/*--------------------------------*- C++ -*----------------------------------*\
  =========                 |
  \\      /  F ield         | OpenFOAM: The Open Source CFD Toolbox
   \\    /   O peration     | Website:  https://openfoam.org
    \\  /    A nd           | Version:  7
     \\/     M anipulation  |
\*---------------------------------------------------------------------------*/
FoamFile
{
    version     2.0;
    format      ascii;
    class       volVectorField;
    location    "0.105";
    object      U;
}
// * * * * * * * * * * * * * * * * * * * * * * * * * * * * * * * * * * * * * //

dimensions      [0 1 -1 0 0 0 0];

internalField   nonuniform List<vector> 
12225
(
(4.66028 0.147071 0)
(4.10919 0.0943211 0)
(3.65788 0.0926862 0)
(3.27144 0.0774083 0)
(2.93129 0.0662571 0)
(2.60052 0.0624793 0)
(2.26351 0.0588409 0)
(1.93893 0.050454 0)
(1.64537 0.0403534 0)
(1.38891 0.0320105 0)
(1.16588 0.0251328 0)
(0.975407 0.0185079 0)
(0.809703 0.0123773 0)
(0.675564 0.00763231 0)
(0.552972 0.00426619 0)
(0.463781 0.0041328 0)
(0.349348 0.00275944 0)
(0.290678 -0.0115567 0)
(5.02591 0.132489 0)
(4.85584 0.081175 0)
(4.743 0.0972246 0)
(4.64739 0.101766 0)
(4.54112 0.0991358 0)
(4.42154 0.101644 0)
(4.28715 0.109544 0)
(4.13973 0.114632 0)
(3.98079 0.113103 0)
(3.81415 0.107526 0)
(3.63843 0.101415 0)
(3.46471 0.0954938 0)
(3.2902 0.0889598 0)
(3.1321 0.0820167 0)
(2.96522 0.0769983 0)
(2.81803 0.0719645 0)
(2.64248 0.0735136 0)
(2.50461 0.0638529 0)
(4.93276 0.150993 0)
(4.80087 0.112907 0)
(4.70994 0.123269 0)
(4.69618 0.123027 0)
(4.69769 0.119349 0)
(4.68518 0.123397 0)
(4.66655 0.132682 0)
(4.64806 0.138848 0)
(4.62315 0.139316 0)
(4.58579 0.13812 0)
(4.53351 0.137913 0)
(4.46981 0.137374 0)
(4.39699 0.133555 0)
(4.32048 0.127946 0)
(4.24068 0.124795 0)
(4.1588 0.124582 0)
(4.07666 0.129552 0)
(3.98421 0.132356 0)
(4.92935 0.227936 0)
(4.8112 0.138604 0)
(4.76731 0.125837 0)
(4.75771 0.124133 0)
(4.7458 0.11926 0)
(4.72397 0.119837 0)
(4.70933 0.126127 0)
(4.71055 0.131678 0)
(4.71797 0.134533 0)
(4.71863 0.137601 0)
(4.70874 0.141729 0)
(4.69014 0.144467 0)
(4.66795 0.14359 0)
(4.64289 0.140243 0)
(4.61932 0.138875 0)
(4.59244 0.140395 0)
(4.56867 0.147313 0)
(4.53434 0.15525 0)
(4.99057 0.236171 0)
(4.8552 0.135525 0)
(4.75797 0.108986 0)
(4.76485 0.117 0)
(4.79642 0.123287 0)
(4.80303 0.126818 0)
(4.79649 0.129558 0)
(4.79175 0.130924 0)
(4.78434 0.132865 0)
(4.76683 0.137931 0)
(4.74257 0.144954 0)
(4.71953 0.149934 0)
(4.70377 0.1506 0)
(4.69399 0.148203 0)
(4.68931 0.147483 0)
(4.68497 0.150346 0)
(4.68199 0.158694 0)
(4.67475 0.170229 0)
(4.99219 0.263556 0)
(4.9325 0.193898 0)
(4.87056 0.141058 0)
(4.85213 0.121207 0)
(4.85105 0.121227 0)
(4.84213 0.127478 0)
(4.82758 0.133545 0)
(4.81306 0.139721 0)
(4.79629 0.147946 0)
(4.77547 0.157368 0)
(4.75458 0.163931 0)
(4.73824 0.16383 0)
(4.72797 0.157277 0)
(4.72094 0.14829 0)
(4.71567 0.142787 0)
(4.71055 0.143728 0)
(4.7071 0.15173 0)
(4.70413 0.164725 0)
(5.20271 0.256561 0)
(5.12643 0.185322 0)
(4.97795 0.128033 0)
(4.87751 0.117996 0)
(4.8339 0.127765 0)
(4.81782 0.136154 0)
(4.81038 0.139257 0)
(4.80391 0.140828 0)
(4.79565 0.144835 0)
(4.78667 0.151645 0)
(4.78007 0.157955 0)
(4.77685 0.160327 0)
(4.77573 0.158558 0)
(4.77365 0.155446 0)
(4.76998 0.154732 0)
(4.76415 0.158167 0)
(4.75889 0.165684 0)
(4.75295 0.175659 0)
(4.96184 0.217446 0)
(5.00281 0.246612 0)
(4.94164 0.20369 0)
(4.86603 0.161159 0)
(4.83938 0.142146 0)
(4.84748 0.136351 0)
(4.85532 0.137924 0)
(4.8463 0.145365 0)
(4.82397 0.156123 0)
(4.79974 0.165791 0)
(4.78273 0.16988 0)
(4.77497 0.166652 0)
(4.7744 0.158435 0)
(4.77651 0.149776 0)
(4.77979 0.145346 0)
(4.78208 0.14715 0)
(4.78526 0.155011 0)
(4.78693 0.16734 0)
(5.02051 0.249076 0)
(4.96476 0.210551 0)
(4.93341 0.184406 0)
(4.90847 0.156392 0)
(4.89967 0.137749 0)
(4.89995 0.134149 0)
(4.89252 0.14274 0)
(4.87275 0.155147 0)
(4.84913 0.164962 0)
(4.83198 0.169779 0)
(4.82569 0.169533 0)
(4.82758 0.165413 0)
(4.83255 0.159908 0)
(4.8358 0.155689 0)
(4.83595 0.154841 0)
(4.833 0.15803 0)
(4.82994 0.164478 0)
(4.82639 0.173524 0)
(4.93695 0.285255 0)
(4.95921 0.259692 0)
(4.93841 0.20489 0)
(4.9238 0.161956 0)
(4.91347 0.141833 0)
(4.89593 0.140254 0)
(4.87215 0.151787 0)
(4.84875 0.166877 0)
(4.83095 0.176905 0)
(4.82041 0.178404 0)
(4.81662 0.172277 0)
(4.8192 0.16188 0)
(4.82759 0.151422 0)
(4.84109 0.144494 0)
(4.85688 0.143409 0)
(4.8713 0.147959 0)
(4.88186 0.157348 0)
(4.884 0.16937 0)
(4.93243 0.288013 0)
(4.97173 0.235501 0)
(4.97656 0.208916 0)
(4.95316 0.172228 0)
(4.92573 0.151943 0)
(4.90091 0.154717 0)
(4.8855 0.165459 0)
(4.8816 0.173016 0)
(4.88641 0.1757 0)
(4.89474 0.174611 0)
(4.90235 0.169477 0)
(4.90789 0.160412 0)
(4.91201 0.149518 0)
(4.91543 0.140683 0)
(4.9175 0.138067 0)
(4.91706 0.142892 0)
(4.9128 0.155611 0)
(4.90387 0.172686 0)
(4.91298 0.286081 0)
(4.88315 0.222987 0)
(4.91462 0.196309 0)
(4.943 0.172872 0)
(4.94547 0.157683 0)
(4.93852 0.157725 0)
(4.92975 0.164248 0)
(4.91592 0.170528 0)
(4.89734 0.173997 0)
(4.87975 0.172945 0)
(4.86927 0.166291 0)
(4.86752 0.155567 0)
(4.87291 0.1445 0)
(4.88071 0.137901 0)
(4.88791 0.139316 0)
(4.89126 0.149206 0)
(4.89085 0.16644 0)
(4.88631 0.187118 0)
(5.04307 0.323357 0)
(5.0055 0.247525 0)
(5.00198 0.193778 0)
(4.98999 0.169149 0)
(4.96282 0.16127 0)
(4.93459 0.167311 0)
(4.91574 0.178148 0)
(4.90969 0.187056 0)
(4.91564 0.190301 0)
(4.92974 0.185899 0)
(4.94567 0.174163 0)
(4.95587 0.15839 0)
(4.95672 0.143483 0)
(4.94727 0.134292 0)
(4.93245 0.133867 0)
(4.91575 0.142739 0)
(4.90304 0.159131 0)
(4.89472 0.180371 0)
(4.95483 0.29254 0)
(4.9929 0.227109 0)
(4.98582 0.198359 0)
(4.96239 0.18262 0)
(4.94534 0.175448 0)
(4.93998 0.175363 0)
(4.94763 0.174282 0)
(4.96554 0.168817 0)
(4.9874 0.160621 0)
(5.00707 0.152823 0)
(5.02035 0.147884 0)
(5.02494 0.146989 0)
(5.02134 0.15015 0)
(5.01066 0.156644 0)
(4.99648 0.165429 0)
(4.98133 0.176052 0)
(4.96975 0.187514 0)
(4.96218 0.19972 0)
(5.00676 0.252503 0)
(4.99397 0.214616 0)
(4.98672 0.214587 0)
(4.97758 0.197822 0)
(4.97191 0.184749 0)
(4.97751 0.175275 0)
(4.99308 0.1669 0)
(5.0074 0.16285 0)
(5.00932 0.163233 0)
(4.99718 0.164239 0)
(4.97706 0.162943 0)
(4.95624 0.159471 0)
(4.94013 0.156048 0)
(4.93066 0.155025 0)
(4.92816 0.157356 0)
(4.93148 0.163573 0)
(4.9399 0.172051 0)
(4.95227 0.183192 0)
(5.00782 0.301159 0)
(4.92524 0.284904 0)
(4.92426 0.223624 0)
(4.95076 0.186154 0)
(4.98024 0.16266 0)
(4.99752 0.142819 0)
(5.0062 0.136534 0)
(5.01003 0.147374 0)
(5.00847 0.166706 0)
(5.00216 0.182869 0)
(4.99332 0.189607 0)
(4.98415 0.187663 0)
(4.97672 0.181148 0)
(4.97272 0.174408 0)
(4.97341 0.16908 0)
(4.97852 0.166506 0)
(4.98822 0.165414 0)
(4.99987 0.166999 0)
(4.88809 0.295233 0)
(4.95044 0.238312 0)
(5.0014 0.147272 0)
(5.04178 0.133216 0)
(5.05599 0.152364 0)
(5.04553 0.165374 0)
(5.02579 0.170433 0)
(5.00971 0.173855 0)
(5.00363 0.177997 0)
(5.00717 0.181037 0)
(5.0159 0.179981 0)
(5.02533 0.173663 0)
(5.03353 0.163228 0)
(5.04078 0.151202 0)
(5.04878 0.140455 0)
(5.05793 0.133403 0)
(5.06913 0.131 0)
(5.08029 0.134352 0)
(5.02351 0.209593 0)
(5.01876 0.156085 0)
(5.0389 0.150606 0)
(5.04301 0.14946 0)
(5.03426 0.154117 0)
(5.03332 0.161575 0)
(5.03952 0.165568 0)
(5.04987 0.164873 0)
(5.06505 0.163004 0)
(5.08282 0.162925 0)
(5.09895 0.164513 0)
(5.11021 0.165492 0)
(5.11609 0.1635 0)
(5.11769 0.157771 0)
(5.11721 0.149051 0)
(5.11665 0.140396 0)
(5.11766 0.133526 0)
(5.121 0.132123 0)
(5.02643 0.225274 0)
(5.0156 0.148773 0)
(5.01673 0.132799 0)
(5.00488 0.148605 0)
(4.98951 0.171442 0)
(4.9801 0.177968 0)
(4.97851 0.164285 0)
(4.98513 0.142644 0)
(5.00214 0.126904 0)
(5.02932 0.122996 0)
(5.06304 0.128244 0)
(5.09821 0.13636 0)
(5.13041 0.141285 0)
(5.15706 0.140382 0)
(5.17694 0.133352 0)
(5.18985 0.122673 0)
(5.19704 0.110452 0)
(5.19924 0.0994241 0)
(4.97687 0.184337 0)
(4.98504 0.182343 0)
(4.97759 0.181437 0)
(4.98659 0.173023 0)
(5.02283 0.169968 0)
(5.06476 0.166816 0)
(5.09431 0.148464 0)
(5.11018 0.113722 0)
(5.12035 0.0752198 0)
(5.13084 0.0467217 0)
(5.14371 0.0341433 0)
(5.1583 0.0360196 0)
(5.17281 0.0475733 0)
(5.18538 0.0642499 0)
(5.1964 0.0829296 0)
(5.20631 0.101185 0)
(5.21651 0.117831 0)
(5.22698 0.131189 0)
(5.08137 0.229213 0)
(5.12325 0.181126 0)
(5.12754 0.133953 0)
(5.12238 0.104615 0)
(5.12998 0.0968841 0)
(5.15331 0.107963 0)
(5.18267 0.118158 0)
(5.20425 0.112766 0)
(5.20961 0.0940042 0)
(5.19904 0.0744136 0)
(5.17999 0.0643513 0)
(5.16184 0.0651374 0)
(5.15148 0.0714362 0)
(5.15113 0.0769435 0)
(5.16056 0.0772896 0)
(5.17746 0.0725706 0)
(5.19997 0.0633764 0)
(5.22525 0.054161 0)
(5.01025 0.214269 0)
(5.06237 0.155293 0)
(5.06403 0.171662 0)
(5.06337 0.152076 0)
(5.06896 0.117509 0)
(5.09316 0.0901425 0)
(5.1332 0.0757411 0)
(5.17604 0.0745257 0)
(5.21047 0.0818555 0)
(5.23321 0.0896658 0)
(5.24806 0.0913531 0)
(5.26139 0.0850631 0)
(5.27786 0.0732549 0)
(5.29859 0.0602525 0)
(5.32159 0.049435 0)
(5.34345 0.0423573 0)
(5.362 0.0387826 0)
(5.37445 0.0378125 0)
(5.04671 0.223911 0)
(5.03681 0.167569 0)
(5.04927 0.151785 0)
(5.07733 0.119699 0)
(5.11717 0.0866057 0)
(5.15566 0.0600232 0)
(5.18037 0.0413393 0)
(5.19135 0.0314047 0)
(5.199 0.0288454 0)
(5.21323 0.0296151 0)
(5.23658 0.0290986 0)
(5.26552 0.0250463 0)
(5.29489 0.0182554 0)
(5.32067 0.0115377 0)
(5.341 0.00732709 0)
(5.35561 0.00669552 0)
(5.36569 0.00961476 0)
(5.37214 0.0147442 0)
(5.0783 0.28076 0)
(5.07623 0.181369 0)
(5.08471 0.135182 0)
(5.11417 0.0871187 0)
(5.15806 0.0456631 0)
(5.20117 0.0304855 0)
(5.23947 0.0387966 0)
(5.27121 0.0532134 0)
(5.29638 0.059353 0)
(5.31685 0.0534307 0)
(5.33447 0.0394247 0)
(5.34994 0.0240799 0)
(5.36396 0.0126262 0)
(5.37624 0.00717048 0)
(5.3871 0.00762568 0)
(5.39681 0.012184 0)
(5.4067 0.018582 0)
(5.41643 0.0248608 0)
(5.06283 0.270276 0)
(5.12623 0.190483 0)
(5.17821 0.128304 0)
(5.21158 0.073536 0)
(5.22184 0.0287552 0)
(5.22722 -0.000853143 0)
(5.25379 -0.013984 0)
(5.30235 -0.0143484 0)
(5.35727 -0.00882574 0)
(5.40355 -0.00404368 0)
(5.43425 -0.00316476 0)
(5.45006 -0.00592607 0)
(5.45628 -0.0101402 0)
(5.45917 -0.0138012 0)
(5.46371 -0.0156834 0)
(5.47125 -0.0154259 0)
(5.48251 -0.0135524 0)
(5.49608 -0.0105471 0)
(4.95225 0.254005 0)
(5.04794 0.153474 0)
(5.15783 0.118621 0)
(5.24358 0.0834183 0)
(5.30404 0.0427188 0)
(5.34616 0.0049235 0)
(5.37919 -0.0173685 0)
(5.4052 -0.021801 0)
(5.42439 -0.0147969 0)
(5.43857 -0.00469354 0)
(5.45008 0.00268705 0)
(5.46076 0.00521457 0)
(5.47222 0.00356372 0)
(5.48531 -0.000131904 0)
(5.50093 -0.00396727 0)
(5.51903 -0.00664062 0)
(5.53962 -0.00739176 0)
(5.56131 -0.00648126 0)
(5.00104 0.275067 0)
(5.14989 0.0719507 0)
(5.30924 0.0252936 0)
(5.37791 0.00101308 0)
(5.37637 -0.0289973 0)
(5.36763 -0.0480716 0)
(5.38364 -0.0522075 0)
(5.41543 -0.044036 0)
(5.44724 -0.0313223 0)
(5.47274 -0.0215894 0)
(5.49249 -0.0183624 0)
(5.50806 -0.0213042 0)
(5.5204 -0.028146 0)
(5.5301 -0.0363121 0)
(5.53911 -0.043605 0)
(5.54955 -0.0487719 0)
(5.56327 -0.0512119 0)
(5.58086 -0.0503148 0)
(5.0143 0.221889 0)
(5.17625 0.074909 0)
(5.31285 0.0575462 0)
(5.40808 0.0625395 0)
(5.46058 0.0348156 0)
(5.48357 -0.00807817 0)
(5.49305 -0.0407667 0)
(5.5004 -0.0506286 0)
(5.51215 -0.0424567 0)
(5.53221 -0.0286437 0)
(5.55985 -0.0176885 0)
(5.59028 -0.0118776 0)
(5.61782 -0.0103477 0)
(5.63879 -0.0123242 0)
(5.65251 -0.0174152 0)
(5.66125 -0.0244902 0)
(5.66802 -0.0323129 0)
(5.67543 -0.0390216 0)
(4.99453 0.0334978 0)
(5.28694 -0.0233932 0)
(5.40931 -0.0351348 0)
(5.46395 -0.0545674 0)
(5.506 -0.0635192 0)
(5.52832 -0.0642527 0)
(5.52623 -0.0613092 0)
(5.50909 -0.0564795 0)
(5.49331 -0.0514946 0)
(5.49224 -0.0491093 0)
(5.50792 -0.0503095 0)
(5.53312 -0.0534345 0)
(5.55704 -0.0561907 0)
(5.57166 -0.0577692 0)
(5.57195 -0.0585076 0)
(5.55931 -0.0588585 0)
(5.5357 -0.0588699 0)
(5.50871 -0.0585065 0)
(4.88459 0.0626156 0)
(5.10068 -0.00228094 0)
(5.09701 0.0124365 0)
(5.00731 0.0122164 0)
(4.90462 -0.00204502 0)
(4.78366 -0.0200067 0)
(4.64854 -0.0311743 0)
(4.51567 -0.0336792 0)
(4.39476 -0.0331755 0)
(4.28326 -0.0342519 0)
(4.17341 -0.0359575 0)
(4.06347 -0.0345815 0)
(3.95888 -0.0284431 0)
(3.86665 -0.0195447 0)
(3.78761 -0.0119357 0)
(3.71952 -0.00851452 0)
(3.65557 -0.00965042 0)
(3.59334 -0.0138131 0)
(-0.0885944 0.19251 -3.93778e-20)
(-0.291848 0.211834 3.90839e-20)
(-0.443243 0.154411 0)
(-0.510635 0.0632109 0)
(-0.486084 -0.0328193 0)
(-0.387324 -0.111207 -3.79248e-20)
(-0.232077 -0.154233 0)
(-0.0548293 -0.159011 0)
(0.116173 -0.137091 0)
(0.259926 -0.0801697 0)
(0.347376 0.015922 3.64822e-20)
(0.378835 0.0363532 0)
(0.377396 -0.0482727 0)
(0.375563 -0.0973355 0)
(0.403132 -0.0898159 0)
(0.453683 -0.063687 3.51154e-20)
(0.509317 -0.0441779 0)
(0.581141 -0.0478436 0)
(0.680477 -0.061478 0)
(0.788472 -0.0623843 0)
(0.892363 -0.0620192 0)
(0.981684 -0.054379 0)
(1.04107 -0.0385379 0)
(1.04027 -0.0586317 3.29682e-20)
(0.990059 -0.13162 -3.26907e-20)
(0.920564 -0.197319 3.24246e-20)
(0.847086 -0.13922 3.21678e-20)
(0.713988 0.065471 0)
(0.466385 0.185321 0)
(0.189224 0.15768 -3.14587e-20)
(-0.0983022 0.206821 -3.12095e-20)
(-0.440036 0.317676 0)
(-0.825732 0.38375 0)
(-1.20969 0.372766 -3.04094e-20)
(-1.55855 0.328259 0)
(-1.87499 0.291747 0)
(-2.16803 0.267521 2.97196e-20)
(-2.44179 0.248359 0)
(-2.69749 0.231366 2.92912e-20)
(-2.93603 0.214937 5.81605e-20)
(-3.15718 0.197989 0)
(-3.36048 0.18029 0)
(-3.54516 0.161996 0)
(-3.71044 0.143411 0)
(-3.85543 0.12473 0)
(-3.97913 0.10595 5.5565e-20)
(-4.08036 0.0868725 5.51018e-20)
(-4.15796 0.0674341 5.46252e-20)
(-4.2107 0.0479553 0)
(-4.23723 0.0288712 -5.36278e-20)
(-4.23661 0.0102822 0)
(-4.21048 -0.00777467 5.25639e-20)
(-4.15838 -0.0250621 5.20092e-20)
(-4.08162 -0.0415403 0)
(-3.98069 -0.0569109 0)
(-3.85738 -0.0709406 0)
(-3.71308 -0.0836629 4.96768e-20)
(-3.5494 -0.0952238 0)
(-3.36747 -0.106071 0)
(-3.16774 -0.116857 0)
(-2.94949 -0.128444 0)
(-2.7106 -0.141869 0)
(-2.44751 -0.158226 0)
(-2.15534 -0.178318 0)
(-1.82833 -0.202153 0)
(-1.4623 -0.228557 -4.43777e-20)
(-1.06174 -0.254109 0)
(-0.639944 -0.269671 0)
(-0.190238 -0.260941 4.29346e-20)
(0.143024 -0.262715 4.24895e-20)
(0.400864 -0.0600895 0)
(0.276759 0.22711 -4.14784e-20)
(-0.199487 0.255913 4.09392e-20)
(-0.44603 0.106924 0)
(-0.546512 0.0427573 -3.99729e-20)
(-0.575493 0.0045232 0)
(-0.60174 -0.015096 0)
(-0.616179 -0.031439 3.86565e-20)
(-0.58003 -0.0461107 0)
(-0.515789 -0.0540107 -3.78386e-20)
(-0.417667 -0.0761804 0)
(-0.26804 -0.129549 3.70432e-20)
(0.00773241 -0.221885 3.66128e-20)
(0.47327 -0.322362 3.61231e-20)
(1.10382 -0.306774 7.1308e-20)
(1.69009 -0.245532 -7.04986e-20)
(2.15877 -0.252499 0)
(2.55387 -0.00689884 0)
(2.25558 0.455005 0)
(1.3964 0.391432 -6.74882e-20)
(0.861116 0.0404843 -6.6777e-20)
(0.817588 -0.137437 6.60113e-20)
(0.959912 -0.251074 0)
(1.07548 -0.280863 -6.44447e-20)
(0.926313 -0.0365642 -6.38093e-20)
(0.335921 0.295447 -6.32191e-20)
(-0.410816 0.387607 0)
(-1.09612 0.360063 0)
(-1.68801 0.31026 0)
(-2.18774 0.260783 -6.12881e-20)
(-2.60922 0.218008 0)
(-2.96745 0.182948 0)
(-3.27438 0.154497 6.01254e-20)
(-3.53846 0.130959 0)
(-3.76517 0.110799 0)
(-3.9578 0.0927066 5.88613e-20)
(-4.11751 0.0754204 0)
(-4.24358 0.0581074 0)
(-4.33457 0.0409152 -5.73747e-20)
(-4.38939 0.0245132 -5.68041e-20)
(-4.40776 0.00875806 0)
(-4.39024 -0.00654298 5.55234e-20)
(-4.33863 -0.0203286 0)
(-4.25429 -0.0331222 -5.40559e-20)
(-4.13843 -0.0449699 0)
(-3.99387 -0.0554699 -5.243e-20)
(-3.82326 -0.0647039 -5.15726e-20)
(-3.6294 -0.0726769 0)
(-3.41499 -0.0795072 0)
(-3.18232 -0.0854051 0)
(-2.93318 -0.0905584 0)
(-2.66895 -0.0951122 0)
(-2.39087 -0.0990746 0)
(-2.10044 -0.102287 0)
(-1.79992 -0.104429 -4.44853e-20)
(-1.49251 -0.105107 4.36521e-20)
(-1.18234 -0.104061 0)
(-0.874264 -0.101181 0)
(-0.573256 -0.0965311 0)
(-0.284267 -0.0902217 0)
(-0.0118224 -0.0843187 7.98978e-20)
(0.242793 -0.0777061 0)
(0.480954 -0.0714552 -7.72721e-20)
(0.703661 -0.0659227 7.60145e-20)
(0.912951 -0.0612671 0)
(1.11117 -0.0574512 0)
(1.30051 -0.0543719 0)
(1.4829 -0.0518389 -7.12245e-20)
(1.65955 -0.0494744 -7.00704e-20)
(1.83078 -0.0470231 0)
(1.99618 -0.0442179 -6.78174e-20)
(2.15382 -0.0402939 -6.67241e-20)
(2.30004 -0.0348013 6.56565e-20)
(2.43069 -0.0282385 0)
(2.54192 -0.0204816 0)
(2.62809 -0.00942686 6.26132e-20)
(2.67922 0.00645333 0)
(2.68441 0.0236553 0)
(2.64255 0.0372874 0)
(2.55674 0.0478627 0)
(2.43137 0.0578098 -5.79691e-20)
(2.26974 0.0694451 -5.7081e-20)
(2.07216 0.0816011 0)
(1.8376 0.0905024 -5.53398e-20)
(1.57234 0.090655 0)
(1.29831 0.0777421 0)
(1.04777 0.0552565 -5.28253e-20)
(0.845418 0.031494 0)
(0.698535 0.0128059 -5.11192e-20)
(0.601982 0.00155408 0)
(0.544511 -0.00367435 0)
(0.514015 -0.00552934 -4.84087e-20)
(0.500796 -0.00595263 0)
(0.498347 -0.00592771 -4.65481e-20)
(0.502112 -0.00591755 0)
(0.509693 -0.00580568 0)
(0.51892 -0.00553287 0)
(0.529331 -0.00505495 4.28057e-20)
(0.539034 -0.00431351 0)
(0.548976 -0.00342518 -4.09514e-20)
(0.556464 -0.00241178 0)
(0.564024 -0.00147802 0)
(0.567212 -0.000377202 0)
(0.569913 0.00050763 0)
(0.567049 0.00226263 0)
(0.558564 0.00294239 0)
(0.552268 0.00685703 0)
(0.510821 0.0052032 6.75469e-20)
(0.525355 0.016832 0)
(0.386167 0.00550888 0)
(-0.0542816 0.584144 1.18168e-19)
(-0.187629 0.507759 -1.17316e-19)
(-0.288704 0.297979 0)
(-0.329279 0.0481921 7.71431e-20)
(-0.276 -0.218673 0)
(-0.158284 -0.43432 3.7937e-20)
(0.0103788 -0.545605 -7.53347e-20)
(0.191107 -0.5568 -7.47014e-20)
(0.353498 -0.49241 0)
(0.491878 -0.37218 -7.34922e-20)
(0.5949 -0.234712 -3.64468e-20)
(0.668092 -0.096733 0)
(0.688081 0.0618928 0)
(0.613093 0.0644201 0)
(0.510236 -0.0680552 0)
(0.459112 -0.142279 -3.51135e-20)
(0.480764 -0.200216 0)
(0.556736 -0.288984 6.91389e-20)
(0.646828 -0.348479 0)
(0.716246 -0.344174 0)
(0.724457 -0.312883 -6.76041e-20)
(0.650883 -0.233097 0)
(0.527267 -0.0507754 6.66083e-20)
(0.353703 0.166206 -3.30369e-20)
(0.109091 0.33179 3.27825e-20)
(-0.210506 0.427347 -3.25127e-20)
(-0.531152 0.505862 -3.22238e-20)
(-0.819383 0.605803 0)
(-1.1415 0.707591 0)
(-1.48263 0.796292 3.13466e-20)
(-1.80389 0.857296 -3.11583e-20)
(-2.08744 0.873394 0)
(-2.34327 0.845454 0)
(-2.58305 0.7894 3.02887e-20)
(-2.81158 0.729302 0)
(-3.03009 0.673772 0)
(-3.23587 0.622504 -2.96299e-20)
(-3.42873 0.574485 0)
(-3.60855 0.529023 2.93258e-20)
(-3.77568 0.485153 -5.80262e-20)
(-3.93016 0.442116 0)
(-4.07194 0.399268 0)
(-4.20048 0.356023 -1.13768e-19)
(-4.31497 0.311794 -1.12917e-19)
(-4.41429 0.266038 -1.1205e-19)
(-4.49727 0.218339 5.56665e-20)
(-4.56261 0.168512 -5.50389e-20)
(-4.60893 0.116694 -1.63874e-19)
(-4.6349 0.0633197 1.08332e-19)
(-4.63963 0.00890481 5.35848e-20)
(-4.62268 -0.0458286 0)
(-4.58195 -0.0996447 -5.25208e-20)
(-4.51733 -0.151806 5.21053e-20)
(-4.42897 -0.20148 0)
(-4.31843 -0.248035 0)
(-4.18712 -0.290978 0)
(-4.03728 -0.330314 -4.96312e-20)
(-3.87097 -0.366497 0)
(-3.69011 -0.400587 9.69653e-20)
(-3.49605 -0.434186 0)
(-3.2893 -0.469397 9.455e-20)
(-3.06935 -0.508725 0)
(-2.8344 -0.554855 -9.21684e-20)
(-2.58133 -0.610036 0)
(-2.30594 -0.674626 8.98605e-20)
(-2.00429 -0.743917 -4.44491e-20)
(-1.67525 -0.80236 0)
(-1.32299 -0.816189 -8.67088e-20)
(-0.961452 -0.734665 -4.28485e-20)
(-0.642002 -0.507225 -4.24316e-20)
(-0.401361 -0.0550989 0)
(-0.215099 0.422383 -4.14487e-20)
(-0.22381 0.516554 -4.09343e-20)
(-0.146453 0.297759 0)
(-0.103411 0.100678 4.00116e-20)
(0.000890251 0.0393634 -7.90702e-20)
(0.0869407 0.0438784 0)
(0.173172 0.00921264 -3.86837e-20)
(0.231358 -0.0691907 0)
(0.265482 -0.138026 1.13549e-19)
(0.284042 -0.211472 0)
(0.308636 -0.34611 -1.1116e-19)
(0.415515 -0.588293 -3.65824e-20)
(0.67132 -0.918567 3.62596e-20)
(1.10983 -1.06983 7.16119e-20)
(1.70044 -0.932036 -7.0835e-20)
(2.05391 -0.612182 0)
(2.27545 -0.00770855 0)
(2.45139 0.625789 0)
(2.06155 0.89667 2.02359e-19)
(1.58526 0.623925 6.66706e-20)
(1.44802 0.0356195 -6.59596e-20)
(1.10734 -0.0543196 0)
(0.359642 0.377656 -6.45542e-20)
(-0.484571 0.807298 6.38446e-20)
(-1.23035 0.987864 6.30973e-20)
(-1.82021 0.947957 0)
(-2.28717 0.830114 0)
(-2.66703 0.699862 0)
(-2.98086 0.583262 6.11871e-20)
(-3.24561 0.486971 0)
(-3.47334 0.409924 -1.21101e-19)
(-3.67187 0.347904 -1.80383e-19)
(-3.84638 0.29618 1.19496e-19)
(-3.99965 0.250843 0)
(-4.13223 0.208809 5.895e-20)
(-4.2431 0.167579 0)
(-4.33055 0.125481 1.15899e-19)
(-4.39265 0.082151 -5.7484e-20)
(-4.42718 0.0382194 -5.69198e-20)
(-4.43174 -0.00587918 0)
(-4.40456 -0.0493975 -1.66683e-19)
(-4.34391 -0.0909334 1.09731e-19)
(-4.24997 -0.129956 5.40518e-20)
(-4.12487 -0.165782 0)
(-3.97042 -0.197788 5.24235e-20)
(-3.78933 -0.225813 1.54783e-19)
(-3.58451 -0.249948 0)
(-3.35862 -0.270591 9.96661e-20)
(-3.11399 -0.28833 9.78637e-20)
(-2.8524 -0.303791 9.60588e-20)
(-2.57508 -0.317455 0)
(-2.28298 -0.329424 0)
(-1.97729 -0.339302 0)
(-1.66005 -0.346213 -4.45266e-20)
(-1.33448 -0.348905 -4.36462e-20)
(-1.0049 -0.346258 0)
(-0.676359 -0.337788 -8.41721e-20)
(-0.353998 -0.323864 -8.26925e-20)
(-0.0443519 -0.305127 0)
(0.24851 -0.285578 -7.98663e-20)
(0.523978 -0.264763 -1.57089e-19)
(0.782237 -0.244964 7.72294e-20)
(1.02457 -0.227437 7.60147e-20)
(1.25317 -0.212715 0)
(1.47047 -0.200769 0)
(1.67877 -0.191242 0)
(1.87983 -0.183545 7.11836e-20)
(2.07473 -0.176874 -7.00581e-20)
(2.26402 -0.170311 -1.37809e-19)
(2.44687 -0.162697 6.77769e-20)
(2.62087 -0.152646 -6.66954e-20)
(2.7832 -0.139212 -6.56174e-20)
(2.93004 -0.122173 0)
(3.05524 -0.1012 0)
(3.15325 -0.0748494 6.25799e-20)
(3.22384 -0.0416292 0)
(3.26908 -0.00328413 0)
(3.28539 0.0370708 -1.19496e-19)
(3.26867 0.0752526 0)
(3.21515 0.108546 -5.79469e-20)
(3.1242 0.13647 5.70284e-20)
(2.99968 0.162327 0)
(2.84899 0.188082 -5.53176e-20)
(2.67894 0.208038 0)
(2.49535 0.211816 0)
(2.30646 0.193948 5.27558e-20)
(2.12408 0.158831 -1.0384e-19)
(1.95965 0.117017 5.10562e-20)
(1.82188 0.0785316 0)
(1.7148 0.0481806 0)
(1.6368 0.0266524 -4.8362e-20)
(1.58321 0.0125135 0)
(1.54905 0.00378399 -4.65099e-20)
(1.52932 -0.00133386 0)
(1.51961 -0.00404002 0)
(1.51559 -0.00532527 0)
(1.51503 -0.00593777 -4.27718e-20)
(1.51548 -0.00606787 0)
(1.51708 -0.00603672 4.09201e-20)
(1.51815 -0.0053927 0)
(1.52011 -0.00478671 0)
(1.52087 -0.00283099 -7.63639e-20)
(1.52127 -0.00169788 7.4562e-20)
(1.52055 0.00268279 0)
(1.51358 0.00364603 0)
(1.51265 0.012886 0)
(1.48321 0.0108839 -2.02492e-19)
(1.49523 0.0313163 0)
(1.40419 0.0218658 1.28176e-19)
(0.0562646 0.680198 4.19753e-23)
(0.0844446 0.670117 1.56525e-19)
(0.0692945 0.45072 0)
(0.0982985 0.0676677 -1.54401e-19)
(0.216305 -0.382346 0)
(0.37606 -0.714436 0)
(0.534794 -0.869953 -7.29288e-23)
(0.665364 -0.869002 7.45623e-20)
(0.761266 -0.752501 7.40541e-20)
(0.824595 -0.565899 7.34007e-20)
(0.857783 -0.336119 0)
(0.854521 -0.121318 0)
(0.82876 0.0782978 -7.18502e-20)
(0.782632 0.235739 -1.42567e-19)
(0.657748 0.211461 1.41482e-19)
(0.507693 0.0110932 0)
(0.432788 -0.215609 1.39372e-19)
(0.381792 -0.363563 -6.91741e-20)
(0.277653 -0.349 0)
(0.111755 -0.162796 1.36401e-19)
(-0.108897 0.0976082 6.77082e-20)
(-0.373277 0.324867 -1.3427e-19)
(-0.625521 0.512921 -6.65701e-20)
(-0.857758 0.673268 0)
(-1.09422 0.801157 1.30837e-19)
(-1.35262 0.908064 1.29716e-19)
(-1.61595 1.01937 0)
(-1.86784 1.12196 1.27519e-19)
(-2.1055 1.19551 0)
(-2.3176 1.23231 1.25418e-19)
(-2.50279 1.23589 6.20813e-20)
(-2.66219 1.21072 0)
(-2.80795 1.16061 0)
(-2.95054 1.09548 0)
(-3.0951 1.02619 0)
(-3.24188 0.958325 0)
(-3.38973 0.893853 0)
(-3.53772 0.832903 1.18148e-19)
(-3.6842 0.774474 -1.75828e-19)
(-3.82765 0.717144 0)
(-3.96633 0.659572 0)
(-4.09846 0.600579 0)
(-4.22207 0.539262 -2.6611e-22)
(-4.33513 0.474933 1.12886e-19)
(-4.43551 0.407095 2.24305e-19)
(-4.52098 0.335428 -2.22533e-19)
(-4.58932 0.259826 -1.10484e-19)
(-4.63856 0.180412 1.09289e-19)
(-4.66705 0.0977324 2.51079e-22)
(-4.67309 0.0128881 1.07566e-19)
(-4.65459 -0.072736 0)
(-4.61075 -0.157834 1.05403e-19)
(-4.54226 -0.24046 2.26587e-22)
(-4.44966 -0.318692 0)
(-4.33464 -0.390875 0)
(-4.19935 -0.455844 -1.00746e-19)
(-4.04676 -0.513129 0)
(-3.88021 -0.563249 0)
(-3.70317 -0.60771 9.72766e-20)
(-3.51893 -0.648991 1.91768e-19)
(-3.33038 -0.690365 -9.45039e-20)
(-3.14009 -0.735714 0)
(-2.95044 -0.789257 9.21083e-20)
(-2.76356 -0.854974 0)
(-2.58055 -0.934961 9.01258e-20)
(-2.40031 -1.02545 8.86463e-20)
(-2.21919 -1.11 -1.75444e-19)
(-2.03076 -1.15181 -8.6793e-20)
(-1.82239 -1.09279 0)
(-1.57409 -0.869823 1.69463e-19)
(-1.22541 -0.445404 0)
(-0.770984 0.0755224 2.48346e-19)
(-0.413774 0.207324 1.63461e-19)
(-0.0568125 0.0318583 1.61573e-19)
(0.209572 -0.10644 -1.59718e-19)
(0.445632 -0.195213 2.36842e-19)
(0.662036 -0.207075 0)
(0.877134 -0.185042 0)
(1.08262 -0.148675 -1.52653e-19)
(1.23616 -0.105704 -2.26632e-19)
(1.28662 -0.106628 0)
(1.22653 -0.231928 7.40187e-20)
(1.14813 -0.55758 0)
(1.1638 -1.08027 -2.1698e-19)
(1.3025 -1.45224 2.85803e-22)
(1.59891 -1.29199 -3.38281e-22)
(1.81286 -0.866346 1.40355e-19)
(1.87626 -0.282969 0)
(1.85291 0.657135 -1.37352e-19)
(1.45736 1.24347 1.95455e-22)
(1.321 0.74327 0)
(1.02372 0.381245 0)
(0.152398 0.802245 0)
(-0.746038 1.27208 1.28934e-19)
(-1.40985 1.48334 0)
(-1.85706 1.47009 0)
(-2.16492 1.32356 0)
(-2.40931 1.13472 0)
(-2.62627 0.954563 0)
(-2.83213 0.802284 1.22998e-19)
(-3.03142 0.68007 0)
(-3.22441 0.583185 1.21108e-19)
(-3.4097 0.504761 1.2032e-19)
(-3.58542 0.438169 -1.19511e-19)
(-3.74916 0.377954 0)
(-3.89804 0.319804 -1.17806e-19)
(-4.02859 0.260649 0)
(-4.13696 0.198677 -1.15917e-19)
(-4.21901 0.133088 1.14872e-19)
(-4.27114 0.0639615 3.4159e-19)
(-4.29068 -0.00737297 0)
(-4.27605 -0.078787 3.33894e-19)
(-4.22693 -0.148782 1.10104e-19)
(-4.14379 -0.215088 0)
(-4.02816 -0.276011 2.13542e-19)
(-3.88235 -0.330606 2.10172e-19)
(-3.70907 -0.378394 -3.09897e-19)
(-3.51125 -0.41955 0)
(-3.29163 -0.454759 -9.96447e-20)
(-3.05257 -0.48504 -9.78401e-20)
(-2.79573 -0.511556 -2.88323e-19)
(-2.5221 -0.53525 0)
(-2.23221 -0.556409 0)
(-1.9268 -0.574362 0)
(-1.60744 -0.587536 -8.91444e-20)
(-1.27717 -0.593692 0)
(-0.940783 -0.590592 0)
(-0.604055 -0.577215 8.41464e-20)
(-0.272835 -0.554425 8.26693e-20)
(0.0452675 -0.523962 0)
(0.34612 -0.489798 0)
(0.629661 -0.454229 1.57022e-19)
(0.895896 -0.420516 0)
(1.14688 -0.390707 -1.51925e-19)
(1.38553 -0.365639 -1.49548e-19)
(1.61489 -0.345178 0)
(1.83759 -0.328616 0)
(2.05565 -0.31489 1.42405e-19)
(2.27032 -0.302717 -5.44153e-23)
(2.48186 -0.290435 -4.42976e-23)
(2.68919 -0.275887 0)
(2.88941 -0.256905 2.66658e-19)
(3.07775 -0.231908 0)
(3.24805 -0.199687 0)
(3.39278 -0.159458 0)
(3.50294 -0.112612 -1.25104e-19)
(3.57044 -0.0627408 0)
(3.59326 -0.0115802 2.4266e-19)
(3.57423 0.0411034 1.19458e-19)
(3.5204 0.0914988 0)
(3.44313 0.14197 1.15832e-19)
(3.35101 0.193036 0)
(3.24512 0.237999 0)
(3.12341 0.269889 3.31758e-19)
(2.99111 0.286904 -2.1778e-19)
(2.8577 0.288262 0)
(2.72683 0.270302 -2.10997e-19)
(2.59765 0.233114 1.03779e-19)
(2.4702 0.185295 0)
(2.34822 0.137776 0)
(2.23756 0.0968712 0)
(2.14287 0.0641978 2.9002e-19)
(2.06654 0.0391257 0)
(2.00903 0.0205617 9.29746e-20)
(1.96913 0.00758726 0)
(1.94438 -0.000751643 0)
(1.93131 -0.00531563 0)
(1.92648 -0.00726417 0)
(1.9267 -0.00743862 0)
(1.92956 -0.0069603 0)
(1.93338 -0.00574811 1.59951e-19)
(1.93686 -0.00489218 0)
(1.94013 -0.00256493 7.6337e-20)
(1.94124 -0.00134459 -2.23607e-19)
(1.94337 0.00364783 0)
(1.93931 0.00512212 0)
(1.94194 0.0157917 1.38424e-19)
(1.92647 0.0157557 1.34944e-19)
(1.93593 0.0377378 -1.31486e-19)
(1.89493 0.0334195 -1.28126e-19)
(0.0685 0.342556 -2.36577e-19)
(0.132489 0.540832 -2.34794e-19)
(0.249844 0.324313 -1.55405e-19)
(0.481624 -0.207563 -7.70911e-20)
(0.726585 -0.7169 0)
(0.906638 -1.02922 1.51638e-19)
(1.00956 -1.12084 -7.53042e-20)
(1.05086 -1.0413 0)
(1.05507 -0.847654 -7.39785e-20)
(1.02935 -0.593898 0)
(0.98082 -0.311623 1.46086e-19)
(0.914632 -0.0370136 0)
(0.812441 0.200643 7.18363e-20)
(0.701667 0.407589 1.42551e-19)
(0.554631 0.458931 -1.41466e-19)
(0.376799 0.284129 0)
(0.227813 0.0358887 -1.39456e-19)
(0.0268878 -0.00130578 0)
(-0.252509 0.163404 0)
(-0.536662 0.366311 -1.36211e-19)
(-0.797218 0.559134 0)
(-1.0426 0.738813 2.10553e-23)
(-1.27293 0.909392 0)
(-1.49183 1.06498 0)
(-1.70351 1.19797 6.91704e-23)
(-1.90604 1.30685 -1.29462e-19)
(-2.09404 1.39371 -1.28529e-19)
(-2.26333 1.45185 -1.27334e-19)
(-2.41073 1.4781 0)
(-2.53832 1.47511 -2.50851e-19)
(-2.65314 1.45001 0)
(-2.76293 1.40953 -1.23675e-19)
(-2.87613 1.35821 0)
(-2.99679 1.30119 0)
(-3.12552 1.24204 1.21001e-19)
(-3.26124 1.18247 0)
(-3.40233 1.12276 -1.19291e-19)
(-3.54676 1.0625 3.46331e-22)
(-3.69224 1.00084 2.34897e-19)
(-3.83654 0.936822 -2.33591e-19)
(-3.97738 0.869389 0)
(-4.11252 0.797482 0)
(-4.23969 0.720188 -1.14658e-19)
(-4.35664 0.636742 0)
(-4.46104 0.546587 -1.12254e-19)
(-4.55054 0.449424 1.1137e-19)
(-4.62276 0.345275 1.10462e-19)
(-4.67519 0.234574 0)
(-4.70533 0.118407 -1.08559e-19)
(-4.7116 -0.00136305 -1.07556e-19)
(-4.6937 -0.122692 2.13642e-19)
(-4.65036 -0.243722 -1.05381e-19)
(-4.58079 -0.361389 -1.04247e-19)
(-4.48534 -0.472788 0)
(-4.36504 -0.574864 0)
(-4.22198 -0.665275 1.00709e-19)
(-4.05907 -0.742633 0)
(-3.88 -0.806906 0)
(-3.68892 -0.859451 -1.94133e-19)
(-3.49003 -0.902756 -1.91702e-19)
(-3.2873 -0.940004 0)
(-3.08455 -0.974664 0)
(-2.88603 -1.01033 0)
(-2.69714 -1.0509 0)
(-2.52465 -1.10071 -1.79858e-19)
(-2.37598 -1.16333 1.77921e-19)
(-2.2574 -1.23655 1.75382e-19)
(-2.1683 -1.30136 3.46728e-19)
(-2.08715 -1.31043 0)
(-1.95709 -1.19608 5.99079e-24)
(-1.6899 -0.916015 0)
(-1.24698 -0.569051 -1.65294e-19)
(-0.751914 -0.392176 -2.44464e-23)
(-0.312547 -0.436057 -1.61463e-19)
(0.0773184 -0.464347 1.59638e-19)
(0.417906 -0.472063 -5.43089e-23)
(0.716845 -0.461493 0)
(0.979941 -0.459027 1.54155e-19)
(1.23674 -0.453435 1.5255e-19)
(1.49833 -0.367637 3.01856e-19)
(1.68444 -0.209468 0)
(1.70585 -0.151836 -1.47915e-19)
(1.60652 -0.425077 0)
(1.50842 -1.02899 2.89276e-19)
(1.45476 -1.54004 -1.42937e-19)
(1.47569 -1.45002 1.41541e-19)
(1.4628 -0.845051 -1.40442e-19)
(1.21127 0.0946957 -2.78676e-19)
(0.884106 1.11883 1.37481e-19)
(0.810776 1.31854 -1.35359e-19)
(0.829152 0.940369 0)
(0.182548 1.15301 2.64363e-19)
(-0.68254 1.64662 0)
(-1.30074 1.88899 2.58571e-19)