/*--------------------------------*- C++ -*----------------------------------*\
  =========                 |
  \\      /  F ield         | OpenFOAM: The Open Source CFD Toolbox
   \\    /   O peration     | Website:  https://openfoam.org
    \\  /    A nd           | Version:  7
     \\/     M anipulation  |
\*---------------------------------------------------------------------------*/
FoamFile
{
    version     2.0;
    format      ascii;
    class       volScalarField;
    location    "0.066";
    object      k;
}
// * * * * * * * * * * * * * * * * * * * * * * * * * * * * * * * * * * * * * //

dimensions      [0 2 -2 0 0 0 0];

internalField   nonuniform List<scalar> 
12225
(
1.9419e-05
1.79789e-05
1.677e-05
1.5335e-05
1.40718e-05
1.28898e-05
1.136e-05
1.02285e-05
8.97787e-06
7.5599e-06
6.72923e-06
6.50847e-06
6.38795e-06
5.98564e-06
4.81148e-06
4.20978e-06
3.99231e-06
4.56786e-06
1.99836e-05
1.9875e-05
1.97107e-05
1.94473e-05
1.90613e-05
1.877e-05
1.84509e-05
1.79782e-05
1.72997e-05
1.67196e-05
1.64255e-05
1.61304e-05
1.57388e-05
1.5297e-05
1.47558e-05
1.43605e-05
1.41537e-05
1.4047e-05
1.99987e-05
1.94461e-05
1.91526e-05
1.90692e-05
1.88772e-05
1.87366e-05
1.86956e-05
1.86431e-05
1.85466e-05
1.84371e-05
1.83792e-05
1.83323e-05
1.82441e-05
1.80402e-05
1.77747e-05
1.75693e-05
1.74595e-05
1.73971e-05
2.00592e-05
1.98453e-05
1.91941e-05
1.80224e-05
1.56885e-05
1.4751e-05
1.47216e-05
1.49171e-05
1.57147e-05
1.66825e-05
1.71467e-05
1.72627e-05
1.72526e-05
1.71252e-05
1.68298e-05
1.66642e-05
1.66137e-05
1.66198e-05
2.18491e-05
2.25918e-05
2.1671e-05
2.0493e-05
1.98384e-05
1.94684e-05
1.90655e-05
1.88053e-05
1.8494e-05
1.84533e-05
1.83798e-05
1.81214e-05
1.75235e-05
1.68659e-05
1.64087e-05
1.62204e-05
1.61914e-05
1.61591e-05
2.24665e-05
2.17202e-05
2.14682e-05
2.15014e-05
2.19716e-05
2.4491e-05
2.64189e-05
2.67408e-05
2.66388e-05
2.64364e-05
2.6208e-05
2.55864e-05
2.45538e-05
2.37398e-05
2.3226e-05
2.29239e-05
2.28198e-05
2.26693e-05
2.13682e-05
2.10832e-05
2.1466e-05
2.15442e-05
2.18376e-05
2.3426e-05
2.79216e-05
3.05121e-05
3.1049e-05
3.09523e-05
2.99328e-05
2.80328e-05
2.68981e-05
2.62073e-05
2.56918e-05
2.53032e-05
2.50369e-05
2.4892e-05
2.24891e-05
2.28548e-05
2.29174e-05
2.26692e-05
2.18163e-05
2.17726e-05
2.27575e-05
2.5689e-05
2.75416e-05
2.80067e-05
2.79571e-05
2.77525e-05
2.75184e-05
2.69958e-05
2.56475e-05
2.47682e-05
2.38888e-05
2.34641e-05
2.10582e-05
2.14089e-05
2.23647e-05
2.45248e-05
2.4469e-05
2.33824e-05
2.23862e-05
2.2231e-05
2.22497e-05
2.23483e-05
2.29725e-05
2.42569e-05
2.48004e-05
2.48972e-05
2.48291e-05
2.45296e-05
2.38179e-05
2.31029e-05
2.06421e-05
2.08588e-05
2.1853e-05
2.45949e-05
2.55066e-05
2.53384e-05
2.41308e-05
2.3027e-05
2.272e-05
2.23393e-05
2.19696e-05
2.1957e-05
2.20605e-05
2.23297e-05
2.25217e-05
2.25639e-05
2.25526e-05
2.25118e-05
2.04861e-05
2.0355e-05
2.0402e-05
2.10927e-05
2.38988e-05
2.70003e-05
2.74345e-05
2.71709e-05
2.60547e-05
2.36789e-05
2.21246e-05
2.13417e-05
2.10492e-05
2.0979e-05
2.09758e-05
2.10017e-05
2.11637e-05
2.15234e-05
2.0981e-05
2.04832e-05
2.02922e-05
2.07384e-05
2.32591e-05
2.53392e-05
2.56148e-05
2.55512e-05
2.51002e-05
2.36974e-05
2.24335e-05
2.16586e-05
2.12474e-05
2.10745e-05
2.10291e-05
2.10301e-05
2.10476e-05
2.10922e-05
2.0929e-05
2.06555e-05
2.03293e-05
2.04802e-05
2.13772e-05
2.19959e-05
2.20578e-05
2.2006e-05
2.19278e-05
2.17303e-05
2.15088e-05
2.13428e-05
2.12375e-05
2.11916e-05
2.11664e-05
2.11129e-05
2.10504e-05
2.10468e-05
2.09407e-05
2.18415e-05
2.09371e-05
2.04364e-05
2.06022e-05
2.11108e-05
2.12279e-05
2.11739e-05
2.09649e-05
2.08626e-05
2.08323e-05
2.08151e-05
2.07871e-05
2.07322e-05
2.06172e-05
2.03547e-05
2.00729e-05
1.99213e-05
2.0922e-05
2.11717e-05
2.13336e-05
2.20937e-05
2.31335e-05
2.29896e-05
2.22512e-05
2.13892e-05
2.09148e-05
2.07105e-05
2.06402e-05
2.0599e-05
2.05234e-05
2.03447e-05
2.01434e-05
1.99939e-05
1.99084e-05
1.9875e-05
2.02988e-05
2.20024e-05
2.31774e-05
2.3393e-05
2.31367e-05
2.27107e-05
2.22992e-05
2.19499e-05
2.1573e-05
2.12474e-05
2.1013e-05
2.08323e-05
2.06511e-05
2.04619e-05
2.03007e-05
2.02018e-05
2.01628e-05
2.01532e-05
2.03988e-05
2.16495e-05
2.2152e-05
2.22609e-05
2.22498e-05
2.1991e-05
2.14291e-05
2.11838e-05
2.10467e-05
2.09259e-05
2.08062e-05
2.06744e-05
2.05209e-05
2.03573e-05
2.0211e-05
2.01048e-05
2.00433e-05
2.00147e-05
2.06496e-05
2.07619e-05
2.08625e-05
2.1332e-05
2.13217e-05
2.08023e-05
2.04428e-05
2.03447e-05
2.03207e-05
2.031e-05
2.02891e-05
2.0263e-05
2.02445e-05
2.02345e-05
2.02309e-05
2.02303e-05
2.02308e-05
2.02315e-05
2.01738e-05
2.01962e-05
2.03826e-05
2.05962e-05
2.05769e-05
2.04734e-05
2.04225e-05
2.04141e-05
2.0417e-05
2.04254e-05
2.04308e-05
2.04348e-05
2.04429e-05
2.04529e-05
2.04726e-05
2.05023e-05
2.05467e-05
2.06218e-05
2.04461e-05
2.0221e-05
2.02715e-05
2.0407e-05
2.04484e-05
2.04747e-05
2.05391e-05
2.06383e-05
2.06965e-05
2.07158e-05
2.07153e-05
2.0691e-05
2.06132e-05
2.05631e-05
2.05442e-05
2.05425e-05
2.05489e-05
2.0577e-05
2.0284e-05
2.01573e-05
2.02317e-05
2.04771e-05
2.06688e-05
2.07737e-05
2.08114e-05
2.08137e-05
2.07955e-05
2.07055e-05
2.05969e-05
2.05459e-05
2.051e-05
2.04542e-05
2.03827e-05
2.03268e-05
2.02978e-05
2.02857e-05
2.03801e-05
2.04219e-05
2.05232e-05
2.08599e-05
2.13153e-05
2.15764e-05
2.16455e-05
2.16287e-05
2.14643e-05
2.09954e-05
2.06763e-05
2.0533e-05
2.04884e-05
2.04857e-05
2.04986e-05
2.05144e-05
2.05143e-05
2.04908e-05
2.09947e-05
2.12491e-05
2.11335e-05
2.11957e-05
2.1453e-05
2.1579e-05
2.15892e-05
2.15367e-05
2.12462e-05
2.07664e-05
2.05119e-05
2.04371e-05
2.04339e-05
2.04458e-05
2.0483e-05
2.05054e-05
2.05128e-05
2.05129e-05
2.03213e-05
2.03456e-05
2.0412e-05
2.04701e-05
2.04836e-05
2.04795e-05
2.04587e-05
2.03889e-05
2.02886e-05
2.02474e-05
2.02478e-05
2.03036e-05
2.04808e-05
2.05645e-05
2.06199e-05
2.06803e-05
2.07136e-05
2.07137e-05
2.01034e-05
2.02025e-05
2.02198e-05
2.02165e-05
2.02004e-05
2.01922e-05
2.01865e-05
2.01733e-05
2.01545e-05
2.01482e-05
2.01486e-05
2.01571e-05
2.01993e-05
2.03706e-05
2.08023e-05
2.11779e-05
2.14175e-05
2.15212e-05
2.02628e-05
2.0256e-05
2.02134e-05
2.02545e-05
2.03305e-05
2.03419e-05
2.032e-05
2.02311e-05
2.01682e-05
2.01435e-05
2.01346e-05
2.01337e-05
2.01429e-05
2.01831e-05
2.03059e-05
2.06917e-05
2.13021e-05
2.16528e-05
2.00329e-05
2.00218e-05
2.00134e-05
2.00114e-05
2.00012e-05
1.99561e-05
1.98447e-05
1.98035e-05
1.97939e-05
1.97695e-05
1.96661e-05
1.94951e-05
1.94745e-05
1.9535e-05
1.9754e-05
2.0256e-05
2.14799e-05
2.21534e-05
2.02445e-05
1.8496e-05
1.6799e-05
1.76504e-05
1.99573e-05
2.30924e-05
2.69557e-05
3.13529e-05
3.5206e-05
3.78848e-05
3.99527e-05
4.24482e-05
4.73327e-05
5.78788e-05
7.30508e-05
8.7261e-05
0.00010017
0.000106337
3.24975e-05
0.00010175
0.000159227
0.000229205
0.0002887
0.000333688
0.000367204
0.000390711
0.00040396
0.000411353
0.000420804
0.000439425
0.000485481
0.000558582
0.000624598
0.00067416
0.000707655
0.000723906
0.00278647
0.00264153
0.00252681
0.00237402
0.00228425
0.00221789
0.00207527
0.00186196
0.0017024
0.00161301
0.0015741
0.00156148
0.00155663
0.00154808
0.00152083
0.00147299
0.0014411
0.00142485
0.00115449
0.00279947
0.00325776
0.00317915
0.00403924
0.00441329
0.00482836
0.00541478
0.00674239
0.00739394
0.00722796
0.00645202
0.00544579
0.0047774
0.00430169
0.00392486
0.00365276
0.00339715
0.00315546
0.00293324
0.00267291
0.00246983
0.00220794
0.0020361
0.00193637
0.00188894
0.00187504
0.00184849
0.00178561
0.00163111
0.00142352
0.00104215
0.000877951
0.000942051
0.00169932
0.00259621
0.00305696
0.00341884
0.00372405
0.004091
0.00470709
0.00611264
0.0103369
0.0186754
0.0242495
0.0256909
0.0262715
0.0268438
0.0283183
0.0346467
0.0558635
0.057899
0.0220996
0.0032128
0.00114834
0.000847152
0.000861488
0.000878576
0.000892927
0.000833883
0.000768411
0.000656147
0.000559358
0.000480995
0.000392716
0.000318054
0.00026896
0.000219556
0.000178188
0.000155334
0.000131426
0.000120096
0.000112824
0.000110218
0.000112529
0.000113848
0.000115386
0.000116992
0.000118477
0.000119853
0.00012093
0.000121779
0.00012247
0.000123061
0.000123439
0.000123672
0.000123805
0.000123832
0.000123426
0.000123006
0.000122008
0.000120799
0.0001191
0.000116938
0.000114338
0.00011139
0.000108152
0.000104492
0.000100255
9.55666e-05
9.04603e-05
8.53038e-05
8.00864e-05
7.44297e-05
6.91316e-05
6.38748e-05
5.89664e-05
5.45645e-05
5.08052e-05
4.74266e-05
4.42379e-05
4.11768e-05
3.82108e-05
3.53041e-05
3.24407e-05
2.96237e-05
2.68548e-05
2.41438e-05
2.14865e-05
1.87985e-05
1.60853e-05
1.34784e-05
1.11118e-05
9.06948e-06
7.33764e-06
5.87433e-06
4.66601e-06
3.68753e-06
2.90527e-06
2.28497e-06
1.7965e-06
1.41441e-06
1.11744e-06
8.87888e-07
7.1107e-07
5.74908e-07
4.69635e-07
3.87539e-07
3.22677e-07
2.70575e-07
2.27954e-07
1.92468e-07
1.62483e-07
1.36877e-07
1.14879e-07
9.5944e-08
7.96643e-08
6.57172e-08
5.38313e-08
4.37678e-08
3.53101e-08
2.82583e-08
2.24274e-08
1.76472e-08
1.37629e-08
1.06351e-08
8.13987e-09
6.16859e-09
4.62646e-09
3.43243e-09
2.51795e-09
1.82571e-09
1.30792e-09
9.25504e-10
6.46522e-10
4.45766e-10
3.03082e-10
2.03236e-10
1.34159e-10
8.73194e-11
5.57446e-11
3.51386e-11
2.15804e-11
1.30491e-11
7.81671e-12
4.06907e-12
1.6031e-11
7.05152e-09
1.3582e-06
1.22028e-06
0.000930639
0.00237167
0.00352207
0.00523539
0.00642006
0.00685627
0.00630993
0.00548091
0.0056579
0.00560605
0.00545212
0.00517161
0.00476583
0.00428059
0.00398962
0.00378213
0.00362508
0.00348794
0.00337202
0.00328682
0.00317555
0.00307185
0.00293113
0.00277139
0.00257123
0.00236552
0.00215887
0.00195697
0.00181641
0.0016751
0.00150896
0.00135665
0.00119406
0.00106392
0.00108213
0.00116521
0.00141613
0.00157018
0.00153806
0.00137695
0.00124064
0.00122322
0.00139338
0.00238152
0.0027968
0.00311957
0.00401245
0.00777959
0.0270811
0.035604
0.0271245
0.014056
0.00422472
0.00122115
0.000686762
0.000543623
0.000488212
0.000421294
0.000376745
0.000329074
0.000296463
0.000269916
0.000253522
0.000244401
0.000236747
0.000233056
0.000231108
0.000230095
0.000229717
0.000229562
0.00022935
0.000229302
0.000229251
0.000228926
0.000228054
0.000227348
0.000226616
0.000225646
0.000224762
0.000223663
0.000222562
0.000221322
0.000220282
0.000219106
0.000217929
0.000216794
0.000215692
0.000214577
0.000213415
0.000212209
0.000210944
0.000209548
0.000207977
0.000206291
0.0002045
0.000202555
0.000200459
0.000198202
0.000195725
0.000192933
0.000189333
0.000185305
0.000180389
0.000174827
0.000168816
0.000162036
0.000154239
0.000145286
0.000135423
0.000125882
0.000117682
0.000110283
0.000103204
9.6268e-05
8.9416e-05
8.28505e-05
7.65778e-05
7.05538e-05
6.48432e-05
5.95664e-05
5.47165e-05
5.01574e-05
4.57524e-05
4.14111e-05
3.71531e-05
3.30294e-05
2.90569e-05
2.52671e-05
2.17064e-05
1.84279e-05
1.54813e-05
1.28965e-05
1.06779e-05
8.80939e-06
7.26097e-06
5.99549e-06
4.97293e-06
4.15368e-06
3.50023e-06
2.97806e-06
2.55651e-06
2.20988e-06
1.9181e-06
1.66674e-06
1.44624e-06
1.25061e-06
1.07625e-06
9.20839e-07
7.82737e-07
6.60617e-07
5.53308e-07
4.59711e-07
3.78745e-07
3.0932e-07
2.50342e-07
2.00722e-07
1.59376e-07
1.25277e-07
9.7449e-08
7.49775e-08
5.70277e-08
4.28579e-08
3.18095e-08
2.33099e-08
1.68559e-08
1.20259e-08
8.45788e-09
5.86479e-09
4.00258e-09
2.69204e-09
1.77792e-09
1.15569e-09
7.37517e-10
4.59472e-10
2.80333e-10
1.7363e-10
8.51247e-11
7.67182e-10
2.00037e-07
2.29919e-07
0.000448197
0.00117472
0.00215076
0.00410499
0.00754917
0.00806971
0.00743556
0.00577671
0.00394279
0.00329212
0.00308769
0.00307247
0.00309607
0.0031547
0.00322539
0.00327375
0.00327333
0.00327056
0.00326331
0.00324562
0.00321264
0.00315807
0.00306412
0.00296539
0.00283815
0.00266789
0.00247926
0.00224813
0.00204349
0.00185567
0.00168728
0.00152081
0.00137454
0.00120951
0.00110631
0.00109259
0.00111888
0.001238
0.00126034
0.00123068
0.00111699
0.00107645
0.00114676
0.00155765
0.00223139
0.00451532
0.0132789
0.0170226
0.0199015
0.0118558
0.00481922
0.00202283
0.000777047
0.000438521
0.0003492
0.000313173
0.000289893
0.000272596
0.000260919
0.000253256
0.000247085
0.000243482
0.000241174
0.000239746
0.000238724
0.000238118
0.000237742
0.000237419
0.000236932
0.000236641
0.000236419
0.000236312
0.000236286
0.000236374
0.000236368
0.00023605
0.000235254
0.000234781
0.000234168
0.00023287
0.000231688
0.000230773
0.000229687
0.000228634
0.000227773
0.000227114
0.000226619
0.000226125
0.000225467
0.000224754
0.000224009
0.000223058
0.000221677
0.000220106
0.000218554
0.000216798
0.000214945
0.000213058
0.000211006
0.000209242
0.000207391
0.000205737
0.000203514
0.000200407
0.000196921
0.000193251
0.000189286
0.00018476
0.000178637
0.000170286
0.00016029
0.000150751
0.000141694
0.000133053
0.000124683
0.000116179
0.000106927
9.6806e-05
8.64341e-05
7.68661e-05
6.90473e-05
6.31287e-05
5.86551e-05
5.52256e-05
5.24151e-05
4.98856e-05
4.73895e-05
4.46768e-05
4.15316e-05
3.78882e-05
3.38998e-05
2.98091e-05
2.5803e-05
2.19942e-05
1.84559e-05
1.52503e-05
1.24324e-05
1.00379e-05
8.0705e-06
6.50146e-06
5.27827e-06
4.3379e-06
3.61794e-06
3.06358e-06
2.63042e-06
2.28452e-06
2.00101e-06
1.76225e-06
1.55596e-06
1.37376e-06
1.21008e-06
1.06134e-06
9.25509e-07
8.01513e-07
6.88701e-07
5.86527e-07
4.94732e-07
4.13089e-07
3.41262e-07
2.78809e-07
2.25161e-07
1.79666e-07
1.41568e-07
1.10104e-07
8.44578e-08
6.38744e-08
4.75828e-08
3.49065e-08
2.51935e-08
1.78807e-08
1.24831e-08
8.52603e-09
5.75559e-09
3.74017e-09
2.45047e-09
1.47037e-09
9.7904e-10
5.3894e-10
6.03798e-09
1.73245e-08
0.000920863
0.00117962
0.00188144
0.00629956
0.009286
0.00859403
0.0065327
0.00395128
0.002883
0.00263355
0.00264943
0.00272503
0.00286491
0.00301595
0.00315804
0.00325272
0.0033024
0.00338414
0.00348356
0.00354592
0.00363365
0.00372012
0.00372917
0.0037171
0.00368064
0.00360196
0.00343492
0.00315318
0.00280441
0.00247095
0.00225187
0.00192625
0.00172983
0.00152038
0.00130496
0.00117897
0.00115013
0.00114265
0.00110977
0.00100427
0.00096485
0.00105479
0.00159953
0.00377729
0.00915137
0.0113891
0.0127283
0.0103989
0.00501286
0.00238636
0.00103868
0.000530221
0.000356709
0.000311334
0.000297938
0.000292664
0.000288541
0.000286034
0.000285378
0.000285551
0.000287443
0.000288574
0.000290107
0.000291087
0.000291452
0.000291457
0.000290283
0.000287985
0.00028589
0.000284015
0.000281934
0.000279432
0.000276741
0.000274489
0.000272557
0.000270224
0.00026756
0.000265331
0.000263099
0.000260589
0.000258351
0.000256547
0.000254705
0.000253072
0.000251961
0.000251542
0.000251607
0.000251874
0.000251784
0.000251082
0.000249832
0.000247891
0.000245114
0.000241517
0.000237523
0.000232983
0.000228014
0.000223006
0.000218196
0.000214491
0.000211828
0.000209705
0.000208236
0.00020713
0.000204589
0.000200772
0.00019704
0.000193838
0.000191197
0.000188227
0.000182565
0.000172785
0.000161306
0.000150869
0.000141592
0.000133468
0.000126579
0.000120421
0.000113806
0.000105655
9.60538e-05
8.6737e-05
7.92331e-05
7.32389e-05
6.84229e-05
6.46232e-05
6.15297e-05
5.88841e-05
5.64283e-05
5.38155e-05
5.0766e-05
4.72203e-05
4.32555e-05
3.88614e-05
3.39913e-05
2.87461e-05
2.34751e-05
1.86182e-05
1.44736e-05
1.11417e-05
8.56432e-06
6.61077e-06
5.14285e-06
4.04419e-06
3.2251e-06
2.61686e-06
2.16487e-06
1.82552e-06
1.56541e-06
1.36027e-06
1.19349e-06
1.05398e-06
9.33992e-07
8.27974e-07
7.32201e-07
6.44503e-07
5.63563e-07
4.88619e-07
4.19497e-07
3.56295e-07
2.9917e-07
2.48224e-07
2.03439e-07
1.64645e-07
1.31522e-07
1.03654e-07
8.05611e-08
6.17295e-08
4.66109e-08
3.46458e-08
2.53533e-08
1.8215e-08
1.28983e-08
8.89588e-09
6.1277e-09
3.95173e-09
2.77762e-09
1.46324e-09
1.23509e-09
1.47702e-09
0.00592565
0.00548595
0.0133308
0.0141625
0.0116075
0.00607127
0.00322737
0.00247794
0.00244232
0.00249998
0.00262479
0.00288274
0.00311949
0.0033471
0.003504
0.00363641
0.00379034
0.00389798
0.00406245
0.00418881
0.00426003
0.00435114
0.00437111
0.00435919
0.00432544
0.00425753
0.00418067
0.00402513
0.00372301
0.00337068
0.00306213
0.00282222
0.00255584
0.00225296
0.00201381
0.00165889
0.00135867
0.00123602
0.00110536
0.00102038
0.00109315
0.00196626
0.00618561
0.00872701
0.00939838
0.00944557
0.00634995
0.00292163
0.00134807
0.000687518
0.000421969
0.000333726
0.000308674
0.000301778
0.000298697
0.000296917
0.000296352
0.000297241
0.000299509
0.000304038
0.000306693
0.000307947
0.000308796
0.000309069
0.000309113
0.000309097
0.000308551
0.000307096
0.000305605
0.000304585
0.000304032
0.000303634
0.000302997
0.000302079
0.000301445
0.00030067
0.000298675
0.000297203
0.000296472
0.000294953
0.000294429
0.000294713
0.000295691
0.000297466
0.000300194
0.000303761
0.000308229
0.000313666
0.000315169
0.00031521
0.000312737
0.000307635
0.00030251
0.000296247
0.000289102
0.000281048
0.000271392
0.000259239
0.000244406
0.000228757
0.000217459
0.000211125
0.000207926
0.000208272
0.000208833
0.000207943
0.000203933
0.000197823
0.000193447
0.000191479
0.000190882
0.000189946
0.000185536
0.000172353
0.000155737
0.000141539
0.000131218
0.000123938
0.000118564
0.000113941
0.000108538
0.00010108
9.17626e-05
8.27788e-05
7.57763e-05
7.06025e-05
6.66958e-05
6.37036e-05
6.14814e-05
5.98937e-05
5.85434e-05
5.6907e-05
5.47527e-05
5.23095e-05
4.98252e-05
4.71575e-05
4.38701e-05
3.96611e-05
3.4627e-05
2.91547e-05
2.37169e-05
1.86894e-05
1.42762e-05
1.05648e-05
7.60684e-06
5.42945e-06
3.96464e-06
3.0128e-06
2.36137e-06
1.88348e-06
1.52059e-06
1.24308e-06
1.03088e-06
8.67693e-07
7.40096e-07
6.37539e-07
5.52267e-07
4.7917e-07
4.14622e-07
3.56126e-07
3.02719e-07
2.54423e-07
2.1128e-07
1.73307e-07
1.40414e-07
1.12371e-07
8.88047e-08
6.9259e-08
5.32761e-08
4.03928e-08
3.01802e-08
2.21898e-08
1.60641e-08
1.14194e-08
7.99413e-09
5.46673e-09
3.70261e-09
2.41036e-09
1.57794e-09
1.039e-09
0.00506938
0.0162086
0.0135011
0.00621671
0.00293938
0.00210591
0.00212991
0.00225731
0.00250156
0.00288578
0.00325154
0.0035802
0.00376696
0.0039631
0.0041514
0.00430394
0.0045773
0.00490009
0.00520703
0.00544203
0.00556528
0.00554192
0.00547592
0.00535702
0.00522747
0.00507892
0.00491464
0.00472191
0.00455348
0.00425171
0.00377008
0.00333445
0.00294065
0.00269665
0.00238393
0.0020591
0.00182084
0.00143917
0.00115444
0.001216
0.00272561
0.00665008
0.00781601
0.00818799
0.0071028
0.00380232
0.00198443
0.00096177
0.000537362
0.000381898
0.000328962
0.000312933
0.000308149
0.000306419
0.000306484
0.000307624
0.000308477
0.000311628
0.000317586
0.00032373
0.000327155
0.000329167
0.00033297
0.000337828
0.000342807
0.000346689
0.000350516
0.000353857
0.000355817
0.000357486
0.000359005
0.000360515
0.000361659
0.000361908
0.000359941
0.000357611
0.000355352
0.00035134
0.000350733
0.000351014
0.000352045
0.000354422
0.000358825
0.000365042
0.000372729
0.00037801
0.000378557
0.000374478
0.000368
0.000362182
0.000357347
0.000352683
0.000346026
0.000335519
0.000324557
0.000311648
0.000299288
0.000288329
0.000277584
0.000263929
0.000243186
0.000221054
0.000205544
0.000197912
0.000200088
0.000207647
0.000210009
0.000208021
0.000200192
0.000191906
0.000189356
0.000190792
0.000193856
0.000193984
0.000189192
0.000169971
0.000145037
0.000127865
0.000117982
0.000112523
0.000109265
0.000105769
0.000100876
9.41757e-05
8.60047e-05
7.82498e-05
7.21073e-05
6.737e-05
6.37356e-05
6.1085e-05
5.93606e-05
5.8292e-05
5.72971e-05
5.57293e-05
5.34186e-05
5.08409e-05
4.8547e-05
4.65497e-05
4.43198e-05
4.1254e-05
3.71181e-05
3.21359e-05
2.67957e-05
2.16051e-05
1.69402e-05
1.30079e-05
9.85555e-06
7.4137e-06
5.54708e-06
4.11486e-06
3.02172e-06
2.20482e-06
1.60983e-06
1.18664e-06
8.91216e-07
6.87102e-07
5.45657e-07
4.45504e-07
3.71969e-07
3.15864e-07
2.70962e-07
2.32644e-07
1.98073e-07
1.66311e-07
1.37545e-07
1.11971e-07
8.97171e-08
7.07584e-08
5.4949e-08
4.20085e-08
3.16239e-08
2.34325e-08
1.70895e-08
1.22595e-08
8.64426e-09
5.99393e-09
4.07811e-09
2.72299e-09
1.78605e-09
1.14178e-09
0.00711911
0.00576897
0.0025541
0.00154154
0.00161461
0.0018399
0.00227764
0.00273572
0.00309992
0.00347127
0.00375574
0.00392402
0.00405682
0.00425567
0.00455929
0.00525001
0.00608266
0.00723177
0.00807789
0.00877137
0.00873596
0.00850655
0.0079521
0.00734643
0.00671519
0.00616111
0.00586446
0.00546364
0.00504508
0.00469262
0.00433007
0.00381603
0.00328937
0.00294273
0.00265957
0.00237505
0.00190111
0.00140015
0.00134314
0.00265549
0.00623379
0.0071104
0.00719649
0.00552756
0.00275846
0.0014054
0.000771558
0.000482309
0.000372682
0.0003349
0.00032064
0.000314506
0.000313233
0.000314013
0.000314581
0.000315825
0.000319017
0.000326276
0.000336199
0.00034668
0.000355448
0.000365522
0.000378659
0.000395061
0.000413155
0.000430506
0.000446121
0.000458123
0.000463913
0.000466458
0.000466825
0.000462867
0.0004616
0.000459349
0.000447229
0.000436062
0.000430473
0.000420845
0.000418513
0.000418905
0.000420689
0.000424188
0.000430751
0.000434191
0.000433484
0.000426431
0.00041176
0.000394907
0.000385048
0.000378459
0.000375824
0.000375451
0.000374126
0.000364684
0.000349357
0.000327167
0.000306142
0.000289225
0.000276715
0.000268539
0.000257612
0.000239212
0.000216528
0.00019547
0.0001823
0.000180666
0.000194536
0.000206512
0.000207801
0.000201557
0.000189745
0.000183904
0.000185252
0.000193784
0.000196857
0.000195218
0.000184198
0.000153183
0.000125863
0.000111078
0.000103909
0.000101218
9.99484e-05
9.71465e-05
9.24435e-05
8.6224e-05
7.91634e-05
7.27927e-05
6.76404e-05
6.35368e-05
6.0421e-05
5.83417e-05
5.72024e-05
5.65588e-05
5.56539e-05
5.38425e-05
5.11312e-05
4.82328e-05
4.58847e-05
4.41975e-05
4.262e-05
4.041e-05
3.71423e-05
3.28842e-05
2.80436e-05
2.31178e-05
1.85161e-05
1.44914e-05
1.11421e-05
8.44031e-06
6.28413e-06
4.57675e-06
3.25722e-06
2.27237e-06
1.56361e-06
1.07102e-06
7.3935e-07
5.21778e-07
3.81277e-07
2.90231e-07
2.2951e-07
1.8719e-07
1.56455e-07
1.3267e-07
1.12468e-07
9.41689e-08
7.75639e-08
6.27588e-08
4.98576e-08
3.88833e-08
2.97741e-08
2.23862e-08
1.65294e-08
1.19874e-08
8.53507e-09
5.96602e-09
4.09241e-09
2.75481e-09
1.81939e-09
1.17893e-09
0.00187417
0.0013373
0.00106124
0.00123246
0.0017691
0.00221231
0.00260417
0.00301315
0.0034819
0.00382762
0.00394892
0.00407349
0.00433473
0.00489231
0.00600078
0.00812789
0.0105128
0.0131422
0.0149336
0.0159886
0.0157824
0.0150486
0.0134681
0.0116028
0.00974542
0.00814697
0.00731219
0.00686294
0.00611343
0.00546829
0.00504604
0.00435852
0.00364095
0.00312471
0.00275408
0.00236848
0.00173816
0.00146176
0.00240333
0.00568704
0.00655012
0.00654474
0.00472431
0.0023267
0.00117669
0.000669545
0.000460175
0.000376812
0.000345392
0.000333001
0.000323744
0.000318601
0.000317441
0.000317725
0.000319328
0.000322661
0.000329169
0.000340667
0.000359074
0.000378475
0.000400771
0.000428686
0.0004629
0.00050327
0.000546719
0.000588191
0.000623542
0.000650059
0.000665876
0.000673122
0.000674836
0.00067137
0.000672558
0.000670776
0.000640783
0.000606305
0.000592756
0.000573617
0.000549717
0.000541934
0.000536436
0.000528307
0.000522223
0.000510512
0.000491315
0.000462598
0.000432155
0.000409855
0.00039966
0.000397793
0.000404479
0.000429523
0.000458548
0.00046519
0.000451132
0.000405513
0.000348704
0.000299593
0.000264019
0.000242045
0.000230371
0.000226436
0.000218518
0.000199528
0.000180808
0.000166731
0.000161841
0.000170665
0.000193127
0.000201316
0.000198029
0.000185623
0.000176421
0.000175733
0.0001861
0.00019424
0.000194105
0.000186315
0.000158788
0.000124868
0.000105375
9.58213e-05
9.18276e-05
9.1181e-05
9.09321e-05
8.93823e-05
8.45862e-05
7.85299e-05
7.2478e-05
6.71766e-05
6.28504e-05
5.95053e-05
5.71742e-05
5.57869e-05
5.50803e-05
5.45774e-05
5.37052e-05
5.16472e-05
4.84376e-05
4.53092e-05
4.29543e-05
4.14714e-05
4.03377e-05
3.87844e-05
3.62703e-05
3.27224e-05
2.84391e-05
2.38671e-05
1.94184e-05
1.53812e-05
1.1899e-05
8.98925e-06
6.60642e-06
4.70864e-06
3.25556e-06
2.18956e-06
1.43943e-06
9.31944e-07
6.00969e-07
3.92059e-07
2.63589e-07
1.85636e-07
1.37795e-07
1.07271e-07
8.68121e-08
7.23038e-08
6.08023e-08
5.06636e-08
4.14836e-08
3.32913e-08
2.61582e-08
2.01188e-08
1.51484e-08
1.11687e-08
8.06653e-09
5.70941e-09
3.95946e-09
2.69106e-09
1.79125e-09
1.17007e-09
0.000773254
0.000875582
0.000962017
0.00152794
0.00199929
0.00233771
0.00295547
0.00358774
0.00386336
0.00394632
0.00399617
0.00421356
0.00489475
0.00648821
0.00963733
0.0138073
0.0175386
0.0201066
0.0217111
0.022679
0.0226442
0.0221431
0.0207259
0.0182416
0.0150845
0.0115606
0.00916434
0.00797875
0.00706065
0.00611095
0.00520803
0.00434162
0.00360664
0.00308794
0.00271051
0.00210399
0.00163402
0.00218037
0.00512968
0.00605445
0.0060873
0.0043164
0.00211486
0.00108761
0.000635425
0.000453371
0.000384358
0.000357301
0.000345405
0.000336739
0.000329638
0.000323804
0.000323217
0.000325579
0.000329068
0.00033465
0.000347305
0.000370225
0.000399464
0.000435198
0.000480337
0.000539055
0.000612353
0.000695826
0.000781867
0.000867525
0.000952996
0.00103273
0.00110423
0.00116217
0.00120013
0.00123201
0.00125928
0.0012703
0.0012332
0.00112128
0.00107338
0.00101864
0.000892539
0.000837978
0.000787839
0.000722976
0.000682304
0.000632392
0.000584708
0.000533604
0.000489216
0.000455237
0.000442703
0.00044406
0.000468326
0.000536225
0.000594046
0.000617596
0.000624734
0.000602528
0.000542148
0.000438617
0.000323266
0.000250391
0.000210677
0.000186465
0.000173628
0.000173561
0.00017277
0.000162735
0.000151773
0.000147022
0.000149831
0.000170002
0.000187374
0.000188115
0.000178217
0.000166253
0.000162928
0.000170909
0.000183399
0.000185385
0.000179551
0.000155732
0.000122194
0.000100443
8.9404e-05
8.43682e-05
8.29576e-05
8.29959e-05
8.29146e-05
8.16623e-05
7.72583e-05
7.15065e-05
6.6113e-05
6.15794e-05
5.80818e-05
5.56533e-05
5.41955e-05
5.34543e-05
5.3041e-05
5.25108e-05
5.13709e-05
4.86134e-05
4.51506e-05
4.21439e-05
4.00418e-05
3.88309e-05
3.80563e-05
3.70101e-05
3.5096e-05
3.21102e-05
2.8234e-05
2.38699e-05
1.947e-05
1.5383e-05
1.17918e-05
8.75641e-06
6.28235e-06
4.35194e-06
2.91495e-06
1.89295e-06
1.1965e-06
7.40461e-07
4.52762e-07
2.77413e-07
1.73725e-07
1.13746e-07
7.91752e-08
5.86807e-08
4.59201e-08
3.75151e-08
3.1259e-08
2.58913e-08
2.10534e-08
1.67372e-08
1.29877e-08
9.83378e-09
7.26667e-09
5.2436e-09
3.69588e-09
2.54801e-09
1.71579e-09
1.13521e-09
0.000706913
0.000868171
0.00102216
0.00173263
0.00208273
0.00284101
0.00347511
0.00379654
0.0039188
0.00390854
0.00398043
0.00453812
0.0060277
0.00890427
0.0130873
0.0173796
0.0202276
0.0223177
0.02353
0.0241929
0.024362
0.0242574
0.0234302
0.021386
0.0180654
0.0141919
0.0107548
0.00839609
0.00700136
0.0059839
0.00502608
0.00414705
0.00345026
0.00295735
0.00237671
0.00180664
0.00206617
0.00458244
0.00560822
0.00572169
0.00422776
0.00201945
0.00104743
0.000627722
0.000457075
0.000392787
0.000369511
0.000360274
0.000356378
0.00035458
0.000345246
0.000335765
0.000333992
0.000334706
0.000338705
0.000347613
0.000366818
0.000400873
0.00044707
0.000508393
0.000590511
0.000700073
0.000841896
0.00101492
0.00121185
0.00141366
0.00163243
0.0018704
0.00212738
0.00236692
0.00255384
0.00268701
0.00274007
0.00274031
0.00266538
0.00240659
0.00223112
0.00205817
0.00172684
0.00157021
0.00136487
0.00118487
0.00105125
0.000932161
0.00083558
0.000744338
0.000662857
0.000590992
0.000555949
0.000550507
0.000569724
0.000591883
0.000618931
0.000645758
0.00065801
0.000656258
0.000640098
0.000603599
0.000519747
0.000381584
0.000266953
0.000196489
0.000158458
0.000136576
0.000127519
0.00013287
0.000140331
0.000138451
0.000134429
0.000134832
0.000145142
0.000166417
0.000172314
0.000166801
0.000153133
0.000146603
0.000149606
0.000163035
0.000167998
0.000164876
0.000146257
0.000116924
9.56123e-05
8.41568e-05
7.86476e-05
7.65701e-05
7.63592e-05
7.648e-05
7.63427e-05
7.50054e-05
7.04316e-05
6.47435e-05
5.99265e-05
5.62678e-05
5.37982e-05
5.23635e-05
5.16638e-05
5.13172e-05
5.09418e-05
5.0167e-05
4.81381e-05
4.47554e-05
4.15869e-05
3.90936e-05
3.73429e-05
3.62699e-05
3.56526e-05
3.5036e-05
3.37981e-05
3.10961e-05
2.72766e-05
2.28547e-05
1.83904e-05
1.42694e-05
1.06822e-05
7.70546e-06
5.35306e-06
3.58592e-06
2.32134e-06
1.45596e-06
8.87578e-07
5.28237e-07
3.09093e-07
1.79962e-07
1.06275e-07
6.53474e-08
4.29177e-08
3.04136e-08
2.31239e-08
1.86138e-08
1.53996e-08
1.26771e-08
1.02226e-08
8.03285e-09
6.13908e-09
4.56339e-09
3.29945e-09
2.32515e-09
1.59389e-09
1.072e-09
0.00067679
0.00091109
0.00116264
0.00192859
0.00242643
0.00321313
0.00363371
0.00383953
0.0038117
0.00368927
0.00387669
0.00471052
0.00651145
0.00971444
0.0140667
0.0181576
0.0206283
0.0225171
0.0234041
0.023656
0.0236641
0.0227579
0.0218564
0.0197324
0.0166052
0.0130954
0.00998338
0.00786287
0.00654171
0.00552018
0.00456396
0.00375538
0.00310671
0.00246651
0.00203329
0.00209416
0.00407174
0.00520278
0.0053855
0.00432256
0.00204571
0.00103979
0.000628033
0.000463503
0.000401628
0.000379807
0.000372184
0.000369766
0.000370131
0.000368497
0.000360129
0.000354198
0.000354422
0.000357488
0.000364762
0.000382314
0.000418444
0.000478852
0.0005682
0.000689554
0.000853857
0.00106626
0.00133331
0.00166157
0.00204884
0.00250041
0.00303946
0.00371686
0.00439626
0.00494171
0.00528317
0.00550917
0.00560015
0.00551285
0.00523201
0.00474914
0.00428609
0.00374534
0.00314178
0.00272386
0.00226065
0.00193038
0.00163347
0.00139804
0.001204
0.00105282
0.000920527
0.000804482
0.000713952
0.00065459
0.00061334
0.000595826
0.000589629
0.00058951
0.00059352
0.000600276
0.000610223
0.000610335
0.000575158
0.000486731
0.000373214
0.000277964
0.000204577
0.000147471
0.000116886
0.000104392
0.000103803
0.000117025
0.00012514
0.000123788
0.00012229
0.0001249
0.000141168
0.000152298
0.000150927
0.000138677
0.000128232
0.000126911
0.000135815
0.000145031
0.000145029
0.00013424
0.000110088
9.08505e-05
7.9852e-05
7.43259e-05
7.19054e-05
7.12939e-05
7.1288e-05
7.1277e-05
7.08712e-05
6.87209e-05
6.32474e-05
5.81592e-05
5.43328e-05
5.17789e-05
5.03185e-05
4.96296e-05
4.93289e-05
4.90645e-05
4.85358e-05
4.71921e-05
4.40413e-05
4.07315e-05
3.80324e-05
3.60814e-05
3.4824e-05
3.4085e-05
3.36147e-05
3.30592e-05
3.19255e-05
2.92706e-05
2.51898e-05
2.05973e-05
1.61315e-05
1.21392e-05
8.78154e-06
6.10789e-06
4.09033e-06
2.64315e-06
1.65189e-06
1.00073e-06
5.89109e-07
3.38101e-07
1.9022e-07
1.05978e-07
5.95409e-08
3.47044e-08
2.1683e-08
1.47991e-08
1.1015e-08
8.79423e-09
7.24599e-09
5.92956e-09
4.73484e-09
3.66981e-09
2.75445e-09
2.00636e-09
1.41362e-09
9.7579e-10
0.000661928