/*--------------------------------*- C++ -*----------------------------------*\
  =========                 |
  \\      /  F ield         | OpenFOAM: The Open Source CFD Toolbox
   \\    /   O peration     | Website:  https://openfoam.org
    \\  /    A nd           | Version:  7
     \\/     M anipulation  |
\*---------------------------------------------------------------------------*/
FoamFile
{
    version     2.0;
    format      ascii;
    class       volScalarField;
    location    "0.066";
    object      pPrime2Mean;
}
// * * * * * * * * * * * * * * * * * * * * * * * * * * * * * * * * * * * * * //

dimensions      [0 4 -4 0 0 0 0];

internalField   nonuniform List<scalar> 
12225
(
5.4319e+06
5.34545e+06
5.25618e+06
5.17005e+06
5.08731e+06
5.00771e+06
4.93102e+06
4.85702e+06
4.78547e+06
4.71612e+06
4.64868e+06
4.58283e+06
4.51819e+06
4.45428e+06
4.39043e+06
4.32558e+06
4.25792e+06
4.18287e+06
5.43198e+06
5.3455e+06
5.25622e+06
5.1701e+06
5.08736e+06
5.00776e+06
4.93108e+06
4.8571e+06
4.78557e+06
4.71624e+06
4.64883e+06
4.58303e+06
4.51846e+06
4.45465e+06
4.39097e+06
4.32646e+06
4.25959e+06
4.18664e+06
5.4321e+06
5.34558e+06
5.25631e+06
5.17019e+06
5.08747e+06
5.00789e+06
4.93123e+06
4.85727e+06
4.78578e+06
4.7165e+06
4.64917e+06
4.58346e+06
4.51904e+06
4.45546e+06
4.39216e+06
4.32834e+06
4.26291e+06
4.19445e+06
5.43225e+06
5.34573e+06
5.25646e+06
5.17035e+06
5.08765e+06
5.00809e+06
4.93147e+06
4.85756e+06
4.78613e+06
4.71694e+06
4.64972e+06
4.58418e+06
4.52e+06
4.45677e+06
4.39405e+06
4.33126e+06
4.26783e+06
4.2038e+06
5.43242e+06
5.34593e+06
5.25667e+06
5.17059e+06
5.08791e+06
5.0084e+06
4.93183e+06
4.85799e+06
4.78665e+06
4.71759e+06
4.65053e+06
4.58523e+06
4.52137e+06
4.45865e+06
4.39669e+06
4.33519e+06
4.27401e+06
4.21391e+06
5.43269e+06
5.34621e+06
5.25697e+06
5.17091e+06
5.08827e+06
5.00881e+06
4.93232e+06
4.85858e+06
4.78737e+06
4.71847e+06
4.65164e+06
4.58664e+06
4.52322e+06
4.46112e+06
4.40011e+06
4.34006e+06
4.28117e+06
4.22439e+06
5.43304e+06
5.34659e+06
5.25737e+06
5.17134e+06
5.08875e+06
5.00936e+06
4.93296e+06
4.85935e+06
4.7883e+06
4.71962e+06
4.65308e+06
4.58847e+06
4.52558e+06
4.46422e+06
4.40428e+06
4.34579e+06
4.28907e+06
4.23505e+06
5.43348e+06
5.34707e+06
5.25788e+06
5.1719e+06
5.08937e+06
5.01007e+06
4.93379e+06
4.86033e+06
4.78949e+06
4.72108e+06
4.65489e+06
4.59074e+06
4.52847e+06
4.46796e+06
4.40918e+06
4.35224e+06
4.29753e+06
4.24581e+06
5.4341e+06
5.34769e+06
5.25853e+06
5.17259e+06
5.09014e+06
5.01095e+06
4.93482e+06
4.86156e+06
4.79097e+06
4.72287e+06
4.6571e+06
4.59349e+06
4.53192e+06
4.47233e+06
4.41474e+06
4.35933e+06
4.30643e+06
4.25663e+06
5.43484e+06
5.34847e+06
5.25933e+06
5.17345e+06
5.09109e+06
5.01204e+06
4.93608e+06
4.86304e+06
4.79275e+06
4.72503e+06
4.65973e+06
4.59672e+06
4.53592e+06
4.4773e+06
4.42092e+06
4.36694e+06
4.31566e+06
4.26749e+06
5.43591e+06
5.34943e+06
5.26031e+06
5.17449e+06
5.09224e+06
5.01334e+06
4.93759e+06
4.86483e+06
4.79487e+06
4.72757e+06
4.6628e+06
4.60045e+06
4.54047e+06
4.48284e+06
4.42763e+06
4.37499e+06
4.32515e+06
4.27835e+06
5.43689e+06
5.35049e+06
5.26138e+06
5.17563e+06
5.0935e+06
5.01476e+06
4.93923e+06
4.86675e+06
4.79714e+06
4.73028e+06
4.66604e+06
4.60433e+06
4.54512e+06
4.48839e+06
4.43422e+06
4.38271e+06
4.33402e+06
4.28832e+06
5.43825e+06
5.35172e+06
5.26261e+06
5.17693e+06
5.09492e+06
5.01637e+06
4.94108e+06
4.8689e+06
4.79968e+06
4.73327e+06
4.66959e+06
4.60854e+06
4.5501e+06
4.49426e+06
4.44106e+06
4.39059e+06
4.34294e+06
4.29819e+06
5.44004e+06
5.35336e+06
5.26424e+06
5.17865e+06
5.0968e+06
5.01848e+06
4.9435e+06
4.8717e+06
4.80294e+06
4.7371e+06
4.67407e+06
4.6138e+06
4.55623e+06
4.50136e+06
4.44921e+06
4.39981e+06
4.3532e+06
4.3094e+06
5.44237e+06
5.35552e+06
5.26639e+06
5.1809e+06
5.09926e+06
5.02124e+06
4.94664e+06
4.87531e+06
4.80711e+06
4.74193e+06
4.67968e+06
4.62027e+06
4.56366e+06
4.50982e+06
4.45875e+06
4.41043e+06
4.36485e+06
4.32197e+06
5.44526e+06
5.35829e+06
5.26918e+06
5.18383e+06
5.10245e+06
5.02479e+06
4.95065e+06
4.87988e+06
4.81235e+06
4.74793e+06
4.68654e+06
4.62807e+06
4.57249e+06
4.51972e+06
4.46973e+06
4.42246e+06
4.37787e+06
4.33588e+06
5.4489e+06
5.36178e+06
5.27271e+06
5.18756e+06
5.1065e+06
5.02927e+06
4.95568e+06
4.88556e+06
4.81878e+06
4.7552e+06
4.69473e+06
4.63726e+06
4.58271e+06
4.531e+06
4.48205e+06
4.43579e+06
4.39212e+06
4.35095e+06
5.45308e+06
5.36597e+06
5.27703e+06
5.19214e+06
5.11146e+06
5.03474e+06
4.96177e+06
4.89237e+06
4.82639e+06
4.7637e+06
4.70418e+06
4.6477e+06
4.59416e+06
4.54346e+06
4.49549e+06
4.45014e+06
4.40731e+06
4.36689e+06
5.45792e+06
5.37081e+06
5.28205e+06
5.19748e+06
5.11725e+06
5.04109e+06
4.96877e+06
4.90012e+06
4.83497e+06
4.77316e+06
4.71456e+06
4.65902e+06
4.60641e+06
4.55662e+06
4.50952e+06
4.46498e+06
4.42288e+06
4.38311e+06
5.4618e+06
5.37477e+06
5.2862e+06
5.20193e+06
5.12209e+06
5.04638e+06
4.97459e+06
4.9065e+06
4.84195e+06
4.78078e+06
4.72282e+06
4.66792e+06
4.61595e+06
4.56677e+06
4.52023e+06
4.47622e+06
4.4346e+06
4.39525e+06
5.46408e+06
5.37733e+06
5.28898e+06
5.20495e+06
5.12539e+06
5.05e+06
4.97854e+06
4.91083e+06
4.84667e+06
4.78589e+06
4.72833e+06
4.67383e+06
4.62225e+06
4.57343e+06
4.52724e+06
4.48354e+06
4.4422e+06
4.40309e+06
5.46588e+06
5.37915e+06
5.29097e+06
5.20715e+06
5.1278e+06
5.05265e+06
4.98145e+06
4.914e+06
4.85012e+06
4.78961e+06
4.73233e+06
4.6781e+06
4.62678e+06
4.57821e+06
4.53224e+06
4.48876e+06
4.44761e+06
4.40867e+06
5.46665e+06
5.38032e+06
5.29235e+06
5.2087e+06
5.12954e+06
5.05456e+06
4.98354e+06
4.91628e+06
4.85259e+06
4.79228e+06
4.73519e+06
4.68115e+06
4.63e+06
4.5816e+06
4.53579e+06
4.49245e+06
4.45142e+06
4.4126e+06
5.4673e+06
5.3811e+06
5.29329e+06
5.20979e+06
5.13075e+06
5.05591e+06
4.98502e+06
4.9179e+06
4.85434e+06
4.79416e+06
4.7372e+06
4.68329e+06
4.63226e+06
4.58397e+06
4.53828e+06
4.49502e+06
4.45409e+06
4.41534e+06
5.46768e+06
5.38159e+06
5.29391e+06
5.21052e+06
5.13159e+06
5.05684e+06
4.98605e+06
4.91901e+06
4.85555e+06
4.79546e+06
4.73859e+06
4.68477e+06
4.63382e+06
4.58561e+06
4.53998e+06
4.4968e+06
4.45592e+06
4.41722e+06
5.46762e+06
5.38185e+06
5.29431e+06
5.21101e+06
5.13215e+06
5.05747e+06
4.98674e+06
4.91976e+06
4.85636e+06
4.79634e+06
4.73953e+06
4.68576e+06
4.63487e+06
4.58671e+06
4.54112e+06
4.49798e+06
4.45714e+06
4.41847e+06
5.46759e+06
5.38201e+06
5.29456e+06
5.21132e+06
5.13251e+06
5.05787e+06
4.98718e+06
4.92025e+06
4.85688e+06
4.7969e+06
4.74013e+06
4.6864e+06
4.63554e+06
4.58741e+06
4.54186e+06
4.49874e+06
4.45793e+06
4.41928e+06
5.46762e+06
5.3821e+06
5.29471e+06
5.21151e+06
5.13273e+06
5.05811e+06
4.98745e+06
4.92054e+06
4.8572e+06
4.79724e+06
4.74049e+06
4.68678e+06
4.63595e+06
4.58784e+06
4.54231e+06
4.49921e+06
4.45841e+06
4.41977e+06
5.46764e+06
5.38215e+06
5.29479e+06
5.21161e+06
5.13285e+06
5.05825e+06
4.9876e+06
4.9207e+06
4.85737e+06
4.79743e+06
4.74069e+06
4.68699e+06
4.63617e+06
4.58807e+06
4.54255e+06
4.49946e+06
4.45866e+06
4.42004e+06
5.46765e+06
5.38217e+06
5.29482e+06
5.21165e+06
5.13289e+06
5.0583e+06
4.98766e+06
4.92077e+06
4.85744e+06
4.7975e+06
4.74077e+06
4.68708e+06
4.63626e+06
4.58816e+06
4.54264e+06
4.49956e+06
4.45877e+06
4.42014e+06
3.53442e+06
3.53414e+06
3.53357e+06
3.53271e+06
3.53155e+06
3.53009e+06
3.52832e+06
3.52624e+06
3.52383e+06
3.52111e+06
3.51807e+06
3.51469e+06
3.51099e+06
3.50696e+06
3.50259e+06
3.49789e+06
3.49285e+06
3.48747e+06
3.48176e+06
3.47571e+06
3.46933e+06
3.46261e+06
3.45557e+06
3.44819e+06
3.44048e+06
3.43245e+06
3.42409e+06
3.41541e+06
3.40642e+06
3.39711e+06
3.3875e+06
3.37757e+06
3.36735e+06
3.35683e+06
3.34601e+06
3.33491e+06
3.32351e+06
3.31184e+06
3.2999e+06
3.28768e+06
3.27519e+06
3.26245e+06
3.24944e+06
3.23618e+06
3.22268e+06
3.20893e+06
3.19494e+06
3.18072e+06
3.16626e+06
3.15158e+06
3.13668e+06
3.12156e+06
3.10623e+06
3.09069e+06
3.07495e+06
3.05901e+06
3.04287e+06
3.02653e+06
3.01001e+06
2.99331e+06
2.97643e+06
2.95936e+06
2.94213e+06
2.92472e+06
2.90715e+06
2.88942e+06
2.87152e+06
2.85348e+06
2.83527e+06
2.81692e+06
2.79842e+06
2.77978e+06
2.76099e+06
2.74207e+06
2.72302e+06
2.70383e+06
2.68451e+06
2.66506e+06
2.64549e+06
2.6258e+06
2.60599e+06
2.58607e+06
2.56603e+06
2.54588e+06
2.52562e+06
2.50525e+06
2.48478e+06
2.4642e+06
2.44353e+06
2.42276e+06
2.40189e+06
2.38093e+06
2.35987e+06
2.33873e+06
2.3175e+06
2.29619e+06
2.27479e+06
2.25331e+06
2.23176e+06
2.21012e+06
2.18841e+06
2.16663e+06
2.14478e+06
2.12285e+06
2.10086e+06
2.07881e+06
2.05669e+06
2.03451e+06
2.01227e+06
1.98998e+06
1.96763e+06
1.94522e+06
1.92277e+06
1.90027e+06
1.87772e+06
1.85512e+06
1.83249e+06
1.80981e+06
1.7871e+06
1.76435e+06
1.74157e+06
1.71875e+06
1.69591e+06
1.67305e+06
1.65015e+06
1.62724e+06
1.60431e+06
1.58137e+06
1.55841e+06
1.53544e+06
1.51246e+06
1.48948e+06
1.46649e+06
1.44351e+06
1.42053e+06
1.39756e+06
1.37459e+06
1.35164e+06
1.32871e+06
1.3058e+06
1.2829e+06
1.26004e+06
1.2372e+06
1.2144e+06
1.19164e+06
1.16891e+06
1.14623e+06
1.1236e+06
1.10102e+06
1.07849e+06
1.05603e+06
1.03363e+06
1.0113e+06
989042
966862
944764
922753
900833
879010
857289
835674
814172
792788
771527
750396
729400
708547
687842
667295
646911
626700
606672
586837
567208
547800
528631
509729
491132
472905
455191
3.5357e+06
3.53541e+06
3.53484e+06
3.53397e+06
3.53281e+06
3.53134e+06
3.52956e+06
3.52746e+06
3.52505e+06
3.52231e+06
3.51925e+06
3.51586e+06
3.51213e+06
3.50808e+06
3.50369e+06
3.49896e+06
3.4939e+06
3.4885e+06
3.48276e+06
3.47669e+06
3.47028e+06
3.46354e+06
3.45646e+06
3.44906e+06
3.44132e+06
3.43326e+06
3.42488e+06
3.41618e+06
3.40715e+06
3.39782e+06
3.38818e+06
3.37823e+06
3.36798e+06
3.35743e+06
3.34659e+06
3.33546e+06
3.32405e+06
3.31236e+06
3.30039e+06
3.28815e+06
3.27564e+06
3.26287e+06
3.24985e+06
3.23657e+06
3.22305e+06
3.20928e+06
3.19528e+06
3.18104e+06
3.16657e+06
3.15187e+06
3.13696e+06
3.12182e+06
3.10648e+06
3.09093e+06
3.07517e+06
3.05922e+06
3.04307e+06
3.02672e+06
3.01019e+06
2.99348e+06
2.97658e+06
2.95951e+06
2.94227e+06
2.92486e+06
2.90728e+06
2.88954e+06
2.87164e+06
2.85358e+06
2.83537e+06
2.81701e+06
2.79851e+06
2.77986e+06
2.76107e+06
2.74214e+06
2.72308e+06
2.70389e+06
2.68457e+06
2.66512e+06
2.64555e+06
2.62585e+06
2.60604e+06
2.58611e+06
2.56607e+06
2.54591e+06
2.52565e+06
2.50528e+06
2.48481e+06
2.46423e+06
2.44355e+06
2.42278e+06
2.40191e+06
2.38095e+06
2.35989e+06
2.33875e+06
2.31752e+06
2.29621e+06
2.27481e+06
2.25333e+06
2.23177e+06
2.21013e+06
2.18842e+06
2.16664e+06
2.14479e+06
2.12286e+06
2.10087e+06
2.07882e+06
2.0567e+06
2.03452e+06
2.01228e+06
1.98998e+06
1.96763e+06
1.94523e+06
1.92277e+06
1.90027e+06
1.87772e+06
1.85513e+06
1.83249e+06
1.80981e+06
1.7871e+06
1.76435e+06
1.74157e+06
1.71875e+06
1.69591e+06
1.67305e+06
1.65016e+06
1.62724e+06
1.60431e+06
1.58137e+06
1.55841e+06
1.53544e+06
1.51246e+06
1.48948e+06
1.4665e+06
1.44351e+06
1.42053e+06
1.39756e+06
1.3746e+06
1.35164e+06
1.32871e+06
1.3058e+06
1.2829e+06
1.26004e+06
1.2372e+06
1.2144e+06
1.19164e+06
1.16891e+06
1.14623e+06
1.1236e+06
1.10102e+06
1.07849e+06
1.05603e+06
1.03363e+06
1.0113e+06
989042
966862
944764
922752
900833
879010
857288
835674
814172
792787
771526
750395
729399
708545
687841
667292
646908
626697
606668
586831
567200
547789
528616
509708
491098
472844
455047
3.53826e+06
3.53797e+06
3.53739e+06
3.53651e+06
3.53533e+06
3.53384e+06
3.53204e+06
3.52992e+06
3.52748e+06
3.52471e+06
3.52161e+06
3.51818e+06
3.51442e+06
3.51033e+06
3.50589e+06
3.50112e+06
3.49601e+06
3.49056e+06
3.48478e+06
3.47865e+06
3.47219e+06
3.46539e+06
3.45826e+06
3.4508e+06
3.44301e+06
3.4349e+06
3.42646e+06
3.4177e+06
3.40862e+06
3.39924e+06
3.38954e+06
3.37954e+06
3.36924e+06
3.35864e+06
3.34775e+06
3.33658e+06
3.32512e+06
3.31338e+06
3.30136e+06
3.28908e+06
3.27653e+06
3.26373e+06
3.25066e+06
3.23735e+06
3.22379e+06
3.20999e+06
3.19595e+06
3.18167e+06
3.16717e+06
3.15245e+06
3.1375e+06
3.12234e+06
3.10697e+06
3.0914e+06
3.07562e+06
3.05964e+06
3.04346e+06
3.0271e+06
3.01055e+06
2.99382e+06
2.9769e+06
2.95981e+06
2.94255e+06
2.92512e+06
2.90753e+06
2.88977e+06
2.87186e+06
2.85379e+06
2.83557e+06
2.8172e+06
2.79868e+06
2.78002e+06
2.76123e+06
2.74229e+06
2.72322e+06
2.70402e+06
2.68469e+06
2.66523e+06
2.64565e+06
2.62595e+06
2.60613e+06
2.5862e+06
2.56615e+06
2.54599e+06
2.52572e+06
2.50535e+06
2.48487e+06
2.46429e+06
2.44361e+06
2.42283e+06
2.40196e+06
2.38099e+06
2.35993e+06
2.33879e+06
2.31756e+06
2.29624e+06
2.27484e+06
2.25336e+06
2.23179e+06
2.21016e+06
2.18845e+06
2.16666e+06
2.1448e+06
2.12288e+06
2.10089e+06
2.07883e+06
2.05671e+06
2.03453e+06
2.01229e+06
1.98999e+06
1.96764e+06
1.94524e+06
1.92278e+06
1.90028e+06
1.87773e+06
1.85513e+06
1.83249e+06
1.80982e+06
1.7871e+06
1.76435e+06
1.74157e+06
1.71876e+06
1.69592e+06
1.67305e+06
1.65016e+06
1.62725e+06
1.60432e+06
1.58137e+06
1.55841e+06
1.53544e+06
1.51246e+06
1.48948e+06
1.4665e+06
1.44351e+06
1.42053e+06
1.39756e+06
1.3746e+06
1.35165e+06
1.32871e+06
1.3058e+06
1.28291e+06
1.26004e+06
1.2372e+06
1.2144e+06
1.19164e+06
1.16891e+06
1.14623e+06
1.1236e+06
1.10102e+06
1.07849e+06
1.05603e+06
1.03363e+06
1.0113e+06
989042
966862
944764
922752
900833
879009
857288
835673
814171
792786
771525
750393
729397
708543
687837
667288
646903
626690
606659
586819
567184
547768
528587
509665
491032
472732
454820
3.54212e+06
3.54183e+06
3.54123e+06
3.54034e+06
3.53913e+06
3.53762e+06
3.53578e+06
3.53362e+06
3.53114e+06
3.52832e+06
3.52517e+06
3.52169e+06
3.51787e+06
3.51371e+06
3.50921e+06
3.50437e+06
3.49918e+06
3.49366e+06
3.4878e+06
3.48159e+06
3.47505e+06
3.46817e+06
3.46096e+06
3.45342e+06
3.44554e+06
3.43734e+06
3.42882e+06
3.41998e+06
3.41083e+06
3.40136e+06
3.39158e+06
3.38151e+06
3.37113e+06
3.36045e+06
3.34949e+06
3.33824e+06
3.32671e+06
3.3149e+06
3.30282e+06
3.29048e+06
3.27787e+06
3.265e+06
3.25188e+06
3.23851e+06
3.22489e+06
3.21104e+06
3.19695e+06
3.18263e+06
3.16808e+06
3.15331e+06
3.13832e+06
3.12312e+06
3.10771e+06
3.09209e+06
3.07628e+06
3.06026e+06
3.04406e+06
3.02766e+06
3.01108e+06
2.99432e+06
2.97738e+06
2.96026e+06
2.94298e+06
2.92552e+06
2.90791e+06
2.89013e+06
2.87219e+06
2.85411e+06
2.83587e+06
2.81748e+06
2.79895e+06
2.78027e+06
2.76146e+06
2.74251e+06
2.72342e+06
2.70421e+06
2.68487e+06
2.6654e+06
2.64581e+06
2.6261e+06
2.60627e+06
2.58633e+06
2.56627e+06
2.5461e+06
2.52583e+06
2.50545e+06
2.48496e+06
2.46437e+06
2.44369e+06
2.4229e+06
2.40203e+06
2.38106e+06
2.35999e+06
2.33884e+06
2.31761e+06
2.29628e+06
2.27488e+06
2.2534e+06
2.23183e+06
2.21019e+06
2.18848e+06
2.16669e+06
2.14483e+06
2.1229e+06
2.10091e+06
2.07885e+06
2.05673e+06
2.03455e+06
2.01231e+06
1.99001e+06
1.96765e+06
1.94525e+06
1.92279e+06
1.90029e+06
1.87774e+06
1.85514e+06
1.8325e+06
1.80983e+06
1.78711e+06
1.76436e+06
1.74158e+06
1.71876e+06
1.69592e+06
1.67305e+06
1.65016e+06
1.62725e+06
1.60432e+06
1.58137e+06
1.55841e+06
1.53544e+06
1.51247e+06
1.48948e+06
1.4665e+06
1.44351e+06
1.42053e+06
1.39756e+06
1.3746e+06
1.35165e+06
1.32871e+06
1.3058e+06
1.28291e+06
1.26004e+06
1.23721e+06
1.2144e+06
1.19164e+06
1.16891e+06
1.14623e+06
1.1236e+06
1.10102e+06
1.07849e+06
1.05603e+06
1.03363e+06
1.0113e+06
989042
966862
944764
922752
900832
879009
857287
835672
814170
792785
771523
750391
729394
708539
687832
667282
646895
626680
606645
586802
567161
547737
528544
509604
490941
472584
454558
3.54731e+06
3.54701e+06
3.5464e+06
3.54547e+06
3.54424e+06
3.54268e+06
3.5408e+06
3.53859e+06
3.53605e+06
3.53317e+06
3.52995e+06
3.52639e+06
3.52248e+06
3.51824e+06
3.51365e+06
3.50871e+06
3.50343e+06
3.4978e+06
3.49183e+06
3.48552e+06
3.47887e+06
3.47188e+06
3.46456e+06
3.45691e+06
3.44892e+06
3.44061e+06
3.43198e+06
3.42302e+06
3.41376e+06
3.40418e+06
3.3943e+06
3.38412e+06
3.37364e+06
3.36286e+06
3.3518e+06
3.34046e+06
3.32883e+06
3.31693e+06
3.30477e+06
3.29233e+06
3.27964e+06
3.26669e+06
3.25349e+06
3.24005e+06
3.22636e+06
3.21243e+06
3.19828e+06
3.18389e+06
3.16928e+06
3.15445e+06
3.13941e+06
3.12415e+06
3.10869e+06
3.09302e+06
3.07716e+06
3.0611e+06
3.04484e+06
3.02841e+06
3.01178e+06
2.99498e+06
2.97801e+06
2.96086e+06
2.94354e+06
2.92605e+06
2.9084e+06
2.8906e+06
2.87264e+06
2.85452e+06
2.83626e+06
2.81785e+06
2.79929e+06
2.7806e+06
2.76176e+06
2.7428e+06
2.72369e+06
2.70446e+06
2.68511e+06
2.66562e+06
2.64602e+06
2.62629e+06
2.60645e+06
2.5865e+06
2.56643e+06
2.54625e+06
2.52597e+06
2.50558e+06
2.48508e+06
2.46449e+06
2.44379e+06
2.423e+06
2.40212e+06
2.38114e+06
2.36007e+06
2.33892e+06
2.31767e+06
2.29635e+06
2.27494e+06
2.25345e+06
2.23188e+06
2.21024e+06
2.18852e+06
2.16673e+06
2.14487e+06
2.12294e+06
2.10094e+06
2.07888e+06
2.05676e+06
2.03457e+06
2.01233e+06
1.99003e+06
1.96767e+06
1.94527e+06
1.92281e+06
1.9003e+06
1.87775e+06
1.85515e+06
1.83251e+06
1.80984e+06
1.78712e+06
1.76437e+06
1.74158e+06
1.71877e+06
1.69593e+06
1.67306e+06
1.65017e+06
1.62725e+06
1.60432e+06
1.58138e+06
1.55842e+06
1.53545e+06
1.51247e+06
1.48949e+06
1.4665e+06
1.44352e+06
1.42054e+06
1.39756e+06
1.3746e+06
1.35165e+06
1.32871e+06
1.3058e+06
1.28291e+06
1.26004e+06
1.23721e+06
1.2144e+06
1.19164e+06
1.16891e+06
1.14623e+06
1.1236e+06
1.10102e+06
1.0785e+06
1.05603e+06
1.03363e+06
1.0113e+06
989042
966862
944764
922752
900832
879008
857287
835671
814168
792783
771521
750388
729390
708534
687826
667274
646884
626666
606628
586779
567131
547696
528489
509527
490829
472412
454281
3.55386e+06
3.55354e+06
3.55291e+06
3.55195e+06
3.55067e+06
3.54907e+06
3.54713e+06
3.54485e+06
3.54223e+06
3.53926e+06
3.53595e+06
3.5323e+06
3.52829e+06
3.52393e+06
3.51922e+06
3.51416e+06
3.50876e+06
3.503e+06
3.4969e+06
3.49045e+06
3.48366e+06
3.47653e+06
3.46906e+06
3.46127e+06
3.45314e+06
3.44469e+06
3.43591e+06
3.42682e+06
3.41742e+06
3.40771e+06
3.39769e+06
3.38737e+06
3.37676e+06
3.36586e+06
3.35468e+06
3.34321e+06
3.33147e+06
3.31946e+06
3.30718e+06
3.29464e+06
3.28184e+06
3.26879e+06
3.2555e+06
3.24196e+06
3.22818e+06
3.21417e+06
3.19993e+06
3.18546e+06
3.17077e+06
3.15587e+06
3.14075e+06
3.12543e+06
3.1099e+06
3.09417e+06
3.07824e+06
3.06213e+06
3.04582e+06
3.02933e+06
3.01266e+06
2.99581e+06
2.97878e+06
2.96159e+06
2.94423e+06
2.92671e+06
2.90902e+06
2.89118e+06
2.87319e+06
2.85504e+06
2.83675e+06
2.81831e+06
2.79972e+06
2.781e+06
2.76214e+06
2.74315e+06
2.72403e+06
2.70478e+06
2.6854e+06
2.6659e+06
2.64628e+06
2.62654e+06
2.60668e+06
2.58671e+06
2.56663e+06
2.54644e+06
2.52614e+06
2.50574e+06
2.48523e+06
2.46463e+06
2.44392e+06
2.42313e+06
2.40223e+06
2.38125e+06
2.36017e+06
2.33901e+06
2.31776e+06
2.29643e+06
2.27501e+06
2.25352e+06
2.23195e+06
2.2103e+06
2.18857e+06
2.16678e+06
2.14491e+06
2.12298e+06
2.10098e+06
2.07892e+06
2.05679e+06
2.0346e+06
2.01236e+06
1.99005e+06
1.9677e+06
1.94529e+06
1.92283e+06
1.90032e+06
1.87776e+06
1.85517e+06
1.83253e+06
1.80985e+06
1.78713e+06
1.76438e+06
1.74159e+06
1.71878e+06
1.69594e+06
1.67307e+06
1.65017e+06
1.62726e+06
1.60433e+06
1.58138e+06
1.55842e+06
1.53545e+06
1.51247e+06
1.48949e+06
1.4665e+06
1.44352e+06
1.42054e+06
1.39756e+06
1.3746e+06
1.35165e+06
1.32872e+06
1.3058e+06
1.28291e+06
1.26004e+06
1.23721e+06
1.2144e+06
1.19164e+06
1.16891e+06
1.14623e+06
1.1236e+06
1.10102e+06
1.0785e+06
1.05603e+06
1.03363e+06
1.0113e+06
989043
966862
944763
922752
900831
879008
857286
835670
814167
792781
771518
750384
729385
708528
687818
667264
646872
626650
606607
586752
567095
547649
528425
509437
490701
472225
454003
3.56181e+06
3.56147e+06
3.56081e+06
3.55981e+06
3.55848e+06
3.55681e+06
3.5548e+06
3.55243e+06
3.54972e+06
3.54665e+06
3.54322e+06
3.53944e+06
3.5353e+06
3.53081e+06
3.52595e+06
3.52074e+06
3.51518e+06
3.50926e+06
3.50299e+06
3.49637e+06
3.48941e+06
3.48211e+06
3.47447e+06
3.4665e+06
3.4582e+06
3.44957e+06
3.44063e+06
3.43137e+06
3.4218e+06
3.41192e+06
3.40174e+06
3.39127e+06
3.3805e+06
3.36945e+06
3.35811e+06
3.3465e+06
3.33462e+06
3.32247e+06
3.31006e+06
3.29739e+06
3.28447e+06
3.2713e+06
3.25789e+06
3.24424e+06
3.23035e+06
3.21623e+06
3.20189e+06
3.18733e+06
3.17255e+06
3.15756e+06
3.14236e+06
3.12695e+06
3.11134e+06
3.09554e+06
3.07954e+06
3.06335e+06
3.04698e+06
3.03043e+06
3.0137e+06
2.99679e+06
2.97971e+06
2.96247e+06
2.94506e+06
2.92749e+06
2.90976e+06
2.89188e+06
2.87384e+06
2.85566e+06
2.83732e+06
2.81885e+06
2.80024e+06
2.78148e+06
2.7626e+06
2.74358e+06
2.72443e+06
2.70515e+06
2.68575e+06
2.66623e+06
2.64659e+06
2.62683e+06
2.60695e+06
2.58696e+06
2.56686e+06
2.54666e+06
2.52635e+06
2.50593e+06
2.48541e+06
2.4648e+06
2.44408e+06
2.42327e+06
2.40237e+06
2.38137e+06
2.36029e+06
2.33912e+06
2.31786e+06
2.29652e+06
2.2751e+06
2.2536e+06
2.23202e+06
2.21037e+06
2.18864e+06
2.16684e+06
2.14497e+06
2.12303e+06
2.10103e+06
2.07896e+06
2.05683e+06
2.03464e+06
2.01239e+06
1.99008e+06
1.96772e+06
1.94531e+06
1.92285e+06
1.90034e+06
1.87778e+06
1.85518e+06
1.83254e+06
1.80986e+06
1.78714e+06
1.76439e+06
1.74161e+06
1.71879e+06
1.69594e+06
1.67307e+06
1.65018e+06
1.62727e+06
1.60433e+06
1.58139e+06
1.55843e+06
1.53545e+06
1.51248e+06
1.48949e+06
1.46651e+06
1.44352e+06
1.42054e+06
1.39757e+06
1.3746e+06
1.35165e+06
1.32872e+06
1.3058e+06
1.28291e+06
1.26004e+06
1.23721e+06
1.21441e+06
1.19164e+06
1.16891e+06
1.14623e+06
1.1236e+06
1.10102e+06
1.0785e+06
1.05603e+06
1.03363e+06
1.0113e+06
989043
966862
944763
922751
900831
879007
857284
835669
814165
792778
771514
750380
729379
708521
687809
667252
646857
626631
606582
586720
567054
547594
528351
509338
490563
472030
453729
3.57122e+06
3.57085e+06
3.57015e+06
3.56911e+06
3.56771e+06
3.56596e+06
3.56386e+06
3.56139e+06
3.55855e+06
3.55536e+06
3.55179e+06
3.54786e+06
3.54356e+06
3.53889e+06
3.53386e+06
3.52846e+06
3.52271e+06
3.51659e+06
3.51013e+06
3.50331e+06
3.49614e+06
3.48863e+06
3.48079e+06
3.47261e+06
3.4641e+06
3.45527e+06
3.44612e+06
3.43666e+06
3.42689e+06
3.41681e+06
3.40644e+06
3.39578e+06
3.38483e+06
3.3736e+06
3.36209e+06
3.35031e+06
3.33827e+06
3.32596e+06
3.31339e+06
3.30057e+06
3.28751e+06
3.2742e+06
3.26065e+06
3.24687e+06
3.23286e+06
3.21862e+06
3.20416e+06
3.18949e+06
3.1746e+06
3.15951e+06
3.14421e+06
3.12871e+06
3.11301e+06
3.09712e+06
3.08104e+06
3.06477e+06
3.04832e+06
3.0317e+06
3.0149e+06
2.99792e+06
2.98078e+06
2.96348e+06
2.94601e+06
2.92839e+06
2.91061e+06
2.89268e+06
2.87459e+06
2.85637e+06
2.83799e+06
2.81948e+06
2.80083e+06
2.78204e+06
2.76312e+06
2.74407e+06
2.72489e+06
2.70558e+06
2.68616e+06
2.66661e+06
2.64694e+06
2.62716e+06
2.60726e+06
2.58725e+06
2.56714e+06
2.54691e+06
2.52658e+06
2.50615e+06
2.48562e+06
2.46499e+06
2.44426e+06
2.42344e+06
2.40252e+06
2.38152e+06
2.36042e+06
2.33924e+06
2.31798e+06
2.29663e+06
2.2752e+06
2.25369e+06
2.23211e+06
2.21044e+06
2.18871e+06
2.16691e+06
2.14503e+06
2.12309e+06
2.10108e+06
2.07901e+06
2.05687e+06
2.03468e+06
2.01243e+06
1.99012e+06
1.96776e+06
1.94534e+06
1.92288e+06
1.90036e+06
1.87781e+06
1.85521e+06
1.83256e+06
1.80988e+06
1.78716e+06
1.76441e+06
1.74162e+06
1.7188e+06
1.69596e+06
1.67308e+06
1.65019e+06
1.62728e+06
1.60434e+06
1.58139e+06
1.55843e+06
1.53546e+06
1.51248e+06
1.4895e+06
1.46651e+06
1.44352e+06
1.42054e+06
1.39757e+06
1.3746e+06
1.35165e+06
1.32872e+06
1.3058e+06
1.28291e+06
1.26005e+06
1.23721e+06
1.21441e+06
1.19164e+06
1.16892e+06
1.14624e+06
1.1236e+06
1.10102e+06
1.0785e+06
1.05603e+06
1.03363e+06
1.0113e+06
989043
966862
944763
922751
900830
879006
857283
835667
814162
792775
771511
750375
729373
708512
687799
667239
646840
626609
606555
586685
567008
547534
528272
509231
490418
471833
453462
3.58214e+06
3.58175e+06
3.58101e+06
3.5799e+06
3.57843e+06
3.57658e+06
3.57436e+06
3.57176e+06
3.56879e+06
3.56543e+06
3.56169e+06
3.55758e+06
3.55308e+06
3.54821e+06
3.54296e+06
3.53735e+06
3.53136e+06
3.52502e+06
3.51831e+06
3.51125e+06
3.50385e+06
3.49609e+06
3.488e+06
3.47958e+06
3.47083e+06
3.46176e+06
3.45238e+06
3.44268e+06
3.43268e+06
3.42238e+06
3.41179e+06
3.40091e+06
3.38975e+06
3.37832e+06
3.36661e+06
3.35464e+06
3.3424e+06
3.32991e+06
3.31716e+06
3.30418e+06
3.29094e+06
3.27748e+06
3.26378e+06
3.24985e+06
3.2357e+06
3.22132e+06
3.20674e+06
3.19194e+06
3.17693e+06
3.16172e+06
3.14631e+06
3.1307e+06
3.1149e+06
3.09891e+06
3.08273e+06
3.06637e+06
3.04984e+06
3.03313e+06
3.01625e+06
2.99921e+06
2.98199e+06
2.96462e+06
2.94709e+06
2.92941e+06
2.91157e+06
2.89358e+06
2.87545e+06
2.85717e+06
2.83875e+06
2.82019e+06
2.8015e+06
2.78267e+06
2.76371e+06
2.74462e+06
2.72541e+06
2.70607e+06
2.68661e+06
2.66704e+06
2.64734e+06
2.62753e+06
2.60761e+06
2.58758e+06
2.56745e+06
2.5472e+06
2.52685e+06
2.5064e+06
2.48585e+06
2.46521e+06
2.44446e+06
2.42363e+06
2.4027e+06
2.38168e+06
2.36058e+06
2.33938e+06
2.31811e+06
2.29675e+06
2.27531e+06
2.2538e+06
2.2322e+06
2.21053e+06
2.18879e+06
2.16698e+06
2.1451e+06
2.12315e+06
2.10114e+06
2.07906e+06
2.05692e+06
2.03473e+06
2.01247e+06
1.99016e+06
1.96779e+06
1.94537e+06
1.92291e+06
1.90039e+06
1.87783e+06
1.85523e+06
1.83258e+06
1.8099e+06
1.78718e+06
1.76442e+06
1.74163e+06
1.71881e+06
1.69597e+06
1.6731e+06
1.6502e+06
1.62728e+06
1.60435e+06
1.5814e+06
1.55844e+06
1.53547e+06
1.51249e+06
1.4895e+06
1.46651e+06
1.44353e+06
1.42055e+06
1.39757e+06
1.37461e+06
1.35166e+06
1.32872e+06
1.30581e+06
1.28291e+06
1.26005e+06
1.23721e+06
1.21441e+06
1.19164e+06
1.16892e+06
1.14624e+06
1.1236e+06
1.10102e+06
1.0785e+06
1.05603e+06
1.03363e+06
1.0113e+06
989043
966862
944763
922751
900830
879005
857282
835665
814160
792772
771506
750369
729366
708504
687788
667225
646822
626586
606525
586646
566958
547469
528187
509119
490270
471636
453205
3.59467e+06
3.59425e+06
3.59345e+06
3.59227e+06
3.5907e+06
3.58874e+06
3.58638e+06
3.58362e+06
3.58047e+06
3.57693e+06
3.57298e+06
3.56864e+06
3.56391e+06
3.5588e+06
3.5533e+06
3.54742e+06
3.54117e+06
3.53455e+06
3.52756e+06
3.52022e+06
3.51253e+06
3.5045e+06
3.49612e+06
3.48742e+06
3.47839e+06
3.46905e+06
3.45939e+06
3.44943e+06
3.43917e+06
3.42861e+06
3.41777e+06
3.40665e+06
3.39525e+06
3.38358e+06
3.37165e+06
3.35945e+06
3.347e+06
3.33431e+06
3.32137e+06
3.30819e+06
3.29477e+06
3.28113e+06
3.26725e+06
3.25316e+06
3.23885e+06
3.22433e+06
3.20959e+06
3.19465e+06
3.17951e+06
3.16417e+06
3.14864e+06
3.13291e+06
3.11699e+06
3.10089e+06
3.08461e+06
3.06815e+06
3.05152e+06
3.03472e+06
3.01776e+06
3.00063e+06
2.98334e+06
2.96589e+06
2.94829e+06
2.93054e+06
2.91263e+06
2.89459e+06
2.87639e+06
2.85806e+06
2.83959e+06
2.82098e+06
2.80224e+06
2.78337e+06
2.76436e+06
2.74524e+06
2.72599e+06
2.70661e+06
2.68712e+06
2.66751e+06
2.64779e+06
2.62795e+06
2.608e+06
2.58795e+06
2.56779e+06
2.54752e+06
2.52715e+06
2.50668e+06
2.48611e+06
2.46545e+06
2.44469e+06
2.42384e+06
2.4029e+06
2.38186e+06
2.36075e+06
2.33954e+06
2.31825e+06
2.29689e+06
2.27544e+06
2.25391e+06
2.23231e+06
2.21063e+06
2.18889e+06
2.16707e+06
2.14518e+06
2.12323e+06
2.10121e+06
2.07912e+06
2.05698e+06
2.03478e+06
2.01252e+06
1.9902e+06
1.96783e+06
1.94541e+06
1.92294e+06
1.90042e+06
1.87786e+06
1.85525e+06
1.83261e+06
1.80992e+06
1.7872e+06
1.76444e+06
1.74165e+06
1.71883e+06
1.69598e+06
1.67311e+06
1.65021e+06
1.62729e+06
1.60436e+06
1.58141e+06
1.55845e+06
1.53547e+06
1.51249e+06
1.48951e+06
1.46652e+06
1.44353e+06
1.42055e+06
1.39758e+06
1.37461e+06
1.35166e+06
1.32872e+06
1.30581e+06
1.28292e+06
1.26005e+06
1.23721e+06
1.21441e+06
1.19164e+06
1.16892e+06
1.14624e+06
1.1236e+06
1.10102e+06
1.0785e+06
1.05603e+06
1.03363e+06
1.0113e+06
989044
966862
944763
922750
900829
879004
857280
835663
814157
792768
771502
750363
729359
708494
687776
667209
646802
626561
606493
586606
566906
547402
528099
509005
490121
471443
452959
3.60891e+06
3.60845e+06
3.60758e+06
3.60631e+06
3.60462e+06
3.60251e+06
3.59999e+06
3.59705e+06
3.59368e+06
3.58991e+06
3.58571e+06
3.58111e+06
3.5761e+06
3.57069e+06
3.56489e+06
3.5587e+06
3.55213e+06
3.54519e+06
3.53788e+06
3.53021e+06
3.5222e+06
3.51384e+06
3.50514e+06
3.49611e+06
3.48677e+06
3.47711e+06
3.46715e+06
3.45688e+06
3.44633e+06
3.43548e+06
3.42436e+06
3.41296e+06
3.4013e+06
3.38937e+06
3.37718e+06
3.36475e+06
3.35206e+06
3.33914e+06
3.32598e+06
3.31259e+06
3.29897e+06
3.28513e+06
3.27107e+06
3.2568e+06
3.24231e+06
3.22762e+06
3.21273e+06
3.19763e+06
3.18234e+06
3.16686e+06
3.15119e+06
3.13533e+06
3.11929e+06
3.10307e+06
3.08667e+06
3.0701e+06
3.05337e+06
3.03647e+06
3.01941e+06
3.00219e+06
2.98481e+06
2.96728e+06
2.9496e+06
2.93177e+06
2.9138e+06
2.89569e+06
2.87743e+06
2.85904e+06
2.84051e+06
2.82184e+06
2.80305e+06
2.78413e+06
2.76508e+06
2.74591e+06
2.72662e+06
2.70721e+06
2.68768e+06
2.66803e+06
2.64828e+06
2.62841e+06
2.60843e+06
2.58835e+06
2.56816e+06
2.54787e+06
2.52748e+06
2.50699e+06
2.4864e+06
2.46571e+06
2.44494e+06
2.42407e+06
2.40311e+06
2.38206e+06
2.36093e+06
2.33971e+06
2.31841e+06
2.29703e+06
2.27557e+06
2.25404e+06
2.23243e+06
2.21074e+06
2.18899e+06
2.16716e+06
2.14527e+06
2.1233e+06
2.10128e+06
2.07919e+06
2.05704e+06
2.03483e+06
2.01257e+06
1.99025e+06
1.96788e+06
1.94545e+06
1.92298e+06
1.90046e+06
1.87789e+06
1.85528e+06
1.83263e+06
1.80994e+06
1.78722e+06
1.76446e+06
1.74167e+06
1.71884e+06
1.696e+06
1.67312e+06
1.65022e+06
1.6273e+06
1.60437e+06
1.58142e+06
1.55845e+06
1.53548e+06
1.5125e+06
1.48951e+06
1.46652e+06
1.44354e+06
1.42055e+06
1.39758e+06
1.37461e+06
1.35166e+06
1.32873e+06
1.30581e+06
1.28292e+06
1.26005e+06
1.23722e+06
1.21441e+06
1.19165e+06
1.16892e+06
1.14624e+06
1.12361e+06
1.10102e+06
1.0785e+06
1.05603e+06
1.03363e+06
1.0113e+06
989044
966862
944763
922750
900829
879003
857279
835661
814155
792765
771497
750357
729351
708484
687763
667193
646782
626535
606460
586563
566852
547332
528010
508890
489973
471255
452725
3.62498e+06
3.62447e+06
3.62353e+06
3.62214e+06
3.6203e+06
3.61802e+06
3.6153e+06
3.61212e+06
3.6085e+06
3.60444e+06
3.59995e+06
3.59503e+06
3.58969e+06
3.58393e+06
3.57778e+06
3.57122e+06
3.56428e+06
3.55696e+06
3.54928e+06
3.54124e+06
3.53284e+06
3.52411e+06
3.51504e+06
3.50565e+06
3.49595e+06
3.48594e+06
3.47563e+06
3.46503e+06
3.45414e+06
3.44298e+06
3.43154e+06
3.41984e+06
3.40788e+06
3.39567e+06
3.38321e+06
3.3705e+06
3.35756e+06
3.34439e+06
3.33099e+06
3.31737e+06
3.30353e+06
3.28947e+06
3.27521e+06
3.26074e+06
3.24606e+06
3.23119e+06
3.21612e+06
3.20086e+06
3.18541e+06
3.16977e+06
3.15395e+06
3.13795e+06
3.12177e+06
3.10542e+06
3.0889e+06
3.07221e+06
3.05537e+06
3.03836e+06
3.02119e+06
3.00387e+06
2.9864e+06
2.96878e+06
2.95102e+06
2.93311e+06
2.91506e+06
2.89688e+06