/*--------------------------------*- C++ -*----------------------------------*\
  =========                 |
  \\      /  F ield         | OpenFOAM: The Open Source CFD Toolbox
   \\    /   O peration     | Website:  https://openfoam.org
    \\  /    A nd           | Version:  7
     \\/     M anipulation  |
\*---------------------------------------------------------------------------*/
FoamFile
{
    version     2.0;
    format      ascii;
    class       volVectorField;
    location    "0.066";
    object      U_0;
}
// * * * * * * * * * * * * * * * * * * * * * * * * * * * * * * * * * * * * * //

dimensions      [0 1 -1 0 0 0 0];

internalField   nonuniform List<vector> 
12225
(
(4.74017 0.168547 0)
(4.15357 0.116261 0)
(3.70582 0.109191 0)
(3.34419 0.0909507 0)
(3.01112 0.0738093 0)
(2.68943 0.0649647 0)
(2.37321 0.0598468 0)
(2.07134 0.0518767 0)
(1.8003 0.0403318 0)
(1.5719 0.0288724 0)
(1.38562 0.0198358 0)
(1.23707 0.0133725 0)
(1.11505 0.00905189 0)
(1.01628 0.00595514 0)
(0.921832 0.00513457 0)
(0.842373 0.00515021 0)
(0.748425 0.0109486 0)
(0.66748 0.00978599 0)
(5.09597 0.0999463 0)
(4.86538 0.0653387 0)
(4.73797 0.0744922 0)
(4.64562 0.0770971 0)
(4.55622 0.0845225 0)
(4.46346 0.0924084 0)
(4.3562 0.0977687 0)
(4.22399 0.100322 0)
(4.07097 0.0986127 0)
(3.91845 0.0912524 0)
(3.78423 0.0804573 0)
(3.67637 0.0705009 0)
(3.5792 0.0645275 0)
(3.48677 0.0623487 0)
(3.37565 0.062689 0)
(3.26303 0.0630704 0)
(3.13152 0.0678887 0)
(3.00455 0.0684615 0)
(5.06702 0.205036 0)
(4.95334 0.143168 0)
(4.86409 0.144404 0)
(4.79156 0.137399 0)
(4.73973 0.121902 0)
(4.71836 0.114526 0)
(4.71183 0.120689 0)
(4.69742 0.132175 0)
(4.66564 0.136484 0)
(4.62306 0.126551 0)
(4.58124 0.106446 0)
(4.54584 0.0871936 0)
(4.51657 0.0766562 0)
(4.48858 0.0769177 0)
(4.45848 0.0856344 0)
(4.41871 0.0968817 0)
(4.37619 0.110274 0)
(4.31615 0.122696 0)
(4.90977 0.153735 0)
(4.87399 0.122711 0)
(4.83823 0.118789 0)
(4.7919 0.123171 0)
(4.75972 0.115786 0)
(4.7489 0.107858 0)
(4.75158 0.109871 0)
(4.75885 0.118154 0)
(4.76585 0.122086 0)
(4.76976 0.115809 0)
(4.76937 0.101806 0)
(4.76354 0.0881307 0)
(4.75557 0.0815384 0)
(4.74693 0.0835547 0)
(4.74126 0.0922538 0)
(4.73413 0.102923 0)
(4.72891 0.1156 0)
(4.71735 0.129503 0)
(5.0476 0.228721 0)
(4.92478 0.132309 0)
(4.83225 0.137959 0)
(4.79531 0.15021 0)
(4.78536 0.131964 0)
(4.78398 0.111763 0)
(4.78369 0.109533 0)
(4.78258 0.120033 0)
(4.78126 0.127877 0)
(4.78041 0.123687 0)
(4.78047 0.109097 0)
(4.78054 0.0928669 0)
(4.78124 0.083135 0)
(4.78227 0.0828206 0)
(4.78441 0.0905406 0)
(4.78607 0.102791 0)
(4.78779 0.117777 0)
(4.78889 0.134733 0)
(4.92777 0.215539 0)
(4.9068 0.178028 0)
(4.83292 0.152889 0)
(4.82706 0.144122 0)
(4.83685 0.129068 0)
(4.81497 0.116252 0)
(4.77317 0.115439 0)
(4.74313 0.122649 0)
(4.73944 0.126211 0)
(4.75697 0.119114 0)
(4.78262 0.103987 0)
(4.80411 0.0892445 0)
(4.81623 0.0818863 0)
(4.81893 0.083863 0)
(4.81742 0.0926619 0)
(4.81513 0.105077 0)
(4.81721 0.11798 0)
(4.82428 0.131639 0)
(4.94422 0.25502 0)
(4.92326 0.165148 0)
(4.90932 0.145774 0)
(4.89129 0.141399 0)
(4.87662 0.137894 0)
(4.8588 0.136168 0)
(4.8391 0.134533 0)
(4.8286 0.130312 0)
(4.83294 0.120445 0)
(4.8474 0.104696 0)
(4.863 0.0877175 0)
(4.87373 0.0761929 0)
(4.87916 0.0740586 0)
(4.88163 0.0804519 0)
(4.88415 0.0912024 0)
(4.88818 0.102656 0)
(4.89592 0.111978 0)
(4.90714 0.120123 0)
(5.08922 0.2428 0)
(5.01445 0.18049 0)
(4.94049 0.161459 0)
(4.88114 0.151012 0)
(4.85814 0.138538 0)
(4.86608 0.128982 0)
(4.88602 0.124541 0)
(4.90348 0.122702 0)
(4.91028 0.118099 0)
(4.90418 0.107977 0)
(4.88833 0.0947508 0)
(4.86901 0.0839127 0)
(4.8532 0.0796356 0)
(4.84566 0.0827742 0)
(4.8477 0.090546 0)
(4.85828 0.100145 0)
(4.87501 0.108243 0)
(4.89719 0.115102 0)
(5.03849 0.264575 0)
(5.05111 0.212823 0)
(5.03242 0.187133 0)
(4.97996 0.166103 0)
(4.92246 0.148746 0)
(4.88621 0.134087 0)
(4.87473 0.125001 0)
(4.87884 0.122103 0)
(4.88726 0.120177 0)
(4.89192 0.114226 0)
(4.88891 0.104094 0)
(4.87821 0.0935208 0)
(4.86414 0.0861944 0)
(4.85285 0.0836874 0)
(4.84987 0.084349 0)
(4.85652 0.086663 0)
(4.87323 0.087801 0)
(4.896 0.0887065 0)
(5.01408 0.220979 0)
(5.02167 0.184501 0)
(5.00219 0.19172 0)
(4.94808 0.186351 0)
(4.9026 0.169901 0)
(4.88588 0.144228 0)
(4.88894 0.123189 0)
(4.89597 0.113836 0)
(4.89887 0.111207 0)
(4.8982 0.10858 0)
(4.89704 0.103828 0)
(4.8975 0.0984664 0)
(4.90136 0.0938885 0)
(4.91001 0.0904132 0)
(4.92409 0.0871837 0)
(4.94205 0.0839517 0)
(4.96298 0.0802192 0)
(4.98282 0.0770469 0)
(5.00735 0.209524 0)
(5.01824 0.218222 0)
(4.99515 0.218756 0)
(4.99532 0.204721 0)
(5.01148 0.179239 0)
(5.00556 0.148189 0)
(4.96837 0.127421 0)
(4.91931 0.120527 0)
(4.88185 0.118555 0)
(4.86785 0.113158 0)
(4.87639 0.10264 0)
(4.8994 0.089985 0)
(4.92831 0.0784261 0)
(4.9561 0.070035 0)
(4.97866 0.0647428 0)
(4.99369 0.0622786 0)
(5.00265 0.0611833 0)
(5.00682 0.0606149 0)
(5.01382 0.219827 0)
(5.01551 0.211496 0)
(5.01412 0.199192 0)
(5.01258 0.17752 0)
(5.01824 0.162206 0)
(5.01647 0.159612 0)
(5.00065 0.162075 0)
(4.97486 0.157192 0)
(4.94785 0.139647 0)
(4.92734 0.113736 0)
(4.91706 0.087732 0)
(4.91769 0.0683458 0)
(4.92832 0.0581126 0)
(4.94637 0.0562038 0)
(4.96894 0.059297 0)
(4.99106 0.0637378 0)
(5.01272 0.0663944 0)
(5.02959 0.0649634 0)
(4.96421 0.298378 0)
(4.95386 0.228995 0)
(4.93484 0.202668 0)
(4.93216 0.195241 0)
(4.93688 0.175698 0)
(4.9453 0.156445 0)
(4.95599 0.148806 0)
(4.96472 0.147275 0)
(4.96975 0.141964 0)
(4.97294 0.128155 0)
(4.97601 0.106821 0)
(4.97996 0.0824062 0)
(4.98606 0.060193 0)
(4.99563 0.0439772 0)
(5.00975 0.035533 0)
(5.02688 0.0333821 0)
(5.04627 0.0351986 0)
(5.06414 0.0377386 0)
(5.04448 0.309689 0)
(5.00314 0.260015 0)
(4.95613 0.211945 0)
(4.96073 0.181903 0)
(4.97495 0.158379 0)
(4.97798 0.15225 0)
(4.97976 0.157049 0)
(4.98709 0.154622 0)
(4.99665 0.136877 0)
(5.00313 0.109244 0)
(5.00441 0.081399 0)
(5.00224 0.05986 0)
(5.00067 0.0461668 0)
(5.00291 0.038738 0)
(5.00996 0.0355097 0)
(5.02086 0.0343075 0)
(5.03369 0.0337023 0)
(5.04716 0.0325361 0)
(4.96924 0.307632 0)
(4.90926 0.295679 0)
(4.91158 0.210579 0)
(4.93382 0.170132 0)
(4.92788 0.15446 0)
(4.91387 0.14294 0)
(4.91937 0.133141 0)
(4.9431 0.127884 0)
(4.96813 0.126491 0)
(4.98204 0.123134 0)
(4.9842 0.111141 0)
(4.98104 0.0890828 0)
(4.98041 0.0616553 0)
(4.98546 0.0361064 0)
(4.99647 0.0182657 0)
(5.00981 0.00962245 0)
(5.02389 0.00873706 0)
(5.03499 0.0118432 0)
(4.99868 0.385314 0)
(5.05763 0.2735 0)
(5.05822 0.194949 0)
(5.04654 0.186199 0)
(5.0308 0.188653 0)
(5.01958 0.173236 0)
(5.01065 0.145305 0)
(5.00318 0.119506 0)
(5.00124 0.102565 0)
(5.0062 0.0906157 0)
(5.01506 0.0767246 0)
(5.02346 0.0580446 0)
(5.02978 0.0370619 0)
(5.03385 0.0185252 0)
(5.03773 0.00604488 0)
(5.04227 0.000627012 0)
(5.04925 0.000518362 0)
(5.0583 0.00355811 0)
(4.95322 0.235991 0)
(4.94624 0.249487 0)
(4.92772 0.223359 0)
(4.91714 0.186904 0)
(4.92412 0.158914 0)
(4.94385 0.145416 0)
(4.96057 0.139714 0)
(4.96841 0.134168 0)
(4.97221 0.125883 0)
(4.97739 0.114122 0)
(4.98479 0.0980054 0)
(4.99276 0.077263 0)
(5.00006 0.0532989 0)
(5.00676 0.0293102 0)
(5.01312 0.00869518 0)
(5.01999 -0.00643505 0)
(5.02783 -0.0161449 0)
(5.03662 -0.0214577 0)
(5.01955 0.31877 0)
(5.02983 0.272119 0)
(5.02518 0.231983 0)
(5.00938 0.197559 0)
(4.98004 0.173428 0)
(4.96347 0.150863 0)
(4.96288 0.127082 0)
(4.96965 0.104218 0)
(4.97944 0.083528 0)
(4.99099 0.0642409 0)
(5.00281 0.0450098 0)
(5.01351 0.0257303 0)
(5.02297 0.00742827 0)
(5.03135 -0.00844482 0)
(5.03914 -0.0203311 0)
(5.04517 -0.027776 0)
(5.05037 -0.030917 0)
(5.05295 -0.0313218 0)
(4.93952 0.243798 0)
(4.98444 0.226961 0)
(5.00792 0.243118 0)
(5.01966 0.231701 0)
(5.03035 0.198923 0)
(5.0491 0.158888 0)
(5.06845 0.125414 0)
(5.08209 0.104374 0)
(5.09106 0.0922612 0)
(5.09771 0.0817235 0)
(5.10309 0.0670528 0)
(5.10706 0.0467207 0)
(5.1097 0.0231402 0)
(5.1108 0.000241596 0)
(5.11183 -0.0178649 0)
(5.11361 -0.0292965 0)
(5.11718 -0.0338625 0)
(5.12182 -0.0326991 0)
(4.99147 0.202444 0)
(5.01372 0.197045 0)
(5.01861 0.212922 0)
(5.02061 0.18736 0)
(5.0327 0.14559 0)
(5.05211 0.108712 0)
(5.07439 0.0847645 0)
(5.09708 0.0706574 0)
(5.11914 0.0590093 0)
(5.13871 0.0457699 0)
(5.15404 0.0312089 0)
(5.1645 0.0167109 0)
(5.17025 0.00260603 0)
(5.17098 -0.0113499 0)
(5.16622 -0.0253007 0)
(5.15703 -0.0382391 0)
(5.14563 -0.0494508 0)
(5.13479 -0.0569361 0)
(4.9075 0.253946 0)
(4.95526 0.207103 0)
(5.00709 0.200689 0)
(5.05725 0.180201 0)
(5.08416 0.137974 0)
(5.09593 0.0886389 0)
(5.108 0.0496443 0)
(5.12369 0.0293985 0)
(5.14071 0.0230738 0)
(5.15648 0.0205656 0)
(5.16911 0.0160444 0)
(5.17795 0.00992187 0)
(5.18382 0.00505788 0)
(5.18766 0.00328682 0)
(5.18964 0.00372831 0)
(5.18858 0.00424236 0)
(5.18521 0.00259966 0)
(5.17918 -0.00355559 0)
(5.06875 0.280549 0)
(5.06956 0.14014 0)
(5.09463 0.113211 0)
(5.14793 0.126719 0)
(5.19842 0.120742 0)
(5.22454 0.0926944 0)
(5.22756 0.0580658 0)
(5.21951 0.0321228 0)
(5.21074 0.0190294 0)
(5.20604 0.0130013 0)
(5.20572 0.00728464 0)
(5.20838 -0.000211946 0)
(5.21269 -0.00873885 0)
(5.21753 -0.0161086 0)
(5.22297 -0.0211979 0)
(5.22842 -0.0241567 0)
(5.23387 -0.0256355 0)
(5.23807 -0.0268648 0)
(5.10567 0.290545 0)
(5.10224 0.1764 0)
(5.09448 0.118486 0)
(5.10955 0.085594 0)
(5.14697 0.0669292 0)
(5.18897 0.0551674 0)
(5.22257 0.0458209 0)
(5.2445 0.0370821 0)
(5.25599 0.0285865 0)
(5.26021 0.019142 0)
(5.26087 0.008557 0)
(5.25975 -0.00188962 0)
(5.25842 -0.0102046 0)
(5.25811 -0.0148513 0)
(5.25891 -0.0162815 0)
(5.2599 -0.016398 0)
(5.2612 -0.0171641 0)
(5.26188 -0.0209896 0)
(5.08009 0.236649 0)
(5.07458 0.158501 0)
(5.10211 0.116552 0)
(5.1076 0.0930003 0)
(5.10608 0.0678028 0)
(5.11277 0.0399831 0)
(5.13052 0.0195249 0)
(5.15535 0.0118649 0)
(5.18234 0.013092 0)
(5.20919 0.0153255 0)
(5.23561 0.0127101 0)
(5.26087 0.00473239 0)
(5.28402 -0.00528036 0)
(5.30363 -0.0140643 0)
(5.31994 -0.0198936 0)
(5.33308 -0.0229821 0)
(5.34456 -0.0244662 0)
(5.35376 -0.0262534 0)
(4.95954 0.231682 0)
(5.06807 0.141507 0)
(5.16368 0.0907504 0)
(5.22759 0.0741465 0)
(5.26386 0.052785 0)
(5.28016 0.0237625 0)
(5.28125 0.000384961 0)
(5.27324 -0.013087 0)
(5.26521 -0.0211214 0)
(5.26615 -0.0289866 0)
(5.28015 -0.0389226 0)
(5.30504 -0.048056 0)
(5.33522 -0.0532373 0)
(5.36496 -0.0534019 0)
(5.39067 -0.0500788 0)
(5.40986 -0.046098 0)
(5.42282 -0.0435949 0)
(5.42919 -0.0442479 0)
(5.00273 0.153442 0)
(5.10099 0.0569947 0)
(5.16332 0.0629398 0)
(5.21277 0.069023 0)
(5.2612 0.0541336 0)
(5.30321 0.0353 0)
(5.33599 0.025203 0)
(5.36301 0.0222873 0)
(5.38768 0.0168078 0)
(5.40834 0.00279653 0)
(5.42196 -0.018057 0)
(5.42744 -0.0394102 0)
(5.42668 -0.0547968 0)
(5.42333 -0.0611236 0)
(5.42196 -0.058964 0)
(5.42466 -0.0515596 0)
(5.43219 -0.0422229 0)
(5.44305 -0.0341253 0)
(5.08315 0.109566 0)
(5.10916 0.028905 0)
(5.18672 0.0292662 0)
(5.25118 0.0184755 0)
(5.29971 -0.00902025 0)
(5.33803 -0.0285026 0)
(5.37601 -0.0376528 0)
(5.41914 -0.0414929 0)
(5.46446 -0.045323 0)
(5.5051 -0.0502522 0)
(5.53482 -0.0541964 0)
(5.55064 -0.0560554 0)
(5.55369 -0.0562932 0)
(5.54778 -0.0561196 0)
(5.5382 -0.0567929 0)
(5.52937 -0.0587311 0)
(5.5242 -0.0619957 0)
(5.52375 -0.0659722 0)
(5.00917 0.173667 0)
(5.18983 0.055394 0)
(5.34239 0.0455138 0)
(5.43739 0.0321314 0)
(5.48822 0.00845996 0)
(5.51318 -0.00851646 0)
(5.53049 -0.0167462 0)
(5.55046 -0.0227641 0)
(5.56896 -0.0296539 0)
(5.57846 -0.0373729 0)
(5.57762 -0.0440113 0)
(5.57188 -0.0478577 0)
(5.56805 -0.0482815 0)
(5.57004 -0.0458706 0)
(5.57816 -0.0421764 0)
(5.59004 -0.0389913 0)
(5.60323 -0.037409 0)
(5.61485 -0.0382523 0)
(5.03941 -0.0105315 0)
(5.27584 -0.0668589 0)
(5.38612 -0.0390018 0)
(5.44811 -0.045122 0)
(5.498 -0.0514445 0)
(5.5304 -0.0544016 0)
(5.54377 -0.0576018 0)
(5.54283 -0.0605645 0)
(5.53188 -0.0601349 0)
(5.51524 -0.0567092 0)
(5.49736 -0.0537453 0)
(5.48175 -0.0543332 0)
(5.46904 -0.0587492 0)
(5.45862 -0.0651181 0)
(5.44847 -0.0711828 0)
(5.43767 -0.0756385 0)
(5.42418 -0.0781206 0)
(5.40851 -0.0789986 0)
(4.99979 0.0770651 0)
(5.12865 0.000535507 0)
(5.09539 0.000310844 0)
(4.9673 -0.0166026 0)
(4.82352 -0.0267125 0)
(4.69266 -0.0250203 0)
(4.57539 -0.0197055 0)
(4.46585 -0.0171639 0)
(4.35983 -0.0188575 0)
(4.25611 -0.0233986 0)
(4.15341 -0.028658 0)
(4.04942 -0.0327449 0)
(3.94196 -0.0343265 0)
(3.83226 -0.0331005 0)
(3.72254 -0.0298487 0)
(3.61715 -0.0259833 0)
(3.5163 -0.0225615 0)
(3.42354 -0.0203661 0)
(-0.130659 0.322358 1.81429e-20)
(-0.419372 0.325258 -1.7986e-20)
(-0.663753 0.258444 0)
(-0.822036 0.155622 0)
(-0.863416 0.0284957 0)
(-0.783838 -0.103322 1.74276e-20)
(-0.602844 -0.212861 0)
(-0.338423 -0.288011 0)
(-0.0215534 -0.325391 0)
(0.316181 -0.338296 0)
(0.653417 -0.331335 -1.69196e-20)
(0.979554 -0.310914 0)
(1.28378 -0.282194 0)
(1.56046 -0.249401 0)
(1.80724 -0.215015 0)
(2.02256 -0.180152 -1.6046e-20)
(2.20581 -0.145278 0)
(2.35614 -0.110633 0)
(2.47362 -0.0763802 0)
(2.55744 -0.0426029 0)
(2.60727 -0.00929657 0)
(2.62363 0.0238279 0)
(2.60308 0.0572685 0)
(2.54688 0.0906035 -1.48183e-20)
(2.45754 0.122086 1.47043e-20)
(2.33566 0.152092 -1.45975e-20)
(2.18414 0.178649 -1.44963e-20)
(2.00457 0.20484 0)
(1.79957 0.226484 0)
(1.57314 0.250624 1.42067e-20)
(1.31919 0.270047 1.41079e-20)
(1.05492 0.286388 0)
(0.749542 0.323194 0)
(0.433524 0.226067 1.37752e-20)
(0.203117 0.0219066 0)
(0.0546579 -0.0851637 0)
(-0.041177 -0.0972332 -1.34119e-20)
(-0.0894867 -0.083013 0)
(-0.0916741 -0.0739089 -1.31748e-20)
(-0.0608063 -0.0802579 -2.61251e-20)
(-0.00524383 -0.100711 0)
(0.0891261 -0.121509 0)
(0.225841 -0.102742 0)
(0.359973 -0.0263936 0)
(0.416866 0.0470536 0)
(0.44666 0.0705794 -2.47637e-20)
(0.576342 0.0398996 -2.45117e-20)
(0.773716 -0.0691171 -2.42776e-20)
(0.93676 -0.327147 0)
(1.00234 -0.527136 2.38154e-20)
(0.974454 -0.400368 0)
(0.760702 -0.00823831 -2.33228e-20)
(0.266211 0.348084 -2.3147e-20)
(-0.327252 0.455987 0)
(-0.892759 0.443018 0)
(-1.41096 0.405892 0)
(-1.88002 0.364418 -2.18773e-20)
(-2.29962 0.323358 0)
(-2.67332 0.285054 0)
(-3.00537 0.250348 0)
(-3.30025 0.219606 0)
(-3.56228 0.192782 0)
(-3.79535 0.169493 0)
(-4.00281 0.149257 0)
(-4.1875 0.131624 0)
(-4.35179 0.116166 1.85683e-20)
(-4.49753 0.102413 0)
(-4.6261 0.0899082 0)
(-4.73843 0.0783261 -1.77061e-20)
(-4.83514 0.0674669 -1.74518e-20)
(-4.91668 0.0571528 0)
(-4.9833 0.0472381 1.69949e-20)
(-5.03518 0.0376791 -1.67925e-20)
(-5.07251 0.0284992 0)
(-5.0955 0.0198308 1.64388e-20)
(-5.10443 0.0118453 0)
(-5.10026 0.00436009 0)
(-5.08391 -0.00252671 -1.60248e-20)
(-5.05575 -0.00898777 0)
(-5.0162 -0.0151079 1.58143e-20)
(-4.96567 -0.020947 0)
(-4.90439 -0.0266083 -1.56447e-20)
(-4.83241 -0.0321915 -1.55725e-20)
(-4.74957 -0.0378176 -1.55074e-20)
(-4.65544 -0.0436061 -3.08975e-20)
(-4.5494 -0.0496537 3.07924e-20)
(-4.43065 -0.0560211 0)
(-4.2983 -0.0627095 0)
(-4.15158 -0.069651 0)
(-3.98987 -0.0767082 3.04773e-20)
(-3.81293 -0.0836785 3.04189e-20)
(-3.62098 -0.0903106 -3.03644e-20)
(-3.4148 -0.0963298 0)
(-3.19573 -0.10147 3.02541e-20)
(-2.96563 -0.105502 3.01906e-20)
(-2.72685 -0.108261 3.01162e-20)
(-2.48201 -0.109674 0)
(-2.23387 -0.109757 0)
(-1.98507 -0.108578 0)
(-1.73794 -0.106238 2.965e-20)
(-1.49461 -0.102877 0)
(-1.25709 -0.0986284 0)
(-1.02728 -0.0936292 -2.90872e-20)
(-0.806847 -0.0880254 0)
(-0.597208 -0.0819507 0)
(-0.399289 -0.075617 -2.83534e-20)
(-0.213487 -0.0690923 0)
(-0.0406959 -0.0627355 0)
(0.118824 -0.0569174 2.74856e-20)
(0.266467 -0.0512109 2.71702e-20)
(0.403195 -0.0459536 0)
(0.529776 -0.0411612 -2.65276e-20)
(0.647103 -0.0367684 0)
(0.755874 -0.0326402 2.58786e-20)
(0.856448 -0.0286129 0)
(0.948795 -0.0245503 2.52303e-20)
(1.03256 -0.0203684 2.49078e-20)
(1.1072 -0.0160672 0)
(1.17221 -0.0117419 0)
(1.22726 -0.00749566 0)
(1.27229 -0.00347937 0)
(1.30765 0.000143826 0)
(1.33393 0.00337509 0)
(1.35183 0.00610775 0)
(1.36259 0.00831578 2.24015e-20)
(1.36681 0.0103325 -2.20997e-20)
(1.36502 0.0121742 0)
(1.35833 0.013613 0)
(1.34752 0.0146195 0)
(1.33331 0.0152692 0)
(1.31642 0.015572 -4.1259e-20)
(1.29752 0.0155235 0)
(1.27721 0.0151497 4.01182e-20)
(1.25609 0.0145153 -3.9555e-20)
(1.23469 0.0136889 0)
(1.21342 0.0127422 0)
(1.19263 0.0117487 0)
(1.17256 0.0107665 3.73469e-20)
(1.15337 0.00982924 3.68056e-20)
(1.13517 0.00895046 0)
(1.11804 0.00813245 3.57353e-20)
(1.10204 0.00737377 3.5206e-20)
(1.08723 0.0066742 -3.46806e-20)
(1.07363 0.00603486 0)
(1.06126 0.00545611 0)
(1.0501 0.00493575 -3.31269e-20)
(1.04011 0.00446902 0)
(1.03123 0.00404966 0)
(1.02338 0.00367068 0)
(1.01647 0.00332471 0)
(1.01041 0.00300382 3.06093e-20)
(1.00512 0.00270834 3.01161e-20)
(1.00048 0.00243893 0)
(0.996415 0.00219685 2.91395e-20)
(0.992833 0.00198329 0)
(0.989651 0.00179912 0)
(0.986791 0.00164384 2.76984e-20)
(0.984195 0.00151374 0)
(0.981789 0.00140624 2.67529e-20)
(0.979544 0.00131216 0)
(0.977372 0.00122447 0)
(0.975263 0.0011453 2.53564e-20)
(0.973066 0.00109222 0)
(0.970821 0.0010728 2.44395e-20)
(0.968256 0.00109939 0)
(0.965539 0.00116194 0)
(0.962145 0.00127996 0)
(0.958507 0.00143585 -2.26393e-20)
(0.953588 0.00168342 0)
(0.948341 0.00197956 2.1756e-20)
(0.940811 0.00244524 0)
(0.93275 0.00294551 0)
(0.920998 0.00381394 0)
(0.907553 0.00456146 0)
(0.889848 0.0063274 0)
(0.864121 0.0071181 0)
(0.84221 0.0114384 0)
(0.780972 0.0104177 -3.67059e-20)
(0.777355 0.0237602 0)
(0.602827 0.0121105 0)
(-0.0465711 0.784677 -5.43376e-20)
(-0.213553 0.737929 5.38888e-20)
(-0.322943 0.538913 0)
(-0.395523 0.264744 -3.52897e-20)
(-0.383012 -0.0752808 0)
(-0.272064 -0.441052 -1.74478e-20)
(-0.0627099 -0.746332 3.45915e-20)
(0.218886 -0.943481 3.43944e-20)
(0.529222 -1.03547 0)
(0.835791 -1.04988 3.39033e-20)
(1.13339 -1.01184 1.68808e-20)
(1.41495 -0.943128 0)
(1.67509 -0.858388 0)
(1.9124 -0.766217 0)
(2.12608 -0.671155 0)
(2.31548 -0.575394 1.60253e-20)
(2.4795 -0.479764 0)
(2.61752 -0.384588 -3.12427e-20)
(2.72831 -0.290114 0)
(2.8115 -0.196465 0)
(2.86686 -0.10409 3.031e-20)
(2.89366 -0.0133518 0)
(2.89539 0.0751256 -2.97678e-20)
(2.87056 0.160329 1.4804e-20)
(2.8197 0.24055 -1.46877e-20)
(2.74481 0.314245 1.45784e-20)
(2.64701 0.380447 1.44745e-20)
(2.52979 0.439554 0)
(2.39388 0.491479 0)
(2.24564 0.538752 -1.41762e-20)
(2.08525 0.58123 1.4009e-20)
(1.92006 0.61481 0)
(1.75081 0.646533 0)
(1.57786 0.641685 -1.37301e-20)
(1.40483 0.580423 0)
(1.1874 0.46309 0)
(0.942279 0.314507 1.33785e-20)
(0.766383 0.163277 0)
(0.66262 0.0236705 -1.31701e-20)
(0.596194 -0.0691219 2.60925e-20)
(0.570118 -0.136821 0)
(0.601094 -0.233765 0)
(0.682162 -0.308353 5.08592e-20)
(0.785739 -0.281942 5.04102e-20)
(0.960897 -0.189714 4.99167e-20)
(1.20942 -0.237659 -2.47214e-20)
(1.31769 -0.55212 2.44827e-20)
(1.16266 -0.535417 7.27893e-20)
(0.74624 0.000791335 -4.81047e-20)
(0.018255 0.500498 -2.38542e-20)
(-0.708216 0.80635 0)
(-1.30311 1.0172 2.32919e-20)
(-1.81131 1.11443 -2.28446e-20)
(-2.24301 1.08932 0)
(-2.62179 1.01163 0)
(-2.95678 0.914019 0)
(-3.25382 0.813764 2.1802e-20)
(-3.51668 0.71849 0)
(-3.74994 0.631968 -4.18191e-20)
(-3.95778 0.555304 0)
(-4.14375 0.488316 -4.03473e-20)
(-4.3107 0.430071 0)
(-4.46091 0.379338 3.89372e-20)
(-4.59619 0.334864 0)
(-4.7179 0.295486 -3.76159e-20)
(-4.827 0.260129 1.84455e-20)
(-4.92407 0.227813 0)
(-5.00948 0.197709 3.58355e-20)
(-5.08339 0.169197 1.76933e-20)
(-5.14576 0.141834 1.74408e-20)
(-5.19647 0.115308 0)
(-5.2354 0.0894416 1.69134e-20)
(-5.26248 0.0642118 1.67858e-20)
(-5.27765 0.0397231 0)
(-5.28096 0.0161062 -1.64343e-20)
(-5.27276 -0.00649674 3.25078e-20)
(-5.25296 -0.0279754 0)
(-5.22131 -0.0482283 1.6021e-20)
(-5.17833 -0.0673238 0)
(-5.12445 -0.0853875 -4.73943e-20)
(-5.06001 -0.1026 0)
(-4.98533 -0.11923 4.68923e-20)
(-4.90051 -0.135597 1.55693e-20)
(-4.80541 -0.152063 -1.54745e-20)
(-4.69967 -0.168983 -3.08318e-20)
(-4.58266 -0.186656 3.07252e-20)
(-4.45354 -0.205262 0)
(-4.31141 -0.224806 0)
(-4.15542 -0.245089 0)
(-3.9849 -0.265705 -9.13413e-20)
(-3.79955 -0.286057 -3.04122e-20)
(-3.59956 -0.305398 3.03575e-20)
(-3.3857 -0.322901 0)
(-3.15933 -0.337768 3.01808e-20)
(-2.92235 -0.349316 -3.01833e-20)
(-2.67715 -0.357061 -3.01089e-20)
(-2.42645 -0.360805 0)
(-2.17302 -0.360642 0)
(-1.91946 -0.356818 0)
(-1.66808 -0.349673 -2.96439e-20)
(-1.42091 -0.339641 0)
(-1.1799 -0.327142 5.85526e-20)
(-0.946867 -0.312565 8.72243e-20)
(-0.723443 -0.296292 -5.76916e-20)
(-0.51099 -0.278719 0)
(-0.310195 -0.260402 -2.8336e-20)
(-0.121445 -0.241569 0)
(0.0543199 -0.223754 -5.55578e-20)
(0.21763 -0.206424 2.74664e-20)
(0.370335 -0.189974 2.71519e-20)
(0.513024 -0.174918 0)
(0.646843 -0.161373 7.95518e-20)
(0.772902 -0.149185 -5.23832e-20)
(0.892097 -0.137964 -2.58717e-20)
(1.00495 -0.127201 0)
(1.11151 -0.116415 -2.52234e-20)
(1.21144 -0.10528 -7.46958e-20)
(1.30412 -0.0936914 0)
(1.38891 -0.0817689 -4.85158e-20)
(1.46527 -0.0697682 -4.78819e-20)
(1.53301 -0.0580335 -4.72522e-20)
(1.59221 -0.0469271 0)
(1.64319 -0.036688 0)
(1.68674 -0.0275237 0)
(1.72339 -0.0195393 2.23901e-20)
(1.75407 -0.0125613 2.20904e-20)
(1.78004 -0.00651121 0)
(1.80191 -0.00144926 4.29854e-20)
(1.82031 0.00273695 4.23968e-20)
(1.83564 0.0061876 0)
(1.84837 0.00898924 4.12359e-20)
(1.85889 0.0111869 8.1322e-20)
(1.86757 0.0128183 -4.00933e-20)
(1.87465 0.0139183 -3.95276e-20)
(1.88033 0.0145521 0)
(1.88476 0.0147888 0)
(1.88812 0.0147046 0)
(1.89052 0.0143713 -3.73194e-20)
(1.89213 0.0138425 3.67775e-20)
(1.89307 0.0131568 7.2481e-20)
(1.8935 0.0123428 -3.57074e-20)
(1.89359 0.0114238 3.51783e-20)
(1.89355 0.0104219 3.4653e-20)
(1.89355 0.00936174 0)
(1.89381 0.00827174 0)
(1.89451 0.00718408 -3.31001e-20)
(1.89578 0.00613111 0)
(1.89775 0.00514231 0)
(1.90048 0.00424017 6.31597e-20)
(1.90399 0.00343193 0)
(1.90826 0.00272768 3.05841e-20)
(1.91322 0.00213719 -3.00911e-20)
(1.91879 0.00164004 0)
(1.92486 0.00123257 2.91152e-20)
(1.9313 0.000907511 0)
(1.93801 0.000652094 0)
(1.94489 0.000453095 -2.76751e-20)
(1.95184 0.000302504 5.44023e-20)
(1.9588 0.000194695 -2.67302e-20)
(1.96572 0.000128223 0)
(1.97251 0.000119198 0)
(1.97912 0.000174286 2.53347e-20)
(1.98543 0.000294167 0)
(1.99143 0.000467435 2.44186e-20)
(1.99692 0.000709621 0)
(2.00201 0.000991961 0)
(2.00634 0.00139758 0)
(2.01015 0.00185266 2.26201e-20)
(2.01288 0.00255054 0)
(2.01488 0.00323594 -2.17376e-20)
(2.01533 0.00446182 0)
(2.01451 0.00544328 0)
(2.0118 0.0077392 4.08697e-20)
(2.00594 0.0089651 -4.00141e-20)
(1.99942 0.0136091 0)
(1.98302 0.0145789 0)
(1.97455 0.0247629 0)
(1.93207 0.0233138 1.10006e-19)
(1.9341 0.047192 0)
(1.82179 0.0382262 -7.00985e-20)
(0.067115 0.87021 -1.99841e-23)
(0.131413 0.91261 -7.18368e-20)
(0.194522 0.639653 0)
(0.200194 0.312415 7.06568e-20)
(0.295985 -0.181204 0)
(0.487904 -0.748136 0)
(0.723483 -1.20387 -4.31641e-23)
(0.966357 -1.47338 -3.42915e-20)
(1.19505 -1.57936 -3.39428e-20)
(1.40678 -1.57029 -3.38213e-20)
(1.60633 -1.49351 0)
(1.79637 -1.38316 0)
(1.97754 -1.25822 3.27381e-20)
(2.14928 -1.12724 6.48081e-20)
(2.31003 -0.993365 -6.41299e-20)
(2.45754 -0.857624 0)
(2.58951 -0.720313 -6.27794e-20)
(2.70383 -0.581778 3.12254e-20)
(2.79878 -0.442349 0)
(2.87277 -0.302674 -6.0885e-20)
(2.92479 -0.163736 -3.0302e-20)
(2.95313 -0.0265876 5.9775e-20)
(2.9572 0.106311 2.97618e-20)
(2.93657 0.234028 0)
(2.89085 0.354243 -5.83111e-20)
(2.82131 0.464579 -5.78875e-20)
(2.73013 0.562389 0)
(2.62238 0.645346 -5.71037e-20)
(2.50117 0.714862 0)
(2.37528 0.76697 -5.63542e-20)
(2.24736 0.810627 -2.80611e-20)
(2.12609 0.836035 0)
(2.01121 0.847175 0)
(1.90192 0.840787 0)
(1.79588 0.772758 0)
(1.66433 0.679025 0)
(1.54069 0.56268 0)
(1.4081 0.381869 -5.30823e-20)
(1.28404 0.190411 7.89385e-20)
(1.23276 0.05308 0)
(1.18793 -0.0756282 0)
(1.14057 -0.273323 0)
(1.19299 -0.411877 3.21698e-23)
(1.31011 -0.449012 -5.0342e-20)
(1.3196 -0.672634 -9.97831e-20)
(1.10133 -0.496027 9.8913e-20)
(0.469635 0.265119 4.90572e-20)
(-0.360028 0.856584 -4.85587e-20)
(-1.03022 1.20626 1.08578e-22)
(-1.60449 1.42706 -4.73125e-20)
(-2.06898 1.54649 0)
(-2.43286 1.60144 -4.60925e-20)
(-2.7105 1.5825 3.04085e-22)
(-2.92755 1.49441 0)
(-3.112 1.3713 0)
(-3.27894 1.23484 4.35773e-20)
(-3.43692 1.10102 0)
(-3.58985 0.977353 0)
(-3.73879 0.866717 -4.12125e-20)
(-3.88354 0.7693 -8.16172e-20)
(-4.02314 0.683973 4.03442e-20)
(-4.15652 0.609136 0)
(-4.28273 0.543105 -3.89405e-20)
(-4.40103 0.484261 0)
(-4.51084 0.431101 -3.73224e-20)
(-4.61165 0.38228 -3.7002e-20)
(-4.70297 0.336645 7.2555e-20)
(-4.78432 0.29324 3.55947e-20)
(-4.85517 0.251304 0)
(-4.91498 0.210304 -6.93919e-20)
(-4.96323 0.169949 0)
(-4.99944 0.130149 -1.01522e-19)
(-5.02324 0.0909506 -6.68226e-20)
(-5.03452 0.0525747 -6.61064e-20)
(-5.03333 0.0152332 6.5458e-20)
(-5.0198 -0.020968 -9.73896e-20)
(-4.99417 -0.0555771 0)
(-4.95705 -0.0884641 0)
(-4.90905 -0.119495 6.34483e-20)
(-4.85079 -0.148759 9.46653e-20)
(-4.78285 -0.176537 0)
(-4.70567 -0.203254 -3.12608e-20)
(-4.61947 -0.229472 0)
(-4.5242 -0.255822 9.28717e-20)
(-4.41948 -0.282935 9.17095e-23)
(-4.30462 -0.311359 -9.4411e-23)
(-4.17862 -0.341439 -6.12363e-20)
(-4.04037 -0.373222 0)
(-3.88874 -0.40639 6.09037e-20)
(-3.72284 -0.440266 1.12752e-22)
(-3.54212 -0.473835 0)
(-3.34662 -0.505803 0)
(-3.13701 -0.53472 0)
(-2.91469 -0.559167 -6.04285e-20)
(-2.68164 -0.577942 0)
(-2.44042 -0.590196 0)
(-2.19395 -0.595605 0)
(-1.94513 -0.594409 0)
(-1.69664 -0.587111 0)
(-1.45079 -0.574295 -5.91866e-20)
(-1.20954 -0.556695 0)
(-0.974766 -0.534979 -5.85499e-20)
(-0.748302 -0.509694 -5.81391e-20)
(-0.531873 -0.481596 5.76895e-20)
(-0.327157 -0.451665 0)
(-0.135586 -0.420698 5.66856e-20)
(0.0413967 -0.390299 0)
(0.203453 -0.361123 5.55367e-20)
(0.351918 -0.332782 -5.49227e-20)
(0.488505 -0.306451 -1.62851e-19)
(0.615049 -0.282658 0)
(0.73347 -0.261587 -1.59015e-19)
(0.845474 -0.242947 -5.23373e-20)
(0.952378 -0.226027 0)
(1.05496 -0.209901 -1.02122e-19)
(1.15338 -0.193684 -1.00833e-19)
(1.24725 -0.176758 1.49336e-19)
(1.33584 -0.158915 0)
(1.41821 -0.140346 4.85092e-20)
(1.49353 -0.121536 4.78759e-20)
(1.56122 -0.103108 1.41727e-19)
(1.62107 -0.085649 0)
(1.67333 -0.0696328 0)
(1.71857 -0.0553435 0)
(1.75759 -0.0428669 4.4771e-20)
(1.7912 -0.0322282 0)
(1.82021 -0.0233275 0)
(1.84538 -0.0159741 -4.29827e-20)
(1.86727 -0.00996751 -4.23944e-20)
(1.88645 -0.00514212 0)
(1.90338 -0.00133901 0)
(1.91846 0.0015938 -8.13173e-20)
(1.93208 0.00380112 0)
(1.94456 0.00539678 7.90513e-20)
(1.95619 0.00648087 7.79303e-20)
(1.96714 0.00716805 0)
(1.97751 0.00756305 0)
(1.98735 0.00774375 -7.46294e-20)
(1.99662 0.0077532 -8.05341e-25)
(2.0053 0.00760706 -5.81577e-25)
(2.01337 0.00729746 0)
(2.02082 0.0068081 -1.40694e-19)
(2.0277 0.00612898 0)
(2.03411 0.00526272 0)
(2.04023 0.004227 0)
(2.04624 0.00305293 6.61897e-20)
(2.05237 0.00178207 0)
(2.05884 0.000464597 -1.28311e-19)
(2.06584 -0.000850328 -6.31493e-20)
(2.07351 -0.00211783 0)
(2.08196 -0.0032878 -6.11576e-20)
(2.09121 -0.00434554 0)
(2.10124 -0.00524586 0)
(2.112 -0.00597558 -1.74659e-19)
(2.1234 -0.00653574 1.14507e-19)
(2.13533 -0.00693748 0)
(2.14766 -0.00719923 1.10678e-19)
(2.16028 -0.00734177 -5.43915e-20)
(2.17307 -0.0073832 0)
(2.18595 -0.00734009 0)
(2.19883 -0.00721029 0)
(2.21165 -0.00699233 -1.51975e-19)
(2.22436 -0.00667351 0)
(2.2369 -0.00626929 -4.88265e-20)
(2.24926 -0.00574622 0)
(2.26135 -0.00514178 0)
(2.27318 -0.00434764 0)
(2.28455 -0.00348418 0)
(2.29557 -0.00227261 0)
(2.30578 -0.00106911 0)
(2.31564 0.000884284 -8.51751e-20)
(2.3239 0.00254136 0)
(2.3322 0.00593018 -4.08586e-20)
(2.33704 0.00806739 1.20001e-19)
(2.34362 0.0143742 0)
(2.34212 0.0167115 0)
(2.34798 0.0292959 -7.49411e-20)
(2.33382 0.0306744 -7.33076e-20)
(2.34318 0.0569192 7.16503e-20)
(2.30364 0.0557953 7.00713e-20)
(0.0927006 0.409782 1.08876e-19)
(0.258511 0.530981 1.08009e-19)
(0.343234 0.450383 7.15149e-20)
(0.499974 0.0876595 3.55762e-20)
(0.789145 -0.567637 0)
(1.08781 -1.21354 -6.94419e-20)
(1.32006 -1.65263 3.44039e-20)
(1.48427 -1.8633 0)
(1.60871 -1.90688 3.38837e-20)
(1.72191 -1.85635 0)
(1.83951 -1.76282 -6.6342e-20)
(1.96481 -1.65074 0)
(2.09502 -1.52739 -3.2713e-20)
(2.22519 -1.39357 -6.47676e-20)
(2.35046 -1.24938 6.4098e-20)
(2.46709 -1.09575 0)
(2.57265 -0.934315 6.27632e-20)
(2.66556 -0.766728 0)
(2.74453 -0.594627 0)
(2.80853 -0.419513 6.0886e-20)
(2.85666 -0.242899 0)
(2.88776 -0.0666775 -3.56112e-22)
(2.90131 0.107213 0)
(2.89582 0.276158 0)
(2.8687 0.437148 3.1416e-22)
(2.81847 0.587239 5.78734e-20)
(2.74632 0.721161 5.71935e-20)
(2.6519 0.835281 5.70829e-20)
(2.53882 0.924007 0)
(2.41077 0.986158 1.12474e-19)
(2.27561 1.02119 0)
(2.14479 1.03082 5.54559e-20)
(2.01773 1.0226 0)
(1.91359 0.980764 0)
(1.81058 0.939784 -5.43446e-20)
(1.72299 0.833085 0)
(1.63021 0.695436 5.35583e-20)
(1.52024 0.607446 -1.00755e-22)
(1.45364 0.332188 -1.05381e-19)
(1.313 0.0542256 1.04668e-19)
(1.23155 0.0134549 0)
(1.33293 -0.166164 0)
(1.34563 -0.607503 5.10037e-20)
(1.10279 -0.517794 0)
(0.425592 0.323238 4.99825e-20)
(-0.384859 0.993708 -4.94785e-20)
(-1.04814 1.41916 -4.89322e-20)
(-1.59237 1.68879 0)
(-2.01947 1.86875 4.77625e-20)
(-2.35031 1.95098 4.7199e-20)
(-2.59019 1.95603 -9.27129e-20)
(-2.76582 1.90203 4.60374e-20)
(-2.89674 1.80505 4.54503e-20)
(-3.0071 1.67942 0)
(-3.11184 1.54214 0)
(-3.21912 1.40468 -4.357e-20)
(-3.33235 1.27394 0)
(-3.45152 1.15311 0)
(-3.57466 1.04277 8.30208e-20)
(-3.69898 0.942348 8.16251e-20)
(-3.82171 0.850882 0)
(-3.94058 0.767412 0)
(-4.05397 0.691014 0)
(-4.16083 0.620721 0)
(-4.26045 0.555465 7.49664e-20)
(-4.35223 0.494115 -7.34107e-20)
(-4.43557 0.435549 -7.258e-20)
(-4.50975 0.378776 -1.4262e-19)
(-4.57401 0.323017 0)
(-4.62758 0.267752 2.98294e-22)
(-4.66972 0.212724 0)
(-4.69982 0.157953 6.76423e-20)
(-4.7174 0.103705 2.71495e-22)
(-4.72221 0.0503033 6.61429e-20)
(-4.71446 -0.0017733 -6.54932e-20)
(-4.69441 -0.0517925 2.25665e-22)
(-4.66253 -0.0994576 0)
(-4.61958 -0.144412 -6.3714e-20)
(-4.56644 -0.186546 -6.34785e-20)
(-4.50403 -0.225956 -1.2605e-19)
(-4.43321 -0.263006 0)
(-4.3547 -0.298319 6.23267e-20)
(-4.26892 -0.332736 0)
(-4.17591 -0.367242 -1.23705e-19)
(-4.0753 -0.402856 6.16711e-20)
(-3.96624 -0.440486 -6.14535e-20)
(-3.84744 -0.480767 6.12556e-20)
(-3.71739 -0.523881 1.21893e-19)
(-3.57455 -0.569434 -6.09185e-20)