/*--------------------------------*- C++ -*----------------------------------*\
  =========                 |
  \\      /  F ield         | OpenFOAM: The Open Source CFD Toolbox
   \\    /   O peration     | Website:  https://openfoam.org
    \\  /    A nd           | Version:  7
     \\/     M anipulation  |
\*---------------------------------------------------------------------------*/
FoamFile
{
    version     2.0;
    format      ascii;
    class       surfaceScalarField;
    location    "0.109";
    object      phi_0;
}
// * * * * * * * * * * * * * * * * * * * * * * * * * * * * * * * * * * * * * //

dimensions      [0 3 -1 0 0 0 0];

internalField   nonuniform List<scalar> 
24170
(
1.41573e-06
1.92694e-07
1.2719e-06
1.43832e-07
1.12763e-06
1.44268e-07
9.9545e-07
1.3218e-07
8.749e-07
1.20551e-07
7.6393e-07
1.1097e-07
6.59784e-07
1.04146e-07
5.62318e-07
9.74662e-08
4.73161e-07
8.91573e-08
3.93144e-07
8.00168e-08
3.22225e-07
7.0919e-08
2.60246e-07
6.19789e-08
2.06963e-07
5.32833e-08
1.61996e-07
4.49669e-08
1.23888e-07
3.81077e-08
9.03108e-08
3.35771e-08
5.93395e-08
3.09713e-08
2.50739e-08
3.42656e-08
1.67484e-06
2.50173e-07
1.65683e-06
1.61845e-07
1.61654e-06
1.84563e-07
1.56525e-06
1.83468e-07
1.51407e-06
1.71729e-07
1.46645e-06
1.58595e-07
1.42073e-06
1.49864e-07
1.37275e-06
1.4544e-07
1.31982e-06
1.42094e-07
1.26173e-06
1.38105e-07
1.20077e-06
1.31873e-07
1.13911e-06
1.23642e-07
1.07839e-06
1.14001e-07
1.01885e-06
1.04514e-07
9.59991e-07
9.69633e-08
9.01488e-07
9.20799e-08
8.40585e-07
9.18742e-08
9.47637e-08
7.70895e-07
1.75905e-06
2.45521e-07
1.74798e-06
1.72915e-07
1.73954e-06
1.93003e-07
1.73713e-06
1.85876e-07
1.73722e-06
1.71638e-07
1.73306e-06
1.62754e-07
1.72185e-06
1.61071e-07
1.70475e-06
1.62542e-07
1.68396e-06
1.62884e-07
1.66075e-06
1.61316e-07
1.63528e-06
1.57345e-07
1.60762e-06
1.51304e-07
1.57756e-06
1.44059e-07
1.54538e-06
1.36694e-07
1.5109e-06
1.31445e-07
1.47442e-06
1.28557e-07
1.43546e-06
1.3083e-07
1.35989e-07
1.39424e-06
1.93908e-06
3.5134e-07
1.90071e-06
2.11282e-07
1.89085e-06
2.02864e-07
1.89304e-06
1.83683e-07
1.89436e-06
1.70321e-07
1.8882e-06
1.68918e-07
1.87575e-06
1.7352e-07
1.86164e-06
1.76651e-07
1.84902e-06
1.75504e-07
1.83823e-06
1.721e-07
1.82755e-06
1.68031e-07
1.81563e-06
1.63216e-07
1.80185e-06
1.57842e-07
1.78654e-06
1.52011e-07
1.77032e-06
1.4766e-07
1.75358e-06
1.45296e-07
1.73775e-06
1.46655e-07
1.50215e-07
1.72353e-06
2.10058e-06
3.40083e-07
2.05663e-06
2.55232e-07
2.03898e-06
2.20513e-07
2.03582e-06
1.86845e-07
2.03199e-06
1.74152e-07
2.02248e-06
1.78424e-07
2.00901e-06
1.86992e-07
1.99635e-06
1.8931e-07
1.9878e-06
1.84053e-07
1.98329e-06
1.76611e-07
1.97995e-06
1.7137e-07
1.97467e-06
1.68494e-07
1.96581e-06
1.66703e-07
1.95344e-06
1.64382e-07
1.93948e-06
1.61627e-07
1.92568e-06
1.5909e-07
1.91491e-06
1.57429e-07
1.57171e-07
1.90795e-06
2.23817e-06
4.08205e-07
2.18336e-06
3.10044e-07
2.1681e-06
2.35775e-07
2.17291e-06
1.82037e-07
2.17954e-06
1.67519e-07
2.1773e-06
1.80666e-07
2.16599e-06
1.983e-07
2.15175e-06
2.03546e-07
2.14012e-06
1.95682e-07
2.13253e-06
1.84207e-07
2.12678e-06
1.77122e-07
2.11966e-06
1.75612e-07
2.10944e-06
1.76923e-07
2.09642e-06
1.77401e-07
2.0828e-06
1.75245e-07
2.07094e-06
1.70955e-07
2.06297e-06
1.65396e-07
1.60559e-07
2.05958e-06
2.3748e-06
4.43164e-07
2.37556e-06
3.09284e-07
2.38345e-06
2.27886e-07
2.37566e-06
1.89826e-07
2.35408e-06
1.89101e-07
2.33111e-06
2.03632e-07
2.31425e-06
2.15163e-07
2.30397e-06
2.13829e-07
2.29803e-06
2.01617e-07
2.29463e-06
1.87612e-07
2.29277e-06
1.78983e-07
2.29158e-06
1.76794e-07
2.29035e-06
1.78153e-07
2.28851e-06
1.7924e-07
2.28578e-06
1.77983e-07
2.28244e-06
1.74286e-07
2.27844e-06
1.69403e-07
1.64409e-07
2.27459e-06
2.54279e-06
4.30077e-07
2.52993e-06
3.22146e-07
2.52921e-06
2.28601e-07
2.5185e-06
2.0054e-07
2.49687e-06
2.10731e-07
2.48079e-06
2.19717e-07
2.47906e-06
2.16889e-07
2.48671e-06
2.06174e-07
2.49424e-06
1.94093e-07
2.49667e-06
1.85175e-07
2.49522e-06
1.80434e-07
2.49357e-06
1.78448e-07
2.4943e-06
1.77428e-07
2.49719e-06
1.76343e-07
2.50013e-06
1.75049e-07
2.50077e-06
1.73642e-07
2.49725e-06
1.72922e-07
1.71968e-07
2.48969e-06
2.75004e-06
3.91182e-07
2.74275e-06
3.29435e-07
2.72057e-06
2.50782e-07
2.69076e-06
2.30347e-07
2.6724e-06
2.29093e-07
2.67236e-06
2.19754e-07
2.68284e-06
2.06416e-07
2.69139e-06
1.97626e-07
2.69067e-06
1.9481e-07
2.68171e-06
1.94137e-07
2.67058e-06
1.91567e-07
2.66305e-06
1.85976e-07
2.66149e-06
1.78987e-07
2.66451e-06
1.73319e-07
2.66893e-06
1.70629e-07
2.67154e-06
1.71036e-07
2.67051e-06
1.73949e-07
1.77321e-07
2.66516e-06
2.97375e-06
4.3084e-07
2.93596e-06
3.67227e-07
2.89968e-06
2.87056e-07
2.88386e-06
2.46169e-07
2.88791e-06
2.25041e-07
2.89986e-06
2.07806e-07
2.9086e-06
1.97678e-07
2.90905e-06
1.97174e-07
2.90248e-06
2.01383e-07
2.89343e-06
2.03182e-07
2.88599e-06
1.9901e-07
2.88167e-06
1.90294e-07
2.87964e-06
1.8102e-07
2.878e-06
1.74953e-07
2.87518e-06
1.73447e-07
2.87046e-06
1.75754e-07
2.86414e-06
1.80273e-07
1.84566e-07
2.8569e-06
3.12971e-06
4.06561e-07
3.13816e-06
3.58773e-07
3.12294e-06
3.02276e-07
3.11986e-06
2.49251e-07
3.12278e-06
2.2212e-07
3.11933e-06
2.11257e-07
3.10969e-06
2.07318e-07
3.09966e-06
2.07205e-07
3.09263e-06
2.08414e-07
3.08869e-06
2.07115e-07
3.08681e-06
2.00897e-07
3.08606e-06
1.91038e-07
3.08591e-06
1.81176e-07
3.08596e-06
1.74905e-07
3.08593e-06
1.73473e-07
3.08558e-06
1.76102e-07
3.08505e-06
1.80802e-07
1.85616e-07
3.084e-06
2.85448e-06
4.47526e-07
2.82795e-06
3.85296e-07
2.80788e-06
3.22351e-07
2.80617e-06
2.50964e-07
2.81694e-06
2.11347e-07
2.82632e-06
2.01872e-07
2.82601e-06
2.07631e-07
2.81681e-06
2.16407e-07
2.80429e-06
2.20929e-07
2.7931e-06
2.18308e-07
2.78458e-06
2.09414e-07
2.77801e-06
1.97615e-07
2.77247e-06
1.86715e-07
2.76778e-06
1.79594e-07
2.76448e-06
1.76774e-07
2.76294e-06
1.77642e-07
2.7635e-06
1.8024e-07
1.83572e-07
2.76554e-06
3.55021e-06
4.64144e-07
3.51302e-06
4.22484e-07
3.49692e-06
3.38445e-07
3.48495e-06
2.6294e-07
3.47508e-06
2.21218e-07
3.46093e-06
2.1602e-07
3.44074e-06
2.27818e-07
3.42124e-06
2.35907e-07
3.41008e-06
2.32094e-07
3.40886e-06
2.19529e-07
3.41342e-06
2.04848e-07
3.4182e-06
1.92843e-07
3.4197e-06
1.85208e-07
3.4177e-06
1.81599e-07
3.41398e-06
1.80495e-07
3.41082e-06
1.80799e-07
3.40976e-06
1.81304e-07
1.82182e-07
3.41115e-06
4.24798e-06
4.2187e-07
4.2363e-06
4.34163e-07
4.24071e-06
3.34044e-07
4.2341e-06
2.6955e-07
4.21522e-06
2.40099e-07
4.19791e-06
2.33322e-07
4.19117e-06
2.34563e-07
4.19504e-06
2.32031e-07
4.20418e-06
2.22961e-07
4.21226e-06
2.1145e-07
4.21544e-06
2.01669e-07
4.21338e-06
1.949e-07
4.20832e-06
1.90265e-07
4.20333e-06
1.86588e-07
4.20059e-06
1.83242e-07
4.20108e-06
1.80307e-07
4.20435e-06
1.78037e-07
1.77082e-07
4.20944e-06
5.22628e-06
5.4996e-07
5.19106e-06
4.69388e-07
5.15208e-06
3.73019e-07
5.11671e-06
3.04927e-07
5.08907e-06
2.6773e-07
5.07068e-06
2.51713e-07
5.06228e-06
2.42964e-07
5.06404e-06
2.30278e-07
5.07526e-06
2.11731e-07
5.09401e-06
1.92704e-07
5.11732e-06
1.78359e-07
5.14173e-06
1.70488e-07
5.16439e-06
1.67605e-07
5.1835e-06
1.6748e-07
5.19828e-06
1.68465e-07
5.20873e-06
1.69858e-07
5.21499e-06
1.71778e-07
1.7429e-07
5.21778e-06
6.22781e-06
4.59417e-07
6.28141e-06
4.1579e-07
6.29063e-06
3.63794e-07
6.28284e-06
3.12714e-07
6.26238e-06
2.88192e-07
6.23051e-06
2.8358e-07
6.20041e-06
2.7307e-07
6.1875e-06
2.43188e-07
6.1988e-06
2.00436e-07
6.2314e-06
1.60097e-07
6.27569e-06
1.34074e-07
6.31988e-06
1.26292e-07
6.35443e-06
1.33058e-07
6.37442e-06
1.47492e-07
6.38037e-06
1.6251e-07
6.37595e-06
1.7428e-07
6.3667e-06
1.81027e-07
1.83281e-07
6.35771e-06
7.70924e-06
4.84041e-07
7.7016e-06
4.23425e-07
7.7214e-06
3.43993e-07
7.73896e-06
2.95159e-07
7.74604e-06
2.81113e-07
7.74475e-06
2.84868e-07
7.73865e-06
2.79171e-07
7.73072e-06
2.51117e-07
7.7227e-06
2.08449e-07
7.71537e-06
1.67428e-07
7.70882e-06
1.40626e-07
7.70307e-06
1.3204e-07
7.69853e-06
1.37601e-07
7.69617e-06
1.49855e-07
7.6977e-06
1.60978e-07
7.70451e-06
1.67473e-07
7.71804e-06
1.67492e-07
1.63662e-07
7.73766e-06
9.24206e-06
4.32337e-07
9.30651e-06
3.58982e-07
9.32389e-06
3.26611e-07
9.31557e-06
3.03476e-07
9.31254e-06
2.84142e-07
9.32896e-06
2.68455e-07
9.35939e-06
2.48739e-07
9.39007e-06
2.20437e-07
9.4102e-06
1.88324e-07
9.41595e-06
1.61673e-07
9.41025e-06
1.46328e-07
9.40059e-06
1.41696e-07
9.39547e-06
1.42727e-07
9.40136e-06
1.43965e-07
9.42097e-06
1.41361e-07
9.45373e-06
1.34715e-07
9.49677e-06
1.24453e-07
1.14075e-07
9.54636e-06
1.13652e-05
5.3093e-07
1.13019e-05
4.22322e-07
1.12734e-05
3.55108e-07
1.12829e-05
2.93895e-07
1.13405e-05
2.2659e-07
1.14377e-05
1.71221e-07
1.15486e-05
1.37874e-07
1.1646e-05
1.22997e-07
1.17161e-05
1.18236e-07
1.17592e-05
1.18631e-07
1.17831e-05
1.224e-07
1.17975e-05
1.27285e-07
1.18101e-05
1.30121e-07
1.18253e-05
1.28741e-07
1.18442e-05
1.22486e-07
1.18658e-05
1.13102e-07
1.1888e-05
1.0226e-07
9.25716e-08
1.19095e-05
8.05265e-06
2.53573e-07
8.22518e-06
2.49789e-07
8.3081e-06
2.72192e-07
8.36139e-06
2.4061e-07
8.39552e-06
1.92453e-07
8.41816e-06
1.48581e-07
8.43755e-06
1.18483e-07
8.45772e-06
1.02829e-07
8.47989e-06
9.60713e-08
8.50563e-06
9.28897e-08
8.53699e-06
9.10362e-08
8.57416e-06
9.01152e-08
8.61462e-06
8.96592e-08
8.65389e-06
8.94754e-08
8.6875e-06
8.88758e-08
8.71282e-06
8.77797e-08
8.72925e-06
8.58307e-08
8.31765e-08
8.73865e-06
7.23421e-06
2.99399e-07
7.24665e-06
2.37351e-07
7.26962e-06
2.49223e-07
7.30105e-06
2.09177e-07
7.34088e-06
1.52626e-07
7.38328e-06
1.06174e-07
7.42187e-06
7.98964e-08
7.45302e-06
7.16789e-08
7.47623e-06
7.28626e-08
7.49362e-06
7.54988e-08
7.50909e-06
7.55678e-08
7.52667e-06
7.25348e-08
7.54898e-06
6.73489e-08
7.57685e-06
6.16097e-08
7.60913e-06
5.6591e-08
7.64377e-06
5.31433e-08
7.67844e-06
5.11599e-08
5.0531e-08
7.71108e-06
6.30408e-06
3.21392e-07
6.34715e-06
1.94279e-07
6.42608e-06
1.70298e-07
6.4886e-06
1.4665e-07
6.52282e-06
1.18407e-07
6.53866e-06
9.03402e-08
6.55224e-06
6.63138e-08
6.57115e-06
5.27658e-08
6.59387e-06
5.01446e-08
6.61571e-06
5.36571e-08
6.63418e-06
5.71041e-08
6.65008e-06
5.66367e-08
6.66587e-06
5.15564e-08
6.68397e-06
4.35112e-08
6.70533e-06
3.5232e-08
6.7294e-06
2.90713e-08
6.75452e-06
2.60412e-08
2.68284e-08
6.77822e-06
5.50642e-06
3.51518e-07
5.53309e-06
1.67609e-07
5.6066e-06
9.67882e-08
5.65454e-06
9.87063e-08
5.664e-06
1.08947e-07
5.65711e-06
9.72346e-08
5.6585e-06
6.49189e-08
5.68049e-06
3.07794e-08
5.72044e-06
1.01946e-08
5.76867e-06
5.42363e-09
5.81592e-06
9.85575e-09
5.85595e-06
1.66035e-08
5.8865e-06
2.10111e-08
5.9078e-06
2.22097e-08
5.92136e-06
2.16691e-08
5.92921e-06
2.1224e-08
5.93321e-06
2.20432e-08
2.44436e-08
5.93559e-06
4.90021e-06
2.29578e-07
4.92606e-06
1.41757e-07
4.94015e-06
8.26938e-08
4.9624e-06
7.64585e-08
4.9916e-06
7.97423e-08
5.02109e-06
6.77522e-08
5.04364e-06
4.2367e-08
5.05751e-06
1.69094e-08
5.06616e-06
1.54649e-09
5.07297e-06
-1.39216e-09
5.08234e-06
4.85507e-10
5.09583e-06
3.11707e-09
5.1135e-06
3.33656e-09
5.13376e-06
1.95192e-09
5.15431e-06
1.12258e-09
5.17323e-06
2.2999e-09
5.18941e-06
5.86597e-09
1.11921e-08
5.20266e-06
4.29507e-06
1.79058e-07
4.33133e-06
1.05498e-07
4.35357e-06
6.04537e-08
4.38368e-06
4.63498e-08
4.41954e-06
4.38826e-08
4.45261e-06
3.4682e-08
4.47455e-06
2.04278e-08
4.48375e-06
7.70538e-09
4.48473e-06
5.64376e-10
4.48593e-06
-2.58384e-09
4.49053e-06
-4.11314e-09
4.50005e-06
-6.40754e-09
4.51326e-06
-9.87049e-09
4.52843e-06
-1.32228e-08
4.54434e-06
-1.47855e-08
4.56042e-06
-1.37783e-08
4.5765e-06
-1.02126e-08
-4.70196e-09
4.59239e-06
3.7338e-06
2.19919e-07
3.74077e-06
9.85294e-08
3.774e-06
2.72256e-08
3.81086e-06
9.48623e-09
3.84098e-06
1.37696e-08
3.8569e-06
1.8754e-08
3.86339e-06
1.39435e-08
3.87217e-06
-1.07375e-09
3.88994e-06
-1.72109e-08
3.91758e-06
-3.02235e-08
3.95034e-06
-3.68669e-08
3.98163e-06
-3.77068e-08
4.00605e-06
-3.42841e-08
4.0213e-06
-2.8475e-08
4.02846e-06
-2.19437e-08
4.03053e-06
-1.58476e-08
4.0311e-06
-1.07822e-08
-6.89e-09
4.03329e-06
3.29175e-06
2.83022e-07
3.32487e-06
6.54147e-08
3.34587e-06
6.22681e-09
3.37678e-06
-2.14267e-08
3.41548e-06
-2.49331e-08
3.44877e-06
-1.45391e-08
3.469e-06
-6.28518e-09
3.47718e-06
-9.24694e-09
3.48058e-06
-2.061e-08
3.4848e-06
-3.44525e-08
3.49245e-06
-4.45167e-08
3.50251e-06
-4.77619e-08
3.51254e-06
-4.43186e-08
3.52077e-06
-3.66984e-08
3.52713e-06
-2.83109e-08
3.53288e-06
-2.15958e-08
3.53975e-06
-1.76521e-08
-1.62245e-08
3.54909e-06
2.90966e-06
2.07965e-07
2.93824e-06
3.68326e-08
2.9483e-06
-3.83145e-09
2.95997e-06
-3.30965e-08
2.97806e-06
-4.3024e-08
3.00122e-06
-3.77006e-08
3.02612e-06
-3.11852e-08
3.04729e-06
-3.04133e-08
3.06228e-06
-3.55985e-08
3.07191e-06
-4.40839e-08
3.07913e-06
-5.17358e-08
3.08634e-06
-5.49757e-08
3.09443e-06
-5.24053e-08
3.10311e-06
-4.53823e-08
3.11178e-06
-3.69833e-08
3.12016e-06
-2.99689e-08
3.12833e-06
-2.58279e-08
-2.46905e-08
3.1368e-06
2.52127e-06
1.07936e-07
2.59079e-06
-3.2693e-08
2.61458e-06
-2.7623e-08
2.62131e-06
-3.98279e-08
2.62593e-06
-4.76422e-08
2.63686e-06
-4.8629e-08
2.65299e-06
-4.73094e-08
2.66829e-06
-4.57174e-08
2.67779e-06
-4.50952e-08
2.6796e-06
-4.58942e-08
2.6747e-06
-4.68417e-08
2.66578e-06
-4.60542e-08
2.65614e-06
-4.2768e-08
2.64842e-06
-3.7655e-08
2.64377e-06
-3.23394e-08
2.64208e-06
-2.82758e-08
2.64245e-06
-2.6201e-08
-2.59639e-08
2.64373e-06
2.16288e-06
2.13018e-06
2.10256e-06
2.06273e-06
2.01509e-06
1.96646e-06
1.91915e-06
1.87343e-06
1.82834e-06
1.78245e-06
1.7356e-06
1.68955e-06
1.64678e-06
1.60913e-06
1.57679e-06
1.54851e-06
1.52231e-06
1.49635e-06
-1.85235e-07
1.85235e-07
-3.80346e-07
1.95111e-07
-5.30572e-07
1.50226e-07
-6.14386e-07
8.38143e-08
-6.16466e-07
2.07966e-09
-5.39361e-07
-7.71051e-08
-3.85137e-07
-1.54224e-07
-1.6952e-07
-2.15617e-07
8.11636e-08
-2.50684e-07
3.43344e-07
-2.62181e-07
5.9627e-07
-2.52926e-07
8.18657e-07
-2.22387e-07
9.89593e-07
-1.70935e-07
1.10233e-06
-1.1274e-07
1.16046e-06
-5.81295e-08
1.17008e-06
-9.6208e-09
1.14915e-06
2.09306e-08
1.12637e-06
2.27782e-08
1.11867e-06
7.70267e-09
1.13546e-06
-1.67867e-08
1.19714e-06
-6.16815e-08
1.29795e-06
-1.00811e-07
1.38392e-06
-8.59648e-08
1.42007e-06
-3.61523e-08
1.41792e-06
2.14571e-09
1.37336e-06
4.45622e-08
1.27168e-06
1.01675e-07
1.16265e-06
1.09038e-07
1.09851e-06
6.41355e-08
1.06035e-06
3.81615e-08
1.00612e-06
5.42329e-08
8.87322e-07
1.18794e-07
6.38368e-07
2.48955e-07
2.52251e-07
3.86117e-07
-2.17434e-07
4.69685e-07
-7.14186e-07
4.96752e-07
-1.20183e-06
4.87645e-07
-1.65914e-06
4.57312e-07
-2.07745e-06
4.18312e-07
-2.45671e-06
3.79252e-07
-2.79913e-06
3.42424e-07
-3.10787e-06
3.08741e-07
-3.38574e-06
2.77873e-07
-3.63494e-06
2.49195e-07
-3.8568e-06
2.21864e-07
-4.05199e-06
1.9519e-07
-4.22056e-06
1.68569e-07
-4.36205e-06
1.41489e-07
-4.47553e-06
1.13481e-07
-4.55973e-06
8.41949e-08
-4.61319e-06
5.3462e-08
-4.63455e-06
2.1361e-08
-4.62292e-06
-1.16264e-08
-4.5778e-06
-4.51212e-08
-4.49903e-06
-7.87751e-08
-4.38734e-06
-1.11684e-07
-4.24425e-06
-1.43095e-07
-4.07287e-06
-1.71378e-07
-3.87944e-06
-1.9343e-07
-3.67384e-06
-2.05598e-07
-3.47002e-06
-2.03821e-07
-3.28507e-06
-1.84949e-07
-3.1368e-06
-1.48271e-07
-3.03932e-06
-9.74861e-08
-2.99746e-06
-4.18547e-08
-3.00248e-06
5.01866e-09
-3.03235e-06
2.98646e-08
-3.0392e-06
6.85009e-09
-2.95728e-06
-8.1914e-08
-2.74996e-06
-2.07319e-07
-2.4629e-06
-2.87065e-07
-2.18501e-06
-2.77884e-07
-1.95436e-06
-2.30652e-07
-1.73877e-06
-2.15591e-07
-1.51203e-06
-2.26746e-07
-1.28761e-06
-2.24416e-07
-1.0623e-06
-2.25313e-07
-8.10399e-07
-2.51897e-07
-5.18872e-07
-2.91527e-07
-1.4829e-07
-3.70582e-07
2.6675e-07
-4.1504e-07
5.78118e-07
-3.11368e-07
7.15167e-07
-1.3705e-07
7.18901e-07
-3.73376e-09
6.7216e-07
4.67408e-08
6.45336e-07
2.68244e-08
6.97473e-07
-5.21373e-08
8.28683e-07
-1.31209e-07
1.00874e-06
-1.80055e-07
1.32447e-06
-3.15734e-07
1.74315e-06
-4.18677e-07
1.79983e-06
-5.66776e-08
1.34114e-06
4.58682e-07
8.53428e-07
4.87716e-07
7.19752e-07
1.33676e-07
8.94702e-07
-1.7495e-07
1.05716e-06
-1.62453e-07
9.71549e-07
8.56059e-08
5.83078e-07
3.88472e-07
6.87917e-09
5.76198e-07
-5.6901e-07
5.7589e-07
-1.08239e-06
5.13375e-07
-1.52622e-06
4.43832e-07
-1.90974e-06
3.83522e-07
-2.24432e-06
3.34585e-07
-2.53991e-06
2.95583e-07
-2.80402e-06
2.6411e-07
-3.04171e-06
2.3769e-07
-3.25608e-06
2.1437e-07
-3.44867e-06
1.92595e-07
-3.61968e-06
1.71013e-07
-3.76833e-06
1.48645e-07
-3.89317e-06
1.24839e-07
-3.99227e-06
9.91027e-08
-4.06352e-06
7.12463e-08
-4.10501e-06
4.14944e-08
-4.11505e-06
1.00368e-08
-4.09324e-06
-2.18103e-08
-4.03946e-06
-5.3783e-08
-3.9534e-06
-8.6055e-08
-3.83494e-06
-1.18465e-07
-3.68393e-06
-1.51008e-07
-3.50006e-06
-1.83871e-07
-3.28267e-06
-2.17385e-07
-3.03088e-06
-2.51791e-07
-2.74419e-06
-2.86691e-07
-2.4239e-06
-3.20292e-07
-2.07472e-06
-3.49178e-07
-1.70529e-06
-3.69435e-07
-1.32677e-06
-3.7852e-07
-9.5084e-07
-3.75925e-07
-5.88921e-07
-3.6192e-07
-2.51627e-07
-3.37293e-07
5.19067e-08
-3.03534e-07
3.20039e-07
-2.68132e-07
5.51533e-07
-2.31495e-07
7.4968e-07
-1.98147e-07
9.18973e-07
-1.69293e-07
1.06362e-06
-1.44647e-07
1.18718e-06
-1.23559e-07
1.2933e-06
-1.06126e-07
1.38684e-06
-9.35381e-08
1.47432e-06
-8.74765e-08
1.56334e-06
-8.90182e-08
1.66082e-06
-9.74813e-08
1.77067e-06
-1.09848e-07
1.89211e-06
-1.21441e-07
2.01985e-06
-1.27746e-07
2.14609e-06
-1.26238e-07
2.26268e-06
-1.16587e-07
2.36097e-06
-9.82916e-08
2.42758e-06
-6.661e-08
2.44356e-06
-1.59799e-08
2.39465e-06
4.89105e-08
2.27502e-06
1.19633e-07
2.07967e-06
1.95342e-07
1.81164e-06
2.68037e-07
1.50293e-06
3.08712e-07
1.2105e-06
2.92431e-07
9.7794e-07
2.32555e-07
8.18834e-07
1.59106e-07
7.21977e-07
9.68573e-08
6.67008e-07
5.49688e-08
6.35282e-07
3.17263e-08
6.1299e-07
2.22919e-08
5.92328e-07
2.06617e-08
5.71109e-07
2.12199e-08
5.50344e-07
2.07647e-08
5.31708e-07
1.86362e-08
5.16408e-07
1.52999e-08
5.04416e-07
1.19913e-08
4.95614e-07
8.80242e-09
4.88056e-07
7.55799e-09
4.82005e-07
6.05132e-09
4.72892e-07
9.11253e-09
4.64528e-07
8.36412e-09
4.44794e-07
1.97336e-08
4.30498e-07
1.42961e-08
3.84229e-07
4.62695e-08
2.29707e-08
3.61258e-07
-8.371e-08
2.68945e-07
-1.75289e-07
2.8669e-07
-2.21935e-07
1.96872e-07
-2.23817e-07
8.56965e-08
-1.80374e-07
-4.13629e-08
-7.37018e-08
-1.83778e-07
9.31249e-08
-3.21051e-07
3.01546e-07
-4.24038e-07
5.29526e-07
-4.78664e-07
7.52029e-07
-4.84683e-07
9.48039e-07
-4.48935e-07
1.10938e-06
-3.83733e-07
1.23732e-06
-2.98875e-07
1.33284e-06
-2.08255e-07
1.39985e-06
-1.25138e-07
1.43594e-06
-4.57154e-08
1.43178e-06
2.50966e-08
1.38582e-06
6.87362e-08
1.33089e-06
6.26284e-08
1.31945e-06
-5.34897e-09
1.37023e-06
-1.12453e-07
1.45849e-06
-1.89072e-07
1.53462e-06
-1.621e-07
1.5621e-06
-6.36283e-08
1.53491e-06
2.93358e-08
1.45726e-06
1.2221e-07
1.33091e-06
2.28022e-07
1.12874e-06
3.11211e-07
8.08473e-07
3.84402e-07
3.5086e-07
4.95775e-07
-2.14044e-07
6.19137e-07
-8.11385e-07
7.16134e-07
-1.35556e-06
7.93131e-07
-1.81653e-06
8.47086e-07
-2.21112e-06
8.64279e-07
-2.56011e-06
8.45734e-07
-2.87444e-06
8.01978e-07
-3.16128e-06
7.44156e-07
-3.42518e-06
6.82212e-07
-3.66773e-06
6.21799e-07
-3.89067e-06
5.65366e-07
-4.09543e-06
5.13495e-07
-4.28316e-06
4.65612e-07
-4.45466e-06
4.20691e-07
-4.61037e-06
3.77573e-07
-4.75039e-06
3.35209e-07
-4.8745e-06
2.92681e-07
-4.98223e-06
2.49218e-07
-5.07291e-06
2.04167e-07
-5.14579e-06
1.57071e-07
-5.20008e-06
1.07757e-07
-5.23449e-06
5.57623e-08
-5.24521e-06
-9.01447e-10
-5.23449e-06
-5.58464e-08
-5.19946e-06
-1.13802e-07
-5.13856e-06
-1.72584e-07
-5.0517e-06
-2.29957e-07
-4.94003e-06
-2.83049e-07
-4.80557e-06
-3.27887e-07
-4.65159e-06
-3.59574e-07
-4.48255e-06
-3.72863e-07
-4.30353e-06
-3.63971e-07
-4.1205e-06
-3.31301e-07
-3.93824e-06
-2.79742e-07
-3.75427e-06
-2.25825e-07
-3.5554e-06
-1.93854e-07
-3.31803e-06
-2.075e-07
-3.03386e-06
-2.77328e-07
-2.72723e-06
-3.88544e-07
-2.43706e-06
-4.97487e-07
-2.17226e-06
-5.51865e-07
-1.91201e-06
-5.38129e-07
-1.64351e-06
-4.99151e-07
-1.37544e-06
-4.83667e-07
-1.1142e-06
-4.87981e-07
-8.60436e-07
-4.78182e-07
-6.13525e-07
-4.72225e-07
-3.63213e-07
-5.02209e-07
-8.40239e-08
-5.70716e-07
2.91733e-07
-7.46339e-07
8.0126e-07
-9.24567e-07
1.26839e-06
-7.785e-07
1.56319e-06
-4.31843e-07
1.67126e-06
-1.11807e-07
1.63272e-06
8.52758e-08
1.52528e-06
1.3427e-07
1.43169e-06
4.14497e-08
1.44817e-06
-1.47683e-07
1.60083e-06
-3.32721e-07
1.76424e-06
-4.79143e-07
1.91342e-06
-5.67859e-07
2.08531e-06
-2.28569e-07
2.02464e-06
5.19355e-07
1.6736e-06
8.38752e-07
1.43226e-06
3.7502e-07
1.20892e-06
4.83944e-08
7.02963e-07
3.43501e-07
-1.69734e-08
8.05542e-07
-7.08671e-07
1.08017e-06
-1.24805e-06
1.11557e-06
-1.68608e-06
1.01392e-06
-2.05301e-06
8.80307e-07
-2.36551e-06
7.56335e-07
-2.63603e-06
6.54042e-07
-2.87437e-06
5.72919e-07
-3.0876e-06
5.08813e-07
-3.28035e-06
4.56864e-07
-3.45545e-06
4.12791e-07
-3.61437e-06
3.73288e-07
-3.75737e-06
3.35591e-07
-3.8839e-06
2.97549e-07
-3.99286e-06
2.57598e-07
-4.08262e-06
2.14601e-07
-4.15131e-06
1.67798e-07
-4.19697e-06
1.16908e-07
-4.21753e-06
6.20503e-08
-4.21066e-06
3.16332e-09
-4.17495e-06
-5.75131e-08
-4.10799e-06
-1.20748e-07
-4.00905e-06
-1.84991e-07
-3.87796e-06
-2.49554e-07
-3.71463e-06
-3.14346e-07
-3.51869e-06
-3.7981e-07
-3.28934e-06
-4.46733e-07
-3.02531e-06
-5.15824e-07
-2.72539e-06
-5.86605e-07
-2.39005e-06
-6.55634e-07
-2.02354e-06
-7.15685e-07
-1.63473e-06
-7.58253e-07
-1.23527e-06
-7.77978e-07
-8.36927e-07
-7.74267e-07
-4.51465e-07
-7.47382e-07
-8.97931e-08
-6.98965e-07
2.40654e-07
-6.33981e-07
5.33345e-07
-5.60823e-07
7.89332e-07
-4.87482e-07
1.01205e-06
-4.20869e-07
1.20615e-06
-3.63388e-07
1.37554e-06
-3.1404e-07
1.52305e-06
-2.71069e-07
1.65142e-06
-2.34494e-07
1.76474e-06
-2.06857e-07
1.86924e-06
-1.91981e-07
1.97311e-06
-1.92881e-07
2.08487e-06
-2.0925e-07
2.21083e-06
-2.35801e-07
2.35249e-06
-2.63101e-07
2.50578e-06
-2.81034e-07
2.66199e-06
-2.82449e-07
2.80954e-06
-2.64137e-07
2.93732e-06
-2.26073e-07
3.04039e-06
-1.69678e-07
3.12141e-06
-9.70021e-08
3.17944e-06
-9.12225e-09
3.21044e-06
8.86324e-08
3.20564e-06
2.00145e-07
3.15026e-06
3.2341e-07
3.02253e-06
4.36448e-07
2.8178e-06
4.97163e-07
2.56085e-06
4.895e-07
2.29834e-06
4.2162e-07
2.07057e-06
3.2462e-07
1.89646e-06
2.29085e-07
1.77209e-06
1.56097e-07
1.68225e-06
1.12132e-07
1.61304e-06
8.98727e-08
1.55656e-06
7.77e-08
1.50971e-06
6.76129e-08
1.47127e-06
5.70785e-08
1.44062e-06
4.59505e-08
1.41652e-06
3.60852e-08
1.39835e-06
2.69743e-08
1.38393e-06
2.19758e-08
1.37321e-06
1.67706e-08
1.36239e-06
1.99346e-08
1.35336e-06
1.73972e-08
1.33923e-06
3.38643e-08
1.32496e-06
2.85588e-08
1.30057e-06
7.0661e-08
5.37367e-08
1.26981e-06
1.24804e-07
1.44142e-07
2.132e-07
1.98293e-07
2.8669e-07
1.23382e-07
3.72258e-07
1.2881e-10
5.0905e-07
-1.78155e-07
6.88037e-07
-3.62765e-07
8.83885e-07
-5.16898e-07
1.07173e-06
-6.11887e-07
1.23254e-06
-6.39467e-07
1.35503e-06
-6.0718e-07
1.43943e-06
-5.33329e-07
1.48858e-06
-4.32888e-07
1.50941e-06
-3.19699e-07
1.49944e-06
-1.98291e-07
1.46276e-06
-8.84526e-08
1.42715e-06
-1.01113e-08
1.384e-06
6.8252e-08
1.34023e-06
1.12503e-07
1.34857e-06
5.42881e-08
1.39662e-06
-5.33932e-08
1.40183e-06
-1.1767e-07
1.32245e-06
-1.09686e-07
1.17176e-06
-1.14108e-08
9.62381e-07
1.45749e-07
6.81322e-07
3.10395e-07
3.36921e-07
4.66611e-07
-5.62478e-08
6.21191e-07
-5.0221e-07
7.57173e-07
-9.87371e-07
8.69562e-07
-1.45456e-06
9.62963e-07
-1.87316e-06
1.03773e-06
-2.24313e-06
1.0861e-06
-2.55831e-06
1.10831e-06
-2.81533e-06
1.10411e-06
-3.02545e-06
1.07439e-06
-3.2054e-06
1.02569e-06
-3.37017e-06
9.66745e-07
-3.53017e-06
9.04157e-07
-3.69024e-06
8.42285e-07
-3.85165e-06
7.83208e-07
-4.01389e-06
7.27609e-07
-4.17541e-06
6.75009e-07
-4.33426e-06
6.24465e-07
-4.48839e-06
5.74821e-07
-4.63579e-06
5.24973e-07
-4.77453e-06
4.73947e-07
-4.90278e-06
4.20934e-07
-5.01889e-06
3.65325e-07
-5.12142e-06
3.06696e-07
-5.20905e-06
2.447e-07
-5.28031e-06
1.79023e-07
-5.33434e-06
1.09792e-07
-5.37323e-06
3.79868e-08
-5.39179e-06
-3.72828e-08
-5.3903e-06
-1.15301e-07
-5.36923e-06
-1.93647e-07
-5.32797e-06
-2.71224e-07
-5.26505e-06
-3.45961e-07
-5.17819e-06
-4.14755e-07
-5.06425e-06
-4.73511e-07
-4.91938e-06
-5.17727e-07
-4.7395e-06
-5.4385e-07
-4.52005e-06
-5.50752e-07
-4.25815e-06
-5.41645e-07
-3.95721e-06
-5.26767e-07
-3.62902e-06
-5.2204e-07
-3.29397e-06
-5.4255e-07
-2.97796e-06
-5.93347e-07
-2.70365e-06
-6.62854e-07
-2.47526e-06
-7.25873e-07
-2.26769e-06
-7.59435e-07
-2.04369e-06
-7.62128e-07
-1.79054e-06
-7.52299e-07
-1.52818e-06
-7.46025e-07
-1.27388e-06
-7.42287e-07
-1.01879e-06
-7.33268e-07
-7.60314e-07
-7.30702e-07
-5.00205e-07
-7.62319e-07
-2.10863e-07
-8.60058e-07
1.46226e-07
-1.10343e-06
6.38835e-07
-1.41718e-06
1.18307e-06
-1.32273e-06
1.63368e-06
-8.82451e-07
1.97552e-06
-4.53649e-07
2.19544e-06
-1.34646e-07
2.29129e-06
3.84227e-08
2.28598e-06
4.67588e-08
2.2478e-06
-1.09507e-07
2.24233e-06
-3.27251e-07
2.25544e-06
-4.92253e-07
2.22072e-06
-5.33143e-07
2.12997e-06
-1.37811e-07
1.9139e-06
7.35426e-07
1.68453e-06
1.06812e-06
1.35634e-06
7.03213e-07
6.54162e-07
7.50571e-07
-2.17937e-07
1.2156e-06
-9.18635e-07
1.50624e-06
-1.38604e-06
1.54757e-06
-1.70711e-06
1.43664e-06
-1.96379e-06
1.2706e-06
-2.19339e-06
1.10991e-06
-2.41011e-06
9.73053e-07
-2.61828e-06
8.62216e-07
-2.81862e-06
7.73259e-07
-3.01047e-06
7.00659e-07
-3.19277e-06
6.39161e-07
-3.36439e-06
5.84412e-07
-3.52409e-06
5.32996e-07
-3.67056e-06
4.82058e-07
-3.80223e-06
4.29213e-07
-3.91715e-06
3.72526e-07
-4.01306e-06
3.10508e-07
-4.08746e-06
2.42196e-07
-4.13772e-06
1.67173e-07
-4.16123e-06
8.55557e-08
-4.15608e-06
-1.98465e-09
-4.12084e-06
-9.27558e-08
-4.05463e-06
-1.86957e-07
-3.95696e-06
-2.82656e-07
-3.82784e-06
-3.7868e-07
-3.66736e-06
-4.74825e-07
-3.47527e-06
-5.719e-07
-3.25062e-06
-6.71375e-07
-2.99164e-06
-7.74811e-07
-2.69605e-06
-8.82198e-07
-2.36289e-06
-9.88788e-07
-1.99544e-06
-1.08314e-06
-1.60302e-06
-1.15067e-06
-1.1988e-06
-1.18219e-06
-7.95188e-07
-1.17788e-06
-4.04341e-07
-1.13823e-06
-3.86333e-08
-1.06467e-06
2.95024e-07
-9.67638e-07
5.8795e-07
-8.53749e-07
8.42308e-07
-7.4184e-07
1.06351e-06
-6.42068e-07
1.2576e-06
-5.57478e-07
1.42885e-06
-4.85289e-07
1.57938e-06
-4.21608e-07
1.71074e-06
-3.65846e-07
1.8259e-06
-3.22024e-07
1.93085e-06
-2.96928e-07
2.03468e-06
-2.96705e-07
2.14806e-06
-3.22637e-07
2.27984e-06
-3.6758e-07
2.43323e-06
-4.1649e-07
2.60434e-06
-4.52147e-07
2.78428e-06
-4.6238e-07
2.96306e-06
-4.42921e-07
3.13219e-06
-3.95199e-07
3.28498e-06
-3.22468e-07
3.41313e-06
-2.25153e-07
3.50437e-06
-1.00367e-07
3.54716e-06
4.58428e-08
3.55275e-06
1.94555e-07
3.5409e-06
3.35263e-07
3.50855e-06
4.68796e-07
3.42536e-06
5.80357e-07
3.27535e-06
6.39512e-07
3.07399e-06
6.22979e-07
2.85643e-06
5.42176e-07
2.65194e-06
4.33573e-07
2.47258e-06
3.35464e-07
2.31825e-06
2.66454e-07
2.18612e-06
2.2201e-07
2.07491e-06
1.88903e-07
1.98463e-06
1.57891e-07
1.91464e-06
1.2707e-07
1.86319e-06
9.74071e-08
1.82714e-06
7.21271e-08
1.80315e-06
5.09732e-08
1.78755e-06
3.75753e-08
1.77744e-06
2.68743e-08
1.77042e-06
2.69622e-08
1.76421e-06
2.36028e-08
1.75889e-06
3.9182e-08
1.74966e-06
3.77928e-08
1.74384e-06
7.64765e-08
7.4219e-08
1.72336e-06
1.05214e-07
3.89279e-08
2.0309e-07
1.00417e-07
3.69798e-07
-4.3326e-08
6.25309e-07
-2.55382e-07
9.14537e-07
-4.67383e-07
1.17864e-06
-6.26871e-07
1.37825e-06
-7.16502e-07
1.50333e-06
-7.36976e-07
1.56119e-06
-6.97322e-07
1.5672e-06
-6.1319e-07
1.53454e-06
-5.00667e-07
1.47528e-06
-3.7363e-07
1.39679e-06
-2.4121e-07
1.30733e-06
-1.08825e-07
1.20838e-06
1.04975e-08
1.08541e-06
1.12857e-07
9.84199e-07
1.69461e-07
9.54827e-07
1.41874e-07
9.41412e-07
6.77035e-08
8.52643e-07
3.5376e-08
6.40229e-07
9.47438e-08
3.1957e-07
2.10973e-07
-4.62492e-08
3.54408e-07
-4.19559e-07
5.19059e-07
-7.94906e-07
6.85741e-07
-1.16939e-06
8.41094e-07
-1.52634e-06
9.78146e-07
-1.85933e-06
1.09016e-06
-2.16502e-06
1.17525e-06
-2.43341e-06
1.23136e-06
-2.65764e-06
1.26196e-06
-2.8424e-06
1.27086e-06
-2.99417e-06
1.26009e-06
-3.12232e-06
1.23226e-06
-3.23884e-06
1.19091e-06
-3.35465e-06
1.1415e-06
-3.47618e-06
1.08828e-06
-3.60638e-06
1.03436e-06
-3.74555e-06
9.81453e-07
-3.89224e-06
9.29901e-07
-4.04396e-06
8.79322e-07
-4.19773e-06
8.28788e-07
-4.35052e-06
7.7725e-07
-4.49927e-06
7.23574e-07
-4.64119e-06
6.66896e-07
-4.77378e-06
6.06537e-07
-4.89483e-06
5.41979e-07
-5.00241e-06
4.72903e-07
-5.09489e-06
3.99181e-07
-5.17106e-06
3.2087e-07
-5.23022e-06
2.38177e-07
-5.27187e-06
1.51448e-07
-5.29505e-06
6.11611e-08
-5.30077e-06
-3.1555e-08
-5.2899e-06
-1.26178e-07
-5.26223e-06
-2.21311e-07
-5.21801e-06
-3.15442e-07
-5.15711e-06
-4.06865e-07
-5.07838e-06
-4.93486e-07
-4.97909e-06
-5.72802e-07
-4.8547e-06
-6.42115e-07
-4.69955e-06
-6.98997e-07
-4.5082e-06
-7.42109e-07
-4.27722e-06
-7.72619e-07
-4.00876e-06
-7.9523e-07
-3.71351e-06
-8.17289e-07
-3.41026e-06
-8.45802e-07
-3.12063e-06
-8.82978e-07
-2.85907e-06
-9.24411e-07
-2.62357e-06
-9.61371e-07
-2.39738e-06
-9.85626e-07
-2.16428e-06
-9.95228e-07
-1.92153e-06
-9.95054e-07
-1.67585e-06
-9.91698e-07
-1.42943e-06
-9.88708e-07
-1.17428e-06
-9.88417e-07
-9.04608e-07
-1.00038e-06
-6.25401e-07
-1.04153e-06
-3.38619e-07
-1.14684e-06
-6.79946e-08
-1.37405e-06
2.46285e-07
-1.73145e-06
6.5737e-07
-1.73382e-06
1.01049e-06
-1.23558e-06
1.33671e-06
-7.79867e-07
1.62096e-06
-4.1889e-07
1.84449e-06
-1.85107e-07
2.04286e-06
-1.51612e-07
2.20505e-06
-2.71698e-07
2.30643e-06
-4.28629e-07
2.33222e-06
-5.18048e-07
2.15903e-06
-3.5995e-07
1.75432e-06
2.66892e-07
1.41947e-06
1.07028e-06
1.21508e-06
1.27252e-06
6.73984e-07
1.2443e-06
-1.65587e-07
1.59014e-06
-8.61496e-07
1.91151e-06
-1.30189e-06
1.94663e-06
-1.57443e-06
1.82012e-06
-1.77546e-06
1.63767e-06
-1.96066e-06
1.45581e-06
-2.14754e-06
1.29678e-06
-2.33849e-06
1.16401e-06
-2.53089e-06
1.05461e-06
-2.7212e-06
9.63569e-07
-2.90616e-06
8.85622e-07
-3.08316e-06
8.16157e-07
-3.25018e-06
7.51437e-07
-3.4056e-06
6.88419e-07
-3.54797e-06
6.24419e-07
-3.67574e-06
5.56986e-07
-3.78711e-06
4.83895e-07
-3.8799e-06
4.03298e-07
-3.95166e-06
3.13956e-07
-3.99983e-06
2.15347e-07
-4.02181e-06
1.07536e-07
-4.01547e-06
-8.32792e-09
-3.98e-06
-1.28229e-07
-3.91409e-06
-2.52867e-07
-3.81759e-06
-3.79149e-07
-3.69099e-06
-5.05279e-07
-3.53491e-06
-6.30912e-07
-3.34944e-06
-7.57371e-07
-3.13368e-06
-8.87135e-07
-2.88531e-06
-1.02318e-06
-2.60051e-06
-1.167e-06
-2.27588e-06
-1.31342e-06
-1.91273e-06
-1.44629e-06
-1.52043e-06
-1.54297e-06
-1.1143e-06