/*--------------------------------*- C++ -*----------------------------------*\
  =========                 |
  \\      /  F ield         | OpenFOAM: The Open Source CFD Toolbox
   \\    /   O peration     | Website:  https://openfoam.org
    \\  /    A nd           | Version:  7
     \\/     M anipulation  |
\*---------------------------------------------------------------------------*/
FoamFile
{
    version     2.0;
    format      ascii;
    class       volScalarField;
    location    "0.109";
    object      pMean;
}
// * * * * * * * * * * * * * * * * * * * * * * * * * * * * * * * * * * * * * //

dimensions      [0 2 -2 0 0 0 0];

internalField   nonuniform List<scalar> 
12225
(
-2.68461
-1.51164
-1.07324
-0.956799
-0.893552
-0.844748
-0.813161
-0.802482
-0.809427
-0.826699
-0.846859
-0.8644
-0.876326
-0.88344
-0.888116
-0.903232
-0.936445
-1.06358
-2.35479
-1.50041
-1.07732
-0.953412
-0.89479
-0.848803
-0.817375
-0.805617
-0.811277
-0.827267
-0.84647
-0.862927
-0.874799
-0.880351
-0.886882
-0.893493
-0.927808
-0.95988
-2.18706
-1.52065
-1.10162
-0.956229
-0.898037
-0.854226
-0.821799
-0.807394
-0.809897
-0.822927
-0.839476
-0.85465
-0.865632
-0.873174
-0.878682
-0.889349
-0.907479
-0.942977
-1.98929
-1.48541
-1.10162
-0.945892
-0.889883
-0.851486
-0.821092
-0.805582
-0.805943
-0.816757
-0.831766
-0.845961
-0.857561
-0.865829
-0.874019
-0.884147
-0.902213
-0.930294
-1.81964
-1.44929
-1.10763
-0.944067
-0.884864
-0.849905
-0.821617
-0.805183
-0.80318
-0.811771
-0.825021
-0.838511
-0.850019
-0.859733
-0.869013
-0.880792
-0.897529
-0.920708
-1.66388
-1.39672
-1.10167
-0.937181
-0.873481
-0.8416
-0.816909
-0.801044
-0.797603
-0.804418
-0.816487
-0.829564
-0.841573
-0.852427
-0.863242
-0.876188
-0.892604
-0.914032
-1.52066
-1.33303
-1.08651
-0.928534
-0.86069
-0.830785
-0.809985
-0.795746
-0.791545
-0.796895
-0.807876
-0.820686
-0.833208
-0.845242
-0.857533
-0.871616
-0.888493
-0.90925
-1.39221
-1.26162
-1.06134
-0.915647
-0.845516
-0.816363
-0.799124
-0.787259
-0.78318
-0.787635
-0.797971
-0.810819
-0.824041
-0.837279
-0.851026
-0.86646
-0.8843
-0.90549
-1.27485
-1.18574
-1.02659
-0.89706
-0.827668
-0.798736
-0.784558
-0.775694
-0.772763
-0.776994
-0.786957
-0.800026
-0.814166
-0.828769
-0.844086
-0.861011
-0.880131
-0.90228
-1.16141
-1.10594
-0.982561
-0.87157
-0.806249
-0.777904
-0.766244
-0.760513
-0.759475
-0.764312
-0.774472
-0.788016
-0.803152
-0.819165
-0.836114
-0.85466
-0.875293
-0.898728
-1.05353
-1.02393
-0.930552
-0.838763
-0.78031
-0.753652
-0.744285
-0.741757
-0.743287
-0.749464
-0.760328
-0.774703
-0.79107
-0.808643
-0.827303
-0.847539
-0.869727
-0.894498
-0.964058
-0.948116
-0.876537
-0.801921
-0.751674
-0.727927
-0.720764
-0.721063
-0.725296
-0.733356
-0.745438
-0.760841
-0.778438
-0.797501
-0.817778
-0.839595
-0.863218
-0.889187
-0.87453
-0.871553
-0.818483
-0.759631
-0.718443
-0.698817
-0.694302
-0.697496
-0.704587
-0.714953
-0.728715
-0.745547
-0.76461
-0.785254
-0.807158
-0.830542
-0.855547
-0.882648
-0.766106
-0.780175
-0.746124
-0.7036
-0.673434
-0.660054
-0.659486
-0.666279
-0.676997
-0.690525
-0.706764
-0.725582
-0.746493
-0.769027
-0.792848
-0.818023
-0.844581
-0.872851
-0.65735
-0.679057
-0.658735
-0.631795
-0.614249
-0.609289
-0.614325
-0.625649
-0.640595
-0.658044
-0.677706
-0.699441
-0.722916
-0.747795
-0.773778
-0.80088
-0.82906
-0.858573
-0.535695
-0.559178
-0.550348
-0.538816
-0.535436
-0.541235
-0.554076
-0.571619
-0.59212
-0.614615
-0.63869
-0.66418
-0.690895
-0.718651
-0.747211
-0.776535
-0.8065
-0.837191
-0.391262
-0.417254
-0.417933
-0.421052
-0.432867
-0.451629
-0.474712
-0.500525
-0.528169
-0.557109
-0.58698
-0.617553
-0.648627
-0.680069
-0.711731
-0.743606
-0.775624
-0.807924
-0.203285
-0.239421
-0.254312
-0.273369
-0.301549
-0.335611
-0.3719
-0.408693
-0.445484
-0.482188
-0.518747
-0.555083
-0.591073
-0.626674
-0.661819
-0.696528
-0.73066
-0.76423
0.0550967
-0.000657839
-0.0375089
-0.0785754
-0.128176
-0.182229
-0.236392
-0.288809
-0.339236
-0.387916
-0.434963
-0.480324
-0.523882
-0.565648
-0.605713
-0.644328
-0.68163
-0.717863
0.299107
0.237688
0.183266
0.117475
0.0428258
-0.0323784
-0.102737
-0.167371
-0.22759
-0.284733
-0.339396
-0.391645
-0.441378
-0.488619
-0.533454
-0.576053
-0.616491
-0.654956
0.534167
0.461357
0.382635
0.286108
0.182401
0.0833594
-0.00604517
-0.0865597
-0.160418
-0.22903
-0.292723
-0.351541
-0.405786
-0.456077
-0.503033
-0.547235
-0.588972
-0.628568
0.782593
0.684511
0.569211
0.437396
0.308894
0.195946
0.0986914
0.0115409
-0.0698953
-0.146779
-0.218465
-0.284387
-0.344757
-0.400294
-0.451726
-0.49968
-0.544524
-0.586601
1.06006
0.913426
0.738428
0.554881
0.391033
0.25608
0.143956
0.0453268
-0.044768
-0.127222
-0.201785
-0.268858
-0.329555
-0.385204
-0.43674
-0.484715
-0.529349
-0.57099
1.33715
1.14287
0.905413
0.68033
0.500275
0.360423
0.241441
0.130724
0.0268048
-0.0674006
-0.150445
-0.223569
-0.289052
-0.348756
-0.403709
-0.454522
-0.50159
-0.545406
1.61919
1.33664
0.9963
0.714838
0.518528
0.37638
0.253716
0.138644
0.0326835
-0.0611002
-0.142921
-0.215226
-0.280474
-0.340212
-0.395147
-0.445729
-0.492281
-0.535298
1.98829
1.58074
1.13736
0.816866
0.614171
0.4627
0.321893
0.188669
0.0706915
-0.0294849
-0.115038
-0.190342
-0.258281
-0.320216
-0.376804
-0.428643
-0.476301
-0.520424
2.31165
1.67209
1.12152
0.803061
0.622258
0.473636
0.328067
0.192122
0.0746105
-0.0243656
-0.109397
-0.184788
-0.25295
-0.314993
-0.371554
-0.423255
-0.470671
-0.514408
2.82324
1.89498
1.199
0.865314
0.68203
0.516
0.354855
0.211631
0.0914545
-0.00922029
-0.0959834
-0.1729
-0.242185
-0.304976
-0.362038
-0.414057
-0.461738
-0.505733
3.04944
1.85888
1.16279
0.875159
0.694661
0.521369
0.356748
0.213745
0.0944112
-0.0059561
-0.0928021
-0.169851
-0.2392
-0.301958
-0.358963
-0.410815
-0.458299
-0.501843
3.86294
1.90358
1.16285
0.908875
0.716287
0.532043
0.364232
0.220667
0.100822
-0.000198266
-0.0876162
-0.165082
-0.234719
-0.297666
-0.354801
-0.406708
-0.454176
-0.497493
-1.44041
-1.45805
-1.4814
-1.49654
-1.49859
-1.49087
-1.48016
-1.47424
-1.48035
-1.5042
-1.54913
-1.61516
-1.69915
-1.79596
-1.90032
-2.00603
-2.10713
-2.19813
-2.27477
-2.33437
-2.37539
-2.39754
-2.40169
-2.38966
-2.36533
-2.33362
-2.29975
-2.27081
-2.25058
-2.24062
-2.24045
-2.25076
-2.27304
-2.30687
-2.35226
-2.4098
-2.47965
-2.56005
-2.64736
-2.73932
-2.83219
-2.92281
-3.00677
-3.07933
-3.13709
-3.18109
-3.21303
-3.23145
-3.23221
-3.21178
-3.17012
-3.10805
-3.02729
-2.9307
-2.82198
-2.70528
-2.58629
-2.46692
-2.34309
-2.21354
-2.07873
-1.94108
-1.80521
-1.67565
-1.55662
-1.45256
-1.36771
-1.30341
-1.2566
-1.22062
-1.17886
-1.12217
-1.06505
-1.01192
-0.952601
-0.887294
-0.821909
-0.76731
-0.729048
-0.703774
-0.683156
-0.658616
-0.621418
-0.565671
-0.488477
-0.389717
-0.271071
-0.136081
0.0104285
0.162971
0.316222
0.465856
0.608834
0.745129
0.877816
1.00599
1.12846
1.24758
1.36489
1.48055
1.59616
1.71469
1.83776
1.9656
2.0978
2.2339
2.37367
2.51731
2.66535
2.81856
2.9777
3.14332
3.31553
3.49376
3.67662
3.86189
4.04659
4.22725
4.40017
4.56201
4.71033
4.84364
4.96128
5.06326
5.14995
5.22183
5.27928
5.32257
5.35204
5.36831
5.37238
5.36565
5.3498
5.32668
5.29826
5.2663
5.23227
5.19734
5.16239
5.1281
5.09494
5.06322
5.03312
5.00467
4.97781
4.95243
4.92841
4.90563
4.884
4.86345
4.84392
4.8253
4.8074
4.79
4.77284
4.75579
4.73895
4.72294
4.70883
4.69753
4.68915
4.68307
4.67846
4.6747
4.67147
4.66868
4.66637
4.66468
4.66366
4.66347
4.66411
4.66592
4.66888
4.67372
4.68041
4.69046
4.704
4.72362
4.7528
4.78357
-1.52558
-1.54509
-1.57459
-1.59285
-1.59597
-1.58683
-1.57532
-1.56899
-1.5767
-1.60325
-1.65092
-1.71884
-1.80395
-1.90275
-2.00938
-2.11724
-2.2204
-2.31325
-2.39198
-2.45318
-2.49383
-2.51261
-2.51111
-2.49376
-2.46655
-2.43359
-2.39861
-2.36824
-2.34943
-2.3467
-2.36064
-2.38672
-2.42387
-2.47383
-2.53369
-2.6
-2.67507
-2.76158
-2.85211
-2.93985
-3.02919
-3.11656
-3.19722
-3.26697
-3.32373
-3.36883
-3.40048
-3.41735
-3.41486
-3.39007
-3.34312
-3.27574
-3.18998
-3.08862
-2.97574
-2.85583
-2.73446
-2.61247
-2.48611
-2.35565
-2.2214
-2.08447
-1.94817
-1.81776
-1.6975
-1.59083
-1.50188
-1.43223
-1.37974
-1.33721
-1.28815
-1.22227
-1.15846
-1.10255
-1.045
-0.987033
-0.933588
-0.891151
-0.860694
-0.837728
-0.815661
-0.787776
-0.746494
-0.686347
-0.604514
-0.500107
-0.37471
-0.232611
-0.0796844
0.0779745
0.235043
0.387852
0.534167
0.673713
0.80795
0.936576
1.06007
1.18069
1.30037
1.41996
1.54104
1.66546
1.79407
1.92674
2.06293
2.20219
2.3444
2.48989
2.63934
2.7936
2.95354
3.11984
3.2927
3.47168
3.6555
3.84194
4.02801
4.21014
4.38459
4.54794
4.69763
4.83212
4.95077
5.05363
5.14108
5.21374
5.27198
5.31606
5.34629
5.3632
5.36781
5.36151
5.34597
5.32308
5.29487
5.26309
5.22922
5.19444
5.15965
5.12548
5.09242
5.06077
5.0307
5.00228
4.97546
4.95011
4.9261
4.90332
4.88166
4.86109
4.84152
4.82285
4.80492
4.78754
4.77055
4.75381
4.73742
4.72192
4.70833
4.69745
4.68928
4.68322
4.67853
4.67467
4.67135
4.66849
4.66613
4.66438
4.6633
4.66302
4.66357
4.6652
4.66798
4.67244
4.67884
4.68796
4.70093
4.71757
4.74329
4.76125
-1.56145
-1.57526
-1.60108
-1.62413
-1.64214
-1.65548
-1.66926
-1.6897
-1.72253
-1.77094
-1.83544
-1.91463
-2.00602
-2.10607
-2.21063
-2.31568
-2.4156
-2.50495
-2.58009
-2.63728
-2.67382
-2.68983
-2.68639
-2.66698
-2.63725
-2.60328
-2.57093
-2.54564
-2.53238
-2.53514
-2.55625
-2.5951
-2.6478
-2.71075
-2.78321
-2.86526
-2.95452
-3.04939
-3.14816
-3.24746
-3.34369
-3.4333
-3.51504
-3.58754
-3.64938
-3.69816
-3.73043
-3.7437
-3.73639
-3.70735
-3.65607
-3.58313
-3.49026
-3.38064
-3.25913
-3.13181
-3.00533
-2.87908
-2.7498
-2.62003
-2.48961
-2.35664
-2.22159
-2.08725
-1.95836
-1.83974
-1.73468
-1.64451
-1.56825
-1.50192
-1.43473
-1.36347
-1.29998
-1.25
-1.20408
-1.16028
-1.12409
-1.09827
-1.07657
-1.05269
-1.02509
-0.990521
-0.941123
-0.871704
-0.781116
-0.670215
-0.540484
-0.39474
-0.237487
-0.0746429
0.0878722
0.246331
0.398785
0.543303
0.679259
0.80875
0.934605
1.06002
1.18669
1.31549
1.44709
1.58186
1.71965
1.85994
2.00215
2.14599
2.29156
2.43943
2.59052
2.74591
2.90667
3.07369
3.24737
3.42743
3.61272
3.8011
3.98952
4.1743
4.35154
4.51764
4.66987
4.80661
4.92717
5.03173
5.12085
5.19516
5.2551
5.30091
5.33277
5.35114
5.35698
5.35167
5.33692
5.31467
5.287
5.25569
5.22229
5.18797
5.15359
5.11982
5.08711
5.05578
5.02604
4.99791
4.97134
4.9462
4.92237
4.89972
4.8782
4.85774
4.8383
4.81977
4.80204
4.78494
4.76833
4.75217
4.7366
4.72204
4.70918
4.69858
4.69028
4.68392
4.67893
4.6748
4.67125
4.6682
4.66567
4.66374
4.6625
4.66198
4.66228
4.66348
4.66583
4.66943
4.67497
4.68224
4.69319
4.7053
4.72463
4.73445
-1.56038
-1.56793
-1.59149
-1.63265
-1.68406
-1.73933
-1.79749
-1.85975
-1.92775
-2.00195
-2.08216
-2.16845
-2.26097
-2.35835
-2.45852
-2.5591
-2.65587
-2.74284
-2.81453
-2.86693
-2.89833
-2.91091
-2.90768
-2.89218
-2.8689
-2.84321
-2.82052
-2.80627
-2.80453
-2.81964
-2.85168
-2.89871
-2.95875
-3.02992
-3.11073
-3.2006
-3.29872
-3.40288
-3.50988
-3.61685
-3.72062
-3.81766
-3.90648
-3.98649
-4.05524
-4.10994
-4.148
-4.16661
-4.16294
-4.1342
-4.0787
-3.99675
-3.8911
-3.76692
-3.63081
-3.49126
-3.35519
-3.21973
-3.08095
-2.94362
-2.80933
-2.67573
-2.54104
-2.405
-2.26927
-2.13719
-2.01263
-1.899
-1.79829
-1.70915
-1.62522
-1.54573
-1.48059
-1.43219
-1.39121
-1.35479
-1.32758
-1.309
-1.29211
-1.2719
-1.24732
-1.21367
-1.16086
-1.08447
-0.986197
-0.869252
-0.73741
-0.592904
-0.437481
-0.275187
-0.111255
0.0516591
0.210963
0.362341
0.504779
0.641207
0.774895
0.909085
1.04572
1.18539
1.32809
1.47343
1.62076
1.76925
1.91823
2.06738
2.21695
2.36773
2.5209
2.67779
2.8397
3.00771
3.18246
3.36389
3.551
3.74179
3.9332
4.1214
4.3023
4.47205
4.62767
4.76739
4.89063
4.99768
5.08921
5.16596
5.22845
5.27688
5.31129
5.33194
5.33971
5.33601
5.32255
5.30135
5.27456
5.24405
5.21141
5.17781
5.14412
5.11095
5.0788
5.04798
5.01866
4.9909
4.96464
4.93979
4.91623
4.89385
4.87258
4.85237
4.83318
4.81494
4.79755
4.7809
4.76488
4.74944
4.73469
4.72099
4.70886
4.69872
4.69063
4.68426
4.67912
4.67478
4.67102
4.66777
4.66508
4.66298
4.66155
4.66079
4.66078
4.66152
4.66328
4.66599
4.67039
4.67587
4.68424
4.69251
4.7051
4.70762
-1.57968
-1.59176
-1.63321
-1.69612
-1.77486
-1.86229
-1.95259
-2.04456
-2.13999
-2.23802
-2.33731
-2.43792
-2.53945
-2.6401
-2.73976
-2.83944
-2.9365
-3.02448
-3.09772
-3.15151
-3.18497
-3.2004
-3.20135
-3.19222
-3.17789
-3.1632
-3.15285
-3.1512
-3.16176
-3.18721
-3.22841
-3.2844
-3.35341
-3.4341
-3.52528
-3.62578
-3.73379
-3.84671
-3.96193
-4.07637
-4.18645
-4.2892
-4.38286
-4.46618
-4.53743
-4.59446
-4.63473
-4.65521
-4.65251
-4.62318
-4.56469
-4.47663
-4.36127
-4.22342
-4.07005
-3.91142
-3.75459
-3.59551
-3.43391
-3.27689
-3.12686
-2.98227
-2.84163
-2.70322
-2.56608
-2.43064
-2.29879
-2.17284
-2.05536
-1.94769
-1.84956
-1.76223
-1.69042
-1.63613
-1.59441
-1.56053
-1.53486
-1.51625
-1.50008
-1.48181
-1.45955
-1.42713
-1.37354
-1.29648
-1.19959
-1.08495
-0.955203
-0.81167
-0.656569
-0.495217
-0.331968
-0.16797
-0.00523267
0.15158
0.301469
0.446665
0.590371
0.735471
0.883363
1.03433
1.18808
1.34393
1.5009
1.65792
1.81409
1.96902
2.12302
2.2771
2.43273
2.59148
2.75486
2.92412
3.10015
3.28313
3.47231
3.66576
3.86045
4.05245
4.23741
4.41125
4.57077
4.71406
4.84056
4.95069
5.04526
5.12515
5.19094
5.24284
5.28067
5.30444
5.31488
5.3134
5.30178
5.2821
5.25657
5.2272
5.19561
5.16301
5.13022
5.09787
5.06641
5.03618
5.00739
4.98014
4.95438
4.93002
4.90691
4.88496
4.86412
4.84436
4.82565
4.80794
4.79115
4.77518
4.75995
4.74542
4.73169
4.71899
4.70772
4.6982
4.69045
4.6842
4.679
4.67452
4.67058
4.66716
4.6643
4.66204
4.66042
4.65939
4.65904
4.65929
4.6604
4.66219
4.66526
4.66897
4.67451
4.6793
4.68544
4.68273
-1.64174
-1.66279
-1.71803
-1.79644
-1.89068
-1.9935
-2.1001
-2.20972
-2.323
-2.43841
-2.55506
-2.67325
-2.792
-2.90876
-3.0226
-3.13488
-3.24223
-3.33832
-3.41804
-3.47875
-3.52028
-3.54468
-3.55539
-3.55732
-3.55581
-3.55571
-3.5612
-3.576
-3.60295
-3.64374
-3.69894
-3.76784
-3.84936
-3.94245
-4.04564
-4.15727
-4.27509
-4.39644
-4.51827
-4.6373
-4.75033
-4.85482
-4.94906
-5.0317
-5.10124
-5.15575
-5.19281
-5.20946
-5.20219
-5.16735
-5.1022
-5.00582
-4.87962
-4.7279
-4.55734
-4.37856
-4.19747
-4.00842
-3.81489
-3.62673
-3.44792
-3.27927
-3.12057
-2.97061
-2.82746
-2.68929
-2.55522
-2.42573
-2.30231
-2.18726
-2.08269
-1.99115
-1.91555
-1.85754
-1.81425
-1.78129
-1.75615
-1.73702
-1.72054
-1.70122
-1.67488
-1.63536
-1.5753
-1.49765
-1.40819
-1.30612
-1.18718
-1.04833
-0.89263
-0.728806
-0.563564
-0.398588
-0.234431
-0.0735858
0.0831648
0.237393
0.391594
0.547833
0.706987
0.86914
1.03379
1.19997
1.36641
1.53178
1.69503
1.85568
2.01412
2.17161
2.32989
2.49079
2.65598
2.82688
3.00448
3.18922
3.38054
3.57668
3.77461
3.97035
4.15936
4.33736
4.50094
4.64805
4.77814
4.89172
4.98977
5.07325
5.14289
5.1989
5.2409
5.26855
5.28236
5.28374
5.27451
5.25682
5.23296
5.20508
5.1749
5.1436
5.11199
5.08065
5.05005
5.02058
4.99245
4.96576
4.94054
4.91669
4.89411
4.87271
4.85244
4.83327
4.8152
4.79819
4.78219
4.76712
4.7529
4.7395
4.72696
4.71546
4.70524
4.69651
4.68927
4.68327
4.67816
4.67367
4.66967
4.66618
4.66324
4.66087
4.65908
4.65782
4.65712
4.65689
4.65728
4.65814
4.65983
4.66179
4.66459
4.66617
4.66696
4.66001
-1.69716
-1.73248
-1.8007
-1.88903
-1.99104
-2.10149
-2.21771
-2.33968
-2.46804
-2.60113
-2.73701
-2.87389
-3.01021
-3.1442
-3.27576
-3.40569
-3.52975
-3.64201
-3.73787
-3.81499
-3.87357
-3.9153
-3.94358
-3.96379
-3.9815
-4.00189
-4.02926
-4.06677
-4.11642
-4.17899
-4.25413
-4.34065
-4.43725
-4.54245
-4.6548
-4.77286
-4.89489
-5.01877
-5.14196
-5.26169
-5.37521
-5.48025
-5.5753
-5.65898
-5.72941
-5.78426
-5.82092
-5.83605
-5.82584
-5.78675
-5.71609
-5.61227
-5.47597
-5.31043
-5.12193
-4.92006
-4.70806
-4.48158
-4.24944
-4.02351
-3.8094
-3.60936
-3.42449
-3.25422
-3.09651
-2.94879
-2.80877
-2.67532
-2.54873
-2.43066
-2.32379
-2.23077
-2.15396
-2.09434
-2.05033
-2.01893
-1.99658
-1.97968
-1.96374
-1.94216
-1.90918
-1.85969
-1.7912
-1.71145
-1.62633
-1.53382
-1.42561
-1.29342
-1.13859
-0.972185
-0.803564
-0.635673
-0.468896
-0.304045
-0.140956
0.0217545
0.18579
0.352359
0.521969
0.694569
0.869407
1.04521
1.2204
1.3934
1.56305
1.7289
1.89151
2.05239
2.21358
2.37713
2.54478
2.71797
2.89776
3.0847
3.27843
3.47734
3.67848
3.87778
4.07062
4.25259
4.42016
4.57117
4.705
4.82226
4.92399
5.01128
5.08499
5.14543
5.19208
5.22417
5.2419
5.24666
5.24033
5.22507
5.20329
5.17729
5.14885
5.11914
5.08893
5.0588
5.02922
5.00056
4.97311
4.94707
4.92245
4.89923
4.87731
4.85661
4.83708
4.81867
4.80139
4.78526
4.77024
4.75628
4.74331
4.73126
4.72015
4.71009
4.70118
4.69353
4.68705
4.68153
4.67668
4.67232
4.66839
4.66493
4.66197
4.65954
4.65762
4.65614
4.65507
4.65434
4.65401
4.65391
4.65422
4.65446
4.65471
4.65334
4.64978
4.63924
-1.73114
-1.77596
-1.85551
-1.94654
-2.04915
-2.16311
-2.28745
-2.42077
-2.56177
-2.70853
-2.8592
-3.01228
-3.16633
-3.32034
-3.47471
-3.62896
-3.77841
-3.91678
-4.03935
-4.14345
-4.22869
-4.29631
-4.3501
-4.3959
-4.44006
-4.48815
-4.54416
-4.61027
-4.68704
-4.77374
-4.8688
-4.9707
-5.0783
-5.19075
-5.30749
-5.42777
-5.55061
-5.67477
-5.79888
-5.92107
-6.03933
-6.15175
-6.25625
-6.35043
-6.43152
-6.49629
-6.54078
-6.56044
-6.55064
-6.50717
-6.42676
-6.30822
-6.15278
-5.9639
-5.74796
-5.51343
-5.26117
-4.9917
-4.71794
-4.45332
-4.20369
-3.97168
-3.75882
-3.56491
-3.38815
-3.22581
-3.07515
-2.9344
-2.80332
-2.68325
-2.57633
-2.48485
-2.41031
-2.35269
-2.31087
-2.28284
-2.26483
-2.25202
-2.23823
-2.21603
-2.17882
-2.12177
-2.04616
-1.96074
-1.8711
-1.77585
-1.66756
-1.53637
-1.38188
-1.21409
-1.04304
-0.872196
-0.70245
-0.533668
-0.364815
-0.194685
-0.0222644
0.153083
0.331646
0.513229
0.696847
0.880967
1.0637
1.24326
1.41832
1.58854
1.75476
1.91893
2.08339
2.25033
2.42146
2.59802
2.78101
2.97101
3.16783
3.36994
3.57441
3.77716
3.97363
4.15935
4.33079
4.48571
4.62339
4.74441
4.84989
4.94096
5.01865
5.08349
5.1349
5.17169
5.19369
5.20221
5.19919
5.1868
5.16753
5.14381
5.11747
5.08967
5.06112
5.03234
5.00385
4.9761
4.94941
4.92399
4.89997
4.87741
4.85626
4.83643
4.81781
4.80034
4.78403
4.76891
4.75503
4.74235
4.73083
4.72037
4.71094
4.70256
4.69525
4.68899
4.68362
4.67887
4.67451
4.67045
4.66671
4.66337
4.66047
4.65803
4.65601
4.65433
4.65293
4.65169
4.65063
4.64958
4.64855
4.6471
4.64502
4.64097
4.63388
4.62033
-1.76712
-1.81023
-1.88174
-1.96512
-2.06305
-2.1757
-2.30219
-2.44099
-2.59054
-2.7485
-2.91304
-3.08322
-3.25826
-3.43771
-3.62182
-3.80851
-3.99173
-4.16465
-4.32162
-4.45985
-4.57828
-4.67808
-4.76372
-4.84177
-4.91884
-4.99994
-5.08778
-5.18313
-5.28531
-5.39272
-5.5035
-5.61617
-5.73022
-5.84625
-5.96538
-6.0885
-6.21613
-6.34838
-6.48445
-6.62265
-6.7606
-6.89532
-7.02301
-7.13956
-7.24055
-7.32089
-7.37489
-7.39693
-7.38191
-7.32578
-7.22614
-7.08235
-6.89634
-6.67228
-6.41679
-6.13764
-5.83573
-5.51776
-5.1999
-4.89607
-4.61174
-4.34891
-4.10859
-3.8908
-3.69409
-3.51576
-3.35279
-3.20314
-3.06646
-2.94408
-2.83801
-2.74998
-2.68108
-2.63041
-2.59615
-2.57602
-2.5655
-2.55841
-2.54787
-2.52644
-2.48668
-2.42391
-2.34098
-2.24552
-2.14294
-2.03444
-1.91604
-1.77905
-1.62189
-1.45221
-1.27887
-1.1053
-0.932619
-0.760048
-0.586205
-0.410211
-0.231662
-0.0500767
0.134915
0.323086
0.51342
0.704283
0.893538
1.07892
1.25874
1.43266
1.60207
1.76956
1.93785
2.1091
2.28484
2.46614
2.6537
2.84801
3.04883
3.25474
3.46284
3.66917
3.86925
4.05872
4.23406
4.39302
4.53472
4.65961
4.76884
4.86361
4.9451
5.01409
5.07007
5.11149
5.13783
5.15031
5.15088
5.14172
5.12535
5.10429
5.08039
5.05477
5.02805
5.00077
4.97344
4.94657
4.92053
4.89567
4.87224
4.85041
4.8302
4.8115
4.79409
4.77783
4.7627
4.74877
4.73616
4.72495
4.71509
4.70648
4.699
4.69259
4.6872
4.6827
4.67882
4.67522
4.67165
4.66809
4.66469
4.66157
4.65881
4.65641
4.65434
4.65248
4.65074
4.64901
4.64722
4.64522
4.6429
4.63985
4.63567
4.6292
4.61923
4.60314
-1.77606
-1.81063
-1.86724
-1.94116
-2.03387
-2.14448
-2.27188
-2.41487
-2.5719
-2.74074
-2.91972
-3.10805
-3.30568
-3.51275
-3.72866
-3.94984
-4.16927
-4.37904
-4.5734
-4.74956
-4.90607
-5.04404
-5.16811
-5.28435
-5.39847
-5.51452
-5.63418
-5.75714
-5.88182
-6.00652
-6.13022
-6.25297
-6.3759
-6.50106
-6.63121
-6.76911
-6.91627
-7.07266
-7.23674
-7.40574
-7.57593
-7.74263
-7.90061
-8.04431
-8.16756
-8.26349
-8.32517
-8.34635
-8.32201
-8.24841
-8.12299
-7.9452
-7.71752
-7.44493
-7.13546
-6.797
-6.43431
-6.05993
-5.69225
-5.34527
-5.02427
-4.72945
-4.46072
-4.21833
-4.0013
-3.80697
-3.63192
-3.47343
-3.331
-3.20616
-3.10126
-3.01808
-2.95747
-2.91767
-2.89561
-2.88769
-2.88825
-2.88956
-2.88407
-2.86469
-2.82357
-2.75623
-2.6655
-2.55733
-2.43747
-2.30953
-2.17397
-2.02485
-1.86084
-1.6869
-1.5101
-1.33363
-1.15819
-0.982506
-0.805319
-0.626111
-0.444426
-0.259445
-0.070635
0.12189
0.317259
0.513692
0.708699
0.899373
1.08351
1.26086
1.43352
1.60481
1.77762
1.954
2.13533
2.32244
2.51573
2.71539
2.92113
3.13151
3.34374
3.55395
3.75785
3.9512
4.13061
4.29386
4.43987
4.56886
4.68195
4.78037
4.86547
4.93833
4.99851
5.04428
5.07484
5.09132
5.09562
5.08995
5.07682
5.05875
5.03754
5.01424
4.98949
4.96375
4.93753
4.91136
4.88579
4.86134
4.83841
4.81736
4.79834
4.78117
4.76542
4.75073
4.737
4.7244
4.71322
4.70365
4.69571
4.68926
4.68408
4.67998
4.67688
4.67451
4.67253
4.67048
4.66807
4.6653
4.66241
4.65962
4.65706
4.65475
4.65264
4.65062
4.64856
4.64634
4.64385
4.64092
4.63737
4.6328
4.62672
4.61811
4.60574
4.58753
-1.73982
-1.76768
-1.81625
-1.88387
-1.97242
-2.0815
-2.21078
-2.35959
-2.52647
-2.7094
-2.90668
-3.11726
-3.34068
-3.57661
-3.82339
-4.07631
-4.32803
-4.57069
-4.79937
-5.01169
-5.2064
-5.38457
-5.54997
-5.70707
-5.85994
-6.01139
-6.1625
-6.31278
-6.46092
-6.60584
-6.74766
-6.888
-7.02945
-7.17518
-7.32847
-7.49208
-7.66761
-7.85491
-8.05169
-8.25397
-8.45696
-8.65539
-8.84348
-9.01489
-9.16205
-9.2763
-9.34851
-9.37065
-9.33655
-9.24199
-9.08489
-8.86607
-8.58863
-8.25879
-7.88573
-7.47872
-7.04849
-6.61266
-6.19104
-5.79711
-5.4361
-5.10699
-4.80875
-4.54159
-4.30462
-4.09506
-3.90885
-3.74239
-3.5946
-3.46726
-3.36332
-3.28504
-3.23304
-3.20512
-3.19694
-3.20368
-3.21816
-3.23044
-3.23196
-3.21588
-3.1744
-3.1034
-3.00494
-2.88411
-2.74644
-2.5973
-2.44022
-2.27408
-2.09876
-1.91777
-1.73624
-1.55685
-1.37942
-1.20208
-1.02383
-0.844101
-0.661837
-0.475618
-0.28475
-0.0892624
0.109958
0.310942
0.510765
0.70596
0.893995
1.07485
1.25132
1.42715
1.60515
1.78722
1.97469
2.16825
2.36805
2.574
2.78559
3.00121
3.21808
3.43251
3.64038
3.83771
4.0213
4.18901
4.33956
4.47285
4.58992
4.69202
4.78062
4.85709
4.92108
4.97079
5.00534
5.02569
5.03371
5.03162
5.02193
5.00702
4.98862
4.9677
4.94487
4.92054
4.89521
4.86951
4.84417
4.81987
4.79729
4.77711
4.75968
4.74463
4.73106
4.71828
4.70615
4.69505
4.68549
4.67784
4.67216
4.66828
4.66586
4.66456
4.66416
4.66436
4.6647
4.66464
4.66377
4.66209
4.65992
4.65759
4.6553
4.65312
4.65099
4.64882
4.64646
4.64375
4.64058
4.63674
4.63202
4.62604
4.61825
4.60774
4.59335
4.57335
-1.67905
-1.70229
-1.74563
-1.80945
-1.89659
-2.00726
-2.14203
-2.30094
-2.48294
-2.68618
-2.90832
-3.14718
-3.40086
-3.66743
-3.94386
-4.22491
-4.50393
-4.77474
-5.0341
-5.27987
-5.51015
-5.72537
-5.92849
-6.12317
-6.31263
-6.4989
-6.68245
-6.86277
-7.03899
-7.21057
-7.37835
-7.54428
-7.71121
-7.88246
-8.0612
-8.25009
-8.45053
-8.66228
-8.8829
-9.10851
-9.33469
-9.55645
-9.76782
-9.9614
-10.1275
-10.2546
-10.3309
-10.3475
-10.2983
-10.1798
-9.99082
-9.73238
-9.40873
-9.02679
-8.5959
-8.12686
-7.6356
-7.14432
-6.6736
-6.23573
-5.8366
-5.47507
-5.14972
-4.86023
-4.6054
-4.38207
-4.18538
-4.01129
-3.85842
-3.72833
-3.62454
-3.54982
-3.50473
-3.48661
-3.49063
-3.51073
-3.53846
-3.562
-3.57146
-3.55934
-3.51804
-3.44417
-3.33894
-3.20711
-3.05385
-2.88536
-2.70727
-2.52258
-2.33361
-2.14373
-1.95686
-1.77476
-1.5961
-1.41865
-1.24116
-1.06253
-0.880814
-0.694231
-0.502143
-0.304681
-0.102832
0.101319
0.30457
0.50322
0.69472
0.87939
1.06034
1.24131
1.42481
1.61267
1.80645
2.00687
2.21385
2.42687
2.64501
2.8664
3.0882
3.3069
3.5187
3.71995
3.90763
4.07972
4.23481
4.37247
4.49356
4.59935
4.69143
4.77131
4.83867
4.89182
4.92997
4.95391
4.96547
4.96693
4.96071
4.94896
4.93329
4.91465
4.89354
4.87034
4.84557
4.81999
4.79449
4.77003
4.7477
4.72864
4.71327
4.70083
4.68981
4.67917
4.66885
4.65947
4.65189
4.6466
4.64369
4.64295
4.64394
4.64607
4.64896
4.65226
4.65539
4.65772
4.65878
4.65853
4.65731
4.65557
4.65362
4.6516
4.64948
4.64716
4.64449
4.64131
4.63746
4.63275
4.62694
4.61963
4.61031
4.5981
4.58199
4.56048
-1.61116
-1.63156
-1.67295
-1.73609
-1.82497
-1.94139
-2.08711
-2.26267
-2.4672
-2.69822
-2.95225
-3.22545
-3.514
-3.81408
-4.12145
-4.4312
-4.73796
-5.03708
-5.3263
-5.60327
-5.86505
-6.11195
-6.34713
-6.57401
-6.79553
-7.01317
-7.22676
-7.43519
-7.63729
-7.83275
-8.02286
-8.20966
-8.3959
-8.58454
-8.77822
-8.97929
-9.18934
-9.4088
-9.63624
-9.86853
-10.1013
-10.3292
-10.5454
-10.7418
-10.9075
-11.0302
-11.0984
-11.1031
-11.0386
-10.9018
-10.6909
-10.4063
-10.0519
-9.63532
-9.16654
-8.65764
-8.12682
-7.59879
-7.09437
-6.62527
-6.19786
-5.81235
-5.46699
-5.16092
-4.89233
-4.65757
-4.45184
-4.27129
-4.11456
-3.98319
-3.8803
-3.80835
-3.76725
-3.75441
-3.76535
-3.79363
-3.82983
-3.86099
-3.87575
-3.86548
-3.82337
-3.74702
-3.63708
-3.49757
-3.33333
-3.1508
-2.9569
-2.75698
-2.55604
-2.35829
-2.16702
-1.98298
-1.80384
-1.62702
-1.45093
-1.27382
-1.09294
-0.906463
-0.713928
-0.515562
-0.312367
-0.106472
0.098723
0.299741
0.494316
0.682892
0.868418
1.05437
1.24311
1.43663
1.63675
1.8441
2.05819
2.2781
2.50251
2.72941
2.95598
3.17887
3.39457
3.5997
3.79138
3.96763
4.12697
4.26882
4.39383
4.50328
4.59881
4.68184
4.75204
4.80803
4.84922
4.87633
4.89114
4.89596
4.89306
4.88434
4.8712
4.85453
4.83478
4.81231
4.78761
4.76162
4.73554
4.71073
4.68879
4.67117
4.65813
4.6484
4.63995
4.63155
4.62327
4.61601
4.61084
4.60846
4.60899
4.61216
4.61744
4.62401
4.63109
4.63819
4.64469
4.64986
4.65322
4.65469
4.65464
4.65363
4.65211
4.65028
4.64817
4.6457
4.64272
4.63906
4.63455
4.629
4.62216
4.61363
4.60291
4.58921
4.57161
4.54881
-1.55072
-1.56988
-1.61165
-1.67717
-1.77206
-1.8997
-2.06291
-2.26252
-2.49743
-2.76419
-3.05784
-3.37261
-3.70274
-4.04271
-4.38743
-4.73199
-5.07165
-5.40209
-5.72048
-6.02388
-6.31011
-6.57993
-6.83632
-7.08256
-7.32155
-7.55476
-7.78197
-8.00201
-8.2136
-8.41631
-8.6112
-8.79996
-8.98505
-9.16926
-9.35514
-9.54516
-9.7414
-9.94504
-10.1555
-10.3703
-10.5851
-10.7946
-10.9927
-11.1716
-11.3214
-11.4302
-11.4862
-11.4802
-11.4064
-11.2614
-11.0435
-10.7533
-10.3943
-9.97273
-9.49861
-8.98427
-8.44726
-7.91212
-7.39935
-6.92079
-6.48221
-6.08585
-5.73044
-5.41517
-5.13802
-4.89553
-4.68365
-4.49948
-4.34194
-4.21207
-4.11194
-4.04255
-4.00287
-3.99069
-4.00236
-4.03165
-4.06897
-4.10103
-4.11525
-4.10238
-4.05698
-3.97751
-3.86453
-3.72093
-3.55197
-3.36311
-3.16134
-2.95342
-2.7459
-2.54436
-2.35184
-2.1682
-1.99032
-1.81539
-1.64151
-1.46641
-1.28694
-1.10117
-0.908823
-0.71022
-0.506572
-0.300206
-0.0943428
0.107968
0.304816
0.496586
0.685861
0.875916
1.06923
1.26788
1.47361
1.68684
1.9067
2.1321
2.36162
2.59313
2.82389
3.05068
3.27013
3.47899
3.67447
3.85454
4.01769
4.1633
4.29195
4.4049
4.50366
4.58941
4.66181
4.71988
4.76343
4.7932
4.81088
4.81876
4.81893
4.81291
4.80189
4.78671
4.76779
4.74542
4.72017
4.69326
4.66635
4.64133
4.62005
4.60393
4.59303
4.58578
4.57979
4.57367
4.56763
4.56282
4.56056
4.56174
4.56653
4.57459
4.58532
4.5976
4.61014
4.62209
4.63268
4.6412
4.64723
4.6507
4.65204
4.65189
4.65084
4.64923
4.64715
4.64452
4.64121
4.63706
4.63191
4.62555
4.61774
4.60808
4.5961
4.58107
4.56216
4.53825
-1.50273
-1.52207
-1.56654
-1.63771
-1.74351
-1.88841
-2.07627
-2.30822
-2.58265
-2.89453
-3.23695
-3.60208
-3.98248
-4.37133
-4.76256
-5.14987
-5.52653
-5.88615
-6.22521
-6.54161
-6.83439
-7.10484
-7.35684
-7.59464
-7.82196
-8.04102
-8.25229
-8.45494
-8.64763
-8.82956
-9.00147
-9.16518
-9.32312
-9.47831
-9.63339
-9.79085
-9.95273
-10.1215
-10.2973
-10.4781
-10.6602
-10.8386
-11.0076
-11.1604
-11.2882
-11.3801
-11.425
-11.4139
-11.3406
-11.2013
-10.9939
-10.7194
-10.3811
-9.9852
-9.53924
-9.0543
-8.5462
-8.03611
-7.54405
-7.08178
-6.6534
-6.26259
-5.91019
-5.59555
-5.31716
-5.07236
-4.85845
-4.67386
-4.51817
-4.39153
-4.29427
-4.22618
-4.1857
-4.17083
-4.17858
-4.20301
-4.23432
-4.25963
-4.26655
-4.24684
-4.19621
-4.11369
-3.99968
-3.85625
-3.68765
-3.49946
-3.29801
-3.0904
-2.88374
-2.68434
-2.49503
-2.3151
-2.14122
-1.97026
-1.79993
-1.6277
-1.4504
-1.26607
-1.07448
-0.876364
-0.673187
-0.467472
-0.262135
-0.0596924
0.138274
0.331997
0.523854
0.716872
0.913607
1.1161
1.32578
1.54288
1.76656
1.99564
2.22856
2.46317
2.69682
2.92644
3.14873
3.36058
3.55922
3.74247
3.90877
4.05753
4.18935
4.30537
4.40683
4.49456
4.56828
4.62761
4.67279
4.70463
4.72475
4.73527
4.738
4.73414
4.72466
4.71026
4.69131
4.66821
4.64181
4.61377
4.58627
4.56137
4.54082
4.52597
4.51691
4.51184
4.50799
4.50395
4.50021
4.49817
4.49933
4.5048
4.51489
4.52916
4.54673
4.5662
4.58571
4.60377
4.61939
4.63189
4.64096
4.64671
4.64963
4.65045
4.64993
4.64854
4.64646
4.64365
4.64001
4.63537
4.62958
4.62244
4.61371
4.60301
4.58989
4.57366
4.55361
4.52873
-1.46276
-1.4845
-1.53453
-1.61541
-1.73817
-1.90825
-2.1309
-2.40687
-2.73304
-3.10164
-3.50307
-3.92745
-4.36574
-4.80889
-5.24796
-5.67342
-6.07581
-6.44796
-6.78539
-7.08655
-7.35118
-7.58198
-7.78509
-7.96784
-8.13718
-8.29781
-8.45212
-8.6008
-8.74302
-8.87889
-9.00832
-9.13244
-9.25269
-9.37084
-9.48892
-9.6088
-9.73194
-9.86092
-9.99707
-10.1395
-10.2849
-10.4288
-10.5659
-10.6908
-10.7964
-10.8735
-10.9124
-10.9049
-10.8445
-10.7265
-10.5483
-10.31
-10.0149
-9.66877
-9.27837
-8.85281
-8.40443
-7.94957
-7.50583
-7.08428
-6.68752
-6.31872
-5.9828
-5.67982
-5.40905
-5.16905
-4.95847
-4.77685
-4.62433
-4.50088
-4.40578
-4.33771
-4.2953
-4.27635
-4.27725
-4.29155
-4.30986
-4.32123
-4.31581
-4.28705
-4.23132
-4.14715
-4.03451
-3.89497
-3.73204
-3.55101
-3.35789
-3.15905
-2.96076
-2.7689
-2.58697
-2.4142
-2.24712
-2.0822
-1.91687
-1.74855
-1.57427
-1.39214
-1.20218
-1.00551
-0.803994
-0.600133
-0.396454
-0.195074
0.00269528
0.197047
0.390039
0.584544
0.783122
0.987647
1.19926
1.41811
1.64338
1.87382
2.10785
2.34341
2.57799
2.80867
3.0323
3.24583
3.44646
3.63189
3.80047
3.95163
4.08587
4.20412
4.30732
4.39598
4.47004
4.5298