/*--------------------------------*- C++ -*----------------------------------*\
  =========                 |
  \\      /  F ield         | OpenFOAM: The Open Source CFD Toolbox
   \\    /   O peration     | Website:  https://openfoam.org
    \\  /    A nd           | Version:  7
     \\/     M anipulation  |
\*---------------------------------------------------------------------------*/
FoamFile
{
    version     2.0;
    format      ascii;
    class       volScalarField;
    location    "0.109";
    object      pPrime2Mean;
}
// * * * * * * * * * * * * * * * * * * * * * * * * * * * * * * * * * * * * * //

dimensions      [0 4 -4 0 0 0 0];

internalField   nonuniform List<scalar> 
12225
(
3.3181e+06
3.26548e+06
3.21111e+06
3.15861e+06
3.10815e+06
3.05958e+06
3.01278e+06
2.9676e+06
2.92392e+06
2.88157e+06
2.84038e+06
2.80016e+06
2.76068e+06
2.72164e+06
2.68263e+06
2.64301e+06
2.60167e+06
2.55581e+06
3.31814e+06
3.26551e+06
3.21114e+06
3.15864e+06
3.10818e+06
3.05962e+06
3.01282e+06
2.96765e+06
2.92398e+06
2.88164e+06
2.84047e+06
2.80028e+06
2.76084e+06
2.72186e+06
2.68296e+06
2.64355e+06
2.60269e+06
2.55812e+06
3.31823e+06
3.26557e+06
3.21119e+06
3.1587e+06
3.10825e+06
3.0597e+06
3.01291e+06
2.96776e+06
2.92411e+06
2.8818e+06
2.84068e+06
2.80055e+06
2.7612e+06
2.72236e+06
2.68369e+06
2.6447e+06
2.60472e+06
2.5629e+06
3.31834e+06
3.26567e+06
3.21129e+06
3.15881e+06
3.10836e+06
3.05982e+06
3.01306e+06
2.96794e+06
2.92433e+06
2.88207e+06
2.84102e+06
2.80099e+06
2.76178e+06
2.72316e+06
2.68484e+06
2.64648e+06
2.60773e+06
2.56861e+06
3.31847e+06
3.26581e+06
3.21144e+06
3.15896e+06
3.10853e+06
3.06001e+06
3.01328e+06
2.9682e+06
2.92465e+06
2.88247e+06
2.84152e+06
2.80163e+06
2.76262e+06
2.72431e+06
2.68646e+06
2.64888e+06
2.61151e+06
2.57479e+06
3.31867e+06
3.266e+06
3.21163e+06
3.15917e+06
3.10876e+06
3.06028e+06
3.01359e+06
2.96857e+06
2.92509e+06
2.88301e+06
2.8422e+06
2.8025e+06
2.76375e+06
2.72582e+06
2.68855e+06
2.65187e+06
2.61588e+06
2.58119e+06
3.31892e+06
3.26626e+06
3.2119e+06
3.15945e+06
3.10907e+06
3.06062e+06
3.01399e+06
2.96904e+06
2.92566e+06
2.88372e+06
2.84308e+06
2.80361e+06
2.7652e+06
2.72772e+06
2.6911e+06
2.65536e+06
2.62071e+06
2.58771e+06
3.31923e+06
3.26659e+06
3.21223e+06
3.1598e+06
3.10946e+06
3.06107e+06
3.0145e+06
2.96965e+06
2.9264e+06
2.88461e+06
2.84419e+06
2.805e+06
2.76697e+06
2.73e+06
2.69409e+06
2.65931e+06
2.62589e+06
2.59429e+06
3.31965e+06
3.26701e+06
3.21266e+06
3.16025e+06
3.10995e+06
3.06162e+06
3.01514e+06
2.97041e+06
2.9273e+06
2.88571e+06
2.84554e+06
2.80669e+06
2.76908e+06
2.73268e+06
2.6975e+06
2.66364e+06
2.63132e+06
2.6009e+06
3.32017e+06
3.26753e+06
3.21319e+06
3.16081e+06
3.11055e+06
3.0623e+06
3.01593e+06
2.97133e+06
2.9284e+06
2.88704e+06
2.84715e+06
2.80867e+06
2.77153e+06
2.73572e+06
2.70127e+06
2.66829e+06
2.63697e+06
2.60753e+06
3.32091e+06
3.26818e+06
3.21383e+06
3.16148e+06
3.11128e+06
3.06312e+06
3.01687e+06
2.97243e+06
2.92971e+06
2.8886e+06
2.84904e+06
2.81095e+06
2.77431e+06
2.7391e+06
2.70538e+06
2.67322e+06
2.64277e+06
2.61418e+06
3.32159e+06
3.2689e+06
3.21454e+06
3.16221e+06
3.11208e+06
3.06401e+06
3.01789e+06
2.97362e+06
2.9311e+06
2.89026e+06
2.85102e+06
2.81333e+06
2.77715e+06
2.7425e+06
2.70941e+06
2.67794e+06
2.64819e+06
2.62027e+06
3.32252e+06
3.26972e+06
3.21535e+06
3.16305e+06
3.11298e+06
3.06502e+06
3.01904e+06
2.97495e+06
2.93267e+06
2.8921e+06
2.8532e+06
2.81591e+06
2.78021e+06
2.74609e+06
2.71359e+06
2.68276e+06
2.65364e+06
2.6263e+06
3.32377e+06
3.27083e+06
3.21643e+06
3.16416e+06
3.11418e+06
3.06634e+06
3.02054e+06
2.97668e+06
2.93468e+06
2.89446e+06
2.85595e+06
2.81913e+06
2.78396e+06
2.75044e+06
2.71857e+06
2.68839e+06
2.65991e+06
2.63315e+06
3.32538e+06
3.27229e+06
3.21784e+06
3.16561e+06
3.11574e+06
3.06807e+06
3.02249e+06
2.97891e+06
2.93725e+06
2.89743e+06
2.85939e+06
2.82309e+06
2.78851e+06
2.75562e+06
2.72441e+06
2.69489e+06
2.66704e+06
2.64084e+06
3.32739e+06
3.27416e+06
3.21967e+06
3.1675e+06
3.11775e+06
3.07029e+06
3.02498e+06
2.98174e+06
2.94048e+06
2.90111e+06
2.8636e+06
2.82788e+06
2.79391e+06
2.76167e+06
2.73113e+06
2.70225e+06
2.675e+06
2.64935e+06
3.32993e+06
3.2765e+06
3.22197e+06
3.16988e+06
3.12031e+06
3.07309e+06
3.0281e+06
2.98525e+06
2.94443e+06
2.90558e+06
2.86863e+06
2.83351e+06
2.80018e+06
2.76858e+06
2.73867e+06
2.7104e+06
2.68372e+06
2.65856e+06
3.33282e+06
3.27928e+06
3.22476e+06
3.17278e+06
3.12342e+06
3.07649e+06
3.03187e+06
2.98944e+06
2.94912e+06
2.9108e+06
2.87442e+06
2.83991e+06
2.80719e+06
2.77621e+06
2.74689e+06
2.71918e+06
2.69301e+06
2.66831e+06
3.33597e+06
3.28236e+06
3.22792e+06
3.17612e+06
3.12702e+06
3.08042e+06
3.03619e+06
2.99422e+06
2.95439e+06
2.91661e+06
2.88078e+06
2.84684e+06
2.81469e+06
2.78426e+06
2.75548e+06
2.72826e+06
2.70253e+06
2.67823e+06
3.33815e+06
3.2847e+06
3.23043e+06
3.17883e+06
3.12997e+06
3.08366e+06
3.03976e+06
2.99813e+06
2.95867e+06
2.92127e+06
2.88584e+06
2.85229e+06
2.82053e+06
2.79047e+06
2.76203e+06
2.73514e+06
2.7097e+06
2.68565e+06
3.33932e+06
3.28614e+06
3.23205e+06
3.18063e+06
3.13196e+06
3.08586e+06
3.04217e+06
3.00077e+06
2.96155e+06
2.9244e+06
2.88922e+06
2.85591e+06
2.82438e+06
2.79455e+06
2.76632e+06
2.73961e+06
2.71435e+06
2.69045e+06
3.34023e+06
3.28712e+06
3.23318e+06
3.18192e+06
3.13341e+06
3.08746e+06
3.04393e+06
3.0027e+06
2.96365e+06
2.92668e+06
2.89166e+06
2.85852e+06
2.82715e+06
2.79747e+06
2.76938e+06
2.7428e+06
2.71766e+06
2.69386e+06
3.34053e+06
3.28772e+06
3.23395e+06
3.18283e+06
3.13444e+06
3.08861e+06
3.0452e+06
3.00409e+06
2.96516e+06
2.9283e+06
2.89341e+06
2.86038e+06
2.82912e+06
2.79954e+06
2.77155e+06
2.74506e+06
2.71999e+06
2.69626e+06
3.34079e+06
3.28811e+06
3.23446e+06
3.18345e+06
3.13515e+06
3.08942e+06
3.0461e+06
3.00507e+06
2.96623e+06
2.92945e+06
2.89464e+06
2.86169e+06
2.83051e+06
2.801e+06
2.77307e+06
2.74664e+06
2.72162e+06
2.69794e+06
3.34091e+06
3.28833e+06
3.2348e+06
3.18387e+06
3.13565e+06
3.08997e+06
3.04671e+06
3.00575e+06
2.96696e+06
2.93024e+06
2.89549e+06
2.86259e+06
2.83146e+06
2.802e+06
2.77411e+06
2.74772e+06
2.72274e+06
2.69909e+06
3.34079e+06
3.28844e+06
3.23501e+06
3.18414e+06
3.13597e+06
3.09034e+06
3.04713e+06
3.0062e+06
2.96746e+06
2.93078e+06
2.89606e+06
2.8632e+06
2.8321e+06
2.80267e+06
2.77481e+06
2.74844e+06
2.72349e+06
2.69986e+06
3.34071e+06
3.2885e+06
3.23514e+06
3.18432e+06
3.13618e+06
3.09058e+06
3.04739e+06
3.0065e+06
2.96778e+06
2.93112e+06
2.89643e+06
2.86359e+06
2.83251e+06
2.8031e+06
2.77526e+06
2.74891e+06
2.72397e+06
2.70035e+06
3.34068e+06
3.28853e+06
3.23521e+06
3.18442e+06
3.13631e+06
3.09073e+06
3.04756e+06
3.00667e+06
2.96797e+06
2.93133e+06
2.89665e+06
2.86382e+06
2.83276e+06
2.80336e+06
2.77553e+06
2.74919e+06
2.72426e+06
2.70065e+06
3.34067e+06
3.28855e+06
3.23526e+06
3.18448e+06
3.13638e+06
3.09081e+06
3.04764e+06
3.00677e+06
2.96807e+06
2.93144e+06
2.89677e+06
2.86395e+06
2.83289e+06
2.8035e+06
2.77568e+06
2.74935e+06
2.72442e+06
2.70081e+06
3.34066e+06
3.28856e+06
3.23527e+06
3.1845e+06
3.13641e+06
3.09084e+06
3.04768e+06
3.00681e+06
2.96812e+06
2.93149e+06
2.89682e+06
2.864e+06
2.83295e+06
2.80356e+06
2.77574e+06
2.74941e+06
2.72448e+06
2.70088e+06
2.15963e+06
2.15946e+06
2.15912e+06
2.15859e+06
2.15788e+06
2.15699e+06
2.15591e+06
2.15463e+06
2.15317e+06
2.1515e+06
2.14964e+06
2.14758e+06
2.14532e+06
2.14285e+06
2.14019e+06
2.13731e+06
2.13423e+06
2.13095e+06
2.12746e+06
2.12376e+06
2.11986e+06
2.11576e+06
2.11145e+06
2.10694e+06
2.10224e+06
2.09733e+06
2.09222e+06
2.08692e+06
2.08142e+06
2.07574e+06
2.06986e+06
2.0638e+06
2.05755e+06
2.05112e+06
2.04451e+06
2.03773e+06
2.03077e+06
2.02364e+06
2.01634e+06
2.00887e+06
2.00125e+06
1.99346e+06
1.98551e+06
1.97741e+06
1.96916e+06
1.96076e+06
1.95221e+06
1.94352e+06
1.93469e+06
1.92572e+06
1.91662e+06
1.90738e+06
1.89801e+06
1.88852e+06
1.8789e+06
1.86915e+06
1.85929e+06
1.84931e+06
1.83922e+06
1.82901e+06
1.81869e+06
1.80827e+06
1.79774e+06
1.7871e+06
1.77636e+06
1.76553e+06
1.7546e+06
1.74357e+06
1.73245e+06
1.72124e+06
1.70993e+06
1.69854e+06
1.68707e+06
1.67551e+06
1.66387e+06
1.65215e+06
1.64034e+06
1.62847e+06
1.61651e+06
1.60448e+06
1.59238e+06
1.5802e+06
1.56796e+06
1.55565e+06
1.54327e+06
1.53082e+06
1.51832e+06
1.50574e+06
1.49311e+06
1.48042e+06
1.46767e+06
1.45486e+06
1.44199e+06
1.42907e+06
1.4161e+06
1.40308e+06
1.39e+06
1.37688e+06
1.36371e+06
1.35049e+06
1.33722e+06
1.32391e+06
1.31056e+06
1.29716e+06
1.28372e+06
1.27025e+06
1.25673e+06
1.24318e+06
1.22959e+06
1.21596e+06
1.20231e+06
1.18861e+06
1.17489e+06
1.16114e+06
1.14736e+06
1.13355e+06
1.11972e+06
1.10586e+06
1.09198e+06
1.07808e+06
1.06416e+06
1.05022e+06
1.03626e+06
1.02229e+06
1.0083e+06
994300
980288
966267
952238
938203
924163
910120
896075
882031
867990
853953
839921
825898
811885
797883
783896
769925
755971
742039
728128
714243
700384
686555
672758
658995
645269
631582
617937
604337
590784
577282
563832
550439
537104
523832
510625
497486
484420
471429
458517
445688
432946
420295
407740
395285
382935
370697
358578
346584
334725
323012
311462
300099
288962
278138
2.16042e+06
2.16024e+06
2.15989e+06
2.15936e+06
2.15865e+06
2.15775e+06
2.15666e+06
2.15538e+06
2.15391e+06
2.15224e+06
2.15036e+06
2.14829e+06
2.14602e+06
2.14354e+06
2.14086e+06
2.13797e+06
2.13488e+06
2.13158e+06
2.12807e+06
2.12436e+06
2.12045e+06
2.11633e+06
2.112e+06
2.10748e+06
2.10275e+06
2.09783e+06
2.0927e+06
2.08739e+06
2.08187e+06
2.07617e+06
2.07028e+06
2.0642e+06
2.05794e+06
2.05149e+06
2.04487e+06
2.03807e+06
2.0311e+06
2.02395e+06
2.01664e+06
2.00916e+06
2.00152e+06
1.99372e+06
1.98576e+06
1.97765e+06
1.96939e+06
1.96097e+06
1.95242e+06
1.94372e+06
1.93488e+06
1.9259e+06
1.91678e+06
1.90754e+06
1.89816e+06
1.88866e+06
1.87903e+06
1.86928e+06
1.85941e+06
1.84943e+06
1.83933e+06
1.82911e+06
1.81879e+06
1.80836e+06
1.79782e+06
1.78718e+06
1.77644e+06
1.7656e+06
1.75467e+06
1.74363e+06
1.73251e+06
1.72129e+06
1.70999e+06
1.6986e+06
1.68712e+06
1.67556e+06
1.66391e+06
1.65219e+06
1.64038e+06
1.6285e+06
1.61654e+06
1.60451e+06
1.59241e+06
1.58023e+06
1.56799e+06
1.55567e+06
1.54329e+06
1.53084e+06
1.51833e+06
1.50576e+06
1.49313e+06
1.48043e+06
1.46768e+06
1.45487e+06
1.44201e+06
1.42909e+06
1.41611e+06
1.40309e+06
1.39001e+06
1.37689e+06
1.36371e+06
1.35049e+06
1.33723e+06
1.32392e+06
1.31056e+06
1.29717e+06
1.28373e+06
1.27025e+06
1.25673e+06
1.24318e+06
1.22959e+06
1.21597e+06
1.20231e+06
1.18862e+06
1.1749e+06
1.16114e+06
1.14736e+06
1.13356e+06
1.11972e+06
1.10586e+06
1.09198e+06
1.07808e+06
1.06416e+06
1.05022e+06
1.03626e+06
1.02229e+06
1.0083e+06
994300
980289
966268
952239
938203
924163
910120
896076
882032
867990
853953
839922
825898
811885
797884
783896
769925
755972
742039
728128
714243
700384
686555
672758
658995
645269
631582
617937
604337
590784
577282
563832
550439
537104
523832
510624
497486
484419
471428
458516
445687
432945
420294
407738
395283
382933
370695
358574
346579
334718
323003
311449
300078
288924
278050
2.16198e+06
2.16181e+06
2.16145e+06
2.16091e+06
2.16019e+06
2.15928e+06
2.15818e+06
2.15689e+06
2.15539e+06
2.1537e+06
2.15181e+06
2.14972e+06
2.14742e+06
2.14491e+06
2.1422e+06
2.13929e+06
2.13617e+06
2.13284e+06
2.1293e+06
2.12556e+06
2.12161e+06
2.11746e+06
2.1131e+06
2.10854e+06
2.10378e+06
2.09882e+06
2.09367e+06
2.08832e+06
2.08277e+06
2.07704e+06
2.07111e+06
2.065e+06
2.05871e+06
2.05223e+06
2.04558e+06
2.03875e+06
2.03175e+06
2.02458e+06
2.01724e+06
2.00973e+06
2.00207e+06
1.99424e+06
1.98626e+06
1.97812e+06
1.96984e+06
1.96141e+06
1.95283e+06
1.94411e+06
1.93525e+06
1.92625e+06
1.91712e+06
1.90786e+06
1.89846e+06
1.88895e+06
1.8793e+06
1.86954e+06
1.85966e+06
1.84966e+06
1.83954e+06
1.82932e+06
1.81898e+06
1.80854e+06
1.798e+06
1.78735e+06
1.7766e+06
1.76575e+06
1.7548e+06
1.74376e+06
1.73263e+06
1.72141e+06
1.7101e+06
1.6987e+06
1.68721e+06
1.67565e+06
1.664e+06
1.65227e+06
1.64046e+06
1.62857e+06
1.61661e+06
1.60457e+06
1.59246e+06
1.58028e+06
1.56804e+06
1.55572e+06
1.54334e+06
1.53089e+06
1.51837e+06
1.5058e+06
1.49316e+06
1.48046e+06
1.46771e+06
1.4549e+06
1.44203e+06
1.42911e+06
1.41613e+06
1.40311e+06
1.39003e+06
1.37691e+06
1.36373e+06
1.35051e+06
1.33724e+06
1.32393e+06
1.31057e+06
1.29718e+06
1.28374e+06
1.27026e+06
1.25674e+06
1.24319e+06
1.2296e+06
1.21597e+06
1.20231e+06
1.18862e+06
1.1749e+06
1.16115e+06
1.14737e+06
1.13356e+06
1.11973e+06
1.10587e+06
1.09199e+06
1.07809e+06
1.06416e+06
1.05022e+06
1.03626e+06
1.02229e+06
1.0083e+06
994302
980290
966269
952240
938204
924164
910121
896076
882032
867991
853953
839922
825899
811885
797884
783896
769925
755972
742039
728129
714243
700385
686556
672758
658995
645269
631582
617937
604337
590784
577282
563832
550438
537104
523831
510624
497485
484419
471427
458515
445686
432943
420292
407736
395280
382929
370689
358567
346569
334705
322985
311423
300038
288856
277911
2.16434e+06
2.16416e+06
2.1638e+06
2.16325e+06
2.16252e+06
2.16159e+06
2.16047e+06
2.15915e+06
2.15763e+06
2.15591e+06
2.15399e+06
2.15186e+06
2.14952e+06
2.14698e+06
2.14423e+06
2.14127e+06
2.13811e+06
2.13473e+06
2.13115e+06
2.12736e+06
2.12336e+06
2.11916e+06
2.11475e+06
2.11014e+06
2.10533e+06
2.10032e+06
2.09511e+06
2.08971e+06
2.08412e+06
2.07833e+06
2.07236e+06
2.0662e+06
2.05986e+06
2.05334e+06
2.04664e+06
2.03977e+06
2.03272e+06
2.02551e+06
2.01813e+06
2.01059e+06
2.00288e+06
1.99502e+06
1.987e+06
1.97883e+06
1.97052e+06
1.96205e+06
1.95344e+06
1.94469e+06
1.9358e+06
1.92678e+06
1.91762e+06
1.90833e+06
1.89891e+06
1.88937e+06
1.87971e+06
1.86992e+06
1.86002e+06
1.85e+06
1.83987e+06
1.82962e+06
1.81927e+06
1.80882e+06
1.79825e+06
1.78759e+06
1.77683e+06
1.76596e+06
1.75501e+06
1.74396e+06
1.73281e+06
1.72158e+06
1.71026e+06
1.69885e+06
1.68736e+06
1.67578e+06
1.66412e+06
1.65238e+06
1.64057e+06
1.62867e+06
1.61671e+06
1.60466e+06
1.59255e+06
1.58037e+06
1.56811e+06
1.55579e+06
1.5434e+06
1.53095e+06
1.51843e+06
1.50585e+06
1.49321e+06
1.48051e+06
1.46775e+06
1.45494e+06
1.44207e+06
1.42915e+06
1.41617e+06
1.40314e+06
1.39006e+06
1.37693e+06
1.36376e+06
1.35053e+06
1.33726e+06
1.32395e+06
1.31059e+06
1.29719e+06
1.28375e+06
1.27027e+06
1.25676e+06
1.2432e+06
1.22961e+06
1.21598e+06
1.20232e+06
1.18863e+06
1.17491e+06
1.16116e+06
1.14737e+06
1.13357e+06
1.11973e+06
1.10587e+06
1.09199e+06
1.07809e+06
1.06417e+06
1.05023e+06
1.03627e+06
1.02229e+06
1.00831e+06
994304
980292
966271
952241
938205
924165
910122
896077
882033
867992
853954
839923
825899
811886
797884
783897
769926
755972
742039
728129
714243
700385
686556
672758
658995
645269
631582
617937
604337
590784
577282
563832
550438
537104
523831
510624
497485
484418
471426
458514
445684
432941
420289
407732
395275
382923
370681
358556
346555
334686
322959
311386
299982
288766
277751
2.16751e+06
2.16733e+06
2.16695e+06
2.16639e+06
2.16563e+06
2.16468e+06
2.16353e+06
2.16218e+06
2.16063e+06
2.15887e+06
2.1569e+06
2.15473e+06
2.15234e+06
2.14975e+06
2.14694e+06
2.14393e+06
2.1407e+06
2.13726e+06
2.13361e+06
2.12976e+06
2.12569e+06
2.12142e+06
2.11695e+06
2.11227e+06
2.10739e+06
2.10232e+06
2.09704e+06
2.09157e+06
2.08591e+06
2.08006e+06
2.07402e+06
2.0678e+06
2.0614e+06
2.05481e+06
2.04806e+06
2.04112e+06
2.03402e+06
2.02675e+06
2.01932e+06
2.01172e+06
2.00397e+06
1.99606e+06
1.98799e+06
1.97978e+06
1.97141e+06
1.96291e+06
1.95425e+06
1.94546e+06
1.93654e+06
1.92748e+06
1.91828e+06
1.90896e+06
1.89951e+06
1.88994e+06
1.88024e+06
1.87043e+06
1.8605e+06
1.85046e+06
1.8403e+06
1.83003e+06
1.81966e+06
1.80918e+06
1.7986e+06
1.78791e+06
1.77713e+06
1.76625e+06
1.75528e+06
1.74421e+06
1.73305e+06
1.72181e+06
1.71047e+06
1.69905e+06
1.68755e+06
1.67596e+06
1.66429e+06
1.65254e+06
1.64072e+06
1.62881e+06
1.61684e+06
1.60479e+06
1.59267e+06
1.58047e+06
1.56821e+06
1.55588e+06
1.54349e+06
1.53103e+06
1.51851e+06
1.50592e+06
1.49328e+06
1.48057e+06
1.46781e+06
1.45499e+06
1.44212e+06
1.42919e+06
1.41621e+06
1.40318e+06
1.3901e+06
1.37697e+06
1.36379e+06
1.35056e+06
1.33729e+06
1.32397e+06
1.31062e+06
1.29722e+06
1.28377e+06
1.27029e+06
1.25677e+06
1.24322e+06
1.22963e+06
1.216e+06
1.20234e+06
1.18864e+06
1.17492e+06
1.16117e+06
1.14738e+06
1.13357e+06
1.11974e+06
1.10588e+06
1.092e+06
1.0781e+06
1.06417e+06
1.05023e+06
1.03627e+06
1.0223e+06
1.00831e+06
994307
980295
966273
952243
938207
924167
910123
896079
882034
867993
853955
839924
825900
811887
797885
783898
769926
755973
742040
728129
714244
700385
686556
672759
658996
645269
631583
617938
604337
590784
577282
563832
550438
537103
523830
510623
497484
484417
471425
458512
445682
432938
420285
407727
395268
382914
370670
358542
346537
334661
322925
311339
299913
288660
277582
2.17152e+06
2.17132e+06
2.17093e+06
2.17035e+06
2.16957e+06
2.16859e+06
2.1674e+06
2.16601e+06
2.16441e+06
2.1626e+06
2.16057e+06
2.15834e+06
2.15589e+06
2.15323e+06
2.15035e+06
2.14726e+06
2.14395e+06
2.14044e+06
2.13671e+06
2.13277e+06
2.12862e+06
2.12426e+06
2.1197e+06
2.11494e+06
2.10997e+06
2.10481e+06
2.09945e+06
2.09389e+06
2.08815e+06
2.08221e+06
2.07609e+06
2.06979e+06
2.06331e+06
2.05665e+06
2.04981e+06
2.04281e+06
2.03564e+06
2.0283e+06
2.02079e+06
2.01313e+06
2.00531e+06
1.99734e+06
1.98922e+06
1.98095e+06
1.97253e+06
1.96397e+06
1.95527e+06
1.94643e+06
1.93745e+06
1.92834e+06
1.91911e+06
1.90974e+06
1.90025e+06
1.89064e+06
1.88091e+06
1.87106e+06
1.8611e+06
1.85102e+06
1.84083e+06
1.83054e+06
1.82013e+06
1.80963e+06
1.79902e+06
1.78831e+06
1.77751e+06
1.76661e+06
1.75562e+06
1.74453e+06
1.73335e+06
1.72209e+06
1.71074e+06
1.6993e+06
1.68778e+06
1.67618e+06
1.6645e+06
1.65274e+06
1.6409e+06
1.62899e+06
1.617e+06
1.60494e+06
1.59281e+06
1.58061e+06
1.56834e+06
1.556e+06
1.5436e+06
1.53113e+06
1.5186e+06
1.50601e+06
1.49336e+06
1.48065e+06
1.46788e+06
1.45506e+06
1.44218e+06
1.42925e+06
1.41627e+06
1.40323e+06
1.39014e+06
1.37701e+06
1.36383e+06
1.3506e+06
1.33733e+06
1.32401e+06
1.31065e+06
1.29724e+06
1.2838e+06
1.27032e+06
1.2568e+06
1.24324e+06
1.22964e+06
1.21602e+06
1.20235e+06
1.18866e+06
1.17493e+06
1.16118e+06
1.1474e+06
1.13358e+06
1.11975e+06
1.10589e+06
1.09201e+06
1.0781e+06
1.06418e+06
1.05024e+06
1.03628e+06
1.0223e+06
1.00831e+06
994311
980298
966276
952246
938210
924169
910125
896080
882036
867994
853956
839925
825901
811887
797886
783898
769927
755973
742040
728130
714244
700386
686556
672759
658996
645270
631583
617938
604337
590784
577281
563832
550438
537103
523830
510622
497483
484415
471423
458510
445679
432934
420280
407721
395260
382904
370657
358525
346515
334632
322886
311284
299835
288546
277412
2.17637e+06
2.17616e+06
2.17576e+06
2.17515e+06
2.17434e+06
2.17332e+06
2.17209e+06
2.17064e+06
2.16898e+06
2.16711e+06
2.16502e+06
2.1627e+06
2.16017e+06
2.15743e+06
2.15446e+06
2.15128e+06
2.14788e+06
2.14426e+06
2.14043e+06
2.13639e+06
2.13214e+06
2.12767e+06
2.12301e+06
2.11814e+06
2.11306e+06
2.10779e+06
2.10233e+06
2.09667e+06
2.09082e+06
2.08479e+06
2.07857e+06
2.07217e+06
2.06559e+06
2.05884e+06
2.05191e+06
2.04482e+06
2.03756e+06
2.03014e+06
2.02255e+06
2.01481e+06
2.00692e+06
1.99887e+06
1.99068e+06
1.98234e+06
1.97386e+06
1.96523e+06
1.95647e+06
1.94757e+06
1.93854e+06
1.92938e+06
1.92009e+06
1.91067e+06
1.90114e+06
1.89148e+06
1.8817e+06
1.87181e+06
1.86181e+06
1.85169e+06
1.84147e+06
1.83114e+06
1.8207e+06
1.81017e+06
1.79953e+06
1.78879e+06
1.77796e+06
1.76703e+06
1.75602e+06
1.74491e+06
1.73371e+06
1.72242e+06
1.71105e+06
1.6996e+06
1.68806e+06
1.67644e+06
1.66474e+06
1.65297e+06
1.64112e+06
1.62919e+06
1.61719e+06
1.60512e+06
1.59298e+06
1.58077e+06
1.56849e+06
1.55614e+06
1.54373e+06
1.53125e+06
1.51872e+06
1.50612e+06
1.49346e+06
1.48074e+06
1.46797e+06
1.45514e+06
1.44226e+06
1.42932e+06
1.41633e+06
1.40329e+06
1.3902e+06
1.37706e+06
1.36388e+06
1.35064e+06
1.33737e+06
1.32404e+06
1.31068e+06
1.29728e+06
1.28383e+06
1.27034e+06
1.25682e+06
1.24326e+06
1.22967e+06
1.21604e+06
1.20237e+06
1.18868e+06
1.17495e+06
1.16119e+06
1.14741e+06
1.1336e+06
1.11976e+06
1.1059e+06
1.09202e+06
1.07811e+06
1.06419e+06
1.05024e+06
1.03628e+06
1.02231e+06
1.00832e+06
994315
980302
966279
952249
938212
924171
910127
896082
882038
867995
853958
839926
825902
811889
797887
783899
769928
755974
742041
728131
714245
700386
686557
672760
658996
645270
631583
617938
604337
590784
577281
563831
550437
537102
523829
510621
497482
484414
471421
458507
445675
432930
420275
407714
395251
382893
370642
358506
346489
334599
322841
311223
299751
288427
277244
2.18212e+06
2.1819e+06
2.18147e+06
2.18083e+06
2.17998e+06
2.17891e+06
2.17762e+06
2.17611e+06
2.17438e+06
2.17243e+06
2.17025e+06
2.16785e+06
2.16522e+06
2.16237e+06
2.15929e+06
2.15599e+06
2.15248e+06
2.14874e+06
2.14479e+06
2.14062e+06
2.13625e+06
2.13166e+06
2.12686e+06
2.12187e+06
2.11667e+06
2.11127e+06
2.10568e+06
2.0999e+06
2.09393e+06
2.08778e+06
2.08144e+06
2.07493e+06
2.06824e+06
2.06138e+06
2.05435e+06
2.04715e+06
2.03979e+06
2.03227e+06
2.02459e+06
2.01676e+06
2.00878e+06
2.00065e+06
1.99237e+06
1.98395e+06
1.97539e+06
1.96669e+06
1.95786e+06
1.94889e+06
1.9398e+06
1.93057e+06
1.92122e+06
1.91175e+06
1.90216e+06
1.89245e+06
1.88262e+06
1.87268e+06
1.86263e+06
1.85247e+06
1.8422e+06
1.83183e+06
1.82136e+06
1.81078e+06
1.80011e+06
1.78934e+06
1.77848e+06
1.76752e+06
1.75648e+06
1.74534e+06
1.73412e+06
1.72281e+06
1.71141e+06
1.69994e+06
1.68838e+06
1.67674e+06
1.66503e+06
1.65324e+06
1.64137e+06
1.62943e+06
1.61741e+06
1.60533e+06
1.59317e+06
1.58095e+06
1.56866e+06
1.5563e+06
1.54388e+06
1.53139e+06
1.51885e+06
1.50624e+06
1.49357e+06
1.48085e+06
1.46807e+06
1.45523e+06
1.44234e+06
1.4294e+06
1.4164e+06
1.40336e+06
1.39026e+06
1.37712e+06
1.36393e+06
1.35069e+06
1.33741e+06
1.32409e+06
1.31072e+06
1.29731e+06
1.28386e+06
1.27038e+06
1.25685e+06
1.24329e+06
1.22969e+06
1.21606e+06
1.20239e+06
1.1887e+06
1.17497e+06
1.16121e+06
1.14742e+06
1.13361e+06
1.11977e+06
1.10591e+06
1.09203e+06
1.07812e+06
1.06419e+06
1.05025e+06
1.03629e+06
1.02231e+06
1.00832e+06
994320
980307
966283
952253
938216
924174
910130
896084
882040
867997
853959
839927
825904
811890
797888
783900
769929
755975
742042
728131
714246
700387
686558
672760
658997
645270
631583
617938
604338
590784
577281
563831
550437
537102
523828
510620
497480
484412
471419
458504
445671
432925
420268
407706
395241
382880
370626
358484
346461
334562
322792
311158
299662
288306
277081
2.18879e+06
2.18856e+06
2.1881e+06
2.18742e+06
2.18652e+06
2.1854e+06
2.18404e+06
2.18245e+06
2.18063e+06
2.17858e+06
2.1763e+06
2.17378e+06
2.17104e+06
2.16806e+06
2.16486e+06
2.16142e+06
2.15777e+06
2.15389e+06
2.14979e+06
2.14548e+06
2.14095e+06
2.13622e+06
2.13128e+06
2.12613e+06
2.12078e+06
2.11524e+06
2.10951e+06
2.10358e+06
2.09748e+06
2.09118e+06
2.08471e+06
2.07807e+06
2.07125e+06
2.06426e+06
2.05711e+06
2.04979e+06
2.04232e+06
2.03469e+06
2.0269e+06
2.01897e+06
2.01088e+06
2.00265e+06
1.99428e+06
1.98577e+06
1.97713e+06
1.96835e+06
1.95943e+06
1.95039e+06
1.94122e+06
1.93192e+06
1.92251e+06
1.91297e+06
1.90331e+06
1.89354e+06
1.88365e+06
1.87366e+06
1.86356e+06
1.85335e+06
1.84303e+06
1.83262e+06
1.8221e+06
1.81148e+06
1.80077e+06
1.78997e+06
1.77907e+06
1.76808e+06
1.757e+06
1.74583e+06
1.73458e+06
1.72324e+06
1.71182e+06
1.70032e+06
1.68874e+06
1.67708e+06
1.66535e+06
1.65354e+06
1.64165e+06
1.62969e+06
1.61766e+06
1.60556e+06
1.59339e+06
1.58116e+06
1.56885e+06
1.55648e+06
1.54405e+06
1.53155e+06
1.519e+06
1.50638e+06
1.4937e+06
1.48097e+06
1.46818e+06
1.45533e+06
1.44244e+06
1.42949e+06
1.41649e+06
1.40344e+06
1.39034e+06
1.37719e+06
1.36399e+06
1.35075e+06
1.33747e+06
1.32414e+06
1.31077e+06
1.29735e+06
1.2839e+06
1.27041e+06
1.25688e+06
1.24332e+06
1.22972e+06
1.21608e+06
1.20242e+06
1.18872e+06
1.17499e+06
1.16123e+06
1.14744e+06
1.13363e+06
1.11979e+06
1.10592e+06
1.09204e+06
1.07813e+06
1.0642e+06
1.05026e+06
1.0363e+06
1.02232e+06
1.00833e+06
994326
980312
966288
952257
938219
924177
910133
896087
882042
867999
853961
839929
825905
811891
797889
783901
769930
755976
742043
728132
714246
700388
686558
672761
658997
645271
631584
617938
604338
590784
577281
563831
550437
537101
523828
510619
497479
484410
471416
458501
445667
432920
420261
407697
395230
382865
370607
358461
346431
334523
322741
311090
299572
288186
276924
2.19645e+06
2.19619e+06
2.1957e+06
2.19498e+06
2.19402e+06
2.19282e+06
2.19138e+06
2.1897e+06
2.18777e+06
2.18561e+06
2.1832e+06
2.18055e+06
2.17766e+06
2.17453e+06
2.17117e+06
2.16758e+06
2.16376e+06
2.15971e+06
2.15545e+06
2.15096e+06
2.14626e+06
2.14135e+06
2.13624e+06
2.13092e+06
2.12541e+06
2.1197e+06
2.1138e+06
2.10771e+06
2.10144e+06
2.09499e+06
2.08837e+06
2.08157e+06
2.07461e+06
2.06748e+06
2.06019e+06
2.05274e+06
2.04513e+06
2.03738e+06
2.02947e+06
2.02142e+06
2.01322e+06
2.00489e+06
1.99641e+06
1.9878e+06
1.97906e+06
1.97018e+06
1.96118e+06
1.95205e+06
1.9428e+06
1.93343e+06
1.92393e+06
1.91432e+06
1.90459e+06
1.89475e+06
1.88481e+06
1.87475e+06
1.86459e+06
1.85432e+06
1.84395e+06
1.83349e+06
1.82292e+06
1.81226e+06
1.8015e+06
1.79066e+06
1.77972e+06
1.76869e+06
1.75758e+06
1.74638e+06
1.73509e+06
1.72373e+06
1.71228e+06
1.70075e+06
1.68914e+06
1.67746e+06
1.6657e+06
1.65387e+06
1.64197e+06
1.62999e+06
1.61794e+06
1.60583e+06
1.59364e+06
1.58139e+06
1.56907e+06
1.55669e+06
1.54424e+06
1.53173e+06
1.51916e+06
1.50653e+06
1.49384e+06
1.4811e+06
1.4683e+06
1.45545e+06
1.44254e+06
1.42959e+06
1.41658e+06
1.40352e+06
1.39042e+06
1.37726e+06
1.36406e+06
1.35082e+06
1.33753e+06
1.32419e+06
1.31082e+06
1.2974e+06
1.28395e+06
1.27045e+06
1.25692e+06
1.24335e+06
1.22975e+06
1.21611e+06
1.20244e+06
1.18874e+06
1.17501e+06
1.16125e+06
1.14746e+06
1.13364e+06
1.1198e+06
1.10594e+06
1.09205e+06
1.07814e+06
1.06422e+06
1.05027e+06
1.03631e+06
1.02233e+06
1.00834e+06
994332
980317
966293
952261
938223
924181
910136
896090
882045
868002
853963
839931
825907
811893
797891
783903
769931
755977
742044
728133
714247
700388
686559
672761
658998
645271
631584
617939
604338
590785
577281
563831
550436
537101
523827
510618
497477
484408
471413
458497
445663
432914
420254
407687
395218
382850
370588
358436
346399
334481
322687
311020
299481
288068
276774
2.20515e+06
2.20487e+06
2.20434e+06
2.20356e+06
2.20253e+06
2.20124e+06
2.1997e+06
2.1979e+06
2.19585e+06
2.19354e+06
2.19098e+06
2.18816e+06
2.1851e+06
2.1818e+06
2.17825e+06
2.17447e+06
2.17046e+06
2.16622e+06
2.16175e+06
2.15707e+06
2.15217e+06
2.14706e+06
2.14175e+06
2.13624e+06
2.13053e+06
2.12463e+06
2.11854e+06
2.11227e+06
2.10582e+06
2.09919e+06
2.0924e+06
2.08543e+06
2.07831e+06
2.07102e+06
2.06358e+06
2.05598e+06
2.04823e+06
2.04034e+06
2.0323e+06
2.02411e+06
2.01579e+06
2.00734e+06
1.99875e+06
1.99003e+06
1.98118e+06
1.9722e+06
1.9631e+06
1.95388e+06
1.94454e+06
1.93507e+06
1.9255e+06
1.9158e+06
1.906e+06
1.89609e+06
1.88607e+06
1.87594e+06
1.86571e+06
1.85539e+06
1.84496e+06
1.83444e+06
1.82382e+06
1.81311e+06
1.80231e+06
1.79141e+06
1.78043e+06
1.76937e+06
1.75821e+06
1.74697e+06
1.73566e+06
1.72426e+06
1.71278e+06
1.70122e+06
1.68958e+06
1.67788e+06
1.66609e+06
1.65424e+06
1.64231e+06
1.63031e+06
1.61825e+06
1.60611e+06
1.59391e+06
1.58164e+06
1.56931e+06
1.55691e+06
1.54445e+06
1.53192e+06
1.51934e+06
1.5067e+06
1.494e+06
1.48125e+06
1.46844e+06
1.45558e+06
1.44266e+06
1.4297e+06
1.41668e+06
1.40362e+06
1.3905e+06
1.37734e+06
1.36414e+06
1.35089e+06
1.33759e+06
1.32425e+06
1.31087e+06
1.29745e+06
1.28399e+06
1.2705e+06
1.25696e+06
1.24339e+06
1.22979e+06
1.21615e+06
1.20247e+06
1.18877e+06
1.17504e+06
1.16127e+06
1.14748e+06
1.13366e+06
1.11982e+06
1.10595e+06
1.09207e+06
1.07816e+06
1.06423e+06
1.05028e+06
1.03632e+06
1.02234e+06
1.00834e+06
994339
980323
966299
952266
938228
924185
910139
896093
882047
868004
853966
839933
825909
811895
797892
783904
769932
755979
742045
728134
714248
700389
686560
672762
658999
645272
631585
617939
604338
590785
577281
563831
550436
537100
523826
510617
497475
484406
471410
458493
445658
432908
420246
407678
395206
382834
370568
358410
346366
334439
322633
310950
299391
287954
276631
2.21497e+06
2.21466e+06
2.21408e+06
2.21323e+06
2.21211e+06
2.21072e+06
2.20905e+06
2.20711e+06
2.2049e+06
2.20242e+06
2.19967e+06
2.19667e+06
2.1934e+06
2.18989e+06
2.18613e+06
2.18212e+06
2.17788e+06
2.17341e+06
2.16872e+06
2.16381e+06
2.15868e+06
2.15334e+06
2.1478e+06
2.14207e+06
2.13614e+06
2.13002e+06
2.12372e+06
2.11725e+06
2.1106e+06
2.10378e+06
2.09679e+06
2.08964e+06
2.08233e+06
2.07487e+06
2.06726e+06
2.0595e+06
2.05159e+06
2.04355e+06
2.03536e+06
2.02704e+06
2.01858e+06
2.01e+06
2.00128e+06
1.99244e+06
1.98347e+06
1.97439e+06
1.96518e+06
1.95585e+06
1.94641e+06
1.93686e+06
1.92719e+06
1.91741e+06
1.90752e+06
1.89753e+06
1.88743e+06
1.87723e+06
1.86694e+06
1.85654e+06
1.84605e+06
1.83547e+06
1.82479e+06
1.81403e+06
1.80317e+06
1.79223e+06
1.78121e+06
1.77009e+06
1.7589e+06
1.74762e+06
1.73626e+06
1.72483e+06
1.71331e+06
1.70173e+06
1.69006e+06
1.67832e+06
1.66652e+06
1.65463e+06
1.64268e+06
1.63067e+06
1.61858e+06
1.60642e+06
1.5942e+06
1.58191e+06
1.56956e+06
1.55715e+06
1.54467e+06
1.53213e+06
1.51954e+06
1.50688e+06
1.49417e+06
1.4814e+06
1.46858e+06
1.45571e+06
1.44279e+06
1.42981e+06
1.41679e+06
1.40372e+06
1.3906e+06
1.37743e+06
1.36422e+06
1.35096e+06
1.33766e+06
1.32432e+06
1.31093e+06
1.29751e+06
1.28405e+06
1.27055e+06
1.25701e+06
1.24343e+06
1.22982e+06
1.21618e+06
1.20251e+06
1.1888e+06
1.17506e+06
1.1613e+06
1.1475e+06
1.13368e+06
1.11984e+06
1.10597e+06
1.09208e+06
1.07817e+06
1.06424e+06
1.05029e+06
1.03633e+06
1.02235e+06
1.00835e+06
994347
980330
966305
952272
938233
924189
910143
896096
882050
868007
853968
839935
825911
811897
797894
783906
769934
755980
742046
728136
714249
700390
686561
672763
658999
645273
631585
617940
604339
590785
577281
563831
550436
537099
523825
510615
497474
484403
471408
458490
445653
432901
420238
407668
395193
382818
370547
358384
346332
334396
322578
310880
299303
287843
276496
2.226e+06
2.22566e+06
2.22502e+06
2.22408e+06
2.22285e+06
2.22133e+06
2.21951e+06
2.21739e+06
2.21499e+06
2.2123e+06
2.20934e+06
2.2061e+06
2.20259e+06
2.19883e+06
2.19481e+06
2.19054e+06
2.18604e+06
2.18131e+06
2.17635e+06
2.17117e+06
2.16578e+06
2.16018e+06
2.15439e+06
2.14841e+06
2.14223e+06
2.13587e+06
2.12934e+06
2.12264e+06
2.11576e+06
2.10873e+06
2.10153e+06
2.09418e+06
2.08668e+06
2.07902e+06
2.07123e+06
2.06329e+06