/*--------------------------------*- C++ -*----------------------------------*\
  =========                 |
  \\      /  F ield         | OpenFOAM: The Open Source CFD Toolbox
   \\    /   O peration     | Website:  https://openfoam.org
    \\  /    A nd           | Version:  7
     \\/     M anipulation  |
\*---------------------------------------------------------------------------*/
FoamFile
{
    version     2.0;
    format      ascii;
    class       volScalarField;
    location    "0.14";
    object      epsilon;
}
// * * * * * * * * * * * * * * * * * * * * * * * * * * * * * * * * * * * * * //

dimensions      [0 2 -3 0 0 0 0];

internalField   nonuniform List<scalar> 
12225
(
261.514
229.335
202.526
181.49
166.166
155.707
148.933
144.734
142.23
140.786
139.969
139.502
139.214
139.006
138.827
138.64
138.483
139.406
74.4044
97.5831
104.477
109.107
114.649
121.075
127.663
133.858
139.381
144.138
148.136
151.438
154.132
156.312
158.074
159.458
160.742
161.412
31.9472
44.3631
51.5597
56.2988
60.1543
63.8169
67.4458
71.0018
74.4109
77.6105
80.5569
83.2283
85.6221
87.7496
89.6324
91.2896
92.7766
94.04
20.8063
26.6662
31.0981
34.3346
36.8365
38.9658
40.9073
42.7363
44.4803
46.145
47.7257
49.2151
50.6076
51.9008
53.0957
54.1951
55.2055
56.1158
17.0807
19.8448
22.2847
24.2533
25.8334
27.149
28.2898
29.3116
30.2489
31.1225
31.9435
32.717
33.4456
34.1306
34.773
35.374
35.9337
36.4433
15.6188
16.845
18.1013
19.2186
20.1687
20.9748
21.6666
22.2702
22.8066
23.2914
23.7355
24.1459
24.5273
24.8829
25.215
25.5251
25.8136
26.0741
15.0057
15.4484
16.0093
16.5714
17.0867
17.5429
17.9411
18.2879
18.5919
18.861
19.1017
19.3189
19.5165
19.6973
19.8633
20.0162
20.1565
20.2801
14.7446
14.7907
14.9477
15.1533
15.3699
15.578
15.7681
15.9371
16.0857
16.216
16.3304
16.4312
16.5205
16.5999
16.6707
16.734
16.7902
16.8368
14.6329
14.4844
14.4155
14.4004
14.4176
14.4513
14.491
14.5302
14.566
14.5971
14.6232
14.6445
14.6615
14.6746
14.6843
14.691
14.6948
14.6941
14.5847
14.3444
14.156
14.0121
13.9028
13.8189
13.7523
13.6971
13.6494
13.6066
13.567
13.5297
13.4938
13.4591
13.4253
13.3922
13.3597
13.3268
14.5634
14.2814
14.0338
13.8196
13.6355
13.4772
13.3396
13.2187
13.1109
13.0137
12.925
12.8433
12.7675
12.6966
12.63
12.567
12.5074
12.4506
14.5542
14.2552
13.9821
13.7352
13.5137
13.3154
13.1376
12.9775
12.8325
12.7004
12.5795
12.4682
12.3651
12.2692
12.1798
12.0959
12.0172
11.9435
14.5491
14.2419
13.9563
13.6925
13.4503
13.2287
13.0261
12.8408
12.6709
12.5148
12.371
12.2381
12.1148
12.0002
11.8933
11.7933
11.6998
11.6129
14.546
14.2346
13.943
13.6708
13.4177
13.183
12.9656
12.7644
12.5781
12.4055
12.2454
12.0965
11.958
11.8288
11.7081
11.5952
11.4895
11.3917
14.544
14.2306
13.9366
13.6611
13.4033
13.1627
12.9382
12.7289
12.5339
12.352
12.1823
12.0239
11.8758
11.7371
11.6072
11.4854
11.3712
11.2656
14.5428
14.2284
13.9337
13.6572
13.3982
13.1556
12.9287
12.7165
12.5179
12.3322
12.1583
11.9953
11.8425
11.6992
11.5645
11.4379
11.319
11.2089
14.5422
14.2274
13.9327
13.6564
13.3975
13.155
12.9278
12.7152
12.516
12.3293
12.1543
11.9901
11.836
11.6911
11.5548
11.4265
11.3059
11.1941
14.5422
14.2277
13.9334
13.6579
13.3997
13.158
12.9317
12.7198
12.5213
12.3353
12.1608
11.9971
11.8433
11.6986
11.5625
11.4343
11.3138
11.202
14.5433
14.2297
13.9367
13.6624
13.4058
13.1657
12.9411
12.7309
12.5342
12.3499
12.1772
12.0151
11.8628
11.7197
11.5851
11.4583
11.3391
11.2286
14.5456
14.2344
13.9436
13.6717
13.4176
13.1802
12.9585
12.7514
12.5578
12.3768
12.2073
12.0484
11.8994
11.7595
11.6281
11.5044
11.3882
11.2807
14.5493
14.2418
13.9546
13.6865
13.4365
13.2037
12.9871
12.7854
12.5975
12.4224
12.2589
12.1061
11.9633
11.8295
11.704
11.5863
11.4759
11.3739
14.5555
14.2545
13.9745
13.7145
13.4739
13.2519
13.0472
12.8584
12.6839
12.5224
12.3727
12.2336
12.1041
11.9834
11.8708
11.7655
11.667
11.5762
14.567
14.2806
14.0189
13.7811
13.5664
13.3733
13.1996
13.0424
12.8993
12.7685
12.6484
12.5376
12.4351
12.3398
12.2505
12.1666
12.0877
12.0147
14.5931
14.349
14.1441
13.9723
13.8285
13.7083
13.606
13.5165
13.4361
13.3631
13.2958
13.2321
13.1709
13.1117
13.0541
12.9979
12.9433
12.8913
14.6719
14.5671
14.5334
14.5367
14.5582
14.5882
14.6181
14.6434
14.6615
14.6705
14.6701
14.6614
14.6456
14.6241
14.5979
14.5683
14.5365
14.5041
14.9618
15.3045
15.7118
16.0878
16.4099
16.6789
16.8974
17.0641
17.1859
17.272
17.3299
17.3664
17.3868
17.3958
17.3968
17.3925
17.3853
17.3775
16.0826
17.7386
19.068
20.0268
20.7392
21.2728
21.6495
21.9105
22.0916
22.2193
22.3127
22.3858
22.4481
22.5065
22.5654
22.6276
22.6949
22.7681
20.4114
25.6123
28.3433
29.7402
30.5939
31.1247
31.4553
31.6804
31.8649
32.0462
32.2447
32.4712
32.73
33.0215
33.3437
33.6933
34.0667
34.4579
38.6011
49.0461
52.2932
53.1776
53.4519
53.5613
53.7094
54.0125
54.5006
55.1593
55.9633
56.8869
57.9053
58.9956
60.1378
61.3153
62.5171
63.7293
159.121
148.102
138.017
128.818
120.586
113.348
107.09
101.756
97.2566
93.4907
90.3593
87.7705
85.6421
83.9021
82.4885
81.348
80.4357
79.7134
0.373494
0.405109
0.656728
0.906915
1.19532
1.5324
1.9309
2.3474
2.76812
3.18254
3.58302
3.96505
4.32673
4.66801
4.98998
5.2943
5.58284
5.85737
6.11942
6.37018
6.61054
6.84107
7.06211
7.27385
7.47636
7.66972
7.85397
8.02918
8.19537
8.35247
8.50034
8.63884
8.76794
8.88788
8.99909
9.10181
9.19527
9.27719
9.34414
9.39343
9.42492
9.43629
9.39822
9.18651
9.2405
9.35771
40.8254
40.8626
9.62908
9.6721
9.7081
9.67041
41.3855
9.71707
41.7203
41.8433
9.83602
9.70637
9.79994
9.89497
9.96763
42.2543
42.4812
43.6456
44.8891
46.1682
47.4754
48.8068
50.1598
51.5329
52.9244
54.3331
55.7576
57.1967
58.6489
60.1128
61.5869
63.0696
64.5594
66.0545
67.5537
69.0557
70.5599
72.0668
73.5785
75.1005
76.6333
78.1546
79.663
81.1568
82.6339
84.0916
85.5273
86.938
88.321
89.6733
90.9919
92.2738
93.5161
94.7158
95.87
96.9758
98.0304
99.031
99.9748
100.859
101.682
102.441
103.133
103.758
104.312
104.794
105.203
105.538
105.798
105.983
106.091
106.124
106.081
105.963
105.772
105.509
105.175
104.773
104.305
103.774
103.183
102.535
101.835
101.086
100.292
99.4575
98.5871
97.6852
96.7563
95.8052
94.8364
93.8541
92.8626
91.867
90.8705
89.8757
88.8886
87.9119
86.9466
85.9947
85.0626
84.1512
83.2642
82.4253
81.8463
81.5787
81.4078
81.2702
81.1566
81.0702
81.0153
80.9953
81.0126
81.0689
81.165
81.3012
81.4769
81.6907
81.9404
82.2229
82.5339
82.8678
83.2176
83.5744
83.9271
84.2619
84.5612
84.8023
84.9544
84.973
84.7825
84.2318
82.9412
79.872
1.26751
0.777298
0.823922
0.974764
1.1807
1.43326
1.72418
2.03876
2.36265
2.68413
2.99488
3.28986
3.56664
3.82473
4.06485
4.28848
4.49748
4.69379
4.87931
5.0558
5.22478
5.38756
5.54528
5.6989
5.84929
5.99726
6.14361
6.28913
6.43465
6.58098
6.729
6.87969
7.0343
7.19448
7.36244
7.54109
7.73414
7.94661
8.18641
8.46837
8.82205
9.30461
10.0073
10.9642
11.3634
11.7237
12.6667
12.6868
11.7583
12.0842
12.6383
13.4753
14.8915
14.5946
16.2173
16.5434
16.103
16.5856
17.0686
17.6281
18.4435
19.959
20.5107
21.0362
21.5821
22.1279
22.678
23.2333
23.7943
24.361
24.9333
25.5107
26.0929
26.6796
27.2703
27.8645
28.4617
29.0615
29.6634
30.2671
30.8722
31.4786
32.0865
32.6965
33.3099
33.9281
34.5574
35.1845
35.8075
36.4253
37.037
37.6417
38.2384
38.8261
39.4037
39.9701
40.5244
41.0654
41.5921
42.1033
42.598
43.0751
43.5336
43.9724
44.3906
44.7872
45.1611
45.5115
45.8377
46.1386
46.4137
46.6623
46.8838
47.0777
47.2436
47.3813
47.4904
47.5709
47.623
47.6466
47.6422
47.6101
47.5509
47.4653
47.3539
47.2179
47.0581
46.8758
46.6723
46.4487
46.2067
45.9476
45.6731
45.3847
45.0839
44.7725
44.4521
44.1241
43.79
43.4518
43.1105
42.7667
42.4232
42.0808
41.7384
41.3983
41.0639
40.7346
40.4113
40.0992
39.8261
39.6155
39.4447
39.2959
39.1613
39.0381
38.9255
38.8235
38.7318
38.6504
38.579
38.5169
38.4633
38.4171
38.377
38.3412
38.3078
38.2742
38.2375
38.1943
38.1407
38.0721
37.9831
37.8678
37.7191
37.5307
37.2942
37.0195
36.7056
36.7636
2.48851
1.29245
1.20285
1.2839
1.43731
1.63853
1.8745
2.13302
2.40214
2.67147
2.93321
3.18241
3.4166
3.63523
3.83901
4.02946
4.20849
4.37814
4.54041
4.69715
4.85002
5.00046
5.14972
5.2989
5.44896
5.6008
5.75527
5.9132
6.07541
6.24272
6.41596
6.59598
6.78374
6.98039
7.18733
7.40626
7.63905
7.88776
8.15478
8.44343
8.75852
9.10543
9.4843
9.87183
10.1969
10.5075
10.8362
11.1345
11.407
11.7571
12.1423
12.5569
12.9838
13.3509
13.8011
14.187
14.5491
14.9634
15.3806
15.8142
16.2791
16.7747
17.2118
17.6387
18.0665
18.4958
18.9286
19.3657
19.8074
20.2534
20.7036
21.1579
21.6159
22.0775
22.5422
23.01
23.4804
23.9534
24.4286
24.9059
25.3853
25.8668
26.3505
26.8366
27.3254
27.8175
28.3107
28.8021
29.2903
29.7747
30.2545
30.7288
31.1971
31.6584
32.1121
32.5573
32.9932
33.419
33.8339
34.2371
34.6277
35.0049
35.368
35.7162
36.0487
36.3648
36.6637
36.9447
37.2072
37.4506
37.6744
37.8779
38.0608
38.2227
38.3632
38.4821
38.5792
38.6545
38.7079
38.7395
38.7495
38.7383
38.7061
38.6535
38.5811
38.4895
38.3794
38.2517
38.1074
37.9474
37.7728
37.5846
37.384
37.1722
36.9503
36.7195
36.4812
36.2362
35.9856
35.7312
35.4734
35.2119
34.9508
34.6896
34.4285
34.1681
33.91
33.6544
33.4022
33.1556
32.9223
32.7115
32.5212
32.3462
32.1824
32.0277
31.8805
31.7403
31.6065
31.4785
31.3559
31.238
31.124
31.013
30.9038
30.7952
30.6856
30.5732
30.456
30.3317
30.1977
30.0511
29.889
29.7083
29.5063
29.2825
29.04
28.8017
28.6084
28.681
3.72069
1.81425
1.57013
1.58488
1.69259
1.8521
2.04576
2.26145
2.48886
2.71922
2.94577
3.16402
3.37156
3.56769
3.75291
3.92851
4.09619
4.25779
4.41511
4.56985
4.72352
4.87743
5.03272
5.19037
5.35122
5.51602
5.68547
5.86019
6.04077
6.22774
6.42162
6.62286
6.83193
7.04931
7.27553
7.51111
7.75654
8.01219
8.27824
8.55477
8.84172
9.13844
9.44272
9.74975
10.0534
10.3586
10.6691
10.9836
11.303
11.6332
11.9722
12.3186
12.6697
13.0233
13.3868
13.7514
14.1203
14.4983
14.8815
15.2713
15.6683
16.0702
16.4697
16.87
17.2725
17.6781
18.0877
18.5017
18.9203
19.3433
19.7706
20.2021
20.6375
21.0767
21.5193
21.9652
22.4142
22.866
23.3205
23.7775
24.2368
24.6984
25.1621
25.6277
26.0952
26.5636
27.0313
27.4968
27.9594
28.4183
28.8726
29.3218
29.7651
30.2018
30.631
31.0521
31.4642
31.8666
32.2585
32.6392
33.0078
33.3636
33.7059
34.0339
34.3469
34.6442
34.9251
35.189
35.4353
35.6635
35.8729
36.0631
36.2337
36.3844
36.5148
36.6247
36.714
36.7825
36.8304
36.8576
36.8644
36.8511
36.8179
36.7653
36.6939
36.6043
36.4973
36.3734
36.2337
36.0791
35.9105
35.7289
35.5353
35.3311
35.1171
34.8942
34.6642
34.4276
34.1847
33.9388
33.6898
33.4379
33.1849
32.9314
32.6778
32.4247
32.1729
31.9229
31.6755
31.432
31.1955
30.9702
30.757
30.5549
30.3619
30.1767
29.9982
29.8257
29.6584
29.496
29.3377
29.183
29.0312
28.8813
28.7326
28.5838
28.4336
28.2807
28.1235
27.96
27.7884
27.6067
27.4127
27.2048
26.9822
26.7467
26.5051
26.2809
26.1143
26.1264
4.77488
2.25563
1.8833
1.84122
1.90957
2.03395
2.19287
2.37388
2.56775
2.76708
2.96618
3.16114
3.34971
3.53105
3.70538
3.87364
4.03715
4.19741
4.35594
4.51416
4.67335
4.83461
4.99889
5.16701
5.33962
5.51731
5.70055
5.88976
6.08528
6.28741
6.49637
6.71233
6.93542
7.16574
7.40337
7.64835
7.90068
8.16022
8.42678
8.70007
8.97973
9.2653
9.5561
9.85137
10.1507
10.4547
10.7639
11.0784
11.3984
11.7244
12.0564
12.3942
12.7376
13.0869
13.4424
13.8036
14.1707
14.5441
14.9232
15.3081
15.6986
16.094
16.4936
16.8974
17.3057
17.7186
18.1365
18.5595
18.9876
19.4208
19.8588
20.3016
20.7489
21.2004
21.6561
22.1155
22.5785
23.0448
23.5142
23.9864
24.4611
24.9381
25.4171
25.8977
26.3794
26.8607
27.3406
27.818
28.2922
28.7624
29.2278
29.6877
30.1412
30.5877
31.0262
31.456
31.8762
32.2861
32.6849
33.0717
33.4458
33.8063
34.1525
34.4837
34.7991
35.0979
35.3797
35.6436
35.8892
36.1157
36.3228
36.51
36.6768
36.823
36.9482
37.0523
37.135
37.1965
37.2366
37.2555
37.2535
37.2307
37.1876
37.1247
37.0425
36.9416
36.8228
36.6868
36.5346
36.3671
36.1852
35.9901
35.7825
35.5641
35.3356
35.0975
34.8527
34.6015
34.3445
34.0835
33.8191
33.552
33.2834
33.014
32.7443
32.4751
32.207
31.9405
31.6764
31.4155
31.1594
30.9104
30.6696
30.4371
30.2124
29.9946
29.783
29.577
29.3761
29.1797
28.9872
28.7982
28.6118
28.4274
28.2441
28.061
27.8769
27.6907
27.501
27.3064
27.1053
26.8962
26.6778
26.4491
26.2106
25.9655
25.7218
25.5012
25.3356
25.2941
5.57202
2.60491
2.13212
2.04356
2.07923
2.17463
2.30528
2.45834
2.62528
2.79974
2.97695
3.15356
3.32756
3.49801
3.6649
3.82879
3.99066
4.15164
4.31292
4.47564
4.64083
4.8094
4.98212
5.15961
5.3424
5.5309
5.72544
5.92627
6.13357
6.34747
6.56802
6.79525
7.02912
7.26958
7.51656
7.76995
8.02963
8.29545
8.56722
8.84478
9.12796
9.41662
9.71065
10.01
10.3147
10.625
10.9409
11.2627
11.5903
11.924
12.264
12.6103
12.963
13.3222
13.6882
14.0608
14.4401
14.8261
15.2187
15.618
16.0237
16.4358
16.8541
17.2785
17.7091
18.1458
18.5886
19.0375
19.4925
19.9534
20.42
20.8922
21.3697
21.8523
22.3397
22.8316
23.3276
23.8275
24.3309
24.8374
25.3467
25.8583
26.3718
26.8869
27.402
27.9161
28.4282
28.9374
29.4428
29.9437
30.4391
30.9282
31.4101
31.8839
32.3488
32.8039
33.2483
33.681
34.1013
34.5082
34.9009
35.2785
35.6402
35.9853
36.3129
36.6224
36.913
37.1842
37.4352
37.6656
37.8749
38.0625
38.2281
38.3714
38.4921
38.5902
38.6654
38.7178
38.7474
38.7544
38.7391
38.7018
38.643
38.5631
38.4628
38.3427
38.2037
38.0466
37.8723
37.6817
37.4763
37.2568
37.0237
36.7799
36.5257
36.2621
35.9909
35.7128
35.4289
35.1404
34.8484
34.5535
34.2569
33.9594
33.6616
33.3643
33.068
32.7735
32.4813
32.1921
31.907
31.6272
31.3537
31.0871
30.8272
30.5736
30.326
30.084
29.8469
29.6144
29.3859
29.161
28.9389
28.7191
28.5008
28.2831
28.0651
27.8458
27.6239
27.3984
27.1681
26.9319
26.6889
26.439
26.1834
25.9259
25.675
25.4496
25.273
25.1857
6.16223
2.87101
2.31945
2.19303
2.20187
2.2737
2.38165
2.51243
2.65795
2.81259
2.97227
3.13415
3.29642
3.45817
3.61917
3.77973
3.94049
4.10229
4.26602
4.43257
4.60277
4.77733
4.95687
5.14189
5.33281
5.52992
5.73347
5.9436
6.1604
6.38392
6.61414
6.85102
7.09448
7.34442
7.60074
7.86334
8.13209
8.4069
8.68768
8.97435
9.2669
9.56532
9.86966
10.18
10.4965
10.8193
11.1485
11.4842
11.8267
12.176
12.5325
12.8961
13.2671
13.6457
14.0319
14.4258
14.8275
15.237
15.6545
16.0798
16.5129
16.9539
17.4027
17.8592
18.3234
18.7951
19.2743
19.7609
20.2547
20.7555
21.2632
21.7775
22.2981
22.8246
23.3568
23.8943
24.4367
24.9835
25.5343
26.0886
26.646
27.2058
27.7675
28.3304
28.8926
29.4531
30.0109
30.5652
31.1149
31.6591
32.1969
32.7272
33.249
33.7615
34.2635
34.7541
35.2322
35.6969
36.1472
36.5822
37.0008
37.4022
37.7856
38.1499
38.4946
38.8188
39.1217
39.4029
39.6615
39.8972
40.1093
40.2975
40.4614
40.6007
40.7153
40.805
40.8699
40.9098
40.9251
40.9159
40.8826
40.8255
40.7452
40.6424
40.5176
40.3716
40.2055
40.0201
39.8162
39.5949
39.3582
39.1068
38.8417
38.5647
38.2767
37.979
37.6729
37.3596
37.0402
36.7159
36.3878
36.0568
35.7239
35.39
35.0559
34.7223
34.39
34.0596
33.7316
33.4067
33.0856
32.7692
32.4582
32.1533
31.8545
31.5617
31.2747
30.9932
30.7169
30.4452
30.1779
29.9143
29.654
29.3963
29.1405
28.8859
28.6317
28.377
28.1208
27.8622
27.6004
27.3347
27.0646
26.7906
26.5145
26.2404
25.9766
25.739
25.5436
25.4148
6.5664
3.06159
2.4511
2.29461
2.28171
2.33454
2.42438
2.53752
2.6661
2.80497
2.95057
3.10045
3.253
3.40733
3.56313
3.72052
3.87989
4.04184
4.20704
4.37618
4.5499
4.72881
4.91339
5.10408
5.30121
5.50502
5.71571
5.93338
6.15809
6.38986
6.62867
6.87445
7.12714
7.38665
7.65289
7.92579
8.20527
8.4913
8.78384
9.08289
9.38851
9.70076
10.0198
10.3456
10.6786
11.0187
11.3662
11.7213
12.0842
12.4551
12.8341
13.2216
13.6177
14.0225
14.4363
14.8592
15.2913
15.7326
16.1834
16.6435
17.113
17.592
18.0804
18.5782
19.0852
19.6013
20.1264
20.6603
21.2028
21.7536
22.3126
22.8793
23.4535
24.0347
24.6225
25.2164
25.816
26.4207
27.03
27.6432
28.2597
28.8789
29.5
30.1214
30.7412
31.3586
31.9725
32.5819
33.1856
33.7826
34.3718
34.9519
35.522
36.0807
36.6271
37.1599
37.678
38.1804
38.6659
39.1335
39.5822
40.0108
40.4186
40.8045
41.1678
41.5077
41.8235
42.1146
42.3802
42.6199
42.8333
43.0198
43.1793
43.3115
43.4163
43.4937
43.5438
43.5666
43.5624
43.5316
43.4746
43.3918
43.284
43.152
42.9964
42.8177
42.6178
42.3976
42.1579
41.9002
41.6257
41.3357
41.0315
40.7144
40.3859
40.0471
39.6994
39.3441
38.9825
38.6157
38.2449
37.8711
37.4955
37.1188
36.7421
36.3661
35.9915
35.619
35.2492
34.8827
34.5201
34.1619
33.809
33.4616
33.12
32.7844
32.4545
32.1302
31.8112
31.4971
31.1876
30.8821
30.5803
30.2815
29.985
29.6904
29.3968
29.1035
28.8097
28.5148
28.2182
27.9194
27.6186
27.3166
27.0156
26.7199
26.4372
26.1805
25.9604
25.7916
6.80676
3.18547
2.53428
2.35484
2.32466
2.36227
2.43767
2.5368
2.65191
2.77816
2.91235
3.05228
3.19654
3.34429
3.49517
3.64919
3.80658
3.96778
4.13329
4.30366
4.47943
4.66108
4.84907
5.04376
5.24546
5.45439
5.67075
5.89464
6.12614
6.36526
6.61201
6.86635
7.12825
7.39765
7.6745
7.95878
8.25045
8.54952
8.85601
9.16997
9.4915
9.82072
10.1578
10.5028
10.8561
11.2177
11.588
11.9671
12.3554
12.7529
13.1601
13.5772
14.0043
14.4418
14.8898
15.3484
15.818
16.2985
16.7901
17.2928
17.8067
18.3319
18.8682
19.4156
19.9739
20.5431
21.1229
21.7131
22.3134
22.9235
23.5431
24.1718
24.8092
25.4547
26.1078
26.768
27.4347
28.1072
28.7848
29.4667
30.1522
30.8404
31.5304
32.2191
32.9055
33.5884
34.2667
34.9391
35.6044
36.2613
36.9085
37.5448
38.1687
38.779
39.3744
39.9536
40.5154
41.0585
41.5818
42.084
42.564
43.0208
43.4532
43.8604
44.2415
44.5957
44.9224
45.2208
45.4905
45.731
45.9417
46.1223
46.2727
46.3928
46.4826
46.5421
46.5715
46.571
46.5411
46.4822
46.3949
46.2796
46.1375
45.9695
45.7765
45.5593
45.3194
45.0579
44.776
44.475
44.1564
43.8215
43.4717
43.1084
42.7331
42.3472
41.952
41.5489
41.1392
40.7243
40.3052
39.8833
39.4595
39.0348
38.6102
38.1866
37.7646
37.345
36.9284
36.5154
36.1064
35.7021
35.3029
34.9091
34.5212
34.1391
33.7629
33.3923
33.0272
32.6673
32.3121
31.9614
31.6146
31.2712
30.9307
30.5925
30.2559
29.9204
29.5854
29.2503
28.915
28.5792
28.2434
27.909
27.5782
27.2555
26.9478
26.6659
26.4157
26.2068
6.90566
3.25189
2.57655
2.38068
2.33713
2.36264
2.42646
2.51436
2.61863
2.73464
2.8594
2.99093
3.12794
3.26966
3.41573
3.56609
3.7209
3.88047
4.04522
4.2156
4.39208
4.57511
4.76511
4.96243
5.16738
5.38022
5.60114
5.8303
6.06781
6.31373
6.5681
6.83094
7.10227
7.38207
7.67035
7.96713
8.27243
8.58631
8.90882
9.24007
9.58019
9.92933
10.2877
10.6555
11.0329
11.4202
11.8177
12.2256
12.6442
13.0738
13.5147
13.9672
14.4316
14.9081
15.397
15.8984
16.4126
16.9397
17.4799
18.0331
18.5995
19.179
19.7716
20.3772
20.9956
21.6266
22.27
22.9254
23.5926
24.2712
24.9606
25.6605
26.3703
27.0894
27.8172
28.553
29.296
30.0454
30.8004
31.56
32.3234
33.0896
33.8557
34.6193
35.3794
36.1347
36.8839
37.6254
38.3577
39.0795
39.7892
40.4854
41.1665
41.8312
42.4778
43.1051
43.7115
44.2959
44.8567
45.3929
45.9032
46.3863
46.8411
47.2666
47.6621
48.0268
48.36
48.6611
48.9297
49.1653
49.3675
49.536
49.6708
49.772
49.8396
49.874
49.8754
49.8441
49.781
49.6865
49.5615
49.4068
49.2234
49.0125
48.775
48.5122
48.2254
47.9159
47.5851
47.2345
46.8654
46.4794
46.078
45.6627
45.235
44.7964
44.3483
43.8922
43.4295
42.9615
42.4895
42.0146
41.5381
41.0609
40.5841
40.1085
39.6348
39.1639
38.6964
38.2327
37.7734
37.3189
36.8697
36.4261
35.9884
35.5565
35.1306
34.7105
34.2961
33.887
33.483
33.0836
32.6884
32.297
31.9089
31.5235
31.1403
30.7589
30.3787
29.9996
29.6214
29.2444
28.8693
28.4976
28.1321
27.777
27.4383
27.1252
26.8403
26.5901
6.88487
3.26989
2.58519
2.37885
2.3254
2.3414
2.39592
2.47469
2.57009
2.67762
2.79445
2.91873
3.04929
3.18542
3.32676
3.47324
3.62497
3.78223
3.94537
4.11482
4.29101
4.47438
4.66536
4.86432
5.07161
5.28753
5.51233
5.74622
5.98938
6.24194
6.50401
6.77567
7.05701
7.34808
7.64895
7.9597
8.2804
8.61116
8.95211
9.30338
9.66515
10.0376
10.421
10.8156
11.2216
11.6394
12.0691
12.5112
12.966
13.4338
13.9148
14.4095
14.9182
15.4411
15.9784
16.5305
17.0975
17.6795
18.2768
18.8893
19.517
20.16
20.818
21.491
22.1787
22.881
23.5973
24.3275
25.071
25.8274
26.596
27.3765
28.1679
28.9698
29.7812
30.6014
31.4294
32.2643
33.105
33.9505
34.7996
35.6506
36.4988
37.343
38.1821
39.0146
39.8387
40.6529
41.4553
42.2443
43.0182
43.7754
44.5143
45.233
45.9302
46.604
47.2532
47.8761
48.4715
49.038
49.5744
50.0792
50.5511
50.9893
51.393
51.7615
52.0943
52.3908
52.6506
52.8736
53.0594
53.2074
53.318
53.3916
53.4285
53.4291
53.3938
53.3235
53.2188
53.0806
52.9099
52.7077
52.4751
52.2136
51.9242
51.6083
51.2675
50.9032
50.5168
50.11
49.6844
49.2414
48.7827
48.31
47.8247
47.3285
46.8228
46.3092
45.7892
45.2639
44.7349
44.2033
43.6703
43.137
42.6043
42.0732
41.5445
41.0189
40.4969
39.9793
39.4663
38.9585
38.4562
37.9596
37.469
36.9844
36.5059
36.0334
35.5666
35.1054
34.6494
34.1983
33.7516
33.3089
32.8698
32.4337
32.0004
31.5694
31.1404
30.7133
30.2883
29.8658
29.4469
29.0334
28.6281
28.2351
27.86
27.5102
27.1862
26.8928
6.76514
3.2479
2.56691
2.35549
2.29525
2.30397
2.35103
2.42234
2.51039
2.61081
2.72089
2.83888
2.9637
3.09468
3.2315
3.37408
3.52255
3.67715
3.83823
4.00622
4.18157
4.36473
4.55617
4.75632
4.96558
5.18433
5.4129
5.6516
5.90067
6.16035
6.43083
6.7123
7.00491
7.30881
7.62415
7.95109
8.28976
8.64035
9.00303
9.37802
9.76554
10.1658
10.5792
11.0058
11.4461
11.9004
12.369
12.8522
13.3504
13.864
14.3932
14.9385
15.5001
16.0783
16.6735
17.2857
17.9152
18.5622
19.2266
19.9086
20.6081
21.3249
22.0589
22.8098
23.5773
24.3611
25.1608
25.9758
26.8056
27.6496
28.5071
29.3775
30.2598
31.1532
32.0568
32.9697
33.8906
34.8186
35.7524
36.6907
37.6322
38.5705
39.5043
40.4323
41.3528
42.2642
43.1646
44.0517
44.9237
45.7787
46.6149
47.4305
48.2237
48.9927
49.7357
50.451
51.137
51.7922
52.4151
53.0044
53.5593
54.0778
54.5581
54.9999
55.4024
55.7652
56.0876
56.3694
56.6102
56.8099
56.9684
57.0858
57.1622
57.1983
57.1945
57.1515
57.0701
56.951
56.7954
56.6044
56.379
56.1206
55.8305
55.5101
55.161
54.7847
54.3827
53.9567
53.5083
53.0392
52.5512
52.0458
51.5248
50.9898
50.4425
49.8844
49.3172
48.7424
48.1615
47.5758
46.9866
46.3953
45.803
45.2108
44.6196
44.0305
43.4441
42.8612
42.2825
41.7083
41.1393
40.5756
40.0177
39.4657
38.9199
38.3802
37.8467
37.3192
36.7976
36.2817
35.7711
35.2654
34.7644
34.2675
33.7744
33.2846
32.7979
32.3139
31.8326
31.3539
30.8783
30.4064
29.9395
29.4797
29.0298
28.594
28.1772
27.7859
27.4189
27.0801
6.56592
3.19362
2.52761
2.31602
2.25185
2.2553
2.29655
2.36182
2.44383
2.53835
2.64276
2.75543
2.87532
3.00181
3.13463
3.27371
3.41919
3.57133
3.73051
3.89718
4.07183
4.25498
4.44714
4.64884
4.86057
5.0828
5.31597
5.5605
5.81675
6.08509
6.36581
6.65922
6.96558
7.28517
7.61822
7.96498
8.32571
8.70065
9.09007
9.49424
9.91345
10.348
10.7982
11.2644
11.747
12.2463
12.7626
13.2963
13.8477
14.4173
15.0054
15.6122
16.2381
16.8833
17.548
18.2325
18.9368
19.6609
20.4051
21.169
21.9528
22.756
23.5782
24.4191
25.2782
26.1552
27.0494
27.9601
28.8868
29.8285
30.7845
31.7538
32.7356
33.7287
34.7321
35.7446
36.7651
37.792
38.8242
39.8602
40.8928
41.9195
42.939
43.9495
44.9496
45.9374
46.911
47.8666
48.8027
49.7175
50.6091
51.4754
52.3146
53.1247
53.9038
54.6503
55.3625
56.0386
56.6774
57.2774
57.8375
58.3561
58.8322
59.2649
59.6537
59.9979
60.2974
60.5517
60.7609
60.9249
61.044
61.1184
61.1486
61.1353
61.0793
60.9815
60.8428
60.6645
60.4478
60.1939
59.9044
59.5807
59.2244
58.8371
58.4205
57.9764
57.5064
57.0124
56.496
55.9592
55.4037
54.8313
54.2436
53.6425
53.0296
52.4066
51.775
51.1363
50.4921
49.8437
49.1925
48.5396
47.8863
47.2336
46.5824
45.9337
45.2882
44.6467
44.0096
43.3775
42.7508
42.1297
41.5146
40.9057
40.3029
39.7065
39.1162
38.532
37.9537
37.3811
36.8138
36.2514
35.6937
35.1403
34.5906
34.0445
33.5016
32.9618
32.4251
31.8916
31.362
30.8371
30.3185
29.8084
29.3098
28.8267
28.3637
27.9264
27.5129
27.1268
6.30522
3.11391
2.47246
2.26513
2.19975
2.19991
2.23697
2.29768
2.37504
2.46498
2.56503
2.67361
2.78978
2.91297
3.04292
3.17961
3.32318
3.47395
3.63235
3.79888
3.97409
4.15858
4.35299
4.55792
4.77399
5.00181
5.24196
5.49499
5.76143
6.04176
6.33647
6.64598
6.97073
7.3111
7.66749
8.04026
8.42978
8.8364
9.26048
9.70238
10.1625
10.6411
11.1386
11.6555
12.1919
12.7484
13.3252
13.9228
14.5413
15.1812
15.8427
16.5261
17.2315
17.9591
18.709
19.4814
20.2761
21.0931
21.9323
22.7936
23.6768
24.5814
25.5061
26.4507
27.4147
28.3974
29.398
30.4157
31.4495
32.4986
33.5618
34.6381
35.7264
36.8254
37.934
39.0506
40.1742
41.3027
42.4352
43.5624
44.6819
45.792
46.891
47.977
49.0479
50.1017
51.136
52.1483
53.1363
54.098
55.0313
55.934
56.8043
57.6401
58.4396
59.2011
59.9227
60.6031
61.2408
61.8343
62.3827
62.8847
63.3393
63.746
64.104
64.4132
64.6732
64.8841
65.0459
65.1589
65.2236
65.2406
65.2105
65.1344
65.0131
64.848
64.6402
64.3913
64.1026
63.7758
63.4126
63.0146
62.5837
62.1218
61.6306
61.112
60.568
60.0005
59.4114
58.8024
58.1756
57.5327
56.8755
56.2057
55.5251
54.8353
54.1377
53.434
52.7256
52.0138
51.2999
50.5851
49.8705
49.157
48.4457
47.7373
47.0326
46.3322
45.6366
44.9462
44.2615
43.5827
42.9099
42.2434
41.5831
40.929
40.2811
39.6392
39.0031
38.3726
37.7473
37.1268
36.5108
35.899
35.291
34.6866
34.0854
33.4875
32.8929
32.3021
31.7158
31.135
30.5616
29.9978
29.4468
28.9127
28.3997
27.913
27.4503
27.015
6.00021
3.0155
2.40617
2.20706
2.14314
2.14216
2.17696
2.23495
2.30949
2.39674
2.49435
2.60085
2.71537
2.83742
2.96683
3.10349
3.24762
3.39959
3.55993
3.7292
3.90808
4.09727
4.29753
4.50961
4.7343
4.97235
5.22453
5.49158
5.77421
6.07311
6.38893
6.72232
7.07388
7.44417
7.83375
8.24315
8.67286
9.12338
9.59516
10.0887
10.6043
11.1425
11.7036
12.2881
12.8962
13.5282
14.1846
14.8654
15.571
16.3015
17.0571
17.8377
18.6435
19.4744
20.3302
21.2108
22.116
23.0453
23.9986
24.9751
25.9744
26.9958
28.0382
29.1009
30.183
31.2836
32.4016
33.5359
34.6854
35.8489
37.0251
38.2128
39.4107
40.6174
41.8316
43.0518
44.2768
45.5023
46.7192
47.9257
49.1199
50.2998
51.4633
52.6083
53.7327
54.8341
55.9102
56.9588
57.9774
58.964
59.9163
60.8325
61.7104
62.5483
63.3442
64.0966
64.8038
65.4644
66.0771
66.6408
67.1543
67.6168
68.0275
68.386
68.6919
68.945
69.1454
69.2932
69.3889
69.4329
69.426
69.369
69.2629
69.109
68.9084
68.6628
68.3736
68.0425
67.6712
67.2617
66.8157
66.3353
65.8224
65.2791
64.7073
64.1092
63.4867
62.8419
62.1767
61.493
60.7928
60.0779
59.3501
58.6111
57.8625
57.106
56.343
55.575
54.8034
54.0293
53.2541
52.4787
51.7043
50.9316
50.1617
49.3951
48.6326
47.8747
47.1218
46.3744
45.6328
44.8971
44.1674
43.4439
42.7266
42.0153
41.31
40.6104
39.9164
39.2277
38.5439
37.8648
37.1898
36.5188
35.8514
35.1873
34.5266
33.8691
33.2151
32.5651
31.9201
31.2813
30.6507
30.0308
29.4249
28.837
28.2711
27.7325
27.2185
26.733
5.6888
2.91093
2.33379
2.14496
2.08497
2.08543
2.12063
2.1787
2.2534
2.3411
2.43961
2.5476
2.66423
2.7891
2.92205
3.06316
3.21272
3.37117
3.53913
3.71729
3.90646
4.1075
4.32135
4.54895
4.79129
5.04937
5.32418
5.6167
5.9279
6.2587
6.61003
6.98275
7.3777
7.79566
8.2374
8.7036
9.19493
9.71198
10.2553
10.8254
11.4228
12.0478
12.7007
13.3819
14.0916
14.8299
15.5968
16.3926
17.217
18.0699
18.9512
19.8606
20.7977
21.7622
22.7535
23.771
24.814
25.8819
26.9738
28.0889
29.226
30.3842
31.5622
32.7589
33.973
35.2033
36.4484
37.7069
38.9775
40.2588
41.5493
42.8477
44.1526
45.4623
46.7759
48.0909
49.3978
50.6916
51.9706
53.2328
54.476
55.6983
56.8974
58.0712
59.2175
60.3342
61.4189
62.4696
63.4841
64.4603
65.3963
66.2901
67.14
67.9441
68.701
69.4091
70.067
70.6736
71.2277
71.7284
72.1749
72.5665
72.903
73.1838
73.4091
73.5788
73.6934
73.7531
73.7587
73.7111
73.6111
73.4599
73.2589
73.0094
72.7132
72.3718
71.9871
71.561
71.0954
70.5925
70.0544
69.4831
68.8809
68.2498
67.5921
66.9098
66.2051
65.4801
64.7367
63.9768
63.2024
62.4153
61.6172
60.8097
59.9944
59.1727
58.3462
57.5161
56.6835
55.8497
55.0158
54.1826
53.351
52.522
51.6961
50.8739
50.0562
49.2432
48.4354
47.633
46.8364
46.0455
45.2605
44.4814
43.7082
42.9407
42.1787
41.4222
40.6707
39.9241
39.1819
38.444
37.7098
36.9792
36.2519
35.5277
34.8065
34.0886
33.3742
32.664
31.9592
31.2611
30.5719
29.8944
29.2319
28.5884
27.9682
27.3762
26.81
26.2742
5.40173
2.8075
2.26428
2.08856
2.03598
2.04188
2.08199
2.14511
2.22536
2.31935
2.42508
2.54132
2.66738
2.80293
2.94796
3.10268
3.26751
3.44304
3.63005
3.82942
4.04216
4.26937
4.51221
4.77191
5.04975
5.347
5.66498
6.00497
6.36824
6.75605
7.16958
7.60998
8.07832
8.57563
9.1028
9.66068
10.25
10.8714
11.5254
12.2124
12.9327
13.6865
14.4739
15.2948
16.1491
17.0365
17.9567
18.9091
19.8931
20.9081
21.9533
23.0277
24.1306
25.2607
26.4171
27.5985
28.8038
30.0316
31.2805
32.5492
33.8363
35.1403
36.4595
37.7926
39.1379
40.4938
41.8589
43.2317
44.6105
45.9938
47.3807
48.7687
50.1582
51.5453
52.9209
54.2787
55.618
56.9366
58.2325
59.5037
60.7481
61.9639
63.149
64.3015
65.4194
66.5008
67.5437
68.5462
69.5065
70.4228
71.2934
72.1167
72.8912
73.6154
74.2881
74.908
75.4741
75.9855
76.4413
76.841
77.184
77.47
77.6989
77.8707
77.9856
78.044
78.0465
77.9937
77.8867
77.7265
77.5143
77.2516
76.9399
76.581
76.1765
75.7285
75.239
74.71
74.1438
73.5424
72.9083
72.2435
71.5505
70.8313
70.0882
69.3235
68.539
67.737
66.9194
66.088
65.2446
64.3909
63.5286
62.6592
61.784
60.9044
60.0216
59.1367
58.2508
57.3648
56.4796
55.5961
54.7148
53.8365
52.9618
52.0909
51.2245
50.3628
49.5062
48.6547
47.8085
46.9676
46.1322
45.3021
44.4772
43.6574
42.8425
42.0322
41.2263
40.4246
39.6266
38.8321
38.0408
37.2524
36.4667
35.6837
34.9033
34.1258
33.3518
32.5821
31.8178
31.0608
30.3132
29.578
28.8588
28.1597
27.4849
26.8395
26.2217
25.6365
5.14215
2.70514
2.19908
2.04171
2.00265
2.0209
2.07351
2.14993
2.24465
2.35455
2.47784
2.6135
2.76104
2.92034
3.09159
3.2752
3.47185
3.68236
3.90777
4.14924
4.40808
4.6857
4.9836
5.30335
5.64657
6.01491
6.41
6.83348
7.28691
7.77182
8.28963
8.84167
9.42912
10.053
10.7143
11.4137
12.1517
12.9287
13.7448
14.6001
15.4942
16.4269
17.3974
18.4051
19.4491
20.5282
21.6412
22.7869
23.9638
25.1704
26.405
27.6662
28.952
30.2608
31.5909
32.9404
34.3075
35.6905
37.0875
38.4969
39.9168
41.3455
42.7812
44.2225
45.6675
47.1146
48.5622
50.0096
51.4543
52.8946
54.3335
55.7619
57.1714
58.5579
59.9211
61.2586
62.569
63.8504
65.1011
66.3194
67.5037
68.6523
69.7636
70.836
71.8678
72.8575
73.8035
74.7044
75.5586
76.3648
77.1216
77.8278
78.4823
79.0839
79.6316
80.1247
80.5623
80.944
81.2691
81.5374
81.7486
81.9028
82.0001
82.0408
82.0254
81.9545
81.8289
81.6497
81.4179
81.1348
80.802
80.4211
79.9937
79.5218
79.0074