/*--------------------------------*- C++ -*----------------------------------*\
  =========                 |
  \\      /  F ield         | OpenFOAM: The Open Source CFD Toolbox
   \\    /   O peration     | Website:  https://openfoam.org
    \\  /    A nd           | Version:  7
     \\/     M anipulation  |
\*---------------------------------------------------------------------------*/
FoamFile
{
    version     2.0;
    format      ascii;
    class       volScalarField;
    location    "0.14";
    object      nut;
}
// * * * * * * * * * * * * * * * * * * * * * * * * * * * * * * * * * * * * * //

dimensions      [0 2 -1 0 0 0 0];

internalField   nonuniform List<scalar> 
12225
(
3.8006e-05
3.33294e-05
2.94332e-05
2.6376e-05
2.41489e-05
2.2629e-05
2.16445e-05
2.10343e-05
2.06704e-05
2.04605e-05
2.03418e-05
2.02738e-05
2.0232e-05
2.02018e-05
2.01757e-05
2.01486e-05
2.01258e-05
2.02599e-05
0.000205723
0.000151533
0.000127318
0.000114409
0.000107379
0.000103277
0.000100623
9.87117e-05
9.72109e-05
9.59581e-05
9.48732e-05
9.3917e-05
9.30691e-05
9.23157e-05
9.16492e-05
9.1047e-05
9.05484e-05
8.99575e-05
0.000418642
0.000297001
0.00024205
0.000210267
0.00018971
0.000175342
0.000164789
0.000156787
0.000150572
0.000145641
0.000141654
0.000138381
0.000135658
0.000133369
0.000131429
0.000129764
0.000128344
0.000127053
0.000615536
0.000473546
0.000392591
0.000341283
0.000306015
0.000280084
0.000260123
0.00024431
0.000231527
0.000221028
0.000212293
0.000204948
0.000198718
0.000193392
0.00018881
0.000184838
0.000181383
0.000178367
0.000739725
0.000627506
0.000543983
0.00048343
0.000438566
0.00040402
0.000376519
0.000354092
0.000335468
0.000319772
0.000306387
0.000294865
0.00028487
0.000276144
0.000268483
0.000261723
0.000255738
0.000250494
0.000803283
0.00073306
0.000666701
0.000610795
0.000565219
0.0005279
0.000496925
0.000470872
0.000448692
0.000429599
0.000413004
0.000398462
0.000385633
0.00037425
0.000364102
0.000355014
0.000346859
0.000339658
0.000832284
0.00079459
0.000750951
0.00070834
0.000669778
0.000635808
0.000606099
0.000580126
0.000557346
0.000537267
0.000519469
0.000503607
0.000489403
0.000476627
0.000465091
0.000454639
0.00044516
0.000436731
0.000844509
0.000826356
0.000801469
0.000773644
0.000745692
0.00071905
0.000694315
0.000671669
0.000651076
0.000632394
0.000615442
0.000600039
0.000586016
0.000573219
0.000561516
0.000550793
0.000540971
0.000532177
0.000849308
0.000841192
0.000828458
0.00081244
0.000794696
0.000776395
0.000758293
0.000740851
0.000724319
0.000708807
0.000694333
0.000680873
0.000668374
0.000656776
0.000646012
0.000636022
0.000626773
0.000618422
0.000851043
0.000847506
0.000841448
0.000833091
0.000823014
0.000811829
0.000800053
0.000788092
0.000776242
0.000764698
0.000753582
0.000742962
0.000732873
0.000723322
0.000714305
0.000705809
0.000697842
0.000690573
0.000851597
0.000849941
0.000847101
0.000842991
0.000837725
0.000831517
0.000824607
0.000817228
0.000809588
0.000801853
0.000794151
0.000786575
0.00077919
0.000772041
0.000765157
0.000758559
0.000752279
0.000746474
0.000851725
0.000850709
0.000849144
0.00084693
0.000844053
0.000840559
0.000836535
0.000832084
0.000827317
0.000822338
0.000817237
0.00081209
0.000806954
0.000801879
0.0007969
0.000792048
0.000787363
0.000782989
0.000851737
0.000850954
0.00084994
0.000848639
0.000847018
0.00084507
0.000842806
0.000840257
0.000837464
0.000834474
0.000831337
0.000828095
0.000824789
0.000821453
0.000818119
0.000814813
0.000811573
0.000808508
0.000851709
0.000850987
0.000850182
0.000849277
0.000848261
0.000847121
0.000845852
0.000844453
0.00084293
0.000841294
0.00083956
0.000837744
0.000835864
0.000833935
0.000831975
0.000830001
0.000828039
0.00082616
0.000851676
0.000850949
0.000850197
0.000849419
0.000848621
0.000847804
0.000846965
0.0008461
0.000845208
0.000844287
0.000843337
0.000842358
0.000841353
0.000840326
0.000839281
0.000838224
0.000837172
0.000836163
0.000851651
0.000850908
0.000850159
0.000849408
0.000848666
0.000847939
0.000847233
0.000846548
0.000845883
0.000845236
0.000844605
0.000843987
0.00084338
0.000842781
0.00084219
0.000841607
0.000841041
0.000840516
0.000851637
0.000850885
0.000850136
0.000849391
0.00084866
0.000847954
0.000847277
0.000846635
0.000846027
0.000845453
0.000844912
0.000844402
0.000843919
0.000843462
0.000843028
0.000842616
0.000842234
0.000841897
0.000851638
0.00085089
0.000850149
0.000849416
0.000848699
0.000848007
0.000847346
0.00084672
0.000846132
0.00084558
0.000845065
0.000844583
0.000844135
0.000843715
0.000843324
0.000842961
0.00084263
0.000842349
0.000851661
0.000850939
0.000850225
0.000849521
0.000848834
0.000848174
0.000847547
0.000846956
0.000846402
0.000845885
0.000845405
0.000844959
0.000844544
0.000844159
0.000843801
0.000843471
0.000843172
0.000842921
0.000851715
0.000851052
0.000850398
0.000849753
0.000849128
0.000848531
0.00084797
0.000847445
0.000846956
0.000846501
0.000846077
0.000845681
0.000845309
0.000844959
0.000844627
0.000844312
0.00084402
0.000843765
0.000851801
0.000851233
0.000850669
0.000850109
0.000849564
0.00084904
0.000848537
0.000848053
0.000847579
0.000847111
0.000846643
0.00084617
0.000845689
0.000845197
0.000844693
0.000844177
0.000843656
0.000843146
0.000851941
0.000851517
0.000851065
0.000850568
0.000850018
0.000849407
0.000848725
0.000847957
0.000847093
0.000846131
0.000845073
0.000843924
0.000842689
0.000841379
0.000839995
0.000838552
0.000837072
0.000835594
0.000852142
0.000851828
0.000851265
0.000850362
0.00084908
0.000847421
0.000845394
0.000843019
0.000840335
0.000837385
0.000834219
0.000830873
0.000827387
0.000823809
0.000820189
0.000816562
0.000812965
0.000809468
0.00085222
0.000851245
0.000849026
0.00084547
0.000840722
0.000835027
0.000828613
0.000821673
0.000814388
0.000806882
0.000799288
0.000791739
0.000784331
0.000777116
0.000770131
0.000763401
0.000756951
0.000750856
0.000850791
0.000845028
0.0008354
0.00082296
0.000808864
0.000794034
0.00077906
0.000764254
0.000749874
0.000736161
0.000723214
0.000711049
0.000699649
0.000688979
0.000678997
0.000669656
0.000660922
0.000652836
0.000841138
0.000816681
0.000786998
0.000756697
0.000727775
0.00070095
0.00067637
0.00065422
0.000634349
0.000616499
0.00060042
0.000585879
0.000572673
0.000560626
0.000549592
0.000539444
0.000530089
0.000521514
0.000798628
0.000728723
0.000669093
0.000620809
0.000580939
0.000547669
0.00052005
0.000496786
0.000476902
0.00045969
0.00044462
0.000431292
0.000419397
0.000408696
0.000399002
0.000390168
0.00038208
0.000374698
0.000662426
0.000545579
0.000474639
0.000425196
0.000388265
0.000360261
0.000338458
0.000320961
0.000306547
0.00029443
0.000284077
0.000275108
0.000267247
0.000260289
0.00025408
0.000248498
0.000243449
0.000238881
0.000377505
0.000286124
0.000242632
0.000214907
0.000195643
0.000182234
0.000172797
0.00016596
0.00016084
0.000156892
0.000153771
0.000151245
0.000149156
0.000147393
0.000145878
0.000144553
0.000143377
0.000142308
6.98062e-05
6.49724e-05
6.05478e-05
5.65123e-05
5.29009e-05
4.97256e-05
4.69804e-05
4.46403e-05
4.26663e-05
4.10142e-05
3.96405e-05
3.85048e-05
3.75711e-05
3.68077e-05
3.61876e-05
3.56872e-05
3.5287e-05
3.49702e-05
4.04489e-07
9.1388e-06
1.48123e-05
2.04636e-05
2.6957e-05
3.45176e-05
4.3408e-05
5.25928e-05
6.18222e-05
7.08683e-05
7.957e-05
8.78352e-05
9.56278e-05
0.00010295
0.000109829
0.000116303
0.000122411
0.000128194
0.000133684
0.000138906
0.000143882
0.000148623
0.000153141
0.000157441
0.000161528
0.000165408
0.000169082
0.000172555
0.000175828
0.000178902
0.000181778
0.000184456
0.000186943
0.000189242
0.000191354
0.000193261
0.000194927
0.000196296
0.000197312
0.000197904
0.000197912
0.000196945
0.000194549
0.000191673
0.000192456
0.000193153
4.42188e-05
4.51827e-05
0.000203295
0.000204655
0.000204184
0.000202469
4.60343e-05
0.000202843
4.59241e-05
4.63008e-05
0.000202334
0.0002037
0.00020511
0.00020556
0.000203464
4.61861e-05
4.68551e-05
4.72716e-05
4.76744e-05
4.80806e-05
4.84872e-05
4.88929e-05
4.92968e-05
4.96979e-05
5.00958e-05
5.04901e-05
5.08802e-05
5.1266e-05
5.16471e-05
5.20231e-05
5.23937e-05
5.27587e-05
5.31177e-05
5.34704e-05
5.38166e-05
5.41561e-05
5.44888e-05
5.48148e-05
5.51345e-05
5.54487e-05
5.57624e-05
5.60672e-05
5.63626e-05
5.66486e-05
5.69253e-05
5.71922e-05
5.74491e-05
5.76956e-05
5.79314e-05
5.81563e-05
5.83699e-05
5.85718e-05
5.87619e-05
5.89397e-05
5.9105e-05
5.92575e-05
5.9397e-05
5.95232e-05
5.96358e-05
5.97346e-05
5.98194e-05
5.989e-05
5.99462e-05
5.99878e-05
6.00146e-05
6.00266e-05
6.00236e-05
6.00056e-05
5.99726e-05
5.99244e-05
5.98611e-05
5.97828e-05
5.96895e-05
5.95814e-05
5.94586e-05
5.93215e-05
5.91701e-05
5.90049e-05
5.88262e-05
5.86344e-05
5.84299e-05
5.82133e-05
5.79851e-05
5.77459e-05
5.74963e-05
5.72371e-05
5.69689e-05
5.66926e-05
5.64089e-05
5.61186e-05
5.58225e-05
5.55215e-05
5.52164e-05
5.49081e-05
5.45974e-05
5.42848e-05
5.39719e-05
5.36589e-05
5.3346e-05
5.30346e-05
5.27258e-05
5.242e-05
5.21195e-05
5.18458e-05
5.16838e-05
5.15355e-05
5.13838e-05
5.12334e-05
5.10865e-05
5.09443e-05
5.08076e-05
5.06772e-05
5.05534e-05
5.04368e-05
5.03277e-05
5.02261e-05
5.0132e-05
5.00455e-05
4.99661e-05
4.98933e-05
4.98266e-05
4.97651e-05
4.97075e-05
4.96525e-05
4.95983e-05
4.95424e-05
4.94821e-05
4.94135e-05
4.93313e-05
4.92277e-05
4.90891e-05
4.88869e-05
4.85488e-05
4.78623e-05
1.37999e-06
3.08784e-05
6.44687e-05
8.71874e-05
0.000102664
0.000114912
0.000126081
0.0001371
0.000148211
0.000159361
0.000170422
0.000181286
0.000191885
0.000202189
0.000212194
0.000221914
0.000231365
0.000240563
0.000249522
0.000258247
0.000266741
0.000274998
0.000283009
0.000290764
0.000298246
0.00030544
0.000312326
0.000318882
0.000325083
0.000330899
0.0003363
0.000341256
0.000345733
0.000349692
0.00035307
0.000355759
0.000357579
0.000358275
0.000357525
0.000354874
0.000349488
0.000339766
0.000323941
0.000304998
0.000303629
0.000303404
0.000287365
0.000296072
0.000331532
0.000333636
0.000329406
0.000319228
0.000297896
0.000315696
0.000293282
0.000298279
0.000320683
0.000324712
0.000327963
0.000329355
0.000326525
0.000313299
0.000317891
0.000322391
0.000326116
0.000330059
0.000334166
0.000338388
0.000342692
0.000347058
0.000351475
0.000355936
0.000360437
0.000364973
0.000369543
0.000374143
0.00037877
0.000383423
0.000388096
0.000392786
0.000397486
0.000402187
0.000406877
0.000411536
0.000416138
0.000420653
0.00042486
0.000429013
0.000433143
0.000437251
0.000441336
0.000445394
0.000449421
0.000453415
0.00045737
0.000461284
0.000465153
0.000468971
0.000472736
0.000476442
0.000480086
0.000483663
0.000487168
0.000490598
0.000493947
0.000497211
0.000500385
0.000503465
0.000506445
0.00050932
0.000512087
0.000514739
0.000517273
0.000519684
0.000521967
0.000524117
0.000526131
0.000528005
0.000529734
0.000531315
0.000532746
0.000534022
0.000535143
0.000536105
0.000536908
0.00053755
0.000538033
0.000538355
0.000538518
0.000538524
0.000538375
0.000538075
0.000537626
0.000537035
0.000536306
0.000535446
0.000534461
0.000533358
0.000532144
0.000530832
0.000529427
0.000527935
0.000526377
0.000524755
0.000523078
0.00052136
0.000519608
0.000517827
0.000516021
0.000514167
0.000512049
0.000509405
0.000506437
0.000503315
0.000500124
0.000496895
0.000493645
0.000490379
0.000487098
0.000483802
0.000480489
0.000477156
0.000473795
0.000470402
0.000466967
0.00046348
0.000459931
0.000456306
0.000452591
0.000448768
0.00044482
0.000440724
0.000436457
0.00043199
0.000427289
0.000422318
0.000417008
0.00041133
0.000404781
0.000393152
2.70908e-06
4.73467e-05
9.69763e-05
0.000132309
0.000157324
0.00017615
0.000191698
0.000205755
0.00021926
0.000232621
0.000245962
0.00025929
0.000272571
0.000285772
0.000298866
0.000311836
0.000324666
0.000337339
0.000349838
0.000362141
0.000374222
0.000386052
0.000397601
0.000408837
0.000419729
0.000430246
0.000440355
0.000450029
0.000459236
0.000467951
0.000476151
0.000483817
0.000490936
0.000497495
0.000503471
0.000508821
0.000513475
0.000517349
0.000520372
0.000522494
0.000523644
0.000523727
0.000522957
0.000522913
0.000526573
0.000531331
0.000535227
0.000541801
0.00055051
0.000555762
0.000559766
0.000563009
0.000566142
0.000572835
0.000576243
0.000583155
0.000591926
0.000598987
0.000606094
0.000612766
0.000618646
0.000623972
0.000632089
0.000640657
0.000649186
0.000657815
0.00066656
0.000675407
0.000684338
0.000693343
0.000702411
0.000711533
0.000720703
0.000729914
0.00073916
0.000748432
0.000757724
0.000767026
0.000776329
0.000785622
0.00079489
0.000804118
0.000813287
0.000822376
0.000831365
0.000840126
0.000848703
0.0008572
0.000865639
0.000874024
0.000882349
0.000890608
0.000898795
0.000906901
0.000914919
0.000922842
0.000930662
0.00093837
0.00094596
0.000953421
0.000960747
0.000967927
0.000974955
0.000981821
0.000988517
0.000995033
0.00100136
0.00100749
0.00101341
0.00101912
0.0010246
0.00102985
0.00103485
0.0010396
0.00104409
0.00104831
0.00105225
0.0010559
0.00105926
0.00106232
0.00106506
0.0010675
0.00106961
0.0010714
0.00107287
0.001074
0.00107481
0.00107528
0.00107542
0.00107524
0.00107474
0.00107392
0.00107279
0.00107136
0.00106964
0.00106764
0.00106537
0.00106286
0.0010601
0.00105713
0.00105396
0.0010506
0.00104708
0.00104342
0.00103963
0.00103574
0.00103176
0.0010277
0.00102357
0.00101935
0.00101489
0.00101
0.00100472
0.000999176
0.000993457
0.000987629
0.000981728
0.000975777
0.00096979
0.000963774
0.000957731
0.000951661
0.000945557
0.000939411
0.000933211
0.000926942
0.000920584
0.000914115
0.000907509
0.000900734
0.000893757
0.000886536
0.000879025
0.000871168
0.000862898
0.000854132
0.000844734
0.00083448
0.000822484
0.00080499
4.04216e-06
5.82578e-05
0.000119271
0.000164919
0.000198282
0.000223533
0.000243892
0.000261566
0.000277928
0.000293755
0.000309433
0.000325128
0.000340888
0.000356708
0.000372559
0.000388407
0.000404212
0.000419931
0.000435521
0.000450937
0.000466136
0.000481074
0.000495709
0.000510003
0.000523921
0.000537432
0.00055051
0.000563134
0.000575288
0.00058696
0.00059815
0.000608862
0.00061911
0.000628911
0.000638281
0.000647231
0.000655767
0.000663899
0.000671655
0.000679093
0.000686294
0.000693361
0.000700479
0.000708022
0.000716358
0.000725112
0.000733988
0.000743203
0.000752713
0.000762042
0.000771336
0.000780702
0.000790307
0.000800371
0.00081036
0.000820865
0.0008317
0.000842548
0.000853566
0.000864643
0.000875756
0.000887074
0.000898973
0.000911141
0.000923419
0.00093579
0.000948247
0.000960782
0.000973388
0.000986056
0.000998777
0.00101154
0.00102435
0.00103718
0.00105002
0.00106288
0.00107573
0.00108857
0.00110138
0.00111415
0.00112686
0.0011395
0.00115205
0.00116449
0.00117681
0.00118891
0.00120086
0.00121272
0.00122448
0.00123617
0.00124776
0.00125925
0.00127064
0.0012819
0.00129305
0.00130405
0.00131491
0.00132561
0.00133615
0.00134651
0.00135668
0.00136666
0.00137642
0.00138597
0.00139529
0.00140436
0.00141318
0.00142174
0.00143003
0.00143802
0.00144572
0.0014531
0.00146016
0.00146689
0.00147327
0.00147929
0.00148494
0.00149021
0.00149509
0.00149957
0.00150364
0.00150729
0.00151051
0.00151329
0.00151563
0.00151753
0.00151897
0.00151997
0.00152051
0.00152061
0.00152025
0.00151945
0.00151822
0.00151656
0.00151449
0.00151201
0.00150915
0.00150592
0.00150233
0.00149842
0.0014942
0.00148969
0.00148493
0.00147992
0.0014747
0.00146928
0.0014637
0.00145796
0.00145209
0.00144606
0.00143983
0.00143326
0.00142633
0.00141911
0.00141164
0.00140398
0.00139619
0.00138828
0.00138029
0.00137222
0.00136408
0.00135589
0.00134763
0.00133929
0.00133087
0.00132235
0.00131371
0.00130491
0.00129594
0.00128675
0.00127729
0.00126753
0.00125741
0.00124685
0.00123579
0.00122414
0.00121174
0.00119831
0.00118299
0.00116335
5.17781e-06
6.62069e-05
0.000135992
0.000189982
0.000230517
0.00026166
0.000286726
0.000308127
0.000327499
0.000345874
0.000363855
0.00038176
0.000399737
0.00041783
0.000436031
0.000454305
0.000472602
0.000490865
0.000509039
0.000527066
0.000544893
0.000562471
0.000579756
0.000596711
0.000613304
0.00062951
0.000645312
0.000660699
0.000675665
0.000690214
0.000704357
0.00071811
0.000731499
0.000744552
0.000757298
0.000769766
0.000781985
0.000793986
0.000805807
0.000817502
0.000829132
0.000840763
0.000852468
0.000864331
0.000876402
0.000888632
0.000900973
0.000913443
0.000926057
0.000938783
0.000951634
0.000964626
0.000977784
0.000991117
0.00100458
0.00101822
0.00103204
0.001046
0.00106011
0.00107437
0.00108877
0.00110335
0.00111814
0.0011331
0.00114816
0.00116329
0.0011785
0.00119376
0.00120907
0.00122443
0.00123982
0.00125524
0.00127068
0.00128612
0.00130155
0.00131698
0.00133237
0.00134773
0.00136303
0.00137827
0.00139343
0.00140849
0.00142345
0.00143829
0.00145297
0.00146746
0.00148181
0.00149604
0.00151017
0.0015242
0.00153811
0.0015519
0.00156556
0.00157908
0.00159245
0.00160567
0.00161871
0.00163157
0.00164424
0.00165671
0.00166896
0.001681
0.00169279
0.00170434
0.00171564
0.00172666
0.0017374
0.00174785
0.00175799
0.00176781
0.0017773
0.00178645
0.00179524
0.00180366
0.00181169
0.00181933
0.00182655
0.00183335
0.00183972
0.00184563
0.00185108
0.00185606
0.00186055
0.00186454
0.00186804
0.00187101
0.00187347
0.0018754
0.00187681
0.00187768
0.00187802
0.00187783
0.00187712
0.00187589
0.00187414
0.0018719
0.00186917
0.00186597
0.00186232
0.00185824
0.00185374
0.00184886
0.00184361
0.00183802
0.00183211
0.00182591
0.00181944
0.00181272
0.00180577
0.0017986
0.00179117
0.00178342
0.00177533
0.0017669
0.00175818
0.00174919
0.00173998
0.00173057
0.001721
0.00171129
0.00170143
0.00169144
0.00168133
0.00167108
0.00166068
0.00165013
0.00163939
0.00162845
0.00161727
0.00160581
0.00159404
0.00158191
0.00156936
0.00155635
0.0015428
0.00152863
0.00151374
0.00149789
0.00148042
0.00146001
6.03547e-06
7.22043e-05
0.000148669
0.000209396
0.000256069
0.000292527
0.000322051
0.000347128
0.000369531
0.000390462
0.000410686
0.000430656
0.000450615
0.000470673
0.000490858
0.00051115
0.000531505
0.000551866
0.000572174
0.00059237
0.000612396
0.000632205
0.000651754
0.000671008
0.000689939
0.000708527
0.00072676
0.000744633
0.000762146
0.000779307
0.000796129
0.000812632
0.00082884
0.000844778
0.000860477
0.000875962
0.000891263
0.000906405
0.00092142
0.000936341
0.000951204
0.000966042
0.000980888
0.000995769
0.0010107
0.00102569
0.00104074
0.00105586
0.00107107
0.00108637
0.00110177
0.00111729
0.00113293
0.00114868
0.00116456
0.00118055
0.00119668
0.00121293
0.0012293
0.00124581
0.00126243
0.00127918
0.00129606
0.00131303
0.00133008
0.00134719
0.00136435
0.00138154
0.00139877
0.00141602
0.00143328
0.00145055
0.00146782
0.00148506
0.00150229
0.00151947
0.00153661
0.00155369
0.00157069
0.00158761
0.00160443
0.00162115
0.00163775
0.00165422
0.00167049
0.00168659
0.00170256
0.00171841
0.00173415
0.00174976
0.00176525
0.00178061
0.00179583
0.0018109
0.00182582
0.00184056
0.00185513
0.00186951
0.00188369
0.00189766
0.00191142
0.00192494
0.00193823
0.00195126
0.00196404
0.00197654
0.00198876
0.00200069
0.00201231
0.00202361
0.00203458
0.0020452
0.00205546
0.00206535
0.00207485
0.00208395
0.00209264
0.0021009
0.00210871
0.00211606
0.00212294
0.00212933
0.00213521
0.00214058
0.00214542
0.00214972
0.00215347
0.00215665
0.00215927
0.00216131
0.00216277
0.00216364
0.00216393
0.00216363
0.00216274
0.00216129
0.00215927
0.00215669
0.00215358
0.00214994
0.0021458
0.00214117
0.00213607
0.00213052
0.00212455
0.00211817
0.00211142
0.00210431
0.00209685
0.00208907
0.00208094
0.00207246
0.00206359
0.00205433
0.0020447
0.00203473
0.00202443
0.00201385
0.002003
0.0019919
0.00198057
0.00196902
0.00195724
0.00194524
0.00193302
0.00192055
0.00190782
0.00189481
0.0018815
0.00186785
0.00185383
0.0018394
0.00182452
0.00180915
0.00179325
0.00177677
0.00175966
0.00174178
0.00172268
0.00170173
6.66944e-06
7.65001e-05
0.000157985
0.000224139
0.000276029
0.000317219
0.000350877
0.000379476
0.00040485
0.000428297
0.000450694
0.000472602
0.000494354
0.000516124
0.000537988
0.000559956
0.000582002
0.000604079
0.000626133
0.000648107
0.000669949
0.000691612
0.000713055
0.000734246
0.000755159
0.000775776
0.000796088
0.000816088
0.000835778
0.000855165
0.000874259
0.000893076
0.000911633
0.000929952
0.000948054
0.00096596
0.00098369
0.00100127
0.00101871
0.00103604
0.00105328
0.00107045
0.00108757
0.00110465
0.00112172
0.00113879
0.00115586
0.00117296
0.0011901
0.00120729
0.00122454
0.00124187
0.00125927
0.00127676
0.00129434
0.00131201
0.00132977
0.00134763
0.00136558
0.00138363
0.00140177
0.00141999
0.00143829
0.00145665
0.00147507
0.00149353
0.00151201
0.00153052
0.00154904
0.00156756
0.00158608
0.00160458
0.00162305
0.00164149
0.00165989
0.00167823
0.0016965
0.0017147
0.00173281
0.00175082
0.00176872
0.0017865
0.00180415
0.00182166
0.00183897
0.00185613
0.00187316
0.00189006
0.00190685
0.00192351
0.00194005
0.00195645
0.00197272
0.00198883
0.00200479
0.00202058
0.0020362
0.00205164
0.00206688
0.00208193
0.00209676
0.00211138
0.00212577
0.00213992
0.00215382
0.00216746
0.00218084
0.00219394
0.00220676
0.00221927
0.00223147
0.00224335
0.00225489
0.00226607
0.0022769
0.00228735
0.0022974
0.00230704
0.00231626
0.00232503
0.00233335
0.0023412
0.00234855
0.00235539
0.00236171
0.0023675
0.00237272
0.00237737
0.00238144
0.00238493
0.00238779
0.00239003
0.00239166
0.00239265
0.00239302
0.00239277
0.00239188
0.00239038
0.00238826
0.00238554
0.00238223
0.00237833
0.00237386
0.00236885
0.0023633
0.00235723
0.00235067
0.00234363
0.00233613
0.00232818
0.00231978
0.00231092
0.00230161
0.00229182
0.00228158
0.00227088
0.00225977
0.00224825
0.00223634
0.00222408
0.00221146
0.00219851
0.00218522
0.00217161
0.00215766
0.00214338
0.00212874
0.00211374
0.00209835
0.00208256
0.00206633
0.00204965
0.0020325
0.00201485
0.0019967
0.00197805
0.00195887
0.00193914
0.00191858
0.00189693
7.10262e-06
7.93666e-05
0.000164468
0.0002349
0.000291158
0.00033649
0.0003739
0.000405796
0.000434008
0.000459881
0.000484362
0.00050809
0.000531471
0.000554745
0.000578037
0.000601394
0.000624815
0.000648272
0.000671723
0.00069512
0.000718415
0.000741566
0.000764535
0.00078729
0.000809807
0.000832068
0.00085406
0.000875778
0.00089722
0.000918388
0.000939289
0.000959933
0.00098033
0.0010005
0.00102044
0.00104019
0.00105974
0.00107912
0.00109835
0.00111743
0.00113638
0.00115522
0.00117396
0.00119263
0.00121122
0.00122977
0.00124829
0.00126679
0.00128529
0.0013038
0.00132234
0.00134091
0.00135953
0.00137819
0.00139692
0.00141571
0.00143456
0.00145348
0.00147247
0.00149152
0.00151064
0.00152981
0.00154903
0.00156829
0.00158759
0.00160691
0.00162624
0.00164557
0.00166491
0.00168423
0.00170352
0.00172279
0.00174202
0.0017612
0.00178031
0.00179936
0.00181833
0.00183722
0.001856
0.00187467
0.00189323
0.00191166
0.00192995
0.00194807
0.00196603
0.00198385
0.00200154
0.00201911
0.00203657
0.00205392
0.00207114
0.00208823
0.00210519
0.00212201
0.00213868
0.00215519
0.00217154
0.00218773
0.00220373
0.00221955
0.00223518
0.00225061
0.00226582
0.00228083
0.0022956
0.00231015
0.00232446
0.00233852
0.00235232
0.00236585
0.00237911
0.00239207
0.00240474
0.00241708
0.00242911
0.00244079
0.00245213
0.00246308
0.00247365
0.00248382
0.00249356
0.00250288
0.00251172
0.00252008
0.00252794
0.00253532
0.00254213
0.00254837
0.00255404
0.00255912
0.00256358
0.00256742
0.00257063
0.00257319
0.00257509
0.00257632
0.00257689
0.00257678
0.002576
0.00257454
0.00257241
0.00256962
0.00256616
0.00256205
0.0025573
0.00255192
0.00254593
0.00253934
0.00253216
0.0025244
0.00251607
0.00250717
0.00249769
0.00248764
0.00247703
0.00246585
0.00245412
0.00244187
0.0024291
0.00241584
0.0024021
0.0023879
0.00237324
0.00235813
0.00234257
0.00232656
0.0023101
0.00229317
0.00227578
0.0022579
0.00223953
0.00222066
0.0022013
0.00218144
0.00216111
0.00214036
0.00211922
0.00209771
0.00207569
0.00205308
7.35921e-06
8.10439e-05
0.000168558
0.000242239
0.000302064
0.000350945
0.000391688
0.000426595
0.000457454
0.000485614
0.000512059
0.000537478
0.000562338
0.000586931
0.000611431
0.000635923
0.000660438
0.000684971
0.000709495
0.000733975
0.000758372
0.000782648
0.000806767
0.000830701
0.000854424
0.000877918
0.000901169
0.000924168
0.00094691
0.000969392
0.000991617
0.00101359
0.00103531
0.0010568
0.00107806
0.00109909
0.00111992
0.00114054
0.00116098
0.00118125
0.00120135
0.00122131
0.00124113
0.00126084
0.00128045
0.00129997
0.00131942
0.00133882
0.00135819
0.00137754
0.00139688
0.00141623
0.00143559
0.00145498
0.0014744
0.00149386
0.00151336
0.0015329
0.00155249
0.00157213
0.00159181
0.00161152
0.00163127
0.00165105
0.00167084
0.00169065
0.00171046
0.00173027
0.00175006
0.00176983
0.00178957
0.00180927
0.00182892
0.00184851
0.00186803
0.00188747
0.00190683
0.00192609
0.00194525
0.00196429
0.00198321
0.00200201
0.00202065
0.00203914
0.00205749
0.00207571
0.00209382
0.00211183
0.00212973
0.00214752
0.0021652
0.00218276
0.0022002
0.00221751
0.00223468
0.00225171
0.00226859
0.00228532
0.00230189
0.0023183
0.00233453
0.00235058
0.00236645
0.00238213
0.00239761
0.00241289
0.00242796
0.00244282
0.00245746
0.00247187
0.00248604
0.00249996
0.00251362
0.00252702
0.00254013
0.00255296
0.00256549
0.00257769
0.00258955
0.00260105
0.00261218
0.00262295
0.00263328
0.00264316
0.00265259
0.00266154
0.00266998
0.00267789
0.00268525
0.00269205
0.00269824
0.00270383
0.00270878
0.00271307
0.0027167
0.00271963
0.00272187
0.00272339
0.00272419
0.00272426
0.00272358
0.00272217
0.00272
0.00271709
0.00271344
0.00270905
0.00270393
0.00269809
0.00269153
0.00268426
0.00267629
0.00266761
0.00265824
0.00264816
0.00263739
0.00262593
0.00261379
0.00260099
0.00258753
0.00257344
0.00255874
0.00254342
0.00252752
0.00251103
0.00249397
0.00247633
0.00245813
0.00243936
0.00242003
0.00240013
0.00237968
0.00235869
0.00233717
0.00231517
0.00229273
0.00226994
0.00224687
0.00222361
0.00220007
0.00217625
7.46341e-06
8.17393e-05
0.000170631
0.000246634
0.00030927
0.00036111
0.000404739
0.000442326
0.000475589
0.000505852
0.000534105
0.000561068
0.000587247
0.000612978
0.000638477
0.000663869
0.000689213
0.000714531
0.000739815
0.000765044
0.000790189
0.00081522
0.000840105
0.000864817
0.000889332
0.000913631
0.000937699
0.000961523
0.000985096
0.00100841
0.00103147
0.00105427
0.00107681
0.0010991
0.00112115
0.00114295
0.00116453
0.00118588
0.00120702
0.00122795
0.0012487
0.00126928
0.00128969
0.00130996
0.0013301
0.00135013
0.00137007
0.00138993
0.00140974
0.00142949
0.00144922
0.00146894
0.00148865
0.00150837
0.0015281
0.00154786
0.00156764
0.00158746
0.00160731
0.00162719
0.00164711
0.00166706
0.00168704
0.00170704
0.00172705
0.00174708
0.0017671
0.00178712
0.00180712
0.0018271
0.00184705
0.00186695
0.0018868
0.00190659
0.00192631
0.00194595
0.0019655
0.00198495
0.0020043
0.00202353
0.00204264
0.00206162
0.00208046
0.00209917
0.00211778
0.00213628
0.00215468
0.002173
0.00219122
0.00220934
0.00222736
0.00224527
0.00226307
0.00228076
0.00229832
0.00231575
0.00233305
0.00235022
0.00236724
0.00238412
0.00240084
0.00241741
0.00243382
0.00245006
0.00246613
0.00248202
0.00249774
0.00251329
0.00252865
0.00254382
0.00255881
0.00257358
0.00258813
0.00260247
0.00261658
0.00263045
0.00264411
0.00265747
0.00267054
0.00268331
0.00269576
0.00270789
0.00271965
0.00273103
0.002742
0.00275255
0.00276264
0.00277225
0.00278135
0.00278991
0.00279792
0.00280533
0.00281212
0.00281827
0.00282375
0.00282853
0.00283259
0.00283592
0.00283848
0.00284026
0.00284124
0.00284142
0.00284077
0.00283929
0.00283697
0.00283381
0.00282981
0.00282497
0.00281928
0.00281274
0.00280537
0.00279716
0.00278812
0.00277823
0.00276751
0.00275597
0.00274359
0.00273041
0.00271643
0.00270167
0.00268614
0.00266986
0.00265284
0.00263509
0.00261664
0.00259748
0.00257763
0.00255711
0.00253592
0.00251408
0.00249163
0.00246857
0.00244497
0.00242088
0.00239638
0.00237159
0.00234662
0.00232159
0.00229645
0.00227123
7.43874e-06
8.16308e-05
0.000171013
0.000248499
0.000313233
0.000367449
0.000413501
0.000453404
0.000488785
0.00052092
0.000550787
0.000579113
0.000606429
0.000633105
0.000659389
0.000685439
0.000711345
0.000737154
0.000762878
0.000788513
0.000814042
0.000839441
0.000864687
0.000889755
0.000914625
0.000939276
0.000963694
0.000987865
0.00101178
0.00103543
0.00105882
0.00108193
0.00110478
0.00112736
0.00114968
0.00117174
0.00119354
0.00121511
0.00123645
0.00125756
0.00127847
0.00129919
0.00131973
0.00134011
0.00136034
0.00138046
0.00140046
0.00142037
0.00144022
0.00146
0.00147975
0.00149948
0.0015192
0.00153891
0.00155864
0.00157839
0.00159817
0.00161798
0.00163783
0.00165771
0.00167763
0.00169759
0.00171758
0.0017376
0.00175764
0.0017777
0.00179776
0.00181783
0.00183789
0.00185794
0.00187795
0.00189793
0.00191786
0.00193774
0.00195754
0.00197727
0.00199692
0.00201647
0.00203591
0.00205525
0.00207447
0.00209356
0.00211256
0.00213146
0.00215029
0.00216903
0.0021877
0.00220628
0.00222479
0.00224321
0.00226154
0.00227977
0.0022979
0.00231593
0.00233384
0.00235164
0.00236931
0.00238687
0.00240429
0.00242158
0.00243874
0.00245577
0.00247265
0.00248938
0.00250596
0.0025224
0.00253869
0.00255483
0.00257083
0.00258668
0.00260239
0.00261792
0.00263328
0.00264846
0.00266347
0.0026783
0.00269294
0.00270736
0.00272155
0.00273551
0.00274922
0.00276266
0.0027758
0.00278863
0.00280111
0.00281323
0.00282495
0.00283625
0.00284709
0.00285745
0.00286728
0.00287656
0.00288526
0.00289332
0.00290073
0.00290746
0.00291345
0.00291869
0.00292314
0.00292678
0.00292958
0.00293151
0.00293255
0.00293269
0.00293189
0.00293016
0.00292748
0.00292384
0.00291924
0.00291366
0.0029071
0.00289957
0.00289106
0.00288156
0.00287109
0.00285963
0.00284721
0.00283381
0.00281947
0.00280419
0.00278798
0.00277087
0.00275286
0.00273399
0.00271425
0.00269368
0.00267229
0.00265011
0.00262716
0.00260346
0.00257907
0.00255403
0.0025284
0.00250228
0.00247577
0.002449
0.00242214
0.00239531
0.00236849
0.00234172
7.30759e-06
8.08718e-05
0.000169986
0.000248201
0.000314359
0.000370377
0.000418372
0.000460195
0.000497366
0.000531097
0.000562334
0.0005918
0.000620034
0.000647425
0.00067425
0.000700691
0.000726868
0.000752848
0.000778666
0.000804334
0.000829847
0.000855195
0.000880361
0.000905325
0.000930072
0.000954583
0.000978845
0.00100285
0.00102658
0.00105003
0.00107321
0.0010961
0.00111871
0.00114104
0.0011631
0.00118488
0.00120641
0.00122768
0.00124871
0.00126952
0.00129011
0.0013105
0.00133072