/*--------------------------------*- C++ -*----------------------------------*\
  =========                 |
  \\      /  F ield         | OpenFOAM: The Open Source CFD Toolbox
   \\    /   O peration     | Website:  https://openfoam.org
    \\  /    A nd           | Version:  7
     \\/     M anipulation  |
\*---------------------------------------------------------------------------*/
FoamFile
{
    version     2.0;
    format      ascii;
    class       volScalarField;
    location    "0.01";
    object      k;
}
// * * * * * * * * * * * * * * * * * * * * * * * * * * * * * * * * * * * * * //

dimensions      [0 2 -2 0 0 0 0];

internalField   nonuniform List<scalar> 
12225
(
1.93523e-05
1.8e-05
1.68246e-05
1.53341e-05
1.39654e-05
1.30398e-05
1.18122e-05
1.03605e-05
9.36473e-06
8.73527e-06
8.0857e-06
7.44391e-06
7.10593e-06
7.04273e-06
7.08917e-06
7.22895e-06
7.59871e-06
2.64123e-05
1.99803e-05
1.98697e-05
1.96816e-05
1.94485e-05
1.91035e-05
1.87768e-05
1.85878e-05
1.82186e-05
1.77177e-05
1.72819e-05
1.70168e-05
1.67546e-05
1.64715e-05
1.62891e-05
1.62179e-05
1.62036e-05
1.62124e-05
1.67261e-05
1.9999e-05
1.93007e-05
1.90356e-05
1.90232e-05
1.89983e-05
1.89818e-05
1.89566e-05
1.88545e-05
1.86532e-05
1.8455e-05
1.82788e-05
1.81431e-05
1.80835e-05
1.80797e-05
1.80957e-05
1.81227e-05
1.81275e-05
1.81305e-05
2.00996e-05
1.98891e-05
1.86474e-05
1.76993e-05
1.76762e-05
1.72311e-05
1.60636e-05
1.53904e-05
1.51712e-05
1.50932e-05
1.5089e-05
1.51325e-05
1.53026e-05
1.57203e-05
1.61827e-05
1.65308e-05
1.66844e-05
1.67407e-05
2.09386e-05
2.12349e-05
2.08801e-05
2.01574e-05
1.96606e-05
1.95637e-05
1.9847e-05
1.98504e-05
1.91064e-05
1.63805e-05
1.31902e-05
1.22913e-05
1.24102e-05
1.29417e-05
1.40352e-05
1.47753e-05
1.50867e-05
1.51193e-05
2.1277e-05
2.07422e-05
2.10162e-05
2.16341e-05
2.182e-05
2.19811e-05
2.24833e-05
2.34406e-05
2.37348e-05
2.36225e-05
2.30763e-05
2.15789e-05
2.03865e-05
1.98486e-05
1.97665e-05
1.98452e-05
2.02451e-05
2.07383e-05
2.11672e-05
2.11293e-05
2.1055e-05
2.11703e-05
2.13351e-05
2.16715e-05
2.25205e-05
2.31861e-05
2.33863e-05
2.33702e-05
2.31357e-05
2.24132e-05
2.18976e-05
2.16681e-05
2.15953e-05
2.1584e-05
2.15838e-05
2.15797e-05
2.07843e-05
2.13686e-05
2.12816e-05
2.0793e-05
2.07198e-05
2.0851e-05
2.11158e-05
2.15973e-05
2.25966e-05
2.35388e-05
2.41093e-05
2.43319e-05
2.43478e-05
2.42238e-05
2.36101e-05
2.26797e-05
2.20187e-05
2.1565e-05
2.03925e-05
2.06454e-05
2.0718e-05
2.07127e-05
2.08074e-05
2.08582e-05
2.09344e-05
2.11121e-05
2.15839e-05
2.29546e-05
2.4445e-05
2.52697e-05
2.55132e-05
2.55083e-05
2.53035e-05
2.44375e-05
2.32598e-05
2.24388e-05
2.00885e-05
2.02744e-05
2.09362e-05
2.17194e-05
2.20223e-05
2.19755e-05
2.1771e-05
2.17824e-05
2.21346e-05
2.3656e-05
2.51204e-05
2.56358e-05
2.56629e-05
2.53857e-05
2.41965e-05
2.29159e-05
2.21306e-05
2.17506e-05
2.05477e-05
2.08232e-05
2.09494e-05
2.12871e-05
2.20852e-05
2.23738e-05
2.2293e-05
2.20016e-05
2.17965e-05
2.17883e-05
2.21604e-05
2.25319e-05
2.25331e-05
2.22151e-05
2.16413e-05
2.13385e-05
2.12096e-05
2.11789e-05
2.00864e-05
2.06344e-05
2.16775e-05
2.2387e-05
2.24113e-05
2.23842e-05
2.25243e-05
2.27924e-05
2.25646e-05
2.17403e-05
2.1189e-05
2.0906e-05
2.07617e-05
2.07087e-05
2.07072e-05
2.07607e-05
2.09208e-05
2.10382e-05
2.03501e-05
2.12485e-05
2.15053e-05
2.1539e-05
2.14641e-05
2.15598e-05
2.21645e-05
2.22495e-05
2.19459e-05
2.12224e-05
2.08055e-05
2.06049e-05
2.05037e-05
2.04499e-05
2.0433e-05
2.04432e-05
2.05199e-05
2.06511e-05
2.06265e-05
2.07763e-05
2.06164e-05
2.05441e-05
2.06038e-05
2.11573e-05
2.25089e-05
2.29349e-05
2.2858e-05
2.23335e-05
2.16991e-05
2.12841e-05
2.10083e-05
2.09044e-05
2.09255e-05
2.09725e-05
2.09622e-05
2.08974e-05
2.05368e-05
2.03806e-05
2.05235e-05
2.06695e-05
2.07246e-05
2.07866e-05
2.09482e-05
2.10386e-05
2.1058e-05
2.10743e-05
2.11564e-05
2.15485e-05
2.22989e-05
2.27392e-05
2.28588e-05
2.27991e-05
2.2326e-05
2.16938e-05
2.08648e-05
2.03408e-05
2.07575e-05
2.24816e-05
2.30993e-05
2.28314e-05
2.18697e-05
2.10496e-05
2.07334e-05
2.06826e-05
2.07386e-05
2.1033e-05
2.13788e-05
2.16319e-05
2.18419e-05
2.19578e-05
2.19722e-05
2.1873e-05
2.03707e-05
2.03881e-05
2.07205e-05
2.10325e-05
2.09651e-05
2.07854e-05
2.0479e-05
2.02912e-05
2.02166e-05
2.02027e-05
2.02172e-05
2.03028e-05
2.05795e-05
2.14227e-05
2.33066e-05
2.48213e-05
2.54625e-05
2.54735e-05
2.04323e-05
2.04992e-05
2.05063e-05
2.04677e-05
2.0443e-05
2.04255e-05
2.03729e-05
2.0307e-05
2.02918e-05
2.03155e-05
2.0513e-05
2.13779e-05
2.24098e-05
2.28296e-05
2.2871e-05
2.27361e-05
2.2168e-05
2.16873e-05
2.01048e-05
2.01878e-05
2.05303e-05
2.04927e-05
2.04547e-05
2.04788e-05
2.05501e-05
2.05567e-05
2.04764e-05
2.04085e-05
2.04307e-05
2.06289e-05
2.09555e-05
2.10971e-05
2.11248e-05
2.11097e-05
2.10067e-05
2.08884e-05
2.00672e-05
2.06823e-05
2.06507e-05
2.05179e-05
2.03228e-05
2.02114e-05
2.01638e-05
2.01512e-05
2.01578e-05
2.02106e-05
2.04397e-05
2.08931e-05
2.11468e-05
2.11955e-05
2.11462e-05
2.09052e-05
2.05456e-05
2.0398e-05
2.0246e-05
2.05549e-05
2.07354e-05
2.07125e-05
2.05099e-05
2.0369e-05
2.03349e-05
2.03303e-05
2.03332e-05
2.03497e-05
2.04047e-05
2.04994e-05
2.05563e-05
2.05758e-05
2.05873e-05
2.06332e-05
2.07063e-05
2.07154e-05
2.07821e-05
2.06732e-05
2.04982e-05
2.0328e-05
2.02679e-05
2.02802e-05
2.03764e-05
2.04145e-05
2.03994e-05
2.03801e-05
2.03835e-05
2.04139e-05
2.04805e-05
2.0561e-05
2.07197e-05
2.11579e-05
2.22292e-05
2.30346e-05
2.06089e-05
2.09776e-05
2.09208e-05
2.05751e-05
2.03623e-05
2.03538e-05
2.03627e-05
2.03288e-05
2.02432e-05
2.02221e-05
2.02279e-05
2.02816e-05
2.04994e-05
2.0719e-05
2.09512e-05
2.13814e-05
2.25053e-05
2.40527e-05
2.04894e-05
2.05212e-05
2.04283e-05
2.03659e-05
2.05211e-05
2.12775e-05
2.17088e-05
2.15978e-05
2.09886e-05
2.05516e-05
2.04617e-05
2.04862e-05
2.06925e-05
2.12455e-05
2.1685e-05
2.1871e-05
2.18727e-05
2.17786e-05
2.04333e-05
2.03955e-05
2.03409e-05
2.03576e-05
2.05126e-05
2.09748e-05
2.11045e-05
2.10734e-05
2.092e-05
2.06258e-05
2.05131e-05
2.0515e-05
2.07049e-05
2.11891e-05
2.13835e-05
2.13869e-05
2.12775e-05
2.09064e-05
2.04521e-05
2.03442e-05
2.0277e-05
2.03526e-05
2.07385e-05
2.19091e-05
2.45485e-05
2.58725e-05
2.59487e-05
2.54071e-05
2.34271e-05
2.18199e-05
2.11737e-05
2.09762e-05
2.08008e-05
2.05345e-05
2.02993e-05
2.01793e-05
2.01815e-05
2.00546e-05
1.9998e-05
2.00293e-05
2.00594e-05
2.00555e-05
2.00518e-05
1.99654e-05
1.97735e-05
1.97472e-05
1.97758e-05
1.99016e-05
2.03489e-05
2.09489e-05
2.13784e-05
2.16569e-05
2.22173e-05
2.25625e-05
2.02239e-05
1.80154e-05
1.31016e-05
1.24842e-05
1.38094e-05
1.75935e-05
2.21046e-05
2.57145e-05
3.17037e-05
4.37792e-05
6.07947e-05
7.6472e-05
8.91095e-05
9.66315e-05
0.00010136
0.000104357
0.000110782
0.00011497
3.00914e-05
9.76835e-05
0.000126012
0.000171858
0.000263307
0.000338931
0.000381708
0.000416676
0.000465419
0.000524626
0.000581196
0.00062079
0.000636218
0.000637432
0.000635635
0.00063197
0.000631511
0.000632008
0.00213785
0.00226264
0.00229943
0.00229578
0.00225269
0.0021365
0.00201959
0.00192106
0.0018336
0.00173966
0.00162914
0.00150688
0.0013878
0.00128721
0.00121401
0.00116905
0.00114692
0.00113942
1.32144e-07
2.34701e-07
6.17817e-07
1.68008e-06
3.02698e-06
4.42639e-06
5.57776e-06
6.19725e-06
6.42288e-06
6.13852e-06
5.44534e-06
4.4944e-06
3.4374e-06
2.42577e-06
1.57023e-06
9.2638e-07
5.0353e-07
2.69994e-07
1.59256e-07
1.17212e-07
1.41258e-07
1.69935e-07
2.01783e-07
2.34229e-07
2.66216e-07
2.96281e-07
3.24561e-07
3.50268e-07
3.71847e-07
3.85719e-07
3.928e-07
3.95274e-07
3.89432e-07
3.70053e-07
3.4765e-07
3.01462e-07
2.65304e-07
2.25223e-07
1.65542e-07
1.35739e-07
1.15526e-07
9.86093e-08
8.3795e-08
7.09717e-08
5.99906e-08
5.06202e-08
4.25592e-08
3.55642e-08
2.94878e-08
2.42511e-08
1.97873e-08
1.60223e-08
1.28761e-08
1.02686e-08
8.12522e-09
6.37812e-09
4.96608e-09
3.83473e-09
2.93611e-09
2.22895e-09
1.67755e-09
1.25159e-09
9.25748e-10
6.78562e-10
4.92837e-10
3.54716e-10
2.52757e-10
1.78223e-10
1.24414e-10
8.60436e-11
5.8992e-11
4.01178e-11
2.70741e-11
1.8139e-11
1.20687e-11
7.97686e-12
5.23898e-12
3.42e-12
2.21971e-12
1.43286e-12
9.20271e-13
5.88345e-13
3.74595e-13
2.37637e-13
1.50273e-13
9.47632e-14
5.96171e-14
3.74358e-14
2.34773e-14
1.47172e-14
9.23384e-15
5.80906e-15
3.6744e-15
2.34738e-15
1.52476e-15
1.01548e-15
7.00495e-16
5.06689e-16
3.8865e-16
3.17473e-16
2.74839e-16
2.49519e-16
2.34827e-16
2.2681e-16
2.23086e-16
2.22054e-16
2.22045e-16
2.22045e-16
2.22045e-16
2.22045e-16
2.22045e-16
2.22045e-16
2.22045e-16
2.22045e-16
2.22045e-16
2.22045e-16
2.22045e-16
2.22045e-16
2.22045e-16
2.22045e-16
2.22045e-16
2.22045e-16
2.22045e-16
2.22045e-16
2.22045e-16
2.22045e-16
2.22045e-16
2.22045e-16
2.22045e-16
2.22045e-16
2.22045e-16
2.22045e-16
2.22045e-16
2.22045e-16
2.22045e-16
2.22045e-16
2.22045e-16
2.22045e-16
2.22045e-16
2.22045e-16
2.22045e-16
2.22045e-16
2.22045e-16
2.22045e-16
2.22045e-16
2.22045e-16
2.22045e-16
2.22045e-16
2.22045e-16
2.22045e-16
2.22045e-16
2.22045e-16
2.22045e-16
2.22045e-16
2.22045e-16
2.22045e-16
2.22045e-16
2.22045e-16
2.22045e-16
2.22045e-16
2.22045e-16
2.22045e-16
2.22045e-16
2.22045e-16
2.23494e-16
2.63021e-16
6.01652e-16
2.81492e-15
1.50914e-14
7.46531e-14
3.32052e-13
1.33896e-12
4.96992e-12
1.74742e-11
6.07807e-11
3.05095e-10
1.42432e-09
6.45899e-09
1.40756e-08
9.34885e-08
6.51921e-07
9.86327e-07
9.76007e-07
8.8142e-07
9.01787e-07
1.13615e-06
1.38295e-06
1.43028e-06
1.28886e-06
1.09718e-06
9.28078e-07
8.01577e-07
7.27852e-07
6.96861e-07
7.119e-07
7.78071e-07
8.87718e-07
1.04504e-06
1.24681e-06
1.492e-06
1.77951e-06
2.09559e-06
2.43115e-06
2.77369e-06
3.11663e-06
3.4583e-06
3.78161e-06
4.06529e-06
4.30104e-06
4.5112e-06
4.67977e-06
4.80355e-06
4.85083e-06
4.8506e-06
4.8255e-06
4.6299e-06
4.10072e-06
3.37594e-06
2.65258e-06
2.03368e-06
1.61684e-06
1.36652e-06
1.153e-06
9.6869e-07
8.13615e-07
6.86267e-07
5.81585e-07
4.93733e-07
4.17373e-07
3.50395e-07
2.9209e-07
2.41858e-07
1.9897e-07
1.62603e-07
1.31955e-07
1.06307e-07
8.50022e-08
6.7439e-08
5.3069e-08
4.14097e-08
3.20312e-08
2.4555e-08
1.86567e-08
1.404e-08
1.04617e-08
7.72214e-09
5.63414e-09
4.06134e-09
2.89919e-09
2.05242e-09
1.44218e-09
1.00639e-09
6.97686e-10
4.80613e-10
3.29039e-10
2.23914e-10
1.51481e-10
1.01892e-10
6.81564e-11
4.53483e-11
3.00224e-11
1.97857e-11
1.29866e-11
8.49382e-12
5.53764e-12
3.59935e-12
2.33243e-12
1.50686e-12
9.70511e-13
6.2314e-13
3.98891e-13
2.54575e-13
1.6196e-13
1.02733e-13
6.50198e-14
4.10628e-14
2.58511e-14
1.62405e-14
1.02359e-14
6.51298e-15
4.19843e-15
2.74362e-15
1.81995e-15
1.23173e-15
8.57271e-16
6.19612e-16
4.70638e-16
3.78116e-16
3.2084e-16
2.85315e-16
2.63113e-16
2.49068e-16
2.40054e-16
2.34186e-16
2.30317e-16
2.2774e-16
2.26007e-16
2.24831e-16
2.24026e-16
2.2347e-16
2.2308e-16
2.22804e-16
2.22606e-16
2.22463e-16
2.22358e-16
2.2228e-16
2.22222e-16
2.22178e-16
2.22146e-16
2.22121e-16
2.22101e-16
2.22087e-16
2.22076e-16
2.22068e-16
2.22061e-16
2.22056e-16
2.22051e-16
2.22048e-16
2.22046e-16
2.22045e-16
2.22045e-16
2.22045e-16
2.22045e-16
2.22045e-16
2.22045e-16
2.22045e-16
2.22045e-16
2.22045e-16
2.22045e-16
2.22045e-16
2.22045e-16
2.22045e-16
2.22045e-16
2.22045e-16
2.22045e-16
2.22045e-16
2.22045e-16
2.22045e-16
2.22045e-16
2.22045e-16
2.22045e-16
2.22045e-16
2.22045e-16
2.22052e-16
2.22193e-16
2.23824e-16
2.3743e-16
3.30091e-16
8.70476e-16
3.63189e-15
1.62401e-14
6.81634e-14
2.66987e-13
9.74739e-13
3.53871e-12
1.49103e-11
7.37664e-11
2.93149e-10
1.07359e-09
1.12251e-08
7.12621e-07
1.17623e-06
1.72559e-06
1.74771e-06
1.69986e-06
1.72276e-06
1.77849e-06
1.81684e-06
1.86148e-06
1.94351e-06
2.07457e-06
2.26701e-06
2.53758e-06
2.90757e-06
3.38444e-06
3.97129e-06
4.67463e-06
5.49166e-06
6.43142e-06
7.49178e-06
8.66164e-06
9.93081e-06
1.12848e-05
1.26923e-05
1.41303e-05
1.55869e-05
1.69936e-05
1.82602e-05
1.93287e-05
2.01224e-05
2.05465e-05
2.06852e-05
2.04394e-05
1.98557e-05
1.89702e-05
1.78316e-05
1.64899e-05
1.50068e-05
1.3441e-05
1.18607e-05
1.02893e-05
8.77129e-06
7.36248e-06
6.10032e-06
5.01281e-06
4.12249e-06
3.42261e-06
2.90105e-06
2.48647e-06
2.12115e-06
1.79795e-06
1.51468e-06
1.26907e-06
1.05758e-06
8.75922e-07
7.20586e-07
5.88644e-07
4.773e-07
3.83925e-07
3.06173e-07
2.41913e-07
1.89264e-07
1.46594e-07
1.12315e-07
8.5041e-08
6.36878e-08
4.69513e-08
3.40669e-08
2.46355e-08
1.77649e-08
1.27687e-08
9.14512e-09
6.52454e-09
4.63553e-09
3.27898e-09
2.30888e-09
1.61825e-09
1.12889e-09
7.83862e-10
5.41834e-10
3.72962e-10
2.55777e-10
1.74896e-10
1.19354e-10
8.13408e-11
5.5351e-11
3.75788e-11
2.54352e-11
1.71534e-11
1.15216e-11
7.70558e-12
5.13033e-12
3.39925e-12
2.24129e-12
1.47153e-12
9.61897e-13
6.24654e-13
4.03201e-13
2.61136e-13
1.70875e-13
1.12473e-13
7.38395e-14
4.79737e-14
3.08748e-14
1.97546e-14
1.25964e-14
8.02985e-15
5.16878e-15
3.39088e-15
2.27606e-15
1.56832e-15
1.11296e-15
8.1641e-16
6.214e-16
4.9228e-16
4.06311e-16
3.48826e-16
3.10145e-16
2.83953e-16
2.66056e-16
2.53683e-16
2.4505e-16
2.38937e-16
2.34547e-16
2.31376e-16
2.29053e-16
2.27321e-16
2.26035e-16
2.2508e-16
2.24351e-16
2.23786e-16
2.2336e-16
2.23047e-16
2.22808e-16
2.22612e-16
2.22446e-16
2.22313e-16
2.22215e-16
2.22149e-16
2.22109e-16
2.22085e-16
2.22072e-16
2.22063e-16
2.22058e-16
2.22054e-16
2.22052e-16
2.2205e-16
2.22048e-16
2.22047e-16
2.22047e-16
2.22046e-16
2.22045e-16
2.22045e-16
2.22045e-16
2.22045e-16
2.22045e-16
2.22045e-16
2.22045e-16
2.22045e-16
2.22045e-16
2.22045e-16
2.22045e-16
2.22045e-16
2.22045e-16
2.22051e-16
2.2211e-16
2.22599e-16
2.2599e-16
2.46301e-16
3.52975e-16
8.54396e-16
2.9773e-15
1.13408e-14
4.17421e-14
1.5256e-13
5.8073e-13
2.66635e-12
1.0597e-11
4.71841e-11
6.8276e-10
7.05159e-07
1.07812e-06
1.89846e-06
2.41675e-06
2.5782e-06
2.66296e-06
2.76852e-06
2.92669e-06
3.15111e-06
3.45311e-06
3.84909e-06
4.3616e-06
5.01377e-06
5.83045e-06
6.83494e-06
8.05177e-06
9.5024e-06
1.12008e-05
1.31606e-05
1.53775e-05
1.78303e-05
2.04559e-05
2.30759e-05
2.55873e-05
2.78999e-05
2.99209e-05
3.15684e-05
3.27653e-05
3.34453e-05
3.37247e-05
3.35594e-05
3.29315e-05
3.19344e-05
3.0625e-05
2.90563e-05
2.72891e-05
2.53785e-05
2.33772e-05
2.13307e-05
1.92834e-05
1.73094e-05
1.5443e-05
1.36994e-05
1.20876e-05
1.06112e-05
9.26989e-06
8.06013e-06
6.97625e-06
6.01097e-06
5.15589e-06
4.40204e-06
3.74051e-06
3.16339e-06
2.66386e-06
2.2333e-06
1.86298e-06
1.54608e-06
1.27632e-06
1.04763e-06
8.54544e-07
6.92444e-07
5.57092e-07
4.44764e-07
3.52275e-07
2.76629e-07
2.15234e-07
1.65873e-07
1.26839e-07
9.55639e-08
7.11878e-08
5.30146e-08
3.9439e-08
2.92821e-08
2.16801e-08
1.59967e-08
1.17577e-08
8.60623e-09
6.27198e-09
4.55041e-09
3.28663e-09
2.36372e-09
1.69362e-09
1.21003e-09
8.64118e-10
6.18704e-10
4.44891e-10
3.1988e-10
2.29182e-10
1.63321e-10
1.15681e-10
8.13868e-11
5.68681e-11
3.94648e-11
2.72035e-11
1.86276e-11
1.26729e-11
8.57081e-12
5.76485e-12
3.8545e-12
2.56213e-12
1.69539e-12
1.11813e-12
7.35791e-13
4.83729e-13
3.18225e-13
2.09819e-13
1.38797e-13
9.2146e-14
6.13724e-14
4.09835e-14
2.74202e-14
1.83757e-14
1.23432e-14
8.32423e-15
5.65305e-15
3.88027e-15
2.70429e-15
1.92227e-15
1.4001e-15
1.04878e-15
8.09815e-16
6.45455e-16
5.30674e-16
4.49316e-16
3.91106e-16
3.4887e-16
3.1771e-16
2.9469e-16
2.7761e-16
2.64598e-16
2.54538e-16
2.46915e-16
2.41228e-16
2.3684e-16
2.33249e-16
2.30263e-16
2.27881e-16
2.26108e-16
2.24873e-16
2.24048e-16
2.23501e-16
2.23129e-16
2.22866e-16
2.22672e-16
2.22526e-16
2.22413e-16
2.22324e-16
2.22256e-16
2.22197e-16
2.22158e-16
2.22118e-16
2.22081e-16
2.22059e-16
2.22048e-16
2.22045e-16
2.22045e-16
2.22045e-16
2.22045e-16
2.22046e-16
2.22048e-16
2.2205e-16
2.22052e-16
2.22052e-16
2.22055e-16
2.22068e-16
2.22093e-16
2.22153e-16
2.22352e-16
2.2323e-16
2.274e-16
2.46637e-16
3.29787e-16
6.76343e-16
2.09651e-15
8.11453e-15
3.26432e-14
1.59227e-13
5.54408e-13
2.36184e-12
4.39001e-11
6.9941e-07
9.26543e-07
1.83342e-06
2.5909e-06
2.83523e-06
2.95542e-06
3.1032e-06
3.33963e-06
3.65948e-06
4.09255e-06
4.6679e-06
5.44233e-06
6.47009e-06
7.81498e-06
9.51161e-06
1.16206e-05
1.41913e-05
1.72692e-05
2.08721e-05
2.49731e-05
2.94958e-05
3.42779e-05
3.88404e-05
4.29441e-05
4.63848e-05
4.90447e-05
5.07109e-05
5.14078e-05
5.15037e-05
5.05643e-05
4.89465e-05
4.67659e-05
4.41374e-05
4.12088e-05
3.80877e-05
3.48923e-05
3.17062e-05
2.86002e-05
2.56289e-05
2.28265e-05
2.02161e-05
1.78119e-05
1.56189e-05
1.36358e-05
1.18556e-05
1.0268e-05
8.86003e-06
7.61816e-06
6.52823e-06
5.57574e-06
4.74656e-06
4.02647e-06
3.40176e-06
2.86061e-06
2.39552e-06
1.99889e-06
1.66195e-06
1.37693e-06
1.13694e-06
9.35281e-07
7.66642e-07
6.26392e-07
5.09962e-07
4.13513e-07
3.33896e-07
2.68441e-07
2.1486e-07
1.71197e-07
1.35773e-07
1.07169e-07
8.41846e-08
6.58066e-08
5.11843e-08
3.96084e-08
3.04905e-08
2.33459e-08
1.7777e-08
1.34596e-08
1.01309e-08
7.57912e-09
5.63421e-09
4.16076e-09
3.05142e-09
2.22159e-09
1.60497e-09
1.15e-09
8.16714e-10
5.7456e-10
3.99903e-10
2.75307e-10
1.86903e-10
1.25381e-10
8.33262e-11
5.4822e-11
3.56795e-11
2.29528e-11
1.45826e-11
9.14065e-12
5.64593e-12
3.43175e-12
2.04959e-12
1.20092e-12
6.89328e-13
3.87125e-13
2.12494e-13
1.13952e-13
5.97347e-14
3.07059e-14
1.56064e-14
7.94789e-15
4.14871e-15
2.2717e-15
1.34479e-15
9.05382e-16
7.7206e-16
7.64397e-16
7.75416e-16
8.14044e-16
8.48354e-16
8.5926e-16
8.49932e-16
8.24542e-16
7.83104e-16
7.33185e-16
6.78481e-16
6.23041e-16
5.69634e-16
5.19997e-16
4.75071e-16
4.35193e-16
4.00343e-16
3.70318e-16
3.44756e-16
3.23171e-16
3.05047e-16
2.8992e-16
2.77384e-16
2.67066e-16
2.58612e-16
2.51705e-16
2.46067e-16
2.41462e-16
2.37707e-16
2.34625e-16
2.32112e-16
2.30028e-16
2.28273e-16
2.26899e-16
2.25411e-16
2.24601e-16
2.23075e-16
2.22045e-16
2.22045e-16
2.22045e-16
2.22045e-16
2.22045e-16
2.22045e-16
2.22045e-16
2.22045e-16
2.22045e-16
2.22045e-16
2.22177e-16
2.22567e-16
2.23568e-16
2.24944e-16
2.27134e-16
2.3128e-16
2.39773e-16
2.60248e-16
3.12709e-16
4.79881e-16
1.21459e-15
5.51535e-15
4.01333e-14
2.76972e-13
1.43063e-12
1.0491e-11
1.5335e-11
4.8385e-11
5.12807e-11
7.1594e-07
9.00477e-07
1.80855e-06
2.66443e-06
2.95101e-06
3.10886e-06
3.33888e-06
3.68256e-06
4.16609e-06
4.88017e-06
5.9154e-06
7.36598e-06
9.37038e-06
1.20769e-05
1.56816e-05
2.03572e-05
2.62525e-05
3.34437e-05
4.18412e-05
5.11936e-05
6.11067e-05
7.10652e-05
7.98491e-05
8.70068e-05
9.19154e-05
9.45476e-05
9.54997e-05
9.43818e-05
9.13615e-05
8.70701e-05
8.1768e-05
7.5799e-05
6.94276e-05
6.29919e-05
5.65949e-05
5.04724e-05
4.46699e-05
3.92726e-05
3.43408e-05
2.98615e-05
2.5837e-05
2.22562e-05
1.90956e-05
1.6327e-05
1.3917e-05
1.183e-05
1.003e-05
8.48319e-06
7.1582e-06
6.02563e-06
5.06075e-06
4.24136e-06
3.54701e-06
2.95909e-06
2.46349e-06
2.04543e-06
1.69288e-06
1.39623e-06
1.14722e-06
9.40224e-07
7.68387e-07
6.25703e-07
5.07628e-07
4.1031e-07
3.30399e-07
2.65023e-07
2.11737e-07
1.68473e-07
1.33484e-07
1.05304e-07
8.27014e-08
6.46521e-08
5.03029e-08
3.89475e-08
3.0004e-08
2.29943e-08
1.75278e-08
1.32868e-08
1.0014e-08
7.50228e-09
5.58557e-09
4.13148e-09
3.03509e-09
2.21362e-09
1.60222e-09
1.1503e-09
8.18728e-10
5.77261e-10
4.02965e-10
2.78103e-10
1.89732e-10
1.27475e-10
8.48379e-11
5.58869e-11
3.64119e-11
2.34443e-11
1.49039e-11
9.34482e-12
5.77153e-12
3.50606e-12
2.09146e-12
1.22296e-12
6.99667e-13
3.90858e-13
2.1278e-13
1.12672e-13
5.79411e-14
2.89124e-14
1.40113e-14
6.6236e-15
3.09207e-15
1.46572e-15
7.45059e-16
4.36849e-16
3.10084e-16
2.60002e-16
2.40848e-16
2.34183e-16
2.32292e-16
2.3219e-16
2.33207e-16
2.34361e-16
2.35062e-16
2.35286e-16
2.35074e-16
2.34686e-16
2.34112e-16
2.33315e-16
2.32371e-16
2.31375e-16
2.30369e-16
2.29387e-16
2.28458e-16
2.27596e-16
2.26811e-16
2.26106e-16
2.25484e-16
2.24942e-16
2.24475e-16
2.24076e-16
2.23736e-16
2.23448e-16
2.23205e-16
2.22999e-16
2.22829e-16
2.22683e-16
2.22564e-16
2.22465e-16
2.22372e-16
2.22308e-16
2.22237e-16
2.22169e-16
2.22123e-16
2.22095e-16
2.22076e-16
2.22057e-16
2.22054e-16
2.22166e-16
2.23091e-16
2.25981e-16
2.32741e-16
2.47629e-16
2.7417e-16
3.27395e-16
4.257e-16
6.26865e-16
1.06178e-15
2.06566e-15
4.51769e-15
1.08471e-14
2.75287e-14
7.28177e-14
1.95322e-13
5.15528e-13
1.3737e-12
3.17157e-12
1.29246e-11
1.50902e-11
3.23907e-11
3.72949e-11
7.7812e-07
9.10058e-07
1.83304e-06
2.74742e-06
3.07083e-06
3.28347e-06
3.6301e-06
4.19894e-06
5.08289e-06
6.4566e-06
8.53998e-06
1.16517e-05
1.62095e-05
2.27104e-05
3.16769e-05
4.35319e-05
5.84763e-05
7.63083e-05
9.63284e-05
0.000117461
0.000138323
0.000157279
0.000172333
0.000181683
0.000185492
0.000185872
0.000180381
0.000172733
0.000160882
0.000148362
0.000134774
0.000120933
0.000107331
9.45706e-05
8.2614e-05
7.18449e-05
6.20489e-05
5.34176e-05
4.58645e-05
3.91283e-05
3.32169e-05
2.80728e-05
2.36233e-05
1.9816e-05
1.65806e-05
1.38447e-05
1.154e-05
9.6041e-06
7.98202e-06
6.62524e-06
5.49198e-06
4.54623e-06
3.75746e-06
3.10054e-06
2.55301e-06
2.09783e-06
1.71999e-06
1.40789e-06
1.15113e-06
9.38845e-07
7.63432e-07
6.18929e-07
5.00213e-07
4.02949e-07
3.23492e-07
2.5878e-07
2.06249e-07
1.63751e-07
1.29493e-07
1.01982e-07
7.99736e-08
6.24393e-08
4.85281e-08
3.75392e-08
2.88978e-08
2.2134e-08
1.68652e-08
1.27814e-08
9.63218e-09
7.21661e-09
5.37394e-09
3.9763e-09
2.92251e-09
2.13284e-09
1.54496e-09
1.11021e-09
7.91083e-10
5.58466e-10
3.90466e-10
2.69898e-10
1.84564e-10
1.24229e-10
8.27955e-11
5.46302e-11
3.5657e-11
2.30025e-11
1.46533e-11
9.20854e-12
5.70184e-12
3.47367e-12
2.07878e-12
1.21984e-12
7.00569e-13
3.9301e-13
2.14932e-13
1.14369e-13
5.91172e-14
2.96535e-14
1.44403e-14
6.85123e-15
3.20101e-15
1.51095e-15
7.58655e-16
4.36951e-16
3.04851e-16
2.52782e-16
2.33077e-16
2.25915e-16
2.23419e-16
2.22579e-16
2.2232e-16
2.22256e-16
2.22247e-16
2.22255e-16
2.22267e-16
2.22274e-16
2.22278e-16
2.22276e-16
2.2227e-16
2.22262e-16
2.22251e-16
2.22237e-16
2.2222e-16
2.22202e-16
2.22185e-16
2.22169e-16
2.22153e-16
2.22139e-16
2.22126e-16
2.22114e-16
2.22104e-16
2.22095e-16
2.22087e-16
2.2208e-16
2.22074e-16
2.22069e-16
2.22065e-16
2.22061e-16
2.22058e-16
2.22056e-16
2.22053e-16
2.22051e-16
2.2205e-16
2.22048e-16
2.22047e-16
2.22045e-16
2.22046e-16
2.22393e-16
2.23693e-16
2.26852e-16
2.33484e-16
2.47558e-16
2.7169e-16
3.20667e-16
4.08565e-16
5.8646e-16
9.63978e-16
1.81831e-15
3.86161e-15
9.01639e-15
2.23723e-14
5.73434e-14
1.50518e-13
3.78034e-13
1.04245e-12
2.12241e-12
8.00837e-12
8.61011e-12
1.01186e-11
1.33888e-11
8.94077e-07
9.48644e-07
1.90857e-06
2.88778e-06
3.23052e-06
3.52902e-06
4.15498e-06
5.22276e-06
7.0079e-06
9.98537e-06
1.48462e-05
2.25861e-05
3.4453e-05
5.18172e-05
7.58445e-05
0.000107071
0.000144938
0.000187582
0.000232195
0.000275449
0.00031276
0.000340162
0.000357407
0.000364227
0.000364301
0.000343322
0.000322288
0.000299615
0.000266438
0.000238447
0.000209114
0.000181585
0.000156146
0.000133569
0.000113552
9.62085e-05
8.11294e-05
6.80443e-05
5.64954e-05
4.68681e-05
3.88808e-05
3.22334e-05
2.67145e-05
2.21365e-05
1.83321e-05
1.51673e-05
1.25342e-05
1.03443e-05
8.52417e-06
7.01475e-06
5.76413e-06
4.7294e-06
3.87554e-06
3.17241e-06
2.59312e-06
2.11794e-06
1.72956e-06
1.41018e-06
1.14679e-06
9.30276e-07
7.52795e-07
6.07629e-07
4.89141e-07
3.92639e-07
3.14225e-07
2.50671e-07
1.993e-07
1.57898e-07
1.24637e-07
9.80029e-08
7.67515e-08
5.98577e-08
4.64799e-08
3.59295e-08
2.76441e-08
2.1166e-08
1.61244e-08
1.22192e-08
9.20932e-09
6.90135e-09
5.14103e-09
3.80586e-09
2.79901e-09
2.04431e-09
1.48221e-09
1.06628e-09
7.60734e-10
5.37844e-10
3.76654e-10
2.60892e-10
1.78753e-10
1.20708e-10
8.05799e-11
5.32646e-11
3.48355e-11
2.25218e-11
1.43816e-11
9.06195e-12
5.6279e-12
3.44021e-12
2.06659e-12
1.21788e-12
7.02825e-13
3.96426e-13
2.1813e-13
1.16868e-13
6.08667e-14
3.07816e-14
1.51189e-14
7.23472e-15
3.40524e-15
1.61359e-15
8.07328e-16
4.58739e-16
3.14052e-16
2.56418e-16
2.34388e-16
2.26308e-16
2.23463e-16
2.225e-16
2.22186e-16
2.22089e-16
2.22059e-16
2.22051e-16
2.22049e-16
2.22048e-16
2.22048e-16
2.22049e-16
2.22049e-16
2.22049e-16
2.22049e-16
2.22048e-16
2.22048e-16
2.22048e-16
2.22048e-16
2.22048e-16
2.22047e-16
2.22047e-16
2.22047e-16
2.22046e-16
2.22046e-16
2.22046e-16
2.22046e-16
2.22046e-16
2.22045e-16
2.22045e-16
2.22045e-16
2.22045e-16
2.22045e-16
2.22045e-16
2.22045e-16
2.22045e-16
2.22045e-16
2.22045e-16
2.22045e-16
2.22045e-16
2.22045e-16
2.2221e-16
2.23168e-16
2.2574e-16
2.31323e-16
2.4262e-16
2.64318e-16
3.05011e-16
3.80082e-16
5.25465e-16
8.28111e-16
1.4939e-15
3.0485e-15
6.82034e-15
1.64009e-14
4.01092e-14
1.01494e-13
2.39399e-13
6.98118e-13
1.21879e-12
3.45231e-12
3.78287e-12
4.03982e-12
4.99438e-12
1.00503e-06
1.04704e-06
2.05993e-06
3.04181e-06
3.44607e-06
4.00501e-06
5.21768e-06
7.44135e-06
1.15288e-05
1.88691e-05
3.15456e-05
5.23629e-05
8.45009e-05
0.000130795
0.000192581
0.000268497
0.000353872
0.000441949
0.00052665
0.000597661
0.000645383
0.000670609
0.000680953
0.000667414
0.000649543
0.000571492
0.000523069
0.000471074
0.000397858
0.000346408
0.000291869
0.00024505
0.000203838
0.000168645
0.000139045
0.0001133
9.20603e-05
7.46845e-05
6.07797e-05
4.96073e-05
4.05781e-05
3.33154e-05
2.74522e-05
2.26532e-05
1.87018e-05
1.54367e-05
1.27328e-05
1.04914e-05
8.63261e-06
7.09293e-06
5.81876e-06
4.76597e-06
3.89806e-06
3.18434e-06
2.59831e-06
2.11574e-06
1.71812e-06
1.39213e-06
1.12584e-06
9.08791e-07
7.32149e-07
5.88597e-07
4.7211e-07
3.77742e-07
3.01433e-07
2.39854e-07
1.90276e-07
1.50458e-07
1.18567e-07
9.31007e-08
7.28283e-08
5.67452e-08
4.40314e-08
3.40189e-08
2.61651e-08
2.00303e-08
1.5259e-08
1.15652e-08
8.71902e-09
6.53685e-09
4.8724e-09
3.60967e-09
2.65708e-09
1.94268e-09
1.41021e-09
1.01591e-09
7.25923e-10
5.14176e-10
3.60784e-10
2.50524e-10
1.72046e-10
1.16622e-10
7.80079e-11
5.1677e-11
3.38777e-11
2.19597e-11
1.40628e-11
8.88916e-12
5.54003e-12
3.3998e-12
2.05129e-12
1.21482e-12
7.04933e-13
4.00084e-13
2.21681e-13
1.19703e-13
6.28921e-14
3.21176e-14
1.59437e-14
7.71441e-15
3.66902e-15
1.75102e-15
8.75263e-16
4.90626e-16
3.28268e-16
2.62442e-16
2.36815e-16
2.27237e-16
2.23799e-16
2.22615e-16
2.22223e-16
2.22098e-16
2.2206e-16
2.22049e-16
2.22046e-16
2.22045e-16
2.22045e-16
2.22045e-16
2.22045e-16
2.22045e-16
2.22045e-16
2.22045e-16
2.22045e-16
2.22045e-16
2.22045e-16
2.22045e-16
2.22045e-16
2.22045e-16
2.22045e-16
2.22045e-16
2.22045e-16
2.22045e-16
2.22045e-16
2.22045e-16
2.22045e-16
2.22045e-16
2.22045e-16
2.22045e-16
2.22045e-16
2.22045e-16
2.22045e-16
2.22045e-16
2.22045e-16
2.22045e-16
2.22045e-16
2.22045e-16
2.22045e-16
2.22046e-16
2.22609e-16
2.2448e-16
2.28802e-16
2.37597e-16
2.56062e-16
2.86991e-16
3.49539e-16
4.62688e-16
6.92833e-16
1.18239e-15
2.28644e-15
4.852e-15
1.1126e-14
2.57565e-14
6.15833e-14
1.34904e-13
3.9846e-13
5.8502e-13
1.02156e-12
1.18152e-12
1.29711e-12
1.67771e-12
1.19001e-06
1.21233e-06
2.2463e-06
3.30174e-06
3.81572e-06
4.98281e-06
7.53887e-06
1.26876e-05
2.28517e-05
4.18708e-05
7.52143e-05
0.000129413
0.000210471
0.000321591
0.000461421
0.000625238
0.000795965
0.000943149
0.00106628
0.00115926
0.00120194
0.00121605
0.00118432
0.0011528
0.00104708
0.000885733
0.000795876
0.000672011
0.000552687
0.000459675
0.000371635
0.000300271
0.000241174
0.000191894
0.000152326
0.00012164
9.67013e-05
7.70947e-05
6.20953e-05
5.01741e-05
4.0657e-05
3.30325e-05
2.69024e-05
2.19864e-05
1.80343e-05
1.48359e-05
1.2227e-05
1.00839e-05
8.31501e-06
6.8482e-06
5.63132e-06
4.6219e-06
3.7839e-06
3.08847e-06
2.51326e-06
2.0401e-06
1.65258e-06
1.33604e-06
1.07804e-06
8.68137e-07
6.97689e-07
5.59525e-07
4.47728e-07
3.5743e-07
2.84633e-07
2.2606e-07
1.79034e-07
1.41364e-07
1.11264e-07
8.72773e-08
6.82182e-08
5.31213e-08
4.12026e-08
3.18262e-08
2.44774e-08
1.87404e-08
1.42803e-08
1.0828e-08
8.16799e-09
6.12817e-09
4.57176e-09
3.39041e-09
2.49862e-09
1.82927e-09
1.3299e-09
9.5969e-10
6.87051e-10
4.87711e-10
3.4301e-10
2.38879e-10
1.64493e-10
1.1199e-10
7.50853e-11
4.98672e-11
3.27816e-11
2.13131e-11
1.36936e-11
8.68695e-12
5.43562e-12
3.3506e-12
2.03172e-12
1.21001e-12
7.06598e-13
4.03887e-13
2.2558e-13
1.22905e-13
6.52289e-14
3.36887e-14
1.69328e-14
8.30192e-15
3.99949e-15
1.92735e-15
9.64594e-16
5.33622e-16
3.47941e-16
2.71005e-16
2.40365e-16
2.2864e-16
2.24329e-16
2.22806e-16
2.22289e-16
2.2212e-16
2.22067e-16
2.22051e-16
2.22046e-16
2.22045e-16
2.22045e-16
2.22045e-16
2.22045e-16
2.22045e-16
2.22045e-16
2.22045e-16
2.22045e-16
2.22045e-16
2.22045e-16
2.22045e-16
2.22045e-16
2.22045e-16
2.22045e-16
2.22045e-16
2.22045e-16
2.22045e-16
2.22045e-16
2.22045e-16
2.22045e-16
2.22045e-16
2.22045e-16
2.22045e-16
2.22045e-16
2.22045e-16
2.22045e-16
2.22045e-16
2.22045e-16
2.22045e-16
2.22045e-16
2.22045e-16
2.22045e-16
2.22045e-16
2.22175e-16
2.23193e-16
2.26051e-16
2.3239e-16
2.44728e-16
2.69943e-16
3.13787e-16
3.993e-16
5.59987e-16
8.8943e-16
1.59968e-15
3.1605e-15
6.76565e-15
1.4562e-14
3.56976e-14
6.58214e-14
1.72547e-13
2.1295e-13
2.27466e-13
2.61537e-13
2.98093e-13
4.27193e-13
1.35298e-06
1.32301e-06
2.41558e-06
3.64841e-06
4.55462e-06
7.05132e-06
1.27909e-05
2.51589e-05
5.03016e-05
9.74118e-05
0.000178275
0.000305063
0.000488138
0.000738742
0.00102926
0.00128264
0.0015306
0.00177403
0.00199723
0.00211014
0.00216728
0.00218835
0.00210466
0.00195294
0.00162361
0.00142325
0.0011757
0.000917028
0.000770147
0.00058455
0.000460533
0.000354583
0.00027423
0.000210878
0.000161796
0.00012485
9.73982e-05
7.67303e-05
6.01587e-05
4.69734e-05
3.67302e-05
2.88725e-05
2.28128e-05
1.81839e-05
1.4666e-05
1.19679e-05
9.86407e-06
8.18666e-06
6.81559e-06
5.68432e-06
4.73948e-06
3.94261e-06
3.26908e-06
2.70111e-06
2.22394e-06
1.82436e-06
1.49091e-06
1.21386e-06
9.84772e-07
7.96226e-07
6.41725e-07
5.15629e-07
4.1309e-07
3.29986e-07
2.62841e-07
2.0875e-07
1.65296e-07
1.30486e-07
1.02677e-07
8.0526e-08
6.29338e-08
4.90056e-08
3.80142e-08
2.93702e-08
2.25968e-08
1.73094e-08
1.31984e-08
1.00156e-08
7.56214e-09
5.67972e-09
4.24238e-09
3.15047e-09
2.32536e-09
1.70533e-09
1.24213e-09
8.98237e-10
6.44546e-10
4.58721e-10
3.23543e-10
2.26048e-10
1.56216e-10
1.06791e-10
7.19545e-11
4.79203e-11
3.16007e-11
2.06176e-11
1.32972e-11
8.47038e-12
5.32453e-12
3.29933e-12
2.01261e-12
1.2068e-12
7.10126e-13
4.09395e-13
2.30871e-13
1.27176e-13
6.83523e-14
3.582e-14
1.83066e-14
9.14259e-15
4.48856e-15
2.19783e-15
1.10673e-15
6.04568e-16
3.81575e-16
2.86154e-16
2.46851e-16
2.31282e-16
2.25354e-16
2.23185e-16
2.22423e-16
2.22165e-16
2.22082e-16
2.22056e-16
2.22048e-16
2.22045e-16
2.22045e-16
2.22045e-16