/*--------------------------------*- C++ -*----------------------------------*\
  =========                 |
  \\      /  F ield         | OpenFOAM: The Open Source CFD Toolbox
   \\    /   O peration     | Website:  https://openfoam.org
    \\  /    A nd           | Version:  7
     \\/     M anipulation  |
\*---------------------------------------------------------------------------*/
FoamFile
{
    version     2.0;
    format      ascii;
    class       volScalarField;
    location    "0.01";
    object      nut;
}
// * * * * * * * * * * * * * * * * * * * * * * * * * * * * * * * * * * * * * //

dimensions      [0 2 -1 0 0 0 0];

internalField   nonuniform List<scalar> 
12225
(
0
0
0
0
0
0
0
0
0
0
0
0
0
0
0
0
0
2.70944e-10
0
0
0
0
0
0
1.54832e-11
0
0
0
0
0
0
0
0
0
0
0
0
0
0
0
0
3.12087e-10
6.91254e-10
0
0
0
0
0
0
0
0
0
0
0
0
8.06162e-09
5.54044e-09
1.06775e-09
5.00646e-10
1.29198e-09
1.41005e-09
0
0
0
0
0
0
0
0
0
0
9.3185e-10
1.01537e-07
2.82036e-07
1.40341e-07
0
0
0
0
0
0
1.59022e-09
6.98906e-10
0
0
0
0
0
1.6698e-09
3.96965e-09
1.61006e-07
2.31884e-07
2.01494e-07
0
0
0
0
0
0
0
7.84178e-09
0
0
0
0
0
0
0
2.39184e-07
2.83768e-07
2.48758e-07
1.67806e-08
0
0
0
0
0
0
0
0
0
0
0
0
0
0
0
3.21017e-07
2.6002e-07
5.19388e-08
0
0
0
0
0
0
0
0
0
0
0
0
0
0
0
3.19904e-07
1.80219e-07
1.13836e-08
4.74685e-09
7.43115e-08
0
0
0
0
0
0
8.89537e-09
0
0
0
0
0
0
2.26486e-07
2.5053e-07
5.64022e-08
6.08553e-08
8.68558e-08
0
0
0
0
0
0
1.8731e-08
0
0
0
0
0
0
0
2.28371e-07
7.3054e-08
3.403e-08
6.43602e-08
1.32627e-08
0
0
0
0
0
0
0
0
0
0
0
0
0
0
3.21288e-07
1.42181e-07
4.88126e-08
1.46001e-07
5.51688e-07
5.91694e-07
0
0
0
0
0
0
0
0
0
0
0
0
3.91124e-07
4.32465e-07
4.49627e-07
6.16373e-07
5.47801e-07
1.42385e-07
0
0
0
0
0
0
0
0
0
0
0
5.79265e-07
0
1.96162e-07
3.18321e-07
2.93567e-07
1.93599e-07
7.64547e-08
0
0
0
0
0
8.6265e-08
8.92454e-08
1.48115e-08
0
6.42869e-08
6.92251e-08
4.51987e-08
5.10933e-07
5.23707e-07
8.01873e-08
0
0
0
0
0
0
0
1.1052e-07
1.87745e-07
1.64182e-07
9.37466e-08
5.51014e-09
3.1835e-08
0
2.23361e-07
8.93714e-07
7.04033e-07
1.35761e-07
0
0
0
0
0
0
0
0
9.75383e-08
2.53371e-07
2.49718e-07
1.58003e-07
6.04985e-08
0
3.50902e-07
9.1291e-07
4.6929e-07
0
0
0
0
0
0
0
0
0
8.36599e-08
1.51305e-06
1.57267e-06
1.0534e-06
0
0
4.94661e-07
4.11471e-07
0
0
0
0
0
0
2.10246e-07
2.49601e-07
3.33728e-07
4.55749e-07
5.66461e-07
6.25999e-07
4.93406e-07
1.52002e-08
3.52075e-07
3.12482e-07
2.4028e-07
0
0
0
0
2.9194e-07
3.44391e-07
3.07998e-07
0
0
0
0
0
0
0
0
4.02794e-09
4.22312e-07
5.96847e-07
6.79549e-07
2.42952e-07
0
0
0
5.58594e-08
0
0
0
0
1.22989e-07
1.65605e-09
0
0
2.27925e-07
0
0
1.07909e-09
2.74007e-07
7.33496e-08
0
0
1.1485e-07
0
0
0
0
0
0
0
6.30396e-08
3.31781e-07
5.30759e-07
0
0
0
0
0
0
4.21046e-07
3.86192e-07
1.12384e-07
0
0
0
0
0
0
8.37722e-08
2.77339e-07
4.35047e-07
0
0
0
0
0
2.63232e-07
3.49865e-07
1.6053e-07
0
0
0
0
2.83244e-08
1.38655e-07
1.99606e-07
7.36268e-07
1.54199e-06
1.789e-06
0
0
0
0
1.40065e-07
3.66414e-07
4.57506e-07
3.75351e-07
1.05421e-07
0
0
0
3.95634e-08
1.22401e-07
2.15172e-07
3.58972e-07
4.91114e-07
5.4938e-07
4.64134e-09
0
0
6.69809e-08
2.88267e-07
4.19209e-07
5.0237e-07
4.77909e-07
2.71998e-07
7.10168e-09
0
0
4.3205e-08
9.84072e-08
1.07034e-07
9.22232e-08
6.85506e-08
4.22302e-08
9.65453e-08
0
0
4.40833e-08
1.81169e-07
2.43708e-07
3.30679e-07
4.1319e-07
3.85657e-07
2.29536e-07
5.27788e-08
0
1.17478e-08
6.31381e-08
8.11367e-08
6.11832e-08
2.52312e-08
0
4.66167e-08
0
0
0
0
0
0
0
0
0
0
0
0
0
0
0
0
0
7.35281e-09
0
0
0
0
0
0
0
0
0
0
0
0
0
0
0
0
0
8.26381e-09
0
0
0
0
0
0
0
0
0
0
0
0
0
0
0
0
0
6.11875e-08
0
0
0
0
0
0
0
0
0
0
0
0
0
0
0
0
0
0
0
2.39738e-09
1.27116e-08
2.32595e-08
3.08404e-08
3.45663e-08
3.47214e-08
3.28197e-08
2.93035e-08
2.48874e-08
2.01384e-08
1.54684e-08
1.1217e-08
7.61117e-09
4.76673e-09
2.71921e-09
1.40683e-09
6.2779e-10
1.43944e-10
0
0
0
0
0
0
0
0
0
0
0
0
0
0
0
0
0
1.11767e-09
1.08837e-09
0
0
0
0
0
0
0
0
0
0
0
0
0
0
0
0
0
0
0
0
0
0
0
0
0
0
0
0
0
0
0
0
0
0
0
0
0
0
0
0
0
0
0
0
0
0
0
0
0
0
0
0
0
0
0
0
0
0
0
0
0
0
0
0
0
0
0
0
0
0
0
0
0
0
0
0
0
0
0
0
0
0
0
0
0
0
0
0
0
0
0
0
0
0
0
0
0
0
0
0
0
0
0
0
0
0
0
0
0
0
0
0
0
0
0
0
0
0
0
0
0
0
0
0
0
0
0
0
0
0
0
0
0
0
0
0
0
0
0
0
0
0
0
0
0
0
9.8248e-10
8.28914e-09
1.28519e-08
1.40832e-08
1.32714e-08
1.16512e-08
9.8978e-09
8.34735e-09
7.02779e-09
5.93362e-09
4.99254e-09
4.06819e-09
3.07899e-09
1.94103e-09
5.84718e-10
0
0
0
0
0
0
0
0
0
0
0
0
0
0
0
1.78717e-08
3.10513e-08
3.26454e-08
2.56329e-08
1.42916e-08
3.22719e-09
0
0
0
0
0
0
0
0
0
0
0
0
0
0
0
0
0
0
0
0
0
0
0
0
0
0
0
0
0
0
0
0
0
0
0
0
0
0
0
0
0
0
0
0
0
0
0
0
0
0
0
0
0
0
0
0
0
0
0
0
0
0
0
0
0
0
0
0
0
0
0
0
0
0
0
0
0
0
0
0
0
0
0
0
0
0
0
0
0
0
0
0
0
0
0
0
0
0
0
0
0
0
0
0
0
0
0
0
0
0
0
0
0
0
0
0
0
0
0
0
0
0
0
0
0
0
0
0
0
0
0
0
0
0
0
0
0
0
0
0
0
0
0
0
0
0
0
0
0
0
0
0
0
0
0
0
0
0
0
0
0
0
0
0
8.54006e-10
1.3174e-08
2.87494e-08
4.55081e-08
6.15226e-08
7.52536e-08
8.60679e-08
9.36803e-08
9.83015e-08
1.00027e-07
9.90741e-08
9.57816e-08
9.04336e-08
8.33155e-08
7.48315e-08
6.52195e-08
5.47716e-08
4.38868e-08
3.30218e-08
2.27194e-08
1.35489e-08
5.93641e-09
1.02753e-10
0
0
0
0
0
0
0
0
0
0
0
0
0
0
0
0
0
0
0
0
0
0
0
0
0
0
0
0
0
0
0
0
0
0
0
0
0
0
0
0
0
0
0
0
0
0
0
0
0
0
0
0
0
0
0
0
0
0
0
0
0
0
0
0
0
0
0
0
0
0
0
0
0
0
0
0
0
0
0
0
0
0
0
0
0
0
0
0
0
0
0
0
0
0
0
0
0
0
0
0
0
0
0
0
0
0
0
0
0
0
0
0
0
0
0
0
0
0
0
0
0
0
0
0
0
0
0
0
0
0
0
0
0
0
0
0
0
0
0
0
0
0
0
0
0
0
0
0
0
0
0
0
0
1.83708e-08
4.21007e-08
6.51662e-08
8.6213e-08
1.04455e-07
1.19327e-07
1.3067e-07
1.38654e-07
1.43806e-07
1.46333e-07
1.46494e-07
1.44763e-07
1.41536e-07
1.37096e-07
1.3169e-07
1.2554e-07
1.18851e-07
1.11788e-07
1.0451e-07
9.72553e-08
9.01473e-08
8.32544e-08
7.66252e-08
7.02926e-08
6.42772e-08
5.85894e-08
5.32328e-08
4.82044e-08
4.34969e-08
3.90993e-08
3.49993e-08
3.11874e-08
2.76587e-08
2.43977e-08
2.13847e-08
1.86075e-08
1.60546e-08
1.37131e-08
1.15715e-08
9.62152e-09
7.85554e-09
6.268e-09
4.85577e-09
3.61568e-09
2.546e-09
1.64566e-09
9.13412e-10
3.41715e-10
0
0
0
0
0
0
0
0
0
0
0
0
0
0
0
0
2.66663e-12
6.84919e-12
8.94859e-12
9.65754e-12
9.48363e-12
8.79174e-12
7.83456e-12
6.7785e-12
5.73404e-12
4.76415e-12
3.89612e-12
3.14661e-12
2.51761e-12
1.99262e-12
1.5626e-12
1.22114e-12
9.47735e-13
7.3068e-13
5.65576e-13
4.4023e-13
3.44173e-13
2.6849e-13
2.08612e-13
1.61877e-13
1.2526e-13
9.65108e-14
7.40448e-14
5.66332e-14
4.32631e-14
3.30911e-14
2.54085e-14
1.96402e-14
1.53238e-14
1.21005e-14
9.69095e-15
7.88233e-15
6.51686e-15
5.47553e-15
4.67199e-15
4.04507e-15
3.54835e-15
3.14791e-15
2.8212e-15
2.5508e-15
2.32246e-15
2.12693e-15
1.95852e-15
1.81229e-15
1.68351e-15
1.56865e-15
1.46573e-15
1.37355e-15
1.29108e-15
1.21714e-15
1.15055e-15
1.09029e-15
1.03551e-15
9.85567e-16
9.39905e-16
8.98016e-16
8.59415e-16
8.23643e-16
7.90243e-16
7.58713e-16
7.28577e-16
6.9929e-16
6.70291e-16
6.40954e-16
6.10535e-16
5.78165e-16
5.42791e-16
5.03137e-16
4.57616e-16
4.04303e-16
3.4079e-16
2.63881e-16
1.7041e-16
5.325e-17
0
0
0
0
0
0
0
0
0
0
0
0
0
0
0
0
0
0
0
0
0
0
0
0
0
0
0
0
0
0
0
0
0
0
0
0
0
0
1.7214e-08
4.50638e-08
7.31802e-08
9.96546e-08
1.23056e-07
1.42167e-07
1.56563e-07
1.66865e-07
1.7259e-07
1.74582e-07
1.73515e-07
1.69949e-07
1.64435e-07
1.57449e-07
1.49478e-07
1.40888e-07
1.31959e-07
1.22935e-07
1.14019e-07
1.05342e-07
9.69968e-08
8.90466e-08
8.15306e-08
7.44688e-08
6.78661e-08
6.17177e-08
5.60128e-08
5.07359e-08
4.58672e-08
4.13845e-08
3.72612e-08
3.34675e-08
2.99769e-08
2.67812e-08
2.38704e-08
2.12249e-08
1.88267e-08
1.66591e-08
1.47017e-08
1.29397e-08
1.13597e-08
9.94439e-09
8.67815e-09
7.54792e-09
6.54191e-09
5.64915e-09
4.85949e-09
4.16328e-09
3.5516e-09
3.01621e-09
2.5494e-09
2.144e-09
1.79338e-09
1.49144e-09
1.2326e-09
1.01176e-09
8.24277e-10
6.65969e-10
5.33055e-10
4.22145e-10
3.30212e-10
2.54563e-10
1.92815e-10
1.42864e-10
1.02869e-10
7.12284e-11
4.65559e-11
2.76377e-11
1.34532e-11
3.11406e-12
0
0
0
0
0
0
0
0
0
0
0
0
0
0
0
0
0
0
0
0
0
0
1.69776e-14
3.77692e-14
5.53645e-14
6.97608e-14
8.22574e-14
9.18359e-14
9.76569e-14
1.00121e-13
9.98009e-14
9.70575e-14
9.26961e-14
8.72606e-14
8.12677e-14
7.5114e-14
6.90734e-14
6.33316e-14
5.79912e-14
5.31094e-14
4.87009e-14
4.47585e-14
4.12484e-14
3.81347e-14
3.53746e-14
3.29333e-14
3.07707e-14
2.88538e-14
2.71472e-14
2.56231e-14
2.42552e-14
2.30223e-14
2.19052e-14
2.08882e-14
1.99557e-14
1.90942e-14
1.82979e-14
1.75383e-14
1.68377e-14
1.61339e-14
1.54621e-14
1.48267e-14
1.41786e-14
1.35039e-14
1.27875e-14
1.20111e-14
1.11546e-14
1.01935e-14
9.10391e-15
7.85095e-15
6.42378e-15
4.75817e-15
2.93031e-15
7.5227e-16
0
0
0
0
0
8.78565e-15
6.21821e-14
3.79951e-13
1.85721e-12
9.81763e-12
2.13801e-11
7.84975e-11
1.96115e-11
7.58178e-11
0
0
0
0
0
0
0
0
0
0
0
0
0
0
0
0
0
0
0
0
0
0
1.7501e-08
5.49657e-08
9.32423e-08
1.29332e-07
1.60797e-07
1.86584e-07
2.05603e-07
2.17695e-07
2.23643e-07
2.24203e-07
2.2047e-07
2.13332e-07
2.03755e-07
1.92414e-07
1.8021e-07
1.67551e-07
1.54764e-07
1.42208e-07
1.30115e-07
1.1863e-07
1.07836e-07
9.77738e-08
8.84623e-08
7.98935e-08
7.20407e-08
6.48662e-08
5.83269e-08
5.23782e-08
4.69718e-08
4.20674e-08
3.7626e-08
3.36077e-08
2.99717e-08
2.66906e-08
2.3726e-08
2.10458e-08
1.86248e-08
1.64402e-08
1.44825e-08
1.27294e-08
1.11582e-08
9.75311e-09
8.49985e-09
7.38481e-09
6.39526e-09
5.5194e-09
4.7463e-09
4.06591e-09
3.46898e-09
2.94698e-09
2.49209e-09
2.09713e-09
1.75552e-09
1.46128e-09
1.20894e-09
9.93528e-10
8.10545e-10
6.55929e-10
5.26021e-10
4.1754e-10
3.27554e-10
2.53456e-10
1.92932e-10
1.43942e-10
1.04693e-10
7.36237e-11
4.93714e-11
3.07576e-11
1.67581e-11
6.51617e-12
0
0
0
0
0
0
0
0
0
0
0
0
0
0
0
0
0
0
0
0
0
0
0
0
0
0
0
0
0
0
0
0
0
0
0
0
0
0
0
0
0
0
0
0
0
0
0
0
0
0
0
0
0
0
0
0
0
0
0
0
0
0
0
0
0
0
0
1.14797e-13
2.45296e-13
3.70016e-13
4.81084e-13
5.88015e-13
7.02425e-13
8.60113e-13
1.07859e-12
1.47036e-12
2.04894e-12
3.15824e-12
4.71234e-12
7.84642e-12
1.15949e-11
1.98643e-11
2.61775e-11
4.39713e-11
4.11336e-11
8.31376e-11
1.2429e-11
4.01976e-11
0
0
0
0
0
0
0
0
0
0
0
0
0
0
0
0
0
0
0
0
0
0
1.66797e-08
7.01603e-08
1.24062e-07
1.73981e-07
2.17329e-07
2.5043e-07
2.74305e-07
2.86963e-07
2.91563e-07
2.88538e-07
2.79653e-07
2.66513e-07
2.50771e-07
2.33279e-07
2.15469e-07
1.97613e-07
1.80273e-07
1.63764e-07
1.48075e-07
1.33432e-07
1.19886e-07
1.07435e-07
9.6101e-08
8.58437e-08
7.65986e-08
6.82893e-08
6.08347e-08
5.4157e-08
4.81794e-08
4.2831e-08
3.80454e-08
3.37621e-08
2.99299e-08
2.64964e-08
2.34237e-08
2.06753e-08
1.82249e-08
1.60462e-08
1.41007e-08
1.23632e-08
1.08143e-08
9.43569e-09
8.21082e-09
7.12456e-09
6.16323e-09
5.31437e-09
4.56669e-09
3.90986e-09
3.33449e-09
2.83202e-09
2.39463e-09
2.01521e-09
1.68728e-09
1.40498e-09
1.16296e-09
9.56398e-10
7.80937e-10
6.32654e-10
5.08027e-10
4.03904e-10
3.17474e-10
2.4624e-10
1.87991e-10
1.40779e-10
1.0289e-10
7.28394e-11
4.93212e-11
3.12171e-11
1.7543e-11
7.48936e-12
3.36766e-13
0
0
0
0
0
0
0
0
0
0
0
0
0
0
0
0
0
0
0
0
0
0
0
0
0
0
0
0
0
0
0
0
0
0
0
0
0
0
0
0
0
0
0
0
0
0
0
0
0
0
0
0
0
0
0
0
0
0
0
0
0
0
0
0
0
1.06909e-13
2.50625e-13
3.57019e-13
4.37613e-13
5.04084e-13
5.71761e-13
6.51948e-13
7.71188e-13
9.40972e-13
1.25159e-12
1.70547e-12
2.57586e-12
3.76734e-12
6.15721e-12
8.87618e-12
1.48119e-11
1.87362e-11
3.10687e-11
2.6329e-11
4.76557e-11
1.88817e-12
4.01121e-12
0
0
0
0
0
0
0
0
0
0
0
0
0
0
0
0
0
0
0
0
0
0
1.02713e-08
8.9589e-08
1.6726e-07
2.38534e-07
2.93099e-07
3.35046e-07
3.63535e-07
3.72796e-07
3.73755e-07
3.63562e-07
3.46352e-07
3.24343e-07
3.0003e-07
2.74629e-07
2.49748e-07
2.25855e-07
2.02801e-07
1.80571e-07
1.60516e-07
1.42598e-07
1.26581e-07
1.1232e-07
9.96524e-08
8.83944e-08
7.83839e-08
6.94793e-08
6.1557e-08
5.45061e-08
4.82366e-08
4.26602e-08
3.77011e-08
3.3296e-08
2.93862e-08
2.59117e-08
2.28328e-08
2.01109e-08
1.76918e-08
1.55352e-08
1.36162e-08
1.19112e-08
1.03982e-08
9.05716e-09
7.86997e-09
6.82056e-09
5.89447e-09
5.07877e-09
4.36179e-09
3.73307e-09
3.18313e-09
2.70344e-09
2.28627e-09
1.92465e-09
1.61226e-09
1.3434e-09
1.11293e-09
9.16207e-10
7.49056e-10
6.0773e-10
4.88875e-10
3.89493e-10
3.06915e-10
2.38772e-10
1.82969e-10
1.3766e-10
1.01222e-10
7.22494e-11
4.95062e-11
3.19303e-11
1.8593e-11
8.72255e-12
1.63904e-12
0
0
0
0
0
0
0
0
0
0
0
0
0
0
0
0
0
0
0
0
0
0
0
0
0
0
0
0
0
0
0
0
0
0
0
0
0
0
0
0
0
0
0
0
0
0
0
0
0
0
0
0
0
0
0
0
0
0
0
0
0
0
0
0
0
3.88361e-14
1.6349e-13
2.62475e-13
3.40358e-13
4.039e-13
4.66315e-13
5.33753e-13
6.29219e-13
7.58683e-13
9.88107e-13
1.32012e-12
1.94213e-12
2.77721e-12
4.4035e-12
6.15656e-12
9.80066e-12
1.17894e-11
1.89745e-11
1.39362e-11
1.81431e-11
0
0
0
0
0
0
0
0
0
0
0
0
0
0
0
0
0
0
0
0
0
0
0
0
0
1.16472e-07
2.27294e-07
3.24871e-07
3.87528e-07
4.37586e-07
4.6659e-07
4.65277e-07
4.58986e-07
4.36472e-07
4.07551e-07
3.73927e-07
3.38872e-07
3.04343e-07
2.70574e-07
2.39517e-07
2.10723e-07
1.84964e-07
1.62484e-07
1.42894e-07
1.25889e-07
1.11117e-07
9.81708e-08
8.67812e-08
7.67347e-08
6.78546e-08
5.99938e-08
5.30258e-08
4.68477e-08
4.13671e-08
3.65052e-08
3.21945e-08
2.83758e-08
2.49936e-08
2.19879e-08
1.93123e-08
1.69373e-08
1.48336e-08
1.29719e-08
1.13255e-08
9.87034e-09
8.58508e-09
7.4509e-09
6.45115e-09
5.57106e-09
4.79751e-09
4.11883e-09
3.52457e-09
3.00543e-09
2.55304e-09
2.1599e-09
1.81928e-09
1.52511e-09
1.27195e-09
1.05491e-09
8.69585e-10
7.12042e-10
5.78748e-10
4.66548e-10
3.72628e-10
2.94488e-10
2.29908e-10
1.76927e-10
1.33819e-10
9.90654e-11
7.1349e-11
4.95169e-11
3.25695e-11
1.9642e-11
1.00037e-11
3.02225e-12
0
0
0
0
0
0
0
0
0
0
0
0
0
0
0
0
0
0
0
0
0
0
0
0
0
0
0
0
0
0
0
0
0
0
0
0
0
0
0
0
0
0
0
0
0
0
0
0
0
0
0
0
0
0
0
0
0
0
0
0
0
0
0
0
0
0
8.56722e-14
1.7516e-13
2.47504e-13
3.06472e-13
3.61719e-13
4.15732e-13
4.89039e-13
5.81614e-13
7.37903e-13
9.60867e-13
1.36341e-12
1.89166e-12
2.87019e-12
3.85058e-12
5.72993e-12
6.39218e-12
9.45479e-12
5.24104e-12
2.85944e-12
0
0
0
0
0
0
0
0
0
0
0
0
0
0
0
0
0
0
0
0
0
0
0
0
0
1.62874e-07
3.23663e-07
4.47153e-07
5.1968e-07
5.75676e-07
5.87833e-07
5.72489e-07
5.4679e-07
5.05069e-07
4.58862e-07
4.10508e-07
3.62364e-07
3.1765e-07
2.78442e-07
2.42594e-07
2.10399e-07
1.82831e-07
1.59164e-07
1.38862e-07
1.21369e-07
1.06262e-07
9.32521e-08
8.20355e-08
7.23181e-08
6.38477e-08
5.64206e-08
4.98787e-08
4.40891e-08
3.89562e-08
3.43991e-08
3.03438e-08
2.67295e-08
2.35109e-08
2.06528e-08
1.81201e-08
1.5878e-08
1.38945e-08
1.2141e-08
1.05918e-08
9.22424e-09
8.01803e-09
6.95514e-09
6.01955e-09
5.19705e-09
4.475e-09
3.84217e-09
3.28856e-09
2.80525e-09
2.3843e-09
2.01859e-09
1.70175e-09
1.4281e-09
1.19254e-09
9.90481e-10
8.17842e-10
6.70958e-10
5.46555e-10
4.41711e-10
3.53825e-10
2.80584e-10
2.19938e-10
1.70077e-10
1.29404e-10
9.65187e-11
7.02013e-11
4.93889e-11
3.31509e-11
2.06931e-11
1.13284e-11
4.47868e-12
0
0
0
0
0
0
0
0
0
0
0
0
0
0
0
0
0
0
0
0
0
0
0
0
0
0
0
0
0
0
0
0
0
0
0
0
0
0
0
0
0
0
0
0
0
0
0
0
0
0
0
0
0
0
0
0
0
0
0
0
0
0
0
0
0
0
1.55691e-14
9.4064e-14
1.5885e-13
2.11807e-13
2.57681e-13
3.0174e-13
3.51406e-13
4.13991e-13
5.08005e-13
6.38779e-13
8.63458e-13
1.14518e-12
1.6335e-12
2.05239e-12
2.91834e-12
2.72185e-12
3.12784e-12
4.36154e-13
0
0
0
0
0
0
0
0
0
0
0
0
0
0
0
0
0
0
0
0
0
0
0
0
0
3.34448e-09
2.66068e-07
4.92297e-07
6.3719e-07
7.4072e-07
7.74202e-07
7.49305e-07
7.27634e-07
6.53758e-07
5.86188e-07
5.11344e-07
4.42518e-07
3.79749e-07
3.24934e-07
2.78357e-07
2.38269e-07
2.03733e-07
1.73676e-07
1.47995e-07
1.26381e-07
1.08339e-07
9.32248e-08
8.06659e-08
7.02864e-08
6.16602e-08
5.44074e-08
4.82088e-08
4.28093e-08
3.80695e-08
3.3866e-08
3.01043e-08
2.67255e-08
2.36898e-08
2.09645e-08
1.85191e-08
1.63265e-08
1.43637e-08
1.26104e-08
1.10478e-08
9.65823e-09
8.42525e-09
7.33341e-09
6.36841e-09
5.5171e-09
4.76749e-09
4.10865e-09
3.53072e-09
3.02478e-09
2.58283e-09
2.19769e-09
1.86289e-09
1.57265e-09
1.32178e-09
1.10564e-09
9.20057e-10
7.61313e-10
6.26075e-10
5.11366e-10
4.14531e-10
3.33207e-10
2.65292e-10
2.08923e-10
1.62454e-10
1.24433e-10
9.35848e-11
6.87982e-11
4.91048e-11
3.36536e-11
2.17194e-11
1.26702e-11
5.97761e-12
1.17855e-12
0
0
0
0
0
0
0
0
0
0
0
0
0
0
0
0
0
0
0
0
0
0
0
0
0
0
0
0
0
0
0
0
0
0
0
0
0
0
0
0
0
0
0
0
0
0
0
0
0
0
0
0
0
0
0
0
0
0
0
0
0
0
0
0
0
0
1.40987e-14
7.08865e-14
1.17461e-13
1.55853e-13
1.89147e-13
2.22266e-13
2.57995e-13
3.07172e-13
3.67375e-13
4.63452e-13
5.7002e-13
7.42967e-13
8.1178e-13
9.75162e-13
5.82486e-13
8.00582e-14
0
0
0
0
0
0
0
0
0
0
0
0
0
0
0
0
0
0
0
0
0
0
0
0
0
0
3.2471e-08
3.69978e-07
6.42557e-07
8.16561e-07
9.29411e-07
8.95315e-07
8.93946e-07
8.61157e-07
7.60092e-07
6.67254e-07
5.59849e-07
4.66859e-07
3.89692e-07
3.25514e-07
2.70239e-07
2.22664e-07
1.82946e-07
1.5214e-07
1.28023e-07
1.07794e-07
9.0965e-08
7.71374e-08
6.57038e-08
5.61806e-08
4.82884e-08
4.17969e-08
3.64951e-08
3.22063e-08
2.87055e-08
2.57813e-08
2.32689e-08
2.1038e-08
1.89908e-08
1.70816e-08
1.53206e-08
1.36966e-08
1.22008e-08
1.08281e-08
9.5755e-09
8.43868e-09
7.41197e-09
6.48897e-09
5.66282e-09
4.92635e-09
4.27227e-09
3.69332e-09
3.18254e-09
2.73327e-09
2.3393e-09
1.99485e-09
1.6946e-09
1.43368e-09
1.20766e-09
1.01253e-09
8.44657e-10
7.00784e-10
5.7797e-10
4.73583e-10
3.8527e-10
3.10928e-10
2.48685e-10
1.96879e-10
1.54039e-10
1.18864e-10
9.02121e-11
6.70874e-11
4.86171e-11
3.40374e-11
2.26889e-11
1.40077e-11
7.50587e-12
2.77158e-12
0
0
0
0
0
0
0
0
0
0
0
0
0
0
0
0
0
0
0
0
0
0
0
0
0
0
0
0
0
0
0
0
0
0
0
0
0
0
0
0
0
0
0
0
0
0
0
0
0
0
0
0
0
0
0
0
0
0
0
0
0
0
0
0
0
0
0
8.90388e-16
3.88949e-14
6.8908e-14
9.31369e-14
1.12345e-13
1.30305e-13
1.46309e-13
1.64944e-13
1.83285e-13
1.96107e-13
2.03705e-13
1.37447e-13
4.79484e-14
0
0
0
0
0
0
0
0
0
0
0
0
0
0
0
0
0
0
0
0
0
0
0
0
0
0
0
0
0
5.79267e-08
5.15256e-07
8.648e-07
9.61821e-07
8.39357e-07
7.83862e-07
7.68496e-07
7.55775e-07
6.72662e-07
5.59126e-07
4.5255e-07
3.71466e-07
3.07799e-07
2.52553e-07
2.04414e-07
1.65351e-07
1.33814e-07
1.09455e-07
9.1646e-08
7.77189e-08
6.59588e-08
5.59446e-08
4.74324e-08
4.02264e-08
3.41942e-08
2.91935e-08
2.50614e-08
2.16455e-08
1.88474e-08
1.6574e-08
1.47371e-08
1.32717e-08
1.20894e-08
1.10637e-08
1.01325e-08
9.25755e-09
8.41297e-09
7.59294e-09
6.81562e-09
6.08603e-09
5.40629e-09
4.77811e-09
4.20256e-09
3.67953e-09
3.2075e-09
2.78409e-09
2.40639e-09
2.07122e-09
1.77521e-09
1.51498e-09
1.28719e-09
1.08864e-09
9.1628e-10
7.67285e-10
6.3903e-10
5.2911e-10
4.35331e-10
3.55704e-10
2.88434e-10
2.3191e-10
1.84688e-10
1.45485e-10
1.13161e-10
8.67108e-11
6.52543e-11
4.80168e-11
3.4319e-11
2.35699e-11
1.5267e-11
8.97171e-12
4.31603e-12
9.76449e-13
0
0
0
0
0
0
0
0
0
0
0
0
0
0
0
0
0
0
0
0
0
0
0
0
0
0
0
0
0
0
0
0
0
0
0
0
0
0
0
0
0
0
0
0
0
0
0
0
0
0
0
0
0
0
0
0
0
0
0
0
0
0
0
0
0
0
0
0
0
0
2.7013e-15
1.21025e-14
1.50289e-14
1.3385e-14
5.37482e-15
0
0
0
0
0
0
0
0
0
0
0
0
0
0
0
0
0
0
0
0
0
0
0
0
0
0
0
4.56142e-07
2.00697e-06
3.02698e-06
1.94703e-06
0
0
0
0
9.63836e-07
1.65011e-06
1.28178e-06
6.444e-07
4.20507e-07
4.99339e-07
5.42773e-07
4.83474e-07
3.88542e-07
3.10641e-07
2.54645e-07
2.1079e-07
1.74552e-07
1.42983e-07
1.16029e-07
9.34768e-08
7.51961e-08
6.1368e-08
5.15969e-08
4.43183e-08
3.83261e-08
3.29633e-08
2.81882e-08
2.40531e-08
2.05026e-08
1.74831e-08
1.49458e-08
1.28393e-08
1.11094e-08
9.68726e-09
8.51291e-09
7.5471e-09
6.75462e-09
6.10612e-09
5.58212e-09
5.14768e-09
4.75191e-09
4.3743e-09
4.00518e-09
3.63989e-09
3.27859e-09
2.93067e-09
2.6028e-09
2.29739e-09
2.01571e-09
1.7583e-09
1.52513e-09
1.31565e-09
1.12888e-09
9.63482e-10
8.17889e-10
6.90464e-10
5.7956e-10
4.83561e-10
4.00914e-10
3.30151e-10
2.69898e-10
2.18888e-10
1.75961e-10
1.40063e-10
1.10245e-10
8.56574e-11
6.55468e-11
4.92439e-11
3.61539e-11
2.57615e-11
1.76171e-11
1.13396e-11
6.59074e-12
3.09065e-12
5.90272e-13
0
0
0
0
0
0
0
0
0
0
0
0
0
0
0
0
0
0
0
0
0
0
0
0
0
0
0
0
0
0
0
0
0
0
0
0
0
0
0
0
0
0
0
0
0
0
0
0
0
0
0
0
0
0
0
0
0
0
0
0
0
0
0
0
0
0
0
0
0
0
0
0
0
0
0
0
0
0
0
0
0
0
0
0
0
0
0
0
0
0
0
0
0
0
0
0
0
0
0
3.0397e-07
2.74601e-06
8.08584e-06
1.70101e-05
2.41434e-05
1.37568e-05
0
0
0
0
0
1.46089e-06
2.17433e-06
1.14793e-06
1.40416e-07
7.53748e-09
2.53888e-07
3.42783e-07
2.93135e-07
2.22987e-07
1.7476e-07
1.4648e-07
1.28204e-07
1.11615e-07
9.43532e-08
7.75083e-08
6.25467e-08
5.00045e-08
3.99655e-08
3.25013e-08
2.72315e-08
2.35627e-08
2.06636e-08
1.81093e-08
1.58191e-08
1.37315e-08
1.18625e-08
1.0217e-08
8.78708e-09
7.5605e-09
6.52033e-09
5.64781e-09
4.9235e-09
4.32551e-09
3.82725e-09
3.41028e-09
3.06019e-09
2.76704e-09
2.52176e-09
2.31556e-09
2.1389e-09
1.97454e-09
1.81354e-09
1.65461e-09
1.49837e-09
1.34597e-09
1.19876e-09
1.05818e-09
9.26464e-10
8.05597e-10
6.95932e-10
5.97316e-10
5.09356e-10
4.315e-10
3.63089e-10
3.03404e-10
2.51691e-10
2.07192e-10
1.69165e-10
1.36897e-10
1.0971e-10
8.6975e-11
6.81138e-11
5.25944e-11
3.99341e-11
2.97041e-11
2.15286e-11
1.50802e-11
1.00695e-11
6.24524e-12
3.38957e-12
1.31357e-12
0
0
0
0
0
0
0
0
0
0
0
0
0
0
0
0
0
0
0
0
0
0
0
0
0
0
0
0
0
0
0
0
0
0
0
0
0
0
0
0
0
0
0
0
0
0
0
0
0
0
0
0
0
0
0
0
0
0
0
0
0
0
0
0
0
0
0
0
0
0
0
0
0
0
0
0
0
0
0
0
0
0
0
0
0
0
0
9.9968e-09
0
0
0
0
0
0
0
0
0
0
9.50439e-07
4.557e-06
1.32315e-05
3.08852e-05
5.71745e-05
2.15203e-05
0
0
0
0
0
0
2.88258e-07
9.54059e-07
8.61056e-08
0
0
1.83802e-07
2.06063e-07
1.49393e-07
1.05672e-07
8.49915e-08
7.86685e-08
7.61087e-08
7.09399e-08
6.19707e-08
5.13708e-08
4.13782e-08
3.29736e-08
2.61949e-08
2.10137e-08
1.72847e-08
1.46289e-08
1.25964e-08
1.09621e-08
9.62644e-09
8.46721e-09
7.43219e-09
6.50513e-09
5.67391e-09
4.9305e-09
4.26924e-09
3.68625e-09
3.17908e-09
2.74563e-09
2.38078e-09
2.07822e-09
1.82663e-09
1.61612e-09
1.43917e-09
1.28911e-09
1.16031e-09
1.04822e-09
9.49371e-10
8.61162e-10
7.81721e-10
7.09667e-10
6.43769e-10
5.81779e-10
5.21939e-10
4.64529e-10
4.1011e-10
3.5916e-10
3.12011e-10
2.68854e-10
2.29758e-10
1.94692e-10
1.63539e-10
1.36123e-10
1.12219e-10
9.157e-11
7.38997e-11
5.89232e-11
4.63518e-11
3.59011e-11
2.73043e-11
2.03153e-11
1.4707e-11
1.02707e-11
6.82024e-12
4.1834e-12
2.21504e-12
7.89245e-13
0
0
0
0
0
0
0
0
0
0
0
0
0
0
0
0
0
0
0
0
0
0
0
0
0
0
0
0
0
0
0
0
0
0
0
0
0
0
0
0
0
0
0
0
0
0
0
0
0
0
0
0
0
0
0
0
0
0
0
0
0
0
0
0
0
0
0
0
0
0
0
0
0
0
0
0
0
0
0
0
0
0
0
0
0
1.22364e-09
4.08259e-08
5.67088e-08
6.6439e-08
6.86763e-08
5.81288e-08
2.09009e-08
0
0
0
0
0
0
0
0
0
0
0
0
0
0
0
0
0
0
7.16419e-07
3.45631e-08
0
0
8.64723e-08
1.22803e-07
8.17178e-08
4.82538e-08
3.27066e-08
3.04889e-08
3.54372e-08
3.98333e-08
3.97792e-08
3.54232e-08
2.92347e-08
2.32804e-08
1.84038e-08
1.45936e-08
1.16426e-08
9.49863e-09
8.02604e-09
6.8966e-09
5.95934e-09
5.17836e-09
4.51141e-09
3.92837e-09
3.41609e-09
2.9666e-09
2.5732e-09
2.22905e-09
1.92701e-09
1.66017e-09
1.42491e-09
1.21908e-09
1.04193e-09
8.91948e-10
7.66385e-10
6.6194e-10
5.75224e-10
5.03005e-10
4.42367e-10
3.90841e-10
3.46415e-10
3.07517e-10
2.72965e-10
2.41912e-10
2.13776e-10
1.88168e-10
1.6483e-10
1.43586e-10
1.24305e-10
1.06878e-10
9.12114e-11
7.72125e-11
6.47858e-11
5.38335e-11
4.42532e-11
3.59398e-11
2.87877e-11
2.26907e-11
1.75437e-11
1.32432e-11
9.69319e-12
6.80528e-12
4.49891e-12
2.69563e-12
1.32581e-12
3.16223e-13
0
0
0
0
0
0
0
0
0
0
0
0
0
0
0
0
0
0
0
0
0
0
0
0
0
0
0
0
0
0
0
0
0
0
0
0
0
0
0
0
0
0
0
0
0
0
0
0
0
0
0
0
0
0
0
0
0
0
0
0
0
0
0
0
0
0
0
0
0
0
0
0
0
0
0
0
0
0
0
0
0
0
0
0
0
0
4.09125e-10
6.81776e-09
5.51721e-08
9.09713e-08
1.24872e-07
1.61663e-07
2.07602e-07
2.63666e-07
3.07388e-07
3.39665e-07
3.29907e-07
1.84741e-07
0
0
0
0
0
0
0
0
0
0
2.76129e-06
4.72544e-06
2.56452e-06
1.79248e-06
8.88865e-07
0
0
0
7.15246e-08
5.96397e-08
2.52791e-08
6.38174e-09
0
0
3.2506e-09
1.17357e-08
1.79919e-08
1.97764e-08
1.80047e-08
1.47744e-08
1.15876e-08
9.03881e-09
7.15101e-09
5.73382e-09
4.67486e-09
3.9534e-09
3.43074e-09
2.98923e-09
2.60578e-09
2.26925e-09
1.97137e-09
1.70737e-09
1.47427e-09
1.26951e-09
1.09023e-09
9.33275e-10
7.9548e-10
6.73574e-10
5.65971e-10
4.72598e-10
3.92971e-10
3.25881e-10
2.70011e-10
2.23984e-10
1.86351e-10
1.55704e-10
1.30753e-10
1.10373e-10
9.36038e-11
7.96493e-11
6.78717e-11
5.77897e-11
4.90543e-11
4.14164e-11
3.47027e-11
2.8792e-11
2.36022e-11
1.9065e-11
1.51311e-11
1.17466e-11
8.87089e-12
6.45931e-12
4.46752e-12
2.85027e-12
1.56337e-12
5.6427e-13
0
0
0
0
0
0
0
0
0
0
0
0
0
0
0
0
0
0
0
0
0
0
0
0
0
0
0
0
0
0
0
0
0
0
0
0
0
0
0
0
0
0
0
0
0
0
0
0
0
0
0
0
0
0
0
0
0
0
0
0
0
0
0
0
0
0
0
0
0
0
0
0
0
0
0
0
0
0
0
0
0
0
0
0
0
0
0
0
0
0
0
8.67737e-09
1.07818e-08
2.08707e-08
6.06128e-08
1.14626e-07
1.56944e-07
2.05391e-07
2.74737e-07
3.84402e-07
5.05593e-07
6.60299e-07
8.04054e-07
8.66234e-07
7.64427e-07
2.58339e-07
0
0
0
0
0
0
0
2.53865e-05
2.51806e-05
9.1701e-06
3.1187e-06
1.43372e-06
5.74292e-07
0
0
3.92208e-08
6.88849e-08
2.52093e-08
0
0
0
0
0
0
4.5588e-09
9.10103e-09
1.02827e-08
9.26194e-09
7.46462e-09
5.73535e-09
4.3842e-09
3.42349e-09
2.74518e-09
2.24649e-09
1.89852e-09
1.64865e-09
1.44524e-09
1.26712e-09
1.1067e-09
9.61337e-10
8.30289e-10
7.13326e-10
6.09967e-10
5.19275e-10
4.39955e-10
3.70481e-10
3.09145e-10
2.55032e-10
2.08154e-10
1.68031e-10
1.34305e-10
1.06412e-10
8.36874e-11
6.53864e-11
5.07757e-11
3.91999e-11
3.00935e-11
2.29902e-11
1.7487e-11
1.32408e-11
9.95742e-12
7.39717e-12
5.38258e-12
3.77932e-12
2.49562e-12
1.46598e-12
6.50165e-13
1.35632e-14
0
0
0
0
0
0
0
0
0
0
0
0
0
0
0
0
0
0
0
0
0
0
0
0
0
0
0
0
0
0
0
0
0
0
0
0
0
0
0
0
0
0
0
0
0
0
0
0
0
0
0
0
0
0
0
0
0
0
0
0
0
0
0
0
0
0
0
0
0
0
0
0
0
0
0
0
0
0
0
0
0
0
0
0
0
0
0
0
0
0
0
0
0
0
0
0
0
2.78089e-07
1.6474e-07
7.01079e-08
6.74222e-08
1.06991e-07
1.4829e-07
1.93894e-07
2.68368e-07
3.61039e-07
5.07619e-07
6.78455e-07
8.37839e-07
1.01995e-06
1.06581e-06
1.01153e-06
5.60664e-07
0
0
0
0
0
0
7.81056e-06
7.54271e-06
3.41121e-06
1.45361e-06
8.25086e-07
3.85609e-07
1.10548e-07
1.2097e-07
1.42401e-07
6.64984e-08
1.45097e-08
0
0
0
0
0
0
7.6528e-10
4.83515e-09
6.68603e-09
6.56271e-09
5.50028e-09
4.26525e-09
3.19815e-09
2.39228e-09
1.82787e-09
1.44147e-09
1.17075e-09
9.89192e-10
8.59891e-10
7.53021e-10
6.57893e-10
5.7058e-10
4.90384e-10
4.1788e-10
3.53566e-10
2.97374e-10
2.48726e-10
2.06768e-10
1.70535e-10
1.38964e-10
1.112e-10
8.71927e-11
6.71594e-11
5.0814e-11
3.77499e-11
2.75062e-11
1.95925e-11
1.35618e-11
9.03207e-12
5.69898e-12
3.30976e-12
1.65256e-12
5.45841e-13
0
0
0
0
0
0
0
0
0
0
0
0
0
0
0
0
0
0
0
0
0
0
0
0
0
0
0
0
0
0
0
0
0
0
0
0
0
0
0
0
0
0
0
0
0
0
0
0
0
0
0
0
0
0
0
0
0
0
0
0
0
0
0
0
0
0
0
0
0
0
0
0
0
0
0
0
0
0
0
0
0
0
0
0
0
0
0
0
0
0
0
0
0
0
0
0
0
0
0
0
0
0
0
0
4.2317e-06
1.16084e-06
2.79829e-07
9.73446e-08
8.70098e-08
1.01906e-07
1.34309e-07
1.94226e-07
2.59583e-07
3.77454e-07
4.91588e-07
6.2583e-07
7.25523e-07
7.85543e-07
8.43408e-07
6.98831e-07
3.98308e-07
0
0
0
0
0
1.36591e-06
1.38403e-06
7.837e-07
5.55096e-07
3.91232e-07
2.32552e-07
2.37853e-07
2.5563e-07
1.28323e-07
4.98971e-08
1.58803e-08
4.0358e-09
2.03817e-09
1.99184e-09
1.49269e-09
2.10007e-09
3.77206e-09
5.6295e-09
7.28012e-09
7.80638e-09
7.01948e-09
5.60834e-09
4.20518e-09
3.0649e-09
2.2206e-09
1.62825e-09
1.22448e-09
9.48215e-10
7.54291e-10
6.20397e-10
5.27269e-10
4.549e-10
3.92055e-10
3.34388e-10
2.81357e-10
2.33788e-10
1.92323e-10
1.56928e-10
1.27051e-10
1.01937e-10
8.08317e-11
6.30997e-11
4.81737e-11
3.54497e-11
2.48301e-11
1.63417e-11
9.90489e-12
5.22109e-12
1.94948e-12
0
0
0
0
0
0
0
0
0
0
0
0
0
0
0
0
0
0
0
0
0
0
0
0
0
0
0
0
0
0
0
0
0
0
0
0
0
0
0
0
0
0
0
0
0
0
0
0
0
0
0
0
0
0
0
0
0
0
0
0
0
0
0
0
0
0
0
0
0
0
0
0
0
0
0
0
0
0
0
0
0
0
0
0
0
0
0
0
0
0
0
0
0
0
0
0
0
0
0
0
0
0
0
0
0
0
0
0
0
1.22048e-05
2.23473e-06
4.20295e-07
1.16964e-07
4.57396e-08
3.91445e-08
5.36167e-08
8.7424e-08
1.26355e-07
1.92115e-07
2.59482e-07
3.54239e-07
3.89965e-07
4.2323e-07
4.44577e-07
3.89217e-07
3.01782e-07
1.26428e-07
0
0
0
0
2.25722e-07
3.01734e-07
3.18629e-07
2.86276e-07
1.28131e-07
8.84396e-08
4.03731e-07
2.39256e-07
1.06037e-07
5.03684e-08
2.78114e-08
2.06614e-08
2.04942e-08
2.03416e-08
1.82716e-08
1.70049e-08
1.67206e-08
1.61667e-08
1.53005e-08
1.33721e-08
1.07241e-08
7.98099e-09
5.65908e-09
3.90873e-09
2.67654e-09
1.8559e-09
1.33257e-09
1.0003e-09
7.77672e-10
6.17668e-10
5.01195e-10
4.15708e-10
3.49529e-10
2.94002e-10
2.44702e-10
2.00547e-10
1.61913e-10
1.29111e-10
1.01848e-10
7.94054e-11
6.09847e-11
4.59001e-11
3.36072e-11
2.35838e-11
1.53972e-11
8.76892e-12
3.54679e-12
0
0
0
0
0
0
0
0
0
0
0
0
0
0
0
0
0
0
0
0
0
0
0
0
0
0
0
0
0
0
0
0
0
0
0
0
0
0
0
0
0
0
0
0
0
0
0
0
0
0
0
0
0
0
0
0
0
0
0
0
0
0
0
0
0
0
0
0
0
0
0
0
0
0
0
0
0
0
0
0
0
0
0
0
0
0
0
0
0
0
0
0
0
0
0
0
0
0
0
0
0
0
0
0
0
0
0
0
0
0
0
1.32879e-05
2.55927e-06
7.40701e-07
1.97188e-07
1.27506e-08
0
0
0
7.20998e-09
2.86623e-08
5.43407e-08
9.36154e-08
1.04048e-07
1.05948e-07
9.3537e-08
6.37399e-08
1.20921e-08
0
0
0
0
0
1.3437e-07
2.43417e-07
2.2884e-07
0
0
2.57927e-07
3.75961e-07
1.64888e-07
8.65414e-08
5.45957e-08
4.2347e-08
3.97455e-08
4.04438e-08
3.9445e-08
3.62174e-08
3.33483e-08
3.13617e-08
2.91823e-08
2.66478e-08
2.25125e-08
1.7092e-08
1.22411e-08
8.46201e-09
5.74228e-09
3.84437e-09
2.55332e-09
1.72141e-09
1.21905e-09
9.22806e-10
7.30577e-10
5.88251e-10
4.77945e-10
3.92726e-10
3.25837e-10
2.70573e-10
2.22617e-10
1.80505e-10
1.44313e-10
1.1415e-10
8.95138e-11
6.94734e-11
5.30962e-11
3.97003e-11
2.88323e-11
2.00521e-11
1.29516e-11
7.24465e-12
2.73259e-12
0
0
0
0
0
0
0
0
0
0
0
0
0
0
0
0
0
0
0
0
0
0
0
0
0
0
0
0
0
0
0
0
0
0
0
0
0
0
0
0
0
0
0
0
0
0
0
0
0
0
0
0
0
0
0
0
0
0
0
0
0
0
0
0
0
0
0
0
0
0
0
0
0
0
0
0
0
0
0
0
0
0
0
0
0
0
0
0
0
0
0
0
0
0
0
0
0
0
0
0
0
0
0
0
0
0
0
0
0
0
5.35297e-06
1.71351e-06
4.95386e-07
5.55769e-08
0
0
0
0
0
0
0
0
0
0
0
0
0
0
0
0
0
3.4806e-09
1.21796e-07
4.6549e-08
0
0
0
5.77514e-07
2.36973e-07
1.32092e-07
8.55009e-08
6.65676e-08
6.10158e-08
6.09639e-08
6.08728e-08
5.79809e-08
5.38405e-08
5.0028e-08
4.65507e-08
4.29756e-08
3.91725e-08
3.38303e-08
2.54293e-08
1.78931e-08
1.2139e-08
8.12881e-09
5.44264e-09
3.63358e-09
2.41191e-09
1.62317e-09
1.14844e-09
8.78348e-10
7.07825e-10
5.80521e-10
4.77691e-10
3.94923e-10
3.2864e-10
2.73887e-10
2.26623e-10
1.85133e-10
1.49407e-10
1.19716e-10
9.56945e-11
7.63433e-11
6.05128e-11
4.73438e-11
3.63769e-11
2.73515e-11
1.99814e-11
1.39642e-11
9.08111e-12
5.16784e-12
2.10533e-12
0
0
0
0
0
0
0
0
0
0
0
0
0
0
0
0
0
0
0
0
0
0
0
0
0
0
0
0
0
0
0
0
0
0
0
0
0
0
0
0
0
0
0
0
0
0
0
0
0
0
0
0
0
0
0
0
0
0
0
0
0
0
0
0
0
0
0
0
0
0
0
0
0
0
0
0
0
0
0
0
0
0
0
0
0
0
0
0
0
0
0
0
0
0
0
0
0
0
0
0
0
0
0
0
0
0
0
5.0833e-07
0
0
0
0
0
0
0
0
0
0
0
0
0
0
0
0
0
0
0
0
0
0
0
0
0
4.95636e-07
2.86664e-07
1.66696e-07
1.09771e-07
8.58536e-08
7.86727e-08
7.78295e-08
7.742e-08
7.52549e-08
7.12167e-08
6.75069e-08
6.41408e-08
6.03557e-08
5.62838e-08