/*--------------------------------*- C++ -*----------------------------------*\
  =========                 |
  \\      /  F ield         | OpenFOAM: The Open Source CFD Toolbox
   \\    /   O peration     | Website:  https://openfoam.org
    \\  /    A nd           | Version:  7
     \\/     M anipulation  |
\*---------------------------------------------------------------------------*/
FoamFile
{
    version     2.0;
    format      ascii;
    class       surfaceScalarField;
    location    "0.01";
    object      phi;
}
// * * * * * * * * * * * * * * * * * * * * * * * * * * * * * * * * * * * * * //

dimensions      [0 3 -1 0 0 0 0];

internalField   nonuniform List<scalar> 
24170
(
1.39493e-06
1.97693e-07
1.25254e-06
1.42394e-07
1.11568e-06
1.36861e-07
1.00036e-06
1.15318e-07
9.03932e-07
9.64256e-08
8.19681e-07
8.42515e-08
7.41735e-07
7.79452e-08
6.70996e-07
7.07394e-08
6.12237e-07
5.87595e-08
5.68699e-07
4.35371e-08
5.40039e-07
2.866e-08
5.22832e-07
1.72079e-08
5.15292e-07
7.53941e-09
5.13484e-07
1.80858e-09
5.18336e-07
-4.85248e-09
5.27375e-07
-9.03888e-09
5.39114e-07
-1.17393e-08
-1.20129e-08
5.51127e-07
1.64181e-06
2.37431e-07
1.62597e-06
1.58231e-07
1.59574e-06
1.67094e-07
1.56039e-06
1.50668e-07
1.53118e-06
1.25634e-07
1.50818e-06
1.07247e-07
1.48645e-06
9.96832e-08
1.46275e-06
9.44396e-08
1.43621e-06
8.5293e-08
1.40771e-06
7.20405e-08
1.37925e-06
5.71175e-08
1.35368e-06
4.27822e-08
1.33368e-06
2.75341e-08
1.32223e-06
1.32582e-08
1.31707e-06
3.11128e-10
1.31943e-06
-1.14038e-08
1.32633e-06
-1.86351e-08
-2.62008e-08
1.34052e-06
1.78646e-06
2.83047e-07
1.7678e-06
1.76892e-07
1.74793e-06
1.86962e-07
1.73317e-06
1.6543e-07
1.72796e-06
1.30842e-07
1.72693e-06
1.08272e-07
1.7281e-06
9.85187e-08
1.73144e-06
9.10941e-08
1.73546e-06
8.12761e-08
1.73657e-06
7.09346e-08
1.73245e-06
6.12372e-08
1.72393e-06
5.12977e-08
1.71343e-06
3.80406e-08
1.7049e-06
2.17851e-08
1.69984e-06
5.36842e-09
1.6993e-06
-1.08591e-08
1.70277e-06
-2.21111e-08
-3.21577e-08
1.70873e-06
1.90621e-06
3.5885e-07
1.87838e-06
2.04718e-07
1.87588e-06
1.89462e-07
1.87966e-06
1.61657e-07
1.88135e-06
1.29146e-07
1.87832e-06
1.113e-07
1.8742e-06
1.02644e-07
1.87288e-06
9.24125e-08
1.87506e-06
7.90916e-08
1.87875e-06
6.72482e-08
1.88176e-06
5.82269e-08
1.88373e-06
4.93279e-08
1.88477e-06
3.70033e-08
1.88584e-06
2.07163e-08
1.88707e-06
4.13097e-09
1.88791e-06
-1.16952e-08
1.88928e-06
-2.34763e-08
-3.24626e-08
1.88958e-06
2.0551e-06
3.25747e-07
2.02995e-06
2.29874e-07
2.01722e-06
2.02194e-07
2.01417e-06
1.64704e-07
2.01838e-06
1.24938e-07
2.02558e-06
1.04099e-07
2.02869e-06
9.9533e-08
2.02394e-06
9.71591e-08
2.01423e-06
8.88086e-08
2.00585e-06
7.56219e-08
2.00355e-06
6.05333e-08
2.00808e-06
4.47905e-08
2.01649e-06
2.85936e-08
2.02478e-06
1.24251e-08
2.03055e-06
-1.63811e-09
2.03248e-06
-1.36212e-08
2.03211e-06
-2.31061e-08
-3.07733e-08
2.03042e-06
2.19421e-06
3.73289e-07
2.18649e-06
2.37598e-07
2.18735e-06
2.01337e-07
2.1795e-06
1.72551e-07
2.17208e-06
1.32353e-07
2.17071e-06
1.05472e-07
2.17111e-06
9.91394e-08
2.1677e-06
1.00561e-07
2.16053e-06
9.59796e-08
2.15405e-06
8.21077e-08
2.15196e-06
6.26175e-08
2.15464e-06
4.21114e-08
2.15984e-06
2.33916e-08
2.16494e-06
7.32939e-09
2.16915e-06
-5.85185e-09
2.17229e-06
-1.67602e-08
2.17561e-06
-2.64236e-08
-3.46433e-08
2.17948e-06
2.37367e-06
4.30509e-07
2.34491e-06
2.66353e-07
2.34607e-06
2.00176e-07
2.35053e-06
1.68097e-07
2.35287e-06
1.30009e-07
2.354e-06
1.04342e-07
2.35267e-06
1.00475e-07
2.34774e-06
1.05489e-07
2.34028e-06
1.03439e-07
2.333e-06
8.93901e-08
2.32829e-06
6.73255e-08
2.3271e-06
4.32956e-08
2.32903e-06
2.14629e-08
2.33324e-06
3.11907e-09
2.33911e-06
-1.17171e-08
2.34608e-06
-2.37276e-08
2.35332e-06
-3.36696e-08
-4.11326e-08
2.35981e-06
2.56492e-06
3.90112e-07
2.55282e-06
2.78457e-07
2.52687e-06
2.26128e-07
2.51444e-06
1.80524e-07
2.51168e-06
1.32767e-07
2.51337e-06
1.02653e-07
2.51645e-06
9.73981e-08
2.51821e-06
1.03725e-07
2.51665e-06
1.05e-07
2.51192e-06
9.41258e-08
2.50596e-06
7.32811e-08
2.5013e-06
4.79563e-08
2.49999e-06
2.2769e-08
2.50267e-06
4.38651e-10
2.50897e-06
-1.80118e-08
2.5177e-06
-3.24612e-08
2.52772e-06
-4.36848e-08
-5.12423e-08
2.53783e-06
2.73785e-06
4.07788e-07
2.72909e-06
2.87217e-07
2.71261e-06
2.42613e-07
2.69925e-06
1.93877e-07
2.6921e-06
1.39917e-07
2.69304e-06
1.01716e-07
2.70362e-06
8.68223e-08
2.72035e-06
8.699e-08
2.73663e-06
8.87191e-08
2.74736e-06
8.33944e-08
2.75092e-06
6.9725e-08
2.74865e-06
5.02231e-08
2.74358e-06
2.78374e-08
2.73911e-06
4.91674e-09
2.73782e-06
-1.67253e-08
2.74044e-06
-3.50803e-08
2.74649e-06
-4.97406e-08
-5.95816e-08
2.75483e-06
2.97379e-06
4.00044e-07
2.95521e-06
3.05793e-07
2.93487e-06
2.62956e-07
2.90872e-06
2.2003e-07
2.88908e-06
1.59548e-07
2.88557e-06
1.05234e-07
2.89703e-06
7.53594e-08
2.91506e-06
6.89629e-08
2.93099e-06
7.279e-08
2.93996e-06
7.44177e-08
2.94189e-06
6.77985e-08
2.94023e-06
5.18823e-08
2.93904e-06
2.90292e-08
2.9409e-06
3.0521e-09
2.94625e-06
-2.20731e-08
2.95425e-06
-4.30834e-08
2.96369e-06
-5.91761e-08
-6.96266e-08
2.97373e-06
3.15948e-06
3.43812e-07
3.17175e-06
2.93527e-07
3.16265e-06
2.72051e-07
3.15251e-06
2.30172e-07
3.14804e-06
1.64023e-07
3.14839e-06
1.04884e-07
3.1504e-06
7.3345e-08
3.15053e-06
6.88341e-08
3.14741e-06
7.59037e-08
3.14319e-06
7.86375e-08
3.14141e-06
6.95795e-08
3.14392e-06
4.93791e-08
3.15029e-06
2.26596e-08
3.15818e-06
-4.83703e-09
3.16528e-06
-2.91775e-08
3.17033e-06
-4.81373e-08
3.17372e-06
-6.25587e-08
-7.30094e-08
3.1771e-06
2.80254e-06
4.20543e-07
2.82559e-06
2.7048e-07
2.84404e-06
2.53607e-07
2.85226e-06
2.2195e-07
2.85424e-06
1.62041e-07
2.85056e-06
1.08561e-07
2.84172e-06
8.21854e-08
2.83103e-06
7.95215e-08
2.82381e-06
8.31302e-08
2.82424e-06
7.82067e-08
2.83305e-06
6.07711e-08
2.84763e-06
3.48006e-08
2.86304e-06
7.24462e-09
2.87512e-06
-1.69217e-08
2.88212e-06
-3.61765e-08
2.88485e-06
-5.08659e-08
2.88537e-06
-6.30755e-08
-7.3978e-08
2.88634e-06
3.4816e-06
3.13053e-07
3.4778e-06
2.7428e-07
3.45058e-06
2.80833e-07
3.44862e-06
2.23907e-07
3.45723e-06
1.53431e-07
3.45647e-06
1.0932e-07
3.44362e-06
9.5037e-08
3.42936e-06
9.37866e-08
3.42541e-06
8.70739e-08
3.43599e-06
6.7624e-08
3.45734e-06
3.94258e-08
3.48167e-06
1.04729e-08
3.50255e-06
-1.36381e-08
3.51692e-06
-3.12937e-08
3.52482e-06
-4.40723e-08
3.52853e-06
-5.45821e-08
3.53093e-06
-6.54726e-08
-7.70178e-08
3.53397e-06
4.23446e-06
2.53201e-07
4.22423e-06
2.84512e-07
4.21893e-06
2.86128e-07
4.23281e-06
2.10027e-07
4.24054e-06
1.45703e-07
4.23521e-06
1.1465e-07
4.22633e-06
1.03916e-07
4.22654e-06
9.35785e-08
4.23974e-06
7.3868e-08
4.26013e-06
4.72399e-08
4.27849e-06
2.10594e-08
4.28902e-06
-5.73333e-11
4.29123e-06
-1.58493e-08
4.28921e-06
-2.92652e-08
4.28838e-06
-4.32466e-08
4.29256e-06
-5.87579e-08
4.30259e-06
-7.55038e-08
-9.08563e-08
4.31643e-06
5.18328e-06
3.31765e-07
5.17041e-06
2.97379e-07
5.17266e-06
2.8388e-07
5.17764e-06
2.05044e-07
5.18888e-06
1.34469e-07
5.20392e-06
9.96067e-08
5.22036e-06
8.74827e-08
5.23554e-06
7.83942e-08
5.24544e-06
6.39661e-08
5.24653e-06
4.61569e-08
5.23886e-06
2.87215e-08
5.22702e-06
1.17826e-08
5.21792e-06
-6.74166e-09
5.21712e-06
-2.84681e-08
5.2266e-06
-5.27245e-08
5.24442e-06
-7.65785e-08
5.26658e-06
-9.76646e-08
-1.12024e-07
5.28775e-06
6.39873e-06
4.23356e-07
6.38541e-06
3.10699e-07
6.40835e-06
2.60937e-07
6.39883e-06
2.1456e-07
6.36774e-06
1.65566e-07
6.33914e-06
1.28201e-07
6.32619e-06
1.00439e-07
6.32712e-06
7.74585e-08
6.3326e-06
5.84835e-08
6.33484e-06
4.39216e-08
6.33199e-06
3.15746e-08
6.32682e-06
1.69513e-08
6.32356e-06
-3.47979e-09
6.32484e-06
-2.97481e-08
6.33123e-06
-5.91184e-08
6.34135e-06
-8.67002e-08
6.35308e-06
-1.09394e-07
-1.24556e-07
6.36561e-06
7.73414e-06
5.93075e-07
7.65508e-06
3.89762e-07
7.63875e-06
2.77266e-07
7.62736e-06
2.25943e-07
7.61361e-06
1.7932e-07
7.6126e-06
1.29214e-07
7.63335e-06
7.96839e-08
7.67218e-06
3.86347e-08
7.71883e-06
1.18286e-08
7.765e-06
-2.24236e-09
7.80735e-06
-1.07846e-08
7.84399e-06
-1.96889e-08
7.87271e-06
-3.21945e-08
7.89124e-06
-4.8282e-08
7.89789e-06
-6.57615e-08
7.89326e-06
-8.2075e-08
7.87932e-06
-9.54578e-08
-1.05585e-07
7.86035e-06
9.44578e-06
3.99474e-07
9.4535e-06
3.82042e-07
9.43693e-06
2.93835e-07
9.43815e-06
2.24722e-07
9.44769e-06
1.6978e-07
9.46261e-06
1.14296e-07
9.481e-06
6.12925e-08
9.49968e-06
1.99551e-08
9.51576e-06
-4.24625e-09
9.52635e-06
-1.28323e-08
9.53102e-06
-1.54557e-08
9.53171e-06
-2.03755e-08
9.53064e-06
-3.11269e-08
9.52894e-06
-4.65818e-08
9.52685e-06
-6.36695e-08
9.52429e-06
-7.95243e-08
9.52153e-06
-9.26911e-08
-1.02661e-07
9.5186e-06
1.15869e-05
5.01949e-07
1.15779e-05
3.91087e-07
1.16159e-05
2.55835e-07
1.16599e-05
1.8067e-07
1.16839e-05
1.45745e-07
1.1684e-05
1.14261e-07
1.16694e-05
7.58849e-08
1.16497e-05
3.96167e-08
1.16293e-05
1.61413e-08
1.1612e-05
4.48986e-09
1.15998e-05
-3.28277e-09
1.15939e-05
-1.44427e-08
1.15932e-05
-3.03967e-08
1.15967e-05
-5.01051e-08
1.16038e-05
-7.07628e-08
1.16138e-05
-8.95585e-08
1.16263e-05
-1.05112e-07
-1.16835e-07
1.16404e-05
8.48335e-06
6.26458e-07
8.4641e-06
4.10335e-07
8.45716e-06
2.62772e-07
8.44179e-06
1.96046e-07
8.43738e-06
1.50157e-07
8.44943e-06
1.02205e-07
8.46429e-06
6.1027e-08
8.46955e-06
3.43567e-08
8.46581e-06
1.98779e-08
8.46187e-06
8.43772e-09
8.46641e-06
-7.82262e-09
8.48131e-06
-2.93436e-08
8.50464e-06
-5.37334e-08
8.52997e-06
-7.54274e-08
8.55077e-06
-9.15715e-08
8.56315e-06
-1.01934e-07
8.56574e-06
-1.07703e-07
-1.1089e-07
8.5598e-06
7.21651e-06
3.3351e-07
7.37645e-06
2.50392e-07
7.4331e-06
2.0612e-07
7.45944e-06
1.69711e-07
7.47024e-06
1.3935e-07
7.46856e-06
1.03892e-07
7.46249e-06
6.70934e-08
7.45976e-06
3.70857e-08
7.46447e-06
1.51657e-08
7.47394e-06
-1.0248e-09
7.48319e-06
-1.70786e-08
7.48518e-06
-3.1334e-08
7.47697e-06
-4.55238e-08
7.46122e-06
-5.96691e-08
7.44288e-06
-7.324e-08
7.42659e-06
-8.56432e-08
7.41544e-06
-9.65476e-08
-1.05331e-07
7.40988e-06
6.3554e-06
3.78359e-07
6.34531e-06
2.60486e-07
6.39491e-06
1.56524e-07
6.44269e-06
1.21926e-07
6.47571e-06
1.06331e-07
6.49476e-06
8.48441e-08
6.50574e-06
5.6113e-08
6.51739e-06
2.54327e-08
6.53455e-06
-1.98989e-09
6.5537e-06
-2.01716e-08
6.5709e-06
-3.42802e-08
6.5844e-06
-4.48409e-08
6.59284e-06
-5.39597e-08
6.59671e-06
-6.35379e-08
6.5974e-06
-7.3934e-08
6.59612e-06
-8.4361e-08
6.59317e-06
-9.36015e-08
-1.00214e-07
6.58806e-06
5.6082e-06
3.71793e-07
5.64895e-06
2.19737e-07
5.66062e-06
1.44848e-07
5.67129e-06
1.11261e-07
5.68802e-06
8.96002e-08
5.70616e-06
6.66951e-08
5.71996e-06
4.23224e-08
5.72688e-06
1.85094e-08
5.72851e-06
-3.62117e-09
5.73482e-06
-2.64792e-08
5.74694e-06
-4.6398e-08
5.76609e-06
-6.39946e-08
5.78966e-06
-7.75344e-08
5.81263e-06
-8.65005e-08
5.82997e-06
-9.12766e-08
5.8385e-06
-9.28877e-08
5.83715e-06
-9.22571e-08
-9.05496e-08
5.82749e-06
4.80914e-06
2.67232e-07
4.86326e-06
1.6561e-07
4.89851e-06
1.09601e-07
4.93005e-06
7.97184e-08
4.96327e-06
5.63814e-08
4.99715e-06
3.28152e-08
5.02772e-06
1.17567e-08
5.05238e-06
-6.1507e-09
5.07013e-06
-2.1375e-08
5.08081e-06
-3.71577e-08
5.08486e-06
-5.04419e-08
5.08098e-06
-6.0123e-08
5.06957e-06
-6.6126e-08
5.05246e-06
-6.93836e-08
5.03273e-06
-7.15449e-08
5.01362e-06
-7.37844e-08
4.99804e-06
-7.66711e-08
-7.96687e-08
4.98716e-06
4.29133e-06
2.78637e-07
4.32247e-06
1.34476e-07
4.3447e-06
8.7367e-08
4.359e-06
6.54191e-08
4.38186e-06
3.35226e-08
4.40947e-06
5.20352e-09
4.43059e-06
-9.36261e-09
4.44112e-06
-1.66747e-08
4.4436e-06
-2.38615e-08
4.44154e-06
-3.50928e-08
4.43852e-06
-4.74215e-08
4.43539e-06
-5.69995e-08
4.43209e-06
-6.28253e-08
4.42884e-06
-6.61309e-08
4.42596e-06
-6.86652e-08
4.42371e-06
-7.15312e-08
4.42205e-06
-7.50105e-08
-7.86971e-08
4.42107e-06
3.72965e-06
3.15669e-07
3.76848e-06
9.56509e-08
3.78603e-06
6.98209e-08
3.80071e-06
5.0737e-08
3.82253e-06
1.17031e-08
3.84669e-06
-1.89573e-08
3.86888e-06
-3.15534e-08
3.8873e-06
-3.51e-08
3.90325e-06
-3.98063e-08
3.91667e-06
-4.85135e-08
3.92752e-06
-5.82743e-08
3.93622e-06
-6.56998e-08
3.94301e-06
-6.96107e-08
3.94768e-06
-7.08013e-08
3.94989e-06
-7.08751e-08
3.94963e-06
-7.12702e-08
3.94728e-06
-7.26587e-08
-7.51083e-08
3.94369e-06
3.28735e-06
1.95264e-07
3.31648e-06
6.65209e-08
3.34002e-06
4.6286e-08
3.36865e-06
2.2104e-08
3.38965e-06
-9.297e-09
3.4065e-06
-3.58084e-08
3.42236e-06
-4.74068e-08
3.43701e-06
-4.975e-08
3.44768e-06
-5.0476e-08
3.45278e-06
-5.36145e-08
3.45335e-06
-5.88422e-08
3.45182e-06
-6.4172e-08
3.45024e-06
-6.80361e-08
3.44969e-06
-7.02485e-08
3.45039e-06
-7.15742e-08
3.45217e-06
-7.30524e-08
3.4547e-06
-7.51836e-08
-7.80241e-08
3.45761e-06
2.85539e-06
1.9839e-07
2.91709e-06
4.81963e-09
2.95755e-06
5.81834e-09
2.98891e-06
-9.24878e-09
3.01105e-06
-3.14347e-08
3.02089e-06
-4.56553e-08
3.02205e-06
-4.85623e-08
3.0208e-06
-4.8506e-08
3.02264e-06
-5.23082e-08
3.02928e-06
-6.02551e-08
3.0389e-06
-6.84682e-08
3.04831e-06
-7.35746e-08
3.05504e-06
-7.47751e-08
3.05828e-06
-7.34823e-08
3.05838e-06
-7.16761e-08
3.05627e-06
-7.09403e-08
3.05268e-06
-7.15923e-08
-7.33115e-08
3.04796e-06
2.50232e-06
7.42164e-08
2.5455e-06
-3.83641e-08
2.57345e-06
-2.21278e-08
2.59815e-06
-3.39518e-08
2.61464e-06
-4.79197e-08
2.62377e-06
-5.47887e-08
2.63182e-06
-5.66081e-08
2.64111e-06
-5.7802e-08
2.64936e-06
-6.05526e-08
2.65269e-06
-6.3587e-08
2.64868e-06
-6.44559e-08
2.63739e-06
-6.22868e-08
2.62083e-06
-5.82168e-08
2.60141e-06
-5.40649e-08
2.58088e-06
-5.11462e-08
2.55992e-06
-4.99812e-08
2.53847e-06
-5.01399e-08
-5.10551e-08
2.51621e-06
2.17394e-06
2.13557e-06
2.11345e-06
2.07949e-06
2.03158e-06
1.97679e-06
1.92018e-06
1.86238e-06
1.80182e-06
1.73824e-06
1.67378e-06
1.61149e-06
1.55328e-06
1.49921e-06
1.44807e-06
1.39808e-06
1.34794e-06
1.29689e-06
-5.76302e-08
5.76302e-08
-1.19741e-07
6.21111e-08
-1.81438e-07
6.16962e-08
-2.43293e-07
6.18552e-08
-3.04922e-07
6.16296e-08
-3.66032e-07
6.11092e-08
-4.26317e-07
6.02858e-08
-4.85436e-07
5.91182e-08
-5.42996e-07
5.75602e-08
-5.98563e-07
5.55675e-08
-6.51673e-07
5.31092e-08
-7.01827e-07
5.01547e-08
-7.48483e-07
4.66555e-08
-7.91056e-07
4.25735e-08
-8.28968e-07
3.79118e-08
-8.61663e-07
3.26948e-08
-8.88603e-07
2.69405e-08
-9.09279e-07
2.06759e-08
-9.23238e-07
1.39588e-08
-9.30113e-07
6.875e-09
-9.29623e-07
-4.89924e-10
-9.21529e-07
-8.09358e-09
-9.05761e-07
-1.57684e-08
-8.82332e-07
-2.34292e-08
-8.51334e-07
-3.09981e-08
-8.12955e-07
-3.83786e-08
-7.67485e-07
-4.54697e-08
-7.15285e-07
-5.22005e-08
-6.56781e-07
-5.85044e-08
-5.92519e-07
-6.42612e-08
-5.23036e-07
-6.94834e-08
-4.48932e-07
-7.41038e-08
-3.70868e-07
-7.80647e-08
-2.89452e-07
-8.14155e-08
-2.05342e-07
-8.41099e-08
-1.19132e-07
-8.62105e-08
-3.1461e-08
-8.76705e-08
5.7106e-08
-8.8567e-08
1.4604e-07
-8.89339e-08
2.3485e-07
-8.881e-08
3.2309e-07
-8.82397e-08
4.10359e-07
-8.72692e-08
4.96304e-07
-8.59449e-08
5.80617e-07
-8.43129e-08
6.63034e-07
-8.24176e-08
7.43335e-07
-8.03013e-08
8.21339e-07
-7.80037e-08
8.96901e-07
-7.55614e-08
9.69908e-07
-7.30077e-08
1.04028e-06
-7.03728e-08
1.10796e-06
-6.76838e-08
1.17293e-06
-6.49645e-08
1.23517e-06
-6.22358e-08
1.29468e-06
-5.9516e-08
1.3515e-06
-5.68206e-08
1.40566e-06
-5.41628e-08
1.45722e-06
-5.15537e-08
1.50622e-06
-4.90024e-08
1.55274e-06
-4.65163e-08
1.59684e-06
-4.41014e-08
1.6386e-06
-4.17621e-08
1.6781e-06
-3.9502e-08
1.71543e-06
-3.73231e-08
1.75065e-06
-3.52268e-08
1.78387e-06
-3.32139e-08
1.81515e-06
-3.12842e-08
1.84459e-06
-2.94371e-08
1.87226e-06
-2.76716e-08
1.89825e-06
-2.59864e-08
1.92263e-06
-2.43795e-08
1.94547e-06
-2.28491e-08
1.96687e-06
-2.13929e-08
1.98688e-06
-2.00085e-08
2.00557e-06
-1.86935e-08
2.02301e-06
-1.74454e-08
2.03928e-06
-1.62615e-08
2.05442e-06
-1.51391e-08
2.06849e-06
-1.40758e-08
2.08156e-06
-1.30689e-08
2.09368e-06
-1.21158e-08
2.10489e-06
-1.1214e-08
2.11525e-06
-1.03611e-08
2.12481e-06
-9.55461e-09
2.1336e-06
-8.79233e-09
2.14167e-06
-8.07197e-09
2.14906e-06
-7.39134e-09
2.15581e-06
-6.74847e-09
2.16195e-06
-6.14128e-09
2.16752e-06
-5.56785e-09
2.17255e-06
-5.02654e-09
2.17706e-06
-4.51539e-09
2.18109e-06
-4.03263e-09
2.18467e-06
-3.57727e-09
2.18782e-06
-3.14739e-09
2.19056e-06
-2.74073e-09
2.19292e-06
-2.35791e-09
2.19491e-06
-1.99682e-09
2.19657e-06
-1.65329e-09
2.1979e-06
-1.33079e-09
2.19893e-06
-1.02771e-09
2.19966e-06
-7.34768e-10
2.20012e-06
-4.60017e-10
2.20032e-06
-2.02695e-10
2.20026e-06
6.09679e-11
2.19992e-06
3.36914e-10
2.19933e-06
5.98886e-10
2.19848e-06
8.47819e-10
2.19739e-06
1.08421e-09
2.19609e-06
1.30452e-09
2.19459e-06
1.50247e-09
2.19291e-06
1.67628e-09
2.19108e-06
1.82777e-09
2.18912e-06
1.96127e-09
2.18704e-06
2.08176e-09
2.18485e-06
2.1933e-09
2.18255e-06
2.29844e-09
2.18015e-06
2.39848e-09
2.17766e-06
2.49408e-09
2.17507e-06
2.58537e-09
2.1724e-06
2.67265e-09
2.16964e-06
2.75601e-09
2.16681e-06
2.83574e-09
2.16389e-06
2.912e-09
2.16091e-06
2.98504e-09
2.15785e-06
3.05503e-09
2.15473e-06
3.12215e-09
2.15154e-06
3.18673e-09
2.1483e-06
3.24883e-09
2.14499e-06
3.3087e-09
2.14162e-06
3.36654e-09
2.1382e-06
3.42245e-09
2.13472e-06
3.47665e-09
2.13119e-06
3.52919e-09
2.12761e-06
3.58024e-09
2.12398e-06
3.62993e-09
2.1203e-06
3.67838e-09
2.11658e-06
3.72569e-09
2.11281e-06
3.77204e-09
2.10899e-06
3.8175e-09
2.10513e-06
3.86215e-09
2.10122e-06
3.90616e-09
2.09727e-06
3.94958e-09
2.09328e-06
3.99258e-09
2.08924e-06
4.03519e-09
2.08517e-06
4.07756e-09
2.08105e-06
4.11978e-09
2.07688e-06
4.16199e-09
2.07268e-06
4.20436e-09
2.06843e-06
4.24707e-09
2.06414e-06
4.29031e-09
2.05981e-06
4.33427e-09
2.05543e-06
4.37928e-09
2.051e-06
4.42563e-09
2.04653e-06
4.47372e-09
2.042e-06
4.52408e-09
2.03743e-06
4.57735e-09
2.03279e-06
4.63435e-09
2.0281e-06
4.69609e-09
2.02333e-06
4.76384e-09
2.01849e-06
4.83931e-09
2.01357e-06
4.92456e-09
2.00855e-06
5.02261e-09
2.00341e-06
5.1365e-09
1.99814e-06
5.27233e-09
1.9927e-06
5.43356e-09
1.98707e-06
5.63392e-09
1.98119e-06
5.8765e-09
1.97501e-06
6.18416e-09
1.96842e-06
6.58862e-09
1.96138e-06
7.04097e-09
1.95352e-06
7.85883e-09
1.94514e-06
8.37724e-09
1.93476e-06
1.03796e-08
1.92421e-06
1.05567e-08
1.90832e-06
1.58878e-08
1.89378e-06
1.45394e-08
1.86357e-06
3.02061e-08
1.83908e-06
2.44972e-08
1.7565e-06
8.25803e-08
8.22287e-08
1.67427e-06
-6.28872e-08
1.20517e-07
-1.30504e-07
1.29728e-07
-1.97196e-07
1.28388e-07
-2.63592e-07
1.28251e-07
-3.2917e-07
1.27208e-07
-3.93562e-07
1.25501e-07
-4.56409e-07
1.23133e-07
-5.17335e-07
1.20044e-07
-5.75946e-07
1.16172e-07
-6.31837e-07
1.11458e-07
-6.84577e-07
1.0585e-07
-7.33717e-07
9.92947e-08
-7.78815e-07
9.17533e-08
-8.19429e-07
8.31875e-08
-8.55103e-07
7.35859e-08
-8.8537e-07
6.2962e-08
-9.09777e-07
5.13472e-08
-9.27903e-07
3.88018e-08
-9.39354e-07
2.54099e-08
-9.43794e-07
1.13148e-08
-9.40753e-07
-3.53112e-09
-9.29843e-07
-1.90032e-08
-9.10956e-07
-3.46558e-08
-8.84033e-07
-5.03519e-08
-8.49157e-07
-6.58738e-08
-8.06524e-07
-8.10121e-08
-7.56426e-07
-9.55676e-08
-6.99264e-07
-1.09362e-07
-6.3555e-07
-1.22218e-07
-5.65782e-07
-1.34029e-07
-4.90608e-07
-1.44657e-07
-4.10698e-07
-1.54014e-07
-3.26631e-07
-1.62132e-07
-2.39155e-07
-1.68891e-07
-1.48889e-07
-1.74375e-07
-5.65651e-08
-1.78535e-07
3.72901e-08
-1.81526e-07
1.32078e-07
-1.83355e-07
2.27251e-07
-1.84107e-07
3.22312e-07
-1.83871e-07
4.16813e-07
-1.82741e-07
5.10354e-07
-1.8081e-07
6.02584e-07
-1.78175e-07
6.93198e-07
-1.74927e-07
7.81937e-07
-1.71156e-07
8.68582e-07
-1.66947e-07
9.52955e-07
-1.62376e-07
1.03491e-06
-1.57518e-07
1.11434e-06
-1.52437e-07
1.19116e-06
-1.47193e-07
1.26532e-06
-1.41838e-07
1.33677e-06
-1.36419e-07
1.40551e-06
-1.30977e-07
1.47154e-06
-1.25546e-07
1.53488e-06
-1.20158e-07
1.59555e-06
-1.14837e-07
1.6536e-06
-1.09605e-07
1.70908e-06
-1.0448e-07
1.76204e-06
-9.94758e-08
1.81254e-06
-9.46047e-08
1.86066e-06
-8.98752e-08
1.90645e-06
-8.52941e-08
1.94999e-06
-8.0866e-08
1.99136e-06
-7.65941e-08
2.03062e-06
-7.24799e-08
2.06786e-06
-6.85239e-08
2.10315e-06
-6.47252e-08
2.13656e-06
-6.10826e-08
2.16817e-06
-5.75936e-08
2.19805e-06
-5.42554e-08
2.22626e-06
-5.10648e-08
2.25289e-06
-4.80178e-08
2.27799e-06
-4.51107e-08
2.30163e-06
-4.23389e-08
2.32389e-06
-3.96982e-08
2.34481e-06
-3.7184e-08
2.36446e-06
-3.47917e-08
2.3829e-06
-3.25166e-08
2.40019e-06
-3.03541e-08
2.41637e-06
-2.82997e-08
2.43151e-06
-2.63488e-08
2.44564e-06
-2.4497e-08
2.45883e-06
-2.27399e-08
2.47111e-06
-2.10732e-08
2.48253e-06
-1.94928e-08
2.49313e-06
-1.79948e-08
2.50296e-06
-1.65753e-08
2.51205e-06
-1.52304e-08
2.52044e-06
-1.39567e-08
2.52816e-06
-1.27505e-08
2.53526e-06
-1.16086e-08
2.54175e-06
-1.05277e-08
2.54768e-06
-9.50506e-09
2.55307e-06
-8.53717e-09
2.55795e-06
-7.62139e-09
2.56235e-06
-6.75559e-09
2.56629e-06
-5.93617e-09
2.56979e-06
-5.16061e-09
2.57289e-06
-4.42784e-09
2.5756e-06
-3.73445e-09
2.57794e-06
-3.07732e-09
2.57994e-06
-2.45602e-09
2.5816e-06
-1.86838e-09
2.58297e-06
-1.31064e-09
2.58409e-06
-7.78467e-10
2.58496e-06
-2.69996e-10
2.58559e-06
2.10301e-10
2.58602e-06
6.63229e-10
2.58623e-06
1.08696e-09
2.58626e-06
1.47895e-09
2.58609e-06
1.84172e-09
2.58574e-06
2.17881e-09
2.58521e-06
2.4951e-09
2.58449e-06
2.795e-09
2.58361e-06
3.08118e-09
2.58255e-06
3.35508e-09
2.58133e-06
3.61707e-09
2.57996e-06
3.8672e-09
2.57844e-06
4.10562e-09
2.57678e-06
4.33258e-09
2.57498e-06
4.54848e-09
2.57307e-06
4.75385e-09
2.57103e-06
4.94924e-09
2.56888e-06
5.13522e-09
2.56662e-06
5.31239e-09
2.56426e-06
5.48126e-09
2.56181e-06
5.64237e-09
2.55926e-06
5.79626e-09
2.55662e-06
5.94344e-09
2.55391e-06
6.08435e-09
2.55111e-06
6.21947e-09
2.54824e-06
6.34919e-09
2.54529e-06
6.47391e-09
2.54228e-06
6.59402e-09
2.5392e-06
6.70988e-09
2.53606e-06
6.82175e-09
2.53285e-06
6.9301e-09
2.52959e-06
7.03512e-09
2.52627e-06
7.13717e-09
2.52289e-06
7.23654e-09
2.51947e-06
7.33355e-09
2.51599e-06
7.42838e-09
2.51246e-06
7.52139e-09
2.50888e-06
7.61278e-09
2.50526e-06
7.70287e-09
2.50158e-06
7.7919e-09
2.49787e-06
7.88018e-09
2.4941e-06
7.96801e-09
2.49029e-06
8.05578e-09
2.48644e-06
8.14388e-09
2.48254e-06
8.23275e-09
2.4786e-06
8.32299e-09
2.47461e-06
8.41511e-09
2.47057e-06
8.51e-09
2.46649e-06
8.60853e-09
2.46235e-06
8.71192e-09
2.45817e-06
8.82156e-09
2.45392e-06
8.93933e-09
2.44962e-06
9.06758e-09
2.44525e-06
9.20924e-09
2.4408e-06
9.36834e-09
2.43628e-06
9.54932e-09
2.43165e-06
9.75973e-09
2.42692e-06
1.00056e-08
2.42205e-06
1.03035e-08
2.41703e-06
1.06559e-08
2.4118e-06
1.1111e-08
2.40635e-06
1.16302e-08
2.40054e-06
1.24011e-08
2.39444e-06
1.31418e-08
2.38765e-06
1.4642e-08
2.38046e-06
1.55658e-08
2.37198e-06
1.88609e-08
2.36279e-06
1.97453e-08
2.35111e-06
2.75708e-08
2.33769e-06
2.79606e-08
2.31887e-06
4.90305e-08
2.29387e-06
4.94896e-08
2.26091e-06
1.15547e-07
1.28714e-07
2.21442e-06
-6.30999e-08
1.83617e-07
-1.31245e-07
1.97873e-07
-1.98814e-07
1.95957e-07
-2.66324e-07
1.95762e-07
-3.33311e-07
1.94195e-07
-3.99465e-07
1.91655e-07
-4.64463e-07
1.88131e-07
-5.27945e-07
1.83527e-07
-5.89525e-07
1.77752e-07
-6.48778e-07
1.7071e-07
-7.05235e-07
1.62307e-07
-7.5839e-07
1.5245e-07
-8.077e-07
1.41063e-07
-8.52592e-07
1.2808e-07
-8.92476e-07
1.13469e-07
-9.26738e-07
9.72241e-08
-9.54771e-07
7.938e-08
-9.76009e-07
6.00403e-08
-9.89925e-07
3.93262e-08
-9.96069e-07
1.74581e-08
-9.94009e-07
-5.5911e-09
-9.83362e-07
-2.96505e-08
-9.64017e-07
-5.40004e-08
-9.3598e-07
-7.83888e-08
-8.99384e-07
-1.0247e-07
-8.54491e-07
-1.25905e-07
-8.01684e-07
-1.48375e-07
-7.41453e-07
-1.69593e-07
-6.74375e-07
-1.89296e-07
-6.01114e-07
-2.0729e-07
-5.22353e-07
-2.23419e-07
-4.38813e-07
-2.37554e-07
-3.51296e-07
-2.49649e-07
-2.60476e-07
-2.59712e-07
-1.67107e-07
-2.67744e-07
-7.18302e-08
-2.73812e-07
2.46656e-08
-2.78022e-07
1.21793e-07
-2.80482e-07
2.19009e-07
-2.81323e-07
3.15824e-07
-2.80686e-07
4.11801e-07
-2.78718e-07
5.06558e-07
-2.75568e-07
5.99766e-07
-2.71383e-07
6.91144e-07
-2.66305e-07
7.80457e-07
-2.6047e-07
8.67514e-07
-2.54003e-07
9.52159e-07
-2.47022e-07
1.03428e-06
-2.39634e-07
1.11377e-06
-2.31936e-07
1.1906e-06
-2.24014e-07
1.2647e-06
-2.15944e-07
1.33608e-06
-2.07793e-07
1.40472e-06
-1.99621e-07
1.47065e-06
-1.91476e-07
1.53389e-06
-1.83402e-07
1.59449e-06
-1.75435e-07
1.65249e-06
-1.67605e-07
1.70795e-06
-1.59937e-07
1.76092e-06
-1.5245e-07
1.81148e-06
-1.45161e-07
1.85969e-06
-1.38082e-07
1.90561e-06
-1.31221e-07
1.94933e-06
-1.24585e-07
1.99092e-06
-1.18179e-07
2.03044e-06
-1.12003e-07
2.06797e-06
-1.06059e-07
2.10359e-06
-1.00344e-07
2.13737e-06
-9.48578e-08
2.16937e-06
-8.95957e-08
2.19967e-06
-8.45539e-08
2.22833e-06
-7.97276e-08
2.25543e-06
-7.51116e-08
2.28102e-06
-7.07e-08
2.30516e-06
-6.6487e-08
2.32793e-06
-6.24663e-08
2.34938e-06
-5.86314e-08
2.36956e-06
-5.49761e-08
2.38854e-06
-5.14937e-08
2.40636e-06
-4.81777e-08
2.42309e-06
-4.50218e-08
2.43876e-06
-4.20195e-08
2.45342e-06
-3.91647e-08
2.46714e-06
-3.64511e-08
2.47994e-06
-3.38728e-08
2.49187e-06
-3.14239e-08
2.50297e-06
-2.90987e-08
2.51329e-06
-2.68918e-08
2.52285e-06
-2.47977e-08
2.53171e-06
-2.28112e-08
2.53989e-06
-2.09275e-08
2.54742e-06
-1.91415e-08
2.55434e-06
-1.74488e-08
2.56068e-06
-1.58449e-08
2.56647e-06
-1.43252e-08
2.57173e-06
-1.28859e-08
2.5765e-06
-1.15232e-08
2.5808e-06
-1.02325e-08
2.58465e-06
-9.01043e-09
2.58807e-06
-7.85416e-09
2.5911e-06
-6.7591e-09
2.59374e-06
-5.72225e-09
2.59603e-06
-4.7405e-09
2.59797e-06
-3.80998e-09
2.59959e-06
-2.92855e-09
2.6009e-06
-2.09395e-09
2.60194e-06
-1.30696e-09
2.60272e-06
-5.66852e-10
2.60325e-06
1.31512e-10
2.60354e-06
7.93931e-10
2.60361e-06
1.41262e-09
2.60346e-06
1.99164e-09
2.6031e-06
2.53512e-09
2.60255e-06
3.04829e-09
2.60181e-06
3.53523e-09
2.60089e-06
3.99846e-09
2.59981e-06
4.43949e-09
2.59856e-06
4.85918e-09
2.59717e-06
5.25828e-09
2.59564e-06
5.63744e-09
2.59398e-06
5.99757e-09
2.59218e-06
6.33959e-09
2.59027e-06
6.66451e-09
2.58825e-06
6.97319e-09
2.58612e-06
7.26671e-09
2.58388e-06
7.54585e-09
2.58155e-06
7.81159e-09
2.57913e-06
8.06476e-09
2.57662e-06
8.30617e-09
2.57403e-06
8.53663e-09
2.57136e-06
8.75691e-09
2.56861e-06
8.96765e-09
2.56579e-06
9.16961e-09
2.5629e-06
9.36338e-09
2.55994e-06
9.54957e-09
2.55692e-06
9.7287e-09
2.55384e-06
9.90141e-09
2.55071e-06
1.00682e-08
2.54751e-06
1.02295e-08
2.54426e-06
1.03858e-08
2.54096e-06
1.05377e-08
2.53761e-06
1.06855e-08
2.53421e-06
1.08297e-08
2.53076e-06
1.09708e-08
2.52726e-06
1.1109e-08
2.52372e-06
1.12449e-08
2.52013e-06
1.13789e-08
2.5165e-06
1.15113e-08
2.51283e-06
1.16428e-08
2.50911e-06
1.17739e-08
2.50535e-06
1.19051e-08
2.50154e-06
1.20371e-08
2.4977e-06
1.21706e-08
2.49381e-06
1.23068e-08
2.48987e-06
1.24465e-08
2.48589e-06
1.25912e-08
2.48186e-06
1.27426e-08
2.47777e-06
1.29028e-08
2.47364e-06
1.30742e-08
2.46945e-06
1.32604e-08
2.46519e-06
1.34654e-08
2.46086e-06
1.36951e-08
2.45646e-06
1.39554e-08
2.45196e-06
1.42579e-08
2.44736e-06
1.46088e-08
2.44262e-06
1.50363e-08
2.43775e-06
1.55342e-08
2.43267e-06
1.61873e-08
2.42738e-06
1.69153e-08
2.42177e-06
1.80105e-08
2.41585e-06
1.90667e-08
2.40938e-06
2.11125e-08
2.40237e-06
2.25794e-08
2.39446e-06
2.6765e-08
2.3854e-06
2.88095e-08
2.37501e-06
3.7954e-08
2.36157e-06
4.1405e-08
2.34705e-06
6.35495e-08
2.32427e-06
7.22655e-08
2.30756e-06
1.32261e-07
1.65929e-07
2.27035e-06
-6.5256e-08
2.48873e-07
-1.36238e-07
2.68854e-07
-2.06945e-07
2.66665e-07
-2.77762e-07
2.66578e-07
-3.48248e-07
2.64681e-07
-4.18149e-07
2.61555e-07
-4.87164e-07
2.57145e-07
-5.54933e-07
2.51297e-07
-6.2105e-07
2.43868e-07
-6.85052e-07
2.34711e-07
-7.46414e-07
2.2367e-07
-8.04555e-07
2.1059e-07
-8.58837e-07
1.95346e-07
-9.08575e-07
1.77818e-07
-9.53042e-07
1.57937e-07
-9.91511e-07
1.35692e-07
-1.02325e-06
1.11115e-07
-1.04753e-06
8.43262e-08
-1.06374e-06
5.55316e-08
-1.07131e-06
2.50354e-08
-1.06976e-06
-7.1452e-09
-1.05856e-06
-4.08454e-08
-1.03763e-06
-7.49396e-08
-1.00699e-06
-1.09025e-07
-9.6685e-07
-1.42609e-07
-9.17569e-07
-1.75187e-07
-8.59658e-07
-2.06286e-07
-7.93772e-07
-2.35479e-07
-7.20627e-07
-2.62441e-07
-6.41053e-07
-2.86864e-07
-5.55904e-07
-3.08568e-07
-4.6604e-07
-3.27418e-07
-3.72338e-07
-3.43351e-07
-2.7565e-07
-3.564e-07
-1.76772e-07
-3.66621e-07
-7.644e-08
-3.74144e-07
2.46444e-08
-3.79106e-07
1.25865e-07
-3.81703e-07
2.26672e-07
-3.8213e-07
3.26583e-07
-3.80596e-07
4.25179e-07
-3.77313e-07
5.22104e-07
-3.72493e-07
6.1706e-07
-3.66339e-07
7.09802e-07
-3.59047e-07
8.00132e-07
-3.508e-07
8.87896e-07
-3.41767e-07
9.72978e-07
-3.32103e-07
1.05529e-06
-3.21949e-07
1.13479e-06
-3.1143e-07
1.21143e-06
-3.00657e-07
1.28521e-06
-2.89728e-07
1.35615e-06
-2.78727e-07
1.42426e-06
-2.67728e-07
1.48957e-06
-2.56793e-07
1.55215e-06
-2.45976e-07
1.61203e-06
-2.3532e-07
1.66929e-06
-2.24863e-07
1.72399e-06
-2.14634e-07
1.77619e-06
-2.04656e-07
1.82598e-06
-1.94949e-07
1.87343e-06
-1.85527e-07
1.91861e-06
-1.764e-07
1.96159e-06
-1.67574e-07
2.00247e-06
-1.59053e-07
2.04131e-06
-1.5084e-07
2.07818e-06
-1.42933e-07
2.11317e-06
-1.35331e-07
2.14634e-06
-1.28029e-07
2.17777e-06
-1.21023e-07
2.20752e-06
-1.14307e-07
2.23567e-06
-1.07875e-07
2.26227e-06
-1.01719e-07
2.2874e-06
-9.58313e-08
2.31112e-06
-9.0205e-08
2.33349e-06
-8.48313e-08
2.35456e-06
-7.9702e-08
2.37439e-06
-7.48088e-08
2.39304e-06
-7.01431e-08
2.41056e-06
-6.56966e-08
2.427e-06
-6.14609e-08
2.44241e-06
-5.74279e-08
2.45683e-06
-5.35896e-08
2.47032e-06
-4.99378e-08
2.48291e-06
-4.64651e-08
2.49465e-06
-4.31638e-08
2.50558e-06
-4.00265e-08
2.51573e-06
-3.70462e-08
2.52515e-06
-3.4216e-08
2.53387e-06
-3.15291e-08
2.54192e-06
-2.8979e-08
2.54934e-06
-2.65596e-08
2.55615e-06
-2.42647e-08
2.5624e-06
-2.20886e-08
2.5681e-06
-2.00257e-08
2.57328e-06
-1.80705e-08
2.57798e-06
-1.62179e-08
2.58221e-06
-1.44627e-08
2.586e-06
-1.28001e-08
2.58937e-06
-1.12257e-08
2.59235e-06
-9.73496e-09
2.59495e-06
-8.32301e-09
2.59719e-06
-6.98561e-09
2.5991e-06
-5.72019e-09
2.6007e-06
-4.5245e-09
2.602e-06
-3.39321e-09
2.60301e-06
-2.32119e-09
2.60375e-06
-1.30655e-09
2.60423e-06
-3.48108e-10
2.60447e-06
5.51041e-10
2.60449e-06
1.39895e-09
2.60428e-06
2.19608e-09
2.60387e-06
2.94778e-09
2.60326e-06
3.65769e-09
2.60247e-06
4.32949e-09
2.6015e-06
4.9664e-09
2.60037e-06
5.57082e-09
2.59908e-06
6.1445e-09
2.59765e-06
6.68906e-09
2.59608e-06
7.20594e-09
2.59438e-06
7.69649e-09
2.59256e-06
8.16207e-09
2.59062e-06
8.60416e-09
2.58857e-06
9.02395e-09
2.58641e-06
9.42283e-09
2.58416e-06
9.80201e-09
2.58181e-06
1.01627e-08
2.57937e-06
1.05061e-08
2.57684e-06
1.08334e-08
2.57423e-06
1.11455e-08
2.57154e-06
1.14436e-08
2.56878e-06
1.17287e-08
2.56595e-06