/*--------------------------------*- C++ -*----------------------------------*\
  =========                 |
  \\      /  F ield         | OpenFOAM: The Open Source CFD Toolbox
   \\    /   O peration     | Website:  https://openfoam.org
    \\  /    A nd           | Version:  7
     \\/     M anipulation  |
\*---------------------------------------------------------------------------*/
FoamFile
{
    version     2.0;
    format      ascii;
    class       surfaceScalarField;
    location    "0.01";
    object      phi_0;
}
// * * * * * * * * * * * * * * * * * * * * * * * * * * * * * * * * * * * * * //

dimensions      [0 3 -1 0 0 0 0];

internalField   nonuniform List<scalar> 
24170
(
1.40041e-06
2.05688e-07
1.25731e-06
1.43104e-07
1.11987e-06
1.37438e-07
1.00413e-06
1.15739e-07
9.07475e-07
9.6658e-08
8.23032e-07
8.44437e-08
7.44895e-07
7.81371e-08
6.74038e-07
7.08569e-08
6.15265e-07
5.87726e-08
5.71783e-07
4.34817e-08
5.43199e-07
2.85841e-08
5.26075e-07
1.71239e-08
5.18647e-07
7.42831e-09
5.16999e-07
1.64827e-09
5.22099e-07
-5.09979e-09
5.31529e-07
-9.43031e-09
5.43975e-07
-1.24459e-08
-1.38858e-08
5.57861e-07
1.64766e-06
2.53468e-07
1.63131e-06
1.59458e-07
1.60025e-06
1.68496e-07
1.5644e-06
1.51583e-07
1.53507e-06
1.25996e-07
1.51202e-06
1.07494e-07
1.49016e-06
9.99922e-08
1.46628e-06
9.47334e-08
1.43955e-06
8.55095e-08
1.41086e-06
7.21731e-08
1.38229e-06
5.7151e-08
1.35674e-06
4.26721e-08
1.33692e-06
2.72464e-08
1.32576e-06
1.28122e-08
1.32096e-06
-2.98928e-10
1.32379e-06
-1.22587e-08
1.33132e-06
-1.99808e-08
-2.88199e-08
1.34625e-06
1.79217e-06
2.67045e-07
1.77335e-06
1.78278e-07
1.75249e-06
1.89359e-07
1.7374e-06
1.66673e-07
1.732e-06
1.31394e-07
1.73079e-06
1.08703e-07
1.73187e-06
9.89119e-08
1.73521e-06
9.13932e-08
1.73918e-06
8.15377e-08
1.74014e-06
7.1215e-08
1.73583e-06
6.14627e-08
1.72719e-06
5.13128e-08
1.71671e-06
3.77289e-08
1.70838e-06
2.11415e-08
1.70364e-06
4.43489e-09
1.70351e-06
-1.21297e-08
1.70747e-06
-2.39377e-08
-3.5136e-08
1.71379e-06
1.91247e-06
3.39508e-07
1.88456e-06
2.0618e-07
1.88134e-06
1.92579e-07
1.88456e-06
1.63455e-07
1.88566e-06
1.30297e-07
1.88217e-06
1.12193e-07
1.87785e-06
1.03234e-07
1.87653e-06
9.27158e-08
1.87876e-06
7.93062e-08
1.88246e-06
6.7512e-08
1.88547e-06
5.84574e-08
1.88746e-06
4.93213e-08
1.88857e-06
3.66166e-08
1.88976e-06
1.99499e-08
1.89115e-06
3.04245e-09
1.89219e-06
-1.31621e-08
1.89375e-06
-2.55058e-08
-3.54282e-08
1.89405e-06
2.06525e-06
3.11321e-07
2.03647e-06
2.34961e-07
2.02267e-06
2.0638e-07
2.01917e-06
1.66952e-07
2.02313e-06
1.26338e-07
2.03002e-06
1.05306e-07
2.03268e-06
1.0057e-07
2.02752e-06
9.78742e-08
2.01764e-06
8.91917e-08
2.00939e-06
7.57549e-08
2.0074e-06
6.04482e-08
2.01226e-06
4.44674e-08
2.02086e-06
2.80185e-08
2.0292e-06
1.1607e-08
2.03495e-06
-2.70665e-09
2.03685e-06
-1.50689e-08
2.03648e-06
-2.5134e-08
-3.36086e-08
2.03466e-06
2.20527e-06
3.83176e-07
2.19418e-06
2.46043e-07
2.19321e-06
2.07355e-07
2.18443e-06
1.7573e-07
2.17672e-06
1.34052e-07
2.17519e-06
1.06836e-07
2.17531e-06
1.00443e-07
2.17161e-06
1.01575e-07
2.16431e-06
9.6499e-08
2.15791e-06
8.21459e-08
2.15606e-06
6.2306e-08
2.15895e-06
4.15748e-08
2.16428e-06
2.26907e-08
2.16943e-06
6.45601e-09
2.1737e-06
-6.97453e-09
2.17691e-06
-1.82819e-08
2.18028e-06
-2.85002e-08
-3.73624e-08
2.18403e-06
2.38505e-06
4.61305e-07
2.35249e-06
2.78603e-07
2.35226e-06
2.07586e-07
2.35599e-06
1.71994e-07
2.35795e-06
1.32092e-07
2.35877e-06
1.06017e-07
2.35712e-06
1.021e-07
2.35192e-06
1.06769e-07
2.34433e-06
1.04087e-07
2.33708e-06
8.94014e-08
2.3325e-06
6.68783e-08
2.3315e-06
4.258e-08
2.33361e-06
2.05825e-08
2.33799e-06
2.07313e-09
2.34401e-06
-1.29914e-08
2.35106e-06
-2.5337e-08
2.35826e-06
-3.57016e-08
-4.3614e-08
2.36452e-06
2.57745e-06
4.18439e-07
2.55996e-06
2.96093e-07
2.5323e-06
2.35254e-07
2.51962e-06
1.84667e-07
2.51684e-06
1.34878e-07
2.51844e-06
1.04416e-07
2.52136e-06
9.91803e-08
2.52291e-06
1.05211e-07
2.52115e-06
1.05852e-07
2.51628e-06
9.42689e-08
2.51031e-06
7.28457e-08
2.50577e-06
4.71282e-08
2.50466e-06
2.16856e-08
2.50758e-06
-8.39195e-10
2.51407e-06
-1.94861e-08
2.52291e-06
-3.41814e-08
2.5329e-06
-4.56878e-08
-5.35289e-08
2.54282e-06
2.74842e-06
4.49132e-07
2.73585e-06
3.08666e-07
2.71806e-06
2.53042e-07
2.70443e-06
1.98303e-07
2.69735e-06
1.41959e-07
2.6985e-06
1.03263e-07
2.70929e-06
8.8386e-08
2.72608e-06
8.84235e-08
2.7422e-06
8.97341e-08
2.75263e-06
8.38405e-08
2.75586e-06
6.96087e-08
2.75337e-06
4.96171e-08
2.74824e-06
2.68169e-08
2.74386e-06
3.54839e-09
2.74274e-06
-1.83757e-08
2.74552e-06
-3.69584e-08
2.75163e-06
-5.17957e-08
-6.17779e-08
2.75988e-06
2.98229e-06
4.64325e-07
2.96055e-06
3.3041e-07
2.93966e-06
2.73926e-07
2.91343e-06
2.24537e-07
2.89417e-06
1.61219e-07
2.89121e-06
1.06221e-07
2.90304e-06
7.65582e-08
2.92108e-06
7.03828e-08
2.93675e-06
7.40664e-08
2.94537e-06
7.52206e-08
2.94702e-06
6.79539e-08
2.94528e-06
5.13576e-08
2.94418e-06
2.7915e-08
2.94621e-06
1.52282e-09
2.95171e-06
-2.38732e-08
2.95976e-06
-4.50129e-08
2.96914e-06
-6.11712e-08
-7.1661e-08
2.97902e-06
3.16363e-06
4.2186e-07
3.1756e-06
3.18444e-07
3.16728e-06
2.82248e-07
3.15775e-06
2.34066e-07
3.15368e-06
1.65288e-07
3.15421e-06
1.05694e-07
3.15616e-06
7.45989e-08
3.15609e-06
7.04614e-08
3.15278e-06
7.73742e-08
3.14852e-06
7.948e-08
3.14686e-06
6.96084e-08
3.14955e-06
4.8669e-08
3.15604e-06
2.14305e-08
3.16391e-06
-6.35209e-09
3.17087e-06
-3.0828e-08
3.17571e-06
-4.98521e-08
3.17888e-06
-6.43464e-08
-7.48726e-08
3.18209e-06
2.79714e-06
4.81922e-07
2.82768e-06
2.87908e-07
2.8481e-06
2.61831e-07
2.85698e-06
2.25184e-07
2.85911e-06
1.63156e-07
2.85533e-06
1.09471e-07
2.84633e-06
8.36013e-08
2.83561e-06
8.11828e-08
2.82857e-06
8.44184e-08
2.82933e-06
7.87147e-08
2.83846e-06
6.04784e-08
2.85319e-06
3.39402e-08
2.86852e-06
6.10465e-09
2.88033e-06
-1.81685e-08
2.88699e-06
-3.7491e-08
2.88943e-06
-5.2285e-08
2.88975e-06
-6.46646e-08
-7.57382e-08
2.89061e-06
3.47052e-06
3.28796e-07
3.47658e-06
2.81846e-07
3.45362e-06
2.84786e-07
3.45393e-06
2.24877e-07
3.46317e-06
1.53914e-07
3.46218e-06
1.10464e-07
3.44906e-06
9.6722e-08
3.43494e-06
9.53071e-08
3.43149e-06
8.78657e-08
3.44261e-06
6.75935e-08
3.46426e-06
3.88301e-08
3.48855e-06
9.64633e-09
3.50914e-06
-1.44849e-08
3.52311e-06
-3.21357e-08
3.53062e-06
-4.50028e-08
3.53405e-06
-5.57189e-08
3.53627e-06
-6.68806e-08
-7.86618e-08
3.53919e-06
4.21699e-06
2.0537e-07
4.22213e-06
2.76709e-07
4.22334e-06
2.83576e-07
4.23953e-06
2.0869e-07
4.2476e-06
1.45836e-07
4.24215e-06
1.15917e-07
4.23341e-06
1.05457e-07
4.23407e-06
9.46518e-08
4.24768e-06
7.42604e-08
4.26811e-06
4.71555e-08
4.28616e-06
2.07861e-08
4.29618e-06
-3.77962e-10
4.29796e-06
-1.62685e-08
4.29575e-06
-2.99207e-08
4.29498e-06
-4.42283e-08
4.29932e-06
-6.00662e-08
4.30947e-06
-7.70325e-08
-9.24589e-08
4.32327e-06
5.1718e-06
2.49962e-07
5.172e-06
2.76514e-07
5.17906e-06
2.76517e-07
5.18593e-06
2.01814e-07
5.19798e-06
1.33788e-07
5.21333e-06
1.00573e-07
5.22978e-06
8.89989e-08
5.24476e-06
7.96771e-08
5.25423e-06
6.47939e-08
5.25476e-06
4.66244e-08
5.24663e-06
2.891e-08
5.23462e-06
1.16344e-08
5.22567e-06
-7.31539e-09
5.22525e-06
-2.95035e-08
5.23513e-06
-5.41069e-08
5.25319e-06
-7.81239e-08
5.2753e-06
-9.91492e-08
-1.13296e-07
5.29614e-06
6.41459e-06
3.95929e-07
6.39762e-06
2.93486e-07
6.41983e-06
2.54302e-07
6.40923e-06
2.12419e-07
6.37759e-06
1.65427e-07
6.34911e-06
1.29053e-07
6.33651e-06
1.01595e-07
6.33761e-06
7.85779e-08
6.34291e-06
5.94941e-08
6.34476e-06
4.47757e-08
6.34154e-06
3.21303e-08
6.33618e-06
1.69954e-08
6.3329e-06
-4.03785e-09
6.33427e-06
-3.08755e-08
6.34074e-06
-6.05746e-08
6.35085e-06
-8.82301e-08
6.36247e-06
-1.10773e-07
-1.25651e-07
6.37483e-06
7.76049e-06
5.73593e-07
7.67678e-06
3.77195e-07
7.65668e-06
2.744e-07
7.64269e-06
2.26408e-07
7.62762e-06
1.80495e-07
7.6264e-06
1.3028e-07
7.6474e-06
8.05916e-08
7.6864e-06
3.95802e-08
7.73296e-06
1.29356e-08
7.77887e-06
-1.1404e-09
7.82083e-06
-9.82563e-09
7.85698e-06
-1.91558e-08
7.88508e-06
-3.21436e-08
7.90284e-06
-4.86357e-08
7.90864e-06
-6.63657e-08
7.90318e-06
-8.27785e-08
7.88857e-06
-9.61592e-08
-1.06237e-07
7.86916e-06
9.51361e-06
4.30097e-07
9.49207e-06
3.98726e-07
9.4639e-06
3.02578e-07
9.45968e-06
2.30622e-07
9.46635e-06
1.73828e-07
9.47965e-06
1.16981e-07
9.49704e-06
6.32017e-08
9.51496e-06
2.16608e-08
9.53038e-06
-2.4917e-09
9.54033e-06
-1.10899e-08
9.54453e-06
-1.40205e-08
9.54485e-06
-1.9479e-08
9.54352e-06
-3.08122e-08
9.5416e-06
-4.67176e-08
9.5393e-06
-6.40624e-08
9.53653e-06
-8.00138e-08
9.53356e-06
-9.31807e-08
-1.03126e-07
9.53045e-06
1.16304e-05
5.61244e-07
1.1611e-05
4.18105e-07
1.16431e-05
2.70502e-07
1.16828e-05
1.9086e-07
1.17035e-05
1.53118e-07
1.17013e-05
1.19236e-07
1.16853e-05
7.9152e-08
1.16649e-05
4.20529e-08
1.16442e-05
1.82517e-08
1.16267e-05
6.37029e-09
1.16146e-05
-1.8967e-09
1.16088e-05
-1.36456e-08
1.16081e-05
-3.01754e-08
1.16117e-05
-5.03162e-08
1.16189e-05
-7.12186e-08
1.1629e-05
-9.01013e-08
1.16414e-05
-1.05639e-07
-1.17298e-07
1.16556e-05
8.47104e-06
6.25776e-07
8.46835e-06
4.20791e-07
8.46555e-06
2.73302e-07
8.45143e-06
2.0498e-07
8.4479e-06
1.56653e-07
8.46043e-06
1.067e-07
8.47513e-06
6.44568e-08
8.47991e-06
3.72698e-08
8.47584e-06
2.23171e-08
8.4721e-06
1.01184e-08
8.47712e-06
-6.9181e-09
8.49253e-06
-2.90554e-08
8.51617e-06
-5.38198e-08
8.54146e-06
-7.56071e-08
8.56193e-06
-9.16841e-08
8.57377e-06
-1.01943e-07
8.57579e-06
-1.07655e-07
-1.10857e-07
8.56934e-06
7.23167e-06
3.5073e-07
7.38601e-06
2.66446e-07
7.4406e-06
2.18717e-07
7.46667e-06
1.78907e-07
7.47741e-06
1.4591e-07
7.47574e-06
1.08372e-07
7.4699e-06
7.0295e-08
7.46762e-06
3.95562e-08
7.47274e-06
1.71924e-08
7.48273e-06
1.31157e-10
7.49179e-06
-1.59829e-08
7.49339e-06
-3.0649e-08
7.48474e-06
-4.517e-08
7.46871e-06
-5.95757e-08
7.45036e-06
-7.3337e-08
7.43428e-06
-8.58634e-08
7.42345e-06
-9.68226e-08
-1.05595e-07
7.41818e-06
6.35407e-06
4.13695e-07
6.3459e-06
2.7461e-07
6.39852e-06
1.66103e-07
6.44766e-06
1.29768e-07
6.48128e-06
1.12285e-07
6.50062e-06
8.90278e-08
6.51199e-06
5.89246e-08
6.52424e-06
2.73129e-08
6.54174e-06
-3.08615e-10
6.56101e-06
-1.91409e-08
6.57838e-06
-3.33568e-08
6.59185e-06
-4.41131e-08
6.60016e-06
-5.3477e-08
6.6039e-06
-6.33181e-08
6.6045e-06
-7.3936e-08
6.60314e-06
-8.45016e-08
6.60009e-06
-9.37771e-08
-1.00337e-07
6.59483e-06
5.59876e-06
3.5796e-07
5.64731e-06
2.26064e-07
5.66126e-06
1.52148e-07
5.67368e-06
1.17349e-07
5.69168e-06
9.42838e-08
5.71059e-06
7.01197e-08
5.7247e-06
4.48146e-08
5.73185e-06
2.01667e-08
5.73391e-06
-2.36893e-09
5.74063e-06
-2.58616e-08
5.75333e-06
-4.60559e-08
5.773e-06
-6.3787e-08
5.79687e-06
-7.73482e-08
5.81983e-06
-8.62742e-08
5.83688e-06
-9.09914e-08
5.84494e-06
-9.25562e-08
5.84307e-06
-9.19062e-08
-9.02113e-08
5.83294e-06
4.81065e-06
2.88994e-07
4.86235e-06
1.74367e-07
4.89928e-06
1.15217e-07
4.93233e-06
8.4299e-08
4.96665e-06
5.99695e-08
5.00127e-06
3.54921e-08
5.03218e-06
1.39081e-08
5.05709e-06
-4.74217e-09
5.075e-06
-2.02768e-08
5.08562e-06
-3.64867e-08
5.08952e-06
-4.99546e-08
5.08543e-06
-5.96918e-08
5.07379e-06
-6.57087e-08
5.05652e-06
-6.90088e-08
5.03679e-06
-7.12587e-08
5.01784e-06
-7.36116e-08
5.00254e-06
-7.66023e-08
-7.96609e-08
4.99199e-06
4.28607e-06
2.92998e-07
4.32054e-06
1.39898e-07
4.34444e-06
9.13142e-08
4.3602e-06
6.85351e-08
4.38429e-06
3.58843e-08
4.41269e-06
7.09266e-09
4.43397e-06
-7.37644e-09
4.44446e-06
-1.52322e-08
4.44708e-06
-2.28881e-08
4.44515e-06
-3.45623e-08
4.4423e-06
-4.71022e-08
4.43932e-06
-5.67168e-08
4.43615e-06
-6.2533e-08
4.43301e-06
-6.5868e-08
4.43023e-06
-6.84829e-08
4.42807e-06
-7.14508e-08
4.42648e-06
-7.50162e-08
-7.87471e-08
4.42557e-06
3.7216e-06
2.89233e-07
3.76659e-06
9.49112e-08
3.78568e-06
7.222e-08
3.80164e-06
5.25778e-08
3.82441e-06
1.31157e-08
3.84919e-06
-1.76899e-08
3.87193e-06
-3.01181e-08
3.89065e-06
-3.39556e-08
3.90684e-06
-3.9072e-08
3.92041e-06
-4.8139e-08
3.93138e-06
-5.80681e-08
3.94017e-06
-6.55045e-08
3.947e-06
-6.93677e-08
3.95167e-06
-7.05316e-08
3.95382e-06
-7.0634e-08
3.95347e-06
-7.11041e-08
3.95104e-06
-7.25902e-08
-7.51272e-08
3.94742e-06
3.28629e-06
1.91342e-07
3.31506e-06
6.6144e-08
3.34017e-06
4.71119e-08
3.36965e-06
2.30964e-08
3.39111e-06
-8.34083e-09
3.40845e-06
-3.50367e-08
3.42485e-06
-4.65184e-08
3.4398e-06
-4.88982e-08
3.45053e-06
-4.98092e-08
3.4556e-06
-5.32093e-08
3.45618e-06
-5.8642e-08
3.45474e-06
-6.40676e-08
3.45332e-06
-6.79455e-08
3.45294e-06
-7.01497e-08
3.45379e-06
-7.14884e-08
3.4557e-06
-7.30097e-08
3.4583e-06
-7.5198e-08
-7.80809e-08
3.46126e-06
2.8524e-06
1.69957e-07
2.91715e-06
1.39548e-09
2.95812e-06
6.13466e-09
2.98977e-06
-8.55466e-09
3.01221e-06
-3.07784e-08
3.02221e-06
-4.50311e-08
3.02356e-06
-4.78756e-08
3.02265e-06
-4.7985e-08
3.02492e-06
-5.20773e-08
3.03196e-06
-6.02519e-08
3.04184e-06
-6.85255e-08
3.05134e-06
-7.35637e-08
3.05806e-06
-7.46665e-08
3.06123e-06
-7.33225e-08
3.06128e-06
-7.1533e-08
3.05913e-06
-7.0858e-08
3.05551e-06
-7.15763e-08
-7.33372e-08
3.05076e-06
2.50393e-06
6.73651e-08
2.54554e-06
-4.02188e-08
2.57363e-06
-2.19536e-08
2.59873e-06
-3.36563e-08
2.61565e-06
-4.76974e-08
2.62521e-06
-5.45952e-08
2.63375e-06
-5.64112e-08
2.64345e-06
-5.76843e-08
2.65189e-06
-6.05232e-08
2.65521e-06
-6.35722e-08
2.65107e-06
-6.43796e-08
2.63964e-06
-6.21397e-08
2.62302e-06
-5.80453e-08
2.60362e-06
-5.39225e-08
2.58316e-06
-5.10659e-08
2.56226e-06
-4.99655e-08
2.54086e-06
-5.0168e-08
-5.10995e-08
2.51862e-06
2.17613e-06
2.13591e-06
2.11396e-06
2.0803e-06
2.03261e-06
1.97801e-06
1.9216e-06
1.86391e-06
1.80339e-06
1.73982e-06
1.67544e-06
1.6133e-06
1.55525e-06
1.50133e-06
1.45027e-06
1.4003e-06
1.35013e-06
1.29903e-06
-5.75147e-08
5.75147e-08
-1.19482e-07
6.19678e-08
-1.8103e-07
6.15475e-08
-2.42733e-07
6.17026e-08
-3.04205e-07
6.14723e-08
-3.65151e-07
6.0946e-08
-4.25267e-07
6.01161e-08
-4.84208e-07
5.89413e-08
-5.41584e-07
5.73759e-08
-5.9696e-07
5.53754e-08
-6.49869e-07
5.29093e-08
-6.99816e-07
4.9947e-08
-7.46256e-07
4.64404e-08
-7.88608e-07
4.23519e-08
-8.26293e-07
3.76845e-08
-8.58756e-07
3.2463e-08
-8.85461e-07
2.67054e-08
-9.059e-07
2.04392e-08
-9.19623e-07
1.37224e-08
-9.26265e-07
6.64201e-09
-9.25543e-07
-7.21319e-10
-9.17228e-07
-8.31535e-09
-9.01247e-07
-1.59808e-08
-8.77617e-07
-2.36306e-08
-8.4643e-07
-3.11868e-08
-8.07877e-07
-3.85532e-08
-7.62248e-07
-4.56287e-08
-7.09905e-07
-5.23426e-08
-6.51276e-07
-5.86292e-08
-5.86908e-07
-6.43681e-08
-5.17336e-07
-6.95723e-08
-4.4316e-07
-7.41752e-08
-3.65042e-07
-7.81188e-08
-2.83588e-07
-8.14533e-08
-1.99456e-07
-8.41323e-08
-1.13237e-07
-8.62189e-08
-2.55712e-08
-8.76658e-08
6.29796e-08
-8.85508e-08
1.51887e-07
-8.89075e-08
2.40662e-07
-8.87748e-08
3.28859e-07
-8.8197e-08
4.16079e-07
-8.72203e-08
5.0197e-07
-8.5891e-08
5.86225e-07
-8.42551e-08
6.68582e-07
-8.23568e-08
7.48821e-07
-8.02385e-08
8.2676e-07
-7.79397e-08
9.02257e-07
-7.54968e-08
9.752e-07
-7.29432e-08
1.04551e-06
-7.03089e-08
1.11313e-06
-6.76209e-08
1.17803e-06
-6.4903e-08
1.24021e-06
-6.2176e-08
1.29967e-06
-5.94581e-08
1.35643e-06
-5.67648e-08
1.41054e-06
-5.41092e-08
1.46204e-06
-5.15024e-08
1.511e-06
-4.89535e-08
1.55747e-06
-4.64698e-08
1.60152e-06
-4.40573e-08
1.64324e-06
-4.17204e-08
1.68271e-06
-3.94626e-08
1.71999e-06
-3.7286e-08
1.75519e-06
-3.5192e-08
1.78837e-06
-3.31811e-08
1.81962e-06
-3.12535e-08
1.84903e-06
-2.94084e-08
1.87667e-06
-2.76448e-08
1.90263e-06
-2.59614e-08
1.92699e-06
-2.43562e-08
1.94982e-06
-2.28274e-08
1.97119e-06
-2.13727e-08
1.99118e-06
-1.99897e-08
2.00986e-06
-1.86761e-08
2.02729e-06
-1.74291e-08
2.04353e-06
-1.62464e-08
2.05866e-06
-1.51251e-08
2.07272e-06
-1.40628e-08
2.08578e-06
-1.30567e-08
2.09788e-06
-1.21045e-08
2.10908e-06
-1.12035e-08
2.11944e-06
-1.03512e-08
2.12898e-06
-9.54542e-09
2.13776e-06
-8.78373e-09
2.14583e-06
-8.06391e-09
2.15321e-06
-7.38377e-09
2.15995e-06
-6.74135e-09
2.16609e-06
-6.13455e-09
2.17165e-06
-5.56148e-09
2.17667e-06
-5.0205e-09
2.18118e-06
-4.50963e-09
2.18521e-06
-4.02713e-09
2.18878e-06
-3.57201e-09
2.19192e-06
-3.14233e-09
2.19466e-06
-2.73586e-09
2.19701e-06
-2.35322e-09
2.199e-06
-1.99226e-09
2.20065e-06
-1.64883e-09
2.20198e-06
-1.32649e-09
2.203e-06
-1.02347e-09
2.20373e-06
-7.30566e-10
2.20419e-06
-4.55962e-10
2.20439e-06
-1.9865e-10
2.20432e-06
6.52907e-11
2.20398e-06
3.41216e-10
2.20338e-06
6.03142e-10
2.20253e-06
8.52038e-10
2.20144e-06
1.08842e-09
2.20013e-06
1.30859e-09
2.19862e-06
1.50635e-09
2.19694e-06
1.67996e-09
2.19511e-06
1.8313e-09
2.19315e-06
1.96472e-09
2.19106e-06
2.08519e-09
2.18886e-06
2.19676e-09
2.18656e-06
2.30195e-09
2.18416e-06
2.40205e-09
2.18166e-06
2.4977e-09
2.17907e-06
2.58905e-09
2.1764e-06
2.67638e-09
2.17364e-06
2.75978e-09
2.1708e-06
2.83956e-09
2.16788e-06
2.91585e-09
2.16489e-06
2.98893e-09
2.16183e-06
3.05897e-09
2.15871e-06
3.12614e-09
2.15552e-06
3.19077e-09
2.15226e-06
3.25292e-09
2.14895e-06
3.31285e-09
2.14558e-06
3.37074e-09
2.14215e-06
3.42671e-09
2.13867e-06
3.48096e-09
2.13514e-06
3.53356e-09
2.13155e-06
3.58466e-09
2.12792e-06
3.6344e-09
2.12424e-06
3.68291e-09
2.12051e-06
3.73026e-09
2.11673e-06
3.77667e-09
2.11291e-06
3.82218e-09
2.10904e-06
3.86689e-09
2.10513e-06
3.91094e-09
2.10118e-06
3.95441e-09
2.09718e-06
3.99744e-09
2.09314e-06
4.04009e-09
2.08906e-06
4.0825e-09
2.08493e-06
4.12475e-09
2.08076e-06
4.167e-09
2.07655e-06
4.20941e-09
2.0723e-06
4.25216e-09
2.06801e-06
4.29544e-09
2.06367e-06
4.33945e-09
2.05928e-06
4.38449e-09
2.05485e-06
4.4309e-09
2.05037e-06
4.47903e-09
2.04584e-06
4.52944e-09
2.04126e-06
4.58275e-09
2.03662e-06
4.63982e-09
2.03192e-06
4.70161e-09
2.02715e-06
4.76942e-09
2.0223e-06
4.84496e-09
2.01737e-06
4.93028e-09
2.01235e-06
5.02841e-09
2.0072e-06
5.14239e-09
2.00193e-06
5.27833e-09
1.99649e-06
5.43969e-09
1.99085e-06
5.6402e-09
1.98496e-06
5.88295e-09
1.97877e-06
6.19087e-09
1.97218e-06
6.59552e-09
1.96513e-06
7.04847e-09
1.95726e-06
7.86635e-09
1.94888e-06
8.38607e-09
1.93849e-06
1.03886e-08
1.92792e-06
1.05674e-08
1.91202e-06
1.59001e-08
1.89746e-06
1.45547e-08
1.86724e-06
3.02265e-08
1.84271e-06
2.45278e-08
1.76007e-06
8.26426e-08
8.23871e-08
1.67768e-06
-6.27472e-08
1.20262e-07
-1.30192e-07
1.29412e-07
-1.96708e-07
1.28064e-07
-2.62927e-07
1.27921e-07
-3.28325e-07
1.26871e-07
-3.92535e-07
1.25156e-07
-4.55196e-07
1.22777e-07
-5.15933e-07
1.19678e-07
-5.7435e-07
1.15793e-07
-6.30042e-07
1.11067e-07
-6.82579e-07
1.05447e-07
-7.31511e-07
9.88786e-08
-7.76395e-07
9.13248e-08
-8.16791e-07
8.27476e-08
-8.52243e-07
7.31359e-08
-8.82283e-07
6.25037e-08
-9.06461e-07
5.0883e-08
-9.24356e-07
3.83348e-08
-9.35578e-07
2.49436e-08
-9.39789e-07
1.08538e-08
-9.36516e-07
-3.99487e-09
-9.25381e-07
-1.94497e-08
-9.06278e-07
-3.50845e-08
-8.7915e-07
-5.07589e-08
-8.44081e-07
-6.62552e-08
-8.0127e-07
-8.13644e-08
-7.51011e-07
-9.58877e-08
-6.93705e-07
-1.09648e-07
-6.29867e-07
-1.22468e-07
-5.59993e-07
-1.34242e-07
-4.84731e-07
-1.44834e-07
-4.04753e-07
-1.54154e-07
-3.20634e-07
-1.62237e-07
-2.33124e-07
-1.68963e-07
-1.4284e-07
-1.74416e-07
-5.05124e-08
-1.78547e-07
4.33335e-08
-1.81512e-07
1.381e-07
-1.83318e-07
2.33242e-07
-1.84049e-07
3.28263e-07
-1.83796e-07
4.22717e-07
-1.8265e-07
5.16204e-07
-1.80708e-07
6.08375e-07
-1.78062e-07
6.98927e-07
-1.74807e-07
7.876e-07
-1.7103e-07
8.74177e-07
-1.66816e-07
9.58481e-07
-1.62243e-07
1.04037e-06
-1.57384e-07
1.11973e-06
-1.52303e-07
1.19648e-06
-1.4706e-07
1.27056e-06
-1.41706e-07
1.34195e-06
-1.3629e-07
1.41063e-06
-1.30851e-07
1.47659e-06
-1.25424e-07
1.53987e-06
-1.20039e-07
1.60048e-06
-1.14722e-07
1.65847e-06
-1.09495e-07
1.71389e-06
-1.04374e-07
1.7668e-06
-9.93747e-08
1.81725e-06
-9.45081e-08
1.86531e-06
-8.97832e-08
1.91105e-06
-8.52065e-08
1.95455e-06
-8.07828e-08
1.99587e-06
-7.65152e-08
2.0351e-06
-7.24052e-08
2.0723e-06
-6.84531e-08
2.10755e-06
-6.46584e-08
2.14092e-06
-6.10195e-08
2.17249e-06
-5.7534e-08
2.20234e-06
-5.41993e-08
2.23052e-06
-5.10118e-08
2.25712e-06
-4.7968e-08
2.28219e-06
-4.50637e-08
2.30581e-06
-4.22947e-08
2.32804e-06
-3.96566e-08
2.34894e-06
-3.71449e-08
2.36857e-06
-3.47548e-08
2.38699e-06
-3.24819e-08
2.40425e-06
-3.03215e-08
2.42041e-06
-2.82689e-08
2.43553e-06
-2.63198e-08
2.44965e-06
-2.44696e-08
2.46282e-06
-2.2714e-08
2.47508e-06
-2.10488e-08
2.48649e-06
-1.94698e-08
2.49708e-06
-1.7973e-08
2.50689e-06
-1.65546e-08
2.51597e-06
-1.52108e-08
2.52434e-06
-1.3938e-08
2.53206e-06
-1.27328e-08
2.53914e-06
-1.15917e-08
2.54562e-06
-1.05116e-08
2.55154e-06
-9.4896e-09
2.55692e-06
-8.52236e-09
2.56179e-06
-7.60718e-09
2.56618e-06
-6.74193e-09
2.57011e-06
-5.923e-09
2.57361e-06
-5.14791e-09
2.5767e-06
-4.41557e-09
2.5794e-06
-3.72256e-09
2.58173e-06
-3.06577e-09
2.58372e-06
-2.4448e-09
2.58538e-06
-1.85744e-09
2.58675e-06
-1.29996e-09
2.58786e-06
-7.68012e-10
2.58872e-06
-2.59676e-10
2.58935e-06
2.20292e-10
2.58977e-06
6.73074e-10
2.58998e-06
1.09651e-09
2.59e-06
1.48825e-09
2.58982e-06
1.85082e-09
2.58947e-06
2.18778e-09
2.58893e-06
2.50402e-09
2.58821e-06
2.80392e-09
2.58732e-06
3.09013e-09
2.58625e-06
3.36404e-09
2.58503e-06
3.62605e-09
2.58365e-06
3.87619e-09
2.58213e-06
4.11461e-09
2.58046e-06
4.34156e-09
2.57866e-06
4.55745e-09
2.57674e-06
4.76281e-09
2.5747e-06
4.95819e-09
2.57254e-06
5.14417e-09
2.57028e-06
5.32134e-09
2.56792e-06
5.49024e-09
2.56546e-06
5.65137e-09
2.5629e-06
5.8053e-09
2.56026e-06
5.95253e-09
2.55754e-06
6.09349e-09
2.55474e-06
6.22866e-09
2.55186e-06
6.35845e-09
2.54891e-06
6.48323e-09
2.54589e-06
6.6034e-09
2.54281e-06
6.71933e-09
2.53966e-06
6.83127e-09
2.53645e-06
6.93969e-09
2.53318e-06
7.04478e-09
2.52986e-06
7.14691e-09
2.52648e-06
7.24635e-09
2.52305e-06
7.34343e-09
2.51956e-06
7.43832e-09
2.51603e-06
7.53139e-09
2.51245e-06
7.62283e-09
2.50881e-06
7.71298e-09
2.50514e-06
7.80207e-09
2.50141e-06
7.89041e-09
2.49765e-06
7.9783e-09
2.49383e-06
8.06614e-09
2.48997e-06
8.15431e-09
2.48607e-06
8.24326e-09
2.48212e-06
8.33358e-09
2.47812e-06
8.42578e-09
2.47408e-06
8.52076e-09
2.46999e-06
8.61938e-09
2.46585e-06
8.72286e-09
2.46166e-06
8.8326e-09
2.45741e-06
8.95049e-09
2.4531e-06
9.07886e-09
2.44873e-06
9.22064e-09
2.44428e-06
9.37989e-09
2.43974e-06
9.56104e-09
2.43511e-06
9.77164e-09
2.43038e-06
1.00178e-08
2.4255e-06
1.03159e-08
2.42047e-06
1.06686e-08
2.41523e-06
1.11241e-08
2.40978e-06
1.16439e-08
2.40396e-06
1.24152e-08
2.39785e-06
1.31571e-08
2.39106e-06
1.46576e-08
2.38386e-06
1.55836e-08
2.37537e-06
1.88798e-08
2.36617e-06
1.97673e-08
2.35447e-06
2.75965e-08
2.34103e-06
2.79929e-08
2.32219e-06
4.90717e-08
2.29716e-06
4.95518e-08
2.26415e-06
1.15653e-07
1.28934e-07
2.21761e-06
-6.29679e-08
1.8323e-07
-1.30951e-07
1.97396e-07
-1.98356e-07
1.95468e-07
-2.65699e-07
1.95265e-07
-3.32517e-07
1.93688e-07
-3.98496e-07
1.91135e-07
-4.63316e-07
1.87597e-07
-5.26615e-07
1.82977e-07
-5.88005e-07
1.77184e-07
-6.4706e-07
1.70123e-07
-7.03314e-07
1.617e-07
-7.56258e-07
1.51822e-07
-8.05349e-07
1.40416e-07
-8.50015e-07
1.27414e-07
-8.89665e-07
1.12786e-07
-9.23687e-07
9.65264e-08
-9.51476e-07
7.86716e-08
-9.72467e-07
5.93258e-08
-9.86135e-07
3.86115e-08
-9.92031e-07
1.67503e-08
-9.89724e-07
-6.30235e-09
-9.78837e-07
-3.03364e-08
-9.59263e-07
-5.46583e-08
-9.3101e-07
-7.90122e-08
-8.94213e-07
-1.03052e-07
-8.49135e-07
-1.26442e-07
-7.96162e-07
-1.48861e-07
-7.35785e-07
-1.70025e-07
-6.68582e-07
-1.89671e-07
-5.95217e-07
-2.07607e-07
-5.16372e-07
-2.23679e-07
-4.32768e-07
-2.37758e-07
-3.45207e-07
-2.49799e-07
-2.5436e-07
-2.59811e-07
-1.6098e-07
-2.67796e-07
-6.57067e-08
-2.7382e-07
3.07723e-08
-2.77991e-07
1.27872e-07
-2.80417e-07
2.2505e-07
-2.81227e-07
3.21818e-07
-2.80564e-07
4.17742e-07
-2.78574e-07
5.12441e-07
-2.75406e-07
6.05586e-07
-2.71207e-07
6.96897e-07
-2.66118e-07
7.86142e-07
-2.60275e-07
8.73128e-07
-2.53802e-07
9.57703e-07
-2.46818e-07
1.03975e-06
-2.39429e-07
1.11918e-06
-2.31731e-07
1.19593e-06
-2.2381e-07
1.26996e-06
-2.15743e-07
1.34127e-06
-2.07597e-07
1.40985e-06
-1.99429e-07
1.47571e-06
-1.91289e-07
1.5389e-06
-1.83221e-07
1.59943e-06
-1.7526e-07
1.65738e-06
-1.67437e-07
1.71278e-06
-1.59775e-07
1.7657e-06
-1.52295e-07
1.8162e-06
-1.45012e-07
1.86436e-06
-1.3794e-07
1.91024e-06
-1.31085e-07
1.95391e-06
-1.24456e-07
1.99545e-06
-1.18056e-07
2.03493e-06
-1.11886e-07
2.07243e-06
-1.05948e-07
2.10801e-06
-1.00239e-07
2.14174e-06
-9.47579e-08
2.17371e-06
-8.9501e-08
2.20398e-06
-8.44642e-08
2.23261e-06
-7.96427e-08
2.25967e-06
-7.50312e-08
2.28523e-06
-7.06239e-08
2.30935e-06
-6.64151e-08
2.33209e-06
-6.23982e-08
2.35351e-06
-5.85671e-08
2.37367e-06
-5.49152e-08
2.39263e-06
-5.1436e-08
2.41043e-06
-4.81232e-08
2.42713e-06
-4.49702e-08
2.44278e-06
-4.19707e-08
2.45743e-06
-3.91184e-08
2.47112e-06
-3.64072e-08
2.48391e-06
-3.38312e-08
2.49582e-06
-3.13844e-08
2.50691e-06
-2.90612e-08
2.51721e-06
-2.68561e-08
2.52676e-06
-2.47638e-08
2.53561e-06
-2.27789e-08
2.54377e-06
-2.08967e-08
2.55129e-06
-1.91121e-08
2.5582e-06
-1.74207e-08
2.56453e-06
-1.5818e-08
2.5703e-06
-1.42995e-08
2.57556e-06
-1.28612e-08
2.58032e-06
-1.14995e-08
2.5846e-06
-1.02097e-08
2.58844e-06
-8.98844e-09
2.59186e-06
-7.83295e-09
2.59488e-06
-6.73859e-09
2.59751e-06
-5.70241e-09
2.59979e-06
-4.72126e-09
2.60172e-06
-3.79129e-09
2.60333e-06
-2.91038e-09
2.60464e-06
-2.07626e-09
2.60567e-06
-1.28978e-09
2.60644e-06
-5.50181e-10
2.60697e-06
1.47946e-10
2.60725e-06
8.09927e-10
2.60731e-06
1.42825e-09
2.60716e-06
2.00696e-09
2.6068e-06
2.55021e-09
2.60624e-06
3.06323e-09
2.60549e-06
3.55006e-09
2.60457e-06
4.0132e-09
2.60348e-06
4.45416e-09
2.60223e-06
4.87376e-09
2.60083e-06
5.27279e-09
2.5993e-06
5.65188e-09
2.59763e-06
6.01194e-09
2.59583e-06
6.35389e-09
2.59391e-06
6.67874e-09
2.59188e-06
6.98737e-09
2.58975e-06
7.28084e-09
2.58751e-06
7.55995e-09
2.58517e-06
7.82569e-09
2.58275e-06
8.07888e-09
2.58023e-06
8.3203e-09
2.57763e-06
8.5508e-09
2.57495e-06
8.77113e-09
2.5722e-06
8.98193e-09
2.56938e-06
9.18395e-09
2.56648e-06
9.37779e-09
2.56352e-06
9.56405e-09
2.5605e-06
9.74327e-09
2.55741e-06
9.91606e-09
2.55427e-06
1.00829e-08
2.55107e-06
1.02443e-08
2.54782e-06
1.04008e-08
2.54451e-06
1.05527e-08
2.54115e-06
1.07006e-08
2.53775e-06
1.08449e-08
2.53429e-06
1.0986e-08
2.53079e-06
1.11243e-08
2.52724e-06
1.12603e-08
2.52365e-06
1.13944e-08
2.52001e-06
1.15269e-08
2.51633e-06
1.16585e-08
2.51261e-06
1.17897e-08
2.50884e-06
1.1921e-08
2.50503e-06
1.20531e-08
2.50118e-06
1.21868e-08
2.49728e-06
1.2323e-08
2.49334e-06
1.24629e-08
2.48935e-06
1.26077e-08
2.48532e-06
1.27593e-08
2.48123e-06
1.29196e-08
2.47709e-06
1.30912e-08
2.47289e-06
1.32776e-08
2.46863e-06
1.34828e-08
2.46429e-06
1.37127e-08
2.45988e-06
1.39732e-08
2.45538e-06
1.4276e-08
2.45077e-06
1.46273e-08
2.44603e-06
1.50552e-08
2.44114e-06
1.55537e-08
2.43606e-06
1.62072e-08
2.43077e-06
1.69362e-08
2.42515e-06
1.80321e-08
2.41922e-06
1.909e-08
2.41274e-06
2.11368e-08
2.40572e-06
2.26065e-08
2.3978e-06
2.67946e-08
2.38873e-06
2.88434e-08
2.37833e-06
3.79943e-08
2.36487e-06
4.14545e-08
2.35032e-06
6.36135e-08
2.32752e-06
7.23578e-08
2.31076e-06
1.32407e-07
1.66187e-07
2.27351e-06
-6.51325e-08
2.48362e-07
-1.35964e-07
2.68227e-07
-2.06518e-07
2.66023e-07
-2.77179e-07
2.65925e-07
-3.47504e-07
2.64014e-07
-4.17239e-07
2.6087e-07
-4.86081e-07
2.56439e-07
-5.53672e-07
2.50567e-07
-6.19601e-07
2.43113e-07
-6.83406e-07
2.33928e-07
-7.44562e-07
2.22857e-07
-8.02487e-07
2.09747e-07
-8.56543e-07
1.94472e-07
-9.06044e-07
1.76915e-07
-9.50267e-07
1.57008e-07
-9.88481e-07
1.34741e-07
-1.01995e-06
1.10145e-07
-1.04398e-06
8.33462e-08
-1.05991e-06
5.45491e-08
-1.06722e-06
2.40609e-08
-1.0654e-06
-8.12781e-09
-1.05394e-06
-4.17909e-08
-1.03276e-06
-7.58454e-08
-1.00189e-06
-1.09881e-07
-9.61533e-07
-1.43407e-07
-9.12056e-07
-1.75918e-07
-8.53973e-07
-2.06944e-07
-7.87939e-07
-2.36059e-07
-7.14669e-07
-2.62941e-07
-6.34994e-07
-2.87282e-07
-5.49769e-07
-3.08905e-07
-4.5985e-07
-3.27676e-07
-3.66114e-07
-3.43535e-07
-2.69411e-07
-3.56514e-07
-1.70536e-07
-3.66671e-07
-7.02205e-08
-3.74135e-07
3.08337e-08
-3.79045e-07
1.32013e-07
-3.81596e-07
2.3277e-07
-3.81984e-07
3.32623e-07
-3.80417e-07
4.31155e-07
-3.77107e-07
5.28013e-07
-3.72264e-07
6.22898e-07
-3.66092e-07
7.15566e-07
-3.58787e-07
8.05821e-07
-3.5053e-07
8.9351e-07
-3.41491e-07
9.78516e-07
-3.31824e-07
1.06076e-06
-3.21669e-07
1.14018e-06
-3.11151e-07
1.21675e-06
-3.00381e-07
1.29046e-06
-2.89456e-07
1.36133e-06
-2.78461e-07
1.42937e-06
-2.67469e-07
1.49462e-06
-2.56542e-07
1.55713e-06
-2.45732e-07
1.61695e-06
-2.35085e-07
1.67415e-06
-2.24636e-07
1.7288e-06
-2.14416e-07
1.78095e-06
-2.04447e-07
1.83069e-06
-1.94749e-07
1.87808e-06
-1.85336e-07
1.92321e-06
-1.76217e-07
1.96616e-06
-1.67399e-07
2.00699e-06
-1.58887e-07
2.04578e-06
-1.50682e-07
2.08262e-06
-1.42783e-07
2.11757e-06
-1.35188e-07
2.1507e-06
-1.27893e-07
2.1821e-06
-1.20894e-07
2.21182e-06
-1.14185e-07
2.23993e-06
-1.07758e-07
2.26651e-06
-1.01608e-07
2.29161e-06
-9.57268e-08
2.3153e-06
-9.01059e-08
2.33764e-06
-8.47374e-08
2.35869e-06
-7.9613e-08
2.3785e-06
-7.47243e-08
2.39712e-06
-7.0063e-08
2.41462e-06
-6.56206e-08
2.43104e-06
-6.13888e-08
2.44643e-06
-5.73596e-08
2.46084e-06
-5.35246e-08
2.4743e-06
-4.98762e-08
2.48688e-06
-4.64065e-08
2.4986e-06
-4.31081e-08
2.50952e-06
-3.99736e-08
2.51966e-06
-3.69958e-08
2.52906e-06
-3.4168e-08
2.53776e-06
-3.14833e-08
2.5458e-06
-2.89353e-08
2.55321e-06
-2.65177e-08
2.56001e-06
-2.42247e-08
2.56624e-06
-2.20504e-08
2.57193e-06
-1.9989e-08
2.57711e-06
-1.80353e-08
2.58179e-06
-1.61841e-08
2.58601e-06
-1.44303e-08
2.58979e-06
-1.27688e-08
2.59316e-06
-1.11956e-08
2.59612e-06
-9.70583e-09
2.59872e-06
-8.29485e-09
2.60095e-06
-6.95834e-09
2.60286e-06
-5.69379e-09
2.60444e-06
-4.49888e-09
2.60574e-06
-3.36829e-09
2.60674e-06
-2.29691e-09
2.60748e-06
-1.28287e-09
2.60795e-06
-3.24999e-10
2.60819e-06
5.73555e-10
2.60819e-06
1.42097e-09
2.60798e-06
2.21768e-09
2.60756e-06
2.96901e-09
2.60695e-06
3.67862e-09
2.60615e-06
4.35018e-09
2.60517e-06
4.98688e-09
2.60404e-06
5.59111e-09
2.60275e-06
6.16462e-09
2.60131e-06
6.70903e-09
2.59974e-06
7.22577e-09
2.59803e-06
7.71619e-09
2.5962e-06
8.18165e-09
2.59426e-06
8.62363e-09
2.5922e-06
9.04332e-09
2.59004e-06
9.44211e-09
2.58778e-06
9.82124e-09
2.58542e-06
1.01819e-08
2.58298e-06
1.05253e-08
2.58045e-06
1.08526e-08
2.57783e-06
1.11648e-08
2.57514e-06
1.14629e-08
2.57237e-06
1.1748e-08
2.56954e-06