/*--------------------------------*- C++ -*----------------------------------*\
  =========                 |
  \\      /  F ield         | OpenFOAM: The Open Source CFD Toolbox
   \\    /   O peration     | Website:  https://openfoam.org
    \\  /    A nd           | Version:  7
     \\/     M anipulation  |
\*---------------------------------------------------------------------------*/
FoamFile
{
    version     2.0;
    format      ascii;
    class       volScalarField;
    location    "0.01";
    object      pMean;
}
// * * * * * * * * * * * * * * * * * * * * * * * * * * * * * * * * * * * * * //

dimensions      [0 2 -2 0 0 0 0];

internalField   nonuniform List<scalar> 
12225
(
5.89179
6.66376
6.99271
7.05018
7.02206
6.95136
6.85343
6.73435
6.59756
6.44163
6.26343
6.04934
5.79446
5.46126
5.04909
4.40903
3.55829
1.54519
6.23399
6.67804
6.99308
7.05912
7.02758
6.95532
6.85808
6.74027
6.60398
6.44893
6.27005
6.05957
5.80086
5.48457
5.05348
4.51653
3.64215
2.7306
6.40851
6.66426
6.97794
7.06628
7.03691
6.96484
6.87066
6.75635
6.62355
6.46991
6.29332
6.0824
5.83168
5.51476
5.12369
4.60125
3.94963
3.14441
6.593
6.70484
6.98723
7.08709
7.05798
6.98324
6.88906
6.77756
6.64676
6.49587
6.31983
6.11484
5.86646
5.57088
5.19628
4.74951
4.18978
3.58193
6.76142
6.74875
6.99207
7.1012
7.07736
7.00155
6.90796
6.79905
6.67208
6.52431
6.35319
6.15325
5.9175
5.63628
5.29965
4.9043
4.45125
3.9881
6.93601
6.81297
7.01163
7.12432
7.10686
7.03048
6.936
6.82932
6.70574
6.56221
6.39561
6.20317
5.97912
5.71916
5.41817
5.07818
4.71213
4.34751
7.09975
6.88656
7.03961
7.14953
7.13836
7.06247
6.96705
6.86158
6.74193
6.60375
6.44465
6.26227
6.05373
5.81701
5.55199
5.26405
4.96681
4.68275
7.2427
6.97301
7.08293
7.18407
7.1773
7.103
7.00735
6.90368
6.78834
6.65602
6.50434
6.33289
6.14126
5.92918
5.69927
5.45777
5.21778
4.99637
7.37509
7.06531
7.13689
7.22534
7.22081
7.14944
7.0545
6.95204
6.84052
6.71526
6.57368
6.41536
6.24149
6.05408
5.85705
5.65678
5.46432
5.29234
7.49949
7.16527
7.20539
7.27792
7.27225
7.20365
7.11045
7.01035
6.90357
6.78529
6.65356
6.50917
6.35397
6.1908
6.02412
5.85999
5.70712
5.57484
7.61902
7.26891
7.2831
7.3401
7.3315
7.26532
7.17464
7.07707
6.97487
6.86461
6.74415
6.61405
6.47719
6.337
6.19793
6.06518
5.94546
5.84536
7.75138
7.37199
7.36359
7.40737
7.39449
7.32918
7.24094
7.14661
7.04904
6.94603
6.83573
6.71919
6.59896
6.47853
6.36213
6.25416
6.15988
6.08405
7.87634
7.47808
7.4515
7.48289
7.46506
7.40014
7.3144
7.22353
7.13147
7.03601
6.9359
6.83198
6.72721
6.62492
6.52881
6.44244
6.36983
6.31437
7.99213
7.59934
7.56071
7.57981
7.55619
7.49104
7.40804
7.32127
7.23444
7.14695
7.05811
6.96871
6.88091
6.79756
6.72191
6.65672
6.60491
6.56857
8.15123
7.74807
7.69747
7.70302
7.67198
7.60583
7.52569
7.44434
7.36547
7.28803
7.21131
7.13633
7.06533
7.00073
6.94492
6.8997
6.86701
6.84798
8.35633
7.93591
7.86864
7.86318
7.82501
7.75618
7.6774
7.60032
7.52798
7.45994
7.39572
7.33585
7.28175
7.23508
7.19756
7.17031
7.15444
7.15042
8.57354
8.14515
8.07224
8.05977
8.01561
7.94419
7.8668
7.7944
7.7292
7.67018
7.61693
7.57
7.53045
7.49922
7.47722
7.46489
7.46272
7.47056
8.81477
8.39961
8.32276
8.30232
8.25051
8.17455
8.09666
8.02766
7.96915
7.91921
7.87644
7.84085
7.8133
7.79439
7.78451
7.78359
7.79169
7.80838
9.16845
8.73476
8.64573
8.6133
8.55072
8.46532
8.38033
8.3074
8.24853
8.20149
8.16407
8.13545
8.11557
8.10451
8.10219
8.10818
8.12207
8.14314
9.48585
9.05055
8.94889
8.89608
8.81469
8.71713
8.62667
8.55206
8.49196
8.44329
8.40493
8.37678
8.35874
8.35019
8.35041
8.3586
8.37416
8.39627
9.7398
9.31708
9.20284
9.12569
9.02006
8.90199
8.79665
8.71318
8.6499
8.6014
8.56398
8.53649
8.51897
8.51112
8.51215
8.52102
8.53697
8.55905
10.0535
9.5855
9.43116
9.32186
9.19735
9.07148
8.96093
8.86921
8.79469
8.73599
8.69225
8.66196
8.64328
8.63465
8.6349
8.64294
8.65796
8.67896
10.3828
9.85806
9.6334
9.46995
9.31067
9.16542
9.04669
8.95417
8.88176
8.82453
8.78055
8.74945
8.73017
8.72112
8.72093
8.72847
8.74286
8.76307
10.6868
10.11
9.8266
9.62681
9.454
9.30109
9.16863
9.05666
8.9676
8.90103
8.85335
8.82049
8.79971
8.78921
8.78771
8.79403
8.80718
8.82606
10.9876
10.3175
9.92931
9.67353
9.48703
9.33763
9.2099
9.10124
9.01309
8.94618
8.89821
8.8653
8.84439
8.83362
8.8318
8.83774
8.85041
8.86865
11.3684
10.5764
10.0891
9.79484
9.59732
9.43091
9.28106
9.15537
9.05911
8.98925
8.9396
8.9051
8.88277
8.87091
8.86823
8.87338
8.88513
8.90231
11.6763
10.6716
10.0833
9.79219
9.61698
9.4574
9.30467
9.17614
9.07974
9.01075
8.96155
8.92699
8.90449
8.89253
8.88976
8.89473
8.90613
8.92274
12.1975
10.8963
10.1665
9.85973
9.67745
9.49961
9.33411
9.20047
9.10219
9.03196
8.98166
8.94626
8.92319
8.91087
8.9078
8.91245
8.92338
8.93933
12.442
10.8671
10.1358
9.87523
9.69509
9.50992
9.34171
9.2089
9.11149
9.04137
8.99092
8.95547
8.93247
8.92023
8.91716
8.92171
8.93235
8.948
13.217
10.9138
10.1402
9.90865
9.71688
9.5216
9.35067
9.21761
9.11978
9.04896
8.99793
8.96214
8.939
8.92672
8.92358
8.92805
8.93852
8.95408
8.88123
8.8859
8.89443
8.90763
8.92539
8.94787
8.97516
9.00737
9.04457
9.08685
9.13424
9.1868
9.2445
9.30732
9.37516
9.44788
9.52528
9.60712
9.69304
9.78268
9.87556
9.97117
10.0689
10.1682
10.2682
10.3684
10.4681
10.5665
10.663
10.7569
10.8478
10.935
11.0182
11.097
11.171
11.24
11.304
11.3627
11.4162
11.4644
11.5076
11.5457
11.579
11.6075
11.6316
11.6515
11.6673
11.6794
11.6879
11.6931
11.6952
11.6945
11.6912
11.6854
11.6775
11.6675
11.6556
11.6421
11.627
11.6105
11.5928
11.5739
11.554
11.5331
11.5115
11.489
11.4659
11.4422
11.4179
11.3931
11.3679
11.3422
11.3162
11.2899
11.2633
11.2364
11.2092
11.1818
11.1543
11.1265
11.0985
11.0704
11.0421
11.0137
10.9851
10.9564
10.9275
10.8985
10.8694
10.8401
10.8107
10.7812
10.7515
10.7217
10.6917
10.6616
10.6314
10.601
10.5705
10.5398
10.5089
10.4779
10.4467
10.4154
10.3838
10.3521
10.3202
10.2881
10.2558
10.2233
10.1907
10.1578
10.1247
10.0914
10.0579
10.0242
9.99022
9.95604
9.92162
9.88697
9.85207
9.81694
9.78155
9.74592
9.71003
9.67388
9.63748
9.60081
9.56387
9.52666
9.48918
9.45142
9.41338
9.37505
9.33644
9.29753
9.25833
9.21884
9.17904
9.13894
9.09853
9.0578
9.01677
8.97542
8.93375
8.89177
8.84946
8.80682
8.76386
8.72058
8.67697
8.63303
8.58876
8.54416
8.49924
8.45399
8.40843
8.36255
8.31637
8.26989
8.22314
8.17614
8.12891
8.0815
8.03394
7.98631
7.9387
7.89121
7.84401
7.79732
7.75139
7.70671
7.66367
7.62352
7.58678
7.55698
7.53494
7.53274
7.55234
7.6395
8.85052
8.85516
8.86378
8.87709
8.89503
8.91775
8.94535
8.97793
9.01559
9.0584
9.10643
9.15971
9.21823
9.28198
9.35082
9.42467
9.50327
9.58638
9.67365
9.76469
9.85899
9.95599
10.0551
10.1557
10.2571
10.3585
10.4593
10.5588
10.6563
10.7512
10.8429
10.9309
11.0147
11.094
11.1684
11.2378
11.3021
11.361
11.4147
11.463
11.5063
11.5444
11.5777
11.6063
11.6304
11.6503
11.6661
11.6781
11.6866
11.6918
11.6939
11.6932
11.6898
11.6841
11.6761
11.6661
11.6543
11.6407
11.6257
11.6092
11.5915
11.5727
11.5528
11.532
11.5103
11.4879
11.4648
11.4411
11.4168
11.3921
11.3669
11.3413
11.3153
11.289
11.2624
11.2356
11.2085
11.1811
11.1536
11.1258
11.0979
11.0698
11.0415
11.0131
10.9846
10.9559
10.927
10.898
10.8689
10.8397
10.8103
10.7808
10.7511
10.7213
10.6914
10.6613
10.6311
10.6007
10.5701
10.5395
10.5086
10.4776
10.4464
10.4151
10.3835
10.3518
10.3199
10.2879
10.2556
10.2231
10.1905
10.1576
10.1245
10.0912
10.0577
10.024
9.99005
9.95588
9.92147
9.88682
9.85193
9.8168
9.78141
9.74578
9.7099
9.67376
9.63735
9.60069
9.56375
9.52655
9.48907
9.45131
9.41327
9.37494
9.33633
9.29743
9.25823
9.21873
9.17894
9.13883
9.09842
9.0577
9.01667
8.97532
8.93365
8.89166
8.84936
8.80672
8.76376
8.72048
8.67686
8.63292
8.58865
8.54405
8.49913
8.45388
8.40831
8.36243
8.31624
8.26977
8.22301
8.17599
8.12875
8.08132
8.03374
7.98609
7.93844
7.89091
7.84364
7.79686
7.75083
7.70595
7.66276
7.62208
7.58506
7.55357
7.5305
7.51942
7.52508
7.53872
8.78664
8.79145
8.80032
8.81405
8.83254
8.85596
8.88441
8.918
8.95681
9.00093
9.05041
9.10529
9.16556
9.23119
9.30208
9.37809
9.459
9.54451
9.63431
9.72793
9.82489
9.92461
10.0265
10.1298
10.2338
10.3378
10.441
10.5427
10.6423
10.7391
10.8325
10.9219
11.0071
11.0875
11.1629
11.233
11.2979
11.3573
11.4114
11.4601
11.5035
11.5418
11.5752
11.6038
11.628
11.6478
11.6636
11.6756
11.6841
11.6893
11.6914
11.6907
11.6873
11.6816
11.6736
11.6637
11.6518
11.6384
11.6233
11.6069
11.5893
11.5705
11.5507
11.5299
11.5083
11.486
11.463
11.4393
11.4151
11.3905
11.3653
11.3398
11.3139
11.2877
11.2611
11.2343
11.2073
11.18
11.1525
11.1248
11.0969
11.0689
11.0407
11.0123
10.9838
10.9551
10.9263
10.8974
10.8683
10.8391
10.8097
10.7803
10.7506
10.7209
10.691
10.6609
10.6307
10.6004
10.5698
10.5392
10.5084
10.4774
10.4462
10.4149
10.3834
10.3517
10.3198
10.2877
10.2555
10.223
10.1903
10.1575
10.1244
10.0911
10.0576
10.0239
9.98997
9.9558
9.92139
9.88675
9.85186
9.81673
9.78136
9.74573
9.70985
9.67371
9.63731
9.60064
9.56371
9.52651
9.48903
9.45127
9.41323
9.37491
9.3363
9.2974
9.2582
9.2187
9.17891
9.1388
9.09839
9.05767
9.01664
8.97529
8.93362
8.89164
8.84933
8.80669
8.76373
8.72045
8.67683
8.63289
8.58861
8.54401
8.49909
8.45383
8.40826
8.36237
8.31618
8.26969
8.22292
8.17589
8.12862
8.08116
8.03355
7.98585
7.93814
7.89053
7.84317
7.79625
7.75003
7.70488
7.66133
7.62003
7.58217
7.54888
7.52283
7.5043
7.49823
7.49179
8.68918
8.69423
8.70349
8.7178
8.73708
8.76151
8.79116
8.82617
8.8666
8.91257
8.96413
9.02132
9.08414
9.15255
9.22647
9.30573
9.39014
9.47936
9.57303
9.67071
9.77184
9.8758
9.98191
10.0894
10.1975
10.3055
10.4125
10.5178
10.6206
10.7203
10.8163
10.9082
10.9953
11.0774
11.1543
11.2257
11.2916
11.3518
11.4064
11.4556
11.4994
11.538
11.5715
11.6003
11.6245
11.6444
11.6602
11.6722
11.6807
11.6859
11.688
11.6873
11.684
11.6782
11.6703
11.6604
11.6486
11.6352
11.6203
11.6039
11.5864
11.5676
11.5479
11.5272
11.5057
11.4835
11.4606
11.437
11.4129
11.3884
11.3633
11.3379
11.3121
11.2859
11.2595
11.2327
11.2058
11.1786
11.1511
11.1235
11.0957
11.0677
11.0396
11.0113
10.9828
10.9542
10.9255
10.8966
10.8675
10.8384
10.8091
10.7796
10.75
10.7203
10.6904
10.6604
10.6302
10.5999
10.5694
10.5388
10.508
10.477
10.4458
10.4145
10.383
10.3514
10.3195
10.2874
10.2552
10.2228
10.1901
10.1573
10.1242
10.091
10.0575
10.0238
9.98982
9.95566
9.92126
9.88663
9.85175
9.81662
9.78125
9.74563
9.70975
9.67362
9.63722
9.60056
9.56363
9.52643
9.48896
9.4512
9.41317
9.37485
9.33624
9.29734
9.25814
9.21865
9.17885
9.13875
9.09834
9.05762
9.01659
8.97524
8.93357
8.89158
8.84927
8.80664
8.76368
8.72039
8.67677
8.63283
8.58855
8.54395
8.49901
8.45376
8.40818
8.36228
8.31607
8.26957
8.22278
8.17572
8.12843
8.08093
8.03326
7.9855
7.9377
7.88998
7.84248
7.79536
7.74888
7.70334
7.65926
7.61713
7.57803
7.54251
7.51267
7.48742
7.46897
7.44075
8.55597
8.56132
8.57104
8.58609
8.60634
8.63199
8.66313
8.69988
8.74235
8.79064
8.84483
8.90496
8.97108
9.04312
9.12102
9.20463
9.29371
9.38795
9.48693
9.59017
9.69706
9.80692
9.91898
10.0324
10.1463
10.2599
10.3722
10.4825
10.5899
10.6938
10.7936
10.8887
10.9787
11.0633
11.1422
11.2153
11.2826
11.3439
11.3995
11.4493
11.4936
11.5326
11.5664
11.5954
11.6197
11.6397
11.6556
11.6676
11.6761
11.6813
11.6835
11.6828
11.6795
11.6739
11.666
11.6562
11.6445
11.6311
11.6163
11.6001
11.5826
11.564
11.5444
11.5239
11.5025
11.4804
11.4576
11.4341
11.4102
11.3857
11.3608
11.3354
11.3098
11.2837
11.2574
11.2308
11.2039
11.1768
11.1494
11.1219
11.0942
11.0663
11.0382
11.01
10.9816
10.9531
10.9244
10.8955
10.8666
10.8375
10.8082
10.7788
10.7493
10.7196
10.6897
10.6598
10.6296
10.5993
10.5689
10.5383
10.5075
10.4766
10.4454
10.4142
10.3827
10.351
10.3192
10.2872
10.2549
10.2225
10.1899
10.1571
10.124
10.0908
10.0573
10.0236
9.98967
9.95552
9.92113
9.8865
9.85163
9.81651
9.78115
9.74553
9.70966
9.67353
9.63714
9.60048
9.56356
9.52636
9.48889
9.45114
9.41311
9.37479
9.33618
9.29728
9.25809
9.21859
9.1788
9.1387
9.09829
9.05757
9.01654
8.97519
8.93352
8.89153
8.84922
8.80659
8.76363
8.72034
8.67672
8.63277
8.58849
8.54388
8.49894
8.45367
8.40808
8.36217
8.31595
8.26943
8.22261
8.17552
8.12819
8.08064
8.03291
7.98506
7.93716
7.88929
7.8416
7.79423
7.74741
7.7014
7.65665
7.61351
7.57289
7.5349
7.50104
7.46912
7.4399
7.39884
8.38403
8.38972
8.39997
8.41581
8.43712
8.4641
8.49684
8.53552
8.58022
8.63112
8.68828
8.75181
8.82176
8.89812
8.98084
9.06979
9.16473
9.26533
9.37117
9.48168
9.59618
9.7139
9.83396
9.95536
10.0771
10.1983
10.3178
10.4348
10.5485
10.6581
10.7629
10.8625
10.9563
11.0442
11.1259
11.2013
11.2705
11.3333
11.3901
11.4409
11.4859
11.5254
11.5596
11.5889
11.6134
11.6336
11.6496
11.6617
11.6703
11.6756
11.6778
11.6772
11.674
11.6684
11.6607
11.6509
11.6394
11.6262
11.6114
11.5954
11.578
11.5596
11.5401
11.5198
11.4985
11.4766
11.4539
11.4307
11.4068
11.3825
11.3578
11.3326
11.307
11.2811
11.2549
11.2284
11.2016
11.1746
11.1474
11.12
11.0924
11.0646
11.0366
11.0085
10.9802
10.9517
10.9231
10.8943
10.8654
10.8364
10.8072
10.7779
10.7484
10.7187
10.689
10.659
10.6289
10.5987
10.5683
10.5377
10.507
10.4761
10.445
10.4137
10.3823
10.3506
10.3188
10.2868
10.2546
10.2222
10.1896
10.1568
10.1238
10.0905
10.0571
10.0234
9.98949
9.95535
9.92097
9.88635
9.85149
9.81638
9.78102
9.74541
9.70955
9.67343
9.63704
9.60039
9.56347
9.52628
9.48881
9.45107
9.41304
9.37472
9.33612
9.29722
9.25803
9.21854
9.17874
9.13865
9.09824
9.05752
9.01649
8.97514
8.93347
8.89148
8.84917
8.80653
8.76357
8.72028
8.67666
8.6327
8.58842
8.5438
8.49886
8.45358
8.40798
8.36205
8.31581
8.26926
8.22242
8.17529
8.12791
8.0803
8.03249
7.98454
7.9365
7.88847
7.84055
7.79288
7.74565
7.69909
7.65355
7.60929
7.56693
7.52641
7.4884
7.45076
7.4126
7.36331
8.16929
8.17534
8.1861
8.20268
8.22494
8.25313
8.28735
8.3278
8.37463
8.42804
8.48818
8.5552
8.6292
8.71028
8.79844
8.89359
8.99552
9.10391
9.21832
9.33807
9.46241
9.59043
9.72104
9.85306
9.98532
10.1166
10.2458
10.3719
10.4939
10.611
10.7225
10.8279
10.9269
11.0191
11.1044
11.1829
11.2545
11.3194
11.3777
11.4297
11.4757
11.516
11.5508
11.5805
11.6054
11.6258
11.642
11.6543
11.6631
11.6685
11.6708
11.6704
11.6673
11.6619
11.6543
11.6447
11.6333
11.6202
11.6057
11.5898
11.5727
11.5544
11.5351
11.515
11.4939
11.4721
11.4497
11.4266
11.403
11.3788
11.3542
11.3292
11.3038
11.2781
11.252
11.2257
11.1991
11.1722
11.1451
11.1178
11.0903
11.0626
11.0348
11.0067
10.9785
10.9501
10.9216
10.893
10.8641
10.8352
10.806
10.7768
10.7474
10.7178
10.6881
10.6582
10.6281
10.5979
10.5676
10.5371
10.5064
10.4755
10.4444
10.4132
10.3818
10.3502
10.3184
10.2865
10.2543
10.2219
10.1893
10.1565
10.1235
10.0903
10.0569
10.0232
9.98929
9.95516
9.92079
9.88618
9.85133
9.81623
9.78089
9.74528
9.70943
9.67331
9.63694
9.60029
9.56338
9.52619
9.48873
9.45099
9.41296
9.37465
9.33605
9.29716
9.25797
9.21848
9.17869
9.13859
9.09818
9.05746
9.01643
8.97508
8.93341
8.89142
8.84911
8.80647
8.76351
8.72021
8.67659
8.63263
8.58834
8.54372
8.49876
8.45348
8.40786
8.36192
8.31565
8.26908
8.2222
8.17503
8.12759
8.07991
8.03201
7.98394
7.93575
7.88752
7.83935
7.79133
7.74365
7.69646
7.65005
7.60456
7.56038
7.5173
7.47542
7.43266
7.38734
7.33145
7.90676
7.91313
7.92423
7.94127
7.96409
7.99297
8.02807
8.06963
8.11787
8.17309
8.23551
8.30543
8.38309
8.4687
8.56241
8.66425
8.77413
8.89174
9.01664
9.14804
9.28505
9.42658
9.57122
9.71747
9.86385
10.0089
10.1511
10.2893
10.4224
10.5495
10.6699
10.783
10.8887
10.9865
11.0766
11.159
11.2338
11.3013
11.3617
11.4154
11.4627
11.504
11.5396
11.5699
11.5953
11.6161
11.6327
11.6453
11.6542
11.6599
11.6624
11.6622
11.6593
11.6541
11.6467
11.6373
11.6261
11.6133
11.599
11.5834
11.5665
11.5484
11.5294
11.5094
11.4886
11.4671
11.4448
11.422
11.3986
11.3746
11.3502
11.3254
11.3002
11.2746
11.2488
11.2226
11.1961
11.1694
11.1425
11.1153
11.088
11.0604
11.0327
11.0047
10.9767
10.9484
10.92
10.8914
10.8627
10.8338
10.8048
10.7756
10.7462
10.7167
10.6871
10.6572
10.6273
10.5971
10.5668
10.5363
10.5057
10.4748
10.4438
10.4127
10.3813
10.3497
10.318
10.286
10.2539
10.2215
10.189
10.1562
10.1232
10.09
10.0566
10.0229
9.98906
9.95495
9.92059
9.886
9.85116
9.81607
9.78074
9.74515
9.7093
9.67319
9.63682
9.60019
9.56328
9.5261
9.48864
9.4509
9.41288
9.37457
9.33598
9.29709
9.2579
9.21841
9.17862
9.13853
9.09812
9.0574
9.01637
8.97502
8.93335
8.89136
8.84905
8.80641
8.76344
8.72015
8.67652
8.63256
8.58826
8.54363
8.49867
8.45337
8.40773
8.36177
8.31548
8.26888
8.22196
8.17474
8.12724
8.07947
8.03147
7.98327
7.93492
7.88647
7.83801
7.78962
7.74143
7.69357
7.64622
7.59945
7.55345
7.50787
7.46241
7.41517
7.36406
7.30311
7.5899
7.59649
7.60754
7.62438
7.64682
7.67524
7.70981
7.75091
7.79884
7.85403
7.91688
7.98791
8.0676
8.15645
8.25488
8.3632
8.48151
8.60971
8.74731
8.89351
9.04716
9.20678
9.37048
9.53626
9.70203
9.86584
10.0259
10.1807
10.3289
10.4695
10.6017
10.7251
10.8395
10.9448
11.041
11.1284
11.2074
11.2782
11.3413
11.3971
11.4462
11.4888
11.5255
11.5567
11.5828
11.6042
11.6213
11.6343
11.6437
11.6496
11.6525
11.6525
11.65
11.645
11.6379
11.6288
11.618
11.6054
11.5914
11.576
11.5594
11.5417
11.5229
11.5032
11.4827
11.4614
11.4394
11.4168
11.3936
11.3699
11.3458
11.3212
11.2962
11.2708
11.2451
11.2191
11.1929
11.1663
11.1396
11.1126
11.0854
11.0579
11.0303
11.0026
10.9746
10.9465
10.9181
10.8897
10.8611
10.8323
10.8033
10.7742
10.745
10.7155
10.6859
10.6562
10.6263
10.5962
10.5659
10.5355
10.5049
10.4741
10.4432
10.412
10.3807
10.3492
10.3175
10.2856
10.2535
10.2211
10.1886
10.1559
10.1229
10.0897
10.0563
10.0227
9.98882
9.95472
9.92038
9.8858
9.85097
9.8159
9.78057
9.74499
9.70916
9.67306
9.6367
9.60007
9.56317
9.526
9.48855
9.45081
9.4128
9.37449
9.3359
9.29701
9.25783
9.21835
9.17856
9.13847
9.09806
9.05734
9.01631
8.97496
8.93329
8.8913
8.84899
8.80635
8.76338
8.72008
8.67645
8.63248
8.58818
8.54354
8.49856
8.45325
8.4076
8.36161
8.3153
8.26866
8.22169
8.17442
8.12685
8.079
8.03089
7.98254
7.93401
7.88533
7.83655
7.78776
7.73904
7.69047
7.64215
7.59409
7.54628
7.49833
7.44964
7.39851
7.34272
7.27788
7.21168
7.21817
7.22832
7.24364
7.26394
7.28963
7.32095
7.35838
7.4024
7.45365
7.51287
7.58089
7.65864
7.74713
7.84735
7.9602
8.08639
8.22615
8.37923
8.54463
8.72077
8.90547
9.09604
9.28954
9.483
9.67365
9.85902
10.0371
10.2063
10.3654
10.5137
10.6509
10.7768
10.8918
10.996
11.0899
11.1741
11.2492
11.3158
11.3744
11.4257
11.4701
11.5082
11.5406
11.5677
11.5899
11.6076
11.6213
11.6311
11.6376
11.6409
11.6414
11.6392
11.6346
11.6279
11.6192
11.6087
11.5965
11.5828
11.5678
11.5515
11.5341
11.5156
11.4963
11.4761
11.4551
11.4334
11.4111
11.3882
11.3647
11.3408
11.3165
11.2917
11.2666
11.2411
11.2154
11.1893
11.163
11.1364
11.1095
11.0825
11.0553
11.0278
11.0002
10.9723
10.9443
10.9161
10.8878
10.8593
10.8306
10.8018
10.7727
10.7436
10.7142
10.6847
10.6551
10.6252
10.5952
10.565
10.5346
10.5041
10.4734
10.4425
10.4114
10.3801
10.3486
10.3169
10.2851
10.253
10.2207
10.1882
10.1555
10.1225
10.0894
10.056
10.0224
9.98855
9.95447
9.92015
9.88559
9.85077
9.81571
9.7804
9.74483
9.70901
9.67292
9.63657
9.59995
9.56306
9.52589
9.48845
9.45072
9.41271
9.37441
9.33582
9.29694
9.25776
9.21828
9.17849
9.1384
9.09799
9.05728
9.01625
8.9749
8.93323
8.89124
8.84892
8.80628
8.76331
8.72001
8.67637
8.6324
8.58809
8.54344
8.49845
8.45312
8.40745
8.36145
8.3151
8.26842
8.22142
8.17409
8.12644
8.0785
8.03027
7.98177
7.93304
7.88411
7.83501
7.7858
7.73653
7.68723
7.63793
7.58858
7.53904
7.48885
7.43728
7.38278
7.32321
7.25525
6.76285
6.76867
6.77652
6.78807
6.803
6.82184
6.84496
6.87296
6.90647
6.94641
6.99395
7.05048
7.11776
7.19776
7.29275
7.4049
7.53602
7.68726
7.85877
8.04958
8.2575
8.47915
8.71017
8.9457
9.18095
9.41167
9.63432
9.84614
10.0452
10.2302
10.4006
10.5563
10.6977
10.8252
10.9397
11.042
11.1329
11.2135
11.2844
11.3465
11.4006
11.4473
11.4873
11.5212
11.5496
11.5729
11.5915
11.606
11.6166
11.6237
11.6276
11.6286
11.6269
11.6229
11.6166
11.6084
11.5983
11.5865
11.5733
11.5586
11.5428
11.5257
11.5077
11.4887
11.4688
11.4482
11.4268
11.4048
11.3822
11.3591
11.3354
11.3114
11.2869
11.262
11.2368
11.2112
11.1854
11.1593
11.1329
11.1063
11.0794
11.0523
11.025
10.9976
10.9699
10.942
10.914
10.8858
10.8574
10.8288
10.8001
10.7712
10.7421
10.7128
10.6834
10.6538
10.6241
10.5941
10.564
10.5337
10.5032
10.4726
10.4417
10.4107
10.3794
10.348
10.3164
10.2845
10.2525
10.2202
10.1878
10.1551
10.1222
10.089
10.0557
10.0221
9.98827
9.95421
9.9199
9.88535
9.85056
9.81551
9.78021
9.74466
9.70885
9.67277
9.63643
9.59982
9.56294
9.52578
9.48834
9.45062
9.41262
9.37432
9.33574
9.29686
9.25768
9.2182
9.17842
9.13833
9.09793
9.05721
9.01618
8.97483
8.93316
8.89117
8.84886
8.80621
8.76324
8.71993
8.67629
8.63231
8.58799
8.54334
8.49834
8.45299
8.4073
8.36127
8.3149
8.26818
8.22112
8.17373
8.12601
8.07797
8.02961
7.98096
7.93203
7.88284
7.83341
7.78376
7.73393
7.68389
7.63363
7.58302
7.53184
7.47959
7.42545
7.36804
7.30539
7.23488
6.2359
6.23996
6.24284
6.2465
6.2506
6.25573
6.262
6.27004
6.28058
6.29502
6.31514
6.34325
6.3824
6.43636
6.50959
6.60703
6.73363
6.89332
7.08796
7.31647
7.57469
7.85594
8.1521
8.45463
8.75557
9.04827
9.32756
9.58972
9.83242
10.0545
10.2557
10.4368
10.5987
10.7429
10.8706
10.9835
11.0829
11.1702
11.2465
11.313
11.3706
11.4201
11.4625
11.4983
11.5283
11.553
11.5728
11.5883
11.5998
11.6077
11.6124
11.6141
11.6131
11.6097
11.604
11.5963
11.5868
11.5755
11.5628
11.5486
11.5332
11.5166
11.499
11.4804
11.4609
11.4406
11.4197
11.398
11.3758
11.353
11.3296
11.3059
11.2817
11.2571
11.2321
11.2068
11.1812
11.1553
11.1292
11.1027
11.0761
11.0492
11.0221
10.9948
10.9673
10.9396
10.9117
10.8836
10.8553
10.8269
10.7983
10.7695
10.7405
10.7113
10.682
10.6525
10.6228
10.593
10.5629
10.5327
10.5023
10.4717
10.4409
10.4099
10.3787
10.3473
10.3157
10.2839
10.2519
10.2197
10.1873
10.1546
10.1218
10.0887
10.0553
10.0218
9.98797
9.95393
9.91964
9.88511
9.85033
9.8153
9.78002
9.74448
9.70868
9.67261
9.63628
9.59968
9.56281
9.52566
9.48823
9.45052
9.41252
9.37423
9.33565
9.29678
9.2576
9.21813
9.17835
9.13826
9.09786
9.05714
9.01611
8.97476
8.9331
8.8911
8.84879
8.80614
8.76316
8.71985
8.67621
8.63222
8.5879
8.54323
8.49822
8.45286
8.40715
8.36109
8.31469
8.26793
8.22082
8.17337
8.12557
8.07742
8.02894
7.98013
7.93099
7.88153
7.83176
7.78168
7.73128
7.68051
7.62931
7.5775
7.52478
7.47064
7.41424
7.35432
7.28912
7.21652
5.62028
5.62054
5.6142
5.60369
5.58805
5.56749
5.54173
5.51156
5.47769
5.44164
5.40511
5.37128
5.34516
5.33483
5.35123
5.40706
5.51422
5.68127
5.91142
6.20189
6.54437
6.92608
7.3319
7.74573
8.15316
8.54318
8.90876
9.2459
9.55256
9.8279
10.0725
10.2882
10.4775
10.643
10.7875
10.9136
11.0235
11.119
11.2019
11.2736
11.3354
11.3884
11.4336
11.4718
11.5037
11.5301
11.5514
11.5682
11.5809
11.5898
11.5954
11.598
11.5978
11.5951
11.5901
11.5831
11.5742
11.5635
11.5513
11.5377
11.5228
11.5067
11.4896
11.4714
11.4524
11.4326
11.412
11.3907
11.3689
11.3464
11.3234
11.3
11.2761
11.2518
11.2271
11.2021
11.1768
11.1511
11.1252
11.099
11.0726
11.0459
11.0189
10.9918
10.9645
10.9369
10.9092
10.8813
10.8531
10.8248
10.7963
10.7677
10.7388
10.7097
10.6805
10.6511
10.6215
10.5917
10.5618
10.5316
10.5013
10.4707
10.44
10.4091
10.3779
10.3466
10.3151
10.2833
10.2514
10.2192
10.1868
10.1542
10.1213
10.0883
10.055
10.0214
9.98765
9.95363
9.91936
9.88485
9.85009
9.81508
9.77981
9.74429
9.7085
9.67245
9.63613
9.59954
9.56267
9.52553
9.48811
9.45041
9.41241
9.37413
9.33556
9.29669
9.25752
9.21805
9.17827
9.13818
9.09778
9.05707
9.01604
8.97469
8.93302
8.89103
8.84871
8.80607
8.76309
8.71977
8.67612
8.63213
8.5878
8.54312
8.4981
8.45272
8.40699
8.36091
8.31447
8.26767
8.22052
8.173
8.12511
8.07687
8.02826
7.97928
7.92993
7.88021
7.8301
7.77958
7.72862
7.67715
7.62504
7.57209
7.51795
7.46209
7.4037
7.34161
7.27429
7.19997
4.91421
4.9076
4.88509
4.84922
4.79788
4.73119
4.64804
4.54839
4.43068
4.29431
4.14071
3.97723
3.81726
3.68024
3.58944
3.56923
3.64108
3.82062
4.11448
4.51748
5.01211
5.57133
6.16458
6.76168
7.33742
7.87452
8.36485
8.80658
9.20048
9.54761
9.84986
10.1105
10.3342
10.526
10.6909
10.8328
10.9549
11.0601
11.1505
11.2283
11.295
11.3521
11.4006
11.4416
11.4759
11.5043
11.5274
11.5457
11.5597
11.5699
11.5766
11.5802
11.581
11.5791
11.575
11.5687
11.5605
11.5505
11.539
11.526
11.5117
11.4961
11.4795
11.4619
11.4433
11.424
11.4038
11.383
11.3615
11.3395
11.3169
11.2938
11.2702
11.2462
11.2219
11.1971
11.1721
11.1467
11.121
11.095
11.0688
11.0423
11.0156
10.9887
10.9615
10.9342
10.9066
10.8788
10.8508
10.8227
10.7943
10.7657
10.737
10.7081
10.6789
10.6496
10.6201
10.5904
10.5606
10.5305
10.5002
10.4697
10.4391
10.4082
10.3771
10.3459
10.3144
10.2827
10.2508
10.2186
10.1863
10.1537
10.1209
10.0878
10.0546
10.0211
9.98731
9.95332
9.91907
9.88459
9.84984
9.81485
9.7796
9.74409
9.70832
9.67228
9.63597
9.59939
9.56254
9.52541
9.48799
9.4503
9.41231
9.37404
9.33547
9.2966
9.25744
9.21797
9.17819
9.1381
9.09771
9.057
9.01597
8.97462
8.93295
8.89096
8.84864
8.80599
8.76301
8.7197
8.67604
8.63204
8.5877
8.54302
8.49798
8.45259
8.40684
8.36073
8.31426
8.26742
8.22021
8.17263
8.12466
8.07631
8.02757
7.97843
7.92887
7.87889
7.82844
7.7775
7.726
7.67384
7.62087
7.56685
7.51141
7.45401
7.39386
7.32991
7.2608
7.18504
4.11266
4.0925
4.04067
3.96112
3.84903
3.70298
3.51761
3.28799
3.00806
2.67905
2.31046
1.9229
1.54527
1.21301
0.965049
0.842308
0.88259
1.11232
1.53825
2.14315
2.88955
3.72868
4.61017
5.48474
6.31091
7.06039
7.72181
8.29787
8.79784
9.23018
9.60024
9.91315
10.1763
10.3978
10.585
10.7439
10.8793
10.9949
11.0936
11.1781
11.2502
11.3117
11.364
11.4081
11.4451
11.4758
11.5009
11.5209
11.5365
11.5482
11.5561
11.5609
11.5627
11.5619
11.5586
11.5532
11.5458
11.5366
11.5258
11.5135
11.4998
11.4849
11.4688
11.4518
11.4337
11.4149
11.3952
11.3748
11.3538
11.3321
11.3099
11.2872
11.264
11.2404
11.2163
11.1919
11.1671
11.142
11.1166
11.0909
11.0649
11.0386
11.0121
10.9854
10.9584
10.9313
10.9038
10.8762
10.8484
10.8204
10.7922
10.7637
10.7351
10.7063
10.6773
10.6481
10.6187
10.5891
10.5593
10.5293
10.4991
10.4687
10.4381
10.4073
10.3763
10.3451
10.3136
10.282
10.2501
10.218
10.1857
10.1532
10.1204
10.0874
10.0542
10.0207
9.98696
9.95299
9.91877
9.8843
9.84958
9.81461
9.77937
9.74388
9.70812
9.6721
9.6358
9.59924
9.56239
9.52527
9.48786
9.45018
9.4122
9.37393
9.33537
9.29651
9.25734
9.21788
9.1781
9.13802
9.09762
9.05692
9.01589
8.97454
8.93288
8.89088
8.84856
8.80591
8.76293
8.71961
8.67595
8.63195
8.5876
8.5429
8.49785
8.45244
8.40667
8.36054
8.31404
8.26716
8.2199
8.17225
8.12421
8.07575
8.02689
7.97758
7.92782
7.87758
7.82681
7.77545
7.72343
7.67063
7.61685
7.56184
7.50521
7.44642
7.38473
7.31917
7.24854
7.17157
3.20333
3.15837
3.05574
2.89973
2.67845
2.38315
1.99738
1.51397
0.933999
0.277508
-0.425719
-1.13522
-1.80359
-2.37324
-2.78259
-2.97377
-2.90131
-2.53929
-1.88757
-0.974618
0.145307
1.40079
2.70931
3.98749
5.16596
6.19889
7.06977
7.79209
8.39971
8.91546
9.35117
9.71504
10.0165
10.2663
10.4749
10.6502
10.7985
10.9245
11.0317
11.123
11.2009
11.2671
11.3234
11.3709
11.4109
11.4441
11.4714
11.4935
11.5109
11.5241
11.5336
11.5396
11.5427
11.543
11.5408
11.5363
11.5299
11.5215
11.5115
11.4999
11.487
11.4727
11.4573
11.4408
11.4234
11.4051
11.3859
11.366
11.3455
11.3243
11.3025
11.2802
11.2573
11.2341
11.2104
11.1863
11.1618
11.137
11.1119
11.0864
11.0607
11.0347
11.0084
10.9819
10.9551
10.9282
10.9009
10.8735
10.8458
10.818
10.7899
10.7616
10.7331
10.7044
10.6755
10.6464
10.6171
10.5876
10.5579
10.528
10.4979
10.4676
10.4371
10.4063
10.3754
10.3442
10.3129
10.2813
10.2495
10.2174
10.1851
10.1526
10.1199
10.0869
10.0537
10.0203
9.98658
9.95264
9.91844
9.884
9.8493
9.81435
9.77913
9.74366
9.70792
9.6719
9.63562
9.59907
9.56224
9.52512
9.48773
9.45005
9.41208
9.37382
9.33526
9.2964
9.25724
9.21778
9.17801
9.13793
9.09754
9.05683
9.0158
8.97446
8.93279
8.8908
8.84848
8.80583
8.76284
8.71952
8.67586
8.63185
8.58749
8.54278
8.49772
8.4523
8.40651
8.36035
8.31381
8.26689
8.21958
8.17187
8.12375
8.0752
8.02621
7.97674
7.92679
7.87629
7.82521
7.77346
7.72095
7.66753
7.613
7.55708
7.49937
7.43935
7.37631
7.30937
7.23745
7.15946
2.2324
2.13959
1.94239
1.64493
1.21674
0.63569
-0.115677
-1.01664
-2.02939
-3.0981
-4.16286
-5.155
-6.00623
-6.64951
-7.02369
-7.07539
-6.76381
-6.06656
-5.00536
-3.63082
-2.03638
-0.325874
1.3806
2.98053
4.40828
5.62762
6.63051
7.44313
8.11316
8.67834
9.15552
9.55317
9.88081
10.1507
10.3747
10.5624
10.721
10.8555
10.97
11.0675
11.1506
11.2214
11.2815
11.3325
11.3754
11.4112
11.4408
11.465
11.4842
11.4991
11.5101
11.5176
11.5219
11.5234
11.5223
11.5189
11.5134
11.5059
11.4967
11.486
11.4738
11.4602
11.4455
11.4297
11.4128
11.3951
11.3765
11.3571
11.337
11.3162
11.2949
11.273
11.2506
11.2277
11.2043
11.1806
11.1564
11.1319
11.1071
11.0819
11.0564
11.0307
11.0046
10.9783
10.9518
10.925
10.898
10.8707
10.8432
10.8155
10.7876
10.7594
10.7311
10.7025
10.6737
10.6448
10.6156
10.5862
10.5566
10.5268
10.4967
10.4665
10.436
10.4054
10.3745
10.3434
10.3121
10.2805
10.2488
10.2168
10.1846
10.1521
10.1194
10.0865
10.0533
10.0199
9.98621
9.9523
9.91813
9.88371
9.84904
9.8141
9.77891
9.74345
9.70772
9.67173
9.63546
9.59892
9.5621
9.525
9.48761
9.44994
9.41198
9.37372
9.33517
9.29632
9.25717
9.21771
9.17794
9.13786
9.09747
9.05677
9.01574
8.9744
8.93274
8.89075
8.84843
8.80577
8.76279
8.71946
8.67579
8.63178
8.58742
8.5427
8.49762
8.45219
8.40638
8.36019
8.31363
8.26667
8.21932
8.17155
8.12335
8.0747
8.02559
7.97598
7.92583
7.8751
7.82372
7.7716
7.71863
7.66465
7.60943
7.55268
7.49401
7.4329
7.36867
7.30054
7.22752
7.14866
1.33203
1.16035
0.797738
0.241448
-0.549994
-1.57344
-2.80063
-4.14556
-5.52572
-6.84257
-8.00415
-8.93329
-9.57355
-9.88228
-9.83107
-9.40425
-8.60481
-7.45365
-6.00601
-4.33445
-2.52527
-0.673169
1.12165
2.77068
4.22122
5.45282
6.46645
7.28916
7.96842
8.54489
9.03533
9.44575
9.78436
10.0634
10.2954
10.4902
10.6551
10.7954
10.9151
11.0174
11.1047
11.1792
11.2427
11.2965
11.342
11.3802
11.4119
11.438
11.4589
11.4754
11.4878
11.4966
11.5022
11.5048
11.5048
11.5023
11.4977
11.4911
11.4828
11.4728
11.4613
11.4484
11.4343
11.4191
11.4028
11.3856
11.3675
11.3486
11.329
11.3086
11.2877
11.2662
11.2441
11.2216
11.1986
11.1752
11.1513
11.1271
11.1025
11.0776
11.0524
11.0269
11.0011
10.975
10.9486
10.922
10.8951
10.8681
10.8407
10.8132
10.7854
10.7574
10.7291
10.7007
10.672
10.6432
10.6141
10.5848
10.5553
10.5255
10.4956
10.4654
10.4351
10.4045