/*--------------------------------*- C++ -*----------------------------------*\
  =========                 |
  \\      /  F ield         | OpenFOAM: The Open Source CFD Toolbox
   \\    /   O peration     | Website:  https://openfoam.org
    \\  /    A nd           | Version:  7
     \\/     M anipulation  |
\*---------------------------------------------------------------------------*/
FoamFile
{
    version     2.0;
    format      ascii;
    class       volScalarField;
    location    "0.01";
    object      s_0;
}
// * * * * * * * * * * * * * * * * * * * * * * * * * * * * * * * * * * * * * //

dimensions      [0 0 0 0 0 0 0];

internalField   nonuniform List<scalar> 
12225
(
1
1
1
1
1
1
1
1
1
1
1
1
0.999998
0.999991
0.999968
0.999911
0.99978
0.999503
1
1
1
1
1
1
1
1
1
1
1
1
1
1
1
1
1
1
1
1
1
1
1
1
1
1
1
1
1
1
1
1
1
1
1
1
1
1
1
1
1
1
1
1
1
1
1
1
1
1
1
1
1
1
1
1
1
1
1
1
1
1
1
1
1
1
1
1
1
1
1
1
1
1
1
1
1
1
1
1
1
1
1
1
1
1
1
1
1
1
1
1
1
1
1
1
1
1
1
1
1
1
1
1
1
1
1
1
1
1
1
1
1
1
1
1
1
1
1
1
1
1
1
1
1
1
1
1
1
1
1
1
1
1
1
1
1
1
1
1
1
1
1
1
1
1
1
1
1
1
1
1
1
1
1
1
1
1
1
1
1
1
1
1
1
1
1
1
1
1
1
1
1
1
1
1
1
1
1
1
1
1
1
1
1
1
1
1
1
1
1
1
1
1
1
1
1
1
1
1
1
1
1
1
1
1
1
1
1
1
1
1
1
1
1
1
1
1
1
1
1
1
1
1
1
1
1
1
1
1
1
1
1
1
1
1
1
1
1
1
1
1
1
1
1
1
1
1
1
1
1
1
1
1
1
1
1
1
1
1
1
1
1
1
1
1
1
1
1
1
1
1
1
1
1
1
1
1
1
1
1
1
1
1
1
1
1
1
1
1
1
1
1
1
1
1
1
1
1
1
1
1
1
1
1
1
1
1
1
1
1
1
1
1
1
1
1
1
1
1
1
1
1
1
1
1
1
1
1
1
1
1
1
1
1
1
1
1
1
1
1
1
1
1
1
1
1
1
1
1
1
1
1
1
1
1
1
1
1
1
1
1
1
1
1
1
1
1
1
1
1
1
1
1
1
1
1
1
1
1
1
1
1
1
1
1
1
1
1
1
1
1
1
1
1
1
1
1
1
1
1
1
1
1
1
1
1
1
1
1
1
1
1
1
1
1
1
1
1
1
1
1
1
1
1
1
1
1
1
1
1
1
1
1
1
1
1
1
1
1
1
1
1
1
1
1
1
1
1
1
1
1
1
1
1
1
1
1
1
1
1
1
1
1
1
1
1
1
1
1
1
1
1
1
1
1
1
1
1
1
1
1
1
1
1
1
1
1
1
1
1
1
1
1
1
1
1
1
1
1
1
1
1
1
1
1
1
1
1
1
1
1
1
1
1
1
1
1
1
1
1
1
5.35805e-34
2.61425e-32
6.63765e-31
1.19623e-29
1.74387e-28
2.19984e-27
2.46677e-26
2.47576e-25
2.23043e-24
1.81238e-23
1.33686e-22
9.01148e-22
5.58583e-21
3.20216e-20
1.7068e-19
8.50023e-19
3.97107e-18
1.74362e-17
7.19583e-17
2.80337e-16
1.04078e-15
3.32415e-15
8.0587e-15
1.53607e-14
2.34238e-14
2.94766e-14
3.19943e-14
2.9448e-14
2.38607e-14
1.70377e-14
1.09202e-14
6.32176e-15
3.32866e-15
1.61362e-15
7.20778e-16
2.9785e-16
1.14605e-16
4.13563e-17
1.40756e-17
4.52394e-18
1.37748e-18
3.98569e-19
1.09898e-19
2.89502e-20
7.30295e-21
1.76789e-21
4.11494e-22
9.2256e-23
1.9955e-23
4.17043e-24
8.43281e-25
1.65185e-25
3.13812e-26
5.78801e-27
1.03746e-27
1.80874e-28
3.06975e-29
5.07552e-30
8.18104e-31
1.28637e-31
1.97427e-32
2.95918e-33
4.33388e-34
6.20472e-35
8.68752e-36
1.19006e-36
1.59551e-37
2.09428e-38
2.69223e-39
3.39043e-40
4.18389e-41
5.06051e-42
6.00062e-43
6.97712e-44
7.95642e-45
8.90016e-46
9.76755e-47
1.05183e-47
1.11155e-48
1.15291e-49
1.17377e-50
1.17309e-51
1.15099e-52
1.10874e-53
1.04864e-54
9.73787e-56
8.87874e-57
7.94838e-58
6.98599e-59
6.02795e-60
5.10576e-61
4.2446e-62
3.46277e-63
2.7715e-64
2.17554e-65
1.67428e-66
1.26264e-67
9.32377e-69
6.73674e-70
4.75778e-71
3.27827e-72
2.19976e-73
1.43356e-74
9.088e-76
5.69078e-77
3.51956e-78
2.14992e-79
1.29708e-80
7.72876e-82
4.54824e-83
2.6434e-84
1.51729e-85
8.60114e-87
4.81533e-88
2.6624e-89
1.45375e-90
7.8401e-92
3.9759e-93
3.78014e-94
3.71734e-95
1.90335e-96
9.60527e-98
4.77208e-99
2.33383e-100
1.07808e-101
9.24292e-103
7.85453e-104
3.53084e-105
1.66594e-106
7.92478e-108
3.6579e-109
1.63406e-110
6.88761e-112
5.37196e-113
4.07553e-114
1.65061e-115
7.11141e-117
3.07758e-118
1.2838e-119
5.15115e-121
1.94109e-122
1.3761e-123
9.7765e-125
3.52436e-126
1.27918e-127
4.73856e-129
1.7635e-130
6.4531e-132
2.37995e-133
1.4778e-134
9.50536e-136
3.10065e-137
1.01994e-138
3.41655e-140
1.14612e-141
3.7698e-143
1.42847e-144
7.31093e-146
4.02763e-147
1.18471e-148
3.68341e-150
1.15117e-151
3.47726e-153
1.0122e-154
2.79838e-156
1.47551e-157
7.80398e-159
2.07438e-160
5.45982e-162
1.44642e-163
3.85699e-165
1.00193e-166
4.6172e-168
1.95155e-169
5.30196e-171
1.40886e-172
3.44319e-174
8.05597e-176
1.85685e-177
3.97015e-179
8.80341e-32
4.77708e-30
1.34988e-28
2.69374e-27
4.28799e-26
5.76042e-25
6.69986e-24
6.83689e-23
6.18382e-22
5.00542e-21
3.65832e-20
2.43315e-19
1.48248e-18
8.32172e-18
4.32536e-17
2.09081e-16
9.43e-16
3.97328e-15
1.56221e-14
5.74746e-14
2.0165e-13
5.82861e-13
1.29933e-12
2.31083e-12
3.32248e-12
3.96746e-12
4.17469e-12
3.71405e-12
2.93955e-12
2.06307e-12
1.30614e-12
7.50144e-13
3.93695e-13
1.90451e-13
8.52178e-14
3.53386e-14
1.36727e-14
4.9852e-15
1.7143e-15
5.57456e-16
1.71972e-16
5.0479e-17
1.41365e-17
3.78636e-18
9.72144e-19
2.39753e-19
5.69041e-20
1.30203e-20
2.87666e-21
6.14581e-22
1.27138e-22
2.54986e-23
4.96357e-24
9.38785e-25
1.72684e-25
3.09202e-26
5.39379e-27
9.17364e-28
1.52227e-28
2.46621e-29
3.90319e-30
6.03819e-31
9.13522e-32
1.35228e-32
1.95952e-33
2.78067e-34
3.86575e-35
5.26703e-36
7.03544e-37
9.21616e-38
1.18433e-38
1.4934e-39
1.84834e-40
2.2459e-41
2.67982e-42
3.14067e-43
3.61599e-44
4.0908e-45
4.54823e-46
4.97057e-47
5.34037e-48
5.64166e-49
5.86107e-50
5.98886e-51
6.01959e-52
5.95253e-53
5.79166e-54
5.54527e-55
5.2253e-56
4.84636e-57
4.42468e-58
3.97699e-59
3.51946e-60
3.06682e-61
2.63165e-62
2.22401e-63
1.85119e-64
1.51775e-65
1.22582e-66
9.75337e-68
7.64572e-69
5.90538e-70
4.4944e-71
3.37065e-72
2.49112e-73
1.81442e-74
1.30365e-75
9.2471e-77
6.47538e-78
4.47645e-79
3.05496e-80
2.05814e-81
1.36877e-82
8.9859e-84
5.82316e-85
3.72484e-86
2.35179e-87
1.46562e-88
9.01495e-90
5.47293e-91
3.27932e-92
1.93932e-93
1.13191e-94
6.52029e-96
3.70693e-97
2.07994e-98
1.1518e-99
6.29487e-101
3.39535e-102
1.80745e-103
9.4959e-105
4.92371e-106
2.51964e-107
1.27255e-108
6.3431e-110
3.12051e-111
1.51512e-112
7.26059e-114
3.43402e-115
1.60304e-116
7.38582e-118
3.35872e-119
1.50756e-120
6.6789e-122
2.9206e-123
1.26061e-124
5.37081e-126
2.25867e-127
9.37622e-129
3.84212e-130
1.55414e-131
6.2057e-133
2.44614e-134
9.51848e-136
3.65643e-137
1.38662e-138
5.19124e-140
1.91871e-141
7.00121e-143
2.52214e-144
8.97019e-146
3.14972e-147
1.0919e-148
3.73703e-150
1.26271e-151
4.21217e-153
1.38713e-154
4.50936e-156
1.44702e-157
4.58294e-159
1.43244e-160
4.41748e-162
1.34381e-163
4.03078e-165
1.19149e-166
3.46845e-168
9.9275e-170
2.78999e-171
7.65663e-173
2.04984e-174
1.04568e-29
6.26895e-28
1.94318e-26
4.1888e-25
7.0487e-24
9.76901e-23
1.14808e-21
1.16616e-20
1.03899e-19
8.21943e-19
5.8325e-18
3.74344e-17
2.18811e-16
1.17154e-15
5.77445e-15
2.63167e-14
1.11271e-13
4.37143e-13
1.59444e-12
5.41211e-12
1.74202e-11
4.61718e-11
9.53276e-11
1.5879e-10
2.15559e-10
2.46967e-10
2.50694e-10
2.1634e-10
1.67469e-10
1.15564e-10
7.23081e-11
4.12139e-11
2.15387e-11
1.04055e-11
4.6616e-12
1.9398e-12
7.54173e-13
2.76661e-13
9.58858e-14
3.1462e-14
9.80339e-15
2.90902e-15
8.24173e-16
2.23469e-16
5.81145e-17
1.45238e-17
3.49456e-18
8.10864e-19
1.81724e-19
3.9391e-20
8.26927e-21
1.68323e-21
3.32584e-22
6.3854e-23
1.19237e-23
2.16746e-24
3.83846e-25
6.62759e-26
1.11647e-26
1.83617e-27
2.94993e-28
4.63219e-29
7.11313e-30
1.06867e-30
1.57156e-31
2.2631e-32
3.19251e-33
4.4134e-34
5.98102e-35
7.94837e-36
1.03612e-36
1.32524e-37
1.66358e-38
2.05007e-39
2.48065e-40
2.94805e-41
3.44164e-42
3.94767e-43
4.44985e-44
4.93008e-45
5.36958e-46
5.75009e-47
6.05513e-48
6.27119e-49
6.38875e-50
6.40294e-51
6.31389e-52
6.12663e-53
5.85068e-54
5.49922e-55
5.08807e-56
4.63457e-57
4.15638e-58
3.67041e-59
3.19188e-60
2.73373e-61
2.30609e-62
1.91624e-63
1.5686e-64
1.26502e-65
1.00516e-66
7.86983e-68
6.07174e-69
4.61646e-70
3.45925e-71
2.55484e-72
1.85987e-73
1.3352e-74
9.46157e-76
6.61795e-77
4.56896e-78
3.1134e-79
2.09396e-80
1.38998e-81
9.10639e-83
5.8881e-84
3.75739e-85
2.36631e-86
1.47071e-87
9.02077e-89
5.46034e-90
3.26175e-91
1.9228e-92
1.11859e-93
6.42185e-95
3.63833e-96
2.03421e-97
1.1224e-98
6.11157e-100
3.28411e-101
1.74158e-102
9.11452e-104
4.70751e-105
2.39949e-106
1.20704e-107
5.9924e-109
2.93605e-110
1.41976e-111
6.77578e-113
3.19156e-114
1.48371e-115
6.8078e-117
3.08305e-118
1.37809e-119
6.08e-121
2.64769e-122
1.13808e-123
4.82872e-125
2.02232e-126
8.36049e-128
3.41184e-129
1.37444e-130
5.46581e-132
2.14575e-133
8.31588e-135
3.18162e-136
1.20173e-137
4.48118e-139
1.64971e-140
5.99599e-142
2.15156e-143
7.6224e-145
2.66609e-146
9.20664e-148
3.13883e-149
1.0565e-150
3.51064e-152
1.15161e-153
3.72904e-155
1.19184e-156
3.75936e-158
1.17007e-159
3.59234e-161
1.0877e-162
3.24549e-164
9.54066e-166
2.75735e-167
7.83656e-169
2.17732e-170
5.94024e-172
1.19985e-27
7.76796e-26
2.55769e-24
5.72237e-23
9.7618e-22
1.34396e-20
1.54566e-19
1.52054e-18
1.30233e-17
9.84575e-17
6.64214e-16
4.03347e-15
2.2204e-14
1.1146e-13
5.12788e-13
2.17161e-12
8.4943e-12
3.07397e-11
1.02868e-10
3.19062e-10
9.33159e-10
2.2621e-09
4.32381e-09
6.75011e-09
8.64465e-09
9.59852e-09
9.36144e-09
7.87303e-09
5.97113e-09
4.06098e-09
2.5155e-09
1.42524e-09
7.43166e-10
3.59177e-10
1.61393e-10
6.74798e-11
2.6398e-11
9.758e-12
3.41247e-12
1.131e-12
3.56291e-13
1.06971e-13
3.0684e-14
8.42816e-15
2.2214e-15
5.62888e-16
1.37365e-16
3.23364e-17
7.35369e-18
1.61775e-18
3.44707e-19
7.12246e-20
1.42861e-20
2.78438e-21
5.27806e-22
9.73915e-23
1.75069e-23
3.06802e-24
5.2452e-25
8.75375e-26
1.42696e-26
2.27326e-27
3.54104e-28
5.39587e-29
8.04699e-30
1.17497e-30
1.68039e-31
2.35472e-32
3.23417e-33
4.35528e-34
5.75214e-35
7.45288e-36
9.47578e-37
1.18252e-37
1.44879e-38
1.74303e-39
2.05965e-40
2.39088e-41
2.72696e-42
3.05658e-43
3.36745e-44
3.64709e-45
3.88362e-46
4.06665e-47
4.18803e-48
4.24241e-49
4.2277e-50
4.14513e-51
3.99915e-52
3.79703e-53
3.54825e-54
3.26383e-55
2.9555e-56
2.63491e-57
2.31301e-58
1.99944e-59
1.70214e-60
1.42718e-61
1.17869e-62
9.58932e-64
7.6857e-65
6.06903e-66
4.72202e-67
3.62028e-68
2.73524e-69
2.03665e-70
1.49463e-71
1.08112e-72
7.71514e-74
5.43385e-75
3.77707e-76
2.59105e-77
1.75414e-78
1.17194e-79
7.72676e-81
5.02725e-82
3.22776e-83
2.04506e-84
1.27862e-85
7.88869e-87
4.80281e-88
2.88543e-89
1.71061e-90
1.00073e-91
5.77704e-93
3.29096e-94
1.84998e-95
1.02623e-96
5.61765e-98
3.03461e-99
1.61768e-100
8.50993e-102
4.41783e-103
2.26332e-104
1.14431e-105
5.70955e-107
2.81145e-108
1.36626e-109
6.55265e-111
3.10161e-112
1.44894e-113
6.68052e-115
3.04002e-116
1.36539e-117
6.05278e-119
2.64838e-120
1.14378e-121
4.87578e-123
2.05162e-124
8.52133e-126
3.49369e-127
1.41395e-128
5.64892e-130
2.22786e-131
8.67372e-133
3.33371e-134
1.26492e-135
4.73823e-137
1.75224e-138
6.39739e-140
2.30593e-141
8.20591e-143
2.88301e-144
1.00001e-145
3.42451e-147
1.15776e-148
3.86414e-150
1.27316e-151
4.14077e-153
1.32926e-154
4.21119e-156
1.31647e-157
4.05953e-159
1.23464e-160
3.70026e-162
1.09277e-163
3.17354e-165
9.06742e-167
2.53672e-168
6.97595e-170
1.40216e-25
9.42476e-24
3.15599e-22
7.02623e-21
1.17216e-19
1.55797e-18
1.71424e-17
1.60291e-16
1.29822e-15
9.23911e-15
5.84258e-14
3.31213e-13
1.69526e-12
7.8807e-12
3.34416e-11
1.30104e-10
4.65658e-10
1.53605e-09
4.66918e-09
1.31124e-08
3.45184e-08
7.63204e-08
1.34971e-07
1.97721e-07
2.3957e-07
2.58294e-07
2.42817e-07
1.99762e-07
1.4877e-07
9.99979e-08
6.14534e-08
3.46808e-08
1.8078e-08
8.75741e-09
3.95494e-09
1.66455e-09
6.56354e-10
2.44828e-10
8.65036e-11
2.89933e-11
9.24384e-12
2.8107e-12
8.16977e-13
2.27502e-13
6.08143e-14
1.5634e-14
3.87176e-15
9.25114e-16
2.13575e-16
4.77029e-17
1.03206e-17
2.16532e-18
4.41004e-19
8.72744e-20
1.67974e-20
3.14679e-21
5.74248e-22
1.02152e-22
1.77255e-23
3.00211e-24
4.96568e-25
8.02586e-26
1.26819e-26
1.96e-27
2.96417e-28
4.38836e-29
6.36237e-30
9.03671e-31
1.25783e-31
1.7163e-32
2.29643e-33
3.01384e-34
3.88071e-35
4.9038e-36
6.08257e-37
7.40747e-38
8.85875e-39
1.04059e-39
1.20081e-40
1.36156e-41
1.51718e-42
1.66168e-43
1.7891e-44
1.89394e-45
1.97153e-46
2.01839e-47
2.03249e-48
2.0134e-49
1.96229e-50
1.88183e-51
1.77594e-52
1.64952e-53
1.50805e-54
1.35721e-55
1.20253e-56
1.04907e-57
9.01184e-59
7.62366e-60
6.35175e-61
5.21244e-62
4.21349e-63
3.35531e-64
2.63237e-65
2.03478e-66
1.5498e-67
1.1632e-68
8.60365e-70
6.27187e-71
4.50857e-72
3.19823e-73
2.23873e-74
1.54636e-75
1.05399e-76
7.08874e-78
4.70446e-79
3.08073e-80
1.99065e-81
1.26921e-82
7.98479e-84
4.95663e-85
3.036e-86
1.83488e-87
1.09423e-88
6.43879e-90
3.73851e-91
2.14187e-92
1.21085e-93
6.75458e-95
3.71807e-96
2.01954e-97
1.08245e-98
5.72517e-100
2.98814e-101
1.53903e-102
7.82236e-104
3.92351e-105
1.94207e-106
9.48671e-108
4.57332e-109
2.17581e-110
1.02162e-111
4.73417e-113
2.16517e-114
9.77331e-116
4.35411e-117
1.91458e-118
8.30942e-120
3.55959e-121
1.50511e-122
6.28184e-124
2.58798e-125
1.05244e-126
4.22483e-128
1.67418e-129
6.54909e-131
2.52905e-132
9.64134e-134
3.62851e-135
1.34814e-136
4.94499e-138
1.7907e-139
6.40195e-141
2.25961e-142
7.87385e-144
2.70875e-145
9.19972e-147
3.08454e-148
1.02094e-149
3.33558e-151
1.07567e-152
3.42336e-154
1.0751e-155
3.33056e-157
1.01768e-158
3.06469e-160
9.0957e-162
2.65585e-163
7.63325e-165
2.15214e-166
5.9748e-168
1.61575e-23
1.07613e-21
3.51662e-20
7.53268e-19
1.1974e-17
1.50595e-16
1.55996e-15
1.36766e-14
1.03483e-13
6.85629e-13
4.02249e-12
2.10819e-11
9.94063e-11
4.24184e-10
1.64627e-09
5.83624e-09
1.8966e-08
5.66169e-08
1.55302e-07
3.92502e-07
9.2413e-07
1.86141e-06
3.04723e-06
4.1931e-06
4.84405e-06
5.06961e-06
4.61808e-06
3.7327e-06
2.73887e-06
1.82611e-06
1.11661e-06
6.29349e-07
3.28774e-07
1.59994e-07
7.27942e-08
3.09125e-08
1.23137e-08
4.6442e-09
1.66067e-09
5.63747e-10
1.82162e-10
5.61658e-11
1.65621e-11
4.68058e-12
1.27017e-12
3.31567e-13
8.33947e-14
2.02402e-14
4.74677e-15
1.07708e-15
2.36739e-16
5.04596e-17
1.04401e-17
2.09877e-18
4.10297e-19
7.80655e-20
1.44669e-20
2.61306e-21
4.60329e-22
7.91402e-23
1.32857e-23
2.179e-24
3.49332e-25
5.47679e-26
8.40061e-27
1.26116e-27
1.85384e-28
2.66915e-29
3.76544e-30
5.20644e-31
7.05794e-32
9.38314e-33
1.22368e-33
1.56582e-34
1.96642e-35
2.42418e-36
2.93429e-37
3.48798e-38
4.07252e-39
4.67141e-40
5.26507e-41
5.83179e-42
6.34909e-43
6.79511e-44
7.15026e-45
7.39855e-46
7.52888e-47
7.53578e-48
7.41984e-49
7.18756e-50
6.85079e-51
6.4257e-52
5.93155e-53
5.38928e-54
4.82006e-55
4.24401e-56
3.67914e-57
3.14051e-58
2.63986e-59
2.18538e-60
1.78186e-61
1.43106e-62
1.13218e-63
8.82431e-65
6.77624e-66
5.1271e-67
3.82263e-68
2.80861e-69
2.03437e-70
1.45389e-71
1.02516e-72
7.13199e-74
4.8954e-75
3.3153e-76
2.2152e-77
1.46036e-78
9.49868e-80
6.09565e-81
3.85951e-82
2.411e-83
1.486e-84
9.03648e-86
5.42175e-87
3.20955e-88
1.87463e-89
1.08034e-90
6.14305e-92
3.44659e-93
1.90802e-94
1.04224e-95
5.61762e-97
2.98774e-98
1.56799e-99
8.12006e-101
4.14954e-102
2.09252e-103
1.0413e-104
5.11362e-106
2.47816e-107
1.18519e-108
5.59389e-110
2.60562e-111
1.19781e-112
5.43444e-114
2.43342e-115
1.07543e-116
4.69096e-118
2.01958e-119
8.58202e-121
3.59961e-122
1.49028e-123
6.09025e-125
2.45677e-126
9.78286e-128
3.84544e-129
1.49216e-130
5.7158e-132
2.16144e-133
8.06895e-135
2.97376e-136
1.08197e-137
3.88642e-139
1.37819e-140
4.82499e-142
1.66766e-143
5.6903e-145
1.91678e-146
6.37383e-148
2.09216e-149
6.77838e-151
2.16737e-152
6.83874e-154
2.12873e-155
6.53604e-157
1.97826e-158
5.90174e-160
1.73331e-161
5.01258e-163
1.4246e-164
3.98926e-166
1.68771e-21
1.07318e-19
3.32689e-18
6.70951e-17
9.99399e-16
1.17395e-14
1.13268e-13
9.22441e-13
6.46521e-12
3.95669e-11
2.13806e-10
1.02909e-09
4.44327e-09
1.73096e-08
6.11417e-08
1.96648e-07
5.77924e-07
1.55549e-06
3.83729e-06
8.7024e-06
1.82738e-05
3.35526e-05
5.09334e-05
6.59761e-05
7.34444e-05
7.45048e-05
6.62298e-05
5.28676e-05
3.8397e-05
2.55101e-05
1.55812e-05
8.79976e-06
4.62154e-06
2.26535e-06
1.04118e-06
4.47357e-07
1.80492e-07
6.89973e-08
2.50198e-08
8.61825e-09
2.82705e-09
8.8523e-10
2.65181e-10
7.61512e-11
2.10026e-11
5.57288e-12
1.42491e-12
3.51584e-13
8.38284e-14
1.93381e-14
4.32112e-15
9.36272e-16
1.96907e-16
4.02319e-17
7.99289e-18
1.54527e-18
2.90936e-19
5.33802e-20
9.55069e-21
1.66734e-21
2.84178e-22
4.73114e-23
7.69777e-24
1.22459e-24
1.90558e-25
2.90174e-26
4.32559e-27
6.31463e-28
9.03051e-29
1.26554e-29
1.73849e-30
2.34164e-31
3.09341e-32
4.00898e-33
5.09816e-34
6.36316e-35
7.79662e-36
9.37997e-37
1.10826e-37
1.2862e-38
1.46647e-39
1.64292e-40
1.80884e-41
1.95746e-42
2.08239e-43
2.17803e-44
2.24007e-45
2.26574e-46
2.25405e-47
2.20586e-48
2.12375e-49
2.01182e-50
1.87536e-51
1.72042e-52
1.55342e-53
1.38066e-54
1.20802e-55
1.04062e-56
8.82637e-58
7.37196e-59
6.06364e-60
4.91214e-61
3.91951e-62
3.08072e-63
2.38542e-64
1.81973e-65
1.36775e-66
1.01298e-67
7.39487e-69
5.32549e-70
3.78342e-71
2.65159e-72
1.83328e-73
1.25041e-74
8.41361e-76
5.58492e-77
3.6573e-78
2.36272e-79
1.50583e-80
9.46794e-82
5.87288e-83
3.59392e-84
2.16975e-85
1.29236e-86
7.59439e-88
4.40296e-89
2.51852e-90
1.42135e-91
7.91442e-93
4.34816e-94
2.35704e-95
1.26069e-96
6.65337e-98
3.46474e-99
1.78034e-100
9.02708e-102
4.51658e-103
2.22997e-104
1.08648e-105
5.22381e-107
2.47858e-108
1.16058e-109
5.36311e-111
2.44586e-112
1.10085e-113
4.8901e-115
2.14392e-116
9.27698e-118
3.96208e-119
1.67019e-120
6.94936e-122
2.85409e-123
1.15703e-124
4.63e-126
1.82889e-127
7.13138e-129
2.74502e-130
1.04306e-131
3.91271e-133
1.44894e-134
5.2971e-136
1.9118e-137
6.81188e-139
2.39614e-140
8.32104e-142
2.85271e-143
9.65482e-145
3.2257e-146
1.06383e-147
3.46308e-149
1.11261e-150
3.52757e-152
1.10344e-153
3.4049e-155
1.03594e-156
3.10724e-158
9.18054e-160
2.67211e-161
7.65435e-163
2.16196e-164
1.41692e-19
8.42775e-18
2.44466e-16
4.60103e-15
6.38332e-14
6.96313e-13
6.22198e-12
4.68282e-11
3.02725e-10
1.7053e-09
8.46342e-09
3.73284e-08
1.47336e-07
5.23414e-07
1.68166e-06
4.90647e-06
1.30438e-05
3.16681e-05
7.03018e-05
0.000143168
0.000268349
0.000450183
0.000635672
0.000776692
0.000844053
0.000829057
0.000725818
0.000575647
0.000416418
0.000277268
0.000170024
9.66331e-05
5.12159e-05
2.53742e-05
1.18154e-05
5.15299e-06
2.11228e-06
8.20732e-07
3.0253e-07
1.05968e-07
3.53572e-08
1.12635e-08
3.43316e-09
1.00324e-09
2.81582e-10
7.60372e-11
1.97854e-11
4.96806e-12
1.20538e-12
2.82933e-13
6.43224e-14
1.41779e-14
3.03289e-15
6.30214e-16
1.27313e-16
2.50237e-17
4.78897e-18
8.9298e-19
1.62341e-19
2.87913e-20
4.98409e-21
8.42616e-22
1.39189e-22
2.24759e-23
3.54936e-24
5.48384e-25
8.29252e-26
1.22776e-26
1.78039e-27
2.52946e-28
3.52198e-29
4.80744e-30
6.43468e-31
8.44769e-32
1.08806e-32
1.3752e-33
1.706e-34
2.07767e-35
2.48454e-36
2.91789e-37
3.36605e-38
3.81485e-39
4.24823e-40
4.64922e-41
5.00104e-42
5.28823e-43
5.49782e-44
5.62028e-45
5.65027e-46
5.587e-47
5.43423e-48
5.19993e-49
4.89562e-50
4.5354e-51
4.13492e-52
3.71029e-53
3.27705e-54
2.84926e-55
2.43893e-56
2.05553e-57
1.70587e-58
1.39413e-59
1.12211e-60
8.89558e-62
6.94638e-63
5.34346e-64
4.04949e-65
3.02361e-66
2.22506e-67
1.61505e-68
1.15627e-69
8.16519e-71
5.6874e-72
3.90756e-73
2.64818e-74
1.77028e-75
1.16733e-76
7.59295e-78
4.87183e-79
3.0835e-80
1.92519e-81
1.18572e-82
7.20414e-84
4.31794e-85
2.55314e-86
1.4893e-87
8.57056e-89
4.86588e-90
2.72551e-91
1.50618e-92
8.21213e-94
4.41766e-95
2.34474e-96
1.22793e-97
6.34504e-99
3.23509e-100
1.62756e-101
8.07975e-103
3.95799e-104
1.91327e-105
9.12668e-107
4.29627e-108
1.99582e-109
9.14984e-111
4.13975e-112
1.84847e-113
8.14591e-115
3.54293e-116
1.52087e-117
6.44372e-119
2.69467e-120
1.11226e-121
4.53162e-123
1.82242e-124
7.23446e-126
2.83486e-127
1.09657e-128
4.1872e-130
1.57835e-131
5.87334e-133
2.1576e-134
7.82471e-136
2.80143e-137
9.90166e-139
3.45503e-140
1.19017e-141
4.04735e-143
1.35871e-144
4.50255e-146
1.47279e-147
4.7548e-149
1.51494e-150
4.76253e-152
1.4771e-153
4.51811e-155
1.36274e-156
4.05096e-158
1.18689e-159
3.42622e-161
9.75983e-163
8.68188e-18
4.78334e-16
1.29035e-14
2.25167e-13
2.89345e-12
2.92592e-11
2.42398e-10
1.68844e-09
1.00762e-08
5.22688e-08
2.38385e-07
9.64559e-07
3.48729e-06
1.13296e-05
3.32276e-05
8.8307e-05
0.000213316
0.000469344
0.000942194
0.00173153
0.00291625
0.00447923
0.00589971
0.00686116
0.00730255
0.0069994
0.00608923
0.0048373
0.0035138
0.00236148
0.00146379
0.000841985
0.000452458
0.00022758
0.000107709
4.78578e-05
2.00028e-05
7.92469e-06
2.97762e-06
1.06325e-06
3.61666e-07
1.17451e-07
3.6493e-08
1.08696e-08
3.10932e-09
8.55636e-10
2.26858e-10
5.80336e-11
1.43428e-11
3.42878e-12
7.93755e-13
1.78125e-13
3.8786e-14
8.20208e-15
1.68592e-15
3.37094e-16
6.56119e-17
1.24402e-17
2.29913e-18
4.14426e-19
7.28993e-20
1.25204e-20
2.10062e-21
3.44439e-22
5.52205e-23
8.65949e-24
1.32879e-24
1.99594e-25
2.93574e-26
4.22968e-27
5.97106e-28
8.26179e-29
1.12072e-29
1.49083e-30
1.94527e-31
2.4903e-32
3.12851e-33
3.85773e-34
4.67005e-35
5.55121e-36
6.48053e-37
7.43131e-38
8.3719e-39
9.26736e-40
1.00816e-40
1.07796e-41
1.13303e-42
1.17086e-43
1.18973e-44
1.18885e-45
1.16841e-46
1.12955e-47
1.07425e-48
1.00518e-49
9.25483e-51
8.38544e-52
7.47757e-53
6.56319e-54
5.67065e-55
4.82342e-56
4.03944e-57
3.33098e-58
2.70485e-59
2.16309e-60
1.70373e-61
1.32178e-62
1.01014e-63
7.60513e-65
5.64278e-66
4.12891e-67
2.97946e-68
2.12036e-69
1.48819e-70
1.03013e-71
7.03263e-73
4.73524e-74
3.14464e-75
2.05974e-76
1.33067e-77
8.47922e-79
5.32934e-80
3.30394e-81
2.02041e-82
1.21873e-83
7.25172e-85
4.25649e-86
2.46462e-87
1.4078e-88
7.93304e-90
4.41013e-91
2.41872e-92
1.30874e-93
6.98658e-95
3.67982e-96
1.91227e-97
9.80489e-99
4.96039e-100
2.47615e-101
1.21966e-102
5.92798e-104
2.8431e-105
1.34556e-106
6.28423e-108
2.89632e-109
1.31733e-110
5.91302e-112
2.61937e-113
1.14517e-114
4.94124e-116
2.10429e-117
8.84478e-119
3.66937e-120
1.50255e-121
6.07304e-123
2.42289e-124
9.54162e-126
3.70918e-127
1.42335e-128
5.39172e-130
2.01621e-131
7.44293e-133
2.71242e-134
9.75837e-136
3.46585e-137
1.21522e-138
4.20643e-140
1.4374e-141
4.84884e-143
1.61466e-144
5.30745e-146
1.72194e-147
5.51375e-149
1.74222e-150
5.43175e-152
1.67052e-153
5.06733e-155
1.51568e-156
4.47049e-158
1.3003e-159
3.73465e-161
3.4356e-16
1.75388e-14
4.41809e-13
7.19477e-12
8.61012e-11
8.08007e-10
6.19599e-09
3.99308e-08
2.20679e-07
1.06102e-06
4.48475e-06
1.67995e-05
5.61344e-05
0.000168237
0.000454316
0.00110948
0.00245658
0.00493977
0.00903726
0.015097
0.0230995
0.0326269
0.040305
0.044985
0.0470209
0.0443845
0.0386729
0.0311806
0.0230136
0.015738
0.00995932
0.00584006
0.00320196
0.00164407
0.000794164
0.000360986
0.00015448
6.26173e-05
2.40601e-05
8.7838e-06
3.05387e-06
1.01338e-06
3.21634e-07
9.78316e-08
2.85705e-08
8.02427e-09
2.17078e-09
5.66459e-10
1.42768e-10
3.47962e-11
8.21028e-12
1.87742e-12
4.16447e-13
8.96905e-14
1.87708e-14
3.82041e-15
7.56733e-16
1.45974e-16
2.74404e-17
5.02969e-18
8.99444e-19
1.57006e-19
2.67662e-20
4.45843e-21
7.25933e-22
1.15587e-22
1.80048e-23
2.7447e-24
4.09618e-25
5.98666e-26
8.57129e-27
1.20252e-27
1.65366e-28
2.22955e-29
2.94795e-30
3.82346e-31
4.86546e-32
6.07599e-33
7.44773e-34
8.96252e-35
1.05905e-35
1.22902e-36
1.40099e-37
1.56896e-38
1.72648e-39
1.867e-40
1.98438e-41
2.07331e-42
2.12971e-43
2.15104e-44
2.13651e-45
2.08708e-46
2.00542e-47
1.89563e-48
1.7629e-49
1.61316e-50
1.45261e-51
1.28732e-52
1.12287e-53
9.64108e-55
8.14914e-56
6.78156e-57
5.55672e-58
4.48348e-59
3.56253e-60
2.78794e-61
2.14895e-62
1.63164e-63
1.22085e-64
9.00709e-66
6.55232e-67
4.70009e-68
3.32454e-69
2.31888e-70
1.59499e-71
1.08187e-72
7.23678e-74
4.7739e-75
3.10577e-76
1.99271e-77
1.26097e-78
7.86982e-80
4.84433e-81
2.94118e-82
1.76133e-83
1.0404e-84
6.06197e-86
3.48409e-87
1.97533e-88
1.10478e-89
6.09544e-91
3.31773e-92
1.78154e-93
9.43792e-95
4.93282e-96
2.54368e-97
1.29416e-98
6.49658e-100
3.2178e-101
1.57262e-102
7.5838e-104
3.60878e-105
1.69455e-106
7.85194e-108
3.59038e-109
1.62015e-110
7.2149e-112
3.17085e-113
1.37532e-114
5.88736e-116
2.48737e-117
1.03722e-118
4.26895e-120
1.73421e-121
6.95384e-123
2.7523e-124
1.07529e-125
4.14692e-127
1.5787e-128
5.9328e-130
2.20095e-131
8.06046e-133
2.91416e-134
1.0401e-135
3.66476e-137
1.27476e-138
4.37741e-140
1.48391e-141
4.96581e-143
1.64039e-144
5.34877e-146
1.72141e-147
5.46752e-149
1.71369e-150
5.29964e-152
1.61693e-153
4.86656e-155
1.44503e-156
4.23425e-158
1.22591e-159
7.63427e-15
3.64111e-13
8.6419e-12
1.32844e-10
1.503e-09
1.3321e-08
9.63636e-08
5.84814e-07
3.03348e-06
1.36399e-05
5.3787e-05
0.000187806
0.000585076
0.00163525
0.00411524
0.00934298
0.0191525
0.035498
0.0597614
0.0921637
0.130924
0.17098
0.19901
0.214763
0.221386
0.208297
0.182424
0.150186
0.115643
0.0813619
0.053217
0.0321415
0.0181482
0.00957083
0.00474776
0.00221771
0.000976291
0.000406454
0.00016031
6.00378e-05
2.13992e-05
7.27536e-06
2.36444e-06
7.36019e-07
2.19861e-07
6.31319e-08
1.74533e-08
4.65222e-09
1.19723e-09
2.97827e-10
7.16995e-11
1.67221e-11
3.78191e-12
8.30188e-13
1.77032e-13
3.67014e-14
7.40264e-15
1.45366e-15
2.78094e-16
5.18602e-17
9.43271e-18
1.67428e-18
2.90154e-19
4.91179e-20
8.12558e-21
1.31418e-21
2.07879e-22
3.21727e-23
4.87343e-24
7.22768e-25
1.04983e-25
1.4939e-26
2.0832e-27
2.84753e-28
3.81629e-29
5.016e-30
6.4672e-31
8.18116e-32
1.01565e-32
1.23763e-33
1.4806e-34
1.73926e-35
2.00654e-36
2.27384e-37
2.53146e-38
2.76916e-39
2.97683e-40
3.14523e-41
3.26665e-42
3.3355e-43
3.34876e-44
3.30617e-45
3.21023e-46
3.06598e-47
2.88053e-48
2.66253e-49
2.42147e-50
2.16708e-51
1.90863e-52
1.6545e-53
1.41173e-54
1.18581e-55
9.80607e-57
7.98425e-58
6.40132e-59
5.05403e-60
3.92985e-61
3.00969e-62
2.27141e-63
1.68995e-64
1.23957e-65
8.96393e-67
6.39104e-68
4.49264e-69
3.11387e-70
2.12804e-71
1.434e-72
9.52849e-74
6.24332e-75
4.03399e-76
2.57038e-77
1.61514e-78
1.0009e-79
6.11721e-81
3.68727e-82
2.1921e-83
1.28539e-84
7.43425e-86
4.24113e-87
2.3866e-88
1.32479e-89
7.2542e-91
3.91854e-92
2.08815e-93
1.09777e-94
5.69361e-96
2.9134e-97
1.47083e-98
7.32624e-100
3.60057e-101
1.74599e-102
8.35423e-104
3.94433e-105
1.83761e-106
8.44812e-108
3.83267e-109
1.71589e-110
7.58115e-112
3.30558e-113
1.42246e-114
6.04116e-116
2.53221e-117
1.04759e-118
4.27759e-120
1.72401e-121
6.85832e-123
2.69306e-124
1.04384e-125
3.99384e-127
1.50842e-128
5.62394e-130
2.06991e-131
7.52072e-133
2.69757e-134
9.55197e-136
3.33906e-137
1.1523e-138
3.92567e-140
1.32027e-141
4.3833e-143
1.43652e-144
4.64705e-146
1.48377e-147
4.67576e-149
1.45412e-150
4.46267e-152
1.35157e-153
4.04017e-155
1.19247e-156
3.47945e-158
9.19712e-14
4.18827e-12
9.50968e-11
1.3872e-09
1.48601e-08
1.24965e-07
8.58513e-07
4.94163e-06
2.43026e-05
0.000103769
0.000389534
0.00129714
0.00385582
0.0102785
0.024662
0.0534543
0.105208
0.185683
0.248841
0.308441
0.355471
0.385916
0.41938
0.453379
0.487709
0.513342
0.527306
0.501236
0.428633
0.323731
0.218064
0.139329
0.0818158
0.0447353
0.0229572
0.0110871
0.00504558
0.00216811
0.00088165
0.00034006
0.0001247
4.35738e-05
1.45409e-05
4.64378e-06
1.42202e-06
4.18279e-07
1.18376e-07
3.22812e-08
8.49421e-09
2.15941e-09
5.31002e-10
1.26438e-10
2.91822e-11
6.53465e-12
1.42091e-12
3.00265e-13
6.17105e-14
1.23434e-14
2.40448e-15
4.56438e-16
8.44822e-17
1.52548e-17
2.68861e-18
4.62737e-19
7.78076e-20
1.27872e-20
2.0548e-21
3.22973e-22
4.96734e-23
7.47805e-24
1.1023e-24
1.59145e-25
2.25108e-26
3.12044e-27
4.24013e-28
5.64925e-29
7.38164e-30
9.46162e-31
1.18993e-31
1.46862e-32
1.77916e-33
2.11603e-34
2.47119e-35
2.83429e-36
3.19305e-37
3.53396e-38
3.84307e-39
4.10693e-40
4.31361e-41
4.45358e-42
4.52041e-43
4.51131e-44
4.42728e-45
4.273e-46
4.05639e-47
3.78798e-48
3.48003e-49
3.14566e-50
2.79795e-51
2.44913e-52
2.10992e-53
1.78916e-54
1.49348e-55
1.22732e-56
9.93027e-58
7.91131e-59
6.20666e-60
4.79543e-61
3.65102e-62
2.73986e-63
2.02669e-64
1.47776e-65
1.06218e-66
7.5262e-68
5.25725e-69
3.62042e-70
2.45807e-71
1.64542e-72
1.08598e-73
7.0672e-75
4.53487e-76
2.86938e-77
1.79034e-78
1.10158e-79
6.68423e-81
3.99991e-82
2.36064e-83
1.37406e-84
7.88839e-86
4.46677e-87
2.4948e-88
1.37445e-89
7.46934e-91
4.00417e-92
2.11754e-93
1.10472e-94
5.68573e-96
2.887e-97
1.44625e-98
7.14814e-100
3.48581e-101
1.67722e-102
7.96269e-104
3.73016e-105
1.72427e-106
7.86506e-108
3.54023e-109
1.57255e-110
6.89334e-112
2.9821e-113
1.27318e-114
5.3647e-116
2.231e-117
9.15717e-119
3.70974e-120
1.48339e-121
5.85473e-123
2.28091e-124
8.77142e-126
3.32967e-127
1.2477e-128
4.61535e-130
1.68536e-131
6.07552e-133
2.16212e-134
7.59603e-136
2.63455e-137
9.02067e-139
3.04917e-140
1.01749e-141
3.3518e-143
1.08996e-144
3.49876e-146
1.1086e-147
3.46727e-149
1.07042e-150
3.26228e-152
9.81686e-154
2.9182e-155
8.57969e-157
5.39667e-13
2.42343e-11
5.44283e-10
7.78318e-09
8.12768e-08
6.65191e-07
4.44746e-06
2.49754e-05
0.00012041
0.000506411
0.0018789
0.00620373
0.0183885
0.0493899
0.12118
0.201361
0.264824
0.302469
0.339996
0.362127
0.377675
0.391625
0.409677
0.450284
0.503665
0.565724
0.633589
0.693746
0.729591
0.730074
0.643536
0.468613
0.287188
0.166996
0.0892731
0.0448975
0.02125
0.00947974
0.00399515
0.00159442
0.000604023
0.00021773
7.4852e-05
2.45958e-05
7.74063e-06
2.33761e-06
6.78572e-07
1.89644e-07
5.11013e-08
1.3294e-08
3.3431e-09
8.13587e-10
1.91814e-10
4.38528e-11
9.73083e-12
2.09749e-12
4.39529e-13
8.96032e-14
1.77829e-14
3.43794e-15
6.4784e-16
1.19056e-16
2.13487e-17
3.73717e-18
6.38946e-19
1.06739e-19
1.74301e-20
2.78331e-21
4.34775e-22
6.64602e-23
9.94477e-24
1.45713e-24
2.09124e-25
2.94058e-26
4.05228e-27
5.47414e-28
7.25085e-29
9.4193e-30
1.20033e-30
1.50082e-31
1.84157e-32
2.21802e-33
2.62265e-34
3.04502e-35
3.47207e-36
3.88871e-37
4.27869e-38
4.62562e-39
4.91412e-40
5.13096e-41
5.26608e-42
5.31337e-43
5.27108e-44
5.14198e-45
4.93303e-46
4.65479e-47
4.32053e-48
3.94523e-49
3.54447e-50
3.13342e-51
2.72596e-52
2.33397e-53
1.96692e-54
1.63168e-55
1.33254e-56
1.07142e-57
8.48234e-59
6.61287e-60
5.08004e-61
3.84585e-62
2.86934e-63
2.10985e-64
1.52905e-65
1.09223e-66
7.69026e-68
5.33736e-69
3.65163e-70
2.46285e-71
1.63757e-72
1.07346e-73
6.93766e-75
4.42079e-76
2.77756e-77
1.72076e-78
1.05121e-79
6.33258e-81
3.76198e-82
2.204e-83
1.27344e-84
7.25669e-86
4.07851e-87
2.26091e-88
1.23623e-89
6.66753e-91
3.54725e-92
1.86164e-93
9.63804e-95
4.92249e-96
2.48026e-97
1.23294e-98
6.04679e-100
2.92593e-101
1.39692e-102
6.58049e-104
3.0587e-105
1.40288e-106
6.34923e-108
2.83563e-109
1.24974e-110
5.43549e-112
2.33304e-113
9.88283e-115
4.13168e-116
1.70478e-117
6.94257e-119
2.79056e-120
1.10711e-121
4.33545e-123
1.67582e-124
6.39414e-126
2.40829e-127
8.95396e-129
3.28633e-130
1.19071e-131
4.25895e-133
1.50388e-134
5.24249e-136
1.80419e-137
6.12985e-139
2.05608e-140
6.80849e-142
2.22577e-143
7.18339e-145
2.28874e-146
7.19941e-148
2.23592e-149
6.85718e-151
2.07718e-152
6.21817e-154