/*--------------------------------*- C++ -*----------------------------------*\
  =========                 |
  \\      /  F ield         | OpenFOAM: The Open Source CFD Toolbox
   \\    /   O peration     | Website:  https://openfoam.org
    \\  /    A nd           | Version:  7
     \\/     M anipulation  |
\*---------------------------------------------------------------------------*/
FoamFile
{
    version     2.0;
    format      ascii;
    class       volVectorField;
    location    "0.01";
    object      U;
}
// * * * * * * * * * * * * * * * * * * * * * * * * * * * * * * * * * * * * * //

dimensions      [0 1 -1 0 0 0 0];

internalField   nonuniform List<vector> 
12225
(
(4.785 0.142273 0)
(4.14067 0.104185 0)
(3.66413 0.0926202 0)
(3.29277 0.0770993 0)
(2.97774 0.0635237 0)
(2.70348 0.0560466 0)
(2.44663 0.0521102 0)
(2.20539 0.0439269 0)
(2.00028 0.0303164 0)
(1.83927 0.0157325 0)
(1.73107 0.00451837 0)
(1.6586 -0.00144705 0)
(1.62259 -0.00559461 0)
(1.61277 -0.00471398 0)
(1.60499 -0.00861694 0)
(1.65405 -0.0095955 0)
(1.64364 -0.0110764 0)
(1.75966 -0.0140256 0)
(4.9493 0.130576 0)
(4.79738 0.0902971 0)
(4.69296 0.0986192 0)
(4.60159 0.0913008 0)
(4.51851 0.081645 0)
(4.44885 0.0743566 0)
(4.38305 0.0727826 0)
(4.31391 0.0736253 0)
(4.24199 0.0707693 0)
(4.16217 0.0622873 0)
(4.07888 0.0494201 0)
(3.99604 0.0356021 0)
(3.92737 0.0213129 0)
(3.88169 0.00871895 0)
(3.85501 -0.00309419 0)
(3.85855 -0.012915 0)
(3.86186 -0.0194197 0)
(3.90349 -0.0225761 0)
(4.97811 0.161719 0)
(4.88679 0.108717 0)
(4.77971 0.124794 0)
(4.72686 0.121381 0)
(4.71909 0.102867 0)
(4.71889 0.0891954 0)
(4.71531 0.086669 0)
(4.71839 0.0873976 0)
(4.73137 0.0831901 0)
(4.74248 0.0744058 0)
(4.74024 0.0638842 0)
(4.72114 0.0528967 0)
(4.6933 0.038383 0)
(4.66488 0.0216392 0)
(4.64514 0.004252 0)
(4.63768 -0.0122324 0)
(4.64142 -0.0241252 0)
(4.65033 -0.0388556 0)
(4.96859 0.199514 0)
(4.83585 0.125457 0)
(4.7621 0.132747 0)
(4.76535 0.117775 0)
(4.79014 0.0952536 0)
(4.79433 0.0818624 0)
(4.77975 0.0748665 0)
(4.76807 0.0672585 0)
(4.77009 0.0588667 0)
(4.78055 0.0535928 0)
(4.79107 0.051554 0)
(4.79707 0.0488858 0)
(4.80028 0.0408536 0)
(4.80284 0.0258791 0)
(4.8058 0.00754978 0)
(4.80815 -0.0125301 0)
(4.81017 -0.0293599 0)
(4.81075 -0.0430059 0)
(4.97024 0.213711 0)
(4.88032 0.151506 0)
(4.79962 0.133326 0)
(4.77138 0.112853 0)
(4.78272 0.0942383 0)
(4.80802 0.0876023 0)
(4.82398 0.0886394 0)
(4.81971 0.0868979 0)
(4.79882 0.0789649 0)
(4.77446 0.068504 0)
(4.76057 0.058417 0)
(4.76401 0.0476475 0)
(4.78195 0.0343281 0)
(4.80389 0.0182245 0)
(4.82136 0.00166713 0)
(4.83034 -0.0138956 0)
(4.83116 -0.0265894 0)
(4.8272 -0.0378151 0)
(4.91247 0.229873 0)
(4.87256 0.143304 0)
(4.8608 0.135686 0)
(4.83388 0.120104 0)
(4.81502 0.0937884 0)
(4.81278 0.0763139 0)
(4.81677 0.0736451 0)
(4.81339 0.0771022 0)
(4.7993 0.0770186 0)
(4.78192 0.0699841 0)
(4.77182 0.0571766 0)
(4.77319 0.0416234 0)
(4.78344 0.0249993 0)
(4.79606 0.00841089 0)
(4.80674 -0.00593802 0)
(4.81386 -0.0186385 0)
(4.82089 -0.0305986 0)
(4.82811 -0.0419252 0)
(4.97279 0.258703 0)
(4.88292 0.180696 0)
(4.85835 0.146402 0)
(4.85296 0.126813 0)
(4.85968 0.101338 0)
(4.86957 0.0851058 0)
(4.8723 0.0852855 0)
(4.86469 0.0916651 0)
(4.85007 0.0911611 0)
(4.83362 0.0799162 0)
(4.82077 0.0615727 0)
(4.81476 0.041131 0)
(4.81602 0.0227517 0)
(4.82241 0.00715142 0)
(4.8334 -0.00690656 0)
(4.84662 -0.0200445 0)
(4.86241 -0.0330317 0)
(4.87644 -0.0452299 0)
(4.96934 0.253916 0)
(4.97626 0.164847 0)
(4.90659 0.130682 0)
(4.85661 0.115413 0)
(4.84285 0.095016 0)
(4.84738 0.0794471 0)
(4.85564 0.078736 0)
(4.86128 0.0862479 0)
(4.8615 0.0896646 0)
(4.85495 0.0824422 0)
(4.84375 0.0657726 0)
(4.83235 0.0442026 0)
(4.82621 0.021051 0)
(4.82717 -0.000858905 0)
(4.8366 -0.0202894 0)
(4.85112 -0.0365644 0)
(4.8707 -0.0502646 0)
(4.88969 -0.0606121 0)
(4.96545 0.2555 0)
(4.94178 0.198064 0)
(4.9071 0.17474 0)
(4.87093 0.137984 0)
(4.84897 0.0983484 0)
(4.84321 0.0764798 0)
(4.85592 0.0764209 0)
(4.88358 0.0869335 0)
(4.91604 0.0938199 0)
(4.94198 0.0893896 0)
(4.95521 0.0734847 0)
(4.9553 0.0505516 0)
(4.94738 0.0257163 0)
(4.93725 0.00185209 0)
(4.93166 -0.0197841 0)
(4.93229 -0.0387551 0)
(4.94137 -0.0554145 0)
(4.95396 -0.0685759 0)
(5.03822 0.267256 0)
(4.99069 0.189908 0)
(4.95814 0.165524 0)
(4.91287 0.145074 0)
(4.86442 0.114549 0)
(4.84248 0.0843687 0)
(4.85357 0.0655203 0)
(4.88323 0.060034 0)
(4.9148 0.0615961 0)
(4.93678 0.0628781 0)
(4.94514 0.0598231 0)
(4.94366 0.0501032 0)
(4.93985 0.0328857 0)
(4.93988 0.00939543 0)
(4.94605 -0.0173838 0)
(4.95797 -0.0433877 0)
(4.97309 -0.066254 0)
(4.98983 -0.0832545 0)
(4.96947 0.213292 0)
(4.98121 0.202365 0)
(4.96987 0.190881 0)
(4.95223 0.164833 0)
(4.93693 0.118495 0)
(4.9331 0.0756388 0)
(4.93768 0.0543196 0)
(4.94165 0.0549437 0)
(4.93939 0.0653574 0)
(4.9321 0.0722995 0)
(4.92602 0.0680391 0)
(4.92621 0.0514911 0)
(4.934 0.0258552 0)
(4.94634 -0.00373015 0)
(4.95904 -0.0326818 0)
(4.96876 -0.0571978 0)
(4.97522 -0.0771064 0)
(4.97945 -0.0922018 0)
(4.88408 0.263502 0)
(4.90255 0.185703 0)
(4.94619 0.179712 0)
(4.96739 0.166221 0)
(4.97149 0.128741 0)
(4.96916 0.0885107 0)
(4.95865 0.0644408 0)
(4.94042 0.0608664 0)
(4.92262 0.0678042 0)
(4.91511 0.0717968 0)
(4.92343 0.0650988 0)
(4.94578 0.046909 0)
(4.97436 0.0211608 0)
(4.99965 -0.00656084 0)
(5.01672 -0.0329623 0)
(5.02432 -0.0558081 0)
(5.02662 -0.0758482 0)
(5.0261 -0.0935998 0)
(4.97388 0.225624 0)
(4.99663 0.171657 0)
(4.94611 0.175116 0)
(4.92371 0.151759 0)
(4.93453 0.109035 0)
(4.94379 0.0771186 0)
(4.93208 0.0680446 0)
(4.90847 0.0739802 0)
(4.89236 0.0784 0)
(4.89707 0.06979 0)
(4.92222 0.0476924 0)
(4.9576 0.0188054 0)
(4.99189 -0.00932016 0)
(5.01767 -0.0318765 0)
(5.03336 -0.048829 0)
(5.04043 -0.0622746 0)
(5.04429 -0.0758336 0)
(5.04703 -0.091401 0)
(4.99554 0.146513 0)
(4.95957 0.179659 0)
(4.94092 0.202531 0)
(4.95424 0.164628 0)
(4.971 0.120798 0)
(4.96996 0.0961493 0)
(4.95717 0.0889774 0)
(4.94993 0.085637 0)
(4.9586 0.0742332 0)
(4.98074 0.0525693 0)
(5.006 0.0257557 0)
(5.02426 0.000265079 0)
(5.03131 -0.0201132 0)
(5.02942 -0.0360223 0)
(5.02654 -0.0504599 0)
(5.02739 -0.0662185 0)
(5.03653 -0.0851785 0)
(5.05062 -0.106208 0)
(4.99073 0.19147 0)
(4.97546 0.21281 0)
(4.97313 0.201293 0)
(4.97426 0.138738 0)
(4.98426 0.092336 0)
(4.99605 0.07659 0)
(5.01098 0.0745404 0)
(5.02772 0.0681575 0)
(5.04117 0.0518491 0)
(5.04686 0.0307766 0)
(5.04324 0.012558 0)
(5.03234 -0.00051355 0)
(5.02067 -0.0113837 0)
(5.01482 -0.0250567 0)
(5.01897 -0.0445415 0)
(5.03279 -0.0693279 0)
(5.05319 -0.097226 0)
(5.07526 -0.122516 0)
(5.03312 0.228252 0)
(5.0307 0.177641 0)
(5.05259 0.182673 0)
(5.05738 0.155854 0)
(5.0392 0.112491 0)
(5.00926 0.082257 0)
(4.99133 0.0700488 0)
(4.989 0.0667969 0)
(4.99344 0.0641635 0)
(4.9971 0.0583051 0)
(4.99687 0.0468782 0)
(4.99306 0.0274093 0)
(4.98889 -0.00145201 0)
(4.98773 -0.0380943 0)
(4.99087 -0.0779676 0)
(4.99783 -0.115073 0)
(5.00681 -0.145945 0)
(5.01627 -0.166252 0)
(4.99719 0.341713 0)
(4.97121 0.233774 0)
(4.95071 0.172934 0)
(4.93846 0.148838 0)
(4.93098 0.132841 0)
(4.92358 0.115408 0)
(4.92893 0.0900101 0)
(4.95012 0.0591813 0)
(4.97922 0.0319313 0)
(5.00964 0.0147915 0)
(5.03888 0.00708354 0)
(5.06515 0.00233756 0)
(5.08665 -0.0067268 0)
(5.1022 -0.0245437 0)
(5.11059 -0.0510625 0)
(5.11105 -0.082791 0)
(5.1048 -0.115223 0)
(5.09295 -0.144595 0)
(5.02427 0.315982 0)
(5.01438 0.255335 0)
(5.014 0.200697 0)
(5.00806 0.173434 0)
(5.01196 0.136293 0)
(5.01827 0.0850171 0)
(5.02725 0.0360933 0)
(5.03846 0.00243572 0)
(5.04826 -0.0143415 0)
(5.05485 -0.0219511 0)
(5.05844 -0.0301601 0)
(5.05985 -0.0442434 0)
(5.06003 -0.063161 0)
(5.05902 -0.0825726 0)
(5.05794 -0.0982674 0)
(5.05654 -0.108763 0)
(5.05539 -0.114602 0)
(5.05354 -0.118612 0)
(5.04912 0.243615 0)
(5.03974 0.26415 0)
(5.04532 0.209385 0)
(5.06639 0.146237 0)
(5.08732 0.111954 0)
(5.09086 0.091227 0)
(5.08444 0.0647931 0)
(5.07703 0.0331418 0)
(5.069 0.00891293 0)
(5.06038 1.34781e-05 0)
(5.05361 0.00310359 0)
(5.04957 0.00782023 0)
(5.04811 0.00414772 0)
(5.04872 -0.0123271 0)
(5.05123 -0.0404061 0)
(5.05493 -0.0748448 0)
(5.06005 -0.111019 0)
(5.06563 -0.143521 0)
(5.03548 0.4176 0)
(5.03882 0.279821 0)
(5.03429 0.155514 0)
(5.02559 0.114237 0)
(5.01779 0.103087 0)
(5.01946 0.0841082 0)
(5.03102 0.0574889 0)
(5.0395 0.0346549 0)
(5.03857 0.0196921 0)
(5.03347 0.0081666 0)
(5.03234 -0.00709796 0)
(5.03887 -0.0292094 0)
(5.05147 -0.0555854 0)
(5.06681 -0.0819256 0)
(5.08117 -0.104861 0)
(5.09143 -0.123127 0)
(5.09609 -0.136887 0)
(5.09459 -0.147826 0)
(4.938 0.270008 0)
(5.00101 0.210244 0)
(5.05189 0.188523 0)
(5.09134 0.162421 0)
(5.10369 0.123021 0)
(5.10345 0.0784332 0)
(5.1002 0.0424145 0)
(5.09721 0.0219899 0)
(5.09815 0.0130051 0)
(5.10392 0.00546336 0)
(5.11108 -0.00853002 0)
(5.1153 -0.0308496 0)
(5.11355 -0.0574932 0)
(5.1048 -0.0828332 0)
(5.09226 -0.103139 0)
(5.07953 -0.1178 0)
(5.07004 -0.128099 0)
(5.06424 -0.136437 0)
(5.00139 0.219371 0)
(4.96631 0.162634 0)
(4.99152 0.105928 0)
(5.03762 0.0834121 0)
(5.07412 0.0830284 0)
(5.09293 0.0813488 0)
(5.10308 0.0668557 0)
(5.1108 0.0425276 0)
(5.12089 0.016619 0)
(5.13522 -0.00596611 0)
(5.151 -0.0208592 0)
(5.16419 -0.0289922 0)
(5.17291 -0.0354184 0)
(5.17711 -0.0451512 0)
(5.17867 -0.0607174 0)
(5.17807 -0.0813417 0)
(5.1769 -0.104929 0)
(5.17323 -0.127459 0)
(5.04459 0.244322 0)
(5.07856 0.161275 0)
(5.08778 0.109396 0)
(5.10523 0.0925481 0)
(5.12148 0.073778 0)
(5.13716 0.0484845 0)
(5.15243 0.0223477 0)
(5.163 -0.000636863 0)
(5.16565 -0.0182411 0)
(5.1663 -0.0317432 0)
(5.17351 -0.0452723 0)
(5.18861 -0.0601636 0)
(5.20917 -0.0756462 0)
(5.23121 -0.0907966 0)
(5.25025 -0.104334 0)
(5.26243 -0.115504 0)
(5.26596 -0.123464 0)
(5.26029 -0.128298 0)
(4.97438 0.189807 0)
(4.99662 0.129714 0)
(5.04356 0.0916527 0)
(5.08893 0.0734562 0)
(5.12554 0.0667902 0)
(5.16086 0.0603445 0)
(5.19315 0.0495608 0)
(5.22014 0.033471 0)
(5.24261 0.0106604 0)
(5.25865 -0.0146658 0)
(5.26661 -0.0399583 0)
(5.26667 -0.0626446 0)
(5.25871 -0.0801119 0)
(5.24323 -0.0912364 0)
(5.22313 -0.0968205 0)
(5.20216 -0.098803 0)
(5.18356 -0.0992592 0)
(5.16982 -0.0999475 0)
(5.07567 0.175008 0)
(5.09943 0.101786 0)
(5.14876 0.0586911 0)
(5.17893 0.0363945 0)
(5.2033 0.0138521 0)
(5.23298 -0.00996334 0)
(5.26216 -0.0284687 0)
(5.28027 -0.0397988 0)
(5.28608 -0.0470316 0)
(5.28556 -0.0533985 0)
(5.28276 -0.057866 0)
(5.27912 -0.0600055 0)
(5.27522 -0.0609681 0)
(5.27107 -0.0630211 0)
(5.26737 -0.0683565 0)
(5.26406 -0.0775736 0)
(5.26209 -0.0901699 0)
(5.26013 -0.103872 0)
(5.02667 0.188717 0)
(5.10364 0.0751524 0)
(5.15694 0.0670589 0)
(5.18952 0.0630915 0)
(5.21595 0.0401876 0)
(5.24319 0.0188911 0)
(5.27157 0.011942 0)
(5.29916 0.0107378 0)
(5.32407 0.00438225 0)
(5.3447 -0.0108637 0)
(5.36107 -0.0309961 0)
(5.37411 -0.0501402 0)
(5.38469 -0.0649476 0)
(5.39267 -0.0749932 0)
(5.39755 -0.0813968 0)
(5.39873 -0.0858334 0)
(5.39687 -0.0895252 0)
(5.39215 -0.093458 0)
(5.07669 0.164696 0)
(5.1471 0.0480961 0)
(5.2217 0.0248582 0)
(5.2862 0.00591296 0)
(5.31807 -0.0221513 0)
(5.33514 -0.0466512 0)
(5.35702 -0.0611993 0)
(5.38371 -0.0677241 0)
(5.40625 -0.0718896 0)
(5.41898 -0.0760142 0)
(5.42236 -0.0792978 0)
(5.42044 -0.0807043 0)
(5.41745 -0.0803265 0)
(5.41556 -0.0793701 0)
(5.41578 -0.0796556 0)
(5.41769 -0.0826527 0)
(5.4213 -0.0888849 0)
(5.42556 -0.0981652 0)
(4.98471 0.13842 0)
(5.16685 0.0548841 0)
(5.31732 0.0437627 0)
(5.38896 0.028532 0)
(5.4226 0.00823193 0)
(5.44168 -0.00753248 0)
(5.44908 -0.0147383 0)
(5.44783 -0.0160496 0)
(5.44716 -0.0172021 0)
(5.45482 -0.0227198 0)
(5.47067 -0.0331559 0)
(5.48919 -0.0462335 0)
(5.50457 -0.0590555 0)
(5.51376 -0.0699384 0)
(5.51652 -0.0784487 0)
(5.51426 -0.0853246 0)
(5.50884 -0.0913147 0)
(5.50116 -0.0967851 0)
(4.98172 0.0607489 0)
(5.21609 -0.0454615 0)
(5.33209 -0.0331193 0)
(5.38252 -0.0387956 0)
(5.40793 -0.054276 0)
(5.42421 -0.0628836 0)
(5.44089 -0.0633876 0)
(5.46091 -0.0650342 0)
(5.48122 -0.0733992 0)
(5.49496 -0.0855107 0)
(5.49491 -0.0947406 0)
(5.47859 -0.0971623 0)
(5.44851 -0.0933896 0)
(5.41038 -0.0870383 0)
(5.36831 -0.0820413 0)
(5.32541 -0.0808798 0)
(5.28115 -0.0838754 0)
(5.23665 -0.0902137 0)
(4.98735 0.0631108 0)
(5.13507 -0.000497333 0)
(5.11136 0.00124263 0)
(5.01613 -0.00781161 0)
(4.89886 -0.0155755 0)
(4.76955 -0.0218292 0)
(4.63734 -0.0276438 0)
(4.5034 -0.0312644 0)
(4.36333 -0.0318882 0)
(4.21469 -0.030729 0)
(4.06044 -0.0295891 0)
(3.90808 -0.029494 0)
(3.76412 -0.0304734 0)
(3.63119 -0.0322107 0)
(3.50687 -0.0343558 0)
(3.38768 -0.0365765 0)
(3.26853 -0.0381912 0)
(3.14915 -0.0388977 0)
(-0.0244723 0.0530707 -2.74013e-20)
(-0.0789323 0.0567853 2.72027e-20)
(-0.133595 0.0563118 0)
(-0.188799 0.0562241 0)
(-0.243647 0.0558704 0)
(-0.298435 0.0552931 -2.63872e-20)
(-0.352563 0.0544864 0)
(-0.405919 0.0533923 0)
(-0.458065 0.0519602 0)
(-0.508698 0.0501383 0)
(-0.557393 0.0479023 2.53757e-20)
(-0.603719 0.0452177 0)
(-0.647199 0.0420731 0)
(-0.687298 0.0384755 0)
(-0.723542 0.0344148 0)
(-0.755417 0.0299314 2.43636e-20)
(-0.782404 0.0250537 0)
(-0.80404 0.0198025 0)
(-0.81987 0.0142659 0)
(-0.829522 0.00851547 0)
(-0.832697 0.00264578 0)
(-0.829156 -0.00321323 0)
(-0.818761 -0.0090473 0)
(-0.801542 -0.0147642 2.2715e-20)
(-0.777477 -0.0203285 -2.25058e-20)
(-0.746688 -0.0256716 2.22964e-20)
(-0.709401 -0.0307094 2.20868e-20)
(-0.665833 -0.0354234 0)
(-0.616425 -0.0397671 0)
(-0.561536 -0.043598 -2.14596e-20)
(-0.501636 -0.0470427 -2.12517e-20)
(-0.437357 -0.0499861 0)
(-0.369065 -0.0523685 0)
(-0.297384 -0.0543283 -2.0635e-20)
(-0.222977 -0.0557733 0)
(-0.146311 -0.0567928 0)
(-0.0679485 -0.0573341 2.00323e-20)
(0.011565 -0.0574815 0)
(0.0917337 -0.0572617 1.9631e-20)
(0.172113 -0.0567085 3.88615e-20)
(0.25228 -0.0558599 0)
(0.331852 -0.054754 0)
(0.410486 -0.0534282 0)
(0.487879 -0.0519188 0)
(0.563772 -0.0502601 0)
(0.637941 -0.0484838 3.6557e-20)
(0.710201 -0.0466193 3.6189e-20)
(0.780401 -0.044693 3.58253e-20)
(0.848421 -0.0427283 0)
(0.914171 -0.040746 -3.51104e-20)
(0.977583 -0.0387642 0)
(1.03862 -0.0367982 3.44111e-20)
(1.09725 -0.0348612 3.4067e-20)
(1.15348 -0.0329639 0)
(1.20732 -0.0311152 0)
(1.25879 -0.0293223 0)
(1.30793 -0.0275905 3.27242e-20)
(1.35478 -0.0259239 0)
(1.39939 -0.0243253 0)
(1.44183 -0.0227965 0)
(1.48216 -0.0213384 0)
(1.52044 -0.0199511 0)
(1.55675 -0.0186341 0)
(1.59115 -0.0173867 0)
(1.62373 -0.0162072 0)
(1.65455 -0.0150942 -2.98697e-20)
(1.68369 -0.0140454 0)
(1.71121 -0.0130587 0)
(1.7372 -0.0121318 2.89618e-20)
(1.76172 -0.011262 2.86636e-20)
(1.78484 -0.0104468 0)
(1.80662 -0.00968353 -2.80734e-20)
(1.82714 -0.00896966 2.77814e-20)
(1.84645 -0.00830254 0)
(1.86462 -0.00767962 -2.72035e-20)
(1.8817 -0.00709839 0)
(1.89776 -0.00655643 0)
(1.91283 -0.00605137 2.63513e-20)
(1.92699 -0.00558097 0)
(1.94026 -0.00514306 -2.57927e-20)
(1.95271 -0.00473557 0)
(1.96438 -0.00435653 2.52416e-20)
(1.97531 -0.00400408 2.49688e-20)
(1.98554 -0.00367647 2.46978e-20)
(1.9951 -0.003372 4.88574e-20)
(2.00405 -0.00308912 -4.83227e-20)
(2.0124 -0.0028264 0)
(2.0202 -0.00258237 0)
(2.02747 -0.00235573 0)
(2.03425 -0.00214546 -4.62193e-20)
(2.04056 -0.00195009 -4.57022e-20)
(2.04643 -0.0017685 4.51885e-20)
(2.05189 -0.00160045 0)
(2.05695 -0.00144411 -4.41715e-20)
(2.06165 -0.00129794 -4.3668e-20)
(2.06599 -0.00116365 -4.3168e-20)
(2.07001 -0.00103882 0)
(2.07373 -0.000919471 0)
(2.07714 -0.00081115 0)
(2.08029 -0.000712064 -4.12009e-20)
(2.08318 -0.000611503 0)
(2.08581 -0.000519763 0)
(2.08823 -0.000436662 3.97598e-20)
(2.09041 -0.000338378 0)
(2.09236 -0.00022666 0)
(2.09407 -0.000112166 3.83475e-20)
(2.09556 -4.17034e-06 0)
(2.09683 9.37418e-05 0)
(2.09791 0.000179188 -3.69632e-20)
(2.0988 0.000247921 -3.6508e-20)
(2.09954 0.000298494 0)
(2.10014 0.00033274 3.56065e-20)
(2.10062 0.000354685 0)
(2.10101 0.000368743 -3.4717e-20)
(2.1013 0.000378421 0)
(2.1015 0.000385889 -3.38393e-20)
(2.10163 0.000392277 -3.34048e-20)
(2.10168 0.000398044 0)
(2.10166 0.000403378 0)
(2.10157 0.000408342 0)
(2.10142 0.000412984 0)
(2.10121 0.000417331 0)
(2.10094 0.000421398 0)
(2.10062 0.000425198 0)
(2.10025 0.000428751 -3.00305e-20)
(2.09983 0.000432072 2.96211e-20)
(2.09936 0.000435189 0)
(2.09886 0.000438108 0)
(2.09831 0.000440853 0)
(2.09772 0.000443437 0)
(2.0971 0.000445884 5.52268e-20)
(2.09644 0.000448189 0)
(2.09575 0.000450363 -5.36567e-20)
(2.09503 0.000452401 5.28792e-20)
(2.09428 0.000454329 0)
(2.0935 0.000456159 0)
(2.09269 0.00045792 0)
(2.09186 0.000459615 -4.98185e-20)
(2.091 0.000461266 -4.90654e-20)
(2.09012 0.000462874 0)
(2.08921 0.00046446 -4.75733e-20)
(2.08828 0.000466029 -4.68343e-20)
(2.08733 0.000467601 4.60998e-20)
(2.08635 0.000469194 0)
(2.08536 0.00047083 0)
(2.08434 0.000472531 4.39236e-20)
(2.0833 0.000474324 0)
(2.08224 0.000476246 0)
(2.08116 0.000478343 0)
(2.08005 0.000480666 0)
(2.07893 0.000483271 -4.03842e-20)
(2.07778 0.000486227 -3.9689e-20)
(2.0766 0.000489622 0)
(2.0754 0.000493572 -3.83109e-20)
(2.07418 0.000498221 0)
(2.07292 0.000503754 0)
(2.07162 0.000510392 -3.62739e-20)
(2.07029 0.000518431 0)
(2.06892 0.000528219 -3.49354e-20)
(2.06749 0.000540266 0)
(2.06601 0.000555081 0)
(2.06445 0.00057368 -3.2956e-20)
(2.06281 0.00059653 0)
(2.06106 0.000626215 -3.16548e-20)
(2.05917 0.000661717 0)
(2.05713 0.000711107 0)
(2.05487 0.000766522 0)
(2.05238 0.000850746 2.90944e-20)
(2.04944 0.000944481 0)
(2.04629 0.00107511 -2.78343e-20)
(2.04208 0.00128482 0)
(2.03789 0.00141061 0)
(2.03135 0.00201697 0)
(2.02499 0.0019102 0)
(2.01454 0.0037001 0)
(2.00222 0.00273975 0)
(1.98581 0.00826163 0)
(1.9529 0.00446709 4.58169e-20)
(1.92907 0.0258131 0)
(1.80995 0.0196581 0)
(-0.0257312 0.167612 8.22208e-20)
(-0.0868504 0.179231 -8.16228e-20)
(-0.145314 0.176322 0)
(-0.20493 0.175186 5.36058e-20)
(-0.263575 0.172874 0)
(-0.321606 0.169708 2.63824e-20)
(-0.378347 0.165686 -5.23862e-20)
(-0.433658 0.16074 -5.19815e-20)
(-0.4871 0.154784 0)
(-0.538344 0.147748 -5.1174e-20)
(-0.587006 0.139586 -2.53714e-20)
(-0.632718 0.130252 0)
(-0.675037 0.119727 0)
(-0.713573 0.107998 0)
(-0.747934 0.0950821 0)
(-0.777672 0.0810467 -2.43615e-20)
(-0.802445 0.0659473 0)
(-0.821811 0.0498769 4.79379e-20)
(-0.83535 0.0329902 0)
(-0.842767 0.0154579 0)
(-0.843779 -0.00254788 -4.6706e-20)
(-0.837946 -0.0207626 0)
(-0.824919 -0.039 4.5872e-20)
(-0.804721 -0.0570175 -2.27146e-20)
(-0.777359 -0.0745926 2.25053e-20)
(-0.742885 -0.0914856 -2.22957e-20)
(-0.701607 -0.107481 -2.2086e-20)
(-0.653799 -0.12241 0)
(-0.599753 -0.136114 0)
(-0.540028 -0.148418 2.14586e-20)
(-0.475184 -0.159277 -2.12651e-20)
(-0.405613 -0.168612 0)
(-0.331976 -0.176396 0)
(-0.254899 -0.18264 2.06344e-20)
(-0.174985 -0.187386 0)
(-0.0927367 -0.190683 0)
(-0.00871014 -0.192623 -2.00304e-20)
(0.0764306 -0.193302 0)
(0.162263 -0.192825 1.96314e-20)
(0.248331 -0.191305 -3.88491e-20)
(0.334204 -0.188859 0)
(0.419497 -0.185604 0)
(0.503869 -0.181655 -7.53597e-20)
(0.587021 -0.177122 -7.45955e-20)
(0.668696 -0.172109 -7.38408e-20)
(0.748674 -0.166711 3.65514e-20)
(0.826772 -0.161018 -3.61757e-20)
(0.902841 -0.155107 -1.07443e-19)
(0.976762 -0.149051 7.09115e-20)
(1.04844 -0.142911 3.5097e-20)
(1.11782 -0.136743 0)
(1.18484 -0.130594 -3.43977e-20)
(1.24949 -0.124503 3.4059e-20)
(1.31176 -0.118505 0)
(1.37164 -0.112628 0)
(1.42917 -0.106894 0)
(1.48437 -0.101323 -3.27107e-20)
(1.53727 -0.0959265 0)
(1.58792 -0.0907168 6.41197e-20)
(1.63636 -0.0857009 0)
(1.68267 -0.0808835 6.28358e-20)
(1.72689 -0.0762673 0)
(1.76908 -0.0718529 -6.1573e-20)
(1.80931 -0.0676394 0)
(1.84765 -0.0636245 6.033e-20)
(1.88415 -0.0598048 -2.98593e-20)
(1.91889 -0.0561761 0)
(1.95192 -0.0527334 -5.85006e-20)
(1.98333 -0.0494711 -2.89487e-20)
(2.01316 -0.0463833 -2.86505e-20)
(2.04148 -0.0434635 0)
(2.06836 -0.0407054 -2.80625e-20)
(2.09385 -0.0381022 -2.77685e-20)
(2.11801 -0.0356474 0)
(2.14091 -0.0333341 2.71907e-20)
(2.1626 -0.0311559 -5.38111e-20)
(2.18313 -0.0291061 0)
(2.20256 -0.0271784 -2.63387e-20)
(2.22093 -0.0253666 0)
(2.2383 -0.0236645 7.73423e-20)
(2.25471 -0.0220665 0)
(2.27022 -0.0205667 -7.56895e-20)
(2.28485 -0.0191598 -2.49568e-20)
(2.29866 -0.0178406 2.46869e-20)
(2.31169 -0.0166042 4.88356e-20)
(2.32397 -0.0154457 -4.83011e-20)
(2.33554 -0.0143606 0)
(2.34644 -0.0133447 0)
(2.3567 -0.0123938 0)
(2.36636 -0.0115041 1.38592e-19)
(2.37545 -0.010672 4.56802e-20)
(2.38399 -0.00989368 -4.51669e-20)
(2.39202 -0.00916632 0)
(2.39956 -0.00848674 -4.41514e-20)
(2.40664 -0.00785135 4.36473e-20)
(2.41328 -0.00725839 4.31475e-20)
(2.41951 -0.00670524 0)
(2.42535 -0.0061876 0)
(2.43082 -0.00570521 0)
(2.43594 -0.00525586 4.11816e-20)
(2.44073 -0.00483312 0)
(2.44522 -0.00443987 -8.04371e-20)
(2.4494 -0.00407292 -1.19225e-19)
(2.45332 -0.00371978 7.85361e-20)
(2.45701 -0.0033868 0)
(2.46048 -0.00307924 3.83304e-20)
(2.46376 -0.00278999 0)
(2.46685 -0.0025155 7.48095e-20)
(2.46976 -0.00225975 -3.69468e-20)
(2.47252 -0.00202793 -3.64918e-20)
(2.47511 -0.00182079 0)
(2.47756 -0.00163661 -1.06772e-19)
(2.47985 -0.0014718 7.02894e-20)
(2.482 -0.00132238 3.47016e-20)
(2.484 -0.00118507 0)
(2.48586 -0.00105773 3.38244e-20)
(2.48759 -0.000939155 1.00171e-19)
(2.4892 -0.000828751 0)
(2.49068 -0.000726132 6.50606e-20)
(2.49205 -0.000630978 6.42092e-20)
(2.49331 -0.0005429 6.33635e-20)
(2.49448 -0.00046149 0)
(2.49555 -0.000386321 0)
(2.49654 -0.000316979 0)
(2.49744 -0.00025304 -3.00179e-20)
(2.49827 -0.000194125 -2.96086e-20)
(2.49903 -0.000139835 0)
(2.49972 -8.98437e-05 -5.75964e-20)
(2.50035 -4.38011e-05 -5.67938e-20)
(2.50093 -1.42103e-06 0)
(2.50145 3.7608e-05 -5.52042e-20)
(2.50192 7.352e-05 -1.08834e-19)
(2.50235 0.000106573 5.3635e-20)
(2.50273 0.000136959 5.28581e-20)
(2.50307 0.000164914 0)
(2.50338 0.000190613 0)
(2.50365 0.00021428 0)
(2.50389 0.000236067 4.97989e-20)
(2.5041 0.000256168 -4.90463e-20)
(2.50429 0.000274713 -9.65966e-20)
(2.50444 0.000291862 4.7555e-20)
(2.50458 0.000307742 -4.68164e-20)
(2.50469 0.000322489 -4.60823e-20)
(2.50478 0.000336238 0)
(2.50485 0.000349121 0)
(2.5049 0.000361278 4.39073e-20)
(2.50494 0.00037285 0)
(2.50496 0.000383997 0)
(2.50496 0.000394886 -8.35438e-20)
(2.50495 0.000405707 0)
(2.50492 0.000416657 -4.03697e-20)
(2.50487 0.000427969 3.96748e-20)
(2.50481 0.000439909 0)
(2.50474 0.000452809 -3.82974e-20)
(2.50465 0.000467066 0)
(2.50453 0.000483179 0)
(2.5044 0.00050175 3.62614e-20)
(2.50424 0.000523547 -7.11811e-20)
(2.50406 0.000549517 3.49235e-20)
(2.50384 0.000580887 0)
(2.50358 0.000619177 0)
(2.50328 0.000666437 -3.29451e-20)
(2.50292 0.000725124 0)
(2.50247 0.000798765 -3.16444e-20)
(2.50195 0.000891612 0)
(2.50128 0.00100895 0)
(2.5005 0.00116205 0)
(2.49946 0.00134798 -2.9085e-20)
(2.49828 0.00162304 0)
(2.49657 0.00189471 2.78254e-20)
(2.49473 0.00246557 0)
(2.4918 0.0027765 0)
(2.48884 0.00412214 -5.19196e-20)
(2.48356 0.00426535 5.06877e-20)
(2.47858 0.00767135 0)
(2.46837 0.00705277 0)
(2.45957 0.0166534 0)
(2.43778 0.0142001 -1.37419e-19)
(2.423 0.046865 0)
(2.37751 0.0491127 8.6813e-20)
(-0.0255165 0.287558 4.7117e-23)
(-0.0873225 0.307271 1.08875e-19)
(-0.146265 0.301902 0)
(-0.206822 0.299373 -1.07238e-19)
(-0.266563 0.294775 0)
(-0.326007 0.288713 0)
(-0.384482 0.281219 -4.63619e-23)
(-0.44188 0.272202 5.19717e-20)
(-0.49779 0.261565 5.16145e-20)
(-0.551866 0.249226 5.11643e-20)
(-0.603701 0.235107 0)
(-0.652872 0.219135 0)
(-0.698904 0.201259 -5.0003e-20)
(-0.74128 0.18144 -9.91997e-20)
(-0.779452 0.159691 9.83921e-20)
(-0.812903 0.13605 0)
(-0.841118 0.110629 9.67709e-20)
(-0.863515 0.0835977 -4.79302e-20)
(-0.879579 0.0551143 0)
(-0.888919 0.0254631 9.43179e-20)
(-0.891132 -0.00505382 4.66998e-20)
(-0.885799 -0.0360972 -9.26542e-20)
(-0.872699 -0.067229 -4.58642e-20)
(-0.851833 -0.0980638 0)
(-0.823192 -0.128113 9.0126e-20)
(-0.78695 -0.156982 8.92795e-20)
(-0.74346 -0.184294 0)
(-0.693036 -0.209701 8.75859e-20)
(-0.636145 -0.232902 0)
(-0.573342 -0.253763 8.58986e-20)
(-0.505249 -0.272036 4.25053e-20)
(-0.43253 -0.28765 0)
(-0.355717 -0.300639 0)
(-0.275523 -0.310963 0)
(-0.192669 -0.318737 0)
(-0.107705 -0.32402 0)
(-0.0212479 -0.327054 0)
(0.066139 -0.327959 7.93349e-20)
(0.153949 -0.326929 -1.1777e-19)
(0.241728 -0.324166 0)
(0.329057 -0.319873 0)
(0.415563 -0.314252 0)
(0.500923 -0.307499 -1.6004e-23)
(0.584859 -0.299799 7.4582e-20)
(0.667134 -0.291326 1.47669e-19)
(0.747554 -0.282238 -1.46178e-19)
(0.825957 -0.272682 -7.23589e-20)
(0.902217 -0.262787 7.16193e-20)
(0.976237 -0.252669 1.11091e-23)
(1.04795 -0.242429 7.02003e-20)
(1.1173 -0.232157 0)
(1.18426 -0.221926 6.88013e-20)
(1.24882 -0.211802 9.10208e-24)
(1.31099 -0.201837 0)
(1.37079 -0.192076 0)
(1.42824 -0.182554 -6.60885e-20)
(1.48337 -0.1733 0)
(1.53624 -0.164335 0)
(1.58688 -0.155676 6.41271e-20)
(1.63536 -0.147334 1.26952e-19)
(1.68173 -0.139316 -6.28305e-20)
(1.72605 -0.131625 0)
(1.76839 -0.124262 6.15683e-20)
(1.8088 -0.117226 0)
(1.84735 -0.110511 6.03357e-20)
(1.88411 -0.104113 5.97118e-20)
(1.91914 -0.0980247 -1.18213e-19)
(1.95249 -0.0922375 -5.85054e-20)
(1.98424 -0.0867428 0)
(2.01445 -0.0815311 1.14608e-19)
(2.04318 -0.0765924 0)
(2.07048 -0.0719164 1.68367e-19)
(2.09642 -0.0674927 1.11079e-19)
(2.12104 -0.0633109 1.09919e-19)
(2.14442 -0.0593606 -1.08767e-19)
(2.16659 -0.0556313 1.61432e-19)
(2.18761 -0.0521129 0)
(2.20754 -0.0487954 0)
(2.22642 -0.0456691 -1.04237e-19)
(2.24429 -0.0427245 -1.54684e-19)
(2.26121 -0.0399524 0)
(2.27721 -0.0373441 5.04583e-20)
(2.29235 -0.0348909 0)
(2.30665 -0.0325847 -1.48117e-19)
(2.32016 -0.0304176 2.76738e-24)
(2.33292 -0.028382 -2.58047e-24)
(2.34497 -0.0264708 9.55381e-20)
(2.35633 -0.024677 0)
(2.36705 -0.0229942 -9.34354e-20)
(2.37714 -0.0214162 1.93847e-24)
(2.38666 -0.0199367 0)
(2.39562 -0.0185504 0)
(2.40405 -0.0172521 0)
(2.41198 -0.016036 8.82994e-20)
(2.41944 -0.014898 0)
(2.42645 -0.0138339 0)
(2.43303 -0.0128377 0)
(2.43921 -0.0119066 0)
(2.44502 -0.0110374 0)
(2.45046 -0.010224 8.23627e-20)
(2.45556 -0.00946484 0)
(2.46034 -0.00875565 8.04351e-20)
(2.46481 -0.00809242 7.94815e-20)
(2.469 -0.0074779 -7.85342e-20)
(2.47291 -0.00690802 0)
(2.47657 -0.00637592 -7.66586e-20)
(2.48001 -0.00587333 0)
(2.48324 -0.00540474 -7.48079e-20)
(2.48626 -0.00498075 7.38917e-20)
(2.48909 -0.0045949 2.18946e-19)
(2.49173 -0.00424143 0)
(2.4942 -0.00391512 2.1354e-19)
(2.4965 -0.00361054 7.02883e-20)
(2.49864 -0.0033239 0)
(2.50063 -0.00305341 1.37044e-19)
(2.50248 -0.00279854 1.35295e-19)
(2.50421 -0.00255929 -2.00337e-19)
(2.50581 -0.00233563 0)
(2.5073 -0.00212729 -6.50591e-20)
(2.50868 -0.00193375 -6.42078e-20)
(2.50996 -0.00175429 -1.90086e-19)
(2.51115 -0.00158812 0)
(2.51225 -0.00143441 0)
(2.51327 -0.00129235 0)
(2.51422 -0.00116116 -6.00344e-20)
(2.51509 -0.00104008 0)
(2.5159 -0.000928413 0)
(2.51665 -0.000825489 5.75951e-20)
(2.51734 -0.000730677 5.67925e-20)
(2.51798 -0.000643391 0)
(2.51857 -0.000563069 0)
(2.51912 -0.0004892 1.08832e-19)
(2.51962 -0.000421291 0)
(2.52008 -0.000358895 -1.05714e-19)
(2.5205 -0.000301572 -1.0417e-19)
(2.5209 -0.000248934 0)
(2.52126 -0.00020059 0)
(2.52159 -0.000156198 9.95957e-20)
(2.52189 -0.000115418 -1.49147e-26)
(2.52217 -7.79449e-05 -1.50114e-26)
(2.52243 -4.34802e-05 0)
(2.52267 -1.17508e-05 1.87261e-19)
(2.52288 1.75142e-05 0)
(2.52308 4.45813e-05 0)
(2.52326 6.97107e-05 0)
(2.52342 9.31675e-05 -8.78126e-20)
(2.52357 0.000115212 0)
(2.52371 0.000136118 1.69914e-19)
(2.52383 0.000156173 8.35419e-20)
(2.52393 0.000175694 0)
(2.52403 0.000195025 8.07375e-20)
(2.52411 0.00021456 0)
(2.52418 0.000234744 0)
(2.52424 0.000256105 2.29779e-19)
(2.52428 0.000279267 -1.50456e-19)
(2.5243 0.000304994 0)
(2.52431 0.000334229 -1.45042e-19)
(2.52429 0.000368129 7.11794e-20)
(2.52425 0.0004082 0)
(2.52418 0.000456203 0)
(2.52408 0.000514727 0)
(2.52393 0.000586267 1.97666e-19)
(2.52373 0.000675912 0)
(2.52346 0.000786099 6.32872e-20)
(2.5231 0.000929102 0)
(2.52262 0.00110168 0)
(2.52204 0.00134064 0)
(2.5212 0.00160938 0)
(2.52024 0.00203752 0)
(2.5188 0.00243576 0)
(2.5172 0.00328087 1.088e-19)
(2.51467 0.00381066 0)
(2.51197 0.00561878 5.19183e-20)
(2.50746 0.00626668 -1.52061e-19)
(2.50275 0.0103241 0)
(2.49441 0.0112392 0)
(2.486 0.0214036 9.40464e-20)
(2.47083 0.0239777 9.16131e-20)
(2.45664 0.0532319 -8.92152e-20)
(2.43583 0.0667751 -8.68063e-20)
(-0.0260805 0.408892 -1.64685e-19)
(-0.0904691 0.437737 -1.63481e-19)
(-0.152024 0.43059 -1.08211e-19)
(-0.215488 0.427159 -5.37619e-20)
(-0.278242 0.420838 0)
(-0.340906 0.41258 1.05764e-19)
(-0.402837 0.402383 -5.25423e-20)
(-0.463947 0.390069 0)
(-0.523805 0.375487 -5.16019e-20)
(-0.58204 0.358479 0)
(-0.638214 0.338883 1.01727e-19)
(-0.691829 0.316551 0)
(-0.742319 0.291381 4.99903e-20)
(-0.789106 0.263281 9.91746e-20)
(-0.831559 0.232231 -9.83674e-20)
(-0.868987 0.198292 0)
(-0.900732 0.16158 -9.6748e-20)
(-0.926186 0.122338 0)
(-0.944711 0.0808698 0)
(-0.955736 0.0375834 -9.42995e-20)
(-0.958821 -0.007019 0)
(-0.953478 -0.0524001 -1.30676e-22)
(-0.939468 -0.097883 0)
(-0.916757 -0.142823 0)
(-0.885364 -0.186573 1.14371e-22)
(-0.845585 -0.228483 -8.9256e-20)
(-0.797833 -0.267971 -8.85091e-20)
(-0.74255 -0.304554 -8.7562e-20)
(-0.680393 -0.337847 0)
(-0.612059 -0.367482 -1.71829e-19)
(-0.538242 -0.393332 0)
(-0.459746 -0.415234 -8.42685e-20)
(-0.377337 -0.433165 0)
(-0.291765 -0.447268 0)
(-0.203772 -0.457631 8.17881e-20)
(-0.114055 -0.464478 0)
(-0.0232547 -0.468042 -8.01689e-20)
(0.0680507 -0.468608 3.50756e-23)
(0.159336 -0.466458 1.57038e-19)
(0.25014 -0.461897 -1.55454e-19)
(0.340056 -0.455225 0)
(0.428731 -0.446737 0)
(0.515868 -0.436715 -7.53901e-20)
(0.601217 -0.425422 0)
(0.684577 -0.413104 -7.38251e-20)
(0.765783 -0.399984 7.30798e-20)
(0.84471 -0.386263 7.23435e-20)
(0.921263 -0.37212 0)
(0.995377 -0.357713 -7.08974e-20)
(1.06701 -0.343179 -7.01868e-20)
(1.13614 -0.328636 1.38996e-19)
(1.20276 -0.314186 -6.87891e-20)
(1.26689 -0.299911 -6.81013e-20)
(1.32854 -0.285884 0)
(1.38776 -0.272161 0)
(1.44458 -0.258787 6.60788e-20)
(1.49906 -0.245799 0)
(1.55125 -0.233225 0)
(1.6012 -0.221083 -1.28225e-19)
(1.64899 -0.209388 -1.26936e-19)
(1.69467 -0.198147 0)
(1.7383 -0.187364 0)
(1.77997 -0.177038 0)
(1.81973 -0.167165 0)