/*--------------------------------*- C++ -*----------------------------------*\
  =========                 |
  \\      /  F ield         | OpenFOAM: The Open Source CFD Toolbox
   \\    /   O peration     | Website:  https://openfoam.org
    \\  /    A nd           | Version:  7
     \\/     M anipulation  |
\*---------------------------------------------------------------------------*/
FoamFile
{
    version     2.0;
    format      ascii;
    class       volVectorField;
    location    "0.01";
    object      UMean;
}
// * * * * * * * * * * * * * * * * * * * * * * * * * * * * * * * * * * * * * //

dimensions      [0 1 -1 0 0 0 0];

internalField   nonuniform List<vector> 
12225
(
(4.79452 0.160584 0)
(4.25336 0.1034 0)
(3.84774 0.0863227 0)
(3.54505 0.0665936 0)
(3.3035 0.0503166 0)
(3.10974 0.0380372 0)
(2.96192 0.0261668 0)
(2.85958 0.0165367 0)
(2.80459 0.00558686 0)
(2.7836 0.000825276 0)
(2.80825 -0.00996683 0)
(2.84203 -0.00642222 0)
(2.93409 -0.0262277 0)
(3.00217 -0.00474554 0)
(3.16884 -0.0584739 0)
(3.27945 0.0122939 0)
(3.56175 -0.153455 0)
(3.83789 0.0157758 0)
(5.0295 0.111533 0)
(4.92217 0.065505 0)
(4.82735 0.0736716 0)
(4.76105 0.0652969 0)
(4.70572 0.0556497 0)
(4.65766 0.0466854 0)
(4.61538 0.0380449 0)
(4.5869 0.0254891 0)
(4.56975 0.0147321 0)
(4.57418 -0.00189478 0)
(4.59002 -0.0100623 0)
(4.63396 -0.0309865 0)
(4.68393 -0.0326688 0)
(4.77449 -0.0653601 0)
(4.86062 -0.0589534 0)
(5.01796 -0.122906 0)
(5.16007 -0.134863 0)
(5.41234 -0.298906 0)
(5.02017 0.164443 0)
(4.93533 0.110569 0)
(4.87235 0.109047 0)
(4.8517 0.0938977 0)
(4.85222 0.0760125 0)
(4.86018 0.0615324 0)
(4.8724 0.0465592 0)
(4.88808 0.0318434 0)
(4.90885 0.012844 0)
(4.934 -0.00267589 0)
(4.96782 -0.025228 0)
(5.00869 -0.0376296 0)
(5.06426 -0.0675352 0)
(5.12981 -0.0762315 0)
(5.21765 -0.126331 0)
(5.32064 -0.144221 0)
(5.44933 -0.246303 0)
(5.59264 -0.359226 0)
(5.0097 0.180822 0)
(4.94886 0.106501 0)
(4.89043 0.0946522 0)
(4.86716 0.0795587 0)
(4.86801 0.0614062 0)
(4.87962 0.0450444 0)
(4.89699 0.0305862 0)
(4.91989 0.0143025 0)
(4.94736 -0.00206775 0)
(4.98029 -0.0217111 0)
(5.01807 -0.0397831 0)
(5.06364 -0.0634155 0)
(5.11688 -0.0849186 0)
(5.18162 -0.117598 0)
(5.25879 -0.152062 0)
(5.34944 -0.208831 0)
(5.4547 -0.290782 0)
(5.55734 -0.410127 0)
(4.9968 0.208167 0)
(4.95727 0.127589 0)
(4.90532 0.107369 0)
(4.88011 0.0910047 0)
(4.87993 0.0699411 0)
(4.89111 0.0499934 0)
(4.90734 0.0310785 0)
(4.92809 0.0123123 0)
(4.95433 -0.00865643 0)
(4.98645 -0.0298763 0)
(5.02489 -0.0542398 0)
(5.06986 -0.0786359 0)
(5.12241 -0.10932 0)
(5.18335 -0.143024 0)
(5.25406 -0.18932 0)
(5.33346 -0.250811 0)
(5.41916 -0.335274 0)
(5.4977 -0.461625 0)
(4.98524 0.220323 0)
(4.96571 0.137392 0)
(4.92063 0.108384 0)
(4.89285 0.0886377 0)
(4.89008 0.0654744 0)
(4.90086 0.0425256 0)
(4.91722 0.0214255 0)
(4.93766 0.000245426 0)
(4.9631 -0.0221288 0)
(4.99411 -0.0465344 0)
(5.0312 -0.0728127 0)
(5.07421 -0.102075 0)
(5.12415 -0.135394 0)
(5.18044 -0.175457 0)
(5.24442 -0.226169 0)
(5.31264 -0.292089 0)
(5.383 -0.379933 0)
(5.44413 -0.494109 0)
(5.00597 0.234769 0)
(5.00017 0.15237 0)
(4.96307 0.115085 0)
(4.93483 0.0912861 0)
(4.9288 0.0661695 0)
(4.93672 0.0409286 0)
(4.95059 0.0168907 0)
(4.96838 -0.00688628 0)
(4.99089 -0.0320336 0)
(5.01868 -0.0590695 0)
(5.05225 -0.0884499 0)
(5.09133 -0.121009 0)
(5.13647 -0.158238 0)
(5.18664 -0.203013 0)
(5.2421 -0.25748 0)
(5.29882 -0.326913 0)
(5.35494 -0.412626 0)
(5.40037 -0.518765 0)
(5.00594 0.242647 0)
(5.00853 0.164566 0)
(4.97817 0.121453 0)
(4.95199 0.0933307 0)
(4.94616 0.066279 0)
(4.95472 0.0387569 0)
(4.96934 0.0119096 0)
(4.9871 -0.0148572 0)
(5.00861 -0.0427323 0)
(5.03472 -0.0727209 0)
(5.06608 -0.105334 0)
(5.10222 -0.141501 0)
(5.14333 -0.182474 0)
(5.188 -0.230618 0)
(5.23588 -0.287978 0)
(5.28297 -0.357874 0)
(5.32755 -0.440956 0)
(5.36139 -0.539328 0)
(5.04269 0.248936 0)
(5.05407 0.175052 0)
(5.03093 0.126157 0)
(5.00632 0.0926575 0)
(4.99904 0.063316 0)
(5.00617 0.0341459 0)
(5.01977 0.00513194 0)
(5.03604 -0.0240456 0)
(5.05481 -0.0543663 0)
(5.07674 -0.0868368 0)
(5.10262 -0.122111 0)
(5.13231 -0.161264 0)
(5.16585 -0.205213 0)
(5.20184 -0.255961 0)
(5.23956 -0.314826 0)
(5.2755 -0.384173 0)
(5.30794 -0.46384 0)
(5.33073 -0.554647 0)
(5.01841 0.256378 0)
(5.03761 0.186308 0)
(5.02287 0.134684 0)
(5.00316 0.0967538 0)
(4.99827 0.0640701 0)
(5.00711 0.0323548 0)
(5.02215 0.00101539 0)
(5.03912 -0.0302705 0)
(5.05767 -0.0625238 0)
(5.07857 -0.0969284 0)
(5.10245 -0.13437 0)
(5.12906 -0.175865 0)
(5.15811 -0.222223 0)
(5.18817 -0.27484 0)
(5.21821 -0.334413 0)
(5.24538 -0.402426 0)
(5.26808 -0.47822 0)
(5.28227 -0.562119 0)
(5.01449 0.256225 0)
(5.03574 0.188355 0)
(5.02419 0.135197 0)
(5.00551 0.0936499 0)
(4.99861 0.0581758 0)
(5.00393 0.0248143 0)
(5.01547 -0.00795454 0)
(5.02953 -0.0410466 0)
(5.04557 -0.0752456 0)
(5.06403 -0.111727 0)
(5.08529 -0.151254 0)
(5.10865 -0.194606 0)
(5.13343 -0.242299 0)
(5.15791 -0.295356 0)
(5.18134 -0.354157 0)
(5.20111 -0.419687 0)
(5.21667 -0.491045 0)
(5.22435 -0.568397 0)
(5.02358 0.265183 0)
(5.05194 0.197736 0)
(5.04537 0.143619 0)
(5.02845 0.09923 0)
(5.02073 0.0607554 0)
(5.02387 0.0249729 0)
(5.03307 -0.00994971 0)
(5.04516 -0.0450718 0)
(5.05946 -0.081407 0)
(5.07589 -0.119861 0)
(5.09435 -0.161044 0)
(5.11381 -0.205679 0)
(5.1336 -0.254144 0)
(5.15215 -0.307251 0)
(5.16904 -0.365082 0)
(5.18197 -0.428294 0)
(5.19104 -0.495796 0)
(5.19285 -0.567748 0)
(5.01428 0.258464 0)
(5.04382 0.196978 0)
(5.041 0.142901 0)
(5.02864 0.0969773 0)
(5.02389 0.0569913 0)
(5.02817 0.0198828 0)
(5.03767 -0.0166014 0)
(5.04965 -0.0536296 0)
(5.06327 -0.0918762 0)
(5.07818 -0.131821 0)
(5.09401 -0.173911 0)
(5.10986 -0.218799 0)
(5.12511 -0.266876 0)
(5.13851 -0.318915 0)
(5.14978 -0.374867 0)
(5.15708 -0.435256 0)
(5.16059 -0.498828 0)
(5.15767 -0.56583 0)
(5.01642 0.263502 0)
(5.0448 0.204772 0)
(5.04375 0.148977 0)
(5.03233 0.100495 0)
(5.02706 0.0580465 0)
(5.03015 0.0185951 0)
(5.03814 -0.0200535 0)
(5.04818 -0.0590996 0)
(5.05904 -0.098929 0)
(5.07012 -0.139993 0)
(5.08131 -0.182664 0)
(5.09205 -0.227649 0)
(5.10223 -0.27531 0)
(5.1107 -0.326256 0)
(5.11732 -0.380197 0)
(5.12009 -0.437448 0)
(5.11956 -0.496636 0)
(5.11283 -0.558137 0)
(5.03539 0.263623 0)
(5.06611 0.202218 0)
(5.06672 0.145522 0)
(5.05705 0.0960908 0)
(5.05256 0.0525363 0)
(5.05498 0.0119641 0)
(5.06081 -0.0277262 0)
(5.06734 -0.0675302 0)
(5.07375 -0.107841 0)
(5.08005 -0.149065 0)
(5.08647 -0.191617 0)
(5.09257 -0.236145 0)
(5.09806 -0.282829 0)
(5.10165 -0.332052 0)
(5.10316 -0.383211 0)
(5.10075 -0.436526 0)
(5.0952 -0.490527 0)
(5.08401 -0.54593 0)
(5.02079 0.26873 0)
(5.05508 0.209472 0)
(5.05775 0.154242 0)
(5.04825 0.103347 0)
(5.04326 0.0570328 0)
(5.04514 0.0140314 0)
(5.05039 -0.0273498 0)
(5.05609 -0.0683902 0)
(5.06125 -0.109717 0)
(5.06561 -0.151786 0)
(5.06929 -0.194827 0)
(5.0719 -0.239145 0)
(5.07331 -0.284567 0)
(5.07252 -0.331198 0)
(5.06953 -0.378419 0)
(5.06297 -0.426548 0)
(5.05374 -0.47446 0)
(5.03985 -0.523061 0)
(5.0179 0.257612 0)
(5.05368 0.199184 0)
(5.05922 0.145123 0)
(5.05357 0.094947 0)
(5.05206 0.0481852 0)
(5.05608 0.00402721 0)
(5.06195 -0.0382782 0)
(5.06691 -0.0793554 0)
(5.07017 -0.119774 0)
(5.07162 -0.16018 0)
(5.07136 -0.200981 0)
(5.06903 -0.24257 0)
(5.06468 -0.284797 0)
(5.05767 -0.327754 0)
(5.04845 -0.370729 0)
(5.03605 -0.413984 0)
(5.02176 -0.4563 0)
(5.00378 -0.498745 0)
(5.04912 0.265716 0)
(5.08157 0.205202 0)
(5.0853 0.149097 0)
(5.07849 0.0970992 0)
(5.07561 0.0489657 0)
(5.07724 0.00461199 0)
(5.07958 -0.0365342 0)
(5.08025 -0.0754935 0)
(5.07882 -0.113299 0)
(5.07551 -0.150775 0)
(5.07067 -0.188197 0)
(5.06408 -0.225677 0)
(5.05575 -0.26296 0)
(5.04515 -0.30017 0)
(5.03264 -0.336917 0)
(5.01742 -0.373633 0)
(5.00053 -0.40946 0)
(4.98051 -0.445368 0)
(5.03525 0.262725 0)
(5.07074 0.201198 0)
(5.07677 0.143116 0)
(5.07102 0.0910356 0)
(5.06794 0.0440893 0)
(5.06871 0.000844185 0)
(5.06985 -0.0395551 0)
(5.06903 -0.0776369 0)
(5.06577 -0.113865 0)
(5.06036 -0.148859 0)
(5.05316 -0.183098 0)
(5.04408 -0.216988 0)
(5.0332 -0.250384 0)
(5.02013 -0.283279 0)
(5.0052 -0.315084 0)
(4.98786 -0.346034 0)
(4.969 -0.375307 0)
(4.94759 -0.403855 0)
(5.01564 0.26241 0)
(5.05182 0.197034 0)
(5.06035 0.139001 0)
(5.05887 0.0884491 0)
(5.06064 0.0437297 0)
(5.06528 0.00378267 0)
(5.06848 -0.0323586 0)
(5.06838 -0.0657653 0)
(5.06536 -0.0973607 0)
(5.06005 -0.127746 0)
(5.05269 -0.157037 0)
(5.04302 -0.185235 0)
(5.03101 -0.212192 0)
(5.01649 -0.238084 0)
(4.99986 -0.262767 0)
(4.98094 -0.286645 0)
(4.96053 -0.309271 0)
(4.93812 -0.331426 0)
(5.00634 0.258779 0)
(5.04224 0.190198 0)
(5.05284 0.12943 0)
(5.05385 0.0772995 0)
(5.05742 0.0326602 0)
(5.06306 -0.00628906 0)
(5.06658 -0.0410226 0)
(5.0661 -0.0725312 0)
(5.06184 -0.101492 0)
(5.0546 -0.128491 0)
(5.04501 -0.153901 0)
(5.0332 -0.17797 0)
(5.01936 -0.20069 0)
(5.00348 -0.222254 0)
(4.98608 -0.242602 0)
(4.96692 -0.262131 0)
(4.94678 -0.280518 0)
(4.92485 -0.298428 0)
(5.01732 0.260626 0)
(5.06054 0.180566 0)
(5.0795 0.118517 0)
(5.08753 0.0711447 0)
(5.095 0.033121 0)
(5.102 0.000262309 0)
(5.10613 -0.02949 0)
(5.10663 -0.0568807 0)
(5.10371 -0.0820905 0)
(5.09748 -0.105274 0)
(5.08807 -0.126734 0)
(5.07571 -0.146979 0)
(5.06094 -0.166257 0)
(5.04392 -0.184737 0)
(5.02526 -0.202212 0)
(5.00471 -0.218808 0)
(4.98316 -0.23417 0)
(4.95981 -0.248757 0)
(5.0311 0.253718 0)
(5.08316 0.165118 0)
(5.11262 0.099595 0)
(5.12884 0.0513614 0)
(5.14156 0.0130842 0)
(5.15106 -0.0193934 0)
(5.15538 -0.0475191 0)
(5.15446 -0.0716266 0)
(5.14958 -0.0924853 0)
(5.14176 -0.111219 0)
(5.13132 -0.12854 0)
(5.1181 -0.14476 0)
(5.10229 -0.159917 0)
(5.08399 -0.174156 0)
(5.0637 -0.187416 0)
(5.04147 -0.199968 0)
(5.01806 -0.211591 0)
(4.99322 -0.2228 0)
(4.98598 0.239298 0)
(5.05144 0.14734 0)
(5.0945 0.0880279 0)
(5.11909 0.0508141 0)
(5.13539 0.0223336 0)
(5.14678 -0.00400004 0)
(5.15357 -0.0285811 0)
(5.15572 -0.0504462 0)
(5.15299 -0.0692161 0)
(5.14562 -0.0854872 0)
(5.13452 -0.100085 0)
(5.12049 -0.113507 0)
(5.10431 -0.12592 0)
(5.08627 -0.137519 0)
(5.06697 -0.148374 0)
(5.04629 -0.158711 0)
(5.02493 -0.168415 0)
(5.00228 -0.177756 0)
(5.02884 0.219719 0)
(5.10604 0.109278 0)
(5.16275 0.0468179 0)
(5.1935 0.0113012 0)
(5.20928 -0.0153747 0)
(5.21759 -0.0381489 0)
(5.22131 -0.0567577 0)
(5.22101 -0.0717986 0)
(5.21676 -0.0846859 0)
(5.20863 -0.0963758 0)
(5.19714 -0.10725 0)
(5.1829 -0.117489 0)
(5.16653 -0.127132 0)
(5.14822 -0.13627 0)
(5.1284 -0.144836 0)
(5.10696 -0.152905 0)
(5.08457 -0.160271 0)
(5.06076 -0.167133 0)
(5.02707 0.207831 0)
(5.12788 0.103361 0)
(5.20309 0.0607672 0)
(5.24127 0.036386 0)
(5.25939 0.0114367 0)
(5.27061 -0.0121365 0)
(5.27787 -0.0309545 0)
(5.27994 -0.0452618 0)
(5.27609 -0.057114 0)
(5.26699 -0.0678019 0)
(5.25388 -0.0775591 0)
(5.23772 -0.086374 0)
(5.21919 -0.094316 0)
(5.19854 -0.101598 0)
(5.17626 -0.108326 0)
(5.15243 -0.114654 0)
(5.12769 -0.120493 0)
(5.10183 -0.12599 0)
(5.02245 0.152738 0)
(5.15784 0.0245291 0)
(5.24949 -0.00780189 0)
(5.28565 -0.0224035 0)
(5.29798 -0.0395274 0)
(5.30632 -0.0540511 0)
(5.31276 -0.0641031 0)
(5.31422 -0.0714474 0)
(5.30945 -0.077753 0)
(5.29946 -0.0836433 0)
(5.28586 -0.08916 0)
(5.26964 -0.0943133 0)
(5.25138 -0.0991409 0)
(5.23123 -0.103754 0)
(5.20957 -0.108131 0)
(5.18637 -0.112305 0)
(5.16226 -0.116113 0)
(5.13689 -0.119614 0)
(5.02236 0.152843 0)
(5.20952 0.0529749 0)
(5.32365 0.0349784 0)
(5.36101 0.014297 0)
(5.3727 -0.00747095 0)
(5.38183 -0.022431 0)
(5.38837 -0.0319668 0)
(5.38926 -0.0394982 0)
(5.38394 -0.0464001 0)
(5.37347 -0.0527586 0)
(5.359 -0.0584271 0)
(5.34123 -0.0634387 0)
(5.32064 -0.0678604 0)
(5.29758 -0.0718546 0)
(5.2725 -0.0754354 0)
(5.24571 -0.0787351 0)
(5.21766 -0.0816395 0)
(5.18845 -0.0842861 0)
(5.018 0.0165556 0)
(5.25488 -0.0545952 0)
(5.3727 -0.0399762 0)
(5.40467 -0.0496602 0)
(5.41416 -0.060217 0)
(5.41871 -0.064906 0)
(5.41602 -0.0669339 0)
(5.40336 -0.0687567 0)
(5.38103 -0.0705704 0)
(5.3509 -0.0719997 0)
(5.31485 -0.0729529 0)
(5.27446 -0.0736508 0)
(5.2306 -0.0742902 0)
(5.18423 -0.0750336 0)
(5.13554 -0.0758164 0)
(5.0855 -0.0766308 0)
(5.03376 -0.0772691 0)
(4.98194 -0.0777773 0)
(4.98656 0.0675268 0)
(5.13999 -0.00128572 0)
(5.10088 -0.0031981 0)
(4.96621 -0.0135134 0)
(4.82203 -0.0207966 0)
(4.68552 -0.0235067 0)
(4.55368 -0.0243755 0)
(4.42323 -0.0248313 0)
(4.29386 -0.0250986 0)
(4.16697 -0.0251502 0)
(4.04392 -0.0250198 0)
(3.92553 -0.0247843 0)
(3.81167 -0.024486 0)
(3.7023 -0.0241538 0)
(3.59667 -0.0237561 0)
(3.49543 -0.0233048 0)
(3.39732 -0.0227377 0)
(3.30466 -0.022155 0)
(-0.00494409 0.00668772 1.07839e-20)
(-0.00698207 0.000664175 -1.07167e-20)
(-0.00486706 -0.00038089 0)
(-0.00363677 -0.00069325 0)
(-0.00149723 -0.0012735 0)
(0.00119767 -0.00208172 1.04308e-20)
(0.00492589 -0.0030749 0)
(0.00977895 -0.00424426 0)
(0.016012 -0.00558253 0)
(0.0238069 -0.00709407 0)
(0.0333305 -0.00876543 -1.00893e-20)
(0.0447897 -0.0105717 0)
(0.0583368 -0.0125147 0)
(0.0741513 -0.0145624 0)
(0.0923636 -0.0166931 0)
(0.11305 -0.0188899 -9.76389e-21)
(0.13631 -0.0210973 0)
(0.162223 -0.0233007 0)
(0.190797 -0.0254858 0)
(0.222032 -0.0275862 0)
(0.255874 -0.0296105 0)
(0.292188 -0.0314955 0)
(0.330964 -0.0332543 0)
(0.372022 -0.0348572 -9.26759e-21)
(0.415173 -0.0362809 9.20646e-21)
(0.46028 -0.0375212 -9.14527e-21)
(0.507113 -0.0385596 -9.08397e-21)
(0.555495 -0.0393931 0)
(0.605173 -0.0400432 0)
(0.655918 -0.0404638 8.89875e-21)
(0.70752 -0.0407024 8.83635e-21)
(0.759707 -0.0407516 0)
(0.812293 -0.0406058 0)
(0.865054 -0.0403014 8.64669e-21)
(0.917761 -0.039838 0)
(0.970236 -0.039235 0)
(1.0223 -0.0385042 -8.45289e-21)
(1.07378 -0.0376635 0)
(1.12453 -0.0367277 -8.32144e-21)
(1.17443 -0.0357118 -1.65102e-20)
(1.22334 -0.0346302 0)
(1.27118 -0.0334967 0)
(1.31786 -0.0323239 0)
(1.3633 -0.0311235 0)
(1.40745 -0.0299062 0)
(1.45026 -0.0286816 -1.57012e-20)
(1.49171 -0.0274581 -1.5565e-20)
(1.53177 -0.0262431 -1.54285e-20)
(1.57042 -0.0250431 0)
(1.60767 -0.0238634 1.51554e-20)
(1.64352 -0.0227087 0)
(1.67797 -0.0215827 -1.48823e-20)
(1.71105 -0.0204885 -1.47461e-20)
(1.74277 -0.0194285 0)
(1.77315 -0.0184043 0)
(1.80224 -0.0174174 0)
(1.83005 -0.0164684 -1.42038e-20)
(1.85663 -0.0155579 0)
(1.882 -0.0146859 0)
(1.9062 -0.0138522 0)
(1.92927 -0.0130564 0)
(1.95126 -0.0122979 0)
(1.97218 -0.0115758 0)
(1.9921 -0.0108893 0)
(2.01103 -0.0102373 0)
(2.02902 -0.00961862 1.30126e-20)
(2.04612 -0.00903221 0)
(2.06234 -0.0084768 0)
(2.07773 -0.00795118 -1.26273e-20)
(2.09233 -0.00745409 -1.25004e-20)
(2.10617 -0.0069843 0)
(2.11928 -0.00654057 1.22488e-20)
(2.13169 -0.00612171 -1.21241e-20)
(2.14344 -0.00572649 0)
(2.15455 -0.0053538 1.18772e-20)
(2.16505 -0.00500249 0)
(2.17498 -0.00467147 0)
(2.18435 -0.00435969 -1.15127e-20)
(2.1932 -0.00406617 0)
(2.20155 -0.00378988 1.12737e-20)
(2.20942 -0.00352995 0)
(2.21684 -0.00328545 -1.10379e-20)
(2.22382 -0.00305556 -1.09212e-20)
(2.2304 -0.00283942 -1.08053e-20)
(2.23658 -0.00263631 -2.13805e-20)
(2.24239 -0.00244545 2.11519e-20)
(2.24785 -0.00226617 0)
(2.25298 -0.00209774 0)
(2.25779 -0.00193957 0)
(2.26229 -0.001791 2.02532e-20)
(2.26651 -0.0016514 2.00325e-20)
(2.27046 -0.00152013 -1.98133e-20)
(2.27414 -0.00139644 0)
(2.27759 -0.00127934 1.93795e-20)
(2.2808 -0.001168 1.91649e-20)
(2.28378 -0.00106172 1.89519e-20)
(2.28656 -0.000959936 0)
(2.28913 -0.000862561 0)
(2.29151 -0.000769415 0)
(2.2937 -0.000679829 1.81145e-20)
(2.29571 -0.000594027 0)
(2.29755 -0.000512288 0)
(2.29923 -0.000433783 -1.7502e-20)
(2.30075 -0.000359497 0)
(2.30212 -0.000291705 0)
(2.30336 -0.00023175 -1.69023e-20)
(2.30446 -0.000179839 0)
(2.30545 -0.00013544 0)
(2.30634 -9.78831e-05 1.63152e-20)
(2.30712 -6.62468e-05 1.61222e-20)
(2.30782 -3.93532e-05 0)
(2.30844 -1.6042e-05 -1.57404e-20)
(2.30898 4.66584e-06 0)
(2.30945 2.34572e-05 1.53639e-20)
(2.30985 4.07596e-05 0)
(2.31019 5.68257e-05 1.49927e-20)
(2.31047 7.17767e-05 1.4809e-20)
(2.3107 8.57173e-05 0)
(2.31087 9.86771e-05 0)
(2.31099 0.000110742 0)
(2.31107 0.000121953 0)
(2.3111 0.000132393 0)
(2.31109 0.000142116 0)
(2.31105 0.000151173 0)
(2.31096 0.0001596 1.33845e-20)
(2.31084 0.000167424 -1.32119e-20)
(2.31069 0.000174682 0)
(2.3105 0.000181409 0)
(2.31029 0.000187648 0)
(2.31005 0.000193433 0)
(2.30978 0.000198799 -2.47327e-20)
(2.30949 0.000203773 0)
(2.30917 0.000208387 2.40721e-20)
(2.30883 0.000212667 -2.37451e-20)
(2.30847 0.000216645 0)
(2.30809 0.000220344 0)
(2.30769 0.000223792 0)
(2.30728 0.00022701 2.24588e-20)
(2.30684 0.000229997 2.21425e-20)
(2.30639 0.000232789 0)
(2.30592 0.000235385 2.15162e-20)
(2.30543 0.000237844 2.1206e-20)
(2.30493 0.000240182 -2.08979e-20)
(2.30442 0.00024245 0)
(2.30389 0.000244658 0)
(2.30334 0.000246847 -1.99854e-20)
(2.30279 0.00024903 0)
(2.30221 0.000251251 0)
(2.30163 0.000253539 0)
(2.30103 0.000255947 0)
(2.30041 0.000258519 1.85029e-20)
(2.29978 0.000261325 1.8212e-20)
(2.29913 0.000264439 0)
(2.29846 0.000267964 1.76356e-20)
(2.29777 0.000272014 0)
(2.29706 0.000276749 0)
(2.29633 0.000282354 1.67843e-20)
(2.29556 0.000289081 0)
(2.29477 0.000297229 1.62254e-20)
(2.29393 0.000307206 0)
(2.29305 0.000319502 0)
(2.29211 0.000334807 1.53997e-20)
(2.2911 0.000353895 0)
(2.29 0.000378051 1.48577e-20)
(2.28879 0.000408334 0)
(2.28744 0.000447584 0)
(2.28591 0.000496501 0)
(2.28416 0.00056232 -1.37939e-20)
(2.28211 0.000643723 0)
(2.27969 0.000755483 1.32725e-20)
(2.27669 0.000905628 0)
(2.27314 0.00107883 0)
(2.26837 0.00143465 0)
(2.26265 0.00159379 0)
(2.25458 0.00271322 0)
(2.24358 0.0023471 0)
(2.22964 0.00656216 0)
(2.20069 0.00374589 -2.25868e-20)
(2.17674 0.0236697 0)
(2.06724 0.0197697 0)
(-0.00555063 0.0194865 -3.23622e-20)
(-0.00752106 -0.00143135 3.21605e-20)
(-0.00540435 -0.00517793 0)
(-0.00403289 -0.00620537 -2.1149e-20)
(-0.00174566 -0.00811457 0)
(0.00124204 -0.0107749 -1.0437e-20)
(0.00539088 -0.0140466 2.07268e-20)
(0.0108283 -0.0178721 2.05889e-20)
(0.0177953 -0.0222237 0)
(0.0264817 -0.0270882 2.03171e-20)
(0.0370944 -0.0324146 1.0095e-20)
(0.0497918 -0.0381577 0)
(0.0647174 -0.0442676 0)
(0.0820714 -0.0506739 0)
(0.101926 -0.0573245 0)
(0.124399 -0.0641232 9.76918e-21)
(0.149567 -0.0709862 0)
(0.17743 -0.0778241 -1.92812e-20)
(0.208083 -0.0845829 0)
(0.241507 -0.0911259 0)
(0.277651 -0.0974166 1.89094e-20)
(0.316401 -0.103345 0)
(0.357694 -0.108857 -1.86643e-20)
(0.401406 -0.113883 9.27189e-21)
(0.447306 -0.118374 -9.21063e-21)
(0.495246 -0.122281 9.14932e-21)
(0.544992 -0.125574 9.0879e-21)
(0.596305 -0.128236 0)
(0.648992 -0.130276 0)
(0.702791 -0.131669 -8.9023e-21)
(0.757427 -0.13245 8.8403e-21)
(0.812703 -0.132637 0)
(0.868373 -0.132257 0)
(0.9242 -0.131351 -8.64978e-21)
(0.97998 -0.12996 0)
(1.03551 -0.128127 0)
(1.09062 -0.125901 8.45565e-21)
(1.14514 -0.123328 0)
(1.19891 -0.120455 -8.32505e-21)
(1.2518 -0.117329 1.65151e-20)
(1.3037 -0.113992 0)
(1.3545 -0.110488 0)
(1.40413 -0.106854 3.22267e-20)
(1.4525 -0.103126 3.19558e-20)
(1.49957 -0.0993377 3.16842e-20)
(1.54528 -0.095517 -1.57066e-20)
(1.58961 -0.0916903 1.55688e-20)
(1.63253 -0.0878804 4.62978e-20)
(1.67403 -0.084107 -3.05921e-20)
(1.71411 -0.0803872 -1.51588e-20)
(1.75276 -0.0767354 0)
(1.78999 -0.0731635 1.48855e-20)
(1.82582 -0.0696813 -1.47499e-20)
(1.86027 -0.0662967 0)
(1.89336 -0.0630158 0)
(1.92511 -0.0598431 0)
(1.95556 -0.0567818 1.42065e-20)
(1.98473 -0.0538338 0)
(2.01266 -0.0510003 -2.78756e-20)
(2.03939 -0.0482811 0)
(2.06494 -0.0456758 -2.7342e-20)
(2.08936 -0.0431829 0)
(2.11268 -0.0408008 2.68131e-20)
(2.13494 -0.0385271 0)
(2.15617 -0.0363594 -2.62893e-20)
(2.17641 -0.0342947 1.30148e-20)
(2.19569 -0.0323299 0)
(2.21406 -0.030462 2.55141e-20)
(2.23154 -0.0286874 1.26292e-20)
(2.24818 -0.0270028 1.25023e-20)
(2.264 -0.0254049 0)
(2.27904 -0.02389 1.22506e-20)
(2.29333 -0.0224549 1.21259e-20)
(2.3069 -0.021096 0)
(2.31978 -0.0198101 -1.18788e-20)
(2.332 -0.0185939 2.3513e-20)
(2.3436 -0.0174442 0)
(2.35459 -0.0163579 1.15142e-20)
(2.365 -0.015332 0)
(2.37486 -0.0143635 -3.38256e-20)
(2.3842 -0.0134496 0)
(2.39303 -0.0125877 3.3118e-20)
(2.40139 -0.0117751 1.09226e-20)
(2.40929 -0.0110093 -1.08067e-20)
(2.41676 -0.0102879 -2.13831e-20)
(2.42382 -0.00960857 2.11545e-20)
(2.43048 -0.00896918 0)
(2.43676 -0.00836753 0)
(2.44269 -0.00780167 0)
(2.44828 -0.00726964 -6.0767e-20)
(2.45355 -0.00676957 -2.00349e-20)
(2.45851 -0.00629965 1.98157e-20)
(2.46318 -0.00585815 0)
(2.46758 -0.00544336 1.93818e-20)
(2.47172 -0.00505372 -1.91672e-20)
(2.47561 -0.00468764 -1.89542e-20)
(2.47927 -0.00434354 0)
(2.48272 -0.0040201 0)
(2.48597 -0.00371615 0)
(2.48902 -0.00343042 -1.81168e-20)
(2.4919 -0.00316203 0)
(2.49461 -0.00291019 3.54138e-20)
(2.49716 -0.0026737 5.25124e-20)
(2.49957 -0.00245241 -3.46056e-20)
(2.50185 -0.00224658 0)
(2.50399 -0.00205544 -1.69044e-20)
(2.50601 -0.00187823 0)
(2.50791 -0.00171466 -3.30232e-20)
(2.50969 -0.00156429 1.63172e-20)
(2.51136 -0.00142615 1.61243e-20)
(2.51292 -0.001299 0)
(2.51438 -0.00118164 4.72273e-20)
(2.51575 -0.00107296 -3.1107e-20)
(2.51702 -0.000972071 -1.53659e-20)
(2.5182 -0.000878314 0)
(2.5193 -0.000791152 -1.49946e-20)
(2.52032 -0.000710185 -4.44327e-20)
(2.52127 -0.000635019 0)
(2.52215 -0.000565344 -2.88946e-20)
(2.52297 -0.000500781 -2.85348e-20)
(2.52372 -0.000441003 -2.81774e-20)
(2.52442 -0.000385638 0)
(2.52507 -0.000334368 0)
(2.52566 -0.000286906 0)
(2.52621 -0.000243012 1.33862e-20)
(2.52672 -0.000202467 1.32137e-20)
(2.52719 -0.000165044 0)
(2.52762 -0.000130525 2.57439e-20)
(2.52801 -9.86821e-05 2.54056e-20)
(2.52838 -6.9325e-05 0)
(2.52871 -4.22595e-05 2.4736e-20)
(2.52901 -1.7329e-05 4.88091e-20)
(2.52929 5.63901e-06 -2.40754e-20)
(2.52954 2.67812e-05 -2.37483e-20)
(2.52977 4.62555e-05 0)
(2.52998 6.41873e-05 0)
(2.53017 8.07091e-05 0)
(2.53034 9.59275e-05 -2.24619e-20)
(2.5305 0.00010992 2.21455e-20)
(2.53064 0.000122806 4.36626e-20)
(2.53076 0.000134661 -2.15191e-20)
(2.53087 0.000145645 2.12089e-20)
(2.53097 0.000155858 2.09008e-20)
(2.53105 0.000165447 0)
(2.53113 0.000174488 0)
(2.53119 0.000183103 -1.99882e-20)
(2.53125 0.00019137 0)
(2.53129 0.000199424 0)
(2.53133 0.000207376 3.81859e-20)
(2.53135 0.000215386 0)
(2.53137 0.000223602 1.85055e-20)
(2.53138 0.000232234 -1.82146e-20)
(2.53137 0.000241499 0)
(2.53136 0.000251693 1.7638e-20)
(2.53133 0.000263148 0)
(2.53129 0.000276305 0)
(2.53123 0.000291685 -1.67867e-20)
(2.53115 0.000309973 3.30126e-20)
(2.53105 0.000332004 -1.62277e-20)
(2.53092 0.000358871 0)
(2.53076 0.000391944 0)
(2.53056 0.000433017 1.54019e-20)
(2.5303 0.000484372 0)
(2.52998 0.000549028 1.48597e-20)
(2.52957 0.000630917 0)
(2.52904 0.000735146 0)
(2.52839 0.000869263 0)
(2.52753 0.00104049 1.37959e-20)
(2.52647 0.00126927 0)
(2.52502 0.00155146 -1.32745e-20)
(2.52328 0.00197526 0)
(2.52074 0.00242004 0)
(2.51787 0.00333061 2.5014e-20)
(2.51315 0.00392446 -2.4512e-20)
(2.50823 0.00628718 0)
(2.49885 0.00670402 0)
(2.48979 0.0141932 0)
(2.4701 0.0137442 6.77514e-20)
(2.45287 0.0443612 0)
(2.42003 0.0502895 -4.33648e-20)
(-0.00585838 0.0344585 1.46584e-23)
(-0.00911543 -0.000753407 -4.2881e-20)
(-0.00844524 -0.00681664 0)
(-0.00861788 -0.00862001 4.23042e-20)
(-0.00783023 -0.0119698 0)
(-0.00634671 -0.016622 0)
(-0.00367616 -0.0223073 -1.32613e-23)
(0.000335716 -0.0289422 -2.05988e-20)
(0.00591446 -0.0364776 -2.04496e-20)
(0.0132854 -0.04487 -2.03268e-20)
(0.022664 -0.0540343 0)
(0.03424 -0.0639073 0)
(0.0482014 -0.0743812 1.99182e-20)
(0.0647163 -0.0853507 3.95774e-20)
(0.0839454 -0.0967149 -3.93207e-20)
(0.106013 -0.10832 0)
(0.130988 -0.120066 -3.88142e-20)
(0.158902 -0.131764 1.92895e-20)
(0.189831 -0.143278 0)
(0.223753 -0.15449 -3.8069e-20)
(0.260571 -0.165221 -1.8917e-20)
(0.300187 -0.17536 3.7579e-20)
(0.342517 -0.184737 1.86714e-20)
(0.387366 -0.19329 0)
(0.434509 -0.200913 -3.68485e-20)
(0.483768 -0.207522 -3.66048e-20)
(0.53486 -0.213071 0)
(0.587539 -0.21754 -3.61153e-20)
(0.641566 -0.220895 0)
(0.696666 -0.223186 -3.56212e-20)
(0.752562 -0.224416 -1.76852e-20)
(0.808996 -0.224629 0)
(0.865744 -0.223896 0)
(0.922564 -0.222272 0)
(0.979225 -0.219835 0)
(1.03554 -0.21666 0)
(1.09132 -0.212833 0)
(1.14641 -0.208432 -3.35729e-20)
(1.20066 -0.203538 4.99607e-20)
(1.25394 -0.198229 0)
(1.30615 -0.192579 0)
(1.35719 -0.186658 0)
(1.40698 -0.18053 2.91933e-24)
(1.45547 -0.174255 -3.1961e-20)
(1.5026 -0.167887 -6.33805e-20)
(1.54834 -0.161473 6.2835e-20)
(1.59266 -0.155055 3.11453e-20)
(1.63554 -0.14867 -3.08696e-20)
(1.67699 -0.142351 -1.86256e-24)
(1.717 -0.136125 -3.03238e-20)
(1.75557 -0.130015 0)
(1.79272 -0.12404 -2.97764e-20)
(1.82847 -0.118216 -1.27812e-24)
(1.86284 -0.112555 0)
(1.89586 -0.107067 0)
(1.92755 -0.101759 2.86871e-20)
(1.95794 -0.0966353 0)
(1.98707 -0.0916994 0)
(2.01496 -0.0869526 -2.78789e-20)
(2.04167 -0.0823948 -5.52214e-20)
(2.06721 -0.078025 2.73437e-20)
(2.09163 -0.0738408 0)
(2.11496 -0.0698394 -2.68145e-20)
(2.13724 -0.0660169 0)
(2.1585 -0.0623692 -2.62913e-20)
(2.17879 -0.0588917 -2.60306e-20)
(2.19813 -0.0555793 5.15448e-20)
(2.21656 -0.0524269 2.55156e-20)
(2.23412 -0.0494291 0)
(2.25083 -0.0465803 -5.00112e-20)
(2.26674 -0.043875 0)
(2.28187 -0.0413077 -7.35059e-20)
(2.29626 -0.0388727 -4.85051e-20)
(2.30993 -0.0365647 -4.80093e-20)
(2.32292 -0.0343783 4.75167e-20)
(2.33525 -0.0323081 -7.05408e-20)
(2.34695 -0.030349 0)
(2.35805 -0.0284959 0)
(2.36858 -0.0267441 4.55781e-20)
(2.37856 -0.0250886 6.76522e-20)
(2.38801 -0.023525 0)
(2.39696 -0.0220488 -2.20789e-20)
(2.40543 -0.0206557 0)
(2.41344 -0.0193418 6.48408e-20)
(2.42102 -0.0181029 -6.16385e-26)
(2.42819 -0.0169354 5.28945e-26)
(2.43496 -0.0158356 -4.18551e-20)
(2.44135 -0.0148 0)
(2.44738 -0.0138254 4.09562e-20)
(2.45307 -0.0129085 -2.62798e-26)
(2.45844 -0.0120464 0)
(2.4635 -0.0112362 0)
(2.46827 -0.0104752 0)
(2.47275 -0.00976103 -3.87637e-20)
(2.47698 -0.00909129 0)
(2.48095 -0.00846332 0)
(2.48469 -0.00787466 0)
(2.4882 -0.00732308 0)
(2.4915 -0.00680634 0)
(2.4946 -0.00632249 -3.62336e-20)
(2.49751 -0.00586967 0)
(2.50025 -0.00544596 -3.54139e-20)
(2.50281 -0.00504985 -3.50084e-20)
(2.50521 -0.00467963 3.46058e-20)
(2.50746 -0.00433347 0)
(2.50958 -0.00400992 3.3809e-20)
(2.51156 -0.00370801 0)
(2.51341 -0.00342719 3.30234e-20)
(2.51514 -0.00316581 -3.26347e-20)
(2.51676 -0.00292199 -9.67463e-20)
(2.51827 -0.00269429 0)
(2.51969 -0.00248146 -9.44551e-20)
(2.521 -0.00228252 -3.11072e-20)
(2.52223 -0.00209669 0)
(2.52337 -0.00192333 -6.07188e-20)
(2.52444 -0.00176183 -5.99788e-20)
(2.52543 -0.00161161 8.88659e-20)
(2.52636 -0.00147208 0)
(2.52722 -0.00134262 2.88948e-20)
(2.52801 -0.00122259 2.8535e-20)
(2.52876 -0.00111137 8.45329e-20)
(2.52945 -0.00100831 0)
(2.53009 -0.000912852 0)
(2.53068 -0.00082449 0)
(2.53123 -0.000742792 2.67727e-20)
(2.53174 -0.000667335 0)
(2.53221 -0.000597709 0)
(2.53265 -0.000533495 -2.57441e-20)
(2.53306 -0.000474301 -2.54058e-20)
(2.53343 -0.000419756 0)
(2.53378 -0.000369522 0)
(2.5341 -0.000323286 -4.88095e-20)
(2.5344 -0.000280747 0)
(2.53467 -0.000241629 4.74971e-20)
(2.53492 -0.000205666 4.68474e-20)
(2.53515 -0.000172607 0)
(2.53537 -0.000142229 0)
(2.53557 -0.000114339 -4.49241e-20)
(2.53575 -8.87597e-05 -2.85013e-26)
(2.53592 -6.52978e-05 -2.85737e-26)
(2.53607 -4.37514e-05 0)
(2.53622 -2.38746e-05 -8.48365e-20)
(2.53635 -5.45796e-06 0)
(2.53647 1.17118e-05 0)
(2.53658 2.77978e-05 0)
(2.53668 4.29822e-05 3.99767e-20)
(2.53677 5.74278e-05 0)
(2.53686 7.13419e-05 -7.75585e-20)
(2.53693 8.49276e-05 -3.81862e-20)
(2.537 9.84361e-05 0)
(2.53706 0.000112128 -3.70114e-20)
(2.53711 0.00012633 0)
(2.53715 0.000141405 0)
(2.53718 0.000157814 -1.05829e-19)
(2.53719 0.000176099 6.94105e-20)
(2.5372 0.000196949 0)
(2.53719 0.0002212 6.71469e-20)
(2.53716 0.000249918 -3.30128e-20)
(2.53711 0.000284438 0)
(2.53703 0.000326455 0)
(2.53692 0.000378158 0)
(2.53677 0.00044227 -9.2412e-20)
(2.53656 0.000522553 0)
(2.53629 0.000623296 -2.97198e-20)
(2.53594 0.000751566 0)
(2.53547 0.00091332 0)
(2.53487 0.00112427 0)
(2.53407 0.00138809 0)
(2.53307 0.00174907 0)
(2.5317 0.00218212 0)
(2.53002 0.00284149 -5.20643e-20)
(2.5276 0.00354452 0)
(2.52475 0.00487734 -2.50143e-20)
(2.52034 0.00599044 7.35331e-20)
(2.51537 0.00905745 0)
(2.50699 0.0108989 0)
(2.49798 0.0191795 -4.60836e-20)
(2.48218 0.023645 -4.51626e-20)
(2.46655 0.0500726 4.42146e-20)
(2.44274 0.0665173 4.33698e-20)
(-0.00659133 0.0522304 6.46911e-20)
(-0.0121242 0.00361731 6.42892e-20)
(-0.0138933 -0.00452387 4.25564e-20)
(-0.0166142 -0.00713067 2.11148e-20)
(-0.0182932 -0.0120413 0)
(-0.019196 -0.0188118 -4.17069e-20)
(-0.0188093 -0.0270543 2.06955e-20)
(-0.0169679 -0.0366831 0)
(-0.0134148 -0.0476282 2.046e-20)
(-0.00788614 -0.0598252 0)
(-0.00014068 -0.0731654 -4.03486e-20)
(0.010029 -0.0875456 0)
(0.0228563 -0.102842 -1.99281e-20)
(0.03853 -0.11886 -3.95967e-20)
(0.0572158 -0.13547 3.93397e-20)
(0.0790376 -0.152455 0)
(0.104128 -0.169608 3.88324e-20)
(0.132548 -0.186722 0)
(0.164257 -0.203544 0)
(0.199278 -0.219887 3.80858e-20)
(0.237537 -0.235505 0)
(0.278874 -0.250204 -1.38535e-23)
(0.323134 -0.263787 0)
(0.370067 -0.276095 0)
(0.419468 -0.287003 7.51853e-24)
(0.471083 -0.296412 3.66184e-20)
(0.524566 -0.304244 3.63698e-20)
(0.579644 -0.310466 3.61279e-20)
(0.636018 -0.315089 0)
(0.69336 -0.318124 7.12659e-20)
(0.7514 -0.319635 0)
(0.809844 -0.31969 3.51337e-20)
(0.868428 -0.318372 0)
(0.926909 -0.3158 0)
(0.985059 -0.312078 -3.43688e-20)
(1.04267 -0.307326 0)
(1.09958 -0.301664 3.38485e-20)
(1.15561 -0.295212 -4.68966e-24)
(1.21063 -0.288086 -6.66359e-20)
(1.26453 -0.280399 6.61072e-20)
(1.31721 -0.272257 0)
(1.36859 -0.263758 0)
(1.4186 -0.254992 3.22489e-20)
(1.4672 -0.246041 0)
(1.51434 -0.23698 3.16967e-20)
(1.56001 -0.227874 -3.14236e-20)
(1.6042 -0.218781 -3.11499e-20)
(1.64689 -0.20975 0)
(1.68808 -0.200825 3.06018e-20)
(1.7278 -0.192042 3.03276e-20)
(1.76606 -0.183433 -6.01116e-20)
(1.80286 -0.175021 2.97798e-20)
(1.83825 -0.166828 2.95064e-20)
(1.87224 -0.158869 0)
(1.90488 -0.151156 0)
(1.93618 -0.143699 -2.86897e-20)
(1.96618 -0.136503 0)
(1.99492 -0.129572 0)
(2.02244 -0.122906 5.57607e-20)
(2.04877 -0.116506 5.52253e-20)
(2.07394 -0.11037 0)
(2.09801 -0.104493 0)
(2.121 -0.098871 0)