/*--------------------------------*- C++ -*----------------------------------*\
  =========                 |
  \\      /  F ield         | OpenFOAM: The Open Source CFD Toolbox
   \\    /   O peration     | Website:  https://openfoam.org
    \\  /    A nd           | Version:  7
     \\/     M anipulation  |
\*---------------------------------------------------------------------------*/
FoamFile
{
    version     2.0;
    format      ascii;
    class       volSymmTensorField;
    location    "0.01";
    object      UPrime2Mean;
}
// * * * * * * * * * * * * * * * * * * * * * * * * * * * * * * * * * * * * * //

dimensions      [0 2 -2 0 0 0 0];

internalField   nonuniform List<symmTensor> 
12225
(
(0.00953101 -0.00144059 0 0.00081966 0 0)
(0.180829 -0.00794518 0 0.000754812 0 0)
(0.261219 -0.0110432 0 0.00090056 0 0)
(0.336525 -0.0125894 0 0.000878539 0 0)
(0.457276 -0.0141659 0 0.000799966 0 0)
(0.61694 -0.0156674 0 0.000700502 0 0)
(0.797829 -0.0160825 0 0.00058974 0 0)
(0.985471 -0.0146208 0 0.000373594 0 0)
(1.16157 -0.013654 0 0.000298173 0 0)
(1.33411 -0.00877084 0 0.000138998 0 0)
(1.48075 -0.0129015 0 0.00019708 0 0)
(1.6446 -0.00174097 0 0.000167855 0 0)
(1.78819 -0.0243053 0 0.000651406 0 0)
(1.99444 0.0129889 0 0.00115948 0 0)
(2.23292 -0.0779793 0 0.00582892 0 0)
(2.6659 0.0738828 0 0.0107136 0 0)
(3.395 -0.384751 0 0.082966 0 0)
(5.39922 0.236245 0 0.0503395 0 0)
(0.01069 -0.00122352 0 0.00075412 0 0)
(0.121558 -0.00462458 0 0.000530614 0 0)
(0.132484 -0.00665569 0 0.000987297 0 0)
(0.133474 -0.00720561 0 0.0013647 0 0)
(0.152611 -0.00842019 0 0.00171085 0 0)
(0.182539 -0.0105253 0 0.00201978 0 0)
(0.221206 -0.012944 0 0.00216633 0 0)
(0.270004 -0.0153178 0 0.00225396 0 0)
(0.323995 -0.0165645 0 0.00192714 0 0)
(0.394076 -0.018951 0 0.00188102 0 0)
(0.460489 -0.0183129 0 0.00134276 0 0)
(0.562479 -0.0250481 0 0.00175849 0 0)
(0.639578 -0.0218563 0 0.00137415 0 0)
(0.815441 -0.0465742 0 0.00384063 0 0)
(0.916588 -0.0387272 0 0.0040373 0 0)
(1.33481 -0.139666 0 0.0210393 0 0)
(1.52068 -0.162865 0 0.0219921 0 0)
(2.61524 -0.741207 0 0.248217 0 0)
(0.00698627 -0.00108798 0 0.00107409 0 0)
(0.117661 -0.0068628 0 0.00101985 0 0)
(0.124805 -0.00888579 0 0.00184187 0 0)
(0.11936 -0.00856714 0 0.0025056 0 0)
(0.127322 -0.00859277 0 0.00299972 0 0)
(0.139488 -0.00948106 0 0.00338124 0 0)
(0.153714 -0.0107108 0 0.00377042 0 0)
(0.170698 -0.0119357 0 0.00364802 0 0)
(0.192112 -0.013673 0 0.00375638 0 0)
(0.218861 -0.0148253 0 0.00316443 0 0)
(0.255182 -0.0192173 0 0.0034771 0 0)
(0.300001 -0.0209221 0 0.00288542 0 0)
(0.364519 -0.0339938 0 0.00482485 0 0)
(0.445862 -0.0375668 0 0.00433527 0 0)
(0.575447 -0.0843495 0 0.0152903 0 0)
(0.747268 -0.104522 0 0.0161352 0 0)
(1.01625 -0.294997 0 0.0947888 0 0)
(1.33886 -0.531782 0 0.226877 0 0)
(0.00827582 -0.00194246 0 0.00154024 0 0)
(0.117402 -0.00787484 0 0.00149006 0 0)
(0.123279 -0.00936355 0 0.00219093 0 0)
(0.11781 -0.00904268 0 0.00289054 0 0)
(0.125319 -0.00916017 0 0.00343053 0 0)
(0.136256 -0.0101198 0 0.00389502 0 0)
(0.148544 -0.0115546 0 0.00423985 0 0)
(0.162851 -0.0131637 0 0.00457148 0 0)
(0.180008 -0.0149911 0 0.00459226 0 0)
(0.202347 -0.0178765 0 0.00487839 0 0)
(0.230899 -0.021609 0 0.00495712 0 0)
(0.26987 -0.0288847 0 0.00599895 0 0)
(0.320737 -0.0382767 0 0.00709923 0 0)
(0.393666 -0.0588906 0 0.0114837 0 0)
(0.492012 -0.0895025 0 0.0185878 0 0)
(0.630265 -0.157253 0 0.0427157 0 0)
(0.80732 -0.283841 0 0.103223 0 0)
(0.958354 -0.487185 0 0.255861 0 0)
(0.0102991 -0.00165709 0 0.0019833 0 0)
(0.117084 -0.00916724 0 0.00193478 0 0)
(0.121701 -0.0106855 0 0.00270107 0 0)
(0.116422 -0.0104955 0 0.00365968 0 0)
(0.124106 -0.0107862 0 0.00441315 0 0)
(0.134931 -0.0120765 0 0.00500379 0 0)
(0.146973 -0.013991 0 0.00559945 0 0)
(0.16086 -0.016236 0 0.00593702 0 0)
(0.177475 -0.0190903 0 0.00644005 0 0)
(0.198116 -0.0225129 0 0.00674492 0 0)
(0.22461 -0.028317 0 0.00771834 0 0)
(0.259052 -0.0361112 0 0.00896726 0 0)
(0.304841 -0.0505045 0 0.01239 0 0)
(0.366077 -0.0715237 0 0.0177697 0 0)
(0.447301 -0.11162 0 0.032042 0 0)
(0.548698 -0.176449 0 0.0609881 0 0)
(0.660284 -0.287946 0 0.129888 0 0)
(0.727618 -0.456412 0 0.301889 0 0)
(0.00764727 -0.00242576 0 0.00192901 0 0)
(0.115514 -0.0109135 0 0.00253316 0 0)
(0.119885 -0.0120819 0 0.00355385 0 0)
(0.114766 -0.0117558 0 0.00472178 0 0)
(0.122423 -0.012146 0 0.00562975 0 0)
(0.132906 -0.0136238 0 0.00635809 0 0)
(0.144404 -0.0158846 0 0.00704698 0 0)
(0.157578 -0.0186848 0 0.00774752 0 0)
(0.173168 -0.0221255 0 0.00842619 0 0)
(0.19229 -0.0266918 0 0.00931311 0 0)
(0.216495 -0.0332849 0 0.0106628 0 0)
(0.247274 -0.043313 0 0.0131641 0 0)
(0.287142 -0.0589228 0 0.0177534 0 0)
(0.337466 -0.0835646 0 0.0265269 0 0)
(0.400557 -0.12356 0 0.0441936 0 0)
(0.469284 -0.185213 0 0.0796007 0 0)
(0.53473 -0.279399 0 0.153784 0 0)
(0.556818 -0.395676 0 0.292865 0 0)
(0.0084252 -0.00244766 0 0.00248493 0 0)
(0.112929 -0.0121145 0 0.00335806 0 0)
(0.115173 -0.0129959 0 0.0043572 0 0)
(0.109522 -0.0123758 0 0.00565204 0 0)
(0.116701 -0.0128152 0 0.00679755 0 0)
(0.126298 -0.0145166 0 0.00775518 0 0)
(0.136652 -0.0170645 0 0.00870416 0 0)
(0.148514 -0.0202318 0 0.00964945 0 0)
(0.162595 -0.0242065 0 0.0107197 0 0)
(0.179801 -0.0294594 0 0.0121146 0 0)
(0.201257 -0.0370338 0 0.0142714 0 0)
(0.227834 -0.0482118 0 0.0179641 0 0)
(0.260778 -0.0649829 0 0.0243463 0 0)
(0.299961 -0.0902895 0 0.0359209 0 0)
(0.345123 -0.128072 0 0.0568976 0 0)
(0.388404 -0.182785 0 0.0966169 0 0)
(0.42176 -0.255211 0 0.166065 0 0)
(0.418251 -0.335526 0 0.285238 0 0)
(0.00656458 -0.00232778 0 0.00267312 0 0)
(0.110469 -0.013223 0 0.00368853 0 0)
(0.112787 -0.0138303 0 0.00510129 0 0)
(0.107304 -0.0129484 0 0.00666949 0 0)
(0.114172 -0.0134802 0 0.00810701 0 0)
(0.122859 -0.0153743 0 0.00935482 0 0)
(0.131925 -0.0181063 0 0.0105859 0 0)
(0.142312 -0.0215193 0 0.0119102 0 0)
(0.154689 -0.0258643 0 0.0134469 0 0)
(0.169657 -0.031637 0 0.0154368 0 0)
(0.187865 -0.0397415 0 0.0183803 0 0)
(0.209591 -0.0513472 0 0.0231815 0 0)
(0.235146 -0.0681472 0 0.0312063 0 0)
(0.263447 -0.0922377 0 0.0449925 0 0)
(0.292927 -0.126016 0 0.0684271 0 0)
(0.316588 -0.170809 0 0.108612 0 0)
(0.328282 -0.224482 0 0.172812 0 0)
(0.31197 -0.277384 0 0.271827 0 0)
(0.00792056 -0.00251549 0 0.00302499 0 0)
(0.108242 -0.0142456 0 0.00467266 0 0)
(0.107666 -0.0141702 0 0.0061354 0 0)
(0.101269 -0.0123687 0 0.00774351 0 0)
(0.107439 -0.0124769 0 0.0094028 0 0)
(0.114896 -0.0142576 0 0.0109663 0 0)
(0.122264 -0.0169397 0 0.0125477 0 0)
(0.130614 -0.0202839 0 0.014281 0 0)
(0.140579 -0.0245933 0 0.016301 0 0)
(0.152597 -0.0304383 0 0.0189325 0 0)
(0.167041 -0.0386344 0 0.0227035 0 0)
(0.18383 -0.0501076 0 0.0285992 0 0)
(0.202704 -0.0660657 0 0.0379811 0 0)
(0.222043 -0.0877784 0 0.0533001 0 0)
(0.239901 -0.116269 0 0.0776709 0 0)
(0.250482 -0.151025 0 0.11636 0 0)
(0.250294 -0.188974 0 0.173294 0 0)
(0.229575 -0.221683 0 0.253548 0 0)
(0.00674021 -0.00296433 0 0.0039561 0 0)
(0.108451 -0.0160752 0 0.00570706 0 0)
(0.107934 -0.0158976 0 0.00759244 0 0)
(0.101351 -0.013818 0 0.00943733 0 0)
(0.107093 -0.0137952 0 0.0112804 0 0)
(0.113676 -0.015565 0 0.0130847 0 0)
(0.119807 -0.0182932 0 0.0149875 0 0)
(0.126661 -0.0217275 0 0.0171965 0 0)
(0.134806 -0.0261389 0 0.0199056 0 0)
(0.144471 -0.0320359 0 0.0234396 0 0)
(0.15577 -0.040107 0 0.02827 0 0)
(0.168316 -0.0510428 0 0.0353415 0 0)
(0.181493 -0.0656319 0 0.0459051 0 0)
(0.193566 -0.0844296 0 0.0621377 0 0)
(0.202859 -0.107636 0 0.0864067 0 0)
(0.204969 -0.133767 0 0.122385 0 0)
(0.198565 -0.159929 0 0.17167 0 0)
(0.177282 -0.179268 0 0.236672 0 0)
(0.0099218 -0.00343348 0 0.00390341 0 0)
(0.110474 -0.0178512 0 0.00603373 0 0)
(0.107527 -0.0179503 0 0.00814112 0 0)
(0.0996585 -0.0156597 0 0.0100863 0 0)
(0.104899 -0.0156596 0 0.012078 0 0)
(0.111464 -0.0176959 0 0.0141931 0 0)
(0.117644 -0.0207888 0 0.0165135 0 0)
(0.124204 -0.0245787 0 0.0191914 0 0)
(0.131512 -0.029261 0 0.0224205 0 0)
(0.139665 -0.035227 0 0.0265043 0 0)
(0.148589 -0.0430121 0 0.0319367 0 0)
(0.157781 -0.0531321 0 0.0396447 0 0)
(0.166555 -0.0660909 0 0.0507685 0 0)
(0.173401 -0.0819924 0 0.0670866 0 0)
(0.17693 -0.100437 0 0.0901948 0 0)
(0.174098 -0.11963 0 0.122394 0 0)
(0.16463 -0.136968 0 0.163847 0 0)
(0.144595 -0.147483 0 0.215487 0 0)
(0.0077113 -0.00371736 0 0.00464076 0 0)
(0.107353 -0.0183105 0 0.00710561 0 0)
(0.104568 -0.0182393 0 0.00947464 0 0)
(0.0966518 -0.0154303 0 0.0117318 0 0)
(0.10133 -0.0151063 0 0.0139964 0 0)
(0.107016 -0.0170336 0 0.0164437 0 0)
(0.112199 -0.0200446 0 0.0191575 0 0)
(0.11757 -0.023637 0 0.0222741 0 0)
(0.12326 -0.0278838 0 0.0259762 0 0)
(0.129216 -0.033134 0 0.0305968 0 0)
(0.135311 -0.039877 0 0.036628 0 0)
(0.141104 -0.048495 0 0.0449049 0 0)
(0.145942 -0.059226 0 0.0563697 0 0)
(0.148612 -0.071801 0 0.0723809 0 0)
(0.148121 -0.0855207 0 0.0939032 0 0)
(0.142483 -0.0985871 0 0.122327 0 0)
(0.132127 -0.108958 0 0.157068 0 0)
(0.114452 -0.113022 0 0.198464 0 0)
(0.00859977 -0.00407767 0 0.00466834 0 0)
(0.108523 -0.0194882 0 0.0074352 0 0)
(0.104862 -0.0194259 0 0.00987797 0 0)
(0.0960371 -0.016337 0 0.0122851 0 0)
(0.0998489 -0.0158038 0 0.0148152 0 0)
(0.104629 -0.017626 0 0.0175997 0 0)
(0.108744 -0.0204976 0 0.0206537 0 0)
(0.112795 -0.0237713 0 0.0240499 0 0)
(0.116867 -0.0274535 0 0.0279724 0 0)
(0.120907 -0.0319006 0 0.0328334 0 0)
(0.124815 -0.0375979 0 0.0391709 0 0)
(0.128156 -0.044784 0 0.0477344 0 0)
(0.13031 -0.0534784 0 0.0592154 0 0)
(0.130296 -0.0631559 0 0.0745418 0 0)
(0.127483 -0.0730563 0 0.0941537 0 0)
(0.120625 -0.0815061 0 0.118801 0 0)
(0.110628 -0.0871494 0 0.147543 0 0)
(0.0955136 -0.0871952 0 0.180463 0 0)
(0.00791779 -0.0042808 0 0.00530431 0 0)
(0.107688 -0.0201113 0 0.00894676 0 0)
(0.103972 -0.0198679 0 0.0118986 0 0)
(0.0949649 -0.016481 0 0.014618 0 0)
(0.0983643 -0.0157735 0 0.0173998 0 0)
(0.102407 -0.0174685 0 0.0203985 0 0)
(0.105498 -0.0201773 0 0.0236756 0 0)
(0.108303 -0.0231906 0 0.0273162 0 0)
(0.110995 -0.0265306 0 0.0315598 0 0)
(0.113559 -0.0305245 0 0.0367986 0 0)
(0.115812 -0.0355148 0 0.0434874 0 0)
(0.117285 -0.0415153 0 0.0521547 0 0)
(0.117391 -0.0482944 0 0.063208 0 0)
(0.115433 -0.0551951 0 0.0772103 0 0)
(0.111091 -0.0614814 0 0.0942327 0 0)
(0.10379 -0.0658657 0 0.114644 0 0)
(0.0945885 -0.06753 0 0.137399 0 0)
(0.0821402 -0.0647039 0 0.162549 0 0)
(0.00827531 -0.0037659 0 0.0053113 0 0)
(0.105356 -0.0209917 0 0.00910095 0 0)
(0.100092 -0.0206967 0 0.0124179 0 0)
(0.0903013 -0.0168667 0 0.0155094 0 0)
(0.0930057 -0.0156706 0 0.0185942 0 0)
(0.0961264 -0.0168887 0 0.0218685 0 0)
(0.0981355 -0.0191194 0 0.0254471 0 0)
(0.0997517 -0.0216387 0 0.0294281 0 0)
(0.101109 -0.0243768 0 0.034012 0 0)
(0.102126 -0.0274895 0 0.0395093 0 0)
(0.102612 -0.0311105 0 0.0462026 0 0)
(0.102222 -0.035103 0 0.0544022 0 0)
(0.100563 -0.0391657 0 0.0642859 0 0)
(0.0973111 -0.0427195 0 0.0761385 0 0)
(0.0924515 -0.0452638 0 0.0898716 0 0)
(0.0858978 -0.0459477 0 0.105643 0 0)
(0.0786607 -0.0444586 0 0.12256 0 0)
(0.0696952 -0.0396675 0 0.140642 0 0)
(0.00822074 -0.00347194 0 0.00528175 0 0)
(0.105621 -0.0217688 0 0.00984998 0 0)
(0.0996714 -0.0221137 0 0.0138268 0 0)
(0.0891061 -0.0182486 0 0.0171952 0 0)
(0.0909181 -0.0168738 0 0.0204125 0 0)
(0.0930711 -0.0178754 0 0.0238257 0 0)
(0.0940666 -0.0197565 0 0.0275765 0 0)
(0.0945978 -0.0216973 0 0.0317147 0 0)
(0.0947459 -0.0235609 0 0.0363105 0 0)
(0.0943966 -0.0254563 0 0.0415028 0 0)
(0.0934108 -0.0274705 0 0.0474547 0 0)
(0.0916057 -0.0294568 0 0.0543874 0 0)
(0.0888087 -0.0311623 0 0.0624445 0 0)
(0.0849869 -0.0321445 0 0.0718531 0 0)
(0.0803039 -0.0321088 0 0.0824557 0 0)
(0.0749037 -0.0304738 0 0.0942828 0 0)
(0.0696126 -0.027222 0 0.106484 0 0)
(0.0635755 -0.0215677 0 0.119118 0 0)
(0.0118245 -0.00367995 0 0.00514377 0 0)
(0.108477 -0.0219091 0 0.00923321 0 0)
(0.100339 -0.0222708 0 0.0135872 0 0)
(0.087763 -0.0180758 0 0.0173848 0 0)
(0.087806 -0.0160519 0 0.020763 0 0)
(0.0882596 -0.0162599 0 0.0240742 0 0)
(0.0877188 -0.0171933 0 0.027568 0 0)
(0.0869759 -0.0180173 0 0.0313983 0 0)
(0.0860705 -0.0185636 0 0.0356509 0 0)
(0.0848211 -0.0189266 0 0.0403702 0 0)
(0.0830983 -0.0192394 0 0.0455587 0 0)
(0.0808483 -0.0194734 0 0.0512314 0 0)
(0.0780304 -0.0194945 0 0.0573493 0 0)
(0.0747578 -0.0189949 0 0.0639671 0 0)
(0.0711865 -0.0177783 0 0.0709391 0 0)
(0.0675259 -0.0154607 0 0.0783217 0 0)
(0.0643323 -0.0121044 0 0.0855914 0 0)
(0.0609347 -0.00722192 0 0.0928687 0 0)
(0.00755755 -0.00306841 0 0.00583948 0 0)
(0.101426 -0.0213275 0 0.00933345 0 0)
(0.0940762 -0.0216428 0 0.0125518 0 0)
(0.0823391 -0.017322 0 0.0157193 0 0)
(0.0822188 -0.0150978 0 0.0186868 0 0)
(0.0818779 -0.0149195 0 0.0216929 0 0)
(0.0804838 -0.0153216 0 0.0249498 0 0)
(0.079046 -0.0154839 0 0.0285068 0 0)
(0.0776095 -0.015219 0 0.0323352 0 0)
(0.0759954 -0.0146111 0 0.0363862 0 0)
(0.0741435 -0.0137676 0 0.0406293 0 0)
(0.0720979 -0.0126671 0 0.0450955 0 0)
(0.0698988 -0.0112277 0 0.0497763 0 0)
(0.0677097 -0.00927535 0 0.0546831 0 0)
(0.065664 -0.00674913 0 0.0595987 0 0)
(0.0639518 -0.00349743 0 0.0644742 0 0)
(0.0629008 0.000323108 0 0.06886 0 0)
(0.0619943 0.00491054 0 0.0728678 0 0)
(0.00759805 -0.00294651 0 0.00529547 0 0)
(0.101894 -0.0213011 0 0.00845684 0 0)
(0.0926387 -0.020135 0 0.0112132 0 0)
(0.0797915 -0.0149183 0 0.0139865 0 0)
(0.0790901 -0.0119404 0 0.0165207 0 0)
(0.0781263 -0.0109429 0 0.0188787 0 0)
(0.0761857 -0.0104784 0 0.0212137 0 0)
(0.0743343 -0.00979015 0 0.0236361 0 0)
(0.0726435 -0.00871547 0 0.0261722 0 0)
(0.0709956 -0.00731112 0 0.0287592 0 0)
(0.069399 -0.00566612 0 0.0312758 0 0)
(0.0679425 -0.003807 0 0.0336057 0 0)
(0.0666934 -0.00173767 0 0.0356992 0 0)
(0.0657967 0.000584083 0 0.0376206 0 0)
(0.0653272 0.00312779 0 0.0394086 0 0)
(0.0653931 0.00595431 0 0.0411819 0 0)
(0.0661277 0.00892405 0 0.0428057 0 0)
(0.0671477 0.0121927 0 0.0443681 0 0)
(0.00839475 -0.00397645 0 0.00562578 0 0)
(0.102861 -0.0205197 0 0.00823714 0 0)
(0.0921515 -0.0191122 0 0.0106719 0 0)
(0.078326 -0.0142539 0 0.013093 0 0)
(0.076418 -0.0113431 0 0.015184 0 0)
(0.0744136 -0.0101622 0 0.0170662 0 0)
(0.0717404 -0.00945305 0 0.018935 0 0)
(0.0694619 -0.00848817 0 0.0208243 0 0)
(0.0675856 -0.00705242 0 0.0226466 0 0)
(0.0659621 -0.00523107 0 0.0243211 0 0)
(0.0646129 -0.00321025 0 0.0258464 0 0)
(0.063637 -0.00112521 0 0.0272899 0 0)
(0.0630803 0.000969915 0 0.0287004 0 0)
(0.0630099 0.00311153 0 0.030107 0 0)
(0.0634166 0.00530275 0 0.0314385 0 0)
(0.0643283 0.00760647 0 0.0327028 0 0)
(0.0657844 0.00992035 0 0.0337654 0 0)
(0.0675563 0.0123731 0 0.0346651 0 0)
(0.0103048 -0.00344915 0 0.00475184 0 0)
(0.105153 -0.0184889 0 0.00661974 0 0)
(0.093315 -0.0169914 0 0.00835235 0 0)
(0.0783961 -0.0123266 0 0.009841 0 0)
(0.075615 -0.00950747 0 0.0109851 0 0)
(0.0730028 -0.00821808 0 0.0119734 0 0)
(0.0699981 -0.00736298 0 0.0129118 0 0)
(0.0675802 -0.00640446 0 0.0138175 0 0)
(0.0656658 -0.00521921 0 0.0146784 0 0)
(0.0640447 -0.00385523 0 0.0154643 0 0)
(0.0627449 -0.00240411 0 0.0161614 0 0)
(0.0618831 -0.000923442 0 0.016796 0 0)
(0.0615105 0.000579936 0 0.0173984 0 0)
(0.0616822 0.00213189 0 0.0179909 0 0)
(0.0624117 0.00374113 0 0.0185326 0 0)
(0.0636968 0.00541621 0 0.0190268 0 0)
(0.0655875 0.00709746 0 0.0193939 0 0)
(0.0678295 0.00880307 0 0.0196604 0 0)
(0.00820846 -0.00257191 0 0.00404827 0 0)
(0.101407 -0.0157232 0 0.00515828 0 0)
(0.0884392 -0.0142226 0 0.00663792 0 0)
(0.0736787 -0.0097533 0 0.00804465 0 0)
(0.0712433 -0.00679008 0 0.00926565 0 0)
(0.0688777 -0.0052292 0 0.0103116 0 0)
(0.0662239 -0.00409434 0 0.0111843 0 0)
(0.0643891 -0.00281365 0 0.0119078 0 0)
(0.0633656 -0.00125822 0 0.0125202 0 0)
(0.062941 0.00045152 0 0.01307 0 0)
(0.0630286 0.00215856 0 0.0135769 0 0)
(0.0636214 0.0037696 0 0.0140126 0 0)
(0.0647311 0.00527004 0 0.0143416 0 0)
(0.0663839 0.00668599 0 0.014573 0 0)
(0.0685894 0.0080541 0 0.0147181 0 0)
(0.0712918 0.00940277 0 0.014839 0 0)
(0.074548 0.0107286 0 0.0149192 0 0)
(0.0780777 0.0120596 0 0.0149978 0 0)
(0.00827375 -0.00221103 0 0.00396744 0 0)
(0.0980408 -0.0131237 0 0.00501364 0 0)
(0.0852547 -0.0108921 0 0.00571604 0 0)
(0.0713872 -0.00630846 0 0.00625938 0 0)
(0.0693138 -0.00329791 0 0.00660714 0 0)
(0.0669364 -0.00170247 0 0.0068278 0 0)
(0.0644333 -0.000678764 0 0.00700267 0 0)
(0.0632321 0.000279774 0 0.00720903 0 0)
(0.0632748 0.00137849 0 0.00745329 0 0)
(0.0641618 0.00261821 0 0.00768529 0 0)
(0.0656882 0.00389237 0 0.00786856 0 0)
(0.0677584 0.00509959 0 0.00800423 0 0)
(0.0702947 0.00620138 0 0.00810489 0 0)
(0.0732514 0.0072068 0 0.00818678 0 0)
(0.0765884 0.00812464 0 0.00824332 0 0)
(0.0802572 0.00897609 0 0.00828982 0 0)
(0.0843093 0.00973797 0 0.00830787 0 0)
(0.0886184 0.0104387 0 0.00828337 0 0)
(0.00823755 -0.00309452 0 0.00345799 0 0)
(0.100652 -0.013163 0 0.00448327 0 0)
(0.0859917 -0.0103081 0 0.00499019 0 0)
(0.070675 -0.005862 0 0.00561586 0 0)
(0.0682729 -0.00301972 0 0.00616715 0 0)
(0.0660111 -0.00157993 0 0.00649579 0 0)
(0.0636502 -0.000749765 0 0.00659919 0 0)
(0.0624719 -5.43226e-06 0 0.00658861 0 0)
(0.0623937 0.000858324 0 0.00659909 0 0)
(0.0629913 0.00184467 0 0.00666658 0 0)
(0.0640906 0.00287761 0 0.00674699 0 0)
(0.0657198 0.00388668 0 0.00680786 0 0)
(0.0679627 0.0048423 0 0.00684219 0 0)
(0.0708879 0.00573477 0 0.00685719 0 0)
(0.0745469 0.00655476 0 0.00683853 0 0)
(0.0788582 0.00730047 0 0.00680863 0 0)
(0.0838678 0.00795211 0 0.00674102 0 0)
(0.0893105 0.00854438 0 0.00663343 0 0)
(0.00855873 -0.00284364 0 0.0029364 0 0)
(0.0972995 -0.0104788 0 0.00332294 0 0)
(0.0808686 -0.00730238 0 0.00333412 0 0)
(0.0660595 -0.00350477 0 0.00343726 0 0)
(0.0646624 -0.0012424 0 0.00348255 0 0)
(0.063339 -0.000249051 0 0.00344777 0 0)
(0.0620093 0.000154869 0 0.00343844 0 0)
(0.0619988 0.000492752 0 0.00347069 0 0)
(0.0631767 0.000987997 0 0.00349984 0 0)
(0.0651332 0.00160705 0 0.00349716 0 0)
(0.0677702 0.00222259 0 0.00345462 0 0)
(0.0711782 0.00273928 0 0.00337425 0 0)
(0.0754391 0.0031273 0 0.0032629 0 0)
(0.0805286 0.00339183 0 0.00313047 0 0)
(0.0863891 0.00355041 0 0.00298086 0 0)
(0.0928311 0.00362155 0 0.00284012 0 0)
(0.0998743 0.0036121 0 0.002711 0 0)
(0.107181 0.00357757 0 0.00259249 0 0)
(0.0100498 -0.00258524 0 0.00212811 0 0)
(0.0971766 -0.00862559 0 0.00208509 0 0)
(0.0783329 -0.00651713 0 0.00239858 0 0)
(0.0635233 -0.00304358 0 0.00282029 0 0)
(0.0628578 -0.000647986 0 0.00290521 0 0)
(0.0622751 0.000506201 0 0.00272274 0 0)
(0.061998 0.0011052 0 0.00250966 0 0)
(0.0634712 0.00162095 0 0.00236982 0 0)
(0.0664227 0.00217067 0 0.00226414 0 0)
(0.070243 0.00269787 0 0.00215323 0 0)
(0.0747173 0.00313858 0 0.00203781 0 0)
(0.0798853 0.00347452 0 0.00192746 0 0)
(0.0857844 0.00371302 0 0.0018249 0 0)
(0.0923477 0.00386117 0 0.00173136 0 0)
(0.0994844 0.00391477 0 0.00164078 0 0)
(0.107016 0.00387856 0 0.00155808 0 0)
(0.114983 0.00374275 0 0.0014805 0 0)
(0.123113 0.00355052 0 0.00140592 0 0)
(0.00702606 -0.00168967 0 0.00186552 0 0)
(0.0918666 -0.00384539 0 0.00102581 0 0)
(0.0738771 -0.00214097 0 0.000895767 0 0)
(0.0614468 -0.000463294 0 0.000960224 0 0)
(0.0621421 0.000520714 0 0.000936693 0 0)
(0.0620533 0.000796779 0 0.000871215 0 0)
(0.0621674 0.000753907 0 0.000820001 0 0)
(0.0642438 0.000655101 0 0.000788304 0 0)
(0.0679602 0.000571429 0 0.000762929 0 0)
(0.072635 0.000469247 0 0.000731255 0 0)
(0.0780703 0.000302846 0 0.000690187 0 0)
(0.084343 4.50166e-05 0 0.000643764 0 0)
(0.0914979 -0.000311035 0 0.000597107 0 0)
(0.0994363 -0.000764787 0 0.000554472 0 0)
(0.108027 -0.00131556 0 0.000516979 0 0)
(0.11703 -0.00194746 0 0.000489587 0 0)
(0.126468 -0.00265354 0 0.000475755 0 0)
(0.136 -0.00337388 0 0.000474068 0 0)
(0.00925914 -0.00183789 0 0.0015311 0 0)
(0.090519 -0.00459039 0 0.000905143 0 0)
(0.0698135 -0.00312281 0 0.00102491 0 0)
(0.0584699 -0.00078099 0 0.000997206 0 0)
(0.0603131 0.000462873 0 0.000791679 0 0)
(0.0614389 0.000834715 0 0.000623038 0 0)
(0.0634044 0.00090592 0 0.000522737 0 0)
(0.0678449 0.000871663 0 0.0004474 0 0)
(0.07412 0.000729097 0 0.000375358 0 0)
(0.0813521 0.000460368 0 0.0003057 0 0)
(0.0892462 8.14673e-05 0 0.000246314 0 0)
(0.0978147 -0.000376055 0 0.0002036 0 0)
(0.107009 -0.000881265 0 0.000178645 0 0)
(0.116691 -0.00142529 0 0.000170017 0 0)
(0.126644 -0.0020169 0 0.0001762 0 0)
(0.136692 -0.00267067 0 0.000197843 0 0)
(0.146782 -0.0033863 0 0.000234851 0 0)
(0.156721 -0.00413768 0 0.000280469 0 0)
(0.00769648 -0.000410776 0 0.00070389 0 0)
(0.0859731 0.00101297 0 0.000186932 0 0)
(0.0658708 0.000479071 0 0.00017019 0 0)
(0.0564957 0.000578552 0 0.000187039 0 0)
(0.0599431 0.000235601 0 0.000243319 0 0)
(0.0624404 -0.000358792 0 0.000313482 0 0)
(0.0653677 -0.000989475 0 0.000373167 0 0)
(0.0700739 -0.00164158 0 0.000429678 0 0)
(0.0756537 -0.00233581 0 0.000493407 0 0)
(0.0810014 -0.0030409 0 0.000562657 0 0)
(0.0856413 -0.00370573 0 0.000628896 0 0)
(0.089576 -0.00431669 0 0.000691426 0 0)
(0.0928025 -0.00488209 0 0.000755992 0 0)
(0.095371 -0.00541941 0 0.000827638 0 0)
(0.0970926 -0.00592781 0 0.000904931 0 0)
(0.0980425 -0.00641036 0 0.000988744 0 0)
(0.0980199 -0.00684087 0 0.00107951 0 0)
(0.0973253 -0.00720995 0 0.00116863 0 0)
(0.00901991 -0.000632868 0 0.000662021 0 0)
(0.0913429 -0.000561429 0 0.000217776 0 0)
(0.0808215 -0.000108925 0 0.000159494 0 0)
(0.0789153 0.000412861 0 0.00010762 0 0)
(0.0877891 0.00056264 0 8.53848e-05 0 0)
(0.0951033 0.000630322 0 8.31631e-05 0 0)
(0.101733 0.000745629 0 8.81595e-05 0 0)
(0.10962 0.000900922 0 9.72699e-05 0 0)
(0.119412 0.00106153 0 0.000110083 0 0)
(0.131187 0.00121635 0 0.000126337 0 0)
(0.144853 0.00137999 0 0.000145644 0 0)
(0.160238 0.00157372 0 0.000167385 0 0)
(0.177333 0.00181125 0 0.000190307 0 0)
(0.196192 0.0020862 0 0.000213097 0 0)
(0.217141 0.00237591 0 0.000235184 0 0)
(0.239916 0.00265088 0 0.000256729 0 0)
(0.264945 0.00289402 0 0.000276187 0 0)
(0.291162 0.00310554 0 0.000290852 0 0)
(0.000286095 -0.000613583 6.98238e-22 0.00132236 -1.45149e-21 9.31861e-37)
(0.00278657 -0.00203299 -1.99994e-21 0.00149008 1.3709e-21 9.18827e-37)
(0.00794896 -0.00339095 0 0.0014486 0 0)
(0.0158303 -0.00475269 0 0.00142786 0 0)
(0.0262981 -0.00606383 0 0.00139885 0 0)
(0.0393911 -0.00731753 6.90896e-21 0.00136004 -1.28011e-21 8.65469e-37)
(0.0549361 -0.00848775 0 0.00131234 0 0)
(0.0728145 -0.00955696 0 0.00125578 0 0)
(0.092803 -0.0105028 0 0.00119072 0 0)
(0.114664 -0.0113027 0 0.00111706 0 0)
(0.138116 -0.0119388 -1.24346e-20 0.00103595 1.10206e-21 8.01665e-37)
(0.162811 -0.0123955 0 0.000948789 0 0)
(0.188387 -0.0126542 0 0.000856247 0 0)
(0.214414 -0.0127086 0 0.000760665 0 0)
(0.240467 -0.0125525 0 0.000663697 0 0)
(0.266124 -0.0121861 -1.69017e-20 0.0005674 8.68309e-22 7.40989e-37)
(0.290924 -0.0116279 0 0.000474833 0 0)
(0.314415 -0.0108838 0 0.000387227 0 0)
(0.336203 -0.00997031 0 0.000306447 0 0)
(0.355902 -0.00892941 0 0.000234833 0 0)
(0.373223 -0.00777259 0 0.000172636 0 0)
(0.38797 -0.00655295 0 0.000121281 0 0)
(0.399846 -0.00527673 0 7.996e-05 0 0)
(0.408805 -0.0039844 -2.13401e-20 4.88487e-05 4.88429e-22 6.50311e-37)
(0.414829 -0.0027092 2.16657e-20 2.73427e-05 -4.47658e-22 6.39528e-37)
(0.41789 -0.00147345 -2.19459e-20 1.44928e-05 4.09095e-22 6.28867e-37)
(0.418121 -0.00030983 -2.21831e-20 9.24293e-06 3.7294e-22 6.18328e-37)
(0.415614 0.00076386 0 1.02009e-05 0 0)
(0.410614 0.00174992 0 1.61666e-05 0 0)
(0.403352 0.00259582 2.26627e-20 2.54703e-05 -2.79053e-22 5.87447e-37)
(0.394059 0.00333338 2.27542e-20 3.71238e-05 -2.52576e-22 5.77398e-37)
(0.383091 0.00394639 0 4.987e-05 0 0)
(0.370664 0.00442144 0 6.23573e-05 0 0)
(0.357082 0.00478739 2.28622e-20 7.42713e-05 -1.86889e-22 5.47981e-37)
(0.342664 0.00503877 0 8.47038e-05 0 0)
(0.327643 0.00519023 0 9.33746e-05 0 0)
(0.312264 0.00524939 -2.2772e-20 9.99409e-05 1.39146e-22 5.19658e-37)
(0.296745 0.00523074 0 0.000104404 0 0)
(0.281276 0.0051458 -2.26306e-20 0.000106795 1.15396e-22 5.01378e-37)
(0.26602 0.00500637 -4.50822e-20 0.000107253 2.11021e-22 1.96968e-36)
(0.251114 0.00482364 0 0.000105987 0 0)
(0.23667 0.00460795 0 0.000103245 0 0)
(0.222775 0.00436859 0 9.92918e-05 0 0)
(0.209495 0.00411372 0 9.43959e-05 0 0)
(0.196875 0.00385034 0 8.88112e-05 0 0)
(0.184943 0.00358432 -4.36498e-20 8.277e-05 1.32188e-22 1.76461e-36)
(0.173714 0.00332046 -4.33705e-20 7.64768e-05 1.23738e-22 1.73207e-36)
(0.16319 0.00306258 -4.30836e-20 7.01063e-05 1.16188e-22 1.69999e-36)
(0.15336 0.00281361 0 6.38017e-05 0 0)
(0.14421 0.00257573 4.24914e-20 5.76772e-05 -1.03294e-22 1.63721e-36)
(0.135716 0.00235044 0 5.1819e-05 0 0)
(0.127851 0.0021387 -4.18803e-20 4.62897e-05 9.26856e-23 1.57624e-36)
(0.120585 0.00194102 -4.15694e-20 4.11304e-05 8.80385e-23 1.54643e-36)
(0.113886 0.00175752 0 3.63647e-05 0 0)
(0.107718 0.00158806 0 3.20017e-05 0 0)
(0.102049 0.00143226 0 2.80394e-05 0 0)
(0.0968452 0.00128958 -4.0301e-20 2.44668e-05 7.25376e-23 1.43156e-36)
(0.0920728 0.00115937 0 2.12667e-05 0 0)
(0.0877001 0.0010409 0 1.84172e-05 0 0)
(0.0836967 0.000933421 0 1.5894e-05 0 0)
(0.0800335 0.000836128 0 1.36709e-05 0 0)
(0.0766832 0.000748252 0 1.17216e-05 0 0)
(0.07362 0.000669021 0 1.00198e-05 0 0)
(0.0708201 0.000597708 0 8.54019e-06 0 0)
(0.0682611 0.000533603 0 7.25862e-06 0 0)
(0.0659226 0.000476053 3.73769e-20 6.15267e-06 -4.76822e-23 1.19776e-36)
(0.0637854 0.000424434 0 5.20143e-06 0 0)
(0.0618322 0.00037818 0 4.38594e-06 0 0)
(0.060047 0.000336756 -3.63953e-20 3.68889e-06 4.11911e-23 1.12702e-36)
(0.0584149 0.000299683 -3.6068e-20 3.09484e-06 3.91829e-23 1.1042e-36)
(0.0569227 0.000266512 0 2.58992e-06 0 0)
(0.0555581 0.000236847 3.5414e-20 2.16195e-06 -3.53879e-23 1.05968e-36)
(0.0543098 0.000210317 -3.50873e-20 1.80005e-06 3.3598e-23 1.03797e-36)
(0.0531677 0.0001866 0 1.49486e-06 0 0)
(0.0521227 0.000165389 3.44349e-20 1.23805e-06 -3.02275e-23 9.95623e-37)
(0.0511661 0.000146427 0 1.02251e-06 0 0)
(0.0502905 0.000129465 0 8.41997e-07 0 0)
(0.0494888 0.000114296 -3.34596e-20 6.91218e-07 2.56777e-23 9.34732e-37)
(0.0487547 0.00010072 0 5.65537e-07 0 0)
(0.0480825 8.85733e-05 3.28123e-20 4.61077e-07 -2.29669e-23 8.95837e-37)
(0.047467 7.76939e-05 0 3.7444e-07 0 0)
(0.0469035 6.79525e-05 -3.21678e-20 3.02808e-07 2.05025e-23 8.5826e-37)
(0.0463875 5.92191e-05 -3.18468e-20 2.43723e-07 1.93582e-23 8.39954e-37)
(0.0459153 5.13947e-05 -3.15266e-20 1.9517e-07 1.82725e-23 8.21965e-37)
(0.0454832 4.43724e-05 -6.24147e-20 1.55378e-07 3.44819e-23 3.21715e-36)
(0.045088 3.80742e-05 6.17781e-20 1.22912e-07 -3.25268e-23 3.14768e-36)
(0.0447268 3.24153e-05 0 9.65077e-08 0 0)
(0.0443969 2.73395e-05 0 7.51648e-08 0 0)
(0.0440956 2.27708e-05 0 5.799e-08 0 0)
(0.0438208 1.86644e-05 5.9253e-20 4.42695e-08 -2.57116e-23 2.88173e-36)
(0.0435704 1.49735e-05 5.86275e-20 3.33987e-08 -2.42451e-23 2.81815e-36)
(0.0433427 1.16816e-05 -5.80045e-20 2.49325e-08 2.2868e-23 2.7557e-36)
(0.0431356 8.76777e-06 0 1.84565e-08 0 0)
(0.0429476 6.24522e-06 5.67664e-20 1.36945e-08 -2.0405e-23 2.63413e-36)
(0.0427772 4.11815e-06 5.61514e-20 1.03641e-08 -1.93105e-23 2.57497e-36)
(0.0426231 2.27849e-06 5.55391e-20 8.09249e-09 -1.83061e-23 2.51688e-36)
(0.0424839 5.47515e-07 0 6.51329e-09 0 0)
(0.0423586 -1.12779e-06 0 5.41545e-09 0 0)
(0.0422464 -2.88294e-06 0 4.69872e-09 0 0)
(0.0421468 -4.93194e-06 5.31188e-20 4.34436e-09 -1.51588e-23 2.29484e-36)
(0.0420598 -7.2835e-06 0 4.51078e-09 0 0)
(0.0419854 -9.94246e-06 0 5.38149e-09 0 0)
(0.0419241 -1.31662e-05 -5.13366e-20 7.17126e-09 1.35506e-23 2.13874e-36)
(0.0418769 -1.67996e-05 0 1.01922e-08 0 0)
(0.0418434 -2.03364e-05 0 1.44871e-08 0 0)
(0.0418227 -2.34036e-05 -4.95845e-20 1.96047e-08 1.21971e-23 1.99113e-36)
(0.0418136 -2.58135e-05 0 2.47998e-08 0 0)
(0.0418146 -2.75423e-05 0 2.93964e-08 0 0)
(0.0418241 -2.85842e-05 4.7862e-20 3.28105e-08 -1.06025e-23 1.85162e-36)
(0.0418406 -2.90186e-05 4.72943e-20 3.47643e-08 -1.00322e-23 1.80685e-36)
(0.0418628 -2.89774e-05 0 3.53479e-08 0 0)
(0.0418897 -2.86321e-05 -4.61682e-20 3.49356e-08 8.9249e-24 1.71984e-36)
(0.0419205 -2.81197e-05 0 3.3947e-08 0 0)
(0.0419547 -2.75517e-05 4.50548e-20 3.27288e-08 -7.92423e-24 1.6361e-36)
(0.0419922 -2.69809e-05 0 3.14787e-08 0 0)
(0.0420328 -2.64413e-05 4.39539e-20 3.0294e-08 -7.06326e-24 1.55553e-36)
(0.0420762 -2.5939e-05 4.34082e-20 2.92072e-08 -6.68646e-24 1.5164e-36)
(0.0421224 -2.54782e-05 0 2.82187e-08 0 0)
(0.0421712 -2.50606e-05 0 2.73332e-08 0 0)
(0.0422225 -2.468e-05 0 2.65323e-08 0 0)
(0.0422763 -2.43353e-05 0 2.5812e-08 0 0)
(0.0423323 -2.40167e-05 0 2.51535e-08 0 0)
(0.0423907 -2.3722e-05 0 2.45489e-08 0 0)
(0.0424512 -2.34519e-05 0 2.39966e-08 0 0)
(0.0425138 -2.32043e-05 3.91577e-20 2.34929e-08 -4.52173e-24 1.22963e-36)
(0.0425784 -2.29849e-05 -3.86408e-20 2.30423e-08 4.32691e-24 1.19688e-36)
(0.0426448 -2.27864e-05 0 2.26359e-08 0 0)
(0.0427131 -2.26134e-05 0 2.22745e-08 0 0)
(0.0427831 -2.24579e-05 0 2.19485e-08 0 0)
(0.0428549 -2.23243e-05 0 2.16594e-08 0 0)
(0.0429283 -2.22053e-05 -7.22061e-20 2.1399e-08 7.13759e-24 4.17107e-36)
(0.0430034 -2.21051e-05 0 2.11691e-08 0 0)
(0.0430801 -2.20169e-05 7.02191e-20 2.09621e-08 -6.68513e-24 3.94162e-36)
(0.0431585 -2.19456e-05 -6.92346e-20 2.07816e-08 6.48253e-24 3.83042e-36)
(0.0432383 -2.18846e-05 0 2.06209e-08 0 0)
(0.0433198 -2.18386e-05 0 2.04834e-08 0 0)
(0.0434027 -2.18015e-05 0 2.0363e-08 0 0)
(0.0434872 -2.17782e-05 6.53564e-20 2.02625e-08 -5.84745e-24 3.40817e-36)
(0.0435731 -2.17676e-05 6.44015e-20 2.01843e-08 -5.72704e-24 3.30807e-36)
(0.0436605 -2.17701e-05 0 2.01243e-08 0 0)
(0.0437494 -2.17856e-05 6.2509e-20 2.00861e-08 -5.51565e-24 3.11417e-36)
(0.0438398 -2.18072e-05 6.15714e-20 2.00569e-08 -5.42291e-24 3.0203e-36)
(0.0439317 -2.18367e-05 -6.06394e-20 2.00395e-08 5.33298e-24 2.92845e-36)
(0.0440252 -2.18693e-05 0 2.00271e-08 0 0)
(0.0441202 -2.19091e-05 0 2.0026e-08 0 0)
(0.0442168 -2.19528e-05 -5.78773e-20 2.00321e-08 5.07559e-24 2.66464e-36)
(0.0443149 -2.20044e-05 0 2.00514e-08 0 0)
(0.0444146 -2.20613e-05 0 2.00806e-08 0 0)
(0.0445159 -2.21263e-05 0 2.01242e-08 0 0)
(0.0446188 -2.21977e-05 0 2.01801e-08 0 0)
(0.0447233 -2.2278e-05 5.33828e-20 2.02527e-08 -4.65434e-24 2.26226e-36)