/*--------------------------------*- C++ -*----------------------------------*\
  =========                 |
  \\      /  F ield         | OpenFOAM: The Open Source CFD Toolbox
   \\    /   O peration     | Website:  https://openfoam.org
    \\  /    A nd           | Version:  7
     \\/     M anipulation  |
\*---------------------------------------------------------------------------*/
FoamFile
{
    version     2.0;
    format      ascii;
    class       volScalarField;
    location    "0.107";
    object      pPrime2Mean;
}
// * * * * * * * * * * * * * * * * * * * * * * * * * * * * * * * * * * * * * //

dimensions      [0 4 -4 0 0 0 0];

internalField   nonuniform List<scalar> 
12225
(
3.37865e+06
3.32506e+06
3.26969e+06
3.21622e+06
3.16484e+06
3.11538e+06
3.06772e+06
3.02172e+06
2.97723e+06
2.93411e+06
2.89217e+06
2.85122e+06
2.81101e+06
2.77126e+06
2.73154e+06
2.6912e+06
2.64911e+06
2.60241e+06
3.3787e+06
3.32509e+06
3.26971e+06
3.21625e+06
3.16487e+06
3.11542e+06
3.06776e+06
3.02177e+06
2.97729e+06
2.93418e+06
2.89226e+06
2.85134e+06
2.81118e+06
2.77149e+06
2.73188e+06
2.69175e+06
2.65014e+06
2.60476e+06
3.37878e+06
3.32515e+06
3.26977e+06
3.21632e+06
3.16494e+06
3.11549e+06
3.06785e+06
3.02188e+06
2.97743e+06
2.93435e+06
2.89247e+06
2.85161e+06
2.81154e+06
2.77199e+06
2.73262e+06
2.69292e+06
2.65221e+06
2.60963e+06
3.37889e+06
3.32525e+06
3.26987e+06
3.21642e+06
3.16505e+06
3.11563e+06
3.068e+06
3.02206e+06
2.97765e+06
2.93462e+06
2.89282e+06
2.85206e+06
2.81214e+06
2.77281e+06
2.73379e+06
2.69473e+06
2.65528e+06
2.61544e+06
3.37902e+06
3.32539e+06
3.27002e+06
3.21657e+06
3.16522e+06
3.11582e+06
3.06823e+06
3.02233e+06
2.97798e+06
2.93503e+06
2.89333e+06
2.85271e+06
2.813e+06
2.77398e+06
2.73544e+06
2.69718e+06
2.65912e+06
2.62173e+06
3.37922e+06
3.32559e+06
3.27022e+06
3.21679e+06
3.16546e+06
3.11608e+06
3.06854e+06
3.0227e+06
2.97842e+06
2.93558e+06
2.89402e+06
2.85359e+06
2.81415e+06
2.77552e+06
2.73757e+06
2.70022e+06
2.66358e+06
2.62825e+06
3.37947e+06
3.32584e+06
3.27048e+06
3.21707e+06
3.16577e+06
3.11644e+06
3.06895e+06
3.02318e+06
2.97901e+06
2.9363e+06
2.89492e+06
2.85473e+06
2.81561e+06
2.77745e+06
2.74017e+06
2.70378e+06
2.66849e+06
2.63489e+06
3.37979e+06
3.32618e+06
3.27083e+06
3.21743e+06
3.16617e+06
3.11689e+06
3.06947e+06
3.0238e+06
2.97976e+06
2.93721e+06
2.89605e+06
2.85615e+06
2.81742e+06
2.77978e+06
2.74321e+06
2.70779e+06
2.67376e+06
2.64159e+06
3.38022e+06
3.3266e+06
3.27126e+06
3.21789e+06
3.16666e+06
3.11745e+06
3.07012e+06
3.02457e+06
2.98068e+06
2.93833e+06
2.89742e+06
2.85786e+06
2.81957e+06
2.7825e+06
2.74668e+06
2.7122e+06
2.6793e+06
2.64832e+06
3.38073e+06
3.32713e+06
3.27179e+06
3.21845e+06
3.16728e+06
3.11814e+06
3.07092e+06
3.02551e+06
2.9818e+06
2.93968e+06
2.89907e+06
2.85988e+06
2.82206e+06
2.7856e+06
2.75052e+06
2.71694e+06
2.68504e+06
2.65508e+06
3.38148e+06
3.32779e+06
3.27245e+06
3.21913e+06
3.16802e+06
3.11897e+06
3.07188e+06
3.02663e+06
2.98313e+06
2.94127e+06
2.90099e+06
2.86221e+06
2.82489e+06
2.78904e+06
2.7547e+06
2.72196e+06
2.69095e+06
2.66184e+06
3.38217e+06
3.32851e+06
3.27316e+06
3.21988e+06
3.16883e+06
3.11988e+06
3.07292e+06
3.02784e+06
2.98455e+06
2.94296e+06
2.903e+06
2.86462e+06
2.82779e+06
2.7925e+06
2.7588e+06
2.72676e+06
2.69647e+06
2.66804e+06
3.38312e+06
3.32935e+06
3.27399e+06
3.22073e+06
3.16975e+06
3.1209e+06
3.07409e+06
3.0292e+06
2.98614e+06
2.94484e+06
2.90522e+06
2.86725e+06
2.8309e+06
2.79616e+06
2.76307e+06
2.73167e+06
2.70202e+06
2.67418e+06
3.38437e+06
3.33047e+06
3.27508e+06
3.22185e+06
3.17096e+06
3.12225e+06
3.07562e+06
3.03096e+06
2.98819e+06
2.94723e+06
2.90802e+06
2.87053e+06
2.83472e+06
2.80058e+06
2.76814e+06
2.73741e+06
2.70841e+06
2.68116e+06
3.386e+06
3.33195e+06
3.27651e+06
3.22333e+06
3.17254e+06
3.12401e+06
3.0776e+06
3.03323e+06
2.9908e+06
2.95025e+06
2.91152e+06
2.87456e+06
2.83935e+06
2.80586e+06
2.77408e+06
2.74402e+06
2.71566e+06
2.68899e+06
3.38804e+06
3.33384e+06
3.27836e+06
3.22524e+06
3.1746e+06
3.12627e+06
3.08013e+06
3.0361e+06
2.99409e+06
2.95401e+06
2.91581e+06
2.87944e+06
2.84485e+06
2.81202e+06
2.78092e+06
2.75151e+06
2.72377e+06
2.69765e+06
3.39062e+06
3.33622e+06
3.28071e+06
3.22766e+06
3.17719e+06
3.12911e+06
3.08331e+06
3.03967e+06
2.99811e+06
2.95855e+06
2.92093e+06
2.88517e+06
2.85123e+06
2.81905e+06
2.7886e+06
2.75982e+06
2.73265e+06
2.70703e+06
3.39354e+06
3.33904e+06
3.28354e+06
3.23062e+06
3.18036e+06
3.13258e+06
3.08714e+06
3.04394e+06
3.00288e+06
2.96387e+06
2.92683e+06
2.89168e+06
2.85837e+06
2.82682e+06
2.79697e+06
2.76875e+06
2.74211e+06
2.71695e+06
3.39674e+06
3.34218e+06
3.28675e+06
3.23401e+06
3.18401e+06
3.13657e+06
3.09154e+06
3.0488e+06
3.00825e+06
2.96978e+06
2.9333e+06
2.89874e+06
2.86601e+06
2.83502e+06
2.80571e+06
2.778e+06
2.7518e+06
2.72705e+06
3.39897e+06
3.34456e+06
3.2893e+06
3.23677e+06
3.18702e+06
3.13987e+06
3.09517e+06
3.05278e+06
3.0126e+06
2.97453e+06
2.93845e+06
2.90429e+06
2.87195e+06
2.84134e+06
2.81239e+06
2.785e+06
2.7591e+06
2.73462e+06
3.40017e+06
3.34603e+06
3.29096e+06
3.23861e+06
3.18905e+06
3.14211e+06
3.09763e+06
3.05547e+06
3.01554e+06
2.97771e+06
2.94189e+06
2.90797e+06
2.87587e+06
2.84549e+06
2.81675e+06
2.78956e+06
2.76384e+06
2.7395e+06
3.4011e+06
3.34704e+06
3.29212e+06
3.23992e+06
3.19053e+06
3.14374e+06
3.09942e+06
3.05744e+06
3.01768e+06
2.98003e+06
2.94438e+06
2.91063e+06
2.87869e+06
2.84847e+06
2.81987e+06
2.79281e+06
2.7672e+06
2.74297e+06
3.40142e+06
3.34765e+06
3.2929e+06
3.24084e+06
3.19157e+06
3.14491e+06
3.10071e+06
3.05886e+06
3.01922e+06
2.98169e+06
2.94616e+06
2.91253e+06
2.8807e+06
2.85058e+06
2.82208e+06
2.7951e+06
2.76958e+06
2.74542e+06
3.40169e+06
3.34804e+06
3.29342e+06
3.24148e+06
3.1923e+06
3.14573e+06
3.10162e+06
3.05985e+06
3.0203e+06
2.98286e+06
2.94741e+06
2.91386e+06
2.88211e+06
2.85206e+06
2.82362e+06
2.79671e+06
2.77124e+06
2.74712e+06
3.40181e+06
3.34828e+06
3.29377e+06
3.24191e+06
3.19281e+06
3.1463e+06
3.10225e+06
3.06054e+06
3.02105e+06
2.98366e+06
2.94827e+06
2.91478e+06
2.88308e+06
2.85308e+06
2.82468e+06
2.79781e+06
2.77238e+06
2.74829e+06
3.40169e+06
3.34839e+06
3.29398e+06
3.24219e+06
3.19314e+06
3.14668e+06
3.10268e+06
3.061e+06
3.02155e+06
2.9842e+06
2.94885e+06
2.91539e+06
2.88373e+06
2.85376e+06
2.8254e+06
2.79855e+06
2.77314e+06
2.74908e+06
3.40161e+06
3.34845e+06
3.29411e+06
3.24237e+06
3.19335e+06
3.14692e+06
3.10295e+06
3.0613e+06
3.02188e+06
2.98455e+06
2.94923e+06
2.91579e+06
2.88415e+06
2.8542e+06
2.82585e+06
2.79903e+06
2.77363e+06
2.74958e+06
3.40158e+06
3.34848e+06
3.29419e+06
3.24247e+06
3.19348e+06
3.14707e+06
3.10311e+06
3.06149e+06
3.02207e+06
2.98477e+06
2.94945e+06
2.91603e+06
2.8844e+06
2.85447e+06
2.82613e+06
2.79931e+06
2.77392e+06
2.74989e+06
3.40157e+06
3.3485e+06
3.29423e+06
3.24253e+06
3.19355e+06
3.14715e+06
3.1032e+06
3.06158e+06
3.02218e+06
2.98488e+06
2.94958e+06
2.91616e+06
2.88454e+06
2.85461e+06
2.82628e+06
2.79947e+06
2.77408e+06
2.75005e+06
3.40157e+06
3.34851e+06
3.29425e+06
3.24256e+06
3.19358e+06
3.14718e+06
3.10324e+06
3.06162e+06
3.02222e+06
2.98493e+06
2.94963e+06
2.91621e+06
2.88459e+06
2.85467e+06
2.82634e+06
2.79953e+06
2.77415e+06
2.75012e+06
2.19901e+06
2.19883e+06
2.19848e+06
2.19794e+06
2.19722e+06
2.19631e+06
2.19521e+06
2.19392e+06
2.19242e+06
2.19073e+06
2.18884e+06
2.18674e+06
2.18443e+06
2.18192e+06
2.1792e+06
2.17628e+06
2.17314e+06
2.1698e+06
2.16625e+06
2.16248e+06
2.15851e+06
2.15433e+06
2.14995e+06
2.14536e+06
2.14056e+06
2.13556e+06
2.13037e+06
2.12497e+06
2.11937e+06
2.11358e+06
2.1076e+06
2.10143e+06
2.09506e+06
2.08852e+06
2.08179e+06
2.07488e+06
2.06779e+06
2.06053e+06
2.0531e+06
2.0455e+06
2.03773e+06
2.0298e+06
2.02171e+06
2.01346e+06
2.00506e+06
1.99651e+06
1.9878e+06
1.97895e+06
1.96996e+06
1.96083e+06
1.95156e+06
1.94215e+06
1.93261e+06
1.92294e+06
1.91315e+06
1.90323e+06
1.89319e+06
1.88303e+06
1.87275e+06
1.86235e+06
1.85185e+06
1.84123e+06
1.83051e+06
1.81968e+06
1.80875e+06
1.79772e+06
1.78659e+06
1.77536e+06
1.76403e+06
1.75262e+06
1.74111e+06
1.72951e+06
1.71783e+06
1.70606e+06
1.6942e+06
1.68227e+06
1.67025e+06
1.65815e+06
1.64598e+06
1.63373e+06
1.62141e+06
1.60901e+06
1.59655e+06
1.58401e+06
1.5714e+06
1.55873e+06
1.546e+06
1.5332e+06
1.52033e+06
1.50741e+06
1.49442e+06
1.48138e+06
1.46828e+06
1.45513e+06
1.44192e+06
1.42866e+06
1.41534e+06
1.40198e+06
1.38857e+06
1.37511e+06
1.3616e+06
1.34805e+06
1.33445e+06
1.32081e+06
1.30713e+06
1.2934e+06
1.27964e+06
1.26584e+06
1.252e+06
1.23813e+06
1.22422e+06
1.21028e+06
1.19631e+06
1.18231e+06
1.16828e+06
1.15422e+06
1.14013e+06
1.12602e+06
1.11189e+06
1.09773e+06
1.08356e+06
1.06936e+06
1.05515e+06
1.04092e+06
1.02668e+06
1.01243e+06
998159
983883
969598
955307
941011
926712
912412
898112
883815
869521
855234
840955
826687
812430
798187
783961
769754
755567
741403
727264
713153
699072
685023
671009
657033
643097
629203
615355
601555
587806
574111
560474
546896
533382
519934
506556
493251
480023
466876
453813
440839
427957
415173
402491
389917
377456
365115
352902
340827
328901
317141
305570
294230
283209
2.1998e+06
2.19963e+06
2.19927e+06
2.19873e+06
2.19801e+06
2.19709e+06
2.19598e+06
2.19468e+06
2.19318e+06
2.19147e+06
2.18957e+06
2.18746e+06
2.18514e+06
2.18262e+06
2.17989e+06
2.17695e+06
2.1738e+06
2.17044e+06
2.16687e+06
2.16309e+06
2.1591e+06
2.15491e+06
2.15051e+06
2.1459e+06
2.14109e+06
2.13607e+06
2.13086e+06
2.12544e+06
2.11983e+06
2.11402e+06
2.10802e+06
2.10183e+06
2.09546e+06
2.0889e+06
2.08215e+06
2.07523e+06
2.06813e+06
2.06085e+06
2.0534e+06
2.04579e+06
2.03801e+06
2.03007e+06
2.02196e+06
2.0137e+06
2.00529e+06
1.99673e+06
1.98801e+06
1.97915e+06
1.97015e+06
1.96101e+06
1.95173e+06
1.94231e+06
1.93277e+06
1.92309e+06
1.91329e+06
1.90336e+06
1.89331e+06
1.88314e+06
1.87286e+06
1.86246e+06
1.85195e+06
1.84133e+06
1.8306e+06
1.81977e+06
1.80883e+06
1.79779e+06
1.78666e+06
1.77542e+06
1.7641e+06
1.75267e+06
1.74116e+06
1.72956e+06
1.71788e+06
1.7061e+06
1.69425e+06
1.68231e+06
1.67029e+06
1.65819e+06
1.64601e+06
1.63376e+06
1.62144e+06
1.60904e+06
1.59657e+06
1.58403e+06
1.57143e+06
1.55875e+06
1.54602e+06
1.53321e+06
1.52035e+06
1.50742e+06
1.49444e+06
1.4814e+06
1.4683e+06
1.45514e+06
1.44193e+06
1.42867e+06
1.41535e+06
1.40199e+06
1.38858e+06
1.37511e+06
1.36161e+06
1.34805e+06
1.33446e+06
1.32081e+06
1.30713e+06
1.29341e+06
1.27965e+06
1.26584e+06
1.25201e+06
1.23813e+06
1.22423e+06
1.21028e+06
1.19631e+06
1.18231e+06
1.16828e+06
1.15422e+06
1.14013e+06
1.12602e+06
1.11189e+06
1.09773e+06
1.08356e+06
1.06936e+06
1.05515e+06
1.04092e+06
1.02668e+06
1.01243e+06
998160
983883
969599
955307
941011
926712
912412
898112
883815
869522
855235
840956
826687
812430
798188
783961
769754
755567
741403
727264
713153
699072
685023
671009
657033
643097
629203
615355
601555
587806
574111
560474
546896
533382
519934
506556
493251
480023
466876
453813
440838
427956
415172
402489
389914
377453
365111
352897
340820
328892
317127
305549
294192
283119
2.2014e+06
2.20122e+06
2.20086e+06
2.20031e+06
2.19958e+06
2.19865e+06
2.19753e+06
2.19621e+06
2.19469e+06
2.19297e+06
2.19104e+06
2.18891e+06
2.18657e+06
2.18402e+06
2.18126e+06
2.17829e+06
2.17511e+06
2.17172e+06
2.16812e+06
2.16431e+06
2.16029e+06
2.15606e+06
2.15163e+06
2.14698e+06
2.14214e+06
2.13709e+06
2.13184e+06
2.12639e+06
2.12074e+06
2.1149e+06
2.10887e+06
2.10265e+06
2.09624e+06
2.08965e+06
2.08287e+06
2.07592e+06
2.06879e+06
2.06149e+06
2.05401e+06
2.04637e+06
2.03857e+06
2.0306e+06
2.02247e+06
2.01419e+06
2.00575e+06
1.99716e+06
1.98843e+06
1.97955e+06
1.97053e+06
1.96137e+06
1.95207e+06
1.94264e+06
1.93307e+06
1.92338e+06
1.91356e+06
1.90362e+06
1.89356e+06
1.88338e+06
1.87308e+06
1.86267e+06
1.85215e+06
1.84151e+06
1.83077e+06
1.81993e+06
1.80899e+06
1.79794e+06
1.7868e+06
1.77555e+06
1.76422e+06
1.75279e+06
1.74127e+06
1.72967e+06
1.71797e+06
1.70619e+06
1.69433e+06
1.68239e+06
1.67036e+06
1.65826e+06
1.64608e+06
1.63383e+06
1.6215e+06
1.6091e+06
1.59662e+06
1.58408e+06
1.57147e+06
1.5588e+06
1.54606e+06
1.53325e+06
1.52038e+06
1.50746e+06
1.49447e+06
1.48142e+06
1.46832e+06
1.45516e+06
1.44195e+06
1.42869e+06
1.41537e+06
1.40201e+06
1.38859e+06
1.37513e+06
1.36162e+06
1.34807e+06
1.33447e+06
1.32083e+06
1.30714e+06
1.29342e+06
1.27965e+06
1.26585e+06
1.25201e+06
1.23814e+06
1.22423e+06
1.21029e+06
1.19632e+06
1.18231e+06
1.16828e+06
1.15422e+06
1.14014e+06
1.12603e+06
1.11189e+06
1.09774e+06
1.08356e+06
1.06937e+06
1.05515e+06
1.04093e+06
1.02668e+06
1.01243e+06
998161
983884
969600
955308
941012
926713
912413
898113
883815
869522
855235
840956
826687
812430
798188
783962
769754
755567
741403
727264
713153
699072
685023
671009
657033
643097
629203
615355
601555
587806
574111
560473
546896
533381
519933
506555
493250
480022
466875
453811
440836
427954
415169
402486
389910
377447
365104
352887
340807
328873
317101
305508
294122
282978
2.2038e+06
2.20362e+06
2.20325e+06
2.20269e+06
2.20194e+06
2.201e+06
2.19986e+06
2.19851e+06
2.19697e+06
2.19521e+06
2.19326e+06
2.19109e+06
2.18871e+06
2.18612e+06
2.18332e+06
2.18031e+06
2.17709e+06
2.17365e+06
2.17e+06
2.16614e+06
2.16207e+06
2.15779e+06
2.1533e+06
2.14861e+06
2.14371e+06
2.13861e+06
2.13331e+06
2.12781e+06
2.12211e+06
2.11622e+06
2.11014e+06
2.10387e+06
2.09742e+06
2.09078e+06
2.08396e+06
2.07696e+06
2.06978e+06
2.06244e+06
2.05492e+06
2.04724e+06
2.0394e+06
2.03139e+06
2.02323e+06
2.01491e+06
2.00644e+06
1.99782e+06
1.98905e+06
1.98014e+06
1.97109e+06
1.9619e+06
1.95258e+06
1.94312e+06
1.93353e+06
1.92382e+06
1.91398e+06
1.90401e+06
1.89393e+06
1.88373e+06
1.87341e+06
1.86298e+06
1.85244e+06
1.84179e+06
1.83104e+06
1.82018e+06
1.80922e+06
1.79816e+06
1.787e+06
1.77575e+06
1.7644e+06
1.75297e+06
1.74144e+06
1.72982e+06
1.71812e+06
1.70633e+06
1.69446e+06
1.68251e+06
1.67048e+06
1.65837e+06
1.64618e+06
1.63392e+06
1.62158e+06
1.60918e+06
1.5967e+06
1.58415e+06
1.57154e+06
1.55886e+06
1.54611e+06
1.53331e+06
1.52043e+06
1.5075e+06
1.49451e+06
1.48146e+06
1.46836e+06
1.4552e+06
1.44199e+06
1.42872e+06
1.4154e+06
1.40204e+06
1.38862e+06
1.37515e+06
1.36164e+06
1.34809e+06
1.33449e+06
1.32084e+06
1.30716e+06
1.29343e+06
1.27967e+06
1.26587e+06
1.25203e+06
1.23815e+06
1.22424e+06
1.2103e+06
1.19633e+06
1.18232e+06
1.16829e+06
1.15423e+06
1.14014e+06
1.12603e+06
1.1119e+06
1.09774e+06
1.08356e+06
1.06937e+06
1.05516e+06
1.04093e+06
1.02669e+06
1.01243e+06
998163
983886
969601
955310
941014
926714
912414
898114
883816
869523
855236
840957
826688
812431
798188
783962
769754
755568
741404
727265
713154
699072
685024
671010
657033
643097
629203
615355
601555
587806
574111
560473
546896
533381
519933
506555
493249
480021
466873
453809
440834
427951
415165
402481
389904
377439
365093
352873
340788
328847
317063
305451
294030
282814
2.20703e+06
2.20684e+06
2.20646e+06
2.20589e+06
2.20512e+06
2.20415e+06
2.20298e+06
2.2016e+06
2.20002e+06
2.19823e+06
2.19623e+06
2.19401e+06
2.19158e+06
2.18894e+06
2.18608e+06
2.18301e+06
2.17973e+06
2.17623e+06
2.17251e+06
2.16859e+06
2.16445e+06
2.1601e+06
2.15555e+06
2.15078e+06
2.14581e+06
2.14064e+06
2.13527e+06
2.1297e+06
2.12394e+06
2.11798e+06
2.11183e+06
2.1055e+06
2.09898e+06
2.09228e+06
2.08539e+06
2.07834e+06
2.0711e+06
2.0637e+06
2.05613e+06
2.0484e+06
2.0405e+06
2.03245e+06
2.02423e+06
2.01587e+06
2.00735e+06
1.99869e+06
1.98988e+06
1.98093e+06
1.97184e+06
1.96262e+06
1.95325e+06
1.94376e+06
1.93414e+06
1.92439e+06
1.91452e+06
1.90453e+06
1.89442e+06
1.88419e+06
1.87385e+06
1.86339e+06
1.85283e+06
1.84216e+06
1.83139e+06
1.82051e+06
1.80953e+06
1.79845e+06
1.78728e+06
1.77601e+06
1.76465e+06
1.7532e+06
1.74166e+06
1.73003e+06
1.71831e+06
1.70651e+06
1.69463e+06
1.68267e+06
1.67063e+06
1.65851e+06
1.64631e+06
1.63404e+06
1.6217e+06
1.60929e+06
1.5968e+06
1.58425e+06
1.57163e+06
1.55894e+06
1.54619e+06
1.53338e+06
1.5205e+06
1.50757e+06
1.49457e+06
1.48152e+06
1.46841e+06
1.45525e+06
1.44203e+06
1.42876e+06
1.41544e+06
1.40207e+06
1.38865e+06
1.37518e+06
1.36167e+06
1.34811e+06
1.33451e+06
1.32087e+06
1.30718e+06
1.29345e+06
1.27969e+06
1.26588e+06
1.25204e+06
1.23817e+06
1.22425e+06
1.21031e+06
1.19634e+06
1.18233e+06
1.1683e+06
1.15424e+06
1.14015e+06
1.12604e+06
1.1119e+06
1.09775e+06
1.08357e+06
1.06937e+06
1.05516e+06
1.04093e+06
1.02669e+06
1.01243e+06
998166
983888
969603
955312
941015
926716
912415
898115
883817
869524
855236
840957
826688
812431
798189
783963
769755
755568
741404
727265
713154
699073
685024
671010
657033
643097
629203
615355
601555
587806
574111
560473
546895
533380
519932
506554
493248
480020
466871
453807
440831
427947
415160
402474
389895
377428
365079
352854
340763
328813
317015
305381
293923
282643
2.21111e+06
2.21091e+06
2.21051e+06
2.20992e+06
2.20912e+06
2.20812e+06
2.20692e+06
2.2055e+06
2.20387e+06
2.20202e+06
2.19996e+06
2.19769e+06
2.19519e+06
2.19248e+06
2.18955e+06
2.18641e+06
2.18304e+06
2.17946e+06
2.17566e+06
2.17165e+06
2.16743e+06
2.16299e+06
2.15835e+06
2.1535e+06
2.14844e+06
2.14318e+06
2.13772e+06
2.13207e+06
2.12622e+06
2.12017e+06
2.11394e+06
2.10752e+06
2.10092e+06
2.09414e+06
2.08718e+06
2.08005e+06
2.07275e+06
2.06527e+06
2.05764e+06
2.04983e+06
2.04187e+06
2.03376e+06
2.02548e+06
2.01706e+06
2.00849e+06
1.99977e+06
1.99091e+06
1.98191e+06
1.97277e+06
1.9635e+06
1.95409e+06
1.94456e+06
1.9349e+06
1.92511e+06
1.9152e+06
1.90517e+06
1.89503e+06
1.88476e+06
1.87439e+06
1.86391e+06
1.85332e+06
1.84262e+06
1.83182e+06
1.82092e+06
1.80992e+06
1.79882e+06
1.78762e+06
1.77633e+06
1.76495e+06
1.75348e+06
1.74192e+06
1.73028e+06
1.71855e+06
1.70674e+06
1.69484e+06
1.68287e+06
1.67081e+06
1.65868e+06
1.64648e+06
1.6342e+06
1.62185e+06
1.60942e+06
1.59693e+06
1.58437e+06
1.57174e+06
1.55905e+06
1.54629e+06
1.53347e+06
1.52059e+06
1.50764e+06
1.49464e+06
1.48159e+06
1.46847e+06
1.45531e+06
1.44209e+06
1.42881e+06
1.41549e+06
1.40212e+06
1.38869e+06
1.37522e+06
1.36171e+06
1.34815e+06
1.33454e+06
1.32089e+06
1.3072e+06
1.29348e+06
1.27971e+06
1.2659e+06
1.25206e+06
1.23818e+06
1.22427e+06
1.21033e+06
1.19635e+06
1.18234e+06
1.16831e+06
1.15425e+06
1.14016e+06
1.12605e+06
1.11191e+06
1.09775e+06
1.08358e+06
1.06938e+06
1.05517e+06
1.04094e+06
1.02669e+06
1.01244e+06
998169
983891
969606
955314
941017
926718
912417
898116
883819
869525
855238
840958
826689
812432
798190
783963
769756
755569
741405
727266
713154
699073
685024
671010
657034
643097
629203
615355
601555
587806
574111
560473
546895
533380
519931
506553
493247
480018
466869
453804
440827
427942
415154
402467
389885
377415
365062
352832
340733
328772
316959
305302
293807
282469
2.21605e+06
2.21584e+06
2.21543e+06
2.21481e+06
2.21398e+06
2.21294e+06
2.21169e+06
2.21022e+06
2.20853e+06
2.20662e+06
2.20449e+06
2.20213e+06
2.19956e+06
2.19676e+06
2.19374e+06
2.1905e+06
2.18704e+06
2.18335e+06
2.17945e+06
2.17534e+06
2.17101e+06
2.16646e+06
2.16171e+06
2.15675e+06
2.15159e+06
2.14622e+06
2.14066e+06
2.1349e+06
2.12894e+06
2.1228e+06
2.11646e+06
2.10995e+06
2.10325e+06
2.09637e+06
2.08932e+06
2.0821e+06
2.07471e+06
2.06715e+06
2.05943e+06
2.05155e+06
2.04351e+06
2.03532e+06
2.02697e+06
2.01848e+06
2.00984e+06
2.00106e+06
1.99214e+06
1.98308e+06
1.97388e+06
1.96455e+06
1.95509e+06
1.94551e+06
1.93579e+06
1.92596e+06
1.91601e+06
1.90594e+06
1.89575e+06
1.88545e+06
1.87504e+06
1.86452e+06
1.8539e+06
1.84317e+06
1.83234e+06
1.8214e+06
1.81037e+06
1.79925e+06
1.78803e+06
1.77672e+06
1.76532e+06
1.75382e+06
1.74225e+06
1.73058e+06
1.71883e+06
1.707e+06
1.69509e+06
1.6831e+06
1.67104e+06
1.65889e+06
1.64667e+06
1.63438e+06
1.62202e+06
1.60959e+06
1.59708e+06
1.58451e+06
1.57187e+06
1.55917e+06
1.5464e+06
1.53358e+06
1.52069e+06
1.50774e+06
1.49473e+06
1.48167e+06
1.46855e+06
1.45538e+06
1.44215e+06
1.42887e+06
1.41555e+06
1.40217e+06
1.38874e+06
1.37527e+06
1.36175e+06
1.34818e+06
1.33458e+06
1.32093e+06
1.30723e+06
1.2935e+06
1.27973e+06
1.26593e+06
1.25208e+06
1.2382e+06
1.22429e+06
1.21034e+06
1.19637e+06
1.18236e+06
1.16832e+06
1.15426e+06
1.14017e+06
1.12606e+06
1.11192e+06
1.09776e+06
1.08358e+06
1.06939e+06
1.05517e+06
1.04094e+06
1.0267e+06
1.01244e+06
998173
983895
969609
955317
941020
926720
912419
898118
883820
869526
855239
840959
826690
812433
798191
783964
769756
755569
741405
727266
713155
699074
685025
671011
657034
643097
629204
615355
601555
587806
574111
560472
546894
533379
519930
506551
493245
480016
466866
453801
440823
427937
415147
402457
389873
377400
365042
352806
340699
328727
316897
305216
293685
282299
2.2219e+06
2.22168e+06
2.22124e+06
2.22059e+06
2.21972e+06
2.21863e+06
2.21732e+06
2.21579e+06
2.21402e+06
2.21203e+06
2.20982e+06
2.20737e+06
2.20469e+06
2.20179e+06
2.19866e+06
2.1953e+06
2.19172e+06
2.18792e+06
2.18389e+06
2.17965e+06
2.17519e+06
2.17052e+06
2.16564e+06
2.16055e+06
2.15526e+06
2.14977e+06
2.14407e+06
2.13819e+06
2.13211e+06
2.12584e+06
2.11939e+06
2.11276e+06
2.10595e+06
2.09896e+06
2.0918e+06
2.08447e+06
2.07698e+06
2.06932e+06
2.0615e+06
2.05353e+06
2.0454e+06
2.03712e+06
2.02869e+06
2.02012e+06
2.0114e+06
2.00255e+06
1.99355e+06
1.98442e+06
1.97516e+06
1.96577e+06
1.95625e+06
1.9466e+06
1.93683e+06
1.92695e+06
1.91694e+06
1.90682e+06
1.89658e+06
1.88624e+06
1.87579e+06
1.86523e+06
1.85456e+06
1.8438e+06
1.83293e+06
1.82197e+06
1.8109e+06
1.79975e+06
1.7885e+06
1.77716e+06
1.76573e+06
1.75422e+06
1.74261e+06
1.73093e+06
1.71916e+06
1.70731e+06
1.69538e+06
1.68338e+06
1.67129e+06
1.65913e+06
1.6469e+06
1.6346e+06
1.62222e+06
1.60977e+06
1.59726e+06
1.58467e+06
1.57203e+06
1.55931e+06
1.54654e+06
1.5337e+06
1.5208e+06
1.50785e+06
1.49483e+06
1.48176e+06
1.46864e+06
1.45546e+06
1.44223e+06
1.42894e+06
1.41561e+06
1.40223e+06
1.3888e+06
1.37532e+06
1.3618e+06
1.34823e+06
1.33462e+06
1.32096e+06
1.30727e+06
1.29354e+06
1.27976e+06
1.26595e+06
1.25211e+06
1.23823e+06
1.22431e+06
1.21036e+06
1.19638e+06
1.18238e+06
1.16834e+06
1.15427e+06
1.14018e+06
1.12607e+06
1.11193e+06
1.09777e+06
1.08359e+06
1.06939e+06
1.05518e+06
1.04095e+06
1.0267e+06
1.01245e+06
998177
983899
969613
955320
941023
926722
912421
898120
883822
869528
855240
840961
826692
812434
798192
783965
769757
755570
741406
727267
713156
699074
685025
671011
657034
643098
629204
615355
601555
587806
574111
560472
546894
533378
519929
506550
493243
480013
466863
453797
440818
427930
415139
402447
389860
377383
365020
352778
340661
328677
316830
305126
293563
282133
2.2287e+06
2.22846e+06
2.22799e+06
2.2273e+06
2.22639e+06
2.22524e+06
2.22386e+06
2.22224e+06
2.22039e+06
2.2183e+06
2.21598e+06
2.21342e+06
2.21062e+06
2.20759e+06
2.20432e+06
2.20083e+06
2.19711e+06
2.19316e+06
2.18899e+06
2.1846e+06
2.17999e+06
2.17517e+06
2.17013e+06
2.16489e+06
2.15945e+06
2.15381e+06
2.14797e+06
2.14194e+06
2.13572e+06
2.12931e+06
2.12272e+06
2.11595e+06
2.10901e+06
2.1019e+06
2.09461e+06
2.08716e+06
2.07955e+06
2.07178e+06
2.06385e+06
2.05577e+06
2.04754e+06
2.03916e+06
2.03064e+06
2.02198e+06
2.01317e+06
2.00423e+06
1.99515e+06
1.98595e+06
1.97661e+06
1.96714e+06
1.95755e+06
1.94784e+06
1.93801e+06
1.92806e+06
1.91799e+06
1.90782e+06
1.89753e+06
1.88713e+06
1.87663e+06
1.86602e+06
1.85532e+06
1.84451e+06
1.8336e+06
1.8226e+06
1.8115e+06
1.80031e+06
1.78903e+06
1.77766e+06
1.7662e+06
1.75466e+06
1.74303e+06
1.73132e+06
1.71953e+06
1.70766e+06
1.69571e+06
1.68368e+06
1.67158e+06
1.6594e+06
1.64716e+06
1.63484e+06
1.62244e+06
1.60998e+06
1.59746e+06
1.58486e+06
1.5722e+06
1.55948e+06
1.54669e+06
1.53384e+06
1.52093e+06
1.50797e+06
1.49494e+06
1.48187e+06
1.46873e+06
1.45555e+06
1.44231e+06
1.42902e+06
1.41568e+06
1.4023e+06
1.38886e+06
1.37538e+06
1.36185e+06
1.34828e+06
1.33466e+06
1.32101e+06
1.30731e+06
1.29357e+06
1.2798e+06
1.26599e+06
1.25214e+06
1.23825e+06
1.22434e+06
1.21039e+06
1.19641e+06
1.18239e+06
1.16836e+06
1.15429e+06
1.1402e+06
1.12608e+06
1.11194e+06
1.09778e+06
1.0836e+06
1.0694e+06
1.05519e+06
1.04096e+06
1.02671e+06
1.01245e+06
998182
983903
969617
955323
941026
926725
912424
898123
883824
869530
855242
840962
826693
812436
798193
783966
769758
755571
741407
727268
713156
699075
685026
671012
657035
643098
629204
615356
601555
587806
574110
560472
546893
533378
519928
506548
493241
480011
466860
453792
440812
427923
415130
402436
389845
377364
364996
352747
340621
328625
316761
305033
293440
281973
2.23649e+06
2.23623e+06
2.23573e+06
2.235e+06
2.23402e+06
2.2328e+06
2.23133e+06
2.22962e+06
2.22766e+06
2.22545e+06
2.223e+06
2.2203e+06
2.21736e+06
2.21418e+06
2.21075e+06
2.2071e+06
2.20321e+06
2.19909e+06
2.19474e+06
2.19018e+06
2.18539e+06
2.18039e+06
2.17519e+06
2.16977e+06
2.16415e+06
2.15834e+06
2.15233e+06
2.14614e+06
2.13975e+06
2.13319e+06
2.12644e+06
2.11952e+06
2.11243e+06
2.10517e+06
2.09775e+06
2.09016e+06
2.08242e+06
2.07452e+06
2.06647e+06
2.05827e+06
2.04993e+06
2.04144e+06
2.03281e+06
2.02404e+06
2.01514e+06
2.0061e+06
1.99694e+06
1.98764e+06
1.97822e+06
1.96867e+06
1.959e+06
1.94922e+06
1.93931e+06
1.9293e+06
1.91916e+06
1.90892e+06
1.89858e+06
1.88812e+06
1.87757e+06
1.86691e+06
1.85615e+06
1.8453e+06
1.83435e+06
1.8233e+06
1.81217e+06
1.80094e+06
1.78962e+06
1.77822e+06
1.76673e+06
1.75515e+06
1.7435e+06
1.73176e+06
1.71994e+06
1.70804e+06
1.69607e+06
1.68402e+06
1.6719e+06
1.65971e+06
1.64744e+06
1.6351e+06
1.62269e+06
1.61022e+06
1.59768e+06
1.58507e+06
1.57239e+06
1.55965e+06
1.54686e+06
1.534e+06
1.52108e+06
1.5081e+06
1.49507e+06
1.48198e+06
1.46884e+06
1.45565e+06
1.44241e+06
1.42911e+06
1.41577e+06
1.40237e+06
1.38893e+06
1.37544e+06
1.36191e+06
1.34833e+06
1.33472e+06
1.32105e+06
1.30735e+06
1.29361e+06
1.27984e+06
1.26602e+06
1.25217e+06
1.23828e+06
1.22436e+06
1.21041e+06
1.19643e+06
1.18242e+06
1.16837e+06
1.15431e+06
1.14021e+06
1.1261e+06
1.11196e+06
1.09779e+06
1.08361e+06
1.06941e+06
1.0552e+06
1.04096e+06
1.02672e+06
1.01246e+06
998188
983908
969621
955328
941029
926728
912426
898125
883826
869532
855244
840964
826695
812437
798194
783968
769760
755572
741408
727269
713157
699076
685026
671012
657035
643099
629204
615356
601555
587806
574110
560471
546893
533377
519927
506547
493239
480008
466856
453788
440806
427916
415120
402423
389830
377344
364971
352714
340579
328570
316690
304941
293320
281820
2.24535e+06
2.24507e+06
2.24453e+06
2.24373e+06
2.24268e+06
2.24137e+06
2.2398e+06
2.23797e+06
2.23588e+06
2.23353e+06
2.23092e+06
2.22806e+06
2.22494e+06
2.22158e+06
2.21797e+06
2.21412e+06
2.21003e+06
2.20571e+06
2.20117e+06
2.1964e+06
2.19141e+06
2.18621e+06
2.1808e+06
2.17518e+06
2.16937e+06
2.16336e+06
2.15716e+06
2.15078e+06
2.14421e+06
2.13746e+06
2.13054e+06
2.12345e+06
2.1162e+06
2.10878e+06
2.1012e+06
2.09346e+06
2.08557e+06
2.07753e+06
2.06935e+06
2.06102e+06
2.05254e+06
2.04393e+06
2.03519e+06
2.02631e+06
2.0173e+06
2.00816e+06
1.99889e+06
1.9895e+06
1.97998e+06
1.97035e+06
1.9606e+06
1.95073e+06
1.94075e+06
1.93065e+06
1.92045e+06
1.91014e+06
1.89973e+06
1.88921e+06
1.87859e+06
1.86788e+06
1.85707e+06
1.84616e+06
1.83516e+06
1.82407e+06
1.81289e+06
1.80162e+06
1.79027e+06
1.77882e+06
1.7673e+06
1.75569e+06
1.744e+06
1.73223e+06
1.72039e+06
1.70847e+06
1.69647e+06
1.6844e+06
1.67225e+06
1.66004e+06
1.64775e+06
1.63539e+06
1.62297e+06
1.61048e+06
1.59792e+06
1.58529e+06
1.5726e+06
1.55985e+06
1.54704e+06
1.53417e+06
1.52124e+06
1.50825e+06
1.49521e+06
1.48211e+06
1.46896e+06
1.45576e+06
1.44251e+06
1.42921e+06
1.41585e+06
1.40246e+06
1.38901e+06
1.37552e+06
1.36198e+06
1.3484e+06
1.33477e+06
1.32111e+06
1.3074e+06
1.29366e+06
1.27988e+06
1.26606e+06
1.2522e+06
1.23832e+06
1.22439e+06
1.21044e+06
1.19645e+06
1.18244e+06
1.1684e+06
1.15433e+06
1.14023e+06
1.12611e+06
1.11197e+06
1.09781e+06
1.08362e+06
1.06942e+06
1.05521e+06
1.04097e+06
1.02672e+06
1.01246e+06
998194
983914
969626
955332
941033
926732
912430
898128
883829
869534
855246
840966
826696
812439
798196
783969
769761
755573
741409
727270
713158
699076
685027
671013
657036
643099
629205
615356
601555
587806
574110
560471
546892
533376
519926
506545
493237
480005
466852
453783
440800
427908
415110
402411
389814
377324
364944
352681
340536
328514
316619
304849
293203
281674
2.25535e+06
2.25503e+06
2.25444e+06
2.25358e+06
2.25244e+06
2.25102e+06
2.24932e+06
2.24735e+06
2.2451e+06
2.24257e+06
2.23978e+06
2.23672e+06
2.23339e+06
2.22981e+06
2.22598e+06
2.22191e+06
2.21759e+06
2.21304e+06
2.20826e+06
2.20325e+06
2.19803e+06
2.1926e+06
2.18696e+06
2.18112e+06
2.17508e+06
2.16886e+06
2.16244e+06
2.15585e+06
2.14908e+06
2.14213e+06
2.13502e+06
2.12774e+06
2.1203e+06
2.1127e+06
2.10495e+06
2.09705e+06
2.089e+06
2.0808e+06
2.07247e+06
2.06399e+06
2.05538e+06
2.04664e+06
2.03777e+06
2.02876e+06
2.01963e+06
2.01038e+06
2.001e+06
1.99151e+06
1.9819e+06
1.97216e+06
1.96232e+06
1.95236e+06
1.94229e+06
1.93212e+06
1.92184e+06
1.91145e+06
1.90097e+06
1.89039e+06
1.87971e+06
1.86893e+06
1.85806e+06
1.8471e+06
1.83605e+06
1.82491e+06
1.81368e+06
1.80236e+06
1.79096e+06
1.77948e+06
1.76792e+06
1.75627e+06
1.74455e+06
1.73275e+06
1.72087e+06
1.70892e+06
1.6969e+06
1.6848e+06
1.67263e+06
1.66039e+06
1.64809e+06
1.63571e+06
1.62326e+06
1.61075e+06
1.59818e+06
1.58553e+06
1.57283e+06
1.56006e+06
1.54724e+06
1.53435e+06
1.52141e+06
1.50841e+06
1.49536e+06
1.48225e+06
1.46909e+06
1.45588e+06
1.44262e+06
1.42931e+06
1.41595e+06
1.40255e+06
1.38909e+06
1.37559e+06
1.36205e+06
1.34846e+06
1.33483e+06
1.32116e+06
1.30746e+06
1.29371e+06
1.27992e+06
1.2661e+06
1.25224e+06
1.23835e+06
1.22443e+06
1.21047e+06
1.19648e+06
1.18246e+06
1.16842e+06
1.15435e+06
1.14025e+06
1.12613e+06
1.11198e+06
1.09782e+06
1.08364e+06
1.06943e+06
1.05522e+06
1.04098e+06
1.02673e+06
1.01247e+06
998201
983920
969631
955337
941038
926736
912433
898131
883832
869537
855249
840968
826698
812441
798198
783971
769762
755575
741410
727271
713159
699077
685028
671014
657037
643100
629205
615356
601556
587806
574110
560471
546891
533375
519924
506543
493235
480002
466848
453778
440794
427900
415100
402398
389797
377302
364918
352646
340492
328459
316548
304759
293091
281537
2.26659e+06
2.26623e+06
2.26558e+06
2.26463e+06
2.26338e+06
2.26183e+06
2.25997e+06
2.25782e+06
2.25537e+06
2.25264e+06
2.24962e+06
2.24632e+06
2.24275e+06
2.23892e+06
2.23482e+06
2.23048e+06
2.2259e+06
2.22107e+06
2.21602e+06
2.21075e+06
2.20526e+06
2.19957e+06
2.19367e+06
2.18757e+06
2.18129e+06
2.17481e+06
2.16816e+06
2.16133e+06
2.15434e+06
2.14717e+06
2.13984e+06