/*--------------------------------*- C++ -*----------------------------------*\
  =========                 |
  \\      /  F ield         | OpenFOAM: The Open Source CFD Toolbox
   \\    /   O peration     | Website:  https://openfoam.org
    \\  /    A nd           | Version:  7
     \\/     M anipulation  |
\*---------------------------------------------------------------------------*/
FoamFile
{
    version     2.0;
    format      ascii;
    class       volVectorField;
    location    "0.107";
    object      UMean;
}
// * * * * * * * * * * * * * * * * * * * * * * * * * * * * * * * * * * * * * //

dimensions      [0 1 -1 0 0 0 0];

internalField   nonuniform List<vector> 
12225
(
(4.76668 0.164518 0)
(4.16697 0.111415 0)
(3.70137 0.0983868 0)
(3.32692 0.0821325 0)
(2.98746 0.0692491 0)
(2.66826 0.0598754 0)
(2.37025 0.0519065 0)
(2.09803 0.0442779 0)
(1.85525 0.0363202 0)
(1.64339 0.0288036 0)
(1.46329 0.0209246 0)
(1.31338 0.014947 0)
(1.19207 0.0077705 0)
(1.09566 0.00585331 0)
(1.01694 -0.00177379 0)
(0.959973 0.00398494 0)
(0.900977 -0.0110921 0)
(0.874816 -0.00393362 0)
(5.02125 0.113986 0)
(4.87211 0.0749518 0)
(4.7525 0.0916169 0)
(4.66073 0.0917174 0)
(4.56414 0.0908834 0)
(4.45443 0.0921645 0)
(4.33331 0.0933906 0)
(4.20638 0.0926853 0)
(4.07609 0.0901274 0)
(3.9478 0.0851436 0)
(3.82033 0.0792845 0)
(3.70118 0.0712592 0)
(3.5831 0.0647089 0)
(3.47936 0.0556887 0)
(3.37025 0.0520676 0)
(3.28297 0.0423296 0)
(3.17672 0.0432663 0)
(3.09969 0.0236868 0)
(4.99331 0.171729 0)
(4.87104 0.122715 0)
(4.7914 0.131857 0)
(4.76021 0.12736 0)
(4.74353 0.121348 0)
(4.72594 0.119285 0)
(4.70518 0.118795 0)
(4.68214 0.117803 0)
(4.65658 0.114815 0)
(4.62816 0.110565 0)
(4.59623 0.104101 0)
(4.56112 0.0978553 0)
(4.52323 0.0897909 0)
(4.48295 0.0845358 0)
(4.44178 0.0773533 0)
(4.39794 0.0748019 0)
(4.35604 0.0692823 0)
(4.30565 0.0629754 0)
(4.98903 0.191334 0)
(4.88952 0.122597 0)
(4.81111 0.121937 0)
(4.7758 0.118658 0)
(4.7614 0.112577 0)
(4.75209 0.109711 0)
(4.74491 0.109509 0)
(4.7405 0.109273 0)
(4.73869 0.107821 0)
(4.73798 0.104702 0)
(4.73717 0.100658 0)
(4.73473 0.095505 0)
(4.73106 0.0907941 0)
(4.72476 0.0856824 0)
(4.71841 0.0825335 0)
(4.70884 0.0789421 0)
(4.70197 0.0772814 0)
(4.68912 0.0743026 0)
(4.99549 0.213853 0)
(4.91957 0.144569 0)
(4.84908 0.136984 0)
(4.81152 0.133806 0)
(4.79476 0.126217 0)
(4.78421 0.120289 0)
(4.77603 0.117241 0)
(4.77078 0.115153 0)
(4.76896 0.112297 0)
(4.76946 0.108459 0)
(4.77127 0.103671 0)
(4.77295 0.098602 0)
(4.77455 0.0934376 0)
(4.77518 0.0888409 0)
(4.77606 0.0850503 0)
(4.77611 0.0818304 0)
(4.77742 0.0797636 0)
(4.77728 0.0765523 0)
(4.98915 0.231587 0)
(4.9328 0.161041 0)
(4.87257 0.144397 0)
(4.83636 0.139028 0)
(4.81971 0.130375 0)
(4.81029 0.122401 0)
(4.80311 0.117358 0)
(4.79811 0.11393 0)
(4.79592 0.11046 0)
(4.79597 0.106228 0)
(4.79736 0.101417 0)
(4.799 0.0962923 0)
(4.8007 0.0913704 0)
(4.80196 0.0868363 0)
(4.80351 0.0830458 0)
(4.80476 0.0798983 0)
(4.80697 0.0772175 0)
(4.80848 0.074655 0)
(5.00159 0.245064 0)
(4.95921 0.176997 0)
(4.9078 0.1535 0)
(4.87261 0.145348 0)
(4.85485 0.136165 0)
(4.84524 0.127017 0)
(4.83816 0.12028 0)
(4.83281 0.115527 0)
(4.82985 0.11125 0)
(4.82905 0.106603 0)
(4.82976 0.101548 0)
(4.83098 0.0963499 0)
(4.83249 0.0913682 0)
(4.83373 0.0867851 0)
(4.83537 0.0828516 0)
(4.83665 0.0794464 0)
(4.83892 0.0765475 0)
(4.84023 0.0739368 0)
(5.00346 0.255181 0)
(4.97333 0.192078 0)
(4.93189 0.163871 0)
(4.90024 0.152138 0)
(4.88304 0.142065 0)
(4.87425 0.131928 0)
(4.86836 0.123617 0)
(4.86388 0.117336 0)
(4.86125 0.111998 0)
(4.86053 0.106694 0)
(4.86131 0.101226 0)
(4.86268 0.0957833 0)
(4.86444 0.090631 0)
(4.86598 0.0859536 0)
(4.86795 0.0818257 0)
(4.86951 0.0782662 0)
(4.87206 0.0751442 0)
(4.87359 0.0724683 0)
(5.00352 0.262053 0)
(4.98183 0.204047 0)
(4.94908 0.172793 0)
(4.92163 0.157435 0)
(4.90562 0.146147 0)
(4.89769 0.135302 0)
(4.89307 0.125861 0)
(4.8898 0.11835 0)
(4.88795 0.112096 0)
(4.88765 0.106263 0)
(4.8887 0.100508 0)
(4.89037 0.0948923 0)
(4.89247 0.0896131 0)
(4.89444 0.0848226 0)
(4.89679 0.0805566 0)
(4.8988 0.0768434 0)
(4.90166 0.0735517 0)
(4.90371 0.0707781 0)
(4.99805 0.269404 0)
(4.9832 0.215806 0)
(4.95787 0.182565 0)
(4.93458 0.163808 0)
(4.91983 0.150781 0)
(4.91239 0.139078 0)
(4.90859 0.128614 0)
(4.90628 0.11989 0)
(4.90516 0.112598 0)
(4.90532 0.106079 0)
(4.90667 0.0999164 0)
(4.90868 0.0940637 0)
(4.91114 0.0886023 0)
(4.91358 0.0836542 0)
(4.91637 0.0792016 0)
(4.91896 0.0753027 0)
(4.92224 0.0717954 0)
(4.92498 0.068843 0)
(4.99452 0.271919 0)
(4.98465 0.223699 0)
(4.96518 0.189997 0)
(4.94574 0.168785 0)
(4.93251 0.154013 0)
(4.92556 0.141439 0)
(4.92228 0.130163 0)
(4.9206 0.120452 0)
(4.91992 0.112241 0)
(4.92025 0.105058 0)
(4.92164 0.0984724 0)
(4.92371 0.0923386 0)
(4.92634 0.0866426 0)
(4.92904 0.0814795 0)
(4.93214 0.0767989 0)
(4.93505 0.0726767 0)
(4.93867 0.068925 0)
(4.94172 0.0657315 0)
(5.00173 0.275099 0)
(4.99351 0.230819 0)
(4.97774 0.19722 0)
(4.96143 0.174191 0)
(4.94965 0.157691 0)
(4.94316 0.144135 0)
(4.94021 0.132155 0)
(4.93899 0.121696 0)
(4.93877 0.112713 0)
(4.93938 0.1049 0)
(4.9409 0.0978713 0)
(4.94302 0.0914303 0)
(4.94571 0.0854853 0)
(4.94848 0.0800965 0)
(4.95167 0.0751822 0)
(4.95465 0.0708306 0)
(4.95836 0.0668227 0)
(4.96147 0.0633687 0)
(5.00214 0.278849 0)
(4.99714 0.236214 0)
(4.98549 0.202881 0)
(4.97256 0.178569 0)
(4.96273 0.160486 0)
(4.95711 0.145785 0)
(4.95466 0.132977 0)
(4.95393 0.121747 0)
(4.95416 0.112024 0)
(4.9551 0.103597 0)
(4.95683 0.0961203 0)
(4.9591 0.0893643 0)
(4.96195 0.0831742 0)
(4.9649 0.0775594 0)
(4.96831 0.0724177 0)
(4.97148 0.0678262 0)
(4.97541 0.0635615 0)
(4.97865 0.059821 0)
(5.00518 0.280896 0)
(5.00356 0.241435 0)
(4.99564 0.209046 0)
(4.98601 0.18382 0)
(4.97856 0.164228 0)
(4.97443 0.148297 0)
(4.97296 0.134647 0)
(4.97305 0.12271 0)
(4.97404 0.112291 0)
(4.97564 0.103205 0)
(4.97788 0.095177 0)
(4.98059 0.0879872 0)
(4.98382 0.0814433 0)
(4.98718 0.0755148 0)
(4.99096 0.0700705 0)
(4.99452 0.065181 0)
(4.99874 0.0606046 0)
(5.0023 0.0565618 0)
(4.99953 0.279447 0)
(4.99998 0.243824 0)
(4.99541 0.212361 0)
(4.98938 0.186441 0)
(4.98478 0.165576 0)
(4.98249 0.148447 0)
(4.98222 0.133871 0)
(4.98326 0.121187 0)
(4.98515 0.110075 0)
(4.98758 0.100335 0)
(4.99056 0.0917261 0)
(4.9939 0.0840569 0)
(4.99768 0.0771194 0)
(5.00152 0.070855 0)
(5.00572 0.0650987 0)
(5.00967 0.0599059 0)
(5.01416 0.0550213 0)
(5.01803 0.0506527 0)
(5.00734 0.281888 0)
(5.00834 0.247718 0)
(5.00595 0.216797 0)
(5.00278 0.190417 0)
(5.00081 0.168482 0)
(5.00052 0.150142 0)
(5.00169 0.134466 0)
(5.00389 0.12082 0)
(5.00681 0.108846 0)
(5.01016 0.0983327 0)
(5.01389 0.0890555 0)
(5.01781 0.0808409 0)
(5.022 0.0734693 0)
(5.02618 0.0668605 0)
(5.03062 0.0608045 0)
(5.0348 0.0553407 0)
(5.0394 0.0501731 0)
(5.04339 0.0455305 0)
(4.99935 0.280366 0)
(5.00098 0.246299 0)
(5.00065 0.215553 0)
(5.00062 0.188778 0)
(5.00205 0.165927 0)
(5.00481 0.146492 0)
(5.00844 0.129815 0)
(5.01258 0.115361 0)
(5.01706 0.102746 0)
(5.0217 0.0916996 0)
(5.02649 0.0819568 0)
(5.03128 0.0733173 0)
(5.03617 0.0655473 0)
(5.04094 0.0585413 0)
(5.04585 0.0520916 0)
(5.05047 0.0462199 0)
(5.05539 0.0406615 0)
(5.05976 0.0356057 0)
(5.00121 0.284388 0)
(5.00465 0.247651 0)
(5.00688 0.215305 0)
(5.00968 0.187255 0)
(5.01402 0.163128 0)
(5.01949 0.142499 0)
(5.02541 0.12487 0)
(5.03138 0.109749 0)
(5.0373 0.0966891 0)
(5.0431 0.0853474 0)
(5.04884 0.0754105 0)
(5.05443 0.0666596 0)
(5.05998 0.0588382 0)
(5.06528 0.0518295 0)
(5.07061 0.0453972 0)
(5.07552 0.0395668 0)
(5.08063 0.0340486 0)
(5.08499 0.0290676 0)
(5.0001 0.279497 0)
(5.00701 0.241062 0)
(5.0134 0.20668 0)
(5.0203 0.176898 0)
(5.02852 0.151507 0)
(5.03754 0.129961 0)
(5.04661 0.111608 0)
(5.05532 0.0958427 0)
(5.06362 0.0821595 0)
(5.07153 0.070186 0)
(5.07914 0.0596154 0)
(5.08635 0.0502343 0)
(5.09326 0.0418216 0)
(5.09968 0.0342668 0)
(5.10589 0.0273766 0)
(5.11153 0.0211452 0)
(5.1172 0.0153324 0)
(5.12211 0.0100816 0)
(5.00132 0.275638 0)
(5.0099 0.233152 0)
(5.02004 0.195069 0)
(5.03197 0.162897 0)
(5.04515 0.136544 0)
(5.05826 0.115009 0)
(5.07037 0.0971693 0)
(5.08133 0.0821759 0)
(5.09144 0.0694441 0)
(5.10091 0.058566 0)
(5.1099 0.0491729 0)
(5.11833 0.0409705 0)
(5.12628 0.0336632 0)
(5.13358 0.0271068 0)
(5.14048 0.0210961 0)
(5.14667 0.0156478 0)
(5.1527 0.0105333 0)
(5.15785 0.00592719 0)
(5.00255 0.27255 0)
(5.01298 0.222288 0)
(5.02747 0.179682 0)
(5.04507 0.145514 0)
(5.06369 0.118444 0)
(5.08129 0.0964064 0)
(5.09697 0.0777945 0)
(5.11085 0.0617952 0)
(5.12335 0.0480839 0)
(5.13473 0.0364527 0)
(5.14514 0.0266004 0)
(5.15453 0.0181875 0)
(5.16306 0.0108661 0)
(5.1707 0.00441155 0)
(5.17778 -0.0014006 0)
(5.18408 -0.00662882 0)
(5.19014 -0.0114537 0)
(5.19531 -0.0157999 0)
(5.00373 0.267888 0)
(5.01918 0.207579 0)
(5.04055 0.160767 0)
(5.06452 0.126801 0)
(5.08753 0.102143 0)
(5.10754 0.0832118 0)
(5.12458 0.0677523 0)
(5.13962 0.0547602 0)
(5.15348 0.043783 0)
(5.16636 0.0344691 0)
(5.17824 0.0264383 0)
(5.18895 0.0193969 0)
(5.19865 0.0131036 0)
(5.20731 0.00745917 0)
(5.21526 0.00231977 0)
(5.2223 -0.00231843 0)
(5.22897 -0.00665423 0)
(5.23466 -0.0105959 0)
(4.9977 0.260726 0)
(5.02251 0.189175 0)
(5.05524 0.137165 0)
(5.08884 0.101577 0)
(5.1183 0.0757508 0)
(5.14223 0.0548862 0)
(5.16186 0.0372867 0)
(5.17885 0.0228563 0)
(5.19416 0.0114653 0)
(5.20796 0.00251528 0)
(5.22027 -0.00476837 0)
(5.23108 -0.0109619 0)
(5.24071 -0.0163971 0)
(5.24922 -0.0212105 0)
(5.25704 -0.0255231 0)
(5.26393 -0.029384 0)
(5.27044 -0.0329285 0)
(5.27594 -0.0361407 0)
(5.00612 0.245311 0)
(5.03944 0.165617 0)
(5.08325 0.117179 0)
(5.12436 0.0902416 0)
(5.15689 0.0721276 0)
(5.18191 0.0562049 0)
(5.20292 0.0418295 0)
(5.22215 0.0297671 0)
(5.23996 0.0200736 0)
(5.25586 0.0121664 0)
(5.26965 0.00542624 0)
(5.28152 -0.000481963 0)
(5.29195 -0.00571494 0)
(5.30116 -0.0103291 0)
(5.30954 -0.0144619 0)
(5.31691 -0.0181686 0)
(5.32379 -0.0216243 0)
(5.32966 -0.0247792 0)
(5.00398 0.229578 0)
(5.05415 0.128439 0)
(5.1164 0.0745101 0)
(5.16767 0.046945 0)
(5.20316 0.0273802 0)
(5.22862 0.0102368 0)
(5.25017 -0.00339564 0)
(5.27005 -0.0129642 0)
(5.28811 -0.0196549 0)
(5.30384 -0.0249256 0)
(5.31736 -0.029553 0)
(5.32904 -0.0337154 0)
(5.33943 -0.037411 0)
(5.34869 -0.040665 0)
(5.35716 -0.0435757 0)
(5.3646 -0.0462203 0)
(5.37152 -0.0486947 0)
(5.37735 -0.0510077 0)
(5.01471 0.212385 0)
(5.08733 0.113158 0)
(5.16785 0.0784185 0)
(5.22595 0.0628638 0)
(5.26256 0.0453347 0)
(5.28952 0.0276838 0)
(5.31405 0.0138331 0)
(5.33691 0.00420359 0)
(5.35691 -0.00282584 0)
(5.37362 -0.00863352 0)
(5.38762 -0.0137583 0)
(5.39964 -0.0182806 0)
(5.41027 -0.0222326 0)
(5.41965 -0.0256936 0)
(5.42811 -0.0287941 0)
(5.4355 -0.0316015 0)
(5.44234 -0.0342181 0)
(5.44816 -0.0366176 0)
(5.01027 0.161365 0)
(5.1222 0.0356757 0)
(5.22171 0.00787985 0)
(5.28021 -0.00127943 0)
(5.31379 -0.0152123 0)
(5.34065 -0.0274018 0)
(5.3664 -0.034803 0)
(5.39017 -0.0392248 0)
(5.41053 -0.0426903 0)
(5.42746 -0.0458975 0)
(5.44179 -0.0488117 0)
(5.45425 -0.0513539 0)
(5.46537 -0.0535532 0)
(5.47526 -0.0555076 0)
(5.48424 -0.0572901 0)
(5.49214 -0.058964 0)
(5.49948 -0.0605641 0)
(5.50576 -0.0621118 0)
(5.01575 0.152608 0)
(5.1768 0.0583604 0)
(5.30108 0.0448445 0)
(5.36295 0.0288233 0)
(5.39733 0.0098377 0)
(5.42707 -0.00374413 0)
(5.45528 -0.0116915 0)
(5.48008 -0.0170598 0)
(5.50062 -0.0216152 0)
(5.5175 -0.0257431 0)
(5.53163 -0.0293814 0)
(5.5437 -0.0325703 0)
(5.55408 -0.0353713 0)
(5.56297 -0.0379178 0)
(5.57055 -0.0402231 0)
(5.57689 -0.0423952 0)
(5.58227 -0.0444041 0)
(5.58658 -0.0463539 0)
(5.01859 0.0199586 0)
(5.22855 -0.0515097 0)
(5.35547 -0.0340169 0)
(5.41091 -0.042494 0)
(5.44248 -0.0525847 0)
(5.46757 -0.057108 0)
(5.48706 -0.0588066 0)
(5.49951 -0.0600403 0)
(5.50496 -0.061315 0)
(5.50465 -0.062509 0)
(5.49977 -0.0634961 0)
(5.49144 -0.0643039 0)
(5.48011 -0.0649543 0)
(5.46658 -0.0655411 0)
(5.45072 -0.066045 0)
(5.43361 -0.0665626 0)
(5.41442 -0.0670358 0)
(5.39506 -0.0675962 0)
(4.96909 0.0704121 0)
(5.10366 -0.000794557 0)
(5.07599 -0.000654069 0)
(4.96295 -0.011084 0)
(4.83608 -0.0188376 0)
(4.71218 -0.0218705 0)
(4.59188 -0.0230166 0)
(4.47359 -0.0237467 0)
(4.35687 -0.0242915 0)
(4.24238 -0.0246275 0)
(4.13085 -0.0247703 0)
(4.02299 -0.0247719 0)
(3.91882 -0.0246722 0)
(3.81874 -0.0245194 0)
(3.72205 -0.0243209 0)
(3.62964 -0.0241223 0)
(3.53978 -0.0238983 0)
(3.45489 -0.0237388 0)
(-0.037602 0.0912598 6.78157e-22)
(-0.107383 0.0624381 -6.71646e-22)
(-0.137431 0.0207396 0)
(-0.126642 -0.0218037 0)
(-0.081231 -0.0556395 0)
(-0.0121812 -0.0787439 6.48852e-22)
(0.0713819 -0.0917882 0)
(0.162671 -0.0968695 0)
(0.255334 -0.0948497 0)
(0.344903 -0.0879869 0)
(0.427286 -0.0824363 -6.17267e-22)
(0.503153 -0.0841052 0)
(0.574153 -0.082434 0)
(0.640421 -0.0715913 0)
(0.699482 -0.0582153 0)
(0.747287 -0.0443345 -5.35691e-22)
(0.783867 -0.0305091 0)
(0.810672 -0.0185035 0)
(0.827699 -0.00749944 0)
(0.832748 0.00383992 0)
(0.824149 0.0160098 0)
(0.80001 0.0292732 0)
(0.759465 0.0427914 0)
(0.701507 0.0545948 -4.57343e-22)
(0.626852 0.0649138 4.56662e-22)
(0.53703 0.0776753 -4.56596e-22)
(0.43297 0.0921562 -4.5659e-22)
(0.317635 0.101497 0)
(0.196313 0.102983 0)
(0.0730065 0.0956889 4.50577e-22)
(-0.0466947 0.0843091 4.45738e-22)
(-0.162974 0.0764465 0)
(-0.280164 0.0726367 0)
(-0.400521 0.0728207 4.23381e-22)
(-0.5232 0.0781208 0)
(-0.646882 0.0823362 0)
(-0.769197 0.0776212 -3.91976e-22)
(-0.88776 0.0687658 0)
(-1.00145 0.0680708 -3.67445e-22)
(-1.11223 0.0665534 -7.10408e-22)
(-1.21444 0.0587229 0)
(-1.3084 0.0576736 0)
(-1.39561 0.047249 0)
(-1.46339 0.0290994 0)
(-1.51819 0.0199582 0)
(-1.56232 0.0213349 -5.90699e-22)
(-1.60143 0.0229585 -5.7935e-22)
(-1.63255 0.0182617 -5.7072e-22)
(-1.65395 0.0131798 0)
(-1.66674 0.00804808 5.64612e-22)
(-1.67108 0.00283755 0)
(-1.66874 -0.00125242 -5.74153e-22)
(-1.6605 -0.00361743 -5.83896e-22)
(-1.64641 -0.00533171 0)
(-1.62564 -0.00836635 0)
(-1.59684 -0.01285 0)
(-1.56122 -0.0165149 -6.39406e-22)
(-1.52362 -0.0184591 0)
(-1.48771 -0.0205035 0)
(-1.45234 -0.0216291 0)
(-1.41755 -0.0206656 0)
(-1.38527 -0.0177338 0)
(-1.35707 -0.0137279 0)
(-1.33355 -0.010105 0)
(-1.31418 -0.00668969 0)
(-1.29836 -0.00349015 7.61309e-22)
(-1.28415 -0.00137176 0)
(-1.26931 0.000219389 0)
(-1.25375 0.00340894 -7.6485e-22)
(-1.24379 0.0102027 -7.6066e-22)
(-1.24537 0.0228691 0)
(-1.27058 0.0275932 7.57785e-22)
(-1.30439 0.015836 -7.57819e-22)
(-1.32278 0.00570674 0)
(-1.33208 0.00407448 7.56838e-22)
(-1.33077 -0.00199512 0)
(-1.31809 -0.00827653 0)
(-1.29847 -0.00987121 -7.56288e-22)
(-1.27535 -0.0091815 0)
(-1.24995 -0.00915143 7.47262e-22)
(-1.222 -0.010015 0)
(-1.19211 -0.0112267 -7.38138e-22)
(-1.16038 -0.0123629 -7.36898e-22)
(-1.12756 -0.0129348 -7.38767e-22)
(-1.09475 -0.0124595 -1.48784e-21)
(-1.06382 -0.0108009 1.50431e-21)
(-1.03681 -0.00885119 0)
(-1.01438 -0.00752277 0)
(-0.995676 -0.00597114 0)
(-0.981421 -0.00498012 1.61112e-21)
(-0.968184 -0.00740209 1.64069e-21)
(-0.94877 -0.011095 -1.66789e-21)
(-0.922586 -0.0121655 0)
(-0.893812 -0.0113175 1.71588e-21)
(-0.865017 -0.00954938 1.73664e-21)
(-0.836656 -0.00714525 1.75581e-21)
(-0.80719 -0.00592533 0)
(-0.772752 -0.00785317 0)
(-0.730472 -0.011585 0)
(-0.680612 -0.0152077 1.82615e-21)
(-0.624265 -0.0182287 0)
(-0.562642 -0.0206119 0)
(-0.496854 -0.022406 -1.88737e-21)
(-0.427859 -0.0237055 0)
(-0.356458 -0.0245999 0)
(-0.283303 -0.025179 -1.95712e-21)
(-0.208914 -0.0255154 0)
(-0.133661 -0.0256773 0)
(-0.0578041 -0.0257213 2.03026e-21)
(0.0185069 -0.0256938 2.05557e-21)
(0.0951983 -0.0256422 0)
(0.172288 -0.0255913 -2.10824e-21)
(0.249854 -0.0255675 0)
(0.327958 -0.0255615 2.16342e-21)
(0.406616 -0.0255435 0)
(0.485744 -0.0254697 2.21838e-21)
(0.565114 -0.025273 2.24411e-21)
(0.644348 -0.0248953 0)
(0.722879 -0.0242926 0)
(0.800038 -0.0234297 0)
(0.87516 -0.0223182 0)
(0.947655 -0.0209982 0)
(1.017 -0.0195264 0)
(1.0828 -0.0179332 0)
(1.14477 -0.0163105 2.31703e-21)
(1.20268 -0.0147496 -2.30695e-21)
(1.25649 -0.0131295 0)
(1.30613 -0.0114999 0)
(1.3515 -0.00987172 0)
(1.39253 -0.00825846 0)
(1.42918 -0.00667988 -4.42092e-21)
(1.46146 -0.00515685 0)
(1.48943 -0.00370582 4.31508e-21)
(1.51324 -0.00233233 -4.25931e-21)
(1.53305 -0.00105158 0)
(1.54905 0.000133452 0)
(1.56143 0.00122342 0)
(1.57039 0.00222294 4.0319e-21)
(1.5761 0.00313971 3.97599e-21)
(1.57874 0.003982 0)
(1.57846 0.00476234 3.8668e-21)
(1.57537 0.00549302 3.81366e-21)
(1.56956 0.00619703 -3.76149e-21)
(1.56104 0.00687429 0)
(1.5499 0.00750978 0)
(1.53621 0.0080869 -3.61071e-21)
(1.52008 0.00859388 0)
(1.50165 0.00901795 0)
(1.48113 0.00933054 0)
(1.45877 0.00947704 0)
(1.43498 0.00939811 3.37838e-21)
(1.41026 0.00907283 3.3345e-21)
(1.38521 0.00850607 0)
(1.36051 0.00768036 3.24887e-21)
(1.33696 0.00653781 0)
(1.31556 0.00505102 0)
(1.2973 0.0033921 3.12563e-21)
(1.28283 0.00191271 0)
(1.27208 0.000871536 3.04906e-21)
(1.26444 0.000304146 0)
(1.25905 9.07293e-05 0)
(1.25515 7.90383e-05 2.94347e-21)
(1.25202 0.00016583 0)
(1.24935 0.000287584 2.87661e-21)
(1.2467 0.00042648 0)
(1.2441 0.000574961 0)
(1.24104 0.000754251 0)
(1.23791 0.000955493 -2.74768e-21)
(1.23374 0.00122549 0)
(1.22947 0.00151566 2.68538e-21)
(1.22322 0.00195143 0)
(1.21682 0.00235844 0)
(1.20705 0.00314681 0)
(1.19645 0.00366885 0)
(1.18146 0.00537643 0)
(1.16081 0.00571739 0)
(1.14112 0.0102507 0)
(1.09004 0.00862285 -4.92852e-21)
(1.08049 0.0237929 0)
(0.926338 0.0145189 0)
(-0.00442203 0.200433 -2.0196e-21)
(-0.0228461 0.135614 2.00073e-21)
(-0.00692609 0.0159788 0)
(0.0309019 -0.0964282 -1.29797e-21)
(0.0917208 -0.183101 0)
(0.165343 -0.240265 -6.49562e-22)
(0.249978 -0.271873 1.26777e-21)
(0.337916 -0.28288 1.2565e-21)
(0.424523 -0.277705 0)
(0.504965 -0.259972 1.22246e-21)
(0.575683 -0.23471 6.18091e-22)
(0.634065 -0.207948 0)
(0.6771 -0.186965 0)
(0.709279 -0.171886 0)
(0.73776 -0.147433 0)
(0.761447 -0.116868 5.36351e-22)
(0.780194 -0.0891645 0)
(0.793408 -0.063144 -9.67854e-22)
(0.796631 -0.0341112 0)
(0.786778 0.000958927 0)
(0.762082 0.0407152 9.02486e-22)
(0.721847 0.0838477 0)
(0.6659 0.130371 -8.85239e-22)
(0.592936 0.176831 4.57979e-22)
(0.504661 0.219297 -4.57342e-22)
(0.405135 0.254351 4.57332e-22)
(0.297968 0.280551 4.57378e-22)
(0.186052 0.297505 0)
(0.0712856 0.305887 0)
(-0.0448025 0.306625 -4.51522e-22)
(-0.161406 0.302189 4.10563e-22)
(-0.283209 0.301992 0)
(-0.409424 0.30891 0)
(-0.535642 0.313202 -4.2443e-22)
(-0.658264 0.309052 0)
(-0.777883 0.300149 0)
(-0.896375 0.293661 3.93016e-22)
(-1.01523 0.285712 0)
(-1.12987 0.272133 -3.15777e-22)
(-1.24011 0.254846 7.12335e-22)
(-1.34686 0.234225 0)
(-1.44354 0.211224 0)
(-1.53161 0.18077 1.17917e-21)
(-1.61069 0.149726 1.14063e-21)
(-1.68307 0.121332 1.10718e-21)
(-1.74034 0.0958926 -4.86653e-22)
(-1.7842 0.0744589 5.80771e-22)
(-1.81645 0.054145 1.61287e-21)
(-1.83819 0.0334574 -1.03278e-21)
(-1.85103 0.0138841 -5.65834e-22)
(-1.85664 -0.00210859 0)
(-1.85587 -0.0157114 5.75297e-22)
(-1.84817 -0.0294455 -4.9483e-22)
(-1.83356 -0.0444735 0)
(-1.81202 -0.0608823 0)
(-1.78267 -0.0769517 0)
(-1.74677 -0.0845261 6.40326e-22)
(-1.70672 -0.0811367 0)
(-1.66767 -0.0754985 -1.26145e-21)
(-1.62952 -0.0720741 0)
(-1.59213 -0.0681008 -1.32148e-21)
(-1.5576 -0.0626285 0)
(-1.52636 -0.0552378 1.38148e-21)
(-1.49934 -0.0468424 0)
(-1.47673 -0.0401735 -1.43393e-21)
(-1.45752 -0.0376578 6.91579e-22)
(-1.44016 -0.0392792 0)
(-1.4233 -0.0419722 1.47367e-21)
(-1.40626 -0.0392708 7.65418e-22)
(-1.39005 -0.0228412 7.61186e-22)
(-1.37494 0.00899052 0)
(-1.36742 0.037265 7.15815e-22)
(-1.37379 0.0411822 7.5826e-22)
(-1.3804 0.0252624 0)
(-1.38261 0.00361368 -7.57248e-22)
(-1.3744 -0.0166167 1.46929e-21)
(-1.36156 -0.0317403 0)
(-1.3445 -0.041861 7.56615e-22)
(-1.32319 -0.0487276 0)
(-1.29652 -0.0532373 -2.18487e-21)
(-1.26545 -0.0564039 0)
(-1.23128 -0.0587798 2.16157e-21)
(-1.19508 -0.0601518 7.37158e-22)
(-1.15765 -0.0600839 -6.90356e-22)
(-1.12016 -0.0579071 -1.39569e-21)
(-1.08419 -0.052652 1.41675e-21)
(-1.05151 -0.0446646 0)
(-1.02403 -0.0362382 0)
(-1.00111 -0.028871 0)
(-0.980281 -0.0247809 -4.76451e-21)
(-0.961286 -0.0272691 -1.6409e-21)
(-0.940309 -0.0350162 1.66811e-21)
(-0.914101 -0.0429426 0)
(-0.88432 -0.0462561 1.65438e-21)
(-0.85104 -0.0465054 -1.7368e-21)
(-0.810917 -0.0491643 -1.75591e-21)
(-0.76161 -0.0563207 0)
(-0.703517 -0.0661047 0)
(-0.638262 -0.0759132 0)
(-0.567439 -0.0843716 -1.82624e-21)
(-0.49221 -0.0911677 0)
(-0.413517 -0.0963585 3.69753e-21)
(-0.332151 -0.100131 5.63209e-21)
(-0.248801 -0.102714 -3.79313e-21)
(-0.16405 -0.104317 0)
(-0.0783762 -0.105157 -1.93453e-21)
(0.00784387 -0.105419 0)
(0.0943707 -0.105279 -3.9909e-21)
(0.181081 -0.104887 2.01117e-21)
(0.267964 -0.104379 2.03718e-21)
(0.355099 -0.103873 0)
(0.442614 -0.103445 6.30705e-21)
(0.530661 -0.103131 -4.25431e-21)
(0.619385 -0.102898 -2.1632e-21)
(0.70886 -0.102645 0)
(0.799027 -0.10222 -2.21815e-21)
(0.889684 -0.101424 -6.71846e-21)
(0.980442 -0.100063 0)
(1.07073 -0.0979975 -4.56399e-21)
(1.15984 -0.0951417 -4.59753e-21)
(1.24708 -0.09152 -4.62206e-21)
(1.33184 -0.0872677 0)
(1.4136 -0.0825554 0)
(1.49195 -0.0775871 0)
(1.56663 -0.0725896 2.31079e-21)
(1.6374 -0.0675283 2.30655e-21)
(1.7043 -0.0624295 0)
(1.76724 -0.0573008 4.54785e-21)
(1.8261 -0.0521565 4.50891e-21)
(1.8808 -0.0470287 0)
(1.93127 -0.0419729 4.42e-21)
(1.97752 -0.0370507 8.73072e-21)
(2.01961 -0.0323126 -4.31413e-21)
(2.05769 -0.0277935 -4.25329e-21)
(2.0919 -0.0235305 0)
(2.12243 -0.019534 0)
(2.14948 -0.0158009 0)
(2.17322 -0.0123184 -4.03092e-21)
(2.19386 -0.00906913 3.97151e-21)
(2.21155 -0.00603075 7.83665e-21)
(2.22645 -0.0031736 -3.8658e-21)
(2.2387 -0.000458896 3.8099e-21)
(2.24841 0.00214728 3.76047e-21)
(2.25567 0.00466412 0)
(2.26052 0.00708415 0)
(2.26299 0.00938761 -3.6074e-21)
(2.26312 0.0115485 0)
(2.26101 0.0135346 0)
(2.25679 0.0153062 6.93284e-21)
(2.25065 0.0168108 0)
(2.24276 0.0179798 3.37526e-21)
(2.23328 0.0187335 -3.3334e-21)
(2.22242 0.0189868 0)
(2.21046 0.0186734 3.24622e-21)
(2.19779 0.0177302 0)
(2.18488 0.0160901 0)
(2.17229 0.0137679 -3.12455e-21)
(2.16059 0.0109962 6.17129e-21)
(2.15031 0.00819851 -3.04803e-21)
(2.14182 0.00578471 0)
(2.13517 0.00397024 0)
(2.13021 0.00275321 2.94263e-21)
(2.12656 0.00202045 0)
(2.12391 0.00162478 2.8756e-21)
(2.12186 0.00146826 0)
(2.12028 0.0014559 0)
(2.11877 0.00160045 0)
(2.1174 0.00181295 2.74676e-21)
(2.11564 0.00225277 0)
(2.11378 0.00269072 -2.68449e-21)
(2.11105 0.00361871 0)
(2.10778 0.0043073 0)
(2.10324 0.00620872 5.18787e-21)
(2.0967 0.00706097 -5.13009e-21)
(2.08956 0.0111699 0)
(2.07519 0.0116835 0)
(2.06615 0.0213898 0)
(2.03116 0.0199006 1.47672e-20)
(2.02806 0.0455844 0)
(1.93827 0.0404698 -9.65948e-21)
(0.0161357 0.155868 4.6703e-24)
(0.0603822 0.0741036 -2.65616e-21)
(0.124885 -0.0772942 0)
(0.192728 -0.21709 2.59295e-21)
(0.26857 -0.325652 0)
(0.347928 -0.39732 0)
(0.426141 -0.434771 -3.02087e-23)
(0.498595 -0.441956 -1.25805e-21)
(0.562556 -0.42434 -1.19647e-21)
(0.616561 -0.38795 -1.22387e-21)
(0.65952 -0.339569 0)
(0.690825 -0.2857 0)
(0.709205 -0.233587 1.08056e-21)
(0.713039 -0.191955 2.0929e-21)
(0.705351 -0.159785 -2.02323e-21)
(0.694874 -0.125695 0)
(0.68228 -0.0890565 -1.88736e-21)
(0.665125 -0.0476728 9.68631e-22)
(0.637432 0.00711335 0)
(0.596356 0.0726596 -1.73463e-21)
(0.541702 0.140808 -9.03144e-22)
(0.472449 0.208474 1.68542e-21)
(0.389394 0.276793 8.85975e-22)
(0.295166 0.34243 0)
(0.192714 0.399312 -1.66939e-21)
(0.085004 0.444389 -1.66965e-21)
(-0.0251006 0.476036 0)
(-0.135218 0.493219 -1.66276e-21)
(-0.244106 0.496021 0)
(-0.351835 0.488687 -1.63282e-21)
(-0.462255 0.487452 -8.58471e-22)
(-0.574953 0.492707 0)
(-0.683959 0.492717 0)
(-0.788305 0.486954 0)
(-0.889457 0.479989 0)
(-0.988313 0.472774 0)
(-1.08343 0.461405 0)
(-1.17459 0.445912 -1.28685e-21)
(-1.26155 0.428455 1.91757e-21)
(-1.34423 0.404558 0)
(-1.42223 0.373842 0)
(-1.49497 0.341232 0)
(-1.5633 0.30208 -1.46921e-22)
(-1.62612 0.25657 -1.1424e-21)
(-1.68175 0.211681 -2.06754e-21)
(-1.72952 0.170307 2.00943e-21)
(-1.76894 0.13283 9.06291e-22)
(-1.80007 0.097366 -1.04204e-21)
(-1.82381 0.0642595 1.49738e-22)
(-1.84103 0.034646 -8.86097e-22)
(-1.85117 0.00877486 0)
(-1.85342 -0.0146413 -9.16904e-22)
(-1.84777 -0.0369194 1.36397e-22)
(-1.83512 -0.0588749 0)
(-1.81629 -0.0823881 0)
(-1.79152 -0.107045 1.05015e-21)
(-1.76235 -0.123565 0)
(-1.7278 -0.127744 0)
(-1.69144 -0.12749 -1.04022e-21)
(-1.65311 -0.126141 -2.36589e-21)
(-1.61328 -0.119824 1.3217e-21)
(-1.57557 -0.108891 0)
(-1.54124 -0.094713 -1.38164e-21)
(-1.51055 -0.0794799 0)
(-1.48335 -0.0660769 -1.22657e-21)
(-1.45974 -0.0562618 -1.45357e-21)
(-1.44004 -0.0503619 2.74943e-21)
(-1.42479 -0.0461993 1.3057e-21)
(-1.4141 -0.039577 0)
(-1.40614 -0.0254973 -2.81142e-21)
(-1.39494 -0.001097 0)
(-1.37869 0.0252659 -4.30896e-21)
(-1.36344 0.0306234 -2.83981e-21)
(-1.34785 0.0156283 -2.83411e-21)
(-1.33386 -0.00752732 2.82488e-21)
(-1.31989 -0.0309776 -4.2828e-21)
(-1.30652 -0.0480151 0)
(-1.29174 -0.0591311 0)
(-1.2741 -0.0677399 2.75211e-21)
(-1.25251 -0.0761648 4.16861e-21)
(-1.22602 -0.0835964 0)
(-1.19571 -0.0892742 -1.42285e-21)
(-1.16324 -0.0928501 0)
(-1.12937 -0.0937773 4.16165e-21)
(-1.09469 -0.0912237 1.211e-22)
(-1.06065 -0.0843881 -1.17597e-22)
(-1.02871 -0.0735421 -2.85419e-21)
(-1.00002 -0.061935 0)
(-0.974077 -0.0529897 2.97921e-21)
(-0.948693 -0.0482363 1.04925e-22)
(-0.923014 -0.0504405 0)
(-0.894385 -0.0602563 0)
(-0.862124 -0.070578 0)
(-0.826924 -0.0767744 -3.36999e-21)
(-0.784064 -0.084236 0)
(-0.730896 -0.0964573 0)
(-0.669145 -0.111562 0)
(-0.601419 -0.126919 0)
(-0.529663 -0.140683 0)
(-0.45493 -0.152079 -3.54704e-21)
(-0.377796 -0.161026 0)
(-0.298656 -0.167727 -3.69714e-21)
(-0.217868 -0.172479 -3.74432e-21)
(-0.135799 -0.175584 3.79274e-21)
(-0.0528141 -0.17733 0)
(0.030757 -0.178016 3.89119e-21)
(0.114655 -0.17791 0)
(0.198721 -0.177284 3.99053e-21)
(0.28288 -0.176384 -4.04091e-21)
(0.367153 -0.175421 -1.22182e-20)
(0.451642 -0.174571 0)
(0.536521 -0.173955 -1.2541e-20)
(0.622013 -0.173615 -4.20047e-21)
(0.708337 -0.17349 0)
(0.795647 -0.173406 -8.684e-21)
(0.883965 -0.173082 -8.79718e-21)
(0.97315 -0.172162 1.33797e-20)
(1.06284 -0.170288 0)
(1.15245 -0.167181 4.56385e-21)
(1.24125 -0.162691 4.59739e-21)
(1.32845 -0.156847 1.38352e-20)
(1.4134 -0.149883 0)
(1.4955 -0.14223 0)
(1.57423 -0.134152 0)
(1.64945 -0.125964 4.60586e-21)
(1.72099 -0.117683 0)
(1.78878 -0.109341 0)
(1.85271 -0.100958 -4.54744e-21)
(1.91269 -0.0925604 -4.50852e-21)
(1.96862 -0.0841928 0)
(2.02041 -0.0759447 0)
(2.06808 -0.0679165 -8.73e-21)
(2.1117 -0.0601938 0)
(2.15144 -0.0528554 8.51098e-21)
(2.18745 -0.0459523 8.38938e-21)
(2.21996 -0.0395016 0)
(2.24917 -0.0334959 0)
(2.27528 -0.0279144 -8.05076e-21)
(2.29847 -0.0227307 -6.16435e-24)
(2.31894 -0.0179098 -5.63954e-24)
(2.33685 -0.0134073 0)
(2.35234 -0.00916964 -1.52393e-20)
(2.36552 -0.00514252 0)
(2.37647 -0.00128132 0)
(2.38525 0.00243011 0)
(2.39191 0.00597215 7.21655e-21)
(2.39652 0.00929569 0)
(2.39919 0.0123366 -1.40436e-20)
(2.40007 0.0150242 -6.9323e-21)
(2.39935 0.0172897 0)
(2.39727 0.0190775 -6.75197e-21)
(2.39413 0.020349 0)
(2.39021 0.0210648 0)
(2.38575 0.0211544 -1.94762e-20)
(2.38084 0.0204836 1.2817e-20)
(2.3755 0.0189408 0)
(2.36979 0.0165665 1.24959e-20)
(2.36387 0.013617 -6.17065e-21)
(2.35801 0.0105095 0)
(2.35257 0.00765611 0)
(2.34787 0.00531965 0)
(2.34412 0.00356854 -1.76538e-20)
(2.34138 0.00235377 0)
(2.3396 0.00155932 -5.75064e-21)
(2.33867 0.00111388 0)
(2.3384 0.000911133 0)
(2.33865 0.000984743 0)
(2.33915 0.001195 0)
(2.33986 0.00175181 0)
(2.34036 0.00232227 0)
(2.34091 0.00355207 -1.06114e-20)
(2.34058 0.00450741 0)
(2.3405 0.00699072 -5.18727e-21)
(2.33816 0.00834986 1.53838e-20)
(2.33715 0.0134965 0)
(2.33046 0.0151196 0)
(2.32879 0.0264129 -9.92473e-21)
(2.31282 0.0280093 -9.83917e-21)
(2.31281 0.0543827 9.72659e-21)
(2.27955 0.0576999 9.65825e-21)
(0.0167592 0.0433168 4.00992e-21)
(0.0873099 -0.0927615 3.97881e-21)
(0.174138 -0.254664 2.61529e-21)
(0.26782 -0.396634 1.27413e-21)
(0.357361 -0.502376 0)
(0.433609 -0.563616 -2.46087e-21)
(0.493549 -0.581811 1.16318e-21)
(0.537157 -0.564608 0)
(0.566963 -0.520406 1.19767e-21)
(0.585542 -0.457508 0)
(0.59457 -0.383967 -2.15755e-21)
(0.595221 -0.306377 0)
(0.589214 -0.229309 -1.08152e-21)
(0.575124 -0.161299 -2.09475e-21)
(0.549592 -0.11005 2.02499e-21)
(0.517596 -0.0695752 0)
(0.483151 -0.0289668 1.88879e-21)
(0.442158 0.0243817 0)
(0.38935 0.0987294 0)
(0.326851 0.183085 1.73603e-21)
(0.252921 0.271002 0)
(0.163397 0.364295 -1.27963e-22)
(0.0631361 0.453309 0)
(-0.0419098 0.529303 0)
(-0.148793 0.589722 1.32141e-22)
(-0.255354 0.633943 1.67186e-21)
(-0.360176 0.661989 1.53157e-21)
(-0.462527 0.67449 1.66488e-21)
(-0.563019 0.675387 0)
(-0.666022 0.675283 3.11995e-21)
(-0.770883 0.676395 0)
(-0.871955 0.671543 1.41972e-21)
(-0.968743 0.661578 0)
(-1.06211 0.648856 0)
(-1.15175 0.633895 -1.28319e-21)
(-1.23641 0.61531 0)
(-1.31591 0.594439 1.17511e-21)
(-1.39032 0.571869 1.70313e-22)
(-1.45811 0.544287 -2.29504e-21)
(-1.51976 0.511407 2.0103e-21)
(-1.57562 0.474858 0)
(-1.62471 0.433616 0)
(-1.66692 0.385888 6.76068e-22)
(-1.70326 0.333334 0)
(-1.73421 0.279867 9.60068e-22)
(-1.7592 0.228219 -9.30373e-22)
(-1.77776 0.179252 -9.07403e-22)
(-1.79005 0.133374 0)
(-1.79682 0.0907613 8.85032e-22)
(-1.79808 0.0515082 8.86825e-22)
(-1.79374 0.0150551 -1.43803e-21)
(-1.78373 -0.0195007 9.17345e-22)
(-1.76848 -0.0528872 9.44484e-22)
(-1.74848 -0.085435 0)
(-1.72329 -0.118463 0)
(-1.69457 -0.149622 -1.05021e-21)
(-1.66396 -0.168458 0)
(-1.63025 -0.172516 0)
(-1.59753 -0.17253 2.30178e-21)
(-1.56472 -0.172289 2.36563e-21)
(-1.53048 -0.165728 0)
(-1.49675 -0.152784 0)
(-1.46426 -0.136222 0)
(-1.43309 -0.118437 0)
(-1.40393 -0.101849 2.65998e-21)
(-1.37812 -0.0883204 -2.497e-21)
(-1.35721 -0.0782805 -2.74871e-21)
(-1.34217 -0.0699717 -5.36961e-21)
(-1.33196 -0.0597871 0)
(-1.32351 -0.0438031 1.55694e-22)
(-1.31213 -0.0213608 0)
(-1.29684 -0.00108765 2.83417e-21)
(-1.28133 0.00398747 1.33487e-22)
(-1.26599 -0.006745 2.83315e-21)