/*--------------------------------*- C++ -*----------------------------------*\
  =========                 |
  \\      /  F ield         | OpenFOAM: The Open Source CFD Toolbox
   \\    /   O peration     | Website:  https://openfoam.org
    \\  /    A nd           | Version:  7
     \\/     M anipulation  |
\*---------------------------------------------------------------------------*/
FoamFile
{
    version     2.0;
    format      ascii;
    class       volScalarField;
    location    "0.001";
    object      k;
}
// * * * * * * * * * * * * * * * * * * * * * * * * * * * * * * * * * * * * * //

dimensions      [0 2 -2 0 0 0 0];

internalField   nonuniform List<scalar> 
12225
(
2.15605e-05
0.000108838
0.000247518
0.000390686
0.000422171
0.000289512
9.64577e-05
3.58243e-05
1.42346e-05
1.09536e-05
2.56822e-06
3.92538e-05
1.65421e-05
0.000314232
0.000271389
0.000227598
0.000354373
0.00213325
2.11063e-05
4.42632e-05
5.56746e-05
5.33599e-05
4.04221e-05
2.07769e-05
8.33873e-06
3.01506e-06
1.0306e-06
4.18943e-07
1.13877e-07
3.50289e-07
2.48803e-07
3.96887e-06
5.04337e-06
8.62014e-06
8.51146e-06
2.5626e-05
2.05414e-05
2.12014e-05
2.0396e-05
1.53847e-05
7.85927e-06
3.39333e-06
1.28143e-06
4.37699e-07
1.38797e-07
4.27242e-08
1.15351e-08
6.24063e-09
3.48416e-09
5.17224e-08
9.41939e-08
1.8703e-07
2.83001e-07
7.19103e-07
2.01411e-05
2.30103e-05
2.58131e-05
2.48829e-05
1.83367e-05
8.3198e-06
3.16131e-06
1.06534e-06
3.29676e-07
9.76762e-08
2.4687e-08
1.65429e-08
7.5908e-09
2.25818e-07
2.7193e-07
4.35158e-07
4.80023e-07
4.02582e-07
2.11818e-05
2.88361e-05
3.66036e-05
3.64082e-05
2.76539e-05
1.1849e-05
4.28603e-06
1.39018e-06
4.15551e-07
1.1658e-07
3.11128e-08
8.12464e-09
1.78383e-09
2.52828e-09
3.47106e-09
5.36682e-09
7.78492e-09
7.21789e-09
2.25478e-05
2.84079e-05
3.73825e-05
3.73088e-05
2.83746e-05
1.21325e-05
4.3788e-06
1.41664e-06
4.22049e-07
1.17908e-07
3.13454e-08
8.02282e-09
1.99329e-09
5.00599e-10
1.38225e-10
7.11189e-11
7.40236e-11
1.69549e-10
2.06623e-05
2.86395e-05
3.71115e-05
3.67816e-05
2.76315e-05
1.17268e-05
4.20947e-06
1.35573e-06
4.02547e-07
1.12163e-07
2.97494e-08
7.59886e-09
1.88857e-09
4.61574e-10
1.10139e-10
2.38942e-11
1.99232e-11
1.03068e-10
2.07153e-05
2.91864e-05
3.46888e-05
3.43014e-05
2.6072e-05
1.12246e-05
4.07309e-06
1.32326e-06
3.95691e-07
1.10891e-07
2.95438e-08
7.56848e-09
1.8832e-09
4.59702e-10
1.07866e-10
2.45257e-11
2.66136e-11
1.59209e-10
2.06763e-05
2.90742e-05
3.86926e-05
3.86908e-05
2.99295e-05
1.28974e-05
4.66588e-06
1.50828e-06
4.48186e-07
1.24667e-07
3.29197e-08
8.34606e-09
2.05186e-09
4.92444e-10
1.11645e-10
2.95944e-11
4.35968e-11
2.67962e-10
2.04801e-05
2.64311e-05
3.33255e-05
3.3762e-05
2.75817e-05
1.23554e-05
4.52721e-06
1.47897e-06
4.43159e-07
1.24118e-07
3.29498e-08
8.38224e-09
2.06361e-09
4.91692e-10
1.08245e-10
4.07074e-11
9.15078e-11
5.10512e-10
2.03199e-05
3.03381e-05
4.78335e-05
4.89427e-05
3.92915e-05
1.71459e-05
6.17904e-06
1.98329e-06
5.83232e-07
1.59988e-07
4.14889e-08
1.02789e-08
2.45758e-09
5.62553e-10
1.18437e-10
7.158e-11
2.74565e-10
1.062e-09
2.02711e-05
2.84111e-05
3.74044e-05
3.76379e-05
2.95915e-05
1.2759e-05
4.60299e-06
1.4802e-06
4.36384e-07
1.20046e-07
3.12267e-08
7.76212e-09
1.86309e-09
4.2206e-10
9.28029e-11
9.87832e-11
5.85418e-10
1.84239e-09
2.02936e-05
2.8877e-05
4.1987e-05
4.29467e-05
3.47803e-05
1.52746e-05
5.51122e-06
1.77013e-06
5.20193e-07
1.42404e-07
3.67952e-08
9.06557e-09
2.15084e-09
4.82619e-10
1.03457e-10
1.07681e-10
3.15048e-10
4.11349e-10
2.02683e-05
2.95551e-05
4.446e-05
4.56175e-05
3.71736e-05
1.64525e-05
5.94994e-06
1.9132e-06
5.62005e-07
1.53514e-07
3.95043e-08
9.67369e-09
2.27396e-09
5.12278e-10
1.11437e-10
2.94668e-11
1.73214e-11
1.90543e-11
2.03068e-05
3.0472e-05
4.74139e-05
4.90098e-05
4.03692e-05
1.81212e-05
6.56864e-06
2.11799e-06
6.27166e-07
1.71588e-07
4.41524e-08
1.07912e-08
2.52439e-09
5.68888e-10
1.23864e-10
2.6146e-11
5.47039e-12
1.26603e-12
2.02618e-05
3.00363e-05
4.88015e-05
5.15196e-05
4.41588e-05
2.11508e-05
7.76723e-06
2.54721e-06
7.66519e-07
2.1233e-07
5.4996e-08
1.34774e-08
3.14849e-09
7.0538e-10
1.52285e-10
3.18113e-11
6.4346e-12
1.28775e-12
2.03453e-05
3.03892e-05
5.592e-05
6.12992e-05
5.47946e-05
2.87073e-05
1.06168e-05
3.4998e-06
1.04792e-06
2.87663e-07
7.36264e-08
1.77579e-08
4.07011e-09
8.92584e-10
1.8828e-10
3.83478e-11
7.56037e-12
1.47667e-12
2.03945e-05
2.86152e-05
5.64471e-05
6.63527e-05
6.15987e-05
3.55417e-05
1.32203e-05
4.35395e-06
1.29356e-06
3.52299e-07
8.91513e-08
2.11902e-08
4.77172e-09
1.025e-09
2.11237e-10
4.19652e-11
8.06368e-12
1.53631e-12
2.01615e-05
2.8752e-05
5.99588e-05
7.00861e-05
6.55586e-05
3.92167e-05
1.48647e-05
4.9339e-06
1.46683e-06
3.97468e-07
9.96036e-08
2.3356e-08
5.17352e-09
1.09093e-09
2.20402e-10
4.28934e-11
8.07299e-12
1.50539e-12
2.01807e-05
2.86463e-05
5.41391e-05
6.0735e-05
5.56531e-05
3.10626e-05
1.14996e-05
3.75626e-06
1.10097e-06
2.94412e-07
7.2853e-08
1.68729e-08
3.69144e-09
7.6875e-10
1.53368e-10
2.94721e-11
5.47789e-12
1.00922e-12
2.02364e-05
3.0991e-05
6.08492e-05
6.78576e-05
6.11666e-05
3.24781e-05
1.18276e-05
3.80712e-06
1.09972e-06
2.89921e-07
7.07563e-08
1.6169e-08
3.49182e-09
7.18102e-10
1.41503e-10
2.68342e-11
4.92365e-12
8.96739e-13
2.04588e-05
3.24222e-05
5.7014e-05
6.04427e-05
5.24773e-05
2.5647e-05
9.29973e-06
2.98061e-06
8.61085e-07
2.25962e-07
5.4865e-08
1.24728e-08
2.68113e-09
5.49335e-10
1.08098e-10
2.06095e-11
3.82605e-12
7.12622e-13
2.06232e-05
2.96523e-05
4.55802e-05
4.71672e-05
4.00388e-05
1.89124e-05
6.89101e-06
2.22292e-06
6.52183e-07
1.73105e-07
4.24207e-08
9.75379e-09
2.1259e-09
4.4462e-10
9.0927e-11
1.88774e-11
4.29784e-12
1.19824e-12
2.03087e-05
2.92874e-05
4.36643e-05
4.49099e-05
3.79884e-05
1.78024e-05
6.43621e-06
2.06972e-06
6.10782e-07
1.65052e-07
4.13508e-08
9.94844e-09
2.34727e-09
5.84502e-10
1.72875e-10
6.49377e-11
2.9811e-11
1.49473e-11
2.02544e-05
3.02256e-05
5.13738e-05
5.55408e-05
4.92966e-05
2.45071e-05
8.54357e-06
2.6954e-06
7.87632e-07
2.13448e-07
5.51465e-08
1.46665e-08
4.63797e-09
2.02188e-09
1.18066e-09
6.6996e-10
3.97907e-10
2.29375e-10
2.03923e-05
3.45046e-05
5.74925e-05
6.06493e-05
5.25318e-05
2.48643e-05
8.62628e-06
2.71167e-06
7.91787e-07
2.15897e-07
5.72341e-08
1.65112e-08
6.36875e-09
3.78276e-09
2.88298e-09
2.32346e-09
1.95529e-09
1.22972e-09
2.03215e-05
2.82417e-05
3.4226e-05
3.33374e-05
2.46507e-05
1.04553e-05
3.69295e-06
1.14478e-06
3.18965e-07
8.13088e-08
1.92516e-08
4.30545e-09
9.39961e-10
2.20201e-10
7.51236e-11
5.23e-11
5.52848e-11
6.03781e-11
2.0571e-05
1.87541e-05
1.72677e-05
1.52321e-05
9.45457e-06
4.2084e-06
1.55166e-06
4.9733e-07
1.42852e-07
3.75738e-08
9.2814e-09
2.31989e-09
7.94419e-10
6.13503e-10
6.79152e-10
9.27186e-10
1.50055e-09
1.80393e-09
2.88157e-05
9.50739e-05
0.000134773
0.000130052
8.83107e-05
3.52164e-05
1.19376e-05
3.60795e-06
1.01044e-06
2.66732e-07
7.11178e-08
2.65594e-08
2.04682e-08
2.35067e-08
3.18783e-08
4.83033e-08
7.09699e-08
8.7031e-08
0.00191634
0.00182987
0.00156838
0.00118331
0.000693777
0.000303887
0.000107836
3.30591e-05
1.0237e-05
2.83644e-06
8.1677e-07
4.57236e-07
4.79821e-07
6.91218e-07
9.79329e-07
1.51305e-06
2.09477e-06
2.73712e-06
8.74579e-08
3.72846e-08
6.79782e-09
2.70503e-09
8.8123e-10
3.83192e-10
2.76343e-10
2.02391e-10
1.52856e-10
1.22724e-10
9.58525e-11
7.13563e-11
5.01923e-11
3.31771e-11
2.06736e-11
1.23724e-11
7.32754e-12
5.28924e-12
4.34894e-12
3.6954e-12
3.14135e-12
2.65323e-12
2.22411e-12
1.85021e-12
1.52758e-12
1.25188e-12
1.01845e-12
8.22674e-13
6.59845e-13
5.25618e-13
4.15962e-13
3.27047e-13
2.55476e-13
1.98255e-13
1.52858e-13
1.17125e-13
8.92315e-14
6.76198e-14
5.09868e-14
3.82636e-14
2.85878e-14
2.12709e-14
1.57677e-14
1.1651e-14
8.58643e-15
6.31672e-15
4.64354e-15
3.41621e-15
2.51976e-15
1.86774e-15
1.39605e-15
1.05522e-15
8.09904e-16
6.34473e-16
5.09712e-16
4.21437e-16
3.59305e-16
3.15786e-16
2.85463e-16
2.6445e-16
2.4998e-16
2.4009e-16
2.33394e-16
2.28913e-16
2.2597e-16
2.24089e-16
2.22946e-16
2.22322e-16
2.22069e-16
2.22045e-16
2.22045e-16
2.22045e-16
2.22045e-16
2.22045e-16
2.22045e-16
2.22045e-16
2.22045e-16
2.22045e-16
2.22045e-16
2.22045e-16
2.22045e-16
2.22045e-16
2.22045e-16
2.22045e-16
2.22045e-16
2.22045e-16
2.22045e-16
2.22045e-16
2.22045e-16
2.22045e-16
2.22045e-16
2.22045e-16
2.22045e-16
2.22045e-16
2.22045e-16
2.22045e-16
2.22045e-16
2.22045e-16
2.22045e-16
2.22045e-16
2.22045e-16
2.22045e-16
2.22045e-16
2.22045e-16
2.22045e-16
2.22045e-16
2.22045e-16
2.22045e-16
2.22045e-16
2.22045e-16
2.22045e-16
2.22045e-16
2.22045e-16
2.22045e-16
2.22045e-16
2.22045e-16
2.22045e-16
2.22045e-16
2.22045e-16
2.22045e-16
2.22045e-16
2.22045e-16
2.22045e-16
2.22045e-16
2.22045e-16
2.22045e-16
2.22045e-16
2.22045e-16
2.22045e-16
2.22045e-16
2.22045e-16
2.22045e-16
2.22045e-16
2.22045e-16
2.22045e-16
2.22045e-16
2.22045e-16
2.22045e-16
2.22045e-16
2.22045e-16
2.22045e-16
2.22045e-16
2.22045e-16
2.22045e-16
2.22045e-16
2.22045e-16
2.22045e-16
2.22045e-16
2.22045e-16
2.22045e-16
2.22045e-16
2.22045e-16
2.22045e-16
2.22045e-16
2.22045e-16
2.22045e-16
2.43806e-16
3.68378e-16
8.11841e-16
2.25228e-15
3.89165e-14
6.22394e-13
3.07552e-12
9.60531e-12
2.38773e-11
5.07283e-11
9.88015e-11
1.83483e-10
3.31434e-10
5.90009e-10
1.04538e-09
1.86725e-09
3.35862e-09
6.35955e-09
1.28879e-08
2.82157e-08
7.64166e-08
8.68011e-08
3.86521e-08
2.57525e-08
3.89631e-07
1.74623e-07
2.49185e-07
1.39435e-07
5.00209e-08
2.44274e-08
1.88528e-08
1.42618e-08
1.06587e-08
8.68143e-09
6.87287e-09
5.20096e-09
3.73809e-09
2.54532e-09
1.65293e-09
1.04619e-09
6.56999e-10
4.98587e-10
4.22881e-10
3.66782e-10
3.17578e-10
2.73286e-10
2.33576e-10
1.98277e-10
1.67177e-10
1.40018e-10
1.16501e-10
9.63135e-11
7.91159e-11
6.4584e-11
5.24072e-11
4.22745e-11
3.3899e-11
2.7019e-11
2.14072e-11
1.6861e-11
1.32052e-11
1.02874e-11
7.9744e-12
6.15157e-12
4.72297e-12
3.60936e-12
2.74575e-12
2.07951e-12
1.56798e-12
1.17717e-12
8.79967e-13
6.55058e-13
4.85578e-13
3.58426e-13
2.63446e-13
1.9264e-13
1.40111e-13
1.01395e-13
7.30144e-14
5.23179e-14
3.73046e-14
2.64681e-14
1.86873e-14
1.31303e-14
9.18398e-15
6.39837e-15
4.44557e-15
3.08514e-15
2.14535e-15
1.50107e-15
1.06328e-15
7.68926e-16
5.73083e-16
4.44316e-16
3.60748e-16
3.07832e-16
2.75599e-16
2.55898e-16
2.43568e-16
2.35726e-16
2.30715e-16
2.27523e-16
2.25499e-16
2.24222e-16
2.2342e-16
2.22917e-16
2.22601e-16
2.22403e-16
2.22276e-16
2.222e-16
2.22155e-16
2.22123e-16
2.22099e-16
2.22082e-16
2.22071e-16
2.22063e-16
2.22057e-16
2.22054e-16
2.22051e-16
2.22049e-16
2.22048e-16
2.22047e-16
2.22047e-16
2.22046e-16
2.22046e-16
2.22045e-16
2.22045e-16
2.22045e-16
2.22045e-16
2.22045e-16
2.22045e-16
2.22045e-16
2.22045e-16
2.22045e-16
2.22045e-16
2.22045e-16
2.22045e-16
2.22045e-16
2.22045e-16
2.22045e-16
2.22045e-16
2.22045e-16
2.22045e-16
2.22045e-16
2.22045e-16
2.22045e-16
2.22045e-16
2.22045e-16
2.22045e-16
2.22045e-16
2.22045e-16
2.22045e-16
2.22045e-16
2.22045e-16
2.22045e-16
2.22045e-16
2.22045e-16
2.22045e-16
2.22045e-16
2.22045e-16
2.22045e-16
2.22045e-16
2.22045e-16
2.22045e-16
2.22045e-16
2.22045e-16
2.22045e-16
2.22045e-16
2.22045e-16
2.22045e-16
2.22045e-16
2.22045e-16
2.22045e-16
2.22045e-16
2.22045e-16
2.22045e-16
2.22045e-16
2.22045e-16
2.22045e-16
2.22055e-16
2.22314e-16
2.2377e-16
2.28993e-16
2.45772e-16
4.00678e-16
2.40969e-15
1.17031e-14
4.01827e-14
1.03633e-13
2.23204e-13
4.40656e-13
8.28595e-13
1.51587e-12
2.73671e-12
4.92731e-12
8.98224e-12
1.65233e-11
3.19905e-11
6.6314e-11
1.5344e-10
4.62219e-10
9.88706e-10
7.45991e-10
9.97417e-10
5.29849e-07
8.24798e-08
3.42781e-07
4.60775e-07
4.48066e-07
4.15977e-07
3.79215e-07
3.39255e-07
2.94523e-07
2.46227e-07
1.98352e-07
1.53333e-07
1.134e-07
8.03198e-08
5.50222e-08
3.72563e-08
2.51882e-08
2.01365e-08
1.76658e-08
1.56635e-08
1.38376e-08
1.21553e-08
1.06144e-08
9.21432e-09
7.95227e-09
6.8236e-09
5.82177e-09
4.93939e-09
4.1675e-09
3.49709e-09
2.91922e-09
2.42433e-09
2.00295e-09
1.64603e-09
1.34577e-09
1.09464e-09
8.85794e-10
7.1315e-10
5.71529e-10
4.5603e-10
3.62307e-10
2.86629e-10
2.25806e-10
1.77157e-10
1.38416e-10
1.07706e-10
8.34661e-11
6.44216e-11
4.95185e-11
3.78986e-11
2.88626e-11
2.18674e-11
1.64811e-11
1.23581e-11
9.21784e-12
6.83776e-12
5.04332e-12
3.69724e-12
2.69299e-12
1.94792e-12
1.39846e-12
9.95861e-13
7.03043e-13
4.91552e-13
3.40198e-13
2.32812e-13
1.57387e-13
1.05037e-13
6.91377e-14
4.486e-14
2.86983e-14
1.85933e-14
1.22032e-14
8.08528e-15
5.3839e-15
3.60032e-15
2.42483e-15
1.65413e-15
1.15161e-15
8.25457e-16
6.14506e-16
4.78276e-16
3.9026e-16
3.33484e-16
2.95921e-16
2.73395e-16
2.60079e-16
2.49429e-16
2.41227e-16
2.35488e-16
2.31537e-16
2.28815e-16
2.26937e-16
2.25614e-16
2.24688e-16
2.24059e-16
2.23596e-16
2.23245e-16
2.22976e-16
2.22769e-16
2.22609e-16
2.22485e-16
2.22387e-16
2.2231e-16
2.22249e-16
2.22202e-16
2.22165e-16
2.22135e-16
2.22113e-16
2.22095e-16
2.22081e-16
2.22071e-16
2.22063e-16
2.22057e-16
2.22053e-16
2.2205e-16
2.22048e-16
2.22046e-16
2.22045e-16
2.22045e-16
2.22045e-16
2.22045e-16
2.22045e-16
2.22045e-16
2.22045e-16
2.22045e-16
2.22045e-16
2.22045e-16
2.22045e-16
2.22045e-16
2.22045e-16
2.22045e-16
2.22045e-16
2.22045e-16
2.22045e-16
2.22045e-16
2.22045e-16
2.22045e-16
2.22045e-16
2.22045e-16
2.22045e-16
2.22045e-16
2.22045e-16
2.22045e-16
2.22045e-16
2.22045e-16
2.22045e-16
2.22045e-16
2.22045e-16
2.22045e-16
2.22045e-16
2.22045e-16
2.22045e-16
2.22045e-16
2.22045e-16
2.22045e-16
2.22045e-16
2.22047e-16
2.22066e-16
2.22147e-16
2.22706e-16
2.28658e-16
2.57621e-16
3.54511e-16
5.69803e-16
9.77669e-16
1.72716e-15
3.07818e-15
5.50077e-15
9.86801e-15
1.78437e-14
3.29526e-14
6.18434e-14
1.22634e-13
2.61015e-13
6.33938e-13
2.03148e-12
7.05981e-12
6.98666e-12
1.20317e-11
7.12974e-07
6.49288e-08
1.81479e-07
4.94969e-07
5.15039e-07
5.05147e-07
4.8608e-07
4.66338e-07
4.45379e-07
4.23316e-07
4.00373e-07
3.76788e-07
3.52811e-07
3.28687e-07
3.04655e-07
2.80941e-07
2.57745e-07
2.35262e-07
2.13639e-07
1.93011e-07
1.7349e-07
1.55159e-07
1.38077e-07
1.22274e-07
1.07759e-07
9.45169e-08
8.25167e-08
7.1712e-08
6.2043e-08
5.34417e-08
4.58362e-08
3.91494e-08
3.33024e-08
2.82109e-08
2.3802e-08
2.00046e-08
1.67497e-08
1.39722e-08
1.16119e-08
9.61494e-09
7.93243e-09
6.52082e-09
5.34123e-09
4.35954e-09
3.54562e-09
2.87345e-09
2.32038e-09
1.86711e-09
1.4969e-09
1.1957e-09
9.51552e-10
7.54396e-10
5.95748e-10
4.68566e-10
3.66975e-10
2.86136e-10
2.22071e-10
1.71502e-10
1.31765e-10
1.00675e-10
7.64677e-11
5.77152e-11
4.32704e-11
3.22082e-11
2.37931e-11
1.74364e-11
1.26714e-11
9.13023e-12
6.52161e-12
4.61821e-12
3.24297e-12
2.25876e-12
1.56147e-12
1.07235e-12
7.32404e-13
4.98085e-13
3.37715e-13
2.28602e-13
1.54695e-13
1.0479e-13
7.11624e-14
4.85136e-14
3.32497e-14
2.29446e-14
1.59703e-14
1.12217e-14
7.96969e-15
5.73747e-15
4.19556e-15
3.11882e-15
2.35736e-15
1.81372e-15
1.42351e-15
1.14025e-15
9.26779e-16
7.62732e-16
6.37635e-16
5.43141e-16
4.7173e-16
4.17356e-16
3.75542e-16
3.43124e-16
3.17786e-16
2.97885e-16
2.82197e-16
2.69789e-16
2.5995e-16
2.52134e-16
2.45915e-16
2.40964e-16
2.37023e-16
2.33885e-16
2.31389e-16
2.29405e-16
2.2783e-16
2.26581e-16
2.25591e-16
2.24811e-16
2.24197e-16
2.23714e-16
2.23334e-16
2.23034e-16
2.22795e-16
2.22605e-16
2.22453e-16
2.2233e-16
2.22228e-16
2.22142e-16
2.2206e-16
2.22045e-16
2.22045e-16
2.22045e-16
2.22045e-16
2.22045e-16
2.22045e-16
2.22045e-16
2.22045e-16
2.22045e-16
2.22045e-16
2.22045e-16
2.22045e-16
2.22045e-16
2.22045e-16
2.22045e-16
2.22045e-16
2.22045e-16
2.22045e-16
2.22045e-16
2.22045e-16
2.22045e-16
2.22045e-16
2.22045e-16
2.22045e-16
2.22045e-16
2.22045e-16
2.22045e-16
2.22045e-16
2.22045e-16
2.22045e-16
2.22045e-16
2.22045e-16
2.22045e-16
2.22098e-16
2.22531e-16
2.23485e-16
2.25184e-16
2.28313e-16
2.34169e-16
2.45404e-16
2.67836e-16
3.15253e-16
4.2348e-16
6.84343e-16
1.40057e-15
3.58831e-15
1.22895e-14
9.33e-14
9.50095e-13
6.81801e-12
3.13169e-12
9.86761e-07
7.19713e-08
1.01655e-07
5.012e-07
5.51518e-07
5.428e-07
5.22314e-07
5.00803e-07
4.78003e-07
4.53982e-07
4.28976e-07
4.03248e-07
3.77071e-07
3.50719e-07
3.24463e-07
2.98561e-07
2.7325e-07
2.48751e-07
2.25243e-07
2.02888e-07
1.81802e-07
1.62076e-07
1.43765e-07
1.26895e-07
1.11465e-07
9.7449e-08
8.4803e-08
7.34654e-08
6.3365e-08
5.44191e-08
4.65402e-08
3.96375e-08
3.36232e-08
2.84127e-08
2.39214e-08
2.00648e-08
1.67684e-08
1.39634e-08
1.1587e-08
9.58214e-09
7.8975e-09
6.48745e-09
5.31172e-09
4.33501e-09
3.52655e-09
2.85979e-09
2.31173e-09
1.86283e-09
1.49636e-09
1.19825e-09
9.56482e-10
7.61055e-10
6.03613e-10
4.77193e-10
3.76016e-10
2.9531e-10
2.31147e-10
1.80295e-10
1.40142e-10
1.08536e-10
8.37455e-11
6.437e-11
4.92802e-11
3.75741e-11
2.85247e-11
2.15586e-11
1.62182e-11
1.21413e-11
9.04282e-12
6.6989e-12
4.93438e-12
3.61277e-12
2.62813e-12
1.8987e-12
1.36152e-12
9.68461e-13
6.82836e-13
4.7684e-13
3.2946e-13
2.24944e-13
1.51545e-13
1.00574e-13
6.55869e-14
4.19218e-14
2.61718e-14
1.58539e-14
9.22292e-15
5.16796e-15
2.7685e-15
1.37831e-15
6.02247e-16
3.15239e-16
2.43861e-16
2.28529e-16
2.25275e-16
2.24372e-16
2.23915e-16
2.23589e-16
2.23328e-16
2.23108e-16
2.22922e-16
2.22769e-16
2.22642e-16
2.22537e-16
2.22449e-16
2.22376e-16
2.22316e-16
2.22266e-16
2.22225e-16
2.22191e-16
2.22163e-16
2.2214e-16
2.22121e-16
2.22106e-16
2.22094e-16
2.22083e-16
2.22075e-16
2.22069e-16
2.22064e-16
2.2206e-16
2.22056e-16
2.22054e-16
2.22052e-16
2.2205e-16
2.22049e-16
2.22048e-16
2.22047e-16
2.22046e-16
2.22045e-16
2.22045e-16
2.22045e-16
2.22045e-16
2.22045e-16
2.22045e-16
2.22045e-16
2.22045e-16
2.22045e-16
2.22045e-16
2.22045e-16
2.22045e-16
2.22045e-16
2.22045e-16
2.22045e-16
2.22045e-16
2.22045e-16
2.22045e-16
2.22045e-16
2.22045e-16
2.22045e-16
2.22045e-16
2.22045e-16
2.22045e-16
2.22045e-16
2.22045e-16
2.22046e-16
2.22078e-16
2.22158e-16
2.22338e-16
2.22755e-16
2.23758e-16
2.26201e-16
2.31949e-16
2.44614e-16
2.69744e-16
3.17292e-16
4.08204e-16
5.91217e-16
9.84126e-16
1.89021e-15
4.13417e-15
1.00627e-14
2.6598e-14
7.47153e-14
2.18825e-13
6.48014e-13
1.8513e-12
5.02103e-12
9.87068e-12
7.11161e-12
1.26417e-12
1.3847e-06
9.44888e-08
6.58259e-08
5.3621e-07
6.08206e-07
5.99912e-07
5.77163e-07
5.52703e-07
5.26825e-07
4.99525e-07
4.71077e-07
4.41798e-07
4.1202e-07
3.82079e-07
3.52304e-07
3.2301e-07
2.94479e-07
2.6697e-07
2.40694e-07
2.15831e-07
1.92504e-07
1.70807e-07
1.50786e-07
1.32454e-07
1.15791e-07
1.00752e-07
8.72674e-08
7.52552e-08
6.46194e-08
5.52574e-08
4.70617e-08
3.99242e-08
3.37385e-08
2.84068e-08
2.3832e-08
1.99233e-08
1.65985e-08
1.3782e-08
1.14057e-08
9.4085e-09
7.73631e-09
6.34134e-09
5.18177e-09
4.22124e-09
3.42828e-09
2.77585e-09
2.24079e-09
1.80345e-09
1.44704e-09
1.15759e-09
9.23221e-10
7.34056e-10
5.81849e-10
4.5976e-10
3.62136e-10
2.84322e-10
2.22493e-10
1.73525e-10
1.34869e-10
1.04452e-10
8.05991e-11
6.19598e-11
4.74454e-11
3.61844e-11
2.74791e-11
2.0777e-11
1.56374e-11
1.17126e-11
8.72861e-12
6.4704e-12
4.76959e-12
3.49498e-12
2.54477e-12
1.84033e-12
1.32116e-12
9.40941e-13
6.64373e-13
4.64681e-13
3.21637e-13
2.20061e-13
1.48615e-13
9.8906e-14
6.47158e-14
4.15312e-14
2.60584e-14
1.58847e-14
9.3184e-15
5.27784e-15
2.8743e-15
1.4728e-15
6.67073e-16
3.31977e-16
2.4469e-16
2.26054e-16
2.22675e-16
2.22138e-16
2.22061e-16
2.22051e-16
2.22049e-16
2.22048e-16
2.22048e-16
2.22047e-16
2.22047e-16
2.22047e-16
2.22046e-16
2.22046e-16
2.22046e-16
2.22046e-16
2.22045e-16
2.22045e-16
2.22045e-16
2.22045e-16
2.22045e-16
2.22045e-16
2.22045e-16
2.22045e-16
2.22045e-16
2.22045e-16
2.22045e-16
2.22045e-16
2.22045e-16
2.22045e-16
2.22045e-16
2.22045e-16
2.22045e-16
2.22045e-16
2.22045e-16
2.22045e-16
2.22045e-16
2.22045e-16
2.22045e-16
2.22045e-16
2.22045e-16
2.22045e-16
2.22045e-16
2.22045e-16
2.22045e-16
2.22045e-16
2.22045e-16
2.22045e-16
2.22045e-16
2.22045e-16
2.22045e-16
2.22045e-16
2.22045e-16
2.22045e-16
2.22045e-16
2.22045e-16
2.22045e-16
2.22045e-16
2.22045e-16
2.22045e-16
2.22045e-16
2.22045e-16
2.22045e-16
2.22045e-16
2.22046e-16
2.22054e-16
2.22222e-16
2.23081e-16
2.2549e-16
2.31132e-16
2.43331e-16
2.67013e-16
3.1005e-16
3.90973e-16
5.50652e-16
8.8879e-16
1.65295e-15
3.50228e-15
8.25823e-15
2.10773e-14
5.66687e-14
1.56405e-13
4.26769e-13
1.09293e-12
2.80973e-12
3.59219e-12
1.81715e-12
2.84778e-13
1.95474e-06
1.32712e-07
4.92027e-08
5.97374e-07
6.86103e-07
6.77539e-07
6.51589e-07
6.23188e-07
5.93127e-07
5.61325e-07
5.28116e-07
4.93897e-07
4.59094e-07
4.24139e-07
3.89452e-07
3.55434e-07
3.22441e-07
2.90787e-07
2.60725e-07
2.32459e-07
2.06122e-07
1.81803e-07
1.59532e-07
1.39296e-07
1.21048e-07
1.04707e-07
9.01705e-08
7.73228e-08
6.60345e-08
5.61711e-08
4.75978e-08
4.01808e-08
3.37992e-08
2.83341e-08
2.36726e-08
1.97129e-08
1.63635e-08
1.35406e-08
1.11704e-08
9.18729e-09
7.53386e-09
6.15993e-09
5.02198e-09
4.08249e-09
3.30928e-09
2.67488e-09
2.15592e-09
1.73273e-09
1.38861e-09
1.10963e-09
8.84114e-10
7.0239e-10
5.56361e-10
4.39361e-10
3.459e-10
2.71469e-10
2.12374e-10
1.65598e-10
1.28691e-10
9.96632e-11
7.6907e-11
5.91272e-11
4.52839e-11
3.45436e-11
2.62404e-11
1.98478e-11
1.49447e-11
1.11995e-11
8.35115e-12
6.19471e-12
4.56981e-12
3.35143e-12
2.44258e-12
1.76833e-12
1.27103e-12
9.06499e-13
6.41077e-13
4.49207e-13
3.11584e-13
2.13709e-13
1.44752e-13
9.66653e-14
6.35192e-14
4.09748e-14
2.58755e-14
1.59031e-14
9.43346e-15
5.41803e-15
3.01294e-15
1.59229e-15
7.58582e-16
3.63377e-16
2.52891e-16
2.27749e-16
2.22959e-16
2.22174e-16
2.22061e-16
2.22047e-16
2.22045e-16
2.22045e-16
2.22045e-16
2.22045e-16
2.22045e-16
2.22045e-16
2.22045e-16
2.22045e-16
2.22045e-16
2.22045e-16
2.22045e-16
2.22045e-16
2.22045e-16
2.22045e-16
2.22045e-16
2.22045e-16
2.22045e-16
2.22045e-16
2.22045e-16
2.22045e-16
2.22045e-16
2.22045e-16
2.22045e-16
2.22045e-16
2.22045e-16
2.22045e-16
2.22045e-16
2.22045e-16
2.22045e-16
2.22045e-16
2.22045e-16
2.22045e-16
2.22045e-16
2.22045e-16
2.22045e-16
2.22045e-16
2.22045e-16
2.22045e-16
2.22045e-16
2.22045e-16
2.22045e-16
2.22045e-16
2.22045e-16
2.22045e-16
2.22045e-16
2.22045e-16
2.22045e-16
2.22045e-16
2.22045e-16
2.22045e-16
2.22045e-16
2.22045e-16
2.22045e-16
2.22045e-16
2.22045e-16
2.22045e-16
2.22045e-16
2.22045e-16
2.22045e-16
2.22047e-16
2.2209e-16
2.22666e-16
2.24447e-16
2.28839e-16
2.38597e-16
2.58841e-16
2.95763e-16
3.64587e-16
4.97832e-16
7.7502e-16
1.38615e-15
2.82366e-15
6.39773e-15
1.56303e-14
3.98377e-14
1.02338e-13
2.53415e-13
6.22802e-13
1.13906e-12
1.01051e-12
2.61344e-13
4.71174e-14
2.7652e-06
1.90982e-07
4.46312e-08
6.83105e-07
7.91918e-07
7.83071e-07
7.52951e-07
7.19264e-07
6.83502e-07
6.45471e-07
6.05596e-07
5.64412e-07
5.22496e-07
4.80439e-07
4.38817e-07
3.9816e-07
3.58942e-07
3.21557e-07
2.86314e-07
2.53447e-07
2.2309e-07
1.95317e-07
1.7012e-07
1.47448e-07
1.27199e-07
1.09242e-07
9.34232e-08
7.95736e-08
6.75151e-08
5.7071e-08
4.80659e-08
4.03413e-08
3.37545e-08
2.81519e-08
2.34073e-08
1.94042e-08
1.60395e-08
1.32206e-08
1.08668e-08
8.90762e-09
7.28198e-09
5.93713e-09
4.82783e-09
3.91544e-09
3.16711e-09
2.55506e-09
2.05583e-09
1.64975e-09
1.32032e-09
1.05383e-09
8.38796e-10
6.65794e-10
5.26978e-10
4.15902e-10
3.27272e-10
2.56753e-10
2.00805e-10
1.5655e-10
1.21649e-10
9.42095e-11
7.27046e-11
5.59059e-11
4.28268e-11
3.26797e-11
2.48354e-11
1.87937e-11
1.41581e-11
1.0617e-11
7.92273e-12
5.88181e-12
4.34299e-12
3.18837e-12
2.32643e-12
1.68645e-12
1.21396e-12
8.67251e-13
6.14492e-13
4.31519e-13
3.00073e-13
2.06423e-13
1.40304e-13
9.40844e-14
6.21335e-14
4.03284e-14
2.56646e-14
1.59274e-14
9.57267e-15
5.58707e-15
3.18756e-15
1.74194e-15
8.81036e-16
4.10735e-16
2.66617e-16
2.30942e-16
2.23569e-16
2.22273e-16
2.22075e-16
2.22048e-16
2.22045e-16
2.22045e-16
2.22045e-16
2.22045e-16
2.22045e-16
2.22045e-16
2.22045e-16
2.22045e-16
2.22045e-16
2.22045e-16
2.22045e-16
2.22045e-16
2.22045e-16
2.22045e-16
2.22045e-16
2.22045e-16
2.22045e-16
2.22045e-16
2.22045e-16
2.22045e-16
2.22045e-16
2.22045e-16
2.22045e-16
2.22045e-16
2.22045e-16
2.22045e-16
2.22045e-16
2.22045e-16
2.22045e-16
2.22045e-16
2.22045e-16
2.22045e-16
2.22045e-16
2.22045e-16
2.22045e-16
2.22045e-16
2.22045e-16
2.22045e-16
2.22045e-16
2.22045e-16
2.22045e-16
2.22045e-16
2.22045e-16
2.22045e-16
2.22045e-16
2.22045e-16
2.22045e-16
2.22045e-16
2.22045e-16
2.22045e-16
2.22045e-16
2.22045e-16
2.22045e-16
2.22045e-16
2.22045e-16
2.22045e-16
2.22045e-16
2.22045e-16
2.22045e-16
2.22046e-16
2.22053e-16
2.22298e-16
2.23447e-16
2.26594e-16
2.33886e-16
2.4957e-16
2.80026e-16
3.36024e-16
4.42621e-16
6.58504e-16
1.12085e-15
2.17085e-15
4.6736e-15
1.08106e-14
2.58263e-14
6.09553e-14
1.36254e-13
3.0878e-13
3.16101e-13
1.44471e-13
2.51568e-14
5.61242e-15
3.91413e-06
2.78962e-07
4.59855e-08
7.99941e-07
9.36013e-07
9.27488e-07
8.92328e-07
8.51601e-07
8.08067e-07
7.61325e-07
7.11962e-07
6.60755e-07
6.08557e-07
5.56241e-07
5.04639e-07
4.54507e-07
4.0649e-07
3.61108e-07
3.18737e-07
2.79631e-07
2.43914e-07
2.1161e-07
1.82647e-07
1.56892e-07
1.34161e-07
1.14243e-07
9.68976e-08
8.18775e-08
6.8939e-08
5.78381e-08
4.83651e-08
4.0337e-08
3.35402e-08
2.78102e-08
2.29973e-08
1.89674e-08
1.56044e-08
1.28057e-08
1.04832e-08
8.56132e-09
6.97509e-09
5.66927e-09
4.59702e-09
3.71874e-09
3.0011e-09
2.41615e-09
1.94051e-09
1.55469e-09
1.24247e-09
9.90483e-10
7.87541e-10
6.24555e-10
4.93971e-10
3.89618e-10
3.06447e-10
2.40333e-10
1.8792e-10
1.46487e-10
1.13827e-10
8.81587e-11
6.80465e-11
5.23372e-11
4.01073e-11
3.06171e-11
2.32804e-11
1.76274e-11
1.32889e-11
9.97326e-12
7.44883e-12
5.53539e-12
4.09176e-12
3.00773e-12
2.19772e-12
1.59563e-12
1.15059e-12
8.23599e-13
5.84875e-13
4.11781e-13
2.87201e-13
1.98255e-13
1.35305e-13
9.11778e-14
6.0567e-14
3.95988e-14
2.54295e-14
1.59613e-14
9.737e-15
5.78875e-15
3.39318e-15
1.91457e-15
1.01906e-15
5.1345e-16
3.00961e-16
2.39606e-16
2.25318e-16
2.22567e-16
2.22117e-16
2.22054e-16
2.22046e-16
2.22045e-16
2.22045e-16
2.22045e-16
2.22045e-16
2.22045e-16
2.22045e-16
2.22045e-16
2.22045e-16
2.22045e-16
2.22045e-16
2.22045e-16
2.22045e-16
2.22045e-16
2.22045e-16
2.22045e-16
2.22045e-16
2.22045e-16
2.22045e-16
2.22045e-16
2.22045e-16
2.22045e-16
2.22045e-16
2.22045e-16
2.22045e-16
2.22045e-16
2.22045e-16
2.22045e-16
2.22045e-16
2.22045e-16
2.22045e-16
2.22045e-16
2.22045e-16
2.22045e-16
2.22045e-16
2.22045e-16
2.22045e-16
2.22045e-16
2.22045e-16
2.22045e-16
2.22045e-16
2.22045e-16
2.22045e-16
2.22045e-16
2.22045e-16
2.22045e-16
2.22045e-16
2.22045e-16
2.22045e-16
2.22045e-16
2.22045e-16
2.22045e-16
2.22045e-16
2.22045e-16
2.22045e-16
2.22045e-16
2.22045e-16
2.22045e-16
2.22045e-16
2.22045e-16
2.22047e-16
2.22067e-16
2.22615e-16
2.24493e-16
2.293e-16
2.4013e-16
2.6302e-16
3.06108e-16
3.86696e-16
5.43716e-16
8.69237e-16
1.57535e-15
3.16901e-15
6.82079e-15
1.49945e-14
3.19366e-14
6.99007e-14
8.77011e-14
4.56309e-14
1.05167e-14
1.86747e-15
1.10176e-15
5.54208e-06
4.11807e-07
5.36694e-08
9.5931e-07
1.13472e-06
1.12837e-06
1.0879e-06
1.0379e-06
9.83672e-07
9.24436e-07
8.61108e-07
7.9495e-07
7.27354e-07
6.59715e-07
5.93329e-07
5.29325e-07
4.68618e-07
4.11895e-07
3.59603e-07
3.11991e-07
2.69111e-07
2.30884e-07
1.97105e-07
1.675e-07
1.41753e-07
1.19502e-07
1.0038e-07
8.40341e-08
7.01019e-08
5.8311e-08
4.84e-08
4.00625e-08
3.30793e-08
2.72501e-08
2.2398e-08
1.83695e-08
1.50341e-08
1.22789e-08
1.0008e-08
8.14053e-09
6.6081e-09
5.35323e-09
4.3278e-09
3.49156e-09
2.811e-09
2.25828e-09
1.81031e-09
1.44799e-09
1.15555e-09
9.20064e-10
7.30796e-10
5.79059e-10
4.5767e-10
3.60792e-10
2.83663e-10
2.22405e-10
1.73878e-10
1.35537e-10
1.05327e-10
8.15904e-11
6.29946e-11
4.847e-11
3.71613e-11
2.83845e-11
2.15971e-11
1.63653e-11
1.23484e-11
9.27626e-12
6.9358e-12
5.16059e-12
3.81973e-12
2.81181e-12
2.05794e-12
1.49691e-12
1.08163e-12
7.76032e-13
5.52539e-13
3.9018e-13
2.73078e-13
1.89268e-13
1.29786e-13
8.79558e-14
5.88292e-14
3.87865e-14
2.51702e-14
1.60065e-14
9.92776e-15
6.02977e-15
3.63101e-15
2.12277e-15
1.18987e-15
6.54601e-16
3.59359e-16
2.58328e-16
2.30091e-16
2.23563e-16
2.22292e-16
2.2208e-16
2.22049e-16
2.22045e-16
2.22045e-16
2.22045e-16
2.22045e-16
2.22045e-16
2.22045e-16
2.22045e-16
2.22045e-16
2.22045e-16
2.22045e-16
2.22045e-16
2.22045e-16
2.22045e-16
2.22045e-16
2.22045e-16
2.22045e-16
2.22045e-16
2.22045e-16
2.22045e-16
2.22045e-16
2.22045e-16
2.22045e-16
2.22045e-16
2.22045e-16
2.22045e-16
2.22045e-16
2.22045e-16
2.22045e-16
2.22045e-16
2.22045e-16
2.22045e-16
2.22045e-16
2.22045e-16
2.22045e-16
2.22045e-16
2.22045e-16
2.22045e-16
2.22045e-16
2.22045e-16
2.22045e-16
2.22045e-16
2.22045e-16
2.22045e-16
2.22045e-16
2.22045e-16
2.22045e-16
2.22045e-16
2.22045e-16
2.22045e-16
2.22045e-16
2.22045e-16
2.22045e-16
2.22045e-16
2.22045e-16
2.22045e-16
2.22045e-16
2.22045e-16
2.22045e-16
2.22045e-16
2.22045e-16
2.22047e-16
2.22088e-16
2.22863e-16
2.25377e-16
2.31674e-16
2.45748e-16
2.75383e-16
3.31126e-16
4.36132e-16
6.41802e-16
1.06321e-15
1.94525e-15
3.81205e-15
7.41611e-15
1.49954e-14
1.90891e-14
1.13723e-14
3.08571e-15
8.07339e-16
3.09451e-16
4.54609e-16
7.84498e-06
6.1235e-07
6.86576e-08
1.17899e-06
1.41479e-06
1.4155e-06
1.37161e-06
1.30966e-06
1.24036e-06
1.16234e-06
1.07729e-06
9.87551e-07
8.95651e-07
8.04029e-07
7.14837e-07
6.29831e-07
5.50323e-07
4.77191e-07
4.109e-07
3.51588e-07
2.99118e-07
2.53171e-07
2.13294e-07
1.7897e-07
1.49613e-07
1.24647e-07
1.03525e-07
8.56846e-08
7.07686e-08
5.83518e-08
4.79969e-08
3.94002e-08
3.22831e-08
2.64051e-08
2.1561e-08
1.75762e-08
1.43051e-08
1.16241e-08
9.43056e-09
7.63865e-09
6.17716e-09
4.98703e-09
4.0194e-09
3.2339e-09
2.59727e-09
2.08214e-09
1.66601e-09
1.33044e-09
1.06029e-09
8.43251e-10
6.69152e-10
5.29813e-10
4.18504e-10
3.29777e-10
2.59207e-10
2.03203e-10
1.58864e-10
1.23848e-10
9.62648e-11
7.45953e-11
5.76193e-11
4.43576e-11
3.40306e-11
2.60127e-11
1.98088e-11
1.50248e-11
1.13495e-11
8.53614e-12
6.39098e-12
4.7619e-12
3.53039e-12
2.60341e-12
1.90902e-12
1.39155e-12
1.00794e-12
7.25111e-13
5.17854e-13
3.66957e-13
2.57852e-13
1.79548e-13
1.23798e-13
8.44492e-14
5.69347e-14
3.79037e-14
2.48935e-14
1.60658e-14
1.01491e-14
6.30803e-15
3.9156e-15
2.38096e-15
1.40083e-15
8.86931e-16
4.92387e-16
3.08273e-16
2.44898e-16
2.27128e-16
2.23008e-16
2.22202e-16
2.22067e-16
2.22048e-16
2.22045e-16
2.22045e-16
2.22045e-16
2.22045e-16
2.22045e-16
2.22045e-16
2.22045e-16
2.22045e-16
2.22045e-16
2.22045e-16
2.22045e-16
2.22045e-16
2.22045e-16
2.22045e-16
2.22045e-16
2.22045e-16
2.22045e-16
2.22045e-16
2.22045e-16
2.22045e-16
2.22045e-16