/*--------------------------------*- C++ -*----------------------------------*\
  =========                 |
  \\      /  F ield         | OpenFOAM: The Open Source CFD Toolbox
   \\    /   O peration     | Website:  https://openfoam.org
    \\  /    A nd           | Version:  7
     \\/     M anipulation  |
\*---------------------------------------------------------------------------*/
FoamFile
{
    version     2.0;
    format      ascii;
    class       surfaceScalarField;
    location    "0.001";
    object      phi_0;
}
// * * * * * * * * * * * * * * * * * * * * * * * * * * * * * * * * * * * * * //

dimensions      [0 3 -1 0 0 0 0];

internalField   nonuniform List<scalar> 
24170
(
1.41635e-06
1.93274e-07
1.30856e-06
1.07786e-07
1.27112e-06
3.74399e-08
1.28028e-06
-9.1582e-09
1.30729e-06
-2.70073e-08
1.33591e-06
-2.86268e-08
1.36031e-06
-2.43969e-08
1.38295e-06
-2.26401e-08
1.40733e-06
-2.4375e-08
1.43477e-06
-2.74414e-08
1.46723e-06
-3.24668e-08
1.50427e-06
-3.70352e-08
1.55025e-06
-4.59824e-08
1.59522e-06
-4.49671e-08
1.73569e-06
-1.40473e-07
1.70329e-06
3.24039e-08
1.86599e-06
-1.62705e-07
-5.08959e-07
2.37495e-06
1.68706e-06
2.24452e-07
1.68432e-06
1.10532e-07
1.67337e-06
4.83885e-08
1.67924e-06
-1.50334e-08
1.70021e-06
-4.79763e-08
1.72599e-06
-5.44029e-08
1.75337e-06
-5.17753e-08
1.77959e-06
-4.88591e-08
1.81183e-06
-5.66138e-08
1.83724e-06
-5.28566e-08
1.87999e-06
-7.52186e-08
1.92338e-06
-8.04206e-08
1.95192e-06
-7.45246e-08
2.05423e-06
-1.47282e-07
2.08458e-06
-1.70814e-07
2.22862e-06
-1.11638e-07
2.39046e-06
-3.2455e-07
-6.08077e-07
2.48958e-06
1.83772e-06
3.10333e-07
1.78035e-06
1.67904e-07
1.7727e-06
5.60327e-08
1.79548e-06
-3.78118e-08
1.82779e-06
-8.02827e-08
1.85958e-06
-8.61956e-08
1.88936e-06
-8.15529e-08
1.91917e-06
-7.86706e-08
1.94826e-06
-8.57016e-08
1.98338e-06
-8.79768e-08
2.01958e-06
-1.11421e-07
2.05556e-06
-1.16401e-07
2.12716e-06
-1.46123e-07
2.16388e-06
-1.83999e-07
2.23273e-06
-2.39672e-07
2.38105e-06
-2.59952e-07
2.47927e-06
-4.22774e-07
-6.80398e-07
2.55159e-06
1.96249e-06
3.12676e-07
1.92499e-06
2.05401e-07
1.91894e-06
6.20816e-08
1.93637e-06
-5.52428e-08
1.9647e-06
-1.08608e-07
1.99505e-06
-1.1655e-07
2.02537e-06
-1.11867e-07
2.0559e-06
-1.09205e-07
2.0875e-06
-1.173e-07
2.12355e-06
-1.24031e-07
2.15791e-06
-1.45774e-07
2.21114e-06
-1.69634e-07
2.2537e-06
-1.88677e-07
2.32063e-06
-2.5093e-07
2.39346e-06
-3.12507e-07
2.502e-06
-3.68488e-07
2.60514e-06
-5.25914e-07
-7.82103e-07
2.70684e-06
2.0648e-06
2.93112e-07
2.05442e-06
2.15784e-07
2.05902e-06
5.74761e-08
2.07913e-06
-7.53486e-08
2.10752e-06
-1.37004e-07
2.13877e-06
-1.47797e-07
2.17022e-06
-1.43312e-07
2.20233e-06
-1.41316e-07
2.23513e-06
-1.50106e-07
2.27171e-06
-1.60603e-07
2.31219e-06
-1.86258e-07
2.35496e-06
-2.12403e-07
2.41261e-06
-2.46327e-07
2.47407e-06
-3.1239e-07
2.53926e-06
-3.77695e-07
2.6381e-06
-4.67335e-07
2.73907e-06
-6.26878e-07
-8.52641e-07
2.80961e-06
2.23211e-06
4.51285e-07
2.20662e-06
2.41277e-07
2.21394e-06
5.01539e-08
2.2341e-06
-9.55129e-08
2.26258e-06
-1.65479e-07
2.2938e-06
-1.79022e-07
2.32569e-06
-1.752e-07
2.35862e-06
-1.74245e-07
2.39238e-06
-1.83866e-07
2.43068e-06
-1.98907e-07
2.46973e-06
-2.25305e-07
2.51745e-06
-2.60121e-07
2.5719e-06
-3.00783e-07
2.62734e-06
-3.6783e-07
2.69748e-06
-4.47834e-07
2.78165e-06
-5.51498e-07
2.85273e-06
-6.97963e-07
-8.96223e-07
2.89631e-06
2.42232e-06
3.90263e-07
2.40968e-06
2.53918e-07
2.40071e-06
5.91167e-08
2.41027e-06
-1.05074e-07
2.43196e-06
-1.87166e-07
2.46053e-06
-2.07584e-07
2.492e-06
-2.06675e-07
2.52532e-06
-2.07567e-07
2.56001e-06
-2.18554e-07
2.59808e-06
-2.36982e-07
2.63905e-06
-2.66267e-07
2.6848e-06
-3.05876e-07
2.73656e-06
-3.52536e-07
2.79326e-06
-4.24536e-07
2.85465e-06
-5.09227e-07
2.91699e-06
-6.13837e-07
2.973e-06
-7.53976e-07
-9.35543e-07
3.01232e-06
2.61208e-06
3.6579e-07
2.58499e-06
2.81001e-07
2.56784e-06
7.62699e-08
2.57784e-06
-1.15076e-07
2.60422e-06
-2.13545e-07
2.63592e-06
-2.39279e-07
2.66888e-06
-2.39641e-07
2.70285e-06
-2.41538e-07
2.73794e-06
-2.53637e-07
2.77598e-06
-2.75021e-07
2.8165e-06
-3.06787e-07
2.86057e-06
-3.4995e-07
2.91043e-06
-4.02399e-07
2.96039e-06
-4.7449e-07
3.01149e-06
-5.6033e-07
3.06409e-06
-6.66441e-07
3.10569e-06
-7.95567e-07
-9.47528e-07
3.11767e-06
2.77058e-06
4.26298e-07
2.75e-06
3.01578e-07
2.7556e-06
7.06666e-08
2.77548e-06
-1.34953e-07
2.80035e-06
-2.38415e-07
2.82853e-06
-2.67464e-07
2.85934e-06
-2.70447e-07
2.8923e-06
-2.74496e-07
2.92694e-06
-2.88283e-07
2.964e-06
-3.12079e-07
3.00332e-06
-3.46108e-07
3.04505e-06
-3.91672e-07
3.08958e-06
-4.46931e-07
3.13371e-06
-5.18618e-07
3.17677e-06
-6.03396e-07
3.21376e-06
-7.03427e-07
3.23572e-06
-8.17527e-07
-9.49317e-07
3.23751e-06
3.00303e-06
5.15376e-07
2.96463e-06
3.3998e-07
2.95871e-06
7.65919e-08
2.97362e-06
-1.49869e-07
2.99955e-06
-2.64345e-07
3.0293e-06
-2.97215e-07
3.06067e-06
-3.01817e-07
3.09332e-06
-3.07147e-07
3.12718e-06
-3.22137e-07
3.16268e-06
-3.47579e-07
3.19973e-06
-3.83157e-07
3.23775e-06
-4.29693e-07
3.27676e-06
-4.85946e-07
3.31369e-06
-5.5555e-07
3.34587e-06
-6.35575e-07
3.37042e-06
-7.27974e-07
3.38201e-06
-8.29114e-07
-9.39189e-07
3.37188e-06
3.21385e-06
5.81353e-07
3.20055e-06
3.53282e-07
3.20444e-06
7.27098e-08
3.21287e-06
-1.58307e-07
3.22747e-06
-2.78943e-07
3.24977e-06
-3.19509e-07
3.27727e-06
-3.29321e-07
3.30759e-06
-3.37471e-07
3.33946e-06
-3.54002e-07
3.37246e-06
-3.80579e-07
3.40614e-06
-4.16837e-07
3.4396e-06
-4.63157e-07
3.47205e-06
-5.18398e-07
3.50081e-06
-5.84302e-07
3.52336e-06
-6.58133e-07
3.53645e-06
-7.4106e-07
3.53496e-06
-8.27622e-07
-9.18596e-07
3.51436e-06
2.8817e-06
5.87629e-07
2.8748e-06
3.60185e-07
2.87312e-06
7.439e-08
2.88111e-06
-1.66301e-07
2.8986e-06
-2.96431e-07
2.92085e-06
-3.41756e-07
2.94485e-06
-3.53326e-07
2.96958e-06
-3.62193e-07
2.99475e-06
-3.79176e-07
3.02016e-06
-4.05989e-07
3.04534e-06
-4.42018e-07
3.06939e-06
-4.87211e-07
3.09134e-06
-5.40342e-07
3.10917e-06
-6.02138e-07
3.12076e-06
-6.69717e-07
3.12362e-06
-7.43925e-07
3.11502e-06
-8.19019e-07
-8.9565e-07
3.09207e-06
3.51906e-06
5.53037e-07
3.4926e-06
3.86641e-07
3.49444e-06
7.25516e-08
3.51107e-06
-1.8293e-07
3.53329e-06
-3.18651e-07
3.55794e-06
-3.66401e-07
3.58345e-06
-3.78844e-07
3.60938e-06
-3.88116e-07
3.63534e-06
-4.05141e-07
3.66088e-06
-4.31522e-07
3.68529e-06
-4.66436e-07
3.70747e-06
-5.09386e-07
3.72608e-06
-5.58951e-07
3.73904e-06
-6.15105e-07
3.74424e-06
-6.74914e-07
3.73924e-06
-7.38919e-07
3.72165e-06
-8.01433e-07
-8.63208e-07
3.68921e-06
4.24474e-06
5.49273e-07
4.25257e-06
3.78807e-07
4.25274e-06
7.23871e-08
4.27086e-06
-2.01052e-07
4.29984e-06
-3.47639e-07
4.32921e-06
-3.95764e-07
4.35679e-06
-4.06425e-07
4.38304e-06
-4.14366e-07
4.40816e-06
-4.30261e-07
4.43173e-06
-4.55092e-07
4.45293e-06
-4.87632e-07
4.47046e-06
-5.26922e-07
4.48281e-06
-5.71302e-07
4.48793e-06
-6.20225e-07
4.48391e-06
-6.70886e-07
4.46859e-06
-7.23602e-07
4.44036e-06
-7.73204e-07
-8.2072e-07
4.39787e-06
5.25394e-06
6.27991e-07
5.25032e-06
3.82428e-07
5.23762e-06
8.50803e-08
5.24096e-06
-2.04386e-07
5.25544e-06
-3.62122e-07
5.27573e-06
-4.16057e-07
5.29758e-06
-4.28268e-07
5.31926e-06
-4.36052e-07
5.33968e-06
-4.50682e-07
5.35771e-06
-4.73123e-07
5.37212e-06
-5.02039e-07
5.38141e-06
-5.36215e-07
5.38399e-06
-5.73878e-07
5.37802e-06
-6.14256e-07
5.362e-06
-6.54863e-07
5.33428e-06
-6.95886e-07
5.29396e-06
-7.32884e-07
-7.67183e-07
5.24042e-06
6.36505e-06
5.066e-07
6.38371e-06
3.6377e-07
6.39077e-06
7.80177e-08
6.39314e-06
-2.06754e-07
6.40347e-06
-3.72459e-07
6.41762e-06
-4.30204e-07
6.43297e-06
-4.43622e-07
6.44751e-06
-4.50583e-07
6.4597e-06
-4.62872e-07
6.46818e-06
-4.81612e-07
6.47162e-06
-5.05479e-07
6.46856e-06
-5.3315e-07
6.45756e-06
-5.62884e-07
6.43727e-06
-5.93958e-07
6.40664e-06
-6.24233e-07
6.36462e-06
-6.53872e-07
6.31101e-06
-6.7927e-07
-7.01969e-07
6.24579e-06
7.80983e-06
5.13772e-07
7.7937e-06
3.79895e-07
7.79364e-06
7.80857e-08
7.80119e-06
-2.14305e-07
7.80415e-06
-3.75417e-07
7.80688e-06
-4.32942e-07
7.8092e-06
-4.45937e-07
7.80998e-06
-4.51362e-07
7.80774e-06
-4.60636e-07
7.80096e-06
-4.7483e-07
7.78821e-06
-4.92732e-07
7.76815e-06
-5.13087e-07
7.73971e-06
-5.34441e-07
7.70195e-06
-5.562e-07
7.65436e-06
-5.7664e-07
7.59644e-06
-5.95957e-07
7.52856e-06
-6.11389e-07
-6.2451e-07
7.4511e-06
9.74742e-06
4.56338e-07
9.693e-06
4.34308e-07
9.63164e-06
1.39446e-07
9.56903e-06
-1.51686e-07
9.52357e-06
-3.29965e-07
9.49375e-06
-4.03123e-07
9.47221e-06
-4.24395e-07
9.45219e-06
-4.31336e-07
9.42961e-06
-4.38058e-07
9.40216e-06
-4.47383e-07
9.36835e-06
-4.58924e-07
9.3271e-06
-4.71833e-07
9.27773e-06
-4.85074e-07
9.21976e-06
-4.98229e-07
9.15316e-06
-5.10038e-07
9.0779e-06
-5.20703e-07
8.99475e-06
-5.28235e-07
-5.34023e-07
8.90426e-06
1.13801e-05
4.70735e-07
1.14395e-05
3.74892e-07
1.14727e-05
1.06248e-07
1.14981e-05
-1.77055e-07
1.15064e-05
-3.38282e-07
1.14948e-05
-3.91527e-07
1.14682e-05
-3.97839e-07
1.14315e-05
-3.94631e-07
1.13868e-05
-3.9337e-07
1.13348e-05
-3.95372e-07
1.12756e-05
-3.99693e-07
1.12091e-05
-4.05353e-07
1.11354e-05
-4.11397e-07
1.10546e-05
-4.17365e-07
1.09669e-05
-4.2235e-07
1.08727e-05
-4.26501e-07
1.07729e-05
-4.28473e-07
-4.29394e-07
1.06683e-05
8.41927e-06
4.2972e-07
8.45794e-06
3.3623e-07
8.47288e-06
9.13002e-08
8.46414e-06
-1.68309e-07
8.43935e-06
-3.13493e-07
8.40683e-06
-3.59007e-07
8.37024e-06
-3.61247e-07
8.32985e-06
-3.5424e-07
8.28553e-06
-3.49051e-07
8.23721e-06
-3.47051e-07
8.18489e-06
-3.47381e-07
8.12868e-06
-3.49135e-07
8.06872e-06
-3.51445e-07
8.00522e-06
-3.53857e-07
7.9385e-06
-3.5563e-07
7.86885e-06
-3.56856e-07
7.7969e-06
-3.56521e-07
-3.55553e-07
7.72306e-06
7.34074e-06
4.27587e-07
7.39026e-06
2.8671e-07
7.40526e-06
7.62958e-08
7.39121e-06
-1.54249e-07
7.35955e-06
-2.81838e-07
7.3217e-06
-3.21152e-07
7.2807e-06
-3.20251e-07
7.23714e-06
-3.10682e-07
7.19105e-06
-3.02956e-07
7.14242e-06
-2.98428e-07
7.09133e-06
-2.96292e-07
7.03787e-06
-2.95669e-07
6.98217e-06
-2.95752e-07
6.92442e-06
-2.96106e-07
6.8649e-06
-2.96104e-07
6.80383e-06
-2.95786e-07
6.74166e-06
-2.94355e-07
-2.92535e-07
6.67864e-06
6.34114e-06
4.89331e-07
6.36898e-06
2.58865e-07
6.41489e-06
3.03889e-08
6.42124e-06
-1.60605e-07
6.40311e-06
-2.63703e-07
6.37206e-06
-2.90104e-07
6.33434e-06
-2.8253e-07
6.29275e-06
-2.69097e-07
6.2486e-06
-2.588e-07
6.20246e-06
-2.52286e-07
6.15463e-06
-2.48464e-07
6.10531e-06
-2.46353e-07
6.05469e-06
-2.4513e-07
6.00292e-06
-2.44337e-07
5.95023e-06
-2.43414e-07
5.89679e-06
-2.42347e-07
5.84294e-06
-2.40497e-07
-2.38428e-07
5.78883e-06
5.63706e-06
5.02574e-07
5.59514e-06
3.00783e-07
5.5861e-06
3.94271e-08
5.58516e-06
-1.59662e-07
5.57417e-06
-2.52722e-07
5.54995e-06
-2.65883e-07
5.51612e-06
-2.48693e-07
5.47702e-06
-2.29996e-07
5.43534e-06
-2.17125e-07
5.39223e-06
-2.09177e-07
5.34813e-06
-2.04362e-07
5.30324e-06
-2.01463e-07
5.2577e-06
-1.99592e-07
5.21162e-06
-1.98255e-07
5.16515e-06
-1.96942e-07
5.1184e-06
-1.95601e-07
5.07162e-06
-1.93715e-07
-1.91714e-07
5.02491e-06
4.81646e-06
4.39988e-07
4.84346e-06
2.73776e-07
4.86549e-06
1.7398e-08
4.87746e-06
-1.7163e-07
4.8691e-06
-2.44367e-07
4.84392e-06
-2.407e-07
4.8093e-06
-2.14067e-07
4.77091e-06
-1.91614e-07
4.7313e-06
-1.77511e-07
4.69123e-06
-1.69104e-07
4.65091e-06
-1.64046e-07
4.6104e-06
-1.60957e-07
4.56973e-06
-1.5892e-07
4.52892e-06
-1.57439e-07
4.48804e-06
-1.56068e-07
4.44717e-06
-1.54733e-07
4.40648e-06
-1.53021e-07
-1.5125e-07
4.36602e-06
4.22944e-06
4.27894e-07
4.30296e-06
2.00261e-07
4.3277e-06
-7.34042e-09
4.3107e-06
-1.54629e-07
4.27549e-06
-2.09163e-07
4.23539e-06
-2.00597e-07
4.19563e-06
-1.74304e-07
4.15722e-06
-1.53206e-07
4.11978e-06
-1.40071e-07
4.08292e-06
-1.32242e-07
4.04644e-06
-1.27563e-07
4.01019e-06
-1.24712e-07
3.9741e-06
-1.22825e-07
3.9381e-06
-1.21447e-07
3.90224e-06
-1.20207e-07
3.86654e-06
-1.19029e-07
3.83111e-06
-1.17594e-07
-1.16134e-07
3.79599e-06
3.69887e-06
4.07456e-07
3.77079e-06
1.28334e-07
3.79658e-06
-3.31294e-08
3.78007e-06
-1.38119e-07
3.74288e-06
-1.71973e-07
3.70018e-06
-1.57891e-07
3.65971e-06
-1.33835e-07
3.62261e-06
-1.16106e-07
3.58774e-06
-1.05205e-07
3.55419e-06
-9.8691e-08
3.52147e-06
-9.48419e-08
3.48927e-06
-9.25118e-08
3.45741e-06
-9.09609e-08
3.42578e-06
-8.98214e-08
3.39439e-06
-8.88132e-08
3.36323e-06
-8.78685e-08
3.33237e-06
-8.67415e-08
-8.56076e-08
3.30185e-06
3.25988e-06
2.84337e-07
3.30384e-06
8.4379e-08
3.30784e-06
-3.71299e-08
3.29134e-06
-1.21618e-07
3.26097e-06
-1.41605e-07
3.22471e-06
-1.21636e-07
3.18892e-06
-9.80408e-08
3.15553e-06
-8.27175e-08
3.12412e-06
-7.37988e-08
3.09411e-06
-6.86794e-08
3.06507e-06
-6.58039e-08
3.03667e-06
-6.41045e-08
3.00867e-06
-6.29665e-08
2.98097e-06
-6.21212e-08
2.95354e-06
-6.13786e-08
2.92637e-06
-6.06986e-08
2.89951e-06
-5.98884e-08
-5.90612e-08
2.87297e-06
2.84754e-06
1.39396e-07
2.9319e-06
1.61001e-11
2.94215e-06
-4.73758e-08
2.91393e-06
-9.33971e-08
2.86662e-06
-9.42956e-08
2.82017e-06
-7.51918e-08
2.78184e-06
-5.97087e-08
2.74981e-06
-5.06895e-08
2.7212e-06
-4.51807e-08
2.69446e-06
-4.19416e-08
2.66886e-06
-4.0208e-08
2.64396e-06
-3.91997e-08
2.61949e-06
-3.84979e-08
2.59533e-06
-3.79633e-08
2.57144e-06
-3.74884e-08
2.5478e-06
-3.70621e-08
2.52447e-06
-3.65518e-08
-3.6044e-08
2.50145e-06
2.48008e-06
3.24979e-08
2.53403e-06
-5.39348e-08
2.55506e-06
-6.84144e-08
2.53712e-06
-7.54502e-08
2.49666e-06
-5.38387e-08
2.45525e-06
-3.37768e-08
2.42101e-06
-2.54698e-08
2.39254e-06
-2.22264e-08
2.36728e-06
-1.99141e-08
2.34388e-06
-1.85455e-08
2.32164e-06
-1.79683e-08
2.30009e-06
-1.76457e-08
2.27895e-06
-1.73595e-08
2.25811e-06
-1.71288e-08
2.23752e-06
-1.68938e-08
2.21715e-06
-1.66916e-08
2.19703e-06
-1.64285e-08
-1.62362e-08
2.17722e-06
2.17065e-06
2.11672e-06
2.0483e-06
1.97285e-06
1.91901e-06
1.88524e-06
1.85977e-06
1.83754e-06
1.81763e-06
1.79908e-06
1.78111e-06
1.76347e-06
1.74611e-06
1.72898e-06
1.71208e-06
1.69539e-06
1.67896e-06
1.66273e-06
4.92143e-08
-4.92143e-08
1.04757e-07
-5.55424e-08
1.60203e-07
-5.5446e-08
2.15835e-07
-5.56326e-08
2.71703e-07
-5.58679e-08
3.27764e-07
-5.60608e-08
3.83969e-07
-5.62051e-08
4.40269e-07
-5.62997e-08
4.96612e-07
-5.63429e-08
5.52944e-07
-5.63326e-08
6.09211e-07
-5.62668e-08
6.65355e-07
-5.61436e-08
7.21316e-07
-5.59614e-08
7.77035e-07
-5.57187e-08
8.32449e-07
-5.54145e-08
8.87498e-07
-5.50482e-08
9.42117e-07
-5.46196e-08
9.96246e-07
-5.41289e-08
1.04982e-06
-5.35769e-08
1.10279e-06
-5.29648e-08
1.15508e-06
-5.22943e-08
1.20665e-06
-5.15675e-08
1.25744e-06
-5.07869e-08
1.30739e-06
-4.99555e-08
1.35647e-06
-4.90764e-08
1.40462e-06
-4.81532e-08
1.45181e-06
-4.71895e-08
1.498e-06
-4.61893e-08
1.54316e-06
-4.51565e-08
1.58725e-06
-4.40952e-08
1.63026e-06
-4.30094e-08
1.67216e-06
-4.19032e-08
1.71295e-06
-4.07805e-08
1.75259e-06
-3.96452e-08
1.79109e-06
-3.85009e-08
1.82844e-06
-3.73511e-08
1.86464e-06
-3.61993e-08
1.89969e-06
-3.50485e-08
1.93359e-06
-3.39018e-08
1.96635e-06
-3.27617e-08
1.99798e-06
-3.16309e-08
2.0285e-06
-3.05116e-08
2.0579e-06
-2.94058e-08
2.08622e-06
-2.83155e-08
2.11346e-06
-2.72422e-08
2.13965e-06
-2.61875e-08
2.1648e-06
-2.51526e-08
2.18894e-06
-2.41385e-08
2.21208e-06
-2.31461e-08
2.23426e-06
-2.21764e-08
2.25549e-06
-2.12298e-08
2.2758e-06
-2.03068e-08
2.29521e-06
-1.94079e-08
2.31374e-06
-1.85333e-08
2.33142e-06
-1.7683e-08
2.34828e-06
-1.68572e-08
2.36433e-06
-1.60559e-08
2.37961e-06
-1.52789e-08
2.39414e-06
-1.45261e-08
2.40794e-06
-1.37972e-08
2.42103e-06
-1.3092e-08
2.43344e-06
-1.24102e-08
2.44519e-06
-1.17514e-08
2.45631e-06
-1.11151e-08
2.46681e-06
-1.0501e-08
2.47671e-06
-9.90858e-09
2.48605e-06
-9.33743e-09
2.49484e-06
-8.78701e-09
2.5031e-06
-8.25691e-09
2.51084e-06
-7.74645e-09
2.5181e-06
-7.25532e-09
2.52488e-06
-6.78284e-09
2.53121e-06
-6.32857e-09
2.5371e-06
-5.89193e-09
2.54257e-06
-5.47247e-09
2.54764e-06
-5.06962e-09
2.55233e-06
-4.68289e-09
2.55664e-06
-4.31175e-09
2.56059e-06
-3.95571e-09
2.56421e-06
-3.61422e-09
2.56749e-06
-3.28688e-09
2.57047e-06
-2.97308e-09
2.57314e-06
-2.6725e-09
2.57553e-06
-2.3845e-09
2.57763e-06
-2.10878e-09
2.57948e-06
-1.84472e-09
2.58107e-06
-1.59209e-09
2.58242e-06
-1.35013e-09
2.58354e-06
-1.11863e-09
2.58444e-06
-8.97159e-10
2.58512e-06
-6.84957e-10
2.5856e-06
-4.81324e-10
2.58589e-06
-2.87489e-10
2.58599e-06
-9.91042e-11
2.5859e-06
9.14297e-11
2.58562e-06
2.73771e-10
2.58518e-06
4.39374e-10
2.58459e-06
5.93122e-10
2.58385e-06
7.37929e-10
2.58298e-06
8.75477e-10
2.58197e-06
1.00653e-09
2.58084e-06
1.13172e-09
2.57959e-06
1.25128e-09
2.57822e-06
1.36566e-09
2.57675e-06
1.47502e-09
2.57517e-06
1.57966e-09
2.57349e-06
1.67978e-09
2.57171e-06
1.77556e-09
2.56985e-06
1.8672e-09
2.56789e-06
1.9549e-09
2.56585e-06
2.03892e-09
2.56373e-06
2.1194e-09
2.56154e-06
2.19656e-09
2.55927e-06
2.27057e-09
2.55692e-06
2.34164e-09
2.55451e-06
2.40998e-09
2.55204e-06
2.4756e-09
2.5495e-06
2.53887e-09
2.5469e-06
2.5996e-09
2.54424e-06
2.65825e-09
2.54153e-06
2.71471e-09
2.53876e-06
2.76938e-09
2.53594e-06
2.82232e-09
2.53306e-06
2.87375e-09
2.53014e-06
2.92368e-09
2.52717e-06
2.97209e-09
2.52415e-06
3.01919e-09
2.52108e-06
3.06492e-09
2.51797e-06
3.10948e-09
2.51482e-06
3.15294e-09
2.51162e-06
3.19537e-09
2.50839e-06
3.23688e-09
2.50511e-06
3.2775e-09
2.50179e-06
3.31733e-09
2.49844e-06
3.35646e-09
2.49504e-06
3.39494e-09
2.49161e-06
3.43279e-09
2.48814e-06
3.47015e-09
2.48463e-06
3.50691e-09
2.48109e-06
3.54324e-09
2.47751e-06
3.57906e-09
2.47389e-06
3.6146e-09
2.47024e-06
3.64988e-09
2.46656e-06
3.6851e-09
2.46284e-06
3.72027e-09
2.45908e-06
3.75554e-09
2.45529e-06
3.7909e-09
2.45147e-06
3.82654e-09
2.4476e-06
3.86251e-09
2.4437e-06
3.89898e-09
2.43977e-06
3.93603e-09
2.43579e-06
3.97396e-09
2.43178e-06
4.01295e-09
2.42773e-06
4.05332e-09
2.42363e-06
4.09544e-09
2.41949e-06
4.13981e-09
2.41531e-06
4.18705e-09
2.41107e-06
4.23793e-09
2.40677e-06
4.29343e-09
2.40242e-06
4.35485e-09
2.398e-06
4.42385e-09
2.39349e-06
4.50259e-09
2.3889e-06
4.59388e-09
2.3842e-06
4.7014e-09
2.37937e-06
4.83004e-09
2.37438e-06
4.98634e-09
2.3692e-06
5.17898e-09
2.36378e-06
5.42001e-09
2.35806e-06
5.72592e-09
2.35194e-06
6.12013e-09
2.3453e-06
6.63649e-09
2.33797e-06
7.32536e-09
2.32971e-06
8.26598e-09
2.32013e-06
9.57691e-09
2.30862e-06
1.15143e-08
2.29435e-06
1.42639e-08
2.27436e-06
1.99947e-08
2.24803e-06
2.63314e-08
2.18184e-06
6.61845e-08
8.76802e-08
2.09416e-06
4.99151e-08
-9.91294e-08
1.06645e-07
-1.12272e-07
1.63228e-07
-1.12029e-07
2.19965e-07
-1.12369e-07
2.76929e-07
-1.12832e-07
3.34085e-07
-1.13217e-07
3.91387e-07
-1.13507e-07
4.48786e-07
-1.13699e-07
5.0623e-07
-1.13787e-07
5.63666e-07
-1.13768e-07
6.21036e-07
-1.13637e-07
6.78281e-07
-1.13389e-07
7.3534e-07
-1.13021e-07
7.92151e-07
-1.1253e-07
8.48649e-07
-1.11913e-07
9.04772e-07
-1.1117e-07
9.60453e-07
-1.10301e-07
1.01563e-06
-1.09305e-07
1.07024e-06
-1.08184e-07
1.12421e-06
-1.06941e-07
1.1775e-06
-1.0558e-07
1.23003e-06
-1.04104e-07
1.28177e-06
-1.0252e-07
1.33264e-06
-1.00833e-07
1.38262e-06
-9.90494e-08
1.43164e-06
-9.71772e-08
1.47968e-06
-9.52236e-08
1.52668e-06
-9.31967e-08
1.57263e-06
-9.11047e-08
1.61749e-06
-8.89557e-08
1.66124e-06
-8.67582e-08
1.70386e-06
-8.45201e-08
1.74533e-06
-8.22496e-08
1.78564e-06
-7.99543e-08
1.82478e-06
-7.76418e-08
1.86274e-06
-7.53191e-08
1.89954e-06
-7.29929e-08
1.93516e-06
-7.06696e-08
1.96961e-06
-6.83551e-08
2.00291e-06
-6.60548e-08
2.03505e-06
-6.37737e-08
2.06605e-06
-6.15164e-08
2.09593e-06
-5.92869e-08
2.12471e-06
-5.70889e-08
2.15239e-06
-5.49258e-08
2.179e-06
-5.28004e-08
2.20457e-06
-5.07151e-08
2.2291e-06
-4.86722e-08
2.25263e-06
-4.66735e-08
2.27517e-06
-4.47203e-08
2.29676e-06
-4.28141e-08
2.3174e-06
-4.09556e-08
2.33714e-06
-3.91456e-08
2.35599e-06
-3.73846e-08
2.37398e-06
-3.56729e-08
2.39114e-06
-3.40106e-08
2.40748e-06
-3.23975e-08
2.42303e-06
-3.08335e-08
2.43783e-06
-2.93182e-08
2.45188e-06
-2.78511e-08
2.46522e-06
-2.64317e-08
2.47787e-06
-2.50594e-08
2.48985e-06
-2.37333e-08
2.50119e-06
-2.24527e-08
2.5119e-06
-2.12168e-08
2.52202e-06
-2.00245e-08
2.53156e-06
-1.8875e-08
2.54054e-06
-1.77673e-08
2.54898e-06
-1.67004e-08
2.55691e-06
-1.56731e-08
2.56434e-06
-1.46846e-08
2.57129e-06
-1.37338e-08
2.57778e-06
-1.28195e-08
2.58383e-06
-1.19408e-08
2.58945e-06
-1.10967e-08
2.59467e-06
-1.02859e-08
2.59949e-06
-9.50767e-09
2.60394e-06
-8.76073e-09
2.60803e-06
-8.04426e-09
2.61177e-06
-7.35706e-09
2.61518e-06
-6.69832e-09
2.61828e-06
-6.06692e-09
2.62107e-06
-5.46206e-09
2.62357e-06
-4.88259e-09
2.62579e-06
-4.32777e-09
2.62774e-06
-3.79656e-09
2.62943e-06
-3.28826e-09
2.63088e-06
-2.80165e-09
2.6321e-06
-2.33617e-09
2.6331e-06
-1.89105e-09
2.63388e-06
-1.46541e-09
2.63445e-06
-1.05906e-09
2.63484e-06
-6.7067e-10
2.63504e-06
-2.98596e-10
2.63507e-06
5.63707e-11
2.63496e-06
3.88668e-10
2.63469e-06
7.09944e-10
2.63426e-06
1.01735e-09
2.63369e-06
1.31126e-09
2.63297e-06
1.59201e-09
2.63212e-06
1.86024e-09
2.63113e-06
2.11647e-09
2.63002e-06
2.36133e-09
2.62879e-06
2.59542e-09
2.62745e-06
2.81919e-09
2.626e-06
3.03315e-09
2.62444e-06
3.23772e-09
2.62278e-06
3.43334e-09
2.62103e-06
3.6204e-09
2.61918e-06
3.79941e-09
2.61725e-06
3.97072e-09
2.61524e-06
4.13479e-09
2.61314e-06
4.29198e-09
2.61097e-06
4.44277e-09
2.60872e-06
4.58736e-09
2.60641e-06
4.72629e-09
2.60402e-06
4.85976e-09
2.60157e-06
4.98805e-09
2.59906e-06
5.11139e-09
2.59649e-06
5.2302e-09
2.59386e-06
5.34473e-09
2.59117e-06
5.45548e-09
2.58843e-06
5.56271e-09
2.58564e-06
5.66665e-09
2.5828e-06
5.76743e-09
2.5799e-06
5.86513e-09
2.57696e-06
5.95991e-09
2.57397e-06
6.05202e-09
2.57094e-06
6.14167e-09
2.56787e-06
6.22902e-09
2.56475e-06
6.31427e-09
2.56159e-06
6.39755e-09
2.55839e-06
6.47904e-09
2.55514e-06
6.55885e-09
2.55186e-06
6.63721e-09
2.54854e-06
6.71413e-09
2.54519e-06
6.78989e-09
2.54179e-06
6.86441e-09
2.53836e-06
6.93777e-09
2.5349e-06
7.01014e-09
2.53139e-06
7.08157e-09
2.52785e-06
7.15235e-09
2.52428e-06
7.22267e-09
2.52067e-06
7.29273e-09
2.51703e-06
7.36268e-09
2.51335e-06
7.43271e-09
2.50964e-06
7.5029e-09
2.5059e-06
7.5735e-09
2.50211e-06
7.6447e-09
2.4983e-06
7.7168e-09
2.49444e-06
7.79006e-09
2.49055e-06
7.86496e-09
2.48662e-06
7.94181e-09
2.48265e-06
8.02139e-09
2.47864e-06
8.10429e-09
2.47459e-06
8.19156e-09
2.4705e-06
8.28425e-09
2.46635e-06
8.38398e-09
2.46215e-06
8.4926e-09
2.45789e-06
8.61265e-09
2.45357e-06
8.7473e-09
2.44917e-06
8.90069e-09
2.44469e-06
9.07823e-09
2.4401e-06
9.28707e-09
2.4354e-06
9.53648e-09
2.43054e-06
9.83906e-09
2.42551e-06
1.02115e-08
2.42025e-06
1.06766e-08
2.41471e-06
1.12658e-08
2.40881e-06
1.20236e-08
2.40243e-06
1.30134e-08
2.39543e-06
1.43295e-08
2.38758e-06
1.61187e-08
2.37855e-06
1.86067e-08
2.36783e-06
2.22305e-08
2.35454e-06
2.75577e-08
2.33727e-06
3.72657e-08
2.31246e-06
5.11324e-08
2.28515e-06
9.3502e-08
1.29718e-07
2.24311e-06
5.02344e-08
-1.49364e-07
1.07263e-07
-1.69301e-07
1.6416e-07
-1.68926e-07
2.21225e-07
-1.69435e-07
2.78529e-07
-1.70136e-07
3.36032e-07
-1.7072e-07
3.93688e-07
-1.71162e-07
4.51446e-07
-1.71456e-07
5.09253e-07
-1.71595e-07
5.67054e-07
-1.71569e-07
6.24789e-07
-1.71372e-07
6.82397e-07
-1.70997e-07
7.39815e-07
-1.70439e-07
7.96978e-07
-1.69692e-07
8.53817e-07
-1.68753e-07
9.10266e-07
-1.6762e-07
9.66258e-07
-1.66292e-07
1.02173e-06
-1.64772e-07
1.0766e-06
-1.63061e-07
1.13082e-06
-1.61163e-07
1.18433e-06
-1.59085e-07
1.23706e-06
-1.56834e-07
1.28896e-06
-1.54417e-07
1.33997e-06
-1.51845e-07
1.39005e-06
-1.49129e-07
1.43915e-06
-1.46278e-07
1.48723e-06
-1.43307e-07
1.53426e-06
-1.40225e-07
1.5802e-06
-1.37048e-07
1.62504e-06
-1.33786e-07
1.66873e-06
-1.30453e-07
1.71127e-06
-1.27062e-07
1.75265e-06
-1.23624e-07
1.79284e-06
-1.20151e-07
1.83185e-06
-1.16654e-07
1.86968e-06
-1.13144e-07
1.90632e-06
-1.09631e-07
1.94177e-06
-1.06125e-07
1.97605e-06
-1.02634e-07
2.00916e-06
-9.91663e-08
2.04112e-06
-9.57294e-08
2.07193e-06
-9.233e-08
2.10162e-06
-8.8974e-08
2.1302e-06
-8.56669e-08
2.15769e-06
-8.24134e-08
2.1841e-06
-7.92178e-08
2.20947e-06
-7.60837e-08
2.23381e-06
-7.30141e-08
2.25715e-06
-7.00118e-08
2.27951e-06
-6.70787e-08
2.30091e-06
-6.42166e-08
2.32138e-06
-6.14269e-08
2.34095e-06
-5.87106e-08
2.35963e-06
-5.60682e-08
2.37746e-06
-5.35001e-08
2.39446e-06
-5.10064e-08
2.41065e-06
-4.8587e-08
2.42605e-06
-4.62414e-08
2.4407e-06
-4.3969e-08
2.45462e-06
-4.17693e-08
2.46783e-06
-3.96412e-08
2.48036e-06
-3.75837e-08
2.49222e-06
-3.55957e-08
2.50344e-06
-3.3676e-08
2.51405e-06
-3.18233e-08
2.52406e-06
-3.00361e-08
2.5335e-06
-2.83131e-08
2.54238e-06
-2.66527e-08
2.55074e-06
-2.50535e-08
2.55858e-06
-2.35138e-08
2.56592e-06
-2.20323e-08
2.5728e-06
-2.06071e-08
2.57922e-06
-1.92368e-08
2.58519e-06
-1.79199e-08
2.59075e-06
-1.66546e-08
2.59591e-06
-1.54395e-08
2.60067e-06
-1.4273e-08
2.60506e-06
-1.31536e-08
2.6091e-06
-1.20797e-08
2.61279e-06
-1.10497e-08
2.61616e-06
-1.00624e-08
2.61921e-06
-9.11604e-09
2.62195e-06
-8.20937e-09
2.62441e-06
-7.34091e-09
2.62659e-06
-6.50932e-09
2.62851e-06
-5.71317e-09
2.63017e-06
-4.95121e-09
2.63159e-06
-4.22205e-09
2.63278e-06
-3.52445e-09
2.63375e-06
-2.85745e-09
2.6345e-06
-2.21954e-09
2.63505e-06
-1.60977e-09
2.63541e-06
-1.02571e-09
2.63558e-06
-4.68849e-10
2.63558e-06
5.74124e-11
2.6354e-06
5.60226e-10
2.63507e-06
1.0417e-09
2.63459e-06
1.50252e-09
2.63396e-06
1.94272e-09
2.63318e-06
2.36335e-09
2.63228e-06
2.76522e-09
2.63125e-06
3.14924e-09
2.63009e-06
3.51626e-09
2.62882e-06
3.86711e-09
2.62744e-06
4.20249e-09
2.62595e-06
4.52315e-09
2.62435e-06
4.82968e-09
2.62267e-06
5.12282e-09
2.62088e-06
5.40313e-09
2.61901e-06
5.67131e-09
2.61705e-06
5.92803e-09
2.61501e-06
6.17389e-09
2.6129e-06
6.40942e-09
2.6107e-06
6.63528e-09
2.60844e-06
6.852e-09
2.60611e-06
7.06011e-09
2.60371e-06
7.26e-09
2.60124e-06
7.4521e-09
2.59872e-06
7.63682e-09
2.59613e-06
7.8147e-09
2.59349e-06
7.98632e-09
2.59079e-06
8.15229e-09
2.58804e-06
8.31291e-09
2.58524e-06
8.46859e-09
2.58239e-06
8.61936e-09
2.57949e-06
8.76557e-09
2.57654e-06
8.90744e-09
2.57355e-06
9.04528e-09
2.57051e-06
9.17941e-09
2.56743e-06
9.31015e-09
2.56431e-06
9.43766e-09
2.56114e-06
9.56228e-09
2.55794e-06
9.68419e-09
2.55469e-06
9.80361e-09
2.55141e-06
9.92073e-09
2.54809e-06
1.00359e-08
2.54473e-06
1.0149e-08
2.54133e-06
1.02604e-08
2.5379e-06
1.03701e-08
2.53443e-06
1.04781e-08
2.53093e-06
1.05849e-08
2.52739e-06
1.06908e-08
2.52382e-06
1.07959e-08
2.52021e-06
1.09006e-08
2.51657e-06
1.10052e-08
2.51289e-06
1.11098e-08
2.50918e-06
1.12147e-08
2.50543e-06
1.13202e-08
2.50165e-06
1.14265e-08
2.49783e-06
1.15342e-08
2.49398e-06
1.16435e-08
2.49009e-06
1.17552e-08
2.48616e-06
1.187e-08
2.48219e-06
1.19887e-08
2.47818e-06
1.21123e-08
2.47413e-06
1.22424e-08
2.47004e-06
1.23806e-08
2.46589e-06
1.25291e-08
2.46169e-06
1.2691e-08
2.45744e-06
1.28697e-08
2.45311e-06
1.30701e-08
2.44872e-06
1.32983e-08
2.44423e-06
1.35623e-08
2.43965e-06
1.38727e-08
2.43494e-06
1.42432e-08
2.43009e-06
1.46924e-08
2.42505e-06
1.5245e-08
2.41979e-06
1.59345e-08
2.41425e-06
1.68073e-08
2.40835e-06
1.79281e-08
2.40197e-06
1.93897e-08
2.39497e-06
2.13288e-08
2.38713e-06
2.39572e-08
2.37814e-06
2.76056e-08
2.3675e-06
3.28678e-08
2.35445e-06
4.0605e-08
2.33812e-06
5.35939e-08
2.31643e-06
7.28246e-08
2.29223e-06
1.17698e-07
1.72152e-07
2.2498e-06
5.06027e-08
-1.99966e-07
1.08181e-07
-2.26879e-07
1.65603e-07
-2.26348e-07
2.23195e-07
-2.27027e-07
2.81034e-07
-2.27975e-07
3.39085e-07
-2.2877e-07
3.97298e-07
-2.29376e-07
4.55623e-07
-2.29781e-07
5.14004e-07
-2.29976e-07
5.72384e-07
-2.29949e-07
6.30699e-07
-2.29687e-07
6.88885e-07
-2.29183e-07
7.46873e-07
-2.28427e-07
8.04593e-07
-2.27411e-07
8.61972e-07
-2.26132e-07
9.1894e-07
-2.24587e-07
9.75422e-07
-2.22775e-07
1.03135e-06
-2.20698e-07
1.08665e-06
-2.18361e-07
1.14125e-06
-2.15769e-07
1.1951e-06
-2.12933e-07
1.24813e-06
-2.09861e-07
1.30028e-06
-2.06566e-07
1.3515e-06
-2.03063e-07
1.40173e-06
-1.99366e-07
1.45095e-06
-1.95491e-07
1.49909e-06
-1.91456e-07
1.54615e-06
-1.87277e-07
1.59207e-06
-1.82972e-07
1.63684e-06
-1.78559e-07
1.68044e-06
-1.74054e-07
1.72286e-06
-1.69475e-07
1.76407e-06
-1.64838e-07
1.80408e-06
-1.60159e-07
1.84288e-06
-1.55453e-07
1.88047e-06
-1.50735e-07
1.91685e-06
-1.46016e-07
1.95204e-06
-1.41311e-07
1.98604e-06
-1.3663e-07
2.01886e-06
-1.31985e-07
2.05051e-06
-1.27384e-07
2.08102e-06
-1.22836e-07
2.11039e-06
-1.1835e-07
2.13866e-06
-1.13931e-07
2.16583e-06
-1.09587e-07
2.19193e-06
-1.05322e-07
2.21699e-06
-1.01142e-07
2.24103e-06
-9.7049e-08
2.26406e-06
-9.30476e-08
2.28612e-06
-8.914e-08
2.30724e-06
-8.53284e-08
2.32742e-06
-8.16143e-08
2.34671e-06
-7.7999e-08
2.36513e-06
-7.44829e-08
2.38269e-06
-7.10666e-08
2.39944e-06
-6.77499e-08
2.41538e-06
-6.45326e-08
2.43055e-06
-6.1414e-08
2.44498e-06
-5.83933e-08
2.45868e-06
-5.54694e-08
2.47168e-06
-5.26411e-08
2.484e-06
-4.9907e-08
2.49567e-06
-4.72655e-08
2.50671e-06
-4.47149e-08
2.51714e-06
-4.22534e-08
2.52698e-06
-3.98792e-08
2.53626e-06
-3.75903e-08
2.54499e-06
-3.53847e-08
2.5532e-06
-3.32604e-08
2.5609e-06
-3.12153e-08
2.56812e-06
-2.92474e-08
2.57486e-06
-2.73544e-08
2.58116e-06
-2.55344e-08
2.58703e-06
-2.37851e-08
2.59248e-06
-2.21046e-08
2.59753e-06
-2.04907e-08
2.6022e-06
-1.89413e-08
2.6065e-06
-1.74544e-08
2.61045e-06
-1.6028e-08
2.61406e-06
-1.466e-08
2.61734e-06
-1.33485e-08
2.62032e-06
-1.20915e-08
2.623e-06
-1.08872e-08
2.62539e-06
-9.73358e-09
2.62751e-06
-8.62884e-09
2.62937e-06
-7.5713e-09
2.63097e-06
-6.55906e-09
2.63234e-06
-5.5905e-09
2.63348e-06
-4.6638e-09
2.6344e-06
-3.7776e-09
2.63511e-06
-2.93003e-09
2.63562e-06
-2.11977e-09
2.63594e-06
-1.34483e-09
2.63608e-06
-6.04537e-10
2.63604e-06
9.52442e-11
2.63584e-06
7.63997e-10
2.63547e-06
1.40423e-09
2.63496e-06
2.01621e-09
2.6343e-06
2.60083e-09
2.6335e-06
3.15959e-09
2.63258e-06
3.69352e-09
2.63152e-06
4.20385e-09
2.63035e-06
4.69167e-09
2.62906e-06
5.15795e-09
2.62765e-06
5.60373e-09
2.62615e-06
6.02985e-09
2.62454e-06
6.43724e-09
2.62284e-06
6.82675e-09
2.62104e-06
7.19933e-09
2.61916e-06
7.5558e-09
2.61719e-06
7.89699e-09
2.61514e-06
8.22381e-09
2.61301e-06
8.53698e-09
2.61081e-06
8.83721e-09
2.60853e-06
9.12535e-09
2.60619e-06
9.40202e-09
2.60378e-06
9.6677e-09
2.60131e-06
9.92298e-09
2.59878e-06
1.01686e-08
2.59619e-06
1.04051e-08
2.59354e-06
1.06334e-08
2.59084e-06
1.08542e-08
2.58809e-06
1.10679e-08
2.58528e-06
1.12749e-08
2.58242e-06
1.14753e-08
2.57952e-06
1.16697e-08
2.57657e-06