/*--------------------------------*- C++ -*----------------------------------*\
  =========                 |
  \\      /  F ield         | OpenFOAM: The Open Source CFD Toolbox
   \\    /   O peration     | Website:  https://openfoam.org
    \\  /    A nd           | Version:  7
     \\/     M anipulation  |
\*---------------------------------------------------------------------------*/
FoamFile
{
    version     2.0;
    format      ascii;
    class       volScalarField;
    location    "0.001";
    object      pPrime2Mean;
}
// * * * * * * * * * * * * * * * * * * * * * * * * * * * * * * * * * * * * * //

dimensions      [0 4 -4 0 0 0 0];

internalField   nonuniform List<scalar> 
12225
(
3.53797e+08
3.48137e+08
3.42297e+08
3.36669e+08
3.31266e+08
3.26072e+08
3.21071e+08
3.16246e+08
3.11583e+08
3.07063e+08
3.02669e+08
2.9838e+08
2.9417e+08
2.90008e+08
2.85849e+08
2.81627e+08
2.77222e+08
2.72338e+08
3.53801e+08
3.48139e+08
3.42299e+08
3.36671e+08
3.31269e+08
3.26076e+08
3.21075e+08
3.16251e+08
3.11589e+08
3.07071e+08
3.02679e+08
2.98393e+08
2.94187e+08
2.90032e+08
2.85885e+08
2.81684e+08
2.7733e+08
2.72581e+08
3.53808e+08
3.48144e+08
3.42304e+08
3.36677e+08
3.31276e+08
3.26083e+08
3.21084e+08
3.16262e+08
3.11603e+08
3.07088e+08
3.02701e+08
2.98421e+08
2.94225e+08
2.90084e+08
2.85962e+08
2.81806e+08
2.77546e+08
2.73089e+08
3.53815e+08
3.48152e+08
3.42313e+08
3.36686e+08
3.31287e+08
3.26096e+08
3.21099e+08
3.16281e+08
3.11625e+08
3.07117e+08
3.02737e+08
2.98468e+08
2.94287e+08
2.90169e+08
2.86085e+08
2.81996e+08
2.77866e+08
2.73696e+08
3.53824e+08
3.48163e+08
3.42325e+08
3.367e+08
3.31303e+08
3.26115e+08
3.21122e+08
3.16308e+08
3.11659e+08
3.07158e+08
3.0279e+08
2.98536e+08
2.94377e+08
2.90291e+08
2.86257e+08
2.82251e+08
2.78268e+08
2.74354e+08
3.53837e+08
3.48178e+08
3.42342e+08
3.3672e+08
3.31325e+08
3.26141e+08
3.21153e+08
3.16346e+08
3.11705e+08
3.07215e+08
3.02862e+08
2.98628e+08
2.94497e+08
2.90452e+08
2.86479e+08
2.82569e+08
2.78733e+08
2.75036e+08
3.53854e+08
3.48198e+08
3.42365e+08
3.36745e+08
3.31354e+08
3.26176e+08
3.21194e+08
3.16395e+08
3.11765e+08
3.0729e+08
3.02955e+08
2.98746e+08
2.9465e+08
2.90654e+08
2.8675e+08
2.82941e+08
2.79247e+08
2.7573e+08
3.53876e+08
3.48225e+08
3.42394e+08
3.36778e+08
3.31392e+08
3.2622e+08
3.21246e+08
3.16458e+08
3.11842e+08
3.07384e+08
3.03072e+08
2.98893e+08
2.94838e+08
2.90897e+08
2.87068e+08
2.83361e+08
2.79798e+08
2.7643e+08
3.53907e+08
3.48258e+08
3.42431e+08
3.3682e+08
3.3144e+08
3.26275e+08
3.21311e+08
3.16536e+08
3.11936e+08
3.075e+08
3.03215e+08
2.99071e+08
2.95062e+08
2.91181e+08
2.8743e+08
2.83821e+08
2.80377e+08
2.77134e+08
3.53945e+08
3.48301e+08
3.42477e+08
3.36871e+08
3.31498e+08
3.26342e+08
3.21391e+08
3.16631e+08
3.12051e+08
3.07639e+08
3.03385e+08
2.99281e+08
2.95321e+08
2.91504e+08
2.87832e+08
2.84317e+08
2.80977e+08
2.7784e+08
3.54002e+08
3.48354e+08
3.42533e+08
3.36932e+08
3.31568e+08
3.26424e+08
3.21487e+08
3.16745e+08
3.12187e+08
3.07803e+08
3.03584e+08
2.99523e+08
2.95617e+08
2.91863e+08
2.88268e+08
2.8484e+08
2.81594e+08
2.78547e+08
3.54053e+08
3.48411e+08
3.42595e+08
3.37e+08
3.31645e+08
3.26513e+08
3.21591e+08
3.16868e+08
3.12333e+08
3.07978e+08
3.03794e+08
2.99775e+08
2.95918e+08
2.92224e+08
2.88696e+08
2.85342e+08
2.82172e+08
2.79196e+08
3.54124e+08
3.48479e+08
3.42665e+08
3.37078e+08
3.31732e+08
3.26613e+08
3.21708e+08
3.17006e+08
3.12496e+08
3.08171e+08
3.04023e+08
3.00048e+08
2.96242e+08
2.92605e+08
2.89141e+08
2.85855e+08
2.82751e+08
2.79837e+08
3.54217e+08
3.48569e+08
3.42759e+08
3.3718e+08
3.31848e+08
3.26745e+08
3.21861e+08
3.17185e+08
3.12706e+08
3.08418e+08
3.04314e+08
3.00388e+08
2.9664e+08
2.93067e+08
2.8967e+08
2.86454e+08
2.83419e+08
2.80567e+08
3.54338e+08
3.48687e+08
3.42883e+08
3.37315e+08
3.31999e+08
3.26918e+08
3.2206e+08
3.17415e+08
3.12975e+08
3.0873e+08
3.04676e+08
3.00808e+08
2.97122e+08
2.93616e+08
2.90291e+08
2.87144e+08
2.84176e+08
2.81385e+08
3.54484e+08
3.48839e+08
3.43044e+08
3.37491e+08
3.32195e+08
3.27141e+08
3.22315e+08
3.17708e+08
3.13311e+08
3.09118e+08
3.0512e+08
3.01314e+08
2.97694e+08
2.94259e+08
2.91004e+08
2.87926e+08
2.85023e+08
2.82289e+08
3.54671e+08
3.49032e+08
3.4325e+08
3.37716e+08
3.32446e+08
3.27423e+08
3.22634e+08
3.18071e+08
3.13725e+08
3.09587e+08
3.0565e+08
3.01909e+08
2.98358e+08
2.94991e+08
2.91805e+08
2.88793e+08
2.85949e+08
2.83269e+08
3.5489e+08
3.49269e+08
3.43507e+08
3.37997e+08
3.32756e+08
3.27769e+08
3.23023e+08
3.18508e+08
3.14215e+08
3.10136e+08
3.06262e+08
3.02586e+08
2.99101e+08
2.958e+08
2.92677e+08
2.89725e+08
2.86937e+08
2.84305e+08
3.5517e+08
3.49563e+08
3.43818e+08
3.38333e+08
3.33123e+08
3.28174e+08
3.23473e+08
3.19008e+08
3.14769e+08
3.10748e+08
3.06934e+08
3.03319e+08
2.99895e+08
2.96654e+08
2.93588e+08
2.90689e+08
2.87949e+08
2.85359e+08
3.55456e+08
3.49835e+08
3.44094e+08
3.38625e+08
3.33438e+08
3.28518e+08
3.23849e+08
3.19421e+08
3.15222e+08
3.11241e+08
3.0747e+08
3.03897e+08
3.00515e+08
2.97314e+08
2.94285e+08
2.9142e+08
2.88711e+08
2.86149e+08
3.55639e+08
3.50022e+08
3.44287e+08
3.38829e+08
3.33657e+08
3.28755e+08
3.24108e+08
3.19703e+08
3.15529e+08
3.11574e+08
3.07828e+08
3.04281e+08
3.00924e+08
2.97746e+08
2.9474e+08
2.91895e+08
2.89205e+08
2.86659e+08
3.55791e+08
3.50163e+08
3.44431e+08
3.3898e+08
3.3382e+08
3.28931e+08
3.24299e+08
3.1991e+08
3.15753e+08
3.11816e+08
3.08088e+08
3.04559e+08
3.01218e+08
2.98057e+08
2.95065e+08
2.92235e+08
2.89556e+08
2.87021e+08
3.55871e+08
3.50258e+08
3.44533e+08
3.39089e+08
3.33938e+08
3.29059e+08
3.24437e+08
3.2006e+08
3.15915e+08
3.1199e+08
3.08274e+08
3.04757e+08
3.01428e+08
2.98278e+08
2.95296e+08
2.92475e+08
2.89804e+08
2.87277e+08
3.55936e+08
3.50324e+08
3.44604e+08
3.39167e+08
3.34021e+08
3.29149e+08
3.24536e+08
3.20166e+08
3.1603e+08
3.12113e+08
3.08406e+08
3.04897e+08
3.01575e+08
2.98432e+08
2.95457e+08
2.92642e+08
2.89978e+08
2.87455e+08
3.55978e+08
3.50368e+08
3.44653e+08
3.3922e+08
3.34079e+08
3.29212e+08
3.24604e+08
3.2024e+08
3.16109e+08
3.12198e+08
3.08496e+08
3.04993e+08
3.01677e+08
2.98539e+08
2.95568e+08
2.92757e+08
2.90096e+08
2.87577e+08
3.55988e+08
3.50394e+08
3.44685e+08
3.39256e+08
3.34118e+08
3.29255e+08
3.2465e+08
3.2029e+08
3.16162e+08
3.12255e+08
3.08557e+08
3.05057e+08
3.01745e+08
2.9861e+08
2.95643e+08
2.92835e+08
2.90176e+08
2.87659e+08
3.55996e+08
3.5041e+08
3.44705e+08
3.39278e+08
3.34143e+08
3.29282e+08
3.24679e+08
3.20322e+08
3.16197e+08
3.12292e+08
3.08597e+08
3.05099e+08
3.01789e+08
2.98656e+08
2.95691e+08
2.92884e+08
2.90227e+08
2.87712e+08
3.56004e+08
3.5042e+08
3.44717e+08
3.39292e+08
3.34159e+08
3.29299e+08
3.24697e+08
3.20341e+08
3.16218e+08
3.12314e+08
3.0862e+08
3.05124e+08
3.01815e+08
2.98684e+08
2.9572e+08
2.92914e+08
2.90258e+08
2.87744e+08
3.5601e+08
3.50425e+08
3.44724e+08
3.393e+08
3.34167e+08
3.29308e+08
3.24707e+08
3.20352e+08
3.16229e+08
3.12327e+08
3.08633e+08
3.05138e+08
3.0183e+08
2.98699e+08
2.95735e+08
2.9293e+08
2.90275e+08
2.87761e+08
3.56012e+08
3.50428e+08
3.44726e+08
3.39303e+08
3.3417e+08
3.29311e+08
3.24711e+08
3.20356e+08
3.16233e+08
3.12331e+08
3.08638e+08
3.05143e+08
3.01835e+08
2.98705e+08
2.95742e+08
2.92937e+08
2.90282e+08
2.87768e+08
2.30108e+08
2.3009e+08
2.30053e+08
2.29997e+08
2.29921e+08
2.29826e+08
2.29711e+08
2.29575e+08
2.29419e+08
2.29242e+08
2.29043e+08
2.28824e+08
2.28582e+08
2.2832e+08
2.28035e+08
2.27729e+08
2.27401e+08
2.27051e+08
2.26679e+08
2.26285e+08
2.2587e+08
2.25432e+08
2.24974e+08
2.24493e+08
2.23991e+08
2.23468e+08
2.22924e+08
2.22359e+08
2.21774e+08
2.21168e+08
2.20542e+08
2.19896e+08
2.1923e+08
2.18545e+08
2.17841e+08
2.17118e+08
2.16376e+08
2.15616e+08
2.14838e+08
2.14042e+08
2.13229e+08
2.12399e+08
2.11553e+08
2.10689e+08
2.0981e+08
2.08915e+08
2.08004e+08
2.07077e+08
2.06136e+08
2.0518e+08
2.0421e+08
2.03226e+08
2.02228e+08
2.01216e+08
2.00191e+08
1.99153e+08
1.98102e+08
1.97038e+08
1.95963e+08
1.94875e+08
1.93776e+08
1.92665e+08
1.91543e+08
1.9041e+08
1.89266e+08
1.88111e+08
1.86947e+08
1.85771e+08
1.84586e+08
1.83392e+08
1.82187e+08
1.80974e+08
1.79751e+08
1.78519e+08
1.77279e+08
1.7603e+08
1.74772e+08
1.73506e+08
1.72232e+08
1.70951e+08
1.69661e+08
1.68364e+08
1.67059e+08
1.65748e+08
1.64429e+08
1.63103e+08
1.6177e+08
1.60431e+08
1.59085e+08
1.57733e+08
1.56374e+08
1.5501e+08
1.53639e+08
1.52263e+08
1.50881e+08
1.49493e+08
1.481e+08
1.46702e+08
1.45298e+08
1.4389e+08
1.42476e+08
1.41058e+08
1.39636e+08
1.38208e+08
1.36777e+08
1.35341e+08
1.33901e+08
1.32457e+08
1.31009e+08
1.29557e+08
1.28102e+08
1.26644e+08
1.25182e+08
1.23717e+08
1.22248e+08
1.20777e+08
1.19304e+08
1.17827e+08
1.16349e+08
1.14868e+08
1.13384e+08
1.11899e+08
1.10412e+08
1.08923e+08
1.07433e+08
1.05941e+08
1.04449e+08
1.02955e+08
1.0146e+08
9.99645e+07
9.84685e+07
9.69723e+07
9.54758e+07
9.39795e+07
9.24834e+07
9.09877e+07
8.94927e+07
8.79985e+07
8.65054e+07
8.50136e+07
8.35232e+07
8.20346e+07
8.05478e+07
7.90633e+07
7.75812e+07
7.61017e+07
7.4625e+07
7.31516e+07
7.16815e+07
7.0215e+07
6.87525e+07
6.72942e+07
6.58403e+07
6.43912e+07
6.29472e+07
6.15085e+07
6.00755e+07
5.86484e+07
5.72276e+07
5.58134e+07
5.44062e+07
5.30063e+07
5.16141e+07
5.02299e+07
4.88541e+07
4.74872e+07
4.61296e+07
4.47816e+07
4.34438e+07
4.21168e+07
4.0801e+07
3.9497e+07
3.82057e+07
3.69277e+07
3.56641e+07
3.44162e+07
3.31856e+07
3.19748e+07
3.07881e+07
2.96348e+07
2.30191e+08
2.30173e+08
2.30135e+08
2.30079e+08
2.30003e+08
2.29907e+08
2.29791e+08
2.29655e+08
2.29498e+08
2.29319e+08
2.2912e+08
2.28899e+08
2.28657e+08
2.28393e+08
2.28107e+08
2.27799e+08
2.27469e+08
2.27118e+08
2.26744e+08
2.26349e+08
2.25932e+08
2.25493e+08
2.25032e+08
2.2455e+08
2.24046e+08
2.23522e+08
2.22976e+08
2.22409e+08
2.21822e+08
2.21214e+08
2.20586e+08
2.19938e+08
2.19271e+08
2.18584e+08
2.17878e+08
2.17154e+08
2.16411e+08
2.15649e+08
2.1487e+08
2.14073e+08
2.13259e+08
2.12427e+08
2.11579e+08
2.10715e+08
2.09834e+08
2.08937e+08
2.08025e+08
2.07098e+08
2.06156e+08
2.05199e+08
2.04228e+08
2.03243e+08
2.02244e+08
2.01231e+08
2.00205e+08
1.99166e+08
1.98115e+08
1.97051e+08
1.95974e+08
1.94886e+08
1.93786e+08
1.92675e+08
1.91552e+08
1.90419e+08
1.89274e+08
1.88119e+08
1.86954e+08
1.85778e+08
1.84593e+08
1.83398e+08
1.82193e+08
1.80979e+08
1.79756e+08
1.78524e+08
1.77283e+08
1.76034e+08
1.74776e+08
1.7351e+08
1.72236e+08
1.70954e+08
1.69664e+08
1.68367e+08
1.67062e+08
1.6575e+08
1.64431e+08
1.63105e+08
1.61772e+08
1.60433e+08
1.59087e+08
1.57734e+08
1.56376e+08
1.55011e+08
1.5364e+08
1.52264e+08
1.50882e+08
1.49494e+08
1.48101e+08
1.46703e+08
1.45299e+08
1.43891e+08
1.42477e+08
1.41059e+08
1.39636e+08
1.38209e+08
1.36777e+08
1.35341e+08
1.33901e+08
1.32457e+08
1.31009e+08
1.29558e+08
1.28102e+08
1.26644e+08
1.25182e+08
1.23717e+08
1.22249e+08
1.20778e+08
1.19304e+08
1.17828e+08
1.16349e+08
1.14868e+08
1.13385e+08
1.11899e+08
1.10412e+08
1.08923e+08
1.07433e+08
1.05941e+08
1.04449e+08
1.02955e+08
1.0146e+08
9.99645e+07
9.84686e+07
9.69723e+07
9.54759e+07
9.39795e+07
9.24834e+07
9.09877e+07
8.94927e+07
8.79985e+07
8.65054e+07
8.50136e+07
8.35232e+07
8.20346e+07
8.05479e+07
7.90633e+07
7.75812e+07
7.61017e+07
7.46251e+07
7.31516e+07
7.16815e+07
7.0215e+07
6.87525e+07
6.72942e+07
6.58403e+07
6.43912e+07
6.29472e+07
6.15085e+07
6.00754e+07
5.86484e+07
5.72276e+07
5.58134e+07
5.44062e+07
5.30063e+07
5.16141e+07
5.02299e+07
4.88541e+07
4.74872e+07
4.61295e+07
4.47815e+07
4.34437e+07
4.21166e+07
4.08007e+07
3.94967e+07
3.82053e+07
3.69272e+07
3.56634e+07
3.44152e+07
3.31841e+07
3.19726e+07
3.07841e+07
2.96254e+07
2.30358e+08
2.30339e+08
2.30301e+08
2.30244e+08
2.30167e+08
2.3007e+08
2.29953e+08
2.29815e+08
2.29656e+08
2.29476e+08
2.29274e+08
2.29051e+08
2.28806e+08
2.28539e+08
2.2825e+08
2.2794e+08
2.27607e+08
2.27252e+08
2.26875e+08
2.26476e+08
2.26056e+08
2.25613e+08
2.25149e+08
2.24663e+08
2.24156e+08
2.23628e+08
2.23078e+08
2.22508e+08
2.21917e+08
2.21306e+08
2.20675e+08
2.20024e+08
2.19353e+08
2.18663e+08
2.17954e+08
2.17226e+08
2.1648e+08
2.15716e+08
2.14933e+08
2.14134e+08
2.13316e+08
2.12482e+08
2.11632e+08
2.10765e+08
2.09882e+08
2.08983e+08
2.08069e+08
2.07139e+08
2.06195e+08
2.05236e+08
2.04263e+08
2.03276e+08
2.02275e+08
2.01261e+08
2.00234e+08
1.99193e+08
1.9814e+08
1.97075e+08
1.95997e+08
1.94908e+08
1.93807e+08
1.92694e+08
1.91571e+08
1.90436e+08
1.8929e+08
1.88135e+08
1.86968e+08
1.85792e+08
1.84606e+08
1.8341e+08
1.82204e+08
1.8099e+08
1.79766e+08
1.78533e+08
1.77292e+08
1.76042e+08
1.74784e+08
1.73517e+08
1.72243e+08
1.7096e+08
1.6967e+08
1.68372e+08
1.67067e+08
1.65755e+08
1.64436e+08
1.63109e+08
1.61776e+08
1.60436e+08
1.5909e+08
1.57738e+08
1.56379e+08
1.55014e+08
1.53643e+08
1.52266e+08
1.50884e+08
1.49496e+08
1.48103e+08
1.46704e+08
1.45301e+08
1.43892e+08
1.42479e+08
1.4106e+08
1.39637e+08
1.3821e+08
1.36778e+08
1.35342e+08
1.33902e+08
1.32458e+08
1.3101e+08
1.29558e+08
1.28103e+08
1.26644e+08
1.25182e+08
1.23717e+08
1.22249e+08
1.20778e+08
1.19304e+08
1.17828e+08
1.16349e+08
1.14868e+08
1.13385e+08
1.119e+08
1.10412e+08
1.08924e+08
1.07433e+08
1.05942e+08
1.04449e+08
1.02955e+08
1.0146e+08
9.99646e+07
9.84687e+07
9.69724e+07
9.5476e+07
9.39796e+07
9.24835e+07
9.09878e+07
8.94928e+07
8.79986e+07
8.65055e+07
8.50136e+07
8.35233e+07
8.20346e+07
8.05479e+07
7.90633e+07
7.75812e+07
7.61017e+07
7.46251e+07
7.31516e+07
7.16815e+07
7.02151e+07
6.87525e+07
6.72942e+07
6.58404e+07
6.43913e+07
6.29472e+07
6.15085e+07
6.00754e+07
5.86484e+07
5.72276e+07
5.58134e+07
5.44062e+07
5.30062e+07
5.1614e+07
5.02298e+07
4.8854e+07
4.7487e+07
4.61293e+07
4.47813e+07
4.34434e+07
4.21162e+07
4.08003e+07
3.94961e+07
3.82045e+07
3.69262e+07
3.5662e+07
3.44133e+07
3.31814e+07
3.19683e+07
3.07769e+07
2.96107e+07
2.3061e+08
2.3059e+08
2.30552e+08
2.30493e+08
2.30415e+08
2.30316e+08
2.30196e+08
2.30056e+08
2.29894e+08
2.29711e+08
2.29506e+08
2.29279e+08
2.2903e+08
2.28759e+08
2.28466e+08
2.28151e+08
2.27813e+08
2.27454e+08
2.27072e+08
2.26668e+08
2.26242e+08
2.25794e+08
2.25325e+08
2.24834e+08
2.24321e+08
2.23787e+08
2.23232e+08
2.22657e+08
2.22061e+08
2.21444e+08
2.20808e+08
2.20152e+08
2.19476e+08
2.18781e+08
2.18067e+08
2.17335e+08
2.16584e+08
2.15815e+08
2.15028e+08
2.14224e+08
2.13403e+08
2.12565e+08
2.11711e+08
2.1084e+08
2.09953e+08
2.09051e+08
2.08134e+08
2.07201e+08
2.06254e+08
2.05292e+08
2.04316e+08
2.03327e+08
2.02323e+08
2.01306e+08
2.00277e+08
1.99234e+08
1.98179e+08
1.97111e+08
1.96032e+08
1.9494e+08
1.93838e+08
1.92723e+08
1.91598e+08
1.90462e+08
1.89315e+08
1.88157e+08
1.8699e+08
1.85812e+08
1.84625e+08
1.83428e+08
1.82221e+08
1.81006e+08
1.79781e+08
1.78547e+08
1.77305e+08
1.76054e+08
1.74795e+08
1.73528e+08
1.72253e+08
1.7097e+08
1.69679e+08
1.68381e+08
1.67075e+08
1.65762e+08
1.64442e+08
1.63116e+08
1.61782e+08
1.60442e+08
1.59095e+08
1.57742e+08
1.56383e+08
1.55018e+08
1.53647e+08
1.5227e+08
1.50887e+08
1.49499e+08
1.48106e+08
1.46707e+08
1.45303e+08
1.43894e+08
1.42481e+08
1.41062e+08
1.39639e+08
1.38212e+08
1.3678e+08
1.35343e+08
1.33903e+08
1.32459e+08
1.31011e+08
1.29559e+08
1.28104e+08
1.26645e+08
1.25183e+08
1.23718e+08
1.2225e+08
1.20779e+08
1.19305e+08
1.17828e+08
1.1635e+08
1.14868e+08
1.13385e+08
1.119e+08
1.10413e+08
1.08924e+08
1.07434e+08
1.05942e+08
1.04449e+08
1.02955e+08
1.0146e+08
9.99648e+07
9.84688e+07
9.69725e+07
9.54761e+07
9.39797e+07
9.24836e+07
9.09879e+07
8.94928e+07
8.79986e+07
8.65055e+07
8.50137e+07
8.35233e+07
8.20346e+07
8.05479e+07
7.90634e+07
7.75812e+07
7.61017e+07
7.46251e+07
7.31516e+07
7.16815e+07
7.02151e+07
6.87526e+07
6.72942e+07
6.58404e+07
6.43913e+07
6.29472e+07
6.15085e+07
6.00754e+07
5.86483e+07
5.72275e+07
5.58133e+07
5.44061e+07
5.30062e+07
5.16139e+07
5.02297e+07
4.88538e+07
4.74868e+07
4.61291e+07
4.4781e+07
4.3443e+07
4.21157e+07
4.07996e+07
3.94953e+07
3.82034e+07
3.69247e+07
3.566e+07
3.44105e+07
3.31774e+07
3.19623e+07
3.07672e+07
2.95936e+07
2.30948e+08
2.30927e+08
2.30888e+08
2.30828e+08
2.30747e+08
2.30646e+08
2.30523e+08
2.30379e+08
2.30214e+08
2.30026e+08
2.29817e+08
2.29585e+08
2.29331e+08
2.29054e+08
2.28755e+08
2.28434e+08
2.2809e+08
2.27723e+08
2.27335e+08
2.26924e+08
2.26491e+08
2.26036e+08
2.25559e+08
2.25061e+08
2.24541e+08
2.24e+08
2.23438e+08
2.22855e+08
2.22252e+08
2.21628e+08
2.20985e+08
2.20322e+08
2.19639e+08
2.18938e+08
2.18217e+08
2.17479e+08
2.16722e+08
2.15947e+08
2.15154e+08
2.14345e+08
2.13518e+08
2.12675e+08
2.11815e+08
2.1094e+08
2.10049e+08
2.09142e+08
2.0822e+08
2.07283e+08
2.06332e+08
2.05366e+08
2.04387e+08
2.03393e+08
2.02386e+08
2.01366e+08
2.00333e+08
1.99288e+08
1.9823e+08
1.97159e+08
1.96077e+08
1.94984e+08
1.93878e+08
1.92762e+08
1.91634e+08
1.90496e+08
1.89347e+08
1.88188e+08
1.87019e+08
1.85839e+08
1.8465e+08
1.83452e+08
1.82244e+08
1.81027e+08
1.79801e+08
1.78566e+08
1.77323e+08
1.76071e+08
1.74811e+08
1.73542e+08
1.72266e+08
1.70982e+08
1.69691e+08
1.68392e+08
1.67085e+08
1.65772e+08
1.64451e+08
1.63124e+08
1.6179e+08
1.60449e+08
1.59102e+08
1.57749e+08
1.56389e+08
1.55023e+08
1.53652e+08
1.52275e+08
1.50892e+08
1.49503e+08
1.4811e+08
1.46711e+08
1.45307e+08
1.43897e+08
1.42483e+08
1.41065e+08
1.39641e+08
1.38214e+08
1.36782e+08
1.35345e+08
1.33905e+08
1.32461e+08
1.31012e+08
1.29561e+08
1.28105e+08
1.26646e+08
1.25184e+08
1.23719e+08
1.22251e+08
1.20779e+08
1.19306e+08
1.17829e+08
1.1635e+08
1.14869e+08
1.13386e+08
1.119e+08
1.10413e+08
1.08924e+08
1.07434e+08
1.05942e+08
1.04449e+08
1.02955e+08
1.0146e+08
9.9965e+07
9.8469e+07
9.69726e+07
9.54762e+07
9.39798e+07
9.24837e+07
9.0988e+07
8.94929e+07
8.79987e+07
8.65056e+07
8.50137e+07
8.35234e+07
8.20347e+07
8.0548e+07
7.90634e+07
7.75813e+07
7.61018e+07
7.46251e+07
7.31517e+07
7.16816e+07
7.02151e+07
6.87526e+07
6.72942e+07
6.58404e+07
6.43913e+07
6.29472e+07
6.15085e+07
6.00754e+07
5.86483e+07
5.72275e+07
5.58133e+07
5.4406e+07
5.30061e+07
5.16138e+07
5.02295e+07
4.88536e+07
4.74866e+07
4.61287e+07
4.47806e+07
4.34425e+07
4.2115e+07
4.07987e+07
3.94941e+07
3.82019e+07
3.69227e+07
3.56574e+07
3.44069e+07
3.31724e+07
3.1955e+07
3.0756e+07
2.95756e+07
2.31374e+08
2.31353e+08
2.31312e+08
2.31249e+08
2.31166e+08
2.31062e+08
2.30935e+08
2.30787e+08
2.30616e+08
2.30423e+08
2.30208e+08
2.29969e+08
2.29708e+08
2.29424e+08
2.29118e+08
2.28788e+08
2.28436e+08
2.28061e+08
2.27664e+08
2.27244e+08
2.26802e+08
2.26338e+08
2.25852e+08
2.25344e+08
2.24815e+08
2.24265e+08
2.23694e+08
2.23102e+08
2.2249e+08
2.21857e+08
2.21205e+08
2.20533e+08
2.19843e+08
2.19133e+08
2.18404e+08
2.17658e+08
2.16893e+08
2.16111e+08
2.15311e+08
2.14495e+08
2.13661e+08
2.12812e+08
2.11946e+08
2.11064e+08
2.10167e+08
2.09254e+08
2.08327e+08
2.07385e+08
2.06429e+08
2.05458e+08
2.04474e+08
2.03476e+08
2.02465e+08
2.01441e+08
2.00404e+08
1.99355e+08
1.98293e+08
1.97219e+08
1.96134e+08
1.95037e+08
1.93929e+08
1.92809e+08
1.91679e+08
1.90538e+08
1.89387e+08
1.88226e+08
1.87054e+08
1.85873e+08
1.84682e+08
1.83482e+08
1.82272e+08
1.81053e+08
1.79826e+08
1.78589e+08
1.77344e+08
1.76091e+08
1.7483e+08
1.7356e+08
1.72283e+08
1.70998e+08
1.69705e+08
1.68406e+08
1.67098e+08
1.65784e+08
1.64463e+08
1.63134e+08
1.618e+08
1.60458e+08
1.59111e+08
1.57757e+08
1.56396e+08
1.5503e+08
1.53658e+08
1.52281e+08
1.50897e+08
1.49508e+08
1.48114e+08
1.46715e+08
1.45311e+08
1.43901e+08
1.42487e+08
1.41068e+08
1.39644e+08
1.38216e+08
1.36784e+08
1.35348e+08
1.33907e+08
1.32463e+08
1.31014e+08
1.29562e+08
1.28107e+08
1.26648e+08
1.25185e+08
1.2372e+08
1.22252e+08
1.2078e+08
1.19306e+08
1.1783e+08
1.16351e+08
1.1487e+08
1.13386e+08
1.11901e+08
1.10414e+08
1.08925e+08
1.07434e+08
1.05943e+08
1.0445e+08
1.02956e+08
1.01461e+08
9.99652e+07
9.84692e+07
9.69728e+07
9.54764e+07
9.398e+07
9.24838e+07
9.09881e+07
8.9493e+07
8.79988e+07
8.65057e+07
8.50138e+07
8.35234e+07
8.20348e+07
8.05481e+07
7.90635e+07
7.75813e+07
7.61018e+07
7.46252e+07
7.31517e+07
7.16816e+07
7.02151e+07
6.87526e+07
6.72943e+07
6.58404e+07
6.43913e+07
6.29472e+07
6.15085e+07
6.00754e+07
5.86483e+07
5.72275e+07
5.58132e+07
5.44059e+07
5.3006e+07
5.16136e+07
5.02293e+07
4.88534e+07
4.74863e+07
4.61283e+07
4.478e+07
4.34418e+07
4.21142e+07
4.07977e+07
3.94928e+07
3.82001e+07
3.69204e+07
3.56543e+07
3.44027e+07
3.31666e+07
3.19467e+07
3.07439e+07
2.95575e+07
2.31891e+08
2.31869e+08
2.31826e+08
2.31761e+08
2.31675e+08
2.31566e+08
2.31435e+08
2.31281e+08
2.31104e+08
2.30904e+08
2.30681e+08
2.30435e+08
2.30165e+08
2.29872e+08
2.29556e+08
2.29217e+08
2.28854e+08
2.28469e+08
2.28061e+08
2.2763e+08
2.27177e+08
2.26701e+08
2.26204e+08
2.25685e+08
2.25145e+08
2.24583e+08
2.24001e+08
2.23398e+08
2.22775e+08
2.22131e+08
2.21469e+08
2.20787e+08
2.20086e+08
2.19366e+08
2.18628e+08
2.17872e+08
2.17098e+08
2.16307e+08
2.15498e+08
2.14673e+08
2.13832e+08
2.12974e+08
2.12101e+08
2.11212e+08
2.10307e+08
2.09388e+08
2.08454e+08
2.07506e+08
2.06544e+08
2.05567e+08
2.04578e+08
2.03574e+08
2.02558e+08
2.01529e+08
2.00488e+08
1.99434e+08
1.98368e+08
1.97291e+08
1.96201e+08
1.95101e+08
1.93989e+08
1.92866e+08
1.91733e+08
1.90589e+08
1.89435e+08
1.88271e+08
1.87097e+08
1.85913e+08
1.84719e+08
1.83517e+08
1.82305e+08
1.81084e+08
1.79855e+08
1.78617e+08
1.7737e+08
1.76116e+08
1.74853e+08
1.73582e+08
1.72303e+08
1.71017e+08
1.69723e+08
1.68422e+08
1.67114e+08
1.65798e+08
1.64476e+08
1.63147e+08
1.61811e+08
1.60469e+08
1.59121e+08
1.57766e+08
1.56405e+08
1.55038e+08
1.53666e+08
1.52288e+08
1.50904e+08
1.49515e+08
1.4812e+08
1.4672e+08
1.45315e+08
1.43906e+08
1.42491e+08
1.41072e+08
1.39648e+08
1.3822e+08
1.36787e+08
1.3535e+08
1.3391e+08
1.32465e+08
1.31016e+08
1.29564e+08
1.28108e+08
1.26649e+08
1.25187e+08
1.23721e+08
1.22253e+08
1.20782e+08
1.19308e+08
1.17831e+08
1.16352e+08
1.1487e+08
1.13387e+08
1.11902e+08
1.10414e+08
1.08925e+08
1.07435e+08
1.05943e+08
1.0445e+08
1.02956e+08
1.01461e+08
9.99655e+07
9.84694e+07
9.69731e+07
9.54766e+07
9.39802e+07
9.2484e+07
9.09883e+07
8.94932e+07
8.7999e+07
8.65058e+07
8.50139e+07
8.35235e+07
8.20349e+07
8.05481e+07
7.90636e+07
7.75814e+07
7.61019e+07
7.46252e+07
7.31517e+07
7.16816e+07
7.02152e+07
6.87526e+07
6.72943e+07
6.58404e+07
6.43913e+07
6.29472e+07
6.15085e+07
6.00754e+07
5.86483e+07
5.72274e+07
5.58132e+07
5.44058e+07
5.30058e+07
5.16135e+07
5.02291e+07
4.88531e+07
4.74859e+07
4.61279e+07
4.47794e+07
4.34411e+07
4.21132e+07
4.07964e+07
3.94912e+07
3.8198e+07
3.69177e+07
3.56507e+07
3.4398e+07
3.31601e+07
3.19377e+07
3.07312e+07
2.95396e+07
2.32504e+08
2.3248e+08
2.32434e+08
2.32366e+08
2.32276e+08
2.32162e+08
2.32024e+08
2.31864e+08
2.31679e+08
2.31471e+08
2.31239e+08
2.30982e+08
2.30702e+08
2.30398e+08
2.30071e+08
2.29719e+08
2.29344e+08
2.28946e+08
2.28525e+08
2.28081e+08
2.27615e+08
2.27126e+08
2.26615e+08
2.26083e+08
2.25529e+08
2.24954e+08
2.24358e+08
2.23742e+08
2.23106e+08
2.2245e+08
2.21775e+08
2.21081e+08
2.20368e+08
2.19636e+08
2.18887e+08
2.1812e+08
2.17335e+08
2.16533e+08
2.15715e+08
2.1488e+08
2.14029e+08
2.13163e+08
2.1228e+08
2.11383e+08
2.1047e+08
2.09543e+08
2.08602e+08
2.07646e+08
2.06677e+08
2.05694e+08
2.04698e+08
2.03688e+08
2.02666e+08
2.01632e+08
2.00585e+08
1.99526e+08
1.98455e+08
1.97373e+08
1.96279e+08
1.95174e+08
1.94058e+08
1.92932e+08
1.91795e+08
1.90647e+08
1.8949e+08
1.88323e+08
1.87146e+08
1.85959e+08
1.84763e+08
1.83558e+08
1.82344e+08
1.81121e+08
1.79889e+08
1.78649e+08
1.774e+08
1.76144e+08
1.74879e+08
1.73606e+08
1.72326e+08
1.71038e+08
1.69743e+08
1.68441e+08
1.67131e+08
1.65815e+08
1.64491e+08
1.63161e+08
1.61825e+08
1.60482e+08
1.59132e+08
1.57777e+08
1.56415e+08
1.55048e+08
1.53675e+08
1.52296e+08
1.50911e+08
1.49522e+08
1.48126e+08
1.46726e+08
1.45321e+08
1.43911e+08
1.42496e+08
1.41076e+08
1.39652e+08
1.38223e+08
1.36791e+08
1.35354e+08
1.33913e+08
1.32468e+08
1.31019e+08
1.29566e+08
1.28111e+08
1.26651e+08
1.25189e+08
1.23723e+08
1.22254e+08
1.20783e+08
1.19309e+08
1.17832e+08
1.16353e+08
1.14871e+08
1.13388e+08
1.11902e+08
1.10415e+08
1.08926e+08
1.07435e+08
1.05943e+08
1.0445e+08
1.02956e+08
1.01461e+08
9.99658e+07
9.84697e+07
9.69733e+07
9.54768e+07
9.39804e+07
9.24842e+07
9.09884e+07
8.94933e+07
8.79991e+07
8.65059e+07
8.50141e+07
8.35237e+07
8.2035e+07
8.05482e+07
7.90637e+07
7.75815e+07
7.6102e+07
7.46253e+07
7.31518e+07
7.16817e+07
7.02152e+07
6.87527e+07
6.72943e+07
6.58404e+07
6.43913e+07
6.29472e+07
6.15085e+07
6.00754e+07
5.86482e+07
5.72273e+07
5.58131e+07
5.44057e+07
5.30057e+07
5.16133e+07
5.02288e+07
4.88528e+07
4.74855e+07
4.61273e+07
4.47788e+07
4.34402e+07
4.21122e+07
4.0795e+07
3.94894e+07
3.81957e+07
3.69147e+07
3.56468e+07
3.43928e+07
3.31531e+07
3.19283e+07
3.07183e+07
2.95223e+07
2.33215e+08
2.3319e+08
2.33141e+08
2.33069e+08
2.32973e+08
2.32853e+08
2.32708e+08
2.32539e+08
2.32345e+08
2.32127e+08
2.31883e+08
2.31615e+08
2.31322e+08
2.31005e+08
2.30663e+08
2.30298e+08
2.29908e+08
2.29495e+08
2.29058e+08
2.28599e+08
2.28116e+08
2.27612e+08
2.27085e+08
2.26537e+08
2.25967e+08
2.25376e+08
2.24765e+08
2.24134e+08
2.23483e+08
2.22812e+08
2.22123e+08
2.21414e+08
2.20688e+08
2.19943e+08
2.1918e+08
2.18401e+08
2.17604e+08
2.1679e+08
2.1596e+08
2.15114e+08
2.14253e+08
2.13376e+08
2.12483e+08
2.11576e+08
2.10654e+08
2.09718e+08
2.08768e+08
2.07804e+08
2.06827e+08
2.05837e+08
2.04833e+08
2.03817e+08
2.02788e+08
2.01747e+08
2.00694e+08
1.9963e+08
1.98553e+08
1.97466e+08
1.96367e+08
1.95257e+08
1.94137e+08
1.93006e+08
1.91865e+08
1.90713e+08
1.89552e+08
1.88381e+08
1.87201e+08
1.86011e+08
1.84812e+08
1.83604e+08
1.82387e+08
1.81161e+08
1.79927e+08
1.78685e+08
1.77434e+08
1.76175e+08
1.74909e+08
1.73634e+08
1.72352e+08
1.71063e+08
1.69766e+08
1.68462e+08
1.67151e+08
1.65833e+08
1.64509e+08
1.63178e+08
1.6184e+08
1.60496e+08
1.59146e+08
1.57789e+08
1.56427e+08
1.55059e+08
1.53685e+08
1.52305e+08
1.5092e+08
1.49529e+08
1.48134e+08
1.46733e+08
1.45327e+08
1.43917e+08
1.42501e+08
1.41081e+08
1.39657e+08
1.38228e+08
1.36794e+08
1.35357e+08
1.33916e+08
1.32471e+08
1.31022e+08
1.29569e+08
1.28113e+08
1.26653e+08
1.25191e+08
1.23725e+08
1.22256e+08
1.20784e+08
1.1931e+08
1.17833e+08
1.16354e+08
1.14872e+08
1.13389e+08
1.11903e+08
1.10416e+08
1.08927e+08
1.07436e+08
1.05944e+08
1.04451e+08
1.02957e+08
1.01462e+08
9.99662e+07
9.84701e+07
9.69737e+07
9.54771e+07
9.39806e+07
9.24844e+07
9.09886e+07
8.94935e+07
8.79993e+07
8.65061e+07
8.50142e+07
8.35238e+07
8.20351e+07
8.05483e+07
7.90638e+07
7.75816e+07
7.6102e+07
7.46254e+07
7.31519e+07
7.16817e+07
7.02153e+07
6.87527e+07
6.72944e+07
6.58405e+07
6.43913e+07
6.29472e+07
6.15085e+07
6.00753e+07
5.86482e+07
5.72273e+07
5.5813e+07
5.44056e+07
5.30055e+07
5.16131e+07
5.02286e+07
4.88524e+07
4.7485e+07
4.61268e+07
4.47781e+07
4.34393e+07
4.2111e+07
4.07935e+07
3.94874e+07
3.81932e+07
3.69115e+07
3.56426e+07
3.43873e+07
3.31458e+07
3.19186e+07
3.07055e+07
2.95056e+07
2.34031e+08
2.34004e+08
2.33952e+08
2.33875e+08
2.33772e+08
2.33644e+08
2.33491e+08
2.33312e+08
2.33106e+08
2.32875e+08
2.32618e+08
2.32336e+08
2.32028e+08
2.31695e+08
2.31336e+08
2.30954e+08
2.30546e+08
2.30115e+08
2.2966e+08
2.29183e+08
2.28682e+08
2.28159e+08
2.27614e+08
2.27047e+08
2.26459e+08
2.25851e+08
2.25222e+08
2.24573e+08
2.23905e+08
2.23218e+08
2.22512e+08
2.21787e+08
2.21045e+08
2.20285e+08
2.19508e+08
2.18714e+08
2.17903e+08
2.17076e+08
2.16233e+08
2.15375e+08
2.14501e+08
2.13612e+08
2.12709e+08
2.11791e+08
2.10859e+08
2.09913e+08
2.08953e+08
2.0798e+08
2.06994e+08
2.05995e+08
2.04984e+08
2.0396e+08
2.02924e+08
2.01876e+08
2.00816e+08
1.99745e+08
1.98662e+08
1.97569e+08
1.96464e+08
1.95349e+08
1.94224e+08
1.93088e+08
1.91942e+08
1.90787e+08
1.89621e+08
1.88446e+08
1.87262e+08
1.86069e+08
1.84866e+08
1.83655e+08
1.82435e+08
1.81207e+08
1.7997e+08
1.78725e+08
1.77471e+08
1.7621e+08
1.74942e+08
1.73665e+08
1.72381e+08
1.7109e+08
1.69792e+08
1.68486e+08
1.67173e+08
1.65854e+08
1.64528e+08
1.63196e+08
1.61857e+08
1.60512e+08
1.5916e+08
1.57803e+08
1.5644e+08
1.5507e+08
1.53696e+08
1.52315e+08
1.50929e+08
1.49538e+08
1.48142e+08
1.46741e+08
1.45334e+08
1.43923e+08
1.42507e+08
1.41087e+08
1.39662e+08
1.38232e+08
1.36799e+08
1.35361e+08
1.33919e+08
1.32474e+08
1.31025e+08
1.29572e+08
1.28115e+08
1.26656e+08
1.25193e+08
1.23727e+08
1.22258e+08
1.20786e+08
1.19312e+08
1.17835e+08
1.16355e+08
1.14874e+08
1.1339e+08
1.11904e+08
1.10417e+08
1.08927e+08
1.07437e+08
1.05945e+08
1.04452e+08
1.02957e+08
1.01462e+08
9.99666e+07
9.84705e+07
9.6974e+07
9.54774e+07
9.39809e+07
9.24847e+07
9.09889e+07
8.94937e+07
8.79995e+07
8.65063e+07
8.50143e+07
8.35239e+07
8.20352e+07
8.05485e+07
7.90639e+07
7.75817e+07
7.61021e+07
7.46255e+07
7.31519e+07
7.16818e+07
7.02153e+07
6.87528e+07
6.72944e+07
6.58405e+07
6.43913e+07
6.29472e+07
6.15085e+07
6.00753e+07
5.86481e+07
5.72272e+07
5.58129e+07
5.44055e+07
5.30054e+07
5.16128e+07
5.02283e+07
4.88521e+07
4.74846e+07
4.61262e+07
4.47773e+07
4.34383e+07
4.21097e+07
4.07919e+07
3.94854e+07
3.81906e+07
3.69081e+07
3.56382e+07
3.43816e+07
3.31384e+07
3.19089e+07
3.06929e+07
2.94895e+07
2.34958e+08
2.34928e+08
2.34872e+08
2.34789e+08
2.34679e+08
2.34542e+08
2.34377e+08
2.34186e+08
2.33967e+08
2.3372e+08
2.33447e+08
2.33148e+08
2.32821e+08
2.32469e+08
2.32091e+08
2.31688e+08
2.3126e+08
2.30808e+08
2.30332e+08
2.29833e+08
2.29311e+08
2.28767e+08
2.28201e+08
2.27613e+08
2.27004e+08
2.26376e+08
2.25727e+08
2.25058e+08
2.24371e+08
2.23665e+08
2.2294e+08
2.22198e+08
2.21439e+08
2.20662e+08
2.19868e+08
2.19058e+08
2.18232e+08
2.1739e+08
2.16533e+08
2.15661e+08
2.14774e+08
2.13872e+08
2.12956e+08
2.12027e+08
2.11083e+08
2.10126e+08
2.09156e+08
2.08173e+08
2.07177e+08
2.06169e+08
2.05148e+08
2.04116e+08
2.03072e+08
2.02016e+08
2.00949e+08
1.99871e+08
1.98781e+08
1.97682e+08
1.96571e+08
1.9545e+08
1.94319e+08
1.93178e+08
1.92027e+08
1.90867e+08
1.89697e+08
1.88518e+08
1.87329e+08
1.86132e+08
1.84926e+08
1.83711e+08
1.82488e+08
1.81256e+08
1.80016e+08
1.78768e+08
1.77513e+08
1.76249e+08
1.74978e+08
1.73699e+08
1.72413e+08
1.7112e+08
1.69819e+08
1.68512e+08
1.67198e+08
1.65877e+08
1.64549e+08
1.63216e+08
1.61875e+08
1.60529e+08
1.59176e+08
1.57818e+08
1.56453e+08
1.55083e+08
1.53708e+08
1.52326e+08
1.5094e+08
1.49548e+08
1.48151e+08
1.46749e+08
1.45342e+08
1.4393e+08
1.42514e+08
1.41093e+08
1.39667e+08
1.38238e+08
1.36804e+08
1.35366e+08
1.33924e+08
1.32478e+08
1.31028e+08
1.29575e+08
1.28118e+08
1.26658e+08
1.25195e+08
1.23729e+08
1.2226e+08
1.20788e+08
1.19313e+08
1.17836e+08
1.16357e+08
1.14875e+08