/*--------------------------------*- C++ -*----------------------------------*\
  =========                 |
  \\      /  F ield         | OpenFOAM: The Open Source CFD Toolbox
   \\    /   O peration     | Website:  https://openfoam.org
    \\  /    A nd           | Version:  7
     \\/     M anipulation  |
\*---------------------------------------------------------------------------*/
FoamFile
{
    version     2.0;
    format      ascii;
    class       volScalarField;
    location    "0.001";
    object      s;
}
// * * * * * * * * * * * * * * * * * * * * * * * * * * * * * * * * * * * * * //

dimensions      [0 0 0 0 0 0 0];

internalField   nonuniform List<scalar> 
12225
(
0.999713
0.968224
0.752749
0.335737
0.124098
0.0406425
0.0121124
0.00334212
0.000867183
0.00021461
5.13369e-05
1.19988e-05
2.77675e-06
6.41732e-07
1.56449e-07
3.59999e-08
9.3318e-09
3.1126e-09
0.999824
0.981557
0.856269
0.466817
0.188875
0.0676839
0.0219938
0.0066097
0.0018655
0.000501316
0.000129459
3.26421e-05
8.0689e-06
1.97364e-06
4.90367e-07
1.21077e-07
3.15596e-08
8.7145e-09
0.999821
0.979753
0.840054
0.44269
0.180642
0.0653418
0.0214172
0.00648338
0.00184074
0.000496546
0.000128885
3.24727e-05
8.03314e-06
1.98004e-06
4.83148e-07
1.2009e-07
3.09061e-08
8.23321e-09
0.999824
0.980643
0.847407
0.453584
0.184832
0.0666896
0.0217928
0.00657761
0.00186239
0.00050122
0.000129708
3.25935e-05
8.05565e-06
1.96454e-06
4.80086e-07
1.18529e-07
2.98357e-08
7.84073e-09
0.999813
0.980478
0.848023
0.45522
0.185549
0.0668923
0.0218309
0.00657902
0.00185955
0.000499407
0.000128939
3.23193e-05
7.93884e-06
1.93198e-06
4.68355e-07
1.14096e-07
2.82397e-08
7.25227e-09
0.999815
0.980528
0.848585
0.456476
0.186165
0.0670916
0.0218721
0.00658121
0.00185668
0.00049749
0.000128084
3.19832e-05
7.82689e-06
1.89107e-06
4.54008e-07
1.094e-07
2.65289e-08
6.591e-09
0.999836
0.982067
0.858105
0.469491
0.190488
0.0682929
0.022152
0.00663374
0.00186293
0.000496831
0.000127265
3.16111e-05
7.68018e-06
1.83922e-06
4.36936e-07
1.03506e-07
2.44712e-08
5.90322e-09
0.999834
0.981552
0.852999
0.460996
0.187188
0.0672203
0.021835
0.00654291
0.00183676
0.000489188
0.000124958
3.08964e-05
7.45835e-06
1.77064e-06
4.15374e-07
9.67257e-08
2.23842e-08
5.24908e-09
0.999821
0.981266
0.854072
0.465366
0.1899
0.0682822
0.0221487
0.00661706
0.00185012
0.000490333
0.000124496
3.05686e-05
7.31569e-06
1.71695e-06
3.96984e-07
9.07278e-08
2.04816e-08
4.65985e-09
0.999824
0.981311
0.853215
0.463459
0.18895
0.0678945
0.0220025
0.00656276
0.00183029
0.000483332
0.000122129
2.97818e-05
7.05947e-06
1.6367e-06
3.72643e-07
8.35257e-08
1.84244e-08
4.08273e-09
0.999836
0.982521
0.863004
0.479766
0.195481
0.0700254
0.0225908
0.00670216
0.00185794
0.00048735
0.000122201
2.95314e-05
6.92533e-06
1.58424e-06
3.54805e-07
7.7965e-08
1.68008e-08
3.62475e-09
0.999831
0.981922
0.857434
0.469413
0.190871
0.0683299
0.0220321
0.00652777
0.00180479
0.000471337
0.000117431
2.81383e-05
6.52655e-06
1.47297e-06
3.24641e-07
7.00174e-08
1.47735e-08
3.1149e-09
0.999831
0.981856
0.857552
0.470624
0.191832
0.06873
0.0221395
0.00654256
0.00180197
0.00046827
0.000115917
2.75504e-05
6.32746e-06
1.4112e-06
3.06704e-07
6.50974e-08
1.34942e-08
2.79148e-09
0.999827
0.981589
0.855617
0.467168
0.190163
0.0680481
0.0218806
0.00644705
0.00176721
0.000456102
0.00011194
2.63313e-05
5.97304e-06
1.31282e-06
2.8054e-07
5.84193e-08
1.18599e-08
2.39941e-09
0.999844
0.982897
0.864343
0.480796
0.195137
0.0694604
0.0221809
0.00648408
0.00176174
0.000450119
0.000109182
2.53355e-05
5.65841e-06
1.22205e-06
2.56124e-07
5.22256e-08
1.03705e-08
2.0507e-09
0.999843
0.982741
0.863128
0.47888
0.194246
0.0690097
0.0219543
0.00638007
0.00171975
0.000435149
0.000104331
2.38813e-05
5.25035e-06
1.11398e-06
2.28955e-07
4.57158e-08
8.88105e-09
1.71719e-09
0.999845
0.982907
0.864545
0.481961
0.19571
0.0694091
0.0219873
0.00634649
0.00169512
0.000424005
0.00010027
2.259e-05
4.87859e-06
1.01503e-06
2.04279e-07
3.98997e-08
7.57857e-09
1.43248e-09
0.999865
0.984095
0.870876
0.490377
0.197436
0.0693329
0.0217288
0.00620085
0.00163599
0.000403731
9.40658e-05
2.08491e-05
4.42355e-06
9.03084e-07
1.7817e-07
3.40943e-08
6.34357e-09
1.17463e-09
0.999838
0.982527
0.86235
0.477501
0.192902
0.0679034
0.0212679
0.0060438
0.00158243
0.000386416
8.88769e-05
1.94083e-05
4.05057e-06
8.12399e-07
1.57326e-07
2.95377e-08
5.39206e-09
9.79772e-10
0.999839
0.982478
0.861529
0.475689
0.191626
0.0671782
0.0209436
0.00592223
0.00154208
0.000374155
8.54027e-05
1.84867e-05
3.82096e-06
7.58449e-07
1.45294e-07
2.69767e-08
4.8698e-09
8.75081e-10
0.999845
0.98322
0.867468
0.486386
0.19613
0.0686715
0.0213395
0.00600447
0.00155389
0.000374384
8.48064e-05
1.82103e-05
3.73232e-06
7.34443e-07
1.39459e-07
2.5666e-08
4.59324e-09
8.1841e-10
0.999829
0.982161
0.860918
0.475766
0.191943
0.0672638
0.0209123
0.00588263
0.00152051
0.000365566
8.25745e-05
1.76704e-05
3.60773e-06
7.0698e-07
1.3366e-07
2.4489e-08
4.36301e-09
7.73938e-10
0.999834
0.981874
0.85675
0.467412
0.188192
0.0659358
0.0205083
0.00577037
0.001491
0.000358127
8.0769e-05
1.72482e-05
3.51233e-06
6.86185e-07
1.29296e-07
2.36065e-08
4.19086e-09
7.40763e-10
0.999825
0.981693
0.857438
0.470784
0.190593
0.0669735
0.0208421
0.00585709
0.00150985
0.00036156
8.12652e-05
1.72918e-05
3.50862e-06
6.83064e-07
1.28271e-07
2.33431e-08
4.13125e-09
7.28066e-10
0.999847
0.983746
0.872634
0.497296
0.20132
0.0704829
0.0218225
0.00610031
0.0015649
0.000373097
8.35244e-05
1.77074e-05
3.58074e-06
6.94931e-07
1.30121e-07
2.36154e-08
4.16873e-09
7.32877e-10
0.999854
0.984185
0.875413
0.5029
0.204107
0.0715285
0.0221344
0.00617769
0.00158136
0.000376125
8.39938e-05
1.77626e-05
3.58293e-06
6.93596e-07
1.29544e-07
2.34527e-08
4.13013e-09
7.24413e-10
0.999853
0.983923
0.872497
0.496784
0.201358
0.0705399
0.0218245
0.00608929
0.00155791
0.000370283
8.26228e-05
1.74581e-05
3.51863e-06
6.80623e-07
1.27029e-07
2.2982e-08
4.04475e-09
7.09036e-10
0.999864
0.985501
0.884527
0.521025
0.211961
0.0741188
0.02284
0.00634511
0.00161717
0.000383158
8.5275e-05
1.79802e-05
3.61744e-06
6.98687e-07
1.30233e-07
2.35355e-08
4.13816e-09
7.24792e-10
0.999853
0.984685
0.879485
0.511855
0.20842
0.0729816
0.0225031
0.00625147
0.00159278
0.000377187
8.38977e-05
1.76799e-05
3.55527e-06
6.86406e-07
1.27908e-07
2.31113e-08
4.06339e-09
7.11751e-10
0.999857
0.983425
0.860779
0.459888
0.173122
0.0560544
0.0160614
0.004163
0.000991705
0.000219857
4.58169e-05
9.04908e-06
1.70566e-06
3.08675e-07
5.39127e-08
9.12972e-09
1.50437e-09
2.46777e-10
3.77931e-53
6.81349e-51
2.44999e-50
1.74304e-50
4.12602e-51
6.66922e-52
9.65198e-53
1.27449e-53
1.54131e-54
1.71626e-55
1.7706e-56
1.70243e-57
1.53347e-58
1.29977e-59
1.0406e-60
7.89515e-62
5.69293e-63
3.91127e-64
2.56622e-65
1.61124e-66
9.69919e-68
5.60754e-69
3.11867e-70
1.67101e-71
8.6379e-73
4.31353e-74
2.0835e-75
9.74549e-77
4.41923e-78
1.94484e-79
8.3148e-81
3.45676e-82
1.39873e-83
5.51344e-85
2.11884e-86
7.94525e-88
2.90924e-89
1.04095e-90
3.6422e-92
1.247e-93
4.18039e-95
1.37302e-96
4.42083e-98
1.39616e-99
4.32714e-101
1.31681e-102
3.93645e-104
1.1565e-105
3.34067e-107
9.49163e-109
2.65357e-110
7.30221e-112
1.97859e-113
5.28033e-115
1.38832e-116
3.59708e-118
9.18623e-120
2.3128e-121
5.7415e-123
1.40562e-124
3.39407e-126
8.08413e-128
1.89953e-129
4.40346e-131
1.00717e-132
2.273e-134
5.06171e-136
1.11228e-137
2.41189e-139
5.16108e-141
1.08985e-142
2.27116e-144
4.67071e-146
9.47935e-148
1.89863e-149
3.75293e-151
7.32111e-153
1.40949e-154
2.67816e-156
5.02229e-158
9.29537e-160
1.69801e-161
3.06145e-163
5.44803e-165
9.56939e-167
1.65909e-168
2.83927e-170
4.79625e-172
7.99766e-174
1.31643e-175
2.13902e-177
3.43092e-179
5.4325e-181
8.49114e-183
1.31166e-184
2.00516e-186
3.03344e-188
4.5412e-190
6.72735e-192
9.86165e-194
1.43047e-195
2.05319e-197
2.91603e-199
4.09795e-201
5.69832e-203
7.84029e-205
1.06738e-206
1.43782e-208
1.91642e-210
2.52741e-212
3.29807e-214
4.25835e-216
5.4403e-218
6.87711e-220
8.60186e-222
1.0646e-223
1.30372e-225
1.57978e-227
1.8942e-229
2.24738e-231
2.63847e-233
3.0652e-235
3.52374e-237
4.00862e-239
4.51271e-241
5.02738e-243
5.54263e-245
6.04742e-247
6.53003e-249
6.97851e-251
7.38117e-253
7.7271e-255
8.00666e-257
8.21194e-259
8.33715e-261
8.37886e-263
8.33621e-265
8.21091e-267
8.00714e-269
7.73133e-271
7.39183e-273
6.99847e-275
6.56213e-277
6.09423e-279
5.60625e-281
5.10928e-283
4.61362e-285
4.12848e-287
3.66174e-289
3.21984e-291
2.80768e-293
2.42866e-295
2.08478e-297
1.77678e-299
1.5043e-301
1.2661e-303
1.06023e-305
8.84256e-308
7.35416e-310
6.10796e-312
5.07451e-314
4.22495e-316
3.49146e-318
1.80927e-320
0
0
0
0
0
0
0
0
0
0
0
0
0
0
0
0
2.6036e-50
4.69517e-48
1.91041e-47
1.49286e-47
3.74535e-48
6.0163e-49
8.7535e-50
1.16663e-50
1.42527e-51
1.60302e-52
1.66975e-53
1.6203e-54
1.47241e-55
1.25864e-56
1.01597e-57
7.76978e-59
5.64615e-60
3.90866e-61
2.58367e-62
1.63413e-63
9.90836e-65
5.76957e-66
3.23159e-67
1.74372e-68
9.0769e-70
4.56433e-71
2.21993e-72
1.04553e-73
4.77371e-75
2.11524e-76
9.10518e-78
3.81116e-79
1.55262e-80
6.16154e-82
2.38393e-83
8.99962e-85
3.31749e-86
1.195e-87
4.20923e-89
1.45078e-90
4.89602e-92
1.6188e-93
5.24696e-95
1.66813e-96
5.20467e-98
1.59449e-99
4.79873e-101
1.41942e-102
4.12826e-104
1.18108e-105
3.32517e-107
9.21586e-109
2.51532e-110
6.76281e-112
1.7917e-113
4.67866e-115
1.2045e-116
3.05783e-118
7.65646e-120
1.89115e-121
4.60861e-123
1.1082e-124
2.62978e-126
6.15902e-128
1.42373e-129
3.24861e-131
7.31714e-133
1.62696e-134
3.57121e-136
7.73876e-138
1.65558e-139
3.49674e-141
7.29143e-143
1.50109e-144
3.05104e-146
6.12272e-148
1.21311e-149
2.37316e-151
4.58384e-153
8.74209e-155
1.64625e-156
3.06115e-158
5.62069e-160
1.01912e-161
1.82477e-163
3.22663e-165
5.63466e-167
9.71802e-169
1.65538e-170
2.78511e-172
4.62841e-174
7.59776e-176
1.23203e-177
1.97358e-179
3.12416e-181
4.89401e-183
7.5865e-185
1.16374e-186
1.76644e-188
2.65318e-190
3.94323e-192
5.79893e-194
8.43821e-196
1.21495e-197
1.73086e-199
2.43987e-201
3.40304e-203
4.69635e-205
6.41279e-207
8.66417e-209
1.15824e-210
1.53202e-212
2.00504e-214
2.59644e-216
3.32683e-218
4.21776e-220
5.29098e-222
6.56742e-224
8.06608e-226
9.80266e-228
1.17881e-229
1.4027e-231
1.65165e-233
1.92445e-235
2.21891e-237
2.53176e-239
2.85868e-241
3.19432e-243
3.5324e-245
3.86592e-247
4.18735e-249
4.48892e-251
4.76293e-253
5.00212e-255
5.19992e-257
5.35083e-259
5.45064e-261
5.49665e-263
5.48778e-265
5.42463e-267
5.30943e-269
5.14592e-271
4.93916e-273
4.69525e-275
4.42108e-277
4.12397e-279
3.81139e-281
3.49065e-283
3.16862e-285
2.85156e-287
2.54487e-289
2.25306e-291
1.97966e-293
1.72722e-295
1.49737e-297
1.29085e-299
1.10769e-301
9.47254e-304
8.08423e-306
6.89693e-308
5.89304e-310
5.05344e-312
4.35843e-314
3.78814e-316
3.34146e-318
1.78753e-320
0
0
0
0
0
0
0
0
0
0
0
0
0
0
8.73215e-48
1.56444e-45
7.1509e-45
6.17813e-45
1.65152e-45
2.62826e-46
3.84434e-47
5.17321e-48
6.38657e-49
7.2566e-50
7.63195e-51
7.47355e-52
6.85009e-53
5.90365e-54
4.80283e-55
3.7008e-56
2.70895e-57
1.88864e-58
1.25706e-59
8.00459e-61
4.88582e-62
2.86363e-63
1.61432e-64
8.76629e-66
4.59212e-67
2.3236e-68
1.13712e-69
5.38844e-71
2.47524e-72
1.1034e-73
4.778e-75
2.01176e-76
8.24357e-78
3.29038e-79
1.28034e-80
4.86072e-82
1.80177e-83
6.52584e-85
2.31107e-86
8.00792e-88
2.71664e-89
9.02849e-91
2.9412e-92
9.39734e-94
2.94639e-95
9.06999e-97
2.74264e-98
8.15044e-100
2.38145e-101
6.84439e-103
1.93571e-104
5.38919e-106
1.47755e-107
3.99065e-109
1.0621e-110
2.78629e-112
7.2069e-114
1.83837e-115
4.62565e-117
1.14829e-118
2.81282e-120
6.79993e-122
1.62254e-123
3.82169e-125
8.8864e-127
2.04002e-128
4.62385e-130
1.03479e-131
2.28664e-133
4.98934e-135
1.07498e-136
2.28702e-138
4.80462e-140
9.96707e-142
2.04173e-143
4.13004e-145
8.24967e-147
1.62723e-148
3.16953e-150
6.09648e-152
1.15801e-153
2.17218e-155
4.02385e-157
7.36142e-159
1.33004e-160
2.37338e-162
4.18291e-164
7.2814e-166
1.25196e-167
2.1263e-169
3.56723e-171
5.91191e-173
9.679e-175
1.56552e-176
2.5022e-178
3.95774e-180
6.19476e-182
9.59498e-184
1.47061e-185
2.2304e-187
3.34726e-189
4.97069e-191
7.30397e-193
1.06197e-194
1.52784e-196
2.17496e-198
3.06359e-200
4.26988e-202
5.8885e-204
8.03522e-206
1.08491e-207
1.44943e-209
1.91604e-211
2.50621e-213
3.24368e-215
4.15401e-217
5.26392e-219
6.60033e-221
8.18915e-223
1.00539e-224
1.22139e-226
1.46826e-228
1.74657e-230
2.05595e-232
2.39488e-234
2.76065e-236
3.14921e-238
3.5552e-240
3.97198e-242
4.39179e-244
4.80596e-246
5.20519e-248
5.57985e-250
5.92047e-252
6.21802e-254
6.46444e-256
6.65291e-258
6.77825e-260
6.83711e-262
6.82817e-264
6.75216e-266
6.61181e-268
6.41174e-270
6.15813e-272
5.85851e-274
5.5213e-276
5.15552e-278
4.77031e-280
4.37464e-282
3.97694e-284
3.58485e-286
3.20502e-288
2.84298e-290
2.50305e-292
2.1884e-294
1.90102e-296
1.64189e-298
1.41108e-300
1.20788e-302
1.031e-304
8.78684e-307
7.48863e-309
6.39295e-311
5.47664e-313
4.71676e-315
4.08998e-317
3.56957e-319
0
0
0
0
0
0
0
0
0
0
0
0
0
1.90741e-45
3.37426e-43
1.71967e-42
1.65585e-42
4.70425e-43
7.4376e-44
1.09478e-44
1.48869e-45
1.85843e-46
2.13427e-47
2.26717e-48
2.24085e-49
2.07185e-50
1.80028e-51
1.47603e-52
1.14584e-53
8.44777e-55
5.93072e-56
3.97427e-57
2.54756e-58
1.56516e-59
9.23285e-61
5.23813e-62
2.8625e-63
1.50892e-64
7.68281e-66
3.78315e-67
1.80378e-68
8.33674e-70
3.73897e-71
1.62888e-72
6.89957e-74
2.8441e-75
1.14192e-76
4.46943e-78
1.70662e-79
6.3623e-81
2.31739e-82
8.25264e-84
2.87528e-85
9.80699e-87
3.27662e-88
1.07301e-89
3.44598e-91
1.0859e-92
3.35937e-94
1.02079e-95
3.0481e-97
8.94826e-99
2.58378e-100
7.34108e-102
2.05317e-103
5.65477e-105
1.5342e-106
4.10179e-108
1.08098e-109
2.80896e-111
7.19885e-113
1.82002e-114
4.54018e-116
1.11773e-117
2.71605e-119
6.51532e-121
1.54305e-122
3.60842e-124
8.33251e-126
1.90014e-127
4.27921e-129
9.51759e-131
2.09066e-132
4.53567e-134
9.71853e-136
2.05667e-137
4.29863e-139
8.87354e-141
1.8091e-142
3.64274e-144
7.2442e-146
1.42282e-147
2.75999e-149
5.2877e-151
1.00053e-152
1.86985e-154
3.45145e-156
6.29247e-158
1.13313e-159
2.0155e-161
3.54119e-163
6.14593e-165
1.0537e-166
1.78462e-168
2.98605e-170
4.93609e-172
8.0616e-174
1.30119e-175
2.07843e-177
3.28544e-179
5.13936e-181
7.95562e-183
1.21866e-184
1.84728e-186
2.77089e-188
4.11281e-190
6.04071e-192
8.77943e-194
1.26262e-195
1.79681e-197
2.53022e-199
3.52564e-201
4.86117e-203
6.63235e-205
8.95401e-207
1.19617e-208
1.58121e-210
2.0683e-212
2.67708e-214
3.42878e-216
4.34557e-218
5.44986e-220
6.7633e-222
8.30557e-224
1.0093e-225
1.21372e-227
1.44434e-229
1.70088e-231
1.98217e-233
2.286e-235
2.6091e-237
2.94707e-239
3.29449e-241
3.64496e-243
3.99133e-245
4.32589e-247
4.64071e-249
4.92786e-251
5.17987e-253
5.38995e-255
5.55239e-257
5.66279e-259
5.71828e-261
5.71764e-263
5.66136e-265
5.5516e-267
5.39206e-269
5.1878e-271
4.94497e-273
4.67052e-275
4.37188e-277
4.05666e-279
3.73229e-281
3.40582e-283
3.08365e-285
2.77138e-287
2.4737e-289
2.19428e-291
1.93584e-293
1.70015e-295
1.48808e-297
1.29976e-299
1.13464e-301
9.91643e-304
8.69293e-306
7.65819e-308
6.7927e-310
6.0761e-312
5.48791e-314
5.008e-316
4.57742e-318
1.7564e-320
0
0
0
0
0
0
0
0
0
0
0
3.05555e-43
5.29304e-41
2.98542e-40
3.23585e-40
9.6769e-41
1.53161e-41
2.27289e-42
3.12646e-43
3.94975e-44
4.58724e-45
4.9235e-46
4.91272e-47
4.58218e-48
4.01418e-49
3.31652e-50
2.59343e-51
1.9254e-52
1.36087e-53
9.17944e-55
5.92214e-56
3.66156e-57
2.17355e-58
1.24084e-59
6.82302e-61
3.61894e-62
1.85401e-63
9.18587e-65
4.40675e-66
2.04925e-67
9.24715e-69
4.05316e-70
1.72729e-71
7.16331e-73
2.89344e-74
1.13926e-75
4.37597e-77
1.64096e-78
6.01178e-80
2.15321e-81
7.54448e-83
2.58767e-84
8.69332e-86
2.86228e-87
9.24126e-89
2.92737e-90
9.1028e-92
2.77998e-93
8.34231e-95
2.46099e-96
7.14015e-98
2.03827e-99
5.72732e-101
1.58469e-102
4.31921e-104
1.16005e-105
3.07121e-107
8.01735e-109
2.06425e-110
5.24347e-112
1.31431e-113
3.25154e-115
7.94097e-117
1.91478e-118
4.55915e-120
1.07206e-121
2.48976e-123
5.71131e-125
1.29412e-126
2.89663e-128
6.40471e-130
1.39894e-131
3.01854e-133
6.4341e-135
1.35479e-136
2.81801e-138
5.79021e-140
1.17523e-141
2.35626e-143
4.6665e-145
9.129e-147
1.76408e-148
3.36726e-150
6.34891e-152
1.18247e-153
2.17548e-155
3.95367e-157
7.09799e-159
1.25884e-160
2.20554e-162
3.81755e-164
6.52819e-166
1.10294e-167
1.84111e-169
3.03662e-171
4.9506e-173
7.98757e-175
1.27541e-176
2.0154e-178
3.15166e-180
4.87732e-182
7.46934e-184
1.13199e-185
1.69767e-187
2.51954e-189
3.70033e-191
5.37786e-193
7.73445e-195
1.10078e-196
1.55031e-198
2.16066e-200
2.9799e-202
4.06693e-204
5.49263e-206
7.34078e-208
9.70852e-210
1.27061e-211
1.6456e-213
2.10904e-215
2.67484e-217
3.3571e-219
4.16952e-221
5.12469e-223
6.23318e-225
7.50269e-227
8.93703e-229
1.05352e-230
1.22907e-232
1.41904e-234
1.62147e-236
1.8337e-238
2.0524e-240
2.27364e-242
2.493e-244
2.70568e-246
2.90672e-248
3.09116e-250
3.25424e-252
3.39167e-254
3.49976e-256
3.57563e-258
3.61735e-260
3.62399e-262
3.59569e-264
3.53364e-266
3.43998e-268
3.31771e-270
3.17053e-272
3.00265e-274
2.8186e-276
2.623e-278
2.42043e-280
2.21523e-282
2.01132e-284
1.81219e-286
1.62072e-288
1.43924e-290
1.26946e-292
1.11254e-294
9.69122e-297
8.3938e-299
7.23121e-301
6.19852e-303
5.28852e-305
4.49248e-307
3.80077e-309
3.20335e-311
2.69022e-313
2.25175e-315
1.87834e-317
1.578e-319
0
0
0
0
0
0
0
0
0
0
3.82783e-41
6.42422e-39
3.98319e-38
4.91044e-38
1.52832e-38
2.4438e-39
3.6646e-40
5.10555e-41
6.53312e-42
7.67793e-43
8.32945e-44
8.39196e-45
7.89646e-46
6.97371e-47
5.80506e-48
4.57152e-49
3.41681e-50
2.43063e-51
1.64985e-52
1.07097e-53
6.66192e-55
3.97851e-56
2.28495e-57
1.26401e-58
6.74481e-60
3.47637e-61
1.73287e-62
8.36388e-64
3.91322e-65
1.77666e-66
7.83518e-68
3.35954e-69
1.4018e-70
5.69684e-72
2.25673e-73
8.72082e-75
3.28994e-76
1.21249e-77
4.36838e-79
1.53956e-80
5.31102e-82
1.79441e-83
5.94129e-85
1.92883e-86
6.14317e-88
1.92045e-89
5.89577e-91
1.77834e-92
5.27263e-94
1.53735e-95
4.41004e-97
1.24513e-98
3.46147e-100
9.4787e-102
2.55763e-103
6.80259e-105
1.78402e-106
4.61472e-108
1.17769e-109
2.96599e-111
7.37322e-113
1.80961e-114
4.38562e-116
1.04969e-117
2.48161e-119
5.79554e-121
1.33715e-122
3.04802e-124
6.86482e-126
1.52766e-127
3.35905e-129
7.29797e-131
1.56668e-132
3.32311e-134
6.96452e-136
1.44214e-137
2.95044e-139
5.96375e-141
1.19096e-142
2.34969e-144
4.5799e-146
8.81917e-148
1.67774e-149
3.15316e-151
5.85455e-153
1.07392e-154
1.94618e-156
3.48449e-158
6.16379e-160
1.07726e-161
1.86023e-163
3.17397e-165
5.35108e-167
8.91459e-169
1.4683e-170
2.3935e-172
3.86147e-174
6.16544e-176
9.74237e-178
1.52353e-179
2.35788e-181
3.61139e-183
5.47405e-185
8.21154e-187
1.21905e-188
1.79101e-190
2.6041e-192
3.74712e-194
5.33605e-196
7.52008e-198
1.04883e-199
1.44768e-201
1.9775e-203
2.67327e-205
3.57643e-207
4.73517e-209
6.20442e-211
8.04537e-213
1.03245e-214
1.31122e-216
1.64801e-218
2.04987e-220
2.52334e-222
3.07405e-224
3.70625e-226
4.42232e-228
5.2223e-230
6.10346e-232
7.05992e-234
8.0824e-236
9.15815e-238
1.0271e-239
1.14017e-241
1.25282e-243
1.36268e-245
1.46723e-247
1.56396e-249
1.65046e-251
1.7245e-253
1.78416e-255
1.82791e-257
1.8547e-259
1.86397e-261
1.85573e-263
1.8305e-265
1.78932e-267
1.73368e-269
1.66547e-271
1.58683e-273
1.50012e-275
1.40778e-277
1.31223e-279
1.21582e-281
1.12068e-283
1.02873e-285
9.41584e-288
8.60553e-290
7.86613e-292
7.20416e-294
6.62306e-296
6.1234e-298
5.70322e-300
5.35841e-302
5.08306e-304
4.86988e-306
4.71059e-308
4.59622e-310
4.5175e-312
4.46511e-314
4.42987e-316
4.37496e-318
3.45105e-320
0
0
0
0
0
0
0
0
3.90077e-39
6.26282e-37
4.2492e-36
6.00564e-36
1.93109e-36
3.14272e-37
4.77266e-38
6.74367e-39
8.7489e-40
1.04111e-40
1.14203e-41
1.16197e-42
1.103e-43
9.81874e-45
8.23292e-46
6.52737e-47
4.90978e-48
3.51399e-49
2.39931e-50
1.56649e-51
9.80015e-53
5.8861e-54
3.39989e-55
1.89162e-56
1.01525e-57
5.26343e-59
2.63923e-60
1.28148e-61
6.03189e-63
2.75523e-64
1.22252e-65
5.27413e-67
2.21426e-68
9.05427e-70
3.60889e-71
1.40321e-72
5.32612e-74
1.9749e-75
7.15837e-77
2.53802e-78
8.80749e-80
2.99326e-81
9.96818e-83
3.25466e-84
1.04243e-85
3.27683e-87
1.01146e-88
3.06716e-90
9.14157e-92
2.67915e-93
7.72419e-95
2.19166e-96
6.1226e-98
1.68465e-99
4.56727e-101
1.22049e-102
3.21582e-104
8.35728e-106
2.14282e-107
5.42221e-109
1.35439e-110
3.34032e-112
8.13579e-114
1.95729e-115
4.65177e-117
1.09231e-118
2.53445e-120
5.81118e-122
1.31678e-123
2.94883e-125
6.52651e-127
1.42761e-128
3.08628e-130
6.59403e-132
1.39234e-133
2.90543e-135
5.99144e-137
1.22094e-138
2.4586e-140
4.89213e-142
9.61867e-144
1.86866e-145
3.58705e-147
6.80347e-149
1.27499e-150
2.36086e-152
4.31935e-154
7.80834e-156
1.39475e-157
2.46175e-159
4.29346e-161
7.39947e-163
1.26019e-164
2.12095e-166
3.53018e-168
5.81552e-170
9.482e-172
1.53013e-173
2.44383e-175
3.86301e-177
6.04357e-179
9.35782e-181
1.43407e-182
2.17511e-184
3.26519e-186
4.85125e-188
7.13378e-190
1.03826e-191
1.49559e-193
2.13228e-195
3.00883e-197
4.20216e-199
5.80859e-201
7.94676e-203
1.07604e-204
1.44208e-206
1.91279e-208
2.51109e-210
3.26267e-212
4.19563e-214
5.33993e-216
6.72647e-218
8.38593e-220
1.03473e-221
1.26363e-223
1.52731e-225
1.82706e-227
2.16323e-229
2.53501e-231
2.9403e-233
3.37555e-235
3.83575e-237
4.31439e-239
4.80358e-241
5.29424e-243
5.77634e-245
6.23926e-247
6.67221e-249
7.06464e-251
7.40668e-253
7.68966e-255
7.90641e-257
8.05164e-259
8.12218e-261
8.11707e-263
8.0376e-265
7.88721e-267
7.67125e-269
7.39672e-271
7.07189e-273
6.70587e-275
6.30823e-277
5.88859e-279
5.45619e-281
5.01967e-283
4.58675e-285
4.16407e-287
3.75712e-289
3.37019e-291
3.00642e-293
2.66789e-295
2.35571e-297
2.07019e-299
1.811e-301
1.5773e-303
1.36788e-305
1.18127e-307
1.01588e-309
8.70045e-312
7.4209e-314
6.30347e-316
5.30228e-318
3.44512e-320
0
0
0
0
0
0
0
3.31757e-37
5.02517e-35
3.72474e-34
6.0658e-34
2.00823e-34
3.34715e-35
5.15691e-36
7.39966e-37
9.7425e-38
1.17463e-38
1.30327e-39
1.33926e-40
1.28242e-41
1.15045e-42
9.71377e-44
7.75066e-45
5.86462e-46
4.22109e-47
2.89781e-48
1.90205e-49
1.19624e-50
7.2229e-52
4.19435e-53
2.34629e-54
1.26621e-55
6.60136e-57
3.32901e-58
1.62579e-59
7.69774e-61
3.53721e-62
1.579e-63
6.85375e-65
2.8952e-66
1.19122e-67
4.7776e-69
1.86922e-70
7.13922e-72
2.66367e-73
9.71479e-75
3.46562e-76
1.21e-77
4.13714e-79
1.38601e-80
4.55215e-82
1.46649e-83
4.63634e-85
1.43918e-86
4.3884e-88
1.31507e-89
3.87471e-91
1.12297e-92
3.2027e-94
8.99219e-96
2.48651e-97
6.77417e-99
1.81897e-100
4.81564e-102
1.25744e-103
3.2394e-105
8.236e-107
2.0671e-108
5.12288e-110
1.25392e-111
3.03193e-113
7.24333e-115
1.70999e-116
3.98966e-118
9.2005e-120
2.09726e-121
4.72583e-123
1.0527e-124
2.31813e-126
5.04634e-128
1.08596e-129
2.31014e-131
4.85779e-133
1.00971e-134
2.07441e-136
4.21228e-138
8.45368e-140
1.67674e-141
3.28671e-143
6.36683e-145
1.21882e-146
2.30572e-148
4.31041e-150
7.96294e-152
1.4537e-153
2.62254e-155
4.67549e-157
8.23751e-159
1.4343e-160
2.46813e-162
4.19762e-164
7.06217e-166
1.17604e-167
1.93844e-169
3.16245e-171
5.1067e-173
8.1621e-175
1.29125e-176
2.02194e-178
3.13386e-180
4.80782e-182
7.30092e-184
1.09741e-185
1.63279e-187
2.40471e-189
3.50563e-191
5.05875e-193
7.22597e-195
1.0217e-196
1.42998e-198
1.9811e-200
2.7168e-202
3.68791e-204
4.95531e-206
6.59065e-208
8.67657e-210
1.13065e-211
1.45836e-213
1.86189e-215
2.35287e-217
2.94299e-219
3.64358e-221
4.46494e-223
5.41565e-225
6.50183e-227
7.72633e-229
9.08799e-231
1.0581e-232
1.21943e-234
1.39113e-236
1.571e-238
1.75629e-240
1.94378e-242
2.12987e-244
2.31068e-246
2.48224e-248
2.64059e-250
2.78202e-252
2.90318e-254
3.00131e-256
3.0743e-258
3.12089e-260
3.14065e-262
3.13406e-264
3.1025e-266
3.04815e-268
2.97393e-270
2.88336e-272
2.7804e-274
2.6693e-276
2.55443e-278
2.44007e-280
2.33033e-282
2.22895e-284
2.13919e-286
2.06377e-288
2.00478e-290
1.96364e-292
1.94106e-294
1.93708e-296
1.95108e-298
1.98179e-300
2.02739e-302
2.08552e-304
2.15342e-306
2.22795e-308
2.30573e-310
2.38318e-312
2.45667e-314
2.5226e-316
2.53462e-318
1.69613e-320
0
0
0
0
0
2.39572e-35
3.37568e-33
2.73756e-32
5.14624e-32
1.75468e-32
3.01207e-33
4.71299e-34
6.87556e-35
9.19514e-36
1.12384e-36
1.2615e-37
1.30928e-38
1.26447e-39
1.14281e-40
9.71291e-42
7.79594e-43
5.93103e-44
4.29073e-45
2.96008e-46
1.95225e-47
1.23368e-48
7.4848e-50
4.36771e-51
2.45549e-52
1.33195e-53
6.98076e-55
3.53944e-56
1.73819e-57
8.27686e-59
3.8255e-60
1.71784e-61
7.50148e-63
3.18823e-64
1.31991e-65
5.32684e-67
2.0972e-68
8.06052e-70
3.02641e-71
1.11074e-72
3.98734e-74
1.40087e-75
4.81952e-77
1.62456e-78
5.36819e-80
1.7398e-81
5.53308e-83
1.72759e-84
5.29816e-86
1.59668e-87
4.73055e-89
1.37847e-90
3.95241e-92
1.11553e-93
3.10052e-95
8.48965e-97
2.29095e-98
6.09496e-100
1.59922e-101
4.13979e-103
1.05759e-104
2.66722e-106
6.64233e-108
1.63387e-109
3.9705e-111
9.53448e-113
2.26281e-114
5.30839e-116
1.2311e-117
2.82282e-119
6.39972e-121
1.43465e-122
3.18016e-124
6.97063e-126
1.51081e-127
3.2378e-129
6.86086e-131
1.43739e-132
2.9773e-134
6.0967e-136
1.23416e-137
2.46964e-139
4.88495e-141
9.55066e-143
1.84561e-144
3.52506e-146
6.65435e-148
1.24151e-149
2.28929e-151
4.17211e-153
7.51484e-155
1.33782e-156
2.35398e-158
4.09392e-160
7.03772e-162
1.1972e-163
2.01594e-165
3.36018e-167
5.544e-169
9.05443e-171
1.4638e-172
2.34256e-174
3.71101e-176
5.81964e-178
9.03457e-180
1.38846e-181
2.11242e-183
3.18167e-185
4.74418e-187
7.0033e-189
1.02349e-190
1.48083e-192
2.12115e-194
3.00801e-196
4.22306e-198
5.86968e-200
8.07677e-202
1.10026e-203
1.48381e-205
1.981e-207
2.61823e-209
3.42565e-211
4.43694e-213
5.68886e-215
7.22042e-217
9.07175e-219
1.12825e-220
1.38901e-222
1.69274e-224
2.04201e-226
2.43843e-228
2.88238e-230
3.37277e-232
3.90683e-234
4.47998e-236
5.08575e-238
5.71583e-240
6.36017e-242
7.00728e-244
7.64452e-246
8.2586e-248
8.83605e-250
9.3638e-252
9.82973e-254
1.02233e-255
1.05357e-257
1.07609e-259
1.08953e-261
1.09379e-263
1.08908e-265
1.07586e-267
1.05483e-269
1.02687e-271
9.93055e-274
9.54532e-276
9.12525e-278
8.68263e-280
8.22943e-282
7.77691e-284
7.33536e-286
6.91381e-288
6.51993e-290
6.15992e-292
5.83851e-294
5.55893e-296
5.32299e-298
5.13115e-300
4.98257e-302
4.87525e-304
4.80605e-306
4.77085e-308
4.76465e-310
4.78165e-312
4.8154e-314
4.85899e-316
4.87001e-318
3.38534e-320
0
0
0
0
1.48677e-33
1.92347e-31
1.71397e-30
3.71345e-30
1.30872e-30
2.32592e-31
3.6969e-32
5.4881e-33
7.46044e-34
9.24615e-35
1.05005e-35
1.10051e-36
1.07164e-37
9.75361e-39
8.34028e-40
6.73027e-41
5.14522e-42
3.73907e-43
2.59061e-44
1.71577e-45
1.0888e-46
6.63391e-48
3.8881e-49
2.19575e-50
1.19665e-51
6.30227e-53
3.21164e-54
1.58551e-55
7.59096e-57
3.52819e-58
1.59348e-59
6.99954e-61
2.99285e-62
1.24663e-63
5.0624e-65
2.00563e-66
7.75747e-68
2.93119e-69
1.08267e-70
3.91145e-72
1.38298e-73
4.78821e-75
1.62421e-76
5.40066e-78
1.76118e-79
5.63545e-81
1.7702e-82
5.46121e-84
1.65547e-85
4.93303e-87
1.44561e-88
4.16793e-90
1.18277e-91
3.30496e-93
9.09689e-95
2.46745e-96
6.59781e-98
1.73982e-99
4.52603e-101
1.16195e-102
2.94477e-104
7.36963e-106
1.82176e-107
4.4494e-109
1.07393e-110
2.56217e-112
6.04325e-114
1.40939e-115
3.25043e-117
7.41376e-119
1.67245e-120
3.73163e-122
8.23539e-124
1.79766e-125
3.8811e-127
8.28732e-129
1.7501e-130
3.65493e-132
7.54803e-134
1.54135e-135
3.11213e-137
6.21262e-139
1.22611e-140
2.39224e-142
4.61403e-144
8.79716e-146
1.65799e-147
3.0888e-149
5.68806e-151
1.0354e-152
1.86303e-154
3.31369e-156
5.82628e-158
1.0127e-159
1.7425e-161
2.96804e-163
5.00466e-165
8.35394e-167
1.38047e-168
2.25833e-170
3.65749e-172
5.86441e-174
9.30942e-176
1.46315e-177
2.27684e-179
3.50804e-181
5.35174e-183
8.08408e-185
1.20915e-186
1.7908e-188
2.62626e-190
3.81376e-192
5.48398e-194
7.80841e-196
1.10091e-197
1.53695e-199
2.12463e-201
2.90813e-203
3.94133e-205
5.28888e-207
7.02696e-209
9.24368e-211
1.20389e-212
1.55233e-214
1.98166e-216
2.50445e-218
3.13351e-220
3.8813e-222
4.75936e-224
5.77757e-226
6.94332e-228
8.26076e-230
9.72996e-232
1.13462e-233
1.30996e-235
1.49745e-237
1.69497e-239
1.89985e-241
2.10896e-243
2.31878e-245
2.52555e-247
2.72542e-249
2.91464e-251
3.08975e-253
3.24773e-255
3.38624e-257
3.50375e-259
3.59963e-261
3.67429e-263
3.72918e-265
3.76679e-267
3.79059e-269
3.80493e-271
3.81492e-273
3.82623e-275
3.84491e-277
3.87721e-279
3.92928e-281
4.00704e-283
4.11589e-285
4.26055e-287
4.44479e-289
4.67131e-291
4.94156e-293
5.25557e-295
5.61188e-297
6.00743e-299
6.43754e-301
6.89595e-303
7.3748e-305
7.86485e-307
8.35553e-309
8.8353e-311
9.29186e-313
9.71269e-315
1.00917e-316
1.02656e-318
0
0
0
8.00571e-32
9.40499e-30
9.2631e-29
2.30097e-28
8.44089e-29
1.56057e-29
2.51797e-30
3.80533e-31
5.25969e-32
6.60978e-33
7.59238e-34
8.03187e-35
7.88178e-36
7.22006e-37
6.20774e-38
5.0332e-39
3.86408e-40
2.81892e-41
1.96023e-42
1.30291e-43
8.29758e-45
5.07412e-46
2.98523e-47
1.69258e-48
9.26304e-50
4.90006e-51
2.50872e-52
1.24456e-53
5.98913e-55
2.79854e-56
1.27094e-57
5.61471e-59
2.41485e-60
1.01194e-61
4.13463e-63
1.64831e-64
6.41579e-66
2.43975e-67
9.06956e-69
3.29783e-70
1.17358e-71
4.08951e-73
1.39616e-74
4.67216e-76
1.53333e-77
4.93733e-79
1.5606e-80
4.84424e-82
1.47737e-83
4.42865e-85
1.30544e-86
3.78551e-88
1.08033e-89
3.03549e-91
8.40071e-93
2.29081e-94
6.15763e-96
1.63214e-97
4.26755e-99
1.10112e-100
2.8046e-102
7.05398e-104
1.7525e-105
4.30194e-107
1.04369e-108
2.50311e-110
5.93586e-112
1.39206e-113
3.22902e-115
7.40916e-117
1.68187e-118
3.77717e-120
8.39271e-122
1.84503e-123
4.01295e-125
8.63506e-127
1.83818e-128
3.87084e-130
8.06284e-132
1.66113e-133
3.3847e-135
6.82037e-137
1.35905e-138
2.67779e-140
5.21685e-142
1.00487e-143
1.91366e-145
3.60297e-147
6.70645e-149
1.23411e-150
2.24518e-152
4.03815e-154
7.18062e-156
1.26281e-157
2.19861e-159
3.78966e-161
6.46688e-163
1.09255e-164
1.82747e-166
3.02647e-168
4.96264e-170
8.05739e-172
1.29538e-173
2.06225e-175
3.25116e-177
5.07582e-179
7.84798e-181
1.20173e-182
1.8225e-184
2.73743e-186
4.07234e-188
6.00033e-190
8.75666e-192
1.26571e-193
1.812e-195
2.56925e-197
3.60805e-199
5.01821e-201
6.9123e-203
9.42939e-205
1.27385e-206
1.70417e-208
2.25764e-210
2.96161e-212
3.84698e-214
4.94787e-216
6.30104e-218
7.94494e-220
9.91852e-222
1.22596e-223
1.50028e-225
1.81779e-227
2.18068e-229
2.59015e-231
3.04622e-233
3.54748e-235
4.091e-237
4.67222e-239
5.28501e-241
5.92172e-243
6.5734e-245
7.23011e-247
7.88123e-249
8.51593e-251
9.12358e-253
9.69418e-255
1.02188e-256