/*--------------------------------*- C++ -*----------------------------------*\
  =========                 |
  \\      /  F ield         | OpenFOAM: The Open Source CFD Toolbox
   \\    /   O peration     | Website:  https://openfoam.org
    \\  /    A nd           | Version:  7
     \\/     M anipulation  |
\*---------------------------------------------------------------------------*/
FoamFile
{
    version     2.0;
    format      ascii;
    class       volScalarField;
    location    "0.001";
    object      s_0;
}
// * * * * * * * * * * * * * * * * * * * * * * * * * * * * * * * * * * * * * //

dimensions      [0 0 0 0 0 0 0];

internalField   nonuniform List<scalar> 
12225
(
0.999685
0.966427
0.741665
0.326849
0.119717
0.0388826
0.0114929
0.00314505
0.000809307
0.000198632
4.71223e-05
1.09224e-05
2.50684e-06
5.75058e-07
1.38712e-07
3.16613e-08
8.18779e-09
2.69042e-09
0.999807
0.980381
0.848225
0.452792
0.181722
0.0645446
0.0207852
0.00619043
0.00173154
0.000461162
0.000118037
2.95023e-05
7.22848e-06
1.75325e-06
4.31986e-07
1.05774e-07
2.73703e-08
7.48957e-09
0.999802
0.978423
0.83107
0.429347
0.17387
0.0623298
0.0202447
0.00607294
0.00170863
0.000456768
0.000117502
2.93427e-05
7.19637e-06
1.75843e-06
4.25374e-07
1.04934e-07
2.67835e-08
7.07463e-09
0.999806
0.979374
0.838785
0.439879
0.177857
0.0636003
0.0205951
0.00615997
0.00172842
0.000460993
0.000118235
2.94491e-05
7.21515e-06
1.74433e-06
4.2274e-07
1.03524e-07
2.58467e-08
6.74044e-09
0.999794
0.979212
0.839468
0.441482
0.178539
0.0637882
0.0206291
0.00616068
0.00172562
0.000459283
0.000117523
2.91975e-05
7.10975e-06
1.71537e-06
4.12303e-07
9.96223e-08
2.44628e-08
6.23273e-09
0.999796
0.97926
0.84004
0.44267
0.179108
0.0639691
0.0206651
0.00616193
0.00172275
0.00045747
0.000116732
2.88914e-05
7.0087e-06
1.67875e-06
3.99622e-07
9.55071e-08
2.29709e-08
5.66061e-09
0.999819
0.980884
0.849952
0.455236
0.183202
0.0650946
0.0209237
0.00620949
0.00172813
0.000456757
0.00011596
2.85491e-05
6.8757e-06
1.63236e-06
3.84493e-07
9.03202e-08
2.11781e-08
5.06729e-09
0.999817
0.980322
0.844529
0.446912
0.180032
0.0640738
0.0206247
0.00612451
0.00170384
0.000449719
0.000113852
2.79013e-05
6.67641e-06
1.57127e-06
3.65442e-07
8.43816e-08
1.93649e-08
4.50271e-09
0.999803
0.980033
0.845741
0.451283
0.182663
0.0650863
0.0209195
0.0061932
0.00171599
0.000450702
0.000113412
2.76001e-05
6.5472e-06
1.5232e-06
3.49146e-07
7.91126e-08
1.77079e-08
3.99452e-09
0.999806
0.98007
0.844784
0.449348
0.18172
0.0647068
0.0207781
0.00614139
0.00169732
0.000444186
0.000111233
2.68836e-05
6.31625e-06
1.45157e-06
3.27622e-07
7.28012e-08
1.59212e-08
3.49749e-09
0.999819
0.981361
0.855082
0.465275
0.187978
0.0667294
0.021331
0.00627105
0.00172274
0.000447824
0.000111284
2.66537e-05
6.19515e-06
1.40473e-06
3.11851e-07
6.79302e-08
1.45116e-08
3.1035e-09
0.999814
0.980719
0.849185
0.455095
0.183535
0.06511
0.0208019
0.00610726
0.00167324
0.000433035
0.000106918
2.53899e-05
5.8367e-06
1.30563e-06
2.85228e-07
6.09781e-08
1.2754e-08
2.66541e-09
0.999814
0.980651
0.849348
0.456361
0.184491
0.0654987
0.0209045
0.00612113
0.00167058
0.000430192
0.000105528
2.48556e-05
5.65751e-06
1.25056e-06
2.69385e-07
5.6672e-08
1.16444e-08
2.38747e-09
0.999809
0.980373
0.847312
0.452946
0.182867
0.0648418
0.0206576
0.00603095
0.00163807
0.000418929
0.000101887
2.37508e-05
5.33937e-06
1.16307e-06
2.4633e-07
5.08407e-08
1.02302e-08
2.05127e-09
0.999828
0.981754
0.856437
0.466191
0.187595
0.0661662
0.0209338
0.00606341
0.00163238
0.00041327
9.93341e-05
2.2842e-05
5.05562e-06
1.08208e-06
2.24764e-07
4.54232e-08
8.93974e-09
1.75199e-09
0.999827
0.981588
0.855149
0.464293
0.186725
0.065729
0.0207166
0.00596494
0.00159313
0.000399429
9.48952e-05
2.15245e-05
4.68945e-06
9.86017e-07
2.00837e-07
3.9743e-08
7.65204e-09
1.46631e-09
0.999829
0.981761
0.856644
0.467335
0.188131
0.0661049
0.0207448
0.00593226
0.00156986
0.000389062
9.11634e-05
2.03511e-05
4.35514e-06
8.97921e-07
1.79083e-07
3.46646e-08
6.52544e-09
1.22235e-09
0.999851
0.983004
0.863175
0.475355
0.189676
0.0659934
0.0204897
0.00579319
0.00151437
0.000370288
8.54838e-05
1.8774e-05
3.94703e-06
7.98497e-07
1.56115e-07
2.96053e-08
5.45915e-09
1.0018e-09
0.999821
0.981376
0.854425
0.463044
0.185447
0.0646682
0.0200619
0.00564721
0.00146471
0.000354336
8.07427e-05
1.74694e-05
3.61244e-06
7.17914e-07
1.37767e-07
2.56322e-08
4.63722e-09
8.35041e-10
0.999823
0.981312
0.853474
0.461122
0.184152
0.0639541
0.01975
0.00553234
0.00142711
0.000343036
7.75733e-05
1.66368e-05
3.40703e-06
6.70106e-07
1.27204e-07
2.34044e-08
4.18703e-09
7.4562e-10
0.99983
0.982102
0.859739
0.471624
0.188475
0.0653692
0.0201195
0.00560762
0.00143756
0.000343117
7.70007e-05
1.63813e-05
3.32655e-06
6.48609e-07
1.22041e-07
2.22575e-08
3.94753e-09
6.97034e-10
0.999811
0.980981
0.85288
0.46126
0.184475
0.0640361
0.0197184
0.00549415
0.00140671
0.000335036
7.49728e-05
1.5895e-05
3.21536e-06
6.24323e-07
1.16959e-07
2.12353e-08
3.7494e-09
6.59109e-10
0.999817
0.980657
0.848405
0.45299
0.180847
0.0627666
0.0193362
0.00538896
0.00137931
0.00032819
7.33261e-05
1.55133e-05
3.12987e-06
6.05858e-07
1.1312e-07
2.04664e-08
3.60081e-09
6.30744e-10
0.999808
0.98048
0.849182
0.456353
0.183165
0.0637503
0.0196476
0.00546863
0.00139635
0.000331231
7.37522e-05
1.55474e-05
3.12556e-06
6.02912e-07
1.12189e-07
2.02319e-08
3.54854e-09
6.19754e-10
0.999832
0.982658
0.865097
0.482178
0.193371
0.0670519
0.0205602
0.00569271
0.00144657
0.000341658
7.57746e-05
1.59159e-05
3.18889e-06
6.1323e-07
1.13781e-07
2.04636e-08
3.58004e-09
6.23737e-10
0.999839
0.983114
0.867976
0.487646
0.196035
0.0680388
0.0208507
0.00576385
0.0014615
0.000344358
7.6184e-05
1.59619e-05
3.19011e-06
6.1191e-07
1.1325e-07
2.03179e-08
3.54608e-09
6.16393e-10
0.999838
0.982822
0.864836
0.481538
0.193359
0.0670874
0.0205557
0.00568053
0.00143961
0.000338962
7.49304e-05
1.56864e-05
3.1325e-06
6.004e-07
1.1104e-07
1.99082e-08
3.47246e-09
6.0326e-10
0.99985
0.984499
0.877448
0.505273
0.20347
0.0704586
0.0215023
0.00591671
0.00149384
0.000350639
7.73152e-05
1.61518e-05
3.21982e-06
6.16225e-07
1.13823e-07
2.03847e-08
3.55217e-09
6.16586e-10
0.999838
0.98363
0.872169
0.496311
0.200108
0.0693907
0.0211885
0.00583027
0.00147152
0.00034523
7.60796e-05
1.5885e-05
3.16515e-06
6.05536e-07
1.11819e-07
2.00231e-08
3.48908e-09
6.05697e-10
0.999842
0.9823
0.852706
0.445484
0.166294
0.0533696
0.0151572
0.00389437
0.000919673
0.000202128
4.17602e-05
8.17726e-06
1.52821e-06
2.74222e-07
4.74926e-08
7.9754e-09
1.30328e-09
2.12017e-10
2.85748e-53
4.99853e-51
1.72817e-50
1.18841e-50
2.73747e-51
4.41959e-52
6.36394e-53
8.34789e-54
1.00224e-54
1.10765e-55
1.13408e-56
1.08217e-57
9.67423e-59
8.13831e-60
6.46695e-61
4.87013e-62
3.48581e-63
2.37738e-64
1.54851e-65
9.65269e-67
5.76932e-68
3.31205e-69
1.82922e-70
9.73389e-72
4.99769e-73
2.47909e-74
1.18959e-75
5.52838e-77
2.49104e-78
1.08946e-79
4.6294e-81
1.91312e-82
7.69592e-84
3.01621e-85
1.15268e-86
4.29878e-88
1.56569e-89
5.57324e-91
1.94022e-92
6.61041e-94
2.20554e-95
7.21065e-97
2.31132e-98
7.268e-100
2.24319e-101
6.79877e-103
2.02449e-104
5.92539e-106
1.70536e-107
4.82822e-109
1.3452e-110
3.6895e-112
9.96465e-114
2.65092e-115
6.9484e-117
1.79485e-118
4.57002e-120
1.14719e-121
2.83955e-123
6.93141e-125
1.6688e-126
3.96317e-128
9.28479e-130
2.14597e-131
4.89354e-133
1.10101e-134
2.44422e-136
5.3541e-138
1.15728e-139
2.46836e-141
5.19517e-143
1.07899e-144
2.21143e-146
4.47265e-148
8.92694e-150
1.75829e-151
3.41772e-153
6.55609e-155
1.24115e-156
2.3189e-158
4.27592e-160
7.78165e-162
1.39772e-163
2.47791e-165
4.33586e-167
7.48861e-169
1.27666e-170
2.14833e-172
3.56855e-174
5.85134e-176
9.47103e-178
1.51328e-179
2.38691e-181
3.71645e-183
5.71902e-185
8.70946e-187
1.31257e-188
1.95752e-190
2.88891e-192
4.21886e-194
6.09658e-196
8.71765e-198
1.23348e-199
1.72694e-201
2.3924e-203
3.27942e-205
4.44801e-207
5.96951e-209
7.92709e-211
1.04158e-212
1.35416e-214
1.74201e-216
2.21734e-218
2.79268e-220
3.48029e-222
4.2916e-224
5.23643e-226
6.32219e-228
7.553e-230
8.92888e-232
1.04449e-233
1.20907e-235
1.38497e-237
1.56993e-239
1.76108e-241
1.95501e-243
2.14781e-245
2.33525e-247
2.51288e-249
2.67624e-251
2.82101e-253
2.94326e-255
3.03957e-257
3.10722e-259
3.14433e-261
3.14994e-263
3.12405e-265
3.0676e-267
2.98245e-269
2.87126e-271
2.73735e-273
2.58455e-275
2.41702e-277
2.23905e-279
2.0549e-281
1.86864e-283
1.68401e-285
1.50428e-287
1.33225e-289
1.17013e-291
1.01958e-293
8.8169e-296
7.57068e-298
6.45853e-300
5.47802e-302
4.62363e-304
3.88749e-306
3.26007e-308
2.73084e-310
2.28884e-312
1.92313e-314
1.62293e-316
1.33443e-318
0
0
0
0
0
0
0
0
0
0
0
0
0
0
0
0
0
1.97894e-50
3.46771e-48
1.36151e-47
1.02726e-47
2.50172e-48
4.01855e-49
5.81848e-50
7.70315e-51
9.34173e-52
1.04271e-52
1.07784e-53
1.03796e-54
9.36089e-56
7.94173e-57
6.36271e-58
4.82996e-59
3.48403e-60
2.39429e-61
1.5712e-62
9.86625e-64
5.93975e-65
3.43433e-66
1.91021e-67
1.02363e-68
5.29227e-70
2.64338e-71
1.27715e-72
5.97593e-74
2.71105e-75
1.19372e-76
5.10666e-78
2.12454e-79
8.60369e-81
3.3945e-82
1.30588e-83
4.90242e-85
1.79735e-86
6.43999e-88
2.2567e-89
7.73905e-91
2.599e-92
8.55255e-94
2.75938e-95
8.73367e-97
2.71323e-98
8.27756e-100
2.48117e-101
7.31053e-103
2.11822e-104
6.03814e-106
1.694e-107
4.67906e-109
1.27287e-110
3.41136e-112
9.00971e-114
2.34556e-115
6.02053e-117
1.52393e-118
3.80471e-120
9.37062e-122
2.27703e-123
5.45974e-125
1.29188e-126
3.01687e-128
6.95348e-130
1.58192e-131
3.55239e-133
7.87461e-135
1.72313e-136
3.72221e-138
7.9375e-140
1.67099e-141
3.47277e-143
7.12522e-145
1.44326e-146
2.88619e-148
5.6983e-150
1.11074e-151
2.13766e-153
4.06193e-155
7.62087e-157
1.41179e-158
2.5825e-160
4.66478e-162
8.32065e-164
1.46567e-165
2.54967e-167
4.38043e-169
7.43283e-171
1.2457e-172
2.06213e-174
3.37193e-176
5.44656e-178
8.69085e-180
1.37042e-181
2.13847e-183
3.30218e-185
5.04592e-187
7.62981e-189
1.1416e-190
1.6902e-192
2.47614e-194
3.58942e-196
5.1485e-198
7.30704e-200
1.02613e-201
1.42582e-203
1.96031e-205
2.66674e-207
3.58948e-209
4.78056e-211
6.29973e-213
8.21414e-215
1.05974e-216
1.35282e-218
1.70875e-220
2.13563e-222
2.64107e-224
3.23182e-226
3.91319e-228
4.68853e-230
5.55867e-232
6.52138e-234
7.57093e-236
8.69778e-238
9.88838e-240
1.11252e-241
1.23872e-243
1.36497e-245
1.48859e-247
1.60673e-249
1.71648e-251
1.81501e-253
1.8997e-255
1.9682e-257
2.01863e-259
2.0496e-261
2.0603e-263
2.05055e-265
2.02076e-267
1.97198e-269
1.90577e-271
1.82414e-273
1.7295e-275
1.62446e-277
1.51178e-279
1.39424e-281
1.27452e-283
1.15511e-285
1.03824e-287
9.25816e-290
8.19406e-292
7.20207e-294
6.29056e-296
5.46453e-298
4.72589e-300
4.0739e-302
3.50561e-304
3.01632e-306
2.60007e-308
2.25005e-310
1.95898e-312
1.71944e-314
1.52376e-316
1.37271e-318
0
0
0
0
0
0
0
0
0
0
0
0
0
0
0
6.6704e-48
1.16356e-45
5.14925e-45
4.2903e-45
1.11259e-45
1.77017e-46
2.57646e-47
3.44355e-48
4.21931e-49
4.75711e-50
4.96452e-51
4.8242e-52
4.38818e-53
3.75345e-54
3.03082e-55
2.31814e-56
1.68442e-57
1.16582e-58
7.70363e-60
4.87038e-61
2.95169e-62
1.71787e-63
9.6168e-65
5.18629e-66
2.69829e-67
1.35615e-68
6.59266e-70
3.1036e-71
1.41648e-72
6.27425e-74
2.69995e-75
1.12983e-76
4.60184e-78
1.82595e-79
7.06401e-81
2.66662e-82
9.82992e-84
3.54106e-85
1.24743e-86
4.30017e-88
1.45152e-89
4.80055e-91
1.5565e-92
4.95039e-94
1.54525e-95
4.73643e-97
1.42631e-98
4.22169e-100
1.22877e-101
3.51841e-103
9.91496e-105
2.75087e-106
7.51683e-108
2.02363e-109
5.36893e-111
1.4042e-112
3.62127e-114
9.21055e-116
2.31094e-117
5.72069e-119
1.39743e-120
3.36893e-122
8.01646e-124
1.88296e-125
4.36615e-127
9.995e-129
2.25898e-130
5.04085e-132
1.11062e-133
2.41607e-135
5.18964e-137
1.10067e-138
2.30497e-140
4.76618e-142
9.73135e-144
1.96189e-145
3.90555e-147
7.67707e-149
1.49013e-150
2.85609e-152
5.40565e-154
1.01033e-155
1.86477e-157
3.39898e-159
6.1185e-161
1.08775e-162
1.90992e-164
3.31223e-166
5.67363e-168
9.59959e-170
1.60441e-171
2.64889e-173
4.32033e-175
6.96136e-177
1.10845e-178
1.74665e-180
2.72363e-182
4.20279e-184
6.41752e-186
9.69685e-188
1.44985e-189
2.14506e-191
3.14033e-193
4.54913e-195
6.52073e-197
9.2486e-199
1.29797e-200
1.80246e-202
2.47669e-204
3.36732e-206
4.53008e-208
6.03023e-210
7.94272e-212
1.03517e-213
1.33496e-215
1.70347e-217
2.15087e-219
2.68726e-221
3.3222e-223
4.06412e-225
4.91966e-227
5.89301e-229
6.98519e-231
8.1934e-233
9.51048e-235
1.09245e-236
1.24185e-238
1.39706e-240
1.55544e-242
1.71392e-244
1.86915e-246
2.01756e-248
2.15553e-250
2.27952e-252
2.38624e-254
2.47279e-256
2.53679e-258
2.57651e-260
2.59095e-262
2.57984e-264
2.54374e-266
2.48389e-268
2.40224e-270
2.30129e-272
2.184e-274
2.05363e-276
1.91358e-278
1.76729e-280
1.61807e-282
1.46902e-284
1.32287e-286
1.18201e-288
1.04837e-290
9.23434e-293
8.08256e-295
7.03466e-297
6.09324e-299
5.25764e-301
4.52455e-303
3.88852e-305
3.34259e-307
2.87879e-309
2.48857e-311
2.16321e-313
1.89414e-315
1.67154e-317
1.4278e-319
0
0
0
0
0
0
0
0
0
0
0
0
0
1.46403e-45
2.52797e-43
1.25125e-42
1.16004e-42
3.20351e-43
5.05335e-44
7.39856e-45
9.98988e-46
1.23747e-46
1.40993e-47
1.48596e-48
1.45731e-49
1.33711e-50
1.15309e-51
9.38367e-53
7.23089e-54
5.29213e-55
3.68847e-56
2.45398e-57
1.56185e-58
9.52797e-60
5.58124e-61
3.14449e-62
1.70658e-63
8.93482e-65
4.51865e-66
2.21027e-67
1.04692e-68
4.80733e-70
2.14228e-71
9.27412e-73
3.90398e-74
1.59949e-75
6.38362e-77
2.48386e-78
9.42991e-80
3.4957e-81
1.26626e-82
4.48511e-84
1.55444e-85
5.27479e-87
1.75359e-88
5.7148e-90
1.8267e-91
5.73011e-93
1.76488e-94
5.33997e-96
1.58798e-97
4.64332e-99
1.33562e-100
3.78083e-102
1.05369e-103
2.89212e-105
7.82088e-107
2.08433e-108
5.47621e-110
1.41878e-111
3.6256e-113
9.14049e-115
2.2739e-116
5.58287e-118
1.35299e-119
3.23697e-121
7.64596e-123
1.78325e-124
4.10684e-126
9.3399e-128
2.09764e-129
4.65247e-131
1.01908e-132
2.2045e-134
4.70966e-136
9.9368e-138
2.07052e-139
4.26076e-141
8.65903e-143
1.7379e-144
3.44471e-146
6.74303e-148
1.30357e-149
2.48885e-151
4.69298e-153
8.73966e-155
1.60748e-156
2.92017e-158
5.2396e-160
9.28597e-162
1.62558e-163
2.81099e-165
4.80166e-167
8.10261e-169
1.35075e-170
2.22463e-172
3.61987e-174
5.82128e-176
9.26451e-178
1.45913e-179
2.2742e-181
3.50767e-183
5.35375e-185
8.08617e-187
1.20856e-188
1.78745e-190
2.61598e-192
3.78852e-194
5.42919e-196
7.69892e-198
1.08032e-199
1.50005e-201
2.06102e-203
2.80212e-205
3.76979e-207
5.01849e-209
6.61082e-211
8.61717e-213
1.11148e-214
1.41863e-216
1.7917e-218
2.23922e-220
2.76927e-222
3.38901e-224
4.10416e-226
4.9184e-228
5.8328e-230
6.84527e-232
7.95006e-234
9.13746e-236
1.03936e-237
1.17003e-239
1.30357e-241
1.43745e-243
1.56884e-245
1.69478e-247
1.81223e-249
1.91822e-251
2.00996e-253
2.08499e-255
2.14131e-257
2.1774e-259
2.19238e-261
2.18599e-263
2.15863e-265
2.11131e-267
2.04562e-269
1.96363e-271
1.86778e-273
1.76078e-275
1.64549e-277
1.52479e-279
1.40148e-281
1.27816e-283
1.15719e-285
1.04057e-287
9.29989e-290
8.2673e-292
7.31716e-294
6.45517e-296
5.68381e-298
5.00272e-300
4.4092e-302
3.89864e-304
3.46498e-306
3.10114e-308
2.79947e-310
2.55199e-312
2.35074e-314
2.18774e-316
2.02258e-318
0
0
0
0
0
0
0
0
0
0
0
0
2.3563e-43
3.99612e-41
2.19544e-40
2.28633e-40
6.67309e-41
1.05014e-41
1.54901e-42
2.11503e-43
2.6506e-44
3.05342e-45
3.25096e-46
3.21832e-47
2.97863e-48
2.58965e-49
2.12363e-50
1.64843e-51
1.21494e-52
8.52547e-54
5.70977e-55
3.65768e-56
2.24565e-57
1.32379e-58
7.50521e-60
4.09871e-61
2.15924e-62
1.09877e-63
5.4078e-65
2.57725e-66
1.1907e-67
5.33853e-69
2.32515e-70
9.84704e-72
4.05863e-73
1.62948e-74
6.37779e-76
2.43548e-77
9.08071e-79
3.30816e-80
1.17837e-81
4.10673e-83
1.4012e-84
4.6834e-86
1.53437e-87
4.93007e-89
1.55441e-90
4.81162e-92
1.46302e-93
4.37173e-95
1.2844e-96
3.71181e-98
1.05558e-99
2.95529e-101
8.14839e-103
2.21345e-104
5.92568e-106
1.56394e-107
4.07041e-109
1.045e-110
2.64699e-112
6.61681e-114
1.63262e-115
3.97684e-117
9.56461e-119
2.27157e-120
5.3279e-122
1.23422e-123
2.82396e-125
6.38226e-127
1.4248e-128
3.14196e-130
6.84415e-132
1.47269e-133
3.13019e-135
6.57198e-137
1.36295e-138
2.79203e-140
5.6495e-142
1.12913e-143
2.22906e-145
4.34651e-147
8.37144e-149
1.59259e-150
2.99264e-152
5.55465e-154
1.0184e-155
1.84438e-157
3.2996e-159
5.83127e-161
1.01805e-162
1.75588e-164
2.99193e-166
5.03686e-168
8.37786e-170
1.37686e-171
2.23673e-173
3.59609e-175
5.7218e-177
9.00977e-179
1.40401e-180
2.16518e-182
3.30435e-184
4.99046e-186
7.45858e-188
1.10314e-189
1.6146e-191
2.33858e-193
3.35194e-195
4.75438e-197
6.67336e-199
9.2693e-201
1.27409e-202
1.73303e-204
2.33272e-206
3.10719e-208
4.09566e-210
5.34232e-212
6.89584e-214
8.80838e-216
1.11342e-217
1.39275e-219
1.72404e-221
2.11193e-223
2.5602e-225
3.0714e-227
3.64645e-229
4.28431e-231
4.9817e-233
5.73279e-235
6.52915e-237
7.35968e-239
8.21079e-241
9.06669e-243
9.9098e-245
1.07214e-246
1.14822e-248
1.21733e-250
1.2777e-252
1.32772e-254
1.36608e-256
1.39178e-258
1.40419e-260
1.40309e-262
1.38864e-264
1.36144e-266
1.3224e-268
1.27276e-270
1.21401e-272
1.1478e-274
1.07588e-276
1.00003e-278
9.2196e-281
8.43288e-283
7.65466e-285
6.8975e-287
6.17181e-289
5.48573e-291
4.84517e-293
4.25394e-295
3.71398e-297
3.22558e-299
2.78772e-301
2.39833e-303
2.05457e-305
1.75312e-307
1.49037e-309
1.26261e-311
1.06617e-313
8.97549e-316
7.53129e-318
5.25982e-320
0
0
0
0
0
0
0
0
0
0
2.96619e-41
4.89019e-39
2.96065e-38
3.50097e-38
1.06698e-38
1.69115e-39
2.51873e-40
3.48182e-41
4.41826e-42
5.14897e-43
5.53996e-44
5.53682e-45
5.16924e-46
4.53039e-47
3.74304e-48
2.92606e-49
2.17118e-50
1.5335e-51
1.03356e-52
6.66225e-54
4.1155e-55
2.44087e-56
1.39227e-57
7.64967e-59
4.05444e-60
2.07576e-61
1.02786e-62
4.92855e-64
2.29096e-65
1.03345e-66
4.52866e-68
1.92962e-69
8.00173e-71
3.23207e-72
1.27267e-73
4.88906e-75
1.83372e-76
6.7197e-78
2.40751e-79
8.43861e-81
2.89556e-82
9.73223e-84
3.206e-85
1.03568e-86
3.28276e-88
1.02147e-89
3.12176e-91
9.37513e-93
2.76796e-94
8.03788e-96
2.29674e-97
6.46029e-99
1.78951e-100
4.8834e-102
1.31332e-103
3.48202e-105
9.10406e-107
2.34808e-108
5.97554e-110
1.50085e-111
3.72121e-113
9.10965e-115
2.20223e-116
5.25806e-118
1.24006e-119
2.88903e-121
6.64946e-123
1.51205e-124
3.3971e-126
7.54086e-128
1.65389e-129
3.58396e-131
7.67341e-133
1.6232e-134
3.39243e-136
7.00472e-138
1.42891e-139
2.87968e-141
5.73325e-143
1.12764e-144
2.19102e-146
4.20559e-148
7.97468e-150
1.49385e-151
2.76445e-153
5.05391e-155
9.12789e-157
1.62872e-158
2.87123e-160
5.00088e-162
8.60591e-164
1.4633e-165
2.4585e-167
4.08157e-169
6.6996e-171
1.08838e-172
1.74993e-174
2.78457e-176
4.38524e-178
6.83473e-180
1.05424e-181
1.60935e-183
2.43136e-185
3.63526e-187
5.37911e-189
7.8772e-191
1.14162e-192
1.6374e-194
2.32421e-196
3.26498e-198
4.53911e-200
6.24516e-202
8.50353e-204
1.14587e-205
1.52811e-207
2.01676e-209
2.6341e-211
3.40478e-213
4.35538e-215
5.51369e-217
6.90778e-219
8.56478e-221
1.05094e-222
1.27621e-224
1.53377e-226
1.82427e-228
2.14743e-230
2.50181e-232
2.88471e-234
3.29212e-236
3.71863e-238
4.15755e-240
4.60102e-242
5.04023e-244
5.46571e-246
5.86766e-248
6.23636e-250
6.5626e-252
6.83805e-254
7.05571e-256
7.21018e-258
7.29798e-260
7.31763e-262
7.26981e-264
7.15725e-266
6.9846e-268
6.75818e-270
6.48573e-272
6.17595e-274
5.83821e-276
5.48208e-278
5.11701e-280
4.75195e-282
4.39508e-284
4.05358e-286
3.73348e-288
3.43954e-290
3.17522e-292
2.94272e-294
2.74303e-296
2.576e-298
2.44053e-300
2.33464e-302
2.25566e-304
2.20036e-306
2.16512e-308
2.14606e-310
2.13913e-312
2.14029e-314
2.14551e-316
2.12647e-318
1.73269e-320
0
0
0
0
0
0
0
0
3.03871e-39
4.80953e-37
3.19157e-36
4.32396e-36
1.36375e-36
2.19486e-37
3.30819e-38
4.63603e-39
5.96224e-40
7.03341e-41
7.64999e-42
7.71984e-43
7.27007e-44
6.42191e-45
5.34436e-46
4.20615e-47
3.14104e-48
2.23216e-49
1.51343e-50
9.81268e-52
6.09685e-53
3.63694e-54
2.08655e-55
1.15311e-56
6.14758e-58
3.16604e-59
1.5771e-60
7.60764e-62
3.55773e-63
1.61467e-64
7.11896e-66
3.05195e-67
1.27336e-68
5.17499e-70
2.05022e-71
7.92422e-73
2.99018e-74
1.10237e-75
3.97315e-77
1.40089e-78
4.83505e-80
1.6345e-81
5.41504e-83
1.75912e-84
5.60653e-86
1.75398e-87
5.38894e-89
1.62682e-90
4.82768e-92
1.40895e-93
4.04576e-95
1.14351e-96
3.18263e-98
8.72597e-100
2.35767e-101
6.27983e-103
1.64951e-104
4.27404e-106
1.09276e-107
2.75761e-109
6.87012e-111
1.6901e-112
4.10641e-114
9.85557e-116
2.33685e-117
5.47466e-119
1.26736e-120
2.89925e-122
6.55444e-124
1.4644e-125
3.23342e-127
7.05574e-129
1.52158e-130
3.24274e-132
6.82937e-134
1.42131e-135
2.92296e-137
5.93979e-139
1.19267e-140
2.36623e-142
4.63848e-144
8.98398e-146
1.71921e-147
3.25056e-149
6.07228e-151
1.12077e-152
2.04386e-154
3.68273e-156
6.55656e-158
1.15341e-159
2.00495e-161
3.44391e-163
5.84573e-165
9.80591e-167
1.62674e-168
2.67104e-170
4.3408e-172
6.98206e-174
1.11153e-175
1.75138e-177
2.73125e-179
4.21565e-181
6.44007e-183
9.73736e-185
1.45719e-186
2.15833e-188
3.16407e-190
4.59094e-192
6.59301e-194
9.37115e-196
1.31834e-197
1.83564e-199
2.52972e-201
3.45049e-203
4.6581e-205
6.22381e-207
8.23042e-209
1.07722e-210
1.3954e-212
1.78898e-214
2.27e-216
2.85073e-218
3.54322e-220
4.35864e-222
5.30662e-224
6.39442e-226
7.62612e-228
9.00183e-230
1.05169e-231
1.21615e-233
1.39197e-235
1.57702e-237
1.76854e-239
1.96328e-241
2.15754e-243
2.34728e-245
2.52827e-247
2.69627e-249
2.8472e-251
2.97729e-253
3.08328e-255
3.16257e-257
3.21332e-259
3.23452e-261
3.22605e-263
3.18868e-265
3.12396e-267
3.03418e-269
2.92222e-271
2.79142e-273
2.64538e-275
2.48785e-277
2.32252e-279
2.15292e-281
1.9823e-283
1.81354e-285
1.64908e-287
1.49093e-289
1.34061e-291
1.19925e-293
1.06754e-295
9.45876e-298
8.34325e-300
7.32746e-302
6.4082e-304
5.58102e-306
4.84067e-308
4.18142e-310
3.59732e-312
3.08239e-314
2.63049e-316
2.20062e-318
1.71589e-320
0
0
0
0
0
0
0
2.59987e-37
3.89525e-35
2.82618e-34
4.41323e-34
1.43368e-34
2.35867e-35
3.60463e-36
5.12764e-37
6.6898e-38
7.99311e-39
8.79131e-40
8.95841e-41
8.50912e-42
7.57406e-43
6.3469e-44
5.02704e-45
3.77647e-46
2.69899e-47
1.84003e-48
1.19948e-49
7.49271e-51
4.49368e-52
2.59208e-53
1.44038e-54
7.722e-56
3.99946e-57
2.00376e-58
9.7224e-60
4.57372e-61
2.08827e-62
9.26295e-64
3.99542e-65
1.67728e-66
6.85874e-68
2.73414e-69
1.06332e-70
4.03722e-72
1.49755e-73
5.43057e-75
1.92641e-76
6.68892e-78
2.27468e-79
7.58035e-81
2.47683e-82
7.93913e-84
2.49769e-85
7.71632e-87
2.34205e-88
6.9871e-90
2.0498e-91
5.91607e-93
1.68053e-94
4.70033e-96
1.29496e-97
3.5156e-99
9.40838e-101
2.48289e-102
6.46355e-104
1.66032e-105
4.20967e-107
1.05379e-108
2.60503e-110
6.36095e-112
1.53448e-113
3.65762e-115
8.61578e-117
2.00583e-118
4.61568e-120
1.04988e-121
2.36063e-123
5.24691e-125
1.15284e-126
2.50391e-128
5.37579e-130
1.14084e-131
2.39306e-133
4.96147e-135
1.01666e-136
2.05889e-138
4.12067e-140
8.15013e-142
1.59298e-143
3.07679e-145
5.87243e-147
1.10756e-148
2.06415e-150
3.80142e-152
6.91804e-154
1.24411e-155
2.21097e-157
3.88299e-159
6.73938e-161
1.156e-162
1.95976e-164
3.28672e-166
5.45603e-168
8.96491e-170
1.45804e-171
2.34717e-173
3.74004e-175
5.89885e-177
9.20913e-179
1.4231e-180
2.1768e-182
3.2959e-184
4.93973e-186
7.32839e-188
1.0762e-189
1.56442e-191
2.2511e-193
3.2064e-195
4.52083e-197
6.30952e-199
8.71667e-201
1.192e-202
1.61352e-204
2.16192e-206
2.86727e-208
3.76406e-210
4.89104e-212
6.2907e-214
8.00842e-216
1.00912e-217
1.25859e-219
1.55371e-221
1.89846e-223
2.29604e-225
2.74857e-227
3.25677e-229
3.81968e-231
4.43441e-233
5.09591e-235
5.79696e-237
6.52809e-239
7.2778e-241
8.03275e-243
8.77825e-245
9.49869e-247
1.01782e-248
1.08013e-250
1.13537e-252
1.18228e-254
1.21984e-256
1.24732e-258
1.26435e-260
1.27088e-262
1.26724e-264
1.25411e-266
1.23251e-268
1.20371e-270
1.16923e-272
1.13075e-274
1.09004e-276
1.04892e-278
1.00916e-280
9.72406e-283
9.40188e-285
9.13808e-287
8.94332e-289
8.82556e-291
8.78985e-293
8.83826e-295
8.96984e-297
9.1807e-299
9.46416e-301
9.81094e-303
1.02094e-304
1.0646e-306
1.11053e-308
1.1571e-310
1.20255e-312
1.24514e-314
1.28318e-316
1.28444e-318
0
0
0
0
0
0
1.8902e-35
2.64195e-33
2.09751e-32
3.7856e-32
1.26561e-32
2.14097e-33
3.32157e-34
4.80197e-35
6.36119e-36
7.7022e-37
8.5682e-38
8.81642e-39
8.44484e-40
7.57214e-41
6.38669e-42
5.08841e-43
3.84341e-44
2.76097e-45
1.89162e-46
1.23912e-47
7.77793e-49
4.68761e-50
2.71743e-51
1.51773e-52
8.17923e-54
4.25901e-55
2.14553e-56
1.0469e-57
4.95332e-59
2.27488e-60
1.0151e-61
4.40504e-63
1.86059e-64
7.65547e-66
3.07077e-67
1.20171e-68
4.59132e-70
1.71377e-71
6.2535e-73
2.23215e-74
7.79845e-76
2.66827e-77
8.94595e-79
2.94057e-80
9.48137e-82
3.00028e-83
9.32217e-85
2.84539e-86
8.53571e-88
2.5177e-89
7.30515e-91
2.08593e-92
5.86406e-94
1.62369e-95
4.42979e-97
1.19126e-98
3.15889e-100
8.2626e-102
2.13256e-103
5.43278e-105
1.36649e-106
3.39449e-108
8.32967e-110
2.01959e-111
4.83904e-113
1.14601e-114
2.68291e-116
6.20952e-118
1.42094e-119
3.21503e-121
7.19277e-123
1.59116e-124
3.48043e-126
7.52737e-128
1.60965e-129
3.40314e-131
7.11319e-133
1.46982e-134
3.00234e-136
6.06216e-138
1.20989e-139
2.38672e-141
4.65345e-143
8.96719e-145
1.70779e-146
3.21444e-148
5.97952e-150
1.0993e-151
1.99738e-153
3.58677e-155
6.36586e-157
1.11669e-158
1.93615e-160
3.31819e-162
5.62759e-164
9.44774e-166
1.57006e-167
2.58282e-169
4.20593e-171
6.77994e-173
1.08191e-174
1.70909e-176
2.67273e-178
4.13777e-180
6.34169e-182
9.62227e-184
1.4454e-185
2.14951e-187
3.16473e-189
4.61297e-191
6.65688e-193
9.5106e-195
1.34521e-196
1.88371e-198
2.61143e-200
3.58406e-202
4.86971e-204
6.55021e-206
8.72217e-208
1.14976e-209
1.50035e-211
1.93812e-213
2.47834e-215
3.13712e-217
3.93084e-219
4.87554e-221
5.98604e-223
7.27506e-225
8.75216e-227
1.04226e-228
1.22866e-230
1.43378e-232
1.65632e-234
1.89421e-236
2.14463e-238
2.40402e-240
2.66816e-242
2.93226e-244
3.19113e-246
3.43938e-248
3.6716e-250
3.88263e-252
4.06774e-254
4.22289e-256
4.34488e-258
4.4315e-260
4.48163e-262
4.49527e-264
4.47355e-266
4.41859e-268
4.33346e-270
4.22197e-272
4.08852e-274
3.93788e-276
3.77502e-278
3.60491e-280
3.43235e-282
3.26186e-284
3.09753e-286
2.94296e-288
2.80119e-290
2.67468e-292
2.5653e-294
2.47428e-296
2.40231e-298
2.34945e-300
2.31523e-302
2.29865e-304
2.2982e-306
2.31187e-308
2.33726e-310
2.37156e-312
2.41161e-314
2.45391e-316
2.45171e-318
1.68625e-320
0
0
0
0
1.18186e-33
1.5198e-31
1.3255e-30
2.7629e-30
9.53162e-31
1.66697e-31
2.62631e-32
3.8624e-33
5.19894e-34
6.38134e-35
7.18033e-36
7.45937e-37
7.20293e-38
6.50332e-39
5.51821e-40
4.41994e-41
3.35469e-42
2.42081e-43
1.66577e-44
1.09583e-45
6.90792e-47
4.18136e-48
2.43478e-49
1.36615e-50
7.39765e-52
3.87121e-53
1.96024e-54
9.61604e-56
4.57487e-57
2.113e-58
9.48363e-60
4.13991e-61
1.75921e-62
7.28287e-64
2.93951e-65
1.15757e-66
4.45065e-68
1.6718e-69
6.13914e-71
2.20523e-72
7.75313e-74
2.66944e-75
9.00574e-77
2.97852e-78
9.66242e-80
3.07602e-81
9.61429e-83
2.95172e-84
8.90557e-86
2.64162e-87
7.7071e-89
2.21264e-90
6.25336e-92
1.74051e-93
4.77281e-95
1.28997e-96
3.43758e-98
9.03564e-100
2.34342e-101
5.99888e-103
1.51621e-104
3.78482e-106
9.33352e-108
2.2744e-109
5.47781e-111
1.3042e-112
3.07009e-114
7.1463e-116
1.64505e-117
3.74522e-119
8.43321e-121
1.87817e-122
4.13719e-124
9.01348e-126
1.94215e-127
4.13861e-129
8.7214e-131
1.8174e-132
3.74473e-134
7.62901e-136
1.53663e-137
3.05984e-139
6.02334e-141
1.1721e-142
2.25458e-144
4.28679e-146
8.05665e-148
1.49668e-149
2.74827e-151
4.98822e-153
8.94945e-155
1.58716e-156
2.78249e-158
4.8224e-160
8.27383e-162
1.40529e-163
2.3629e-165
3.93324e-167
6.4817e-169
1.05748e-170
1.70807e-172
2.73151e-174
4.32488e-176
6.78001e-178
1.0524e-179
1.61747e-181
2.46153e-183
3.7093e-185
5.53482e-187
8.17792e-189
1.1965e-190
1.73346e-192
2.48683e-194
3.53268e-196
4.96918e-198
6.92123e-200
9.54533e-202
1.30347e-203
1.7624e-205
2.35935e-207
3.12718e-209
4.10372e-211
5.33161e-213
6.85779e-215
8.73269e-217
1.10089e-218
1.37392e-220
1.69748e-222
2.07619e-224
2.51392e-226
3.01344e-228
3.57607e-230
4.2014e-232
4.887e-234
5.62824e-236
6.41817e-238
7.24757e-240
8.10511e-242
8.97764e-244
9.85064e-246
1.07088e-247
1.15369e-249
1.23201e-251
1.30452e-253
1.37013e-255
1.42805e-257
1.47783e-259
1.51945e-261
1.55332e-263
1.58029e-265
1.60168e-267
1.6192e-269
1.63493e-271
1.65129e-273
1.6709e-275
1.69656e-277
1.73112e-279
1.7774e-281
1.83806e-283
1.91556e-285
2.01198e-287
2.129e-289
2.26775e-291
2.42876e-293
2.61185e-295
2.81612e-297
3.03988e-299
3.2806e-301
3.53497e-303
3.79888e-305
4.06749e-307
4.33529e-309
4.59628e-311
4.84407e-313
5.07213e-315
5.27949e-317
5.38536e-319
0
0
0
6.41405e-32
7.49777e-30
7.22669e-29
1.73205e-28
6.20391e-29
1.12723e-29
1.80241e-30
2.69793e-31
3.69142e-32
4.59318e-33
5.22633e-34
5.47941e-35
5.33125e-36
4.84399e-37
4.1324e-38
3.32545e-39
2.53455e-40
1.83604e-41
1.26803e-42
8.37186e-44
5.29664e-45
3.21803e-46
1.88113e-47
1.05981e-48
5.76346e-50
3.02969e-51
1.54143e-52
7.59929e-54
3.63424e-55
1.68765e-56
7.61702e-58
3.3443e-59
1.42955e-60
5.95402e-62
2.418e-63
9.58166e-65
3.7073e-66
1.40147e-67
5.17947e-69
1.87248e-70
6.62561e-72
2.29587e-73
7.79494e-75
2.59443e-76
8.46935e-78
2.71298e-79
8.53171e-81
2.63523e-82
7.99809e-84
2.38635e-85
7.00241e-87
2.02169e-88
5.74531e-90
1.60778e-91
4.4323e-93
1.20419e-94
3.22548e-96
8.52102e-98
2.221e-99
5.7137e-101
1.45127e-102
3.64068e-104
9.02294e-106
2.20987e-107
5.34991e-109
1.28052e-110
3.03085e-112
7.09502e-114
1.64289e-115
3.76334e-117
8.5285e-119
1.91216e-120
4.24165e-122
9.30883e-124
2.02113e-125
4.34119e-127
9.2239e-129
1.93857e-130
4.02975e-132
8.28457e-134
1.68433e-135
3.38624e-137
6.73155e-139
1.3231e-140
2.57117e-142
4.93985e-144
9.38267e-146
1.76182e-147
3.27052e-149
6.00194e-151
1.08891e-152
1.95309e-154
3.46338e-156
6.07413e-158
1.05467e-159
1.813e-161
3.08559e-163
5.19934e-165
8.67442e-167
1.43294e-168
2.34385e-170
3.79628e-172
6.08879e-174
9.67085e-176
1.52116e-177
2.3696e-179
3.65577e-181
5.58597e-183
8.45361e-185
1.26712e-186
1.88116e-188
2.76614e-190
4.02865e-192
5.81139e-194
8.3029e-196
1.1749e-197
1.64659e-199
2.28546e-201
3.1416e-203
4.27665e-205
5.76525e-207
7.69625e-209
1.01736e-210
1.33164e-212
1.72585e-214
2.21469e-216
2.81388e-218
3.53976e-220
4.40868e-222
5.43638e-224
6.63709e-226
8.02264e-228
9.60146e-230
1.13777e-231
1.33501e-233
1.55118e-235
1.78491e-237
2.03419e-239
2.29636e-241
2.56816e-243
2.84585e-245
3.12529e-247
3.40216e-249
3.67206e-251
3.93077e-253
4.17433e-255
4.39928e-257
4.60268e-259
4.78224e-261