/*--------------------------------*- C++ -*----------------------------------*\
  =========                 |
  \\      /  F ield         | OpenFOAM: The Open Source CFD Toolbox
   \\    /   O peration     | Website:  https://openfoam.org
    \\  /    A nd           | Version:  7
     \\/     M anipulation  |
\*---------------------------------------------------------------------------*/
FoamFile
{
    version     2.0;
    format      ascii;
    class       volVectorField;
    location    "0.001";
    object      U;
}
// * * * * * * * * * * * * * * * * * * * * * * * * * * * * * * * * * * * * * //

dimensions      [0 1 -1 0 0 0 0];

internalField   nonuniform List<vector> 
12225
(
(4.80538 0.167776 0)
(4.17782 0.105112 0)
(3.98089 0.0360007 0)
(3.98701 -0.00197412 0)
(4.0219 -0.012404 0)
(4.11211 -0.012241 0)
(4.21763 -0.00961648 0)
(4.29676 -0.00853323 0)
(4.36137 -0.0111141 0)
(4.4453 -0.00510159 0)
(4.53602 -0.0365463 0)
(4.64662 0.035811 0)
(4.80032 -0.109756 0)
(4.88917 0.0613115 0)
(5.1328 -0.118822 0)
(5.84306 0.0197276 0)
(4.7287 -0.0318838 0)
(7.11889 -0.45441 0)
(4.99765 0.0988688 0)
(4.94189 0.0400825 0)
(4.9016 0.0182798 0)
(4.90401 -0.00960797 0)
(4.91485 -0.0274108 0)
(4.98209 -0.0326194 0)
(5.08179 -0.0314076 0)
(5.17371 -0.0309387 0)
(5.23626 -0.0333805 0)
(5.35932 -0.0452339 0)
(5.3836 -0.0271521 0)
(5.61882 -0.110528 0)
(5.63385 0.0124979 0)
(5.82384 -0.155711 0)
(6.15457 -0.20584 0)
(6.17347 0.0332935 0)
(6.7664 -0.303512 0)
(7.39853 -0.802966 0)
(5.17276 0.171006 0)
(4.91276 0.0989354 0)
(4.82631 0.0466716 0)
(4.87011 -0.011967 0)
(4.92033 -0.0452387 0)
(5.00548 -0.0542108 0)
(5.11195 -0.0543596 0)
(5.19976 -0.0530199 0)
(5.27684 -0.065989 0)
(5.35228 -0.0543468 0)
(5.47395 -0.113018 0)
(5.54259 -0.0555866 0)
(5.70453 -0.161286 0)
(5.88623 -0.164502 0)
(5.96695 -0.186704 0)
(6.26473 -0.275498 0)
(6.70216 -0.477654 0)
(6.88276 -0.721282 0)
(5.07741 0.181106 0)
(4.94938 0.119495 0)
(4.88424 0.0338072 0)
(4.91182 -0.0397471 0)
(4.94161 -0.0745107 0)
(5.01414 -0.0809254 0)
(5.11418 -0.0792094 0)
(5.2004 -0.0804045 0)
(5.27004 -0.0869838 0)
(5.35896 -0.104503 0)
(5.44635 -0.105362 0)
(5.55519 -0.169664 0)
(5.69287 -0.149917 0)
(5.81459 -0.226318 0)
(5.99167 -0.345564 0)
(6.2371 -0.359678 0)
(6.47697 -0.528738 0)
(6.75705 -0.942159 0)
(4.92809 0.187669 0)
(4.90156 0.149787 0)
(4.88996 0.0522226 0)
(4.92316 -0.0400565 0)
(4.94751 -0.0891615 0)
(5.01645 -0.102501 0)
(5.11468 -0.103925 0)
(5.1974 -0.105734 0)
(5.26848 -0.1191 0)
(5.34701 -0.126354 0)
(5.4435 -0.166757 0)
(5.5408 -0.176892 0)
(5.65779 -0.231384 0)
(5.80607 -0.314823 0)
(5.95306 -0.365306 0)
(6.12719 -0.479893 0)
(6.36613 -0.731133 0)
(6.58664 -1.05107 0)
(5.00319 0.220563 0)
(4.90791 0.135389 0)
(4.907 0.0306776 0)
(4.93952 -0.0649024 0)
(4.95846 -0.11565 0)
(5.02221 -0.129294 0)
(5.11605 -0.130476 0)
(5.19518 -0.13416 0)
(5.26246 -0.146442 0)
(5.33928 -0.166324 0)
(5.42932 -0.192248 0)
(5.52108 -0.238371 0)
(5.63822 -0.283113 0)
(5.7617 -0.354082 0)
(5.88762 -0.469506 0)
(6.0558 -0.608763 0)
(6.23654 -0.791476 0)
(6.36241 -1.08386 0)
(5.02888 0.275618 0)
(5.00547 0.170663 0)
(4.98416 0.0393195 0)
(4.98544 -0.0707478 0)
(4.97992 -0.131263 0)
(5.03018 -0.150733 0)
(5.11729 -0.155401 0)
(5.19162 -0.161622 0)
(5.25559 -0.177327 0)
(5.32765 -0.19901 0)
(5.41225 -0.23458 0)
(5.50076 -0.280096 0)
(5.60207 -0.334328 0)
(5.71181 -0.429264 0)
(5.83158 -0.535573 0)
(5.95783 -0.669233 0)
(6.07695 -0.885544 0)
(6.17434 -1.18654 0)
(5.05597 0.235925 0)
(5.02737 0.175351 0)
(4.97921 0.049018 0)
(4.97321 -0.076866 0)
(4.97286 -0.149909 0)
(5.0277 -0.175326 0)
(5.11493 -0.182335 0)
(5.18635 -0.19056 0)
(5.24633 -0.207898 0)
(5.31358 -0.23453 0)
(5.39202 -0.272509 0)
(5.47261 -0.324422 0)
(5.56269 -0.390408 0)
(5.65885 -0.4807 0)
(5.75403 -0.596391 0)
(5.84974 -0.752702 0)
(5.94383 -0.947494 0)
(6.00379 -1.18563 0)
(4.99259 0.257371 0)
(4.96298 0.188818 0)
(4.97207 0.0550826 0)
(4.99586 -0.084804 0)
(4.99504 -0.167222 0)
(5.03896 -0.197737 0)
(5.11664 -0.207866 0)
(5.18105 -0.218728 0)
(5.23529 -0.238676 0)
(5.29669 -0.268774 0)
(5.36761 -0.310757 0)
(5.44003 -0.367508 0)
(5.51764 -0.437636 0)
(5.59606 -0.533291 0)
(5.67367 -0.652846 0)
(5.74613 -0.798574 0)
(5.80166 -0.979015 0)
(5.82343 -1.20847 0)
(5.03755 0.312699 0)
(5.0048 0.218136 0)
(4.99098 0.0486167 0)
(4.99696 -0.106714 0)
(4.9921 -0.191774 0)
(5.03599 -0.222446 0)
(5.112 -0.233717 0)
(5.17254 -0.24665 0)
(5.22154 -0.26891 0)
(5.27662 -0.302093 0)
(5.33957 -0.347326 0)
(5.40241 -0.406953 0)
(5.46712 -0.481489 0)
(5.53 -0.577315 0)
(5.58846 -0.693285 0)
(5.6363 -0.836293 0)
(5.66783 -1.00431 0)
(5.67282 -1.19754 0)
(5.01545 0.318045 0)
(5.01529 0.227408 0)
(5.04523 0.0586901 0)
(5.04931 -0.103852 0)
(5.02222 -0.201024 0)
(5.04708 -0.240901 0)
(5.11129 -0.257358 0)
(5.16387 -0.273345 0)
(5.2059 -0.297944 0)
(5.25368 -0.333573 0)
(5.30794 -0.381171 0)
(5.36058 -0.442722 0)
(5.41266 -0.518519 0)
(5.45995 -0.612808 0)
(5.50086 -0.725 0)
(5.53007 -0.857954 0)
(5.54083 -1.00718 0)
(5.52549 -1.17716 0)
(4.99893 0.36529 0)
(5.01144 0.234528 0)
(5.02576 0.048222 0)
(5.02587 -0.11798 0)
(5.00669 -0.215948 0)
(5.03813 -0.258373 0)
(5.10315 -0.277915 0)
(5.15241 -0.296444 0)
(5.18891 -0.323022 0)
(5.2299 -0.360358 0)
(5.27596 -0.409306 0)
(5.31906 -0.471323 0)
(5.35975 -0.54666 0)
(5.39391 -0.637995 0)
(5.42052 -0.743795 0)
(5.43458 -0.866521 0)
(5.43061 -1.00084 0)
(5.40497 -1.14842 0)
(5.04705 0.360382 0)
(4.99709 0.246959 0)
(5.00719 0.0560124 0)
(5.02142 -0.11865 0)
(5.00734 -0.227122 0)
(5.03656 -0.276081 0)
(5.09705 -0.298319 0)
(5.14072 -0.318152 0)
(5.17071 -0.345748 0)
(5.20443 -0.383905 0)
(5.24216 -0.433196 0)
(5.27583 -0.49456 0)
(5.30572 -0.567942 0)
(5.32789 -0.654919 0)
(5.3419 -0.753602 0)
(5.34354 -0.86561 0)
(5.32819 -0.984945 0)
(5.294 -1.11347 0)
(4.96662 0.358713 0)
(4.98232 0.260368 0)
(4.99611 0.0476734 0)
(5.01026 -0.143328 0)
(4.99843 -0.253369 0)
(5.02842 -0.29995 0)
(5.0864 -0.320961 0)
(5.12473 -0.340832 0)
(5.14759 -0.368775 0)
(5.17306 -0.406947 0)
(5.2014 -0.45554 0)
(5.22464 -0.514952 0)
(5.24301 -0.584734 0)
(5.25297 -0.665602 0)
(5.25469 -0.755277 0)
(5.24477 -0.854753 0)
(5.21969 -0.958137 0)
(5.17945 -1.06707 0)
(5.03665 0.386283 0)
(5.04664 0.249565 0)
(5.06085 0.0526743 0)
(5.05551 -0.144975 0)
(5.02127 -0.26738 0)
(5.03356 -0.319571 0)
(5.07911 -0.341758 0)
(5.10724 -0.361721 0)
(5.12031 -0.3894 0)
(5.13587 -0.426637 0)
(5.15363 -0.473232 0)
(5.16573 -0.529079 0)
(5.17231 -0.593347 0)
(5.17046 -0.6661 0)
(5.16092 -0.744914 0)
(5.14108 -0.830314 0)
(5.10852 -0.916851 0)
(5.06432 -1.00636 0)
(5.01483 0.320213 0)
(5.01739 0.237095 0)
(5.05659 0.0615727 0)
(5.06309 -0.141946 0)
(5.02361 -0.274098 0)
(5.0278 -0.332154 0)
(5.06481 -0.357059 0)
(5.08374 -0.377735 0)
(5.08703 -0.404626 0)
(5.09233 -0.439707 0)
(5.09921 -0.482688 0)
(5.10015 -0.533142 0)
(5.0954 -0.589989 0)
(5.08284 -0.652865 0)
(5.06366 -0.719451 0)
(5.03592 -0.790029 0)
(4.99814 -0.859925 0)
(4.95195 -0.931186 0)
(5.0648 0.293867 0)
(5.03195 0.221703 0)
(5.07153 0.0325864 0)
(5.07054 -0.165934 0)
(5.02668 -0.289236 0)
(5.02338 -0.343065 0)
(5.05014 -0.366175 0)
(5.05804 -0.385326 0)
(5.05024 -0.409906 0)
(5.04454 -0.441367 0)
(5.04035 -0.479148 0)
(5.03057 -0.522575 0)
(5.0155 -0.570466 0)
(4.99382 -0.622265 0)
(4.96694 -0.675978 0)
(4.93344 -0.731804 0)
(4.89255 -0.785966 0)
(4.846 -0.840593 0)
(5.18964 0.323008 0)
(5.1538 0.279456 0)
(5.15934 0.0789442 0)
(5.12401 -0.126975 0)
(5.04611 -0.262741 0)
(5.02016 -0.327858 0)
(5.03259 -0.356906 0)
(5.02858 -0.377183 0)
(5.00979 -0.399584 0)
(4.99374 -0.426511 0)
(4.97949 -0.457824 0)
(4.96036 -0.492977 0)
(4.93669 -0.530943 0)
(4.90791 -0.571197 0)
(4.87539 -0.612187 0)
(4.83812 -0.654091 0)
(4.79586 -0.694049 0)
(4.75007 -0.734065 0)
(4.95357 0.265059 0)
(4.97697 0.275702 0)
(5.01343 0.113182 0)
(5.0296 -0.0971616 0)
(4.99179 -0.242742 0)
(4.98519 -0.310072 0)
(5.00116 -0.336782 0)
(4.99332 -0.352823 0)
(4.96779 -0.369706 0)
(4.94389 -0.389874 0)
(4.92148 -0.4132 0)
(4.89481 -0.439145 0)
(4.8644 -0.466843 0)
(4.83043 -0.495856 0)
(4.79406 -0.525054 0)
(4.75465 -0.554578 0)
(4.71224 -0.582399 0)
(4.66785 -0.610184 0)
(5.03185 0.268405 0)
(5.0318 0.209207 0)
(5.06745 0.0405447 0)
(5.07266 -0.141153 0)
(5.01299 -0.25329 0)
(4.98872 -0.298409 0)
(4.9924 -0.312455 0)
(4.97523 -0.320019 0)
(4.9422 -0.329667 0)
(4.91183 -0.342713 0)
(4.88353 -0.35862 0)
(4.85185 -0.376696 0)
(4.8172 -0.39614 0)
(4.78017 -0.416549 0)
(4.7416 -0.437064 0)
(4.70113 -0.457771 0)
(4.65888 -0.477217 0)
(4.61548 -0.49668 0)
(5.00319 0.273511 0)
(5.0449 0.229843 0)
(5.09422 0.0803812 0)
(5.0893 -0.10713 0)
(5.02531 -0.223093 0)
(4.9953 -0.26784 0)
(4.99209 -0.279575 0)
(4.9688 -0.283656 0)
(4.93036 -0.289118 0)
(4.89517 -0.297552 0)
(4.86264 -0.308541 0)
(4.82748 -0.321462 0)
(4.78997 -0.335625 0)
(4.75091 -0.350652 0)
(4.71091 -0.365835 0)
(4.66973 -0.381211 0)
(4.62751 -0.395656 0)
(4.58465 -0.410155 0)
(4.96401 0.279987 0)
(4.98424 0.16719 0)
(5.05541 0.0324596 0)
(5.07313 -0.106164 0)
(5.02089 -0.197855 0)
(4.99456 -0.235933 0)
(4.99084 -0.244917 0)
(4.96501 -0.246243 0)
(4.92339 -0.248581 0)
(4.88505 -0.253594 0)
(4.84962 -0.260955 0)
(4.81202 -0.270099 0)
(4.77249 -0.280404 0)
(4.73201 -0.291509 0)
(4.691 -0.302816 0)
(4.64934 -0.314326 0)
(4.60712 -0.325154 0)
(4.56462 -0.336064 0)
(5.10241 0.327889 0)
(5.04789 0.17417 0)
(5.06634 0.0134125 0)
(5.06741 -0.119285 0)
(5.01808 -0.194601 0)
(4.99673 -0.217985 0)
(4.99392 -0.21731 0)
(4.96595 -0.212683 0)
(4.92131 -0.210947 0)
(4.8801 -0.212645 0)
(4.84217 -0.21696 0)
(4.80254 -0.22314 0)
(4.76141 -0.230513 0)
(4.71981 -0.238682 0)
(4.67802 -0.247118 0)
(4.63597 -0.255779 0)
(4.5937 -0.263961 0)
(4.55139 -0.272245 0)
(4.98254 0.310142 0)
(4.98845 0.218916 0)
(5.05362 0.0425311 0)
(5.08052 -0.110519 0)
(5.03708 -0.186068 0)
(5.01258 -0.200235 0)
(5.00444 -0.19065 0)
(4.97142 -0.180294 0)
(4.92275 -0.175138 0)
(4.87849 -0.174382 0)
(4.83824 -0.176524 0)
(4.79687 -0.180574 0)
(4.75443 -0.185804 0)
(4.71194 -0.191796 0)
(4.66955 -0.198083 0)
(4.62717 -0.204599 0)
(4.58483 -0.210784 0)
(4.54262 -0.217072 0)
(4.99695 0.25224 0)
(5.05945 0.143169 0)
(5.17545 -0.0136841 0)
(5.18237 -0.13128 0)
(5.09694 -0.179428 0)
(5.04312 -0.178002 0)
(5.01979 -0.161169 0)
(4.97882 -0.147792 0)
(4.92559 -0.141034 0)
(4.8785 -0.138938 0)
(4.83628 -0.139721 0)
(4.7935 -0.142317 0)
(4.75005 -0.145999 0)
(4.70688 -0.150362 0)
(4.66403 -0.155011 0)
(4.62141 -0.159872 0)
(4.579 -0.164504 0)
(4.53684 -0.169229 0)
(5.0131 0.236515 0)
(5.08334 0.112204 0)
(5.21776 0.00385102 0)
(5.22714 -0.0889488 0)
(5.13161 -0.134858 0)
(5.06645 -0.138073 0)
(5.03365 -0.125785 0)
(4.98605 -0.114899 0)
(4.92878 -0.108819 0)
(4.87924 -0.106452 0)
(4.83541 -0.106546 0)
(4.79153 -0.108202 0)
(4.74733 -0.110768 0)
(4.70367 -0.113894 0)
(4.66048 -0.117266 0)
(4.61768 -0.120819 0)
(4.57522 -0.124218 0)
(4.53307 -0.127682 0)
(5.05883 0.181659 0)
(5.14213 0.0372183 0)
(5.24106 -0.0558438 0)
(5.22764 -0.113622 0)
(5.13311 -0.127452 0)
(5.0723 -0.113506 0)
(5.03962 -0.0961908 0)
(4.99006 -0.0850764 0)
(4.93091 -0.0794155 0)
(4.87993 -0.0771306 0)
(4.83503 -0.0769404 0)
(4.79042 -0.0779946 0)
(4.74572 -0.0797375 0)
(4.70173 -0.0818969 0)
(4.65832 -0.0842517 0)
(4.61539 -0.0867431 0)
(4.5729 -0.0891326 0)
(4.53078 -0.0915809 0)
(4.9897 0.138348 0)
(5.21375 0.0644042 0)
(5.36947 0.0038877 0)
(5.33894 -0.0602648 0)
(5.20201 -0.0845172 0)
(5.1067 -0.0781112 0)
(5.05483 -0.0658839 0)
(4.99692 -0.0575071 0)
(4.9345 -0.0529261 0)
(4.88205 -0.0509836 0)
(4.83635 -0.0507447 0)
(4.7913 -0.0514039 0)
(4.74636 -0.0525124 0)
(4.70224 -0.0538881 0)
(4.6588 -0.0553959 0)
(4.61587 -0.0570184 0)
(4.57345 -0.0585443 0)
(4.53138 -0.0601349 0)
(4.9705 -0.00998447 0)
(5.19166 -0.0699067 0)
(5.35407 -0.0721958 0)
(5.33353 -0.0774576 0)
(5.20438 -0.0619138 0)
(5.10876 -0.0435469 0)
(5.05399 -0.0344227 0)
(4.99432 -0.030909 0)
(4.9311 -0.0289233 0)
(4.87821 -0.0279476 0)
(4.83241 -0.0279394 0)
(4.78753 -0.0284156 0)
(4.74293 -0.0290636 0)
(4.69915 -0.029835 0)
(4.65618 -0.0306493 0)
(4.6136 -0.0315363 0)
(4.57169 -0.0323545 0)
(4.52999 -0.03322 0)
(5.00739 0.0519298 0)
(5.13606 -0.00440339 0)
(5.04717 -0.0234986 0)
(4.81171 -0.0315926 0)
(4.59607 -0.0233753 0)
(4.49724 -0.0135842 0)
(4.45508 -0.00969421 0)
(4.40259 -0.00868875 0)
(4.34471 -0.00812566 0)
(4.2969 -0.00787878 0)
(4.25495 -0.00798067 0)
(4.21295 -0.00819815 0)
(4.17088 -0.00841032 0)
(4.12962 -0.0086441 0)
(4.08898 -0.00887017 0)
(4.04905 -0.00911171 0)
(4.00942 -0.009332 0)
(3.97068 -0.00957033 0)
(0.0206871 -0.0460459 -1.73498e-20)
(0.0678618 -0.0513249 1.72235e-20)
(0.117144 -0.0508415 0)
(0.166391 -0.0506446 0)
(0.215836 -0.0504912 0)
(0.265522 -0.050299 -1.67042e-20)
(0.315408 -0.0500642 0)
(0.365449 -0.049787 0)
(0.415601 -0.0494669 0)
(0.465819 -0.0491031 0)
(0.516055 -0.0486949 1.60592e-20)
(0.56626 -0.0482418 0)
(0.616382 -0.0477432 0)
(0.666369 -0.0471992 0)
(0.716167 -0.0466098 0)
(0.765721 -0.0459755 1.54207e-20)
(0.814977 -0.0452973 0)
(0.863878 -0.0445763 0)
(0.912369 -0.0438143 0)
(0.960397 -0.0430131 0)
(1.00791 -0.0421751 0)
(1.05485 -0.0413028 0)
(1.10117 -0.0403991 0)
(1.14683 -0.0394671 1.44193e-20)
(1.19177 -0.0385099 -1.42962e-20)
(1.23597 -0.037531 1.41737e-20)
(1.27937 -0.0365338 1.40518e-20)
(1.32194 -0.0355218 0)
(1.36365 -0.0344985 0)
(1.40448 -0.0334673 -1.36892e-20)
(1.44439 -0.0324315 -1.35694e-20)
(1.48337 -0.0313943 0)
(1.5214 -0.0303588 0)
(1.55846 -0.0293279 -1.32136e-20)
(1.59454 -0.0283043 0)
(1.62964 -0.0272905 0)
(1.66375 -0.0262889 1.2863e-20)
(1.69687 -0.0253014 0)
(1.72899 -0.0243301 1.26321e-20)
(1.76013 -0.0233766 2.50351e-20)
(1.79029 -0.0224424 0)
(1.81947 -0.0215286 0)
(1.84769 -0.0206365 0)
(1.87496 -0.0197669 0)
(1.90129 -0.0189206 0)
(1.92669 -0.0180981 2.36849e-20)
(1.95119 -0.0172999 2.34639e-20)
(1.9748 -0.0165262 2.32441e-20)
(1.99754 -0.0157772 0)
(2.01942 -0.015053 -2.28079e-20)
(2.04047 -0.0143535 0)
(2.06071 -0.0136785 2.23765e-20)
(2.08015 -0.013028 2.21625e-20)
(2.09882 -0.0124015 0)
(2.11674 -0.0117988 0)
(2.13393 -0.0112193 0)
(2.15041 -0.0106628 2.13182e-20)
(2.1662 -0.0101286 0)
(2.18132 -0.00961639 0)
(2.1958 -0.00912543 0)
(2.20966 -0.00865527 0)
(2.22291 -0.00820526 0)
(2.23558 -0.00777488 0)
(2.24768 -0.00736347 0)
(2.25924 -0.00697048 0)
(2.27027 -0.00659525 -1.94871e-20)
(2.2808 -0.00623723 0)
(2.29084 -0.00589577 0)
(2.30041 -0.00557033 1.8898e-20)
(2.30953 -0.00526027 1.87039e-20)
(2.31821 -0.00496507 0)
(2.32648 -0.0046841 -1.83194e-20)
(2.33434 -0.0044169 1.81289e-20)
(2.34182 -0.0041628 0)
(2.34893 -0.00392138 -1.77514e-20)
(2.35568 -0.00369206 0)
(2.36209 -0.00347437 0)
(2.36818 -0.00326777 1.71939e-20)
(2.37395 -0.00307187 0)
(2.37943 -0.00288611 -1.68281e-20)
(2.38461 -0.00271012 0)
(2.38953 -0.00254341 1.64669e-20)
(2.39418 -0.00238564 1.62881e-20)
(2.39858 -0.00223629 1.61104e-20)
(2.40274 -0.00209505 3.18676e-20)
(2.40667 -0.00196146 -3.15168e-20)
(2.41038 -0.00183525 0)
(2.41388 -0.00171584 0)
(2.41719 -0.00160296 0)
(2.4203 -0.00149624 -3.01362e-20)
(2.42324 -0.00139499 -2.97967e-20)
(2.426 -0.00129789 2.94594e-20)
(2.4286 -0.00120625 0)
(2.43104 -0.00111349 -2.87915e-20)
(2.43332 -0.00101825 -2.84608e-20)
(2.43545 -0.00093518 -2.81324e-20)
(2.43744 -0.000864738 0)
(2.43929 -0.000802351 0)
(2.44103 -0.000745095 0)
(2.44266 -0.000691531 -2.68402e-20)
(2.44418 -0.000641139 0)
(2.4456 -0.000593623 0)
(2.44693 -0.000548854 2.58935e-20)
(2.44817 -0.000506711 0)
(2.44933 -0.000467061 0)
(2.4504 -0.000429843 2.49655e-20)
(2.4514 -0.000394922 0)
(2.45233 -0.00036225 0)
(2.45319 -0.000331681 -2.40559e-20)
(2.45398 -0.000303147 -2.37567e-20)
(2.45472 -0.000276498 0)
(2.4554 -0.000251655 2.31643e-20)
(2.45602 -0.00022848 0)
(2.4566 -0.000206902 -2.25798e-20)
(2.45713 -0.000186811 0)
(2.45761 -0.000168092 -2.20029e-20)
(2.45806 -0.00015071 -2.17174e-20)
(2.45846 -0.000134511 0)
(2.45882 -0.000119561 0)
(2.45916 -0.000105665 0)
(2.45945 -9.28094e-05 0)
(2.45972 -8.08267e-05 0)
(2.45996 -6.96383e-05 0)
(2.46018 -5.92206e-05 0)
(2.46036 -4.95408e-05 -1.94995e-20)
(2.46053 -4.06058e-05 1.92304e-20)
(2.46067 -3.23529e-05 0)
(2.46079 -2.47563e-05 0)
(2.46088 -1.77494e-05 0)
(2.46097 -1.13019e-05 0)
(2.46103 -5.35797e-06 3.58213e-20)
(2.46108 1.0275e-07 0)
(2.46111 5.135e-06 -3.47891e-20)
(2.46113 9.74703e-06 3.4278e-20)
(2.46113 1.39971e-05 0)
(2.46112 1.78913e-05 0)
(2.4611 2.1483e-05 0)
(2.46107 2.47696e-05 -3.22657e-20)
(2.46103 2.77158e-05 -3.17706e-20)
(2.46098 3.03992e-05 0)
(2.46092 3.27804e-05 -3.07896e-20)
(2.46085 3.50211e-05 -3.03037e-20)
(2.46077 3.71126e-05 2.98209e-20)
(2.46068 3.9138e-05 0)
(2.46059 4.10655e-05 0)
(2.46049 4.29617e-05 2.83901e-20)
(2.46038 4.47957e-05 0)
(2.46027 4.66335e-05 0)
(2.46015 4.84711e-05 0)
(2.46002 5.03763e-05 0)
(2.45988 5.23626e-05 -2.6063e-20)
(2.45973 5.45064e-05 -2.56059e-20)
(2.45958 5.68567e-05 0)
(2.45941 5.95137e-05 -2.46997e-20)
(2.45923 6.25577e-05 0)
(2.45904 6.61366e-05 0)
(2.45883 7.03933e-05 -2.33603e-20)
(2.4586 7.55521e-05 0)
(2.45835 8.18472e-05 -2.248e-20)
(2.45807 8.96273e-05 0)
(2.45776 9.92911e-05 0)
(2.4574 0.000111401 -2.11782e-20)
(2.45698 0.00012664 0)
(2.45649 0.000145942 -2.03222e-20)
(2.45592 0.000170487 0)
(2.45523 0.000201899 0)
(2.45439 0.000242287 0)
(2.45335 0.000294583 1.86373e-20)
(2.45206 0.000362781 0)
(2.45044 0.000452577 -1.78075e-20)
(2.44837 0.000572164 0)
(2.4457 0.000733851 0)
(2.4422 0.000957207 0)
(2.43751 0.00127057 0)
(2.43119 0.00174254 0)
(2.42194 0.00238308 0)
(2.40983 0.00392274 0)
(2.38498 0.00478308 2.90907e-20)
(2.36178 0.0183151 0)
(2.25968 0.0194574 0)
(0.0203473 -0.139922 5.20668e-20)
(0.0693082 -0.15739 -5.16869e-20)
(0.119342 -0.155944 0)
(0.169565 -0.155296 3.39444e-20)
(0.220001 -0.154811 0)
(0.270668 -0.154217 1.67023e-20)
(0.321535 -0.153497 -3.31655e-20)
(0.37256 -0.15265 -3.29065e-20)
(0.4237 -0.151671 0)
(0.474908 -0.150559 -3.23897e-20)
(0.526136 -0.149311 -1.60572e-20)
(0.577333 -0.147924 0)
(0.628446 -0.146397 0)
(0.679422 -0.14473 0)
(0.730204 -0.142923 0)
(0.780735 -0.140978 -1.54187e-20)
(0.830958 -0.138898 0)
(0.880816 -0.136686 3.03447e-20)
(0.930251 -0.134347 0)
(0.979207 -0.131889 0)
(1.02763 -0.129316 -2.95904e-20)
(1.07547 -0.126639 0)
(1.12266 -0.123865 2.90923e-20)
(1.16918 -0.121005 -1.44175e-20)
(1.21496 -0.118068 1.42945e-20)
(1.25996 -0.115064 -1.4172e-20)
(1.30415 -0.112005 -1.40501e-20)
(1.34749 -0.108901 0)
(1.38995 -0.105763 0)
(1.4315 -0.102601 1.36876e-20)
(1.47211 -0.0994253 -1.35746e-20)
(1.51176 -0.0962461 0)
(1.55044 -0.0930726 0)
(1.58814 -0.0899136 1.32122e-20)
(1.62483 -0.0867775 0)
(1.66052 -0.0836718 0)
(1.6952 -0.0806037 -1.28617e-20)
(1.72886 -0.0775795 0)
(1.76152 -0.0746049 1.26352e-20)
(1.79317 -0.0716851 -2.50328e-20)
(1.82383 -0.0688245 0)
(1.85349 -0.066027 0)
(1.88218 -0.0632959 -4.87122e-20)
(1.90989 -0.0606338 -4.82631e-20)
(1.93666 -0.058043 -4.78163e-20)
(1.96248 -0.0555253 2.36888e-20)
(1.98739 -0.0530819 -2.34621e-20)
(2.01139 -0.0507136 -6.97322e-20)
(2.03451 -0.048421 4.60524e-20)
(2.05676 -0.0462042 2.28064e-20)
(2.07816 -0.0440631 0)
(2.09875 -0.0419973 -2.2375e-20)
(2.11852 -0.0400059 2.21649e-20)
(2.13752 -0.0380883 0)
(2.15575 -0.0362433 0)
(2.17324 -0.0344695 0)
(2.19002 -0.0327659 -2.1317e-20)
(2.2061 -0.0311306 0)
(2.2215 -0.0295624 4.18066e-20)
(2.23625 -0.0280594 0)
(2.25037 -0.0266199 4.09856e-20)
(2.26388 -0.0252421 0)
(2.27679 -0.0239244 -4.01741e-20)
(2.28914 -0.0226647 0)
(2.30093 -0.0214614 3.93719e-20)
(2.31219 -0.0203124 -1.94881e-20)
(2.32294 -0.0192161 0)
(2.33319 -0.0181705 -3.81864e-20)
(2.34297 -0.0171739 -1.88973e-20)
(2.35229 -0.0162244 -1.87033e-20)
(2.36117 -0.0153203 0)
(2.36963 -0.0144599 -1.83199e-20)
(2.37768 -0.0136415 -1.81283e-20)
(2.38535 -0.0128633 0)
(2.39263 -0.0121239 1.77508e-20)
(2.39956 -0.0114216 -3.51287e-20)
(2.40614 -0.0107548 0)
(2.4124 -0.0101222 -1.71935e-20)
(2.41833 -0.00952216 0)
(2.42397 -0.00895331 5.04837e-20)
(2.42931 -0.00841438 0)
(2.43437 -0.00790394 -4.94002e-20)
(2.43917 -0.00742083 -1.62877e-20)
(2.44372 -0.00696364 1.61105e-20)
(2.44803 -0.00653132 3.18679e-20)
(2.4521 -0.0061226 -3.15171e-20)
(2.45595 -0.00573649 0)
(2.45959 -0.0053716 0)
(2.46303 -0.00502706 0)
(2.46628 -0.00470185 9.04078e-20)
(2.46935 -0.00439451 2.97962e-20)
(2.47224 -0.00410388 -2.94589e-20)
(2.47498 -0.00382972 0)
(2.47755 -0.00356901 -2.87916e-20)
(2.47998 -0.00332116 2.84605e-20)
(2.48229 -0.00308883 2.8132e-20)
(2.48448 -0.00287407 0)
(2.48655 -0.00267483 0)
(2.48849 -0.00248879 0)
(2.49032 -0.00231451 2.68399e-20)
(2.49204 -0.00215108 0)
(2.49365 -0.00199774 -5.24136e-20)
(2.49517 -0.00185391 -7.76798e-20)
(2.49659 -0.00171904 5.11638e-20)
(2.49792 -0.00159262 0)
(2.49917 -0.00147422 2.49654e-20)
(2.50034 -0.00136341 0)
(2.50143 -0.00125985 4.87139e-20)
(2.50245 -0.0011631 -2.40558e-20)
(2.50341 -0.00107282 -2.37567e-20)
(2.5043 -0.000988583 0)
(2.50514 -0.000910071 -6.94926e-20)
(2.50592 -0.0008369 4.57419e-20)
(2.50665 -0.000768768 2.25796e-20)
(2.50733 -0.000705361 0)
(2.50796 -0.000646337 2.20028e-20)
(2.50855 -0.000591504 6.51518e-20)
(2.5091 -0.000540524 0)
(2.50961 -0.000493324 4.23036e-20)
(2.51009 -0.000449512 4.17437e-20)
(2.51053 -0.000408924 4.11875e-20)
(2.51094 -0.000371185 0)
(2.51132 -0.000336069 0)
(2.51168 -0.000303413 0)
(2.512 -0.000273118 -1.94995e-20)
(2.51231 -0.000245123 -1.92304e-20)
(2.51259 -0.00021927 0)
(2.51285 -0.000195445 -3.73947e-20)
(2.51309 -0.000173457 -3.68668e-20)
(2.51332 -0.000153208 0)
(2.51352 -0.000134533 -3.58213e-20)
(2.51372 -0.000117363 -7.06071e-20)
(2.51389 -0.000101535 3.47891e-20)
(2.51406 -8.70153e-05 3.4278e-20)
(2.51421 -7.36356e-05 0)
(2.51434 -6.1364e-05 0)
(2.51447 -5.00631e-05 0)
(2.51459 -3.97166e-05 3.22658e-20)
(2.5147 -3.03252e-05 -3.17707e-20)
(2.5148 -2.17608e-05 -6.25573e-20)
(2.51489 -1.40407e-05 3.07897e-20)
(2.51497 -6.89935e-06 -3.03039e-20)
(2.51505 -2.86776e-07 -2.9821e-20)
(2.51512 5.99943e-06 0)
(2.51519 1.19552e-05 0)
(2.51525 1.77208e-05 2.83903e-20)
(2.5153 2.32841e-05 0)
(2.51535 2.87917e-05 0)
(2.51539 3.42797e-05 -5.39713e-20)
(2.51543 3.9918e-05 0)
(2.51546 4.57867e-05 -2.60632e-20)
(2.51548 5.20981e-05 2.56061e-20)
(2.5155 5.9006e-05 0)
(2.51551 6.67928e-05 -2.47e-20)
(2.51551 7.57222e-05 0)
(2.5155 8.62106e-05 0)
(2.51547 9.8696e-05 2.33605e-20)
(2.51543 0.000113813 -4.58384e-20)
(2.51537 0.000132286 2.24803e-20)
(2.51528 0.000155119 0)
(2.51517 0.00018352 0)
(2.51501 0.000219122 -2.11785e-20)
(2.51481 0.000263959 0)
(2.51454 0.000320767 -2.03225e-20)
(2.51419 0.000393052 0)
(2.51374 0.000485547 0)
(2.51315 0.000604486 0)
(2.51238 0.000758409 -1.86375e-20)
(2.51138 0.000958974 0)
(2.51008 0.00122262 1.78078e-20)
(2.50837 0.00157291 0)
(2.50611 0.00204473 0)
(2.50311 0.00269266 -3.31548e-20)
(2.49905 0.00359866 3.23408e-20)
(2.49352 0.00493328 0)
(2.48558 0.00684558 0)
(2.47491 0.0106294 0)
(2.4572 0.0151906 -8.72869e-20)
(2.43793 0.0377075 0)
(2.4113 0.051545 5.49586e-20)
(0.0203732 -0.234245 3.67953e-23)
(0.0697749 -0.263779 6.89558e-20)
(0.120015 -0.261295 0)
(0.170512 -0.260177 -6.79134e-20)
(0.221242 -0.259357 0)
(0.272212 -0.258364 0)
(0.323389 -0.257162 -3.31239e-23)
(0.374729 -0.255749 3.29012e-20)
(0.426189 -0.254117 3.2674e-20)
(0.477721 -0.25226 3.23845e-20)
(0.529274 -0.250173 0)
(0.580796 -0.247851 0)
(0.632233 -0.245293 -3.16403e-20)
(0.683527 -0.242496 -6.27664e-20)
(0.73462 -0.239461 6.22536e-20)
(0.785451 -0.236191 0)
(0.835963 -0.232692 6.12322e-20)
(0.886093 -0.228968 -3.03401e-20)
(0.935783 -0.22503 0)
(0.984974 -0.220889 5.97127e-20)
(1.03361 -0.216555 2.95861e-20)
(1.08164 -0.212045 -5.87091e-20)
(1.129 -0.207372 -2.90882e-20)
(1.17565 -0.202554 0)
(1.22154 -0.197608 5.72194e-20)
(1.26663 -0.192552 5.67272e-20)
(1.31089 -0.187403 0)
(1.35426 -0.182181 5.57496e-20)
(1.39673 -0.176904 0)
(1.43827 -0.171589 5.47813e-20)
(1.47885 -0.166253 2.71394e-20)
(1.51845 -0.160913 0)
(1.55706 -0.155586 0)
(1.59466 -0.150285 0)
(1.63125 -0.145024 0)
(1.66682 -0.139817 0)
(1.70137 -0.134675 0)
(1.7349 -0.129608 5.10034e-20)
(1.76741 -0.124626 -7.58059e-20)
(1.7989 -0.119738 0)
(1.82939 -0.114951 0)
(1.85889 -0.11027 0)
(1.8874 -0.105702 -1.11802e-23)
(1.91495 -0.10125 4.82597e-20)
(1.94154 -0.0969194 9.56361e-20)
(1.96719 -0.0927114 -9.47469e-20)
(1.99192 -0.0886284 -4.69357e-20)
(2.01575 -0.0846719 4.64872e-20)
(2.0387 -0.0808425 7.88944e-24)
(2.06078 -0.0771403 4.56223e-20)
(2.08202 -0.073565 0)
(2.10244 -0.0701159 4.47586e-20)
(2.12207 -0.0667916 6.22153e-24)
(2.14091 -0.0635907 0)
(2.15899 -0.0605112 0)
(2.17634 -0.0575511 -4.30593e-20)
(2.19298 -0.0547081 0)
(2.20892 -0.0519796 0)
(2.2242 -0.0493629 4.18139e-20)
(2.23882 -0.0468552 8.27955e-20)
(2.25282 -0.0444536 -4.09844e-20)
(2.26621 -0.0421551 0)
(2.27902 -0.0399568 4.0173e-20)
(2.29125 -0.0378554 0)
(2.30295 -0.035848 3.9377e-20)
(2.31411 -0.0339315 3.89736e-20)
(2.32477 -0.0321027 -7.71621e-20)
(2.33493 -0.0303586 -3.81906e-20)
(2.34463 -0.0286961 0)
(2.35387 -0.0271124 7.48188e-20)
(2.36268 -0.0256043 0)
(2.37106 -0.0241692 1.09918e-19)
(2.37905 -0.022804 7.25179e-20)
(2.38664 -0.0215061 7.17604e-20)
(2.39387 -0.0202728 -7.10076e-20)
(2.40074 -0.0191013 1.05388e-19)
(2.40726 -0.0179892 0)
(2.41346 -0.0169339 0)
(2.41935 -0.0159331 -6.80432e-20)
(2.42494 -0.0149843 -1.0097e-19)
(2.43024 -0.0140854 0)
(2.43526 -0.0132341 3.29335e-20)
(2.44002 -0.0124282 0)
(2.44453 -0.0116658 -9.66628e-20)
(2.4488 -0.0109447 1.51541e-24)
(2.45284 -0.0102632 -1.40834e-24)
(2.45666 -0.00961939 6.23373e-20)
(2.46027 -0.00901134 0)
(2.46368 -0.00843743 -6.09566e-20)
(2.46691 -0.00789616 1.04319e-24)
(2.46995 -0.00738576 0)
(2.47282 -0.00690539 0)
(2.47553 -0.00645293 0)
(2.47808 -0.0060297 5.75826e-20)
(2.48048 -0.00563591 0)
(2.48274 -0.00526145 0)
(2.48488 -0.00490526 0)
(2.48688 -0.00456931 0)
(2.48877 -0.00425366 0)
(2.49055 -0.00395751 5.36805e-20)
(2.49221 -0.00367982 0)
(2.49378 -0.00341953 5.24135e-20)
(2.49525 -0.00317562 5.17865e-20)
(2.49663 -0.0029471 -5.11638e-20)
(2.49792 -0.00273314 0)
(2.49914 -0.00253291 -4.99306e-20)
(2.50027 -0.00234572 0)
(2.50133 -0.00217081 -4.87138e-20)
(2.50233 -0.00200753 4.81114e-20)
(2.50326 -0.00185514 1.4254e-19)
(2.50413 -0.00171303 0)
(2.50494 -0.00158056 1.38985e-19)
(2.5057 -0.00145715 4.5742e-20)
(2.5064 -0.00134223 0)
(2.50706 -0.00123529 8.91611e-20)
(2.50768 -0.00113578 8.80112e-20)
(2.50825 -0.00104329 -1.30303e-19)
(2.50878 -0.000957456 0)
(2.50928 -0.000877862 -4.23035e-20)
(2.50974 -0.000804052 -4.17436e-20)
(2.51017 -0.000735559 -1.23562e-19)
(2.51057 -0.000671855 0)
(2.51094 -0.000612625 0)
(2.51129 -0.000557606 0)
(2.51161 -0.000506658 -3.89989e-20)
(2.51191 -0.000459566 0)
(2.51218 -0.000416102 0)
(2.51244 -0.00037599 3.73946e-20)
(2.51267 -0.000338986 3.68667e-20)
(2.51289 -0.000304863 0)
(2.51309 -0.000273411 0)
(2.51328 -0.000244453 7.06069e-20)
(2.51345 -0.000217788 0)
(2.51361 -0.000193276 -6.85558e-20)
(2.51375 -0.000170727 -6.754e-20)
(2.51389 -0.00014999 0)
(2.51401 -0.000130946 0)
(2.51413 -0.000113534 6.45314e-20)
(2.51423 -9.76832e-05 5.29499e-26)
(2.51433 -8.32679e-05 4.80266e-26)
(2.51442 -7.01296e-05 0)
(2.5145 -5.79814e-05 1.21215e-19)
(2.51458 -4.66803e-05 0)
(2.51465 -3.603e-05 0)
(2.51472 -2.59521e-05 0)
(2.51477 -1.62952e-05 -5.67805e-20)
(2.51483 -6.98507e-06 0)
(2.51487 2.16308e-06 1.09804e-19)
(2.51492 1.12781e-05 5.39711e-20)
(2.51495 2.05853e-05 0)
(2.51498 3.02762e-05 5.21263e-20)
(2.51501 4.06495e-05 0)
(2.51502 5.19994e-05 0)
(2.51503 6.47548e-05 1.482e-19)
(2.51503 7.93869e-05 -9.70034e-20)
(2.51502 9.65374e-05 0)
(2.515 0.000116953 -9.34419e-20)
(2.51496 0.000141643 4.58382e-20)
(2.5149 0.000171818 0)
(2.51481 0.000209086 0)
(2.5147 0.000255452 0)
(2.51454 0.00031354 1.27071e-19)
(2.51433 0.000386705 0)
(2.51407 0.000479362 4.06448e-20)
(2.51372 0.000597249 0)
(2.51326 0.000748003 0)
(2.51267 0.000941763 0)
(2.5119 0.00119228 0)
(2.5109 0.00151832 0)
(2.5096 0.00194613 0)
(2.50789 0.00251307 6.95843e-20)
(2.50564 0.00327389 0)
(2.50265 0.00431279 3.31546e-20)
(2.49863 0.00575972 -9.70238e-20)
(2.49319 0.00786137 0)
(2.48554 0.0109607 0)
(2.47546 0.0163091 5.98252e-20)
(2.45968 0.0245589 5.8195e-20)
(2.4438 0.0442906 -5.6596e-20)
(2.41367 0.0684501 -5.49564e-20)
(0.0203239 -0.329284 -1.04341e-19)
(0.0704026 -0.371126 -1.03575e-19)
(0.121037 -0.367601 -6.8561e-20)
(0.171988 -0.366025 -3.40689e-20)
(0.223186 -0.364886 0)
(0.274634 -0.363507 6.69918e-20)
(0.326298 -0.361835 -3.32814e-20)
(0.378137 -0.359864 0)
(0.430103 -0.357583 -3.26686e-20)
(0.482147 -0.354982 0)
(0.534217 -0.352052 6.43842e-20)
(0.586257 -0.348786 0)
(0.638207 -0.34518 3.16351e-20)
(0.690006 -0.34123 6.27561e-20)
(0.741593 -0.336938 -6.22433e-20)
(0.792902 -0.332308 0)
(0.843868 -0.327347 -6.12223e-20)
(0.894429 -0.322064 0)
(0.94452 -0.316474 0)
(0.994079 -0.310593 -5.97033e-20)
(1.04305 -0.304438 0)
(1.09137 -0.298031 -4.98517e-23)
(1.13898 -0.291396 0)
(1.18585 -0.284555 0)
(1.23191 -0.277536 4.24591e-23)
(1.27713 -0.270363 -5.67191e-20)
(1.32147 -0.263065 -5.62675e-20)
(1.3649 -0.255666 -5.57421e-20)
(1.40738 -0.248193 0)
(1.44889 -0.240672 -1.09581e-19)
(1.4894 -0.233127 0)
(1.52891 -0.225582 -5.38448e-20)
(1.5674 -0.21806 0)
(1.60485 -0.21058 0)
(1.64127 -0.203162 5.24208e-20)
(1.67665 -0.195825 0)
(1.71098 -0.188584 -5.14838e-20)
(1.74428 -0.181453 2.05285e-23)
(1.77654 -0.174447 1.01094e-19)
(1.80779 -0.167575 -1.00193e-19)
(1.83801 -0.160849 0)
(1.86724 -0.154277 0)
(1.89548 -0.147865 -4.87468e-20)
(1.92274 -0.14162 0)
(1.94906 -0.135547 -4.78196e-20)
(1.97443 -0.129648 4.73749e-20)
(1.99888 -0.123927 4.69326e-20)
(2.02244 -0.118384 0)
(2.04511 -0.113021 -4.6055e-20)
(2.06693 -0.107838 -4.56197e-20)
(2.0879 -0.102834 9.0393e-20)
(2.10807 -0.0980078 -4.47563e-20)
(2.12744 -0.0933572 -4.4328e-20)
(2.14603 -0.0888799 0)
(2.16388 -0.0845733 0)
(2.181 -0.0804343 4.30575e-20)
(2.19741 -0.0764595 0)
(2.21314 -0.0726452 0)
(2.22821 -0.0689877 -8.36163e-20)
(2.24263 -0.0654829 -8.27928e-20)
(2.25644 -0.0621267 0)
(2.26964 -0.0589149 0)
(2.28227 -0.0558431 0)
(2.29434 -0.0529071 0)
(2.30586 -0.0501024 -7.87461e-20)
(2.31687 -0.0474247 7.79586e-20)
(2.32738 -0.0448698 7.71605e-20)
(2.3374 -0.0424332 1.52756e-19)