/*--------------------------------*- C++ -*----------------------------------*\
  =========                 |
  \\      /  F ield         | OpenFOAM: The Open Source CFD Toolbox
   \\    /   O peration     | Website:  https://openfoam.org
    \\  /    A nd           | Version:  7
     \\/     M anipulation  |
\*---------------------------------------------------------------------------*/
FoamFile
{
    version     2.0;
    format      ascii;
    class       volScalarField;
    location    "0.07";
    object      k;
}
// * * * * * * * * * * * * * * * * * * * * * * * * * * * * * * * * * * * * * //

dimensions      [0 2 -2 0 0 0 0];

internalField   nonuniform List<scalar> 
12225
(
0.332317
0.291427
0.257361
0.230632
0.211165
0.197889
0.189304
0.183998
0.180854
0.179062
0.178071
0.177529
0.177219
0.177015
0.176855
0.176694
0.176599
0.177918
0.412406
0.405362
0.384489
0.372506
0.369991
0.372967
0.378127
0.38361
0.38858
0.392735
0.396031
0.398555
0.400441
0.401829
0.402869
0.403589
0.404557
0.4044
0.385493
0.382626
0.372394
0.3627
0.35614
0.352694
0.351553
0.3519
0.353116
0.354766
0.356565
0.358342
0.360012
0.361542
0.362945
0.364219
0.36553
0.366578
0.377227
0.374585
0.368329
0.360854
0.353943
0.348279
0.343922
0.340706
0.338415
0.336838
0.335791
0.335126
0.334737
0.33455
0.334519
0.334611
0.334844
0.335139
0.374687
0.371984
0.367029
0.360966
0.35484
0.349152
0.344081
0.339665
0.335879
0.33266
0.329931
0.327616
0.325652
0.323984
0.322571
0.321382
0.320397
0.31959
0.373368
0.370423
0.366208
0.361184
0.355941
0.350806
0.345937
0.341417
0.337283
0.333538
0.330161
0.327122
0.32439
0.321936
0.319734
0.31776
0.315996
0.314438
0.372514
0.369321
0.36551
0.361179
0.356641
0.352098
0.347664
0.343417
0.339406
0.335655
0.332168
0.328937
0.325953
0.3232
0.320665
0.318333
0.316193
0.314255
0.371959
0.368525
0.364868
0.360949
0.356905
0.352849
0.348849
0.34496
0.341225
0.337668
0.334304
0.331134
0.328158
0.32537
0.322763
0.320329
0.318064
0.315987
0.371598
0.367944
0.364291
0.360578
0.356845
0.35314
0.349493
0.345932
0.342488
0.33918
0.336019
0.333012
0.33016
0.327462
0.324915
0.322515
0.32026
0.318178
0.371364
0.367529
0.363811
0.360168
0.356599
0.353113
0.349714
0.34641
0.343214
0.340137
0.337186
0.334365
0.331675
0.329115
0.326685
0.324381
0.322205
0.320186
0.371212
0.367245
0.363446
0.359796
0.356288
0.352913
0.349662
0.34653
0.343516
0.340622
0.337849
0.335196
0.332661
0.330245
0.327944
0.325756
0.323684
0.321755
0.371122
0.367071
0.363208
0.359526
0.356019
0.352679
0.349492
0.346447
0.343536
0.340756
0.3381
0.335565
0.333147
0.330842
0.328648
0.32656
0.32458
0.322735
0.37106
0.366951
0.363038
0.359321
0.355797
0.352458
0.349293
0.346289
0.343437
0.340725
0.338147
0.335695
0.333363
0.331145
0.329036
0.327031
0.32513
0.323361
0.371014
0.366862
0.362913
0.359164
0.355615
0.352261
0.349092
0.346098
0.343268
0.340592
0.338058
0.335659
0.333385
0.331229
0.329184
0.327245
0.325411
0.323705
0.370981
0.3668
0.362829
0.359059
0.35549
0.352117
0.348935
0.345933
0.343103
0.340433
0.337913
0.335535
0.333288
0.331164
0.329155
0.327254
0.325461
0.323796
0.37096
0.366762
0.36278
0.359001
0.355423
0.352041
0.348848
0.345837
0.342999
0.340324
0.337803
0.335426
0.333184
0.331068
0.32907
0.327184
0.325407
0.323759
0.370949
0.366744
0.362761
0.358984
0.355408
0.352027
0.348836
0.345825
0.342986
0.340311
0.33779
0.335413
0.333171
0.331057
0.329062
0.327178
0.325405
0.323762
0.37095
0.366748
0.362772
0.359007
0.355445
0.352078
0.348901
0.345905
0.34308
0.340418
0.337909
0.335544
0.333313
0.331209
0.329224
0.32735
0.325585
0.323949
0.370968
0.366785
0.362832
0.359092
0.355557
0.352222
0.349078
0.346116
0.343326
0.3407
0.338225
0.335894
0.333697
0.331625
0.329669
0.327824
0.326087
0.324477
0.371009
0.366871
0.362962
0.359269
0.355785
0.352504
0.349419
0.346518
0.343792
0.341228
0.338817
0.336548
0.334411
0.332397
0.330498
0.328706
0.327018
0.325454
0.371076
0.367007
0.363167
0.359546
0.356139
0.352941
0.349943
0.347131
0.344494
0.342017
0.339689
0.337497
0.335433
0.333485
0.331644
0.329905
0.328263
0.326737
0.371186
0.367235
0.363515
0.36002
0.356744
0.35368
0.350815
0.34813
0.345607
0.343229
0.340985
0.338862
0.336848
0.334936
0.333118
0.331386
0.329741
0.328202
0.371377
0.36764
0.364142
0.360862
0.357785
0.354902
0.352188
0.349617
0.347165
0.344821
0.342574
0.340416
0.338342
0.336346
0.334425
0.332577
0.330804
0.32913
0.371727
0.368398
0.365292
0.362321
0.359457
0.356698
0.354021
0.351398
0.348821
0.346293
0.343818
0.341402
0.339047
0.336757
0.334538
0.332392
0.330324
0.328367
0.372418
0.369834
0.36731
0.364623
0.361773
0.358831
0.355818
0.352749
0.349656
0.346576
0.343539
0.340565
0.337673
0.334872
0.332172
0.329578
0.327096
0.32476
0.373941
0.37267
0.370686
0.367821
0.364333
0.360493
0.356449
0.352309
0.348176
0.344124
0.340201
0.336434
0.332842
0.329433
0.326211
0.323172
0.320317
0.317671
0.377772
0.378996
0.376533
0.371712
0.365932
0.359857
0.353775
0.347866
0.342256
0.33701
0.332154
0.327689
0.323604
0.319878
0.316488
0.313408
0.310613
0.308102
0.387603
0.394049
0.386649
0.374877
0.363342
0.353027
0.343999
0.336193
0.329517
0.323857
0.319092
0.315107
0.311795
0.30906
0.306814
0.304984
0.303507
0.302331
0.40238
0.394873
0.375478
0.356358
0.340889
0.329328
0.321111
0.315548
0.311998
0.309944
0.309003
0.308891
0.309392
0.310339
0.311605
0.313092
0.314736
0.316459
0.351309
0.326983
0.304721
0.284418
0.26625
0.250277
0.236467
0.224694
0.214761
0.206444
0.199523
0.193796
0.18908
0.185218
0.182071
0.179523
0.177475
0.175842
0.0161001
0.0379365
0.0494459
0.0575569
0.0634389
0.0677895
0.0711211
0.0738903
0.0766368
0.0801937
0.0849298
0.0912267
0.0993445
0.109155
0.119902
0.130138
0.137926
0.141466
0.140385
0.135914
0.136826
0.139787
0.141237
0.144263
0.141106
0.14299
0.142709
0.151313
0.16273
0.174237
0.185465
0.19626
0.206537
0.216246
0.225362
0.233874
0.241788
0.249117
0.255881
0.262108
0.267824
0.273063
0.277853
0.282227
0.286213
0.289841
0.293136
0.296125
0.29883
0.301273
0.303475
0.305455
0.307231
0.308821
0.31024
0.311505
0.31263
0.31363
0.314519
0.31531
0.316016
0.316651
0.317226
0.317754
0.318245
0.31871
0.319159
0.319603
0.320049
0.320507
0.320984
0.321487
0.322023
0.322598
0.323217
0.323887
0.324613
0.325403
0.326264
0.327207
0.328244
0.329393
0.330637
0.331919
0.333233
0.334575
0.335935
0.337303
0.33867
0.34002
0.34134
0.342613
0.343818
0.344934
0.345937
0.3468
0.34749
0.347973
0.348212
0.348163
0.347781
0.347016
0.345814
0.344121
0.341878
0.339029
0.33552
0.331302
0.326332
0.320579
0.314027
0.306677
0.298551
0.289693
0.280183
0.270148
0.259825
0.249725
0.241003
0.23494
0.229708
0.224438
0.219094
0.213714
0.208352
0.203052
0.197869
0.192844
0.188021
0.183469
0.179205
0.175178
0.172224
0.170849
0.173256
0.172891
0.17172
0.173798
0.174806
0.173174
0.172775
0.173829
0.172561
0.170038
0.166743
0.162952
0.158839
0.154525
0.150097
0.145618
0.141134
0.136682
0.132285
0.127963
0.123728
0.11959
0.115554
0.111624
0.107802
0.104087
0.100482
0.0969852
0.0936002
0.0903377
0.0872197
0.084253
0.0814429
0.0787936
0.0763062
0.0739801
0.0718136
0.0698038
0.0679471
0.0662391
0.0646764
0.0632592
0.0619934
0.0609123
0.0600577
0.059873
0.0272612
0.0566799
0.0737016
0.0844691
0.0915729
0.0965714
0.100554
0.104404
0.109
0.114781
0.12221
0.131744
0.143658
0.157797
0.173551
0.189997
0.206103
0.220245
0.23277
0.243025
0.252359
0.261587
0.268407
0.273725
0.280728
0.288611
0.298132
0.309672
0.32178
0.334275
0.347334
0.360795
0.374449
0.388102
0.401575
0.414713
0.427382
0.439479
0.450927
0.461676
0.471698
0.480984
0.48954
0.497383
0.504535
0.511024
0.516881
0.522137
0.526824
0.530973
0.534612
0.537773
0.540481
0.542765
0.544651
0.546163
0.547327
0.548168
0.548709
0.548975
0.548991
0.54878
0.548367
0.547778
0.547037
0.54617
0.545202
0.54416
0.543068
0.541955
0.540845
0.539764
0.538739
0.537795
0.536957
0.536249
0.535695
0.535317
0.535139
0.535181
0.535466
0.536015
0.536867
0.537991
0.539387
0.541061
0.543016
0.545254
0.547772
0.550567
0.553628
0.556943
0.560493
0.564255
0.5682
0.572288
0.576476
0.580707
0.584916
0.589025
0.592944
0.59657
0.599785
0.602461
0.604454
0.605616
0.605788
0.604817
0.602551
0.598856
0.593619
0.586759
0.578237
0.568061
0.556291
0.543052
0.528527
0.51297
0.496815
0.480999
0.465016
0.448851
0.432641
0.416529
0.400642
0.385089
0.369954
0.355296
0.341154
0.327535
0.314457
0.302
0.290121
0.278829
0.268957
0.259656
0.251084
0.242698
0.235948
0.229733
0.224571
0.22054
0.216235
0.211565
0.206637
0.201554
0.196398
0.191232
0.186099
0.181032
0.176055
0.171186
0.166436
0.161814
0.157325
0.152971
0.148753
0.144673
0.140729
0.136921
0.13325
0.12972
0.126339
0.12312
0.120068
0.117198
0.114523
0.11205
0.109773
0.107691
0.105804
0.104108
0.102602
0.101286
0.100166
0.0992685
0.0986457
0.0985137
0.0990012
0.102851
0.0439177
0.0795186
0.100167
0.113252
0.122122
0.128707
0.134376
0.140281
0.147482
0.156163
0.167039
0.180724
0.197664
0.216952
0.237533
0.258117
0.277374
0.294194
0.308078
0.318988
0.327527
0.334664
0.341467
0.349073
0.3585
0.370307
0.384466
0.400626
0.418207
0.436802
0.456108
0.475781
0.495483
0.51492
0.533851
0.552089
0.569499
0.585991
0.601514
0.616046
0.629589
0.642161
0.653791
0.664514
0.674368
0.683393
0.691628
0.699113
0.705882
0.711972
0.717414
0.722239
0.726477
0.730154
0.733298
0.735933
0.738084
0.739773
0.741025
0.741863
0.742308
0.742384
0.742113
0.74152
0.740627
0.73946
0.738043
0.736402
0.734565
0.732559
0.730413
0.728158
0.725825
0.723446
0.721054
0.718683
0.716369
0.714145
0.712048
0.710111
0.708366
0.706844
0.705591
0.704616
0.703906
0.703477
0.703345
0.703527
0.704038
0.704888
0.706085
0.707631
0.709523
0.711752
0.714302
0.717145
0.720246
0.723556
0.727015
0.730543
0.734046
0.73741
0.740502
0.743168
0.745237
0.746518
0.746811
0.745906
0.743599
0.739695
0.734024
0.72645
0.716887
0.705303
0.691733
0.676276
0.65909
0.640382
0.621041
0.6014
0.581333
0.560979
0.540532
0.520182
0.500092
0.480401
0.461215
0.442612
0.424649
0.407367
0.390823
0.375047
0.359967
0.345572
0.33205
0.319333
0.307402
0.29614
0.285743
0.276048
0.267191
0.259203
0.251767
0.244673
0.237815
0.231141
0.224635
0.218294
0.212118
0.20611
0.200272
0.194605
0.18911
0.183784
0.178625
0.173631
0.168797
0.164119
0.159593
0.155215
0.150983
0.146894
0.142947
0.139139
0.13547
0.131942
0.128561
0.125325
0.122234
0.119297
0.116524
0.113919
0.111487
0.109233
0.107172
0.105326
0.103739
0.102547
0.10188
0.102801
0.0626079
0.105496
0.129954
0.145407
0.156179
0.164578
0.172249
0.180638
0.18988
0.200875
0.214253
0.230279
0.24872
0.268708
0.288986
0.308208
0.325283
0.339643
0.351354
0.361013
0.369616
0.378377
0.388421
0.400567
0.415255
0.432517
0.452033
0.473306
0.495802
0.519058
0.542684
0.566341
0.589739
0.612638
0.634852
0.656239
0.676699
0.696168
0.714609
0.732008
0.748365
0.763697
0.778026
0.791381
0.803793
0.815295
0.825922
0.835707
0.844682
0.852878
0.860325
0.867051
0.873083
0.878448
0.88317
0.887272
0.890777
0.893707
0.896084
0.897928
0.89926
0.9001
0.90047
0.90039
0.899881
0.898966
0.897666
0.896005
0.894008
0.891699
0.889106
0.886256
0.883179
0.879905
0.876466
0.872896
0.869227
0.865495
0.861736
0.857984
0.854276
0.85065
0.847149
0.843839
0.840703
0.837761
0.835041
0.832575
0.830393
0.828522
0.826987
0.82581
0.825007
0.824588
0.824557
0.824907
0.825621
0.82667
0.828009
0.829576
0.831288
0.833041
0.834706
0.836128
0.837129
0.837506
0.837036
0.835482
0.832604
0.828165
0.821951
0.81378
0.803518
0.791091
0.776494
0.759787
0.741082
0.72083
0.69987
0.678185
0.65591
0.633261
0.610467
0.587746
0.565284
0.543237
0.521726
0.500848
0.480676
0.461274
0.442708
0.425002
0.408085
0.39189
0.376475
0.361879
0.348096
0.335074
0.322824
0.311287
0.300469
0.290388
0.280972
0.272108
0.263698
0.255667
0.247965
0.240557
0.233419
0.226533
0.219887
0.21347
0.207271
0.201282
0.195495
0.189902
0.184495
0.179267
0.17421
0.169316
0.16458
0.159995
0.155554
0.151251
0.147079
0.143036
0.139118
0.135327
0.13166
0.128118
0.124708
0.121446
0.118343
0.115412
0.11267
0.11015
0.107898
0.10602
0.104631
0.104172
0.0824645
0.133544
0.161606
0.179606
0.19253
0.202892
0.212431
0.221887
0.232014
0.243646
0.257227
0.272756
0.289765
0.307399
0.324634
0.34057
0.354694
0.367017
0.378046
0.38862
0.399718
0.412256
0.426904
0.443988
0.463512
0.485228
0.508728
0.53355
0.55925
0.585443
0.611804
0.63806
0.663982
0.689385
0.714117
0.738062
0.761129
0.783255
0.804396
0.824528
0.843637
0.861724
0.878795
0.894866
0.909955
0.924084
0.937276
0.949558
0.960954
0.971491
0.981193
0.990086
0.998193
1.00554
1.01214
1.01803
1.02322
1.02773
1.03158
1.0348
1.03739
1.03938
1.04079
1.04163
1.04192
1.04167
1.04092
1.03968
1.03796
1.03578
1.03318
1.03016
1.02676
1.023
1.01891
1.01451
1.00983
1.0049
0.999764
0.994443
0.98898
0.983412
0.97778
0.972178
0.966596
0.961058
0.955602
0.950267
0.945096
0.94013
0.935409
0.930972
0.926855
0.923088
0.919697
0.916699
0.914102
0.911902
0.910081
0.908602
0.907408
0.906419
0.905529
0.904602
0.903471
0.901941
0.89979
0.896772
0.892632
0.887108
0.879954
0.87095
0.859921
0.846752
0.831397
0.81388
0.794334
0.773614
0.751835
0.729155
0.705797
0.682007
0.658034
0.634102
0.610409
0.58712
0.564366
0.542253
0.520867
0.500278
0.480547
0.461691
0.443656
0.426383
0.409881
0.394182
0.379285
0.365158
0.351779
0.339107
0.327113
0.315795
0.305129
0.295059
0.285517
0.276441
0.267778
0.259488
0.251536
0.243896
0.236547
0.229471
0.222652
0.216078
0.209735
0.203614
0.197702
0.191991
0.18647
0.18113
0.175961
0.170954
0.1661
0.161388
0.15681
0.152358
0.148026
0.143811
0.139712
0.135726
0.131855
0.128109
0.124509
0.12107
0.117814
0.114774
0.111997
0.109569
0.107581
0.106262
0.102822
0.160138
0.192287
0.213307
0.228588
0.240779
0.251182
0.260701
0.270451
0.281162
0.293176
0.30644
0.320561
0.334934
0.348955
0.362223
0.374687
0.386668
0.398768
0.411701
0.42613
0.442544
0.46119
0.482071
0.504998
0.529666
0.555711
0.582769
0.610503
0.638619
0.666861
0.695014
0.722892
0.750336
0.777213
0.803412
0.828842
0.853431
0.877122
0.899874
0.921657
0.942454
0.962254
0.981055
0.998862
1.01568
1.03153
1.04642
1.06037
1.0734
1.08553
1.09677
1.10715
1.11668
1.1254
1.13331
1.14043
1.14678
1.15239
1.15725
1.1614
1.16484
1.1676
1.16968
1.1711
1.17187
1.17201
1.17154
1.17045
1.16878
1.16653
1.16373
1.16038
1.1565
1.15212
1.14726
1.14193
1.13617
1.13
1.12344
1.11654
1.10932
1.10183
1.09415
1.08629
1.07828
1.07016
1.06198
1.05377
1.0456
1.03751
1.02956
1.02179
1.01426
1.00701
1.00009
0.993513
0.987322
0.981525
0.976118
0.97108
0.966368
0.961911
0.957609
0.953329
0.948901
0.944124
0.938767
0.932578
0.925289
0.916637
0.906378
0.894301
0.880258
0.864176
0.846022
0.826426
0.805518
0.78347
0.760492
0.736825
0.712719
0.688419
0.664146
0.640095
0.616428
0.593279
0.570755
0.548943
0.527912
0.507713
0.488361
0.46982
0.452042
0.435023
0.418774
0.403291
0.388554
0.374535
0.361197
0.348504
0.336444
0.325
0.314141
0.30382
0.293991
0.28461
0.275637
0.267039
0.258788
0.250859
0.243233
0.235891
0.228817
0.221998
0.215421
0.209074
0.202946
0.197025
0.1913
0.185761
0.180396
0.175194
0.170143
0.165231
0.16045
0.15579
0.151246
0.146812
0.142487
0.138271
0.134166
0.130191
0.126367
0.122715
0.119269
0.116071
0.113192
0.110701
0.108737
0.120832
0.1841
0.220212
0.244165
0.261603
0.274844
0.285311
0.294416
0.303172
0.312271
0.322085
0.332689
0.343928
0.355538
0.367298
0.379156
0.391283
0.404045
0.417905
0.433311
0.450596
0.46993
0.491321
0.514634
0.539643
0.566076
0.593645
0.622075
0.651112
0.680529
0.710125
0.73972
0.769155
0.798288
0.826994
0.855161
0.882694
0.909509
0.935537
0.960721
0.985014
1.00838
1.0308
1.05224
1.07271
1.09219
1.11068
1.12819
1.14473
1.1603
1.17493
1.18861
1.20137
1.21323
1.22419
1.23427
1.2435
1.25187
1.25941
1.26614
1.27205
1.27718
1.28151
1.28508
1.28788
1.28994
1.29124
1.29182
1.29166
1.29079
1.28921
1.28693
1.28396
1.28031
1.27599
1.27101
1.2654
1.25916
1.25232
1.2449
1.23692
1.22842
1.21943
1.20999
1.20015
1.18994
1.17939
1.16855
1.15747
1.14621
1.13482
1.12335
1.11188
1.10045
1.08914
1.078
1.06709
1.05646
1.04616
1.03621
1.02665
1.01746
1.00862
1.00008
0.991767
0.98354
0.975243
0.96668
0.957627
0.947827
0.937017
0.924956
0.911393
0.896173
0.879249
0.860892
0.841181
0.820247
0.798264
0.775438
0.751997
0.728173
0.704192
0.680255
0.656543
0.633205
0.610363
0.588119
0.56655
0.545718
0.525664
0.5064
0.4879
0.470132
0.453083
0.436752
0.421134
0.406209
0.391953
0.378331
0.365312
0.352877
0.341013
0.329696
0.318896
0.308578
0.298708
0.289252
0.280182
0.27147
0.263094
0.255033
0.247271
0.239791
0.232579
0.225623
0.21891
0.212429
0.206169
0.200118
0.194265
0.188598
0.183104
0.17777
0.172585
0.167536
0.162613
0.157808
0.153114
0.148527
0.144045
0.139672
0.135415
0.131297
0.127341
0.123577
0.120045
0.1168
0.113898
0.111433
0.135429
0.203567
0.243012
0.269456
0.28827
0.302109
0.312789
0.321582
0.329449
0.337104
0.34503
0.353499
0.362623
0.372437
0.382985
0.394391
0.40687
0.420697
0.436143
0.453416
0.472623
0.493765
0.516742
0.541392
0.567508
0.594868
0.623252
0.652451
0.682268
0.712524
0.743052
0.773702
0.804329
0.834803
0.865002
0.894815
0.924139
0.952884
0.980969
1.00832
1.03488
1.0606
1.08543
1.10935
1.13232
1.15433
1.17537
1.19542
1.21449
1.23258
1.24969
1.26582
1.28099
1.29521
1.30848
1.32082
1.33223
1.34273
1.35233
1.36104
1.36887
1.37582
1.3819
1.38713
1.3915
1.39503
1.39771
1.39955
1.40056
1.40073
1.40007
1.39858
1.39626
1.39312
1.38916
1.38439
1.37881
1.37244
1.36528
1.35734
1.34865
1.33923
1.3291
1.31829
1.30683
1.29476
1.28213
1.26896
1.25531
1.24124
1.22679
1.21203
1.19701
1.18181
1.1665
1.15115
1.13584
1.12064
1.10562
1.09085
1.07637
1.06224
1.04848
1.03509
1.02206
1.00931
0.996726
0.98417
0.971482
0.95843
0.944756
0.930285
0.91467
0.898044
0.88028
0.861384
0.84141
0.820465
0.798695
0.776279
0.75341
0.730288
0.707102
0.684023
0.661203
0.638765
0.616813
0.595428
0.574674
0.554598
0.53523
0.516574
0.498613
0.481321
0.464683
0.448694
0.433341
0.418609
0.404476
0.390913
0.377893
0.365398
0.353414
0.341926
0.330912
0.320347
0.310205
0.30046
0.291089
0.282069
0.273381
0.265008
0.256933
0.249144
0.241626
0.234369
0.227362
0.220595
0.214056
0.207736
0.201622
0.195704
0.189968
0.184402
0.178993
0.173728
0.168595
0.163584
0.158687
0.153898
0.149215
0.144637
0.14017
0.135831
0.131643
0.127634
0.123839
0.120304
0.117073
0.114215
0.145623
0.217101
0.258817
0.286691
0.306669
0.321476
0.332763
0.341714
0.349263
0.356163
0.363011
0.370257
0.378225
0.387155
0.397247
0.40869
0.421668
0.436345
0.452841
0.471214
0.491449
0.513469
0.53715
0.562335
0.588855
0.616533
0.645201
0.674694
0.704859
0.735548
0.766621
0.797946
0.829393
0.860839
0.892166
0.923263
0.954023
0.98435
1.01415
1.04335
1.07187
1.09965
1.12663
1.15277
1.17802
1.20236
1.22577
1.24821
1.26969
1.29018
1.30969
1.32821
1.34575
1.3623
1.37788
1.39247
1.40611
1.41877
1.43049
1.44125
1.45107
1.45994
1.46788
1.47489
1.48096
1.4861
1.49031
1.49358
1.49591
1.49731
1.49777
1.49728
1.49584
1.49345
1.4901
1.48579
1.48053
1.47431
1.46713
1.45901
1.44994
1.43995
1.42903
1.41722
1.40451
1.39097
1.37663
1.36152
1.34568
1.32917
1.31203
1.29432
1.2761
1.25744
1.23841
1.21909
1.19957
1.17994
1.16029
1.1407
1.12125
1.10203
1.0831
1.06452
1.04636
1.0286
1.01118
0.994003
0.977036
0.960086
0.942844
0.925419
0.907533
0.889072
0.869946
0.850128
0.829645
0.808567
0.787004
0.765093
0.742981
0.72082
0.698752
0.676906
0.655391
0.634296
0.613693
0.593637
0.574169
0.555316
0.537092
0.519495
0.502507
0.486106
0.470274
0.455002
0.440276
0.426081
0.412398
0.399205
0.386479
0.374205
0.362372
0.350969
0.33998
0.32939
0.31918
0.309332
0.299829
0.290654
0.281792
0.273229
0.264953
0.256954
0.249221
0.241746
0.234518
0.227531
0.220776
0.214242
0.20792
0.2018
0.19587
0.190117
0.184528
0.179091
0.173793
0.168623
0.16357
0.158629
0.153794
0.149064
0.144443
0.139941
0.135581
0.131387
0.12739
0.123629
0.120139
0.116978
0.150422
0.223364
0.266294
0.295547
0.316902
0.332966
0.345291
0.354986
0.362949
0.36995
0.376651
0.383611
0.391285
0.40003
0.410125
0.421776
0.435134
0.450289
0.467275
0.486074
0.506623
0.528824
0.552557
0.577688
0.604081
0.631601
0.660113
0.68949
0.719607
0.750342
0.781575
0.813189
0.845067
0.877093
0.909154
0.941139
0.972942
1.00446
1.0356
1.06627
1.09639
1.12589
1.1547
1.18275
1.21001
1.23642
1.26196
1.28658
1.31027
1.33301
1.35478
1.37556
1.39537
1.41418
1.43199
1.44881
1.46464
1.47947
1.4933
1.50614
1.51798
1.52883
1.53869
1.54754
1.55539
1.56224
1.56808
1.5729
1.5767
1.57947
1.58119
1.58187
1.58148
1.58003
1.57749
1.57387
1.56916
1.56334
1.55641
1.54837
1.53922
1.52896
1.51759
1.5051
1.49151
1.47686
1.4612
1.44454
1.42693
1.4084
1.38901
1.36878
1.34779
1.32609
1.30375
1.28085
1.2575
1.23379
1.20981
1.18566
1.16144
1.13726
1.1132
1.08938
1.06597
1.043
1.02045
0.998213
0.97651
0.95525
0.934241
0.913411
0.892623
0.871776
0.850798
0.829654
0.80835
0.786927
0.765453
0.744016
0.72271
0.70163
0.680863
0.660482
0.640547
0.621103
0.60218
0.583801
0.565975
0.548708
0.531994
0.51582
0.500162
0.484998
0.470307
0.456075
0.442288
0.428931
0.415988
0.403441
0.391273
0.379472
0.368032
0.356944
0.3462
0.33579
0.325703
0.315929
0.306456
0.297273
0.288372
0.279743
0.271378
0.263271
0.255414
0.247803
0.240431
0.233293
0.226383
0.219693
0.213216
0.206943
0.200863
0.194966
0.18924
0.183671
0.178248
0.172958
0.16779
0.162738
0.157793
0.152955
0.148226
0.143609
0.139126
0.134798
0.130651
0.126719
0.123032
0.119638
0.149732
0.22322
0.266924
0.29726
0.319908
0.337357
0.351047
0.361999
0.371046
0.378924
0.3863
0.393764
0.401821
0.41088
0.421252
0.433152
0.446716
0.462006
0.479027
0.49774
0.518074
0.539939
0.563235
0.587856
0.613698
0.640655
0.668624
0.697504
0.727192
0.757588
0.788591
0.820096
0.851998
0.884191
0.916567
0.94902
0.981444
1.01374
1.0458
1.07754
1.10887
1.1397
1.16997
1.1996
1.22853
1.25672
1.2841
1.31064
1.33631
1.36108
1.38492
1.40781
1.42973
1.45068
1.47064
1.4896
1.50755
1.52449
1.54041
1.55531
1.56918
1.58202
1.59381
1.60456
1.61424
1.62287
1.63041
1.63687
1.64222
1.64646
1.64958
1.65155
1.65236
1.652
1.65044
1.64768
1.64371
1.63849
1.63203
1.62432
1.61533
1.60508
1.59354
1.58068
1.56654
1.55114
1.53452
1.51671
1.49773
1.47761
1.45639
1.43411
1.41082
1.38656
1.36139
1.3354
1.30869
1.28136
1.2535
1.22522
1.19663
1.16784
1.13895
1.11001
1.08146
1.05333
1.02567
0.998534
0.972027
0.946165
0.920913
0.89624
0.872091
0.848416
0.825173
0.802339
0.77991
0.757903
0.736346
0.715276
0.694732
0.674745
0.65534
0.63653
0.618317
0.600696
0.583651
0.567166
0.551217
0.535782
0.520833
0.506343
0.49228
0.478615
0.465324
0.452389
0.439792
0.427519
0.415557
0.403889
0.392506
0.381398
0.370561
0.359991
0.349686
0.339641
0.329852
0.320314
0.311023
0.301975
0.293165
0.284589
0.276245
0.26813
0.260242
0.252579
0.245139
0.23792
0.230918
0.22413
0.21755
0.211173
0.204989
0.19899
0.193165
0.187502
0.18199
0.176616
0.17137
0.166242
0.161225
0.156316
0.151515
0.146824
0.14226
0.13784
0.133588
0.129533
0.1257
0.122132
0.145379
0.218396
0.262219
0.293229
0.316972
0.335804
0.351041
0.363597
0.37421
0.383543
0.392209
0.400765
0.409705
0.419437
0.430278
0.442453
0.4561
0.471288
0.488029
0.506294
0.526033
0.54718
0.569662
0.593405
0.618334
0.644373
0.671445
0.699463
0.728348
0.758019
0.788391
0.819377
0.850883
0.882814
0.915069
0.947549
0.980152
1.01278
1.04533
1.0777
1.10982
1.14158
1.17292
1.20375
1.234
1.26361
1.29253
1.3207
1.34808
1.37463
1.40032
1.42511
1.44898
1.4719
1.49386
1.51485
1.53483
1.55381
1.57176
1.58868
1.60455
1.61935
1.63309
1.64574
1.65728
1.66772
1.67702
1.68517
1.69215
1.69795
1.70255
1.70592
1.70804
1.7089
1.70847
1.70672
1.70365
1.69922
1.69342
1.68623
1.67763
1.66761
1.65615
1.6432
1.6288
1.61298
1.59576
1.57715
1.55719
1.53589
1.51328
1.48939
1.46426
1.43793
1.41045
1.38183
1.35227
1.32185
1.29063
1.25872
1.22624
1.19332
1.16009
1.12672
1.09344
1.06042
1.02779
0.995717
0.964338
0.933767
0.904083
0.875344
0.847581
0.820811
0.795041
0.770269
0.746496
0.723716
0.701923
0.681104
0.661237
0.64229
0.624223
0.606986
0.590523
0.574774
0.559678
0.545175
0.531209
0.517727
0.50468
0.492023
0.479712
0.467712
0.455992
0.444528
0.4333
0.422292
0.411492
0.400886
0.390466
0.380227
0.370167
0.360286
0.350585
0.341065
0.331727
0.322573
0.313603
0.304819
0.296222
0.287813
0.279596
0.271571
0.263742
0.25611
0.248678
0.241446
0.234416
0.227588
0.220959
0.214525
0.208282
0.202222
0.196337
0.190616
0.185049
0.179624
0.174331
0.169159
0.164102
0.159154
0.154313
0.149584
0.144973
0.140498
0.136179
0.132041
0.128106
0.124414
0.138279
0.21009
0.253527
0.284855
0.309466
0.329581
0.346397
0.360712
0.373158
0.384294
0.39464
0.40468
0.41485
0.425525
0.437006
0.449518
0.463217
0.478193
0.49448
0.512076
0.530965
0.551117
0.572493
0.595053
0.618755
0.643559
0.669427
0.696235
0.723942
0.752497
0.781833
0.81188
0.842558
0.873785
0.905471
0.937524
0.969849
1.00235
1.03493
1.0675
1.09997
1.13223
1.16422
1.19585
1.22704
1.25772
1.28783
1.31731
1.34611
1.37417
1.40145
1.42791
1.45352
1.47824
1.50204
1.52491
1.5468
1.56771
1.5876
1.60647
1.62428
1.64103
1.65668
1.67122
1.68463
1.69689
1.70798
1.71787
1.72654
1.73396
1.74011
1.74497
1.7485
1.75068
1.75148
1.75088
1.74885
1.74535
1.74038
1.73389
1.72588
1.71631
1.70514
1.69235
1.67797
1.66202
1.6445
1.62544
1.60484
1.58273
1.55912
1.53404
1.50752
1.47959
1.4503
1.41969
1.38786
1.3549
1.32087
1.28589
1.25007
1.21353
1.17644
1.13898
1.10136
1.06379
1.02648
0.989664
0.953563
0.918387
0.884322
0.851527
0.820129
0.790222
0.761867
0.735097
0.709914
0.686299
0.664206
0.643573
0.624318
0.606347
0.589555
0.573831
0.559062
0.545137
0.531949
0.519401
0.507404
0.495877
0.484749
0.473957
0.463448
0.453175
0.443099
0.433192
0.42343
0.413793
0.404268
0.394843
0.385512
0.376269
0.367117
0.358056
0.34909
0.340226
0.331467
0.32282
0.314292
0.305887
0.297612
0.289475
0.281482
0.273639
0.265953
0.258432
0.251081
0.243905
0.23691
0.230098
0.223472
0.217031
0.210772
0.204692
0.198783
0.19304
0.18745
0.182006
0.176695
0.171509
0.166439
0.16148
0.156629
0.151888
0.147261
0.142763
0.13841
0.134224
0.130226
0.126451
0.12915
0.199324
0.242044
0.273419
0.298673
0.319906
0.338207
0.354268
0.368613
0.381688
0.393906
0.405653
0.417284
0.42911
0.441395
0.454358
0.46817
0.482964
0.498783
0.515621
0.533519
0.552494
0.572547
0.593674
0.615864
0.6391
0.663356
0.688588
0.71476
0.74183
0.769749
0.798463
0.827907
0.858012
0.8887
0.919891
0.951498
0.983432
1.0156
1.04792
1.0803
1.11264
1.14486
1.17688
1.20862
1.24
1.27094
1.30139
1.33128
1.36055
1.38915
1.41703
1.44414
1.47045
1.49591
1.52048
1.54413
1.56684
1.58857
1.60929
1.62897
1.64759
1.66511
1.68152
1.69678
1.71086
1.72374
1.73538
1.74576
1.75485
1.76261
1.76902
1.77403
1.77763
1.77976
1.78041
1.77954
1.77712
1.77312
1.7675
1.76023
1.7513
1.74063
1.72824
1.71414
1.69833
1.68083
1.66162
1.64073
1.61816
1.59393
1.56805
1.54055
1.51145
1.48078
1.44859
1.41495
1.37992
1.34356
1.30599
1.26729
1.22761
1.18711
1.14596
1.1044
1.06267
1.02104
0.979816
0.939298
0.899797
0.861605
0.824987
0.790169
0.757323
0.726567
0.69796
0.671507
0.647166
0.624852
0.604448
0.585814
0.568794
0.553221
0.538928
0.525753
0.513539
0.502143
0.491433
0.481292
0.471618
0.462321
0.453324
0.44456
0.435975
0.427524
0.41917
0.410885
0.402647
0.394439
0.386249
0.37807
0.369898
0.361733
0.353579
0.345442
0.337328
0.329246
0.321205
0.313215
0.305285
0.297427
0.289652
0.281969
0.274391
0.266928
0.259591
0.25239
0.245335
0.238435
0.231695
0.225123
0.218721
0.21249
0.206429
0.200534
0.194801
0.189221
0.183786
0.178486
0.173311
0.168255
0.16331
0.158474
0.153746
0.149129
0.144635
0.140277
0.136073
0.132044
0.128222
0.118587
0.186928
0.228752
0.259988
0.285684
0.307835
0.327446
0.34512
0.361278
0.376262
0.390379
0.403921
0.417168
0.430317
0.44356
0.457099
0.4711
0.485692
0.500967
0.516991
0.533825
0.551521
0.570117
0.589646
0.610128
0.631578
0.653999
0.677383
0.701717
0.72698
0.753142
0.780165
0.808002
0.836598
0.865891
0.895812
0.926285
0.957233
0.988572
1.02022
1.05208
1.08408
1.11613
1.14814
1.18003
1.21173
1.24315
1.27422
1.30487
1.33504
1.36467
1.39369
1.42205
1.44971
1.4766
1.50269
1.52793
1.55228
1.5757
1.59815
1.61959
1.64
1.65932
1.67753
1.69459
1.71047
1.72512
1.73852
1.75062
1.76139
1.77079
1.77879
1.78534
1.79041
1.79396
1.79595
1.79634
1.79509
1.79218
1.78755
1.78119
1.77304
1.76307
1.75129
1.73769
1.72226
1.70501
1.68593
1.66502
1.64229
1.61775
1.59139
1.56323
1.53329
1.5016
1.46818
1.43308
1.39635
1.35805
1.31827
1.27709
1.23465
1.19111
1.14666
1.10155
1.05606
1.01051
0.965281
0.920756
0.877349
0.835459
0.795456
0.757658
0.72231
0.689573
0.659523
0.632153
0.607388
0.585094
0.565096
0.547193
0.531167
0.5168
0.503876
0.492189
0.481549
0.471784
0.462739
0.454277
0.44628
0.438646
0.431287
0.424129
0.417109
0.410177
0.403291
0.396417
0.389531
0.382611
0.375644
0.36862
0.361535
0.354388
0.347182
0.339923
0.332617
0.325276
0.317909
0.310529
0.303149
0.295781
0.288441
0.281143
0.2739
0.266728
0.259642
0.252654
0.24578
0.23903
0.232415
0.225946
0.219628
0.213467
0.207464
0.201618
0.195928
0.190388
0.18499
0.179726
0.174589
0.169569
0.164662
0.159862
0.15517
0.150586
0.146118
0.141779
0.137584
0.133552
0.129712
0.106574
0.17306
0.213939
0.244938
0.270929
0.293826
0.314577
0.333739
0.351589
0.368384
0.384338
0.399635
0.414444
0.428913
0.443186
0.457407
0.471714
0.486232
0.501074
0.516339
0.532124
0.548513
0.565584
0.583404
0.602031
0.621512
0.641882
0.663167
0.685381
0.708527
0.732598
0.757577
0.783436
0.810139
0.83764
0.865884
0.894811
0.924354
0.954439
0.98499
1.01593
1.04717
1.07864
1.11025
1.14191
1.17355
1.20508
1.23643
1.26753
1.29829
1.32866
1.35855
1.38792
1.41669
1.44482
1.47224
1.49889
1.52474
1.54972
1.57379
1.5969
1.61902
1.64008
1.66004
1.67888
1.69652
1.71295
1.7281
1.74194
1.75442
1.7655
1.77514
1.78329
1.7899
1.79493
1.79834
1.80009
1.80012
1.79841
1.7949
1.78955
1.78235
1.77325
1.76225
1.74933
1.73448
1.71768
1.69893
1.67823
1.65555
1.63091
1.6043
1.57572
1.54518
1.5127
1.47828
1.44196
1.40378
1.36377
1.32202
1.27862
1.23368
1.18738
1.13992
1.09158
1.04267
0.993584
0.944768
0.896709
0.849918
0.804899
0.762122
0.721982
0.684778
0.650696
0.619803
0.592063
0.567347
0.545463
0.526172
0.50921
0.494306
0.481191
0.469613
0.459335
0.450144
0.441849
0.434283
0.427301
0.420775
0.414599
0.408679
0.402939
0.397312
0.391743
0.386186
0.380607
0.374974
0.369264
0.363462