/*--------------------------------*- C++ -*----------------------------------*\
  =========                 |
  \\      /  F ield         | OpenFOAM: The Open Source CFD Toolbox
   \\    /   O peration     | Website:  https://openfoam.org
    \\  /    A nd           | Version:  7
     \\/     M anipulation  |
\*---------------------------------------------------------------------------*/
FoamFile
{
    version     2.0;
    format      ascii;
    class       volVectorField;
    location    "0.07";
    object      U;
}
// * * * * * * * * * * * * * * * * * * * * * * * * * * * * * * * * * * * * * //

dimensions      [0 1 -1 0 0 0 0];

internalField   nonuniform List<vector> 
12225
(
(4.73344 -0.571227 0)
(4.3138 -0.430467 0)
(4.03266 -0.176848 0)
(3.8225 -0.0513714 0)
(3.64638 -0.00436885 0)
(3.50206 0.0103131 0)
(3.38938 0.013428 0)
(3.30114 0.0128908 0)
(3.22944 0.0115518 0)
(3.16924 0.0103163 0)
(3.11762 0.00936683 0)
(3.07247 0.00866676 0)
(3.03218 0.00815365 0)
(2.99557 0.00779836 0)
(2.96149 0.00758578 0)
(2.92991 0.00760345 0)
(2.89576 0.00819938 0)
(2.87638 0.00813099 0)
(5.02998 0.295113 0)
(4.8421 0.245185 0)
(4.69154 0.170092 0)
(4.58482 0.107441 0)
(4.48541 0.0709464 0)
(4.3898 0.0522658 0)
(4.30349 0.0419158 0)
(4.22709 0.035133 0)
(4.15899 0.0302447 0)
(4.09809 0.0266514 0)
(4.04369 0.0239981 0)
(3.99496 0.0220243 0)
(3.95096 0.0205594 0)
(3.91089 0.0195299 0)
(3.87391 0.0188395 0)
(3.83983 0.018868 0)
(3.80671 0.0185744 0)
(3.77904 0.023404 0)
(4.96335 0.18758 0)
(4.82983 0.104173 0)
(4.75411 0.0860754 0)
(4.71065 0.0770152 0)
(4.66458 0.0686457 0)
(4.6137 0.0617664 0)
(4.56412 0.0558195 0)
(4.51754 0.0504223 0)
(4.47352 0.0457212 0)
(4.43204 0.0418482 0)
(4.3933 0.0387405 0)
(4.35728 0.036266 0)
(4.32372 0.034322 0)
(4.29232 0.0328741 0)
(4.26275 0.0318728 0)
(4.23482 0.0315781 0)
(4.2082 0.0316017 0)
(4.18285 0.0341544 0)
(4.96281 0.171219 0)
(4.8504 0.102888 0)
(4.78944 0.0972302 0)
(4.75981 0.0909104 0)
(4.7315 0.0815548 0)
(4.70076 0.0737126 0)
(4.67135 0.0673978 0)
(4.64388 0.0618802 0)
(4.61754 0.0570803 0)
(4.59212 0.0530714 0)
(4.56779 0.0497971 0)
(4.54463 0.0471494 0)
(4.52253 0.0450522 0)
(4.5014 0.0434872 0)
(4.4811 0.0424374 0)
(4.46153 0.0420736 0)
(4.4429 0.0422353 0)
(4.4243 0.0437987 0)
(4.97358 0.19534 0)
(4.88105 0.129409 0)
(4.82254 0.115091 0)
(4.79336 0.102471 0)
(4.77003 0.0902125 0)
(4.74727 0.0812765 0)
(4.72687 0.0745921 0)
(4.70873 0.0689532 0)
(4.69178 0.0641097 0)
(4.67557 0.0600798 0)
(4.66011 0.056796 0)
(4.64535 0.0541542 0)
(4.6312 0.0520852 0)
(4.61755 0.0505706 0)
(4.60434 0.0496069 0)
(4.59149 0.0492829 0)
(4.57926 0.0495464 0)
(4.56679 0.0506388 0)
(4.98215 0.218774 0)
(4.90815 0.150504 0)
(4.85291 0.127528 0)
(4.82276 0.110995 0)
(4.80064 0.097257 0)
(4.78089 0.0874865 0)
(4.76421 0.0802492 0)
(4.75024 0.0742742 0)
(4.73783 0.0692324 0)
(4.72638 0.0650794 0)
(4.71571 0.0617213 0)
(4.70573 0.0590465 0)
(4.69627 0.0569824 0)
(4.68721 0.0555018 0)
(4.67848 0.054598 0)
(4.67002 0.0543034 0)
(4.66203 0.054604 0)
(4.65381 0.0555108 0)
(4.98793 0.235383 0)
(4.9303 0.167366 0)
(4.88048 0.138986 0)
(4.85025 0.119825 0)
(4.82839 0.104608 0)
(4.80977 0.0936347 0)
(4.79458 0.085504 0)
(4.7824 0.0789414 0)
(4.77211 0.0735149 0)
(4.76303 0.0690962 0)
(4.7549 0.0655531 0)
(4.74752 0.0627578 0)
(4.74071 0.060626 0)
(4.73432 0.0591158 0)
(4.72829 0.0582078 0)
(4.72252 0.0578982 0)
(4.71717 0.0581769 0)
(4.71167 0.0589891 0)
(4.99188 0.247505 0)
(4.94806 0.182537 0)
(4.90486 0.150737 0)
(4.87574 0.129255 0)
(4.85431 0.112387 0)
(4.83638 0.0999877 0)
(4.82188 0.0907607 0)
(4.81047 0.0834309 0)
(4.80117 0.0774639 0)
(4.79328 0.0726498 0)
(4.78647 0.0688153 0)
(4.78051 0.0658103 0)
(4.77519 0.0635335 0)
(4.77037 0.0619244 0)
(4.76594 0.0609461 0)
(4.76182 0.06057 0)
(4.7581 0.0607757 0)
(4.75431 0.0614953 0)
(4.99461 0.256785 0)
(4.96194 0.196187 0)
(4.92569 0.162215 0)
(4.89879 0.13877 0)
(4.87838 0.120382 0)
(4.86131 0.10657 0)
(4.84742 0.0961761 0)
(4.83648 0.0879717 0)
(4.8277 0.0813517 0)
(4.82045 0.0760382 0)
(4.81436 0.0718204 0)
(4.8092 0.0685245 0)
(4.80475 0.0660287 0)
(4.80086 0.0642527 0)
(4.79741 0.0631407 0)
(4.79431 0.0626449 0)
(4.79163 0.0627305 0)
(4.78893 0.0633303 0)
(4.99644 0.263863 0)
(4.97246 0.207977 0)
(4.94292 0.172871 0)
(4.91902 0.147969 0)
(4.90029 0.128353 0)
(4.88449 0.113275 0)
(4.87144 0.101739 0)
(4.86104 0.0926225 0)
(4.85272 0.085287 0)
(4.84593 0.0794043 0)
(4.84032 0.0747333 0)
(4.83568 0.0710792 0)
(4.83179 0.0683 0)
(4.82849 0.0662957 0)
(4.82568 0.0649921 0)
(4.82327 0.0643255 0)
(4.82127 0.0642465 0)
(4.81931 0.0646901 0)
(4.99765 0.269172 0)
(4.98025 0.217843 0)
(4.95678 0.182456 0)
(4.93629 0.156578 0)
(4.91972 0.136033 0)
(4.9056 0.11989 0)
(4.89374 0.107311 0)
(4.88415 0.0973107 0)
(4.87643 0.0892495 0)
(4.87016 0.0827671 0)
(4.86503 0.0776021 0)
(4.86084 0.0735436 0)
(4.8574 0.0704321 0)
(4.85457 0.0681499 0)
(4.85225 0.0666063 0)
(4.85033 0.0657239 0)
(4.84885 0.0654401 0)
(4.84742 0.0656901 0)
(4.99838 0.272886 0)
(4.98547 0.225335 0)
(4.96682 0.190206 0)
(4.94953 0.163755 0)
(4.93516 0.142564 0)
(4.92284 0.125626 0)
(4.91237 0.112217 0)
(4.9038 0.101475 0)
(4.89686 0.0927794 0)
(4.89123 0.085756 0)
(4.88665 0.080132 0)
(4.88295 0.075686 0)
(4.87996 0.0722462 0)
(4.87756 0.0696812 0)
(4.87565 0.0678875 0)
(4.87415 0.0667769 0)
(4.87307 0.0662779 0)
(4.87206 0.0663186 0)
(4.99886 0.275709 0)
(4.98937 0.231531 0)
(4.97483 0.196992 0)
(4.9606 0.17018 0)
(4.9485 0.148478 0)
(4.93809 0.130888 0)
(4.92919 0.116763 0)
(4.92183 0.105354 0)
(4.91586 0.0960723 0)
(4.91103 0.088538 0)
(4.90713 0.0824705 0)
(4.90402 0.0776415 0)
(4.90156 0.0738695 0)
(4.89964 0.0710121 0)
(4.89819 0.068955 0)
(4.89712 0.0676007 0)
(4.89646 0.0668705 0)
(4.89585 0.0666836 0)
(4.99922 0.278059 0)
(4.99263 0.237144 0)
(4.98198 0.203483 0)
(4.971 0.176481 0)
(4.96145 0.154349 0)
(4.95325 0.136167 0)
(4.94625 0.121352 0)
(4.94046 0.109273 0)
(4.93579 0.0993885 0)
(4.93207 0.0913183 0)
(4.92913 0.0847758 0)
(4.92685 0.0795276 0)
(4.92513 0.0753841 0)
(4.92388 0.0721927 0)
(4.92304 0.069829 0)
(4.92254 0.0681869 0)
(4.92239 0.067179 0)
(4.9223 0.0667209 0)
(4.99951 0.279924 0)
(4.99527 0.241874 0)
(4.98816 0.209226 0)
(4.98049 0.182177 0)
(4.9737 0.159686 0)
(4.96797 0.140973 0)
(4.96315 0.125513 0)
(4.95925 0.112782 0)
(4.9562 0.102298 0)
(4.95389 0.0936868 0)
(4.95221 0.0866575 0)
(4.95104 0.0809724 0)
(4.95031 0.0764344 0)
(4.94996 0.0728819 0)
(4.94993 0.0701808 0)
(4.95018 0.0682168 0)
(4.95073 0.0668943 0)
(4.95128 0.0661284 0)
(4.99973 0.281269 0)
(4.99741 0.245414 0)
(4.99342 0.213688 0)
(4.98904 0.186651 0)
(4.98521 0.163827 0)
(4.98215 0.144624 0)
(4.97978 0.12857 0)
(4.97804 0.115221 0)
(4.97691 0.104156 0)
(4.97631 0.0950148 0)
(4.97616 0.0875039 0)
(4.97637 0.0813806 0)
(4.97688 0.0764415 0)
(4.97766 0.0725161 0)
(4.97867 0.0694617 0)
(4.97987 0.0671563 0)
(4.98128 0.0654968 0)
(4.98265 0.0643989 0)
(4.99991 0.282005 0)
(4.99919 0.247388 0)
(4.99802 0.216173 0)
(4.99692 0.189027 0)
(4.99627 0.16582 0)
(4.99616 0.146127 0)
(4.9965 0.129523 0)
(4.99724 0.115612 0)
(4.99834 0.104012 0)
(4.99974 0.0943811 0)
(5.00138 0.0864223 0)
(5.00322 0.0798873 0)
(5.00522 0.0745656 0)
(5.00734 0.0702792 0)
(5.00958 0.0668774 0)
(5.0119 0.0642318 0)
(5.01433 0.0622328 0)
(5.01668 0.0607976 0)
(5.00008 0.281941 0)
(5.00086 0.247197 0)
(5.00247 0.215666 0)
(5.00483 0.188018 0)
(5.00774 0.164254 0)
(5.01099 0.144017 0)
(5.01447 0.126894 0)
(5.0181 0.112496 0)
(5.02182 0.100454 0)
(5.02557 0.0904234 0)
(5.02934 0.0821017 0)
(5.03308 0.0752306 0)
(5.0368 0.0695914 0)
(5.04049 0.0649985 0)
(5.04414 0.0612948 0)
(5.04775 0.0583466 0)
(5.05135 0.0560399 0)
(5.05479 0.054294 0)
(5.00031 0.280623 0)
(5.00294 0.243533 0)
(5.00788 0.21017 0)
(5.01443 0.181217 0)
(5.02166 0.156559 0)
(5.02903 0.135703 0)
(5.03634 0.118146 0)
(5.04348 0.103446 0)
(5.05039 0.0911926 0)
(5.05701 0.0810035 0)
(5.06332 0.072549 0)
(5.06935 0.0655528 0)
(5.07512 0.0597847 0)
(5.08064 0.0550509 0)
(5.08594 0.0511888 0)
(5.09104 0.0480622 0)
(5.09598 0.0455555 0)
(5.10064 0.0435907 0)
(5.00062 0.278028 0)
(5.00565 0.23625 0)
(5.01483 0.19945 0)
(5.02642 0.168401 0)
(5.03855 0.142578 0)
(5.05038 0.12111 0)
(5.06173 0.103307 0)
(5.07251 0.0886171 0)
(5.08265 0.076521 0)
(5.09211 0.0665544 0)
(5.10092 0.0583375 0)
(5.10915 0.0515676 0)
(5.11686 0.0459979 0)
(5.1241 0.0414255 0)
(5.13093 0.0376831 0)
(5.13739 0.0346339 0)
(5.14355 0.0321639 0)
(5.14931 0.030198 0)
(5.00096 0.274387 0)
(5.00893 0.226358 0)
(5.02311 0.185607 0)
(5.04017 0.152705 0)
(5.05716 0.126173 0)
(5.07316 0.104551 0)
(5.08819 0.0869639 0)
(5.10221 0.0727313 0)
(5.11513 0.0611914 0)
(5.12695 0.0517841 0)
(5.1378 0.0440898 0)
(5.14779 0.0377902 0)
(5.15704 0.0326305 0)
(5.16562 0.0284047 0)
(5.17362 0.0249474 0)
(5.1811 0.0221265 0)
(5.18816 0.0198336 0)
(5.19472 0.0179981 0)
(5.0015 0.269349 0)
(5.01384 0.213219 0)
(5.03483 0.168277 0)
(5.05845 0.134049 0)
(5.08063 0.107313 0)
(5.10086 0.0859528 0)
(5.11956 0.0690009 0)
(5.13671 0.0556138 0)
(5.15219 0.0449434 0)
(5.16611 0.0363442 0)
(5.17872 0.0293798 0)
(5.19019 0.0237284 0)
(5.20067 0.0191322 0)
(5.2103 0.0153875 0)
(5.21918 0.012336 0)
(5.22741 0.00985387 0)
(5.23509 0.00784074 0)
(5.24218 0.00623109 0)
(5.00239 0.262379 0)
(5.02143 0.196159 0)
(5.05165 0.147503 0)
(5.08287 0.112933 0)
(5.11033 0.086557 0)
(5.13472 0.0659096 0)
(5.15695 0.0500892 0)
(5.1769 0.0379809 0)
(5.19448 0.0285009 0)
(5.21002 0.0209545 0)
(5.2239 0.0149216 0)
(5.23636 0.0100876 0)
(5.2476 0.00619701 0)
(5.2578 0.00305459 0)
(5.2671 0.000514621 0)
(5.27564 -0.00153486 0)
(5.28354 -0.00318325 0)
(5.29077 -0.00448953 0)
(5.00396 0.252618 0)
(5.03331 0.174136 0)
(5.07556 0.123375 0)
(5.1148 0.0900898 0)
(5.14703 0.0647786 0)
(5.17514 0.0453572 0)
(5.20036 0.0311989 0)
(5.22235 0.0207834 0)
(5.24121 0.0127762 0)
(5.25757 0.00648706 0)
(5.27196 0.00154173 0)
(5.28471 -0.00235681 0)
(5.29605 -0.00545183 0)
(5.3062 -0.00792087 0)
(5.31535 -0.00989106 0)
(5.32366 -0.0114588 0)
(5.33126 -0.0127 0)
(5.33816 -0.0136654 0)
(5.00666 0.239378 0)
(5.0513 0.14642 0)
(5.10833 0.0959295 0)
(5.15475 0.065948 0)
(5.19027 0.0428041 0)
(5.22106 0.0254066 0)
(5.24827 0.0134451 0)
(5.27117 0.0050049 0)
(5.29022 -0.00137317 0)
(5.30644 -0.00630026 0)
(5.32049 -0.0100885 0)
(5.33272 -0.0130093 0)
(5.3434 -0.0152827 0)
(5.35279 -0.0170603 0)
(5.36113 -0.0184468 0)
(5.36857 -0.0195216 0)
(5.37528 -0.0203459 0)
(5.38128 -0.0209633 0)
(5.01053 0.222655 0)
(5.07605 0.116043 0)
(5.15006 0.0678365 0)
(5.20206 0.0413666 0)
(5.23886 0.0211041 0)
(5.27077 0.00682 0)
(5.29851 -0.00233959 0)
(5.32097 -0.00863007 0)
(5.33902 -0.0133425 0)
(5.35399 -0.0168945 0)
(5.36663 -0.0195245 0)
(5.3773 -0.0214743 0)
(5.38631 -0.0229326 0)
(5.39397 -0.0240215 0)
(5.40053 -0.0248232 0)
(5.40618 -0.025402 0)
(5.41109 -0.0258041 0)
(5.41533 -0.0260689 0)
(5.01613 0.196484 0)
(5.10853 0.0877999 0)
(5.19941 0.0467658 0)
(5.2549 0.0202975 0)
(5.2915 0.000611948 0)
(5.32279 -0.0104341 0)
(5.349 -0.0162586 0)
(5.36901 -0.0200894 0)
(5.38414 -0.0229836 0)
(5.39597 -0.0250755 0)
(5.40527 -0.0264974 0)
(5.41243 -0.0274474 0)
(5.41785 -0.0280755 0)
(5.42188 -0.0284692 0)
(5.42484 -0.028686 0)
(5.42693 -0.028774 0)
(5.42834 -0.0287639 0)
(5.42922 -0.028689 0)
(5.02991 0.134625 0)
(5.15998 0.0477188 0)
(5.2584 0.0414944 0)
(5.30948 0.0220945 0)
(5.34355 -0.00122558 0)
(5.37235 -0.0149864 0)
(5.39364 -0.0213726 0)
(5.40689 -0.0248034 0)
(5.41446 -0.0269349 0)
(5.41837 -0.0281282 0)
(5.41958 -0.0286452 0)
(5.41864 -0.028758 0)
(5.41607 -0.0286462 0)
(5.41233 -0.028403 0)
(5.40777 -0.0280817 0)
(5.40264 -0.0277268 0)
(5.39715 -0.0273692 0)
(5.39146 -0.0270363 0)
(5.08135 -0.0500112 0)
(5.26826 -0.199182 0)
(5.34742 -0.13775 0)
(5.36522 -0.0862303 0)
(5.37931 -0.0635326 0)
(5.39264 -0.0513281 0)
(5.39553 -0.0429866 0)
(5.38774 -0.0375887 0)
(5.3738 -0.0341711 0)
(5.35698 -0.0317406 0)
(5.33866 -0.0297818 0)
(5.31953 -0.0281149 0)
(5.30013 -0.0266659 0)
(5.28089 -0.0253837 0)
(5.26207 -0.0242345 0)
(5.24382 -0.0232175 0)
(5.22626 -0.0223382 0)
(5.20956 -0.0217856 0)
(5.01587 0.723724 0)
(5.23587 0.467542 0)
(5.28527 0.234508 0)
(5.20844 0.103926 0)
(5.10807 0.0383901 0)
(5.01804 0.0088947 0)
(4.93733 -0.00309615 0)
(4.86376 -0.00765706 0)
(4.79795 -0.00926726 0)
(4.73977 -0.0096744 0)
(4.68803 -0.00958562 0)
(4.6415 -0.00932057 0)
(4.59939 -0.00902002 0)
(4.56116 -0.00873556 0)
(4.52632 -0.0084806 0)
(4.49443 -0.00827091 0)
(4.465 -0.00810938 0)
(4.43782 -0.00822552 0)
(0.0185751 -0.0199483 -1.59442e-20)
(0.0588644 -0.0510183 1.39517e-20)
(0.108117 -0.0627412 0)
(0.159697 -0.0634399 0)
(0.204765 -0.0574781 0)
(0.240542 -0.0474915 -1.09395e-20)
(0.266456 -0.0350719 0)
(0.282335 -0.0210561 0)
(0.288395 -0.0059013 0)
(0.283595 0.00931461 0)
(0.269378 0.0231218 1.02227e-20)
(0.247493 0.0340944 0)
(0.21987 0.0411566 0)
(0.18864 0.043823 0)
(0.155736 0.0424041 0)
(0.12247 0.0380675 9.66074e-21)
(0.0896693 0.032668 0)
(0.0581017 0.0285371 0)
(0.0239741 0.0248931 0)
(-0.0158161 0.0266253 0)
(-0.0553409 0.0387427 0)
(-0.100607 0.0466624 0)
(-0.166146 0.0461237 0)
(-0.233178 0.0726652 1.041e-20)
(-0.307889 0.0948792 -1.09203e-20)
(-0.403569 0.102654 1.11825e-20)
(-0.499203 0.110581 1.08102e-20)
(-0.601103 0.107514 0)
(-0.704952 0.106051 0)
(-0.80646 0.108693 -1.00849e-20)
(-0.907945 0.107137 -9.94345e-21)
(-1.00585 0.103181 0)
(-1.09906 0.0976197 0)
(-1.18672 0.0910704 -9.73381e-21)
(-1.2684 0.0840389 0)
(-1.34395 0.0769169 0)
(-1.41348 0.06999 9.70239e-21)
(-1.47726 0.0634512 0)
(-1.53567 0.0574172 9.71669e-21)
(-1.58915 0.0519455 1.9453e-20)
(-1.63817 0.0470502 0)
(-1.68321 0.0427158 0)
(-1.72472 0.0389078 0)
(-1.76312 0.0355812 0)
(-1.79879 0.0326866 0)
(-1.83208 0.0301742 1.95232e-20)
(-1.86331 0.0279963 1.95211e-20)
(-1.89274 0.0261088 1.95148e-20)
(-1.92061 0.024472 0)
(-1.94712 0.0230507 -1.94903e-20)
(-1.97246 0.0218139 0)
(-1.99677 0.0207347 1.94514e-20)
(-2.02019 0.0197898 1.94269e-20)
(-2.04282 0.0189591 0)
(-2.06477 0.0182249 0)
(-2.08611 0.0175721 0)
(-2.10692 0.0169873 1.92989e-20)
(-2.12723 0.0164589 0)
(-2.14711 0.0159764 0)
(-2.16657 0.0155303 0)
(-2.18566 0.0151119 0)
(-2.20438 0.0147132 0)
(-2.22275 0.0143266 0)
(-2.24077 0.0139446 0)
(-2.25843 0.01356 0)
(-2.27572 0.0131654 -1.8833e-20)
(-2.29262 0.0127532 0)
(-2.3091 0.0123159 0)
(-2.32513 0.0118453 1.86059e-20)
(-2.34066 0.0113332 1.8519e-20)
(-2.35564 0.010771 0)
(-2.37002 0.0101501 -1.83251e-20)
(-2.38371 0.00946199 1.82168e-20)
(-2.39664 0.00869903 0)
(-2.40871 0.00785487 -1.79737e-20)
(-2.41981 0.00692553 0)
(-2.42983 0.00591101 0)
(-2.43862 0.00481656 1.753e-20)
(-2.44606 0.00365923 0)
(-2.45196 0.00246652 -1.71696e-20)
(-2.45619 0.00127109 0)
(-2.45859 0.000107528 1.67382e-20)
(-2.45937 -0.00101304 1.64876e-20)
(-2.45843 -0.00216377 1.62129e-20)
(-2.45564 -0.00338438 3.18239e-20)
(-2.45087 -0.00469366 -3.11644e-20)
(-2.44395 -0.00610325 0)
(-2.43468 -0.00762247 0)
(-2.42288 -0.00925981 0)
(-2.40831 -0.0110233 -2.78415e-20)
(-2.39076 -0.0129207 -2.68087e-20)
(-2.36998 -0.014959 2.56813e-20)
(-2.34572 -0.0171447 0)
(-2.3177 -0.0194832 -2.31122e-20)
(-2.28566 -0.0219785 -2.16544e-20)
(-2.2493 -0.024633 -2.00697e-20)
(-2.20835 -0.0274466 0)
(-2.16252 -0.0304164 0)
(-2.11153 -0.0335362 0)
(-2.05511 -0.0367951 -1.22892e-20)
(-1.99304 -0.0401779 0)
(-1.9251 -0.0436635 0)
(-1.85112 -0.0472249 4.71017e-21)
(-1.771 -0.0508286 0)
(-1.68468 -0.0544348 0)
(-1.59221 -0.0579974 -4.54563e-21)
(-1.4937 -0.0614645 0)
(-1.38938 -0.0647801 0)
(-1.27958 -0.0678847 1.55036e-20)
(-1.16475 -0.0707178 1.9511e-20)
(-1.04543 -0.0732197 0)
(-0.922286 -0.0753323 -2.799e-20)
(-0.796064 -0.0769982 0)
(-0.667593 -0.0781585 3.69764e-20)
(-0.53777 -0.0787457 0)
(-0.407544 -0.0786696 4.63089e-20)
(-0.277891 -0.0778024 5.10517e-20)
(-0.149757 -0.0759797 0)
(-0.0238896 -0.073049 0)
(0.0991808 -0.0693648 0)
(0.21892 -0.0654614 0)
(0.334669 -0.0615188 0)
(0.445944 -0.0575878 0)
(0.552407 -0.0537094 0)
(0.653824 -0.04993 5.77518e-20)
(0.750042 -0.0462493 -5.7052e-20)
(0.841012 -0.0427919 0)
(0.926835 -0.0395767 0)
(1.00772 -0.0366571 0)
(1.08413 -0.0346689 0)
(1.15726 -0.0332592 -1.06001e-19)
(1.227 -0.0250867 0)
(1.29009 -0.0100938 1.0291e-19)
(1.34493 -0.00638671 -1.0143e-19)
(1.39559 -0.0104049 0)
(1.44644 -0.0118413 0)
(1.49415 0.00644746 0)
(1.53747 0.0133417 9.02229e-20)
(1.57626 0.00385392 8.78911e-20)
(1.61294 0.00152566 0)
(1.64535 -0.00541909 8.51088e-20)
(1.67567 -0.0123133 8.39295e-20)
(1.7049 -0.0148372 -8.29223e-20)
(1.73166 -0.0148172 0)
(1.75534 -0.0140054 0)
(1.77618 -0.0130023 -8.06731e-20)
(1.79454 -0.0120366 0)
(1.8107 -0.0111524 0)
(1.82497 -0.010351 0)
(1.83759 -0.00962802 0)
(1.84881 -0.00897867 7.83028e-20)
(1.85884 -0.00839897 7.79474e-20)
(1.86789 -0.0078856 0)
(1.87612 -0.00743506 7.73163e-20)
(1.8837 -0.00704291 0)
(1.89078 -0.00670293 0)
(1.89746 -0.00640646 7.65241e-20)
(1.90385 -0.00614186 0)
(1.91001 -0.00589399 7.60744e-20)
(1.91598 -0.00564268 0)
(1.92174 -0.0053565 0)
(1.92724 -0.00500347 7.55001e-20)
(1.9323 -0.00452272 0)
(1.93647 -0.00384633 7.52009e-20)
(1.93934 -0.00309988 0)
(1.94102 -0.00251352 0)
(1.9415 -0.00203589 0)
(1.94077 -0.00158521 -7.47783e-20)
(1.93874 -0.00109325 0)
(1.93523 -0.000513719 7.46795e-20)
(1.93003 0.000156174 0)
(1.9229 0.000914863 0)
(1.91354 0.00177917 0)
(1.90152 0.00279404 0)
(1.88619 0.0040532 0)
(1.86635 0.00572542 0)
(1.84061 0.0082286 0)
(1.80318 0.0120287 -1.5297e-19)
(1.75671 0.0205646 0)
(1.6433 0.0309051 0)
(0.0283593 -0.122458 4.62918e-20)
(0.0789355 -0.172775 -3.94577e-20)
(0.121989 -0.165423 0)
(0.157307 -0.142263 2.10014e-20)
(0.183656 -0.114106 0)
(0.201223 -0.0843891 9.33177e-21)
(0.210834 -0.054646 -1.82861e-20)
(0.21318 -0.025727 -1.79245e-20)
(0.208691 0.00176456 0)
(0.198769 0.0269274 -1.73228e-20)
(0.183146 0.0487224 -8.52139e-21)
(0.161736 0.0662371 0)
(0.134589 0.0790319 0)
(0.101688 0.0874594 0)
(0.0628137 0.0927975 0)
(0.0175047 0.0970399 -8.50496e-21)
(-0.0349184 0.102284 0)
(-0.0958556 0.110191 1.65927e-20)
(-0.16769 0.12113 0)
(-0.24774 0.134439 0)
(-0.335391 0.153926 -1.54016e-20)
(-0.433965 0.179673 0)
(-0.538752 0.203109 1.48906e-20)
(-0.644739 0.223671 -7.24191e-21)
(-0.755179 0.246137 7.15281e-21)
(-0.860866 0.260231 -6.97748e-21)
(-0.963732 0.266782 -6.83886e-21)
(-1.06193 0.266058 0)
(-1.15317 0.259719 0)
(-1.23643 0.249876 6.64689e-21)
(-1.31161 0.236775 -6.73362e-21)
(-1.37921 0.221478 0)
(-1.43992 0.205073 0)
(-1.49445 0.188411 6.71454e-21)
(-1.54352 0.172122 0)
(-1.58786 0.15665 0)
(-1.62813 0.142277 -6.83626e-21)
(-1.66495 0.129155 0)
(-1.69883 0.117338 6.91766e-21)
(-1.73023 0.106808 -1.38884e-20)
(-1.75954 0.0975036 0)
(-1.78706 0.0893317 0)
(-1.81308 0.0821865 -2.80246e-20)
(-1.8378 0.0759574 -2.80964e-20)
(-1.86141 0.0705361 -2.81617e-20)
(-1.88407 0.0658204 1.40564e-20)
(-1.90591 0.0617168 -1.41955e-20)
(-1.92703 0.0581413 -4.25487e-20)
(-1.94752 0.0550194 2.83718e-20)
(-1.96747 0.0522856 1.42705e-20)
(-1.98694 0.049883 0)
(-2.00598 0.0477618 -1.43101e-20)
(-2.02465 0.0458789 1.41989e-20)
(-2.04297 0.0441967 0)
(-2.06098 0.0426826 0)
(-2.07871 0.0413078 0)
(-2.09616 0.0400472 -1.43849e-20)
(-2.11335 0.0388783 0)
(-2.13029 0.0377815 2.86951e-20)
(-2.14697 0.0367387 0)
(-2.16338 0.035734 2.87343e-20)
(-2.17952 0.0347525 0)
(-2.19536 0.0337808 -2.87612e-20)
(-2.21089 0.0328062 0)
(-2.22608 0.0318169 2.87713e-20)
(-2.24089 0.0308017 -1.43407e-20)
(-2.2553 0.0297496 0)
(-2.26926 0.0286503 -2.87414e-20)
(-2.28274 0.0274932 -1.43912e-20)
(-2.29567 0.0262678 -1.43695e-20)
(-2.30803 0.0249638 0)
(-2.31975 0.0235701 -1.42648e-20)
(-2.33078 0.0220756 -1.42656e-20)
(-2.34107 0.0204689 0)
(-2.35057 0.0187384 1.41556e-20)
(-2.35924 0.0168727 -2.81688e-20)
(-2.36701 0.0148612 0)
(-2.37386 0.0126967 -1.39098e-20)
(-2.37976 0.0103806 0)
(-2.38468 0.00792715 4.10791e-20)
(-2.38857 0.00536214 0)
(-2.39138 0.00270868 -4.01851e-20)
(-2.39268 -3.86305e-05 -1.31829e-20)
(-2.39228 -0.00293114 1.30665e-20)
(-2.38998 -0.00600571 2.56941e-20)
(-2.38561 -0.0092877 -2.52053e-20)
(-2.379 -0.0127964 0)
(-2.36995 -0.0165483 0)
(-2.35826 -0.020559 0)
(-2.34372 -0.0248428 6.71102e-20)
(-2.32611 -0.029413 2.13662e-20)
(-2.30518 -0.0342815 -2.04316e-20)
(-2.28069 -0.039458 0)
(-2.25238 -0.0449497 -1.89818e-20)
(-2.21998 -0.0507598 1.70999e-20)
(-2.18323 -0.0568876 1.57971e-20)
(-2.14183 -0.0633261 0)
(-2.09553 -0.0700617 0)
(-2.04405 -0.077072 0)
(-1.98714 -0.084325 9.50837e-21)
(-1.92458 -0.0917772 0)
(-1.85616 -0.0993726 -1.26419e-20)
(-1.78173 -0.107042 -1.21206e-20)
(-1.70119 -0.114701 4.20244e-21)
(-1.61448 -0.122252 0)
(-1.52166 -0.129585 -1.76654e-21)
(-1.42285 -0.136579 0)
(-1.31827 -0.143106 -1.53435e-20)
(-1.20825 -0.149033 9.45056e-21)
(-1.09322 -0.154231 1.21922e-20)
(-0.973723 -0.158581 0)
(-0.850403 -0.161978 5.75359e-20)
(-0.723985 -0.164338 -4.35869e-20)
(-0.595266 -0.165603 -2.57493e-20)
(-0.465089 -0.16574 0)
(-0.334314 -0.164738 -3.17468e-20)
(-0.203773 -0.162597 -1.02366e-19)
(-0.0742062 -0.159296 0)
(0.0536179 -0.154772 -7.65692e-20)
(0.178852 -0.149217 -7.84055e-20)
(0.300814 -0.143005 -7.98925e-20)
(0.418978 -0.136353 0)
(0.532912 -0.129404 0)
(0.642271 -0.12228 0)
(0.746804 -0.115096 4.09457e-20)
(0.846351 -0.107952 4.21024e-20)
(0.940843 -0.100975 0)
(1.03028 -0.0942804 8.31666e-20)
(1.11471 -0.0880083 8.29562e-20)
(1.19416 -0.0823496 0)
(1.2682 -0.0772275 8.29006e-20)
(1.33659 -0.0722167 1.63929e-19)
(1.40079 -0.0673315 -8.21461e-20)
(1.46177 -0.0622593 -8.08706e-20)
(1.51825 -0.0573657 0)
(1.56839 -0.0539625 0)
(1.61458 -0.0528893 0)
(1.65685 -0.0496992 -7.6224e-20)
(1.69612 -0.0443338 7.4578e-20)
(1.7316 -0.0384369 1.45796e-19)
(1.76443 -0.0332952 -7.14488e-20)
(1.79422 -0.0287927 6.99284e-20)
(1.82122 -0.0250519 6.93031e-20)
(1.84614 -0.0218928 0)
(1.86926 -0.0190343 0)
(1.89062 -0.0164562 -6.72871e-20)
(1.91024 -0.0141909 0)
(1.92821 -0.0122189 0)
(1.94465 -0.0105155 1.33094e-19)
(1.95973 -0.00905848 0)
(1.97361 -0.00782632 6.60254e-20)
(1.98648 -0.0067985 -6.60979e-20)
(1.99849 -0.00595548 0)
(2.00981 -0.00527784 6.56066e-20)
(2.02058 -0.00474567 0)
(2.03095 -0.00433794 0)
(2.04102 -0.00403207 -6.54855e-20)
(2.05091 -0.00380351 1.30619e-19)
(2.06069 -0.00362505 -6.5316e-20)
(2.07041 -0.00346646 0)
(2.08009 -0.00329159 0)
(2.08969 -0.00305436 6.49849e-20)
(2.0992 -0.00268865 0)
(2.10873 -0.00215481 6.4932e-20)
(2.11837 -0.00153998 0)
(2.12785 -0.000977919 0)
(2.13686 -0.000418746 0)
(2.14519 0.000341173 6.50347e-20)
(2.15274 0.00128028 0)
(2.15928 0.00231674 -6.50721e-20)
(2.16451 0.00346684 0)
(2.16817 0.00477792 0)
(2.16997 0.00630744 1.30476e-19)
(2.16952 0.00814975 -1.30741e-19)
(2.16645 0.0104783 0)
(2.16004 0.0135841 0)
(2.14996 0.0181947 0)
(2.1333 0.0251409 3.9946e-19)
(2.11448 0.0396684 0)
(2.07385 0.0605963 -2.7033e-19)
(0.0266761 -0.232289 9.64534e-23)
(0.0631124 -0.266133 4.93696e-20)
(0.0854936 -0.231114 0)
(0.101432 -0.186997 -3.85972e-20)
(0.111208 -0.142049 0)
(0.114932 -0.0978136 0)
(0.112975 -0.0549324 -8.17719e-23)
(0.10559 -0.0139002 1.64035e-20)
(0.0928555 0.0247928 1.61448e-20)
(0.0748785 0.0607514 1.58597e-20)
(0.0515617 0.0934524 0)
(0.0225737 0.122402 0)
(-0.0127181 0.147479 -1.54176e-20)
(-0.0552125 0.169337 -2.99626e-20)
(-0.105857 0.189509 2.90186e-20)
(-0.165417 0.21006 0)
(-0.234214 0.232818 2.72392e-20)
(-0.312043 0.258408 -1.32296e-20)
(-0.398052 0.286126 0)
(-0.490367 0.315094 2.48077e-20)
(-0.586676 0.344906 1.19857e-20)
(-0.684 0.372825 -2.34851e-20)
(-0.77973 0.395714 -1.13641e-20)
(-0.871356 0.412639 0)
(-0.956088 0.421808 2.21956e-20)
(-1.03273 0.421532 2.19414e-20)
(-1.10175 0.412865 0)
(-1.16386 0.39732 2.16231e-20)
(-1.21967 0.376927 0)
(-1.26981 0.353611 2.14718e-20)
(-1.3149 0.328642 1.04897e-20)
(-1.35587 0.303131 0)
(-1.39353 0.277999 0)
(-1.42849 0.253933 0)
(-1.46125 0.231399 0)
(-1.49216 0.210671 0)
(-1.5215 0.191873 0)
(-1.54945 0.175014 2.14575e-20)
(-1.57617 0.160022 -3.21983e-20)
(-1.60176 0.146779 0)
(-1.62634 0.135135 0)
(-1.64996 0.124932 0)
(-1.67272 0.11601 4.57746e-23)
(-1.69468 0.108216 2.16631e-20)
(-1.7159 0.101409 4.33352e-20)
(-1.73646 0.0954608 -4.34012e-20)
(-1.7564 0.0902561 -2.16948e-20)
(-1.77579 0.0856933 2.18082e-20)
(-1.79468 0.0816827 -8.41218e-23)
(-1.81312 0.0781458 2.17934e-20)
(-1.83116 0.0750139 0)
(-1.84883 0.0722269 2.18653e-20)
(-1.86619 0.0697317 -8.61316e-23)
(-1.88325 0.0674819 0)
(-1.90004 0.0654364 0)
(-1.9166 0.0635586 -2.20243e-20)
(-1.93294 0.0618158 0)
(-1.94906 0.0601786 0)
(-1.96499 0.0586207 2.20789e-20)
(-1.98072 0.0571177 4.43981e-20)
(-1.99626 0.0556475 -2.23133e-20)
(-2.01161 0.0541899 0)
(-2.02675 0.0527258 2.23937e-20)
(-2.04168 0.0512376 0)
(-2.05637 0.0497089 2.23574e-20)
(-2.07082 0.048124 2.24995e-20)
(-2.08499 0.0464682 -4.49649e-20)
(-2.09886 0.0447275 -2.24706e-20)
(-2.11239 0.0428888 0)
(-2.12556 0.0409393 4.51026e-20)
(-2.13833 0.0388673 0)
(-2.15064 0.0366616 6.76974e-20)
(-2.16246 0.0343118 4.5099e-20)
(-2.17373 0.0318084 4.50537e-20)
(-2.1844 0.0291426 -4.49808e-20)
(-2.19439 0.0263061 6.73017e-20)
(-2.20365 0.0232908 0)
(-2.21209 0.0200873 0)
(-2.21962 0.0166825 -4.43388e-20)
(-2.22611 0.0130569 -6.60479e-20)
(-2.23143 0.00918191 0)
(-2.23543 0.00502586 2.15895e-20)
(-2.23796 0.000556788 0)
(-2.23885 -0.00423553 -6.33013e-20)
(-2.23795 -0.00936503 2.54629e-22)
(-2.23508 -0.014851 -2.88463e-22)
(-2.23006 -0.020715 4.00458e-20)
(-2.22271 -0.0269788 0)
(-2.21281 -0.0336636 -3.80608e-20)
(-2.20015 -0.0407895 4.45821e-22)
(-2.18451 -0.0483751 0)
(-2.16565 -0.0564363 0)
(-2.1433 -0.0649859 0)
(-2.11723 -0.0740319 3.02783e-20)
(-2.08715 -0.0835765 0)
(-2.05279 -0.0936143 0)
(-2.01387 -0.104131 0)
(-1.97012 -0.115099 0)
(-1.92127 -0.12648 0)
(-1.86705 -0.138218 1.7225e-20)
(-1.80723 -0.150238 0)
(-1.7416 -0.162446 1.01504e-20)
(-1.67 -0.174727 6.83859e-21)
(-1.59231 -0.186945 -3.3561e-21)
(-1.50848 -0.198938 0)
(-1.41853 -0.210529 4.08758e-21)
(-1.32258 -0.221521 0)
(-1.22082 -0.231708 1.20906e-20)
(-1.11358 -0.240882 -1.62641e-20)
(-1.00128 -0.248837 -5.87596e-20)
(-0.884434 -0.255386 0)
(-0.763685 -0.260367 -8.49028e-20)
(-0.639743 -0.263656 -3.08188e-20)
(-0.513395 -0.265171 0)
(-0.385465 -0.264884 -8.2295e-20)
(-0.256794 -0.26282 -9.11914e-20)
(-0.128193 -0.259063 1.51473e-19)
(-0.000431379 -0.253726 0)
(0.125667 -0.246944 5.7084e-20)
(0.249318 -0.238928 5.89352e-20)
(0.369858 -0.229897 1.79403e-19)
(0.486757 -0.220068 0)
(0.599573 -0.209654 0)
(0.70796 -0.198856 0)
(0.811666 -0.18786 6.31097e-20)
(0.910529 -0.176835 0)
(1.00446 -0.165957 0)
(1.09341 -0.155377 -6.61488e-20)
(1.17736 -0.145232 -6.6378e-20)
(1.25623 -0.135622 0)
(1.3298 -0.126365 0)
(1.39832 -0.116685 -1.33295e-19)
(1.46303 -0.106411 0)
(1.52425 -0.09718 1.33192e-19)
(1.5808 -0.0896156 1.32065e-19)
(1.63197 -0.0828131 0)
(1.6792 -0.0755262 0)
(1.72324 -0.0685548 -1.29908e-19)
(1.76347 -0.0624431 -4.78694e-22)
(1.79993 -0.0560866 -4.06294e-22)
(1.83337 -0.0506402 0)
(1.86346 -0.0462644 -2.46841e-19)
(1.89052 -0.0422964 0)
(1.91534 -0.0384386 0)
(1.9383 -0.0346968 0)
(1.95954 -0.0311871 1.1963e-19)
(1.97917 -0.0279859 0)
(1.99731 -0.0251202 -2.36998e-19)
(2.01406 -0.0225934 -1.18274e-19)
(2.02956 -0.0203975 0)
(2.04397 -0.0185173 -1.17722e-19)
(2.05743 -0.0169335 0)
(2.07009 -0.0156239 0)
(2.0821 -0.0145641 -3.51406e-19)
(2.0936 -0.0137271 2.33982e-19)
(2.10473 -0.0130834 0)
(2.1156 -0.0126006 2.33629e-19)
(2.12632 -0.0122431 -1.16816e-19)
(2.13698 -0.0119719 0)
(2.14765 -0.0117424 0)
(2.15835 -0.0115024 0)
(2.16911 -0.0111926 -3.50132e-19)
(2.17996 -0.0107641 0)
(2.19094 -0.0102011 -1.16864e-19)
(2.20203 -0.00950223 0)
(2.21313 -0.00865762 0)
(2.2241 -0.00766408 0)
(2.23475 -0.00641375 0)
(2.24481 -0.00491784 0)
(2.25407 -0.0032396 0)
(2.26228 -0.0013222 -2.36417e-19)
(2.26915 0.00089595 0)
(2.27435 0.00348167 -1.18954e-19)
(2.27749 0.00654829 3.58021e-19)
(2.27811 0.0103064 0)
(2.27558 0.0151052 0)
(2.26946 0.0217617 -2.42247e-19)
(2.25791 0.0313426 -2.44488e-19)
(2.24361 0.0482893 2.45729e-19)
(2.2192 0.0753156 2.4861e-19)
(0.0132671 -0.304733 -8.44616e-20)
(0.0299369 -0.299308 -7.00212e-20)
(0.0321368 -0.248206 -3.98904e-20)
(0.0314727 -0.194034 -1.79122e-20)
(0.0273469 -0.139937 0)
(0.0193793 -0.0866103 3.20876e-20)
(0.00737424 -0.0344994 -1.56316e-20)
(-0.0089382 0.0159872 0)
(-0.0298554 0.0644644 -1.48264e-20)
(-0.0557762 0.110625 0)
(-0.0871481 0.154218 2.79793e-20)
(-0.124495 0.195154 0)
(-0.16843 0.233675 1.32145e-20)
(-0.219549 0.270447 2.55624e-20)
(-0.27821 0.306459 -2.4683e-20)
(-0.344263 0.342635 0)
(-0.416885 0.379287 -2.29829e-20)
(-0.494598 0.415743 0)
(-0.575471 0.450597 0)
(-0.657269 0.482296 -2.08074e-20)
(-0.737407 0.509233 0)
(-0.813377 0.529337 -4.28453e-22)
(-0.883339 0.540856 0)
(-0.946255 0.54344 0)
(-1.00181 0.537225 5.72733e-22)
(-1.05039 0.522716 -1.84644e-20)
(-1.09315 0.501481 -1.88788e-20)
(-1.13135 0.475387 -1.81886e-20)
(-1.16608 0.446395 0)
(-1.1982 0.416111 -3.65452e-20)
(-1.22834 0.385674 0)
(-1.25701 0.355936 -1.83308e-20)
(-1.28459 0.327509 0)
(-1.31128 0.300803 0)
(-1.33723 0.276062 1.81792e-20)
(-1.36251 0.253399 0)
(-1.38713 0.23283 -1.81274e-20)
(-1.41109 0.2143 9.77388e-23)
(-1.4344 0.197706 3.61356e-20)
(-1.45703 0.182915 -3.61997e-20)
(-1.479 0.169779 0)
(-1.5003 0.158145 0)
(-1.52096 0.14786 -1.81156e-20)
(-1.54099 0.138779 0)
(-1.56043 0.130765 -1.81554e-20)
(-1.57931 0.123693 1.81792e-20)
(-1.59767 0.117449 1.82042e-20)
(-1.61556 0.11193 0)
(-1.63301 0.107042 -1.82582e-20)
(-1.65006 0.102703 -1.82874e-20)
(-1.66675 0.0988381 3.65557e-20)
(-1.68312 0.0953821 -1.83511e-20)
(-1.6992 0.0922755 -1.83855e-20)
(-1.71502 0.0894652 0)
(-1.73061 0.0869037 0)
(-1.74599 0.0845478 1.84995e-20)
(-1.76119 0.0823588 0)
(-1.77622 0.0803011 0)
(-1.79109 0.0783424 -3.72556e-20)
(-1.80582 0.0764529 -3.7346e-20)
(-1.8204 0.0746052 0)
(-1.83484 0.0727736 0)
(-1.84913 0.0709343 0)
(-1.86328 0.0690648 0)
(-1.87727 0.0671439 -3.78068e-20)
(-1.89108 0.0651515 3.78651e-20)
(-1.90471 0.0630681 3.7978e-20)
(-1.91812 0.0608753 7.60995e-20)
(-1.93129 0.0585549 0)
(-1.94418 0.0560893 7.61967e-24)
(-1.95677 0.0534615 0)
(-1.96901 0.0506542 -3.82758e-20)
(-1.98085 0.0476505 4.28131e-23)
(-1.99224 0.0444333 -3.83009e-20)
(-2.00312 0.0409853 3.82831e-20)