/*--------------------------------*- C++ -*----------------------------------*\
  =========                 |
  \\      /  F ield         | OpenFOAM: The Open Source CFD Toolbox
   \\    /   O peration     | Website:  https://openfoam.org
    \\  /    A nd           | Version:  7
     \\/     M anipulation  |
\*---------------------------------------------------------------------------*/
FoamFile
{
    version     2.0;
    format      ascii;
    class       surfaceScalarField;
    location    "0.04";
    object      phi;
}
// * * * * * * * * * * * * * * * * * * * * * * * * * * * * * * * * * * * * * //

dimensions      [0 3 -1 0 0 0 0];

internalField   nonuniform List<scalar> 
24170
(
1.42853e-06
1.65674e-07
1.33413e-06
9.44021e-08
1.25399e-06
8.01323e-08
1.18748e-06
6.65103e-08
1.13569e-06
5.17953e-08
1.0948e-06
4.08874e-08
1.06188e-06
3.2919e-08
1.03486e-06
2.70256e-08
1.01211e-06
2.27482e-08
9.92348e-07
1.97608e-08
9.74614e-07
1.77337e-08
9.58208e-07
1.6406e-08
9.42581e-07
1.56272e-08
9.27223e-07
1.53581e-08
9.11616e-07
1.56069e-08
8.94843e-07
1.67732e-08
8.76276e-07
1.85668e-08
2.52789e-08
8.50997e-07
1.67167e-06
2.02625e-07
1.6303e-06
1.35777e-07
1.58754e-06
1.22895e-07
1.54869e-06
1.05353e-07
1.51402e-06
8.64664e-08
1.48261e-06
7.22974e-08
1.45394e-06
6.15884e-08
1.42792e-06
5.30467e-08
1.40436e-06
4.63055e-08
1.38295e-06
4.11771e-08
1.3633e-06
3.73849e-08
1.34503e-06
3.46712e-08
1.32778e-06
3.28742e-08
1.31118e-06
3.19602e-08
1.29487e-06
3.192e-08
1.27836e-06
3.32798e-08
1.26129e-06
3.56403e-08
4.38396e-08
1.24273e-06
1.78125e-06
2.52638e-07
1.75652e-06
1.60503e-07
1.73541e-06
1.44003e-07
1.71588e-06
1.24881e-07
1.69685e-06
1.05496e-07
1.67809e-06
9.10571e-08
1.65967e-06
8.00148e-08
1.64182e-06
7.08958e-08
1.6247e-06
6.34254e-08
1.60833e-06
5.75448e-08
1.59265e-06
5.30652e-08
1.57754e-06
4.97858e-08
1.56282e-06
4.7588e-08
1.54831e-06
4.64711e-08
1.53376e-06
4.64759e-08
1.51899e-06
4.80454e-08
1.50351e-06
5.11171e-08
5.81134e-08
1.48924e-06
1.91824e-06
2.97094e-07
1.89232e-06
1.86421e-07
1.87551e-06
1.60816e-07
1.86181e-06
1.38581e-07
1.84909e-06
1.18217e-07
1.83684e-06
1.03299e-07
1.82487e-06
9.19866e-08
1.81311e-06
8.26612e-08
1.80154e-06
7.4992e-08
1.79016e-06
6.8924e-08
1.77893e-06
6.4294e-08
1.76779e-06
6.09304e-08
1.75663e-06
5.87421e-08
1.74536e-06
5.77449e-08
1.73382e-06
5.80121e-08
1.72201e-06
5.98617e-08
1.70973e-06
6.33905e-08
6.96115e-08
1.69823e-06
2.06808e-06
3.32574e-07
2.04046e-06
2.1404e-07
2.02337e-06
1.7791e-07
2.01066e-06
1.51296e-07
1.99987e-06
1.29e-07
1.99025e-06
1.12923e-07
1.98131e-06
1.00924e-07
1.97275e-06
9.12236e-08
1.9644e-06
8.33444e-08
1.95616e-06
7.71598e-08
1.94796e-06
7.24892e-08
1.93973e-06
6.91629e-08
1.93138e-06
6.70944e-08
1.92283e-06
6.62926e-08
1.91402e-06
6.68274e-08
1.90498e-06
6.89004e-08
1.89574e-06
7.26267e-08
7.83893e-08
1.88696e-06
2.22651e-06
3.6061e-07
2.19932e-06
2.41228e-07
2.18159e-06
1.95636e-07
2.16856e-06
1.64329e-07
2.15802e-06
1.3954e-07
2.14916e-06
1.2178e-07
2.1414e-06
1.08691e-07
2.13427e-06
9.8347e-08
2.12752e-06
9.00957e-08
2.12098e-06
8.37011e-08
2.11453e-06
7.89376e-08
2.10808e-06
7.56164e-08
2.10154e-06
7.36356e-08
2.09485e-06
7.29792e-08
2.08799e-06
7.3687e-08
2.08103e-06
7.58634e-08
2.07408e-06
7.95775e-08
8.49212e-08
2.06755e-06
2.39427e-06
3.82702e-07
2.36902e-06
2.6648e-07
2.35113e-06
2.13518e-07
2.33759e-06
1.77875e-07
2.3267e-06
1.50428e-07
2.31781e-06
1.30673e-07
2.31031e-06
1.1619e-07
2.3037e-06
1.04955e-07
2.29765e-06
9.61465e-08
2.29195e-06
8.94052e-08
2.28644e-06
8.44445e-08
2.28101e-06
8.10407e-08
2.27559e-06
7.90612e-08
2.27012e-06
7.84522e-08
2.2646e-06
7.92081e-08
2.25911e-06
8.1352e-08
2.2538e-06
8.48863e-08
8.97613e-08
2.24896e-06
2.57261e-06
3.99881e-07
2.54999e-06
2.89099e-07
2.53252e-06
2.30991e-07
2.5187e-06
1.91692e-07
2.50742e-06
1.61715e-07
2.49823e-06
1.39864e-07
2.49061e-06
1.23807e-07
2.48407e-06
1.11498e-07
2.47824e-06
1.01968e-07
2.47291e-06
9.47433e-08
2.46788e-06
8.94683e-08
2.46305e-06
8.58748e-08
2.45832e-06
8.37893e-08
2.45366e-06
8.31121e-08
2.44908e-06
8.37856e-08
2.44467e-06
8.57638e-08
2.44057e-06
8.89846e-08
9.3325e-08
2.43701e-06
2.76253e-06
4.13017e-07
2.7428e-06
3.08834e-07
2.72625e-06
2.47539e-07
2.71259e-06
2.05355e-07
2.70113e-06
1.73172e-07
2.69168e-06
1.49309e-07
2.68386e-06
1.31629e-07
2.67722e-06
1.1814e-07
2.67142e-06
1.07772e-07
2.66621e-06
9.99467e-08
2.66144e-06
9.42467e-08
2.65696e-06
9.03547e-08
2.65269e-06
8.80511e-08
2.64862e-06
8.71869e-08
2.64475e-06
8.76518e-08
2.64117e-06
8.93418e-08
2.63802e-06
9.21404e-08
9.5884e-08
2.63546e-06
2.96497e-06
4.2293e-07
2.94814e-06
3.25668e-07
2.93292e-06
2.62755e-07
2.91986e-06
2.18421e-07
2.90859e-06
1.84438e-07
2.89912e-06
1.58782e-07
2.8912e-06
1.39543e-07
2.88449e-06
1.24855e-07
2.87868e-06
1.13585e-07
2.87354e-06
1.05079e-07
2.86892e-06
9.88641e-08
2.8647e-06
9.45761e-08
2.86081e-06
9.19491e-08
2.85721e-06
9.07861e-08
2.85393e-06
9.09276e-08
2.85105e-06
9.22217e-08
2.84868e-06
9.451e-08
9.76055e-08
2.84696e-06
3.18099e-06
4.30344e-07
3.16693e-06
3.39729e-07
3.1533e-06
2.7639e-07
3.14119e-06
2.30529e-07
3.13049e-06
1.95133e-07
3.12131e-06
1.67964e-07
3.11354e-06
1.47313e-07
3.10692e-06
1.31476e-07
3.10121e-06
1.193e-07
3.09621e-06
1.10074e-07
3.09179e-06
1.03284e-07
3.08785e-06
9.85233e-08
3.08431e-06
9.54849e-08
3.08117e-06
9.39276e-08
3.07845e-06
9.3649e-08
3.07621e-06
9.44593e-08
3.07455e-06
9.61697e-08
9.85819e-08
3.07357e-06
2.86561e-06
4.35148e-07
2.85575e-06
3.49589e-07
2.84552e-06
2.86623e-07
2.8362e-06
2.39849e-07
2.82786e-06
2.03473e-07
2.82058e-06
1.7524e-07
2.81435e-06
1.53543e-07
2.80902e-06
1.36805e-07
2.80443e-06
1.23891e-07
2.80045e-06
1.14059e-07
2.79697e-06
1.06761e-07
2.79393e-06
1.01564e-07
2.79129e-06
9.81292e-08
2.78903e-06
9.61831e-08
2.78719e-06
9.54936e-08
2.7858e-06
9.58456e-08
2.78493e-06
9.70355e-08
9.88518e-08
2.78466e-06
3.49486e-06
4.39369e-07
3.48556e-06
3.5889e-07
3.47546e-06
2.96715e-07
3.46603e-06
2.49279e-07
3.45747e-06
2.12039e-07
3.44991e-06
1.82794e-07
3.4434e-06
1.60054e-07
3.43782e-06
1.42386e-07
3.43303e-06
1.28683e-07
3.42891e-06
1.18178e-07
3.42538e-06
1.10297e-07
3.42236e-06
1.04579e-07
3.41983e-06
1.00655e-07
3.4178e-06
9.82215e-08
3.41627e-06
9.70184e-08
3.41531e-06
9.68103e-08
3.41496e-06
9.73807e-08
9.85157e-08
3.4153e-06
4.2619e-06
4.4289e-07
4.25365e-06
3.67143e-07
4.24426e-06
3.06104e-07
4.2353e-06
2.5824e-07
4.22709e-06
2.20252e-07
4.2198e-06
1.9008e-07
4.21352e-06
1.66336e-07
4.20817e-06
1.47736e-07
4.20363e-06
1.33219e-07
4.19981e-06
1.21999e-07
4.19663e-06
1.13476e-07
4.19405e-06
1.07165e-07
4.19203e-06
1.02668e-07
4.1906e-06
9.96552e-08
4.18977e-06
9.78446e-08
4.1896e-06
9.6985e-08
4.19013e-06
9.68524e-08
9.72391e-08
4.1914e-06
5.19688e-06
4.45615e-07
5.19019e-06
3.73837e-07
5.18223e-06
3.14066e-07
5.17452e-06
2.65949e-07
5.16748e-06
2.27295e-07
5.16127e-06
1.96283e-07
5.15601e-06
1.71604e-07
5.15164e-06
1.521e-07
5.14809e-06
1.36768e-07
5.14528e-06
1.24813e-07
5.14314e-06
1.15612e-07
5.14165e-06
1.08656e-07
5.1408e-06
1.03524e-07
5.14059e-06
9.98653e-08
5.14105e-06
9.73799e-08
5.14223e-06
9.5808e-08
5.14416e-06
9.49233e-08
9.453e-08
5.14687e-06
6.33657e-06
4.47438e-07
6.332e-06
3.78413e-07
6.32642e-06
3.19646e-07
6.32106e-06
2.71301e-07
6.31635e-06
2.32008e-07
6.31241e-06
2.00224e-07
6.30931e-06
1.74699e-07
6.30706e-06
1.54357e-07
6.30558e-06
1.38246e-07
6.30482e-06
1.25574e-07
6.30473e-06
1.15696e-07
6.30531e-06
1.08083e-07
6.30653e-06
1.02297e-07
6.30843e-06
9.79685e-08
6.31102e-06
9.47896e-08
6.31433e-06
9.24965e-08
6.31839e-06
9.08654e-08
8.97154e-08
6.3232e-06
7.72586e-06
4.48169e-07
7.72416e-06
3.80113e-07
7.7223e-06
3.21506e-07
7.72094e-06
2.72665e-07
7.72028e-06
2.32662e-07
7.72036e-06
2.00148e-07
7.72117e-06
1.73893e-07
7.72268e-06
1.52844e-07
7.72485e-06
1.36073e-07
7.72764e-06
1.22785e-07
7.73102e-06
1.12315e-07
7.73499e-06
1.04116e-07
7.73955e-06
9.77364e-08
7.74472e-06
9.27991e-08
7.75052e-06
8.89911e-08
7.75696e-06
8.6051e-08
7.76407e-06
8.37613e-08
8.19563e-08
7.77183e-06
9.4196e-06
4.47384e-07
9.42213e-06
3.7759e-07
9.42614e-06
3.17494e-07
9.43138e-06
2.67428e-07
9.43754e-06
2.26499e-07
9.44439e-06
1.933e-07
9.45177e-06
1.6651e-07
9.45959e-06
1.45023e-07
9.46778e-06
1.2788e-07
9.47631e-06
1.14254e-07
9.48518e-06
1.03451e-07
9.49439e-06
9.49061e-08
9.50397e-06
8.81563e-08
9.51394e-06
8.28227e-08
9.52434e-06
7.85939e-08
9.53518e-06
7.52152e-08
9.54646e-06
7.24786e-08
7.02336e-08
9.55818e-06
1.14852e-05
4.43848e-07
1.1495e-05
3.67822e-07
1.15091e-05
3.03412e-07
1.15256e-05
2.50901e-07
1.15433e-05
2.0879e-07
1.15615e-05
1.75103e-07
1.15798e-05
1.48224e-07
1.15979e-05
1.2689e-07
1.16158e-05
1.10018e-07
1.16333e-05
9.66814e-08
1.16507e-05
8.61354e-08
1.16678e-05
7.77918e-08
1.16847e-05
7.11813e-08
1.17016e-05
6.59261e-08
1.17185e-05
6.17229e-08
1.17354e-05
5.8329e-08
1.17523e-05
5.55503e-08
5.32512e-08
1.17693e-05
8.4104e-06
4.38798e-07
8.42376e-06
3.54462e-07
8.44215e-06
2.85024e-07
8.46265e-06
2.30403e-07
8.48368e-06
1.87764e-07
8.50453e-06
1.54247e-07
8.52481e-06
1.27942e-07
8.54428e-06
1.0742e-07
8.56288e-06
9.14232e-08
8.58064e-06
7.8917e-08
8.59766e-06
6.9116e-08
8.61403e-06
6.14239e-08
8.62984e-06
5.53725e-08
8.64517e-06
5.0591e-08
8.66011e-06
4.67881e-08
8.6747e-06
4.37355e-08
8.689e-06
4.1253e-08
3.92161e-08
8.70303e-06
7.32423e-06
4.31849e-07
7.34236e-06
3.36339e-07
7.3661e-06
2.6128e-07
7.39129e-06
2.05211e-07
7.41627e-06
1.62788e-07
7.44044e-06
1.30076e-07
7.4634e-06
1.04986e-07
7.48493e-06
8.5885e-08
7.50507e-06
7.12806e-08
7.52396e-06
6.00307e-08
7.54174e-06
5.13376e-08
7.55855e-06
4.4613e-08
7.57452e-06
3.93984e-08
7.58978e-06
3.53374e-08
7.60441e-06
3.21569e-08
7.6185e-06
2.96469e-08
7.63211e-06
2.76436e-08
2.60347e-08
7.64529e-06
6.37957e-06
4.22342e-07
6.40329e-06
3.12619e-07
6.43226e-06
2.32316e-07
6.46124e-06
1.76227e-07
6.48907e-06
1.3496e-07
6.5154e-06
1.03739e-07
6.53984e-06
8.05465e-08
6.56227e-06
6.34549e-08
6.58287e-06
5.06824e-08
6.60188e-06
4.10255e-08
6.6195e-06
3.37152e-08
6.63593e-06
2.81867e-08
6.65132e-06
2.39997e-08
6.66584e-06
2.08214e-08
6.67959e-06
1.84034e-08
6.69268e-06
1.65585e-08
6.70518e-06
1.51419e-08
1.40549e-08
6.71716e-06
5.55862e-06
4.09182e-07
5.58898e-06
2.82259e-07
5.62285e-06
1.98446e-07
5.6547e-06
1.44378e-07
5.6844e-06
1.0526e-07
5.71184e-06
7.63017e-08
5.73664e-06
5.57514e-08
5.75888e-06
4.12134e-08
5.77893e-06
3.06283e-08
5.79714e-06
2.28193e-08
5.81377e-06
1.70862e-08
5.82905e-06
1.29003e-08
5.8432e-06
9.85097e-09
5.85638e-06
7.63937e-09
5.86874e-06
6.0496e-09
5.88038e-06
4.92069e-09
5.89139e-06
4.13023e-09
3.59456e-09
5.90185e-06
4.84613e-06
3.90657e-07
4.88409e-06
2.44297e-07
4.92194e-06
1.60602e-07
4.95543e-06
1.10883e-07
4.98587e-06
7.48199e-08
5.01318e-06
4.89968e-08
5.03709e-06
3.18404e-08
5.05802e-06
2.02816e-08
5.07654e-06
1.21088e-08
5.09308e-06
6.28515e-09
5.10795e-06
2.21228e-09
5.12144e-06
-5.8848e-10
5.13377e-06
-2.48317e-09
5.14514e-06
-3.72598e-09
5.15568e-06
-4.49498e-09
5.16552e-06
-4.92183e-09
5.17476e-06
-5.10486e-09
-5.11157e-09
5.18347e-06
4.2285e-06
3.64833e-07
4.27478e-06
1.98019e-07
4.31486e-06
1.20524e-07
4.34833e-06
7.74091e-08
4.37806e-06
4.50866e-08
4.40388e-06
2.31837e-08
4.42572e-06
9.99934e-09
4.44438e-06
1.62091e-09
4.46057e-06
-4.08424e-09
4.47478e-06
-7.9201e-09
4.48735e-06
-1.03626e-08
4.49859e-06
-1.1826e-08
4.50873e-06
-1.26203e-08
4.51795e-06
-1.29494e-08
4.52641e-06
-1.29524e-08
4.53422e-06
-1.27317e-08
4.54147e-06
-1.23615e-08
-1.18956e-08
4.54826e-06
3.6927e-06
3.30778e-07
3.74755e-06
1.43161e-07
3.78801e-06
8.00687e-08
3.8199e-06
4.55237e-08
3.84742e-06
1.75622e-08
3.87049e-06
1.10434e-10
3.88934e-06
-8.85039e-09
3.90505e-06
-1.40898e-08
3.91837e-06
-1.73962e-08
3.92976e-06
-1.9318e-08
3.93961e-06
-2.02116e-08
3.94821e-06
-2.04214e-08
3.95578e-06
-2.01964e-08
3.96252e-06
-1.969e-08
3.96858e-06
-1.90034e-08
3.97405e-06
-1.82112e-08
3.97906e-06
-1.73632e-08
-1.65006e-08
3.98366e-06
3.22829e-06
2.87518e-07
3.2898e-06
8.16554e-08
3.32914e-06
4.07323e-08
3.35867e-06
1.59887e-08
3.38287e-06
-6.64048e-09
3.40205e-06
-1.907e-08
3.41708e-06
-2.38798e-08
3.42908e-06
-2.60885e-08
3.43877e-06
-2.70866e-08
3.44662e-06
-2.71683e-08
3.45301e-06
-2.65956e-08
3.45823e-06
-2.5645e-08
3.46253e-06
-2.4501e-08
3.46611e-06
-2.32649e-08
3.4691e-06
-2.19984e-08
3.47164e-06
-2.07478e-08
3.47382e-06
-1.95383e-08
-1.84025e-08
3.47572e-06
2.8342e-06
2.26047e-07
2.89309e-06
2.27721e-08
2.92772e-06
6.09567e-09
2.95372e-06
-1.00037e-08
2.97357e-06
-2.64952e-08
2.98757e-06
-3.30704e-08
2.99732e-06
-3.36263e-08
3.00387e-06
-3.26415e-08
3.00805e-06
-3.12685e-08
3.01045e-06
-2.95671e-08
3.01153e-06
-2.76715e-08
3.01164e-06
-2.57537e-08
3.01104e-06
-2.391e-08
3.00995e-06
-2.21749e-08
3.00852e-06
-2.05613e-08
3.00686e-06
-1.90852e-08
3.00506e-06
-1.77467e-08
-1.65533e-08
3.00321e-06
2.52612e-06
1.13732e-07
2.55972e-06
-1.0825e-08
2.57867e-06
-1.28575e-08
2.59339e-06
-2.47208e-08
2.60274e-06
-3.58455e-08
2.60609e-06
-3.6422e-08
2.60478e-06
-3.23185e-08
2.6003e-06
-2.81631e-08
2.59383e-06
-2.48002e-08
2.58625e-06
-2.19855e-08
2.57814e-06
-1.95563e-08
2.56985e-06
-1.74662e-08
2.56161e-06
-1.56733e-08
2.55356e-06
-1.41267e-08
2.54579e-06
-1.27863e-08
2.53835e-06
-1.16421e-08
2.5313e-06
-1.07025e-08
-1.02315e-08
2.52498e-06
2.21507e-06
2.20425e-06
2.19139e-06
2.16667e-06
2.13082e-06
2.0944e-06
2.06208e-06
2.03392e-06
2.00912e-06
1.98713e-06
1.96758e-06
1.95011e-06
1.93444e-06
1.92031e-06
1.90752e-06
1.89588e-06
1.88518e-06
1.87495e-06
7.88208e-08
-7.88208e-08
1.60656e-07
-8.18347e-08
2.27356e-07
-6.67002e-08
2.78499e-07
-5.11428e-08
3.14909e-07
-3.64102e-08
3.37853e-07
-2.29446e-08
3.49237e-07
-1.13837e-08
3.5167e-07
-2.4326e-09
3.46336e-07
5.33324e-09
3.35274e-07
1.10628e-08
3.20367e-07
1.4907e-08
3.00161e-07
2.02058e-08
2.7246e-07
2.77009e-08
2.3957e-07
3.28896e-08
2.00641e-07
3.89287e-08
1.54057e-07
4.65844e-08
9.82997e-08
5.57573e-08
3.0427e-08
6.78726e-08
-5.40391e-08
8.44661e-08
-1.52886e-07
9.8847e-08
-2.70072e-07
1.17186e-07
-4.0238e-07
1.32308e-07
-5.46633e-07
1.44253e-07
-7.03943e-07
1.5731e-07
-8.70941e-07
1.66998e-07
-1.04438e-06
1.73435e-07
-1.22119e-06
1.76818e-07
-1.39858e-06
1.77386e-07
-1.57402e-06
1.75444e-07
-1.74538e-06
1.71351e-07
-1.91087e-06
1.65498e-07
-2.06915e-06
1.58274e-07
-2.21919e-06
1.50046e-07
-2.36033e-06
1.41139e-07
-2.49216e-06
1.3183e-07
-2.61451e-06
1.22347e-07
-2.72737e-06
1.12863e-07
-2.83088e-06
1.03503e-07
-2.92523e-06
9.43527e-08
-3.01069e-06
8.54607e-08
-3.08754e-06
7.68502e-08
-3.15606e-06
6.85241e-08
-3.21653e-06
6.04715e-08
-3.26921e-06
5.26725e-08
-3.31431e-06
4.51035e-08
-3.35205e-06
3.77402e-08
-3.38261e-06
3.05563e-08
-3.40614e-06
2.35308e-08
-3.4228e-06
1.66635e-08
-3.43278e-06
9.97803e-09
-3.43623e-06
3.44951e-09
-3.43416e-06
-2.07291e-09
-3.42711e-06
-7.05055e-09
-3.41542e-06
-1.16806e-08
-3.39931e-06
-1.61173e-08
-3.37884e-06
-2.04659e-08
-3.35406e-06
-2.47831e-08
-3.32495e-06
-2.91045e-08
-3.2915e-06
-3.34562e-08
-3.25364e-06
-3.78606e-08
-3.2113e-06
-4.23378e-08
-3.16439e-06
-4.6907e-08
-3.11281e-06
-5.15858e-08
-3.05642e-06
-5.63896e-08
-2.99509e-06
-6.13306e-08
-2.92867e-06
-6.64165e-08
-2.85702e-06
-7.1649e-08
-2.78e-06
-7.70222e-08
-2.69748e-06
-8.25207e-08
-2.60936e-06
-8.81186e-08
-2.51558e-06
-9.3778e-08
-2.41613e-06
-9.94483e-08
-2.31107e-06
-1.05066e-07
-2.20051e-06
-1.10557e-07
-2.08467e-06
-1.15837e-07
-1.96386e-06
-1.20813e-07
-1.83847e-06
-1.25391e-07
-1.70899e-06
-1.29478e-07
-1.576e-06
-1.32989e-07
-1.44015e-06
-1.35849e-07
-1.30215e-06
-1.37998e-07
-1.16276e-06
-1.39398e-07
-1.02273e-06
-1.40029e-07
-8.82831e-07
-1.39896e-07
-7.43813e-07
-1.39017e-07
-6.0639e-07
-1.37423e-07
-4.71234e-07
-1.35156e-07
-3.38974e-07
-1.3226e-07
-2.10223e-07
-1.28751e-07
-8.54402e-08
-1.24783e-07
3.53659e-08
-1.20806e-07
1.52172e-07
-1.16806e-07
2.6474e-07
-1.12568e-07
3.72956e-07
-1.08216e-07
4.76787e-07
-1.03831e-07
5.76255e-07
-9.94686e-08
6.71427e-07
-9.51717e-08
7.624e-07
-9.09725e-08
8.49296e-07
-8.68967e-08
9.3226e-07
-8.29634e-08
1.01145e-06
-7.91871e-08
1.08702e-06
-7.55775e-08
1.15917e-06
-7.21431e-08
1.22806e-06
-6.88889e-08
1.29389e-06
-6.58334e-08
1.35682e-06
-6.29342e-08
1.41708e-06
-6.02528e-08
1.47507e-06
-5.79914e-08
1.53103e-06
-5.59652e-08
1.58591e-06
-5.48807e-08
1.64187e-06
-5.59535e-08
1.69872e-06
-5.68549e-08
1.74892e-06
-5.01976e-08
1.78917e-06
-4.0247e-08
1.82965e-06
-4.04791e-08
1.85851e-06
-2.88596e-08
1.88235e-06
-2.38392e-08
1.91658e-06
-3.42325e-08
1.95233e-06
-3.57564e-08
1.98637e-06
-3.40384e-08
2.01746e-06
-3.10828e-08
2.0452e-06
-2.77424e-08
2.06969e-06
-2.44881e-08
2.09107e-06
-2.13851e-08
2.10949e-06
-1.84161e-08
2.12504e-06
-1.55531e-08
2.1378e-06
-1.27569e-08
2.14776e-06
-9.96751e-09
2.15486e-06
-7.09386e-09
2.15903e-06
-4.17197e-09
2.16003e-06
-1.00102e-09
2.1584e-06
1.63018e-09
2.15466e-06
3.74413e-09
2.14949e-06
5.16684e-09
2.14318e-06
6.30827e-09
2.13598e-06
7.20039e-09
2.12811e-06
7.87376e-09
2.11974e-06
8.36512e-09
2.11104e-06
8.69923e-09
2.10214e-06
8.89968e-09
2.09316e-06
8.98856e-09
2.08417e-06
8.98592e-09
2.07526e-06
8.90998e-09
2.06648e-06
8.77685e-09
2.05788e-06
8.60068e-09
2.04949e-06
8.39363e-09
2.04132e-06
8.16605e-09
2.0334e-06
7.92662e-09
2.02571e-06
7.68253e-09
2.01827e-06
7.43962e-09
2.01107e-06
7.20255e-09
2.0041e-06
6.97514e-09
1.99734e-06
6.76031e-09
1.99077e-06
6.56032e-09
1.9844e-06
6.37702e-09
1.97819e-06
6.21186e-09
1.97212e-06
6.06614e-09
1.96618e-06
5.94102e-09
1.96034e-06
5.8378e-09
1.95458e-06
5.75803e-09
1.94888e-06
5.70373e-09
1.9432e-06
5.67748e-09
1.93752e-06
5.6829e-09
1.93179e-06
5.72477e-09
1.92598e-06
5.80969e-09
1.92004e-06
5.94663e-09
1.91389e-06
6.14783e-09
1.90746e-06
6.43032e-09
1.90064e-06
6.81791e-09
1.8933e-06
7.34445e-09
1.88524e-06
8.05931e-09
1.8762e-06
9.03645e-09
1.86581e-06
1.03913e-08
1.8535e-06
1.23113e-08
1.83837e-06
1.51282e-08
1.81894e-06
1.94297e-08
1.79234e-06
2.66039e-08
1.75369e-06
3.86493e-08
1.6875e-06
6.61841e-08
1.05239e-07
1.58226e-06
6.71715e-08
-1.45992e-07
1.19174e-07
-1.33837e-07
1.55199e-07
-1.02725e-07
1.7797e-07
-7.39133e-08
1.89693e-07
-4.81338e-08
1.91747e-07
-2.49986e-08
1.84628e-07
-4.2642e-09
1.67888e-07
1.43066e-08
1.41828e-07
3.13935e-08
1.05058e-07
4.78326e-08
5.53146e-08
6.46508e-08
-7.13554e-09
8.26559e-08
-8.11969e-08
1.01762e-07
-1.70946e-07
1.22639e-07
-2.7816e-07
1.46142e-07
-4.03144e-07
1.71569e-07
-5.45196e-07
1.9781e-07
-7.0323e-07
2.25906e-07
-8.72962e-07
2.54198e-07
-1.05382e-06
2.79703e-07
-1.23834e-06
3.01705e-07
-1.42535e-06
3.19321e-07
-1.6118e-06
3.30707e-07
-1.79207e-06
3.37575e-07
-1.96452e-06
3.39452e-07
-2.12755e-06
3.36461e-07
-2.27985e-06
3.29115e-07
-2.42057e-06
3.1811e-07
-2.54935e-06
3.04221e-07
-2.66622e-06
2.8822e-07
-2.77154e-06
2.70826e-07
-2.86593e-06
2.52664e-07
-2.95014e-06
2.34248e-07
-3.02497e-06
2.15976e-07
-3.09128e-06
1.98137e-07
-3.14985e-06
1.80921e-07
-3.20143e-06
1.64441e-07
-3.24668e-06
1.48747e-07
-3.28617e-06
1.33842e-07
-3.3204e-06
1.19697e-07
-3.34982e-06
1.06266e-07
-3.37478e-06
9.34907e-08
-3.39562e-06
8.13105e-08
-3.41262e-06
6.96663e-08
-3.42602e-06
5.85048e-08
-3.43606e-06
4.77795e-08
-3.44295e-06
3.74526e-08
-3.44692e-06
2.74987e-08
-3.44816e-06
1.79023e-08
-3.44684e-06
8.65834e-09
-3.44309e-06
-3.01594e-10
-3.43612e-06
-9.04167e-09
-3.42545e-06
-1.77262e-08
-3.41076e-06
-2.6363e-08
-3.39193e-06
-3.49474e-08
-3.3689e-06
-4.35014e-08
-3.34162e-06
-5.20575e-08
-3.31008e-06
-6.06505e-08
-3.27422e-06
-6.93157e-08
-3.23399e-06
-7.80891e-08
-3.18932e-06
-8.70063e-08
-3.14013e-06
-9.61027e-08
-3.0863e-06
-1.05412e-07
-3.02773e-06
-1.14963e-07
-2.96428e-06
-1.2478e-07
-2.89582e-06
-1.34878e-07
-2.8222e-06
-1.45262e-07
-2.7433e-06
-1.5592e-07
-2.659e-06
-1.66822e-07
-2.56921e-06
-1.77917e-07
-2.47385e-06
-1.89132e-07
-2.37293e-06
-2.00365e-07
-2.26651e-06
-2.11493e-07
-2.1547e-06
-2.22366e-07
-2.03772e-06
-2.32815e-07
-1.91587e-06
-2.42659e-07
-1.78956e-06
-2.51709e-07
-1.65926e-06
-2.59779e-07
-1.52555e-06
-2.66699e-07
-1.38907e-06
-2.72321e-07
-1.25054e-06
-2.76529e-07
-1.11069e-06
-2.79248e-07
-9.70278e-07
-2.80444e-07
-8.30044e-07
-2.8013e-07
-6.90706e-07
-2.78356e-07
-5.52924e-07
-2.75204e-07
-4.17292e-07
-2.70788e-07
-2.84313e-07
-2.65239e-07
-1.54352e-07
-2.58713e-07
-2.76965e-08
-2.51438e-07
9.51514e-08
-2.43654e-07
2.13823e-07
-2.35477e-07
3.28252e-07
-2.26998e-07
4.38384e-07
-2.18347e-07
5.442e-07
-2.09647e-07
6.45727e-07
-2.00995e-07
7.43026e-07
-1.9247e-07
8.3619e-07
-1.84137e-07
9.25339e-07
-1.76046e-07
1.01061e-06
-1.68237e-07
1.09216e-06
-1.60738e-07
1.17016e-06
-1.53571e-07
1.24476e-06
-1.4675e-07
1.31616e-06
-1.40286e-07
1.38452e-06
-1.34189e-07
1.45004e-06
-1.28455e-07
1.51292e-06
-1.23134e-07
1.57325e-06
-1.18324e-07
1.63129e-06
-1.1401e-07
1.68681e-06
-1.10395e-07
1.73831e-06
-1.07453e-07
1.78507e-06
-1.03613e-07
1.83148e-06
-9.66092e-08
1.87931e-06
-8.80846e-08
1.92047e-06
-8.16364e-08
1.96406e-06
-7.24515e-08
2.00624e-06
-6.60117e-08
2.03924e-06
-6.72409e-08
2.07004e-06
-6.65513e-08
2.09979e-06
-6.37856e-08
2.12865e-06
-5.99487e-08
2.15637e-06
-5.54626e-08
2.18254e-06
-5.06563e-08
2.20687e-06
-4.57126e-08
2.22917e-06
-4.07187e-08
2.24933e-06
-3.57152e-08
2.26729e-06
-3.07154e-08
2.28304e-06
-2.57162e-08
2.29668e-06
-2.07295e-08
2.30836e-06
-1.58587e-08
2.31848e-06
-1.11216e-08
2.32681e-06
-6.69236e-09
2.33309e-06
-2.54238e-09
2.33747e-06
7.86394e-10
2.33996e-06
3.82047e-09
2.34069e-06
6.47278e-09
2.33984e-06
8.72723e-09
2.33759e-06
1.06107e-08
2.33414e-06
1.21462e-08
2.32968e-06
1.33645e-08
2.32437e-06
1.42971e-08
2.31838e-06
1.49758e-08
2.31186e-06
1.54326e-08
2.30493e-06
1.56988e-08
2.29773e-06
1.58045e-08
2.29035e-06
1.57777e-08
2.28287e-06
1.56446e-08
2.27537e-06
1.54285e-08
2.2679e-06
1.51506e-08
2.26051e-06
1.48292e-08
2.25323e-06
1.44802e-08
2.24609e-06
1.41171e-08
2.2391e-06
1.37511e-08
2.23227e-06
1.33918e-08
2.2256e-06
1.30468e-08
2.21909e-06
1.27226e-08
2.21273e-06
1.24243e-08
2.20651e-06
1.21567e-08
2.20043e-06
1.19239e-08
2.19445e-06
1.173e-08
2.18858e-06
1.15794e-08
2.18278e-06
1.14774e-08
2.17703e-06
1.14302e-08
2.17131e-06
1.14462e-08
2.16558e-06
1.15361e-08
2.15982e-06
1.17146e-08
2.15396e-06
1.20012e-08
2.14797e-06
1.24229e-08
2.14177e-06
1.3017e-08
2.13528e-06
1.3836e-08
2.12838e-06
1.49555e-08
2.12093e-06
1.64869e-08
2.11272e-06
1.86006e-08
2.10347e-06
2.15636e-08
2.09276e-06
2.58406e-08
2.08e-06
3.21836e-08
2.06422e-06
4.23916e-08
2.04413e-06
5.87407e-08
2.01735e-06
9.29634e-08
1.50428e-07
1.97216e-06
2.35892e-08
-1.69582e-07
2.84016e-08
-1.3865e-07
2.54535e-08
-9.97773e-08
1.50421e-08
-6.35018e-08
-3.34424e-09
-2.97474e-08
-3.03816e-08
2.0388e-09
-6.69676e-08
3.23217e-08
-1.14422e-07
6.17609e-08
-1.74084e-07
9.10559e-08
-2.47241e-07
1.2099e-07
-3.34801e-07
1.5221e-07
-4.37143e-07
1.84998e-07
-5.54661e-07
2.19281e-07
-6.86799e-07
2.54777e-07
-8.31533e-07
2.90876e-07
-9.86506e-07
3.26543e-07
-1.14917e-06
3.60468e-07
-1.31473e-06
3.91467e-07
-1.47846e-06
4.17928e-07
-1.63726e-06
4.38512e-07
-1.78813e-06
4.52574e-07
-1.92882e-06
4.60012e-07
-2.05902e-06
4.60902e-07
-2.17755e-06
4.56106e-07
-2.28443e-06
4.46337e-07
-2.3804e-06
4.32422e-07
-2.46653e-06
4.15244e-07
-2.54409e-06
3.95672e-07
-2.61437e-06
3.74507e-07
-2.67859e-06
3.52441e-07
-2.7378e-06
3.30037e-07
-2.79287e-06
3.07731e-07
-2.84446e-06
2.85839e-07
-2.89306e-06
2.6457e-07
-2.93897e-06
2.44049e-07
-2.98238e-06
2.24335e-07
-3.02338e-06
2.05434e-07
-3.06195e-06
1.87323e-07
-3.09806e-06
1.69952e-07
-3.13163e-06
1.53261e-07
-3.16255e-06
1.37187e-07
-3.19072e-06
1.21662e-07
-3.21603e-06
1.06625e-07
-3.23839e-06
9.202e-08
-3.25768e-06
7.77956e-08
-3.2738e-06
6.3907e-08
-3.28667e-06
5.0314e-08
-3.29615e-06
3.69801e-08
-3.30212e-06
2.38712e-08
-3.30441e-06
1.09473e-08
-3.30286e-06
-1.84189e-09
-3.29735e-06
-1.45599e-08
-3.28783e-06
-2.72403e-08
-3.27431e-06
-3.98898e-08
-3.25673e-06
-5.25234e-08
-3.23507e-06
-6.51642e-08
-3.20928e-06
-7.78445e-08
-3.17933e-06
-9.06031e-08
-3.14516e-06
-1.03484e-07
-3.10671e-06
-1.16534e-07
-3.06392e-06
-1.29803e-07
-3.01668e-06
-1.43341e-07
-2.96489e-06
-1.57197e-07
-2.90844e-06
-1.71416e-07
-2.84719e-06
-1.86034e-07
-2.78099e-06
-2.01076e-07
-2.7097e-06
-2.1655e-07
-2.63318e-06
-2.32441e-07
-2.55129e-06
-2.48708e-07
-2.46393e-06
-2.65279e-07
-2.37102e-06
-2.82042e-07
-2.27253e-06
-2.98851e-07
-2.16851e-06
-3.15516e-07
-2.05906e-06
-3.31815e-07
-1.94439e-06
-3.4749e-07
-1.82478e-06
-3.62264e-07
-1.70064e-06
-3.7585e-07
-1.57246e-06
-3.87964e-07
-1.44081e-06
-3.98347e-07
-1.30636e-06
-4.06773e-07
-1.16982e-06
-4.13068e-07
-1.03195e-06
-4.1712e-07
-8.93505e-07
-4.18886e-07
-7.55247e-07
-4.18388e-07
-6.17887e-07
-4.15716e-07
-4.82082e-07
-4.1101e-07
-3.48412e-07
-4.04459e-07
-2.17362e-07
-3.96289e-07
-8.9317e-08
-3.86758e-07
3.53432e-08
-3.76098e-07
1.56234e-07
-3.64545e-07
2.73102e-07
-3.52345e-07
3.85815e-07
-3.39711e-07
4.94303e-07
-3.26836e-07
5.98545e-07
-3.1389e-07
6.98566e-07
-3.01016e-07
7.94426e-07
-2.8833e-07
8.86218e-07
-2.7593e-07
9.74062e-07
-2.63889e-07
1.05809e-06
-2.52267e-07
1.13846e-06
-2.41107e-07
1.21533e-06
-2.30439e-07
1.28886e-06
-2.20284e-07
1.35923e-06
-2.10655e-07
1.4266e-06
-2.01559e-07
1.49115e-06
-1.93e-07
1.55302e-06
-1.84999e-07
1.61228e-06
-1.77585e-07
1.66899e-06
-1.70725e-07
1.72297e-06
-1.64376e-07
1.77383e-06
-1.5831e-07
1.82194e-06
-1.51719e-07
1.86894e-06
-1.43616e-07
1.9152e-06
-1.34347e-07
1.95887e-06
-1.253e-07
2.00251e-06
-1.16095e-07
2.04479e-06
-1.08289e-07
2.08153e-06
-1.03978e-07
2.11519e-06
-1.00214e-07
2.14699e-06
-9.55909e-08
2.17728e-06
-9.0238e-08
2.20616e-06
-8.43343e-08
2.23353e-06
-7.80319e-08
2.25928e-06
-7.14617e-08
2.28328e-06
-6.47145e-08
2.30541e-06
-5.78523e-08
2.32562e-06
-5.09205e-08
2.34386e-06
-4.3961e-08
2.36017e-06
-3.70398e-08
2.37458e-06
-3.02607e-08
2.38715e-06
-2.36975e-08
2.39789e-06
-1.74357e-08
2.40689e-06
-1.15356e-08
2.4139e-06
-6.22605e-09
2.41905e-06
-1.33224e-09
2.42247e-06
3.0599e-09
2.42426e-06
6.93051e-09
2.42458e-06
1.02921e-08
2.42357e-06
1.31583e-08
2.42138e-06
1.55535e-08
2.41817e-06
1.75074e-08
2.41409e-06
1.90552e-08
2.40929e-06
2.02355e-08
2.4039e-06
2.1089e-08
2.39804e-06
2.16575e-08
2.39184e-06
2.19819e-08
2.38538e-06
2.21017e-08
2.37876e-06
2.2054e-08
2.37204e-06
2.18731e-08
2.36527e-06
2.15899e-08
2.35852e-06
2.12319e-08
2.35182e-06
2.08231e-08
2.34518e-06
2.03843e-08
2.33864e-06
1.9933e-08
2.3322e-06
1.94841e-08
2.32588e-06
1.90499e-08
2.31966e-06
1.8641e-08
2.31355e-06
1.82663e-08
2.30754e-06
1.79337e-08
2.30162e-06
1.76507e-08
2.29578e-06
1.74251e-08
2.28999e-06
1.72651e-08
2.28424e-06
1.71806e-08
2.2785e-06
1.71838e-08
2.27275e-06
1.72903e-08
2.26694e-06
1.75207e-08
2.26104e-06
1.79024e-08
2.25499e-06
1.84726e-08
2.24872e-06
1.92827e-08
2.24215e-06
2.04042e-08
2.23517e-06
2.19391e-08
2.22762e-06
2.40361e-08
2.2193e-06
2.69194e-08
2.20993e-06
3.09339e-08
2.19912e-06
3.66577e-08
2.18629e-06
4.50119e-08
2.17073e-06
5.79495e-08
2.1513e-06
7.81673e-08
2.12944e-06
1.14826e-07
1.73771e-07
2.1061e-06
-2.51731e-08
-1.44408e-07
-5.98353e-08
-1.03987e-07
-9.83484e-08
-6.12641e-08
-1.41585e-07
-2.02651e-08
-1.90845e-07
1.95125e-08
-2.4765e-07
5.88439e-08
-3.13521e-07
9.81923e-08
-3.89764e-07
1.38004e-07
-4.77385e-07
1.78676e-07
-5.76841e-07
2.20446e-07
-6.8789e-07
2.63259e-07
-8.0956e-07
3.06668e-07
-9.40127e-07
3.49847e-07
-1.07704e-06
3.91686e-07
-1.21707e-06
4.30906e-07
-1.35668e-06
4.6616e-07
-1.49243e-06
4.96214e-07
-1.62102e-06
5.20054e-07
-1.74005e-06
5.36964e-07
-1.84832e-06
5.46784e-07
-1.94557e-06
5.49815e-07
-2.03218e-06
5.46625e-07
-2.10936e-06
5.38084e-07
-2.17839e-06
5.25138e-07
-2.24074e-06
5.08687e-07
-2.2979e-06
4.8958e-07
-2.35124e-06
4.68584e-07
-2.40192e-06
4.46355e-07
-2.45085e-06
4.2343e-07
-2.49863e-06
4.0023e-07
-2.54567e-06
3.7707e-07
-2.59211e-06
3.54176e-07
-2.63797e-06
3.31696e-07
-2.68312e-06
3.09721e-07
-2.72736e-06
2.88294e-07
-2.77045e-06
2.67423e-07
-2.81211e-06
2.47094e-07
-2.85207e-06
2.27276e-07
-2.89004e-06
2.0793e-07
-2.92579e-06
1.89008e-07
-2.95907e-06
1.70467e-07
-2.98967e-06
1.52262e-07
-3.0174e-06
1.34352e-07
-3.04208e-06
1.16701e-07
-3.06356e-06
9.92759e-08
-3.0817e-06
8.20492e-08
-3.09639e-06
6.49961e-08
-3.1075e-06
4.80942e-08
-3.11495e-06
3.13216e-08
-3.11866e-06
1.46539e-08
-3.11856e-06
-1.93707e-09
-3.11464e-06
-1.84823e-08
-3.10688e-06
-3.50034e-08
-3.09525e-06
-5.15153e-08
-3.07974e-06
-6.80389e-08
-3.0603e-06
-8.46028e-08
-3.0369e-06
-1.01245e-07
-3.00949e-06
-1.18011e-07
-2.97802e-06
-1.34954e-07
-2.94242e-06
-1.52133e-07
-2.90261e-06
-1.69614e-07
-2.85849e-06
-1.87461e-07
-2.80995e-06
-2.0574e-07
-2.75685e-06
-2.24513e-07
-2.69905e-06
-2.43832e-07
-2.63639e-06
-2.63735e-07
-2.5687e-06
-2.84238e-07
-2.49582e-06
-3.05327e-07
-2.41757e-06
-3.26954e-07
-2.33383e-06
-3.49026e-07
-2.24447e-06
-3.71401e-07
-2.14944e-06
-3.93881e-07
-2.04874e-06
-4.16214e-07
-1.94246e-06
-4.38094e-07
-1.83078e-06
-4.59171e-07
-1.71398e-06
-4.79061e-07
-1.59247e-06
-4.97366e-07
-1.46674e-06
-5.13693e-07
-1.33741e-06
-5.27679e-07
-1.20516e-06
-5.39015e-07
-1.07077e-06
-5.47463e-07
-9.35016e-07
-5.52873e-07
-7.98708e-07
-5.55194e-07
-6.62629e-07
-5.54467e-07
-5.27519e-07
-5.50826e-07
-3.94049e-07
-5.44479e-07
-2.6281e-07
-5.35698e-07
-1.34299e-07
-5.248e-07
-8.94942e-09
-5.12107e-07
1.1287e-07
-4.97917e-07
2.30882e-07
-4.82557e-07
3.44888e-07
-4.6635e-07
4.5476e-07
-4.49582e-07
5.60436e-07
-4.32512e-07
6.61908e-07
-4.15362e-07
7.5921e-07
-3.98318e-07
8.52414e-07
-3.81535e-07
9.41621e-07
-3.65136e-07
1.02695e-06
-3.4922e-07
1.10855e-06
-3.33863e-07
1.18656e-06
-3.19118e-07
1.26114e-06
-3.05025e-07
1.33247e-06
-2.91609e-07
1.4007e-06
-2.78882e-07
1.46599e-06
-2.6685e-07
1.5285e-06
-2.55509e-07
1.58835e-06
-2.44855e-07
1.64564e-06
-2.34873e-07
1.70042e-06
-2.25499e-07
1.75266e-06
-2.16619e-07
1.80234e-06
-2.07996e-07
1.84976e-06
-1.99137e-07
1.89563e-06
-1.89483e-07
1.94039e-06
-1.79105e-07
1.98383e-06
-1.68739e-07
2.02635e-06
-1.58616e-07
2.06748e-06
-1.49427e-07
2.10559e-06
-1.42087e-07
2.14093e-06
-1.3555e-07
2.17414e-06
-1.28804e-07
2.20557e-06
-1.21668e-07
2.23538e-06
-1.14147e-07
2.26363e-06
-1.06273e-07
2.29027e-06
-9.81018e-08
2.31524e-06
-8.96927e-08
2.33849e-06
-8.11012e-08
2.35996e-06
-7.2383e-08
2.3796e-06
-6.36025e-08
2.3974e-06
-5.48451e-08
2.41336e-06
-4.62168e-08
2.42747e-06