/*--------------------------------*- C++ -*----------------------------------*\
  =========                 |
  \\      /  F ield         | OpenFOAM: The Open Source CFD Toolbox
   \\    /   O peration     | Website:  https://openfoam.org
    \\  /    A nd           | Version:  7
     \\/     M anipulation  |
\*---------------------------------------------------------------------------*/
FoamFile
{
    version     2.0;
    format      ascii;
    class       volVectorField;
    location    "0.04";
    object      U;
}
// * * * * * * * * * * * * * * * * * * * * * * * * * * * * * * * * * * * * * //

dimensions      [0 1 -1 0 0 0 0];

internalField   nonuniform List<vector> 
12225
(
(4.73336 -0.571195 0)
(4.31307 -0.43032 0)
(4.0307 -0.176573 0)
(3.81872 -0.0510115 0)
(3.64023 -0.00390674 0)
(3.493 0.0108869 0)
(3.37685 0.0141241 0)
(3.28451 0.0137345 0)
(3.20797 0.0125794 0)
(3.14208 0.0115738 0)
(3.08372 0.0109133 0)
(3.03057 0.0105805 0)
(2.9807 0.0105425 0)
(2.9325 0.0108188 0)
(2.88418 0.0114651 0)
(2.83485 0.012786 0)
(2.77721 0.0150908 0)
(2.73032 0.0198583 0)
(5.03 0.295197 0)
(4.84186 0.245451 0)
(4.69061 0.170526 0)
(4.58272 0.10805 0)
(4.48167 0.0717901 0)
(4.38389 0.0533754 0)
(4.29486 0.0433184 0)
(4.21516 0.0368746 0)
(4.14309 0.0323923 0)
(4.0775 0.029295 0)
(4.01756 0.0272584 0)
(3.96229 0.0260646 0)
(3.91056 0.0256037 0)
(3.8613 0.0258991 0)
(3.81327 0.0270012 0)
(3.76596 0.0296368 0)
(3.716 0.0330666 0)
(3.66965 0.0450223 0)
(4.96334 0.187708 0)
(4.82952 0.104599 0)
(4.75312 0.0867885 0)
(4.70862 0.078031 0)
(4.66111 0.070003 0)
(4.60835 0.0635137 0)
(4.55639 0.0580191 0)
(4.50688 0.0531569 0)
(4.45933 0.0490986 0)
(4.41362 0.0460081 0)
(4.36986 0.0438661 0)
(4.32788 0.0426011 0)
(4.28727 0.0421969 0)
(4.24752 0.0427539 0)
(4.20798 0.0444162 0)
(4.16819 0.0478705 0)
(4.12722 0.053138 0)
(4.08544 0.0645559 0)
(4.96279 0.171372 0)
(4.85004 0.103387 0)
(4.78838 0.0981084 0)
(4.75774 0.092218 0)
(4.72806 0.0833463 0)
(4.69556 0.0760569 0)
(4.66398 0.070382 0)
(4.63386 0.0656171 0)
(4.60435 0.0617162 0)
(4.57514 0.0587956 0)
(4.54632 0.0568557 0)
(4.51786 0.0558672 0)
(4.48953 0.0558633 0)
(4.46105 0.0569906 0)
(4.43209 0.0594672 0)
(4.40239 0.0638972 0)
(4.37202 0.0706151 0)
(4.3403 0.0818992 0)
(4.97355 0.19554 0)
(4.88067 0.13005 0)
(4.82147 0.116215 0)
(4.79126 0.10413 0)
(4.7666 0.0924724 0)
(4.74216 0.0842252 0)
(4.71971 0.0783417 0)
(4.6991 0.0736469 0)
(4.67922 0.0699311 0)
(4.65956 0.0672634 0)
(4.64005 0.0656437 0)
(4.62056 0.065059 0)
(4.60091 0.0655652 0)
(4.58088 0.0673241 0)
(4.56031 0.0705822 0)
(4.53906 0.0758237 0)
(4.51751 0.0834504 0)
(4.49509 0.0945345 0)
(4.98212 0.219031 0)
(4.90776 0.151304 0)
(4.85183 0.128911 0)
(4.82067 0.113018 0)
(4.79724 0.0999977 0)
(4.77587 0.0910505 0)
(4.75723 0.0847704 0)
(4.74092 0.0799223 0)
(4.72576 0.0762232 0)
(4.7111 0.0736864 0)
(4.69673 0.0722929 0)
(4.68247 0.0720303 0)
(4.66811 0.0729586 0)
(4.65348 0.0752327 0)
(4.63849 0.0790877 0)
(4.62312 0.0848914 0)
(4.60777 0.0929945 0)
(4.5921 0.103908 0)
(4.98789 0.2357 0)
(4.92992 0.168332 0)
(4.8794 0.14064 0)
(4.84818 0.122228 0)
(4.82505 0.10785 0)
(4.80486 0.0978356 0)
(4.78779 0.0908168 0)
(4.77338 0.0855597 0)
(4.7605 0.0816822 0)
(4.74844 0.0791189 0)
(4.73688 0.0778169 0)
(4.72562 0.0777508 0)
(4.71444 0.0789692 0)
(4.70319 0.0816032 0)
(4.69183 0.0858507 0)
(4.68038 0.0919774 0)
(4.66924 0.100245 0)
(4.6582 0.110897 0)
(4.99185 0.247885 0)
(4.94768 0.18368 0)
(4.90381 0.152676 0)
(4.87373 0.132056 0)
(4.85106 0.116151 0)
(4.83161 0.104846 0)
(4.81532 0.0968845 0)
(4.8018 0.0910341 0)
(4.79006 0.086814 0)
(4.7794 0.0840796 0)
(4.76945 0.0827385 0)
(4.75998 0.0827419 0)
(4.75079 0.0841147 0)
(4.74174 0.0869522 0)
(4.73282 0.0914018 0)
(4.72409 0.0976402 0)
(4.71588 0.105834 0)
(4.70806 0.116081 0)
(4.99457 0.25723 0)
(4.96158 0.197513 0)
(4.92469 0.164451 0)
(4.89685 0.141986 0)
(4.87526 0.124684 0)
(4.85675 0.112103 0)
(4.84115 0.103125 0)
(4.82823 0.0965677 0)
(4.81719 0.091882 0)
(4.80738 0.0888555 0)
(4.79844 0.0873566 0)
(4.79015 0.0873076 0)
(4.7823 0.0887013 0)
(4.77481 0.0915908 0)
(4.76764 0.0960673 0)
(4.76089 0.10223 0)
(4.75482 0.110161 0)
(4.74932 0.119866 0)
(4.99641 0.264374 0)
(4.97212 0.20949 0)
(4.94198 0.175411 0)
(4.9172 0.151608 0)
(4.89735 0.133203 0)
(4.88019 0.11949 0)
(4.86555 0.109516 0)
(4.85332 0.102207 0)
(4.84292 0.0969803 0)
(4.83381 0.0935711 0)
(4.82567 0.0918138 0)
(4.81827 0.091601 0)
(4.81147 0.0928897 0)
(4.80518 0.0956884 0)
(4.79939 0.100033 0)
(4.79417 0.105956 0)
(4.78976 0.113468 0)
(4.78601 0.122518 0)
(4.99762 0.269745 0)
(4.97994 0.219542 0)
(4.95591 0.1853 0)
(4.93461 0.160639 0)
(4.917 0.14143 0)
(4.90164 0.126783 0)
(4.88832 0.115906 0)
(4.87706 0.107863 0)
(4.86749 0.102067 0)
(4.85916 0.0982202 0)
(4.85182 0.0961289 0)
(4.84529 0.0956581 0)
(4.83944 0.0967299 0)
(4.8342 0.0993095 0)
(4.82959 0.103382 0)
(4.82566 0.108924 0)
(4.82261 0.115892 0)
(4.82026 0.124194 0)
(4.99835 0.273517 0)
(4.98519 0.227202 0)
(4.96603 0.193323 0)
(4.948 0.168197 0)
(4.93269 0.148452 0)
(4.91925 0.133125 0)
(4.90747 0.121538 0)
(4.89741 0.112876 0)
(4.88883 0.106571 0)
(4.88142 0.102305 0)
(4.87495 0.0998657 0)
(4.86929 0.0990952 0)
(4.86435 0.0998865 0)
(4.86008 0.102168 0)
(4.85649 0.105885 0)
(4.85364 0.110973 0)
(4.85169 0.117352 0)
(4.85044 0.124902 0)
(4.99883 0.276394 0)
(4.98912 0.233557 0)
(4.97413 0.20037 0)
(4.95925 0.174985 0)
(4.94631 0.154831 0)
(4.93491 0.138959 0)
(4.92485 0.126763 0)
(4.91621 0.117542 0)
(4.90884 0.110755 0)
(4.90251 0.106072 0)
(4.89707 0.103265 0)
(4.8924 0.102157 0)
(4.88844 0.102614 0)
(4.88518 0.104534 0)
(4.88262 0.107827 0)
(4.8808 0.112396 0)
(4.87989 0.118135 0)
(4.87963 0.124903 0)
(4.9992 0.2788 0)
(4.99242 0.239337 0)
(4.98139 0.207136 0)
(4.96986 0.181667 0)
(4.95961 0.161191 0)
(4.95059 0.144832 0)
(4.94265 0.13205 0)
(4.93582 0.122257 0)
(4.93004 0.114957 0)
(4.92517 0.109808 0)
(4.92108 0.106567 0)
(4.91771 0.105037 0)
(4.91502 0.105058 0)
(4.91299 0.106499 0)
(4.91165 0.109238 0)
(4.91104 0.113151 0)
(4.91126 0.118108 0)
(4.91209 0.12396 0)
(4.99949 0.28072 0)
(4.99511 0.244233 0)
(4.98771 0.21315 0)
(4.97961 0.187736 0)
(4.9723 0.167 0)
(4.96595 0.150206 0)
(4.96045 0.136867 0)
(4.95581 0.126498 0)
(4.95201 0.118653 0)
(4.94896 0.112989 0)
(4.94659 0.109245 0)
(4.94485 0.107204 0)
(4.94372 0.106683 0)
(4.9432 0.107523 0)
(4.94331 0.109574 0)
(4.94408 0.112693 0)
(4.94559 0.116733 0)
(4.94761 0.121546 0)
(4.99972 0.282111 0)
(4.9973 0.247917 0)
(4.99313 0.217846 0)
(4.98848 0.192529 0)
(4.98433 0.171539 0)
(4.98091 0.154321 0)
(4.97815 0.140439 0)
(4.97603 0.129483 0)
(4.97456 0.121054 0)
(4.97368 0.114817 0)
(4.97335 0.110492 0)
(4.97355 0.107846 0)
(4.97425 0.106672 0)
(4.97548 0.106789 0)
(4.97724 0.108027 0)
(4.97955 0.110227 0)
(4.98247 0.113236 0)
(4.9858 0.116912 0)
(4.99991 0.282877 0)
(4.99915 0.249983 0)
(4.99792 0.220479 0)
(4.99674 0.195099 0)
(4.996 0.173758 0)
(4.99581 0.156065 0)
(4.99611 0.141623 0)
(4.99686 0.13006 0)
(4.99806 0.121012 0)
(4.99966 0.114145 0)
(5.00166 0.109169 0)
(5.00404 0.105829 0)
(5.00679 0.103904 0)
(5.00993 0.103193 0)
(5.01348 0.103517 0)
(5.01743 0.104707 0)
(5.02183 0.106609 0)
(5.02649 0.109095 0)
(5.00009 0.28281 0)
(5.0009 0.249786 0)
(5.00259 0.219959 0)
(5.00507 0.194056 0)
(5.00814 0.172118 0)
(5.01163 0.153816 0)
(5.01543 0.138756 0)
(5.01947 0.126564 0)
(5.02373 0.116878 0)
(5.02817 0.109358 0)
(5.03279 0.103694 0)
(5.03758 0.0996165 0)
(5.04256 0.0968883 0)
(5.04775 0.0952996 0)
(5.05315 0.094663 0)
(5.05878 0.0948106 0)
(5.06466 0.0955914 0)
(5.07065 0.0968902 0)
(5.00033 0.281435 0)
(5.00306 0.245958 0)
(5.00823 0.214185 0)
(5.0151 0.186851 0)
(5.02277 0.163868 0)
(5.03069 0.144764 0)
(5.03866 0.129049 0)
(5.0466 0.116289 0)
(5.05446 0.106073 0)
(5.06218 0.0980146 0)
(5.06978 0.0917745 0)
(5.07727 0.0870616 0)
(5.08468 0.0836265 0)
(5.09205 0.0812529 0)
(5.0994 0.0797529 0)
(5.10674 0.0789632 0)
(5.11412 0.0787412 0)
(5.1214 0.0789849 0)
(5.00064 0.278747 0)
(5.00583 0.238394 0)
(5.01534 0.202994 0)
(5.0274 0.17336 0)
(5.04016 0.148991 0)
(5.05275 0.129028 0)
(5.065 0.11279 0)
(5.07684 0.0997282 0)
(5.08819 0.0893206 0)
(5.09901 0.0810962 0)
(5.10935 0.0746649 0)
(5.11926 0.0697099 0)
(5.12882 0.0659681 0)
(5.13808 0.063218 0)
(5.14707 0.0612726 0)
(5.15585 0.059975 0)
(5.16445 0.0591918 0)
(5.17278 0.0588318 0)
(5.00098 0.275009 0)
(5.00915 0.228208 0)
(5.02372 0.188664 0)
(5.04135 0.156979 0)
(5.05907 0.131692 0)
(5.07596 0.111351 0)
(5.09204 0.0950888 0)
(5.10726 0.0822242 0)
(5.12153 0.0720918 0)
(5.13486 0.0641249 0)
(5.14737 0.0578939 0)
(5.15916 0.0530682 0)
(5.17035 0.0493791 0)
(5.181 0.0466049 0)
(5.1912 0.0445648 0)
(5.201 0.0431107 0)
(5.21047 0.0421195 0)
(5.21953 0.0415084 0)
(5.00152 0.269872 0)
(5.01409 0.214776 0)
(5.03551 0.17085 0)
(5.05977 0.137647 0)
(5.08275 0.111957 0)
(5.10396 0.0916705 0)
(5.12379 0.0758236 0)
(5.14223 0.0635722 0)
(5.15915 0.0540643 0)
(5.17467 0.0466478 0)
(5.189 0.0408776 0)
(5.20233 0.0364213 0)
(5.2148 0.0330095 0)
(5.22652 0.0304256 0)
(5.2376 0.0284988 0)
(5.24811 0.0270927 0)
(5.25816 0.0260957 0)
(5.26768 0.0254332 0)
(5.00242 0.262808 0)
(5.02169 0.197438 0)
(5.05237 0.14962 0)
(5.08427 0.115895 0)
(5.11259 0.0903829 0)
(5.138 0.0706203 0)
(5.16143 0.05571 0)
(5.18271 0.0445342 0)
(5.20179 0.036005 0)
(5.21897 0.0294226 0)
(5.2346 0.0243594 0)
(5.24895 0.0204915 0)
(5.26219 0.0175541 0)
(5.27449 0.0153416 0)
(5.28597 0.013698 0)
(5.29677 0.0125016 0)
(5.30698 0.0116538 0)
(5.31657 0.0110887 0)
(5.00399 0.25296 0)
(5.03358 0.175159 0)
(5.07631 0.125074 0)
(5.11625 0.0924719 0)
(5.14936 0.0678637 0)
(5.17853 0.0491567 0)
(5.20497 0.0357384 0)
(5.22833 0.0260803 0)
(5.2487 0.0188428 0)
(5.26672 0.0133321 0)
(5.2829 0.00916823 0)
(5.29754 0.0060465 0)
(5.31087 0.00371528 0)
(5.32311 0.00198872 0)
(5.33442 0.000731467 0)
(5.34496 -0.000160781 0)
(5.35483 -0.0007709 0)
(5.36404 -0.00115523 0)
(5.00669 0.239642 0)
(5.05157 0.147214 0)
(5.10909 0.0972532 0)
(5.15623 0.0678095 0)
(5.19263 0.0452343 0)
(5.22449 0.0284013 0)
(5.25293 0.0170289 0)
(5.27721 0.00919382 0)
(5.29778 0.00343144 0)
(5.31566 -0.000874294 0)
(5.33149 -0.00404073 0)
(5.34561 -0.00634491 0)
(5.35828 -0.00801328 0)
(5.36975 -0.00920424 0)
(5.38023 -0.0100292 0)
(5.38988 -0.010574 0)
(5.39884 -0.0109051 0)
(5.40712 -0.0110702 0)
(5.01056 0.222849 0)
(5.07632 0.116638 0)
(5.15082 0.068836 0)
(5.20352 0.0427741 0)
(5.24121 0.022958 0)
(5.27417 0.00914985 0)
(5.30315 0.000439829 0)
(5.32698 -0.00539088 0)
(5.34655 -0.00962752 0)
(5.36317 -0.0126964 0)
(5.37759 -0.014843 0)
(5.39014 -0.0163142 0)
(5.40114 -0.0173039 0)
(5.41087 -0.0179395 0)
(5.41957 -0.0183087 0)
(5.42742 -0.0184805 0)
(5.43456 -0.0185056 0)
(5.44107 -0.0184261 0)
(5.01616 0.196619 0)
(5.1088 0.0882275 0)
(5.20013 0.0475107 0)
(5.25632 0.0213849 0)
(5.2938 0.00196388 0)
(5.32612 -0.00873485 0)
(5.35352 -0.0142117 0)
(5.37489 -0.01769 0)
(5.39153 -0.0202227 0)
(5.40501 -0.021949 0)
(5.41607 -0.0230065 0)
(5.42513 -0.0235971 0)
(5.43254 -0.0238746 0)
(5.43865 -0.0239304 0)
(5.44376 -0.023826 0)
(5.44807 -0.0236131 0)
(5.45174 -0.0233259 0)
(5.4549 -0.0229988 0)
(5.02993 0.134709 0)
(5.16022 0.0480097 0)
(5.25908 0.0420096 0)
(5.31078 0.0228688 0)
(5.34565 -0.000230505 0)
(5.37547 -0.0137845 0)
(5.39792 -0.0199262 0)
(5.41251 -0.0231065 0)
(5.42157 -0.0249871 0)
(5.42713 -0.0259284 0)
(5.43014 -0.0261949 0)
(5.43112 -0.0260619 0)
(5.43059 -0.0257116 0)
(5.42899 -0.02524 0)
(5.42665 -0.0247029 0)
(5.42381 -0.0241473 0)
(5.42065 -0.0236065 0)
(5.41734 -0.0231062 0)
(5.08137 -0.0499582 0)
(5.26841 -0.198988 0)
(5.34788 -0.137413 0)
(5.36622 -0.0857802 0)
(5.38105 -0.062907 0)
(5.39535 -0.0505588 0)
(5.39942 -0.0420622 0)
(5.39301 -0.0365103 0)
(5.38064 -0.0329437 0)
(5.36556 -0.0303667 0)
(5.34915 -0.0282647 0)
(5.33206 -0.0264599 0)
(5.31485 -0.02488 0)
(5.2979 -0.0234753 0)
(5.28147 -0.0222138 0)
(5.26568 -0.0210956 0)
(5.25064 -0.0201288 0)
(5.2365 -0.0195011 0)
(5.01587 0.723736 0)
(5.23623 0.467625 0)
(5.28633 0.234668 0)
(5.21052 0.104164 0)
(5.11147 0.0386762 0)
(5.02304 0.00924469 0)
(4.94415 -0.00266861 0)
(4.87264 -0.00715276 0)
(4.80908 -0.00869114 0)
(4.75332 -0.00903002 0)
(4.70414 -0.00887609 0)
(4.66029 -0.00854963 0)
(4.62096 -0.00819207 0)
(4.58557 -0.00785573 0)
(4.55362 -0.00755504 0)
(4.52465 -0.00730644 0)
(4.49812 -0.00711392 0)
(4.47381 -0.0072091 0)
(0.0516633 -0.0782858 -1.56521e-20)
(0.112673 -0.0949485 1.27399e-20)
(0.170932 -0.08497 0)
(0.22577 -0.0687962 0)
(0.266223 -0.0515126 0)
(0.292543 -0.0351939 -1.00793e-20)
(0.307438 -0.0216007 0)
(0.313366 -0.0120975 0)
(0.311874 -0.00566528 0)
(0.303791 -0.00251631 0)
(0.292645 -0.00435709 1.07096e-20)
(0.279482 -0.00198472 0)
(0.256309 0.00898282 0)
(0.22802 0.0117858 0)
(0.197969 0.0142215 0)
(0.163078 0.0158285 1.40083e-20)
(0.112748 0.0211661 0)
(0.05839 0.0327914 0)
(-0.00493634 0.0534514 0)
(-0.0882446 0.0626574 0)
(-0.187589 0.0872451 0)
(-0.292431 0.100057 0)
(-0.424122 0.106621 0)
(-0.557842 0.124889 1.38453e-20)
(-0.704337 0.139893 -1.34096e-20)
(-0.858127 0.151457 1.30665e-20)
(-1.01641 0.159556 1.28134e-20)
(-1.17654 0.164253 0)
(-1.33612 0.165761 0)
(-1.49305 0.164427 -1.24971e-20)
(-1.64558 0.160683 -1.24989e-20)
(-1.79231 0.154997 0)
(-1.93217 0.14783 0)
(-2.06441 0.139607 -1.26713e-20)
(-2.18855 0.130691 0)
(-2.30433 0.121382 0)
(-2.41167 0.111912 1.2932e-20)
(-2.51062 0.102454 0)
(-2.60133 0.0931286 1.30892e-20)
(-2.684 0.0840116 2.63086e-20)
(-2.75888 0.075148 0)
(-2.8262 0.0665593 0)
(-2.88621 0.0582525 0)
(-2.93913 0.0502275 0)
(-2.98517 0.0424862 0)
(-3.02452 0.0350359 2.6532e-20)
(-3.05732 0.0278955 2.64606e-20)
(-3.08376 0.0211139 2.63552e-20)
(-3.10395 0.0147736 0)
(-3.11805 0.00897167 -2.60393e-20)
(-3.12617 0.00384313 0)
(-3.12837 -0.000519612 2.55498e-20)
(-3.12616 -0.00419946 2.52207e-20)
(-3.11964 -0.00753117 0)
(-3.10902 -0.0106874 0)
(-3.0944 -0.0137576 0)
(-3.07583 -0.0167886 2.33955e-20)
(-3.0533 -0.0198092 0)
(-3.0268 -0.0228405 0)
(-2.99627 -0.0259002 0)
(-2.96166 -0.0290039 0)
(-2.92286 -0.032166 0)
(-2.87979 -0.0353995 0)
(-2.83233 -0.0387156 0)
(-2.78033 -0.0421226 0)
(-2.72366 -0.0456256 -1.58241e-20)
(-2.66218 -0.0492255 0)
(-2.59573 -0.0529177 0)
(-2.52419 -0.0566914 1.20001e-20)
(-2.44742 -0.0605286 1.05545e-20)
(-2.36534 -0.064404 0)
(-2.2779 -0.068284 -7.39023e-21)
(-2.18511 -0.0721276 5.66759e-21)
(-2.08703 -0.0758869 0)
(-1.98381 -0.0795084 -1.93659e-21)
(-1.87566 -0.0829352 0)
(-1.76291 -0.0861091 0)
(-1.64596 -0.0889741 -4.36062e-21)
(-1.52529 -0.0914784 0)
(-1.40147 -0.0935775 8.99134e-21)
(-1.27512 -0.0952362 0)
(-1.14692 -0.0964298 -1.39208e-20)
(-1.01759 -0.0971442 -1.64815e-20)
(-0.887831 -0.0973726 -1.9097e-20)
(-0.758355 -0.0971092 -4.35205e-20)
(-0.62983 -0.096347 4.89295e-20)
(-0.502916 -0.0950767 0)
(-0.378273 -0.0932555 0)
(-0.256476 -0.0907701 0)
(-0.137937 -0.0875279 7.11647e-20)
(-0.0229059 -0.0834687 7.4343e-20)
(0.0885983 -0.0789558 -7.42535e-20)
(0.19655 -0.0744665 0)
(0.300673 -0.0701404 7.2564e-20)
(0.400858 -0.0660044 7.15987e-20)
(0.497094 -0.0620707 7.05828e-20)
(0.589415 -0.0583451 0)
(0.677891 -0.0548289 0)
(0.762622 -0.0515203 0)
(0.843725 -0.0484152 6.63106e-20)
(0.921337 -0.0455078 0)
(0.995602 -0.0427906 0)
(1.06668 -0.0402584 -6.31488e-20)
(1.13472 -0.0379022 0)
(1.19991 -0.0357398 0)
(1.26242 -0.0336823 -6.01712e-20)
(1.32238 -0.0318047 0)
(1.38009 -0.0303858 0)
(1.43592 -0.0289334 5.74008e-20)
(1.49022 -0.0284586 5.64978e-20)
(1.54433 -0.0301565 0)
(1.60022 -0.0280757 -5.46673e-20)
(1.65495 -0.0111529 0)
(1.70136 0.00770072 5.32691e-20)
(1.74033 0.0075735 0)
(1.77418 0.0353026 5.12384e-20)
(1.80323 0.0391257 4.83086e-20)
(1.83198 0.00112202 0)
(1.86753 -0.0169666 0)
(1.90442 -0.0223985 0)
(1.93852 -0.0233113 0)
(1.96933 -0.0225039 0)
(1.99701 -0.0211254 0)
(2.02168 -0.0195581 0)
(2.04347 -0.0179197 4.42775e-20)
(2.06251 -0.0162396 -4.40541e-20)
(2.07886 -0.014502 0)
(2.09256 -0.0126431 0)
(2.10358 -0.0105618 0)
(2.11186 -0.00824918 0)
(2.11707 -0.006101 -8.64456e-20)
(2.11929 -0.00442784 0)
(2.11932 -0.00332145 8.59057e-20)
(2.11764 -0.00253306 -8.56563e-20)
(2.11474 -0.00187462 0)
(2.11088 -0.00129807 0)
(2.10626 -0.000798292 0)
(2.10108 -0.000376533 8.46635e-20)
(2.0955 -3.07029e-05 8.44104e-20)
(2.08968 0.00024457 0)
(2.08372 0.00045658 8.38932e-20)
(2.07773 0.000613396 8.36286e-20)
(2.07179 0.000723218 -8.33601e-20)
(2.06596 0.000793892 0)
(2.0603 0.000832628 0)
(2.05483 0.000845869 -8.25326e-20)
(2.0496 0.000839248 0)
(2.04461 0.000817596 0)
(2.03987 0.000784996 0)
(2.03539 0.000744852 0)
(2.03117 0.000699963 8.10981e-20)
(2.02719 0.000652618 8.08058e-20)
(2.02344 0.000604669 0)
(2.01992 0.000557618 8.02185e-20)
(2.01661 0.000512685 0)
(2.01349 0.000470887 0)
(2.01054 0.000433096 7.93348e-20)
(2.00775 0.000400106 0)
(2.00509 0.000372688 7.87476e-20)
(2.00255 0.000351655 0)
(2.00009 0.000337934 0)
(1.99769 0.000332634 7.78779e-20)
(1.99532 0.000337145 0)
(1.99294 0.000353257 7.73126e-20)
(1.99052 0.00038332 0)
(1.98801 0.000430459 0)
(1.98534 0.000498886 0)
(1.98244 0.00059435 -7.62566e-20)
(1.97922 0.000724817 0)
(1.97555 0.00090153 7.58006e-20)
(1.97126 0.00114072 0)
(1.96611 0.00146651 0)
(1.95978 0.00191617 0)
(1.95178 0.00254963 0)
(1.94139 0.00347202 0)
(1.92728 0.00486306 0)
(1.90787 0.00717149 0)
(1.87711 0.0108991 -1.52351e-19)
(1.83662 0.0198635 0)
(1.72781 0.0307635 0)
(0.0347374 -0.241102 4.51387e-20)
(0.088285 -0.231028 -3.73645e-20)
(0.12364 -0.178869 0)
(0.149329 -0.132291 1.99174e-20)
(0.16501 -0.0919823 0)
(0.171304 -0.0568839 9.27911e-21)
(0.169157 -0.0268107 -1.85414e-20)
(0.158597 -0.0016332 -1.86944e-20)
(0.139849 0.0191243 0)
(0.112425 0.0368307 -1.95395e-20)
(0.0748635 0.0535792 -1.0271e-20)
(0.0239621 0.0714826 0)
(-0.0369485 0.0891473 0)
(-0.108283 0.108052 0)
(-0.195352 0.131559 0)
(-0.301151 0.160516 -1.00507e-20)
(-0.419597 0.191028 0)
(-0.553919 0.227013 1.84457e-20)
(-0.701524 0.267353 0)
(-0.860023 0.306174 0)
(-1.02309 0.340868 -1.68366e-20)
(-1.19262 0.371993 0)
(-1.36084 0.394094 1.62895e-20)
(-1.52603 0.40949 -7.99249e-21)
(-1.68542 0.417449 7.9453e-21)
(-1.83713 0.418197 -7.95548e-21)
(-1.97982 0.412502 -8.01773e-21)
(-2.11252 0.401334 0)
(-2.23469 0.38576 0)
(-2.34617 0.36686 8.44428e-21)
(-2.44717 0.345647 -9.14439e-21)
(-2.53814 0.323024 0)
(-2.61968 0.299748 0)
(-2.69252 0.276424 9.27466e-21)
(-2.7574 0.253506 0)
(-2.81505 0.231316 0)
(-2.86615 0.210061 -9.86786e-21)
(-2.91134 0.189855 0)
(-2.95115 0.170739 1.04711e-20)
(-2.98607 0.152706 -2.06544e-20)
(-3.01652 0.135709 0)
(-3.04283 0.119682 0)
(-3.06532 0.104545 -4.28757e-20)
(-3.08425 0.0902135 -4.30762e-20)
(-3.09985 0.0766049 -4.31987e-20)
(-3.11234 0.0636429 2.18148e-20)
(-3.12191 0.0512594 -2.14099e-20)
(-3.12875 0.0394091 -6.44365e-20)
(-3.13304 0.0280876 4.28833e-20)
(-3.13494 0.0173344 2.11071e-20)
(-3.1346 0.00722867 0)
(-3.13208 -0.00216713 -2.06513e-20)
(-3.12619 -0.0109133 2.07238e-20)
(-3.11672 -0.019225 0)
(-3.10351 -0.0272397 0)
(-3.08648 -0.0350533 0)
(-3.0656 -0.0427304 -1.86774e-20)
(-3.04081 -0.0503199 0)
(-3.01209 -0.0578628 3.56672e-20)
(-2.97937 -0.0653962 0)
(-2.94258 -0.0729547 3.3145e-20)
(-2.90166 -0.0805708 0)
(-2.8565 -0.0882738 -3.02348e-20)
(-2.80699 -0.0960888 0)
(-2.753 -0.104035 2.69202e-20)
(-2.6944 -0.112123 -1.29485e-20)
(-2.63106 -0.120353 0)
(-2.56283 -0.128713 -2.11573e-20)
(-2.48958 -0.137174 -9.04291e-21)
(-2.4112 -0.145693 -7.89553e-21)
(-2.32761 -0.154203 0)
(-2.23875 -0.162624 -6.52217e-21)
(-2.14464 -0.170853 -4.13698e-21)
(-2.04534 -0.178771 0)
(-1.94099 -0.186249 1.38789e-21)
(-1.83182 -0.193147 -1.14765e-21)
(-1.71815 -0.199328 0)
(-1.60036 -0.204657 3.03321e-21)
(-1.47895 -0.209016 0)
(-1.35447 -0.212309 -1.7029e-20)
(-1.22755 -0.214467 0)
(-1.09885 -0.215452 2.64914e-20)
(-0.969071 -0.215263 1.08778e-20)
(-0.838908 -0.21393 -1.11147e-20)
(-0.709044 -0.211514 -2.54391e-20)
(-0.58012 -0.208093 2.86526e-20)
(-0.452727 -0.203764 0)
(-0.327383 -0.198632 0)
(-0.204511 -0.192792 0)
(-0.0844025 -0.186298 -1.28773e-19)
(0.0325941 -0.179166 -4.5432e-20)
(0.146054 -0.171586 4.61419e-20)
(0.255766 -0.163866 0)
(0.361648 -0.156173 4.52334e-20)
(0.463668 -0.148602 -4.74336e-20)
(0.56182 -0.141219 -4.76377e-20)
(0.656136 -0.13407 0)
(0.746684 -0.12719 0)
(0.833555 -0.120605 0)
(0.916864 -0.114331 -4.76776e-20)
(0.996742 -0.108378 0)
(1.07333 -0.10275 9.37049e-20)
(1.14679 -0.0974484 1.40539e-19)
(1.21727 -0.0924719 -9.29755e-20)
(1.28493 -0.0878195 0)
(1.34993 -0.0834798 -4.56357e-20)
(1.41248 -0.0794909 0)
(1.47271 -0.0759301 -9.09782e-20)
(1.53075 -0.0728291 4.48924e-20)
(1.58668 -0.0703903 4.46192e-20)
(1.63989 -0.0687952 0)
(1.68892 -0.067844 1.3336e-19)
(1.73491 -0.0669431 -8.84019e-20)
(1.78137 -0.064682 -4.40981e-20)
(1.82674 -0.0615721 0)
(1.8707 -0.059938 -4.29854e-20)
(1.91291 -0.0547354 -1.23601e-19)
(1.95169 -0.0483264 0)
(1.9849 -0.0423891 -7.84244e-20)
(2.01604 -0.037749 -7.73155e-20)
(2.04672 -0.0337228 -7.65467e-20)
(2.07667 -0.0299484 0)
(2.10537 -0.0264033 0)
(2.1325 -0.0230549 0)
(2.15781 -0.0198745 3.74351e-20)
(2.18116 -0.0168403 3.75767e-20)
(2.20246 -0.013927 0)
(2.22168 -0.0110969 7.47327e-20)
(2.23881 -0.00829533 7.46675e-20)
(2.25396 -0.0055205 0)
(2.26752 -0.003022 7.46983e-20)
(2.27963 -0.000988619 1.48984e-19)
(2.28981 0.000575947 -7.45281e-20)
(2.29806 0.00196029 -7.42347e-20)
(2.30448 0.00312544 0)
(2.30914 0.00401588 0)
(2.31218 0.00467715 0)
(2.31377 0.0051499 -7.39044e-20)
(2.31411 0.00546222 7.3688e-20)
(2.31338 0.00563947 1.47175e-19)
(2.31175 0.00570425 -7.34663e-20)
(2.30939 0.00567675 7.32646e-20)
(2.30644 0.00557512 7.3138e-20)
(2.30305 0.00541552 0)
(2.29934 0.00521214 0)
(2.29542 0.00497727 -7.25736e-20)
(2.29138 0.00472143 0)
(2.28729 0.00445346 0)
(2.28324 0.0041807 1.4395e-19)
(2.27925 0.00390915 0)
(2.27538 0.00364357 7.15384e-20)
(2.27165 0.00338775 -7.13167e-20)
(2.26809 0.00314456 0)
(2.2647 0.00291618 7.08525e-20)
(2.26149 0.0027042 0)
(2.25846 0.00250979 0)
(2.25561 0.00233381 -7.01386e-20)
(2.25294 0.00217698 1.3979e-19)
(2.25042 0.00203998 -6.96523e-20)
(2.24805 0.00192358 0)
(2.2458 0.00182881 0)
(2.24367 0.00175709 6.89154e-20)
(2.24163 0.00171042 0)
(2.23965 0.00169164 6.84301e-20)
(2.23771 0.00170468 0)
(2.23577 0.00175499 0)
(2.23379 0.00185013 0)
(2.23172 0.00200058 6.75121e-20)
(2.22949 0.00222104 0)
(2.22704 0.00253232 -6.71e-20)
(2.22425 0.00296456 0)
(2.22098 0.00356244 0)
(2.21707 0.00439493 1.33215e-19)
(2.21223 0.00557121 -1.33015e-19)
(2.20615 0.00728365 0)
(2.19816 0.00984924 0)
(2.18793 0.0140501 0)
(2.17261 0.0208139 4.00937e-19)
(2.15637 0.035813 0)
(2.12156 0.0581509 -2.69809e-19)
(0.0073203 -0.324086 -7.14279e-22)
(0.0262432 -0.277114 4.63538e-20)
(0.0252659 -0.206988 0)
(0.0191916 -0.143486 -3.71017e-20)
(0.0067527 -0.0866013 0)
(-0.0130609 -0.0354165 0)
(-0.0410342 0.0109663 2.97783e-22)
(-0.0780493 0.0537527 1.70782e-20)
(-0.125423 0.0944339 1.65286e-20)
(-0.184239 0.134729 1.6629e-20)
(-0.255694 0.176316 0)
(-0.340421 0.220164 0)
(-0.438563 0.266654 -1.52784e-20)
(-0.55018 0.315995 -2.9723e-20)
(-0.674233 0.367874 2.89097e-20)
(-0.809063 0.420895 0)
(-0.952102 0.473307 2.75416e-20)
(-1.10011 0.523515 -1.34161e-20)
(-1.24865 0.568531 0)
(-1.39426 0.605397 2.64986e-20)
(-1.53373 0.632641 1.27645e-20)
(-1.66561 0.649648 -2.65504e-20)
(-1.78784 0.655958 -1.27513e-20)
(-1.90025 0.652924 0)
(-2.00211 0.641326 2.75868e-20)
(-2.09385 0.622262 2.8105e-20)
(-2.17634 0.597117 0)
(-2.25064 0.567374 2.92835e-20)
(-2.31793 0.534473 0)
(-2.37933 0.499716 3.05403e-20)
(-2.43587 0.464206 1.49375e-20)
(-2.48841 0.428824 0)
(-2.53764 0.394232 0)
(-2.58406 0.360889 0)
(-2.62802 0.329084 0)
(-2.66974 0.298965 0)
(-2.70932 0.270578 0)
(-2.74679 0.243889 3.48151e-20)
(-2.78212 0.21882 -5.25108e-20)
(-2.81525 0.195261 0)
(-2.84608 0.173091 0)
(-2.87453 0.152187 0)
(-2.90049 0.132432 -3.94384e-22)
(-2.92385 0.113718 3.59444e-20)
(-2.94453 0.0959496 7.24217e-20)
(-2.96243 0.0790425 -7.24608e-20)
(-2.97745 0.0629181 -3.63717e-20)
(-2.98949 0.047498 3.59092e-20)
(-2.99842 0.0326961 3.72679e-22)
(-3.00411 0.0184108 3.58971e-20)
(-3.00641 0.00451968 0)
(-3.00517 -0.00910715 3.5138e-20)
(-3.00029 -0.022543 4.31978e-22)
(-2.99177 -0.0357467 0)
(-2.97958 -0.0487164 0)
(-2.96367 -0.0614768 -3.27108e-20)
(-2.94401 -0.0740677 0)
(-2.92056 -0.0865352 0)
(-2.89325 -0.098928 3.06549e-20)
(-2.86204 -0.111296 5.82183e-20)
(-2.82685 -0.123687 -2.74393e-20)
(-2.7876 -0.136151 0)
(-2.74419 -0.14873 2.49539e-20)
(-2.69651 -0.161462 0)
(-2.64443 -0.174375 2.34957e-20)
(-2.5878 -0.187486 2.05921e-20)
(-2.5265 -0.200793 -3.94212e-20)
(-2.46036 -0.214274 -1.88061e-20)
(-2.38925 -0.227882 0)
(-2.31304 -0.241544 2.88576e-20)
(-2.23163 -0.255153 0)
(-2.14496 -0.268574 3.06405e-20)
(-2.05302 -0.281641 1.6878e-20)
(-1.95586 -0.29416 1.26063e-20)
(-1.85361 -0.305918 -8.21496e-21)
(-1.74648 -0.316691 4.62577e-21)
(-1.63479 -0.326251 0)
(-1.51892 -0.334384 0)
(-1.39938 -0.340901 1.02257e-20)
(-1.27673 -0.345649 2.3405e-20)
(-1.15161 -0.34852 0)
(-1.02468 -0.349464 -1.31771e-20)
(-0.896675 -0.348485 0)
(-0.768283 -0.345643 5.17775e-20)
(-0.640194 -0.341049 1.81408e-21)
(-0.51305 -0.334855 -1.78761e-21)
(-0.387432 -0.327248 -4.77425e-20)
(-0.263846 -0.31844 0)
(-0.142703 -0.308657 5.67286e-20)
(-0.0243343 -0.298118 1.65753e-21)
(0.0908817 -0.287031 0)
(0.202638 -0.275596 0)
(0.310736 -0.263978 0)
(0.415084 -0.252329 -6.84991e-20)
(0.515632 -0.240779 0)
(0.612375 -0.229436 0)
(0.705344 -0.218386 0)
(0.794606 -0.207694 0)
(0.880253 -0.197412 0)
(0.962397 -0.187576 -7.19077e-20)
(1.04117 -0.178207 0)
(1.11671 -0.169322 -7.33889e-20)
(1.18916 -0.160925 -7.35648e-20)
(1.25868 -0.153018 7.36804e-20)
(1.32543 -0.145599 0)
(1.38955 -0.138663 7.37624e-20)
(1.4512 -0.132226 0)
(1.51048 -0.126324 7.36871e-20)
(1.56745 -0.120931 -7.3606e-20)
(1.62209 -0.11606 -2.19545e-19)
(1.67408 -0.111572 0)
(1.72315 -0.106538 -2.19084e-19)
(1.77028 -0.099529 -7.24263e-20)
(1.81695 -0.0911872 0)
(1.86248 -0.0838167 -1.44829e-19)
(1.90677 -0.0763944 -1.4402e-19)
(1.95031 -0.0706466 2.13573e-19)
(1.99087 -0.0685879 0)
(2.02708 -0.0669233 6.93066e-20)
(2.0608 -0.0642526 6.8621e-20)
(2.09319 -0.0607233 2.04066e-19)
(2.12436 -0.0566779 0)
(2.15422 -0.0523534 0)
(2.18266 -0.0479 0)
(2.20954 -0.0434046 6.70723e-20)
(2.23475 -0.0389164 0)
(2.25818 -0.0344632 0)
(2.27978 -0.0300679 -6.72464e-20)
(2.29954 -0.0257754 -6.72951e-20)
(2.31749 -0.0216588 0)
(2.33368 -0.0177386 0)
(2.34816 -0.0140688 -1.35013e-19)
(2.36094 -0.0106658 0)
(2.37195 -0.00750232 1.35258e-19)
(2.3811 -0.00470679 1.3524e-19)
(2.3885 -0.00231241 0)
(2.39429 -0.000276405 0)
(2.39859 0.00142949 -1.35133e-19)
(2.40153 0.00282667 -3.35132e-23)
(2.40326 0.00394177 -2.81044e-23)
(2.40393 0.00480204 0)
(2.4037 0.00543542 -2.69334e-19)
(2.40269 0.00587013 0)
(2.40106 0.00613392 0)
(2.39893 0.00625347 0)
(2.39642 0.00625387 1.33761e-19)
(2.39363 0.00615827 0)
(2.39065 0.00598758 -2.66311e-19)
(2.38756 0.00576036 -1.32827e-19)
(2.38443 0.00549283 0)
(2.3813 0.00519889 -1.32108e-19)
(2.37822 0.00489026 0)
(2.37522 0.00457667 0)
(2.37232 0.00426608 -3.92765e-19)
(2.36955 0.0039649 2.61008e-19)
(2.36691 0.00367828 0)
(2.3644 0.00341034 2.59284e-19)
(2.36203 0.00316442 -1.292e-19)
(2.35979 0.00294341 0)
(2.35766 0.00274994 0)
(2.35565 0.00258668 0)
(2.35373 0.00245661 -3.82202e-19)
(2.35188 0.00236337 0)
(2.35008 0.0023116 -1.265e-19)
(2.34831 0.00230738 0)
(2.34654 0.0023589 0)
(2.34471 0.00247722 0)
(2.34279 0.00267748 0)
(2.3407 0.00298066 0)
(2.33838 0.00341618 0)
(2.33571 0.00402616 -2.47229e-19)
(2.33257 0.00487213 0)
(2.32876 0.00604754 -1.23055e-19)
(2.32403 0.0076969 3.68471e-19)
(2.31804 0.0100668 0)
(2.31023 0.0135508 0)
(2.30018 0.0190338 -2.45507e-19)
(2.28611 0.0276951 -2.46576e-19)
(2.27034 0.0442712 2.46725e-19)
(2.24714 0.0721541 2.48657e-19)
(-0.024103 -0.309774 -7.75652e-20)
(-0.0366047 -0.239933 -6.10931e-20)
(-0.0689879 -0.162306 -3.40634e-20)
(-0.105205 -0.0892141 -1.49664e-20)
(-0.146071 -0.0204197 0)
(-0.192888 0.0450792 2.83528e-20)
(-0.247108 0.108314 -1.33244e-20)
(-0.310098 0.170419 0)
(-0.382932 0.232604 -1.36821e-20)
(-0.466288 0.295911 0)
(-0.560313 0.360914 2.55216e-20)
(-0.664517 0.42747 0)
(-0.777688 0.49472 1.24409e-20)
(-0.897887 0.561258 2.42695e-20)
(-1.02255 0.625237 -2.37063e-20)
(-1.14865 0.684347 0)
(-1.27294 0.736262 -2.2886e-20)
(-1.39227 0.778875 0)
(-1.50397 0.810238 0)
(-1.60644 0.829468 -2.25718e-20)
(-1.69913 0.83675 0)
(-1.78199 0.832673 -1.35025e-21)
(-1.85595 0.818675 0)
(-1.92205 0.79657 0)
(-1.98155 0.767983 1.43164e-21)
(-2.03582 0.734507 -2.45769e-20)
(-2.08615 0.697646 -2.6437e-20)
(-2.1337 0.658728 -2.56236e-20)
(-2.17939 0.618867 0)
(-2.2239 0.578941 -5.45183e-20)
(-2.26767 0.53961 0)
(-2.31094 0.501331 -2.87101e-20)
(-2.35376 0.464399 0)
(-2.39609 0.428975 0)
(-2.43776 0.395121 2.99635e-20)
(-2.47856 0.362827 0)
(-2.51826 0.332036 -3.07166e-20)
(-2.55661 0.30266 6.13755e-22)
(-2.59334 0.274594 6.21774e-20)
(-2.62822 0.24773 -6.33369e-20)
(-2.66103 0.221958 0)
(-2.69155 0.197175 0)
(-2.71961 0.173287 -3.28365e-20)
(-2.74502 0.15021 0)
(-2.76765 0.127868 -3.21164e-20)
(-2.78735 0.106198 3.21841e-20)
(-2.804 0.0851436 3.22033e-20)
(-2.81748 0.0646583 0)
(-2.82772 0.0446989 -3.20873e-20)
(-2.8346 0.0252205 -3.19471e-20)
(-2.83807 0.00616872 6.43624e-20)
(-2.83808 -0.0125147 -3.13452e-20)
(-2.83462 -0.0308779 -3.09275e-20)
(-2.82765 -0.0489441 0)
(-2.81716 -0.0667388 0)
(-2.8031 -0.0842963 2.92956e-20)
(-2.78544 -0.101662 0)
(-2.76413 -0.118887 0)
(-2.73911 -0.136032 -5.41064e-20)
(-2.71033 -0.153159 -5.23229e-20)
(-2.67771 -0.170333 0)
(-2.64116 -0.187618 0)
(-2.60056 -0.205075 0)
(-2.55581 -0.222758 0)
(-2.50676 -0.240709 -4.11021e-20)
(-2.45326 -0.258953 3.97368e-20)
(-2.39514 -0.277493 3.55066e-20)
(-2.33224 -0.296302 6.63759e-20)
(-2.2644 -0.31532 0)
(-2.19145 -0.334445 1.49815e-21)
(-2.11326 -0.353533 0)
(-2.02974 -0.372394 -1.88546e-20)
(-1.94085 -0.390792 1.55239e-21)
(-1.84662 -0.408452 -1.12733e-20)
(-1.74713 -0.425068 7.33235e-21)
(-1.64261 -0.440314 1.5284e-21)
(-1.53335 -0.453863 0)
(-1.41976 -0.465404 -3.42308e-21)
(-1.30234 -0.474661 -9.04048e-21)
(-1.18171 -0.481413 -2.49988e-20)
(-1.05852 -0.485506 0)