/*--------------------------------*- C++ -*----------------------------------*\
  =========                 |
  \\      /  F ield         | OpenFOAM: The Open Source CFD Toolbox
   \\    /   O peration     | Website:  https://openfoam.org
    \\  /    A nd           | Version:  7
     \\/     M anipulation  |
\*---------------------------------------------------------------------------*/
FoamFile
{
    version     2.0;
    format      ascii;
    class       volScalarField;
    location    "0.03";
    object      nut;
}
// * * * * * * * * * * * * * * * * * * * * * * * * * * * * * * * * * * * * * //

dimensions      [0 2 -1 0 0 0 0];

internalField   nonuniform List<scalar> 
12225
(
3.80065e-05
3.33309e-05
2.94352e-05
2.63785e-05
2.4153e-05
2.26365e-05
2.16579e-05
2.10556e-05
2.07017e-05
2.05034e-05
2.03977e-05
2.03443e-05
2.03187e-05
2.03072e-05
2.03036e-05
2.0304e-05
2.03228e-05
2.05395e-05
0.000205694
0.000151487
0.000127252
0.000114321
0.000107267
0.000103139
0.000100457
9.85141e-05
9.69768e-05
9.56817e-05
9.45477e-05
9.35344e-05
9.26194e-05
9.17861e-05
9.10244e-05
9.02947e-05
8.96734e-05
8.87135e-05
0.000418566
0.00029685
0.000241826
0.000209959
0.000189307
0.000174834
0.000164168
0.000156047
0.000149705
0.000144635
0.000140497
0.000137054
0.00013414
0.000131629
0.000129428
0.000127438
0.000125635
0.000123717
0.000615463
0.000473356
0.000392269
0.000340805
0.000305358
0.000279224
0.000259038
0.000242976
0.000229921
0.000219125
0.000210062
0.000202354
0.000195714
0.000189921
0.000184797
0.000180171
0.000175924
0.000171827
0.000739672
0.000627334
0.00054364
0.000482876
0.000437764
0.000402932
0.000375102
0.000352305
0.000333263
0.000317098
0.000303185
0.000291064
0.000280389
0.000270879
0.000262305
0.000254455
0.000247149
0.000240242
0.00080325
0.000732935
0.00066641
0.000610274
0.000564415
0.000526761
0.000495395
0.00046889
0.000446192
0.000426507
0.000409232
0.000393911
0.000380184
0.000367758
0.000356386
0.000345843
0.000335935
0.000326621
0.000832263
0.000794515
0.000750747
0.000707932
0.000669097
0.000634789
0.000604675
0.000578224
0.000554889
0.000534165
0.000515622
0.000498899
0.000483694
0.000469751
0.000456843
0.000444767
0.000433349
0.000422651
0.000844494
0.000826318
0.000801353
0.000773376
0.000745201
0.000718263
0.000693158
0.000670065
0.000648942
0.000629638
0.00061196
0.000595712
0.000580703
0.000566757
0.000553706
0.000541393
0.000529694
0.000518763
0.000849295
0.000841173
0.000828405
0.000812297
0.000794398
0.000775874
0.000757477
0.000739664
0.000722681
0.000706629
0.000691519
0.000677312
0.00066394
0.00065132
0.000639362
0.000627973
0.000617088
0.000606919
0.000851029
0.000847494
0.00084143
0.000833033
0.00082287
0.000811544
0.000799566
0.000787337
0.000775146
0.000763186
0.00075157
0.000740357
0.000729568
0.000719197
0.000709221
0.000699606
0.000690341
0.000681657
0.000851583
0.000849928
0.000847095
0.000842977
0.000837677
0.000831399
0.000824375
0.000816832
0.000808973
0.000800958
0.000792911
0.000784917
0.000777034
0.000769297
0.000761723
0.000754317
0.000747106
0.000740301
0.000851709
0.000850691
0.000849135
0.000846928
0.000844044
0.000840526
0.000836449
0.000831912
0.000827022
0.000821877
0.000816563
0.000811151
0.000805694
0.000800233
0.000794798
0.000789408
0.000784101
0.000779061
0.00085172
0.000850931
0.000849923
0.000848632
0.00084702
0.000845074
0.000842801
0.000840225
0.000837385
0.000834326
0.000831091
0.000827721
0.000824255
0.000820721
0.000817146
0.000813552
0.000809974
0.000806546
0.000851692
0.000850958
0.000850153
0.000849256
0.00084825
0.000847124
0.000845868
0.000844479
0.00084296
0.000841321
0.000839576
0.000837738
0.000835822
0.000833844
0.000831817
0.000829755
0.000827682
0.000825683
0.000851658
0.000850916
0.000850156
0.000849378
0.000848586
0.000847781
0.000846959
0.000846117
0.000845253
0.000844364
0.000843449
0.00084251
0.000841548
0.000840565
0.000839565
0.000838553
0.00083754
0.000836572
0.000851632
0.00085087
0.000850108
0.00084935
0.000848606
0.000847884
0.00084719
0.000846525
0.00084589
0.000845284
0.000844703
0.000844146
0.000843612
0.000843097
0.000842599
0.00084212
0.000841664
0.000841252
0.000851618
0.000850845
0.000850079
0.000849322
0.000848584
0.000847876
0.000847205
0.000846577
0.000845994
0.000845456
0.000844963
0.000844513
0.000844104
0.000843733
0.000843398
0.000843097
0.000842834
0.000842622
0.000851619
0.00085085
0.000850092
0.000849346
0.00084862
0.000847926
0.00084727
0.000846658
0.000846093
0.000845575
0.000845104
0.000844678
0.000844296
0.000843954
0.000843651
0.000843384
0.000843158
0.000842983
0.000851642
0.000850901
0.000850173
0.00084946
0.000848772
0.000848118
0.000847503
0.000846934
0.00084641
0.000845933
0.000845501
0.000845112
0.000844762
0.000844449
0.00084417
0.000843923
0.000843711
0.000843547
0.000851696
0.000851018
0.000850357
0.000849714
0.000849099
0.000848521
0.000847987
0.000847497
0.000847051
0.000846647
0.00084628
0.000845947
0.000845644
0.000845366
0.00084511
0.000844874
0.00084466
0.000844482
0.000851783
0.000851205
0.000850642
0.000850096
0.000849575
0.000849084
0.000848623
0.000848188
0.00084777
0.000847365
0.000846964
0.000846564
0.000846159
0.000845748
0.000845326
0.000844896
0.000844463
0.000844043
0.000851925
0.000851497
0.000851058
0.000850589
0.000850077
0.000849515
0.000848889
0.000848186
0.000847394
0.000846512
0.000845541
0.000844487
0.000843357
0.00084216
0.000840906
0.000839606
0.000838278
0.000836956
0.000852129
0.000851819
0.000851283
0.000850423
0.000849195
0.000847602
0.000845653
0.000843368
0.000840787
0.000837957
0.000834933
0.000831758
0.000828477
0.000825131
0.000821753
0.000818373
0.000815021
0.000811755
0.00085221
0.000851252
0.000849075
0.000845578
0.000840905
0.000835304
0.000829005
0.000822211
0.000815101
0.000807837
0.000800544
0.000793288
0.000786158
0.000779212
0.000772491
0.00076602
0.000759829
0.000753989
0.000850786
0.000845053
0.000835484
0.000823124
0.000809136
0.000794455
0.000779667
0.000765162
0.000751092
0.000737655
0.000724957
0.000713059
0.000701937
0.000691552
0.000681855
0.000672799
0.000664346
0.000656531
0.00084114
0.000816727
0.000787119
0.000756925
0.000728164
0.000701617
0.000677317
0.000655382
0.000635744
0.000618144
0.00060232
0.000588041
0.0005751
0.000563322
0.000552557
0.000542676
0.000533583
0.000525262
0.000798638
0.000728792
0.000669249
0.000621095
0.000581471
0.00054837
0.000520941
0.000497872
0.00047819
0.000461185
0.000446328
0.000433217
0.00042154
0.000411057
0.00040158
0.000392959
0.000385079
0.000377896
0.000662441
0.000545674
0.000474819
0.000425532
0.000388706
0.000360812
0.000339127
0.000321755
0.00030747
0.000295486
0.000285267
0.000276432
0.000268704
0.000261875
0.000255791
0.000250328
0.000245393
0.000240929
0.000377513
0.0002862
0.000242767
0.000215076
0.000195848
0.000182471
0.000173065
0.000166258
0.000161166
0.000157245
0.000154148
0.000151646
0.00014958
0.000147838
0.000146343
0.000145038
0.000143881
0.000142829
6.98064e-05
6.49737e-05
6.05516e-05
5.65191e-05
5.29109e-05
4.97389e-05
4.69964e-05
4.46582e-05
4.26849e-05
4.10322e-05
3.96563e-05
3.85171e-05
3.75785e-05
3.6809e-05
3.61816e-05
3.56731e-05
3.52638e-05
3.49375e-05
1.56176e-05
0.000119416
0.000146347
0.000167325
0.000183406
0.000195173
0.000200828
4.45593e-05
0.000200782
0.000205865
0.000215721
4.67535e-05
0.000222349
0.000223939
0.000212866
0.000214507
4.68758e-05
4.8574e-05
5.06539e-05
5.27978e-05
5.4948e-05
5.70685e-05
5.91328e-05
6.11219e-05
6.30235e-05
6.483e-05
6.65378e-05
6.81461e-05
6.96561e-05
7.10703e-05
7.23922e-05
7.36257e-05
7.47749e-05
7.58441e-05
7.68376e-05
7.77595e-05
7.8614e-05
7.94048e-05
8.01358e-05
8.0811e-05
8.14342e-05
8.20093e-05
8.25405e-05
8.30319e-05
8.34884e-05
8.39611e-05
8.4392e-05
8.47766e-05
8.51176e-05
8.54162e-05
8.56723e-05
8.58858e-05
8.60557e-05
8.61807e-05
8.62594e-05
8.62897e-05
8.62694e-05
8.61956e-05
8.60653e-05
8.58751e-05
8.5621e-05
8.52992e-05
8.49055e-05
8.44359e-05
8.38866e-05
8.32545e-05
8.2537e-05
8.17324e-05
8.08403e-05
7.98613e-05
7.87974e-05
7.76514e-05
7.64271e-05
7.51279e-05
7.37554e-05
7.23068e-05
7.07715e-05
6.91289e-05
6.74221e-05
6.60774e-05
6.51492e-05
6.42817e-05
6.34246e-05
6.25688e-05
6.17128e-05
6.08576e-05
6.00041e-05
5.91536e-05
5.83068e-05
5.74646e-05
5.66266e-05
5.57924e-05
5.49639e-05
5.41455e-05
5.33379e-05
5.25354e-05
5.17485e-05
5.09893e-05
5.02435e-05
4.95085e-05
4.87174e-05
4.76225e-05
4.77973e-05
0.000202383
0.000200002
0.00019583
0.000190481
0.000184416
0.000177978
0.000171418
0.000164915
0.000158601
0.000152566
0.000146868
0.000141546
0.000136616
0.000132082
0.000127935
0.000124181
0.000120812
0.000117798
0.000115109
0.000112717
0.00011059
0.000108702
0.000107023
0.00010553
0.000104199
0.000103008
0.000101939
0.000100975
0.000100101
9.93034e-05
9.85718e-05
9.78961e-05
9.72678e-05
9.66797e-05
9.61257e-05
9.56005e-05
9.50995e-05
9.46191e-05
9.41558e-05
9.37069e-05
9.32699e-05
9.28428e-05
9.24237e-05
9.20113e-05
9.16041e-05
9.1201e-05
9.08011e-05
9.04037e-05
9.00081e-05
8.96138e-05
8.92203e-05
8.88273e-05
8.84345e-05
8.80417e-05
8.76487e-05
8.72553e-05
8.68614e-05
8.6467e-05
8.60719e-05
8.56763e-05
8.52801e-05
8.48832e-05
8.44858e-05
8.40878e-05
8.36894e-05
8.32906e-05
8.28917e-05
8.24929e-05
8.20951e-05
8.16992e-05
8.13072e-05
8.09226e-05
8.05522e-05
8.02093e-05
7.99338e-05
7.97829e-05
8.02383e-05
2.50746e-05
9.97175e-05
0.000164804
0.000205391
0.000225148
0.000229772
0.000226368
0.000212899
0.000214603
0.000212308
0.000209773
0.000201151
0.00020331
0.000199516
0.000195393
0.000192562
0.000187737
0.000187854
0.000189097
0.000191122
0.000193891
0.000197414
0.000201709
0.000206794
0.000212682
0.000219376
0.000226872
0.000235158
0.000244217
0.000254023
0.000264549
0.000275762
0.000287625
0.000300096
0.000313126
0.000326657
0.00034062
0.000354933
0.000369496
0.000384186
0.000398857
0.000413338
0.000427424
0.000440887
0.000453499
0.000464585
0.000475487
0.000486387
0.000497286
0.000508166
0.000519009
0.000529789
0.000540481
0.000551055
0.000561476
0.000571703
0.000581688
0.000591375
0.0006007
0.00060959
0.000617966
0.000625742
0.000632826
0.000639127
0.000644555
0.000649025
0.000652462
0.000654803
0.000655999
0.000656015
0.00065483
0.000652435
0.000648818
0.000643958
0.000637803
0.000630256
0.000621145
0.00061025
0.000597514
0.000583851
0.000569993
0.000555948
0.000541757
0.000527467
0.000513125
0.00049877
0.000484432
0.000470132
0.000455886
0.000441703
0.000427586
0.000413529
0.000399526
0.000385576
0.00037168
0.00035783
0.000344048
0.000330402
0.000317027
0.000304231
0.00029279
0.000284296
0.000283289
0.000324627
0.000351908
0.000366941
0.000372817
0.000372389
0.000367853
0.000360761
0.00035218
0.000342828
0.000333189
0.000323588
0.000314243
0.000305292
0.000296817
0.000288851
0.000281367
0.00027441
0.000268069
0.000262355
0.000257218
0.000252614
0.000248496
0.000244818
0.000241539
0.000238616
0.000236011
0.000233689
0.000231617
0.000229765
0.000228107
0.000226618
0.000225276
0.000224063
0.000222961
0.000221955
0.000221033
0.000220183
0.000219395
0.000218661
0.000217972
0.000217322
0.000216706
0.000216119
0.000215555
0.000215012
0.000214486
0.000213974
0.000213474
0.000212983
0.0002125
0.000212022
0.000211548
0.000211078
0.000210609
0.000210141
0.000209674
0.000209205
0.000208734
0.00020826
0.000207783
0.0002073
0.000206812
0.000206315
0.000205809
0.000205291
0.000204758
0.000204205
0.000203627
0.000203017
0.000202364
0.000201653
0.000200861
0.000199955
0.000198861
0.000197549
0.000195491
0.000194483
4.09355e-05
0.000147451
0.000229066
0.000276555
0.000299773
0.000308335
0.000309089
0.000305999
0.000302274
0.000298228
0.000294335
0.000290628
0.000288387
0.000286955
0.000286966
0.000288978
0.000292787
0.000299046
0.000307328
0.000317545
0.000329647
0.000343562
0.000359188
0.000376389
0.000395002
0.000414846
0.000435729
0.00045746
0.000479854
0.000502739
0.000525963
0.000549389
0.000572899
0.000596388
0.000619763
0.000642935
0.000665821
0.000688336
0.000710395
0.000731911
0.000752798
0.000772972
0.000792358
0.000810895
0.000828543
0.000845486
0.00086226
0.000878968
0.000895613
0.000912184
0.000928662
0.000945031
0.000961268
0.000977345
0.000993229
0.00100887
0.00102422
0.0010392
0.00105372
0.00106768
0.00108095
0.00109339
0.00110486
0.0011152
0.00112424
0.00113182
0.0011378
0.00114205
0.00114445
0.00114492
0.0011434
0.00113985
0.00113425
0.0011266
0.00111689
0.00110515
0.00109136
0.00107557
0.00105792
0.00103909
0.00101947
0.00099923
0.00097847
0.000957294
0.000935791
0.000914037
0.000892098
0.000870027
0.000847867
0.000825651
0.000803406
0.00078115
0.0007589
0.000736674
0.00071449
0.000692378
0.000670395
0.00064865
0.000627338
0.000606837
0.000587847
0.000571851
0.000561168
0.000559879
0.000559818
0.000557932
0.000553321
0.000546054
0.00053659
0.000525494
0.000513302
0.000500476
0.000487384
0.000474317
0.000461494
0.000449077
0.00043718
0.000425875
0.000415199
0.00040518
0.000395818
0.000387113
0.000379139
0.000371892
0.000365331
0.000359411
0.000354087
0.000349311
0.000345035
0.000341213
0.0003378
0.000334754
0.000332036
0.000329609
0.000327439
0.000325496
0.000323753
0.000322185
0.000320769
0.000319487
0.000318321
0.000317257
0.00031628
0.000315379
0.000314543
0.000313765
0.000313035
0.000312347
0.000311694
0.000311071
0.000310474
0.000309897
0.000309338
0.000308793
0.000308259
0.000307733
0.000307214
0.000306699
0.000306186
0.000305673
0.000305159
0.000304641
0.000304118
0.000303587
0.000303045
0.00030249
0.000301917
0.000301323
0.0003007
0.000300041
0.000299335
0.000298567
0.000297717
0.000296755
0.000295638
0.000294297
0.000292599
0.000290368
0.000286874
0.000281989
5.82286e-05
0.000190588
0.000287221
0.000342078
0.00036939
0.000380321
0.000382466
0.000380517
0.00037723
0.000374077
0.000371951
0.000371459
0.000373168
0.000377381
0.000384395
0.000394384
0.000407295
0.000423069
0.000441467
0.000462252
0.000485155
0.00050987
0.000536067
0.000563403
0.000591542
0.000620167
0.000648992
0.000677768
0.000706288
0.000734384
0.000761932
0.000788837
0.000815039
0.000840498
0.000865193
0.000889118
0.000912274
0.000934666
0.000956304
0.000977195
0.000997349
0.00101677
0.00103546
0.00105342
0.00107062
0.00108739
0.00110398
0.00112047
0.00113686
0.00115319
0.00116945
0.00118566
0.00120184
0.00121799
0.00123411
0.0012502
0.00126623
0.00128214
0.00129788
0.00131334
0.0013284
0.00134291
0.0013567
0.00136958
0.00138133
0.00139174
0.00140059
0.0014077
0.00141287
0.00141596
0.00141683
0.0014154
0.00141162
0.00140546
0.00139692
0.00138604
0.00137287
0.00135751
0.00134017
0.00132133
0.00130128
0.00128019
0.0012582
0.00123544
0.00121202
0.00118804
0.0011636
0.00113877
0.00111362
0.00108822
0.00106261
0.00103685
0.00101097
0.000985014
0.000959037
0.000933094
0.000907264
0.000881672
0.000856497
0.000832006
0.000808587
0.000786798
0.000767276
0.000750488
0.00073533
0.000720766
0.00070613
0.000691107
0.000675626
0.000659769
0.000643688
0.000627562
0.000611567
0.00059586
0.000580576
0.000565825
0.000551692
0.000538239
0.000525506
0.000513518
0.000502285
0.000491798
0.000482034
0.00047304
0.000464824
0.000457347
0.000450569
0.000444445
0.000438928
0.00043397
0.000429524
0.000425542
0.000421981
0.000418797
0.000415951
0.000413406
0.000411128
0.000409086
0.000407252
0.000405601
0.000404111
0.000402762
0.000401536
0.000400418
0.000399393
0.00039845
0.000397578
0.000396767
0.000396009
0.000395295
0.000394621
0.000393979
0.000393364
0.000392773
0.0003922
0.000391643
0.000391097
0.000390561
0.000390031
0.000389504
0.000388979
0.000388452
0.000387921
0.000387383
0.000386835
0.000386273
0.000385692
0.000385086
0.000384449
0.00038377
0.000383038
0.000382236
0.000381341
0.000380321
0.000379128
0.000377692
0.000375881
0.000373502
0.000369964
0.000364881
7.35815e-05
0.000223461
0.0003329
0.000396695
0.000429954
0.000444768
0.000449537
0.000449733
0.000448737
0.00044857
0.000450453
0.000455139
0.000463095
0.000474549
0.000489552
0.00050799
0.000529598
0.000554024
0.000580851
0.000609636
0.000639924
0.000671262
0.000703213
0.00073537
0.000767371
0.000798904
0.00082971
0.00085959
0.000888395
0.00091603
0.000942443
0.000967623
0.000991589
0.00101438
0.00103607
0.00105671
0.00107638
0.00109516
0.00111311
0.00113029
0.00114674
0.00116249
0.00117757
0.00119198
0.00120571
0.00121905
0.00123216
0.00124514
0.00125801
0.00127082
0.00128363
0.00129649
0.00130948
0.00132265
0.00133607
0.00134981
0.00136389
0.00137832
0.00139309
0.00140815
0.0014234
0.00143872
0.00145391
0.00146879
0.00148309
0.00149656
0.00150892
0.0015199
0.00152923
0.00153666
0.001542
0.00154506
0.00154571
0.00154388
0.00153952
0.00153262
0.00152322
0.00151137
0.00149733
0.00148149
0.00146406
0.00144521
0.00142508
0.00140382
0.00138153
0.00135836
0.00133439
0.00130974
0.00128449
0.00125874
0.00123254
0.00120598
0.00117911
0.00115201
0.00112474
0.00109738
0.00107
0.00104273
0.00101569
0.000989033
0.000962964
0.000937688
0.00091341
0.000890275
0.000868181
0.000846901
0.000826209
0.000805949
0.000786041
0.000766473
0.00074728
0.000728521
0.000710269
0.000692594
0.000675565
0.000659237
0.000643657
0.000628859
0.000614867
0.000601692
0.000589337
0.000577793
0.00056704
0.000557044
0.000547839
0.000539414
0.000531733
0.000524755
0.000518436
0.00051273
0.000507592
0.000502974
0.000498831
0.000495117
0.000491792
0.000488815
0.00048615
0.000483761
0.000481619
0.000479694
0.000477961
0.000476396
0.000474981
0.000473696
0.000472524
0.000471453
0.000470469
0.000469561
0.000468718
0.000467932
0.000467196
0.000466501
0.000465842
0.000465213
0.00046461
0.000464028
0.000463463
0.000462911
0.000462369
0.000461835
0.000461305
0.000460776
0.000460246
0.00045971
0.000459165
0.000458608
0.000458032
0.000457433
0.000456802
0.00045613
0.000455403
0.000454605
0.000453713
0.000452695
0.000451505
0.000450076
0.000448293
0.00044598
0.00044271
0.000438259
8.25587e-05
0.000245392
0.000366115
0.000439152
0.000479796
0.000500439
0.000509923
0.000514296
0.000517502
0.00052199
0.0005292
0.00053991
0.000554449
0.000572837
0.000594868
0.000620177
0.00064829
0.000678672
0.00071077
0.000744036
0.000777945
0.000812012
0.000845796
0.000878913
0.00091104
0.000941917
0.000971346
0.000999192
0.00102538
0.00104987
0.0010727
0.00109393
0.00111363
0.00113193
0.00114894
0.00116478
0.00117959
0.00119346
0.00120649
0.00121876
0.00123031
0.00124119
0.00125141
0.00126097
0.00126986
0.00127829
0.0012864
0.00129425
0.00130189
0.00130941
0.00131689
0.00132444
0.00133222
0.00134035
0.00134901
0.00135833
0.00136846
0.00137951
0.00139153
0.00140457
0.00141859
0.00143351
0.00144917
0.00146537
0.00148184
0.00149827
0.00151431
0.00152962
0.00154382
0.00155658
0.00156756
0.0015765
0.00158316
0.00158736
0.00158898
0.00158793
0.00158418
0.00157772
0.00156895
0.00155809
0.00154531
0.00153075
0.00151453
0.00149681
0.0014777
0.00145733
0.00143583
0.00141332
0.00138989
0.00136566
0.00134071
0.00131514
0.00128904
0.00126248
0.00123555
0.00120833
0.00118092
0.0011534
0.00112588
0.00109846
0.00107126
0.00104438
0.00101795
0.000992071
0.000966836
0.000942264
0.000918342
0.000895057
0.000872406
0.000850402
0.000829073
0.000808457
0.000788594
0.000769524
0.000751279
0.000733887
0.000717368
0.000701732
0.000686985
0.000673123
0.000660137
0.000648009
0.000636717
0.000626226
0.000616502
0.000607569
0.000599393
0.000591936
0.000585158
0.000579015
0.000573464
0.000568459
0.000563955
0.000559909
0.000556279
0.000553022
0.000550103
0.000547485
0.000545136
0.000543025
0.000541126
0.000539413
0.000537865
0.000536462
0.000535186
0.000534022
0.000532955
0.000531974
0.000531068
0.000530227
0.000529441
0.000528704
0.000528009
0.000527349
0.000526719
0.000526115
0.000525531
0.000524964
0.000524411
0.000523868
0.000523332
0.000522799
0.000522267
0.000521732
0.00052119
0.000520636
0.000520067
0.000519475
0.000518854
0.000518193
0.00051748
0.000516698
0.000515827
0.000514834
0.00051368
0.000512302
0.000510604
0.000508439
0.00050551
0.000501751
8.74825e-05
0.000257777
0.000387532
0.000469482
0.00051832
0.000546261
0.000562209
0.000572455
0.000581264
0.000591343
0.000604264
0.000620789
0.000641134
0.000665148
0.00069245
0.000722518
0.00075476
0.00078856
0.000823314
0.000858454
0.000893456
0.000927856
0.000961247
0.000993289
0.00102371
0.00105229
0.00107891
0.00110347
0.00112595
0.00114639
0.00116488
0.00118152
0.00119646
0.00120987
0.00122193
0.00123279
0.0012426
0.00125151
0.00125961
0.00126697
0.00127363
0.00127963
0.00128494
0.00128956
0.00129346
0.00129674
0.00129947
0.00130168
0.00130341
0.00130475
0.00130584
0.00130683
0.00130796
0.00130946
0.0013116
0.00131466
0.00131892
0.00132462
0.00133198
0.00134116
0.00135221
0.00136516
0.0013799
0.00139625
0.00141394
0.00143263
0.00145191
0.00147134
0.00149043
0.00150874
0.00152579
0.0015412
0.0015546
0.00156571
0.0015743
0.00158009
0.00158297
0.00158323
0.00158103
0.00157649
0.00156972
0.00156083
0.00154993
0.00153716
0.00152264
0.00150649
0.00148885
0.00146984
0.00144959
0.0014282
0.0014058
0.00138249
0.00135838
0.00133355
0.00130811
0.00128215
0.00125576
0.00122904
0.00120206
0.00117493
0.00114772
0.00112053
0.00109347
0.00106664
0.00104017
0.00101418
0.000988721
0.000963878
0.000939707
0.000916267
0.000893611
0.000871792
0.000850855
0.000830838
0.000811768
0.000793663
0.000776532
0.000760375
0.000745181
0.000730936
0.000717619
0.000705203
0.000693658
0.000682946
0.000673023
0.000663871
0.000655478
0.000647805
0.000640813
0.00063446
0.000628704
0.000623501
0.000618809
0.000614585
0.000610787
0.000607376
0.000604313
0.000601564
0.000599094
0.000596874
0.000594875
0.000593073
0.000591445
0.000589969
0.000588628
0.000587405
0.000586286
0.000585259
0.00058431
0.000583432
0.000582613
0.000581846
0.000581125
0.000580442
0.000579793
0.000579171
0.000578573
0.000577994
0.00057743
0.000576879
0.000576337
0.0005758
0.000575265
0.000574729
0.000574188
0.000573638
0.000573074
0.00057249
0.000571878
0.00057123
0.000570533
0.000569773
0.000568929
0.000567974
0.00056687
0.000565565
0.000563979
0.000561994
0.000559408
0.000556256
8.92324e-05
0.00026232
0.000398727
0.000488784
0.000545967
0.00058194
0.000605358
0.00062246
0.000637573
0.000653508
0.000671899
0.000693513
0.000718519
0.000746699
0.000777601
0.000810648
0.000845216
0.000880679
0.00091644
0.00095195
0.000986714
0.0010203
0.00105234
0.00108254
0.00111065
0.00113651
0.00116002
0.00118114
0.0011999
0.00121637
0.00123069
0.00124304
0.00125359
0.00126259
0.00127022
0.00127671
0.00128224
0.00128693
0.00129091
0.00129422
0.00129689
0.0012989
0.0013002
0.00130072
0.00130041
0.00129922
0.00129711
0.00129403
0.00129
0.00128509
0.00127944
0.00127326
0.00126684
0.00126053
0.00125472
0.00124985
0.00124636
0.0012447
0.00124527
0.00124839
0.00125433
0.00126323
0.00127508
0.00128979
0.00130711
0.00132667
0.00134801
0.00137061
0.00139388
0.00141723
0.00144004
0.00146179
0.00148193
0.00150016
0.00151571
0.00152859
0.00153885
0.00154652
0.00155161
0.00155417
0.00155423
0.00155189
0.00154721
0.00154032
0.00153131
0.00152033
0.00150749
0.00149293
0.00147678
0.00145917
0.00144022
0.00142005
0.00139879
0.00137654
0.00135341
0.00132951
0.00130492
0.00127975
0.00125409
0.00122801
0.00120161
0.00117498
0.00114822
0.00112147
0.00109485
0.00106849
0.00104252
0.00101704
0.000992168
0.000967989
0.000944592
0.000922055
0.000900443
0.000879808
0.000860187
0.000841604
0.000824068
0.000807577
0.000792115
0.00077766
0.000764184
0.00075165
0.000740021
0.000729253
0.0007193
0.000710114
0.000701683
0.000693968
0.000686927
0.000680521
0.000674708
0.000669445
0.000664692
0.000660405
0.000656547
0.000653077
0.000649958
0.000647156
0.000644637
0.000642372
0.000640332
0.000638492
0.000636828
0.000635321
0.000633952
0.000632704
0.000631562
0.000630513
0.000629546
0.00062865
0.000627816
0.000627036
0.000626303
0.00062561
0.000624951
0.000624322
0.000623717
0.000623133
0.000622566
0.000622012
0.000621468
0.00062093
0.000620397
0.000619863
0.000619326
0.000618782
0.000618225
0.00061765
0.000617051
0.000616419
0.000615743
0.000615009
0.000614199
0.000613289
0.000612247
0.000611027
0.000609566
0.000607773
0.000605511
0.000602869
8.85665e-05
0.000260841
0.000401626
0.00049868
0.000563821
0.000607888
0.000639059
0.000663305
0.000684837
0.000706442
0.000729778
0.000755647
0.000784249
0.000815385
0.000848626
0.000883418
0.000919166
0.000955276
0.000991185
0.00102638
0.00106039
0.00109283
0.00112335
0.00115169
0.00117763
0.00120104
0.00122183
0.00124001
0.00125562
0.0012688
0.0012797
0.00128856
0.00129561
0.00130112
0.00130535
0.00130855
0.00131092
0.00131263
0.00131377
0.00131438
0.00131445
0.0013139
0.00131262
0.00131047
0.00130731
0.00130294
0.00129716
0.00128984
0.00128092
0.00127043
0.00125849
0.00124532
0.00123123
0.00121666
0.0012021
0.00118815
0.00117544
0.00116463
0.00115635
0.0011512
0.00114966
0.00115209
0.00115866
0.00116939
0.00118412
0.0012025
0.00122405
0.00124815
0.00127413
0.00130129
0.00132876
0.00135607
0.00138211
0.00140639
0.00142867
0.00144875
0.00146644
0.00148161
0.00149418
0.00150409
0.00151134
0.00151593
0.00151792
0.00151739
0.00151442
0.00150914
0.00150166
0.00149212
0.00148065
0.00146739
0.00145247
0.00143603
0.0014182
0.0013991
0.00137884
0.00135754
0.00133531
0.00131224
0.00128843
0.00126397
0.00123896
0.00121348
0.00118767
0.00116163
0.00113552
0.00110946
0.00108361
0.00105811
0.00103307
0.00100863
0.000984906
0.000961997
0.000939996
0.000918975
0.000898991
0.00088008
0.000862263
0.000845541
0.000829903
0.000815324
0.00080177
0.000789202
0.000777573
0.000766835
0.000756935
0.000747817
0.000739451
0.000731797
0.000724812
0.000718454
0.000712681
0.000707452
0.000702726
0.000698461
0.00069462
0.000691163
0.000688055
0.000685261
0.00068275
0.000680491
0.000678456
0.000676622
0.000674964
0.000673461
0.000672097
0.000670853
0.000669716
0.000668671
0.000667708
0.000666817
0.000665987
0.000665211
0.000664482
0.000663793
0.000663139
0.000662514
0.000661914
0.000661336
0.000660774
0.000660227
0.000659689
0.00065916
0.000658634
0.00065811
0.000657584
0.000657051
0.000656508
0.000655949
0.000655369
0.000654759
0.00065411
0.00065341
0.000652642
0.000651786
0.000650814
0.00064969
0.000648363
0.000646764
0.000644803
0.000642595
8.61449e-05
0.000254983
0.000398075
0.000500861
0.000573218
0.000624953
0.000663627
0.000694814
0.000722495
0.00074936
0.000777062
0.000806459
0.000837829
0.000871063
0.00090581
0.000941595
0.000977886
0.00101414
0.00104985
0.00108454
0.00111778
0.00114919
0.00117847
0.00120535
0.00122965
0.00125124
0.00127006
0.00128611
0.00129949
0.00131033
0.00131884
0.00132526
0.0013299
0.00133306
0.00133504
0.00133613
0.00133657
0.00133655
0.00133616
0.00133542
0.00133428
0.00133261
0.00133021
0.00132686
0.0013223
0.00131616
0.00130811
0.00129792
0.00128545
0.00127065
0.00125358
0.00123442
0.00121347
0.00119118
0.00116811
0.00114496
0.00112252
0.00110165
0.00108322
0.00106812
0.0010571
0.00105082
0.00104973
0.00105401
0.00106365
0.0010784
0.00109781
0.00112117
0.00114777
0.00117697
0.00120723
0.00123792
0.00126837
0.001298
0.00132632
0.00135293
0.00137749
0.00139973
0.00141946
0.00143651
0.0014508
0.00146228
0.00147096
0.00147687
0.00148007
0.00148066
0.00147874
0.00147445
0.00146792
0.00145929
0.0014487
0.00143629
0.00142221
0.00140658
0.00138954
0.0013712
0.00135168
0.00133108
0.00130951
0.00128706
0.00126383
0.00123993
0.00121548
0.0011906
0.00116544
0.00114013
0.00111483
0.0010897
0.00106488
0.00104053
0.00101677
0.000993744
0.000971563
0.000950324
0.000930105
0.000910964
0.000892936
0.000876035
0.000860257
0.000845581
0.000831975
0.000819395
0.000807792
0.000797111
0.000787295
0.000778286
0.00077003
0.000762488
0.000755613
0.00074936
0.000743686
0.000738549
0.000733906
0.000729718
0.000725947
0.000722554
0.000719504
0.000716764
0.000714302
0.000712089
0.000710097
0.000708302
0.000706681
0.000705213
0.000703881
0.000702668
0.000701559
0.000700542
0.000699604
0.000698736
0.000697929
0.000697175
0.000696466
0.000695797
0.000695161
0.000694555
0.000693973
0.000693412
0.000692867
0.000692337
0.000691817
0.000691305
0.000690798
0.000690292
0.000689785
0.000689273
0.000688752
0.000688218
0.000687665
0.000687086
0.000686473
0.000685815
0.000685098
0.000684305
0.000683413
0.000682394
0.000681207
0.000679802
0.000678121
0.000676285
8.24957e-05
0.000246084
0.000389653
0.000496856
0.000575495
0.000634202
0.000679825
0.000717478
0.000750857
0.00078251
0.00081407
0.000846449
0.000880029
0.000914816
0.000950579
0.000986944
0.00102347
0.00105968
0.00109513
0.00112938
0.00116203
0.00119275
0.00122122
0.0012472
0.00127052
0.00129105
0.00130874
0.0013236
0.00133572
0.00134525
0.00135241
0.00135748
0.00136077
0.00136262
0.00136338
0.00136337
0.00136285
0.00136204
0.00136105
0.00135988
0.00135847
0.00135662
0.00135408
0.00135054
0.00134561
0.00133876
0.0013296
0.00131781
0.00130314
0.00128548
0.0012648
0.0012412
0.00121493
0.00118639
0.00115615
0.0011249
0.00109354
0.00106304
0.00103448
0.00100898
0.000987589
0.000971308
0.000960901
0.000956804
0.000959191
0.000968003
0.000982989
0.00100322
0.00102788
0.0010561
0.0010869
0.00111942
0.00115282
0.00118637
0.00121942
0.00125138
0.00128176
0.00131016
0.00133626
0.00135979
0.00138058
0.0013985
0.0014135
0.00142555
0.00143468
0.00144096
0.00144449
0.00144538
0.00144375
0.00143975
0.00143353
0.00142522
0.00141499
0.00140296
0.00138928
0.00137406
0.00135744
0.00133952
0.00132041
0.00130022
0.00127905
0.00125701
0.00123422
0.0012108
0.00118689
0.00116264
0.00113821
0.00111376
0.00108944
0.00106542
0.00104187
0.00101892
0.000996724
0.000975399
0.000955046
0.000935745
0.00091755
0.000900493
0.000884583
0.000869807
0.000856138
0.000843533
0.000831943
0.000821309
0.00081157
0.000802663
0.000794525
0.000787108
0.000780361
0.000774236
0.000768687
0.00076367
0.000759142
0.000755062
0.000751392
0.000748094
0.000745134
0.000742477
0.000740093
0.000737953
0.00073603
0.0007343
0.00073274
0.000731329
0.000730051
0.000728889
0.000727828
0.000726856
0.000725961
0.000725133
0.000724365
0.000723647
0.000722973
0.000722337
0.000721733
0.000721158
0.000720606
0.000720074
0.000719558
0.000719055
0.000718563
0.000718079
0.000717599
0.000717122
0.000716644
0.000716162
0.000715673
0.000715172
0.000714655
0.000714116
0.000713547
0.00071294
0.000712283
0.000711562
0.000710758
0.00070985
0.000708807
0.000707593
0.000706174