/*--------------------------------*- C++ -*----------------------------------*\
  =========                 |
  \\      /  F ield         | OpenFOAM: The Open Source CFD Toolbox
   \\    /   O peration     | Website:  https://openfoam.org
    \\  /    A nd           | Version:  7
     \\/     M anipulation  |
\*---------------------------------------------------------------------------*/
FoamFile
{
    version     2.0;
    format      ascii;
    class       volScalarField;
    location    "0.03";
    object      p;
}
// * * * * * * * * * * * * * * * * * * * * * * * * * * * * * * * * * * * * * //

dimensions      [0 2 -2 0 0 0 0];

internalField   nonuniform List<scalar> 
12225
(
-2.35526
-1.75707
-1.68807
-1.73167
-1.65808
-1.54537
-1.45675
-1.39058
-1.33258
-1.27831
-1.22775
-1.17973
-1.13195
-1.08203
-1.02779
-0.96585
-0.895219
-0.80053
-3.70796
-2.46954
-1.93401
-1.78728
-1.66456
-1.53954
-1.44722
-1.38023
-1.32269
-1.26932
-1.21969
-1.17249
-1.12546
-1.07632
-1.02309
-0.962676
-0.894552
-0.808073
-3.46549
-2.28185
-1.82111
-1.72528
-1.63294
-1.52227
-1.43537
-1.37076
-1.31498
-1.26318
-1.21488
-1.16885
-1.12299
-1.07521
-1.02381
-0.966422
-0.903226
-0.830664
-3.02084
-2.17168
-1.79978
-1.70974
-1.61952
-1.51289
-1.42797
-1.36434
-1.30973
-1.2593
-1.21236
-1.16769
-1.12339
-1.07764
-1.02902
-0.976115
-0.919488
-0.860346
-2.72667
-2.14869
-1.81078
-1.69898
-1.60449
-1.50189
-1.41943
-1.35696
-1.30369
-1.25488
-1.20961
-1.16672
-1.12451
-1.08142
-1.03641
-0.988829
-0.939422
-0.890997
-2.52083
-2.11389
-1.80313
-1.67807
-1.58481
-1.48858
-1.40954
-1.34873
-1.29716
-1.25031
-1.20708
-1.16637
-1.12671
-1.08685
-1.04607
-1.00427
-0.962278
-0.923257
-2.34457
-2.05269
-1.77979
-1.65215
-1.56257
-1.47324
-1.3982
-1.33961
-1.29018
-1.24567
-1.20487
-1.16677
-1.13013
-1.094
-1.05794
-1.02219
-0.987647
-0.95737
-2.18567
-1.97815
-1.74794
-1.62324
-1.53764
-1.45533
-1.38494
-1.32919
-1.28241
-1.24069
-1.20276
-1.16773
-1.13459
-1.10263
-1.07167
-1.04214
-1.01494
-0.992825
-2.0429
-1.89732
-1.70833
-1.59032
-1.50932
-1.43432
-1.36929
-1.31708
-1.27348
-1.23504
-1.20046
-1.16897
-1.13978
-1.1124
-1.08681
-1.06354
-1.04346
-1.02894
-1.91372
-1.81226
-1.66047
-1.55255
-1.47725
-1.40986
-1.35088
-1.30291
-1.26307
-1.2284
-1.19765
-1.17016
-1.14534
-1.12286
-1.10282
-1.08578
-1.0725
-1.065
-1.79479
-1.72424
-1.60483
-1.50959
-1.4412
-1.38165
-1.32934
-1.28633
-1.25084
-1.22046
-1.19402
-1.17097
-1.15087
-1.13354
-1.11914
-1.10819
-1.10134
-1.10029
-1.69234
-1.64156
-1.54744
-1.46525
-1.40423
-1.35212
-1.30643
-1.26863
-1.23769
-1.21171
-1.18964
-1.17101
-1.15553
-1.14308
-1.13386
-1.12833
-1.12701
-1.13138
-1.59546
-1.55863
-1.486
-1.41709
-1.36401
-1.31951
-1.28076
-1.24866
-1.22269
-1.20147
-1.18409
-1.17014
-1.15943
-1.15192
-1.14779
-1.14746
-1.15132
-1.16059
-1.48858
-1.46308
-1.41055
-1.35655
-1.31332
-1.2778
-1.24741
-1.22243
-1.20274
-1.18745
-1.17582
-1.16754
-1.16248
-1.16067
-1.16227
-1.1676
-1.17695
-1.19125
-1.36985
-1.35348
-1.31882
-1.28083
-1.24951
-1.22456
-1.20405
-1.18785
-1.17601
-1.16803
-1.16341
-1.16191
-1.16346
-1.16812
-1.17601
-1.18738
-1.20241
-1.22175
-1.23624
-1.22726
-1.20816
-1.18666
-1.16926
-1.15668
-1.14778
-1.14221
-1.14001
-1.14096
-1.14475
-1.15123
-1.16038
-1.17225
-1.18697
-1.20466
-1.22541
-1.24968
-1.0824
-1.07967
-1.07446
-1.06979
-1.06828
-1.07022
-1.07493
-1.08206
-1.09151
-1.10318
-1.11692
-1.13264
-1.15037
-1.17017
-1.19212
-1.21631
-1.24275
-1.27176
-0.89881
-0.90205
-0.910453
-0.923735
-0.94056
-0.959765
-0.980663
-1.00292
-1.02634
-1.05077
-1.07613
-1.10243
-1.12976
-1.15817
-1.18776
-1.2186
-1.25068
-1.28424
-0.667326
-0.67815
-0.703098
-0.738318
-0.777836
-0.818359
-0.859034
-0.899628
-0.939809
-0.979324
-1.01816
-1.05646
-1.09437
-1.13206
-1.16964
-1.20722
-1.24484
-1.28275
-0.419466
-0.440069
-0.486226
-0.54805
-0.613108
-0.676253
-0.737292
-0.79635
-0.852908
-0.906677
-0.957872
-1.00688
-1.05404
-1.09962
-1.14384
-1.18693
-1.229
-1.27036
-0.192799
-0.224963
-0.296383
-0.387291
-0.477136
-0.560609
-0.639588
-0.714575
-0.784694
-0.849803
-0.910574
-0.96773
-1.02178
-1.07311
-1.12211
-1.16909
-1.21428
-1.25804
0.0410872
-0.00870603
-0.115743
-0.242002
-0.357274
-0.460118
-0.556322
-0.646201
-0.728279
-0.802963
-0.871663
-0.935454
-0.994997
-1.05084
-1.10352
-1.15347
-1.201
-1.24655
0.28728
0.209546
0.0524834
-0.114544
-0.253791
-0.37464
-0.487491
-0.59098
-0.683154
-0.765661
-0.840818
-0.909938
-0.973793
-1.03311
-1.0886
-1.14079
-1.19008
-1.23696
0.551866
0.428089
0.20185
-0.00735477
-0.165695
-0.303232
-0.432527
-0.548016
-0.648167
-0.736804
-0.817101
-0.890393
-0.95753
-1.01945
-1.07702
-1.13087
-1.18144
-1.22927
0.843062
0.645699
0.324333
0.0766833
-0.0919883
-0.244369
-0.389774
-0.515421
-0.62155
-0.71488
-0.799204
-0.875685
-0.945256
-1.00908
-1.06816
-1.12321
-1.17471
-1.22321
1.16553
0.867823
0.422604
0.139995
-0.0327488
-0.197996
-0.357566
-0.49099
-0.601482
-0.698457
-0.785923
-0.864808
-0.93617
-1.00139
-1.06157
-1.11747
-1.16963
-1.21858
1.49938
1.07734
0.511675
0.203083
0.0188079
-0.16431
-0.335209
-0.473458
-0.58692
-0.686782
-0.776699
-0.857377
-0.93006
-0.996318
-1.05732
-1.11386
-1.16651
-1.21582
1.83597
1.14776
0.548996
0.283566
0.0861462
-0.129508
-0.315749
-0.458862
-0.575317
-0.678072
-0.77021
-0.852329
-0.925974
-0.992938
-1.05447
-1.11136
-1.16428
-1.2138
2.46898
0.928566
0.282667
0.185128
0.0605831
-0.14376
-0.327262
-0.465759
-0.579609
-0.681796
-0.773936
-0.855998
-0.92951
-0.996316
-1.05765
-1.11423
-1.16673
-1.216
4.87048
1.94383
0.649767
0.370058
0.16032
-0.0963904
-0.304798
-0.45343
-0.572127
-0.677414
-0.771687
-0.855208
-0.929777
-0.997409
-1.05939
-1.11644
-1.16899
-1.21704
-1.65599
-1.64861
-1.6559
-1.67717
-1.70338
-1.73195
-1.7635
-1.79637
-1.82492
-1.85699
-1.90604
-1.96664
-2.03192
-2.09698
-2.14426
-2.1943
-2.26409
-2.34452
-2.43531
-2.53755
-2.65191
-2.77877
-2.91811
-3.0694
-3.23167
-3.4035
-3.58305
-3.76821
-3.95661
-4.14575
-4.33309
-4.51603
-4.69208
-4.85878
-5.01381
-5.15498
-5.28023
-5.38766
-5.47553
-5.54234
-5.58692
-5.60858
-5.607
-5.58111
-5.52832
-5.44644
-5.3337
-5.19171
-5.02162
-4.82439
-4.60099
-4.35248
-4.0801
-3.78525
-3.46954
-3.13472
-2.78276
-2.41581
-2.03616
-1.64631
-1.24888
-0.846624
-0.442388
-0.0390659
0.360453
0.753341
1.1369
1.50861
1.86623
2.20779
2.53165
2.83656
3.12162
3.38627
3.63026
3.8537
4.05699
4.24095
4.40724
4.55669
4.68929
4.80589
4.90763
4.99565
5.07108
5.13503
5.18855
5.23262
5.26816
5.29603
5.31701
5.33182
5.34111
5.34544
5.34532
5.34114
5.3333
5.32175
5.30579
5.2849
5.25102
5.19972
5.18545
5.20029
5.1984
5.18718
5.17246
5.15513
5.1362
5.11646
5.09637
5.07623
5.05625
5.0366
5.01738
4.9987
4.98077
4.96329
4.94639
4.92964
4.91376
4.89863
4.88416
4.87041
4.85735
4.84494
4.83318
4.82202
4.81145
4.80143
4.79193
4.78292
4.77436
4.76624
4.75852
4.75117
4.74416
4.73746
4.73106
4.72493
4.71904
4.71337
4.7079
4.70262
4.6975
4.69254
4.68772
4.68301
4.67842
4.67393
4.66953
4.66522
4.66098
4.65681
4.65271
4.64868
4.64471
4.6408
4.63697
4.63322
4.62956
4.62602
4.62261
4.61937
4.61634
4.61357
4.61115
4.60917
4.60777
4.60712
4.60746
4.60913
4.61259
4.6185
4.62789
4.64228
4.66448
4.69825
4.7553
4.83329
-1.64075
-1.64841
-1.66091
-1.67855
-1.6986
-1.71966
-1.74132
-1.76364
-1.79159
-1.82828
-1.86546
-1.90119
-1.93901
-1.97757
-2.03117
-2.10351
-2.183
-2.27002
-2.36727
-2.47697
-2.60026
-2.73755
-2.88858
-3.05245
-3.22771
-3.41246
-3.60446
-3.80127
-4.00033
-4.19904
-4.39487
-4.58535
-4.76809
-4.9408
-5.10131
-5.24752
-5.37743
-5.48915
-5.58083
-5.65075
-5.69726
-5.71877
-5.71374
-5.68132
-5.62179
-5.53609
-5.42562
-5.28891
-5.12551
-4.93566
-4.71997
-4.47932
-4.21483
-3.92781
-3.61976
-3.29237
-2.94751
-2.5872
-2.21367
-1.82928
-1.43657
-1.03819
-0.636909
-0.235561
0.163007
0.555985
0.940668
1.31452
1.67523
2.02078
2.34948
2.65998
2.95132
3.22288
3.47439
3.70588
3.91763
4.11005
4.2833
4.43816
4.57601
4.69797
4.8051
4.89851
4.97929
5.0485
5.10716
5.15623
5.19661
5.22915
5.25463
5.27374
5.28707
5.29523
5.29895
5.29868
5.29456
5.28757
5.27949
5.27165
5.27278
5.2857
5.26426
5.22146
5.19201
5.16904
5.14823
5.1286
5.10952
5.09071
5.07212
5.05374
5.03561
5.0178
5.00035
4.9833
4.96654
4.95041
4.93472
4.91978
4.90549
4.89164
4.87823
4.86538
4.85307
4.84132
4.8301
4.81941
4.80922
4.79953
4.79029
4.78151
4.77314
4.76517
4.75757
4.75031
4.74338
4.73676
4.73041
4.72431
4.71845
4.7128
4.70736
4.70209
4.69698
4.69202
4.6872
4.6825
4.67791
4.67342
4.66901
4.6647
4.66045
4.65628
4.65218
4.64814
4.64416
4.64025
4.63642
4.63267
4.62901
4.62546
4.62204
4.61879
4.61576
4.61298
4.61055
4.60856
4.60713
4.60645
4.60674
4.60833
4.61167
4.61738
4.62641
4.64009
4.66088
4.69136
4.74058
4.80325
-1.57868
-1.6017
-1.62261
-1.64098
-1.658
-1.67482
-1.69285
-1.71343
-1.73868
-1.77078
-1.80878
-1.85103
-1.89925
-1.95483
-2.02093
-2.10257
-2.19792
-2.30618
-2.42725
-2.56075
-2.70606
-2.8623
-3.02831
-3.20272
-3.384
-3.57051
-3.76052
-3.95228
-4.14402
-4.33394
-4.52023
-4.70107
-4.87462
-5.03902
-5.19242
-5.33295
-5.45876
-5.56804
-5.65905
-5.73011
-5.77964
-5.80608
-5.80775
-5.7832
-5.73247
-5.65486
-5.55065
-5.41971
-5.26209
-5.07813
-4.86843
-4.63383
-4.3754
-4.09437
-3.79219
-3.47046
-3.13097
-2.77566
-2.40665
-2.0262
-1.63677
-1.24092
-0.841364
-0.440891
-0.042338
0.351476
0.737811
1.11408
1.47791
1.8272
2.16019
2.47545
2.77195
3.049
3.30627
3.54373
3.76157
3.96018
4.14006
4.30198
4.44692
4.57585
4.68979
4.7898
4.87697
4.95234
5.01692
5.07166
5.11747
5.1552
5.18563
5.20946
5.22734
5.23992
5.24784
5.25163
5.25172
5.24891
5.24406
5.23749
5.23101
5.226
5.21168
5.18975
5.17161
5.1546
5.1373
5.11987
5.10228
5.0846
5.0669
5.04927
5.0318
5.01456
4.99761
4.98101
4.96479
4.94905
4.93373
4.91903
4.90449
4.89053
4.8772
4.86443
4.85222
4.84055
4.82942
4.81881
4.80869
4.79906
4.78989
4.78116
4.77284
4.76491
4.75735
4.75013
4.74323
4.73663
4.7303
4.72422
4.71838
4.71275
4.70731
4.70205
4.69695
4.692
4.68718
4.68249
4.6779
4.67341
4.66901
4.66469
4.66044
4.65627
4.65216
4.64812
4.64414
4.64022
4.63638
4.63262
4.62895
4.62539
4.62196
4.61869
4.61563
4.61282
4.61035
4.60831
4.60682
4.60605
4.60622
4.60763
4.61071
4.61603
4.62443
4.63702
4.65573
4.68206
4.72106
4.76134
-1.47533
-1.51335
-1.54848
-1.57383
-1.59369
-1.61259
-1.63341
-1.65838
-1.68954
-1.72868
-1.77682
-1.83455
-1.90258
-1.98171
-2.07258
-2.17575
-2.29078
-2.41708
-2.55389
-2.70033
-2.85548
-3.0184
-3.18813
-3.3637
-3.54409
-3.72822
-3.91492
-4.10297
-4.29099
-4.47755
-4.66108
-4.83991
-5.01228
-5.17634
-5.33018
-5.47184
-5.59934
-5.71072
-5.80406
-5.87756
-5.92953
-5.95842
-5.96288
-5.9419
-5.89445
-5.82039
-5.71935
-5.59122
-5.43615
-5.25452
-5.04697
-4.81434
-4.55769
-4.27823
-3.97738
-3.65667
-3.31783
-2.96273
-2.59341
-2.21208
-1.82111
-1.42307
-1.02065
-0.616686
-0.214077
0.184264
0.575486
0.95688
1.32595
1.68051
2.01868
2.33899
2.64033
2.92201
3.18364
3.42518
3.64687
3.8493
4.03319
4.19925
4.34834
4.4814
4.59944
4.70353
4.79472
4.87404
4.9425
5.00105
5.0506
5.09197
5.12596
5.15328
5.17461
5.19059
5.20184
5.20894
5.21239
5.21283
5.21085
5.20683
5.20163
5.19538
5.18533
5.17079
5.1553
5.13965
5.12364
5.10733
5.09078
5.07404
5.05721
5.04038
5.02365
5.00708
4.99076
4.97474
4.95905
4.94375
4.92886
4.91444
4.90044
4.88698
4.87409
4.86168
4.84978
4.8384
4.82752
4.81713
4.80722
4.79777
4.78875
4.78016
4.77197
4.76415
4.75668
4.74955
4.74272
4.73618
4.72991
4.72388
4.71808
4.71249
4.70708
4.70185
4.69678
4.69184
4.68704
4.68236
4.67778
4.6733
4.66891
4.66459
4.66035
4.65618
4.65207
4.64803
4.64404
4.64013
4.63627
4.6325
4.62881
4.62523
4.62178
4.61848
4.61538
4.61252
4.60998
4.60785
4.60624
4.60531
4.60526
4.60638
4.60903
4.61371
4.62113
4.63212
4.64802
4.66932
4.6979
4.72151
-1.36327
-1.41921
-1.47069
-1.50667
-1.53481
-1.56196
-1.59202
-1.62774
-1.67137
-1.72459
-1.78846
-1.86352
-1.95003
-2.04788
-2.15685
-2.27639
-2.40567
-2.54393
-2.69042
-2.84445
-3.00533
-3.17242
-3.34503
-3.52249
-3.70402
-3.88881
-4.0759
-4.26424
-4.45266
-4.63983
-4.8243
-5.00445
-5.17857
-5.34482
-5.50124
-5.64583
-5.77652
-5.89127
-5.98805
-6.06494
-6.12014
-6.15202
-6.15913
-6.14038
-6.09497
-6.02235
-5.9222
-5.79449
-5.63941
-5.45744
-5.24925
-5.01572
-4.75794
-4.47712
-4.17463
-3.85198
-3.51081
-3.15292
-2.78026
-2.39497
-1.99938
-1.59604
-1.18767
-0.77719
-0.367623
0.0379583
0.436519
0.825165
1.20123
1.56239
1.90666
2.23251
2.53881
2.82488
3.09037
3.33528
3.56003
3.76529
3.95178
4.12032
4.27185
4.40734
4.52786
4.63445
4.72819
4.8101
4.88118
4.94238
4.99458
5.03862
5.07529
5.10529
5.12932
5.14799
5.16192
5.17168
5.17777
5.18075
5.18111
5.17925
5.17563
5.17031
5.16197
5.15041
5.13728
5.12344
5.10897
5.094
5.07863
5.06295
5.04708
5.03112
5.01518
4.99933
4.98366
4.96824
4.9531
4.93831
4.9239
4.90993
4.89639
4.88332
4.87075
4.85866
4.84706
4.83595
4.82532
4.81516
4.80545
4.79619
4.78735
4.77891
4.77085
4.76316
4.7558
4.74877
4.74203
4.73557
4.72937
4.7234
4.71766
4.71211
4.70675
4.70155
4.69651
4.69161
4.68683
4.68217
4.67761
4.67314
4.66876
4.66445
4.66022
4.65605
4.65194
4.6479
4.64391
4.63998
4.63612
4.63233
4.62863
4.62502
4.62153
4.61819
4.61503
4.6121
4.60946
4.60721
4.60543
4.60429
4.60395
4.60466
4.60674
4.6106
4.61678
4.62585
4.63856
4.65466
4.67417
4.68596
-1.29809
-1.36409
-1.42622
-1.47158
-1.509
-1.54626
-1.58758
-1.63582
-1.69306
-1.76069
-1.83937
-1.92924
-2.03007
-2.14136
-2.2625
-2.39277
-2.53142
-2.67773
-2.83108
-2.99092
-3.15672
-3.32799
-3.50423
-3.68491
-3.8694
-4.05702
-4.24696
-4.43825
-4.62982
-4.8204
-5.00857
-5.19274
-5.37117
-5.54195
-5.70307
-5.85242
-5.98785
-6.10718
-6.20827
-6.28909
-6.34773
-6.3825
-6.39189
-6.37472
-6.33026
-6.25786
-6.15727
-6.02852
-5.87189
-5.68794
-5.47742
-5.2413
-4.98067
-4.69678
-4.39095
-4.06466
-3.71944
-3.357
-2.97918
-2.58801
-2.18578
-1.77499
-1.35843
-0.93912
-0.520264
-0.105165
0.302887
0.700738
1.0855
1.45464
1.80607
2.1382
2.4499
2.7405
3.00976
3.25788
3.4854
3.69298
3.8815
4.05188
4.20515
4.34237
4.46463
4.57303
4.66864
4.75249
4.82559
4.88887
4.94323
4.98948
5.02839
5.0607
5.08705
5.10809
5.12439
5.1365
5.14491
5.15011
5.15254
5.15253
5.15038
5.1461
5.13928
5.12997
5.119
5.10692
5.09396
5.08031
5.06612
5.05151
5.0366
5.02152
5.00637
4.99124
4.97623
4.9614
4.94683
4.93255
4.91863
4.90509
4.89197
4.87928
4.86705
4.85529
4.844
4.83318
4.82281
4.81289
4.80341
4.79435
4.7857
4.77743
4.76953
4.76197
4.75474
4.74782
4.74119
4.73482
4.7287
4.72281
4.71713
4.71164
4.70633
4.70118
4.69617
4.69131
4.68656
4.68192
4.67738
4.67294
4.66857
4.66428
4.66005
4.65589
4.65179
4.64774
4.64375
4.63981
4.63594
4.63213
4.6284
4.62476
4.62123
4.61783
4.6146
4.61158
4.60883
4.60642
4.60444
4.60303
4.60233
4.60255
4.60396
4.60685
4.61161
4.61856
4.628
4.63914
4.65099
4.65391
-1.28925
-1.35992
-1.42723
-1.47911
-1.52443
-1.57068
-1.62189
-1.68067
-1.74886
-1.82749
-1.91694
-2.01709
-2.12749
-2.24751
-2.37646
-2.51367
-2.6585
-2.81037
-2.9688
-3.13336
-3.30364
-3.47927
-3.65984
-3.84491
-4.03392
-4.22626
-4.42114
-4.61767
-4.81474
-5.01111
-5.20533
-5.39577
-5.58062
-5.75791
-5.92551
-6.08122
-6.22274
-6.34777
-6.45405
-6.53943
-6.60192
-6.63975
-6.65135
-6.6355
-6.59158
-6.51887
-6.4172
-6.28669
-6.12776
-5.94106
-5.72744
-5.48795
-5.22373
-4.93603
-4.62617
-4.29553
-3.94554
-3.57777
-3.19389
-2.79581
-2.38569
-1.96601
-1.53958
-1.10957
-0.679419
-0.252726
0.166866
0.575857
0.971049
1.34967
1.70946
2.04877
2.36644
2.6619
2.93515
3.18653
3.41664
3.62632
3.81657
3.98845
4.14309
4.28163
4.40523
4.51502
4.6121
4.69752
4.77228
4.83732
4.89352
4.94171
4.98264
5.01702
5.04552
5.06873
5.08722
5.10151
5.11208
5.11935
5.1237
5.12545
5.12484
5.12196
5.11676
5.10938
5.10027
5.08985
5.07837
5.06604
5.05304
5.03951
5.02559
5.0114
4.99706
4.98268
4.96834
4.95413
4.94013
4.92638
4.91294
4.89986
4.88716
4.87487
4.86301
4.8516
4.84063
4.8301
4.82001
4.81035
4.80111
4.79227
4.78381
4.77573
4.768
4.7606
4.75351
4.74672
4.7402
4.73394
4.72791
4.7221
4.7165
4.71108
4.70582
4.70073
4.69577
4.69095
4.68623
4.68163
4.67712
4.67269
4.66835
4.66407
4.65986
4.6557
4.6516
4.64756
4.64356
4.63962
4.63573
4.6319
4.62814
4.62446
4.62088
4.61742
4.6141
4.61097
4.60808
4.60549
4.60328
4.60156
4.60044
4.60011
4.60075
4.60257
4.60581
4.61058
4.6168
4.6234
4.62883
4.62494
-1.33394
-1.40317
-1.46978
-1.52426
-1.57447
-1.62686
-1.68489
-1.75079
-1.82607
-1.91156
-2.00747
-2.11359
-2.22946
-2.3545
-2.48808
-2.62962
-2.7786
-2.93456
-3.09711
-3.26591
-3.44064
-3.62098
-3.80657
-3.99697
-4.19169
-4.39008
-4.59139
-4.79469
-4.99888
-5.20265
-5.40452
-5.60279
-5.79556
-5.98076
-6.15616
-6.31941
-6.46808
-6.59974
-6.71199
-6.80257
-6.8694
-6.91063
-6.92467
-6.91036
-6.86689
-6.79382
-6.69102
-6.55874
-6.39748
-6.20804
-5.99137
-5.74861
-5.48094
-5.18965
-4.87599
-4.54125
-4.18674
-3.81382
-3.42395
-3.01883
-2.60044
-2.17117
-1.73385
-1.2918
-0.848721
-0.408618
0.0244124
0.446404
0.853757
1.24336
1.61273
1.96011
2.28446
2.58537
2.86295
3.11769
3.35041
3.56213
3.75398
3.92718
4.08297
4.2226
4.34729
4.45822
4.55652
4.64327
4.71947
4.78607
4.84394
4.8939
4.9367
4.97303
5.00354
5.02882
5.0494
5.06579
5.07842
5.08769
5.09396
5.0975
5.09856
5.09728
5.09375
5.08815
5.08079
5.07198
5.06198
5.05101
5.03924
5.02683
5.01393
5.00067
4.98718
4.97357
4.95994
4.94638
4.93297
4.91977
4.90684
4.89423
4.88197
4.8701
4.85863
4.84757
4.83694
4.82672
4.81693
4.80754
4.79855
4.78995
4.78171
4.77383
4.76628
4.75905
4.75212
4.74547
4.73908
4.73293
4.72701
4.72129
4.71577
4.71043
4.70524
4.70021
4.6953
4.69052
4.68586
4.68129
4.67681
4.67241
4.66809
4.66383
4.65963
4.65548
4.65139
4.64734
4.64335
4.63939
4.63549
4.63164
4.62784
4.62412
4.62048
4.61695
4.61354
4.61029
4.60724
4.60445
4.60197
4.5999
4.59834
4.59739
4.59721
4.5979
4.59958
4.60217
4.60535
4.60787
4.60794
4.5988
-1.415
-1.47814
-1.53947
-1.59289
-1.64474
-1.70006
-1.76163
-1.83127
-1.91021
-1.9991
-2.09811
-2.20706
-2.32556
-2.45312
-2.58924
-2.73343
-2.88527
-3.04439
-3.21046
-3.3832
-3.56231
-3.7475
-3.93842
-4.13464
-4.33564
-4.54079
-4.74929
-4.96019
-5.17234
-5.3844
-5.59479
-5.80173
-6.00325
-6.19714
-6.38104
-6.55247
-6.70886
-6.84764
-6.96629
-7.06243
-7.13391
-7.17883
-7.19558
-7.18301
-7.14039
-7.06737
-6.96395
-6.83047
-6.66758
-6.47617
-6.25733
-6.01224
-5.74216
-5.44835
-5.13205
-4.79442
-4.4366
-4.0597
-3.66493
-3.25368
-2.82765
-2.38907
-1.9407
-1.48601
-1.029
-0.574137
-0.126125
0.310439
0.731422
1.13328
1.51329
1.86972
2.20153
2.50841
2.79067
3.04902
3.28447
3.49824
3.69167
3.86612
4.02298
4.1636
4.28926
4.40122
4.50064
4.5886
4.66614
4.73419
4.79363
4.84527
4.88986
4.92806
4.96052
4.9878
5.01042
5.02886
5.04352
5.05479
5.06298
5.06838
5.07121
5.07165
5.06985
5.06601
5.06036
5.05318
5.0447
5.03512
5.02463
5.01339
5.00156
4.98928
4.97668
4.96388
4.95099
4.93811
4.92533
4.9127
4.90031
4.8882
4.8764
4.86496
4.8539
4.84322
4.83294
4.82305
4.81357
4.80447
4.79575
4.7874
4.7794
4.77173
4.76438
4.75733
4.75057
4.74407
4.73782
4.7318
4.72599
4.72038
4.71495
4.70969
4.70458
4.69962
4.69477
4.69005
4.68543
4.6809
4.67646
4.67209
4.66779
4.66355
4.65937
4.65524
4.65115
4.64711
4.64311
4.63914
4.63522
4.63134
4.62752
4.62375
4.62005
4.61643
4.61292
4.60954
4.60632
4.60331
4.60055
4.5981
4.59605
4.59446
4.59342
4.59296
4.59307
4.59356
4.59391
4.59282
4.58844
4.57522
-1.51095
-1.56516
-1.61831
-1.66795
-1.71878
-1.77439
-1.83686
-1.90762
-1.98767
-2.07754
-2.1774
-2.28713
-2.40646
-2.53499
-2.67234
-2.81811
-2.97195
-3.13356
-3.30265
-3.47895
-3.66221
-3.85211
-4.0483
-4.25034
-4.45771
-4.66973
-4.88557
-5.10423
-5.32451
-5.54499
-5.76404
-5.97977
-6.19009
-6.3927
-6.58509
-6.76466
-6.92871
-7.07453
-7.19951
-7.3012
-7.37737
-7.4261
-7.44579
-7.43534
-7.39415
-7.32194
-7.21883
-7.08527
-6.92202
-6.73008
-6.5106
-6.26486
-5.99412
-5.69966
-5.38264
-5.04411
-4.68502
-4.30622
-3.90857
-3.49308
-3.0611
-2.61453
-2.15601
-1.68906
-1.21802
-0.747914
-0.284159
0.167857
0.603373
1.01846
1.41011
1.77633
2.1162
2.42953
2.71679
2.97894
3.21725
3.43317
3.62824
3.80399
3.96194
4.10355
4.2302
4.34318
4.44369
4.53285
4.61169
4.68116
4.74214
4.79543
4.84176
4.88181
4.91618
4.94543
4.97007
4.99053
5.00722
5.02048
5.03064
5.03794
5.04263
5.04488
5.04488
5.04282
5.03891
5.03339
5.02646
5.01832
5.00916
4.99914
4.98843
4.97718
4.96552
4.95358
4.94147
4.92931
4.91718
4.90517
4.89334
4.88175
4.87045
4.85946
4.84882
4.83854
4.82863
4.8191
4.80994
4.80115
4.79272
4.78463
4.77688
4.76944
4.76231
4.75545
4.74887
4.74254
4.73644
4.73055
4.72487
4.71937
4.71405
4.70888
4.70385
4.69896
4.69418
4.68952
4.68495
4.68047
4.67607
4.67173
4.66746
4.66325
4.65909
4.65497
4.65089
4.64685
4.64284
4.63887
4.63493
4.63103
4.62717
4.62335
4.61958
4.61588
4.61226
4.60873
4.60533
4.60208
4.59902
4.59619
4.59363
4.59138
4.58946
4.58785
4.58644
4.58493
4.5827
4.57844
4.57038
4.55395
-1.60182
-1.64577
-1.6894
-1.7336
-1.78161
-1.83568
-1.89725
-1.96742
-2.04695
-2.13631
-2.23566
-2.34498
-2.46405
-2.59263
-2.73039
-2.87703
-3.03227
-3.19583
-3.36746
-3.54691
-3.73389
-3.92812
-4.12921
-4.33672
-4.55006
-4.76854
-4.99129
-5.21725
-5.44515
-5.67352
-5.90063
-6.12451
-6.34295
-6.55355
-6.7537
-6.94068
-7.11169
-7.26393
-7.39473
-7.50157
-7.58222
-7.63477
-7.65766
-7.64984
-7.61086
-7.54048
-7.43894
-7.30678
-7.14484
-6.95419
-6.73606
-6.49175
-6.22256
-5.92973
-5.61436
-5.27739
-4.91955
-4.54143
-4.14351
-3.72637
-3.2909
-2.83863
-2.37194
-1.89435
-1.41049
-0.925996
-0.446968
0.0205381
0.470951
0.899674
1.30335
1.6798
2.02803
2.34799
2.64041
2.9065
3.14779
3.36596
3.56277
3.73993
3.89908
4.04179
4.1695
4.28357
4.38524
4.47564
4.55582
4.62674
4.68927
4.74421
4.7923
4.83417
4.87045
4.90166
4.9283
4.95078
4.9695
4.98479
4.99694
5.0062
5.01281
5.01694
5.0188
5.01856
5.01641
5.01258
5.00724
5.00059
4.99281
4.98407
4.97454
4.96436
4.95368
4.94264
4.93137
4.91996
4.90853
4.89716
4.88592
4.87489
4.86409
4.85359
4.84339
4.83354
4.82402
4.81486
4.80605
4.79758
4.78945
4.78165
4.77416
4.76697
4.76006
4.75342
4.74703
4.74087
4.73493
4.72919
4.72365
4.71827
4.71306
4.70799
4.70305
4.69824
4.69354
4.68894
4.68442
4.67999
4.67564
4.67134
4.66711
4.66292
4.65878
4.65467
4.65061
4.64657
4.64256
4.63858
4.63462
4.63069
4.62679
4.62292
4.61908
4.61529
4.61156
4.60788
4.60429
4.6008
4.59743
4.5942
4.59112
4.5882
4.58541
4.58267
4.5798
4.57642
4.57186
4.56484
4.55372
4.53474
-1.67152
-1.7053
-1.73915
-1.77715
-1.82137
-1.87286
-1.93251
-2.0011
-2.07924
-2.16729
-2.26544
-2.37371
-2.49198
-2.62008
-2.75778
-2.90484
-3.06102
-3.22607
-3.39977
-3.58185
-3.77203
-3.97
-4.17536
-4.38761
-4.60617
-4.83027
-5.059
-5.29125
-5.5257
-5.76079
-5.99473
-6.22546
-6.4507
-6.66795
-6.87453
-7.06765
-7.24444
-7.40208
-7.53785
-7.64924
-7.73404
-7.79037
-7.81674
-7.8122
-7.77635
-7.70901
-7.6105
-7.4814
-7.32261
-7.13526
-6.92059
-6.67994
-6.41458
-6.12573
-5.81443
-5.48148
-5.12744
-4.75263
-4.35719
-3.94127
-3.50534
-3.05048
-2.57866
-2.09323
-1.59896
-1.10193
-0.608971
-0.126968
0.337645
0.779536
1.19483
1.58113
1.93743
2.26385
2.56131
2.83129
3.07557
3.29608
3.49475
3.67345
3.83395
3.9779
4.10683
4.22212
4.32506
4.4168
4.49841
4.57084
4.63498
4.69161
4.74147
4.7852
4.82339
4.85656
4.8852
4.90972
4.93047
4.9478
4.96197
4.97323
4.9818
4.98788
4.99163
4.99324
4.99289
4.99078
4.98707
4.98195
4.9756
4.96818
4.95987
4.95081
4.94117
4.93108
4.92067
4.91006
4.89936
4.88866
4.87805
4.8676
4.85734
4.84734
4.83763
4.82821
4.81911
4.81034
4.8019
4.79378
4.78597
4.77846
4.77125
4.76432
4.75765
4.75123
4.74504
4.73907
4.73331
4.72773
4.72232
4.71708
4.71198
4.70702
4.70219
4.69746
4.69284
4.68831
4.68386
4.67948
4.67517
4.67092
4.66672
4.66256
4.65844
4.65436
4.6503
4.64627
4.64226
4.63827
4.6343
4.63034
4.6264
4.62247
4.61857
4.61468
4.61083
4.607
4.60322
4.59948
4.59579
4.59215
4.58855
4.58497
4.58133
4.57751
4.57326
4.56816
4.5615
4.55209
4.53841
4.51738
-1.70754
-1.73404
-1.75833
-1.79
-1.83005
-1.8785
-1.93575
-2.00233
-2.07868
-2.16511
-2.26178
-2.36877
-2.48602
-2.61342
-2.75082
-2.89803
-3.05482
-3.22099
-3.39629
-3.58046
-3.77322
-3.9742
-4.18299
-4.39905
-4.62175
-4.85029
-5.0837
-5.32083
-5.56029
-5.80048
-6.03952
-6.27533
-6.50556
-6.72767
-6.93895
-7.13657
-7.31767
-7.47943
-7.61917
-7.73442
-7.82302
-7.88315
-7.91338
-7.91288
-7.88122
-7.8183
-7.72443
-7.60023
-7.44661
-7.26469
-7.0557
-6.82095
-6.56171
-6.27913
-5.97418
-5.64755
-5.29967
-4.93061
-4.54022
-4.12827
-3.6947
-3.24009
-2.76605
-2.27568
-1.7738
-1.26684
-0.762303
-0.267994
0.208814
0.6621
1.08751
1.48243
1.84584
2.17798
2.47998
2.75354
3.00066
3.22347
3.42405
3.6044
3.76639
3.91175
4.04206
4.15874
4.2631
4.35631
4.43946
4.5135
4.57932
4.63771
4.68938
4.73499
4.77511
4.81027
4.84092
4.86748
4.89028
4.90966
4.92587
4.93916
4.94973
4.95777
4.96345
4.96695
4.96842
4.96805
4.966
4.96245
4.95756
4.95151
4.94445
4.93656
4.92799
4.91888
4.90937
4.8996
4.88967
4.87968
4.86973
4.85988
4.8502
4.84074
4.83152
4.82257
4.81391
4.80555
4.79749
4.78973
4.78226
4.77507
4.76816
4.7615
4.75508
4.7489
4.74293
4.73716
4.73157
4.72616
4.72091
4.71581
4.71084
4.70599
4.70126
4.69662
4.69209
4.68763
4.68325
4.67893
4.67467
4.67047
4.6663
4.66218
4.65809
4.65402
4.64998
4.64595
4.64194
4.63795
4.63396
4.62997
4.62599
4.62201
4.61803
4.61406
4.61008
4.60611
4.60213
4.59814
4.59413
4.59009
4.58598
4.58174
4.57728
4.57242
4.56689
4.56021
4.5517
4.54021
4.5244
4.5017
-1.70705
-1.72363
-1.74083
-1.76734
-1.80351
-1.84894
-1.90376
-1.96831
-2.04289
-2.12773
-2.22299
-2.32875
-2.44502
-2.57173
-2.70877
-2.85597
-3.01316
-3.18011
-3.35659
-3.54232
-3.73698
-3.94017
-4.15145
-4.37024
-4.59585
-4.82745
-5.06402
-5.30436
-5.54704
-5.79042
-6.03261
-6.27148
-6.50469
-6.72969
-6.94379
-7.1442
-7.32809
-7.49272
-7.63547
-7.75396
-7.84608
-7.9101
-7.94466
-7.94897
-7.92258
-7.86539
-7.7777
-7.66011
-7.5135
-7.33893
-7.1376
-6.91076
-6.65961
-6.38523
-6.08851
-5.77003
-5.43008
-5.06854
-4.68501
-4.27891
-3.84979
-3.39775
-2.92404
-2.43153
-1.92508
-1.41144
-0.898707
-0.395438
0.0903729
0.552122
0.985075
1.38646
1.75525
2.09179
2.39737
2.67388
2.92346
3.14837
3.35081
3.53286
3.69646
3.84338
3.97522
4.09345
4.19939
4.29422
4.37904
4.4548
4.52239
4.58261
4.63616
4.6837
4.72579
4.76295
4.79563
4.82423
4.8491
4.87054
4.88881
4.90414
4.91672
4.92675
4.93438
4.93977
4.94309
4.94448
4.94411
4.94215
4.93875
4.93409
4.92833
4.92164
4.91417
4.90608
4.89751
4.8886
4.87947
4.87023
4.86096
4.85176
4.84267
4.83377
4.82507
4.81662
4.80842
4.80049
4.79284
4.78546
4.77835
4.77149
4.76489
4.75851
4.75237
4.74643
4.74068
4.73512
4.72973
4.7245
4.71941
4.71445
4.70962
4.70489
4.70027
4.69574
4.69129
4.68691
4.6826
4.67835
4.67414
4.66998
4.66586
4.66177
4.65771
4.65367
4.64964
4.64562
4.64162
4.63761
4.6336
4.62959
4.62557
4.62154
4.61749
4.61343
4.60933
4.6052
4.60103
4.59679
4.59247
4.58804
4.58343
4.57857
4.57332
4.56749
4.56076
4.55265
4.54248
4.52921
4.51161
4.48755
-1.66834
-1.67608
-1.68674
-1.70846
-1.74106
-1.78368
-1.83624
-1.89892
-1.9719
-2.05537
-2.14945
-2.25422
-2.36971
-2.49588
-2.63264
-2.77985
-2.93732
-3.10483
-3.28212
-3.46889
-3.66478
-3.86936
-4.08213
-4.30248
-4.52966
-4.76281
-5.00087
-5.2426
-5.48656
-5.73108
-5.97429
-6.21408
-6.44813
-6.67396
-6.88893
-7.09035
-7.2755
-7.44172
-7.58651
-7.70758
-7.80292
-7.87086
-7.91011
-7.91988
-7.89967
-7.84938
-7.76927
-7.65986
-7.52195
-7.35653
-7.1647
-6.94759
-6.70631
-6.44183
-6.15492
-5.84605
-5.51535
-5.16254
-4.78698
-4.38782
-3.96431
-3.51626
-3.04467
-2.55232
-2.04419
-1.52734
-1.01034
-0.502298
-0.0116769
0.454565
0.891505
1.29632
1.66803
2.00706
2.31482
2.59328
2.84468
3.07131
3.27541
3.45911
3.62435
3.77291
3.90642
4.02635
4.13401
4.23061
4.31722
4.39482
4.46429
4.52642
4.58192
4.63143
4.67553
4.71473
4.74946
4.78013
4.80707
4.83058
4.85092
4.8683
4.88291
4.89494
4.90452
4.91182
4.91698
4.92015
4.92148
4.92112
4.91923
4.91598
4.91154
4.90607
4.89973
4.89269
4.88509
4.87707
4.86877
4.8603
4.85176
4.84322
4.83476
4.82644
4.8183
4.81036
4.80265
4.79518
4.78795
4.78097
4.77423
4.76773
4.76144
4.75537
4.74951
4.74383
4.73832
4.73298
4.7278
4.72275
4.71783
4.71302
4.70833
4.70373
4.69922
4.6948
4.69044
4.68615
4.68191
4.67773
4.67358
4.66948
4.6654
4.66135
4.65732
4.6533
4.64929
4.64528
4.64128
4.63726
4.63324
4.62921
4.62515
4.62107
4.61695
4.61279
4.60858
4.6043
4.59993
4.59546
4.59084
4.58602
4.58093
4.57547
4.56949
4.56275
4.55492
4.54553
4.5339
4.51908
4.49997
4.47479
-1.59478
-1.59313
-1.59751
-1.61485
-1.64407
-1.68397
-1.73435
-1.79532
-1.86696
-1.94937
-2.04263
-2.14682
-2.26193
-2.38793
-2.5247
-2.6721
-2.82993
-2.99793
-3.17581
-3.36324
-3.5598
-3.76504
-3.97838
-4.19917
-4.42664
-4.65987
-4.89778
-5.13911
-5.38242
-5.62607
-5.86821
-6.10678
-6.33955
-6.56414
-6.77804
-6.97868
-7.16348
-7.32993
-7.47567
-7.59853
-7.69661
-7.76829
-7.81232
-7.82792
-7.8146
-7.7722
-7.70087
-7.60104
-7.47338
-7.31874
-7.13808
-6.93238
-6.70259
-6.44954
-6.17384
-5.8758
-5.55537
-5.21209
-4.84512
-4.45339
-4.03594
-3.59244
-3.12389
-2.63319
-2.12562
-1.60862
-1.09121
-0.582778
-0.0920043
0.374129
0.810779
1.21526
1.58673
1.92573
2.23372
2.51268
2.76483
2.99246
3.19777
3.38282
3.54956
3.69972
3.83492
3.95661
4.06609
4.16456
4.25309
4.33265
4.4041
4.46825
4.5258
4.57738
4.62357
4.66486
4.70171
4.7345
4.76356
4.78919
4.81164
4.83111
4.84779
4.86185
4.87344
4.88268
4.88973
4.89471
4.89776
4.89905
4.89871
4.89692
4.89383
4.88962
4.88446
4.8785
4.87192
4.86484
4.85741
4.84975
4.84196
4.83414
4.82635
4.81865
4.81109
4.8037
4.79651
4.78952
4.78275
4.7762
4.76986
4.76372
4.75779
4.75204
4.74647
4.74107
4.73582
4.73071
4.72574
4.72089
4.71615
4.71151
4.70696
4.7025
4.69812
4.6938
4.68955
4.68534
4.68119
4.67707
4.67299
4.66894
4.66491
4.6609
4.6569
4.65291
4.64892
4.64493
4.64093
4.63691
4.63288
4.62882
4.62473
4.62059
4.61641
4.61216
4.60783
4.60341
4.59886
4.59415
4.58923
4.58405
4.57851
4.57249
4.56581
4.55823
4.54941
4.53887
4.52596
4.5098
4.48942
4.46332
-1.49568
-1.48448
-1.48263
-1.49573
-1.52143
-1.55841
-1.60655
-1.66588
-1.73641
-1.81814
-1.91108
-2.01523
-2.13053
-2.25689
-2.39414
-2.54209
-2.7005
-2.86906
-3.04743
-3.23522
-3.43197
-3.63717
-3.85021
-4.0704
-4.29691
-4.52881
-4.76501
-5.00426
-5.24513
-5.48603
-5.72516
-5.96058
-6.19015
-6.41162
-6.62265
-6.82083
-7.00376
-7.16909
-7.31462
-7.43832
-7.5384
-7.61333
-7.66191
-7.68337
-7.67708
-7.64282
-7.58064
-7.49084
-7.37395
-7.23066
-7.06173
-6.86798