# vtk DataFile Version 2.0
sampleSurface
ASCII
DATASET POLYDATA
POINTS 502 double
-0.0206 0 -0.0005
-0.0190172 0 -0.0005
-0.0190172 0 0.0005
-0.0206 0 0.0005
-0.0174976 0 -0.0005
-0.0174976 0 0.0005
-0.0160387 0 -0.0005
-0.0160387 0 0.0005
-0.0146381 0 -0.0005
-0.0146381 0 0.0005
-0.0132934 0 -0.0005
-0.0132934 0 0.0005
-0.0120025 0 -0.0005
-0.0120025 0 0.0005
-0.0107632 0 -0.0005
-0.0107632 0 0.0005
-0.00957337 0 -0.0005
-0.00957337 0 0.0005
-0.00843108 0 -0.0005
-0.00843108 0 0.0005
-0.00733443 0 -0.0005
-0.00733443 0 0.0005
-0.0062816 0 -0.0005
-0.0062816 0 0.0005
-0.00527083 0 -0.0005
-0.00527083 0 0.0005
-0.00430044 0 -0.0005
-0.00430044 0 0.0005
-0.00336883 0 -0.0005
-0.00336883 0 0.0005
-0.00247443 0 -0.0005
-0.00247443 0 0.0005
-0.00161577 0 -0.0005
-0.00161577 0 0.0005
-0.000791418 0 -0.0005
-0.000791418 0 0.0005
0 0 -0.0005
0 0 0.0005
0 -0.0254 -0.0005
0 -0.0254 0.0005
0 -0.0242711 0.0005
0 -0.0242711 -0.0005
0 -0.0231422 0.0005
0 -0.0231422 -0.0005
0 -0.0220133 0.0005
0 -0.0220133 -0.0005
0 -0.0208844 0.0005
0 -0.0208844 -0.0005
0 -0.0197556 0.0005
0 -0.0197556 -0.0005
0 -0.0186267 0.0005
0 -0.0186267 -0.0005
0 -0.0174978 0.0005
0 -0.0174978 -0.0005
0 -0.0163689 0.0005
0 -0.0163689 -0.0005
0 -0.01524 0.0005
0 -0.01524 -0.0005
0 -0.0141111 0.0005
0 -0.0141111 -0.0005
0 -0.0129822 0.0005
0 -0.0129822 -0.0005
0 -0.0118533 0.0005
0 -0.0118533 -0.0005
0 -0.0107244 0.0005
0 -0.0107244 -0.0005
0 -0.00959556 0.0005
0 -0.00959556 -0.0005
0 -0.00846667 0.0005
0 -0.00846667 -0.0005
0 -0.00726604 0.0005
0 -0.00726604 -0.0005
0 -0.00618989 0.0005
0 -0.00618989 -0.0005
0 -0.00522531 0.0005
0 -0.00522531 -0.0005
0 -0.00436073 0.0005
0 -0.00436073 -0.0005
0 -0.00358579 0.0005
0 -0.00358579 -0.0005
0 -0.00289118 0.0005
0 -0.00289118 -0.0005
0 -0.0022686 0.0005
0 -0.0022686 -0.0005
0 -0.00171055 0.0005
0 -0.00171055 -0.0005
0 -0.00121037 0.0005
0 -0.00121037 -0.0005
0 -0.000762037 0.0005
0 -0.000762037 -0.0005
0 -0.000360188 0.0005
0 -0.000360188 -0.0005
0.000528387 -0.0254 -0.0005
0.000528387 -0.0254 0.0005
0.00106088 -0.0254 -0.0005
0.00106088 -0.0254 0.0005
0.00159752 -0.0254 -0.0005
0.00159752 -0.0254 0.0005
0.00213833 -0.0254 -0.0005
0.00213833 -0.0254 0.0005
0.00268334 -0.0254 -0.0005
0.00268334 -0.0254 0.0005
0.00323259 -0.0254 -0.0005
0.00323259 -0.0254 0.0005
0.00378611 -0.0254 -0.0005
0.00378611 -0.0254 0.0005
0.00434393 -0.0254 -0.0005
0.00434393 -0.0254 0.0005
0.00490609 -0.0254 -0.0005
0.00490609 -0.0254 0.0005
0.00547262 -0.0254 -0.0005
0.00547262 -0.0254 0.0005
0.00604356 -0.0254 -0.0005
0.00604356 -0.0254 0.0005
0.00661893 -0.0254 -0.0005
0.00661893 -0.0254 0.0005
0.00719878 -0.0254 -0.0005
0.00719878 -0.0254 0.0005
0.00778313 -0.0254 -0.0005
0.00778313 -0.0254 0.0005
0.00837203 -0.0254 -0.0005
0.00837203 -0.0254 0.0005
0.00896551 -0.0254 -0.0005
0.00896551 -0.0254 0.0005
0.0095636 -0.0254 -0.0005
0.0095636 -0.0254 0.0005
0.0101663 -0.0254 -0.0005
0.0101663 -0.0254 0.0005
0.0107738 -0.0254 -0.0005
0.0107738 -0.0254 0.0005
0.0113859 -0.0254 -0.0005
0.0113859 -0.0254 0.0005
0.0120028 -0.0254 -0.0005
0.0120028 -0.0254 0.0005
0.0126245 -0.0254 -0.0005
0.0126245 -0.0254 0.0005
0.0132511 -0.0254 -0.0005
0.0132511 -0.0254 0.0005
0.0138825 -0.0254 -0.0005
0.0138825 -0.0254 0.0005
0.0145188 -0.0254 -0.0005
0.0145188 -0.0254 0.0005
0.0151601 -0.0254 -0.0005
0.0151601 -0.0254 0.0005
0.0158063 -0.0254 -0.0005
0.0158063 -0.0254 0.0005
0.0164576 -0.0254 -0.0005
0.0164576 -0.0254 0.0005
0.0171139 -0.0254 -0.0005
0.0171139 -0.0254 0.0005
0.0177754 -0.0254 -0.0005
0.0177754 -0.0254 0.0005
0.018442 -0.0254 -0.0005
0.018442 -0.0254 0.0005
0.0191137 -0.0254 -0.0005
0.0191137 -0.0254 0.0005
0.0197907 -0.0254 -0.0005
0.0197907 -0.0254 0.0005
0.020473 -0.0254 -0.0005
0.020473 -0.0254 0.0005
0.0211606 -0.0254 -0.0005
0.0211606 -0.0254 0.0005
0.0218535 -0.0254 -0.0005
0.0218535 -0.0254 0.0005
0.0225517 -0.0254 -0.0005
0.0225517 -0.0254 0.0005
0.0232555 -0.0254 -0.0005
0.0232555 -0.0254 0.0005
0.0239647 -0.0254 -0.0005
0.0239647 -0.0254 0.0005
0.0246794 -0.0254 -0.0005
0.0246794 -0.0254 0.0005
0.0253996 -0.0254 -0.0005
0.0253996 -0.0254 0.0005
0.0261255 -0.0254 -0.0005
0.0261255 -0.0254 0.0005
0.026857 -0.0254 -0.0005
0.026857 -0.0254 0.0005
0.0275942 -0.0254 -0.0005
0.0275942 -0.0254 0.0005
0.0283371 -0.0254 -0.0005
0.0283371 -0.0254 0.0005
0.0290858 -0.0254 -0.0005
0.0290858 -0.0254 0.0005
0.0298403 -0.0254 -0.0005
0.0298403 -0.0254 0.0005
0.0306007 -0.0254 -0.0005
0.0306007 -0.0254 0.0005
0.031367 -0.0254 -0.0005
0.031367 -0.0254 0.0005
0.0321393 -0.0254 -0.0005
0.0321393 -0.0254 0.0005
0.0329175 -0.0254 -0.0005
0.0329175 -0.0254 0.0005
0.0337019 -0.0254 -0.0005
0.0337019 -0.0254 0.0005
0.0344923 -0.0254 -0.0005
0.0344923 -0.0254 0.0005
0.0352888 -0.0254 -0.0005
0.0352888 -0.0254 0.0005
0.0360916 -0.0254 -0.0005
0.0360916 -0.0254 0.0005
0.0369006 -0.0254 -0.0005
0.0369006 -0.0254 0.0005
0.0377158 -0.0254 -0.0005
0.0377158 -0.0254 0.0005
0.0385375 -0.0254 -0.0005
0.0385375 -0.0254 0.0005
0.0393655 -0.0254 -0.0005
0.0393655 -0.0254 0.0005
0.0401999 -0.0254 -0.0005
0.0401999 -0.0254 0.0005
0.0410408 -0.0254 -0.0005
0.0410408 -0.0254 0.0005
0.0418883 -0.0254 -0.0005
0.0418883 -0.0254 0.0005
0.0427424 -0.0254 -0.0005
0.0427424 -0.0254 0.0005
0.0436031 -0.0254 -0.0005
0.0436031 -0.0254 0.0005
0.0444704 -0.0254 -0.0005
0.0444704 -0.0254 0.0005
0.0453446 -0.0254 -0.0005
0.0453446 -0.0254 0.0005
0.0462255 -0.0254 -0.0005
0.0462255 -0.0254 0.0005
0.0471133 -0.0254 -0.0005
0.0471133 -0.0254 0.0005
0.048008 -0.0254 -0.0005
0.048008 -0.0254 0.0005
0.0489096 -0.0254 -0.0005
0.0489096 -0.0254 0.0005
0.0498183 -0.0254 -0.0005
0.0498183 -0.0254 0.0005
0.050734 -0.0254 -0.0005
0.050734 -0.0254 0.0005
0.0516568 -0.0254 -0.0005
0.0516568 -0.0254 0.0005
0.0525868 -0.0254 -0.0005
0.0525868 -0.0254 0.0005
0.053524 -0.0254 -0.0005
0.053524 -0.0254 0.0005
0.0544686 -0.0254 -0.0005
0.0544686 -0.0254 0.0005
0.0554204 -0.0254 -0.0005
0.0554204 -0.0254 0.0005
0.0563797 -0.0254 -0.0005
0.0563797 -0.0254 0.0005
0.0573464 -0.0254 -0.0005
0.0573464 -0.0254 0.0005
0.0583206 -0.0254 -0.0005
0.0583206 -0.0254 0.0005
0.0593025 -0.0254 -0.0005
0.0593025 -0.0254 0.0005
0.0602919 -0.0254 -0.0005
0.0602919 -0.0254 0.0005
0.0612891 -0.0254 -0.0005
0.0612891 -0.0254 0.0005
0.0622939 -0.0254 -0.0005
0.0622939 -0.0254 0.0005
0.0633067 -0.0254 -0.0005
0.0633067 -0.0254 0.0005
0.0643272 -0.0254 -0.0005
0.0643272 -0.0254 0.0005
0.0653557 -0.0254 -0.0005
0.0653557 -0.0254 0.0005
0.0663923 -0.0254 -0.0005
0.0663923 -0.0254 0.0005
0.0674368 -0.0254 -0.0005
0.0674368 -0.0254 0.0005
0.0684895 -0.0254 -0.0005
0.0684895 -0.0254 0.0005
0.0695504 -0.0254 -0.0005
0.0695504 -0.0254 0.0005
0.0706195 -0.0254 -0.0005
0.0706195 -0.0254 0.0005
0.0716969 -0.0254 -0.0005
0.0716969 -0.0254 0.0005
0.0727828 -0.0254 -0.0005
0.0727828 -0.0254 0.0005
0.073877 -0.0254 -0.0005
0.073877 -0.0254 0.0005
0.0749798 -0.0254 -0.0005
0.0749798 -0.0254 0.0005
0.0760911 -0.0254 -0.0005
0.0760911 -0.0254 0.0005
0.0772111 -0.0254 -0.0005
0.0772111 -0.0254 0.0005
0.0783398 -0.0254 -0.0005
0.0783398 -0.0254 0.0005
0.0794772 -0.0254 -0.0005
0.0794772 -0.0254 0.0005
0.0806235 -0.0254 -0.0005
0.0806235 -0.0254 0.0005
0.0817787 -0.0254 -0.0005
0.0817787 -0.0254 0.0005
0.0829429 -0.0254 -0.0005
0.0829429 -0.0254 0.0005
0.0841162 -0.0254 -0.0005
0.0841162 -0.0254 0.0005
0.0852985 -0.0254 -0.0005
0.0852985 -0.0254 0.0005
0.0864901 -0.0254 -0.0005
0.0864901 -0.0254 0.0005
0.0876909 -0.0254 -0.0005
0.0876909 -0.0254 0.0005
0.0889011 -0.0254 -0.0005
0.0889011 -0.0254 0.0005
0.0901207 -0.0254 -0.0005
0.0901207 -0.0254 0.0005
0.0913497 -0.0254 -0.0005
0.0913497 -0.0254 0.0005
0.0925883 -0.0254 -0.0005
0.0925883 -0.0254 0.0005
0.0938366 -0.0254 -0.0005
0.0938366 -0.0254 0.0005
0.0950945 -0.0254 -0.0005
0.0950945 -0.0254 0.0005
0.0963622 -0.0254 -0.0005
0.0963622 -0.0254 0.0005
0.0976398 -0.0254 -0.0005
0.0976398 -0.0254 0.0005
0.0989273 -0.0254 -0.0005
0.0989273 -0.0254 0.0005
0.100225 -0.0254 -0.0005
0.100225 -0.0254 0.0005
0.101532 -0.0254 -0.0005
0.101532 -0.0254 0.0005
0.10285 -0.0254 -0.0005
0.10285 -0.0254 0.0005
0.104178 -0.0254 -0.0005
0.104178 -0.0254 0.0005
0.105517 -0.0254 -0.0005
0.105517 -0.0254 0.0005
0.106865 -0.0254 -0.0005
0.106865 -0.0254 0.0005
0.108225 -0.0254 -0.0005
0.108225 -0.0254 0.0005
0.109594 -0.0254 -0.0005
0.109594 -0.0254 0.0005
0.110975 -0.0254 -0.0005
0.110975 -0.0254 0.0005
0.112366 -0.0254 -0.0005
0.112366 -0.0254 0.0005
0.113768 -0.0254 -0.0005
0.113768 -0.0254 0.0005
0.115181 -0.0254 -0.0005
0.115181 -0.0254 0.0005
0.116605 -0.0254 -0.0005
0.116605 -0.0254 0.0005
0.11804 -0.0254 -0.0005
0.11804 -0.0254 0.0005
0.119486 -0.0254 -0.0005
0.119486 -0.0254 0.0005
0.120943 -0.0254 -0.0005
0.120943 -0.0254 0.0005
0.122412 -0.0254 -0.0005
0.122412 -0.0254 0.0005
0.123892 -0.0254 -0.0005
0.123892 -0.0254 0.0005
0.125384 -0.0254 -0.0005
0.125384 -0.0254 0.0005
0.126887 -0.0254 -0.0005
0.126887 -0.0254 0.0005
0.128402 -0.0254 -0.0005
0.128402 -0.0254 0.0005
0.129928 -0.0254 -0.0005
0.129928 -0.0254 0.0005
0.131467 -0.0254 -0.0005
0.131467 -0.0254 0.0005
0.133017 -0.0254 -0.0005
0.133017 -0.0254 0.0005
0.13458 -0.0254 -0.0005
0.13458 -0.0254 0.0005
0.136155 -0.0254 -0.0005
0.136155 -0.0254 0.0005
0.137742 -0.0254 -0.0005
0.137742 -0.0254 0.0005
0.139341 -0.0254 -0.0005
0.139341 -0.0254 0.0005
0.140953 -0.0254 -0.0005
0.140953 -0.0254 0.0005
0.142577 -0.0254 -0.0005
0.142577 -0.0254 0.0005
0.144214 -0.0254 -0.0005
0.144214 -0.0254 0.0005
0.145863 -0.0254 -0.0005
0.145863 -0.0254 0.0005
0.147526 -0.0254 -0.0005
0.147526 -0.0254 0.0005
0.149201 -0.0254 -0.0005
0.149201 -0.0254 0.0005
0.15089 -0.0254 -0.0005
0.15089 -0.0254 0.0005
0.152591 -0.0254 -0.0005
0.152591 -0.0254 0.0005
0.154306 -0.0254 -0.0005
0.154306 -0.0254 0.0005
0.156034 -0.0254 -0.0005
0.156034 -0.0254 0.0005
0.157775 -0.0254 -0.0005
0.157775 -0.0254 0.0005
0.159531 -0.0254 -0.0005
0.159531 -0.0254 0.0005
0.161299 -0.0254 -0.0005
0.161299 -0.0254 0.0005
0.163082 -0.0254 -0.0005
0.163082 -0.0254 0.0005
0.164878 -0.0254 -0.0005
0.164878 -0.0254 0.0005
0.166688 -0.0254 -0.0005
0.166688 -0.0254 0.0005
0.168513 -0.0254 -0.0005
0.168513 -0.0254 0.0005
0.170351 -0.0254 -0.0005
0.170351 -0.0254 0.0005
0.172204 -0.0254 -0.0005
0.172204 -0.0254 0.0005
0.174071 -0.0254 -0.0005
0.174071 -0.0254 0.0005
0.175953 -0.0254 -0.0005
0.175953 -0.0254 0.0005
0.177849 -0.0254 -0.0005
0.177849 -0.0254 0.0005
0.17976 -0.0254 -0.0005
0.17976 -0.0254 0.0005
0.181686 -0.0254 -0.0005
0.181686 -0.0254 0.0005
0.183627 -0.0254 -0.0005
0.183627 -0.0254 0.0005
0.185583 -0.0254 -0.0005
0.185583 -0.0254 0.0005
0.187555 -0.0254 -0.0005
0.187555 -0.0254 0.0005
0.189541 -0.0254 -0.0005
0.189541 -0.0254 0.0005
0.191543 -0.0254 -0.0005
0.191543 -0.0254 0.0005
0.193561 -0.0254 -0.0005
0.193561 -0.0254 0.0005
0.195594 -0.0254 -0.0005
0.195594 -0.0254 0.0005
0.197643 -0.0254 -0.0005
0.197643 -0.0254 0.0005
0.199708 -0.0254 -0.0005
0.199708 -0.0254 0.0005
0.201789 -0.0254 -0.0005
0.201789 -0.0254 0.0005
0.203886 -0.0254 -0.0005
0.203886 -0.0254 0.0005
0.206 -0.0254 -0.0005
0.206 -0.0254 0.0005
0.208047 -0.0251856 -0.0005
0.208047 -0.0251856 0.0005
0.210173 -0.0249628 -0.0005
0.210173 -0.0249628 0.0005
0.212382 -0.0247314 -0.0005
0.212382 -0.0247314 0.0005
0.214677 -0.024491 -0.0005
0.214677 -0.024491 0.0005
0.217061 -0.0242412 -0.0005
0.217061 -0.0242412 0.0005
0.219538 -0.0239817 -0.0005
0.219538 -0.0239817 0.0005
0.222112 -0.0237121 -0.0005
0.222112 -0.0237121 0.0005
0.224785 -0.023432 -0.0005
0.224785 -0.023432 0.0005
0.227563 -0.023141 -0.0005
0.227563 -0.023141 0.0005
0.230449 -0.0228387 -0.0005
0.230449 -0.0228387 0.0005
0.233447 -0.0225246 -0.0005
0.233447 -0.0225246 0.0005
0.236562 -0.0221983 -0.0005
0.236562 -0.0221983 0.0005
0.239797 -0.0218593 -0.0005
0.239797 -0.0218593 0.0005
0.243159 -0.0215071 -0.0005
0.243159 -0.0215071 0.0005
0.246652 -0.0211412 -0.0005
0.246652 -0.0211412 0.0005
0.250281 -0.0207611 -0.0005
0.250281 -0.0207611 0.0005
0.254051 -0.0203661 -0.0005
0.254051 -0.0203661 0.0005
0.257967 -0.0199558 -0.0005
0.257967 -0.0199558 0.0005
0.262036 -0.0195295 -0.0005
0.262036 -0.0195295 0.0005
0.266264 -0.0190867 -0.0005
0.266264 -0.0190867 0.0005
0.270655 -0.0186266 -0.0005
0.270655 -0.0186266 0.0005
0.275218 -0.0181486 -0.0005
0.275218 -0.0181486 0.0005
0.279959 -0.017652 -0.0005
0.279959 -0.017652 0.0005
0.284883 -0.017136 -0.0005
0.284883 -0.017136 0.0005
0.29 -0.0166 -0.0005
0.29 -0.0166 0.0005

POLYGONS 250 1250
4 0 1 2 3
4 1 4 5 2
4 4 6 7 5
4 6 8 9 7
4 8 10 11 9
4 10 12 13 11
4 12 14 15 13
4 14 16 17 15
4 16 18 19 17
4 18 20 21 19
4 20 22 23 21
4 22 24 25 23
4 24 26 27 25
4 26 28 29 27
4 28 30 31 29
4 30 32 33 31
4 32 34 35 33
4 34 36 37 35
4 38 39 40 41
4 41 40 42 43
4 43 42 44 45
4 45 44 46 47
4 47 46 48 49
4 49 48 50 51
4 51 50 52 53
4 53 52 54 55
4 55 54 56 57
4 57 56 58 59
4 59 58 60 61
4 61 60 62 63
4 63 62 64 65
4 65 64 66 67
4 67 66 68 69
4 69 68 70 71
4 71 70 72 73
4 73 72 74 75
4 75 74 76 77
4 77 76 78 79
4 79 78 80 81
4 81 80 82 83
4 83 82 84 85
4 85 84 86 87
4 87 86 88 89
4 89 88 90 91
4 91 90 37 36
4 38 92 93 39
4 92 94 95 93
4 94 96 97 95
4 96 98 99 97
4 98 100 101 99
4 100 102 103 101
4 102 104 105 103
4 104 106 107 105
4 106 108 109 107
4 108 110 111 109
4 110 112 113 111
4 112 114 115 113
4 114 116 117 115
4 116 118 119 117
4 118 120 121 119
4 120 122 123 121
4 122 124 125 123
4 124 126 127 125
4 126 128 129 127
4 128 130 131 129
4 130 132 133 131
4 132 134 135 133
4 134 136 137 135
4 136 138 139 137
4 138 140 141 139
4 140 142 143 141
4 142 144 145 143
4 144 146 147 145
4 146 148 149 147
4 148 150 151 149
4 150 152 153 151
4 152 154 155 153
4 154 156 157 155
4 156 158 159 157
4 158 160 161 159
4 160 162 163 161
4 162 164 165 163
4 164 166 167 165
4 166 168 169 167
4 168 170 171 169
4 170 172 173 171
4 172 174 175 173
4 174 176 177 175
4 176 178 179 177
4 178 180 181 179
4 180 182 183 181
4 182 184 185 183
4 184 186 187 185
4 186 188 189 187
4 188 190 191 189
4 190 192 193 191
4 192 194 195 193
4 194 196 197 195
4 196 198 199 197
4 198 200 201 199
4 200 202 203 201
4 202 204 205 203
4 204 206 207 205
4 206 208 209 207
4 208 210 211 209
4 210 212 213 211
4 212 214 215 213
4 214 216 217 215
4 216 218 219 217
4 218 220 221 219
4 220 222 223 221
4 222 224 225 223
4 224 226 227 225
4 226 228 229 227
4 228 230 231 229
4 230 232 233 231
4 232 234 235 233
4 234 236 237 235
4 236 238 239 237
4 238 240 241 239
4 240 242 243 241
4 242 244 245 243
4 244 246 247 245
4 246 248 249 247
4 248 250 251 249
4 250 252 253 251
4 252 254 255 253
4 254 256 257 255
4 256 258 259 257
4 258 260 261 259
4 260 262 263 261
4 262 264 265 263
4 264 266 267 265
4 266 268 269 267
4 268 270 271 269
4 270 272 273 271
4 272 274 275 273
4 274 276 277 275
4 276 278 279 277
4 278 280 281 279
4 280 282 283 281
4 282 284 285 283
4 284 286 287 285
4 286 288 289 287
4 288 290 291 289
4 290 292 293 291
4 292 294 295 293
4 294 296 297 295
4 296 298 299 297
4 298 300 301 299
4 300 302 303 301
4 302 304 305 303
4 304 306 307 305
4 306 308 309 307
4 308 310 311 309
4 310 312 313 311
4 312 314 315 313
4 314 316 317 315
4 316 318 319 317
4 318 320 321 319
4 320 322 323 321
4 322 324 325 323
4 324 326 327 325
4 326 328 329 327
4 328 330 331 329
4 330 332 333 331
4 332 334 335 333
4 334 336 337 335
4 336 338 339 337
4 338 340 341 339
4 340 342 343 341
4 342 344 345 343
4 344 346 347 345
4 346 348 349 347
4 348 350 351 349
4 350 352 353 351
4 352 354 355 353
4 354 356 357 355
4 356 358 359 357
4 358 360 361 359
4 360 362 363 361
4 362 364 365 363
4 364 366 367 365
4 366 368 369 367
4 368 370 371 369
4 370 372 373 371
4 372 374 375 373
4 374 376 377 375
4 376 378 379 377
4 378 380 381 379
4 380 382 383 381
4 382 384 385 383
4 384 386 387 385
4 386 388 389 387
4 388 390 391 389
4 390 392 393 391
4 392 394 395 393
4 394 396 397 395
4 396 398 399 397
4 398 400 401 399
4 400 402 403 401
4 402 404 405 403
4 404 406 407 405
4 406 408 409 407
4 408 410 411 409
4 410 412 413 411
4 412 414 415 413
4 414 416 417 415
4 416 418 419 417
4 418 420 421 419
4 420 422 423 421
4 422 424 425 423
4 424 426 427 425
4 426 428 429 427
4 428 430 431 429
4 430 432 433 431
4 432 434 435 433
4 434 436 437 435
4 436 438 439 437
4 438 440 441 439
4 440 442 443 441
4 442 444 445 443
4 444 446 447 445
4 446 448 449 447
4 448 450 451 449
4 450 452 453 451
4 452 454 455 453
4 454 456 457 455
4 456 458 459 457
4 458 460 461 459
4 460 462 463 461
4 462 464 465 463
4 464 466 467 465
4 466 468 469 467
4 468 470 471 469
4 470 472 473 471
4 472 474 475 473
4 474 476 477 475
4 476 478 479 477
4 478 480 481 479
4 480 482 483 481
4 482 484 485 483
4 484 486 487 485
4 486 488 489 487
4 488 490 491 489
4 490 492 493 491
4 492 494 495 493
4 494 496 497 495
4 496 498 499 497
4 498 500 501 499
POINT_DATA 502
FIELD attributes 1
U 3 502 float
1.61628 0.131539 0.0164005
0.809865 0.0652097 0.0080822
0.809865 0.0652097 0.0080822
1.61628 0.131539 0.0164005
0.0249434 0.000680062 0
0.0249434 0.000680062 0
0.0225176 0.000564728 0
0.0225176 0.000564728 0
0.0204931 0.000496249 0
0.0204931 0.000496249 0
0.0186479 0.000403374 0
0.0186479 0.000403374 0
0.0171344 0.000270179 0
0.0171344 0.000270179 0
0.0161639 0.000137178 0
0.0161639 0.000137178 0
0.0158016 3.42062e-05 0
0.0158016 3.42062e-05 0
0.0158862 -4.24532e-05 0
0.0158862 -4.24532e-05 0
0.0163696 -9.65366e-05 0
0.0163696 -9.65366e-05 0
0.0169496 -0.000100348 0
0.0169496 -0.000100348 0
0.0176768 -0.000115275 0
0.0176768 -0.000115275 0
0.018326 -0.000110123 0
0.018326 -0.000110123 0
0.0192024 -0.000196362 0
0.0192024 -0.000196362 0
0.0200988 -0.000195305 0
0.0200988 -0.000195305 0
0.0214808 -0.000388605 0
0.0214808 -0.000388605 0
0.0229064 -0.000346987 0
0.0229064 -0.000346987 0
0.0119042 -6.79025e-05 0
0.0119042 -6.79025e-05 0
-4.27911e-06 -3.56024e-06 6.11968e-23
-4.27911e-06 -3.56024e-06 6.11968e-23
-8.19232e-06 -1.84193e-05 -1.65507e-22
-8.19232e-06 -1.84193e-05 -1.65507e-22
-1.307e-05 -4.22447e-05 -1.96117e-22
-1.307e-05 -4.22447e-05 -1.96117e-22
-1.5957e-05 -5.38801e-05 3.92267e-22
-1.5957e-05 -5.38801e-05 3.92267e-22
-2.04516e-05 -4.88558e-05 1.30749e-22
-2.04516e-05 -4.88558e-05 1.30749e-22
-2.65035e-05 -1.9242e-05 -2.61529e-22
-2.65035e-05 -1.9242e-05 -2.61529e-22
-3.42699e-05 4.39231e-05 0
-3.42699e-05 4.39231e-05 0
-4.4016e-05 0.000152397 -5.23271e-22
-4.4016e-05 0.000152397 -5.23271e-22
-5.655e-05 0.000321118 -5.01756e-26
-5.655e-05 0.000321118 -5.01756e-26
-7.25397e-05 0.000570537 5.23221e-22
-7.25397e-05 0.000570537 5.23221e-22
-9.4556e-05 0.0009276 -5.22888e-22
-9.4556e-05 0.0009276 -5.22888e-22
-0.000125064 0.00144096 -1.44547e-25
-0.000125064 0.00144096 -1.44547e-25
-0.000166859 0.00215813 5.22744e-22
-0.000166859 0.00215813 5.22744e-22
-0.000220033 0.00317079 5.20223e-22
-0.000220033 0.00317079 5.20223e-22
-0.000295836 0.00452868 4.27677e-25
-0.000295836 0.00452868 4.27677e-25
-0.000368488 0.0063471 -5.29008e-22
-0.000368488 0.0063471 -5.29008e-22
-0.00040125 0.00856642 0
-0.00040125 0.00856642 0
-0.000347501 0.0106941 0
-0.000347501 0.0106941 0
-0.000142484 0.0122381 0
-0.000142484 0.0122381 0
0.000240322 0.0127996 0
0.000240322 0.0127996 0
0.000726495 0.0120567 0
0.000726495 0.0120567 0
0.00123764 0.0101528 0
0.00123764 0.0101528 0
0.00159616 0.0069823 0
0.00159616 0.0069823 0
0.00157557 0.00392061 0
0.00157557 0.00392061 0
0.00040523 0.000816183 0
0.00040523 0.000816183 0
-0.00157102 0.000292925 0
-0.00157102 0.000292925 0
3.67905e-05 0.000825324 0
3.67905e-05 0.000825324 0
4.91894e-06 -1.38532e-05 2.55866e-25
4.91894e-06 -1.38532e-05 2.55866e-25
2.98222e-05 -2.55904e-05 -3.04205e-23
2.98222e-05 -2.55904e-05 -3.04205e-23
5.99455e-05 -2.73148e-05 0
5.99455e-05 -2.73148e-05 0
8.95653e-05 -2.81391e-05 0
8.95653e-05 -2.81391e-05 0
0.000120747 -2.94137e-05 2.9535e-23
0.000120747 -2.94137e-05 2.9535e-23
0.000153668 -3.10536e-05 2.95881e-23
0.000153668 -3.10536e-05 2.95881e-23
0.000188653 -3.29642e-05 0
0.000188653 -3.29642e-05 0
0.000225985 -3.5102e-05 0
0.000225985 -3.5102e-05 0
0.000265915 -3.74328e-05 0
0.000265915 -3.74328e-05 0
0.000308666 -3.99194e-05 -2.85191e-23
0.000308666 -3.99194e-05 -2.85191e-23
0.000354422 -4.25205e-05 -2.85735e-23
0.000354422 -4.25205e-05 -2.85735e-23
0.000403329 -4.5193e-05 0
0.000403329 -4.5193e-05 0
0.000455491 -4.78929e-05 0
0.000455491 -4.78929e-05 0
0.000510965 -5.05765e-05 0
0.000510965 -5.05765e-05 0
0.000569762 -5.32013e-05 -2.75246e-23
0.000569762 -5.32013e-05 -2.75246e-23
0.00063185 -5.57266e-05 -2.75802e-23
0.00063185 -5.57266e-05 -2.75802e-23
0.000697149 -5.81148e-05 0
0.000697149 -5.81148e-05 0
0.000765541 -6.03323e-05 0
0.000765541 -6.03323e-05 0
0.000836866 -6.23496e-05 0
0.000836866 -6.23496e-05 0
0.000910933 -6.41424e-05 0
0.000910933 -6.41424e-05 0
0.000987518 -6.56915e-05 0
0.000987518 -6.56915e-05 0
0.00106637 -6.69829e-05 0
0.00106637 -6.69829e-05 0
0.00114723 -6.80081e-05 -2.59575e-23
0.00114723 -6.80081e-05 -2.59575e-23
0.00122981 -6.87632e-05 -2.52218e-25
0.00122981 -6.87632e-05 -2.52218e-25
0.00131382 -6.92491e-05 2.52277e-25
0.00131382 -6.92491e-05 2.52277e-25
0.00139897 -6.94709e-05 -5.0999e-23
0.00139897 -6.94709e-05 -5.0999e-23
0.00148495 -6.94372e-05 -2.54313e-23
0.00148495 -6.94372e-05 -2.54313e-23
0.00157149 -6.91598e-05 0
0.00157149 -6.91598e-05 0
0.00165829 -6.8653e-05 2.47905e-23
0.00165829 -6.8653e-05 2.47905e-23
0.00174509 -6.79331e-05 4.94456e-23
0.00174509 -6.79331e-05 4.94456e-23
0.00183163 -6.70179e-05 2.46552e-23
0.00183163 -6.70179e-05 2.46552e-23
0.00191767 -6.5926e-05 0
0.00191767 -6.5926e-05 0
0.00200298 -6.46765e-05 2.4016e-23
0.00200298 -6.46765e-05 2.4016e-23
0.00208736 -6.32887e-05 2.40752e-23
0.00208736 -6.32887e-05 2.40752e-23
0.00217062 -6.17815e-05 0
0.00217062 -6.17815e-05 0
0.0022526 -6.01733e-05 -2.34381e-23
0.0022526 -6.01733e-05 -2.34381e-23
0.00233315 -5.84818e-05 -2.34976e-23
0.00233315 -5.84818e-05 -2.34976e-23
0.00241213 -5.67237e-05 -2.30547e-23
0.00241213 -5.67237e-05 -2.30547e-23
0.00248944 -5.49146e-05 -6.88419e-23
0.00248944 -5.49146e-05 -6.88419e-23
0.00256498 -5.30689e-05 -4.58473e-23
0.00256498 -5.30689e-05 -4.58473e-23
0.00263868 -5.11998e-05 0
0.00263868 -5.11998e-05 0
0.00271047 -4.93193e-05 0
0.00271047 -4.93193e-05 0
0.00278031 -4.74382e-05 0
0.00278031 -4.74382e-05 0
0.00284815 -4.55659e-05 0
0.00284815 -4.55659e-05 0
0.00291399 -4.37109e-05 -4.34592e-23
0.00291399 -4.37109e-05 -4.34592e-23
0.0029778 -4.18805e-05 -8.66661e-23
0.0029778 -4.18805e-05 -8.66661e-23
0.00303959 -4.00808e-05 -8.5921e-23
0.00303959 -4.00808e-05 -8.5921e-23
0.00309935 -3.83173e-05 -4.28353e-23
0.00309935 -3.83173e-05 -4.28353e-23
0.00315711 -3.65942e-05 4.19747e-23
0.00315711 -3.65942e-05 4.19747e-23
0.00321289 -3.49152e-05 4.20963e-23
0.00321289 -3.49152e-05 4.20963e-23
0.00326671 -3.32831e-05 -4.12419e-23
0.00326671 -3.32831e-05 -4.12419e-23
0.0033186 -3.17002e-05 -8.22419e-23
0.0033186 -3.17002e-05 -8.22419e-23
0.00336861 -3.01681e-05 -4.1e-23
0.00336861 -3.01681e-05 -4.1e-23
0.00341676 -2.86879e-05 0
0.00341676 -2.86879e-05 0
0.0034631 -2.72603e-05 0
0.0034631 -2.72603e-05 0
0.00350768 -2.58855e-05 -3.94406e-23
0.00350768 -2.58855e-05 -3.94406e-23
0.00355055 -2.45635e-05 -3.95627e-23
0.00355055 -2.45635e-05 -3.95627e-23
0.00359175 -2.32939e-05 0
0.00359175 -2.32939e-05 0
0.00363133 -2.20761e-05 0
0.00363133 -2.20761e-05 0
0.00366934 -2.09092e-05 0
0.00366934 -2.09092e-05 0
0.00370583 -1.97923e-05 0
0.00370583 -1.97923e-05 0
0.00374085 -1.87243e-05 0
0.00374085 -1.87243e-05 0
0.00377445 -1.77039e-05 0
0.00377445 -1.77039e-05 0
0.00380669 -1.67297e-05 0
0.00380669 -1.67297e-05 0
0.00383761 -1.58005e-05 3.63165e-23
0.00383761 -1.58005e-05 3.63165e-23
0.00386726 -1.49147e-05 3.64385e-23
0.00386726 -1.49147e-05 3.64385e-23
0.00389568 -1.4071e-05 0
0.00389568 -1.4071e-05 0
0.00392294 -1.32677e-05 -3.53104e-23
0.00392294 -1.32677e-05 -3.53104e-23
0.00394906 -1.25035e-05 -7.04112e-23
0.00394906 -1.25035e-05 -7.04112e-23
0.0039741 -1.17767e-05 -3.51007e-23
0.0039741 -1.17767e-05 -3.51007e-23
0.00399809 -1.10861e-05 3.43222e-23
0.00399809 -1.10861e-05 3.43222e-23
0.0040211 -1.043e-05 4.46861e-25
0.0040211 -1.043e-05 4.46861e-25
0.00404314 -9.80711e-06 -3.41181e-23
0.00404314 -9.80711e-06 -3.41181e-23
0.00406427 -9.216e-06 3.33519e-23
0.00406427 -9.216e-06 3.33519e-23
0.00408453 -8.65529e-06 3.3473e-23
0.00408453 -8.65529e-06 3.3473e-23
0.00410395 -8.12366e-06 0
0.00410395 -8.12366e-06 0
0.00412257 -7.61981e-06 -3.23995e-23
0.00412257 -7.61981e-06 -3.23995e-23
0.00414042 -7.14247e-06 -3.25199e-23
0.00414042 -7.14247e-06 -3.25199e-23
0.00415755 -6.69044e-06 3.17743e-23
0.00415755 -6.69044e-06 3.17743e-23
0.00417398 -6.26252e-06 3.18943e-23
0.00417398 -6.26252e-06 3.18943e-23
0.00418974 -5.8576e-06 -3.11569e-23
0.00418974 -5.8576e-06 -3.11569e-23
0.00420488 -5.47458e-06 -6.21276e-23
0.00420488 -5.47458e-06 -6.21276e-23
0.00421941 -5.11238e-06 -6.15177e-23
0.00421941 -5.11238e-06 -6.15177e-23
0.00423337 -4.77001e-06 -9.11569e-23
0.00423337 -4.77001e-06 -9.11569e-23
0.00424678 -4.44646e-06 -8.37772e-25
0.00424678 -4.44646e-06 -8.37772e-25
0.00425967 -4.14078e-06 6.01276e-23
0.00425967 -4.14078e-06 6.01276e-23
0.00427208 -3.85213e-06 0
0.00427208 -3.85213e-06 0
0.00428401 -3.57936e-06 0
0.00428401 -3.57936e-06 0
0.00429551 -3.32196e-06 5.75276e-23
0.00429551 -3.32196e-06 5.75276e-23
0.00430658 -3.07921e-06 1.14709e-22
0.00430658 -3.07921e-06 1.14709e-22
0.00431725 -2.84872e-06 8.1176e-25
0.00431725 -2.84872e-06 8.1176e-25
0.00432755 -2.63213e-06 -5.66018e-23
0.00432755 -2.63213e-06 -5.66018e-23
0.00433749 -2.42861e-06 5.52239e-23
0.00433749 -2.42861e-06 5.52239e-23
0.0043471 -2.22923e-06 1.10113e-22
0.0043471 -2.22923e-06 1.10113e-22
0.00435638 -2.04077e-06 1.08982e-22
0.00435638 -2.04077e-06 1.08982e-22
0.00436536 -1.86777e-06 5.4324e-23
0.00436536 -1.86777e-06 5.4324e-23
0.00437406 -1.67656e-06 0
0.00437406 -1.67656e-06 0
0.00438245 -1.45351e-06 0
0.00438245 -1.45351e-06 0
0.00439052 -1.23644e-06 5.18755e-23
0.00439052 -1.23644e-06 5.18755e-23
0.00439829 -1.05355e-06 5.21026e-23
0.00439829 -1.05355e-06 5.21026e-23
0.0044058 -9.06215e-07 0
0.0044058 -9.06215e-07 0
0.00441308 -7.89344e-07 -5.02479e-23
0.00441308 -7.89344e-07 -5.02479e-23
0.00442016 -6.95091e-07 -5.04724e-23
0.00442016 -6.95091e-07 -5.04724e-23
0.00442708 -6.15238e-07 0
0.00442708 -6.15238e-07 0
0.00443384 -5.44036e-07 -4.86505e-23
0.00443384 -5.44036e-07 -4.86505e-23
0.00444046 -4.78463e-07 -4.88721e-23
0.00444046 -4.78463e-07 -4.88721e-23
0.00444695 -4.1716e-07 0
0.00444695 -4.1716e-07 0
0.00445331 -3.59562e-07 4.70824e-23
0.00445331 -3.59562e-07 4.70824e-23
0.00445957 -3.05405e-07 9.38669e-23
0.00445957 -3.05405e-07 9.38669e-23
0.00446573 -2.54519e-07 4.67835e-23
0.00446573 -2.54519e-07 4.67835e-23
0.00447179 -2.0675e-07 -4.55427e-23
0.00447179 -2.0675e-07 -4.55427e-23
0.00447777 -1.61958e-07 -4.57581e-23
0.00447777 -1.61958e-07 -4.57581e-23
0.00448367 -1.19999e-07 4.45317e-23
0.00448367 -1.19999e-07 4.45317e-23
0.0044895 -8.07346e-08 4.47448e-23
0.0044895 -8.07346e-08 4.47448e-23
0.00449527 -4.402e-08 4.35328e-23
0.00449527 -4.402e-08 4.35328e-23
0.00450099 -9.71318e-09 8.67813e-23
0.00450099 -9.71318e-09 8.67813e-23
0.00450665 2.23227e-08 4.32474e-23
0.00450665 2.23227e-08 4.32474e-23
0.00451227 5.22285e-08 0
0.00451227 5.22285e-08 0
0.00451786 8.01183e-08 0
0.00451786 8.01183e-08 0
0.00452341 1.06107e-07 0
0.00452341 1.06107e-07 0
0.00452893 1.30318e-07 0
0.00452893 1.30318e-07 0
0.00453444 1.52898e-07 0
0.00453444 1.52898e-07 0
0.00453993 1.73987e-07 0
0.00453993 1.73987e-07 0
0.0045454 1.93682e-07 3.91803e-23
0.0045454 1.93682e-07 3.91803e-23
0.00455087 2.12044e-07 6.69338e-25
0.00455087 2.12044e-07 6.69338e-25
0.00455633 2.29123e-07 -3.89086e-23
0.00455633 2.29123e-07 -3.89086e-23
0.00456179 2.45003e-07 0
0.00456179 2.45003e-07 0
0.00456726 2.59782e-07 0
0.00456726 2.59782e-07 0
0.00457274 2.73554e-07 0
0.00457274 2.73554e-07 0
0.00457822 2.86393e-07 -7.28006e-23
0.00457822 2.86393e-07 -7.28006e-23
0.00458372 2.9836e-07 -7.3183e-23
0.00458372 2.9836e-07 -7.3183e-23
0.00458923 3.09513e-07 7.09877e-23
0.00458923 3.09513e-07 7.09877e-23
0.00459477 3.19912e-07 1.2758e-24
0.00459477 3.19912e-07 1.2758e-24
0.00460032 3.29615e-07 -7.04622e-23
0.00460032 3.29615e-07 -7.04622e-23
0.00460591 3.38683e-07 0
0.00460591 3.38683e-07 0
0.00461151 3.47163e-07 0
0.00461151 3.47163e-07 0
0.00461715 3.55115e-07 6.65389e-23
0.00461715 3.55115e-07 6.65389e-23
0.00462282 3.62582e-07 1.32563e-22
0.00462282 3.62582e-07 1.32563e-22
0.00462852 3.69591e-07 6.60214e-23
0.00462852 3.69591e-07 6.60214e-23
0.00463426 3.76174e-07 6.39243e-23
0.00463426 3.76174e-07 6.39243e-23
0.00464004 3.82372e-07 1.27338e-22
0.00464004 3.82372e-07 1.27338e-22
0.00464586 3.88265e-07 1.20753e-24
0.00464586 3.88265e-07 1.20753e-24
0.00465171 3.93939e-07 -6.25487e-23
0.00465171 3.93939e-07 -6.25487e-23
0.00465761 3.99461e-07 0
0.00465761 3.99461e-07 0
0.00466356 4.04873e-07 -5.96523e-23
0.00466356 4.04873e-07 -5.96523e-23
0.00466955 4.10221e-07 -5.99882e-23
0.00466955 4.10221e-07 -5.99882e-23
0.00467558 4.15571e-07 0
0.00467558 4.15571e-07 0
0.00468166 4.21003e-07 0
0.00468166 4.21003e-07 0
0.00468779 4.26604e-07 0
0.00468779 4.26604e-07 0
0.00469397 4.32468e-07 5.548e-23
0.00469397 4.32468e-07 5.548e-23
0.00470019 4.38709e-07 1.10456e-22
0.00470019 4.38709e-07 1.10456e-22
0.00470645 4.45466e-07 5.49723e-23
0.00470645 4.45466e-07 5.49723e-23
0.00471277 4.52915e-07 5.3021e-23
0.00471277 4.52915e-07 5.3021e-23
0.00471912 4.61272e-07 5.33295e-23
0.00471912 4.61272e-07 5.33295e-23
0.00472552 4.7081e-07 0
0.00472552 4.7081e-07 0
0.00473195 4.81875e-07 5.0593e-23
0.00473195 4.81875e-07 5.0593e-23
0.00473841 4.94901e-07 5.08908e-23
0.00473841 4.94901e-07 5.08908e-23
0.00474489 5.10443e-07 4.89908e-23
0.00474489 5.10443e-07 4.89908e-23
0.00475138 5.29204e-07 4.92813e-23
0.00475138 5.29204e-07 4.92813e-23
0.00475788 5.5209e-07 0
0.00475788 5.5209e-07 0
0.00476435 5.80268e-07 4.66108e-23
0.00476435 5.80268e-07 4.66108e-23
0.00477079 6.1525e-07 4.68903e-23
0.00477079 6.1525e-07 4.68903e-23
0.00477716 6.59008e-07 4.50392e-23
0.00477716 6.59008e-07 4.50392e-23
0.00478342 7.1413e-07 4.5311e-23