/*--------------------------------*- C++ -*----------------------------------*\
  =========                 |
  \\      /  F ield         | OpenFOAM: The Open Source CFD Toolbox
   \\    /   O peration     | Website:  https://openfoam.org
    \\  /    A nd           | Version:  7
     \\/     M anipulation  |
\*---------------------------------------------------------------------------*/
FoamFile
{
    version     2.0;
    format      ascii;
    class       volScalarField;
    location    "23";
    object      p;
}
// * * * * * * * * * * * * * * * * * * * * * * * * * * * * * * * * * * * * * //

dimensions      [0 2 -2 0 0 0 0];

internalField   nonuniform List<scalar> 
918
(
3.86714
17.0822
0.189609
3.79292
0.154805
16.1752
1.06855
2.62238
3.33169
0.545784
0.535532
2.72636
12.1851
6.34223
1.49609
0.152971
2.66849
0.484456
3.23039
0.299575
2.08312
3.49623
3.62174
3.35204
2.6823
3.37367
8.90054
0.28122
0.0282989
0.106092
0.136706
0.0773977
-0.00200214
13.5637
14.6983
15.1515
2.87387
1.18022
1.19087
1.26461
0.975674
0.863269
2.62931
2.64267
1.69864
2.61692
2.61093
3.01487
3.31584
3.33306
3.37717
3.34207
3.38867
1.32977
0.525295
0.499688
0.543751
0.551728
0.576571
0.540739
0.522485
0.51573
0.49256
2.67528
2.73693
2.74445
2.70997
2.70097
15.3533
14.4197
15.0497
12.997
13.3498
11.3789
10.6035
6.87379
7.34453
5.85377
5.2875
1.03231
0.737924
1.84308
2.2642
0.0259021
0.183342
0.213736
2.67019
2.67481
2.67172
2.67216
1.94058
0.520412
0.544791
3.15614
3.10448
3.49118
3.54197
3.42371
3.44269
0.330475
0.329662
0.26844
0.26095
0.209876
2.40678
2.51442
3.30359
3.21624
2.69233
2.68024
2.68617
2.38996
2.65853
2.66556
4.5146
4.85464
3.9609
4.43374
8.28896
7.64608
9.65739
10.3452
0.0919028
0.0380089
0.10364
0.0283841
0.0681069
2.85728
2.83215
2.88405
2.89543
2.92516
0.96173
0.703011
1.32322
1.43208
1.36164
1.43469
0.60521
0.773197
0.680605
1.93137
2.64682
2.65301
1.52064
1.65019
1.58114
1.76673
1.81881
2.94133
2.99125
2.96152
3.14236
3.04718
3.09008
3.40763
3.33915
3.37903
1.42321
1.49771
1.24637
1.16304
0.476973
0.486851
0.484888
0.557255
0.556297
0.631019
0.673552
0.513649
0.481179
0.545633
0.530922
0.53775
0.463454
0.437871
2.64213
2.61576
2.70638
2.72866
2.81663
2.79795
2.7593
2.78153
9.42274
9.94873
10.0887
9.46201
-0.401482
-1.27063
2.61111
2.9236
0.0659921
0.0492101
0.0245893
0.0464454
0.0704641
0.0191628
0.368892
0.333878
0.250429
0.307284
2.67228
2.66791
1.99552
2.05171
1.90406
1.84276
2.9729
2.99112
3.06193
3.01772
0.42027
0.362053
0.390252
2.59316
2.55079
2.57892
2.32505
2.25828
2.44511
2.47813
2.66638
2.67012
2.6694
4.88029
5.25709
10.647
11.0666
11.1363
11.6993
13.3364
13.0804
12.0782
2.7549
2.80679
2.78564
2.95102
2.90355
2.93182
2.83137
2.86909
2.85107
0.486779
0.30875
1.72623
1.66089
1.50175
1.5801
1.95312
1.97981
2.66737
2.65778
2.6633
1.88659
1.94821
1.06476
0.982827
2.51366
2.5934
2.55518
8.77988
7.86856
8.92435
8.36362
7.69496
8.17605
0.000843823
-0.768211
-0.32105
4.08156
3.28664
3.70891
0.449336
0.37858
0.406726
2.0783
2.0641
1.58925
1.75311
1.66944
5.62838
6.12077
7.05598
5.84487
6.46497
7.05735
6.75802
1.88771
1.79704
1.8415
2.05966
2.08139
2.18238
2.02023
2.0914
0.740135
0.905648
0.830444
2.07608
2.07506
2.06987
3.26122
3.32476
0.179633
0.263588
3.37359
3.35108
-0.00280878
0.0192506
3.29327
1.29297
1.8734
3.08069
3.01615
3.30033
0.593689
1.36732
0.55403
0.677361
0.521879
2.75038
2.71646
2.60655
0.0934963
0.219854
0.358161
0.623409
3.22748
3.14972
3.28497
3.32233
3.32759
0.139342
0.191488
0.124717
0.291878
0.229986
0.275876
2.87862
2.88586
1.26047
3.28488
3.32131
3.32372
3.13473
3.25226
3.14117
0.163633
0.0926107
0.107537
2.21774
2.45991
3.14913
2.69691
3.09675
3.06488
2.7874
4.01584
3.53176
3.56967
4.00301
2.64656
2.61938
1.91937
1.75378
1.97012
1.94132
3.06424
3.02011
2.99426
2.96777
3.18904
3.13135
3.23449
3.15724
3.21149
3.24997
0.579
0.58255
0.584164
0.511094
1.3675
1.51023
1.20924
1.24208
0.900589
0.503895
0.509001
0.521789
0.496153
0.588812
0.516172
0.587344
0.499398
0.459067
0.434966
0.577309
0.51955
0.512603
2.75256
2.74521
2.71512
2.71936
2.73317
2.74773
2.63198
2.67747
2.63669
2.49498
2.56062
2.50792
0.138816
0.126087
0.103154
0.228961
0.246652
0.221913
0.175307
0.263802
0.242494
0.182836
0.320941
0.315228
0.719467
0.659054
2.05033
1.8733
1.4817
3.04007
3.12551
3.03586
3.18006
3.23222
3.24569
3.19798
3.13521
2.90019
2.90057
2.85186
2.84704
1.27422
1.07064
1.39962
1.39597
1.34871
2.67254
2.42322
2.30244
2.34117
2.59722
3.15184
2.30037
2.1563
2.15946
1.6304
2.50376
1.89142
2.3999
2.26057
4.87398
5.27658
4.87088
4.37297
4.45674
0.512666
2.56878
1.60266
1.58474
1.83801
1.75462
2.53984
2.64502
2.64541
2.58782
2.60251
2.62138
2.60773
2.6264
2.62747
2.61968
2.4361
2.21695
2.08882
2.0968
2.66828
2.47479
2.53787
2.4692
2.9457
3.00917
2.96573
2.89442
2.94714
2.89041
2.88246
2.91341
3.08006
3.04633
3.02121
3.06822
0.582534
0.562969
0.695897
0.671846
0.615622
0.571416
0.690051
0.993631
0.915707
1.4626
1.53348
0.938912
0.767417
0.755029
0.957278
1.14881
1.1486
0.834286
0.962021
1.03836
0.946082
1.14736
1.04504
0.529784
0.58147
0.545551
0.539343
0.687319
0.808332
0.704957
0.489363
0.508583
0.469279
0.448861
0.699556
0.571951
0.586603
0.734713
0.203128
0.228922
0.26245
0.486329
0.351064
0.394674
2.82595
2.78029
2.79868
2.70059
2.71136
2.70231
2.65461
2.83848
2.80246
2.81943
2.6499
2.66351
2.63535
2.67072
2.7194
2.75441
2.86199
2.82974
2.73309
2.75316
2.70993
2.70041
2.61411
2.55411
2.54406
0.193523
0.148307
0.18284
0.153772
0.106911
0.135015
0.412112
0.290798
0.35878
0.321851
0.369116
0.303895
0.266976
0.903822
1.02317
1.04829
0.845295
0.848589
2.02684
2.03064
1.88559
1.7654
1.83032
1.93164
1.94614
1.62029
1.75201
1.70277
1.93495
2.07408
3.12667
3.11918
3.08356
3.06223
3.08865
1.4029
1.65244
1.70199
1.82366
1.27655
1.45142
1.80863
1.68161
1.8951
1.47208
2.66931
2.67781
2.62234
2.66963
2.67407
2.41719
2.52546
2.59897
2.57237
2.64035
2.65153
2.55218
2.61143
2.59727
2.51993
2.52239
2.45525
2.49024
2.43533
2.41414
2.68655
2.67337
2.70604
2.6499
2.69198
2.63339
2.66999
2.6803
2.70046
2.60343
2.53336
2.53607
2.58343
2.55454
2.59537
2.61413
1.82321
1.89184
1.39796
1.04943
1.16745
0.602564
0.543492
0.882137
1.34977
0.725576
0.450022
-0.165965
2.49568
3.04573
2.62316
2.54144
2.57984
2.60196
2.58864
2.55336
2.56191
2.64843
2.65753
2.66374
2.56984
2.57351
2.59175
2.57448
2.50296
2.25809
2.24337
2.16534
1.90765
1.96111
2.33043
2.20446
2.07272
2.07843
2.44687
2.29189
2.38735
2.42324
2.27839
2.23317
2.54095
2.62764
2.65429
2.6239
2.43217
2.45094
2.49559
2.54582
2.57083
2.61732
2.9197
2.98629
2.99781
2.96514
2.94503
2.95708
2.92423
2.93849
2.99769
3.01384
2.99354
0.539411
0.563435
0.550147
0.530711
0.589731
0.572326
0.793728
0.755902
0.613484
0.656498
0.621121
0.642526
0.562645
0.571396
1.00706
1.06959
1.12709
1.01075
1.30776
1.53715
1.64527
1.53645
1.20309
1.22708
1.3494
0.70574
0.708249
0.658138
0.742738
0.76173
0.516207
0.460377
0.415112
0.49724
0.51765
0.413914
0.381339
0.401228
0.480031
0.441725
0.395524
2.80766
2.77975
2.77726
2.74999
2.75839
2.80554
2.83292
2.80694
2.825
2.83048
2.77995
2.76483
2.78663
0.356073
0.30107
0.331365
0.344618
0.329425
0.328552
0.356857
1.48565
1.25797
1.36547
1.20852
0.953804
1.01194
1.63727
1.86579
1.79732
2.02812
1.98004
1.97105
1.8854
1.91758
1.67809
1.92468
1.78323
2.05345
2.00181
2.04613
1.94811
1.97227
2.26041
2.3561
1.96347
2.06655
2.14456
1.90498
1.95399
2.03195
2.25014
1.33706
1.51443
1.74002
1.78894
1.46406
1.68798
1.43361
1.52651
1.6185
1.69863
1.73124
2.65572
2.6519
2.66525
2.66059
2.67773
2.66523
2.64976
2.6751
2.68363
2.66015
0.580488
0.971653
0.15217
1.15898
1.51906
2.62561
2.45179
2.84648
2.73526
2.6526
2.62965
2.61695
2.57419
2.63566
2.61306
2.20456
2.37033
2.31973
2.34288
2.20545
2.11452
2.56322
2.57098
2.57672
2.60905
2.60705
2.66614
2.91258
2.8956
2.90219
2.90941
2.85739
2.86203
0.857846
0.77183
0.925691
0.918046
0.807991
0.744457
0.47084
0.400806
0.368206
0.338717
0.379839
0.37701
1.53625
1.53222
1.26796
1.44406
1.32046
1.10336
1.14981
1.21742
1.37688
1.47308
1.76167
2.04707
1.89673
1.93997
1.70698
1.80095
1.74452
1.60002
1.63741
1.81032
1.79206
2.01667
1.19215
1.51551
2.92273
2.91095
2.66893
2.39092
2.10835
2.38422
2.50901
2.39034
2.46112
2.56297
2.53399
1.44725
1.3619
2.161
2.5008
1.77018
1.64389
1.68538
1.99375
1.99618
)
;

boundaryField
{
    wall-4
    {
        type            zeroGradient;
    }
    velocity-inlet-5
    {
        type            zeroGradient;
    }
    velocity-inlet-6
    {
        type            zeroGradient;
    }
    pressure-outlet-7
    {
        type            fixedValue;
        value           uniform 0;
    }
    wall-8
    {
        type            zeroGradient;
    }
    frontAndBackPlanes
    {
        type            empty;
    }
}


// ************************************************************************* //
