/*--------------------------------*- C++ -*----------------------------------*\
  =========                 |
  \\      /  F ield         | OpenFOAM: The Open Source CFD Toolbox
   \\    /   O peration     | Website:  https://openfoam.org
    \\  /    A nd           | Version:  7
     \\/     M anipulation  |
\*---------------------------------------------------------------------------*/
FoamFile
{
    version     2.0;
    format      ascii;
    class       surfaceScalarField;
    location    "23";
    object      phi;
}
// * * * * * * * * * * * * * * * * * * * * * * * * * * * * * * * * * * * * * //

dimensions      [0 3 -1 0 0 0 0];

internalField   nonuniform List<scalar> 
1300
(
3.75095
5.62643
-2.59548
3.75095
-2.71946
5.62643
-2.04414
2.04414
-0.452544
0.452544
1.90725
1.8437
-1.24451
1.24451
-1.53397
1.53397
-0.965563
0.965563
-3.87943
3.87943
-3.16242
3.16242
2.06164
-2.06164
-1.79938
1.79938
-0.538104
0.538104
-1.60501
1.60501
1.94991
-1.94991
-1.88805
1.88805
-0.744884
0.744884
-1.50151
5.25246
2.24944
2.24944
-0.829546
0.829546
-3.57192
3.57192
4.63403
-4.63403
5.35922
-5.35922
-2.76374
-3.32147
1.08326
-7.55838
-1.6362
-1.6362
-8.391
8.391
-2.76457
2.86186
1.12811
-1.12811
-0.376099
0.376099
-1.89239
-0.151748
-1.89239
2.1092
-0.0650617
2.1092
-0.492318
0.0397743
-0.492318
1.56755
-1.56755
0.43182
0.0207242
0.43182
1.25364
-1.25364
-1.90761
3.81486
1.84335
-1.75655
7.00902
-1.9944
3.83811
-2.35024
2.35024
-1.25097
0.00646712
-1.25097
1.23597
0.00854157
1.23597
-2.20302
2.20302
-1.36782
-0.166146
-1.36782
1.63789
-0.10392
1.63789
1.18191
-1.18191
-0.976833
0.0112695
-0.976833
0.925295
0.0402686
0.925295
1.36026
4.26617
-6.98669
9.84855
-4.26616
0.386739
3.48672
0.392709
3.48672
-3.14855
-0.0138767
-3.14855
3.25839
-0.0959666
3.25839
1.83536
0.226279
1.83536
-2.37292
0.311276
-2.37292
-4.56254
-4.60475
-1.86016
0.0607784
-1.86016
-0.538525
0.000420806
-0.538525
0.549103
-0.0109994
0.549103
-1.55556
1.55556
-1.80161
0.196603
-1.80161
1.5177
0.432206
1.5177
1.64937
2.10158
5.40032
-5.40032
3.45042
-1.74315
-0.144898
-1.74315
-2.00036
-3.35886
2.00036
-0.112314
-0.498936
-0.245948
-0.498936
1.77731
0.472132
1.77731
0.893236
0.0320587
-0.893236
0.0636898
1.47361
-1.47361
0.50574
0.323807
0.50574
-3.51862
3.51862
3.38003
-0.121634
-3.38003
-0.191899
4.42922
0.204812
4.42922
-4.7844
0.150366
-4.7844
4.03489
-7.35636
-4.19396
1.70443
0.094952
-1.70443
0.0682288
1.15673
-0.0286188
1.15673
-1.07994
1.07994
-1.1679
0.0397955
-1.1679
-0.323801
-0.0522982
-0.323801
0.440434
-0.0643343
0.440434
-1.80302
-0.08937
-1.80302
-2.03338
0.231767
2.03338
0.075819
0.636423
-0.636423
-0.525094
0.0327756
-0.525094
-1.66525
-0.137767
1.66525
-0.0977067
-1.55281
-0.014739
-1.55281
-1.19567
0.0277621
1.19567
0.0579772
1.4507
0.326606
-1.4507
0.197062
-1.77251
3.87409
-1.97845
3.82179
-2.15969
-0.190546
-2.15969
2.45497
-0.104738
2.45497
1.41543
0.189582
-1.41543
0.164454
1.28782
-0.051855
1.28782
-2.24866
0.0456383
-2.24866
2.06747
0.135553
2.06747
1.31523
-0.027414
-1.31523
-0.0525858
1.67213
-0.0342473
1.67213
1.18522
-0.00331705
1.18522
-1.14679
-0.0351139
-1.14679
1.04928
-1.04928
1.02363
0.0256579
-1.02363
0.0467928
-14.4245
14.5749
-0.189905
-14.2346
3.29681
3.29681
1.09233
0.743037
1.09233
-2.67761
0.304693
-2.67761
4.47589
-8.66984
4.57942
-9.14197
3.85902
-11.4174
4.3276
-8.93235
2.00435
-2.00435
1.96633
0.038021
-1.96633
0.106165
-0.525628
-0.0128966
-0.525628
-1.38883
-0.166734
-1.38883
1.7907
-0.235136
1.7907
-1.20334
1.20334
-1.31321
0.109876
1.31321
0.204488
1.72228
-0.0501464
-1.72228
-0.0208725
0.425021
0.00679936
-0.42502
-0.0739158
1.5469
-0.0732847
1.5469
-1.31024
-0.163375
-1.31024
-0.522435
-0.00319359
0.522435
-0.0166952
-3.84959
0.330973
-3.84959
-14.1269
-0.107674
-13.7342
-4.89207
-4.89207
3.49894
13.3475
-1.1605
0.0137045
1.1605
-0.00376944
1.14302
0.0603179
-1.14302
0.0630755
-1.06998
0.0206973
1.06998
0.0099618
-0.377834
0.0540328
-0.377834
-0.511011
0.511011
-0.459534
-0.0514774
0.459534
-0.0191001
0.692262
-0.0558399
0.692262
0.541976
0.00712729
-0.541976
0.0168823
-1.59643
0.0436254
-1.59643
2.43343
0.0215425
2.43343
-1.26713
-0.0431097
1.26713
-0.0819028
-0.10088
14.6758
-3.19593
0.0473841
3.19593
-14.8806
14.928
-0.545316
0.167482
0.545316
0.547011
3.11736
0.401258
-3.11736
0.439749
2.03307
0.0343984
-2.03307
0.0287242
-1.14949
-0.239338
-1.14949
-1.96255
-0.197143
1.96255
-0.171851
-15.0746
-0.323175
15.3977
-15.1705
4.17277
0.256449
-4.17277
15.1844
-0.592842
-0.0435801
0.592842
-0.0818314
0.878491
-0.186229
0.878491
1.62191
-0.0750178
-1.62191
0.0254797
-2.39
0.141341
2.39
0.0434287
-0.991299
-0.15819
0.991299
-0.112808
-4.3704
4.84253
2.63862
-3.52854
-3.82782
-6.8874
1.42503
2.44906
4.87545
-6.22069
-5.19671
-6.15246
8.83939
-8.39964
-9.19931
9.42559
7.66585
-7.68059
-6.1001
6.30458
6.85221
-6.79423
1.90633
1.90852
8.05434
-8.04788
-12.4345
12.2439
8.20423
-8.37038
12.3191
-12.2735
-13.9289
13.9633
-5.39018
5.40145
-6.66866
6.63354
-6.90277
6.82087
-4.48343
-4.65854
8.66591
-8.60513
11.3703
-11.5152
-9.29959
9.49619
3.33451
1.50802
3.66111
-2.11306
4.0194
-1.72504
4.36366
4.41922
-8.90264
4.25063
-8.07845
5.26113
6.10913
-5.14882
-1.73858
-5.91425
5.88563
-5.69379
5.70376
9.15561
-9.30736
-2.09005
3.99857
-1.73174
4.1808
-3.77041
-2.32969
3.3382
1.53724
4.72535
3.94056
-4.82031
-1.33216
-8.08794
8.01292
-8.40355
8.24018
0.059762
7.35703
-7.41679
3.63169
-2.51739
9.87442
6.322
6.6267
7.40229
-7.00104
0.997347
-8.41414
-8.60604
-1.92758
1.96035
1.90109
-1.88036
5.52261
2.14324
5.4249
-5.40516
-2.27543
-5.36153
3.72874
2.57584
3.83862
3.95304
2.89917
3.9808
3.50889
-3.50031
-0.00858699
-3.88663
7.39552
0.498267
-6.21631
-4.67907
4.55496
3.49938
4.5635
-5.05572
-2.99216
-4.89126
-6.69496
-5.73953
-6.8921
7.38001
4.86394
7.27527
-8.81743
8.86086
5.08821
3.11602
4.98429
-4.71381
-3.65657
-4.7664
14.6118
-3.23791
-11.3739
-7.30995
-6.61892
7.1744
5.14473
7.69654
6.26673
7.72526
4.578
10.0338
-9.72273
3.10382
-3.29907
-2.09111
-3.25227
3.12004
2.28141
3.16031
-3.85154
-2.81711
-3.83784
-3.91486
-2.9879
3.91818
2.71536
-4.08645
-4.31711
4.12956
2.69131
4.03469
-9.2314
4.89766
-9.55619
-5.78496
-2.82017
-5.67879
5.70971
3.53105
-9.24076
-3.19293
13.01
-6.90084
11.2714
-6.2076
-5.30755
-6.22847
-6.96289
-2.3367
-6.73112
-5.14577
4.90643
-5.5408
5.30567
15.4371
-8.39594
-7.04114
-4.05545
-2.73878
3.85839
-0.197273
-4.35046
4.34187
-0.331059
4.0326
5.54062
5.34335
-3.55404
-2.13975
-3.49097
3.38124
2.32252
3.40194
6.83794
2.31767
6.77288
-6.04241
-3.26494
-6.13178
4.79367
-4.84597
2.00575
-2.00894
5.07194
3.16824
-4.99865
-3.08928
7.73764
-3.60598
-4.13166
-13.9782
11.3141
2.6641
-4.10378
-0.47209
0.272794
-5.73121
-3.4681
5.41993
1.20677
12.5209
9.05276
-7.13919
7.47016
8.25855
8.13691
-0.469125
3.22006
-3.05257
5.76588
-3.13154
-2.63433
4.71546
-4.85323
-1.41632
-6.36773
4.95141
0.571673
1.22102
-1.46696
-1.41923
-0.508346
-1.40235
1.17742
0.723664
1.18422
0.727417
1.23294
-2.86476
0.607652
2.25711
-2.13735
-1.27271
-4.37162
-1.9271
6.29873
5.41879
2.59412
-5.44427
0.0827435
1.88849
-1.89949
-0.488642
-3.88298
2.88909
-3.37773
-5.05486
-2.13984
7.1947
-3.1247
-0.366269
3.06438
0.774241
-3.54839
-2.36586
3.50859
0.47221
-4.04533
8.09532
-4.04998
-6.18509
2.87801
4.51751
5.45385
-6.06698
3.16341
2.90357
-1.54948
3.83274
0.730758
3.78089
-9.64582
6.65366
5.66859
3.8276
-5.85817
0.966912
-8.67891
13.1603
-11.337
-1.82334
6.82103
6.33928
7.78424
7.65284
-5.09508
12.8793
-1.44111
-9.89587
10.12
-6.29241
7.4912
-13.7836
-15.144
5.24817
-10.1613
12.0641
-1.90286
-2.82659
-5.99085
12.9879
-1.30597
-11.6819
5.9693
-7.57253
-6.06863
13.6412
-10.8104
9.72519
-3.43698
-6.28822
-7.2198
-5.05369
7.07846
1.7824
-13.439
16.5428
-3.40514
4.38132
0.602974
4.34707
5.81072
-8.39181
2.58109
4.99972
-8.43669
3.78099
-12.1728
-6.35789
12.6481
-6.29025
-9.17807
-8.35379
-0.824276
2.38777
14.155
-8.6545
6.2693
2.3852
2.79939
0.602544
-2.82505
-0.427223
0.361398
5.43258
-5.79398
3.52171
3.55377
4.01581
1.41677
3.52739
2.35825
-3.52362
-0.314219
-4.91165
1.92375
-2.19629
-4.84606
6.76981
-5.45756
0.611498
-3.42631
-4.745
8.17132
-5.51742
3.86589
4.22943
6.18841
-6.61078
1.86577
-3.31068
-3.30009
3.59179
-5.78808
2.48433
4.28548
5.17564
0.858529
6.67227
5.97587
-10.2033
0.647129
9.91643
-8.58427
2.15263
5.57263
-8.42193
0.0681446
-5.61065
1.37408
-8.27492
-7.86669
7.13797
-9.47467
-6.64564
6.14201
0.630871
-6.21783
-0.513293
-3.10258
-2.04319
-3.26077
-2.06519
-3.47561
-7.16027
-1.26408
-5.89619
3.64235
-4.12678
-2.76532
4.29863
1.00703
-3.31262
3.26904
-3.65265
3.46642
-0.0760916
4.41796
5.26726
2.52847
-2.86848
5.39696
-6.56349
8.88116
-10.9206
4.35707
4.81514
-8.08009
-6.10542
2.22856
2.5651
2.16423
9.49582
-12.3911
2.89523
-10.4306
11.7409
-1.31032
-15.1066
4.67597
-5.61076
1.83673
0.169017
1.82384
0.518881
2.32546
-2.84434
-1.49006
-1.50676
-3.01527
-4.58066
7.59593
1.61558
-4.36771
2.75213
-4.12591
5.74148
0.0772524
-4.44496
5.80053
-3.47507
5.96955
-4.04865
1.92089
4.26257
7.46022
-3.19766
5.36786
-2.19962
2.30209
-5.49974
-2.27857
-3.82656
6.10797
-4.34475
4.95625
-0.31399
5.27024
-4.66278
1.0568
-0.646966
2.9068
2.97049
5.61494
-4.19818
4.01646
-6.21608
-1.48328
-5.35755
-1.07206
-2.44623
-6.03952
8.48576
7.49033
-9.93656
-5.1447
9.24719
-4.10249
6.71657
-5.14233
-1.57424
-1.92096
-2.92501
1.86692
1.35313
8.0697
-0.222978
-4.91936
-3.27555
-2.72854
3.69639
2.06949
-2.20523
4.86934
1.93244
-0.711423
0.213688
0.970533
1.70559
-1.4919
0.570348
1.13524
-0.896617
1.37509
0.5134
-1.38221
-0.0201335
-1.05894
3.94803
1.19817
-1.92184
0.429935
1.12015
-4.25169
6.14921
-3.34358
-2.80563
7.26936
1.27168
-4.61526
5.09606
-4.52438
2.72308
-4.65018
-1.89218
-6.41656
-4.27333
-3.56709
6.31922
-4.02884
6.62296
1.26436
-6.70571
7.97006
-4.32187
2.18203
-3.26528
3.77868
-1.41962
-1.84566
3.74619
3.44851
-3.66335
-0.219637
0.082844
2.87993
-2.79708
-0.497801
-2.63515
-5.49096
5.96317
-2.80517
5.96858
2.59179
-2.58031
8.54889
2.22838
-4.80869
-3.95671
-4.32298
-1.90512
3.54873
-1.00283
-3.76356
-7.29105
3.79098
-0.0100911
-9.54261
11.2261
-1.68347
-6.04323
-0.61043
7.43146
-9.48811
1.05141
-5.70712
5.51897
6.24973
6.23964
-11.7367
0.0547962
-6.87274
1.93359
-8.80634
8.27288
-4.16654
9.41471
-9.71982
6.9545
-8.71279
7.59137
-1.21497
7.82322
-5.24213
3.55071
-8.60439
-6.82199
7.75762
-4.6416
8.36059
-5.59441
13.955
-8.99956
8.01802
5.93698
-1.60816
-4.62031
-7.69463
6.08647
0.32339
4.67046
5.93766
-3.57941
5.62344
2.98175
-6.29244
-2.80633
-8.74623
2.45379
-4.5168
-2.46046
4.91425
3.72795
4.33049
1.61416
-3.90327
9.45897
-10.2832
-3.16873
-4.69796
8.05305
-1.96657
5.52942
-10.2274
-2.74549
7.86851
-1.08978
-6.77873
0.527434
-7.17307
2.94595
-10.119
6.52872
-7.04202
1.14288
-6.75364
-2.16974
-2.25157
-1.50025
-2.1524
-5.73677
4.23652
-1.0608
2.20824
-8.57494
7.48516
-3.166
7.40252
-2.54492
-0.715847
2.65773
0.808694
8.21121
-0.2756
-5.82982
-2.00726
6.06553
-4.05827
1.68913
-6.31512
-0.249591
3.00552
4.26385
-7.95693
-0.12316
-5.95298
-3.30633
5.87143
5.94086
13.4312
1.04013
6.39172
-0.520284
7.43185
1.64395
1.62485
-5.32129
8.21652
3.16447
7.52154
-0.643168
2.56406
1.18067
1.18109
0.718396
1.9575
1.01299
3.0143
0.169959
-1.3368
4.81174
-7.54028
-0.107618
-6.79724
2.62834
6.72358
-4.09524
4.72007
-2.65058
0.6618
-0.118671
-1.29018
1.40885
-2.75301
-2.0016
-0.866359
-1.97193
2.40187
1.97609
-1.53551
-1.2175
0.708217
-4.98154
3.94196
-4.1616
-0.71309
7.25697
-3.25758
0.460499
-1.07555
-2.17465
-2.68299
2.70313
8.20421
0.344679
4.15423
6.30785
3.94198
0.362568
6.69228
-8.59514
-5.48052
-8.54034
-0.267461
7.164
3.23891
10.9161
9.17589
7.20932
-3.01807
-13.3013
10.8014
-2.58486
9.49106
-2.71234
-7.40669
6.1414
2.73976
-6.77227
-0.269746
-7.67643
-10.2613
-0.604224
8.08938
-7.60699
6.89114
4.84795
1.04824
-1.69545
-0.55613
1.74692
-0.122076
7.30977
-2.16939
-8.58512
10.7545
-4.55419
4.44657
2.43949
2.42984
3.84834
1.19776
-7.38736
-11.4826
-2.68448
-1.56721
-5.49011
0.808618
-2.78471
6.63665
-2.19008
5.06241
8.56443
9.22623
-3.40134
-6.53522
7.50384
-2.44143
6.78481
)
;

boundaryField
{
    wall-4
    {
        type            calculated;
        value           uniform 0;
    }
    velocity-inlet-5
    {
        type            calculated;
        value           uniform -3.75095;
    }
    velocity-inlet-6
    {
        type            calculated;
        value           uniform -5.62643;
    }
    pressure-outlet-7
    {
        type            calculated;
        value           nonuniform List<scalar> 8(2.59548 2.71946 6.08522 6.47512 9.16729 8.22884 9.05531 8.18662);
    }
    wall-8
    {
        type            calculated;
        value           uniform 0;
    }
    frontAndBackPlanes
    {
        type            empty;
        value           nonuniform 0();
    }
}


// ************************************************************************* //
