# vtk DataFile Version 2.0
sampleSurface
ASCII
DATASET POLYDATA
POINTS 502 double
-0.0206 0 -0.0005
-0.0190172 0 -0.0005
-0.0190172 0 0.0005
-0.0206 0 0.0005
-0.0174976 0 -0.0005
-0.0174976 0 0.0005
-0.0160387 0 -0.0005
-0.0160387 0 0.0005
-0.0146381 0 -0.0005
-0.0146381 0 0.0005
-0.0132934 0 -0.0005
-0.0132934 0 0.0005
-0.0120025 0 -0.0005
-0.0120025 0 0.0005
-0.0107632 0 -0.0005
-0.0107632 0 0.0005
-0.00957337 0 -0.0005
-0.00957337 0 0.0005
-0.00843108 0 -0.0005
-0.00843108 0 0.0005
-0.00733443 0 -0.0005
-0.00733443 0 0.0005
-0.0062816 0 -0.0005
-0.0062816 0 0.0005
-0.00527083 0 -0.0005
-0.00527083 0 0.0005
-0.00430044 0 -0.0005
-0.00430044 0 0.0005
-0.00336883 0 -0.0005
-0.00336883 0 0.0005
-0.00247443 0 -0.0005
-0.00247443 0 0.0005
-0.00161577 0 -0.0005
-0.00161577 0 0.0005
-0.000791418 0 -0.0005
-0.000791418 0 0.0005
0 0 -0.0005
0 0 0.0005
0 -0.0254 -0.0005
0 -0.0254 0.0005
0 -0.0242711 0.0005
0 -0.0242711 -0.0005
0 -0.0231422 0.0005
0 -0.0231422 -0.0005
0 -0.0220133 0.0005
0 -0.0220133 -0.0005
0 -0.0208844 0.0005
0 -0.0208844 -0.0005
0 -0.0197556 0.0005
0 -0.0197556 -0.0005
0 -0.0186267 0.0005
0 -0.0186267 -0.0005
0 -0.0174978 0.0005
0 -0.0174978 -0.0005
0 -0.0163689 0.0005
0 -0.0163689 -0.0005
0 -0.01524 0.0005
0 -0.01524 -0.0005
0 -0.0141111 0.0005
0 -0.0141111 -0.0005
0 -0.0129822 0.0005
0 -0.0129822 -0.0005
0 -0.0118533 0.0005
0 -0.0118533 -0.0005
0 -0.0107244 0.0005
0 -0.0107244 -0.0005
0 -0.00959556 0.0005
0 -0.00959556 -0.0005
0 -0.00846667 0.0005
0 -0.00846667 -0.0005
0 -0.00726604 0.0005
0 -0.00726604 -0.0005
0 -0.00618989 0.0005
0 -0.00618989 -0.0005
0 -0.00522531 0.0005
0 -0.00522531 -0.0005
0 -0.00436073 0.0005
0 -0.00436073 -0.0005
0 -0.00358579 0.0005
0 -0.00358579 -0.0005
0 -0.00289118 0.0005
0 -0.00289118 -0.0005
0 -0.0022686 0.0005
0 -0.0022686 -0.0005
0 -0.00171055 0.0005
0 -0.00171055 -0.0005
0 -0.00121037 0.0005
0 -0.00121037 -0.0005
0 -0.000762037 0.0005
0 -0.000762037 -0.0005
0 -0.000360188 0.0005
0 -0.000360188 -0.0005
0.000528387 -0.0254 -0.0005
0.000528387 -0.0254 0.0005
0.00106088 -0.0254 -0.0005
0.00106088 -0.0254 0.0005
0.00159752 -0.0254 -0.0005
0.00159752 -0.0254 0.0005
0.00213833 -0.0254 -0.0005
0.00213833 -0.0254 0.0005
0.00268334 -0.0254 -0.0005
0.00268334 -0.0254 0.0005
0.00323259 -0.0254 -0.0005
0.00323259 -0.0254 0.0005
0.00378611 -0.0254 -0.0005
0.00378611 -0.0254 0.0005
0.00434393 -0.0254 -0.0005
0.00434393 -0.0254 0.0005
0.00490609 -0.0254 -0.0005
0.00490609 -0.0254 0.0005
0.00547262 -0.0254 -0.0005
0.00547262 -0.0254 0.0005
0.00604356 -0.0254 -0.0005
0.00604356 -0.0254 0.0005
0.00661893 -0.0254 -0.0005
0.00661893 -0.0254 0.0005
0.00719878 -0.0254 -0.0005
0.00719878 -0.0254 0.0005
0.00778313 -0.0254 -0.0005
0.00778313 -0.0254 0.0005
0.00837203 -0.0254 -0.0005
0.00837203 -0.0254 0.0005
0.00896551 -0.0254 -0.0005
0.00896551 -0.0254 0.0005
0.0095636 -0.0254 -0.0005
0.0095636 -0.0254 0.0005
0.0101663 -0.0254 -0.0005
0.0101663 -0.0254 0.0005
0.0107738 -0.0254 -0.0005
0.0107738 -0.0254 0.0005
0.0113859 -0.0254 -0.0005
0.0113859 -0.0254 0.0005
0.0120028 -0.0254 -0.0005
0.0120028 -0.0254 0.0005
0.0126245 -0.0254 -0.0005
0.0126245 -0.0254 0.0005
0.0132511 -0.0254 -0.0005
0.0132511 -0.0254 0.0005
0.0138825 -0.0254 -0.0005
0.0138825 -0.0254 0.0005
0.0145188 -0.0254 -0.0005
0.0145188 -0.0254 0.0005
0.0151601 -0.0254 -0.0005
0.0151601 -0.0254 0.0005
0.0158063 -0.0254 -0.0005
0.0158063 -0.0254 0.0005
0.0164576 -0.0254 -0.0005
0.0164576 -0.0254 0.0005
0.0171139 -0.0254 -0.0005
0.0171139 -0.0254 0.0005
0.0177754 -0.0254 -0.0005
0.0177754 -0.0254 0.0005
0.018442 -0.0254 -0.0005
0.018442 -0.0254 0.0005
0.0191137 -0.0254 -0.0005
0.0191137 -0.0254 0.0005
0.0197907 -0.0254 -0.0005
0.0197907 -0.0254 0.0005
0.020473 -0.0254 -0.0005
0.020473 -0.0254 0.0005
0.0211606 -0.0254 -0.0005
0.0211606 -0.0254 0.0005
0.0218535 -0.0254 -0.0005
0.0218535 -0.0254 0.0005
0.0225517 -0.0254 -0.0005
0.0225517 -0.0254 0.0005
0.0232555 -0.0254 -0.0005
0.0232555 -0.0254 0.0005
0.0239647 -0.0254 -0.0005
0.0239647 -0.0254 0.0005
0.0246794 -0.0254 -0.0005
0.0246794 -0.0254 0.0005
0.0253996 -0.0254 -0.0005
0.0253996 -0.0254 0.0005
0.0261255 -0.0254 -0.0005
0.0261255 -0.0254 0.0005
0.026857 -0.0254 -0.0005
0.026857 -0.0254 0.0005
0.0275942 -0.0254 -0.0005
0.0275942 -0.0254 0.0005
0.0283371 -0.0254 -0.0005
0.0283371 -0.0254 0.0005
0.0290858 -0.0254 -0.0005
0.0290858 -0.0254 0.0005
0.0298403 -0.0254 -0.0005
0.0298403 -0.0254 0.0005
0.0306007 -0.0254 -0.0005
0.0306007 -0.0254 0.0005
0.031367 -0.0254 -0.0005
0.031367 -0.0254 0.0005
0.0321393 -0.0254 -0.0005
0.0321393 -0.0254 0.0005
0.0329175 -0.0254 -0.0005
0.0329175 -0.0254 0.0005
0.0337019 -0.0254 -0.0005
0.0337019 -0.0254 0.0005
0.0344923 -0.0254 -0.0005
0.0344923 -0.0254 0.0005
0.0352888 -0.0254 -0.0005
0.0352888 -0.0254 0.0005
0.0360916 -0.0254 -0.0005
0.0360916 -0.0254 0.0005
0.0369006 -0.0254 -0.0005
0.0369006 -0.0254 0.0005
0.0377158 -0.0254 -0.0005
0.0377158 -0.0254 0.0005
0.0385375 -0.0254 -0.0005
0.0385375 -0.0254 0.0005
0.0393655 -0.0254 -0.0005
0.0393655 -0.0254 0.0005
0.0401999 -0.0254 -0.0005
0.0401999 -0.0254 0.0005
0.0410408 -0.0254 -0.0005
0.0410408 -0.0254 0.0005
0.0418883 -0.0254 -0.0005
0.0418883 -0.0254 0.0005
0.0427424 -0.0254 -0.0005
0.0427424 -0.0254 0.0005
0.0436031 -0.0254 -0.0005
0.0436031 -0.0254 0.0005
0.0444704 -0.0254 -0.0005
0.0444704 -0.0254 0.0005
0.0453446 -0.0254 -0.0005
0.0453446 -0.0254 0.0005
0.0462255 -0.0254 -0.0005
0.0462255 -0.0254 0.0005
0.0471133 -0.0254 -0.0005
0.0471133 -0.0254 0.0005
0.048008 -0.0254 -0.0005
0.048008 -0.0254 0.0005
0.0489096 -0.0254 -0.0005
0.0489096 -0.0254 0.0005
0.0498183 -0.0254 -0.0005
0.0498183 -0.0254 0.0005
0.050734 -0.0254 -0.0005
0.050734 -0.0254 0.0005
0.0516568 -0.0254 -0.0005
0.0516568 -0.0254 0.0005
0.0525868 -0.0254 -0.0005
0.0525868 -0.0254 0.0005
0.053524 -0.0254 -0.0005
0.053524 -0.0254 0.0005
0.0544686 -0.0254 -0.0005
0.0544686 -0.0254 0.0005
0.0554204 -0.0254 -0.0005
0.0554204 -0.0254 0.0005
0.0563797 -0.0254 -0.0005
0.0563797 -0.0254 0.0005
0.0573464 -0.0254 -0.0005
0.0573464 -0.0254 0.0005
0.0583206 -0.0254 -0.0005
0.0583206 -0.0254 0.0005
0.0593025 -0.0254 -0.0005
0.0593025 -0.0254 0.0005
0.0602919 -0.0254 -0.0005
0.0602919 -0.0254 0.0005
0.0612891 -0.0254 -0.0005
0.0612891 -0.0254 0.0005
0.0622939 -0.0254 -0.0005
0.0622939 -0.0254 0.0005
0.0633067 -0.0254 -0.0005
0.0633067 -0.0254 0.0005
0.0643272 -0.0254 -0.0005
0.0643272 -0.0254 0.0005
0.0653557 -0.0254 -0.0005
0.0653557 -0.0254 0.0005
0.0663923 -0.0254 -0.0005
0.0663923 -0.0254 0.0005
0.0674368 -0.0254 -0.0005
0.0674368 -0.0254 0.0005
0.0684895 -0.0254 -0.0005
0.0684895 -0.0254 0.0005
0.0695504 -0.0254 -0.0005
0.0695504 -0.0254 0.0005
0.0706195 -0.0254 -0.0005
0.0706195 -0.0254 0.0005
0.0716969 -0.0254 -0.0005
0.0716969 -0.0254 0.0005
0.0727828 -0.0254 -0.0005
0.0727828 -0.0254 0.0005
0.073877 -0.0254 -0.0005
0.073877 -0.0254 0.0005
0.0749798 -0.0254 -0.0005
0.0749798 -0.0254 0.0005
0.0760911 -0.0254 -0.0005
0.0760911 -0.0254 0.0005
0.0772111 -0.0254 -0.0005
0.0772111 -0.0254 0.0005
0.0783398 -0.0254 -0.0005
0.0783398 -0.0254 0.0005
0.0794772 -0.0254 -0.0005
0.0794772 -0.0254 0.0005
0.0806235 -0.0254 -0.0005
0.0806235 -0.0254 0.0005
0.0817787 -0.0254 -0.0005
0.0817787 -0.0254 0.0005
0.0829429 -0.0254 -0.0005
0.0829429 -0.0254 0.0005
0.0841162 -0.0254 -0.0005
0.0841162 -0.0254 0.0005
0.0852985 -0.0254 -0.0005
0.0852985 -0.0254 0.0005
0.0864901 -0.0254 -0.0005
0.0864901 -0.0254 0.0005
0.0876909 -0.0254 -0.0005
0.0876909 -0.0254 0.0005
0.0889011 -0.0254 -0.0005
0.0889011 -0.0254 0.0005
0.0901207 -0.0254 -0.0005
0.0901207 -0.0254 0.0005
0.0913497 -0.0254 -0.0005
0.0913497 -0.0254 0.0005
0.0925883 -0.0254 -0.0005
0.0925883 -0.0254 0.0005
0.0938366 -0.0254 -0.0005
0.0938366 -0.0254 0.0005
0.0950945 -0.0254 -0.0005
0.0950945 -0.0254 0.0005
0.0963622 -0.0254 -0.0005
0.0963622 -0.0254 0.0005
0.0976398 -0.0254 -0.0005
0.0976398 -0.0254 0.0005
0.0989273 -0.0254 -0.0005
0.0989273 -0.0254 0.0005
0.100225 -0.0254 -0.0005
0.100225 -0.0254 0.0005
0.101532 -0.0254 -0.0005
0.101532 -0.0254 0.0005
0.10285 -0.0254 -0.0005
0.10285 -0.0254 0.0005
0.104178 -0.0254 -0.0005
0.104178 -0.0254 0.0005
0.105517 -0.0254 -0.0005
0.105517 -0.0254 0.0005
0.106865 -0.0254 -0.0005
0.106865 -0.0254 0.0005
0.108225 -0.0254 -0.0005
0.108225 -0.0254 0.0005
0.109594 -0.0254 -0.0005
0.109594 -0.0254 0.0005
0.110975 -0.0254 -0.0005
0.110975 -0.0254 0.0005
0.112366 -0.0254 -0.0005
0.112366 -0.0254 0.0005
0.113768 -0.0254 -0.0005
0.113768 -0.0254 0.0005
0.115181 -0.0254 -0.0005
0.115181 -0.0254 0.0005
0.116605 -0.0254 -0.0005
0.116605 -0.0254 0.0005
0.11804 -0.0254 -0.0005
0.11804 -0.0254 0.0005
0.119486 -0.0254 -0.0005
0.119486 -0.0254 0.0005
0.120943 -0.0254 -0.0005
0.120943 -0.0254 0.0005
0.122412 -0.0254 -0.0005
0.122412 -0.0254 0.0005
0.123892 -0.0254 -0.0005
0.123892 -0.0254 0.0005
0.125384 -0.0254 -0.0005
0.125384 -0.0254 0.0005
0.126887 -0.0254 -0.0005
0.126887 -0.0254 0.0005
0.128402 -0.0254 -0.0005
0.128402 -0.0254 0.0005
0.129928 -0.0254 -0.0005
0.129928 -0.0254 0.0005
0.131467 -0.0254 -0.0005
0.131467 -0.0254 0.0005
0.133017 -0.0254 -0.0005
0.133017 -0.0254 0.0005
0.13458 -0.0254 -0.0005
0.13458 -0.0254 0.0005
0.136155 -0.0254 -0.0005
0.136155 -0.0254 0.0005
0.137742 -0.0254 -0.0005
0.137742 -0.0254 0.0005
0.139341 -0.0254 -0.0005
0.139341 -0.0254 0.0005
0.140953 -0.0254 -0.0005
0.140953 -0.0254 0.0005
0.142577 -0.0254 -0.0005
0.142577 -0.0254 0.0005
0.144214 -0.0254 -0.0005
0.144214 -0.0254 0.0005
0.145863 -0.0254 -0.0005
0.145863 -0.0254 0.0005
0.147526 -0.0254 -0.0005
0.147526 -0.0254 0.0005
0.149201 -0.0254 -0.0005
0.149201 -0.0254 0.0005
0.15089 -0.0254 -0.0005
0.15089 -0.0254 0.0005
0.152591 -0.0254 -0.0005
0.152591 -0.0254 0.0005
0.154306 -0.0254 -0.0005
0.154306 -0.0254 0.0005
0.156034 -0.0254 -0.0005
0.156034 -0.0254 0.0005
0.157775 -0.0254 -0.0005
0.157775 -0.0254 0.0005
0.159531 -0.0254 -0.0005
0.159531 -0.0254 0.0005
0.161299 -0.0254 -0.0005
0.161299 -0.0254 0.0005
0.163082 -0.0254 -0.0005
0.163082 -0.0254 0.0005
0.164878 -0.0254 -0.0005
0.164878 -0.0254 0.0005
0.166688 -0.0254 -0.0005
0.166688 -0.0254 0.0005
0.168513 -0.0254 -0.0005
0.168513 -0.0254 0.0005
0.170351 -0.0254 -0.0005
0.170351 -0.0254 0.0005
0.172204 -0.0254 -0.0005
0.172204 -0.0254 0.0005
0.174071 -0.0254 -0.0005
0.174071 -0.0254 0.0005
0.175953 -0.0254 -0.0005
0.175953 -0.0254 0.0005
0.177849 -0.0254 -0.0005
0.177849 -0.0254 0.0005
0.17976 -0.0254 -0.0005
0.17976 -0.0254 0.0005
0.181686 -0.0254 -0.0005
0.181686 -0.0254 0.0005
0.183627 -0.0254 -0.0005
0.183627 -0.0254 0.0005
0.185583 -0.0254 -0.0005
0.185583 -0.0254 0.0005
0.187555 -0.0254 -0.0005
0.187555 -0.0254 0.0005
0.189541 -0.0254 -0.0005
0.189541 -0.0254 0.0005
0.191543 -0.0254 -0.0005
0.191543 -0.0254 0.0005
0.193561 -0.0254 -0.0005
0.193561 -0.0254 0.0005
0.195594 -0.0254 -0.0005
0.195594 -0.0254 0.0005
0.197643 -0.0254 -0.0005
0.197643 -0.0254 0.0005
0.199708 -0.0254 -0.0005
0.199708 -0.0254 0.0005
0.201789 -0.0254 -0.0005
0.201789 -0.0254 0.0005
0.203886 -0.0254 -0.0005
0.203886 -0.0254 0.0005
0.206 -0.0254 -0.0005
0.206 -0.0254 0.0005
0.208047 -0.0251856 -0.0005
0.208047 -0.0251856 0.0005
0.210173 -0.0249628 -0.0005
0.210173 -0.0249628 0.0005
0.212382 -0.0247314 -0.0005
0.212382 -0.0247314 0.0005
0.214677 -0.024491 -0.0005
0.214677 -0.024491 0.0005
0.217061 -0.0242412 -0.0005
0.217061 -0.0242412 0.0005
0.219538 -0.0239817 -0.0005
0.219538 -0.0239817 0.0005
0.222112 -0.0237121 -0.0005
0.222112 -0.0237121 0.0005
0.224785 -0.023432 -0.0005
0.224785 -0.023432 0.0005
0.227563 -0.023141 -0.0005
0.227563 -0.023141 0.0005
0.230449 -0.0228387 -0.0005
0.230449 -0.0228387 0.0005
0.233447 -0.0225246 -0.0005
0.233447 -0.0225246 0.0005
0.236562 -0.0221983 -0.0005
0.236562 -0.0221983 0.0005
0.239797 -0.0218593 -0.0005
0.239797 -0.0218593 0.0005
0.243159 -0.0215071 -0.0005
0.243159 -0.0215071 0.0005
0.246652 -0.0211412 -0.0005
0.246652 -0.0211412 0.0005
0.250281 -0.0207611 -0.0005
0.250281 -0.0207611 0.0005
0.254051 -0.0203661 -0.0005
0.254051 -0.0203661 0.0005
0.257967 -0.0199558 -0.0005
0.257967 -0.0199558 0.0005
0.262036 -0.0195295 -0.0005
0.262036 -0.0195295 0.0005
0.266264 -0.0190867 -0.0005
0.266264 -0.0190867 0.0005
0.270655 -0.0186266 -0.0005
0.270655 -0.0186266 0.0005
0.275218 -0.0181486 -0.0005
0.275218 -0.0181486 0.0005
0.279959 -0.017652 -0.0005
0.279959 -0.017652 0.0005
0.284883 -0.017136 -0.0005
0.284883 -0.017136 0.0005
0.29 -0.0166 -0.0005
0.29 -0.0166 0.0005

POLYGONS 250 1250
4 0 1 2 3
4 1 4 5 2
4 4 6 7 5
4 6 8 9 7
4 8 10 11 9
4 10 12 13 11
4 12 14 15 13
4 14 16 17 15
4 16 18 19 17
4 18 20 21 19
4 20 22 23 21
4 22 24 25 23
4 24 26 27 25
4 26 28 29 27
4 28 30 31 29
4 30 32 33 31
4 32 34 35 33
4 34 36 37 35
4 38 39 40 41
4 41 40 42 43
4 43 42 44 45
4 45 44 46 47
4 47 46 48 49
4 49 48 50 51
4 51 50 52 53
4 53 52 54 55
4 55 54 56 57
4 57 56 58 59
4 59 58 60 61
4 61 60 62 63
4 63 62 64 65
4 65 64 66 67
4 67 66 68 69
4 69 68 70 71
4 71 70 72 73
4 73 72 74 75
4 75 74 76 77
4 77 76 78 79
4 79 78 80 81
4 81 80 82 83
4 83 82 84 85
4 85 84 86 87
4 87 86 88 89
4 89 88 90 91
4 91 90 37 36
4 38 92 93 39
4 92 94 95 93
4 94 96 97 95
4 96 98 99 97
4 98 100 101 99
4 100 102 103 101
4 102 104 105 103
4 104 106 107 105
4 106 108 109 107
4 108 110 111 109
4 110 112 113 111
4 112 114 115 113
4 114 116 117 115
4 116 118 119 117
4 118 120 121 119
4 120 122 123 121
4 122 124 125 123
4 124 126 127 125
4 126 128 129 127
4 128 130 131 129
4 130 132 133 131
4 132 134 135 133
4 134 136 137 135
4 136 138 139 137
4 138 140 141 139
4 140 142 143 141
4 142 144 145 143
4 144 146 147 145
4 146 148 149 147
4 148 150 151 149
4 150 152 153 151
4 152 154 155 153
4 154 156 157 155
4 156 158 159 157
4 158 160 161 159
4 160 162 163 161
4 162 164 165 163
4 164 166 167 165
4 166 168 169 167
4 168 170 171 169
4 170 172 173 171
4 172 174 175 173
4 174 176 177 175
4 176 178 179 177
4 178 180 181 179
4 180 182 183 181
4 182 184 185 183
4 184 186 187 185
4 186 188 189 187
4 188 190 191 189
4 190 192 193 191
4 192 194 195 193
4 194 196 197 195
4 196 198 199 197
4 198 200 201 199
4 200 202 203 201
4 202 204 205 203
4 204 206 207 205
4 206 208 209 207
4 208 210 211 209
4 210 212 213 211
4 212 214 215 213
4 214 216 217 215
4 216 218 219 217
4 218 220 221 219
4 220 222 223 221
4 222 224 225 223
4 224 226 227 225
4 226 228 229 227
4 228 230 231 229
4 230 232 233 231
4 232 234 235 233
4 234 236 237 235
4 236 238 239 237
4 238 240 241 239
4 240 242 243 241
4 242 244 245 243
4 244 246 247 245
4 246 248 249 247
4 248 250 251 249
4 250 252 253 251
4 252 254 255 253
4 254 256 257 255
4 256 258 259 257
4 258 260 261 259
4 260 262 263 261
4 262 264 265 263
4 264 266 267 265
4 266 268 269 267
4 268 270 271 269
4 270 272 273 271
4 272 274 275 273
4 274 276 277 275
4 276 278 279 277
4 278 280 281 279
4 280 282 283 281
4 282 284 285 283
4 284 286 287 285
4 286 288 289 287
4 288 290 291 289
4 290 292 293 291
4 292 294 295 293
4 294 296 297 295
4 296 298 299 297
4 298 300 301 299
4 300 302 303 301
4 302 304 305 303
4 304 306 307 305
4 306 308 309 307
4 308 310 311 309
4 310 312 313 311
4 312 314 315 313
4 314 316 317 315
4 316 318 319 317
4 318 320 321 319
4 320 322 323 321
4 322 324 325 323
4 324 326 327 325
4 326 328 329 327
4 328 330 331 329
4 330 332 333 331
4 332 334 335 333
4 334 336 337 335
4 336 338 339 337
4 338 340 341 339
4 340 342 343 341
4 342 344 345 343
4 344 346 347 345
4 346 348 349 347
4 348 350 351 349
4 350 352 353 351
4 352 354 355 353
4 354 356 357 355
4 356 358 359 357
4 358 360 361 359
4 360 362 363 361
4 362 364 365 363
4 364 366 367 365
4 366 368 369 367
4 368 370 371 369
4 370 372 373 371
4 372 374 375 373
4 374 376 377 375
4 376 378 379 377
4 378 380 381 379
4 380 382 383 381
4 382 384 385 383
4 384 386 387 385
4 386 388 389 387
4 388 390 391 389
4 390 392 393 391
4 392 394 395 393
4 394 396 397 395
4 396 398 399 397
4 398 400 401 399
4 400 402 403 401
4 402 404 405 403
4 404 406 407 405
4 406 408 409 407
4 408 410 411 409
4 410 412 413 411
4 412 414 415 413
4 414 416 417 415
4 416 418 419 417
4 418 420 421 419
4 420 422 423 421
4 422 424 425 423
4 424 426 427 425
4 426 428 429 427
4 428 430 431 429
4 430 432 433 431
4 432 434 435 433
4 434 436 437 435
4 436 438 439 437
4 438 440 441 439
4 440 442 443 441
4 442 444 445 443
4 444 446 447 445
4 446 448 449 447
4 448 450 451 449
4 450 452 453 451
4 452 454 455 453
4 454 456 457 455
4 456 458 459 457
4 458 460 461 459
4 460 462 463 461
4 462 464 465 463
4 464 466 467 465
4 466 468 469 467
4 468 470 471 469
4 470 472 473 471
4 472 474 475 473
4 474 476 477 475
4 476 478 479 477
4 478 480 481 479
4 480 482 483 481
4 482 484 485 483
4 484 486 487 485
4 486 488 489 487
4 488 490 491 489
4 490 492 493 491
4 492 494 495 493
4 494 496 497 495
4 496 498 499 497
4 498 500 501 499
POINT_DATA 502
FIELD attributes 1
U 3 502 float
1.61916 0.0697611 0.0257839
0.811477 0.0347214 0.0127063
0.811477 0.0347214 0.0127063
1.61916 0.0697611 0.0257839
0.0252805 0.000685189 0
0.0252805 0.000685189 0
0.0226084 0.000640562 0
0.0226084 0.000640562 0
0.0201201 0.000536253 0
0.0201201 0.000536253 0
0.0177225 0.00044235 0
0.0177225 0.00044235 0
0.0155205 0.000370839 0
0.0155205 0.000370839 0
0.0135383 0.000325417 0
0.0135383 0.000325417 0
0.0117125 0.000297883 0
0.0117125 0.000297883 0
0.0100064 0.000265914 0
0.0100064 0.000265914 0
0.00844192 0.000216696 0
0.00844192 0.000216696 0
0.00707403 0.000157497 0
0.00707403 0.000157497 0
0.00593119 0.000100987 0
0.00593119 0.000100987 0
0.00501815 5.57733e-05 0
0.00501815 5.57733e-05 0
0.00427498 2.64117e-05 0
0.00427498 2.64117e-05 0
0.00366808 1.39493e-05 0
0.00366808 1.39493e-05 0
0.00309489 1.2492e-05 0
0.00309489 1.2492e-05 0
0.00257591 -2.14004e-05 0
0.00257591 -2.14004e-05 0
0.00115792 0.000173434 0
0.00115792 0.000173434 0
-2.71934e-05 1.33321e-05 -1.78832e-23
-2.71934e-05 1.33321e-05 -1.78832e-23
1.0004e-05 -0.000120116 4.83863e-23
1.0004e-05 -0.000120116 4.83863e-23
0.000106287 -0.000615914 5.73772e-23
0.000106287 -0.000615914 5.73772e-23
0.000185841 -0.0014142 -1.1483e-22
0.000185841 -0.0014142 -1.1483e-22
0.000192833 -0.00222977 -3.82749e-23
0.000192833 -0.00222977 -3.82749e-23
0.000153792 -0.00287719 7.66045e-23
0.000153792 -0.00287719 7.66045e-23
9.91104e-05 -0.0032882 0
9.91104e-05 -0.0032882 0
4.29099e-05 -0.0034554 1.53017e-22
4.29099e-05 -0.0034554 1.53017e-22
-4.97436e-06 -0.00340101 -2.98385e-27
-4.97436e-06 -0.00340101 -2.98385e-27
-3.8848e-05 -0.00316862 -1.5302e-22
-3.8848e-05 -0.00316862 -1.5302e-22
-5.65426e-05 -0.00282244 1.51816e-22
-5.65426e-05 -0.00282244 1.51816e-22
-6.16811e-05 -0.00243881 -2.30551e-26
-6.16811e-05 -0.00243881 -2.30551e-26
-6.86545e-05 -0.00208653 -1.51839e-22
-6.86545e-05 -0.00208653 -1.51839e-22
-8.81437e-05 -0.0017936 -1.51312e-22
-8.81437e-05 -0.0017936 -1.51312e-22
-0.0001012 -0.00153411 1.90353e-26
-0.0001012 -0.00153411 1.90353e-26
-9.0072e-05 -0.00128342 1.54014e-22
-9.0072e-05 -0.00128342 1.54014e-22
-9.39903e-05 -0.000944554 0
-9.39903e-05 -0.000944554 0
-0.000114399 -0.000532771 0
-0.000114399 -0.000532771 0
-6.41314e-05 -0.000271334 0
-6.41314e-05 -0.000271334 0
0.000110813 -0.000510042 0
0.000110813 -0.000510042 0
0.000250283 -0.00119168 0
0.000250283 -0.00119168 0
0.000167569 -0.00168247 0
0.000167569 -0.00168247 0
-3.49743e-05 -0.00165976 0
-3.49743e-05 -0.00165976 0
-0.000209616 -0.00129547 0
-0.000209616 -0.00129547 0
-0.000322783 -0.00072204 0
-0.000322783 -0.00072204 0
-0.000238232 -0.000106111 0
-0.000238232 -0.000106111 0
1.62543e-05 0.000269874 0
1.62543e-05 0.000269874 0
2.58209e-05 -6.17207e-05 -7.81848e-26
2.58209e-05 -6.17207e-05 -7.81848e-26
0.000184693 -0.000183422 8.88619e-24
0.000184693 -0.000183422 8.88619e-24
0.000411357 -0.000249405 0
0.000411357 -0.000249405 0
0.000660149 -0.000274409 0
0.000660149 -0.000274409 0
0.000918224 -0.000279807 -8.62988e-24
0.000918224 -0.000279807 -8.62988e-24
0.00117852 -0.000277342 -8.64538e-24
0.00117852 -0.000277342 -8.64538e-24
0.00143829 -0.000272112 0
0.00143829 -0.000272112 0
0.00169657 -0.000265712 0
0.00169657 -0.000265712 0
0.00195274 -0.00025808 0
0.00195274 -0.00025808 0
0.00220548 -0.000248403 8.39544e-24
0.00220548 -0.000248403 8.39544e-24
0.00245221 -0.000235551 8.41144e-24
0.00245221 -0.000235551 8.41144e-24
0.00268887 -0.00021828 0
0.00268887 -0.00021828 0
0.00291001 -0.000195253 0
0.00291001 -0.000195253 0
0.00310855 -0.000165316 0
0.00310855 -0.000165316 0
0.00327653 -0.000127502 8.19412e-24
0.00327653 -0.000127502 8.19412e-24
0.00340468 -8.12812e-05 8.21067e-24
0.00340468 -8.12812e-05 8.21067e-24
0.00348479 -2.63646e-05 0
0.00348479 -2.63646e-05 0
0.00350805 3.6843e-05 0
0.00350805 3.6843e-05 0
0.0034638 0.000106825 0
0.0034638 0.000106825 0
0.0033456 0.000180939 0
0.0033456 0.000180939 0
0.00315207 0.000254125 0
0.00315207 0.000254125 0
0.00288406 0.000323201 0
0.00288406 0.000323201 0
0.00255342 0.000378283 7.64488e-24
0.00255342 0.000378283 7.64488e-24
0.00216603 0.00041902 9.63051e-26
0.00216603 0.00041902 9.63051e-26
0.00175642 0.000427401 -9.15908e-26
0.00175642 0.000427401 -9.15908e-26
0.00133505 0.000389286 1.49303e-23
0.00133505 0.000389286 1.49303e-23
0.000895588 0.000328345 7.43959e-24
0.000895588 0.000328345 7.43959e-24
0.000643295 0.000171805 0
0.000643295 0.000171805 0
0.000498005 -3.32155e-05 -7.24325e-24
0.000498005 -3.32155e-05 -7.24325e-24
0.000331372 -0.000165545 -1.44551e-23
0.000331372 -0.000165545 -1.44551e-23
0.000437396 -0.000317394 -7.21192e-24
0.000437396 -0.000317394 -7.21192e-24
0.000818988 -0.000472049 0
0.000818988 -0.000472049 0
0.00113147 -0.000755858 -7.01168e-24
0.00113147 -0.000755858 -7.01168e-24
0.00121792 -0.00108011 -7.02895e-24
0.00121792 -0.00108011 -7.02895e-24
0.0011856 -0.000877723 0
0.0011856 -0.000877723 0
0.000878155 -9.40112e-05 6.8691e-24
0.000878155 -9.40112e-05 6.8691e-24
0.000118814 0.00058061 6.88656e-24
0.000118814 0.00058061 6.88656e-24
-0.000810993 0.000781725 6.74249e-24
-0.000810993 0.000781725 6.74249e-24
-0.00172975 0.000806511 2.01677e-23
-0.00172975 0.000806511 2.01677e-23
-0.00265308 0.000813405 1.34429e-23
-0.00265308 0.000813405 1.34429e-23
-0.00354651 0.000794687 0
-0.00354651 0.000794687 0
-0.00439222 0.000751456 0
-0.00439222 0.000751456 0
-0.00517063 0.00068711 0
-0.00517063 0.00068711 0
-0.00586831 0.000608511 0
-0.00586831 0.000608511 0
-0.0064775 0.000522944 1.34876e-23
-0.0064775 0.000522944 1.34876e-23
-0.0069963 0.000436931 2.70415e-23
-0.0069963 0.000436931 2.70415e-23
-0.00742689 0.000355066 2.70864e-23
-0.00742689 0.000355066 2.70864e-23
-0.0077742 0.000280009 1.35705e-23
-0.0077742 0.000280009 1.35705e-23
-0.00804494 0.000213031 -1.35126e-23
-0.00804494 0.000213031 -1.35126e-23
-0.00824675 0.000154554 -1.35517e-23
-0.00824675 0.000154554 -1.35517e-23
-0.00838713 0.000104483 1.34166e-23
-0.00838713 0.000104483 1.34166e-23
-0.00847288 6.23275e-05 2.67956e-23
-0.00847288 6.23275e-05 2.67956e-23
-0.0085105 2.7408e-05 1.33791e-23
-0.0085105 2.7408e-05 1.33791e-23
-0.00850755 -9.69569e-07 0
-0.00850755 -9.69569e-07 0
-0.00847126 -2.36404e-05 0
-0.00847126 -2.36404e-05 0
-0.00840686 -4.16929e-05 1.28565e-23
-0.00840686 -4.16929e-05 1.28565e-23
-0.00831918 -5.59169e-05 1.28963e-23
-0.00831918 -5.59169e-05 1.28963e-23
-0.00821287 -6.67035e-05 0
-0.00821287 -6.67035e-05 0
-0.00809222 -7.45205e-05 0
-0.00809222 -7.45205e-05 0
-0.00796088 -7.97419e-05 0
-0.00796088 -7.97419e-05 0
-0.00782208 -8.27349e-05 0
-0.00782208 -8.27349e-05 0
-0.0076786 -8.39623e-05 0
-0.0076786 -8.39623e-05 0
-0.00753253 -8.38675e-05 0
-0.00753253 -8.38675e-05 0
-0.0073854 -8.30066e-05 0
-0.0073854 -8.30066e-05 0
-0.00723781 -8.19593e-05 -1.12651e-23
-0.00723781 -8.19593e-05 -1.12651e-23
-0.00708959 -8.12923e-05 -1.1303e-23
-0.00708959 -8.12923e-05 -1.1303e-23
-0.00693961 -8.15165e-05 0
-0.00693961 -8.15165e-05 0
-0.00678608 -8.29678e-05 1.07236e-23
-0.00678608 -8.29678e-05 1.07236e-23
-0.0066268 -8.57688e-05 2.13076e-23
-0.0066268 -8.57688e-05 2.13076e-23
-0.00645959 -8.97818e-05 1.05837e-23
-0.00645959 -8.97818e-05 1.05837e-23
-0.00628272 -9.46323e-05 -1.02e-23
-0.00628272 -9.46323e-05 -1.02e-23
-0.00609523 -9.97901e-05 -2.06594e-25
-0.00609523 -9.97901e-05 -2.06594e-25
-0.0058972 -0.000104703 1.00653e-23
-0.0058972 -0.000104703 1.00653e-23
-0.00568959 -0.000108985 -9.6943e-24
-0.00568959 -0.000108985 -9.6943e-24
-0.00547371 -0.000112625 -9.72948e-24
-0.00547371 -0.000112625 -9.72948e-24
-0.00525023 -0.000116107 0
-0.00525023 -0.000116107 0
-0.00501827 -0.000120319 9.19993e-24
-0.00501827 -0.000120319 9.19993e-24
-0.00477505 -0.000126204 9.23414e-24
-0.00477505 -0.000126204 9.23414e-24
-0.00451629 -0.00013426 -8.86692e-24
-0.00451629 -0.00013426 -8.86692e-24
-0.00423764 -0.00014419 -8.90042e-24
-0.00423764 -0.00014419 -8.90042e-24
-0.00393626 -0.000154903 8.53055e-24
-0.00393626 -0.000154903 8.53055e-24
-0.00361205 -0.000164844 1.69278e-23
-0.00361205 -0.000164844 1.69278e-23
-0.00326794 -0.000172524 1.65994e-23
-0.00326794 -0.000172524 1.65994e-23
-0.0029092 -0.000176911 2.43275e-23
-0.0029092 -0.000176911 2.43275e-23
-0.00254245 -0.000177574 3.60759e-25
-0.00254245 -0.000177574 3.60759e-25
-0.00217433 -0.000174689 -1.5858e-23
-0.00217433 -0.000174689 -1.5858e-23
-0.00181072 -0.00016886 0
-0.00181072 -0.00016886 0
-0.00145655 -0.000160845 0
-0.00145655 -0.000160845 0
-0.00111559 -0.000151408 -1.47626e-23
-0.00111559 -0.000151408 -1.47626e-23
-0.000790283 -0.00014116 -2.93635e-23
-0.000790283 -0.00014116 -2.93635e-23
-0.000481993 -0.00013052 -2.69588e-25
-0.000481993 -0.00013052 -2.69588e-25
-0.00019201 -0.000119945 1.43901e-23
-0.00019201 -0.000119945 1.43901e-23
7.89971e-05 -0.000109721 -1.39386e-23
7.89971e-05 -0.000109721 -1.39386e-23
0.000332005 -9.97609e-05 -2.77501e-23
0.000332005 -9.97609e-05 -2.77501e-23
0.000567939 -9.00541e-05 -2.7387e-23
0.000567939 -9.00541e-05 -2.7387e-23
0.000787029 -8.07167e-05 -1.36336e-23
0.000787029 -8.07167e-05 -1.36336e-23
0.00098964 -7.17976e-05 0
0.00098964 -7.17976e-05 0
0.00117629 -6.33319e-05 0
0.00117629 -6.33319e-05 0
0.00134758 -5.53447e-05 -1.29305e-23
0.00134758 -5.53447e-05 -1.29305e-23
0.00150417 -4.78514e-05 -1.29871e-23
0.00150417 -4.78514e-05 -1.29871e-23
0.00164677 -4.08569e-05 0
0.00164677 -4.08569e-05 0
0.00177611 -3.43569e-05 1.24921e-23
0.00177611 -3.43569e-05 1.24921e-23
0.00189289 -2.83405e-05 1.25479e-23
0.00189289 -2.83405e-05 1.25479e-23
0.00199784 -2.27939e-05 0
0.00199784 -2.27939e-05 0
0.00209166 -1.77041e-05 1.20763e-23
0.00209166 -1.77041e-05 1.20763e-23
0.00217504 -1.30605e-05 1.21313e-23
0.00217504 -1.30605e-05 1.21313e-23
0.00224864 -8.85551e-06 0
0.00224864 -8.85551e-06 0
0.00231315 -5.08278e-06 -1.16745e-23
0.00231315 -5.08278e-06 -1.16745e-23
0.00236926 -1.73387e-06 -2.32714e-23
0.00236926 -1.73387e-06 -2.32714e-23
0.00241766 1.20233e-06 -1.15966e-23
0.00241766 1.20233e-06 -1.15966e-23
0.00245905 3.74296e-06 1.12816e-23
0.00245905 3.74296e-06 1.12816e-23
0.00249413 5.91446e-06 1.1335e-23
0.00249413 5.91446e-06 1.1335e-23
0.00252358 7.74512e-06 -1.10232e-23
0.00252358 7.74512e-06 -1.10232e-23
0.00254807 9.27266e-06 -1.10759e-23
0.00254807 9.27266e-06 -1.10759e-23
0.00256821 1.05407e-05 -1.07669e-23
0.00256821 1.05407e-05 -1.07669e-23
0.00258455 1.15804e-05 -2.14584e-23
0.00258455 1.15804e-05 -2.14584e-23
0.00259759 1.24366e-05 -1.06912e-23
0.00259759 1.24366e-05 -1.06912e-23
0.00260772 1.31468e-05 0
0.00260772 1.31468e-05 0
0.00261533 1.37309e-05 0
0.00261533 1.37309e-05 0
0.00262062 1.42402e-05 0
0.00262062 1.42402e-05 0
0.0026238 1.46809e-05 0
0.0026238 1.46809e-05 0
0.00262513 1.49863e-05 0
0.00262513 1.49863e-05 0
0.00262481 1.51215e-05 0
0.00262481 1.51215e-05 0
0.00262301 1.50987e-05 -9.63469e-24
0.00262301 1.50987e-05 -9.63469e-24
0.00261995 1.49264e-05 -1.72691e-25
0.00261995 1.49264e-05 -1.72691e-25
0.00261588 1.4602e-05 9.55975e-24
0.00261588 1.4602e-05 9.55975e-24
0.00261105 1.4135e-05 0
0.00261105 1.4135e-05 0
0.00260568 1.35485e-05 0
0.00260568 1.35485e-05 0
0.00260001 1.28706e-05 0
0.00260001 1.28706e-05 0
0.00259423 1.21304e-05 1.77999e-23
0.00259423 1.21304e-05 1.77999e-23
0.00258849 1.13538e-05 1.78934e-23
0.00258849 1.13538e-05 1.78934e-23
0.00258292 1.0563e-05 -1.73178e-23
0.00258292 1.0563e-05 -1.73178e-23
0.00257764 9.77961e-06 -3.31488e-25
0.00257764 9.77961e-06 -3.31488e-25
0.0025727 9.02338e-06 1.71692e-23
0.0025727 9.02338e-06 1.71692e-23
0.00256814 8.30709e-06 0
0.00256814 8.30709e-06 0
0.00256397 7.635e-06 0
0.00256397 7.635e-06 0
0.0025602 7.00706e-06 -1.61297e-23
0.0025602 7.00706e-06 -1.61297e-23
0.00255682 6.42117e-06 -3.21123e-23
0.00255682 6.42117e-06 -3.21123e-23
0.00255383 5.87254e-06 -1.59818e-23
0.00255383 5.87254e-06 -1.59818e-23
0.00255121 5.3566e-06 -1.54289e-23
0.00255121 5.3566e-06 -1.54289e-23
0.0025489 4.87236e-06 -3.07112e-23
0.0025489 4.87236e-06 -3.07112e-23
0.00254685 4.42254e-06 -3.14631e-25
0.00254685 4.42254e-06 -3.14631e-25
0.00254501 4.01527e-06 1.505e-23
0.00254501 4.01527e-06 1.505e-23
0.00254336 3.654e-06 0
0.00254336 3.654e-06 0
0.00254188 3.33388e-06 1.42813e-23
0.00254188 3.33388e-06 1.42813e-23
0.00254055 3.0504e-06 1.43617e-23
0.00254055 3.0504e-06 1.43617e-23
0.00253937 2.79948e-06 0
0.00253937 2.79948e-06 0
0.00253831 2.57817e-06 0
0.00253831 2.57817e-06 0
0.00253738 2.38468e-06 0
0.00253738 2.38468e-06 0
0.00253655 2.21805e-06 -1.31586e-23
0.00253655 2.21805e-06 -1.31586e-23
0.00253581 2.07897e-06 -2.61711e-23
0.00253581 2.07897e-06 -2.61711e-23
0.00253513 1.96854e-06 -1.30116e-23
0.00253513 1.96854e-06 -1.30116e-23
0.00253449 1.88579e-06 -1.24962e-23
0.00253449 1.88579e-06 -1.24962e-23
0.00253384 1.82776e-06 -1.25689e-23
0.00253384 1.82776e-06 -1.25689e-23
0.00253316 1.79082e-06 0
0.00253316 1.79082e-06 0
0.00253241 1.77178e-06 -1.18415e-23
0.00253241 1.77178e-06 -1.18415e-23
0.00253158 1.76855e-06 -1.19112e-23
0.00253158 1.76855e-06 -1.19112e-23
0.00253062 1.78069e-06 -1.14092e-23
0.00253062 1.78069e-06 -1.14092e-23
0.00252951 1.80866e-06 -1.14768e-23
0.00252951 1.80866e-06 -1.14768e-23
0.0025282 1.85428e-06 0
0.0025282 1.85428e-06 0
0.00252667 1.91954e-06 -1.07661e-23
0.00252667 1.91954e-06 -1.07661e-23
0.00252481 2.00857e-06 -1.08306e-23
0.00252481 2.00857e-06 -1.08306e-23