/*--------------------------------*- C++ -*----------------------------------*\
  =========                 |
  \\      /  F ield         | OpenFOAM: The Open Source CFD Toolbox
   \\    /   O peration     | Website:  https://openfoam.org
    \\  /    A nd           | Version:  7
     \\/     M anipulation  |
\*---------------------------------------------------------------------------*/
FoamFile
{
    version     2.0;
    format      ascii;
    class       volScalarField;
    location    "0.13";
    object      nut;
}
// * * * * * * * * * * * * * * * * * * * * * * * * * * * * * * * * * * * * * //

dimensions      [0 2 -1 0 0 0 0];

internalField   nonuniform List<scalar> 
12225
(
3.8006e-05
3.33294e-05
2.94332e-05
2.6376e-05
2.41489e-05
2.2629e-05
2.16446e-05
2.10343e-05
2.06705e-05
2.04606e-05
2.03419e-05
2.0274e-05
2.02322e-05
2.02021e-05
2.0176e-05
2.0149e-05
2.01263e-05
2.02603e-05
0.000205723
0.000151533
0.000127318
0.000114409
0.000107379
0.000103276
0.000100622
9.87113e-05
9.72104e-05
9.59574e-05
9.48724e-05
9.39161e-05
9.30681e-05
9.23145e-05
9.16478e-05
9.1045e-05
9.05466e-05
8.99501e-05
0.000418642
0.000297
0.00024205
0.000210266
0.000189709
0.000175341
0.000164787
0.000156786
0.00015057
0.000145639
0.000141652
0.000138377
0.000135654
0.000133365
0.000131424
0.000129759
0.000128338
0.000127043
0.000615536
0.000473545
0.000392591
0.000341282
0.000306014
0.000280082
0.000260121
0.000244307
0.000231524
0.000221024
0.000212288
0.000204942
0.000198711
0.000193384
0.000188801
0.000184827
0.00018137
0.00017835
0.000739724
0.000627505
0.000543982
0.000483429
0.000438565
0.000404018
0.000376515
0.000354088
0.000335463
0.000319766
0.00030638
0.000294856
0.00028486
0.000276132
0.000268469
0.000261706
0.000255719
0.00025047
0.000803283
0.000733059
0.000666701
0.000610794
0.000565217
0.000527898
0.000496921
0.000470867
0.000448687
0.000429592
0.000412995
0.000398452
0.000385621
0.000374236
0.000364084
0.000354994
0.000346835
0.000339629
0.000832284
0.00079459
0.00075095
0.000708339
0.000669777
0.000635806
0.000606096
0.000580122
0.000557341
0.00053726
0.00051946
0.000503597
0.00048939
0.000476612
0.000465072
0.000454617
0.000445134
0.000436701
0.000844509
0.000826356
0.000801469
0.000773643
0.000745691
0.000719048
0.000694312
0.000671665
0.000651071
0.000632388
0.000615434
0.00060003
0.000586004
0.000573204
0.000561499
0.000550772
0.000540946
0.000532148
0.000849308
0.000841191
0.000828457
0.00081244
0.000794695
0.000776394
0.000758291
0.000740848
0.000724316
0.000708802
0.000694327
0.000680865
0.000668364
0.000656763
0.000645997
0.000636004
0.000626752
0.000618397
0.000851042
0.000847505
0.000841448
0.000833091
0.000823014
0.000811828
0.000800052
0.000788091
0.000776239
0.000764694
0.000753577
0.000742956
0.000732865
0.000723313
0.000714293
0.000705795
0.000697826
0.000690554
0.000851597
0.000849941
0.000847101
0.000842991
0.000837725
0.000831517
0.000824606
0.000817227
0.000809587
0.000801851
0.000794148
0.000786571
0.000779185
0.000772035
0.000765149
0.000758549
0.000752267
0.00074646
0.000851725
0.000850709
0.000849144
0.00084693
0.000844053
0.000840559
0.000836535
0.000832083
0.000827316
0.000822337
0.000817236
0.000812087
0.000806951
0.000801875
0.000796895
0.000792041
0.000787355
0.00078298
0.000851737
0.000850953
0.00084994
0.000848639
0.000847018
0.00084507
0.000842806
0.000840257
0.000837463
0.000834474
0.000831336
0.000828094
0.000824787
0.000821451
0.000818116
0.000814809
0.000811568
0.000808503
0.000851709
0.000850987
0.000850182
0.000849277
0.000848261
0.000847121
0.000845852
0.000844453
0.00084293
0.000841294
0.00083956
0.000837744
0.000835863
0.000833935
0.000831974
0.000829999
0.000828037
0.000826158
0.000851676
0.000850949
0.000850197
0.000849419
0.000848621
0.000847804
0.000846965
0.0008461
0.000845208
0.000844287
0.000843337
0.000842358
0.000841353
0.000840326
0.000839281
0.000838225
0.000837172
0.000836164
0.000851651
0.000850908
0.000850159
0.000849408
0.000848665
0.000847939
0.000847233
0.000846548
0.000845883
0.000845236
0.000844606
0.000843988
0.00084338
0.000842781
0.00084219
0.000841608
0.000841042
0.000840517
0.000851637
0.000850885
0.000850135
0.000849391
0.00084866
0.000847954
0.000847277
0.000846634
0.000846027
0.000845453
0.000844912
0.000844402
0.000843919
0.000843462
0.000843028
0.000842617
0.000842235
0.000841898
0.000851638
0.00085089
0.000850149
0.000849416
0.000848699
0.000848007
0.000847346
0.00084672
0.000846131
0.00084558
0.000845065
0.000844584
0.000844135
0.000843716
0.000843325
0.000842961
0.000842631
0.00084235
0.000851661
0.000850939
0.000850225
0.000849521
0.000848834
0.000848174
0.000847547
0.000846955
0.000846402
0.000845885
0.000845405
0.000844959
0.000844545
0.00084416
0.000843802
0.000843472
0.000843173
0.000842922
0.000851715
0.000851052
0.000850398
0.000849753
0.000849128
0.000848531
0.00084797
0.000847445
0.000846956
0.000846501
0.000846077
0.000845681
0.00084531
0.00084496
0.000844628
0.000844313
0.000844022
0.000843766
0.000851801
0.000851233
0.000850668
0.000850109
0.000849564
0.00084904
0.000848537
0.000848053
0.00084758
0.000847112
0.000846644
0.000846171
0.000845691
0.000845199
0.000844695
0.000844179
0.000843658
0.000843149
0.000851941
0.000851517
0.000851065
0.000850568
0.000850018
0.000849408
0.000848725
0.000847957
0.000847093
0.000846132
0.000845074
0.000843925
0.000842691
0.000841381
0.000839997
0.000838555
0.000837075
0.000835598
0.000852142
0.000851828
0.000851265
0.000850362
0.00084908
0.000847421
0.000845394
0.00084302
0.000840336
0.000837387
0.000834221
0.000830876
0.00082739
0.000823813
0.000820193
0.000816567
0.000812971
0.000809474
0.00085222
0.000851245
0.000849026
0.00084547
0.000840722
0.000835028
0.000828614
0.000821674
0.00081439
0.000806884
0.000799291
0.000791743
0.000784335
0.000777121
0.000770137
0.000763408
0.000756958
0.000750864
0.000850791
0.000845028
0.000835401
0.000822961
0.000808865
0.000794035
0.000779062
0.000764257
0.000749877
0.000736165
0.000723218
0.000711054
0.000699655
0.000688986
0.000679005
0.000669665
0.000660932
0.000652846
0.000841138
0.000816681
0.000786998
0.000756698
0.000727776
0.000700952
0.000676372
0.000654222
0.000634352
0.000616504
0.000600425
0.000585885
0.000572679
0.000560633
0.0005496
0.000539453
0.000530098
0.000521525
0.000798628
0.000728723
0.000669093
0.00062081
0.000580941
0.000547671
0.000520052
0.000496789
0.000476905
0.000459694
0.000444625
0.000431297
0.000419403
0.000408702
0.000399009
0.000390176
0.000382089
0.000374707
0.000662426
0.00054558
0.000474639
0.000425196
0.000388266
0.000360262
0.000338459
0.000320963
0.000306549
0.000294433
0.00028408
0.000275111
0.000267251
0.000260294
0.000254084
0.000248503
0.000243455
0.000238886
0.000377505
0.000286124
0.000242632
0.000214907
0.000195644
0.000182234
0.000172797
0.00016596
0.000160841
0.000156893
0.000153772
0.000151246
0.000149157
0.000147394
0.000145879
0.000144554
0.000143379
0.000142309
6.98062e-05
6.49724e-05
6.05478e-05
5.65124e-05
5.29009e-05
4.97256e-05
4.69805e-05
4.46403e-05
4.26664e-05
4.10143e-05
3.96405e-05
3.85048e-05
3.75711e-05
3.68077e-05
3.61876e-05
3.56872e-05
3.52869e-05
3.497e-05
4.65566e-07
1.025e-05
1.62884e-05
2.18659e-05
2.82137e-05
3.56239e-05
4.4571e-05
5.49265e-05
6.56279e-05
7.63275e-05
8.67132e-05
9.65743e-05
0.000105798
0.000114347
0.000122235
0.000129506
0.000136221
0.000142442
0.000148231
0.000153641
0.000158713
0.000163481
0.000167965
0.00017218
0.000176128
0.000179811
0.000183224
0.000186358
0.000189195
0.000191707
0.000193854
0.000195582
0.000196836
0.000197582
0.000197843
0.000197601
0.000195996
4.46267e-05
0.000199865
0.000201301
0.000201447
0.000198863
4.45371e-05
4.49319e-05
0.000197589
4.51211e-05
4.60791e-05
0.000203554
0.000201351
0.000202399
0.000201022
4.58264e-05
4.71953e-05
0.000207165
0.000207961
0.00020725
4.70284e-05
4.73701e-05
4.77732e-05
4.81797e-05
4.8587e-05
4.89941e-05
4.94004e-05
4.98054e-05
5.02086e-05
5.06099e-05
5.10088e-05
5.14051e-05
5.17986e-05
5.21888e-05
5.25756e-05
5.29587e-05
5.33376e-05
5.37122e-05
5.40821e-05
5.4447e-05
5.48065e-05
5.51605e-05
5.55086e-05
5.58508e-05
5.61871e-05
5.65177e-05
5.68434e-05
5.71699e-05
5.74881e-05
5.77974e-05
5.80978e-05
5.83891e-05
5.86709e-05
5.89428e-05
5.92045e-05
5.94554e-05
5.96953e-05
5.99236e-05
6.01401e-05
6.03442e-05
6.05357e-05
6.07141e-05
6.08791e-05
6.10305e-05
6.11678e-05
6.12907e-05
6.13991e-05
6.14927e-05
6.15712e-05
6.16346e-05
6.16826e-05
6.17151e-05
6.17322e-05
6.17337e-05
6.17197e-05
6.16902e-05
6.16454e-05
6.15854e-05
6.15105e-05
6.14209e-05
6.1317e-05
6.1199e-05
6.10675e-05
6.09229e-05
6.07656e-05
6.05964e-05
6.04158e-05
6.02244e-05
6.00229e-05
5.9812e-05
5.95924e-05
5.9365e-05
5.91304e-05
5.88893e-05
5.86426e-05
5.8391e-05
5.81352e-05
5.78759e-05
5.76138e-05
5.73495e-05
5.70836e-05
5.68166e-05
5.65491e-05
5.62814e-05
5.60139e-05
5.57468e-05
5.54806e-05
5.52153e-05
5.4951e-05
5.46873e-05
5.44247e-05
5.41631e-05
5.39018e-05
5.36398e-05
5.33784e-05
5.31165e-05
5.28551e-05
5.26096e-05
5.24849e-05
5.24086e-05
5.23416e-05
5.22809e-05
5.2226e-05
5.21757e-05
5.2129e-05
5.20845e-05
5.20407e-05
5.19956e-05
5.19472e-05
5.1893e-05
5.18306e-05
5.17569e-05
5.16686e-05
5.15622e-05
5.14335e-05
5.12782e-05
5.1091e-05
5.08659e-05
5.05954e-05
5.02685e-05
4.98728e-05
4.93867e-05
4.86558e-05
4.73315e-05
1.47447e-06
3.124e-05
6.56088e-05
9.05285e-05
0.000107405
0.000120414
0.000132072
0.000143633
0.000155513
0.000167653
0.000179834
0.00019184
0.000203519
0.000214789
0.000225619
0.000236017
0.000246007
0.000255622
0.00026489
0.000273832
0.00028246
0.000290772
0.000298754
0.000306378
0.000313607
0.000320393
0.000326675
0.000332375
0.000337388
0.000341558
0.000344672
0.000346446
0.000346546
0.000344639
0.00034047
0.000333643
0.000321856
0.0002963
0.000330354
0.000330358
0.000325336
0.000314254
0.000284549
0.000286058
0.000303971
0.000289631
0.000295452
0.000320328
0.000317322
0.000318256
0.000315866
0.000304412
0.000309979
0.00033217
0.000335272
0.000333826
0.000320785
0.000322835
0.000326424
0.000330291
0.000334285
0.000338366
0.000342515
0.000346724
0.000350986
0.000355299
0.000359661
0.000364072
0.000368529
0.000373032
0.00037758
0.000382171
0.000386804
0.000391477
0.000396187
0.000400931
0.000405704
0.000410501
0.000415311
0.000420124
0.000424919
0.00042967
0.000434347
0.000438729
0.000443066
0.000447388
0.000451698
0.000455991
0.000460263
0.000464509
0.000468724
0.000472903
0.00047704
0.000481129
0.000485165
0.00048914
0.00049305
0.000496886
0.000500644
0.000504317
0.000507897
0.000511379
0.000514755
0.00051802
0.000521166
0.000524188
0.000527079
0.000529834
0.000532447
0.000534912
0.000537224
0.00053938
0.000541375
0.000543205
0.000544867
0.00054636
0.000547681
0.000548829
0.000549804
0.000550606
0.000551236
0.000551697
0.00055199
0.00055212
0.000552091
0.000551908
0.000551575
0.000551101
0.000550492
0.000549755
0.000548899
0.000547932
0.000546864
0.000545705
0.000544463
0.000543149
0.000541772
0.000540345
0.000538876
0.000537377
0.000535855
0.000534321
0.000532788
0.000531264
0.000529755
0.000528267
0.000526817
0.000525408
0.000524043
0.000522723
0.000521459
0.00052023
0.000519
0.000517597
0.000515278
0.000512104
0.000508627
0.000504994
0.000501241
0.00049737
0.000493373
0.000489236
0.000484943
0.000480471
0.0004758
0.000470903
0.000465753
0.000460322
0.000454578
0.000448488
0.000442017
0.000435128
0.000427781
0.000419933
0.000411538
0.000402533
0.000392813
0.000382232
0.000369684
0.000346989
2.87981e-06
4.88925e-05
0.000100175
0.000137161
0.000163543
0.000183291
0.000199396
0.000213843
0.000227759
0.000241639
0.000255613
0.00026964
0.000283635
0.000297518
0.000311239
0.000324766
0.000338086
0.000351188
0.000364063
0.000376695
0.00038906
0.000401124
0.000412847
0.000424183
0.000435078
0.000445478
0.000455326
0.000464559
0.000473106
0.000480884
0.000487802
0.000493777
0.000498764
0.000502814
0.000506131
0.00050905
0.000511823
0.000514858
0.000522751
0.000527662
0.000531889
0.000535353
0.000537529
0.000543382
0.000551003
0.00055606
0.000563078
0.000571499
0.000577063
0.000583292
0.000589247
0.000594797
0.000602716
0.000611904
0.000619085
0.000625447
0.000630925
0.000638481
0.000646628
0.000654976
0.000663444
0.000672008
0.000680663
0.000689401
0.00069822
0.000707118
0.000716091
0.000725137
0.000734253
0.000743435
0.00075268
0.000761983
0.000771338
0.000780739
0.000790178
0.000799647
0.000809135
0.000818628
0.00082811
0.000837563
0.000846968
0.000856303
0.000865433
0.000874409
0.000883328
0.000892213
0.000901063
0.000909873
0.000918634
0.000927336
0.000935969
0.000944522
0.000952984
0.000961344
0.000969591
0.000977711
0.000985692
0.000993523
0.00100119
0.00100868
0.00101598
0.00102308
0.00102996
0.00103661
0.00104302
0.00104918
0.00105506
0.00106067
0.00106599
0.00107101
0.00107571
0.00108009
0.00108414
0.00108786
0.00109122
0.00109424
0.0010969
0.00109921
0.00110115
0.00110273
0.00110396
0.00110483
0.00110534
0.00110552
0.00110535
0.00110486
0.00110405
0.00110293
0.00110152
0.00109984
0.00109789
0.0010957
0.00109328
0.00109065
0.00108783
0.00108484
0.0010817
0.00107842
0.00107504
0.00107156
0.001068
0.00106438
0.00106072
0.00105704
0.00105335
0.00104965
0.00104599
0.00104234
0.00103873
0.00103515
0.00103161
0.00102805
0.00102442
0.00102049
0.00101572
0.00101007
0.00100394
0.000997526
0.000990889
0.000984054
0.000977012
0.000969741
0.000962213
0.00095439
0.000946231
0.000937687
0.000928706
0.000919231
0.000909201
0.000898548
0.000887202
0.000875088
0.000862124
0.000848223
0.00083329
0.000817214
0.000799834
0.000780848
0.000759003
0.000730033
4.41138e-06
6.07987e-05
0.000123635
0.000170828
0.000205427
0.000231521
0.000252363
0.000270291
0.000286832
0.000302873
0.000318852
0.000334936
0.000351157
0.000367484
0.000383871
0.00040027
0.000416639
0.000432937
0.000449123
0.000465155
0.00048099
0.00049658
0.000511878
0.000526837
0.000541413
0.000555566
0.000569261
0.000582466
0.000595157
0.000607312
0.00061892
0.00062999
0.000640567
0.000650744
0.000660673
0.000670536
0.000680483
0.000690623
0.00070116
0.0007115
0.000721837
0.000732152
0.000742422
0.000753055
0.000763853
0.000774436
0.000785114
0.000795847
0.000806342
0.000816997
0.000827732
0.000838558
0.000849723
0.00086105
0.000872283
0.000883541
0.000894888
0.000906607
0.000918531
0.000930574
0.000942712
0.000954939
0.000967253
0.000979654
0.000992139
0.00100471
0.00101735
0.00103007
0.00104286
0.00105572
0.00106863
0.0010816
0.00109461
0.00110766
0.00112073
0.00113381
0.0011469
0.00115997
0.00117301
0.001186
0.00119893
0.00121178
0.00122444
0.001237
0.0012495
0.00126194
0.00127434
0.00128667
0.00129894
0.00131112
0.0013232
0.00133517
0.00134702
0.00135874
0.00137029
0.00138168
0.00139289
0.00140389
0.00141468
0.00142523
0.00143553
0.00144556
0.00145531
0.00146475
0.00147387
0.00148266
0.00149109
0.00149915
0.00150682
0.00151409
0.00152094
0.00152736
0.00153334
0.00153885
0.00154391
0.00154848
0.00155257
0.00155616
0.00155926
0.00156187
0.00156397
0.00156557
0.00156668
0.00156729
0.00156743
0.00156709
0.00156629
0.00156504
0.00156336
0.00156127
0.00155878
0.00155591
0.00155268
0.00154913
0.00154526
0.00154111
0.00153669
0.00153204
0.00152718
0.00152213
0.00151691
0.00151154
0.00150606
0.00150048
0.00149481
0.00148908
0.00148329
0.00147746
0.00147159
0.00146568
0.00145972
0.00145368
0.00144747
0.00144091
0.0014337
0.00142577
0.00141731
0.00140847
0.00139932
0.0013899
0.0013802
0.00137018
0.00135983
0.0013491
0.00133793
0.00132627
0.00131406
0.00130122
0.00128768
0.00127336
0.00125817
0.00124202
0.00122481
0.00120644
0.0011868
0.00116579
0.00114323
0.00111888
0.00109183
0.0010603
5.78239e-06
6.95257e-05
0.000141314
0.000196848
0.000238531
0.00027041
0.000295853
0.000317383
0.000336769
0.000355161
0.000373236
0.00039135
0.000409657
0.000428198
0.000446956
0.000465885
0.000484932
0.000504038
0.000523146
0.000542198
0.00056114
0.000579921
0.000598493
0.000616814
0.000634848
0.000652565
0.000669942
0.000686963
0.00070362
0.000719912
0.000735847
0.000751447
0.000766749
0.00078181
0.000796699
0.000811486
0.000826218
0.000840914
0.000855576
0.000870167
0.000884704
0.000899178
0.000913573
0.000927916
0.000942188
0.000956358
0.000970456
0.000984504
0.000998515
0.00101256
0.00102665
0.00104079
0.00105502
0.00106932
0.00108369
0.00109815
0.00111272
0.00112741
0.00114219
0.00115706
0.00117199
0.001187
0.00120209
0.00121725
0.00123248
0.00124778
0.00126315
0.00127859
0.00129408
0.00130962
0.00132521
0.00134083
0.00135649
0.00137216
0.00138784
0.00140351
0.00141917
0.00143481
0.0014504
0.00146594
0.00148141
0.00149676
0.00151198
0.00152712
0.00154219
0.0015572
0.00157215
0.00158703
0.00160182
0.00161653
0.00163112
0.0016456
0.00165993
0.00167412
0.00168814
0.00170197
0.0017156
0.00172901
0.00174219
0.00175511
0.00176775
0.0017801
0.00179214
0.00180384
0.00181519
0.00182617
0.00183676
0.00184693
0.00185667
0.00186596
0.00187478
0.00188311
0.00189094
0.00189824
0.001905
0.00191122
0.00191687
0.00192195
0.00192644
0.00193035
0.00193365
0.00193636
0.00193847
0.00193998
0.0019409
0.00194123
0.00194098
0.00194016
0.00193879
0.00193688
0.00193444
0.00193151
0.00192809
0.00192422
0.00191991
0.00191519
0.00191008
0.00190462
0.00189883
0.00189272
0.00188634
0.00187969
0.00187282
0.00186572
0.00185844
0.00185097
0.00184334
0.00183556
0.00182763
0.00181956
0.00181132
0.0018029
0.00179421
0.00178515
0.00177552
0.00176528
0.0017545
0.00174327
0.00173166
0.00171968
0.00170733
0.0016946
0.00168145
0.00166784
0.00165372
0.00163902
0.00162369
0.00160766
0.00159085
0.00157318
0.00155456
0.0015349
0.00151412
0.00149211
0.00146879
0.00144407
0.00141784
0.00138996
0.00135992
0.00132711
6.85795e-06
7.61363e-05
0.000154836
0.000217171
0.00026496
0.000302093
0.000331926
0.000357055
0.000379384
0.000400231
0.00042045
0.000440553
0.000460812
0.000481346
0.000502184
0.000523302
0.000544649
0.000566164
0.000587782
0.000609439
0.000631076
0.000652639
0.000674079
0.000695356
0.000716433
0.000737284
0.000757886
0.000778225
0.00079829
0.00081808
0.000837597
0.00085685
0.000875858
0.000894642
0.000913229
0.00093164
0.00094989
0.000967983
0.000985919
0.0010037
0.00102132
0.0010388
0.00105611
0.00107327
0.0010903
0.00110719
0.00112396
0.00114065
0.00115727
0.00117386
0.00119044
0.00120703
0.00122363
0.00124026
0.00125693
0.00127366
0.00129044
0.00130727
0.00132416
0.0013411
0.00135809
0.00137513
0.00139223
0.00140938
0.00142658
0.00144384
0.00146114
0.00147849
0.00149588
0.0015133
0.00153075
0.00154821
0.00156569
0.00158317
0.00160064
0.00161809
0.00163551
0.00165289
0.00167023
0.0016875
0.00170471
0.00172178
0.00173875
0.00175564
0.00177247
0.00178925
0.00180596
0.00182261
0.00183917
0.00185564
0.00187201
0.00188827
0.00190439
0.00192037
0.00193619
0.00195183
0.00196727
0.00198251
0.00199751
0.00201226
0.00202675
0.00204095
0.00205484
0.00206841
0.00208162
0.00209447
0.00210692
0.00211895
0.00213055
0.00214169
0.00215234
0.0021625
0.00217213
0.00218121
0.00218973
0.00219766
0.002205
0.00221171
0.0022178
0.00222324
0.00222802
0.00223214
0.00223559
0.00223836
0.00224046
0.00224187
0.00224261
0.00224269
0.00224211
0.00224087
0.002239
0.00223651
0.00223342
0.00222975
0.00222551
0.00222074
0.00221544
0.00220966
0.00220341
0.00219672
0.00218961
0.0021821
0.00217423
0.002166
0.00215744
0.00214856
0.00213939
0.00212994
0.0021202
0.00211018
0.00209987
0.00208925
0.00207827
0.00206685
0.00205488
0.00204233
0.00202922
0.0020156
0.0020015
0.00198695
0.00197195
0.00195648
0.00194051
0.001924
0.00190692
0.00188921
0.00187082
0.00185168
0.00183173
0.00181089
0.0017891
0.00176628
0.00174236
0.00171726
0.00169092
0.00166331
0.00163437
0.00160409
0.00157219
0.0015386
7.65908e-06
8.09931e-05
0.000164933
0.000232773
0.000285792
0.000327649
0.000361607
0.000390252
0.000415541
0.00043889
0.000461274
0.000483322
0.000505412
0.000527742
0.000550393
0.000573377
0.00059666
0.000620188
0.000643899
0.000667728
0.000691612
0.000715496
0.000739329
0.000763067
0.000786671
0.000810111
0.00083336
0.000856397
0.000879206
0.000901775
0.000924097
0.000946169
0.00096799
0.000989565
0.0010109
0.00103199
0.00105285
0.00107347
0.00109386
0.00111402
0.00113395
0.00115365
0.00117315
0.00119244
0.00121153
0.00123046
0.00124924
0.00126789
0.00128643
0.00130489
0.00132329
0.00134165
0.00135998
0.0013783
0.00139662
0.00141494
0.00143328
0.00145164
0.00147002
0.00148842
0.00150685
0.0015253
0.00154379
0.00156231
0.00158086
0.00159944
0.00161805
0.00163668
0.00165532
0.00167399
0.00169265
0.00171132
0.00172998
0.00174863
0.00176726
0.00178585
0.0018044
0.00182291
0.00184136
0.00185975
0.00187806
0.00189624
0.00191434
0.00193239
0.00195038
0.00196832
0.00198621
0.00200404
0.00202181
0.0020395
0.0020571
0.00207461
0.002092
0.00210927
0.00212641
0.00214339
0.0021602
0.00217683
0.00219326
0.00220946
0.00222543
0.00224114
0.00225657
0.00227171
0.00228652
0.00230099
0.0023151
0.00232881
0.00234212
0.00235498
0.00236738
0.00237929
0.0023907
0.00240156
0.00241186
0.00242158
0.00243068
0.00243916
0.00244699
0.00245415
0.00246062
0.00246638
0.00247143
0.00247575
0.00247932
0.00248215
0.00248423
0.00248557
0.00248616
0.00248599
0.00248509
0.00248345
0.00248111
0.00247805
0.00247432
0.00246991
0.00246485
0.00245916
0.00245286
0.00244598
0.00243852
0.00243053
0.00242201
0.00241298
0.00240347
0.0023935
0.00238307
0.00237221
0.00236091
0.00234919
0.00233704
0.00232444
0.00231136
0.00229775
0.00228355
0.00226874
0.00225332
0.00223732
0.00222076
0.00220365
0.00218599
0.00216778
0.002149
0.00212962
0.0021096
0.00208891
0.00206751
0.00204535
0.00202238
0.00199855
0.0019738
0.00194808
0.00192136
0.00189358
0.00186472
0.00183479
0.0018038
0.0017718
0.00173868
0.00170452
8.22142e-06
8.43075e-05
0.000172077
0.000244301
0.000301743
0.000347788
0.000385551
0.000417551
0.000445741
0.000471576
0.000496104
0.00052004
0.000543844
0.000567787
0.000592009
0.000616558
0.00064143
0.000666588
0.000691977
0.000717537
0.000743207
0.000768929
0.00079465
0.000820323
0.000845904
0.000871358
0.000896651
0.000921757
0.000946652
0.000971315
0.00099573
0.00101989
0.00104377
0.00106737
0.0010907
0.00111373
0.00113648
0.00115893
0.0011811
0.00120298
0.00122458
0.00124591
0.00126698
0.00128781
0.00130841
0.0013288
0.001349
0.00136904
0.00138893
0.0014087
0.00142837
0.00144796
0.00146748
0.00148695
0.00150638
0.00152578
0.00154517
0.00156454
0.0015839
0.00160327
0.00162263
0.001642
0.00166138
0.00168077
0.00170017
0.00171958
0.00173899
0.00175841
0.00177782
0.00179723
0.00181663
0.00183601
0.00185538
0.00187471
0.00189401
0.00191328
0.00193249
0.00195165
0.00197076
0.00198979
0.00200874
0.00202759
0.00204638
0.00206513
0.00208385
0.00210253
0.00212118
0.00213979
0.00215836
0.00217687
0.00219533
0.00221371
0.00223202
0.00225023
0.00226834
0.00228634
0.0023042
0.00232193
0.00233949
0.00235687
0.00237406
0.00239104
0.00240779
0.00242428
0.0024405
0.00245643
0.00247204
0.0024873
0.0025022
0.00251669
0.00253076
0.00254439
0.00255754
0.00257018
0.00258228
0.00259382
0.00260476
0.00261509
0.00262478
0.00263378
0.00264209
0.00264967
0.00265651
0.0026626
0.0026679
0.00267239
0.00267608
0.00267895
0.002681
0.00268221
0.0026826
0.00268216
0.0026809
0.00267882
0.00267593
0.00267224
0.00266777
0.00266252
0.00265652
0.00264979
0.00264233
0.00263417
0.00262532
0.00261581
0.00260565
0.00259487
0.00258346
0.00257146
0.00255886
0.00254567
0.0025319
0.00251753
0.00250255
0.00248694
0.00247065
0.00245367
0.00243601
0.00241768
0.0023987
0.00237907
0.0023588
0.00233789
0.00231634
0.00229412
0.00227122
0.00224762
0.00222328
0.0021982
0.00217233
0.00214564
0.00211812
0.00208974
0.00206049
0.00203035
0.00199934
0.00196752
0.00193494
0.00190169
0.00186771
0.00183312
8.57083e-06
8.63132e-05
0.000176688
0.000252285
0.000313387
0.000363073
0.000404271
0.000439395
0.000470349
0.000498588
0.000525192
0.00055093
0.000576324
0.000601705
0.000627266
0.000653099
0.000679232
0.00070565
0.000732313
0.000759171
0.000786166
0.000813242
0.000840345
0.000867425
0.000894436
0.000921336
0.000948089
0.00097466
0.00100102
0.00102715
0.00105301
0.0010786
0.00110389
0.00112888
0.00115355
0.0011779
0.00120192
0.0012256
0.00124896
0.001272
0.00129472
0.00131714
0.00133926
0.00136111
0.00138269
0.00140404
0.00142517
0.0014461
0.00146686
0.00148746
0.00150793
0.00152828
0.00154853
0.00156871
0.00158881
0.00160886
0.00162886
0.00164883
0.00166876
0.00168868
0.00170858
0.00172846
0.00174833
0.0017682
0.00178805
0.0018079
0.00182774
0.00184756
0.00186737
0.00188716
0.00190693
0.00192666
0.00194637
0.00196604
0.00198567
0.00200526
0.00202479
0.00204427
0.00206369
0.00208304
0.00210231
0.00212152
0.0021407
0.00215986
0.00217901
0.00219815
0.00221728
0.0022364
0.0022555
0.00227458
0.00229363
0.00231264
0.00233161
0.00235053
0.00236939
0.00238818
0.00240688
0.00242549
0.00244398
0.00246236
0.00248058
0.00249865
0.00251655
0.00253425
0.00255174
0.00256899
0.00258598
0.00260269
0.00261908
0.00263513
0.00265082
0.0026661
0.00268097
0.00269538
0.00270929
0.00272266
0.00273548
0.00274771
0.00275934
0.00277028
0.00278053
0.00279005
0.00279882
0.00280682
0.00281401
0.00282036
0.00282587
0.00283051
0.00283426
0.00283712
0.00283906
0.00284009
0.00284019
0.00283937
0.00283762
0.00283496
0.00283137
0.00282687
0.00282147
0.00281518
0.00280802
0.00279999
0.00279111
0.0027814
0.00277087
0.00275954
0.00274742
0.00273453
0.00272087
0.00270646
0.00269129
0.00267538
0.00265871
0.00264126
0.00262304
0.00260402
0.00258422
0.00256365
0.00254231
0.00252024
0.00249742
0.00247388
0.00244962
0.00242463
0.00239892
0.00237248
0.0023453
0.00231739
0.00228874
0.00225934
0.00222921
0.00219836
0.00216679
0.00213455
0.00210169
0.00206828
0.00203442
0.00200024
0.00196566
0.00193076
8.73433e-06
8.72275e-05
0.000179145
0.000257195
0.000321228
0.000373998
0.000418221
0.000456178
0.000489692
0.000520189
0.000548747
0.000576164
0.000603002
0.000629639
0.000656314
0.00068316
0.000710239
0.000737561
0.000765108
0.000792839
0.000820708
0.000848662
0.000876648
0.000904617
0.000932522
0.000960317
0.000987963
0.00101542
0.00104267
0.00106966
0.00109638
0.00112281
0.00114891
0.00117469
0.00120013
0.00122522
0.00124995
0.00127432
0.00129834
0.00132201
0.00134534
0.00136834
0.00139103
0.00141341
0.00143552
0.00145736
0.00147896
0.00150034
0.00152152
0.00154253
0.00156337
0.00158409
0.00160468
0.00162517
0.00164557
0.0016659
0.00168616
0.00170638
0.00172655
0.00174668
0.00176679
0.00178687
0.00180693
0.00182697
0.00184699
0.00186699
0.00188697
0.00190693
0.00192686
0.00194677
0.00196664
0.00198648
0.00200629
0.00202605
0.00204577
0.00206545
0.00208507
0.00210464
0.00212415
0.0021436
0.00216301
0.0021824
0.00220179
0.00222118
0.00224059
0.00226002
0.00227946
0.00229892
0.00231839
0.00233788
0.00235737
0.00237686
0.00239634
0.00241582
0.00243527
0.00245471
0.0024741
0.00249345
0.00251275
0.00253197
0.0025511
0.00257014
0.00258906
0.00260785
0.00262649
0.00264496
0.00266324
0.00268131
0.00269912
0.00271665
0.00273387
0.00275077
0.00276731
0.00278347
0.00279917
0.00281438
0.00282907
0.00284322
0.00285679
0.00286972
0.00288198
0.00289353
0.00290434
0.00291437
0.00292359
0.00293196
0.00293945
0.00294604
0.00295169
0.00295638
0.0029601
0.00296282
0.00296453
0.00296521
0.00296486
0.00296346
0.00296102
0.00295754
0.00295301
0.00294744
0.00294084
0.00293321
0.00292457
0.00291492
0.00290428
0.00289267
0.00288008
0.00286655
0.00285207
0.00283666
0.00282033
0.00280308
0.00278492
0.00276583
0.00274584
0.00272493
0.00270311
0.0026804
0.00265682
0.00263239
0.00260712
0.00258103
0.00255414
0.00252647
0.00249803
0.00246883
0.00243891
0.00240827
0.00237694
0.00234496
0.00231235
0.00227917
0.00224547
0.00221133
0.00217681
0.00214205
0.00210716
0.00207225
0.00203727
0.00200218
8.73929e-06
8.72445e-05
0.000179788
0.000259454
0.000325718
0.000381011
0.000427819
0.000468267
0.00050408
0.000536626
0.000566964
0.000595893
0.000623999
0.000651693
0.000679248
0.000706836
0.000734549
0.000762426
0.000790469
0.000818655
0.000846949
0.000875307
0.000903681
0.000932023
0.000960289
0.000988433
0.00101642
0.0010442
0.00107175
0.00109904
0.00112603
0.00115272
0.00117907
0.00120507
0.00123071
0.00125599
0.00128089
0.00130542
0.00132958
0.00135338
0.00137682
0.00139992
0.00142269
0.00144515
0.00146732
0.00148922
0.00151087
0.00153229
0.0015535
0.00157452
0.00159538
0.00161609
0.00163668
0.00165716
0.00167754
0.00169784
0.00171808
0.00173827
0.0017584
0.00177851
0.00179857
0.00181862
0.00183864
0.00185863
0.00187861
0.00189857
0.00191851
0.00193842
0.00195831
0.00197817
0.001998
0.0020178
0.00203756
0.00205727
0.00207695
0.00209658
0.00211616
0.0021357
0.00215518
0.00217465
0.00219412
0.00221361
0.00223312
0.00225268
0.00227227
0.00229191
0.00231159
0.00233132
0.00235109
0.0023709
0.00239075
0.00241064
0.00243055
0.0024505
0.00247047
0.00249045
0.00251045
0.00253046
0.00255046
0.00257043
0.00259038
0.00261028
0.00263013
0.00264991
0.0026696
0.0026892
0.00270869
0.00272803
0.00274717
0.00276611
0.00278481
0.00280324
0.00282139
0.0028392
0.00285664
0.00287366
0.00289022
0.00290628
0.00292181
0.00293676
0.00295107
0.0029647
0.00297762
0.00298978
0.00300112
0.00301161
0.00302122
0.00302989
0.00303759
0.00304429
0.00304995
0.00305455
0.00305806
0.00306045
0.00306171
0.00306181
0.00306075
0.00305851
0.00305509
0.00305049
0.0030447
0.00303772
0.00302956
0.00302023
0.00300973
0.00299807
0.00298526
0.00297132
0.00295626
0.00294008
0.0029228
0.00290443
0.00288498
0.00286445
0.00284285
0.0028202
0.00279651
0.00277179
0.00274609
0.00271941
0.00269179
0.00266325
0.00263383
0.00260357
0.00257248
0.00254063
0.00250804
0.00247476
0.00244086
0.0024064
0.00237143
0.00233606
0.00230036
0.00226445
0.00222845
0.0021925
0.00215673
0.00212127
0.00208601
0.00205088
8.61247e-06
8.65358e-05
0.000178922
0.000259442
0.00032727
0.000384521
0.000433446
0.000475999
0.000513794
0.000548122
0.000580006
0.000610229
0.000639384
0.000667899
0.000696076
0.000724113
0.000752133
0.000780201
0.000808342
0.000836552
0.000864809
0.000893082
0.000921331
0.000949514
0.000977591
0.00100552
0.00103326
0.00106079
0.00108806
0.00111505
0.00114173
0.00116808
0.00119409
0.00121974
0.00124502
0.00126992
0.00129445
0.00131859
0.00134237
0.00136578
0.00138884
0.00141157
0.00143396
0.00145605
0.00147786
0.0014994
0.0015207
0.00154177