/*--------------------------------*- C++ -*----------------------------------*\
  =========                 |
  \\      /  F ield         | OpenFOAM: The Open Source CFD Toolbox
   \\    /   O peration     | Website:  https://openfoam.org
    \\  /    A nd           | Version:  7
     \\/     M anipulation  |
\*---------------------------------------------------------------------------*/
FoamFile
{
    version     2.0;
    format      ascii;
    class       volScalarField;
    location    "0.13";
    object      p;
}
// * * * * * * * * * * * * * * * * * * * * * * * * * * * * * * * * * * * * * //

dimensions      [0 2 -2 0 0 0 0];

internalField   nonuniform List<scalar> 
12225
(
-2.51879
-1.92259
-1.85797
-1.90826
-1.84344
-1.74153
-1.66602
-1.61558
-1.57618
-1.54379
-1.51888
-1.5009
-1.4884
-1.48011
-1.47535
-1.47311
-1.47465
-1.47119
-3.8716
-2.63505
-2.10388
-1.96389
-1.84992
-1.73572
-1.65655
-1.60531
-1.56639
-1.5349
-1.51089
-1.49368
-1.48182
-1.4741
-1.46983
-1.46822
-1.46969
-1.47275
-3.62851
-2.44671
-1.99055
-1.90154
-1.81792
-1.71806
-1.64426
-1.5953
-1.558
-1.52788
-1.50492
-1.48848
-1.4772
-1.46994
-1.46606
-1.46493
-1.46691
-1.4717
-3.1835
-2.33629
-1.96897
-1.8856
-1.80396
-1.708
-1.63598
-1.58775
-1.5513
-1.52213
-1.49994
-1.48407
-1.47322
-1.46632
-1.46273
-1.46199
-1.46404
-1.4694
-2.88878
-2.31274
-1.97933
-1.8741
-1.78807
-1.69596
-1.62617
-1.57878
-1.54322
-1.51507
-1.49375
-1.47855
-1.46823
-1.46178
-1.45855
-1.45814
-1.46018
-1.4654
-2.68212
-2.27703
-1.9707
-1.8521
-1.76716
-1.68117
-1.61449
-1.56833
-1.5339
-1.50693
-1.48662
-1.47218
-1.46246
-1.45651
-1.45366
-1.45353
-1.45556
-1.46044
-2.50471
-2.21458
-1.94601
-1.82469
-1.74319
-1.66381
-1.60071
-1.55621
-1.52318
-1.49758
-1.4784
-1.46484
-1.45582
-1.45041
-1.44798
-1.44812
-1.45018
-1.45475
-2.34432
-2.13845
-1.9124
-1.79379
-1.71597
-1.6432
-1.58422
-1.54186
-1.51057
-1.48657
-1.46871
-1.45617
-1.44796
-1.4432
-1.44126
-1.44169
-1.44387
-1.44823
-2.19966
-2.05562
-1.87057
-1.75835
-1.68474
-1.61876
-1.56449
-1.5248
-1.49559
-1.47345
-1.45713
-1.4458
-1.43855
-1.43456
-1.43319
-1.43401
-1.4364
-1.44071
-2.06815
-1.96811
-1.81999
-1.71749
-1.64909
-1.59009
-1.54106
-1.5046
-1.47785
-1.45786
-1.44331
-1.4334
-1.42728
-1.4242
-1.42353
-1.42485
-1.42758
-1.43201
-1.94639
-1.87713
-1.76108
-1.67082
-1.60874
-1.55685
-1.51353
-1.48086
-1.45698
-1.43944
-1.42693
-1.41867
-1.41388
-1.41187
-1.41206
-1.41402
-1.41722
-1.42193
-1.84087
-1.79123
-1.70014
-1.62247
-1.56715
-1.5219
-1.48422
-1.45552
-1.43469
-1.4197
-1.40932
-1.4028
-1.39943
-1.39857
-1.39969
-1.40239
-1.40616
-1.41132
-1.74045
-1.70465
-1.63468
-1.56976
-1.52171
-1.48321
-1.4514
-1.42707
-1.4096
-1.39743
-1.38942
-1.38484
-1.38307
-1.38353
-1.38573
-1.3893
-1.3938
-1.39949
-1.62891
-1.60428
-1.55397
-1.50331
-1.46425
-1.43365
-1.40885
-1.39001
-1.37687
-1.3683
-1.36334
-1.36129
-1.36162
-1.36382
-1.36747
-1.37224
-1.37774
-1.3842
-1.50407
-1.48838
-1.4554
-1.41992
-1.39172
-1.37034
-1.35379
-1.34177
-1.33415
-1.33021
-1.32916
-1.33041
-1.33349
-1.33801
-1.34361
-1.35001
-1.3569
-1.36447
-1.36252
-1.35396
-1.33591
-1.31593
-1.30034
-1.28974
-1.28285
-1.27918
-1.27855
-1.28052
-1.28451
-1.29004
-1.29675
-1.30435
-1.31256
-1.32119
-1.32999
-1.33914
-1.19853
-1.19592
-1.19101
-1.1867
-1.18549
-1.18755
-1.19208
-1.19855
-1.20669
-1.21618
-1.22662
-1.2377
-1.24916
-1.26083
-1.27252
-1.28414
-1.29552
-1.30686
-1.00234
-1.00536
-1.01322
-1.02558
-1.04104
-1.05836
-1.07673
-1.09567
-1.11483
-1.1339
-1.15264
-1.17088
-1.18852
-1.20551
-1.2218
-1.23738
-1.2522
-1.26648
-0.755969
-0.766183
-0.789699
-0.82265
-0.859095
-0.895699
-0.931519
-0.966231
-0.999407
-1.0307
-1.06002
-1.08741
-1.11297
-1.1368
-1.15901
-1.17973
-1.19902
-1.21719
-0.495464
-0.515202
-0.559297
-0.617889
-0.678654
-0.73645
-0.791035
-0.842484
-0.89024
-0.933981
-0.973896
-1.01036
-1.0437
-1.0742
-1.10214
-1.12777
-1.15133
-1.17318
-0.260098
-0.291256
-0.360227
-0.447295
-0.532076
-0.609307
-0.68084
-0.747159
-0.807393
-0.861408
-0.909891
-0.953587
-0.993041
-1.02871
-1.06103
-1.09041
-1.11718
-1.1418
-0.0197957
-0.0684852
-0.172793
-0.294776
-0.404438
-0.500414
-0.588483
-0.668969
-0.740436
-0.803328
-0.8591
-0.908878
-0.953388
-0.993262
-1.02911
-1.06149
-1.09081
-1.11762
0.231019
0.154457
0.000332096
-0.162102
-0.29535
-0.408889
-0.513121
-0.606716
-0.687787
-0.758039
-0.819851
-0.874613
-0.923178
-0.966374
-1.005
-1.03971
-1.071
-1.0995
0.498849
0.376296
0.153158
-0.0512189
-0.203285
-0.333207
-0.453526
-0.558783
-0.647512
-0.723595
-0.790287
-0.849013
-0.900721
-0.946456
-0.987182
-1.02366
-1.05645
-1.08621
0.792251
0.596155
0.278019
0.0353787
-0.126833
-0.271473
-0.407594
-0.52279
-0.617314
-0.697916
-0.768486
-0.830292
-0.884374
-0.932007
-0.974304
-1.0121
-1.04599
-1.07667
1.11616
0.819756
0.377819
0.100347
-0.0657078
-0.223365
-0.373437
-0.496253
-0.595012
-0.679164
-0.752803
-0.816967
-0.872826
-0.921874
-0.965337
-1.00409
-1.03879
-1.0701
1.45092
1.03023
0.467774
0.164263
-0.0129638
-0.188156
-0.349942
-0.477551
-0.579199
-0.666192
-0.742259
-0.808207
-0.865398
-0.91552
-0.959868
-0.999338
-1.03465
-1.06646
1.78796
1.10127
0.505898
0.245457
0.0540583
-0.153031
-0.329962
-0.462435
-0.567044
-0.656895
-0.735162
-0.802545
-0.860704
-0.911553
-0.956461
-0.996342
-1.03198
-1.06409
2.42086
0.882029
0.239593
0.147094
0.0292088
-0.167058
-0.341251
-0.469148
-0.571171
-0.660452
-0.738724
-0.806058
-0.864098
-0.914807
-0.959538
-0.999149
-1.0344
-1.06626
4.82307
1.89755
0.606708
0.332031
0.12875
-0.119775
-0.318806
-0.456874
-0.563801
-0.656238
-0.736704
-0.805568
-0.864737
-0.916351
-0.961821
-1.00197
-1.03738
-1.06814
-1.63849
-1.63847
-1.63879
-1.63941
-1.64022
-1.64124
-1.64254
-1.6442
-1.64627
-1.64879
-1.65179
-1.65531
-1.65938
-1.66401
-1.66922
-1.675
-1.68135
-1.68824
-1.69565
-1.70354
-1.71187
-1.72059
-1.72963
-1.73895
-1.74849
-1.75818
-1.76798
-1.77784
-1.7877
-1.79756
-1.80738
-1.81708
-1.82667
-1.83626
-1.84514
-1.85267
-1.86113
-1.87075
-1.87902
-1.88595
-1.89316
-1.90243
-1.91319
-1.92238
-1.91993
-1.92223
-1.93884
-1.95349
-1.95304
-1.94459
-1.94271
-1.94169
-1.95522
-1.96527
-1.95809
-1.95406
-1.95283
-1.95177
-1.94987
-1.94744
-1.94436
-1.94053
-1.9359
-1.9304
-1.92395
-1.91652
-1.90803
-1.89845
-1.88771
-1.87576
-1.86254
-1.84801
-1.83209
-1.81475
-1.79593
-1.77557
-1.75362
-1.73004
-1.70477
-1.6778
-1.64908
-1.61859
-1.58622
-1.55199
-1.51573
-1.47748
-1.43722
-1.39496
-1.35069
-1.30441
-1.25612
-1.20583
-1.15355
-1.09931
-1.04314
-0.985088
-0.925192
-0.863516
-0.800127
-0.7351
-0.668521
-0.600483
-0.531087
-0.460444
-0.388669
-0.315886
-0.242225
-0.16782
-0.0928108
-0.0173384
0.0584525
0.134416
0.210408
0.286284
0.361903
0.437126
0.511821
0.58586
0.659125
0.731503
0.802892
0.8732
0.942345
1.01026
1.07688
1.14216
1.20607
1.26858
1.32971
1.38944
1.4478
1.50483
1.56058
1.61512
1.66851
1.72085
1.77226
1.82283
1.87271
1.92204
1.97096
2.01964
2.06825
2.11696
2.16597
2.21547
2.26563
2.31666
2.36873
2.42205
2.47678
2.5331
2.59116
2.6511
2.71298
2.77684
2.84271
2.9106
2.98048
3.05229
3.12589
3.20108
3.27762
3.35519
3.43342
3.51189
3.5901
3.66754
3.74365
3.81786
3.88962
3.95842
4.02383
4.08559
4.14372
4.19861
4.25186
4.3065
4.37278
4.45681
-1.63679
-1.63717
-1.63767
-1.6382
-1.63846
-1.63854
-1.63875
-1.63931
-1.64035
-1.64194
-1.64408
-1.6468
-1.65011
-1.65403
-1.6586
-1.66383
-1.66972
-1.67626
-1.68342
-1.69117
-1.69944
-1.70817
-1.71728
-1.7267
-1.73636
-1.74616
-1.75604
-1.76595
-1.7758
-1.78554
-1.79507
-1.80435
-1.81331
-1.82176
-1.83019
-1.83991
-1.8492
-1.85616
-1.86302
-1.87145
-1.88014
-1.88653
-1.88982
-1.89137
-1.90439
-1.91481
-1.91147
-1.90654
-1.91294
-1.92774
-1.93458
-1.94152
-1.93445
-1.9277
-1.93677
-1.94308
-1.94509
-1.94437
-1.9431
-1.94116
-1.93846
-1.93496
-1.93061
-1.92537
-1.9192
-1.91205
-1.90386
-1.89459
-1.88417
-1.87257
-1.85972
-1.84557
-1.83007
-1.81316
-1.79479
-1.7749
-1.75345
-1.73038
-1.70563
-1.67917
-1.65092
-1.62087
-1.5889
-1.55495
-1.51916
-1.48145
-1.44178
-1.40013
-1.35648
-1.31082
-1.26316
-1.2135
-1.16186
-1.10825
-1.0527
-0.995259
-0.935967
-0.87488
-0.812064
-0.74759
-0.681543
-0.614011
-0.545095
-0.4749
-0.403542
-0.331141
-0.257825
-0.183727
-0.108984
-0.0337362
0.0418722
0.117697
0.193593
0.269416
0.345025
0.420281
0.495049
0.569201
0.642615
0.715177
0.786782
0.857334
0.926749
0.994951
1.06188
1.12748
1.19172
1.25457
1.31603
1.37608
1.43476
1.4921
1.54813
1.60292
1.65654
1.70908
1.76064
1.81133
1.86128
1.91063
1.95952
2.00812
2.0566
2.10512
2.15389
2.20307
2.25287
2.30348
2.35508
2.40785
2.46199
2.51767
2.57503
2.63422
2.69531
2.75833
2.82335
2.89037
2.95938
3.03029
3.103
3.17731
3.253
3.32975
3.40722
3.48499
3.5626
3.63954
3.71527
3.78925
3.86094
3.92985
3.9956
4.05791
4.11686
4.17282
4.22721
4.28236
4.34887
4.42281
-1.63281
-1.63428
-1.63577
-1.63685
-1.63733
-1.6375
-1.63769
-1.63817
-1.63911
-1.64059
-1.64265
-1.64533
-1.64866
-1.65264
-1.65728
-1.66258
-1.66855
-1.67514
-1.68234
-1.69008
-1.69832
-1.707
-1.71603
-1.72536
-1.73492
-1.74462
-1.75442
-1.76425
-1.77406
-1.78379
-1.79341
-1.80287
-1.81214
-1.82111
-1.8298
-1.83859
-1.84733
-1.85531
-1.86279
-1.87029
-1.87766
-1.88432
-1.88993
-1.89521
-1.90245
-1.90905
-1.91192
-1.9135
-1.91722
-1.92357
-1.92896
-1.93332
-1.93395
-1.93331
-1.93535
-1.93731
-1.93812
-1.93772
-1.93663
-1.93485
-1.93233
-1.92902
-1.92488
-1.91987
-1.91394
-1.90705
-1.89913
-1.89015
-1.88006
-1.86879
-1.8563
-1.84253
-1.82743
-1.81094
-1.79302
-1.7736
-1.75263
-1.73007
-1.70585
-1.67994
-1.65226
-1.62274
-1.59144
-1.55823
-1.52312
-1.48609
-1.44712
-1.40617
-1.36323
-1.3183
-1.27137
-1.22244
-1.17153
-1.11866
-1.06385
-1.00713
-0.948551
-0.888165
-0.826032
-0.762224
-0.696817
-0.629901
-0.56157
-0.491928
-0.421087
-0.349166
-0.276288
-0.202585
-0.128192
-0.053247
0.0221069
0.0977266
0.173468
0.249187
0.324742
0.399992
0.474804
0.549046
0.622596
0.695335
0.767157
0.837961
0.90766
0.976174
1.04344
1.10939
1.17399
1.23722
1.29904
1.35947
1.4185
1.47618
1.53253
1.58761
1.64148
1.69424
1.74597
1.79679
1.84682
1.89618
1.94503
1.99353
2.04183
2.09012
2.13857
2.18737
2.23672
2.28679
2.3378
2.3899
2.4433
2.49815
2.55461
2.61281
2.67286
2.73484
2.7988
2.86475
2.93267
3.0025
3.07413
3.14738
3.22203
3.29781
3.37437
3.45132
3.52821
3.60455
3.67985
3.75356
3.82519
3.89426
3.96039
4.02335
4.0832
4.14026
4.19586
4.25147
4.31484
4.37449
-1.62724
-1.62973
-1.63265
-1.63485
-1.63613
-1.63692
-1.6376
-1.63844
-1.63963
-1.64131
-1.64354
-1.64638
-1.64985
-1.65397
-1.65874
-1.66416
-1.6702
-1.67684
-1.68405
-1.69176
-1.69993
-1.70849
-1.71738
-1.72654
-1.73589
-1.74537
-1.75493
-1.76451
-1.77405
-1.78351
-1.79285
-1.80201
-1.81099
-1.81975
-1.82827
-1.83659
-1.84471
-1.85251
-1.85999
-1.86718
-1.87404
-1.88047
-1.88648
-1.89233
-1.89815
-1.90355
-1.90796
-1.91173
-1.91557
-1.91972
-1.92372
-1.92699
-1.92926
-1.93083
-1.93227
-1.93344
-1.93393
-1.93368
-1.93277
-1.93117
-1.92882
-1.92569
-1.92175
-1.91695
-1.91125
-1.90459
-1.89693
-1.88823
-1.87842
-1.86746
-1.85529
-1.84185
-1.8271
-1.81098
-1.79344
-1.77442
-1.75386
-1.73172
-1.70794
-1.68248
-1.65526
-1.62626
-1.59544
-1.56277
-1.52821
-1.49173
-1.45332
-1.41293
-1.37057
-1.32621
-1.27986
-1.23151
-1.18117
-1.12887
-1.07462
-1.01846
-0.960422
-0.900566
-0.838948
-0.775635
-0.710704
-0.644239
-0.576336
-0.507094
-0.436624
-0.365042
-0.292471
-0.21904
-0.144883
-0.070139
0.00505191
0.0805464
0.1562
0.23187
0.307413
0.382688
0.45756
0.531896
0.605572
0.678468
0.750473
0.821487
0.891415
0.960178
1.0277
1.09393
1.15881
1.22232
1.28442
1.34512
1.40441
1.46233
1.5189
1.57418
1.62822
1.68111
1.73293
1.7838
1.83383
1.88315
1.9319
1.98024
2.02833
2.07636
2.12448
2.1729
2.2218
2.27138
2.32182
2.3733
2.42602
2.48014
2.5358
2.59314
2.65227
2.71329
2.77629
2.84127
2.90821
2.97707
3.04772
3.12003
3.19377
3.26867
3.34442
3.42063
3.49688
3.57269
3.64757
3.72101
3.79252
3.86164
3.928
3.99137
4.05175
4.10938
4.16534
4.22013
4.27909
4.32802
-1.62191
-1.62544
-1.62973
-1.63311
-1.63534
-1.63691
-1.63826
-1.63966
-1.64133
-1.6434
-1.64599
-1.64913
-1.65288
-1.65725
-1.66223
-1.66782
-1.67398
-1.6807
-1.68793
-1.69561
-1.70371
-1.71215
-1.72088
-1.72984
-1.73897
-1.7482
-1.75749
-1.76679
-1.77604
-1.7852
-1.79424
-1.80312
-1.81181
-1.82029
-1.82856
-1.83661
-1.84442
-1.85195
-1.85919
-1.86615
-1.8728
-1.87911
-1.8851
-1.89085
-1.89637
-1.90152
-1.90614
-1.91034
-1.91436
-1.91822
-1.92175
-1.92477
-1.92717
-1.92906
-1.9306
-1.9317
-1.93221
-1.93206
-1.93127
-1.92978
-1.92758
-1.92461
-1.92084
-1.91622
-1.91071
-1.90426
-1.89682
-1.88834
-1.87877
-1.86806
-1.85616
-1.843
-1.82854
-1.81272
-1.79548
-1.77678
-1.75655
-1.73475
-1.71132
-1.68622
-1.65938
-1.63077
-1.60035
-1.56808
-1.53393
-1.49786
-1.45985
-1.41987
-1.37791
-1.33396
-1.28801
-1.24006
-1.19011
-1.13819
-1.08432
-1.02852
-0.970831
-0.911312
-0.850014
-0.787005
-0.722359
-0.656161
-0.588503
-0.519485
-0.449216
-0.377812
-0.305394
-0.232092
-0.158039
-0.0833739
-0.0082369
0.0672283
0.142877
0.218566
0.29415
0.369489
0.444445
0.518885
0.592681
0.665714
0.73787
0.809045
0.879145
0.948085
1.01579
1.0822
1.14727
1.21094
1.27322
1.33407
1.3935
1.45154
1.50821
1.56357
1.61766
1.67057
1.72238
1.7732
1.82314
1.87233
1.92092
1.96905
2.0169
2.06462
2.11241
2.16044
2.20891
2.25801
2.30793
2.35885
2.41096
2.46442
2.51939
2.576
2.63435
2.69458
2.75676
2.82092
2.88705
2.95509
3.02496
3.09649
3.1695
3.24371
3.31881
3.39444
3.47018
3.54557
3.62012
3.69335
3.76475
3.83388
3.90035
3.9639
4.02448
4.08217
4.13773
4.19087
4.24544
4.28561
-1.61843
-1.62266
-1.62797
-1.63234
-1.63544
-1.6378
-1.63986
-1.6419
-1.64413
-1.6467
-1.64972
-1.65325
-1.65734
-1.66199
-1.6672
-1.67297
-1.67927
-1.68606
-1.69331
-1.70096
-1.70896
-1.71727
-1.72582
-1.73456
-1.74344
-1.75241
-1.76141
-1.77041
-1.77935
-1.78821
-1.79695
-1.80554
-1.81395
-1.82217
-1.83019
-1.83798
-1.84555
-1.85286
-1.8599
-1.86668
-1.87317
-1.87938
-1.88532
-1.89098
-1.89637
-1.90141
-1.90607
-1.91039
-1.91444
-1.91822
-1.92164
-1.92461
-1.92708
-1.92909
-1.93066
-1.93175
-1.9323
-1.93223
-1.93154
-1.93017
-1.92809
-1.92526
-1.92165
-1.91719
-1.91185
-1.90558
-1.89833
-1.89006
-1.8807
-1.8702
-1.85852
-1.84559
-1.83137
-1.8158
-1.79882
-1.78037
-1.76042
-1.73889
-1.71574
-1.69092
-1.66438
-1.63607
-1.60595
-1.57398
-1.54013
-1.50436
-1.46664
-1.42695
-1.38527
-1.34159
-1.2959
-1.24821
-1.19851
-1.14683
-1.09318
-1.03759
-0.98011
-0.920777
-0.859651
-0.796798
-0.732292
-0.666216
-0.598663
-0.529733
-0.459534
-0.388182
-0.315799
-0.242514
-0.168462
-0.093781
-0.0186127
0.0568986
0.132608
0.208369
0.284039
0.359473
0.434533
0.509084
0.582999
0.656154
0.728436
0.799737
0.869963
0.939026
1.00685
1.07337
1.13854
1.20231
1.26465
1.32557
1.38504
1.4431
1.49978
1.55511
1.60915
1.66198
1.71369
1.76437
1.81414
1.86313
1.91148
1.95934
2.00688
2.05426
2.10167
2.14928
2.1973
2.24592
2.29532
2.34569
2.39721
2.45006
2.50438
2.56032
2.61799
2.67751
2.73898
2.80243
2.86786
2.93522
3.00442
3.07532
3.14771
3.22136
3.29595
3.37113
3.44647
3.52155
3.59586
3.66893
3.74025
3.80936
3.87588
3.93948
4.00003
4.05747
4.1122
4.16336
4.21393
4.24674
-1.6174
-1.62202
-1.62793
-1.63296
-1.63673
-1.63975
-1.64244
-1.64506
-1.64782
-1.65087
-1.65431
-1.6582
-1.6626
-1.66751
-1.67294
-1.67886
-1.68526
-1.6921
-1.69934
-1.70694
-1.71484
-1.723
-1.73137
-1.7399
-1.74854
-1.75725
-1.76597
-1.77468
-1.78334
-1.79191
-1.80037
-1.80869
-1.81684
-1.82482
-1.8326
-1.84017
-1.84753
-1.85466
-1.86155
-1.86819
-1.87458
-1.88071
-1.88658
-1.89218
-1.8975
-1.90251
-1.90719
-1.91156
-1.91562
-1.91938
-1.92279
-1.92578
-1.92834
-1.93043
-1.93206
-1.93321
-1.93381
-1.93384
-1.93324
-1.93199
-1.93004
-1.92735
-1.92387
-1.91956
-1.91438
-1.90828
-1.9012
-1.89309
-1.88391
-1.8736
-1.86211
-1.84938
-1.83536
-1.81999
-1.80321
-1.78498
-1.76524
-1.74393
-1.721
-1.6964
-1.67008
-1.642
-1.6121
-1.58035
-1.5467
-1.51113
-1.4736
-1.4341
-1.3926
-1.34908
-1.30355
-1.25601
-1.20644
-1.15488
-1.10134
-1.04585
-0.988452
-0.929186
-0.868112
-0.805296
-0.740813
-0.674745
-0.607185
-0.538235
-0.468001
-0.396602
-0.324159
-0.250804
-0.17667
-0.101898
-0.0266313
0.0489857
0.124806
0.200684
0.276472
0.352026
0.427205
0.501875
0.575904
0.649171
0.721557
0.792955
0.863268
0.932408
1.0003
1.06687
1.13207
1.19585
1.2582
1.31909
1.37853
1.43653
1.49312
1.54833
1.60224
1.65491
1.70642
1.75689
1.80641
1.85513
1.90317
1.95069
1.99786
2.04485
2.09183
2.139
2.18654
2.23464
2.28351
2.33332
2.38426
2.4365
2.49021
2.54551
2.60254
2.66142
2.72225
2.78506
2.84986
2.91661
2.98523
3.05557
3.12746
3.20063
3.2748
3.3496
3.42463
3.49946
3.57358
3.64652
3.71777
3.78686
3.85335
3.9169
3.97726
4.03421
4.08788
4.13698
4.18395
4.21061
-1.61894
-1.62363
-1.62972
-1.63507
-1.63925
-1.64274
-1.6459
-1.64898
-1.65217
-1.65561
-1.65939
-1.66358
-1.66823
-1.67334
-1.67892
-1.68495
-1.69141
-1.69826
-1.70546
-1.71299
-1.72078
-1.72879
-1.73698
-1.74531
-1.75373
-1.7622
-1.77068
-1.77914
-1.78754
-1.79586
-1.80407
-1.81216
-1.82009
-1.82786
-1.83545
-1.84285
-1.85006
-1.85705
-1.86382
-1.87037
-1.87669
-1.88276
-1.88859
-1.89417
-1.89947
-1.90449
-1.90921
-1.91363
-1.91773
-1.92152
-1.92496
-1.92801
-1.93064
-1.93283
-1.93455
-1.93577
-1.93647
-1.93659
-1.93611
-1.93497
-1.93314
-1.93058
-1.92724
-1.92307
-1.91803
-1.91207
-1.90514
-1.89719
-1.88816
-1.87801
-1.86668
-1.85411
-1.84025
-1.82505
-1.80844
-1.79037
-1.7708
-1.74965
-1.72689
-1.70245
-1.67629
-1.64836
-1.61862
-1.587
-1.55349
-1.51804
-1.48063
-1.44123
-1.39981
-1.35638
-1.31091
-1.26341
-1.21389
-1.16235
-1.10882
-1.05333
-0.995907
-0.936609
-0.875488
-0.812611
-0.748053
-0.681898
-0.614239
-0.545178
-0.474824
-0.403294
-0.330714
-0.257214
-0.182931
-0.108007
-0.0325848
0.043187
0.119161
0.19519
0.271124
0.346818
0.422129
0.496921
0.571062
0.644428
0.7169
0.788369
0.858735
0.92791
0.995816
1.06238
1.12756
1.1913
1.25358
1.31438
1.37371
1.43157
1.48799
1.54302
1.59671
1.64914
1.70039
1.75055
1.79976
1.84813
1.8958
1.94293
1.98968
2.03622
2.08273
2.12941
2.17643
2.22401
2.27232
2.32156
2.37192
2.42356
2.47666
2.53135
2.58777
2.64605
2.70627
2.76849
2.83271
2.89891
2.967
3.03685
3.10828
3.18104
3.25483
3.32932
3.40409
3.47869
3.55266
3.62548
3.69665
3.76567
3.83207
3.89546
3.95549
4.0118
4.06427
4.11129
4.15504
4.17659
-1.62273
-1.62722
-1.63314
-1.63847
-1.64282
-1.64655
-1.65
-1.65339
-1.65688
-1.66059
-1.66462
-1.66901
-1.67382
-1.67906
-1.68472
-1.6908
-1.69727
-1.70409
-1.71123
-1.71866
-1.72633
-1.7342
-1.74223
-1.75037
-1.75859
-1.76686
-1.77513
-1.78337
-1.79157
-1.79969
-1.80771
-1.81561
-1.82337
-1.83099
-1.83844
-1.84573
-1.85283
-1.85973
-1.86644
-1.87294
-1.87923
-1.88529
-1.89112
-1.89671
-1.90204
-1.90711
-1.91189
-1.91638
-1.92056
-1.92441
-1.92792
-1.93105
-1.93377
-1.93606
-1.93788
-1.93921
-1.94001
-1.94024
-1.93987
-1.93885
-1.93714
-1.93469
-1.93148
-1.92744
-1.92252
-1.91669
-1.90989
-1.90207
-1.89318
-1.88316
-1.87195
-1.85952
-1.84579
-1.83071
-1.81423
-1.79629
-1.77684
-1.75581
-1.73316
-1.70884
-1.68279
-1.65495
-1.62529
-1.59375
-1.56031
-1.52491
-1.48754
-1.44816
-1.40676
-1.36332
-1.31784
-1.27032
-1.22075
-1.16916
-1.11556
-1.05998
-1.00245
-0.943041
-0.881791
-0.818772
-0.754059
-0.687739
-0.619904
-0.550659
-0.480113
-0.408387
-0.335606
-0.261902
-0.187415
-0.112287
-0.0366654
0.0393007
0.115462
0.191668
0.26777
0.343618
0.41907
0.493985
0.568231
0.641683
0.71422
0.785734
0.856123
0.925298
0.993179
1.0597
1.1248
1.18844
1.25059
1.31124
1.37038
1.42804
1.48422
1.53899
1.5924
1.64451
1.69543
1.74523
1.79405
1.84202
1.88926
1.93594
1.98221
2.02826
2.07427
2.12042
2.1669
2.21392
2.26166
2.31032
2.36009
2.41113
2.46363
2.51772
2.57355
2.63125
2.69089
2.75255
2.81624
2.88192
2.94952
3.01892
3.08992
3.1623
3.23576
3.30995
3.38448
3.45888
3.53269
3.60538
3.67643
3.74533
3.81158
3.8747
3.93428
3.98982
4.04099
4.08596
4.12682
4.14411
-1.6282
-1.63229
-1.63775
-1.64281
-1.64708
-1.65086
-1.65443
-1.65797
-1.66162
-1.66548
-1.66963
-1.67414
-1.67902
-1.68431
-1.68999
-1.69605
-1.70248
-1.70923
-1.71629
-1.72361
-1.73115
-1.73888
-1.74676
-1.75474
-1.7628
-1.77089
-1.779
-1.78708
-1.79512
-1.80309
-1.81097
-1.81875
-1.82641
-1.83393
-1.84131
-1.84853
-1.85559
-1.86247
-1.86916
-1.87567
-1.88198
-1.88807
-1.89395
-1.8996
-1.905
-1.91014
-1.91501
-1.9196
-1.92388
-1.92783
-1.93144
-1.93468
-1.93751
-1.9399
-1.94184
-1.94328
-1.94419
-1.94453
-1.94427
-1.94336
-1.94176
-1.93943
-1.93632
-1.93239
-1.92759
-1.92186
-1.91517
-1.90746
-1.89867
-1.88875
-1.87765
-1.86531
-1.85167
-1.83669
-1.8203
-1.80245
-1.78307
-1.76213
-1.73955
-1.71529
-1.68929
-1.6615
-1.63187
-1.60035
-1.56691
-1.53151
-1.49411
-1.4547
-1.41325
-1.36975
-1.32419
-1.27657
-1.22689
-1.17517
-1.12143
-1.0657
-1.00801
-0.948414
-0.886969
-0.823743
-0.758813
-0.692265
-0.624195
-0.554707
-0.483915
-0.41194
-0.338908
-0.264955
-0.190222
-0.114854
-0.0389993
0.0371898
0.113561
0.189962
0.266241
0.34225
0.417843
0.492878
0.567221
0.640744
0.713329
0.784864
0.855246
0.924385
0.992201
1.05862
1.1236
1.18709
1.24906
1.30949
1.3684
1.42578
1.48167
1.53612
1.58917
1.64091
1.69143
1.74082
1.7892
1.83669
1.88346
1.92964
1.9754
2.02092
2.06638
2.11197
2.15789
2.20432
2.25148
2.29954
2.34871
2.39916
2.45106
2.50456
2.55981
2.61694
2.67603
2.73715
2.80032
2.86551
2.93265
3.00161
3.07222
3.14424
3.21738
3.29129
3.36556
3.43976
3.51339
3.58592
3.65681
3.72553
3.79153
3.85429
3.9133
3.96795
4.01776
4.06072
4.09895
4.11266
-1.63469
-1.63823
-1.64303
-1.64761
-1.65161
-1.65526
-1.65879
-1.66234
-1.66602
-1.66991
-1.6741
-1.67862
-1.6835
-1.68875
-1.69439
-1.70039
-1.70673
-1.71339
-1.72034
-1.72754
-1.73496
-1.74256
-1.7503
-1.75815
-1.76608
-1.77405
-1.78204
-1.79001
-1.79795
-1.80584
-1.81365
-1.82136
-1.82898
-1.83647
-1.84384
-1.85106
-1.85814
-1.86505
-1.87179
-1.87836
-1.88474
-1.89092
-1.89689
-1.90263
-1.90814
-1.9134
-1.91839
-1.9231
-1.9275
-1.93158
-1.93531
-1.93866
-1.94161
-1.94412
-1.94617
-1.94772
-1.94874
-1.94919
-1.94903
-1.94822
-1.94672
-1.94448
-1.94147
-1.93763
-1.93291
-1.92727
-1.92066
-1.91303
-1.90431
-1.89447
-1.88344
-1.87116
-1.85759
-1.84267
-1.82633
-1.80852
-1.7892
-1.76829
-1.74574
-1.7215
-1.6955
-1.66771
-1.63805
-1.60651
-1.57302
-1.53756
-1.50009
-1.46059
-1.41903
-1.37541
-1.32972
-1.28195
-1.23211
-1.18022
-1.12628
-1.07034
-1.01243
-0.952604
-0.890914
-0.827432
-0.762237
-0.695415
-0.627065
-0.557294
-0.486215
-0.413952
-0.340637
-0.266405
-0.1914
-0.115769
-0.0396629
0.0367649
0.113359
0.189963
0.266426
0.342595
0.418325
0.493471
0.567898
0.641475
0.714084
0.785611
0.855953
0.92502
0.992731
1.05902
1.12382
1.18711
1.24884
1.30901
1.36762
1.42467
1.48021
1.53428
1.58693
1.63824
1.68831
1.73722
1.78511
1.8321
1.87834
1.92397
1.96918
2.01414
2.05902
2.10403
2.14936
2.1952
2.24175
2.28921
2.33778
2.38763
2.43893
2.49185
2.54654
2.6031
2.66166
2.72225
2.78492
2.84963
2.91632
2.98486
3.05508
3.12674
3.19956
3.27318
3.3472
3.42117
3.49458
3.56691
3.63758
3.70604
3.7717
3.83399
3.89232
3.94597
3.99436
4.03535
4.07114
4.08182
-1.64154
-1.64445
-1.64845
-1.65239
-1.65598
-1.65937
-1.66273
-1.66616
-1.66975
-1.67358
-1.6777
-1.68215
-1.68695
-1.69212
-1.69766
-1.70355
-1.70978
-1.71633
-1.72316
-1.73024
-1.73754
-1.74502
-1.75266
-1.76041
-1.76825
-1.77614
-1.78406
-1.79198
-1.79988
-1.80775
-1.81555
-1.82328
-1.83091
-1.83845
-1.84586
-1.85316
-1.86031
-1.86732
-1.87417
-1.88084
-1.88734
-1.89365
-1.89976
-1.90564
-1.91129
-1.91669
-1.92183
-1.92667
-1.93121
-1.93542
-1.93928
-1.94276
-1.94583
-1.94845
-1.95061
-1.95227
-1.95338
-1.95392
-1.95385
-1.95312
-1.95169
-1.94953
-1.94658
-1.94281
-1.93815
-1.93257
-1.92601
-1.91842
-1.90975
-1.89995
-1.88895
-1.87671
-1.86317
-1.84827
-1.83195
-1.81416
-1.79484
-1.77393
-1.75137
-1.7271
-1.70107
-1.67322
-1.6435
-1.61188
-1.5783
-1.54273
-1.50515
-1.46551
-1.42382
-1.38004
-1.33417
-1.28621
-1.23617
-1.18406
-1.12989
-1.0737
-1.01554
-0.955439
-0.893471
-0.829702
-0.764211
-0.697088
-0.628431
-0.558351
-0.486962
-0.414392
-0.340774
-0.266247
-0.190956
-0.11505
-0.0386828
0.0379886
0.114807
0.191613
0.268254
0.344575
0.420427
0.495667
0.570156
0.643764
0.716368
0.787856
0.858124
0.927081
0.994646
1.06075
1.12534
1.18838
1.24983
1.30968
1.36794
1.42462
1.47976
1.53339
1.58559
1.63643
1.68599
1.73439
1.78174
1.82818
1.87386
1.91893
1.96355
2.00791
2.0522
2.09661
2.14132
2.18655
2.2325
2.27935
2.32731
2.37656
2.42728
2.47963
2.53375
2.58977
2.64779
2.70787
2.77005
2.83429
2.90053
2.96865
3.03848
3.10979
3.18227
3.25559
3.32933
3.40302
3.47618
3.54823
3.61861
3.68672
3.75194
3.81364
3.87116
3.92371
3.97062
4.00968
4.04315
4.05124
-1.64816
-1.6504
-1.65352
-1.65675
-1.65982
-1.66283
-1.6659
-1.66911
-1.67253
-1.6762
-1.68018
-1.68449
-1.68916
-1.69419
-1.6996
-1.70535
-1.71145
-1.71786
-1.72457
-1.73154
-1.73873
-1.74613
-1.75369
-1.76137
-1.76917
-1.77703
-1.78494
-1.79287
-1.80079
-1.8087
-1.81656
-1.82436
-1.83208
-1.83972
-1.84726
-1.85468
-1.86197
-1.86913
-1.87613
-1.88297
-1.88964
-1.89611
-1.90238
-1.90843
-1.91425
-1.91981
-1.9251
-1.93009
-1.93478
-1.93912
-1.9431
-1.9467
-1.94987
-1.9526
-1.95485
-1.95658
-1.95777
-1.95838
-1.95836
-1.95769
-1.95631
-1.95419
-1.95127
-1.94753
-1.9429
-1.93734
-1.9308
-1.92322
-1.91456
-1.90476
-1.89377
-1.88153
-1.86798
-1.85306
-1.83673
-1.81892
-1.79958
-1.77863
-1.75601
-1.73167
-1.70556
-1.67762
-1.6478
-1.61607
-1.58236
-1.54666
-1.50893
-1.46913
-1.42726
-1.38329
-1.33722
-1.28905
-1.23878
-1.18642
-1.13201
-1.07555
-1.01711
-0.956724
-0.89446
-0.830387
-0.764585
-0.697147
-0.628173
-0.557773
-0.486068
-0.413184
-0.339259
-0.264435
-0.188858
-0.112681
-0.0360597
0.0408459
0.117876
0.194871
0.271672
0.348125
0.424079
0.499387
0.573911
0.647518
0.720086
0.7915
0.861658
0.930466
0.997845
1.06373
1.12806
1.1908
1.25192
1.31141
1.36928
1.42554
1.48023
1.53339
1.58509
1.63541
1.68443
1.73228
1.77907
1.82493
1.87001
1.91448
1.9585
2.00225
2.04593
2.08971
2.13381
2.17843
2.22376
2.27001
2.31737
2.36603
2.41616
2.46794
2.52151
2.57699
2.63449
2.69407
2.75576
2.81953
2.88533
2.95303
3.02247
3.0934
3.16553
3.2385
3.31192
3.3853
3.45813
3.52984
3.59983
3.66749
3.73215
3.79313
3.84972
3.90106
3.94641
3.98354
4.01477
4.02062
-1.65409
-1.65565
-1.65788
-1.66033
-1.66282
-1.66538
-1.66808
-1.67099
-1.67414
-1.67758
-1.68135
-1.68546
-1.68995
-1.69481
-1.70004
-1.70564
-1.71159
-1.71787
-1.72446
-1.73133
-1.73844
-1.74577
-1.75328
-1.76095
-1.76874
-1.77663
-1.78458
-1.79257
-1.80058
-1.80859
-1.81657
-1.82451
-1.83238
-1.84019
-1.8479
-1.8555
-1.86298
-1.87033
-1.87753
-1.88457
-1.89143
-1.8981
-1.90455
-1.91078
-1.91677
-1.92249
-1.92793
-1.93307
-1.93788
-1.94234
-1.94643
-1.95011
-1.95337
-1.95616
-1.95847
-1.96025
-1.96148
-1.96211
-1.96212
-1.96146
-1.96009
-1.95796
-1.95505
-1.95129
-1.94665
-1.94108
-1.93452
-1.92692
-1.91824
-1.90841
-1.89739
-1.88511
-1.87152
-1.85657
-1.8402
-1.82234
-1.80293
-1.7819
-1.75919
-1.73475
-1.70853
-1.68047
-1.65052
-1.61865
-1.5848
-1.54894
-1.51103
-1.47106
-1.42899
-1.38482
-1.33854
-1.29014
-1.23963
-1.18703
-1.13235
-1.07562
-1.0169
-0.956226
-0.893665
-0.829289
-0.763181
-0.695432
-0.626147
-0.555437
-0.483425
-0.410241
-0.336023
-0.260917
-0.185071
-0.108642
-0.0317884
0.0453289
0.122547
0.199703
0.276637
0.353193
0.429216
0.504561
0.579085
0.652656
0.725149
0.796451
0.866458
0.935076
1.00223
1.06784
1.13187
1.19428
1.25503
1.31412
1.37155
1.42735
1.48155
1.5342
1.58537
1.63514
1.6836
1.73086
1.77705
1.82231
1.86678
1.91064
1.95404
1.99717
2.04022
2.08339
2.12687
2.17088
2.2156
2.26125
2.30802
2.35609
2.40566
2.45688
2.50991
2.56486
2.62185
2.68093
2.74214
2.80545
2.8708
2.93808
3.0071
3.07763
3.14937
3.22197
3.29501
3.36801
3.44043
3.51171
3.58122
3.64829
3.71226
3.77239
3.82791
3.87792
3.92162
3.95679
3.98579
3.98966
-1.65895
-1.65992
-1.66128
-1.66295
-1.6648
-1.66685
-1.66911
-1.67163
-1.67445
-1.67759
-1.68109
-1.68495
-1.68921
-1.69386
-1.6989
-1.70432
-1.71012
-1.71627
-1.72274
-1.72952
-1.73657
-1.74387
-1.75137
-1.75906
-1.76689
-1.77485
-1.78289
-1.791
-1.79915
-1.80732
-1.81547
-1.8236
-1.83168
-1.8397
-1.84762
-1.85545
-1.86316
-1.87073
-1.87815
-1.8854
-1.89246
-1.89932
-1.90596
-1.91236
-1.91851
-1.92437
-1.92994
-1.93519
-1.94009
-1.94463
-1.94878
-1.95252
-1.95581
-1.95863
-1.96094
-1.96273
-1.96395
-1.96456
-1.96454
-1.96385
-1.96244
-1.96028
-1.95732
-1.95352
-1.94882
-1.9432
-1.93658
-1.92893
-1.92019
-1.91031
-1.89923
-1.88689
-1.87325
-1.85824
-1.84179
-1.82384
-1.80433
-1.78319
-1.76036
-1.7358
-1.70945
-1.68125
-1.65116
-1.61914
-1.58513
-1.5491
-1.51102
-1.47087
-1.42861
-1.38424
-1.33775
-1.28913
-1.23839
-1.18555
-1.13062
-1.07364
-1.01465
-0.953707
-0.890869
-0.826212
-0.759819
-0.691785
-0.622215
-0.551223
-0.478933
-0.405479
-0.331
-0.255644
-0.179565
-0.102919
-0.0258675
0.0514243
0.128792
0.206071
0.283099
0.359716
0.435769
0.511108
0.585591
0.659083
0.73146
0.802608
0.872421
0.940808
1.00769
1.073
1.13669
1.19871
1.25906
1.31771
1.37467
1.42998
1.48366
1.53577
1.58637
1.63556
1.68343
1.7301
1.77568
1.82032
1.86418
1.90741
1.95019
1.9927
2.03513
2.07769
2.12056
2.16396
2.20809
2.25315
2.29934
2.34685
2.39586
2.44655
2.49904
2.55349
2.60997
2.66857
2.7293
2.79215
2.85705
2.92388
2.99246
3.06257
3.13388
3.20606
3.27865
3.35119
3.42313
3.49386
3.56275
3.62912
3.69225
3.75137
3.80567
3.8542
3.89614
3.9293
3.95603
3.95813
-1.66285
-1.66316
-1.66372
-1.66462
-1.66581
-1.66727
-1.66901
-1.67106
-1.67345
-1.6762
-1.67934
-1.68288
-1.68684
-1.69122
-1.69603
-1.70125
-1.70686
-1.71287
-1.71923
-1.72592
-1.73293
-1.7402
-1.74772
-1.75546
-1.76337
-1.77143
-1.77962
-1.78789
-1.79622
-1.80458
-1.81296
-1.82132
-1.82963
-1.83789
-1.84607
-1.85414
-1.86208
-1.86988
-1.87752
-1.88498
-1.89223
-1.89927
-1.90606
-1.9126
-1.91886
-1.92483
-1.93047
-1.93578
-1.94073
-1.9453
-1.94945
-1.95318
-1.95645
-1.95924
-1.96151
-1.96325
-1.9644
-1.96495
-1.96486
-1.96409
-1.9626
-1.96036
-1.95731
-1.95343
-1.94865
-1.94294
-1.93625
-1.92852
-1.9197
-1.90974
-1.89859
-1.88618
-1.87247
-1.85737
-1.84082
-1.82275
-1.80311
-1.78184
-1.75889
-1.7342
-1.70771
-1.67937
-1.64914
-1.61697
-1.58281
-1.54662
-1.50838
-1.46806
-1.42563
-1.38107
-1.33439
-1.28557
-1.23463
-1.18157
-1.12642
-1.06921
-1.00999
-0.948812
-0.885732
-0.82083
-0.754192
-0.685912
-0.616099
-0.544868