/*--------------------------------*- C++ -*----------------------------------*\
  =========                 |
  \\      /  F ield         | OpenFOAM: The Open Source CFD Toolbox
   \\    /   O peration     | Website:  https://openfoam.org
    \\  /    A nd           | Version:  7
     \\/     M anipulation  |
\*---------------------------------------------------------------------------*/
FoamFile
{
    version     2.0;
    format      ascii;
    class       surfaceScalarField;
    location    "0.13";
    object      phi;
}
// * * * * * * * * * * * * * * * * * * * * * * * * * * * * * * * * * * * * * //

dimensions      [0 3 -1 0 0 0 0];

internalField   nonuniform List<scalar> 
24170
(
1.42871e-06
1.65498e-07
1.33475e-06
9.39517e-08
1.25534e-06
7.94094e-08
1.18983e-06
6.55142e-08
1.13928e-06
5.0549e-08
1.09991e-06
3.93745e-08
1.06878e-06
3.11236e-08
1.04387e-06
2.4914e-08
1.0236e-06
2.0271e-08
1.00674e-06
1.68541e-08
9.9243e-07
1.43139e-08
9.80068e-07
1.23617e-08
9.69261e-07
1.08073e-08
9.59716e-07
9.54514e-09
9.51238e-07
8.47756e-09
9.43527e-07
7.71088e-09
9.36662e-07
6.8651e-09
7.66232e-09
9.29e-07
1.67172e-06
2.02406e-07
1.63058e-06
1.35087e-07
1.58828e-06
1.21707e-07
1.55014e-06
1.03659e-07
1.51643e-06
8.42627e-08
1.48624e-06
6.95563e-08
1.45909e-06
5.82768e-08
1.4349e-06
4.91086e-08
1.41351e-06
4.16596e-08
1.39465e-06
3.57154e-08
1.37799e-06
3.09658e-08
1.36325e-06
2.71073e-08
1.35014e-06
2.39143e-08
1.33844e-06
2.12476e-08
1.32796e-06
1.89575e-08
1.31851e-06
1.71589e-08
1.31008e-06
1.52989e-08
1.51237e-08
1.30262e-06
1.78132e-06
2.52342e-07
1.75686e-06
1.59546e-07
1.73621e-06
1.42358e-07
1.71734e-06
1.22526e-07
1.69921e-06
1.02401e-07
1.68159e-06
8.71732e-08
1.66459e-06
7.52801e-08
1.64847e-06
6.52238e-08
1.63343e-06
5.66991e-08
1.61953e-06
4.9612e-08
1.60677e-06
4.37286e-08
1.59509e-06
3.87873e-08
1.58442e-06
3.45853e-08
1.57468e-06
3.09893e-08
1.56577e-06
2.78635e-08
1.5577e-06
2.52342e-08
1.55025e-06
2.27472e-08
2.10812e-08
1.54429e-06
1.91834e-06
2.96695e-07
1.89272e-06
1.85164e-07
1.8764e-06
1.58682e-07
1.86339e-06
1.3554e-07
1.85156e-06
1.14225e-07
1.84045e-06
9.82878e-08
1.82986e-06
8.58668e-08
1.81977e-06
7.53157e-08
1.8102e-06
6.62678e-08
1.80119e-06
5.86259e-08
1.79274e-06
5.21728e-08
1.78486e-06
4.66649e-08
1.77754e-06
4.19131e-08
1.77074e-06
3.77873e-08
1.76443e-06
3.41664e-08
1.75866e-06
3.10078e-08
1.7533e-06
2.81099e-08
2.5586e-08
1.74879e-06
2.0682e-06
3.32056e-07
2.04091e-06
2.12455e-07
2.02434e-06
1.75249e-07
2.01235e-06
1.47532e-07
2.0025e-06
1.24078e-07
1.99403e-06
1.0676e-07
1.98648e-06
9.34102e-08
1.97959e-06
8.22143e-08
1.9732e-06
7.2656e-08
1.96726e-06
6.45599e-08
1.96175e-06
5.76853e-08
1.95663e-06
5.17838e-08
1.95188e-06
4.66644e-08
1.94748e-06
4.21906e-08
1.9434e-06
3.82442e-08
1.93966e-06
3.47426e-08
1.93622e-06
3.1559e-08
2.86155e-08
1.93319e-06
2.22664e-06
3.59961e-07
2.19981e-06
2.39289e-07
2.18264e-06
1.92414e-07
2.17037e-06
1.59801e-07
2.1608e-06
1.33646e-07
2.15314e-06
1.14426e-07
2.1468e-06
9.97498e-08
2.14136e-06
8.76529e-08
2.13658e-06
7.7439e-08
2.13232e-06
6.882e-08
2.1285e-06
6.15065e-08
2.12505e-06
5.52291e-08
2.12193e-06
4.9783e-08
2.1191e-06
4.50174e-08
2.11654e-06
4.08084e-08
2.11423e-06
3.70514e-08
2.11214e-06
3.36492e-08
3.04794e-08
2.11028e-06
2.39441e-06
3.81912e-07
2.36953e-06
2.64162e-07
2.35225e-06
2.09702e-07
2.3395e-06
1.72544e-07
2.32963e-06
1.4352e-07
2.32197e-06
1.22086e-07
2.31594e-06
1.05783e-07
2.31105e-06
9.25459e-08
2.30698e-06
8.15047e-08
2.30355e-06
7.22473e-08
2.30064e-06
6.44229e-08
2.29814e-06
5.77295e-08
2.29598e-06
5.19395e-08
2.29411e-06
4.68832e-08
2.2925e-06
4.24249e-08
2.2911e-06
3.84466e-08
2.28989e-06
3.48581e-08
3.15391e-08
2.28883e-06
2.57276e-06
3.98944e-07
2.55054e-06
2.86383e-07
2.53369e-06
2.26551e-07
2.52071e-06
1.85522e-07
2.51047e-06
1.53755e-07
2.50255e-06
1.30006e-07
2.49644e-06
1.119e-07
2.49164e-06
9.73466e-08
2.48781e-06
8.53288e-08
2.48474e-06
7.5318e-08
2.48227e-06
6.68986e-08
2.48027e-06
5.97301e-08
2.47865e-06
5.35572e-08
2.47734e-06
4.81877e-08
2.4763e-06
4.34707e-08
2.47547e-06
3.92777e-08
2.47481e-06
3.55153e-08
3.20738e-08
2.47427e-06
2.76268e-06
4.1193e-07
2.74336e-06
3.05707e-07
2.72745e-06
2.42455e-07
2.71466e-06
1.98321e-07
2.70428e-06
1.64131e-07
2.69613e-06
1.38153e-07
2.68983e-06
1.18199e-07
2.68495e-06
1.02235e-07
2.68114e-06
8.91384e-08
2.67817e-06
7.82832e-08
2.67588e-06
6.91943e-08
2.67411e-06
6.1493e-08
2.67278e-06
5.48937e-08
2.67178e-06
4.91811e-08
2.67107e-06
4.41869e-08
2.67057e-06
3.97725e-08
2.67025e-06
3.58363e-08
3.2276e-08
2.67005e-06
2.96512e-06
4.21695e-07
2.9487e-06
3.22126e-07
2.93414e-06
2.57018e-07
2.92195e-06
2.10509e-07
2.91178e-06
1.74303e-07
2.90362e-06
1.46316e-07
2.89723e-06
1.24588e-07
2.89226e-06
1.07205e-07
2.88841e-06
9.29897e-08
2.88545e-06
8.12386e-08
2.88321e-06
7.14308e-08
2.88155e-06
6.31533e-08
2.88036e-06
5.60924e-08
2.87953e-06
5.00095e-08
2.87899e-06
4.47194e-08
2.87869e-06
4.00724e-08
2.87857e-06
3.59568e-08
3.22726e-08
2.87858e-06
3.18114e-06
4.28963e-07
3.16749e-06
3.35775e-07
3.1545e-06
2.70004e-07
3.14327e-06
2.21745e-07
3.13366e-06
1.83911e-07
3.12577e-06
1.54203e-07
3.1195e-06
1.30859e-07
3.11458e-06
1.12126e-07
3.11076e-06
9.68109e-08
3.10784e-06
8.41602e-08
3.10565e-06
7.36186e-08
3.10406e-06
6.47466e-08
3.10294e-06
5.72058e-08
3.10222e-06
5.07373e-08
3.1018e-06
4.51396e-08
3.10162e-06
4.02517e-08
3.10162e-06
3.59514e-08
3.21376e-08
3.10176e-06
2.86573e-06
4.33648e-07
2.85621e-06
3.45299e-07
2.84651e-06
2.79703e-07
2.83791e-06
2.30348e-07
2.83046e-06
1.9136e-07
2.82424e-06
1.60421e-07
2.81923e-06
1.35871e-07
2.81527e-06
1.16087e-07
2.81218e-06
9.98937e-08
2.80983e-06
8.65139e-08
2.80808e-06
7.53697e-08
2.80682e-06
6.60041e-08
2.80596e-06
5.80619e-08
2.80543e-06
5.12695e-08
2.80516e-06
4.54131e-08
2.80509e-06
4.03221e-08
2.80517e-06
3.58679e-08
3.19366e-08
2.80537e-06
3.49499e-06
4.3774e-07
3.48605e-06
3.54233e-07
3.47654e-06
2.89215e-07
3.46789e-06
2.38999e-07
3.46029e-06
1.98961e-07
3.45387e-06
1.66835e-07
3.44867e-06
1.41078e-07
3.44454e-06
1.20215e-07
3.44133e-06
1.03104e-07
3.43889e-06
8.89511e-08
3.4371e-06
7.7161e-08
3.43584e-06
6.7262e-08
3.43502e-06
5.8884e-08
3.43455e-06
5.17385e-08
3.43437e-06
4.55996e-08
3.4344e-06
4.02869e-08
3.43461e-06
3.56623e-08
3.16046e-08
3.43494e-06
4.26204e-06
4.41127e-07
4.25416e-06
3.62107e-07
4.24537e-06
2.98004e-07
4.23721e-06
2.47158e-07
4.22999e-06
2.06186e-07
4.22386e-06
1.72962e-07
4.21889e-06
1.4605e-07
4.21498e-06
1.24127e-07
4.21198e-06
1.06104e-07
4.20975e-06
9.11767e-08
4.20818e-06
7.8736e-08
4.20714e-06
6.82981e-08
4.20655e-06
5.94793e-08
4.20631e-06
5.19774e-08
4.20635e-06
4.55541e-08
4.20662e-06
4.00191e-08
4.20706e-06
3.52241e-08
3.10427e-08
4.20762e-06
5.19701e-06
4.43725e-07
5.19068e-06
3.68439e-07
5.18329e-06
3.05398e-07
5.17633e-06
2.54113e-07
5.17021e-06
2.1231e-07
5.16506e-06
1.78104e-07
5.16097e-06
1.50141e-07
5.15787e-06
1.27233e-07
5.15562e-06
1.08354e-07
5.15409e-06
9.2702e-08
5.15317e-06
7.96556e-08
5.15275e-06
6.87194e-08
5.15273e-06
5.94972e-08
5.15304e-06
5.16738e-08
5.15359e-06
4.49986e-08
5.15434e-06
3.92711e-08
5.15523e-06
3.43327e-08
3.00526e-08
5.15622e-06
6.33668e-06
4.45444e-07
6.33239e-06
3.72726e-07
6.32726e-06
3.10527e-07
6.3225e-06
2.58878e-07
6.31848e-06
2.16323e-07
6.31532e-06
1.81264e-07
6.31305e-06
1.52411e-07
6.31162e-06
1.28661e-07
6.31092e-06
1.09055e-07
6.31083e-06
9.27972e-08
6.31123e-06
7.9256e-08
6.31202e-06
6.79237e-08
6.31313e-06
5.8392e-08
6.31447e-06
5.03332e-08
6.31598e-06
4.34851e-08
6.31762e-06
3.76368e-08
6.31933e-06
3.26201e-08
2.83e-08
6.32108e-06
7.72591e-06
4.46123e-07
7.72435e-06
3.7429e-07
7.72269e-06
3.12184e-07
7.72157e-06
2.59997e-07
7.72117e-06
2.16719e-07
7.72149e-06
1.80953e-07
7.72246e-06
1.51436e-07
7.72402e-06
1.27098e-07
7.72607e-06
1.07007e-07
7.72849e-06
9.03749e-08
7.7312e-06
7.65545e-08
7.7341e-06
6.5024e-08
7.73712e-06
5.53626e-08
7.74023e-06
4.72313e-08
7.74335e-06
4.0357e-08
7.74647e-06
3.452e-08
7.74955e-06
2.95436e-08
2.52897e-08
7.75256e-06
9.41956e-06
4.4538e-07
9.42195e-06
3.71903e-07
9.42573e-06
3.08404e-07
9.43062e-06
2.55106e-07
9.4363e-06
2.11044e-07
9.44248e-06
1.74771e-07
9.44897e-06
1.44942e-07
9.45563e-06
1.20439e-07
9.46233e-06
1.00306e-07
9.46898e-06
8.3726e-08
9.47551e-06
7.00237e-08
9.48188e-06
5.86576e-08
9.48805e-06
4.91933e-08
9.494e-06
4.12814e-08
9.49971e-06
3.46409e-08
9.50519e-06
2.9046e-08
9.51042e-06
2.43151e-08
2.03099e-08
9.5154e-06
1.1485e-05
4.42049e-07
1.14942e-05
3.62698e-07
1.15074e-05
2.95223e-07
1.15227e-05
2.39822e-07
1.15388e-05
1.94937e-07
1.1555e-05
1.58561e-07
1.15709e-05
1.29062e-07
1.15861e-05
1.0517e-07
1.16006e-05
8.58041e-08
1.16143e-05
7.00514e-08
1.16272e-05
5.71818e-08
1.16392e-05
4.6626e-08
1.16504e-05
3.79354e-08
1.1661e-05
3.07527e-08
1.16708e-05
2.4794e-08
1.168e-05
1.98337e-08
1.16887e-05
1.56916e-08
1.22338e-08
1.16967e-05
8.41018e-06
4.37226e-07
8.42291e-06
3.49962e-07
8.44031e-06
2.7783e-07
8.45945e-06
2.20676e-07
8.47877e-06
1.75618e-07
8.49756e-06
1.39773e-07
8.5154e-06
1.11217e-07
8.53206e-06
8.85163e-08
8.54744e-06
7.04191e-08
8.56159e-06
5.58994e-08
8.57459e-06
4.41853e-08
8.58652e-06
3.46953e-08
8.59748e-06
2.69769e-08
8.60756e-06
2.06743e-08
8.61684e-06
1.55096e-08
8.62541e-06
1.12652e-08
8.63333e-06
7.76933e-09
4.89547e-09
8.64067e-06
7.324e-06
4.30512e-07
7.34146e-06
3.32498e-07
7.36416e-06
2.55134e-07
7.38793e-06
1.96901e-07
7.41113e-06
1.52417e-07
7.43318e-06
1.17729e-07
7.45366e-06
9.07382e-08
7.47236e-06
6.98089e-08
7.48933e-06
5.3453e-08
7.50469e-06
4.05367e-08
7.5186e-06
3.02731e-08
7.53121e-06
2.20858e-08
7.54266e-06
1.55282e-08
7.55308e-06
1.0255e-08
7.56259e-06
6.00265e-09
7.57129e-06
2.56822e-09
7.57926e-06
-2.06982e-10
-2.43872e-09
7.5866e-06
6.37935e-06
4.21232e-07
6.40242e-06
3.09423e-07
6.43036e-06
2.27194e-07
6.45797e-06
1.69294e-07
6.48408e-06
1.26304e-07
6.50838e-06
9.34337e-08
6.53046e-06
6.86593e-08
6.55021e-06
5.00499e-08
6.56784e-06
3.58294e-08
6.58357e-06
2.48017e-08
6.59764e-06
1.6206e-08
6.61024e-06
9.48731e-09
6.62155e-06
4.21466e-09
6.63174e-06
6.3654e-11
6.64095e-06
-3.20768e-09
6.6493e-06
-5.78102e-09
6.65689e-06
-7.79812e-09
-9.36124e-09
6.66382e-06
5.55841e-06
4.08284e-07
5.58817e-06
2.79665e-07
5.62108e-06
1.94279e-07
5.65165e-06
1.38727e-07
5.67977e-06
9.81909e-08
5.70532e-06
6.7878e-08
5.72795e-06
4.60288e-08
5.74776e-06
3.02445e-08
5.76511e-06
1.8474e-08
5.78037e-06
9.54566e-09
5.79381e-06
2.76603e-09
5.80568e-06
-2.38585e-09
5.81621e-06
-6.31287e-09
5.82558e-06
-9.30734e-09
5.83395e-06
-1.158e-08
5.84146e-06
-1.3288e-08
5.84821e-06
-1.45518e-08
-1.54583e-08
5.85431e-06
4.84594e-06
3.89954e-07
4.88335e-06
2.42251e-07
4.92033e-06
1.57299e-07
4.95267e-06
1.06388e-07
4.98168e-06
6.91771e-08
5.0073e-06
4.22643e-08
5.02927e-06
2.40532e-08
5.04803e-06
1.14856e-08
5.06415e-06
2.35453e-09
5.07807e-06
-4.37407e-09
5.09013e-06
-9.29187e-09
5.10061e-06
-1.28708e-08
5.10977e-06
-1.54709e-08
5.11781e-06
-1.73411e-08
5.12488e-06
-1.86555e-08
5.13114e-06
-1.9543e-08
5.13668e-06
-2.01006e-08
-2.03986e-08
5.14162e-06
4.22833e-06
3.64303e-07
4.27412e-06
1.96458e-07
4.31343e-06
1.17989e-07
4.34588e-06
7.39366e-08
4.37437e-06
4.06913e-08
4.39868e-06
1.79543e-08
4.41882e-06
3.91045e-09
4.43557e-06
-5.267e-09
4.44966e-06
-1.17335e-08
4.46158e-06
-1.6289e-08
4.47169e-06
-1.94027e-08
4.4803e-06
-2.14836e-08
4.48767e-06
-2.28367e-08
4.49399e-06
-2.3662e-08
4.49943e-06
-2.40953e-08
4.50412e-06
-2.42371e-08
4.50818e-06
-2.41604e-08
-2.39217e-08
4.5117e-06
3.69255e-06
3.30399e-07
3.74699e-06
1.42017e-07
3.78678e-06
7.82006e-08
3.81776e-06
4.29503e-08
3.84423e-06
1.42188e-08
3.86598e-06
-3.79507e-09
3.88336e-06
-1.34694e-08
3.89741e-06
-1.93181e-08
3.9089e-06
-2.32149e-08
3.9183e-06
-2.56937e-08
3.926e-06
-2.71058e-08
3.93231e-06
-2.77921e-08
3.93747e-06
-2.79974e-08
3.94168e-06
-2.78724e-08
3.9451e-06
-2.75156e-08
3.94787e-06
-2.70002e-08
3.95008e-06
-2.63753e-08
-2.56843e-08
3.95184e-06
3.22817e-06
2.87265e-07
3.28933e-06
8.08565e-08
3.32811e-06
3.94226e-08
3.35685e-06
1.42036e-08
3.38015e-06
-9.08029e-09
3.39824e-06
-2.18888e-08
3.412e-06
-2.72213e-08
3.42257e-06
-2.98876e-08
3.43067e-06
-3.13198e-08
3.43679e-06
-3.18121e-08
3.4413e-06
-3.16204e-08
3.44453e-06
-3.1018e-08
3.44672e-06
-3.01869e-08
3.44807e-06
-2.92265e-08
3.44876e-06
-2.81969e-08
3.4489e-06
-2.71436e-08
3.44861e-06
-2.60916e-08
-2.50761e-08
3.44801e-06
2.83411e-06
2.25892e-07
2.8927e-06
2.22598e-08
2.92689e-06
5.23121e-09
2.95232e-06
-1.12242e-08
2.97134e-06
-2.81017e-08
2.98445e-06
-3.49951e-08
2.99311e-06
-3.58845e-08
2.99844e-06
-3.52144e-08
3.00125e-06
-3.41293e-08
3.00213e-06
-3.26965e-08
3.00156e-06
-3.1048e-08
2.9999e-06
-2.93532e-08
2.99742e-06
-2.77074e-08
2.99433e-06
-2.61441e-08
2.99081e-06
-2.46756e-08
2.98699e-06
-2.33175e-08
2.98296e-06
-2.207e-08
-2.09476e-08
2.97884e-06
2.52607e-06
1.13627e-07
2.5595e-06
-1.11731e-08
2.57815e-06
-1.34193e-08
2.5924e-06
-2.54721e-08
2.60112e-06
-3.68221e-08
2.60368e-06
-3.7554e-08
2.60142e-06
-3.36242e-08
2.59583e-06
-2.96271e-08
2.58811e-06
-2.64035e-08
2.57913e-06
-2.37154e-08
2.56948e-06
-2.14e-08
2.55953e-06
-1.94095e-08
2.54953e-06
-1.77016e-08
2.53961e-06
-1.62257e-08
2.52988e-06
-1.49414e-08
2.5204e-06
-1.38384e-08
2.51125e-06
-1.29232e-08
-1.24543e-08
2.50276e-06
2.21496e-06
2.20379e-06
2.19037e-06
2.1649e-06
2.12808e-06
2.09052e-06
2.0569e-06
2.02727e-06
2.00087e-06
1.97715e-06
1.95575e-06
1.93634e-06
1.91864e-06
1.90242e-06
1.88748e-06
1.87364e-06
1.86071e-06
1.84826e-06
1.14463e-08
-1.14463e-08
2.26497e-08
-1.12034e-08
2.86612e-08
-6.01155e-09
2.81802e-08
4.81065e-10
2.15712e-08
6.60891e-09
9.68476e-09
1.18865e-08
-6.25565e-09
1.59404e-08
-2.51328e-08
1.88771e-08
-4.61353e-08
2.10025e-08
-6.87497e-08
2.26144e-08
-9.26818e-08
2.39321e-08
-1.17758e-07
2.50764e-08
-1.43854e-07
2.60953e-08
-1.70848e-07
2.69941e-08
-1.98607e-07
2.77595e-08
-2.26982e-07
2.83746e-08
-2.55808e-07
2.88265e-08
-2.84918e-07
2.91096e-08
-3.14143e-07
2.92251e-08
-3.43323e-07
2.91803e-08
-3.7231e-07
2.89868e-08
-4.00969e-07
2.86592e-08
-4.29184e-07
2.82144e-08
-4.56856e-07
2.76721e-08
-4.8391e-07
2.7054e-08
-5.10291e-07
2.63807e-08
-5.35958e-07
2.56672e-08
-5.60878e-07
2.49198e-08
-5.85021e-07
2.41438e-08
-6.08382e-07
2.33604e-08
-6.31003e-07
2.26215e-08
-6.53006e-07
2.20029e-08
-6.74564e-07
2.15578e-08
-6.95944e-07
2.13803e-08
-7.174e-07
2.14557e-08
-7.37718e-07
2.03184e-08
-7.55456e-07
1.77378e-08
-7.73912e-07
1.84554e-08
-7.94174e-07
2.02629e-08
-8.13173e-07
1.8999e-08
-8.2963e-07
1.64565e-08
-8.44796e-07
1.51665e-08
-8.61416e-07
1.66199e-08
-8.81682e-07
2.02656e-08
-8.96625e-07
1.49432e-08
-9.09511e-07
1.28862e-08
-9.26576e-07
1.7065e-08
-9.46505e-07
1.99292e-08
-9.65568e-07
1.90627e-08
-9.77899e-07
1.23306e-08
-9.91906e-07
1.40073e-08
-1.00392e-06
1.2012e-08
-1.02043e-06
1.65133e-08
-1.04041e-06
1.99754e-08
-1.05551e-06
1.50987e-08
-1.06823e-06
1.27283e-08
-1.07967e-06
1.14344e-08
-1.09224e-06
1.25744e-08
-1.10503e-06
1.27866e-08
-1.11784e-06
1.28071e-08
-1.13053e-06
1.26983e-08
-1.14304e-06
1.25036e-08
-1.15529e-06
1.22502e-08
-1.16724e-06
1.19533e-08
-1.17886e-06
1.1621e-08
-1.19012e-06
1.12572e-08
-1.20098e-06
1.08638e-08
-1.21143e-06
1.04415e-08
-1.22142e-06
9.99038e-09
-1.23093e-06
9.50998e-09
-1.23993e-06
8.99972e-09
-1.24838e-06
8.45872e-09
-1.25627e-06
7.88593e-09
-1.26355e-06
7.28012e-09
-1.27019e-06
6.63979e-09
-1.27615e-06
5.96332e-09
-1.2814e-06
5.24804e-09
-1.28589e-06
4.49058e-09
-1.28958e-06
3.68691e-09
-1.29241e-06
2.83137e-09
-1.29433e-06
1.92172e-09
-1.2953e-06
9.66363e-10
-1.29525e-06
-5.1789e-11
-1.29435e-06
-8.99966e-10
-1.29259e-06
-1.76052e-09
-1.28997e-06
-2.61574e-09
-1.28649e-06
-3.47738e-09
-1.28214e-06
-4.34985e-09
-1.27691e-06
-5.23372e-09
-1.27078e-06
-6.12794e-09
-1.26375e-06
-7.03069e-09
-1.25581e-06
-7.93973e-09
-1.24696e-06
-8.8526e-09
-1.23719e-06
-9.76662e-09
-1.22651e-06
-1.0679e-08
-1.21493e-06
-1.15868e-08
-1.20244e-06
-1.24868e-08
-1.18906e-06
-1.33761e-08
-1.17481e-06
-1.42511e-08
-1.1597e-06
-1.51086e-08
-1.14376e-06
-1.59453e-08
-1.127e-06
-1.67577e-08
-1.10946e-06
-1.75423e-08
-1.09116e-06
-1.8296e-08
-1.07215e-06
-1.90153e-08
-1.05245e-06
-1.9697e-08
-1.03211e-06
-2.03381e-08
-1.01118e-06
-2.09356e-08
-9.89689e-07
-2.14867e-08
-9.677e-07
-2.19888e-08
-9.4526e-07
-2.24399e-08
-9.22423e-07
-2.28378e-08
-8.99242e-07
-2.31809e-08
-8.75774e-07
-2.34682e-08
-8.52075e-07
-2.36986e-08
-8.28203e-07
-2.38718e-08
-8.04215e-07
-2.3988e-08
-7.80167e-07
-2.40478e-08
-7.56115e-07
-2.40522e-08
-7.32112e-07
-2.40029e-08
-7.0821e-07
-2.39022e-08
-6.84457e-07
-2.37529e-08
-6.60899e-07
-2.35584e-08
-6.37576e-07
-2.33228e-08
-6.14525e-07
-2.30505e-08
-5.91779e-07
-2.27465e-08
-5.69363e-07
-2.24163e-08
-5.47297e-07
-2.20659e-08
-5.25595e-07
-2.17019e-08
-5.04264e-07
-2.13308e-08
-4.83304e-07
-2.09598e-08
-4.62708e-07
-2.05963e-08
-4.4246e-07
-2.0248e-08
-4.22537e-07
-1.99228e-08
-4.02909e-07
-1.96285e-08
-3.83536e-07
-1.93731e-08
-3.64371e-07
-1.91645e-08
-3.4536e-07
-1.90106e-08
-3.26441e-07
-1.89191e-08
-3.07544e-07
-1.88976e-08
-2.8859e-07
-1.89535e-08
-2.69497e-07
-1.90936e-08
-2.50172e-07
-1.93243e-08
-2.3052e-07
-1.9652e-08
-2.10438e-07
-2.00826e-08
-1.89817e-07
-2.06203e-08
-1.68548e-07
-2.12692e-08
-1.46516e-07
-2.20324e-08
-1.23604e-07
-2.2912e-08
-9.9695e-08
-2.39088e-08
-7.4672e-08
-2.5023e-08
-4.84188e-08
-2.62532e-08
-2.08211e-08
-2.75977e-08
8.23358e-09
-2.90547e-08
3.88648e-08
-3.06312e-08
7.11985e-08
-3.23337e-08
1.0535e-07
-3.41516e-08
1.41444e-07
-3.60934e-08
1.79589e-07
-3.81459e-08
2.19881e-07
-4.02912e-08
2.6239e-07
-4.25093e-08
3.07169e-07
-4.47792e-08
3.54246e-07
-4.70773e-08
4.03624e-07
-4.93777e-08
4.55275e-07
-5.16507e-08
5.09138e-07
-5.38628e-08
5.65113e-07
-5.59759e-08
6.2306e-07
-5.79466e-08
6.82786e-07
-5.97256e-08
7.44041e-07
-6.12556e-08
8.06512e-07
-6.24706e-08
8.69802e-07
-6.32906e-08
9.3341e-07
-6.3608e-08
9.96721e-07
-6.33108e-08
1.05886e-06
-6.21361e-08
1.11871e-06
-5.98555e-08
1.17466e-06
-5.59514e-08
1.22401e-06
-4.93447e-08
1.24899e-06
-2.49832e-08
2.49074e-08
1.22408e-06
6.55624e-09
-1.80025e-08
5.84728e-09
-1.04944e-08
-7.25335e-11
-9.17402e-11
-9.46206e-09
9.87059e-09
-2.18794e-08
1.90263e-08
-3.7088e-08
2.70951e-08
-5.50133e-08
3.38657e-08
-7.54667e-08
3.93305e-08
-9.81323e-08
4.36681e-08
-1.22645e-07
4.71271e-08
-1.48647e-07
4.99341e-08
-1.75821e-07
5.22504e-08
-2.03894e-07
5.41685e-08
-2.3263e-07
5.57302e-08
-2.61819e-07
5.6948e-08
-2.91267e-07
5.78228e-08
-3.20797e-07
5.83562e-08
-3.50243e-07
5.85561e-08
-3.79457e-07
5.84391e-08
-4.08307e-07
5.80299e-08
-4.3668e-07
5.73598e-08
-4.64485e-07
5.64643e-08
-4.91652e-07
5.53821e-08
-5.18134e-07
5.41535e-08
-5.43898e-07
5.28184e-08
-5.68931e-07
5.14135e-08
-5.93233e-07
4.99696e-08
-6.16824e-07
4.85105e-08
-6.39739e-07
4.70591e-08
-6.62025e-07
4.56457e-08
-6.83713e-07
4.43098e-08
-7.04795e-07
4.30854e-08
-7.25225e-07
4.19874e-08
-7.44872e-07
4.10274e-08
-7.63524e-07
4.01073e-08
-7.82031e-07
3.88259e-08
-8.01611e-07
3.73173e-08
-8.19794e-07
3.66383e-08
-8.35845e-07
3.63142e-08
-8.5212e-07
3.52739e-08
-8.69568e-07
3.39047e-08
-8.87326e-07
3.2924e-08
-9.03451e-07
3.27451e-08
-9.16018e-07
3.28326e-08
-9.32566e-07
3.14913e-08
-9.50099e-07
3.04193e-08
-9.6399e-07
3.09558e-08
-9.75564e-07
3.15038e-08
-9.87395e-07
3.0893e-08
-1.004e-06
2.89348e-08
-1.01817e-06
2.81789e-08
-1.03373e-06
2.75667e-08
-1.04536e-06
2.81499e-08
-1.05413e-06
2.87405e-08
-1.0664e-06
2.73756e-08
-1.07954e-06
2.58674e-08
-1.09302e-06
2.49101e-08
-1.10508e-06
2.4637e-08
-1.11658e-06
2.42889e-08
-1.12763e-06
2.38519e-08
-1.13827e-06
2.33428e-08
-1.14854e-06
2.277e-08
-1.15843e-06
2.21394e-08
-1.16793e-06
2.14547e-08
-1.17703e-06
2.07181e-08
-1.1857e-06
1.99306e-08
-1.19393e-06
1.90925e-08
-1.20169e-06
1.82036e-08
-1.20896e-06
1.72633e-08
-1.21573e-06
1.6271e-08
-1.22195e-06
1.52261e-08
-1.22762e-06
1.41278e-08
-1.23271e-06
1.29753e-08
-1.2372e-06
1.17679e-08
-1.24106e-06
1.05053e-08
-1.24429e-06
9.18728e-09
-1.24685e-06
7.81388e-09
-1.24875e-06
6.38594e-09
-1.24997e-06
4.90549e-09
-1.25051e-06
3.3767e-09
-1.2504e-06
1.80691e-09
-1.24967e-06
2.34789e-10
-1.24831e-06
-1.40452e-09
-1.2462e-06
-3.01752e-09
-1.24329e-06
-4.67046e-09
-1.23954e-06
-6.35728e-09
-1.23495e-06
-8.07474e-09
-1.22948e-06
-9.82047e-09
-1.22312e-06
-1.15914e-08
-1.21586e-06
-1.33839e-08
-1.2077e-06
-1.51938e-08
-1.19862e-06
-1.70164e-08
-1.18863e-06
-1.88467e-08
-1.17772e-06
-2.06794e-08
-1.16589e-06
-2.25089e-08
-1.15314e-06
-2.43293e-08
-1.1395e-06
-2.61346e-08
-1.12495e-06
-2.79183e-08
-1.10953e-06
-2.9674e-08
-1.09324e-06
-3.1395e-08
-1.07612e-06
-3.30745e-08
-1.05817e-06
-3.47058e-08
-1.03943e-06
-3.6282e-08
-1.01993e-06
-3.77966e-08
-9.99699e-07
-3.92428e-08
-9.78782e-07
-4.06142e-08
-9.57215e-07
-4.19046e-08
-9.35043e-07
-4.31081e-08
-9.12311e-07
-4.4219e-08
-8.89067e-07
-4.52323e-08
-8.65364e-07
-4.61434e-08
-8.41253e-07
-4.69483e-08
-8.1679e-07
-4.76438e-08
-7.92031e-07
-4.82272e-08
-7.67033e-07
-4.86968e-08
-7.41853e-07
-4.90516e-08
-7.1655e-07
-4.92918e-08
-6.91179e-07
-4.94184e-08
-6.65798e-07
-4.94335e-08
-6.4046e-07
-4.93402e-08
-6.1522e-07
-4.91428e-08
-5.90126e-07
-4.88466e-08
-5.65226e-07
-4.84585e-08
-5.40563e-07
-4.79859e-08
-5.16175e-07
-4.74378e-08
-4.92098e-07
-4.68239e-08
-4.68359e-07
-4.6155e-08
-4.44982e-07
-4.54431e-08
-4.21983e-07
-4.4701e-08
-3.99372e-07
-4.3942e-08
-3.77151e-07
-4.31804e-08
-3.55317e-07
-4.2431e-08
-3.33856e-07
-4.17092e-08
-3.12747e-07
-4.10309e-08
-2.91964e-07
-4.0412e-08
-2.71468e-07
-3.98687e-08
-2.51216e-07
-3.94169e-08
-2.31154e-07
-3.9073e-08
-2.1122e-07
-3.88526e-08
-1.91346e-07
-3.87714e-08
-1.71456e-07
-3.88442e-08
-1.51464e-07
-3.90852e-08
-1.3128e-07
-3.95081e-08
-1.10807e-07
-4.01255e-08
-8.994e-08
-4.09491e-08
-6.85717e-08
-4.19887e-08
-4.65878e-08
-4.32531e-08
-2.3871e-08
-4.47491e-08
-3.01921e-10
-4.64811e-08
2.42425e-08
-4.84532e-08
4.98879e-08
-5.06684e-08
7.67593e-08
-5.31246e-08
1.04982e-07
-5.58203e-08
1.34688e-07
-5.87605e-08
1.6601e-07
-6.1953e-08
1.99072e-07
-6.53964e-08
2.34002e-07
-6.90816e-08
2.70913e-07
-7.30042e-08
3.09909e-07
-7.7142e-08
3.51082e-07
-8.14643e-08
3.94508e-07
-8.59348e-08
4.40242e-07
-9.0513e-08
4.88317e-07
-9.51532e-08
5.38743e-07
-9.98035e-08
5.91498e-07
-1.04405e-07
6.46526e-07
-1.08891e-07
7.03737e-07
-1.13186e-07
7.62994e-07
-1.17204e-07
8.24114e-07
-1.20846e-07
8.86857e-07
-1.23999e-07
9.50918e-07
-1.26531e-07
1.01591e-06
-1.28286e-07
1.08137e-06
-1.29061e-07
1.14666e-06
-1.28606e-07
1.21103e-06
-1.26506e-07
1.27341e-06
-1.22236e-07
1.33206e-06
-1.14596e-07
1.38342e-06
-1.00706e-07
1.42733e-06
-6.88913e-08
-6.73175e-09
1.45897e-06
-3.52482e-09
-1.44777e-08
-1.33062e-08
-7.12988e-10
-2.56957e-08
1.22977e-08
-3.9827e-08
2.4002e-08
-5.54352e-08
3.46345e-08
-7.25087e-08
4.41686e-08
-9.11487e-08
5.25056e-08
-1.11426e-07
5.96077e-08
-1.33295e-07
6.55373e-08
-1.56596e-07
7.04278e-08
-1.81095e-07
7.44331e-08
-2.06532e-07
7.76877e-08
-2.32654e-07
8.02906e-08
-2.5923e-07
8.23058e-08
-2.86055e-07
8.37733e-08
-3.12953e-07
8.47209e-08
-3.39772e-07
8.51747e-08
-3.6638e-07
8.51645e-08
-3.92668e-07
8.4727e-08
-4.18544e-07
8.39057e-08
-4.43934e-07
8.27496e-08
-4.6878e-07
8.13111e-08
-4.93042e-07
7.96441e-08
-5.16691e-07
7.78023e-08
-5.3971e-07
7.58366e-08
-5.62089e-07
7.37932e-08
-5.83832e-07
7.17121e-08
-6.04948e-07
6.96273e-08
-6.25459e-07
6.75695e-08
-6.45382e-07
6.55686e-08
-6.64724e-07
6.36524e-08
-6.83479e-07
6.18402e-08
-7.0163e-07
6.01386e-08
-7.19138e-07
5.85349e-08
-7.3601e-07
5.69795e-08
-7.52594e-07
5.541e-08
-7.69161e-07
5.38843e-08
-7.85089e-07
5.25665e-08
-8.00161e-07
5.13859e-08
-8.15029e-07
5.01419e-08
-8.30028e-07
4.89032e-08
-8.44917e-07
4.78136e-08
-8.59127e-07
4.69549e-08
-8.72436e-07
4.61417e-08
-8.86177e-07
4.52324e-08
-9.00171e-07
4.44137e-08
-9.13143e-07
4.39274e-08
-9.25117e-07
4.34774e-08
-9.3697e-07
4.27461e-08
-9.49795e-07
4.17599e-08
-9.62478e-07
4.08621e-08
-9.7512e-07
4.02085e-08
-9.86734e-07
3.97639e-08
-9.97256e-07
3.92623e-08
-1.00826e-06
3.83782e-08
-1.0197e-06
3.73098e-08
-1.03117e-06
3.6378e-08
-1.04213e-06
3.5599e-08
-1.05266e-06
3.48231e-08
-1.06283e-06
3.40124e-08
-1.07263e-06
3.31505e-08
-1.08209e-06
3.22292e-08
-1.0912e-06
3.12445e-08
-1.09994e-06
3.01941e-08
-1.1083e-06
2.90765e-08
-1.11625e-06
2.78903e-08
-1.1238e-06
2.66344e-08
-1.1309e-06
2.53076e-08
-1.13755e-06
2.39088e-08
-1.14371e-06
2.24372e-08
-1.14938e-06
2.0892e-08
-1.15452e-06
1.92724e-08
-1.15913e-06
1.75781e-08
-1.16317e-06
1.58089e-08
-1.16663e-06
1.39651e-08
-1.16949e-06
1.20475e-08
-1.17173e-06
1.00576e-08
-1.17334e-06
7.99772e-09
-1.17431e-06
5.87131e-09
-1.17461e-06
3.68311e-09
-1.17425e-06
1.43938e-09
-1.17316e-06
-8.51137e-10
-1.17137e-06
-3.1999e-09
-1.16879e-06
-5.5969e-09
-1.16541e-06
-8.04965e-09
-1.16121e-06
-1.05565e-08
-1.15617e-06
-1.31131e-08
-1.15028e-06
-1.57143e-08
-1.14351e-06
-1.83547e-08
-1.13587e-06
-2.10282e-08
-1.12733e-06
-2.37283e-08
-1.1179e-06
-2.64479e-08
-1.10757e-06
-2.91797e-08
-1.09633e-06
-3.19158e-08
-1.08419e-06
-3.46478e-08
-1.07116e-06
-3.7367e-08
-1.05723e-06
-4.00643e-08
-1.04241e-06
-4.27305e-08
-1.02673e-06
-4.53556e-08
-1.0102e-06
-4.793e-08
-9.92828e-07
-5.04436e-08
-9.74648e-07
-5.28861e-08
-9.55682e-07
-5.52476e-08
-9.35961e-07
-5.75179e-08
-9.15517e-07
-5.96873e-08
-8.94385e-07
-6.17461e-08
-8.72604e-07
-6.36849e-08
-8.50218e-07
-6.54948e-08
-8.27269e-07
-6.71674e-08
-8.03807e-07
-6.86949e-08
-7.7988e-07
-7.00706e-08
-7.55539e-07
-7.12884e-08
-7.3084e-07
-7.23432e-08
-7.05836e-07
-7.32311e-08
-6.80584e-07
-7.3949e-08
-6.5514e-07
-7.44956e-08
-6.29561e-07
-7.48707e-08
-6.03903e-07
-7.50758e-08
-5.78223e-07
-7.51136e-08
-5.52575e-07
-7.49887e-08
-5.27011e-07
-7.47069e-08
-5.01581e-07
-7.42762e-08
-4.76334e-07
-7.37061e-08
-4.51312e-07
-7.30079e-08
-4.26555e-07
-7.21942e-08
-4.021e-07
-7.12794e-08
-3.77975e-07
-7.02795e-08
-3.54206e-07
-6.92121e-08
-3.30811e-07
-6.80959e-08
-3.07802e-07
-6.6951e-08
-2.85184e-07
-6.57984e-08
-2.62955e-07
-6.46601e-08
-2.41105e-07
-6.35592e-08
-2.19617e-07
-6.25194e-08
-1.98464e-07
-6.15645e-08
-1.77614e-07
-6.07188e-08
-1.57024e-07
-6.00067e-08
-1.36645e-07
-5.94525e-08
-1.16417e-07
-5.90801e-08
-9.62757e-08
-5.89131e-08
-7.61458e-08
-5.89741e-08
-5.59461e-08
-5.9285e-08
-3.55878e-08
-5.98664e-08
-1.49755e-08
-6.07378e-08
5.99229e-09
-6.19169e-08
2.74233e-08
-6.34197e-08
4.94301e-08
-6.52599e-08
7.21301e-08
-6.74491e-08
9.56446e-08
-6.99957e-08
1.20097e-07
-7.29061e-08
1.45614e-07
-7.61854e-08
1.72326e-07
-7.98357e-08
2.00365e-07
-8.38598e-08
2.29872e-07
-8.82676e-08
2.60985e-07
-9.30663e-08
2.93833e-07
-9.82437e-08
3.28532e-07
-1.0378e-07
3.65188e-07
-1.09661e-07
4.03902e-07
-1.15856e-07
4.44761e-07
-1.22323e-07
4.87839e-07
-1.29013e-07
5.33192e-07
-1.35866e-07
5.80855e-07
-1.42816e-07
6.30837e-07
-1.49786e-07
6.8312e-07
-1.56688e-07
7.37652e-07
-1.63424e-07
7.94345e-07
-1.69879e-07
8.53068e-07
-1.75927e-07
9.13643e-07
-1.81421e-07
9.75838e-07
-1.86193e-07
1.03936e-06
-1.9005e-07
1.10383e-06
-1.92758e-07
1.1688e-06
-1.94029e-07
1.23368e-06
-1.93492e-07
1.29777e-06
-1.90593e-07
1.36007e-06
-1.84543e-07
1.41921e-06
-1.73732e-07
1.47339e-06
-1.54885e-07
1.52356e-06
-1.19063e-07
-5.46915e-08
1.57152e-06
-1.16272e-08
-2.85048e-09
-2.68947e-08
1.45544e-08
-4.32588e-08
2.86618e-08
-6.02187e-08
4.09619e-08
-7.77383e-08
5.21541e-08
-9.59071e-08
6.23373e-08
-1.14861e-07
7.146e-08
-1.34718e-07
7.9464e-08
-1.5552e-07
8.63395e-08
-1.77223e-07
9.21312e-08
-1.99709e-07
9.69186e-08
-2.22812e-07
1.00791e-07
-2.46352e-07
1.03831e-07
-2.70152e-07
1.06106e-07
-2.94053e-07
1.07674e-07
-3.17916e-07
1.08584e-07
-3.41625e-07
1.08884e-07
-3.65084e-07
1.08623e-07
-3.88216e-07
1.07859e-07
-4.10958e-07
1.06648e-07
-4.33264e-07
1.05055e-07
-4.55097e-07
1.03144e-07
-4.7643e-07
1.00978e-07
-4.97247e-07
9.86185e-08
-5.17534e-07
9.61239e-08
-5.37287e-07
9.35461e-08
-5.56506e-07
9.09308e-08
-5.75196e-07
8.83174e-08
-5.93366e-07
8.574e-08
-6.11026e-07
8.32282e-08
-6.2818e-07
8.08062e-08
-6.4483e-07
7.84908e-08
-6.60982e-07
7.62901e-08
-6.76649e-07
7.42014e-08
-6.91875e-07
7.22058e-08
-7.06753e-07
7.02884e-08
-7.21342e-07
6.8473e-08
-7.35569e-07
6.67941e-08
-7.49416e-07
6.52324e-08
-7.63014e-07
6.37398e-08
-7.76437e-07
6.23262e-08
-7.8965e-07
6.10266e-08
-8.02547e-07
5.98524e-08
-8.15169e-07
5.87631e-08
-8.27654e-07
5.77181e-08
-8.39994e-07
5.67536e-08
-8.51972e-07
5.59054e-08
-8.63584e-07
5.50895e-08
-8.75038e-07
5.41994e-08
-8.86524e-07
5.32461e-08
-8.97984e-07
5.23227e-08
-9.09236e-07
5.14603e-08
-9.20129e-07
5.06567e-08
-9.3068e-07
4.9813e-08
-9.41127e-07
4.88252e-08
-9.51569e-07
4.77524e-08
-9.61876e-07
4.66841e-08
-9.71908e-07
4.56315e-08
-9.81642e-07
4.45568e-08
-9.91068e-07
4.34391e-08
-1.00018e-06
4.22638e-08
-1.00897e-06
4.10208e-08
-1.01743e-06
3.97032e-08
-1.02554e-06
3.83062e-08
-1.03329e-06
3.68262e-08
-1.04066e-06
3.52602e-08
-1.04764e-06
3.3606e-08
-1.05419e-06
3.18617e-08
-1.06031e-06
3.00257e-08
-1.06597e-06
2.80966e-08
-1.07115e-06
2.60734e-08
-1.07583e-06
2.39554e-08
-1.07999e-06
2.17423e-08
-1.08362e-06
1.94339e-08
-1.08668e-06
1.70307e-08
-1.08917e-06
1.45339e-08
-1.09106e-06
1.1945e-08
-1.09233e-06
9.2662e-09
-1.09296e-06
6.50058e-09
-1.09292e-06
3.65152e-09
-1.09221e-06
7.22544e-10
-1.09078e-06
-2.2838e-09
-1.08861e-06
-5.36824e-09
-1.08567e-06
-8.52937e-09
-1.08196e-06
-1.17667e-08
-1.07744e-06
-1.50765e-08
-1.0721e-06
-1.84531e-08
-1.06592e-06
-2.18898e-08
-1.0589e-06
-2.53794e-08
-1.05101e-06
-2.89137e-08
-1.04226e-06
-3.24841e-08
-1.03262e-06
-3.60814e-08
-1.02211e-06
-3.96957e-08
-1.01071e-06
-4.33166e-08
-9.9842e-07
-4.69333e-08
-9.85253e-07
-5.05343e-08
-9.7121e-07
-5.41077e-08
-9.56299e-07
-5.76411e-08
-9.40533e-07
-6.11216e-08
-9.23927e-07
-6.45364e-08
-9.06498e-07
-6.78721e-08
-8.88269e-07
-7.11154e-08
-8.69264e-07
-7.42528e-08
-8.4951e-07
-7.7271e-08
-8.29041e-07
-8.01571e-08
-8.07889e-07
-8.28981e-08
-7.86092e-07
-8.54817e-08
-7.63691e-07
-8.78959e-08
-7.40729e-07
-9.01295e-08
-7.17251e-07
-9.21722e-08
-6.93307e-07
-9.40148e-08
-6.68947e-07
-9.56491e-08
-6.44222e-07
-9.70682e-08
-6.19186e-07
-9.82668e-08
-5.93894e-07
-9.92407e-08
-5.68402e-07
-9.99877e-08
-5.42766e-07
-1.00507e-07
-5.1704e-07
-1.00801e-07
-4.9128e-07
-1.00873e-07
-4.65541e-07
-1.00728e-07
-4.39873e-07