/*--------------------------------*- C++ -*----------------------------------*\
  =========                 |
  \\      /  F ield         | OpenFOAM: The Open Source CFD Toolbox
   \\    /   O peration     | Website:  https://openfoam.org
    \\  /    A nd           | Version:  7
     \\/     M anipulation  |
\*---------------------------------------------------------------------------*/
FoamFile
{
    version     2.0;
    format      ascii;
    class       volVectorField;
    location    "0.13";
    object      U;
}
// * * * * * * * * * * * * * * * * * * * * * * * * * * * * * * * * * * * * * //

dimensions      [0 1 -1 0 0 0 0];

internalField   nonuniform List<vector> 
12225
(
(4.73347 -0.57124 0)
(4.31413 -0.430535 0)
(4.03357 -0.176981 0)
(3.82428 -0.0515473 0)
(3.64931 -0.00459747 0)
(3.50641 0.0100276 0)
(3.39543 0.0130821 0)
(3.30917 0.0124749 0)
(3.23979 0.0110521 0)
(3.18228 0.0097163 0)
(3.13376 0.00864642 0)
(3.09222 0.00780029 0)
(3.05612 0.00710718 0)
(3.02439 0.00652278 0)
(2.99613 0.00601577 0)
(2.97144 0.00556578 0)
(2.94637 0.00573722 0)
(2.93539 0.00318463 0)
(5.02997 0.295075 0)
(4.84219 0.245063 0)
(4.69193 0.169889 0)
(4.58574 0.107152 0)
(4.48709 0.0705404 0)
(4.3925 0.0517291 0)
(4.30746 0.0412384 0)
(4.23263 0.0342981 0)
(4.16638 0.029228 0)
(4.10766 0.0254212 0)
(4.05579 0.0225137 0)
(4.01 0.0202325 0)
(3.96939 0.0183899 0)
(3.93323 0.0168835 0)
(3.90081 0.0155789 0)
(3.87193 0.0147208 0)
(3.84529 0.0132764 0)
(3.82377 0.01555 0)
(4.96336 0.187525 0)
(4.82996 0.10398 0)
(4.75454 0.0857454 0)
(4.71155 0.0765376 0)
(4.66614 0.0680013 0)
(4.61613 0.060933 0)
(4.56766 0.0547708 0)
(4.52243 0.0491254 0)
(4.48005 0.0441355 0)
(4.44052 0.0399235 0)
(4.40406 0.0364142 0)
(4.3707 0.0334581 0)
(4.34023 0.0309292 0)
(4.3124 0.0287534 0)
(4.28698 0.0268334 0)
(4.2638 0.0252782 0)
(4.24279 0.0236675 0)
(4.22336 0.0233226 0)
(4.96282 0.171153 0)
(4.85056 0.102665 0)
(4.7899 0.0968275 0)
(4.76075 0.0903009 0)
(4.73307 0.0807111 0)
(4.70313 0.0726029 0)
(4.67473 0.0659849 0)
(4.64849 0.0601187 0)
(4.62362 0.0549144 0)
(4.59993 0.0504325 0)
(4.57763 0.0466002 0)
(4.55683 0.0432874 0)
(4.53747 0.0403878 0)
(4.51949 0.0378363 0)
(4.50282 0.0355559 0)
(4.48738 0.0335795 0)
(4.47341 0.031665 0)
(4.45981 0.0301828 0)
(4.97359 0.195253 0)
(4.88121 0.129122 0)
(4.82303 0.114576 0)
(4.79431 0.101699 0)
(4.7716 0.0891514 0)
(4.74962 0.0798858 0)
(4.73018 0.0728236 0)
(4.71319 0.0667488 0)
(4.69759 0.0613989 0)
(4.68298 0.0567765 0)
(4.66935 0.0527948 0)
(4.65672 0.049324 0)
(4.645 0.0462606 0)
(4.63413 0.0435363 0)
(4.62406 0.0410827 0)
(4.61473 0.0388743 0)
(4.60636 0.0367725 0)
(4.59796 0.0347755 0)
(4.98217 0.218662 0)
(4.90832 0.150145 0)
(4.8534 0.126894 0)
(4.82371 0.110055 0)
(4.80221 0.0959712 0)
(4.78322 0.0858077 0)
(4.76747 0.07812 0)
(4.75459 0.0716253 0)
(4.74346 0.0659801 0)
(4.7335 0.0611226 0)
(4.72454 0.0569372 0)
(4.7165 0.053284 0)
(4.70925 0.050054 0)
(4.70267 0.0471703 0)
(4.69671 0.0445634 0)
(4.69127 0.0421753 0)
(4.68653 0.039919 0)
(4.68166 0.0376839 0)
(4.98795 0.235245 0)
(4.93047 0.166931 0)
(4.88097 0.138227 0)
(4.8512 0.118706 0)
(4.82994 0.103086 0)
(4.81206 0.0916554 0)
(4.79777 0.0830011 0)
(4.78664 0.0758359 0)
(4.77757 0.0697114 0)
(4.7699 0.0644804 0)
(4.76337 0.0599875 0)
(4.7578 0.0560755 0)
(4.75301 0.0526233 0)
(4.74887 0.049542 0)
(4.74529 0.0467558 0)
(4.74215 0.0441906 0)
(4.73957 0.0417802 0)
(4.73687 0.0394043 0)
(4.9919 0.247339 0)
(4.94823 0.182022 0)
(4.90534 0.149845 0)
(4.87668 0.127948 0)
(4.85583 0.110617 0)
(4.83862 0.097695 0)
(4.82499 0.087871 0)
(4.81459 0.079856 0)
(4.80645 0.0730982 0)
(4.79989 0.0673676 0)
(4.79458 0.0624668 0)
(4.7903 0.0582167 0)
(4.78684 0.0544803 0)
(4.78404 0.0511545 0)
(4.7818 0.0481542 0)
(4.77998 0.0453976 0)
(4.77864 0.0428234 0)
(4.77721 0.0403279 0)
(4.99462 0.25659 0)
(4.9621 0.195588 0)
(4.92616 0.161183 0)
(4.89969 0.137267 0)
(4.87985 0.118355 0)
(4.86348 0.103953 0)
(4.85041 0.0928883 0)
(4.84044 0.0839167 0)
(4.83276 0.0764149 0)
(4.82676 0.0700844 0)
(4.82207 0.0646903 0)
(4.81846 0.0600308 0)
(4.8157 0.0559512 0)
(4.81363 0.0523339 0)
(4.81212 0.0490836 0)
(4.81103 0.0461133 0)
(4.81037 0.0433604 0)
(4.80967 0.0407387 0)
(4.99646 0.263639 0)
(4.97261 0.207292 0)
(4.94336 0.171696 0)
(4.91988 0.146264 0)
(4.90169 0.126062 0)
(4.88655 0.110326 0)
(4.87428 0.0980453 0)
(4.86479 0.0880811 0)
(4.85751 0.0797756 0)
(4.85187 0.0727801 0)
(4.84756 0.0668304 0)
(4.84433 0.0617052 0)
(4.84196 0.0572335 0)
(4.84029 0.0532838 0)
(4.83917 0.049751 0)
(4.83848 0.0465434 0)
(4.8382 0.0435945 0)
(4.83789 0.0408306 0)
(4.99766 0.268918 0)
(4.98039 0.217071 0)
(4.95719 0.181137 0)
(4.93709 0.154668 0)
(4.92102 0.133474 0)
(4.90752 0.116606 0)
(4.89639 0.10321 0)
(4.88764 0.0922831 0)
(4.88088 0.0831676 0)
(4.87567 0.0754829 0)
(4.87171 0.0689456 0)
(4.86878 0.0633211 0)
(4.86669 0.058425 0)
(4.86528 0.0541141 0)
(4.86441 0.0502744 0)
(4.86395 0.0468102 0)
(4.86387 0.04365 0)
(4.86378 0.0407268 0)
(4.99839 0.272606 0)
(4.9856 0.224485 0)
(4.96719 0.188755 0)
(4.95026 0.161658 0)
(4.93635 0.139761 0)
(4.9246 0.122037 0)
(4.91481 0.107746 0)
(4.907 0.0960088 0)
(4.90093 0.0861865 0)
(4.89626 0.0778855 0)
(4.89272 0.0708129 0)
(4.89014 0.0647264 0)
(4.88833 0.0594331 0)
(4.88714 0.0547819 0)
(4.88646 0.0506522 0)
(4.88617 0.0469445 0)
(4.88625 0.0435841 0)
(4.8863 0.0405019 0)
(4.99887 0.275403 0)
(4.98948 0.230605 0)
(4.97517 0.195414 0)
(4.96126 0.167905 0)
(4.94957 0.14544 0)
(4.93968 0.127007 0)
(4.93137 0.111939 0)
(4.9247 0.0994706 0)
(4.9195 0.0889964 0)
(4.91551 0.0801176 0)
(4.91253 0.0725359 0)
(4.91038 0.0660051 0)
(4.90892 0.0603266 0)
(4.90802 0.0553432 0)
(4.90757 0.0509293 0)
(4.90747 0.0469814 0)
(4.9077 0.0434225 0)
(4.90789 0.0401768 0)
(4.99923 0.277726 0)
(4.99273 0.236137 0)
(4.98227 0.201771 0)
(4.97157 0.174014 0)
(4.96237 0.151061 0)
(4.95461 0.131974 0)
(4.94812 0.116153 0)
(4.94291 0.102949 0)
(4.93888 0.0918066 0)
(4.93585 0.0823277 0)
(4.93366 0.0742108 0)
(4.93215 0.0672083 0)
(4.93121 0.0611178 0)
(4.93075 0.055777 0)
(4.93065 0.0510556 0)
(4.93084 0.0468467 0)
(4.93131 0.0430687 0)
(4.93171 0.0396438 0)
(4.99951 0.279565 0)
(4.99535 0.240787 0)
(4.98839 0.207377 0)
(4.98094 0.179517 0)
(4.97444 0.156146 0)
(4.96904 0.136469 0)
(4.96462 0.119942 0)
(4.96116 0.106026 0)
(4.95859 0.094225 0)
(4.95681 0.0841513 0)
(4.95566 0.0755017 0)
(4.95503 0.0680278 0)
(4.95484 0.0615248 0)
(4.95499 0.0558262 0)
(4.95542 0.0507968 0)
(4.95605 0.046326 0)
(4.95688 0.0423271 0)
(4.95762 0.0387226 0)
(4.99973 0.280884 0)
(4.99746 0.244253 0)
(4.99358 0.211715 0)
(4.98934 0.183816 0)
(4.98571 0.160062 0)
(4.98287 0.139843 0)
(4.98075 0.122673 0)
(4.9793 0.108094 0)
(4.97847 0.0956721 0)
(4.97817 0.0850366 0)
(4.97831 0.0758859 0)
(4.9788 0.0679707 0)
(4.97956 0.061084 0)
(4.98054 0.055055 0)
(4.98168 0.0497438 0)
(4.98292 0.0450356 0)
(4.98428 0.0408381 0)
(4.9855 0.0370742 0)
(4.99991 0.281604 0)
(4.99921 0.246174 0)
(4.99809 0.214112 0)
(4.99706 0.186069 0)
(4.99649 0.161899 0)
(4.99646 0.141161 0)
(4.9969 0.123417 0)
(4.99773 0.108258 0)
(4.99891 0.0952951 0)
(5.00037 0.0841761 0)
(5.00204 0.074601 0)
(5.00387 0.0663181 0)
(5.0058 0.0591173 0)
(5.00779 0.0528236 0)
(5.00981 0.0472922 0)
(5.01184 0.0424035 0)
(5.01387 0.0380598 0)
(5.0157 0.0341843 0)
(5.00008 0.281536 0)
(5.00085 0.245971 0)
(5.00245 0.213586 0)
(5.00477 0.185037 0)
(5.00763 0.16031 0)
(5.01082 0.139036 0)
(5.01421 0.120789 0)
(5.01772 0.105173 0)
(5.02128 0.0918106 0)
(5.02483 0.0803544 0)
(5.02834 0.0704995 0)
(5.03177 0.0619881 0)
(5.0351 0.0546044 0)
(5.03833 0.0481681 0)
(5.04143 0.0425296 0)
(5.04439 0.0375645 0)
(5.04726 0.0331706 0)
(5.04985 0.0292715 0)
(5.00031 0.280238 0)
(5.00288 0.242371 0)
(5.00774 0.208197 0)
(5.01415 0.178392 0)
(5.02119 0.152828 0)
(5.02833 0.131001 0)
(5.03535 0.112402 0)
(5.04216 0.0965823 0)
(5.04866 0.0831256 0)
(5.05481 0.0716497 0)
(5.06059 0.0618247 0)
(5.06601 0.053377 0)
(5.07108 0.0460804 0)
(5.07582 0.0397472 0)
(5.08026 0.0342223 0)
(5.0844 0.029378 0)
(5.0883 0.0251089 0)
(5.09183 0.02134 0)
(5.00061 0.277684 0)
(5.00556 0.235208 0)
(5.0146 0.197684 0)
(5.02596 0.165877 0)
(5.03781 0.139251 0)
(5.04928 0.116927 0)
(5.06019 0.0982105 0)
(5.07048 0.0825437 0)
(5.08003 0.0694059 0)
(5.08883 0.0583322 0)
(5.0969 0.0489443 0)
(5.1043 0.0409421 0)
(5.1111 0.0340837 0)
(5.11735 0.0281712 0)
(5.1231 0.0230442 0)
(5.1284 0.0185728 0)
(5.13332 0.0146514 0)
(5.13776 0.0112064 0)
(5.00095 0.274089 0)
(5.00882 0.225452 0)
(5.02282 0.18407 0)
(5.03961 0.150508 0)
(5.05624 0.123279 0)
(5.0718 0.100915 0)
(5.0863 0.0825382 0)
(5.09971 0.0674643 0)
(5.11193 0.05503 0)
(5.12298 0.0446757 0)
(5.13296 0.0359833 0)
(5.142 0.0286377 0)
(5.15021 0.0223879 0)
(5.15766 0.0170327 0)
(5.16446 0.0124125 0)
(5.17066 0.00840137 0)
(5.17637 0.00489765 0)
(5.18149 0.00183192 0)
(5.00149 0.269097 0)
(5.01373 0.212452 0)
(5.03451 0.166975 0)
(5.05782 0.132186 0)
(5.07958 0.104857 0)
(5.09932 0.0828681 0)
(5.11743 0.0652472 0)
(5.13389 0.0511485 0)
(5.1486 0.0397231 0)
(5.16166 0.0303262 0)
(5.17331 0.022523 0)
(5.18375 0.0159944 0)
(5.19311 0.0104863 0)
(5.20153 0.00579895 0)
(5.20913 0.00177892 0)
(5.216 -0.00169271 0)
(5.22226 -0.00471047 0)
(5.22785 -0.00733883 0)
(5.00238 0.262172 0)
(5.02131 0.195527 0)
(5.05129 0.146427 0)
(5.08218 0.111391 0)
(5.1092 0.0845219 0)
(5.13305 0.0633516 0)
(5.15465 0.0469747 0)
(5.17387 0.0342743 0)
(5.19063 0.0241668 0)
(5.20526 0.0159581 0)
(5.21813 0.00922945 0)
(5.2295 0.0036683 0)
(5.23957 -0.000977562 0)
(5.24851 -0.00489979 0)
(5.25648 -0.00823996 0)
(5.26361 -0.0111059 0)
(5.27004 -0.0135823 0)
(5.27573 -0.0157273 0)
(5.00395 0.252452 0)
(5.03318 0.173629 0)
(5.07519 0.122509 0)
(5.11407 0.0888447 0)
(5.14584 0.0631307 0)
(5.17339 0.0432847 0)
(5.19796 0.0286714 0)
(5.21919 0.0177707 0)
(5.23719 0.00924938 0)
(5.25261 0.00241755 0)
(5.26597 -0.00309775 0)
(5.2776 -0.00759156 0)
(5.28773 -0.0113045 0)
(5.2966 -0.0144113 0)
(5.30439 -0.0170357 0)
(5.31126 -0.0192707 0)
(5.31737 -0.0211882 0)
(5.32271 -0.0228381 0)
(5.00664 0.239251 0)
(5.05116 0.146026 0)
(5.10795 0.0952543 0)
(5.15401 0.0649702 0)
(5.18906 0.0414998 0)
(5.21928 0.0237666 0)
(5.24582 0.0114418 0)
(5.26795 0.00261134 0)
(5.28614 -0.0041812 0)
(5.3014 -0.0095457 0)
(5.3144 -0.0137934 0)
(5.32549 -0.0171941 0)
(5.33495 -0.0199655 0)
(5.34304 -0.022257 0)
(5.35 -0.0241705 0)
(5.35599 -0.0257827 0)
(5.36119 -0.0271515 0)
(5.36562 -0.0283197 0)
(5.01051 0.222561 0)
(5.07591 0.115749 0)
(5.14968 0.0673287 0)
(5.20131 0.040626 0)
(5.23765 0.0201037 0)
(5.269 0.00554857 0)
(5.29607 -0.00389429 0)
(5.31776 -0.0104877 0)
(5.33494 -0.0155243 0)
(5.34895 -0.0194203 0)
(5.36054 -0.0224122 0)
(5.37006 -0.0247399 0)
(5.37784 -0.0265906 0)
(5.38419 -0.0280843 0)
(5.38936 -0.0293012 0)
(5.39355 -0.0303032 0)
(5.39693 -0.031134 0)
(5.39958 -0.031832 0)
(5.01612 0.19642 0)
(5.10841 0.0875897 0)
(5.19904 0.0463908 0)
(5.25417 0.0197575 0)
(5.29032 -7.59497e-05 0)
(5.32107 -0.0113453 0)
(5.34662 -0.0174032 0)
(5.36587 -0.0214714 0)
(5.38014 -0.0246151 0)
(5.39101 -0.0269707 0)
(5.39925 -0.0286694 0)
(5.40527 -0.0299082 0)
(5.40945 -0.0308357 0)
(5.41216 -0.0315381 0)
(5.4137 -0.0320713 0)
(5.41431 -0.0324816 0)
(5.41417 -0.0327979 0)
(5.41342 -0.0330527 0)
(5.02989 0.134585 0)
(5.15986 0.0475764 0)
(5.25807 0.0412364 0)
(5.30885 0.0217176 0)
(5.34247 -0.00172421 0)
(5.37074 -0.0156394 0)
(5.39139 -0.022192 0)
(5.40391 -0.0257913 0)
(5.41063 -0.0280988 0)
(5.41359 -0.0294782 0)
(5.41374 -0.0301906 0)
(5.41163 -0.0305067 0)
(5.4078 -0.0306054 0)
(5.40269 -0.0305787 0)
(5.39668 -0.030479 0)
(5.39001 -0.0303495 0)
(5.38289 -0.0302199 0)
(5.37549 -0.0301184 0)
(5.08133 -0.0500368 0)
(5.26819 -0.199279 0)
(5.34722 -0.137922 0)
(5.36476 -0.0864781 0)
(5.37846 -0.0638895 0)
(5.39127 -0.0517728 0)
(5.39354 -0.0435296 0)
(5.385 -0.038237 0)
(5.37018 -0.0349293 0)
(5.35234 -0.0326137 0)
(5.33289 -0.0307744 0)
(5.31251 -0.0292306 0)
(5.29174 -0.0279077 0)
(5.27102 -0.0267538 0)
(5.25062 -0.0257348 0)
(5.23068 -0.0248487 0)
(5.21136 -0.0241002 0)
(5.19279 -0.0236772 0)
(5.01586 0.723718 0)
(5.23568 0.4675 0)
(5.28472 0.234425 0)
(5.20735 0.10379 0)
(5.10624 0.0382221 0)
(5.01529 0.008688 0)
(4.9335 -0.00335354 0)
(4.85869 -0.00797014 0)
(4.79147 -0.00963721 0)
(4.73175 -0.0101024 0)
(4.67831 -0.010073 0)
(4.62995 -0.00986849 0)
(4.58589 -0.00962947 0)
(4.54559 -0.00940717 0)
(4.50856 -0.0092145 0)
(4.47441 -0.00906675 0)
(4.44262 -0.00896626 0)
(4.413 -0.00913925 0)
(0.00530145 -0.0116998 -1.5635e-20)
(0.0162206 -0.0162514 1.52266e-20)
(0.0237867 -0.0120501 0)
(0.0266016 -0.00421445 0)
(0.0234211 0.00430706 0)
(0.0149893 0.0115375 -1.35647e-20)
(0.00231505 0.0166773 0)
(-0.0134277 0.0198967 0)
(-0.0313106 0.021852 0)
(-0.0508141 0.023163 0)
(-0.0716032 0.0242273 1.11888e-20)
(-0.0934906 0.0252274 0)
(-0.116357 0.0262056 0)
(-0.140102 0.0271344 0)
(-0.164614 0.0279639 0)
(-0.18977 0.0286471 9.52297e-21)
(-0.215428 0.0291515 0)
(-0.24144 0.0294604 0)
(-0.267656 0.0295717 0)
(-0.293926 0.0294936 0)
(-0.320114 0.0292416 0)
(-0.346093 0.0288352 0)
(-0.371748 0.0282979 0)
(-0.396985 0.0276574 8.18139e-21)
(-0.421724 0.0269461 -8.07675e-21)
(-0.445906 0.0261954 7.98186e-21)
(-0.469491 0.0254252 7.89591e-21)
(-0.492446 0.0246391 0)
(-0.514741 0.0238424 0)
(-0.536358 0.0230838 -7.68553e-21)
(-0.557306 0.0224898 -7.62998e-21)
(-0.577621 0.0222396 0)
(-0.597477 0.022496 0)
(-0.617275 0.0236482 -7.50387e-21)
(-0.637003 0.0254209 0)
(-0.655887 0.022932 0)
(-0.673659 0.0162206 7.4111e-21)
(-0.69036 0.0198397 0)
(-0.708013 0.0264869 7.35022e-21)
(-0.72648 0.0236811 1.46406e-20)
(-0.742845 0.0168297 0)
(-0.757539 0.0142736 0)
(-0.772479 0.0209792 0)
(-0.789173 0.0336276 0)
(-0.805943 0.0167986 0)
(-0.819272 0.0110843 1.47594e-20)
(-0.833153 0.0271648 1.42433e-20)
(-0.850532 0.0388573 1.46841e-20)
(-0.868322 0.0346415 0)
(-0.88389 0.0104936 -1.63519e-20)
(-0.896179 0.0135309 0)
(-0.908344 0.00880942 1.55123e-20)
(-0.922375 0.026067 1.46395e-20)
(-0.939216 0.0388175 0)
(-0.956209 0.0226527 0)
(-0.969502 0.0129874 0)
(-0.981102 0.00772038 1.5409e-20)
(-0.992492 0.00986809 0)
(-1.00491 0.0100229 0)
(-1.01734 0.0100199 0)
(-1.02974 0.00991242 0)
(-1.04203 0.00973707 0)
(-1.05414 0.00951784 0)
(-1.06601 0.00926777 0)
(-1.07762 0.00899365 0)
(-1.08892 0.0086989 -1.40223e-20)
(-1.09991 0.00838516 0)
(-1.11054 0.00805304 0)
(-1.12079 0.00770259 1.3495e-20)
(-1.13063 0.00733344 1.33104e-20)
(-1.14004 0.00694491 0)
(-1.14898 0.00653606 -1.29266e-20)
(-1.15743 0.00610567 1.2727e-20)
(-1.16536 0.00565227 0)
(-1.17272 0.0051742 -1.23113e-20)
(-1.1795 0.00466971 0)
(-1.18565 0.00413734 0)
(-1.19114 0.00357603 1.16429e-20)
(-1.19592 0.0029851 0)
(-1.19994 0.00236541 -1.11655e-20)
(-1.20317 0.00172721 0)
(-1.20553 0.0010943 1.06612e-20)
(-1.20697 0.000480634 1.03978e-20)
(-1.20751 -0.00011011 1.01248e-20)
(-1.20731 -0.000644783 1.96876e-20)
(-1.20631 -0.0011628 -1.9109e-20)
(-1.20452 -0.00167704 0)
(-1.20192 -0.00219121 0)
(-1.19851 -0.00270603 0)
(-1.19426 -0.00322102 -1.66231e-20)
(-1.18916 -0.00373516 -1.59578e-20)
(-1.18322 -0.00424722 1.52748e-20)
(-1.17642 -0.00475581 0)
(-1.16875 -0.00525945 -1.38558e-20)
(-1.16021 -0.0057566 -1.31199e-20)
(-1.15081 -0.00624566 -1.23667e-20)
(-1.14055 -0.00672501 0)
(-1.12943 -0.00719297 0)
(-1.11746 -0.00764785 0)
(-1.10466 -0.00808796 -9.18725e-21)
(-1.09103 -0.00851162 0)
(-1.07661 -0.00891718 0)
(-1.06141 -0.00930302 6.64276e-21)
(-1.04545 -0.00966758 0)
(-1.02877 -0.0100093 0)
(-1.01139 -0.0103269 3.98453e-21)
(-0.993357 -0.0106188 0)
(-0.974701 -0.0108839 0)
(-0.955465 -0.0111212 -1.24145e-21)
(-0.935692 -0.0113296 -3.14187e-22)
(-0.915429 -0.0115083 0)
(-0.894722 -0.0116569 -1.55111e-21)
(-0.873622 -0.0117749 0)
(-0.85218 -0.0118621 3.42054e-21)
(-0.830449 -0.0119186 0)
(-0.808483 -0.0119447 5.28144e-21)
(-0.786335 -0.0119411 6.20467e-21)
(-0.764059 -0.0119085 0)
(-0.741708 -0.0118481 0)
(-0.719335 -0.0117613 0)
(-0.696988 -0.0116497 0)
(-0.674718 -0.0115153 0)
(-0.652568 -0.0113605 0)
(-0.630581 -0.0111877 0)
(-0.608795 -0.0109997 1.32194e-20)
(-0.587243 -0.0107993 -1.40307e-20)
(-0.565954 -0.0105898 0)
(-0.544951 -0.0103745 0)
(-0.524252 -0.0101568 0)
(-0.503866 -0.00994038 0)
(-0.483798 -0.00972881 -3.56232e-20)
(-0.464046 -0.00952583 0)
(-0.444598 -0.00933522 3.83855e-20)
(-0.425436 -0.00916072 -3.97131e-20)
(-0.406535 -0.00900602 0)
(-0.387859 -0.00887474 0)
(-0.369369 -0.00877037 0)
(-0.351012 -0.00869632 4.47123e-20)
(-0.332732 -0.00865586 4.58987e-20)
(-0.314462 -0.00865206 0)
(-0.296127 -0.00868784 4.82216e-20)
(-0.277648 -0.00876585 4.93673e-20)
(-0.258935 -0.00888851 -5.05092e-20)
(-0.239893 -0.00905804 0)
(-0.22042 -0.00927649 0)
(-0.200408 -0.00954539 -5.39682e-20)
(-0.179744 -0.00986572 0)
(-0.15831 -0.0102382 0)
(-0.135987 -0.010663 0)
(-0.112651 -0.0111381 0)
(-0.0881789 -0.0116599 6.02172e-20)
(-0.0624432 -0.012228 6.15989e-20)
(-0.0353185 -0.0128399 0)
(-0.00667095 -0.0134766 6.44545e-20)
(0.0235642 -0.0140931 0)
(0.0555838 -0.0147063 0)
(0.089492 -0.0153512 6.677e-20)
(0.125435 -0.0160297 0)
(0.163544 -0.016732 6.80822e-20)
(0.203933 -0.0174472 0)
(0.2467 -0.0181652 0)
(0.291925 -0.0188758 6.9985e-20)
(0.339663 -0.0195691 0)
(0.389946 -0.0202344 7.11542e-20)
(0.442776 -0.0208607 0)
(0.498126 -0.0214362 0)
(0.555928 -0.0219479 0)
(0.616075 -0.0223823 -7.3043e-20)
(0.678409 -0.0227244 0)
(0.742718 -0.0229575 7.36714e-20)
(0.808723 -0.0230634 0)
(0.87607 -0.0230209 0)
(0.9443 -0.0227954 0)
(1.01284 -0.0223747 0)
(1.08096 -0.0216438 0)
(1.14742 -0.0205892 0)
(1.21139 -0.019302 0)
(1.26834 -0.0176036 -1.48761e-19)
(1.32049 -0.00423785 0)
(1.31578 0.011732 0)
(0.00420763 -0.032899 4.5958e-20)
(0.00691523 -0.0262991 -4.2405e-20)
(0.00324172 -0.0100238 0)
(-0.00359063 0.00636127 2.3623e-20)
(-0.0131795 0.0213404 0)
(-0.0254682 0.0340577 1.05788e-20)
(-0.0402868 0.0441183 -2.02383e-20)
(-0.0574648 0.0516529 -1.94237e-20)
(-0.0767616 0.057178 0)
(-0.0978713 0.0612857 -1.79503e-20)
(-0.120472 0.0644499 -8.66964e-21)
(-0.144267 0.0669727 0)
(-0.168999 0.0690084 0)
(-0.194445 0.0706153 0)
(-0.220409 0.0718026 0)
(-0.246714 0.0725638 -7.42803e-21)
(-0.273193 0.0728956 0)
(-0.299696 0.0728061 1.41161e-20)
(-0.32608 0.0723163 0)
(-0.35222 0.0714587 0)
(-0.378006 0.0702739 -1.33219e-20)
(-0.403346 0.0688077 0)
(-0.42817 0.0671093 1.29137e-20)
(-0.452423 0.06523 -6.39491e-21)
(-0.476069 0.063221 6.31643e-21)
(-0.499089 0.061129 -6.24639e-21)
(-0.521476 0.0589895 -6.18434e-21)
(-0.543238 0.056826 0)
(-0.564402 0.0546585 0)
(-0.585004 0.0525196 6.04429e-21)
(-0.605078 0.0504624 -5.96699e-21)
(-0.624657 0.04854 0)
(-0.643727 0.046763 0)
(-0.662062 0.0451299 5.98421e-21)
(-0.679521 0.0436278 0)
(-0.696833 0.0418937 0)
(-0.71454 0.0397809 -6.02418e-21)
(-0.731816 0.0385337 0)
(-0.747661 0.0378474 5.96084e-21)
(-0.762656 0.036437 -1.20672e-20)
(-0.778455 0.0347828 0)
(-0.794937 0.0333099 0)
(-0.810609 0.0322076 -2.38528e-20)
(-0.823907 0.0314703 -2.39206e-20)
(-0.838005 0.0307651 -2.43907e-20)
(-0.85389 0.0294464 1.18822e-20)
(-0.868573 0.0283054 -1.19438e-20)
(-0.880357 0.0275909 -3.57191e-20)
(-0.891959 0.0278304 2.41601e-20)
(-0.905427 0.0278679 1.21503e-20)
(-0.919827 0.0274888 0)
(-0.934463 0.0265379 -1.1914e-20)
(-0.94689 0.0250058 1.15078e-20)
(-0.956761 0.0245195 0)
(-0.967251 0.0247309 0)
(-0.979498 0.0246377 0)
(-0.992216 0.0244845 -1.15187e-20)
(-1.00467 0.024561 0)
(-1.01616 0.0244012 2.25303e-20)
(-1.02716 0.0240307 0)
(-1.03781 0.0235253 2.21018e-20)
(-1.04812 0.0229284 0)
(-1.05811 0.0222653 -2.16521e-20)
(-1.06778 0.0215506 0)
(-1.0771 0.0207924 2.11795e-20)
(-1.08605 0.0199954 -1.0441e-20)
(-1.09463 0.0191619 0)
(-1.10281 0.0182934 -2.04226e-20)
(-1.11057 0.0173905 -1.00986e-20)
(-1.11788 0.0164535 -9.95964e-21)
(-1.12473 0.0154826 0)
(-1.13109 0.0144776 -9.6408e-21)
(-1.13695 0.0134384 -9.51792e-21)
(-1.14227 0.0123648 0)
(-1.14704 0.0112562 9.20111e-21)
(-1.15124 0.0101122 -1.8061e-20)
(-1.15485 0.00893252 0)
(-1.15785 0.00771673 -8.68937e-21)
(-1.16025 0.00646463 0)
(-1.16202 0.00517718 2.49777e-20)
(-1.16318 0.0038601 0)
(-1.16375 0.00253377 -2.3822e-20)
(-1.16376 0.00122822 -7.72883e-21)
(-1.16317 -6.29335e-05 7.54771e-21)
(-1.16183 -0.00132877 1.46722e-20)
(-1.15974 -0.00258683 -1.42376e-20)
(-1.15686 -0.00384418 0)
(-1.15317 -0.00510264 0)
(-1.14866 -0.00636131 0)
(-1.14331 -0.00761791 3.68796e-20)
(-1.13711 -0.00886954 1.17431e-20)
(-1.13005 -0.0101129 -1.12244e-20)
(-1.12213 -0.0113445 0)
(-1.11334 -0.0125607 -1.03295e-20)
(-1.10367 -0.0137578 9.59773e-21)
(-1.09313 -0.0149319 9.03271e-21)
(-1.08172 -0.016079 0)
(-1.06944 -0.0171954 0)
(-1.05631 -0.018277 0)
(-1.04234 -0.0193198 6.66781e-21)
(-1.02754 -0.0203202 0)
(-1.01193 -0.0212741 -1.11212e-20)
(-0.995524 -0.0221781 -1.4665e-20)
(-0.97836 -0.0230286 8.59857e-21)
(-0.96046 -0.0238222 0)
(-0.941857 -0.024556 3.15873e-21)
(-0.922583 -0.0252269 0)
(-0.902678 -0.0258324 3.4068e-21)
(-0.88218 -0.0263702 -1.19977e-21)
(-0.861134 -0.0268385 -5.40128e-22)
(-0.839585 -0.0272357 0)
(-0.817581 -0.0275608 2.99383e-21)
(-0.79517 -0.0278132 -3.21455e-21)
(-0.772406 -0.0279928 -2.43092e-21)
(-0.749341 -0.0280999 0)
(-0.726028 -0.0281356 -3.74483e-21)
(-0.702521 -0.0281012 -1.28615e-20)
(-0.678875 -0.0279991 0)
(-0.655144 -0.0278317 -1.10345e-20)
(-0.63138 -0.0276023 -1.22974e-20)
(-0.607635 -0.0273148 -1.3544e-20)
(-0.583958 -0.0269735 0)
(-0.560396 -0.0265836 0)
(-0.536993 -0.0261505 0)
(-0.513788 -0.0256801 9.02332e-21)
(-0.490818 -0.0251789 9.88375e-21)
(-0.468113 -0.0246537 0)
(-0.445699 -0.0241117 2.1699e-20)
(-0.423596 -0.0235604 2.27705e-20)
(-0.401818 -0.0230075 0)
(-0.38037 -0.0224607 2.50939e-20)
(-0.359254 -0.0219281 5.1672e-20)
(-0.338462 -0.0214177 -2.70531e-20)
(-0.317977 -0.0209375 -2.75192e-20)
(-0.297776 -0.0204954 0)
(-0.277829 -0.020099 0)
(-0.258094 -0.0197558 0)
(-0.238525 -0.019473 -3.15737e-20)
(-0.219063 -0.0192575 3.1976e-20)
(-0.199645 -0.0191157 6.6082e-20)
(-0.180198 -0.0190538 -3.40955e-20)
(-0.16064 -0.019077 3.4466e-20)
(-0.140883 -0.0191903 3.57384e-20)
(-0.120831 -0.0193982 0)
(-0.100383 -0.0197045 0)
(-0.0794282 -0.0201113 -3.7724e-20)
(-0.0578532 -0.0206203 0)
(-0.0355379 -0.0212331 0)
(-0.0123583 -0.0219497 8.10215e-20)
(0.011811 -0.0227673 0)
(0.0371021 -0.0236833 4.15617e-20)
(0.0636487 -0.0246965 -4.26982e-20)
(0.0915837 -0.0258057 0)
(0.121047 -0.0270126 4.32206e-20)
(0.152168 -0.0283075 0)
(0.185104 -0.0296796 0)
(0.219989 -0.0311299 -4.57707e-20)
(0.256956 -0.0326618 9.21429e-20)
(0.29613 -0.0342643 -4.71126e-20)
(0.337622 -0.0359209 0)
(0.381535 -0.0376138 0)
(0.427948 -0.0393237 4.83204e-20)
(0.476924 -0.0410302 0)
(0.528501 -0.0427109 4.9617e-20)
(0.582688 -0.0443414 0)
(0.639462 -0.0458948 0)
(0.698766 -0.0473412 0)
(0.760498 -0.0486477 5.29596e-20)
(0.824511 -0.0497775 0)
(0.8906 -0.0506891 -5.40335e-20)
(0.958498 -0.0513352 0)
(1.02786 -0.0516591 0)
(1.09825 -0.0515891 1.09891e-19)
(1.16912 -0.0510369 -1.1069e-19)
(1.23976 -0.0498468 0)
(1.30915 -0.0478451 0)
(1.37619 -0.0445306 0)
(1.43728 -0.0388421 3.43406e-19)
(1.49302 -0.0257161 0)
(1.53141 0.00257562 -2.37519e-19)
(-0.000741346 -0.0342969 -8.80486e-23)
(-0.00706087 -0.0131414 5.33095e-20)
(-0.0170557 0.00954602 0)
(-0.028669 0.0299796 -4.08731e-20)
(-0.041867 0.0483032 0)
(-0.0564133 0.0643274 0)
(-0.0723156 0.0778538 5.98545e-24)
(-0.0896646 0.0888859 1.63487e-20)
(-0.108483 0.0976627 1.57434e-20)
(-0.128679 0.104556 1.51962e-20)
(-0.15007 0.109945 0)
(-0.172432 0.11413 0)
(-0.195534 0.117316 -1.37832e-20)
(-0.219159 0.119623 -2.67748e-20)
(-0.243115 0.121119 2.60521e-20)
(-0.267233 0.121845 0)
(-0.291367 0.121842 2.47946e-20)
(-0.315391 0.121157 -1.21228e-20)
(-0.339198 0.119847 0)
(-0.362698 0.117985 2.33046e-20)
(-0.385817 0.115648 1.14463e-20)
(-0.408497 0.112922 -2.25251e-20)
(-0.430692 0.109892 -1.10942e-20)
(-0.452373 0.106643 0)
(-0.473519 0.103255 2.16111e-20)
(-0.494117 0.0997971 2.13647e-20)
(-0.514164 0.09633 0)
(-0.533666 0.0929022 2.09484e-20)
(-0.552637 0.0895587 0)
(-0.571096 0.0863465 2.06252e-20)
(-0.589054 0.0833126 1.02546e-20)
(-0.606515 0.0804895 0)
(-0.623476 0.0778849 0)
(-0.639868 0.0754583 0)
(-0.655638 0.0730747 0)
(-0.671068 0.07056 0)
(-0.686486 0.0681039 0)
(-0.701584 0.0661566 1.99936e-20)
(-0.715912 0.0644224 -2.98994e-20)
(-0.729776 0.0623719 0)
(-0.743735 0.0602525 0)
(-0.75777 0.0584873 0)
(-0.771411 0.0572894 1.72776e-23)
(-0.784278 0.0561697 1.94617e-20)
(-0.796994 0.054453 3.88352e-20)
(-0.810139 0.0530304 -3.85807e-20)
(-0.822889 0.0525236 -1.91553e-20)
(-0.834659 0.0519866 1.90265e-20)
(-0.845929 0.0506327 1.3043e-23)
(-0.857744 0.0486586 1.88647e-20)
(-0.869935 0.0472124 0)
(-0.882082 0.0462354 1.86018e-20)
(-0.893756 0.0458842 -2.4736e-23)
(-0.904299 0.045252 0)
(-0.914642 0.04352 0)
(-0.925545 0.041601 -1.80371e-20)
(-0.936704 0.0401553 0)
(-0.947634 0.0391302 0)
(-0.958112 0.0381242 1.75002e-20)
(-0.968239 0.0370916 3.47511e-20)
(-0.978059 0.0360136 -1.72431e-20)
(-0.98758 0.0348826 0)
(-0.996799 0.0336977 1.68756e-20)
(-1.00571 0.0324598 0)
(-1.01429 0.0311698 1.64214e-20)
(-1.02254 0.0298289 1.62896e-20)
(-1.03043 0.0284377 -3.21097e-20)
(-1.03794 0.0269969 -1.58199e-20)
(-1.04505 0.0255069 0)
(-1.05175 0.0239683 3.08256e-20)
(-1.05802 0.0223816 0)
(-1.06383 0.0207473 4.48795e-20)
(-1.06916 0.0190664 2.94323e-20)
(-1.074 0.0173399 2.89415e-20)
(-1.07832 0.0155692 -2.84368e-20)
(-1.08211 0.0137563 4.18788e-20)
(-1.08535 0.0119038 0)
(-1.08802 0.0100154 0)
(-1.0901 0.00809615 -2.6272e-20)
(-1.0916 0.00615248 -3.85262e-20)
(-1.09248 0.00419174 0)
(-1.09272 0.0022208 1.22201e-20)
(-1.09231 0.000247098 0)
(-1.09121 -0.00173508 -3.47495e-20)
(-1.08937 -0.00373816 6.67851e-23)
(-1.08678 -0.00575641 -7.53631e-23)
(-1.08341 -0.00778486 2.11179e-20)
(-1.07926 -0.00981892 0)
(-1.07429 -0.0118539 -1.96526e-20)
(-1.0685 -0.0138848 1.09923e-22)
(-1.06188 -0.0159064 0)
(-1.05442 -0.017913 0)
(-1.0461 -0.019899 0)
(-1.03692 -0.0218584 1.55463e-20)
(-1.02689 -0.0237851 0)
(-1.01599 -0.0256729 0)
(-1.00423 -0.0275156 0)
(-0.991623 -0.0293069 0)
(-0.978167 -0.0310404 0)
(-0.963877 -0.0327098 1.04205e-20)
(-0.948766 -0.0343091 0)
(-0.932852 -0.0358322 8.35701e-21)
(-0.916155 -0.0372732 7.40526e-21)
(-0.898698 -0.0386267 -6.4449e-21)
(-0.88051 -0.0398873 0)
(-0.861618 -0.0410503 -4.50293e-21)
(-0.842058 -0.042111 0)
(-0.821864 -0.0430654 -2.54081e-21)
(-0.801076 -0.0439099 1.5554e-21)
(-0.779735 -0.0446418 2.18283e-21)
(-0.757886 -0.0452586 0)
(-0.735576 -0.0457589 -3.7225e-21)
(-0.712853 -0.0461418 -1.89802e-21)
(-0.689766 -0.0464071 0)
(-0.666369 -0.0465558 -8.17855e-21)
(-0.642712 -0.0465892 -1.01088e-20)
(-0.618851 -0.0465101 1.82769e-20)
(-0.594838 -0.0463217 0)
(-0.570727 -0.0460285 8.13625e-21)
(-0.546569 -0.0456356 9.06048e-21)
(-0.522416 -0.045149 2.94496e-20)
(-0.498318 -0.0445759 0)
(-0.474321 -0.0439243 0)
(-0.45047 -0.0432028 0)
(-0.426804 -0.042421 1.30337e-20)
(-0.403362 -0.0415889 0)
(-0.380175 -0.0407174 0)
(-0.35727 -0.039818 -1.59234e-20)
(-0.33467 -0.0389025 -1.6706e-20)
(-0.312388 -0.0379832 0)
(-0.290435 -0.0370724 0)
(-0.268812 -0.0361828 -3.78966e-20)
(-0.247514 -0.0353274 0)
(-0.22653 -0.0345187 4.0717e-20)
(-0.205837 -0.0337694 4.17186e-20)
(-0.185407 -0.0330917 0)
(-0.165204 -0.0324976 0)
(-0.145182 -0.0319987 -4.56523e-20)
(-0.125287 -0.031606 -3.49936e-22)
(-0.105458 -0.0313298 -3.5019e-22)
(-0.0856246 -0.0311797 0)
(-0.0657087 -0.0311643 -1.01549e-19)
(-0.0456241 -0.0312917 0)
(-0.0252776 -0.0315688 0)
(-0.00456848 -0.0320015 0)
(0.0166096 -0.0325942 5.56489e-20)
(0.0383707 -0.0333504 0)
(0.0608337 -0.034272 -1.14183e-19)
(0.0841227 -0.0353592 -5.84169e-20)
(0.108366 -0.0366103 0)
(0.133694 -0.0380233 -6.02805e-20)
(0.160243 -0.0395953 0)
(0.188152 -0.0413239 0)
(0.217566 -0.0432109 -1.88548e-19)
(0.248638 -0.0452587 1.2739e-19)
(0.281516 -0.0474596 0)
(0.316332 -0.0498005 1.31673e-19)
(0.353211 -0.0522716 -6.75238e-20)
(0.39227 -0.0548558 0)
(0.433618 -0.0575306 0)
(0.477352 -0.0602699 0)
(0.523555 -0.063045 -2.15349e-19)
(0.572287 -0.0658243 0)
(0.623587 -0.0685726 -7.46135e-20)
(0.677468 -0.0712516 0)
(0.73391 -0.0738184 0)
(0.792858 -0.0762254 0)
(0.854215 -0.0784201 0)
(0.917839 -0.0803433 0)
(0.983531 -0.0819286 0)
(1.05103 -0.0830998 -1.63599e-19)
(1.12001 -0.0837664 0)
(1.19006 -0.0838161 -8.45289e-20)
(1.26063 -0.0831054 2.55058e-19)
(1.33108 -0.0814112 0)
(1.40049 -0.0784205 0)
(1.46784 -0.0734544 -1.75692e-19)
(1.53063 -0.0650407 -1.79526e-19)
(1.59031 -0.0485212 1.81718e-19)
(1.64018 -0.0173989 1.88036e-19)
(-0.00589569 -0.0181871 -8.92032e-20)
(-0.0176595 0.0114075 -7.60681e-20)
(-0.0311571 0.0369904 -4.22304e-20)
(-0.045677 0.0592706 -1.85294e-20)
(-0.0610059 0.0791948 0)
(-0.0768969 0.0968811 3.18321e-20)
(-0.0934175 0.112251 -1.51395e-20)
(-0.110704 0.125265 0)
(-0.128843 0.136008 -1.39759e-20)
(-0.147836 0.144672 0)
(-0.167607 0.151503 2.61654e-20)
(-0.188024 0.156736 0)
(-0.20893 0.160569 1.23027e-20)
(-0.230164 0.163151 2.39254e-20)
(-0.251575 0.164598 -2.32989e-20)
(-0.27303 0.165004 0)
(-0.294416 0.164455 -2.21945e-20)
(-0.315639 0.163042 0)
(-0.336622 0.160862 0)
(-0.357303 0.158019 -2.08615e-20)
(-0.377634 0.154619 0)
(-0.397577 0.150773 -3.04116e-23)
(-0.417105 0.146587 0)
(-0.436197 0.142161 0)
(-0.454841 0.137589 2.25261e-23)
(-0.473028 0.132953 -1.90681e-20)
(-0.490755 0.128322 -1.88703e-20)
(-0.508025 0.123753 -1.86583e-20)
(-0.524845 0.119297 0)
(-0.541223 0.114996 -3.66412e-20)
(-0.557164 0.110883 0)
(-0.572672 0.106979 -1.80329e-20)
(-0.587748 0.103292 0)
(-0.602395 0.0998109 0)
(-0.61663 0.096486 1.76707e-20)
(-0.630532 0.093256 0)
(-0.644193 0.090181 -1.74468e-20)
(-0.657582 0.0873831 -1.57238e-23)
(-0.67062 0.0847987 3.44595e-20)
(-0.683387 0.0822778 -3.42191e-20)
(-0.696005 0.07985 0)
(-0.708484 0.0776293 0)
(-0.720735 0.0756643 -1.67288e-20)
(-0.732714 0.0738537 0)
(-0.744536 0.0719973 -1.6544e-20)
(-0.756272 0.0702909 1.64313e-20)
(-0.767778 0.0689085 1.63059e-20)
(-0.778951 0.0675944 0)
(-0.789893 0.0660446 -1.60591e-20)
(-0.800827 0.0642997 -1.59516e-20)
(-0.811803 0.0627221 3.16194e-20)
(-0.822691 0.0612918 -1.57211e-20)
(-0.833324 0.0601056 -1.55863e-20)
(-0.843619 0.0588821 0)
(-0.853731 0.0572904 0)