# vtk DataFile Version 2.0
sampleSurface
ASCII
DATASET POLYDATA
POINTS 502 double
-0.0206 0 -0.0005
-0.0190172 0 -0.0005
-0.0190172 0 0.0005
-0.0206 0 0.0005
-0.0174976 0 -0.0005
-0.0174976 0 0.0005
-0.0160387 0 -0.0005
-0.0160387 0 0.0005
-0.0146381 0 -0.0005
-0.0146381 0 0.0005
-0.0132934 0 -0.0005
-0.0132934 0 0.0005
-0.0120025 0 -0.0005
-0.0120025 0 0.0005
-0.0107632 0 -0.0005
-0.0107632 0 0.0005
-0.00957337 0 -0.0005
-0.00957337 0 0.0005
-0.00843108 0 -0.0005
-0.00843108 0 0.0005
-0.00733443 0 -0.0005
-0.00733443 0 0.0005
-0.0062816 0 -0.0005
-0.0062816 0 0.0005
-0.00527083 0 -0.0005
-0.00527083 0 0.0005
-0.00430044 0 -0.0005
-0.00430044 0 0.0005
-0.00336883 0 -0.0005
-0.00336883 0 0.0005
-0.00247443 0 -0.0005
-0.00247443 0 0.0005
-0.00161577 0 -0.0005
-0.00161577 0 0.0005
-0.000791418 0 -0.0005
-0.000791418 0 0.0005
0 0 -0.0005
0 0 0.0005
0 -0.0254 -0.0005
0 -0.0254 0.0005
0 -0.0242711 0.0005
0 -0.0242711 -0.0005
0 -0.0231422 0.0005
0 -0.0231422 -0.0005
0 -0.0220133 0.0005
0 -0.0220133 -0.0005
0 -0.0208844 0.0005
0 -0.0208844 -0.0005
0 -0.0197556 0.0005
0 -0.0197556 -0.0005
0 -0.0186267 0.0005
0 -0.0186267 -0.0005
0 -0.0174978 0.0005
0 -0.0174978 -0.0005
0 -0.0163689 0.0005
0 -0.0163689 -0.0005
0 -0.01524 0.0005
0 -0.01524 -0.0005
0 -0.0141111 0.0005
0 -0.0141111 -0.0005
0 -0.0129822 0.0005
0 -0.0129822 -0.0005
0 -0.0118533 0.0005
0 -0.0118533 -0.0005
0 -0.0107244 0.0005
0 -0.0107244 -0.0005
0 -0.00959556 0.0005
0 -0.00959556 -0.0005
0 -0.00846667 0.0005
0 -0.00846667 -0.0005
0 -0.00726604 0.0005
0 -0.00726604 -0.0005
0 -0.00618989 0.0005
0 -0.00618989 -0.0005
0 -0.00522531 0.0005
0 -0.00522531 -0.0005
0 -0.00436073 0.0005
0 -0.00436073 -0.0005
0 -0.00358579 0.0005
0 -0.00358579 -0.0005
0 -0.00289118 0.0005
0 -0.00289118 -0.0005
0 -0.0022686 0.0005
0 -0.0022686 -0.0005
0 -0.00171055 0.0005
0 -0.00171055 -0.0005
0 -0.00121037 0.0005
0 -0.00121037 -0.0005
0 -0.000762037 0.0005
0 -0.000762037 -0.0005
0 -0.000360188 0.0005
0 -0.000360188 -0.0005
0.000528387 -0.0254 -0.0005
0.000528387 -0.0254 0.0005
0.00106088 -0.0254 -0.0005
0.00106088 -0.0254 0.0005
0.00159752 -0.0254 -0.0005
0.00159752 -0.0254 0.0005
0.00213833 -0.0254 -0.0005
0.00213833 -0.0254 0.0005
0.00268334 -0.0254 -0.0005
0.00268334 -0.0254 0.0005
0.00323259 -0.0254 -0.0005
0.00323259 -0.0254 0.0005
0.00378611 -0.0254 -0.0005
0.00378611 -0.0254 0.0005
0.00434393 -0.0254 -0.0005
0.00434393 -0.0254 0.0005
0.00490609 -0.0254 -0.0005
0.00490609 -0.0254 0.0005
0.00547262 -0.0254 -0.0005
0.00547262 -0.0254 0.0005
0.00604356 -0.0254 -0.0005
0.00604356 -0.0254 0.0005
0.00661893 -0.0254 -0.0005
0.00661893 -0.0254 0.0005
0.00719878 -0.0254 -0.0005
0.00719878 -0.0254 0.0005
0.00778313 -0.0254 -0.0005
0.00778313 -0.0254 0.0005
0.00837203 -0.0254 -0.0005
0.00837203 -0.0254 0.0005
0.00896551 -0.0254 -0.0005
0.00896551 -0.0254 0.0005
0.0095636 -0.0254 -0.0005
0.0095636 -0.0254 0.0005
0.0101663 -0.0254 -0.0005
0.0101663 -0.0254 0.0005
0.0107738 -0.0254 -0.0005
0.0107738 -0.0254 0.0005
0.0113859 -0.0254 -0.0005
0.0113859 -0.0254 0.0005
0.0120028 -0.0254 -0.0005
0.0120028 -0.0254 0.0005
0.0126245 -0.0254 -0.0005
0.0126245 -0.0254 0.0005
0.0132511 -0.0254 -0.0005
0.0132511 -0.0254 0.0005
0.0138825 -0.0254 -0.0005
0.0138825 -0.0254 0.0005
0.0145188 -0.0254 -0.0005
0.0145188 -0.0254 0.0005
0.0151601 -0.0254 -0.0005
0.0151601 -0.0254 0.0005
0.0158063 -0.0254 -0.0005
0.0158063 -0.0254 0.0005
0.0164576 -0.0254 -0.0005
0.0164576 -0.0254 0.0005
0.0171139 -0.0254 -0.0005
0.0171139 -0.0254 0.0005
0.0177754 -0.0254 -0.0005
0.0177754 -0.0254 0.0005
0.018442 -0.0254 -0.0005
0.018442 -0.0254 0.0005
0.0191137 -0.0254 -0.0005
0.0191137 -0.0254 0.0005
0.0197907 -0.0254 -0.0005
0.0197907 -0.0254 0.0005
0.020473 -0.0254 -0.0005
0.020473 -0.0254 0.0005
0.0211606 -0.0254 -0.0005
0.0211606 -0.0254 0.0005
0.0218535 -0.0254 -0.0005
0.0218535 -0.0254 0.0005
0.0225517 -0.0254 -0.0005
0.0225517 -0.0254 0.0005
0.0232555 -0.0254 -0.0005
0.0232555 -0.0254 0.0005
0.0239647 -0.0254 -0.0005
0.0239647 -0.0254 0.0005
0.0246794 -0.0254 -0.0005
0.0246794 -0.0254 0.0005
0.0253996 -0.0254 -0.0005
0.0253996 -0.0254 0.0005
0.0261255 -0.0254 -0.0005
0.0261255 -0.0254 0.0005
0.026857 -0.0254 -0.0005
0.026857 -0.0254 0.0005
0.0275942 -0.0254 -0.0005
0.0275942 -0.0254 0.0005
0.0283371 -0.0254 -0.0005
0.0283371 -0.0254 0.0005
0.0290858 -0.0254 -0.0005
0.0290858 -0.0254 0.0005
0.0298403 -0.0254 -0.0005
0.0298403 -0.0254 0.0005
0.0306007 -0.0254 -0.0005
0.0306007 -0.0254 0.0005
0.031367 -0.0254 -0.0005
0.031367 -0.0254 0.0005
0.0321393 -0.0254 -0.0005
0.0321393 -0.0254 0.0005
0.0329175 -0.0254 -0.0005
0.0329175 -0.0254 0.0005
0.0337019 -0.0254 -0.0005
0.0337019 -0.0254 0.0005
0.0344923 -0.0254 -0.0005
0.0344923 -0.0254 0.0005
0.0352888 -0.0254 -0.0005
0.0352888 -0.0254 0.0005
0.0360916 -0.0254 -0.0005
0.0360916 -0.0254 0.0005
0.0369006 -0.0254 -0.0005
0.0369006 -0.0254 0.0005
0.0377158 -0.0254 -0.0005
0.0377158 -0.0254 0.0005
0.0385375 -0.0254 -0.0005
0.0385375 -0.0254 0.0005
0.0393655 -0.0254 -0.0005
0.0393655 -0.0254 0.0005
0.0401999 -0.0254 -0.0005
0.0401999 -0.0254 0.0005
0.0410408 -0.0254 -0.0005
0.0410408 -0.0254 0.0005
0.0418883 -0.0254 -0.0005
0.0418883 -0.0254 0.0005
0.0427424 -0.0254 -0.0005
0.0427424 -0.0254 0.0005
0.0436031 -0.0254 -0.0005
0.0436031 -0.0254 0.0005
0.0444704 -0.0254 -0.0005
0.0444704 -0.0254 0.0005
0.0453446 -0.0254 -0.0005
0.0453446 -0.0254 0.0005
0.0462255 -0.0254 -0.0005
0.0462255 -0.0254 0.0005
0.0471133 -0.0254 -0.0005
0.0471133 -0.0254 0.0005
0.048008 -0.0254 -0.0005
0.048008 -0.0254 0.0005
0.0489096 -0.0254 -0.0005
0.0489096 -0.0254 0.0005
0.0498183 -0.0254 -0.0005
0.0498183 -0.0254 0.0005
0.050734 -0.0254 -0.0005
0.050734 -0.0254 0.0005
0.0516568 -0.0254 -0.0005
0.0516568 -0.0254 0.0005
0.0525868 -0.0254 -0.0005
0.0525868 -0.0254 0.0005
0.053524 -0.0254 -0.0005
0.053524 -0.0254 0.0005
0.0544686 -0.0254 -0.0005
0.0544686 -0.0254 0.0005
0.0554204 -0.0254 -0.0005
0.0554204 -0.0254 0.0005
0.0563797 -0.0254 -0.0005
0.0563797 -0.0254 0.0005
0.0573464 -0.0254 -0.0005
0.0573464 -0.0254 0.0005
0.0583206 -0.0254 -0.0005
0.0583206 -0.0254 0.0005
0.0593025 -0.0254 -0.0005
0.0593025 -0.0254 0.0005
0.0602919 -0.0254 -0.0005
0.0602919 -0.0254 0.0005
0.0612891 -0.0254 -0.0005
0.0612891 -0.0254 0.0005
0.0622939 -0.0254 -0.0005
0.0622939 -0.0254 0.0005
0.0633067 -0.0254 -0.0005
0.0633067 -0.0254 0.0005
0.0643272 -0.0254 -0.0005
0.0643272 -0.0254 0.0005
0.0653557 -0.0254 -0.0005
0.0653557 -0.0254 0.0005
0.0663923 -0.0254 -0.0005
0.0663923 -0.0254 0.0005
0.0674368 -0.0254 -0.0005
0.0674368 -0.0254 0.0005
0.0684895 -0.0254 -0.0005
0.0684895 -0.0254 0.0005
0.0695504 -0.0254 -0.0005
0.0695504 -0.0254 0.0005
0.0706195 -0.0254 -0.0005
0.0706195 -0.0254 0.0005
0.0716969 -0.0254 -0.0005
0.0716969 -0.0254 0.0005
0.0727828 -0.0254 -0.0005
0.0727828 -0.0254 0.0005
0.073877 -0.0254 -0.0005
0.073877 -0.0254 0.0005
0.0749798 -0.0254 -0.0005
0.0749798 -0.0254 0.0005
0.0760911 -0.0254 -0.0005
0.0760911 -0.0254 0.0005
0.0772111 -0.0254 -0.0005
0.0772111 -0.0254 0.0005
0.0783398 -0.0254 -0.0005
0.0783398 -0.0254 0.0005
0.0794772 -0.0254 -0.0005
0.0794772 -0.0254 0.0005
0.0806235 -0.0254 -0.0005
0.0806235 -0.0254 0.0005
0.0817787 -0.0254 -0.0005
0.0817787 -0.0254 0.0005
0.0829429 -0.0254 -0.0005
0.0829429 -0.0254 0.0005
0.0841162 -0.0254 -0.0005
0.0841162 -0.0254 0.0005
0.0852985 -0.0254 -0.0005
0.0852985 -0.0254 0.0005
0.0864901 -0.0254 -0.0005
0.0864901 -0.0254 0.0005
0.0876909 -0.0254 -0.0005
0.0876909 -0.0254 0.0005
0.0889011 -0.0254 -0.0005
0.0889011 -0.0254 0.0005
0.0901207 -0.0254 -0.0005
0.0901207 -0.0254 0.0005
0.0913497 -0.0254 -0.0005
0.0913497 -0.0254 0.0005
0.0925883 -0.0254 -0.0005
0.0925883 -0.0254 0.0005
0.0938366 -0.0254 -0.0005
0.0938366 -0.0254 0.0005
0.0950945 -0.0254 -0.0005
0.0950945 -0.0254 0.0005
0.0963622 -0.0254 -0.0005
0.0963622 -0.0254 0.0005
0.0976398 -0.0254 -0.0005
0.0976398 -0.0254 0.0005
0.0989273 -0.0254 -0.0005
0.0989273 -0.0254 0.0005
0.100225 -0.0254 -0.0005
0.100225 -0.0254 0.0005
0.101532 -0.0254 -0.0005
0.101532 -0.0254 0.0005
0.10285 -0.0254 -0.0005
0.10285 -0.0254 0.0005
0.104178 -0.0254 -0.0005
0.104178 -0.0254 0.0005
0.105517 -0.0254 -0.0005
0.105517 -0.0254 0.0005
0.106865 -0.0254 -0.0005
0.106865 -0.0254 0.0005
0.108225 -0.0254 -0.0005
0.108225 -0.0254 0.0005
0.109594 -0.0254 -0.0005
0.109594 -0.0254 0.0005
0.110975 -0.0254 -0.0005
0.110975 -0.0254 0.0005
0.112366 -0.0254 -0.0005
0.112366 -0.0254 0.0005
0.113768 -0.0254 -0.0005
0.113768 -0.0254 0.0005
0.115181 -0.0254 -0.0005
0.115181 -0.0254 0.0005
0.116605 -0.0254 -0.0005
0.116605 -0.0254 0.0005
0.11804 -0.0254 -0.0005
0.11804 -0.0254 0.0005
0.119486 -0.0254 -0.0005
0.119486 -0.0254 0.0005
0.120943 -0.0254 -0.0005
0.120943 -0.0254 0.0005
0.122412 -0.0254 -0.0005
0.122412 -0.0254 0.0005
0.123892 -0.0254 -0.0005
0.123892 -0.0254 0.0005
0.125384 -0.0254 -0.0005
0.125384 -0.0254 0.0005
0.126887 -0.0254 -0.0005
0.126887 -0.0254 0.0005
0.128402 -0.0254 -0.0005
0.128402 -0.0254 0.0005
0.129928 -0.0254 -0.0005
0.129928 -0.0254 0.0005
0.131467 -0.0254 -0.0005
0.131467 -0.0254 0.0005
0.133017 -0.0254 -0.0005
0.133017 -0.0254 0.0005
0.13458 -0.0254 -0.0005
0.13458 -0.0254 0.0005
0.136155 -0.0254 -0.0005
0.136155 -0.0254 0.0005
0.137742 -0.0254 -0.0005
0.137742 -0.0254 0.0005
0.139341 -0.0254 -0.0005
0.139341 -0.0254 0.0005
0.140953 -0.0254 -0.0005
0.140953 -0.0254 0.0005
0.142577 -0.0254 -0.0005
0.142577 -0.0254 0.0005
0.144214 -0.0254 -0.0005
0.144214 -0.0254 0.0005
0.145863 -0.0254 -0.0005
0.145863 -0.0254 0.0005
0.147526 -0.0254 -0.0005
0.147526 -0.0254 0.0005
0.149201 -0.0254 -0.0005
0.149201 -0.0254 0.0005
0.15089 -0.0254 -0.0005
0.15089 -0.0254 0.0005
0.152591 -0.0254 -0.0005
0.152591 -0.0254 0.0005
0.154306 -0.0254 -0.0005
0.154306 -0.0254 0.0005
0.156034 -0.0254 -0.0005
0.156034 -0.0254 0.0005
0.157775 -0.0254 -0.0005
0.157775 -0.0254 0.0005
0.159531 -0.0254 -0.0005
0.159531 -0.0254 0.0005
0.161299 -0.0254 -0.0005
0.161299 -0.0254 0.0005
0.163082 -0.0254 -0.0005
0.163082 -0.0254 0.0005
0.164878 -0.0254 -0.0005
0.164878 -0.0254 0.0005
0.166688 -0.0254 -0.0005
0.166688 -0.0254 0.0005
0.168513 -0.0254 -0.0005
0.168513 -0.0254 0.0005
0.170351 -0.0254 -0.0005
0.170351 -0.0254 0.0005
0.172204 -0.0254 -0.0005
0.172204 -0.0254 0.0005
0.174071 -0.0254 -0.0005
0.174071 -0.0254 0.0005
0.175953 -0.0254 -0.0005
0.175953 -0.0254 0.0005
0.177849 -0.0254 -0.0005
0.177849 -0.0254 0.0005
0.17976 -0.0254 -0.0005
0.17976 -0.0254 0.0005
0.181686 -0.0254 -0.0005
0.181686 -0.0254 0.0005
0.183627 -0.0254 -0.0005
0.183627 -0.0254 0.0005
0.185583 -0.0254 -0.0005
0.185583 -0.0254 0.0005
0.187555 -0.0254 -0.0005
0.187555 -0.0254 0.0005
0.189541 -0.0254 -0.0005
0.189541 -0.0254 0.0005
0.191543 -0.0254 -0.0005
0.191543 -0.0254 0.0005
0.193561 -0.0254 -0.0005
0.193561 -0.0254 0.0005
0.195594 -0.0254 -0.0005
0.195594 -0.0254 0.0005
0.197643 -0.0254 -0.0005
0.197643 -0.0254 0.0005
0.199708 -0.0254 -0.0005
0.199708 -0.0254 0.0005
0.201789 -0.0254 -0.0005
0.201789 -0.0254 0.0005
0.203886 -0.0254 -0.0005
0.203886 -0.0254 0.0005
0.206 -0.0254 -0.0005
0.206 -0.0254 0.0005
0.208047 -0.0251856 -0.0005
0.208047 -0.0251856 0.0005
0.210173 -0.0249628 -0.0005
0.210173 -0.0249628 0.0005
0.212382 -0.0247314 -0.0005
0.212382 -0.0247314 0.0005
0.214677 -0.024491 -0.0005
0.214677 -0.024491 0.0005
0.217061 -0.0242412 -0.0005
0.217061 -0.0242412 0.0005
0.219538 -0.0239817 -0.0005
0.219538 -0.0239817 0.0005
0.222112 -0.0237121 -0.0005
0.222112 -0.0237121 0.0005
0.224785 -0.023432 -0.0005
0.224785 -0.023432 0.0005
0.227563 -0.023141 -0.0005
0.227563 -0.023141 0.0005
0.230449 -0.0228387 -0.0005
0.230449 -0.0228387 0.0005
0.233447 -0.0225246 -0.0005
0.233447 -0.0225246 0.0005
0.236562 -0.0221983 -0.0005
0.236562 -0.0221983 0.0005
0.239797 -0.0218593 -0.0005
0.239797 -0.0218593 0.0005
0.243159 -0.0215071 -0.0005
0.243159 -0.0215071 0.0005
0.246652 -0.0211412 -0.0005
0.246652 -0.0211412 0.0005
0.250281 -0.0207611 -0.0005
0.250281 -0.0207611 0.0005
0.254051 -0.0203661 -0.0005
0.254051 -0.0203661 0.0005
0.257967 -0.0199558 -0.0005
0.257967 -0.0199558 0.0005
0.262036 -0.0195295 -0.0005
0.262036 -0.0195295 0.0005
0.266264 -0.0190867 -0.0005
0.266264 -0.0190867 0.0005
0.270655 -0.0186266 -0.0005
0.270655 -0.0186266 0.0005
0.275218 -0.0181486 -0.0005
0.275218 -0.0181486 0.0005
0.279959 -0.017652 -0.0005
0.279959 -0.017652 0.0005
0.284883 -0.017136 -0.0005
0.284883 -0.017136 0.0005
0.29 -0.0166 -0.0005
0.29 -0.0166 0.0005

POLYGONS 250 1250
4 0 1 2 3
4 1 4 5 2
4 4 6 7 5
4 6 8 9 7
4 8 10 11 9
4 10 12 13 11
4 12 14 15 13
4 14 16 17 15
4 16 18 19 17
4 18 20 21 19
4 20 22 23 21
4 22 24 25 23
4 24 26 27 25
4 26 28 29 27
4 28 30 31 29
4 30 32 33 31
4 32 34 35 33
4 34 36 37 35
4 38 39 40 41
4 41 40 42 43
4 43 42 44 45
4 45 44 46 47
4 47 46 48 49
4 49 48 50 51
4 51 50 52 53
4 53 52 54 55
4 55 54 56 57
4 57 56 58 59
4 59 58 60 61
4 61 60 62 63
4 63 62 64 65
4 65 64 66 67
4 67 66 68 69
4 69 68 70 71
4 71 70 72 73
4 73 72 74 75
4 75 74 76 77
4 77 76 78 79
4 79 78 80 81
4 81 80 82 83
4 83 82 84 85
4 85 84 86 87
4 87 86 88 89
4 89 88 90 91
4 91 90 37 36
4 38 92 93 39
4 92 94 95 93
4 94 96 97 95
4 96 98 99 97
4 98 100 101 99
4 100 102 103 101
4 102 104 105 103
4 104 106 107 105
4 106 108 109 107
4 108 110 111 109
4 110 112 113 111
4 112 114 115 113
4 114 116 117 115
4 116 118 119 117
4 118 120 121 119
4 120 122 123 121
4 122 124 125 123
4 124 126 127 125
4 126 128 129 127
4 128 130 131 129
4 130 132 133 131
4 132 134 135 133
4 134 136 137 135
4 136 138 139 137
4 138 140 141 139
4 140 142 143 141
4 142 144 145 143
4 144 146 147 145
4 146 148 149 147
4 148 150 151 149
4 150 152 153 151
4 152 154 155 153
4 154 156 157 155
4 156 158 159 157
4 158 160 161 159
4 160 162 163 161
4 162 164 165 163
4 164 166 167 165
4 166 168 169 167
4 168 170 171 169
4 170 172 173 171
4 172 174 175 173
4 174 176 177 175
4 176 178 179 177
4 178 180 181 179
4 180 182 183 181
4 182 184 185 183
4 184 186 187 185
4 186 188 189 187
4 188 190 191 189
4 190 192 193 191
4 192 194 195 193
4 194 196 197 195
4 196 198 199 197
4 198 200 201 199
4 200 202 203 201
4 202 204 205 203
4 204 206 207 205
4 206 208 209 207
4 208 210 211 209
4 210 212 213 211
4 212 214 215 213
4 214 216 217 215
4 216 218 219 217
4 218 220 221 219
4 220 222 223 221
4 222 224 225 223
4 224 226 227 225
4 226 228 229 227
4 228 230 231 229
4 230 232 233 231
4 232 234 235 233
4 234 236 237 235
4 236 238 239 237
4 238 240 241 239
4 240 242 243 241
4 242 244 245 243
4 244 246 247 245
4 246 248 249 247
4 248 250 251 249
4 250 252 253 251
4 252 254 255 253
4 254 256 257 255
4 256 258 259 257
4 258 260 261 259
4 260 262 263 261
4 262 264 265 263
4 264 266 267 265
4 266 268 269 267
4 268 270 271 269
4 270 272 273 271
4 272 274 275 273
4 274 276 277 275
4 276 278 279 277
4 278 280 281 279
4 280 282 283 281
4 282 284 285 283
4 284 286 287 285
4 286 288 289 287
4 288 290 291 289
4 290 292 293 291
4 292 294 295 293
4 294 296 297 295
4 296 298 299 297
4 298 300 301 299
4 300 302 303 301
4 302 304 305 303
4 304 306 307 305
4 306 308 309 307
4 308 310 311 309
4 310 312 313 311
4 312 314 315 313
4 314 316 317 315
4 316 318 319 317
4 318 320 321 319
4 320 322 323 321
4 322 324 325 323
4 324 326 327 325
4 326 328 329 327
4 328 330 331 329
4 330 332 333 331
4 332 334 335 333
4 334 336 337 335
4 336 338 339 337
4 338 340 341 339
4 340 342 343 341
4 342 344 345 343
4 344 346 347 345
4 346 348 349 347
4 348 350 351 349
4 350 352 353 351
4 352 354 355 353
4 354 356 357 355
4 356 358 359 357
4 358 360 361 359
4 360 362 363 361
4 362 364 365 363
4 364 366 367 365
4 366 368 369 367
4 368 370 371 369
4 370 372 373 371
4 372 374 375 373
4 374 376 377 375
4 376 378 379 377
4 378 380 381 379
4 380 382 383 381
4 382 384 385 383
4 384 386 387 385
4 386 388 389 387
4 388 390 391 389
4 390 392 393 391
4 392 394 395 393
4 394 396 397 395
4 396 398 399 397
4 398 400 401 399
4 400 402 403 401
4 402 404 405 403
4 404 406 407 405
4 406 408 409 407
4 408 410 411 409
4 410 412 413 411
4 412 414 415 413
4 414 416 417 415
4 416 418 419 417
4 418 420 421 419
4 420 422 423 421
4 422 424 425 423
4 424 426 427 425
4 426 428 429 427
4 428 430 431 429
4 430 432 433 431
4 432 434 435 433
4 434 436 437 435
4 436 438 439 437
4 438 440 441 439
4 440 442 443 441
4 442 444 445 443
4 444 446 447 445
4 446 448 449 447
4 448 450 451 449
4 450 452 453 451
4 452 454 455 453
4 454 456 457 455
4 456 458 459 457
4 458 460 461 459
4 460 462 463 461
4 462 464 465 463
4 464 466 467 465
4 466 468 469 467
4 468 470 471 469
4 470 472 473 471
4 472 474 475 473
4 474 476 477 475
4 476 478 479 477
4 478 480 481 479
4 480 482 483 481
4 482 484 485 483
4 484 486 487 485
4 486 488 489 487
4 488 490 491 489
4 490 492 493 491
4 492 494 495 493
4 494 496 497 495
4 496 498 499 497
4 498 500 501 499
POINT_DATA 502
FIELD attributes 1
U 3 502 float
1.62681 0.100172 0.00504981
0.815039 0.0497139 0.00248855
0.815039 0.0497139 0.00248855
1.62681 0.100172 0.00504981
0.0246874 0.000682774 0
0.0246874 0.000682774 0
0.0217954 0.000594117 0
0.0217954 0.000594117 0
0.0193948 0.000459963 0
0.0193948 0.000459963 0
0.0172567 0.000381418 0
0.0172567 0.000381418 0
0.015236 0.000343474 0
0.015236 0.000343474 0
0.0132648 0.000322692 0
0.0132648 0.000322692 0
0.0113551 0.000293387 0
0.0113551 0.000293387 0
0.0095811 0.000243062 0
0.0095811 0.000243062 0
0.00800845 0.000182941 0
0.00800845 0.000182941 0
0.00667329 0.000128355 0
0.00667329 0.000128355 0
0.00555833 8.54623e-05 0
0.00555833 8.54623e-05 0
0.00463548 5.48185e-05 0
0.00463548 5.48185e-05 0
0.00383783 3.36495e-05 0
0.00383783 3.36495e-05 0
0.00316309 2.37132e-05 0
0.00316309 2.37132e-05 0
0.00251449 1.64898e-05 0
0.00251449 1.64898e-05 0
0.00193199 -2.15926e-05 0
0.00193199 -2.15926e-05 0
0.00087024 0.000219883 0
0.00087024 0.000219883 0
-0.000150573 0.000333434 3.19755e-23
-0.000150573 0.000333434 3.19755e-23
-0.000174702 0.00125098 -8.63718e-23
-0.000174702 0.00125098 -8.63718e-23
8.20217e-06 0.00235158 -1.02396e-22
8.20217e-06 0.00235158 -1.02396e-22
0.000239928 0.00179466 2.05022e-22
0.000239928 0.00179466 2.05022e-22
3.87553e-05 0.000872215 6.82643e-23
3.87553e-05 0.000872215 6.82643e-23
-0.000273145 0.000887102 -1.36794e-22
-0.000273145 0.000887102 -1.36794e-22
-9.41415e-05 0.000650649 0
-9.41415e-05 0.000650649 0
0.000367488 -0.000957368 -2.74642e-22
0.000367488 -0.000957368 -2.74642e-22
0.000548453 -0.003115 -1.78976e-25
0.000548453 -0.003115 -1.78976e-25
0.000481994 -0.00484755 2.74463e-22
0.000481994 -0.00484755 2.74463e-22
0.000333754 -0.00600294 -2.75346e-22
0.000333754 -0.00600294 -2.75346e-22
0.000139066 -0.00647884 3.30247e-28
0.000139066 -0.00647884 3.30247e-28
-2.05278e-06 -0.00643042 2.75346e-22
-2.05278e-06 -0.00643042 2.75346e-22
-4.17849e-05 -0.00618255 2.78487e-22
-4.17849e-05 -0.00618255 2.78487e-22
-3.10516e-05 -0.00593696 -5.64995e-26
-3.10516e-05 -0.00593696 -5.64995e-26
-2.98306e-05 -0.00568825 -2.83481e-22
-2.98306e-05 -0.00568825 -2.83481e-22
-4.86638e-05 -0.00537012 0
-4.86638e-05 -0.00537012 0
-7.64336e-05 -0.00497952 0
-7.64336e-05 -0.00497952 0
-0.000105058 -0.00452444 0
-0.000105058 -0.00452444 0
-0.000138815 -0.00401904 0
-0.000138815 -0.00401904 0
-0.000185601 -0.0034514 0
-0.000185601 -0.0034514 0
-0.000239595 -0.00281543 0
-0.000239595 -0.00281543 0
-0.000292537 -0.00212764 0
-0.000292537 -0.00212764 0
-0.00034044 -0.0014145 0
-0.00034044 -0.0014145 0
-0.000360573 -0.000693262 0
-0.000360573 -0.000693262 0
-0.000248369 -5.59807e-05 0
-0.000248369 -5.59807e-05 0
1.74537e-05 0.000333536 0
1.74537e-05 0.000333536 0
-0.00033047 0.000359616 1.48789e-25
-0.00033047 0.000359616 1.48789e-25
-0.000648727 0.00034112 -1.58797e-23
-0.000648727 0.00034112 -1.58797e-23
-0.000859476 0.000221143 0
-0.000859476 0.000221143 0
-0.000926557 6.05186e-05 0
-0.000926557 6.05186e-05 0
-0.000845049 -0.000100818 1.54069e-23
-0.000845049 -0.000100818 1.54069e-23
-0.000635311 -0.00022664 1.54346e-23
-0.000635311 -0.00022664 1.54346e-23
-0.000337686 -0.000295818 0
-0.000337686 -0.000295818 0
-3.0902e-06 -0.000308215 0
-3.0902e-06 -0.000308215 0
0.000326057 -0.000269213 0
0.000326057 -0.000269213 0
0.0006034 -0.000160778 -1.48968e-23
0.0006034 -0.000160778 -1.48968e-23
0.00079046 -1.40289e-05 -1.49252e-23
0.00079046 -1.40289e-05 -1.49252e-23
0.000884053 3.66559e-05 0
0.000884053 3.66559e-05 0
0.000909061 -4.46382e-05 0
0.000909061 -4.46382e-05 0
0.000913365 -0.000134537 0
0.000913365 -0.000134537 0
0.000947081 -0.000157392 -1.43034e-23
0.000947081 -0.000157392 -1.43034e-23
0.00102428 -0.000133319 -1.43323e-23
0.00102428 -0.000133319 -1.43323e-23
0.00113469 -0.000106162 0
0.00113469 -0.000106162 0
0.00128258 -0.000103517 0
0.00128258 -0.000103517 0
0.00146836 -0.000102693 0
0.00146836 -0.000102693 0
0.0016625 -7.71803e-05 0
0.0016625 -7.71803e-05 0
0.00183321 -4.66701e-05 0
0.00183321 -4.66701e-05 0
0.00197433 -1.55804e-05 0
0.00197433 -1.55804e-05 0
0.00206923 2.77837e-05 -1.33106e-23
0.00206923 2.77837e-05 -1.33106e-23
0.00207035 2.84043e-05 -1.42487e-25
0.00207035 2.84043e-05 -1.42487e-25
0.00198 -7.85949e-05 1.38023e-25
0.00198 -7.85949e-05 1.38023e-25
0.0018633 -0.000237075 -2.60966e-23
0.0018633 -0.000237075 -2.60966e-23
0.00175275 -0.000280983 -1.30077e-23
0.00175275 -0.000280983 -1.30077e-23
0.00157971 -0.000127529 0
0.00157971 -0.000127529 0
0.00124879 6.69581e-05 1.26727e-23
0.00124879 6.69581e-05 1.26727e-23
0.00077683 0.000214839 2.52875e-23
0.00077683 0.000214839 2.52875e-23
0.000204909 0.000441896 1.2615e-23
0.000204909 0.000441896 1.2615e-23
-0.000474611 0.000650621 0
-0.000474611 0.000650621 0
-0.0011946 0.000673272 1.22293e-23
-0.0011946 0.000673272 1.22293e-23
-0.00186727 0.000613509 1.22595e-23
-0.00186727 0.000613509 1.22595e-23
-0.00249695 0.000580532 0
-0.00249695 0.000580532 0
-0.00310496 0.000560108 -1.17652e-23
-0.00310496 0.000560108 -1.17652e-23
-0.00368558 0.000532809 -1.17951e-23
-0.00368558 0.000532809 -1.17951e-23
-0.00423549 0.000501482 -1.14364e-23
-0.00423549 0.000501482 -1.14364e-23
-0.004753 0.000467842 -3.40087e-23
-0.004753 0.000467842 -3.40087e-23
-0.00523643 0.000433379 -2.26017e-23
-0.00523643 0.000433379 -2.26017e-23
-0.00568453 0.000398907 0
-0.00568453 0.000398907 0
-0.00609565 0.000363826 0
-0.00609565 0.000363826 0
-0.00646753 0.000327423 0
-0.00646753 0.000327423 0
-0.00679748 0.000289319 0
-0.00679748 0.000289319 0
-0.00708276 0.000249595 -2.07228e-23
-0.00708276 0.000249595 -2.07228e-23
-0.00732095 0.000208667 -4.12494e-23
-0.00732095 0.000208667 -4.12494e-23
-0.00751021 0.000167235 -4.07605e-23
-0.00751021 0.000167235 -4.07605e-23
-0.00764952 0.000126342 -2.02915e-23
-0.00764952 0.000126342 -2.02915e-23
-0.0077386 8.72492e-05 1.98255e-23
-0.0077386 8.72492e-05 1.98255e-23
-0.00777782 5.09771e-05 1.98829e-23
-0.00777782 5.09771e-05 1.98829e-23
-0.00776967 1.78145e-05 -1.94991e-23
-0.00776967 1.78145e-05 -1.94991e-23
-0.00771834 -1.2506e-05 -3.89226e-23
-0.00771834 -1.2506e-05 -3.89226e-23
-0.00762648 -4.04081e-05 -1.94236e-23
-0.00762648 -4.04081e-05 -1.94236e-23
-0.00749615 -6.63712e-05 0
-0.00749615 -6.63712e-05 0
-0.00732942 -9.08949e-05 0
-0.00732942 -9.08949e-05 0
-0.00712742 -0.000114564 -1.90062e-23
-0.00712742 -0.000114564 -1.90062e-23
-0.00689055 -0.000138194 -1.90651e-23
-0.00689055 -0.000138194 -1.90651e-23
-0.00661795 -0.000162761 0
-0.00661795 -0.000162761 0
-0.00630735 -0.000189344 0
-0.00630735 -0.000189344 0
-0.00595474 -0.000219173 0
-0.00595474 -0.000219173 0
-0.00555427 -0.00025349 0
-0.00555427 -0.00025349 0
-0.00509841 -0.00029328 0
-0.00509841 -0.00029328 0
-0.00457864 -0.000338657 0
-0.00457864 -0.000338657 0
-0.00398774 -0.000387833 0
-0.00398774 -0.000387833 0
-0.00332685 -0.0004355 1.86814e-23
-0.00332685 -0.0004355 1.86814e-23
-0.00261687 -0.000469891 1.87442e-23
-0.00261687 -0.000469891 1.87442e-23
-0.0018958 -0.000470898 0
-0.0018958 -0.000470898 0
-0.001209 -0.000421897 -1.8404e-23
-0.001209 -0.000421897 -1.8404e-23
-0.000675766 -0.000334473 -3.67644e-23
-0.000675766 -0.000334473 -3.67644e-23
-0.000397653 -0.000120645 -1.83606e-23
-0.000397653 -0.000120645 -1.83606e-23
-0.000533331 0.000237677 1.8153e-23
-0.000533331 0.000237677 1.8153e-23
-0.00108565 0.000388967 1.51936e-25
-0.00108565 0.000388967 1.51936e-25
-0.00151237 0.000215915 -1.81298e-23
-0.00151237 0.000215915 -1.81298e-23
-0.00157915 4.06339e-05 1.78489e-23
-0.00157915 4.06339e-05 1.78489e-23
-0.00150468 -3.65629e-05 1.79137e-23
-0.00150468 -3.65629e-05 1.79137e-23
-0.0013943 -8.87539e-05 0
-0.0013943 -8.87539e-05 0
-0.00127507 -0.000121747 -1.74573e-23
-0.00127507 -0.000121747 -1.74573e-23
-0.001113 -0.000140215 -1.75222e-23
-0.001113 -0.000140215 -1.75222e-23
-0.000915346 -0.000137708 1.71501e-23
-0.000915346 -0.000137708 1.71501e-23
-0.00071322 -0.000121796 1.72149e-23
-0.00071322 -0.000121796 1.72149e-23
-0.000519687 -0.000115024 -1.67964e-23
-0.000519687 -0.000115024 -1.67964e-23
-0.000319085 -0.000146871 -3.34775e-23
-0.000319085 -0.000146871 -3.34775e-23
-2.38093e-05 -0.000248692 -3.3131e-23
-2.38093e-05 -0.000248692 -3.3131e-23
0.000514493 -0.000408379 -4.91367e-23
0.000514493 -0.000408379 -4.91367e-23
0.00137772 -0.000490233 -4.08737e-25
0.00137772 -0.000490233 -4.08737e-25
0.00238446 -0.00045222 3.247e-23
0.00238446 -0.00045222 3.247e-23
0.00331222 -0.000452331 0
0.00331222 -0.000452331 0
0.00415882 -0.000265277 0
0.00415882 -0.000265277 0
0.00430033 0.000359172 3.09309e-23
0.00430033 0.000359172 3.09309e-23
0.00323802 0.000697677 6.17907e-23
0.00323802 0.000697677 6.17907e-23
0.00199522 0.000321586 3.94708e-25
0.00199522 0.000321586 3.94708e-25
0.00152737 -0.000135256 -3.05912e-23
0.00152737 -0.000135256 -3.05912e-23
0.00165306 -0.00037743 2.98775e-23
0.00165306 -0.00037743 2.98775e-23
0.00190194 -0.000490321 5.95269e-23
0.00190194 -0.000490321 5.95269e-23
0.00186227 -0.000278288 5.88273e-23
0.00186227 -0.000278288 5.88273e-23
0.00116146 0.000253578 2.93028e-23
0.00116146 0.000253578 2.93028e-23
-7.57799e-05 0.000629084 0
-7.57799e-05 0.000629084 0
-0.00137667 0.000673435 0
-0.00137667 0.000673435 0
-0.00252698 0.000597564 2.72668e-23
-0.00252698 0.000597564 2.72668e-23
-0.00350904 0.00050727 2.73861e-23
-0.00350904 0.00050727 2.73861e-23
-0.00433854 0.000424412 0
-0.00433854 0.000424412 0
-0.00504118 0.000354377 -2.54102e-23
-0.00504118 0.000354377 -2.54102e-23
-0.00564074 0.000297371 -2.55237e-23
-0.00564074 0.000297371 -2.55237e-23
-0.00615635 0.000251392 0
-0.00615635 0.000251392 0
-0.00660184 0.000213422 -2.37023e-23
-0.00660184 0.000213422 -2.37023e-23
-0.00698604 0.000180773 -2.38102e-23
-0.00698604 0.000180773 -2.38102e-23
-0.00731389 0.000151476 0
-0.00731389 0.000151476 0
-0.00758707 0.000123632 2.22308e-23
-0.00758707 0.000123632 2.22308e-23
-0.00780428 9.58461e-05 4.41469e-23
-0.00780428 9.58461e-05 4.41469e-23
-0.00796286 6.81429e-05 2.19148e-23
-0.00796286 6.81429e-05 2.19148e-23
-0.00806074 4.09784e-05 -2.11136e-23
-0.00806074 4.09784e-05 -2.11136e-23
-0.00809614 1.44401e-05 -2.12134e-23
-0.00809614 1.44401e-05 -2.12134e-23
-0.00806994 -1.07985e-05 2.0612e-23
-0.00806994 -1.07985e-05 2.0612e-23
-0.00798428 -3.4535e-05 2.07106e-23
-0.00798428 -3.4535e-05 2.07106e-23
-0.00784034 -5.71068e-05 2.03058e-23
-0.00784034 -5.71068e-05 2.03058e-23
-0.00764063 -7.81882e-05 4.06213e-23
-0.00764063 -7.81882e-05 4.06213e-23
-0.0073884 -9.74654e-05 2.03157e-23
-0.0073884 -9.74654e-05 2.03157e-23
-0.00708731 -0.00011493 0
-0.00708731 -0.00011493 0
-0.00674088 -0.0001307 0
-0.00674088 -0.0001307 0
-0.00635222 -0.000144994 0
-0.00635222 -0.000144994 0
-0.00592368 -0.000158123 0
-0.00592368 -0.000158123 0
-0.00545699 -0.000170308 0
-0.00545699 -0.000170308 0
-0.00495363 -0.000181558 0
-0.00495363 -0.000181558 0
-0.00441562 -0.000191556 2.0297e-23
-0.00441562 -0.000191556 2.0297e-23
-0.00384653 -0.000199623 8.09902e-26
-0.00384653 -0.000199623 8.09902e-26
-0.00325245 -0.000204809 -2.04234e-23
-0.00325245 -0.000204809 -2.04234e-23
-0.00264231 -0.000206105 0
-0.00264231 -0.000206105 0
-0.00202713 -0.000202828 0
-0.00202713 -0.000202828 0
-0.00141923 -0.000194893 0
-0.00141923 -0.000194893 0
-0.00083134 -0.000182646 -4.01257e-23
-0.00083134 -0.000182646 -4.01257e-23
-0.000275899 -0.000168525 -4.03365e-23
-0.000275899 -0.000168525 -4.03365e-23
0.000238921 -0.000153749 3.94864e-23
0.000238921 -0.000153749 3.94864e-23
0.000712527 -0.000138597 5.99177e-25
0.000712527 -0.000138597 5.99177e-25
0.0011476 -0.000124823 -3.93052e-23
0.0011476 -0.000124823 -3.93052e-23
0.00154815 -0.00011314 0
0.00154815 -0.00011314 0
0.00192023 -0.000103872 0
0.00192023 -0.000103872 0
0.00227066 -9.70901e-05 3.73938e-23
0.00227066 -9.70901e-05 3.73938e-23
0.00260635 -9.26031e-05 7.45622e-23
0.00260635 -9.26031e-05 7.45622e-23
0.00293366 -8.9921e-05 3.7167e-23
0.00293366 -8.9921e-05 3.7167e-23
0.00325786 -8.84856e-05 3.61207e-23
0.00325786 -8.84856e-05 3.61207e-23
0.00358232 -8.74609e-05 7.20206e-23
0.00358232 -8.74609e-05 7.20206e-23
0.00390697 -8.52691e-05 6.21165e-25
0.00390697 -8.52691e-05 6.21165e-25
0.00422716 -8.02919e-05 -3.54734e-23
0.00422716 -8.02919e-05 -3.54734e-23
0.00453444 -7.22641e-05 0
0.00453444 -7.22641e-05 0
0.0048192 -6.17087e-05 -3.39498e-23
0.0048192 -6.17087e-05 -3.39498e-23
0.00507134 -4.69225e-05 -3.4141e-23
0.00507134 -4.69225e-05 -3.4141e-23
0.00527621 -2.29071e-05 0
0.00527621 -2.29071e-05 0
0.00540983 1.29542e-05 0
0.00540983 1.29542e-05 0
0.00544617 5.28743e-05 0
0.00544617 5.28743e-05 0
0.00537375 8.59727e-05 3.15351e-23
0.00537375 8.59727e-05 3.15351e-23
0.00519516 0.00011154 6.27439e-23
0.00519516 0.00011154 6.27439e-23
0.00491691 0.000136159 3.12066e-23
0.00491691 0.000136159 3.12066e-23
0.00454382 0.000164005 2.99908e-23
0.00454382 0.000164005 2.99908e-23
0.00407613 0.000189324 3.01653e-23
0.00407613 0.000189324 3.01653e-23
0.00352499 0.000195603 0
0.00352499 0.000195603 0
0.00293569 0.000170145 2.83353e-23
0.00293569 0.000170145 2.83353e-23
0.00238151 0.000120781 2.85021e-23
0.00238151 0.000120781 2.85021e-23
0.00192441 6.84615e-05 2.72152e-23
0.00192441 6.84615e-05 2.72152e-23
0.00158729 2.86828e-05 2.73766e-23
0.00158729 2.86828e-05 2.73766e-23
0.00136034 5.68597e-06 0
0.00136034 5.68597e-06 0
0.00121859 -4.24356e-06 2.56949e-23