/*--------------------------------*- C++ -*----------------------------------*\
  =========                 |
  \\      /  F ield         | OpenFOAM: The Open Source CFD Toolbox
   \\    /   O peration     | Website:  https://openfoam.org
    \\  /    A nd           | Version:  7
     \\/     M anipulation  |
\*---------------------------------------------------------------------------*/
FoamFile
{
    version     2.0;
    format      ascii;
    class       volScalarField;
    location    "0.064";
    object      k_0;
}
// * * * * * * * * * * * * * * * * * * * * * * * * * * * * * * * * * * * * * //

dimensions      [0 2 -2 0 0 0 0];

internalField   nonuniform List<scalar> 
12225
(
1.93999e-05
1.79727e-05
1.68476e-05
1.52993e-05
1.41866e-05
1.25411e-05
1.15172e-05
9.99984e-06
8.81685e-06
8.85046e-06
9.0119e-06
8.2079e-06
5.65205e-06
4.56239e-06
4.42641e-06
4.52187e-06
4.47262e-06
4.77689e-06
1.99833e-05
1.98767e-05
1.97059e-05
1.93883e-05
1.90398e-05
1.87437e-05
1.84733e-05
1.7873e-05
1.71656e-05
1.69476e-05
1.70031e-05
1.74094e-05
1.75502e-05
1.74407e-05
1.67499e-05
1.52824e-05
1.46368e-05
1.38201e-05
1.99995e-05
1.91649e-05
1.89113e-05
1.89181e-05
1.89127e-05
1.88748e-05
1.87825e-05
1.86602e-05
1.86022e-05
1.86059e-05
1.86544e-05
1.88558e-05
1.90641e-05
1.91088e-05
1.90813e-05
1.89135e-05
1.85018e-05
1.80184e-05
2.01472e-05
1.99442e-05
1.93801e-05
1.86891e-05
1.76025e-05
1.59534e-05
1.52305e-05
1.51825e-05
1.5397e-05
1.63556e-05
1.76694e-05
1.85891e-05
1.91303e-05
1.93759e-05
1.94381e-05
1.9426e-05
1.93237e-05
1.89143e-05
2.17457e-05
2.44951e-05
2.30363e-05
2.15024e-05
2.06437e-05
1.97839e-05
1.91006e-05
1.88217e-05
1.88337e-05
1.9132e-05
2.01597e-05
2.16231e-05
2.26251e-05
2.324e-05
2.35196e-05
2.35599e-05
2.33908e-05
2.23532e-05
2.43248e-05
2.31561e-05
2.46605e-05
2.64963e-05
2.6664e-05
2.68627e-05
2.70239e-05
2.70458e-05
2.70731e-05
2.71318e-05
2.73146e-05
2.80065e-05
2.86444e-05
2.87913e-05
2.87663e-05
2.85896e-05
2.79599e-05
2.60026e-05
2.43792e-05
2.69247e-05
2.54399e-05
2.53159e-05
2.65686e-05
2.67315e-05
2.60156e-05
2.50866e-05
2.48084e-05
2.4815e-05
2.51788e-05
2.63333e-05
2.69595e-05
2.70642e-05
2.70231e-05
2.68009e-05
2.59973e-05
2.44879e-05
2.15362e-05
2.46606e-05
2.68989e-05
2.7029e-05
2.66724e-05
2.53289e-05
2.38391e-05
2.30106e-05
2.2545e-05
2.22694e-05
2.21413e-05
2.2167e-05
2.2668e-05
2.36145e-05
2.40444e-05
2.41483e-05
2.41416e-05
2.40521e-05
2.06442e-05
2.19485e-05
2.20733e-05
2.2571e-05
2.44362e-05
2.4521e-05
2.432e-05
2.35481e-05
2.23289e-05
2.15196e-05
2.11248e-05
2.10332e-05
2.10628e-05
2.11901e-05
2.12997e-05
2.14443e-05
2.17746e-05
2.25911e-05
2.11123e-05
2.28065e-05
2.23094e-05
2.1281e-05
2.13669e-05
2.19555e-05
2.22237e-05
2.22169e-05
2.21357e-05
2.19732e-05
2.16178e-05
2.10712e-05
2.06801e-05
2.04648e-05
2.03669e-05
2.03472e-05
2.03711e-05
2.05667e-05
2.17544e-05
2.16739e-05
2.10418e-05
2.08697e-05
2.08447e-05
2.0926e-05
2.11268e-05
2.1611e-05
2.20562e-05
2.22315e-05
2.2229e-05
2.20656e-05
2.14902e-05
2.09086e-05
2.05412e-05
2.03643e-05
2.03191e-05
2.03052e-05
2.20641e-05
2.19034e-05
2.19194e-05
2.1691e-05
2.13961e-05
2.106e-05
2.0969e-05
2.10112e-05
2.1478e-05
2.31002e-05
2.42483e-05
2.45288e-05
2.45331e-05
2.4515e-05
2.44517e-05
2.41859e-05
2.34802e-05
2.30026e-05
2.05202e-05
2.07167e-05
2.08966e-05
2.13596e-05
2.14778e-05
2.13747e-05
2.10571e-05
2.09703e-05
2.11631e-05
2.24846e-05
2.52277e-05
2.66026e-05
2.68239e-05
2.66306e-05
2.56503e-05
2.40628e-05
2.29293e-05
2.22648e-05
2.03535e-05
2.04945e-05
2.06373e-05
2.09644e-05
2.10514e-05
2.09301e-05
2.04838e-05
2.02751e-05
2.03138e-05
2.09697e-05
2.25478e-05
2.33586e-05
2.35905e-05
2.35955e-05
2.34819e-05
2.2994e-05
2.24491e-05
2.21802e-05
2.03122e-05
2.05256e-05
2.05533e-05
2.05404e-05
2.04332e-05
2.0227e-05
2.00747e-05
2.00494e-05
2.01613e-05
2.07612e-05
2.15502e-05
2.19529e-05
2.21066e-05
2.2142e-05
2.21389e-05
2.21043e-05
2.20176e-05
2.19378e-05
2.15806e-05
2.15261e-05
2.09039e-05
2.05684e-05
2.05011e-05
2.04593e-05
2.03387e-05
2.02617e-05
2.02623e-05
2.02972e-05
2.04115e-05
2.07586e-05
2.14937e-05
2.20947e-05
2.24758e-05
2.26643e-05
2.27209e-05
2.27163e-05
2.07365e-05
2.06722e-05
2.05859e-05
2.05365e-05
2.04479e-05
2.03216e-05
2.0202e-05
2.01569e-05
2.01591e-05
2.02124e-05
2.0465e-05
2.10731e-05
2.15159e-05
2.17311e-05
2.17878e-05
2.17828e-05
2.17122e-05
2.14116e-05
2.02538e-05
2.03201e-05
2.02801e-05
2.02234e-05
2.0225e-05
2.02731e-05
2.03193e-05
2.03419e-05
2.03702e-05
2.04374e-05
2.05662e-05
2.06488e-05
2.06739e-05
2.06731e-05
2.06531e-05
2.05596e-05
2.03982e-05
2.03041e-05
2.02392e-05
2.0365e-05
2.0435e-05
2.0451e-05
2.04748e-05
2.05358e-05
2.06939e-05
2.07938e-05
2.09119e-05
2.10964e-05
2.12959e-05
2.14557e-05
2.15553e-05
2.15811e-05
2.15563e-05
2.14276e-05
2.10575e-05
2.07628e-05
2.04039e-05
2.09541e-05
2.09235e-05
2.06606e-05
2.04932e-05
2.04947e-05
2.06231e-05
2.07774e-05
2.08483e-05
2.09528e-05
2.12592e-05
2.18206e-05
2.20437e-05
2.20656e-05
2.20481e-05
2.1962e-05
2.17564e-05
2.1546e-05
2.04636e-05
2.07004e-05
2.06903e-05
2.05354e-05
2.02841e-05
2.02455e-05
2.02601e-05
2.02702e-05
2.02779e-05
2.02975e-05
2.03688e-05
2.07102e-05
2.136e-05
2.15511e-05
2.1459e-05
2.11647e-05
2.10622e-05
2.10428e-05
2.14856e-05
2.07798e-05
2.04528e-05
2.03943e-05
2.03739e-05
2.03856e-05
2.03963e-05
2.03686e-05
2.0347e-05
2.03687e-05
2.04562e-05
2.04994e-05
2.05001e-05
2.04782e-05
2.04536e-05
2.04592e-05
2.04975e-05
2.05519e-05
2.08701e-05
2.07265e-05
2.04673e-05
2.04649e-05
2.05646e-05
2.06154e-05
2.06049e-05
2.05295e-05
2.04537e-05
2.04067e-05
2.03639e-05
2.03171e-05
2.0272e-05
2.024e-05
2.02354e-05
2.02393e-05
2.02486e-05
2.02731e-05
2.02984e-05
2.03372e-05
2.02245e-05
2.01559e-05
2.01543e-05
2.01841e-05
2.04216e-05
2.06168e-05
2.06014e-05
2.05888e-05
2.0585e-05
2.05783e-05
2.05676e-05
2.05645e-05
2.05686e-05
2.05781e-05
2.05749e-05
2.05663e-05
2.01158e-05
2.01128e-05
2.01172e-05
2.02142e-05
2.06755e-05
2.11866e-05
2.146e-05
2.15204e-05
2.14594e-05
2.1138e-05
2.07445e-05
2.0532e-05
2.04527e-05
2.04453e-05
2.0488e-05
2.07029e-05
2.0903e-05
2.09553e-05
2.00222e-05
2.00253e-05
2.01626e-05
2.04499e-05
2.05893e-05
2.07972e-05
2.14661e-05
2.20789e-05
2.21611e-05
2.20708e-05
2.1632e-05
2.10732e-05
2.07985e-05
2.07182e-05
2.06736e-05
2.06066e-05
2.05563e-05
2.05529e-05
2.00049e-05
2.01338e-05
2.03461e-05
2.03759e-05
2.03162e-05
2.01696e-05
2.01819e-05
2.02142e-05
2.01835e-05
2.01878e-05
2.02636e-05
2.0559e-05
2.0806e-05
2.08319e-05
2.07181e-05
2.01284e-05
1.93432e-05
1.87511e-05
2.02981e-05
1.82063e-05
1.2618e-05
1.13044e-05
1.22355e-05
1.56783e-05
2.46048e-05
3.20025e-05
3.73735e-05
4.51e-05
5.70204e-05
7.03652e-05
8.11747e-05
8.69367e-05
8.94367e-05
9.05081e-05
9.18638e-05
9.41647e-05
3.01717e-05
8.59138e-05
0.00012124
0.000152794
0.000214161
0.000320828
0.000404705
0.000447752
0.000474868
0.000513288
0.000574182
0.000649255
0.000712554
0.000742926
0.000747501
0.000746203
0.00074009
0.0007306
0.00235968
0.0021552
0.00210823
0.00211484
0.00213293
0.00212918
0.00208578
0.00198445
0.00192312
0.00189775
0.00189034
0.00188563
0.00187437
0.0018359
0.00171987
0.00159205
0.00148883
0.00140981
0.000471105
0.00120183
0.00166258
0.00181918
0.00243201
0.0027867
0.00342805
0.00438739
0.00465977
0.00449539
0.0038958
0.00327412
0.00286923
0.00252221
0.00226325
0.0020334
0.00186791
0.00171
0.00157951
0.00146296
0.00135382
0.0012391
0.00116557
0.00111834
0.00110062
0.00110036
0.00109894
0.00108607
0.00104605
0.000971668
0.000807753
0.000732929
0.000816053
0.00147945
0.00234023
0.00279746
0.00315665
0.00354079
0.00405499
0.00482974
0.00646943
0.0114095
0.0205634
0.024334
0.0221605
0.0197421
0.0207202
0.0282522
0.0504701
0.049235
0.0159322
0.00262599
0.00103768
0.000765362
0.000748073
0.000749508
0.000761964
0.000727261
0.000659528
0.000577315
0.00048553
0.000417787
0.000315425
0.000267795
0.000208385
0.000166762
0.000141423
0.000117452
0.000106985
0.000102445
0.000101682
0.000102084
0.000102205
0.000102204
0.000102326
0.000102434
0.000102429
0.000102381
0.000102433
0.000102592
0.000102753
0.000102825
0.000102712
0.000102589
0.000102717
0.000103034
0.000103291
0.000103403
0.000103164
0.000102501
0.000101475
0.00010003
9.81837e-05
9.60118e-05
9.35582e-05
9.07677e-05
8.72374e-05
8.30945e-05
7.87254e-05
7.43651e-05
6.97244e-05
6.4756e-05
6.04861e-05
5.63393e-05
5.28072e-05
4.9597e-05
4.65607e-05
4.36345e-05
4.08015e-05
3.80559e-05
3.53804e-05
3.27538e-05
3.01618e-05
2.7582e-05
2.50296e-05
2.25155e-05
1.99763e-05
1.73633e-05
1.47902e-05
1.23941e-05
1.0271e-05
8.45051e-06
6.90314e-06
5.58029e-06
4.46396e-06
3.54929e-06
2.81152e-06
2.22265e-06
1.75589e-06
1.38815e-06
1.10022e-06
8.76053e-07
7.02282e-07
5.67765e-07
4.63349e-07
3.81677e-07
3.17005e-07
2.6498e-07
2.22401e-07
1.86982e-07
1.57124e-07
1.31721e-07
1.10002e-07
9.14081e-08
7.55138e-08
6.19766e-08
5.05072e-08
4.08526e-08
3.27858e-08
2.60997e-08
2.06045e-08
1.61269e-08
1.25104e-08
9.61596e-09
7.32077e-09
5.51824e-09
4.11665e-09
3.03801e-09
2.21674e-09
1.59869e-09
1.13924e-09
8.01977e-10
5.57502e-10
3.82596e-10
2.59074e-10
1.73064e-10
1.13958e-10
7.39769e-11
4.72648e-11
2.97688e-11
1.8378e-11
1.12363e-11
6.62216e-12
3.95749e-12
2.23322e-12
1.11501e-12
5.99295e-12
2.35317e-09
8.41515e-07
8.73937e-07
0.000411705
0.00111955
0.0020539
0.00370582
0.00465525
0.0049342
0.00449833
0.00468717
0.00473048
0.00456807
0.00418569
0.00367056
0.00318335
0.00291358
0.00271363
0.00255326
0.00240712
0.00226314
0.00213716
0.00201162
0.00190467
0.00180036
0.00172199
0.00161767
0.00153749
0.00144694
0.00134104
0.00125722
0.00116195
0.00110097
0.00100147
0.000888267
0.000881382
0.000923214
0.00104896
0.00129114
0.00135049
0.00132956
0.00126759
0.00119795
0.00124058
0.00176453
0.00227402
0.00267683
0.00337436
0.00608217
0.0210785
0.0290649
0.022029
0.0110515
0.00323534
0.0010763
0.000626839
0.000489446
0.000434102
0.000385484
0.000346155
0.000309116
0.000280089
0.000261653
0.000247313
0.000240241
0.000235359
0.000233624
0.000233001
0.000233531
0.00023437
0.000234924
0.000235985
0.000236497
0.000236789
0.000236908
0.000236772
0.000236427
0.000236291
0.000235912
0.000235051
0.000234132
0.0002332
0.000232235
0.000231318
0.00023029
0.000229092
0.000227848
0.000226615
0.000225301
0.000223839
0.00022226
0.000220583
0.000218751
0.000216604
0.000214247
0.000211742
0.000209073
0.000206087
0.000202942
0.000199242
0.000195113
0.000190338
0.00018503
0.000178927
0.000171688
0.000163734
0.000154595
0.000144779
0.000134864
0.000125735
0.000117633
0.000110067
0.000102741
9.56868e-05
8.88972e-05
8.25369e-05
7.66172e-05
7.10334e-05
6.58134e-05
6.09621e-05
5.64192e-05
5.20154e-05
4.76399e-05
4.32706e-05
3.8946e-05
3.47376e-05
3.07172e-05
2.69067e-05
2.33079e-05
1.99574e-05
1.69033e-05
1.41834e-05
1.18154e-05
9.79476e-06
8.10022e-06
6.70069e-06
5.55971e-06
4.63904e-06
3.90121e-06
3.31104e-06
2.83648e-06
2.44948e-06
2.127e-06
1.8516e-06
1.61117e-06
1.39804e-06
1.20763e-06
1.03724e-06
8.8513e-07
7.49988e-07
6.30663e-07
5.26073e-07
4.35157e-07
3.56838e-07
2.90006e-07
2.33531e-07
1.8628e-07
1.47141e-07
1.15053e-07
8.9018e-08
6.8125e-08
5.15364e-08
3.85171e-08
2.8429e-08
2.07164e-08
1.48994e-08
1.05731e-08
7.39951e-09
5.10598e-09
3.4713e-09
2.32546e-09
1.53257e-09
9.95307e-10
6.33634e-10
3.98638e-10
2.43862e-10
1.47219e-10
8.86346e-11
4.88628e-11
2.5485e-11
4.33463e-10
1.37024e-07
1.66049e-07
0.000340355
0.000851027
0.00197211
0.00594526
0.00739234
0.0062983
0.00476172
0.00380491
0.00312522
0.00286599
0.00282289
0.00284433
0.00290636
0.00295362
0.00296504
0.00295841
0.00293853
0.00289614
0.00282831
0.00270232
0.00258875
0.00246505
0.00234403
0.00226358
0.00213125
0.00202586
0.00190225
0.00176882
0.00158196
0.00144449
0.00130017
0.0011616
0.00102899
0.000965728
0.000970279
0.00101468
0.00104744
0.00105514
0.00103463
0.0010038
0.00108846
0.00157671
0.00200768
0.00395782
0.0112049
0.0137362
0.0159244
0.00924282
0.00380234
0.00161839
0.000670934
0.000414633
0.000338531
0.000306853
0.000288747
0.000274854
0.000262297
0.000255883
0.000249911
0.000247116
0.000244517
0.000243076
0.000242448
0.000242351
0.000243258
0.000244349
0.000245855
0.000247879
0.000250415
0.000252752
0.000254988
0.000257239
0.000259073
0.000259917
0.00026028
0.000260356
0.000260015
0.000258592
0.000256655
0.000254888
0.000253109
0.00025113
0.000249148
0.000247218
0.000245144
0.000242826
0.000240388
0.000237846
0.00023517
0.000232587
0.000230185
0.000227827
0.000225513
0.000223316
0.000221153
0.000218995
0.000216768
0.000214632
0.000212289
0.00020987
0.000207312
0.000204381
0.00020097
0.000196759
0.00019129
0.000184064
0.00017455
0.000164149
0.000154568
0.000145462
0.000136714
0.000128128
0.000118925
0.000108883
9.84e-05
8.82112e-05
7.92701e-05
7.20645e-05
6.61549e-05
6.13378e-05
5.7494e-05
5.43763e-05
5.15987e-05
4.89398e-05
4.6212e-05
4.31957e-05
3.97334e-05
3.58332e-05
3.1679e-05
2.75326e-05
2.35813e-05
1.99032e-05
1.65465e-05
1.35585e-05
1.09815e-05
8.83506e-06
7.10518e-06
5.74823e-06
4.70307e-06
3.90454e-06
3.293e-06
2.81893e-06
2.44391e-06
2.13948e-06
1.8853e-06
1.66724e-06
1.47564e-06
1.30399e-06
1.14809e-06
1.00539e-06
8.74488e-07
7.54766e-07
6.4586e-07
5.47446e-07
4.5939e-07
3.81482e-07
3.13369e-07
2.54551e-07
2.04385e-07
1.6214e-07
1.27017e-07
9.82049e-08
7.48928e-08
5.6309e-08
4.17105e-08
3.04313e-08
2.18466e-08
1.54348e-08
1.07172e-08
7.31722e-09
4.90417e-09
3.21776e-09
2.08707e-09
1.28885e-09
8.33199e-10
4.51106e-10
3.19139e-10
2.00109e-10
4.52412e-09
1.25954e-08
0.0023159
0.0016691
0.00511545
0.00945901
0.00848378
0.00587064
0.00348765
0.00257334
0.0023933
0.00243821
0.00255682
0.00271695
0.00290772
0.00312486
0.0033073
0.0034477
0.0035829
0.0036542
0.00365817
0.00364419
0.00359182
0.00351065
0.00342546
0.0033402
0.00326986
0.00312313
0.00298341
0.00278357
0.00253641
0.00231356
0.00206809
0.00184416
0.00149066
0.00120957
0.00105494
0.00101709
0.000984704
0.000909065
0.000882979
0.000978489
0.00160651
0.00449408
0.00846805
0.00984627
0.0107515
0.00846846
0.00398656
0.00187214
0.000854622
0.000475206
0.000350407
0.000318966
0.000309582
0.000305359
0.000302427
0.000302633
0.000299686
0.00029409
0.000290408
0.000288536
0.000287298
0.000287017
0.000287005
0.000287162
0.000288045
0.000290109
0.000292827
0.000294601
0.000295402
0.000296161
0.000296772
0.000296967
0.000296935
0.000295976
0.000293913
0.000291689
0.000289304
0.000286295
0.000282872
0.000279064
0.000274921
0.000270761
0.000266575
0.00026236
0.000258141
0.000253974
0.000249864
0.000245747
0.000241343
0.000237017
0.000233302
0.000229832
0.000226646
0.000223898
0.000221336
0.000218952
0.000216729
0.000214919
0.000213114
0.000211349
0.00020902
0.000206541
0.000203816
0.000201484
0.000199307
0.000196707
0.000192943
0.000185679
0.000174598
0.000163925
0.000154082
0.000145171
0.00013744
0.000130642
0.000123874
0.000115984
0.000106334
9.55873e-05
8.61035e-05
7.88978e-05
7.33617e-05
6.89775e-05
6.54025e-05
6.24734e-05
6.00607e-05
5.7935e-05
5.57973e-05
5.33007e-05
5.02382e-05
4.65661e-05
4.2342e-05
3.76106e-05
3.23973e-05
2.68834e-05
2.14822e-05
1.66572e-05
1.26927e-05
9.62845e-06
7.3397e-06
5.65234e-06
4.41058e-06
3.49533e-06
2.81972e-06
2.31958e-06
1.94622e-06
1.66263e-06
1.44131e-06
1.26342e-06
1.11612e-06
9.90583e-07
8.80558e-07
7.81643e-07
6.91051e-07
6.07265e-07
5.29404e-07
4.57175e-07
3.90643e-07
3.3002e-07
2.75524e-07
2.27255e-07
1.85136e-07
1.48923e-07
1.18233e-07
9.26055e-08
7.15315e-08
5.44755e-08
4.08819e-08
3.02146e-08
2.19761e-08
1.57135e-08
1.10489e-08
7.61874e-09
5.17484e-09
3.42025e-09
2.25559e-09
1.39273e-09
9.34302e-10
4.55706e-10
4.85222e-10
8.23958e-10
0.00692888
0.00991939
0.0145842
0.0118593
0.00572688
0.0028428
0.00216242
0.00216692
0.00225049
0.00244129
0.00278226
0.00309039
0.00338609
0.00363781
0.00382828
0.0040335
0.00415511
0.00427467
0.00440031
0.00443962
0.00442826
0.00438517
0.004294
0.00412498
0.0039785
0.00376908
0.00356579
0.00339421
0.00312108
0.00283165
0.00262813
0.00239364
0.00220091
0.00179883
0.00135564
0.00116029
0.00100932
0.000928432
0.00100988
0.00219656
0.00664122
0.00813638
0.00847333
0.00823111
0.00542517
0.00236594
0.00109008
0.000583723
0.00039553
0.000338996
0.000326716
0.000324458
0.000328151
0.000330538
0.000331488
0.000321387
0.000312888
0.000304649
0.000296729
0.000294234
0.000293335
0.00029314
0.000293533
0.000295358
0.000298794
0.000302935
0.000306597
0.00030933
0.00031146
0.000313072
0.000314086
0.000314493
0.000314479
0.000312957
0.00030994
0.000307208
0.00030418
0.000300484
0.000297135
0.000293621
0.000289562
0.000285797
0.000281937
0.000278028
0.000273856
0.000269578
0.000265274
0.000261174
0.000256384
0.000251193
0.000246512
0.000241404
0.000236186
0.000231496
0.000227079
0.000223185
0.000219719
0.000217342
0.000215594
0.000214361
0.000213374
0.000210395
0.000205088
0.000199701
0.000196326
0.00019501
0.000195274
0.000194942
0.000191929
0.0001817
0.00016657
0.000152902
0.00014199
0.000133715
0.000127468
0.000122495
0.000117314
0.000111052
0.000102524
9.2225e-05
8.27324e-05
7.56453e-05
7.06076e-05
6.68934e-05
6.4014e-05
6.17536e-05
6.00473e-05
5.87305e-05
5.73734e-05
5.55414e-05
5.31887e-05
5.06181e-05
4.80089e-05
4.51184e-05
4.1491e-05
3.69138e-05
3.16296e-05
2.61284e-05
2.0882e-05
1.62091e-05
1.22568e-05
9.06276e-06
6.61751e-06
4.85964e-06
3.64405e-06
2.79268e-06
2.17684e-06
1.72296e-06
1.38678e-06
1.13712e-06
9.50061e-07
8.07098e-07
6.94402e-07
6.02178e-07
5.23978e-07
4.5531e-07
3.93074e-07
3.35834e-07
2.83687e-07
2.36781e-07
1.95211e-07
1.58961e-07
1.27862e-07
1.01597e-07
7.97165e-08
6.17269e-08
4.71443e-08
3.54953e-08
2.63341e-08
1.92388e-08
1.3836e-08
9.77946e-09
6.80357e-09
4.63778e-09
3.11684e-09
2.03945e-09
1.32481e-09
8.22473e-10
5.25265e-10
3.50744e-10
0.00425266
0.0153672
0.0102636
0.00370917
0.00195772
0.00185957
0.00198002
0.00226383
0.00266433
0.00300259
0.0033022
0.00356861
0.00377757
0.00403327
0.00424636
0.00450063
0.00473187
0.00505978
0.00523306
0.00542595
0.0055147
0.00549609
0.00542775
0.0052713
0.00506038
0.00465875
0.00422604
0.00390239
0.00352379
0.00310978
0.00281532
0.00262395
0.0023641
0.00201731
0.00173273
0.0013323
0.00104847
0.00113171
0.00311076
0.00678896
0.00750678
0.00752381
0.00621159
0.00333434
0.00165117
0.000792834
0.000470905
0.000368801
0.000343355
0.000339912
0.000347424
0.000355051
0.000358072
0.0003553
0.000344064
0.000331417
0.000321069
0.000309867
0.000304377
0.000303125
0.000303093
0.000305407
0.000310698
0.000318266
0.000327508
0.00033625
0.000343035
0.000349243
0.000355716
0.000361823
0.000366268
0.000368275
0.000368959
0.000367913
0.000362525
0.000356889
0.000350273
0.000342652
0.000337246
0.000333161
0.000327291
0.000323057
0.0003184
0.00031454
0.000309924
0.0003052
0.000300198
0.000295858
0.000290966
0.000286014
0.000281467
0.000275461
0.00026848
0.000260413
0.000250918
0.000240819
0.000230721
0.000222226
0.000216845
0.000214102
0.000216189
0.00022009
0.00022123
0.000216164
0.000203456
0.000191937
0.000187842
0.000189595
0.000196021
0.000198271
0.000195922
0.000180277
0.000156352
0.000137966
0.00012642
0.000119625
0.000115976
0.00011282
0.000108481
0.000102846
9.53539e-05
8.64285e-05
7.82694e-05
7.20789e-05
6.75013e-05
6.40289e-05
6.13795e-05
5.94855e-05
5.8255e-05
5.73485e-05
5.61704e-05
5.42565e-05
5.17165e-05
4.9133e-05
4.69235e-05
4.48961e-05
4.24013e-05
3.89006e-05
3.43522e-05
2.91528e-05
2.38533e-05
1.89222e-05
1.46494e-05
1.11471e-05
8.38978e-06
6.26404e-06
4.63218e-06
3.38931e-06
2.46204e-06
1.78767e-06
1.30902e-06
9.76107e-07
7.47478e-07
5.90479e-07
4.80596e-07
4.00964e-07
3.40978e-07
2.93727e-07
2.53781e-07
2.17736e-07
1.8426e-07
1.53577e-07
1.25996e-07
1.01726e-07
8.08412e-08
6.32511e-08
4.87351e-08
3.6977e-08
2.76308e-08
2.03235e-08
1.47201e-08
1.04854e-08
7.35002e-09
5.05997e-09
3.42475e-09
2.27525e-09
1.48044e-09
9.49685e-10
5.91903e-10
3.62937e-10
0.00756691
0.00627341
0.00250609
0.00140341
0.00150101
0.00190224
0.00239085
0.00267981
0.00300156
0.00325471
0.00355772
0.00381631
0.00401454
0.00433647
0.00457622
0.00503446
0.00540654
0.00597733
0.00643492
0.00672018
0.00707113
0.00710705
0.00703351
0.00684188
0.0065984
0.00616653
0.00554853
0.0049763
0.00446584
0.00381897
0.00321321
0.00288882
0.00261274
0.00225715
0.0017785
0.0012729
0.00121975
0.00295389
0.00637226
0.00696069
0.00676226
0.00476148
0.00234784
0.00118945
0.000651564
0.000428869
0.000361365
0.000348623
0.000350775
0.000369034
0.000378246
0.000379836
0.000378553
0.00036958
0.000355882
0.000342985
0.000330373
0.000321335
0.000318878
0.00031894
0.000323401
0.000332698
0.00034606
0.000361509
0.000377041
0.000393007
0.000410559
0.000429614
0.000448554
0.000466831
0.000481776
0.000488631
0.000491087
0.00049028
0.00047818
0.000458732
0.000444072
0.000424927
0.000408526
0.000400011
0.00038529
0.000375787
0.00036419
0.00035624
0.000348197
0.000341653
0.000337284
0.000336193
0.000337492
0.000341038
0.000342581
0.000342197
0.000339042
0.000331905
0.000320587
0.000304595
0.000281826
0.000252563
0.000226956
0.000209511
0.000199849
0.000201937
0.000217444
0.000228442
0.000229601
0.000218476
0.000194348
0.000181076
0.000180123
0.000191464
0.000203023
0.000204563
0.000197911
0.000169764
0.000137586
0.000119062
0.000109664
0.000105712
0.000104744
0.000103059
9.90444e-05
9.36814e-05
8.68125e-05
7.92567e-05
7.27268e-05
6.76731e-05
6.37602e-05
6.0724e-05
5.8523e-05
5.71637e-05
5.64292e-05
5.57586e-05
5.44666e-05
5.21825e-05
4.9245e-05
4.64764e-05
4.44101e-05
4.28714e-05
4.11552e-05
3.85669e-05
3.48628e-05
3.02926e-05
2.5357e-05
2.05479e-05
1.62123e-05
1.25241e-05
9.50776e-06
7.0881e-06
5.16927e-06
3.68253e-06
2.56903e-06
1.7649e-06
1.20441e-06
8.26404e-07
5.78563e-07
4.19168e-07
3.16843e-07
2.49522e-07
2.03311e-07
1.70223e-07
1.4511e-07
1.24006e-07
1.04774e-07
8.70735e-08
7.10768e-08
5.69562e-08
4.48042e-08
3.46038e-08
2.62468e-08
1.9554e-08
1.43115e-08
1.02893e-08
7.26742e-09
5.0405e-09
3.43212e-09
2.2941e-09
1.5038e-09
9.67696e-10
6.10184e-10
3.76835e-10
0.00238112
0.0016198
0.000990697
0.00115726
0.00188743
0.00229563
0.00251154
0.00279684
0.00317574
0.00363956
0.00394122
0.00411261
0.00431204
0.00471585
0.00522232
0.00617148
0.00733607
0.00868569
0.00967708
0.0106926
0.0110247
0.0108606
0.0104022
0.00947023
0.00853962
0.0077747
0.00680004
0.00566519
0.00482151
0.00407387
0.00348626
0.00305784
0.00264939
0.00223578
0.00161092
0.00130107
0.0025284
0.00579391
0.0064441
0.00619866
0.00398578
0.00194804
0.000975372
0.000565578
0.000410626
0.000362584
0.000353816
0.000361053
0.00038253
0.000392124
0.000394366
0.000394505
0.000392326
0.000384086
0.000371183
0.000358844
0.00034899
0.0003452
0.000345361
0.000353168
0.000368925
0.000392568
0.000422984
0.000456917
0.00049313
0.000533447
0.000581349
0.000634348
0.000681919
0.000714314
0.000730277
0.000735927
0.000732023
0.000709066
0.000668613
0.000613609
0.000584732
0.000536617
0.000495855
0.000475589
0.000442448
0.000424973
0.000406493
0.000397297
0.000394185
0.000395157
0.000401934
0.000412675
0.00041347
0.000406606
0.000396592
0.000384861
0.000374872
0.000367314
0.000362075
0.000359055
0.000355083
0.000343104
0.0003105
0.000258298
0.000206768
0.000182574
0.000175305
0.00019195
0.000224014
0.000234088
0.000228716
0.000202246
0.000176724
0.000172075
0.00018149
0.000202753
0.000207804
0.00020422
0.000182968
0.000140617
0.000113997
0.000101277
9.55721e-05
9.4269e-05
9.44109e-05
9.37081e-05
9.02733e-05
8.48512e-05
7.86275e-05
7.23592e-05
6.71335e-05
6.29816e-05
5.97282e-05
5.7342e-05
5.58217e-05
5.50193e-05
5.45472e-05
5.38969e-05
5.24623e-05
4.96378e-05
4.63605e-05
4.3527e-05
4.15979e-05
4.03936e-05
3.92355e-05
3.73789e-05
3.44394e-05
3.05142e-05
2.60132e-05
2.14166e-05
1.71091e-05
1.3314e-05
1.01042e-05
7.45914e-06
5.33984e-06
3.70609e-06
2.49951e-06
1.64529e-06
1.06435e-06
6.83891e-07
4.43152e-07
2.95147e-07
2.05767e-07
1.5153e-07
1.1746e-07
9.49981e-08
7.94238e-08
6.7338e-08
5.66914e-08
4.69011e-08
3.80228e-08
3.01736e-08
2.34345e-08
1.78165e-08
1.3265e-08
9.67504e-09
6.91503e-09
4.84488e-09
3.32782e-09
2.24104e-09
1.47902e-09
9.57122e-10
6.06541e-10
3.77121e-10
0.00116668
0.00103256
0.000877373
0.00149695
0.00206944
0.00230867
0.0025437
0.00308653
0.00363347
0.00396067
0.00410561
0.00427699
0.00463512
0.0054387
0.00681343
0.00927275
0.0122447
0.0151047
0.0172826
0.0189813
0.0189044
0.0183551
0.0171752
0.0148128
0.0121101
0.00966194
0.00767563
0.00649993
0.00541626
0.00428736
0.00349263
0.00302264
0.00258992
0.00197895
0.00145661
0.00209155
0.00514978
0.00592418
0.00579789
0.00353544
0.00172591
0.000890704
0.000528474
0.000397637
0.00035943
0.000352491
0.000360817
0.00038747
0.000397597
0.000401993
0.000404309
0.000405532
0.000405298
0.000401677
0.000394211
0.000387802
0.000385383
0.000389393
0.0004037
0.000430943
0.000474264
0.000532551
0.000609212
0.000701083
0.000805615
0.000916682
0.00103132
0.00114956
0.00124717
0.00129099
0.0013047
0.00126251
0.00119386
0.00115706
0.00102556
0.000892774
0.000827129
0.000729408
0.000638785
0.000592175
0.000531647
0.000493518
0.000476263
0.000471792
0.000471815
0.000475738
0.000474554
0.000457558
0.000436972
0.000418204
0.000400805
0.000383606
0.000366051
0.00034796
0.000335034
0.000334377
0.000349094
0.0003589
0.000356471
0.000336204
0.000290633
0.000221176
0.000171891
0.000157583
0.000162748
0.000203409
0.000228977
0.000227138
0.000205201
0.00017413
0.000165139
0.000171137
0.000195694
0.000204487
0.000201758
0.000183598
0.000140562
0.000109784
9.47656e-05
8.7793e-05
8.51673e-05
8.51011e-05
8.53602e-05
8.48886e-05
8.21814e-05
7.7004e-05
7.1355e-05
6.60111e-05
6.16243e-05
5.82081e-05
5.57526e-05
5.42122e-05
5.34098e-05
5.30012e-05
5.25829e-05
5.17436e-05
4.96877e-05
4.63686e-05
4.30675e-05
4.04834e-05
3.88677e-05
3.79944e-05
3.72552e-05
3.59403e-05
3.35855e-05
3.01483e-05
2.59295e-05
2.14166e-05
1.70824e-05
1.31947e-05
9.8664e-06
7.12615e-06
4.96675e-06
3.34424e-06
2.18073e-06
1.38215e-06
8.56063e-07
5.22539e-07
3.18535e-07
1.97718e-07
1.27966e-07
8.80808e-08
6.47756e-08
5.05201e-08
4.13608e-08
3.47534e-08
2.91227e-08
2.39629e-08
1.92722e-08
1.51238e-08
1.15773e-08
8.648e-09
6.3073e-09
4.49435e-09
3.13052e-09
2.13279e-09
1.4216e-09
9.27812e-10
5.9246e-10
3.71509e-10
0.00105755
0.000950501
0.000885281
0.00173398
0.00207762
0.0022941
0.00279033
0.00346227
0.00381592
0.00405159
0.00415854
0.00443979
0.00519123
0.00680865
0.00985713
0.0140148
0.018064
0.0209634
0.0230443
0.0241204
0.0243164
0.0240012
0.0230225
0.020793
0.0174901
0.0135028
0.00968938
0.00704216
0.0053413
0.00416335
0.00338941
0.00288471
0.00225196
0.00169664
0.00186686
0.00446195
0.0054204
0.0054734
0.00351069
0.00161515
0.000845865
0.000518427
0.000394332
0.000358097
0.000351646
0.000357519
0.000381955
0.000398649
0.000409724
0.000416296
0.00042062
0.00042478
0.000427307
0.000427594
0.000426704
0.000430829
0.000446206
0.000477179
0.000526866
0.000602036
0.000709325
0.000851464
0.00103844
0.00127504
0.00155653
0.00184856
0.00211849
0.00236941
0.00257183
0.00267434
0.00270758
0.0025689
0.00235098
0.0022324
0.00190436
0.00162933
0.00144315
0.00119884
0.00102682
0.000876658
0.000757407
0.000664004
0.000609101
0.000579515
0.000560698
0.000540379
0.00050751
0.000471218
0.000439024
0.000409654
0.000386137
0.000369099
0.00035199
0.00032648
0.000293343
0.00026129
0.000243027
0.000259381
0.000303506
0.000329517
0.000317988
0.000277322
0.000222268
0.000168206
0.000146247
0.000146053
0.000178254
0.000214516
0.000216622
0.000198432
0.000168174
0.000155327
0.000158206
0.000180824
0.000192449
0.000190877
0.000173554
0.000134517
0.000104607
8.92225e-05
8.17841e-05
7.83593e-05
7.75978e-05
7.78194e-05
7.8033e-05
7.764e-05
7.52658e-05
6.99567e-05
6.45639e-05
5.98849e-05
5.62811e-05
5.37931e-05
5.23168e-05
5.15985e-05
5.12659e-05
5.09685e-05
5.03851e-05
4.89459e-05
4.58628e-05
4.2554e-05
3.97394e-05
3.76751e-05
3.63471e-05
3.55938e-05
3.50799e-05
3.42787e-05
3.24755e-05
2.91348e-05
2.48788e-05
2.02877e-05
1.59101e-05
1.20203e-05
8.7441e-06
6.12103e-06
4.12741e-06
2.6865e-06
1.69232e-06
1.03493e-06
6.16955e-07
3.60824e-07
2.09296e-07
1.22601e-07
7.44553e-08
4.82182e-08
3.37864e-08
2.55297e-08
2.05685e-08
1.71759e-08
1.43306e-08
1.17138e-08
9.32547e-09
7.21696e-09
5.42889e-09
3.97236e-09
2.8298e-09
1.96472e-09
1.33034e-09
8.79825e-10
5.67766e-10
3.59581e-10
0.000966374
0.000920738
0.000993088
0.00183979
0.00203251
0.00236091
0.0031071
0.00359586
0.00387345
0.00405325
0.00415745
0.00450509
0.0054522
0.00748745
0.0112106
0.0159054
0.0199269
0.0226604
0.0245054
0.0252587
0.0251317
0.024006
0.0226512
0.0203327
0.0170216
0.0129852
0.00923069
0.00662385
0.00494126
0.00382378
0.00310429
0.00237116
0.00194639
0.00192199
0.00373612
0.00495471
0.00512948
0.00374992
0.00165056
0.000836914
0.000517776
0.000396313
0.000357988
0.000350589
0.000354995
0.000376841
0.000392105
0.000402541
0.000415508
0.000425381
0.000433341
0.000441675
0.000451008
0.000462971
0.00048232
0.000522378
0.000593889
0.000679224
0.000819663
0.000995321
0.00123105
0.00154228
0.00191709
0.00245201
0.00311701
0.00382045
0.00448783
0.00512439
0.00556069
0.00574784
0.00578875
0.00543351
0.00497045
0.00449761
0.00377785
0.00326071
0.00276318
0.00223936
0.00186649
0.00151591
0.00124335
0.00103345
0.000873527
0.000758699
0.000676811
0.000606574
0.000539824
0.000487905
0.000441147
0.000407563
0.000390444
0.000389031
0.000395538
0.000383386
0.000341594
0.000274414
0.000219966
0.000187565
0.000173799
0.000194845
0.00024476
0.000263496
0.000241945
0.000200675
0.000160264
0.000137008
0.000133663
0.000154232
0.000191877
0.000198213
0.000184127
0.000155961
0.000140068
0.000139355
0.000156279
0.00017084
0.000171378
0.000157923
0.0001252
9.86317e-05
8.42906e-05
7.7071e-05
7.34764e-05
7.21735e-05
7.2062e-05
7.21853e-05
7.21853e-05
7.15406e-05
6.84843e-05
6.2895e-05
5.79979e-05
5.42425e-05
5.16885e-05
5.02094e-05
4.95293e-05
4.92561e-05
4.90529e-05
4.86636e-05
4.76989e-05
4.50787e-05
4.16871e-05
3.87291e-05
3.64852e-05
3.49765e-05
3.40767e-05
3.35589e-05
3.31235e-05
3.23642e-05
3.0665e-05
2.71133e-05
2.26091e-05
1.79482e-05
1.36585e-05
9.97801e-06
7.00016e-06
4.72249e-06
3.07047e-06
1.92873e-06
1.17326e-06
6.92837e-07
3.98392e-07
2.2416e-07
1.24525e-07
6.94352e-08
3.994e-08
2.45383e-08
1.64968e-08
1.21637e-08
9.71215e-09
8.0925e-09
6.72797e-09
5.45692e-09
4.29061e-09
3.2657e-09
2.40722e-09
1.7209e-09