/*--------------------------------*- C++ -*----------------------------------*\
  =========                 |
  \\      /  F ield         | OpenFOAM: The Open Source CFD Toolbox
   \\    /   O peration     | Website:  https://openfoam.org
    \\  /    A nd           | Version:  7
     \\/     M anipulation  |
\*---------------------------------------------------------------------------*/
FoamFile
{
    version     2.0;
    format      ascii;
    class       volScalarField;
    location    "0.064";
    object      p;
}
// * * * * * * * * * * * * * * * * * * * * * * * * * * * * * * * * * * * * * //

dimensions      [0 2 -2 0 0 0 0];

internalField   nonuniform List<scalar> 
12225
(
66.2917
72.513
75.4942
77.2456
78.4546
79.3242
79.9358
80.3464
80.5928
80.6988
80.689
80.5907
80.4278
80.2186
79.971
79.6866
79.3518
78.9311
67.4464
72.6302
75.5285
77.2687
78.4675
79.3331
79.9448
80.3564
80.6031
80.7089
80.6989
80.6004
80.4369
80.2269
79.9792
79.6958
79.366
78.9613
68.31
72.8074
75.5791
77.3112
78.5
79.3599
79.9707
80.3814
80.6259
80.7299
80.7207
80.6252
80.4656
80.2571
80.0094
79.7233
79.3934
79.0004
69.4199
73.1621
75.7185
77.4021
78.5686
79.4147
80.0184
80.4242
80.6647
80.7673
80.7594
80.6662
80.5078
80.2987
80.0484
79.759
79.4285
79.0489
70.6115
73.5638
75.8895
77.5171
78.6615
79.4916
80.0853
80.4845
80.7203
80.82
80.8109
80.7174
80.5591
80.3495
80.0982
79.8087
79.4813
79.1158
71.921
74.0638
76.1256
77.6758
78.7924
79.603
80.1821
80.5709
80.7992
80.8942
80.8825
80.7878
80.629
80.4189
80.1667
79.8773
79.5537
79.2
72.6804
74.611
76.4213
77.8831
78.964
79.7501
80.3098
80.684
80.9019
80.9902
80.9741
80.8762
80.7149
80.5031
80.25
79.9618
79.6434
79.3008
74.2841
75.216
76.7684
78.1345
79.1766
79.9366
80.4746
80.8311
81.036
81.1151
81.0923
80.9893
80.8242
80.6101
80.356
80.069
79.7554
79.4214
74.9903
75.8068
77.1614
78.4359
79.4369
80.1706
80.6841
81.018
81.2049
81.2707
81.238
81.1271
80.9559
80.7378
80.4823
80.1967
79.888
79.5624
76.1563
76.3357
77.5792
78.7993
79.7584
80.4591
80.9414
81.2475
81.4121
81.4613
81.416
81.2955
81.1174
80.8949
80.6375
80.3526
80.0473
79.728
75.5901
76.7412
78.0385
79.2173
80.1377
80.8066
81.2595
81.5367
81.6748
81.7013
81.6372
81.5015
81.3116
81.0805
80.8181
80.5321
80.2294
79.916
75.3496
77.136
78.5024
79.6742
80.5644
81.196
81.6088
81.8486
81.9543
81.9545
81.8707
81.7208
81.5203
81.2823
81.016
80.7285
80.4265
80.1162
75.7288
77.5664
79.0333
80.1915
81.0506
81.6427
82.0153
82.2182
82.2912
82.2629
82.1542
81.9824
81.7639
81.512
81.2357
80.9427
80.6395
80.3317
77.5352
78.1843
79.7337
80.8998
81.7199
82.2552
82.5653
82.7098
82.7307
82.6578
82.5133
82.3148
82.0769
81.8109
81.5256
81.227
80.921
80.6125
74.2256
78.6258
80.6871
81.8954
82.6492
83.0949
83.3168
83.3839
83.3395
83.2104
83.0169
82.7765
82.5039
82.2103
81.9032
81.5889
81.2733
80.9601
76.1394
80.2452
82.2764
83.3792
83.974
84.267
84.3541
84.3011
84.1523
83.9351
83.6692
83.3714
83.0547
82.7271
82.3943
82.0608
81.7304
81.4062
81.9272
83.7282
84.9389
85.599
85.8708
85.9
85.7703
85.5404
85.2489
84.9155
84.5538
84.1764
83.7926
83.4087
83.0286
82.6565
82.2959
81.9492
87.678
88.3801
88.782
88.7572
88.5089
88.1338
87.6871
87.2033
86.7019
86.1962
85.6953
85.2054
84.7303
84.2719
83.8314
83.4094
83.0065
82.6231
94.6166
95.0341
94.2293
93.1593
92.1021
91.1054
90.1771
89.3156
88.52
87.7825
87.0951
86.4532
85.8538
85.2933
84.7681
84.2755
83.8136
83.3804
109.792
103.693
99.9872
97.3908
95.409
93.8074
92.4465
91.2617
90.2128
89.2712
88.4167
87.6354
86.9192
86.2606
85.6522
85.0878
84.5633
84.0741
114.94
107.825
103.307
100.09
97.6401
95.6711
94.0129
92.5884
91.3505
90.2607
89.2902
88.4101
87.6153
86.8891
86.2227
85.6091
85.0431
84.5176
114.94
109.314
105.078
101.773
99.1367
96.9835
95.1807
93.6303
92.273
91.0694
90.0071
89.0554
88.1946
87.414
86.7003
86.0447
85.4406
84.8845
114.326
109.825
106.052
102.833
100.141
97.8843
95.9705
94.3176
92.8714
91.5907
90.4811
89.4834
88.5801
87.7619
87.0172
86.3356
85.7073
85.13
112.468
110.07
106.643
103.493
100.814
98.5393
96.5852
94.8803
93.3775
92.0728
90.879
89.8311
88.8925
88.0435
87.2718
86.5667
85.9208
85.3253
114.614
110.694
107.078
103.924
101.226
98.9306
96.9424
95.2016
93.6781
92.321
91.1176
90.0451
89.0843
88.2167
87.429
86.7103
86.0522
85.4473
115.899
111.164
107.385
104.235
101.558
99.2577
97.2423
95.4666
93.9006
92.5234
91.3001
90.2111
89.2341
88.3519
87.5514
86.8217
86.1538
85.54
117.066
111.277
107.451
104.35
101.728
99.4209
97.3919
95.6003
94.0236
92.6369
91.4055
90.306
89.3186
88.4274
87.6193
86.8832
86.2099
85.5916
116
111.293
107.542
104.491
101.878
99.5613
97.5091
95.7025
94.1167
92.7198
91.4798
90.3727
89.3785
88.4813
87.668
86.9277
86.2508
85.6292
114.207
110.976
107.478
104.529
101.929
99.6138
97.5585
95.7487
94.1596
92.7591
91.5158
90.4054
89.4078
88.5071
87.6905
86.9471
86.2677
85.6444
113.689
110.865
107.47
104.575
101.973
99.6497
97.5893
95.7751
94.1821
92.7783
91.5324
90.4199
89.4208
88.5192
87.7022
86.9591
86.28
85.6567
73.0497
72.9964
72.9219
72.9055
72.9904
73.172
73.3841
73.5572
73.6326
73.597
73.4509
73.2133
72.9079
72.5582
72.1862
71.8107
71.448
71.1115
70.8123
70.559
70.3571
70.2087
70.111
70.0593
70.0476
70.0676
70.1089
70.1568
70.1963
70.2082
70.175
70.0807
69.9104
69.7002
69.5117
69.3532
69.2293
69.1445
69.0713
69.0105
68.9659
68.9259
68.8415
68.6717
68.5893
68.5593
68.402
68.1275
67.8729
67.7255
67.6866
67.5032
67.0654
66.4005
65.551
64.57
63.5092
62.4127
61.3145
60.2389
59.2028
58.218
57.2926
56.4332
55.6451
54.933
54.3012
53.753
53.291
52.9162
52.6284
52.4251
52.3057
52.2638
52.2933
52.3876
52.5391
52.7407
52.9856
53.2683
53.5841
53.9297
54.3032
54.7037
55.1317
55.588
56.0736
56.589
57.1334
57.7039
58.2953
58.8996
59.5063
60.1028
60.6752
61.2097
61.6936
62.1158
62.4683
62.7462
62.9476
63.073
63.1253
63.1095
63.0317
62.8996
62.7206
62.4991
62.2468
61.9676
61.6665
61.3474
61.0133
60.6665
60.3088
59.9418
59.5672
59.1864
58.8008
58.4117
58.02
57.6266
57.232
56.8366
56.4406
56.0443
55.6472
55.2493
54.8508
54.4514
54.0512
53.6499
53.2475
52.844
52.4391
52.0329
51.6251
51.2157
50.8045
50.3915
49.9766
49.5597
49.1407
48.7197
48.2967
47.8715
47.4441
47.0145
46.5824
46.1479
45.7108
45.2711
44.8286
44.3833
43.9351
43.4838
43.0294
42.572
42.1113
41.6474
41.1803
40.7098
40.2361
39.7591
39.2787
38.7951
38.3082
37.8181
37.3249
36.8288
36.3298
35.8283
35.3245
34.8192
34.3126
33.8059
33.2998
32.7952
32.2986
31.7899
72.7254
72.6588
72.5453
72.4985
72.5807
72.7848
73.0366
73.2243
73.3088
73.2772
73.1369
72.9095
72.6179
72.2837
71.9266
71.5646
71.2134
70.8862
70.5936
70.3434
70.1402
69.9866
69.884
69.83
69.8182
69.8391
69.8816
69.9326
69.9777
69.9995
69.978
69.9011
69.7539
69.5704
69.432
69.3337
69.2391
69.1487
69.0583
68.9852
68.9617
68.9284
68.8793
68.763
68.514
68.389
68.4697
68.3425
67.8859
67.5608
67.3657
67.0486
66.534
65.8276
64.9678
64.0018
62.9744
61.9221
60.8724
59.8448
58.8527
57.9061
57.0125
56.1789
55.4114
54.7161
54.0983
53.5629
53.1134
52.752
52.479
52.2932
52.1879
52.1592
52.2009
52.3058
52.4669
52.6768
52.9287
53.2166
53.5357
53.8828
54.2559
54.6546
55.0794
55.5316
56.0129
56.5242
57.0651
57.6335
58.2243
58.8297
59.4392
60.0398
60.6172
61.1573
61.6469
62.0747
62.4323
62.7149
62.9203
63.049
63.104
63.0902
63.014
62.8829
62.704
62.4838
62.2316
61.9529
61.6526
61.3346
61.0018
60.6564
60.3001
59.9344
59.5609
59.181
58.7961
58.4075
58.0163
57.6232
57.2288
56.8337
56.4378
56.0413
55.6444
55.2468
54.8485
54.4494
54.0494
53.6484
53.2462
52.8429
52.4382
52.0322
51.6245
51.2153
50.8042
50.3913
49.9764
49.5596
49.1407
48.7197
48.2966
47.8714
47.444
47.0144
46.5823
46.1478
45.7107
45.271
44.8285
44.3832
43.935
43.4837
43.0293
42.5718
42.1112
41.6473
41.1801
40.7097
40.2359
39.7589
39.2785
38.7949
38.3079
37.8178
37.3245
36.8282
36.3291
35.8274
35.3234
34.8176
34.3106
33.8031
33.2964
32.7899
32.2915
31.7826
72.5062
72.4444
72.3314
72.2573
72.3057
72.4725
72.6573
72.7795
72.8094
72.7411
72.5856
72.3598
72.0803
71.7629
71.4238
71.0786
70.7424
70.4283
70.1474
69.9081
69.7167
69.5768
69.4887
69.4497
69.453
69.4888
69.5454
69.6103
69.6707
69.7166
69.739
69.7333
69.6996
69.6413
69.5727
69.4857
69.3794
69.2782
69.173
69.0614
68.9816
68.8929
68.6946
68.6811
68.7645
68.4947
68.2135
67.9827
67.6221
67.1817
66.7075
66.1616
65.5229
64.7858
63.9631
63.0755
62.1456
61.1941
60.2384
59.2926
58.3682
57.4751
56.6225
55.8194
55.0744
54.396
53.792
53.269
52.832
52.4839
52.2256
52.055
51.9674
51.958
52.0196
52.1444
52.3239
52.5501
52.8156
53.1137
53.4395
53.7896
54.1622
54.5572
54.9757
55.4199
55.8924
56.3952
56.9291
57.4928
58.0821
58.6895
59.3042
59.9128
60.5
61.0509
61.5515
61.9899
62.3576
62.6491
62.8624
62.9978
63.0583
63.0489
62.976
62.8469
62.6684
62.4497
62.198
61.92
61.621
61.305
60.9748
60.6322
60.2788
59.9159
59.5448
59.1669
58.7838
58.3967
58.0066
57.6145
57.2211
56.8266
56.4315
56.0357
55.6394
55.2423
54.8445
54.4459
54.0464
53.6458
53.2441
52.8412
52.4369
52.0312
51.6239
51.2148
50.804
50.3912
49.9765
49.5598
49.141
48.7201
48.297
47.8718
47.4444
47.0149
46.5826
46.1481
45.711
45.2712
44.8287
44.3833
43.935
43.4837
43.0293
42.5718
42.1111
41.6471
41.1799
40.7094
40.2356
39.7585
39.278
38.7942
38.3071
37.8168
37.3233
36.8267
36.3271
35.8248
35.3202
34.8133
34.3052
33.7954
33.2865
32.7758
32.2714
31.7568
72.5732
72.541
72.4678
72.3656
72.3272
72.354
72.3828
72.3675
72.2906
72.1495
71.9491
71.6969
71.4023
71.0774
70.7361
70.393
70.0621
69.7563
69.4864
69.2608
69.085
68.962
68.8941
68.8819
68.9189
68.9943
69.0959
69.2116
69.3291
69.439
69.5316
69.6039
69.6524
69.6747
69.6708
69.6433
69.5969
69.5209
69.4237
69.2927
69.0807
68.9716
68.8821
68.535
68.4046
68.2248
67.8886
67.4746
66.9942
66.463
65.882
65.248
64.5591
63.8157
63.0232
62.1906
61.3291
60.45
59.564
58.6806
57.8091
56.9587
56.139
55.3605
54.6338
53.9697
53.3781
52.8675
52.4444
52.1125
51.8731
51.7248
51.6618
51.6789
51.7683
51.9208
52.1265
52.3762
52.6611
52.9741
53.3097
53.6641
54.0359
54.4253
54.8345
55.2667
55.7259
56.2157
56.7386
57.2946
57.8807
58.4899
59.1112
59.7305
60.3311
60.8965
61.4118
61.8645
62.2455
62.5495
62.7741
62.9195
62.9885
62.9862
62.919
62.7933
62.6176
62.4005
62.1497
61.8726
61.5751
61.2615
60.9345
60.596
60.2468
59.888
59.5207
59.1462
58.7659
58.3812
57.9931
57.6026
57.2105
56.8173
56.4231
56.0282
55.6326
55.2363
54.8392
54.4412
54.0422
53.6422
53.2409
52.8385
52.4346
52.0292
51.6222
51.2135
50.8029
50.3904
49.9758
49.5592
49.1404
48.7196
48.2966
47.8713
47.4439
47.014
46.5821
46.1476
45.7105
45.2707
44.8283
44.3829
43.9346
43.4833
43.0289
42.5714
42.1106
41.6467
41.1794
40.7089
40.235
39.7578
39.2773
38.7934
38.3061
37.8156
37.3218
36.8248
36.3248
35.8219
35.3164
34.8084
34.2988
33.7869
33.2751
32.7603
32.2489
31.7274
72.8074
72.8123
72.7349
72.5926
72.4397
72.2958
72.1536
71.9924
71.7974
71.5622
71.2854
70.97
70.624
70.2589
69.8881
69.5251
69.1826
68.8721
68.6043
68.3881
68.23
68.1343
68.1012
68.1293
68.2137
68.346
68.5142
68.7054
68.9065
69.1048
69.2898
69.4508
69.582
69.6841
69.7495
69.7871
69.7912
69.7437
69.6207
69.5055
69.352
69.022
68.778
68.5013
68.1615
67.7757
67.3229
66.8102
66.2532
65.6624
65.037
64.3738
63.6728
62.9363
62.1686
61.375
60.5613
59.7332
58.8964
58.0567
57.2212
56.3982
55.598
54.8326
54.1149
53.4578
52.8736
52.3726
51.9626
51.6481
51.4304
51.3079
51.2769
51.3291
51.4547
51.643
51.8826
52.1626
52.4729
52.8053
53.1536
53.514
53.8851
54.268
54.6657
55.0827
55.5247
55.9973
56.5049
57.0496
57.6299
58.2397
58.868
59.4995
60.1158
60.6983
61.2307
61.7
62.0969
62.4157
62.6536
62.8106
62.8899
62.8973
62.8387
62.7211
62.5513
62.3374
62.0881
61.812
61.516
61.205
60.8818
60.5478
60.2038
59.8501
59.4876
59.1175
58.7411
58.3595
57.9742
57.586
57.1958
56.8042
56.4114
56.0177
55.6232
55.2279
54.8317
54.4345
54.0364
53.637
53.2365
52.8346
52.4313
52.0265
51.6199
51.2115
50.8013
50.389
49.9746
49.5582
49.1396
48.7189
48.2959
47.8707
47.4433
47.0135
46.5815
46.147
45.71
45.2702
44.8277
44.3824
43.9341
43.4828
43.0284
42.5708
42.1101
41.6461
41.1788
40.7082
40.2343
39.757
39.2764
38.7923
38.3049
37.8141
37.32
36.8227
36.3222
35.8186
35.3122
34.8029
34.2916
33.7776
33.2624
32.7438
32.225
31.697
72.9346
72.9633
72.8694
72.6785
72.4395
72.1864
71.9249
71.6466
71.3404
71.0012
70.6307
70.2368
69.8315
69.427
69.0336
68.6594
68.3112
67.9974
67.7285
67.5149
67.3653
67.286
67.2783
67.3365
67.4583
67.6385
67.8669
68.1308
68.4162
68.7068
68.9875
69.2414
69.4615
69.6359
69.7659
69.8466
69.8716
69.8499
69.7605
69.5588
69.3114
69.0088
68.6318
68.2118
67.7427
67.2331
66.6933
66.1231
65.5256
64.9022
64.2533
63.578
62.877
62.1526
61.4078
60.6455
59.8677
59.076
58.2719
57.4587
56.6418
55.8297
55.034
54.2686
53.5488
52.8901
52.3068
51.811
51.4113
51.1134
50.9193
50.8265
50.8309
50.9234
51.0922
51.3241
51.6055
51.9232
52.2654
52.6225
52.9876
53.3565
53.7282
54.1043
54.4888
54.8877
55.3085
55.7589
56.246
56.7746
57.3453
57.9534
58.5879
59.232
59.8651
60.466
61.0168
61.504
61.9184
62.2544
62.5081
62.6779
62.7658
62.7812
62.7319
62.6252
62.4663
62.2608
62.0164
61.7424
61.4478
61.1389
60.8193
60.4901
60.1515
59.8037
59.4469
59.082
58.7101
58.3326
57.9507
57.5655
57.1778
56.7882
56.3973
56.0052
55.6121
55.2179
54.8228
54.4266
54.0294
53.631
53.2312
52.8301
52.4275
52.0232
51.6171
51.2091
50.7992
50.3872
49.973
49.5567
49.1382
48.7175
48.2946
47.8695
47.4421
47.0124
46.5804
46.1459
45.7089
45.2692
44.8268
44.3815
43.9332
43.4819
43.0275
42.57
42.1092
41.6452
41.1779
40.7073
40.2333
39.756
39.2752
38.791
38.3034
37.8124
37.318
36.8203
36.3192
35.8149
35.3076
34.7971
34.284
33.7678
33.2493
32.7269
32.2015
31.6673
73.1137
73.0605
72.8972
72.645
72.3512
72.0317
71.6883
71.3161
70.9127
70.4837
70.0415
69.5999
69.1702
68.7576
68.3627
67.9864
67.6337
67.3139
67.0396
66.8233
66.6752
66.6021
66.6067
66.6857
66.8321
67.0391
67.2997
67.6056
67.9447
68.3021
68.6563
68.9869
69.2744
69.5067
69.6766
69.7781
69.8281
69.7965
69.6734
69.4546
69.1345
68.7354
68.271
67.7626
67.2262
66.6655
66.0847
65.4843
64.8643
64.2244
63.5648
62.8867
62.1917
61.4821
60.7589
60.022
59.2693
58.4989
57.7098
56.9038
56.0865
55.2676
54.4604
53.681
52.9473
52.2767
51.6854
51.1871
50.792
50.5068
50.3347
50.2745
50.32
50.4604
50.6814
50.9666
51.2992
51.6631
52.0444
52.4318
52.8176
53.1974
53.5706
53.9394
54.3092
54.6876
55.0838
55.5081
55.9705
56.4787
57.036
57.6394
58.2785
58.935
59.5858
60.2063
60.7753
61.2794
61.7108
62.0654
62.3392
62.5276
62.6294
62.6511
62.6057
62.5057
62.3577
62.165
61.9316
61.6647
61.3735
61.0667
60.7498
60.4247
60.0916
59.7497
59.3991
59.0399
58.6734
58.3005
57.9226
57.5408
57.156
56.7691
56.3803
55.9901
55.5986
55.2059
54.8121
54.4171
54.0208
53.6234
53.2246
52.8243
52.4225
52.0189
51.6134
51.206
50.7965
50.3849
49.971
49.5549
49.1365
48.7159
48.293
47.8679
47.4406
47.0109
46.5789
46.1445
45.7075
45.2679
44.8255
44.3803
43.9321
43.4808
43.0265
42.5689
42.1082
41.6442
41.1769
40.7062
40.2322
39.7547
39.2739
38.7896
38.3018
37.8106
37.3159
36.8177
36.3161
35.811
35.3027
34.7909
34.2761
33.7576
33.236
32.7098
32.1788
31.6389
73.1925
73.0653
72.798
72.5028
72.1801
71.8237
71.427
70.9901
70.5237
70.0459
69.5744
69.122
68.6911
68.2762
67.8692
67.4689
67.084
66.7335
66.4384
66.2148
66.0737
66.0197
66.0518
66.1676
66.3529
66.5939
66.8819
67.2113
67.5748
67.9609
68.3507
68.7201
69.041
69.2988
69.4755
69.5854
69.6096
69.5444
69.387
69.1165
68.7398
68.2891
67.7895
67.2558
66.6988
66.1226
65.5288
64.9181
64.2904
63.6464
62.9871
62.3149
61.6317
60.9382
60.233
59.5125
58.7714
58.0055
57.2125
56.3947
55.5591
54.7172
53.8843
53.0783
52.3183
51.624
51.0138
50.5038
50.1063
49.8302
49.68
49.657
49.7519
49.9506
50.2346
50.5834
50.9765
51.3943
51.8205
52.2425
52.6519
53.0446
53.4205
53.7829
54.1386
54.4965
54.8677
55.2641
55.6982
56.181
56.7192
57.3129
57.9536
58.6223
59.2924
59.9349
60.5221
61.0382
61.479
61.8451
62.1365
62.3483
62.4743
62.5144
62.4768
62.3778
62.2335
62.0509
61.8307
61.5757
61.2931
60.9913
60.6773
60.3554
60.0267
59.6906
59.3462
58.9931
58.6321
58.2641
57.8905
57.5125
57.1311
56.747
56.3609
55.9729
55.5833
55.1923
54.7999
54.4062
54.0111
53.6148
53.217
52.8176
52.4167
52.0139
51.6092
51.2024
50.7935
50.3822
49.9687
49.5528
49.1345
48.7139
48.2911
47.866
47.4386
47.009
46.5771
46.1427
45.7058
45.2663
44.824
44.3788
43.9307
43.4795
43.0251
42.5676
42.1069
41.6429
41.1756
40.7049
40.2308
39.7533
39.2724
38.7879
38.3
37.8085
37.3135
36.8149
36.3127
35.8069
35.2976
34.7846
34.2679
33.7473
33.2227
32.6929
32.157
31.6119
72.9051
72.763
72.5337
72.2709
71.9638
71.6037
71.1874
70.7249
70.2396
69.7554
69.2885
68.8421
68.4068
67.9642
67.5023
67.0273
66.5635
66.1467
65.8082
65.5704
65.4449
65.4341
65.5336
65.7239
65.9784
66.2765
66.6056
66.9601
67.3376
67.7315
68.1249
68.4903
68.8065
69.0443
69.2028
69.2756
69.262
69.1643
68.9622
68.6529
68.2581
67.8007
67.2992
66.7672
66.2125
65.639
65.0482
64.441
63.8181
63.1808
62.5311
61.8712
61.202
60.5222
59.8273
59.1108
58.3656
57.587
56.7737
55.9294
55.0624
54.1854
53.3143
52.4676
51.6662
50.9326
50.289
49.756
49.35
49.0823
48.9585
48.9789
49.1318
49.3987
49.7568
50.1804
50.6439
51.1241
51.6021
52.0638
52.5006
52.9088
53.2894
53.6473
53.9904
54.3289
54.6749
55.0418
55.4439
55.8957
56.4087
56.9877
57.6276
58.3087
59.0004
59.6699
60.2807
60.8104
61.2543
61.6187
61.9134
62.1405
62.292
62.3578
62.3396
62.2513
62.1103
61.9306
61.7194
61.4773
61.2062
60.9124
60.6034
60.2847
59.9595
59.6281
59.2896
58.9428
58.5875
58.2246
57.8554
57.4812
57.1033
56.7223
56.3389
55.9534
55.566
55.1769
54.7862
54.3939
54.0002
53.605
53.2082
52.8099
52.4099
52.008
51.6042
51.1981
50.7898
50.3791
49.9659
49.5503
49.1322
48.7118
48.2889
47.8638
47.4364
47.0068
46.5749
46.1406
45.7038
45.2643
44.8221
44.3771
43.929
43.4779
43.0236
42.5661
42.1054
41.6414
41.1741
40.7034
40.2293
39.7517
39.2707
38.7861
38.298
37.8063
37.311
36.8119
36.3092
35.8027
35.2923
34.778
34.2597
33.737
33.2095
32.6763
32.1362
31.5864
72.6202
72.5146
72.3466
72.1197
71.831
71.4779
71.0623
70.6033
70.1302
69.6663
69.2213
68.7882
68.3422
67.8541
67.3206
66.7657
66.2361
65.7754
65.4147
65.1713
65.0583
65.0809
65.2278
65.4719
65.783
66.1324
66.5
66.8773
67.2612
67.6462
68.0168
68.351
68.6262
68.8134
68.9217
68.9445
68.8996
68.7652
68.5307
68.2068
67.811
67.3596
66.8681
66.3474
65.8044
65.2427
64.664
64.0691
63.459
62.8353
62.1996
61.553
60.8947
60.2209
59.5253
58.8003
58.0387
57.2363
56.3929
55.5128
54.6044
53.6793
52.7532
51.8451
50.9785
50.1804
49.4797
48.9041
48.4768
48.2138
48.1213
48.1923
48.4145
48.7659
49.2169
49.7346
50.2865
50.8443
51.3857
51.8955
52.365
52.792
53.1793
53.5339
53.8661
54.1875
54.5112
54.8513
55.2226
55.6417
56.125
56.682
57.3111
57.9941
58.6983
59.3943
60.0311
60.5866
61.048
61.4179
61.7095
61.9358
62.0998
62.1905
62.1965
62.1223
61.9881
61.8133
61.6078
61.3747
61.115
60.8312
60.5287
60.214
59.8917
59.564
59.2305
58.8896
58.5402
58.1826
57.8179
57.4476
57.0731
56.6952
56.3147
55.9318
55.5468
55.1598
54.771
54.3804
53.9881
53.5942
53.1986
52.8014
52.4024
52.0014
51.5984
51.1932
50.7856
50.3755
49.9628
49.5476
49.1298
48.7094
48.2867
47.8615
47.4341
47.0044
46.5725
46.1382
45.7015
45.2621
44.82
44.375
43.9271
43.476
43.0218
42.5644
42.1037
41.6397
41.1724
40.7017
40.2275
39.7499
39.2688
38.7841
38.2959
37.8039
37.3083
36.8089
36.3056
35.7983
35.287
34.7715
34.2515
33.7267
33.1967
32.6603
32.1164
31.5626
72.5404
72.4567
72.3152
72.1145
71.8473
71.5101
71.1072
70.668
70.2214
69.7884
69.3749
68.9673
68.5279
68.0287
67.4732
66.9023
66.3666
65.9083
65.5592
65.3356
65.2429
65.2802
65.4334
65.6797
65.9899
66.3339
66.6914
67.0531
67.4141
67.7654
68.0878
68.3571
68.5537
68.6731
68.7138
68.6984
68.6159
68.4474
68.192
67.8596
67.4635
67.0179
66.5364
66.0281
65.499
64.9522
64.389
63.81
63.2154
62.6062
61.983
61.3456
60.6917
60.0163
59.3123
58.5716
57.7875
56.9561
56.0766
55.1518
54.1878
53.1936
52.1832
51.1768
50.2029
49.2978
48.5022
47.8548
47.3874
47.1212
47.0604
47.1964
47.5136
47.9817
48.5603
49.2058
49.8759
50.5352
51.1578
51.7277
52.237
52.6864
53.0828
53.4367
53.7641
54.0783
54.3915
54.7167
55.0658
55.4533
55.8987
56.4172
57.0112
57.6731
58.3729
59.077
59.7433
60.3376
60.8349
61.228
61.5287
61.756
61.9233
62.0274
62.0547
61.9992
61.8732
61.6987
61.4946
61.2687
61.0197
60.7464
60.4521
60.1425
59.8235
59.499
59.1695
58.8338
58.4901
58.1378
57.7778
57.4116
57.0406
56.6659
56.2883
55.9082
55.5258
55.1411
54.7543
54.3655
53.9749
53.5824
53.1881
52.792
52.3941
51.9941
51.592
51.1876
50.7808
50.3714
49.9593
49.5445
49.127
48.7069
48.2843
47.8591
47.4317
47.002
46.5699
46.1356
45.6989
45.2596
44.8176
44.3728
43.9249
43.4739
43.0198
42.5624
42.1018
41.6378
41.1705
40.6998
40.2256
39.748
39.2668
38.782
38.2936
37.8015
37.3055
36.8057
36.3019
35.7939
35.2817
34.7649
34.2434
33.7167
33.1842
32.6449
32.0976
31.5403
72.6737
72.6046
72.4854
72.304
72.0524
71.7287
71.3424
70.9275
70.5099
70.1094
69.7298
69.356
68.9452
68.4735
67.9515
67.4212
66.9297
66.5148
66.2045
66.0113
65.9376
65.9773
66.1157
66.332
66.6019
66.9029
67.2179
67.5351
67.8439
68.1288
68.3672
68.5405
68.6409
68.677
68.6631
68.6059
68.4809
68.2779
67.9983
67.6508
67.2471
66.8008
66.3235
65.8234
65.3056
64.7721
64.2234
63.6589
63.0779
62.4803
61.8657
61.233
60.579
59.8982
59.183
58.4249
57.6163
56.7517
55.828
54.8436
53.7998
52.7021
51.5643
50.4119
49.2838
48.2301
47.3064
46.5649
46.0462
45.7793
45.7525
45.9722
46.4112
47.0279
47.7689
48.5766
49.396
50.1824
50.9053
51.5471
52.1019
52.5755
52.9823
53.3366
53.6671
53.9862
54.3045
54.6317
54.9729
55.3366
55.7428
56.2138
56.762
57.382
58.0519
58.745
59.4298
60.0672
60.6163
61.0504
61.3708
61.5987
61.7588
61.8637
61.9059
61.8707
61.7587
61.5892
61.3845
61.1587
60.916
60.6537
60.3695
60.0671
59.753
59.4321
59.1066
58.7754
58.4368
58.0897
57.7346
57.3728
57.0057
56.6345
56.26
55.8827
55.5029
55.1207
54.7362
54.3494
53.9606
53.5696
53.1767
52.7819
52.3851
51.9861
51.585
51.1815
50.7755
50.3668
49.9553
49.5411
49.124
48.7042
48.2817
47.8567
47.4292
46.9994
46.5673
46.133
45.6963
45.257
44.8151
44.3703
43.9225
43.4716
43.0176
42.5603
42.0997
41.6357
41.1684
40.6977
40.2235
39.7458
39.2646
38.7797
38.2912
37.7988
37.3026
36.8024
36.2981
35.7895
35.2763
34.7584
34.2355
33.7069
33.1722
32.6303
32.08
31.5195
73.0264
72.9691
72.8577
72.6857
72.4436
72.1301
71.7572
71.3586
70.9617
70.5878
70.2401
69.9029
69.5397
69.1294
68.6798
68.2204
67.7906
67.4277
67.159
66.9958
66.9402
66.9849
67.1154
67.31
67.546
67.8037
68.067
68.3212
68.5494
68.7319
68.8534
68.9098
68.9123
68.8776
68.815
68.7056
68.53
68.283
67.9676
67.5928
67.1704
66.7132
66.2314
65.7323
65.2198
64.6948
64.1565
63.603
63.0324
62.4433
61.8347
61.2046
60.5496
59.8634
59.1377
58.3623
57.5271
56.6234
55.6432
54.5796
53.4284
52.1923
50.8875
49.5484
48.2282
46.9941
45.9178
45.0637
44.4792
44.1948
44.217
44.5346
45.1156
45.9069
46.8401
47.8418
48.8417
49.7822
50.626
51.3528
51.9589
52.456
52.8729
53.2116
53.5501
53.8812
54.2188
54.5662
54.9215
55.2873
55.6792
56.1216
56.6319
57.2079
57.8305
58.4831
59.1515
59.8069
60.399
60.8794
61.2292
61.4656
61.6186
61.7107
61.7472
61.7205
61.625
61.469
61.2711
61.0482
60.8082
60.5516
60.2766
59.9835
59.6768
59.3613
59.0403
58.7136
58.3799
58.038
57.6878
57.3307
56.9678
56.6005
56.2294
55.8552
55.4782
55.0987
54.7166
54.332
53.9451
53.5559
53.1646
52.7711
52.3754
51.9775
51.5774
51.1748
50.7696
50.3617
49.951
49.5373
49.1207
48.7012
48.279
47.8541
47.4267
46.9969
46.5648
46.1305
45.6937
45.2544
44.8125
44.3677
43.92
43.4692
43.0152
42.5579
42.0973
41.6335
41.1662
40.6955
40.2213
39.7436
39.2623
38.7773
38.2886
37.7961
37.2997
36.7992
36.2944
35.7851
35.2711
34.7521
34.2278
33.6975
33.1607
32.6165
32.0635
31.5002
73.5655
73.5126
73.4066
73.2407
73.0033
72.6928
72.3226
71.9255
71.5298
71.1598
70.8249
70.5151
70.2047
69.873
69.5215
69.1674
68.8385
68.5632
68.3647
68.2542
68.2315
68.2888
68.4161
68.5932
68.7977
69.0082
69.204
69.3647
69.4734
69.5218
69.5139
69.4647
69.3907
69.2996
69.1789
69.0045
68.7653
68.4601
68.0949
67.6795
67.226
66.7463
66.2495
65.7423
65.2276
64.7051
64.1726
63.6268
63.0642
62.4824
61.8794
61.2527
60.5981
59.9085
59.1738
58.3816
57.5179
56.569
55.5218
54.364
53.0863
51.6903
50.1968
48.6512
47.1223
45.6932
44.4499
43.4684
42.8045
42.4957
42.5527
42.9626
43.6861
44.6589
45.7988
47.0153
48.2203
49.3404
50.3272
51.1527
51.8162
52.3333
52.7424
53.0832
53.4086
53.7441
54.1035
54.4858
54.8814
55.2846
55.7036
56.1567
56.6567
57.1994
57.767
58.3511
58.9575
59.5824
60.1847
60.6989
61.0794
61.3296
61.4822
61.5663
61.5936
61.5628
61.4719
61.3272
61.1421
60.9294
60.6964
60.4456
60.1771
59.892
59.5933
59.285
58.9696
58.6479
58.3191
57.9824
57.6375
57.2854
56.9272
56.564
56.1967
55.8259
55.4519
55.0751
54.6956
54.3134
53.9286
53.5414
53.1516
52.7596
52.3652
51.9684
51.5693
51.1676
50.7633
50.3562
49.9462
49.5332
49.1171
48.698
48.2761
47.8514
47.4242
46.9945
46.5624
46.128
45.6911
45.2518
44.8098
44.3651
43.9174
43.4666
43.0126
42.5554
42.0949
41.631
41.1637
40.6931
40.2189
39.7411
39.2598
38.7748
38.286
37.7934
37.2967
36.7959
36.2906
35.7808
35.266
34.746
34.2204
33.6886
33.1499
32.6035
32.0481
31.4824
74.233
74.1842
74.0846
73.9257
73.6942
73.3862
73.0127
72.603
72.1861
71.79
71.4334
71.1156
70.8245
70.5452
70.2752
70.0251
69.8124
69.6558
69.5698
69.5599
69.6226
69.7439
69.8995
70.0702
70.2338
70.3709
70.4653
70.5068
70.493
70.4307
70.3342
70.2178
70.0879
69.9342
69.7363
69.4797
69.1611
68.7841
68.3564
67.8886
67.3929
66.8802
66.3588
65.8348
65.3103
64.7844
64.2539
63.7135
63.1585
62.5849
61.9897
61.3694
60.7182
60.0286
59.2874
58.481
57.5906
56.5979
55.4832
54.2302
52.8255
51.2706
49.5922
47.8465
46.1159
44.4976
43.0887
41.976
41.2235
40.8755
40.9475
41.4279
42.2729
43.409
44.7454
46.171
47.58
48.8842
50.0286
50.9603
51.6827
52.2208
52.6203
52.9401
53.2416
53.5682
53.9414
54.3585
54.8031
55.2607
55.7311
56.2224
56.7376
57.267
57.7938
58.3143
58.846
59.4085
59.9832
60.5052
60.9084
61.1741
61.3305
61.4111
61.4327
61.3988
61.3107
61.1742
61.0001
60.7986
60.576
60.334
60.0735
59.7962
59.5053
59.204
58.8949
58.5786
58.255
57.9235
57.5842
57.2375
56.8843
56.5256
56.1623
55.795
55.4242
55.0503
54.6734
54.2937
53.9112
53.5259
53.138
52.7475
52.3544
51.9588
51.5607
51.16
50.7566
50.3503
49.941
49.5287
49.1132
48.6946
48.273
47.8486
47.4216
46.992
46.5599
46.1254
45.6887
45.2493
44.8073
44.3625
43.9148
43.4639
43.0099
42.5527
42.0922
41.6284
41.1611
40.6905
40.2163
39.7385
39.2572
38.7721
38.2833
37.7905
37.2937
36.7926
36.2869
35.7766
35.2611
34.7402
34.2134
33.6802
33.1398
32.5914
32.0339
31.4659
74.9738
74.931
74.8426
74.6989
74.4842
74.1895
73.8211
73.4014
72.9564
72.5149
72.1033
71.7336
71.4071
71.122
70.88
70.6902
70.5639
70.5115
70.538
70.639
70.8002
71.0004
71.213
71.4123
71.5682
71.6682
71.7064
71.6841
71.6109
71.5001
71.362
71.1994
71.004
70.7616
70.4621
70.1035
69.69
69.2279
68.7261
68.1959
67.6487
67.0942
66.54
65.9917
65.4512
64.9172
64.3848
63.8491
63.3033
62.7412
62.1581
61.5491
60.9074
60.2234
59.4826
58.667
57.7557
56.7262
55.5546
54.2196
52.7061
51.0151
49.1817
47.2711
45.3681
43.5889
42.0356
40.8001
39.9608
39.5602
39.6317
40.1611
41.0996
42.364
43.8584
45.4506
47.0213
48.4765
49.7496
50.7913
51.5793
52.1335
52.5107
52.7898
53.0524
53.3595
53.7403
54.1872
54.6731
55.1746
55.688
56.221
56.7711
57.3151
57.8279
58.3076
58.7811
59.2831
59.8134
60.3173
60.7246
61.0009
61.163
61.2433
61.262
61.2264
61.1412
61.0131
60.8504
60.6606
60.4483
60.2158
59.9645
59.6963
59.4138
59.12
58.8173
58.5067
58.1884
57.8623
57.5285
57.1874
56.8394
56.4855
56.1263
55.7627
55.3952
55.0242
54.6501
54.2729
53.8928
53.5097
53.1236
52.7347
52.3431
51.9487
51.5517
51.1519
50.7494
50.3439
49.9355
49.5238
49.109
48.6909
48.2698
47.8457
47.4188
46.9894
46.5576
46.1232
45.6864
45.247
44.805
44.3601
43.9122
43.4613
43.0072
42.55
42.0895
41.6256
41.1584
40.6877
40.2136
39.7358
39.2544
38.7694
38.2805
37.7876
37.2906
36.7893
36.2834
35.7725
35.2564
34.7347
34.2068
33.6723
33.1304
32.5802
32.0208
31.4508
75.6423
75.6091
75.5384
75.4211
75.241
74.9832
74.6462
74.2404
73.7837
73.301
72.8209
72.3676
71.9604
71.6146
71.3434
71.1614
71.081
71.1075
71.2359
71.4494
71.7195
72.0126
72.296
72.5403
72.7349
72.8592
72.9147
72.909
72.8505
72.7426
72.5798
72.354
72.0601
71.6986
71.2767
70.8035
70.2867
69.7339
69.1539
68.5576
67.9556
67.3556
66.7637
66.1859
65.6246
65.0781
64.5423
64.0113
63.4772
62.9316
62.367
61.7762
61.1511
60.4805
59.7486
58.9351
58.0164
56.9676
55.7629
54.3791
52.8003
51.0297
49.1039
47.0931
45.0931
43.218
41.5772
40.2677
39.3684
38.9274
38.985
39.5225
40.4953
41.8182
43.3781
45.0457
46.6908
48.2149
49.5572
50.6711
51.5158
52.0848
52.4276
52.6426
52.8456
53.1265
53.5232
54.0136
54.5498
55.0935
55.6363
56.1924
56.767
57.332
57.8481
58.3067
58.7408
59.1962
59.6854
60.161
60.5541
60.8278
60.9927
61.0756
61.0955
61.0619
60.9812
60.8604
60.707
60.527
60.3241
60.1003
59.8577
59.5983
59.3243
59.0381
58.7418
58.4369
58.1238
57.8028
57.4741
57.1379
56.7949
56.4455
56.0905
55.7305
55.3662
54.998
54.6265
54.2518
53.874
53.493
53.1089
52.7217
52.3315
51.9383
51.5424
51.1436
50.7419
50.3373
49.9296
49.5187
49.1045
48.6871
48.2664
47.8426
47.416
46.9868
46.5552
46.121
45.6843
45.2449
44.8028
44.3578
43.9098
43.4587
43.0045
42.5471
42.0866
41.6227
41.1555
40.6848
40.2106
39.7329
39.2515
38.7664
38.2775
37.7846
37.2875
36.786
36.2798
35.7686
35.2519
34.7295
34.2007
33.665
33.1217
32.5699
32.0088
31.437
76.1227
76.0985
76.0452
75.9559
75.8161
75.6094
75.3241
74.9584
74.5157
74.0086
73.4616
72.9053
72.3772
71.9208
71.5755
71.3712
71.3239
71.4352
71.691
72.0613
72.502
72.9594
73.3825
73.7361
74.0033
74.1861
74.2886
74.3109
74.2519
74.1067
73.8675
73.5306
73.1034
72.6051
72.0551
71.4672
70.8505
70.2124
69.5605
68.9041
68.2517
67.6095
66.9821
66.375
65.7915
65.2312
64.6912
64.1659
63.6462
63.1215
62.5812
62.0149
61.4126
60.7618
60.0461
59.2446
58.3327
57.2846
56.0753
54.6824
53.0917
51.3077
49.3652
47.3332
45.3095
43.4085
41.7404
40.4029
39.4742
39.0056
39.0333
39.5446
40.4946
41.7967
43.3389
44.9966
46.6341
48.1439
49.477
50.6063
51.4827
52.0634
52.3715
52.5116
52.6357
52.8756
53.2889
53.837
54.4417
55.0417
55.6176
56.185
56.7602
57.326
57.842
58.292
58.7071
59.1342
59.5888
60.0324
60.4045
60.6693
60.8331
60.9191
60.944
60.9158
60.8411
60.7275
60.5821
60.4101
60.2148
59.998
59.762
59.5093
59.2425
58.9633
58.6732
58.3735
58.0651
57.7487