/*--------------------------------*- C++ -*----------------------------------*\
  =========                 |
  \\      /  F ield         | OpenFOAM: The Open Source CFD Toolbox
   \\    /   O peration     | Website:  https://openfoam.org
    \\  /    A nd           | Version:  7
     \\/     M anipulation  |
\*---------------------------------------------------------------------------*/
FoamFile
{
    version     2.0;
    format      ascii;
    class       volScalarField;
    location    "0.064";
    object      pMean;
}
// * * * * * * * * * * * * * * * * * * * * * * * * * * * * * * * * * * * * * //

dimensions      [0 2 -2 0 0 0 0];

internalField   nonuniform List<scalar> 
12225
(
-1.9193
-0.776211
-0.345433
-0.234264
-0.179369
-0.141203
-0.120972
-0.121743
-0.140395
-0.170248
-0.20441
-0.238655
-0.270523
-0.303605
-0.34024
-0.403136
-0.49674
-0.76565
-1.59302
-0.764836
-0.349161
-0.230436
-0.179987
-0.144461
-0.124257
-0.123878
-0.141253
-0.169822
-0.203107
-0.236053
-0.268071
-0.298469
-0.338031
-0.385785
-0.482957
-0.586681
-1.42197
-0.78412
-0.372656
-0.232328
-0.182032
-0.1484
-0.126944
-0.12373
-0.137706
-0.163095
-0.193391
-0.224831
-0.255138
-0.287089
-0.322508
-0.372527
-0.43906
-0.534644
-1.22433
-0.748468
-0.371886
-0.220991
-0.172591
-0.144032
-0.124305
-0.119668
-0.131262
-0.154089
-0.182585
-0.212318
-0.242621
-0.273144
-0.309175
-0.352202
-0.41077
-0.481932
-1.05548
-0.711984
-0.377122
-0.218187
-0.166303
-0.140831
-0.122829
-0.116934
-0.12579
-0.146002
-0.172127
-0.200375
-0.229131
-0.259237
-0.292652
-0.33225
-0.380126
-0.433646
-0.898101
-0.657527
-0.369248
-0.209431
-0.152938
-0.130271
-0.115538
-0.10983
-0.116854
-0.134782
-0.159085
-0.185924
-0.213712
-0.242605
-0.273926
-0.309339
-0.348868
-0.391254
-0.756805
-0.593735
-0.353278
-0.199592
-0.138597
-0.11749
-0.106205
-0.101666
-0.10739
-0.123193
-0.145503
-0.170848
-0.197374
-0.224919
-0.254033
-0.285452
-0.318724
-0.35249
-0.623518
-0.520372
-0.326403
-0.184634
-0.121057
-0.100385
-0.0922394
-0.0895486
-0.0947844
-0.108974
-0.129721
-0.153794
-0.179113
-0.205207
-0.232145
-0.260242
-0.28875
-0.316593
-0.500815
-0.44241
-0.290038
-0.164004
-0.100773
-0.0799595
-0.0744323
-0.0742062
-0.0799296
-0.0930298
-0.11226
-0.135068
-0.159332
-0.184161
-0.209258
-0.234644
-0.259601
-0.283379
-0.387059
-0.360859
-0.243819
-0.135984
-0.0764525
-0.0558214
-0.0523067
-0.0545679
-0.0614001
-0.0741906
-0.0924556
-0.114184
-0.137411
-0.161081
-0.184681
-0.208052
-0.230593
-0.251791
-0.279487
-0.277114
-0.189524
-0.100591
-0.0474865
-0.0280265
-0.0262422
-0.0310692
-0.0396887
-0.0528195
-0.0705381
-0.0915578
-0.114088
-0.136955
-0.159488
-0.181475
-0.20242
-0.22205
-0.185539
-0.198432
-0.132809
-0.0608536
-0.0156341
0.00132779
0.00140985
-0.00561196
-0.0161621
-0.0302146
-0.0479744
-0.0685737
-0.090617
-0.113006
-0.13498
-0.156273
-0.176467
-0.195448
-0.0947696
-0.119535
-0.072076
-0.0155837
0.021026
0.034381
0.0323751
0.0230971
0.0104831
-0.00494673
-0.0232855
-0.0440374
-0.0660471
-0.0883047
-0.110056
-0.131069
-0.150959
-0.169748
0.0136598
-0.0253749
0.0036726
0.0440727
0.0700834
0.0777505
0.0724557
0.0603261
0.044939
0.0274067
0.00787132
-0.0133785
-0.0356089
-0.0580623
-0.0800479
-0.101296
-0.121457
-0.140631
0.130448
0.0812777
0.0959306
0.120869
0.134671
0.134477
0.124256
0.108407
0.0897624
0.0694034
0.0476498
0.0247948
0.00140711
-0.0219346
-0.044694
-0.0666926
-0.0876833
-0.107807
0.264859
0.20927
0.210579
0.220134
0.220268
0.20994
0.192635
0.171394
0.148143
0.123847
0.0989301
0.0736297
0.0482624
0.0231598
-0.00127855
-0.0249035
-0.0475323
-0.0692583
0.412201
0.356185
0.34926
0.344691
0.330165
0.307523
0.280734
0.252102
0.222665
0.192898
0.163153
0.133709
0.104841
0.0767415
0.0495991
0.0234262
-0.00170109
-0.0259925
0.607242
0.542302
0.52115
0.500712
0.470234
0.433016
0.393824
0.355003
0.317218
0.280479
0.244757
0.210108
0.17669
0.144573
0.113824
0.0843638
0.0562549
0.0293608
0.873559
0.788626
0.746001
0.70424
0.652932
0.596166
0.539583
0.485754
0.435006
0.38691
0.341189
0.297807
0.25682
0.218174
0.181741
0.147236
0.114463
0.0830984
1.12353
1.03255
0.972852
0.906739
0.830718
0.753212
0.680896
0.615198
0.554765
0.498075
0.444453
0.393856
0.346397
0.301979
0.260391
0.221318
0.184574
0.149881
1.36291
1.26036
1.1758
1.07887
0.97396
0.872729
0.781441
0.700085
0.626491
0.558918
0.4967
0.439614
0.387298
0.339161
0.29461
0.253065
0.214179
0.17753
1.61011
1.48432
1.36462
1.23324
1.10431
0.989817
0.890845
0.802431
0.720506
0.643986
0.573406
0.509127
0.450784
0.397517
0.348491
0.302988
0.260581
0.22088
1.88683
1.71306
1.53349
1.35034
1.18607
1.04988
0.936777
0.837941
0.748309
0.666722
0.593287
0.527547
0.468415
0.414559
0.364999
0.319106
0.276586
0.23702
2.17071
1.94639
1.70409
1.47995
1.29954
1.15779
1.0368
0.924898
0.820965
0.72761
0.64585
0.574216
0.510352
0.452392
0.399276
0.350327
0.305088
0.263021
2.44757
2.13625
1.79251
1.51281
1.31681
1.17355
1.04981
0.934335
0.828562
0.735454
0.654677
0.583682
0.519914
0.461781
0.408535
0.359675
0.314823
0.273431
2.81684
2.38359
1.93683
1.61736
1.41421
1.2609
1.11854
0.984763
0.867133
0.767845
0.683445
0.609447
0.542943
0.482541
0.427547
0.377316
0.331222
0.28857
3.13093
2.47148
1.92025
1.60341
1.4223
1.27226
1.12536
0.988926
0.871748
0.773599
0.689645
0.615498
0.548715
0.48815
0.433119
0.382951
0.337021
0.294681
3.64477
2.69514
1.99834
1.6662
1.48215
1.31454
1.15229
1.00877
0.888944
0.789063
0.703365
0.627689
0.559766
0.498422
0.442847
0.39231
0.346059
0.3034
3.87485
2.65875
1.962
1.67635
1.49512
1.32014
1.15441
1.01114
0.892168
0.792571
0.706763
0.630929
0.562912
0.501561
0.445996
0.395578
0.34948
0.307232
4.6801
2.70382
1.96257
1.70989
1.51666
1.33083
1.16193
1.01811
0.898637
0.79839
0.712012
0.635765
0.567458
0.505903
0.450185
0.399683
0.353567
0.311513
-0.627801
-0.629714
-0.632658
-0.634259
-0.637899
-0.649087
-0.67334
-0.714015
-0.772089
-0.846459
-0.934891
-1.03431
-1.14102
-1.2507
-1.35844
-1.45883
-1.54631
-1.61576
-1.66322
-1.68669
-1.68618
-1.66404
-1.62514
-1.57635
-1.52538
-1.47944
-1.44431
-1.42411
-1.41893
-1.4283
-1.44962
-1.48208
-1.52382
-1.56845
-1.61414
-1.66418
-1.72317
-1.7942
-1.87799
-1.97821
-2.09561
-2.22732
-2.3674
-2.51203
-2.65579
-2.79642
-2.93203
-3.05821
-3.16821
-3.25699
-3.32378
-3.36654
-3.38147
-3.36592
-3.31881
-3.24032
-3.13177
-2.99531
-2.83359
-2.64963
-2.44657
-2.22746
-1.9952
-1.75249
-1.50183
-1.24538
-0.985005
-0.722227
-0.458211
-0.193828
0.0702707
0.333561
0.595609
0.856052
1.11459
1.37103
1.62521
1.87697
2.12601
2.37181
2.61365
2.85062
3.08179
3.30628
3.52336
3.73249
3.93332
4.12556
4.30891
4.48302
4.64751
4.80188
4.94561
5.07816
5.19905
5.30785
5.40429
5.48824
5.55983
5.61937
5.6674
5.70463
5.73192
5.75027
5.76073
5.76436
5.76221
5.75529
5.74452
5.73071
5.71457
5.69671
5.67767
5.65789
5.63774
5.6175
5.59742
5.57766
5.55836
5.53959
5.52142
5.50387
5.48694
5.47062
5.4549
5.43976
5.42516
5.4111
5.39754
5.38447
5.37184
5.35965
5.34787
5.33646
5.32541
5.31469
5.30428
5.29416
5.28429
5.27468
5.26528
5.25608
5.24707
5.23821
5.2295
5.2209
5.2124
5.20399
5.19564
5.18734
5.17907
5.17083
5.1626
5.15437
5.14615
5.13792
5.12969
5.12145
5.11322
5.10499
5.09678
5.08862
5.08052
5.07252
5.06465
5.057
5.04962
5.04265
5.03617
5.03043
5.02556
5.02206
5.02009
5.02068
5.024
5.03229
5.0459
5.06968
5.10607
5.16066
-0.666843
-0.671402
-0.678344
-0.68264
-0.687878
-0.700125
-0.725815
-0.768289
-0.828187
-0.904541
-0.995293
-1.09772
-1.20842
-1.32322
-1.43716
-1.5447
-1.64013
-1.71801
-1.77381
-1.80413
-1.8075
-1.7853
-1.74209
-1.68521
-1.6235
-1.5661
-1.52052
-1.49194
-1.48274
-1.49351
-1.52334
-1.56745
-1.62258
-1.68591
-1.75223
-1.81921
-1.89501
-1.98842
-2.09262
-2.20224
-2.32829
-2.46809
-2.60987
-2.7549
-2.90288
-3.04239
-3.17338
-3.29709
-3.40204
-3.48191
-3.53682
-3.56548
-3.56524
-3.53409
-3.47142
-3.37788
-3.25513
-3.1055
-2.9318
-2.73698
-2.52413
-2.29628
-2.05633
-1.80692
-1.55047
-1.28907
-1.02449
-0.758172
-0.491196
-0.224387
0.0416449
0.306423
0.569583
0.830828
1.08993
1.34675
1.60121
1.85326
2.10272
2.3491
2.59168
2.82952
3.06161
3.28702
3.50497
3.71492
3.91655
4.10958
4.29374
4.46873
4.63414
4.78948
4.9342
5.06774
5.18959
5.29932
5.39662
5.48136
5.55364
5.61379
5.66233
5.69999
5.72765
5.7463
5.75702
5.76089
5.75896
5.75227
5.74172
5.72813
5.7122
5.69454
5.6757
5.65609
5.63609
5.616
5.59604
5.57639
5.55718
5.5385
5.52041
5.50292
5.48605
5.46979
5.45413
5.43905
5.42452
5.41052
5.39703
5.38401
5.37144
5.3593
5.34756
5.33619
5.32517
5.31448
5.3041
5.294
5.28415
5.27455
5.26517
5.25598
5.24697
5.23813
5.22941
5.22082
5.21233
5.20392
5.19557
5.18727
5.17901
5.17076
5.16254
5.15431
5.14609
5.13786
5.12962
5.12138
5.11314
5.1049
5.09669
5.08851
5.08039
5.07237
5.06448
5.05679
5.04937
5.04233
5.03577
5.02992
5.02493
5.02121
5.01904
5.01913
5.02211
5.02912
5.04191
5.06124
5.09237
5.1223
-0.708127
-0.713405
-0.724272
-0.734925
-0.74792
-0.768781
-0.802854
-0.852618
-0.918687
-1.00059
-1.09708
-1.20617
-1.32495
-1.44932
-1.57404
-1.69291
-1.79923
-1.88653
-1.94947
-1.98432
-1.98929
-1.96603
-1.9196
-1.85734
-1.78755
-1.71835
-1.65758
-1.61226
-1.58811
-1.58937
-1.61786
-1.6715
-1.74316
-1.82657
-1.92112
-2.02865
-2.14694
-2.27541
-2.41468
-2.56132
-2.71152
-2.86455
-3.01815
-3.16905
-3.31882
-3.46198
-3.59095
-3.70387
-3.79576
-3.86149
-3.89832
-3.90465
-3.87934
-3.82216
-3.73368
-3.61525
-3.46909
-3.29781
-3.10428
-2.89155
-2.66269
-2.42062
-2.16806
-1.90756
-1.64142
-1.37165
-1.09998
-0.827786
-0.556093
-0.285552
-0.0165835
0.250524
0.515534
0.778214
1.03835
1.29585
1.55076
1.80325
2.05337
2.30082
2.54487
2.78448
3.01852
3.24588
3.46569
3.67741
3.88072
4.07542
4.26132
4.43812
4.60545
4.76278
4.90954
5.04511
5.16895
5.28056
5.37962
5.46596
5.53967
5.60107
5.65068
5.68925
5.71769
5.73701
5.74831
5.75269
5.75129
5.74511
5.73506
5.72197
5.70654
5.68938
5.671
5.65183
5.63223
5.6125
5.59287
5.57352
5.55459
5.53616
5.51829
5.50102
5.48434
5.46827
5.45278
5.43786
5.42348
5.40961
5.39624
5.38333
5.37086
5.35881
5.34716
5.33587
5.32492
5.31429
5.30395
5.29389
5.28408
5.27451
5.26515
5.25598
5.24698
5.23814
5.22944
5.22084
5.21235
5.20393
5.19558
5.18728
5.17901
5.17076
5.16252
5.15429
5.14606
5.13782
5.12957
5.12131
5.11306
5.1048
5.09656
5.08835
5.08019
5.07212
5.06417
5.05641
5.04889
5.04172
5.03501
5.02892
5.02366
5.0195
5.01684
5.01603
5.01801
5.02292
5.03304
5.04648
5.06873
5.08373
-0.741486
-0.746617
-0.761028
-0.781339
-0.807722
-0.843018
-0.890377
-0.951722
-1.02821
-1.12037
-1.22801
-1.34976
-1.48285
-1.62281
-1.76363
-1.89807
-2.01832
-2.11674
-2.18719
-2.22506
-2.22871
-2.20051
-2.14663
-2.07592
-1.99783
-1.92171
-1.85584
-1.80777
-1.7831
-1.78829
-1.82278
-1.88264
-1.96428
-2.06466
-2.18187
-2.31588
-2.46635
-2.63084
-2.80565
-2.9868
-3.16925
-3.3487
-3.52422
-3.69205
-3.84912
-3.99344
-4.11991
-4.22351
-4.30006
-4.34642
-4.36052
-4.34107
-4.28762
-4.20072
-4.0819
-3.93345
-3.75827
-3.55945
-3.34031
-3.10413
-2.85399
-2.59275
-2.3231
-2.04746
-1.76802
-1.48674
-1.20534
-0.92517
-0.647148
-0.371722
-0.0990146
0.170975
0.438224
0.702592
0.963874
1.22199
1.47714
1.72981
1.9805
2.22922
2.47533
2.71759
2.95458
3.18495
3.40765
3.62206
3.82793
4.02516
4.21365
4.39318
4.56336
4.72366
4.87343
5.01199
5.13872
5.25307
5.35466
5.44331
5.51908
5.58227
5.63344
5.67334
5.70291
5.7232
5.73535
5.74055
5.73992
5.73449
5.72521
5.71288
5.69821
5.6818
5.66413
5.64563
5.62664
5.60747
5.58834
5.56944
5.5509
5.53283
5.51528
5.49829
5.48187
5.46603
5.45075
5.43602
5.42182
5.40812
5.39489
5.38212
5.36979
5.35785
5.3463
5.33511
5.32424
5.31369
5.30342
5.29342
5.28366
5.27413
5.26481
5.25568
5.24671
5.23789
5.22921
5.22064
5.21216
5.20376
5.19542
5.18712
5.17886
5.17062
5.16239
5.15416
5.14593
5.13769
5.12943
5.12117
5.1129
5.10462
5.09636
5.08811
5.07992
5.07179
5.06377
5.05591
5.04828
5.04094
5.03404
5.02767
5.02208
5.01741
5.01412
5.01234
5.01299
5.01578
5.02265
5.03096
5.04434
5.04748
-0.774249
-0.780028
-0.801268
-0.83275
-0.873528
-0.923945
-0.985628
-1.06082
-1.15164
-1.25945
-1.38447
-1.52522
-1.67834
-1.83855
-1.99882
-2.15079
-2.28548
-2.39427
-2.47036
-2.50844
-2.50787
-2.47288
-2.41182
-2.33505
-2.25323
-2.17612
-2.11223
-2.06874
-2.05109
-2.06332
-2.10649
-2.17856
-2.27634
-2.39761
-2.54081
-2.70468
-2.88714
-3.08456
-3.29221
-3.50483
-3.71754
-3.92377
-4.11928
-4.30197
-4.46782
-4.61286
-4.73314
-4.82474
-4.88434
-4.90939
-4.89774
-4.84867
-4.76275
-4.64142
-4.48744
-4.30415
-4.09518
-3.86461
-3.61622
-3.35338
-3.07916
-2.79639
-2.50757
-2.21493
-1.92054
-1.62629
-1.33389
-1.04469
-0.759558
-0.478787
-0.202173
0.0707058
0.340148
0.606174
0.868555
1.12709
1.38202
1.63418
1.88481
2.13459
2.38307
2.62873
2.86971
3.10425
3.33098
3.54914
3.75851
3.95913
4.15105
4.33415
4.50807
4.67223
4.82592
4.96837
5.09885
5.21674
5.32158
5.41317
5.49156
5.55706
5.61022
5.65184
5.68288
5.70447
5.71782
5.72411
5.7245
5.72008
5.71179
5.70048
5.68682
5.6714
5.65469
5.63709
5.61895
5.60053
5.58209
5.56381
5.54582
5.52824
5.51113
5.49454
5.47848
5.46296
5.44798
5.43352
5.41956
5.40609
5.39307
5.38049
5.36833
5.35655
5.34514
5.33408
5.32333
5.31288
5.30271
5.29279
5.28311
5.27364
5.26438
5.25529
5.24637
5.23759
5.22893
5.22039
5.21193
5.20355
5.19523
5.18695
5.1787
5.17047
5.16224
5.15401
5.14578
5.13754
5.12928
5.121
5.11271
5.10442
5.09612
5.08784
5.07959
5.0714
5.0633
5.05533
5.04756
5.04005
5.03291
5.02624
5.02024
5.01501
5.01097
5.00813
5.00725
5.00788
5.01129
5.01488
5.02013
5.01525
-0.814986
-0.825154
-0.854515
-0.896776
-0.949199
-1.012
-1.08738
-1.17824
-1.28713
-1.41529
-1.56216
-1.72502
-1.89923
-2.0785
-2.25515
-2.42043
-2.56513
-2.68047
-2.75907
-2.7968
-2.79411
-2.75683
-2.6947
-2.61925
-2.54208
-2.47323
-2.42086
-2.39168
-2.39053
-2.42016
-2.48141
-2.57294
-2.69281
-2.83927
-3.01001
-3.20251
-3.41314
-3.63762
-3.87068
-4.106
-4.33726
-4.55936
-4.76761
-4.95803
-5.12668
-5.2694
-5.38209
-5.46098
-5.50271
-5.50461
-5.46538
-5.38522
-5.26552
-5.10916
-4.9195
-4.70059
-4.45711
-4.19359
-3.9144
-3.62352
-3.32432
-3.01945
-2.71105
-2.40099
-2.09098
-1.78278
-1.47813
-1.17861
-0.885314
-0.598611
-0.318063
-0.0426041
0.228823
0.496665
0.760508
1.01964
1.27394
1.5245
1.77355
2.02316
2.27357
2.5229
2.76851
3.00802
3.23963
3.4623
3.67585
3.88044
4.07633
4.26352
4.44173
4.61037
4.76864
4.91565
5.05054
5.17257
5.28124
5.37629
5.45777
5.52598
5.5815
5.62513
5.65795
5.68118
5.69604
5.70374
5.70545
5.70229
5.69523
5.68515
5.67272
5.65852
5.643
5.62652
5.60942
5.59196
5.57438
5.55687
5.53958
5.52261
5.50605
5.48995
5.47433
5.45921
5.44459
5.43045
5.41679
5.40359
5.39082
5.37846
5.3665
5.35491
5.34367
5.33275
5.32214
5.31181
5.30174
5.29192
5.28232
5.27293
5.26373
5.25471
5.24583
5.2371
5.22849
5.21998
5.21156
5.20321
5.19491
5.18666
5.17843
5.17021
5.162
5.15379
5.14556
5.13732
5.12906
5.12078
5.11247
5.10416
5.09584
5.08751
5.07921
5.07095
5.06276
5.05467
5.04675
5.03903
5.03164
5.02462
5.01817
5.01235
5.00747
5.00353
5.00102
4.99949
4.99951
4.99886
4.99739
4.98665
-0.860623
-0.879491
-0.918578
-0.968871
-1.02937
-1.10216
-1.19037
-1.29701
-1.42396
-1.57111
-1.73613
-1.91494
-2.10213
-2.29139
-2.4757
-2.64729
-2.79737
-2.91736
-3.00013
-3.04232
-3.04544
-3.01587
-2.96386
-2.90177
-2.84145
-2.79284
-2.76363
-2.75962
-2.78491
-2.84176
-2.93053
-3.04974
-3.1973
-3.37039
-3.56595
-3.78054
-4.01051
-4.2516
-4.4988
-4.74664
-4.98932
-5.22164
-5.43911
-5.63737
-5.81176
-5.9575
-6.0699
-6.14431
-6.17672
-6.16445
-6.10626
-6.00155
-5.85155
-5.65929
-5.42957
-5.16855
-4.88269
-4.57827
-4.26093
-3.93534
-3.6051
-3.27295
-2.94087
-2.61035
-2.28251
-1.95841
-1.63934
-1.32702
-1.02319
-0.728724
-0.443074
-0.164461
0.109356
0.37981
0.646489
0.907632
1.16218
1.41098
1.65697
1.90424
2.15495
2.40724
2.65734
2.90185
3.1384
3.36573
3.58361
3.79236
3.99241
4.18393
4.36671
4.54016
4.70339
4.85534
4.99501
5.12156
5.23443
5.33333
5.41825
5.48949
5.54759
5.59347
5.62827
5.65332
5.66993
5.67934
5.68271
5.68113
5.67559
5.66697
5.65598
5.64319
5.62905
5.61389
5.59802
5.58169
5.56514
5.54856
5.53209
5.51586
5.49996
5.48445
5.46936
5.45471
5.44051
5.42676
5.41345
5.40056
5.38808
5.37599
5.36427
5.3529
5.34185
5.33111
5.32066
5.31047
5.30054
5.29083
5.28134
5.27204
5.26292
5.25397
5.24517
5.23649
5.22793
5.21948
5.2111
5.20279
5.19453
5.18631
5.1781
5.16991
5.16172
5.15352
5.1453
5.13707
5.1288
5.12052
5.1122
5.10387
5.09551
5.08715
5.07879
5.07045
5.06216
5.05395
5.04585
5.03792
5.03024
5.02286
5.01592
5.00946
5.00371
4.99862
4.99446
4.9908
4.98767
4.98321
4.9763
4.96096
-0.922001
-0.946119
-0.99047
-1.04361
-1.10793
-1.18713
-1.28442
-1.40202
-1.54041
-1.69766
-1.87015
-2.05326
-2.24196
-2.43146
-2.61652
-2.7907
-2.94588
-3.0731
-3.16588
-3.22094
-3.23992
-3.22942
-3.19988
-3.16395
-3.13344
-3.11764
-3.12344
-3.15567
-3.21728
-3.30936
-3.43105
-3.58019
-3.75394
-3.94922
-4.16311
-4.39292
-4.63602
-4.88926
-5.14918
-5.4113
-5.6706
-5.92222
-6.16109
-6.3816
-6.57767
-6.74282
-6.87016
-6.95298
-6.98562
-6.96387
-6.88502
-6.74918
-6.55908
-6.31982
-6.03856
-5.72376
-5.38438
-5.0289
-4.66445
-4.29653
-3.92904
-3.56455
-3.20452
-2.84965
-2.50024
-2.15667
-1.81992
-1.49169
-1.17388
-0.867722
-0.573216
-0.288996
-0.0120556
0.261009
0.531038
0.795681
1.05268
1.30171
1.54515
1.78842
2.03703
2.29029
2.5436
2.79218
3.03287
3.26422
3.48599
3.69859
3.90261
4.09841
4.28579
4.46409
4.63233
4.78934
4.93396
5.06524
5.18249
5.28536
5.3738
5.44815
5.509
5.55731
5.59428
5.6213
5.63982
5.65115
5.65647
5.65682
5.65313
5.64626
5.63694
5.62576
5.61315
5.59947
5.58498
5.56995
5.55457
5.53903
5.52351
5.50812
5.49297
5.47813
5.46364
5.44954
5.43583
5.42252
5.4096
5.39708
5.38493
5.37314
5.36169
5.35057
5.33975
5.32921
5.31895
5.30892
5.29913
5.28956
5.28018
5.27098
5.26196
5.25309
5.24436
5.23575
5.22726
5.21886
5.21053
5.20227
5.19406
5.18587
5.1777
5.16954
5.16137
5.15319
5.14499
5.13676
5.1285
5.12021
5.11189
5.10353
5.09515
5.08674
5.07832
5.0699
5.06151
5.05315
5.04488
5.03672
5.02874
5.02097
5.01352
5.0064
4.99975
4.9935
4.98772
4.98199
4.976
4.96814
4.95686
4.93783
-0.996998
-1.02078
-1.06067
-1.11075
-1.17455
-1.25538
-1.3557
-1.47667
-1.61735
-1.77469
-1.9446
-2.12276
-2.30553
-2.49017
-2.67411
-2.8522
-3.0159
-3.15594
-3.26498
-3.33988
-3.38262
-3.40017
-3.40331
-3.40435
-3.41438
-3.44165
-3.49169
-3.56779
-3.67115
-3.80109
-3.95544
-4.13132
-4.32617
-4.53834
-4.76694
-5.01133
-5.2705
-5.54325
-5.82718
-6.11833
-6.41174
-6.70147
-6.98041
-7.2407
-7.4738
-7.67007
-7.81954
-7.9131
-7.94342
-7.90574
-7.79839
-7.62257
-7.38278
-7.08642
-6.74288
-6.36339
-5.95981
-5.54328
-5.12301
-4.7057
-4.29543
-3.89412
-3.50228
-3.11968
-2.74582
-2.38012
-2.02255
-1.67442
-1.33811
-1.01585
-0.708427
-0.414797
-0.132001
0.144934
0.418682
0.687208
0.947296
1.19783
1.44049
1.68093
1.92667
2.179
2.43359
2.68453
2.92803
3.16228
3.38694
3.6026
3.81003
4.00967
4.20134
4.38433
4.5575
4.71955
4.86919
5.00525
5.12675
5.23334
5.32504
5.40229
5.46586
5.51673
5.55612
5.58543
5.60613
5.61962
5.62711
5.62965
5.62811
5.62328
5.61587
5.60648
5.59556
5.58347
5.57049
5.55685
5.54275
5.52838
5.51389
5.49943
5.48511
5.47102
5.4572
5.4437
5.43054
5.41772
5.40526
5.39314
5.38136
5.3699
5.35876
5.34791
5.33734
5.32703
5.31697
5.30714
5.29751
5.28808
5.27884
5.26976
5.26084
5.25207
5.24342
5.23489
5.22647
5.21813
5.20987
5.20166
5.1935
5.18536
5.17723
5.16911
5.16097
5.15281
5.14463
5.13642
5.12816
5.11987
5.11154
5.10316
5.09475
5.0863
5.07781
5.06931
5.06081
5.05231
5.04386
5.03546
5.02716
5.01899
5.01101
5.00322
4.99566
4.98826
4.98092
4.97323
4.96466
4.95381
4.939
4.91698
-1.05777
-1.07796
-1.11108
-1.15662
-1.21766
-1.29644
-1.39479
-1.51309
-1.6493
-1.79963
-1.95997
-2.12679
-2.29831
-2.47448
-2.65479
-2.83521
-3.00736
-3.1614
-3.29017
-3.3912
-3.46687
-3.52369
-3.57174
-3.62147
-3.68212
-3.7605
-3.86052
-3.98347
-4.12847
-4.29333
-4.47573
-4.67403
-4.88779
-5.11748
-5.36509
-5.6326
-5.9213
-6.23075
-6.55808
-6.89821
-7.24433
-7.58814
-7.92008
-8.22968
-8.50565
-8.73613
-8.90937
-9.01469
-9.04373
-8.99122
-8.85482
-8.63604
-8.34066
-7.97815
-7.5612
-7.10463
-6.62388
-6.13335
-5.64493
-5.16707
-4.70444
-4.25866
-3.82931
-3.41491
-3.01356
-2.62337
-2.24313
-1.87326
-1.51621
-1.17486
-0.850998
-0.544218
-0.252046
0.0313161
0.310205
0.583346
0.846975
1.09955
1.34284
1.58216
1.82593
2.07706
2.33142
2.58307
2.82774
3.06333
3.2896
3.50726
3.71727
3.92014
4.11563
4.30302
4.48103
4.64809
4.80261
4.94308
5.06846
5.17833
5.27284
5.35266
5.41876
5.47225
5.51434
5.5463
5.56954
5.58548
5.59539
5.60031
5.6011
5.59851
5.5932
5.58574
5.57661
5.56621
5.55481
5.54264
5.52989
5.51674
5.50336
5.4899
5.47648
5.46319
5.4501
5.43727
5.4247
5.41243
5.40045
5.38878
5.3774
5.36632
5.35551
5.34496
5.33467
5.32461
5.31478
5.30515
5.29571
5.28644
5.27734
5.2684
5.25959
5.25092
5.24237
5.23392
5.22558
5.21731
5.20912
5.20097
5.19286
5.18478
5.1767
5.16861
5.16051
5.15238
5.14423
5.13603
5.12778
5.11949
5.11115
5.10276
5.09432
5.08582
5.07728
5.06869
5.06007
5.05143
5.04278
5.03414
5.02552
5.01695
5.00843
4.99996
4.99151
4.98297
4.97416
4.96464
4.95377
4.9403
4.9226
4.89812
-1.08721
-1.10414
-1.13298
-1.17448
-1.23193
-1.30684
-1.40078
-1.51356
-1.64239
-1.78335
-1.93252
-2.08691
-2.24587
-2.4111
-2.58387
-2.76158
-2.9376
-3.10351
-3.25337
-3.38553
-3.50207
-3.608
-3.71062
-3.81753
-3.93523
-4.06819
-4.21857
-4.38628
-4.56962
-4.76653
-4.97598
-5.19869
-5.43701
-5.69452
-5.97529
-6.28267
-6.61813
-6.98014
-7.36375
-7.76141
-8.16447
-8.56357
-8.9485
-9.30806
-9.62962
-9.89914
-10.1018
-10.2238
-10.2544
-10.1869
-10.0188
-9.75304
-9.39733
-8.96388
-8.46845
-7.929
-7.36435
-6.79236
-6.22785
-5.68129
-5.15847
-4.66119
-4.18854
-3.73792
-3.30582
-2.88869
-2.48372
-2.09027
-1.7105
-1.34814
-1.00566
-0.683088
-0.377857
-0.0841056
0.203225
0.482758
0.750837
1.00636
1.25147
1.49154
1.7351
1.9854
2.23888
2.48984
2.73398
2.9694
3.19603
3.41474
3.62659
3.83215
4.03113
4.22265
4.40508
4.5766
4.73534
4.87961
5.0083
5.12103
5.21808
5.30035
5.36899
5.42521
5.47016
5.50502
5.53106
5.54963
5.56206
5.56944
5.57266
5.57241
5.56928
5.56384
5.55658
5.5479
5.53811
5.52744
5.51609
5.50422
5.492
5.47958
5.46711
5.45468
5.44238
5.43025
5.41834
5.40665
5.39521
5.38403
5.37309
5.3624
5.35195
5.34174
5.33175
5.32196
5.31237
5.30296
5.29372
5.28464
5.2757
5.2669
5.25822
5.24966
5.24121
5.23286
5.2246
5.21641
5.20828
5.2002
5.19216
5.18413
5.1761
5.16806
5.16
5.15191
5.14378
5.1356
5.12737
5.11908
5.11074
5.10233
5.09386
5.08532
5.07671
5.06804
5.05931
5.05052
5.04168
5.03279
5.02385
5.01486
5.00582
4.99667
4.98736
4.97773
4.96753
4.95631
4.94339
4.92765
4.90756
4.88107
-1.0859
-1.10074
-1.12707
-1.16575
-1.22012
-1.29149
-1.38123
-1.48877
-1.61134
-1.74521
-1.88661
-2.03293
-2.18401
-2.34222
-2.50977
-2.68582
-2.86613
-3.04501
-3.21788
-3.38296
-3.54131
-3.69587
-3.85097
-4.01155
-4.18194
-4.36506
-4.56202
-4.77234
-4.9948
-5.22837
-5.47358
-5.73258
-6.00895
-6.30716
-6.63134
-6.98426
-7.36583
-7.77303
-8.20013
-8.63984
-9.08447
-9.52558
-9.95327
-10.3552
-10.7161
-11.0181
-11.243
-11.3748
-11.4022
-11.3184
-11.1219
-10.8162
-10.4103
-9.91803
-9.35706
-8.74791
-8.11198
-7.46971
-6.83793
-6.22863
-5.64877
-5.10076
-4.58376
-4.09465
-3.62896
-3.18177
-2.749
-2.32931
-1.92471
-1.53911
-1.17561
-0.834307
-0.512213
-0.203553
0.0956291
0.383894
0.658041
0.917683
1.16573
1.40816
1.65329
1.90366
2.156
2.40522
2.6476
2.88171
3.10792
3.32728
3.54077
3.74874
3.95072
4.14555
4.33142
4.5063
4.6682
4.81542
4.9469
5.06229
5.16194
5.2468
5.31808
5.37705
5.42486
5.46264
5.49152
5.51277
5.52772
5.53754
5.54314
5.54522
5.54432
5.54096
5.53559
5.52866
5.5205
5.51135
5.50142
5.49086
5.47984
5.46853
5.45705
5.44554
5.43407
5.4227
5.41148
5.40043
5.38957
5.3789
5.36844
5.35818
5.34813
5.33827
5.3286
5.3191
5.30978
5.30061
5.29158
5.28269
5.27393
5.26528
5.25674
5.24831
5.23997
5.23171
5.22354
5.21543
5.20738
5.19937
5.19139
5.18342
5.17544
5.16746
5.15944
5.15139
5.14329
5.13513
5.12692
5.11864
5.11029
5.10187
5.09337
5.08479
5.07613
5.06737
5.05853
5.04959
5.04055
5.03141
5.02216
5.01276
5.0032
4.99339
4.98325
4.97258
4.96109
4.94833
4.93359
4.91587
4.89378
4.86562
-1.06135
-1.07487
-1.10047
-1.13806
-1.19091
-1.2605
-1.34809
-1.45325
-1.57374
-1.70622
-1.84747
-1.99527
-2.14951
-2.31199
-2.48472
-2.66779
-2.85886
-3.054
-3.2497
-3.44402
-3.63691
-3.83
-4.02654
-4.23045
-4.44531
-4.67366
-4.91632
-5.17236
-5.44001
-5.71753
-6.00467
-6.30242
-6.61338
-6.9415
-7.29092
-7.66513
-8.06491
-8.48829
-8.93089
-9.38656
-9.848
-10.3069
-10.753
-11.1729
-11.5497
-11.8644
-12.0983
-12.235
-12.2629
-12.175
-11.9687
-11.6462
-11.216
-10.6926
-10.0951
-9.44605
-8.76852
-8.08347
-7.40863
-6.7569
-6.13602
-5.54928
-4.99581
-4.47265
-3.97487
-3.49703
-3.03479
-2.58707
-2.15622
-1.74623
-1.35989
-0.99705
-0.654206
-0.326729
-0.0125242
0.286391
0.567714
0.832225
1.08435
1.33118
1.57958
1.83068
2.0815
2.32814
2.56811
2.80076
3.02674
3.247
3.46217
3.67219
3.87634
4.07331
4.26129
4.43824
4.60217
4.75155
4.88541
5.0034
5.10576
5.19327
5.26715
5.32867
5.37908
5.4195
5.45106
5.47496
5.49246
5.50472
5.51267
5.51702
5.51832
5.51704
5.51362
5.50849
5.50198
5.49438
5.48588
5.47667
5.4669
5.45674
5.44633
5.43578
5.4252
5.41464
5.40416
5.39378
5.38353
5.37343
5.36348
5.35368
5.34404
5.33456
5.32523
5.31605
5.30701
5.29809
5.2893
5.28061
5.27204
5.26355
5.25516
5.24686
5.23864
5.23049
5.22241
5.21439
5.20641
5.19848
5.19056
5.18265
5.17474
5.1668
5.15883
5.15082
5.14276
5.13463
5.12644
5.11817
5.10982
5.10139
5.09287
5.08425
5.07552
5.06669
5.05773
5.04865
5.03943
5.03004
5.02047
5.01068
5.00061
4.99017
4.97923
4.96758
4.95491
4.94074
4.92439
4.90495
4.88118
4.85163
-1.02479
-1.0377
-1.06381
-1.1023
-1.15618
-1.22715
-1.3167
-1.42482
-1.55035
-1.69112
-1.84471
-2.00891
-2.18248
-2.36516
-2.55718
-2.75814
-2.9664
-3.17938
-3.39454
-3.61052
-3.82768
-4.04808
-4.2751
-4.51271
-4.76418
-5.03106
-5.31236
-5.60493
-5.90454
-6.20736
-6.51182
-6.81878
-7.13165
-7.4557
-7.79657
-8.15907
-8.54518
-8.95353
-9.38023
-9.81972
-10.2649
-10.7084
-11.141
-11.5506
-11.9216
-12.2356
-12.4734
-12.6177
-12.6559
-12.5803
-12.3873
-12.0782
-11.66
-11.1464
-10.5562
-9.91148
-9.23486
-8.54674
-7.86442
-7.20084
-6.5643
-5.95875
-5.38427
-4.83817
-4.31573
-3.81176
-3.32286
-2.84913
-2.39359
-1.96007
-1.55072
-1.1646
-0.798664
-0.450481
-0.120237
0.189713
0.478439
0.748776
1.00705
1.26031
1.51281
1.76456
2.01346
2.25739
2.49527
2.72715
2.95364
3.17524
3.39199
3.60347
3.80886
4.00694
4.19596
4.3739
4.5389
4.68964
4.82533
4.94559
5.05043
5.14041
5.21661
5.28036
5.333
5.37572
5.40969
5.4361
5.45613
5.47087
5.48121
5.48783
5.4913
5.49207
5.49061
5.4873
5.4825
5.47649
5.46948
5.46166
5.4532
5.44425
5.43496
5.42544
5.4158
5.4061
5.3964
5.38674
5.37715
5.36764
5.35822
5.34892
5.33972
5.33064
5.32167
5.31282
5.30408
5.29543
5.28688
5.27842
5.27003
5.26173
5.2535
5.24534
5.23724
5.2292
5.22123
5.21329
5.2054
5.19754
5.18969
5.18185
5.17399
5.16611
5.15819
5.15022
5.14219
5.1341
5.12593
5.11767
5.10933
5.10089
5.09235
5.08369
5.07491
5.066
5.05694
5.04772
5.03831
5.02868
5.01881
5.00863
4.99808
4.98704
4.97535
4.96279
4.94903
4.93359
4.91582
4.89488
4.86968
4.83897
-0.989905
-1.00293
-1.03105
-1.07296
-1.13182
-1.20913
-1.30715
-1.4272
-1.56974
-1.73328
-1.91517
-2.11188
-2.31998
-2.53666
-2.75989
-2.9877
-3.21775
-3.44762
-3.67593
-3.90306
-4.13122
-4.36361
-4.60367
-4.85433
-5.11711
-5.39143
-5.67457
-5.96249
-6.25096
-6.53678
-6.81944
-7.10108
-7.3858
-7.67914
-7.98624
-8.31162
-8.65714
-9.02394
-9.4085
-9.80646
-10.2122
-10.6195
-11.0204
-11.4043
-11.7572
-12.0623
-12.3013
-12.4572
-12.5169
-12.4717
-12.3167
-12.0519
-11.6826
-11.2194
-10.6787
-10.0812
-9.44763
-8.79644
-8.14348
-7.50105
-6.87764
-6.27772
-5.70217
-5.14875
-4.61349
-4.09259
-3.5847
-3.09161
-2.61693
-2.16391
-1.73363
-1.32523
-0.937427
-0.570537
-0.226578
0.0928501
0.389225
0.667628
0.934675
1.19538
1.45173
1.70369
1.95081
2.19272
2.42949
2.66148
2.88896
3.11188
3.32986
3.54237
3.74862
3.94731
4.13668
4.31477
4.47996
4.63123
4.76796
4.88978
4.9965
5.08842
5.16646
5.23201
5.28651
5.33127
5.36747
5.39627
5.41877
5.43597
5.44869
5.4576
5.46323
5.46608
5.46657
5.46513
5.46208
5.45771
5.45225
5.44589
5.43879
5.43112
5.423
5.41457
5.40592
5.39713
5.38826
5.37935
5.37044
5.36155
5.35271
5.34392
5.33519
5.32653
5.31794
5.30943
5.301
5.29264
5.28434
5.27611
5.26794
5.25982
5.25176
5.24374
5.23578
5.22786
5.21999
5.21216
5.20435
5.19657
5.18879
5.18101
5.17321
5.16538
5.15751
5.14959
5.1416
5.13353
5.12539
5.11715
5.10882
5.10038
5.09182
5.08313
5.0743
5.06531
5.05615
5.04679
5.03721
5.02736
5.01719
5.00665
4.99563
4.98402
4.97164
4.95824
4.94348
4.9269
4.90789
4.88565
4.85922
4.82753
-0.967417
-0.98235
-1.01497
-1.06478
-1.13588
-1.23027
-1.35148
-1.50141
-1.68031
-1.88508
-2.11102
-2.35245
-2.60375
-2.85895
-3.11278
-3.36128
-3.60202
-3.83364
-4.05574
-4.26952
-4.47749
-4.6829
-4.8894
-5.10038
-5.31868
-5.54536
-5.77969
-6.02024
-6.26364
-6.50864
-6.75354
-6.99907
-7.24733
-7.50159
-7.76566
-8.04328
-8.33728
-8.64955
-8.97923
-9.32354
-9.67815
-10.0377
-10.3954
-10.7426
-11.0681
-11.358
-11.5965
-11.7683
-11.8601
-11.8617
-11.7669
-11.5731
-11.2828
-10.9035
-10.4487
-9.93552
-9.38149
-8.80249
-8.21206
-7.62118
-7.03802
-6.46735
-5.9107
-5.36668
-4.83288
-4.30807
-3.79333
-3.29175
-2.80679
-2.34078
-1.89461
-1.46875
-1.06475
-0.685083
-0.331794
-0.00405226
0.301877
0.591193
0.868336
1.13576
1.3948
1.64663
1.8924
2.13311
2.36949
2.60196
2.83047
3.05463
3.2739
3.48761
3.69473
3.89374
4.08284
4.26031
4.42493
4.57594
4.71287
4.83531
4.94296
5.03601
5.11533
5.18232
5.23847
5.28516
5.32355
5.35473
5.37972
5.3994
5.41454
5.42577
5.43364
5.43862
5.44117
5.44168
5.44048
5.43785
5.43403
5.42921
5.42357
5.41724
5.41038
5.4031
5.3955
5.38766
5.37966
5.37155
5.36336
5.35513
5.34688
5.33864
5.3304
5.32219
5.31401
5.30586
5.29776
5.28969
5.28167
5.27368
5.26573
5.25781
5.24992
5.24207
5.23425
5.22646
5.2187
5.21097
5.20326
5.19555
5.18785
5.18014
5.1724
5.16463
5.1568
5.14892
5.14097
5.13294
5.12482
5.11661
5.10829
5.09984
5.09127
5.08256
5.07368
5.06463
5.05537
5.04589
5.03613
5.02607
5.01563
5.00474
4.99329
4.98115
4.96812
4.95395
4.93829
4.9207
4.90058
4.87722
4.84975
4.81722
-0.973464
-0.993493
-1.0369
-1.10526
-1.20492
-1.3381
-1.50748
-1.71109
-1.9444
-2.19991
-2.46943
-2.74363
-3.01388
-3.27267
-3.51455