/*--------------------------------*- C++ -*----------------------------------*\
  =========                 |
  \\      /  F ield         | OpenFOAM: The Open Source CFD Toolbox
   \\    /   O peration     | Website:  https://openfoam.org
    \\  /    A nd           | Version:  7
     \\/     M anipulation  |
\*---------------------------------------------------------------------------*/
FoamFile
{
    version     2.0;
    format      ascii;
    class       volScalarField;
    location    "0.064";
    object      s;
}
// * * * * * * * * * * * * * * * * * * * * * * * * * * * * * * * * * * * * * //

dimensions      [0 0 0 0 0 0 0];

internalField   nonuniform List<scalar> 
12225
(
1
1
1
1
1
1
1
1
1
1
1
1
1
1
1
1
1
1
1
1
1
1
1
1
1
1
1
1
1
1
1
1
1
1
1
1
1
1
1
1
1
1
1
1
1
1
1
1
1
1
1
1
1
1
1
1
1
1
1
1
1
1
1
1
1
1
1
1
1
1
1
1
1
1
1
1
1
1
1
1
1
1
1
1
1
1
1
1
1
1
1
1
1
1
1
1
1
1
1
1
1
1
1
1
1
1
1
1
1
1
1
1
1
1
1
1
1
1
1
1
1
1
1
1
1
1
1
1
1
1
1
1
1
1
1
1
1
1
1
1
1
1
1
1
1
1
1
1
1
1
1
1
1
1
1
1
1
1
1
1
1
1
1
1
1
1
1
1
1
1
1
1
1
1
1
1
1
1
1
1
1
1
1
1
1
1
1
1
1
1
1
1
1
1
1
1
1
1
1
1
1
1
1
1
1
1
1
1
1
1
1
1
1
1
1
1
1
1
1
1
1
1
1
1
1
1
1
1
1
1
1
1
1
1
1
1
1
1
1
1
1
1
1
1
1
1
1
1
1
1
1
1
1
1
1
1
1
1
1
1
1
1
1
1
1
1
1
1
1
1
1
1
1
1
1
1
1
1
1
1
1
1
1
1
1
1
1
1
1
1
1
1
1
1
1
1
1
1
1
1
1
1
1
1
1
1
1
1
1
1
1
1
1
1
1
1
1
1
1
1
1
1
1
1
1
1
1
1
1
1
1
1
1
1
1
1
1
1
1
1
1
1
1
1
1
1
1
1
1
1
1
1
1
1
1
1
1
1
1
1
1
1
1
1
1
1
1
1
1
1
1
1
1
1
1
1
1
1
1
1
1
1
1
1
1
1
1
1
1
1
1
1
1
1
1
1
1
1
1
1
1
1
1
1
1
1
1
1
1
1
1
1
1
1
1
1
1
1
1
1
1
1
1
1
1
1
1
1
1
1
1
1
1
1
1
1
1
1
1
1
1
1
1
1
1
1
1
1
1
1
1
1
1
1
1
1
1
1
1
1
1
1
1
1
1
1
1
1
1
1
1
1
1
1
1
1
1
1
1
1
1
1
1
1
1
1
1
1
1
1
1
1
1
1
1
1
1
1
1
1
1
1
1
1
1
1
1
1
1
1
1
1
1
1
1
1
1
1
1
1
1
1
1
1
1
1
1
1
1
1
1
1
1
1
1
1
1
1
1
1
0.00079903
0.00315849
0.00611376
0.00896059
0.0121029
0.0160524
0.0215218
0.0256505
0.0343359
0.0434126
0.047706
0.05268
0.0606284
0.0669825
0.0755833
0.0826403
0.0899561
0.0994242
0.105462
0.1122
0.115752
0.117954
0.118917
0.119091
0.118981
0.118344
0.116416
0.110969
0.105582
0.0959564
0.0806129
0.0666849
0.0367102
0.00914295
0.00209961
0.00271073
0.00459892
0.00622892
0.00809519
0.0113678
0.0140148
0.0163595
0.0207107
0.0248867
0.0303681
0.0434567
0.0634928
0.0884911
0.245736
0.63697
0.770395
0.785763
0.791154
0.795283
0.798072
0.799761
0.801824
0.803061
0.803732
0.804865
0.805724
0.806304
0.80741
0.808023
0.808354
0.808951
0.809508
0.809944
0.810475
0.811163
0.811845
0.81239
0.812889
0.813289
0.813515
0.813745
0.813952
0.81418
0.81444
0.814782
0.81528
0.815854
0.816492
0.817093
0.817627
0.818206
0.818937
0.819786
0.820632
0.821303
0.821739
0.822107
0.822302
0.822362
0.822032
0.821212
0.820014
0.818271
0.815633
0.812111
0.807676
0.801904
0.794563
0.785669
0.774768
0.761983
0.747253
0.730226
0.710641
0.688081
0.661955
0.631548
0.596065
0.554763
0.507395
0.454101
0.395581
0.333341
0.269748
0.208293
0.152523
0.105634
0.0696912
0.0431859
0.0248284
0.0136178
0.00710432
0.00351971
0.00165523
0.000739186
0.00031371
0.000126741
4.90497e-05
1.81258e-05
5.82572e-06
1.81669e-06
8.99774e-07
4.35281e-07
2.03909e-07
9.31238e-08
4.16147e-08
1.82203e-08
7.82395e-09
3.29893e-09
1.36755e-09
5.58064e-10
2.24454e-10
8.90842e-11
3.49318e-11
1.35489e-11
5.20456e-12
1.98262e-12
7.5014e-13
2.82425e-13
1.06018e-13
3.97315e-14
1.48589e-14
5.53303e-15
2.0432e-15
7.44912e-16
2.67304e-16
9.42139e-17
3.25754e-17
1.10417e-17
3.66794e-18
1.19396e-18
3.80806e-19
1.18987e-19
3.64133e-20
1.09087e-20
3.197e-21
9.15606e-22
2.55937e-22
6.9683e-23
1.84418e-23
4.72467e-24
1.16642e-24
2.70208e-25
6.39874e-26
-2.39298e-26
0.000622487
0.00254601
0.0051208
0.00840096
0.0136501
0.0245795
0.0492022
0.0735932
0.109191
0.142487
0.17214
0.195193
0.224734
0.253261
0.279408
0.311775
0.341212
0.363477
0.39303
0.412386
0.429251
0.445668
0.447745
0.444999
0.436591
0.420927
0.386515
0.351643
0.297214
0.234332
0.175418
0.130853
0.0899337
0.0540125
0.0309487
0.0193897
0.0135375
0.0109739
0.0110587
0.0131181
0.0187843
0.0288955
0.0392465
0.0488715
0.0549254
0.0760806
0.321302
0.652608
0.732611
0.790384
0.812511
0.820104
0.825567
0.828566
0.830976
0.833253
0.835451
0.837292
0.838601
0.839761
0.840521
0.841292
0.842024
0.84257
0.843001
0.843473
0.843986
0.844416
0.844636
0.844749
0.844794
0.844717
0.844725
0.845132
0.845581
0.845828
0.846439
0.846969
0.84725
0.847845
0.848888
0.850029
0.851221
0.852306
0.853283
0.854528
0.856175
0.858043
0.860074
0.862205
0.864412
0.866915
0.869901
0.873185
0.876844
0.880993
0.885786
0.891218
0.897469
0.904653
0.912883
0.922021
0.931844
0.941894
0.951384
0.958732
0.964223
0.96882
0.972561
0.97559
0.977944
0.979649
0.980718
0.981149
0.980502
0.97687
0.969535
0.958314
0.941643
0.916928
0.88115
0.830922
0.762726
0.676953
0.577042
0.468532
0.362094
0.267512
0.190622
0.131853
0.0886478
0.0579561
0.0368644
0.0228304
0.013779
0.00811308
0.00466586
0.00262435
0.00144565
0.000781077
0.000414521
0.000216381
0.000111233
5.63658e-05
2.81747e-05
1.38975e-05
6.76536e-06
3.2498e-06
1.5399e-06
7.19501e-07
3.31391e-07
1.50471e-07
6.74211e-08
2.98858e-08
1.31546e-08
5.76285e-09
2.49739e-09
1.06031e-09
4.36716e-10
1.73701e-10
6.6998e-11
2.50857e-11
9.13034e-12
3.23468e-12
1.11679e-12
3.76149e-13
1.23689e-13
3.97344e-14
1.24723e-14
3.82636e-15
1.14665e-15
3.35677e-16
9.58251e-17
2.66872e-17
7.21922e-18
1.902e-18
4.78401e-19
1.07389e-19
3.38822e-20
-6.95839e-20
0.000244252
0.00105546
0.00202633
0.00446261
0.0147889
0.0424799
0.0995225
0.182261
0.273317
0.359318
0.439559
0.509297
0.556282
0.586898
0.607696
0.61939
0.62789
0.632384
0.636022
0.64236
0.646944
0.650377
0.656
0.657129
0.655961
0.652165
0.643842
0.623673
0.600161
0.554237
0.482336
0.391421
0.276617
0.1794
0.113281
0.0735047
0.0539352
0.0399981
0.0354812
0.0381296
0.0513005
0.0831828
0.0874083
0.100953
0.336187
0.632415
0.758276
0.809068
0.827013
0.834087
0.835285
0.833268
0.831533
0.82926
0.827119
0.823343
0.819286
0.815294
0.812628
0.80931
0.807191
0.803958
0.801711
0.798748
0.796357
0.794171
0.792318
0.790646
0.789142
0.787742
0.78709
0.786782
0.786669
0.786646
0.786898
0.787719
0.788942
0.79045
0.792461
0.795079
0.798058
0.801123
0.804201
0.807279
0.810361
0.813525
0.816724
0.819822
0.822774
0.825604
0.828252
0.830767
0.833145
0.835329
0.837481
0.839556
0.841797
0.843855
0.845929
0.848099
0.850868
0.85439
0.859246
0.866105
0.876151
0.890699
0.908073
0.924592
0.937735
0.948997
0.958889
0.967465
0.974952
0.981631
0.987418
0.991897
0.994808
0.99655
0.997392
0.997645
0.997572
0.996692
0.994524
0.991209
0.984464
0.970037
0.937483
0.872713
0.775243
0.651549
0.517101
0.389452
0.281242
0.196153
0.132698
0.0873125
0.055999
0.0350823
0.0215154
0.0129465
0.00766113
0.00446825
0.00257381
0.00146693
0.000828609
0.000464656
0.000259216
0.000144202
7.99184e-05
4.39022e-05
2.3807e-05
1.2704e-05
6.6555e-06
3.41744e-06
1.718e-06
8.45027e-07
4.06545e-07
1.91276e-07
8.79922e-08
3.95703e-08
1.73904e-08
7.46749e-09
3.13184e-09
1.2824e-09
5.12235e-10
1.99487e-10
7.55825e-11
2.78937e-11
1.00721e-11
3.55945e-12
1.23009e-12
4.15914e-13
1.37297e-13
4.43172e-14
1.39173e-14
4.27128e-15
1.26604e-15
3.66527e-16
1.02178e-16
2.29992e-17
7.05034e-05
0.00029955
0.00123097
0.0102558
0.0409258
0.122938
0.249399
0.431796
0.564463
0.652499
0.692155
0.710353
0.713163
0.709805
0.702071
0.692488
0.683681
0.676071
0.67011
0.668601
0.669107
0.670599
0.672867
0.675519
0.679542
0.682337
0.682398
0.680964
0.676731
0.666726
0.641994
0.599973
0.539834
0.432653
0.322618
0.230445
0.16573
0.113116
0.0940569
0.0972804
0.113072
0.154341
0.331283
0.564671
0.736288
0.806034
0.832514
0.839927
0.840764
0.836586
0.832703
0.824537
0.814962
0.8019
0.79468
0.790245
0.788822
0.788814
0.789859
0.789933
0.789843
0.789391
0.788469
0.787145
0.785535
0.783618
0.781583
0.77954
0.777567
0.776473
0.776074
0.775933
0.775914
0.776134
0.776906
0.778228
0.780051
0.782492
0.785586
0.789112
0.792843
0.796752
0.800792
0.804869
0.808999
0.813099
0.817005
0.821186
0.825422
0.829423
0.833042
0.836613
0.839569
0.84179
0.84346
0.844117
0.844771
0.845538
0.846245
0.847143
0.848222
0.849404
0.850441
0.851406
0.852698
0.854993
0.859855
0.870745
0.888164
0.905168
0.920538
0.934073
0.945682
0.955476
0.964207
0.972784
0.981442
0.98886
0.994062
0.997002
0.998522
0.999268
0.999605
0.999735
0.999769
0.999758
0.999623
0.999109
0.997557
0.993156
0.980557
0.943038
0.833892
0.675287
0.519543
0.381282
0.268879
0.183394
0.121612
0.078741
0.0499679
0.0311815
0.0191913
0.0116805
0.00704627
0.00421964
0.00250627
0.00147348
0.000855706
0.000489922
0.000275959
0.00015263
8.27622e-05
4.39458e-05
2.28339e-05
1.16053e-05
5.76884e-06
2.80458e-06
1.33353e-06
6.20169e-07
2.82098e-07
1.25513e-07
5.46175e-08
2.32431e-08
9.6697e-09
3.93175e-09
1.56125e-09
6.05197e-10
2.28575e-10
8.40507e-11
3.01745e-11
1.05997e-11
3.63614e-12
1.21974e-12
3.98395e-13
1.27161e-13
3.92946e-14
1.18559e-14
3.43967e-15
9.24571e-16
4.79626e-05
0.000718593
0.0109651
0.0488253
0.146153
0.352917
0.584375
0.690727
0.734287
0.751545
0.749872
0.743058
0.730522
0.712778
0.686853
0.66161
0.637053
0.615477
0.598357
0.585538
0.580446
0.582816
0.589707
0.603478
0.622609
0.641539
0.656398
0.669171
0.673553
0.672775
0.668481
0.656743
0.628153
0.58443
0.472174
0.372975
0.315496
0.217506
0.173881
0.186054
0.347711
0.532076
0.692512
0.783919
0.827169
0.841154
0.844224
0.841599
0.83692
0.825383
0.809088
0.790578
0.781884
0.777563
0.775401
0.774824
0.775246
0.778206
0.780414
0.78076
0.780662
0.779872
0.77773
0.774192
0.770771
0.76832
0.766975
0.766355
0.766073
0.765989
0.766061
0.766656
0.76764
0.768815
0.770404
0.772471
0.774913
0.777741
0.780883
0.784297
0.788206
0.79244
0.79699
0.801588
0.806353
0.811411
0.815733
0.820402
0.825029
0.829673
0.834015
0.838594
0.84321
0.847601
0.851714
0.854913
0.856536
0.856619
0.855239
0.853841
0.852806
0.852777
0.854351
0.856263
0.856979
0.855116
0.852173
0.851961
0.855547
0.871043
0.894377
0.91619
0.933291
0.946266
0.956102
0.963869
0.970349
0.976701
0.983331
0.989601
0.994287
0.99713
0.99865
0.999402
0.999744
0.999887
0.99994
0.999953
0.999952
0.999927
0.999804
0.99934
0.997658
0.991652
0.970619
0.898122
0.722838
0.546927
0.39768
0.279581
0.191192
0.127835
0.0839304
0.0542922
0.0346733
0.0218775
0.013636
0.00838733
0.00508243
0.00302812
0.00177042
0.00101403
0.000568227
0.000311256
0.000166583
8.70954e-05
4.44874e-05
2.2204e-05
1.08309e-05
5.16453e-06
2.40767e-06
1.09755e-06
4.8924e-07
2.13246e-07
9.08676e-08
3.78467e-08
1.53993e-08
6.11908e-09
2.37216e-09
8.96951e-10
3.29886e-10
1.18242e-10
4.13675e-11
1.41376e-11
4.70561e-12
1.52832e-12
4.81502e-13
1.47741e-13
4.38035e-14
1.2185e-14
0.00142577
0.0131147
0.0595629
0.186229
0.469218
0.665564
0.743399
0.769224
0.771901
0.766905
0.753997
0.722104
0.680346
0.614168
0.544507
0.498693
0.456273
0.430649
0.408318
0.397084
0.38409
0.381743
0.385642
0.397129
0.421014
0.465552
0.509927
0.581987
0.62852
0.65487
0.660768
0.656967
0.645999
0.620796
0.55873
0.482473
0.334529
0.23267
0.254985
0.480343
0.645901
0.749108
0.809795
0.835964
0.844439
0.845447
0.841667
0.831694
0.813284
0.790434
0.775262
0.766878
0.758753
0.752382
0.750248
0.74969
0.750133
0.754546
0.75903
0.759624
0.75941
0.759295
0.759865
0.759855
0.759594
0.759747
0.760426
0.760598
0.760702
0.761103
0.761826
0.762437
0.762979
0.763868
0.765084
0.766578
0.768383
0.770755
0.773474
0.776223
0.779813
0.783629
0.788002
0.792463
0.796812
0.802003
0.806562
0.811749
0.816968
0.822668
0.828246
0.833725
0.839501
0.84521
0.850925
0.85646
0.861773
0.866082
0.868547
0.865818
0.858029
0.852814
0.850675
0.853011
0.860023
0.865552
0.866058
0.857359
0.846921
0.843877
0.84716
0.867907
0.902984
0.931593
0.950125
0.961597
0.969034
0.974452
0.979271
0.983981
0.988647
0.992874
0.996055
0.998014
0.999064
0.999585
0.999825
0.999929
0.999969
0.999982
0.999984
0.99998
0.999954
0.999836
0.999358
0.997446
0.990075
0.962927
0.865641
0.673226
0.500927
0.361418
0.254308
0.175255
0.118643
0.0790244
0.0518007
0.0333902
0.0211341
0.0131122
0.007961
0.00472331
0.00273572
0.00154593
0.000852132
0.000458202
0.000240411
0.000123126
6.15746e-05
3.00786e-05
1.4356e-05
6.6961e-06
3.0526e-06
1.36018e-06
5.92311e-07
2.52038e-07
1.04755e-07
4.25146e-08
1.68355e-08
6.5021e-09
2.44632e-09
8.95573e-10
3.1902e-10
1.10877e-10
3.75267e-11
1.23759e-11
3.96315e-12
1.23366e-12
3.72126e-13
1.05926e-13
0.01847
0.056511
0.205183
0.556512
0.716117
0.771352
0.786853
0.784955
0.776926
0.753467
0.698777
0.602124
0.498993
0.442414
0.409684
0.391937
0.372694
0.355145
0.339631
0.326522
0.313886
0.308037
0.300081
0.300786
0.306135
0.32061
0.353906
0.399495
0.491699
0.59071
0.63569
0.647025
0.642349
0.624083
0.579042
0.473781
0.301379
0.292643
0.530262
0.70147
0.780368
0.822511
0.840095
0.844861
0.844552
0.839512
0.823591
0.798082
0.774918
0.762007
0.750113
0.739692
0.725384
0.7176
0.714456
0.713332
0.713308
0.716434
0.725501
0.733209
0.736584
0.741112
0.74709
0.75119
0.753621
0.754605
0.7551
0.755164
0.754857
0.754083
0.753406
0.753143
0.753079
0.753508
0.754134
0.755583
0.757052
0.759343
0.762306
0.764563
0.768072
0.771058
0.774542
0.778471
0.782719
0.78755
0.792406
0.797548
0.801163
0.805606
0.810384
0.815814
0.821521
0.827579
0.834124
0.841934
0.851874
0.864516
0.875358
0.883954
0.888134
0.877453
0.856655
0.845497
0.844204
0.854009
0.870639
0.877513
0.873237
0.850688
0.83825
0.837491
0.846566
0.883009
0.927367
0.954024
0.968332
0.975866
0.980149
0.983533
0.987066
0.990462
0.993487
0.995988
0.997794
0.998897
0.999485
0.999773
0.999905
0.999962
0.999985
0.999992
0.999993
0.999991
0.999979
0.999919
0.999652
0.998546
0.994234
0.978287
0.920692
0.755148
0.573037
0.423282
0.305201
0.215338
0.148826
0.100733
0.0667056
0.0431574
0.0272436
0.0167617
0.0100441
0.00586018
0.00332927
0.0018423
0.000993461
0.000522335
0.000267904
0.000134104
6.55392e-05
3.12813e-05
1.45839e-05
6.64217e-06
2.95513e-06
1.28419e-06
5.4493e-07
2.25724e-07
9.12202e-08
3.59475e-08
1.38013e-08
5.15923e-09
1.87401e-09
6.62884e-10
2.2827e-10
7.65101e-11
2.49116e-11
7.87636e-12
2.41678e-12
7.02903e-13
0.0489346
0.155888
0.547835
0.734372
0.783782
0.79777
0.795947
0.78637
0.754597
0.669776
0.523986
0.454584
0.4187
0.397796
0.384205
0.368138
0.348113
0.324841
0.306792
0.286714
0.279072
0.271938
0.26944
0.265003
0.261521
0.263636
0.27304
0.296906
0.357153
0.479783
0.57561
0.619491
0.626433
0.616428
0.568677
0.390756
0.314112
0.534945
0.721415
0.796049
0.828737
0.841917
0.845294
0.844004
0.836907
0.814872
0.790591
0.770563
0.754209
0.738884
0.72339
0.705718
0.693405
0.688313
0.686427
0.68607
0.68775
0.69539
0.706525
0.716275
0.72413
0.731092
0.736812
0.739049
0.7396
0.739232
0.73705
0.73363
0.729811
0.725915
0.723194
0.722025
0.721745
0.723559
0.725891
0.73074
0.735856
0.741635
0.748663
0.753546
0.75909
0.762065
0.764596
0.766579
0.769614
0.772304
0.77568
0.778849
0.782593
0.790753
0.798759
0.806257
0.812815
0.818012
0.821792
0.824097
0.826337
0.83142
0.8466
0.871013
0.895517
0.908536
0.908952
0.880153
0.847526
0.83963
0.845845
0.870156
0.887317
0.888288
0.865137
0.840502
0.836475
0.84279
0.872426
0.925047
0.958261
0.97509
0.983106
0.986817
0.988684
0.990686
0.992955
0.995063
0.996786
0.99808
0.99896
0.999486
0.999763
0.999897
0.999958
0.999983
0.999993
0.999996
0.999997
0.999995
0.999985
0.999933
0.999708
0.998806
0.995413
0.983225
0.94002
0.801461
0.619411
0.465207
0.340181
0.242386
0.168249
0.113688
0.074714
0.047722
0.029615
0.0178562
0.010464
0.00596335
0.00330721
0.00178617
0.000940074
0.000482433
0.000241521
0.000118
5.62763e-05
2.62034e-05
1.19122e-05
5.28692e-06
2.29034e-06
9.68194e-07
3.99201e-07
1.60465e-07
6.28373e-08
2.39572e-08
8.88252e-09
3.20025e-09
1.12189e-09
3.82516e-10
1.26713e-10
4.07428e-11
1.27233e-11
3.78018e-12
0.0787304
0.342859
0.70186
0.785087
0.802021
0.804908
0.797516
0.766111
0.672244
0.512716
0.447885
0.419038
0.403814
0.392486
0.378141
0.348699
0.301614
0.2434
0.204059
0.17567
0.178879
0.191318
0.216101
0.225933
0.227894
0.231715
0.242404
0.260583
0.294453
0.396364
0.530072
0.594601
0.613897
0.601683
0.489381
0.357786
0.487524
0.722483
0.802319
0.832053
0.842805
0.845656
0.84364
0.835407
0.814295
0.794909
0.778026
0.760372
0.743568
0.721494
0.697643
0.679668
0.672171
0.669418
0.668794
0.669589
0.674961
0.684584
0.695691
0.705964
0.712241
0.715062
0.715947
0.713988
0.706374
0.695432
0.681162
0.667982
0.659027
0.653333
0.650577
0.649815
0.653361
0.65976
0.667505
0.678365
0.691277
0.705213
0.720367
0.733105
0.743677
0.749841
0.754745
0.757242
0.758391
0.758962
0.760304
0.765431
0.77761
0.789062
0.801014
0.813811
0.826122
0.836522
0.843093
0.842063
0.832818
0.825724
0.824307
0.831986
0.855466
0.896387
0.922975
0.930069
0.912029
0.861448
0.843395
0.848005
0.873025
0.897538
0.902361
0.883224
0.852282
0.845098
0.851148
0.880857
0.930203
0.963638
0.980759
0.988762
0.992343
0.993674
0.994422
0.995469
0.996688
0.997787
0.99863
0.999214
0.999584
0.999798
0.999908
0.999961
0.999984
0.999994
0.999997
0.999998
0.999998
0.999996
0.999983
0.999923
0.999685
0.998792
0.995604
0.984509
0.945747
0.818623
0.637972
0.480367
0.350513
0.247889
0.169884
0.112805
0.0725819
0.0452711
0.0273902
0.0160886
0.00918309
0.00509803
0.00275497
0.00145025
0.000744105
0.000372296
0.000181699
8.65211e-05
4.02013e-05
1.82266e-05
8.06224e-06
3.47849e-06
1.46335e-06
5.99973e-07
2.39601e-07
9.31428e-08
3.52198e-08
1.29385e-08
4.61968e-09
1.60351e-09
5.40724e-10
1.76962e-10
5.6269e-11
1.70755e-11
0.0934423
0.470459
0.75675
0.801667
0.809586
0.806944
0.787758
0.713155
0.545479
0.459408
0.428384
0.41348
0.403903
0.393773
0.357568
0.272011
0.163195
0.113763
0.0852264
0.0738629
0.0769216
0.0922444
0.142059
0.192396
0.20983
0.211736
0.210381
0.223449
0.279298
0.406087
0.537421
0.595114
0.603191
0.537443
0.416921
0.432115
0.704153
0.802999
0.834513
0.844609
0.847183
0.844494
0.835962
0.816689
0.798281
0.788838
0.770984
0.751709
0.727616
0.697269
0.673873
0.662791
0.658773
0.657799
0.658055
0.661016
0.667481
0.67684
0.685237
0.688768
0.688931
0.678838
0.660106
0.643867
0.619819
0.602843
0.589839
0.579762
0.573283
0.570077
0.568984
0.571193
0.574659
0.582654
0.593102
0.605472
0.619038
0.636704
0.6557
0.677218
0.696412
0.712901
0.725524
0.732668
0.736704
0.740065
0.746203
0.758245
0.775091
0.791592
0.809262
0.82462
0.839131
0.854592
0.872237
0.889458
0.896945
0.883448
0.853659
0.834973
0.837225
0.858212
0.899911
0.933892
0.944148
0.933759
0.883069
0.856903
0.859981
0.885306
0.911981
0.919672
0.906375
0.876633
0.86822
0.873618
0.903514
0.943094
0.970883
0.985651
0.992657
0.995792
0.997057
0.9974
0.997639
0.998106
0.998659
0.999144
0.999497
0.999725
0.999859
0.999933
0.99997
0.999988
0.999995
0.999998
0.999999
0.999999
0.999998
0.999994
0.999974
0.999895
0.999601
0.998561
0.994968
0.982529
0.938953
0.80184
0.618309
0.458991
0.32878
0.227354
0.151881
0.0981058
0.0613392
0.0371656
0.0218484
0.0124756
0.00692621
0.00374191
0.00196859
0.00100906
0.000504145
0.000245583
0.000116659
5.40423e-05
2.44127e-05
1.07518e-05
4.61527e-06
1.93015e-06
7.86037e-07
3.11535e-07
1.20093e-07
4.4991e-08
1.63686e-08
5.78644e-09
1.987e-09
6.62187e-10
2.14461e-10
6.64577e-11
0.103598
0.537953
0.78236
0.809559
0.813939
0.806354
0.760634
0.637846
0.499356
0.445116
0.425999
0.420951
0.415823
0.389937
0.314161
0.193164
0.117298
0.0847404
0.0661596
0.0614504
0.0763996
0.102287
0.137493
0.159091
0.169792
0.17784
0.195343
0.227049
0.302711
0.462537
0.566393
0.590543
0.550347
0.466818
0.445963
0.661043
0.797396
0.835721
0.846898
0.84953
0.846966
0.840897
0.826196
0.802787
0.791859
0.778402
0.755291
0.733858
0.70678
0.681888
0.663968
0.65577
0.65346
0.653053
0.65326
0.655366
0.660383
0.664044
0.664706
0.651361
0.635534
0.613719
0.59896
0.582704
0.568649
0.557125
0.545548
0.535568
0.530569
0.528173
0.527553
0.531376
0.53595
0.543792
0.551096
0.558669
0.569068
0.580728
0.592963
0.606991
0.624997
0.645422
0.66493
0.682639
0.697041
0.710055
0.725835
0.745759
0.766384
0.787819
0.804553
0.815651
0.824243
0.836925
0.859333
0.889556
0.914463
0.929565
0.932357
0.909269
0.872673
0.862043
0.879407
0.915837
0.945686
0.956819
0.949504
0.908825
0.881533
0.882449
0.90565
0.931087
0.940856
0.936443
0.916212
0.905871
0.908244
0.930302
0.958885
0.978741
0.989906
0.995263
0.997653
0.998675
0.999048
0.999128
0.99916
0.999271
0.999519
0.999714
0.999842
0.999918
0.99996
0.999982
0.999992
0.999997
0.999999
0.999999
0.999999
0.999999
0.999997
0.999989
0.999956
0.999833
0.999396
0.997873
0.992556
0.973836
0.908741
0.736244
0.552925
0.399187
0.277367
0.185788
0.120162
0.0751618
0.0455373
0.0267593
0.0152699
0.00847006
0.00457059
0.0024009
0.00122829
0.000612228
0.000297379
0.00014078
6.49535e-05
2.92033e-05
1.27916e-05
5.45661e-06
2.26592e-06
9.15511e-07
3.59713e-07
1.37358e-07
5.09346e-08
1.83417e-08
6.41498e-09
2.17747e-09
7.18366e-10
2.27247e-10
0.116824
0.588327
0.793699
0.814404
0.815216
0.799612
0.736458
0.604038
0.484304
0.443878
0.436859
0.435133
0.420439
0.388197
0.305209
0.182646
0.118041
0.0955696
0.0878444
0.0862835
0.0967348
0.114308
0.130973
0.147003
0.161914
0.179704
0.20912
0.269462
0.419825
0.5395
0.565906
0.551802
0.49467
0.481221
0.598814
0.784331
0.835086
0.848762
0.851748
0.849883
0.844841
0.833147
0.811282
0.795095
0.780941
0.756225
0.736745
0.714703
0.6915
0.674259
0.658981
0.64894
0.645932
0.645164
0.645613
0.647086
0.646378
0.637571
0.624553
0.609101
0.595201
0.582711
0.570672
0.549817
0.530413
0.509204
0.486936
0.470899
0.462308
0.459235
0.462008
0.470569
0.484498
0.500742
0.516398
0.531793
0.545321
0.5566
0.567066
0.578278
0.591424
0.606492
0.621638
0.63664
0.651864
0.670494
0.693389
0.718488
0.745105
0.765378
0.773653
0.768194
0.756349
0.754166
0.769821
0.82119
0.885974
0.926451
0.946708
0.955989
0.953547
0.929555
0.9083
0.912316
0.938844
0.960303
0.968926
0.965523
0.941259
0.916392
0.913415
0.928524
0.950695
0.962116
0.963922
0.958306
0.947919
0.94577
0.954473
0.973238
0.985878
0.993319
0.997009
0.99866
0.999357
0.999639
0.999733
0.999755
0.999768
0.999806
0.999873
0.999926
0.99996
0.99998
0.99999
0.999996
0.999998
0.999999
1
1
1
0.999999
0.999994
0.999977
0.999912
0.999677
0.99884
0.995856
0.985218
0.947762
0.821233
0.622358
0.450762
0.313594
0.210041
0.135737
0.0848023
0.051306
0.0301024
0.017148
0.00949321
0.00511114
0.00267781
0.00136581
0.000678389
0.000328191
0.000154651
7.09776e-05
3.17212e-05
1.38007e-05
5.84278e-06
2.40604e-06
9.63294e-07
3.7477e-07
1.41616e-07
5.19447e-08
1.85021e-08
6.39609e-09
2.14919e-09
6.9372e-10
0.128578
0.607925
0.798336
0.816251
0.815597
0.794953
0.725186
0.590532
0.483134
0.454119
0.445065
0.443544
0.444104
0.433143
0.392403
0.297281
0.197125
0.150829
0.127657
0.118679
0.117255
0.131863
0.142012
0.161959
0.185442
0.226591
0.305782
0.435745
0.518608
0.542479
0.54108
0.511895
0.504763
0.574713
0.763675
0.832042
0.84975
0.853392
0.852695
0.848479
0.838359
0.817285
0.79025
0.776488
0.756832
0.735595
0.716789
0.698736
0.679182
0.666344
0.656592
0.646523
0.642192
0.639728
0.637059
0.628777
0.617534
0.607687
0.596677
0.585401
0.573027
0.555282
0.52474
0.485238
0.447915
0.411411
0.385438
0.371413
0.365854
0.365005
0.375745
0.391642
0.415999
0.441256
0.469666
0.496907
0.519671
0.538174
0.554105
0.567649
0.57966
0.592855
0.607214
0.621614
0.635497
0.64947
0.664808
0.685272
0.707381
0.720099
0.719728
0.714295
0.704951
0.701785
0.704164
0.721071
0.78102
0.872047
0.930375
0.957933
0.970641
0.975787
0.972486
0.95718
0.949855
0.958883
0.974144
0.980677
0.980515
0.972303
0.954609
0.946943
0.952101
0.968393
0.978563
0.982373
0.982143
0.978075
0.97409
0.975165
0.983578
0.9915
0.995924
0.998188
0.999232
0.999672
0.999846
0.99991
0.999931
0.999941
0.999951
0.999963
0.999975
0.999985
0.999992
0.999996
0.999998
0.999999
1
1
1
1
0.999999
0.999996
0.999985
0.999943
0.999786
0.999211
0.997105
0.98946
0.962085
0.865121
0.662811
0.480289
0.333581
0.222905
0.143678
0.0895244
0.0540168
0.0316045
0.0179504
0.00990537
0.00531415
0.00277325
0.00140833
0.000696124
0.000334956
0.00015689
7.15235e-05
3.17272e-05
1.36901e-05
5.74376e-06
2.34228e-06
9.27989e-07
3.57089e-07
1.33377e-07
4.83674e-08
1.70231e-08
5.82371e-09
1.91683e-09
0.132911
0.615045
0.800823
0.817922
0.816945
0.79315
0.721715
0.595838
0.499256
0.467899
0.457378
0.454161
0.453417
0.453164
0.44459
0.416827
0.367555
0.297418
0.254365
0.229303
0.2184
0.21644
0.238978
0.272419
0.330408
0.4024
0.477441
0.512044
0.52644
0.529405
0.520683
0.521738
0.574327
0.75004
0.826296
0.849383
0.85436
0.854741
0.851665
0.842957
0.821727
0.78863
0.77158
0.754707
0.728196
0.706958
0.695113
0.684155
0.670284
0.659068
0.649525
0.641697
0.633999
0.627938
0.620457
0.613171
0.605455
0.596529
0.584483
0.56901
0.543316
0.504118
0.453551
0.402771
0.359894
0.326669
0.303794
0.289588
0.283693
0.284041
0.294382
0.316157
0.345146
0.381439
0.423344
0.463086
0.49707
0.523518
0.545009
0.563068
0.577735
0.590299
0.604357
0.618888
0.632831
0.645617
0.658609
0.675751
0.692623
0.701933
0.704202
0.703533
0.699301
0.696224
0.696602
0.703035
0.726238
0.791376
0.874413
0.9343
0.966732
0.980998
0.987723
0.989107
0.985405
0.977744
0.977807
0.985365
0.990104
0.990895
0.989247
0.982318
0.975302
0.974946
0.981855
0.989272
0.992267
0.992713
0.99185
0.989592
0.989093
0.991166
0.995443
0.997844
0.999039
0.999594
0.999834
0.999931
0.999967
0.999979
0.999984
0.999987
0.99999
0.999993
0.999995
0.999997
0.999999
0.999999
1
1
1
1
1
0.999999
0.999997
0.999989
0.999956
0.99983
0.999355
0.997566
0.990937
0.966777
0.880007
0.677542
0.48911
0.338331
0.225134
0.144519
0.0896856
0.0538955
0.0314024
0.0177575
0.00975316
0.00520624
0.00270223
0.00136422
0.000670028
0.000320155
0.000148816
6.72761e-05
2.95717e-05
1.2634e-05
5.24462e-06
2.11466e-06
8.28004e-07
3.14722e-07
1.16122e-07
4.15829e-08
1.44742e-08
4.85379e-09
0.128512
0.608376
0.80164
0.818957
0.818118
0.798558
0.736952
0.622084
0.526519
0.491251
0.476313
0.470703
0.469495
0.469914
0.470789
0.468467
0.45734
0.444924
0.430474
0.419609
0.414672
0.413624
0.428847
0.444104
0.472801
0.493091
0.511767
0.519635
0.523454
0.52516
0.534629
0.586924
0.744338
0.820918
0.847574
0.854289
0.85524
0.854027
0.847604
0.830402
0.791251
0.761098
0.744164
0.726612
0.708098
0.688808
0.676634
0.667877
0.659331
0.651835
0.645203
0.637603
0.628378
0.619494
0.610809
0.601238
0.589674
0.575202
0.559059
0.532362
0.489565
0.437491
0.381357
0.327738
0.285039
0.251994
0.225068
0.204244
0.191788
0.186152
0.190813
0.205723
0.234713
0.279642
0.334768
0.396045
0.449956
0.492224
0.52508
0.554705
0.579362
0.59953
0.614252
0.631412
0.648255
0.662692
0.675581
0.69008
0.703612
0.713067
0.718404
0.720235
0.719882
0.715008
0.710189
0.710922
0.723427
0.77081
0.848053
0.910191
0.951354
0.97595
0.988321
0.993873
0.995575
0.995049
0.992503
0.99145
0.993497
0.996007
0.996544
0.996204
0.994272
0.991618
0.990662
0.992065
0.995582
0.997084
0.997357
0.997153
0.996414
0.996061
0.996353
0.997825
0.998995
0.99956
0.999817
0.999927
0.999971
0.999987
0.999993
0.999996
0.999997
0.999998
0.999998
0.999999
0.999999
1
1
1
1
1
1
1
0.999999
0.999998
0.99999
0.99996
0.999843
0.999385
0.997618
0.990946
0.966259
0.876646
0.670401
0.481124
0.330861
0.21893
0.139777
0.0862784
0.0515659
0.0298755
0.016794
0.00916638
0.00486065
0.00250513
0.00125522
0.000611514
0.00028965
0.000133366
5.96783e-05
2.59449e-05
1.09556e-05
4.492e-06
1.78816e-06
6.90959e-07
2.59174e-07
9.43477e-08
3.33836e-08
1.13933e-08
0.122804
0.58923
0.798358
0.819558
0.82036
0.80897
0.763735
0.670291
0.573215
0.531088
0.509349
0.496001
0.491175
0.490089
0.490451
0.491367
0.491465
0.490321
0.487622
0.486326
0.485982
0.48889
0.492414
0.497507
0.505225
0.509138
0.515865
0.521184
0.528929
0.548517
0.610131
0.748028
0.816688
0.843798
0.85218
0.854204
0.853872
0.849377
0.83618
0.806575
0.768299
0.743484
0.72449
0.704584
0.686088
0.673199
0.664856
0.658848
0.651876
0.645326
0.638652
0.631302
0.621172
0.610393
0.601196
0.593291
0.582798
0.56645
0.543575
0.508473
0.457116
0.393561
0.331337
0.2768
0.23394
0.201157
0.175466
0.15802
0.149133
0.147011
0.149972
0.157971
0.173263
0.202223
0.249507
0.315185
0.386754
0.444552
0.482827
0.523718
0.569897
0.609468
0.648977
0.679185
0.706689
0.730967
0.75049
0.765235
0.77638
0.788547
0.800812
0.806367
0.805823
0.797351
0.776268
0.76611
0.766182
0.782422
0.844124
0.906415
0.947263
0.972233
0.986441
0.993838
0.997197
0.99833
0.998397
0.998033
0.997884
0.998262
0.998859
0.998945
0.998833
0.998288
0.99775
0.997616
0.997842
0.998736
0.999149
0.999203
0.999143
0.998968
0.998907
0.998944
0.999261
0.999638
0.999836
0.99993
0.999972
0.999989
0.999996
0.999998
0.999999
0.999999
1
1
1
1
1
1
1
1
1
1
1
0.999999
0.999998
0.99999
0.99996
0.999837
0.999344
0.997405
0.989963
0.96212
0.860325
0.648771
0.462189
0.3156
0.207432
0.131561
0.0806638
0.0478767
0.0275378
0.0153628
0.00831868
0.00437434
0.00223461
0.00110917
0.000534947
0.000250658
0.000114083
5.04216e-05
2.16357e-05
9.01134e-06
3.64291e-06
1.42926e-06
5.44349e-07
2.01234e-07
7.23034e-08
2.50791e-08
0.10223
0.526323
0.788917
0.818771
0.821139
0.815771
0.789547
0.731717
0.653343
0.607225
0.584635
0.560169
0.546721
0.540499
0.534874
0.529295
0.52563
0.521603
0.517779
0.514553
0.51178
0.510734
0.511478
0.512548
0.514008
0.517653
0.524381
0.535406
0.563951
0.633105
0.751389
0.810065
0.836512
0.846708
0.850585
0.850423
0.845219
0.832628
0.807862
0.767063
0.738467
0.720101
0.705639
0.692295
0.675389
0.662651
0.654043
0.649374
0.645892
0.641637
0.635952
0.627101
0.616711
0.605846
0.594844
0.581917
0.566864
0.547455
0.518427
0.477652
0.421468
0.359183
0.298764
0.246617
0.205844
0.175914
0.155202
0.143375
0.138969
0.138852
0.14085
0.146564
0.158042
0.177314
0.214603
0.276088
0.350398
0.419893
0.462637
0.486683
0.529472
0.595206
0.66497
0.733415
0.787887
0.828796
0.859125
0.879772
0.894968
0.910574
0.926467
0.936998
0.939977
0.936496
0.915283
0.889564
0.880972
0.880508
0.891286
0.928528
0.956234
0.974494
0.986601
0.993701
0.997375
0.998934
0.999456
0.999573
0.999584
0.999605
0.999691
0.999728
0.999722
0.999672
0.999557
0.999508
0.999517
0.999624
0.999754
0.999793
0.999793
0.999776
0.999759
0.999761
0.999794
0.999872
0.999927
0.999962
0.999982
0.999992
0.999997
0.999999
0.999999
1
1
1
1
1
1
1
1
1
1
1
1
1
0.999999
0.999998
0.999989
0.999955
0.999811
0.999224
0.996883
0.98782
0.953757
0.830478
0.616409
0.435035