/*--------------------------------*- C++ -*----------------------------------*\
  =========                 |
  \\      /  F ield         | OpenFOAM: The Open Source CFD Toolbox
   \\    /   O peration     | Website:  https://openfoam.org
    \\  /    A nd           | Version:  7
     \\/     M anipulation  |
\*---------------------------------------------------------------------------*/
FoamFile
{
    version     2.0;
    format      ascii;
    class       volVectorField;
    location    "0.064";
    object      U;
}
// * * * * * * * * * * * * * * * * * * * * * * * * * * * * * * * * * * * * * //

dimensions      [0 1 -1 0 0 0 0];

internalField   nonuniform List<vector> 
12225
(
(4.73897 0.157447 0)
(4.21893 0.119947 0)
(3.7566 0.116309 0)
(3.34941 0.0913422 0)
(2.97718 0.0709695 0)
(2.62495 0.0598478 0)
(2.30562 0.0502386 0)
(2.02821 0.0415719 0)
(1.78931 0.0352107 0)
(1.57935 0.0306747 0)
(1.39055 0.0263238 0)
(1.2266 0.021139 0)
(1.08819 0.0150586 0)
(0.980775 0.00897929 0)
(0.891981 0.00335959 0)
(0.827829 -0.00187962 0)
(0.774068 0.000838138 0)
(0.700531 -0.00706005 0)
(5.0593 0.11159 0)
(4.91272 0.0481265 0)
(4.76399 0.0805264 0)
(4.64342 0.09649 0)
(4.53965 0.103444 0)
(4.44879 0.105589 0)
(4.35588 0.102586 0)
(4.24074 0.0970605 0)
(4.09845 0.0914618 0)
(3.94403 0.0863611 0)
(3.79324 0.0810495 0)
(3.65813 0.0740713 0)
(3.53929 0.0658061 0)
(3.43823 0.0573039 0)
(3.34578 0.0513681 0)
(3.26112 0.0457671 0)
(3.17609 0.0477646 0)
(3.08262 0.0481511 0)
(5.03506 0.170613 0)
(4.90072 0.136985 0)
(4.78015 0.16046 0)
(4.73661 0.1458 0)
(4.72854 0.12103 0)
(4.72931 0.107565 0)
(4.72728 0.106526 0)
(4.7154 0.113158 0)
(4.69329 0.120779 0)
(4.66472 0.123407 0)
(4.63236 0.119354 0)
(4.59504 0.110093 0)
(4.5538 0.0982403 0)
(4.50757 0.0860901 0)
(4.46269 0.0769088 0)
(4.41521 0.0710348 0)
(4.37696 0.0732978 0)
(4.33151 0.0813515 0)
(5.00763 0.180182 0)
(4.91926 0.115387 0)
(4.84492 0.127679 0)
(4.81598 0.125793 0)
(4.80894 0.118534 0)
(4.80006 0.113639 0)
(4.78392 0.110359 0)
(4.76473 0.109252 0)
(4.74892 0.109737 0)
(4.73814 0.109138 0)
(4.73066 0.106422 0)
(4.72265 0.101869 0)
(4.71423 0.0962793 0)
(4.70394 0.0892481 0)
(4.6957 0.0830629 0)
(4.68682 0.0782608 0)
(4.68366 0.0789075 0)
(4.68051 0.0856686 0)
(4.96408 0.196031 0)
(4.91525 0.137065 0)
(4.82706 0.157769 0)
(4.78294 0.147403 0)
(4.78352 0.122515 0)
(4.79384 0.110227 0)
(4.79002 0.112139 0)
(4.77232 0.120042 0)
(4.75388 0.126199 0)
(4.74443 0.126218 0)
(4.7456 0.120525 0)
(4.75387 0.111566 0)
(4.7658 0.101767 0)
(4.77772 0.0921073 0)
(4.78813 0.0842292 0)
(4.79487 0.0789946 0)
(4.80031 0.0785473 0)
(4.80412 0.0837487 0)
(4.95066 0.231239 0)
(4.81249 0.156598 0)
(4.8122 0.157877 0)
(4.84022 0.143307 0)
(4.8561 0.125433 0)
(4.85017 0.11993 0)
(4.82789 0.122901 0)
(4.80686 0.125313 0)
(4.80222 0.122741 0)
(4.81545 0.11543 0)
(4.83715 0.106235 0)
(4.85632 0.0975932 0)
(4.86718 0.0902899 0)
(4.86936 0.083761 0)
(4.86652 0.0784033 0)
(4.86213 0.0750701 0)
(4.86006 0.0751905 0)
(4.86193 0.0798887 0)
(5.10029 0.272149 0)
(5.00032 0.174181 0)
(4.95258 0.141396 0)
(4.92056 0.131127 0)
(4.9003 0.120997 0)
(4.89197 0.119797 0)
(4.88867 0.124236 0)
(4.88517 0.124719 0)
(4.88167 0.118161 0)
(4.87975 0.108163 0)
(4.87963 0.0996935 0)
(4.87951 0.0948212 0)
(4.87795 0.0922821 0)
(4.87399 0.0895012 0)
(4.86868 0.0854305 0)
(4.86326 0.0810989 0)
(4.86002 0.0780478 0)
(4.86103 0.0787662 0)
(5.00241 0.24791 0)
(5.02806 0.201465 0)
(4.95865 0.169309 0)
(4.8846 0.153824 0)
(4.83501 0.137171 0)
(4.81299 0.128163 0)
(4.81173 0.128751 0)
(4.82261 0.130993 0)
(4.83837 0.128248 0)
(4.8535 0.120193 0)
(4.86505 0.110548 0)
(4.87181 0.10264 0)
(4.87481 0.0970221 0)
(4.87546 0.0923486 0)
(4.87627 0.0872782 0)
(4.87769 0.0822414 0)
(4.88238 0.0777067 0)
(4.88841 0.0756608 0)
(5.00786 0.228967 0)
(4.96621 0.199918 0)
(4.92197 0.186038 0)
(4.90296 0.170616 0)
(4.88188 0.149629 0)
(4.85436 0.132326 0)
(4.83681 0.12091 0)
(4.83828 0.110776 0)
(4.85253 0.100078 0)
(4.86843 0.0911945 0)
(4.88029 0.0865835 0)
(4.88869 0.0859373 0)
(4.89739 0.086508 0)
(4.90899 0.0854094 0)
(4.92424 0.0816393 0)
(4.94011 0.0761169 0)
(4.95547 0.0706988 0)
(4.96563 0.0673016 0)
(4.99499 0.258543 0)
(4.9958 0.221376 0)
(4.93369 0.192717 0)
(4.91035 0.169929 0)
(4.91459 0.15666 0)
(4.92515 0.146278 0)
(4.93678 0.134365 0)
(4.94521 0.122309 0)
(4.945 0.113018 0)
(4.93596 0.10712 0)
(4.9245 0.102604 0)
(4.91747 0.0970417 0)
(4.91881 0.089399 0)
(4.9272 0.0801807 0)
(4.94008 0.071221 0)
(4.95305 0.0645472 0)
(4.96454 0.0615563 0)
(4.97307 0.062549 0)
(5.01007 0.255385 0)
(4.91537 0.242838 0)
(4.87839 0.211886 0)
(4.8991 0.166606 0)
(4.93716 0.138227 0)
(4.96512 0.124794 0)
(4.9712 0.117926 0)
(4.95627 0.113752 0)
(4.9314 0.1104 0)
(4.91076 0.105596 0)
(4.90385 0.0979787 0)
(4.91131 0.088133 0)
(4.92755 0.0778037 0)
(4.94506 0.0684263 0)
(4.95926 0.0611563 0)
(4.96838 0.0567181 0)
(4.97443 0.0545814 0)
(4.97901 0.0545013 0)
(5.04931 0.324907 0)
(5.00022 0.278589 0)
(4.98176 0.198355 0)
(4.94359 0.14956 0)
(4.9214 0.128154 0)
(4.92962 0.12657 0)
(4.95371 0.13271 0)
(4.97427 0.134933 0)
(4.98305 0.128214 0)
(4.98196 0.113949 0)
(4.9768 0.0967427 0)
(4.97247 0.0811135 0)
(4.97105 0.0695298 0)
(4.97383 0.0624698 0)
(4.98009 0.0589952 0)
(4.9888 0.0573712 0)
(4.99777 0.056292 0)
(5.00564 0.0549863 0)
(5.02254 0.326971 0)
(5.01308 0.2804 0)
(5.00568 0.228322 0)
(5.00315 0.183881 0)
(4.99461 0.140253 0)
(4.98994 0.110987 0)
(4.99545 0.102451 0)
(5.0058 0.108268 0)
(5.01056 0.117057 0)
(5.00325 0.119703 0)
(4.98552 0.112468 0)
(4.96446 0.0970371 0)
(4.94769 0.0778499 0)
(4.9396 0.059833 0)
(4.94073 0.0465092 0)
(4.94818 0.0390863 0)
(4.95851 0.0374602 0)
(4.96793 0.0397029 0)
(4.92865 0.285022 0)
(5.00737 0.281008 0)
(5.01897 0.201744 0)
(5.00576 0.152383 0)
(4.9814 0.133146 0)
(4.97085 0.126315 0)
(4.97338 0.123505 0)
(4.97967 0.122323 0)
(4.98442 0.121271 0)
(4.98637 0.118366 0)
(4.98656 0.111642 0)
(4.98548 0.100429 0)
(4.98364 0.0859104 0)
(4.98084 0.0707137 0)
(4.97923 0.0580008 0)
(4.97857 0.0497782 0)
(4.98075 0.0461407 0)
(4.98355 0.0464716 0)
(4.91129 0.185965 0)
(4.98595 0.204967 0)
(5.00637 0.238214 0)
(4.98318 0.217577 0)
(4.95551 0.163249 0)
(4.95439 0.114865 0)
(4.96948 0.0964391 0)
(4.9819 0.10483 0)
(4.98419 0.121266 0)
(4.9788 0.129517 0)
(4.97183 0.123749 0)
(4.96761 0.10634 0)
(4.96857 0.0833807 0)
(4.9742 0.0608521 0)
(4.98396 0.0429361 0)
(4.99462 0.0311582 0)
(5.0066 0.0252263 0)
(5.01575 0.024183 0)
(5.07774 0.249239 0)
(5.02064 0.211038 0)
(4.99733 0.207071 0)
(5.01085 0.18445 0)
(5.01606 0.147698 0)
(5.00914 0.115939 0)
(5.0027 0.102698 0)
(5.00572 0.106453 0)
(5.01867 0.115406 0)
(5.03791 0.118761 0)
(5.05914 0.112 0)
(5.07824 0.0960773 0)
(5.09266 0.0751335 0)
(5.10119 0.0539633 0)
(5.10455 0.0372098 0)
(5.10351 0.027119 0)
(5.10022 0.0242907 0)
(5.09482 0.026849 0)
(5.03558 0.369646 0)
(4.99172 0.285534 0)
(4.96321 0.239868 0)
(4.96172 0.203463 0)
(4.96655 0.164458 0)
(4.96993 0.125764 0)
(4.97638 0.0986932 0)
(4.98681 0.0882556 0)
(4.99976 0.0880535 0)
(5.01418 0.0876851 0)
(5.02896 0.0810873 0)
(5.04268 0.0688254 0)
(5.05432 0.0552846 0)
(5.06346 0.0445183 0)
(5.07005 0.0384058 0)
(5.07401 0.0362286 0)
(5.07578 0.0364882 0)
(5.0759 0.0371136 0)
(4.9669 0.322491 0)
(4.95633 0.261791 0)
(4.96487 0.21596 0)
(4.97817 0.169347 0)
(4.99073 0.130063 0)
(5.00049 0.102157 0)
(5.00568 0.0851216 0)
(5.00785 0.0785326 0)
(5.00882 0.0782985 0)
(5.00906 0.0774937 0)
(5.00907 0.0709194 0)
(5.00963 0.058181 0)
(5.01204 0.0427155 0)
(5.01677 0.0287464 0)
(5.02385 0.0200124 0)
(5.03185 0.0177913 0)
(5.0397 0.021929 0)
(5.04571 0.0310546 0)
(5.02524 0.290016 0)
(5.02377 0.277516 0)
(5.03661 0.239964 0)
(5.04011 0.196501 0)
(5.04124 0.150353 0)
(5.04342 0.109835 0)
(5.0509 0.0852561 0)
(5.06397 0.078501 0)
(5.08055 0.0818526 0)
(5.09754 0.0838405 0)
(5.11126 0.0765853 0)
(5.11848 0.0593616 0)
(5.11853 0.0370253 0)
(5.11255 0.0164789 0)
(5.10298 0.00261862 0)
(5.09209 -0.00259871 0)
(5.08222 -0.000504787 0)
(5.0748 0.00628303 0)
(5.00973 0.232814 0)
(5.04835 0.233946 0)
(5.06097 0.192641 0)
(5.08247 0.14863 0)
(5.09497 0.113111 0)
(5.09543 0.0842597 0)
(5.0848 0.058067 0)
(5.07043 0.0370879 0)
(5.0628 0.0272637 0)
(5.06765 0.0298424 0)
(5.0837 0.0401757 0)
(5.10445 0.052177 0)
(5.12313 0.0615728 0)
(5.13572 0.0674744 0)
(5.14231 0.0700709 0)
(5.14377 0.0699558 0)
(5.14358 0.0674608 0)
(5.14184 0.0616871 0)
(5.02078 0.277753 0)
(5.03997 0.197772 0)
(5.0555 0.200107 0)
(5.0705 0.167107 0)
(5.0764 0.131804 0)
(5.08594 0.114904 0)
(5.09716 0.105762 0)
(5.10305 0.0902429 0)
(5.10422 0.0637589 0)
(5.10621 0.0322612 0)
(5.11414 0.00531186 0)
(5.13047 -0.0109121 0)
(5.15508 -0.015942 0)
(5.18496 -0.0127357 0)
(5.21672 -0.00503695 0)
(5.24639 0.00310464 0)
(5.27229 0.00950497 0)
(5.29161 0.0124959 0)
(5.0753 0.281622 0)
(5.02769 0.169812 0)
(5.04909 0.162284 0)
(5.07969 0.130702 0)
(5.10644 0.0916415 0)
(5.12446 0.0690156 0)
(5.13913 0.0576532 0)
(5.15314 0.048507 0)
(5.16639 0.0381689 0)
(5.17979 0.0254575 0)
(5.19381 0.00959018 0)
(5.20658 -0.00660598 0)
(5.21652 -0.019682 0)
(5.22359 -0.0272244 0)
(5.22761 -0.0277397 0)
(5.22896 -0.0215827 0)
(5.22773 -0.0102385 0)
(5.22539 0.00369055 0)
(5.07729 0.283538 0)
(5.07154 0.20533 0)
(5.09067 0.157191 0)
(5.10606 0.124575 0)
(5.12257 0.0932782 0)
(5.13754 0.0724959 0)
(5.15234 0.0595198 0)
(5.16792 0.0438711 0)
(5.18222 0.0208509 0)
(5.19397 -0.00501573 0)
(5.20587 -0.027287 0)
(5.21911 -0.0413147 0)
(5.23053 -0.0437086 0)
(5.23704 -0.0348837 0)
(5.23848 -0.0195145 0)
(5.23566 -0.00316533 0)
(5.23155 0.00997352 0)
(5.22886 0.0159723 0)
(4.94842 0.225776 0)
(4.97628 0.153387 0)
(5.03305 0.132 0)
(5.10708 0.109041 0)
(5.16913 0.0799594 0)
(5.20693 0.0569032 0)
(5.23011 0.0431009 0)
(5.2507 0.0332616 0)
(5.27244 0.0210913 0)
(5.29167 0.00292593 0)
(5.30234 -0.015517 0)
(5.30458 -0.0290715 0)
(5.30334 -0.0347287 0)
(5.30233 -0.0313209 0)
(5.30527 -0.021076 0)
(5.31347 -0.00817107 0)
(5.32768 0.00358001 0)
(5.34562 0.0104758 0)
(5.01111 0.21959 0)
(5.0272 0.133266 0)
(5.06383 0.0847931 0)
(5.13968 0.0405731 0)
(5.22122 0.0191317 0)
(5.27856 0.0141395 0)
(5.31032 0.00972545 0)
(5.32641 -0.000664938 0)
(5.33144 -0.0155582 0)
(5.3293 -0.0308061 0)
(5.32506 -0.0429097 0)
(5.32158 -0.0484248 0)
(5.3227 -0.0474836 0)
(5.33113 -0.0421138 0)
(5.3477 -0.0354784 0)
(5.37 -0.0305182 0)
(5.39599 -0.0293791 0)
(5.42109 -0.0326158 0)
(5.03045 0.196919 0)
(5.09225 0.125663 0)
(5.18838 0.0793656 0)
(5.24355 0.0329461 0)
(5.25906 0.00474849 0)
(5.26861 0.00239263 0)
(5.29342 0.0134625 0)
(5.33158 0.0209959 0)
(5.37051 0.0181714 0)
(5.39997 0.00813196 0)
(5.41624 -0.00681036 0)
(5.4223 -0.0233906 0)
(5.42389 -0.0379992 0)
(5.42614 -0.0479836 0)
(5.43268 -0.0520436 0)
(5.44405 -0.0507352 0)
(5.45953 -0.0454873 0)
(5.4763 -0.0384969 0)
(5.04258 0.131211 0)
(5.19299 0.0361364 0)
(5.32438 0.0124221 0)
(5.38834 0.00495312 0)
(5.39087 -0.00241855 0)
(5.376 -0.0168715 0)
(5.37555 -0.0333825 0)
(5.3948 -0.0467588 0)
(5.42618 -0.0547991 0)
(5.46095 -0.0582763 0)
(5.49282 -0.0582519 0)
(5.51716 -0.0566669 0)
(5.53139 -0.0553646 0)
(5.53535 -0.0554188 0)
(5.53147 -0.0571234 0)
(5.52342 -0.0599408 0)
(5.5147 -0.0632978 0)
(5.50807 -0.0660023 0)
(5.01851 0.129078 0)
(5.22145 0.0457878 0)
(5.35491 0.0322394 0)
(5.38377 0.0145201 0)
(5.39597 0.00623006 0)
(5.42789 0.00529504 0)
(5.47192 0.0022875 0)
(5.5113 -0.00602838 0)
(5.53862 -0.0184215 0)
(5.55598 -0.030901 0)
(5.56783 -0.0402693 0)
(5.57703 -0.0453206 0)
(5.58431 -0.0461341 0)
(5.58927 -0.0437042 0)
(5.59125 -0.0395817 0)
(5.59036 -0.0352955 0)
(5.58737 -0.0318869 0)
(5.58327 -0.0300363 0)
(5.06857 0.020083 0)
(5.23283 -0.0630233 0)
(5.33468 -0.0235281 0)
(5.38629 -0.018214 0)
(5.42258 -0.0338137 0)
(5.4592 -0.054039 0)
(5.49502 -0.0687419 0)
(5.51957 -0.0752224 0)
(5.52664 -0.0757735 0)
(5.51791 -0.0737643 0)
(5.49864 -0.0709976 0)
(5.47509 -0.0679789 0)
(5.45237 -0.0647744 0)
(5.43436 -0.0617771 0)
(5.42162 -0.0596399 0)
(5.41378 -0.0588359 0)
(5.40783 -0.0594052 0)
(5.40282 -0.0609666 0)
(4.90706 0.0973764 0)
(5.10292 0.0217647 0)
(5.08441 -0.00394032 0)
(4.98418 -0.0224007 0)
(4.87985 -0.0245739 0)
(4.76608 -0.022299 0)
(4.6389 -0.0210043 0)
(4.50487 -0.0203878 0)
(4.37291 -0.0203083 0)
(4.24803 -0.0211622 0)
(4.12999 -0.0229235 0)
(4.01748 -0.0250925 0)
(3.91006 -0.0269933 0)
(3.80865 -0.0281253 0)
(3.71258 -0.0281379 0)
(3.62279 -0.0270128 0)
(3.5371 -0.0248391 0)
(3.45796 -0.0222015 0)
(-0.114571 0.272478 1.05141e-20)
(-0.365144 0.257259 -1.04244e-20)
(-0.562805 0.185991 0)
(-0.654839 0.0693712 0)
(-0.619843 -0.0592198 0)
(-0.481526 -0.171038 1.01427e-20)
(-0.254988 -0.247981 0)
(0.0220906 -0.286087 0)
(0.323256 -0.300248 0)
(0.623365 -0.294335 0)
(0.912943 -0.275299 -9.80818e-21)
(1.18197 -0.248811 0)
(1.42544 -0.219035 0)
(1.64132 -0.188339 0)
(1.82898 -0.157773 0)
(1.98803 -0.127838 -9.22605e-21)
(2.11907 -0.0987098 0)
(2.2217 -0.0704627 0)
(2.29697 -0.042952 0)
(2.34357 -0.0159992 0)
(2.36381 0.0108913 0)
(2.35497 0.0379749 0)
(2.31685 0.0658766 0)
(2.25082 0.0936575 -8.49307e-21)
(2.15704 0.122176 8.43273e-21)
(2.03513 0.149789 -8.37729e-21)
(1.88697 0.178447 -8.32536e-21)
(1.70896 0.205917 0)
(1.50867 0.232019 0)
(1.27653 0.258891 8.17276e-21)
(1.02734 0.269066 8.11614e-21)
(0.755124 0.288876 0)
(0.462292 0.228119 0)
(0.240371 0.0539745 7.90892e-21)
(0.101351 -0.06783 0)
(0.0134952 -0.0997241 0)
(-0.0239438 -0.0964634 -7.70232e-21)
(-0.0162549 -0.0912211 0)
(0.0174698 -0.0924873 -7.57378e-21)
(0.07761 -0.110255 -1.50223e-20)
(0.179336 -0.126979 0)
(0.319852 -0.0985824 0)
(0.407602 -0.0100339 0)
(0.416071 0.109141 0)
(0.50353 0.137567 0)
(0.679201 -0.0175684 -1.4256e-20)
(0.837971 -0.354262 -1.41412e-20)
(0.914733 -0.568861 -1.39951e-20)
(0.900646 -0.395053 0)
(0.692871 0.0319572 1.36819e-20)
(0.224367 0.333948 0)
(-0.309394 0.405221 -1.34342e-20)
(-0.838487 0.416157 -1.32318e-20)
(-1.34929 0.404677 0)
(-1.82617 0.377703 0)
(-2.26116 0.342524 0)
(-2.6517 0.304871 -1.21363e-20)
(-2.99912 0.268359 0)
(-3.30653 0.234865 0)
(-3.57796 0.205041 0)
(-3.81732 0.178856 0)
(-4.02821 0.155958 0)
(-4.21361 0.135803 0)
(-4.3758 0.117784 0)
(-4.51643 0.10134 0)
(-4.6366 0.0860248 9.84483e-21)
(-4.737 0.0715574 0)
(-4.81821 0.057843 0)
(-4.88086 0.0449708 -9.35319e-21)
(-4.92564 0.0331122 -9.22385e-21)
(-4.9534 0.0223304 0)
(-4.96521 0.0125762 9.01513e-21)
(-4.96228 0.00399281 -8.93388e-21)
(-4.94738 -0.00319077 0)
(-4.92113 -0.00943479 8.81212e-21)
(-4.8849 -0.0146803 0)
(-4.84008 -0.0191042 0)
(-4.78768 -0.0228402 -8.71032e-21)
(-4.72872 -0.026 0)
(-4.66389 -0.0287825 8.68035e-21)
(-4.59359 -0.0313537 0)
(-4.51794 -0.0339142 -8.67105e-21)
(-4.43668 -0.0366537 -8.6727e-21)
(-4.3492 -0.0397453 -8.67824e-21)
(-4.25458 -0.0433395 -1.73753e-20)
(-4.15162 -0.0475415 1.74022e-20)
(-4.03896 -0.0524047 0)
(-3.91515 -0.0579154 0)
(-3.77882 -0.0639875 0)
(-3.62887 -0.0704594 1.75913e-20)
(-3.46453 -0.077099 1.76555e-20)
(-3.28558 -0.0836184 -1.77228e-20)
(-3.09242 -0.0896983 0)
(-2.8861 -0.0950216 1.78529e-20)
(-2.6683 -0.0993163 1.79078e-20)
(-2.4412 -0.102383 1.79506e-20)
(-2.20741 -0.104094 0)
(-1.9698 -0.104379 0)
(-1.7313 -0.103246 0)
(-1.49455 -0.100788 1.79388e-20)
(-1.26202 -0.0971636 0)
(-1.03605 -0.0925676 0)
(-0.818642 -0.0872295 -1.77051e-20)
(-0.611372 -0.0814018 0)
(-0.415351 -0.0752714 0)
(-0.230863 -0.0690999 -1.73053e-20)
(-0.0584516 -0.0630533 0)
(0.101734 -0.0577245 0)
(0.251232 -0.0524875 1.67855e-20)
(0.391158 -0.0476383 1.65961e-20)
(0.521925 -0.0430722 0)
(0.643888 -0.0386372 -1.62076e-20)
(0.757039 -0.034178 0)
(0.861021 -0.0295842 1.58124e-20)
(0.955253 -0.0248323 0)
(1.03913 -0.019983 1.54152e-20)
(1.11219 -0.015154 1.5217e-20)
(1.17428 -0.0105146 0)
(1.22564 -0.00620483 0)
(1.26678 -0.00232 0)
(1.29853 0.00103128 0)
(1.32191 0.00389265 0)
(1.33781 0.00629548 0)
(1.34744 0.00820945 0)
(1.35151 0.00989749 1.36792e-20)
(1.35039 0.0114798 -1.34951e-20)
(1.345 0.0127718 0)
(1.33595 0.0137093 0)
(1.32381 0.0143175 0)
(1.3092 0.0145985 0)
(1.29272 0.0145453 -2.52039e-20)
(1.27493 0.0141934 0)
(1.25635 0.0136096 2.45132e-20)
(1.23742 0.0128698 -2.41726e-20)
(1.21851 0.0120458 0)
(1.19989 0.0111975 0)
(1.18177 0.0103651 0)
(1.1643 0.00956817 2.28395e-20)
(1.14761 0.00881099 2.25132e-20)
(1.13181 0.00809177 0)
(1.11698 0.00740883 2.18685e-20)
(1.10321 0.00676295 2.155e-20)
(1.09055 0.00615652 -2.1234e-20)
(1.07903 0.00559159 0)
(1.06865 0.00506852 0)
(1.05938 0.00458639 -2.03007e-20)
(1.05117 0.00414341 0)
(1.04393 0.00373405 0)
(1.03759 0.00335958 0)
(1.03203 0.00301815 0)
(1.02717 0.00270935 1.87918e-20)
(1.02292 0.00243213 1.84965e-20)
(1.01918 0.00218622 0)
(1.01588 0.0019721 1.79122e-20)
(1.01293 0.00178923 0)
(1.01029 0.0016325 0)
(1.00788 0.00149686 1.70502e-20)
(1.00567 0.00137825 0)
(1.0036 0.00127035 1.64848e-20)
(1.00164 0.00116424 0)
(0.999716 0.00106638 0)
(0.99781 0.000992921 1.56502e-20)
(0.99578 0.000958871 0)
(0.993671 0.000959977 1.51025e-20)
(0.991217 0.00100507 0)
(0.988582 0.00108168 0)
(0.985244 0.00121254 0)
(0.98163 0.00138307 -1.40277e-20)
(0.976714 0.00164704 0)
(0.971433 0.0019586 1.35006e-20)
(0.963856 0.00243786 0)
(0.955695 0.00294802 0)
(0.943861 0.00382481 0)
(0.930251 0.00457634 0)
(0.912454 0.0063543 0)
(0.886496 0.00715492 0)
(0.864404 0.0115104 0)
(0.802955 0.0105937 -2.29539e-20)
(0.798491 0.0239842 0)
(0.623583 0.0127972 0)
(-0.0520863 0.695957 -3.14536e-20)
(-0.195962 0.636044 3.11953e-20)
(-0.305796 0.404459 0)
(-0.338843 0.0808413 -2.04286e-20)
(-0.252384 -0.296358 0)
(-0.0684275 -0.615693 -1.01477e-20)
(0.191791 -0.82192 2.01007e-20)
(0.478004 -0.918877 1.99771e-20)
(0.761299 -0.937903 0)
(1.03515 -0.904545 1.96583e-20)
(1.2929 -0.840897 9.78987e-21)
(1.53015 -0.761942 0)
(1.74566 -0.676598 0)
(1.9391 -0.589642 0)
(2.10973 -0.503388 0)
(2.25726 -0.418747 9.21595e-21)
(2.38063 -0.336089 0)
(2.47998 -0.255539 -1.79003e-20)
(2.55407 -0.177147 0)
(2.60433 -0.100959 0)
(2.62869 -0.0267392 1.73366e-20)
(2.63085 0.04534 0)
(2.61125 0.115725 -1.70284e-20)
(2.57057 0.183533 8.48479e-21)
(2.51019 0.248828 -8.42331e-21)
(2.43105 0.311691 8.36657e-21)
(2.33641 0.371031 8.31317e-21)
(2.22424 0.429663 0)
(2.10125 0.481792 0)
(1.96189 0.533409 -8.15502e-21)
(1.81713 0.571457 8.04589e-21)
(1.66484 0.595257 0)
(1.50302 0.595065 0)
(1.35497 0.526689 -7.88468e-21)
(1.16553 0.417359 0)
(0.962225 0.291757 0)
(0.817775 0.143016 7.68633e-21)
(0.722151 0.0167227 0)
(0.655749 -0.0629692 -7.57355e-21)
(0.657206 -0.142044 1.50006e-20)
(0.729186 -0.234628 0)
(0.799706 -0.262869 0)
(0.91872 -0.157448 2.92542e-20)
(1.11883 -0.181922 2.90104e-20)
(1.21971 -0.539071 2.87664e-20)
(1.09566 -0.557959 -1.42376e-20)
(0.678269 0.00993707 1.41513e-20)
(-0.0593293 0.513294 4.20139e-20)
(-0.746977 0.774507 -2.76053e-20)
(-1.29668 0.959576 -1.36612e-20)
(-1.78991 1.05156 0)
(-2.22125 1.05347 1.33695e-20)
(-2.61045 1.01021 -1.28679e-20)
(-2.95773 0.93715 0)
(-3.26546 0.849655 0)
(-3.53669 0.757873 0)
(-3.77546 0.668918 1.21022e-20)
(-3.98592 0.586779 0)
(-4.17189 0.513155 -2.28412e-20)
(-4.33678 0.44824 0)
(-4.48332 0.39128 -2.17917e-20)
(-4.61363 0.341056 0)
(-4.72907 0.296155 2.08259e-20)
(-4.83051 0.25523 0)
(-4.91832 0.21714 -1.99644e-20)
(-4.99268 0.181056 9.74087e-21)
(-5.05361 0.146487 0)
(-5.10116 0.113286 1.89032e-20)
(-5.13536 0.0815879 9.34872e-21)
(-5.15629 0.0516479 9.22014e-21)
(-5.16435 0.023753 0)
(-5.16021 -0.00181999 8.94867e-21)
(-5.14469 -0.0249245 8.93119e-21)
(-5.11722 -0.0452973 0)
(-5.07955 -0.0631323 -8.80955e-21)
(-5.03265 -0.0784872 1.7492e-20)
(-4.97748 -0.091604 0)
(-4.91519 -0.102796 8.70795e-21)
(-4.84655 -0.112433 0)
(-4.77225 -0.120989 -2.60092e-20)
(-4.69266 -0.128969 0)
(-4.60784 -0.136916 2.59844e-20)
(-4.51752 -0.145371 8.67071e-21)
(-4.42107 -0.154834 -8.65304e-21)
(-4.31759 -0.165736 -1.73224e-20)
(-4.20586 -0.178391 1.73458e-20)
(-4.0845 -0.192961 0)
(-3.95207 -0.209415 0)
(-3.80719 -0.227503 0)
(-3.64873 -0.246751 -5.26973e-20)
(-3.47594 -0.266466 -1.76513e-20)
(-3.28861 -0.285791 1.77185e-20)
(-3.08716 -0.30377 0)
(-2.87273 -0.319455 1.77919e-20)
(-2.64711 -0.332031 -1.79033e-20)
(-2.41258 -0.340918 -1.79461e-20)
(-2.17182 -0.345762 0)
(-1.92776 -0.346394 0)
(-1.68339 -0.342879 0)
(-1.44136 -0.33554 -1.7935e-20)
(-1.2041 -0.324851 0)
(-0.973875 -0.311386 3.55803e-20)
(-0.752573 -0.295775 5.30885e-20)
(-0.541492 -0.278751 -3.51539e-20)
(-0.341559 -0.260773 0)
(-0.152693 -0.242763 -1.72893e-20)
(0.0242209 -0.225815 0)
(0.189811 -0.209915 -3.39169e-20)
(0.346177 -0.194972 1.67678e-20)
(0.494028 -0.181294 1.65789e-20)
(0.634207 -0.168625 0)
(0.767244 -0.156503 4.85985e-20)
(0.893219 -0.144416 -3.20022e-20)
(1.01177 -0.131967 -1.5808e-20)
(1.12222 -0.118993 0)
(1.22384 -0.105572 -1.54107e-20)
(1.31602 -0.0919775 -4.56315e-20)
(1.39846 -0.0785946 0)
(1.47124 -0.0658116 -2.96323e-20)
(1.53475 -0.0539479 -2.92424e-20)
(1.58971 -0.043251 -2.88557e-20)
(1.63685 -0.0338032 0)
(1.6772 -0.0255896 0)
(1.71156 -0.018571 0)
(1.74075 -0.012514 1.36711e-20)
(1.76597 -0.00722574 1.3489e-20)
(1.78778 -0.00271802 0)
(1.80671 0.00107074 2.62503e-20)
(1.82314 0.0042466 2.58927e-20)
(1.83734 0.00686061 0)
(1.84957 0.00894417 2.51891e-20)
(1.86006 0.0105273 4.96813e-20)
(1.86895 0.0116382 -2.44974e-20)
(1.87638 0.0123411 -2.41551e-20)
(1.88246 0.0126998 0)
(1.88733 0.0127694 0)
(1.89114 0.0125992 0)
(1.89406 0.0122272 -2.28224e-20)
(1.89628 0.011683 2.24958e-20)
(1.89799 0.0109905 4.43447e-20)
(1.89943 0.0101725 -2.18514e-20)
(1.90082 0.00925502 2.1533e-20)
(1.90238 0.00826887 2.1217e-20)
(1.9043 0.00725012 0)
(1.90674 0.00623696 0)
(1.90982 0.00526377 -2.02842e-20)
(1.91359 0.00435684 0)
(1.91809 0.00353846 0)
(1.92328 0.00283561 3.87452e-20)
(1.92909 0.00222673 0)
(1.93543 0.00171101 1.87761e-20)
(1.94218 0.00128447 -1.8481e-20)
(1.94924 0.000939145 0)
(1.95651 0.000663017 1.7897e-20)
(1.96389 0.000441199 0)
(1.97131 0.000264062 0)
(1.97871 0.00012954 -1.70356e-20)
(1.98606 3.18356e-05 3.35045e-20)
(1.99328 -2.51692e-05 -1.64707e-20)
(2.00033 -2.94002e-05 0)
(2.00712 2.76372e-05 0)
(2.01361 0.000129355 1.56366e-20)
(2.0197 0.000277524 0)
(2.02541 0.00046208 1.50893e-20)
(2.03055 0.000705688 0)
(2.03521 0.00100062 0)
(2.03909 0.00142259 0)
(2.04239 0.00189026 1.40156e-20)
(2.04457 0.00259676 0)
(2.04596 0.00329428 -1.34891e-20)
(2.04575 0.00453337 0)
(2.04419 0.00552644 0)
(2.04073 0.00783082 2.54247e-20)
(2.03406 0.0090703 -2.49152e-20)
(2.02675 0.0137163 0)
(2.00952 0.0147115 0)
(2.00026 0.024913 0)
(1.95699 0.0236032 6.87874e-20)
(1.95807 0.047619 0)
(1.84507 0.0390554 -4.39365e-20)
(0.0370099 0.797427 2.1958e-23)
(0.0651991 0.775029 -4.15326e-20)
(0.0445243 0.504629 0)
(0.0985179 0.00827199 4.08564e-20)
(0.286033 -0.602846 0)
(0.52742 -1.07899 0)
(0.777227 -1.351 -8.99802e-23)
(1.01046 -1.45422 -1.99302e-20)
(1.22466 -1.44362 -1.96508e-20)
(1.42515 -1.36808 -1.96224e-20)
(1.61496 -1.2613 0)
(1.79554 -1.14176 0)
(1.96706 -1.01788 1.8847e-20)
(2.12818 -0.892783 3.7245e-20)
(2.27653 -0.767478 -3.67926e-20)
(2.40933 -0.642294 0)
(2.52399 -0.517556 -3.59094e-20)
(2.61826 -0.393639 1.78893e-20)
(2.69047 -0.271232 0)
(2.73953 -0.151127 -3.47336e-20)
(2.76439 -0.0342403 -1.73297e-20)
(2.76485 0.078384 3.40851e-20)
(2.74105 0.186143 1.7021e-20)
(2.69426 0.287678 0)
(2.62615 0.3826 -3.33167e-20)
(2.54032 0.469219 -3.31085e-20)
(2.44046 0.548412 0)
(2.3312 0.618641 -3.27276e-20)
(2.2182 0.67974 0)
(2.10382 0.732608 -3.23531e-20)
(1.994 0.765974 -1.61296e-20)
(1.88585 0.789277 0)
(1.78333 0.768661 0)
(1.67336 0.708379 0)
(1.56674 0.615028 0)
(1.44337 0.458505 0)
(1.32052 0.28937 0)
(1.27964 0.160563 -3.05652e-20)
(1.22351 0.0324196 4.54272e-20)
(1.13672 -0.200365 0)
(1.1958 -0.372959 0)
(1.32778 -0.391524 0)
(1.30293 -0.582847 6.04546e-25)
(1.08599 -0.406909 -2.90146e-20)
(0.462904 0.314808 -5.75814e-20)
(-0.379579 0.883099 5.69822e-20)
(-1.03709 1.20363 2.80901e-20)
(-1.5873 1.38461 -2.78944e-20)
(-2.03403 1.48556 1.80958e-22)
(-2.40065 1.54609 -2.69071e-20)
(-2.69798 1.54742 0)
(-2.94017 1.49023 -2.60587e-20)
(-3.14642 1.39406 3.8877e-22)
(-3.32755 1.27562 0)
(-3.49217 1.14871 0)
(-3.64537 1.02336 2.4133e-20)
(-3.79 0.905735 0)
(-3.92753 0.799148 0)
(-4.05858 0.704541 -2.23458e-20)
(-4.18337 0.621365 -4.41801e-20)
(-4.30172 0.548098 2.17939e-20)
(-4.41317 0.482769 0)
(-4.5169 0.423318 -2.08302e-20)
(-4.61192 0.367896 0)
(-4.69701 0.315064 -1.96886e-20)
(-4.77097 0.26387 -1.95838e-20)
(-4.83262 0.213854 3.82032e-20)
(-4.88105 0.164984 1.86634e-20)
(-4.91572 0.117552 0)
(-4.93639 0.0720019 -3.65203e-20)
(-4.94321 0.0289207 0)
(-4.93695 -0.010956 -5.37075e-20)
(-4.9183 -0.047437 -3.54417e-20)
(-4.88827 -0.0802512 -3.5201e-20)
(-4.84802 -0.109054 3.50112e-20)
(-4.79877 -0.133966 -5.23629e-20)
(-4.74169 -0.155218 0)
(-4.67783 -0.173261 0)
(-4.60812 -0.188734 3.4626e-20)
(-4.53325 -0.202383 5.19278e-20)
(-4.45362 -0.215077 0)
(-4.36932 -0.227729 -1.73196e-20)
(-4.28009 -0.241254 0)
(-4.18528 -0.256511 5.19264e-20)
(-4.08392 -0.274236 7.71974e-23)
(-3.97474 -0.294976 -8.29636e-23)
(-3.85624 -0.319015 -3.4727e-20)
(-3.72683 -0.346309 0)
(-3.58501 -0.376433 3.48979e-20)
(-3.42947 -0.408571 1.03349e-22)
(-3.25935 -0.441528 0)
(-3.07437 -0.473808 0)
(-2.87493 -0.503743 0)
(-2.66226 -0.529663 -3.56395e-20)
(-2.43833 -0.550141 0)
(-2.20567 -0.564213 0)
(-1.96712 -0.571354 0)
(-1.72579 -0.571344 0)
(-1.48487 -0.564356 0)
(-1.24714 -0.550993 -3.57924e-20)
(-1.01525 -0.532088 0)
(-0.791786 -0.50871 -3.55781e-20)
(-0.578982 -0.482103 -3.53839e-20)
(-0.378248 -0.453485 3.51519e-20)
(-0.190776 -0.423656 0)
(-0.0163417 -0.3947 3.45881e-20)
(0.145267 -0.367241 0)
(0.295681 -0.341239 3.39048e-20)
(0.436985 -0.317553 -3.35379e-20)
(0.570693 -0.296206 -9.94396e-20)
(0.698258 -0.276697 0)
(0.820629 -0.258147 -9.71241e-20)
(0.938091 -0.239587 -3.196e-20)
(1.05027 -0.220264 0)
(1.1563 -0.199859 -6.23834e-20)
(1.2551 -0.178526 -6.15957e-20)
(1.34565 -0.156793 9.12233e-20)
(1.42726 -0.135372 0)
(1.49972 -0.114956 2.96287e-20)
(1.56328 -0.0961067 2.92393e-20)
(1.61864 -0.0791726 8.6547e-20)
(1.66669 -0.0643005 0)
(1.7084 -0.0514769 0)
(1.74471 -0.0405563 0)
(1.77641 -0.0313874 2.73353e-20)
(1.80417 -0.0237798 0)
(1.82862 -0.0174923 0)
(1.85027 -0.0123283 -2.62487e-20)
(1.8696 -0.00811423 -2.58913e-20)
(1.88711 -0.00470277 0)
(1.9032 -0.00195995 0)
(1.91817 0.000219889 -4.96786e-20)
(1.93226 0.00192736 0)
(1.94562 0.00323149 4.83081e-20)
(1.95827 0.00421347 4.76305e-20)
(1.97021 0.0049325 0)
(1.98141 0.00542504 0)
(1.99184 0.00569563 -4.5639e-20)
(2.0015 0.00573176 -5.93401e-25)
(2.01044 0.0055159 -4.19505e-25)
(2.01875 0.00503878 0)
(2.02658 0.00431117 -8.61201e-20)
(2.03411 0.00336213 0)
(2.04157 0.00223619 0)
(2.04918 0.000988294 0)
(2.05715 -0.000327615 4.05622e-20)
(2.06564 -0.00164045 0)
(2.0748 -0.00288949 -7.86842e-20)
(2.08465 -0.00405576 -3.8739e-20)
(2.09522 -0.00507519 0)
(2.10646 -0.00592789 -3.75457e-20)
(2.11832 -0.0066098 0)
(2.13069 -0.00712669 0)
(2.14346 -0.00749296 -1.07362e-19)
(2.15653 -0.00772942 7.04182e-20)
(2.16978 -0.00785667 0)
(2.18314 -0.00789216 6.81286e-20)
(2.19651 -0.00785562 -3.34977e-20)
(2.20985 -0.00775261 0)
(2.22309 -0.00757994 0)
(2.2362 -0.00732361 0)
(2.24914 -0.00699188 -9.37993e-20)
(2.2619 -0.0065778 0)
(2.27441 -0.00609193 -3.01721e-20)
(2.28666 -0.00549592 0)
(2.29855 -0.0048218 0)
(2.31007 -0.00396729 0)
(2.32102 -0.00304523 0)
(2.33149 -0.00176933 0)
(2.341 -0.000496885 0)
(2.34998 0.00152353 -5.28951e-20)
(2.3572 0.00323895 0)
(2.36426 0.00666059 -2.54177e-20)
(2.36776 0.00882498 7.47179e-20)
(2.3728 0.0151324 0)
(2.36975 0.0174929 0)
(2.37385 0.0300914 -4.68018e-20)
(2.35808 0.0315818 -4.58382e-20)
(2.36554 0.0579839 4.48489e-20)
(2.32451 0.0573337 4.39195e-20)
(0.0825645 0.518091 6.28569e-20)
(0.139642 0.655094 6.23664e-20)
(0.204881 0.376132 4.12762e-20)
(0.475999 -0.370766 2.04799e-20)
(0.782579 -1.10474 0)
(1.03374 -1.57889 -4.00605e-20)
(1.22195 -1.79215 1.9783e-20)
(1.3692 -1.82766 0)
(1.5016 -1.76889 1.96247e-20)
(1.63571 -1.67053 0)
(1.77749 -1.55791 -3.81666e-20)
(1.92586 -1.43814 0)
(2.0761 -1.31104 -1.88325e-20)
(2.22246 -1.17547 -3.72189e-20)
(2.35976 -1.03125 3.67694e-20)
(2.48405 -0.879407 0)
(2.59247 -0.721553 3.58921e-20)
(2.68303 -0.559539 0)
(2.75424 -0.395285 0)
(2.80479 -0.230809 3.4724e-20)
(2.83395 -0.0684351 0)
(2.84066 0.0896528 -3.54813e-22)
(2.82392 0.241002 0)
(2.78203 0.383746 0)
(2.71609 0.515176 2.98256e-22)
(2.62814 0.633214 3.30925e-20)
(2.52109 0.735584 3.26534e-20)
(2.40037 0.820237 3.2712e-20)
(2.26848 0.886806 0)
(2.13679 0.930462 6.45391e-20)
(2.00289 0.957739 0)
(1.88472 0.949483 3.1877e-20)
(1.76961 0.931605 0)
(1.66631 0.861532 0)
(1.58167 0.741583 -3.13158e-20)
(1.47335 0.672071 0)
(1.4074 0.420785 3.08938e-20)
(1.29038 0.16657 -1.0249e-22)
(1.21578 0.179248 -6.07142e-20)
(1.30738 -0.0500562 6.02612e-20)
(1.28641 -0.585254 0)
(1.01823 -0.450583 0)
(0.358467 0.404946 2.93169e-20)
(-0.410043 1.05647 0)
(-1.0528 1.46599 2.87031e-20)
(-1.57744 1.6996 -2.8363e-20)
(-1.98229 1.84561 -2.80036e-20)
(-2.30484 1.90937 0)
(-2.55499 1.92006 2.72703e-20)
(-2.75447 1.88607 2.68724e-20)
(-2.91291 1.81388 -5.22661e-20)
(-3.04678 1.71142 2.60434e-20)
(-3.16661 1.58896 2.55976e-20)
(-3.28011 1.45696 0)
(-3.39135 1.32282 0)
(-3.50219 1.19294 -2.41333e-20)
(-3.61294 1.07121 0)
(-3.72352 0.959961 0)
(-3.83354 0.859842 4.51943e-20)
(-3.94259 0.770193 4.41908e-20)
(-4.04983 0.689387 0)
(-4.15412 0.615241 0)
(-4.25383 0.545478 0)
(-4.34703 0.478067 0)
(-4.43155 0.411496 3.96723e-20)
(-4.50534 0.344928 -3.85773e-20)
(-4.56656 0.27824 -3.82183e-20)
(-4.61387 0.211889 -7.486e-20)
(-4.64656 0.146727 0)
(-4.66441 0.0838416 2.91959e-22)
(-4.66756 0.0242184 0)
(-4.65709 -0.0314564 3.57564e-20)
(-4.63403 -0.0820385 2.36264e-22)
(-4.59933 -0.127187 3.52162e-20)
(-4.5544 -0.166715 -3.5026e-20)
(-4.50059 -0.200713 1.6804e-22)
(-4.43928 -0.229575 0)
(-4.37172 -0.253934 -3.45649e-20)
(-4.29897 -0.274666 -3.46395e-20)
(-4.22186 -0.292844 -6.91103e-20)
(-4.14093 -0.309687 0)
(-4.05635 -0.326497 3.44928e-20)
(-3.96789 -0.344578 0)
(-3.87494 -0.365156 -6.91183e-20)
(-3.77647 -0.389288 3.46347e-20)
(-3.6711 -0.417765 -3.46779e-20)
(-3.55717 -0.451013 3.47366e-20)
(-3.43286 -0.489002 6.93783e-20)
(-3.29637 -0.531162 -3.49055e-20)