/*--------------------------------*- C++ -*----------------------------------*\
  =========                 |
  \\      /  F ield         | OpenFOAM: The Open Source CFD Toolbox
   \\    /   O peration     | Website:  https://openfoam.org
    \\  /    A nd           | Version:  7
     \\/     M anipulation  |
\*---------------------------------------------------------------------------*/
FoamFile
{
    version     2.0;
    format      ascii;
    class       volVectorField;
    location    "0.064";
    object      UMean;
}
// * * * * * * * * * * * * * * * * * * * * * * * * * * * * * * * * * * * * * //

dimensions      [0 1 -1 0 0 0 0];

internalField   nonuniform List<vector> 
12225
(
(4.77503 0.164746 0)
(4.17961 0.111763 0)
(3.71775 0.0982761 0)
(3.3481 0.0816198 0)
(3.01568 0.0683793 0)
(2.70601 0.0586635 0)
(2.41999 0.0502722 0)
(2.16174 0.0423708 0)
(1.9348 0.0340564 0)
(1.73951 0.0265633 0)
(1.57787 0.0182371 0)
(1.4459 0.0126955 0)
(1.34573 0.00431919 0)
(1.26841 0.00378442 0)
(1.21521 -0.00738161 0)
(1.18014 0.00224816 0)
(1.15827 -0.0222012 0)
(1.16067 -0.00176429 0)
(5.02332 0.11265 0)
(4.87666 0.073371 0)
(4.75889 0.089619 0)
(4.66936 0.0892083 0)
(4.57634 0.087717 0)
(4.47173 0.0881246 0)
(4.35718 0.0884295 0)
(4.23848 0.0866492 0)
(4.11821 0.0832444 0)
(4.00186 0.077112 0)
(3.88832 0.0706245 0)
(3.78494 0.0611208 0)
(3.68489 0.0541842 0)
(3.60098 0.0426785 0)
(3.51513 0.0388093 0)
(3.45315 0.0241607 0)
(3.37988 0.0230415 0)
(3.33543 -0.00624767 0)
(4.9988 0.173041 0)
(4.87896 0.123095 0)
(4.80031 0.13108 0)
(4.76977 0.125471 0)
(4.75438 0.118366 0)
(4.73868 0.115166 0)
(4.72039 0.113336 0)
(4.70022 0.110965 0)
(4.67839 0.106336 0)
(4.65442 0.100613 0)
(4.62843 0.0921846 0)
(4.60014 0.0844808 0)
(4.57124 0.0737256 0)
(4.5409 0.0668803 0)
(4.51283 0.0551705 0)
(4.48331 0.0498249 0)
(4.45998 0.0353809 0)
(4.4301 0.0197983 0)
(4.99404 0.18896 0)
(4.89729 0.120324 0)
(4.82011 0.119134 0)
(4.78554 0.115101 0)
(4.77225 0.108141 0)
(4.76444 0.104173 0)
(4.759 0.102714 0)
(4.75649 0.100981 0)
(4.75681 0.0979907 0)
(4.75862 0.093062 0)
(4.76085 0.0872302 0)
(4.76221 0.0797784 0)
(4.76311 0.0726998 0)
(4.7625 0.064221 0)
(4.7629 0.057151 0)
(4.76159 0.0477958 0)
(4.76407 0.0378815 0)
(4.76162 0.0236 0)
(4.99546 0.214987 0)
(4.92211 0.144819 0)
(4.8529 0.135862 0)
(4.81637 0.131307 0)
(4.80107 0.122462 0)
(4.79233 0.115274 0)
(4.78607 0.110776 0)
(4.78281 0.107058 0)
(4.7831 0.102325 0)
(4.78598 0.0964994 0)
(4.7905 0.0894218 0)
(4.79539 0.081909 0)
(4.80068 0.0736755 0)
(4.80567 0.0655235 0)
(4.81149 0.0569339 0)
(4.81717 0.0474674 0)
(4.82436 0.0368972 0)
(4.82971 0.021648 0)
(4.99462 0.229652 0)
(4.94101 0.158865 0)
(4.88206 0.141237 0)
(4.84643 0.134745 0)
(4.83058 0.124991 0)
(4.82234 0.115819 0)
(4.81659 0.109394 0)
(4.81322 0.104347 0)
(4.81284 0.0990424 0)
(4.81489 0.0927346 0)
(4.81856 0.0855953 0)
(4.82281 0.0777673 0)
(4.82757 0.069633 0)
(4.83232 0.0611397 0)
(4.83781 0.0523017 0)
(4.84322 0.0426285 0)
(4.84954 0.031375 0)
(4.85424 0.0177073 0)
(4.99578 0.244439 0)
(4.95559 0.175405 0)
(4.9055 0.15092 0)
(4.87142 0.141609 0)
(4.85514 0.131189 0)
(4.84742 0.120706 0)
(4.84246 0.112438 0)
(4.83935 0.105917 0)
(4.83868 0.0996244 0)
(4.84028 0.092722 0)
(4.84354 0.0851307 0)
(4.84751 0.0770036 0)
(4.85203 0.0685516 0)
(4.85655 0.0596974 0)
(4.86164 0.0505112 0)
(4.86634 0.0404103 0)
(4.87164 0.0292654 0)
(4.87498 0.016361 0)
(5.00054 0.255223 0)
(4.97171 0.190044 0)
(4.93059 0.160488 0)
(4.89924 0.147407 0)
(4.88298 0.135933 0)
(4.87568 0.124325 0)
(4.87159 0.114395 0)
(4.86905 0.106279 0)
(4.86842 0.0988725 0)
(4.86971 0.0912373 0)
(4.8726 0.0831284 0)
(4.87621 0.074614 0)
(4.88037 0.0658348 0)
(4.88445 0.0567475 0)
(4.88898 0.0472879 0)
(4.89288 0.0371485 0)
(4.89719 0.0262082 0)
(4.89938 0.0141427 0)
(5.0012 0.261808 0)
(4.98206 0.202159 0)
(4.95002 0.16946 0)
(4.92262 0.15264 0)
(4.90701 0.13982 0)
(4.90003 0.127363 0)
(4.89674 0.116183 0)
(4.89497 0.106758 0)
(4.8947 0.0983949 0)
(4.896 0.090198 0)
(4.89873 0.0817487 0)
(4.90217 0.0729635 0)
(4.90613 0.0639504 0)
(4.90992 0.054673 0)
(4.91394 0.0451149 0)
(4.91719 0.0350597 0)
(4.92058 0.0244904 0)
(4.92203 0.0132756 0)
(4.99769 0.268466 0)
(4.98527 0.213697 0)
(4.96069 0.179015 0)
(4.93764 0.158829 0)
(4.92348 0.144248 0)
(4.91696 0.13082 0)
(4.91416 0.11848 0)
(4.91283 0.107729 0)
(4.9127 0.0982215 0)
(4.91392 0.0892184 0)
(4.91645 0.0802314 0)
(4.91971 0.071101 0)
(4.92343 0.0618509 0)
(4.927 0.0524593 0)
(4.93064 0.0429052 0)
(4.93352 0.0330655 0)
(4.93636 0.022949 0)
(4.93755 0.0125429 0)
(4.99083 0.271272 0)
(4.98312 0.221233 0)
(4.96457 0.185812 0)
(4.94553 0.163051 0)
(4.93284 0.146729 0)
(4.92665 0.132478 0)
(4.92419 0.119373 0)
(4.92339 0.10765 0)
(4.92372 0.09721 0)
(4.92516 0.0875057 0)
(4.92774 0.0780589 0)
(4.93094 0.0686446 0)
(4.93454 0.0592264 0)
(4.93791 0.0497854 0)
(4.9413 0.0403058 0)
(4.94389 0.0307218 0)
(4.94648 0.0210646 0)
(4.9475 0.0113654 0)
(5.00205 0.275148 0)
(4.99593 0.228484 0)
(4.98033 0.193125 0)
(4.96367 0.16858 0)
(4.95208 0.150541 0)
(4.94616 0.135267 0)
(4.94379 0.121342 0)
(4.94305 0.108711 0)
(4.94328 0.0973413 0)
(4.94437 0.0869023 0)
(4.94642 0.0769839 0)
(4.94904 0.0673123 0)
(4.95214 0.0577717 0)
(4.95506 0.0483219 0)
(4.95805 0.0389302 0)
(4.96024 0.0295862 0)
(4.96249 0.0203043 0)
(4.96322 0.011171 0)
(5.0028 0.278018 0)
(4.99981 0.233707 0)
(4.98824 0.198623 0)
(4.97479 0.172579 0)
(4.96489 0.152784 0)
(4.95962 0.136359 0)
(4.95762 0.121719 0)
(4.95724 0.108444 0)
(4.95776 0.0964019 0)
(4.95894 0.0853462 0)
(4.96092 0.0749402 0)
(4.96339 0.0649414 0)
(4.96633 0.0552281 0)
(4.96906 0.0457551 0)
(4.9719 0.0364918 0)
(4.97389 0.0274315 0)
(4.97607 0.0185709 0)
(4.97663 0.00997088 0)
(5.01069 0.280515 0)
(5.01058 0.239143 0)
(5.00265 0.20486 0)
(4.99246 0.177953 0)
(4.98483 0.156709 0)
(4.98088 0.139015 0)
(4.97969 0.123437 0)
(4.98 0.109367 0)
(4.98115 0.0965995 0)
(4.9828 0.0849189 0)
(4.985 0.0740582 0)
(4.98747 0.0637746 0)
(4.99028 0.0539184 0)
(4.99284 0.0444233 0)
(4.99554 0.0352551 0)
(4.99742 0.0264136 0)
(4.99957 0.0178855 0)
(5.00021 0.00974398 0)
(5.00743 0.279862 0)
(5.0101 0.242003 0)
(5.0057 0.208507 0)
(4.99917 0.180555 0)
(4.99456 0.157756 0)
(4.99269 0.138792 0)
(4.99287 0.122359 0)
(4.99423 0.107638 0)
(4.99625 0.0942382 0)
(4.99867 0.0819536 0)
(5.00148 0.0706055 0)
(5.00443 0.0600242 0)
(5.00757 0.0500697 0)
(5.01043 0.0406548 0)
(5.01328 0.031712 0)
(5.01539 0.023224 0)
(5.01762 0.0151526 0)
(5.01864 0.00755294 0)
(5.01088 0.28133 0)
(5.01446 0.245491 0)
(5.01275 0.212724 0)
(5.00927 0.18437 0)
(5.00716 0.160504 0)
(5.00707 0.140327 0)
(5.00848 0.122845 0)
(5.01076 0.107302 0)
(5.0135 0.0932641 0)
(5.01642 0.0804925 0)
(5.01947 0.0687985 0)
(5.02245 0.0580266 0)
(5.02546 0.0480233 0)
(5.02817 0.038707 0)
(5.03083 0.0299715 0)
(5.03291 0.0218146 0)
(5.03506 0.014127 0)
(5.03627 0.00700416 0)
(5.00131 0.27951 0)
(5.00542 0.243705 0)
(5.0057 0.21096 0)
(5.00536 0.182152 0)
(5.00651 0.157375 0)
(5.00915 0.136169 0)
(5.01265 0.117832 0)
(5.01651 0.101695 0)
(5.02055 0.0872616 0)
(5.02458 0.0742254 0)
(5.0286 0.0623773 0)
(5.03242 0.0515713 0)
(5.03612 0.0416473 0)
(5.03944 0.0325014 0)
(5.04263 0.0239967 0)
(5.04523 0.0161169 0)
(5.0479 0.00873864 0)
(5.04968 0.00194367 0)
(5.006 0.283196 0)
(5.01165 0.245014 0)
(5.01428 0.211003 0)
(5.01659 0.181267 0)
(5.02041 0.15556 0)
(5.02546 0.133428 0)
(5.03094 0.114302 0)
(5.03636 0.0976144 0)
(5.04163 0.0828836 0)
(5.04666 0.0697671 0)
(5.05151 0.0580082 0)
(5.05606 0.0474415 0)
(5.06041 0.0378811 0)
(5.0643 0.0292246 0)
(5.06801 0.0212905 0)
(5.07108 0.01406 0)
(5.07417 0.00733191 0)
(5.07632 0.0012236 0)
(5.00297 0.277987 0)
(5.01213 0.237925 0)
(5.01871 0.201871 0)
(5.02495 0.170449 0)
(5.03259 0.143585 0)
(5.04119 0.120733 0)
(5.04978 0.101116 0)
(5.0578 0.084005 0)
(5.0652 0.0688646 0)
(5.07198 0.0553718 0)
(5.07827 0.0433126 0)
(5.08399 0.0325445 0)
(5.08927 0.0228989 0)
(5.09396 0.0142586 0)
(5.09834 0.0064378 0)
(5.10209 -0.000619858 0)
(5.1058 -0.00711627 0)
(5.10871 -0.0129853 0)
(5.00276 0.274543 0)
(5.01329 0.23038 0)
(5.0232 0.190902 0)
(5.03396 0.157532 0)
(5.0461 0.130078 0)
(5.0584 0.107516 0)
(5.06976 0.0887227 0)
(5.07991 0.0728312 0)
(5.08909 0.0592152 0)
(5.09751 0.0474234 0)
(5.10529 0.0370844 0)
(5.11234 0.0279259 0)
(5.11876 0.0197016 0)
(5.12441 0.0122908 0)
(5.12959 0.0055209 0)
(5.13403 -0.000609583 0)
(5.13827 -0.00629233 0)
(5.14166 -0.0114066 0)
(4.99857 0.271409 0)
(5.01146 0.220126 0)
(5.02611 0.176274 0)
(5.0427 0.140872 0)
(5.06035 0.112659 0)
(5.0772 0.0894968 0)
(5.09213 0.0697739 0)
(5.10512 0.0527332 0)
(5.1166 0.038098 0)
(5.12687 0.0256629 0)
(5.1361 0.0151005 0)
(5.14425 0.00604283 0)
(5.15145 -0.00186628 0)
(5.15766 -0.00885607 0)
(5.1632 -0.0151353 0)
(5.16786 -0.0207721 0)
(5.17222 -0.0259178 0)
(5.17565 -0.0305326 0)
(5.00353 0.265407 0)
(5.02067 0.204604 0)
(5.0418 0.157177 0)
(5.06463 0.12255 0)
(5.0865 0.0973056 0)
(5.10556 0.0777642 0)
(5.12171 0.0616026 0)
(5.1358 0.047843 0)
(5.14859 0.0361091 0)
(5.16026 0.0261137 0)
(5.17078 0.0175106 0)
(5.18 0.0100073 0)
(5.18811 0.00334314 0)
(5.19512 -0.00261271 0)
(5.20143 -0.00801719 0)
(5.20684 -0.0128979 0)
(5.21192 -0.0174353 0)
(5.21606 -0.0215657 0)
(5.00118 0.260537 0)
(5.0274 0.187423 0)
(5.05964 0.134324 0)
(5.09199 0.0977711 0)
(5.12034 0.0710919 0)
(5.14335 0.0494999 0)
(5.16199 0.0312572 0)
(5.17783 0.0162534 0)
(5.19183 0.00434874 0)
(5.20422 -0.00505252 0)
(5.21506 -0.0127138 0)
(5.22435 -0.0192139 0)
(5.23242 -0.0249007 0)
(5.23937 -0.0299423 0)
(5.24561 -0.034479 0)
(5.25096 -0.0385693 0)
(5.25595 -0.0423307 0)
(5.25997 -0.0457427 0)
(5.00725 0.244753 0)
(5.04352 0.164602 0)
(5.08761 0.115502 0)
(5.12757 0.087823 0)
(5.15885 0.0690124 0)
(5.1828 0.0524756 0)
(5.20278 0.0375456 0)
(5.22085 0.0249775 0)
(5.23727 0.0148589 0)
(5.2516 0.00662181 0)
(5.26375 -0.000370002 0)
(5.27396 -0.0064925 0)
(5.28276 -0.0119242 0)
(5.29036 -0.0167379 0)
(5.29717 -0.021066 0)
(5.30299 -0.0249643 0)
(5.30834 -0.0285833 0)
(5.31269 -0.0318784 0)
(5.00648 0.22747 0)
(5.05911 0.126167 0)
(5.1214 0.0717166 0)
(5.17145 0.0437943 0)
(5.20559 0.0239693 0)
(5.22976 0.00657357 0)
(5.24999 -0.0073465 0)
(5.26844 -0.0172362 0)
(5.28502 -0.0242197 0)
(5.29925 -0.0297155 0)
(5.31125 -0.0345007 0)
(5.32142 -0.0387825 0)
(5.3303 -0.0425881 0)
(5.33801 -0.0459596 0)
(5.34489 -0.0489912 0)
(5.35071 -0.0517538 0)
(5.35599 -0.054322 0)
(5.36018 -0.0566977 0)
(5.01629 0.211749 0)
(5.09045 0.112821 0)
(5.1704 0.077383 0)
(5.22704 0.0612493 0)
(5.26243 0.0434118 0)
(5.28845 0.0255151 0)
(5.31195 0.0114013 0)
(5.33348 0.00150551 0)
(5.35188 -0.00577934 0)
(5.36683 -0.0118129 0)
(5.37903 -0.0171175 0)
(5.38924 -0.0217688 0)
(5.39811 -0.0258073 0)
(5.40577 -0.0293264 0)
(5.41254 -0.0324657 0)
(5.41826 -0.0353048 0)
(5.42342 -0.0379418 0)
(5.4276 -0.0403613 0)
(5.00936 0.158927 0)
(5.12211 0.0340086 0)
(5.22044 0.0061374 0)
(5.27697 -0.00332252 0)
(5.30882 -0.0174096 0)
(5.33431 -0.029687 0)
(5.3588 -0.0371714 0)
(5.38118 -0.0416581 0)
(5.39999 -0.045155 0)
(5.41526 -0.0483673 0)
(5.42787 -0.0512817 0)
(5.43856 -0.0538374 0)
(5.44788 -0.0560649 0)
(5.45596 -0.0580546 0)
(5.46314 -0.0598667 0)
(5.46928 -0.0615545 0)
(5.4749 -0.0631424 0)
(5.47953 -0.0646513 0)
(5.01363 0.153242 0)
(5.17573 0.0583665 0)
(5.29886 0.0446315 0)
(5.3589 0.0283248 0)
(5.39175 0.00914436 0)
(5.42017 -0.00454027 0)
(5.44698 -0.012614 0)
(5.47018 -0.01814 0)
(5.48897 -0.0228233 0)
(5.50401 -0.0270159 0)
(5.51627 -0.0306652 0)
(5.52647 -0.0338331 0)
(5.53502 -0.0366013 0)
(5.54209 -0.039118 0)
(5.54789 -0.0414062 0)
(5.55247 -0.0435742 0)
(5.55612 -0.045587 0)
(5.55874 -0.0475424 0)
(5.01523 0.0189637 0)
(5.22688 -0.0520447 0)
(5.35308 -0.0346916 0)
(5.40693 -0.0432794 0)
(5.437 -0.0534985 0)
(5.46066 -0.0580665 0)
(5.47858 -0.0597082 0)
(5.48931 -0.0608313 0)
(5.49296 -0.0619832 0)
(5.49084 -0.0630638 0)
(5.48419 -0.0639614 0)
(5.47417 -0.064709 0)
(5.46122 -0.0653231 0)
(5.44613 -0.0658851 0)
(5.42876 -0.066362 0)
(5.41015 -0.0668396 0)
(5.38948 -0.0672533 0)
(5.36864 -0.0677342 0)
(4.96769 0.0704281 0)
(5.10275 -0.000519318 0)
(5.0741 -0.000634728 0)
(4.95977 -0.0109383 0)
(4.83193 -0.0185664 0)
(4.70728 -0.02157 0)
(4.58626 -0.0227347 0)
(4.46731 -0.0234939 0)
(4.35004 -0.0240574 0)
(4.23517 -0.0243905 0)
(4.12341 -0.0245113 0)
(4.01546 -0.0244809 0)
(3.91129 -0.0243454 0)
(3.81129 -0.0241535 0)
(3.71474 -0.0239121 0)
(3.62255 -0.0236691 0)
(3.53301 -0.0234025 0)
(3.44852 -0.0232079 0)
(-0.0137923 0.0211825 1.39161e-21)
(-0.0215797 -0.00991786 -1.38267e-21)
(0.00138671 -0.0394539 0)
(0.0459246 -0.0611452 0)
(0.105421 -0.075084 0)
(0.174071 -0.0824095 1.34198e-21)
(0.246981 -0.084552 0)
(0.320718 -0.0833826 0)
(0.39296 -0.0799921 0)
(0.462239 -0.0751016 0)
(0.527424 -0.0691291 -1.25655e-21)
(0.587507 -0.0622146 0)
(0.641441 -0.0543148 0)
(0.688038 -0.045295 0)
(0.725867 -0.035006 0)
(0.753378 -0.0233539 -1.14194e-21)
(0.768887 -0.0102789 0)
(0.770893 0.00417688 0)
(0.758067 0.0199232 0)
(0.72841 0.0366655 0)
(0.681244 0.0538253 0)
(0.616401 0.0706171 0)
(0.534761 0.086043 0)
(0.437937 0.0989657 -1.05635e-21)
(0.328488 0.108195 1.05444e-21)
(0.209296 0.112662 -1.05187e-21)
(0.0844063 0.112235 -1.04787e-21)
(-0.041575 0.105728 0)
(-0.162902 0.0936062 0)
(-0.276137 0.0727959 1.02395e-21)
(-0.373734 0.0432958 1.01224e-21)
(-0.455367 0.0162402 0)
(-0.52844 -0.00039126 0)
(-0.601029 -0.000988117 9.70311e-22)
(-0.676977 0.0157678 0)
(-0.758082 0.0353312 0)
(-0.843012 0.0428381 -9.24772e-22)
(-0.931994 0.0448456 0)
(-1.02539 0.0582376 -8.8904e-22)
(-1.12772 0.0751185 -1.73921e-21)
(-1.23717 0.0777227 0)
(-1.34661 0.0818452 0)
(-1.45997 0.0893607 0)
(-1.57163 0.083582 0)
(-1.67709 0.0695136 0)
(-1.7768 0.066807 -1.47206e-21)
(-1.87555 0.0687051 -1.4301e-21)
(-1.96658 0.066646 -1.39024e-21)
(-2.04678 0.0660956 0)
(-2.11726 0.0617757 1.32334e-21)
(-2.17318 0.0514032 0)
(-2.21305 0.0390129 -1.27651e-21)
(-2.23735 0.0271843 -1.2614e-21)
(-2.24715 0.0163224 0)
(-2.24351 0.00651547 0)
(-2.22773 -0.0021951 0)
(-2.20102 -0.00982415 -1.26067e-21)
(-2.16457 -0.016431 0)
(-2.11966 -0.0220712 0)
(-2.06732 -0.0268326 0)
(-2.00859 -0.0307835 0)
(-1.94445 -0.0340124 0)
(-1.87577 -0.0365893 0)
(-1.80335 -0.0385968 0)
(-1.72787 -0.0401056 0)
(-1.64999 -0.0411965 1.48424e-21)
(-1.57022 -0.0419339 0)
(-1.48902 -0.042386 0)
(-1.40673 -0.0426157 -1.57691e-21)
(-1.32359 -0.0426781 -1.60694e-21)
(-1.23983 -0.042626 0)
(-1.15556 -0.0425007 1.66504e-21)
(-1.07087 -0.0423368 -1.69296e-21)
(-0.985771 -0.0421623 0)
(-0.900274 -0.0419946 1.74636e-21)
(-0.814345 -0.041844 0)
(-0.727927 -0.0417229 0)
(-0.640958 -0.0416246 -1.82004e-21)
(-0.553397 -0.0415328 0)
(-0.465284 -0.0414087 1.86473e-21)
(-0.376717 -0.041209 0)
(-0.287889 -0.0409 -1.90517e-21)
(-0.199055 -0.0404519 -1.92349e-21)
(-0.1105 -0.0398581 -1.94037e-21)
(-0.0225058 -0.0391284 -3.91146e-21)
(0.0646828 -0.0382864 3.93901e-21)
(0.150879 -0.037359 0)
(0.235931 -0.0363692 0)
(0.319695 -0.0353349 0)
(0.402057 -0.0342692 4.01682e-21)
(0.482902 -0.0331677 4.02801e-21)
(0.562116 -0.0320262 -4.03576e-21)
(0.639571 -0.0308388 0)
(0.715127 -0.0295926 4.04057e-21)
(0.788624 -0.0282859 4.03747e-21)
(0.859892 -0.0269116 4.03062e-21)
(0.928741 -0.0254664 0)
(0.99497 -0.0239622 0)
(1.0584 -0.0223908 0)
(1.11886 -0.0207791 3.96629e-21)
(1.17619 -0.0191199 0)
(1.23027 -0.0174454 0)
(1.281 -0.0157575 -3.88372e-21)
(1.32831 -0.0140821 0)
(1.37216 -0.0124295 0)
(1.41255 -0.0108185 -3.78018e-21)
(1.44947 -0.00926584 0)
(1.48302 -0.00776807 0)
(1.5133 -0.00633705 3.66451e-21)
(1.54038 -0.00498061 3.6246e-21)
(1.56437 -0.00370474 0)
(1.58539 -0.00251508 -3.54404e-21)
(1.60358 -0.00141719 0)
(1.61909 -0.000416464 3.46351e-21)
(1.63209 0.000482577 0)
(1.64278 0.00127742 3.38386e-21)
(1.65134 0.00196775 3.34454e-21)
(1.65797 0.00255624 0)
(1.66288 0.00304896 0)
(1.66625 0.00345388 0)
(1.66827 0.00378146 0)
(1.66909 0.00404019 0)
(1.66888 0.00423508 0)
(1.66777 0.00437492 0)
(1.66587 0.00446546 3.0455e-21)
(1.66332 0.00450259 -3.01007e-21)
(1.66024 0.00448537 0)
(1.65673 0.00442007 0)
(1.65291 0.00431296 0)
(1.64886 0.00417074 0)
(1.64466 0.00400135 -5.67764e-21)
(1.64039 0.00381292 0)
(1.63611 0.0036126 5.54573e-21)
(1.63186 0.00340642 -5.48078e-21)
(1.62769 0.00319902 0)
(1.62363 0.00299385 0)
(1.6197 0.00279327 0)
(1.61593 0.00259903 5.22728e-21)
(1.61232 0.00241253 5.16539e-21)
(1.60889 0.00223503 0)
(1.60564 0.00206762 5.04327e-21)
(1.60256 0.00191113 4.98301e-21)
(1.59965 0.00176611 -4.92327e-21)
(1.59691 0.00163277 0)
(1.59431 0.001511 0)
(1.59185 0.00140047 -4.74701e-21)
(1.58951 0.00130069 0)
(1.58727 0.00121105 0)
(1.58513 0.00113097 0)
(1.58306 0.00105986 0)
(1.58105 0.000997156 4.46229e-21)
(1.57909 0.000942359 4.40661e-21)
(1.57717 0.000895012 0)
(1.57527 0.000854709 4.29643e-21)
(1.57339 0.000821129 0)
(1.5715 0.000794028 0)
(1.5696 0.000773334 4.13404e-21)
(1.56767 0.000759177 0)
(1.5657 0.000752041 4.02764e-21)
(1.56368 0.000752663 0)
(1.56156 0.000762428 0)
(1.55935 0.000782374 3.87082e-21)
(1.55698 0.000814278 0)
(1.55448 0.000858856 3.76817e-21)
(1.55169 0.000920746 0)
(1.54875 0.000999478 0)
(1.54528 0.00110837 0)
(1.54164 0.00123815 -3.56789e-21)
(1.53704 0.0014295 0)
(1.53229 0.00163471 3.47075e-21)
(1.5258 0.00198889 0)
(1.51913 0.00229396 0)
(1.50952 0.00301982 0)
(1.49905 0.00339692 0)
(1.48464 0.00511467 0)
(1.46492 0.00524367 0)
(1.44507 0.0100735 0)
(1.39732 0.00844946 -6.25087e-21)
(1.38013 0.0252257 0)
(1.23186 0.0183105 0)
(-0.00580083 0.0495664 -4.16711e-21)
(-0.00727662 -0.0271908 4.13989e-21)
(0.0131223 -0.101841 0)
(0.0481983 -0.158669 -2.71442e-21)
(0.094441 -0.195248 0)
(0.146754 -0.214068 -1.34305e-21)
(0.201369 -0.219655 2.64348e-21)
(0.255786 -0.216546 2.61241e-21)
(0.309061 -0.207968 0)
(0.360503 -0.195812 2.5373e-21)
(0.409433 -0.180923 1.25754e-21)
(0.455066 -0.163386 0)
(0.496362 -0.142846 0)
(0.531973 -0.118798 0)
(0.560258 -0.0907952 0)
(0.579519 -0.0586208 1.14285e-21)
(0.588007 -0.0223709 0)
(0.584213 0.017433 -2.17524e-21)
(0.566697 0.0598949 0)
(0.535691 0.10374 0)
(0.490524 0.147275 2.10065e-21)
(0.43107 0.18873 0)
(0.357987 0.226558 -2.08353e-21)
(0.272387 0.259451 1.05734e-21)
(0.176021 0.28613 -1.05547e-21)
(0.0712145 0.304642 1.05294e-21)
(-0.0392752 0.313237 1.04898e-21)
(-0.152357 0.310462 0)
(-0.264391 0.296788 0)
(-0.37422 0.27434 -1.02513e-21)
(-0.484339 0.247496 9.94364e-22)
(-0.604448 0.232454 0)
(-0.732928 0.233893 0)
(-0.86356 0.235512 -9.71452e-22)
(-0.989413 0.228754 0)
(-1.11046 0.220196 0)
(-1.22999 0.223 9.25911e-22)
(-1.35102 0.231744 0)
(-1.469 0.236717 -8.32005e-22)
(-1.58421 0.242364 1.74145e-21)
(-1.69985 0.24877 0)
(-1.81168 0.248853 0)
(-1.91949 0.241996 3.08117e-21)
(-2.02587 0.234269 2.98936e-21)
(-2.13148 0.22694 2.89808e-21)
(-2.22801 0.218584 -1.33675e-21)
(-2.31279 0.202304 1.43206e-21)
(-2.38076 0.176361 4.04508e-21)
(-2.42992 0.146062 -2.58554e-21)
(-2.46291 0.113304 -1.32513e-21)
(-2.48114 0.079894 0)
(-2.48612 0.0475827 1.27815e-21)
(-2.4785 0.0174042 -1.16522e-21)
(-2.45952 -0.0102296 0)
(-2.42995 -0.0351066 0)
(-2.39088 -0.057186 0)
(-2.34321 -0.07651 1.26188e-21)
(-2.28802 -0.0932211 0)
(-2.22609 -0.107472 -2.53455e-21)
(-2.1584 -0.119458 0)
(-2.08574 -0.129376 -2.63646e-21)
(-2.00889 -0.137431 0)
(-1.92852 -0.143822 2.75528e-21)
(-1.84527 -0.148741 0)
(-1.75973 -0.152369 -2.8825e-21)
(-1.67241 -0.154896 1.46224e-21)
(-1.58375 -0.15649 0)
(-1.49412 -0.157341 3.07505e-21)
(-1.40378 -0.157621 1.57737e-21)
(-1.31293 -0.157507 1.60736e-21)
(-1.22163 -0.157133 0)
(-1.12994 -0.156616 1.65113e-21)
(-1.03784 -0.156029 1.69329e-21)
(-0.945353 -0.155426 0)
(-0.852446 -0.154842 -1.74663e-21)
(-0.75908 -0.154306 3.53148e-21)
(-0.66518 -0.153859 0)
(-0.570651 -0.153491 1.82025e-21)
(-0.475417 -0.153157 0)
(-0.379488 -0.152738 -5.58311e-21)
(-0.282963 -0.152099 0)
(-0.186046 -0.151116 5.70526e-21)
(-0.0890233 -0.149709 1.9236e-21)
(0.00778421 -0.147846 -1.93088e-21)
(0.104065 -0.145566 -3.89344e-21)
(0.19956 -0.142938 3.92189e-21)
(0.29409 -0.140048 0)
(0.387518 -0.136974 0)
(0.479719 -0.133767 0)
(0.5706 -0.130452 -1.20369e-20)
(0.66007 -0.127028 -4.02801e-21)
(0.748023 -0.123475 4.03574e-21)
(0.834344 -0.119767 0)
(0.918898 -0.115881 4.03071e-21)
(1.00152 -0.111798 -4.0374e-21)
(1.08206 -0.107505 -4.03053e-21)
(1.1603 -0.102999 0)
(1.23606 -0.0982947 0)
(1.30916 -0.0934028 0)
(1.37943 -0.08836 -3.96615e-21)
(1.44672 -0.0831967 0)
(1.51091 -0.0779574 7.82337e-21)
(1.57192 -0.0726814 1.16467e-20)
(1.62968 -0.0674268 -7.69813e-21)
(1.68416 -0.0622321 0)
(1.73536 -0.0571526 -3.77678e-21)
(1.78328 -0.0522273 0)
(1.82804 -0.0474492 -7.40459e-21)
(1.86972 -0.042855 3.66172e-21)
(1.90838 -0.0384615 3.62201e-21)
(1.94413 -0.0342825 0)
(1.97707 -0.0303308 1.06294e-20)
(2.00732 -0.0266197 -7.00511e-21)
(2.03502 -0.0231626 -3.46322e-21)
(2.06032 -0.0199712 0)
(2.08337 -0.0170534 -3.38355e-21)
(2.10435 -0.0144113 -1.00315e-20)
(2.12344 -0.0120405 0)
(2.1408 -0.00992997 -6.53266e-21)
(2.1566 -0.00806384 -6.45663e-21)
(2.17102 -0.00642237 -6.38149e-21)
(2.18419 -0.00498517 0)
(2.19624 -0.00373383 0)
(2.20731 -0.00264899 0)
(2.21749 -0.00171393 3.04461e-21)
(2.22688 -0.000919088 3.00969e-21)
(2.23554 -0.000254883 0)
(2.24353 0.00029132 5.87971e-21)
(2.25092 0.000732313 5.81127e-21)
(2.25774 0.00107883 0)
(2.26405 0.00134061 5.67682e-21)
(2.26989 0.00152748 1.12206e-20)
(2.27532 0.00164924 -5.54489e-21)
(2.28036 0.00171578 -5.47967e-21)
(2.28508 0.00173633 0)
(2.2895 0.00171926 0)
(2.29365 0.00167206 0)
(2.29758 0.0016015 -5.22642e-21)
(2.30131 0.00151381 5.16443e-21)
(2.30486 0.00141476 1.02063e-20)
(2.30826 0.00130969 -5.04241e-21)
(2.31152 0.00120339 4.98211e-21)
(2.31466 0.0011 4.92242e-21)
(2.31768 0.00100285 0)
(2.32058 0.000914372 0)
(2.32338 0.000836111 -4.74614e-21)
(2.32606 0.000768776 0)
(2.32862 0.000712474 0)
(2.33106 0.000666705 9.1481e-21)
(2.33338 0.000630845 0)
(2.33556 0.000604235 4.46145e-21)
(2.33762 0.000586253 -4.4058e-21)
(2.33953 0.00057635 0)
(2.34131 0.000574162 4.2956e-21)
(2.34293 0.000579587 0)
(2.34442 0.00059289 0)
(2.34574 0.000614598 -4.13325e-21)
(2.34692 0.000645506 8.1597e-21)
(2.34793 0.000687026 -4.02687e-21)
(2.34877 0.000740362 0)
(2.34943 0.000808272 0)
(2.3499 0.00089152 3.86997e-21)
(2.35015 0.000997582 0)
(2.3502 0.0011247 3.76729e-21)
(2.34996 0.00129269 0)
(2.34948 0.00148673 0)
(2.3486 0.00176155 0)
(2.34741 0.00205509 3.56718e-21)
(2.34563 0.00252724 0)
(2.34338 0.00296149 -3.47005e-21)
(2.34028 0.00383175 0)
(2.3363 0.00443469 0)
(2.33126 0.00618632 6.65815e-21)
(2.32395 0.00688921 -6.56814e-21)
(2.31626 0.0107918 0)
(2.30157 0.0111874 0)
(2.2912 0.0209268 0)
(2.25785 0.0199282 1.87321e-20)
(2.24912 0.0479221 0)
(2.16758 0.0463839 -1.22081e-20)
(0.00220589 0.0505674 9.4216e-24)
(0.00819788 -0.0499105 -5.50639e-21)
(0.0303738 -0.150283 0)
(0.0608103 -0.228259 5.41987e-21)
(0.0960152 -0.2779 0)
(0.131434 -0.301789 0)
(0.166066 -0.307672 -2.14061e-23)
(0.199924 -0.302499 -2.61416e-21)
(0.233559 -0.290895 -2.55272e-21)
(0.267151 -0.27515 -2.53898e-21)
(0.300386 -0.255727 0)
(0.33241 -0.231984 0)
(0.361828 -0.202777 2.36657e-21)
(0.386891 -0.167001 4.62914e-21)
(0.405548 -0.123888 -4.52572e-21)
(0.41579 -0.0732922 0)
(0.415492 -0.0157004 -4.33456e-21)
(0.403029 0.0476175 2.17655e-21)
(0.37681 0.114912 0)
(0.336458 0.183942 -4.13597e-21)
(0.281538 0.252201 -2.10193e-21)
(0.212665 0.316891 4.08083e-21)
(0.131578 0.375267 2.08485e-21)
(0.0409644 0.424789 0)
(-0.0567623 0.463418 -4.07341e-21)
(-0.159434 0.489162 -4.07436e-21)
(-0.265048 0.500414 0)
(-0.372142 0.496066 -4.05812e-21)
(-0.479758 0.476084 0)
(-0.589254 0.446733 -3.99925e-21)
(-0.708312 0.43376 -2.00915e-21)
(-0.836581 0.436861 0)
(-0.964403 0.435686 0)
(-1.09014 0.429547 0)
(-1.21576 0.426307 0)
(-1.34279 0.427921 0)
(-1.46715 0.429129 0)
(-1.58901 0.42955 -3.39228e-21)
(-1.70905 0.432019 5.0162e-21)
(-1.82462 0.432062 0)
(-1.93554 0.428045 0)
(-2.04526 0.42277 0)
(-2.15234 0.415412 -1.92491e-22)
(-2.25151 0.402081 -2.99143e-21)
(-2.33812 0.375553 -5.60359e-21)
(-2.40564 0.33626 5.42924e-21)
(-2.45599 0.289463 2.53707e-21)
(-2.49101 0.238655 -2.65449e-21)
(-2.51219 0.186698 1.81236e-22)
(-2.52079 0.134798 -2.35695e-21)
(-2.51791 0.0842496 0)
(-2.50458 0.0361472 -2.29756e-21)
(-2.48152 -0.00863964 1.41712e-22)
(-2.4495 -0.0496179 0)
(-2.40919 -0.0865243 0)
(-2.3613 -0.119291 2.32889e-21)
(-2.30655 -0.14798 0)
(-2.24566 -0.172754 0)
(-2.17931 -0.193835 -2.38119e-21)
(-2.10821 -0.211498 -5.02885e-21)
(-2.033 -0.226043 2.63658e-21)
(-1.95429 -0.237768 0)
(-1.87266 -0.24696 -2.75531e-21)
(-1.78864 -0.253913 0)
(-1.70273 -0.258894 -2.80406e-21)
(-1.61539 -0.262169 -2.94703e-21)
(-1.52703 -0.264014 5.95844e-21)
(-1.438 -0.264726 3.01601e-21)
(-1.34853 -0.264606 0)
(-1.25875 -0.263954 -6.34599e-21)
(-1.16871 -0.263008 0)
(-1.0784 -0.261938 -9.90269e-21)
(-0.987755 -0.26084 -6.70078e-21)
(-0.896756 -0.25976 -6.81144e-21)
(-0.805372 -0.258743 6.91819e-21)
(-0.713569 -0.257839 -1.05524e-20)
(-0.621258 -0.257116 0)
(-0.528274 -0.256587 0)
(-0.434447 -0.25618 7.30809e-21)
(-0.339705 -0.255672 1.11153e-20)
(-0.244115 -0.254793 0)
(-0.147913 -0.253286 -3.79988e-21)
(-0.0514577 -0.251001 0)
(0.0448406 -0.247896 1.15814e-20)
(0.140576 -0.244045 3.06773e-23)
(0.235429 -0.2396 -2.90779e-23)
(0.329194 -0.234739 -7.88279e-21)
(0.42174 -0.229609 0)
(0.512986 -0.224308 7.96529e-21)
(0.602873 -0.218866 2.30345e-23)
(0.691341 -0.21327 0)
(0.778309 -0.207484 0)
(0.863671 -0.201449 0)
(0.947299 -0.195126 -8.07101e-21)
(1.02903 -0.188469 0)
(1.10871 -0.181463 0)
(1.18614 -0.174109 0)
(1.26111 -0.166418 0)
(1.33344 -0.158428 0)
(1.40297 -0.150181 -7.91789e-21)
(1.46954 -0.14175 0)
(1.53304 -0.133197 -7.82317e-21)
(1.5934 -0.124604 -7.76291e-21)
(1.65055 -0.116059 7.69793e-21)
(1.7045 -0.107637 0)
(1.75527 -0.0994308 7.55655e-21)
(1.80294 -0.0914532 0)
(1.84761 -0.0837431 7.40438e-21)
(1.88937 -0.0763449 -7.32579e-21)
(1.92832 -0.0692811 -2.17304e-20)
(1.96455 -0.0625704 0)
(1.99816 -0.056231 -2.12497e-20)
(2.02928 -0.0502831 -6.99893e-21)
(2.05803 -0.0447481 0)
(2.08454 -0.0396454 -1.3685e-20)
(2.10898 -0.0349876 -1.35271e-20)
(2.13149 -0.0307776 2.00577e-20)
(2.15225 -0.0270068 0)
(2.17144 -0.0236558 6.53256e-21)
(2.18921 -0.0206974 6.45653e-21)
(2.20572 -0.0180993 1.91416e-20)
(2.22112 -0.0158261 0)
(2.23551 -0.0138429 0)
(2.24902 -0.0121174 0)
(2.26172 -0.0106204 6.088e-21)
(2.27372 -0.00932423 0)
(2.28507 -0.00820523 0)
(2.29583 -0.00724329 -5.8796e-21)
(2.30608 -0.00641957 -5.81115e-21)
(2.31584 -0.00571822 0)
(2.32516 -0.00512589 0)
(2.33407 -0.00463062 -1.12204e-20)
(2.3426 -0.00422075 0)
(2.35077 -0.0038857 1.09593e-20)
(2.3586 -0.00361575 1.08303e-20)
(2.36612 -0.00340215 0)
(2.37335 -0.00323681 0)
(2.3803 -0.00311213 -1.04522e-20)
(2.387 -0.00302068 -2.1526e-25)
(2.39347 -0.00295509 -1.8146e-25)
(2.39972 -0.00290801 0)
(2.40578 -0.00287228 -1.99277e-20)
(2.41166 -0.00284133 0)
(2.41737 -0.00280957 0)
(2.42292 -0.00277244 0)
(2.42831 -0.00272654 9.49194e-21)
(2.43355 -0.0026696 0)
(2.43864 -0.00260052 -1.8523e-20)
(2.44358 -0.00251896 -9.14772e-21)
(2.44835 -0.0024253 0)
(2.45296 -0.00232048 -8.92254e-21)
(2.45741 -0.0022056 0)
(2.46169 -0.00208178 0)
(2.46579 -0.00194995 -2.57724e-20)
(2.46971 -0.00181062 1.69635e-20)
(2.47345 -0.00166395 0)
(2.47701 -0.00150923 1.6532e-20)
(2.48037 -0.0013457 -8.15929e-21)
(2.48355 -0.00117095 0)
(2.48653 -0.00098386 0)
(2.4893 -0.000779135 0)
(2.49187 -0.000557195 -2.32186e-20)
(2.49421 -0.000305152 0)
(2.49632 -2.90714e-05 -7.53431e-21)
(2.49818 0.000303496 0)
(2.49974 0.000665254 0)
(2.50102 0.00114091 0)
(2.5019 0.001636 0)
(2.50246 0.00237856 0)
(2.50238 0.00307328 0)
(2.502 0.00434346 -1.36854e-20)
(2.50047 0.00531588 0)
(2.49883 0.00770213 -6.65773e-21)
(2.49483 0.00901516 1.96982e-20)
(2.49149 0.0139448 0)
(2.48291 0.0156445 0)
(2.47749 0.0268708 -1.2619e-20)
(2.46014 0.0295416 -1.24818e-20)
(2.45342 0.0576377 1.23125e-20)
(2.4224 0.0658547 1.22075e-20)
(0.00374462 0.0320097 8.28996e-21)
(0.0151813 -0.08615 8.23548e-21)
(0.0442747 -0.206302 5.43841e-21)
(0.0740805 -0.291018 2.68164e-21)
(0.0989912 -0.337766 0)
(0.118635 -0.356073 -5.27125e-21)
(0.135963 -0.35777 2.57893e-21)
(0.153521 -0.35124 0)
(0.172961 -0.340643 2.55451e-21)
(0.194538 -0.326688 0)
(0.217432 -0.307982 -4.86178e-21)
(0.240017 -0.282326 0)
(0.260268 -0.247614 -2.36829e-21)
(0.27593 -0.202196 -4.6325e-21)
(0.284712 -0.14513 4.52899e-21)
(0.284632 -0.076308 0)
(0.273708 0.00342895 4.33758e-21)
(0.250825 0.0919472 0)
(0.214433 0.186305 0)
(0.164767 0.282189 4.13886e-21)
(0.101787 0.375098 0)
(0.0262095 0.460639 -1.2256e-22)
(-0.0601132 0.535101 0)
(-0.154552 0.595687 0)
(-0.254448 0.640819 1.10248e-22)
(-0.357814 0.669787 4.07715e-21)
(-0.46291 0.682273 3.96696e-21)
(-0.568961 0.678645 4.06083e-21)
(-0.677088 0.664655 0)
(-0.794868 0.656875 7.89547e-21)
(-0.921259 0.657805 0)
(-1.0471 0.654534 3.77856e-21)
(-1.17209 0.647769 0)
(-1.29778 0.640801 0)
(-1.42445 0.634979 -3.53143e-21)
(-1.54959 0.627303 0)
(-1.67238 0.620786 3.32875e-21)
(-1.79288 0.618699 1.7591e-22)
(-1.90726 0.612861 -6.40062e-21)
(-2.01738 0.602732 5.98218e-21)
(-2.12447 0.595738 0)
(-2.22404 0.586484 0)
(-2.30951 0.560237 2.42972e-21)
(-2.3763 0.515571 0)
(-2.42609 0.459319 2.70526e-21)
(-2.46084 0.396115 -2.61808e-21)
(-2.48274 0.328843 -2.53832e-21)
(-2.49288 0.259814 0)
(-2.49255 0.191006 2.40649e-21)
(-2.48251 0.123776 2.35755e-21)
(-2.4636 0.0592729 -4.24492e-21)
(-2.43639 -0.00154537 2.29783e-21)
(-2.40139 -0.0579596 2.28733e-21)
(-2.35911 -0.10951 0)
(-2.3101 -0.155907 0)
(-2.25499 -0.19708 -2.32871e-21)
(-2.19442 -0.233096 0)
(-2.12904 -0.264132 0)
(-2.05946 -0.290491 4.91529e-21)
(-1.98626 -0.312523 5.02809e-21)
(-1.90996 -0.33059 0)
(-1.83103 -0.345063 0)
(-1.74988 -0.356301 0)
(-1.66692 -0.364651 0)
(-1.58253 -0.370449 5.68565e-21)
(-1.49711 -0.374011 -5.73132e-21)
(-1.41104 -0.375707 -5.95758e-21)
(-1.32466 -0.375921 -1.21037e-20)
(-1.23822 -0.375092 0)
(-1.15178 -0.373648 6.72781e-23)
(-1.06528 -0.371952 0)
(-0.978589 -0.37023 6.58563e-21)
(-0.891547 -0.368584 5.98592e-23)
(-0.804061 -0.367023 6.81089e-21)
(-0.716121 -0.365559 -6.91767e-21)
(-0.627738 -0.364271 5.64739e-23)