/*--------------------------------*- C++ -*----------------------------------*\
  =========                 |
  \\      /  F ield         | OpenFOAM: The Open Source CFD Toolbox
   \\    /   O peration     | Website:  https://openfoam.org
    \\  /    A nd           | Version:  7
     \\/     M anipulation  |
\*---------------------------------------------------------------------------*/
FoamFile
{
    version     2.0;
    format      ascii;
    class       volSymmTensorField;
    location    "0.064";
    object      UPrime2Mean;
}
// * * * * * * * * * * * * * * * * * * * * * * * * * * * * * * * * * * * * * //

dimensions      [0 2 -2 0 0 0 0];

internalField   nonuniform List<symmTensor> 
12225
(
(0.00454111 -0.00017198 0 0.000519829 0 0)
(0.0316482 -0.00139464 0 0.000248329 0 0)
(0.0460339 -0.00206348 0 0.000226664 0 0)
(0.0616013 -0.00254456 0 0.000213865 0 0)
(0.0884513 -0.00318023 0 0.000207995 0 0)
(0.12823 -0.00399176 0 0.000206339 0 0)
(0.181137 -0.004963 0 0.000217163 0 0)
(0.247424 -0.00570713 0 0.000200076 0 0)
(0.327092 -0.00688161 0 0.000216076 0 0)
(0.419381 -0.00661013 0 0.000165061 0 0)
(0.525953 -0.00882014 0 0.000199013 0 0)
(0.639074 -0.00567133 0 0.00011179 0 0)
(0.775905 -0.0133009 0 0.000289396 0 0)
(0.907693 -0.00120973 0 0.000204867 0 0)
(1.10445 -0.0311762 0 0.00140379 0 0)
(1.29504 0.0149017 0 0.00170177 0 0)
(1.67174 -0.118925 0 0.0161669 0 0)
(2.262 0.0459947 0 0.00795007 0 0)
(0.00426318 5.12295e-05 0 0.000647104 0 0)
(0.0213277 -0.000654718 0 0.000235683 0 0)
(0.0233662 -0.00110399 0 0.000291703 0 0)
(0.0240366 -0.00138577 0 0.00039924 0 0)
(0.0284201 -0.00195032 0 0.000532387 0 0)
(0.0363122 -0.00297872 0 0.000705297 0 0)
(0.0483686 -0.00442693 0 0.000884542 0 0)
(0.066497 -0.00647768 0 0.00113275 0 0)
(0.0911401 -0.00866432 0 0.00127881 0 0)
(0.12678 -0.0119691 0 0.0015862 0 0)
(0.170739 -0.0143655 0 0.00158613 0 0)
(0.233515 -0.0198663 0 0.00204789 0 0)
(0.303293 -0.021479 0 0.00184374 0 0)
(0.409327 -0.0332877 0 0.00301311 0 0)
(0.516082 -0.033553 0 0.00267536 0 0)
(0.71298 -0.068211 0 0.00758516 0 0)
(0.892144 -0.0820021 0 0.00837567 0 0)
(1.29559 -0.23354 0 0.0550031 0 0)
(0.00389728 9.18082e-05 0 0.000878948 0 0)
(0.0208299 -0.00103011 0 0.000449139 0 0)
(0.0219931 -0.00158837 0 0.00053374 0 0)
(0.0213204 -0.00173231 0 0.000687987 0 0)
(0.0230847 -0.00202909 0 0.000886536 0 0)
(0.0259689 -0.00263309 0 0.00113837 0 0)
(0.029787 -0.00355306 0 0.00150337 0 0)
(0.0347724 -0.00470042 0 0.00184844 0 0)
(0.0415525 -0.00632736 0 0.00237726 0 0)
(0.0506378 -0.00803423 0 0.0027157 0 0)
(0.0636724 -0.0109884 0 0.00343175 0 0)
(0.0810695 -0.0134145 0 0.00363939 0 0)
(0.106504 -0.0194842 0 0.00496558 0 0)
(0.14022 -0.023192 0 0.0050697 0 0)
(0.190711 -0.0391127 0 0.0091755 0 0)
(0.258809 -0.0493214 0 0.0102805 0 0)
(0.356659 -0.101419 0 0.030424 0 0)
(0.482164 -0.169572 0 0.0632061 0 0)
(0.00406956 -0.000245693 0 0.000987088 0 0)
(0.0208642 -0.00129651 0 0.000526352 0 0)
(0.0218816 -0.00176389 0 0.000603109 0 0)
(0.0210987 -0.0019375 0 0.00081045 0 0)
(0.0225644 -0.00224611 0 0.00105414 0 0)
(0.0249159 -0.00284598 0 0.00137086 0 0)
(0.0278421 -0.00369407 0 0.00175869 0 0)
(0.0314703 -0.00478258 0 0.00227788 0 0)
(0.0359312 -0.00604335 0 0.00280984 0 0)
(0.0418265 -0.00775748 0 0.00353133 0 0)
(0.0495106 -0.00978034 0 0.00420041 0 0)
(0.0603095 -0.0129865 0 0.00528633 0 0)
(0.0748228 -0.0169395 0 0.00637699 0 0)
(0.0959136 -0.0241485 0 0.00870177 0 0)
(0.124741 -0.0342866 0 0.0119301 0 0)
(0.165458 -0.0539565 0 0.0199582 0 0)
(0.218215 -0.0882864 0 0.0374571 0 0)
(0.271782 -0.142603 0 0.0764995 0 0)
(0.0042932 -0.000246035 0 0.00115094 0 0)
(0.0203982 -0.0015253 0 0.000692759 0 0)
(0.0211513 -0.00199468 0 0.000773132 0 0)
(0.0204048 -0.00216837 0 0.00103013 0 0)
(0.0219087 -0.00248974 0 0.00133696 0 0)
(0.0241875 -0.00311884 0 0.00170389 0 0)
(0.0269502 -0.0040415 0 0.00219988 0 0)
(0.0303079 -0.00520093 0 0.00277749 0 0)
(0.0344514 -0.00667518 0 0.00353876 0 0)
(0.0397274 -0.00844377 0 0.00435089 0 0)
(0.0466404 -0.0109595 0 0.00547511 0 0)
(0.0558536 -0.014179 0 0.00674144 0 0)
(0.0682959 -0.0192648 0 0.00883636 0 0)
(0.0852191 -0.0263573 0 0.0116749 0 0)
(0.107911 -0.0383786 0 0.0172521 0 0)
(0.137048 -0.057062 0 0.0272329 0 0)
(0.17085 -0.0872254 0 0.0474524 0 0)
(0.198701 -0.132675 0 0.0923061 0 0)
(0.00429344 -0.000344181 0 0.00123952 0 0)
(0.0202959 -0.00178098 0 0.000847114 0 0)
(0.0206852 -0.00214563 0 0.000968485 0 0)
(0.0197949 -0.00226404 0 0.0013118 0 0)
(0.0211324 -0.00258936 0 0.00171242 0 0)
(0.023166 -0.00324455 0 0.00218024 0 0)
(0.0256492 -0.00419901 0 0.00275643 0 0)
(0.0287061 -0.00543414 0 0.00348497 0 0)
(0.0324933 -0.00698868 0 0.00436892 0 0)
(0.0372898 -0.00900186 0 0.00546923 0 0)
(0.0435261 -0.0117033 0 0.00684627 0 0)
(0.051679 -0.0154705 0 0.00870839 0 0)
(0.0625023 -0.0208789 0 0.011366 0 0)
(0.0765483 -0.0288267 0 0.0154828 0 0)
(0.0946386 -0.0409275 0 0.022429 0 0)
(0.115661 -0.0588613 0 0.0345803 0 0)
(0.137896 -0.0853233 0 0.0570427 0 0)
(0.153177 -0.119004 0 0.0963194 0 0)
(0.00391137 -0.00033528 0 0.00146862 0 0)
(0.0199017 -0.00196057 0 0.0011528 0 0)
(0.0202265 -0.0023512 0 0.00123661 0 0)
(0.0192975 -0.00250888 0 0.00159998 0 0)
(0.0205913 -0.00288451 0 0.00206768 0 0)
(0.0225227 -0.00360787 0 0.00261547 0 0)
(0.0248298 -0.00465415 0 0.00329956 0 0)
(0.027628 -0.00599643 0 0.00415609 0 0)
(0.0310684 -0.00769248 0 0.00524185 0 0)
(0.035391 -0.0098702 0 0.00660401 0 0)
(0.0409438 -0.0128043 0 0.00836243 0 0)
(0.0480659 -0.0168532 0 0.0107493 0 0)
(0.0572221 -0.0225727 0 0.0141606 0 0)
(0.068587 -0.0307609 0 0.0193997 0 0)
(0.0823391 -0.0424571 0 0.0276689 0 0)
(0.0970172 -0.0589085 0 0.0415425 0 0)
(0.110954 -0.0805691 0 0.0638654 0 0)
(0.118351 -0.105865 0 0.0997011 0 0)
(0.00385573 -0.000333796 0 0.00138011 0 0)
(0.0195484 -0.00216395 0 0.00117708 0 0)
(0.0198685 -0.00248998 0 0.00142019 0 0)
(0.0189129 -0.00258214 0 0.00187883 0 0)
(0.0200943 -0.00297129 0 0.00244597 0 0)
(0.0218261 -0.00373055 0 0.00310865 0 0)
(0.0238541 -0.00480162 0 0.00392078 0 0)
(0.0263011 -0.0061795 0 0.00494803 0 0)
(0.0293076 -0.00794296 0 0.00625138 0 0)
(0.0330633 -0.0102397 0 0.00791585 0 0)
(0.0378177 -0.0133182 0 0.0100854 0 0)
(0.043768 -0.0175071 0 0.0130394 0 0)
(0.0511473 -0.0232778 0 0.0172199 0 0)
(0.0598843 -0.0312238 0 0.0234366 0 0)
(0.0697889 -0.0420335 0 0.0328474 0 0)
(0.0794776 -0.0562097 0 0.0474788 0 0)
(0.0875323 -0.0734968 0 0.0693465 0 0)
(0.0903181 -0.0921121 0 0.101482 0 0)
(0.00438708 -0.000525426 0 0.00147938 0 0)
(0.0196773 -0.00264403 0 0.00139715 0 0)
(0.0195075 -0.00294075 0 0.00169507 0 0)
(0.0184794 -0.00295398 0 0.00221097 0 0)
(0.0197035 -0.00333492 0 0.0028781 0 0)
(0.0213743 -0.0041394 0 0.00367121 0 0)
(0.0232017 -0.00527801 0 0.00463715 0 0)
(0.0253333 -0.0067256 0 0.00585155 0 0)
(0.0279109 -0.00855301 0 0.007395 0 0)
(0.0310843 -0.010906 0 0.009381 0 0)
(0.0350213 -0.0140142 0 0.0119737 0 0)
(0.0398177 -0.0181731 0 0.0154925 0 0)
(0.0455352 -0.023743 0 0.0203783 0 0)
(0.0519436 -0.0311254 0 0.0274226 0 0)
(0.0586894 -0.0406597 0 0.0375922 0 0)
(0.064585 -0.0523986 0 0.0524756 0 0)
(0.0686597 -0.0657479 0 0.0733139 0 0)
(0.0686544 -0.0790409 0 0.10178 0 0)
(0.00410527 -0.000532851 0 0.00167649 0 0)
(0.0195274 -0.00273182 0 0.00152798 0 0)
(0.0193574 -0.00299418 0 0.00186827 0 0)
(0.0182567 -0.00295119 0 0.00244008 0 0)
(0.0193191 -0.0033039 0 0.00318161 0 0)
(0.0207736 -0.00409872 0 0.00407966 0 0)
(0.022339 -0.00522562 0 0.00518024 0 0)
(0.0241351 -0.00665731 0 0.0065674 0 0)
(0.0262746 -0.00847016 0 0.0083413 0 0)
(0.0288728 -0.0108032 0 0.0106375 0 0)
(0.0320311 -0.013847 0 0.0136361 0 0)
(0.0357484 -0.017823 0 0.0176601 0 0)
(0.0399608 -0.0229778 0 0.0231376 0 0)
(0.0443581 -0.0295252 0 0.030777 0 0)
(0.0485611 -0.037562 0 0.041346 0 0)
(0.0516424 -0.0468716 0 0.0560184 0 0)
(0.0530524 -0.0567814 0 0.0754571 0 0)
(0.051388 -0.0659134 0 0.100636 0 0)
(0.00403894 -0.000655111 0 0.00193977 0 0)
(0.0192888 -0.00309737 0 0.00186697 0 0)
(0.0186868 -0.0033869 0 0.00222478 0 0)
(0.0172923 -0.00325685 0 0.00286414 0 0)
(0.0181725 -0.003561 0 0.00370778 0 0)
(0.0194693 -0.00433799 0 0.00474436 0 0)
(0.0208505 -0.00544147 0 0.00601253 0 0)
(0.0224066 -0.00682674 0 0.00759868 0 0)
(0.0242125 -0.00855956 0 0.00960859 0 0)
(0.0263238 -0.0107658 0 0.0121994 0 0)
(0.028775 -0.0136042 0 0.0155662 0 0)
(0.0315105 -0.0172302 0 0.0200217 0 0)
(0.0344189 -0.021787 0 0.0259483 0 0)
(0.0371943 -0.0273375 0 0.0339423 0 0)
(0.0395225 -0.033825 0 0.0445728 0 0)
(0.0407274 -0.040899 0 0.0586681 0 0)
(0.0405763 -0.0479529 0 0.076504 0 0)
(0.0381772 -0.0538911 0 0.0986502 0 0)
(0.00395619 -0.000556499 0 0.00198169 0 0)
(0.0192669 -0.00312326 0 0.00197054 0 0)
(0.0187304 -0.00349037 0 0.00234674 0 0)
(0.0173186 -0.00334604 0 0.00303509 0 0)
(0.018064 -0.00363351 0 0.00395821 0 0)
(0.0191432 -0.00440685 0 0.00511419 0 0)
(0.0202677 -0.005495 0 0.00653339 0 0)
(0.0215254 -0.0068366 0 0.00829156 0 0)
(0.0229584 -0.0084882 0 0.010509 0 0)
(0.024583 -0.0105557 0 0.013351 0 0)
(0.0263876 -0.0131603 0 0.0170111 0 0)
(0.0282748 -0.0163945 0 0.0217814 0 0)
(0.0301114 -0.02032 0 0.0279891 0 0)
(0.0316419 -0.0248996 0 0.0361252 0 0)
(0.0326428 -0.029991 0 0.046585 0 0)
(0.0326616 -0.0352112 0 0.0599543 0 0)
(0.03166 -0.0400499 0 0.0762648 0 0)
(0.0290342 -0.0436583 0 0.0958968 0 0)
(0.00393715 -0.000758066 0 0.00229068 0 0)
(0.0191591 -0.00329768 0 0.00235347 0 0)
(0.018473 -0.00356455 0 0.00270464 0 0)
(0.0169553 -0.00331407 0 0.00342389 0 0)
(0.0175728 -0.00351922 0 0.00441205 0 0)
(0.0184881 -0.00422482 0 0.00566361 0 0)
(0.0194061 -0.00524022 0 0.00721116 0 0)
(0.0203997 -0.0064789 0 0.00913099 0 0)
(0.0214864 -0.0079758 0 0.0115371 0 0)
(0.022663 -0.00981427 0 0.014585 0 0)
(0.0239004 -0.0120784 0 0.0184592 0 0)
(0.025102 -0.0148126 0 0.0234231 0 0)
(0.0261348 -0.0180165 0 0.0297461 0 0)
(0.0267934 -0.0215988 0 0.0378208 0 0)
(0.0269165 -0.0253746 0 0.0479026 0 0)
(0.0262272 -0.0289893 0 0.0604085 0 0)
(0.0247827 -0.0320111 0 0.0752231 0 0)
(0.0222102 -0.0338281 0 0.092627 0 0)
(0.00401393 -0.00075128 0 0.00273682 0 0)
(0.0190165 -0.00342039 0 0.00282167 0 0)
(0.0181586 -0.00359914 0 0.00319832 0 0)
(0.0165489 -0.00321108 0 0.00396535 0 0)
(0.0170129 -0.00328432 0 0.00502774 0 0)
(0.017689 -0.00387129 0 0.00637957 0 0)
(0.0182955 -0.00475168 0 0.00804996 0 0)
(0.0189049 -0.00580162 0 0.0101144 0 0)
(0.0195258 -0.00702536 0 0.0126807 0 0)
(0.020152 -0.00848356 0 0.0158991 0 0)
(0.0207639 -0.0102395 0 0.0199333 0 0)
(0.021287 -0.0122998 0 0.0250063 0 0)
(0.021614 -0.0146173 0 0.0313201 0 0)
(0.0215919 -0.0170492 0 0.0391644 0 0)
(0.0211193 -0.0194058 0 0.0486684 0 0)
(0.0200442 -0.0213636 0 0.0601108 0 0)
(0.0185019 -0.0226258 0 0.0732686 0 0)
(0.0162388 -0.0227295 0 0.0883712 0 0)
(0.00405921 -0.00055505 0 0.00274138 0 0)
(0.0188557 -0.00373431 0 0.00308542 0 0)
(0.0178193 -0.00400401 0 0.00361038 0 0)
(0.0160666 -0.00360645 0 0.00449191 0 0)
(0.016422 -0.00361805 0 0.00564963 0 0)
(0.0169571 -0.00409907 0 0.00709353 0 0)
(0.0173627 -0.00483172 0 0.00887248 0 0)
(0.0177001 -0.00568574 0 0.0110632 0 0)
(0.0179805 -0.00664937 0 0.0137568 0 0)
(0.018206 -0.00775387 0 0.0170746 0 0)
(0.01836 -0.0090213 0 0.0211492 0 0)
(0.0183831 -0.0104136 0 0.026157 0 0)
(0.0181975 -0.0118523 0 0.0322314 0 0)
(0.017719 -0.0131779 0 0.0395695 0 0)
(0.0169234 -0.0142332 0 0.0481942 0 0)
(0.0157618 -0.0147526 0 0.0582908 0 0)
(0.0144074 -0.014572 0 0.069581 0 0)
(0.0126899 -0.0133417 0 0.0822811 0 0)
(0.00430432 -0.000553548 0 0.00295277 0 0)
(0.0189228 -0.00377047 0 0.00303534 0 0)
(0.0176253 -0.00405732 0 0.00352448 0 0)
(0.0156216 -0.00355646 0 0.004474 0 0)
(0.0156964 -0.00345346 0 0.00571062 0 0)
(0.0159425 -0.00382069 0 0.00723677 0 0)
(0.0161049 -0.00440052 0 0.00909547 0 0)
(0.0162426 -0.00501992 0 0.0113536 0 0)
(0.0163102 -0.00563805 0 0.0140879 0 0)
(0.0162528 -0.00627133 0 0.017396 0 0)
(0.0160451 -0.00693185 0 0.0213737 0 0)
(0.0156692 -0.00756936 0 0.026145 0 0)
(0.0151184 -0.00809972 0 0.0317785 0 0)
(0.0143937 -0.0083708 0 0.0383951 0 0)
(0.013529 -0.00826715 0 0.0459483 0 0)
(0.0125481 -0.00758336 0 0.0545589 0 0)
(0.0116059 -0.00626237 0 0.0639433 0 0)
(0.0105853 -0.00403993 0 0.0743176 0 0)
(0.00413597 -0.000541618 0 0.00305162 0 0)
(0.019101 -0.0038951 0 0.00316141 0 0)
(0.0175774 -0.00428131 0 0.00373248 0 0)
(0.0153152 -0.00373686 0 0.00476458 0 0)
(0.0152062 -0.00352669 0 0.00604427 0 0)
(0.015274 -0.0037592 0 0.00759585 0 0)
(0.0152206 -0.00415484 0 0.00945296 0 0)
(0.0151125 -0.00450704 0 0.0116589 0 0)
(0.0149354 -0.00475389 0 0.0142738 0 0)
(0.0146656 -0.00490682 0 0.0173739 0 0)
(0.0142954 -0.00498095 0 0.0210194 0 0)
(0.0138268 -0.00493446 0 0.0252866 0 0)
(0.0132685 -0.00469613 0 0.0301921 0 0)
(0.0126547 -0.00413955 0 0.035802 0 0)
(0.0120314 -0.00318417 0 0.042031 0 0)
(0.0114623 -0.00168336 0 0.0489678 0 0)
(0.0110687 0.000360568 0 0.0563398 0 0)
(0.0107922 0.00314003 0 0.0643718 0 0)
(0.00400588 -0.000535379 0 0.00316143 0 0)
(0.0189642 -0.00404805 0 0.00346454 0 0)
(0.0174616 -0.0043652 0 0.00381052 0 0)
(0.0150819 -0.00382588 0 0.00463511 0 0)
(0.0147206 -0.00361203 0 0.0057727 0 0)
(0.0144575 -0.00370876 0 0.00717979 0 0)
(0.0140812 -0.00383879 0 0.00885695 0 0)
(0.0137145 -0.00384418 0 0.0108275 0 0)
(0.0133667 -0.00368993 0 0.0131262 0 0)
(0.0130208 -0.00338416 0 0.0157986 0 0)
(0.0126688 -0.0029241 0 0.0188737 0 0)
(0.0123147 -0.00226679 0 0.0223905 0 0)
(0.0119726 -0.00135487 0 0.0263396 0 0)
(0.0116912 -0.00010703 0 0.0307552 0 0)
(0.0115218 0.0015202 0 0.0355509 0 0)
(0.0115404 0.00360585 0 0.0407974 0 0)
(0.0118355 0.00612782 0 0.0462734 0 0)
(0.0123823 0.0091921 0 0.0521693 0 0)
(0.00406382 -0.000290803 0 0.00303765 0 0)
(0.0191293 -0.0037028 0 0.00317884 0 0)
(0.0171615 -0.00389137 0 0.00341188 0 0)
(0.0145204 -0.00310083 0 0.00413708 0 0)
(0.0140535 -0.00256803 0 0.00511225 0 0)
(0.0136678 -0.00234354 0 0.0062844 0 0)
(0.013195 -0.00216405 0 0.0076631 0 0)
(0.012814 -0.00185385 0 0.00926482 0 0)
(0.0125449 -0.00134802 0 0.0110974 0 0)
(0.0123654 -0.000635647 0 0.0131696 0 0)
(0.012269 0.000283786 0 0.0154822 0 0)
(0.012271 0.00143088 0 0.0180521 0 0)
(0.0124008 0.00283014 0 0.0208634 0 0)
(0.0127185 0.00452341 0 0.0239352 0 0)
(0.0132701 0.00651834 0 0.0271986 0 0)
(0.0141242 0.00885897 0 0.0307082 0 0)
(0.0153309 0.011504 0 0.0343051 0 0)
(0.0168832 0.0145299 0 0.0381358 0 0)
(0.00445083 -0.000621514 0 0.00349851 0 0)
(0.0185998 -0.00343913 0 0.0033801 0 0)
(0.0163742 -0.00338398 0 0.00340073 0 0)
(0.01372 -0.00256949 0 0.00393728 0 0)
(0.0131485 -0.00197089 0 0.00466565 0 0)
(0.0126967 -0.00162306 0 0.00552794 0 0)
(0.0122257 -0.00131119 0 0.00653843 0 0)
(0.0118922 -0.000873248 0 0.00770283 0 0)
(0.0117053 -0.000235144 0 0.00901936 0 0)
(0.0116546 0.000621275 0 0.0104929 0 0)
(0.0117568 0.00169181 0 0.0121219 0 0)
(0.0120478 0.0029765 0 0.0139092 0 0)
(0.0125635 0.00447572 0 0.0158363 0 0)
(0.0133537 0.00620544 0 0.0179125 0 0)
(0.0144544 0.00816059 0 0.0200878 0 0)
(0.0159083 0.0103654 0 0.0224019 0 0)
(0.017746 0.0127832 0 0.0247509 0 0)
(0.019956 0.0154649 0 0.0272292 0 0)
(0.00430608 -0.000543324 0 0.00313125 0 0)
(0.0185901 -0.0030238 0 0.00293137 0 0)
(0.0163667 -0.00281024 0 0.00280988 0 0)
(0.0137293 -0.00194236 0 0.00312289 0 0)
(0.0131595 -0.00130406 0 0.00363237 0 0)
(0.0127011 -0.000893886 0 0.00426423 0 0)
(0.0122645 -0.000503536 0 0.00498684 0 0)
(0.0120293 1.23124e-05 0 0.00578596 0 0)
(0.0120018 0.000712695 0 0.00666311 0 0)
(0.0121615 0.00160257 0 0.00762959 0 0)
(0.0125273 0.00266702 0 0.00868926 0 0)
(0.0131435 0.00390018 0 0.009848 0 0)
(0.0140502 0.00530065 0 0.0110941 0 0)
(0.0152865 0.00688056 0 0.0124343 0 0)
(0.0168719 0.00863252 0 0.0138346 0 0)
(0.0188314 0.0105728 0 0.0153209 0 0)
(0.021179 0.0126675 0 0.0168252 0 0)
(0.0239057 0.0149595 0 0.0184117 0 0)
(0.00397822 -0.000392498 0 0.00293183 0 0)
(0.0184521 -0.00270151 0 0.00229623 0 0)
(0.0161894 -0.0026317 0 0.00214857 0 0)
(0.013469 -0.00186655 0 0.00240631 0 0)
(0.0128217 -0.00124286 0 0.00281006 0 0)
(0.0123149 -0.0008272 0 0.00330243 0 0)
(0.0118632 -0.000452452 0 0.00385938 0 0)
(0.0116386 2.75653e-05 0 0.00447628 0 0)
(0.0116575 0.000683439 0 0.00515557 0 0)
(0.0119179 0.00152392 0 0.00590052 0 0)
(0.0124421 0.00252877 0 0.00670598 0 0)
(0.0132646 0.00368044 0 0.00756922 0 0)
(0.0144164 0.00496819 0 0.00847878 0 0)
(0.0159342 0.00639572 0 0.0094397 0 0)
(0.0178381 0.00795756 0 0.0104289 0 0)
(0.0201532 0.00966618 0 0.0114678 0 0)
(0.022892 0.0114919 0 0.0125074 0 0)
(0.0260413 0.0134644 0 0.0135903 0 0)
(0.00427932 -0.00050404 0 0.00252408 0 0)
(0.0180013 -0.00243963 0 0.0021177 0 0)
(0.0156534 -0.0021737 0 0.00189703 0 0)
(0.0129878 -0.00137835 0 0.00192754 0 0)
(0.0123778 -0.000774027 0 0.00210126 0 0)
(0.0118831 -0.000376128 0 0.00235504 0 0)
(0.0114635 -2.48096e-05 0 0.00264496 0 0)
(0.0113402 0.000404376 0 0.00295915 0 0)
(0.0115385 0.00096733 0 0.00331079 0 0)
(0.0120351 0.00166979 0 0.00371355 0 0)
(0.0128372 0.00249613 0 0.00416627 0 0)
(0.0139707 0.00343168 0 0.00466316 0 0)
(0.0154611 0.00446942 0 0.00519396 0 0)
(0.0173343 0.005612 0 0.00576111 0 0)
(0.0196111 0.00685494 0 0.0063488 0 0)
(0.0223019 0.0082055 0 0.00697034 0 0)
(0.0254256 0.00964706 0 0.007594 0 0)
(0.0289435 0.0111951 0 0.00824612 0 0)
(0.00444173 -0.000697568 0 0.00220888 0 0)
(0.0178524 -0.00226002 0 0.00175692 0 0)
(0.0150055 -0.00171058 0 0.00158584 0 0)
(0.0123427 -0.000828857 0 0.00166433 0 0)
(0.0120109 -0.000202935 0 0.00183309 0 0)
(0.0117967 0.000202421 0 0.00204403 0 0)
(0.0116159 0.000562715 0 0.00227349 0 0)
(0.0117368 0.00100235 0 0.00251945 0 0)
(0.0122327 0.00157048 0 0.00278692 0 0)
(0.013095 0.00226277 0 0.00307896 0 0)
(0.0143204 0.00305788 0 0.00339176 0 0)
(0.0159226 0.0039382 0 0.00372379 0 0)
(0.0179202 0.00489468 0 0.0040729 0 0)
(0.0203345 0.00593077 0 0.00444432 0 0)
(0.0231742 0.00704051 0 0.00482827 0 0)
(0.0264421 0.00822963 0 0.00523724 0 0)
(0.0301426 0.00947816 0 0.00564835 0 0)
(0.0342443 0.0108055 0 0.00607242 0 0)
(0.00488052 -0.000530094 0 0.00205946 0 0)
(0.0179579 -0.00193447 0 0.00138721 0 0)
(0.0149035 -0.00149055 0 0.00105955 0 0)
(0.0121657 -0.000831986 0 0.00103711 0 0)
(0.0117655 -0.000370782 0 0.00109592 0 0)
(0.011471 -8.65895e-05 0 0.00115522 0 0)
(0.0112436 0.000141273 0 0.00121874 0 0)
(0.0113791 0.000414229 0 0.00131225 0 0)
(0.0119353 0.000782706 0 0.00144286 0 0)
(0.0128822 0.00124854 0 0.00159965 0 0)
(0.014212 0.00179076 0 0.00176945 0 0)
(0.0159418 0.00239465 0 0.0019488 0 0)
(0.0180971 0.00305525 0 0.00213854 0 0)
(0.0206941 0.00377469 0 0.0023428 0 0)
(0.0237378 0.00454984 0 0.00255615 0 0)
(0.0272162 0.00538157 0 0.00278453 0 0)
(0.031132 0.00625476 0 0.00301538 0 0)
(0.035433 0.00718499 0 0.0032569 0 0)
(0.00458004 -0.000421818 0 0.00196912 0 0)
(0.017527 -0.00146726 0 0.00116529 0 0)
(0.0142229 -0.00120065 0 0.000826935 0 0)
(0.0115946 -0.000618779 0 0.000847351 0 0)
(0.011377 -0.000127357 0 0.000900345 0 0)
(0.0112822 0.000194653 0 0.000933985 0 0)
(0.0113531 0.000450133 0 0.000964466 0 0)
(0.0118916 0.000729003 0 0.00100691 0 0)
(0.0129067 0.00107074 0 0.0010652 0 0)
(0.0143214 0.00147917 0 0.00113643 0 0)
(0.0161186 0.00194413 0 0.0012175 0 0)
(0.0183343 0.0024588 0 0.00130833 0 0)
(0.0210078 0.00301929 0 0.00140887 0 0)
(0.0241568 0.00362496 0 0.00152152 0 0)
(0.0277815 0.0042698 0 0.00164324 0 0)
(0.0318624 0.00495497 0 0.00177878 0 0)
(0.0364053 0.00566735 0 0.00192104 0 0)
(0.0413535 0.00642005 0 0.00207494 0 0)
(0.00377027 -0.000449175 0 0.00153893 0 0)
(0.0167123 -0.000776759 0 0.000705571 0 0)
(0.0135025 -0.000486592 0 0.000403622 0 0)
(0.0111353 -0.000181363 0 0.000377146 0 0)
(0.011104 5.94557e-05 0 0.000372341 0 0)
(0.0111831 0.000193017 0 0.000371953 0 0)
(0.011449 0.000288323 0 0.000389056 0 0)
(0.0121984 0.000406402 0 0.000417488 0 0)
(0.0134452 0.000570084 0 0.0004497 0 0)
(0.0151247 0.000777663 0 0.000483739 0 0)
(0.0172298 0.00102185 0 0.000520977 0 0)
(0.0197962 0.00129625 0 0.000563438 0 0)
(0.0228574 0.00159716 0 0.000611856 0 0)
(0.0264196 0.00192415 0 0.000667763 0 0)
(0.0304731 0.00227425 0 0.000730145 0 0)
(0.034986 0.00264984 0 0.000801515 0 0)
(0.0399606 0.00304199 0 0.000878674 0 0)
(0.0453324 0.00346189 0 0.000963204 0 0)
(0.00465488 -0.000482481 0 0.00115843 0 0)
(0.0165454 -0.000963644 0 0.000498079 0 0)
(0.01292 -0.000719683 0 0.000374985 0 0)
(0.0108729 -0.000309055 0 0.000354979 0 0)
(0.0111069 -2.40306e-05 0 0.000313037 0 0)
(0.0114004 0.000136115 0 0.000272139 0 0)
(0.0120174 0.000258733 0 0.000250901 0 0)
(0.0132633 0.000382275 0 0.000244479 0 0)
(0.0150823 0.000509669 0 0.000246219 0 0)
(0.0173613 0.00064381 0 0.000252864 0 0)
(0.0200767 0.000792897 0 0.000264029 0 0)
(0.023266 0.000963717 0 0.000280739 0 0)
(0.0269603 0.0011589 0 0.000304041 0 0)
(0.0311656 0.00137708 0 0.000334546 0 0)
(0.0358587 0.0016132 0 0.000371726 0 0)
(0.0410146 0.00186281 0 0.000417023 0 0)
(0.0466241 0.00211907 0 0.000469025 0 0)
(0.0526403 0.00238672 0 0.000527336 0 0)
(0.00365619 -0.000174142 0 0.000875838 0 0)
(0.015312 7.35217e-05 0 0.000223091 0 0)
(0.0118196 -2.59783e-05 0 0.000149588 0 0)
(0.0100747 1.87413e-05 0 0.000138402 0 0)
(0.0105904 9.38425e-06 0 0.000139035 0 0)
(0.0111672 -4.49176e-05 0 0.000144204 0 0)
(0.0120335 -0.000110339 0 0.00015019 0 0)
(0.0134438 -0.000173044 0 0.000156671 0 0)
(0.0153025 -0.000228954 0 0.000165348 0 0)
(0.0174801 -0.000274085 0 0.000176411 0 0)
(0.0199378 -0.000303272 0 0.000189219 0 0)
(0.0227133 -0.000313288 0 0.000203561 0 0)
(0.025826 -0.000301281 0 0.000219572 0 0)
(0.0293129 -0.000265097 0 0.000237829 0 0)
(0.033139 -0.000203298 0 0.000258205 0 0)
(0.0373496 -0.000116816 0 0.00028212 0 0)
(0.0418779 -7.25847e-06 0 0.000309688 0 0)
(0.0468238 0.000126561 0 0.000339937 0 0)
(0.00413796 -0.0003086 0 0.000749893 0 0)
(0.0164863 -3.94719e-05 0 0.000227782 0 0)
(0.0144187 2.46218e-05 0 0.000138577 0 0)
(0.0137066 0.000105965 0 0.000100573 0 0)
(0.0149106 0.000129689 0 7.93878e-05 0 0)
(0.0160335 0.000146313 0 6.64603e-05 0 0)
(0.0171565 0.000169533 0 5.78541e-05 0 0)
(0.0185553 0.000194588 0 5.26381e-05 0 0)
(0.020324 0.000217583 0 4.99817e-05 0 0)
(0.0224843 0.000239797 0 4.92925e-05 0 0)
(0.0250447 0.000266099 0 5.02446e-05 0 0)
(0.0280191 0.000302227 0 5.25451e-05 0 0)
(0.0314463 0.000352782 0 5.58191e-05 0 0)
(0.0353867 0.000419173 0 5.97093e-05 0 0)
(0.0399237 0.000499159 0 6.41909e-05 0 0)
(0.0450821 0.000589428 0 6.96421e-05 0 0)
(0.0509482 0.00068726 0 7.55406e-05 0 0)
(0.0574424 0.000795599 0 8.12307e-05 0 0)
(0.00108972 -0.00264078 1.25903e-22 0.00652011 -2.54808e-22 1.46487e-37)
(0.0119398 -0.00896795 -3.39921e-22 0.00694069 1.96845e-22 1.44438e-37)
(0.030534 -0.0116542 0 0.005334 0 0)
(0.0488786 -0.0114791 0 0.00471547 0 0)
(0.0677138 -0.0122417 0 0.00559986 0 0)
(0.0924819 -0.0161585 7.77974e-22 0.00712337 -6.22074e-23 1.36049e-37)
(0.129361 -0.0230517 0 0.00828135 0 0)
(0.182874 -0.0314487 0 0.00879099 0 0)
(0.254646 -0.0400027 0 0.0087119 0 0)
(0.344206 -0.0477793 0 0.00823072 0 0)
(0.449718 -0.0542135 -1.09914e-21 0.00753685 7.03418e-23 1.26018e-37)
(0.568501 -0.0589673 0 0.00674669 0 0)
(0.697209 -0.0617802 0 0.00591131 0 0)
(0.831891 -0.0623932 0 0.00505042 0 0)
(0.967814 -0.0605409 0 0.00418298 0 0)
(1.09969 -0.0560172 -1.52902e-21 0.00334948 1.24657e-22 1.16479e-37)
(1.22161 -0.0487369 0 0.00261757 0 0)
(1.32803 -0.0388134 0 0.00208528 0 0)
(1.41384 -0.0266138 0 0.00186953 0 0)
(1.47317 -0.0129109 0 0.00208513 0 0)
(1.50388 0.00107329 0 0.00280036 0 0)
(1.50595 0.0138554 0 0.00399105 0 0)
(1.48293 0.0239269 0 0.00552724 0 0)
(1.44095 0.0300423 -3.1772e-21 0.007187 2.84186e-22 1.02225e-37)
(1.38787 0.0314358 3.47689e-21 0.00872407 -2.91959e-22 1.00531e-37)
(1.33179 0.0277205 -3.78348e-21 0.0099773 2.92424e-22 9.8855e-38)
(1.28099 0.0193919 -4.08998e-21 0.0110992 2.86647e-22 9.71987e-38)
(1.24315 0.00635994 0 0.012569 0 0)
(1.22512 -0.0111173 0 0.0160024 0 0)
(1.23345 -0.0355629 4.93727e-21 0.0220388 -2.14672e-22 9.2345e-38)
(1.27957 -0.0683523 5.1707e-21 0.0312968 -1.65829e-22 9.07653e-38)
(1.37085 -0.105291 0 0.0409847 0 0)
(1.50307 -0.137826 0 0.0469175 0 0)
(1.66044 -0.155723 5.74808e-21 0.0493549 -9.39006e-23 8.6141e-38)
(1.83564 -0.157995 0 0.0492555 0 0)
(2.02987 -0.159325 0 0.0507229 0 0)
(2.24807 -0.171294 -6.32798e-21 0.0537177 1.51251e-22 8.16881e-38)
(2.48383 -0.183421 0 0.0565285 0 0)
(2.73718 -0.178977 -6.73814e-21 0.0558852 1.68006e-22 7.88143e-38)
(2.99753 -0.172771 -1.39096e-20 0.0590733 3.73535e-22 3.09623e-37)
(3.26077 -0.177527 0 0.0550807 0 0)
(3.52247 -0.168066 0 0.0487057 0 0)
(3.76757 -0.151432 0 0.0463513 0 0)
(4.00161 -0.154835 0 0.0453087 0 0)
(4.22895 -0.167334 0 0.0422058 0 0)
(4.44085 -0.156263 -1.64621e-20 0.041639 3.30344e-22 2.77385e-37)
(4.61779 -0.135963 -1.68167e-20 0.0408823 3.24006e-22 2.72269e-37)
(4.77602 -0.112799 -1.71312e-20 0.0313572 3.06494e-22 2.67227e-37)
(4.91986 -0.0817109 0 0.0236501 0 0)
(5.04623 -0.0623747 1.76285e-20 0.0214043 -2.72744e-22 2.57358e-37)
(5.17782 -0.0603514 0 0.0200237 0 0)
(5.32232 -0.0632355 -1.79266e-20 0.0176075 2.07733e-22 2.47774e-37)
(5.47486 -0.0643977 -1.79978e-20 0.0151808 1.75267e-22 2.43087e-37)
(5.62835 -0.0635119 0 0.0129648 0 0)
(5.77759 -0.0607851 0 0.0109894 0 0)
(5.91812 -0.0566249 0 0.00927623 0 0)
(6.04664 -0.0513924 -1.78515e-20 0.00781304 7.13903e-23 2.25031e-37)
(6.16038 -0.0454987 0 0.00658367 0 0)
(6.25839 -0.03923 0 0.00555598 0 0)
(6.33952 -0.0328465 0 0.00470201 0 0)
(6.40357 -0.0265457 0 0.00399274 0 0)
(6.45087 -0.0204972 0 0.00340499 0 0)
(6.48192 -0.0147745 0 0.00291648 0 0)
(6.49749 -0.0094225 0 0.00251006 0 0)
(6.49821 -0.0044356 0 0.00217068 0 0)
(6.48499 0.000194159 1.5867e-20 0.00188731 3.72918e-23 1.88281e-37)
(6.45849 0.00451233 0 0.00165034 0 0)
(6.41928 0.00855094 0 0.00145362 0 0)
(6.36774 0.0123393 -1.49389e-20 0.00129285 -4.99949e-23 1.77161e-37)
(6.30424 0.0159041 -1.46147e-20 0.00116475 -5.29061e-23 1.73574e-37)
(6.22923 0.0192683 0 0.00106634 0 0)
(6.14298 0.0224657 1.39507e-20 0.00099381 5.73631e-23 1.66576e-37)
(6.04578 0.0255334 -1.36126e-20 0.000942763 -5.90806e-23 1.63163e-37)
(5.9377 0.0284994 0 0.000908711 0 0)
(5.81877 0.0313984 1.29282e-20 0.00088699 6.18767e-23 1.56507e-37)
(5.68887 0.0342649 0 0.000874438 0 0)
(5.54785 0.0371086 0 0.00087062 0 0)
(5.39557 0.0399117 -1.18882e-20 0.000876455 -6.51875e-23 1.46935e-37)
(5.23214 0.0426016 0 0.00089347 0 0)
(5.05798 0.0450784 1.11919e-20 0.000920685 6.66051e-23 1.40821e-37)
(4.87395 0.0472467 0 0.000954617 0 0)
(4.68124 0.0490317 -1.05016e-20 0.000989819 -6.66879e-23 1.34914e-37)
(4.48125 0.050406 -1.01618e-20 0.00102008 -6.6123e-23 1.32037e-37)
(4.27541 0.051386 -9.82712e-21 0.00104124 -6.51731e-23 1.29209e-37)
(4.06502 0.0520256 -1.89974e-20 0.0010523 -1.2778e-22 5.05721e-37)
(3.85115 0.0523883 1.83548e-20 0.00105546 1.24663e-22 4.94799e-37)
(3.63464 0.0525254 0 0.00105469 0 0)
(3.41626 0.0524581 0 0.00105376 0 0)
(3.19682 0.0521837 0 0.00105547 0 0)
(2.97725 0.0516757 1.5952e-20 0.00106101 1.08543e-22 4.52994e-37)
(2.75861 0.0508924 1.53996e-20 0.00106928 1.03781e-22 4.43e-37)
(2.54218 0.0497936 -1.48691e-20 0.00107843 -9.8742e-23 4.33183e-37)
(2.32935 0.0483502 0 0.001086 0 0)
(2.12165 0.0465422 1.38788e-20 0.00108879 8.78823e-23 4.14072e-37)
(1.92067 0.0443779 1.3421e-20 0.00108445 8.21313e-23 4.04773e-37)
(1.72798 0.0418764 1.29888e-20 0.00107029 7.62328e-23 3.95641e-37)
(1.54506 0.0390784 0 0.00104435 0 0)
(1.37326 0.0360535 0 0.00100637 0 0)
(1.21359 0.0328567 0 0.000955239 0 0)
(1.06675 0.0295901 1.15149e-20 0.000893687 5.25615e-23 3.60738e-37)
(0.933179 0.0263086 0 0.000822095 0 0)
(0.812937 0.0231127 0 0.000744901 0 0)
(0.705816 0.0200463 -1.0651e-20 0.000663728 -3.64814e-23 3.362e-37)
(0.611344 0.0171755 0 0.000582482 0 0)
(0.528827 0.0145268 0 0.000503034 0 0)
(0.457455 0.012128 -9.95012e-21 0.000427798 -2.29141e-23 3.12995e-37)
(0.396347 0.00999466 0 0.000358638 0 0)
(0.34442 0.00810162 0 0.000294971 0 0)
(0.300657 0.00644457 9.37298e-21 0.000237744 1.20319e-23 2.91064e-37)
(0.264161 0.00501233 9.20246e-21 0.000187351 8.95986e-24 2.84027e-37)
(0.234045 0.00378897 0 0.000143877 0 0)
(0.209471 0.0027572 -8.88873e-21 0.000107259 -3.6182e-24 2.70349e-37)
(0.189657 0.00189914 0 7.73042e-05 0 0)
(0.173884 0.00119646 8.60643e-21 5.36918e-05 -6.77672e-25 2.57185e-37)
(0.161495 0.000630373 0 3.59365e-05 0 0)
(0.151907 0.000181539 8.3502e-21 2.33674e-05 -3.95252e-24 2.4452e-37)
(0.144614 -0.000169106 8.23033e-21 1.51737e-05 -5.22488e-24 2.3837e-37)
(0.139183 -0.000439783 0 1.04633e-05 0 0)
(0.135259 -0.000647352 0 8.33583e-06 0 0)
(0.132555 -0.000806198 0 8.00686e-06 0 0)
(0.130846 -0.000928824 0 8.82676e-06 0 0)
(0.129956 -0.00102434 0 1.02847e-05 0 0)
(0.129745 -0.00109835 0 1.20243e-05 0 0)
(0.130106 -0.00115603 0 1.38211e-05 0 0)
(0.130956 -0.00120025 7.40235e-21 1.55275e-05 -8.92947e-24 1.9329e-37)
(0.132216 -0.00122998 -7.30946e-21 1.69381e-05 8.84441e-24 1.88144e-37)
(0.133815 -0.00124482 0 1.78677e-05 0 0)
(0.135694 -0.00124618 0 1.8254e-05 0 0)
(0.137795 -0.00123505 0 1.80909e-05 0 0)
(0.140067 -0.00121246 0 1.74224e-05 0 0)
(0.142462 -0.00117986 -1.37223e-20 1.63514e-05 1.45253e-23 6.55669e-37)
(0.144936 -0.00113902 0 1.50108e-05 0 0)
(0.147449 -0.00109162 1.33721e-20 1.35274e-05 -1.27322e-23 6.19602e-37)
(0.149965 -0.00103925 -1.3198e-20 1.20046e-05 1.18296e-23 6.02122e-37)
(0.152451 -0.0009833 0 1.05161e-05 0 0)
(0.15488 -0.000924922 0 9.10673e-06 0 0)
(0.157226 -0.000865019 0 7.80008e-06 0 0)
(0.159469 -0.000804363 1.25044e-20 6.6074e-06 -8.50607e-24 5.35746e-37)
(0.161591 -0.000743694 1.23316e-20 5.53437e-06 -7.77934e-24 5.20011e-37)
(0.163579 -0.000683753 0 4.58344e-06 0 0)
(0.165423 -0.000625283 1.19865e-20 3.75432e-06 -6.47145e-24 4.89531e-37)
(0.167119 -0.000568966 1.18142e-20 3.04344e-06 -5.89318e-24 4.74776e-37)
(0.168664 -0.000515376 -1.16423e-20 2.44379e-06 5.36448e-24 4.60337e-37)
(0.170063 -0.00046494 0 1.94549e-06 0 0)
(0.171322 -0.000417927 0 1.53685e-06 0 0)
(0.17245 -0.000374462 -1.11286e-20 1.20551e-06 4.06055e-24 4.18868e-37)
(0.173457 -0.000334569 0 9.39539e-07 0 0)
(0.174355 -0.000298173 0 7.27915e-07 0 0)