/*--------------------------------*- C++ -*----------------------------------*\
  =========                 |
  \\      /  F ield         | OpenFOAM: The Open Source CFD Toolbox
   \\    /   O peration     | Website:  https://openfoam.org
    \\  /    A nd           | Version:  7
     \\/     M anipulation  |
\*---------------------------------------------------------------------------*/
FoamFile
{
    version     2.0;
    format      ascii;
    class       volScalarField;
    location    "0.095";
    object      k_0;
}
// * * * * * * * * * * * * * * * * * * * * * * * * * * * * * * * * * * * * * //

dimensions      [0 2 -2 0 0 0 0];

internalField   nonuniform List<scalar> 
12225
(
1.933e-05
1.80552e-05
1.67418e-05
1.52964e-05
1.40305e-05
1.28474e-05
1.15237e-05
9.9776e-06
8.48088e-06
7.26883e-06
6.19142e-06
5.26354e-06
4.2402e-06
4.62426e-06
6.55175e-06
5.24693e-05
2.39159e-05
5.04985e-05
1.99817e-05
1.98826e-05
1.96552e-05
1.94488e-05
1.90908e-05
1.88441e-05
1.8353e-05
1.79471e-05
1.71929e-05
1.66622e-05
1.59985e-05
1.55152e-05
1.47416e-05
1.44208e-05
1.46552e-05
2.61937e-05
2.51327e-05
2.45235e-05
1.99986e-05
1.9284e-05
1.91128e-05
1.91169e-05
1.90743e-05
1.89432e-05
1.88478e-05
1.88301e-05
1.87608e-05
1.86615e-05
1.84505e-05
1.82501e-05
1.79106e-05
1.77531e-05
1.75063e-05
1.87706e-05
1.92892e-05
1.92849e-05
2.00275e-05
2.00118e-05
1.9876e-05
1.89278e-05
1.59038e-05
1.57064e-05
1.61365e-05
1.71767e-05
1.78426e-05
1.8106e-05
1.81335e-05
1.80693e-05
1.77642e-05
1.74611e-05
1.72623e-05
1.72762e-05
1.73111e-05
1.73905e-05
2.02291e-05
2.329e-05
2.55359e-05
2.50459e-05
2.25632e-05
2.05695e-05
1.9657e-05
1.94444e-05
1.94726e-05
1.95071e-05
1.94902e-05
1.93577e-05
1.88492e-05
1.81375e-05
1.76851e-05
1.7485e-05
1.74435e-05
1.74277e-05
2.00894e-05
2.16911e-05
2.55435e-05
2.57022e-05
2.4417e-05
2.32004e-05
2.32578e-05
2.44597e-05
2.58022e-05
2.61202e-05
2.60227e-05
2.52387e-05
2.36426e-05
2.26947e-05
2.2229e-05
2.19763e-05
2.16889e-05
2.09362e-05
2.01515e-05
2.14e-05
2.69885e-05
3.16497e-05
3.16395e-05
3.04025e-05
2.77491e-05
2.63339e-05
2.58818e-05
2.56568e-05
2.51301e-05
2.43408e-05
2.39754e-05
2.39626e-05
2.41463e-05
2.45301e-05
2.4644e-05
2.4588e-05
2.06203e-05
2.28823e-05
2.96188e-05
3.34364e-05
3.31677e-05
3.0418e-05
2.74327e-05
2.62047e-05
2.55357e-05
2.49671e-05
2.44479e-05
2.40628e-05
2.38968e-05
2.3873e-05
2.3905e-05
2.40658e-05
2.42093e-05
2.43179e-05
2.06959e-05
2.43675e-05
2.77946e-05
2.76282e-05
2.59751e-05
2.40072e-05
2.33683e-05
2.33195e-05
2.33011e-05
2.32659e-05
2.32465e-05
2.32642e-05
2.34003e-05
2.35981e-05
2.37654e-05
2.38662e-05
2.38901e-05
2.38919e-05
2.03328e-05
2.25379e-05
2.70802e-05
2.78058e-05
2.65732e-05
2.33717e-05
2.17578e-05
2.13015e-05
2.12621e-05
2.1327e-05
2.16176e-05
2.26174e-05
2.43209e-05
2.56759e-05
2.64882e-05
2.67782e-05
2.67688e-05
2.64052e-05
2.09717e-05
2.24544e-05
2.43181e-05
2.46884e-05
2.44817e-05
2.32764e-05
2.16512e-05
2.10763e-05
2.10316e-05
2.11873e-05
2.2026e-05
2.51823e-05
2.86903e-05
3.02279e-05
3.05386e-05
3.04148e-05
2.95556e-05
2.77559e-05
2.25006e-05
2.2979e-05
2.21615e-05
2.17475e-05
2.15521e-05
2.12527e-05
2.09929e-05
2.09223e-05
2.09454e-05
2.1131e-05
2.19033e-05
2.47816e-05
2.87659e-05
3.09214e-05
3.15494e-05
3.15098e-05
3.08465e-05
2.86595e-05
2.12043e-05
2.08362e-05
2.07484e-05
2.07303e-05
2.06108e-05
2.04584e-05
2.03943e-05
2.04212e-05
2.05616e-05
2.09797e-05
2.21507e-05
2.48232e-05
2.7206e-05
2.85371e-05
2.89648e-05
2.89646e-05
2.85555e-05
2.69545e-05
2.02528e-05
2.02629e-05
2.05047e-05
2.0501e-05
2.04001e-05
2.04398e-05
2.04169e-05
2.04661e-05
2.08475e-05
2.12573e-05
2.14872e-05
2.16852e-05
2.20746e-05
2.26062e-05
2.29157e-05
2.29854e-05
2.29252e-05
2.25648e-05
2.06359e-05
2.04365e-05
2.02312e-05
2.0251e-05
2.04369e-05
2.04996e-05
2.05743e-05
2.05638e-05
2.04714e-05
2.04058e-05
2.04123e-05
2.04518e-05
2.05394e-05
2.07365e-05
2.09589e-05
2.11127e-05
2.11748e-05
2.11892e-05
2.17769e-05
2.16257e-05
2.07473e-05
2.06416e-05
2.07179e-05
2.07516e-05
2.07227e-05
2.05367e-05
2.03919e-05
2.03432e-05
2.03362e-05
2.03385e-05
2.03483e-05
2.03668e-05
2.03884e-05
2.04256e-05
2.05046e-05
2.0743e-05
2.12237e-05
2.05982e-05
2.05421e-05
2.05793e-05
2.05537e-05
2.05501e-05
2.05675e-05
2.0551e-05
2.04678e-05
2.04198e-05
2.03897e-05
2.03621e-05
2.03387e-05
2.03239e-05
2.03183e-05
2.03184e-05
2.03256e-05
2.03652e-05
2.12244e-05
2.07007e-05
2.03297e-05
2.02383e-05
2.02466e-05
2.03755e-05
2.06935e-05
2.08285e-05
2.08837e-05
2.08981e-05
2.08915e-05
2.08384e-05
2.06662e-05
2.05018e-05
2.04069e-05
2.03786e-05
2.0386e-05
2.04206e-05
2.032e-05
2.03192e-05
2.03277e-05
2.03407e-05
2.03528e-05
2.03376e-05
2.04341e-05
2.1099e-05
2.22928e-05
2.2856e-05
2.2973e-05
2.29211e-05
2.25293e-05
2.15933e-05
2.09926e-05
2.0751e-05
2.07009e-05
2.07073e-05
2.02599e-05
2.10408e-05
2.13209e-05
2.12815e-05
2.10956e-05
2.10345e-05
2.10427e-05
2.10956e-05
2.11196e-05
2.11086e-05
2.1041e-05
2.09958e-05
2.09967e-05
2.10859e-05
2.1623e-05
2.23359e-05
2.25583e-05
2.25491e-05
2.02126e-05
2.0469e-05
2.06619e-05
2.07149e-05
2.07729e-05
2.09718e-05
2.13164e-05
2.14562e-05
2.14647e-05
2.13867e-05
2.10319e-05
2.06933e-05
2.05721e-05
2.05625e-05
2.06126e-05
2.0923e-05
2.16485e-05
2.20366e-05
2.03021e-05
2.04277e-05
2.05331e-05
2.05571e-05
2.0551e-05
2.05475e-05
2.05458e-05
2.05226e-05
2.05146e-05
2.05651e-05
2.08684e-05
2.10748e-05
2.106e-05
2.0891e-05
2.07564e-05
2.07354e-05
2.07443e-05
2.07789e-05
2.04457e-05
2.05846e-05
2.04501e-05
2.03389e-05
2.03064e-05
2.03164e-05
2.03794e-05
2.04831e-05
2.05341e-05
2.05555e-05
2.05819e-05
2.06494e-05
2.08572e-05
2.0948e-05
2.09398e-05
2.08591e-05
2.06369e-05
2.04629e-05
2.01696e-05
2.04321e-05
2.02781e-05
2.02024e-05
2.02201e-05
2.03863e-05
2.0877e-05
2.11899e-05
2.12776e-05
2.12684e-05
2.11497e-05
2.09666e-05
2.088e-05
2.08487e-05
2.0839e-05
2.08322e-05
2.08195e-05
2.07913e-05
2.03634e-05
2.07301e-05
2.05718e-05
2.02854e-05
2.02797e-05
2.05061e-05
2.10464e-05
2.12776e-05
2.13063e-05
2.1246e-05
2.09676e-05
2.07117e-05
2.06007e-05
2.05638e-05
2.05547e-05
2.05524e-05
2.05495e-05
2.0542e-05
2.08977e-05
2.11418e-05
2.06675e-05
2.03177e-05
2.03133e-05
2.05519e-05
2.1079e-05
2.12785e-05
2.12893e-05
2.1202e-05
2.08593e-05
2.05684e-05
2.044e-05
2.04048e-05
2.0404e-05
2.04127e-05
2.04222e-05
2.04225e-05
2.01044e-05
2.01115e-05
2.00499e-05
1.99762e-05
1.99439e-05
1.99197e-05
1.99175e-05
1.99197e-05
1.98462e-05
1.94616e-05
1.90568e-05
1.89773e-05
1.90435e-05
1.9344e-05
2.01168e-05
2.0781e-05
2.1266e-05
2.13588e-05
2.02452e-05
1.89022e-05
1.42668e-05
1.26408e-05
1.30284e-05
1.47386e-05
1.95238e-05
2.63416e-05
3.09384e-05
3.56134e-05
4.44797e-05
5.75847e-05
7.17776e-05
8.36525e-05
9.22914e-05
9.68524e-05
9.94276e-05
9.93725e-05
3.41543e-05
0.000123441
0.000153068
0.000169899
0.000195971
0.000258496
0.000339105
0.00038694
0.000412578
0.000446056
0.000504208
0.000575494
0.000634204
0.000666319
0.000675698
0.00067589
0.000673836
0.00066566
0.00284513
0.00263155
0.00223779
0.00208329
0.0020432
0.0020272
0.00199329
0.00189063
0.001796
0.00175246
0.0017318
0.00170345
0.00163474
0.00153187
0.00144653
0.00138149
0.00132369
0.00126394
0.00355369
0.00575583
0.00659158
0.00776601
0.00822378
0.00809871
0.00762951
0.00653217
0.00573711
0.0052255
0.00472825
0.00435271
0.00523934
0.00660333
0.00807188
0.00907795
0.00918401
0.00838057
0.00692358
0.00619922
0.00607845
0.00637274
0.00759413
0.00882282
0.00914753
0.00927155
0.0100821
0.0141082
0.0232668
0.0268659
0.0267139
0.0224742
0.0152709
0.012455
0.0114441
0.0108575
0.0100031
0.00891585
0.00827554
0.00796338
0.00777359
0.00770094
0.00769624
0.00769483
0.00772641
0.00778834
0.00786803
0.00799747
0.00818642
0.00842767
0.00871651
0.00900341
0.00937141
0.00973253
0.0101281
0.0106399
0.0109804
0.0113958
0.0118534
0.0122018
0.0124517
0.0128225
0.0138205
0.0155784
0.0161594
0.0155799
0.0148129
0.0158321
0.0218178
0.035413
0.052172
0.0629841
0.0623253
0.0542121
0.0471127
0.0491576
0.0595346
0.0838342
0.121185
0.161418
0.180906
0.175335
0.12737
0.0499937
0.0135923
0.00357472
0.00172543
0.0013606
0.00130363
0.00127777
0.00117595
0.00102555
0.000866514
0.00068426
0.000524555
0.000436141
0.000345826
0.000306642
0.000288985
0.000285837
0.00029148
0.000295015
0.000297563
0.000298919
0.000299543
0.00029973
0.000299011
0.000299067
0.000299512
0.000299786
0.000299669
0.00029814
0.000296154
0.000295021
0.000293598
0.000289954
0.000284781
0.000281203
0.000274442
0.000267096
0.000260065
0.000251449
0.000242883
0.000233895
0.000225127
0.000215969
0.000206855
0.000198818
0.000191362
0.000183963
0.000176645
0.000169452
0.000162341
0.000155257
0.000148038
0.000140572
0.000132995
0.000124983
0.000116162
0.000107557
9.97334e-05
9.11556e-05
8.06033e-05
6.94339e-05
5.85321e-05
4.62496e-05
3.2957e-05
2.20924e-05
1.44426e-05
9.43057e-06
6.42632e-06
4.76069e-06
3.8645e-06
3.34481e-06
2.97466e-06
2.64477e-06
2.31755e-06
1.99618e-06
1.69687e-06
1.43379e-06
1.20887e-06
1.01986e-06
8.57307e-07
7.22388e-07
5.98653e-07
5.08331e-07
4.12554e-07
3.40618e-07
3.07466e-07
3.36362e-07
3.41995e-07
4.10972e-07
3.76003e-07
4.76634e-07
3.88114e-07
6.08269e-07
7.71952e-07
1.29173e-06
1.06335e-05
8.41195e-06
0.00356592
0.00607582
0.00817257
0.00929679
0.0100464
0.0100663
0.00995997
0.0096651
0.00898983
0.00818823
0.00732575
0.00646481
0.00598419
0.00590878
0.00615602
0.00757004
0.00806585
0.00745248
0.00610764
0.00498854
0.00473791
0.00479969
0.00542964
0.00656431
0.00711797
0.00737578
0.00804069
0.0105027
0.0139022
0.0145005
0.0138389
0.0120968
0.0102509
0.00946752
0.00910021
0.00871311
0.00818728
0.00755594
0.00691274
0.00628586
0.0055984
0.00499029
0.0046114
0.00430035
0.00406401
0.00393202
0.0038814
0.00387762
0.00403456
0.00439325
0.00480791
0.00533648
0.00608797
0.00698751
0.00800037
0.00874592
0.0090783
0.0095025
0.010269
0.0110762
0.0117743
0.0123844
0.0127648
0.0134068
0.0146431
0.0151353
0.0151546
0.0152878
0.0164328
0.0194958
0.024185
0.0279125
0.0242171
0.0152742
0.0133522
0.0148549
0.017743
0.0202819
0.0256702
0.0426984
0.102388
0.106876
0.0487445
0.0156646
0.00503277
0.00202825
0.00120084
0.000927062
0.000811601
0.000710351
0.000632489
0.000575576
0.000542066
0.000521085
0.000512867
0.00051098
0.000510644
0.00051156
0.00051182
0.000510903
0.000508378
0.000507348
0.000506171
0.000505249
0.000504856
0.000503835
0.00050229
0.000501709
0.000501663
0.000501766
0.000501813
0.000501434
0.000500896
0.000500873
0.000500898
0.000499924
0.000498472
0.000497402
0.000495133
0.000492281
0.000488831
0.000484964
0.000479762
0.000473326
0.000465137
0.000454447
0.000440808
0.000425574
0.000409074
0.000390419
0.000371576
0.000353863
0.000337945
0.000322928
0.000307986
0.000293382
0.000278967
0.000264611
0.000250095
0.000234615
0.000217187
0.000197857
0.000179044
0.000163459
0.000151249
0.000141968
0.000134305
0.000124165
0.000110018
9.35507e-05
7.75965e-05
6.4092e-05
5.34094e-05
4.51537e-05
3.8875e-05
3.40845e-05
3.00878e-05
2.62906e-05
2.24981e-05
1.89299e-05
1.58327e-05
1.33129e-05
1.12125e-05
9.49792e-06
7.94834e-06
6.69588e-06
5.51733e-06
4.69623e-06
3.8255e-06
3.31391e-06
2.68456e-06
2.43164e-06
1.98629e-06
1.84214e-06
1.52188e-06
1.4463e-06
1.32232e-06
1.28378e-06
2.55267e-06
2.50203e-06
0.00197355
0.00941394
0.00896462
0.00808447
0.00807844
0.00829191
0.00882692
0.00881872
0.00868656
0.00834333
0.00786534
0.0072592
0.00686515
0.00633682
0.00601712
0.00607685
0.00637827
0.00667189
0.00612675
0.00503537
0.00481911
0.00517496
0.00604849
0.00717754
0.00771468
0.00799331
0.00859688
0.010094
0.0111111
0.0111545
0.00986197
0.00752915
0.0063748
0.00569041
0.0046551
0.0036696
0.00300565
0.0022373
0.00159951
0.00131856
0.00114831
0.00103235
0.000967874
0.000933852
0.000909319
0.000901046
0.000901017
0.000935821
0.00102027
0.00113862
0.00131997
0.00159464
0.00198447
0.00252886
0.00325734
0.00426704
0.00595873
0.00750867
0.00843188
0.00889482
0.00946356
0.0104296
0.0118699
0.0132161
0.0140781
0.0146488
0.0149506
0.0149777
0.0144887
0.011795
0.0104542
0.0109213
0.0099959
0.00863278
0.0089931
0.0106625
0.0164321
0.0247429
0.0414984
0.0675004
0.0586757
0.0268215
0.00932894
0.00339084
0.00155293
0.000987038
0.000782146
0.000690035
0.000628904
0.000583894
0.000552184
0.000529581
0.000517608
0.000508432
0.000503816
0.000501218
0.000500252
0.000500587
0.00050311
0.000504608
0.000506311
0.000507422
0.000508214
0.000508797
0.000509342
0.000509882
0.000510409
0.00051129
0.000512751
0.000514771
0.000517159
0.000519804
0.000522651
0.000525497
0.000528271
0.000530633
0.000532548
0.000533532
0.000534351
0.000534465
0.000534144
0.000533654
0.000533326
0.000533185
0.000533026
0.000532599
0.000531485
0.000529101
0.00052505
0.000518267
0.000507663
0.000493159
0.000475625
0.000453311
0.000426366
0.000396264
0.000364979
0.000334353
0.000307331
0.000284841
0.000265889
0.000248973
0.000230233
0.000204783
0.000178028
0.000157381
0.000143677
0.000134541
0.000129261
0.000125707
0.000119017
0.00010711
9.40296e-05
8.30441e-05
7.48911e-05
6.84638e-05
6.26382e-05
5.7055e-05
5.19003e-05
4.73763e-05
4.33868e-05
3.97162e-05
3.61902e-05
3.26588e-05
2.905e-05
2.54884e-05
2.19793e-05
1.86523e-05
1.55573e-05
1.27927e-05
1.03928e-05
8.34248e-06
6.70412e-06
5.28398e-06
4.32224e-06
3.31952e-06
2.90459e-06
2.12478e-06
1.99565e-06
1.65588e-06
0.00337852
0.00803616
0.00701525
0.00696094
0.00725984
0.00791409
0.00921266
0.0093417
0.00917753
0.00875638
0.00817226
0.00751929
0.00702974
0.006667
0.00616984
0.00592712
0.00593384
0.00603484
0.00565818
0.00523519
0.00554352
0.00720385
0.00831673
0.00871519
0.0087463
0.00854326
0.00859895
0.00881455
0.00804778
0.00524218
0.0037352
0.00297134
0.00231813
0.00179683
0.00134632
0.00107356
0.000928002
0.000786823
0.000726159
0.000695369
0.000675537
0.000669184
0.000667061
0.000664672
0.000658676
0.000650165
0.00063864
0.000632789
0.000615251
0.000605097
0.000598438
0.00064339
0.000756141
0.00104344
0.00172516
0.00308381
0.00501214
0.00667935
0.00740353
0.00762364
0.00810807
0.00866951
0.00954755
0.0112693
0.0129443
0.0139763
0.0143886
0.0144766
0.0142599
0.0122084
0.00944566
0.00846913
0.00784989
0.00770526
0.00799515
0.00945343
0.022268
0.0447313
0.0538027
0.0438598
0.018102
0.00683669
0.002574
0.00130742
0.000915162
0.000771104
0.000703154
0.000657713
0.000621868
0.000595861
0.000575941
0.000558742
0.000546968
0.000533209
0.000523881
0.000515508
0.000512589
0.000512059
0.000512854
0.000516607
0.000520776
0.000523716
0.000525421
0.000526065
0.000526099
0.000525989
0.000526008
0.000527445
0.000530349
0.000535155
0.000541363
0.000548417
0.000556557
0.000563889
0.00057027
0.000574347
0.00057563
0.000574194
0.000570689
0.000565297
0.000558851
0.000552366
0.000546993
0.000543052
0.000540679
0.000539696
0.000539713
0.000540353
0.000541654
0.000543265
0.00054444
0.000544738
0.000543908
0.000540271
0.000533347
0.000521692
0.000504095
0.000477346
0.000438199
0.000390516
0.000343358
0.000306053
0.000282545
0.000271574
0.000263088
0.000244512
0.000208599
0.000177989
0.000159691
0.000150587
0.000145607
0.000142386
0.000139767
0.000135127
0.000124063
0.000109258
9.55703e-05
8.39931e-05
7.43236e-05
6.61198e-05
5.90365e-05
5.29348e-05
4.77786e-05
4.34512e-05
3.96986e-05
3.6211e-05
3.27545e-05
2.92539e-05
2.57495e-05
2.23024e-05
1.89661e-05
1.57809e-05
1.28372e-05
1.01809e-05
7.93956e-06
6.05781e-06
4.63848e-06
3.50676e-06
2.73658e-06
2.08832e-06
0.00364878
0.00591626
0.00606872
0.00681749
0.00902881
0.0117656
0.0133509
0.0138111
0.013538
0.0125809
0.010205
0.00835238
0.00737642
0.00678776
0.00627712
0.00595798
0.00586726
0.00564855
0.00552603
0.00589902
0.00812454
0.00913207
0.00929791
0.0091013
0.0086743
0.00817407
0.00743534
0.00573739
0.00318092
0.00210662
0.00156996
0.00130198
0.00110912
0.000944466
0.000839206
0.000791342
0.000763373
0.000731864
0.000718813
0.000715435
0.00071569
0.000710235
0.000700411
0.000692663
0.000682724
0.00065344
0.000629213
0.000613106
0.000570629
0.000536074
0.000476418
0.000437516
0.000416881
0.000459478
0.0006366
0.00109774
0.00203999
0.00366511
0.00502465
0.00561603
0.00642829
0.00752014
0.008532
0.00995523
0.0117531
0.013149
0.0138672
0.0140264
0.0139666
0.0132849
0.010497
0.00867623
0.00801477
0.00790008
0.00805122
0.00936327
0.0248469
0.0425026
0.0350956
0.015362
0.00587535
0.00234444
0.00121067
0.000873974
0.000751056
0.000693518
0.000653038
0.000628611
0.000603857
0.000577197
0.000548237
0.000529942
0.000522548
0.000519797
0.000520456
0.000530539
0.000554276
0.000589522
0.000637682
0.000694175
0.000737231
0.000762624
0.000771796
0.000770459
0.000762793
0.000746221
0.000731786
0.000725976
0.000723134
0.000727348
0.000739093
0.000754441
0.000774558
0.000791802
0.000804093
0.000808818
0.000807751
0.000796152
0.000778951
0.000755528
0.000725629
0.000692217
0.000658284
0.000626291
0.000598871
0.000576288
0.000558663
0.000546001
0.000537989
0.0005339
0.00053282
0.00053361
0.000536238
0.000539291
0.000541025
0.00054119
0.000539291
0.000533028
0.000525617
0.000511895
0.000479852
0.000412298
0.000340243
0.000289077
0.000263988
0.000254114
0.000247942
0.000235973
0.000205921
0.000177647
0.000162495
0.000156627
0.000154906
0.000154103
0.000152813
0.000150162
0.000143514
0.000127397
0.000110285
9.55463e-05
8.32875e-05
7.30295e-05
6.43173e-05
5.70198e-05
5.10909e-05
4.64787e-05
4.29987e-05
4.04073e-05
3.81673e-05
3.56933e-05
3.24299e-05
2.83213e-05
2.36078e-05
1.88552e-05
1.45068e-05
1.08134e-05
7.9036e-06
5.63281e-06
4.10008e-06
2.84696e-06
0.00348025
0.00642316
0.00641852
0.00893739
0.0118553
0.0136374
0.0147489
0.0154438
0.0154051
0.0149577
0.0135992
0.0104974
0.00834133
0.00727526
0.00644747
0.00595856
0.00567486
0.00556578
0.00593247
0.00821585
0.0094688
0.00960361
0.00929809
0.00889555
0.0080238
0.00656152
0.00395543
0.00232534
0.00157832
0.00126991
0.00114053
0.00107768
0.00103151
0.000994558
0.000984771
0.00101501
0.00108335
0.00113443
0.00119147
0.0012296
0.00124433
0.0012352
0.00119177
0.00111128
0.00102615
0.00092266
0.000816528
0.000746408
0.000665745
0.000604538
0.000522778
0.000436677
0.000370881
0.000326214
0.000306143
0.000362625
0.000600058
0.00125447
0.00276575
0.0040729
0.00493359
0.00585221
0.00692676
0.00822249
0.00998912
0.0121578
0.0134245
0.0138467
0.013865
0.0136699
0.0127416
0.0100573
0.00879033
0.00833362
0.00835168
0.00907519
0.0212794
0.0303381
0.0163725
0.00618095
0.00242703
0.00122096
0.000865256
0.000749597
0.00070012
0.000664519
0.000635066
0.000605655
0.00056279
0.000541624
0.000533945
0.000532357
0.000539854
0.000574608
0.000645758
0.000768329
0.000950432
0.001171
0.00139746
0.00159536
0.00175161
0.00186061
0.00189056
0.00182136
0.00177172
0.00165747
0.00152827
0.00145588
0.00137918
0.00134334
0.00132341
0.00131676
0.00132113
0.00132139
0.00131786
0.00130517
0.001279
0.00124891
0.00121534
0.00117276
0.00111986
0.00105663
0.000990649
0.000925285
0.000861578
0.000800621
0.00074205
0.000686444
0.000635541
0.000593081
0.000562815
0.000543255
0.000531012
0.00052456
0.000522309
0.000522334
0.000524037
0.00052547
0.000525357
0.000523178
0.00051682
0.000504502
0.00047627
0.000396038
0.000309646
0.000261544
0.000241555
0.000233961
0.000228223
0.000216063
0.000188744
0.000169107
0.000159982
0.000156959
0.000156159
0.000155782
0.000154968
0.000152531
0.000144681
0.000129352
0.000114486
0.000101033
8.93293e-05
7.94869e-05
7.12161e-05
6.42699e-05
5.8512e-05
5.41672e-05
5.12053e-05
4.92561e-05
4.73712e-05
4.46398e-05
4.05148e-05
3.50535e-05
2.90516e-05
2.29466e-05
1.75864e-05
1.25076e-05
8.9629e-06
5.62643e-06
0.00398556
0.00675084
0.00652854
0.0104008
0.0125939
0.0141676
0.0153177
0.016167
0.016684
0.0163812
0.0149235
0.011815
0.00904297
0.00731659
0.00633866
0.00581286
0.00563877
0.00593034
0.00798185
0.00954347
0.00975556
0.00952346
0.00897374
0.00792593
0.00573008
0.00308791
0.00195723
0.00148201
0.00131739
0.00126245
0.00124736
0.00133471
0.00150079
0.00174639
0.00209227
0.00236376
0.00260114
0.0027836
0.00288438
0.00293626
0.00294929
0.00286491
0.00273574
0.00254408
0.00226715
0.001948
0.00160045
0.00132094
0.00106197
0.000844392
0.000683387
0.000556222
0.000432547
0.000325665
0.000272261
0.00024468
0.000267197
0.000448244
0.00108132
0.00250324
0.00399051
0.00505804
0.0059452
0.00757274
0.00865375
0.00980583
0.0119202
0.0133774
0.013759
0.0137534
0.0135124
0.0126091
0.0108113
0.00935358
0.00898697
0.0092974
0.0172115
0.0231293
0.0095187
0.0031713
0.00138838
0.000908843
0.000771016
0.000718665
0.000684852
0.000651905
0.00060952
0.000564211
0.000546607
0.000542554
0.00054523
0.000578435
0.000667517
0.000858174
0.00118536
0.00166748
0.00228798
0.00296192
0.00342244
0.00361571
0.0036694
0.00366611
0.00359484
0.00347311
0.00340908
0.00330184
0.00316805
0.00301671
0.0028149
0.00262599
0.00246324
0.00233148
0.00221145
0.00208644
0.00196598
0.00185548
0.00175002
0.0016461
0.00152406
0.0014167
0.00131238
0.00121768
0.00113561
0.00106794
0.00101248
0.000965777
0.000924112
0.000884708
0.000843651
0.000796469
0.000741229
0.000681524
0.000622763
0.000574046
0.000543604
0.000526373
0.000519172
0.000517565
0.00051695
0.000515818
0.000512384
0.000505922
0.000497878
0.000481208
0.000432602
0.000330866
0.000262181
0.000230719
0.000220621
0.000215877
0.000209201
0.00019165
0.000170319
0.000158944
0.000154817
0.000153779
0.000153276
0.000152352
0.000150162
0.000143708
0.000130648
0.000117135
0.000104161
9.27388e-05
8.33826e-05
7.58267e-05
6.93764e-05
6.37181e-05
5.90095e-05
5.54748e-05
5.30566e-05
5.1007e-05
4.87187e-05
4.51067e-05
4.07197e-05
3.48651e-05
2.94774e-05
2.29524e-05
1.83404e-05
1.24452e-05
0.0041421
0.00689182
0.00691853
0.0111249
0.0127509
0.0142545
0.0154927
0.0163225
0.016524
0.0160725
0.0143904
0.0114243
0.00870499
0.00693384
0.00602778
0.00581283
0.00602638
0.00784494
0.0094569
0.00975977
0.00964424
0.00902819
0.00770134
0.00497336
0.00276823
0.00186369
0.0015529
0.00146409
0.00144547
0.00161867
0.00200229
0.00263833
0.00309747
0.00349789
0.00372826
0.00385734
0.00397703
0.00403312
0.00406077
0.00406954
0.00406213
0.00403911
0.00399247
0.00391361
0.00377448
0.00353777
0.00316804
0.00265178
0.00201788
0.00153677
0.00108731
0.000804397
0.00059399
0.000402597
0.000296494
0.000229961
0.000199902
0.000195068
0.000274277
0.00059139
0.00160285
0.00335766
0.00501435
0.00732771
0.00900562
0.00931727
0.00982836
0.0114908
0.0131926
0.0136475
0.0136391
0.0134115
0.0126478
0.0113487
0.0103789
0.0103538
0.0152287
0.0191571
0.00776819
0.00204645
0.00105379
0.000827109
0.000758524
0.000712808
0.000674263
0.000631944
0.000575171
0.000553146
0.000548793
0.000556846
0.000605772
0.000750645
0.00107277
0.00168439
0.00269929
0.00405504
0.00466362
0.00491473
0.00498213
0.00484738
0.004442
0.00413224
0.00389171
0.00378541
0.00373725
0.00371099
0.00370671
0.00367258
0.00362442
0.00354211
0.0034126
0.00326529
0.00310638
0.0029068
0.00260818
0.00229434
0.00204058
0.0018278
0.00165444
0.00150818
0.0013675
0.00124764
0.0011535
0.00107803
0.00101897
0.000972447
0.000934749
0.000904733
0.000879874
0.000855209
0.000829369
0.000805005
0.000778123
0.000733654
0.000665413
0.000597044
0.000555642
0.000539425
0.000531773
0.000525918
0.000521657
0.000515039
0.000499738
0.00048509
0.000468859
0.000433046
0.000339339
0.000259772
0.000221413
0.000209013
0.000204304
0.000198842
0.000186892
0.000167427
0.000154582
0.000148668
0.000147046
0.000146549
0.000145626
0.000143181
0.00013626
0.000124762
0.000113121
0.000101652
9.11806e-05
8.25004e-05
7.56294e-05
6.98708e-05
6.46878e-05
5.98135e-05
5.58173e-05
5.25534e-05
5.0527e-05
4.82193e-05
4.62024e-05
4.22289e-05
3.85416e-05
3.2409e-05
2.7967e-05
2.11071e-05
0.00419456
0.00693599
0.00734869
0.0113024
0.012187
0.013116
0.0140875
0.0146866
0.0149267
0.0145368
0.0127218
0.00989619
0.00755159
0.00647654
0.00610616
0.00627811
0.00793202
0.00931459
0.00964159
0.00963406
0.00903899
0.00751777
0.0044508
0.0026576
0.00189699
0.00166395
0.00161395
0.0017045
0.00213569
0.00302661
0.00363262
0.00393599
0.00410863
0.00419215
0.00422455
0.00423614
0.0042393
0.00423205
0.00421637
0.0042081
0.00420508
0.00420408
0.00420595
0.00420754
0.00414213
0.00407107
0.00401669
0.00378165
0.00341574
0.00275956
0.0020777
0.00139516
0.00092955
0.000570292
0.000386144
0.000258191
0.00019593
0.000166766
0.000153637
0.000186416
0.000347283
0.000858477
0.00227792
0.0057865
0.00928997
0.0109135
0.0105779
0.0100182
0.0106974
0.0127234
0.0134159
0.013409
0.0131628
0.0126783
0.0115145
0.010867
0.0141546
0.0169485
0.00759492
0.00168924
0.000943263
0.000816449
0.000761111
0.00071277
0.000661917
0.000597571
0.000562737
0.000554869
0.000559998
0.000607694
0.000770334
0.00117667
0.00205018
0.00375077
0.00542161
0.00606494
0.00629823
0.00634532
0.00602938
0.0054162
0.00498749
0.00432538
0.00374206
0.00334128
0.00314666
0.0031455
0.0033393
0.00353438
0.0036115
0.00363526
0.00356936
0.00346245
0.00334657
0.00320597
0.00297028
0.0025842
0.00221868
0.00194982
0.00173547
0.00154977
0.00138224
0.0012469
0.00112379
0.00101256
0.000924255
0.000858812
0.000810565
0.000779568
0.000768787
0.000759582
0.000760115
0.000767066
0.000779309
0.000782485
0.000773857
0.000734275
0.000661592
0.000610543
0.000583718
0.000565601
0.000553878
0.000546364
0.000531974
0.000504765
0.000483883
0.0004652
0.00042554
0.000328592
0.000248891
0.00020996
0.000196244
0.000192024
0.000187197
0.000178482
0.000161536
0.00014847
0.00014117
0.000138238
0.000137146
0.000136074
0.000133531
0.000126844
0.000117135
0.000107317
9.73336e-05
8.78587e-05
7.99378e-05
7.36191e-05
6.85641e-05
6.37411e-05
5.93941e-05
5.49424e-05
5.17834e-05
4.86727e-05
4.72197e-05
4.47031e-05
4.29755e-05
3.90107e-05
3.6007e-05
2.96697e-05
0.00419836
0.00692582
0.00772937
0.0107903
0.0119133
0.0125128
0.0128852
0.0130367
0.0126021
0.0116832
0.0100331
0.0081488
0.00713371
0.00668729
0.00680044
0.0082015
0.00919905
0.00946472
0.00948557
0.00888714
0.00707468
0.00415073
0.00262989
0.00198096
0.00178538
0.00175082
0.00196844
0.00267984
0.00361892
0.00401253
0.00417652
0.00422272
0.00421887
0.00414627
0.0040792
0.00400211
0.00394627
0.00391144
0.00388837
0.00386931
0.00385072
0.00382319
0.00381105
0.00381695
0.00391415
0.00405775
0.00414331
0.00407891
0.00397138
0.00366151
0.00319519
0.0025517
0.00162322
0.000953241
0.000562813
0.000344293
0.000225365
0.000167852
0.000144893
0.000134421
0.000148626
0.000228895
0.000517929
0.00209722
0.00742905
0.011239
0.0125104
0.0121782
0.0101684
0.00998613
0.0115227
0.0128681
0.012943
0.0127235
0.0117661
0.0109769
0.0136159
0.015705
0.00775542
0.00172505
0.000939152
0.000821013
0.000773311
0.000714321
0.000643387
0.000581381
0.000563001
0.000560579
0.000590375
0.000726938
0.00115526
0.00220429
0.00405972
0.0062478
0.00719553
0.00764763
0.0083029
0.00866589
0.00881979
0.00837782
0.0068859
0.00555794
0.00423518
0.0032854
0.00268079
0.00237051
0.00224901
0.002423
0.00277977
0.00318963
0.00339094
0.00340811
0.00334971
0.0032455
0.003059
0.00270402
0.00230324
0.00200686
0.00177236
0.00156286
0.00137496
0.00117957
0.000987588
0.00081269
0.000659889
0.000558348
0.000493754
0.000466405
0.00047315
0.000507811
0.000555073
0.000583437
0.000613416
0.000660758
0.000713701
0.00074493
0.000745618
0.00071874
0.000672758
0.000637225
0.000611637
0.000598419
0.000589053
0.000569491
0.0005218
0.000489188
0.000464346
0.00040995
0.000306503
0.00023163
0.000195883
0.000182829
0.000179206
0.000175249
0.000168705
0.000154086
0.000140936
0.000132752
0.000128821
0.000127083
0.000125875
0.000123485
0.000117691
0.000109655
0.000101398
9.26637e-05
8.41491e-05
7.66582e-05
7.10566e-05
6.63057e-05
6.24559e-05
5.79896e-05
5.44534e-05
5.03792e-05
4.79207e-05
4.5144e-05
4.38503e-05
4.14118e-05
3.98214e-05
3.62007e-05
0.00404213
0.00672851
0.00785201
0.0101922
0.0110238
0.0115848
0.0117851
0.0117903
0.0110695
0.0100989
0.0089199
0.00804318
0.0075709
0.00777317
0.00867781
0.00915281
0.00928182
0.00927058
0.00863487
0.00656321
0.00394965
0.00263905
0.00207265
0.00189226
0.0018616
0.00211095
0.00296409
0.00381619
0.00416215
0.00427994
0.00430805
0.00427256
0.00422463
0.00413548
0.00409173
0.00407093
0.00407561
0.00409259
0.00409758
0.00407201
0.00401934
0.00393049
0.00378913
0.00361922
0.00352069
0.0034747
0.00349906
0.00383182
0.00407985
0.00397312
0.00366666
0.00336742
0.0027954
0.00170292
0.000928039
0.000531516
0.000309508
0.000192711
0.000146093
0.0001307
0.000125075
0.000133434
0.000183457
0.000505462
0.00280405
0.00918339
0.0123432
0.013592
0.0135638
0.0109873
0.00976115
0.0102237
0.0118312
0.0122344
0.0116064
0.010921
0.0133911
0.0149607
0.0079883
0.00182641
0.000953607
0.000842763
0.000788512
0.000720235
0.000630858
0.000578468
0.000565206
0.000573959
0.000662814
0.0010056
0.00182611
0.00338054
0.00641576
0.00833709
0.00925775
0.0111724
0.013518
0.0157224
0.0166077
0.0157287
0.0134051
0.00991243
0.00686905
0.00448604
0.0030249
0.00231899
0.00201777
0.00189082
0.00196498
0.00220951
0.00270659
0.00299744
0.00311337
0.00312547
0.00304011
0.00273709
0.00232716
0.00202253
0.00178302
0.00155224
0.00128282
0.0010026
0.000728119
0.000500994
0.000391984
0.000352691
0.000343608
0.000354221
0.000381513
0.000466729
0.000555007
0.000584812
0.000587908
0.00058347
0.000583415
0.00061772
0.000685868
0.000715765
0.000721384
0.000715574
0.000683488
0.000652241
0.00063845
0.000625136
0.000592305
0.000521982
0.000482054
0.000448413
0.000372299
0.000273817
0.000209673
0.000180165
0.000169764
0.000166725
0.00016396
0.000158663
0.000145938
0.000132757
0.000124099
0.000119584
0.000117483
0.000116334
0.000114521
0.000110262
0.00010343
9.5977e-05
8.83136e-05
8.03629e-05
7.36125e-05
6.78916e-05
6.40657e-05
6.01935e-05
5.71465e-05
5.32013e-05
5.01149e-05
4.65044e-05
4.43581e-05
4.18938e-05
4.07243e-05
3.8624e-05
0.00385928
0.00652884
0.00787192
0.00978445
0.0104768
0.0107842
0.0108859
0.0107322
0.0101687
0.00959024
0.00898836
0.00870757
0.00871019
0.00889525
0.00912467
0.00916411
0.00901807
0.00831546
0.00616817
0.00387514
0.00267768
0.00215722
0.00198025
0.00194572
0.00215162
0.00298649
0.00389188
0.00427274
0.00440957
0.00444485
0.0044271
0.00438525
0.00434427
0.00429349
0.00427049
0.00426067
0.00426676
0.00427341
0.00427273
0.00429605
0.00431808
0.00432753
0.00430746
0.00418537
0.00384144
0.00347952
0.0033153
0.00326484
0.00350619
0.00397947
0.00387258
0.00363493
0.00340377
0.00268139
0.0015236
0.000823444