/*--------------------------------*- C++ -*----------------------------------*\
  =========                 |
  \\      /  F ield         | OpenFOAM: The Open Source CFD Toolbox
   \\    /   O peration     | Website:  https://openfoam.org
    \\  /    A nd           | Version:  7
     \\/     M anipulation  |
\*---------------------------------------------------------------------------*/
FoamFile
{
    version     2.0;
    format      ascii;
    class       volScalarField;
    location    "0.095";
    object      s_0;
}
// * * * * * * * * * * * * * * * * * * * * * * * * * * * * * * * * * * * * * //

dimensions      [0 0 0 0 0 0 0];

internalField   nonuniform List<scalar> 
12225
(
1
1
1
1
1
1
1
1
1
1
1
1
1
1
1
1
1
1
1
1
1
1
1
1
1
1
1
1
1
1
1
1
1
1
1
1
1
1
1
1
1
1
1
1
1
1
1
1
1
1
1
1
1
1
1
1
1
1
1
1
1
1
1
1
1
1
1
1
1
1
1
1
1
1
1
1
1
1
1
1
1
1
1
1
1
1
1
1
1
1
1
1
1
1
1
1
1
1
1
1
1
1
1
1
1
1
1
1
1
1
1
1
1
1
1
1
1
1
1
1
1
1
1
1
1
1
1
1
1
1
1
1
1
1
1
1
1
1
1
1
1
1
1
1
1
1
1
1
1
1
1
1
1
1
1
1
1
1
1
1
1
1
1
1
1
1
1
1
1
1
1
1
1
1
1
1
1
1
1
1
1
1
1
1
1
1
1
1
1
1
1
1
1
1
1
1
1
1
1
1
1
1
1
1
1
1
1
1
1
1
1
1
1
1
1
1
1
1
1
1
1
1
1
1
1
1
1
1
1
1
1
1
1
1
1
1
1
1
1
1
1
1
1
1
1
1
1
1
1
1
1
1
1
1
1
1
1
1
1
1
1
1
1
1
1
1
1
1
1
1
1
1
1
1
1
1
1
1
1
1
1
1
1
1
1
1
1
1
1
1
1
1
1
1
1
1
1
1
1
1
1
1
1
1
1
1
1
1
1
1
1
1
1
1
1
1
1
1
1
1
1
1
1
1
1
1
1
1
1
1
1
1
1
1
1
1
1
1
1
1
1
1
1
1
1
1
1
1
1
1
1
1
1
1
1
1
1
1
1
1
1
1
1
1
1
1
1
1
1
1
1
1
1
1
1
1
1
1
1
1
1
1
1
1
1
1
1
1
1
1
1
1
1
1
1
1
1
1
1
1
1
1
1
1
1
1
1
1
1
1
1
1
1
1
1
1
1
1
1
1
1
1
1
1
1
1
1
1
1
1
1
1
1
1
1
1
1
1
1
1
1
1
1
1
1
1
1
1
1
1
1
1
1
1
1
1
1
1
1
1
1
1
1
1
1
1
1
1
1
1
1
1
1
1
1
1
1
1
1
1
1
1
1
1
1
1
1
1
1
1
1
1
1
1
1
1
1
1
1
1
1
1
1
1
1
1
1
1
1
1
1
1
1
1
1
1
1
1
1
1
1
1
1
1
1
1
1
1
1
1
1
1
1
1
1
1
1
1
1
1
0.152755
0.164031
0.227042
0.281396
0.2961
0.290468
0.272724
0.225765
0.20735
0.206619
0.222914
0.273479
0.322432
0.354056
0.377889
0.398578
0.409618
0.414681
0.417736
0.420869
0.421856
0.421895
0.421087
0.418455
0.413374
0.404673
0.383667
0.324275
0.265077
0.255501
0.257254
0.266651
0.269912
0.271004
0.272879
0.278779
0.291717
0.314147
0.347636
0.391839
0.442744
0.491699
0.524252
0.550364
0.571934
0.591007
0.606407
0.61826
0.627551
0.633952
0.637187
0.639404
0.64204
0.650706
0.67242
0.700295
0.698762
0.684112
0.65319
0.628613
0.601713
0.543089
0.387761
0.264497
0.233934
0.27245
0.38123
0.404972
0.390087
0.347509
0.306435
0.294019
0.327713
0.372604
0.383681
0.388028
0.404731
0.406432
0.405212
0.418917
0.482812
0.655914
0.799103
0.863391
0.879772
0.882396
0.883392
0.883981
0.884596
0.885012
0.885108
0.885134
0.885146
0.885146
0.885101
0.884946
0.884631
0.884187
0.883706
0.883167
0.882428
0.881832
0.881583
0.881525
0.881553
0.881544
0.881539
0.881585
0.881715
0.881917
0.882182
0.882335
0.882701
0.883257
0.883949
0.884742
0.885799
0.887225
0.888782
0.890517
0.892239
0.894132
0.895892
0.897544
0.899066
0.900443
0.901615
0.902623
0.903472
0.904153
0.904606
0.90472
0.904469
0.903422
0.900582
0.896207
0.892419
0.889838
0.887133
0.882084
0.870421
0.848866
0.82956
0.8167
0.803926
0.779308
0.722567
0.59087
0.416399
0.249348
0.125709
0.0536863
0.0197654
0.00642128
0.00187746
0.000503639
0.000145781
7.32159e-05
3.73124e-05
1.87543e-05
9.35158e-06
4.67051e-06
2.35438e-06
1.20395e-06
6.25546e-07
3.29549e-07
1.75138e-07
9.32762e-08
4.94493e-08
2.59434e-08
1.34051e-08
6.79836e-09
3.3731e-09
1.63424e-09
7.70554e-10
3.52826e-10
1.5644e-10
6.56778e-11
2.90409e-11
-4.56105e-12
0.162576
0.333179
0.483097
0.505283
0.498796
0.482349
0.47248
0.467768
0.451366
0.412781
0.315276
0.285102
0.286016
0.292581
0.318094
0.381854
0.407902
0.421347
0.435105
0.443069
0.444685
0.442046
0.427584
0.398025
0.382437
0.377306
0.366384
0.331329
0.317835
0.351444
0.468315
0.548575
0.575076
0.602914
0.665491
0.738717
0.786
0.818419
0.864024
0.911846
0.933915
0.944765
0.954384
0.96043
0.965828
0.969692
0.971343
0.972007
0.972161
0.971374
0.968774
0.964236
0.95717
0.94694
0.930322
0.905242
0.856356
0.815913
0.786304
0.777054
0.778353
0.779425
0.770552
0.691136
0.429071
0.327988
0.331124
0.371266
0.372305
0.344796
0.350267
0.391609
0.422158
0.408367
0.351643
0.350095
0.409306
0.493057
0.532553
0.546138
0.595462
0.786763
0.867393
0.877885
0.879813
0.879839
0.878511
0.876158
0.873007
0.868774
0.863207
0.856683
0.849149
0.840645
0.831477
0.821693
0.813492
0.806312
0.800253
0.795907
0.791904
0.789504
0.788068
0.786842
0.786151
0.785813
0.785658
0.785613
0.785507
0.785749
0.786135
0.786322
0.78721
0.788323
0.789884
0.791996
0.794861
0.798637
0.803552
0.80971
0.816696
0.825014
0.834288
0.844176
0.854265
0.86447
0.874418
0.88373
0.892052
0.898978
0.905155
0.910814
0.915889
0.920286
0.924022
0.927205
0.929894
0.932292
0.934527
0.93645
0.937742
0.938126
0.937574
0.934588
0.924175
0.91414
0.903135
0.878987
0.842321
0.802146
0.748374
0.671737
0.593681
0.547003
0.535009
0.535324
0.534273
0.518426
0.449822
0.346202
0.261293
0.192684
0.138071
0.0958542
0.0643395
0.0417132
0.0261086
0.0157865
0.00922371
0.00521704
0.0028559
0.00151748
0.000780546
0.000390755
0.000188757
8.88861e-05
4.0363e-05
1.68824e-05
9.31251e-06
-8.88413e-06
0.296239
0.546874
0.553612
0.5385
0.509605
0.47263
0.449085
0.450288
0.461631
0.472421
0.467254
0.440004
0.388575
0.323228
0.315002
0.326782
0.368967
0.41142
0.445466
0.458816
0.44393
0.412989
0.384875
0.375535
0.375751
0.386161
0.397682
0.42144
0.521602
0.73081
0.832981
0.873038
0.894712
0.919938
0.946766
0.968234
0.977595
0.985218
0.991322
0.994062
0.995281
0.995746
0.996108
0.996255
0.996293
0.996268
0.995994
0.995158
0.99367
0.991118
0.987044
0.980459
0.969629
0.952301
0.923642
0.871089
0.788851
0.717735
0.682904
0.671952
0.674057
0.691248
0.732989
0.74037
0.710865
0.545007
0.393141
0.377882
0.371747
0.339365
0.297107
0.328897
0.335879
0.276849
0.268936
0.296876
0.431864
0.531395
0.588798
0.71289
0.820958
0.866184
0.87414
0.875514
0.872388
0.865635
0.855068
0.839584
0.817436
0.795503
0.774291
0.756572
0.7421
0.730909
0.724818
0.721776
0.72036
0.719983
0.720807
0.723023
0.724864
0.727132
0.728552
0.731093
0.732589
0.734114
0.73576
0.737759
0.738967
0.740743
0.742424
0.743864
0.745337
0.746673
0.747734
0.74845
0.748683
0.748567
0.748145
0.747795
0.747865
0.748577
0.749762
0.751702
0.755118
0.760226
0.767304
0.776415
0.788123
0.802921
0.819901
0.838343
0.857611
0.876185
0.89169
0.903876
0.913594
0.921095
0.926767
0.931079
0.934834
0.938817
0.942785
0.945124
0.94542
0.944589
0.939766
0.922606
0.904244
0.893493
0.885977
0.879977
0.877935
0.87899
0.884775
0.894096
0.900018
0.901718
0.90024
0.888136
0.863811
0.849038
0.833097
0.798839
0.70684
0.564758
0.429731
0.316753
0.228023
0.160509
0.109983
0.0735164
0.0475402
0.0299731
0.0181393
0.0107347
0.00604324
0.00330977
0.00179061
0.000743055
0.58552
0.585541
0.563905
0.503249
0.426327
0.379705
0.349624
0.340049
0.344942
0.363828
0.417442
0.44196
0.441395
0.420971
0.363544
0.337387
0.352876
0.394411
0.454227
0.458198
0.413395
0.377855
0.376144
0.379595
0.3963
0.449862
0.551648
0.732872
0.863132
0.924567
0.957479
0.971736
0.979999
0.987151
0.991908
0.994677
0.995816
0.996433
0.996701
0.996766
0.996731
0.996617
0.996574
0.996598
0.996615
0.9966
0.996543
0.996075
0.995466
0.994533
0.991979
0.986307
0.976062
0.957544
0.924202
0.86737
0.784123
0.704095
0.665726
0.646626
0.637655
0.637942
0.656006
0.699515
0.707455
0.685327
0.566867
0.429857
0.392573
0.35184
0.298674
0.26556
0.248588
0.244939
0.257154
0.30199
0.535482
0.736951
0.791689
0.835441
0.86223
0.868763
0.869134
0.860656
0.843149
0.813209
0.780787
0.750692
0.730661
0.715874
0.707972
0.704517
0.703612
0.704479
0.708386
0.712447
0.718707
0.725032
0.732497
0.739546
0.745501
0.750819
0.754819
0.758352
0.762018
0.765211
0.767806
0.770918
0.773988
0.776517
0.77974
0.782335
0.784827
0.786801
0.788076
0.788722
0.787925
0.785381
0.780526
0.772457
0.763632
0.756149
0.75135
0.747608
0.744909
0.743445
0.743201
0.743946
0.745685
0.748287
0.752009
0.757866
0.767136
0.782026
0.805051
0.833835
0.862183
0.885783
0.904201
0.918642
0.929003
0.934915
0.937367
0.939271
0.944311
0.951856
0.954613
0.954345
0.950966
0.935633
0.913195
0.902968
0.900936
0.901346
0.904472
0.916797
0.937487
0.953673
0.963739
0.968391
0.969838
0.970014
0.969422
0.965347
0.951152
0.938372
0.926098
0.901473
0.838373
0.682701
0.512047
0.369102
0.257458
0.175341
0.115188
0.0738518
0.0454487
0.0270173
0.0159575
0.0078125
0.595876
0.578328
0.516254
0.435132
0.377199
0.341446
0.32212
0.308239
0.306795
0.311207
0.330431
0.40065
0.438485
0.44493
0.429264
0.379839
0.369109
0.404485
0.458904
0.432082
0.381629
0.377475
0.383962
0.409903
0.486053
0.6661
0.850234
0.92484
0.96211
0.978744
0.985997
0.988983
0.990489
0.991435
0.991875
0.992031
0.991207
0.990063
0.989278
0.988437
0.987979
0.987798
0.988052
0.988818
0.990462
0.99144
0.993486
0.994463
0.995483
0.995844
0.995981
0.995822
0.994107
0.989599
0.977986
0.950415
0.888575
0.778737
0.697942
0.656929
0.636551
0.628227
0.63153
0.664659
0.694495
0.696027
0.674055
0.57071
0.455541
0.392925
0.325286
0.276111
0.252439
0.251557
0.263337
0.306619
0.558647
0.806269
0.841808
0.857215
0.862653
0.861818
0.846371
0.811201
0.771214
0.739978
0.71638
0.70391
0.698225
0.696725
0.699972
0.704181
0.71028
0.722478
0.739437
0.752686
0.762808
0.770994
0.774748
0.77715
0.779382
0.781216
0.78427
0.786167
0.78921
0.792412
0.79526
0.797932
0.801385
0.803425
0.806296
0.808475
0.810661
0.812532
0.814725
0.817059
0.819944
0.823382
0.827191
0.830061
0.828959
0.823566
0.813328
0.801188
0.787989
0.775967
0.766699
0.759386
0.754092
0.750858
0.749583
0.749647
0.751259
0.75471
0.759677
0.769045
0.786608
0.811779
0.839202
0.866765
0.894536
0.919198
0.935331
0.942689
0.944936
0.945869
0.947756
0.954196
0.958589
0.958409
0.954462
0.936977
0.916317
0.907149
0.905433
0.906437
0.912758
0.932389
0.950792
0.964557
0.975553
0.983265
0.987434
0.988831
0.988943
0.988705
0.987774
0.985486
0.980466
0.969643
0.945055
0.878101
0.704045
0.516526
0.36199
0.245357
0.161336
0.101613
0.0646023
0.0347754
0.59973
0.568243
0.499459
0.418286
0.363022
0.331258
0.314739
0.301406
0.295416
0.296
0.30267
0.332872
0.414244
0.449918
0.451527
0.433282
0.423265
0.441834
0.443729
0.391984
0.38284
0.389042
0.424058
0.516798
0.733758
0.891801
0.951221
0.973533
0.981923
0.984798
0.985722
0.985895
0.983416
0.980226
0.976025
0.971051
0.966585
0.962224
0.959367
0.957578
0.956954
0.957722
0.959817
0.963141
0.968595
0.972683
0.979437
0.984485
0.99025
0.993504
0.9958
0.996843
0.997296
0.997465
0.996264
0.99159
0.977523
0.939349
0.839365
0.733602
0.670187
0.634823
0.62213
0.626498
0.660302
0.692167
0.693353
0.673025
0.597629
0.487461
0.401309
0.322482
0.279223
0.275997
0.285364
0.311125
0.505899
0.810111
0.850335
0.856546
0.855256
0.833132
0.78772
0.747616
0.717239
0.699914
0.691639
0.689136
0.692807
0.698161
0.708253
0.725714
0.751075
0.763444
0.770318
0.773212
0.774265
0.774372
0.7727
0.769215
0.767713
0.767113
0.767536
0.768851
0.771399
0.775404
0.780377
0.78518
0.790413
0.793971
0.797514
0.800599
0.803592
0.806204
0.809395
0.813247
0.81814
0.823795
0.830582
0.839166
0.847045
0.852546
0.855209
0.855281
0.852485
0.84411
0.831692
0.818045
0.80447
0.791968
0.78108
0.772142
0.765549
0.761739
0.760599
0.761252
0.765304
0.777758
0.803123
0.82873
0.850517
0.874774
0.904456
0.930849
0.945962
0.951293
0.952489
0.953389
0.955312
0.960733
0.962534
0.961398
0.953714
0.930396
0.914676
0.90909
0.90845
0.909728
0.917225
0.939741
0.960233
0.974056
0.983163
0.989209
0.993032
0.995057
0.995812
0.995919
0.995804
0.995186
0.993138
0.987224
0.971017
0.925511
0.786061
0.57936
0.409357
0.272423
0.184153
0.106904
0.603932
0.564827
0.499567
0.41585
0.360126
0.3298
0.31346
0.299238
0.292083
0.293092
0.301839
0.33498
0.421403
0.46768
0.47548
0.461533
0.447643
0.438647
0.405892
0.393637
0.398427
0.438809
0.542334
0.770371
0.906424
0.95828
0.974486
0.978898
0.979999
0.978267
0.970444
0.958336
0.943502
0.933888
0.922604
0.917172
0.911926
0.908959
0.907457
0.906845
0.906926
0.908126
0.910529
0.914151
0.919804
0.928589
0.939901
0.953976
0.968599
0.979821
0.988633
0.994078
0.996748
0.997916
0.998275
0.998122
0.996005
0.988674
0.967941
0.912006
0.802891
0.697339
0.638
0.61687
0.618181
0.64365
0.686175
0.69247
0.678735
0.636834
0.535895
0.42167
0.356262
0.329028
0.318861
0.323132
0.439583
0.785766
0.849242
0.851614
0.831208
0.778348
0.735823
0.705717
0.690543
0.684637
0.682905
0.688518
0.696367
0.712201
0.743029
0.757918
0.764138
0.766026
0.766344
0.761142
0.74964
0.743687
0.741409
0.741055
0.741238
0.741251
0.740556
0.73906
0.736967
0.734877
0.733746
0.734262
0.737278
0.742879
0.748845
0.755073
0.761894
0.768751
0.776821
0.786346
0.797301
0.809772
0.824332
0.839482
0.851931
0.862011
0.869612
0.87455
0.877144
0.877824
0.87687
0.87168
0.860948
0.847834
0.833358
0.818927
0.805287
0.792959
0.782879
0.776215
0.773492
0.773554
0.777488
0.797238
0.833711
0.857422
0.876194
0.901295
0.92876
0.948089
0.956619
0.958467
0.959006
0.960147
0.963672
0.966764
0.966604
0.963378
0.947911
0.926157
0.916564
0.914732
0.915505
0.920224
0.937014
0.957595
0.972844
0.983258
0.989883
0.993963
0.996437
0.997785
0.998335
0.998434
0.998367
0.997936
0.996322
0.991138
0.97534
0.927457
0.785068
0.569633
0.418262
0.262602
0.609705
0.571622
0.531024
0.437097
0.373425
0.344501
0.327761
0.315406
0.302429
0.301444
0.315271
0.368027
0.457307
0.48382
0.480322
0.462555
0.441823
0.419685
0.408584
0.414215
0.46477
0.598239
0.788722
0.910485
0.95722
0.970962
0.973727
0.97376
0.963962
0.944526
0.923456
0.912364
0.903255
0.898747
0.89509
0.893366
0.892466
0.892156
0.892148
0.893016
0.893531
0.894335
0.895257
0.896358
0.89773
0.900144
0.904033
0.910645
0.92287
0.943897
0.967445
0.982415
0.991478
0.996081
0.998173
0.998884
0.999114
0.998471
0.99555
0.986177
0.958749
0.877963
0.740891
0.656071
0.622549
0.615784
0.62732
0.673383
0.690924
0.684817
0.655261
0.574591
0.475331
0.390336
0.35271
0.352236
0.422318
0.740637
0.844478
0.840179
0.786968
0.737661
0.701964
0.68459
0.678537
0.677011
0.682982
0.692357
0.713286
0.744879
0.757546
0.760858
0.761461
0.755693
0.740481
0.732254
0.729781
0.730866
0.737353
0.742952
0.746905
0.749129
0.749935
0.74659
0.740642
0.733049
0.726412
0.720367
0.716203
0.714094
0.7137
0.715205
0.718576
0.723718
0.732298
0.748414
0.770289
0.79697
0.821497
0.841678
0.859236
0.873782
0.886193
0.895395
0.901144
0.903045
0.902961
0.902462
0.900774
0.895463
0.883272
0.8669
0.848308
0.829883
0.813227
0.799276
0.789282
0.784262
0.783368
0.784917
0.796128
0.835725
0.868293
0.886599
0.907495
0.932435
0.951684
0.96172
0.964451
0.964735
0.96539
0.967567
0.971161
0.971591
0.970198
0.962598
0.942134
0.929759
0.926581
0.927099
0.930925
0.944445
0.962035
0.975291
0.984703
0.990987
0.994873
0.99714
0.998412
0.99905
0.999268
0.999282
0.999181
0.998653
0.996719
0.990291
0.970339
0.90319
0.752471
0.522638
0.620627
0.601813
0.56211
0.470131
0.395419
0.367804
0.356004
0.348846
0.342207
0.342898
0.373907
0.443227
0.477416
0.484146
0.474126
0.450739
0.434285
0.425529
0.435877
0.494782
0.653524
0.804515
0.90995
0.953331
0.96666
0.96928
0.96672
0.950859
0.920289
0.90629
0.897766
0.893528
0.891144
0.890181
0.889845
0.889824
0.890377
0.890772
0.891558
0.892293
0.893168
0.893965
0.895006
0.895624
0.896157
0.896616
0.897672
0.89898
0.901802
0.908151
0.923141
0.95321
0.976768
0.989122
0.995442
0.998282
0.999285
0.999554
0.999483
0.998456
0.994362
0.97937
0.922943
0.784848
0.700669
0.652965
0.621839
0.617907
0.652481
0.682864
0.681171
0.661646
0.596381
0.496037
0.435304
0.41773
0.446773
0.691995
0.834729
0.816109
0.752526
0.708403
0.683248
0.673639
0.67136
0.675962
0.685484
0.705259
0.740621
0.754436
0.757381
0.75732
0.745447
0.727624
0.722718
0.722936
0.731373
0.739658
0.745918
0.755825
0.763073
0.77074
0.776266
0.778743
0.778484
0.772928
0.759925
0.74201
0.723434
0.713712
0.70989
0.708709
0.70878
0.710594
0.715265
0.72727
0.756521
0.792306
0.822163
0.854107
0.880066
0.900555
0.918055
0.931336
0.941732
0.949876
0.952245
0.951829
0.950086
0.947291
0.942686
0.933199
0.916348
0.892749
0.867241
0.842716
0.82069
0.803737
0.794227
0.791781
0.792682
0.799657
0.83251
0.879426
0.904568
0.921283
0.940295
0.956775
0.9663
0.96963
0.970088
0.970578
0.972042
0.975574
0.976567
0.976011
0.972476
0.95987
0.948392
0.944281
0.944172
0.946371
0.955258
0.969324
0.980086
0.987638
0.992664
0.995852
0.99775
0.998803
0.999351
0.999581
0.999627
0.9996
0.999404
0.99859
0.995756
0.986295
0.958877
0.850986
0.630239
0.619251
0.588129
0.501049
0.413626
0.38755
0.380727
0.380649
0.388717
0.404297
0.433844
0.463765
0.47428
0.472883
0.456472
0.449225
0.444699
0.464077
0.540444
0.703121
0.819696
0.908894
0.948331
0.96164
0.964527
0.960685
0.940795
0.911094
0.898868
0.89323
0.890513
0.88923
0.888619
0.888382
0.888337
0.888667
0.889189
0.889631
0.890332
0.891311
0.892636
0.894084
0.896075
0.897767
0.899255
0.900246
0.899552
0.898873
0.898695
0.899399
0.902633
0.913695
0.944925
0.973508
0.988155
0.99529
0.998397
0.999501
0.999776
0.999818
0.999453
0.997327
0.985888
0.930029
0.826147
0.775279
0.721725
0.646974
0.608644
0.624635
0.665442
0.665904
0.652072
0.614108
0.530978
0.462765
0.471098
0.662443
0.819464
0.794332
0.727726
0.689685
0.672028
0.6672
0.667764
0.676387
0.69188
0.729887
0.749491
0.754476
0.754962
0.744743
0.722321
0.716307
0.715484
0.717683
0.723786
0.725244
0.725075
0.729615
0.741693
0.757878
0.773763
0.781759
0.785962
0.787325
0.785944
0.779569
0.763942
0.735408
0.716914
0.70928
0.707184
0.707152
0.70949
0.719126
0.748573
0.791045
0.835492
0.875799
0.908808
0.935187
0.955843
0.968469
0.976482
0.982198
0.985784
0.986975
0.986931
0.986319
0.984679
0.981864
0.976279
0.963524
0.935112
0.899812
0.870014
0.846143
0.825569
0.81092
0.80563
0.806398
0.812926
0.84243
0.890977
0.919593
0.936876
0.951724
0.964137
0.971447
0.974277
0.97493
0.975389
0.976598
0.979818
0.981346
0.981254
0.979738
0.973202
0.964908
0.961486
0.960983
0.961953
0.966713
0.976939
0.985125
0.99084
0.994586
0.996932
0.99834
0.999135
0.999551
0.99974
0.999791
0.999785
0.999704
0.999337
0.997994
0.993602
0.970658
0.634748
0.640715
0.635397
0.562162
0.450254
0.412671
0.403953
0.404031
0.421167
0.432621
0.4547
0.464795
0.467602
0.46484
0.458867
0.463538
0.494884
0.596337
0.75338
0.845056
0.905198
0.943729
0.956688
0.959817
0.956712
0.937037
0.908428
0.896295
0.891132
0.888739
0.887127
0.885836
0.884955
0.883815
0.882719
0.881778
0.881054
0.880776
0.880894
0.881588
0.883136
0.885552
0.889
0.893734
0.898773
0.901997
0.903464
0.90404
0.90151
0.898841
0.898227
0.900189
0.910345
0.9438
0.974231
0.988948
0.995824
0.998657
0.99964
0.999883
0.999921
0.999722
0.99787
0.98315
0.899278
0.8315
0.810035
0.787639
0.705387
0.601635
0.594228
0.628805
0.640725
0.628332
0.564096
0.478539
0.481838
0.650626
0.801706
0.775652
0.709515
0.677213
0.66483
0.661855
0.666498
0.678183
0.706612
0.74044
0.751315
0.753256
0.746718
0.721209
0.708587
0.703441
0.699916
0.689553
0.663134
0.625627
0.609486
0.610962
0.645677
0.683773
0.727955
0.757644
0.775417
0.78369
0.786351
0.784416
0.777059
0.757923
0.729418
0.712479
0.706602
0.705444
0.706704
0.715869
0.745984
0.801239
0.855256
0.897837
0.932514
0.958994
0.97453
0.983918
0.989575
0.993017
0.995148
0.996341
0.996711
0.996711
0.996586
0.996223
0.99544
0.993745
0.989456
0.975355
0.930048
0.883805
0.85645
0.840777
0.830699
0.825806
0.826245
0.833605
0.864211
0.909459
0.935249
0.950807
0.96264
0.971559
0.976693
0.978774
0.979399
0.979838
0.980881
0.983703
0.985688
0.985941
0.985475
0.982998
0.977541
0.974694
0.974027
0.97435
0.976707
0.983411
0.989469
0.993603
0.996265
0.997901
0.998869
0.999416
0.999704
0.999839
0.999881
0.999881
0.999845
0.999669
0.999015
0.994763
0.637719
0.651153
0.656572
0.613856
0.502972
0.445822
0.428842
0.426226
0.437063
0.448376
0.461423
0.467593
0.470575
0.473439
0.484276
0.528118
0.646253
0.781958
0.867342
0.911886
0.939553
0.952418
0.955578
0.9542
0.938548
0.909221
0.895611
0.889594
0.88673
0.88436
0.882485
0.880612
0.879171
0.878008
0.877075
0.876554
0.876242
0.876135
0.876258
0.876539
0.876958
0.877663
0.878814
0.881212
0.886732
0.896194
0.903138
0.905371
0.905875
0.902879
0.898018
0.896871
0.899172
0.911962
0.952046
0.97847
0.991364
0.996911
0.999047
0.999761
0.999934
0.999953
0.999736
0.99691
0.964436
0.866456
0.835336
0.82559
0.815594
0.774695
0.644482
0.597277
0.598419
0.60326
0.559814
0.480794
0.486626
0.650171
0.785809
0.759879
0.695983
0.6681
0.659055
0.658609
0.665609
0.67977
0.719931
0.745251
0.751004
0.750231
0.736613
0.70317
0.689708
0.684928
0.658579
0.593804
0.467923
0.410908
0.393431
0.421413
0.483046
0.565319
0.639019
0.701615
0.741638
0.763782
0.773733
0.777246
0.77511
0.760867
0.731745
0.712681
0.703641
0.701416
0.702868
0.714801
0.753177
0.81826
0.874689
0.918102
0.950301
0.969919
0.982312
0.989897
0.994228
0.996604
0.997826
0.998411
0.998628
0.998654
0.998621
0.998456
0.998273
0.998086
0.997668
0.99634
0.99072
0.964325
0.905422
0.868986
0.852587
0.846972
0.846132
0.847635
0.861304
0.903345
0.935933
0.952757
0.963518
0.97188
0.977984
0.981381
0.982808
0.983327
0.983724
0.984645
0.98711
0.989339
0.990035
0.989975
0.989199
0.986201
0.983628
0.982847
0.982915
0.984194
0.988513
0.992844
0.995731
0.997552
0.998647
0.999281
0.999633
0.999818
0.999905
0.999933
0.999935
0.999918
0.999829
0.999098
0.639853
0.662927
0.689645
0.660449
0.588283
0.504664
0.467481
0.456512
0.456282
0.46563
0.474937
0.481197
0.493021
0.519395
0.587045
0.702992
0.807256
0.877692
0.918728
0.938963
0.948899
0.952041
0.9522
0.941539
0.914463
0.896537
0.888828
0.885192
0.88267
0.880403
0.878556
0.877326
0.8763
0.875781
0.875384
0.875185
0.875052
0.874997
0.875065
0.875305
0.875617
0.876124
0.876658
0.877447
0.879169
0.883341
0.895486
0.904349
0.906351
0.905715
0.900469
0.896365
0.895973
0.901202
0.92686
0.964414
0.985023
0.994403
0.998114
0.999436
0.999865
0.999966
0.999962
0.999563
0.993609
0.933169
0.857871
0.838956
0.832352
0.824625
0.787211
0.653401
0.604536
0.579237
0.526669
0.475369
0.487529
0.652288
0.773029
0.747928
0.686158
0.661202
0.654434
0.656094
0.663873
0.683771
0.727996
0.746171
0.750358
0.746798
0.714358
0.683844
0.676421
0.648876
0.548626
0.38643
0.305135
0.272147
0.26249
0.281194
0.326525
0.437928
0.551322
0.642239
0.702591
0.736169
0.751462
0.756739
0.757416
0.750316
0.725671
0.704784
0.694735
0.693217
0.698901
0.718279
0.77432
0.840291
0.892543
0.933655
0.959508
0.976086
0.986561
0.992947
0.996437
0.998051
0.998662
0.998846
0.998877
0.998861
0.998792
0.998515
0.998264
0.998223
0.99825
0.998254
0.997875
0.994737
0.978279
0.923394
0.880912
0.865512
0.863027
0.864601
0.874579
0.907604
0.939237
0.957823
0.967111
0.97371
0.979213
0.983208
0.985339
0.986262
0.986656
0.986998
0.987833
0.99008
0.992265
0.993215
0.993331
0.993029
0.991347
0.989296
0.988595
0.988598
0.989424
0.992371
0.995331
0.997268
0.998466
0.999172
0.999569
0.999785
0.999896
0.999947
0.999964
0.999965
0.999956
0.999838
0.639978
0.665565
0.708099
0.707414
0.659019
0.595995
0.547413
0.516178
0.503636
0.503083
0.515201
0.534801
0.582063
0.655716
0.749915
0.833182
0.889191
0.921032
0.938903
0.946716
0.94961
0.950477
0.944949
0.922638
0.900838
0.890344
0.885392
0.882437
0.880006
0.877994
0.876529
0.875793
0.875186
0.874853
0.874512
0.874191
0.873958
0.873856
0.873922
0.874175
0.874739
0.875463
0.876025
0.876615
0.877525
0.879612
0.885966
0.899466
0.905817
0.906139
0.903158
0.896508
0.895293
0.898119
0.91573
0.954629
0.979837
0.992169
0.997289
0.999158
0.999765
0.999947
0.999985
0.99994
0.998822
0.981552
0.893996
0.849891
0.838377
0.830306
0.819729
0.772595
0.647027
0.584054
0.50832
0.470806
0.487254
0.652482
0.759187
0.736673
0.678308
0.655778
0.650913
0.65329
0.661941
0.689219
0.728651
0.745713
0.749383
0.739512
0.702506
0.673715
0.651827
0.574569
0.412756
0.287014
0.236659
0.22008
0.217101
0.227351
0.251707
0.307526
0.44803
0.580941
0.670369
0.715861
0.732926
0.735349
0.732118
0.717685
0.698511
0.689147
0.6872
0.689546
0.698433
0.72916
0.799269
0.8624
0.912039
0.944911
0.967503
0.982191
0.990972
0.995702
0.99792
0.998693
0.998888
0.998887
0.998786
0.998589
0.998311
0.997483
0.996458
0.996273
0.996505
0.997521
0.99822
0.998052
0.995325
0.98113
0.933592
0.895348
0.883066
0.882852
0.891239
0.919983
0.947661
0.965211
0.97444
0.978553
0.981766
0.984892
0.987229
0.988491
0.989078
0.989376
0.989688
0.990511
0.992661
0.994577
0.995459
0.995609
0.995414
0.994244
0.992845
0.992399
0.99242
0.99307
0.995203
0.997127
0.998357
0.999101
0.999528
0.999762
0.999885
0.999946
0.999973
0.999982
0.999982
0.999964
0.63722
0.661436
0.717481
0.739415
0.717257
0.684192
0.646587
0.617688
0.606892
0.603666
0.626275
0.668848
0.723024
0.788613
0.848318
0.897878
0.924486
0.938438
0.945378
0.948085
0.949034
0.94684
0.930798
0.910864
0.895571
0.887186
0.883177
0.880468
0.878075
0.876531
0.875487
0.874954
0.874516
0.874137
0.873747
0.873397
0.873195
0.873145
0.873197
0.87334
0.873681
0.874508
0.87561
0.876377
0.877109
0.878589
0.882952
0.895759
0.904784
0.906221
0.904241
0.897108
0.895288
0.897512
0.912333
0.950796
0.97798
0.991388
0.99699
0.999054
0.999731
0.999931
0.999986
0.999988
0.999803
0.995514
0.942221
0.867098
0.843899
0.829308
0.816728
0.795808
0.731501
0.611799
0.511842
0.471625
0.488238
0.649475
0.744875
0.726034
0.671218
0.650351
0.646971
0.649578
0.659351
0.688627
0.727247
0.744491
0.747055
0.735009
0.692301
0.661083
0.626142
0.515972
0.34101
0.242684
0.208567
0.198714
0.198906
0.205728
0.221608
0.2554
0.337061
0.499589
0.627789
0.696664
0.720318
0.723449
0.718657
0.701144
0.688881
0.685424
0.685767
0.689398
0.705207
0.755586
0.825523
0.884811
0.928487
0.959174
0.978682
0.990054
0.995543
0.997866
0.998717
0.998926
0.998914
0.998754
0.998044
0.997188
0.996589
0.995372
0.992486
0.990536
0.990725
0.992427
0.996255
0.997899
0.997774
0.994719
0.978513
0.937318
0.914476
0.910071
0.91318
0.931489
0.957113
0.972722
0.980704
0.98432
0.985881
0.987356
0.989088
0.990359
0.991047
0.991392
0.991611
0.991916
0.992807
0.994832
0.996328
0.996977
0.997069
0.99689
0.995998
0.995216
0.995023
0.995077
0.995642
0.997162
0.998341
0.999076
0.999509
0.999749
0.999877
0.999942
0.999974
0.999987
0.999991
0.999988
0.625058
0.65454
0.698753
0.761604
0.764799
0.743069
0.730996
0.714821
0.705963
0.715464
0.73758
0.774958
0.818324
0.86323
0.898961
0.925225
0.938004
0.944169
0.946811
0.947862
0.947407
0.939289
0.921337
0.904892
0.893201
0.885918
0.88207
0.879512
0.877357
0.875879
0.874961
0.874428
0.874063
0.873793
0.873536
0.873274
0.873108
0.873083
0.873108
0.873202
0.873437
0.874051
0.875365
0.876332
0.877058
0.878389
0.882102
0.894342
0.90451
0.906783
0.905094
0.898316
0.896307
0.898623
0.91294
0.950531
0.977975
0.991424
0.997004
0.999052
0.999728
0.999929
0.999985
0.999996
0.999975
0.99917
0.982714
0.898177
0.852954
0.831245
0.805509
0.783984
0.7376
0.628868
0.520201
0.475298
0.492419
0.650953
0.73548
0.717281
0.664814
0.64605
0.643421
0.645701
0.6555
0.685685
0.72339
0.74179
0.743878
0.735015
0.694876
0.654487
0.603299
0.474466
0.316953
0.23096
0.199682
0.192058
0.192452
0.19739
0.210343
0.237172
0.29381
0.43355
0.583305
0.675594
0.712877
0.719631
0.7157
0.699
0.688069
0.685585
0.686647
0.694547
0.722569
0.790493
0.857709
0.909321
0.946553
0.971697
0.986977
0.994219
0.997456
0.998669
0.998976
0.998968
0.998811
0.998226
0.996371
0.993982
0.992849
0.9921
0.990225
0.986749
0.984058
0.984326
0.988019
0.99497
0.997379
0.997182
0.992887
0.97184
0.946856
0.93927
0.939862
0.948383
0.967728
0.980122
0.986366
0.988988
0.989998
0.990518
0.991161
0.992083
0.992731
0.993087
0.993292
0.993469
0.993796
0.994836
0.996529
0.997588
0.997988
0.998019
0.99784
0.997247
0.996929
0.996886
0.996964
0.997467
0.998433
0.999104
0.999515
0.999749
0.999876
0.999941
0.999973
0.999988
0.999994
0.999995
0.608165
0.645707
0.664638
0.751492
0.788485
0.790121
0.780926
0.777808
0.775114
0.783164
0.810181
0.833102
0.869567
0.897962
0.920191
0.934606
0.941788
0.94513
0.946669
0.946564
0.941841
0.927426
0.912939
0.900681
0.892239
0.886291
0.882377
0.87975
0.877595
0.876042
0.875058
0.874467
0.874076
0.873812
0.873605
0.873377
0.873249
0.873247
0.873277
0.873368
0.873571
0.87405
0.87542
0.876891
0.877793
0.879197
0.883042
0.895808
0.90648
0.90847
0.906391
0.900256
0.899972
0.905054
0.927844
0.964762
0.986266
0.995227
0.998444
0.999511
0.999853
0.999958
0.999989
0.999998
0.999997
0.999895
0.996378
0.942587
0.868512
0.836959
0.805573
0.768163
0.720651
0.621118
0.52123
0.482469
0.504892
0.663294
0.73155
0.707213
0.657772
0.642725
0.64089
0.642963
0.651787
0.67937
0.716412
0.737415
0.740896
0.735734
0.70262
0.658239
0.607048
0.482388
0.328654
0.239586
0.20366
0.193389
0.192707
0.195813
0.207408
0.232448
0.280873
0.393242
0.551923
0.6602
0.708209
0.718778
0.715874
0.700803
0.690622
0.689543
0.692691
0.708009
0.757501
0.826157
0.884362
0.930247
0.96236
0.981586
0.99128
0.996193
0.998362
0.999032
0.999059
0.99892
0.998436
0.997215
0.994352
0.991034
0.988578
0.987736
0.987512
0.986299
0.982177
0.979974
0.980581
0.986181
0.994651
0.996923
0.996216
0.988765
0.970073
0.962292
0.961919
0.965491
0.977371
0.986381
0.990834
0.992637
0.993163
0.993303
0.993425
0.993667
0.994178
0.994502
0.994682
0.994808
0.994974
0.995364
0.996545
0.997794
0.998456
0.998663
0.998661
0.998498
0.998242
0.99817
0.998181
0.998301
0.998752
0.99925
0.999577
0.999775
0.999886
0.999945
0.999975
0.999989
0.999995
0.999997
0.608147
0.641505
0.649034
0.696107
0.780067
0.807144
0.815942
0.817314
0.823041
0.824248
0.847997
0.864391
0.893736
0.915195
0.929734
0.938378
0.94273
0.945007
0.945556
0.943747
0.937121
0.922736
0.910104
0.900445
0.892704
0.887328
0.883322
0.88053
0.878334
0.876639
0.875488
0.87476
0.874269
0.87396
0.873784
0.873587
0.873503
0.873513
0.873573
0.873731
0.874088
0.875005
0.876862
0.878044
0.878898
0.880586
0.885767
0.900339
0.909173
0.910298
0.907314
0.904428
0.906374
0.918596
0.954164
0.983484
0.994279
0.998097
0.99939
0.999811
0.999943
0.999984
0.999996
0.999999
1
0.999989
0.999359
0.98153
0.893273
0.847318
0.812098
0.769304
0.709525
0.615195
0.526319
0.498233
0.54161
0.70018
0.728988
0.692014
0.648994
0.63832
0.637425
0.639602
0.647331
0.670066
0.706142
0.731002
0.737765
0.735257
0.716223
0.669243
0.619904
0.505282
0.358331
0.262945
0.216841
0.200395
0.199538