/*--------------------------------*- C++ -*----------------------------------*\
  =========                 |
  \\      /  F ield         | OpenFOAM: The Open Source CFD Toolbox
   \\    /   O peration     | Website:  https://openfoam.org
    \\  /    A nd           | Version:  7
     \\/     M anipulation  |
\*---------------------------------------------------------------------------*/
FoamFile
{
    version     2.0;
    format      ascii;
    class       volVectorField;
    location    "0.095";
    object      U_0;
}
// * * * * * * * * * * * * * * * * * * * * * * * * * * * * * * * * * * * * * //

dimensions      [0 1 -1 0 0 0 0];

internalField   nonuniform List<vector> 
12225
(
(4.69527 0.145594 0)
(4.11642 0.0993224 0)
(3.65295 0.0931208 0)
(3.27255 0.0760086 0)
(2.93693 0.0618843 0)
(2.62557 0.0568735 0)
(2.30765 0.0591066 0)
(1.97607 0.0591049 0)
(1.65439 0.0502368 0)
(1.37091 0.0361166 0)
(1.13278 0.023726 0)
(0.940523 0.0161396 0)
(0.773728 0.01219 0)
(0.638039 0.00918515 0)
(0.50027 0.00702096 0)
(0.4028 0.00809425 0)
(0.252313 -0.00457624 0)
(0.232259 -0.023358 0)
(5.00175 0.105539 0)
(4.80379 0.0763257 0)
(4.69763 0.0989378 0)
(4.63125 0.0997546 0)
(4.55809 0.0978043 0)
(4.45146 0.100054 0)
(4.30551 0.106966 0)
(4.13725 0.114564 0)
(3.96408 0.118319 0)
(3.79988 0.115198 0)
(3.63314 0.106714 0)
(3.46985 0.0979667 0)
(3.28603 0.0917156 0)
(3.11918 0.0876505 0)
(2.92332 0.0850504 0)
(2.77185 0.0817581 0)
(2.55698 0.0839011 0)
(2.43685 0.067606 0)
(4.94191 0.170499 0)
(4.80467 0.108927 0)
(4.72599 0.117461 0)
(4.6926 0.110035 0)
(4.68169 0.10621 0)
(4.67207 0.117592 0)
(4.65219 0.136889 0)
(4.62307 0.151958 0)
(4.58634 0.155332 0)
(4.54533 0.148243 0)
(4.49423 0.138329 0)
(4.4368 0.133774 0)
(4.36459 0.134173 0)
(4.28924 0.136672 0)
(4.19818 0.139747 0)
(4.10733 0.140195 0)
(4.00096 0.144083 0)
(3.89877 0.147988 0)
(5.02488 0.201426 0)
(4.93371 0.125543 0)
(4.85589 0.130888 0)
(4.78475 0.127921 0)
(4.72974 0.118589 0)
(4.70171 0.117724 0)
(4.69386 0.127774 0)
(4.69546 0.14012 0)
(4.698 0.144971 0)
(4.69564 0.142526 0)
(4.68455 0.138577 0)
(4.66559 0.139258 0)
(4.6417 0.144709 0)
(4.61384 0.151775 0)
(4.58306 0.159174 0)
(4.54573 0.164411 0)
(4.50754 0.172624 0)
(4.46132 0.182935 0)
(4.94487 0.160603 0)
(4.90076 0.115237 0)
(4.82194 0.133787 0)
(4.77418 0.137086 0)
(4.76006 0.12714 0)
(4.76072 0.123184 0)
(4.76826 0.13107 0)
(4.78149 0.143466 0)
(4.79507 0.151028 0)
(4.79909 0.151975 0)
(4.7877 0.15017 0)
(4.76248 0.150433 0)
(4.73214 0.15461 0)
(4.70182 0.160755 0)
(4.67582 0.168311 0)
(4.65196 0.175442 0)
(4.63289 0.184366 0)
(4.61506 0.196123 0)
(4.99294 0.22763 0)
(4.91612 0.153653 0)
(4.8342 0.159205 0)
(4.77844 0.153967 0)
(4.75481 0.134703 0)
(4.74679 0.121822 0)
(4.74982 0.122377 0)
(4.76582 0.131042 0)
(4.78888 0.140627 0)
(4.80486 0.148563 0)
(4.80286 0.155785 0)
(4.78289 0.163533 0)
(4.75466 0.171767 0)
(4.72763 0.178677 0)
(4.70741 0.18431 0)
(4.6936 0.188755 0)
(4.6859 0.193872 0)
(4.67998 0.20181 0)
(5.04124 0.220843 0)
(4.98881 0.163673 0)
(4.92969 0.15992 0)
(4.89438 0.151824 0)
(4.86333 0.13717 0)
(4.82128 0.126756 0)
(4.78279 0.123784 0)
(4.75949 0.127408 0)
(4.74945 0.135762 0)
(4.74495 0.147308 0)
(4.74149 0.160195 0)
(4.73992 0.171814 0)
(4.74349 0.18006 0)
(4.7522 0.184053 0)
(4.76242 0.18559 0)
(4.76877 0.186999 0)
(4.76906 0.190831 0)
(4.76056 0.198635 0)
(5.06246 0.247846 0)
(5.02639 0.191858 0)
(5.002 0.185544 0)
(4.96951 0.179076 0)
(4.92977 0.16805 0)
(4.88713 0.15685 0)
(4.84806 0.147773 0)
(4.81562 0.144202 0)
(4.79086 0.146625 0)
(4.77381 0.151923 0)
(4.7648 0.156753 0)
(4.7641 0.159891 0)
(4.77175 0.16241 0)
(4.78435 0.166338 0)
(4.79755 0.173557 0)
(4.80565 0.184447 0)
(4.80781 0.198618 0)
(4.80147 0.213882 0)
(4.9824 0.293931 0)
(4.92436 0.201191 0)
(4.87371 0.166055 0)
(4.84069 0.162436 0)
(4.83936 0.161394 0)
(4.85648 0.157088 0)
(4.86738 0.151428 0)
(4.86259 0.149441 0)
(4.85101 0.15354 0)
(4.84404 0.161311 0)
(4.84534 0.168501 0)
(4.85155 0.172449 0)
(4.85828 0.173441 0)
(4.86198 0.173707 0)
(4.86192 0.176097 0)
(4.85801 0.182391 0)
(4.85241 0.193158 0)
(4.8454 0.207475 0)
(4.93053 0.280347 0)
(4.98359 0.227326 0)
(4.97639 0.212714 0)
(4.9422 0.194314 0)
(4.92193 0.168371 0)
(4.91542 0.152305 0)
(4.90781 0.150093 0)
(4.89384 0.153771 0)
(4.8795 0.155419 0)
(4.87214 0.15296 0)
(4.87356 0.149091 0)
(4.88061 0.147733 0)
(4.8884 0.151255 0)
(4.89293 0.160237 0)
(4.89113 0.173575 0)
(4.8834 0.189626 0)
(4.87049 0.206994 0)
(4.8565 0.223522 0)
(5.02642 0.270422 0)
(4.97908 0.194804 0)
(4.95586 0.185113 0)
(4.9385 0.175693 0)
(4.92501 0.164248 0)
(4.90681 0.159273 0)
(4.89388 0.158917 0)
(4.89434 0.160853 0)
(4.90277 0.164039 0)
(4.90841 0.166993 0)
(4.90492 0.168567 0)
(4.89273 0.169372 0)
(4.8769 0.171133 0)
(4.86175 0.176114 0)
(4.85019 0.185117 0)
(4.84164 0.197961 0)
(4.8365 0.213173 0)
(4.83292 0.228885 0)
(5.09517 0.274297 0)
(4.99668 0.24223 0)
(4.95085 0.223832 0)
(4.92691 0.202757 0)
(4.91153 0.187649 0)
(4.90151 0.175343 0)
(4.89361 0.162318 0)
(4.88761 0.15219 0)
(4.88674 0.148659 0)
(4.89314 0.150932 0)
(4.90486 0.155908 0)
(4.91617 0.161624 0)
(4.92287 0.167988 0)
(4.92206 0.176191 0)
(4.91643 0.186724 0)
(4.90731 0.199509 0)
(4.90051 0.213363 0)
(4.89496 0.227336 0)
(4.94991 0.228455 0)
(4.9552 0.252878 0)
(4.93504 0.228448 0)
(4.91144 0.185853 0)
(4.90988 0.163251 0)
(4.92333 0.158142 0)
(4.93825 0.159562 0)
(4.94726 0.160982 0)
(4.95053 0.160241 0)
(4.95143 0.15837 0)
(4.95174 0.158131 0)
(4.95019 0.161867 0)
(4.94568 0.170209 0)
(4.93786 0.182218 0)
(4.92977 0.195828 0)
(4.92331 0.209633 0)
(4.92223 0.221992 0)
(4.92604 0.233559 0)
(4.95961 0.255369 0)
(4.98424 0.2476 0)
(4.98042 0.238366 0)
(4.94331 0.218675 0)
(4.92259 0.196311 0)
(4.92586 0.173559 0)
(4.9391 0.15603 0)
(4.95046 0.147352 0)
(4.95634 0.145767 0)
(4.95874 0.14844 0)
(4.96002 0.154362 0)
(4.96077 0.163424 0)
(4.96065 0.174773 0)
(4.95972 0.186604 0)
(4.95876 0.196465 0)
(4.95885 0.203746 0)
(4.96137 0.207852 0)
(4.96619 0.21136 0)
(4.94885 0.247096 0)
(4.95027 0.252838 0)
(4.93976 0.252114 0)
(4.93713 0.206907 0)
(4.95535 0.157488 0)
(4.97187 0.132504 0)
(4.97545 0.133102 0)
(4.96968 0.144941 0)
(4.96138 0.154374 0)
(4.9554 0.15773 0)
(4.95323 0.159036 0)
(4.95425 0.163416 0)
(4.95796 0.172679 0)
(4.96387 0.185345 0)
(4.97214 0.198376 0)
(4.98172 0.209797 0)
(4.99268 0.218646 0)
(5.003 0.226026 0)
(5.04601 0.216801 0)
(4.99609 0.264626 0)
(4.99328 0.247674 0)
(4.99945 0.211349 0)
(4.99849 0.188754 0)
(4.98277 0.176278 0)
(4.96426 0.169768 0)
(4.95327 0.165143 0)
(4.95124 0.159531 0)
(4.95579 0.154229 0)
(4.96394 0.152333 0)
(4.97293 0.155042 0)
(4.98161 0.160845 0)
(4.98959 0.167029 0)
(4.9975 0.170896 0)
(5.00585 0.172734 0)
(5.0155 0.17246 0)
(5.02692 0.174001 0)
(4.96534 0.274082 0)
(4.95104 0.294217 0)
(4.96065 0.243004 0)
(4.98022 0.185766 0)
(5.00259 0.155962 0)
(5.00863 0.147439 0)
(5.00511 0.150116 0)
(5.00118 0.153312 0)
(5.00166 0.151064 0)
(5.00795 0.145247 0)
(5.01857 0.14163 0)
(5.03098 0.144745 0)
(5.04307 0.154847 0)
(5.05353 0.168957 0)
(5.06154 0.182191 0)
(5.06703 0.191841 0)
(5.07071 0.196507 0)
(5.07288 0.197732 0)
(5.03443 0.292345 0)
(5.03531 0.285682 0)
(5.05065 0.22315 0)
(5.04789 0.187432 0)
(5.03743 0.185408 0)
(5.03073 0.194134 0)
(5.03373 0.19362 0)
(5.03997 0.177088 0)
(5.0436 0.150861 0)
(5.04341 0.126562 0)
(5.04115 0.112503 0)
(5.0403 0.110643 0)
(5.04412 0.11761 0)
(5.05338 0.128658 0)
(5.06689 0.1392 0)
(5.08186 0.147267 0)
(5.09685 0.151911 0)
(5.10951 0.154532 0)
(4.9572 0.306335 0)
(4.99562 0.257324 0)
(5.0097 0.213629 0)
(5.01163 0.176268 0)
(5.00066 0.144097 0)
(4.99849 0.120252 0)
(5.01421 0.113736 0)
(5.04 0.125042 0)
(5.06834 0.14347 0)
(5.09485 0.156565 0)
(5.11624 0.158342 0)
(5.13099 0.150714 0)
(5.14013 0.139604 0)
(5.14516 0.131019 0)
(5.14792 0.128057 0)
(5.14972 0.130826 0)
(5.1524 0.137236 0)
(5.15672 0.144576 0)
(5.08336 0.236743 0)
(5.08836 0.236235 0)
(5.07083 0.236683 0)
(5.0424 0.231595 0)
(5.01509 0.216912 0)
(4.99474 0.184771 0)
(4.99214 0.138823 0)
(5.00545 0.0920873 0)
(5.02731 0.0576159 0)
(5.0512 0.042416 0)
(5.07253 0.0464757 0)
(5.08957 0.0646723 0)
(5.10426 0.089163 0)
(5.11966 0.112766 0)
(5.13864 0.129684 0)
(5.16088 0.137884 0)
(5.18623 0.136615 0)
(5.21136 0.127843 0)
(4.98365 0.281105 0)
(4.98763 0.247702 0)
(4.98806 0.240782 0)
(5.02381 0.229964 0)
(5.08205 0.192334 0)
(5.13641 0.141334 0)
(5.17372 0.0937799 0)
(5.18751 0.0627114 0)
(5.18123 0.0536518 0)
(5.16492 0.0614484 0)
(5.14817 0.0739333 0)
(5.13741 0.0801659 0)
(5.13662 0.0761355 0)
(5.14685 0.0643183 0)
(5.16712 0.0504411 0)
(5.19391 0.0397311 0)
(5.22432 0.0347569 0)
(5.25418 0.0369377 0)
(5.01889 0.3395 0)
(5.02394 0.273401 0)
(5.06521 0.214587 0)
(5.12947 0.160277 0)
(5.16348 0.116251 0)
(5.15824 0.0969755 0)
(5.1394 0.0930036 0)
(5.12578 0.0922481 0)
(5.12484 0.092244 0)
(5.13789 0.09348 0)
(5.16164 0.0937627 0)
(5.1909 0.089858 0)
(5.22114 0.0804216 0)
(5.24921 0.0670157 0)
(5.27317 0.0521755 0)
(5.29256 0.0388007 0)
(5.30795 0.027912 0)
(5.32016 0.0206016 0)
(4.99502 0.341233 0)
(5.0363 0.233471 0)
(5.08612 0.144803 0)
(5.12716 0.13426 0)
(5.14357 0.147555 0)
(5.14598 0.143997 0)
(5.14965 0.112173 0)
(5.15887 0.0680228 0)
(5.17446 0.0330487 0)
(5.19792 0.0149462 0)
(5.2286 0.00805049 0)
(5.26286 0.00398203 0)
(5.29601 -0.00133147 0)
(5.32395 -0.00721155 0)
(5.34479 -0.0113483 0)
(5.35794 -0.0121769 0)
(5.36505 -0.00912544 0)
(5.36769 -0.00365248 0)
(4.94775 0.33871 0)
(4.97122 0.208603 0)
(5.03803 0.136773 0)
(5.10042 0.120821 0)
(5.15076 0.117764 0)
(5.20354 0.111574 0)
(5.26109 0.0975346 0)
(5.31287 0.0779615 0)
(5.34988 0.0576237 0)
(5.37132 0.0400151 0)
(5.38184 0.0256981 0)
(5.38712 0.0149377 0)
(5.39123 0.00823007 0)
(5.39533 0.00572946 0)
(5.40001 0.00677292 0)
(5.40596 0.0096477 0)
(5.41398 0.012503 0)
(5.42374 0.0140426 0)
(5.0349 0.350869 0)
(5.03942 0.163611 0)
(5.07184 0.0681702 0)
(5.10703 0.0665134 0)
(5.14834 0.0707523 0)
(5.19698 0.0501766 0)
(5.24605 0.0164738 0)
(5.29161 -0.0085975 0)
(5.33379 -0.0160587 0)
(5.37142 -0.0123532 0)
(5.40142 -0.00696359 0)
(5.42238 -0.00559374 0)
(5.43532 -0.00907838 0)
(5.4428 -0.0153673 0)
(5.44766 -0.0214387 0)
(5.45121 -0.0254945 0)
(5.45502 -0.0273692 0)
(5.45877 -0.0273601 0)
(5.00924 0.284185 0)
(5.09035 0.164576 0)
(5.14303 0.115924 0)
(5.19625 0.0923258 0)
(5.25607 0.0704498 0)
(5.31213 0.0504331 0)
(5.35062 0.0311104 0)
(5.37346 0.0121965 0)
(5.39092 -0.00183555 0)
(5.41149 -0.0100291 0)
(5.43722 -0.0129862 0)
(5.4641 -0.0120919 0)
(5.48748 -0.00900096 0)
(5.50478 -0.00516416 0)
(5.51651 -0.00183093 0)
(5.52458 0.00056856 0)
(5.53175 0.00195543 0)
(5.53973 0.00241539 0)
(4.99022 0.206288 0)
(5.06373 0.0658595 0)
(5.20498 0.0277578 0)
(5.30269 0.0138191 0)
(5.34493 0.000758592 0)
(5.36107 -0.0115315 0)
(5.3711 -0.0216457 0)
(5.38389 -0.030868 0)
(5.40003 -0.0395332 0)
(5.417 -0.0448351 0)
(5.43462 -0.0460834 0)
(5.4536 -0.0442579 0)
(5.47415 -0.0410267 0)
(5.49568 -0.0379866 0)
(5.51753 -0.0363394 0)
(5.53879 -0.0364302 0)
(5.55953 -0.038198 0)
(5.57911 -0.0410359 0)
(4.90997 0.250067 0)
(5.07981 0.0962582 0)
(5.26386 0.0474772 0)
(5.34675 0.0367099 0)
(5.38426 0.0353935 0)
(5.42337 0.0297471 0)
(5.46757 0.014693 0)
(5.50312 -0.00312568 0)
(5.52264 -0.0184512 0)
(5.53088 -0.0284958 0)
(5.53786 -0.033613 0)
(5.55098 -0.0353938 0)
(5.57187 -0.0350949 0)
(5.5981 -0.0337051 0)
(5.62587 -0.0320133 0)
(5.65174 -0.0308501 0)
(5.67395 -0.0303612 0)
(5.69097 -0.0308515 0)
(4.92858 0.00461147 0)
(5.17312 -0.0678818 0)
(5.2992 -0.0423738 0)
(5.35249 -0.0346306 0)
(5.39605 -0.0391367 0)
(5.44777 -0.046757 0)
(5.49683 -0.0520409 0)
(5.53309 -0.0531057 0)
(5.55442 -0.0526549 0)
(5.56426 -0.0545468 0)
(5.56648 -0.0595692 0)
(5.56356 -0.0656897 0)
(5.55613 -0.0702097 0)
(5.54511 -0.0717152 0)
(5.53096 -0.0702938 0)
(5.516 -0.0671306 0)
(5.50048 -0.0631384 0)
(5.48758 -0.0597887 0)
(5.06341 0.0175107 0)
(5.09112 -0.00479487 0)
(5.03872 0.00486414 0)
(4.93529 -0.00709221 0)
(4.84259 -0.0105953 0)
(4.7558 -0.0131078 0)
(4.65788 -0.0198855 0)
(4.54795 -0.0271504 0)
(4.43333 -0.0314639 0)
(4.31824 -0.032761 0)
(4.20233 -0.0319403 0)
(4.08615 -0.0295199 0)
(3.97241 -0.0260087 0)
(3.86563 -0.0223247 0)
(3.76788 -0.0196316 0)
(3.6802 -0.0185176 0)
(3.59956 -0.0189408 0)
(3.52588 -0.0206933 0)
(-0.0346069 0.0772443 1.48819e-20)
(-0.096687 0.0449313 -1.4777e-20)
(-0.075943 -0.0225644 0)
(0.0235639 -0.0808975 0)
(0.151201 -0.0964128 0)
(0.268611 -0.0743327 1.43544e-20)
(0.354682 -0.0268655 0)
(0.388861 0.0327814 0)
(0.364968 0.089016 0)
(0.286238 0.122118 0)
(0.165059 0.11875 -1.38256e-20)
(0.0251595 0.0882409 0)
(-0.111423 0.058494 0)
(-0.227202 0.0502366 0)
(-0.321099 0.058891 0)
(-0.409457 0.0738358 -1.32763e-20)
(-0.502252 0.0843407 0)
(-0.588779 0.0829586 0)
(-0.657884 0.0762617 0)
(-0.71789 0.0699141 0)
(-0.773144 0.0616389 0)
(-0.813534 0.04704 0)
(-0.837746 0.0245627 0)
(-0.863804 0.0016021 -1.24167e-20)
(-0.913553 -0.0011261 1.23065e-20)
(-1.00325 0.0374649 -1.21924e-20)
(-1.14972 0.112273 -1.20742e-20)
(-1.36248 0.17768 0)
(-1.60961 0.170688 0)
(-1.81961 0.0785905 1.16934e-20)
(-1.95957 -0.0117399 1.15603e-20)
(-2.07585 -0.00807255 0)
(-2.22242 0.0644884 0)
(-2.3998 0.112351 1.11664e-20)
(-2.5756 0.100194 0)
(-2.72923 0.0711485 0)
(-2.86189 0.0634432 -1.08101e-20)
(-2.97648 0.0644436 0)
(-3.06748 0.0493909 -1.06113e-20)
(-3.12676 0.0195724 -2.10528e-20)
(-3.1504 -0.00910237 0)
(-3.14048 -0.0298966 0)
(-3.10477 -0.0466435 0)
(-3.04209 -0.0638831 0)
(-2.95273 -0.082408 0)
(-2.83645 -0.10051 -2.0454e-20)
(-2.69426 -0.116784 -2.04136e-20)
(-2.52717 -0.131797 -2.03839e-20)
(-2.33589 -0.146357 0)
(-2.12103 -0.160039 2.03432e-20)
(-1.88337 -0.171733 0)
(-1.62343 -0.181143 -2.03039e-20)
(-1.33951 -0.190238 -2.02753e-20)
(-1.02657 -0.205248 0)
(-0.673905 -0.238623 0)
(-0.246984 -0.30079 0)
(0.249398 -0.33045 -1.99377e-20)
(0.724858 -0.286109 0)
(1.12297 -0.235607 0)
(1.45875 -0.181931 0)
(1.72654 -0.119025 0)
(1.92079 -0.0532231 0)
(2.03614 0.0420233 0)
(1.973 0.19619 0)
(1.64993 0.318579 0)
(1.25199 0.239352 1.81407e-20)
(0.989273 0.0402861 0)
(0.816501 -0.00869331 0)
(0.652508 0.122985 -1.76033e-20)
(0.484557 0.242887 -1.73922e-20)
(0.282657 0.256905 0)
(0.0359087 0.157542 1.69522e-20)
(-0.190227 0.0299732 -1.67294e-20)
(-0.346821 -0.0445438 0)
(-0.277651 -0.138939 1.63745e-20)
(0.0885549 -0.209745 0)
(0.544091 -0.141179 0)
(0.818272 -0.00775703 -1.5867e-20)
(0.893711 0.06514 0)
(0.929073 0.0246742 1.54543e-20)
(1.00496 -0.114157 0)
(1.0789 -0.239438 -1.51001e-20)
(1.07867 -0.207001 -1.49069e-20)
(0.88984 0.00155047 -1.47217e-20)
(0.452129 0.219219 -2.90899e-20)
(-0.111509 0.317174 2.86707e-20)
(-0.70221 0.339899 0)
(-1.28366 0.334437 0)
(-1.83267 0.315126 0)
(-2.34014 0.289112 2.62075e-20)
(-2.80196 0.260258 2.55145e-20)
(-3.21671 0.230624 -2.48286e-20)
(-3.58404 0.201224 0)
(-3.90395 0.172566 2.35341e-20)
(-4.17666 0.14494 2.2948e-20)
(-4.40255 0.118354 2.24143e-20)
(-4.58205 0.0926448 0)
(-4.7158 0.0679526 0)
(-4.80505 0.0449577 0)
(-4.85185 0.0244016 2.08975e-20)
(-4.85921 0.00635314 0)
(-4.83291 -0.00931766 0)
(-4.77667 -0.0221602 -2.03828e-20)
(-4.69538 -0.0328041 0)
(-4.59222 -0.0414892 0)
(-4.47149 -0.0483021 -2.02191e-20)
(-4.33602 -0.0538107 0)
(-4.18806 -0.0583868 0)
(-4.02878 -0.0625383 2.02124e-20)
(-3.85828 -0.0667379 2.02257e-20)
(-3.67567 -0.0713725 0)
(-3.47934 -0.076704 -2.02683e-20)
(-3.2673 -0.0827807 0)
(-3.03782 -0.0893803 2.03275e-20)
(-2.79006 -0.0959987 0)
(-2.52468 -0.101933 2.03821e-20)
(-2.24428 -0.106426 2.03935e-20)
(-1.95329 -0.108834 0)
(-1.65735 -0.108806 0)
(-1.36207 -0.106419 0)
(-1.07263 -0.102022 0)
(-0.793723 -0.0961203 0)
(-0.52908 -0.0891372 0)
(-0.280155 -0.0816504 0)
(-0.0480351 -0.0749126 1.95175e-20)
(0.166672 -0.068461 -1.92945e-20)
(0.366184 -0.0621669 0)
(0.551311 -0.0562873 0)
(0.722759 -0.0508101 0)
(0.881222 -0.045649 0)
(1.02714 -0.040685 -3.60922e-20)
(1.16065 -0.0358011 0)
(1.28163 -0.0308991 3.50486e-20)
(1.38977 -0.0259443 -3.45233e-20)
(1.48476 -0.0209878 0)
(1.56649 -0.016001 0)
(1.63494 -0.0109803 0)
(1.69059 -0.00629199 3.2418e-20)
(1.7346 -0.00185445 3.18976e-20)
(1.76721 0.00265669 0)
(1.78893 0.00671962 3.08769e-20)
(1.80032 0.0111854 3.03794e-20)
(1.79763 0.0173899 -2.98908e-20)
(1.7789 0.0242825 0)
(1.74282 0.0303901 0)
(1.68953 0.0352601 -2.84708e-20)
(1.62032 0.0393925 0)
(1.5361 0.0434745 0)
(1.43766 0.0469845 0)
(1.32779 0.0476757 0)
(1.21304 0.0436408 2.61856e-20)
(1.10282 0.035381 2.57342e-20)
(1.00593 0.0251055 0)
(0.927478 0.0153178 2.48478e-20)
(0.868289 0.00758238 0)
(0.825987 0.00229004 0)
(0.796701 -0.000873358 2.35716e-20)
(0.776615 -0.00245446 0)
(0.762739 -0.00296249 2.27476e-20)
(0.753003 -0.0028922 0)
(0.746053 -0.00256343 0)
(0.74111 -0.00213867 2.15396e-20)
(0.737532 -0.00171628 0)
(0.735 -0.00133825 2.07509e-20)
(0.732907 -0.000971208 0)
(0.731199 -0.000613128 0)
(0.729097 -0.000242784 0)
(0.727005 0.000133439 -1.92085e-20)
(0.723652 0.000585602 0)
(0.72025 0.00105903 1.84535e-20)
(0.714434 0.00167696 0)
(0.708717 0.00229135 0)
(0.698884 0.00321589 0)
(0.68878 0.00397386 0)
(0.67331 0.00565407 0)
(0.652688 0.00624924 0)
(0.633987 0.0102541 0)
(0.580352 0.00840905 -3.10956e-20)
(0.583596 0.0208536 0)
(0.426621 0.00805582 0)
(-0.0518911 0.197823 -4.45947e-20)
(-0.0577477 0.0596256 4.4302e-20)
(0.0903337 -0.225507 0)
(0.267186 -0.380931 -2.90768e-20)
(0.446566 -0.406022 0)
(0.599746 -0.334239 -1.43346e-20)
(0.716708 -0.202639 2.83996e-20)
(0.788951 -0.0400343 2.81824e-20)
(0.814537 0.130658 0)
(0.784836 0.287703 2.77492e-20)
(0.69492 0.406161 1.38002e-20)
(0.545797 0.462589 0)
(0.348323 0.44582 0)
(0.133758 0.373614 0)
(-0.0626061 0.298378 0)
(-0.231923 0.266701 1.32826e-20)
(-0.370973 0.255623 0)
(-0.464276 0.212748 -2.61013e-20)
(-0.535279 0.161192 0)
(-0.599082 0.134679 0)
(-0.636709 0.111297 2.54757e-20)
(-0.661718 0.0771974 0)
(-0.719492 0.069853 -2.5063e-20)
(-0.829941 0.131594 1.24163e-20)
(-0.990143 0.249141 -1.23017e-20)
(-1.18809 0.384842 1.21833e-20)
(-1.39972 0.525865 1.20625e-20)
(-1.60224 0.609899 0)
(-1.7924 0.577728 0)
(-1.98939 0.480192 -1.16835e-20)
(-2.21628 0.427804 1.15029e-20)
(-2.45893 0.451924 0)
(-2.67123 0.483041 0)
(-2.83816 0.471101 -1.11512e-20)
(-2.98051 0.43109 0)
(-3.10799 0.383061 0)
(-3.21136 0.32549 1.07993e-20)
(-3.28407 0.256211 0)
(-3.32974 0.180701 -1.05235e-20)
(-3.3545 0.105251 2.10414e-20)
(-3.36085 0.0336521 0)
(-3.34698 -0.0332189 0)
(-3.30652 -0.0966003 4.11691e-20)
(-3.2409 -0.157633 4.09936e-20)
(-3.14896 -0.216923 4.08541e-20)
(-3.03125 -0.274586 -2.03058e-20)
(-2.88709 -0.329847 2.03992e-20)
(-2.71615 -0.382199 6.09739e-20)
(-2.51895 -0.431599 -4.05588e-20)
(-2.29583 -0.478317 -2.03266e-20)
(-2.04514 -0.523272 0)
(-1.76294 -0.569361 2.02868e-20)
(-1.44483 -0.623455 -2.01049e-20)
(-1.08869 -0.698163 0)
(-0.696119 -0.81084 0)
(-0.267014 -0.964 0)
(0.142465 -1.02334 1.99213e-20)
(0.564123 -0.889456 0)
(0.907295 -0.748753 -3.88405e-20)
(1.22512 -0.625653 0)
(1.537 -0.480615 -3.80073e-20)
(1.79827 -0.320452 0)
(2.00704 -0.0971135 3.71739e-20)
(2.17653 0.248547 0)
(2.19122 0.564895 -3.64387e-20)
(2.02516 0.617609 1.80164e-20)
(1.68539 0.509088 0)
(1.21784 0.422883 3.55256e-20)
(0.824284 0.302734 1.75894e-20)
(0.552112 0.219353 1.73833e-20)
(0.363685 0.294029 0)
(0.214792 0.410392 1.68655e-20)
(0.0143417 0.414081 1.67307e-20)
(-0.146653 0.177137 0)
(-0.0293713 -0.346829 -1.6371e-20)
(0.344183 -0.740199 3.23737e-20)
(0.823993 -0.684464 0)
(1.21303 -0.35562 1.58493e-20)
(1.45834 -0.132937 0)
(1.53935 -0.143616 -4.62662e-20)
(1.31482 -0.0919808 0)
(0.785618 0.164286 4.53321e-20)
(0.123375 0.467156 1.49344e-20)
(-0.528941 0.709148 -1.46917e-20)
(-1.12807 0.850365 -2.88602e-20)
(-1.6685 0.890397 2.83009e-20)
(-2.15348 0.868709 0)
(-2.59038 0.816066 0)
(-2.9834 0.748515 0)
(-3.33608 0.675762 -7.81019e-20)
(-3.65133 0.602615 -2.54678e-20)
(-3.93117 0.531036 2.47903e-20)
(-4.17685 0.461449 0)
(-4.38894 0.393684 2.32543e-20)
(-4.5675 0.327493 -2.29288e-20)
(-4.71221 0.262704 -2.23998e-20)
(-4.82287 0.199353 0)
(-4.89974 0.13797 0)
(-4.94336 0.0796023 0)
(-4.95458 0.0254061 -2.08953e-20)
(-4.93508 -0.0236868 0)
(-4.88538 -0.0671323 4.0885e-20)
(-4.80845 -0.104204 6.10395e-20)
(-4.70731 -0.135043 -4.05095e-20)
(-4.58662 -0.16011 0)
(-4.44936 -0.180074 -2.01558e-20)
(-4.29875 -0.196138 0)
(-4.13678 -0.209592 -4.0358e-20)
(-3.96448 -0.221864 2.01631e-20)
(-3.78182 -0.234315 2.01754e-20)
(-3.58774 -0.248096 0)
(-3.38044 -0.26396 6.07448e-20)
(-3.15771 -0.282043 -4.05322e-20)
(-2.91761 -0.301661 -2.03253e-20)
(-2.65918 -0.321277 0)
(-2.3831 -0.338729 -2.03796e-20)
(-2.09218 -0.351685 -6.11295e-20)
(-1.79126 -0.358236 0)
(-1.48645 -0.357416 -4.06652e-20)
(-1.18363 -0.349549 -4.05399e-20)
(-0.88807 -0.335711 -4.03496e-20)
(-0.604232 -0.317567 0)
(-0.335704 -0.296719 0)
(-0.0834347 -0.275609 0)
(0.151517 -0.255453 1.94955e-20)
(0.369411 -0.236066 1.92861e-20)
(0.572783 -0.21767 0)
(0.762175 -0.200562 3.75925e-20)
(0.938571 -0.184645 3.70916e-20)
(1.10279 -0.169642 0)
(1.25535 -0.155212 3.6079e-20)
(1.39641 -0.141031 7.11008e-20)
(1.52585 -0.126856 -3.50364e-20)
(1.6433 -0.112607 -3.45004e-20)
(1.7484 -0.0983729 0)
(1.8408 -0.084379 0)
(1.9207 -0.07101 0)
(1.98913 -0.0587439 -3.24075e-20)
(2.04683 -0.0476192 3.18789e-20)
(2.09592 -0.0372449 6.27366e-20)
(2.13888 -0.0272584 -3.08664e-20)
(2.17593 -0.0167918 3.03575e-20)
(2.2096 -0.00475081 2.98794e-20)
(2.23915 0.00902655 0)
(2.26154 0.0237808 0)
(2.27299 0.0384443 -2.8445e-20)
(2.27043 0.0521455 0)
(2.25302 0.0644418 0)
(2.22241 0.0749979 5.41369e-20)
(2.18165 0.0828661 0)
(2.13409 0.0862437 2.61562e-20)
(2.08275 0.0832954 -2.57091e-20)
(2.03057 0.0741531 0)
(1.98049 0.0612444 2.48253e-20)
(1.93501 0.0477013 0)
(1.89543 0.0358001 0)
(1.86171 0.0264859 -2.35488e-20)
(1.83294 0.0196357 4.62728e-20)
(1.80799 0.0146693 -2.27265e-20)
(1.786 0.0109626 0)
(1.76654 0.00806233 0)
(1.74962 0.00577317 2.15209e-20)
(1.73513 0.00403031 0)
(1.72309 0.00278805 2.07334e-20)
(1.71307 0.00201364 0)
(1.70492 0.00160717 0)
(1.69785 0.00154072 0)
(1.69194 0.00166093 1.91936e-20)
(1.68616 0.00207193 0)
(1.68116 0.00249687 -1.84395e-20)
(1.67544 0.00342475 0)
(1.67023 0.00410832 0)
(1.66359 0.006044 3.46547e-20)
(1.65634 0.00692637 -3.39247e-20)
(1.64808 0.0110989 0)
(1.63377 0.0115852 0)
(1.62569 0.0209068 0)
(1.58957 0.0184567 9.32054e-20)
(1.5947 0.039915 0)
(1.49685 0.0293144 -5.93655e-20)
(-0.0566939 0.287968 2.45622e-23)
(0.155383 -0.259838 -5.8971e-20)
(0.412853 -0.690118 0)
(0.636824 -0.847126 5.79765e-20)
(0.808592 -0.806323 0)
(0.935294 -0.64527 0)
(1.02301 -0.418526 -1.31502e-22)
(1.07717 -0.161351 -2.81538e-20)
(1.09996 0.102249 -2.78016e-20)
(1.0885 0.352492 -2.77197e-20)
(1.03675 0.569927 0)
(0.939971 0.735779 0)
(0.796722 0.824338 2.70212e-20)
(0.608308 0.816316 5.36961e-20)
(0.389221 0.733121 -5.33501e-20)
(0.169541 0.631234 0)
(-0.0148043 0.522688 -5.2609e-20)
(-0.137803 0.392032 2.61211e-20)
(-0.248291 0.309789 0)
(-0.348667 0.264989 -5.13812e-20)
(-0.412074 0.196732 -2.54885e-20)
(-0.497459 0.196681 5.056e-20)
(-0.668515 0.327152 2.50572e-20)
(-0.907367 0.487999 0)
(-1.16739 0.626907 -4.91274e-20)
(-1.43069 0.749981 -4.85958e-20)
(-1.68008 0.842767 0)
(-1.90295 0.882888 -4.75041e-20)
(-2.12709 0.866166 0)
(-2.37897 0.832833 -4.63902e-20)
(-2.64368 0.804631 -2.30155e-20)
(-2.87467 0.762979 0)
(-3.051 0.700603 0)
(-3.19001 0.628944 0)
(-3.30665 0.549023 0)
(-3.40091 0.458188 0)
(-3.47196 0.36368 0)
(-3.52256 0.270727 -4.23277e-20)
(-3.55457 0.176872 6.3081e-20)
(-3.56759 0.0807129 0)
(-3.55978 -0.0159811 0)
(-3.52963 -0.112444 0)
(-3.47501 -0.208473 -2.4326e-22)
(-3.39424 -0.303522 -4.09715e-20)
(-3.28768 -0.397391 -8.14292e-20)
(-3.1556 -0.489493 8.12159e-20)
(-2.99817 -0.579415 4.04142e-20)
(-2.816 -0.667103 -4.05795e-20)
(-2.61024 -0.753442 2.26569e-22)
(-2.38186 -0.840259 -4.02599e-20)
(-2.13104 -0.930566 0)
(-1.85743 -1.02867 -4.01465e-20)
(-1.56076 -1.13913 2.63764e-22)
(-1.2422 -1.26366 0)
(-0.908141 -1.39419 0)
(-0.581578 -1.4993 3.9564e-20)
(-0.32351 -1.51001 0)
(-0.00277448 -1.31639 0)
(0.267205 -1.1304 -3.84692e-20)
(0.545744 -1.03017 -7.66084e-20)
(0.887871 -0.871008 3.8032e-20)
(1.23178 -0.658188 0)
(1.54024 -0.407458 -3.719e-20)
(1.841 -0.0351136 0)
(2.11756 0.458558 -3.61817e-20)
(2.24871 0.845448 -3.61006e-20)
(2.08669 0.982104 7.13471e-20)
(1.70111 0.959484 3.52663e-20)
(1.30462 0.881398 0)
(0.866486 0.773014 -6.92175e-20)
(0.439316 0.637468 0)
(0.160552 0.549801 -1.01128e-19)
(0.0440499 0.432312 -6.64006e-20)
(0.0595488 0.0163005 -6.56188e-20)
(0.243998 -0.717343 6.49564e-20)
(0.519924 -1.30127 -9.67959e-20)
(0.865277 -1.2516 0)
(1.13243 -0.794659 0)
(1.17555 -0.297215 6.22051e-20)
(0.823743 0.220993 9.24829e-20)
(0.209691 0.669231 0)
(-0.419887 0.971894 -3.0215e-20)
(-0.984124 1.17127 0)
(-1.46129 1.29563 8.78307e-20)
(-1.85743 1.34098 3.34426e-22)
(-2.19312 1.3191 -4.17481e-22)
(-2.49124 1.25319 -5.52411e-20)
(-2.76787 1.16346 0)
(-3.03212 1.0641 5.27754e-20)
(-3.28683 0.962764 4.46775e-22)
(-3.53095 0.862679 0)
(-3.76128 0.764526 0)
(-3.97382 0.667847 0)
(-4.16437 0.571895 -4.67663e-20)
(-4.32886 0.476177 0)
(-4.46368 0.380748 0)
(-4.56607 0.286232 0)
(-4.63436 0.193746 0)
(-4.66785 0.104666 0)
(-4.66676 0.0204024 -4.14183e-20)
(-4.63289 -0.057298 0)
(-4.56867 -0.126431 -4.08989e-20)
(-4.47783 -0.186156 -4.06718e-20)
(-4.36447 -0.235768 4.05219e-20)
(-4.23285 -0.275709 0)
(-4.08681 -0.307323 4.03842e-20)
(-3.9294 -0.332405 0)
(-3.7627 -0.353234 4.03688e-20)
(-3.58762 -0.372185 -4.03841e-20)
(-3.4039 -0.391551 -1.21075e-19)
(-3.21012 -0.413314 0)
(-3.00394 -0.438812 -1.21288e-19)
(-2.78247 -0.46835 -4.0359e-20)
(-2.54295 -0.500836 0)
(-2.28379 -0.533598 -8.11443e-20)
(-2.00546 -0.562749 -8.12631e-20)
(-1.7111 -0.584072 1.22083e-19)
(-1.40655 -0.594201 0)
(-1.09931 -0.591392 4.0669e-20)
(-0.796277 -0.576324 4.0544e-20)
(-0.503465 -0.551133 1.20986e-19)
(-0.22568 -0.518913 0)
(0.033892 -0.484098 0)
(0.273716 -0.448372 0)
(0.49506 -0.41429 3.89184e-20)
(0.698417 -0.381568 0)
(0.8858 -0.351278 0)
(1.05864 -0.323443 -3.75716e-20)
(1.21822 -0.29773 -3.70724e-20)
(1.36562 -0.273605 0)
(1.50156 -0.250431 0)
(1.62641 -0.227587 -7.10718e-20)
(1.74026 -0.204586 0)
(1.84297 -0.181219 6.89883e-20)
(1.93423 -0.157603 6.79243e-20)
(2.01383 -0.134163 0)
(2.08193 -0.111707 0)
(2.13911 -0.09113 -6.47796e-20)
(2.18639 -0.0732194 -1.49568e-23)
(2.22478 -0.0585598 -1.63774e-23)
(2.25516 -0.0465046 0)
(2.27907 -0.0353666 -1.21418e-19)
(2.29926 -0.0232863 0)
(2.31956 -0.00856562 0)
(2.34189 0.00911425 0)
(2.36431 0.029335 5.68946e-20)
(2.3825 0.0505735 0)
(2.39204 0.0706974 -1.10065e-19)
(2.39072 0.0874287 -5.41264e-20)
(2.3795 0.0987123 0)
(2.36078 0.102863 -5.23036e-20)
(2.33682 0.0988646 0)
(2.30946 0.0879745 0)
(2.2803 0.0731998 -1.48903e-19)
(2.25104 0.0578455 9.75468e-20)
(2.22343 0.0443516 0)
(2.19876 0.0338882 9.41725e-20)
(2.17753 0.0264926 -4.62566e-20)
(2.15952 0.0214902 0)
(2.14414 0.0180041 0)
(2.13067 0.0152864 0)
(2.11844 0.0128673 -1.2908e-19)
(2.10692 0.0106071 0)
(2.09581 0.00855005 -4.14527e-20)
(2.08505 0.00683215 0)
(2.07474 0.00549856 0)
(2.06505 0.00466734 0)
(2.05618 0.00420012 0)
(2.04825 0.00424843 0)
(2.0412 0.00440856 0)
(2.03521 0.00529003 -7.22375e-20)
(2.02964 0.0058865 0)
(2.02535 0.00806389 -3.46439e-20)
(2.02 0.00902116 1.01736e-19)
(2.01722 0.0139001 0)
(2.00932 0.0148574 0)
(2.00902 0.0255108 -6.35093e-20)
(1.99234 0.0248142 -6.21125e-20)
(1.9991 0.0474448 6.07012e-20)
(1.96079 0.0423817 5.93436e-20)
(0.0862536 0.0165973 8.90181e-20)
(0.425146 -0.879453 8.81774e-20)
(0.686615 -1.25086 5.8163e-20)
(0.851867 -1.25363 2.86963e-20)
(0.952364 -1.07597 0)
(1.0162 -0.816325 -5.66045e-20)
(1.05659 -0.522281 2.79126e-20)
(1.0816 -0.21345 0)
(1.09066 0.0981863 2.78025e-20)
(1.0821 0.400123 0)
(1.05372 0.674778 -5.44564e-20)
(0.998282 0.902319 0)
(0.910919 1.06419 -2.70018e-20)
(0.784593 1.14079 -5.36431e-20)
(0.619933 1.12002 5.32867e-20)
(0.431791 1.02237 0)
(0.255841 0.854702 5.25582e-20)
(0.0934653 0.667927 0)
(-0.072664 0.558869 0)
(-0.189543 0.455063 5.13883e-20)
(-0.304662 0.391895 0)
(-0.534418 0.548699 -4.74045e-23)
(-0.829693 0.8054 0)
(-1.1489 1.01352 0)
(-1.47545 1.1658 1.32509e-22)
(-1.7855 1.26917 4.85179e-20)
(-2.06797 1.32798 4.77584e-20)
(-2.31631 1.34919 4.74274e-20)
(-2.54775 1.33124 0)
(-2.76391 1.27534 9.23075e-20)
(-2.95411 1.1865 0)
(-3.11416 1.07953 4.48252e-20)
(-3.25007 0.970553 0)
(-3.36661 0.862617 0)
(-3.46363 0.748932 -4.32304e-20)
(-3.54262 0.627533 0)
(-3.60468 0.501788 4.23255e-20)
(-3.64857 0.372451 3.81418e-22)
(-3.67267 0.239523 -8.35303e-20)
(-3.67573 0.105296 8.25343e-20)
(-3.65732 -0.0288332 0)
(-3.61666 -0.162995 0)
(-3.55339 -0.296592 4.01997e-20)
(-3.46758 -0.429685 0)
(-3.35817 -0.561725 4.05804e-20)
(-3.22408 -0.691624 -4.04737e-20)
(-3.06522 -0.818126 -4.03926e-20)
(-2.88253 -0.94 0)
(-2.67853 -1.05628 4.028e-20)
(-2.45759 -1.16711 4.02327e-20)
(-2.22635 -1.27498 -7.9728e-20)
(-1.99243 -1.38482 4.01129e-20)
(-1.76204 -1.50091 4.00222e-20)
(-1.53834 -1.62021 0)
(-1.32489 -1.72561 0)
(-1.13141 -1.78664 -3.95011e-20)
(-0.939038 -1.76384 0)
(-0.682509 -1.60221 0)
(-0.399151 -1.44127 7.72735e-20)
(-0.149309 -1.43379 7.66267e-20)
(0.179531 -1.33369 0)
(0.529981 -1.1277 0)
(0.900991 -0.845046 0)
(1.28159 -0.460906 0)
(1.68432 0.0757063 7.2705e-20)
(2.05448 0.669655 -7.17804e-20)
(2.23238 1.13408 -7.13145e-20)
(2.13724 1.35177 -1.41059e-19)
(1.87153 1.34348 0)
(1.51177 1.24034 2.12878e-22)
(1.12952 1.0984 0)
(0.794284 0.86678 6.72218e-20)
(0.582111 0.514674 2.39916e-22)
(0.501512 -0.0469121 6.55711e-20)
(0.530204 -0.855089 -6.49177e-20)
(0.525744 -1.51832 -3.1201e-23)
(0.558434 -1.40271 0)
(0.496426 -0.587147 -6.32754e-20)
(0.15017 0.267306 -6.22886e-20)
(-0.268881 0.869597 -1.23427e-19)
(-0.697702 1.2524 0)
(-1.10051 1.48117 6.01004e-20)
(-1.44608 1.6071 0)
(-1.73028 1.65382 -1.16539e-19)
(-1.97162 1.6397 5.74222e-20)
(-2.19372 1.58442 -5.63599e-20)
(-2.41407 1.5045 5.5225e-20)
(-2.64003 1.41073 1.07103e-19)
(-2.87136 1.30911 -5.27682e-20)
(-3.10341 1.20226 5.14785e-20)
(-3.32998 1.09119 0)
(-3.54492 0.976303 -9.68933e-20)
(-3.74277 0.857858 0)
(-3.91885 0.736154 -9.20449e-20)
(-4.06909 0.611655 8.98349e-20)