/*--------------------------------*- C++ -*----------------------------------*\
  =========                 |
  \\      /  F ield         | OpenFOAM: The Open Source CFD Toolbox
   \\    /   O peration     | Website:  https://openfoam.org
    \\  /    A nd           | Version:  7
     \\/     M anipulation  |
\*---------------------------------------------------------------------------*/
FoamFile
{
    version     2.0;
    format      ascii;
    class       volSymmTensorField;
    location    "0.095";
    object      UPrime2Mean;
}
// * * * * * * * * * * * * * * * * * * * * * * * * * * * * * * * * * * * * * //

dimensions      [0 2 -2 0 0 0 0];

internalField   nonuniform List<symmTensor> 
12225
(
(0.00421957 -8.98818e-05 0 0.000482641 0 0)
(0.0223234 -0.000957012 0 0.000201325 0 0)
(0.0320801 -0.00139675 0 0.000167419 0 0)
(0.0426484 -0.00171614 0 0.000152967 0 0)
(0.0609754 -0.00215514 0 0.000147042 0 0)
(0.0883577 -0.00272566 0 0.000146502 0 0)
(0.125138 -0.00342284 0 0.000155878 0 0)
(0.1716 -0.00396611 0 0.000144847 0 0)
(0.227832 -0.00481208 0 0.000155598 0 0)
(0.293199 -0.00466157 0 0.00012006 0 0)
(0.369265 -0.00626781 0 0.000145399 0 0)
(0.450431 -0.00416223 0 8.43745e-05 0 0)
(0.549682 -0.00960753 0 0.000214007 0 0)
(0.645937 -0.00129956 0 0.000146956 0 0)
(0.790389 -0.022422 0 0.00099768 0 0)
(0.930043 0.00942229 0 0.00115511 0 0)
(1.20765 -0.0836977 0 0.0111132 0 0)
(1.62384 0.031485 0 0.00540311 0 0)
(0.00392691 4.25169e-05 0 0.000648914 0 0)
(0.0151658 -0.000457394 0 0.000210819 0 0)
(0.0164093 -0.000763604 0 0.000233092 0 0)
(0.0168286 -0.000949294 0 0.000304186 0 0)
(0.0198338 -0.00133833 0 0.000396072 0 0)
(0.0252819 -0.00206295 0 0.000517311 0 0)
(0.0336645 -0.003098 0 0.000644926 0 0)
(0.0463676 -0.00457332 0 0.000822009 0 0)
(0.0638082 -0.00616114 0 0.000927619 0 0)
(0.0891202 -0.00854904 0 0.00114906 0 0)
(0.120723 -0.0103423 0 0.00115897 0 0)
(0.165763 -0.0143567 0 0.00150452 0 0)
(0.216832 -0.0157344 0 0.00138159 0 0)
(0.293343 -0.0243135 0 0.00224934 0 0)
(0.373115 -0.0249477 0 0.00203783 0 0)
(0.514669 -0.04971 0 0.00556323 0 0)
(0.651755 -0.0602959 0 0.00622209 0 0)
(0.938837 -0.165798 0 0.0383879 0 0)
(0.00387477 8.38146e-05 0 0.000831384 0 0)
(0.0149485 -0.000680721 0 0.000381709 0 0)
(0.0155749 -0.00108346 0 0.000408771 0 0)
(0.0150332 -0.00120654 0 0.000508981 0 0)
(0.0161913 -0.00142405 0 0.000645628 0 0)
(0.0181543 -0.00184489 0 0.000823538 0 0)
(0.020794 -0.00249008 0 0.00108499 0 0)
(0.0242631 -0.00330449 0 0.00133578 0 0)
(0.0290178 -0.00446995 0 0.00171578 0 0)
(0.0354117 -0.00570916 0 0.00197076 0 0)
(0.0446412 -0.0078471 0 0.00250199 0 0)
(0.056968 -0.00965674 0 0.00269101 0 0)
(0.0751051 -0.0140586 0 0.00368379 0 0)
(0.0991044 -0.0168793 0 0.00382929 0 0)
(0.135298 -0.028282 0 0.00682689 0 0)
(0.183872 -0.0358446 0 0.00775736 0 0)
(0.254354 -0.072635 0 0.0220479 0 0)
(0.344534 -0.120731 0 0.0451678 0 0)
(0.00385707 -0.000183399 0 0.000932563 0 0)
(0.0149053 -0.000892576 0 0.000450651 0 0)
(0.0155141 -0.00123009 0 0.000472095 0 0)
(0.0148996 -0.00135744 0 0.000610852 0 0)
(0.0158158 -0.00157227 0 0.000782214 0 0)
(0.0173634 -0.00198919 0 0.0010064 0 0)
(0.0193437 -0.00258592 0 0.00128264 0 0)
(0.0218376 -0.00336229 0 0.00165474 0 0)
(0.0249256 -0.00427067 0 0.0020402 0 0)
(0.0290188 -0.00550801 0 0.00256807 0 0)
(0.0343714 -0.0069756 0 0.00307217 0 0)
(0.0419027 -0.00928758 0 0.00388925 0 0)
(0.0520443 -0.012148 0 0.0047284 0 0)
(0.066777 -0.0173039 0 0.0064671 0 0)
(0.0869355 -0.0245464 0 0.0088816 0 0)
(0.115422 -0.0384484 0 0.0147208 0 0)
(0.152391 -0.0625952 0 0.0273026 0 0)
(0.190335 -0.100707 0 0.0550236 0 0)
(0.00426192 -0.00014888 0 0.00103537 0 0)
(0.0146959 -0.00101127 0 0.000558772 0 0)
(0.0151202 -0.00133764 0 0.000575976 0 0)
(0.0145277 -0.00146592 0 0.000749459 0 0)
(0.0154654 -0.00169945 0 0.000964796 0 0)
(0.016962 -0.00214528 0 0.0012249 0 0)
(0.0188272 -0.00279781 0 0.00157863 0 0)
(0.0211306 -0.0036237 0 0.00199471 0 0)
(0.0239926 -0.00467992 0 0.00254428 0 0)
(0.0276462 -0.00595407 0 0.00313971 0 0)
(0.0324387 -0.00775756 0 0.0039675 0 0)
(0.0388339 -0.0100664 0 0.00491508 0 0)
(0.0474697 -0.0136856 0 0.00646866 0 0)
(0.0592185 -0.0187243 0 0.00857912 0 0)
(0.0749651 -0.0271998 0 0.012658 0 0)
(0.0952086 -0.0403276 0 0.0198981 0 0)
(0.11873 -0.0614288 0 0.034409 0 0)
(0.138325 -0.0931379 0 0.0662467 0 0)
(0.00395721 -0.000205703 0 0.00117916 0 0)
(0.014598 -0.00119135 0 0.000716312 0 0)
(0.0148389 -0.00147515 0 0.000737336 0 0)
(0.0141836 -0.00156937 0 0.000967869 0 0)
(0.0150436 -0.00180712 0 0.00125098 0 0)
(0.016388 -0.00228014 0 0.00158393 0 0)
(0.018052 -0.00296563 0 0.00199665 0 0)
(0.0201285 -0.00385093 0 0.00252301 0 0)
(0.0227312 -0.00496347 0 0.00316624 0 0)
(0.026052 -0.00640283 0 0.003971 0 0)
(0.0303869 -0.00833152 0 0.00498316 0 0)
(0.0360678 -0.0110158 0 0.00635405 0 0)
(0.0436091 -0.0148588 0 0.00830804 0 0)
(0.0533888 -0.0204857 0 0.0113205 0 0)
(0.0659728 -0.0290173 0 0.0163687 0 0)
(0.0806119 -0.0416162 0 0.0251388 0 0)
(0.0961387 -0.0601414 0 0.0412322 0 0)
(0.106984 -0.0836895 0 0.0692645 0 0)
(0.00359249 -0.000255623 0 0.00137122 0 0)
(0.014027 -0.00134193 0 0.000935678 0 0)
(0.0141667 -0.00160013 0 0.000924548 0 0)
(0.0135128 -0.00170687 0 0.0011656 0 0)
(0.0143841 -0.0019699 0 0.00149243 0 0)
(0.015694 -0.00247661 0 0.00187828 0 0)
(0.0172523 -0.00321293 0 0.00236392 0 0)
(0.0191383 -0.00416206 0 0.00297908 0 0)
(0.0214706 -0.00536201 0 0.00376536 0 0)
(0.0244279 -0.00689998 0 0.004757 0 0)
(0.0282534 -0.00896616 0 0.00603982 0 0)
(0.0331778 -0.0118123 0 0.00778025 0 0)
(0.0395158 -0.0158282 0 0.0102631 0 0)
(0.0473919 -0.0215721 0 0.0140631 0 0)
(0.0569322 -0.0297652 0 0.0200383 0 0)
(0.0671567 -0.041269 0 0.0300154 0 0)
(0.0769222 -0.0563862 0 0.0460175 0 0)
(0.0823088 -0.0740247 0 0.0716526 0 0)
(0.00367422 -0.000196256 0 0.00133181 0 0)
(0.0139107 -0.00144364 0 0.000973632 0 0)
(0.0139951 -0.00167023 0 0.00105488 0 0)
(0.0132715 -0.00173833 0 0.0013595 0 0)
(0.0140804 -0.0020138 0 0.00175372 0 0)
(0.0153233 -0.00254629 0 0.00221851 0 0)
(0.0167737 -0.00330177 0 0.00279531 0 0)
(0.0184777 -0.00428061 0 0.00353391 0 0)
(0.02053 -0.00553359 0 0.0044777 0 0)
(0.0230804 -0.00715783 0 0.00568675 0 0)
(0.0263199 -0.00932376 0 0.00726436 0 0)
(0.0303939 -0.0122614 0 0.00941216 0 0)
(0.0354635 -0.0163018 0 0.0124481 0 0)
(0.0414841 -0.0218588 0 0.0169513 0 0)
(0.0483254 -0.0294078 0 0.023746 0 0)
(0.0550549 -0.0392907 0 0.0342749 0 0)
(0.0607068 -0.0513163 0 0.049974 0 0)
(0.062826 -0.0642323 0 0.0730312 0 0)
(0.00429673 -0.00041117 0 0.0014072 0 0)
(0.0141342 -0.00178257 0 0.00112816 0 0)
(0.0138773 -0.00198912 0 0.00124191 0 0)
(0.0130974 -0.00201054 0 0.00158178 0 0)
(0.013844 -0.00227625 0 0.00204472 0 0)
(0.0149043 -0.00282674 0 0.00260253 0 0)
(0.0161031 -0.00360961 0 0.00328775 0 0)
(0.0175425 -0.00461439 0 0.00415485 0 0)
(0.0193052 -0.00589046 0 0.00526175 0 0)
(0.0214812 -0.00753606 0 0.00668973 0 0)
(0.0241825 -0.00970862 0 0.00855675 0 0)
(0.0274789 -0.0126135 0 0.0110924 0 0)
(0.0314157 -0.0165013 0 0.0146134 0 0)
(0.0358398 -0.0216497 0 0.0196864 0 0)
(0.0405089 -0.028289 0 0.0269999 0 0)
(0.0446209 -0.0364472 0 0.0376896 0 0)
(0.0475164 -0.045697 0 0.0526437 0 0)
(0.0476879 -0.0548642 0 0.0730928 0 0)
(0.00374421 -0.000327761 0 0.0015699 0 0)
(0.0138427 -0.00181259 0 0.0012601 0 0)
(0.013673 -0.00201563 0 0.00140343 0 0)
(0.0129181 -0.00200151 0 0.00177538 0 0)
(0.0136119 -0.00224971 0 0.00228415 0 0)
(0.0145683 -0.00280143 0 0.00291149 0 0)
(0.0156205 -0.00359046 0 0.0036892 0 0)
(0.016854 -0.00459986 0 0.00467644 0 0)
(0.0183314 -0.00587784 0 0.0059446 0 0)
(0.0201178 -0.00751651 0 0.00759189 0 0)
(0.0222802 -0.00964698 0 0.00974905 0 0)
(0.0248242 -0.0124241 0 0.0126479 0 0)
(0.0277116 -0.0160193 0 0.0165934 0 0)
(0.0307352 -0.0205784 0 0.022091 0 0)
(0.0336371 -0.0261624 0 0.0296857 0 0)
(0.0357936 -0.0326101 0 0.0402194 0 0)
(0.0368429 -0.0394413 0 0.0541684 0 0)
(0.0358528 -0.0456794 0 0.072264 0 0)
(0.00387573 -0.000352074 0 0.00178964 0 0)
(0.0138135 -0.00206241 0 0.0015404 0 0)
(0.0133631 -0.0023094 0 0.00167361 0 0)
(0.0124176 -0.00224134 0 0.00208686 0 0)
(0.0130088 -0.00245974 0 0.00266793 0 0)
(0.0138873 -0.00300342 0 0.00339209 0 0)
(0.0148338 -0.00377658 0 0.00428499 0 0)
(0.0159034 -0.00474845 0 0.00540881 0 0)
(0.0171425 -0.00596302 0 0.00683919 0 0)
(0.0185909 -0.00750626 0 0.00868841 0 0)
(0.0202765 -0.00948718 0 0.0110957 0 0)
(0.0221628 -0.0120116 0 0.0142854 0 0)
(0.0241716 -0.0151765 0 0.0185301 0 0)
(0.0260935 -0.0190213 0 0.0242572 0 0)
(0.0277178 -0.0235013 0 0.03187 0 0)
(0.0285942 -0.0283647 0 0.0419686 0 0)
(0.0285847 -0.0331794 0 0.0547486 0 0)
(0.0271108 -0.037174 0 0.0706512 0 0)
(0.00378855 -0.000433458 0 0.00183676 0 0)
(0.0137063 -0.00209275 0 0.00160955 0 0)
(0.0132068 -0.00232434 0 0.00180048 0 0)
(0.0121737 -0.00223087 0 0.00225654 0 0)
(0.0126401 -0.00242307 0 0.00288942 0 0)
(0.013352 -0.00294663 0 0.00369076 0 0)
(0.0141043 -0.00369439 0 0.0046835 0 0)
(0.0149499 -0.00462316 0 0.00592524 0 0)
(0.0159132 -0.00576769 0 0.00750212 0 0)
(0.0170063 -0.00719856 0 0.00952977 0 0)
(0.0182277 -0.00899899 0 0.0121441 0 0)
(0.0195156 -0.0112326 0 0.0155533 0 0)
(0.020783 -0.0139407 0 0.0199902 0 0)
(0.0218577 -0.0170938 0 0.0258066 0 0)
(0.0225904 -0.0205884 0 0.0332829 0 0)
(0.0226855 -0.0241519 0 0.0428455 0 0)
(0.0221247 -0.0274197 0 0.0545193 0 0)
(0.0205367 -0.0297992 0 0.0685993 0 0)
(0.00379551 -0.000544018 0 0.00203982 0 0)
(0.0139287 -0.00227367 0 0.00186784 0 0)
(0.0133416 -0.00245527 0 0.00203963 0 0)
(0.0121692 -0.00227978 0 0.00252389 0 0)
(0.0124913 -0.00241251 0 0.00320857 0 0)
(0.0130613 -0.00289084 0 0.00408847 0 0)
(0.0136605 -0.00358973 0 0.00518312 0 0)
(0.0143227 -0.00444761 0 0.00654245 0 0)
(0.0150468 -0.00548231 0 0.00824884 0 0)
(0.0158218 -0.00674802 0 0.0104166 0 0)
(0.0166285 -0.00830469 0 0.0131786 0 0)
(0.0174133 -0.010184 0 0.0167215 0 0)
(0.0180995 -0.0123856 0 0.0212357 0 0)
(0.0185552 -0.0148399 0 0.0270012 0 0)
(0.0186754 -0.0174152 0 0.0341976 0 0)
(0.0182715 -0.0198543 0 0.0431301 0 0)
(0.0173957 -0.0218578 0 0.0537166 0 0)
(0.0158037 -0.0229804 0 0.0661796 0 0)
(0.00356554 -0.000624821 0 0.00243248 0 0)
(0.0135331 -0.00243759 0 0.00228452 0 0)
(0.0128882 -0.00256147 0 0.00241771 0 0)
(0.0116985 -0.00231776 0 0.00290594 0 0)
(0.0119567 -0.00238124 0 0.0036274 0 0)
(0.0124091 -0.00279007 0 0.0045655 0 0)
(0.0128292 -0.00340067 0 0.00573711 0 0)
(0.0132377 -0.00413012 0 0.00719288 0 0)
(0.0136348 -0.00498119 0 0.00900844 0 0)
(0.0140259 -0.00599626 0 0.0112919 0 0)
(0.0144131 -0.00722 0 0.0141601 0 0)
(0.0147537 -0.00865609 0 0.0177719 0 0)
(0.0149769 -0.0102692 0 0.0222682 0 0)
(0.0149744 -0.0119534 0 0.0278554 0 0)
(0.0146738 -0.0135719 0 0.0346227 0 0)
(0.0139764 -0.0148911 0 0.042778 0 0)
(0.0129779 -0.0157057 0 0.0521618 0 0)
(0.0115317 -0.0156798 0 0.0629605 0 0)
(0.00386664 -0.00038625 0 0.00252976 0 0)
(0.0135984 -0.00256511 0 0.00254737 0 0)
(0.012823 -0.00275931 0 0.00274156 0 0)
(0.0115748 -0.00250526 0 0.00328751 0 0)
(0.0117853 -0.0025379 0 0.00407404 0 0)
(0.0121459 -0.00288489 0 0.00508502 0 0)
(0.0124196 -0.00339674 0 0.00634275 0 0)
(0.0126367 -0.00399081 0 0.00789129 0 0)
(0.0128072 -0.00466347 0 0.00979468 0 0)
(0.0129377 -0.00543909 0 0.0121461 0 0)
(0.0130207 -0.00633193 0 0.015042 0 0)
(0.0130152 -0.00731024 0 0.0186059 0 0)
(0.0128667 -0.00831217 0 0.0229273 0 0)
(0.0125165 -0.009221 0 0.0281458 0 0)
(0.0119532 -0.00992406 0 0.0342744 0 0)
(0.0111507 -0.0102357 0 0.0414525 0 0)
(0.0102385 -0.0100406 0 0.0494811 0 0)
(0.0091139 -0.00909473 0 0.0585316 0 0)
(0.00428623 -0.000342951 0 0.00281976 0 0)
(0.0137998 -0.00256803 0 0.00261815 0 0)
(0.0127502 -0.00278155 0 0.00273374 0 0)
(0.0112523 -0.00246593 0 0.00328914 0 0)
(0.0111965 -0.0024189 0 0.00410329 0 0)
(0.0112926 -0.00268149 0 0.00515865 0 0)
(0.0113604 -0.00307921 0 0.00646463 0 0)
(0.0114299 -0.00350193 0 0.00805112 0 0)
(0.0114603 -0.00392773 0 0.00996976 0 0)
(0.0114075 -0.00436703 0 0.0122965 0 0)
(0.0112523 -0.00482317 0 0.0151034 0 0)
(0.0109839 -0.00525814 0 0.0184784 0 0)
(0.0106014 -0.00561242 0 0.0224668 0 0)
(0.0101102 -0.0057806 0 0.0271541 0 0)
(0.00953811 -0.00567993 0 0.0325063 0 0)
(0.00890557 -0.00516672 0 0.0386152 0 0)
(0.0083268 -0.00419574 0 0.0452792 0 0)
(0.0077208 -0.00258618 0 0.0526627 0 0)
(0.00404386 -0.000421811 0 0.00297255 0 0)
(0.0138584 -0.00280863 0 0.00277811 0 0)
(0.0127168 -0.00303533 0 0.00292022 0 0)
(0.0111335 -0.00262785 0 0.00351842 0 0)
(0.0110045 -0.00248488 0 0.00435895 0 0)
(0.0109848 -0.00266178 0 0.00543301 0 0)
(0.0108969 -0.00294421 0 0.00674509 0 0)
(0.0107939 -0.00318112 0 0.00830654 0 0)
(0.0106583 -0.00333462 0 0.010151 0 0)
(0.0104669 -0.00342084 0 0.0123354 0 0)
(0.0102122 -0.00345424 0 0.014908 0 0)
(0.00989489 -0.00340534 0 0.0179249 0 0)
(0.00951989 -0.00322149 0 0.0213953 0 0)
(0.00911043 -0.00281086 0 0.0253637 0 0)
(0.00869886 -0.00211337 0 0.0297654 0 0)
(0.00833312 -0.00102442 0 0.0346677 0 0)
(0.00810323 0.000457085 0 0.0398765 0 0)
(0.00797788 0.00246347 0 0.0455609 0 0)
(0.0037796 -0.000436912 0 0.00304731 0 0)
(0.0136615 -0.00281315 0 0.00305847 0 0)
(0.0124377 -0.00299735 0 0.00299039 0 0)
(0.0107207 -0.00262551 0 0.00342628 0 0)
(0.0104479 -0.00248836 0 0.00418562 0 0)
(0.0102351 -0.00256451 0 0.00516303 0 0)
(0.00992958 -0.00265843 0 0.00632288 0 0)
(0.00963712 -0.002664 0 0.00767951 0 0)
(0.00937319 -0.00255988 0 0.00926833 0 0)
(0.009124 -0.00235072 0 0.0111296 0 0)
(0.0088803 -0.00203027 0 0.0132845 0 0)
(0.00864214 -0.00156284 0 0.0157572 0 0)
(0.00841704 -0.000904409 0 0.0185361 0 0)
(0.00823959 2.84909e-06 0 0.0216423 0 0)
(0.00814555 0.00118524 0 0.0250119 0 0)
(0.00819175 0.00269467 0 0.0286991 0 0)
(0.00844048 0.00451104 0 0.0325476 0 0)
(0.00888278 0.00670785 0 0.0366984 0 0)
(0.00381545 -0.000225548 0 0.00283701 0 0)
(0.0138491 -0.0024692 0 0.00276317 0 0)
(0.0123009 -0.0026304 0 0.00270387 0 0)
(0.0103634 -0.00213817 0 0.00312408 0 0)
(0.00997725 -0.00178585 0 0.00377904 0 0)
(0.00966368 -0.00162962 0 0.00458937 0 0)
(0.00930345 -0.0015016 0 0.00554979 0 0)
(0.00902372 -0.00128264 0 0.00667017 0 0)
(0.00882977 -0.000926436 0 0.00795287 0 0)
(0.00869569 -0.000425312 0 0.00940043 0 0)
(0.00861352 0.000219331 0 0.0110132 0 0)
(0.00859692 0.00102025 0 0.0128055 0 0)
(0.00867272 0.00199547 0 0.0147686 0 0)
(0.00888855 0.00317618 0 0.0169171 0 0)
(0.00928109 0.00457098 0 0.0192012 0 0)
(0.0098979 0.00621128 0 0.0216583 0 0)
(0.0107749 0.00807026 0 0.0241739 0 0)
(0.0119023 0.0101976 0 0.0268492 0 0)
(0.00414431 -0.000360601 0 0.00334556 0 0)
(0.0134426 -0.00232522 0 0.00302016 0 0)
(0.0117437 -0.00232307 0 0.00279141 0 0)
(0.0098185 -0.00177097 0 0.00304282 0 0)
(0.00936072 -0.00135412 0 0.00349273 0 0)
(0.0090038 -0.00110559 0 0.00406852 0 0)
(0.0086439 -0.00088248 0 0.00476097 0 0)
(0.0083901 -0.000572162 0 0.00556374 0 0)
(0.0082565 -0.000118558 0 0.00647147 0 0)
(0.00823659 0.000492076 0 0.00748869 0 0)
(0.00833459 0.00125365 0 0.00861899 0 0)
(0.0085679 0.00216345 0 0.0098679 0 0)
(0.00895853 0.00322161 0 0.0112203 0 0)
(0.00954273 0.00444121 0 0.0126776 0 0)
(0.0103473 0.00581994 0 0.0141994 0 0)
(0.0114065 0.00737433 0 0.0158135 0 0)
(0.0127406 0.0090783 0 0.0174481 0 0)
(0.0143433 0.0109656 0 0.0191704 0 0)
(0.00436258 -0.00036209 0 0.00297082 0 0)
(0.0136876 -0.00205972 0 0.00259892 0 0)
(0.012006 -0.00193447 0 0.00226371 0 0)
(0.0101067 -0.00133495 0 0.00236999 0 0)
(0.00964345 -0.000899261 0 0.0026721 0 0)
(0.0092661 -0.000624566 0 0.00309187 0 0)
(0.00891213 -0.000361938 0 0.00358953 0 0)
(0.00870847 -1.05596e-05 0 0.00414403 0 0)
(0.00866736 0.000468002 0 0.00475299 0 0)
(0.00877375 0.00107798 0 0.00542406 0 0)
(0.00903092 0.00181301 0 0.00615891 0 0)
(0.00946 0.0026704 0 0.00696044 0 0)
(0.0100862 0.00364656 0 0.00782155 0 0)
(0.0109405 0.00474675 0 0.00874961 0 0)
(0.0120404 0.00596515 0 0.00972216 0 0)
(0.0134082 0.00731455 0 0.0107581 0 0)
(0.0150549 0.00877388 0 0.0118099 0 0)
(0.0169707 0.0103709 0 0.0129188 0 0)
(0.00367346 -0.000174624 0 0.00287843 0 0)
(0.0133233 -0.00181444 0 0.00211164 0 0)
(0.0117013 -0.0017815 0 0.00175564 0 0)
(0.00978949 -0.0012542 0 0.00183497 0 0)
(0.00928423 -0.000820101 0 0.00208566 0 0)
(0.00887598 -0.000530684 0 0.00242166 0 0)
(0.00851957 -0.000278567 0 0.00280378 0 0)
(0.00833545 4.21861e-05 0 0.00322494 0 0)
(0.00833507 0.000490242 0 0.00368951 0 0)
(0.00851606 0.00107571 0 0.0042011 0 0)
(0.00889105 0.00178119 0 0.00475511 0 0)
(0.00947795 0.00258767 0 0.00534899 0 0)
(0.0102912 0.0034836 0 0.00597616 0 0)
(0.011352 0.00447132 0 0.00664114 0 0)
(0.0126732 0.00554995 0 0.00732726 0 0)
(0.0142743 0.00673133 0 0.00804979 0 0)
(0.0161665 0.00799843 0 0.00877356 0 0)
(0.018344 0.00937008 0 0.0095266 0 0)
(0.00406893 -0.00036432 0 0.0025027 0 0)
(0.0131037 -0.00168135 0 0.00201642 0 0)
(0.0113693 -0.00148007 0 0.00165292 0 0)
(0.00946146 -0.000930183 0 0.00158177 0 0)
(0.00898255 -0.000517554 0 0.00165975 0 0)
(0.0086038 -0.000241055 0 0.00180503 0 0)
(0.00828636 2.59234e-06 0 0.00198191 0 0)
(0.00817605 0.000290794 0 0.00218631 0 0)
(0.00828922 0.000666038 0 0.00242348 0 0)
(0.00861128 0.00114144 0 0.00269934 0 0)
(0.00914788 0.00171147 0 0.00301291 0 0)
(0.00991515 0.00236574 0 0.00335931 0 0)
(0.010929 0.00309547 0 0.00372983 0 0)
(0.0122058 0.00389881 0 0.00412501 0 0)
(0.0137599 0.00477024 0 0.00453378 0 0)
(0.015602 0.00571264 0 0.00496813 0 0)
(0.0177491 0.00671473 0 0.00540687 0 0)
(0.0201745 0.00778509 0 0.00586537 0 0)
(0.00425501 -0.000480664 0 0.00220815 0 0)
(0.0129714 -0.00154775 0 0.00154893 0 0)
(0.0109194 -0.0011443 0 0.00126276 0 0)
(0.00907212 -0.000513038 0 0.00126365 0 0)
(0.00884288 -7.0018e-05 0 0.00136176 0 0)
(0.00870829 0.000208918 0 0.00149829 0 0)
(0.00859629 0.000445911 0 0.00164974 0 0)
(0.00867945 0.000732582 0 0.00181556 0 0)
(0.00900669 0.00111272 0 0.00199987 0 0)
(0.00958002 0.00158991 0 0.00220286 0 0)
(0.0104076 0.00214824 0 0.00242074 0 0)
(0.0115063 0.00277085 0 0.00265245 0 0)
(0.0128912 0.00344646 0 0.00289637 0 0)
(0.0145771 0.00417396 0 0.00315569 0 0)
(0.0165667 0.0049484 0 0.00342314 0 0)
(0.0188591 0.00577429 0 0.00370801 0 0)
(0.0214552 0.0066406 0 0.00399496 0 0)
(0.024326 0.00756157 0 0.00429097 0 0)
(0.00449263 -0.00039882 0 0.00191985 0 0)
(0.0130444 -0.00130051 0 0.00125731 0 0)
(0.0108707 -0.000992571 0 0.000884171 0 0)
(0.00894385 -0.000551562 0 0.00082247 0 0)
(0.00863526 -0.000231443 0 0.000850554 0 0)
(0.00842369 -2.47551e-05 0 0.000881745 0 0)
(0.00826969 0.00014011 0 0.000915839 0 0)
(0.00836184 0.000330402 0 0.000974695 0 0)
(0.00873519 0.000584095 0 0.00106321 0 0)
(0.00937084 0.000906286 0 0.00117218 0 0)
(0.0102693 0.00128426 0 0.00129078 0 0)
(0.0114495 0.00170702 0 0.00141562 0 0)
(0.0129326 0.00216977 0 0.0015475 0 0)
(0.0147297 0.00267359 0 0.00168998 0 0)
(0.0168405 0.00321615 0 0.00183948 0 0)
(0.0192542 0.0037981 0 0.00200062 0 0)
(0.0219715 0.00441034 0 0.00216434 0 0)
(0.0249538 0.00506205 0 0.00233464 0 0)
(0.00423213 -0.00026059 0 0.00183178 0 0)
(0.0127743 -0.000977169 0 0.00103351 0 0)
(0.0104779 -0.000795668 0 0.000691541 0 0)
(0.00862622 -0.000396319 0 0.000669676 0 0)
(0.00842639 -5.03294e-05 0 0.000699501 0 0)
(0.00835151 0.000183908 0 0.000724275 0 0)
(0.00842209 0.000366909 0 0.000742845 0 0)
(0.00882394 0.000559875 0 0.000766599 0 0)
(0.00954599 0.000795081 0 0.000802916 0 0)
(0.0105281 0.00107979 0 0.000850419 0 0)
(0.0117611 0.00140728 0 0.000905868 0 0)
(0.0132762 0.00177044 0 0.000968336 0 0)
(0.0151077 0.00216412 0 0.00103791 0 0)
(0.0172738 0.00258685 0 0.00111625 0 0)
(0.0197765 0.00303496 0 0.00120081 0 0)
(0.0226033 0.00351008 0 0.00129478 0 0)
(0.0257568 0.00400454 0 0.00139292 0 0)
(0.0291933 0.00452698 0 0.00149815 0 0)
(0.00362533 -0.000413634 0 0.00149939 0 0)
(0.0120589 -0.000601085 0 0.000667414 0 0)
(0.00974951 -0.000355719 0 0.00037056 0 0)
(0.00809402 -0.00012873 0 0.000325652 0 0)
(0.00804887 3.98049e-05 0 0.000310162 0 0)
(0.00808686 0.000131221 0 0.000304812 0 0)
(0.00826403 0.000197151 0 0.000314027 0 0)
(0.0087769 0.000281804 0 0.000331931 0 0)
(0.00963056 0.000401239 0 0.000353356 0 0)
(0.010785 0.000553608 0 0.000376569 0 0)
(0.0122452 0.000731275 0 0.000402254 0 0)
(0.0140411 0.000927369 0 0.000431856 0 0)
(0.0161926 0.00113825 0 0.000465967 0 0)
(0.0186952 0.00136407 0 0.000505587 0 0)
(0.0215323 0.00160421 0 0.000549815 0 0)
(0.0246779 0.00186143 0 0.000600737 0 0)
(0.0281323 0.00213069 0 0.000656022 0 0)
(0.031851 0.00241977 0 0.000716316 0 0)
(0.00433943 -0.00043438 0 0.0011877 0 0)
(0.0119252 -0.000719742 0 0.000487593 0 0)
(0.00935835 -0.000527718 0 0.000338411 0 0)
(0.00795537 -0.000240227 0 0.000311185 0 0)
(0.00810813 -4.02984e-05 0 0.000271109 0 0)
(0.00828976 7.00654e-05 0 0.000231564 0 0)
(0.00868431 0.000152988 0 0.000209688 0 0)
(0.00950884 0.000238055 0 0.000201304 0 0)
(0.0107342 0.000327246 0 0.000199842 0 0)
(0.0122892 0.000420796 0 0.000202315 0 0)
(0.0141589 0.000523434 0 0.000208594 0 0)
(0.0163647 0.000640286 0 0.000219521 0 0)
(0.0189217 0.00077429 0 0.000235779 0 0)
(0.0218281 0.000925581 0 0.000257604 0 0)
(0.0250637 0.0010909 0 0.000284446 0 0)
(0.0286121 0.00126625 0 0.00031765 0 0)
(0.0324683 0.00144618 0 0.000356191 0 0)
(0.0366025 0.001632 0 0.000399386 0 0)
(0.00361962 -0.000177256 0 0.000908212 0 0)
(0.0111189 1.21664e-05 0 0.000223219 0 0)
(0.00863774 -4.70961e-05 0 0.000136023 0 0)
(0.00737053 -1.34147e-05 0 0.000122934 0 0)
(0.00766234 -1.44914e-05 0 0.000121682 0 0)
(0.0080221 -4.69061e-05 0 0.000122949 0 0)
(0.00860021 -8.80878e-05 0 0.000125085 0 0)
(0.00956761 -0.000128002 0 0.00012855 0 0)
(0.0108584 -0.000163623 0 0.00013398 0 0)
(0.0123786 -0.00019196 0 0.000141084 0 0)
(0.0140931 -0.000208925 0 0.000149458 0 0)
(0.0160216 -0.000211761 0 0.000159036 0 0)
(0.0181774 -0.000198442 0 0.000169956 0 0)
(0.0205893 -0.00016792 0 0.000182736 0 0)
(0.0232391 -0.000119705 0 0.000197284 0 0)
(0.026164 -5.46237e-05 0 0.000214766 0 0)
(0.0293216 2.63318e-05 0 0.000235138 0 0)
(0.0327795 0.000123963 0 0.000257338 0 0)
(0.00386646 -0.000310904 0 0.000740594 0 0)
(0.0118614 -3.62637e-05 0 0.000216446 0 0)
(0.0103464 2.18941e-05 0 0.000132059 0 0)
(0.0098163 8.54328e-05 0 9.81436e-05 0 0)
(0.01062 9.89791e-05 0 7.87524e-05 0 0)
(0.0113731 0.000103797 0 6.57718e-05 0 0)
(0.012112 0.000113001 0 5.68021e-05 0 0)
(0.0130225 0.00012538 0 5.10819e-05 0 0)
(0.0141771 0.000138689 0 4.75618e-05 0 0)
(0.0156014 0.000154009 0 4.56261e-05 0 0)
(0.0173121 0.000174602 0 4.50228e-05 0 0)
(0.019329 0.000203536 0 4.55935e-05 0 0)
(0.0216854 0.000242931 0 4.71148e-05 0 0)
(0.024426 0.000293144 0 4.93064e-05 0 0)
(0.0276086 0.000352813 0 5.2076e-05 0 0)
(0.0312543 0.000420114 0 5.56851e-05 0 0)
(0.0354242 0.000493574 0 5.97262e-05 0 0)
(0.040069 0.000576073 0 6.36767e-05 0 0)
(0.00228388 -0.00597867 1.05179e-22 0.0161317 -2.36921e-22 9.90196e-38)
(0.0256978 -0.0209617 -3.01447e-22 0.0174675 1.96572e-22 9.7634e-38)
(0.0683469 -0.0290762 0 0.0131265 0 0)
(0.11428 -0.0284988 0 0.00858055 0 0)
(0.150578 -0.0214759 0 0.00559067 0 0)
(0.174442 -0.013674 7.00772e-22 0.0051712 -5.11395e-23 9.19635e-38)
(0.190749 -0.00873291 0 0.00664452 0 0)
(0.204674 -0.00826414 0 0.00916757 0 0)
(0.225767 -0.0133292 0 0.0116661 0 0)
(0.26262 -0.022734 0 0.0134548 0 0)
(0.322257 -0.0346389 -8.22733e-22 0.0140217 2.42017e-23 8.51828e-38)
(0.408064 -0.0464855 0 0.0136086 0 0)
(0.519022 -0.0565387 0 0.0125028 0 0)
(0.650736 -0.0638965 0 0.0110528 0 0)
(0.797171 -0.0681905 0 0.00951352 0 0)
(0.95211 -0.0694288 -9.87532e-22 0.0080599 6.15826e-23 7.8734e-38)
(1.1091 -0.0677169 0 0.00678934 0 0)
(1.26113 -0.0629543 0 0.00573672 0 0)
(1.40118 -0.0552474 0 0.00496894 0 0)
(1.5233 -0.0452918 0 0.00458811 0 0)
(1.6253 -0.034354 0 0.00468345 0 0)
(1.70619 -0.023939 0 0.00525318 0 0)
(1.76682 -0.0151213 0 0.00616936 0 0)
(1.81034 -0.00809542 -1.8278e-21 0.00723067 1.64207e-22 6.90989e-38)
(1.84164 -0.00274532 1.9946e-21 0.0082266 -1.70708e-22 6.79533e-38)
(1.8656 0.000806178 -2.1707e-21 0.00900086 1.74089e-22 6.68207e-38)
(1.88594 0.00259123 -2.35372e-21 0.00969639 1.75425e-22 6.57012e-38)
(1.905 0.00287805 0 0.0107864 0 0)
(1.92342 0.00197554 0 0.0135404 0 0)
(1.94182 -3.84808e-05 2.9139e-21 0.0186132 -1.55973e-22 6.24204e-38)
(1.9606 -0.00441391 3.09024e-21 0.0267753 -1.3629e-22 6.13527e-38)
(1.98414 -0.0132726 0 0.0361094 0 0)
(2.01529 -0.0248638 0 0.0429078 0 0)
(2.05177 -0.0353297 3.58248e-21 0.0454137 -1.07707e-22 5.82272e-38)
(2.09517 -0.0431752 0 0.0447694 0 0)
(2.15027 -0.052646 0 0.0453353 0 0)
(2.22218 -0.0680924 -4.06668e-21 0.0473486 1.13757e-22 5.52176e-38)
(2.31073 -0.0839061 0 0.0489857 0 0)
(2.41802 -0.0909065 -4.37321e-21 0.0480651 1.08052e-22 5.32752e-38)
(2.54221 -0.101272 -9.04181e-21 0.0514345 2.14847e-22 2.09293e-37)
(2.6892 -0.115018 0 0.0515988 0 0)
(2.84662 -0.116455 0 0.0517585 0 0)
(3.01526 -0.129505 0 0.0475556 0 0)
(3.21784 -0.148603 0 0.0463518 0 0)
(3.43767 -0.154379 0 0.0461286 0 0)
(3.66551 -0.143381 -1.05368e-20 0.0435114 1.87331e-22 1.87501e-37)
(3.88882 -0.132959 -1.07307e-20 0.0395646 1.81852e-22 1.84043e-37)
(4.10843 -0.127067 -1.09034e-20 0.0326042 1.64037e-22 1.80635e-37)
(4.32045 -0.118117 0 0.0283262 0 0)
(4.5175 -0.108709 1.11812e-20 0.0260733 -1.39863e-22 1.73964e-37)
(4.69714 -0.100031 0 0.0245793 0 0)
(4.85585 -0.0909947 -1.1378e-20 0.0235366 1.19014e-22 1.67485e-37)
(4.99448 -0.0808101 -1.14435e-20 0.0231896 1.12147e-22 1.64317e-37)
(5.11692 -0.0717249 0 0.0233495 0 0)
(5.23057 -0.0666235 0 0.023351 0 0)
(5.34503 -0.0657135 0 0.0232178 0 0)
(5.46356 -0.0657544 -1.1476e-20 0.0224518 7.6316e-23 1.52111e-37)
(5.5734 -0.0626875 0 0.0208621 0 0)
(5.6601 -0.05641 0 0.0197331 0 0)
(5.71839 -0.0475786 0 0.0198271 0 0)
(5.74903 -0.0379592 0 0.0212491 0 0)
(5.75386 -0.0291392 0 0.0234325 0 0)
(5.73755 -0.0242741 0 0.0254831 0 0)
(5.71152 -0.0268493 0 0.0262612 0 0)
(5.69512 -0.0358732 0 0.0260323 0 0)
(5.70701 -0.0467254 1.10048e-20 0.0258224 -6.26411e-23 1.27269e-37)
(5.75417 -0.0538995 0 0.0253013 0 0)
(5.83611 -0.0558369 0 0.0237374 0 0)
(5.94846 -0.0563279 -1.0918e-20 0.0215315 6.80382e-23 1.19752e-37)
(6.07986 -0.0583116 -1.08964e-20 0.0190643 6.69273e-23 1.17328e-37)
(6.21495 -0.0624921 0 0.0163329 0 0)
(6.34353 -0.0688343 1.08595e-20 0.0134623 -5.60366e-23 1.12597e-37)
(6.46446 -0.071113 -1.08395e-20 0.0122881 5.25397e-23 1.10291e-37)
(6.5782 -0.064998 0 0.0126168 0 0)
(6.6856 -0.0570783 1.0788e-20 0.0136324 -4.70158e-23 1.05791e-37)
(6.78691 -0.0526601 0 0.0152395 0 0)
(6.87927 -0.0503452 0 0.0176745 0 0)
(6.96137 -0.0493316 -1.06618e-20 0.0206967 4.73231e-23 9.93214e-38)
(7.0435 -0.0522037 0 0.0210044 0 0)
(7.13595 -0.0550361 1.05536e-20 0.017997 -4.32107e-23 9.51886e-38)
(7.2301 -0.0525171 0 0.0145204 0 0)
(7.31089 -0.0431007 -1.04082e-20 0.0115391 3.19389e-23 9.11959e-38)
(7.36776 -0.0296827 -1.03139e-20 0.00929835 2.55663e-23 8.92508e-38)
(7.39869 -0.0175588 -1.02014e-20 0.00818211 1.90054e-23 8.73394e-38)
(7.40877 -0.00950774 -2.01374e-20 0.00760854 2.41306e-23 3.41845e-37)
(7.40231 -0.00385621 1.98306e-20 0.00687321 -9.78802e-24 3.34462e-37)
(7.37862 0.00137529 0 0.00604363 0 0)
(7.33569 0.00668199 0 0.00526195 0 0)
(7.27208 0.0120451 0 0.00457261 0 0)
(7.18874 0.0173922 1.8253e-20 0.00398211 3.52613e-23 3.06204e-37)
(7.08417 0.0227084 1.77953e-20 0.00348172 4.30171e-23 2.99448e-37)
(6.959 0.0279095 -1.73209e-20 0.00305912 -4.97665e-23 2.92813e-37)
(6.81319 0.0329557 0 0.00270261 0 0)
(6.64756 0.0377876 1.63328e-20 0.00240196 6.09976e-23 2.79895e-37)
(6.46258 0.0423741 1.58231e-20 0.00215057 6.57016e-23 2.73609e-37)
(6.25916 0.0466629 1.53048e-20 0.00194344 6.98627e-23 2.67437e-37)
(6.03818 0.0506032 0 0.00177729 0 0)
(5.80091 0.0541109 0 0.00164921 0 0)
(5.54884 0.0570958 0 0.00155493 0 0)
(5.28395 0.0594489 1.31746e-20 0.00149013 7.99073e-23 2.43844e-37)
(5.00874 0.0610884 0 0.00144748 0 0)
(4.72626 0.0619833 0 0.00141996 0 0)
(4.43939 0.0621227 -1.15917e-20 0.00139987 -7.80671e-23 2.27257e-37)
(4.15148 0.0615074 0 0.00138131 0 0)
(3.86574 0.0601923 0 0.00135859 0 0)
(3.58516 0.0582691 -1.01342e-20 0.00132846 -6.86151e-23 2.11572e-37)
(3.31228 0.0558695 0 0.00128916 0 0)
(3.049 0.0531468 0 0.00124161 0 0)
(2.79655 0.0502525 8.87765e-21 0.00118831 5.52883e-23 1.96748e-37)
(2.5556 0.0473174 8.50721e-21 0.00113252 5.07355e-23 1.91991e-37)
(2.32634 0.0444393 0 0.00107808 0 0)
(2.10865 0.0416645 -7.83606e-21 0.00102708 -4.20549e-23 1.82745e-37)
(1.90222 0.0390133 0 0.000982527 0 0)
(1.70679 0.0364561 7.25245e-21 0.000944367 3.41632e-23 1.73847e-37)
(1.52229 0.0339418 0 0.000911075 0 0)
(1.3489 0.0314288 6.75092e-21 0.000880727 2.70644e-23 1.65286e-37)
(1.18702 0.0288753 6.52949e-21 0.000849487 2.38083e-23 1.61129e-37)
(1.03709 0.02627 0 0.000814453 0 0)
(0.899508 0.0236317 0 0.0007741 0 0)
(0.774566 0.020993 0 0.000727972 0 0)
(0.662344 0.0184089 0 0.000677669 0 0)
(0.562732 0.0159211 0 0.000624639 0 0)
(0.475419 0.0135618 0 0.000569852 0 0)
(0.399803 0.0113265 0 0.000512567 0 0)
(0.335375 0.00934351 5.31038e-21 0.00046253 5.61949e-24 1.30657e-37)
(0.281382 0.00750676 -5.20545e-21 0.000410387 -4.19536e-24 1.27178e-37)
(0.23682 0.00585581 0 0.000360039 0 0)
(0.200913 0.00439395 0 0.000311698 0 0)
(0.172775 0.00312329 0 0.000266006 0 0)
(0.151495 0.0020421 0 0.000223583 0 0)
(0.136152 0.00114496 -9.52441e-21 0.000185022 2.82892e-24 4.43205e-37)
(0.125836 0.000422903 0 0.000150883 0 0)
(0.119664 -0.000136684 9.22612e-21 0.000121674 -6.2948e-24 4.18825e-37)
(0.116805 -0.000549717 -9.08659e-21 9.78026e-05 7.8514e-24 4.07009e-37)
(0.116499 -0.000834389 0 7.94533e-05 0 0)
(0.118067 -0.00101035 0 6.65416e-05 0 0)
(0.120931 -0.00109896 0 5.88185e-05 0 0)
(0.124614 -0.00112207 8.5844e-21 5.58635e-05 -1.25838e-23 3.62142e-37)
(0.128747 -0.00109943 8.4712e-21 5.71317e-05 -1.338e-23 3.51506e-37)
(0.133057 -0.00105109 0 6.21439e-05 0 0)
(0.137378 -0.000995081 8.2572e-21 7.02903e-05 -1.4527e-23 3.30903e-37)
(0.141624 -0.000943013 8.15558e-21 8.1006e-05 -1.48635e-23 3.20929e-37)
(0.145793 -0.000910354 -8.0569e-21 9.33506e-05 1.49991e-23 3.11169e-37)
(0.149989 -0.000913395 0 0.000105365 0 0)
(0.154375 -0.000956235 0 0.000114906 0 0)