/*--------------------------------*- C++ -*----------------------------------*\
  =========                 |
  \\      /  F ield         | OpenFOAM: The Open Source CFD Toolbox
   \\    /   O peration     | Website:  https://openfoam.org
    \\  /    A nd           | Version:  7
     \\/     M anipulation  |
\*---------------------------------------------------------------------------*/
FoamFile
{
    version     2.0;
    format      ascii;
    class       volScalarField;
    location    "0.019";
    object      k;
}
// * * * * * * * * * * * * * * * * * * * * * * * * * * * * * * * * * * * * * //

dimensions      [0 2 -2 0 0 0 0];

internalField   nonuniform List<scalar> 
12225
(
1.93217e-05
1.80959e-05
1.66921e-05
1.52067e-05
1.42655e-05
1.29197e-05
1.12911e-05
1.02973e-05
9.36969e-06
8.06096e-06
7.0046e-06
6.60721e-06
6.58343e-06
6.62435e-06
6.57847e-06
6.24259e-06
5.53193e-06
1.25336e-05
1.998e-05
1.9878e-05
1.96828e-05
1.93945e-05
1.92019e-05
1.89234e-05
1.83562e-05
1.78276e-05
1.74657e-05
1.70481e-05
1.65719e-05
1.62491e-05
1.5932e-05
1.56823e-05
1.53429e-05
1.51727e-05
1.47544e-05
1.47748e-05
1.99988e-05
1.93874e-05
1.93949e-05
1.93675e-05
1.925e-05
1.90585e-05
1.88032e-05
1.86246e-05
1.85112e-05
1.84344e-05
1.83523e-05
1.82797e-05
1.81759e-05
1.80659e-05
1.79733e-05
1.7884e-05
1.78325e-05
1.77133e-05
2.00968e-05
1.98818e-05
1.88799e-05
1.8514e-05
1.85358e-05
1.84923e-05
1.81992e-05
1.79464e-05
1.77868e-05
1.76059e-05
1.74027e-05
1.72121e-05
1.70637e-05
1.69708e-05
1.69299e-05
1.69215e-05
1.69391e-05
1.69995e-05
2.02429e-05
2.0284e-05
2.0071e-05
2.00101e-05
2.03002e-05
2.08947e-05
2.09534e-05
2.07938e-05
2.00584e-05
1.85372e-05
1.77693e-05
1.74955e-05
1.73522e-05
1.72862e-05
1.72795e-05
1.72904e-05
1.73523e-05
1.74328e-05
2.06382e-05
2.11004e-05
2.09038e-05
2.09627e-05
2.18685e-05
2.36034e-05
2.44259e-05
2.45612e-05
2.44298e-05
2.35678e-05
2.20241e-05
2.11728e-05
2.08387e-05
2.07797e-05
2.081e-05
2.10307e-05
2.19151e-05
2.25029e-05
2.09625e-05
2.08802e-05
2.10603e-05
2.15513e-05
2.19803e-05
2.28188e-05
2.51548e-05
2.72418e-05
2.78334e-05
2.77481e-05
2.68823e-05
2.45252e-05
2.29691e-05
2.23552e-05
2.22674e-05
2.23729e-05
2.29139e-05
2.34463e-05
2.11105e-05
2.11512e-05
2.16701e-05
2.17275e-05
2.14067e-05
2.13445e-05
2.20901e-05
2.45171e-05
2.58912e-05
2.61422e-05
2.59822e-05
2.50043e-05
2.35589e-05
2.28154e-05
2.2554e-05
2.25222e-05
2.25609e-05
2.26469e-05
2.17461e-05
2.16712e-05
2.14427e-05
2.17859e-05
2.16895e-05
2.15329e-05
2.1891e-05
2.35331e-05
2.45893e-05
2.47405e-05
2.45735e-05
2.36679e-05
2.26699e-05
2.22733e-05
2.22042e-05
2.22254e-05
2.23796e-05
2.25881e-05
2.05552e-05
2.10136e-05
2.11035e-05
2.14969e-05
2.17376e-05
2.16357e-05
2.12832e-05
2.12142e-05
2.12642e-05
2.13086e-05
2.12975e-05
2.12237e-05
2.11774e-05
2.11914e-05
2.1379e-05
2.22924e-05
2.3498e-05
2.4066e-05
2.18306e-05
2.25941e-05
2.18637e-05
2.16573e-05
2.21322e-05
2.24831e-05
2.24167e-05
2.20421e-05
2.1716e-05
2.15915e-05
2.15507e-05
2.15347e-05
2.15268e-05
2.15259e-05
2.15509e-05
2.1741e-05
2.21839e-05
2.24697e-05
2.04526e-05
2.1616e-05
2.23105e-05
2.25782e-05
2.315e-05
2.32898e-05
2.31953e-05
2.272e-05
2.2007e-05
2.16877e-05
2.15895e-05
2.15635e-05
2.15446e-05
2.15082e-05
2.13874e-05
2.12179e-05
2.1118e-05
2.10802e-05
2.01434e-05
2.11655e-05
2.25686e-05
2.35099e-05
2.34987e-05
2.30921e-05
2.2272e-05
2.17784e-05
2.1608e-05
2.15918e-05
2.15911e-05
2.15677e-05
2.1433e-05
2.12094e-05
2.1132e-05
2.11224e-05
2.11202e-05
2.11084e-05
2.02505e-05
2.10579e-05
2.13148e-05
2.12451e-05
2.10927e-05
2.1069e-05
2.11958e-05
2.1597e-05
2.17212e-05
2.17035e-05
2.15361e-05
2.125e-05
2.11456e-05
2.11346e-05
2.11492e-05
2.12374e-05
2.13965e-05
2.14319e-05
2.01623e-05
2.07382e-05
2.0901e-05
2.08518e-05
2.0705e-05
2.07005e-05
2.08313e-05
2.09806e-05
2.09757e-05
2.08635e-05
2.06971e-05
2.05838e-05
2.05341e-05
2.05342e-05
2.05542e-05
2.06262e-05
2.08431e-05
2.15079e-05
2.01317e-05
2.02423e-05
2.03141e-05
2.0452e-05
2.06433e-05
2.07992e-05
2.08295e-05
2.07852e-05
2.06705e-05
2.05714e-05
2.04897e-05
2.0424e-05
2.03824e-05
2.0366e-05
2.03637e-05
2.03675e-05
2.03913e-05
2.04757e-05
2.05298e-05
2.04569e-05
2.04607e-05
2.05932e-05
2.07248e-05
2.08203e-05
2.09017e-05
2.09058e-05
2.08894e-05
2.08798e-05
2.08642e-05
2.08119e-05
2.06775e-05
2.06037e-05
2.05931e-05
2.06256e-05
2.08284e-05
2.14223e-05
2.15925e-05
2.13235e-05
2.09497e-05
2.0949e-05
2.09353e-05
2.08678e-05
2.0855e-05
2.08134e-05
2.07649e-05
2.07371e-05
2.06826e-05
2.06036e-05
2.0566e-05
2.05534e-05
2.05287e-05
2.04717e-05
2.0436e-05
2.04364e-05
2.05066e-05
2.06241e-05
2.06498e-05
2.06743e-05
2.07025e-05
2.06997e-05
2.06523e-05
2.04916e-05
2.03653e-05
2.03241e-05
2.03249e-05
2.03532e-05
2.039e-05
2.03987e-05
2.03862e-05
2.03223e-05
2.02627e-05
2.02366e-05
2.03877e-05
2.12706e-05
2.13143e-05
2.09373e-05
2.0517e-05
2.03545e-05
2.02938e-05
2.02823e-05
2.0299e-05
2.03673e-05
2.03692e-05
2.03144e-05
2.027e-05
2.02649e-05
2.02705e-05
2.02725e-05
2.02655e-05
2.02644e-05
2.02632e-05
2.06412e-05
2.06155e-05
2.05373e-05
2.05175e-05
2.05044e-05
2.04489e-05
2.03049e-05
2.02351e-05
2.02256e-05
2.02482e-05
2.02851e-05
2.02887e-05
2.02852e-05
2.02808e-05
2.02818e-05
2.02921e-05
2.03208e-05
2.0007e-05
2.01065e-05
2.03605e-05
2.04723e-05
2.04847e-05
2.04556e-05
2.03447e-05
2.02555e-05
2.02122e-05
2.0199e-05
2.02047e-05
2.02497e-05
2.02964e-05
2.03285e-05
2.03838e-05
2.05263e-05
2.10195e-05
2.16436e-05
2.00529e-05
2.0139e-05
2.03226e-05
2.04038e-05
2.04103e-05
2.03807e-05
2.03145e-05
2.02975e-05
2.03127e-05
2.04038e-05
2.05022e-05
2.05424e-05
2.05497e-05
2.05425e-05
2.05094e-05
2.04896e-05
2.04857e-05
2.04852e-05
2.00577e-05
2.01157e-05
2.01314e-05
2.0145e-05
2.01761e-05
2.01847e-05
2.02137e-05
2.01958e-05
2.01777e-05
2.01774e-05
2.0181e-05
2.01872e-05
2.01928e-05
2.02015e-05
2.02186e-05
2.02574e-05
2.03558e-05
2.04927e-05
2.00489e-05
2.00586e-05
2.00806e-05
2.01353e-05
2.02072e-05
2.02359e-05
2.02386e-05
2.02281e-05
2.01869e-05
2.01594e-05
2.01524e-05
2.01547e-05
2.01768e-05
2.02489e-05
2.03129e-05
2.0353e-05
2.03739e-05
2.03921e-05
2.00324e-05
2.0087e-05
2.04428e-05
2.06677e-05
2.07199e-05
2.07336e-05
2.07361e-05
2.07231e-05
2.06382e-05
2.03879e-05
2.01707e-05
2.00498e-05
1.99848e-05
1.99565e-05
1.99469e-05
1.99468e-05
1.99489e-05
1.99592e-05
2.00015e-05
2.00264e-05
2.00448e-05
2.00199e-05
1.99535e-05
1.98795e-05
1.98052e-05
1.96898e-05
1.9438e-05
1.87278e-05
1.72893e-05
1.6125e-05
1.50227e-05
1.4498e-05
1.45086e-05
1.47362e-05
1.54069e-05
1.62504e-05
2.0208e-05
1.75635e-05
1.54391e-05
1.60786e-05
1.79792e-05
1.97898e-05
2.21833e-05
2.7036e-05
3.28116e-05
3.79584e-05
4.31611e-05
4.91618e-05
5.67748e-05
6.44475e-05
7.27154e-05
7.91065e-05
8.63047e-05
9.13418e-05
3.03614e-05
7.2869e-05
0.000121316
0.000187469
0.000225375
0.000246939
0.000287701
0.000360443
0.000427618
0.000473607
0.000501136
0.000516243
0.000524456
0.000528945
0.000534158
0.0005404
0.000554783
0.000568389
0.0022069
0.00224058
0.00220419
0.00204587
0.00195832
0.00193871
0.00193388
0.00192211
0.00187371
0.00174142
0.00159995
0.00146937
0.00135406
0.00126222
0.00119819
0.00116041
0.00114314
0.0011384
5.79668e-07
3.8459e-06
1.39343e-05
3.36826e-05
5.96639e-05
8.62259e-05
0.000110795
0.00013311
0.000153665
0.000173139
0.000191836
0.000210076
0.000228052
0.000245476
0.000262708
0.000277474
0.000288371
0.000293936
0.000295752
0.000290209
0.000278183
0.000260095
0.000237246
0.000210657
0.000181197
0.000150707
0.000121128
9.29756e-05
6.89671e-05
5.14299e-05
3.44419e-05
2.29227e-05
1.62363e-05
1.21361e-05
1.04523e-05
9.95148e-06
1.05127e-05
1.0907e-05
1.11574e-05
1.13192e-05
1.13799e-05
1.13739e-05
1.12558e-05
1.10125e-05
1.07151e-05
1.03626e-05
9.84153e-06
9.36343e-06
8.77589e-06
8.19567e-06
7.56043e-06
6.83327e-06
6.10035e-06
5.41033e-06
4.71127e-06
4.03732e-06
3.38526e-06
2.76218e-06
2.20013e-06
1.69493e-06
1.30141e-06
1.02158e-06
8.26235e-07
6.77582e-07
5.58989e-07
4.60791e-07
3.78264e-07
3.08754e-07
2.50383e-07
2.01661e-07
1.61303e-07
1.28059e-07
1.00811e-07
7.86843e-08
6.09106e-08
4.67303e-08
3.54745e-08
2.66219e-08
1.97532e-08
1.45043e-08
1.05508e-08
7.60991e-09
5.44557e-09
3.86743e-09
2.72641e-09
1.90801e-09
1.32557e-09
9.14228e-10
6.25944e-10
4.25446e-10
2.87069e-10
1.92296e-10
1.27884e-10
8.44415e-11
5.53639e-11
3.60482e-11
2.33133e-11
1.49793e-11
9.56541e-12
6.07367e-12
3.83704e-12
2.4134e-12
1.51229e-12
9.44517e-13
5.88149e-13
3.65153e-13
2.26042e-13
1.39454e-13
8.57526e-14
5.26758e-14
3.23022e-14
1.97747e-14
1.20958e-14
7.4057e-15
4.55311e-15
2.8243e-15
1.77809e-15
1.14537e-15
7.63253e-16
5.33341e-16
3.96002e-16
3.15e-16
2.68281e-16
2.42408e-16
2.29183e-16
2.23534e-16
2.22059e-16
2.22045e-16
2.22045e-16
2.22045e-16
2.22045e-16
2.22045e-16
2.22045e-16
2.22045e-16
2.22045e-16
2.22045e-16
2.22045e-16
2.22045e-16
2.22045e-16
2.22045e-16
2.22045e-16
2.22045e-16
2.22045e-16
2.22045e-16
2.22045e-16
2.22045e-16
2.22045e-16
2.22045e-16
2.22045e-16
2.22045e-16
2.22045e-16
2.22045e-16
2.22045e-16
2.22045e-16
2.22045e-16
2.22045e-16
2.22045e-16
2.22045e-16
2.22045e-16
2.22045e-16
2.22045e-16
2.22045e-16
2.22045e-16
2.22045e-16
2.22045e-16
2.22045e-16
2.22045e-16
2.22045e-16
2.22045e-16
2.22045e-16
2.22045e-16
2.22045e-16
2.34346e-16
3.43492e-16
9.72153e-16
4.15166e-15
1.99046e-14
3.09001e-13
1.28246e-10
7.43233e-08
1.07454e-06
5.60554e-06
1.73431e-05
3.57858e-05
5.535e-05
7.15095e-05
8.50917e-05
9.69896e-05
0.00010515
0.000109662
0.000112164
0.000113148
0.000112677
0.000110763
0.000107488
0.000103077
9.75051e-05
9.11173e-05
8.4076e-05
7.65903e-05
6.91233e-05
6.20918e-05
5.59597e-05
5.08953e-05
4.6786e-05
4.37641e-05
4.19965e-05
4.13118e-05
4.13057e-05
4.26399e-05
4.38883e-05
4.62934e-05
4.93093e-05
5.19407e-05
5.46982e-05
5.68527e-05
5.8889e-05
6.02437e-05
6.10474e-05
6.14685e-05
6.16131e-05
6.12108e-05
6.0386e-05
5.8885e-05
5.76149e-05
5.60191e-05
5.34163e-05
5.18457e-05
4.91611e-05
4.70943e-05
4.46363e-05
4.21104e-05
3.93126e-05
3.64162e-05
3.32866e-05
2.99826e-05
2.66129e-05
2.33067e-05
2.03895e-05
1.64724e-05
1.21848e-05
8.70796e-06
6.62722e-06
5.27635e-06
4.35099e-06
3.63766e-06
3.04793e-06
2.54568e-06
2.11574e-06
1.74858e-06
1.43719e-06
1.17436e-06
9.52654e-07
7.66842e-07
6.13131e-07
4.8659e-07
3.82237e-07
2.96865e-07
2.28162e-07
1.73803e-07
1.31413e-07
9.87267e-08
7.37312e-08
5.47416e-08
4.03983e-08
2.96261e-08
2.1584e-08
1.56176e-08
1.12206e-08
8.00262e-09
5.66473e-09
3.97908e-09
2.7732e-09
1.91747e-09
1.3152e-09
8.94856e-10
6.03964e-10
4.04376e-10
2.68619e-10
1.77091e-10
1.15927e-10
7.54053e-11
4.8775e-11
3.13975e-11
2.01244e-11
1.28462e-11
8.16622e-12
5.16858e-12
3.25605e-12
2.04068e-12
1.27182e-12
7.8797e-13
4.85431e-13
2.97458e-13
1.81561e-13
1.1071e-13
6.74786e-14
4.11147e-14
2.50453e-14
1.52605e-14
9.31412e-15
5.71057e-15
3.53368e-15
2.22223e-15
1.43329e-15
9.58549e-16
6.72411e-16
4.99335e-16
3.94086e-16
3.29672e-16
2.89977e-16
2.65337e-16
2.49931e-16
2.40224e-16
2.34057e-16
2.30097e-16
2.27524e-16
2.2583e-16
2.24699e-16
2.23931e-16
2.234e-16
2.23027e-16
2.22761e-16
2.22571e-16
2.22434e-16
2.22334e-16
2.22259e-16
2.22201e-16
2.22157e-16
2.22123e-16
2.22098e-16
2.2208e-16
2.22068e-16
2.2206e-16
2.22055e-16
2.22051e-16
2.22049e-16
2.22048e-16
2.22047e-16
2.22046e-16
2.22046e-16
2.22045e-16
2.22045e-16
2.22045e-16
2.22045e-16
2.22045e-16
2.22045e-16
2.22045e-16
2.22045e-16
2.22045e-16
2.22046e-16
2.22078e-16
2.22523e-16
2.26012e-16
2.48899e-16
3.72956e-16
1.15237e-15
2.14279e-14
1.11861e-11
6.5155e-09
1.00607e-06
4.47432e-06
1.21133e-05
2.19472e-05
2.89778e-05
3.26762e-05
3.53768e-05
3.70301e-05
3.77641e-05
3.80065e-05
3.79617e-05
3.77653e-05
3.76303e-05
3.75856e-05
3.78169e-05
3.83505e-05
3.92665e-05
4.0472e-05
4.19489e-05
4.3695e-05
4.57548e-05
4.81267e-05
5.08529e-05
5.36634e-05
5.7769e-05
6.31972e-05
6.96174e-05
7.69006e-05
8.48487e-05
9.33037e-05
0.000101998
0.00011002
0.000117027
0.000123679
0.000129869
0.000135614
0.000140288
0.000143326
0.000144791
0.000145223
0.000143644
0.000141914
0.000137013
0.000131763
0.000128401
0.000121699
0.000114659
0.00011129
0.000102172
9.79234e-05
9.16452e-05
8.56376e-05
7.92457e-05
7.29526e-05
6.67127e-05
6.05106e-05
5.43215e-05
4.82687e-05
4.23609e-05
3.66389e-05
3.12306e-05
2.62185e-05
2.16704e-05
1.76511e-05
1.42712e-05
1.1746e-05
9.89923e-06
8.35212e-06
7.01751e-06
5.86493e-06
4.87547e-06
4.03095e-06
3.30904e-06
2.69425e-06
2.18031e-06
1.75202e-06
1.38839e-06
1.0849e-06
8.41977e-07
6.51329e-07
5.02774e-07
3.87315e-07
2.97626e-07
2.27962e-07
1.73894e-07
1.32015e-07
9.96835e-08
7.48303e-08
5.58216e-08
4.13596e-08
3.04259e-08
2.22171e-08
1.60996e-08
1.15757e-08
8.25696e-09
5.84234e-09
4.10024e-09
2.85405e-09
1.97038e-09
1.34947e-09
9.17309e-10
6.19411e-10
4.15949e-10
2.78089e-10
1.85243e-10
1.22966e-10
8.13131e-11
5.35263e-11
3.50491e-11
2.28116e-11
1.47468e-11
9.46397e-12
6.02908e-12
3.8157e-12
2.40293e-12
1.50739e-12
9.41181e-13
5.84501e-13
3.61403e-13
2.22521e-13
1.36523e-13
8.35637e-14
5.11142e-14
3.13086e-14
1.92468e-14
1.19031e-14
7.42521e-15
4.68627e-15
3.004e-15
1.96603e-15
1.32264e-15
9.21938e-16
6.71148e-16
5.13384e-16
4.13526e-16
3.49779e-16
3.08621e-16
2.81696e-16
2.63821e-16
2.51755e-16
2.43455e-16
2.37636e-16
2.33501e-16
2.30536e-16
2.28392e-16
2.26821e-16
2.25645e-16
2.24745e-16
2.24054e-16
2.23525e-16
2.23127e-16
2.22837e-16
2.22632e-16
2.22488e-16
2.22387e-16
2.22317e-16
2.22268e-16
2.22234e-16
2.22206e-16
2.22186e-16
2.22168e-16
2.22156e-16
2.22146e-16
2.2214e-16
2.22134e-16
2.22129e-16
2.22124e-16
2.22116e-16
2.22097e-16
2.22081e-16
2.22079e-16
2.22088e-16
2.22138e-16
2.22366e-16
2.23526e-16
2.293e-16
2.88815e-16
1.31584e-15
5.14745e-13
2.70923e-10
8.51821e-07
2.83335e-06
6.48379e-06
1.09583e-05
1.37398e-05
1.50673e-05
1.5879e-05
1.66443e-05
1.75399e-05
1.88247e-05
2.06461e-05
2.2949e-05
2.57968e-05
2.89667e-05
3.2447e-05
3.61775e-05
4.00894e-05
4.49385e-05
5.11463e-05
5.896e-05
6.87097e-05
8.10982e-05
9.62992e-05
0.000112234
0.000129506
0.000146886
0.000162671
0.000179392
0.0001931
0.000206954
0.000218672
0.000229638
0.000239459
0.000247591
0.000254562
0.000260958
0.000264501
0.000265907
0.000265051
0.000261045
0.000256969
0.000248135
0.000233294
0.000223053
0.000212895
0.000191769
0.000178515
0.000165074
0.000146718
0.000134222
0.00011952
0.000106929
9.50773e-05
8.42922e-05
7.45475e-05
6.58798e-05
5.82763e-05
5.1562e-05
4.55632e-05
4.0032e-05
3.50532e-05
3.06059e-05
2.66354e-05
2.30975e-05
1.99603e-05
1.71904e-05
1.47495e-05
1.25979e-05
1.07101e-05
9.06108e-06
7.62775e-06
6.38858e-06
5.32104e-06
4.40402e-06
3.6238e-06
2.96475e-06
2.40014e-06
1.92246e-06
1.54513e-06
1.24619e-06
1.00463e-06
8.07681e-07
6.46693e-07
5.15277e-07
4.08357e-07
3.21757e-07
2.51969e-07
1.96053e-07
1.5152e-07
1.16296e-07
8.8621e-08
6.70321e-08
5.03203e-08
3.74844e-08
2.77042e-08
2.03129e-08
1.4773e-08
1.06557e-08
7.62164e-09
5.40572e-09
3.80288e-09
2.65564e-09
1.84336e-09
1.27403e-09
8.78071e-10
6.03853e-10
4.14219e-10
2.8301e-10
1.92271e-10
1.29738e-10
8.68873e-11
5.7731e-11
3.80497e-11
2.48773e-11
1.61346e-11
1.03815e-11
6.63144e-12
4.209e-12
2.65638e-12
1.66889e-12
1.04497e-12
6.52869e-13
4.07485e-13
2.54364e-13
1.58958e-13
9.95312e-14
6.24993e-14
3.93914e-14
2.4937e-14
1.58783e-14
1.01909e-14
6.61137e-15
4.35124e-15
2.92036e-15
2.01201e-15
1.43058e-15
1.05312e-15
8.04133e-16
6.3701e-16
5.22718e-16
4.43051e-16
3.86417e-16
3.45632e-16
3.15938e-16
2.9408e-16
2.77858e-16
2.65584e-16
2.56146e-16
2.48902e-16
2.43338e-16
2.3907e-16
2.35885e-16
2.33562e-16
2.31841e-16
2.30529e-16
2.29592e-16
2.28904e-16
2.28431e-16
2.27985e-16
2.27719e-16
2.27353e-16
2.27221e-16
2.26935e-16
2.26839e-16
2.26534e-16
2.26351e-16
2.25834e-16
2.24896e-16
2.23509e-16
2.23233e-16
2.23516e-16
2.25081e-16
2.30485e-16
2.46535e-16
3.09109e-16
4.89039e-16
6.4282e-15
1.40714e-14
1.08475e-13
1.22534e-11
7.95962e-07
2.09435e-06
3.91992e-06
6.09962e-06
7.48053e-06
8.25521e-06
9.21115e-06
1.0647e-05
1.26889e-05
1.54302e-05
1.87495e-05
2.24984e-05
2.66106e-05
3.15273e-05
3.73197e-05
4.42819e-05
5.34146e-05
6.56244e-05
8.08016e-05
9.97392e-05
0.000122056
0.000143443
0.000162882
0.000183591
0.000200407
0.000215848
0.000233135
0.000244069
0.000261431
0.000272888
0.000288266
0.000301525
0.000314727
0.000326962
0.000336848
0.000346259
0.000351443
0.0003534
0.00035036
0.000344271
0.000333342
0.000313781
0.000295585
0.000278686
0.000254754
0.000227176
0.000210839
0.000186925
0.000166714
0.000148599
0.000130641
0.000114933
0.000100682
8.79115e-05
7.65233e-05
6.64519e-05
5.77353e-05
5.00916e-05
4.34105e-05
3.78227e-05
3.31452e-05
2.92441e-05
2.58125e-05
2.26462e-05
1.97659e-05
1.71739e-05
1.48457e-05
1.27705e-05
1.0936e-05
9.32388e-06
7.91549e-06
6.69197e-06
5.63463e-06
4.72547e-06
3.94752e-06
3.28483e-06
2.72268e-06
2.2472e-06
1.84689e-06
1.5114e-06
1.23144e-06
9.98802e-07
8.06324e-07
6.47765e-07
5.17745e-07
4.11616e-07
3.25421e-07
2.55762e-07
1.99784e-07
1.55043e-07
1.19505e-07
9.14582e-08
6.96067e-08
5.26675e-08
3.96072e-08
2.95958e-08
2.19684e-08
1.61944e-08
1.18528e-08
8.61105e-09
6.20828e-09
4.44089e-09
3.15105e-09
2.21733e-09
1.54697e-09
1.06974e-09
7.32945e-10
4.97382e-10
3.34161e-10
2.22161e-10
1.46093e-10
9.49777e-11
6.1007e-11
3.86987e-11
2.42257e-11
1.49485e-11
9.09499e-12
5.45244e-12
3.20129e-12
1.85625e-12
1.07927e-12
6.3166e-13
3.73822e-13
2.24896e-13
1.38414e-13
8.77161e-14
5.753e-14
3.91592e-14
2.76581e-14
2.01728e-14
1.50849e-14
1.14814e-14
8.83997e-15
6.85154e-15
5.32714e-15
4.14952e-15
3.2383e-15
2.53482e-15
1.99323e-15
1.57756e-15
1.25992e-15
1.01688e-15
8.31853e-16
6.90752e-16
5.8266e-16
5.0049e-16
4.3732e-16
3.8837e-16
3.51084e-16
3.22297e-16
2.99548e-16
2.82114e-16
2.68987e-16
2.58528e-16
2.49957e-16
2.43401e-16
2.38688e-16
2.35015e-16
2.31663e-16
2.28596e-16
2.26065e-16
2.24309e-16
2.23421e-16
2.23208e-16
2.23203e-16
2.23227e-16
2.23523e-16
2.25021e-16
2.31003e-16
2.53193e-16
3.30501e-16
5.77244e-16
1.32085e-15
3.38659e-15
1.36666e-14
2.99351e-14
9.23376e-13
1.09323e-12
1.44928e-11
1.56004e-11
7.90444e-07
1.82359e-06
2.84803e-06
4.06737e-06
5.01024e-06
5.91137e-06
7.31713e-06
9.39061e-06
1.21392e-05
1.55143e-05
1.96361e-05
2.48461e-05
3.17097e-05
4.05319e-05
5.2229e-05
6.93306e-05
9.51556e-05
0.000121696
0.000148562
0.000173491
0.000191709
0.000210896
0.000228231
0.000242793
0.000261196
0.000280054
0.000299701
0.000328453
0.000351992
0.000386117
0.000413122
0.000445192
0.000471655
0.000493409
0.0005143
0.000525461
0.000535461
0.000539469
0.00053947
0.000524335
0.000496499
0.000480237
0.000449889
0.000410223
0.000364263
0.000320058
0.000285363
0.000238566
0.000213367
0.00018188
0.000157382
0.000135001
0.000115732
9.89113e-05
8.42161e-05
7.13509e-05
6.02078e-05
5.06872e-05
4.26535e-05
3.58635e-05
3.01799e-05
2.54554e-05
2.17419e-05
1.89449e-05
1.67902e-05
1.49986e-05
1.33667e-05
1.17756e-05
1.02736e-05
8.8984e-06
7.65161e-06
6.53628e-06
5.5495e-06
4.6843e-06
3.93208e-06
3.28319e-06
2.72761e-06
2.2552e-06
1.85586e-06
1.52013e-06
1.23933e-06
1.00563e-06
8.12064e-07
6.52505e-07
5.21628e-07
4.14776e-07
3.28011e-07
2.57874e-07
2.01547e-07
1.56482e-07
1.20751e-07
9.24462e-08
7.04009e-08
5.33119e-08
4.01327e-08
3.00249e-08
2.23181e-08
1.64782e-08
1.20816e-08
8.79401e-09
6.35311e-09
4.55413e-09
3.23835e-09
2.28357e-09
1.59641e-09
1.10602e-09
7.59136e-10
5.1599e-10
3.47173e-10
2.31118e-10
1.52156e-10
9.90082e-11
6.36385e-11
4.03777e-11
2.52702e-11
1.55865e-11
9.46606e-12
5.65491e-12
3.31901e-12
1.91175e-12
1.07959e-12
5.97202e-13
3.23426e-13
1.71487e-13
8.90775e-14
4.54496e-14
2.29412e-14
1.16171e-14
6.03163e-15
3.31844e-15
2.00502e-15
1.35732e-15
1.0203e-15
8.27306e-16
7.02337e-16
6.11773e-16
5.40796e-16
4.82985e-16
4.35149e-16
3.95478e-16
3.62798e-16
3.35849e-16
3.13901e-16
2.96041e-16
2.8148e-16
2.69795e-16
2.60321e-16
2.52606e-16
2.46476e-16
2.41555e-16
2.37522e-16
2.34318e-16
2.31836e-16
2.29827e-16
2.28114e-16
2.2678e-16
2.25806e-16
2.24989e-16
2.24302e-16
2.23663e-16
2.23018e-16
2.22724e-16
2.22739e-16
2.22966e-16
2.2438e-16
2.3628e-16
2.90343e-16
4.98337e-16
1.31595e-15
4.3915e-15
1.52253e-14
4.88201e-14
1.48785e-13
4.08341e-13
1.13412e-12
2.48216e-12
1.01833e-11
1.07788e-11
2.18158e-11
2.24739e-11
8.07201e-07
1.76533e-06
2.46055e-06
3.29209e-06
4.12117e-06
5.21666e-06
6.94278e-06
9.36772e-06
1.25317e-05
1.68875e-05
2.30505e-05
3.21773e-05
4.74815e-05
6.80314e-05
9.0424e-05
0.000115313
0.000140745
0.000165261
0.000185812
0.000206735
0.000232139
0.000255743
0.000284585
0.000319052
0.000356123
0.000400744
0.000446871
0.000491409
0.000537851
0.000577504
0.000620271
0.000650623
0.000675256
0.000686375
0.000691022
0.000691827
0.000683491
0.000668611
0.000646349
0.000619239
0.000604013
0.000560198
0.000531248
0.000510151
0.000468991
0.000430314
0.000385477
0.000329671
0.00027987
0.000235094
0.000198882
0.000167956
0.000141897
0.000120351
0.000102261
8.66986e-05
7.2738e-05
5.9706e-05
4.80828e-05
3.86046e-05
3.10237e-05
2.51553e-05
2.05258e-05
1.68285e-05
1.38495e-05
1.15507e-05
9.89489e-06
8.78196e-06
7.944e-06
7.18843e-06
6.42202e-06
5.64536e-06
4.91379e-06
4.23731e-06
3.62156e-06
3.06934e-06
2.58051e-06
2.15314e-06
1.78385e-06
1.46812e-06
1.20076e-06
9.76281e-07
7.89246e-07
6.34476e-07
5.0724e-07
4.03242e-07
3.18768e-07
2.50492e-07
1.95694e-07
1.51873e-07
1.17169e-07
8.9679e-08
6.82779e-08
5.16977e-08
3.89168e-08
2.91178e-08
2.1648e-08
1.59883e-08
1.17272e-08
8.54041e-09
6.17363e-09
4.42856e-09
3.15152e-09
2.22427e-09
1.55643e-09
1.07943e-09
7.41705e-10
5.04736e-10
3.40025e-10
2.26657e-10
1.49425e-10
9.73725e-11
6.26823e-11
3.98345e-11
2.49722e-11
1.54303e-11
9.38881e-12
5.61979e-12
3.30539e-12
1.90814e-12
1.07985e-12
5.9835e-13
3.24258e-13
1.71688e-13
8.87524e-14
4.47812e-14
2.20704e-14
1.0655e-14
5.07563e-15
2.42552e-15
1.20261e-15
6.54225e-16
4.1484e-16
3.12652e-16
2.695e-16
2.51001e-16
2.4252e-16
2.38061e-16
2.35235e-16
2.33132e-16
2.3142e-16
2.29953e-16
2.28698e-16
2.27617e-16
2.26686e-16
2.259e-16
2.2523e-16
2.24662e-16
2.24189e-16
2.238e-16
2.23468e-16
2.23195e-16
2.22984e-16
2.22795e-16
2.22656e-16
2.22514e-16
2.22441e-16
2.22355e-16
2.2226e-16
2.22896e-16
2.26387e-16
2.35652e-16
2.55879e-16
2.97655e-16
3.78701e-16
5.42943e-16
8.96667e-16
1.69549e-15
3.63626e-15
8.432e-15
2.09437e-14
5.2441e-14
1.3608e-13
3.32115e-13
9.35074e-13
1.79312e-12
6.39756e-12
6.72097e-12
7.69847e-12
1.04609e-11
8.24114e-07
1.7864e-06
2.36471e-06
3.05157e-06
3.87283e-06
5.10516e-06
7.01218e-06
9.90249e-06
1.44112e-05
2.16649e-05
3.25292e-05
4.71608e-05
6.36701e-05
8.37555e-05
0.000110573
0.000139021
0.000167631
0.000197613
0.000228139
0.000264432
0.000306029
0.00034846
0.000393249
0.000435261
0.000478737
0.000519552
0.000565062
0.000613092
0.000665124
0.000717029
0.000761292
0.000792219
0.000814714
0.000826771
0.000836282
0.000847469
0.000855253
0.000811949
0.000732187
0.000698946
0.000647426
0.000569163
0.000537877
0.000515313
0.000479493
0.000454022
0.000420978
0.000378151
0.000331152
0.000281569
0.00023736
0.000200068
0.000168897
0.000142354
0.000120272
0.000102679
8.82439e-05
7.60476e-05
6.43108e-05
5.17393e-05
3.95816e-05
3.00528e-05
2.29146e-05
1.7673e-05
1.3837e-05
1.09746e-05
8.77726e-06
7.06689e-06
5.79972e-06
4.92645e-06
4.36822e-06
3.97804e-06
3.62339e-06
3.26437e-06
2.8962e-06
2.53915e-06
2.20133e-06
1.88663e-06
1.59902e-06
1.34109e-06
1.11376e-06
9.16558e-07
7.4793e-07
6.05546e-07
4.8667e-07
3.88391e-07
3.07876e-07
2.42425e-07
1.89649e-07
1.47351e-07
1.13749e-07
8.71457e-08
6.63529e-08
5.02391e-08
3.78167e-08
2.8293e-08
2.10339e-08
1.55346e-08
1.13948e-08
8.29914e-09
6.00017e-09
4.30511e-09
3.06462e-09
2.16378e-09
1.51483e-09
1.05119e-09
7.22785e-10
4.92245e-10
3.31907e-10
2.2147e-10
1.46172e-10
9.53745e-11
6.1484e-11
3.91354e-11
2.45776e-11
1.52166e-11
9.27924e-12
5.56787e-12
3.28381e-12
1.90143e-12
1.07964e-12
6.00418e-13
3.26667e-13
1.73689e-13
9.0177e-14
4.56986e-14
2.26145e-14
1.09525e-14
5.22299e-15
2.48787e-15
1.21996e-15
6.49281e-16
3.99955e-16
2.94263e-16
2.50784e-16
2.33417e-16
2.26667e-16
2.24098e-16
2.23125e-16
2.22743e-16
2.22574e-16
2.22481e-16
2.22417e-16
2.22365e-16
2.2232e-16
2.2228e-16
2.22245e-16
2.22214e-16
2.22186e-16
2.22163e-16
2.22142e-16
2.22125e-16
2.22111e-16
2.22099e-16
2.2209e-16
2.22079e-16
2.22075e-16
2.22068e-16
2.22062e-16
2.22095e-16
2.24479e-16
2.32009e-16
2.49644e-16
2.85158e-16
3.57231e-16
4.96127e-16
7.89747e-16
1.4304e-15
2.93876e-15
6.51787e-15
1.55608e-14
3.72112e-14
9.17368e-14
2.09524e-13
6.01915e-13
9.99036e-13
2.5612e-12
2.86625e-12
3.10115e-12
3.91616e-12
8.25132e-07
1.88077e-06
2.37048e-06
3.00855e-06
3.87488e-06
5.29713e-06
7.79545e-06
1.22752e-05
1.97612e-05
3.1003e-05
4.64963e-05
6.64897e-05
9.05924e-05
0.000118863
0.000152848
0.00019452
0.000236054
0.000285762
0.000329703
0.000375893
0.000413017
0.000452066
0.000491053
0.000531183
0.000578886
0.00063674
0.000709814
0.000802901
0.000910079
0.00102941
0.00116369
0.00132689
0.00151412
0.00171318
0.00191897
0.00211128
0.0021891
0.00206395
0.00167938
0.00145358
0.00117102
0.000826386
0.000647998
0.00053475
0.000462922
0.000431033
0.000403253
0.000378795
0.000342988
0.00029611
0.00025153
0.000212407
0.000180572
0.000154051
0.000131082
0.000110719
9.42366e-05
8.18611e-05
7.21978e-05
6.4209e-05
5.5608e-05
4.42658e-05
3.24654e-05
2.34126e-05
1.68993e-05
1.23426e-05
9.1988e-06
7.01906e-06
5.45089e-06
4.27888e-06
3.40728e-06
2.80121e-06
2.39368e-06
2.10952e-06
1.90087e-06
1.7281e-06
1.56997e-06
1.41087e-06
1.24686e-06
1.08586e-06
9.31895e-07
7.88534e-07
6.58534e-07
5.43365e-07
4.43395e-07
3.58159e-07
2.86602e-07
2.27343e-07
1.78851e-07
1.39586e-07
1.08107e-07
8.3075e-08
6.33675e-08
4.80468e-08
3.62084e-08
2.71163e-08
2.01767e-08
1.49136e-08
1.09479e-08
7.97985e-09
5.7739e-09
4.14617e-09
2.95401e-09
2.08759e-09
1.4629e-09
1.01621e-09
6.99512e-10
4.76967e-10
3.22021e-10
2.15175e-10
1.42234e-10
9.29584e-11
6.00348e-11
3.82887e-11
2.40983e-11
1.49557e-11
9.14435e-12
5.50301e-12
3.25605e-12
1.89208e-12
1.07854e-12
6.02393e-13
3.29285e-13
1.75982e-13
9.1877e-14
4.68389e-14
2.33254e-14
1.13701e-14
5.45572e-15
2.61106e-15
1.28171e-15
6.78624e-16
4.13121e-16
2.99708e-16
2.52715e-16
2.33824e-16
2.26449e-16
2.23653e-16
2.22625e-16
2.22256e-16
2.22128e-16
2.22083e-16
2.22068e-16
2.22062e-16
2.22059e-16
2.22057e-16
2.22055e-16
2.22054e-16
2.22052e-16
2.22051e-16
2.2205e-16
2.22049e-16
2.22048e-16
2.22048e-16
2.22047e-16
2.22047e-16
2.22046e-16
2.22046e-16
2.22046e-16
2.22049e-16
2.2319e-16
2.28178e-16
2.41099e-16
2.68496e-16
3.26577e-16
4.32858e-16
6.52115e-16
1.11335e-15
2.15884e-15
4.53261e-15
1.02638e-14
2.32335e-14
5.46314e-14
1.14795e-13
3.19762e-13
4.69082e-13
6.81241e-13
8.3687e-13
9.40559e-13
1.26536e-12
8.12337e-07
1.93778e-06
2.46018e-06
3.02241e-06
3.92797e-06
5.72267e-06
9.00531e-06
1.45958e-05
2.32911e-05
3.56637e-05
5.24406e-05
7.47205e-05
0.000104347
0.000145717
0.000203851
0.000254607
0.000291668
0.000324475
0.000374206
0.000418947
0.000460635
0.000506417
0.000559664
0.000627624
0.000721602
0.000841257
0.00101207
0.00125204
0.00159763
0.00209736
0.00280988
0.00376973
0.00492061
0.00611796
0.00718365
0.00791776
0.00819109
0.00761175
0.00639633
0.00520117
0.00383474
0.00258811
0.00165391
0.00107888
0.000688511
0.000494286
0.00039901
0.000355998
0.000326572
0.000294674
0.000253237
0.000214419
0.000182595
0.0001571
0.000135847
0.000117338
0.000100398
8.51929e-05
7.41095e-05
6.62309e-05
6.04048e-05
5.50981e-05
4.78786e-05
3.68452e-05
2.57199e-05
1.76721e-05
1.20674e-05
8.34011e-06
5.92151e-06
4.34665e-06
3.28306e-06
2.52241e-06
1.9764e-06
1.60472e-06
1.34024e-06
1.13562e-06
9.80281e-07
8.70591e-07
7.93048e-07
7.26642e-07
6.59804e-07
5.87281e-07
5.12692e-07
4.39655e-07
3.70667e-07
3.07665e-07
2.51748e-07
2.03346e-07
1.62296e-07
1.28145e-07
1.00133e-07
7.75268e-08
5.94387e-08
4.52463e-08
3.42029e-08
2.56768e-08
1.91433e-08
1.41731e-08
1.04193e-08
7.60444e-09
5.50904e-09
3.9607e-09
2.82525e-09
1.99904e-09
1.40263e-09
9.75642e-10
6.72537e-10
4.59262e-10
3.10564e-10
2.07875e-10
1.3766e-10
9.01478e-11
5.83445e-11
3.72974e-11
2.35341e-11
1.46464e-11
8.98272e-12
5.42407e-12
3.22136e-12
1.87966e-12
1.07635e-12
6.04182e-13
3.32077e-13
1.78538e-13
9.38193e-14
4.81651e-14
2.4165e-14
1.18703e-14
5.73862e-15
2.76381e-15
1.36082e-15
7.17962e-16
4.31899e-16
3.08316e-16
2.56489e-16
2.35396e-16
2.2707e-16
2.23883e-16
2.22699e-16
2.22271e-16
2.22121e-16
2.2207e-16
2.22053e-16
2.22048e-16
2.22046e-16
2.22045e-16
2.22045e-16
2.22045e-16
2.22045e-16
2.22045e-16
2.22045e-16
2.22045e-16
2.22045e-16
2.22045e-16
2.22045e-16
2.22045e-16
2.22045e-16
2.22045e-16
2.22045e-16
2.22045e-16
2.2207e-16
2.2441e-16
2.32477e-16
2.51165e-16
2.92342e-16
3.6795e-16
5.17688e-16
8.19947e-16
1.47105e-15
2.86935e-15
6.03146e-15
1.26648e-14
3.07086e-14
5.37963e-14
1.3313e-13
1.48748e-13
1.65067e-13
2.01356e-13
2.30304e-13
3.2992e-13
7.76018e-07
1.936e-06
2.62994e-06
3.15622e-06
4.05173e-06
5.85297e-06
9.20153e-06
1.49873e-05
2.41092e-05
3.75064e-05
5.6549e-05
8.31897e-05
0.000118948
0.000167248
0.000224344
0.000281018
0.000333119
0.000401323
0.000467866
0.000508281
0.000565636
0.000628902
0.000712808
0.000830387
0.000991954
0.00124061
0.00166168
0.00234557
0.00345005
0.00518162
0.00772343
0.0111121
0.015144
0.0191158
0.0218947
0.0233695
0.0238342
0.0217457
0.0186954
0.0151152
0.0111673
0.00790438
0.00520442
0.0031675
0.0018181
0.00103447
0.000629519
0.000419091
0.00032224
0.000283357
0.000243864
0.000204557
0.000171434
0.000147668
0.000131573
0.000117673
0.000103215
8.97872e-05
7.69758e-05
6.69146e-05
6.04066e-05
5.62006e-05
5.25851e-05
4.8327e-05
4.05843e-05
2.91284e-05
1.93627e-05
1.25569e-05
8.08727e-06
5.29782e-06
3.60167e-06
2.56154e-06
1.89188e-06
1.43132e-06
1.12037e-06
9.07354e-07
7.41577e-07
6.11438e-07
5.1091e-07
4.36055e-07
3.83909e-07
3.49552e-07
3.22154e-07
2.94449e-07
2.63303e-07
2.29956e-07
1.96662e-07
1.64923e-07
1.35832e-07
1.1007e-07
8.78613e-08
6.92117e-08
5.38077e-08
4.13945e-08
3.15533e-08
2.38438e-08
1.78691e-08
1.32843e-08
9.79843e-09
7.17099e-09
5.20716e-09
3.75135e-09
2.68092e-09
1.90028e-09
1.33565e-09
9.30689e-10
6.42714e-10
4.39724e-10
2.97937e-10
1.99833e-10
1.32622e-10
8.70498e-11
5.64802e-11
3.62026e-11
2.29098e-11
1.43035e-11
8.80367e-12
5.33723e-12
3.1841e-12
1.86726e-12
1.0752e-12
6.07232e-13
3.36012e-13
1.82003e-13
9.64275e-14
4.99509e-14
2.53062e-14
1.25596e-14
6.13489e-15
2.98155e-15