/*--------------------------------*- C++ -*----------------------------------*\
  =========                 |
  \\      /  F ield         | OpenFOAM: The Open Source CFD Toolbox
   \\    /   O peration     | Website:  https://openfoam.org
    \\  /    A nd           | Version:  7
     \\/     M anipulation  |
\*---------------------------------------------------------------------------*/
FoamFile
{
    version     2.0;
    format      ascii;
    class       volScalarField;
    location    "0.019";
    object      k_0;
}
// * * * * * * * * * * * * * * * * * * * * * * * * * * * * * * * * * * * * * //

dimensions      [0 2 -2 0 0 0 0];

internalField   nonuniform List<scalar> 
12225
(
1.93215e-05
1.80966e-05
1.66902e-05
1.52089e-05
1.42687e-05
1.29151e-05
1.12892e-05
1.03016e-05
9.36996e-06
8.05741e-06
7.00523e-06
6.61372e-06
6.59191e-06
6.633e-06
6.58497e-06
6.24116e-06
5.53111e-06
1.25617e-05
1.99799e-05
1.9878e-05
1.96827e-05
1.93956e-05
1.92037e-05
1.89214e-05
1.83517e-05
1.78276e-05
1.74675e-05
1.70478e-05
1.65728e-05
1.62517e-05
1.59343e-05
1.56827e-05
1.53436e-05
1.51729e-05
1.47549e-05
1.47765e-05
1.99988e-05
1.93919e-05
1.93987e-05
1.93677e-05
1.92438e-05
1.90496e-05
1.8797e-05
1.86216e-05
1.85104e-05
1.84347e-05
1.83531e-05
1.82801e-05
1.81756e-05
1.80658e-05
1.79737e-05
1.78853e-05
1.7834e-05
1.77142e-05
2.00975e-05
1.98809e-05
1.88853e-05
1.85285e-05
1.85465e-05
1.84939e-05
1.8187e-05
1.7938e-05
1.77785e-05
1.75962e-05
1.73923e-05
1.72023e-05
1.70559e-05
1.69655e-05
1.69268e-05
1.69196e-05
1.69396e-05
1.70044e-05
2.02312e-05
2.02711e-05
2.00704e-05
2.00229e-05
2.0342e-05
2.09263e-05
2.0976e-05
2.0807e-05
2.00311e-05
1.851e-05
1.77625e-05
1.74975e-05
1.73559e-05
1.72916e-05
1.72858e-05
1.72975e-05
1.73631e-05
1.74483e-05
2.0648e-05
2.10883e-05
2.08946e-05
2.09733e-05
2.19389e-05
2.36611e-05
2.44548e-05
2.45754e-05
2.44307e-05
2.35175e-05
2.19854e-05
2.11573e-05
2.08396e-05
2.07874e-05
2.08227e-05
2.10652e-05
2.19822e-05
2.25509e-05
2.0949e-05
2.08562e-05
2.10759e-05
2.15713e-05
2.20051e-05
2.28687e-05
2.52636e-05
2.73015e-05
2.78501e-05
2.77459e-05
2.6809e-05
2.44247e-05
2.29206e-05
2.23415e-05
2.22682e-05
2.23873e-05
2.29544e-05
2.34664e-05
2.11312e-05
2.11207e-05
2.16707e-05
2.1718e-05
2.13925e-05
2.1348e-05
2.21529e-05
2.461e-05
2.59234e-05
2.61476e-05
2.59686e-05
2.49346e-05
2.35108e-05
2.27951e-05
2.25506e-05
2.25247e-05
2.25678e-05
2.26498e-05
2.17351e-05
2.16168e-05
2.14305e-05
2.17836e-05
2.16743e-05
2.15328e-05
2.19271e-05
2.36095e-05
2.46164e-05
2.47472e-05
2.45616e-05
2.36126e-05
2.26417e-05
2.22674e-05
2.2207e-05
2.22314e-05
2.23966e-05
2.26012e-05
2.05741e-05
2.10071e-05
2.11003e-05
2.15094e-05
2.17345e-05
2.16223e-05
2.12714e-05
2.12126e-05
2.1266e-05
2.13085e-05
2.12956e-05
2.12201e-05
2.1178e-05
2.11961e-05
2.14049e-05
2.23745e-05
2.35508e-05
2.40864e-05
2.19071e-05
2.26132e-05
2.18324e-05
2.16461e-05
2.21454e-05
2.24812e-05
2.24089e-05
2.20262e-05
2.17089e-05
2.15896e-05
2.15508e-05
2.15355e-05
2.15281e-05
2.15276e-05
2.15562e-05
2.17649e-05
2.22046e-05
2.24743e-05
2.04795e-05
2.16441e-05
2.23195e-05
2.25824e-05
2.3156e-05
2.32884e-05
2.31886e-05
2.26904e-05
2.19863e-05
2.16797e-05
2.15879e-05
2.15638e-05
2.15449e-05
2.15073e-05
2.13797e-05
2.1212e-05
2.11142e-05
2.10752e-05
2.01409e-05
2.12096e-05
2.26086e-05
2.3513e-05
2.34894e-05
2.30591e-05
2.2243e-05
2.17632e-05
2.16039e-05
2.15923e-05
2.15928e-05
2.15679e-05
2.1425e-05
2.12055e-05
2.11324e-05
2.11236e-05
2.11209e-05
2.11081e-05
2.0266e-05
2.10748e-05
2.1316e-05
2.12346e-05
2.10855e-05
2.1065e-05
2.1206e-05
2.16098e-05
2.17237e-05
2.17026e-05
2.15235e-05
2.12427e-05
2.11445e-05
2.11353e-05
2.11517e-05
2.12472e-05
2.1403e-05
2.14349e-05
2.01752e-05
2.07504e-05
2.09035e-05
2.08476e-05
2.07015e-05
2.07004e-05
2.08398e-05
2.0983e-05
2.09741e-05
2.08543e-05
2.06898e-05
2.05791e-05
2.05333e-05
2.05343e-05
2.05565e-05
2.06337e-05
2.08671e-05
2.15621e-05
2.01356e-05
2.02452e-05
2.03176e-05
2.0458e-05
2.065e-05
2.08007e-05
2.08266e-05
2.07801e-05
2.0665e-05
2.05672e-05
2.04862e-05
2.04216e-05
2.03815e-05
2.03662e-05
2.03644e-05
2.03688e-05
2.03952e-05
2.04851e-05
2.05252e-05
2.0455e-05
2.04618e-05
2.06011e-05
2.07298e-05
2.08247e-05
2.09032e-05
2.09056e-05
2.0889e-05
2.08797e-05
2.08636e-05
2.08076e-05
2.0672e-05
2.06021e-05
2.05936e-05
2.06307e-05
2.08535e-05
2.14597e-05
2.16375e-05
2.13077e-05
2.09439e-05
2.09497e-05
2.09348e-05
2.08658e-05
2.08531e-05
2.08103e-05
2.07636e-05
2.07359e-05
2.068e-05
2.06012e-05
2.05651e-05
2.05524e-05
2.05259e-05
2.04687e-05
2.04355e-05
2.04372e-05
2.04918e-05
2.06259e-05
2.06505e-05
2.06753e-05
2.07029e-05
2.06994e-05
2.06483e-05
2.04843e-05
2.03624e-05
2.03243e-05
2.03261e-05
2.03561e-05
2.03913e-05
2.03987e-05
2.03843e-05
2.03174e-05
2.02602e-05
2.02356e-05
2.04014e-05
2.12858e-05
2.13162e-05
2.09162e-05
2.05065e-05
2.03504e-05
2.02926e-05
2.02824e-05
2.03009e-05
2.03679e-05
2.03673e-05
2.031e-05
2.0269e-05
2.02649e-05
2.02709e-05
2.02723e-05
2.02652e-05
2.02647e-05
2.02767e-05
2.06368e-05
2.06119e-05
2.05348e-05
2.0517e-05
2.05039e-05
2.04447e-05
2.02999e-05
2.02336e-05
2.02257e-05
2.02505e-05
2.0286e-05
2.02894e-05
2.02859e-05
2.02818e-05
2.02831e-05
2.02945e-05
2.03253e-05
2.00073e-05
2.01124e-05
2.03675e-05
2.04746e-05
2.0485e-05
2.04532e-05
2.03395e-05
2.02528e-05
2.02112e-05
2.01993e-05
2.02063e-05
2.02537e-05
2.02991e-05
2.03316e-05
2.03893e-05
2.05415e-05
2.10614e-05
2.16714e-05
2.00561e-05
2.01435e-05
2.03275e-05
2.04056e-05
2.04108e-05
2.03787e-05
2.03137e-05
2.02984e-05
2.03156e-05
2.04107e-05
2.05061e-05
2.0544e-05
2.05501e-05
2.05418e-05
2.05075e-05
2.0489e-05
2.04856e-05
2.04851e-05
2.00605e-05
2.01172e-05
2.01323e-05
2.01461e-05
2.0177e-05
2.01853e-05
2.0213e-05
2.01944e-05
2.01778e-05
2.01776e-05
2.01815e-05
2.01876e-05
2.01933e-05
2.02024e-05
2.02203e-05
2.02616e-05
2.03648e-05
2.05021e-05
2.00484e-05
2.006e-05
2.00823e-05
2.01382e-05
2.02093e-05
2.02366e-05
2.02388e-05
2.02272e-05
2.01849e-05
2.01586e-05
2.01523e-05
2.01551e-05
2.01796e-05
2.02538e-05
2.03163e-05
2.03552e-05
2.03754e-05
2.03935e-05
2.00229e-05
2.00914e-05
2.04577e-05
2.06738e-05
2.07222e-05
2.07349e-05
2.07369e-05
2.07223e-05
2.0631e-05
2.03758e-05
2.01647e-05
2.00486e-05
1.99866e-05
1.99599e-05
1.9951e-05
1.99509e-05
1.9953e-05
1.99632e-05
2.00016e-05
2.00285e-05
2.00466e-05
2.00213e-05
1.99552e-05
1.98817e-05
1.98065e-05
1.96874e-05
1.94255e-05
1.86795e-05
1.72464e-05
1.61056e-05
1.50287e-05
1.45327e-05
1.45504e-05
1.47859e-05
1.54632e-05
1.62996e-05
2.02108e-05
1.75493e-05
1.5463e-05
1.61074e-05
1.79855e-05
1.97613e-05
2.21791e-05
2.70588e-05
3.27826e-05
3.78857e-05
4.31026e-05
4.91712e-05
5.68365e-05
6.45315e-05
7.27576e-05
7.9107e-05
8.62397e-05
9.11949e-05
3.03867e-05
7.26785e-05
0.000122167
0.000187681
0.000224663
0.000246445
0.000288449
0.0003618
0.000428426
0.000473678
0.000500683
0.00051552
0.000523642
0.00052819
0.000533543
0.000540045
0.000554797
0.00056837
0.00220131
0.00224486
0.00220514
0.0020435
0.00195966
0.00194143
0.00193672
0.00192438
0.00187318
0.001738
0.00159697
0.00146662
0.00135185
0.00126087
0.00119782
0.00116093
0.00114432
0.00113993
5.78783e-07
3.84199e-06
1.39245e-05
3.36651e-05
5.9639e-05
8.61952e-05
0.000110759
0.000133068
0.000153615
0.00017308
0.000191766
0.000209993
0.000227955
0.000245365
0.000262555
0.000277235
0.000288025
0.000293495
0.000295204
0.000289558
0.000277452
0.000259304
0.000236417
0.000209829
0.000180406
0.000149975
0.000120486
9.24369e-05
6.84833e-05
5.10526e-05
3.42193e-05
2.27491e-05
1.61219e-05
1.20537e-05
1.04128e-05
9.94231e-06
1.0492e-05
1.08866e-05
1.11355e-05
1.12957e-05
1.13558e-05
1.13474e-05
1.12293e-05
1.09858e-05
1.06874e-05
1.03357e-05
9.81539e-06
9.33664e-06
8.75015e-06
8.17006e-06
7.53633e-06
6.81033e-06
6.07804e-06
5.38901e-06
4.6914e-06
4.01904e-06
3.36872e-06
2.74731e-06
2.1867e-06
1.68391e-06
1.2932e-06
1.01575e-06
8.21816e-07
6.7408e-07
5.56109e-07
4.58385e-07
3.76249e-07
3.07071e-07
2.48986e-07
2.00509e-07
1.60359e-07
1.2729e-07
1.0019e-07
7.81865e-08
6.05152e-08
4.64186e-08
3.52308e-08
2.64335e-08
1.96095e-08
1.43961e-08
1.04702e-08
7.55052e-09
5.4022e-09
3.83602e-09
2.70384e-09
1.89193e-09
1.31419e-09
9.06245e-10
6.20385e-10
4.21605e-10
2.84436e-10
1.90505e-10
1.26675e-10
8.36313e-11
5.48253e-11
3.56928e-11
2.30805e-11
1.48281e-11
9.46779e-12
6.0111e-12
3.79721e-12
2.38819e-12
1.4964e-12
9.34555e-13
5.81922e-13
3.61272e-13
2.2363e-13
1.3796e-13
8.48307e-14
5.21075e-14
3.19526e-14
1.95604e-14
1.19649e-14
7.32616e-15
4.50498e-15
2.79524e-15
1.76056e-15
1.13482e-15
7.56923e-16
5.29564e-16
3.93771e-16
3.13705e-16
2.67551e-16
2.42019e-16
2.29e-16
2.2347e-16
2.22054e-16
2.22045e-16
2.22045e-16
2.22045e-16
2.22045e-16
2.22045e-16
2.22045e-16
2.22045e-16
2.22045e-16
2.22045e-16
2.22045e-16
2.22045e-16
2.22045e-16
2.22045e-16
2.22045e-16
2.22045e-16
2.22045e-16
2.22045e-16
2.22045e-16
2.22045e-16
2.22045e-16
2.22045e-16
2.22045e-16
2.22045e-16
2.22045e-16
2.22045e-16
2.22045e-16
2.22045e-16
2.22045e-16
2.22045e-16
2.22045e-16
2.22045e-16
2.22045e-16
2.22045e-16
2.22045e-16
2.22045e-16
2.22045e-16
2.22045e-16
2.22045e-16
2.22045e-16
2.22045e-16
2.22045e-16
2.22045e-16
2.22045e-16
2.22045e-16
2.22045e-16
2.3461e-16
3.45349e-16
9.82151e-16
4.2006e-15
2.01346e-14
3.09942e-13
1.28173e-10
7.42846e-08
1.07176e-06
5.58982e-06
1.73017e-05
3.57172e-05
5.52589e-05
7.13901e-05
8.49142e-05
9.67755e-05
0.000104919
0.000109414
0.000111902
0.000112879
0.00011239
0.000110466
0.000107178
0.000102756
9.71779e-05
9.07899e-05
8.3754e-05
7.62837e-05
6.88384e-05
6.18324e-05
5.57289e-05
5.06959e-05
4.66153e-05
4.36274e-05
4.18802e-05
4.12044e-05
4.12199e-05
4.25642e-05
4.38327e-05
4.62346e-05
4.92552e-05
5.18818e-05
5.46338e-05
5.67833e-05
5.88123e-05
6.01673e-05
6.09639e-05
6.1378e-05
6.15192e-05
6.11129e-05
6.02933e-05
5.87896e-05
5.75102e-05
5.59289e-05
5.33251e-05
5.17495e-05
4.90768e-05
4.70064e-05
4.45559e-05
4.20338e-05
3.92294e-05
3.63293e-05
3.3199e-05
2.98968e-05
2.65314e-05
2.3231e-05
2.0314e-05
1.63772e-05
1.2098e-05
8.64726e-06
6.5899e-06
5.25004e-06
4.33145e-06
3.62162e-06
3.03433e-06
2.53407e-06
2.10586e-06
1.74021e-06
1.43013e-06
1.16844e-06
9.47713e-07
7.62752e-07
6.09772e-07
4.8384e-07
3.8e-07
2.95066e-07
2.26734e-07
1.72683e-07
1.30544e-07
9.80581e-08
7.32204e-08
5.43539e-08
4.01058e-08
2.94068e-08
2.14207e-08
1.54969e-08
1.11319e-08
7.938e-09
5.61802e-09
3.94559e-09
2.74938e-09
1.90067e-09
1.30346e-09
8.86719e-10
5.98374e-10
4.00569e-10
2.6605e-10
1.75373e-10
1.14788e-10
7.46562e-11
4.82862e-11
3.10807e-11
1.99201e-11
1.2715e-11
8.08237e-12
5.11519e-12
3.2222e-12
2.01932e-12
1.25839e-12
7.79591e-13
4.80233e-13
2.94256e-13
1.79603e-13
1.09517e-13
6.67532e-14
4.0674e-14
2.47779e-14
1.50985e-14
9.21622e-15
5.65158e-15
3.49825e-15
2.20097e-15
1.42055e-15
9.50902e-16
6.6781e-16
4.96555e-16
3.92396e-16
3.28638e-16
2.8934e-16
2.64942e-16
2.49683e-16
2.40068e-16
2.33957e-16
2.30033e-16
2.27482e-16
2.25802e-16
2.2468e-16
2.23918e-16
2.23391e-16
2.23021e-16
2.22757e-16
2.22568e-16
2.22432e-16
2.22332e-16
2.22258e-16
2.222e-16
2.22156e-16
2.22122e-16
2.22098e-16
2.2208e-16
2.22068e-16
2.2206e-16
2.22055e-16
2.22051e-16
2.22049e-16
2.22048e-16
2.22047e-16
2.22046e-16
2.22046e-16
2.22045e-16
2.22045e-16
2.22045e-16
2.22045e-16
2.22045e-16
2.22045e-16
2.22045e-16
2.22045e-16
2.22045e-16
2.22046e-16
2.22079e-16
2.22531e-16
2.26073e-16
2.49269e-16
3.74915e-16
1.16355e-15
2.14752e-14
1.11803e-11
6.51203e-09
1.00341e-06
4.45786e-06
1.20693e-05
2.18744e-05
2.88895e-05
3.25833e-05
3.5278e-05
3.69213e-05
3.76482e-05
3.78859e-05
3.78365e-05
3.76389e-05
3.75033e-05
3.74584e-05
3.76923e-05
3.82298e-05
3.91506e-05
4.03591e-05
4.18407e-05
4.35923e-05
4.56573e-05
4.8033e-05
5.07645e-05
5.35816e-05
5.77064e-05
6.31516e-05
6.95817e-05
7.6871e-05
8.48234e-05
9.32764e-05
0.000101964
0.000109973
0.000116971
0.000123614
0.000129795
0.000135534
0.000140202
0.000143225
0.000144677
0.000145099
0.000143491
0.000141771
0.000136903
0.000131602
0.000128238
0.000121609
0.000114513
0.000111158
0.000102074
9.78053e-05
9.15448e-05
8.55234e-05
7.91339e-05
7.28401e-05
6.65998e-05
6.03966e-05
5.42077e-05
4.81566e-05
4.22501e-05
3.65313e-05
3.11291e-05
2.61249e-05
2.15857e-05
1.75764e-05
1.42104e-05
1.17007e-05
9.86237e-06
8.32035e-06
6.99006e-06
5.84132e-06
4.85528e-06
4.01376e-06
3.29445e-06
2.68198e-06
2.1701e-06
1.7435e-06
1.3813e-06
1.07914e-06
8.3739e-07
6.47693e-07
4.99904e-07
3.85056e-07
2.95853e-07
2.26574e-07
1.72812e-07
1.31176e-07
9.90356e-08
7.43333e-08
5.54423e-08
4.10717e-08
3.0209e-08
2.2055e-08
1.59794e-08
1.14873e-08
8.1925e-09
5.79575e-09
4.06686e-09
2.83034e-09
1.95371e-09
1.33785e-09
9.09285e-10
6.13925e-10
4.12232e-10
2.75588e-10
1.83568e-10
1.2185e-10
8.05707e-11
5.30343e-11
3.47241e-11
2.25981e-11
1.46072e-11
9.37336e-12
5.97074e-12
3.77848e-12
2.37939e-12
1.49258e-12
9.31893e-13
5.78709e-13
3.57807e-13
2.20299e-13
1.35158e-13
8.27292e-14
5.06063e-14
3.10003e-14
1.906e-14
1.17898e-14
7.35638e-15
4.6443e-15
2.9783e-15
1.95023e-15
1.31287e-15
9.1587e-16
6.6736e-16
5.11004e-16
4.12019e-16
3.48814e-16
3.07996e-16
2.81284e-16
2.63546e-16
2.51567e-16
2.43325e-16
2.37544e-16
2.33435e-16
2.30489e-16
2.28357e-16
2.26796e-16
2.25626e-16
2.2473e-16
2.24042e-16
2.23516e-16
2.2312e-16
2.22832e-16
2.22628e-16
2.22486e-16
2.22385e-16
2.22315e-16
2.22267e-16
2.22233e-16
2.22205e-16
2.22185e-16
2.22167e-16
2.22155e-16
2.22146e-16
2.22139e-16
2.22134e-16
2.22129e-16
2.22124e-16
2.22115e-16
2.22097e-16
2.22081e-16
2.22079e-16
2.22088e-16
2.22139e-16
2.22368e-16
2.23539e-16
2.29374e-16
2.89341e-16
1.3182e-15
5.1447e-13
2.70768e-10
8.50404e-07
2.8237e-06
6.45796e-06
1.09174e-05
1.36934e-05
1.50179e-05
1.5826e-05
1.65881e-05
1.74811e-05
1.8763e-05
2.05819e-05
2.28827e-05
2.57276e-05
2.88949e-05
3.23728e-05
3.61017e-05
4.00107e-05
4.48685e-05
5.10879e-05
5.89183e-05
6.86859e-05
8.10883e-05
9.62952e-05
0.000112238
0.00012948
0.000146857
0.00016262
0.000179321
0.000193031
0.000206857
0.000218567
0.000229518
0.00023934
0.000247467
0.000254403
0.000260778
0.000264327
0.000265722
0.000264812
0.000260736
0.000256625
0.000247889
0.000232991
0.000222598
0.000212572
0.000191492
0.00017811
0.000164787
0.00014643
0.000133939
0.000119274
0.000106701
9.48728e-05
8.41096e-05
7.43862e-05
6.57388e-05
5.81533e-05
5.14544e-05
4.5463e-05
3.99393e-05
3.49694e-05
3.05302e-05
2.6567e-05
2.3036e-05
1.99054e-05
1.71416e-05
1.47059e-05
1.25591e-05
1.06757e-05
9.03089e-06
7.6014e-06
6.36571e-06
5.3013e-06
4.38709e-06
3.60941e-06
2.95254e-06
2.38977e-06
1.91393e-06
1.53826e-06
1.24058e-06
1.00001e-06
8.03875e-07
6.43563e-07
5.12712e-07
4.06265e-07
3.20061e-07
2.50603e-07
1.94959e-07
1.50651e-07
1.15611e-07
8.8085e-08
6.6616e-08
4.99998e-08
3.72396e-08
2.75187e-08
2.01736e-08
1.46693e-08
1.05791e-08
7.56559e-09
5.3651e-09
3.77374e-09
2.63497e-09
1.82885e-09
1.26394e-09
8.71105e-10
5.9906e-10
4.10925e-10
2.80745e-10
1.90717e-10
1.28676e-10
8.61669e-11
5.72457e-11
3.77256e-11
2.46626e-11
1.59936e-11
1.02897e-11
6.57224e-12
4.17116e-12
2.63238e-12
1.65378e-12
1.03551e-12
6.46973e-13
4.03826e-13
2.52097e-13
1.57556e-13
9.86634e-14
6.19616e-14
3.90576e-14
2.47292e-14
1.57487e-14
1.01099e-14
6.56052e-15
4.31923e-15
2.90014e-15
1.99916e-15
1.42231e-15
1.04771e-15
8.00531e-16
6.34567e-16
5.21027e-16
4.41858e-16
3.85559e-16
3.45007e-16
3.15476e-16
2.93735e-16
2.77595e-16
2.6538e-16
2.55984e-16
2.48774e-16
2.43236e-16
2.38987e-16
2.35818e-16
2.33508e-16
2.31795e-16
2.30489e-16
2.29557e-16
2.28873e-16
2.28401e-16
2.27957e-16
2.27691e-16
2.27327e-16
2.27196e-16
2.26912e-16
2.26816e-16
2.26512e-16
2.26329e-16
2.25814e-16
2.24873e-16
2.23498e-16
2.23228e-16
2.23513e-16
2.25083e-16
2.30494e-16
2.46557e-16
3.09153e-16
4.89519e-16
6.44691e-15
1.411e-14
1.08634e-13
1.22478e-11
7.95367e-07
2.08947e-06
3.90633e-06
6.07767e-06
7.45543e-06
8.2284e-06
9.18189e-06
1.06146e-05
1.26528e-05
1.53897e-05
1.87034e-05
2.24468e-05
2.65567e-05
3.14769e-05
3.72757e-05
4.42431e-05
5.33815e-05
6.55979e-05
8.07842e-05
9.97108e-05
0.000121991
0.000143386
0.000162807
0.000183514
0.000200381
0.000215781
0.000233121
0.000244051
0.000261385
0.000272878
0.000288186
0.000301446
0.000314581
0.000326787
0.000336613
0.000345965
0.000351141
0.000353071
0.000349906
0.000343748
0.00033291
0.000313294
0.000294927
0.000278072
0.000254329
0.000226666
0.000210302
0.00018656
0.000166301
0.000148247
0.000130324
0.000114647
0.000100429
8.769e-05
7.63313e-05
6.62874e-05
5.75938e-05
4.99683e-05
4.33111e-05
3.77443e-05
3.30837e-05
2.91934e-05
2.57635e-05
2.25966e-05
1.97196e-05
1.71307e-05
1.48057e-05
1.27342e-05
1.09034e-05
9.29486e-06
7.88988e-06
6.66953e-06
5.61511e-06
4.7086e-06
3.93302e-06
3.27245e-06
2.71214e-06
2.23826e-06
1.83936e-06
1.50509e-06
1.22617e-06
9.94427e-07
8.02709e-07
6.44793e-07
5.15314e-07
4.09637e-07
3.2382e-07
2.54474e-07
1.98753e-07
1.54223e-07
1.18858e-07
9.09508e-08
6.9211e-08
5.23607e-08
3.93709e-08
2.9415e-08
2.18309e-08
1.60906e-08
1.1775e-08
8.55325e-09
6.16565e-09
4.40969e-09
3.12842e-09
2.20105e-09
1.53536e-09
1.06153e-09
7.27194e-10
4.93391e-10
3.31418e-10
2.20296e-10
1.44837e-10
9.41416e-11
6.04568e-11
3.8341e-11
2.39959e-11
1.4803e-11
9.00416e-12
5.39638e-12
3.16729e-12
1.83623e-12
1.06755e-12
6.2482e-13
3.69828e-13
2.22555e-13
1.37034e-13
8.68942e-14
5.70323e-14
3.88512e-14
2.74618e-14
2.00431e-14
1.49961e-14
1.14186e-14
8.79428e-15
6.81763e-15
5.30166e-15
4.13027e-15
3.22374e-15
2.52381e-15
1.98492e-15
1.5713e-15
1.25521e-15
1.01334e-15
8.29194e-16
6.88746e-16
5.81148e-16
4.99348e-16
4.36449e-16
3.87708e-16
3.50581e-16
3.21909e-16
2.99249e-16
2.81889e-16
2.68815e-16
2.5839e-16
2.49849e-16
2.43321e-16
2.38629e-16
2.34966e-16
2.31618e-16
2.28556e-16
2.26034e-16
2.24288e-16
2.2341e-16
2.23202e-16
2.23199e-16
2.23224e-16
2.23524e-16
2.25029e-16
2.31035e-16
2.53288e-16
3.30748e-16
5.77813e-16
1.32203e-15
3.38893e-15
1.36632e-14
2.9987e-14
9.26e-13
1.09617e-12
1.45189e-11
1.56274e-11
7.90226e-07
1.8214e-06
2.84137e-06
4.05597e-06
4.99661e-06
5.89605e-06
7.29891e-06
9.36845e-06
1.21111e-05
1.5479e-05
1.95973e-05
2.48062e-05
3.1674e-05
4.04999e-05
5.21966e-05
6.92845e-05
9.50932e-05
0.000121643
0.000148492
0.000173464
0.00019174
0.000210927
0.000228348
0.000242938
0.000261339
0.000280275
0.000299749
0.00032856
0.000351976
0.000386011
0.000412971
0.000444896
0.000471397
0.00049303
0.000513911
0.000525025
0.0005349
0.000538877
0.000538853
0.000524005
0.000495804
0.000479191
0.000449002
0.000409251
0.000363269
0.000318924
0.000284497
0.000237901
0.000212673
0.000181341
0.000156883
0.000134571
0.000115356
9.85824e-05
8.39288e-05
7.11018e-05
5.9996e-05
5.05129e-05
4.25109e-05
3.57469e-05
3.00848e-05
2.53817e-05
2.16928e-05
1.89157e-05
1.67714e-05
1.49816e-05
1.33473e-05
1.17524e-05
1.02506e-05
8.87605e-06
7.63051e-06
6.51686e-06
5.53193e-06
4.66863e-06
3.91828e-06
3.27117e-06
2.71726e-06
2.24635e-06
1.84836e-06
1.51382e-06
1.23405e-06
1.00123e-06
8.08423e-07
6.49509e-07
5.19175e-07
4.12779e-07
3.26394e-07
2.56573e-07
2.00506e-07
1.55654e-07
1.20097e-07
9.19337e-08
7.00013e-08
5.3002e-08
3.98938e-08
2.98419e-08
2.21789e-08
1.6373e-08
1.20026e-08
8.73523e-09
6.30966e-09
4.52227e-09
3.21518e-09
2.26686e-09
1.58446e-09
1.09755e-09
7.53191e-10
5.11855e-10
3.44326e-10
2.29177e-10
1.50847e-10
9.81361e-11
6.30637e-11
4.00036e-11
2.50298e-11
1.54342e-11
9.37088e-12
5.59635e-12
3.28357e-12
1.89068e-12
1.0673e-12
5.90175e-13
3.19494e-13
1.69334e-13
8.79249e-14
4.48467e-14
2.26329e-14
1.14623e-14
5.95484e-15
3.28036e-15
1.98575e-15
1.34707e-15
1.01437e-15
8.23514e-16
6.99667e-16
6.09757e-16
5.39212e-16
4.81716e-16
4.34127e-16
3.94655e-16
3.62136e-16
3.35319e-16
3.13479e-16
2.95703e-16
2.81212e-16
2.69581e-16
2.60151e-16
2.52471e-16
2.46369e-16
2.4147e-16
2.37454e-16
2.34265e-16
2.31795e-16
2.29793e-16
2.28088e-16
2.2676e-16
2.25791e-16
2.24976e-16
2.24291e-16
2.23653e-16
2.23011e-16
2.2272e-16
2.22736e-16
2.22964e-16
2.24397e-16
2.3637e-16
2.90683e-16
4.99526e-16
1.31995e-15
4.40338e-15
1.5255e-14
4.88846e-14
1.48911e-13
4.08582e-13
1.1345e-12
2.48303e-12
1.01858e-11
1.07825e-11
2.18225e-11
2.24849e-11
8.0726e-07
1.76442e-06
2.45755e-06
3.28631e-06
4.1135e-06
5.20685e-06
6.92927e-06
9.3485e-06
1.25079e-05
1.6861e-05
2.30216e-05
3.21433e-05
4.7421e-05
6.79719e-05
9.03765e-05
0.000115237
0.000140663
0.000165222
0.000185809
0.000206721
0.000232201
0.000255843
0.000284673
0.000319116
0.000356087
0.000400561
0.00044676
0.00049116
0.000537682
0.00057726
0.000620064
0.000650493
0.000675358
0.000686612
0.000691292
0.000692097
0.000683714
0.000668726
0.000646507
0.000618913
0.000603815
0.000560455
0.000530867
0.000509786
0.000468631
0.000429579
0.000384612
0.000328576
0.000278944
0.000234275
0.000198178
0.000167347
0.000141382
0.00011992
0.000101884
8.63619e-05
7.2412e-05
5.94013e-05
4.78381e-05
3.8408e-05
3.08773e-05
2.50463e-05
2.04421e-05
1.67631e-05
1.37987e-05
1.15175e-05
9.87758e-06
8.77628e-06
7.94018e-06
7.18284e-06
6.41257e-06
5.63466e-06
4.90279e-06
4.22647e-06
3.61123e-06
3.05976e-06
2.57182e-06
2.14541e-06
1.77708e-06
1.46228e-06
1.19579e-06
9.72089e-07
7.85748e-07
6.31579e-07
5.04861e-07
4.01301e-07
3.17195e-07
2.49226e-07
1.94681e-07
1.51067e-07
1.16533e-07
8.91806e-08
6.78895e-08
5.13966e-08
3.86849e-08
2.89402e-08
2.15129e-08
1.58862e-08
1.16506e-08
8.48334e-09
6.13144e-09
4.3976e-09
3.129e-09
2.20802e-09
1.54479e-09
1.07118e-09
7.35907e-10
5.00699e-10
3.37242e-10
2.24759e-10
1.48144e-10
9.65168e-11
6.21176e-11
3.94664e-11
2.47353e-11
1.52799e-11
9.2947e-12
5.56179e-12
3.27022e-12
1.88719e-12
1.0676e-12
5.9133e-13
3.20321e-13
1.6953e-13
8.75973e-14
4.41785e-14
2.17641e-14
1.05035e-14
5.00272e-15
2.3914e-15
1.18706e-15
6.47313e-16
4.11821e-16
3.11338e-16
2.68914e-16
2.5072e-16
2.42367e-16
2.37963e-16
2.35164e-16
2.33076e-16
2.31373e-16
2.29914e-16
2.28666e-16
2.2759e-16
2.26663e-16
2.25881e-16
2.25215e-16
2.2465e-16
2.24179e-16
2.23791e-16
2.23461e-16
2.2319e-16
2.22979e-16
2.22791e-16
2.22653e-16
2.22511e-16
2.22439e-16
2.22353e-16
2.22259e-16
2.22896e-16
2.26391e-16
2.35662e-16
2.55901e-16
2.97702e-16
3.78759e-16
5.43018e-16
8.96785e-16
1.69572e-15
3.63675e-15
8.43315e-15
2.09466e-14
5.24492e-14
1.36105e-13
3.32184e-13
9.35219e-13
1.79354e-12
6.39938e-12
6.72298e-12
7.70067e-12
1.04653e-11
8.24171e-07
1.78628e-06
2.36348e-06
3.04859e-06
3.86832e-06
5.09792e-06
7.00084e-06
9.8888e-06
1.43987e-05
2.16645e-05
3.25353e-05
4.71725e-05
6.36838e-05
8.3714e-05
0.00011053
0.000139003
0.00016763
0.000197668
0.00022829
0.000264712
0.000306271
0.000348721
0.000393495
0.000435478
0.000478957
0.000519726
0.000565164
0.000613225
0.000665345
0.000717391
0.000761779
0.000792815
0.000815307
0.000827239
0.000836323
0.000846853
0.000854671
0.000812066
0.000731027
0.000697112
0.000647268
0.000569094
0.000537532
0.000515253
0.000479543
0.00045378
0.000420574
0.000377634
0.000330396
0.000280812
0.00023667
0.000199463
0.000168345
0.000141865
0.000119878
0.000102347
8.79686e-05
7.57884e-05
6.39993e-05
5.14044e-05
3.92848e-05
2.98426e-05
2.2764e-05
1.7568e-05
1.37639e-05
1.09211e-05
8.7369e-06
7.03698e-06
5.7809e-06
4.91739e-06
4.36611e-06
3.97721e-06
3.62151e-06
3.26091e-06
2.89162e-06
2.53413e-06
2.19612e-06
1.88146e-06
1.59408e-06
1.33652e-06
1.10965e-06
9.12946e-07
7.44813e-07
6.02901e-07
4.84455e-07
3.86559e-07
3.06376e-07
2.41209e-07
1.88672e-07
1.46572e-07
1.13132e-07
8.6661e-08
6.59749e-08
4.9946e-08
3.75909e-08
2.81201e-08
2.09024e-08
1.54352e-08
1.13203e-08
8.24362e-09
5.95913e-09
4.275e-09
3.04271e-09
2.14797e-09
1.50351e-09
1.04316e-09
7.1714e-10
4.88313e-10
3.29194e-10
2.19618e-10
1.44921e-10
9.45384e-11
6.09316e-11
3.87749e-11
2.43453e-11
1.50689e-11
9.18663e-12
5.51068e-12
3.24905e-12
1.88067e-12
1.06746e-12
5.93419e-13
3.22728e-13
1.71521e-13
8.90119e-14
4.50879e-14
2.23027e-14
1.07976e-14
5.14813e-15
2.45273e-15
1.20394e-15
6.42185e-16
3.96904e-16
2.92989e-16
2.50267e-16
2.33212e-16
2.26587e-16
2.24067e-16
2.23112e-16
2.22736e-16
2.2257e-16
2.22479e-16
2.22415e-16
2.22364e-16
2.22319e-16
2.22279e-16
2.22244e-16
2.22213e-16
2.22185e-16
2.22162e-16
2.22142e-16
2.22125e-16
2.22111e-16
2.22099e-16
2.22089e-16
2.22079e-16
2.22075e-16
2.22068e-16
2.22062e-16
2.22096e-16
2.24483e-16
2.3202e-16
2.49675e-16
2.85199e-16
3.57288e-16
4.96197e-16
7.89847e-16
1.43056e-15
2.93907e-15
6.51857e-15
1.55625e-14
3.72159e-14
9.1749e-14
2.09561e-13
6.02017e-13
9.99288e-13
2.56218e-12
2.86732e-12
3.10227e-12
3.91756e-12
8.25157e-07
1.88143e-06
2.37006e-06
3.00682e-06
3.87164e-06
5.29342e-06
7.79192e-06
1.22719e-05
1.97552e-05
3.09816e-05
4.6462e-05
6.64458e-05
9.05633e-05
0.000118903
0.00015297
0.00019475
0.000236287
0.000286015
0.000330035
0.000376204
0.000413362
0.000452377
0.000491373
0.000531536
0.000579316
0.000637284
0.000710451
0.00080362
0.000911
0.00103064
0.00116505
0.0013282
0.001515
0.00171255
0.00191453
0.00210437
0.00218183
0.00205657
0.0016697
0.00144046
0.0011634
0.000821814
0.000644345
0.000533102
0.000462306
0.000430971
0.000403217
0.000378562
0.000342479
0.00029548
0.000250895
0.000211838
0.000180076
0.000153598
0.000130646
0.000110333
9.39571e-05
8.16408e-05
7.20252e-05
6.40389e-05
5.53557e-05
4.39283e-05
3.21635e-05
2.32034e-05
1.67556e-05
1.22469e-05
9.13608e-06
6.97722e-06
5.42113e-06
4.25699e-06
3.3927e-06
2.79286e-06
2.38937e-06
2.10753e-06
1.89994e-06
1.72736e-06
1.56892e-06
1.40913e-06
1.24468e-06
1.08344e-06
9.2939e-07
7.86082e-07
6.56237e-07
5.41288e-07
4.41568e-07
3.56588e-07
2.85278e-07
2.26246e-07
1.77954e-07
1.38862e-07
1.07529e-07
8.26174e-08
6.30089e-08
4.77679e-08
3.59929e-08
2.6951e-08
2.00508e-08
1.48184e-08
1.08764e-08
7.92653e-09
5.73446e-09
4.11721e-09
2.93292e-09
2.07235e-09
1.45199e-09
1.00846e-09
6.9406e-10
4.73166e-10
3.19396e-10
2.13381e-10
1.4102e-10
9.21461e-11
5.94974e-11
3.79374e-11
2.38715e-11
1.48112e-11
9.05356e-12
5.4468e-12
3.2218e-12
1.87155e-12
1.06647e-12
5.95425e-13
3.25347e-13
1.73804e-13
9.07009e-14
4.6219e-14
2.3007e-14
1.12108e-14
5.37824e-15
2.57442e-15
1.26487e-15
6.71114e-16
4.0987e-16
2.98342e-16
2.52158e-16
2.33603e-16
2.26364e-16
2.23622e-16
2.22613e-16
2.22252e-16
2.22126e-16
2.22083e-16
2.22068e-16
2.22062e-16
2.22059e-16
2.22057e-16
2.22055e-16
2.22054e-16
2.22052e-16
2.22051e-16
2.2205e-16
2.22049e-16
2.22048e-16
2.22048e-16
2.22047e-16
2.22047e-16
2.22046e-16
2.22046e-16
2.22046e-16
2.22049e-16
2.23192e-16
2.28184e-16
2.41115e-16
2.68532e-16
3.26642e-16
4.32932e-16
6.52212e-16
1.11351e-15
2.15912e-15
4.53323e-15
1.02653e-14
2.32374e-14
5.46384e-14
1.14819e-13
3.19925e-13
4.69068e-13
6.81658e-13
8.37344e-13
9.41044e-13
1.26589e-12
8.12267e-07
1.93804e-06
2.46151e-06
3.02157e-06
3.92597e-06
5.71851e-06
8.99743e-06
1.45814e-05
2.32655e-05
3.56218e-05
5.23789e-05
7.46396e-05
0.000104242
0.000145584
0.000203791
0.000254727
0.000291947
0.000324797
0.000374577
0.000419318
0.000461079
0.000506882
0.000560206
0.000628344
0.000722631
0.000842681
0.00101405
0.00125464
0.0016012
0.00210222
0.00281598
0.00377648
0.00492644
0.00611902
0.00717032
0.00789405
0.00816375
0.0075784
0.00635532
0.0051578
0.00380257
0.00256302
0.0016354
0.00106731
0.000682541
0.000491473
0.000397869
0.000355778
0.000326418
0.000294226
0.000252665
0.000213861
0.000182133
0.000156698
0.000135471
0.000116989
0.000100042
8.49065e-05
7.39236e-05
6.6102e-05
6.0307e-05
5.49668e-05
4.76316e-05
3.65029e-05
2.54489e-05
1.74816e-05
1.19416e-05
8.26075e-06
5.87255e-06
4.31606e-06
3.26262e-06
2.50798e-06
1.96714e-06
1.59922e-06
1.33648e-06
1.13293e-06
9.78679e-07
8.70014e-07
7.92851e-07
7.26373e-07
6.59207e-07
5.86347e-07
5.11582e-07
4.38466e-07
3.69484e-07
3.0655e-07
2.50739e-07
2.02463e-07
1.61543e-07
1.27517e-07
9.96186e-08
7.71125e-08
5.91096e-08
4.49876e-08
3.40016e-08
2.55215e-08
1.90245e-08
1.4083e-08
1.03514e-08
7.55377e-09
5.47149e-09
3.9331e-09
2.80513e-09
1.98448e-09
1.39219e-09
9.68221e-10
6.67308e-10
4.55612e-10
3.08041e-10
2.06147e-10
1.3649e-10
8.93631e-11
5.78244e-11
3.69568e-11
2.33138e-11
1.45056e-11
8.89407e-12
5.36903e-12
3.18772e-12
1.85943e-12
1.0644e-12
5.97256e-13
3.28144e-13
1.76352e-13
9.26315e-14
4.7535e-14
2.3839e-14
1.17061e-14
5.65805e-15
2.72536e-15
1.34299e-15
7.09927e-16
4.28382e-16
3.06822e-16
2.55873e-16
2.35149e-16
2.26974e-16
2.23847e-16
2.22685e-16
2.22267e-16
2.2212e-16
2.2207e-16
2.22053e-16
2.22048e-16
2.22046e-16
2.22045e-16
2.22045e-16
2.22045e-16
2.22045e-16
2.22045e-16
2.22045e-16
2.22045e-16
2.22045e-16
2.22045e-16
2.22045e-16
2.22045e-16
2.22045e-16
2.22045e-16
2.22045e-16
2.22045e-16
2.2207e-16
2.24413e-16
2.32488e-16
2.51191e-16
2.92404e-16
3.68023e-16
5.17783e-16
8.20089e-16
1.4713e-15
2.86989e-15
6.03267e-15
1.26677e-14
3.07152e-14
5.38121e-14
1.33204e-13
1.48807e-13
1.65129e-13
2.01424e-13
2.30384e-13
3.30054e-13
7.75904e-07
1.93616e-06
2.63111e-06
3.15775e-06
4.05181e-06
5.8506e-06
9.19496e-06
1.49745e-05
2.40885e-05
3.74797e-05
5.65265e-05
8.3197e-05
0.000119
0.00016736
0.000224378
0.000281176
0.000333374
0.000401659
0.000468412
0.000508835
0.000566318
0.000629722
0.000713761
0.000831696
0.000993929
0.00124395
0.00166748
0.00235448
0.00346355
0.00520115
0.00774937
0.0111409
0.0151682
0.0191357
0.0218793
0.023322
0.0237732
0.0216694
0.0186016
0.0150319
0.0110956
0.00784102
0.00515325
0.00313131
0.0017942
0.00102226
0.000623084
0.000416229
0.000321394
0.000282985
0.000243336
0.000204018
0.000170979
0.000147334
0.000131355
0.000117394
0.000102913
8.94914e-05
7.67003e-05
6.67457e-05
6.03129e-05
5.61366e-05
5.2516e-05
4.81908e-05
4.0282e-05
2.87926e-05
1.91243e-05
1.23977e-05
7.98805e-06
5.23904e-06
3.5676e-06
2.54139e-06
1.87898e-06
1.42279e-06
1.11531e-06
9.03848e-07
7.38913e-07
6.09441e-07
5.09515e-07
4.35205e-07
3.83575e-07
3.49506e-07
3.221e-07
2.94241e-07
2.6291e-07
2.2946e-07
1.96119e-07
1.64377e-07
1.35317e-07
1.09606e-07
8.74586e-08
6.88719e-08
5.3528e-08
4.11687e-08
3.13739e-08
2.37032e-08
1.77602e-08
1.3201e-08
9.73526e-09
7.12357e-09
5.17188e-09
3.72533e-09
2.6619e-09
1.88649e-09
1.32575e-09
9.23635e-10
6.37735e-10
4.36243e-10
2.95525e-10
1.98179e-10
1.31499e-10
8.62957e-11
5.59793e-11
3.58738e-11
2.26965e-11
1.41669e-11
8.7174e-12
5.28351e-12
3.15113e-12
1.84736e-12
1.06338e-12
6.00349e-13
3.3208e-13
1.79804e-13
9.52237e-14
4.93073e-14
2.49703e-14
1.23887e-14
6.05012e-15
2.94062e-15
1.45626e-15
7.67141e-16
4.56161e-16