/*--------------------------------*- C++ -*----------------------------------*\
  =========                 |
  \\      /  F ield         | OpenFOAM: The Open Source CFD Toolbox
   \\    /   O peration     | Website:  https://openfoam.org
    \\  /    A nd           | Version:  7
     \\/     M anipulation  |
\*---------------------------------------------------------------------------*/
FoamFile
{
    version     2.0;
    format      ascii;
    class       volScalarField;
    location    "0.019";
    object      p;
}
// * * * * * * * * * * * * * * * * * * * * * * * * * * * * * * * * * * * * * //

dimensions      [0 2 -2 0 0 0 0];

internalField   nonuniform List<scalar> 
12225
(
7.4685
9.22264
9.98773
10.0851
9.98456
9.80467
9.55453
9.25871
8.96635
8.7092
8.48783
8.29169
8.11362
7.95548
7.81487
7.69335
7.58036
7.47263
7.4373
9.25121
10.0072
10.1032
9.98945
9.80092
9.54907
9.25562
8.96592
8.71016
8.48889
8.29233
8.11438
7.95687
7.8171
7.69442
7.58306
7.46758
7.62119
9.23688
10.0153
10.1269
9.99946
9.79721
9.54321
9.25546
8.97222
8.7195
8.49861
8.30189
8.12429
7.96529
7.82408
7.69752
7.58208
7.46182
7.63451
9.37288
10.0972
10.1836
10.0289
9.8052
9.54413
9.25979
8.98102
8.72939
8.50735
8.30894
8.13014
7.97009
7.82759
7.6984
7.57995
7.46287
7.49249
9.53899
10.1789
10.2368
10.0593
9.81504
9.54479
9.26121
8.98547
8.73497
8.51259
8.31374
8.13487
7.97439
7.83052
7.69947
7.57947
7.46481
7.60791
9.84635
10.3445
10.326
10.1097
9.83762
9.55232
9.26509
8.9902
8.74022
8.51741
8.3179
8.13836
7.97678
7.83145
7.69932
7.57856
7.46618
8.99997
10.3403
10.543
10.4209
10.1625
9.86236
9.56016
9.26706
8.99197
8.74229
8.51898
8.31883
8.13885
7.97692
7.83112
7.69865
7.57792
7.46694
10.9561
10.9764
10.8016
10.545
10.2293
9.89601
9.57339
9.27107
8.99345
8.74286
8.5186
8.3178
8.13747
7.97511
7.82856
7.69555
7.57456
7.46416
14.0615
11.7212
11.0878
10.6789
10.298
9.92896
9.58434
9.2715
8.99063
8.73911
8.51418
8.31289
8.13226
7.96967
7.82308
7.69028
7.56952
7.4594
15.1629
12.2801
11.3642
10.8179
10.3687
9.96293
9.59596
9.27063
8.98359
8.72926
8.50348
8.30252
8.12271
7.96089
7.81477
7.68212
7.56127
7.4507
14.5004
12.5338
11.6062
10.9565
10.4402
9.99338
9.60136
9.26301
8.97045
8.71431
8.48827
8.28748
8.10797
7.94669
7.80127
7.66939
7.54902
7.43858
13.1884
12.6767
11.8074
11.0689
10.486
10.0051
9.59604
9.24861
8.95087
8.6926
8.46683
8.26761
8.08988
7.93003
7.78559
7.65429
7.53413
7.42363
12.491
12.8308
11.9768
11.171
10.5318
10.0144
9.58459
9.22654
8.92421
8.6649
8.43976
8.2416
8.06517
7.90695
7.76433
7.63478
7.51601
7.40625
13.7767
13.3438
12.1991
11.2583
10.5415
9.98872
9.545
9.18181
8.87794
8.6197
8.39755
8.20308
8.03015
7.87484
7.73447
7.60647
7.48888
7.37979
17.9507
14.2085
12.3939
11.2823
10.5056
9.92507
9.46975
9.10398
8.80208
8.54827
8.33161
8.14302
7.9761
7.82662
7.69156
7.56812
7.4543
7.3482
18.3269
14.2923
12.3134
11.1353
10.3428
9.76399
9.32021
8.96889
8.68042
8.43843
8.23258
8.05391
7.89595
7.75429
7.62598
7.50849
7.39991
7.29881
14.3954
12.9957
11.6131
10.649
9.95697
9.43387
9.03613
8.72655
8.47321
8.25998
8.0783
7.92084
7.78116
7.65493
7.53955
7.43306
7.33389
7.24097
12.5864
11.3092
10.3734
9.74411
9.27545
8.89823
8.60619
8.3748
8.17889
8.00828
7.86017
7.73067
7.61499
7.50946
7.41203
7.3215
7.23673
7.15662
10.1225
8.96403
8.53279
8.35155
8.19592
8.04627
7.9232
7.81689
7.71855
7.62814
7.54406
7.4644
7.38856
7.31588
7.24583
7.17839
7.1138
7.05159
0.913613
5.09388
6.42037
6.89726
7.11621
7.22759
7.28119
7.30026
7.29655
7.27878
7.25231
7.21991
7.18337
7.14367
7.10146
7.05748
7.01245
6.96677
6.42656
5.41463
5.74508
6.13301
6.43125
6.64937
6.79657
6.89356
6.95688
6.99629
7.01569
7.01887
7.01118
6.9964
6.97617
6.95152
6.92374
6.89372
3.57192
4.21623
4.9922
5.54286
5.94755
6.25491
6.4828
6.64192
6.74981
6.82354
6.87131
6.89885
6.91246
6.91508
6.90934
6.89649
6.87805
6.85538
1.10017
3.25356
4.42059
5.11756
5.59238
5.94488
6.21219
6.40722
6.54634
6.64732
6.72001
6.77035
6.8059
6.82608
6.83581
6.83658
6.83073
6.82002
0.842219
2.79796
4.1042
4.8769
5.4066
5.79862
6.09396
6.30862
6.45991
6.5714
6.6545
6.71608
6.7568
6.78564
6.80274
6.81034
6.81055
6.80512
-1.23838
2.65165
3.99769
4.71635
5.23732
5.64562
5.95542
6.18335
6.3505
6.48163
6.58062
6.65357
6.70625
6.74436
6.76999
6.78541
6.79248
6.79299
1.10084
3.26369
4.149
4.73641
5.22939
5.63031
5.93287
6.1551
6.32057
6.44787
6.55083
6.6291
6.68661
6.72883
6.75897
6.77882
6.78978
6.79326
4.79806
3.91269
4.20909
4.68065
5.16675
5.56948
5.8739
6.09932
6.27614
6.4133
6.52189
6.60471
6.66617
6.71236
6.74701
6.77159
6.78677
6.79378
5.36818
4.47902
4.37686
4.74462
5.19776
5.57504
5.86441
6.08766
6.26395
6.40248
6.51204
6.59664
6.6607
6.70996
6.74798
6.77605
6.79352
6.80105
6.21827
4.58903
4.377
4.75594
5.19145
5.55833
5.84691
6.0749
6.25501
6.39563
6.50536
6.58947
6.65332
6.70383
6.74539
6.77817
6.80117
6.81271
7.04851
4.70062
4.40204
4.79134
5.20647
5.56069
5.84658
6.07451
6.25407
6.39437
6.50466
6.5906
6.65683
6.70905
6.75092
6.78325
6.80558
6.81647
5.81098
5.80646
5.79611
5.78041
5.7594
5.73312
5.70147
5.6643
5.62133
5.5722
5.51649
5.4537
5.38328
5.30467
5.21727
5.12056
5.01403
4.89725
4.76992
4.63209
4.4842
4.32702
4.16176
3.99014
3.81446
3.63764
3.46327
3.2956
3.1395
3.00032
2.88376
2.79563
2.74152
2.72657
2.75508
2.83068
2.95618
3.13352
3.36244
3.64024
3.96289
4.32518
4.72092
5.14327
5.585
6.03877
6.49744
6.95432
7.40338
7.83939
8.25791
8.65549
9.02955
9.37826
9.70046
9.99569
10.2641
10.5062
10.7228
10.9152
11.0825
11.23
11.3575
11.4667
11.559
11.636
11.6992
11.7498
11.7893
11.8186
11.8391
11.8516
11.8571
11.8564
11.8503
11.8394
11.8243
11.8056
11.7838
11.7593
11.7324
11.7035
11.6729
11.6409
11.6077
11.5734
11.5383
11.5025
11.4661
11.4292
11.392
11.3545
11.3168
11.2789
11.2409
11.2029
11.1648
11.1267
11.0887
11.0506
11.0126
10.9746
10.9367
10.8989
10.8611
10.8233
10.7856
10.748
10.7103
10.6728
10.6352
10.5976
10.5599
10.5223
10.4846
10.4469
10.4091
10.3712
10.3333
10.2952
10.2571
10.2188
10.1804
10.1418
10.1032
10.0644
10.0254
9.98628
9.94699
9.90751
9.86783
9.82794
9.78782
9.74748
9.70689
9.66606
9.62496
9.5836
9.54196
9.50004
9.45782
9.41531
9.37249
9.32937
9.28593
9.24219
9.19813
9.15375
9.10906
9.06404
9.01871
8.97305
8.92707
8.88077
8.83415
8.78722
8.73997
8.69241
8.64457
8.59644
8.54805
8.49941
8.45057
8.40157
8.35245
8.3033
8.25418
8.20527
8.15665
8.10866
8.06142
8.0156
7.97136
7.93011
7.89201
7.86033
7.83523
7.82479
7.82983
7.86669
5.84246
5.83758
5.82674
5.81022
5.78803
5.76021
5.72669
5.6873
5.64178
5.58975
5.53075
5.46424
5.38966
5.30639
5.21381
5.11138
4.99861
4.87522
4.74111
4.59629
4.441
4.27598
4.10246
3.92217
3.73743
3.55127
3.36741
3.19031
3.02507
2.87736
2.75323
2.65889
2.60036
2.58323
2.61227
2.69109
2.82193
3.00554
3.24055
3.52489
3.85478
4.22494
4.62905
5.05999
5.51031
5.97244
6.43907
6.90336
7.3592
7.80127
8.22514
8.62735
9.00538
9.35744
9.68246
9.98003
10.2503
10.4939
10.7118
10.9047
11.074
11.2219
11.35
11.4596
11.5524
11.6298
11.6933
11.7443
11.784
11.8136
11.8344
11.8471
11.8528
11.8524
11.8464
11.8357
11.8208
11.8023
11.7807
11.7563
11.7296
11.7008
11.6704
11.6385
11.6053
11.5712
11.5362
11.5005
11.4642
11.4274
11.3903
11.3529
11.3153
11.2775
11.2396
11.2016
11.1636
11.1256
11.0876
11.0496
11.0117
10.9738
10.9359
10.8981
10.8603
10.8226
10.785
10.7474
10.7098
10.6722
10.6346
10.5971
10.5595
10.5219
10.4842
10.4465
10.4088
10.3709
10.333
10.295
10.2568
10.2186
10.1802
10.1417
10.103
10.0642
10.0253
9.98616
9.94687
9.9074
9.86773
9.82784
9.78773
9.74739
9.70681
9.66598
9.62489
9.58353
9.54189
9.49997
9.45776
9.41524
9.37243
9.3293
9.28587
9.24212
9.19807
9.15369
9.109
9.06398
9.01865
8.97299
8.92701
8.88071
8.83408
8.78715
8.73989
8.69234
8.64448
8.59634
8.54794
8.4993
8.45044
8.40141
8.35227
8.30308
8.25392
8.20493
8.15625
8.10813
8.06078
8.01469
7.97025
7.9284
7.88993
7.85662
7.83061
7.81423
7.81255
7.81651
5.85713
5.85223
5.84086
5.8235
5.80007
5.77058
5.7349
5.69283
5.64408
5.58828
5.52495
5.45356
5.37352
5.28423
5.18509
5.07554
4.95508
4.82335
4.68014
4.52547
4.35961
4.1832
3.99736
3.80382
3.605
3.40402
3.20476
3.01188
2.83081
2.6676
2.52878
2.42105
2.35099
2.32463
2.34707
2.42232
2.55304
2.74098
2.98476
3.28118
3.62557
4.01196
4.43341
4.88226
5.3505
5.83012
6.3134
6.79323
7.26325
7.71804
8.15314
8.5651
8.95148
9.31061
9.64153
9.94402
10.2184
10.4653
10.6859
10.881
11.0524
11.2019
11.3312
11.442
11.5358
11.6141
11.6785
11.7302
11.7707
11.801
11.8224
11.8358
11.8421
11.8422
11.8369
11.8267
11.8123
11.7943
11.7731
11.7491
11.7228
11.6945
11.6644
11.6329
11.6001
11.5663
11.5316
11.4962
11.4602
11.4237
11.3868
11.3496
11.3122
11.2747
11.237
11.1992
11.1614
11.1235
11.0857
11.0478
11.01
10.9722
10.9345
10.8968
10.8591
10.8215
10.784
10.7464
10.7089
10.6714
10.6339
10.5964
10.5589
10.5213
10.4837
10.4461
10.4084
10.3706
10.3327
10.2947
10.2566
10.2183
10.18
10.1415
10.1029
10.0641
10.0252
9.98606
9.94679
9.90733
9.86767
9.82779
9.78769
9.74736
9.70678
9.66596
9.62487
9.58352
9.54188
9.49996
9.45775
9.41524
9.37242
9.32929
9.28586
9.24212
9.19806
9.15368
9.10899
9.06397
9.01864
8.97298
8.92699
8.88069
8.83406
8.78711
8.73985
8.69229
8.64442
8.59627
8.54785
8.49918
8.45029
8.40122
8.35203
8.30277
8.25353
8.20443
8.15562
8.10729
8.0597
8.0132
7.96832
7.92557
7.88611
7.85053
7.82143
7.79786
7.78503
7.76732
5.85649
5.85141
5.83951
5.8214
5.7969
5.76598
5.72845
5.68408
5.63251
5.57329
5.50589
5.42977
5.34428
5.24878
5.14258
5.02498
4.89536
4.75319
4.59813
4.43003
4.24904
4.05571
3.85105
3.6367
3.41506
3.18936
2.96376
2.74342
2.53441
2.34364
2.17866
2.0473
1.95725
1.91562
1.92838
2.00009
2.13347
2.32954
2.58666
2.90124
3.26783
3.67947
4.12815
4.60517
5.10164
5.60877
6.11822
6.62237
7.11456
7.58919
8.04177
8.4689
8.86826
9.23831
9.57837
9.88843
10.169
10.4212
10.646
10.8444
11.0188
11.1708
11.3023
11.4149
11.5104
11.5902
11.6559
11.7089
11.7506
11.7821
11.8045
11.8189
11.8262
11.8273
11.8228
11.8135
11.7999
11.7826
11.7622
11.7389
11.7133
11.6856
11.6561
11.6251
11.5928
11.5595
11.5253
11.4903
11.4547
11.4186
11.3821
11.3452
11.3081
11.2709
11.2334
11.1959
11.1583
11.1207
11.083
11.0454
11.0078
10.9702
10.9326
10.895
10.8575
10.82
10.7826
10.7452
10.7078
10.6704
10.6329
10.5955
10.5581
10.5206
10.483
10.4454
10.4078
10.37
10.3322
10.2942
10.2562
10.218
10.1797
10.1412
10.1026
10.0639
10.025
9.98589
9.94664
9.9072
9.86755
9.82769
9.7876
9.74728
9.70671
9.6659
9.62482
9.58347
9.54184
9.49992
9.45771
9.4152
9.37238
9.32926
9.28583
9.24208
9.19802
9.15365
9.10895
9.06394
9.0186
8.97294
8.92695
8.88064
8.83401
8.78706
8.73979
8.69221
8.64432
8.59615
8.5477
8.499
8.45007
8.40095
8.35169
8.30234
8.253
8.20375
8.15475
8.10616
8.05825
8.01126
7.96575
7.922
7.88114
7.84322
7.8104
7.78062
7.75719
7.72459
5.83858
5.8334
5.82132
5.80298
5.77806
5.74644
5.70783
5.6619
5.60821
5.54622
5.47533
5.39485
5.304
5.20195
5.08787
4.9609
4.82024
4.66514
4.49497
4.3093
4.10796
3.89121
3.65984
3.41537
3.1602
2.89779
2.63271
2.37082
2.11919
1.88606
1.68053
1.51222
1.39063
1.32451
1.32108
1.38568
1.52147
1.72953
2.00758
2.35065
2.75159
3.20166
3.69115
4.20994
4.74788
5.29515
5.84258
6.38192
6.90604
7.40912
7.88661
8.33527
8.75295
9.13843
9.49134
9.81202
10.1014
10.3607
10.5915
10.7943
10.9727
11.1283
11.2627
11.3779
11.4756
11.5574
11.625
11.6798
11.7231
11.7561
11.7801
11.7959
11.8045
11.8069
11.8036
11.7955
11.783
11.7668
11.7473
11.725
11.7003
11.6734
11.6448
11.6145
11.583
11.5503
11.5167
11.4824
11.4473
11.4117
11.3757
11.3393
11.3027
11.2658
11.2287
11.1916
11.1543
11.117
11.0796
11.0423
11.0049
10.9675
10.9301
10.8928
10.8555
10.8181
10.7809
10.7436
10.7063
10.669
10.6317
10.5944
10.557
10.5196
10.4822
10.4447
10.4071
10.3694
10.3316
10.2937
10.2557
10.2176
10.1793
10.1409
10.1023
10.0636
10.0248
9.98571
9.94649
9.90707
9.86744
9.82759
9.78752
9.74722
9.70666
9.66586
9.62478
9.58344
9.54182
9.4999
9.45769
9.41518
9.37237
9.32924
9.28581
9.24207
9.19801
9.15363
9.10894
9.06392
9.01858
8.97292
8.92693
8.88061
8.83397
8.78701
8.73972
8.69213
8.64422
8.59603
8.54755
8.4988
8.44982
8.40064
8.3513
8.30184
8.25237
8.20294
8.15372
8.10481
8.0565
8.00895
7.96266
7.9178
7.87528
7.83491
7.79815
7.76267
7.72974
7.68672
5.81222
5.80686
5.7946
5.77608
5.75085
5.71869
5.67919
5.63186
5.57612
5.51131
5.4367
5.35144
5.2546
5.14518
5.02211
4.88425
4.7304
4.5594
4.37015
4.16173
3.93352
3.68535
3.41769
3.13181
2.83006
2.51603
2.1948
1.87318
1.55968
1.26451
0.999182
0.776024
0.607339
0.504533
0.477102
0.531999
0.672925
0.900978
1.21168
1.59746
2.04858
2.55384
3.10128
3.67881
4.27461
4.87754
5.47734
6.06495
6.63262
7.17419
7.68512
8.16242
8.60431
9.01001
9.37968
9.71421
10.015
10.2836
10.5215
10.7308
10.9144
11.0743
11.2125
11.331
11.4316
11.5161
11.5861
11.6431
11.6886
11.7236
11.7495
11.7671
11.7775
11.7814
11.7797
11.7731
11.762
11.7472
11.729
11.7079
11.6843
11.6585
11.6308
11.6016
11.5709
11.5391
11.5063
11.4727
11.4383
11.4034
11.368
11.3322
11.2961
11.2597
11.2231
11.1864
11.1495
11.1125
11.0755
11.0385
11.0014
10.9643
10.9272
10.8901
10.853
10.8159
10.7788
10.7417
10.7045
10.6674
10.6302
10.5931
10.5558
10.5185
10.4812
10.4437
10.4062
10.3686
10.3309
10.2931
10.2551
10.2171
10.1788
10.1405
10.102
10.0633
10.0245
9.98548
9.94629
9.90689
9.86729
9.82747
9.78742
9.74713
9.70659
9.66579
9.62473
9.5834
9.54178
9.49987
9.45766
9.41515
9.37234
9.32922
9.28579
9.24204
9.19799
9.15361
9.10892
9.0639
9.01855
8.97289
8.92689
8.88057
8.83392
8.78694
8.73965
8.69203
8.64411
8.59588
8.54736
8.49857
8.44953
8.40027
8.35083
8.30126
8.25162
8.20199
8.1525
8.10324
8.05446
8.00628
7.9591
7.91303
7.86871
7.82585
7.78518
7.74453
7.70365
7.65313
5.78594
5.78031
5.76767
5.74869
5.72278
5.68964
5.64873
5.59949
5.54121
5.47312
5.39428
5.30366
5.20007
5.08224
4.94873
4.79797
4.62827
4.43787
4.22499
3.98802
3.72561
3.43691
3.12174
2.78082
2.41616
2.03147
1.63251
1.22737
0.826552
0.44295
0.091522
-0.211426
-0.449179
-0.605613
-0.666655
-0.622729
-0.470413
-0.213846
0.141933
0.587638
1.11012
1.69396
2.32326
2.98284
3.6586
4.33785
5.00911
5.66219
6.28846
6.88132
7.43628
7.95064
8.42323
8.85411
9.24436
9.5957
9.91019
10.1902
10.436
10.6534
10.8435
11.0088
11.1516
11.2741
11.3783
11.4661
11.5391
11.5989
11.6469
11.6844
11.7126
11.7325
11.7449
11.7509
11.7511
11.7463
11.737
11.7237
11.7071
11.6874
11.6652
11.6407
11.6143
11.5862
11.5566
11.5258
11.4939
11.4612
11.4277
11.3935
11.3589
11.3237
11.2882
11.2525
11.2164
11.1802
11.1438
11.1073
11.0707
11.034
10.9973
10.9605
10.9237
10.8869
10.8501
10.8132
10.7763
10.7394
10.7025
10.6656
10.6286
10.5915
10.5544
10.5172
10.48
10.4427
10.4053
10.3678
10.3301
10.2924
10.2545
10.2165
10.1783
10.14
10.1016
10.063
10.0242
9.98523
9.94607
9.90671
9.86714
9.82734
9.78731
9.74704
9.70652
9.66574
9.62469
9.58336
9.54174
9.49984
9.45763
9.41513
9.37231
9.3292
9.28577
9.24203
9.19797
9.15359
9.1089
9.06388
9.01853
8.97286
8.92686
8.88053
8.83387
8.78688
8.73957
8.69193
8.64398
8.59572
8.54716
8.49831
8.4492
8.39986
8.35031
8.3006
8.25078
8.20092
8.15113
8.10149
8.05218
8.00332
7.95518
7.90783
7.86164
7.81629
7.77194
7.72666
7.67925
7.62298
5.76632
5.76022
5.74685
5.72702
5.69996
5.66531
5.62244
5.57071
5.50932
5.43728
5.35349
5.25665
5.14533
5.01787
4.87237
4.70665
4.51834
4.30484
4.06347
3.79162
3.48687
3.1472
2.77123
2.35868
1.91093
1.43171
0.927509
0.407957
-0.114018
-0.621965
-1.09592
-1.51279
-1.84839
-2.08068
-2.19101
-2.16692
-2.00426
-1.70772
-1.28259
-0.745517
-0.118615
0.575152
1.31489
2.08275
2.86367
3.64422
4.41156
5.1535
5.85947
6.52183
7.13587
7.69917
8.21152
8.67411
9.08938
9.46012
9.78936
10.081
10.3377
10.5633
10.7605
10.932
11.0802
11.2074
11.3158
11.4074
11.484
11.5471
11.5983
11.6388
11.6697
11.6922
11.7072
11.7155
11.718
11.7153
11.708
11.6966
11.6818
11.6638
11.6432
11.6202
11.5952
11.5684
11.5401
11.5105
11.4798
11.448
11.4155
11.3823
11.3484
11.3141
11.2793
11.2442
11.2088
11.1732
11.1374
11.1014
11.0652
11.029
10.9927
10.9563
10.9198
10.8833
10.8468
10.8102
10.7736
10.7369
10.7002
10.6634
10.6266
10.5898
10.5528
10.5158
10.4787
10.4415
10.4042
10.3668
10.3292
10.2916
10.2538
10.2159
10.1778
10.1395
10.1012
10.0626
10.0239
9.98495
9.94583
9.9065
9.86696
9.82719
9.78719
9.74694
9.70643
9.66567
9.62463
9.58331
9.5417
9.4998
9.4576
9.4151
9.37229
9.32917
9.28575
9.24201
9.19795
9.15358
9.10888
9.06386
9.01851
8.97283
8.92683
8.88049
8.83382
8.78681
8.73948
8.69182
8.64384
8.59554
8.54693
8.49803
8.44885
8.39941
8.34974
8.29987
8.24986
8.19975
8.14964
8.09958
8.04971
8.00011
7.95097
7.9023
7.85425
7.80648
7.75872
7.70932
7.65659
7.59565
5.7594
5.75255
5.738
5.71688
5.68822
5.65163
5.60643
5.55187
5.48697
5.41059
5.32137
5.21779
5.09803
4.95994
4.801
4.61832
4.40867
4.16849
3.89394
3.58099
3.22547
2.82332
2.37109
1.86682
1.31115
0.708188
0.0659996
-0.603279
-1.28332
-1.95326
-2.58655
-3.15089
-3.61245
-3.94066
-4.11254
-4.11168
-3.93678
-3.56754
-3.03085
-2.36079
-1.59361
-0.761937
0.109406
1.00042
1.89649
2.78747
3.66366
4.5133
5.32215
6.07752
6.77124
7.40033
7.96558
8.46996
8.91726
9.31206
9.657
9.96173
10.2289
10.4629
10.6671
10.8448
10.9986
11.1311
11.2443
11.3403
11.421
11.4881
11.5428
11.5867
11.6209
11.6465
11.6644
11.6754
11.6805
11.6802
11.6752
11.666
11.6532
11.6372
11.6184
11.5972
11.5738
11.5485
11.5216
11.4933
11.4638
11.4333
11.4018
11.3696
11.3367
11.3033
11.2693
11.235
11.2003
11.1653
11.1301
11.0947
11.0591
11.0234
10.9875
10.9515
10.9155
10.8793
10.8431
10.8069
10.7705
10.7341
10.6976
10.6611
10.6245
10.5878
10.551
10.5142
10.4772
10.4402
10.403
10.3657
10.3283
10.2907
10.253
10.2151
10.1772
10.139
10.1007
10.0622
10.0235
9.98463
9.94556
9.90627
9.86677
9.82703
9.78705
9.74683
9.70635
9.66559
9.62457
9.58326
9.54166
9.49976
9.45757
9.41507
9.37226
9.32915
9.28573
9.24199
9.19793
9.15356
9.10886
9.06384
9.01849
8.97281
8.92679
8.88045
8.83376
8.78675
8.73939
8.69171
8.64369
8.59535
8.5467
8.49773
8.44847
8.39892
8.34913
8.2991
8.24888
8.1985
8.14804
8.09754
8.04708
7.99672
7.94656
7.89656
7.8467
7.79661
7.74577
7.69271
7.6356
7.5708
5.77132
5.76335
5.74705
5.72417
5.69339
5.65441
5.60646
5.54869
5.47995
5.39889
5.30397
5.19334
5.06474
4.91542
4.74218
4.54141
4.30897
4.04006
3.72904
3.3694
2.95391
2.47554
1.92872
1.31072
0.623017
-0.128219
-0.932317
-1.77383
-2.63256
-3.48596
-4.3059
-5.05433
-5.684
-6.14321
-6.38848
-6.38965
-6.15511
-5.66678
-4.96617
-4.10421
-3.13602
-2.11625
-1.09069
-0.0872757
0.888946
1.85202
2.80984
3.75683
4.67398
5.53871
6.33229
7.04595
7.67934
8.23693
8.72453
9.1476
9.51639
9.83692
10.1152
10.3569
10.5671
10.75
10.9088
11.0461
11.1643
11.2652
11.3505
11.4219
11.4808
11.5286
11.5665
11.5955
11.6167
11.6309
11.6388
11.6413
11.6389
11.6321
11.6216
11.6078
11.591
11.5717
11.5501
11.5265
11.5012
11.4744
11.4463
11.417
11.3868
11.3557
11.3238
11.2914
11.2584
11.2249
11.191
11.1567
11.1222
11.0874
11.0524
11.0172
10.9818
10.9463
10.9107
10.875
10.8391
10.8032
10.7672
10.731
10.6948
10.6586
10.6222
10.5857
10.5491
10.5124
10.4756
10.4387
10.4017
10.3645
10.3272
10.2897
10.2521
10.2144
10.1765
10.1384
10.1002
10.0617
10.0231
9.98429
9.94527
9.90603
9.86656
9.82686
9.78691
9.74671
9.70625
9.66551
9.6245
9.5832
9.54161
9.49972
9.45753
9.41503
9.37223
9.32913
9.28571
9.24197
9.19792
9.15355
9.10885
9.06383
9.01847
8.97279
8.92677
8.88041
8.83371
8.78668
8.7393
8.69159
8.64354
8.59516
8.54645
8.49741
8.44807
8.39842
8.34848
8.29828
8.24784
8.19719
8.14637
8.0954
8.04435
7.99322
7.94203
7.89071
7.83912
7.78684
7.73321
7.67693
7.61619
7.54814
5.80804
5.79838
5.7795
5.75432
5.72078
5.6789
5.62778
5.56645
5.49362
5.40779
5.30722
5.18972
5.05249
4.89223
4.70512
4.48674
4.23173
3.93338
3.58326
3.17128
2.68672
2.12032
1.46643
0.724755
-0.0987133
-0.993799
-1.9498
-2.95902
-4.01358
-5.09716
-6.18022
-7.21584
-8.13001
-8.8301
-9.22524
-9.25617
-8.93888
-8.29608
-7.35275
-6.18051
-4.87905
-3.54746
-2.26269
-1.06765
0.0209728
1.02535
1.99827
2.9771
3.96286
4.92591
5.82663
6.63916
7.35406
7.97437
8.50755
8.96769
9.3641
9.70488
9.99733
10.2484
10.4645
10.6514
10.8137
10.9549
11.0773
11.1828
11.2729
11.349
11.4126
11.4648
11.5068
11.5397
11.5645
11.5821
11.5933
11.5988
11.5992
11.5952
11.5872
11.5757
11.5612
11.5439
11.5243
11.5025
11.4789
11.4538
11.4272
11.3993
11.3704
11.3405
11.3099
11.2785
11.2464
11.2139
11.1808
11.1474
11.1136
11.0795
11.0451
11.0105
10.9757
10.9407
10.9055
10.8702
10.8348
10.7992
10.7635
10.7277
10.6918
10.6558
10.6197
10.5834
10.547
10.5105
10.4739
10.4372
10.4003
10.3632
10.326
10.2887
10.2512
10.2136
10.1757
10.1378
10.0996
10.0612
10.0227
9.98393
9.94495
9.90576
9.86633
9.82667
9.78675
9.74658
9.70614
9.66543
9.62443
9.58314
9.54155
9.49967
9.45749
9.415
9.37221
9.3291
9.28569
9.24196
9.19791
9.15354
9.10884
9.06382
9.01846
8.97277
8.92674
8.88037
8.83366
8.78661
8.73922
8.69148
8.64339
8.59496
8.54619
8.49709
8.44765
8.39789
8.34781
8.29744
8.24677
8.19583
8.14464
8.09321
8.04155
7.98964
7.93746
7.88486
7.83162
7.7773
7.72118
7.66206
7.59826
7.52747
5.87391
5.86183
5.83977
5.81109
5.7741
5.72897
5.67436
5.60945
5.53273
5.44261
5.33711
5.21367
5.069
4.89927
4.70004
4.4659
4.18991
3.86299
3.4735
3.00793
2.45353
1.80178
1.04981
0.202278
-0.732807
-1.75232
-2.86278
-4.07868
-5.41519
-6.87472
-8.42473
-9.98196
-11.4128
-12.5552
-13.2642
-13.4461
-13.0701
-12.1688
-10.8149
-9.13424
-7.28686
-5.43011
-3.67908
-2.10464
-0.752277
0.374435
1.35658
2.30553
3.28453
4.298
5.28937
6.19953
7.00084
7.68853
8.27463
8.77399
9.1999
9.56328
9.87283
10.1361
10.3601
10.5517
10.7169
10.8604
10.9857
11.0948
11.1893
11.2702
11.3386
11.3956
11.4421
11.4793
11.5081
11.5295
11.5442
11.553
11.5565
11.5554
11.5501
11.5412
11.5291
11.5141
11.4965
11.4768
11.4551
11.4316
11.4067
11.3803
11.3528
11.3243
11.2949
11.2646
11.2337
11.2021
11.17
11.1374
11.1044
11.071
11.0373
11.0034
10.9691
10.9347
10.9
10.8652
10.8301
10.795
10.7596
10.7242
10.6886
10.6528
10.617
10.5809
10.5448
10.5085
10.4721
10.4355
10.3988
10.3619
10.3248
10.2876
10.2502
10.2127
10.175
10.1371
10.099
10.0607
10.0222
9.98354
9.94462
9.90548
9.86609
9.82647
9.78659
9.74644
9.70603
9.66533
9.62435
9.58307
9.5415
9.49962
9.45745
9.41497
9.37218
9.32908
9.28567
9.24195
9.1979
9.15353
9.10883
9.06381
9.01845
8.97275
8.92672
8.88034
8.83362
8.78655
8.73913
8.69136
8.64324
8.59477
8.54594
8.49676
8.44723
8.39736
8.34714
8.29658
8.24568
8.19445
8.14289
8.09099
8.03873
7.98606
7.9329
7.87907
7.8243
7.7681
7.70974
7.64812
7.58172
7.50861
5.97089
5.95603
5.9291
5.89573
5.8547
5.80574
5.74778
5.6797
5.59996
5.50684
5.39784
5.27003
5.12041
4.94414
4.73613
4.49004
4.19723
3.84644
3.42375
2.91304
2.30085
1.58018
0.751079
-0.181612
-1.21534
-2.36287
-3.6616
-5.16025
-6.89456
-8.87383
-11.041
-13.257
-15.3098
-16.9552
-17.9966
-18.3205
-17.8644
-16.6749
-14.8637
-12.6114
-10.1329
-7.65548
-5.34903
-3.2916
-1.54495
-0.164256
0.896172
1.80151
2.72513
3.72841
4.77475
5.76178
6.64241
7.39813
8.03657
8.57431
9.02861
9.41376
9.74063
10.0176
10.252
10.4504
10.6195
10.7653
10.8923
11.0038
11.1016
11.1867
11.2599
11.3217
11.3731
11.4149
11.448
11.4734
11.4919
11.5042
11.5111
11.5131
11.5107
11.5045
11.495
11.4824
11.4671
11.4495
11.4297
11.4081
11.3849
11.3602
11.3342
11.3071
11.279
11.2499
11.2201
11.1896
11.1585
11.1268
11.0946
11.0621
11.0291
10.9958
10.9622
10.9283
10.8941
10.8598
10.8252
10.7905
10.7555
10.7204
10.6851
10.6497
10.6141
10.5784
10.5424
10.5064
10.4701
10.4337
10.3972
10.3604
10.3235
10.2864
10.2492
10.2118
10.1742
10.1364
10.0984
10.0602
10.0218
9.98313
9.94427
9.90518
9.86584
9.82626
9.78641
9.7463
9.7059
9.66523
9.62426
9.58299
9.54143
9.49957
9.4574
9.41493
9.37215
9.32906
9.28566
9.24194
9.19789
9.15353
9.10883
9.06381
9.01845
8.97275
8.9267
8.88032
8.83358
8.78649
8.73905
8.69125
8.64309
8.59457
8.54569
8.49643
8.44681
8.39682
8.34646
8.29571
8.24459
8.19307
8.14114
8.08877
8.03592
7.98252
7.92842
7.87343
7.81722
7.75931
7.69895
7.63513
7.56649
7.49139
6.09704
6.07932
6.04565
6.00645
5.9606
5.9077
5.84665
5.77621
5.69476
5.60035
5.49034
5.36147
5.20994
5.0311
4.81931
4.56731
4.26505
3.89948
3.45501
2.9147
2.26445
1.49726
0.612827
-0.387122
-1.50956
-2.78439
-4.27373
-6.05161
-8.15842
-10.5968
-13.2737
-15.9982
-18.5098
-20.5172
-21.774
-22.1653
-21.6405
-20.2416
-18.0889
-15.3998
-12.4249
-9.45629
-6.74749
-4.351
-2.27449
-0.624245
0.553375
1.45269
2.31771
3.27303
4.32585
5.36623
6.31201
7.12656
7.81061
8.38146
8.85948
9.26254
9.60399
9.89344
10.1384
10.3454
10.5207
10.6701
10.7992
10.9122
11.0121
11.1004
11.1775
11.244
11.3003
11.3469
11.3846
11.4143
11.4369
11.4529
11.4633
11.4685
11.4692
11.4659
11.4591
11.449
11.4361
11.4207
11.4031
11.3834
11.362
11.339
11.3147
11.289
11.2623
11.2345
11.2059
11.1765
11.1464
11.1157
11.0844
11.0526
11.0204
10.9878
10.9548
10.9216
10.888
10.8541
10.82
10.7857
10.7512
10.7165
10.6815
10.6464
10.6111
10.5756
10.54
10.5041
10.4681
10.4319
10.3955
10.3589
10.3222
10.2852
10.2481
10.2108
10.1733
10.1356
10.0977
10.0596
10.0213
9.9827
9.9439
9.90487
9.86558
9.82603
9.78622
9.74614
9.70577
9.66511
9.62416
9.58291
9.54136
9.49951
9.45735
9.41489
9.37212
9.32904
9.28564
9.24193
9.19789
9.15353
9.10884
9.06381
9.01845
8.97274
8.92669
8.8803
8.83355
8.78644
8.73898
8.69115
8.64295
8.59439
8.54544
8.49611
8.4464
8.39629
8.34578
8.29486
8.2435
8.1917
8.13941
8.08659
8.03317
7.97905
7.92407
7.868
7.81047
7.75099
7.68885
7.6231
7.55252
7.47569
6.2445
6.22478
6.18328
6.13732
6.08631
6.02977
5.96656
5.89524
5.81403
5.72075
5.61258
5.48601
5.3369
5.16044
4.95086
4.70042
4.39834
4.03041
3.57977
3.02913
2.3647
1.57882
0.669167
-0.365901
-1.54045
-2.89279
-4.4905
-6.41508
-8.71358
-11.3837
-14.3147
-17.2896
-20.0245
-22.2154
-23.6062
-24.0587
-23.4875
-21.9602
-19.6124
-16.6961
-13.4916
-10.2975
-7.40898
-4.91542
-2.75596
-0.967243
0.329495
1.23729
2.04804
2.94489
3.98192
5.05173
6.04188
6.89771
7.61428
8.20943
8.7045
9.11955
9.47048
9.76852
10.0218
10.2367
10.419
10.574
10.7068
10.8219
10.9234
11.0135
11.0936
11.164
11.2247
11.2761
11.3185
11.3527
11.3794
11.3994
11.4134
11.4221
11.426
11.4257
11.4216
11.4142
11.4038
11.3907
11.3753
11.3577
11.3382
11.317
11.2943
11.2702
11.2449
11.2185
11.1911
11.1628
11.1338
11.1041
11.0737
11.0428
11.0114
10.9795
10.9472
10.9146
10.8816
10.8483
10.8147
10.7808
10.7467
10.7123
10.6778
10.643
10.608
10.5728
10.5374
10.5018
10.466
10.43
10.3938
10.3574
10.3208
10.284
10.247
10.2098
10.1724
10.1348
10.097
10.059
10.0207
9.98226
9.94352
9.90454
9.8653
9.8258
9.78603
9.74597
9.70563
9.66499
9.62406
9.58282
9.54129
9.49945
9.45731
9.41486
9.3721
9.32902
9.28564
9.24193
9.1979
9.15354
9.10885
9.06382
9.01846
8.97275
8.92669
8.88029
8.83352
8.7864
8.73891
8.69106
8.64282
8.59421
8.54521
8.49581
8.446
8.39578
8.34513
8.29403
8.24245
8.19036
8.13773
8.08447
8.03051
7.97572
7.91991
7.86282
7.80409
7.7432
7.67947
7.61202
7.53974
7.46142
6.39078
6.37679
6.33249
6.28118
6.22575
6.16695
6.10375
6.03438
5.95665
5.86805
5.76549
5.64525
5.50304
5.33409
5.1327
4.89132
4.59931
4.24243
3.80368
3.26573
2.61414
1.83997
0.940213
-0.0871342
-1.25534
-2.60006
-4.1825
-6.07499
-8.32669
-10.9326
-13.7848
-16.6745
-19.3273
-21.4547
-22.8191
-23.2767
-22.7355
-21.2547
-18.9843
-16.1696
-13.1013
-10.0391
-7.24045
-4.85335
-2.822
-1.09491
0.215295
1.1134
1.88027
2.73392
3.75445
4.83866
5.85254
6.72706
7.45642
8.06242
8.56687
8.98894
9.34505
9.64762
9.90553
10.1257
10.3137
10.4745
10.6122
10.7308
10.8343
10.9261
11.0082
11.0815
11.1461
11.2019
11.249
11.2878
11.3189
11.3429
11.3608
11.373
11.3803
11.3831
11.382
11.3774
11.3696
11.359
11.3458
11.3304
11.313
11.2937
11.2727
11.2503
11.2265
11.2015
11.1754
11.1484
11.1205
11.0918
11.0625
11.0324
11.0019
10.9707
10.9392
10.9072
10.8748
10.842
10.809
10.7756
10.7419
10.708
10.6738
10.6394
10.6047
10.5698
10.5347
10.4993
10.4637
10.4279
10.3919
10.3557
10.3193
10.2827
10.2458
10.2088
10.1715
10.134
10.0963
10.0584
10.0202
9.9818
9.94313
9.9042
9.86502
9.82556
9.78582
9.74579
9.70548
9.66486
9.62394
9.58273
9.54121
9.49939
9.45726
9.41482
9.37207
9.32901
9.28563
9.24193
9.19791
9.15355
9.10886
9.06384
9.01847
8.97276
8.9267
8.88029
8.83351
8.78637
8.73886
8.69098
8.64271
8.59405
8.54499
8.49552
8.44562
8.39529
8.3445
8.29322
8.24143
8.18908
8.13611
8.08244
8.02797
7.97254
7.91596
7.85794
7.79811
7.73596
7.67082
7.60188
7.52813
7.44849
6.49294
6.49718
6.46258
6.41143
6.35588
6.29914
6.241
6.17881
6.10954
6.0302
5.93752
5.82769
5.6965
5.53943
5.35129
5.12536
4.85224
4.51897
4.10958
3.60704
2.99623
2.26719
1.41662
0.444693
-0.654222
-1.9016
-3.33788
-5.01539
-6.97401
-9.20885
-11.6363
-14.0905
-16.3521
-18.1843
-19.3871
-19.8327
-19.4445
-18.2188
-16.3031
-13.9229
-11.337
-8.76284
-6.37784
-4.29415
-2.49833
-0.961955
0.229965
1.07419
1.81096
2.6512
3.66972
4.75534
5.76582
6.63069
7.34942
7.94897
8.45207
8.87561
9.23402
9.53902
9.79941
10.0222
10.2136
10.3784
10.5205
10.643
10.7493
10.8429
10.9265
11.0018
11.0692
11.1286
11.1798
11.2228
11.2581
11.2862
11.3078
11.3236
11.3342
11.3402
11.3421
11.3402
11.3351
11.327
11.3162
11.3029
11.2875
11.2701
11.2509
11.2301
11.2079
11.1844
11.1596
11.1339
11.1071
11.0795
11.0511
11.022
10.9922
10.9619
10.931
10.8997
10.8679
10.8358
10.8032
10.7703
10.7371
10.7036
10.6698
10.6357
10.6014
10.5668
10.5319
10.4968
10.4615
10.4259
10.3901
10.3541
10.3178
10.2814
10.2447
10.2078
10.1706
10.1332
10.0956
10.0578
10.0197
9.98134
9.94273
9.90386
9.86473
9.82531
9.7856
9.74561
9.70531
9.66472
9.62383
9.58263
9.54113
9.49932
9.45721
9.41478
9.37205
9.329
9.28563
9.24194
9.19792
9.15357
9.10889
9.06386
9.0185
8.97279
8.92672
8.88029
8.83351
8.78635
8.73882
8.69091
8.6426
8.5939
8.54478
8.49525
8.44527
8.39483
8.3439
8.29246
8.24047
8.18786
8.13457
8.08052
8.02556
7.96955
7.91226
7.8534
7.79258
7.7293
7.66293
7.59268
7.51764
7.43684
6.57048
6.59249
6.56196
6.5113
6.45738
6.40741
6.36053
6.31104
6.2545
6.18763
6.10713
6.00935
5.8904
5.74617
5.57214
5.36275
5.11038
4.80425
4.43048
3.97337
3.41797
2.75342
1.97527
1.08503
0.084434
-1.03267
-2.28486
-3.70147
-5.30703
-7.09769
-9.01988
-10.9606
-12.7644
-14.2533
-15.2633
-15.6812
-15.4447
-14.5351
-13.0672
-11.2306
-9.21769
-7.18201
-5.25819
-3.53598
-2.01869
-0.710618
0.318429
1.09433
1.8264
2.68967
3.72079
4.79062
5.76687
6.59491
7.28461
7.86578
8.36006
8.78052
9.13842
9.44447
9.70698
9.93215
10.1257
10.2932
10.4385
10.5646
10.6739
10.7695
10.8543
10.9308
10.9999
11.0618
11.1162
11.1628
11.2017