/*--------------------------------*- C++ -*----------------------------------*\
  =========                 |
  \\      /  F ield         | OpenFOAM: The Open Source CFD Toolbox
   \\    /   O peration     | Website:  https://openfoam.org
    \\  /    A nd           | Version:  7
     \\/     M anipulation  |
\*---------------------------------------------------------------------------*/
FoamFile
{
    version     2.0;
    format      ascii;
    class       volScalarField;
    location    "0.019";
    object      pMean;
}
// * * * * * * * * * * * * * * * * * * * * * * * * * * * * * * * * * * * * * //

dimensions      [0 2 -2 0 0 0 0];

internalField   nonuniform List<scalar> 
12225
(
1.64805
2.62128
3.00032
3.08009
3.08888
3.06764
3.02376
2.95998
2.88027
2.78759
2.68418
2.56599
2.43134
2.2613
2.05314
1.72993
1.29488
0.253652
1.97919
2.63396
2.99862
3.0865
3.09157
3.06849
3.02525
2.96293
2.88424
2.79258
2.68915
2.57305
2.43645
2.2751
2.05689
1.78675
1.33869
0.867399
2.15466
2.61821
2.97984
3.08976
3.09596
3.07247
3.03192
2.9733
2.89852
2.8096
2.70892
2.59328
2.46085
2.29798
2.09946
1.83404
1.50128
1.08442
2.34472
2.65599
2.98477
3.10588
3.11163
3.08489
3.04422
2.98832
2.91618
2.83006
2.73055
2.61823
2.4866
2.33378
2.14235
1.91459
1.62811
1.31452
2.5119
2.69618
2.98524
3.11527
3.12567
3.0973
3.05658
3.00305
2.93447
2.85137
2.7554
2.64608
2.52088
2.37473
2.20185
1.99935
1.76701
1.52864
2.67904
2.75648
2.99948
3.13169
3.14785
3.11828
3.07609
3.02408
2.95845
2.87878
2.78598
2.68081
2.56138
2.42543
2.26979
2.09458
1.90602
1.71797
2.83113
2.82524
3.0219
3.15006
3.17206
3.14243
3.09855
3.04697
2.98421
2.90835
2.82014
2.72032
2.60847
2.48361
2.34532
2.19574
2.04157
1.894
2.97206
2.90671
3.05844
3.17626
3.20198
3.17337
3.12827
3.07702
3.01686
2.9448
2.86096
2.76686
2.66333
2.55042
2.42914
2.30216
2.17595
2.05898
3.09803
2.99182
3.10401
3.20787
3.23487
3.20827
3.16277
3.11135
3.05311
2.98516
2.90694
2.81958
2.72464
2.62344
2.51789
2.41083
2.30765
2.21445
3.22387
3.08453
3.16271
3.2498
3.27468
3.24977
3.20455
3.15336
3.09707
3.03278
2.95984
2.87959
2.79385
2.70436
2.6133
2.52344
2.43895
2.36421
3.33536
3.17901
3.23018
3.30019
3.32053
3.29653
3.25208
3.2012
3.14648
3.08601
3.01874
2.9455
2.86849
2.78984
2.71181
2.63674
2.56783
2.50804
3.43908
3.26868
3.29932
3.35449
3.36937
3.34522
3.3016
3.25152
3.1983
3.14103
3.07871
3.01218
2.94325
2.87396
2.80655
2.74305
2.68588
2.63706
3.55237
3.36393
3.37574
3.41696
3.4252
3.39962
3.35641
3.30712
3.25572
3.2015
3.14378
3.0831
3.02132
2.96049
2.90257
2.84911
2.80198
2.76254
3.67933
3.47569
3.46996
3.49703
3.49741
3.46932
3.42632
3.37802
3.32808
3.27687
3.22412
3.17026
3.11658
3.06464
3.01612
2.97236
2.93474
2.90402
3.79976
3.59975
3.58586
3.5996
3.59038
3.55811
3.51447
3.46738
3.41999
3.37248
3.32463
3.27697
3.2308
3.18748
3.14824
3.11386
3.08521
3.06268
3.98548
3.76581
3.73255
3.73241
3.71327
3.67518
3.6292
3.58196
3.53592
3.4915
3.44863
3.40754
3.36892
3.33363
3.30265
3.27651
3.25572
3.24035
4.18004
3.94965
3.90686
3.89649
3.86802
3.82318
3.77356
3.72526
3.67997
3.63762
3.59808
3.56163
3.52884
3.50027
3.4764
3.45737
3.44343
3.43441
4.38862
4.16705
4.12084
4.0999
4.05948
4.00547
3.95033
3.89969
3.85459
3.81438
3.77836
3.74631
3.71855
3.69538
3.67701
3.66333
3.65441
3.65003
4.68733
4.45246
4.39346
4.3584
4.30371
4.23656
4.17064
4.11195
4.06132
4.01775
3.98032
3.94864
3.92269
3.90238
3.88757
3.87784
3.87287
3.87213
4.98063
4.74289
4.66637
4.60793
4.53227
4.44958
4.37381
4.30949
4.25524
4.20856
4.16822
4.13408
4.10641
4.08508
4.06975
4.05986
4.055
4.0546
5.23392
4.98466
4.88852
4.80488
4.70523
4.60261
4.51123
4.43517
4.37295
4.32161
4.27915
4.24469
4.21769
4.19753
4.18356
4.17501
4.17141
4.17212
5.49806
5.23087
5.10152
4.98437
4.86271
4.74981
4.65326
4.57128
4.50068
4.4403
4.39027
4.35039
4.31977
4.29713
4.28139
4.27157
4.26702
4.26699
5.78489
5.47379
5.2861
5.11812
4.96165
4.82814
4.72036
4.63306
4.56077
4.50053
4.4512
4.41208
4.38221
4.36031
4.3452
4.33596
4.33197
4.33252
6.09192
5.71908
5.46633
5.25977
5.09003
4.95174
4.8345
4.73145
4.64335
4.57194
4.51642
4.47406
4.44203
4.41837
4.40192
4.39177
4.38717
4.38724
6.38061
5.92144
5.56562
5.30263
5.11739
4.97933
4.8632
4.76106
4.67388
4.60366
4.54928
4.50772
4.47619
4.45291
4.43687
4.4272
4.42315
4.42379
6.7543
6.17062
5.71388
5.41351
5.22116
5.07066
4.93402
4.81385
4.71675
4.64238
4.58596
4.54278
4.50992
4.48576
4.46926
4.4594
4.45524
4.4558
7.07548
6.27015
5.70679
5.40714
5.23646
5.09102
4.951
4.82824
4.73156
4.65862
4.60313
4.56029
4.52764
4.50383
4.48783
4.47852
4.47492
4.47602
7.58979
6.48844
5.7843
5.47179
5.29678
5.13342
4.97944
4.85093
4.75228
4.67816
4.62162
4.57802
4.54498
4.5211
4.50522
4.49619
4.49287
4.49425
7.83972
6.4595
5.75191
5.48513
5.31253
5.142
4.98504
4.8572
4.75959
4.68591
4.62953
4.58616
4.55347
4.53007
4.51467
4.50616
4.50334
4.50539
8.61443
6.50488
5.75418
5.51821
5.33424
5.15345
4.9936
4.86544
4.76757
4.69344
4.63672
4.59319
4.56045
4.53706
4.52172
4.51334
4.51071
4.51316
3.7945
3.79516
3.79607
3.79762
3.79975
3.8026
3.80622
3.8107
3.81615
3.82266
3.83035
3.83938
3.84991
3.86216
3.87635
3.89277
3.91176
3.93369
3.95899
3.98816
4.02171
4.06023
4.10435
4.15468
4.2119
4.27663
4.3495
4.43106
4.52176
4.62197
4.73184
4.85138
4.98039
5.11842
5.26484
5.41875
5.57907
5.74449
5.91351
6.08453
6.25593
6.42609
6.59346
6.75658
6.91415
7.06503
7.20828
7.34316
7.46911
7.58582
7.69309
7.79091
7.87942
7.95886
8.02955
8.0919
8.14638
8.19345
8.23364
8.26746
8.29544
8.31809
8.33586
8.34921
8.35857
8.36434
8.36689
8.36656
8.36367
8.35852
8.35135
8.34242
8.33193
8.32008
8.30705
8.29298
8.27801
8.26228
8.24589
8.22893
8.21149
8.19365
8.17546
8.157
8.1383
8.11941
8.10036
8.0812
8.06194
8.0426
8.02322
8.00379
7.98434
7.96488
7.9454
7.92593
7.90645
7.88698
7.86752
7.84805
7.82859
7.80914
7.78968
7.77022
7.75075
7.73127
7.71178
7.69226
7.67271
7.65313
7.63352
7.61386
7.59415
7.57439
7.55458
7.5347
7.51475
7.49474
7.47465
7.45447
7.43421
7.41386
7.39342
7.37288
7.35224
7.33149
7.31062
7.28965
7.26855
7.24733
7.22598
7.2045
7.18289
7.16114
7.13925
7.11721
7.09502
7.07268
7.05019
7.02755
7.00474
6.98177
6.95864
6.93535
6.91188
6.88825
6.86444
6.84046
6.81631
6.79199
6.76749
6.74282
6.71798
6.69296
6.66778
6.64243
6.61692
6.59126
6.56546
6.53952
6.51347
6.48734
6.46114
6.43491
6.40871
6.38261
6.35668
6.33105
6.30585
6.28134
6.2577
6.2355
6.21498
6.19749
6.18332
6.17597
6.17583
6.19374
6.23074
6.32272
3.78097
3.78155
3.78212
3.78313
3.78457
3.78655
3.78917
3.79254
3.79677
3.80198
3.80831
3.81591
3.82499
3.83576
3.84845
3.86338
3.88087
3.90132
3.92517
3.95292
3.9851
4.02231
4.06521
4.11447
4.17077
4.2348
4.30721
4.38859
4.47944
4.58012
4.69083
4.81157
4.94211
5.08198
5.23048
5.38664
5.54927
5.717
5.88832
6.06164
6.23529
6.40762
6.57705
6.74209
6.90142
7.05387
7.19852
7.33462
7.46162
7.57922
7.68724
7.78569
7.87471
7.95457
8.02561
8.08825
8.14296
8.19023
8.23059
8.26455
8.29267
8.31544
8.33332
8.34677
8.35622
8.36208
8.36471
8.36447
8.36166
8.35658
8.34949
8.34063
8.33021
8.31843
8.30547
8.29146
8.27656
8.26089
8.24456
8.22766
8.21027
8.19248
8.17435
8.15594
8.13729
8.11844
8.09945
8.08033
8.06111
8.04181
8.02247
8.00308
7.98366
7.96423
7.94478
7.92534
7.90589
7.88644
7.867
7.84756
7.82812
7.80868
7.78924
7.7698
7.75035
7.73088
7.7114
7.6919
7.67237
7.65281
7.63321
7.61356
7.59388
7.57413
7.55433
7.53447
7.51454
7.49453
7.47445
7.45429
7.43404
7.4137
7.39326
7.37273
7.35209
7.33135
7.31049
7.28952
7.26842
7.24721
7.22586
7.20439
7.18278
7.16103
7.13914
7.1171
7.09492
7.07258
7.0501
7.02745
7.00465
6.98168
6.95855
6.93525
6.91179
6.88815
6.86435
6.84037
6.81622
6.7919
6.7674
6.74273
6.71788
6.69287
6.66768
6.64233
6.61682
6.59115
6.56534
6.5394
6.51335
6.4872
6.46098
6.43474
6.40852
6.38239
6.35642
6.33074
6.30548
6.28087
6.25713
6.2347
6.21403
6.19597
6.18152
6.17248
6.1714
6.1814
6.20728
6.24034
3.73386
3.73446
3.73486
3.73564
3.73674
3.73829
3.74037
3.74307
3.74651
3.75081
3.75609
3.7625
3.77024
3.77952
3.7906
3.80378
3.81941
3.83789
3.85971
3.88536
3.91543
3.95055
3.99144
4.03879
4.09336
4.15592
4.22716
4.30777
4.39831
4.49919
4.61067
4.73277
4.86529
5.00774
5.15939
5.31923
5.48601
5.65824
5.83427
6.01235
6.19072
6.36762
6.54139
6.71047
6.87351
7.02931
7.17693
7.31563
7.44489
7.56439
7.67403
7.77383
7.86398
7.94478
8.01659
8.07988
8.13512
8.18287
8.22363
8.25794
8.28639
8.30944
8.32759
8.3413
8.35099
8.35708
8.35993
8.35991
8.35731
8.35243
8.34554
8.33687
8.32664
8.31503
8.30224
8.2884
8.27366
8.25814
8.24196
8.2252
8.20795
8.19029
8.17228
8.15398
8.13545
8.11671
8.09782
8.0788
8.05967
8.04047
8.0212
8.00189
7.98255
7.96319
7.94382
7.92444
7.90505
7.88566
7.86627
7.84688
7.82749
7.8081
7.78871
7.7693
7.74989
7.73046
7.71101
7.69153
7.67203
7.6525
7.63292
7.6133
7.59363
7.57391
7.55412
7.53427
7.51436
7.49437
7.4743
7.45415
7.43391
7.41358
7.39316
7.37263
7.352
7.33126
7.31041
7.28945
7.26836
7.24715
7.22581
7.20434
7.18273
7.16098
7.13909
7.11706
7.09488
7.07255
7.05006
7.02742
7.00461
6.98165
6.95852
6.93522
6.91176
6.88813
6.86432
6.84035
6.8162
6.79187
6.76737
6.7427
6.71785
6.69283
6.66764
6.64229
6.61677
6.5911
6.56528
6.53933
6.51326
6.48709
6.46085
6.43458
6.40832
6.38214
6.35611
6.33034
6.30498
6.2802
6.25628
6.23354
6.21249
6.19375
6.17843
6.16745
6.16339
6.16604
6.18023
6.19193
3.65855
3.65913
3.65938
3.65994
3.66071
3.66182
3.66332
3.66529
3.66782
3.67101
3.67496
3.67983
3.68578
3.69303
3.70182
3.71246
3.72531
3.74079
3.75939
3.78169
3.8083
3.83993
3.87735
3.9214
3.97293
4.03281
4.10191
4.18102
4.27083
4.37187
4.48449
4.60876
4.74449
4.89117
5.04797
5.21377
5.38715
5.56645
5.74984
5.9354
6.12118
6.30527
6.48587
6.66133
6.83021
6.99127
7.14356
7.28634
7.41912
7.54162
7.65378
7.7557
7.84763
7.92989
8.00293
8.06725
8.12337
8.17185
8.21326
8.24815
8.27712
8.30065
8.31923
8.33335
8.34343
8.34989
8.3531
8.35341
8.35114
8.34658
8.33999
8.33161
8.32166
8.31033
8.29779
8.2842
8.26969
8.2544
8.23843
8.22188
8.20482
8.18735
8.16952
8.15139
8.13301
8.11442
8.09567
8.07678
8.05778
8.03869
8.01954
8.00034
7.9811
7.96183
7.94254
7.92324
7.90393
7.88461
7.86529
7.84596
7.82663
7.8073
7.78795
7.7686
7.74923
7.72984
7.71043
7.691
7.67153
7.65203
7.63248
7.61289
7.59325
7.57355
7.55379
7.53397
7.51407
7.49411
7.47406
7.45392
7.4337
7.41339
7.39297
7.37246
7.35184
7.33111
7.31027
7.28932
7.26824
7.24703
7.2257
7.20423
7.18263
7.16089
7.13901
7.11698
7.0948
7.07247
7.04999
7.02735
7.00455
6.98159
6.95846
6.93516
6.9117
6.88807
6.86427
6.84029
6.81614
6.79181
6.76731
6.74264
6.71779
6.69277
6.66757
6.64221
6.61669
6.591
6.56517
6.5392
6.51311
6.48692
6.46065
6.43434
6.40803
6.38178
6.35566
6.32977
6.30426
6.27927
6.25507
6.23192
6.21034
6.19073
6.17415
6.16093
6.15316
6.14932
6.1519
6.14473
3.55426
3.55485
3.55498
3.55535
3.5558
3.55643
3.55725
3.55831
3.55967
3.5614
3.56358
3.56633
3.56981
3.57418
3.5797
3.58667
3.59544
3.60647
3.62026
3.63746
3.65875
3.68494
3.71692
3.75566
3.80221
3.85763
3.92298
3.99929
4.08746
4.18822
4.30206
4.42918
4.5694
4.72214
4.88647
5.06103
5.24418
5.43398
5.62831
5.82495
6.02168
6.21634
6.40695
6.5917
6.76905
6.93773
7.09675
7.24538
7.38319
7.50996
7.62573
7.73065
7.82507
7.90941
7.98418
8.04995
8.1073
8.15683
8.19914
8.23486
8.26455
8.28875
8.30795
8.32263
8.33326
8.34023
8.34393
8.34471
8.34289
8.33877
8.33259
8.32462
8.31505
8.30408
8.2919
8.27864
8.26446
8.24948
8.23379
8.21752
8.20073
8.1835
8.16591
8.148
8.12983
8.11145
8.09289
8.07417
8.05534
8.03641
8.01741
7.99835
7.97924
7.96009
7.94092
7.92173
7.90252
7.8833
7.86407
7.84483
7.82558
7.80631
7.78704
7.76775
7.74844
7.72911
7.70975
7.69036
7.67094
7.65148
7.63198
7.61242
7.59282
7.57315
7.55343
7.53363
7.51376
7.49382
7.47379
7.45368
7.43347
7.41317
7.39278
7.37228
7.35168
7.33096
7.31013
7.28918
7.26811
7.24692
7.22559
7.20413
7.18254
7.16081
7.13893
7.1169
7.09473
7.07241
7.04993
7.02729
7.00449
6.98153
6.9584
6.93511
6.91165
6.88802
6.86421
6.84024
6.81609
6.79176
6.76726
6.74258
6.71773
6.6927
6.6675
6.64213
6.6166
6.5909
6.56505
6.53907
6.51295
6.48672
6.46041
6.43405
6.40767
6.38133
6.3551
6.32907
6.30336
6.27811
6.25357
6.22994
6.20768
6.18704
6.16894
6.15331
6.14161
6.13154
6.12398
6.10489
3.42167
3.42221
3.42209
3.42206
3.42191
3.42172
3.42145
3.42111
3.4207
3.42026
3.41981
3.41945
3.41926
3.41942
3.42015
3.42173
3.42452
3.42899
3.43568
3.44528
3.45858
3.47651
3.50016
3.5307
3.56945
3.61778
3.67709
3.74875
3.83401
3.93389
4.04911
4.17999
4.32637
4.4876
4.66257
4.84969
5.04694
5.25191
5.46198
5.67443
5.88666
6.0962
6.3008
6.49847
6.68757
6.86673
7.03497
7.19159
7.33622
7.46876
7.58935
7.69829
7.79603
7.88313
7.96019
8.02789
8.08686
8.13778
8.18129
8.2181
8.24875
8.27381
8.29382
8.30925
8.32058
8.32822
8.33256
8.33394
8.3327
8.32913
8.32349
8.31602
8.30694
8.29644
8.28469
8.27186
8.25808
8.24348
8.22816
8.21223
8.19577
8.17885
8.16155
8.14392
8.12602
8.10788
8.08954
8.07105
8.05242
8.03369
8.01487
7.99597
7.97702
7.95803
7.939
7.91993
7.90085
7.88174
7.86262
7.84347
7.82432
7.80514
7.78595
7.76673
7.74749
7.72823
7.70893
7.6896
7.67024
7.65083
7.63137
7.61186
7.5923
7.57267
7.55298
7.53321
7.51338
7.49346
7.47346
7.45337
7.43319
7.41291
7.39254
7.37206
7.35147
7.33077
7.30995
7.28902
7.26796
7.24678
7.22546
7.20401
7.18243
7.1607
7.13883
7.11681
7.09464
7.07232
7.04985
7.02721
7.00442
6.98146
6.95834
6.93505
6.91159
6.88796
6.86415
6.84018
6.81603
6.7917
6.7672
6.74252
6.71766
6.69263
6.66742
6.64204
6.61649
6.59078
6.56492
6.5389
6.51276
6.48649
6.46013
6.4337
6.40725
6.3808
6.35444
6.32823
6.3023
6.27675
6.25179
6.2276
6.20454
6.18279
6.16297
6.1449
6.12922
6.11372
6.09771
6.07078
3.26118
3.26158
3.26098
3.2602
3.25897
3.25733
3.25519
3.25252
3.24926
3.24542
3.24096
3.23591
3.23031
3.22427
3.21799
3.21167
3.20567
3.20043
3.19659
3.19486
3.19619
3.2017
3.21272
3.23075
3.25749
3.29479
3.34456
3.40867
3.48888
3.58667
3.70314
3.83891
3.99399
4.16765
4.35839
4.564
4.7816
5.00808
5.24017
5.47466
5.70839
5.93845
6.16226
6.37757
6.58258
6.77588
6.95645
7.12367
7.27728
7.41733
7.54415
7.65821
7.76019
7.85077
7.93073
8.00084
8.06185
8.11452
8.15959
8.19775
8.22961
8.25577
8.27678
8.29315
8.30536
8.31382
8.31894
8.32107
8.32055
8.31765
8.31266
8.30581
8.29731
8.28738
8.27617
8.26385
8.25055
8.23641
8.22153
8.20601
8.18994
8.17339
8.15644
8.13914
8.12154
8.10369
8.08563
8.0674
8.04901
8.03051
8.0119
7.9932
7.97444
7.95562
7.93676
7.91785
7.89891
7.87993
7.86093
7.84191
7.82286
7.80379
7.78469
7.76556
7.74641
7.72722
7.708
7.68874
7.66943
7.65008
7.63068
7.61122
7.5917
7.57212
7.55247
7.53274
7.51294
7.49306
7.47309
7.45303
7.43288
7.41262
7.39227
7.37181
7.35124
7.33056
7.30976
7.28884
7.26779
7.24662
7.22532
7.20388
7.1823
7.16058
7.13872
7.11671
7.09455
7.07223
7.04976
7.02713
7.00434
6.98139
6.95827
6.93498
6.91152
6.88789
6.86409
6.84011
6.81596
6.79163
6.76713
6.74244
6.71758
6.69254
6.66733
6.64194
6.61638
6.59065
6.56476
6.53872
6.51254
6.48623
6.45981
6.43331
6.40676
6.3802
6.35369
6.32728
6.30108
6.27519
6.24978
6.22496
6.20103
6.17808
6.15648
6.13594
6.11654
6.09623
6.07343
6.04046
3.0728
3.07288
3.07142
3.06933
3.06627
3.06225
3.05713
3.05085
3.04327
3.03429
3.02379
3.01172
2.99805
2.98282
2.96609
2.94807
2.92908
2.90954
2.89013
2.87163
2.85513
2.84201
2.83395
2.83292
2.84126
2.8615
2.89636
2.94862
3.02088
3.11543
3.23401
3.37753
3.54585
3.73769
3.95076
4.18205
4.42795
4.68461
4.9478
5.21321
5.4768
5.735
5.98485
6.22388
6.45017
6.66227
6.85915
7.04028
7.20556
7.35526
7.48994
7.61042
7.71759
7.8124
7.89584
7.96884
8.03231
8.08708
8.13402
8.17381
8.20714
8.23463
8.25686
8.27437
8.28763
8.29709
8.30314
8.30617
8.30648
8.30439
8.30016
8.29404
8.28624
8.27696
8.26638
8.25465
8.24192
8.22831
8.21393
8.19889
8.18327
8.16715
8.1506
8.13368
8.11644
8.09893
8.08119
8.06325
8.04514
8.02689
8.00853
7.99007
7.97152
7.9529
7.93422
7.91549
7.89671
7.87789
7.85903
7.84014
7.82122
7.80226
7.78327
7.76424
7.74518
7.72608
7.70694
7.68776
7.66852
7.64924
7.6299
7.6105
7.59103
7.5715
7.5519
7.53221
7.51245
7.49261
7.47267
7.45264
7.43252
7.41229
7.39196
7.37153
7.35098
7.33032
7.30954
7.28863
7.2676
7.24645
7.22515
7.20373
7.18216
7.16045
7.1386
7.1166
7.09444
7.07214
7.04967
7.02705
7.00426
6.98131
6.95819
6.93491
6.91145
6.88782
6.86402
6.84005
6.81589
6.79156
6.76706
6.74237
6.7175
6.69245
6.66723
6.64183
6.61625
6.5905
6.56459
6.53852
6.5123
6.48594
6.45946
6.43288
6.40623
6.37953
6.35285
6.32623
6.29974
6.27348
6.24756
6.22208
6.19723
6.17303
6.14965
6.1267
6.1039
6.07936
6.05111
6.01348
2.8566
2.85614
2.85332
2.84917
2.84328
2.83561
2.82595
2.81412
2.79989
2.78306
2.76344
2.74089
2.71523
2.68637
2.65427
2.61904
2.58089
2.54024
2.49768
2.45411
2.41083
2.3696
2.33269
2.30298
2.28381
2.279
2.29262
2.32877
2.39114
2.48273
2.60558
2.76076
2.94809
3.16591
3.41131
3.68031
3.96814
4.26865
4.57564
4.88326
5.18647
5.48119
5.76427
6.0333
6.28649
6.5225
6.74035
6.93947
7.11982
7.28186
7.4265
7.55493
7.66842
7.76829
7.85581
7.93213
7.99841
8.05563
8.10468
8.14635
8.18138
8.21042
8.23409
8.25292
8.26742
8.27805
8.2852
8.28926
8.29056
8.2894
8.28605
8.28077
8.27376
8.26523
8.25537
8.24431
8.23222
8.21922
8.20542
8.19092
8.17581
8.16017
8.14408
8.12758
8.11074
8.09361
8.07622
8.05861
8.04082
8.02287
8.00478
7.98657
7.96826
7.94987
7.9314
7.91286
7.89426
7.87562
7.85692
7.83818
7.81939
7.80056
7.78169
7.76278
7.74383
7.72482
7.70578
7.68667
7.66752
7.64831
7.62904
7.6097
7.59029
7.57082
7.55126
7.53163
7.51191
7.49211
7.47221
7.45222
7.43212
7.41193
7.39163
7.37122
7.35069
7.33005
7.30929
7.28841
7.2674
7.24625
7.22498
7.20356
7.18201
7.16031
7.13847
7.11647
7.09433
7.07203
7.04957
7.02695
7.00417
6.98122
6.95811
6.93483
6.91137
6.88775
6.86395
6.83997
6.81582
6.79149
6.76698
6.74229
6.71741
6.69236
6.66712
6.64171
6.61612
6.59035
6.56441
6.5383
6.51204
6.48563
6.45908
6.43241
6.40564
6.37881
6.35194
6.32509
6.2983
6.27164
6.24519
6.21901
6.19321
6.16775
6.14262
6.1174
6.09152
6.06332
6.03068
5.98941
2.61331
2.61193
2.60688
2.59951
2.5892
2.57587
2.55919
2.53891
2.51468
2.48621
2.45311
2.41498
2.37147
2.32232
2.26734
2.2065
2.13989
2.06773
1.99059
1.90949
1.82617
1.74329
1.66444
1.59416
1.53764
1.50032
1.48765
1.50504
1.55742
1.64865
1.7816
1.95781
2.1771
2.4373
2.7341
3.06099
3.40977
3.77113
4.13637
4.49788
4.84958
5.18716
5.50786
5.81018
6.09337
6.35665
6.59918
6.8201
7.01912
7.19656
7.35358
7.49176
7.61288
7.71874
7.81099
7.89119
7.96065
8.02054
8.07189
8.11562
8.15252
8.18329
8.20857
8.22891
8.24483
8.25679
8.2652
8.27044
8.27286
8.27275
8.2704
8.26606
8.25994
8.25226
8.24319
8.2329
8.22152
8.2092
8.19603
8.18213
8.16759
8.15249
8.1369
8.12087
8.10448
8.08776
8.07077
8.05353
8.03608
8.01845
8.00066
7.98274
7.96469
7.94655
7.92831
7.90998
7.89159
7.87313
7.8546
7.83603
7.81739
7.79871
7.77997
7.76118
7.74234
7.72345
7.7045
7.68549
7.66642
7.64729
7.62809
7.60883
7.58949
7.57007
7.55057
7.53099
7.51132
7.49156
7.47171
7.45175
7.4317
7.41153
7.39126
7.37088
7.35038
7.32977
7.30903
7.28817
7.26717
7.24605
7.22479
7.20339
7.18184
7.16016
7.13833
7.11634
7.09421
7.07191
7.04946
7.02685
7.00407
6.98113
6.95802
6.93474
6.91129
6.88767
6.86387
6.8399
6.81574
6.79141
6.7669
6.7422
6.71732
6.69226
6.66701
6.64158
6.61597
6.59018
6.56422
6.53807
6.51176
6.48529
6.45867
6.43191
6.40503
6.37804
6.35098
6.32388
6.29677
6.26969
6.2427
6.21581
6.18905
6.16235
6.13555
6.1082
6.07958
6.04819
6.01201
5.96781
2.34359
2.34067
2.33222
2.31998
2.30299
2.28117
2.25407
2.22126
2.18216
2.13615
2.08259
2.02086
1.95046
1.87091
1.7818
1.68274
1.57335
1.45363
1.32436
1.18753
1.04656
0.906291
0.772708
0.652657
0.553379
0.481926
0.444652
0.447448
0.495946
0.595491
0.75024
0.962516
1.23213
1.55562
1.92561
2.3311
2.75947
3.19948
3.63964
4.06958
4.48135
4.86994
5.23314
5.57075
5.88384
6.17374
6.44097
6.68492
6.90471
7.10002
7.27163
7.4213
7.55133
7.66409
7.76186
7.84645
7.91946
7.98228
8.03612
8.08202
8.12089
8.15349
8.1805
8.2025
8.21998
8.23342
8.24323
8.2498
8.25346
8.25452
8.25328
8.24999
8.24486
8.23812
8.22993
8.22047
8.20988
8.19829
8.18583
8.17259
8.15867
8.14415
8.1291
8.1136
8.09769
8.08143
8.06486
8.04802
8.03094
8.01366
7.9962
7.97859
7.96083
7.94295
7.92496
7.90687
7.88869
7.87043
7.8521
7.8337
7.81523
7.7967
7.77811
7.75945
7.74074
7.72196
7.70312
7.68421
7.66524
7.64619
7.62708
7.60789
7.58862
7.56926
7.54983
7.5303
7.51069
7.49097
7.47116
7.45125
7.43123
7.41111
7.39087
7.37052
7.35005
7.32946
7.30874
7.2879
7.26693
7.24582
7.22458
7.20319
7.18167
7.16
7.13817
7.1162
7.09408
7.07179
7.04935
7.02674
7.00397
6.98104
6.95793
6.93466
6.91121
6.88759
6.86379
6.83982
6.81566
6.79133
6.76681
6.74211
6.71722
6.69215
6.6669
6.64145
6.61583
6.59001
6.56401
6.53783
6.51147
6.48494
6.45824
6.43139
6.40438
6.37724
6.34998
6.32262
6.29518
6.26768
6.24013
6.21253
6.18483
6.15691
6.12854
6.09922
6.06817
6.03404
5.99497
5.9484
2.04979
2.04434
2.03055
2.01077
1.98358
1.94896
1.90601
1.85404
1.79206
1.71924
1.63465
1.53736
1.4263
1.30034
1.15835
0.999583
0.824076
0.633098
0.429627
0.218494
0.00630402
-0.198994
-0.388994
-0.555705
-0.691919
-0.791244
-0.848034
-0.857189
-0.813005
-0.70855
-0.536469
-0.290802
0.0309432
0.425682
0.884216
1.39249
1.93354
2.48902
3.04038
3.57145
4.07016
4.52988
4.94887
5.32883
5.67371
5.98853
6.27746
6.54214
6.78188
6.99552
7.1827
7.34491
7.48475
7.60523
7.709
7.79837
7.87526
7.94127
7.9978
8.04601
8.08692
8.12142
8.15021
8.17392
8.19307
8.2081
8.21944
8.22745
8.23248
8.23484
8.23481
8.23266
8.22861
8.22288
8.21565
8.20709
8.19735
8.18657
8.17486
8.16233
8.14908
8.13519
8.12074
8.10579
8.0904
8.07463
8.05852
8.04211
8.02544
8.00853
7.99142
7.97414
7.95669
7.9391
7.92137
7.90353
7.88559
7.86755
7.84942
7.83121
7.81292
7.79455
7.77611
7.7576
7.73902
7.72037
7.70164
7.68284
7.66397
7.64502
7.62599
7.60688
7.58768
7.5684
7.54903
7.52957
7.51
7.49034
7.47058
7.45071
7.43074
7.41065
7.39045
7.37013
7.34969
7.32913
7.30844
7.28762
7.26667
7.24558
7.22436
7.20299
7.18148
7.15982
7.13801
7.11605
7.09394
7.07166
7.04923
7.02663
7.00386
6.98093
6.95783
6.93456
6.91112
6.8875
6.8637
6.83973
6.81558
6.79124
6.76672
6.74202
6.71713
6.69205
6.66678
6.64132
6.61567
6.58983
6.5638
6.53759
6.51118
6.48458
6.45781
6.43085
6.40372
6.37641
6.34895
6.32133
6.29356
6.26563
6.23753
6.20921
6.18061
6.15153
6.12168
6.09057
6.05737
6.02088
5.97942
5.93091
1.73315
1.72356
1.70159
1.67034
1.62778
1.57366
1.50653
1.42542
1.32885
1.21537
1.08294
0.929383
0.752523
0.551163
0.325406
0.0769005
-0.191273
-0.474455
-0.766224
-1.05845
-1.34195
-1.60774
-1.84807
-2.05662
-2.22875
-2.36114
-2.45021
-2.48985
-2.47028
-2.37812
-2.198
-1.91623
-1.52554
-1.02875
-0.439578
0.219762
0.922411
1.63926
2.34241
3.00869
3.62163
4.17279
4.66172
5.09298
5.47385
5.81339
6.12041
6.40217
6.6588
6.88869
7.09057
7.26515
7.41501
7.54334
7.6533
7.74761
7.82853
7.89791
7.95728
8.00794
8.05101
8.08745
8.11807
8.14352
8.16437
8.18107
8.19402
8.20357
8.21007
8.21382
8.2151
8.21418
8.2113
8.20666
8.20045
8.19286
8.18403
8.17411
8.1632
8.15143
8.1389
8.12568
8.11185
8.09749
8.08266
8.06741
8.05179
8.03584
8.01959
8.00309
7.98635
7.96942
7.95229
7.935
7.91757
7.89999
7.8823
7.86449
7.84658
7.82857
7.81046
7.79227
7.774
7.75564
7.7372
7.71867
7.70007
7.68139
7.66262
7.64377
7.62483
7.60581
7.58669
7.56749
7.54818
7.52878
7.50928
7.48968
7.46996
7.45014
7.43021
7.41017
7.39
7.36972
7.34931
7.32878
7.30812
7.28733
7.2664
7.24533
7.22413
7.20278
7.18128
7.15964
7.13784
7.11589
7.09379
7.07152
7.0491
7.02651
7.00375
6.98083
6.95773
6.93446
6.91102
6.88741
6.86362
6.83964
6.81549
6.79115
6.76663
6.74192
6.71702
6.69193
6.66666
6.64118
6.61551
6.58965
6.56359
6.53733
6.51087
6.48422
6.45736
6.4303
6.40304
6.37558
6.34791
6.32002
6.29192
6.26356
6.23492
6.20592
6.17644
6.14626
6.11506
6.08231
6.04722
6.0087
5.96525
5.91514
1.39842
1.38248
1.34786
1.29865
1.23206
1.14767
1.04321
0.916835
0.765233
0.584861
0.371938
0.124266
-0.158323
-0.473335
-0.816238
-1.18105
-1.56084
-1.94737
-2.33098
-2.70167
-3.05055
-3.37086
-3.65795
-3.90886
-4.12141
-4.29224
-4.41429
-4.47497
-4.45617
-4.33626
-4.09419
-3.71481
-3.19371
-2.54056
-1.7787
-0.940476
-0.060874
0.82468
1.68182
2.48155
3.20543
3.8436
4.3983
4.87874
5.29429
5.65718
5.98023
6.27434
6.54307
6.78552
6.99973
7.18536
7.34442
7.48014
7.596
7.69508
7.77996
7.85269
7.91495
7.96815
8.01347
8.05193
8.08442
8.11165
8.13421
8.15259
8.16718
8.17835
8.18639
8.19161
8.19429
8.19468
8.19302
8.18954
8.18443
8.17786
8.17
8.16097
8.15092
8.13996
8.12817
8.11566
8.1025
8.08877
8.07452
8.05982
8.04471
8.02924
8.01344
7.99736
7.98102
7.96445
7.94767
7.9307
7.91356
7.89627
7.87883
7.86127
7.84358
7.82578
7.80788
7.78987
7.77177
7.75357
7.73528
7.71689
7.69842
7.67986
7.6612
7.64246
7.62362
7.60468
7.58565
7.56652
7.54729
7.52796
7.50852
7.48897
7.46932
7.44954
7.42966
7.40966
7.38953
7.36929
7.34891
7.32841
7.30778
7.28701
7.26611
7.24507
7.22388
7.20255
7.18107
7.15945
7.13767
7.11573
7.09364
7.07138
7.04896
7.02638
7.00363
6.98072
6.95763
6.93437
6.91093
6.88732
6.86353
6.83956
6.8154
6.79106
6.76654
6.74182
6.71692
6.69182
6.66653
6.64105
6.61536
6.58947
6.56338
6.53708
6.51057
6.48385
6.45691
6.42975
6.40236
6.37474
6.34687
6.31872
6.29029
6.26152
6.23235
6.20269
6.17238
6.14118
6.10873
6.07451
6.03776
5.99748
5.95236
5.90093
1.0464
1.02008
0.96485
0.887396
0.783694
0.652239
0.488104
0.286408
0.0407226
-0.252689
-0.595075
-0.983883
-1.41363
-1.87604
-2.36148
-2.85868
-3.35528
-3.83897
-4.29898
-4.7272
-5.11826
-5.46784
-5.77218
-6.02731
-6.2284
-6.36831
-6.43667
-6.41932
-6.29855
-6.05497
-5.67223
-5.14116
-4.46302
-3.65311
-2.73805
-1.75307
-0.735295
0.271172
1.233
2.11977
2.91302
3.60466
4.1993
4.7094
5.14827
5.52822
5.86268
6.16479
6.44111
6.69201
6.91524
7.10944
7.27593
7.41783
7.53878
7.64208
7.73052
7.80636
7.87138
7.92707
7.97466
8.01521
8.04962
8.07865
8.10294
8.12299
8.13924
8.15202
8.16164
8.16839
8.17252
8.17428
8.17392
8.17165
8.16768
8.16218
8.15532
8.14725
8.13809
8.12796
8.11697
8.10519
8.09273
8.07965
8.06601
8.05188
8.03731
8.02234
8.00702
7.99137
7.97544
7.95926
7.94284
7.9262
7.90937
7.89237
7.87521
7.8579
7.84045
7.82287
7.80517
7.78736
7.76944
7.7514
7.73327
7.71503
7.69669
7.67825
7.65972
7.64108
7.62234
7.6035
7.58456
7.56551
7.54636
7.52709
7.50772
7.48823
7.46863
7.44892
7.42908
7.40912
7.38904
7.36883
7.34849
7.32803
7.30742
7.28669
7.26581
7.24479
7.22362
7.20231
7.18085
7.15924
7.13748
7.11556
7.09347
7.07123
7.04882
7.02625
7.00351
6.9806
6.95751
6.93426
6.91083
6.88722
6.86343
6.83946
6.81531
6.79097
6.76644
6.74172
6.71681
6.69171
6.66641
6.6409
6.6152
6.58928
6.56316
6.53682
6.51026
6.48348
6.45646
6.4292
6.40169
6.37391
6.34583
6.31744
6.28869
6.25952
6.22985
6.19956
6.16847
6.13632
6.10274
6.0672
6.029
5.9872
5.94066
5.88813
0.670752
0.628382
0.540118
0.416688
0.250985
0.0372016
-0.235708
-0.57439
-0.982325
-1.45467
-1.98339
-2.5575
-3.16427
-3.7867
-4.4065
-5.00703
-5.57447
-6.09711
-6.5649
-6.97034
-7.3079
-7.57313
-7.7632
-7.87717
-7.91657
-7.88143
-7.76861
-7.5731
-7.2813
-6.88255
-6.3611
-5.70867
-4.92678
-4.02969
-3.0429
-1.99993
-0.938283
0.101549
1.08564
1.98698
2.7892
3.48718
4.08652
4.60063
5.04457
5.43033
5.76959
6.0752
6.35521
6.61079
6.83955
7.03936
7.21094
7.35726
7.48205
7.58874
7.6802
7.75875
7.82629
7.88432
7.93413
7.97678
8.01318
8.04408
8.07015
8.09191
8.10983
8.12425
8.13549
8.1438
8.14945
8.15265
8.15366
8.15268
8.14991
8.14555
8.13977
8.1327
8.12448
8.11524
8.10508
8.0941
8.08237
8.06998
8.05699
8.04347
8.02946
8.01503
8.0002
7.98503
7.96954
7.95375
7.93771
7.92143
7.90493
7.88824
7.87137
7.85433
7.83713
7.81979
7.80231
7.7847
7.76696
7.74911
7.73114
7.71305
7.69486
7.67655
7.65814
7.63962
7.62099
7.60225
7.5834
7.56444
7.54536
7.52618
7.50687
7.48745
7.46791
7.44825
7.42846
7.40855
7.38852
7.36835
7.34805
7.32762
7.30705
7.28634
7.26549
7.24449
7.22335
7.20206
7.18062
7.15903
7.13728
7.11537
7.0933
7.07107
7.04867
7.02611
7.00338
6.98047
6.9574
6.93415
6.91072
6.88712
6.86333
6.83936
6.81521
6.79087
6.76634
6.74162
6.7167
6.69159
6.66628
6.64076
6.61503
6.5891
6.56294
6.53657
6.50996
6.48312
6.45602
6.42866
6.40103
6.37309
6.34482
6.31619
6.28713
6.25757
6.22743
6.19655
6.16473
6.13171
6.09711
6.0604
6.02092
5.97782
5.93008
5.87662
0.277697
0.210054
0.0668015
-0.13564
-0.412585
-0.777023
-1.24089
-1.79677
-2.42941
-3.11583
-3.83316
-4.55632
-5.26243
-5.93058
-6.54351
-7.08723
-7.54946
-7.91811
-8.19133
-8.36954
-8.4638
-8.48247
-8.43745
-8.33583
-8.17881
-7.96796
-7.70065
-7.37035
-6.96614
-6.47709
-5.89132
-5.20206
-4.41146
-3.53192
-2.58537
-1.60007
-0.607765
0.358402
1.26911
2.10283
2.84759
3.50111
4.06909
4.56262
4.99379
5.37248
5.70842
6.01268
6.2926
6.54919
6.77963
6.98134
7.15483
7.30307
7.42987
7.53866
7.63224
7.71288
7.78246
7.8425
7.89427
7.93883
7.97709
8.00979
8.03758
8.06101
8.08052
8.09651
8.10929
8.11912
8.12624
8.13087
8.13323
8.13353
8.13198
8.12876
8.12404
8.11799
8.11072
8.10238
8.09306
8.08287
8.07188
8.06019
8.04786
8.03495
8.02152
8.00762
7.9933
7.97859
7.96354
7.94817
7.93251
7.91659
7.90043
7.88405
7.86747
7.8507
7.83376
7.81665
7.79939
7.78199
7.76445
7.74677
7.72897
7.71104
7.69299
7.67482
7.65654
7.63813
7.61961
7.60098
7.58222
7.56335
7.54436
7.52525
7.50601
7.48666
7.46718
7.44757
7.42784
7.40798
7.38799
7.36786
7.3476
7.32721
7.30667
7.28599
7.26517
7.2442
7.22308
7.20182
7.18039
7.15882
7.13709
7.11519
7.09314
7.07092
7.04853
7.02598
7.00325
6.98036
6.95729
6.93405
6.91062
6.88702
6.86324
6.83928
6.81513
6.79079
6.76625
6.74153
6.71661
6.69149
6.66617
6.64064
6.61489
6.58893
6.56275
6.53634
6.50969
6.48278
6.45561
6.42816
6.40041
6.37233
6.34388
6.31501
6.28566
6.25575
6.22516
6.19373
6.16126
6.12745
6.09192
6.05418
6.01359
5.96937
5.9206
5.86635
-0.0965773
-0.20115
-0.433429
-0.773367
-1.23979
-1.83238
-2.53971
-3.32079
-4.13708
-4.94303
-5.69855
-6.37349
-6.95033
-7.41975
-7.78006
-8.0347
-8.19174
-8.25968
-8.25353
-8.18588
-8.06765
-7.90757
-7.71247
-7.48568
-7.22643
-6.93186
-6.59714
-6.21583
-5.78003
-5.28128
-4.71183
-4.06743
-3.34998
-2.56853
-1.73908
-0.882644
-0.0231596
0.814138
1.60641
2.33737
2.99861
3.58854
4.11098
4.57333
4.98355
5.34875
5.67686
5.97695
6.2545
6.50937
6.73812
6.93826
7.11066
7.25854
7.38568
7.49534
7.59012
7.67217
7.74326
7.80486
7.85822
7.90436
7.94419
7.97845
8.00775
8.03263
8.05355
8.07091
8.08504
8.09621
8.10464
8.11055