/*--------------------------------*- C++ -*----------------------------------*\
  =========                 |
  \\      /  F ield         | OpenFOAM: The Open Source CFD Toolbox
   \\    /   O peration     | Website:  https://openfoam.org
    \\  /    A nd           | Version:  7
     \\/     M anipulation  |
\*---------------------------------------------------------------------------*/
FoamFile
{
    version     2.0;
    format      ascii;
    class       volVectorField;
    location    "0.019";
    object      U;
}
// * * * * * * * * * * * * * * * * * * * * * * * * * * * * * * * * * * * * * //

dimensions      [0 1 -1 0 0 0 0];

internalField   nonuniform List<vector> 
12225
(
(4.8104 0.169838 0)
(4.16286 0.140437 0)
(3.63071 0.11739 0)
(3.26429 0.0847901 0)
(2.98329 0.0663492 0)
(2.70123 0.0621239 0)
(2.39803 0.0573887 0)
(2.1087 0.0464422 0)
(1.86127 0.034695 0)
(1.66101 0.0262295 0)
(1.49765 0.0201384 0)
(1.36724 0.0144995 0)
(1.25549 0.00859005 0)
(1.17499 0.00345076 0)
(1.09584 0.000417509 0)
(1.05664 -0.00245099 0)
(0.991966 0.00250171 0)
(0.967128 0.000788053 0)
(5.06592 0.103973 0)
(4.86641 0.0720655 0)
(4.73105 0.0884305 0)
(4.62426 0.0755547 0)
(4.51827 0.0689219 0)
(4.41347 0.0791929 0)
(4.30304 0.0931242 0)
(4.1841 0.0975144 0)
(4.06078 0.0902464 0)
(3.94473 0.0781782 0)
(3.83878 0.0676722 0)
(3.74777 0.0606059 0)
(3.65808 0.0554959 0)
(3.57881 0.0502039 0)
(3.48648 0.0452768 0)
(3.41647 0.0390576 0)
(3.32727 0.0395124 0)
(3.25668 0.0295402 0)
(4.94985 0.185231 0)
(4.87982 0.154531 0)
(4.83411 0.154342 0)
(4.81499 0.138461 0)
(4.77271 0.120918 0)
(4.72182 0.11642 0)
(4.69014 0.119288 0)
(4.67803 0.118816 0)
(4.66679 0.110996 0)
(4.64422 0.0994343 0)
(4.61042 0.0882652 0)
(4.5732 0.0797922 0)
(4.53737 0.0733913 0)
(4.50551 0.069404 0)
(4.47522 0.0664854 0)
(4.44396 0.0633714 0)
(4.41437 0.0650654 0)
(4.3761 0.0646128 0)
(5.01757 0.196903 0)
(4.93526 0.112717 0)
(4.85879 0.113748 0)
(4.84172 0.108147 0)
(4.82922 0.105394 0)
(4.80376 0.107906 0)
(4.78275 0.10977 0)
(4.77488 0.106971 0)
(4.77071 0.100737 0)
(4.7599 0.0939482 0)
(4.7424 0.0877672 0)
(4.72351 0.0817912 0)
(4.7084 0.0758602 0)
(4.69733 0.0704535 0)
(4.69014 0.0666182 0)
(4.68161 0.0641779 0)
(4.67328 0.066539 0)
(4.65951 0.067498 0)
(4.99645 0.2352 0)
(4.92353 0.152863 0)
(4.88977 0.144138 0)
(4.87341 0.136536 0)
(4.86385 0.128285 0)
(4.854 0.124669 0)
(4.84201 0.122414 0)
(4.82834 0.118242 0)
(4.81353 0.11274 0)
(4.79911 0.107205 0)
(4.78729 0.101256 0)
(4.77793 0.0940208 0)
(4.76937 0.0861149 0)
(4.75917 0.0791448 0)
(4.74789 0.0749454 0)
(4.73454 0.0734258 0)
(4.72234 0.0752869 0)
(4.71061 0.0779068 0)
(5.04035 0.242372 0)
(4.98558 0.157314 0)
(4.92001 0.133737 0)
(4.88359 0.127962 0)
(4.86326 0.123832 0)
(4.84307 0.122304 0)
(4.81691 0.122556 0)
(4.79064 0.120705 0)
(4.7738 0.114774 0)
(4.77078 0.10613 0)
(4.77906 0.0970603 0)
(4.79106 0.0891037 0)
(4.80008 0.0831642 0)
(4.80201 0.0793824 0)
(4.79855 0.077511 0)
(4.79059 0.0767456 0)
(4.78374 0.0774267 0)
(4.77607 0.078391 0)
(4.97129 0.24027 0)
(4.9204 0.170636 0)
(4.9082 0.147607 0)
(4.89776 0.141113 0)
(4.88818 0.137811 0)
(4.87727 0.137828 0)
(4.86418 0.138025 0)
(4.85365 0.131936 0)
(4.84986 0.118579 0)
(4.85204 0.103185 0)
(4.85712 0.0911051 0)
(4.8616 0.0842017 0)
(4.8642 0.0816255 0)
(4.86467 0.0814232 0)
(4.86464 0.082214 0)
(4.86338 0.0827768 0)
(4.86284 0.0834722 0)
(4.85879 0.0837935 0)
(5.03474 0.255582 0)
(4.97753 0.181987 0)
(4.93001 0.145256 0)
(4.88473 0.139325 0)
(4.86239 0.138877 0)
(4.86709 0.138091 0)
(4.88636 0.135938 0)
(4.90445 0.129037 0)
(4.91259 0.117132 0)
(4.91112 0.104208 0)
(4.90613 0.0937824 0)
(4.90322 0.0866699 0)
(4.90486 0.0819367 0)
(4.90979 0.0786924 0)
(4.91538 0.0768763 0)
(4.91811 0.0763813 0)
(4.91634 0.0782314 0)
(4.90863 0.0818207 0)
(5.04319 0.274567 0)
(5.0007 0.208146 0)
(4.97605 0.168906 0)
(4.9422 0.155127 0)
(4.90739 0.138818 0)
(4.88637 0.124599 0)
(4.88024 0.119349 0)
(4.88005 0.118265 0)
(4.87795 0.114332 0)
(4.87275 0.105637 0)
(4.86767 0.0944749 0)
(4.8659 0.0843542 0)
(4.86836 0.0778004 0)
(4.87296 0.0758903 0)
(4.87746 0.0782652 0)
(4.87907 0.083497 0)
(4.87792 0.0904241 0)
(4.87393 0.0970273 0)
(4.95733 0.247372 0)
(4.93337 0.201861 0)
(4.93598 0.163715 0)
(4.93005 0.163591 0)
(4.90166 0.164272 0)
(4.86651 0.156033 0)
(4.84284 0.144119 0)
(4.8351 0.13195 0)
(4.83767 0.120016 0)
(4.84386 0.108207 0)
(4.85058 0.0967755 0)
(4.85816 0.0865836 0)
(4.86804 0.0786958 0)
(4.87975 0.0739671 0)
(4.89214 0.0730298 0)
(4.90226 0.0754023 0)
(4.91007 0.0804594 0)
(4.91361 0.0865297 0)
(5.00641 0.297277 0)
(4.98511 0.213995 0)
(4.94708 0.171833 0)
(4.92408 0.170293 0)
(4.90113 0.165913 0)
(4.88347 0.150431 0)
(4.8749 0.133713 0)
(4.87577 0.12089 0)
(4.88396 0.11057 0)
(4.89496 0.0994854 0)
(4.90504 0.0863647 0)
(4.91228 0.0730814 0)
(4.91692 0.0631606 0)
(4.91904 0.0593859 0)
(4.91961 0.0626626 0)
(4.91879 0.0712777 0)
(4.91814 0.0826745 0)
(4.91796 0.0931278 0)
(5.04752 0.242974 0)
(5.03315 0.236389 0)
(5.00162 0.189465 0)
(4.98805 0.171869 0)
(4.97894 0.171861 0)
(4.96287 0.165287 0)
(4.94471 0.148075 0)
(4.93737 0.126801 0)
(4.94453 0.108493 0)
(4.95832 0.0955639 0)
(4.96943 0.0867527 0)
(4.9729 0.0803491 0)
(4.96893 0.0757153 0)
(4.96049 0.0732885 0)
(4.95118 0.0735683 0)
(4.94411 0.0763135 0)
(4.94079 0.0805479 0)
(4.94187 0.0846277 0)
(4.91504 0.229786 0)
(5.01014 0.200434 0)
(5.03627 0.193 0)
(5.00403 0.19171 0)
(4.96112 0.187435 0)
(4.93666 0.173712 0)
(4.92928 0.149813 0)
(4.93006 0.12268 0)
(4.93346 0.100423 0)
(4.93733 0.0856664 0)
(4.94194 0.0766633 0)
(4.94696 0.0715105 0)
(4.95141 0.0692896 0)
(4.95335 0.0702417 0)
(4.95239 0.0740105 0)
(4.94869 0.079721 0)
(4.94422 0.0859647 0)
(4.9397 0.0908594 0)
(4.96332 0.245259 0)
(4.96797 0.20225 0)
(4.95926 0.196865 0)
(4.96675 0.198285 0)
(4.9777 0.192373 0)
(4.992 0.174406 0)
(5.00115 0.148731 0)
(5.00071 0.123867 0)
(4.99354 0.105044 0)
(4.98419 0.0920164 0)
(4.9762 0.0826652 0)
(4.97102 0.076256 0)
(4.96843 0.0729252 0)
(4.96725 0.0731981 0)
(4.96746 0.0762968 0)
(4.96827 0.0808648 0)
(4.97157 0.0849977 0)
(4.9753 0.0870563 0)
(4.95057 0.243348 0)
(4.98873 0.193875 0)
(4.98143 0.187948 0)
(4.96937 0.186506 0)
(4.96772 0.17663 0)
(4.97868 0.16172 0)
(4.98635 0.145337 0)
(4.98506 0.129076 0)
(4.98028 0.113306 0)
(4.97837 0.0985894 0)
(4.98249 0.0860735 0)
(4.99233 0.077243 0)
(5.00545 0.0727422 0)
(5.01827 0.072316 0)
(5.02879 0.0748641 0)
(5.03477 0.0783189 0)
(5.03758 0.0815714 0)
(5.03567 0.0824229 0)
(5.01137 0.248679 0)
(5.03838 0.204532 0)
(5.05359 0.215836 0)
(5.06367 0.207814 0)
(5.06086 0.181445 0)
(5.04975 0.159662 0)
(5.03441 0.145656 0)
(5.02247 0.131711 0)
(5.01784 0.112594 0)
(5.01816 0.0892716 0)
(5.01988 0.0663114 0)
(5.02107 0.048847 0)
(5.02245 0.0404585 0)
(5.02471 0.0421195 0)
(5.02951 0.0519858 0)
(5.03613 0.065971 0)
(5.0453 0.0799631 0)
(5.05516 0.0898685 0)
(5.07679 0.252261 0)
(5.0735 0.16429 0)
(5.0689 0.158488 0)
(5.05267 0.170804 0)
(5.03897 0.182768 0)
(5.03634 0.183867 0)
(5.04221 0.16823 0)
(5.05309 0.141721 0)
(5.06304 0.115332 0)
(5.06634 0.096766 0)
(5.06207 0.0868147 0)
(5.05346 0.0815391 0)
(5.04496 0.0769995 0)
(5.03952 0.0715695 0)
(5.03877 0.0654263 0)
(5.04274 0.0594627 0)
(5.05085 0.0535783 0)
(5.06193 0.0482225 0)
(5.15306 0.271512 0)
(5.10536 0.248574 0)
(5.06833 0.260915 0)
(5.02273 0.253531 0)
(5.00434 0.214205 0)
(5.01181 0.165416 0)
(5.02888 0.127029 0)
(5.04479 0.106421 0)
(5.05476 0.0984172 0)
(5.05886 0.0928266 0)
(5.05976 0.0829835 0)
(5.06008 0.0688141 0)
(5.06127 0.0543421 0)
(5.06352 0.044045 0)
(5.06637 0.0395786 0)
(5.06943 0.0400008 0)
(5.0727 0.0425541 0)
(5.0761 0.0444992 0)
(4.99205 0.386647 0)
(4.96965 0.332344 0)
(4.96331 0.261932 0)
(4.97207 0.220271 0)
(5.00368 0.182229 0)
(5.03493 0.140203 0)
(5.05427 0.107681 0)
(5.06769 0.0912706 0)
(5.07825 0.0866882 0)
(5.08526 0.0863378 0)
(5.08871 0.0850527 0)
(5.08905 0.0811905 0)
(5.0875 0.0749308 0)
(5.08572 0.0670773 0)
(5.0855 0.0582422 0)
(5.0868 0.0489758 0)
(5.08977 0.0395147 0)
(5.09273 0.0302387 0)
(4.95071 0.360417 0)
(4.96538 0.329904 0)
(4.97404 0.24502 0)
(4.99463 0.177008 0)
(5.01583 0.129375 0)
(5.03128 0.0969006 0)
(5.04257 0.0784783 0)
(5.0557 0.0719212 0)
(5.07313 0.0733464 0)
(5.09277 0.0773852 0)
(5.11155 0.0785812 0)
(5.12691 0.0740434 0)
(5.13778 0.0641112 0)
(5.1442 0.0517145 0)
(5.14724 0.0405232 0)
(5.14794 0.0329598 0)
(5.14797 0.0296401 0)
(5.14813 0.0294654 0)
(4.92098 0.357209 0)
(4.97179 0.308625 0)
(4.99925 0.245752 0)
(5.02617 0.174761 0)
(5.03497 0.125902 0)
(5.03737 0.0924343 0)
(5.04153 0.063135 0)
(5.0519 0.0396358 0)
(5.06927 0.0265135 0)
(5.09183 0.023681 0)
(5.11696 0.0273784 0)
(5.14076 0.0336167 0)
(5.15965 0.0393979 0)
(5.17193 0.0430434 0)
(5.17848 0.043513 0)
(5.18079 0.0402862 0)
(5.1812 0.0333064 0)
(5.18083 0.0222791 0)
(4.95228 0.268515 0)
(4.98544 0.195212 0)
(5.05153 0.183437 0)
(5.11589 0.155223 0)
(5.15554 0.125803 0)
(5.17054 0.0986007 0)
(5.1682 0.0707156 0)
(5.15928 0.0448002 0)
(5.15083 0.0256498 0)
(5.14584 0.0157308 0)
(5.1456 0.0140488 0)
(5.14956 0.0177025 0)
(5.15646 0.0233978 0)
(5.16517 0.0287635 0)
(5.1757 0.0326473 0)
(5.18731 0.0344395 0)
(5.20028 0.0340306 0)
(5.21331 0.0309326 0)
(4.97676 0.292568 0)
(4.9537 0.195915 0)
(4.98905 0.126711 0)
(5.03784 0.0880136 0)
(5.08292 0.074765 0)
(5.11699 0.0704948 0)
(5.139 0.0626479 0)
(5.15275 0.0486104 0)
(5.16116 0.0330306 0)
(5.16682 0.0217161 0)
(5.17338 0.0160329 0)
(5.18339 0.013889 0)
(5.19759 0.0127616 0)
(5.21538 0.0109933 0)
(5.23632 0.0073813 0)
(5.25778 0.00119984 0)
(5.27883 -0.00760352 0)
(5.29573 -0.0192503 0)
(5.01189 0.203624 0)
(5.07398 0.151967 0)
(5.0895 0.115218 0)
(5.08264 0.0937056 0)
(5.08918 0.0785804 0)
(5.11112 0.0644538 0)
(5.13757 0.0501655 0)
(5.16259 0.0354432 0)
(5.18557 0.0218136 0)
(5.20809 0.0106028 0)
(5.23214 0.00254214 0)
(5.2587 -0.00357205 0)
(5.28695 -0.008989 0)
(5.314 -0.0138235 0)
(5.33805 -0.017096 0)
(5.3579 -0.0182655 0)
(5.37385 -0.0169353 0)
(5.38561 -0.0137665 0)
(5.01076 0.138498 0)
(5.01951 0.131618 0)
(5.08066 0.115478 0)
(5.15594 0.0804001 0)
(5.21044 0.0455829 0)
(5.23494 0.021843 0)
(5.24021 0.00906696 0)
(5.24104 0.000220573 0)
(5.24752 -0.00960569 0)
(5.26353 -0.0214032 0)
(5.28717 -0.0329829 0)
(5.31187 -0.0410976 0)
(5.33199 -0.0446899 0)
(5.34501 -0.0446995 0)
(5.35204 -0.0429601 0)
(5.3559 -0.0414661 0)
(5.35978 -0.0417125 0)
(5.36578 -0.044411 0)
(4.99927 0.179221 0)
(5.0172 0.120771 0)
(5.10306 0.0719754 0)
(5.19341 0.0491928 0)
(5.25187 0.0450921 0)
(5.27985 0.049843 0)
(5.30014 0.0482077 0)
(5.32743 0.0323663 0)
(5.36015 0.00650055 0)
(5.38936 -0.0175133 0)
(5.41011 -0.03283 0)
(5.42275 -0.0380115 0)
(5.43017 -0.0356516 0)
(5.43582 -0.0304646 0)
(5.44281 -0.0263438 0)
(5.45176 -0.0251242 0)
(5.46271 -0.0268065 0)
(5.47301 -0.0302321 0)
(4.96309 0.114898 0)
(5.12662 0.0506395 0)
(5.21571 0.0204275 0)
(5.24295 -0.000447114 0)
(5.25047 -0.0121398 0)
(5.27636 -0.0165685 0)
(5.32251 -0.0224314 0)
(5.3715 -0.0338621 0)
(5.40735 -0.0475283 0)
(5.42417 -0.0571375 0)
(5.4265 -0.0603444 0)
(5.42347 -0.0594298 0)
(5.42233 -0.0573934 0)
(5.42589 -0.0563691 0)
(5.43433 -0.0569323 0)
(5.44623 -0.058655 0)
(5.46013 -0.0604182 0)
(5.4746 -0.0611832 0)
(4.9272 0.115234 0)
(5.11352 0.0564658 0)
(5.24756 0.0614796 0)
(5.30544 0.0445788 0)
(5.33638 0.0226218 0)
(5.37324 0.00798514 0)
(5.41602 -0.00260338 0)
(5.45271 -0.0125946 0)
(5.47551 -0.0213119 0)
(5.48368 -0.0278781 0)
(5.48237 -0.0318323 0)
(5.47889 -0.0339945 0)
(5.47839 -0.0354069 0)
(5.48243 -0.0371729 0)
(5.49095 -0.0400414 0)
(5.50327 -0.0442962 0)
(5.51868 -0.0501142 0)
(5.53628 -0.0563251 0)
(5.03986 0.0231785 0)
(5.19643 -0.0558466 0)
(5.31029 -0.0278569 0)
(5.3912 -0.0366637 0)
(5.44073 -0.048901 0)
(5.46765 -0.0545023 0)
(5.47834 -0.0579254 0)
(5.47957 -0.0606198 0)
(5.47795 -0.061281 0)
(5.47711 -0.059961 0)
(5.47761 -0.0583354 0)
(5.4781 -0.0585024 0)
(5.47526 -0.0611573 0)
(5.46633 -0.0655997 0)
(5.44949 -0.0703592 0)
(5.42692 -0.0746522 0)
(5.39978 -0.0783076 0)
(5.37345 -0.0809438 0)
(4.80429 0.0553078 0)
(4.9575 0.0184739 0)
(4.97316 0.0104762 0)
(4.87814 -0.0103225 0)
(4.75834 -0.0139275 0)
(4.65534 -0.00912582 0)
(4.56271 -0.0084045 0)
(4.46471 -0.0140094 0)
(4.35674 -0.0223465 0)
(4.24187 -0.0294281 0)
(4.12545 -0.0328034 0)
(4.01285 -0.031939 0)
(3.9065 -0.0278969 0)
(3.80663 -0.0232061 0)
(3.7101 -0.0207539 0)
(3.61524 -0.0219962 0)
(3.51719 -0.0267488 0)
(3.41612 -0.032457 0)
(-0.000309955 -0.0167207 8.41112e-22)
(-0.0137302 -0.0141288 -8.34476e-22)
(-0.0286776 -0.0105405 0)
(-0.0470447 -0.00560722 0)
(-0.0700833 0.000775769 0)
(-0.0983565 0.0082172 7.99747e-22)
(-0.132441 0.0163269 0)
(-0.172591 0.0247517 0)
(-0.218948 0.0332465 0)
(-0.271566 0.0416754 0)
(-0.330446 0.0499721 -7.40696e-22)
(-0.395552 0.0580758 0)
(-0.466795 0.0659192 0)
(-0.544031 0.0734239 0)
(-0.627054 0.0804984 0)
(-0.715597 0.0870368 -6.60852e-22)
(-0.809335 0.0929307 0)
(-0.907899 0.0980954 0)
(-1.01087 0.102486 0)
(-1.11765 0.106085 0)
(-1.2275 0.108819 0)
(-1.33961 0.110603 0)
(-1.4531 0.111359 0)
(-1.567 0.111019 -4.81261e-22)
(-1.68024 0.109519 4.55917e-22)
(-1.79167 0.106795 -4.30776e-22)
(-1.9 0.102798 -4.06275e-22)
(-2.0039 0.0975081 0)
(-2.10194 0.0909382 0)
(-2.19266 0.083127 3.41919e-22)
(-2.2746 0.0741369 3.2552e-22)
(-2.34631 0.0640714 0)
(-2.40645 0.0530888 0)
(-2.45378 0.0413891 3.00009e-22)
(-2.48728 0.0292002 0)
(-2.50602 0.0168176 0)
(-2.50908 0.00459138 -3.19534e-22)
(-2.49707 -0.00727758 0)
(-2.46985 -0.0187502 -3.6001e-22)
(-2.42779 -0.0296966 -7.75846e-22)
(-2.37135 -0.0400098 0)
(-2.30125 -0.0495455 0)
(-2.21845 -0.0581821 0)
(-2.12401 -0.0658216 0)
(-2.01916 -0.0723943 0)
(-1.90523 -0.077863 -1.24772e-21)
(-1.7836 -0.0822214 -1.33469e-21)
(-1.6557 -0.0854892 -1.42002e-21)
(-1.52287 -0.0877145 0)
(-1.38645 -0.0889742 1.5811e-21)
(-1.24773 -0.0893409 0)
(-1.10784 -0.0888913 -1.72357e-21)
(-0.967776 -0.0877622 -1.78643e-21)
(-0.828503 -0.0860244 0)
(-0.690916 -0.0837742 0)
(-0.555708 -0.0811312 0)
(-0.423346 -0.0780331 -1.97766e-21)
(-0.294446 -0.0748605 0)
(-0.169514 -0.0714294 0)
(-0.0490185 -0.0678958 0)
(0.0667329 -0.0643839 0)
(0.17803 -0.060765 0)
(0.284803 -0.0571636 0)
(0.386856 -0.0536099 0)
(0.48416 -0.0501288 0)
(0.576734 -0.0467403 2.10486e-21)
(0.664628 -0.0434601 0)
(0.747923 -0.0402999 0)
(0.826717 -0.0372687 -2.08747e-21)
(0.901124 -0.0343724 -2.07787e-21)
(0.971274 -0.0316149 0)
(1.0373 -0.0289984 2.0544e-21)
(1.09935 -0.0265235 -2.04091e-21)
(1.15758 -0.0241897 0)
(1.21212 -0.0219953 2.01126e-21)
(1.26315 -0.0199382 0)
(1.3108 -0.0180153 0)
(1.35525 -0.016223 -1.96206e-21)
(1.39663 -0.0145575 0)
(1.4351 -0.0130143 1.92732e-21)
(1.47081 -0.011589 0)
(1.50391 -0.0102765 -1.89175e-21)
(1.53454 -0.0090718 -1.87379e-21)
(1.56283 -0.00796966 -1.85578e-21)
(1.58894 -0.00696473 -3.67551e-21)
(1.61299 -0.00605155 3.6395e-21)
(1.6351 -0.00522455 0)
(1.6554 -0.00447813 0)
(1.67401 -0.00380658 0)
(1.69104 -0.00320409 3.49685e-21)
(1.70661 -0.00266493 3.46171e-21)
(1.72081 -0.00218377 -3.42684e-21)
(1.73374 -0.00175585 0)
(1.7455 -0.00137679 3.35797e-21)
(1.75617 -0.00104247 3.32399e-21)
(1.76584 -0.000748698 3.29033e-21)
(1.77459 -0.000491766 0)
(1.78249 -0.000268177 0)
(1.7896 -7.40867e-05 0)
(1.79598 9.30981e-05 3.15896e-21)
(1.80171 0.000236668 0)
(1.80683 0.000359805 0)
(1.81139 0.000463436 -3.0639e-21)
(1.81544 0.000552343 0)
(1.81902 0.000626676 0)
(1.82218 0.000688077 -2.97176e-21)
(1.82494 0.000743207 0)
(1.82734 0.000787248 0)
(1.82941 0.000828999 2.88243e-21)
(1.83115 0.000874912 2.85325e-21)
(1.83258 0.000921864 0)
(1.83373 0.000963136 -2.79576e-21)
(1.83461 0.00100161 0)
(1.83525 0.00104164 2.73938e-21)
(1.83566 0.00107684 0)
(1.83587 0.0010987 2.68408e-21)
(1.8359 0.00111561 2.65681e-21)
(1.83575 0.00113197 0)
(1.83543 0.00114768 0)
(1.83497 0.00116022 0)
(1.83437 0.00116681 0)
(1.83365 0.00116427 0)
(1.83283 0.00115115 0)
(1.83193 0.00112877 0)
(1.83097 0.00110035 2.44725e-21)
(1.82996 0.0010695 -2.42207e-21)
(1.82892 0.00103905 0)
(1.82784 0.00101044 0)
(1.82672 0.00098402 0)
(1.82557 0.00095951 0)
(1.82439 0.000936555 -4.59859e-21)
(1.82317 0.000914904 0)
(1.82192 0.000894493 4.50311e-21)
(1.82064 0.000875332 -4.45593e-21)
(1.81933 0.000857474 0)
(1.818 0.000840933 0)
(1.81663 0.000825703 0)
(1.81524 0.000811744 4.27076e-21)
(1.81382 0.000799009 4.22532e-21)
(1.81238 0.000787437 0)
(1.81091 0.000776967 4.13544e-21)
(1.80942 0.000767528 4.09098e-21)
(1.80791 0.000759049 -4.04684e-21)
(1.80637 0.000751461 0)
(1.80481 0.00074472 0)
(1.80323 0.000738807 -3.91628e-21)
(1.80162 0.000733713 0)
(1.79999 0.000729428 0)
(1.79833 0.000725949 0)
(1.79665 0.000723283 0)
(1.79494 0.000721459 3.70476e-21)
(1.79321 0.000720542 3.66334e-21)
(1.79144 0.00072061 0)
(1.78965 0.000721801 3.58138e-21)
(1.78782 0.000724233 0)
(1.78595 0.000728213 0)
(1.78403 0.000733844 3.4606e-21)
(1.78207 0.000741833 0)
(1.78006 0.00075202 3.38152e-21)
(1.77798 0.000766077 0)
(1.77582 0.000783082 0)
(1.77358 0.000806518 3.26513e-21)
(1.7712 0.000834537 0)
(1.76874 0.000872294 3.1891e-21)
(1.76603 0.000919599 0)
(1.76323 0.000978827 0)
(1.75998 0.00106177 0)
(1.75669 0.00115279 -3.04142e-21)
(1.75252 0.0013065 0)
(1.74845 0.00143977 2.9704e-21)
(1.7427 0.00175242 0)
(1.73725 0.00191889 0)
(1.72878 0.00262754 0)
(1.72046 0.00273053 0)
(1.70754 0.00455035 0)
(1.69166 0.00412988 0)
(1.67266 0.00951808 0)
(1.63222 0.00684756 -5.46983e-21)
(1.60935 0.0263015 0)
(1.47444 0.0201597 0)
(-0.016447 0.0494748 -2.52975e-21)
(-0.0778947 0.0758529 2.50934e-21)
(-0.137663 0.0838159 0)
(-0.19966 0.0956126 -1.64222e-21)
(-0.263547 0.109321 0)
(-0.32944 0.124121 -7.99119e-22)
(-0.397405 0.139323 1.58191e-21)
(-0.467547 0.154568 1.55892e-21)
(-0.540007 0.169673 0)
(-0.614888 0.184512 1.50842e-21)
(-0.692253 0.198966 7.39813e-22)
(-0.772131 0.212913 0)
(-0.854507 0.226215 0)
(-0.939336 0.23872 0)
(-1.02653 0.250272 0)
(-1.11594 0.260714 6.59991e-22)
(-1.20738 0.2699 0)
(-1.30059 0.277691 -1.23257e-21)
(-1.39526 0.283954 0)
(-1.49109 0.288559 0)
(-1.58774 0.291334 1.09365e-21)
(-1.68477 0.292093 0)
(-1.78167 0.290641 -9.91668e-22)
(-1.87781 0.286778 4.80769e-22)
(-1.9725 0.280305 -4.55479e-22)
(-2.06492 0.271035 4.3039e-22)
(-2.15414 0.258812 4.05936e-22)
(-2.23915 0.243518 0)
(-2.3188 0.225087 0)
(-2.39189 0.203513 -3.41703e-22)
(-2.45717 0.178871 2.84361e-22)
(-2.5134 0.151333 0)
(-2.55937 0.121182 0)
(-2.59399 0.088811 -2.999e-22)
(-2.61626 0.0547124 0)
(-2.62546 0.0194766 0)
(-2.62098 -0.0162231 3.19461e-22)
(-2.60142 -0.0517366 0)
(-2.56674 -0.0864742 -3.18743e-22)
(-2.51694 -0.119846 7.75632e-22)
(-2.45251 -0.151339 0)
(-2.37415 -0.180485 0)
(-2.28283 -0.206897 1.92144e-21)
(-2.1797 -0.230275 2.09348e-21)
(-2.06605 -0.250412 2.27124e-21)
(-1.94326 -0.2672 -1.204e-21)
(-1.8128 -0.280624 1.3343e-21)
(-1.6761 -0.290753 4.22584e-21)
(-1.53457 -0.297733 -2.97566e-21)
(-1.38958 -0.301771 -1.58069e-21)
(-1.24242 -0.303104 0)
(-1.09422 -0.302014 1.72318e-21)
(-0.945939 -0.298834 -1.7706e-21)
(-0.798486 -0.293793 0)
(-0.652771 -0.287246 0)
(-0.509381 -0.279465 0)
(-0.368924 -0.270559 1.97745e-21)
(-0.23195 -0.261056 0)
(-0.0986894 -0.250888 -4.06971e-21)
(0.0300704 -0.240352 0)
(0.154371 -0.22975 -4.14911e-21)
(0.274542 -0.218944 0)
(0.390273 -0.208145 4.19196e-21)
(0.501499 -0.19745 0)
(0.608207 -0.186933 -4.20609e-21)
(0.710421 -0.176654 2.10009e-21)
(0.808198 -0.166657 0)
(0.901617 -0.156973 4.18551e-21)
(0.990774 -0.147627 2.08663e-21)
(1.07578 -0.138636 2.07702e-21)
(1.15675 -0.13001 0)
(1.23381 -0.121756 2.05078e-21)
(1.30709 -0.113874 2.04002e-21)
(1.37671 -0.106364 0)
(1.44282 -0.099221 -2.01033e-21)
(1.50555 -0.0924403 3.98673e-21)
(1.56502 -0.0860144 0)
(1.62136 -0.0799349 1.9611e-21)
(1.67471 -0.0741925 0)
(1.72519 -0.0687772 -5.77734e-21)
(1.77291 -0.0636785 0)
(1.818 -0.0588856 5.67074e-21)
(1.86058 -0.0543872 1.87276e-21)
(1.90075 -0.0501721 -1.85346e-21)
(1.93862 -0.0462287 -3.67102e-21)
(1.97431 -0.0425454 3.63515e-21)
(2.0079 -0.0391106 0)
(2.03951 -0.0359125 0)
(2.06923 -0.0329392 0)
(2.09714 -0.0301791 -1.04823e-20)
(2.12335 -0.02762 -3.45953e-21)
(2.14793 -0.0252505 3.42465e-21)
(2.17098 -0.0230594 0)
(2.19256 -0.0210363 3.3545e-21)
(2.21276 -0.0191707 -3.32179e-21)
(2.23164 -0.0174526 -3.28813e-21)
(2.2493 -0.0158723 0)
(2.26578 -0.0144206 0)
(2.28116 -0.0130882 0)
(2.2955 -0.0118667 -3.15678e-21)
(2.30887 -0.0107479 0)
(2.32131 -0.00972353 6.18552e-21)
(2.33288 -0.0087871 9.18463e-21)
(2.34364 -0.00793046 -6.06089e-21)
(2.35364 -0.00714767 0)
(2.36292 -0.00643301 -2.96917e-21)
(2.37152 -0.00577716 0)
(2.3795 -0.00517832 -5.81926e-21)
(2.38688 -0.00462727 2.88e-21)
(2.39373 -0.00411726 2.85087e-21)
(2.4001 -0.00364996 0)
(2.406 -0.00322551 8.38104e-21)
(2.41147 -0.00283915 -5.53067e-21)
(2.41654 -0.00248984 -2.73744e-21)
(2.42123 -0.002173 0)
(2.42556 -0.00187667 -2.68218e-21)
(2.42956 -0.00160477 -7.96459e-21)
(2.43325 -0.00135957 0)
(2.43666 -0.00113468 -5.2022e-21)
(2.4398 -0.000932136 -5.14919e-21)
(2.44269 -0.00075131 -5.09665e-21)
(2.44536 -0.000592992 0)
(2.44782 -0.000457901 0)
(2.45009 -0.000344888 0)
(2.45218 -0.000250887 2.44547e-21)
(2.45411 -0.000171548 2.42039e-21)
(2.45589 -0.000102228 0)
(2.45753 -3.91984e-05 4.74139e-21)
(2.45904 1.99146e-05 4.69234e-21)
(2.46042 7.60957e-05 0)
(2.46167 0.000129484 4.59547e-21)
(2.46281 0.000179764 9.09511e-21)
(2.46383 0.000226641 -4.50008e-21)
(2.46475 0.000269924 -4.45289e-21)
(2.46556 0.000309645 0)
(2.46627 0.000345935 0)
(2.4669 0.000379043 0)
(2.46744 0.000409215 -4.26796e-21)
(2.46791 0.000436738 4.22253e-21)
(2.4683 0.000461863 8.35498e-21)
(2.46863 0.000484856 -4.13277e-21)
(2.46889 0.000505946 4.08832e-21)
(2.4691 0.00052535 4.04426e-21)
(2.46925 0.000543265 0)
(2.46935 0.000559889 0)
(2.46941 0.000575433 -3.9138e-21)
(2.46942 0.000590117 0)
(2.46939 0.000604162 0)
(2.46933 0.000617796 7.57226e-21)
(2.46922 0.00063126 0)
(2.46908 0.000644823 3.70248e-21)
(2.46891 0.0006588 -3.66113e-21)
(2.46871 0.000673546 0)
(2.46847 0.000689504 3.57921e-21)
(2.46819 0.000707158 0)
(2.46789 0.000727185 0)
(2.46754 0.000750272 -3.45857e-21)
(2.46716 0.000777509 6.8378e-21)
(2.46674 0.000809918 -3.37957e-21)
(2.46626 0.000849173 0)
(2.46573 0.000897208 0)
(2.46513 0.000955834 3.26318e-21)
(2.46445 0.00103042 0)
(2.46368 0.00111943 3.18718e-21)
(2.46279 0.00124068 0)
(2.46175 0.00137591 0)
(2.46051 0.00158321 0)
(2.45906 0.00178508 3.03976e-21)
(2.45727 0.00216213 0)
(2.45511 0.00244818 -2.96879e-21)
(2.45241 0.00319037 0)
(2.44899 0.00354661 0)
(2.44479 0.00515031 5.73437e-21)
(2.43881 0.00543211 -5.67094e-21)
(2.43227 0.00925407 0)
(2.42044 0.00893253 0)
(2.41057 0.0190885 0)
(2.38368 0.0171735 1.63816e-20)
(2.37142 0.0484329 0)
(2.30512 0.0482279 -1.07722e-20)
(-0.0211031 0.182192 -2.02513e-24)
(-0.0972287 0.235335 -3.35125e-21)
(-0.168598 0.241081 0)
(-0.241238 0.251713 3.28493e-21)
(-0.3131 0.263841 0)
(-0.384813 0.277197 0)
(-0.45648 0.291331 2.43802e-25)
(-0.52841 0.30614 -1.55831e-21)
(-0.6008 0.321353 -1.53259e-21)
(-0.673943 0.336737 -1.50784e-21)
(-0.748104 0.352098 0)
(-0.823537 0.367236 0)
(-0.900454 0.381965 1.41362e-21)
(-0.979039 0.396091 2.75776e-21)
(-1.05945 0.409415 -2.68384e-21)
(-1.14185 0.42173 0)
(-1.22635 0.432814 -2.52181e-21)
(-1.31306 0.442426 1.23222e-21)
(-1.40202 0.450302 0)
(-1.49322 0.456145 -2.24189e-21)
(-1.58653 0.459651 -1.09337e-21)
(-1.68173 0.460489 2.03197e-21)
(-1.77846 0.458299 9.91426e-22)
(-1.87617 0.452692 0)
(-1.97412 0.443264 -1.69318e-21)
(-2.07141 0.429615 -1.57854e-21)
(-2.16695 0.411367 0)
(-2.25947 0.388195 -1.35772e-21)
(-2.34752 0.35986 0)
(-2.42951 0.326244 -1.16501e-21)
(-2.50375 0.287382 -6.09531e-22)
(-2.56855 0.243485 0)
(-2.62225 0.194956 0)
(-2.66328 0.14239 0)
(-2.69034 0.0865781 0)
(-2.70235 0.0284415 0)
(-2.69834 -0.0310199 0)
(-2.67769 -0.090617 -1.11312e-21)
(-2.64043 -0.149161 1.89289e-21)
(-2.58691 -0.205543 0)
(-2.51782 -0.258741 0)
(-2.43407 -0.307895 0)
(-2.33684 -0.352307 -1.06164e-22)
(-2.22748 -0.39146 -2.09273e-21)
(-2.10747 -0.425013 -4.45538e-21)
(-1.97839 -0.4528 4.82537e-21)
(-1.84185 -0.474817 2.5635e-21)
(-1.69945 -0.491215 -2.80521e-21)
(-1.5527 -0.502284 4.97662e-23)
(-1.40304 -0.508409 -3.09289e-21)
(-1.25183 -0.510031 0)
(-1.10024 -0.507631 -3.39562e-21)
(-0.949221 -0.501718 2.71504e-23)
(-0.799659 -0.492846 0)
(-0.652436 -0.481541 0)
(-0.508041 -0.468174 3.84823e-21)
(-0.367053 -0.453278 0)
(-0.229921 -0.43716 0)
(-0.0968001 -0.420154 -4.04365e-21)
(0.0314107 -0.402646 -8.20471e-21)
(0.154954 -0.384919 4.1481e-21)
(0.274289 -0.367059 0)
(0.38905 -0.349262 -4.19105e-21)
(0.499225 -0.331683 0)
(0.604844 -0.314439 -4.18998e-21)
(0.705969 -0.297622 -4.2034e-21)
(0.802684 -0.281298 8.37935e-21)
(0.895095 -0.265518 4.17226e-21)
(0.98332 -0.250315 0)
(1.06749 -0.235711 -8.28966e-21)
(1.14773 -0.221719 0)
(1.22418 -0.208344 -1.23017e-20)
(1.29699 -0.195583 -8.14487e-21)
(1.36628 -0.18343 -8.08806e-21)
(1.43221 -0.171876 8.02801e-21)
(1.4949 -0.160907 -1.19517e-20)
(1.55449 -0.150507 0)
(1.61111 -0.14066 0)
(1.66488 -0.131347 7.76523e-21)
(1.71594 -0.122551 1.15466e-20)
(1.76439 -0.114251 0)
(1.81035 -0.106428 -3.77978e-21)
(1.85393 -0.0990615 0)
(1.89524 -0.0921331 1.11198e-20)
(1.93438 -0.0856227 3.95803e-24)
(1.97144 -0.0795113 -3.674e-24)
(2.00651 -0.07378 -7.19706e-21)
(2.03969 -0.0684106 0)
(2.07107 -0.0633851 7.05505e-21)
(2.10071 -0.0586861 2.70959e-24)
(2.12871 -0.0542968 0)
(2.15513 -0.0502008 0)
(2.18006 -0.0463819 0)
(2.20355 -0.0428245 -6.70996e-21)
(2.22568 -0.0395136 0)
(2.24651 -0.0364346 0)
(2.26611 -0.0335738 0)
(2.28453 -0.0309177 0)
(2.30184 -0.0284533 0)
(2.31808 -0.0261689 -6.31124e-21)
(2.33331 -0.0240524 0)
(2.34759 -0.022093 -6.18519e-21)
(2.36097 -0.0202799 -6.12255e-21)
(2.37349 -0.0186033 6.06056e-21)
(2.38519 -0.0170537 0)
(2.39613 -0.0156215 5.93849e-21)
(2.40634 -0.0142988 0)
(2.41588 -0.0130768 5.81892e-21)
(2.42477 -0.0119498 -5.76004e-21)
(2.43305 -0.0109106 -1.71043e-20)
(2.44075 -0.0099543 0)
(2.44793 -0.00907477 -1.676e-20)
(2.45461 -0.00826494 -5.5296e-21)
(2.46081 -0.00751972 0)
(2.46658 -0.00683213 -1.0837e-20)
(2.47194 -0.00619102 -1.07271e-20)
(2.47693 -0.00559943 1.59275e-20)
(2.48157 -0.00505632 0)
(2.48587 -0.00456303 5.20188e-21)
(2.48987 -0.00411438 5.14887e-21)
(2.49358 -0.00370727 1.52886e-20)
(2.49703 -0.00334177 0)
(2.50022 -0.00301726 0)
(2.50317 -0.00273152 0)
(2.50589 -0.00248028 4.89051e-21)
(2.50841 -0.00225716 0)
(2.51073 -0.00205489 0)
(2.51287 -0.00186706 -4.74107e-21)
(2.51484 -0.00168927 -4.69202e-21)
(2.51666 -0.00151942 0)
(2.51834 -0.00135717 0)
(2.51988 -0.00120318 -9.09449e-21)
(2.52129 -0.00105832 0)
(2.52259 -0.000923226 8.90523e-21)
(2.52378 -0.000798138 8.81165e-21)
(2.52487 -0.000682916 0)
(2.52587 -0.00057713 0)
(2.52678 -0.000480215 -8.53527e-21)
(2.52762 -0.000391523 -2.41593e-26)
(2.52838 -0.000310403 -2.19898e-26)
(2.52907 -0.000236214 0)
(2.5297 -0.000168356 -1.63522e-20)
(2.53027 -0.000106251 0)
(2.53079 -4.93525e-05 0)
(2.53126 2.87912e-06 0)
(2.53168 5.09771e-05 7.8271e-21)
(2.53207 9.54649e-05 0)
(2.53241 0.000136851 -1.53125e-20)
(2.53271 0.000175644 -7.57175e-21)
(2.53298 0.000212357 0)
(2.53322 0.000247548 -7.40449e-21)
(2.53343 0.000281804 0)
(2.53361 0.000315815 0)
(2.53376 0.00035029 -2.14739e-20)
(2.53388 0.000386175 1.41539e-20)
(2.53397 0.00042435 0)
(2.53403 0.000466303 1.38332e-20)
(2.53406 0.000513043 -6.83734e-21)
(2.53406 0.000567293 0)
(2.53401 0.000629688 0)
(2.53392 0.000706108 0)
(2.53378 0.000794787 -1.95778e-20)
(2.53358 0.000909987 0)
(2.53329 0.00104106 -6.37406e-21)
(2.53292 0.00122449 0)
(2.53241 0.00142189 0)
(2.53179 0.00172912 0)
(2.53091 0.00202659 0)
(2.52989 0.00256967 0)
(2.5284 0.00301049 0)
(2.52674 0.00403253 -1.1733e-20)
(2.52415 0.00466168 0)
(2.52144 0.00673785 -5.73396e-21)
(2.51682 0.00757293 1.7007e-20)
(2.51237 0.0121559 0)
(2.50389 0.0132542 0)
(2.49649 0.0243904 -1.09902e-20)
(2.48104 0.026923 -1.09137e-20)
(2.4697 0.0569798 1.08026e-20)
(2.44715 0.0682016 1.07707e-20)
(-0.0191681 0.305329 5.06504e-21)
(-0.0925603 0.386148 5.02341e-21)
(-0.160626 0.389351 3.31524e-21)
(-0.230275 0.397815 1.63716e-21)
(-0.298802 0.407672 0)
(-0.367224 0.419499 -3.20008e-21)
(-0.435456 0.432787 1.57384e-21)
(-0.503935 0.447137 0)
(-0.57299 0.462398 1.53239e-21)
(-0.643017 0.478488 0)
(-0.714303 0.495173 -2.94011e-21)
(-0.787153 0.512195 0)
(-0.861884 0.529288 -1.41346e-21)
(-0.93886 0.54621 -2.75746e-21)
(-1.01845 0.56272 2.68353e-21)
(-1.10098 0.578553 0)
(-1.18671 0.593416 2.52148e-21)
(-1.27581 0.606966 0)
(-1.36832 0.618801 0)
(-1.46422 0.628451 2.24149e-21)
(-1.56337 0.635382 0)
(-1.66553 0.638991 -7.19996e-23)
(-1.7703 0.638623 0)
(-1.8771 0.633578 0)
(-1.98513 0.623128 1.07249e-22)
(-2.09335 0.606546 1.57804e-21)
(-2.20045 0.583142 1.32956e-21)
(-2.30488 0.552308 1.35724e-21)
(-2.40485 0.51358 0)
(-2.49841 0.466692 2.14752e-21)
(-2.58348 0.411632 0)
(-2.65796 0.348691 8.15295e-22)
(-2.71981 0.278498 0)
(-2.76717 0.202019 0)
(-2.79847 0.120535 -7.28531e-22)
(-2.81246 0.0355722 0)
(-2.80821 -0.0511775 8.07891e-22)
(-2.78521 -0.137951 2.21969e-22)
(-2.74365 -0.222998 -2.21504e-21)
(-2.68402 -0.304632 2.27253e-21)
(-2.60723 -0.381333 0)
(-2.51454 -0.451819 0)
(-2.40748 -0.515092 1.49934e-21)
(-2.28774 -0.570446 0)
(-2.15715 -0.617453 2.18408e-21)
(-2.01756 -0.655933 -2.37398e-21)
(-1.87085 -0.685943 -2.5625e-21)
(-1.71883 -0.707773 0)
(-1.56319 -0.72191 2.92377e-21)
(-1.40546 -0.728964 3.09182e-21)
(-1.24703 -0.729651 -6.39135e-21)
(-1.08912 -0.72471 3.39456e-21)
(-0.932726 -0.714925 3.52733e-21)
(-0.778725 -0.701122 0)
(-0.627854 -0.683997 0)
(-0.480584 -0.664157 -3.84729e-21)
(-0.337425 -0.642365 0)
(-0.198712 -0.618965 0)
(-0.0646735 -0.59448 8.11067e-21)
(0.0639477 -0.5697 8.20262e-21)
(0.187624 -0.544402 0)
(0.306825 -0.519085 0)
(0.421165 -0.49397 0)
(0.5307 -0.469245 0)
(0.63551 -0.445056 8.39311e-21)
(0.735697 -0.421514 -8.36993e-21)
(0.831379 -0.398704 -8.37741e-21)
(0.922688 -0.376686 -1.66926e-20)
(1.00976 -0.3555 0)
(1.09274 -0.335169 1.57778e-23)
(1.17178 -0.315705 0)
(1.24703 -0.29711 8.19644e-21)
(1.31862 -0.279376 1.29306e-23)
(1.38672 -0.262493 8.0868e-21)
(1.45146 -0.246442 -8.02685e-21)
(1.51299 -0.231202 1.05196e-23)
(1.57144 -0.21675 0)