# vtk DataFile Version 2.0
sampleSurface
ASCII
DATASET POLYDATA
POINTS 502 double
-0.0206 0 -0.0005
-0.0190172 0 -0.0005
-0.0190172 0 0.0005
-0.0206 0 0.0005
-0.0174976 0 -0.0005
-0.0174976 0 0.0005
-0.0160387 0 -0.0005
-0.0160387 0 0.0005
-0.0146381 0 -0.0005
-0.0146381 0 0.0005
-0.0132934 0 -0.0005
-0.0132934 0 0.0005
-0.0120025 0 -0.0005
-0.0120025 0 0.0005
-0.0107632 0 -0.0005
-0.0107632 0 0.0005
-0.00957337 0 -0.0005
-0.00957337 0 0.0005
-0.00843108 0 -0.0005
-0.00843108 0 0.0005
-0.00733443 0 -0.0005
-0.00733443 0 0.0005
-0.0062816 0 -0.0005
-0.0062816 0 0.0005
-0.00527083 0 -0.0005
-0.00527083 0 0.0005
-0.00430044 0 -0.0005
-0.00430044 0 0.0005
-0.00336883 0 -0.0005
-0.00336883 0 0.0005
-0.00247443 0 -0.0005
-0.00247443 0 0.0005
-0.00161577 0 -0.0005
-0.00161577 0 0.0005
-0.000791418 0 -0.0005
-0.000791418 0 0.0005
0 0 -0.0005
0 0 0.0005
0 -0.0254 -0.0005
0 -0.0254 0.0005
0 -0.0242711 0.0005
0 -0.0242711 -0.0005
0 -0.0231422 0.0005
0 -0.0231422 -0.0005
0 -0.0220133 0.0005
0 -0.0220133 -0.0005
0 -0.0208844 0.0005
0 -0.0208844 -0.0005
0 -0.0197556 0.0005
0 -0.0197556 -0.0005
0 -0.0186267 0.0005
0 -0.0186267 -0.0005
0 -0.0174978 0.0005
0 -0.0174978 -0.0005
0 -0.0163689 0.0005
0 -0.0163689 -0.0005
0 -0.01524 0.0005
0 -0.01524 -0.0005
0 -0.0141111 0.0005
0 -0.0141111 -0.0005
0 -0.0129822 0.0005
0 -0.0129822 -0.0005
0 -0.0118533 0.0005
0 -0.0118533 -0.0005
0 -0.0107244 0.0005
0 -0.0107244 -0.0005
0 -0.00959556 0.0005
0 -0.00959556 -0.0005
0 -0.00846667 0.0005
0 -0.00846667 -0.0005
0 -0.00726604 0.0005
0 -0.00726604 -0.0005
0 -0.00618989 0.0005
0 -0.00618989 -0.0005
0 -0.00522531 0.0005
0 -0.00522531 -0.0005
0 -0.00436073 0.0005
0 -0.00436073 -0.0005
0 -0.00358579 0.0005
0 -0.00358579 -0.0005
0 -0.00289118 0.0005
0 -0.00289118 -0.0005
0 -0.0022686 0.0005
0 -0.0022686 -0.0005
0 -0.00171055 0.0005
0 -0.00171055 -0.0005
0 -0.00121037 0.0005
0 -0.00121037 -0.0005
0 -0.000762037 0.0005
0 -0.000762037 -0.0005
0 -0.000360188 0.0005
0 -0.000360188 -0.0005
0.000528387 -0.0254 -0.0005
0.000528387 -0.0254 0.0005
0.00106088 -0.0254 -0.0005
0.00106088 -0.0254 0.0005
0.00159752 -0.0254 -0.0005
0.00159752 -0.0254 0.0005
0.00213833 -0.0254 -0.0005
0.00213833 -0.0254 0.0005
0.00268334 -0.0254 -0.0005
0.00268334 -0.0254 0.0005
0.00323259 -0.0254 -0.0005
0.00323259 -0.0254 0.0005
0.00378611 -0.0254 -0.0005
0.00378611 -0.0254 0.0005
0.00434393 -0.0254 -0.0005
0.00434393 -0.0254 0.0005
0.00490609 -0.0254 -0.0005
0.00490609 -0.0254 0.0005
0.00547262 -0.0254 -0.0005
0.00547262 -0.0254 0.0005
0.00604356 -0.0254 -0.0005
0.00604356 -0.0254 0.0005
0.00661893 -0.0254 -0.0005
0.00661893 -0.0254 0.0005
0.00719878 -0.0254 -0.0005
0.00719878 -0.0254 0.0005
0.00778313 -0.0254 -0.0005
0.00778313 -0.0254 0.0005
0.00837203 -0.0254 -0.0005
0.00837203 -0.0254 0.0005
0.00896551 -0.0254 -0.0005
0.00896551 -0.0254 0.0005
0.0095636 -0.0254 -0.0005
0.0095636 -0.0254 0.0005
0.0101663 -0.0254 -0.0005
0.0101663 -0.0254 0.0005
0.0107738 -0.0254 -0.0005
0.0107738 -0.0254 0.0005
0.0113859 -0.0254 -0.0005
0.0113859 -0.0254 0.0005
0.0120028 -0.0254 -0.0005
0.0120028 -0.0254 0.0005
0.0126245 -0.0254 -0.0005
0.0126245 -0.0254 0.0005
0.0132511 -0.0254 -0.0005
0.0132511 -0.0254 0.0005
0.0138825 -0.0254 -0.0005
0.0138825 -0.0254 0.0005
0.0145188 -0.0254 -0.0005
0.0145188 -0.0254 0.0005
0.0151601 -0.0254 -0.0005
0.0151601 -0.0254 0.0005
0.0158063 -0.0254 -0.0005
0.0158063 -0.0254 0.0005
0.0164576 -0.0254 -0.0005
0.0164576 -0.0254 0.0005
0.0171139 -0.0254 -0.0005
0.0171139 -0.0254 0.0005
0.0177754 -0.0254 -0.0005
0.0177754 -0.0254 0.0005
0.018442 -0.0254 -0.0005
0.018442 -0.0254 0.0005
0.0191137 -0.0254 -0.0005
0.0191137 -0.0254 0.0005
0.0197907 -0.0254 -0.0005
0.0197907 -0.0254 0.0005
0.020473 -0.0254 -0.0005
0.020473 -0.0254 0.0005
0.0211606 -0.0254 -0.0005
0.0211606 -0.0254 0.0005
0.0218535 -0.0254 -0.0005
0.0218535 -0.0254 0.0005
0.0225517 -0.0254 -0.0005
0.0225517 -0.0254 0.0005
0.0232555 -0.0254 -0.0005
0.0232555 -0.0254 0.0005
0.0239647 -0.0254 -0.0005
0.0239647 -0.0254 0.0005
0.0246794 -0.0254 -0.0005
0.0246794 -0.0254 0.0005
0.0253996 -0.0254 -0.0005
0.0253996 -0.0254 0.0005
0.0261255 -0.0254 -0.0005
0.0261255 -0.0254 0.0005
0.026857 -0.0254 -0.0005
0.026857 -0.0254 0.0005
0.0275942 -0.0254 -0.0005
0.0275942 -0.0254 0.0005
0.0283371 -0.0254 -0.0005
0.0283371 -0.0254 0.0005
0.0290858 -0.0254 -0.0005
0.0290858 -0.0254 0.0005
0.0298403 -0.0254 -0.0005
0.0298403 -0.0254 0.0005
0.0306007 -0.0254 -0.0005
0.0306007 -0.0254 0.0005
0.031367 -0.0254 -0.0005
0.031367 -0.0254 0.0005
0.0321393 -0.0254 -0.0005
0.0321393 -0.0254 0.0005
0.0329175 -0.0254 -0.0005
0.0329175 -0.0254 0.0005
0.0337019 -0.0254 -0.0005
0.0337019 -0.0254 0.0005
0.0344923 -0.0254 -0.0005
0.0344923 -0.0254 0.0005
0.0352888 -0.0254 -0.0005
0.0352888 -0.0254 0.0005
0.0360916 -0.0254 -0.0005
0.0360916 -0.0254 0.0005
0.0369006 -0.0254 -0.0005
0.0369006 -0.0254 0.0005
0.0377158 -0.0254 -0.0005
0.0377158 -0.0254 0.0005
0.0385375 -0.0254 -0.0005
0.0385375 -0.0254 0.0005
0.0393655 -0.0254 -0.0005
0.0393655 -0.0254 0.0005
0.0401999 -0.0254 -0.0005
0.0401999 -0.0254 0.0005
0.0410408 -0.0254 -0.0005
0.0410408 -0.0254 0.0005
0.0418883 -0.0254 -0.0005
0.0418883 -0.0254 0.0005
0.0427424 -0.0254 -0.0005
0.0427424 -0.0254 0.0005
0.0436031 -0.0254 -0.0005
0.0436031 -0.0254 0.0005
0.0444704 -0.0254 -0.0005
0.0444704 -0.0254 0.0005
0.0453446 -0.0254 -0.0005
0.0453446 -0.0254 0.0005
0.0462255 -0.0254 -0.0005
0.0462255 -0.0254 0.0005
0.0471133 -0.0254 -0.0005
0.0471133 -0.0254 0.0005
0.048008 -0.0254 -0.0005
0.048008 -0.0254 0.0005
0.0489096 -0.0254 -0.0005
0.0489096 -0.0254 0.0005
0.0498183 -0.0254 -0.0005
0.0498183 -0.0254 0.0005
0.050734 -0.0254 -0.0005
0.050734 -0.0254 0.0005
0.0516568 -0.0254 -0.0005
0.0516568 -0.0254 0.0005
0.0525868 -0.0254 -0.0005
0.0525868 -0.0254 0.0005
0.053524 -0.0254 -0.0005
0.053524 -0.0254 0.0005
0.0544686 -0.0254 -0.0005
0.0544686 -0.0254 0.0005
0.0554204 -0.0254 -0.0005
0.0554204 -0.0254 0.0005
0.0563797 -0.0254 -0.0005
0.0563797 -0.0254 0.0005
0.0573464 -0.0254 -0.0005
0.0573464 -0.0254 0.0005
0.0583206 -0.0254 -0.0005
0.0583206 -0.0254 0.0005
0.0593025 -0.0254 -0.0005
0.0593025 -0.0254 0.0005
0.0602919 -0.0254 -0.0005
0.0602919 -0.0254 0.0005
0.0612891 -0.0254 -0.0005
0.0612891 -0.0254 0.0005
0.0622939 -0.0254 -0.0005
0.0622939 -0.0254 0.0005
0.0633067 -0.0254 -0.0005
0.0633067 -0.0254 0.0005
0.0643272 -0.0254 -0.0005
0.0643272 -0.0254 0.0005
0.0653557 -0.0254 -0.0005
0.0653557 -0.0254 0.0005
0.0663923 -0.0254 -0.0005
0.0663923 -0.0254 0.0005
0.0674368 -0.0254 -0.0005
0.0674368 -0.0254 0.0005
0.0684895 -0.0254 -0.0005
0.0684895 -0.0254 0.0005
0.0695504 -0.0254 -0.0005
0.0695504 -0.0254 0.0005
0.0706195 -0.0254 -0.0005
0.0706195 -0.0254 0.0005
0.0716969 -0.0254 -0.0005
0.0716969 -0.0254 0.0005
0.0727828 -0.0254 -0.0005
0.0727828 -0.0254 0.0005
0.073877 -0.0254 -0.0005
0.073877 -0.0254 0.0005
0.0749798 -0.0254 -0.0005
0.0749798 -0.0254 0.0005
0.0760911 -0.0254 -0.0005
0.0760911 -0.0254 0.0005
0.0772111 -0.0254 -0.0005
0.0772111 -0.0254 0.0005
0.0783398 -0.0254 -0.0005
0.0783398 -0.0254 0.0005
0.0794772 -0.0254 -0.0005
0.0794772 -0.0254 0.0005
0.0806235 -0.0254 -0.0005
0.0806235 -0.0254 0.0005
0.0817787 -0.0254 -0.0005
0.0817787 -0.0254 0.0005
0.0829429 -0.0254 -0.0005
0.0829429 -0.0254 0.0005
0.0841162 -0.0254 -0.0005
0.0841162 -0.0254 0.0005
0.0852985 -0.0254 -0.0005
0.0852985 -0.0254 0.0005
0.0864901 -0.0254 -0.0005
0.0864901 -0.0254 0.0005
0.0876909 -0.0254 -0.0005
0.0876909 -0.0254 0.0005
0.0889011 -0.0254 -0.0005
0.0889011 -0.0254 0.0005
0.0901207 -0.0254 -0.0005
0.0901207 -0.0254 0.0005
0.0913497 -0.0254 -0.0005
0.0913497 -0.0254 0.0005
0.0925883 -0.0254 -0.0005
0.0925883 -0.0254 0.0005
0.0938366 -0.0254 -0.0005
0.0938366 -0.0254 0.0005
0.0950945 -0.0254 -0.0005
0.0950945 -0.0254 0.0005
0.0963622 -0.0254 -0.0005
0.0963622 -0.0254 0.0005
0.0976398 -0.0254 -0.0005
0.0976398 -0.0254 0.0005
0.0989273 -0.0254 -0.0005
0.0989273 -0.0254 0.0005
0.100225 -0.0254 -0.0005
0.100225 -0.0254 0.0005
0.101532 -0.0254 -0.0005
0.101532 -0.0254 0.0005
0.10285 -0.0254 -0.0005
0.10285 -0.0254 0.0005
0.104178 -0.0254 -0.0005
0.104178 -0.0254 0.0005
0.105517 -0.0254 -0.0005
0.105517 -0.0254 0.0005
0.106865 -0.0254 -0.0005
0.106865 -0.0254 0.0005
0.108225 -0.0254 -0.0005
0.108225 -0.0254 0.0005
0.109594 -0.0254 -0.0005
0.109594 -0.0254 0.0005
0.110975 -0.0254 -0.0005
0.110975 -0.0254 0.0005
0.112366 -0.0254 -0.0005
0.112366 -0.0254 0.0005
0.113768 -0.0254 -0.0005
0.113768 -0.0254 0.0005
0.115181 -0.0254 -0.0005
0.115181 -0.0254 0.0005
0.116605 -0.0254 -0.0005
0.116605 -0.0254 0.0005
0.11804 -0.0254 -0.0005
0.11804 -0.0254 0.0005
0.119486 -0.0254 -0.0005
0.119486 -0.0254 0.0005
0.120943 -0.0254 -0.0005
0.120943 -0.0254 0.0005
0.122412 -0.0254 -0.0005
0.122412 -0.0254 0.0005
0.123892 -0.0254 -0.0005
0.123892 -0.0254 0.0005
0.125384 -0.0254 -0.0005
0.125384 -0.0254 0.0005
0.126887 -0.0254 -0.0005
0.126887 -0.0254 0.0005
0.128402 -0.0254 -0.0005
0.128402 -0.0254 0.0005
0.129928 -0.0254 -0.0005
0.129928 -0.0254 0.0005
0.131467 -0.0254 -0.0005
0.131467 -0.0254 0.0005
0.133017 -0.0254 -0.0005
0.133017 -0.0254 0.0005
0.13458 -0.0254 -0.0005
0.13458 -0.0254 0.0005
0.136155 -0.0254 -0.0005
0.136155 -0.0254 0.0005
0.137742 -0.0254 -0.0005
0.137742 -0.0254 0.0005
0.139341 -0.0254 -0.0005
0.139341 -0.0254 0.0005
0.140953 -0.0254 -0.0005
0.140953 -0.0254 0.0005
0.142577 -0.0254 -0.0005
0.142577 -0.0254 0.0005
0.144214 -0.0254 -0.0005
0.144214 -0.0254 0.0005
0.145863 -0.0254 -0.0005
0.145863 -0.0254 0.0005
0.147526 -0.0254 -0.0005
0.147526 -0.0254 0.0005
0.149201 -0.0254 -0.0005
0.149201 -0.0254 0.0005
0.15089 -0.0254 -0.0005
0.15089 -0.0254 0.0005
0.152591 -0.0254 -0.0005
0.152591 -0.0254 0.0005
0.154306 -0.0254 -0.0005
0.154306 -0.0254 0.0005
0.156034 -0.0254 -0.0005
0.156034 -0.0254 0.0005
0.157775 -0.0254 -0.0005
0.157775 -0.0254 0.0005
0.159531 -0.0254 -0.0005
0.159531 -0.0254 0.0005
0.161299 -0.0254 -0.0005
0.161299 -0.0254 0.0005
0.163082 -0.0254 -0.0005
0.163082 -0.0254 0.0005
0.164878 -0.0254 -0.0005
0.164878 -0.0254 0.0005
0.166688 -0.0254 -0.0005
0.166688 -0.0254 0.0005
0.168513 -0.0254 -0.0005
0.168513 -0.0254 0.0005
0.170351 -0.0254 -0.0005
0.170351 -0.0254 0.0005
0.172204 -0.0254 -0.0005
0.172204 -0.0254 0.0005
0.174071 -0.0254 -0.0005
0.174071 -0.0254 0.0005
0.175953 -0.0254 -0.0005
0.175953 -0.0254 0.0005
0.177849 -0.0254 -0.0005
0.177849 -0.0254 0.0005
0.17976 -0.0254 -0.0005
0.17976 -0.0254 0.0005
0.181686 -0.0254 -0.0005
0.181686 -0.0254 0.0005
0.183627 -0.0254 -0.0005
0.183627 -0.0254 0.0005
0.185583 -0.0254 -0.0005
0.185583 -0.0254 0.0005
0.187555 -0.0254 -0.0005
0.187555 -0.0254 0.0005
0.189541 -0.0254 -0.0005
0.189541 -0.0254 0.0005
0.191543 -0.0254 -0.0005
0.191543 -0.0254 0.0005
0.193561 -0.0254 -0.0005
0.193561 -0.0254 0.0005
0.195594 -0.0254 -0.0005
0.195594 -0.0254 0.0005
0.197643 -0.0254 -0.0005
0.197643 -0.0254 0.0005
0.199708 -0.0254 -0.0005
0.199708 -0.0254 0.0005
0.201789 -0.0254 -0.0005
0.201789 -0.0254 0.0005
0.203886 -0.0254 -0.0005
0.203886 -0.0254 0.0005
0.206 -0.0254 -0.0005
0.206 -0.0254 0.0005
0.208047 -0.0251856 -0.0005
0.208047 -0.0251856 0.0005
0.210173 -0.0249628 -0.0005
0.210173 -0.0249628 0.0005
0.212382 -0.0247314 -0.0005
0.212382 -0.0247314 0.0005
0.214677 -0.024491 -0.0005
0.214677 -0.024491 0.0005
0.217061 -0.0242412 -0.0005
0.217061 -0.0242412 0.0005
0.219538 -0.0239817 -0.0005
0.219538 -0.0239817 0.0005
0.222112 -0.0237121 -0.0005
0.222112 -0.0237121 0.0005
0.224785 -0.023432 -0.0005
0.224785 -0.023432 0.0005
0.227563 -0.023141 -0.0005
0.227563 -0.023141 0.0005
0.230449 -0.0228387 -0.0005
0.230449 -0.0228387 0.0005
0.233447 -0.0225246 -0.0005
0.233447 -0.0225246 0.0005
0.236562 -0.0221983 -0.0005
0.236562 -0.0221983 0.0005
0.239797 -0.0218593 -0.0005
0.239797 -0.0218593 0.0005
0.243159 -0.0215071 -0.0005
0.243159 -0.0215071 0.0005
0.246652 -0.0211412 -0.0005
0.246652 -0.0211412 0.0005
0.250281 -0.0207611 -0.0005
0.250281 -0.0207611 0.0005
0.254051 -0.0203661 -0.0005
0.254051 -0.0203661 0.0005
0.257967 -0.0199558 -0.0005
0.257967 -0.0199558 0.0005
0.262036 -0.0195295 -0.0005
0.262036 -0.0195295 0.0005
0.266264 -0.0190867 -0.0005
0.266264 -0.0190867 0.0005
0.270655 -0.0186266 -0.0005
0.270655 -0.0186266 0.0005
0.275218 -0.0181486 -0.0005
0.275218 -0.0181486 0.0005
0.279959 -0.017652 -0.0005
0.279959 -0.017652 0.0005
0.284883 -0.017136 -0.0005
0.284883 -0.017136 0.0005
0.29 -0.0166 -0.0005
0.29 -0.0166 0.0005

POLYGONS 250 1250
4 0 1 2 3
4 1 4 5 2
4 4 6 7 5
4 6 8 9 7
4 8 10 11 9
4 10 12 13 11
4 12 14 15 13
4 14 16 17 15
4 16 18 19 17
4 18 20 21 19
4 20 22 23 21
4 22 24 25 23
4 24 26 27 25
4 26 28 29 27
4 28 30 31 29
4 30 32 33 31
4 32 34 35 33
4 34 36 37 35
4 38 39 40 41
4 41 40 42 43
4 43 42 44 45
4 45 44 46 47
4 47 46 48 49
4 49 48 50 51
4 51 50 52 53
4 53 52 54 55
4 55 54 56 57
4 57 56 58 59
4 59 58 60 61
4 61 60 62 63
4 63 62 64 65
4 65 64 66 67
4 67 66 68 69
4 69 68 70 71
4 71 70 72 73
4 73 72 74 75
4 75 74 76 77
4 77 76 78 79
4 79 78 80 81
4 81 80 82 83
4 83 82 84 85
4 85 84 86 87
4 87 86 88 89
4 89 88 90 91
4 91 90 37 36
4 38 92 93 39
4 92 94 95 93
4 94 96 97 95
4 96 98 99 97
4 98 100 101 99
4 100 102 103 101
4 102 104 105 103
4 104 106 107 105
4 106 108 109 107
4 108 110 111 109
4 110 112 113 111
4 112 114 115 113
4 114 116 117 115
4 116 118 119 117
4 118 120 121 119
4 120 122 123 121
4 122 124 125 123
4 124 126 127 125
4 126 128 129 127
4 128 130 131 129
4 130 132 133 131
4 132 134 135 133
4 134 136 137 135
4 136 138 139 137
4 138 140 141 139
4 140 142 143 141
4 142 144 145 143
4 144 146 147 145
4 146 148 149 147
4 148 150 151 149
4 150 152 153 151
4 152 154 155 153
4 154 156 157 155
4 156 158 159 157
4 158 160 161 159
4 160 162 163 161
4 162 164 165 163
4 164 166 167 165
4 166 168 169 167
4 168 170 171 169
4 170 172 173 171
4 172 174 175 173
4 174 176 177 175
4 176 178 179 177
4 178 180 181 179
4 180 182 183 181
4 182 184 185 183
4 184 186 187 185
4 186 188 189 187
4 188 190 191 189
4 190 192 193 191
4 192 194 195 193
4 194 196 197 195
4 196 198 199 197
4 198 200 201 199
4 200 202 203 201
4 202 204 205 203
4 204 206 207 205
4 206 208 209 207
4 208 210 211 209
4 210 212 213 211
4 212 214 215 213
4 214 216 217 215
4 216 218 219 217
4 218 220 221 219
4 220 222 223 221
4 222 224 225 223
4 224 226 227 225
4 226 228 229 227
4 228 230 231 229
4 230 232 233 231
4 232 234 235 233
4 234 236 237 235
4 236 238 239 237
4 238 240 241 239
4 240 242 243 241
4 242 244 245 243
4 244 246 247 245
4 246 248 249 247
4 248 250 251 249
4 250 252 253 251
4 252 254 255 253
4 254 256 257 255
4 256 258 259 257
4 258 260 261 259
4 260 262 263 261
4 262 264 265 263
4 264 266 267 265
4 266 268 269 267
4 268 270 271 269
4 270 272 273 271
4 272 274 275 273
4 274 276 277 275
4 276 278 279 277
4 278 280 281 279
4 280 282 283 281
4 282 284 285 283
4 284 286 287 285
4 286 288 289 287
4 288 290 291 289
4 290 292 293 291
4 292 294 295 293
4 294 296 297 295
4 296 298 299 297
4 298 300 301 299
4 300 302 303 301
4 302 304 305 303
4 304 306 307 305
4 306 308 309 307
4 308 310 311 309
4 310 312 313 311
4 312 314 315 313
4 314 316 317 315
4 316 318 319 317
4 318 320 321 319
4 320 322 323 321
4 322 324 325 323
4 324 326 327 325
4 326 328 329 327
4 328 330 331 329
4 330 332 333 331
4 332 334 335 333
4 334 336 337 335
4 336 338 339 337
4 338 340 341 339
4 340 342 343 341
4 342 344 345 343
4 344 346 347 345
4 346 348 349 347
4 348 350 351 349
4 350 352 353 351
4 352 354 355 353
4 354 356 357 355
4 356 358 359 357
4 358 360 361 359
4 360 362 363 361
4 362 364 365 363
4 364 366 367 365
4 366 368 369 367
4 368 370 371 369
4 370 372 373 371
4 372 374 375 373
4 374 376 377 375
4 376 378 379 377
4 378 380 381 379
4 380 382 383 381
4 382 384 385 383
4 384 386 387 385
4 386 388 389 387
4 388 390 391 389
4 390 392 393 391
4 392 394 395 393
4 394 396 397 395
4 396 398 399 397
4 398 400 401 399
4 400 402 403 401
4 402 404 405 403
4 404 406 407 405
4 406 408 409 407
4 408 410 411 409
4 410 412 413 411
4 412 414 415 413
4 414 416 417 415
4 416 418 419 417
4 418 420 421 419
4 420 422 423 421
4 422 424 425 423
4 424 426 427 425
4 426 428 429 427
4 428 430 431 429
4 430 432 433 431
4 432 434 435 433
4 434 436 437 435
4 436 438 439 437
4 438 440 441 439
4 440 442 443 441
4 442 444 445 443
4 444 446 447 445
4 446 448 449 447
4 448 450 451 449
4 450 452 453 451
4 452 454 455 453
4 454 456 457 455
4 456 458 459 457
4 458 460 461 459
4 460 462 463 461
4 462 464 465 463
4 464 466 467 465
4 466 468 469 467
4 468 470 471 469
4 470 472 473 471
4 472 474 475 473
4 474 476 477 475
4 476 478 479 477
4 478 480 481 479
4 480 482 483 481
4 482 484 485 483
4 484 486 487 485
4 486 488 489 487
4 488 490 491 489
4 490 492 493 491
4 492 494 495 493
4 494 496 497 495
4 496 498 499 497
4 498 500 501 499
POINT_DATA 502
FIELD attributes 1
U 3 502 float
1.65646 0.114731 0.00688148
0.829395 0.0569328 0.0033912
0.829395 0.0569328 0.0033912
1.65646 0.114731 0.00688148
0.0243207 0.000687089 0
0.0243207 0.000687089 0
0.0217563 0.00055314 0
0.0217563 0.00055314 0
0.019532 0.000485803 0
0.019532 0.000485803 0
0.0172538 0.00044008 0
0.0172538 0.00044008 0
0.0150087 0.000382911 0
0.0150087 0.000382911 0
0.0129418 0.000323399 0
0.0129418 0.000323399 0
0.0110841 0.000276337 0
0.0110841 0.000276337 0
0.00941053 0.000236744 0
0.00941053 0.000236744 0
0.00790913 0.000191827 0
0.00790913 0.000191827 0
0.00659847 0.000141639 0
0.00659847 0.000141639 0
0.00547561 9.73422e-05 0
0.00547561 9.73422e-05 0
0.00453266 6.7235e-05 0
0.00453266 6.7235e-05 0
0.00371195 4.86997e-05 0
0.00371195 4.86997e-05 0
0.00302177 4.30691e-05 0
0.00302177 4.30691e-05 0
0.00234907 3.83439e-05 0
0.00234907 3.83439e-05 0
0.00176694 -1.89962e-05 0
0.00176694 -1.89962e-05 0
0.000805876 0.000252474 0
0.000805876 0.000252474 0
-0.000160408 0.000349528 -8.13885e-23
-0.000160408 0.000349528 -8.13885e-23
-0.000173916 0.00127915 2.20165e-22
-0.000173916 0.00127915 2.20165e-22
1.80283e-05 0.00237568 2.60961e-22
1.80283e-05 0.00237568 2.60961e-22
0.000221418 0.00201985 -5.22164e-22
0.000221418 0.00201985 -5.22164e-22
6.36593e-06 0.00136507 -1.74081e-22
6.36593e-06 0.00136507 -1.74081e-22
-0.000150384 0.00116145 3.48185e-22
-0.000150384 0.00116145 3.48185e-22
0.000177035 0.000123191 0
0.000177035 0.000123191 0
0.000468226 -0.00189831 6.99902e-22
0.000468226 -0.00189831 6.99902e-22
0.000406537 -0.00361097 3.10541e-25
0.000406537 -0.00361097 3.10541e-25
0.000290448 -0.00474334 -6.99591e-22
0.000290448 -0.00474334 -6.99591e-22
0.000248391 -0.00558477 7.03848e-22
0.000248391 -0.00558477 7.03848e-22
0.000233208 -0.00625267 1.27155e-25
0.000233208 -0.00625267 1.27155e-25
0.000179802 -0.00671927 -7.03721e-22
0.000179802 -0.00671927 -7.03721e-22
6.08099e-05 -0.00682206 -7.08315e-22
6.08099e-05 -0.00682206 -7.08315e-22
-5.62449e-05 -0.00651813 1.59571e-25
-5.62449e-05 -0.00651813 1.59571e-25
-0.000100476 -0.00600263 7.21031e-22
-0.000100476 -0.00600263 7.21031e-22
-8.89727e-05 -0.0054674 0
-8.89727e-05 -0.0054674 0
-8.33197e-05 -0.00500881 0
-8.33197e-05 -0.00500881 0
-0.00010923 -0.0045435 0
-0.00010923 -0.0045435 0
-0.000145578 -0.0040204 0
-0.000145578 -0.0040204 0
-0.000179059 -0.00345912 0
-0.000179059 -0.00345912 0
-0.00022333 -0.00285843 0
-0.00022333 -0.00285843 0
-0.000280196 -0.00220905 0
-0.000280196 -0.00220905 0
-0.000338983 -0.00152725 0
-0.000338983 -0.00152725 0
-0.000376764 -0.000805829 0
-0.000376764 -0.000805829 0
-0.00028735 -0.000146317 0
-0.00028735 -0.000146317 0
-6.55064e-06 0.000330041 0
-6.55064e-06 0.000330041 0
-0.000338831 0.000358358 -3.56065e-25
-0.000338831 0.000358358 -3.56065e-25
-0.00064701 0.00030924 4.04419e-23
-0.00064701 0.00030924 4.04419e-23
-0.000823011 0.000164959 0
-0.000823011 0.000164959 0
-0.000832925 -4.18027e-06 0
-0.000832925 -4.18027e-06 0
-0.000699656 -0.000148467 -3.92421e-23
-0.000699656 -0.000148467 -3.92421e-23
-0.00046533 -0.000236233 -3.93126e-23
-0.00046533 -0.000236233 -3.93126e-23
-0.000180923 -0.000254514 0
-0.000180923 -0.000254514 0
9.619e-05 -0.000215382 0
9.619e-05 -0.000215382 0
0.000323544 -0.000119186 0
0.000323544 -0.000119186 0
0.000460559 1.91556e-05 3.78466e-23
0.000460559 1.91556e-05 3.78466e-23
0.000497567 5.3233e-05 3.79187e-23
0.000497567 5.3233e-05 3.79187e-23
0.000482224 -7.3397e-05 0
0.000482224 -7.3397e-05 0
0.000476545 -0.000167358 0
0.000476545 -0.000167358 0
0.000519767 -0.000144724 0
0.000519767 -0.000144724 0
0.000594309 -9.07436e-05 3.65028e-23
0.000594309 -9.07436e-05 3.65028e-23
0.000669692 -5.83747e-05 3.65765e-23
0.000669692 -5.83747e-05 3.65765e-23
0.000767623 -6.79026e-05 0
0.000767623 -6.79026e-05 0
0.00091475 -0.000107779 0
0.00091475 -0.000107779 0
0.00109463 -0.000145656 0
0.00109463 -0.000145656 0
0.00128231 -0.000169757 0
0.00128231 -0.000169757 0
0.00144875 -0.000175329 0
0.00144875 -0.000175329 0
0.00155415 -0.0001796 0
0.00155415 -0.0001796 0
0.00156949 -0.000227849 3.43774e-23
0.00156949 -0.000227849 3.43774e-23
0.00149295 -0.000314031 3.34976e-25
0.00149295 -0.000314031 3.34976e-25
0.00135396 -0.000325569 -3.21678e-25
0.00135396 -0.000325569 -3.21678e-25
0.00114653 -9.43735e-05 6.75855e-23
0.00114653 -9.43735e-05 6.75855e-23
0.000787943 0.000293592 3.37129e-23
0.000787943 0.000293592 3.37129e-23
0.000289522 0.000477828 0
0.000289522 0.000477828 0
-0.000215248 0.000409324 -3.29299e-23
-0.000215248 0.000409324 -3.29299e-23
-0.00069636 0.00035364 -6.56791e-23
-0.00069636 0.00035364 -6.56791e-23
-0.00120808 0.000405501 -3.27494e-23
-0.00120808 0.000405501 -3.27494e-23
-0.00177046 0.000502025 0
-0.00177046 0.000502025 0
-0.00237554 0.000582995 -3.19149e-23
-0.00237554 0.000582995 -3.19149e-23
-0.00299299 0.000612115 -3.19935e-23
-0.00299299 0.000612115 -3.19935e-23
-0.00358528 0.000585392 0
-0.00358528 0.000585392 0
-0.00412973 0.00052525 3.12296e-23
-0.00412973 0.00052525 3.12296e-23
-0.00461975 0.00045836 3.1309e-23
-0.00461975 0.00045836 3.1309e-23
-0.00505924 0.000398948 3.08011e-23
-0.00505924 0.000398948 3.08011e-23
-0.00545448 0.000350188 9.20583e-23
-0.00545448 0.000350188 9.20583e-23
-0.00581111 0.000310578 6.13377e-23
-0.00581111 0.000310578 6.13377e-23
-0.00613302 0.00027739 0
-0.00613302 0.00027739 0
-0.0064224 0.000247967 0
-0.0064224 0.000247967 0
-0.0066799 0.000220073 0
-0.0066799 0.000220073 0
-0.00690501 0.000192085 0
-0.00690501 0.000192085 0
-0.00709649 0.000162993 5.8519e-23
-0.00709649 0.000162993 5.8519e-23
-0.00725276 0.000132452 1.16725e-22
-0.00725276 0.000132452 1.16725e-22
-0.00737213 0.000100764 1.15762e-22
-0.00737213 0.000100764 1.15762e-22
-0.00745266 6.8752e-05 5.77188e-23
-0.00745266 6.8752e-05 5.77188e-23
-0.00749253 3.72106e-05 -5.65395e-23
-0.00749253 3.72106e-05 -5.65395e-23
-0.0074911 6.48679e-06 -5.67034e-23
-0.0074911 6.48679e-06 -5.67034e-23
-0.00744856 -2.33801e-05 5.54662e-23
-0.00744856 -2.33801e-05 5.54662e-23
-0.0073645 -5.2533e-05 1.10541e-22
-0.0073645 -5.2533e-05 1.10541e-22
-0.00723811 -8.10579e-05 5.50745e-23
-0.00723811 -8.10579e-05 5.50745e-23
-0.0070689 -0.000108809 0
-0.0070689 -0.000108809 0
-0.00685691 -0.000135528 0
-0.00685691 -0.000135528 0
-0.00660282 -0.000160866 5.25947e-23
-0.00660282 -0.000160866 5.25947e-23
-0.00630801 -0.000184408 5.27576e-23
-0.00630801 -0.000184408 5.27576e-23
-0.00597442 -0.000205823 0
-0.00597442 -0.000205823 0
-0.00560421 -0.000225065 0
-0.00560421 -0.000225065 0
-0.00519921 -0.000242575 0
-0.00519921 -0.000242575 0
-0.00475997 -0.000259401 0
-0.00475997 -0.000259401 0
-0.00428465 -0.0002773 0
-0.00428465 -0.0002773 0
-0.00376858 -0.000298791 0
-0.00376858 -0.000298791 0
-0.0032047 -0.00032665 0
-0.0032047 -0.00032665 0
-0.00258455 -0.000362281 -4.74488e-23
-0.00258455 -0.000362281 -4.74488e-23
-0.00190191 -0.00040423 -4.76082e-23
-0.00190191 -0.00040423 -4.76082e-23
-0.00116059 -0.000450621 0
-0.00116059 -0.000450621 0
-0.000351793 -0.000507137 4.60302e-23
-0.000351793 -0.000507137 4.60302e-23
0.000434843 -0.000563588 9.17744e-23
0.000434843 -0.000563588 9.17744e-23
0.00112823 -0.000354521 4.5744e-23
0.00112823 -0.000354521 4.5744e-23
0.00136063 0.000183562 -4.46561e-23
0.00136063 0.000183562 -4.46561e-23
0.00079015 0.000514331 -6.52984e-25
0.00079015 0.000514331 -6.52984e-25
1.06486e-05 0.000395439 4.43187e-23
1.06486e-05 0.000395439 4.43187e-23
-0.000457352 0.000188176 -4.3228e-23
-0.000457352 0.000188176 -4.3228e-23
-0.000709462 8.5938e-05 -4.33849e-23
-0.000709462 8.5938e-05 -4.33849e-23
-0.00088836 2.98714e-05 0
-0.00088836 2.98714e-05 0
-0.00104668 -1.56859e-06 4.19548e-23
-0.00104668 -1.56859e-06 4.19548e-23
-0.00111841 -4.68197e-05 4.21108e-23
-0.00111841 -4.68197e-05 4.21108e-23
-0.00104894 -0.000117934 -4.11461e-23
-0.00104894 -0.000117934 -4.11461e-23
-0.000824828 -0.000229094 -4.13015e-23
-0.000824828 -0.000229094 -4.13015e-23
-0.000359507 -0.000397801 4.02741e-23
-0.000359507 -0.000397801 4.02741e-23
0.000448632 -0.000583986 8.01966e-23
0.000448632 -0.000583986 8.01966e-23
0.00157522 -0.000648024 7.92212e-23
0.00157522 -0.000648024 7.92212e-23
0.0027745 -0.000564971 1.17268e-22
0.0027745 -0.000564971 1.17268e-22
0.0037918 -0.000487548 9.76615e-25
0.0037918 -0.000487548 9.76615e-25
0.00457031 -0.000203224 -7.74501e-23
0.00457031 -0.000203224 -7.74501e-23
0.00462118 0.00049644 0
0.00462118 0.00049644 0
0.0035477 0.00086068 0
0.0035477 0.00086068 0
0.0021994 0.000469027 -7.40823e-23
0.0021994 0.000469027 -7.40823e-23
0.00157171 -3.50212e-05 -1.47709e-22
0.00157171 -3.50212e-05 -1.47709e-22
0.00163104 -0.000342796 -1.16036e-24
0.00163104 -0.000342796 -1.16036e-24
0.00187994 -0.000509185 7.27654e-23
0.00187994 -0.000509185 7.27654e-23
0.00186634 -0.000318709 -7.1076e-23
0.00186634 -0.000318709 -7.1076e-23
0.00118141 0.000233634 -1.41852e-22
0.00118141 0.000233634 -1.41852e-22
-8.54828e-05 0.000650628 -1.40659e-22
-8.54828e-05 0.000650628 -1.40659e-22
-0.00146449 0.000725456 -7.01812e-23
-0.00146449 0.000725456 -7.01812e-23
-0.00271336 0.000660369 0
-0.00271336 0.000660369 0
-0.00379226 0.000568337 0
-0.00379226 0.000568337 0
-0.00470846 0.000479221 -6.80212e-23
-0.00470846 0.000479221 -6.80212e-23
-0.00548659 0.000402409 -6.8319e-23
-0.00548659 0.000402409 -6.8319e-23
-0.00615216 0.000339213 0
-0.00615216 0.000339213 0
-0.0067257 0.000287714 6.67648e-23
-0.0067257 0.000287714 6.67648e-23
-0.00722197 0.000244982 6.7063e-23
-0.00722197 0.000244982 6.7063e-23
-0.00765022 0.000207676 0
-0.00765022 0.000207676 0
-0.00801429 0.000172618 6.53677e-23
-0.00801429 0.000172618 6.53677e-23
-0.00831351 0.000137777 6.56654e-23
-0.00831351 0.000137777 6.56654e-23
-0.00854474 0.000102724 0
-0.00854474 0.000102724 0
-0.00870433 6.7864e-05 -6.37015e-23
-0.00870433 6.7864e-05 -6.37015e-23
-0.00878892 3.32957e-05 -1.27058e-22
-0.00878892 3.32957e-05 -1.27058e-22
-0.00879659 -5.30093e-07 -6.33557e-23
-0.00879659 -5.30093e-07 -6.33557e-23
-0.00873 -3.21128e-05 6.16332e-23
-0.00873 -3.21128e-05 6.16332e-23
-0.00859242 -6.11902e-05 6.19246e-23
-0.00859242 -6.11902e-05 6.19246e-23
-0.00838588 -8.79976e-05 -6.00297e-23
-0.00838588 -8.79976e-05 -6.00297e-23
-0.00811522 -0.000111822 -6.03169e-23
-0.00811522 -0.000111822 -6.03169e-23
-0.00778641 -0.000132544 -5.82935e-23
-0.00778641 -0.000132544 -5.82935e-23
-0.00740562 -0.00015028 -1.15969e-22
-0.00740562 -0.00015028 -1.15969e-22
-0.00697952 -0.000165109 -5.76729e-23
-0.00697952 -0.000165109 -5.76729e-23
-0.00651441 -0.00017729 0
-0.00651441 -0.00017729 0
-0.00601613 -0.000187142 0
-0.00601613 -0.000187142 0
-0.00548982 -0.000194985 0
-0.00548982 -0.000194985 0
-0.00493984 -0.000201068 0
-0.00493984 -0.000201068 0
-0.00437016 -0.000205479 0
-0.00437016 -0.000205479 0
-0.00378493 -0.000208091 0
-0.00378493 -0.000208091 0
-0.00318914 -0.000208599 -5.02292e-23
-0.00318914 -0.000208599 -5.02292e-23
-0.00258887 -0.000206598 -1.07537e-24
-0.00258887 -0.000206598 -1.07537e-24
-0.00199091 -0.000201906 4.96626e-23
-0.00199091 -0.000201906 4.96626e-23
-0.00140253 -0.000194673 0
-0.00140253 -0.000194673 0
-0.000830951 -0.000185065 0
-0.000830951 -0.000185065 0
-0.000282879 -0.000174787 0
-0.000282879 -0.000174787 0
0.000237951 -0.000164354 9.14329e-23
0.000237951 -0.000164354 9.14329e-23
0.000732233 -0.000153528 9.19132e-23
0.000732233 -0.000153528 9.19132e-23
0.00120147 -0.000143401 -8.87374e-23
0.00120147 -0.000143401 -8.87374e-23
0.00164714 -0.000134198 -1.76576e-24
0.00164714 -0.000134198 -1.76576e-24
0.00207145 -0.000125848 8.79087e-23
0.00207145 -0.000125848 8.79087e-23
0.00247629 -0.00011808 0
0.00247629 -0.00011808 0
0.00286276 -0.000110584 0
0.00286276 -0.000110584 0
0.0032311 -0.000102969 -8.25307e-23
0.0032311 -0.000102969 -8.25307e-23
0.00358027 -9.47437e-05 -1.64345e-22
0.00358027 -9.47437e-05 -1.64345e-22
0.00390814 -8.56295e-05 -8.18104e-23
0.00390814 -8.56295e-05 -8.18104e-23
0.00421157 -7.51697e-05 -7.91183e-23
0.00421157 -7.51697e-05 -7.91183e-23
0.00448535 -6.25268e-05 -1.5759e-22
0.00448535 -6.25268e-05 -1.5759e-22
0.00472294 -4.78718e-05 -1.48687e-24
0.00472294 -4.78718e-05 -1.48687e-24
0.00491842 -3.16644e-05 7.74092e-23
0.00491842 -3.16644e-05 7.74092e-23
0.00506392 -1.19677e-05 0
0.00506392 -1.19677e-05 0
0.00514594 1.30167e-05 7.39535e-23
0.00514594 1.30167e-05 7.39535e-23
0.00515274 3.95307e-05 7.437e-23
0.00515274 3.95307e-05 7.437e-23
0.0050829 6.26794e-05 0
0.0050829 6.26794e-05 0
0.0049418 8.17763e-05 0
0.0049418 8.17763e-05 0
0.00473679 9.91418e-05 0
0.00473679 9.91418e-05 0
0.00447326 0.00011813 -6.91474e-23
0.00447326 0.00011813 -6.91474e-23
0.00415181 0.000138682 -1.37744e-22
0.00415181 0.000138682 -1.37744e-22
0.0037706 0.000156715 -6.85923e-23
0.0037706 0.000156715 -6.85923e-23
0.00333196 0.000167341 -6.63159e-23
0.00333196 0.000167341 -6.63159e-23
0.00285238 0.000164181 -6.67018e-23
0.00285238 0.000164181 -6.67018e-23
0.00236876 0.000141859 0
0.00236876 0.000141859 0
0.00192956 0.000103818 -6.35077e-23
0.00192956 0.000103818 -6.35077e-23
0.00157283 6.14573e-05 -6.38815e-23
0.00157283 6.14573e-05 -6.38815e-23
0.00131281 2.59493e-05 -6.15584e-23
0.00131281 2.59493e-05 -6.15584e-23
0.00114372 2.59885e-06 -6.19234e-23
0.00114372 2.59885e-06 -6.19234e-23
0.00104797 -9.64893e-06 0
0.00104797 -9.64893e-06 0
0.00100464 -1.475e-05 -5.84854e-23
0.00100464 -1.475e-05 -5.84854e-23