/*--------------------------------*- C++ -*----------------------------------*\
  =========                 |
  \\      /  F ield         | OpenFOAM: The Open Source CFD Toolbox
   \\    /   O peration     | Website:  https://openfoam.org
    \\  /    A nd           | Version:  7
     \\/     M anipulation  |
\*---------------------------------------------------------------------------*/
FoamFile
{
    version     2.0;
    format      ascii;
    class       volScalarField;
    location    "0.103";
    object      k;
}
// * * * * * * * * * * * * * * * * * * * * * * * * * * * * * * * * * * * * * //

dimensions      [0 2 -2 0 0 0 0];

internalField   nonuniform List<scalar> 
12225
(
1.93148e-05
1.81514e-05
1.66947e-05
1.53546e-05
1.38421e-05
1.27704e-05
1.13591e-05
9.70384e-06
8.78393e-06
7.87205e-06
6.18547e-06
5.17929e-06
5.04886e-06
5.06013e-06
4.59142e-06
4.03671e-06
3.92431e-06
1.82265e-05
1.99803e-05
1.98883e-05
1.96748e-05
1.94339e-05
1.90696e-05
1.86521e-05
1.83423e-05
1.79522e-05
1.72996e-05
1.66428e-05
1.59986e-05
1.55941e-05
1.54533e-05
1.53831e-05
1.51476e-05
1.48678e-05
1.36761e-05
1.37934e-05
2.00023e-05
1.92575e-05
1.90639e-05
1.90572e-05
1.90157e-05
1.89197e-05
1.88794e-05
1.88445e-05
1.87713e-05
1.85871e-05
1.83603e-05
1.82387e-05
1.8212e-05
1.82164e-05
1.82138e-05
1.82101e-05
1.81199e-05
1.76912e-05
2.04531e-05
2.02455e-05
1.91977e-05
1.57761e-05
1.49732e-05
1.51787e-05
1.57524e-05
1.64852e-05
1.69442e-05
1.72018e-05
1.73593e-05
1.7489e-05
1.76696e-05
1.7884e-05
1.80336e-05
1.81025e-05
1.81067e-05
1.80551e-05
2.04151e-05
2.28219e-05
2.47812e-05
2.40479e-05
2.17594e-05
1.98895e-05
1.8362e-05
1.74902e-05
1.72418e-05
1.72605e-05
1.73843e-05
1.75807e-05
1.76316e-05
1.75276e-05
1.71175e-05
1.68565e-05
1.68045e-05
1.67954e-05
2.1264e-05
2.19896e-05
2.25516e-05
2.26353e-05
2.22901e-05
2.17111e-05
2.14198e-05
2.10513e-05
2.06882e-05
2.04643e-05
2.0386e-05
2.03325e-05
2.0197e-05
2.00317e-05
1.99477e-05
1.98955e-05
1.98381e-05
1.967e-05
2.03594e-05
2.09371e-05
2.13543e-05
2.14355e-05
2.14504e-05
2.14344e-05
2.13836e-05
2.12223e-05
2.1112e-05
2.10961e-05
2.11255e-05
2.12557e-05
2.16504e-05
2.26448e-05
2.37723e-05
2.45828e-05
2.49437e-05
2.49462e-05
2.112e-05
2.22479e-05
2.20827e-05
2.17061e-05
2.13524e-05
2.11124e-05
2.093e-05
2.08347e-05
2.0821e-05
2.08584e-05
2.10311e-05
2.1562e-05
2.24719e-05
2.34373e-05
2.42937e-05
2.4845e-05
2.50603e-05
2.5088e-05
2.10326e-05
2.12496e-05
2.12823e-05
2.14941e-05
2.1462e-05
2.14037e-05
2.1366e-05
2.13835e-05
2.15494e-05
2.1896e-05
2.28829e-05
2.44643e-05
2.53052e-05
2.54824e-05
2.53132e-05
2.46345e-05
2.40404e-05
2.38647e-05
2.03891e-05
2.08408e-05
2.22711e-05
2.23494e-05
2.18655e-05
2.15396e-05
2.15203e-05
2.19174e-05
2.41831e-05
2.7452e-05
2.85275e-05
2.85266e-05
2.7835e-05
2.56731e-05
2.36651e-05
2.2395e-05
2.17873e-05
2.16575e-05
2.12472e-05
2.07411e-05
2.32478e-05
2.51381e-05
2.51509e-05
2.47778e-05
2.47682e-05
2.5453e-05
2.65904e-05
2.68438e-05
2.67781e-05
2.63814e-05
2.51684e-05
2.38647e-05
2.29204e-05
2.22905e-05
2.18735e-05
2.16417e-05
2.04268e-05
2.29449e-05
2.3849e-05
2.33038e-05
2.2727e-05
2.24376e-05
2.24025e-05
2.2634e-05
2.33753e-05
2.3779e-05
2.38611e-05
2.37972e-05
2.34431e-05
2.28615e-05
2.24567e-05
2.21746e-05
2.2008e-05
2.18627e-05
2.00796e-05
2.08559e-05
2.38884e-05
2.98371e-05
3.20516e-05
3.15962e-05
2.80448e-05
2.42024e-05
2.28618e-05
2.2496e-05
2.24414e-05
2.24471e-05
2.25247e-05
2.25778e-05
2.25743e-05
2.25446e-05
2.24508e-05
2.22617e-05
2.00619e-05
2.07144e-05
2.3952e-05
2.96667e-05
3.08891e-05
2.95337e-05
2.51137e-05
2.2586e-05
2.16151e-05
2.13066e-05
2.12513e-05
2.1281e-05
2.15051e-05
2.19724e-05
2.2224e-05
2.23007e-05
2.23036e-05
2.22777e-05
2.04369e-05
2.12124e-05
2.33522e-05
2.45454e-05
2.44012e-05
2.32208e-05
2.14811e-05
2.07417e-05
2.04635e-05
2.0376e-05
2.03596e-05
2.035e-05
2.03778e-05
2.0596e-05
2.12379e-05
2.17683e-05
2.20816e-05
2.2228e-05
2.02602e-05
2.04539e-05
2.07206e-05
2.13131e-05
2.15705e-05
2.14676e-05
2.09457e-05
2.05212e-05
2.03477e-05
2.03029e-05
2.03055e-05
2.03437e-05
2.05511e-05
2.10966e-05
2.15814e-05
2.19224e-05
2.2131e-05
2.22361e-05
2.02175e-05
2.02195e-05
2.02927e-05
2.04325e-05
2.04602e-05
2.04412e-05
2.03515e-05
2.02848e-05
2.02716e-05
2.02943e-05
2.04725e-05
2.10615e-05
2.16008e-05
2.19237e-05
2.20938e-05
2.21677e-05
2.21884e-05
2.21913e-05
2.16194e-05
2.10379e-05
2.05759e-05
2.05708e-05
2.05924e-05
2.05771e-05
2.04617e-05
2.03986e-05
2.0419e-05
2.05149e-05
2.06613e-05
2.08789e-05
2.11347e-05
2.13507e-05
2.14967e-05
2.15732e-05
2.15991e-05
2.16035e-05
2.00612e-05
2.03743e-05
2.08348e-05
2.09686e-05
2.09367e-05
2.0708e-05
2.05726e-05
2.0589e-05
2.05962e-05
2.05511e-05
2.05372e-05
2.05751e-05
2.07901e-05
2.12491e-05
2.15415e-05
2.16311e-05
2.16264e-05
2.15808e-05
2.02703e-05
2.04507e-05
2.05366e-05
2.05354e-05
2.04802e-05
2.04408e-05
2.04557e-05
2.06822e-05
2.1209e-05
2.12861e-05
2.1173e-05
2.0951e-05
2.08964e-05
2.09194e-05
2.10751e-05
2.16697e-05
2.23241e-05
2.25831e-05
2.01497e-05
2.15177e-05
2.19679e-05
2.16162e-05
2.07028e-05
2.0332e-05
2.02709e-05
2.0331e-05
2.08032e-05
2.14207e-05
2.14259e-05
2.11927e-05
2.11264e-05
2.11731e-05
2.12806e-05
2.13486e-05
2.13872e-05
2.13938e-05
2.04095e-05
2.07919e-05
2.07835e-05
2.06185e-05
2.05668e-05
2.06289e-05
2.08513e-05
2.09715e-05
2.09888e-05
2.09563e-05
2.08533e-05
2.08206e-05
2.08223e-05
2.08439e-05
2.09587e-05
2.12563e-05
2.14373e-05
2.1483e-05
2.06436e-05
2.03113e-05
2.03166e-05
2.04566e-05
2.06442e-05
2.07346e-05
2.07469e-05
2.07214e-05
2.0627e-05
2.05796e-05
2.05757e-05
2.05897e-05
2.06486e-05
2.08129e-05
2.11197e-05
2.1426e-05
2.15911e-05
2.16182e-05
2.00919e-05
2.03268e-05
2.04578e-05
2.04882e-05
2.04596e-05
2.04635e-05
2.051e-05
2.06466e-05
2.08954e-05
2.09664e-05
2.09396e-05
2.08037e-05
2.07296e-05
2.07262e-05
2.07736e-05
2.09478e-05
2.10215e-05
2.10057e-05
2.00537e-05
2.06044e-05
2.10074e-05
2.10363e-05
2.08607e-05
2.04804e-05
2.03018e-05
2.02732e-05
2.03014e-05
2.04665e-05
2.05727e-05
2.05818e-05
2.06097e-05
2.0774e-05
2.12303e-05
2.14912e-05
2.15297e-05
2.14628e-05
2.05487e-05
2.06426e-05
2.0567e-05
2.04856e-05
2.04554e-05
2.04127e-05
2.04085e-05
2.04144e-05
2.04457e-05
2.05046e-05
2.05276e-05
2.05336e-05
2.05436e-05
2.05695e-05
2.06402e-05
2.08317e-05
2.14656e-05
2.21111e-05
2.0432e-05
2.02383e-05
2.00696e-05
2.00039e-05
1.99281e-05
1.9924e-05
1.98954e-05
1.97283e-05
1.93162e-05
1.83976e-05
1.76187e-05
1.73655e-05
1.73986e-05
1.76015e-05
1.8226e-05
1.88002e-05
1.98885e-05
2.09802e-05
2.02455e-05
1.63704e-05
1.42766e-05
1.52181e-05
1.81882e-05
2.67664e-05
3.53277e-05
3.75453e-05
3.73085e-05
3.63968e-05
3.63427e-05
3.72218e-05
4.17981e-05
4.92338e-05
5.84804e-05
6.62815e-05
7.82235e-05
9.05317e-05
3.0382e-05
9.96429e-05
0.000122779
0.000171628
0.000294383
0.000416013
0.000458261
0.00045893
0.000449173
0.00043991
0.000439936
0.000449357
0.000489094
0.000530514
0.000559472
0.000585199
0.000625412
0.000666703
0.00212507
0.00206587
0.00212118
0.00233839
0.0024089
0.00239306
0.00227366
0.00208841
0.00192952
0.00178274
0.0016583
0.00156795
0.00151292
0.00148523
0.00147377
0.00146773
0.00145861
0.00143803
0.00525717
0.00892848
0.00996302
0.0103763
0.0106645
0.0109651
0.0112594
0.0116312
0.0112214
0.00939549
0.00486789
0.0034355
0.00506713
0.00769304
0.00830028
0.00786244
0.00707342
0.00704015
0.00754604
0.00954444
0.0122509
0.0138513
0.0155431
0.0200716
0.0238242
0.0244103
0.0209078
0.0138572
0.0103583
0.00940221
0.00971433
0.00998938
0.0100342
0.00997536
0.0096689
0.00908272
0.00845272
0.00799192
0.00766218
0.00742358
0.00714109
0.00686928
0.0066145
0.00646222
0.00635932
0.00630645
0.0062932
0.00632377
0.00638086
0.00645269
0.00649649
0.00655179
0.00663821
0.00673278
0.00683121
0.00694675
0.0070883
0.00727797
0.00747773
0.00769409
0.00790435
0.00810656
0.00831246
0.00850674
0.00867662
0.00878175
0.00871223
0.00883351
0.00928982
0.00946343
0.00929566
0.00936635
0.0131714
0.0369478
0.0353181
0.0201598
0.0158756
0.0145373
0.014138
0.0140114
0.0139034
0.0142478
0.0152987
0.0193022
0.022638
0.0231385
0.0252328
0.044318
0.138054
0.201942
0.210763
0.186494
0.0958857
0.0215725
0.00392458
0.00210615
0.00180816
0.00175242
0.00163407
0.00146366
0.00129599
0.00109896
0.000926624
0.000830213
0.000709388
0.000650249
0.000614835
0.000607407
0.000660814
0.000683916
0.000713221
0.000733411
0.000742394
0.000745654
0.000745349
0.000734886
0.000721655
0.00070655
0.000679275
0.000656047
0.000635123
0.000607475
0.000580761
0.00056063
0.000534038
0.000508635
0.000482349
0.000459084
0.000440946
0.00042679
0.000409622
0.000384126
0.00035923
0.000336367
0.000315373
0.000295746
0.000277183
0.000259975
0.000244221
0.000229034
0.000213416
0.000197962
0.000183671
0.000168721
0.000152128
0.000136976
0.00012375
0.000108894
9.42943e-05
8.28605e-05
6.61394e-05
4.22018e-05
2.40517e-05
1.35036e-05
8.10889e-06
5.67609e-06
4.74178e-06
4.45796e-06
4.3495e-06
4.18772e-06
3.94638e-06
3.66776e-06
3.26952e-06
2.84595e-06
2.40119e-06
2.02119e-06
1.69224e-06
1.4102e-06
1.13395e-06
1.13853e-06
1.19612e-06
1.35188e-06
1.26622e-06
1.45356e-06
1.34755e-06
1.70904e-06
2.08409e-06
2.8745e-06
1.31257e-05
1.11345e-05
0.00469495
0.00839154
0.0112357
0.0123419
0.0124628
0.0112857
0.0118563
0.0126169
0.0126511
0.0125545
0.0120451
0.0108367
0.00820848
0.00732165
0.00698296
0.00524844
0.00478093
0.00584257
0.00945746
0.0156906
0.0197553
0.0208654
0.019867
0.0189733
0.0173316
0.0147644
0.0121378
0.00935402
0.00821117
0.00776441
0.0076401
0.00752882
0.00717024
0.00658037
0.0058401
0.0049935
0.00425653
0.00364712
0.00312123
0.00271767
0.00237048
0.00214312
0.00196544
0.00187516
0.0018191
0.00179623
0.00179177
0.00183264
0.00190229
0.00193883
0.00201221
0.00212377
0.00224301
0.00238227
0.00256701
0.00278836
0.00303548
0.00330579
0.00363514
0.00399256
0.00440962
0.00490826
0.00548559
0.00616959
0.00695902
0.00766194
0.00808618
0.00854547
0.00958764
0.0103595
0.0102527
0.00984029
0.011076
0.020702
0.0328484
0.0351728
0.0296809
0.0166488
0.0143563
0.0135655
0.0124959
0.0121944
0.013137
0.019417
0.0280685
0.0290306
0.0292759
0.0370922
0.0683083
0.11146
0.145354
0.10626
0.0322498
0.00709551
0.00214388
0.00130921
0.001104
0.00103107
0.00100067
0.000993293
0.00102803
0.00107186
0.00114192
0.00124959
0.00132774
0.00142787
0.00149862
0.00154593
0.00156556
0.0015743
0.00157794
0.00157895
0.00157679
0.00156071
0.00153384
0.0015047
0.00147289
0.00143626
0.00139727
0.00135383
0.0013038
0.00124377
0.00118558
0.00112624
0.00107238
0.00102227
0.000978591
0.000935713
0.000895167
0.000857638
0.000822213
0.000789484
0.000758079
0.000724922
0.000690309
0.000655782
0.00062118
0.000586141
0.000552618
0.000522897
0.000496856
0.000472392
0.000447164
0.000418306
0.000384976
0.000349957
0.000315501
0.000284082
0.000258835
0.00023477
0.000207745
0.000180255
0.000151065
0.000125753
0.000106662
9.09652e-05
7.64185e-05
6.3828e-05
5.41207e-05
4.72968e-05
4.22805e-05
3.84701e-05
3.48846e-05
3.14837e-05
2.74798e-05
2.37346e-05
2.00191e-05
1.71377e-05
1.41209e-05
1.23246e-05
1.04808e-05
9.65959e-06
8.11094e-06
7.28703e-06
6.12611e-06
5.30137e-06
4.87236e-06
4.21831e-06
5.59623e-06
5.14449e-06
0.00495651
0.00745812
0.0131746
0.0168455
0.0148083
0.0113944
0.00975504
0.00911176
0.00922173
0.00951143
0.00990789
0.00995667
0.00970435
0.00868765
0.00763777
0.00598761
0.00614466
0.0115235
0.0155979
0.0159888
0.0158608
0.0142494
0.0129638
0.00982187
0.00816803
0.00638895
0.00530133
0.00450202
0.00413785
0.00389265
0.00368296
0.00334068
0.00292982
0.00245364
0.0019565
0.00155024
0.00123267
0.00101752
0.000849725
0.000728488
0.000645202
0.000575823
0.000525424
0.000488771
0.000469807
0.000460025
0.000456867
0.000464425
0.000483977
0.000503642
0.000524418
0.000542498
0.000562123
0.000585707
0.000611385
0.000636422
0.00066563
0.00070606
0.000757815
0.000823673
0.000922904
0.00107013
0.00128494
0.00160483
0.0021246
0.00300058
0.00443994
0.00632828
0.0085913
0.0103108
0.0110364
0.0106786
0.0109371
0.0123862
0.0167465
0.0274439
0.0294443
0.0284689
0.0238657
0.017676
0.0133956
0.0117106
0.0126423
0.0215442
0.0350041
0.0353684
0.0338591
0.0367289
0.0582793
0.0947631
0.0717486
0.0259793
0.00685476
0.00202526
0.00117693
0.00103311
0.00101727
0.00105367
0.00111682
0.00123162
0.00138618
0.00156593
0.0016942
0.00173757
0.00175438
0.00175925
0.00175767
0.00174354
0.00171616
0.00168331
0.00166093
0.00164907
0.00162634
0.00161202
0.00159898
0.00157585
0.0015489
0.00151908
0.00149065
0.00145615
0.00141067
0.00135304
0.00129472
0.00122226
0.0011514
0.00108563
0.00103463
0.000992368
0.000956584
0.000924154
0.00089338
0.000867188
0.000845559
0.000824398
0.000802658
0.000782386
0.000764625
0.000746756
0.000724997
0.000695661
0.000659746
0.000620982
0.000583076
0.000551469
0.000528439
0.000507475
0.000471462
0.000414555
0.000355067
0.00030671
0.000265688
0.000231288
0.000202837
0.0001771
0.000154259
0.000136125
0.000124331
0.000117764
0.000111988
0.000103986
9.43857e-05
8.54105e-05
7.78685e-05
7.144e-05
6.53279e-05
5.94433e-05
5.39096e-05
4.88559e-05
4.42818e-05
4.00363e-05
3.62888e-05
3.25061e-05
2.91242e-05
2.51461e-05
2.20017e-05
1.7832e-05
1.54512e-05
1.14948e-05
1.00347e-05
7.16343e-06
0.0137978
0.0149249
0.0220094
0.0197585
0.0132054
0.00824298
0.00715065
0.00736664
0.00793283
0.00846901
0.00879379
0.00914981
0.00930854
0.00909089
0.00820976
0.00652771
0.00801299
0.0131472
0.0138133
0.0115036
0.00909857
0.00805386
0.00631694
0.004663
0.00389517
0.00292759
0.00247911
0.00222964
0.00203943
0.00187728
0.00173309
0.00150456
0.00131256
0.00110651
0.00094187
0.0008501
0.00078558
0.000751263
0.000719992
0.000691721
0.000664485
0.000634413
0.000607024
0.000565331
0.000531992
0.000502406
0.000485555
0.000478343
0.000474348
0.000468203
0.000459283
0.000456042
0.000455667
0.000455853
0.000454528
0.000451158
0.000447537
0.000443524
0.000436055
0.000420427
0.000405382
0.000392778
0.000386522
0.000407857
0.000488659
0.000669195
0.00108215
0.00200592
0.00419618
0.00775979
0.0107501
0.0122124
0.0127279
0.012744
0.0128331
0.0137263
0.0184552
0.0230423
0.023217
0.020926
0.0153167
0.0115623
0.0119998
0.0219513
0.0397676
0.0408985
0.0374595
0.0395759
0.0639025
0.0634034
0.0251902
0.0071589
0.00212873
0.00113992
0.0010118
0.00104925
0.00115317
0.00139729
0.0017911
0.00211136
0.00229154
0.00237423
0.00240119
0.00240534
0.00236803
0.00226076
0.00215612
0.00207635
0.00197581
0.00186886
0.00178452
0.00169888
0.00162092
0.00156232
0.00152062
0.00149229
0.00147093
0.00144803
0.00143034
0.00141416
0.00138999
0.00135189
0.00130093
0.00123176
0.00114283
0.00103097
0.000925288
0.000837731
0.000780467
0.000736701
0.000701389
0.000681892
0.000679611
0.000683509
0.000694413
0.000710129
0.000728843
0.000743052
0.000749643
0.000751443
0.000748292
0.00073514
0.000705658
0.000658978
0.000609516
0.000570586
0.000544734
0.000531208
0.000516917
0.000486574
0.000412742
0.000333676
0.000289087
0.000266066
0.000240192
0.000208409
0.000179901
0.000158621
0.000143407
0.000133801
0.000129382
0.000127258
0.000123626
0.000115799
0.000105343
9.41879e-05
8.34937e-05
7.38306e-05
6.53277e-05
5.80028e-05
5.18366e-05
4.65865e-05
4.21018e-05
3.78404e-05
3.40482e-05
2.97819e-05
2.63468e-05
2.16323e-05
1.8913e-05
1.3806e-05
0.0130942
0.0253471
0.0201507
0.00933524
0.00585991
0.00576035
0.00616531
0.00715306
0.0080644
0.00892656
0.00931477
0.00937261
0.00934779
0.00913026
0.00817502
0.00678333
0.00928525
0.0122807
0.0112018
0.00740028
0.0057924
0.00482157
0.00331175
0.00244596
0.00199779
0.00152766
0.00134291
0.00124146
0.00114712
0.00107365
0.00101156
0.000931797
0.000887505
0.000851315
0.000834003
0.000825879
0.000822673
0.000840092
0.00087446
0.000900743
0.000913895
0.000917097
0.000908195
0.000863131
0.000800407
0.000753327
0.000730853
0.000709099
0.00067753
0.000657237
0.000648121
0.000629699
0.000606631
0.000594823
0.000575939
0.000558734
0.000536729
0.000515924
0.000498519
0.00046491
0.000425233
0.000375794
0.000328704
0.00029292
0.000274448
0.000268258
0.000321042
0.000492714
0.000981393
0.00228669
0.00571732
0.0100929
0.0128502
0.0137956
0.0135813
0.0132435
0.0134284
0.0149928
0.0174603
0.0175822
0.0159331
0.0118325
0.0114299
0.0213647
0.0411616
0.0457811
0.0457949
0.0510072
0.0600652
0.0287326
0.00869475
0.00249645
0.00115725
0.000965963
0.00102129
0.00118019
0.00154133
0.00216666
0.00246473
0.0026193
0.00267975
0.00269579
0.00268181
0.00258669
0.00246889
0.00235579
0.00221541
0.00206387
0.0019154
0.00176553
0.0016396
0.00154621
0.0014789
0.0014409
0.00141788
0.00140289
0.0013878
0.00137505
0.00136367
0.00135774
0.00134786
0.00132928
0.00129905
0.00124787
0.00116079
0.00103023
0.000900551
0.000772826
0.000661591
0.000575527
0.000509292
0.000462487
0.000432593
0.000418443
0.000417007
0.000421611
0.000437882
0.000469449
0.000510864
0.000559923
0.000614243
0.000668874
0.00071273
0.000731892
0.000731574
0.000709809
0.000636385
0.000585196
0.000566529
0.000556473
0.000538603
0.000507552
0.000438183
0.000359649
0.000307
0.000275725
0.000249655
0.000221629
0.000194141
0.000172278
0.000158051
0.000150223
0.000146577
0.000144679
0.00014197
0.000135662
0.000121736
0.000106343
9.20846e-05
7.98314e-05
6.9512e-05
6.07622e-05
5.35888e-05
4.74996e-05
4.343e-05
3.95065e-05
3.74583e-05
3.32549e-05
3.05267e-05
2.40566e-05
0.0101759
0.00997722
0.00606679
0.00434662
0.00464601
0.00570065
0.00803289
0.00960681
0.0108558
0.0115727
0.0113695
0.0104024
0.00960081
0.00912139
0.00800258
0.00700329
0.00971387
0.011231
0.00891498
0.00521752
0.00391558
0.00304165
0.00192888
0.00145066
0.00118336
0.000987679
0.000915428
0.000878605
0.000856028
0.000847047
0.000844876
0.000845371
0.000859561
0.000874633
0.000911031
0.000979372
0.00107504
0.00120479
0.00134868
0.00149067
0.00162544
0.00169227
0.00172361
0.00173345
0.00172804
0.00167091
0.00158831
0.0015292
0.0014516
0.00135584
0.00130389
0.0012344
0.00114429
0.00106664
0.000977596
0.000896077
0.000809161
0.000730374
0.000692516
0.000666011
0.000601784
0.000519361
0.000411036
0.000330805
0.000266259
0.000233269
0.000215493
0.000208292
0.000256522
0.000444251
0.000993928
0.00234468
0.00527625
0.00860147
0.0111363
0.0121867
0.0126633
0.0135184
0.0145106
0.014722
0.0145535
0.0128391
0.0106846
0.0181315
0.0404952
0.0470827
0.0486519
0.0505646
0.0340157
0.0112822
0.00329602
0.00127289
0.000942892
0.000965031
0.00113588
0.00157186
0.00231555
0.0026526
0.00280286
0.00285754
0.00286746
0.00282346
0.0027225
0.00260152
0.00244816
0.00228189
0.00208805
0.00189335
0.00177186
0.00169787
0.0016209
0.00156523
0.00151914
0.00149371
0.00146243
0.00144182
0.00141638
0.00139773
0.00138061
0.00137195
0.00136295
0.001348
0.00132603
0.00129046
0.00122482
0.0010765
0.000916574
0.000769197
0.00063525
0.000524531
0.000448755
0.00039745
0.000362962
0.000343141
0.000336561
0.000336577
0.000338435
0.000343849
0.000357974
0.000375355
0.000391654
0.000414047
0.000462413
0.000558071
0.000654242
0.000699502
0.000706046
0.000700798
0.000671165
0.000621689
0.000592479
0.000570277
0.000544331
0.0004907
0.000411517
0.000346027
0.000303196
0.000271442
0.000242138
0.000214554
0.000191299
0.00017441
0.000163983
0.000158592
0.000156123
0.00015429
0.000150928
0.000142659
0.000128601
0.00011364
0.000100248
8.77578e-05
7.75627e-05
6.75741e-05
6.02819e-05
5.38632e-05
5.09162e-05
4.72631e-05
4.52109e-05
4.02087e-05
0.00345683
0.00395074
0.00340733
0.0038438
0.0061476
0.00832255
0.00959105
0.0107619
0.0117808
0.0128404
0.0128019
0.0120289
0.0101848
0.00907661
0.00772747
0.00715937
0.00961157
0.010367
0.00733089
0.00388474
0.0027587
0.00204276
0.00129489
0.00100762
0.00086954
0.000808562
0.000792032
0.000789043
0.000804066
0.000825908
0.000849373
0.000882271
0.0009495
0.0010534
0.00121725
0.00145879
0.00180563
0.00217886
0.00246747
0.00268081
0.00277829
0.00285044
0.00289231
0.00291035
0.00291586
0.0029071
0.00287715
0.00284353
0.00277201
0.00267652
0.00255156
0.0023874
0.00221961
0.00201017
0.00177509
0.00156045
0.00133399
0.00110708
0.000925325
0.000825565
0.000759251
0.00068272
0.000575573
0.00044042
0.000327082
0.000253742
0.000210723
0.000183399
0.000170192
0.000167781
0.000215306
0.000378099
0.000822501
0.00187672
0.0044029
0.00834995
0.0108517
0.0124336
0.0135137
0.0137405
0.0137756
0.013115
0.0104758
0.0142011
0.0330382
0.0437786
0.0444907
0.0351439
0.0134454
0.00448958
0.00157279
0.000964744
0.000906425
0.00104068
0.00145069
0.00228899
0.00270025
0.00287124
0.00292801
0.00293663
0.00289757
0.00281376
0.0026701
0.00247995
0.00221446
0.00203613
0.00193133
0.00187616
0.00185838
0.00187682
0.00190255
0.0019064
0.00188017
0.00185481
0.00177602
0.00170589
0.00162764
0.00156527
0.00151491
0.00148414
0.00146777
0.00145361
0.00143314
0.0013964
0.00132986
0.00118672
0.000987866
0.000797904
0.000636231
0.000503719
0.000400924
0.000339707
0.00031469
0.000304398
0.000300355
0.000301048
0.000303771
0.000310868
0.00033365
0.000362683
0.000374246
0.00037932
0.000387602
0.000408376
0.00047295
0.000585307
0.000662048
0.000689351
0.000691725
0.000689526
0.000675131
0.00063255
0.000589349
0.000557591
0.000514781
0.000445368
0.000376089
0.000323374
0.000284183
0.000251236
0.000222048
0.000198077
0.000180435
0.000168719
0.000161905
0.000158527
0.000156544
0.000153431
0.000146375
0.000133306
0.000120202
0.000106384
9.52908e-05
8.41322e-05
7.55561e-05
6.67853e-05
6.16926e-05
5.66022e-05
5.43748e-05
5.0093e-05
0.00237097
0.00341678
0.00314572
0.00509196
0.00805135
0.00913734
0.0101479
0.0117498
0.0133826
0.014314
0.0140892
0.0129557
0.0104169
0.0089305
0.00745912
0.00721461
0.00935146
0.0096826
0.006313
0.00303177
0.00202325
0.00146987
0.00100442
0.000843359
0.000785219
0.00077069
0.000771117
0.000788827
0.000820061
0.000869839
0.000946731
0.00106722
0.00125447
0.00153836
0.00198087
0.00243413
0.00283753
0.00313289
0.00327351
0.0033362
0.00335826
0.00336313
0.00335097
0.00334441
0.00334603
0.00335144
0.00335939
0.00336183
0.00334671
0.0033224
0.00327591
0.00320739
0.00310863
0.00297299
0.00279227
0.00252234
0.0021495
0.00182003
0.0014464
0.00108822
0.000874977
0.000767881
0.000693026
0.000556212
0.000403054
0.000298478
0.000234468
0.00019188
0.000166465
0.000150657
0.000142523
0.000146359
0.000188064
0.000356304
0.000934737
0.00302261
0.00738106
0.0102125
0.0119511
0.0127798
0.012883
0.0126988
0.0105102
0.0114627
0.0222262
0.0304489
0.0281487
0.0152658
0.0057531
0.00213237
0.00105039
0.000865613
0.000933401
0.00124514
0.00209024
0.00263509
0.00285828
0.00293249
0.00294611
0.00292299
0.00282494
0.002613
0.00235895
0.00219901
0.0021315
0.00210728
0.00212938
0.00231602
0.00259836
0.00287244
0.00300656
0.00304805
0.00295233
0.00285933
0.00270374
0.00247729
0.00223633
0.0020301
0.00187016
0.00175537
0.00169583
0.0016668
0.00164599
0.00161378
0.00155274
0.00142416
0.00118663
0.00092059
0.000692138
0.000517434
0.000391876
0.000305609
0.000254478
0.000240587
0.000242333
0.000248424
0.000257491
0.000273974
0.000311391
0.000397428
0.000452763
0.000457284
0.000455829
0.000461219
0.000509916
0.000620985
0.000690823
0.000716593
0.000721124
0.000719587
0.000706937
0.000676993
0.000641303
0.000599587
0.000564851
0.000528226
0.000466519
0.000396441
0.000336565
0.000290975
0.000254733
0.000223938
0.000198911
0.00018046
0.000167984
0.000160486
0.000157082
0.000153967
0.000149252
0.000139781
0.000129169
0.000116276
0.000105034
9.35877e-05
8.50681e-05
7.59101e-05
6.93353e-05
6.24626e-05
5.85616e-05
5.4536e-05
0.00243415
0.00343224
0.00310239
0.00635276
0.00860549
0.00938164
0.0104949
0.0128324
0.0148635
0.0157102
0.0153997
0.0140738
0.0109593
0.00866965
0.00722316
0.00716849
0.00897085
0.00915486
0.00573344
0.00251748
0.00159535
0.00115242
0.000892394
0.000801434
0.000775504
0.000771307
0.00078516
0.000831408
0.00092088
0.00106783
0.00128998
0.00163323
0.0020747
0.00253194
0.00293378
0.00328585
0.00346375
0.0035347
0.00355334
0.00355698
0.00356159
0.00357548
0.00358206
0.00358903
0.00360211
0.00361636
0.00363045
0.00364205
0.00364565
0.00363403
0.00361929
0.0035721
0.00349456
0.00339392
0.00327218
0.00311731
0.00289135
0.00260178
0.00226555
0.00178665
0.00131412
0.00100717
0.000815737
0.00063321
0.000460135
0.000324425
0.00024723
0.000200258
0.000171466
0.000152139
0.00013908
0.000129691
0.000123432
0.000133214
0.000224796
0.000672821
0.00277472
0.007337
0.0104742
0.012096
0.012431
0.0123424
0.0105748
0.00946276
0.0147179
0.0182589
0.014599
0.00709286
0.002895
0.0012937
0.000885696
0.000850299
0.00103227
0.00172872
0.0024653
0.0027841
0.00290028
0.00293116
0.00291398
0.00278175
0.00252582
0.00233852
0.00226322
0.00223585
0.00230515
0.00260701
0.00320442
0.0040903
0.00496598
0.00540205
0.00554086
0.00529611
0.00485742
0.00446051
0.00403559
0.00364409
0.00330726
0.00296125
0.00261012
0.00227984
0.00207573
0.00197704
0.00193708
0.00191176
0.00186999
0.00178271
0.00156262
0.00121088
0.00087024
0.000607494
0.000426218
0.000311242
0.000243614
0.000205501
0.00019099
0.000189491
0.000193058
0.000207606
0.000251071
0.000383675
0.000606595
0.000728734
0.000729959
0.000729169
0.000807335
0.00106044
0.00111199
0.00109096
0.00100774
0.000886892
0.000799498
0.000734631
0.000683995
0.000641061
0.000598822
0.00056298
0.000533532
0.000479473
0.000408896
0.000344596
0.000293814
0.000253792
0.00022193
0.000196118
0.000176573
0.000162801
0.000156104
0.000151356
0.000147142
0.000139922
0.000131857
0.000121127
0.000110996
9.97194e-05
9.08132e-05
8.19729e-05
7.51103e-05
6.80271e-05
6.23293e-05
5.72454e-05
0.00247031
0.0035528
0.00320303
0.00692776
0.00875532
0.00944776
0.010665
0.0135028
0.0159911
0.0165262
0.0161117
0.0146188
0.0112957
0.00843786
0.00703772
0.00701367
0.00855716
0.0087705
0.00550628
0.00218977
0.00136433
0.00101975
0.000859122
0.000801702
0.00078442
0.000793586
0.00085321
0.0009946
0.00125625
0.00170372
0.0021532
0.00257808
0.00293917
0.00324674
0.00347483
0.00360591
0.00367605
0.00371609
0.00378612
0.00387667
0.00396917
0.00405672
0.00413125
0.00418591
0.00421147
0.00421994
0.00421747
0.00420877
0.00415991
0.00408686
0.00399573
0.00389449
0.00378424
0.00372826
0.00364026
0.00350045
0.00329783
0.00304228
0.00279283
0.00254374
0.00220303
0.00166049
0.00125976
0.000860704
0.000584525
0.000379649
0.000263732
0.000204324
0.000172415
0.000152969
0.000138646
0.000127596
0.000117765
0.000109134
0.000116941
0.000191032
0.000614124
0.00271559
0.0077378
0.0111603
0.0122075
0.0121898
0.0112737
0.00807987
0.010054
0.0116008
0.00804714
0.00386317
0.001749
0.000977434
0.000802322
0.000854675
0.00120206
0.00209522
0.00260996
0.00282106
0.00289532
0.00289627
0.0027562
0.0025022
0.00237902
0.00233713
0.0023307
0.00251068
0.00308367
0.00430816
0.00624718
0.00852104
0.00968591
0.0100818
0.00948422
0.0081536
0.00668482
0.00538878
0.00446908
0.00396489
0.00367684
0.00344468
0.00324048
0.00300821
0.00267203
0.00238651
0.00227987
0.00223872
0.00220733
0.00215036
0.00201429
0.0016578
0.00118662
0.000796069
0.000523693
0.000352034
0.000253154
0.000201715
0.000178195
0.000172245
0.00017299
0.000180339
0.000207434
0.000294464
0.000577157
0.00095344
0.00115561
0.00120926
0.00129014
0.00174137
0.00228711
0.00228647
0.00213641
0.00167893
0.00122635
0.000947282
0.000795363
0.000707894
0.000644093
0.000595549
0.000562877
0.000537358
0.000487103
0.000414033
0.000346332
0.000291415
0.000249177
0.000215805
0.000189913
0.000168895
0.000155271
0.000146841
0.000142295
0.000136555
0.00013066
0.000122517
0.000114299
0.000104283
9.51262e-05
8.62391e-05
7.90447e-05
7.23549e-05
6.65767e-05
6.06164e-05
0.00252391
0.00372311
0.00353395
0.00712079
0.0087284
0.00937714
0.0103799
0.0136685
0.0161913
0.0165935
0.0161795
0.0146309
0.011285
0.00813648
0.00665481
0.00665507
0.00808771
0.00849902
0.00565069
0.00215053
0.00125336
0.000975453
0.000861115
0.000816631
0.000812979
0.000870518
0.00106938
0.00148311
0.00201684
0.00247104
0.00285717
0.00316261
0.00335347
0.0035239
0.00364325
0.00373356
0.0038532
0.00401289
0.00420304
0.00440222
0.00454342
0.0046349
0.00467798
0.00468845
0.00465959
0.00464342
0.00463593
0.00463933
0.0046408
0.00463502
0.00460577
0.00453991
0.00441213
0.00417923
0.00391936
0.00371674
0.00362637
0.00344908
0.00326165
0.00292533
0.00274661
0.00252226
0.00200254
0.00140326
0.000867859
0.000529551
0.000323046
0.000220355
0.000173626
0.00015214
0.000138083
0.000127439
0.000117202
0.000106249
0.00010065
0.000110604
0.000187155
0.000649027
0.00312349
0.0088393
0.0117785
0.012175
0.0117468
0.00881801
0.00711333
0.00746625
0.00524221
0.00258181
0.00128069
0.000836233
0.000767565
0.000899564
0.00148608
0.00230788
0.00273021
0.00286183
0.00286104
0.0027596
0.00256438
0.00242794
0.00238148
0.00239764
0.0026145
0.00335667
0.0051302
0.00838863
0.0131459
0.0160679
0.0173814
0.017654
0.0148509
0.0115389
0.00831407
0.00594811
0.00464219
0.00394376
0.00366374
0.00347989
0.00334154
0.003231
0.00311058
0.00288399
0.00265686
0.00258012
0.00254777
0.00250121
0.00241097
0.00216855
0.00161381
0.0010664
0.000673382
0.000424366
0.000280753
0.000207291
0.000177012
0.000169699
0.000170692
0.000179173
0.000206473
0.000278235
0.000487168
0.000935797
0.00131416
0.00150391
0.00163031
0.00191298
0.00315883
0.0046126
0.00464527
0.00421638
0.00289037
0.00179931
0.00119991
0.000900098
0.000746211
0.000653235
0.000599382
0.000576567
0.000555457
0.00050782
0.000423507
0.000345994
0.000285735
0.000240124
0.000206373
0.000179368
0.000159515
0.000145137
0.000137076
0.000131167
0.000126724
0.000121007
0.00011508
0.000107456
9.91017e-05
9.01845e-05
8.22914e-05
7.51424e-05
6.98123e-05
6.40337e-05
0.00269298
0.00400208
0.00380083
0.00706419
0.00855218
0.00916822
0.00997527
0.0128214
0.0158942
0.0164708
0.0161108
0.0145502
0.0111652
0.00772745
0.00626687
0.00625826
0.00765364
0.00832746
0.00605192
0.0022498
0.00125808
0.000978196
0.000879746
0.000857695
0.000886801
0.00105152
0.00145733
0.00206851
0.00268514
0.0030268
0.00331162
0.003514
0.00362334
0.00372469
0.0038043
0.00390812
0.00416146
0.00444354
0.00469751
0.00484356
0.00490907
0.00492602
0.00483962
0.00474839
0.0046644
0.00462393
0.00461145
0.00462583
0.00465469
0.00468506
0.00470576
0.00471266
0.00471037
0.00468724
0.00458422
0.0042405
0.00380102
0.00356121
0.00342826
0.00329827
0.0030676
0.00287352
0.00266253
0.00214029
0.00139635
0.000832052
0.000481779
0.00028412
0.000190964
0.000154224
0.000137966
0.000127682