/*--------------------------------*- C++ -*----------------------------------*\
  =========                 |
  \\      /  F ield         | OpenFOAM: The Open Source CFD Toolbox
   \\    /   O peration     | Website:  https://openfoam.org
    \\  /    A nd           | Version:  7
     \\/     M anipulation  |
\*---------------------------------------------------------------------------*/
FoamFile
{
    version     2.0;
    format      ascii;
    class       volScalarField;
    location    "0.103";
    object      nut;
}
// * * * * * * * * * * * * * * * * * * * * * * * * * * * * * * * * * * * * * //

dimensions      [0 2 -1 0 0 0 0];

internalField   nonuniform List<scalar> 
12225
(
0
0
0
0
0
0
0
0
0
0
0
0
0
0
0
6.21849e-11
0
0
0
0
0
0
0
0
0
0
0
0
0
0
0
0
0
3.3874e-11
0
0
0
5.58287e-10
0
0
0
0
0
0
0
0
0
0
0
0
0
4.75105e-11
0
0
4.02288e-09
1.83141e-08
9.29595e-09
2.91838e-09
2.83805e-10
0
0
0
0
0
0
0
0
0
0
4.21629e-11
0
0
1.80034e-07
2.86008e-07
3.46791e-07
9.05847e-08
0
0
0
0
0
0
0
0
0
6.93941e-11
6.4718e-10
8.40545e-11
6.56204e-10
0
1.2149e-07
2.76129e-07
3.76181e-07
2.98042e-07
9.09465e-08
0
0
0
0
0
0
0
0
0
0
3.07238e-10
2.54214e-09
0
0
1.61236e-07
2.77276e-07
3.83292e-07
1.28557e-07
0
0
0
0
0
0
0
5.84577e-09
2.58907e-08
4.17958e-08
4.54797e-08
4.23002e-08
3.26948e-08
0
0
3.50106e-07
4.90783e-07
1.16846e-07
0
0
0
0
1.21383e-08
1.35557e-08
1.3466e-08
2.29989e-08
3.2554e-08
3.8886e-08
4.17032e-08
4.22419e-08
3.71364e-08
0
1.22304e-07
4.9302e-07
5.48536e-07
3.2285e-09
0
0
0
8.15668e-08
1.52177e-07
1.53162e-07
1.7286e-07
1.44665e-07
6.38134e-08
1.88668e-08
9.09601e-09
1.33991e-08
1.37136e-08
4.47544e-07
5.31897e-07
9.03937e-07
1.08423e-06
2.71312e-07
0
0
1.70862e-07
4.50961e-07
5.87172e-07
5.54642e-07
5.96408e-07
4.04415e-07
3.45049e-08
0
0
0
0
5.20251e-07
4.82653e-07
1.23089e-06
2.21307e-06
2.17811e-06
1.62198e-06
9.75798e-07
7.00827e-07
7.23304e-07
5.97603e-07
3.20065e-07
1.3486e-07
4.8876e-08
3.90146e-09
0
0
0
0
5.05516e-07
5.74954e-07
1.41382e-06
1.51299e-06
1.36835e-06
1.12331e-06
6.67846e-07
3.04035e-07
2.10893e-07
1.52499e-07
7.75901e-08
3.32145e-08
1.36396e-08
6.97247e-09
3.32421e-09
0
0
0
0
0
1.1169e-06
1.1872e-06
1.27042e-06
1.05244e-06
5.17772e-07
0
0
0
1.11718e-08
8.4476e-09
3.29043e-09
8.92239e-09
1.9457e-08
2.26438e-08
1.43003e-08
3.8765e-09
0
0
5.03808e-07
9.24046e-07
1.26974e-06
1.41083e-06
1.12908e-06
0
0
0
0
5.41088e-09
0
0
6.36352e-09
4.74751e-10
0
0
0
0
1.47126e-07
4.2112e-07
7.19801e-07
9.18572e-07
2.34163e-07
0
0
0
3.0394e-08
7.35092e-08
0
0
0
0
0
0
4.1387e-07
2.51993e-07
5.00749e-08
2.89166e-07
7.50654e-07
7.44048e-07
0
0
0
0
7.2892e-08
2.33643e-08
0
0
0
0
0
0
0
0
0
0
0
0
0
0
0
0
0
0
0
0
0
0
0
0
0
0
0
0
0
4.79418e-08
3.09612e-09
1.74373e-07
4.5903e-07
3.60819e-07
1.73469e-07
0
0
0
0
0
0
0
0
0
0
0
0
0
0
4.78169e-07
9.96421e-07
5.15593e-07
1.08974e-07
1.98032e-09
1.2078e-08
5.34667e-08
9.5071e-08
1.13401e-07
9.5888e-08
4.11952e-08
7.97222e-07
6.02594e-07
0
5.2935e-08
0
0
0
9.80473e-08
7.008e-07
8.77936e-07
6.44984e-07
2.4952e-07
0
0
0
4.78523e-08
1.6936e-07
2.57448e-07
7.59216e-07
3.42174e-07
0
0
0
0
0
0
0
2.58181e-07
3.40654e-07
1.38371e-07
0
0
0
0
1.44046e-07
2.5113e-07
1.32369e-07
0
0
0
0
0
0
0
0
0
4.79609e-08
0
0
0
8.12579e-08
2.27317e-07
3.01365e-07
3.08624e-07
4.32605e-07
3.92881e-07
0
0
0
0
0
0
0
0
0
0
0
0
0
5.13275e-08
1.09804e-07
1.4024e-07
0
0
0
0
0
2.38576e-08
8.1661e-08
7.39993e-08
6.71594e-08
5.77226e-08
3.4878e-08
2.35454e-09
0
0
0
1.30098e-08
4.68932e-08
7.33118e-08
0
0
0
0
0
3.78538e-08
0
0
0
1.06979e-08
2.11256e-08
1.07267e-08
0
0
2.62954e-08
7.10921e-08
8.8013e-08
6.40147e-08
0
0
0
0
3.26242e-08
0
0
0
0
0
0
0
0
0
0
0
0
0
2.31145e-08
0
0
0
0
0
0
0
0
0
0
9.13148e-10
4.15182e-10
0
0
0
0
0
6.20548e-09
0
0
0
0
0
0
0
0
0
0
0
0
0
0
0
0
0
5.93129e-09
0
0
0
0
0
0
0
0
0
0
0
0
0
0
0
0
0
4.18268e-08
0
0
0
0
0
0
0
0
0
0
0
0
0
0
0
0
0
0
0
6.34612e-07
0
0
0
0
1.10204e-06
1.6898e-06
1.093e-06
0
0
0
0
0
0
0
0
0
0
1.75218e-06
1.50076e-05
2.768e-05
3.16973e-05
2.83214e-05
2.09034e-05
1.19178e-05
4.94026e-06
1.61264e-06
1.91376e-07
0
0
0
0
0
2.28111e-08
6.52631e-08
8.94328e-08
1.0266e-07
1.08262e-07
1.06693e-07
9.89617e-08
8.55772e-08
6.76768e-08
4.57154e-08
2.06308e-08
0
0
0
0
0
0
0
0
0
0
0
0
0
0
0
0
0
0
0
3.08276e-08
2.07467e-07
0
0
0
0
0
6.35159e-07
5.43072e-06
2.3254e-05
3.56462e-05
3.30114e-05
1.47558e-05
0
0
0
0
0
0
0
0
2.80446e-07
1.17322e-06
0
7.99441e-06
4.62762e-05
6.37524e-05
4.38594e-05
1.20517e-05
1.78378e-06
3.00443e-07
6.96592e-08
5.74016e-08
7.04714e-08
7.51035e-08
7.14286e-08
6.20385e-08
5.10976e-08
4.1367e-08
3.07694e-08
2.14157e-08
1.21325e-08
2.66212e-09
0
0
0
0
0
0
0
0
0
0
0
0
0
0
0
0
0
0
0
0
0
0
0
0
0
0
0
0
0
0
0
0
0
0
0
0
0
0
0
0
0
0
0
0
0
0
0
0
0
0
0
0
0
0
0
0
0
0
0
0
0
0
6.00461e-11
1.6018e-10
1.43007e-10
2.33291e-10
1.56205e-10
3.28041e-10
3.67985e-10
5.61291e-10
2.8907e-09
1.96664e-10
0
0
0
0
0
0
1.34388e-06
2.39077e-06
2.39119e-06
1.73184e-06
1.75697e-07
0
0
0
0
0
0
0
0
9.28615e-08
2.09407e-06
3.26653e-06
3.1519e-06
2.14713e-06
1.29981e-06
1.45794e-06
2.02012e-06
1.79924e-06
1.03116e-06
3.18858e-07
0
0
0
0
0
1.24166e-08
4.81675e-08
6.59945e-08
7.21967e-08
7.18091e-08
6.67716e-08
5.95152e-08
4.99118e-08
3.89295e-08
2.63195e-08
1.24475e-08
0
0
0
0
0
0
0
0
0
0
0
0
0
0
0
0
0
0
1.33646e-07
6.82625e-07
8.23084e-07
0
0
0
0
0
0
0
4.34148e-06
4.49912e-06
3.17122e-06
1.63055e-07
0
0
0
0
0
0
0
0
1.7621e-06
3.90602e-06
1.80762e-06
5.66171e-06
1.06543e-05
1.11104e-05
7.67666e-06
3.56747e-06
1.3224e-06
4.7283e-07
2.0289e-07
1.45859e-07
1.32652e-07
1.23088e-07
1.13491e-07
1.02262e-07
9.07267e-08
7.89857e-08
6.45563e-08
4.87497e-08
3.03399e-08
9.95541e-09
0
0
0
0
0
0
0
0
0
0
0
0
0
0
0
0
0
0
0
0
0
0
0
0
0
0
0
0
0
0
0
0
0
0
0
0
0
0
0
0
0
0
0
0
0
0
0
0
0
0
0
0
0
0
0
0
0
0
0
0
0
0
6.98226e-11
3.97459e-10
3.86319e-10
6.15979e-10
4.65461e-10
7.05318e-10
7.88239e-10
6.41104e-10
2.34706e-09
0
0
6.24581e-07
0
0
0
0
2.08723e-06
2.73413e-06
2.32795e-06
1.59032e-06
6.48317e-07
0
0
0
0
0
0
0
0
0
4.45211e-07
9.12891e-07
1.39233e-06
1.27234e-06
7.5962e-07
5.13399e-07
6.66795e-07
5.43786e-07
1.65598e-07
0
0
0
0
0
0
0
3.96705e-09
3.06447e-08
4.51002e-08
5.01772e-08
4.90107e-08
4.35688e-08
3.61034e-08
2.77591e-08
1.93923e-08
1.10902e-08
2.89945e-09
0
0
0
0
0
0
0
0
0
0
0
0
0
0
0
2.33705e-09
1.12236e-07
2.52384e-07
3.86768e-07
3.91519e-07
2.29664e-08
0
0
0
0
8.79405e-07
1.16153e-06
0
0
0
0
0
0
1.49521e-06
3.6768e-06
6.47741e-07
0
0
0
5.08731e-06
1.65877e-07
0
0
6.19033e-07
1.10307e-06
1.20561e-06
1.08858e-06
8.78995e-07
7.46851e-07
7.59686e-07
7.89609e-07
7.51368e-07
6.79102e-07
6.0073e-07
5.2546e-07
4.44861e-07
3.5993e-07
2.7917e-07
2.02419e-07
1.28691e-07
5.72583e-08
0
0
0
0
0
0
0
0
0
0
0
0
0
0
0
0
0
0
0
0
0
0
0
0
0
0
0
0
1.24627e-09
2.36302e-08
3.31363e-08
3.38547e-08
2.90673e-08
2.10264e-08
1.16364e-08
2.75091e-09
0
0
0
0
0
0
0
0
0
0
0
0
0
0
0
0
0
0
0
0
0
0
0
0
0
0
0
1.9964e-10
3.94426e-10
9.65544e-10
9.67116e-10
1.11356e-09
1.87932e-09
0
4.19808e-09
0
4.27509e-06
4.4169e-06
1.64944e-06
1.45968e-07
0
6.73654e-07
3.30628e-06
2.89887e-06
2.06571e-06
1.56648e-06
1.18018e-06
2.64119e-07
0
0
0
0
0
0
0
0
0
0
1.89335e-07
2.90443e-07
1.34792e-07
0
0
0
0
0
0
0
0
0
0
0
0
0
0
0
0
0
0
0
4.07421e-09
1.51171e-08
0
0
0
9.39873e-09
9.55821e-08
1.70784e-07
2.28236e-07
2.67931e-07
2.92053e-07
3.03596e-07
3.05932e-07
3.01399e-07
2.90998e-07
2.7457e-07
2.54996e-07
2.30911e-07
1.9963e-07
1.59289e-07
1.01312e-07
1.58837e-08
0
0
0
0
0
3.67186e-07
1.10905e-06
1.28835e-06
6.4324e-07
0
0
0
0
0
2.38313e-07
1.60676e-06
4.48195e-06
2.15139e-06
1.29324e-06
7.17138e-07
0
0
0
0
0
1.65451e-07
2.71489e-07
5.10431e-07
7.46321e-07
9.42377e-07
9.43972e-07
7.91021e-07
6.23562e-07
4.80278e-07
3.79019e-07
3.09435e-07
2.53982e-07
2.01077e-07
1.42202e-07
7.26483e-08
0
0
0
0
0
0
0
0
0
0
0
0
0
0
0
0
0
0
0
0
0
0
0
0
0
0
0
0
0
0
0
0
0
0
0
0
0
0
0
0
0
1.30499e-08
4.11998e-08
6.04083e-08
6.87422e-08
5.60351e-08
3.19542e-08
8.38053e-09
0
0
0
0
0
0
0
8.07879e-10
3.75379e-09
5.44413e-09
4.93855e-09
2.89008e-09
3.17256e-10
0
0
0
0
0
0
0
7.00128e-10
0
3.28096e-09
0
8.21153e-09
0
7.45226e-06
4.41328e-06
2.17287e-06
1.05529e-06
9.01693e-07
3.08249e-06
2.83527e-06
1.83774e-06
1.47253e-06
1.29927e-06
1.08058e-06
4.41354e-07
0
0
0
0
0
0
0
0
0
0
0
0
0
0
0
0
0
0
0
0
0
0
0
0
0
0
7.48674e-08
2.678e-07
4.8052e-07
7.16061e-07
9.77393e-07
1.22887e-06
1.3486e-06
8.61358e-07
0
0
0
0
0
0
0
0
6.99496e-08
1.98948e-07
2.84495e-07
3.33312e-07
3.55803e-07
3.53941e-07
3.37597e-07
3.08885e-07
2.74434e-07
2.38777e-07
2.02881e-07
1.55492e-07
6.93036e-08
0
0
0
0
3.38987e-07
1.05848e-06
1.19922e-06
8.64341e-07
2.41438e-07
0
0
0
3.66422e-07
0
0
0
0
0
0
0
7.02782e-08
0
0
0
0
4.06824e-08
3.07559e-07
3.22831e-07
1.58401e-07
3.56603e-08
0
0
7.99084e-09
3.24212e-08
4.56277e-08
4.37244e-08
2.43124e-08
0
0
0
0
0
0
0
0
0
0
0
0
0
0
0
0
0
0
0
0
0
0
0
0
0
0
0
0
0
0
0
0
0
0
0
0
0
0
0
0
0
0
0
4.71082e-08
9.50657e-08
1.23585e-07
1.38402e-07
1.40629e-07
1.32342e-07
1.04763e-07
4.37268e-08
0
0
0
0
0
0
0
0
0
0
0
2.62158e-09
4.80701e-09
3.6166e-09
1.10142e-09
0
0
0
0
5.95041e-10
0
7.48525e-09
0
2.00072e-08
0
3.93193e-06
2.80204e-06
1.56433e-06
1.11839e-06
1.84929e-06
2.40824e-06
1.89208e-06
1.6314e-06
1.46311e-06
1.3175e-06
1.1159e-06
6.3998e-07
0
0
0
0
0
0
0
0
0
0
0
0
0
0
0
0
0
0
0
0
0
0
3.9087e-08
3.46663e-07
7.05209e-07
1.08898e-06
1.45911e-06
1.80008e-06
2.14849e-06
2.54687e-06
3.13684e-06
4.11987e-06
5.77161e-06
5.86466e-06
0
0
0
0
0
0
0
0
0
0
0
0
1.80734e-07
3.14017e-07
3.73352e-07
3.79287e-07
3.43257e-07
2.99598e-07
2.55296e-07
2.26034e-07
2.02294e-07
1.55005e-07
8.11773e-09
0
0
0
3.89262e-07
7.33789e-07
7.12946e-07
4.42623e-07
1.26589e-07
9.17988e-08
6.62537e-07
3.70786e-06
5.94102e-07
0
0
0
0
0
0
9.73574e-07
0
0
0
0
0
0
0
0
0
0
0
3.91508e-08
7.2213e-08
9.06073e-08
9.13511e-08
6.92639e-08
1.70947e-08
0
0
0
0
0
7.72811e-09
1.11497e-07
8.59904e-08
2.85058e-08
0
0
0
0
0
0
0
0
0
0
0
0
0
0
0
0
0
0
0
0
0
0
0
0
0
0
0
0
0
0
0
0
0
3.5738e-08
1.20221e-07
1.57534e-07
1.71521e-07
1.68267e-07
1.54761e-07
1.30865e-07
9.48536e-08
3.82395e-08
0
0
0
0
0
0
0
0
0
0
0
0
0
1.13566e-08
1.445e-08
4.85103e-09
5.83956e-09
0
7.80924e-09
0
1.68349e-08
0
3.43132e-08
0
4.70316e-07
8.4783e-07
1.07641e-06
1.57162e-06
0
3.06171e-07
7.25962e-07
9.04142e-07
9.80609e-07
1.0377e-06
9.64028e-07
6.10258e-07
0
0
0
0
0
0
0
0
0
0
0
0
0
0
0
0
0
0
0
0
1.83294e-07
5.62057e-07
9.80785e-07
1.37584e-06
1.68379e-06
1.84246e-06
1.86759e-06
1.87129e-06
1.93237e-06
2.1547e-06
2.6199e-06
3.45842e-06
4.77047e-06
4.19633e-06
0
0
0
0
0
0
0
0
0
0
0
0
0
0
1.63931e-07
3.23348e-07
3.69398e-07
3.38311e-07
2.81747e-07
2.34893e-07
2.0421e-07
1.72179e-07
1.07609e-07
0
0
0
0
0
1.25414e-07
1.65495e-07
1.09883e-07
2.22413e-07
5.18864e-07
1.99e-06
3.06735e-06
0
0
0
0
0
8.64624e-07
2.31651e-06
8.02134e-07
2.24596e-07
2.33326e-07
2.12189e-07
0
0
0
0
0
0
4.99559e-08
1.01004e-07
1.38277e-07
1.5934e-07
1.56853e-07
1.21113e-07
3.97686e-08
0
0
0
0
0
8.15463e-07
6.09538e-07
3.7526e-07
2.00897e-07
7.37891e-08
0
0
0
0
0
0
0
0
0
0
0
0
0
0
0
0
0
0
0
0
0
0
0
0
0
0
0
0
0
0
0
0
0
8.50487e-08
1.81262e-07
2.16003e-07
2.04055e-07
1.74814e-07
1.42892e-07
1.06679e-07
5.86308e-08
0
0
0
0
0
0
0
0
0
0
0
0
0
0
1.16103e-08
7.39636e-09
0
0
6.59468e-10
0
2.28686e-08
0
2.9677e-08
0
2.98336e-08
1.60021e-07
5.26064e-07
1.49919e-06
0
6.11821e-08
4.7276e-07
6.60998e-07
7.31604e-07
7.73725e-07
7.21669e-07
4.28165e-07
0
0
0
0
0
0
0
0
0
0
0
0
0
0
0
0
0
0
1.25384e-07
4.67244e-07
8.19463e-07
1.13504e-06
1.38884e-06
1.50725e-06
1.4999e-06
1.41176e-06
1.3002e-06
1.2372e-06
1.26966e-06
1.43512e-06
1.77057e-06
2.3252e-06
3.02765e-06
2.66545e-06
0
0
0
0
0
0
0
0
0
0
0
0
0
0
0
1.62729e-08
2.69684e-07
3.37787e-07
2.99936e-07
2.42991e-07
1.98996e-07
1.648e-07
1.30876e-07
8.88054e-08
4.51154e-08
2.71952e-09
0
0
0
0
0
9.99436e-08
1.95449e-07
8.97137e-08
2.41798e-06
2.39569e-08
0
0
0
5.77549e-08
1.33515e-06
2.29977e-06
2.37598e-06
2.4111e-06
1.14602e-06
3.17179e-07
0
0
0
0
0
7.96352e-08
1.42403e-07
1.91649e-07
2.23081e-07
2.28857e-07
2.05982e-07
1.51114e-07
4.25694e-08
0
0
0
0
3.10108e-06
2.24138e-06
1.3258e-06
8.06731e-07
4.86339e-07
2.70107e-07
1.21636e-07
2.09677e-08
0
0
0
0
0
0
0
0
0
0
0
0
0
0
0
0
0
0
0
0
0
0
0
0
0
0
0
0
0
0
0
0
1.7172e-07
2.47597e-07
2.47244e-07
2.16587e-07
1.73802e-07
1.26869e-07
7.37753e-08
6.87796e-09
0
0
0
0
0
0
0
5.92588e-09
0
0
0
0
0
0
1.25662e-08
1.32854e-08
0
0
0
1.38435e-08
0
2.28342e-08
0
0
0
1.92685e-07
8.74661e-07
0
1.54124e-07
3.46549e-07
4.15831e-07
3.99266e-07
4.21001e-07
4.41656e-07
2.78001e-07
0
0
0
0
0
0
0
0
0
0
0
0
0
0
0
0
0
2.67979e-07
5.64535e-07
8.43976e-07
1.09312e-06
1.26693e-06
1.29688e-06
1.16361e-06
9.08136e-07
6.49126e-07
4.65072e-07
3.85995e-07
4.18766e-07
5.66719e-07
8.29355e-07
1.19221e-06
1.54486e-06
1.42091e-06
3.04353e-07
0
0
2.70531e-08
3.63994e-07
5.51539e-07
5.85673e-07
4.69301e-07
1.91083e-07
0
0
0
0
0
0
0
0
2.16771e-07
2.76525e-07
2.36982e-07
1.90132e-07
1.54341e-07
1.26474e-07
1.04574e-07
8.90044e-08
7.62031e-08
5.51053e-08
0
0
0
0
1.87413e-08
0
0
0
0
0
0
0
4.84868e-07
1.13307e-06
1.47999e-06
1.43994e-06
8.21297e-07
3.33294e-07
8.43272e-08
0
0
0
3.79957e-08
1.18116e-07
1.79388e-07
2.35826e-07
2.71486e-07
2.77567e-07
2.6683e-07
2.39634e-07
1.77276e-07
4.7958e-08
0
0
0
0
4.2116e-06
2.62347e-06
1.55662e-06
9.39378e-07
5.65785e-07
3.27545e-07
1.7712e-07
8.326e-08
2.07413e-08
0
0
0
0
0
0
0
0
0
0
0
0
0
0
0
0
0
0
0
0
0
0
0
0
0
0
0
0
0
0
8.17175e-08
1.83301e-07
2.84953e-07
3.13279e-07
2.79959e-07
2.21855e-07
1.59695e-07
9.72774e-08
2.7069e-08
0
0
0
0
0
0
0
2.53329e-10
1.97866e-08
0
0
0
0
0
0
1.37667e-08
4.60603e-09
0
0
9.75253e-09
1.2249e-09
1.5732e-08
0
0
0
2.0026e-08
3.32695e-07
4.06844e-08
1.2999e-07
2.31658e-07
2.76384e-07
2.29509e-07
1.86147e-07
1.73671e-07
8.35487e-08
0
0
0
0
0
0
0
0
0
0
0
0
0
0
0
6.5892e-08
3.35759e-07
6.02191e-07
8.2674e-07
1.01359e-06
1.10561e-06
1.01636e-06
7.50761e-07
4.28193e-07
1.67837e-07
2.19909e-08
0
8.88535e-08
2.97608e-07
6.33763e-07
1.11352e-06
1.7444e-06
2.43209e-06
2.53369e-06
4.1017e-07
0
0
0
0
0
1.86974e-07
4.99133e-07
7.15729e-07
7.89036e-07
6.37133e-07
1.59921e-07
0
0
0
0
0
0
1.61159e-07
2.07506e-07
1.74826e-07
1.42358e-07
1.19006e-07
1.0117e-07
8.6967e-08
7.79062e-08
6.8288e-08
4.17179e-08
0
0
0
0
0
0
0
0
0
0
0
4.26196e-07
6.7832e-07
7.02765e-07
5.28386e-07
2.69605e-07
1.01304e-07
4.48172e-09
0
0
5.00003e-08
1.48363e-07
1.96257e-07
2.41211e-07
2.87057e-07
3.03441e-07
3.03705e-07
2.94183e-07
2.62776e-07
1.92381e-07
2.30729e-08
0
0
0
0
4.97062e-06
2.88116e-06
1.6445e-06
9.14185e-07
4.73932e-07
2.15323e-07
6.73934e-08
0
0
0
0
0
0
0
0
0
0
0
0
0
0
0
0
0
0
0
0
0
0
0
0
0
0
0
0
0
0
0
1.72199e-07
3.92827e-07
4.99096e-07
4.87502e-07
4.5693e-07
3.89579e-07
2.99788e-07
2.13539e-07
1.33506e-07
5.33779e-08
0
0
0
0
0
0
0
0
2.50548e-08
2.17926e-08
0
0
0
0
0
0
6.00263e-09
9.36581e-09
2.01041e-09
1.20114e-08
5.56622e-09
1.44044e-08
0
0
0
0
2.23938e-07
1.97056e-07
1.37697e-07
1.6254e-07
1.567e-07
7.20919e-08
3.08869e-08
4.83097e-08
2.07583e-08
0
0
0
0
0
0
0
0
0
0
0
0
0
0
9.39889e-08
3.40289e-07
5.47015e-07
7.0622e-07
8.34879e-07
8.42825e-07
6.57444e-07
3.53772e-07
6.49183e-08
0
0
0
1.06219e-08
2.63472e-07
6.39185e-07
1.16604e-06
1.88665e-06
2.87123e-06
4.15271e-06
4.92006e-06
0
0
0
0
0
0
0
0
9.26238e-08
2.88882e-07
5.34058e-07
6.85604e-07
5.05346e-07
0
0
0
0
0
0
1.13969e-07
1.50617e-07
1.27228e-07
1.06507e-07
9.43191e-08
8.46243e-08
7.57534e-08
6.26478e-08
3.8973e-08
0
0
0
0
0
0
0
0
0
0
0
2.58937e-07
3.4434e-07
2.96739e-07
1.82562e-07
7.03498e-08
1.09123e-08
0
0
0
8.30362e-08
1.87267e-07
2.29912e-07
2.58255e-07
2.8607e-07
3.02098e-07
3.05506e-07
2.96149e-07
2.61166e-07
1.65285e-07
0
0
0
0
3.65167e-06
6.71154e-06
3.83454e-06
2.18953e-06
1.19082e-06
5.99747e-07
2.61321e-07
5.01528e-08
0
0
0
0
0
3.42927e-08
1.26978e-08
0
0
0
0
0
0
0
0
0
0
0
0
0
0
0
0
0
0
0
0
0
0
0
2.27159e-09
4.53941e-07
8.65137e-07
1.14831e-06
1.13636e-06
9.4326e-07
6.71192e-07
4.5844e-07
3.06026e-07
1.87724e-07
8.74975e-08
0
0
0
0
0
0
0
0
4.60659e-09
3.17577e-08
3.43916e-10
0
0
0
0
0
0
1.30333e-08
1.31238e-08
1.92556e-08
1.19486e-08
1.64267e-08
0
0
0
0
1.27908e-07
2.19009e-07
9.20747e-08
1.10506e-07
1.2873e-07
2.13416e-08
0
0
1.46189e-08
0
0
0
0
0
0
0
0
0
0
0
0
0
5.38373e-08
2.35481e-07
3.70641e-07
4.67162e-07
5.59767e-07
5.51039e-07
3.65568e-07
9.76374e-08
0
0
0
0
6.16697e-08
3.41133e-07
7.18952e-07
1.23046e-06
1.9338e-06
2.89468e-06
4.28296e-06
6.41167e-06
8.99477e-06
0
0
0
0
0
0
0
1.34573e-07
1.89862e-07
9.02026e-08
1.56381e-08
1.858e-07
4.93938e-07
4.94365e-07
0
0
0
0
0
0
1.01598e-07
1.1769e-07
9.74972e-08
8.48113e-08
7.7951e-08
6.99605e-08
5.8737e-08
3.01695e-08
0
0
0
0
0
0
0
0
0
0
5.25132e-09
2.11143e-07
1.95858e-07
1.10641e-07
2.20411e-08
0
0
0
0
0
1.16179e-08
1.50599e-07
2.23058e-07
2.46784e-07
2.61927e-07
2.77237e-07
2.83601e-07
2.7628e-07
2.34671e-07
5.99817e-08
0
0
0
0
6.15095e-06
8.00637e-06
4.99429e-06
2.89494e-06
1.5601e-06
7.78987e-07
3.68071e-07
1.45363e-07
0
0
0
0
0
0
9.13253e-08
4.2068e-08
0
0
0
0
0
0
0
0
0
0
0
0
0
0
0
0
0
0
0
0
0
0
7.00863e-08
5.8504e-07
1.3393e-06
1.89426e-06
2.23221e-06
2.07658e-06
1.55975e-06
9.01811e-07
5.0446e-07
2.84547e-07
1.40147e-07
2.72175e-08
0
0
0
0
0
0
0
0
1.71672e-08
1.03755e-08
0
0
0
0
0
0
1.43592e-08
2.24143e-08
2.89969e-08
2.11618e-08
2.15279e-08
0
0
0
0
1.0373e-07
2.56233e-07
5.66549e-08
4.04479e-08
9.33123e-08
1.62628e-08
0
0
1.66071e-08
8.79447e-08
1.55235e-07
3.1343e-07
3.77007e-07
3.62045e-07
2.94154e-07
0
0
0
0
0
0
0
7.57075e-08
1.41821e-07
1.43361e-07
2.18611e-07
2.86144e-07
1.95206e-07
4.3677e-09
0
0
0
0
2.47921e-08
2.48347e-07
5.38366e-07
9.18441e-07
1.42982e-06
2.1004e-06
2.93169e-06
3.82449e-06
4.39955e-06
3.22143e-06
0
0
0
0
0
0
0
0
1.84504e-07
2.9522e-07
8.21155e-08
0
0
3.41801e-07
4.37503e-07
0
0
0
0
0
4.49133e-09
1.14824e-07
1.01467e-07
8.0719e-08
7.18878e-08
6.36028e-08
5.33829e-08
3.40602e-08
0
0
0
0
0
0
0
0
0
0
0
2.47833e-07
1.85383e-07
3.69567e-08
0
0
0
0
0
0
0
6.3615e-08
1.85937e-07
2.28192e-07
2.42038e-07
2.50412e-07
2.48349e-07
2.33054e-07
1.61325e-07
0
0
0
0
0
4.69803e-06
7.57417e-06
5.31128e-06
3.13576e-06
1.5817e-06
6.50457e-07
2.29656e-07
9.45504e-08
3.70797e-08
0
0
0
0
0
1.12246e-07
1.75012e-07
3.43052e-08
0
0
0
0
0
0
0
0
0
0
0
0
0
0
0
0
0
0
0
0
0
1.46749e-07
5.83968e-07
1.43841e-06
2.45762e-06
3.08975e-06
3.46854e-06
3.23204e-06
2.22215e-06
1.06417e-06
5.07941e-07
2.41881e-07
8.8544e-08
0
0
0
0
0
0
1.09999e-08
1.70475e-08
1.50543e-08
0
0
0
0
0
0
0
1.79332e-08
3.14543e-08
3.87687e-08
3.07658e-08
2.95954e-08
2.39506e-09
0
0
0
2.13676e-09
2.4274e-07
2.2618e-08
0
4.6265e-08
4.23186e-08
0
0
0
1.41412e-07
4.96917e-07
1.61025e-06
3.3761e-06
1.37757e-06
1.00892e-06
7.09052e-07
2.20345e-07
3.86473e-08
4.8922e-08
3.93442e-08
2.85642e-09
0
0
0
0
0
7.58756e-08
1.73732e-08
0
0
0
0
0
3.95461e-08
2.02159e-07
4.15452e-07
6.98369e-07
1.0635e-06
1.48014e-06
1.80884e-06
1.83551e-06
1.4252e-06
4.6734e-07
0
0
0
0
0
0
0
0
0
7.68261e-08
2.01301e-07
0
0
0
3.17886e-07
3.82628e-07
0
0
0
0
0
1.11776e-07
1.18814e-07
8.2654e-08
6.3091e-08
5.5009e-08
4.70647e-08
3.72527e-08
1.12793e-08
0
0
0
0
0
0
0
0
0
0
9.48485e-08
2.11573e-07
2.26756e-08
0
0
0
0
0
0
0
0
1.37446e-07
2.09213e-07
2.31262e-07
2.29539e-07
2.05546e-07
1.6174e-07
2.66225e-08
0
0
0
0
0
3.65037e-06
6.3039e-06
5.05448e-06
3.17805e-06
1.62281e-06
5.73412e-07
5.59353e-08
0
0
0
0
0
0
0
1.34979e-07
2.80741e-07
1.80253e-07
0
0
0
0
0
0
0
0
0
0
0
0
0
0
0
0
0
0
0
0
0
2.75411e-07
6.63973e-07
1.35465e-06
2.61217e-06
3.63911e-06
4.2357e-06
4.65891e-06
4.43399e-06
2.71041e-06
1.13068e-06
4.89577e-07
2.12191e-07
6.72263e-08
0
0
0
0
6.09079e-08
6.7491e-08
5.57003e-08
3.71052e-08
6.56758e-10
0
0
0
0
0
0
2.5549e-08
4.18153e-08
4.94495e-08
3.9934e-08
3.83722e-08
8.25515e-09
0
0
0
0
1.92427e-07
4.73932e-09
0
0
8.98369e-08
6.95704e-09
0
0
2.17357e-07
7.66492e-07
2.14774e-06
3.98613e-06
2.14368e-06
1.71501e-06
1.4607e-06
9.70706e-07
3.88142e-07
2.62535e-07
2.21691e-07
1.32739e-07
0
0
0
0
0
0
2.48362e-08
0
0
0
0
0
0
0
4.85315e-08
1.22062e-07
2.03464e-07
2.64216e-07
2.49059e-07
1.23623e-07
0
0
0
0
0
0
0
0
0
0
0
0
8.56672e-08
7.34544e-08
0
0
0
3.95214e-07
1.57404e-07
0
0
0
0
8.11009e-08
1.21193e-07
8.2984e-08
5.3381e-08
4.14408e-08
3.52285e-08
3.04639e-08
1.95816e-08
0
0
0
0
0
0
0
0
0
0
0
1.08691e-07
3.47834e-08
0
0
0
0
0
0
0
0
8.53965e-08
1.90241e-07
2.27456e-07
2.24666e-07
1.89156e-07
1.04223e-07
0
0
0
0
0
0
2.34854e-06
4.21277e-06
3.80325e-06
2.70817e-06
1.59943e-06
7.18413e-07
1.27947e-07
0
0
0
0
0
0
0
2.28377e-07
3.9228e-07
3.09459e-07
1.62627e-07
9.25413e-09
0
0
0
0
0
0
0
0
0
0
0
0
0
0
0
0
0
0
0
4.612e-07
8.8025e-07
1.3988e-06
2.52698e-06
3.87894e-06
4.68757e-06
5.19829e-06
5.66466e-06
5.33281e-06
2.90996e-06
1.17073e-06
5.06083e-07
2.33114e-07
8.88225e-08
0
0
0
1.30949e-07
1.48192e-07
1.11798e-07
7.56191e-08
2.75454e-08
0
0
0
0
0
5.43986e-09
3.95832e-08
5.5762e-08
6.20972e-08
5.00403e-08
4.66129e-08
1.34937e-08
0
0
0
0
1.54408e-07
1.45981e-08
0
0
4.31675e-08
1.62322e-07
1.29937e-07
1.82618e-07
4.72634e-07
1.12144e-06
2.3717e-06
3.58922e-06
2.80323e-06
2.35789e-06
2.10528e-06
1.67761e-06
9.68801e-07
5.3751e-07
4.17448e-07
3.09518e-07
1.11638e-07
0
0
0
0
0
6.87683e-08
1.23081e-07
9.13191e-08
2.91871e-08
0
0
0
0
0
0
0
0
0
0
0
0
0
0
0
0
0
0
0
0
0
0
2.55832e-08
9.70937e-08
0
0
0
2.81552e-07
3.01401e-07
0
0
0
0
6.94852e-08
1.01948e-07
6.50077e-08
3.73703e-08
2.5559e-08
2.165e-08
1.90203e-08
1.64629e-08
0
0
0
0
0
0
0
0
0
0
0
0
0
0
0
0
0
0
0
0
0
3.17924e-08
1.70515e-07
2.25185e-07
2.22171e-07
1.71164e-07
3.71769e-08
0
0
0
0
0
0
6.2169e-07
2.00715e-06
1.93781e-06
1.47261e-06
1.01755e-06
5.98423e-07
1.83393e-07
0
0
0
0
0
0
1.13531e-07
4.28498e-07
5.65592e-07
4.57229e-07
3.71332e-07
2.89326e-07
1.93271e-07
1.75711e-07
2.30324e-07
2.48828e-07
1.71508e-07
4.2383e-08
0
0
0
0
0
0
0
0
0
0
0
0
0
7.95575e-07
1.27601e-06
1.72688e-06
2.44227e-06
3.99445e-06
5.11019e-06
5.64657e-06
6.11759e-06
6.40571e-06
5.67034e-06
3.00166e-06
1.22615e-06
5.68845e-07
2.8732e-07
1.29898e-07
2.42508e-08
1.10132e-08
1.97662e-07
2.63754e-07
1.92099e-07
1.28547e-07
6.6571e-08
0
0
0
0
0
2.98885e-08
6.48809e-08
7.77218e-08
8.02405e-08
6.34577e-08
5.58376e-08
1.83391e-08
0
0
0
0
1.22119e-07
1.77916e-08
0
0
0
8.93254e-08
2.4905e-07
3.91062e-07
7.18311e-07
1.36958e-06
2.3318e-06
2.79691e-06
2.65758e-06
2.42773e-06
2.26163e-06
1.9321e-06
1.49013e-06
8.76237e-07
5.90389e-07
4.50815e-07
2.82757e-07
0
0
0
0
0
9.49288e-09
2.15239e-07
2.35085e-07
1.52298e-07
4.38382e-08
0
0
0
0
0
0
0
0
0
0
0
0
0
7.73635e-08
3.77891e-07
4.87664e-07
4.25396e-07
3.07918e-07
2.39182e-07
1.71018e-07
8.84832e-08
9.30097e-08
1.13923e-07
0
0
0
2.19938e-07
2.81682e-07
4.48849e-08
0
0
2.31165e-09
1.31785e-07
1.00576e-07
4.95039e-08
2.34397e-08
1.44184e-08
1.16826e-08
9.94281e-09
9.04129e-09
5.27935e-09
0
0
0
0
0
0
0
0
0
0
0
0
0
0
0
0
0
0
0
0
0
1.46116e-07
2.18808e-07
2.16125e-07
1.55643e-07
1.2492e-08
0
0
0
0
0
0
5.69251e-07
1.39544e-06
1.07844e-06
5.80123e-07
3.8063e-07
2.7463e-07
7.11051e-08
0
0
1.53257e-08
2.32705e-08
0
2.84466e-08
3.02254e-07
7.07974e-07
7.89543e-07
6.22483e-07
6.20405e-07
6.45504e-07
5.76914e-07
5.87555e-07
6.87132e-07
6.77182e-07
5.84669e-07
5.91462e-07
0
0
0
0
0
0
0
0
0
0
0
0
0
7.64354e-07
2.02951e-06
2.27574e-06
2.72935e-06
3.81543e-06
5.3309e-06
6.02108e-06
6.40945e-06
6.79118e-06
6.18744e-06
5.48318e-06
2.71104e-06
1.20146e-06
6.00046e-07
3.24816e-07
1.77017e-07
1.3137e-07
2.74879e-07
4.10449e-07
3.05098e-07
1.97116e-07
1.11652e-07
2.21749e-08
0
0
0
0
7.32583e-08
1.12961e-07
1.16424e-07
1.09789e-07
8.3915e-08
6.89952e-08
2.42136e-08
0
0
0
0
9.19104e-08
3.72697e-08
0
0
0
0
7.26357e-08
3.34599e-07
7.03289e-07
1.29804e-06
2.05435e-06
2.11223e-06
1.82799e-06
2.13479e-06
2.0846e-06
1.83613e-06
1.53689e-06
1.19802e-06
7.69989e-07
5.55432e-07
4.03032e-07
2.07055e-07
0
0
0
0
0
1.5929e-07
3.26424e-07
3.14762e-07
2.09586e-07
8.6865e-08
0
0
0
0
0
0
0
0
0
0
0
0
1.04757e-06
1.29442e-06
1.12813e-06
8.33359e-07
5.61889e-07
3.94742e-07
2.77817e-07
1.56824e-07
1.07199e-07
1.04492e-07
1.95984e-08
0
2.44957e-08
1.62699e-07
2.26244e-07
2.24438e-07
1.05416e-07
1.66204e-07
2.64804e-07
2.06352e-07
1.17834e-07
5.54643e-08
2.77318e-08
1.96542e-08
1.71337e-08
1.49779e-08
1.11008e-08
9.64226e-09
7.3183e-10
0
0
0
0
0
0
0
0
0
0
0
0
0
0
0
0
0
0
0
0
1.1041e-07
2.11023e-07
2.26232e-07
1.81054e-07
8.99164e-08
0
0
0
0
5.58883e-07
2.03219e-06
2.51207e-06
1.63463e-06
3.58079e-07
0
0
0
0
0
0
3.63921e-08
4.29483e-08
1.4738e-08
1.00332e-07
5.41916e-07
1.01741e-06
1.03429e-06
8.3432e-07
9.60281e-07
1.0668e-06
9.89011e-07
1.01406e-06
1.10752e-06
1.05357e-06
1.10849e-06
8.84496e-08
0
0
0
0
0
0
0
0
0
0
0
0
0
0
2.70609e-06
3.23038e-06
3.31098e-06
3.88432e-06
5.33799e-06
6.27003e-06
6.59984e-06
6.93942e-06
6.8207e-06
5.55609e-06
4.6575e-06
2.17787e-06
1.07374e-06
5.88693e-07
3.61685e-07
2.87186e-07
3.90432e-07
5.73143e-07
4.58851e-07
2.9069e-07
1.66675e-07
5.95586e-08
0
0
0
0
1.11895e-07
2.19804e-07
1.98073e-07
1.6817e-07
1.20825e-07
8.908e-08
3.21608e-08
0
0
0
0
0
8.38209e-08
0
0
0
0
0
3.52791e-08
3.9733e-07
8.95199e-07
1.38288e-06
1.32083e-06
9.41039e-07
1.28971e-06
1.56444e-06
1.50724e-06
1.28718e-06
1.08318e-06
8.80239e-07
5.97715e-07
4.33746e-07
2.94765e-07
1.11625e-07
0
0
0
0
0
2.18252e-07
3.47307e-07
3.26817e-07
2.26157e-07
1.07286e-07
0
0
0
0
0
0
0
0
0
0
1.157e-06
2.06737e-06
1.62118e-06
1.12366e-06
7.41555e-07
4.72118e-07
3.29248e-07
2.43438e-07
1.374e-07
7.33931e-08
7.46569e-08
4.29121e-08
0
3.94467e-08
1.08922e-07
2.18553e-07
3.87591e-07
4.49221e-07
4.71713e-07
3.67124e-07
2.17468e-07
1.17976e-07
6.37514e-08
3.98603e-08
3.2437e-08
2.94043e-08
2.70814e-08
2.25073e-08
1.78784e-08
1.45763e-08
3.31693e-10
0
0
0
0
0
0
0
0
0
0
0
0
0
0
0
0
0
0
0
5.04735e-08
1.72314e-07
2.16766e-07
2.17918e-07
2.34424e-07
4.04967e-07
1.0763e-06
2.59983e-06
5.0654e-06
7.79111e-06
8.52694e-06
5.19052e-06
4.35221e-07
0
0
0
0
0
0
0
4.68395e-08
5.66471e-08
3.73779e-08
2.18143e-07
8.2287e-07
1.28535e-06
1.24793e-06
1.12205e-06
1.39812e-06
1.47573e-06
1.35344e-06
1.38265e-06
1.39368e-06
1.27681e-06
1.15104e-06
0
0
0
0
0
0
0
0
0
0
0
0
0
0
0
1.01334e-06
4.32729e-06
4.16884e-06
4.36379e-06
5.26031e-06
6.34003e-06
6.58498e-06
6.71293e-06
6.99229e-06
5.7412e-06
5.77602e-06
3.32375e-06
1.67559e-06
9.23419e-07
5.83773e-07
4.70434e-07
5.40902e-07
7.23914e-07
6.39764e-07
4.10296e-07
2.36598e-07
1.02167e-07
0
0
0
0
1.54141e-07
3.85127e-07
3.71212e-07
2.94398e-07
1.9961e-07
1.27448e-07
4.28562e-08
0
0
0
0
0
1.01466e-07
0
0
0
0
0
0
4.4891e-09
3.70526e-07
5.96161e-07
4.67554e-07
2.25895e-07
2.52207e-07
6.98673e-07
9.06311e-07
8.75589e-07
7.64458e-07
6.55276e-07
5.31094e-07
3.77117e-07
2.73731e-07
1.70128e-07
1.99252e-08
0
0
0
0
0
1.91384e-07
2.90375e-07
2.75321e-07
1.94268e-07
9.21754e-08
0
0
0
0
0
0
0
0
0
1.82178e-06
1.4636e-06
9.21641e-07
5.77023e-07
3.56547e-07
2.2457e-07
1.83782e-07
1.63833e-07
8.80002e-08
2.318e-08
3.73451e-08
5.09347e-08
2.38592e-08
1.04103e-08
6.10272e-08
2.78758e-07
5.19858e-07
5.73558e-07
5.1529e-07
3.60569e-07
2.08332e-07
1.21436e-07
7.48935e-08
5.30448e-08
4.45903e-08
3.99025e-08
3.6419e-08
3.33237e-08
2.81661e-08
2.55827e-08
1.73378e-08
1.98585e-09
0
0
0
0
0
0
0
0
0
0
0
0
0
0
0
0
0
0
0
1.12318e-07
1.8083e-07
2.32043e-07
3.79039e-07
9.18034e-07
2.62029e-06
6.03091e-06
1.12146e-05
1.72644e-05
1.92696e-05
9.57234e-06
0
0
0
0
0
0
0
0
4.66315e-08
6.37408e-08
7.37261e-08
4.10719e-07
1.12202e-06
1.50626e-06
1.46662e-06
1.56399e-06
1.82588e-06
1.74759e-06
1.59835e-06
1.62701e-06
1.48602e-06
1.28513e-06
8.67045e-07
0
0
0
0
0
0
0
0
0
0
0
0
3.70228e-07
0
0
0
4.28782e-06
5.26524e-06
5.03573e-06
5.38899e-06
6.3035e-06
6.41157e-06
6.23721e-06
6.43958e-06
6.14765e-06
5.63013e-06
4.34429e-06
2.30531e-06
1.29686e-06
8.3649e-07
6.73829e-07
7.08877e-07
8.53012e-07
8.04868e-07
5.43306e-07
3.2128e-07
1.55556e-07
2.54178e-08
0
0
5.6448e-08
2.39856e-07
4.16413e-07
5.18084e-07
4.90329e-07
3.46509e-07
1.99041e-07
5.53127e-08
0
0
0
0
0
0
2.96794e-08
0
0
0
0
0
0
0
3.69209e-08
0
0
0
5.88631e-09
2.35068e-07
3.66501e-07
3.81408e-07
3.28587e-07
2.57135e-07
2.03179e-07
1.59409e-07
1.13636e-07
4.49143e-08
0
0
0
0
0
0
1.2979e-07
2.0434e-07
2.01198e-07
1.51208e-07
8.58118e-08
2.4326e-08
0
0
0
0
0
7.17224e-09
2.42945e-07
2.75482e-07
1.685e-07
9.01426e-08
4.21412e-08
1.86026e-08
2.99167e-08
7.96998e-08
9.47488e-08
1.55792e-08
0
0
5.36783e-08
2.26207e-08
0
5.8814e-08
4.46986e-07
6.36247e-07
5.70143e-07
4.65487e-07
3.18257e-07
1.95243e-07
1.27214e-07
8.83568e-08
6.73051e-08
5.73892e-08
5.11212e-08
4.52293e-08
4.1791e-08
3.83667e-08
3.59312e-08
3.07602e-08
1.71851e-08
2.16495e-09
0
0
0
0
0
0
0
0
0
0
0
0
0
0
0
0
0
0
4.20964e-08
1.36848e-07
2.31394e-07
4.87722e-07
1.28965e-06
3.72029e-06
8.5602e-06
1.63573e-05
2.75225e-05
3.74942e-05
1.97047e-05
0
0
0
0
0
0
0
0
3.98823e-08
6.42448e-08
1.39142e-07
6.86175e-07
1.41285e-06
1.71366e-06
1.79595e-06
2.11227e-06
2.02119e-06
1.79777e-06
1.68935e-06
1.70381e-06
1.37296e-06
1.07881e-06
6.02074e-07
0
0
0
3.83081e-07
0
0
0
0
0
0
0
0
2.01146e-06
1.98436e-06
0
0
1.04994e-06
6.00208e-06
5.79005e-06
5.74604e-06
6.20677e-06
6.16508e-06
5.67585e-06
5.6255e-06
5.79303e-06
4.95256e-06
5.03172e-06
2.93789e-06
1.71395e-06
1.12174e-06
8.91386e-07
8.77104e-07
9.58371e-07
9.11456e-07
6.57335e-07
4.09398e-07
2.20647e-07
7.7312e-08
0
9.72374e-09
1.28761e-07
2.9414e-07
4.21163e-07
4.97058e-07
5.45515e-07
4.59401e-07
2.28557e-07
3.0063e-08
0
0
0
0
0
0
0
0
0
0
0
0
0
0
0
0
0
0
0
0
5.00637e-08
8.33022e-08
4.47491e-08
0
0
0
0
0
0
0
0
0
0
0
0
8.77231e-08
1.41385e-07
1.50134e-07
1.3636e-07
1.22085e-07
1.26475e-07
1.58247e-07
2.27005e-07
3.33881e-07
4.61065e-07
5.14538e-07
2.78132e-07
0
0
0
0
0
0
1.53148e-08
7.12208e-09
0
0
0
6.12283e-08
0
0
2.36687e-07
7.04402e-07
6.87207e-07
5.26643e-07
4.28236e-07
2.81284e-07
1.88973e-07
1.35169e-07
9.94742e-08
7.74041e-08
6.70621e-08
6.20198e-08
5.61996e-08
5.07635e-08
4.74084e-08
4.54246e-08
4.22864e-08
3.09251e-08
1.74119e-08
0
0
0
0
0
0
0
0
0
0
0
0
0
0
0
0
0
0
0
9.91158e-08
2.39632e-07
5.73734e-07
1.51538e-06
4.22914e-06
9.59453e-06
1.8832e-05
3.31292e-05
5.3182e-05
3.88439e-05
0
0
0
0
0
0
0
0
2.46223e-08
5.83697e-08
2.64875e-07
1.0337e-06
1.68905e-06
1.94305e-06
2.34001e-06
2.35883e-06
1.90388e-06
1.64954e-06
1.64072e-06
1.61009e-06
1.08965e-06
7.54994e-07
3.74996e-07
0
0
0
1.13375e-06
0
0
0
0
0
0
0
2.6626e-07
2.66587e-06
4.60099e-06
2.5435e-06
0
0