/*--------------------------------*- C++ -*----------------------------------*\
  =========                 |
  \\      /  F ield         | OpenFOAM: The Open Source CFD Toolbox
   \\    /   O peration     | Website:  https://openfoam.org
    \\  /    A nd           | Version:  7
     \\/     M anipulation  |
\*---------------------------------------------------------------------------*/
FoamFile
{
    version     2.0;
    format      ascii;
    class       volScalarField;
    location    "0.103";
    object      pMean;
}
// * * * * * * * * * * * * * * * * * * * * * * * * * * * * * * * * * * * * * //

dimensions      [0 2 -2 0 0 0 0];

internalField   nonuniform List<scalar> 
12225
(
-2.57804
-1.40751
-0.970066
-0.855005
-0.793525
-0.746701
-0.717185
-0.708617
-0.717672
-0.736993
-0.759191
-0.779006
-0.793646
-0.804212
-0.813072
-0.833824
-0.873884
-1.01425
-2.24965
-1.39631
-0.974074
-0.851542
-0.794649
-0.750611
-0.721226
-0.711567
-0.719341
-0.737404
-0.758682
-0.777421
-0.792045
-0.800976
-0.811805
-0.823533
-0.86489
-0.90454
-2.08079
-1.41619
-0.998185
-0.854161
-0.797655
-0.755747
-0.725321
-0.712975
-0.717552
-0.732641
-0.751283
-0.768791
-0.782517
-0.793438
-0.80301
-0.818678
-0.842644
-0.884805
-1.8829
-1.3809
-0.998073
-0.843635
-0.78925
-0.752694
-0.724241
-0.710731
-0.713127
-0.72599
-0.743128
-0.759667
-0.774016
-0.785523
-0.797622
-0.812225
-0.835453
-0.86881
-1.71308
-1.34465
-1.00393
-0.841598
-0.783957
-0.750771
-0.724361
-0.709874
-0.709864
-0.72049
-0.735867
-0.751689
-0.765867
-0.77869
-0.791581
-0.807423
-0.828568
-0.856047
-1.55641
-1.29155
-0.99758
-0.834311
-0.772139
-0.741996
-0.719144
-0.705178
-0.703689
-0.71251
-0.726687
-0.742054
-0.756643
-0.770435
-0.784574
-0.801163
-0.821376
-0.846471
-1.41363
-1.22786
-0.982321
-0.825436
-0.759013
-0.730765
-0.711737
-0.699337
-0.697029
-0.704334
-0.717368
-0.732399
-0.747383
-0.762166
-0.777493
-0.794823
-0.815016
-0.838959
-1.28338
-1.15584
-0.956734
-0.812071
-0.743303
-0.715768
-0.700258
-0.690173
-0.68792
-0.694268
-0.706597
-0.721583
-0.737132
-0.752915
-0.769411
-0.787737
-0.808494
-0.832501
-1.16466
-1.0794
-0.921612
-0.793052
-0.724929
-0.697545
-0.685043
-0.6779
-0.676724
-0.682765
-0.694626
-0.709716
-0.726028
-0.742965
-0.760759
-0.780253
-0.801949
-0.826603
-1.05092
-0.999132
-0.877077
-0.766997
-0.702876
-0.676009
-0.665955
-0.661867
-0.662495
-0.669053
-0.681014
-0.696454
-0.713596
-0.731725
-0.750887
-0.7717
-0.794601
-0.820256
-0.942113
-0.916586
-0.824524
-0.733602
-0.676294
-0.651041
-0.643198
-0.642225
-0.645324
-0.653108
-0.665639
-0.681753
-0.699939
-0.719407
-0.740021
-0.762244
-0.786412
-0.813127
-0.852836
-0.84024
-0.769769
-0.696037
-0.646937
-0.624544
-0.61882
-0.620582
-0.626291
-0.635854
-0.649482
-0.666478
-0.685717
-0.706468
-0.728462
-0.752006
-0.777342
-0.804985
-0.76537
-0.76351
-0.710966
-0.653001
-0.612954
-0.594607
-0.591434
-0.595992
-0.604455
-0.616206
-0.631375
-0.649643
-0.670168
-0.692292
-0.715684
-0.740544
-0.766999
-0.7955
-0.656753
-0.671511
-0.637771
-0.596114
-0.567071
-0.554877
-0.555513
-0.56353
-0.575484
-0.59025
-0.607727
-0.627785
-0.649934
-0.673698
-0.698731
-0.725085
-0.752775
-0.78211
-0.544106
-0.568623
-0.549188
-0.523049
-0.506563
-0.502752
-0.508921
-0.52135
-0.537369
-0.55586
-0.576542
-0.599278
-0.623728
-0.649547
-0.676425
-0.704369
-0.733325
-0.763542
-0.419276
-0.447021
-0.439531
-0.428707
-0.426197
-0.43297
-0.446781
-0.465261
-0.486651
-0.50998
-0.534837
-0.561061
-0.588454
-0.616824
-0.645924
-0.675706
-0.706035
-0.736989
-0.276898
-0.304546
-0.305565
-0.309226
-0.321814
-0.341401
-0.365268
-0.391798
-0.420083
-0.449586
-0.479941
-0.510923
-0.542328
-0.574015
-0.605826
-0.637744
-0.669691
-0.701797
-0.0820373
-0.122497
-0.139243
-0.159155
-0.188033
-0.222759
-0.259673
-0.296998
-0.334187
-0.37116
-0.407874
-0.444256
-0.480184
-0.515617
-0.550485
-0.584805
-0.618431
-0.651379
0.173982
0.116452
0.0791381
0.0376798
-0.0123046
-0.0667792
-0.121355
-0.174055
-0.224583
-0.273206
-0.320068
-0.365114
-0.408222
-0.4494
-0.488742
-0.526499
-0.562804
-0.597903
0.424927
0.358633
0.302629
0.236197
0.16107
0.0855463
0.0150349
-0.0495891
-0.109618
-0.166411
-0.220597
-0.272255
-0.321274
-0.367671
-0.41154
-0.453059
-0.492312
-0.529491
0.659844
0.583433
0.503215
0.406036
0.301891
0.20258
0.113085
0.0326445
-0.0409387
-0.109056
-0.172069
-0.230052
-0.283318
-0.332495
-0.378209
-0.421047
-0.461295
-0.499272
0.908536
0.806972
0.690547
0.558458
0.429831
0.316837
0.219669
0.132756
0.0517266
-0.0245773
-0.0955266
-0.160566
-0.219903
-0.274258
-0.324368
-0.37088
-0.41418
-0.454633
1.1846
1.03539
0.859694
0.675903
0.511899
0.376891
0.26492
0.166693
0.0772413
-0.00436889
-0.0779377
-0.143895
-0.203354
-0.257643
-0.307701
-0.354089
-0.397027
-0.436869
1.46423
1.26638
1.02785
0.802632
0.622601
0.482785
0.363943
0.253525
0.150104
0.0566308
-0.02547
-0.0974726
-0.161683
-0.219974
-0.273386
-0.32254
-0.367848
-0.409815
1.74366
1.4588
1.11792
0.83656
0.640398
0.498413
0.37608
0.261566
0.156368
0.063509
-0.0172351
-0.0883315
-0.152237
-0.210496
-0.263824
-0.312688
-0.357422
-0.398536
2.11409
1.70365
1.25966
0.93926
0.736709
0.58536
0.444813
0.312068
0.194813
0.095575
0.01113
-0.0629232
-0.129476
-0.18989
-0.244826
-0.294893
-0.340673
-0.382824
2.43609
1.79475
1.24383
0.925377
0.744712
0.596349
0.451151
0.315783
0.199058
0.101055
0.0171613
-0.0569413
-0.123677
-0.184161
-0.239035
-0.288928
-0.334428
-0.376162
2.94582
2.01718
1.32136
0.987742
0.804542
0.638723
0.478043
0.335483
0.216127
0.116437
0.0308276
-0.044777
-0.112613
-0.173825
-0.22918
-0.279367
-0.325101
-0.367049
3.17372
1.98143
1.28527
0.997712
0.817276
0.644186
0.480019
0.3377
0.219226
0.119873
0.0342004
-0.0415191
-0.1094
-0.170558
-0.225836
-0.27583
-0.321335
-0.362793
3.98674
2.02603
1.28532
1.0314
0.838897
0.654865
0.487511
0.344657
0.225707
0.125732
0.0395112
-0.0366101
-0.104771
-0.166123
-0.221536
-0.271592
-0.317081
-0.358305
-1.31761
-1.33399
-1.35551
-1.36982
-1.37326
-1.36935
-1.3638
-1.3628
-1.37242
-1.39802
-1.44338
-1.50931
-1.59324
-1.69035
-1.79543
-1.90186
-2.0032
-2.09345
-2.16785
-2.22339
-2.25862
-2.27373
-2.27043
-2.2517
-2.22206
-2.18636
-2.14938
-2.11781
-2.09497
-2.0822
-2.07913
-2.08625
-2.10368
-2.12868
-2.15996
-2.19833
-2.24463
-2.29809
-2.35608
-2.41746
-2.47948
-2.53984
-2.59484
-2.64028
-2.67329
-2.69563
-2.70962
-2.71421
-2.70539
-2.67974
-2.63749
-2.57963
-2.50801
-2.42549
-2.33568
-2.24256
-2.15164
-2.06432
-1.97557
-1.88329
-1.78714
-1.68877
-1.59215
-1.50105
-1.41882
-1.34893
-1.2947
-1.25707
-1.23399
-1.21844
-1.19926
-1.17437
-1.14697
-1.11413
-1.07195
-1.02046
-0.965148
-0.917851
-0.886382
-0.867802
-0.852537
-0.830955
-0.793677
-0.733506
-0.646461
-0.534072
-0.403158
-0.261515
-0.110955
0.0463713
0.203899
0.358947
0.51083
0.657914
0.801374
0.946334
1.09723
1.25651
1.425
1.60243
1.78783
1.97975
2.17649
2.37629
2.5775
2.7787
2.9788
3.17705
3.37303
3.56653
3.75747
3.94572
4.13094
4.31241
4.48884
4.65834
4.81848
4.96648
5.09946
5.21505
5.3118
5.38934
5.44813
5.48945
5.51498
5.52667
5.52643
5.51608
5.49732
5.47174
5.44072
5.40552
5.36725
5.3269
5.28533
5.2433
5.20144
5.16031
5.12038
5.08204
5.0456
5.01131
4.97935
4.9498
4.92265
4.89791
4.87548
4.85523
4.83698
4.8205
4.80562
4.79218
4.78013
4.76953
4.76056
4.75343
4.74825
4.74482
4.74268
4.74131
4.74028
4.73928
4.73816
4.73686
4.73537
4.73376
4.73211
4.73053
4.72913
4.72812
4.72761
4.72803
4.72945
4.73273
4.73792
4.74664
4.75908
4.77806
4.80695
4.83893
-1.39864
-1.41606
-1.44213
-1.45826
-1.4624
-1.45803
-1.45377
-1.45485
-1.46828
-1.49846
-1.54794
-1.61655
-1.70228
-1.80213
-1.91005
-2.01907
-2.12268
-2.21437
-2.28954
-2.34457
-2.3773
-2.38773
-2.37867
-2.35544
-2.32354
-2.28648
-2.24909
-2.21846
-2.19886
-2.19229
-2.1993
-2.21777
-2.24663
-2.28512
-2.32928
-2.37546
-2.42662
-2.48653
-2.54837
-2.60605
-2.66528
-2.72324
-2.77576
-2.81919
-2.85204
-2.87635
-2.89079
-2.89448
-2.88297
-2.85349
-2.80638
-2.74354
-2.6671
-2.5798
-2.48576
-2.38935
-2.29595
-2.20582
-2.11427
-2.02082
-1.92499
-1.82711
-1.72985
-1.63782
-1.5545
-1.48242
-1.42485
-1.38279
-1.3542
-1.33203
-1.30526
-1.27365
-1.24224
-1.20858
-1.16965
-1.12655
-1.08431
-1.0495
-1.02496
-1.00642
-0.985683
-0.955748
-0.909783
-0.841495
-0.746648
-0.625419
-0.484886
-0.335433
-0.181013
-0.0241279
0.131581
0.284128
0.434011
0.58157
0.728687
0.879164
1.03629
1.20178
1.37608
1.55875
1.74877
1.9447
2.14489
2.34766
2.55144
2.75487
2.95689
3.15675
3.35402
3.54851
3.74018
3.92898
4.11471
4.29675
4.4739
4.64432
4.80556
4.95477
5.08906
5.20593
5.30383
5.38233
5.44193
5.48387
5.50987
5.52197
5.52208
5.51205
5.4936
5.46829
5.43752
5.40254
5.36449
5.32433
5.28294
5.24105
5.19932
5.15829
5.11843
5.08013
5.0437
5.0094
4.97739
4.9478
4.92067
4.89597
4.87361
4.85345
4.8353
4.81895
4.80424
4.79101
4.77921
4.76887
4.76015
4.75325
4.74825
4.74494
4.74285
4.74148
4.74042
4.73939
4.73823
4.73688
4.73535
4.73369
4.73198
4.73033
4.72884
4.72772
4.72709
4.7273
4.72854
4.73142
4.7363
4.74404
4.75588
4.77173
4.79701
4.8152
-1.42829
-1.44004
-1.46263
-1.48333
-1.50266
-1.52163
-1.54364
-1.57237
-1.61197
-1.66529
-1.73327
-1.81532
-1.90974
-2.01334
-2.12178
-2.23028
-2.33221
-2.42106
-2.49226
-2.54235
-2.56954
-2.57501
-2.56159
-2.53413
-2.49841
-2.45955
-2.42242
-2.39195
-2.37275
-2.36841
-2.38074
-2.40898
-2.44892
-2.49662
-2.55121
-2.61285
-2.67931
-2.74937
-2.82189
-2.894
-2.96267
-3.02494
-3.08024
-3.12787
-3.16708
-3.19602
-3.21166
-3.21193
-3.19561
-3.16187
-3.11046
-3.04206
-2.95848
-2.86297
-2.76036
-2.65663
-2.55825
-2.46395
-2.36956
-2.27699
-2.18531
-2.09173
-1.99604
-1.90049
-1.8094
-1.7271
-1.65629
-1.5976
-1.54966
-1.50915
-1.47055
-1.43353
-1.40163
-1.37421
-1.34577
-1.31598
-1.29075
-1.27267
-1.2559
-1.23367
-1.20156
-1.15723
-1.09704
-1.01609
-0.910427
-0.780401
-0.632537
-0.477198
-0.320557
-0.165109
-0.0117309
0.140645
0.293178
0.447109
0.604119
0.766079
0.934438
1.11005
1.29312
1.48333
1.67986
1.88154
2.0869
2.29433
2.50223
2.70925
2.91433
3.11675
3.3161
3.51223
3.70518
3.89504
4.08174
4.26483
4.44326
4.61529
4.77849
4.92992
5.06654
5.18573
5.28577
5.36613
5.42725
5.47047
5.49762
5.51072
5.51173
5.50252
5.48481
5.46018
5.43004
5.39566
5.35815
5.3185
5.27756
5.23608
5.19471
5.15398
5.11438
5.07629
5.04003
5.00587
4.97401
4.94457
4.91761
4.89308
4.87092
4.85098
4.83311
4.81709
4.80277
4.79001
4.77876
4.76903
4.76087
4.75437
4.74951
4.7461
4.74379
4.74218
4.74091
4.7397
4.7384
4.73693
4.73528
4.73351
4.73167
4.72986
4.72819
4.7268
4.72589
4.72564
4.7264
4.72838
4.73236
4.73821
4.74793
4.7591
4.77773
4.78717
-1.43651
-1.44433
-1.46744
-1.50701
-1.55757
-1.6144
-1.67595
-1.74229
-1.81425
-1.89217
-1.97634
-2.06757
-2.16658
-2.27215
-2.38159
-2.49057
-2.59304
-2.68144
-2.75029
-2.7959
-2.81765
-2.81912
-2.80463
-2.77841
-2.74504
-2.70976
-2.67766
-2.65351
-2.64101
-2.64447
-2.66379
-2.69674
-2.74105
-2.79468
-2.85609
-2.92477
-3.00008
-3.08003
-3.16166
-3.24248
-3.31979
-3.39053
-3.45385
-3.50986
-3.55671
-3.59216
-3.61415
-3.62037
-3.60837
-3.57552
-3.52023
-3.44295
-3.3466
-3.23646
-3.11924
-3.0035
-2.89599
-2.79298
-2.68955
-2.58993
-2.49502
-2.4016
-2.30716
-2.21086
-2.11398
-2.0196
-1.93135
-1.85233
-1.78441
-1.72676
-1.6754
-1.63042
-1.59599
-1.57097
-1.54725
-1.5241
-1.50768
-1.49743
-1.48538
-1.46452
-1.43102
-1.38288
-1.31741
-1.2301
-1.11808
-0.982996
-0.831698
-0.673225
-0.513914
-0.355649
-0.198587
-0.0409593
0.119237
0.28308
0.451343
0.624806
0.804173
0.989928
1.18222
1.38082
1.58504
1.7938
2.00569
2.21912
2.43247
2.64433
2.85361
3.05959
3.26192
3.4605
3.65541
3.84682
4.03486
4.2193
4.39931
4.57332
4.73894
4.89317
5.03281
5.15503
5.2579
5.34073
5.40404
5.44921
5.4781
5.49278
5.49522
5.48732
5.47082
5.44729
5.41818
5.38475
5.34814
5.30931
5.26912
5.22832
5.18754
5.14733
5.10816
5.07043
5.03449
5.00062
4.96901
4.93979
4.91303
4.88876
4.8669
4.84729
4.82979
4.8142
4.80038
4.78817
4.77749
4.76833
4.76069
4.75459
4.74997
4.74666
4.74435
4.74267
4.7413
4.73998
4.73858
4.737
4.73525
4.73334
4.73135
4.72934
4.72744
4.72575
4.72447
4.72371
4.72385
4.7249
4.72769
4.73169
4.73875
4.74594
4.7576
4.75931
-1.46342
-1.47786
-1.52055
-1.58223
-1.65813
-1.7431
-1.83228
-1.92465
-2.02205
-2.12369
-2.22844
-2.33668
-2.44805
-2.56061
-2.67339
-2.78467
-2.88939
-2.98078
-3.05309
-3.10174
-3.12688
-3.13174
-3.12072
-3.09884
-3.07131
-3.04311
-3.01891
-3.00291
-2.9985
-3.0083
-3.03313
-3.07183
-3.12241
-3.18333
-3.25333
-3.33126
-3.41539
-3.50325
-3.59247
-3.68029
-3.7635
-3.8396
-3.90744
-3.9664
-4.0154
-4.05289
-4.0769
-4.0849
-4.07386
-4.04054
-3.98248
-3.89942
-3.79377
-3.67044
-3.53646
-3.40223
-3.27464
-3.14866
-3.02322
-2.90494
-2.79557
-2.69268
-2.59407
-2.49741
-2.40126
-2.30577
-2.21266
-2.12418
-2.04286
-1.97025
-1.90658
-1.85242
-1.81028
-1.78017
-1.75723
-1.73754
-1.72303
-1.71267
-1.70047
-1.6798
-1.6468
-1.59979
-1.53636
-1.45224
-1.34354
-1.21117
-1.06158
-0.90317
-0.741536
-0.579008
-0.415388
-0.249038
-0.0787142
0.096014
0.275412
0.459843
0.649739
0.845473
1.04718
1.25465
1.46724
1.68392
1.90332
2.12382
2.34373
2.56155
2.7761
2.98667
3.19294
3.39481
3.59235
3.78583
3.97555
4.16154
4.34328
4.51937
4.68754
4.84473
4.9876
5.11314
5.21923
5.30507
5.37114
5.41885
5.45011
5.46697
5.4714
5.46532
5.45047
5.42848
5.4008
5.36872
5.33337
5.29573
5.25662
5.21679
5.17686
5.13737
5.09881
5.0616
5.02609
4.99257
4.96131
4.93251
4.90625
4.88252
4.86123
4.84224
4.82537
4.81042
4.79723
4.78568
4.77569
4.76721
4.76019
4.75459
4.75033
4.74723
4.74499
4.74329
4.74183
4.7404
4.73887
4.73716
4.73526
4.73319
4.73101
4.72878
4.72661
4.72458
4.72288
4.72156
4.72097
4.72105
4.72246
4.72462
4.72877
4.73234
4.73737
4.73356
-1.52703
-1.55094
-1.60671
-1.68252
-1.77281
-1.8726
-1.97798
-2.08863
-2.20532
-2.32641
-2.45081
-2.57886
-2.70955
-2.83996
-2.96802
-3.09236
-3.20799
-3.3087
-3.38896
-3.44612
-3.48055
-3.495
-3.49355
-3.48165
-3.46511
-3.44904
-3.43778
-3.43518
-3.44406
-3.46609
-3.50177
-3.55026
-3.61037
-3.68096
-3.76049
-3.84731
-3.9392
-4.03366
-4.1278
-4.21862
-4.30329
-4.37974
-4.44684
-4.50388
-4.55003
-4.58396
-4.60384
-4.60719
-4.59087
-4.5515
-4.48655
-4.39523
-4.27906
-4.1424
-3.992
-3.83856
-3.68769
-3.53264
-3.37626
-3.22805
-3.09131
-2.9661
-2.8515
-2.74574
-2.64644
-2.55138
-2.45933
-2.37049
-2.28624
-2.2088
-2.13984
-2.08104
-2.03431
-2.00071
-1.97757
-1.96062
-1.948
-1.93781
-1.92537
-1.90356
-1.86778
-1.81786
-1.75379
-1.67274
-1.57065
-1.44625
-1.30313
-1.14776
-0.985608
-0.819048
-0.648378
-0.472989
-0.292683
-0.107582
0.0822975
0.27714
0.477248
0.682886
0.89413
1.11073
1.33207
1.55711
1.7845
2.01264
2.23979
2.46433
2.685
2.90102
3.11204
3.31795
3.51883
3.71494
3.9067
4.0944
4.27783
4.45585
4.6263
4.78618
4.93208
5.06086
5.17027
5.25937
5.32861
5.3794
5.41361
5.43322
5.44019
5.43642
5.42368
5.40363
5.37777
5.34743
5.31371
5.27759
5.2399
5.20133
5.16253
5.12403
5.0863
5.04978
5.01485
4.98187
4.95111
4.92281
4.89712
4.87405
4.85354
4.8354
4.81942
4.80539
4.79313
4.78246
4.77328
4.76554
4.75919
4.75415
4.75031
4.74747
4.74536
4.7437
4.74222
4.74074
4.73912
4.7373
4.73526
4.73302
4.73064
4.72816
4.7257
4.7233
4.72113
4.71923
4.71785
4.71693
4.7169
4.71724
4.71856
4.71881
4.71835
4.71013
-1.58492
-1.62053
-1.68639
-1.77071
-1.86899
-1.97706
-2.09298
-2.2172
-2.35063
-2.49155
-2.63771
-2.78671
-2.93655
-3.08499
-3.23048
-3.37196
-3.50468
-3.62238
-3.71981
-3.79462
-3.84735
-3.88005
-3.89662
-3.9029
-3.90492
-3.90821
-3.91729
-3.93544
-3.96471
-4.00591
-4.05865
-4.12172
-4.1938
-4.27342
-4.35912
-4.44953
-4.54301
-4.63757
-4.73088
-4.82044
-4.90383
-4.97922
-5.04567
-5.1024
-5.14819
-5.18133
-5.19978
-5.20065
-5.18058
-5.13644
-5.06591
-4.96748
-4.84178
-4.69199
-4.52435
-4.3484
-4.16699
-3.97477
-3.7802
-3.59492
-3.42388
-3.26855
-3.1294
-3.00533
-2.89396
-2.79235
-2.69777
-2.60861
-2.52463
-2.44686
-2.37731
-2.31793
-2.2706
-2.23615
-2.21334
-2.19951
-2.1912
-2.18454
-2.17392
-2.15168
-2.11275
-2.05879
-1.99157
-1.90961
-1.80986
-1.69072
-1.5537
-1.40208
-1.23961
-1.06883
-0.891097
-0.707152
-0.517648
-0.322967
-0.123229
0.0815954
0.291582
0.506783
0.7272
0.952659
1.18256
1.41592
1.65134
1.88722
2.12182
2.35349
2.58088
2.80313
3.01981
3.23074
3.4359
3.6355
3.82994
4.0197
4.20485
4.38456
4.5569
4.71896
4.8674
4.99902
5.11154
5.20397
5.27667
5.33096
5.36861
5.39148
5.40146
5.40041
5.39015
5.37241
5.34872
5.32044
5.28869
5.25442
5.21844
5.18144
5.14403
5.10673
5.07002
5.03438
5.00021
4.96786
4.93772
4.91011
4.88517
4.86297
4.84344
4.82641
4.81165
4.79888
4.78783
4.77829
4.77016
4.76334
4.75778
4.75338
4.75003
4.74752
4.74562
4.74408
4.74265
4.74114
4.73944
4.7375
4.73531
4.73289
4.73028
4.72754
4.72476
4.72197
4.7193
4.71678
4.71458
4.71263
4.71114
4.70968
4.70837
4.70557
4.70065
4.68873
-1.61891
-1.66135
-1.73568
-1.82243
-1.92202
-2.03454
-2.15966
-2.29644
-2.44374
-2.59965
-2.7621
-2.92883
-3.09762
-3.26667
-3.43496
-3.60097
-3.75978
-3.90443
-4.02962
-4.13269
-4.2134
-4.27318
-4.31612
-4.3485
-4.37701
-4.40755
-4.44429
-4.48953
-4.54393
-4.60683
-4.67678
-4.75236
-4.83254
-4.91662
-5.00414
-5.09443
-5.18661
-5.27959
-5.37215
-5.4627
-5.54947
-5.63095
-5.70556
-5.77144
-5.82649
-5.86819
-5.89324
-5.89768
-5.8774
-5.82855
-5.74807
-5.63489
-5.49024
-5.31751
-5.12289
-4.9147
-4.69304
-4.45763
-4.2213
-3.9974
-3.79119
-3.60452
-3.43823
-3.2916
-3.16253
-3.04815
-2.94542
-2.85205
-2.76699
-2.69052
-2.62371
-2.56814
-2.52505
-2.4945
-2.47566
-2.46698
-2.46485
-2.46418
-2.45813
-2.43851
-2.39948
-2.34266
-2.27076
-2.18376
-2.08027
-1.95926
-1.82141
-1.66821
-1.50194
-1.32498
-1.13949
-0.947179
-0.749055
-0.545433
-0.336453
-0.122358
0.0966127
0.320362
0.548921
0.782276
1.01995
1.26102
1.50411
1.74755
1.98957
2.22853
2.46311
2.69239
2.91583
3.13307
3.34391
3.54827
3.74643
3.93895
4.12618
4.30758
4.48146
4.64513
4.79541
4.92926
5.04447
5.14005
5.21626
5.27428
5.31567
5.34213
5.35542
5.35739
5.34991
5.33476
5.31355
5.28765
5.25818
5.22607
5.19211
5.15697
5.12122
5.08539
5.04994
5.01534
4.98207
4.95059
4.92131
4.89454
4.87051
4.84934
4.83098
4.81528
4.80197
4.79072
4.7812
4.77312
4.7663
4.76061
4.75598
4.75233
4.74954
4.74745
4.74583
4.74444
4.74307
4.74155
4.7398
4.73774
4.73539
4.73277
4.72993
4.72691
4.72378
4.72058
4.71739
4.71423
4.71119
4.70819
4.70528
4.70208
4.69836
4.69279
4.68425
4.66925
-1.64769
-1.68786
-1.75477
-1.83518
-1.93143
-2.0439
-2.17251
-2.31623
-2.47347
-2.64193
-2.8193
-3.0037
-3.19369
-3.3881
-3.58617
-3.7852
-3.97867
-4.15888
-4.31969
-4.45828
-4.57358
-4.66682
-4.74265
-4.80793
-4.86956
-4.93278
-5.00043
-5.07345
-5.15141
-5.23296
-5.31651
-5.40083
-5.48562
-5.57161
-5.66006
-5.75192
-5.84781
-5.94789
-6.05148
-6.15695
-6.26212
-6.36429
-6.46006
-6.54589
-6.6181
-6.67243
-6.70411
-6.70839
-6.68086
-6.61793
-6.51751
-6.37908
-6.20453
-5.99774
-5.76497
-5.51351
-5.24323
-4.96016
-4.68043
-4.41784
-4.17727
-3.95999
-3.7664
-3.59605
-3.44733
-3.31756
-3.2037
-3.10343
-3.01553
-2.94002
-2.87748
-2.82871
-2.79445
-2.77384
-2.76539
-2.76724
-2.77516
-2.78287
-2.78328
-2.76845
-2.73149
-2.67219
-2.5938
-2.49801
-2.38544
-2.25638
-2.11116
-1.95017
-1.77512
-1.58866
-1.39364
-1.19214
-0.985153
-0.772781
-0.555244
-0.333112
-0.106967
0.123216
0.357833
0.597225
0.841269
1.08928
1.33989
1.59117
1.84105
2.08782
2.33023
2.56748
2.79892
3.02398
3.24212
3.45288
3.65623
3.85266
4.04266
4.226
4.40126
4.56605
4.71753
4.85294
4.97027
5.06865
5.14824
5.20999
5.2552
5.28535
5.3021
5.30727
5.30278
5.29047
5.27198
5.24871
5.22178
5.19209
5.16041
5.12737
5.09354
5.05941
5.02542
4.99209
4.95995
4.92953
4.90129
4.87561
4.85277
4.83291
4.81602
4.8019
4.79029
4.78083
4.77312
4.7668
4.76157
4.75725
4.75375
4.75099
4.74888
4.74728
4.74599
4.7448
4.74352
4.74202
4.7402
4.73803
4.73552
4.7327
4.7296
4.72628
4.72279
4.71916
4.71544
4.71163
4.70775
4.7037
4.69943
4.69455
4.68866
4.6806
4.66911
4.65154
-1.64787
-1.68031
-1.73437
-1.80694
-1.89938
-2.01132
-2.14236
-2.29163
-2.45746
-2.6376
-2.82988
-3.0327
-3.24529
-3.46721
-3.69728
-3.93147
-4.16202
-4.38009
-4.57955
-4.75751
-4.91236
-5.04513
-5.16049
-5.26467
-5.36353
-5.46131
-5.55993
-5.65939
-5.75856
-5.85617
-5.95161
-6.04525
-6.13841
-6.23321
-6.33241
-6.43874
-6.55369
-6.67715
-6.8075
-6.94189
-7.07662
-7.20725
-7.329
-7.43707
-7.52627
-7.59081
-7.62494
-7.62359
-7.58288
-7.4999
-7.37257
-7.2004
-6.98564
-6.73275
-6.44906
-6.14155
-5.81378
-5.47753
-5.15089
-4.84749
-4.57198
-4.32376
-4.10216
-3.90712
-3.73773
-3.59156
-3.4656
-3.35717
-3.26524
-3.18999
-3.13207
-3.09195
-3.06989
-3.06401
-3.07147
-3.08906
-3.11141
-3.13092
-3.14003
-3.13157
-3.09812
-3.03723
-2.95198
-2.84537
-2.72028
-2.57876
-2.42115
-2.24747
-2.05929
-1.85985
-1.6529
-1.44086
-1.22452
-1.00385
-0.779284
-0.551552
-0.320904
-0.0867543
0.151784
0.395567
0.645
0.899587
1.15783
1.41739
1.67575
1.9311
2.18232
2.42868
2.66944
2.90379
3.13077
3.3495
3.55949
3.76104
3.95468
4.1404
4.31708
4.48273
4.6349
4.77127
4.89018
4.99091
5.07358
5.13889
5.1878
5.22159
5.24181
5.25026
5.2489
5.2396
5.22405
5.20363
5.17944
5.15237
5.12317
5.09244
5.0607
5.02843
4.99612
4.96427
4.93347
4.9043
4.87731
4.85299
4.83166
4.81347
4.7984
4.78624
4.77667
4.76928
4.76364
4.75932
4.75595
4.75327
4.75112
4.74941
4.74809
4.74706
4.74616
4.74521
4.74405
4.74256
4.74069
4.7384
4.73572
4.73268
4.72932
4.72568
4.72182
4.71775
4.71348
4.70901
4.7043
4.69923
4.69366
4.68719
4.67935
4.66909
4.65515
4.63542
-1.60576
-1.63245
-1.68013
-1.74782
-1.83742
-1.94918
-2.0834
-2.23964
-2.41635
-2.61133
-2.8224
-3.0477
-3.28615
-3.53702
-3.79834
-4.06487
-4.32843
-4.58024
-4.81508
-5.03044
-5.22483
-5.39908
-5.55685
-5.70258
-5.8404
-5.97334
-6.10292
-6.22917
-6.35144
-6.4692
-6.58304
-6.6948
-6.80712
-6.92306
-7.04568
-7.17756
-7.32011
-7.47296
-7.63361
-7.79789
-7.96104
-8.11808
-8.26385
-8.393
-8.49924
-8.57537
-8.61378
-8.60792
-8.55299
-8.44584
-8.28512
-8.0718
-7.80866
-7.50114
-7.15745
-6.78552
-6.39471
-6.00171
-5.62575
-5.27955
-4.96745
-4.68742
-4.4378
-4.21861
-4.02919
-3.86732
-3.72963
-3.61307
-3.51643
-3.44047
-3.38636
-3.35473
-3.34526
-3.35538
-3.38085
-3.41717
-3.45742
-3.49176
-3.51179
-3.51084
-3.48149
-3.42046
-3.32929
-3.2121
-3.07365
-2.91715
-2.74378
-2.554
-2.34967
-2.13495
-1.91457
-1.69143
-1.46617
-1.23862
-1.00928
-0.7785
-0.54566
-0.309326
-0.0681279
0.179242
0.433523
0.694357
0.960043
1.22788
1.49511
1.75982
2.02094
2.27766
2.52906
2.77404
3.01118
3.23912
3.45694
3.66464
3.86274
4.05129
4.22951
4.39585
4.54835
4.68521
4.8052
4.90783
4.99319
5.06171
5.11408
5.15133
5.17493
5.18666
5.18849
5.18232
5.16981
5.15233
5.13097
5.10662
5.08
5.05169
5.02218
4.99191
4.96139
4.93117
4.90187
4.87417
4.84872
4.82607
4.80661
4.79053
4.77776
4.76804
4.76096
4.75604
4.75279
4.75074
4.74947
4.74866
4.74807
4.7476
4.7472
4.74682
4.74637
4.7457
4.74468
4.74322
4.74128
4.73887
4.736
4.73273
4.7291
4.72514
4.72089
4.71636
4.71155
4.70642
4.70089
4.69483
4.68803
4.68009
4.67049
4.65828
4.64229
4.62076
-1.54329
-1.56606
-1.60951
-1.67445
-1.76376
-1.87835
-2.01929
-2.18677
-2.37966
-2.59587
-2.83255
-3.08672
-3.35589
-3.63786
-3.92937
-4.22466
-4.51617
-4.79691
-5.06338
-5.3133
-5.54444
-5.75684
-5.95318
-6.13703
-6.3117
-6.47956
-6.64164
-6.79821
-6.94916
-7.09457
-7.23559
-7.37425
-7.5132
-7.65538
-7.80356
-7.96003
-8.12592
-8.30069
-8.48158
-8.66452
-8.84509
-9.0187
-9.18017
-9.32336
-9.44018
-9.52075
-9.55547
-9.53715
-9.46159
-9.32677
-9.13233
-8.8796
-8.57236
-8.21645
-7.81977
-7.3913
-6.94531
-6.5028
-6.08339
-5.69836
-5.35252
-5.04359
-4.76936
-4.52931
-4.32257
-4.14676
-3.99809
-3.87349
-3.77196
-3.69434
-3.64246
-3.61724
-3.6181
-3.64182
-3.68349
-3.73726
-3.79481
-3.84435
-3.87613
-3.88299
-3.85751
-3.79709
-3.70186
-3.57595
-3.42505
-3.25365
-3.06419
-2.85784
-2.63726
-2.40752
-2.17417
-1.9407
-1.7078
-1.47529
-1.24318
-1.01095
-0.776862
-0.538868
-0.295372
-0.0449017
0.213519
0.479689
0.751888
1.02735
1.30331
1.5779
1.84987
2.11806
2.38117
2.63768
2.88579
3.12368
3.35007
3.56465
3.76775
3.95947
4.13929
4.30615
4.45866
4.59563
4.71629
4.82038
4.90797
4.97929
5.03476
5.07522
5.10203
5.11695
5.12195
5.11887
5.10935
5.09475
5.07618
5.05452
5.03048
5.00462
4.97739
4.94921
4.92056
4.89205
4.86443
4.83842
4.81477
4.79414
4.777
4.76353
4.75363
4.74693
4.74291
4.74098
4.74054
4.74108
4.74216
4.74343
4.74462
4.74558
4.74625
4.74661
4.74666
4.7463
4.74545
4.74402
4.74202
4.73946
4.7364
4.73289
4.72896
4.72467
4.72003
4.71504
4.70969
4.7039
4.69758
4.69056
4.6826
4.67331
4.66213
4.6482
4.63046
4.60741
-1.47765
-1.49799
-1.54017
-1.60511
-1.69708
-1.81846
-1.9715
-2.15686
-2.37357
-2.61888
-2.88873
-3.17844
-3.48358
-3.80005
-4.12346
-4.44843
-4.76872
-5.07887
-5.37631
-5.65857
-5.92231
-6.16733
-6.39644
-6.61301
-6.82008
-7.01961
-7.21212
-7.39741
-7.57513
-7.74551
-7.91003
-8.07061
-8.22956
-8.38924
-8.55166
-8.71871
-8.8916
-9.07042
-9.25339
-9.4371
-9.6172
-9.78867
-9.94581
-10.0818
-10.1879
-10.254
-10.2712
-10.2328
-10.1358
-9.9787
-9.76101
-9.4833
-9.14876
-8.76363
-8.33587
-7.87519
-7.39753
-6.92589
-6.47963
-6.0692
-5.7
-5.37118
-5.08004
-4.8254
-4.60579
-4.4186
-4.26045
-4.12903
-4.02381
-3.94582
-3.89644
-3.87614
-3.88353
-3.91547
-3.96738
-4.03284
-4.10246
-4.16317
-4.20357
-4.21532
-4.19191
-4.13164
-4.03452
-3.90337
-3.74357
-3.56071
-3.35861
-3.1394
-2.9064
-2.66516
-2.42199
-2.18079
-1.94237
-1.70651
-1.47268
-1.23953
-1.00437
-0.764921
-0.519578
-0.266747
-0.0052106
0.265056
0.542376
0.824356
1.10847
1.39279
1.6757
1.95551
2.23046
2.49862
2.75785
3.0059
3.24107
3.46269
3.67086
3.86574
4.04708
4.21431
4.36663
4.50341
4.62437
4.72949
4.81883
4.89248
4.95065
4.99399
5.02376
5.04168
5.04963
5.0494
5.04263
5.03069
5.01473
4.99564
4.97412
4.9507
4.92577
4.89969
4.87294
4.84623
4.82038
4.79627
4.77473
4.75651
4.74219
4.73193
4.72554
4.72251
4.7222
4.72385
4.72675
4.7303
4.73404
4.73762
4.74077
4.74333
4.74522
4.74645
4.74705
4.74703
4.74634
4.74496
4.7429
4.7402
4.73693
4.73316
4.72894
4.7243
4.71926
4.71381
4.70791
4.70147
4.69439
4.68646
4.67743
4.66688
4.65429
4.63886
4.61962
4.59529
-1.42288
-1.44225
-1.48517
-1.553
-1.65173
-1.78535
-1.95709
-2.16794
-2.41668
-2.69952
-3.01089
-3.34415
-3.69281
-4.05099
-4.4135
-4.775
-5.12993
-5.47308
-5.80109
-6.11094
-6.4001
-6.66875
-6.91953
-7.15561
-7.38008
-7.59498
-7.80092
-7.99774
-8.18497
-8.3627
-8.53206
-8.69443
-8.85162
-9.00569
-9.15841
-9.31167
-9.46712
-9.62558
-9.78603
-9.94574
-10.1003
-10.245
-10.3747
-10.4836
-10.5643
-10.6075
-10.6045
-10.5489
-10.4377
-10.2696
-10.0442
-9.76248
-9.42686
-9.04216
-8.61585
-8.15749
-7.68183
-7.21098
-6.76334
-6.34919
-5.97342
-5.63747
-5.33921
-5.0773
-4.85007
-4.65521
-4.49062
-4.35542
-4.24971
-4.17409
-4.12876
-4.11255
-4.12306
-4.15764
-4.21259
-4.28165
-4.35512
-4.41944
-4.46184
-4.47315
-4.44836
-4.38647
-4.28826
-4.15524
-3.99215
-3.80414
-3.59587
-3.37053
-3.13213
-2.88633
-2.63939
-2.39522
-2.1549
-1.91817
-1.68411
-1.45083
-1.21522
-0.974788
-0.728025
-0.473312
-0.209475
0.0635226
0.34439
0.631326
0.922142
1.2148
1.50729
1.7975
2.08328
2.3623
2.63195
2.88955
3.13284
3.36084
3.57347
3.77104
3.95364
4.1211
4.27309
4.40948
4.53042
4.63612
4.72671
4.8022
4.86261
4.90846
4.94085
4.96136
4.97181
4.97399
4.96954
4.95992
4.94631
4.92962
4.91054
4.88949
4.86678
4.8427
4.81781
4.7929
4.76893
4.74691
4.7278
4.71251
4.70161
4.69524
4.69311
4.69452
4.69864
4.70451
4.7113
4.71833
4.72508
4.73122
4.73653
4.74084
4.7441
4.74631
4.74754
4.74789
4.74738
4.74604
4.74392
4.74108
4.7376
4.73356
4.72903
4.72404
4.7186
4.71269
4.70625
4.69919
4.69137
4.68258
4.67254
4.66086
4.647
4.63024
4.60971
4.58428
-1.38318
-1.40287
-1.44877
-1.52263
-1.633
-1.7849
-1.98269
-2.22768
-2.51809
-2.84853
-3.21134
-3.59781
-3.99964
-4.40951
-4.82121
-5.22806
-5.62238
-5.9967
-6.34675
-6.6704
-6.96634
-7.23544
-7.48122
-7.7079
-7.91942
-8.11864
-8.307
-8.48474
-8.65138
-8.80662
-8.95121
-9.0866
-9.2145
-9.33707
-9.45613
-9.57349
-9.69068
-9.80982
-9.93062
-10.0509
-10.1666
-10.2737
-10.3676
-10.4435
-10.4955
-10.5157
-10.4964
-10.4316
-10.318
-10.1543
-9.93976
-9.6756
-9.36433
-9.01022
-8.61788
-8.19523
-7.75493
-7.31528
-6.89376
-6.50027
-6.13789
-5.80989
-5.51653
-5.25658
-5.02875
-4.83167
-4.66492
-4.52937
-4.42591
-4.3542
-4.31253
-4.29852
-4.30921
-4.34216
-4.3945
-4.4603
-4.52947
-4.58874
-4.62541
-4.63119
-4.60214
-4.53787
-4.43927
-4.30773
-4.14622
-3.95942
-3.75219
-3.52875
-3.29336
-3.05117
-2.80771
-2.56658
-2.32902
-2.09479
-1.86269
-1.63065
-1.39554
-1.15485
-0.907151
-0.651226
-0.386118
-0.111843
0.170814
0.460641
0.755875
1.05442
1.35415
1.65262
1.94721
2.23518
2.51337
2.77865
3.02842
3.26132
3.47725
3.67669
3.86007
4.02749
4.17898
4.31477
4.43538
4.54125
4.6326
4.70942
4.77161
4.81946
4.85386
4.8763
4.88857
4.89252
4.88986
4.88215
4.87061
4.85609
4.8392
4.82032
4.79959
4.7773
4.75405
4.73085
4.70885
4.68917
4.6729
4.66108
4.65434
4.65275
4.65584
4.66266
4.67208
4.68291
4.69419
4.70515
4.71528
4.72426
4.7319
4.73813
4.74288
4.74617
4.74812
4.74887
4.74855
4.74726
4.74508
4.74209
4.73839
4.73409
4.72925
4.7239
4.71806
4.71169
4.70473
4.69706
4.68854
4.67894
4.66798
4.65526
4.64028
4.62234
4.60069
4.57431
-1.3536
-1.37582
-1.42749
-1.51145
-1.63954
-1.81788
-2.05227
-2.34368
-2.68878
-3.07925
-3.50464
-3.95412
-4.4176
-4.88533
-5.34798
-5.79563
-6.21777
-6.60599
-6.95511
-7.26308
-7.5295
-7.75687
-7.95113
-8.11967
-8.26978
-8.40689
-8.53446
-8.65436
-8.76678
-8.87245
-8.97132
-9.06414
-9.15157
-9.23444
-9.31385
-9.3909
-9.46644
-9.54268
-9.62065
-9.69923
-9.77518
-9.84454
-9.90352
-9.94876
-9.97606
-9.97955
-9.95289
-9.8909
-9.79014
-9.64837
-9.46427
-9.23824
-8.97263
-8.67127
-8.33791
-7.97825
-7.60122
-7.22006
-6.84969
-6.4991
-6.16971
-5.86443
-5.58803
-5.34002
-5.11989
-4.92757
-4.76424
-4.63199
-4.53212
-4.46389
-4.42456
-4.41078
-4.41987
-4.44914
-4.49508
-4.5513
-4.60813
-4.65412
-4.67911
-4.67643
-4.64266
-4.57677
-4.47923
-4.35167
-4.19647
-4.01739
-3.81898
-3.60559
-3.38119
-3.15012
-2.91689
-2.68457
-2.45438
-2.22598
-1.99816
-1.76892
-1.53543
-1.29535
-1.04758
-0.791437
-0.52645
-0.252573
0.0299179
0.320303
0.61718
0.918625
1.22248
1.52607
1.82648
2.12048
2.4044
2.67477
2.92872
3.16467
3.38244
3.58271
3.76614
3.93307
4.08373
4.21866
4.33864
4.4443
4.53597
4.61364
4.67699
4.72609
4.76166
4.78513
4.79838
4.8034
4.80199
4.79576
4.7859
4.77317
4.75811
4.74099
4.7218
4.70081