/*--------------------------------*- C++ -*----------------------------------*\
  =========                 |
  \\      /  F ield         | OpenFOAM: The Open Source CFD Toolbox
   \\    /   O peration     | Website:  https://openfoam.org
    \\  /    A nd           | Version:  7
     \\/     M anipulation  |
\*---------------------------------------------------------------------------*/
FoamFile
{
    version     2.0;
    format      ascii;
    class       volVectorField;
    location    "0.103";
    object      U;
}
// * * * * * * * * * * * * * * * * * * * * * * * * * * * * * * * * * * * * * //

dimensions      [0 1 -1 0 0 0 0];

internalField   nonuniform List<vector> 
12225
(
(4.73745 0.173562 0)
(4.18034 0.106056 0)
(3.71919 0.100993 0)
(3.29717 0.0898159 0)
(2.90743 0.0739837 0)
(2.55657 0.0617498 0)
(2.23395 0.0545016 0)
(1.93252 0.0486468 0)
(1.65108 0.0419314 0)
(1.3958 0.0341239 0)
(1.17196 0.0265182 0)
(0.982889 0.0198889 0)
(0.82019 0.0141471 0)
(0.690126 0.00921427 0)
(0.571144 0.00514556 0)
(0.487054 0.0046577 0)
(0.370737 0.00311783 0)
(0.299512 -0.00903729 0)
(5.05754 0.108059 0)
(4.91231 0.073674 0)
(4.76562 0.0989188 0)
(4.66932 0.106277 0)
(4.55695 0.106049 0)
(4.41409 0.104302 0)
(4.25574 0.10379 0)
(4.09871 0.105423 0)
(3.9424 0.107347 0)
(3.78197 0.106111 0)
(3.61149 0.100392 0)
(3.4467 0.0919823 0)
(3.28621 0.083389 0)
(3.14781 0.0757164 0)
(3.00446 0.0717064 0)
(2.87767 0.0695501 0)
(2.71524 0.0774224 0)
(2.5614 0.0738708 0)
(4.94224 0.144103 0)
(4.85927 0.118483 0)
(4.7991 0.138108 0)
(4.76642 0.139434 0)
(4.73783 0.139313 0)
(4.70443 0.14043 0)
(4.66779 0.13955 0)
(4.63265 0.13754 0)
(4.59769 0.136629 0)
(4.55792 0.137011 0)
(4.50765 0.136372 0)
(4.4502 0.132498 0)
(4.3881 0.124682 0)
(4.32595 0.116176 0)
(4.26269 0.112051 0)
(4.19477 0.114114 0)
(4.12409 0.128414 0)
(4.03452 0.146506 0)
(5.04118 0.204813 0)
(4.87073 0.117187 0)
(4.82081 0.12786 0)
(4.78846 0.1377 0)
(4.74582 0.136643 0)
(4.72252 0.131585 0)
(4.71999 0.127503 0)
(4.72077 0.127496 0)
(4.7138 0.131555 0)
(4.69715 0.136531 0)
(4.67498 0.138264 0)
(4.65164 0.134798 0)
(4.63112 0.127927 0)
(4.61166 0.120782 0)
(4.59569 0.119125 0)
(4.57714 0.124416 0)
(4.56293 0.141907 0)
(4.54211 0.166421 0)
(4.98877 0.218514 0)
(4.96394 0.136059 0)
(4.88324 0.131491 0)
(4.79377 0.153206 0)
(4.74409 0.155826 0)
(4.73468 0.143892 0)
(4.74093 0.135187 0)
(4.74487 0.136756 0)
(4.74235 0.144348 0)
(4.73378 0.150673 0)
(4.72179 0.151553 0)
(4.70841 0.146589 0)
(4.69471 0.138496 0)
(4.67938 0.130643 0)
(4.66325 0.128041 0)
(4.64682 0.132967 0)
(4.6332 0.148388 0)
(4.62474 0.17249 0)
(5.04626 0.255744 0)
(4.92634 0.165349 0)
(4.85324 0.169917 0)
(4.80758 0.182364 0)
(4.78898 0.165899 0)
(4.78092 0.139935 0)
(4.7706 0.124582 0)
(4.75937 0.124497 0)
(4.75327 0.133215 0)
(4.75244 0.142551 0)
(4.75324 0.147753 0)
(4.75165 0.147442 0)
(4.74458 0.143141 0)
(4.73061 0.138152 0)
(4.71098 0.136742 0)
(4.68853 0.141793 0)
(4.6671 0.154983 0)
(4.65021 0.17578 0)
(4.99017 0.277251 0)
(4.94349 0.171529 0)
(4.87635 0.15505 0)
(4.83725 0.167893 0)
(4.83077 0.164914 0)
(4.83273 0.152752 0)
(4.82784 0.145431 0)
(4.8177 0.146259 0)
(4.80802 0.150553 0)
(4.79932 0.153628 0)
(4.78953 0.153914 0)
(4.77745 0.151831 0)
(4.76353 0.148762 0)
(4.7484 0.146863 0)
(4.7341 0.148647 0)
(4.72049 0.155727 0)
(4.71014 0.168907 0)
(4.70037 0.187235 0)
(5.06591 0.252369 0)
(4.97066 0.208008 0)
(4.86971 0.198531 0)
(4.82074 0.193651 0)
(4.81116 0.170036 0)
(4.8179 0.141936 0)
(4.82515 0.126308 0)
(4.83013 0.126647 0)
(4.83499 0.136763 0)
(4.83901 0.148762 0)
(4.84015 0.157171 0)
(4.83707 0.159795 0)
(4.83075 0.157338 0)
(4.82163 0.15282 0)
(4.81184 0.150728 0)
(4.80108 0.154281 0)
(4.79185 0.165326 0)
(4.78194 0.183372 0)
(4.97973 0.239634 0)
(4.96181 0.228427 0)
(4.90347 0.203172 0)
(4.88696 0.185489 0)
(4.89279 0.168548 0)
(4.89487 0.153849 0)
(4.88713 0.146465 0)
(4.87522 0.14543 0)
(4.86575 0.147072 0)
(4.86081 0.149787 0)
(4.85976 0.153158 0)
(4.8603 0.156161 0)
(4.8609 0.15792 0)
(4.85881 0.159364 0)
(4.85344 0.162653 0)
(4.84369 0.169778 0)
(4.83201 0.181743 0)
(4.81944 0.198125 0)
(4.92255 0.209411 0)
(4.92959 0.234623 0)
(4.89512 0.220756 0)
(4.87324 0.192665 0)
(4.86526 0.162722 0)
(4.87609 0.139386 0)
(4.90111 0.129943 0)
(4.92008 0.133899 0)
(4.91654 0.144922 0)
(4.89099 0.155913 0)
(4.85706 0.162214 0)
(4.82896 0.162596 0)
(4.8144 0.159216 0)
(4.8121 0.156282 0)
(4.81831 0.157796 0)
(4.82675 0.165767 0)
(4.83607 0.179641 0)
(4.84344 0.197843 0)
(5.03801 0.319962 0)
(5.00938 0.248706 0)
(4.98417 0.21577 0)
(4.97078 0.197135 0)
(4.95819 0.172389 0)
(4.94437 0.145813 0)
(4.92846 0.133175 0)
(4.90789 0.140687 0)
(4.88357 0.159695 0)
(4.85985 0.176527 0)
(4.84168 0.182641 0)
(4.83125 0.177724 0)
(4.82756 0.167297 0)
(4.82837 0.158104 0)
(4.83256 0.154961 0)
(4.83907 0.15966 0)
(4.8491 0.170644 0)
(4.86117 0.186376 0)
(5.02052 0.344827 0)
(4.99622 0.275824 0)
(4.90998 0.234723 0)
(4.87228 0.202562 0)
(4.87126 0.168265 0)
(4.8817 0.145047 0)
(4.88739 0.1421 0)
(4.88374 0.155497 0)
(4.87637 0.173384 0)
(4.87196 0.184735 0)
(4.8725 0.184721 0)
(4.8764 0.175422 0)
(4.88204 0.162685 0)
(4.8892 0.152422 0)
(4.89844 0.148585 0)
(4.90926 0.151967 0)
(4.9221 0.161562 0)
(4.93374 0.175514 0)
(4.94129 0.340484 0)
(4.99301 0.285131 0)
(5.0132 0.24853 0)
(5.02668 0.210213 0)
(5.00796 0.171738 0)
(4.96605 0.14667 0)
(4.9235 0.140582 0)
(4.89675 0.148965 0)
(4.89272 0.162375 0)
(4.90752 0.172328 0)
(4.93079 0.174319 0)
(4.95136 0.168652 0)
(4.96345 0.158648 0)
(4.96625 0.14869 0)
(4.96369 0.143209 0)
(4.95951 0.144376 0)
(4.95692 0.15297 0)
(4.9572 0.167742 0)
(5.08152 0.312239 0)
(5.06914 0.261371 0)
(5.04767 0.230117 0)
(5.02546 0.208995 0)
(5.00225 0.195579 0)
(4.98218 0.185958 0)
(4.96616 0.179296 0)
(4.95559 0.175031 0)
(4.95407 0.170858 0)
(4.9621 0.165415 0)
(4.97495 0.159463 0)
(4.98592 0.154623 0)
(4.99073 0.151961 0)
(4.98845 0.151745 0)
(4.98162 0.153638 0)
(4.97401 0.158222 0)
(4.96903 0.165024 0)
(4.96964 0.17545 0)
(5.04033 0.32199 0)
(5.02539 0.290824 0)
(4.97696 0.275708 0)
(4.92196 0.240078 0)
(4.88863 0.198967 0)
(4.88017 0.171165 0)
(4.8895 0.157855 0)
(4.90899 0.153036 0)
(4.9341 0.151683 0)
(4.96112 0.151916 0)
(4.98525 0.153495 0)
(5.00268 0.156084 0)
(5.01162 0.158479 0)
(5.01319 0.1594 0)
(5.00924 0.158468 0)
(5.00275 0.156768 0)
(4.99602 0.155547 0)
(4.9908 0.157098 0)
(5.00615 0.353647 0)
(4.98542 0.323112 0)
(4.96006 0.302239 0)
(4.95647 0.267074 0)
(4.95025 0.221074 0)
(4.94283 0.183296 0)
(4.94455 0.157574 0)
(4.95577 0.139484 0)
(4.9712 0.125815 0)
(4.98665 0.117513 0)
(5.00046 0.11672 0)
(5.01239 0.123795 0)
(5.0234 0.1364 0)
(5.03345 0.150741 0)
(5.04239 0.164031 0)
(5.04873 0.174789 0)
(5.05283 0.183527 0)
(5.05373 0.190865 0)
(4.89493 0.353036 0)
(4.91045 0.310441 0)
(4.93815 0.278382 0)
(4.96997 0.245091 0)
(4.98565 0.207537 0)
(4.9911 0.16873 0)
(4.99797 0.136734 0)
(5.0088 0.118567 0)
(5.01935 0.114601 0)
(5.02488 0.119554 0)
(5.02377 0.126875 0)
(5.0178 0.132404 0)
(5.01103 0.134931 0)
(5.00666 0.135581 0)
(5.00622 0.135923 0)
(5.00976 0.137915 0)
(5.01648 0.141708 0)
(5.02599 0.148133 0)
(5.01037 0.324303 0)
(4.97591 0.278956 0)
(5.01016 0.249053 0)
(5.02784 0.231326 0)
(5.03184 0.210093 0)
(5.0267 0.1804 0)
(5.02024 0.147865 0)
(5.01808 0.122475 0)
(5.02224 0.111751 0)
(5.03281 0.11577 0)
(5.04805 0.128567 0)
(5.06494 0.143263 0)
(5.08034 0.154603 0)
(5.09179 0.160682 0)
(5.09833 0.161899 0)
(5.09997 0.160168 0)
(5.0986 0.157419 0)
(5.09491 0.154665 0)
(4.83563 0.264066 0)
(4.85395 0.23072 0)
(4.90203 0.194117 0)
(4.96991 0.19728 0)
(5.0229 0.194167 0)
(5.05594 0.169608 0)
(5.07062 0.134845 0)
(5.07096 0.102168 0)
(5.06388 0.077747 0)
(5.05683 0.0629276 0)
(5.05589 0.0573349 0)
(5.06365 0.0607997 0)
(5.07939 0.0725762 0)
(5.09981 0.0908739 0)
(5.12251 0.112695 0)
(5.14432 0.133886 0)
(5.16516 0.151506 0)
(5.18272 0.161857 0)
(5.02096 0.257814 0)
(5.024 0.142442 0)
(5.00333 0.09686 0)
(5.01391 0.0934182 0)
(5.03418 0.107285 0)
(5.05 0.122808 0)
(5.06067 0.136409 0)
(5.0731 0.145391 0)
(5.08925 0.146048 0)
(5.10499 0.136725 0)
(5.1167 0.11946 0)
(5.12395 0.0990616 0)
(5.12922 0.0808883 0)
(5.13568 0.0683104 0)
(5.14677 0.0624794 0)
(5.16336 0.0626949 0)
(5.18528 0.0668045 0)
(5.20974 0.0738056 0)
(5.03143 0.290861 0)
(5.05554 0.201624 0)
(5.03056 0.143576 0)
(4.98855 0.121405 0)
(4.97205 0.121761 0)
(4.99116 0.115527 0)
(5.0271 0.0914848 0)
(5.06745 0.0598825 0)
(5.10882 0.0357351 0)
(5.14782 0.0266571 0)
(5.18143 0.030559 0)
(5.20798 0.0399289 0)
(5.2269 0.0474675 0)
(5.23884 0.0494927 0)
(5.24575 0.0466881 0)
(5.25017 0.0423474 0)
(5.25396 0.039446 0)
(5.25827 0.040883 0)
(5.05842 0.195413 0)
(5.06409 0.16971 0)
(5.08684 0.180058 0)
(5.10277 0.155022 0)
(5.12793 0.111846 0)
(5.16317 0.0765787 0)
(5.19308 0.0578552 0)
(5.20785 0.0505606 0)
(5.20787 0.0464233 0)
(5.2004 0.0424201 0)
(5.19469 0.0398169 0)
(5.19625 0.0399723 0)
(5.20528 0.0425247 0)
(5.21872 0.0461925 0)
(5.23391 0.0497069 0)
(5.24858 0.0528958 0)
(5.26248 0.0556492 0)
(5.27454 0.058166 0)
(5.05604 0.273853 0)
(4.99661 0.181258 0)
(5.01607 0.125852 0)
(5.07156 0.0971118 0)
(5.12688 0.0695859 0)
(5.16018 0.0452613 0)
(5.17418 0.0338218 0)
(5.17988 0.0334663 0)
(5.18373 0.0351 0)
(5.18768 0.0328696 0)
(5.19342 0.0267585 0)
(5.20302 0.0190404 0)
(5.21779 0.0116183 0)
(5.23689 0.00528869 0)
(5.26 0.000768962 0)
(5.28541 -0.00155117 0)
(5.3118 -0.00124437 0)
(5.33661 0.00290236 0)
(5.02003 0.300861 0)
(5.08799 0.19925 0)
(5.11692 0.114271 0)
(5.14026 0.0673177 0)
(5.168 0.0452453 0)
(5.19166 0.0404549 0)
(5.20889 0.0447935 0)
(5.22434 0.0492515 0)
(5.24051 0.0485868 0)
(5.25608 0.0421791 0)
(5.26968 0.0316555 0)
(5.28116 0.0193077 0)
(5.29147 0.00745863 0)
(5.30156 -0.00257798 0)
(5.31198 -0.00949943 0)
(5.32359 -0.0128737 0)
(5.33717 -0.0128678 0)
(5.35308 -0.00886916 0)
(4.99542 0.185942 0)
(5.10791 0.107237 0)
(5.21229 0.0852285 0)
(5.25091 0.061249 0)
(5.25355 0.0299694 0)
(5.26015 0.00805372 0)
(5.28047 0.00060861 0)
(5.3083 0.00140935 0)
(5.33673 0.00289091 0)
(5.36205 0.00203696 0)
(5.38447 -0.000684021 0)
(5.40565 -0.00478233 0)
(5.42499 -0.0106985 0)
(5.44005 -0.0181408 0)
(5.44841 -0.0262171 0)
(5.44944 -0.0331777 0)
(5.44448 -0.0380557 0)
(5.43613 -0.0395533 0)
(5.10506 0.135418 0)
(5.11377 0.0811728 0)
(5.17862 0.0759254 0)
(5.2253 0.0712652 0)
(5.25885 0.048606 0)
(5.29724 0.0218625 0)
(5.34047 0.00994358 0)
(5.38092 0.0111643 0)
(5.41282 0.0132391 0)
(5.43494 0.00861156 0)
(5.44934 -0.00165922 0)
(5.45843 -0.0122935 0)
(5.46477 -0.0191785 0)
(5.4699 -0.020077 0)
(5.47408 -0.0156427 0)
(5.47703 -0.00812877 0)
(5.47952 -9.00945e-05 0)
(5.48192 0.00595709 0)
(5.01949 0.147732 0)
(5.14214 0.0261954 0)
(5.23021 0.0296858 0)
(5.27789 0.017258 0)
(5.29843 -0.0170014 0)
(5.31724 -0.0431096 0)
(5.34804 -0.0506214 0)
(5.38695 -0.0428902 0)
(5.42605 -0.0306247 0)
(5.45932 -0.0217352 0)
(5.48373 -0.0186885 0)
(5.49861 -0.0204063 0)
(5.50607 -0.0245909 0)
(5.50967 -0.0295441 0)
(5.51379 -0.0341441 0)
(5.52112 -0.0376271 0)
(5.53355 -0.0400354 0)
(5.55065 -0.0415218 0)
(5.01358 0.0368654 0)
(5.15709 0.031258 0)
(5.28895 0.0625026 0)
(5.3689 0.0532641 0)
(5.40318 0.019839 0)
(5.42506 -0.0103861 0)
(5.45034 -0.0262676 0)
(5.47834 -0.0288776 0)
(5.50428 -0.0258855 0)
(5.52733 -0.0234603 0)
(5.54844 -0.0229065 0)
(5.56795 -0.0230471 0)
(5.58587 -0.0227021 0)
(5.60253 -0.0219832 0)
(5.61846 -0.0216594 0)
(5.63383 -0.0221906 0)
(5.64902 -0.0236959 0)
(5.66347 -0.0260137 0)
(4.94881 0.0357413 0)
(5.14468 -0.0547755 0)
(5.30693 -0.0278015 0)
(5.41638 -0.0322097 0)
(5.48817 -0.0491992 0)
(5.52112 -0.067476 0)
(5.51641 -0.0741196 0)
(5.4885 -0.0677248 0)
(5.4598 -0.055601 0)
(5.44665 -0.0458729 0)
(5.45133 -0.0421169 0)
(5.46709 -0.0433869 0)
(5.48546 -0.0470357 0)
(5.50145 -0.0512651 0)
(5.51206 -0.0551969 0)
(5.51729 -0.05839 0)
(5.51634 -0.0605449 0)
(5.51096 -0.0616338 0)
(5.0515 0.0476087 0)
(5.12339 -0.0297115 0)
(5.06199 -0.0106801 0)
(4.9585 -0.0166654 0)
(4.83518 -0.0253472 0)
(4.69182 -0.0236151 0)
(4.55434 -0.0148676 0)
(4.44134 -0.00896318 0)
(4.34946 -0.0120358 0)
(4.26438 -0.0219353 0)
(4.17417 -0.0320753 0)
(4.07649 -0.0374642 0)
(3.97565 -0.037264 0)
(3.87753 -0.0335862 0)
(3.78404 -0.0288518 0)
(3.69693 -0.0244532 0)
(3.61435 -0.0207252 0)
(3.53917 -0.0179548 0)
(-0.0894256 0.198214 2.21324e-20)
(-0.286591 0.199905 -2.19588e-20)
(-0.424641 0.126818 0)
(-0.459382 0.0233359 0)
(-0.403123 -0.0646584 0)
(-0.284262 -0.124264 2.13341e-20)
(-0.132014 -0.138147 0)
(0.0194255 -0.118079 0)
(0.141428 -0.0718239 0)
(0.217611 0.011085 0)
(0.225374 0.0654927 -2.05702e-20)
(0.198109 -0.024235 0)
(0.179662 -0.106869 0)
(0.192889 -0.0773617 0)
(0.230196 -0.0349776 0)
(0.250392 -0.014947 -1.97459e-20)
(0.27554 -0.0181557 0)
(0.335359 -0.051478 0)
(0.424319 -0.0902873 0)
(0.523182 -0.120049 0)
(0.621703 -0.137567 0)
(0.689075 -0.143696 0)
(0.713386 -0.161395 0)
(0.677984 -0.189672 -1.83095e-20)
(0.592332 -0.185055 1.81468e-20)
(0.457845 -0.0342087 -1.79954e-20)
(0.211439 0.224887 -1.78566e-20)
(-0.11405 0.348019 0)
(-0.427525 0.314763 0)
(-0.707133 0.247163 1.73382e-20)
(-0.964518 0.212875 1.71379e-20)
(-1.2243 0.205976 0)
(-1.489 0.218309 0)
(-1.76536 0.23841 1.65098e-20)
(-2.04832 0.257459 0)
(-2.33153 0.26828 0)
(-2.60454 0.2653 -1.58659e-20)
(-2.85872 0.248682 0)
(-3.08749 0.221872 -1.54426e-20)
(-3.28741 0.190285 -3.04756e-20)
(-3.45811 0.158297 0)
(-3.60104 0.128758 0)
(-3.71861 0.102886 0)
(-3.81303 0.0808734 0)
(-3.88618 0.0620989 0)
(-3.93939 0.0457877 -2.83752e-20)
(-3.97342 0.0312831 -2.80975e-20)
(-3.98885 0.0177014 -2.7842e-20)
(-3.98552 0.0044597 0)
(-3.96414 -0.00878361 2.73939e-20)
(-3.92385 -0.0225437 0)
(-3.86396 -0.0368976 -2.7029e-20)
(-3.784 -0.0516791 -2.68752e-20)
(-3.68352 -0.0665918 0)
(-3.5622 -0.0812173 0)
(-3.41989 -0.095187 0)
(-3.25669 -0.10823 -2.64135e-20)
(-3.07302 -0.120196 0)
(-2.86944 -0.130996 0)
(-2.64653 -0.140585 0)
(-2.40481 -0.149008 0)
(-2.14463 -0.156393 0)
(-1.86552 -0.162954 0)
(-1.56552 -0.169374 0)
(-1.24187 -0.177489 0)
(-0.893471 -0.189669 2.55663e-20)
(-0.519354 -0.2071 0)
(-0.103403 -0.235906 0)
(0.330281 -0.322741 -2.49945e-20)
(0.759096 -0.302799 -2.46939e-20)
(1.10123 0.0433694 0)
(0.865827 0.336578 2.4237e-20)
(0.343227 0.272694 -2.40687e-20)
(0.00982144 0.141447 0)
(-0.182333 0.0899756 2.36147e-20)
(-0.333378 0.0465536 0)
(-0.473501 0.0195072 0)
(-0.573833 -0.018538 -2.28813e-20)
(-0.539258 -0.0907087 0)
(-0.379194 -0.185594 2.24539e-20)
(-0.00814792 -0.303801 0)
(0.571455 -0.386988 -2.21142e-20)
(1.26387 -0.356331 -2.18704e-20)
(1.87779 -0.302393 -2.15549e-20)
(2.3644 -0.245306 -4.24137e-20)
(2.6781 0.0948576 4.18259e-20)
(2.35811 0.507416 0)
(1.5289 0.405251 0)
(0.901752 0.102742 0)
(0.794824 -0.089897 4.04127e-20)
(0.932642 -0.248039 3.99577e-20)
(1.06653 -0.305657 -3.94682e-20)
(0.934104 -0.0558947 0)
(0.340775 0.298622 3.85469e-20)
(-0.423695 0.402128 3.79784e-20)
(-1.13861 0.381403 3.72495e-20)
(-1.76795 0.335257 0)
(-2.30597 0.285853 0)
(-2.76257 0.241065 0)
(-3.15117 0.203122 3.40176e-20)
(-3.48367 0.171846 0)
(-3.7696 0.146101 0)
(-4.0158 0.124355 -3.1809e-20)
(-4.22639 0.104901 0)
(-4.40288 0.086383 0)
(-4.54494 0.0681396 -2.99359e-20)
(-4.65124 0.0499451 0)
(-4.71976 0.0314437 0)
(-4.74812 0.0125528 2.85231e-20)
(-4.73425 -0.00566217 2.81727e-20)
(-4.68298 -0.0225576 0)
(-4.59172 -0.0389606 -2.76552e-20)
(-4.46247 -0.0540066 0)
(-4.29743 -0.0675828 2.73514e-20)
(-4.09949 -0.0794593 0)
(-3.87232 -0.0894382 2.71994e-20)
(-3.6197 -0.0976425 2.7158e-20)
(-3.34568 -0.104195 0)
(-3.05432 -0.109132 0)
(-2.74968 -0.112513 0)
(-2.43571 -0.114383 0)
(-2.11594 -0.11483 0)
(-1.79356 -0.113984 0)
(-1.47162 -0.111969 0)
(-1.15334 -0.108902 2.67167e-20)
(-0.842118 -0.104748 -2.6575e-20)
(-0.540604 -0.0996665 0)
(-0.251051 -0.0940762 0)
(0.0241715 -0.0890719 0)
(0.28527 -0.083399 0)
(0.533596 -0.0779807 -5.09072e-20)
(0.768914 -0.0727927 0)
(0.991652 -0.0677769 4.97174e-20)
(1.20198 -0.0627944 -4.90869e-20)
(1.39968 -0.0576957 0)
(1.58419 -0.0524064 0)
(1.75472 -0.046862 0)
(1.9103 -0.0409282 4.63702e-20)
(2.04958 -0.0346417 4.56476e-20)
(2.17146 -0.0279436 0)
(2.27382 -0.0204785 4.41603e-20)
(2.3545 -0.0126646 4.34006e-20)
(2.41257 -0.00463233 -4.26348e-20)
(2.44433 0.00496211 0)
(2.44462 0.0155911 0)
(2.41431 0.0253101 -4.03376e-20)
(2.35556 0.033622 0)
(2.2714 0.0407944 0)
(2.16462 0.0481334 0)
(2.03567 0.0566789 0)
(1.88317 0.0652698 3.66916e-20)
(1.70671 0.0719931 3.59986e-20)
(1.50845 0.0758516 0)
(1.29565 0.0744775 3.46417e-20)
(1.0834 0.0646013 0)
(0.892005 0.0473153 0)
(0.737781 0.0275564 3.26957e-20)
(0.626743 0.0107612 0)
(0.556784 -0.000410837 3.15056e-20)
(0.520085 -0.00631455 0)
(0.506861 -0.00874068 0)
(0.508346 -0.00941054 2.98611e-20)
(0.517669 -0.00909289 0)
(0.530647 -0.00834624 2.88111e-20)
(0.544449 -0.00751014 0)
(0.5579 -0.0066219 0)
(0.569841 -0.00562061 0)
(0.580751 -0.00455289 -2.67468e-20)
(0.5895 -0.00344405 0)
(0.597535 -0.00242026 2.57224e-20)
(0.602536 -0.0014213 0)
(0.607129 -0.000563786 0)
(0.607035 0.000518338 0)
(0.606079 0.001397 0)
(0.599373 0.00316132 0)
(0.586827 0.0038669 0)
(0.576527 0.00784814 0)
(0.530825 0.00621856 -4.33757e-20)
(0.541645 0.0179349 0)
(0.397561 0.00671904 0)
(-0.0392962 0.56772 -6.63346e-20)
(-0.181714 0.478164 6.58288e-20)
(-0.276369 0.252678 0)
(-0.280915 -0.0546424 -4.32196e-20)
(-0.193353 -0.307123 0)
(-0.0450606 -0.45569 -2.13381e-20)
(0.122989 -0.489455 4.23552e-20)
(0.276691 -0.433018 4.20454e-20)
(0.401365 -0.316359 0)
(0.489541 -0.169485 4.14195e-20)
(0.534161 -0.0231338 2.05521e-20)
(0.532384 0.116274 0)
(0.431112 0.13347 0)
(0.277613 -0.0254399 0)
(0.195423 -0.0758732 0)
(0.170928 -0.0685094 1.97506e-20)
(0.183987 -0.147278 0)
(0.220712 -0.239274 -3.88392e-20)
(0.246533 -0.279088 0)
(0.23398 -0.259097 0)
(0.151877 -0.189002 3.77826e-20)
(0.00808161 -0.032518 0)
(-0.188761 0.197245 -3.70615e-20)
(-0.462636 0.404735 1.83347e-20)
(-0.777726 0.569523 -1.81501e-20)
(-1.05986 0.676568 1.79714e-20)
(-1.28925 0.720505 1.78034e-20)
(-1.50396 0.709426 0)
(-1.73337 0.681228 0)
(-1.98359 0.66861 -1.72728e-20)
(-2.24741 0.672174 1.69998e-20)
(-2.51267 0.678482 0)
(-2.7665 0.680652 0)
(-3.00249 0.670675 -1.64521e-20)
(-3.21484 0.646116 0)
(-3.4043 0.60647 0)
(-3.57134 0.554409 1.58231e-20)
(-3.71878 0.494635 0)
(-3.84898 0.432107 -1.53155e-20)
(-3.96413 0.370848 3.04197e-20)
(-4.06548 0.313123 0)
(-4.1536 0.259787 0)
(-4.2285 0.210679 5.84413e-20)
(-4.28985 0.165119 5.77714e-20)
(-4.33713 0.122215 5.71411e-20)
(-4.36976 0.0810756 -2.82042e-20)
(-4.38742 0.0408706 2.8073e-20)
(-4.38953 0.0010055 8.33221e-20)
(-4.37613 -0.0389533 -5.50376e-20)
(-4.34595 -0.0788617 -2.73711e-20)
(-4.29872 -0.118856 0)
(-4.23412 -0.158994 2.70054e-20)
(-4.15163 -0.199259 -2.67331e-20)
(-4.05077 -0.239584 0)
(-3.93089 -0.279808 0)
(-3.79145 -0.319721 0)
(-3.63217 -0.359079 2.63858e-20)
(-3.45313 -0.397586 0)
(-3.25479 -0.434932 -5.23201e-20)
(-3.038 -0.470969 0)
(-2.80387 -0.506013 -5.19933e-20)
(-2.55332 -0.541063 0)
(-2.28639 -0.577831 5.1632e-20)
(-2.00206 -0.618672 0)
(-1.69839 -0.66607 -5.11922e-20)
(-1.37166 -0.7204 2.5401e-20)
(-1.01623 -0.775344 0)
(-0.630342 -0.815461 5.02687e-20)
(-0.216257 -0.819002 2.49811e-20)
(0.0910329 -0.655068 2.47056e-20)
(0.459727 -0.0807531 0)
(0.689006 0.491539 2.41908e-20)
(0.627969 0.643211 2.40507e-20)
(0.49482 0.463436 0)
(0.417473 0.291732 -2.3613e-20)
(0.359131 0.257174 4.67837e-20)
(0.281253 0.226878 0)
(0.195383 0.0920788 2.29018e-20)
(0.11234 -0.13261 0)
(0.102949 -0.418381 -6.72741e-20)
(0.261021 -0.77024 0)
(0.618652 -1.09034 6.60839e-20)
(1.15275 -1.14638 2.18517e-20)
(1.74914 -0.941036 -2.13344e-20)
(2.10385 -0.570534 -4.19701e-20)
(2.3475 -0.010972 4.13572e-20)
(2.46152 0.575845 0)
(1.96752 0.948544 0)
(1.48721 0.726432 0)
(1.42727 0.0601695 -1.212e-19)
(1.12203 -0.0872972 -3.99806e-20)
(0.367446 0.366525 3.953e-20)
(-0.500122 0.829139 0)
(-1.27649 1.03031 3.81981e-20)
(-1.90081 1.00393 -3.78628e-20)
(-2.40252 0.893345 -3.71504e-20)
(-2.81263 0.762806 0)
(-3.15121 0.640766 0)
(-3.43501 0.536496 0)
(-3.67718 0.45114 -3.39791e-20)
(-3.88676 0.38201 0)
(-4.06992 0.325087 6.48175e-20)
(-4.23042 0.276169 9.52359e-20)
(-4.36983 0.231564 -6.21306e-20)
(-4.48793 0.188265 0)
(-4.58305 0.144289 -2.98052e-20)
(-4.65249 0.0986531 0)
(-4.69318 0.0509118 -5.77424e-20)
(-4.70266 0.00120981 2.83977e-20)
(-4.67967 -0.0487976 2.80476e-20)
(-4.61706 -0.0980724 0)
(-4.51697 -0.145895 8.28461e-20)
(-4.37942 -0.190713 -5.48442e-20)
(-4.20617 -0.231508 -2.73496e-20)
(-4.00022 -0.267411 0)
(-3.76485 -0.297924 -2.71961e-20)
(-3.50373 -0.323025 -8.13727e-20)
(-3.22046 -0.342942 0)
(-2.91869 -0.357911 -5.41186e-20)
(-2.60226 -0.368119 -5.4069e-20)
(-2.27496 -0.373748 -5.40033e-20)
(-1.94036 -0.375125 0)
(-1.60187 -0.372608 0)
(-1.26291 -0.366341 0)
(-0.926899 -0.356526 2.66745e-20)
(-0.597558 -0.343357 2.65743e-20)
(-0.277982 -0.327624 0)
(0.0286989 -0.310789 5.23847e-20)
(0.321091 -0.294116 5.19199e-20)
(0.59938 -0.27675 0)
(0.863764 -0.26012 5.08763e-20)
(1.11451 -0.244401 1.00553e-19)
(1.352 -0.22941 -4.96876e-20)
(1.57628 -0.214752 -4.90309e-20)
(1.78694 -0.200021 0)
(1.98324 -0.184931 0)
(2.16425 -0.169277 0)
(2.32888 -0.152848 -4.63443e-20)
(2.47648 -0.135505 4.56207e-20)
(2.60561 -0.116933 8.97736e-20)
(2.7152 -0.0967465 -4.4138e-20)
(2.80432 -0.0751178 4.33797e-20)
(2.87032 -0.0515906 4.26149e-20)
(2.91312 -0.0253139 0)
(2.93571 0.00211036 0)
(2.93695 0.0285355 -4.0302e-20)
(2.91574 0.0525634 0)
(2.87171 0.0734029 0)
(2.80571 0.0911915 7.61468e-20)
(2.72063 0.107644 0)
(2.62178 0.124675 3.66307e-20)
(2.51465 0.142065 -3.59669e-20)
(2.40148 0.156327 0)
(2.28257 0.163389 3.45753e-20)
(2.1601 0.159918 0)
(2.03848 0.14403 0)
(1.92333 0.117521 -3.26575e-20)
(1.82007 0.0860676 6.41024e-20)
(1.73386 0.0559001 -3.14713e-20)
(1.66814 0.031056 0)
(1.62261 0.0131486 0)
(1.59416 0.0017654 2.98334e-20)
(1.57889 -0.004391 0)
(1.57241 -0.00693062 2.87861e-20)
(1.57059 -0.00748401 0)
(1.57077 -0.00716017 0)
(1.57092 -0.00656704 0)
(1.571 -0.00603844 2.67255e-20)
(1.57031 -0.00542961 0)
(1.57011 -0.00487518 -2.57027e-20)
(1.56916 -0.00376837 0)
(1.56893 -0.00274868 0)
(1.56717 -0.000391694 4.83548e-20)
(1.56461 0.00103903 -4.73433e-20)
(1.56065 0.00557216 0)
(1.55007 0.00651125 0)
(1.54564 0.0157233 0)
(1.51248 0.013615 1.30023e-19)
(1.5213 0.0340602 0)
(1.42688 0.0244285 -8.27583e-20)
(0.0606823 0.646777 -2.33234e-24)
(0.0300423 0.663185 -8.77643e-20)
(0.0358659 0.366573 0)
(0.134502 -0.139 8.64488e-20)
(0.299239 -0.556051 0)
(0.464965 -0.76984 0)
(0.601863 -0.797262 -3.59497e-23)
(0.701869 -0.68891 -4.19766e-20)
(0.767448 -0.496103 -4.16299e-20)
(0.79874 -0.255951 -4.13762e-20)
(0.79537 -0.012098 0)
(0.75799 0.209052 0)
(0.679177 0.384054 4.04254e-20)
(0.515781 0.379257 8.02883e-20)
(0.292599 0.18573 -7.9733e-20)
(0.156955 0.0179431 0)
(0.0702275 -0.100299 -7.85064e-20)
(-0.0340045 -0.158736 3.88589e-20)
(-0.18554 -0.087178 0)
(-0.392769 0.081873 -7.6343e-20)
(-0.651159 0.29966 -3.77228e-20)
(-0.916576 0.511368 7.47627e-20)
(-1.16335 0.694361 3.69507e-20)
(-1.39985 0.834003 0)
(-1.61402 0.931032 -7.24433e-20)
(-1.80879 1.00039 -7.1686e-20)
(-1.99092 1.04646 0)
(-2.17216 1.06934 -7.01717e-20)
(-2.36223 1.07531 0)
(-2.55698 1.06938 -6.86106e-20)
(-2.75056 1.05441 -3.40126e-20)
(-2.93663 1.0303 0)
(-3.11226 0.997674 0)
(-3.2758 0.955045 0)
(-3.42662 0.902302 0)
(-3.56584 0.839617 0)
(-3.69459 0.769167 0)
(-3.81432 0.693696 -6.19756e-20)
(-3.92526 0.616157 9.18832e-20)
(-4.02707 0.538788 0)
(-4.11869 0.463098 0)
(-4.19912 0.389949 0)
(-4.26743 0.319645 -2.3505e-22)
(-4.32292 0.252128 -5.77608e-20)
(-4.36509 0.187068 -1.14039e-19)
(-4.39378 0.123837 1.12871e-19)
(-4.40853 0.0619209 5.57848e-20)
(-4.40886 0.000971656 -5.54997e-20)
(-4.394 -0.0597878 2.08288e-22)
(-4.36327 -0.120917 -5.44045e-20)
(-4.31657 -0.182713 0)
(-4.25356 -0.245413 -5.36859e-20)
(-4.17369 -0.309072 1.88718e-22)
(-4.07633 -0.37349 0)
(-3.96088 -0.438245 0)
(-3.82685 -0.502687 5.26603e-20)
(-3.67414 -0.565977 0)
(-3.50309 -0.627092 0)
(-3.31478 -0.684977 -5.19685e-20)
(-3.11117 -0.738844 -1.03939e-19)
(-2.89512 -0.788628 5.196e-20)
(-2.66996 -0.835472 0)
(-2.43895 -0.882093 -5.1591e-20)
(-2.20491 -0.932753 0)
(-1.96967 -0.992375 -5.0809e-20)
(-1.73352 -1.06418 -5.08654e-20)
(-1.49508 -1.14495 1.0078e-19)
(-1.24996 -1.21491 4.99012e-20)
(-0.990822 -1.22133 0)
(-0.731743 -1.077 -9.84214e-20)
(-0.359939 -0.547433 0)
(0.138572 0.172402 -1.45542e-19)
(0.460129 0.494743 -9.63616e-20)
(0.641759 0.448813 -9.55326e-20)
(0.747344 0.278818 9.46227e-20)
(0.843109 0.201925 -1.40407e-19)
(0.94401 0.217901 0)
(1.01113 0.188285 0)
(0.965045 0.0345574 9.05639e-20)
(0.832446 -0.296972 1.34303e-19)
(0.754267 -0.825304 0)
(0.817367 -1.39573 -4.39519e-20)
(1.05675 -1.61597 0)
(1.40291 -1.35323 1.28298e-19)
(1.6323 -0.848744 2.93526e-22)
(1.71796 -0.109749 -2.21485e-22)
(1.64034 0.885162 -8.22441e-20)
(1.3425 1.36557 0)
(1.38512 0.747417 8.13858e-20)
(1.12218 0.334912 5.35501e-23)
(0.198382 0.793412 0)
(-0.750447 1.3149 0)
(-1.45155 1.55041 0)
(-1.92834 1.55209 -7.65338e-20)
(-2.25966 1.4142 0)
(-2.51907 1.22614 0)
(-2.74345 1.03912 0)
(-2.95202 0.875725 0)
(-3.15141 0.741125 0)
(-3.34343 0.63295 -6.7453e-20)
(-3.52785 0.545717 0)
(-3.7036 0.473176 -6.48352e-20)
(-3.86881 0.409334 -6.34615e-20)
(-4.02076 0.349188 6.21491e-20)
(-4.15613 0.288735 0)
(-4.27071 0.225084 5.97554e-20)
(-4.35981 0.156506 0)
(-4.41905 0.0826932 5.77615e-20)
(-4.44448 0.00458765 -5.69438e-20)
(-4.43376 -0.0764358 -1.68313e-19)
(-4.38552 -0.158329 0)
(-4.29921 -0.237965 -1.65212e-19)
(-4.17574 -0.31317 -5.44825e-20)
(-4.01693 -0.381934 0)
(-3.82546 -0.44285 -1.08496e-19)
(-3.60443 -0.495211 -1.08271e-19)
(-3.35702 -0.538861 1.62335e-19)
(-3.08623 -0.574059 0)
(-2.795 -0.601199 5.4106e-20)
(-2.48638 -0.620505 5.4055e-20)
(-2.16369 -0.632099 1.61731e-19)
(-1.83036 -0.636281 0)
(-1.48986 -0.63353 0)
(-1.14599 -0.62405 0)
(-0.802571 -0.60833 5.32306e-20)
(-0.463396 -0.587193 0)
(-0.132962 -0.560998 0)
(0.1855 -0.532405 -5.23636e-20)
(0.490972 -0.502218 -5.18917e-20)
(0.78332 -0.47201 0)
(1.06284 -0.443 0)
(1.33027 -0.415459 -1.00499e-19)
(1.58619 -0.388956 0)
(1.8305 -0.362681 9.80354e-20)
(2.06225 -0.335856 9.66962e-20)
(2.27968 -0.308023 0)
(2.48061 -0.278968 0)
(2.66268 -0.248649 -9.26158e-20)
(2.82359 -0.216945 -1.08814e-23)
(2.96101 -0.183607 -7.08096e-24)
(3.07242 -0.148516 0)
(3.15585 -0.111555 -1.73434e-19)
(3.20936 -0.0734733 0)
(3.23151 -0.0357668 0)
(3.22457 0.00214799 0)
(3.1924 0.0394471 8.05953e-20)
(3.13933 0.0744266 0)
(3.07098 0.107703 -1.55113e-19)
(2.99241 0.139632 -7.61258e-20)
(2.90537 0.167125 0)
(2.80946 0.186663 -7.32714e-20)
(2.70732 0.198768 0)
(2.60703 0.206306 0)
(2.51774 0.209885 -2.07393e-19)
(2.44168 0.20541 1.35598e-19)
(2.37407 0.187744 0)
(2.3095 0.157643 1.30539e-19)
(2.24552 0.12129 -6.40719e-20)
(2.18343 0.0855206 0)
(2.12656 0.0544634 0)
(2.07801 0.0298472 0)
(2.03967 0.0120253 -1.78923e-19)
(2.01209 0.000385725 0)
(1.99451 -0.00616093 -5.75502e-20)
(1.98499 -0.00884891 0)
(1.98119 -0.00901756 0)
(1.98071 -0.00784279 0)
(1.98175 -0.00637942 0)
(1.98301 -0.00491094 0)
(1.98387 -0.00386112 0)
(1.98409 -0.00251213 -1.00738e-19)
(1.98326 -0.00161292 0)
(1.98201 0.000849278 -4.83377e-20)
(1.97855 0.00230494 1.41978e-19)
(1.97632 0.00762227 0)
(1.9682 0.009239 0)
(1.9672 0.0199919 -8.86235e-20)
(1.94875 0.0198042 -8.66473e-20)
(1.95536 0.0416938 8.46589e-20)
(1.91302 0.0372251 8.27263e-20)
(0.0385091 0.433411 1.32701e-19)
(0.078811 0.581069 1.31741e-19)
(0.299368 0.0794581 8.71637e-20)
(0.569438 -0.53329 4.32312e-20)
(0.788178 -0.935078 0)
(0.922395 -1.07609 -8.49097e-20)
(0.989215 -1.01251 4.20773e-20)
(1.01202 -0.818216 0)
(1.00326 -0.548674 4.15993e-20)
(0.967503 -0.248143 0)
(0.910469 0.0583076 -8.1898e-20)
(0.819374 0.335395 0)
(0.707344 0.583988 -4.04059e-20)
(0.55776 0.710308 -8.02369e-20)
(0.327807 0.597288 7.96852e-20)
(0.104865 0.368554 0)
(-0.0741583 0.212188 7.84819e-20)
(-0.285017 0.229816 0)
(-0.541069 0.384862 0)
(-0.819796 0.582824 7.62177e-20)
(-1.0919 0.775877 0)
(-1.33832 0.941252 7.01995e-23)
(-1.55639 1.07385 0)
(-1.74856 1.17222 0)
(-1.91827 1.24177 2.4615e-23)
(-2.07942 1.2946 7.16055e-20)
(-2.23768 1.33275 7.07612e-20)
(-2.3961 1.35438 7.01049e-20)
(-2.55486 1.35941 0)
(-2.71243 1.35059 1.36905e-19)
(-2.86937 1.33015 0)
(-3.025 1.29874 6.66872e-20)
(-3.1792 1.25593 0)
(-3.33047 1.20095 0)
(-3.47748 1.13389 -6.4144e-20)
(-3.61853 1.05554 0)
(-3.75185 0.968144 6.24616e-20)
(-3.87593 0.874487 3.1227e-22)
(-3.98947 0.777662 -1.21979e-19)
(-4.09155 0.680435 1.20093e-19)
(-4.18158 0.585094 0)
(-4.2593 0.492947 0)
(-4.32448 0.404222 5.75471e-20)
(-4.37676 0.318357 0)
(-4.41576 0.234466 5.68958e-20)
(-4.44084 0.151691 -5.6316e-20)
(-4.45139 0.0694303 -5.57793e-20)
(-4.4474 -0.0127684 0)
(-4.42854 -0.0952397 5.48169e-20)
(-4.39429 -0.178477 5.43958e-20)
(-4.34419 -0.262656 -1.07483e-19)
(-4.27775 -0.347755 5.36744e-20)
(-4.19452 -0.433667 5.33696e-20)
(-4.09384 -0.520215 0)
(-3.97491 -0.607055 0)
(-3.83694 -0.69354 -5.2643e-20)
(-3.67931 -0.778525 0)
(-3.50198 -0.860248 0)
(-3.30596 -0.936428 1.0422e-19)
(-3.09381 -1.00474 1.03897e-19)
(-2.86995 -1.06361 0)
(-2.64032 -1.11318 0)
(-2.41155 -1.15578 0)
(-2.19018 -1.19574 0)
(-1.98245 -1.23866 1.01902e-19)
(-1.7943 -1.29073 -1.01028e-19)
(-1.63088 -1.3559 -1.00717e-19)
(-1.49482 -1.42653 -1.99749e-19)
(-1.37998 -1.46649 0)
(-1.25016 -1.38971 1.59033e-23)
(-0.992915 -1.05548 0)
(-0.484933 -0.45277 9.69814e-20)
(0.0579172 -0.000144334 -1.53025e-22)
(0.500014 0.145918 9.55802e-20)
(0.816273 0.0974426 -9.46271e-20)
(1.02304 0.0171301 -1.74825e-22)
(1.17797 0.0214394 0)
(1.32129 0.0741134 -9.17187e-20)
(1.38745 0.0776863 -9.04986e-20)
(1.31139 -0.123959 -1.79112e-19)
(1.14639 -0.679394 0)
(1.00636 -1.4137 8.76136e-20)
(0.999206 -1.79949 0)
(1.11521 -1.54861 -1.70778e-19)
(1.17043 -0.834931 8.418e-20)
(1.09514 0.119532 -8.31396e-20)
(0.985572 1.04506 8.23063e-20)
(1.07995 1.19243 1.63396e-19)
(1.05363 0.902075 -8.14113e-20)
(0.269876 1.19218 8.07517e-20)
(-0.679093 1.726 0)
(-1.33399 1.98268 -1.56339e-19)
(-1.72443 1.97685 0)
(-1.95948 1.82619 -1.51021e-19)
(-2.13254 1.61852 1.48315e-19)