/*--------------------------------*- C++ -*----------------------------------*\
  =========                 |
  \\      /  F ield         | OpenFOAM: The Open Source CFD Toolbox
   \\    /   O peration     | Website:  https://openfoam.org
    \\  /    A nd           | Version:  7
     \\/     M anipulation  |
\*---------------------------------------------------------------------------*/
FoamFile
{
    version     2.0;
    format      ascii;
    class       volScalarField;
    location    "0.057";
    object      k;
}
// * * * * * * * * * * * * * * * * * * * * * * * * * * * * * * * * * * * * * //

dimensions      [0 2 -2 0 0 0 0];

internalField   nonuniform List<scalar> 
12225
(
1.93217e-05
1.81358e-05
1.67403e-05
1.53912e-05
1.40533e-05
1.24107e-05
1.12789e-05
9.85152e-06
8.80257e-06
1.18714e-05
9.96868e-06
5.52142e-06
4.70903e-06
5.02732e-06
5.69913e-06
5.55439e-06
4.23026e-06
5.01477e-06
1.99793e-05
1.98815e-05
1.96775e-05
1.93853e-05
1.91395e-05
1.85933e-05
1.82852e-05
1.76825e-05
1.73027e-05
1.84444e-05
1.84609e-05
1.7623e-05
1.64093e-05
1.53602e-05
1.44828e-05
1.39285e-05
1.36925e-05
1.32769e-05
2.00005e-05
1.92619e-05
1.90346e-05
1.90131e-05
1.89753e-05
1.895e-05
1.89354e-05
1.89048e-05
1.87873e-05
1.87751e-05
1.87366e-05
1.86467e-05
1.85342e-05
1.84264e-05
1.8282e-05
1.80199e-05
1.77738e-05
1.74256e-05
2.02751e-05
2.00893e-05
1.93018e-05
1.65326e-05
1.59805e-05
1.62008e-05
1.65782e-05
1.67944e-05
1.68737e-05
1.69095e-05
1.69355e-05
1.70001e-05
1.72648e-05
1.76753e-05
1.7884e-05
1.7925e-05
1.79274e-05
1.78662e-05
2.00952e-05
2.47676e-05
2.74165e-05
2.49729e-05
2.12913e-05
1.96327e-05
1.7952e-05
1.44601e-05
1.30364e-05
1.31929e-05
1.42266e-05
1.57492e-05
1.67536e-05
1.73793e-05
1.77129e-05
1.78423e-05
1.78653e-05
1.78226e-05
2.03866e-05
2.12028e-05
2.47964e-05
2.54206e-05
2.43559e-05
2.33403e-05
2.22774e-05
2.05089e-05
1.93869e-05
1.90778e-05
1.90878e-05
1.91719e-05
1.93691e-05
1.98647e-05
2.0215e-05
2.03308e-05
2.03344e-05
2.02633e-05
2.03696e-05
2.57371e-05
2.972e-05
2.75027e-05
2.42513e-05
2.35962e-05
2.34422e-05
2.30991e-05
2.22195e-05
2.16115e-05
2.13162e-05
2.11725e-05
2.11119e-05
2.11138e-05
2.12574e-05
2.1857e-05
2.27353e-05
2.32085e-05
2.43721e-05
2.59496e-05
2.52409e-05
2.32645e-05
2.26624e-05
2.28926e-05
2.36721e-05
2.41276e-05
2.41185e-05
2.39683e-05
2.39431e-05
2.39093e-05
2.37803e-05
2.32741e-05
2.26504e-05
2.25032e-05
2.25525e-05
2.27676e-05
2.14501e-05
2.24231e-05
2.39687e-05
2.37257e-05
2.35392e-05
2.37973e-05
2.45993e-05
2.54563e-05
2.67109e-05
2.78603e-05
2.82888e-05
2.82409e-05
2.76094e-05
2.54626e-05
2.34145e-05
2.20796e-05
2.13189e-05
2.11487e-05
2.0508e-05
2.21126e-05
2.23916e-05
2.21207e-05
2.19514e-05
2.20416e-05
2.25184e-05
2.3959e-05
2.59671e-05
2.72781e-05
2.76297e-05
2.75931e-05
2.71644e-05
2.54249e-05
2.3446e-05
2.22055e-05
2.15192e-05
2.12053e-05
2.11908e-05
2.05811e-05
2.05792e-05
2.09439e-05
2.16298e-05
2.19669e-05
2.21298e-05
2.22661e-05
2.26687e-05
2.37034e-05
2.42414e-05
2.42983e-05
2.41697e-05
2.36154e-05
2.31562e-05
2.29942e-05
2.29678e-05
2.29385e-05
2.02947e-05
2.12335e-05
2.14879e-05
2.13434e-05
2.13734e-05
2.1371e-05
2.1153e-05
2.07562e-05
2.06962e-05
2.07545e-05
2.10496e-05
2.21548e-05
2.32745e-05
2.37372e-05
2.38859e-05
2.3904e-05
2.38795e-05
2.37552e-05
2.01505e-05
2.13536e-05
2.2769e-05
2.25985e-05
2.21877e-05
2.18209e-05
2.12675e-05
2.08622e-05
2.07293e-05
2.07329e-05
2.08489e-05
2.14508e-05
2.31385e-05
2.42231e-05
2.45783e-05
2.46555e-05
2.46533e-05
2.4557e-05
2.03582e-05
2.06819e-05
2.07647e-05
2.09068e-05
2.21591e-05
2.4434e-05
2.50376e-05
2.49803e-05
2.41635e-05
2.27083e-05
2.2111e-05
2.20259e-05
2.21026e-05
2.244e-05
2.27894e-05
2.29684e-05
2.30194e-05
2.30291e-05
2.03142e-05
2.01906e-05
2.02253e-05
2.07857e-05
2.26288e-05
2.36149e-05
2.37184e-05
2.36021e-05
2.34608e-05
2.32975e-05
2.2985e-05
2.25778e-05
2.2339e-05
2.2283e-05
2.22851e-05
2.23056e-05
2.24019e-05
2.27141e-05
2.11884e-05
2.07788e-05
2.09476e-05
2.12505e-05
2.15629e-05
2.22096e-05
2.25989e-05
2.26288e-05
2.24934e-05
2.19338e-05
2.13993e-05
2.11934e-05
2.11206e-05
2.10969e-05
2.10984e-05
2.1139e-05
2.13372e-05
2.19406e-05
2.00842e-05
2.04554e-05
2.07427e-05
2.08601e-05
2.08765e-05
2.08398e-05
2.07477e-05
2.06381e-05
2.05358e-05
2.04983e-05
2.05119e-05
2.05237e-05
2.0514e-05
2.05092e-05
2.05424e-05
2.07216e-05
2.08677e-05
2.1009e-05
2.02273e-05
2.07151e-05
2.08825e-05
2.09114e-05
2.07685e-05
2.05291e-05
2.04653e-05
2.0383e-05
2.02872e-05
2.02532e-05
2.02675e-05
2.03696e-05
2.06093e-05
2.07539e-05
2.08021e-05
2.08059e-05
2.08009e-05
2.07925e-05
2.02078e-05
2.11424e-05
2.14224e-05
2.12241e-05
2.07818e-05
2.06034e-05
2.05605e-05
2.05425e-05
2.05073e-05
2.04041e-05
2.03053e-05
2.02643e-05
2.02577e-05
2.0261e-05
2.02801e-05
2.03504e-05
2.05596e-05
2.0769e-05
2.06776e-05
2.09578e-05
2.17955e-05
2.22349e-05
2.2027e-05
2.13646e-05
2.09927e-05
2.08449e-05
2.08054e-05
2.07892e-05
2.0756e-05
2.06508e-05
2.04448e-05
2.03092e-05
2.02433e-05
2.02219e-05
2.02209e-05
2.02311e-05
2.05243e-05
2.03835e-05
2.04776e-05
2.08539e-05
2.10848e-05
2.10585e-05
2.08762e-05
2.0709e-05
2.06609e-05
2.06206e-05
2.05232e-05
2.03826e-05
2.02875e-05
2.02449e-05
2.02286e-05
2.02247e-05
2.02251e-05
2.02316e-05
2.0023e-05
2.00462e-05
2.01412e-05
2.05306e-05
2.0884e-05
2.10564e-05
2.13566e-05
2.16203e-05
2.16705e-05
2.16322e-05
2.14644e-05
2.09939e-05
2.0523e-05
2.02328e-05
2.00875e-05
2.0027e-05
2.0011e-05
2.00107e-05
2.00445e-05
2.04e-05
2.05994e-05
2.07503e-05
2.08599e-05
2.08993e-05
2.09637e-05
2.11371e-05
2.11684e-05
2.10552e-05
2.07184e-05
2.05086e-05
2.03892e-05
2.03172e-05
2.02739e-05
2.02345e-05
2.0188e-05
2.0146e-05
2.01947e-05
2.04284e-05
2.04105e-05
2.0442e-05
2.06049e-05
2.06956e-05
2.06918e-05
2.0644e-05
2.06425e-05
2.07376e-05
2.12052e-05
2.22568e-05
2.2853e-05
2.29991e-05
2.29808e-05
2.28327e-05
2.22453e-05
2.14305e-05
2.01623e-05
2.02529e-05
2.02356e-05
2.02631e-05
2.03921e-05
2.04552e-05
2.04521e-05
2.04203e-05
2.04213e-05
2.05001e-05
2.09999e-05
2.23907e-05
2.31073e-05
2.32099e-05
2.30895e-05
2.2426e-05
2.1497e-05
2.10191e-05
2.02188e-05
2.04287e-05
2.0576e-05
2.07756e-05
2.08459e-05
2.08299e-05
2.06559e-05
2.03607e-05
2.0269e-05
2.02809e-05
2.04533e-05
2.13378e-05
2.28522e-05
2.34996e-05
2.35555e-05
2.33376e-05
2.23572e-05
2.13872e-05
2.00509e-05
2.0118e-05
2.01172e-05
2.01108e-05
2.01009e-05
2.00732e-05
1.99484e-05
1.97293e-05
1.96839e-05
1.97351e-05
2.00016e-05
2.03929e-05
2.05031e-05
2.04456e-05
2.005e-05
1.85558e-05
1.71652e-05
1.6617e-05
2.0225e-05
1.71004e-05
1.46587e-05
1.5822e-05
1.94397e-05
2.31021e-05
2.5616e-05
2.87526e-05
3.51084e-05
4.7792e-05
6.08449e-05
7.15364e-05
7.95005e-05
8.51171e-05
8.90596e-05
9.13721e-05
9.3086e-05
9.32353e-05
3.18726e-05
7.81409e-05
0.000132951
0.000220004
0.000291345
0.000325965
0.000348528
0.000388733
0.000488603
0.000621511
0.000704224
0.000731355
0.000733128
0.000730644
0.000721738
0.000713682
0.00070683
0.000700229
0.00258202
0.00247933
0.00223868
0.00214322
0.00212666
0.00213149
0.00216708
0.00224247
0.00228747
0.00229922
0.00229226
0.00223883
0.00207155
0.00191515
0.00179968
0.00170035
0.00159213
0.00148275
8.23442e-05
0.000315785
0.000518404
0.000660482
0.00090747
0.00101432
0.000979171
0.000804348
0.000687401
0.000617066
0.000575444
0.000553715
0.000540174
0.000524762
0.00050618
0.000493525
0.000484955
0.000471271
0.000459853
0.000425681
0.000420458
0.00042921
0.00045199
0.000503997
0.000552276
0.000607354
0.00060348
0.000564764
0.000517739
0.000569899
0.000950894
0.00194456
0.00243297
0.00266813
0.00302601
0.00404824
0.00752717
0.0120211
0.0123397
0.0113492
0.0112744
0.014884
0.0380787
0.0395908
0.00878462
0.0014628
0.000590232
0.000487607
0.000500602
0.000529743
0.000533296
0.000496951
0.000438851
0.00035648
0.000290489
0.000231608
0.000181882
0.00012974
0.00010455
7.84728e-05
6.67397e-05
6.08154e-05
5.90453e-05
5.90613e-05
5.88097e-05
5.85446e-05
5.83743e-05
5.79297e-05
5.75679e-05
5.72233e-05
5.67313e-05
5.61794e-05
5.55462e-05
5.48806e-05
5.4335e-05
5.41372e-05
5.41198e-05
5.41616e-05
5.42271e-05
5.42498e-05
5.40874e-05
5.3647e-05
5.31405e-05
5.28566e-05
5.27265e-05
5.24684e-05
5.1765e-05
5.05299e-05
4.9036e-05
4.77379e-05
4.6727e-05
4.55465e-05
4.37042e-05
4.17129e-05
4.04934e-05
3.89445e-05
3.71102e-05
3.56901e-05
3.40769e-05
3.25324e-05
3.09476e-05
2.93366e-05
2.76764e-05
2.59572e-05
2.41231e-05
2.21447e-05
2.00564e-05
1.79064e-05
1.57618e-05
1.37076e-05
1.18312e-05
1.0134e-05
8.59437e-06
7.22909e-06
6.04157e-06
5.01883e-06
4.14535e-06
3.4074e-06
2.78892e-06
2.27519e-06
1.85188e-06
1.50278e-06
1.2179e-06
9.86437e-07
7.98844e-07
6.47556e-07
5.26139e-07
4.28949e-07
3.51082e-07
2.88366e-07
2.37412e-07
1.95608e-07
1.61025e-07
1.32255e-07
1.08255e-07
8.8226e-08
7.15323e-08
5.7658e-08
4.61751e-08
3.67225e-08
2.89908e-08
2.27118e-08
1.76519e-08
1.36071e-08
1.04002e-08
7.87931e-09
5.91484e-09
4.3978e-09
3.23716e-09
2.35777e-09
1.69829e-09
1.20917e-09
8.50731e-10
5.9138e-10
4.06154e-10
2.7557e-10
1.8468e-10
1.22232e-10
7.98831e-11
5.1544e-11
3.28326e-11
2.06448e-11
1.28131e-11
7.84927e-12
4.7455e-12
2.8318e-12
1.66719e-12
9.68992e-13
5.54884e-13
3.14236e-13
1.74415e-13
9.6341e-14
5.15015e-14
2.83682e-14
1.22472e-14
3.42737e-14
3.28386e-13
1.61127e-10
8.48906e-08
3.53256e-07
0.000277689
0.000548141
0.000717972
0.000657783
0.000677922
0.000753801
0.000793947
0.000786919
0.000753385
0.000737883
0.000754003
0.00079784
0.000887041
0.00095834
0.000982079
0.0009963
0.00103434
0.00104545
0.00103956
0.00102144
0.000981856
0.000914725
0.000831419
0.000770413
0.000723688
0.000684304
0.000661935
0.000617967
0.00057957
0.000592507
0.000660524
0.000834203
0.00119907
0.00150747
0.00151388
0.0014701
0.00172008
0.00286844
0.00342721
0.00648363
0.0146894
0.0174334
0.0175635
0.00777895
0.00179981
0.000569878
0.0003486
0.000296258
0.000275937
0.000248726
0.000221908
0.000205839
0.000185826
0.000176034
0.000169849
0.000164854
0.000160565
0.000156285
0.000155331
0.000155192
0.00015548
0.000155927
0.000156242
0.000156633
0.0001569
0.000156913
0.000156108
0.000154888
0.000154025
0.000153528
0.000153205
0.000152555
0.00015087
0.000148806
0.000148333
0.000148392
0.000148863
0.000149738
0.000150684
0.000151253
0.000151523
0.000151636
0.000151724
0.000152216
0.000152458
0.000151494
0.000148958
0.000145429
0.000141007
0.000136367
0.000131451
0.000126257
0.000119947
0.00011341
0.000108453
0.000102059
9.67765e-05
9.179e-05
8.72742e-05
8.31523e-05
7.9322e-05
7.56978e-05
7.21811e-05
6.87262e-05
6.54091e-05
6.22584e-05
5.91936e-05
5.61111e-05
5.29066e-05
4.94582e-05
4.56347e-05
4.14733e-05
3.71004e-05
3.27373e-05
2.86705e-05
2.4995e-05
2.16318e-05
1.85653e-05
1.58093e-05
1.33767e-05
1.12678e-05
9.47008e-06
7.95342e-06
6.68625e-06
5.63958e-06
4.7837e-06
4.0875e-06
3.52017e-06
3.05446e-06
2.66752e-06
2.34001e-06
2.05587e-06
1.80316e-06
1.57442e-06
1.36592e-06
1.17614e-06
1.00454e-06
8.50775e-07
7.14309e-07
5.94406e-07
4.9014e-07
4.00438e-07
3.24121e-07
2.59917e-07
2.06492e-07
1.62488e-07
1.2661e-07
9.76686e-08
7.45712e-08
5.63329e-08
4.20814e-08
3.10612e-08
2.26379e-08
1.62838e-08
1.15597e-08
8.09969e-09
5.60087e-09
3.82131e-09
2.57189e-09
1.70732e-09
1.11774e-09
7.21612e-10
4.59366e-10
2.88336e-10
1.78432e-10
1.08879e-10
6.5489e-11
3.88562e-11
2.26999e-11
1.31031e-11
7.41559e-12
4.1716e-12
2.26386e-12
1.28225e-12
5.54837e-13
3.2761e-12
2.95139e-12
9.41982e-11
1.75493e-08
5.23711e-08
0.000621864
0.001728
0.00142038
0.000798888
0.00056873
0.000537539
0.000548872
0.000597
0.000678299
0.000818573
0.00114189
0.00139981
0.00160911
0.00179121
0.00187723
0.00193269
0.0019843
0.0019812
0.0019613
0.00190791
0.00184357
0.00170853
0.00157447
0.00143206
0.00128067
0.0010889
0.000920388
0.000791178
0.000703206
0.000652163
0.000657987
0.000675436
0.000728077
0.000748751
0.000784558
0.00102691
0.00190919
0.00632554
0.00967174
0.00981863
0.010904
0.00683086
0.00283754
0.00110592
0.000424486
0.000284342
0.000255346
0.000245829
0.000239467
0.000229335
0.000218375
0.00020967
0.000201924
0.000200131
0.000199787
0.000200963
0.000204739
0.000210495
0.000216552
0.000223119
0.000228151
0.000232156
0.000236549
0.000239747
0.000241293
0.000242437
0.000243399
0.000244493
0.000245818
0.000246589
0.000246936
0.000247124
0.000247293
0.000247772
0.000249095
0.000251896
0.000256305
0.000261414
0.000266452
0.000271103
0.000275293
0.000278344
0.000279397
0.000279541
0.000278831
0.000276427
0.000272962
0.000269295
0.000264033
0.000257664
0.000249545
0.000239779
0.000228062
0.000214019
0.000198806
0.000182145
0.0001656
0.000149553
0.000135394
0.000123705
0.000113581
0.000104628
9.68081e-05
9.00645e-05
8.4332e-05
7.95276e-05
7.54598e-05
7.18992e-05
6.86435e-05
6.55553e-05
6.25968e-05
5.97282e-05
5.68215e-05
5.36949e-05
5.02485e-05
4.65137e-05
4.25863e-05
3.84578e-05
3.41478e-05
2.97805e-05
2.5537e-05
2.15974e-05
1.80825e-05
1.49756e-05
1.22561e-05
9.94095e-06
8.03406e-06
6.5108e-06
5.32334e-06
4.41159e-06
3.71461e-06
3.17834e-06
2.75883e-06
2.42233e-06
2.14424e-06
1.90733e-06
1.69984e-06
1.51376e-06
1.3439e-06
1.18711e-06
1.04161e-06
9.06568e-07
7.81823e-07
6.67646e-07
5.64315e-07
4.72027e-07
3.90696e-07
3.19929e-07
2.59117e-07
2.07504e-07
1.64239e-07
1.28432e-07
9.91796e-08
7.55969e-08
5.68443e-08
4.21453e-08
3.0797e-08
2.21724e-08
1.57225e-08
1.09783e-08
7.54679e-09
5.10691e-09
3.40142e-09
2.22961e-09
1.43798e-09
9.12651e-10
5.69772e-10
3.50405e-10
2.11649e-10
1.26437e-10
7.35418e-11
4.28674e-11
2.386e-11
1.38348e-11
6.17424e-12
6.01375e-12
3.60267e-11
3.59492e-11
1.03229e-09
3.72553e-09
0.000330065
0.00271357
0.00175079
0.000813691
0.000514034
0.000489032
0.000515146
0.000610862
0.000849552
0.0012404
0.00176958
0.00197832
0.00217896
0.00240231
0.00251031
0.00259987
0.00269143
0.00272184
0.00271115
0.00267363
0.00258517
0.00245272
0.00225421
0.00205708
0.0019204
0.00172697
0.00150563
0.00129538
0.00111425
0.000899971
0.000743413
0.000690898
0.000687757
0.000707786
0.00100056
0.00383293
0.00770412
0.00808799
0.00829691
0.00561826
0.00286754
0.00147059
0.000662497
0.00037655
0.000297437
0.000286369
0.00029012
0.000325564
0.000354764
0.000368276
0.000373927
0.00037493
0.00036603
0.00034944
0.000344864
0.000343435
0.000342808
0.000343039
0.000342463
0.000338833
0.00033491
0.000332948
0.000330825
0.000328751
0.00032633
0.00032475
0.000324613
0.00032487
0.000325486
0.000326521
0.000328232
0.000330866
0.000334352
0.000338372
0.000342742
0.000347508
0.000350427
0.000351037
0.000350715
0.000349122
0.00034616
0.000341823
0.000336382
0.000330579
0.000324775
0.000319451
0.000315054
0.000311579
0.000308387
0.000304896
0.000301221
0.000297915
0.00029432
0.000289861
0.000284092
0.000274839
0.000262509
0.000246557
0.000227144
0.000205135
0.000183352
0.000162879
0.000144053
0.000127003
0.000111755
9.89489e-05
8.93953e-05
8.22393e-05
7.7049e-05
7.3188e-05
7.00907e-05
6.74048e-05
6.50255e-05
6.29055e-05
6.09286e-05
5.90347e-05
5.71771e-05
5.52105e-05
5.28877e-05
5.00027e-05
4.65179e-05
4.24809e-05
3.79079e-05
3.2878e-05
2.7568e-05
2.22833e-05
1.74119e-05
1.32447e-05
9.88316e-06
7.33549e-06
5.49849e-06
4.20525e-06
3.2968e-06
2.6532e-06
2.19118e-06
1.8534e-06
1.60002e-06
1.40336e-06
1.24436e-06
1.11024e-06
9.92896e-07
8.87414e-07
7.90708e-07
7.00747e-07
6.16449e-07
5.37309e-07
4.63417e-07
3.95216e-07
3.33167e-07
2.77573e-07
2.28522e-07
1.85889e-07
1.49369e-07
1.18523e-07
9.28302e-08
7.17381e-08
5.4685e-08
4.11031e-08
3.04476e-08
2.22164e-08
1.59588e-08
1.12803e-08
7.84243e-09
5.36133e-09
3.60326e-09
2.38081e-09
1.54651e-09
9.87611e-10
6.19889e-10
3.82457e-10
2.31912e-10
1.38014e-10
8.10864e-11
4.58813e-11
2.72046e-11
1.25216e-11
1.06909e-11
7.4918e-12
3.92272e-11
2.0548e-10
0.000763071
0.00207898
0.00111064
0.000555226
0.000464717
0.000481619
0.000596711
0.00092913
0.00138795
0.00174776
0.00202977
0.00216211
0.00236812
0.00263689
0.00273947
0.002979
0.00314782
0.00335296
0.00349873
0.0034945
0.00345079
0.00333765
0.00308737
0.00273234
0.00243481
0.00211621
0.00176158
0.00153032
0.00136078
0.00113457
0.000957033
0.000771075
0.000732005
0.00108338
0.00475801
0.00684545
0.00725016
0.0062071
0.00358738
0.00169454
0.000859939
0.000502381
0.000360201
0.000325747
0.000323483
0.000376966
0.000466411
0.000505686
0.000520965
0.000524734
0.000523337
0.000505943
0.000481882
0.000464387
0.000448231
0.000429416
0.000411798
0.000396024
0.000380456
0.00036826
0.000360706
0.000356142
0.000352981
0.000350837
0.000348452
0.00034664
0.000346416
0.000346495
0.000346972
0.00034813
0.000350429
0.000354344
0.000359456
0.000365035
0.000368918
0.000369711
0.000368962
0.000366023
0.000361753
0.000356927
0.000350759
0.000343001
0.000333286
0.000322008
0.000310375
0.000299895
0.000291844
0.000287524
0.000285627
0.000284892
0.000284749
0.000285632
0.000287838
0.000289897
0.000291156
0.000288391
0.000283231
0.000274923
0.00026382
0.000249248
0.000231784
0.000212762
0.00019335
0.000174692
0.000156911
0.000139063
0.000120571
0.000103523
9.02529e-05
8.15168e-05
7.55429e-05
7.13176e-05
6.81809e-05
6.57254e-05
6.36641e-05
6.18066e-05
6.01036e-05
5.85964e-05
5.72332e-05
5.57321e-05
5.37488e-05
5.12163e-05
4.84066e-05
4.55585e-05
4.25783e-05
3.91033e-05
3.47466e-05
2.95559e-05
2.41033e-05
1.90185e-05
1.46582e-05
1.10985e-05
8.30421e-06
6.17599e-06
4.59151e-06
3.43288e-06
2.59836e-06
2.00461e-06
1.58544e-06
1.28949e-06
1.07781e-06
9.21854e-07
8.01781e-07
7.04872e-07
6.22473e-07
5.48561e-07
4.79089e-07
4.13323e-07
3.52169e-07
2.96304e-07
2.46187e-07
2.02021e-07
1.63761e-07
1.31158e-07
1.03803e-07
8.11718e-08
6.26827e-08
4.77789e-08
3.59329e-08
2.66526e-08
1.9489e-08
1.40425e-08
9.96588e-09
6.96371e-09
4.78928e-09
3.24074e-09
2.1567e-09
1.41137e-09
9.0811e-10
5.74203e-10
3.56891e-10
2.17635e-10
1.30707e-10
7.64534e-11
4.47996e-11
2.43829e-11
1.4968e-11
6.81333e-12
7.1705e-12
1.37149e-11
0.00100735
0.00102585
0.000675248
0.000475217
0.000475726
0.000559862
0.000879098
0.00134262
0.00160552
0.00188264
0.00207755
0.00230822
0.00278456
0.00332921
0.00367846
0.00455004
0.00526546
0.00597309
0.00681636
0.0068117
0.00658064
0.0059925
0.00505501
0.00412769
0.00343866
0.00290027
0.00240108
0.00194444
0.00152709
0.0013976
0.00115406
0.000837011
0.0010493
0.00425316
0.00605512
0.00624266
0.00467717
0.00234552
0.00122212
0.000649225
0.000427843
0.000357775
0.000343686
0.000355206
0.000436319
0.000540221
0.000580729
0.000596566
0.000600212
0.000594514
0.000568888
0.000538156
0.000518759
0.000507816
0.000494692
0.000481527
0.000469319
0.000458074
0.000447931
0.000438011
0.000428464
0.000414064
0.000398595
0.000387633
0.000382921
0.000380296
0.000377312
0.000374876
0.00037422
0.000374205
0.00037544
0.000380498
0.000384074
0.000384439
0.000383117
0.000379104
0.000373677
0.000366288
0.000357241
0.000345196
0.000329996
0.000313504
0.000297793
0.000284415
0.00027319
0.00026391
0.000256691
0.000251958
0.000249398
0.000248039
0.000247503
0.000247031
0.00024649
0.0002463
0.000250246
0.000257492
0.000264485
0.000269081
0.000264971
0.000255036
0.000240985
0.000224289
0.000206493
0.000188352
0.000171273
0.000156168
0.000142854
0.00012963
0.000114571
9.86571e-05
8.63253e-05
7.81675e-05
7.25206e-05
6.84804e-05
6.5517e-05
6.32404e-05
6.13365e-05
5.965e-05
5.82033e-05
5.70349e-05
5.59634e-05
5.45533e-05
5.24311e-05
4.97432e-05
4.70288e-05
4.45982e-05
4.24402e-05
4.01234e-05
3.69849e-05
3.26531e-05
2.74553e-05
2.21327e-05
1.72941e-05
1.31968e-05
9.87901e-06
7.27439e-06
5.27755e-06
3.78394e-06
2.69665e-06
1.92653e-06
1.39485e-06
1.03553e-06
7.95751e-07
6.34904e-07
5.24286e-07
4.45356e-07
3.8721e-07
3.41319e-07
3.00967e-07
2.62298e-07
2.24944e-07
1.89771e-07
1.57501e-07
1.28632e-07
1.03413e-07
8.18721e-08
6.38619e-08
4.90924e-08
3.71967e-08
2.77779e-08
2.04429e-08
1.48229e-08
1.05865e-08
7.44475e-09
5.1532e-09
3.50962e-09
2.35101e-09
1.548e-09
1.00172e-09
6.36337e-10
3.97363e-10
2.42862e-10
1.46576e-10
8.55482e-11
5.05969e-11
2.70248e-11
1.73614e-11
8.00052e-12
7.1478e-12
6.12361e-12
0.000708335
0.000780923
0.00057155
0.000471391
0.00051421
0.000693811
0.0011776
0.00148407
0.00167897
0.00200199
0.00251336
0.00341148
0.00430054
0.0049954
0.00586031
0.00795638
0.00988366
0.0117067
0.0136568
0.0139614
0.0136337
0.0126094
0.0100693
0.00689179
0.00476266
0.0034456
0.00263499
0.00209353
0.00185326
0.00156172
0.00111863
0.00104551
0.00349106
0.00537871
0.00560079
0.00392968
0.00185384
0.00094992
0.0005577
0.000400741
0.000355526
0.000349423
0.000364694
0.000435243
0.000534711
0.00059177
0.000611303
0.000615703
0.000611945
0.000596984
0.000574246
0.000560834
0.000557321
0.000560124
0.000571192
0.000579748
0.000585943
0.000591742
0.000596123
0.000598297
0.000599335
0.000597986
0.000579971
0.000543694
0.000513363
0.000494217
0.0004818
0.000457615
0.000441194
0.000432799
0.000421418
0.000415948
0.000406775
0.000399324
0.000391922
0.000381095
0.000373521
0.000360115
0.000343506
0.000327139
0.000312098
0.000299012
0.000288799
0.000280051
0.000273287
0.000268963
0.000266726
0.00026586
0.000265396
0.00026397
0.000261032
0.000255783
0.000248282
0.000240178
0.000233097
0.000227506
0.000224532
0.00022442
0.000229506
0.000233838
0.000233447
0.000223245
0.000208188
0.000191236
0.000174003
0.000158219
0.000145093
0.000134702
0.000124961
0.000114571
0.000101876
8.9005e-05
7.95383e-05
7.29838e-05
6.82658e-05
6.48465e-05
6.23297e-05
6.03368e-05
5.8625e-05
5.71838e-05
5.61033e-05
5.52812e-05
5.43438e-05
5.27509e-05
5.02226e-05
4.72276e-05
4.44763e-05
4.2324e-05
4.07137e-05
3.91743e-05
3.69722e-05
3.35694e-05
2.90244e-05
2.39553e-05
1.90563e-05
1.47305e-05
1.11008e-05
8.15972e-06
5.84677e-06
4.08824e-06
2.79974e-06
1.89022e-06
1.27108e-06
8.63777e-07
6.03696e-07
4.40882e-07
3.38664e-07
2.72585e-07
2.28059e-07
1.96999e-07
1.72911e-07
1.51135e-07
1.29924e-07
1.09596e-07
9.06721e-08
7.35896e-08
5.86201e-08
4.58585e-08
3.52513e-08
2.66382e-08
1.97947e-08
1.44675e-08
1.04008e-08
7.35452e-09
5.11451e-09
3.49718e-09
2.35074e-09
1.55272e-09
1.00762e-09
6.42007e-10
4.01603e-10
2.46427e-10
1.48455e-10
8.75267e-11
5.07876e-11
2.86181e-11
1.61118e-11
8.76661e-12
4.61793e-12
2.79581e-12
0.000786653
0.000911179
0.000563693
0.000504097
0.000572067
0.000851578
0.00132097
0.00154873
0.00193796
0.00275583
0.00389341
0.00466834
0.00529689
0.00633966
0.00867984
0.0126549
0.0158848
0.018138
0.0199233
0.0200976
0.0197724
0.018842
0.0170364
0.0129687
0.00805905
0.00478707
0.00313222
0.00236987
0.00193949
0.0014911
0.00118612
0.0026636
0.00474684
0.00508205
0.00383236
0.0016738
0.000838791
0.000511985
0.000392654
0.000358255
0.000353102
0.000367194
0.000426721
0.000501204
0.000559685
0.00060133
0.000615505
0.000617178
0.000615681
0.000611725
0.000610122
0.000625714
0.00065815
0.000703327
0.000766352
0.000831012
0.000891311
0.000943616
0.000979877
0.00100232
0.00101169
0.00101134
0.000998278
0.000922527
0.000828186
0.000765404
0.000728305
0.000651616
0.000579226
0.000543749
0.000493174
0.000467773
0.000436158
0.000414099
0.00040274
0.000383843
0.000374497
0.000358853
0.00034233
0.000327487
0.000314337
0.000307074
0.000306097
0.000306855
0.000310304
0.000315789
0.000321226
0.000326758
0.000332177
0.000336731
0.000339217
0.000337479
0.000329196
0.000313488
0.000290956
0.00026468
0.000237081
0.000215905
0.000203552
0.000194254
0.000187846
0.000187507
0.000188302
0.000184241
0.000172126
0.000157646
0.000142446
0.000129711
0.000122082
0.000116589
0.000109013
9.97319e-05
8.89908e-05
7.9526e-05
7.26566e-05
6.75397e-05
6.3742e-05
6.09848e-05
5.89333e-05
5.7293e-05
5.59272e-05
5.49027e-05
5.42079e-05
5.35661e-05
5.24838e-05
5.04575e-05
4.74942e-05
4.43205e-05
4.16352e-05
3.97533e-05
3.85613e-05
3.75589e-05
3.60287e-05
3.33768e-05
2.94616e-05
2.47193e-05
1.98747e-05
1.54469e-05
1.16293e-05
8.47587e-06
5.97606e-06
4.0801e-06
2.70518e-06
1.75049e-06
1.1145e-06
7.07086e-07
4.55352e-07
3.04487e-07
2.15665e-07
1.62803e-07
1.302e-07
1.09413e-07
9.51168e-08
8.31815e-08
7.16214e-08
6.03527e-08
4.9715e-08
4.00348e-08
3.15368e-08
2.4321e-08
1.83772e-08
1.36151e-08
9.89581e-09
7.05923e-09
4.9438e-09
3.39958e-09
2.29547e-09
1.52184e-09
9.90559e-10
6.32878e-10
3.96822e-10
2.44089e-10
1.47273e-10
8.71045e-11
5.05038e-11
2.86848e-11
1.59476e-11
8.74027e-12
4.6245e-12
2.4387e-12
0.000854974
0.00105276
0.000564509
0.000555335
0.000640386
0.000948809
0.0014164
0.00183435
0.00265431
0.00367867
0.00456285
0.00521407
0.00617891
0.00828827
0.012233
0.016373
0.0195115
0.0216769
0.0232721
0.0237059
0.0233961
0.0219474
0.018423
0.0130418
0.00797269
0.00468645
0.0030625
0.00233261
0.001826
0.0015077
0.00205584
0.00416838
0.00460753
0.00392145
0.00171452
0.000826674
0.000512612
0.000405126
0.000372198
0.00036313
0.000376175
0.000431425
0.000490949
0.000530611
0.000566039
0.000597065
0.000620075
0.000635128
0.000651622
0.000680559
0.000734317
0.000819358
0.000938115
0.00108936
0.00127473
0.00147707
0.00167681
0.00185145
0.00195585
0.00200136
0.00200901
0.00193679
0.00190807
0.00177147
0.00150205
0.00125504
0.00114808
0.0010115
0.000805623
0.000708507
0.000637749
0.00055017
0.000508572
0.000457699
0.000432696
0.000400653
0.000383175
0.000366112
0.000352373
0.000341151
0.000332948
0.000327325
0.000322172
0.000320053
0.000321693
0.000325513
0.000329229
0.000333487
0.000338494
0.000344281
0.0003498
0.000352892
0.00035251
0.000348017
0.000339866
0.000328481
0.000314118
0.000288802
0.000249099
0.000205546
0.000176461
0.000155712
0.000141227
0.000137617
0.000143704
0.000147533
0.000141434
0.000127383
0.000114227
0.000106301
0.000104658
0.000101709
9.45478e-05
8.63644e-05
7.81323e-05
7.14742e-05
6.62569e-05
6.21715e-05
5.91673e-05
5.70534e-05
5.5545e-05
5.43565e-05
5.34553e-05
5.28733e-05
5.23977e-05
5.1583e-05
4.99609e-05
4.73212e-05
4.41198e-05
4.10983e-05
3.8765e-05
3.7289e-05
3.64889e-05
3.58806e-05
3.48068e-05
3.26008e-05
2.90577e-05
2.44793e-05
1.96289e-05
1.51317e-05
1.12298e-05
8.02052e-06
5.51517e-06
3.65794e-06
2.347e-06
1.4628e-06
8.91087e-07
5.35806e-07
3.23191e-07
2.00343e-07
1.31331e-07
9.2817e-08
7.07736e-08
5.77548e-08
4.96644e-08
4.34266e-08
3.74394e-08
3.15038e-08
2.58177e-08
2.06043e-08
1.60271e-08
1.21649e-08
9.02017e-09
6.54064e-09
4.64184e-09
3.22634e-09
2.19734e-09
1.46691e-09
9.60111e-10
6.16175e-10
3.87753e-10
2.39253e-10
1.44724e-10
8.58264e-11
4.98671e-11
2.84079e-11
1.58349e-11
8.66552e-12
4.63312e-12
2.43065e-12
0.00092758
0.0012668
0.000624543
0.000632758
0.000680153
0.0010299
0.00163027
0.00224745
0.00312329
0.00413094
0.00498578
0.00577949
0.00695847
0.00932703
0.0136045
0.0177674
0.0208907
0.0231797
0.0238538
0.0235774
0.0227893
0.0207743
0.0169194
0.0116617
0.00700002
0.00414606
0.00275508
0.00209266
0.00182645
0.00195402
0.0036715
0.00417543
0.00394937
0.00186317
0.000889382
0.000546433
0.000436923
0.000402858
0.000390098
0.000410383
0.000454461
0.000489833
0.000516732
0.000542313
0.000570123
0.00060292
0.000644086
0.000694914
0.000763005
0.000872109
0.00104814
0.0012953
0.00162265
0.00203828
0.00254738
0.00313455
0.00374249
0.00430117
0.00470891
0.00489531
0.00493407
0.00453815
0.00422463
0.00392993
0.00341304
0.00265677
0.00226031
0.00197344
0.00148343
0.0011674
0.0009484
0.000741475
0.000595241
0.000516466
0.000461465
0.000426571
0.000402185
0.000384436
0.000371204
0.000360161
0.000348937
0.00033564
0.000323379
0.000310796
0.000297045
0.000285266
0.000275133
0.000266836
0.000260997
0.000258497
0.000259897
0.000265079
0.000272282
0.000280893
0.000292032
0.000305724
0.000316322
0.000321787
0.000319127
0.000302063
0.00025078
0.000185251
0.000139704
0.000114326
0.000102673
0.000103684
0.000117305
0.000122201
0.000115272
0.000101465
9.26858e-05
9.12078e-05
9.1501e-05
8.92042e-05
8.23339e-05
7.56345e-05
6.96837e-05
6.46475e-05
6.03807e-05
5.7057e-05
5.47199e-05
5.32614e-05
5.23555e-05
5.17313e-05
5.13569e-05
5.10016e-05
5.03102e-05
4.88495e-05
4.64383e-05
4.33976e-05
4.03656e-05
3.78667e-05
3.61323e-05
3.51045e-05
3.45379e-05
3.40625e-05
3.32383e-05
3.14267e-05
2.78104e-05
2.31058e-05
1.81956e-05
1.37137e-05
9.90302e-06
6.85841e-06
4.5642e-06
2.92645e-06
1.81322e-06
1.08942e-06
6.37765e-07
3.66677e-07
2.09908e-07
1.22369e-07
7.49799e-08
4.97876e-08
3.62701e-08
2.88979e-08
2.47382e-08
2.17202e-08
1.87753e-08
1.57623e-08
1.28219e-08
1.01111e-08
7.74162e-09
5.76529e-09
4.18284e-09
2.96057e-09
2.04651e-09
1.38284e-09
9.14006e-10
5.91252e-10
3.74467e-10
2.32269e-10
1.41115e-10
8.39889e-11
4.89658e-11
2.79698e-11
1.56468e-11
8.57726e-12
4.60507e-12
2.4259e-12
0.000981306
0.00146815
0.000750797
0.000721948
0.00069925
0.00112266
0.00179002
0.00250724
0.00352307
0.00447479
0.00515735
0.00595962
0.00719548
0.00941794
0.0126778
0.0161003
0.018477
0.0202346
0.0209621
0.0206965
0.0192662
0.0162957
0.012063
0.00765027
0.00451888
0.00295554
0.00229377
0.00208482
0.00212079
0.00329667
0.00383427
0.00382187
0.00217496
0.00100245
0.000609739
0.000482425
0.000444969
0.000435072
0.000466649
0.000494567
0.000508417
0.000516998
0.000534458
0.000556016
0.000588282
0.000638542
0.000716072
0.00083271
0.00100764
0.001284
0.00171292
0.00231427
0.00310527
0.00417621
0.0054835
0.00699755
0.00855134
0.00987681
0.0105886
0.0108768
0.0108301
0.010095
0.00875255
0.00760687
0.00660233
0.00536004
0.00433849
0.0037394
0.00300324
0.00248303
0.00199297
0.00155539
0.00112969
0.000791929
0.000600365
0.000491892
0.000434267
0.000404869
0.000388624
0.000378908
0.000369666
0.000355988
0.000336058
0.000312577
0.000288159
0.000265328
0.000245203
0.000227232
0.000210221
0.000193726
0.000177259
0.00016048
0.000144327
0.000131733
0.000126565
0.000133497
0.000166361
0.000225503
0.000291777
0.000322549
0.000323905
0.000300938
0.000225751
0.000143306
0.000101773
8.65708e-05
8.42618e-05
9.34984e-05
0.000103858
0.000101912
9.08694e-05
8.27329e-05
8.08912e-05
8.15706e-05
8.14073e-05
7.82026e-05
7.24559e-05
6.7212e-05
6.25161e-05
5.83042e-05
5.48016e-05
5.22371e-05
5.06698e-05
4.99807e-05
4.97188e-05
4.95668e-05
4.93257e-05
4.87968e-05
4.75004e-05
4.51309e-05
4.21818e-05
3.92042e-05
3.66728e-05
3.48437e-05
3.37138e-05
3.31061e-05
3.27465e-05
3.23141e-05
3.14618e-05
2.95387e-05
2.54941e-05
2.05188e-05
1.56484e-05
1.13856e-05
7.91991e-06
5.28008e-06
3.38388e-06
2.09094e-06
1.24933e-06
7.2406e-07
4.0861e-07
2.25798e-07
1.23425e-07
6.80959e-08
3.92886e-08
2.47128e-08
1.73335e-08
1.35828e-08
1.16606e-08
1.0339e-08
8.98543e-09
7.52186e-09
6.05909e-09