/*--------------------------------*- C++ -*----------------------------------*\
  =========                 |
  \\      /  F ield         | OpenFOAM: The Open Source CFD Toolbox
   \\    /   O peration     | Website:  https://openfoam.org
    \\  /    A nd           | Version:  7
     \\/     M anipulation  |
\*---------------------------------------------------------------------------*/
FoamFile
{
    version     2.0;
    format      ascii;
    class       volScalarField;
    location    "0.057";
    object      k_0;
}
// * * * * * * * * * * * * * * * * * * * * * * * * * * * * * * * * * * * * * //

dimensions      [0 2 -2 0 0 0 0];

internalField   nonuniform List<scalar> 
12225
(
1.93213e-05
1.81364e-05
1.67391e-05
1.53911e-05
1.40505e-05
1.24096e-05
1.128e-05
9.85141e-06
8.81143e-06
1.1849e-05
9.88579e-06
5.49738e-06
4.7116e-06
5.03959e-06
5.70953e-06
5.55879e-06
4.22413e-06
5.01144e-06
1.99793e-05
1.98816e-05
1.96769e-05
1.93861e-05
1.91392e-05
1.85918e-05
1.82853e-05
1.76816e-05
1.73126e-05
1.84576e-05
1.84564e-05
1.75928e-05
1.63897e-05
1.53435e-05
1.44717e-05
1.39266e-05
1.36934e-05
1.32779e-05
2.00005e-05
1.92616e-05
1.90349e-05
1.90138e-05
1.89764e-05
1.89528e-05
1.89384e-05
1.89077e-05
1.87884e-05
1.87761e-05
1.87358e-05
1.86457e-05
1.85349e-05
1.84274e-05
1.82798e-05
1.80145e-05
1.77658e-05
1.74231e-05
2.02852e-05
2.00903e-05
1.92933e-05
1.651e-05
1.59856e-05
1.62135e-05
1.65848e-05
1.67936e-05
1.68682e-05
1.69023e-05
1.69291e-05
1.69987e-05
1.72808e-05
1.76886e-05
1.78894e-05
1.79263e-05
1.79278e-05
1.78638e-05
2.01034e-05
2.48471e-05
2.73591e-05
2.48392e-05
2.1224e-05
1.96055e-05
1.79095e-05
1.44052e-05
1.30473e-05
1.32283e-05
1.43099e-05
1.58137e-05
1.67971e-05
1.7406e-05
1.77267e-05
1.78477e-05
1.78667e-05
1.78193e-05
2.03945e-05
2.12238e-05
2.48553e-05
2.54061e-05
2.43007e-05
2.33069e-05
2.22313e-05
2.04775e-05
1.93868e-05
1.90957e-05
1.91089e-05
1.91951e-05
1.93996e-05
1.99048e-05
2.02434e-05
2.0351e-05
2.03522e-05
2.0277e-05
2.03783e-05
2.5933e-05
2.96972e-05
2.73323e-05
2.41789e-05
2.358e-05
2.34317e-05
2.30802e-05
2.21915e-05
2.15987e-05
2.13122e-05
2.11737e-05
2.11175e-05
2.11232e-05
2.12839e-05
2.1917e-05
2.27817e-05
2.3242e-05
2.43289e-05
2.57922e-05
2.51054e-05
2.31865e-05
2.2649e-05
2.29111e-05
2.37022e-05
2.41318e-05
2.4112e-05
2.39673e-05
2.39496e-05
2.39163e-05
2.37802e-05
2.3247e-05
2.26389e-05
2.25081e-05
2.25623e-05
2.27887e-05
2.13221e-05
2.24441e-05
2.3959e-05
2.37098e-05
2.35402e-05
2.38235e-05
2.46415e-05
2.54949e-05
2.67627e-05
2.79023e-05
2.83073e-05
2.82453e-05
2.75558e-05
2.53381e-05
2.33289e-05
2.20254e-05
2.12966e-05
2.1143e-05
2.05261e-05
2.21288e-05
2.23827e-05
2.21027e-05
2.19456e-05
2.20461e-05
2.255e-05
2.404e-05
2.60379e-05
2.73096e-05
2.76313e-05
2.75848e-05
2.71167e-05
2.53018e-05
2.33608e-05
2.21538e-05
2.1493e-05
2.11936e-05
2.1145e-05
2.05506e-05
2.05761e-05
2.09672e-05
2.16491e-05
2.198e-05
2.21383e-05
2.22765e-05
2.2697e-05
2.37337e-05
2.42418e-05
2.42875e-05
2.4146e-05
2.35766e-05
2.31409e-05
2.29936e-05
2.29722e-05
2.29458e-05
2.029e-05
2.12527e-05
2.14779e-05
2.13411e-05
2.13746e-05
2.13696e-05
2.11365e-05
2.07483e-05
2.06951e-05
2.07579e-05
2.10734e-05
2.22212e-05
2.33133e-05
2.37539e-05
2.38938e-05
2.39084e-05
2.38811e-05
2.37474e-05
2.01664e-05
2.14075e-05
2.27586e-05
2.25702e-05
2.21727e-05
2.18028e-05
2.12486e-05
2.08524e-05
2.07284e-05
2.07348e-05
2.08616e-05
2.15101e-05
2.32215e-05
2.42598e-05
2.4591e-05
2.46601e-05
2.46545e-05
2.45433e-05
2.0366e-05
2.06827e-05
2.07573e-05
2.09127e-05
2.22477e-05
2.44918e-05
2.50568e-05
2.49818e-05
2.41032e-05
2.26665e-05
2.20987e-05
2.20264e-05
2.21117e-05
2.24631e-05
2.28028e-05
2.29727e-05
2.30183e-05
2.30252e-05
2.0314e-05
2.01844e-05
2.02283e-05
2.08285e-05
2.26971e-05
2.36337e-05
2.3718e-05
2.35912e-05
2.34507e-05
2.32858e-05
2.29692e-05
2.25641e-05
2.23336e-05
2.22821e-05
2.22847e-05
2.23071e-05
2.24127e-05
2.27373e-05
2.11865e-05
2.07545e-05
2.09612e-05
2.12639e-05
2.15795e-05
2.22252e-05
2.25979e-05
2.26207e-05
2.24762e-05
2.19015e-05
2.13835e-05
2.11867e-05
2.11172e-05
2.10952e-05
2.10978e-05
2.11434e-05
2.13608e-05
2.19811e-05
2.00856e-05
2.04674e-05
2.07498e-05
2.08626e-05
2.08764e-05
2.08357e-05
2.07432e-05
2.06333e-05
2.05324e-05
2.04976e-05
2.05122e-05
2.05225e-05
2.05123e-05
2.05088e-05
2.05468e-05
2.0735e-05
2.08769e-05
2.10154e-05
2.02416e-05
2.07265e-05
2.08863e-05
2.09094e-05
2.07555e-05
2.05241e-05
2.04628e-05
2.03793e-05
2.02844e-05
2.02525e-05
2.0269e-05
2.03776e-05
2.06174e-05
2.0757e-05
2.08024e-05
2.08055e-05
2.08003e-05
2.07919e-05
2.02297e-05
2.11633e-05
2.14165e-05
2.12025e-05
2.07703e-05
2.05997e-05
2.05596e-05
2.05417e-05
2.05051e-05
2.03988e-05
2.03022e-05
2.02633e-05
2.02576e-05
2.02614e-05
2.02822e-05
2.03582e-05
2.05744e-05
2.07792e-05
2.07052e-05
2.09711e-05
2.18248e-05
2.22397e-05
2.20107e-05
2.13408e-05
2.09821e-05
2.08403e-05
2.08033e-05
2.07869e-05
2.07522e-05
2.06405e-05
2.04353e-05
2.03038e-05
2.02409e-05
2.02213e-05
2.02209e-05
2.02321e-05
2.05162e-05
2.03764e-05
2.04828e-05
2.08655e-05
2.10828e-05
2.10523e-05
2.08656e-05
2.07043e-05
2.06582e-05
2.06161e-05
2.05146e-05
2.03752e-05
2.02838e-05
2.02434e-05
2.02281e-05
2.02247e-05
2.02253e-05
2.02325e-05
2.0023e-05
2.00473e-05
2.0147e-05
2.05478e-05
2.08939e-05
2.10652e-05
2.13651e-05
2.16189e-05
2.16624e-05
2.16208e-05
2.14434e-05
2.09625e-05
2.05018e-05
2.02214e-05
2.00823e-05
2.00253e-05
2.0011e-05
2.0011e-05
2.00484e-05
2.04132e-05
2.06065e-05
2.07555e-05
2.08628e-05
2.09014e-05
2.09677e-05
2.11385e-05
2.11628e-05
2.10385e-05
2.06998e-05
2.04978e-05
2.0382e-05
2.03126e-05
2.02707e-05
2.02312e-05
2.01843e-05
2.01442e-05
2.01525e-05
2.04222e-05
2.04097e-05
2.04442e-05
2.06116e-05
2.06976e-05
2.06916e-05
2.06424e-05
2.06429e-05
2.07464e-05
2.12455e-05
2.22916e-05
2.28596e-05
2.299e-05
2.29669e-05
2.28053e-05
2.21813e-05
2.13822e-05
2.01691e-05
2.02542e-05
2.0235e-05
2.02653e-05
2.03973e-05
2.04565e-05
2.04518e-05
2.04192e-05
2.04216e-05
2.05084e-05
2.10515e-05
2.24454e-05
2.31139e-05
2.31977e-05
2.30615e-05
2.23534e-05
2.14494e-05
2.09942e-05
2.02293e-05
2.04355e-05
2.0583e-05
2.07814e-05
2.08479e-05
2.08289e-05
2.06426e-05
2.03523e-05
2.02671e-05
2.02826e-05
2.04722e-05
2.14205e-05
2.29102e-05
2.35131e-05
2.35517e-05
2.33051e-05
2.22759e-05
2.13347e-05
2.0053e-05
2.01193e-05
2.01185e-05
2.01121e-05
2.01017e-05
2.00719e-05
1.994e-05
1.97248e-05
1.96844e-05
1.9739e-05
2.00173e-05
2.03951e-05
2.04919e-05
2.04242e-05
1.99919e-05
1.84304e-05
1.70928e-05
1.65881e-05
2.02244e-05
1.70413e-05
1.46901e-05
1.58782e-05
1.94894e-05
2.30679e-05
2.55575e-05
2.87504e-05
3.52937e-05
4.80715e-05
6.10439e-05
7.16015e-05
7.94219e-05
8.49051e-05
8.87319e-05
9.0965e-05
9.26135e-05
9.27769e-05
3.18601e-05
7.81357e-05
0.000134147
0.000220978
0.000291138
0.000324949
0.000347838
0.00038938
0.000492694
0.000624794
0.000705069
0.000730334
0.000731692
0.000728933
0.000719708
0.000711833
0.000705097
0.000698785
0.00258675
0.00247606
0.00223633
0.0021448
0.00212975
0.00213527
0.00217315
0.00224836
0.00229214
0.00230293
0.0022951
0.0022379
0.00206665
0.00191223
0.00179765
0.0016982
0.00158951
0.00148017
8.2279e-05
0.00031538
0.000517863
0.000660189
0.000906822
0.00101257
0.000977075
0.000802038
0.000685968
0.000615991
0.00057461
0.000553037
0.000539426
0.000523872
0.000505341
0.000492889
0.000484372
0.000470747
0.000459314
0.000425012
0.000419919
0.000428706
0.000451614
0.000503795
0.000552037
0.000606974
0.00060304
0.000564109
0.000517544
0.000570049
0.00095301
0.00194688
0.00243392
0.00266876
0.00302715
0.00405483
0.00754773
0.0120242
0.0123193
0.011334
0.0112714
0.0149572
0.0382482
0.0394039
0.00860443
0.00145201
0.000589333
0.000487532
0.000499719
0.000528379
0.000530881
0.000494421
0.000436854
0.000354927
0.000288956
0.000230404
0.000181378
0.000129399
0.000104322
7.83551e-05
6.66829e-05
6.08014e-05
5.90554e-05
5.90703e-05
5.88181e-05
5.85436e-05
5.83717e-05
5.79273e-05
5.75589e-05
5.72139e-05
5.67241e-05
5.61733e-05
5.55412e-05
5.48755e-05
5.43174e-05
5.41033e-05
5.40806e-05
5.41188e-05
5.41832e-05
5.42066e-05
5.40487e-05
5.36103e-05
5.30968e-05
5.28007e-05
5.26654e-05
5.24116e-05
5.17186e-05
5.04909e-05
4.89953e-05
4.76902e-05
4.66778e-05
4.55055e-05
4.36713e-05
4.16765e-05
4.04546e-05
3.89119e-05
3.70781e-05
3.56582e-05
3.40464e-05
3.25023e-05
3.0918e-05
2.93072e-05
2.76472e-05
2.59279e-05
2.40916e-05
2.21117e-05
2.00227e-05
1.78731e-05
1.573e-05
1.36786e-05
1.18058e-05
1.01112e-05
8.57431e-06
7.2118e-06
6.02686e-06
5.00644e-06
4.13502e-06
3.39887e-06
2.78196e-06
2.26955e-06
1.84735e-06
1.49915e-06
1.215e-06
9.84121e-07
7.96995e-07
6.46081e-07
5.24961e-07
4.28004e-07
3.50318e-07
2.87741e-07
2.36894e-07
1.95175e-07
1.6066e-07
1.31946e-07
1.07994e-07
8.80047e-08
7.13458e-08
5.75017e-08
4.60449e-08
3.66147e-08
2.89023e-08
2.26398e-08
1.75938e-08
1.35606e-08
1.03634e-08
7.85038e-09
5.89233e-09
4.38046e-09
3.22394e-09
2.34779e-09
1.69083e-09
1.20367e-09
8.46723e-10
5.88498e-10
4.04109e-10
2.74137e-10
1.83689e-10
1.21556e-10
7.94282e-11
5.1242e-11
3.26349e-11
2.05172e-11
1.27318e-11
7.79825e-12
4.71393e-12
2.81253e-12
1.65561e-12
9.62122e-13
5.50873e-13
3.11925e-13
1.73107e-13
9.56092e-14
5.11045e-14
2.81438e-14
1.21526e-14
3.41449e-14
3.26673e-13
1.60386e-10
8.46249e-08
3.52969e-07
0.000278393
0.000548199
0.00071722
0.000656808
0.000676967
0.000752805
0.000792621
0.0007856
0.000752103
0.000737105
0.00075338
0.000797812
0.000887156
0.00095755
0.000980688
0.000995402
0.00103415
0.00104501
0.00103905
0.00102082
0.000980846
0.000913404
0.000830457
0.000769881
0.000723218
0.000683794
0.000661419
0.000617348
0.000579292
0.000592344
0.000660678
0.000834815
0.00120111
0.00150864
0.00151412
0.00147102
0.00172503
0.00287673
0.00343362
0.00653664
0.0147292
0.0174302
0.0174943
0.00771242
0.00177868
0.000568109
0.000348189
0.000295927
0.000275554
0.000248501
0.000221561
0.000205654
0.000185758
0.000175939
0.000169839
0.000164945
0.000160807
0.000156452
0.000155419
0.00015526
0.000155522
0.000155949
0.000156243
0.000156606
0.000156876
0.000156892
0.000156104
0.000154871
0.000153976
0.000153455
0.000153127
0.000152503
0.000150873
0.000148743
0.000148213
0.000148257
0.000148702
0.000149558
0.000150499
0.000151069
0.000151333
0.000151434
0.000151484
0.000151943
0.000152182
0.000151234
0.000148716
0.000145196
0.000140781
0.000136147
0.000131253
0.000126094
0.000119798
0.000113257
0.000108312
0.000101935
9.66619e-05
9.16889e-05
8.71841e-05
8.30705e-05
7.9247e-05
7.56284e-05
7.21163e-05
6.86654e-05
6.5354e-05
6.22072e-05
5.91445e-05
5.60624e-05
5.28566e-05
4.94044e-05
4.5576e-05
4.14115e-05
3.70375e-05
3.26767e-05
2.86152e-05
2.49445e-05
2.15857e-05
1.85237e-05
1.57724e-05
1.33446e-05
1.12404e-05
9.44706e-06
7.93429e-06
6.67055e-06
5.62685e-06
4.77347e-06
4.07929e-06
3.51356e-06
3.04909e-06
2.66308e-06
2.33624e-06
2.05259e-06
1.80023e-06
1.57176e-06
1.36349e-06
1.17393e-06
1.00255e-06
8.48986e-07
7.12721e-07
5.9301e-07
4.88926e-07
3.99393e-07
3.23233e-07
2.59171e-07
2.05872e-07
1.61978e-07
1.26195e-07
9.73342e-08
7.43052e-08
5.61236e-08
4.19184e-08
3.09357e-08
2.25425e-08
1.62123e-08
1.15069e-08
8.06129e-09
5.57333e-09
3.80183e-09
2.55832e-09
1.698e-09
1.11144e-09
7.17418e-10
4.56614e-10
2.86559e-10
1.77302e-10
1.08172e-10
6.50526e-11
3.85911e-11
2.25415e-11
1.30098e-11
7.36162e-12
4.14074e-12
2.24679e-12
1.27232e-12
5.50581e-13
3.29941e-12
2.94378e-12
9.42454e-11
1.75226e-08
5.22975e-08
0.000617084
0.00172512
0.00141449
0.000795274
0.000566693
0.000536067
0.000547567
0.000596057
0.000677475
0.000818913
0.00114274
0.00139889
0.00160817
0.00178958
0.00187486
0.00193153
0.00198342
0.00198031
0.00196033
0.00190676
0.00184205
0.00170625
0.00157275
0.00143071
0.00127928
0.00108756
0.000919314
0.000790383
0.000702664
0.000651846
0.000657747
0.000675295
0.000727976
0.000748748
0.000785146
0.0010304
0.00192295
0.00636709
0.00967866
0.00981112
0.0108683
0.00679088
0.00282116
0.00109867
0.000422966
0.000284237
0.000255376
0.000245917
0.000239679
0.000229708
0.000218753
0.000210161
0.000202195
0.000200344
0.000199989
0.000201106
0.0002048
0.000210472
0.000216515
0.000223087
0.000228158
0.00023214
0.000236505
0.000239736
0.000241283
0.000242399
0.000243324
0.000244377
0.000245682
0.000246465
0.000246809
0.000246989
0.00024714
0.000247584
0.000248846
0.000251562
0.000255911
0.000261
0.000266037
0.000270696
0.000274887
0.000277998
0.000279112
0.000279281
0.000278612
0.000276242
0.000272774
0.000269102
0.000263829
0.000257441
0.000249292
0.000239482
0.00022774
0.000213662
0.000198445
0.000181782
0.000165247
0.000149229
0.000135124
0.000123491
0.000113389
0.000104461
9.66652e-05
8.99455e-05
8.42358e-05
7.9451e-05
7.53969e-05
7.18457e-05
6.85955e-05
6.55116e-05
6.25566e-05
5.96905e-05
5.67826e-05
5.36526e-05
5.02014e-05
4.64624e-05
4.25309e-05
3.83984e-05
3.40858e-05
2.97186e-05
2.5478e-05
2.15438e-05
1.80352e-05
1.49339e-05
1.22202e-05
9.91105e-06
8.00996e-06
6.49192e-06
5.30885e-06
4.4006e-06
3.70625e-06
3.17192e-06
2.75379e-06
2.41827e-06
2.14086e-06
1.90444e-06
1.69729e-06
1.51146e-06
1.34179e-06
1.18515e-06
1.03979e-06
9.04878e-07
7.80263e-07
6.66221e-07
5.63029e-07
4.70883e-07
3.8969e-07
3.19057e-07
2.58372e-07
2.06873e-07
1.63713e-07
1.27999e-07
9.88281e-08
7.53153e-08
5.66219e-08
4.19723e-08
3.06646e-08
2.20726e-08
1.56486e-08
1.09244e-08
7.50821e-09
5.07977e-09
3.38265e-09
2.21686e-09
1.42947e-09
9.07067e-10
5.66179e-10
3.48131e-10
2.10237e-10
1.25573e-10
7.30239e-11
4.25627e-11
2.36839e-11
1.37293e-11
6.12756e-12
5.98674e-12
3.60084e-11
3.59062e-11
1.03104e-09
3.72053e-09
0.000327795
0.00270013
0.0017406
0.000808548
0.000511847
0.000487728
0.000514026
0.000610127
0.000849565
0.00124163
0.00176999
0.00197698
0.00217891
0.00240166
0.0025091
0.00259911
0.00269096
0.00272079
0.00270991
0.00267205
0.00258297
0.00245015
0.00225155
0.00205589
0.00191961
0.00172509
0.00150361
0.00129424
0.0011132
0.000898621
0.00074271
0.000690635
0.000687667
0.000708173
0.00100598
0.00386925
0.00771361
0.0080876
0.00829169
0.00559969
0.00284842
0.0014596
0.000659673
0.000375722
0.000297313
0.000286348
0.000290202
0.000325938
0.000355737
0.000369538
0.000375373
0.000376475
0.000367884
0.000350662
0.000345599
0.00034394
0.000343062
0.000343182
0.00034262
0.000339063
0.000335109
0.000333102
0.000330943
0.000328855
0.00032644
0.000324728
0.000324555
0.000324788
0.000325381
0.000326386
0.000328059
0.000330649
0.0003341
0.000338098
0.000342456
0.000347228
0.00035029
0.000350954
0.000350679
0.000349148
0.000346248
0.000341972
0.000336566
0.000330775
0.000324974
0.000319641
0.000315227
0.000311737
0.000308538
0.000305039
0.000301345
0.000298018
0.000294404
0.000289926
0.00028409
0.00027478
0.000262377
0.000246342
0.000226837
0.000204776
0.000182991
0.000162528
0.000143722
0.000126696
0.000111483
9.87421e-05
8.92468e-05
8.21332e-05
7.69749e-05
7.3133e-05
7.00464e-05
6.73664e-05
6.49926e-05
6.2876e-05
6.0901e-05
5.90082e-05
5.715e-05
5.518e-05
5.28503e-05
4.99569e-05
4.64643e-05
4.24201e-05
3.78403e-05
3.28057e-05
2.74943e-05
2.22133e-05
1.73508e-05
1.31947e-05
9.8446e-06
7.30728e-06
5.47845e-06
4.1911e-06
3.28675e-06
2.64599e-06
2.18594e-06
1.84953e-06
1.59708e-06
1.40104e-06
1.24246e-06
1.10861e-06
9.91453e-07
8.86103e-07
7.89492e-07
6.99608e-07
6.15376e-07
5.36299e-07
4.62475e-07
3.9435e-07
3.32383e-07
2.76875e-07
2.2791e-07
1.8536e-07
1.48919e-07
1.18145e-07
9.25179e-08
7.14838e-08
5.44812e-08
4.0942e-08
3.03224e-08
2.21206e-08
1.58866e-08
1.12269e-08
7.8036e-09
5.33362e-09
3.58386e-09
2.36748e-09
1.53753e-09
9.81663e-10
6.16028e-10
3.79998e-10
2.30374e-10
1.37073e-10
8.05173e-11
4.55511e-11
2.70044e-11
1.24217e-11
1.06224e-11
7.46211e-12
3.91612e-11
2.05208e-10
0.000760733
0.00206453
0.00110323
0.000552605
0.000463261
0.000480473
0.000596195
0.000929245
0.00138823
0.00174833
0.00202985
0.00216167
0.00237015
0.00263765
0.00274006
0.0029806
0.00314863
0.00335506
0.00349999
0.00349552
0.00345127
0.00333731
0.00308524
0.00273098
0.0024334
0.0021135
0.00175869
0.00152949
0.00135921
0.00113365
0.000956422
0.000770379
0.000732292
0.00109126
0.00478824
0.00684675
0.00724796
0.00618573
0.00356996
0.00168684
0.000854853
0.000500241
0.000359578
0.000325433
0.000323213
0.000376407
0.000466505
0.000506182
0.000521684
0.000525544
0.000524303
0.000507275
0.000483191
0.00046552
0.000449326
0.00043047
0.000412715
0.00039685
0.000381183
0.00036879
0.000361053
0.000356344
0.000353095
0.00035091
0.000348535
0.000346602
0.000346344
0.00034641
0.00034686
0.00034798
0.000350226
0.000354083
0.000359166
0.000364735
0.000368785
0.00036966
0.000368985
0.000366137
0.000361908
0.000357124
0.000351019
0.000343331
0.000333735
0.00032254
0.000310941
0.000300431
0.000292326
0.000287946
0.000286017
0.000285259
0.000285104
0.000285983
0.000288196
0.000290194
0.000291362
0.000288548
0.000283343
0.000274984
0.000263836
0.00024919
0.000231663
0.00021259
0.000193153
0.000174481
0.000156676
0.000138777
0.000120262
0.000103249
9.00668e-05
8.13964e-05
7.54625e-05
7.12614e-05
6.81394e-05
6.56926e-05
6.3636e-05
6.17812e-05
6.00808e-05
5.85761e-05
5.72129e-05
5.57068e-05
5.37152e-05
5.11763e-05
4.8365e-05
4.55163e-05
4.25321e-05
3.90476e-05
3.4678e-05
2.94794e-05
2.4028e-05
1.89517e-05
1.46024e-05
1.10539e-05
8.26978e-06
6.15005e-06
4.57233e-06
3.41892e-06
2.58835e-06
1.99753e-06
1.58046e-06
1.28598e-06
1.0753e-06
9.19995e-07
8.00343e-07
7.03706e-07
6.2147e-07
5.47644e-07
4.78212e-07
4.12498e-07
3.51405e-07
2.95609e-07
2.45567e-07
2.01477e-07
1.63293e-07
1.30761e-07
1.03472e-07
8.08995e-08
6.24616e-08
4.76018e-08
3.57931e-08
2.65439e-08
1.94058e-08
1.39798e-08
9.91937e-09
6.9298e-09
4.76496e-09
3.22361e-09
2.14485e-09
1.40332e-09
9.02738e-10
5.70686e-10
3.5463e-10
2.1621e-10
1.29824e-10
7.59203e-11
4.44794e-11
2.42013e-11
1.48567e-11
6.76307e-12
7.12743e-12
1.36816e-11
0.0010003
0.00102077
0.000672134
0.000473605
0.000474397
0.000559098
0.00087971
0.00134238
0.00160567
0.00188311
0.00207761
0.00230875
0.00278757
0.00332993
0.00368067
0.00456048
0.00527115
0.00598621
0.0068267
0.00682035
0.00658625
0.00599284
0.00505152
0.0041258
0.00343676
0.00289652
0.00239741
0.00194015
0.00152596
0.00139782
0.00115242
0.000836641
0.00105544
0.00428014
0.00605814
0.00623781
0.00465311
0.00233251
0.00121542
0.000646472
0.000426363
0.00035706
0.000343195
0.000354587
0.000434919
0.000539529
0.000580583
0.000596704
0.000600464
0.000595112
0.000569926
0.000539183
0.000519522
0.000508526
0.000495525
0.000482393
0.000470159
0.000458849
0.000448655
0.000438677
0.000429125
0.000414735
0.00039911
0.000387764
0.000382866
0.000380177
0.000377198
0.000374708
0.000374027
0.000374
0.000375175
0.000380165
0.000383942
0.000384383
0.000383147
0.000379232
0.000373864
0.000366544
0.000357604
0.000345686
0.000330562
0.000314075
0.000298253
0.000284752
0.000273408
0.000264052
0.000256759
0.000251958
0.000249357
0.000247969
0.000247422
0.000246964
0.00024645
0.000246391
0.000250541
0.000257887
0.000264923
0.000269435
0.000265131
0.000255114
0.000240983
0.000224238
0.000206391
0.000188219
0.000171136
0.000156041
0.000142721
0.000129446
0.000114315
9.84087e-05
8.61584e-05
7.80571e-05
7.24454e-05
6.84275e-05
6.54786e-05
6.32104e-05
6.1311e-05
5.96279e-05
5.8185e-05
5.70195e-05
5.59462e-05
5.45276e-05
5.23948e-05
4.97027e-05
4.69908e-05
4.45646e-05
4.24083e-05
4.00849e-05
3.69319e-05
3.2585e-05
2.73803e-05
2.20608e-05
1.72313e-05
1.31447e-05
9.83738e-06
7.2419e-06
5.25278e-06
3.76555e-06
2.68338e-06
1.91723e-06
1.38849e-06
1.03128e-06
7.9293e-07
6.3301e-07
5.2298e-07
4.44426e-07
3.86531e-07
3.40767e-07
3.0046e-07
2.61802e-07
2.24468e-07
1.89326e-07
1.57097e-07
1.28273e-07
1.03102e-07
8.16091e-08
6.36438e-08
4.89151e-08
3.70551e-08
2.76668e-08
2.03571e-08
1.47578e-08
1.05379e-08
7.40904e-09
5.12742e-09
3.49132e-09
2.33825e-09
1.53926e-09
9.95841e-10
6.3246e-10
3.94852e-10
2.41271e-10
1.45585e-10
8.49466e-11
5.02331e-11
2.68192e-11
1.72357e-11
7.93867e-12
7.10791e-12
6.09918e-12
0.000706175
0.000778562
0.000569305
0.000469935
0.000513063
0.000693457
0.00117774
0.00148356
0.0016789
0.00200238
0.00251372
0.00341369
0.00430333
0.00499754
0.00586923
0.00798251
0.00990385
0.0117386
0.0136834
0.0139774
0.0136463
0.0126143
0.0100554
0.0068794
0.00475328
0.00343851
0.00262979
0.00209163
0.00185352
0.00156013
0.00111666
0.0010491
0.00351584
0.00538214
0.00559879
0.00390919
0.00184257
0.000944449
0.000555265
0.000399737
0.000354965
0.000348983
0.000364187
0.000434187
0.000532986
0.000591053
0.000611048
0.000615577
0.000612062
0.000597495
0.000575015
0.000561438
0.000557855
0.000560556
0.00057171
0.000580462
0.000586706
0.000592472
0.000596783
0.000598802
0.000599648
0.00059831
0.000580644
0.000544368
0.000513589
0.000494031
0.000481646
0.000457632
0.000441076
0.000432672
0.000421355
0.000415929
0.000406873
0.000399449
0.000392109
0.000381315
0.000373771
0.000360479
0.000343891
0.000327476
0.00031238
0.000299213
0.000288909
0.000280078
0.000273162
0.00026866
0.000266257
0.000265265
0.000264707
0.000263224
0.000260269
0.000255057
0.000247684
0.000239791
0.000232786
0.00022731
0.000224465
0.000224606
0.000229947
0.000234329
0.000233789
0.000223326
0.000208177
0.000191146
0.000173881
0.000158097
0.000144996
0.000134618
0.000124862
0.000114419
0.000101661
8.88134e-05
7.94094e-05
7.28947e-05
6.8203e-05
6.48018e-05
6.22967e-05
6.03103e-05
5.86027e-05
5.71661e-05
5.60902e-05
5.52691e-05
5.43261e-05
5.27204e-05
5.01807e-05
4.71847e-05
4.44403e-05
4.22966e-05
4.06913e-05
3.91481e-05
3.69328e-05
3.35132e-05
2.8956e-05
2.38847e-05
1.89914e-05
1.46745e-05
1.10544e-05
8.12237e-06
5.81766e-06
4.06637e-06
2.78394e-06
1.87923e-06
1.26371e-06
8.59005e-07
6.00692e-07
4.39019e-07
3.37492e-07
2.71824e-07
2.27553e-07
1.96647e-07
1.72624e-07
1.5086e-07
1.29655e-07
1.0934e-07
9.04356e-08
7.33782e-08
5.84367e-08
4.57038e-08
3.51239e-08
2.65358e-08
1.97142e-08
1.44054e-08
1.03539e-08
7.31974e-09
5.0892e-09
3.47911e-09
2.33807e-09
1.544e-09
1.00173e-09
6.3811e-10
3.99072e-10
2.44816e-10
1.47449e-10
8.69125e-11
5.04193e-11
2.84031e-11
1.59886e-11
8.69648e-12
4.57943e-12
2.7754e-12
0.000786607
0.000909258
0.000561432
0.000502396
0.000570872
0.000852172
0.00132077
0.00154808
0.00193722
0.00275665
0.00389292
0.00466828
0.00529931
0.00634948
0.00870687
0.0126891
0.0159098
0.018162
0.0199379
0.0201055
0.0197785
0.0188448
0.0170289
0.0129344
0.00802936
0.00477041
0.00312496
0.00236774
0.00193805
0.00148897
0.00118709
0.00268557
0.00475093
0.00508044
0.00381363
0.00166401
0.000834424
0.000510211
0.000391985
0.000357952
0.000352822
0.000366978
0.000426484
0.000500329
0.000558345
0.000600425
0.000615229
0.000617151
0.000615863
0.000612206
0.000610789
0.000626291
0.000658746
0.000703913
0.000767013
0.000832021
0.000892542
0.00094496
0.000981044
0.00100309
0.00101224
0.00101109
0.000998532
0.000923647
0.000828832
0.000765073
0.000728088
0.000652099
0.000579474
0.00054392
0.000493363
0.000467986
0.000436442
0.000414292
0.000402937
0.000384067
0.000374709
0.00035913
0.000342577
0.000327678
0.000314472
0.000306982
0.000305896
0.000306593
0.000310028
0.000315524
0.000320992
0.000326548
0.00033198
0.000336508
0.000338963
0.000337127
0.000328673
0.000312693
0.000290039
0.000263657
0.000236058
0.000215412
0.000203252
0.00019416
0.000188077
0.000187999
0.000188835
0.000184418
0.000172121
0.000157539
0.000142304
0.00012962
0.000122066
0.000116539
0.000108918
9.95842e-05
8.88186e-05
7.93927e-05
7.25607e-05
6.74697e-05
6.36918e-05
6.09491e-05
5.89067e-05
5.7272e-05
5.59106e-05
5.48911e-05
5.4199e-05
5.35542e-05
5.24615e-05
5.042e-05
4.74478e-05
4.42771e-05
4.16018e-05
3.97311e-05
3.85457e-05
3.75413e-05
3.59996e-05
3.33307e-05
2.93999e-05
2.46511e-05
1.98091e-05
1.53885e-05
1.15796e-05
8.43535e-06
5.94442e-06
4.05651e-06
2.68838e-06
1.73903e-06
1.107e-06
7.02367e-07
4.52486e-07
3.02796e-07
2.14677e-07
1.62213e-07
1.29837e-07
1.09188e-07
9.49557e-08
8.30348e-08
7.14756e-08
6.02112e-08
4.95827e-08
3.99158e-08
3.14335e-08
2.42343e-08
1.83066e-08
1.35592e-08
9.85265e-09
7.02668e-09
4.9198e-09
3.38226e-09
2.28324e-09
1.51337e-09
9.84809e-10
6.29056e-10
3.94331e-10
2.42498e-10
1.46277e-10
8.64947e-11
5.01378e-11
2.84698e-11
1.58242e-11
8.6707e-12
4.58603e-12
2.41801e-12
0.000854796
0.00104999
0.000562086
0.000553589
0.000639514
0.000949391
0.00141612
0.00183303
0.00265233
0.00367658
0.00456149
0.00521307
0.0061825
0.00830269
0.0122552
0.016396
0.0195286
0.0216882
0.0232794
0.0237044
0.0233888
0.0219252
0.0183824
0.0129987
0.0079416
0.00467008
0.00305616
0.00233041
0.00182436
0.00150736
0.00207364
0.00417426
0.00460707
0.00390382
0.00170487
0.000822951
0.000511456
0.000405065
0.000372387
0.000363237
0.000376523
0.000431869
0.000490784
0.000530087
0.000565154
0.000596171
0.000619687
0.000635288
0.000652117
0.000681312
0.000735454
0.000820784
0.000939833
0.00109131
0.00127685
0.00147957
0.00167965
0.00185467
0.00195915
0.00200442
0.00201149
0.00193571
0.00190587
0.00177164
0.00150389
0.00125359
0.00114578
0.00101101
0.000805616
0.000707777
0.000637564
0.000550236
0.000508761
0.00045792
0.000432919
0.000400879
0.000383337
0.000366255
0.000352448
0.000341161
0.000332901
0.000327293
0.000322204
0.000320139
0.000321824
0.000325709
0.000329518
0.000333863
0.000338949
0.0003448
0.000350355
0.000353457
0.000353036
0.000348464
0.000340183
0.000328615
0.000313967
0.000287766
0.000247677
0.000204328
0.000175839
0.000155402
0.000141197
0.000138065
0.000144311
0.000147838
0.000141384
0.000127233
0.000114084
0.000106299
0.000104693
0.000101672
9.44398e-05
8.62284e-05
7.80052e-05
7.13782e-05
6.61826e-05
6.21162e-05
5.91287e-05
5.7027e-05
5.55269e-05
5.43423e-05
5.34456e-05
5.28667e-05
5.23889e-05
5.15656e-05
4.99293e-05
4.72769e-05
4.40734e-05
4.10588e-05
3.87373e-05
3.72726e-05
3.64789e-05
3.58689e-05
3.47843e-05
3.25604e-05
2.89997e-05
2.44115e-05
1.95622e-05
1.50717e-05
1.11788e-05
7.97934e-06
5.48368e-06
3.63509e-06
2.33118e-06
1.45233e-06
8.84439e-07
5.31749e-07
3.20807e-07
1.98989e-07
1.30581e-07
9.23989e-08
7.05347e-08
5.76188e-08
4.95779e-08
4.33519e-08
3.73643e-08
3.14295e-08
2.57473e-08
2.05406e-08
1.59719e-08
1.21189e-08
8.98326e-09
6.51192e-09
4.62013e-09
3.21036e-09
2.18587e-09
1.45887e-09
9.54606e-10
6.12487e-10
3.85336e-10
2.37702e-10
1.43751e-10
8.52277e-11
4.95069e-11
2.81956e-11
1.57126e-11
8.59651e-12
4.59497e-12
2.40997e-12
0.000927414
0.00126343
0.000621628
0.00063101
0.000679415
0.00103037
0.00162928
0.00224441
0.00311942
0.0041274
0.00498393
0.00577806
0.00695855
0.00933703
0.0136252
0.0177875
0.0209057
0.0231847
0.0238475
0.0235675
0.0227714
0.0207417
0.0168748
0.0116183
0.00697111
0.00413214
0.0027495
0.00209098
0.00182621
0.00196192
0.00367981
0.00417778
0.00394079
0.00185333
0.000885813
0.00054567
0.000437118
0.000403395
0.000390863
0.000411917
0.000455713
0.000490242
0.000516667
0.000541923
0.00056954
0.000602326
0.000643835
0.00069537
0.000764177
0.000873869
0.00105078
0.00129912
0.0016277
0.00204436
0.00255416
0.00314201
0.00375056
0.00430908
0.00471643
0.00490271
0.0049411
0.00454164
0.00422033
0.00392547
0.00341385
0.00265613
0.00225447
0.00196959
0.0014818
0.00116415
0.000945828
0.000739828
0.000594223
0.000515999
0.000461376
0.000426578
0.000402227
0.000384446
0.000371173
0.000360096
0.000348867
0.000335593
0.000323396
0.00031087
0.00029733
0.000285791
0.000275872
0.000267791
0.000262186
0.000259953
0.00026166
0.000267174
0.000274532
0.000283222
0.000294291
0.000307604
0.000317455
0.000322469
0.000319251
0.000301209
0.000248776
0.000183433
0.000138827
0.000113957
0.000102635
0.000104057
0.00011785
0.000122371
0.000115119
0.000101303
9.26297e-05
9.12603e-05
9.15355e-05
8.91499e-05
8.22205e-05
7.55274e-05
6.95935e-05
6.45723e-05
6.03204e-05
5.70134e-05
5.46914e-05
5.32459e-05
5.2346e-05
5.17256e-05
5.13529e-05
5.09948e-05
5.02951e-05
4.88204e-05
4.6397e-05
4.33521e-05
4.03247e-05
3.78358e-05
3.61123e-05
3.50931e-05
3.45306e-05
3.40535e-05
3.32212e-05
3.13878e-05
2.77507e-05
2.30361e-05
1.81283e-05
1.3654e-05
9.8536e-06
6.81989e-06
4.53585e-06
2.90664e-06
1.80002e-06
1.081e-06
6.32602e-07
3.63632e-07
2.08178e-07
1.2142e-07
7.44747e-08
4.95209e-08
3.6128e-08
2.88239e-08
2.46959e-08
2.16848e-08
1.87383e-08
1.57245e-08
1.27856e-08
1.00782e-08
7.71331e-09
5.74205e-09
4.16452e-09
2.94663e-09
2.03624e-09
1.37549e-09
9.08882e-10
5.87774e-10
3.72163e-10
2.30779e-10
1.40173e-10
8.34065e-11
4.86138e-11
2.77617e-11
1.55263e-11
8.50909e-12
4.56729e-12
2.40536e-12
0.000981289
0.00146406
0.000747559
0.000720295
0.000698509
0.00112216
0.00178755
0.00250292
0.00351687
0.00446979
0.00515511
0.00595828
0.0071948
0.00941891
0.0126845
0.0161066
0.0184774
0.020226
0.0209491
0.0206713
0.0192296
0.0162457
0.0120135
0.0076131
0.00450057
0.00294871
0.0022929
0.00208492
0.00212669
0.00330744
0.00383657
0.00381855
0.0021587
0.000998618
0.000609183
0.000482877
0.000445829
0.000436594
0.000468607
0.000495839
0.000509242
0.00051749
0.000534707
0.000555981
0.000588232
0.000638704
0.000716608
0.000834015
0.00101012
0.00128792
0.00171909
0.00232399
0.00311764
0.00419251
0.00550276
0.00701902
0.00857417
0.00990059
0.0106095
0.0108958
0.0108371
0.0101046
0.00875544
0.00759962
0.00659785
0.00535882
0.00433288
0.00373512
0.00299998
0.00247919
0.00198926
0.00155026
0.00112388
0.000787602
0.000598102
0.000490506
0.000433522
0.000404414
0.000388259
0.000378548
0.000369249
0.000355487
0.000335516
0.000312073
0.000287693
0.000264916
0.000244844
0.000226916
0.000209941
0.000193491
0.000177082
0.000160379
0.000144566
0.000132395
0.000127737
0.000135497
0.00016956
0.000228955
0.000294287
0.000323389
0.000324011
0.000299714
0.000223032
0.00014161
0.00010112
8.63985e-05
8.43461e-05
9.39673e-05
0.00010408
0.00010189
9.06886e-05
8.26665e-05
8.09213e-05
8.16125e-05
8.14162e-05
7.8118e-05
7.23652e-05
6.71278e-05
6.24434e-05
5.82421e-05
5.47539e-05
5.22051e-05
5.06546e-05
4.99763e-05
4.97178e-05
4.95657e-05
4.93215e-05
4.8785e-05
4.74713e-05
4.50904e-05
4.21372e-05
3.91632e-05
3.66407e-05
3.48221e-05
3.37013e-05
3.30992e-05
3.2741e-05
3.23053e-05
3.14442e-05
2.94964e-05
2.54277e-05
2.04473e-05
1.55826e-05
1.13299e-05
7.8759e-06
5.24742e-06
3.36096e-06
2.07564e-06
1.23956e-06
7.18064e-07
4.05067e-07
2.23778e-07
1.22313e-07
6.75064e-08
3.89876e-08
2.45619e-08
1.72579e-08
1.35467e-08
1.16422e-08