/*--------------------------------*- C++ -*----------------------------------*\
  =========                 |
  \\      /  F ield         | OpenFOAM: The Open Source CFD Toolbox
   \\    /   O peration     | Website:  https://openfoam.org
    \\  /    A nd           | Version:  7
     \\/     M anipulation  |
\*---------------------------------------------------------------------------*/
FoamFile
{
    version     2.0;
    format      ascii;
    class       volScalarField;
    location    "0.057";
    object      nut;
}
// * * * * * * * * * * * * * * * * * * * * * * * * * * * * * * * * * * * * * //

dimensions      [0 2 -1 0 0 0 0];

internalField   nonuniform List<scalar> 
12225
(
0
0
0
0
0
0
0
0
0
1.07457e-10
6.55161e-11
0
0
0
0
0
0
0
0
0
0
0
0
0
0
0
0
1.46446e-10
4.5478e-11
0
0
0
0
0
0
0
0
0
0
0
0
5.14271e-11
0
0
0
0
0
0
0
0
0
0
0
0
0
1.12595e-08
5.63049e-09
1.51124e-09
5.65472e-10
0
0
0
0
0
0
0
0
0
0
0
1.03963e-10
0
0
3.74656e-07
2.62507e-07
6.04448e-08
0
0
0
0
0
0
0
0
0
0
2.07259e-10
0
8.9948e-10
0
1.56887e-07
4.82291e-07
4.86061e-07
3.20199e-07
1.11425e-07
1.26123e-07
1.83457e-07
8.93886e-08
2.20075e-08
3.95865e-09
0
6.95138e-10
3.6872e-09
2.86836e-09
1.58303e-09
0
0
0
5.36326e-07
5.71767e-07
9.8202e-07
7.20896e-07
3.19215e-07
5.03681e-07
3.64329e-07
1.45416e-07
1.61133e-08
0
0
0
0
0
9.29881e-09
7.02402e-09
7.60336e-09
1.26878e-08
8.26037e-07
6.2153e-07
7.18191e-07
3.49845e-07
0
5.12078e-08
1.19807e-07
1.60789e-07
1.13133e-07
2.63186e-08
0
0
0
0
0
1.53979e-08
3.25021e-08
3.82539e-08
5.57886e-07
4.55671e-07
5.10927e-07
6.77983e-08
0
0
0
8.77249e-08
1.58329e-07
1.45854e-07
1.828e-07
3.35834e-07
3.45509e-07
6.89998e-08
0
0
0
0
1.87154e-07
2.77894e-07
3.06014e-07
0
0
0
0
0
6.31451e-08
1.78525e-07
2.7313e-07
2.64672e-07
2.08141e-07
1.01327e-07
0
0
0
0
3.54238e-07
2.89503e-07
4.31296e-08
0
0
0
0
0
0
6.69388e-08
8.87888e-08
8.12463e-08
7.37226e-08
5.39973e-08
0
0
0
0
3.96392e-07
2.96723e-07
3.5859e-07
0
0
1.31189e-08
0
0
0
0
0
0
6.21639e-09
8.15063e-09
0
0
0
0
0
0
8.75789e-07
3.01858e-07
4.47739e-08
3.94164e-08
0
0
0
0
0
0
3.85914e-08
5.63725e-08
1.92086e-08
0
1.1959e-08
3.95295e-08
0
0
0
0
0
6.47719e-08
0
0
0
0
0
0
0
4.73226e-08
0
0
0
0
3.49843e-07
0
0
0
0
2.16325e-07
2.40444e-07
2.45186e-07
3.65084e-07
1.52895e-07
0
0
0
0
0
0
0
0
1.3428e-06
1.4168e-06
4.46439e-07
0
1.10123e-07
6.58182e-07
7.75215e-07
7.34459e-07
6.56572e-07
2.82671e-07
0
0
0
0
0
0
0
0
2.90218e-07
0
0
0
2.13991e-07
1.99341e-07
2.37936e-07
5.75756e-08
0
0
1.42487e-07
2.19478e-07
1.57632e-07
6.07687e-08
0
0
0
0
3.85488e-07
0
0
8.10278e-07
8.44428e-07
0
0
0
0
0
6.67315e-09
2.10936e-07
2.4139e-07
2.1035e-07
1.70327e-07
1.33685e-07
1.06879e-07
9.53879e-08
0
0
1.78856e-06
4.00212e-06
6.39836e-07
0
0
0
0
0
0
0
0
0
0
0
3.08806e-08
8.11635e-08
0
0
2.07645e-07
9.3701e-07
3.87478e-07
0
4.50901e-08
6.16426e-08
9.40291e-08
1.73493e-07
1.67865e-07
1.21239e-07
5.64261e-08
0
0
0
0
0
0
0
0
0
1.57622e-07
2.06995e-07
1.34453e-07
1.15466e-07
1.99943e-07
2.13863e-07
1.54439e-07
7.27937e-08
0
0
0
0
0
0
0
0
0
0
0
2.76319e-08
1.14442e-07
3.47983e-07
5.45995e-07
5.84903e-07
5.05786e-07
3.4399e-07
1.51951e-07
1.23267e-09
0
0
0
0
3.27576e-07
0
0
0
0
0
0
2.03116e-07
5.15729e-07
6.9211e-07
6.93282e-07
5.49624e-07
3.52235e-07
1.77387e-07
7.11939e-08
3.32885e-08
2.56741e-08
8.99938e-09
3.47347e-07
2.58329e-07
0
0
0
0
0
0
0
1.09345e-07
2.74712e-07
3.28569e-07
2.85623e-07
2.00172e-07
1.24409e-07
7.78358e-08
5.30428e-08
3.04658e-08
0
4.06667e-08
0
0
0
0
0
0
0
0
0
6.74167e-08
1.08201e-07
1.0395e-07
7.86899e-08
4.64616e-08
9.11544e-09
0
0
0
0
0
0
0
0
0
0
0
0
0
2.07808e-08
5.97892e-08
6.35901e-08
4.03747e-08
0
0
0
0
0
0
0
0
0
0
0
0
0
0
0
0
0
0
0
0
4.51469e-09
0
0
0
0
0
0
0
0
0
0
0
0
0
0
0
0
0
7.099e-09
0
0
0
0
0
0
0
0
0
0
0
0
0
0
0
0
0
5.84754e-08
0
0
0
0
0
0
0
0
0
0
0
0
0
0
0
0
0
0
0
0
0
3.27477e-07
4.58059e-07
2.89713e-07
5.02656e-08
0
0
0
0
0
0
0
0
0
0
0
0
2.09518e-08
4.11465e-08
5.66732e-08
6.73377e-08
6.74744e-08
5.41508e-08
2.6364e-08
0
3.8891e-09
7.03659e-08
1.87701e-07
1.38934e-07
0
0
0
0
2.17384e-06
4.47719e-06
6.35823e-06
6.54607e-06
9.54369e-06
1.48023e-05
2.55984e-05
1.80545e-05
4.10803e-06
5.72638e-07
7.634e-08
0
0
1.47104e-08
3.12738e-08
3.98387e-08
4.11436e-08
3.70844e-08
3.15648e-08
2.54173e-08
1.95069e-08
1.3654e-08
9.60247e-09
5.98556e-09
3.37388e-09
1.19704e-09
0
0
0
0
0
0
0
0
0
0
0
0
0
0
0
0
0
0
0
0
0
0
0
0
0
0
0
0
0
0
0
0
0
0
0
0
0
0
0
0
0
0
0
0
0
0
0
0
0
0
0
0
0
0
0
0
0
0
0
0
0
0
0
0
0
0
0
0
0
0
0
0
0
0
0
0
0
0
0
0
0
0
0
0
0
0
0
0
0
0
0
0
0
0
0
0
0
0
0
0
0
0
0
0
0
0
0
0
0
0
0
0
0
0
0
0
3.67962e-11
2.6149e-11
0
1.75658e-07
0
8.89584e-08
4.02471e-07
6.44761e-07
6.80825e-07
5.2471e-07
2.79102e-07
5.14942e-08
0
0
0
0
0
0
0
0
0
0
3.6882e-08
6.80696e-08
8.66526e-08
9.35835e-08
8.57985e-08
6.34131e-08
3.90395e-08
1.9366e-08
1.05304e-07
2.8994e-07
4.45417e-07
4.51584e-07
3.64918e-07
6.13371e-08
0
0
0
0
0
0
0
1.45646e-07
7.83859e-07
1.38842e-06
7.05382e-07
2.27602e-07
6.06874e-08
2.19711e-09
0
9.87697e-09
2.35888e-08
3.0667e-08
3.19168e-08
3.07808e-08
2.82204e-08
2.48264e-08
2.10317e-08
1.70665e-08
1.32511e-08
9.49738e-09
5.81538e-09
2.20089e-09
0
0
0
0
0
0
0
0
0
0
0
0
0
0
0
0
0
0
0
0
0
0
0
0
0
0
0
0
0
0
0
0
0
0
0
0
0
0
0
0
0
0
0
0
0
0
0
0
0
0
0
0
0
0
0
0
0
0
0
0
0
0
0
0
0
0
0
0
0
0
0
0
0
0
0
0
0
0
0
0
0
0
0
0
0
0
0
0
0
0
0
0
0
0
0
0
0
0
0
0
0
0
0
0
0
0
0
0
0
0
0
0
0
0
0
1.13902e-13
4.5714e-11
0
2.02338e-06
9.29937e-07
2.13869e-07
1.70367e-07
3.51746e-07
5.59007e-07
6.54789e-07
6.93059e-07
7.23202e-07
7.67919e-07
8.62603e-07
8.83154e-07
8.35354e-07
7.20435e-07
5.33313e-07
3.20524e-07
1.33781e-07
1.40709e-08
0
0
0
0
0
0
0
0
0
0
1.48646e-07
4.60757e-07
6.35625e-07
4.80494e-07
1.32215e-07
0
0
0
0
0
0
0
4.61132e-09
2.59996e-07
3.67979e-08
1.7816e-07
1.41282e-07
4.96698e-08
7.59588e-09
0
0
3.15056e-08
6.58772e-08
8.41778e-08
8.81199e-08
8.44061e-08
7.62577e-08
6.61171e-08
5.54895e-08
4.49202e-08
3.45848e-08
2.47014e-08
1.5183e-08
6.03022e-09
0
0
0
0
0
0
0
0
0
0
0
0
0
0
0
0
0
0
0
0
0
0
0
0
0
0
0
0
0
0
0
0
0
0
0
0
0
0
0
0
0
0
0
0
0
0
0
0
0
0
0
0
0
0
0
6.76139e-10
1.02328e-09
1.07946e-09
9.45149e-10
7.34431e-10
5.07802e-10
2.74496e-10
6.95696e-11
0
0
0
0
0
0
0
0
0
0
0
0
0
0
0
0
0
0
0
0
0
0
0
0
0
0
0
0
0
0
0
0
0
0
0
0
0
0
0
0
0
0
0
0
0
0
0
0
0
0
4.18647e-14
6.86585e-13
0
2.49581e-11
0
1.53759e-06
1.1607e-06
4.14425e-07
2.5845e-07
3.86494e-07
5.80958e-07
6.66718e-07
7.70398e-07
9.49614e-07
1.17192e-06
1.39655e-06
1.43737e-06
1.42215e-06
1.34327e-06
1.14884e-06
8.71217e-07
5.44829e-07
2.45944e-07
7.72536e-08
3.21312e-08
0
0
0
0
0
0
0
0
0
0
0
0
0
0
0
0
0
0
0
0
1.08498e-07
8.62015e-08
0
0
0
0
9.61798e-09
1.25803e-07
3.05568e-07
4.43222e-07
4.58398e-07
4.06758e-07
3.54679e-07
3.30253e-07
3.4369e-07
3.84238e-07
4.35861e-07
4.68383e-07
4.34144e-07
3.03468e-07
1.22239e-07
0
0
0
0
0
0
0
0
0
0
0
0
0
0
0
0
0
0
0
0
0
0
0
0
0
0
0
0
0
0
0
0
0
0
0
0
0
0
0
0
0
0
0
0
0
0
0
0
0
0
0
0
0
0
0
0
0
0
0
0
9.89528e-10
2.02783e-09
1.61703e-09
5.59602e-10
0
0
0
0
0
0
0
0
0
0
0
0
0
0
0
0
0
0
0
0
0
0
0
0
0
0
0
0
0
0
0
0
0
0
0
0
0
0
0
0
0
0
0
0
0
0
0
0
0
0
0
8.56471e-13
0
8.24239e-12
0
1.16744e-06
1.0104e-06
4.77082e-07
3.1756e-07
4.93799e-07
6.65757e-07
8.06435e-07
1.05271e-06
1.29977e-06
1.4193e-06
1.41429e-06
1.24335e-06
9.54331e-07
5.17134e-07
0
0
0
0
0
5.19072e-07
1.19775e-06
1.08559e-06
4.82288e-07
0
0
0
0
0
0
0
0
0
0
0
0
0
0
0
0
0
0
0
0
1.01965e-08
2.76611e-07
7.25136e-07
1.25562e-06
1.34598e-06
1.02131e-06
6.73193e-07
4.32846e-07
2.9024e-07
2.22822e-07
2.11494e-07
2.3811e-07
2.86147e-07
3.34291e-07
3.4638e-07
2.7842e-07
1.29127e-07
0
0
0
0
0
0
0
0
0
0
0
0
0
0
0
0
0
0
0
0
0
0
0
0
0
0
0
0
4.85682e-09
1.02223e-08
1.05185e-08
4.39398e-09
0
0
0
0
0
0
0
0
0
0
0
0
0
0
0
0
0
0
0
0
0
0
0
0
0
0
0
0
0
0
0
0
0
0
0
0
0
0
0
0
0
0
0
0
0
0
0
0
0
0
0
0
0
0
0
0
0
0
0
0
0
0
0
0
0
0
0
0
0
0
0
0
0
0
0
0
0
0
0
0
0
0
0
0
2.5741e-12
0
6.658e-12
0
3.58163e-07
4.51315e-07
4.02772e-07
4.34425e-07
6.61698e-07
7.82406e-07
1.01669e-06
1.26542e-06
1.31638e-06
1.20948e-06
8.31427e-07
1.72152e-07
0
0
0
0
0
0
0
1.90263e-06
3.99887e-06
3.84729e-06
2.47897e-06
1.02704e-06
0
0
0
0
0
0
0
0
0
0
0
0
0
0
0
0
0
0
2.7972e-07
9.38113e-07
1.93005e-06
2.44644e-06
1.86795e-06
1.22679e-06
7.82431e-07
4.98974e-07
3.26347e-07
2.38719e-07
2.15362e-07
2.41741e-07
3.07944e-07
4.08555e-07
5.30932e-07
6.28994e-07
5.69981e-07
2.07843e-07
0
0
0
0
0
0
0
0
0
0
0
0
0
0
0
0
0
0
0
0
0
0
0
0
0
0
0
0
0
3.32264e-09
1.57235e-08
2.34595e-08
2.2714e-08
1.17365e-08
0
0
0
0
0
0
0
0
0
0
0
0
0
0
0
0
0
0
0
0
0
0
0
0
0
0
0
0
0
0
0
0
0
0
0
0
0
0
0
0
0
0
0
0
0
0
0
0
0
0
0
0
0
0
0
0
0
0
0
0
0
0
0
0
0
0
0
0
0
0
0
0
0
0
0
0
0
0
0
0
0
0
8.97847e-12
0
1.00416e-11
0
3.92625e-08
1.10435e-07
2.29476e-07
5.14885e-07
6.9549e-07
8.33861e-07
1.10803e-06
1.19787e-06
1.01613e-06
4.42651e-07
0
0
0
0
0
0
0
0
0
5.77796e-06
8.81824e-06
8.43357e-06
5.88496e-06
2.93909e-06
9.26937e-07
0
0
0
0
0
0
0
0
0
0
0
0
0
0
0
8.72089e-08
6.50895e-07
1.4379e-06
2.32236e-06
2.74149e-06
2.0829e-06
1.28058e-06
7.1642e-07
3.72968e-07
1.79991e-07
8.34375e-08
5.03589e-08
6.11666e-08
1.08438e-07
1.92812e-07
3.19232e-07
4.97317e-07
7.3329e-07
9.45243e-07
4.54934e-07
0
0
0
0
0
0
0
0
0
0
0
0
0
0
0
0
0
0
0
0
0
0
0
0
0
0
0
0
0
0
0
0
0
0
1.26658e-09
4.50389e-10
0
0
0
0
0
0
0
0
0
0
0
0
0
0
0
0
0
0
0
0
0
0
0
0
0
0
0
0
0
0
0
0
0
0
0
0
0
0
0
0
0
0
0
0
0
0
0
0
0
0
0
0
0
0
0
0
0
0
0
0
0
0
0
0
0
0
0
0
0
0
0
0
0
0
0
0
0
0
0
0
0
0
0
0
0
1.00419e-08
8.89701e-08
5.38162e-07
6.64098e-07
8.16348e-07
1.00822e-06
8.96591e-07
2.50047e-07
0
0
0
0
0
0
0
0
0
7.87236e-06
1.31843e-05
1.41616e-05
1.27126e-05
9.79492e-06
5.77353e-06
2.21647e-06
3.22351e-07
0
0
0
0
0
0
0
0
0
0
0
0
0
3.26508e-07
7.30145e-07
4.82329e-07
2.86174e-07
1.9038e-06
1.85811e-06
9.85493e-07
4.02204e-07
8.57169e-08
0
0
0
0
0
0
0
1.73376e-08
1.00124e-07
1.7801e-07
1.89123e-07
2.80979e-08
0
0
0
0
7.6614e-08
1.2822e-07
1.48959e-07
1.43114e-07
1.23243e-07
9.88063e-08
6.91828e-08
4.15693e-08
1.70204e-08
0
0
0
0
0
0
0
0
0
0
0
0
0
0
0
0
0
0
0
0
0
0
0
0
0
0
0
0
0
0
0
0
0
0
0
0
0
0
0
0
0
0
0
0
0
0
0
0
0
0
0
0
0
0
0
0
0
0
0
0
0
0
0
0
0
0
0
0
0
0
0
0
0
0
0
0
0
0
0
0
0
0
0
0
0
0
0
0
0
0
0
0
0
0
0
0
0
0
0
0
0
0
0
0
0
0
0
0
0
2.25492e-08
5.05913e-07
5.7316e-07
6.72126e-07
7.36339e-07
3.1661e-07
0
0
0
0
0
0
0
0
8.76728e-06
1.77185e-05
1.98053e-05
2.00014e-05
1.90187e-05
1.67231e-05
1.29311e-05
7.8899e-06
3.3664e-06
8.76003e-07
0
0
0
0
0
0
0
0
0
0
0
0
1.49687e-07
0
0
0
3.56282e-07
1.39248e-06
7.03572e-07
2.04227e-07
0
0
0
0
0
0
0
0
0
0
5.27229e-08
1.23868e-07
9.37054e-08
0
0
0
0
0
7.41518e-08
1.3212e-07
1.63942e-07
1.74926e-07
1.66735e-07
1.59838e-07
1.48137e-07
1.27448e-07
1.06653e-07
8.19056e-08
5.88233e-08
3.5913e-08
1.49954e-08
0
0
0
0
0
0
0
0
0
0
0
0
0
0
0
0
0
0
0
0
0
0
0
0
0
0
0
0
0
0
0
0
0
0
0
0
0
0
0
0
0
0
0
0
0
0
0
0
0
0
0
0
0
0
0
0
0
0
0
0
0
0
0
0
0
0
0
0
0
0
0
0
0
0
0
0
0
0
0
0
0
0
0
0
0
0
0
0
0
0
0
0
0
0
0
0
0
0
0
0
0
0
0
0
0
0
3.64446e-07
3.5594e-07
3.77127e-07
2.97333e-07
0
0
4.03363e-06
1.01042e-05
1.21975e-05
1.18381e-05
1.18868e-05
1.55097e-05
2.17566e-05
2.49567e-05
2.40972e-05
2.26947e-05
2.20778e-05
2.17883e-05
2.05927e-05
1.71534e-05
1.0501e-05
3.80094e-06
5.94493e-07
0
0
0
0
0
0
0
0
0
0
0
0
0
0
0
0
7.37378e-07
5.20265e-07
1.27075e-07
0
0
0
0
0
0
0
0
0
0
1.41189e-07
3.12345e-07
3.83021e-07
1.87363e-07
0
0
0
0
1.94377e-07
3.04173e-07
3.08176e-07
2.76929e-07
2.29259e-07
1.66501e-07
1.21138e-07
9.04439e-08
6.77468e-08
5.15554e-08
4.01261e-08
3.13667e-08
2.60013e-08
2.37679e-08
2.36889e-08
2.38093e-08
2.41143e-08
2.33733e-08
1.78539e-08
4.08014e-09
0
0
0
0
0
0
0
0
0
0
0
0
0
0
0
0
0
0
0
0
0
0
0
0
0
0
0
0
0
0
0
0
0
0
0
0
0
0
0
0
0
0
0
0
0
0
0
0
0
0
0
0
0
0
0
0
0
0
0
0
0
0
0
0
0
0
0
0
0
0
0
0
0
0
0
0
0
0
0
0
0
0
0
0
0
0
0
0
0
0
0
0
0
0
0
0
0
0
0
0
0
0
0
0
1.007e-06
6.44307e-06
7.56113e-06
7.12646e-06
7.28952e-06
7.44927e-06
7.7769e-06
9.09568e-06
1.13497e-05
1.32327e-05
1.39226e-05
1.36105e-05
1.32598e-05
1.32601e-05
1.33273e-05
1.25714e-05
6.30166e-06
0
0
0
0
0
0
0
0
0
0
0
0
0
0
0
0
0
0
2.76008e-07
8.64675e-08
0
0
0
0
0
0
0
0
0
1.1753e-07
4.81122e-07
9.91806e-07
1.54941e-06
1.7882e-06
1.00442e-06
0
0
0
0
4.3722e-07
7.09952e-07
7.71302e-07
7.08157e-07
5.96929e-07
4.35634e-07
2.89068e-07
1.71291e-07
9.3162e-08
4.39842e-08
1.24942e-08
0
0
0
0
0
0
1.91264e-08
4.85216e-08
6.67675e-08
6.76417e-08
5.56545e-08
3.62157e-08
1.47524e-08
0
0
0
0
0
0
0
0
0
0
0
0
0
0
0
0
0
0
0
0
0
0
0
0
0
0
0
0
0
0
0
0
0
0
0
0
0
0
0
0
0
0
0
0
0
0
0
0
0
0
0
0
0
0
0
0
0
0
0
0
0
0
0
0
0
0
0
0
0
0
0
0
0
0
0
0
0
0
0
0
0
0
0
0
0
0
0
0
0
0
0
0
0
0
0
0
0
0
0
0
1.17637e-06
4.02411e-06
4.96128e-06
4.80181e-06
4.71601e-06
4.67224e-06
4.45187e-06
4.41758e-06
4.78562e-06
5.1879e-06
5.16104e-06
4.62752e-06
3.71604e-06
2.56441e-06
1.19476e-06
0
0
0
0
1.16189e-06
7.31844e-07
4.46043e-07
2.02331e-07
7.81641e-09
0
0
0
0
0
0
0
0
0
0
0
0
0
0
0
0
0
0
0
0
0
2.86964e-07
9.07614e-07
1.93666e-06
3.47642e-06
5.555e-06
7.43593e-06
3.95492e-06
0
0
0
0
0
2.80734e-07
6.63345e-07
7.95085e-07
7.71071e-07
6.69236e-07
5.19297e-07
3.64923e-07
2.38833e-07
1.51603e-07
9.07701e-08
3.59372e-08
0
0
0
0
0
0
0
0
0
0
0
0
0
0
0
0
0
0
0
0
0
0
0
0
0
0
0
0
0
0
0
0
0
0
0
0
0
0
0
0
0
0
0
0
0
0
0
0
0
0
0
0
0
0
0
0
0
0
0
0
0
0
0
0
0
0
0
0
0
0
0
0
0
0
0
0
0
0
0
0
0
0
0
0
0
0
0
0
0
0
0
0
0
0
0
0
0
0
0
0
0
0
0
0
0
0
0
0
0
0
0
0
1.39104e-07
2.0427e-06
3.47e-06
3.80542e-06
3.69791e-06
3.52576e-06
3.24283e-06
2.77625e-06
2.32378e-06
1.94739e-06
1.61983e-06
1.30427e-06
9.55637e-07
6.27753e-07
4.26728e-07
3.97566e-07
5.38444e-07
1.13429e-06
2.46243e-06
1.9254e-06
1.41063e-06
1.01328e-06
6.95061e-07
4.80989e-07
4.31737e-07
1.23251e-07
0
0
0
0
0
0
0
0
0
0
0
0
0
0
0
0
0
0
2.91378e-07
9.73458e-07
2.22633e-06
4.3333e-06
7.48649e-06
1.18837e-05
1.58966e-05
0
0
0
0
0
0
0
5.53189e-08
4.37474e-07
5.67703e-07
5.72468e-07
5.05262e-07
4.04825e-07
3.03876e-07
2.23727e-07
1.70211e-07
1.38635e-07
1.06369e-07
4.22971e-08
0
0
0
0
0
0
0
0
0
0
0
0
0
0
0
0
0
0
0
0
0
0
0
0
0
0
0
0
0
0
0
0
0
0
0
0
0
0
0
0
0
0
0
0
0
0
0
0
0
0
0
0
0
0
0
0
0
7.08979e-09
9.95946e-10
0
0
0
0
0
0
0
0
0
0
0
0
0
0
0
0
0
0
0
0
0
0
0
0
0
0
0
0
0
0
0
0
0
0
0
0
0
0
0
0
0
0
0
0
0
0
0
0
0
0
0
0
4.61025e-07
1.872e-06
2.99465e-06
3.64887e-06
3.85084e-06
3.65131e-06
3.09519e-06
2.34485e-06
1.59215e-06
9.51628e-07
4.47453e-07
8.59618e-08
0
0
3.70032e-07
1.83788e-06
3.47916e-06
3.16706e-06
2.48814e-06
1.96449e-06
1.62899e-06
1.60507e-06
1.63726e-06
4.94857e-07
1.43053e-07
3.27716e-08
0
0
3.16435e-09
3.85009e-08
4.90834e-08
2.2756e-08
0
0
0
0
0
0
0
0
0
0
1.29902e-07
6.02592e-07
1.55075e-06
3.11303e-06
5.14864e-06
7.08829e-06
7.17465e-06
1.65048e-06
0
0
0
0
0
0
0
0
7.74797e-09
2.48429e-07
3.3969e-07
3.63744e-07
3.36837e-07
2.82576e-07
2.24851e-07
1.64628e-07
1.2456e-07
1.26631e-07
1.43509e-07
1.15096e-07
4.89994e-09
0
0
0
0
0
0
0
0
0
0
0
0
0
0
0
0
0
0
0
0
0
0
0
0
0
0
0
0
0
0
0
0
0
0
0
0
0
0
0
0
0
0
0
0
0
0
6.79188e-10
0
0
0
0
0
0
0
0
0
6.65642e-09
2.58438e-09
0
0
0
0
0
0
0
0
0
0
0
0
0
0
0
0
0
0
0
0
0
0
0
0
0
0
0
0
0
0
0
0
0
0
0
0
0
0
0
0
0
0
0
0
0
0
0
0
0
0
0
0
2.95149e-07
1.33073e-06
2.47616e-06
3.62729e-06
4.55256e-06
4.87475e-06
4.25442e-06
2.83443e-06
1.09761e-06
0
0
0
0
1.41547e-06
3.20497e-06
3.59675e-06
3.24049e-06
2.7914e-06
2.52003e-06
2.47425e-06
1.6666e-06
7.2825e-07
3.07113e-07
1.2733e-07
4.56257e-08
2.45029e-08
5.93493e-08
1.36889e-07
1.97961e-07
1.94563e-07
1.49467e-07
9.78967e-08
5.83349e-08
3.16499e-08
8.42782e-09
0
0
0
0
0
0
9.48962e-08
3.90774e-07
9.18193e-07
1.56052e-06
1.91774e-06
1.29242e-06
0
0
0
0
0
0
0
0
0
0
0
9.60293e-08
1.68215e-07
2.14276e-07
2.40513e-07
2.31185e-07
1.97246e-07
1.43633e-07
7.98259e-08
2.51685e-08
0
0
0
3.30641e-08
3.39934e-08
0
0
0
0
0
0
0
0
0
0
0
0
0
0
0
0
0
0
0
0
0
0
0
0
0
1.18777e-08
4.16787e-09
0
0
0
0
0
0
0
0
0
0
0
0
0
0
0
0
0
0
2.85146e-09
2.44856e-09
0
0
0
0
0
0
0
0
3.90626e-09
1.92507e-09
0
0
0
0
0
0
0
0
0
0
0
0
0
0
0
0
0
0
0
0
0
0
0
0
0
0
0
0
0
0
0
0
0
0
0
0
0
0
0
0
0
0
0
0
0
0
0
0
0
0
0
0
0
5.81775e-07
1.50828e-06
2.62146e-06
3.75221e-06
4.36899e-06
3.62539e-06
1.33021e-06
0
0
0
0
1.09436e-07
8.97367e-07
1.34292e-06
1.56758e-06
1.69372e-06
1.61512e-06
1.22644e-06
7.88092e-07
4.59388e-07
2.385e-07
9.89204e-08
2.78635e-08
3.07746e-08
1.1699e-07
2.35202e-07
2.93764e-07
2.82469e-07
2.3699e-07
1.82199e-07
1.37518e-07
1.06573e-07
7.9367e-08
4.7877e-08
1.46654e-08
0
0
0
0
0
0
0
0
0
0
0
0
0
0
0
0
0
0
0
0
0
1.73406e-07
1.76779e-07
1.77987e-07
2.03117e-07
1.95557e-07
1.67665e-07
1.50482e-07
1.1141e-07
2.17502e-08
0
0
0
0
0
1.94476e-08
1.30037e-07
1.27505e-07
8.12212e-08
3.03892e-08
0
0
0
0
0
0
0
0
0
0
0
3.84984e-08
0
0
0
0
0
0
2.06489e-08
5.37705e-08
5.45259e-08
3.95577e-08
2.24679e-08
8.47742e-09
7.4821e-10
1.55008e-09
6.38013e-09
7.16221e-09
6.00532e-09
6.76646e-09
6.33783e-09
1.50716e-09
0
0
0
0
0
0
0
0
0
3.87851e-09
4.32229e-09
2.06335e-10
0
0
0
0
0
0
0
3.12411e-09
2.36935e-09
0
0
0
0
0
0
0
0
0
0
0
0
0
0
0
0
0
0
0
0
0
0
0
0
0
0
0
0
0
0
0
0
0
0
0
0
0
0
0
0
0
0
0
0
0
0
0
0
0
0
0
0
0
0
2.5491e-07
7.67763e-07
1.1978e-06
1.16959e-06
4.76848e-07
0
0
0
3.461e-09
3.91833e-07
7.25448e-07
9.59885e-07
1.07149e-06
1.04151e-06
9.06694e-07
6.93355e-07
4.9726e-07
3.22079e-07
1.73476e-07
5.92306e-08
0
1.45259e-08
1.19427e-07
2.4e-07
3.02466e-07
3.09491e-07
2.80974e-07
2.35917e-07
1.94216e-07
1.66311e-07
1.44999e-07
1.21782e-07
9.92908e-08
8.35961e-08
6.88088e-08
1.70946e-08
0
0
0
0
0
0
0
0
0
0
0
0
0
0
0
0
0
1.32517e-07
2.86272e-07
1.92384e-07
1.36857e-07
1.55158e-07
1.41112e-07
9.2567e-08
8.64252e-08
1.28755e-07
8.89803e-08
0
0
0
0
0
0
0
9.12537e-08
8.13409e-08
1.12366e-08
0
0
0
0
0
0
0
0
0
0
0
7.14862e-09
5.64928e-08
3.97135e-08
1.06101e-08
0
0
7.39266e-09
5.97459e-08
7.94857e-08
7.88772e-08
6.88093e-08
5.30261e-08
3.92888e-08
2.74984e-08
1.74692e-08
1.05429e-08
7.80013e-09
8.15119e-09
1.03811e-08
1.29199e-08
1.18888e-08
5.59082e-09
0
0
0
0
0
0
0
0
0
3.20439e-09
2.01513e-09
0
0
0
0
0
0
0
0
5.01686e-09
3.74e-09
0
0
0
0
0
0
0
0
0
0
0
0
0
0
0
0
0
0
0
0
0
0
0
0
0
0
0
0
0
0
0
0
0
0
0
0
0
0
0
0
0
0
0
0
0
0
0
0
0
0
0
0
0
0
0
0
0
8.12668e-08
1.86887e-07
3.3158e-07
4.91007e-07
6.25403e-07
7.2116e-07
7.83152e-07
7.92487e-07
7.67594e-07
6.84191e-07
5.87872e-07
4.6056e-07
3.51114e-07
2.3467e-07
1.28695e-07
4.01868e-08
0
0
6.90355e-08
1.60223e-07
2.27309e-07
2.66813e-07
2.76291e-07
2.56728e-07
2.23662e-07
1.98427e-07
1.828e-07
1.71357e-07
1.66685e-07
1.73258e-07
1.8777e-07
1.79995e-07
9.9487e-08
0
0
0
0
0
0
0
0
0
0
0
0
0
0
0
9.25685e-08
2.64419e-07
3.17113e-07
1.73727e-07
6.58074e-08
8.81427e-08
9.79087e-08
2.96408e-08
0
1.4178e-08
9.30358e-08
0
0
0
0
0
0
0
0
4.656e-08
6.20117e-09
0
0
0
0
0
0
0
0
0
0
0
0
3.26367e-08
5.47904e-08
4.13233e-08
2.2246e-08
1.27424e-08
2.66314e-08
6.03909e-08
8.43839e-08
8.91367e-08
8.53423e-08
7.61742e-08
6.36629e-08
5.40287e-08
4.62697e-08
3.68657e-08
2.34148e-08
1.03669e-08
5.67114e-09
8.17803e-09
9.94539e-09
7.19918e-09
1.43295e-09
0
0
0
0
0
0
0
0
0
0
0
0
0
0
0
0
0
0
0
1.2024e-08
5.51561e-09
0
0
0
0
0
0
0
0
0
0
0
0
0
0
0
0
0
0
0
0
0
0
0
0
0
0
0
0
0
0
0
0
0
0
0
0
0
0
0
0
0
0
0
0
0
0
0
0
0
0
0
0
0
0
0
0
0
2.18461e-07
4.06746e-07
5.025e-07
5.37754e-07
5.389e-07
5.35873e-07
5.15296e-07
4.9027e-07
4.34676e-07
3.78693e-07
3.11297e-07
2.45581e-07
1.73432e-07
1.06042e-07
4.5118e-08
1.80063e-09
0
2.65897e-08
8.1103e-08
1.34635e-07
1.79381e-07
2.07322e-07
2.12826e-07
1.98243e-07
1.80749e-07
1.70637e-07
1.66578e-07
1.70419e-07
1.84631e-07
2.10376e-07
2.33681e-07
2.358e-07
1.77662e-07
0
0
0
0
0
0
0
0
0
0
0
0
0
1.99174e-07
2.08816e-07
2.72576e-07
3.56739e-07
2.37339e-07
6.76689e-08
4.47951e-08
8.17613e-08
3.04241e-08
0
0
0
0
0
0
0
0
0
0
0
0
0
0
0
0
0
0
0
0
0
0
0
0
0
4.40175e-08
5.99113e-08
4.98723e-08
3.5248e-08
2.99636e-08
4.82388e-08
7.8669e-08
9.73747e-08
1.02916e-07
9.87751e-08
9.09434e-08
8.11163e-08
7.01425e-08
6.44616e-08
6.2143e-08
5.70639e-08
4.43432e-08
2.7527e-08
1.58935e-08
1.09519e-08
6.62578e-09
1.1548e-09
0
0
0
1.36038e-09
1.25115e-09
0
0
0
0
0
0
0
0
0
0
0
0
0
0
0
2.546e-08
3.75515e-09
0
0
0
0
0
0
0
0
0
0
0
0
0
0
0
0
0
0
0
0
0
0
0
0
0
0
0
0
0
0
0
0
0
0
0
0
0
0
0
0
0
0
0
0
0
0
0
0
0
0
0
0
0
0
0
0
6.63008e-08
2.27843e-07
3.0871e-07
3.35768e-07
3.34863e-07
3.20895e-07
3.00775e-07
2.79955e-07
2.54664e-07
2.22599e-07
1.93406e-07
1.5975e-07
1.22382e-07
8.37e-08
4.24095e-08
7.19134e-09
0
9.88088e-10
2.5888e-08
5.74903e-08
9.01197e-08
1.18134e-07
1.34539e-07
1.34724e-07
1.26599e-07
1.20092e-07
1.16155e-07
1.17437e-07
1.22343e-07
1.32878e-07
1.46519e-07
1.61e-07
1.72599e-07
1.4915e-07
4.60369e-08
0
0
0
0
0
0
0
0
0
0
0
4.58302e-08
1.42464e-07
2.04582e-07
3.34255e-07
2.96392e-07
1.15708e-07
2.57403e-08
5.05188e-08
5.78312e-08
0
0
0
0
0
0
0
0
0
0
0
0
0
0
0
0
0
0
0
1.68086e-08
0
0
0
0
5.77242e-08
9.27298e-08
8.26271e-08
6.4439e-08
5.33355e-08
5.84441e-08
8.81468e-08
1.19308e-07
1.29045e-07
1.26954e-07
1.17774e-07
1.09367e-07
1.01814e-07
9.06518e-08
7.67557e-08
7.06379e-08
7.0498e-08
6.68891e-08
5.51426e-08
3.90578e-08
2.50239e-08
1.46165e-08
6.10692e-09
2.95747e-10
0
3.04878e-09
9.56258e-09
1.24895e-08
6.31478e-09
0
0
0
0
0
0
0
0
0
0
0
0
0
0
0
3.343e-08
0
0
0
0
0
0
0
0
0
0
0
0
0
0
0
0
0
0
0
0
0
0
0
0
0
0
0
0
0
0
0
0
0
0
0
0
0
0
0
0
0
0
0
0
0
0
0
0
0
0
0
0
0
0
0
0
0
3.41474e-08
1.22599e-07
1.56806e-07
1.62199e-07
1.56284e-07
1.45682e-07
1.31791e-07
1.197e-07
1.06546e-07
1.00006e-07
8.7988e-08
7.00266e-08
4.79998e-08
2.20228e-08
0
0
0
0
7.80298e-09
2.18951e-08
3.75092e-08
5.07811e-08
5.54425e-08
5.12589e-08
4.3973e-08
3.52342e-08
2.87504e-08
2.05998e-08
1.08454e-08
1.56493e-09
2.44138e-11
9.42044e-09
3.05492e-08
7.64102e-08
1.57864e-07
3.18835e-07
5.87042e-07
9.61623e-07
1.45212e-06
1.64044e-06
0
0
0
0
0
0
1.24648e-07
2.24448e-07
3.68932e-07
3.82333e-07
1.91416e-07
2.82727e-08
0
4.75832e-08
0
0
0
0
0
0
0
0
0
0
0
0
0
0
0
0
0
6.28472e-09
8.29595e-09
9.83277e-09
1.63758e-08
0
0
8.35026e-08
1.34682e-07
1.51895e-07
1.28139e-07
9.51782e-08
7.66238e-08
8.1565e-08
1.09824e-07
1.35961e-07
1.43449e-07
1.37748e-07
1.23344e-07
1.14991e-07
1.13829e-07
1.12518e-07
1.01074e-07
8.39001e-08
7.33333e-08
6.91501e-08
6.33673e-08
5.28637e-08
3.93984e-08
2.72529e-08
1.73608e-08
9.73298e-09
6.23992e-09
8.34675e-09
1.5265e-08
2.17692e-08
1.85055e-08
4.95569e-09
0
0
0
0
0
0
0
0
0
0
0
0
0
0
6.94288e-09
2.1424e-08
0
0
0
0
0
0
0
0
0
0
0
0
0
0
0
0
0
0
0
0
0
0
0
0
0
0
0
0
0
0
0
0
0
0
0
0
0
0
0
0
0
0
0
0
0
0
0
0
1.92641e-08
4.83087e-08
0
0
0
0
0
0
0
0
1.724e-08
2.44835e-08
2.21549e-08
2.03742e-08
2.22797e-08
2.47416e-08
2.53025e-08
2.64908e-08
2.35464e-08
1.53543e-08
5.37114e-09
0
0
0
0
0
0
0
0
0
0
0
0
0
0
0
0
0
0
0
0
0
8.2174e-08
3.92693e-07
9.29914e-07
1.75721e-06
3.10151e-06
5.03527e-06
6.08262e-06
0
0
0
0
0
1.78598e-07
2.75075e-07
3.79874e-07
4.08309e-07
2.38989e-07
2.50145e-08
0
0
0
0
0
0
0
0
0
0
0
0
0
0
0
0
2.36401e-08
4.88427e-08
6.71178e-08
7.98047e-08
6.79493e-08
5.00587e-08
3.55431e-08
1.78569e-08
4.76282e-08
1.24706e-07
1.65897e-07
1.79032e-07
1.70371e-07
1.39812e-07
1.12405e-07
1.0366e-07
1.14252e-07
1.3219e-07
1.43263e-07
1.39231e-07
1.18172e-07
1.04399e-07
1.05639e-07
1.13047e-07
1.14738e-07
1.01083e-07
8.29373e-08
7.00607e-08
6.24183e-08
5.56865e-08
4.7691e-08
3.83437e-08
2.96422e-08
2.23308e-08
1.72622e-08
1.66901e-08
2.11207e-08
2.77121e-08
2.79014e-08
1.63293e-08
7.82051e-11
0
0
0
0
0
0
0
0
0
0
0
0
0
0
1.49235e-08
0
0
0
0
0
0
0
0
0
0
0
0
0
0
0
0
0
0
0
0
0
0
0
0
0
0
0
0
0
0
0
0
0
0
0
0
0
0
0
0
0
0
0
0
0
0
0
2.09629e-08
9.21494e-08
1.39555e-07
1.42227e-07
5.26932e-08
0
0
0
0
0
0
0
0
0
0
0
0
0
0
0
0
0
0
0
0
0
0
0
0
0
0
0
0
0
0
0
0
0
0
0
0
0
0
0
1.81257e-07
6.65143e-07
1.41239e-06
2.57131e-06
3.93663e-06
3.53425e-06
0
0
0
0
0
2.62218e-07
3.40269e-07
4.12917e-07
4.44226e-07
2.82211e-07
3.12671e-09
0
0
0
0
0
0
0
0
0
0
0
0
0
0
0
0
2.32831e-08
8.40974e-08
9.82254e-08
1.03668e-07
9.25117e-08
6.70053e-08
4.47612e-08
3.84602e-08
8.20924e-08
1.46234e-07
1.88596e-07
2.00596e-07
1.92187e-07
1.73472e-07
1.43691e-07
1.27464e-07
1.28305e-07
1.37533e-07
1.45383e-07
1.43514e-07
1.21566e-07
9.91998e-08
9.37812e-08
1.01155e-07
1.10252e-07
1.07133e-07
9.02668e-08
7.36399e-08
6.24784e-08
5.59806e-08
5.13966e-08
4.64169e-08
4.0458e-08
3.45999e-08
2.9573e-08
2.70705e-08
2.86134e-08
3.2637e-08
3.33797e-08
2.52458e-08
9.46598e-09
0
0
0
0
0
0
0
0
0
0
0
0
0
0
0
0
0
0
0
0
0
0
0
0
0
0
0
0
0
0
0
0
0
0
0
0
0
0
0
0
0
0
0
0
0
0
0
0
0
0
0
0
0
0
0
1.54383e-08
6.59807e-08
5.16269e-08
1.72275e-08
0
0
0
2.54047e-08
8.8269e-08
1.49548e-07
2.0141e-07
1.91513e-07
4.22722e-08
0
1.85027e-07
1.39755e-07
1.48623e-09
0
0
0
0
0
0
0
0
0
0
0
0
0
0
0
0
0
0
0
0
0
0
0
0
0
0
0
0
0
0
0
0
0
0
0
2.69876e-07
7.74016e-07
1.43164e-06
1.87164e-06
1.11841e-06
0
0
0
0
3.95491e-08
3.15116e-07
3.37703e-07
3.78398e-07
4.2807e-07
2.96568e-07
0
0
0
1.83587e-08
0
0
0
0
0
0
0
0
0
0
0
0
0
1.01406e-07
1.3611e-07
1.2204e-07
1.04651e-07
8.62532e-08
6.56504e-08
5.13596e-08
6.50862e-08
1.25057e-07
1.70749e-07
2.04833e-07
2.19487e-07
2.12239e-07
1.94963e-07
1.66363e-07
1.42276e-07
1.35181e-07
1.37868e-07
1.42566e-07
1.43853e-07
1.28418e-07
1.03323e-07
8.90116e-08
9.02337e-08
9.98865e-08
1.04689e-07
9.39855e-08
7.73369e-08
6.45854e-08
5.75136e-08
5.44956e-08
5.23878e-08
4.91982e-08
4.51581e-08
4.10465e-08
3.78344e-08
3.71443e-08
3.80361e-08
3.68564e-08
3.00418e-08
1.74536e-08
2.70253e-09
0
0
0
0
0
0
0
0
0
0
0
0
0
0
0
0
0
0
0
0
0
0
0
0
0
0
0
0
0
0
0
0
0
0
0
0
0
0
0
0
0
0
0
0
0
0
0
0
0
0
0
0
0
1.18437e-09
4.66253e-08
5.13085e-08
8.06221e-09
0
0
2.6203e-08
3.58395e-08
2.83677e-08
5.97727e-08
1.32239e-07
2.05825e-07
1.90636e-07
4.56584e-08
0
6.42131e-08
6.12229e-08
0
0
0
0
0
0
0
0
0
0
0
0
0
0
0
0
0
0
0
0
0
0
0
0
0
0
0
0
0
0
0
0
0
0
0
0
0
2.53196e-07
6.103e-07
7.7528e-07
4.00187e-07
0
0
0
0
9.07552e-08
2.8118e-07
2.78718e-07
3.48686e-07
4.36284e-07
3.17356e-07
0
0
0
7.45347e-08
7.95622e-11
0
0
0
0
0
0
0
0
0
0
0
0
1.82989e-07
1.96488e-07
1.61837e-07
1.21293e-07
8.96834e-08
7.05546e-08
6.96452e-08
1.03205e-07
1.50876e-07
1.75972e-07
2.0365e-07
2.16895e-07
2.13025e-07
1.99808e-07
1.79134e-07
1.51413e-07
1.37575e-07
1.36083e-07
1.40701e-07
1.46309e-07
1.38038e-07
1.14437e-07
9.14916e-08
8.40504e-08
9.03254e-08
9.91793e-08
9.62621e-08
8.21366e-08
6.87565e-08
6.09023e-08
5.82126e-08
5.78183e-08
5.63049e-08
5.35307e-08
5.05393e-08
4.74706e-08
4.53588e-08
4.38857e-08
3.99988e-08
3.21646e-08
2.1805e-08
9.61182e-09
0
0
0
0
0
0
0
0
0
0
0
0
0
0
0
0
0
0
0
0
0
0
0
0
0
0
0
0
0
0
0
0
0
0
0
0
0
0
0
0
0
0
0
0
0
0
0
0
0
0
0
0
1.27907e-08
2.8309e-08
4.22789e-08
2.83125e-08
0
0
0
0
0
1.85911e-08
4.5646e-08
6.74482e-08
8.7957e-08
4.81228e-08
0
0
3.12519e-08
3.38943e-08
0
0
0
0
0
0
0
0
0
0
0
0
0
0
0
0
0
0
0
0
0
0
0
0
0
0
0
0
0
0
0
0
0
0
0
0
0
0
1.52571e-07
2.80238e-07
1.36503e-07
0
0
0
0
3.75685e-08
1.50972e-07
1.68771e-07
3.19771e-07
4.43014e-07
3.01691e-07
0
0
3.48664e-07
1.5711e-07
1.46678e-08
0
0
0
0
0
0
0
9.11287e-08
1.21212e-06
0
0
7.33915e-08
2.07989e-07
2.14457e-07
1.83037e-07
1.40543e-07
1.04817e-07
8.76999e-08
9.70385e-08
1.28785e-07
1.53141e-07
1.71424e-07
1.92616e-07
2.04243e-07
2.02422e-07
1.92526e-07
1.78361e-07
1.53847e-07
1.36114e-07
1.32974e-07
1.39237e-07
1.4995e-07
1.48225e-07
1.28578e-07
1.00415e-07
8.37038e-08
8.41185e-08
9.364e-08
9.6435e-08
8.65109e-08
7.34501e-08
6.47768e-08
6.16395e-08
6.19053e-08
6.15275e-08
5.91752e-08
5.65818e-08
5.41736e-08
5.16659e-08
4.88611e-08
4.27724e-08
3.26206e-08
2.23148e-08
1.33511e-08
3.07346e-09
0
0
0
0
0
0
0
0
0
0
0
0
0
0
0
0
0
0
0
0
0
0
0
0
0
0
0
0
0
0
0
0
0
0
0
0
0
0
0
0
0
0
0
0
0
0
0
0
0
0
0
0
6.2548e-09
3.61454e-08
3.99873e-08
1.61932e-08
0
0
0
0
0
0
9.92693e-09
1.57095e-08
0
0
0
4.65298e-08
6.04102e-08
4.09656e-08
1.23347e-08
0
0
0
0
0
0
0
0
0
0
0
0
0
0
0
0
0
0
0
0
0
0
0
0
0
0
0
0
0
0
0
0
0
0
0
0
0
7.82514e-08
5.94613e-08
0
0
0
0
0
0
7.02245e-08
3.28979e-07
4.44181e-07
2.67488e-07
0
7.89642e-07
7.23183e-07
2.83034e-07
4.66207e-08
0
0
0
1.67277e-08
5.55558e-08
6.46386e-08
7.63645e-08
2.27304e-07
7.508e-07
0
0
1.52594e-07
2.18233e-07
2.12921e-07
1.83566e-07
1.4668e-07
1.15287e-07
1.02931e-07
1.13699e-07
1.34699e-07
1.50861e-07
1.65233e-07
1.76323e-07
1.83366e-07
1.83123e-07
1.77419e-07
1.68205e-07
1.50558e-07
1.33133e-07
1.28674e-07
1.34749e-07
1.47626e-07
1.50921e-07
1.36109e-07
1.08219e-07
8.48263e-08
7.89051e-08
8.62908e-08
9.26413e-08
8.6758e-08
7.45901e-08
6.54344e-08
6.17546e-08
6.18943e-08
6.23535e-08
6.05377e-08
5.79506e-08
5.58413e-08
5.36867e-08
5.04932e-08
4.34597e-08
3.1123e-08
1.93126e-08
1.22154e-08
6.15425e-09
0
0
0
0
0
0
0
0
1.69673e-08
0
0
0
0
0
0
0
0
0
0
0
0
0
0
0
0
0
0
0
0
0
0
0
0
0
0
0
0
0
0
0
0
0
0
0
0
0
0
0
0
0
0
0
0
1.65705e-08
3.32866e-08
2.53349e-08
0
0
0
0
0
0
0
1.16606e-08
1.25018e-08
7.47502e-09
1.53918e-08
4.50738e-08
6.2215e-08
6.53686e-08
5.45597e-08
1.73876e-08
0
0
0
0
0
0
0
0
0
0
0
0
0
0
0
0
0
0
0
0
0
0
0
0
0
0
0
0
0
0
0
0
0
0
0
0
5.78299e-08
8.08916e-08
0
0
0
0
0
0
8.09762e-08
3.72914e-07
4.30707e-07
2.22996e-07
3.00072e-07
1.45405e-06
9.78363e-07
4.33152e-07
1.04951e-07
0
0
3.13927e-08
8.899e-08
1.02989e-07
9.82207e-08
1.17303e-07
1.81402e-07
3.57104e-07
5.79625e-08
8.62935e-08
2.01329e-07
2.31352e-07
2.21604e-07
1.90235e-07
1.53474e-07
1.25752e-07
1.14978e-07
1.21084e-07
1.34499e-07
1.47037e-07
1.58997e-07
1.6225e-07
1.6212e-07
1.62865e-07
1.62496e-07
1.58851e-07
1.49775e-07
1.35784e-07
1.31077e-07
1.35987e-07
1.4808e-07
1.54124e-07
1.43226e-07
1.17877e-07
9.09114e-08
7.88086e-08
8.16817e-08
8.91566e-08
8.69748e-08
7.57802e-08
6.58572e-08
6.16331e-08
6.14509e-08
6.28971e-08
6.24378e-08
6.00898e-08
5.78111e-08
5.56043e-08
5.22949e-08
4.49739e-08
3.09634e-08
1.6588e-08
9.06392e-09
6.43473e-09
1.55911e-09
0
0
0
0
0
0
0
2.39801e-08
2.39696e-08
0
0
0
0
0
0
0
0
0
0
0
0
0
0
0
0
0
0
0
0
0
0
0
0
0
0
0
0
0
0
0
0
0
0
0
0
0
0
0
0
0
0
0
2.73071e-09
8.7794e-09
7.61461e-09
0
0
0
0
0
0
0
9.90035e-09
4.7095e-08
5.41435e-08
5.70947e-08
5.89082e-08
6.10198e-08
5.67105e-08
4.61627e-08
2.21239e-08
0
0
0
0
0
0
0
0
0
0
0
0
0
0
0
0
0
0
0
0
0
0
0
0
0
0
0
0
0
0
0
0
0
0
0
0
1.06964e-07
1.50805e-07
0
0
0
0
0
0
2.29264e-07
4.23312e-07
3.98609e-07
2.32543e-07
1.19603e-06
1.63667e-06
1.12653e-06
5.57329e-07
1.75242e-07
2.79862e-08
2.78885e-08
1.32277e-07
1.32541e-07
8.03364e-08
6.15229e-08
6.6672e-08
9.15322e-08
1.98699e-07
1.18246e-07
1.76506e-07
2.20592e-07
2.23834e-07
2.09396e-07
1.84796e-07
1.51937e-07
1.29473e-07
1.19023e-07
1.19741e-07
1.26726e-07
1.34116e-07
1.41665e-07
1.42706e-07
1.42032e-07
1.43972e-07
1.45906e-07
1.45428e-07