/*--------------------------------*- C++ -*----------------------------------*\
  =========                 |
  \\      /  F ield         | OpenFOAM: The Open Source CFD Toolbox
   \\    /   O peration     | Website:  https://openfoam.org
    \\  /    A nd           | Version:  7
     \\/     M anipulation  |
\*---------------------------------------------------------------------------*/
FoamFile
{
    version     2.0;
    format      ascii;
    class       volScalarField;
    location    "0.057";
    object      p;
}
// * * * * * * * * * * * * * * * * * * * * * * * * * * * * * * * * * * * * * //

dimensions      [0 2 -2 0 0 0 0];

internalField   nonuniform List<scalar> 
12225
(
86.9817
90.3452
91.3499
91.4026
91.0826
90.5584
89.9136
89.2212
88.5239
87.8236
87.1082
86.3783
85.649
84.9357
84.2387
83.5485
82.8388
82.0659
87.6456
90.4217
91.3716
91.421
91.0914
90.5625
89.9163
89.2225
88.5239
87.8237
87.1091
86.3802
85.6523
84.9411
84.2471
83.5595
82.861
82.1244
89.0306
90.5616
91.4089
91.451
91.1078
90.5709
89.9253
89.2326
88.5315
87.827
87.1113
86.386
85.6647
84.9591
84.2698
83.5885
82.9076
82.212
89.2666
90.757
91.4997
91.5201
91.1554
90.6021
89.9495
89.2523
88.5438
87.8328
87.1164
86.3963
85.682
84.9825
84.3004
83.6297
82.9667
82.3091
90.075
91.0258
91.635
91.6103
91.2176
90.6423
89.9774
89.2732
88.5579
87.8419
87.1252
86.4092
85.7012
85.0089
84.3354
83.6773
83.0342
82.4109
89.643
91.3422
91.8281
91.7403
91.3108
90.705
90.0203
89.3042
88.5801
87.8581
87.1401
86.4274
85.7256
85.0412
84.3774
83.7334
83.1108
82.5164
91.035
91.7716
92.0786
91.9069
91.4288
90.7864
90.0762
89.3432
88.6075
87.8782
87.1579
86.448
85.7524
85.0763
84.4232
83.7939
83.1909
82.6211
91.5442
92.3146
92.4094
92.1221
91.5754
90.8863
90.1439
89.3897
88.6408
87.9042
87.1816
86.474
85.7843
85.1168
84.4747
83.8596
83.2747
82.7255
92.9205
92.951
92.8088
92.3866
91.7567
91.0115
90.2291
89.4481
88.6826
87.9368
87.2105
86.504
85.8194
85.16
84.5286
83.9272
83.3586
82.8273
93.7566
93.6748
93.2915
92.7018
91.9637
91.1524
90.3274
89.5175
88.7325
87.9745
87.2426
86.5365
85.8572
85.2064
84.5858
83.9972
83.4429
82.9254
94.5612
94.5037
93.8556
93.0766
92.2119
91.3185
90.4387
89.5922
88.7845
88.0143
87.278
86.5729
85.8983
85.255
84.6441
84.0666
83.5244
83.0187
96.747
95.4374
94.4526
93.4603
92.4545
91.4783
90.5486
89.669
88.8388
88.0549
87.3119
86.6057
85.9347
85.298
84.6956
84.1278
83.5955
83.0994
97.7613
96.3395
95.0957
93.8763
92.7216
91.6512
90.6616
89.7427
88.8887
88.0925
87.3449
86.6392
85.972
85.3417
84.7471
84.1876
83.6637
83.1748
97.8708
97.4715
95.9058
94.3811
93.0242
91.8389
90.7845
89.8254
88.9454
88.1336
87.3787
86.6716
86.0076
85.3834
84.7971
84.2469
83.7322
83.2514
101.126
99.1605
96.8589
94.9305
93.3528
92.04
90.9071
89.8995
88.992
88.1672
87.4085
86.7035
86.0447
85.4279
84.85
84.3089
83.803
83.3303
108.177
101.655
97.9186
95.4577
93.6336
92.1885
90.9818
89.9369
89.0119
88.178
87.4158
86.7131
86.0612
85.4536
84.8861
84.3555
83.8594
83.395
110.392
102.467
98.2243
95.5519
93.6448
92.1645
90.9356
89.8808
88.9563
88.1295
87.3786
86.6895
86.0525
85.4601
84.9073
84.3904
83.9065
83.4531
104.278
99.9116
96.9623
94.8354
93.1737
91.8182
90.6615
89.6577
88.773
87.9786
87.2559
86.5925
85.9784
85.407
84.8734
84.3739
83.9053
83.4648
90.2423
94.047
94.0999
93.1579
92.0523
90.9858
90.0114
89.1397
88.3549
87.6398
86.984
86.3774
85.8108
85.2788
84.7788
84.3078
83.8627
83.441
100.007
95.5748
93.474
92.0776
90.9935
90.0824
89.2772
88.5488
87.8786
87.2541
86.6691
86.1185
85.5972
85.1028
84.6343
84.1903
83.7684
83.367
98.9419
94.6331
92.2921
90.9397
89.9835
89.2142
88.5506
87.9495
87.3868
86.8513
86.3405
85.8525
85.3835
84.9315
84.4968
84.0795
83.6788
83.2937
95.6535
91.9708
90.3908
89.5467
88.9359
88.428
87.9631
87.5059
87.0455
86.5833
86.126
85.6778
85.2396
84.8121
84.3969
83.9955
83.608
83.2343
89.3051
88.4523
88.2969
88.1533
87.9318
87.6659
87.3663
87.0295
86.6606
86.2702
85.8707
85.4706
85.0724
84.6775
84.2882
83.9068
83.5354
83.1747
80.314
85.0652
86.4635
86.9849
87.1488
87.1301
86.9914
86.7602
86.4606
86.1171
85.7509
85.3745
84.9944
84.6127
84.2337
83.8612
83.4953
83.139
78.6649
83.3663
85.218
86.0949
86.5072
86.6557
86.6253
86.4669
86.2229
85.9252
85.5958
85.2505
84.8942
84.5335
84.1704
83.8086
83.4536
83.1047
80.3571
82.6073
84.43
85.5087
86.111
86.3925
86.443
86.3356
86.1261
85.8528
85.5403
85.2063
84.8586
84.5026
84.1448
83.7879
83.4343
83.0863
79.5115
82.0336
83.8623
85.0769
85.8138
86.1728
86.2682
86.1954
86.0143
85.7632
85.4696
85.1486
84.8125
84.4678
84.1183
83.7669
83.4168
83.071
79.0893
81.6123
83.5327
84.8509
85.6672
86.0671
86.189
86.1379
85.9736
85.7335
85.4463
85.1303
84.7994
84.4592
84.1124
83.7617
83.4105
83.063
77.509
81.1847
83.2976
84.7187
85.5764
85.9944
86.1306
86.0938
85.9398
85.7049
85.4198
85.1077
84.7826
84.449
84.1073
83.759
83.407
83.0572
77.6316
81.0387
83.2027
84.6892
85.5516
85.9697
86.1113
86.0813
85.9318
85.6992
85.4157
85.1054
84.7824
84.4508
84.1107
83.7631
83.4108
83.0598
73.2229
73.2113
73.227
73.2717
73.3268
73.3574
73.3426
73.2767
73.16
72.9996
72.804
72.5819
72.3424
72.0954
71.851
71.6195
71.4111
71.2344
71.0958
70.9984
70.9395
70.9146
70.9169
70.9372
70.9647
70.986
70.9916
70.9678
70.9075
70.8056
70.6449
70.479
70.3373
70.2057
70.0748
69.9969
69.9628
69.8611
69.7564
69.597
69.3752
69.139
68.9531
68.9202
69.0069
68.8629
68.4284
67.6997
66.7539
65.6936
64.5976
63.5142
62.473
61.4907
60.577
59.7382
58.9785
58.3011
57.7086
57.2025
56.7831
56.4491
56.1978
56.0249
55.9263
55.8957
55.925
56.0055
56.1287
56.2867
56.4727
56.6807
56.9063
57.1462
57.3983
57.6619
57.9369
58.2239
58.5239
58.8378
59.1663
59.5095
59.8667
60.236
60.6146
60.9988
61.3838
61.7646
62.1355
62.4912
62.826
63.1348
63.413
63.6565
63.8621
64.0275
64.151
64.2316
64.2696
64.2658
64.2212
64.1374
64.0153
63.8558
63.6614
63.434
63.1764
62.8921
62.585
62.2591
61.9183
61.5661
61.2054
60.8385
60.4673
60.093
59.7165
59.3385
58.9593
58.5792
58.1981
57.8163
57.4335
57.0498
56.6647
56.2786
55.8911
55.5024
55.1124
54.7209
54.3279
53.9335
53.5374
53.1397
52.7404
52.3394
51.9366
51.532
51.1256
50.7172
50.3066
49.8939
49.4789
49.0614
48.6413
48.2187
47.7933
47.3651
46.934
46.4999
46.0627
45.6225
45.179
44.7324
44.2824
43.8291
43.3724
42.9123
42.4486
41.9815
41.5107
41.0363
40.5583
40.0767
39.5914
39.1025
38.6101
38.1143
37.6151
37.1129
36.6077
36.1001
35.5902
35.079
34.5667
34.0549
33.5443
33.0362
32.5368
32.0303
73.1115
73.0954
73.1095
73.1623
73.2127
73.2327
73.2066
73.1314
73.0098
72.8482
72.6533
72.4322
72.1927
71.9441
71.6972
71.4624
71.2495
71.0668
70.9207
70.8151
70.7524
70.7288
70.7365
70.7652
70.8028
70.8362
70.855
70.8455
70.8009
70.7118
70.5723
70.424
70.311
70.2286
70.1118
69.9903
69.9223
69.7807
69.5353
69.4578
69.5532
69.2805
68.788
68.5902
68.4688
68.1913
67.6944
66.9589
66.0506
65.0534
64.0299
63.0179
62.0408
61.1127
60.2427
59.4383
58.7055
58.0499
57.4757
56.9863
56.5836
56.2677
56.0365
55.8857
55.8074
55.7942
55.8385
55.9322
56.0672
56.2354
56.4298
56.6444
56.8746
57.1172
57.3704
57.6336
57.907
58.1916
58.4887
58.7996
59.1253
59.466
59.8211
60.189
60.567
60.9511
61.3366
61.7184
62.0908
62.4483
62.7853
63.0968
63.3778
63.6243
63.8329
64.001
64.1267
64.2092
64.2487
64.2461
64.2028
64.1203
63.9996
63.8421
63.6495
63.4238
63.1677
62.8846
62.5784
62.2531
61.9128
61.561
61.2006
60.8341
60.4632
60.0892
59.713
59.3353
58.9564
58.5765
58.1956
57.8139
57.4312
57.0475
56.6627
56.2767
55.8895
55.501
55.1111
54.7198
54.327
53.9327
53.5368
53.1392
52.7399
52.339
51.9363
51.5317
51.1253
50.7169
50.3064
49.8937
49.4787
49.0613
48.6411
48.2186
47.7932
47.365
46.9339
46.4998
46.0626
45.6224
45.179
44.7323
44.2824
43.8291
43.3724
42.9122
42.4486
41.9814
41.5106
41.0362
40.5582
40.0765
39.5912
39.1023
38.6098
38.1139
37.6147
37.1123
36.607
36.0991
35.589
35.0773
34.5646
34.0518
33.5405
33.0302
32.5287
32.0194
73.0147
73.0084
73.0177
73.0479
73.0621
73.043
72.9847
72.8867
72.751
72.5802
72.3773
72.1478
71.8993
71.6413
71.3848
71.1414
70.9219
70.7362
70.5915
70.492
70.439
70.4297
70.4559
70.5059
70.5669
70.6269
70.6746
70.7034
70.7092
70.6933
70.6579
70.6038
70.5382
70.448
70.326
70.1706
69.9692
69.9242
69.7724
69.3515
69.1625
68.9631
68.5698
68.1355
67.6758
67.1428
66.5119
65.7775
64.9613
64.0924
63.1978
62.2996
61.4151
60.5589
59.7438
58.9811
58.2809
57.652
57.1017
56.6352
56.2555
55.9639
55.758
55.6322
55.58
55.5943
55.6661
55.7858
55.9442
56.1327
56.3437
56.5711
56.8101
57.0578
57.3128
57.5748
57.8449
58.1246
58.4158
58.7205
59.0401
59.3756
59.7266
60.0916
60.468
60.8518
61.2382
61.6219
61.9971
62.3583
62.6999
63.0166
63.3034
63.556
63.7706
63.9442
64.0746
64.1608
64.203
64.2025
64.1613
64.0811
63.9635
63.8096
63.6207
63.3987
63.1458
62.8652
62.561
62.2374
61.8984
61.5477
61.1883
60.8228
60.4528
60.0797
59.7043
59.3274
58.9491
58.5698
58.1896
57.8084
57.4263
57.0432
56.6589
56.2734
55.8866
55.4985
55.109
54.7179
54.3254
53.9313
53.5356
53.1383
52.7392
52.3384
51.9359
51.5315
51.1252
50.7169
50.3065
49.8939
49.4789
49.0615
48.6416
48.2188
47.7934
47.3651
46.934
46.4999
46.0627
45.6225
45.179
44.7324
44.2824
43.8291
43.3723
42.9122
42.4485
41.9813
41.5105
41.036
40.5579
40.0762
39.5908
39.1017
38.6091
38.113
37.6135
37.1108
36.6051
36.0966
35.5858
35.073
34.5591
34.0439
33.5301
33.015
32.5066
31.9885
72.944
72.9487
72.9429
72.9265
72.8855
72.8153
72.7152
72.5839
72.4193
72.2201
71.9873
71.7257
71.4444
71.1549
70.8705
70.6045
70.3692
70.1754
70.0311
69.9418
69.9109
69.9387
70.0152
70.1234
70.2463
70.3673
70.4756
70.5651
70.6318
70.6784
70.7016
70.7054
70.6984
70.6689
70.5354
70.4558
70.2848
69.9431
69.6968
69.3601
68.9348
68.4632
67.9356
67.368
66.7558
66.1046
65.4122
64.6803
63.9139
63.1206
62.3093
61.49
60.6742
59.8746
59.1046
58.3782
57.7083
57.1068
56.5835
56.1455
55.7966
55.5374
55.3661
55.2774
55.2651
55.3194
55.4299
55.5859
55.7769
55.9935
56.2275
56.4723
56.7233
56.9778
57.2348
57.495
57.76
58.0324
58.3151
58.6108
58.9217
59.2494
59.5941
59.9545
60.3282
60.7111
61.0983
61.4843
61.8632
62.2293
62.577
62.901
63.1963
63.4578
63.6813
63.8631
64.0003
64.0915
64.137
64.1386
64.0992
64.0214
63.9072
63.7583
63.5751
63.3587
63.111
62.8348
62.534
62.2131
61.8764
61.5276
61.1701
60.8062
60.4377
60.0661
59.6921
59.3164
58.9393
58.561
58.1817
57.8013
57.4199
57.0374
56.6537
56.2688
55.8825
55.4948
55.1057
54.715
54.3228
53.929
53.5335
53.1364
52.7375
52.3369
51.9345
51.5303
51.1241
50.7159
50.3056
49.893
49.4781
49.0608
48.6409
48.2182
47.7928
47.3646
46.9335
46.4994
46.0623
45.6221
45.1787
44.732
44.2821
43.8288
43.3721
42.9119
42.4482
41.981
41.5102
41.0357
40.5575
40.0757
39.5902
39.101
38.6082
38.1119
37.6121
37.109
36.6028
36.0937
35.582
35.068
34.5525
34.035
33.518
32.9984
32.4821
31.9554
72.9178
72.9103
72.8679
72.7907
72.6893
72.566
72.4177
72.2382
72.0214
71.7644
71.4694
71.1444
70.8023
70.4583
70.1278
69.8253
69.5636
69.3547
69.209
69.1347
69.1362
69.2148
69.3609
69.5557
69.7751
69.9968
70.201
70.3717
70.5058
70.6052
70.68
70.7298
70.7509
70.7648
70.6922
70.4285
70.1928
69.8561
69.4352
68.9481
68.3937
67.7804
67.1325
66.4642
65.7808
65.0872
64.3841
63.6707
62.9445
62.2024
61.4437
60.6724
59.8974
59.1312
58.3887
57.6863
57.0397
56.463
55.9674
55.5607
55.2466
55.0262
54.8969
54.8548
54.8904
54.9926
55.1494
55.3488
55.5789
55.8292
56.0909
56.3569
56.6225
56.8854
57.1451
57.403
57.6618
57.925
58.1968
58.4809
58.7805
59.098
59.434
59.7878
60.1569
60.5375
60.9245
61.312
61.6941
62.0651
62.4195
62.7522
63.0581
63.332
63.5684
63.7622
63.9092
64.0072
64.0564
64.0593
64.0203
63.9438
63.8327
63.6886
63.5117
63.3023
63.0613
62.7912
62.4955
62.1787
61.8454
61.4996
61.1446
60.7831
60.4168
60.0472
59.675
59.301
58.9254
58.5486
58.1706
57.7914
57.4111
57.0295
56.6467
56.2625
55.8769
55.4898
55.1012
54.711
54.3192
53.9257
53.5306
53.1337
52.7351
52.3347
51.9325
51.5285
51.1225
50.7145
50.3043
49.8919
49.4771
49.0599
48.64
48.2175
47.7922
47.364
46.9329
46.4989
46.0618
45.6216
45.1782
44.7316
44.2817
43.8284
43.3717
42.9115
42.4479
41.9806
41.5098
41.0353
40.5571
40.0751
39.5895
39.1002
38.6072
38.1106
37.6105
37.107
36.6002
36.0903
35.5777
35.0624
34.545
34.0253
33.5046
32.9807
32.4564
31.9222
72.9265
72.875
72.7625
72.6261
72.4728
72.2987
72.095
71.8512
71.5605
71.223
70.8472
70.4475
70.0409
69.6439
69.2706
68.9323
68.6404
68.4091
68.2529
68.1837
68.2092
68.3322
68.5468
68.8338
69.1634
69.4993
69.808
70.072
70.2806
70.4362
70.548
70.6196
70.6693
70.6424
70.5215
70.2682
69.8966
69.4361
68.9027
68.3121
67.6731
66.9909
66.2845
65.5715
64.8671
64.1761
63.4948
62.813
62.1196
61.4058
60.669
59.9131
59.1481
58.3887
57.6521
56.9571
56.3213
55.7604
55.2866
54.9083
54.6295
54.4507
54.3697
54.3807
54.4718
54.6298
54.8407
55.0903
55.3656
55.6548
55.9481
56.2384
56.5209
56.7933
57.0558
57.3106
57.5618
57.8143
58.0733
58.344
58.6305
58.9358
59.2612
59.6064
59.9691
60.3453
60.7298
61.1165
61.4995
61.8731
62.2324
62.5731
62.8906
63.1795
63.4333
63.6443
63.806
63.9143
63.9688
63.9725
63.9329
63.8558
63.7457
63.6049
63.4336
63.2312
62.9976
62.7344
62.4451
62.1338
61.8052
61.4635
61.1122
60.7539
60.3906
60.0237
59.654
59.2821
58.9085
58.5334
58.157
57.7793
57.4003
57.02
56.6383
56.2551
55.8704
55.484
55.096
54.7063
54.3149
53.9218
53.5269
53.1303
52.7319
52.3318
51.9298
51.526
51.1202
50.7124
50.3024
49.8901
49.4755
49.0584
48.6386
48.2162
47.791
47.3629
46.9319
46.4979
46.0609
45.6208
45.1774
44.7309
44.281
43.8278
43.3711
42.911
42.4474
41.9801
41.5093
41.0347
40.5565
40.0745
39.5888
39.0993
38.6061
38.1093
37.6088
37.1048
36.5974
36.0868
35.5731
35.0564
34.5372
34.015
33.4908
32.9626
32.4313
31.8902
72.8188
72.742
72.5866
72.4182
72.2324
72.0155
71.7563
71.4447
71.0786
70.6671
70.2274
69.7778
69.3349
68.9106
68.5115
68.1435
67.8185
67.5556
67.3749
67.2928
67.3217
67.4675
67.7251
68.0764
68.4898
68.9231
69.3321
69.6781
69.9458
70.1436
70.2747
70.3597
70.3722
70.3004
70.1099
69.781
69.3382
68.8176
68.2359
67.603
66.9289
66.2267
65.5153
64.811
64.1257
63.4595
62.8029
62.139
61.4516
60.731
59.9774
59.1994
58.4116
57.632
56.8801
56.1758
55.538
54.9832
54.5247
54.1715
53.9293
53.7982
53.7751
53.8472
54.0024
54.2256
54.5003
54.8101
55.1394
55.4749
55.8056
56.1238
56.4248
56.7073
56.9725
57.224
57.4672
57.7085
57.9547
58.2119
58.4855
58.7789
59.0939
59.4304
59.786
60.1568
60.537
60.9203
61.3004
61.6718
62.0305
62.3737
62.6986
63.0006
63.2727
63.5048
63.6866
63.8106
63.8736
63.8806
63.8401
63.7611
63.6502
63.5111
63.344
63.1476
62.9211
62.6653
62.3829
62.078
61.7553
61.4189
61.0724
60.7185
60.359
59.9954
59.6287
59.2594
58.8881
58.5151
58.1406
57.7646
57.3872
57.0084
56.628
56.246
55.8624
55.477
55.0897
54.7007
54.3098
53.917
53.5225
53.1262
52.728
52.3281
51.9264
51.5228
51.1173
50.7097
50.2999
49.8878
49.4734
49.0564
48.6369
48.2146
47.7895
47.3615
46.9306
46.4968
46.0598
45.6198
45.1765
44.73
44.2802
43.827
43.3704
42.9104
42.4468
41.9795
41.5087
41.0341
40.5558
40.0738
39.588
39.0983
38.6049
38.1078
37.607
37.1025
36.5945
36.083
35.5682
35.0501
34.5289
34.0044
33.4767
32.9445
32.4071
31.86
72.6072
72.5255
72.3763
72.2036
72.0007
71.7525
71.4482
71.0818
70.6587
70.198
69.7198
69.242
68.7776
68.3308
67.9012
67.4926
67.1219
66.8188
66.6105
66.5176
66.5547
66.7264
67.021
67.4192
67.888
68.3778
68.8353
69.2225
69.5266
69.7393
69.8767
69.9395
69.9174
69.7892
69.5297
69.1527
68.6884
68.1569
67.5692
66.9362
66.2697
65.585
64.899
64.2246
63.566
62.9151
62.2556
61.5694
60.8446
60.079
59.2787
58.4558
57.6266
56.8099
56.026
55.2959
54.6404
54.0792
53.6282
53.2981
53.0944
53.0174
53.059
53.2074
53.4458
53.7542
54.1116
54.4977
54.8943
55.286
55.6614
56.0128
56.3363
56.6314
56.9008
57.1496
57.3848
57.6145
57.847
58.09
58.3501
58.6314
58.936
59.2638
59.6124
59.9778
60.3541
60.7345
61.1116
61.4791
61.8328
62.171
62.4936
62.7997
63.0849
63.3369
63.542
63.6863
63.764
63.7785
63.7398
63.6596
63.5474
63.4087
63.2447
63.0536
62.8336
62.5849
62.3097
62.0121
61.6962
61.3662
61.0256
60.6769
60.3222
59.9628
59.5996
59.2335
58.8649
58.4942
58.1218
57.7477
57.3721
56.9949
56.6161
56.2355
55.8531
55.4688
55.0826
54.6943
54.3041
53.9118
53.5176
53.1216
52.7237
52.3239
51.9224
51.519
51.1137
50.7063
50.2968
49.885
49.4708
49.0541
48.6347
48.2126
47.7876
47.3598
46.929
46.4953
46.0584
45.6185
45.1753
44.7289
44.2792
43.8261
43.3696
42.9096
42.446
41.9788
41.508
41.0335
40.5551
40.073
39.5871
39.0973
38.6037
38.1062
37.605
37.1
36.5913
36.079
35.5631
35.0436
34.5205
33.9936
33.4627
32.9266
32.384
31.8315
72.4292
72.3539
72.2221
72.0545
71.845
71.5784
71.2464
70.8478
70.3961
69.9133
69.4177
68.9239
68.4387
67.9597
67.4824
67.0152
66.5895
66.2464
66.02
65.9358
66.0025
66.2175
66.5482
66.9751
67.4633
67.9634
68.4252
68.8129
69.1031
69.3018
69.4197
69.4531
69.3982
69.2249
68.9331
68.5472
68.0881
67.5694
67.0009
66.3922
65.7546
65.1013
64.4447
63.7907
63.1363
62.4696
61.7744
61.0372
60.2525
59.4235
58.56
57.6753
56.7846
55.9067
55.0638
54.2808
53.5835
52.9966
52.5402
52.2279
52.0659
52.0532
52.1812
52.4302
52.7765
53.1939
53.6556
54.1371
54.6168
55.0776
55.5076
55.8997
56.2511
56.5627
56.8388
57.0859
57.3127
57.529
57.7452
57.9715
58.2165
58.4855
58.781
59.1024
59.4468
59.8092
60.1836
60.5628
60.9391
61.3049
61.6548
61.9864
62.3009
62.6009
62.891
63.1549
63.3786
63.5419
63.6347
63.6588
63.6253
63.5475
63.4364
63.2988
63.1373
62.9508
62.7368
62.495
62.2271
61.937
61.6286
61.3059
60.972
60.6295
60.2803
59.9257
59.5668
59.2042
58.8387
58.4708
58.1007
57.7288
57.3551
56.9797
56.6025
56.2235
55.8425
55.4595
55.0744
54.6871
54.2976
53.906
53.5123
53.1165
52.7188
52.3193
51.9179
51.5147
51.1096
50.7025
50.2932
49.8817
49.4677
49.0512
48.6321
48.2102
47.7854
47.3577
46.9271
46.4935
46.0568
45.6169
45.1739
44.7276
44.278
43.825
43.3686
42.9087
42.4452
41.9781
41.5073
41.0327
40.5544
40.0722
39.5861
39.0962
38.6024
38.1046
37.603
37.0975
36.5881
36.0749
35.5579
35.0369
34.512
33.9828
33.4489
32.9091
32.3621
31.8049
72.3855
72.3172
72.1997
72.0407
71.8327
71.5603
71.2187
70.81
70.3544
69.874
69.3849
68.8996
68.4206
67.9393
67.4476
66.9531
66.4941
66.1239
65.8801
65.7855
65.8398
66.1139
66.4362
66.8535
67.3194
67.7825
68.193
68.5235
68.7662
68.9273
69.0088
69.0171
68.9302
68.7335
68.4382
68.0628
67.6224
67.1281
66.5873
66.0079
65.3987
64.7688
64.1248
63.468
62.7921
62.0854
61.3355
60.5343
59.6807
58.7796
57.8394
56.8712
55.8905
54.9181
53.981
53.1118
52.3448
51.7126
51.2412
50.9473
50.8373
50.9089
51.1418
51.5135
51.993
52.5454
53.1357
53.7325
54.3108
54.8521
55.3452
55.784
56.1675
56.4984
56.7824
57.0278
57.2447
57.4453
57.6431
57.8515
58.0822
58.3421
58.6335
58.9543
59.2992
59.6616
60.0352
60.4136
60.7901
61.1571
61.508
61.8395
62.1512
62.447
62.7311
62.9983
63.2306
63.4028
63.4999
63.5253
63.4938
63.42
63.3135
63.1801
63.0226
62.8409
62.6331
62.3984
62.138
61.8554
61.5547
61.2395
60.9129
60.5772
60.234
59.8848
59.5305
59.1719
58.8099
58.445
58.0775
57.7079
57.3364
56.9629
56.5875
56.2101
55.8307
55.449
55.0652
54.679
54.2904
53.8996
53.5064
53.1111
52.7137
52.3144
51.9132
51.5101
51.1051
50.6982
50.2892
49.8779
49.4642
49.048
48.6291
48.2074
47.7828
47.3554
46.9249
46.4915
46.0549
45.6152
45.1723
44.7261
44.2766
43.8237
43.3674
42.9076
42.4442
41.9772
41.5064
41.0319
40.5535
40.0713
39.5852
39.0951
38.601
38.103
37.601
37.0949
36.5849
36.0708
35.5526
35.0303
34.5036
33.9721
33.4354
32.8923
32.3414
31.7802
72.5198
72.458
72.3527
72.2043
72.0044
71.7363
71.3981
70.9942
70.5507
70.089
69.6248
69.1719
68.7327
68.2934
67.8447
67.3907
66.9629
66.6086
66.3713
66.2711
66.3128
66.4931
66.7757
67.1299
67.5127
67.8787
68.1906
68.4307
68.5994
68.7038
68.7504
68.73
68.619
68.4124
68.1209
67.7589
67.3377
66.8649
66.3457
65.7853
65.1897
64.5642
63.912
63.2315
62.5162
61.7568
60.9447
60.0748
59.1461
58.1602
57.1216
56.0396
54.9316
53.8246
52.7544
51.7633
50.8957
50.1945
49.6944
49.417
49.3697
49.5361
49.8998
50.4276
51.0762
51.7979
52.547
53.2842
53.9799
54.6152
55.1796
55.6696
56.0873
56.4387
56.7313
56.9747
57.1807
57.3633
57.5393
57.727
57.9423
58.1938
58.4837
58.8072
59.1557
59.52
59.8932
60.2704
60.6464
61.0152
61.3705
61.7076
62.0239
62.3205
62.6002
62.8609
63.0897
63.2654
63.3672
63.3904
63.3534
63.2784
63.1771
63.0519
62.9016
62.7258
62.5244
62.2972
62.045
61.7704
61.4773
61.1696
60.8501
60.521
60.184
59.8404
59.4911
59.1369
58.7786
58.4169
58.0523
57.6852
57.3159
56.9445
56.571
56.1954
55.8176
55.4375
55.055
54.67
54.2825
53.8925
53.5001
53.1053
52.7083
52.3093
51.9082
51.5053
51.1004
50.6937
50.2848
49.8738
49.4604
49.0444
48.6257
48.2043
47.7799
47.3527
46.9224
46.4891
46.0527
45.6132
45.1704
44.7244
44.2751
43.8223
43.3661
42.9064
42.4431
41.9762
41.5055
41.031
40.5527
40.0704
39.5842
39.094
38.5997
38.1013
37.5989
37.0923
36.5816
36.0666
35.5474
35.0237
34.4953
33.9617
33.4224
32.8763
32.3219
31.7571
72.8449
72.7891
72.6964
72.5617
72.375
72.1178
71.7901
71.3987
70.9728
70.5322
70.0956
69.6825
69.2958
68.9281
68.569
68.2168
67.8885
67.6159
67.4279
67.3369
67.3469
67.4497
67.6239
67.8403
68.0652
68.2693
68.4364
68.5625
68.6502
68.704
68.7181
68.6666
68.531
68.3103
68.0152
67.6573
67.2441
66.7797
66.2668
65.7085
65.1086
64.47
63.7937
63.077
62.3144
61.4984
60.6219
59.6787
58.6637
57.5734
56.4081
55.1769
53.9024
52.6199
51.3756
50.2231
49.2196
48.4196
47.8688
47.5952
47.6059
47.8869
48.4113
49.1322
49.9904
50.922
51.8666
52.7752
53.6131
54.3602
55.0069
55.5532
56.0064
56.3787
56.6815
56.9263
57.1241
57.2891
57.4407
57.6024
57.7959
58.0332
58.3182
58.6442
58.9973
59.3641
59.7369
60.1113
60.4851
60.8542
61.2127
61.5545
61.875
62.1733
62.4521
62.7119
62.939
63.1087
63.2046
63.2305
63.2014
63.1318
63.0349
62.917
62.7763
62.6092
62.4151
62.195
61.9506
61.6842
61.3988
61.0982
60.7853
60.4626
60.1314
59.7932
59.4488
59.0992
58.745
58.3867
58.0252
57.6608
57.2939
56.9247
56.5532
56.1795
55.8034
55.4249
55.0438
54.6601
54.2738
53.8848
53.4932
53.0991
52.7027
52.304
51.9032
51.5004
51.0956
50.689
50.2803
49.8694
49.4562
49.0405
48.622
48.2008
47.7767
47.3497
46.9196
46.4865
46.0503
45.6109
45.1683
44.7225
44.2733
43.8207
43.3647
42.9051
42.442
41.9751
41.5045
41.0301
40.5518
40.0695
39.5832
39.0928
38.5983
38.0997
37.5968
37.0897
36.5784
36.0626
35.5422
35.0172
34.4871
33.9516
33.4099
32.861
32.3036
31.7357
73.3551
73.3047
73.2281
73.1093
72.9377
72.6961
72.3839
72.009
71.598
71.1706
70.7464
70.3484
69.9876
69.6638
69.3721
69.11
68.8829
68.7016
68.5706
68.4931
68.4722
68.5015
68.5668
68.6497
68.7331
68.8058
68.8643
68.9114
68.9488
68.9686
68.946
68.8535
68.68
68.4304
68.1163
67.7466
67.325
66.8528
66.3307
65.7599
65.1425
64.4798
63.7714
63.0141
62.2026
61.3298
60.3869
59.3636
58.2489
57.0339
55.7161
54.3068
52.8355
51.3472
49.8986
48.5547
47.3871
46.4657
45.847
45.5668
45.6361
46.0394
46.7398
47.6756
48.7691
49.9373
51.103
52.2052
53.2041
54.0778
54.8174
55.427
55.9182
56.312
56.6257
56.875
57.0722
57.2282
57.3623
57.501
57.6717
57.892
58.1699
58.497
58.8544
59.2241
59.5951
59.9641
60.3313
60.6945
61.0485
61.3879
61.7083
62.0062
62.2807
62.5336
62.7598
62.9369
63.0403
63.0678
63.0411
62.979
62.8901
62.7797
62.6482
62.4914
62.3066
62.0945
61.8574
61.5982
61.32
61.0261
60.7195
60.4026
60.077
59.7438
59.4043
59.0591
58.7091
58.3546
57.9963
57.6348
57.2704
56.9036
56.5342
56.1624
55.7881
55.4113
55.0318
54.6495
54.2644
53.8765
53.4858
53.0924
52.6966
52.2983
51.8979
51.4954
51.0908
50.6843
50.2757
49.865
49.4519
49.0364
48.6181
48.1971
47.7733
47.3464
46.9166
46.4837
46.0476
45.6085
45.1661
44.7204
44.2714
43.819
43.3631
42.9037
42.4407
41.974
41.5035
41.0291
40.5509
40.0686
39.5822
39.0917
38.597
38.0981
37.5948
37.0872
36.5752
36.0586
35.5372
35.0109
34.4793
33.9419
33.398
32.8467
32.2865
31.7158
74.0201
73.9811
73.9181
73.818
73.6653
73.4456
73.156
72.8038
72.4116
71.9965
71.5759
71.1718
70.7999
70.4686
70.1815
69.9384
69.7391
69.5833
69.4713
69.4001
69.3639
69.3545
69.3628
69.3813
69.4056
69.4342
69.4662
69.4976
69.5179
69.5034
69.426
69.2702
69.0378
68.741
68.3912
67.9942
67.5508
67.0591
66.5175
65.9254
65.2832
64.5914
63.8486
63.0511
62.1927
61.2648
60.256
59.1507
57.9315
56.5855
55.1084
53.5149
51.8415
50.1422
48.4838
46.9429
45.6052
44.557
43.8668
43.5759
43.7003
44.2191
45.0886
46.2334
47.5575
48.9586
50.3409
51.6303
52.7833
53.7797
54.6112
55.2851
55.8116
56.2307
56.5587
56.8159
57.0153
57.1704
57.2993
57.4298
57.592
57.8067
58.0829
58.412
58.7735
59.1462
59.5167
59.8818
60.2432
60.5969
60.9344
61.2526
61.5556
61.8458
62.1192
62.3704
62.5945
62.7763
62.8903
62.9263
62.9037
62.8441
62.7565
62.6473
62.5202
62.372
62.1973
61.9944
61.765
61.5126
61.2408
60.953
60.6523
60.341
60.0207
59.6926
59.3577
59.017
58.6711
58.3205
57.9657
57.6073
57.2457
56.8812
56.5141
56.1443
55.7719
55.3968
55.0188
54.638
54.2543
53.8675
53.4778
53.0853
52.6901
52.2924
51.8924
51.4902
51.0859
50.6796
50.2711
49.8605
49.4476
49.0321
48.6141
48.1933
47.7696
47.3429
46.9133
46.4805
46.0447
45.6057
45.1635
44.7181
44.2693
43.817
43.3614
42.9021
42.4393
41.9728
41.5024
41.0281
40.5499
40.0676
39.5812
39.0906
38.5957
38.0965
37.5929
37.0848
36.5721
36.0547
35.5324
35.0049
34.4718
33.9327
33.3868
32.8332
32.2706
31.6976
74.7925
74.764
74.7129
74.6319
74.5019
74.312
74.057
73.742
73.3846
72.9986
72.5952
72.1921
71.807
71.4544
71.1417
70.8722
70.6478
70.47
70.3429
70.2606
70.2161
70.2016
70.2095
70.2333
70.2681
70.3095
70.3505
70.3761
70.3607
70.2776
70.1122
69.8667
69.5557
69.1959
68.7977
68.3632
67.89
67.3728
66.807
66.1897
65.5205
64.7992
64.0238
63.1899
62.2901
61.3138
60.2463
59.0679
57.7554
56.2934
54.6759
52.9202
51.0687
49.1842
47.3437
45.6355
44.1567
43.006
42.2606
41.9621
42.1236
42.7281
43.7294
45.0421
46.5535
48.1445
49.7039
51.1411
52.4103
53.4973
54.4001
55.1243
55.6897
56.1321
56.479
56.7498
56.9558
57.1087
57.2295
57.3514
57.5093
57.7267
58.0116
58.3527
58.7276
59.1125
59.4922
59.8641
60.2309
60.5864
60.9147
61.2059
61.47
61.7261
61.983
62.2328
62.461
62.6503
62.7767
62.8225
62.799
62.7328
62.6402
62.5282
62.4011
62.257
62.0894
61.8944
61.6724
61.4263
61.1603
60.8781
60.583
60.2772
59.9623
59.6393
59.3092
58.973
58.6313
58.2848
57.9337
57.5785
57.2197
56.8578
56.493
56.1253
55.7548
55.3814
55.0051
54.6258
54.2435
53.858
53.4693
53.0777
52.6832
52.2861
51.8866
51.4848
51.0809
50.6749
50.2666
49.8561
49.4433
49.028
48.61
48.1893
47.7657
47.3392
46.9097
46.4772
46.0416
45.6028
45.1608
44.7156
44.267
43.815
43.3595
42.9005
42.4378
41.9715
41.5012
41.0271
40.549
40.0667
39.5803
39.0895
38.5945
38.095
37.591
37.0825
36.5692
36.051
35.5278
34.9992
34.4648
33.924
33.3763
32.8207
32.256
31.6807
75.6348
75.6112
75.5675
75.5018
75.3956
75.2415
75.0326
74.7712
74.4694
74.1384
73.7845
73.4183
73.054
72.7056
72.3862
72.106
71.8712
71.6849
71.551
71.4661
71.425
71.4205
71.4443
71.4872
71.5384
71.5831
71.6005
71.5652
71.4533
71.2525
70.9651
70.6075
70.2021
69.7669
69.3102
68.8307
68.3224
67.7764
67.1841
66.5409
65.8453
65.0968
64.2932
63.4293
62.4963
61.482
60.3693
59.1361
57.7562
56.2115
54.4953
52.6262
50.6511
48.6396
46.6779
44.8639
43.3008
42.0861
41.3009
40.9885
41.1637
41.8104
42.8838
44.2947
45.9164
47.6179
49.2797
50.8008
52.13
53.2592
54.198
54.9535
55.5452
56.0112
56.3847
56.6821
56.9065
57.0599
57.1591
57.245
57.3701
57.5739
57.8684
58.2365
58.6453
59.06
59.4594
59.8454
60.2269
60.5948
60.9233
61.2006
61.4413
61.667
61.8929
62.1226
62.3432
62.5332
62.6692
62.7296
62.7122
62.6394
62.5364
62.4177
62.2884
62.1456
61.9821
61.7928
61.5771
61.3373
61.077
60.8002
60.5104
60.2101
59.9007
59.583
59.2581
58.9267
58.5895
58.2472
57.8999
57.5482
57.1925
56.8332
56.4708
56.1052
55.7367
55.3651
54.9905
54.6128
54.2319
53.8477
53.4603
53.0696
52.6759
52.2795
51.8805
51.4793
51.0758
50.6701
50.2622
49.8519
49.4391
49.0239
48.6059
48.1852
47.7617
47.3353
46.906
46.4736
46.0382
45.5997
45.1579
44.7128
44.2645
43.8127
43.3575
42.8987
42.4363
41.9701
41.5001
41.0261
40.548
40.0658
39.5794
39.0886
38.5933
38.0936
37.5893
37.0803
36.5664
36.0476
35.5235
34.9938
34.4581
33.916
33.3666
32.8092
32.2425
31.6654
76.4497
76.4218
76.3764
76.3148
76.2247
76.1014
75.9375
75.7314
75.4897
75.2218
74.9315
74.6237
74.3079
73.9972
73.7063
73.4502
73.2401
73.0816
72.9782
72.927
72.9208
72.9494
72.9989
73.0526
73.0905
73.0899
73.0266
72.8796
72.6369
72.2997
71.8826
71.4097
70.9063
70.3915
69.8713
69.3428
68.7957
68.2191
67.6008
66.9349
66.2183
65.4495
64.6266
63.7442
62.7925
61.7584
60.624
59.3674
57.9633
56.3917
54.6456
52.7433
50.7321
48.684
46.6892
44.8488
43.2661
42.0356
41.2302
40.8915
41.0585
41.6974
42.7631
44.1729
45.7981
47.4993
49.1603
50.6824
52.0022
53.1121
54.0394
54.7963
55.3927
55.8677
56.2664
56.6075
56.8772
57.0526
57.1347
57.1678
57.2277
57.3824
57.6628
58.0543
58.5106
58.9742
59.4038
59.7968
60.1791
60.5593
60.9041
61.1814
61.4074
61.6185
61.8298
62.0404
62.2427
62.419
62.5479
62.6124
62.6063
62.54
62.4359
62.3143
62.1831
62.0398
61.8773
61.691
61.4802
61.2467
60.9931
60.7226
60.4383
60.1431
59.8387
59.5262
59.2064
58.8799
58.5473
58.2092
57.8659
57.5176
57.1649
56.8083
56.4481
56.0848
55.7182
55.3484
54.9754
54.5993
54.2198
53.837
53.4508
53.0612
52.6684
52.2727
51.8743
51.4736
51.0706
50.6653
50.2577
49.8477
49.4351
49.0199
48.602
48.1813
47.7577
47.3314
46.9021
46.4699
46.0346
45.5962
45.1547
44.7099
44.2618
43.8102
43.3552
42.8967
42.4345
41.9686
41.4988
41.025
40.5471
40.0649
39.5785
39.0876
38.5922
38.0923
37.5877
37.0782
36.5638
36.0443
35.5194
34.9887
34.452
33.9085
33.3576
32.7986
32.2302
31.6514
77.1467
77.1134
77.0612
76.9947
76.9102
76.8045
76.6711
76.5054
76.3091
76.0888
75.8487
75.5903
75.3185
75.0443
74.7833
74.5538
74.3719
74.253
74.1935
74.1913
74.236
74.3104
74.3925
74.4571
74.4778
74.4292
74.2897
74.0458
73.6952
73.2483
72.7267
72.1585
71.5705
70.983
70.4017
69.8234
69.2359
68.6269
67.985
67.3013
66.5705
65.7902
64.9584
64.07
63.1158
62.0822
60.9524
59.706
58.3203
56.7764
55.0672
53.2084
51.2432
49.2406
47.2886
45.4862
43.933
42.719
41.9153
41.5647
41.6845
42.2684
43.265
44.5949
46.1354
47.7457
49.3168
50.7641
52.0187
53.0644
53.9403
54.6716
55.2602
55.7323
56.1399
56.5155
56.844
57.0775
57.1798
57.1773
57.163
57.2384
57.4654
57.8502
58.3464
58.8706
59.3494
59.7638
60.1449
60.5205
60.8712
61.1571
61.3807
61.5793
61.7728
61.961
62.143
62.3071
62.4296
62.4917
62.4887
62.4298
62.3329
62.2155
62.0861
61.943
61.7807
61.5957
61.388
61.1594
60.9122
60.6484
60.3706
60.0809
59.7813
59.4733
59.1578
58.8357