/*--------------------------------*- C++ -*----------------------------------*\
  =========                 |
  \\      /  F ield         | OpenFOAM: The Open Source CFD Toolbox
   \\    /   O peration     | Website:  https://openfoam.org
    \\  /    A nd           | Version:  7
     \\/     M anipulation  |
\*---------------------------------------------------------------------------*/
FoamFile
{
    version     2.0;
    format      ascii;
    class       surfaceScalarField;
    location    "0.057";
    object      phi;
}
// * * * * * * * * * * * * * * * * * * * * * * * * * * * * * * * * * * * * * //

dimensions      [0 3 -1 0 0 0 0];

internalField   nonuniform List<scalar> 
24170
(
1.42652e-06
2.12654e-07
1.2827e-06
1.43822e-07
1.13938e-06
1.43321e-07
1.00761e-06
1.31764e-07
8.83905e-07
1.23707e-07
7.68513e-07
1.15392e-07
6.67695e-07
1.00818e-07
5.83684e-07
8.40109e-08
5.11849e-07
7.1835e-08
4.46263e-07
6.55861e-08
3.84947e-07
6.13156e-08
3.29496e-07
5.54514e-08
2.82031e-07
4.74649e-08
2.43625e-07
3.8406e-08
2.13565e-07
3.00598e-08
1.90496e-07
2.30692e-08
1.71675e-07
1.88217e-08
6.67015e-09
1.65004e-07
1.69518e-06
2.17904e-07
1.67496e-06
1.64041e-07
1.63211e-06
1.86172e-07
1.58588e-06
1.77999e-07
1.53917e-06
1.70414e-07
1.49073e-06
1.63831e-07
1.4426e-06
1.48951e-07
1.39611e-06
1.30496e-07
1.34924e-06
1.1871e-07
1.29955e-06
1.15278e-07
1.2471e-06
1.1376e-07
1.1937e-06
1.08851e-07
1.14152e-06
9.96491e-08
1.0918e-06
8.8118e-08
1.04529e-06
7.65724e-08
1.00451e-06
6.38493e-08
9.68257e-07
5.50772e-08
4.5485e-08
9.29442e-07
1.78238e-06
2.65803e-07
1.77451e-06
1.71904e-07
1.76939e-06
1.91295e-07
1.75792e-06
1.89467e-07
1.74797e-06
1.80365e-07
1.74067e-06
1.71136e-07
1.73265e-06
1.56969e-07
1.72218e-06
1.40966e-07
1.70923e-06
1.31656e-07
1.69372e-06
1.30788e-07
1.67534e-06
1.32143e-07
1.65451e-06
1.29685e-07
1.63224e-06
1.21913e-07
1.60965e-06
1.1071e-07
1.58666e-06
9.95623e-08
1.56327e-06
8.72423e-08
1.54004e-06
7.8306e-08
7.16895e-08
1.51383e-06
1.90211e-06
3.14096e-07
1.88238e-06
1.91634e-07
1.87786e-06
1.95813e-07
1.87485e-06
1.92484e-07
1.8762e-06
1.79009e-07
1.87875e-06
1.68585e-07
1.8779e-06
1.57816e-07
1.87384e-06
1.45034e-07
1.86988e-06
1.35616e-07
1.86803e-06
1.32634e-07
1.86722e-06
1.32954e-07
1.86555e-06
1.31352e-07
1.86185e-06
1.25614e-07
1.85616e-06
1.16404e-07
1.84886e-06
1.06862e-07
1.83937e-06
9.67349e-08
1.8285e-06
8.91682e-08
8.44606e-08
1.81573e-06
2.05289e-06
3.08535e-07
2.0323e-06
2.12226e-07
2.02761e-06
2.00501e-07
2.02883e-06
1.91272e-07
2.03039e-06
1.77445e-07
2.02825e-06
1.7072e-07
2.02008e-06
1.65987e-07
2.0087e-06
1.56418e-07
2.00049e-06
1.43826e-07
1.99965e-06
1.33472e-07
2.00517e-06
1.27438e-07
2.01278e-06
1.23739e-07
2.01842e-06
1.1997e-07
2.01993e-06
1.14899e-07
2.01739e-06
1.094e-07
2.01089e-06
1.03239e-07
2.00239e-06
9.76597e-08
9.34431e-08
1.99341e-06
2.24119e-06
3.30207e-07
2.23347e-06
2.19945e-07
2.22462e-06
2.09358e-07
2.2062e-06
2.09693e-07
2.18941e-06
1.94231e-07
2.17604e-06
1.84093e-07
2.16336e-06
1.78662e-07
2.15292e-06
1.66857e-07
2.1495e-06
1.47252e-07
2.15547e-06
1.27496e-07
2.16824e-06
1.14669e-07
2.18198e-06
1.10003e-07
2.1913e-06
1.10646e-07
2.19334e-06
1.12857e-07
2.18845e-06
1.14294e-07
2.17834e-06
1.13351e-07
2.16602e-06
1.0998e-07
1.05269e-07
2.15419e-06
2.36837e-06
3.37932e-07
2.35854e-06
2.29772e-07
2.35331e-06
2.1459e-07
2.35615e-06
2.06854e-07
2.3565e-06
1.93881e-07
2.34891e-06
1.91681e-07
2.33483e-06
1.92737e-07
2.32088e-06
1.80807e-07
2.3139e-06
1.54236e-07
2.31649e-06
1.24902e-07
2.32638e-06
1.04787e-07
2.33848e-06
9.78972e-08
2.34786e-06
1.01267e-07
2.35172e-06
1.08997e-07
2.34992e-06
1.16101e-07
2.34402e-06
1.19247e-07
2.33626e-06
1.1774e-07
1.12952e-07
2.32858e-06
2.60012e-06
4.05444e-07
2.5311e-06
2.98798e-07
2.50604e-06
2.39648e-07
2.50164e-06
2.11251e-07
2.49728e-06
1.98243e-07
2.49352e-06
1.95438e-07
2.49617e-06
1.9009e-07
2.50502e-06
1.71952e-07
2.51528e-06
1.43981e-07
2.52293e-06
1.17253e-07
2.52707e-06
1.0064e-07
2.52879e-06
9.61765e-08
2.5293e-06
1.00765e-07
2.5293e-06
1.0899e-07
2.52919e-06
1.16214e-07
2.52909e-06
1.19346e-07
2.52892e-06
1.1791e-07
1.13093e-07
2.52878e-06
2.78361e-06
3.9424e-07
2.76562e-06
3.16792e-07
2.7444e-06
2.60873e-07
2.7264e-06
2.29246e-07
2.71307e-06
2.11577e-07
2.70941e-06
1.99091e-07
2.71463e-06
1.84871e-07
2.72171e-06
1.64877e-07
2.72351e-06
1.42184e-07
2.71809e-06
1.22672e-07
2.70858e-06
1.10148e-07
2.69965e-06
1.05109e-07
2.69452e-06
1.05886e-07
2.69398e-06
1.09536e-07
2.69712e-06
1.13073e-07
2.70195e-06
1.14512e-07
2.70665e-06
1.13212e-07
1.10537e-07
2.70921e-06
2.96658e-06
4.1018e-07
2.93995e-06
3.43421e-07
2.92062e-06
2.80204e-07
2.9191e-06
2.30762e-07
2.92928e-06
2.01399e-07
2.94131e-06
1.87057e-07
2.94668e-06
1.79507e-07
2.94069e-06
1.70865e-07
2.92547e-06
1.57397e-07
2.90806e-06
1.40089e-07
2.89518e-06
1.23027e-07
2.88981e-06
1.10473e-07
2.8911e-06
1.04595e-07
2.89608e-06
1.04557e-07
2.90178e-06
1.07373e-07
2.90608e-06
1.10211e-07
2.90813e-06
1.11168e-07
1.09805e-07
2.90886e-06
3.20248e-06
4.51256e-07
3.17625e-06
3.69653e-07
3.16464e-06
2.9181e-07
3.14844e-06
2.46964e-07
3.13661e-06
2.13231e-07
3.13516e-06
1.88506e-07
3.1411e-06
1.73564e-07
3.14695e-06
1.65017e-07
3.148e-06
1.56344e-07
3.14451e-06
1.43581e-07
3.13942e-06
1.28122e-07
3.13549e-06
1.14401e-07
3.13415e-06
1.05932e-07
3.13527e-06
1.03441e-07
3.13782e-06
1.04823e-07
3.14068e-06
1.0735e-07
3.14309e-06
1.08761e-07
1.08202e-07
3.14469e-06
2.88401e-06
5.2264e-07
2.87679e-06
3.76875e-07
2.86637e-06
3.02228e-07
2.85555e-06
2.57784e-07
2.84429e-06
2.24494e-07
2.8357e-06
1.97098e-07
2.83501e-06
1.74246e-07
2.84196e-06
1.58065e-07
2.8513e-06
1.47004e-07
2.85687e-06
1.38012e-07
2.85528e-06
1.29718e-07
2.84698e-06
1.22695e-07
2.83528e-06
1.17633e-07
2.82381e-06
1.1491e-07
2.81512e-06
1.13518e-07
2.80992e-06
1.12547e-07
2.80794e-06
1.10746e-07
1.08161e-07
2.80798e-06
3.55777e-06
4.16292e-07
3.57438e-06
3.60267e-07
3.54803e-06
3.28577e-07
3.51058e-06
2.95235e-07
3.4809e-06
2.5417e-07
3.46737e-06
2.10632e-07
3.46773e-06
1.73882e-07
3.47766e-06
1.48131e-07
3.49303e-06
1.31635e-07
3.50842e-06
1.2262e-07
3.5178e-06
1.20343e-07
3.51728e-06
1.2321e-07
3.50693e-06
1.2799e-07
3.49033e-06
1.3151e-07
3.47213e-06
1.31719e-07
3.45619e-06
1.28486e-07
3.44433e-06
1.22609e-07
1.1575e-07
3.43674e-06
4.24921e-06
4.10161e-07
4.24109e-06
3.68386e-07
4.25715e-06
3.12523e-07
4.29296e-06
2.59421e-07
4.31592e-06
2.31212e-07
4.30913e-06
2.17419e-07
4.28142e-06
2.01592e-07
4.25348e-06
1.7607e-07
4.23881e-06
1.46304e-07
4.23801e-06
1.23421e-07
4.2444e-06
1.13953e-07
4.25131e-06
1.16302e-07
4.25553e-06
1.23771e-07
4.25738e-06
1.29663e-07
4.25867e-06
1.3043e-07
4.26104e-06
1.26114e-07
4.26496e-06
1.18689e-07
1.10796e-07
4.26991e-06
5.16859e-06
3.77259e-07
5.19722e-06
3.39756e-07
5.2341e-06
2.75638e-07
5.26395e-06
2.29573e-07
5.2771e-06
2.18062e-07
5.27558e-06
2.18943e-07
5.26727e-06
2.09899e-07
5.2568e-06
1.86541e-07
5.24437e-06
1.58737e-07
5.23023e-06
1.37558e-07
5.21713e-06
1.27055e-07
5.20834e-06
1.25088e-07
5.20537e-06
1.26741e-07
5.20692e-06
1.28113e-07
5.2101e-06
1.2725e-07
5.21214e-06
1.24071e-07
5.21117e-06
1.19662e-07
1.14803e-07
5.20716e-06
6.49708e-06
4.58087e-07
6.42564e-06
4.11202e-07
6.39081e-06
3.1047e-07
6.36623e-06
2.54151e-07
6.35479e-06
2.29498e-07
6.35582e-06
2.17913e-07
6.36177e-06
2.03951e-07
6.36712e-06
1.81188e-07
6.37092e-06
1.54944e-07
6.37508e-06
1.334e-07
6.38201e-06
1.20122e-07
6.39281e-06
1.14288e-07
6.40644e-06
1.13114e-07
6.42066e-06
1.1389e-07
6.43282e-06
1.15088e-07
6.44121e-06
1.15679e-07
6.44521e-06
1.15661e-07
1.14535e-07
6.44548e-06
7.76832e-06
4.63558e-07
7.80168e-06
3.77842e-07
7.81051e-06
3.01643e-07
7.80195e-06
2.62708e-07
7.78201e-06
2.49443e-07
7.76012e-06
2.39802e-07
7.74449e-06
2.19582e-07
7.73941e-06
1.86262e-07
7.74591e-06
1.48448e-07
7.76206e-06
1.1725e-07
7.78362e-06
9.85652e-08
7.80569e-06
9.22171e-08
7.82453e-06
9.42674e-08
7.83864e-06
9.97848e-08
7.84868e-06
1.05048e-07
7.85607e-06
1.08293e-07
7.86265e-06
1.09072e-07
1.08311e-07
7.86888e-06
9.57193e-06
5.54587e-07
9.55765e-06
3.92121e-07
9.53751e-06
3.21778e-07
9.51175e-06
2.88472e-07
9.48244e-06
2.78751e-07
9.45477e-06
2.67475e-07
9.43892e-06
2.35434e-07
9.43958e-06
1.856e-07
9.45435e-06
1.33677e-07
9.478e-06
9.35996e-08
9.50585e-06
7.07177e-08
9.53443e-06
6.36357e-08
9.56144e-06
6.72531e-08
9.58517e-06
7.60624e-08
9.60465e-06
8.55641e-08
9.6197e-06
9.32393e-08
9.63088e-06
9.78982e-08
9.9604e-08
9.63958e-06
1.15245e-05
4.06118e-07
1.15239e-05
3.92767e-07
1.14787e-05
3.66976e-07
1.14587e-05
3.08409e-07
1.1484e-05
2.53547e-07
1.15404e-05
2.11043e-07
1.1601e-05
1.74847e-07
1.1645e-05
1.41551e-07
1.1667e-05
1.11732e-07
1.16727e-05
8.78216e-08
1.16721e-05
7.1384e-08
1.16735e-05
6.22573e-08
1.16818e-05
5.88949e-08
1.16985e-05
5.94227e-08
1.17221e-05
6.19562e-08
1.175e-05
6.52657e-08
1.17799e-05
6.80767e-08
7.00144e-08
1.18094e-05
8.57266e-06
3.97675e-07
8.62041e-06
3.45018e-07
8.62128e-06
3.6611e-07
8.59117e-06
3.38516e-07
8.56538e-06
2.79339e-07
8.56534e-06
2.11084e-07
8.58542e-06
1.54762e-07
8.60909e-06
1.17881e-07
8.62484e-06
9.59789e-08
8.63028e-06
8.23898e-08
8.62834e-06
7.33182e-08
8.62333e-06
6.72729e-08
8.61897e-06
6.32453e-08
8.61803e-06
6.03714e-08
8.62233e-06
5.76497e-08
8.63285e-06
5.47525e-08
8.64974e-06
5.11794e-08
4.75862e-08
8.67217e-06
7.43871e-06
4.7334e-07
7.38715e-06
3.96575e-07
7.40698e-06
3.46285e-07
7.45008e-06
2.95415e-07
7.49712e-06
2.32304e-07
7.53612e-06
1.72081e-07
7.56217e-06
1.28708e-07
7.57836e-06
1.01692e-07
7.59061e-06
8.37276e-08
7.60332e-06
6.96847e-08
7.61793e-06
5.8705e-08
7.6337e-06
5.15019e-08
7.64911e-06
4.78402e-08
7.66302e-06
4.64554e-08
7.67524e-06
4.54388e-08
7.68615e-06
4.38398e-08
7.69636e-06
4.09691e-08
3.72156e-08
7.70673e-06
6.29761e-06
4.4618e-07
6.33962e-06
3.54565e-07
6.40002e-06
2.8588e-07
6.4627e-06
2.3274e-07
6.51725e-06
1.77757e-07
6.56265e-06
1.26679e-07
6.59976e-06
9.16006e-08
6.62846e-06
7.29891e-08
6.64943e-06
6.27612e-08
6.66537e-06
5.37386e-08
6.6796e-06
4.44772e-08
6.69373e-06
3.73747e-08
6.70722e-06
3.43447e-08
6.71841e-06
3.52679e-08
6.72621e-06
3.76357e-08
6.73087e-06
3.9178e-08
6.73382e-06
3.80265e-08
3.367e-08
6.73736e-06
5.53806e-06
4.57637e-07
5.58634e-06
3.06278e-07
5.64855e-06
2.23675e-07
5.69709e-06
1.84195e-07
5.73404e-06
1.40807e-07
5.76599e-06
9.47307e-08
5.7953e-06
6.22867e-08
5.82103e-06
4.72599e-08
5.84126e-06
4.25355e-08
5.85428e-06
4.07221e-08
5.85976e-06
3.89918e-08
5.85957e-06
3.75616e-08
5.85731e-06
3.66122e-08
5.85724e-06
3.53378e-08
5.86234e-06
3.25322e-08
5.87372e-06
2.77984e-08
5.89056e-06
2.11908e-08
1.41467e-08
5.91008e-06
4.8444e-06
4.88529e-07
4.88113e-06
2.69548e-07
4.93984e-06
1.64967e-07
5.0028e-06
1.21237e-07
5.05398e-06
8.96263e-08
5.08301e-06
6.57045e-08
5.09268e-06
5.26098e-08
5.09357e-06
4.63765e-08
5.09435e-06
4.17496e-08
5.09807e-06
3.70075e-08
5.10451e-06
3.25515e-08
5.11369e-06
2.83766e-08
5.127e-06
2.33028e-08
5.14623e-06
1.6113e-08
5.17152e-06
7.23372e-09
5.20102e-06
-1.70057e-09
5.23147e-06
-9.25139e-09
-1.4028e-08
5.25964e-06
4.26667e-06
4.85249e-07
4.28065e-06
2.55572e-07
4.32284e-06
1.22774e-07
4.36582e-06
7.82524e-08
4.39548e-06
5.99641e-08
4.41193e-06
4.92578e-08
4.42501e-06
3.9531e-08
4.44252e-06
2.88687e-08
4.46466e-06
1.96119e-08
4.48807e-06
1.35936e-08
4.51088e-06
9.739e-09
4.53349e-06
5.76645e-09
4.55631e-06
4.8434e-10
4.57964e-06
-7.21168e-09
4.60077e-06
-1.39031e-08
4.61758e-06
-1.85071e-08
4.62831e-06
-1.9987e-08
-1.85675e-08
4.63285e-06
3.67267e-06
3.36045e-07
3.76123e-06
1.67017e-07
3.81429e-06
6.97106e-08
3.85578e-06
3.67604e-08
3.89509e-06
2.06532e-08
3.92972e-06
1.46297e-08
3.95526e-06
1.3994e-08
3.97097e-06
1.31607e-08
3.97975e-06
1.08241e-08
3.98611e-06
7.23424e-09
3.99451e-06
1.34474e-09
4.00644e-06
-6.16506e-09
4.02286e-06
-1.59399e-08
4.04155e-06
-2.58934e-08
4.06067e-06
-3.30275e-08
4.07811e-06
-3.59492e-08
4.09247e-06
-3.43439e-08
-2.9374e-08
4.10327e-06
3.21863e-06
3.20405e-07
3.28051e-06
1.0514e-07
3.30591e-06
4.43076e-08
3.32227e-06
2.04019e-08
3.34298e-06
-5.21271e-11
3.37019e-06
-1.25856e-08
3.40017e-06
-1.59821e-08
3.42976e-06
-1.64318e-08
3.45763e-06
-1.70445e-08
3.48379e-06
-1.89242e-08
3.50805e-06
-2.29152e-08
3.53088e-06
-2.89995e-08
3.55125e-06
-3.63049e-08
3.568e-06
-4.26498e-08
3.58057e-06
-4.55957e-08
3.58911e-06
-4.44872e-08
3.59452e-06
-3.97546e-08
-3.31474e-08
3.59829e-06
2.8454e-06
1.83016e-07
2.9207e-06
2.98332e-08
2.94697e-06
1.80413e-08
2.97546e-06
-8.08977e-09
3.00267e-06
-2.72645e-08
3.02336e-06
-3.32713e-08
3.0417e-06
-3.43209e-08
3.06168e-06
-3.64182e-08
3.08328e-06
-3.86414e-08
3.10342e-06
-3.9067e-08
3.11852e-06
-3.80095e-08
3.12673e-06
-3.72129e-08
3.12853e-06
-3.81081e-08
3.12641e-06
-4.05281e-08
3.12379e-06
-4.29713e-08
3.12337e-06
-4.40695e-08
3.12677e-06
-4.31495e-08
-4.04229e-08
3.13404e-06
2.49782e-06
4.72876e-08
2.54926e-06
-2.16057e-08
2.58473e-06
-1.74321e-08
2.61975e-06
-4.31106e-08
2.64587e-06
-5.3382e-08
2.6619e-06
-4.93035e-08
2.67165e-06
-4.40716e-08
2.67899e-06
-4.37561e-08
2.68597e-06
-4.56227e-08
2.69218e-06
-4.52743e-08
2.69562e-06
-4.14525e-08
2.69464e-06
-3.62253e-08
2.68908e-06
-3.25556e-08
2.68047e-06
-3.19165e-08
2.67104e-06
-3.35403e-08
2.6626e-06
-3.56282e-08
2.65599e-06
-3.65419e-08
-3.55106e-08
2.65108e-06
2.13376e-06
2.11216e-06
2.09473e-06
2.05162e-06
1.99823e-06
1.94893e-06
1.90486e-06
1.8611e-06
1.81548e-06
1.77021e-06
1.72875e-06
1.69253e-06
1.65997e-06
1.62806e-06
1.59452e-06
1.55889e-06
1.52235e-06
1.48684e-06
-1.29637e-07
1.29637e-07
-2.16307e-07
8.66699e-08
-1.88837e-07
-2.74699e-08
-6.42531e-08
-1.24584e-07
1.20367e-07
-1.8462e-07
3.3671e-07
-2.16344e-07
5.645e-07
-2.27789e-07
7.90934e-07
-2.26434e-07
1.00903e-06
-2.18101e-07
1.21516e-06
-2.06124e-07
1.40719e-06
-1.92029e-07
1.58338e-06
-1.7619e-07
1.74182e-06
-1.5844e-07
1.8804e-06
-1.38583e-07
1.99651e-06
-1.16106e-07
2.0875e-06
-9.09926e-08
2.15073e-06
-6.32337e-08
2.18417e-06
-3.3434e-08
2.18673e-06
-2.56615e-09
2.15628e-06
3.04496e-08
2.09247e-06
6.38185e-08
1.99659e-06
9.58716e-08
1.8702e-06
1.26399e-07
1.71673e-06
1.53465e-07
1.53903e-06
1.77703e-07
1.34091e-06
1.98114e-07
1.12759e-06
2.13327e-07
9.00486e-07
2.271e-07
6.7035e-07
2.30136e-07
4.31688e-07
2.38662e-07
2.21685e-07
2.10003e-07
1.01211e-07
1.20474e-07
4.6408e-08
5.48032e-08
2.54935e-08
2.09146e-08
5.85672e-08
-3.30737e-08
1.80402e-07
-1.21835e-07
3.55973e-07
-1.75571e-07
5.07236e-07
-1.51262e-07
7.02181e-07
-1.94945e-07
8.53328e-07
-1.51147e-07
9.06306e-07
-5.29777e-08
9.00038e-07
6.26796e-09
7.16376e-07
1.83661e-07
2.50143e-07
4.66234e-07
-3.50244e-07
6.00386e-07
-9.87166e-07
6.36922e-07
-1.61107e-06
6.23908e-07
-2.17099e-06
5.59915e-07
-2.64954e-06
4.78555e-07
-3.05429e-06
4.04749e-07
-3.39674e-06
3.42447e-07
-3.68803e-06
2.91287e-07
-3.9378e-06
2.49774e-07
-4.15367e-06
2.15869e-07
-4.34102e-06
1.87354e-07
-4.50348e-06
1.62454e-07
-4.64328e-06
1.39804e-07
-4.76172e-06
1.18434e-07
-4.85944e-06
9.77241e-08
-4.9368e-06
7.73621e-08
-4.99412e-06
5.73219e-08
-5.03192e-06
3.77944e-08
-5.05101e-06
1.90913e-08
-5.0524e-06
1.38882e-09
-5.03854e-06
-1.38591e-08
-5.01088e-06
-2.7655e-08
-4.97124e-06
-3.96405e-08
-4.92158e-06
-4.96676e-08
-4.86369e-06
-5.78817e-08
-4.79929e-06
-6.44067e-08
-4.72984e-06
-6.94522e-08
-4.65652e-06
-7.332e-08
-4.58016e-06
-7.63521e-08
-4.50123e-06
-7.89354e-08
-4.41977e-06
-8.14538e-08
-4.33551e-06
-8.42673e-08
-4.2478e-06
-8.77018e-08
-4.15579e-06
-9.20154e-08
-4.0584e-06
-9.73863e-08
-3.9545e-06
-1.03898e-07
-3.84297e-06
-1.11533e-07
-3.72281e-06
-1.20166e-07
-3.59323e-06
-1.29573e-07
-3.45377e-06
-1.39467e-07
-3.30425e-06
-1.49513e-07
-3.14489e-06
-1.59359e-07
-2.97623e-06
-1.68659e-07
-2.79913e-06
-1.77109e-07
-2.61467e-06
-1.84453e-07
-2.42416e-06
-1.90509e-07
-2.22899e-06
-1.95175e-07
-2.03057e-06
-1.98413e-07
-1.83035e-06
-2.00228e-07
-1.62966e-06
-2.00688e-07
-1.42974e-06
-1.99918e-07
-1.23165e-06
-1.98089e-07
-1.03624e-06
-1.95411e-07
-8.44136e-07
-1.92104e-07
-6.5578e-07
-1.88356e-07
-4.71474e-07
-1.84307e-07
-2.91607e-07
-1.79867e-07
-1.1666e-07
-1.74947e-07
5.23649e-08
-1.69024e-07
2.14494e-07
-1.62129e-07
3.68126e-07
-1.53632e-07
5.11707e-07
-1.43581e-07
6.4385e-07
-1.32143e-07
7.63528e-07
-1.19678e-07
8.70199e-07
-1.06671e-07
9.63835e-07
-9.36359e-08
1.04486e-06
-8.10285e-08
1.11406e-06
-6.91953e-08
1.17241e-06
-5.83529e-08
1.22101e-06
-4.85956e-08
1.26093e-06
-3.99183e-08
1.29318e-06
-3.22578e-08
1.31868e-06
-2.55002e-08
1.33822e-06
-1.95344e-08
1.35248e-06
-1.42609e-08
1.36202e-06
-9.53982e-09
1.36737e-06
-5.35189e-09
1.36899e-06
-1.61442e-09
1.36715e-06
1.83622e-09
1.36221e-06
4.94066e-09
1.35469e-06
7.51584e-09
1.34512e-06
9.57576e-09
1.33394e-06
1.1178e-08
1.32157e-06
1.23663e-08
1.30839e-06
1.31872e-08
1.29467e-06
1.3715e-08
1.28067e-06
1.40015e-08
1.26659e-06
1.40789e-08
1.25262e-06
1.39684e-08
1.23894e-06
1.36856e-08
1.22569e-06
1.32469e-08
1.21301e-06
1.26742e-08
1.20102e-06
1.1996e-08
1.18977e-06
1.12452e-08
1.17932e-06
1.04556e-08
1.16966e-06
9.65893e-09
1.16078e-06
8.88292e-09
1.15263e-06
8.14957e-09
1.14515e-06
7.47298e-09
1.13829e-06
6.85901e-09
1.13198e-06
6.3141e-09
1.12616e-06
5.81991e-09
1.12077e-06
5.38702e-09
1.11577e-06
5.00679e-09
1.11109e-06
4.67553e-09
1.1067e-06
4.39002e-09
1.10255e-06
4.14717e-09
1.09861e-06
3.94437e-09
1.09483e-06
3.77871e-09
1.09118e-06
3.64585e-09
1.08764e-06
3.54237e-09
1.08417e-06
3.46762e-09
1.08075e-06
3.42244e-09
1.07734e-06
3.40962e-09
1.0739e-06
3.4391e-09
1.07039e-06
3.51668e-09
1.06674e-06
3.64769e-09
1.06291e-06
3.82795e-09
1.05884e-06
4.07222e-09
1.05447e-06
4.37378e-09
1.0497e-06
4.76671e-09
1.04447e-06
5.22475e-09
1.03863e-06
5.83917e-09
1.03211e-06
6.52035e-09
1.0246e-06
7.51022e-09
1.01609e-06
8.51842e-09
1.00587e-06
1.02112e-08
9.94199e-07
1.16753e-08
9.79382e-07
1.48168e-08
9.6261e-07
1.67725e-08
9.39369e-07
2.32412e-08
9.14235e-07
2.5134e-08
8.74045e-07
4.01901e-08
8.35234e-07
3.88109e-08
7.56965e-07
7.82689e-08
6.07612e-08
6.96204e-07
-6.76225e-08
1.97259e-07
-7.45288e-08
9.35762e-08
2.61952e-08
-1.28194e-07
1.98997e-07
-2.97385e-07
4.06305e-07
-3.91928e-07
6.22254e-07
-4.32293e-07
8.34779e-07
-4.40314e-07
1.03976e-06
-4.31415e-07
1.23644e-06
-4.14784e-07
1.42481e-06
-3.94489e-07
1.60449e-06
-3.71707e-07
1.77379e-06
-3.45496e-07
1.92983e-06
-3.14473e-07
2.0692e-06
-2.77961e-07
2.1887e-06
-2.35603e-07
2.28522e-06
-1.87512e-07
2.35631e-06
-1.34326e-07
2.39971e-06
-7.68359e-08
2.41323e-06
-1.60853e-08
2.39953e-06
4.41566e-08
2.35956e-06
1.03781e-07
2.29444e-06
1.60996e-07
2.20708e-06
2.13758e-07
2.10117e-06
2.59372e-07
1.97977e-06
2.99109e-07
1.84805e-06
3.29829e-07
1.70788e-06
3.53501e-07
1.56661e-06
3.68368e-07
1.4288e-06
3.67945e-07
1.30353e-06
3.63928e-07
1.18621e-06
3.27329e-07
1.02457e-06
2.82115e-07
8.95578e-07
1.83791e-07
8.43859e-07
7.26334e-08
7.8855e-07
2.2235e-08
8.078e-07
-1.41085e-07
9.9942e-07
-3.67191e-07
1.1206e-06
-2.72442e-07
9.59283e-07
-3.36284e-08
6.0612e-07
2.02016e-07
-1.87873e-08
5.71929e-07
-7.85325e-07
7.72806e-07
-1.48814e-06
8.86472e-07
-2.04323e-06
1.02133e-06
-2.52334e-06
1.08049e-06
-2.94529e-06
1.05887e-06
-3.29705e-06
9.75675e-07
-3.59835e-06
8.61212e-07
-3.86274e-06
7.42947e-07
-4.09517e-06
6.37182e-07
-4.29979e-06
5.4706e-07
-4.4812e-06
4.72702e-07
-4.64281e-06
4.11384e-07
-4.78679e-06
3.59847e-07
-4.91436e-06
3.14923e-07
-5.02597e-06
2.7407e-07
-5.12161e-06
2.35442e-07
-5.20102e-06
1.97844e-07
-5.26396e-06
1.60664e-07
-5.31035e-06
1.23748e-07
-5.34034e-06
8.73122e-08
-5.35428e-06
5.17384e-08
-5.35267e-06
1.74827e-08
-5.33682e-06
-1.44611e-08
-5.30708e-06
-4.36002e-08
-5.26492e-06
-6.98178e-08
-5.21189e-06
-9.26724e-08
-5.14962e-06
-1.1194e-07
-5.07988e-06
-1.27615e-07
-5.00434e-06
-1.3995e-07
-4.9244e-06
-1.49394e-07
-4.84116e-06
-1.56556e-07
-4.75536e-06
-1.62153e-07
-4.66734e-06
-1.66955e-07
-4.57707e-06
-1.71729e-07
-4.48414e-06
-1.77196e-07
-4.38786e-06
-1.83984e-07
-4.28728e-06
-1.92596e-07
-4.1813e-06
-2.03366e-07
-4.06875e-06
-2.16442e-07
-3.94852e-06
-2.3177e-07
-3.8196e-06
-2.49087e-07
-3.68123e-06
-2.67935e-07
-3.53298e-06
-2.87717e-07
-3.37474e-06
-3.07754e-07
-3.20677e-06
-3.27337e-07
-3.02965e-06
-3.45778e-07
-2.84428e-06
-3.62479e-07
-2.65177e-06
-3.76957e-07
-2.45341e-06
-3.88874e-07
-2.25052e-06
-3.98061e-07
-2.04447e-06
-4.04466e-07
-1.8366e-06
-4.08102e-07
-1.62819e-06
-4.09092e-07
-1.42042e-06
-4.07685e-07
-1.2143e-06
-4.04217e-07
-1.01061e-06
-3.99093e-07
-8.09938e-07
-3.92781e-07
-6.12627e-07
-3.85667e-07
-4.18888e-07
-3.78045e-07
-2.28889e-07
-3.69866e-07
-4.30815e-08
-3.60754e-07
1.37824e-07
-3.4993e-07
3.12462e-07
-3.36768e-07
4.7936e-07
-3.2053e-07
6.36888e-07
-3.01109e-07
7.83596e-07
-2.78851e-07
9.18434e-07
-2.54516e-07
1.04087e-06
-2.2911e-07
1.15092e-06
-2.0368e-07
1.24903e-06
-1.79137e-07
1.33599e-06
-1.5616e-07
1.4128e-06
-1.35164e-07
1.48053e-06
-1.16326e-07
1.54026e-06
-9.96427e-08
1.59298e-06
-8.49859e-08
1.63964e-06
-7.21565e-08
1.68104e-06
-6.09311e-08
1.71785e-06
-5.10786e-08
1.75069e-06
-4.23779e-08
1.77999e-06
-3.46488e-08
1.80612e-06
-2.77443e-08
1.82949e-06
-2.15317e-08
1.85036e-06
-1.59363e-08
1.86884e-06
-1.09624e-08
1.88504e-06
-6.61977e-09
1.89908e-06
-2.86549e-09
1.91112e-06
3.27696e-10
1.92138e-06
2.93023e-09
1.93009e-06
4.99939e-09
1.93755e-06
6.5402e-09
1.94406e-06
7.57813e-09
1.94988e-06
8.14457e-09
1.95529e-06
8.27899e-09
1.9605e-06
8.03231e-09
1.9657e-06
7.47102e-09
1.97103e-06
6.67362e-09
1.97655e-06
5.72303e-09
1.9823e-06
4.70002e-09
1.98829e-06
3.67658e-09
1.99446e-06
2.7118e-09
2.00076e-06
1.84778e-09
2.00712e-06
1.10799e-09
2.01348e-06
4.98049e-10
2.01977e-06
2.51357e-11
2.02597e-06
-3.73619e-10
2.032e-06
-6.49763e-10
2.03785e-06
-8.35041e-10
2.04346e-06
-9.429e-10
2.04884e-06
-9.84019e-10
2.05395e-06
-9.60646e-10
2.05876e-06
-8.67195e-10
2.06323e-06
-6.97608e-10
2.06733e-06
-4.51311e-10
2.07101e-06
-1.33862e-10
2.07424e-06
2.316e-10
2.07702e-06
6.41193e-10
2.07933e-06
1.10116e-09
2.08115e-06
1.6215e-09
2.08246e-06
2.20976e-09
2.08323e-06
2.87918e-09
2.08343e-06
3.62089e-09
2.08304e-06
4.46257e-09
2.08203e-06
5.39119e-09
2.08033e-06
6.4626e-09
2.07793e-06
7.62487e-09
2.07473e-06
9.04067e-09
2.07071e-06
1.05352e-08
2.06566e-06
1.25587e-08
2.05964e-06
1.45419e-08
2.05211e-06
1.7739e-08
2.04339e-06
2.03985e-08
2.03217e-06
2.60355e-08
2.01949e-06
2.94559e-08
2.00219e-06
4.0539e-08
1.98306e-06
4.42614e-08
1.95507e-06
6.81792e-08
1.92402e-06
6.98677e-08
1.87733e-06
1.2496e-07
1.19974e-07
1.81811e-06
-1.20419e-08
2.09301e-07
9.75542e-08
-1.60199e-08
2.88571e-07
-3.19211e-07
4.98288e-07
-5.07103e-07
6.97979e-07
-5.91618e-07
8.82054e-07
-6.16369e-07
1.05521e-06
-6.13467e-07
1.22446e-06
-6.00672e-07
1.39474e-06
-5.85063e-07
1.56717e-06
-5.66921e-07
1.73934e-06
-5.43871e-07
1.90698e-06
-5.13139e-07
2.06514e-06
-4.72632e-07
2.20853e-06
-4.21349e-07
2.33228e-06
-3.59354e-07
2.43226e-06
-2.87491e-07
2.505e-06
-2.07067e-07
2.54786e-06
-1.19699e-07
2.55905e-06
-2.72684e-08
2.53741e-06
6.57873e-08
2.48375e-06
1.57441e-07
2.40072e-06
2.44031e-07
2.29363e-06
3.2085e-07
2.16797e-06
3.85025e-07
2.03408e-06
4.33001e-07
1.89759e-06
4.66321e-07
1.7655e-06
4.85594e-07
1.64698e-06
4.8689e-07
1.52967e-06
4.85254e-07
1.43094e-06
4.62656e-07
1.33063e-06
4.27637e-07
1.2406e-06
3.72144e-07
1.14979e-06
2.74601e-07
1.06507e-06
1.57356e-07
1.13348e-06
-4.61762e-08
1.15124e-06
-1.58848e-07
8.3725e-07
-5.31969e-08
2.82038e-07
2.82769e-07
-4.78498e-07
7.26908e-07
-1.22892e-06
9.52438e-07
-1.7888e-06
1.13181e-06
-2.27721e-06
1.26121e-06
-2.73987e-06
1.34913e-06
-3.09887e-06
1.38034e-06
-3.36446e-06
1.34608e-06
-3.56511e-06
1.25952e-06
-3.7291e-06
1.13966e-06
-3.87877e-06
1.01089e-06
-4.02455e-06
8.88725e-07
-4.16858e-06
7.81205e-07
-4.31085e-06
6.89336e-07
-4.45013e-06
6.11984e-07
-4.58456e-06
5.45814e-07
-4.71188e-06
4.87167e-07
-4.8297e-06
4.32737e-07
-4.93563e-06
3.79998e-07
-5.02754e-06
3.27356e-07
-5.10374e-06
2.74042e-07
-5.16305e-06
2.19974e-07
-5.20484e-06
1.65538e-07
-5.22896e-06
1.11434e-07
-5.23575e-06
5.85258e-08
-5.2256e-06
7.33601e-09
-5.20092e-06
-3.91455e-08
-5.1626e-06
-8.19141e-08
-5.11239e-06
-1.20032e-07
-5.05224e-06
-1.52816e-07
-4.98412e-06
-1.80061e-07
-4.90987e-06
-2.01864e-07
-4.83116e-06
-2.18665e-07
-4.74935e-06
-2.31201e-07
-4.66547e-06
-2.40438e-07
-4.58012e-06
-2.47498e-07
-4.49352e-06
-2.53561e-07
-4.40544e-06
-2.59805e-07
-4.31531e-06
-2.67321e-07
-4.22225e-06
-2.77048e-07
-4.12513e-06
-2.89713e-07
-4.02272e-06
-3.05784e-07
-3.91372e-06
-3.25437e-07
-3.79694e-06
-3.48546e-07
-3.67136e-06
-3.74673e-07
-3.5362e-06
-4.03091e-07
-3.39107e-06
-4.32847e-07
-3.23595e-06
-4.62874e-07
-3.07122e-06
-4.92071e-07
-2.8976e-06
-5.19396e-07
-2.71612e-06
-5.43955e-07
-2.52803e-06
-5.65057e-07
-2.33466e-06
-5.8224e-07
-2.13741e-06
-5.95308e-07
-1.93762e-06
-6.04254e-07
-1.7366e-06
-6.0913e-07
-1.53553e-06
-6.10157e-07
-1.33544e-06
-6.07779e-07
-1.1371e-06
-6.02552e-07
-9.41137e-07
-5.95057e-07
-7.47855e-07
-5.86062e-07
-5.5736e-07
-5.76162e-07
-3.69479e-07
-5.65926e-07
-1.84161e-07
-5.55185e-07
-1.75605e-09
-5.43159e-07
1.77548e-07
-5.29234e-07
3.51599e-07
-5.10818e-07
5.18552e-07
-4.87483e-07
6.76265e-07
-4.58822e-07
8.22819e-07
-4.25405e-07
9.56888e-07
-3.88585e-07
1.0779e-06
-3.50125e-07
1.18601e-06
-3.1179e-07
1.28192e-06
-2.75043e-07
1.36666e-06
-2.40899e-07
1.44141e-06
-2.09916e-07
1.50736e-06
-1.82275e-07
1.56561e-06
-1.57892e-07
1.61715e-06
-1.36525e-07
1.66286e-06
-1.17864e-07
1.70352e-06
-1.01596e-07
1.73987e-06
-8.74243e-08
1.77257e-06
-7.50834e-08
1.80225e-06
-6.43223e-08
1.8294e-06
-5.4898e-08
1.85446e-06
-4.65921e-08
1.87773e-06
-3.92074e-08
1.89937e-06
-3.26027e-08
1.91944e-06
-2.66929e-08
1.938e-06
-2.14217e-08
1.95511e-06
-1.6778e-08
1.97082e-06
-1.27872e-08
1.98528e-06
-9.45751e-09
1.99863e-06
-6.81373e-09
2.01108e-06
-4.86753e-09
2.02284e-06
-3.62018e-09
2.03416e-06
-3.03796e-09
2.04525e-06
-3.05428e-09
2.05629e-06
-3.57233e-09
2.06744e-06
-4.47214e-09
2.07878e-06
-5.6231e-09
2.09038e-06
-6.89628e-09
2.10223e-06
-8.17545e-09
2.11431e-06
-9.36586e-09
2.12656e-06
-1.04004e-08
2.13891e-06
-1.12425e-08
2.15129e-06
-1.18826e-08
2.16364e-06
-1.23218e-08
2.17586e-06
-1.25943e-08
2.18791e-06
-1.27049e-08
2.19976e-06
-1.26836e-08
2.21137e-06
-1.25541e-08
2.22272e-06
-1.23301e-08
2.23377e-06
-1.2013e-08
2.2445e-06
-1.15988e-08
2.25489e-06
-1.10878e-08
2.26493e-06
-1.04895e-08
2.27461e-06
-9.81313e-09
2.2839e-06
-9.06122e-09
2.29277e-06
-8.22745e-09
2.30118e-06
-7.30421e-09
2.30908e-06
-6.28012e-09
2.31644e-06
-5.15164e-09
2.32322e-06
-3.90218e-09
2.32938e-06
-2.53396e-09
2.33484e-06
-1.00111e-09
2.33956e-06
6.72116e-10
2.34347e-06
2.54566e-09
2.34657e-06
4.52819e-09
2.34878e-06
6.8308e-09
2.3501e-06
9.21542e-09
2.35042e-06
1.22383e-08
2.34976e-06
1.52063e-08
2.34792e-06
1.95763e-08
2.34492e-06
2.33974e-08
2.34049e-06
3.04709e-08
2.33447e-06
3.54755e-08
2.32675e-06
4.82556e-08
2.31627e-06
5.47378e-08
2.3045e-06
7.99494e-08
2.28628e-06
8.80871e-08
2.271e-06
1.40242e-07
1.53874e-07
2.2371e-06
5.25333e-08
1.56768e-07
2.76624e-07
-2.40111e-07
5.175e-07
-5.60087e-07
7.17273e-07
-7.06876e-07
8.78133e-07
-7.52479e-07
1.02149e-06
-7.59729e-07
1.16616e-06
-7.58132e-07
1.32228e-06
-7.56795e-07
1.49203e-06
-7.54807e-07
1.67186e-06
-7.46758e-07
1.85484e-06
-7.26843e-07
2.033e-06
-6.91303e-07
2.19903e-06
-6.38659e-07
2.34696e-06
-5.69283e-07
2.47248e-06
-4.84876e-07
2.57265e-06
-3.87655e-07
2.64511e-06
-2.79531e-07
2.68804e-06
-1.62627e-07
2.70035e-06
-3.95771e-08
2.67621e-06
8.99209e-08
2.61467e-06
2.18983e-07
2.51725e-06
3.41456e-07
2.38739e-06
4.50707e-07
2.23216e-06
5.40253e-07
2.06176e-06
6.03404e-07
1.88896e-06
6.39122e-07
1.72408e-06
6.50471e-07
1.56547e-06
6.45503e-07
1.43185e-06
6.18874e-07
1.30636e-06
5.88148e-07
1.19075e-06
5.43246e-07
1.09481e-06
4.68083e-07
9.45337e-07
4.24073e-07
8.63699e-07
2.38994e-07
7.69719e-07
4.78037e-08
3.68726e-07
2.42145e-07
-3.99007e-07
7.14536e-07
-1.15781e-06
1.04157e-06
-1.7131e-06
1.2822e-06
-2.19327e-06
1.43261e-06
-2.59877e-06
1.53731e-06
-2.93213e-06
1.59458e-06
-3.19939e-06
1.61638e-06
-3.3984e-06
1.57935e-06
-3.54569e-06
1.49337e-06
-3.65975e-06
1.37358e-06
-3.76039e-06
1.2403e-06
-3.85896e-06
1.10946e-06
-3.96091e-06
9.90675e-07
-4.06807e-06
8.88362e-07
-4.18053e-06
8.01796e-07
-4.29639e-06
7.27847e-07
-4.41253e-06
6.61954e-07
-4.52521e-06
5.99848e-07
-4.63063e-06
5.38151e-07
-4.72525e-06
4.74618e-07
-4.80608e-06
4.08192e-07
-4.87086e-06
3.3882e-07
-4.91812e-06
2.67232e-07
-4.94725e-06
1.94673e-07
-4.95844e-06
1.22621e-07
-4.95231e-06
5.23982e-08
-4.93075e-06
-1.42238e-08
-4.89478e-06
-7.51175e-08
-4.84651e-06
-1.30186e-07
-4.78816e-06
-1.78381e-07
-4.72181e-06
-2.19169e-07
-4.64944e-06
-2.52424e-07
-4.5729e-06
-2.78411e-07
-4.49377e-06
-2.97794e-07
-4.41333e-06
-3.11635e-07
-4.33245e-06
-3.21319e-07
-4.25152e-06
-3.28433e-07
-4.17045e-06
-3.34628e-07
-4.08875e-06
-3.41501e-07
-4.00557e-06
-3.5051e-07
-3.91973e-06
-3.62887e-07
-3.82988e-06
-3.7956e-07
-3.73457e-06
-4.01089e-07
-3.6324e-06
-4.27615e-07
-3.52209e-06
-4.58851e-07
-3.40266e-06
-4.94106e-07
-3.27341e-06
-5.32339e-07
-3.13403e-06
-5.72232e-07
-2.98457e-06
-6.1233e-07
-2.82548e-06
-6.51162e-07
-2.65752e-06
-6.87356e-07
-2.48173e-06
-7.19746e-07
-2.29936e-06
-7.47423e-07
-2.11185e-06
-7.69751e-07
-1.92075e-06
-7.86408e-07
-1.72769e-06
-7.97318e-07
-1.53434e-06
-8.02474e-07
-1.34235e-06
-8.02153e-07
-1.15301e-06
-7.97119e-07
-9.67186e-07
-7.88374e-07
-7.85364e-07
-7.76879e-07
-6.07447e-07
-7.63979e-07
-4.32802e-07
-7.50808e-07
-2.60389e-07
-7.38339e-07
-8.91437e-08
-7.2643e-07
8.20897e-08
-7.14392e-07
2.52517e-07
-6.99661e-07
4.21219e-07
-6.79521e-07
5.85719e-07
-6.51983e-07
7.42973e-07
-6.16076e-07
8.89976e-07
-5.72408e-07
1.02441e-06
-5.23021e-07
1.14505e-06
-4.70766e-07
1.25181e-06
-4.18551e-07
1.34552e-06
-3.6875e-07
1.42755e-06
-3.22924e-07
1.49946e-06
-2.81828e-07
1.56278e-06
-2.45591e-07
1.61881e-06
-2.13932e-07
1.66864e-06
-1.86347e-07
1.71302e-06
-1.62247e-07
1.75249e-06
-1.41065e-07
1.7874e-06
-1.2233e-07
1.81802e-06
-1.05705e-07
1.84468e-06
-9.09873e-08
1.86785e-06
-7.80705e-08
1.88814e-06
-6.68738e-08
1.9062e-06
-5.72722e-08
1.92268e-06
-4.90776e-08
1.93805e-06
-4.20629e-08
1.95262e-06
-3.60008e-08
1.96656e-06
-3.07162e-08
1.9799e-06
-2.61264e-08
1.99266e-06
-2.22196e-08
2.00488e-06
-1.90322e-08
2.01663e-06