/*--------------------------------*- C++ -*----------------------------------*\
  =========                 |
  \\      /  F ield         | OpenFOAM: The Open Source CFD Toolbox
   \\    /   O peration     | Website:  https://openfoam.org
    \\  /    A nd           | Version:  7
     \\/     M anipulation  |
\*---------------------------------------------------------------------------*/
FoamFile
{
    version     2.0;
    format      ascii;
    class       volScalarField;
    location    "0.057";
    object      s;
}
// * * * * * * * * * * * * * * * * * * * * * * * * * * * * * * * * * * * * * //

dimensions      [0 0 0 0 0 0 0];

internalField   nonuniform List<scalar> 
12225
(
1
1
1
1
1
1
1
1
1
1
1
1
1
1
1
1
1
1
1
1
1
1
1
1
1
1
1
1
1
1
1
1
1
1
1
1
1
1
1
1
1
1
1
1
1
1
1
1
1
1
1
1
1
1
1
1
1
1
1
1
1
1
1
1
1
1
1
1
1
1
1
1
1
1
1
1
1
1
1
1
1
1
1
1
1
1
1
1
1
1
1
1
1
1
1
1
1
1
1
1
1
1
1
1
1
1
1
1
1
1
1
1
1
1
1
1
1
1
1
1
1
1
1
1
1
1
1
1
1
1
1
1
1
1
1
1
1
1
1
1
1
1
1
1
1
1
1
1
1
1
1
1
1
1
1
1
1
1
1
1
1
1
1
1
1
1
1
1
1
1
1
1
1
1
1
1
1
1
1
1
1
1
1
1
1
1
1
1
1
1
1
1
1
1
1
1
1
1
1
1
1
1
1
1
1
1
1
1
1
1
1
1
1
1
1
1
1
1
1
1
1
1
1
1
1
1
1
1
1
1
1
1
1
1
1
1
1
1
1
1
1
1
1
1
1
1
1
1
1
1
1
1
1
1
1
1
1
1
1
1
1
1
1
1
1
1
1
1
1
1
1
1
1
1
1
1
1
1
1
1
1
1
1
1
1
1
1
1
1
1
1
1
1
1
1
1
1
1
1
1
1
1
1
1
1
1
1
1
1
1
1
1
1
1
1
1
1
1
1
1
1
1
1
1
1
1
1
1
1
1
1
1
1
1
1
1
1
1
1
1
1
1
1
1
1
1
1
1
1
1
1
1
1
1
1
1
1
1
1
1
1
1
1
1
1
1
1
1
1
1
1
1
1
1
1
1
1
1
1
1
1
1
1
1
1
1
1
1
1
1
1
1
1
1
1
1
1
1
1
1
1
1
1
1
1
1
1
1
1
1
1
1
1
1
1
1
1
1
1
1
1
1
1
1
1
1
1
1
1
1
1
1
1
1
1
1
1
1
1
1
1
1
1
1
1
1
1
1
1
1
1
1
1
1
1
1
1
1
1
1
1
1
1
1
1
1
1
1
1
1
1
1
1
1
1
1
1
1
1
1
1
1
1
1
1
1
1
1
1
1
1
1
1
1
1
1
1
1
1
1
1
1
1
1
1
1
1
1
1
1
1
1
1
1
1
1
1
1
1
1
1
1
1
1
1
1
1
1
1
1
1
1
1
1
1
1
1
1
1
1
8.58136e-06
5.92723e-05
0.000208144
0.000545272
0.0011148
0.00243379
0.00375609
0.00706535
0.0111893
0.01481
0.0227032
0.0275359
0.0342558
0.0403915
0.0451412
0.0483133
0.0511308
0.0508324
0.0493558
0.0469054
0.0442189
0.041574
0.0388945
0.037046
0.0352093
0.0331059
0.0307917
0.0276969
0.0243619
0.0169186
0.00616782
0.0010643
0.000450215
0.000970247
0.00184758
0.00331749
0.00588791
0.00854814
0.0136554
0.0264989
0.0334455
0.0423805
0.141905
0.538782
0.67916
0.710943
0.764537
0.785478
0.791238
0.793055
0.793383
0.793141
0.791717
0.788433
0.783173
0.778664
0.777122
0.776411
0.77589
0.774979
0.773111
0.771631
0.771364
0.771579
0.772766
0.77327
0.773366
0.772853
0.77147
0.770096
0.76911
0.768583
0.768058
0.767186
0.765868
0.764634
0.764157
0.763952
0.763791
0.763412
0.762524
0.761506
0.76057
0.759405
0.757478
0.754687
0.75138
0.747744
0.7433
0.737362
0.73021
0.722427
0.713542
0.702732
0.690846
0.677599
0.66259
0.645966
0.627417
0.60692
0.583729
0.557862
0.52895
0.496553
0.460382
0.420303
0.376495
0.329575
0.280683
0.231523
0.184298
0.141516
0.105554
0.0776684
0.0559591
0.038723
0.0255946
0.0161286
0.00965901
0.00546538
0.00288344
0.00136402
0.000599855
0.00025384
0.000103453
4.06559e-05
1.54261e-05
5.65777e-06
2.01981e-06
6.94646e-07
1.95294e-07
7.42613e-08
3.45606e-08
1.55413e-08
6.8837e-09
2.99672e-09
1.27831e-09
5.33945e-10
2.18459e-10
8.75935e-11
3.44372e-11
1.32831e-11
5.03027e-12
1.87174e-12
6.84899e-13
2.46643e-13
8.74688e-14
3.05641e-14
1.05275e-14
3.57524e-15
1.19713e-15
3.95081e-16
1.2841e-16
4.10582e-17
1.29046e-17
3.98759e-18
1.21184e-18
3.62275e-19
1.06545e-19
3.08267e-20
8.77363e-21
2.45594e-21
6.75999e-22
1.82911e-22
4.86364e-23
1.2704e-23
3.25829e-24
8.20139e-25
2.02481e-25
4.89954e-26
1.16107e-26
2.69135e-27
6.09522e-28
1.34574e-28
2.89162e-29
6.01886e-30
1.21075e-30
2.32728e-31
4.23657e-32
-8.63803e-34
7.54247e-06
6.71937e-05
0.000467124
0.00158238
0.00397799
0.00914535
0.017433
0.0362231
0.0639493
0.0934542
0.141016
0.172313
0.21862
0.255977
0.291097
0.309002
0.327309
0.328091
0.323764
0.312586
0.290999
0.26446
0.224269
0.183942
0.146989
0.115056
0.0886324
0.06677
0.050796
0.0369925
0.0232736
0.0136682
0.00868345
0.00523574
0.00411089
0.00510446
0.0106018
0.0304966
0.0314966
0.0474103
0.265054
0.534755
0.596963
0.706161
0.760802
0.821134
0.849759
0.871262
0.882656
0.898669
0.908325
0.917916
0.923163
0.927265
0.933043
0.938059
0.943812
0.948079
0.95008
0.951812
0.952764
0.953228
0.953368
0.952524
0.951554
0.950427
0.94972
0.94928
0.94913
0.949116
0.949138
0.949231
0.949274
0.949254
0.94897
0.948637
0.948175
0.947539
0.946665
0.94558
0.944405
0.94326
0.942432
0.941956
0.941782
0.942461
0.943723
0.945705
0.94878
0.951979
0.955111
0.958621
0.962611
0.966344
0.969698
0.973003
0.97559
0.977579
0.97888
0.979666
0.980046
0.979735
0.978073
0.974862
0.969802
0.962453
0.952135
0.937897
0.918441
0.892149
0.856957
0.810429
0.750195
0.675287
0.588819
0.495093
0.398899
0.307142
0.22752
0.164719
0.116554
0.0799364
0.0530099
0.0340146
0.0211433
0.0127447
0.00745997
0.00424425
0.00236533
0.00129359
0.000695304
0.000367747
0.000191569
9.83543e-05
4.97893e-05
2.48551e-05
1.22344e-05
5.93617e-06
2.83784e-06
1.33601e-06
6.1913e-07
2.82336e-07
1.26716e-07
5.60275e-08
2.44693e-08
1.05482e-08
4.46549e-09
1.85091e-09
7.49802e-10
2.96454e-10
1.14217e-10
4.27832e-11
1.55316e-11
5.44357e-12
1.84034e-12
6.06806e-13
1.96142e-13
6.21566e-14
1.93119e-14
5.88279e-15
1.7569e-15
5.14383e-16
1.47626e-16
4.15274e-17
1.14483e-17
3.09258e-18
8.18436e-19
2.12156e-19
5.3848e-20
1.33794e-20
3.25197e-21
7.73073e-22
1.79477e-22
4.06959e-23
8.98181e-24
1.93186e-24
4.01532e-25
8.12094e-26
1.46291e-26
-1.78727e-26
6.04754e-06
0.000181361
0.00132222
0.00430667
0.0114191
0.0272633
0.0603708
0.133123
0.225073
0.351845
0.453106
0.537502
0.586346
0.614742
0.626421
0.630417
0.629752
0.627372
0.625219
0.620542
0.612695
0.594463
0.576175
0.538855
0.492015
0.418666
0.338044
0.250134
0.165776
0.110834
0.0724228
0.0460858
0.0311858
0.0192622
0.0159656
0.0189439
0.029642
0.102495
0.343359
0.515416
0.668682
0.739539
0.789881
0.831388
0.853417
0.865097
0.870832
0.875376
0.88032
0.884271
0.885294
0.884981
0.879512
0.870726
0.861344
0.857073
0.854448
0.85144
0.848021
0.843945
0.839054
0.834751
0.832719
0.831507
0.830732
0.829986
0.828928
0.827807
0.827365
0.827195
0.827435
0.827995
0.827899
0.827351
0.826495
0.825153
0.823171
0.820276
0.816783
0.812998
0.808955
0.806159
0.805244
0.805022
0.805773
0.80875
0.812457
0.816581
0.822633
0.829769
0.838657
0.849554
0.862948
0.87838
0.894815
0.9127
0.930387
0.946963
0.960309
0.970182
0.978204
0.984472
0.989376
0.993017
0.9955
0.997016
0.997811
0.998109
0.998114
0.997632
0.99627
0.993936
0.990114
0.983921
0.973756
0.956602
0.927227
0.878318
0.802776
0.698718
0.574992
0.445988
0.327638
0.232143
0.160337
0.107588
0.0701686
0.0445659
0.0276089
0.0167246
0.00993252
0.00579812
0.00333493
0.00189384
0.00106341
0.000590896
0.000324933
0.000176717
9.49418e-05
5.03115e-05
2.62535e-05
1.34684e-05
6.78335e-06
3.35026e-06
1.62125e-06
7.68278e-07
3.56414e-07
1.61843e-07
7.19284e-08
3.12859e-08
1.33164e-08
5.54544e-09
2.259e-09
9.00035e-10
3.50667e-10
1.33575e-10
4.97326e-11
1.80935e-11
6.43012e-12
2.23135e-12
7.55717e-13
2.49652e-13
8.03954e-14
2.5326e-14
7.82771e-15
2.37358e-15
7.05957e-16
2.05927e-16
5.88889e-17
1.65085e-17
4.53305e-18
1.2194e-18
3.20803e-19
8.26126e-20
2.07443e-20
5.09417e-21
1.21233e-21
2.81891e-22
6.31277e-23
1.17326e-23
3.55207e-05
0.0012814
0.00456731
0.0124079
0.0327172
0.0826167
0.196101
0.395408
0.571204
0.653574
0.691106
0.702783
0.700083
0.694184
0.681649
0.666696
0.654579
0.641881
0.641174
0.64179
0.643042
0.642643
0.640905
0.636191
0.626438
0.60763
0.568345
0.499559
0.420731
0.314279
0.190216
0.128833
0.104922
0.0595903
0.0423119
0.0803078
0.356543
0.518157
0.669654
0.755779
0.807611
0.833185
0.847663
0.852652
0.853142
0.847533
0.827932
0.796882
0.767761
0.754388
0.748166
0.7466
0.751987
0.76192
0.763349
0.763122
0.762041
0.760189
0.75934
0.759323
0.761309
0.764906
0.768342
0.772173
0.776593
0.77835
0.778787
0.778821
0.778679
0.778201
0.777118
0.775037
0.771611
0.766751
0.760785
0.754462
0.748966
0.745656
0.744376
0.744074
0.744282
0.745554
0.748804
0.752814
0.757158
0.761833
0.766043
0.769315
0.772065
0.774115
0.776691
0.779381
0.782089
0.786101
0.792638
0.802401
0.816115
0.834563
0.857699
0.883414
0.908076
0.930023
0.949092
0.965293
0.978335
0.987404
0.99331
0.996769
0.9985
0.999307
0.999655
0.999783
0.999815
0.999805
0.999717
0.999482
0.998971
0.997844
0.995322
0.989541
0.975862
0.942096
0.861383
0.73769
0.590078
0.441556
0.313935
0.21644
0.145121
0.0948491
0.0605977
0.0379457
0.0233455
0.0141398
0.00844296
0.00497351
0.00289035
0.00165611
0.000934548
0.000518679
0.000282721
0.000151148
7.91682e-05
4.05931e-05
2.03644e-05
9.99263e-06
4.79542e-06
2.25074e-06
1.03329e-06
4.64048e-07
2.03883e-07
8.7638e-08
3.68551e-08
1.51633e-08
6.10344e-09
2.40334e-09
9.25696e-10
3.48716e-10
1.28453e-10
4.62586e-11
1.6282e-11
5.60011e-12
1.88165e-12
6.17411e-13
1.97724e-13
6.18181e-14
1.89348e-14
5.68645e-15
1.67379e-15
4.82879e-16
1.36443e-16
3.77677e-17
1.02258e-17
2.71034e-18
7.00939e-19
1.773e-19
4.35485e-20
1.04509e-20
2.41621e-21
5.31257e-22
0.00148221
0.00585469
0.0128222
0.0316181
0.0880271
0.233734
0.532771
0.668812
0.718827
0.731052
0.727854
0.717387
0.686643
0.647129
0.583996
0.520647
0.472063
0.430711
0.430512
0.441478
0.472891
0.526993
0.573933
0.608379
0.621038
0.621007
0.615878
0.596894
0.549359
0.459401
0.365288
0.249849
0.127654
0.0693311
0.150656
0.465686
0.657738
0.749925
0.812759
0.842183
0.854566
0.858094
0.851952
0.841141
0.814568
0.747271
0.668338
0.635472
0.622536
0.618231
0.617948
0.627256
0.649819
0.669357
0.681019
0.696214
0.714929
0.728359
0.733403
0.735501
0.736732
0.739094
0.744629
0.752823
0.760007
0.765545
0.768163
0.768977
0.76911
0.768951
0.768009
0.765677
0.761379
0.754742
0.745965
0.735811
0.73044
0.729263
0.729276
0.730719
0.734771
0.741173
0.747205
0.75351
0.761344
0.770171
0.777268
0.782663
0.785891
0.787186
0.787647
0.786969
0.784568
0.782839
0.782381
0.785223
0.790675
0.799183
0.811283
0.827911
0.848757
0.87138
0.893712
0.914615
0.934333
0.953755
0.971017
0.984214
0.992204
0.996399
0.998459
0.99938
0.999757
0.9999
0.999952
0.999969
0.999973
0.999971
0.99995
0.999875
0.999654
0.999015
0.997153
0.991618
0.975001
0.924522
0.792047
0.624605
0.463844
0.328963
0.22649
0.152048
0.0998665
0.0643383
0.0407259
0.0253512
0.01552
0.00933931
0.0055186
0.00319813
0.00181538
0.00100821
0.000547356
0.00029031
0.000150382
7.60736e-05
3.75852e-05
1.81398e-05
8.55435e-06
3.94263e-06
1.7763e-06
7.82423e-07
3.36987e-07
1.41925e-07
5.84512e-08
2.35402e-08
9.27005e-09
3.56914e-09
1.34336e-09
4.94198e-10
1.77665e-10
6.24056e-11
2.1413e-11
7.17627e-12
2.34852e-12
7.50389e-13
2.33922e-13
7.1295e-14
2.12826e-14
6.22265e-15
1.78104e-15
4.99082e-16
1.36766e-16
3.6668e-17
9.59583e-18
2.45422e-18
6.10565e-19
1.48192e-19
3.48135e-20
7.82507e-21
0.0117665
0.015853
0.0262712
0.070329
0.219394
0.551407
0.698383
0.743339
0.746495
0.739241
0.713328
0.651435
0.520299
0.376965
0.27279
0.208162
0.174256
0.148909
0.140688
0.145437
0.162432
0.204551
0.28852
0.454666
0.560344
0.604955
0.612795
0.608912
0.589647
0.534532
0.40036
0.233566
0.108777
0.160615
0.519161
0.713906
0.803064
0.845348
0.864118
0.869597
0.869667
0.85642
0.838288
0.792095
0.693735
0.608177
0.578067
0.566885
0.563919
0.564031
0.572197
0.585134
0.598476
0.612007
0.622348
0.631895
0.644074
0.652362
0.656238
0.66199
0.671717
0.680791
0.689662
0.697447
0.703025
0.712367
0.726275
0.735078
0.738783
0.740246
0.740471
0.739863
0.737055
0.731107
0.721641
0.713129
0.710881
0.71092
0.713784
0.720855
0.730989
0.743067
0.754569
0.766425
0.780445
0.791933
0.798311
0.804248
0.809207
0.811813
0.814225
0.815311
0.815716
0.815077
0.811939
0.806533
0.802105
0.800567
0.806908
0.818606
0.834821
0.854767
0.876858
0.898474
0.917397
0.933392
0.947677
0.961693
0.975679
0.987026
0.993924
0.997316
0.998886
0.999559
0.999831
0.999935
0.999973
0.999987
0.999992
0.999992
0.999991
0.999983
0.999949
0.999827
0.999402
0.997927
0.992829
0.975436
0.91721
0.761088
0.58198
0.424582
0.299821
0.206372
0.138874
0.0915169
0.059093
0.0373777
0.0231414
0.0140091
0.00828358
0.0047799
0.00268988
0.00147574
0.000789251
0.000411539
0.000209278
0.000103828
5.02752e-05
2.37686e-05
1.09749e-05
4.95051e-06
2.1819e-06
9.39747e-07
3.95558e-07
1.62721e-07
6.54184e-08
2.57008e-08
9.86593e-09
3.70012e-09
1.35554e-09
4.85027e-10
1.69474e-10
5.7819e-11
1.92572e-11
6.2608e-12
1.98644e-12
6.14875e-13
1.86005e-13
5.50684e-14
1.59497e-14
4.51945e-15
1.25188e-15
3.39031e-16
8.96285e-17
2.31393e-17
5.8171e-18
1.42525e-18
3.38979e-19
7.73695e-20
0.0188397
0.0201666
0.0391825
0.142061
0.484447
0.690649
0.753738
0.759106
0.749996
0.709324
0.60262
0.378897
0.250584
0.177077
0.13958
0.116235
0.1012
0.0935636
0.0774435
0.0725865
0.0754969
0.088384
0.124571
0.210415
0.404243
0.550334
0.601006
0.605731
0.591309
0.531777
0.371846
0.166004
0.15766
0.493211
0.735249
0.82481
0.862633
0.876558
0.879965
0.878197
0.867721
0.84523
0.797279
0.688675
0.592973
0.559914
0.550138
0.548272
0.550696
0.55949
0.570899
0.584587
0.596241
0.606819
0.613938
0.617338
0.620056
0.622034
0.623057
0.62556
0.628087
0.629748
0.631116
0.633636
0.63641
0.640102
0.643795
0.648193
0.653145
0.656732
0.657736
0.657908
0.657772
0.656785
0.655528
0.655971
0.659308
0.666754
0.678556
0.695123
0.715479
0.736256
0.753362
0.76556
0.780366
0.790042
0.7941
0.797325
0.799319
0.800698
0.802875
0.806594
0.81234
0.818616
0.823661
0.827496
0.829487
0.829662
0.827386
0.827945
0.834739
0.85124
0.871777
0.893804
0.914723
0.931521
0.944432
0.955546
0.96572
0.975511
0.984809
0.992127
0.996428
0.998483
0.999389
0.999763
0.99991
0.999966
0.999986
0.999994
0.999997
0.999997
0.999997
0.999995
0.999983
0.999938
0.99976
0.999085
0.996584
0.987511
0.955544
0.847533
0.662841
0.494117
0.355895
0.249491
0.170514
0.113675
0.0739012
0.0468185
0.0288823
0.017339
0.0101259
0.00575204
0.00317887
0.00170982
0.00089552
0.000456971
0.000227316
0.000110285
5.22079e-05
2.41232e-05
1.08824e-05
4.79395e-06
2.0625e-06
8.66668e-07
3.55693e-07
1.42575e-07
5.58118e-08
2.13341e-08
7.96223e-09
2.90102e-09
1.03173e-09
3.58121e-10
1.21308e-10
4.0097e-11
1.29312e-11
4.06826e-12
1.24848e-12
3.74568e-13
1.09865e-13
3.15037e-14
8.82735e-15
2.41677e-15
6.45884e-16
1.68475e-16
4.28207e-17
1.06028e-17
2.55309e-18
5.91569e-19
0.0196954
0.0211105
0.057705
0.253071
0.61583
0.747189
0.769801
0.762198
0.723465
0.597237
0.370104
0.238217
0.170986
0.13427
0.118594
0.106815
0.0968543
0.0887792
0.0720062
0.0559359
0.0524788
0.055311
0.0692037
0.116596
0.272649
0.473435
0.573725
0.598523
0.584804
0.50008
0.245979
0.18054
0.394279
0.719787
0.827392
0.866518
0.879819
0.882709
0.88205
0.875483
0.856022
0.811404
0.71324
0.603092
0.560374
0.548338
0.546504
0.548575
0.557096
0.573981
0.591505
0.600365
0.607965
0.612286
0.615977
0.617644
0.619493
0.620881
0.621887
0.622474
0.623331
0.624799
0.626579
0.62787
0.629449
0.630134
0.630427
0.630546
0.629767
0.628858
0.627817
0.627576
0.627514
0.628026
0.630285
0.634906
0.641736
0.652092
0.665011
0.680602
0.697061
0.714617
0.732729
0.748228
0.757729
0.7601
0.760035
0.758466
0.755878
0.75329
0.75023
0.748555
0.751339
0.760667
0.77645
0.795815
0.816724
0.833873
0.843753
0.851982
0.859807
0.865565
0.875458
0.893578
0.914118
0.933997
0.949499
0.959064
0.965912
0.973344
0.980637
0.987084
0.992418
0.996195
0.998313
0.999306
0.999728
0.999897
0.999962
0.999986
0.999994
0.999998
0.999999
0.999999
0.999999
0.999997
0.99999
0.999961
0.999843
0.999378
0.997616
0.991135
0.968014
0.887946
0.709358
0.535627
0.389623
0.274878
0.188217
0.125088
0.0806669
0.0504669
0.0306292
0.0180379
0.0103125
0.00572727
0.00309216
0.00162418
0.00083058
0.00041379
0.00020094
9.51547e-05
4.39564e-05
1.98131e-05
8.71562e-06
3.74203e-06
1.5682e-06
6.4147e-07
2.56103e-07
9.97885e-08
3.7943e-08
1.40774e-08
5.09574e-09
1.79948e-09
6.19872e-10
2.0828e-10
6.82581e-11
2.1817e-11
6.79957e-12
2.06845e-12
6.14798e-13
1.78536e-13
5.06407e-14
1.40278e-14
3.79265e-15
1.0005e-15
2.57276e-16
6.44522e-17
1.57203e-17
3.69872e-18
0.0197434
0.0213544
0.0751424
0.346126
0.680968
0.771353
0.77488
0.748891
0.661587
0.455081
0.279123
0.192098
0.152702
0.128788
0.128642
0.129219
0.122402
0.0980008
0.0639717
0.0445488
0.0411403
0.0446346
0.0630141
0.120169
0.292031
0.484819
0.576901
0.592441
0.554665
0.34715
0.223698
0.296812
0.668155
0.812234
0.859769
0.875493
0.880238
0.881063
0.875353
0.857469
0.816456
0.731143
0.63071
0.57163
0.55294
0.549066
0.549514
0.560056
0.585348
0.598199
0.604218
0.607205
0.609835
0.611797
0.613078
0.613503
0.613735
0.613794
0.613794
0.613789
0.615327
0.617685
0.618956
0.622147
0.627167
0.630456
0.632631
0.636155
0.63795
0.63861
0.638707
0.637874
0.636905
0.636094
0.63568
0.638199
0.644427
0.653926
0.665997
0.68084
0.695951
0.71053
0.724805
0.735084
0.743414
0.746852
0.748069
0.748304
0.747204
0.745301
0.741448
0.736982
0.734566
0.73534
0.739802
0.747024
0.756274
0.772759
0.803016
0.839653
0.86618
0.886863
0.903171
0.912864
0.92186
0.935719
0.952262
0.96621
0.974605
0.978085
0.98161
0.986327
0.990838
0.994383
0.9969
0.998487
0.99934
0.999735
0.999899
0.999963
0.999986
0.999995
0.999998
0.999999
0.999999
1
0.999999
0.999998
0.999991
0.999963
0.99985
0.999409
0.997752
0.991733
0.970482
0.897317
0.721507
0.543676
0.393873
0.275534
0.186235
0.121676
0.076879
0.0470063
0.0278361
0.0159801
0.0089024
0.00481749
0.00253463
0.00129758
0.000646803
0.000314094
0.000148656
6.85935e-05
3.08647e-05
1.35453e-05
5.79835e-06
2.42115e-06
9.86132e-07
3.91763e-07
1.51795e-07
5.73584e-08
2.11354e-08
7.59396e-09
2.66038e-09
9.08711e-10
3.02622e-10
9.82576e-11
3.11015e-11
9.59948e-12
2.89288e-12
8.51251e-13
2.44555e-13
6.85852e-14
1.87705e-14
5.01146e-15
1.30457e-15
3.30917e-16
8.17899e-17
1.95433e-17
0.0196707
0.0213315
0.0837386
0.396946
0.722756
0.782217
0.776341
0.724587
0.597694
0.396808
0.244464
0.181564
0.152639
0.155755
0.172162
0.175096
0.14321
0.0781813
0.0476753
0.0415967
0.0428632
0.0519761
0.0825844
0.171477
0.388565
0.534127
0.57646
0.561936
0.406854
0.276405
0.277745
0.595017
0.783161
0.844342
0.864682
0.872167
0.872958
0.863512
0.839515
0.789484
0.716416
0.647823
0.589439
0.562186
0.554645
0.553855
0.564951
0.586195
0.59643
0.601081
0.60333
0.604136
0.603272
0.600558
0.595378
0.58911
0.581578
0.572643
0.566177
0.563197
0.56219
0.564843
0.56634
0.574983
0.585042
0.591909
0.60217
0.615542
0.627415
0.638101
0.645506
0.652718
0.659409
0.666658
0.674732
0.681808
0.688111
0.695251
0.704161
0.715503
0.725945
0.732194
0.738073
0.743489
0.749955
0.755143
0.759765
0.764596
0.76964
0.774294
0.778235
0.780086
0.779311
0.776185
0.771059
0.76403
0.756542
0.748716
0.74596
0.754948
0.798514
0.859548
0.904363
0.931857
0.948257
0.954756
0.958708
0.968185
0.978715
0.98581
0.988551
0.989557
0.991579
0.994186
0.996435
0.997999
0.998962
0.999507
0.999787
0.999915
0.999968
0.999989
0.999996
0.999999
0.999999
1
1
1
0.999999
0.999997
0.999989
0.999952
0.999809
0.999261
0.997247
0.990057
0.964962
0.878876
0.691291
0.512129
0.364107
0.249086
0.164179
0.104394
0.0641188
0.0380922
0.0219181
0.0122301
0.00662529
0.00348775
0.00178568
0.00088973
0.000431653
0.000203989
9.39292e-05
4.21513e-05
1.84373e-05
7.86121e-06
3.26738e-06
1.32378e-06
5.22786e-07
2.01231e-07
7.54926e-08
2.76016e-08
9.83501e-09
3.41525e-09
1.15581e-09
3.8122e-10
1.22545e-10
3.83934e-11
1.17346e-11
3.50026e-12
1.01892e-12
2.89437e-13
8.02196e-14
2.16872e-14
5.71761e-15
1.46925e-15
3.681e-16
8.93233e-17
0.019463
0.0205033
0.0867017
0.428973
0.743416
0.787129
0.774227
0.704194
0.566562
0.378054
0.23758
0.198486
0.184834
0.179397
0.194245
0.197735
0.175346
0.118975
0.0874995
0.077298
0.0873923
0.123035
0.216882
0.380738
0.501548
0.538065
0.5439
0.416916
0.319489
0.304137
0.496074
0.748549
0.823901
0.848595
0.858137
0.855758
0.834483
0.783997
0.733315
0.685346
0.636986
0.598157
0.572692
0.562134
0.559465
0.567471
0.582572
0.591268
0.5952
0.596503
0.592088
0.581283
0.568831
0.554267
0.537172
0.518819
0.502345
0.491648
0.486447
0.484584
0.487297
0.490788
0.502263
0.514156
0.524746
0.537313
0.546574
0.557392
0.56806
0.582956
0.60192
0.621432
0.642498
0.66343
0.68138
0.699598
0.718009
0.734971
0.750071
0.762343
0.770187
0.773867
0.775359
0.776015
0.777681
0.780089
0.784486
0.792013
0.802436
0.815667
0.832082
0.850684
0.869415
0.885733
0.896294
0.896527
0.87769
0.831626
0.770761
0.737116
0.731955
0.750659
0.825171
0.906779
0.949025
0.968712
0.977851
0.97985
0.981663
0.987836
0.992812
0.995094
0.995623
0.995868
0.996728
0.997985
0.998872
0.999413
0.999713
0.999868
0.999943
0.999978
0.999992
0.999997
0.999999
1
1
1
1
1
0.999999
0.999995
0.99998
0.99992
0.999685
0.998811
0.995645
0.984424
0.945282
0.815202
0.614595
0.441671
0.304458
0.201703
0.12868
0.0792026
0.0471146
0.0271295
0.0151423
0.00820192
0.00431543
0.00220725
0.00109816
0.000531702
0.000250624
0.000115039
5.14301e-05
2.23969e-05
9.50135e-06
3.92656e-06
1.58074e-06
6.19898e-07
2.36796e-07
8.81079e-08
3.19333e-08
1.12738e-08
3.87725e-09
1.29906e-09
4.24055e-10
1.34873e-10
4.1818e-11
1.26474e-11
3.73139e-12
1.07393e-12
3.01519e-13
8.2569e-14
2.20527e-14
5.74248e-15
1.45858e-15
3.59401e-16
0.0192958
0.0190202
0.0838999
0.443316
0.752381
0.789264
0.772052
0.69614
0.556892
0.396174
0.280043
0.226776
0.210172
0.209418
0.22675
0.245784
0.250123
0.246967
0.238329
0.241053
0.273562
0.337472
0.411175
0.471576
0.49696
0.492937
0.401985
0.346473
0.336174
0.44638
0.707789
0.8027
0.831313
0.841113
0.835702
0.797717
0.718315
0.670891
0.64174
0.616947
0.592382
0.575907
0.567266
0.564286
0.568164
0.578082
0.585881
0.589285
0.58981
0.582886
0.567154
0.554475
0.532589
0.510585
0.484115
0.457228
0.433286
0.41353
0.403504
0.399825
0.405011
0.417349
0.4365
0.461652
0.48847
0.511159
0.526078
0.53743
0.546617
0.555139
0.564515
0.575094
0.586987
0.604069
0.630211
0.66243
0.696859
0.726821
0.749002
0.7645
0.773826
0.77831
0.779829
0.780122
0.780407
0.781507
0.784552
0.791276
0.801796
0.816287
0.835172
0.858014
0.883231
0.908658
0.931817
0.949812
0.958967
0.956365
0.926589
0.822864
0.74176
0.725611
0.736902
0.800493
0.905575
0.958479
0.980041
0.988633
0.991734
0.992367
0.994238
0.996909
0.998162
0.998614
0.998708
0.998789
0.999095
0.999462
0.999709
0.999855
0.999932
0.99997
0.999987
0.999995
0.999998
0.999999
1
1
1
1
1
0.999999
0.999998
0.99999
0.999957
0.99983
0.999347
0.997563
0.991107
0.968113
0.887209
0.690149
0.499205
0.345365
0.229216
0.146334
0.0900701
0.053557
0.0308164
0.0171824
0.00929408
0.00488141
0.0024912
0.00123607
0.00059654
0.000280118
0.000128013
5.69441e-05
2.46585e-05
1.03951e-05
4.26619e-06
1.7045e-06
6.6297e-07
2.51036e-07
9.25415e-08
3.32139e-08
1.16072e-08
3.95008e-09
1.30923e-09
4.22672e-10
1.32955e-10
4.07742e-11
1.21937e-11
3.55623e-12
1.01158e-12
2.80642e-13
7.59429e-14
2.00415e-14
5.16099e-15
1.29105e-15
0.0192262
0.0186564
0.0845252
0.437281
0.755225
0.792394
0.774862
0.703226
0.583816
0.446019
0.340979
0.281709
0.250171
0.241034
0.241051
0.26596
0.282181
0.301435
0.320824
0.337752
0.370285
0.398877
0.42873
0.447128
0.427692
0.383033
0.36485
0.365405
0.448878
0.683163
0.78374
0.816213
0.825195
0.819023
0.771592
0.680105
0.6309
0.605694
0.591427
0.580827
0.572046
0.567861
0.566988
0.568185
0.573787
0.580434
0.584307
0.584824
0.578843
0.561641
0.536616
0.510332
0.468108
0.41853
0.368139
0.324089
0.291879
0.266784
0.25349
0.248757
0.254342
0.267858
0.291676
0.328043
0.381155
0.443522
0.491098
0.520157
0.536797
0.546963
0.556278
0.567113
0.577561
0.586372
0.596817
0.611311
0.631975
0.660575
0.691666
0.718093
0.736763
0.74733
0.751067
0.751105
0.750635
0.75039
0.750477
0.751868
0.756759
0.76631
0.781165
0.804607
0.837336
0.877118
0.915224
0.946739
0.96583
0.973309
0.972461
0.951502
0.8445
0.750222
0.733345
0.749232
0.820973
0.917842
0.967391
0.987091
0.994054
0.996568
0.997508
0.998334
0.999062
0.999456
0.999628
0.999701
0.999738
0.999775
0.99983
0.999891
0.999939
0.99997
0.999986
0.999994
0.999998
0.999999
1
1
1
1
1
1
1
0.999998
0.999993
0.999972
0.999887
0.999556
0.998308
0.993679
0.976813
0.916293
0.737177
0.533021
0.368649
0.244397
0.155773
0.0956991
0.0567873
0.0326021
0.018133
0.00978081
0.00512064
0.00260378
0.00128658
0.000618022
0.00028869
0.000131164
5.79716e-05
2.49267e-05
1.04276e-05
4.244e-06
1.68055e-06
6.47475e-07
2.42726e-07
8.85462e-08
3.1437e-08
1.08641e-08
3.65522e-09
1.1975e-09
3.82101e-10
1.18814e-10
3.60137e-11
1.06429e-11
3.06714e-12
8.62038e-13
2.36341e-13
6.32063e-14
1.65e-14
4.1891e-15
0.0191303
0.0183454
0.0852479
0.427495
0.754446
0.794709
0.783293
0.725023
0.634639
0.525478
0.440173
0.371165
0.317713
0.295243
0.287422
0.286913
0.307172
0.316913
0.340033
0.355244
0.378055
0.390047
0.396457
0.392893
0.385619
0.381969
0.398826
0.491636
0.681946
0.771423
0.804569
0.81285
0.808562
0.765822
0.672641
0.614073
0.58762
0.575185
0.569131
0.565811
0.564095
0.564753
0.567251
0.570814
0.575006
0.579176
0.580198
0.575495
0.554204
0.521268
0.487919
0.440526
0.384566
0.32252
0.271944
0.232873
0.207073
0.192404
0.184988
0.182501
0.18934
0.201678
0.222823
0.247115
0.276532
0.32823
0.404961
0.472315
0.515156
0.536716
0.548176
0.56138
0.577605
0.591774
0.603671
0.612848
0.622656
0.639756
0.660911
0.682896
0.702135
0.715185
0.721202
0.72294
0.724546
0.727301
0.729911
0.731512
0.732824
0.734357
0.734791
0.732512
0.73519
0.757376
0.813867
0.889243
0.943163
0.969707
0.975944
0.972363
0.937279
0.823433
0.764472
0.759999
0.792032
0.879213
0.944076
0.977974
0.99205
0.996913
0.998628
0.999333
0.999646
0.999799
0.999877
0.999917
0.999936
0.999946
0.999953
0.999961
0.999971
0.999981
0.99999
0.999995
0.999998
0.999999
1
1
1
1
1
1
1
1
0.999999
0.999995
0.999978
0.99991
0.999639
0.998588
0.994596
0.979735
0.925466
0.754208
0.543871
0.374861
0.24762
0.157252
0.0962566
0.0569078
0.0325463
0.0180281
0.00968133
0.00504414
0.00255136
0.00125342
0.000598308
0.000277571
0.000125177
5.48817e-05
2.33944e-05
9.69613e-06
3.90754e-06
1.53127e-06
5.83553e-07
2.16294e-07
7.79853e-08
2.73574e-08
9.33966e-09
3.10375e-09
1.00428e-09
3.16538e-10
9.72227e-11
2.91069e-11
8.49661e-12
2.41878e-12
6.71735e-13
1.82011e-13
4.81525e-14
1.24022e-14
0.0188579
0.017673
0.0803697
0.406247
0.750396
0.798813
0.787751
0.73717
0.670266
0.623383
0.574324
0.512058
0.442333
0.398026
0.371189
0.356801
0.352106
0.35613
0.363728
0.376026
0.385902
0.392733
0.398652
0.403344
0.415987
0.454528
0.566072
0.703146
0.770417
0.798212
0.805714
0.801545
0.765006
0.688352
0.615787
0.583905
0.570221
0.564219
0.561752
0.560947
0.561308
0.564077
0.567883
0.571075
0.574395
0.575836
0.571765
0.555785
0.528492
0.496938
0.453453
0.387957
0.31891
0.258269
0.214638
0.182822
0.162457
0.150914
0.145562
0.144016
0.1499
0.163211
0.188653
0.219681
0.24556
0.283163
0.346366
0.422305
0.487686
0.527194
0.544573
0.553352
0.56606
0.588524
0.614115
0.639134
0.660855
0.673215
0.684076
0.69877
0.714229
0.725069
0.72981
0.730163
0.730462
0.732552
0.736614
0.740054
0.741059
0.740593
0.737763
0.726855
0.713357
0.708737
0.715998
0.760142
0.868097
0.941048
0.970244
0.973956
0.962351
0.89442
0.823058
0.804687
0.812034
0.867703
0.93423
0.970329
0.987966
0.995644
0.998492
0.999448
0.999782
0.999906
0.999953
0.999973
0.999982
0.999986
0.999989
0.99999
0.999992
0.999994
0.999996
0.999997
0.999999
0.999999
1
1
1
1
1
1
1
1
1
0.999999
0.999995
0.99998
0.999916
0.999657
0.998624
0.994616
0.979427
0.923248
0.746887
0.535435
0.366936
0.241037
0.152248
0.0927001
0.0545122
0.0310038
0.0170737
0.00911204
0.00471615
0.00236861
0.00115486
0.00054681
0.000251492
0.000112372
4.87846e-05
2.05793e-05
8.43585e-06
3.36058e-06
1.30118e-06
4.89742e-07
1.79222e-07
6.37844e-08
2.20831e-08
7.43979e-09
2.4398e-09
7.79111e-10
2.42376e-10
7.34808e-11
2.17182e-11
6.25984e-12
1.76028e-12
4.83037e-13
1.2945e-13
3.38047e-14
0.0181313
0.0177723
0.0793366
0.377361
0.739283
0.803375
0.804519
0.774328
0.714089
0.688857
0.677816
0.662446
0.64226
0.608897
0.570859
0.531773
0.502166
0.482166
0.466267
0.459905
0.458519
0.471064
0.487387
0.525655
0.587022
0.667824
0.736992
0.782052
0.800957
0.806666
0.801701
0.77316
0.719111
0.645372
0.595806
0.575588
0.566337
0.562167
0.560572
0.560203
0.560893
0.563973
0.567732
0.570675
0.572907
0.572774
0.566069
0.545156
0.513536
0.469005
0.408392
0.340634
0.273857
0.219129
0.182006
0.157054
0.141234
0.131834
0.127283
0.127719
0.132015
0.139355
0.156321
0.197344
0.233667
0.266111
0.322591
0.40022
0.474672
0.52302
0.545947
0.554185
0.560363
0.569549
0.590455
0.62989
0.67287
0.711385
0.74395
0.768715
0.785595
0.795585
0.801331
0.802835
0.799286
0.796699
0.799633
0.80847
0.810615
0.808851
0.801154
0.774017
0.729246
0.706397
0.702931
0.711461
0.764175
0.882214
0.95015
0.97235
0.972094
0.947206
0.89657
0.874376
0.871476
0.885273
0.933585
0.968583
0.986341
0.994484
0.997938
0.999286
0.999762
0.999919
0.99997
0.999988
0.999994
0.999996
0.999997
0.999998
0.999998
0.999999
0.999999
0.999999
1
1
1
1
1
1
1
1
1
1
1
1
0.999999
0.999995
0.99998
0.999914
0.999636
0.998506
0.994041
0.976898
0.912939
0.723145
0.514446
0.349979
0.228276
0.143198
0.0865932
0.0505643
0.0285487
0.0156012
0.00825894
0.00423817
0.00210939
0.00101868
0.000477479
0.000217267
9.5989e-05
4.11794e-05
1.71559e-05
6.94175e-06
2.72845e-06
1.04193e-06
3.86673e-07
1.39496e-07
4.89369e-08
1.67004e-08
5.54631e-09
1.7932e-09
5.64666e-10
1.73252e-10
5.18188e-11
1.51141e-11
4.30118e-12
1.19466e-12
3.24127e-13
8.57604e-14
0.0169117
0.0174548
0.0727961
0.32323
0.707589
0.803793
0.811596
0.797059
0.748791
0.724177
0.720782
0.722385
0.731613
0.736103
0.732105
0.719578
0.707814
0.692743
0.678445
0.668824
0.66444
0.672583
0.693044
0.718946
0.746421
0.782725
0.802483
0.813056
0.816422
0.813841
0.801155
0.770056
0.715489
0.644003
0.595807
0.576113
0.566835
0.562564
0.561017
0.560786
0.561411
0.563698
0.567146
0.569522
0.569671
0.565894
0.552347
0.528707
0.498167
0.459051
0.405459
0.341738
0.27638
0.221666
0.183825
0.158648
0.142649
0.13253
0.128074
0.127997
0.129803
0.13538
0.148587
0.186946
0.230064
0.262795
0.316453
0.393936
0.471335
0.527306
0.55776
0.567617
0.568181
0.56908
0.574029
0.586682
0.626156
0.69304
0.745869
0.780587
0.801181
0.813539
0.824265
0.838026
0.855434
0.876315
0.898463
0.920986
0.935878
0.93959
0.934773
0.904627
0.809645
0.735759
0.708714
0.708874
0.735267
0.831329
0.922164
0.966874
0.981114
0.98092
0.970919
0.960753
0.955709