/*--------------------------------*- C++ -*----------------------------------*\
  =========                 |
  \\      /  F ield         | OpenFOAM: The Open Source CFD Toolbox
   \\    /   O peration     | Website:  https://openfoam.org
    \\  /    A nd           | Version:  7
     \\/     M anipulation  |
\*---------------------------------------------------------------------------*/
FoamFile
{
    version     2.0;
    format      ascii;
    class       volVectorField;
    location    "0.057";
    object      U;
}
// * * * * * * * * * * * * * * * * * * * * * * * * * * * * * * * * * * * * * //

dimensions      [0 1 -1 0 0 0 0];

internalField   nonuniform List<vector> 
12225
(
(4.87569 0.145704 0)
(4.24192 0.0981362 0)
(3.75609 0.0950824 0)
(3.35192 0.0878347 0)
(2.96459 0.0805177 0)
(2.58488 0.0720974 0)
(2.24169 0.0598187 0)
(1.95573 0.046517 0)
(1.7164 0.0377128 0)
(1.50059 0.0338323 0)
(1.29781 0.0297103 0)
(1.11314 0.0223898 0)
(0.950555 0.0136538 0)
(0.820077 0.00604315 0)
(0.710069 0.000623345 0)
(0.636203 -0.00175892 0)
(0.562211 -0.00221612 0)
(0.520298 -0.0156018 0)
(5.09218 0.156854 0)
(4.96393 0.0964552 0)
(4.81375 0.105827 0)
(4.6958 0.104834 0)
(4.57396 0.10637 0)
(4.43457 0.107534 0)
(4.29167 0.102223 0)
(4.15651 0.0935265 0)
(4.02252 0.0873071 0)
(3.87957 0.0864784 0)
(3.72539 0.088116 0)
(3.56988 0.0882999 0)
(3.41373 0.0845654 0)
(3.26893 0.0768631 0)
(3.12386 0.0672927 0)
(3.00024 0.0559827 0)
(2.88643 0.0504226 0)
(2.78285 0.0364718 0)
(4.9708 0.110758 0)
(4.87228 0.111473 0)
(4.82359 0.142093 0)
(4.80134 0.143754 0)
(4.78037 0.14217 0)
(4.76178 0.142252 0)
(4.74372 0.137146 0)
(4.72042 0.128138 0)
(4.68855 0.12243 0)
(4.64771 0.123944 0)
(4.59931 0.128063 0)
(4.54509 0.129379 0)
(4.48682 0.125053 0)
(4.42599 0.117029 0)
(4.36542 0.108509 0)
(4.3016 0.0969369 0)
(4.2427 0.0869218 0)
(4.17004 0.0793228 0)
(4.95114 0.212221 0)
(4.83341 0.118379 0)
(4.77756 0.125607 0)
(4.76165 0.133389 0)
(4.77005 0.131961 0)
(4.78394 0.127724 0)
(4.78893 0.119924 0)
(4.78146 0.111277 0)
(4.76892 0.108926 0)
(4.75951 0.114914 0)
(4.75602 0.123927 0)
(4.75345 0.129137 0)
(4.74832 0.128199 0)
(4.73651 0.122493 0)
(4.72157 0.115781 0)
(4.70002 0.107376 0)
(4.67705 0.102101 0)
(4.6428 0.100532 0)
(4.95243 0.191385 0)
(4.87492 0.1371 0)
(4.81583 0.139022 0)
(4.80597 0.136195 0)
(4.81846 0.129637 0)
(4.82649 0.129424 0)
(4.81637 0.13139 0)
(4.78978 0.130021 0)
(4.76207 0.126795 0)
(4.74888 0.125614 0)
(4.75521 0.127254 0)
(4.77321 0.129081 0)
(4.79191 0.128852 0)
(4.80177 0.12573 0)
(4.80125 0.121606 0)
(4.79052 0.116697 0)
(4.77262 0.113268 0)
(4.7492 0.112695 0)
(5.00878 0.196201 0)
(4.97838 0.149228 0)
(4.95789 0.139327 0)
(4.90461 0.140658 0)
(4.86398 0.138006 0)
(4.83888 0.138095 0)
(4.81339 0.138886 0)
(4.78524 0.135068 0)
(4.76639 0.127115 0)
(4.76805 0.119703 0)
(4.79055 0.116393 0)
(4.82315 0.117057 0)
(4.85196 0.119651 0)
(4.86612 0.122237 0)
(4.863 0.124377 0)
(4.84533 0.125298 0)
(4.81922 0.125384 0)
(4.79007 0.125617 0)
(4.92739 0.211777 0)
(4.90869 0.131523 0)
(4.87706 0.145376 0)
(4.86489 0.158317 0)
(4.87169 0.152295 0)
(4.87096 0.148495 0)
(4.8492 0.149895 0)
(4.81625 0.144977 0)
(4.79099 0.129558 0)
(4.78542 0.111058 0)
(4.79972 0.0992728 0)
(4.82506 0.0983705 0)
(4.85015 0.106406 0)
(4.86514 0.118511 0)
(4.8677 0.130221 0)
(4.85835 0.138259 0)
(4.84384 0.141749 0)
(4.82557 0.141292 0)
(5.10708 0.236579 0)
(4.94353 0.182951 0)
(4.85712 0.152153 0)
(4.82943 0.134863 0)
(4.82072 0.132853 0)
(4.81295 0.146139 0)
(4.81313 0.159874 0)
(4.82669 0.158637 0)
(4.8473 0.140994 0)
(4.86499 0.117654 0)
(4.87556 0.100773 0)
(4.8803 0.0962355 0)
(4.88253 0.103087 0)
(4.88308 0.116113 0)
(4.88357 0.129822 0)
(4.88295 0.139746 0)
(4.88351 0.144215 0)
(4.88199 0.14401 0)
(5.02179 0.256715 0)
(5.01027 0.205391 0)
(4.97292 0.178729 0)
(4.92724 0.170981 0)
(4.89067 0.166434 0)
(4.87587 0.159532 0)
(4.88228 0.147778 0)
(4.89837 0.130186 0)
(4.90856 0.11072 0)
(4.90405 0.0959667 0)
(4.888 0.0902032 0)
(4.86915 0.0937138 0)
(4.85592 0.104063 0)
(4.85114 0.11725 0)
(4.85457 0.129548 0)
(4.86262 0.138124 0)
(4.87201 0.142163 0)
(4.87894 0.143205 0)
(4.99714 0.250427 0)
(4.97099 0.212478 0)
(4.92665 0.177828 0)
(4.90246 0.151833 0)
(4.90848 0.144207 0)
(4.93167 0.148155 0)
(4.95179 0.152046 0)
(4.95324 0.148832 0)
(4.93323 0.139484 0)
(4.90178 0.128386 0)
(4.87363 0.119337 0)
(4.85763 0.114446 0)
(4.85543 0.114275 0)
(4.86219 0.117874 0)
(4.87268 0.123101 0)
(4.88159 0.128205 0)
(4.88739 0.13196 0)
(4.88844 0.134629 0)
(5.0273 0.277619 0)
(4.99396 0.246322 0)
(4.98473 0.210295 0)
(4.95309 0.183995 0)
(4.92264 0.159424 0)
(4.91108 0.14152 0)
(4.91867 0.135307 0)
(4.93196 0.136225 0)
(4.93854 0.135307 0)
(4.93539 0.127564 0)
(4.92689 0.11533 0)
(4.91876 0.104926 0)
(4.91449 0.101642 0)
(4.91479 0.10665 0)
(4.91835 0.11705 0)
(4.923 0.128739 0)
(4.92742 0.138234 0)
(4.9303 0.143897 0)
(4.99728 0.30581 0)
(5.0274 0.239786 0)
(5.0083 0.189566 0)
(4.98611 0.164882 0)
(4.96458 0.154319 0)
(4.94317 0.149856 0)
(4.93363 0.146207 0)
(4.94146 0.142954 0)
(4.95916 0.13921 0)
(4.97444 0.133607 0)
(4.97826 0.126312 0)
(4.96862 0.119268 0)
(4.94948 0.114651 0)
(4.92812 0.113912 0)
(4.90972 0.116487 0)
(4.89793 0.121095 0)
(4.89149 0.125806 0)
(4.8909 0.130019 0)
(5.04553 0.310431 0)
(5.11982 0.248524 0)
(5.09912 0.229083 0)
(5.04505 0.212481 0)
(4.99073 0.18681 0)
(4.95807 0.15694 0)
(4.94954 0.132127 0)
(4.95899 0.118653 0)
(4.97934 0.115214 0)
(5.00346 0.117115 0)
(5.02296 0.120993 0)
(5.02997 0.125855 0)
(5.02171 0.131117 0)
(5.00073 0.136504 0)
(4.97464 0.141024 0)
(4.94875 0.144197 0)
(4.92927 0.145521 0)
(4.91438 0.145097 0)
(4.98543 0.234615 0)
(4.97755 0.233233 0)
(4.96678 0.225307 0)
(5.00918 0.206578 0)
(5.05615 0.187226 0)
(5.06489 0.168927 0)
(5.03712 0.151309 0)
(4.99908 0.13301 0)
(4.97295 0.115506 0)
(4.96521 0.104358 0)
(4.97058 0.104304 0)
(4.97969 0.114765 0)
(4.98674 0.13041 0)
(4.98968 0.144551 0)
(4.99132 0.152901 0)
(4.99268 0.154652 0)
(4.99716 0.151318 0)
(5.00147 0.146437 0)
(4.96483 0.247887 0)
(4.98046 0.235352 0)
(5.01059 0.192889 0)
(5.05001 0.159412 0)
(5.07494 0.156973 0)
(5.07678 0.170141 0)
(5.06866 0.176693 0)
(5.0599 0.166005 0)
(5.04992 0.143963 0)
(5.03681 0.124069 0)
(5.02258 0.115326 0)
(5.01117 0.118111 0)
(5.00544 0.126779 0)
(5.00536 0.135193 0)
(5.00848 0.139496 0)
(5.01156 0.139454 0)
(5.01259 0.136842 0)
(5.00952 0.134101 0)
(5.11651 0.265526 0)
(5.08675 0.238506 0)
(5.05807 0.19607 0)
(5.03125 0.174799 0)
(5.01601 0.170404 0)
(5.01164 0.168614 0)
(5.01535 0.160093 0)
(5.02077 0.145777 0)
(5.02428 0.132713 0)
(5.02689 0.125888 0)
(5.03089 0.125091 0)
(5.03776 0.128027 0)
(5.04778 0.132474 0)
(5.05914 0.137483 0)
(5.07032 0.142839 0)
(5.07837 0.147868 0)
(5.08389 0.152663 0)
(5.08447 0.15553 0)
(5.00597 0.305937 0)
(5.04098 0.286453 0)
(5.04993 0.221951 0)
(5.05759 0.182503 0)
(5.04485 0.168362 0)
(5.02728 0.168998 0)
(5.01478 0.169807 0)
(5.0083 0.159713 0)
(5.00861 0.139405 0)
(5.01626 0.117657 0)
(5.02933 0.102632 0)
(5.04417 0.0972611 0)
(5.0579 0.0999274 0)
(5.06854 0.106662 0)
(5.07627 0.114498 0)
(5.08157 0.121788 0)
(5.08597 0.128233 0)
(5.08997 0.13474 0)
(5.0416 0.329941 0)
(5.08183 0.232003 0)
(5.06695 0.198356 0)
(5.06118 0.199664 0)
(5.04315 0.210706 0)
(5.02415 0.210036 0)
(5.01258 0.189657 0)
(5.00892 0.155422 0)
(5.01332 0.11998 0)
(5.02414 0.0940293 0)
(5.03841 0.0818045 0)
(5.05364 0.082292 0)
(5.0687 0.0915459 0)
(5.08237 0.105004 0)
(5.09402 0.118128 0)
(5.10308 0.128377 0)
(5.11007 0.134352 0)
(5.11492 0.136551 0)
(5.0155 0.273957 0)
(5.021 0.259185 0)
(5.00736 0.237317 0)
(4.99115 0.207986 0)
(4.98889 0.196921 0)
(5.00999 0.196378 0)
(5.04011 0.183284 0)
(5.06407 0.150835 0)
(5.07802 0.108935 0)
(5.0834 0.0717871 0)
(5.08342 0.0481716 0)
(5.08245 0.0397327 0)
(5.08424 0.0434605 0)
(5.08984 0.0550516 0)
(5.09897 0.070556 0)
(5.1103 0.0868494 0)
(5.1232 0.101925 0)
(5.13613 0.114438 0)
(5.09751 0.250609 0)
(5.11509 0.242095 0)
(5.13045 0.255302 0)
(5.12241 0.228499 0)
(5.09954 0.185666 0)
(5.09003 0.145052 0)
(5.09889 0.116563 0)
(5.11456 0.101637 0)
(5.12735 0.0948885 0)
(5.13382 0.0904621 0)
(5.13423 0.0854733 0)
(5.13116 0.0797468 0)
(5.12789 0.0741984 0)
(5.12616 0.0700816 0)
(5.12711 0.0677419 0)
(5.13121 0.0674038 0)
(5.13936 0.0680152 0)
(5.15106 0.0696431 0)
(5.07533 0.249461 0)
(5.05003 0.235675 0)
(5.05018 0.257878 0)
(5.07018 0.255887 0)
(5.10543 0.222945 0)
(5.13844 0.172256 0)
(5.16134 0.124038 0)
(5.17427 0.0891736 0)
(5.18256 0.0676177 0)
(5.19083 0.0556584 0)
(5.2003 0.0506636 0)
(5.2106 0.0509407 0)
(5.22143 0.0543347 0)
(5.2317 0.0582569 0)
(5.2408 0.0603515 0)
(5.24842 0.0597287 0)
(5.25562 0.0561881 0)
(5.26225 0.0509579 0)
(4.90697 0.321686 0)
(4.95809 0.265256 0)
(4.99156 0.218442 0)
(5.04225 0.175688 0)
(5.09539 0.135514 0)
(5.13645 0.107448 0)
(5.16817 0.09479 0)
(5.19298 0.0904616 0)
(5.21169 0.0857796 0)
(5.22584 0.0770534 0)
(5.23752 0.0658913 0)
(5.24848 0.0557734 0)
(5.25949 0.0489343 0)
(5.2696 0.0458516 0)
(5.27726 0.045111 0)
(5.28195 0.0455456 0)
(5.28448 0.0456046 0)
(5.28647 0.0449078 0)
(4.96531 0.245962 0)
(5.00647 0.206943 0)
(5.05785 0.175131 0)
(5.10969 0.153233 0)
(5.15455 0.121967 0)
(5.18774 0.0815894 0)
(5.21446 0.0473253 0)
(5.23782 0.0279878 0)
(5.25818 0.0206759 0)
(5.27394 0.0179862 0)
(5.2828 0.0160272 0)
(5.28458 0.0158648 0)
(5.28235 0.019514 0)
(5.28013 0.0272922 0)
(5.28208 0.0363043 0)
(5.28919 0.043065 0)
(5.30259 0.0445806 0)
(5.31931 0.0390425 0)
(4.98384 0.323712 0)
(5.02101 0.196474 0)
(5.07421 0.135997 0)
(5.14426 0.117953 0)
(5.21458 0.0972552 0)
(5.25916 0.0740076 0)
(5.27492 0.059983 0)
(5.27515 0.0566265 0)
(5.274 0.0580546 0)
(5.27702 0.0598181 0)
(5.28317 0.0608317 0)
(5.29104 0.0606113 0)
(5.30192 0.0579323 0)
(5.31815 0.0508607 0)
(5.34151 0.0394236 0)
(5.37032 0.025456 0)
(5.40256 0.0109126 0)
(5.43322 0.000494643 0)
(5.05709 0.302674 0)
(5.05711 0.164426 0)
(5.10192 0.0900604 0)
(5.16888 0.0536825 0)
(5.22297 0.0330449 0)
(5.24633 0.0237042 0)
(5.25642 0.0202644 0)
(5.27174 0.0168434 0)
(5.29651 0.0114684 0)
(5.32554 0.005345 0)
(5.35372 -0.00012392 0)
(5.38026 -0.00443037 0)
(5.40676 -0.00901597 0)
(5.43445 -0.0143234 0)
(5.46182 -0.0205341 0)
(5.48494 -0.0267202 0)
(5.50203 -0.0317595 0)
(5.51039 -0.034604 0)
(4.94658 0.271197 0)
(5.06645 0.167201 0)
(5.16675 0.0855769 0)
(5.24648 0.0634829 0)
(5.3057 0.0603635 0)
(5.3523 0.0567696 0)
(5.39007 0.0477832 0)
(5.41721 0.0356527 0)
(5.43374 0.0260832 0)
(5.44352 0.0216896 0)
(5.45272 0.0199481 0)
(5.46589 0.0162679 0)
(5.48524 0.00904391 0)
(5.50976 -0.000340863 0)
(5.53643 -0.00934896 0)
(5.56184 -0.0152716 0)
(5.58418 -0.016399 0)
(5.601 -0.0128989 0)
(4.94992 0.202163 0)
(5.0779 0.0623898 0)
(5.17946 0.00944107 0)
(5.21761 -0.0105357 0)
(5.23664 -0.0268696 0)
(5.26753 -0.0309563 0)
(5.31166 -0.0234047 0)
(5.35976 -0.0132543 0)
(5.40616 -0.00756641 0)
(5.44928 -0.00853142 0)
(5.48898 -0.0155477 0)
(5.52583 -0.0274 0)
(5.55998 -0.0412156 0)
(5.58945 -0.0542827 0)
(5.61254 -0.0632855 0)
(5.62886 -0.0668421 0)
(5.63939 -0.0647585 0)
(5.64595 -0.0587331 0)
(4.97625 0.195082 0)
(5.18447 0.0845516 0)
(5.30517 0.0534987 0)
(5.3614 0.0390448 0)
(5.39841 0.0244137 0)
(5.43322 0.0111895 0)
(5.46625 -0.0010456 0)
(5.501 -0.0116146 0)
(5.53997 -0.0186232 0)
(5.57978 -0.0220433 0)
(5.61327 -0.0240864 0)
(5.63462 -0.0267048 0)
(5.6428 -0.0310177 0)
(5.64084 -0.0356937 0)
(5.63485 -0.0382268 0)
(5.63106 -0.037397 0)
(5.63313 -0.032959 0)
(5.64327 -0.0264646 0)
(5.01432 0.00804394 0)
(5.21096 -0.0432963 0)
(5.34383 -0.026168 0)
(5.41407 -0.0467016 0)
(5.46071 -0.0617623 0)
(5.49879 -0.060679 0)
(5.52505 -0.0536952 0)
(5.54185 -0.0499484 0)
(5.55628 -0.049914 0)
(5.57114 -0.0504198 0)
(5.58277 -0.0497159 0)
(5.58615 -0.0486738 0)
(5.57873 -0.049198 0)
(5.56273 -0.0524939 0)
(5.5424 -0.0582139 0)
(5.52324 -0.0648075 0)
(5.50703 -0.0707 0)
(5.49629 -0.0742751 0)
(4.88958 0.0678773 0)
(5.05993 0.0156855 0)
(5.07394 0.00173618 0)
(4.96174 -0.012661 0)
(4.81753 -0.0171925 0)
(4.69064 -0.0165811 0)
(4.58414 -0.0178229 0)
(4.48266 -0.0231204 0)
(4.37605 -0.0289744 0)
(4.26607 -0.0310203 0)
(4.1614 -0.0280356 0)
(4.06915 -0.0224084 0)
(3.98851 -0.0177941 0)
(3.9134 -0.0163378 0)
(3.83573 -0.017439 0)
(3.75348 -0.0191682 0)
(3.6658 -0.019409 0)
(3.58036 -0.0175292 0)
(-0.0589156 0.139741 1.05584e-20)
(-0.178604 0.0959086 -1.04796e-20)
(-0.202835 -0.00937612 0)
(-0.125895 -0.104213 0)
(0.0170717 -0.161713 0)
(0.202283 -0.194594 1.01943e-20)
(0.399721 -0.207473 0)
(0.601106 -0.206669 0)
(0.79944 -0.197974 0)
(0.988976 -0.185089 0)
(1.16691 -0.169931 -9.72698e-21)
(1.33169 -0.153197 0)
(1.48176 -0.134934 0)
(1.61531 -0.115034 0)
(1.7304 -0.0934064 0)
(1.82442 -0.0701731 -9.21221e-21)
(1.89571 -0.0452041 0)
(1.94085 -0.0188011 0)
(1.96076 0.0092631 0)
(1.95054 0.0387951 0)
(1.90951 0.0687716 0)
(1.83967 0.0982157 0)
(1.74081 0.12558 0)
(1.61614 0.150628 -8.61702e-21)
(1.46793 0.172313 8.56233e-21)
(1.29783 0.189009 -8.50784e-21)
(1.11555 0.205031 -8.45229e-21)
(0.911093 0.208815 0)
(0.712144 0.216831 0)
(0.4947 0.231578 8.26556e-21)
(0.266042 0.148257 8.19339e-21)
(0.126981 -0.00256517 0)
(0.0582647 -0.0939251 0)
(0.0270503 -0.107926 7.98122e-21)
(0.0158943 -0.0934491 0)
(0.0937162 -0.0846193 0)
(0.243606 -0.0656638 -7.77486e-21)
(0.386796 -0.0168083 0)
(0.545476 0.0531924 -7.62506e-21)
(0.715327 0.0232615 -1.51105e-20)
(0.810372 -0.367538 0)
(0.808756 -0.648404 0)
(0.799317 -0.391483 0)
(0.51534 0.144908 0)
(-0.0400081 0.386348 0)
(-0.59953 0.473436 -1.42697e-20)
(-1.199 0.51741 -1.40555e-20)
(-1.75115 0.475632 -1.3791e-20)
(-2.22454 0.398014 0)
(-2.62098 0.327573 1.31798e-20)
(-2.95646 0.270677 0)
(-3.24108 0.225094 -1.25611e-20)
(-3.48528 0.189375 -1.22683e-20)
(-3.69666 0.161405 0)
(-3.88107 0.138895 0)
(-4.04212 0.120077 0)
(-4.18218 0.103643 -1.12598e-20)
(-4.30262 0.0886734 0)
(-4.40411 0.0745423 0)
(-4.48697 0.0609045 0)
(-4.55147 0.0477221 0)
(-4.59793 0.0351626 0)
(-4.62689 0.0234254 0)
(-4.63923 0.0126638 0)
(-4.63583 0.00320156 0)
(-4.61982 -0.00479975 1.00291e-20)
(-4.59182 -0.0116736 0)
(-4.55382 -0.0173399 0)
(-4.50744 -0.0218961 -9.86892e-21)
(-4.45432 -0.0254124 -9.83023e-21)
(-4.3959 -0.0280223 0)
(-4.3334 -0.0299168 9.76645e-21)
(-4.26774 -0.0312887 -9.73935e-21)
(-4.19947 -0.0323679 0)
(-4.12882 -0.0333695 9.69161e-21)
(-4.05564 -0.0344902 0)
(-3.97948 -0.0359095 0)
(-3.89961 -0.0377601 -9.63343e-21)
(-3.8151 -0.0401309 0)
(-3.72489 -0.0430582 9.60441e-21)
(-3.62788 -0.0465219 0)
(-3.52304 -0.0504465 -9.58437e-21)
(-3.40953 -0.0547088 -9.57762e-21)
(-3.28674 -0.0591561 -9.5727e-21)
(-3.15439 -0.0636173 -1.91383e-20)
(-3.01249 -0.0679155 1.91326e-20)
(-2.86139 -0.0718843 0)
(-2.70175 -0.0753802 0)
(-2.53449 -0.0782889 0)
(-2.36074 -0.0805359 1.90931e-20)
(-2.18176 -0.0820883 1.90707e-20)
(-1.99891 -0.0829419 -1.90402e-20)
(-1.81353 -0.0831157 0)
(-1.62687 -0.0826566 1.895e-20)
(-1.44004 -0.0816349 1.88885e-20)
(-1.25402 -0.0801383 1.88151e-20)
(-1.06968 -0.0782638 0)
(-0.887732 -0.0761049 0)
(-0.708664 -0.0737621 0)
(-0.532838 -0.0713091 1.84015e-20)
(-0.36059 -0.0686124 0)
(-0.192326 -0.0657789 0)
(-0.0291295 -0.0625237 -1.79751e-20)
(0.128041 -0.0588867 0)
(0.2783 -0.0546113 0)
(0.420147 -0.0497465 -1.74491e-20)
(0.552093 -0.0443856 0)
(0.672928 -0.0386985 0)
(0.781845 -0.0328997 1.6866e-20)
(0.878518 -0.0272071 1.66647e-20)
(0.96309 -0.0218078 0)
(1.0361 -0.0168361 -1.62584e-20)
(1.09835 -0.012369 0)
(1.15083 -0.00843116 1.58525e-20)
(1.19455 -0.00500517 0)
(1.23051 -0.00205697 1.54512e-20)
(1.25961 0.000475211 1.5253e-20)
(1.28265 0.00263902 0)
(1.30035 0.00447425 0)
(1.31327 0.00606354 0)
(1.3219 0.00737954 0)
(1.32686 0.00846867 0)
(1.32821 0.00948834 0)
(1.32636 0.0103517 0)
(1.32182 0.010929 1.3734e-20)
(1.31502 0.0112213 -1.35522e-20)
(1.30643 0.0112875 0)
(1.29648 0.011183 0)
(1.28555 0.0109458 0)
(1.27396 0.0106272 0)
(1.26197 0.0102637 -2.53342e-20)
(1.24979 0.00986886 0)
(1.23761 0.00944493 2.46475e-20)
(1.22561 0.00899098 -2.43084e-20)
(1.21395 0.00850531 0)
(1.20277 0.00798903 0)
(1.19221 0.00744847 0)
(1.18234 0.00689376 2.29803e-20)
(1.17323 0.00633668 2.2655e-20)
(1.16489 0.00578878 0)
(1.15734 0.00526043 2.20121e-20)
(1.15052 0.00476128 2.16943e-20)
(1.14441 0.00429849 -2.1379e-20)
(1.13893 0.00387513 0)
(1.13403 0.00348878 0)
(1.12965 0.00313164 -2.04465e-20)
(1.12573 0.00281063 0)
(1.12222 0.00252522 0)
(1.11907 0.00227563 0)
(1.11624 0.00205819 0)
(1.11367 0.0018641 1.89348e-20)
(1.11133 0.00168301 1.86385e-20)
(1.10919 0.00150852 0)
(1.1072 0.00134014 1.80514e-20)
(1.10534 0.00118264 0)
(1.10357 0.00104201 0)
(1.10188 0.000928909 1.71846e-20)
(1.10023 0.000846112 0)
(1.09857 0.000788783 1.66155e-20)
(1.09688 0.000755366 0)
(1.09507 0.000750707 0)
(1.09313 0.000770492 1.57744e-20)
(1.09095 0.000816725 0)
(1.08856 0.000884692 1.52219e-20)
(1.08571 0.000982787 0)
(1.08259 0.00110406 0)
(1.07869 0.00127124 0)
(1.07446 0.00146913 -1.41364e-20)
(1.0689 0.00174936 0)
(1.06295 0.00206692 1.36037e-20)
(1.05475 0.00254673 0)
(1.04596 0.00304505 0)
(1.03366 0.00391707 0)
(1.01953 0.004645 0)
(1.00148 0.00643541 0)
(0.975169 0.00722551 0)
(0.95258 0.0116708 0)
(0.891431 0.0110752 -2.31207e-20)
(0.883603 0.0245711 0)
(0.709436 0.0147994 0)
(-0.032898 0.338085 -3.16407e-20)
(-0.0929645 0.218486 3.14159e-20)
(-0.040865 -0.0993942 0)
(0.0913873 -0.367956 -2.06365e-20)
(0.269889 -0.527663 0)
(0.458804 -0.604419 -1.01809e-20)
(0.647669 -0.626228 2.0147e-20)
(0.832407 -0.615515 1.99667e-20)
(1.01116 -0.587826 0)
(1.18295 -0.551597 1.95811e-20)
(1.34736 -0.510471 9.71763e-21)
(1.50349 -0.465386 0)
(1.64952 -0.416105 0)
(1.78274 -0.362029 0)
(1.89989 -0.302842 0)
(1.99836 -0.23846 9.20603e-21)
(2.07493 -0.169597 0)
(2.1287 -0.0969977 -1.79838e-20)
(2.15568 -0.0220928 0)
(2.15844 0.0535432 0)
(2.13628 0.128835 1.75223e-20)
(2.09106 0.199271 0)
(2.02298 0.265716 -1.72741e-20)
(1.93738 0.3224 8.60746e-21)
(1.83506 0.372429 -8.55146e-21)
(1.72087 0.414599 8.4956e-21)
(1.6015 0.440471 8.4386e-21)
(1.46831 0.47307 0)
(1.35063 0.467654 0)
(1.21433 0.470266 -8.24719e-21)
(1.10967 0.460569 8.17522e-21)
(1.00561 0.343036 0)
(0.849278 0.243517 0)
(0.781158 0.162901 -7.96622e-21)
(0.721746 -0.00983769 0)
(0.695257 -0.282316 0)
(0.791652 -0.451294 7.76214e-21)
(0.996201 -0.434455 0)
(0.980675 -0.637309 -7.62161e-21)
(0.770959 -0.454775 1.51119e-20)
(0.372956 0.237123 0)
(-0.417659 0.671221 0)
(-1.06178 0.879752 2.91787e-20)
(-1.58269 1.09699 2.87903e-20)
(-2.08029 1.20014 2.84318e-20)
(-2.49577 1.19775 -1.3841e-20)
(-2.85424 1.10736 1.39924e-20)
(-3.15242 0.969236 4.08223e-20)
(-3.40993 0.825122 -2.65351e-20)
(-3.63365 0.697725 -1.31438e-20)
(-3.83073 0.590001 0)
(-4.00559 0.502084 1.2536e-20)
(-4.16227 0.430651 -1.20389e-20)
(-4.30299 0.371891 0)
(-4.42901 0.322018 0)
(-4.54082 0.27807 0)
(-4.63836 0.237823 1.12477e-20)
(-4.72136 0.199771 0)
(-4.78948 0.163044 -2.15937e-20)
(-4.84254 0.127288 0)
(-4.88052 0.0925634 -2.09701e-20)
(-4.90356 0.0592238 0)
(-4.91216 0.0278256 2.04895e-20)
(-4.90717 -0.00113506 0)
(-4.88989 -0.0272995 -2.01336e-20)
(-4.85982 -0.0501938 9.97044e-21)
(-4.81926 -0.0698074 0)
(-4.7694 -0.0860247 1.97802e-20)
(-4.71192 -0.0989918 9.86471e-21)
(-4.64837 -0.10898 9.82616e-21)
(-4.58014 -0.11641 0)
(-4.50839 -0.121826 9.74378e-21)
(-4.43395 -0.125838 9.73572e-21)
(-4.35727 -0.129092 0)
(-4.27849 -0.132214 -9.68827e-21)
(-4.19735 -0.135779 1.93199e-20)
(-4.11333 -0.140281 0)
(-4.02562 -0.146095 9.63042e-21)
(-3.93325 -0.153461 0)
(-3.83513 -0.162464 -2.87855e-20)
(-3.73014 -0.173033 0)
(-3.61726 -0.184938 2.87231e-20)
(-3.49565 -0.197812 9.57483e-21)
(-3.36473 -0.211201 -9.54698e-21)
(-3.22426 -0.2246 -1.90864e-20)
(-3.0743 -0.237492 1.90809e-20)
(-2.91527 -0.249389 0)
(-2.74786 -0.259875 0)
(-2.573 -0.268621 0)
(-2.39182 -0.27541 -5.72227e-20)
(-2.20557 -0.280148 -1.90655e-20)
(-2.01553 -0.282824 1.90352e-20)
(-1.82298 -0.283489 0)
(-1.62911 -0.282277 1.89156e-20)
(-1.43496 -0.279395 -1.88842e-20)
(-1.24147 -0.275108 -1.88111e-20)
(-1.04945 -0.269724 0)
(-0.859536 -0.263566 0)
(-0.672171 -0.256892 0)
(-0.48759 -0.249887 -1.83989e-20)
(-0.306034 -0.242565 0)
(-0.127783 -0.234724 3.62364e-20)
(0.0461208 -0.225897 5.39007e-20)
(0.214831 -0.215845 -3.55952e-20)
(0.377533 -0.204009 0)
(0.532479 -0.190395 -1.74342e-20)
(0.678157 -0.175236 0)
(0.813324 -0.159 -3.41117e-20)
(0.937174 -0.142299 1.68545e-20)
(1.04941 -0.125761 1.66538e-20)
(1.1502 -0.109933 0)
(1.24011 -0.0952114 4.8755e-20)
(1.31997 -0.0818327 -3.20953e-20)
(1.39074 -0.0698812 -1.58472e-20)
(1.45344 -0.0593251 0)
(1.50907 -0.0500605 -1.54457e-20)
(1.55852 -0.041938 -4.57389e-20)
(1.60265 -0.0348046 0)
(1.64216 -0.0285223 -2.97096e-20)
(1.67763 -0.0229451 -2.93242e-20)
(1.70963 -0.0179953 -2.89425e-20)
(1.73839 -0.0135946 0)
(1.76441 -0.00961186 0)
(1.78801 -0.00605965 0)
(1.80929 -0.00300563 1.37253e-20)
(1.82838 -0.000446742 1.35446e-20)
(1.84535 0.00164864 0)
(1.86036 0.00330854 2.63699e-20)
(1.87355 0.00458212 2.60156e-20)
(1.88516 0.00551296 0)
(1.89544 0.00613956 2.53171e-20)
(1.90468 0.00649987 4.9943e-20)
(1.91317 0.00662559 -2.46299e-20)
(1.92117 0.00654579 -2.429e-20)
(1.92892 0.00629283 0)
(1.93663 0.00590217 0)
(1.94444 0.00541047 0)
(1.95247 0.00485461 -2.29622e-20)
(1.96076 0.00426925 2.26368e-20)
(1.96933 0.00368457 4.46284e-20)
(1.97816 0.0031252 -2.19941e-20)
(1.98719 0.00260832 2.16763e-20)
(1.99638 0.00214257 2.13611e-20)
(2.00563 0.00172902 0)
(2.0149 0.00136628 0)
(2.02413 0.00106547 -2.0429e-20)
(2.03329 0.0008061 0)
(2.04232 0.000582542 0)
(2.05119 0.000388953 3.90326e-20)
(2.05987 0.000222567 0)
(2.06835 8.65798e-05 1.89181e-20)
(2.0766 -1.24318e-05 -1.8622e-20)
(2.08458 -7.10668e-05 0)
(2.09225 -9.25809e-05 1.80354e-20)
(2.09956 -8.56959e-05 0)
(2.10649 -5.85853e-05 0)
(2.113 -1.96456e-05 -1.71693e-20)
(2.11909 3.229e-05 3.37681e-20)
(2.12473 0.000105653 -1.66006e-20)
(2.12992 0.000202362 0)
(2.1346 0.000324168 0)
(2.13878 0.00047478 1.57603e-20)
(2.14238 0.000664702 0)
(2.14543 0.000890295 1.52083e-20)
(2.14779 0.00117839 0)
(2.14956 0.00150833 0)
(2.15047 0.00195087 0)
(2.15074 0.00242709 1.4124e-20)
(2.14988 0.00313107 0)
(2.14824 0.00380877 -1.35919e-20)
(2.14513 0.00500777 0)
(2.14075 0.00594389 0)
(2.13471 0.00817199 2.56138e-20)
(2.1256 0.00933576 -2.50991e-20)
(2.11617 0.0138885 0)
(2.09707 0.0148747 0)
(2.08595 0.0250618 0)
(2.04173 0.0241879 6.92862e-20)
(2.03993 0.0486157 0)
(1.9274 0.0417222 -4.42575e-20)
(-0.0276114 0.403797 2.41561e-23)
(0.00472632 0.13308 -4.18512e-20)
(0.168022 -0.375594 0)
(0.354885 -0.733918 4.11862e-20)
(0.537674 -0.917239 0)
(0.705139 -0.980431 0)
(0.861135 -0.977667 -6.7653e-23)
(1.01208 -0.944714 -1.99459e-20)
(1.16268 -0.900363 -1.96787e-20)
(1.31527 -0.851478 -1.95635e-20)
(1.46939 -0.798352 0)
(1.62197 -0.738504 0)
(1.76867 -0.669264 1.88487e-20)
(1.90486 -0.588804 3.72732e-20)
(2.02595 -0.496463 -3.68578e-20)
(2.12796 -0.392934 0)
(2.20734 -0.279864 -3.60781e-20)
(2.26157 -0.159674 1.79752e-20)
(2.28823 -0.0358193 0)
(2.28608 0.0884177 -3.50963e-20)
(2.25495 0.208068 -1.75148e-20)
(2.19489 0.320285 3.45759e-20)
(2.10988 0.418027 1.72662e-20)
(2.00537 0.498855 0)
(1.88627 0.563856 -3.39607e-20)
(1.76642 0.604445 -3.37695e-20)
(1.64059 0.641189 0)
(1.52928 0.646706 -3.33711e-20)
(1.42565 0.65193 0)
(1.3221 0.639391 -3.29378e-20)
(1.24701 0.539771 -1.63399e-20)
(1.14694 0.519573 0)
(1.09345 0.317493 0)
(0.978856 0.0575987 0)
(0.945244 0.0773323 0)
(1.08783 -0.125267 0)
(0.947033 -0.623695 0)
(0.606051 -0.314178 -3.08465e-20)
(-0.0892921 0.554647 4.57994e-20)
(-0.823332 1.00541 0)
(-1.34959 1.29549 0)
(-1.86932 1.45469 0)
(-2.29357 1.59619 -1.80382e-22)
(-2.66122 1.69318 -2.86992e-20)
(-2.94278 1.6879 -5.63584e-20)
(-3.15432 1.59345 5.55298e-20)
(-3.31839 1.43645 2.70797e-20)
(-3.46156 1.2579 -2.70533e-20)
(-3.59664 1.08515 4.32397e-22)
(-3.73002 0.933939 -2.5562e-20)
(-3.8615 0.806609 0)
(-3.99182 0.701756 -2.45215e-20)
(-4.11886 0.614709 2.68789e-22)
(-4.24106 0.540502 0)
(-4.35584 0.474703 0)
(-4.46106 0.413881 2.25928e-20)
(-4.5545 0.355695 0)
(-4.63441 0.298762 0)
(-4.69936 0.242534 -2.12588e-20)
(-4.74855 0.187063 -4.2217e-20)
(-4.78157 0.132804 2.09731e-20)
(-4.7984 0.0803868 0)
(-4.79963 0.0305373 -2.04941e-20)
(-4.78669 -0.0157877 0)
(-4.76064 -0.0577547 -1.99412e-20)
(-4.72289 -0.0947529 -1.99985e-20)
(-4.6752 -0.126144 3.96178e-20)
(-4.61931 -0.151884 1.96608e-20)
(-4.55697 -0.172132 0)
(-4.4898 -0.187405 -3.91724e-20)
(-4.41918 -0.198463 0)
(-4.34621 -0.20626 -5.84688e-20)
(-4.27162 -0.211876 -3.88638e-20)
(-4.19576 -0.216416 -3.87722e-20)
(-4.11859 -0.220945 3.86836e-20)
(-4.03971 -0.22642 -5.79203e-20)
(-3.9584 -0.233636 0)
(-3.87369 -0.243192 0)
(-3.78448 -0.255451 3.83703e-20)
(-3.68955 -0.270525 5.74941e-20)
(-3.5877 -0.288263 0)
(-3.47784 -0.308251 -1.91422e-20)
(-3.35913 -0.329843 0)
(-3.23101 -0.352236 5.72757e-20)
(-3.09328 -0.374554 7.5403e-23)
(-2.94614 -0.395918 -7.52737e-23)
(-2.79012 -0.415509 -3.81206e-20)
(-2.62603 -0.432648 0)
(-2.45492 -0.446818 3.80905e-20)
(-2.27801 -0.457697 6.6908e-23)
(-2.09662 -0.465183 0)
(-1.91205 -0.469323 0)
(-1.72558 -0.470227 0)
(-1.53834 -0.468107 -3.78552e-20)
(-1.35126 -0.463292 0)
(-1.16504 -0.456188 0)
(-0.98034 -0.447252 0)
(-0.797572 -0.43703 0)
(-0.616916 -0.425978 0)
(-0.438332 -0.414482 -3.67419e-20)
(-0.261771 -0.402597 0)
(-0.0871824 -0.38993 -3.62294e-20)
(0.0844174 -0.37601 -3.59202e-20)
(0.252105 -0.359549 3.55849e-20)
(0.414726 -0.340144 0)
(0.569942 -0.317641 3.48689e-20)
(0.715749 -0.292454 0)
(0.85054 -0.265452 3.41039e-20)
(0.973363 -0.23774 -3.37083e-20)
(1.08398 -0.210425 -9.99003e-20)
(1.18278 -0.184432 0)
(1.27055 -0.160415 -9.74728e-20)
(1.34835 -0.138742 -3.2075e-20)
(1.41729 -0.119537 0)
(1.47846 -0.102748 -6.25555e-20)
(1.53283 -0.088204 -6.17581e-20)
(1.58129 -0.0756727 9.1456e-20)
(1.62463 -0.0648981 0)
(1.66357 -0.0556084 2.97074e-20)
(1.69875 -0.0475604 2.93222e-20)
(1.73082 -0.0405257 8.68153e-20)
(1.76031 -0.0343134 0)
(1.78767 -0.0288176 0)
(1.81324 -0.0239415 0)
(1.83726 -0.0196196 2.74462e-20)
(1.85983 -0.0158172 0)
(1.88097 -0.0125134 0)
(1.90071 -0.00969815 -2.63686e-20)
(1.91913 -0.00735145 -2.60142e-20)
(1.93632 -0.00547028 0)
(1.9524 -0.0040524 0)
(1.96754 -0.00308538 -4.99396e-20)
(1.98196 -0.00254207 0)
(1.99589 -0.00238667 4.85769e-20)
(2.00954 -0.00257453 4.7903e-20)
(2.02313 -0.0030428 0)
(2.03682 -0.00371597 0)
(2.05072 -0.00451613 -4.59188e-20)
(2.06492 -0.00536836 -5.35486e-25)
(2.07945 -0.006207 -4.41284e-25)
(2.09428 -0.00698005 0)
(2.10937 -0.0076518 -8.66937e-20)
(2.12468 -0.00820369 0)
(2.14011 -0.00863335 0)
(2.15561 -0.0089479 0)
(2.17111 -0.00914603 4.08515e-20)
(2.18652 -0.0092573 0)
(2.20181 -0.0092937 -7.92603e-20)
(2.21695 -0.00926622 -3.90259e-20)
(2.23192 -0.00918544 0)
(2.24667 -0.00905819 -3.78294e-20)
(2.26119 -0.00888617 0)
(2.27544 -0.00866803 0)
(2.28941 -0.00840332 -1.08191e-19)
(2.30309 -0.00809397 7.0965e-20)
(2.31648 -0.00773928 0)
(2.32952 -0.00734496 6.86624e-20)
(2.34219 -0.00691827 -3.3761e-20)
(2.35443 -0.00645565 0)
(2.36621 -0.00595526 0)
(2.37749 -0.00541458 0)
(2.38822 -0.00482963 -9.45401e-20)
(2.39835 -0.00418076 0)
(2.40779 -0.00348392 -3.04096e-20)
(2.41652 -0.00270946 0)
(2.42444 -0.00189906 0)
(2.43158 -0.000952225 0)
(2.43779 1.69801e-05 0)
(2.4432 0.0012831 0)
(2.44742 0.00249424 0)
(2.45094 0.00438916 -5.32951e-20)
(2.45266 0.00593978 0)
(2.45415 0.00913412 -2.56068e-20)
(2.4523 0.0110817 7.52695e-20)
(2.45188 0.0171037 0)
(2.444 0.0193187 0)
(2.44277 0.0317135 -4.7141e-20)
(2.4232 0.033516 -4.61709e-20)
(2.42516 0.0603482 4.51721e-20)
(2.38242 0.0614467 4.4241e-20)
(-0.0329944 0.382543 6.31415e-20)
(0.129675 -0.193193 6.26847e-20)
(0.364442 -0.809523 4.1402e-20)
(0.560796 -1.14153 2.04798e-20)
(0.714666 -1.26063 0)
(0.845113 -1.27415 -4.03008e-20)
(0.970711 -1.25004 1.98848e-20)
(1.10344 -1.21877 0)
(1.24827 -1.18808 1.96646e-20)
(1.40436 -1.15423 0)
(1.56707 -1.10962 -3.82736e-20)
(1.72954 -1.04748 0)
(1.88478 -0.963685 -1.88341e-20)
(2.02663 -0.856987 -3.72456e-20)
(2.15048 -0.728733 3.68324e-20)
(2.25314 -0.581659 0)
(2.33238 -0.41928 3.60584e-20)
(2.38647 -0.245469 0)
(2.41333 -0.0644279 0)
(2.41121 0.117632 3.50822e-20)
(2.37727 0.295533 0)
(2.30854 0.460403 -2.99112e-22)
(2.20707 0.604507 0)
(2.07775 0.721231 0)
(1.92997 0.799095 1.90893e-22)
(1.77122 0.852281 3.37567e-20)
(1.62019 0.864838 3.34519e-20)
(1.47411 0.853127 3.33654e-20)
(1.33503 0.832847 0)
(1.23775 0.76552 6.58561e-20)
(1.10502 0.742806 0)
(1.03644 0.58478 3.25086e-20)
(0.946022 0.49819 0)
(0.768426 0.411399 0)
(0.75349 -0.211343 -3.182e-20)
(0.667864 -0.314453 0)
(-0.0110047 0.485273 3.1208e-20)
(-0.738522 1.10384 1.50191e-23)
(-1.31724 1.50105 -6.08002e-20)
(-1.79241 1.72639 5.98514e-20)
(-2.17985 1.90858 0)
(-2.51923 2.0108 0)
(-2.79058 2.06616 2.82243e-20)
(-3.00428 2.03927 0)
(-3.15732 1.93904 2.79759e-20)
(-3.27403 1.78212 -2.75331e-20)
(-3.36978 1.59854 -2.70692e-20)
(-3.4618 1.41372 0)
(-3.55386 1.24365 2.60763e-20)
(-3.65116 1.09607 2.55595e-20)
(-3.75321 0.971237 -4.93784e-20)
(-3.86034 0.866169 2.45219e-20)
(-3.96928 0.775575 2.40137e-20)
(-4.07715 0.694034 0)
(-4.18005 0.616919 0)
(-4.27468 0.540934 -2.2597e-20)
(-4.35792 0.464304 0)
(-4.4274 0.386526 0)
(-4.48134 0.308058 4.28678e-20)
(-4.51877 0.229939 4.2233e-20)
(-4.53959 0.153497 0)
(-4.54445 0.0801175 0)
(-4.53423 0.01106 0)
(-4.51017 -0.0524838 0)
(-4.47406 -0.109156 4.0097e-20)
(-4.42784 -0.158269 -3.96285e-20)
(-4.37335 -0.199399 -3.96355e-20)
(-4.31249 -0.2325 -7.87685e-20)
(-4.24698 -0.257962 0)
(-4.1784 -0.276571 1.0607e-22)
(-4.10808 -0.289486 0)
(-4.037 -0.298123 3.89755e-20)
(-3.96573 -0.304025 6.42245e-23)
(-3.89436 -0.308754 3.87874e-20)
(-3.82258 -0.313792 -3.86982e-20)
(-3.74972 -0.320473 5.76533e-23)
(-3.6748 -0.329896 0)
(-3.59663 -0.34287 -3.83864e-20)
(-3.51388 -0.359854 -3.83819e-20)
(-3.4252 -0.380936 -7.65607e-20)
(-3.32929 -0.405837 0)
(-3.22506 -0.433919 3.81338e-20)
(-3.11169 -0.464223 0)
(-2.98872 -0.495553 -7.62347e-20)
(-2.85606 -0.526618 3.81484e-20)
(-2.71395 -0.556136 -3.81358e-20)
(-2.56299 -0.582936 3.81246e-20)
(-2.40401 -0.606062 7.60311e-20)
(-2.23803 -0.624829 -3.8093e-20)
(-2.06631 -0.638853 3.80656e-20)