/*--------------------------------*- C++ -*----------------------------------*\
  =========                 |
  \\      /  F ield         | OpenFOAM: The Open Source CFD Toolbox
   \\    /   O peration     | Website:  https://openfoam.org
    \\  /    A nd           | Version:  7
     \\/     M anipulation  |
\*---------------------------------------------------------------------------*/
FoamFile
{
    version     2.0;
    format      ascii;
    class       volVectorField;
    location    "0.057";
    object      U_0;
}
// * * * * * * * * * * * * * * * * * * * * * * * * * * * * * * * * * * * * * //

dimensions      [0 1 -1 0 0 0 0];

internalField   nonuniform List<vector> 
12225
(
(4.87848 0.14835 0)
(4.2467 0.0989852 0)
(3.75602 0.0956046 0)
(3.34923 0.0882036 0)
(2.96016 0.0807608 0)
(2.57944 0.072233 0)
(2.2359 0.059863 0)
(1.94984 0.0465381 0)
(1.71025 0.0377745 0)
(1.49394 0.0339286 0)
(1.29058 0.0297864 0)
(1.10538 0.0224335 0)
(0.942367 0.0136886 0)
(0.811479 0.00610294 0)
(0.700974 0.000732944 0)
(0.626414 -0.00158881 0)
(0.551169 -0.00188371 0)
(0.506068 -0.0146337 0)
(5.09872 0.169441 0)
(4.96814 0.0981942 0)
(4.81287 0.106681 0)
(4.69288 0.105392 0)
(4.56964 0.106775 0)
(4.42938 0.107728 0)
(4.28614 0.102263 0)
(4.15073 0.0935626 0)
(4.01626 0.0874414 0)
(3.87264 0.0867163 0)
(3.71789 0.0883883 0)
(3.56193 0.0885592 0)
(3.40542 0.0848004 0)
(3.26022 0.0770957 0)
(3.11467 0.067573 0)
(2.99064 0.0564426 0)
(2.87594 0.051356 0)
(2.77055 0.038751 0)
(4.97279 0.12412 0)
(4.87544 0.115397 0)
(4.82404 0.144002 0)
(4.79903 0.144851 0)
(4.77647 0.142953 0)
(4.75708 0.142749 0)
(4.73842 0.137418 0)
(4.71453 0.128362 0)
(4.6821 0.122754 0)
(4.64073 0.124366 0)
(4.59184 0.128477 0)
(4.53723 0.129728 0)
(4.47866 0.125363 0)
(4.41755 0.117395 0)
(4.3566 0.108974 0)
(4.29222 0.0975928 0)
(4.23247 0.0882454 0)
(4.15896 0.0822368 0)
(4.9524 0.217777 0)
(4.83585 0.12156 0)
(4.77786 0.1281 0)
(4.75978 0.135087 0)
(4.7669 0.133009 0)
(4.77965 0.128307 0)
(4.78347 0.120249 0)
(4.77511 0.1116 0)
(4.76214 0.109414 0)
(4.75258 0.115539 0)
(4.74894 0.124552 0)
(4.74607 0.129662 0)
(4.74054 0.128641 0)
(4.7283 0.122969 0)
(4.71292 0.116421 0)
(4.69081 0.108378 0)
(4.66714 0.10389 0)
(4.63249 0.103706 0)
(4.95737 0.193116 0)
(4.87626 0.141913 0)
(4.81597 0.142048 0)
(4.80444 0.138118 0)
(4.81537 0.131096 0)
(4.82179 0.130635 0)
(4.81018 0.132333 0)
(4.78264 0.130696 0)
(4.75474 0.12731 0)
(4.7419 0.126107 0)
(4.7486 0.127796 0)
(4.76661 0.129669 0)
(4.78491 0.129478 0)
(4.79409 0.126449 0)
(4.79282 0.122533 0)
(4.78135 0.118012 0)
(4.76285 0.115283 0)
(4.73933 0.115803 0)
(5.01096 0.201505 0)
(4.98253 0.15473 0)
(4.95754 0.142943 0)
(4.90099 0.143334 0)
(4.85906 0.140029 0)
(4.83309 0.139674 0)
(4.80677 0.140019 0)
(4.7782 0.135758 0)
(4.75958 0.127512 0)
(4.76183 0.120053 0)
(4.78475 0.11689 0)
(4.81727 0.117771 0)
(4.84543 0.120573 0)
(4.85858 0.123363 0)
(4.8544 0.125741 0)
(4.83589 0.126993 0)
(4.80931 0.1276 0)
(4.78029 0.128573 0)
(4.92961 0.21973 0)
(4.91004 0.138464 0)
(4.87597 0.150615 0)
(4.86227 0.161675 0)
(4.86777 0.154498 0)
(4.86548 0.150281 0)
(4.84242 0.151253 0)
(4.80893 0.145667 0)
(4.78389 0.129697 0)
(4.77885 0.1111 0)
(4.79354 0.0996591 0)
(4.81887 0.099291 0)
(4.8435 0.107808 0)
(4.85775 0.120234 0)
(4.85954 0.132127 0)
(4.84962 0.140309 0)
(4.83489 0.14403 0)
(4.81682 0.143965 0)
(5.10449 0.248779 0)
(4.94099 0.190441 0)
(4.85449 0.156851 0)
(4.82607 0.138307 0)
(4.81607 0.135874 0)
(4.8074 0.14881 0)
(4.80747 0.161755 0)
(4.82119 0.15949 0)
(4.84167 0.141106 0)
(4.85888 0.117621 0)
(4.86887 0.101116 0)
(4.87314 0.097188 0)
(4.87505 0.104606 0)
(4.87541 0.118004 0)
(4.87578 0.131886 0)
(4.87514 0.141877 0)
(4.87578 0.146448 0)
(4.87446 0.146474 0)
(5.02233 0.268783 0)
(5.00852 0.213275 0)
(4.96993 0.184378 0)
(4.9226 0.175196 0)
(4.88521 0.169458 0)
(4.87034 0.1616 0)
(4.87686 0.149017 0)
(4.89268 0.130813 0)
(4.90209 0.111113 0)
(4.89667 0.0965019 0)
(4.88 0.0911006 0)
(4.86098 0.0950314 0)
(4.84792 0.105738 0)
(4.84347 0.119154 0)
(4.84722 0.131557 0)
(4.85546 0.140184 0)
(4.86495 0.144329 0)
(4.87193 0.145596 0)
(4.99588 0.254916 0)
(4.96835 0.221247 0)
(4.92268 0.183682 0)
(4.89811 0.156124 0)
(4.90396 0.147669 0)
(4.92674 0.150955 0)
(4.946 0.154098 0)
(4.9463 0.150178 0)
(4.92529 0.140362 0)
(4.89341 0.129081 0)
(4.86543 0.12008 0)
(4.8499 0.115395 0)
(4.84817 0.115507 0)
(4.85523 0.119381 0)
(4.86579 0.124834 0)
(4.87462 0.13013 0)
(4.88031 0.134076 0)
(4.88138 0.136971 0)
(5.02381 0.292658 0)
(4.99218 0.255961 0)
(4.98061 0.216831 0)
(4.94732 0.188558 0)
(4.91622 0.162514 0)
(4.90472 0.143913 0)
(4.91245 0.137387 0)
(4.92554 0.137939 0)
(4.93167 0.136502 0)
(4.92811 0.12829 0)
(4.9194 0.115882 0)
(4.91128 0.105677 0)
(4.90713 0.102844 0)
(4.9076 0.108341 0)
(4.91128 0.119098 0)
(4.91601 0.13097 0)
(4.9205 0.140508 0)
(4.92352 0.146169 0)
(4.99018 0.321787 0)
(5.02317 0.248391 0)
(5.00278 0.196406 0)
(4.97982 0.170051 0)
(4.95761 0.158164 0)
(4.93597 0.152741 0)
(4.92675 0.148379 0)
(4.93502 0.144599 0)
(4.95284 0.14045 0)
(4.96778 0.134556 0)
(4.97097 0.127127 0)
(4.96071 0.120133 0)
(4.9412 0.115724 0)
(4.91981 0.115269 0)
(4.90165 0.118115 0)
(4.89024 0.122928 0)
(4.88419 0.127779 0)
(4.88401 0.132102 0)
(5.04865 0.312579 0)
(5.11574 0.258082 0)
(5.09193 0.237283 0)
(5.03657 0.217935 0)
(4.98224 0.190083 0)
(4.95026 0.158977 0)
(4.94244 0.133682 0)
(4.95242 0.120103 0)
(4.97309 0.116635 0)
(4.99723 0.118491 0)
(5.01637 0.122349 0)
(5.02271 0.127244 0)
(5.01375 0.13258 0)
(4.9923 0.13805 0)
(4.96612 0.142628 0)
(4.94046 0.145836 0)
(4.92142 0.147173 0)
(4.90704 0.14678 0)
(4.98515 0.245487 0)
(4.97365 0.24611 0)
(4.95978 0.233923 0)
(5.00299 0.212022 0)
(5.0495 0.190758 0)
(5.05693 0.171317 0)
(5.02824 0.15294 0)
(4.99023 0.134098 0)
(4.96479 0.116357 0)
(4.9578 0.105361 0)
(4.96359 0.105705 0)
(4.97277 0.116537 0)
(4.97972 0.132323 0)
(4.98261 0.146348 0)
(4.98434 0.154448 0)
(4.98593 0.155958 0)
(4.99069 0.15251 0)
(4.99527 0.147669 0)
(4.96306 0.279971 0)
(4.9738 0.251198 0)
(5.00212 0.200997 0)
(5.04172 0.164749 0)
(5.06648 0.161307 0)
(5.06815 0.173487 0)
(5.06017 0.178779 0)
(5.05167 0.166966 0)
(5.04181 0.144391 0)
(5.02874 0.124604 0)
(5.01463 0.116296 0)
(5.0035 0.119474 0)
(4.99814 0.128293 0)
(4.99839 0.136628 0)
(5.0017 0.140751 0)
(5.00484 0.140577 0)
(5.00581 0.137956 0)
(5.00272 0.135329 0)
(5.10122 0.297788 0)
(5.06496 0.251891 0)
(5.04228 0.202915 0)
(5.01853 0.179271 0)
(5.00529 0.173612 0)
(5.00228 0.170756 0)
(5.00684 0.161329 0)
(5.01271 0.146519 0)
(5.01649 0.133395 0)
(5.01938 0.126719 0)
(5.02369 0.12608 0)
(5.0309 0.129121 0)
(5.0412 0.133637 0)
(5.05275 0.138716 0)
(5.06399 0.144138 0)
(5.072 0.14922 0)
(5.07745 0.154025 0)
(5.07798 0.156829 0)
(4.98919 0.314149 0)
(5.0148 0.290296 0)
(5.03213 0.22349 0)
(5.04386 0.183926 0)
(5.03296 0.169872 0)
(5.01676 0.17039 0)
(5.0053 0.170678 0)
(4.99968 0.159915 0)
(5.00074 0.139202 0)
(5.00901 0.117485 0)
(5.02252 0.102812 0)
(5.0376 0.0978818 0)
(5.05141 0.100892 0)
(5.06205 0.107813 0)
(5.06978 0.115722 0)
(5.07512 0.123034 0)
(5.07963 0.129513 0)
(5.08376 0.136071 0)
(5.02441 0.306596 0)
(5.05736 0.222497 0)
(5.04885 0.195253 0)
(5.0471 0.198941 0)
(5.03098 0.210562 0)
(5.01346 0.209486 0)
(5.00308 0.188492 0)
(5.00041 0.153972 0)
(5.00561 0.11874 0)
(5.01701 0.0933556 0)
(5.03167 0.0818141 0)
(5.04716 0.0829056 0)
(5.06239 0.0925744 0)
(5.07615 0.106222 0)
(5.08784 0.119337 0)
(5.09692 0.129453 0)
(5.10392 0.13524 0)
(5.10881 0.137292 0)
(5.01888 0.267335 0)
(5.01789 0.251727 0)
(4.99743 0.232066 0)
(4.98041 0.204178 0)
(4.97929 0.194564 0)
(5.00171 0.194598 0)
(5.03256 0.18127 0)
(5.05674 0.148493 0)
(5.07071 0.106688 0)
(5.07609 0.0701119 0)
(5.07621 0.0473086 0)
(5.07548 0.0396595 0)
(5.07759 0.0440053 0)
(5.08352 0.0560104 0)
(5.09295 0.0717432 0)
(5.10453 0.0881171 0)
(5.1176 0.103164 0)
(5.13064 0.115556 0)
(5.08679 0.251492 0)
(5.09695 0.239941 0)
(5.11826 0.25098 0)
(5.11159 0.223338 0)
(5.08986 0.180868 0)
(5.08172 0.14114 0)
(5.0916 0.11373 0)
(5.10769 0.0997346 0)
(5.12054 0.0935874 0)
(5.12692 0.0894849 0)
(5.12727 0.0846846 0)
(5.12424 0.079121 0)
(5.12111 0.0737571 0)
(5.11959 0.0698431 0)
(5.12082 0.0676987 0)
(5.12523 0.067522 0)
(5.13371 0.0682465 0)
(5.14574 0.0699413 0)
(5.06431 0.234843 0)
(5.03536 0.227043 0)
(5.03903 0.251182 0)
(5.06187 0.24983 0)
(5.09854 0.217201 0)
(5.132 0.167157 0)
(5.15494 0.120028 0)
(5.16784 0.0863096 0)
(5.17621 0.0656751 0)
(5.18466 0.0544001 0)
(5.19431 0.0499363 0)
(5.20475 0.0506204 0)
(5.21566 0.0542722 0)
(5.22595 0.0582864 0)
(5.23506 0.0603436 0)
(5.24269 0.0596205 0)
(5.24992 0.0559792 0)
(5.25661 0.0507069 0)
(4.89847 0.303147 0)
(4.94574 0.249089 0)
(4.98411 0.207276 0)
(5.03693 0.167423 0)
(5.09056 0.129318 0)
(5.13156 0.103097 0)
(5.16314 0.091891 0)
(5.18772 0.088412 0)
(5.20618 0.0840973 0)
(5.22017 0.0755477 0)
(5.23182 0.0645951 0)
(5.2428 0.0547786 0)
(5.25383 0.0482804 0)
(5.26389 0.0454934 0)
(5.27144 0.04495 0)
(5.27602 0.045486 0)
(5.2785 0.0455663 0)
(5.28057 0.0448784 0)
(4.96037 0.205119 0)
(5.00098 0.18748 0)
(5.05485 0.163459 0)
(5.10658 0.145278 0)
(5.1509 0.115793 0)
(5.18363 0.0767089 0)
(5.21006 0.0437989 0)
(5.23315 0.0256816 0)
(5.25323 0.019184 0)
(5.26864 0.016928 0)
(5.27713 0.0152649 0)
(5.2786 0.0154409 0)
(5.27624 0.0194689 0)
(5.27411 0.0275382 0)
(5.27634 0.0366264 0)
(5.28382 0.043239 0)
(5.29757 0.0444088 0)
(5.31451 0.0384779 0)
(4.98786 0.288802 0)
(5.02982 0.176848 0)
(5.076 0.124915 0)
(5.14431 0.110769 0)
(5.21322 0.0919338 0)
(5.25612 0.0701808 0)
(5.27046 0.0574817 0)
(5.26992 0.0550498 0)
(5.26854 0.0569902 0)
(5.27155 0.0590375 0)
(5.27773 0.0602291 0)
(5.28566 0.0600905 0)
(5.29676 0.057345 0)
(5.31333 0.0501155 0)
(5.33712 0.0385204 0)
(5.36626 0.0244734 0)
(5.39864 0.0100469 0)
(5.42923 -6.2445e-05 0)
(5.06333 0.296493 0)
(5.06717 0.150696 0)
(5.10551 0.0807039 0)
(5.16998 0.0472868 0)
(5.22181 0.0287908 0)
(5.24335 0.0209534 0)
(5.2526 0.0183342 0)
(5.26778 0.015295 0)
(5.29257 0.0101631 0)
(5.32151 0.00428045 0)
(5.34954 -0.000956796 0)
(5.37601 -0.00509275 0)
(5.40253 -0.0095936 0)
(5.43025 -0.014881 0)
(5.45748 -0.02106 0)
(5.48029 -0.0271722 0)
(5.49692 -0.0320761 0)
(5.50478 -0.0347673 0)
(4.95693 0.272654 0)
(5.07567 0.157848 0)
(5.17218 0.077882 0)
(5.24883 0.0588171 0)
(5.30594 0.0575119 0)
(5.35103 0.0546953 0)
(5.38756 0.0460064 0)
(5.41362 0.0341813 0)
(5.42932 0.0250442 0)
(5.43866 0.0210378 0)
(5.44779 0.019461 0)
(5.46115 0.0157186 0)
(5.48075 0.00841246 0)
(5.50545 -0.000981138 0)
(5.53216 -0.0098447 0)
(5.55745 -0.0154851 0)
(5.57953 -0.0162923 0)
(5.59605 -0.0125459 0)
(4.95233 0.192463 0)
(5.08781 0.0553443 0)
(5.18427 0.00389488 0)
(5.2189 -0.0143247 0)
(5.23616 -0.0293055 0)
(5.26622 -0.0323485 0)
(5.30979 -0.024155 0)
(5.35736 -0.0137577 0)
(5.4033 -0.00809444 0)
(5.44607 -0.00921067 0)
(5.48551 -0.0164002 0)
(5.52217 -0.0283809 0)
(5.55611 -0.0421833 0)
(5.58525 -0.055048 0)
(5.60793 -0.0637201 0)
(5.62384 -0.0669058 0)
(5.63403 -0.0644986 0)
(5.64041 -0.0582924 0)
(4.98583 0.183479 0)
(5.19499 0.078023 0)
(5.31092 0.0497117 0)
(5.3639 0.0367162 0)
(5.39877 0.0227698 0)
(5.432 0.00984024 0)
(5.46402 -0.00218133 0)
(5.4983 -0.0124626 0)
(5.53701 -0.0191622 0)
(5.57645 -0.0223869 0)
(5.60933 -0.0243887 0)
(5.62988 -0.0270376 0)
(5.63732 -0.0313569 0)
(5.63484 -0.0359085 0)
(5.6287 -0.0382126 0)
(5.62511 -0.0371334 0)
(5.62761 -0.0325098 0)
(5.63827 -0.0259676 0)
(5.02579 -0.00490367 0)
(5.22301 -0.0460666 0)
(5.35069 -0.0282878 0)
(5.41738 -0.0483997 0)
(5.46162 -0.0627326 0)
(5.49793 -0.0610993 0)
(5.52286 -0.053939 0)
(5.53886 -0.0502078 0)
(5.55292 -0.0501717 0)
(5.56754 -0.0506118 0)
(5.57879 -0.0498495 0)
(5.5816 -0.0488044 0)
(5.5736 -0.0493977 0)
(5.55718 -0.0527869 0)
(5.53671 -0.0585708 0)
(5.51767 -0.065167 0)
(5.50172 -0.0709974 0)
(5.49124 -0.074472 0)
(4.89705 0.0646237 0)
(5.07462 0.0147328 0)
(5.08134 0.000653904 0)
(4.96436 -0.0131278 0)
(4.8176 -0.0173949 0)
(4.68957 -0.016759 0)
(4.58227 -0.0180913 0)
(4.4799 -0.0234446 0)
(4.37244 -0.0292172 0)
(4.26193 -0.0310754 0)
(4.15714 -0.0279162 0)
(4.06498 -0.0222259 0)
(3.98438 -0.0176706 0)
(3.90909 -0.0163164 0)
(3.83104 -0.0174771 0)
(3.74838 -0.0191885 0)
(3.6604 -0.0193537 0)
(3.57487 -0.0174102 0)
(-0.0589127 0.139661 1.76954e-20)
(-0.178463 0.0957894 -1.75644e-20)
(-0.202522 -0.00952969 0)
(-0.12551 -0.104282 0)
(0.0174819 -0.161699 0)
(0.202632 -0.194518 1.70691e-20)
(0.399942 -0.20735 0)
(0.601187 -0.206519 0)
(0.799365 -0.197813 0)
(0.988739 -0.184926 0)
(1.16652 -0.16977 -1.63275e-20)
(1.33113 -0.153038 0)
(1.48104 -0.134777 0)
(1.61443 -0.114878 0)
(1.72936 -0.0932505 0)
(1.82322 -0.0700174 -1.55507e-20)
(1.89434 -0.0450487 0)
(1.93931 -0.0186469 0)
(1.95906 0.00942031 0)
(1.94868 0.0389445 0)
(1.90749 0.0689077 0)
(1.83751 0.0983318 0)
(1.73852 0.125673 0)
(1.61377 0.150701 -1.45644e-20)
(1.46547 0.172351 1.44631e-20)
(1.29533 0.189048 -1.43625e-20)
(1.11301 0.205045 -1.4261e-20)
(0.908505 0.208823 0)
(0.709606 0.21695 0)
(0.491956 0.231535 1.39381e-20)
(0.263428 0.147931 1.38208e-20)
(0.12465 -0.00289305 0)
(0.0560125 -0.0940592 0)
(0.0247616 -0.107837 1.34698e-20)
(0.0137666 -0.0933153 0)
(0.0921549 -0.0844492 0)
(0.242054 -0.0652718 -1.31172e-20)
(0.385053 -0.0163698 0)
(0.543777 0.0535989 -1.2869e-20)
(0.713477 0.0214431 -2.55018e-20)
(0.807659 -0.371131 0)
(0.805794 -0.648885 0)
(0.795723 -0.387678 0)
(0.508856 0.14902 0)
(-0.0470172 0.38707 0)
(-0.605932 0.472866 -2.411e-20)
(-1.20479 0.516786 -2.37935e-20)
(-1.75687 0.475686 -2.34287e-20)
(-2.23056 0.398378 0)
(-2.62722 0.327831 2.26235e-20)
(-2.96274 0.270777 0)
(-3.24726 0.225055 -2.18181e-20)
(-3.49123 0.189214 -2.14341e-20)
(-3.70229 0.161159 0)
(-3.88632 0.138602 0)
(-4.04697 0.119766 0)
(-4.18664 0.103335 -2.00716e-20)
(-4.30671 0.0883852 0)
(-4.40786 0.0742852 0)
(-4.49043 0.0606831 0)
(-4.55467 0.0475346 0)
(-4.60092 0.0350072 0)
(-4.62971 0.0233051 0)
(-4.64189 0.012577 0)
(-4.63838 0.00312824 0)
(-4.62226 -0.00486321 1.80927e-20)
(-4.59418 -0.0117309 0)
(-4.55609 -0.0173964 0)
(-4.50962 -0.0219529 -1.76949e-20)
(-4.4564 -0.0254707 -1.75781e-20)
(-4.39788 -0.0280811 0)
(-4.33528 -0.0299749 1.73595e-20)
(-4.26952 -0.0313446 -1.72558e-20)
(-4.20116 -0.0324193 0)
(-4.13043 -0.033415 1.70562e-20)
(-4.05718 -0.0345279 0)
(-3.98096 -0.0359382 0)
(-3.90105 -0.0377791 -1.67736e-20)
(-3.81653 -0.0401399 0)
(-3.72631 -0.043058 1.65973e-20)
(-3.62931 -0.0465138 0)
(-3.5245 -0.0504324 -1.6432e-20)
(-3.41102 -0.0546912 -1.63534e-20)
(-3.28828 -0.0591372 -1.62772e-20)
(-3.15596 -0.0635993 -3.24057e-20)
(-3.01409 -0.0679004 3.22594e-20)
(-2.86302 -0.0718735 0)
(-2.70339 -0.0753744 0)
(-2.53614 -0.0782881 0)
(-2.36238 -0.080539 3.16676e-20)
(-2.1834 -0.0820934 3.15095e-20)
(-2.00053 -0.0829471 -3.13442e-20)
(-1.81514 -0.0831188 0)
(-1.62848 -0.082656 3.09868e-20)
(-1.44165 -0.0816295 3.07928e-20)
(-1.25564 -0.0801278 3.05877e-20)
(-1.07133 -0.078249 0)
(-0.889414 -0.0760866 0)
(-0.710384 -0.0737412 0)
(-0.534601 -0.0712868 2.9655e-20)
(-0.362399 -0.0685882 0)
(-0.194185 -0.0657522 0)
(-0.0310494 -0.0624944 -2.88464e-20)
(0.126051 -0.0588515 0)
(0.276232 -0.0545712 0)
(0.417988 -0.0497019 -2.79336e-20)
(0.549831 -0.0443379 0)
(0.670557 -0.0386497 0)
(0.779363 -0.032852 2.69716e-20)
(0.875927 -0.0271623 2.66462e-20)
(0.960397 -0.0217674 0)
(1.03331 -0.0168009 -2.59946e-20)
(1.09549 -0.0123393 0)
(1.1479 -0.00840661 2.53474e-20)
(1.19156 -0.00498526 0)
(1.22747 -0.00204104 2.47085e-20)
(1.25653 0.000487868 2.43928e-20)
(1.27954 0.00264892 0)
(1.29721 0.00448199 0)
(1.31011 0.00606946 0)
(1.31872 0.00738358 0)
(1.32367 0.00847148 0)
(1.325 0.00949005 0)
(1.32314 0.0103517 0)
(1.31859 0.0109271 2.19637e-20)
(1.31179 0.0112179 -2.16715e-20)
(1.3032 0.0112832 0)
(1.29326 0.0111782 0)
(1.28233 0.0109409 0)
(1.27075 0.0106225 0)
(1.25877 0.0102593 -4.04916e-20)
(1.24659 0.00986484 0)
(1.23442 0.00944115 3.93821e-20)
(1.22243 0.00898735 -3.88337e-20)
(1.21078 0.00850174 0)
(1.19961 0.00798549 0)
(1.18906 0.00744494 0)
(1.1792 0.00689029 3.66815e-20)
(1.1701 0.00633332 3.61534e-20)
(1.16177 0.00578557 0)
(1.15423 0.00525743 3.51088e-20)
(1.14742 0.00475853 3.45921e-20)
(1.14131 0.00429603 -3.4079e-20)
(1.13584 0.00387296 0)
(1.13095 0.00348646 0)
(1.12657 0.00312981 -3.25607e-20)
(1.12265 0.00280902 0)
(1.11915 0.00252382 0)
(1.116 0.00227445 0)
(1.11316 0.00205716 0)
(1.1106 0.00186315 3.00965e-20)
(1.10826 0.00168205 2.96131e-20)
(1.10612 0.00150753 0)
(1.10413 0.00133914 2.86552e-20)
(1.10227 0.0011817 0)
(1.10051 0.00104122 0)
(1.09881 0.000928313 2.72404e-20)
(1.09716 0.000845692 0)
(1.0955 0.000788484 2.63112e-20)
(1.09381 0.000755195 0)
(1.092 0.000750651 0)
(1.09007 0.000770524 2.49379e-20)
(1.08788 0.000816814 0)
(1.08549 0.0008848 2.40356e-20)
(1.08264 0.000982876 0)
(1.07952 0.0011041 0)
(1.07562 0.00127122 0)
(1.07139 0.00146903 -2.22623e-20)
(1.06583 0.00174917 0)
(1.05988 0.00206658 2.13915e-20)
(1.05169 0.00254621 0)
(1.0429 0.00304427 0)
(1.0306 0.00391596 0)
(1.01648 0.00464342 0)
(0.998432 0.00643323 0)
(0.972131 0.00722241 0)
(0.949558 0.0116663 0)
(0.888436 0.0110687 -3.6071e-20)
(0.880646 0.0245591 0)
(0.706574 0.0147719 0)
(-0.0329821 0.337894 -5.30522e-20)
(-0.0928667 0.218032 5.26781e-20)
(-0.0405796 -0.0998553 0)
(0.0916998 -0.368115 -3.45981e-20)
(0.270116 -0.527536 0)
(0.4589 -0.604103 -1.70468e-20)
(0.647615 -0.625801 3.37713e-20)
(0.832206 -0.615037 3.34814e-20)
(1.01082 -0.587335 0)
(1.18247 -0.551109 3.28796e-20)
(1.34675 -0.509992 1.63119e-20)
(1.50275 -0.464915 0)
(1.64865 -0.415639 0)
(1.78172 -0.361564 0)
(1.89873 -0.302377 0)
(1.99705 -0.237995 1.55402e-20)
(2.07346 -0.169134 0)
(2.12707 -0.0965391 -3.04548e-20)
(2.15389 -0.0216484 0)
(2.15649 0.0539727 0)
(2.13417 0.129229 2.96968e-20)
(2.08882 0.199619 0)
(2.02061 0.266019 -2.92539e-20)
(1.93492 0.322616 1.45483e-20)
(1.83249 0.372638 -1.44448e-20)
(1.7183 0.414686 1.43418e-20)
(1.59883 0.440577 1.42379e-20)
(1.46567 0.473163 0)
(1.348 0.467542 0)
(1.21157 0.470537 -1.39071e-20)
(1.10726 0.46045 1.37908e-20)
(1.00274 0.342585 0)
(0.846616 0.243587 0)
(0.778933 0.162724 -1.34445e-20)
(0.719075 -0.0110212 0)
(0.69288 -0.284029 0)
(0.79031 -0.450955 1.30958e-20)
(0.994651 -0.434753 0)
(0.976619 -0.63797 -1.28631e-20)
(0.766333 -0.45057 2.55043e-20)
(0.364579 0.242354 0)
(-0.426943 0.673675 0)
(-1.06903 0.881134 4.93798e-20)
(-1.58907 1.09727 4.87756e-20)
(-2.08598 1.1994 4.82123e-20)
(-2.50158 1.19719 -2.36329e-20)
(-2.86018 1.10727 2.36866e-20)
(-3.15848 0.969498 6.96258e-20)
(-3.41589 0.825338 -4.5554e-20)
(-3.6394 0.697723 -2.25617e-20)
(-3.83618 0.58976 0)
(-4.01071 0.501626 2.17744e-20)
(-4.16703 0.430033 -2.11898e-20)
(-4.3074 0.371178 0)
(-4.43308 0.321269 0)
(-4.5446 0.27733 0)
(-4.64188 0.237125 2.005e-20)
(-4.72466 0.199137 0)
(-4.79259 0.162487 -3.88606e-20)
(-4.8455 0.12681 0)
(-4.88334 0.0921619 -3.79037e-20)
(-4.90627 0.0588903 0)
(-4.91478 0.0275515 3.70953e-20)
(-4.90972 -0.00135728 0)
(-4.89235 -0.0274924 -3.6415e-20)
(-4.86221 -0.0503691 1.80311e-20)
(-4.82157 -0.0699746 0)
(-4.77162 -0.0861925 3.55831e-20)
(-4.71405 -0.0991632 1.76873e-20)
(-4.6504 -0.109155 1.75708e-20)
(-4.58208 -0.116586 0)
(-4.51023 -0.121999 1.73344e-20)
(-4.43569 -0.126002 1.72494e-20)
(-4.35892 -0.129241 0)
(-4.28006 -0.132343 -1.70503e-20)
(-4.19886 -0.135883 3.38939e-20)
(-4.11479 -0.140357 0)
(-4.02705 -0.146141 1.67683e-20)
(-3.93467 -0.153477 0)
(-3.83656 -0.162453 -4.97582e-20)
(-3.73159 -0.172999 0)
(-3.61874 -0.184888 4.92604e-20)
(-3.49717 -0.197752 1.63487e-20)
(-3.3663 -0.211138 -1.62497e-20)
(-3.22586 -0.224542 -3.23503e-20)
(-3.07594 -0.237444 3.22043e-20)
(-2.91693 -0.249355 0)
(-2.74952 -0.259857 0)
(-2.57466 -0.268619 0)
(-2.39347 -0.275421 -9.49361e-20)
(-2.2072 -0.280166 -3.1501e-20)
(-2.01714 -0.282843 3.1336e-20)
(-1.82457 -0.283502 0)
(-1.63068 -0.282278 3.09496e-20)
(-1.43653 -0.279381 -3.07858e-20)
(-1.24304 -0.275078 -3.05813e-20)
(-1.05104 -0.269681 0)
(-0.861155 -0.263512 0)
(-0.673824 -0.256833 0)
(-0.489279 -0.249824 -2.9651e-20)
(-0.307762 -0.242498 0)
(-0.129554 -0.234652 5.82312e-20)
(0.0442969 -0.225816 8.65084e-20)
(0.212945 -0.215749 -5.7074e-20)
(0.375573 -0.203897 0)
(0.530432 -0.190269 -2.79156e-20)
(0.67601 -0.175099 0)
(0.81107 -0.158858 -5.45671e-20)
(0.934811 -0.142158 2.6957e-20)
(1.04694 -0.125627 2.66322e-20)
(1.14763 -0.10981 0)
(1.23745 -0.0951031 7.79544e-20)
(1.31723 -0.0817395 -5.13193e-20)
(1.38793 -0.0698026 -2.5339e-20)
(1.45058 -0.0592598 0)
(1.50615 -0.0500067 -2.46997e-20)
(1.55557 -0.0418938 -7.31482e-20)
(1.59967 -0.034768 0)
(1.63916 -0.028492 -4.75172e-20)
(1.67461 -0.0229197 -4.69017e-20)
(1.7066 -0.0179741 -4.62915e-20)
(1.73534 -0.0135768 0)
(1.76135 -0.00959693 0)
(1.78494 -0.00604781 0)
(1.80621 -0.00299701 2.19504e-20)
(1.82529 -0.000441199 2.16593e-20)
(1.84225 0.00165124 0)
(1.85726 0.00330848 4.21621e-20)
(1.87044 0.00457969 4.15913e-20)
(1.88204 0.00550852 0)
(1.89232 0.00613342 4.04642e-20)
(1.90157 0.00649235 7.98127e-20)
(1.91006 0.00661695 -3.9354e-20)
(1.91807 0.00653632 -3.88046e-20)
(1.92583 0.00628285 0)
(1.93354 0.00589202 0)
(1.94137 0.00540049 0)
(1.9494 0.00484509 -3.66527e-20)
(1.95771 0.00426046 3.61244e-20)
(1.96629 0.00367668 7.12007e-20)
(1.97513 0.00311831 -3.508e-20)
(1.98417 0.00260247 3.45634e-20)
(1.99336 0.00213772 3.40505e-20)
(2.00262 0.0017252 0)
(2.01189 0.00136409 0)
(2.02112 0.00106322 -3.25328e-20)
(2.03028 0.000804107 0)
(2.03931 0.000580874 0)
(2.04818 0.000387568 6.20908e-20)
(2.05686 0.000221459 0)
(2.06534 8.58047e-05 3.00699e-20)
(2.07359 -1.28109e-05 -2.95868e-20)
(2.08157 -7.10393e-05 0)
(2.08924 -9.22158e-05 2.86297e-20)
(2.09655 -8.51159e-05 0)
(2.10346 -5.79511e-05 0)
(2.10997 -1.90023e-05 -2.72161e-20)
(2.11606 3.29837e-05 5.3501e-20)
(2.1217 0.000106411 -2.62878e-20)
(2.12688 0.000203156 0)
(2.13156 0.000324979 0)
(2.13573 0.000475586 2.49156e-20)
(2.13933 0.000665461 0)
(2.14237 0.000890997 2.40142e-20)
(2.14473 0.001179 0)
(2.14649 0.0015088 0)
(2.1474 0.00195112 0)
(2.14766 0.00242705 2.22428e-20)
(2.14681 0.00313064 0)
(2.14517 0.00380785 -2.13729e-20)
(2.14205 0.00500623 0)
(2.13767 0.00594155 0)
(2.13164 0.00816863 4.01766e-20)
(2.12253 0.00933106 -3.93327e-20)
(2.1131 0.0138819 0)
(2.09402 0.0148655 0)
(2.0829 0.0250484 0)
(2.03871 0.024168 1.08102e-19)
(2.03695 0.0485813 0)
(1.92447 0.0416509 -6.88739e-20)
(-0.0277313 0.403675 1.82111e-23)
(0.00486244 0.132196 -7.02115e-20)
(0.168179 -0.376194 0)
(0.354915 -0.733956 6.90789e-20)
(0.537539 -0.916835 0)
(0.704851 -0.97978 0)
(0.860724 -0.976919 -6.20468e-23)
(1.01158 -0.943954 -3.34465e-20)
(1.16209 -0.899626 -3.30776e-20)
(1.31461 -0.850766 -3.28501e-20)
(1.46864 -0.797655 0)
(1.62112 -0.737809 0)
(1.76771 -0.668562 3.1824e-20)
(1.90379 -0.588089 6.30165e-20)
(2.02475 -0.495731 -6.23962e-20)
(2.12662 -0.392187 0)
(2.20585 -0.279104 -6.12145e-20)
(2.25992 -0.158914 3.04404e-20)
(2.28641 -0.0350687 0)
(2.28408 0.0891402 -5.96418e-20)
(2.25276 0.208741 -2.9684e-20)
(2.19251 0.320893 5.87261e-20)
(2.10734 0.418503 2.92405e-20)
(2.00269 0.499254 0)
(1.88353 0.564098 -5.75353e-20)
(1.76362 0.604624 -5.71553e-20)
(1.63773 0.641355 0)
(1.52657 0.646659 -5.63818e-20)
(1.4228 0.652213 0)
(1.31943 0.639103 -5.55751e-20)
(1.24425 0.539683 -2.75631e-20)
(1.14419 0.519841 0)
(1.0908 0.315859 0)
(0.975605 0.0576328 0)
(0.943641 0.0785652 0)
(1.08548 -0.127907 0)
(0.942279 -0.625473 0)
(0.599935 -0.308222 -5.20171e-20)
(-0.0980429 0.559975 7.72754e-20)
(-0.830456 1.00847 0)
(-1.3562 1.2976 0)
(-1.87512 1.45523 0)
(-2.29867 1.59633 -1.7766e-22)
(-2.66592 1.69284 -4.86215e-20)
(-2.9475 1.68753 -9.58185e-20)
(-3.15948 1.59337 9.46164e-20)
(-3.32381 1.43658 4.64422e-20)
(-3.46709 1.25802 -4.62343e-20)
(-3.60206 1.08503 4.30185e-22)
(-3.73524 0.933507 -4.439e-20)
(-3.86644 0.805887 0)
(-3.99644 0.700806 -4.29963e-20)
(-4.12316 0.61362 2.6676e-22)
(-4.24506 0.539357 0)
(-4.35956 0.473571 0)
(-4.46456 0.412811 4.03713e-20)
(-4.55782 0.354719 0)
(-4.63759 0.297897 0)
(-4.70244 0.241787 -3.85299e-20)
(-4.75154 0.186431 -7.64226e-20)
(-4.7845 0.132279 3.79092e-20)
(-4.80127 0.0799569 0)
(-4.80245 0.0301799 -3.71037e-20)
(-4.78944 -0.0161008 0)
(-4.76334 -0.0580339 -3.62277e-20)
(-4.72552 -0.0950173 -3.61219e-20)
(-4.67775 -0.126409 7.15473e-20)
(-4.62177 -0.152156 3.5468e-20)
(-4.55934 -0.172417 0)
(-4.49206 -0.1877 -7.01583e-20)
(-4.42133 -0.198762 0)
(-4.34825 -0.206551 -1.04019e-19)
(-4.27356 -0.212149 -6.89249e-20)
(-4.19761 -0.216661 -6.85287e-20)
(-4.12036 -0.221152 6.81373e-20)
(-4.04142 -0.226582 -1.01649e-19)
(-3.96007 -0.233748 0)
(-3.87534 -0.243253 0)
(-3.78613 -0.255463 6.66306e-20)
(-3.69121 -0.270491 9.94434e-20)
(-3.5894 -0.288192 0)
(-3.47959 -0.308155 -3.28342e-20)
(-3.36092 -0.329734 0)
(-3.23285 -0.352126 9.74918e-20)
(-3.09516 -0.374456 7.48681e-23)
(-2.94806 -0.395841 -7.478e-23)
(-2.79205 -0.415461 -6.40867e-20)
(-2.62797 -0.432631 0)
(-2.45684 -0.446831 6.35038e-20)
(-2.27991 -0.457734 6.65401e-23)
(-2.09848 -0.465233 0)
(-1.91387 -0.469374 0)
(-1.72737 -0.470267 0)
(-1.54011 -0.468125 -6.19192e-20)
(-1.353 -0.463282 0)
(-1.16679 -0.456148 0)
(-0.982092 -0.447186 0)
(-0.799338 -0.436945 0)
(-0.618698 -0.425881 0)
(-0.44013 -0.414379 -5.92418e-20)
(-0.263584 -0.40249 0)
(-0.0890114 -0.389814 -5.82199e-20)
(0.0825618 -0.375879 -5.76534e-20)
(0.250208 -0.359393 5.70575e-20)
(0.412768 -0.339959 0)
(0.567901 -0.317431 5.58262e-20)
(0.713607 -0.292224 0)
(0.848284 -0.265213 5.45547e-20)
(0.970989 -0.237504 -5.39092e-20)
(1.08149 -0.210202 -1.59759e-19)
(1.18018 -0.184229 0)
(1.26787 -0.160236 -1.55863e-19)
(1.34559 -0.138589 -5.12964e-20)
(1.41446 -0.11941 0)
(1.47557 -0.102644 -1.00041e-19)
(1.5299 -0.0881199 -9.87705e-20)
(1.57832 -0.0756059 1.4627e-19)
(1.62163 -0.0648456 0)
(1.66054 -0.0555672 4.75138e-20)
(1.6957 -0.0475278 4.68986e-20)
(1.72776 -0.0404994 1.38859e-19)
(1.75724 -0.0342916 0)
(1.78459 -0.0287993 0)
(1.81016 -0.023926 0)
(1.83418 -0.0196065 4.38957e-20)
(1.85674 -0.0158066 0)
(1.87788 -0.0125054 0)
(1.89761 -0.00969291 -4.216e-20)
(1.91603 -0.00734931 -4.15891e-20)
(1.93322 -0.00547152 0)
(1.94929 -0.00405716 0)
(1.96444 -0.00309363 -7.98073e-20)
(1.97886 -0.00255361 0)
(1.99279 -0.00240112 7.76039e-20)
(2.00645 -0.00259129 7.65136e-20)
(2.02005 -0.00306106 0)
(2.03375 -0.00373485 0)
(2.04766 -0.00453475 -7.32965e-20)
(2.06188 -0.00538596 -6.40901e-25)
(2.07641 -0.00622296 -5.39874e-25)
(2.09125 -0.00699398 0)
(2.10636 -0.00766351 -1.38235e-19)
(2.12167 -0.00821317 0)
(2.13711 -0.00864064 0)
(2.15262 -0.00895253 0)
(2.16812 -0.0091498 6.50554e-20)
(2.18353 -0.00926005 0)
(2.19882 -0.00929547 -1.2613e-19)
(2.21397 -0.00926715 -6.20801e-20)
(2.22893 -0.00918566 0)
(2.24368 -0.00905776 -6.01289e-20)
(2.25819 -0.00888508 0)
(2.27244 -0.0086663 0)
(2.28641 -0.00840095 -1.71744e-19)
(2.30009 -0.00809103 1.126e-19)
(2.31348 -0.00773585 0)
(2.32652 -0.00734114 1.08841e-19)
(2.33918 -0.00691414 -5.34896e-20)
(2.35142 -0.00645125 0)
(2.36319 -0.00595063 0)
(2.37446 -0.00540978 0)
(2.38519 -0.00482466 -1.4946e-19)
(2.39531 -0.0041757 0)
(2.40475 -0.00347897 -4.80173e-20)
(2.41346 -0.00270479 0)
(2.42138 -0.00189483 0)
(2.42851 -0.000948554 0)
(2.43471 1.9979e-05 0)
(2.44011 0.00128527 0)
(2.44433 0.00249543 0)
(2.44784 0.00438912 -8.37408e-20)
(2.44956 0.00593825 0)
(2.45105 0.00913068 -4.01656e-20)
(2.4492 0.0110759 1.17958e-19)
(2.44878 0.0170946 0)
(2.44091 0.0193053 0)
(2.43969 0.0316933 -7.36488e-20)
(2.42013 0.0334854 -7.20392e-20)
(2.42211 0.0602974 7.04022e-20)
(2.37941 0.0613534 6.88483e-20)
(-0.0329497 0.382342 1.05996e-19)
(0.129891 -0.194186 1.05228e-19)
(0.364427 -0.809844 6.95204e-20)
(0.560535 -1.14113 3.44289e-20)
(0.714225 -1.25983 0)
(0.844571 -1.27323 -6.77395e-20)
(0.970118 -1.24914 3.35043e-20)
(1.10282 -1.21793 0)
(1.24761 -1.18727 3.30539e-20)
(1.40365 -1.15343 0)
(1.56629 -1.1088 -6.46392e-20)
(1.72868 -1.04663 0)
(1.88383 -0.96279 -3.17994e-20)
(2.02559 -0.85605 -6.29698e-20)
(2.14933 -0.727755 6.23532e-20)
(2.25188 -0.58064 0)
(2.331 -0.418224 6.11811e-20)
(2.38495 -0.244375 0)
(2.41164 -0.0633119 0)
(2.40934 0.118747 5.96178e-20)
(2.37517 0.296616 0)
(2.30618 0.461379 -2.88004e-22)
(2.20446 0.605356 0)
(2.07493 0.721838 0)
(1.92701 0.7995 1.8077e-22)
(1.7682 0.852561 5.71336e-20)
(1.61723 0.864782 5.66527e-20)
(1.47098 0.853219 5.63721e-20)
(1.33211 0.832692 0)
(1.23479 0.765517 1.1114e-19)
(1.10183 0.742916 0)
(1.03384 0.584065 5.4787e-20)
(0.942419 0.499137 0)
(0.764938 0.409664 0)
(0.751177 -0.214345 -5.35592e-20)
(0.662921 -0.310324 0)
(-0.019149 0.491386 5.2574e-20)
(-0.745255 1.10775 9.79746e-24)
(-1.32353 1.50396 -1.02626e-19)
(-1.79753 1.72842 1.01251e-19)
(-2.18433 1.9095 0)
(-2.52294 2.01083 0)
(-2.79419 2.06597 4.83209e-20)
(-3.00797 2.03921 0)
(-3.16146 1.9393 4.76895e-20)
(-3.27853 1.7826 -4.70661e-20)
(-3.37448 1.59896 -4.64242e-20)
(-3.46652 1.41385 0)
(-3.55848 1.24333 4.50785e-20)
(-3.6556 1.0953 4.43858e-20)
(-3.7574 0.970087 -8.66857e-20)
(-3.86427 0.864754 4.29972e-20)
(-3.97298 0.774035 4.23142e-20)
(-4.08065 0.692495 0)
(-4.1834 0.615477 0)
(-4.27791 0.539648 -4.03788e-20)
(-4.36108 0.463197 0)
(-4.43052 0.385597 0)
(-4.48445 0.307288 7.74182e-20)
(-4.52187 0.229301 7.64515e-20)
(-4.54268 0.15296 0)
(-4.54751 0.0796564 0)
(-4.53726 0.0106526 0)
(-4.51314 -0.0528597 0)
(-4.47694 -0.109518 7.26828e-20)
(-4.43063 -0.158633 -7.18948e-20)
(-4.37604 -0.199778 -7.15793e-20)
(-4.31506 -0.232901 -1.42024e-19)
(-4.24943 -0.258384 0)
(-4.18072 -0.277008 1.03829e-22)
(-4.11028 -0.289924 0)
(-4.03909 -0.298545 6.93555e-20)
(-3.96771 -0.304416 6.2408e-23)
(-3.89626 -0.309098 6.85555e-20)
(-3.82442 -0.314078 -6.8163e-20)
(-3.75152 -0.32069 5.61979e-23)
(-3.67659 -0.33004 0)
(-3.59843 -0.342939 -6.69528e-20)
(-3.51571 -0.359853 -6.66507e-20)
(-3.42708 -0.380873 -1.3251e-19)
(-3.33123 -0.405724 0)
(-3.22706 -0.433773 6.55256e-20)
(-3.11375 -0.464063 0)
(-2.99084 -0.495399 -1.29867e-19)
(-2.85821 -0.526486 6.46796e-20)
(-2.71613 -0.55604 -6.43846e-20)
(-2.56517 -0.582885 6.40933e-20)
(-2.40618 -0.60606 1.27414e-19)
(-2.24018 -0.624871 -6.35078e-20)
(-2.06841 -0.638931 6.32066e-20)
(-1.89233 -0.648203 0)