/*--------------------------------*- C++ -*----------------------------------*\
  =========                 |
  \\      /  F ield         | OpenFOAM: The Open Source CFD Toolbox
   \\    /   O peration     | Website:  https://openfoam.org
    \\  /    A nd           | Version:  7
     \\/     M anipulation  |
\*---------------------------------------------------------------------------*/
FoamFile
{
    version     2.0;
    format      ascii;
    class       volVectorField;
    location    "0.057";
    object      UMean;
}
// * * * * * * * * * * * * * * * * * * * * * * * * * * * * * * * * * * * * * //

dimensions      [0 1 -1 0 0 0 0];

internalField   nonuniform List<vector> 
12225
(
(4.77563 0.164605 0)
(4.18108 0.11162 0)
(3.7205 0.0981445 0)
(3.35231 0.0813977 0)
(3.02208 0.0679756 0)
(2.71562 0.0580485 0)
(2.43379 0.0494709 0)
(2.18035 0.0415039 0)
(1.95853 0.0331603 0)
(1.76837 0.0257546 0)
(1.6121 0.0173864 0)
(1.48501 0.0120972 0)
(1.39005 0.00354536 0)
(1.31693 0.003619 0)
(1.2689 -0.00838952 0)
(1.23777 0.00275264 0)
(1.22162 -0.0249432 0)
(1.2323 -0.000794299 0)
(5.01957 0.11299 0)
(4.8736 0.0732791 0)
(4.75625 0.0892367 0)
(4.66714 0.0885688 0)
(4.57494 0.0868367 0)
(4.47187 0.0869398 0)
(4.35964 0.0869371 0)
(4.24396 0.0848532 0)
(4.12708 0.0812694 0)
(4.01453 0.0749037 0)
(3.90495 0.068366 0)
(3.80599 0.0585925 0)
(3.71032 0.0517628 0)
(3.63156 0.0398113 0)
(3.55049 0.0362388 0)
(3.49486 0.0206371 0)
(3.42676 0.0194631 0)
(3.39063 -0.0126379 0)
(4.99718 0.17267 0)
(4.87825 0.122762 0)
(4.79959 0.130639 0)
(4.76868 0.124785 0)
(4.75314 0.117281 0)
(4.73762 0.113573 0)
(4.71975 0.111163 0)
(4.70022 0.108326 0)
(4.67929 0.103306 0)
(4.6565 0.097363 0)
(4.63202 0.0886081 0)
(4.60554 0.0807956 0)
(4.57879 0.0696067 0)
(4.55092 0.0627799 0)
(4.52568 0.0502846 0)
(4.49948 0.0448275 0)
(4.47967 0.0286501 0)
(4.4541 0.0111949 0)
(4.99492 0.189311 0)
(4.89945 0.120416 0)
(4.82286 0.118978 0)
(4.78854 0.114599 0)
(4.77552 0.10723 0)
(4.76798 0.102799 0)
(4.76269 0.100851 0)
(4.76024 0.0986442 0)
(4.76061 0.0952793 0)
(4.76259 0.0899807 0)
(4.7651 0.0838178 0)
(4.76692 0.075948 0)
(4.76844 0.0685133 0)
(4.76875 0.0595218 0)
(4.77032 0.0519172 0)
(4.77057 0.041657 0)
(4.7749 0.0303571 0)
(4.77448 0.0139753 0)
(4.99447 0.214285 0)
(4.92247 0.144033 0)
(4.85398 0.134967 0)
(4.8178 0.130248 0)
(4.80285 0.121122 0)
(4.79454 0.113547 0)
(4.78874 0.108578 0)
(4.78591 0.104412 0)
(4.78662 0.0992841 0)
(4.78995 0.0931399 0)
(4.79498 0.0857023 0)
(4.8004 0.077833 0)
(4.80629 0.06912 0)
(4.81203 0.0604541 0)
(4.81878 0.0511163 0)
(4.82563 0.0406379 0)
(4.83415 0.0286116 0)
(4.84075 0.011071 0)
(4.9943 0.229774 0)
(4.94081 0.158777 0)
(4.88134 0.140831 0)
(4.84547 0.133953 0)
(4.82988 0.123767 0)
(4.82218 0.11412 0)
(4.81703 0.107196 0)
(4.81424 0.101662 0)
(4.81448 0.0959263 0)
(4.81723 0.089225 0)
(4.82164 0.0816889 0)
(4.82665 0.0734168 0)
(4.83218 0.0647631 0)
(4.83774 0.0556315 0)
(4.84415 0.045956 0)
(4.85058 0.0351584 0)
(4.85798 0.0223562 0)
(4.86364 0.00660282 0)
(4.99413 0.244006 0)
(4.95526 0.175227 0)
(4.90575 0.15047 0)
(4.87199 0.140672 0)
(4.85602 0.12974 0)
(4.84863 0.11875 0)
(4.84408 0.109961 0)
(4.84149 0.102922 0)
(4.84148 0.0961571 0)
(4.84381 0.0888396 0)
(4.84783 0.0808537 0)
(4.85253 0.0722997 0)
(4.85777 0.0633324 0)
(4.86299 0.0538059 0)
(4.86883 0.0437381 0)
(4.87428 0.0324446 0)
(4.88032 0.0197783 0)
(4.88418 0.0049447 0)
(5.00038 0.254412 0)
(4.97217 0.189201 0)
(4.93173 0.159354 0)
(4.90086 0.14599 0)
(4.88499 0.134216 0)
(4.87806 0.122197 0)
(4.87435 0.111737 0)
(4.87218 0.103051 0)
(4.8719 0.095125 0)
(4.87358 0.087043 0)
(4.8769 0.0785221 0)
(4.881 0.0695648 0)
(4.88573 0.0602481 0)
(4.89041 0.0504618 0)
(4.89558 0.0400939 0)
(4.90009 0.0287737 0)
(4.90492 0.016391 0)
(4.9074 0.00259026 0)
(5.00128 0.262265 0)
(4.98245 0.201984 0)
(4.95029 0.168808 0)
(4.92287 0.151537 0)
(4.90754 0.138217 0)
(4.90094 0.125206 0)
(4.89794 0.113448 0)
(4.89637 0.103468 0)
(4.89629 0.0945917 0)
(4.89785 0.0859158 0)
(4.90097 0.0769871 0)
(4.90495 0.0676738 0)
(4.90956 0.0580439 0)
(4.91407 0.0480065 0)
(4.91884 0.0375139 0)
(4.92278 0.0263047 0)
(4.92677 0.0143858 0)
(4.92857 0.00163136 0)
(4.99659 0.268094 0)
(4.98507 0.212774 0)
(4.96078 0.177731 0)
(4.93791 0.157236 0)
(4.92406 0.142331 0)
(4.91788 0.128513 0)
(4.91535 0.11569 0)
(4.91427 0.10439 0)
(4.91445 0.09431 0)
(4.91608 0.0847383 0)
(4.91913 0.0751831 0)
(4.92296 0.0654511 0)
(4.9273 0.055526 0)
(4.93148 0.0453371 0)
(4.9357 0.034841 0)
(4.93911 0.0238945 0)
(4.94235 0.012537 0)
(4.94379 0.000785772 0)
(4.98905 0.271381 0)
(4.98179 0.220671 0)
(4.9629 0.184761 0)
(4.94358 0.161484 0)
(4.93111 0.144614 0)
(4.92547 0.12984 0)
(4.92363 0.116227 0)
(4.92334 0.103969 0)
(4.92402 0.0929645 0)
(4.92572 0.0826773 0)
(4.92856 0.0726408 0)
(4.93208 0.062611 0)
(4.93609 0.0525154 0)
(4.93992 0.0422888 0)
(4.94376 0.0318927 0)
(4.94674 0.0212515 0)
(4.94962 0.0104334 0)
(4.95077 -0.000495327 0)
(5.00171 0.274992 0)
(4.99593 0.22795 0)
(4.98026 0.192158 0)
(4.96337 0.167121 0)
(4.95163 0.148517 0)
(4.94577 0.13265 0)
(4.94368 0.118172 0)
(4.94332 0.105027 0)
(4.9439 0.0931313 0)
(4.94528 0.0821158 0)
(4.94758 0.0715583 0)
(4.95046 0.061181 0)
(4.95386 0.0508687 0)
(4.95714 0.0405746 0)
(4.96054 0.0302648 0)
(4.96313 0.0199308 0)
(4.96573 0.0096061 0)
(4.96671 -0.00059104 0)
(5.00284 0.278121 0)
(4.9999 0.233139 0)
(4.98783 0.19754 0)
(4.974 0.170948 0)
(4.96409 0.150518 0)
(4.95909 0.133414 0)
(4.95747 0.11815 0)
(4.95749 0.104343 0)
(4.95835 0.0918155 0)
(4.95978 0.080266 0)
(4.96188 0.0693068 0)
(4.96435 0.0586565 0)
(4.96724 0.0481742 0)
(4.96993 0.037813 0)
(4.97278 0.0275622 0)
(4.97482 0.0174485 0)
(4.97708 0.0075087 0)
(4.97772 -0.00214877 0)
(5.01223 0.281074 0)
(5.01299 0.239171 0)
(5.00551 0.204264 0)
(4.99536 0.176624 0)
(4.98746 0.15462 0)
(4.98315 0.136189 0)
(4.98173 0.119937 0)
(4.98203 0.105273 0)
(4.98332 0.0919846 0)
(4.98519 0.0798171 0)
(4.98761 0.0684457 0)
(4.99024 0.0575633 0)
(4.99317 0.0469816 0)
(4.99579 0.0366266 0)
(4.99851 0.0264976 0)
(5.00034 0.0166355 0)
(5.0024 0.00708702 0)
(5.00285 -0.00204332 0)
(5.00835 0.279565 0)
(5.01203 0.240897 0)
(5.00819 0.20702 0)
(5.00172 0.178929 0)
(4.99683 0.155838 0)
(4.99465 0.136276 0)
(4.99463 0.11904 0)
(4.99586 0.103518 0)
(4.99779 0.0894475 0)
(5.00014 0.0766169 0)
(5.00292 0.0647573 0)
(5.00586 0.0536002 0)
(5.00901 0.0429518 0)
(5.01186 0.0327174 0)
(5.01469 0.0228628 0)
(5.01677 0.0134149 0)
(5.01894 0.00438231 0)
(5.0199 -0.00414913 0)
(5.00815 0.281876 0)
(5.01242 0.24509 0)
(5.01071 0.211773 0)
(5.00715 0.183031 0)
(5.00516 0.158675 0)
(5.00527 0.137851 0)
(5.00686 0.119643 0)
(5.00925 0.103403 0)
(5.01208 0.0887501 0)
(5.0151 0.0754154 0)
(5.0183 0.0631482 0)
(5.02146 0.0517384 0)
(5.02464 0.0410052 0)
(5.02749 0.0308661 0)
(5.03024 0.021231 0)
(5.03234 0.0121291 0)
(5.03447 0.00348269 0)
(5.03561 -0.00458079 0)
(5.00236 0.279171 0)
(5.00732 0.242594 0)
(5.00758 0.209352 0)
(5.00671 0.180209 0)
(5.00738 0.15505 0)
(5.00976 0.133304 0)
(5.01313 0.114267 0)
(5.01692 0.0973706 0)
(5.02092 0.082224 0)
(5.02493 0.068557 0)
(5.02892 0.0561245 0)
(5.0327 0.0447189 0)
(5.03634 0.034139 0)
(5.03957 0.0242675 0)
(5.04266 0.0149871 0)
(5.04513 0.00629544 0)
(5.04767 -0.00189906 0)
(5.04929 -0.0095202 0)
(5.00896 0.283187 0)
(5.01544 0.245019 0)
(5.01808 0.210901 0)
(5.01997 0.180795 0)
(5.02346 0.154437 0)
(5.02839 0.131463 0)
(5.03387 0.111436 0)
(5.03929 0.0939147 0)
(5.04452 0.0784853 0)
(5.04945 0.0647871 0)
(5.05414 0.0524951 0)
(5.05846 0.0413645 0)
(5.06252 0.0311638 0)
(5.06608 0.0217692 0)
(5.06944 0.0130204 0)
(5.07213 0.00492203 0)
(5.07486 -0.00268022 0)
(5.07663 -0.00965504 0)
(5.00311 0.276497 0)
(5.01298 0.236826 0)
(5.01979 0.200638 0)
(5.02611 0.168903 0)
(5.03393 0.141602 0)
(5.04272 0.118113 0)
(5.05138 0.0977279 0)
(5.05936 0.0798804 0)
(5.06666 0.0641545 0)
(5.07335 0.0502385 0)
(5.07956 0.0378487 0)
(5.08522 0.0267461 0)
(5.09043 0.0166921 0)
(5.095 0.00753262 0)
(5.09921 -0.000909765 0)
(5.10271 -0.00867846 0)
(5.10611 -0.0159303 0)
(5.10865 -0.0225978 0)
(5.00297 0.274403 0)
(5.01328 0.230108 0)
(5.02255 0.190168 0)
(5.03278 0.156149 0)
(5.04472 0.128067 0)
(5.05703 0.10494 0)
(5.06834 0.0856063 0)
(5.07828 0.0691474 0)
(5.08709 0.0549256 0)
(5.09508 0.0425182 0)
(5.10244 0.0315913 0)
(5.10915 0.0218888 0)
(5.11528 0.0131637 0)
(5.12068 0.00527463 0)
(5.12561 -0.00195864 0)
(5.1298 -0.00856385 0)
(5.13373 -0.0147253 0)
(5.1368 -0.020353 0)
(4.9971 0.272312 0)
(5.01042 0.220401 0)
(5.02486 0.176007 0)
(5.04114 0.139978 0)
(5.05845 0.111051 0)
(5.0749 0.0872721 0)
(5.08937 0.0671132 0)
(5.10185 0.0497676 0)
(5.11278 0.0348553 0)
(5.12246 0.0220877 0)
(5.13109 0.0111053 0)
(5.13863 0.00154693 0)
(5.14526 -0.00691391 0)
(5.15093 -0.0144805 0)
(5.156 -0.0213357 0)
(5.16023 -0.0275389 0)
(5.16421 -0.0332312 0)
(5.16729 -0.0383808 0)
(5.0047 0.266392 0)
(5.02281 0.20475 0)
(5.04415 0.156703 0)
(5.06688 0.121621 0)
(5.08856 0.0959297 0)
(5.10738 0.0759608 0)
(5.1232 0.0593872 0)
(5.13687 0.0451955 0)
(5.14919 0.0330017 0)
(5.16033 0.0225315 0)
(5.1703 0.0134452 0)
(5.17897 0.00543724 0)
(5.18652 -0.00175322 0)
(5.19296 -0.00825881 0)
(5.19866 -0.0142189 0)
(5.20344 -0.0196555 0)
(5.20789 -0.0247249 0)
(5.21137 -0.0293687 0)
(5.00094 0.260197 0)
(5.02818 0.187063 0)
(5.06062 0.133779 0)
(5.09275 0.0969563 0)
(5.12075 0.0699538 0)
(5.14335 0.0480893 0)
(5.16151 0.0296735 0)
(5.17681 0.014541 0)
(5.19021 0.00246095 0)
(5.20195 -0.0072109 0)
(5.21211 -0.0152294 0)
(5.22075 -0.0221526 0)
(5.2282 -0.0283027 0)
(5.23455 -0.0338278 0)
(5.24021 -0.0388438 0)
(5.24494 -0.0434038 0)
(5.24928 -0.04761 0)
(5.25259 -0.0514517 0)
(5.00636 0.245047 0)
(5.04298 0.164249 0)
(5.08679 0.11493 0)
(5.12631 0.0870705 0)
(5.15714 0.0680148 0)
(5.18063 0.0512259 0)
(5.20014 0.0360664 0)
(5.21776 0.0232564 0)
(5.23378 0.0128555 0)
(5.24773 0.00427166 0)
(5.25951 -0.00314224 0)
(5.26931 -0.00974387 0)
(5.27765 -0.0156795 0)
(5.28474 -0.0209881 0)
(5.29095 -0.0257615 0)
(5.2961 -0.0300467 0)
(5.30071 -0.0339836 0)
(5.30426 -0.0375586 0)
(5.00564 0.227865 0)
(5.05868 0.126056 0)
(5.12069 0.0715726 0)
(5.17019 0.0435736 0)
(5.20388 0.0235762 0)
(5.22781 0.00601185 0)
(5.24789 -0.00806985 0)
(5.2662 -0.0181436 0)
(5.28254 -0.0253652 0)
(5.2964 -0.0311515 0)
(5.30789 -0.0362621 0)
(5.31742 -0.0408863 0)
(5.32557 -0.0450307 0)
(5.33247 -0.0487237 0)
(5.33849 -0.0520473 0)
(5.34342 -0.0550787 0)
(5.34782 -0.0578947 0)
(5.35116 -0.0605258 0)
(5.01651 0.212206 0)
(5.09162 0.112632 0)
(5.17155 0.0771162 0)
(5.22773 0.0608424 0)
(5.26254 0.042717 0)
(5.28791 0.0245094 0)
(5.31067 0.0101566 0)
(5.33144 0.000107876 0)
(5.34911 -0.00729473 0)
(5.36338 -0.0134645 0)
(5.37493 -0.0189515 0)
(5.38449 -0.0238404 0)
(5.39265 -0.0281566 0)
(5.39953 -0.0319732 0)
(5.40544 -0.0354069 0)
(5.41024 -0.0385298 0)
(5.41446 -0.0414347 0)
(5.41768 -0.0441252 0)
(5.00651 0.158964 0)
(5.12079 0.0341807 0)
(5.21966 0.00626906 0)
(5.27646 -0.00322226 0)
(5.30861 -0.0172555 0)
(5.33428 -0.0294926 0)
(5.3587 -0.0370528 0)
(5.38079 -0.0417427 0)
(5.39919 -0.0455105 0)
(5.41396 -0.0490124 0)
(5.42601 -0.0522076 0)
(5.43608 -0.0550151 0)
(5.44471 -0.0574538 0)
(5.45201 -0.0596167 0)
(5.45833 -0.0615746 0)
(5.46354 -0.0634044 0)
(5.46818 -0.0651434 0)
(5.47179 -0.0668381 0)
(5.01313 0.152482 0)
(5.1756 0.0578012 0)
(5.29863 0.0439354 0)
(5.35828 0.0275155 0)
(5.39068 0.0082858 0)
(5.41867 -0.00541528 0)
(5.44505 -0.0135009 0)
(5.46781 -0.0190335 0)
(5.4861 -0.0237362 0)
(5.50052 -0.0279859 0)
(5.51207 -0.0317358 0)
(5.52147 -0.0350372 0)
(5.52918 -0.0379519 0)
(5.53542 -0.0406104 0)
(5.54039 -0.0430265 0)
(5.54415 -0.0453161 0)
(5.54694 -0.0474517 0)
(5.54867 -0.0495517 0)
(5.01565 0.019357 0)
(5.2275 -0.0516766 0)
(5.35336 -0.0345423 0)
(5.40657 -0.0430728 0)
(5.43599 -0.0531265 0)
(5.45901 -0.0576184 0)
(5.47632 -0.0593165 0)
(5.48645 -0.0605706 0)
(5.48948 -0.0618668 0)
(5.48664 -0.0630834 0)
(5.47914 -0.0641123 0)
(5.46813 -0.0649935 0)
(5.45411 -0.0657416 0)
(5.43788 -0.0664289 0)
(5.41935 -0.0670109 0)
(5.39955 -0.0675726 0)
(5.3777 -0.0680522 0)
(5.35563 -0.0685956 0)
(4.96689 0.0697894 0)
(5.10207 -0.000857213 0)
(5.07319 -0.000971637 0)
(4.95847 -0.0112515 0)
(4.83056 -0.0188547 0)
(4.70611 -0.0218523 0)
(4.58527 -0.0230288 0)
(4.46633 -0.0237886 0)
(4.3489 -0.0243249 0)
(4.23373 -0.024617 0)
(4.12159 -0.0247118 0)
(4.01314 -0.0246907 0)
(3.9083 -0.0245995 0)
(3.80745 -0.0244701 0)
(3.7099 -0.0242893 0)
(3.61659 -0.024095 0)
(3.52586 -0.0238645 0)
(3.44013 -0.023704 0)
(-0.00538377 -0.000889464 1.61433e-21)
(0.00839714 -0.0318629 -1.60442e-21)
(0.0474486 -0.0541516 0)
(0.0968301 -0.0649838 0)
(0.151386 -0.0689104 0)
(0.207273 -0.0690778 1.55322e-21)
(0.262626 -0.0671838 0)
(0.316555 -0.0642214 0)
(0.368445 -0.0606586 0)
(0.417827 -0.0566284 0)
(0.464193 -0.0520564 -1.45793e-21)
(0.506853 -0.0467574 0)
(0.544834 -0.0405095 0)
(0.576932 -0.0330998 0)
(0.601657 -0.0243544 0)
(0.617421 -0.0141732 -1.34544e-21)
(0.622484 -0.00249859 0)
(0.615364 0.0106148 0)
(0.594709 0.0250543 0)
(0.558461 0.0404694 0)
(0.506043 0.0562008 0)
(0.437507 0.0713995 0)
(0.353786 0.0850276 0)
(0.256642 0.0959201 -1.2549e-21)
(0.1488 0.102817 1.2508e-21)
(0.0333859 0.104651 -1.24573e-21)
(-0.0854316 0.101347 -1.23905e-21)
(-0.202735 0.0917216 0)
(-0.312564 0.0767942 0)
(-0.412029 0.0523988 1.20745e-21)
(-0.492074 0.0203592 1.19388e-21)
(-0.555857 -0.000577687 0)
(-0.617219 -0.0035535 0)
(-0.686496 0.0072734 1.14743e-21)
(-0.765711 0.02983 0)
(-0.855898 0.0521854 0)
(-0.956582 0.0605251 -1.09467e-21)
(-1.06674 0.0616551 0)
(-1.18526 0.0738368 -1.05268e-21)
(-1.31611 0.0882937 -2.05992e-21)
(-1.45474 0.0893677 0)
(-1.58878 0.099278 0)
(-1.72261 0.11535 0)
(-1.85065 0.113523 0)
(-1.9611 0.0976724 0)
(-2.05269 0.0821095 -1.75029e-21)
(-2.12711 0.0675152 -1.70386e-21)
(-2.18417 0.05323 -1.66324e-21)
(-2.22424 0.0393102 0)
(-2.24782 0.0261466 1.60393e-21)
(-2.25579 0.0140042 0)
(-2.24915 0.00298534 -1.57779e-21)
(-2.22921 -0.00686836 -1.57724e-21)
(-2.197 -0.015576 0)
(-2.1538 -0.0231534 0)
(-2.10084 -0.0296572 0)
(-2.03934 -0.0351385 -1.64532e-21)
(-1.97038 -0.0396896 0)
(-1.89523 -0.0433689 0)
(-1.81481 -0.0462678 0)
(-1.73013 -0.0484473 0)
(-1.6421 -0.049993 0)
(-1.55154 -0.0509705 0)
(-1.45921 -0.0514627 0)
(-1.36574 -0.0515405 0)
(-1.27171 -0.051285 1.97236e-21)
(-1.17758 -0.0507606 0)
(-1.08371 -0.0500398 0)
(-0.990363 -0.0491917 -2.06923e-21)
(-0.897694 -0.0482762 -2.09748e-21)
(-0.805782 -0.047345 0)
(-0.714639 -0.046432 2.14794e-21)
(-0.624228 -0.0455614 -2.17029e-21)
(-0.534477 -0.044752 0)
(-0.445309 -0.0440121 2.20968e-21)
(-0.35661 -0.043343 0)
(-0.268255 -0.0427505 0)
(-0.180124 -0.0422179 -2.25702e-21)
(-0.092133 -0.0417193 0)
(-0.0043023 -0.0412038 2.28166e-21)
(0.0832724 -0.0406163 0)
(0.17038 -0.0399133 -2.30056e-21)
(0.256727 -0.039056 -2.30761e-21)
(0.341982 -0.0380321 -2.3129e-21)
(0.425805 -0.0368483 -4.63272e-21)
(0.507889 -0.0355276 4.63588e-21)
(0.587987 -0.034098 0)
(0.665884 -0.0325852 0)
(0.741384 -0.031012 0)
(0.814325 -0.0293997 4.61157e-21)
(0.884566 -0.0277535 4.59661e-21)
(0.95199 -0.0260829 -4.57831e-21)
(1.0165 -0.0243985 0)
(1.07802 -0.0227039 4.53228e-21)
(1.13649 -0.0210154 4.50491e-21)
(1.19187 -0.0193405 4.47491e-21)
(1.24415 -0.0176872 0)
(1.29331 -0.0160747 0)
(1.33937 -0.0144925 0)
(1.38235 -0.0129637 4.3333e-21)
(1.42226 -0.0114691 0)
(1.45914 -0.0100239 0)
(1.49302 -0.00862258 -4.21081e-21)
(1.52394 -0.00726926 0)
(1.55197 -0.00597322 0)
(1.57716 -0.00474403 -4.08064e-21)
(1.59962 -0.00359203 0)
(1.61946 -0.00252659 0)
(1.63683 -0.00155468 3.94774e-21)
(1.65189 -0.00068012 3.90352e-21)
(1.66482 9.66028e-05 0)
(1.67579 0.000778008 -3.81578e-21)
(1.68498 0.00136877 0)
(1.69255 0.0018751 3.72939e-21)
(1.69868 0.00230375 0)
(1.70349 0.00266172 3.64464e-21)
(1.70713 0.00295585 3.60291e-21)
(1.70973 0.00319227 0)
(1.71139 0.00337793 0)
(1.71223 0.00351924 0)
(1.71233 0.00362215 0)
(1.71179 0.00369147 0)
(1.71069 0.00372561 0)
(1.70912 0.00372041 0)
(1.70716 0.00367847 3.28449e-21)
(1.70489 0.00360634 -3.24651e-21)
(1.70239 0.0035104 0)
(1.6997 0.00339595 0)
(1.69689 0.00326705 0)
(1.694 0.00312744 0)
(1.69106 0.00298 -6.12424e-21)
(1.68812 0.00282706 0)
(1.6852 0.00267084 5.98154e-21)
(1.68233 0.00251354 -5.91115e-21)
(1.67951 0.00235729 0)
(1.67678 0.00220419 0)
(1.67413 0.00205615 0)
(1.67157 0.00191477 5.63562e-21)
(1.66911 0.00178128 5.56817e-21)
(1.66673 0.00165654 0)
(1.66444 0.00154108 5.43488e-21)
(1.66224 0.00143502 5.36901e-21)
(1.6601 0.00133819 -5.30365e-21)
(1.65803 0.00125022 0)
(1.65602 0.00117062 0)
(1.65405 0.00109898 -5.11046e-21)
(1.65213 0.00103484 0)
(1.65025 0.000977672 0)
(1.64839 0.000926896 0)
(1.64655 0.000881976 0)
(1.64473 0.000842478 4.79756e-21)
(1.64292 0.000808236 4.73627e-21)
(1.6411 0.000779278 0)
(1.63928 0.000755723 4.61492e-21)
(1.63744 0.000737738 0)
(1.63558 0.000725419 0)
(1.63369 0.000718701 4.43593e-21)
(1.63175 0.000717538 0)
(1.62975 0.000722074 4.31859e-21)
(1.62769 0.000732918 0)
(1.62553 0.000750636 0)
(1.62328 0.000776085 4.14555e-21)
(1.62086 0.000810811 0)
(1.61832 0.000856268 4.03223e-21)
(1.6155 0.000916633 0)
(1.61254 0.000992321 0)
(1.60908 0.00109541 0)
(1.60547 0.00121756 -3.81099e-21)
(1.60094 0.0013982 0)
(1.5963 0.00158934 3.70361e-21)
(1.58997 0.00192768 0)
(1.58353 0.00220785 0)
(1.57422 0.00291512 0)
(1.56418 0.00324716 0)
(1.5502 0.00495643 0)
(1.53128 0.00500303 0)
(1.51173 0.00988601 0)
(1.46566 0.00815525 -6.64047e-21)
(1.44711 0.0253438 0)
(1.30206 0.018874 0)
(-0.00251485 -0.00585717 -4.84112e-21)
(0.00984141 -0.0823769 4.81098e-21)
(0.0371802 -0.132668 0)
(0.0686183 -0.155734 -3.15686e-21)
(0.101934 -0.163245 0)
(0.135467 -0.162789 -1.55437e-21)
(0.169048 -0.158484 3.0656e-21)
(0.202454 -0.152307 3.0294e-21)
(0.235458 -0.144938 0)
(0.267698 -0.136312 2.94862e-21)
(0.298653 -0.125967 1.45899e-21)
(0.327502 -0.113261 0)
(0.353128 -0.0974845 0)
(0.374132 -0.0779984 0)
(0.38888 -0.0543195 0)
(0.395695 -0.0262447 1.34641e-21)
(0.392875 0.00609978 0)
(0.378921 0.0421445 -2.58861e-21)
(0.352421 0.0809248 0)
(0.313733 0.121088 0)
(0.262123 0.160812 2.51105e-21)
(0.19729 0.198249 0)
(0.119927 0.231847 -2.48859e-21)
(0.0311579 0.260321 1.25595e-21)
(-0.0673044 0.282452 -1.25187e-21)
(-0.173059 0.296085 1.24684e-21)
(-0.283395 0.299556 1.24019e-21)
(-0.395067 0.291203 0)
(-0.504488 0.271912 0)
(-0.611 0.244822 -1.20865e-21)
(-0.717579 0.214448 1.17657e-21)
(-0.836462 0.201593 0)
(-0.964103 0.212934 0)
(-1.09336 0.227508 -1.14858e-21)
(-1.21912 0.234565 0)
(-1.34409 0.242283 0)
(-1.47464 0.263959 1.09585e-21)
(-1.61493 0.287489 0)
(-1.75684 0.304125 -9.89129e-22)
(-1.89222 0.319011 2.06232e-21)
(-2.02171 0.318977 0)
(-2.13265 0.299601 0)
(-2.22173 0.269627 3.66894e-21)
(-2.29477 0.233353 3.56473e-21)
(-2.35348 0.19479 3.46356e-21)
(-2.39854 0.1566 -1.61628e-21)
(-2.42996 0.119028 1.70584e-21)
(-2.44786 0.0826907 4.87537e-21)
(-2.45282 0.0480234 -3.15159e-21)
(-2.44537 0.0155056 -1.60555e-21)
(-2.4262 -0.0146031 0)
(-2.39599 -0.0421296 1.57919e-21)
(-2.35532 -0.0670098 -1.50139e-21)
(-2.30511 -0.0892119 0)
(-2.24614 -0.108753 0)
(-2.17928 -0.125692 0)
(-2.10538 -0.140103 1.64629e-21)
(-2.02542 -0.15213 0)
(-1.94014 -0.161903 -3.38173e-21)
(-1.85048 -0.169597 0)
(-1.75725 -0.175384 -3.53845e-21)
(-1.66119 -0.179455 0)
(-1.56299 -0.181999 3.70013e-21)
(-1.46327 -0.183206 0)
(-1.36263 -0.183262 -3.85645e-21)
(-1.26159 -0.182362 1.95733e-21)
(-1.16056 -0.180689 0)
(-1.05989 -0.17845 4.06591e-21)
(-0.959801 -0.175837 2.06963e-21)
(-0.860423 -0.17304 2.09785e-21)
(-0.761793 -0.170203 0)
(-0.663884 -0.167443 2.13741e-21)
(-0.566639 -0.16482 2.17057e-21)
(-0.469972 -0.162374 0)
(-0.373788 -0.16012 -2.20991e-21)
(-0.277974 -0.158066 4.44347e-21)
(-0.182392 -0.156232 0)
(-0.0868912 -0.154585 2.25719e-21)
(0.00864625 -0.153048 0)
(0.104229 -0.151469 -6.83507e-21)
(0.199755 -0.149677 0)
(0.294995 -0.147516 6.89272e-21)
(0.389622 -0.144881 2.3077e-21)
(0.483255 -0.141722 -2.30498e-21)
(0.57552 -0.13807 -4.61811e-21)
(0.666092 -0.133994 4.62244e-21)
(0.754726 -0.129582 0)
(0.841224 -0.124923 0)
(0.925399 -0.120082 0)
(1.00711 -0.115105 -1.38254e-20)
(1.08624 -0.110024 -4.5966e-21)
(1.16268 -0.104857 4.57828e-21)
(1.23633 -0.0996291 0)
(1.30714 -0.0943657 4.52606e-21)
(1.37502 -0.0891017 -4.50483e-21)
(1.43997 -0.08387 -4.47482e-21)
(1.50195 -0.0787002 0)
(1.56097 -0.0736262 0)
(1.61704 -0.0686564 0)
(1.67019 -0.063806 -4.33317e-21)
(1.72043 -0.0590698 0)
(1.7678 -0.0544493 8.50243e-21)
(1.81232 -0.0499434 1.26294e-20)
(1.85403 -0.045561 -8.33338e-21)
(1.89296 -0.0413249 0)
(1.92918 -0.0372625 -4.07856e-21)
(1.96277 -0.0334036 0)
(1.99384 -0.029776 -7.98214e-21)
(2.02253 -0.0264007 3.94605e-21)
(2.04898 -0.02329 3.90192e-21)
(2.07336 -0.0204465 0)
(2.09584 -0.0178644 1.14454e-20)
(2.11656 -0.0155317 -7.54319e-21)
(2.13569 -0.013432 -3.72912e-21)
(2.15336 -0.0115473 0)
(2.1697 -0.00985903 -3.64435e-21)
(2.18482 -0.0083493 -1.08071e-20)
(2.19884 -0.00700198 0)
(2.21184 -0.005802 -7.04025e-21)
(2.2239 -0.00473606 -6.95945e-21)
(2.23512 -0.00379279 -6.8795e-21)
(2.24556 -0.00296249 0)
(2.25528 -0.00223938 0)
(2.26435 -0.00161989 0)
(2.2728 -0.0010967 3.28379e-21)
(2.28069 -0.000659902 3.24615e-21)
(2.28806 -0.000300263 0)
(2.29495 -9.00982e-06 6.34239e-21)
(2.3014 0.000222984 6.26867e-21)
(2.30745 0.000403556 0)
(2.31314 0.000539562 6.12348e-21)
(2.3185 0.000637445 1.21033e-20)
(2.32356 0.000703287 -5.98076e-21)
(2.32834 0.000742886 -5.91018e-21)
(2.33286 0.000761698 0)
(2.33714 0.000764685 0)
(2.34119 0.000756282 0)
(2.34503 0.000740325 -5.63483e-21)
(2.34865 0.000719984 5.56731e-21)
(2.35207 0.000697773 1.10009e-20)
(2.35528 0.000675547 -5.4341e-21)
(2.35831 0.000654601 5.36819e-21)
(2.36115 0.000635771 5.30287e-21)
(2.3638 0.000619567 0)
(2.36627 0.000606271 0)
(2.36857 0.000595944 -5.10966e-21)
(2.3707 0.000588564 0)
(2.37266 0.000584196 0)
(2.37445 0.000582917 9.84129e-21)
(2.37609 0.000584859 0)
(2.37757 0.000590114 4.79679e-21)
(2.3789 0.000598728 -4.73554e-21)
(2.38007 0.000610707 0)
(2.3811 0.000626182 4.61417e-21)
(2.38198 0.000645455 0)
(2.38272 0.000669122 0)
(2.38332 0.00069802 -4.43523e-21)
(2.38377 0.000733265 8.75269e-21)
(2.38408 0.000776362 -4.3179e-21)
(2.38425 0.00082856 0)
(2.38425 0.000892979 0)
(2.3841 0.000970924 4.14478e-21)
(2.38377 0.00106949 0)
(2.38326 0.00118706 4.03143e-21)
(2.38251 0.00134226 0)
(2.38156 0.00152085 0)
(2.38026 0.00177559 0)
(2.37869 0.00204634 3.81037e-21)
(2.3766 0.00248852 0)
(2.3741 0.00288999 -3.70299e-21)
(2.37083 0.00371585 0)
(2.36672 0.00427272 0)
(2.36166 0.00595986 7.09401e-21)
(2.35444 0.0066004 -6.99424e-21)
(2.34685 0.0104172 0)
(2.33261 0.0107393 0)
(2.32224 0.020424 0)
(2.29019 0.0194383 1.99009e-20)
(2.28044 0.0479003 0)
(2.20277 0.0471338 -1.29558e-20)
(0.000546368 -0.01425 6.48114e-24)
(0.00960182 -0.115793 -6.40773e-21)
(0.0261417 -0.175147 0)
(0.0406957 -0.199786 6.30787e-21)
(0.0548456 -0.207491 0)
(0.0688994 -0.20731 0)
(0.0837671 -0.203726 -1.35004e-23)
(0.0996515 -0.198404 -3.03123e-21)
(0.116539 -0.191512 -2.97652e-21)
(0.134042 -0.182399 -2.95039e-21)
(0.151496 -0.170002 0)
(0.167929 -0.153097 0)
(0.182034 -0.130433 2.78824e-21)
(0.192275 -0.100968 5.47365e-21)
(0.196828 -0.0640126 -5.37145e-21)
(0.193888 -0.0194889 0)
(0.181458 0.0320839 -5.1815e-21)
(0.158018 0.089394 2.59e-21)
(0.12202 0.150669 0)
(0.0732115 0.213637 -4.97812e-21)
(0.0112079 0.27577 -2.51244e-21)
(-0.0632866 0.334225 4.91347e-21)
(-0.1484 0.386257 2.49001e-21)
(-0.241411 0.429422 0)
(-0.340028 0.461699 -4.87934e-21)
(-0.442447 0.481172 -4.86843e-21)
(-0.5471 0.486156 0)
(-0.652952 0.475477 -4.82566e-21)
(-0.759708 0.449535 0)
(-0.868933 0.415044 -4.73796e-21)
(-0.989764 0.402781 -2.37309e-21)
(-1.12154 0.412365 0)
(-1.25334 0.421411 0)
(-1.38335 0.432281 0)
(-1.5131 0.447838 0)
(-1.64975 0.467959 0)
(-1.78824 0.493781 0)
(-1.92035 0.516522 -4.02166e-21)
(-2.04016 0.517924 5.95604e-21)
(-2.14011 0.497117 0)
(-2.22338 0.461096 0)
(-2.29202 0.415479 0)
(-2.34814 0.365064 -2.02072e-22)
(-2.39345 0.310947 -3.56661e-21)
(-2.42849 0.255196 -6.73329e-21)
(-2.45341 0.199354 6.55034e-21)
(-2.46796 0.144477 3.10355e-21)
(-2.47208 0.0913649 -3.21152e-21)
(-2.46571 0.0406242 1.60589e-22)
(-2.44891 -0.00725014 -2.96001e-21)
(-2.42187 -0.0519155 0)
(-2.38493 -0.093128 -2.94581e-21)
(-2.33857 -0.130697 1.17523e-22)
(-2.28338 -0.164481 0)
(-2.2201 -0.194402 0)
(-2.1495 -0.220439 3.09821e-21)
(-2.07245 -0.242652 0)
(-1.98983 -0.261167 0)
(-1.90247 -0.276167 -3.25893e-21)
(-1.8112 -0.287895 -6.80937e-21)
(-1.7168 -0.296628 3.53866e-21)
(-1.61999 -0.302651 0)
(-1.52143 -0.306248 -3.7003e-21)
(-1.42171 -0.307724 0)
(-1.3214 -0.307359 -3.79961e-21)
(-1.22097 -0.305446 -3.93031e-21)
(-1.12086 -0.302293 7.95478e-21)
(-1.0214 -0.298234 4.02404e-21)
(-0.922787 -0.293604 0)
(-0.825095 -0.288735 -8.3311e-21)
(-0.728292 -0.28389 0)
(-0.632278 -0.279249 -1.28209e-20)
(-0.536916 -0.274901 -8.62484e-21)
(-0.442082 -0.270876 -8.70695e-21)
(-0.347677 -0.26719 8.78201e-21)
(-0.253599 -0.263864 -1.3294e-20)
(-0.159696 -0.260934 0)
(-0.0657479 -0.258375 0)
(0.0284635 -0.256069 9.023e-21)
(0.123033 -0.253731 1.36243e-20)
(0.217886 -0.251028 0)
(0.312752 -0.247644 -4.592e-21)
(0.407217 -0.243386 0)
(0.500795 -0.238184 1.38262e-20)
(0.592998 -0.2321 2.53273e-23)
(0.683426 -0.225286 -2.32648e-23)
(0.7718 -0.217928 -9.23681e-21)
(0.857915 -0.210192 0)
(0.941626 -0.202198 9.21788e-21)
(1.02282 -0.194011 1.61159e-23)
(1.10141 -0.185668 0)
(1.1773 -0.177203 0)
(1.25042 -0.168636 0)
(1.32072 -0.160021 -9.05804e-21)
(1.38813 -0.151403 0)
(1.45266 -0.142848 0)
(1.5143 -0.134416 0)
(1.57306 -0.126146 0)
(1.62897 -0.118072 0)
(1.68208 -0.110195 -8.65676e-21)
(1.73241 -0.102521 0)
(1.77997 -0.0950335 -8.50224e-21)
(1.82479 -0.0877337 -8.41858e-21)
(1.8669 -0.0806364 8.3332e-21)
(1.90631 -0.0737778 0)
(1.94308 -0.0672053 8.15884e-21)
(1.9773 -0.0609714 0)
(2.00909 -0.0551236 7.98201e-21)
(2.03859 -0.0496973 -7.89344e-21)
(2.06597 -0.0447112 -2.34106e-20)
(2.0914 -0.0401672 0)
(2.11504 -0.0360527 -2.28854e-20)
(2.13708 -0.0323445 -7.53947e-21)
(2.15765 -0.0290128 0)
(2.1769 -0.0260248 -1.4741e-20)
(2.19495 -0.0233474 -1.45728e-20)
(2.21192 -0.0209488 2.16106e-20)
(2.2279 -0.0188 0)
(2.24298 -0.0168754 7.04016e-21)
(2.25725 -0.015153 6.95936e-21)
(2.27078 -0.0136142 2.06365e-20)
(2.28361 -0.0122429 0)
(2.29581 -0.0110246 0)
(2.30743 -0.00994574 0)
(2.31849 -0.00899475 6.56671e-21)
(2.32903 -0.0081606 0)
(2.33909 -0.00743287 0)
(2.3487 -0.00680138 -6.34228e-21)
(2.3579 -0.00625546 -6.26856e-21)
(2.36671 -0.0057853 0)
(2.37515 -0.00538137 0)
(2.38326 -0.00503435 -1.21031e-20)
(2.39106 -0.00473516 0)
(2.39855 -0.00447516 1.18203e-20)
(2.40577 -0.00424614 1.16804e-20)
(2.41271 -0.0040406 0)
(2.4194 -0.00385202 0)
(2.42582 -0.00367501 -1.12691e-20)
(2.432 -0.0035053 -1.64721e-25)
(2.43794 -0.00333984 -1.42178e-25)
(2.44363 -0.00317664 0)
(2.44909 -0.00301459 -2.14721e-20)
(2.45431 -0.00285326 0)
(2.4593 -0.00269264 0)
(2.46407 -0.00253291 0)
(2.46861 -0.00237442 1.0219e-20)
(2.47293 -0.00221746 0)
(2.47704 -0.00206218 -1.9932e-20)
(2.48093 -0.00190863 -9.84093e-21)
(2.48462 -0.00175682 0)
(2.48811 -0.00160658 -9.59325e-21)
(2.49139 -0.00145764 0)
(2.49448 -0.00130969 0)
(2.49738 -0.00116231 -2.76839e-20)
(2.50008 -0.00101486 1.82157e-20)
(2.5026 -0.000866611 0)
(2.50493 -0.000716316 1.774e-20)
(2.50706 -0.000562828 -8.75232e-21)
(2.50902 -0.000403534 0)
(2.51078 -0.000237291 0)
(2.51235 -5.85961e-05 0)
(2.51373 0.000132712 -2.48676e-20)
(2.5149 0.000349188 0)
(2.51586 0.000584981 -8.06263e-21)
(2.51661 0.000871621 0)
(2.51709 0.00118284 0)
(2.51733 0.00160119 0)
(2.51722 0.002035 0)
(2.51684 0.00270659 0)
(2.51589 0.00332827 0)
(2.51469 0.0045089 -1.45971e-20)
(2.51242 0.00539584 0)
(2.51005 0.00766527 -7.09365e-21)
(2.50547 0.00888406 2.09768e-20)
(2.50145 0.01366 0)
(2.49252 0.0152864 0)
(2.48628 0.0263575 -1.34152e-20)
(2.46901 0.029157 -1.32609e-20)
(2.46091 0.0574404 1.30741e-20)
(2.43128 0.0666566 1.29554e-20)
(0.00274132 -0.024761 9.65398e-21)
(0.00890188 -0.138336 9.59094e-21)
(0.0160807 -0.195212 6.33675e-21)
(0.0179164 -0.214722 3.12932e-21)
(0.0183226 -0.220175 0)
(0.0187008 -0.220574 -6.15339e-21)
(0.020482 -0.219296 3.02613e-21)
(0.0239596 -0.216869 0)
(0.0291125 -0.212564 2.97842e-21)
(0.0354418 -0.204978 0)
(0.0421283 -0.192349 -5.73262e-21)
(0.0479849 -0.17281 0)
(0.0515743 -0.144631 -2.79006e-21)
(0.0511588 -0.106339 -5.47721e-21)
(0.0448069 -0.0569564 5.37491e-21)
(0.0307469 0.00378283 0)
(0.00705405 0.0752102 5.18471e-21)
(-0.0273373 0.155272 0)
(-0.074045 0.241036 0)
(-0.132719 0.328077 4.98124e-21)
(-0.20333 0.411799 0)
(-0.284906 0.487757 -9.57554e-23)
(-0.375228 0.552355 0)
(-0.471452 0.603011 0)
(-0.570947 0.638611 9.14439e-23)
(-0.672004 0.658866 4.87143e-21)
(-0.773378 0.663721 4.75913e-21)
(-0.875149 0.654026 4.82862e-21)
(-0.979174 0.635855 0)
(-1.0951 0.628253 9.37011e-21)
(-1.22192 0.633382 0)
(-1.34932 0.637241 4.47493e-21)
(-1.47796 0.642564 0)
(-1.60679 0.648561 0)
(-1.73726 0.664229 -4.17154e-21)
(-1.86935 0.689032 0)
(-1.99165 0.699515 3.93827e-21)
(-2.09483 0.686757 2.0726e-22)
(-2.18087 0.655911 -7.6095e-21)
(-2.25161 0.610809 7.14746e-21)
(-2.30972 0.555374 0)
(-2.35687 0.493279 0)
(-2.39443 0.427017 2.98675e-21)
(-2.42264 0.357983 0)
(-2.44163 0.28765 3.26948e-21)
(-2.45127 0.217187 -3.18141e-21)
(-2.45154 0.147628 -3.10466e-21)
(-2.44239 0.0798519 0)
(-2.42382 0.0146129 2.99284e-21)
(-2.39587 -0.0474662 2.96055e-21)
(-2.35875 -0.105844 -5.5331e-21)
(-2.31281 -0.159988 2.94605e-21)
(-2.25846 -0.209476 2.96311e-21)
(-2.19629 -0.25399 0)
(-2.12705 -0.293308 0)
(-2.05156 -0.327368 -3.09807e-21)
(-1.97071 -0.356233 0)
(-1.88538 -0.380067 0)
(-1.79639 -0.399174 6.64048e-21)
(-1.70449 -0.413912 6.8089e-21)
(-1.61035 -0.424659 0)
(-1.51454 -0.431808 0)
(-1.41759 -0.435749 0)
(-1.31999 -0.436864 0)
(-1.22216 -0.435538 7.65582e-21)
(-1.12456 -0.432135 -7.74388e-21)
(-1.0276 -0.427082 -7.95446e-21)
(-0.931605 -0.420823 -1.61247e-20)
(-0.836793 -0.413867 0)
(-0.743179 -0.406703 4.99475e-23)
(-0.650606 -0.39974 0)
(-0.558824 -0.39322 8.53501e-21)
(-0.46757 -0.387231 4.90344e-23)