/*--------------------------------*- C++ -*----------------------------------*\
  =========                 |
  \\      /  F ield         | OpenFOAM: The Open Source CFD Toolbox
   \\    /   O peration     | Website:  https://openfoam.org
    \\  /    A nd           | Version:  7
     \\/     M anipulation  |
\*---------------------------------------------------------------------------*/
FoamFile
{
    version     2.0;
    format      ascii;
    class       volSymmTensorField;
    location    "0.057";
    object      UPrime2Mean;
}
// * * * * * * * * * * * * * * * * * * * * * * * * * * * * * * * * * * * * * //

dimensions      [0 2 -2 0 0 0 0];

internalField   nonuniform List<symmTensor> 
12225
(
(0.00481238 -0.000219458 0 0.000506749 0 0)
(0.0352213 -0.00156082 0 0.000260752 0 0)
(0.0513766 -0.00230151 0 0.000248249 0 0)
(0.0688381 -0.00283961 0 0.000237709 0 0)
(0.098826 -0.00354381 0 0.000230619 0 0)
(0.143028 -0.00442422 0 0.000226588 0 0)
(0.201464 -0.00546626 0 0.000236604 0 0)
(0.27436 -0.00626182 0 0.00021668 0 0)
(0.361752 -0.00754405 0 0.000233765 0 0)
(0.46288 -0.00722744 0 0.000177496 0 0)
(0.579448 -0.00965633 0 0.000214806 0 0)
(0.703202 -0.0061669 0 0.000120199 0 0)
(0.852845 -0.0146238 0 0.000317725 0 0)
(0.997208 -0.00127796 0 0.00022842 0 0)
(1.21317 -0.0344966 0 0.0015658 0 0)
(1.42301 0.0164867 0 0.00190731 0 0)
(1.83934 -0.131924 0 0.018083 0 0)
(2.49179 0.0510287 0 0.00891647 0 0)
(0.00434574 4.2625e-05 0 0.000637365 0 0)
(0.0235538 -0.000750357 0 0.000242813 0 0)
(0.0258854 -0.00127566 0 0.000312079 0 0)
(0.026719 -0.00159472 0 0.000431355 0 0)
(0.0317097 -0.00222053 0 0.000578345 0 0)
(0.0405975 -0.00335331 0 0.000766767 0 0)
(0.0540605 -0.0049381 0 0.000960035 0 0)
(0.0741775 -0.00718115 0 0.0012297 0 0)
(0.101391 -0.00956965 0 0.00138818 0 0)
(0.140636 -0.0131895 0 0.00172654 0 0)
(0.188879 -0.0157942 0 0.00172783 0 0)
(0.257748 -0.0218217 0 0.00223729 0 0)
(0.334084 -0.0235422 0 0.00201391 0 0)
(0.450312 -0.0365419 0 0.00330484 0 0)
(0.567031 -0.0367885 0 0.00293952 0 0)
(0.78336 -0.07517 0 0.00839804 0 0)
(0.979937 -0.0904432 0 0.00928044 0 0)
(1.42489 -0.25889 0 0.0613743 0 0)
(0.00404768 0.000101169 0 0.000860669 0 0)
(0.0232348 -0.0011599 0 0.00045955 0 0)
(0.0245831 -0.00178898 0 0.000573436 0 0)
(0.0238338 -0.00195959 0 0.000752923 0 0)
(0.0258153 -0.00229802 0 0.000972283 0 0)
(0.0290607 -0.002975 0 0.00124237 0 0)
(0.0333577 -0.00400218 0 0.00163262 0 0)
(0.038961 -0.00527768 0 0.00200131 0 0)
(0.0465644 -0.00708111 0 0.00257592 0 0)
(0.0567243 -0.00896223 0 0.00294471 0 0)
(0.0712622 -0.0122219 0 0.00373039 0 0)
(0.0906161 -0.0148733 0 0.00395648 0 0)
(0.118873 -0.0215712 0 0.00541179 0 0)
(0.156267 -0.025623 0 0.00552581 0 0)
(0.212276 -0.0432786 0 0.0100674 0 0)
(0.287736 -0.0545542 0 0.0112951 0 0)
(0.396294 -0.112555 0 0.0337239 0 0)
(0.535302 -0.188376 0 0.0702632 0 0)
(0.00417164 -0.000291502 0 0.000994178 0 0)
(0.0230545 -0.00146217 0 0.000569049 0 0)
(0.024219 -0.00197701 0 0.000666952 0 0)
(0.0233717 -0.00215716 0 0.000898322 0 0)
(0.0250396 -0.00248457 0 0.00116461 0 0)
(0.0277001 -0.0031377 0 0.00150719 0 0)
(0.0310053 -0.00407166 0 0.00192578 0 0)
(0.0350966 -0.00527785 0 0.00249043 0 0)
(0.04012 -0.00668168 0 0.00307189 0 0)
(0.0467405 -0.00859214 0 0.00386516 0 0)
(0.0553521 -0.0108448 0 0.00459947 0 0)
(0.0674338 -0.0144105 0 0.00579074 0 0)
(0.0836597 -0.0188042 0 0.00698542 0 0)
(0.107223 -0.0268242 0 0.00954837 0 0)
(0.139419 -0.0381076 0 0.0131189 0 0)
(0.184868 -0.0600269 0 0.022034 0 0)
(0.243733 -0.0983127 0 0.0415043 0 0)
(0.30339 -0.158889 0 0.0850052 0 0)
(0.00425553 -0.000279912 0 0.0011671 0 0)
(0.0225599 -0.00170373 0 0.000733352 0 0)
(0.0234455 -0.00221166 0 0.00083777 0 0)
(0.0226148 -0.00239564 0 0.00112981 0 0)
(0.0243011 -0.00274484 0 0.00147218 0 0)
(0.0268524 -0.00343529 0 0.0018761 0 0)
(0.0299448 -0.00445043 0 0.00241683 0 0)
(0.0337067 -0.00572777 0 0.00304462 0 0)
(0.0383506 -0.00735849 0 0.0038779 0 0)
(0.0442553 -0.00932114 0 0.00477096 0 0)
(0.0519821 -0.0121164 0 0.00601006 0 0)
(0.0622742 -0.0156935 0 0.00740521 0 0)
(0.076173 -0.0213507 0 0.00971581 0 0)
(0.0950763 -0.0292457 0 0.0128521 0 0)
(0.120424 -0.0426417 0 0.0190332 0 0)
(0.152962 -0.0634711 0 0.0301167 0 0)
(0.190691 -0.0971165 0 0.0526119 0 0)
(0.221726 -0.147813 0 0.102571 0 0)
(0.00421252 -0.00043465 0 0.00126918 0 0)
(0.0223602 -0.0020001 0 0.000905416 0 0)
(0.022859 -0.00241343 0 0.00106563 0 0)
(0.0218623 -0.00255285 0 0.00145337 0 0)
(0.0233798 -0.00291359 0 0.00189831 0 0)
(0.0256913 -0.00363545 0 0.00241293 0 0)
(0.0284948 -0.004685 0 0.00304217 0 0)
(0.0319204 -0.00604339 0 0.00383734 0 0)
(0.0361484 -0.00775714 0 0.00480549 0 0)
(0.0414993 -0.00998339 0 0.00601562 0 0)
(0.0484641 -0.0129776 0 0.00753375 0 0)
(0.0575787 -0.0171612 0 0.00958994 0 0)
(0.0696793 -0.0231779 0 0.0125279 0 0)
(0.0853752 -0.0320323 0 0.0170858 0 0)
(0.105586 -0.0455232 0 0.0247887 0 0)
(0.129062 -0.0655233 0 0.0382841 0 0)
(0.153878 -0.0950376 0 0.0632653 0 0)
(0.170899 -0.132591 0 0.106974 0 0)
(0.00402746 -0.000362359 0 0.00149165 0 0)
(0.0220663 -0.00221698 0 0.00123367 0 0)
(0.0224559 -0.00264734 0 0.00136263 0 0)
(0.0214212 -0.00280895 0 0.00177299 0 0)
(0.0228715 -0.00322563 0 0.00228869 0 0)
(0.0250361 -0.00402902 0 0.00288887 0 0)
(0.027622 -0.00518267 0 0.00363523 0 0)
(0.0307537 -0.00665645 0 0.00456979 0 0)
(0.034592 -0.00852144 0 0.00576024 0 0)
(0.0394051 -0.0109276 0 0.0072613 0 0)
(0.0455904 -0.0141812 0 0.00920544 0 0)
(0.0535324 -0.0186784 0 0.0118498 0 0)
(0.0637485 -0.0250379 0 0.0156325 0 0)
(0.0764288 -0.0341527 0 0.0214442 0 0)
(0.0917701 -0.0471832 0 0.0306215 0 0)
(0.10814 -0.0655189 0 0.04603 0 0)
(0.123671 -0.0896624 0 0.0708422 0 0)
(0.131893 -0.117851 0 0.110701 0 0)
(0.00383537 -0.000340762 0 0.00146101 0 0)
(0.0216075 -0.00243482 0 0.00127823 0 0)
(0.0220147 -0.00279485 0 0.00156201 0 0)
(0.0209798 -0.00288788 0 0.00207587 0 0)
(0.0223204 -0.00331851 0 0.00270687 0 0)
(0.0242576 -0.00415534 0 0.00343985 0 0)
(0.0265144 -0.0053292 0 0.00432853 0 0)
(0.0292392 -0.00684279 0 0.00544711 0 0)
(0.0325931 -0.00879152 0 0.0068736 0 0)
(0.0367824 -0.0113388 0 0.0087077 0 0)
(0.0420814 -0.0147571 0 0.0111079 0 0)
(0.0487101 -0.0194107 0 0.0143828 0 0)
(0.0569311 -0.0258259 0 0.0190221 0 0)
(0.0666675 -0.034666 0 0.0259235 0 0)
(0.0777063 -0.0467003 0 0.0363725 0 0)
(0.0885022 -0.0624896 0 0.0526237 0 0)
(0.0974687 -0.0817506 0 0.0769259 0 0)
(0.100552 -0.102492 0 0.112657 0 0)
(0.00457046 -0.000564175 0 0.00151107 0 0)
(0.0218515 -0.00295374 0 0.00150355 0 0)
(0.0216989 -0.00329534 0 0.00186488 0 0)
(0.0205721 -0.00330696 0 0.00244219 0 0)
(0.0219569 -0.00372635 0 0.00317769 0 0)
(0.0238299 -0.00461589 0 0.00404775 0 0)
(0.0258775 -0.00587603 0 0.00510614 0 0)
(0.0282686 -0.00748255 0 0.00643941 0 0)
(0.0311538 -0.00951523 0 0.00813954 0 0)
(0.0346956 -0.0121346 0 0.0103336 0 0)
(0.0390801 -0.0155949 0 0.0132044 0 0)
(0.0444141 -0.020223 0 0.0171065 0 0)
(0.0507664 -0.026418 0 0.0225291 0 0)
(0.0578848 -0.0346274 0 0.0303498 0 0)
(0.0653771 -0.0452304 0 0.0416424 0 0)
(0.0719203 -0.0582891 0 0.0581744 0 0)
(0.0764311 -0.073143 0 0.0813311 0 0)
(0.0763894 -0.087935 0 0.112979 0 0)
(0.00425677 -0.000581687 0 0.00173676 0 0)
(0.021717 -0.00309878 0 0.00164853 0 0)
(0.0215375 -0.00337625 0 0.00204513 0 0)
(0.0202986 -0.00331751 0 0.00268843 0 0)
(0.0214852 -0.00370402 0 0.00351872 0 0)
(0.0231177 -0.00457975 0 0.00451827 0 0)
(0.0248768 -0.00582639 0 0.00573325 0 0)
(0.0268956 -0.00741643 0 0.00725747 0 0)
(0.0292994 -0.00943134 0 0.00920766 0 0)
(0.0322088 -0.0120217 0 0.0117391 0 0)
(0.0357269 -0.0153994 0 0.015054 0 0)
(0.0398514 -0.0198119 0 0.0195112 0 0)
(0.0445184 -0.0255353 0 0.0255855 0 0)
(0.049388 -0.0328083 0 0.034063 0 0)
(0.0540411 -0.04174 0 0.045797 0 0)
(0.05744 -0.0520886 0 0.0620937 0 0)
(0.0589759 -0.0631066 0 0.0836929 0 0)
(0.0570772 -0.0732515 0 0.111685 0 0)
(0.00407566 -0.00075352 0 0.00197149 0 0)
(0.0213572 -0.00351573 0 0.00199628 0 0)
(0.0207784 -0.00382676 0 0.00242713 0 0)
(0.0192601 -0.00367698 0 0.00314589 0 0)
(0.0202548 -0.00401868 0 0.00408117 0 0)
(0.0217179 -0.00488906 0 0.00522713 0 0)
(0.0232842 -0.00611987 0 0.00662695 0 0)
(0.0250432 -0.00766155 0 0.00837516 0 0)
(0.0270697 -0.00959091 0 0.0105893 0 0)
(0.0294289 -0.0120494 0 0.0134471 0 0)
(0.0321647 -0.0152126 0 0.0171692 0 0)
(0.0352148 -0.0192523 0 0.0221048 0 0)
(0.038453 -0.0243274 0 0.0286787 0 0)
(0.0415376 -0.0305071 0 0.0375521 0 0)
(0.0441189 -0.0377293 0 0.0493552 0 0)
(0.0454407 -0.0456031 0 0.0650081 0 0)
(0.0452442 -0.0534551 0 0.0848179 0 0)
(0.0425301 -0.06006 0 0.109424 0 0)
(0.00401513 -0.000641159 0 0.00203494 0 0)
(0.0213129 -0.00357945 0 0.00209005 0 0)
(0.0207807 -0.00396032 0 0.00254729 0 0)
(0.0192485 -0.00377091 0 0.00333556 0 0)
(0.0201091 -0.00407951 0 0.00437315 0 0)
(0.0213331 -0.00493912 0 0.00565729 0 0)
(0.0225999 -0.00615089 0 0.00722413 0 0)
(0.0240165 -0.00764079 0 0.00916293 0 0)
(0.0256328 -0.00947406 0 0.0116092 0 0)
(0.0274607 -0.0117741 0 0.0147464 0 0)
(0.0294829 -0.0146776 0 0.0187909 0 0)
(0.031592 -0.0182848 0 0.0240695 0 0)
(0.0336405 -0.0226606 0 0.0309474 0 0)
(0.0353392 -0.0277602 0 0.0399707 0 0)
(0.0364381 -0.033423 0 0.0515785 0 0)
(0.0364285 -0.0392192 0 0.0664234 0 0)
(0.0352749 -0.0445829 0 0.0845396 0 0)
(0.0323018 -0.0485636 0 0.106358 0 0)
(0.00405047 -0.000833976 0 0.00236804 0 0)
(0.021146 -0.00373839 0 0.00246698 0 0)
(0.0203574 -0.00405311 0 0.00288796 0 0)
(0.0186665 -0.00377036 0 0.00370625 0 0)
(0.019382 -0.00399691 0 0.00481207 0 0)
(0.0204338 -0.00478793 0 0.00620645 0 0)
(0.0214876 -0.00592687 0 0.00792432 0 0)
(0.0226288 -0.00731164 0 0.010048 0 0)
(0.0238779 -0.0089789 0 0.0127082 0 0)
(0.0252236 -0.0110265 0 0.0160814 0 0)
(0.0266258 -0.0135569 0 0.0203717 0 0)
(0.027978 -0.0166225 0 0.0258689 0 0)
(0.0291401 -0.0202197 0 0.0328701 0 0)
(0.0298866 -0.0242378 0 0.0418118 0 0)
(0.030034 -0.0284646 0 0.0529783 0 0)
(0.0292674 -0.0324982 0 0.0668378 0 0)
(0.0276434 -0.0358617 0 0.0832618 0 0)
(0.0247509 -0.0378653 0 0.102574 0 0)
(0.0041564 -0.000894294 0 0.00285465 0 0)
(0.021081 -0.00384073 0 0.00304827 0 0)
(0.0201506 -0.00402409 0 0.00351586 0 0)
(0.0183804 -0.00357314 0 0.00437773 0 0)
(0.0189264 -0.00364946 0 0.00555758 0 0)
(0.0196843 -0.00430557 0 0.00705363 0 0)
(0.0203617 -0.00528646 0 0.00889863 0 0)
(0.0210506 -0.00645104 0 0.0111783 0 0)
(0.0217536 -0.00780635 0 0.014016 0 0)
(0.0224605 -0.00942277 0 0.0175809 0 0)
(0.0231507 -0.0113714 0 0.0220542 0 0)
(0.0237408 -0.0136598 0 0.0276796 0 0)
(0.0241095 -0.0162353 0 0.0346748 0 0)
(0.0240858 -0.0189395 0 0.0433574 0 0)
(0.0235567 -0.0215592 0 0.0538715 0 0)
(0.0223553 -0.0237344 0 0.0665331 0 0)
(0.0206304 -0.0251336 0 0.0811005 0 0)
(0.0181043 -0.0252421 0 0.097838 0 0)
(0.00419792 -0.000611138 0 0.00280144 0 0)
(0.020914 -0.00419773 0 0.00323533 0 0)
(0.0197915 -0.00446452 0 0.00386853 0 0)
(0.0178442 -0.00399264 0 0.00489632 0 0)
(0.0182454 -0.00399735 0 0.00621459 0 0)
(0.0188396 -0.00453596 0 0.00783507 0 0)
(0.0192859 -0.00536107 0 0.00980908 0 0)
(0.0196585 -0.00632231 0 0.0122218 0 0)
(0.019973 -0.00740132 0 0.0151894 0 0)
(0.0202304 -0.00863346 0 0.0188593 0 0)
(0.0204098 -0.0100464 0 0.0233764 0 0)
(0.0204421 -0.0115982 0 0.0289285 0 0)
(0.0202394 -0.0131994 0 0.035656 0 0)
(0.0197072 -0.0146716 0 0.0437756 0 0)
(0.0188185 -0.0158406 0 0.0533143 0 0)
(0.0175186 -0.0164101 0 0.0644826 0 0)
(0.0160001 -0.0161989 0 0.0769745 0 0)
(0.0140743 -0.0148093 0 0.0910364 0 0)
(0.00428853 -0.000627949 0 0.00303881 0 0)
(0.0208651 -0.00421389 0 0.00325122 0 0)
(0.0194879 -0.00454377 0 0.00385942 0 0)
(0.0172872 -0.00400128 0 0.00493041 0 0)
(0.017398 -0.00390044 0 0.00631799 0 0)
(0.01769 -0.00431719 0 0.00802079 0 0)
(0.0178795 -0.00496536 0 0.0100803 0 0)
(0.0180363 -0.00565598 0 0.012573 0 0)
(0.0181117 -0.0063449 0 0.0155921 0 0)
(0.0180473 -0.00704868 0 0.0192518 0 0)
(0.0178182 -0.00777965 0 0.0236568 0 0)
(0.0174072 -0.00848344 0 0.0289389 0 0)
(0.0168057 -0.00907013 0 0.035169 0 0)
(0.0160118 -0.00937228 0 0.0424803 0 0)
(0.0150605 -0.00926237 0 0.0508198 0 0)
(0.0139754 -0.00850775 0 0.0603237 0 0)
(0.0129297 -0.0070442 0 0.0706753 0 0)
(0.0117926 -0.00457086 0 0.0821199 0 0)
(0.00439578 -0.000635203 0 0.00316888 0 0)
(0.0212412 -0.0043698 0 0.0034124 0 0)
(0.0195776 -0.00478386 0 0.00408916 0 0)
(0.0170802 -0.00417597 0 0.00524276 0 0)
(0.0169797 -0.00394296 0 0.006671 0 0)
(0.0170694 -0.00420223 0 0.00839625 0 0)
(0.0170171 -0.00463988 0 0.0104489 0 0)
(0.0168973 -0.00502629 0 0.0128769 0 0)
(0.0166948 -0.00529479 0 0.0157542 0 0)
(0.0163857 -0.00545985 0 0.0191721 0 0)
(0.0159651 -0.00553847 0 0.0231985 0 0)
(0.0154371 -0.00548425 0 0.0279152 0 0)
(0.0148114 -0.00521818 0 0.033337 0 0)
(0.0141249 -0.00460007 0 0.0395342 0 0)
(0.0134288 -0.00353899 0 0.0464101 0 0)
(0.012794 -0.00187087 0 0.0540613 0 0)
(0.0123561 0.000404294 0 0.0621855 0 0)
(0.0120493 0.00349927 0 0.0710319 0 0)
(0.00423579 -0.000640847 0 0.0032496 0 0)
(0.0209928 -0.00454724 0 0.00364464 0 0)
(0.0193356 -0.00487589 0 0.0040985 0 0)
(0.0167002 -0.0042585 0 0.00505881 0 0)
(0.0163191 -0.00401176 0 0.00634869 0 0)
(0.0160395 -0.00410812 0 0.00791254 0 0)
(0.0156252 -0.00423297 0 0.0097562 0 0)
(0.0152173 -0.00421493 0 0.0119197 0 0)
(0.0148297 -0.00402215 0 0.0144502 0 0)
(0.0144464 -0.00366737 0 0.0174 0 0)
(0.0140597 -0.00314678 0 0.0208003 0 0)
(0.0136741 -0.00241027 0 0.0246907 0 0)
(0.0133039 -0.00139186 0 0.0290551 0 0)
(0.0130022 -9.53901e-07 0 0.0339255 0 0)
(0.0128245 0.00181099 0 0.0392018 0 0)
(0.012855 0.00413088 0 0.0449594 0 0)
(0.0131927 0.00693495 0 0.0509554 0 0)
(0.0138096 0.0103399 0 0.0574061 0 0)
(0.00422634 -0.00046165 0 0.00299058 0 0)
(0.0211854 -0.004221 0 0.00336596 0 0)
(0.0190542 -0.00437479 0 0.00372972 0 0)
(0.0161311 -0.00346563 0 0.00456091 0 0)
(0.015603 -0.0028553 0 0.00564827 0 0)
(0.0151558 -0.00258227 0 0.00693597 0 0)
(0.0146177 -0.00235917 0 0.00843702 0 0)
(0.0141897 -0.00199754 0 0.0101824 0 0)
(0.0138937 -0.00142263 0 0.0121914 0 0)
(0.0137054 -0.000618205 0 0.0144743 0 0)
(0.0136162 0.000416892 0 0.017028 0 0)
(0.0136396 0.00170409 0 0.0198669 0 0)
(0.0138041 0.00326987 0 0.0229706 0 0)
(0.0141747 0.00516183 0 0.0263569 0 0)
(0.0148033 0.00738927 0 0.029946 0 0)
(0.0157676 0.0100019 0 0.0337935 0 0)
(0.0171257 0.0129504 0 0.0377193 0 0)
(0.0188718 0.0163199 0 0.041885 0 0)
(0.00451554 -0.000773162 0 0.00352164 0 0)
(0.0205645 -0.00384059 0 0.00351217 0 0)
(0.0181286 -0.00378568 0 0.00361419 0 0)
(0.0151755 -0.00290881 0 0.00423965 0 0)
(0.0145609 -0.00226233 0 0.00505481 0 0)
(0.0140796 -0.00188323 0 0.00600922 0 0)
(0.0135627 -0.00154208 0 0.00712415 0 0)
(0.0131866 -0.00106411 0 0.00840868 0 0)
(0.0129685 -0.000367818 0 0.00986002 0 0)
(0.0129016 0.000566745 0 0.0114797 0 0)
(0.0130057 0.00173602 0 0.0132643 0 0)
(0.0133203 0.00314357 0 0.0152193 0 0)
(0.0138844 0.00479254 0 0.0173264 0 0)
(0.0147531 0.00670157 0 0.0195969 0 0)
(0.0159648 0.00886274 0 0.0219749 0 0)
(0.0175691 0.0113022 0 0.0245017 0 0)
(0.0195978 0.0139742 0 0.0270618 0 0)
(0.0220446 0.0169373 0 0.0297574 0 0)
(0.00423729 -0.000621749 0 0.00313108 0 0)
(0.0204094 -0.00344871 0 0.0030188 0 0)
(0.0179684 -0.00321694 0 0.00301475 0 0)
(0.0150288 -0.00224153 0 0.00339157 0 0)
(0.0144001 -0.001534 0 0.00393098 0 0)
(0.0138918 -0.00108956 0 0.00460071 0 0)
(0.0133997 -0.00066855 0 0.00538424 0 0)
(0.0131232 -0.000108734 0 0.00626408 0 0)
(0.0130698 0.000652343 0 0.00723434 0 0)
(0.0132172 0.00161977 0 0.00830197 0 0)
(0.0135883 0.00277889 0 0.0094693 0 0)
(0.0142336 0.00412337 0 0.0107409 0 0)
(0.0151989 0.00565033 0 0.0121006 0 0)
(0.0165305 0.00737206 0 0.0135541 0 0)
(0.0182553 0.00928105 0 0.0150647 0 0)
(0.0204053 0.0113974 0 0.0166631 0 0)
(0.022998 0.013684 0 0.0182765 0 0)
(0.0260228 0.0161889 0 0.0199798 0 0)
(0.00405889 -0.000369588 0 0.00291566 0 0)
(0.0203385 -0.00293956 0 0.00234904 0 0)
(0.0178449 -0.00285478 0 0.00228259 0 0)
(0.0148481 -0.001993 0 0.00259387 0 0)
(0.0141736 -0.00130124 0 0.00304436 0 0)
(0.0136422 -0.000843126 0 0.00358749 0 0)
(0.0131576 -0.000427588 0 0.0041985 0 0)
(0.0129176 0.000104483 0 0.0048718 0 0)
(0.012943 0.000827684 0 0.00560981 0 0)
(0.0132341 0.00175059 0 0.00641699 0 0)
(0.013818 0.00285149 0 0.00728916 0 0)
(0.0147338 0.00411114 0 0.00822384 0 0)
(0.0160147 0.00551776 0 0.0092082 0 0)
(0.0176986 0.00707517 0 0.0102462 0 0)
(0.0198075 0.00877733 0 0.011311 0 0)
(0.0223686 0.0106388 0 0.0124245 0 0)
(0.0253964 0.0126269 0 0.0135333 0 0)
(0.0288764 0.0147746 0 0.0146845 0 0)
(0.00438828 -0.000540835 0 0.00254695 0 0)
(0.0199066 -0.00271752 0 0.00212486 0 0)
(0.0173108 -0.00242599 0 0.00195978 0 0)
(0.0143511 -0.00152769 0 0.00204899 0 0)
(0.0136909 -0.000850185 0 0.00226262 0 0)
(0.0131481 -0.000408499 0 0.00254855 0 0)
(0.0126752 -1.96674e-05 0 0.00287056 0 0)
(0.0125227 0.000453769 0 0.00322072 0 0)
(0.0127215 0.00107136 0 0.00361295 0 0)
(0.0132476 0.00183853 0 0.00405985 0 0)
(0.0141118 0.00273913 0 0.00455911 0 0)
(0.0153455 0.00375856 0 0.00510375 0 0)
(0.0169776 0.00489001 0 0.00568053 0 0)
(0.0190351 0.00613681 0 0.0062897 0 0)
(0.0215389 0.00749313 0 0.00691322 0 0)
(0.0244983 0.00896501 0 0.00756693 0 0)
(0.027934 0.0105301 0 0.00821955 0 0)
(0.0318035 0.0122037 0 0.00890379 0 0)
(0.00462331 -0.000708543 0 0.00225805 0 0)
(0.0197841 -0.00244734 0 0.0018205 0 0)
(0.0166666 -0.00186353 0 0.00166396 0 0)
(0.013707 -0.000913133 0 0.00178072 0 0)
(0.0133222 -0.000227747 0 0.00198359 0 0)
(0.0130552 0.000221612 0 0.00221949 0 0)
(0.0128264 0.000621748 0 0.00246909 0 0)
(0.0129447 0.0011056 0 0.00273491 0 0)
(0.0134888 0.00172703 0 0.00302336 0 0)
(0.0144426 0.00248138 0 0.00333602 0 0)
(0.015796 0.00334518 0 0.00366773 0 0)
(0.0175607 0.00430119 0 0.00401662 0 0)
(0.019757 0.00534108 0 0.00438035 0 0)
(0.0224109 0.00646789 0 0.00476535 0 0)
(0.0255342 0.00767265 0 0.00516341 0 0)
(0.0291272 0.00896003 0 0.00558946 0 0)
(0.0331914 0.0103081 0 0.00602076 0 0)
(0.0376868 0.0117386 0 0.00646859 0 0)
(0.00495386 -0.000561015 0 0.00200034 0 0)
(0.0198067 -0.00212657 0 0.00143606 0 0)
(0.0164657 -0.00166008 0 0.00115443 0 0)
(0.013431 -0.000934585 0 0.00114154 0 0)
(0.0129805 -0.00041322 0 0.00120602 0 0)
(0.0126487 -8.74643e-05 0 0.00127051 0 0)
(0.012406 0.000173058 0 0.00134059 0 0)
(0.0125765 0.000478912 0 0.00144304 0 0)
(0.0132128 0.000884314 0 0.00158446 0 0)
(0.0142707 0.00139222 0 0.00175246 0 0)
(0.0157377 0.00198137 0 0.00193311 0 0)
(0.0176347 0.00263644 0 0.00212281 0 0)
(0.0199926 0.00335133 0 0.00232235 0 0)
(0.0228304 0.0041272 0 0.00253657 0 0)
(0.0261522 0.00495996 0 0.00276031 0 0)
(0.0299433 0.0058517 0 0.00300044 0 0)
(0.0342085 0.00678663 0 0.00324334 0 0)
(0.0388982 0.00778166 0 0.00349665 0 0)
(0.00476037 -0.000451382 0 0.0018765 0 0)
(0.0195386 -0.00163097 0 0.00113903 0 0)
(0.0158808 -0.00134783 0 0.000852618 0 0)
(0.0129336 -0.000702828 0 0.000896911 0 0)
(0.0126733 -0.000151333 0 0.000965129 0 0)
(0.0125516 0.000210414 0 0.00100416 0 0)
(0.0126174 0.00048944 0 0.00103469 0 0)
(0.0132014 0.000788323 0 0.00107972 0 0)
(0.0143116 0.00115696 0 0.0011433 0 0)
(0.0158625 0.00160071 0 0.0012198 0 0)
(0.0178346 0.00210526 0 0.00130449 0 0)
(0.020266 0.00265992 0 0.00139744 0 0)
(0.0231977 0.0032598 0 0.00150031 0 0)
(0.0266457 0.00390502 0 0.00161684 0 0)
(0.0306069 0.00459026 0 0.00174371 0 0)
(0.0350558 0.00531715 0 0.00188493 0 0)
(0.0399992 0.00607102 0 0.00203214 0 0)
(0.0453746 0.00686363 0 0.0021896 0 0)
(0.00353658 -0.000511572 0 0.0015245 0 0)
(0.0182419 -0.000904681 0 0.00072864 0 0)
(0.0147712 -0.000569358 0 0.000427491 0 0)
(0.0121974 -0.000209196 0 0.000400615 0 0)
(0.0121972 6.95643e-05 0 0.000397719 0 0)
(0.0122876 0.000221294 0 0.000400553 0 0)
(0.0125853 0.000331085 0 0.000421307 0 0)
(0.013432 0.000468717 0 0.000451784 0 0)
(0.0148393 0.000654479 0 0.000483718 0 0)
(0.0167315 0.000882631 0 0.000515967 0 0)
(0.0190972 0.00114498 0 0.000551288 0 0)
(0.021971 0.00143694 0 0.000593099 0 0)
(0.0253822 0.00175705 0 0.000642635 0 0)
(0.0293291 0.00210676 0 0.000701076 0 0)
(0.0337964 0.00248297 0 0.000766771 0 0)
(0.0387491 0.00288647 0 0.000841808 0 0)
(0.0441937 0.00330525 0 0.000922857 0 0)
(0.050064 0.00374832 0 0.00101166 0 0)
(0.00485892 -0.000539896 0 0.0011341 0 0)
(0.0183125 -0.00105403 0 0.000503759 0 0)
(0.0142314 -0.000789475 0 0.000397827 0 0)
(0.0119617 -0.000326174 0 0.000375451 0 0)
(0.0122519 -7.77642e-06 0 0.000327878 0 0)
(0.012596 0.00016645 0 0.000283616 0 0)
(0.0132884 0.000297139 0 0.000261705 0 0)
(0.0146776 0.000429793 0 0.000255916 0 0)
(0.0167027 0.00056742 0 0.000258118 0 0)
(0.0192313 0.000710615 0 0.000264848 0 0)
(0.0222309 0.000866518 0 0.000276247 0 0)
(0.0257426 0.00104221 0 0.000293531 0 0)
(0.0298055 0.00124202 0 0.00031766 0 0)
(0.0344302 0.00146652 0 0.000349117 0 0)
(0.0395922 0.00171091 0 0.000387381 0 0)
(0.0452597 0.00196937 0 0.00043413 0 0)
(0.0514192 0.00223324 0 0.000487928 0 0)
(0.058015 0.00250537 0 0.000547915 0 0)
(0.00354262 -0.000116159 0 0.000890643 0 0)
(0.0169286 0.000118898 0 0.000218911 0 0)
(0.0130658 -5.97501e-06 0 0.000150057 0 0)
(0.0111334 3.73102e-05 0 0.000143175 0 0)
(0.0117302 2.64083e-05 0 0.000147566 0 0)
(0.0123839 -3.23253e-05 0 0.000154516 0 0)
(0.0133491 -0.000106197 0 0.000162009 0 0)
(0.0149137 -0.000180975 0 0.000170354 0 0)
(0.0169687 -0.000250228 0 0.000180912 0 0)
(0.0193617 -0.000308332 0 0.000193667 0 0)
(0.0220428 -0.000349954 0 0.000207827 0 0)
(0.0250518 -0.000372541 0 0.000223072 0 0)
(0.0284136 -0.000373075 0 0.000239682 0 0)
(0.0321717 -0.00034823 0 0.000258679 0 0)
(0.0362881 -0.000294879 0 0.000280366 0 0)
(0.0408088 -0.000213655 0 0.000306269 0 0)
(0.0456569 -0.000106217 0 0.000336248 0 0)
(0.0509364 2.76639e-05 0 0.000369095 0 0)
(0.00443797 -0.000324861 0 0.000744603 0 0)
(0.018312 -4.94802e-05 0 0.000236375 0 0)
(0.0160291 2.72199e-05 0 0.000147304 0 0)
(0.0152463 0.000117335 0 0.000106995 0 0)
(0.0166104 0.000142406 0 8.46357e-05 0 0)
(0.017895 0.000161149 0 7.09754e-05 0 0)
(0.0191818 0.000187754 0 6.17635e-05 0 0)
(0.0207687 0.000216058 0 5.62231e-05 0 0)
(0.0227588 0.000242367 0 5.3467e-05 0 0)
(0.025181 0.000267988 0 5.27179e-05 0 0)
(0.0280462 0.00029752 0 5.38024e-05 0 0)
(0.0313658 0.000336684 0 5.64739e-05 0 0)
(0.0351755 0.000390085 0 6.01174e-05 0 0)
(0.0395326 0.000459393 0 6.43091e-05 0 0)
(0.0445262 0.000543259 0 6.91928e-05 0 0)
(0.0501841 0.00063897 0 7.52292e-05 0 0)
(0.0566094 0.00074361 0 8.17514e-05 0 0)
(0.0637127 0.000858772 0 8.79146e-05 0 0)
(0.000543243 -0.00119247 1.24491e-22 0.00269583 -2.41796e-22 1.6435e-37)
(0.00485797 -0.00376746 -3.21781e-22 0.00314159 1.77299e-22 1.62051e-37)
(0.0136354 -0.00621224 0 0.00364006 0 0)
(0.0284301 -0.0101941 0 0.00486047 0 0)
(0.052845 -0.0157434 0 0.00584512 0 0)
(0.0893758 -0.0221059 8.12329e-22 0.00637036 -9.54698e-23 1.52639e-37)
(0.139084 -0.028651 0 0.0065196 0 0)
(0.202216 -0.0350268 0 0.00644605 0 0)
(0.278493 -0.0410258 0 0.00626035 0 0)
(0.367349 -0.0464887 0 0.0060095 0 0)
(0.467877 -0.0512155 -1.35083e-21 0.00569901 1.09756e-22 1.41385e-37)
(0.578653 -0.0549148 0 0.00531411 0 0)
(0.697442 -0.0572009 0 0.00483836 0 0)
(0.821129 -0.0576467 0 0.00426951 0 0)
(0.945473 -0.055829 0 0.00362734 0 0)
(1.06547 -0.0514125 -1.96749e-21 0.00296305 1.56627e-22 1.30683e-37)
(1.17522 -0.044214 0 0.00235983 0 0)
(1.26929 -0.0343039 0 0.00193536 0 0)
(1.34251 -0.0220598 0 0.00182773 0 0)
(1.38867 -0.00837662 0 0.00217233 0 0)
(1.40605 0.00528622 0 0.00304889 0 0)
(1.39578 0.0171812 0 0.00442643 0 0)
(1.36235 0.0255877 0 0.00614573 0 0)
(1.31329 0.0291175 -3.89145e-21 0.00793832 3.13224e-22 1.14691e-37)
(1.25814 0.0268896 4.22118e-21 0.00949315 -3.17895e-22 1.1279e-37)
(1.20657 0.0186074 -4.55442e-21 0.0105904 3.13966e-22 1.1091e-37)
(1.16808 0.00509637 -4.8835e-21 0.0113679 3.02723e-22 1.09052e-37)
(1.15136 -0.0134406 0 0.012313 0 0)
(1.16375 -0.0357969 0 0.0153619 0 0)
(1.2096 -0.0655723 5.76582e-21 0.0209216 -2.06827e-22 1.03606e-37)
(1.30246 -0.102377 5.99642e-21 0.0301997 -1.48729e-22 1.01833e-37)
(1.44265 -0.13571 0 0.0423832 0 0)
(1.61387 -0.158713 0 0.0514574 0 0)
(1.79709 -0.168731 6.58878e-21 0.0545432 -1.19016e-22 9.66449e-38)
(1.98902 -0.166008 0 0.0534861 0 0)
(2.19163 -0.163821 0 0.0543514 0 0)
(2.40569 -0.174001 -7.27953e-21 0.0574417 1.97003e-22 9.1649e-38)
(2.62121 -0.185508 0 0.0608041 0 0)
(2.83656 -0.179032 -7.80376e-21 0.0601951 2.10902e-22 8.84249e-38)
(3.03683 -0.173108 -1.61688e-20 0.0638703 4.56408e-22 3.47379e-37)
(3.22381 -0.177028 0 0.0586968 0 0)
(3.41506 -0.147858 0 0.0442421 0 0)
(3.59633 -0.103126 0 0.0342096 0 0)
(3.77899 -0.0932473 0 0.0318914 0 0)
(4.00487 -0.107264 0 0.0273458 0 0)
(4.26484 -0.116064 -1.91604e-20 0.0235793 3.97411e-22 3.1121e-37)
(4.54349 -0.120253 -1.94795e-20 0.02056 3.49785e-22 3.05471e-37)
(4.83137 -0.120812 -1.9739e-20 0.0175494 3.03982e-22 2.99813e-37)
(5.11816 -0.11758 0 0.0145046 0 0)
(5.39368 -0.110625 2.00779e-20 0.0117342 -2.16472e-22 2.88741e-37)
(5.64927 -0.100752 0 0.00938491 0 0)
(5.87807 -0.0888492 -2.01742e-20 0.00746153 1.3763e-22 2.77989e-37)
(6.07642 -0.0757525 -2.01337e-20 0.00592433 1.0243e-22 2.72731e-37)
(6.2407 -0.0621427 0 0.00471667 0 0)
(6.37002 -0.0486117 0 0.00378099 0 0)
(6.46448 -0.0355981 0 0.00306447 0 0)
(6.52536 -0.0233987 -1.94442e-20 0.00252076 -5.75003e-24 2.52473e-37)
(6.55403 -0.0122433 0 0.00211323 0 0)
(6.55362 -0.0022388 0 0.00180963 0 0)
(6.52642 0.00655692 0 0.00158639 0 0)
(6.47549 0.0141152 0 0.00142457 0 0)
(6.40403 0.0204301 0 0.00130987 0 0)
(6.31515 0.0255771 0 0.00122879 0 0)
(6.21193 0.0296598 0 0.0011712 0 0)
(6.09698 0.0328215 0 0.00112841 0 0)
(5.97279 0.0351947 1.61224e-20 0.00109493 8.64485e-23 2.11241e-37)
(5.84133 0.0369427 0 0.00106587 0 0)
(5.7042 0.0382181 0 0.00103899 0 0)
(5.56249 0.0391729 -1.48947e-20 0.00101378 -8.56583e-23 1.98765e-37)
(5.41689 0.0399421 -1.44944e-20 0.000991291 -8.44987e-23 1.9474e-37)
(5.26772 0.0406281 0 0.000973429 0 0)
(5.11509 0.0413056 1.37113e-20 0.000961415 8.18183e-23 1.86889e-37)
(4.95887 0.0420283 -1.33289e-20 0.00095527 -8.04739e-23 1.8306e-37)
(4.79879 0.0428343 0 0.000953902 0 0)
(4.63439 0.0437586 1.25816e-20 0.000955393 7.80985e-23 1.75592e-37)
(4.4651 0.0448298 0 0.000958823 0 0)
(4.29026 0.0460505 0 0.000965707 0 0)
(4.10927 0.0473746 -1.14993e-20 0.000978655 -7.56599e-23 1.64853e-37)
(3.92189 0.04869 0 0.00100043 0 0)
(3.72841 0.0498407 1.0801e-20 0.00103051 7.41234e-23 1.57993e-37)
(3.52974 0.0506756 0 0.00106519 0 0)
(3.32728 0.0510742 -1.01261e-20 0.00109822 -7.14517e-23 1.51366e-37)
(3.12283 0.0509731 -9.80029e-21 0.00112234 -6.94876e-23 1.48138e-37)
(2.9183 0.0503739 -9.48391e-21 0.00113252 -6.71046e-23 1.44965e-37)
(2.71547 0.0493318 -1.8356e-20 0.00112727 -1.28719e-22 5.6739e-37)
(2.51588 0.0479256 1.77667e-20 0.00110865 1.22651e-22 5.55137e-37)
(2.32076 0.0462297 0 0.00108069 0 0)
(2.13119 0.0442947 0 0.00104712 0 0)
(1.94818 0.0421566 0 0.00101065 0 0)
(1.77269 0.039839 1.56524e-20 0.000972508 9.54411e-23 5.08233e-37)
(1.6056 0.037356 1.51869e-20 0.000931803 8.83732e-23 4.9702e-37)
(1.44769 0.0347348 -1.47468e-20 0.000887656 -8.1342e-23 4.86007e-37)
(1.29963 0.0320168 0 0.000839513 0 0)
(1.16188 0.0292436 1.39406e-20 0.000786828 6.764e-23 4.64565e-37)
(1.03469 0.026476 1.35729e-20 0.000730726 6.10978e-23 4.54132e-37)
(0.91812 0.0237584 1.32273e-20 0.000671985 5.48252e-23 4.43886e-37)
(0.812052 0.0211305 0 0.000611681 0 0)
(0.716246 0.0186394 0 0.000552004 0 0)
(0.630302 0.0162803 0 0.000492245 0 0)
(0.553755 0.0140951 1.20406e-20 0.000435048 3.29218e-23 4.04727e-37)
(0.486133 0.0120561 0 0.000378645 0 0)
(0.42688 0.0101881 0 0.000324873 0 0)
(0.375434 0.00848075 -1.13215e-20 0.000273339 -1.97757e-23 3.77196e-37)
(0.331179 0.00693654 0 0.000224627 0 0)
(0.293489 0.00556204 0 0.000179787 0 0)
(0.261722 0.00435927 -1.07162e-20 0.000139722 -9.19734e-24 3.51162e-37)
(0.235204 0.0033259 0 0.000105182 0 0)
(0.213258 0.00245427 0 7.65769e-05 0 0)
(0.195233 0.00173158 1.01998e-20 5.38827e-05 1.31819e-24 3.26557e-37)
(0.180524 0.00114128 1.00435e-20 3.66746e-05 -7.04039e-25 3.18661e-37)
(0.16859 0.000664938 0 2.42419e-05 0 0)
(0.158963 0.000284007 -9.75029e-21 1.57325e-05 3.91803e-24 3.03315e-37)
(0.151246 -1.87115e-05 0 1.02895e-05 0 0)
(0.145109 -0.000258396 9.47861e-21 7.13381e-06 -6.16196e-24 2.88547e-37)
(0.140285 -0.000447681 0 5.61396e-06 0 0)
(0.136554 -0.000596916 9.22419e-21 5.21195e-06 -7.61623e-24 2.74338e-37)
(0.13374 -0.000714385 9.10234e-21 5.52901e-06 -8.10225e-24 2.67438e-37)
(0.131699 -0.000806406 0 6.27414e-06 0 0)
(0.130315 -0.00087846 0 7.23571e-06 0 0)
(0.129491 -0.000934784 0 8.27125e-06 0 0)
(0.129152 -0.000978884 0 9.29135e-06 0 0)
(0.129233 -0.00101334 0 1.02397e-05 0 0)
(0.129677 -0.0010376 0 1.10336e-05 0 0)
(0.130423 -0.00104968 0 1.15548e-05 0 0)
(0.131417 -0.00105002 8.21402e-21 1.17567e-05 -8.3063e-24 2.16861e-37)
(0.132611 -0.00104049 -8.11014e-21 1.16679e-05 8.00124e-24 2.11086e-37)
(0.133964 -0.00102282 0 1.13416e-05 0 0)
(0.135435 -0.000998396 0 1.08312e-05 0 0)
(0.136991 -0.000968144 0 1.01805e-05 0 0)
(0.138601 -0.000932997 0 9.43274e-06 0 0)
(0.140237 -0.000893628 -1.52049e-20 8.61988e-06 1.21889e-23 7.35623e-37)
(0.141876 -0.000850599 0 7.76718e-06 0 0)
(0.143495 -0.000804508 1.48061e-20 6.89849e-06 -1.05858e-23 6.95158e-37)
(0.145075 -0.00075605 -1.46078e-20 6.03716e-06 9.80694e-24 6.75545e-37)
(0.146599 -0.000706 0 5.20546e-06 0 0)
(0.148056 -0.000655229 0 4.42358e-06 0 0)
(0.149434 -0.000604617 0 3.70763e-06 0 0)
(0.15073 -0.000554987 1.3821e-20 3.0682e-06 -7.02277e-24 6.01076e-37)
(0.151939 -0.000507057 1.36258e-20 2.5102e-06 -6.4352e-24 5.83422e-37)
(0.153062 -0.000461396 0 2.03327e-06 0 0)
(0.154102 -0.000418434 1.32373e-20 1.63318e-06 -5.40306e-24 5.49225e-37)
(0.155061 -0.000378421 1.30441e-20 1.30272e-06 -4.95709e-24 5.32671e-37)
(0.155946 -0.000341442 -1.28516e-20 1.03293e-06 4.5538e-24 5.16471e-37)
(0.156762 -0.000307466 0 8.14646e-07 0 0)
(0.157515 -0.0002764 0 6.39355e-07 0 0)
(0.158212 -0.000248159 -1.2279e-20 4.99925e-07 3.57081e-24 4.69945e-37)
(0.158857 -0.000222631 0 3.90039e-07 0 0)
(0.159458 -0.000199639 0 3.04004e-07 0 0)