/*--------------------------------*- C++ -*----------------------------------*\
  =========                 |
  \\      /  F ield         | OpenFOAM: The Open Source CFD Toolbox
   \\    /   O peration     | Website:  https://openfoam.org
    \\  /    A nd           | Version:  7
     \\/     M anipulation  |
\*---------------------------------------------------------------------------*/
FoamFile
{
    version     2.0;
    format      ascii;
    class       volScalarField;
    location    "0.004";
    object      k_0;
}
// * * * * * * * * * * * * * * * * * * * * * * * * * * * * * * * * * * * * * //

dimensions      [0 2 -2 0 0 0 0];

internalField   nonuniform List<scalar> 
12225
(
1.92751e-05
1.83412e-05
1.68402e-05
1.48329e-05
1.3815e-05
1.41061e-05
1.98365e-05
7.77764e-05
0.000277703
0.000730668
0.00100389
0.00116919
0.00103904
0.00099666
0.000932135
0.00109696
0.00144143
0.00494758
1.99804e-05
1.98916e-05
1.97234e-05
1.9343e-05
1.89006e-05
1.88494e-05
1.92172e-05
2.2085e-05
3.13767e-05
5.7381e-05
0.000103169
0.000138646
0.000141469
0.000140639
0.000130881
0.000129645
0.000125646
0.000169931
2e-05
1.92663e-05
1.88841e-05
1.8807e-05
1.87699e-05
1.87737e-05
1.88172e-05
1.89704e-05
1.93804e-05
2.0594e-05
2.37375e-05
2.61489e-05
2.67014e-05
2.66837e-05
2.63498e-05
2.62728e-05
2.57996e-05
2.6441e-05
2.02154e-05
1.99129e-05
1.8645e-05
1.76089e-05
1.67743e-05
1.67702e-05
1.69018e-05
1.70604e-05
1.70741e-05
1.69641e-05
1.63437e-05
1.5808e-05
1.58221e-05
1.6229e-05
1.74678e-05
2.0594e-05
2.18608e-05
2.45247e-05
2.088e-05
2.08989e-05
2.05526e-05
2.0671e-05
2.11058e-05
2.12158e-05
2.11072e-05
2.04156e-05
1.87327e-05
1.77105e-05
1.79017e-05
1.99348e-05
2.53534e-05
2.90044e-05
3.07001e-05
3.13729e-05
3.14948e-05
3.13249e-05
2.04969e-05
2.08283e-05
2.10251e-05
2.16082e-05
2.17805e-05
2.16579e-05
2.09956e-05
2.04473e-05
2.03647e-05
2.0633e-05
2.20079e-05
2.61839e-05
2.96026e-05
3.1327e-05
3.2043e-05
3.22087e-05
3.21776e-05
3.19058e-05
2.01334e-05
2.08131e-05
2.12775e-05
2.14629e-05
2.14166e-05
2.10904e-05
2.07529e-05
2.06323e-05
2.06641e-05
2.09467e-05
2.19408e-05
2.47644e-05
2.78662e-05
3.00105e-05
3.11643e-05
3.1592e-05
3.16469e-05
3.15116e-05
2.05736e-05
2.04174e-05
2.08382e-05
2.26512e-05
2.37569e-05
2.37647e-05
2.33649e-05
2.30605e-05
2.30509e-05
2.31537e-05
2.34807e-05
2.42796e-05
2.6806e-05
2.9764e-05
3.1424e-05
3.21519e-05
3.23546e-05
3.2301e-05
2.08367e-05
2.06491e-05
2.0673e-05
2.1549e-05
2.3322e-05
2.36514e-05
2.3453e-05
2.29333e-05
2.27974e-05
2.28572e-05
2.33174e-05
2.51878e-05
2.84289e-05
3.09804e-05
3.27333e-05
3.36691e-05
3.39825e-05
3.39589e-05
2.15196e-05
2.12652e-05
2.15373e-05
2.33057e-05
2.40254e-05
2.37618e-05
2.29464e-05
2.24065e-05
2.22992e-05
2.23212e-05
2.2512e-05
2.32818e-05
2.59209e-05
3.00368e-05
3.29483e-05
3.45332e-05
3.50713e-05
3.50638e-05
2.08268e-05
2.1052e-05
2.12163e-05
2.1423e-05
2.12676e-05
2.09765e-05
2.1048e-05
2.19638e-05
2.42756e-05
2.52788e-05
2.56753e-05
2.63009e-05
2.80698e-05
3.18871e-05
3.44695e-05
3.56496e-05
3.59547e-05
3.58934e-05
2.07727e-05
2.08284e-05
2.14627e-05
2.16698e-05
2.14391e-05
2.10491e-05
2.10071e-05
2.1117e-05
2.14898e-05
2.18866e-05
2.25617e-05
2.39814e-05
2.766e-05
3.1665e-05
3.42763e-05
3.56598e-05
3.61561e-05
3.61521e-05
2.01783e-05
2.03803e-05
2.10899e-05
2.13457e-05
2.11905e-05
2.0933e-05
2.09184e-05
2.10607e-05
2.13976e-05
2.16963e-05
2.22117e-05
2.33519e-05
2.67935e-05
3.21957e-05
3.59875e-05
3.80877e-05
3.88929e-05
3.89411e-05
2.0118e-05
2.04382e-05
2.08935e-05
2.12409e-05
2.13063e-05
2.15212e-05
2.21924e-05
2.24298e-05
2.2377e-05
2.23351e-05
2.2441e-05
2.31301e-05
2.59659e-05
3.21857e-05
3.67489e-05
3.92882e-05
4.02879e-05
4.03849e-05
2.02504e-05
2.04891e-05
2.05268e-05
2.06186e-05
2.06654e-05
2.10089e-05
2.20449e-05
2.26293e-05
2.27681e-05
2.28309e-05
2.2987e-05
2.35818e-05
2.5835e-05
3.23721e-05
3.83825e-05
4.19351e-05
4.35312e-05
4.38293e-05
2.17902e-05
2.11943e-05
2.05099e-05
2.04653e-05
2.05732e-05
2.08773e-05
2.10388e-05
2.109e-05
2.11374e-05
2.12409e-05
2.15441e-05
2.25372e-05
2.58684e-05
3.43527e-05
4.15807e-05
4.60406e-05
4.82071e-05
4.87419e-05
2.07531e-05
2.05472e-05
2.047e-05
2.03705e-05
2.03393e-05
2.03663e-05
2.05e-05
2.06446e-05
2.07915e-05
2.10537e-05
2.1582e-05
2.28295e-05
2.63581e-05
3.59488e-05
4.49636e-05
5.03999e-05
5.28268e-05
5.3347e-05
2.00247e-05
2.02589e-05
2.07798e-05
2.09489e-05
2.09317e-05
2.07979e-05
2.07653e-05
2.0861e-05
2.13002e-05
2.17511e-05
2.23235e-05
2.35409e-05
2.67884e-05
3.6479e-05
4.63391e-05
5.17986e-05
5.40675e-05
5.45036e-05
2.03645e-05
2.04353e-05
2.04133e-05
2.03855e-05
2.03215e-05
2.03153e-05
2.04267e-05
2.097e-05
2.12885e-05
2.15585e-05
2.2152e-05
2.37315e-05
2.8675e-05
3.89751e-05
4.66607e-05
5.10042e-05
5.26734e-05
5.28968e-05
2.05171e-05
2.04174e-05
2.03947e-05
2.04895e-05
2.0634e-05
2.06999e-05
2.07273e-05
2.07512e-05
2.07867e-05
2.08836e-05
2.12222e-05
2.23365e-05
2.59355e-05
3.53371e-05
4.33912e-05
4.79431e-05
4.97246e-05
4.99924e-05
2.05343e-05
2.05326e-05
2.04118e-05
2.03705e-05
2.03168e-05
2.03064e-05
2.03162e-05
2.0355e-05
2.04248e-05
2.06074e-05
2.10998e-05
2.24885e-05
2.69065e-05
3.72692e-05
4.52891e-05
4.95894e-05
5.10672e-05
5.1183e-05
2.06992e-05
2.05328e-05
2.03997e-05
2.03894e-05
2.04112e-05
2.05153e-05
2.06191e-05
2.0671e-05
2.07376e-05
2.08848e-05
2.13012e-05
2.26407e-05
2.74176e-05
3.53721e-05
4.01781e-05
4.21319e-05
4.25054e-05
4.23676e-05
2.03534e-05
2.04197e-05
2.04475e-05
2.05469e-05
2.09126e-05
2.12879e-05
2.13494e-05
2.13101e-05
2.11359e-05
2.1109e-05
2.12262e-05
2.18377e-05
2.41614e-05
3.02076e-05
3.50475e-05
3.7588e-05
3.84285e-05
3.84481e-05
2.00326e-05
2.01283e-05
2.01887e-05
2.02372e-05
2.03925e-05
2.09872e-05
2.13644e-05
2.13564e-05
2.11226e-05
2.09425e-05
2.10047e-05
2.14863e-05
2.33621e-05
2.90449e-05
3.49417e-05
3.87338e-05
4.0534e-05
4.08958e-05
2.00047e-05
2.00434e-05
2.00703e-05
2.00989e-05
2.0196e-05
2.05692e-05
2.12733e-05
2.15948e-05
2.15329e-05
2.13246e-05
2.13625e-05
2.18453e-05
2.38043e-05
3.00833e-05
3.72461e-05
4.18759e-05
4.40676e-05
4.45138e-05
2.01773e-05
2.01679e-05
2.00491e-05
2.00572e-05
2.02937e-05
2.05009e-05
2.04778e-05
2.04887e-05
2.05538e-05
2.06998e-05
2.10116e-05
2.18116e-05
2.41262e-05
3.01597e-05
3.61131e-05
4.01693e-05
4.20465e-05
4.23231e-05
2.00797e-05
2.00404e-05
1.9986e-05
1.99484e-05
1.98548e-05
1.96437e-05
1.91058e-05
1.85882e-05
1.84199e-05
1.84822e-05
1.88844e-05
2.00753e-05
2.31038e-05
2.74334e-05
3.10157e-05
3.31942e-05
3.39335e-05
3.3756e-05
2.01721e-05
1.86008e-05
1.51829e-05
1.55055e-05
1.78617e-05
2.40467e-05
2.89195e-05
3.12041e-05
3.36027e-05
3.81731e-05
4.80531e-05
7.13427e-05
8.74788e-05
0.000103117
0.000117348
0.000118953
0.000116903
0.000109331
3.21401e-05
9.6838e-05
0.000122103
0.000177886
0.000293451
0.000369735
0.000387334
0.000387687
0.000392178
0.000414643
0.000499183
0.000572312
0.00058115
0.00057379
0.000549235
0.000497653
0.000407861
0.000311038
0.0026366
0.00252628
0.00222819
0.00211137
0.00207742
0.0020398
0.00193958
0.00176149
0.00164712
0.00158374
0.0015032
0.00133636
0.00108433
0.000811164
0.000564121
0.000369471
0.000229264
0.000137732
2.74973e-07
3.02958e-07
1.83828e-07
9.55803e-08
5.5091e-08
3.26397e-08
2.46978e-08
2.1187e-08
1.83912e-08
1.55148e-08
1.3054e-08
1.1353e-08
1.00023e-08
8.71927e-09
7.46864e-09
6.31526e-09
5.29368e-09
4.38437e-09
3.61418e-09
3.02671e-09
2.6148e-09
2.3272e-09
2.10876e-09
1.92264e-09
1.7499e-09
1.58292e-09
1.41996e-09
1.26226e-09
1.11177e-09
9.70208e-10
8.38936e-10
7.18852e-10
6.10434e-10
5.1378e-10
4.28662e-10
3.54589e-10
2.90858e-10
2.36629e-10
1.90975e-10
1.5293e-10
1.21525e-10
9.58333e-11
7.50002e-11
5.82578e-11
4.49233e-11
3.4396e-11
2.61548e-11
1.97547e-11
1.48225e-11
1.10496e-11
8.18436e-12
6.02364e-12
4.4054e-12
3.2016e-12
2.31202e-12
1.65894e-12
1.18262e-12
8.3748e-13
5.8904e-13
4.11401e-13
2.8525e-13
1.96292e-13
1.34017e-13
9.07496e-14
6.0935e-14
4.05473e-14
2.6752e-14
1.75158e-14
1.13968e-14
7.38443e-15
4.77861e-15
3.10114e-15
2.02989e-15
1.3506e-15
9.22494e-16
6.54098e-16
4.86589e-16
3.82455e-16
3.17959e-16
2.78183e-16
2.53813e-16
2.39065e-16
2.30354e-16
2.25461e-16
2.23009e-16
2.22118e-16
2.22045e-16
2.22045e-16
2.22045e-16
2.22045e-16
2.22045e-16
2.22045e-16
2.22045e-16
2.22045e-16
2.22045e-16
2.22045e-16
2.22045e-16
2.22045e-16
2.22045e-16
2.22045e-16
2.22045e-16
2.22045e-16
2.22045e-16
2.22045e-16
2.22045e-16
2.22045e-16
2.22045e-16
2.22045e-16
2.22045e-16
2.22045e-16
2.22045e-16
2.22045e-16
2.22045e-16
2.22045e-16
2.22045e-16
2.22045e-16
2.22045e-16
2.22045e-16
2.22045e-16
2.22045e-16
2.22045e-16
2.22045e-16
2.22045e-16
2.22045e-16
2.22045e-16
2.22045e-16
2.22045e-16
2.22045e-16
2.22045e-16
2.22045e-16
2.22045e-16
2.22045e-16
2.22045e-16
2.22045e-16
2.22045e-16
2.22045e-16
2.22045e-16
2.22045e-16
2.22045e-16
2.22045e-16
2.22045e-16
2.22045e-16
2.22045e-16
2.22045e-16
2.22045e-16
2.22045e-16
2.22045e-16
2.22045e-16
2.22045e-16
2.22045e-16
2.22045e-16
2.22045e-16
2.22045e-16
2.22045e-16
2.22045e-16
2.22045e-16
2.22045e-16
2.22045e-16
2.22045e-16
2.25012e-16
2.72922e-16
1.13156e-15
1.2267e-14
1.05209e-13
6.5563e-13
3.18236e-12
1.27633e-11
4.43191e-11
1.37859e-10
4.02829e-10
1.11899e-09
2.60392e-09
5.89224e-09
1.2218e-08
2.5706e-08
5.76413e-08
1.37892e-07
1.75781e-07
1.61482e-07
2.25643e-07
1.00848e-06
9.97052e-07
1.39011e-06
1.32596e-06
9.26208e-07
6.04283e-07
4.93037e-07
4.3881e-07
3.91804e-07
3.39943e-07
2.86792e-07
2.46164e-07
2.20129e-07
1.95791e-07
1.71967e-07
1.49632e-07
1.29478e-07
1.11204e-07
9.50923e-08
8.19218e-08
7.18394e-08
6.42156e-08
5.81913e-08
5.31205e-08
4.86005e-08
4.43938e-08
4.03206e-08
3.63319e-08
3.24679e-08
2.87752e-08
2.52928e-08
2.20504e-08
1.90684e-08
1.63579e-08
1.39221e-08
1.17572e-08
9.85325e-09
8.19588e-09
6.76755e-09
5.54865e-09
4.51787e-09
3.65307e-09
2.93306e-09
2.33837e-09
1.85126e-09
1.45566e-09
1.13702e-09
8.8237e-10
6.80355e-10
5.21238e-10
3.96782e-10
3.00105e-10
2.25517e-10
1.68358e-10
1.24848e-10
9.19502e-11
6.72447e-11
4.88189e-11
3.51734e-11
2.51409e-11
1.78203e-11
1.25203e-11
8.71522e-12
6.00674e-12
4.09782e-12
2.7644e-12
1.84823e-12
1.22619e-12
8.07944e-13
5.29165e-13
3.44776e-13
2.23635e-13
1.44515e-13
9.31034e-14
5.98431e-14
3.84046e-14
2.46287e-14
1.57992e-14
1.01515e-14
6.54451e-15
4.2438e-15
2.77781e-15
1.84478e-15
1.25183e-15
8.75196e-16
6.36242e-16
4.85368e-16
3.89574e-16
3.27977e-16
2.89697e-16
2.66709e-16
2.52085e-16
2.42187e-16
2.35422e-16
2.30861e-16
2.27845e-16
2.2587e-16
2.24575e-16
2.23741e-16
2.23215e-16
2.22873e-16
2.22641e-16
2.2248e-16
2.22366e-16
2.22284e-16
2.22224e-16
2.22181e-16
2.22148e-16
2.22124e-16
2.22105e-16
2.22091e-16
2.22081e-16
2.22072e-16
2.22066e-16
2.22061e-16
2.22057e-16
2.22054e-16
2.22052e-16
2.2205e-16
2.22049e-16
2.22047e-16
2.22047e-16
2.22046e-16
2.22045e-16
2.22045e-16
2.22045e-16
2.22045e-16
2.22045e-16
2.22045e-16
2.22045e-16
2.22045e-16
2.22045e-16
2.22045e-16
2.22045e-16
2.22045e-16
2.22045e-16
2.22045e-16
2.22045e-16
2.22045e-16
2.22045e-16
2.22045e-16
2.22045e-16
2.22045e-16
2.22045e-16
2.22045e-16
2.22045e-16
2.22045e-16
2.22045e-16
2.22045e-16
2.22045e-16
2.22045e-16
2.22045e-16
2.22045e-16
2.22045e-16
2.22045e-16
2.22045e-16
2.22045e-16
2.22047e-16
2.22073e-16
2.22294e-16
2.24103e-16
2.50548e-16
5.79987e-16
3.3131e-15
1.94789e-14
9.33129e-14
3.69801e-13
1.26133e-12
3.75156e-12
1.03503e-11
2.57211e-11
5.17652e-11
1.16501e-10
2.21514e-10
4.59962e-10
1.00167e-09
3.43744e-09
6.58764e-09
1.00926e-08
2.14361e-08
1.08583e-06
6.04543e-07
1.3561e-06
2.24868e-06
2.49004e-06
2.53268e-06
2.51475e-06
2.4554e-06
2.38949e-06
2.31768e-06
2.22903e-06
2.11047e-06
1.96574e-06
1.81399e-06
1.66012e-06
1.50967e-06
1.36652e-06
1.22986e-06
1.1009e-06
9.8381e-07
8.80982e-07
7.91546e-07
7.1315e-07
6.44334e-07
5.84491e-07
5.34138e-07
4.90985e-07
4.48895e-07
4.07426e-07
3.67068e-07
3.28291e-07
2.91481e-07
2.56943e-07
2.24893e-07
1.95465e-07
1.68718e-07
1.44645e-07
1.2318e-07
1.04214e-07
8.76133e-08
7.32177e-08
6.08239e-08
5.0213e-08
4.11861e-08
3.35607e-08
2.71693e-08
2.18569e-08
1.74754e-08
1.38868e-08
1.09669e-08
8.60669e-09
6.71119e-09
5.19876e-09
3.99985e-09
3.05572e-09
2.31722e-09
1.74357e-09
1.30118e-09
9.62584e-10
7.0549e-10
5.11937e-10
3.67549e-10
2.60908e-10
1.82979e-10
1.26637e-10
8.68674e-11
5.9478e-11
4.06328e-11
2.76799e-11
1.87994e-11
1.27303e-11
8.59593e-12
5.78863e-12
3.8883e-12
2.60563e-12
1.7422e-12
1.16245e-12
7.74076e-13
5.14481e-13
3.41322e-13
2.2605e-13
1.49467e-13
9.86887e-14
6.50948e-14
4.2906e-14
2.82715e-14
1.86656e-14
1.23535e-14
8.13754e-15
5.43097e-15
3.82253e-15
2.73403e-15
1.9306e-15
1.36605e-15
9.82324e-16
7.26673e-16
5.58268e-16
4.47187e-16
3.7434e-16
3.27697e-16
2.96842e-16
2.75684e-16
2.60872e-16
2.50389e-16
2.42917e-16
2.37551e-16
2.33663e-16
2.30818e-16
2.28715e-16
2.27146e-16
2.25964e-16
2.25067e-16
2.24382e-16
2.23856e-16
2.23449e-16
2.23135e-16
2.2289e-16
2.22699e-16
2.22551e-16
2.22435e-16
2.22345e-16
2.22274e-16
2.22219e-16
2.22175e-16
2.22143e-16
2.22113e-16
2.22096e-16
2.22075e-16
2.22057e-16
2.22048e-16
2.22045e-16
2.22045e-16
2.22045e-16
2.22045e-16
2.22045e-16
2.22045e-16
2.22045e-16
2.22045e-16
2.22045e-16
2.22045e-16
2.22045e-16
2.22045e-16
2.22045e-16
2.22045e-16
2.22045e-16
2.22045e-16
2.22045e-16
2.22045e-16
2.22045e-16
2.22045e-16
2.22045e-16
2.22045e-16
2.22045e-16
2.22045e-16
2.22045e-16
2.22045e-16
2.22045e-16
2.22045e-16
2.22045e-16
2.22049e-16
2.22085e-16
2.22561e-16
2.28224e-16
2.74409e-16
5.44772e-16
1.76748e-15
6.2972e-15
2.09062e-14
6.00305e-14
1.65407e-13
3.82416e-13
7.28834e-13
1.67082e-12
3.06132e-12
6.28058e-12
1.38058e-11
4.65079e-11
1.22783e-10
2.849e-10
8.61405e-10
1.22299e-06
4.9495e-07
7.00602e-07
1.94791e-06
2.56254e-06
2.74171e-06
2.81405e-06
2.85912e-06
2.89628e-06
2.93671e-06
2.97924e-06
3.02028e-06
3.05666e-06
3.08537e-06
3.10336e-06
3.10809e-06
3.09736e-06
3.06805e-06
3.02027e-06
2.95351e-06
2.86815e-06
2.76526e-06
2.64654e-06
2.51422e-06
2.37088e-06
2.21933e-06
2.06244e-06
1.90303e-06
1.74374e-06
1.58693e-06
1.43468e-06
1.2887e-06
1.15032e-06
1.02055e-06
9.00052e-07
7.89208e-07
6.88124e-07
5.96694e-07
5.14631e-07
4.41523e-07
3.76894e-07
3.20196e-07
2.70704e-07
2.2773e-07
1.90617e-07
1.58733e-07
1.31512e-07
1.08421e-07
8.89435e-08
7.25996e-08
5.89565e-08
4.7627e-08
3.82673e-08
3.05755e-08
2.4288e-08
1.91765e-08
1.50447e-08
1.17247e-08
9.07369e-09
6.97112e-09
5.31548e-09
4.02185e-09
3.01941e-09
2.24941e-09
1.66338e-09
1.22105e-09
8.89916e-10
6.44501e-10
4.64266e-10
3.32944e-10
2.37894e-10
1.6947e-10
1.20423e-10
8.53845e-11
6.04183e-11
4.26672e-11
3.00697e-11
2.11457e-11
1.48355e-11
1.03827e-11
7.24735e-12
5.04517e-12
3.50247e-12
2.4248e-12
1.67422e-12
1.15303e-12
7.92164e-13
5.43132e-13
3.71875e-13
2.54246e-13
1.73543e-13
1.18462e-13
8.10096e-14
5.55935e-14
3.83234e-14
2.65329e-14
1.85035e-14
1.30436e-14
9.28068e-15
6.64133e-15
4.77631e-15
3.45754e-15
2.52821e-15
1.87543e-15
1.4169e-15
1.0935e-15
8.6373e-16
6.98931e-16
5.79504e-16
4.92045e-16
4.27346e-16
3.79029e-16
3.42633e-16
3.15009e-16
2.93903e-16
2.77687e-16
2.65173e-16
2.55478e-16
2.47945e-16
2.42074e-16
2.37488e-16
2.33891e-16
2.31083e-16
2.28809e-16
2.27139e-16
2.25474e-16
2.2465e-16
2.23301e-16
2.22309e-16
2.22054e-16
2.22045e-16
2.22045e-16
2.22045e-16
2.22045e-16
2.22045e-16
2.22045e-16
2.22045e-16
2.22045e-16
2.22045e-16
2.22045e-16
2.22045e-16
2.22045e-16
2.22045e-16
2.22045e-16
2.22045e-16
2.22045e-16
2.22045e-16
2.22045e-16
2.22045e-16
2.22045e-16
2.22045e-16
2.22045e-16
2.22045e-16
2.22045e-16
2.22045e-16
2.22045e-16
2.22045e-16
2.22045e-16
2.22045e-16
2.22045e-16
2.22045e-16
2.22045e-16
2.22045e-16
2.22379e-16
2.25441e-16
2.40943e-16
3.00044e-16
4.96206e-16
1.00621e-15
2.40739e-15
5.11394e-15
9.67069e-15
2.2451e-14
4.34738e-14
9.45126e-14
2.23323e-13
7.31667e-13
2.26126e-12
7.08468e-12
3.24851e-11
1.54506e-06
5.23943e-07
4.62328e-07
1.76107e-06
2.51749e-06
2.75196e-06
2.85711e-06
2.93345e-06
3.00397e-06
3.07999e-06
3.15998e-06
3.23909e-06
3.31243e-06
3.37521e-06
3.42286e-06
3.4513e-06
3.45765e-06
3.43975e-06
3.3937e-06
3.32229e-06
3.22585e-06
3.10633e-06
2.96656e-06
2.80997e-06
2.64034e-06
2.46155e-06
2.27744e-06
2.09158e-06
1.90723e-06
1.7272e-06
1.55382e-06
1.38894e-06
1.23394e-06
1.08976e-06
9.56948e-07
8.35698e-07
7.2593e-07
6.27336e-07
5.39428e-07
4.61567e-07
3.92996e-07
3.3295e-07
2.80789e-07
2.35788e-07
1.97194e-07
1.64264e-07
1.36304e-07
1.12646e-07
9.27173e-08
7.60082e-08
6.20629e-08
5.04766e-08
4.08925e-08
3.29992e-08
2.6526e-08
2.12399e-08
1.6941e-08
1.34595e-08
1.06516e-08
8.39606e-09
6.59174e-09
5.15427e-09
4.01375e-09
3.11258e-09
2.4035e-09
1.8479e-09
1.41443e-09
1.07769e-09
8.17268e-10
6.16762e-10
4.63103e-10
3.45904e-10
2.56951e-10
1.89778e-10
1.39319e-10
1.01622e-10
7.36213e-11
5.29483e-11
3.77826e-11
2.67324e-11
1.87393e-11
1.30028e-11
8.92075e-12
6.04299e-12
4.03518e-12
2.65037e-12
1.70742e-12
1.0754e-12
6.5886e-13
3.90047e-13
2.21043e-13
1.18216e-13
6.09559e-14
3.02258e-14
1.44018e-14
6.62362e-15
2.99323e-15
1.38834e-15
7.15027e-16
4.45195e-16
3.37984e-16
2.92665e-16
2.70559e-16
2.57676e-16
2.49055e-16
2.42831e-16
2.38176e-16
2.34636e-16
2.31916e-16
2.29811e-16
2.28171e-16
2.26887e-16
2.25877e-16
2.2508e-16
2.24448e-16
2.23947e-16
2.23548e-16
2.23232e-16
2.2298e-16
2.22779e-16
2.2262e-16
2.22493e-16
2.22393e-16
2.22311e-16
2.22251e-16
2.22191e-16
2.22302e-16
2.22518e-16
2.22751e-16
2.22959e-16
2.23118e-16
2.23201e-16
2.23216e-16
2.23186e-16
2.23127e-16
2.23044e-16
2.22951e-16
2.22853e-16
2.22757e-16
2.22667e-16
2.22583e-16
2.22507e-16
2.22438e-16
2.22377e-16
2.22323e-16
2.22275e-16
2.22233e-16
2.22195e-16
2.22161e-16
2.2213e-16
2.221e-16
2.22071e-16
2.22045e-16
2.22045e-16
2.22045e-16
2.22045e-16
2.22045e-16
2.22062e-16
2.22134e-16
2.22315e-16
2.22742e-16
2.23762e-16
2.26227e-16
2.32311e-16
2.47824e-16
2.89056e-16
4.05172e-16
7.59055e-16
1.92205e-15
5.88228e-15
1.92188e-14
6.29691e-14
2.01976e-13
6.37299e-13
1.8751e-12
5.30196e-12
1.22058e-11
2.62856e-11
4.8684e-11
3.74758e-11
2.05579e-06
6.49529e-07
3.62859e-07
1.71741e-06
2.55117e-06
2.82982e-06
2.97715e-06
3.10164e-06
3.2282e-06
3.36637e-06
3.51214e-06
3.65801e-06
3.79576e-06
3.91717e-06
4.01449e-06
4.08099e-06
4.1116e-06
4.10524e-06
4.0561e-06
3.96642e-06
3.84136e-06
3.68384e-06
3.49907e-06
3.29291e-06
3.07143e-06
2.84056e-06
2.60583e-06
2.37212e-06
2.1436e-06
1.92367e-06
1.71494e-06
1.51929e-06
1.33795e-06
1.17157e-06
1.02032e-06
8.83986e-07
7.62061e-07
6.5381e-07
5.5835e-07
4.74709e-07
4.01862e-07
3.38769e-07
2.8441e-07
2.37803e-07
1.98009e-07
1.6426e-07
1.35743e-07
1.11754e-07
9.16629e-08
7.49066e-08
6.09893e-08
4.94768e-08
3.99916e-08
3.22074e-08
2.5844e-08
2.06623e-08
1.64589e-08
1.30623e-08
1.03281e-08
8.13546e-09
6.3839e-09
4.99006e-09
3.88519e-09
3.01281e-09
2.32673e-09
1.78932e-09
1.37009e-09
1.04441e-09
7.92485e-10
5.98461e-10
4.49701e-10
3.36173e-10
2.49946e-10
1.84781e-10
1.35789e-10
9.91533e-11
7.19141e-11
5.17821e-11
3.6997e-11
2.62116e-11
1.84004e-11
1.27873e-11
8.78742e-12
5.96347e-12
3.99011e-12
2.62665e-12
1.69655e-12
1.07166e-12
6.59024e-13
3.91622e-13
2.23425e-13
1.19769e-13
6.18768e-14
3.07051e-14
1.45937e-14
6.64463e-15
2.92724e-15
1.29123e-15
6.17573e-16
3.59021e-16
2.66648e-16
2.35891e-16
2.26302e-16
2.23469e-16
2.22648e-16
2.22392e-16
2.22292e-16
2.22238e-16
2.22199e-16
2.2217e-16
2.22146e-16
2.22127e-16
2.22111e-16
2.22098e-16
2.22088e-16
2.22079e-16
2.22073e-16
2.22067e-16
2.22062e-16
2.22059e-16
2.22056e-16
2.22053e-16
2.22052e-16
2.2205e-16
2.22049e-16
2.22048e-16
2.22047e-16
2.22047e-16
2.22047e-16
2.22048e-16
2.22049e-16
2.2205e-16
2.2205e-16
2.22051e-16
2.22051e-16
2.22051e-16
2.22051e-16
2.22051e-16
2.2205e-16
2.2205e-16
2.22049e-16
2.22049e-16
2.22048e-16
2.22048e-16
2.22047e-16
2.22047e-16
2.22047e-16
2.22046e-16
2.22046e-16
2.22046e-16
2.22045e-16
2.22045e-16
2.22045e-16
2.22045e-16
2.22045e-16
2.22045e-16
2.22265e-16
2.23e-16
2.2471e-16
2.28287e-16
2.34966e-16
2.4838e-16
2.72559e-16
3.17573e-16
4.02021e-16
5.75008e-16
9.48204e-16
1.8073e-15
3.91876e-15
9.41219e-15
2.43105e-14
6.6113e-14
1.83568e-13
5.17415e-13
1.38514e-12
3.51974e-12
8.74203e-12
1.32888e-11
3.09004e-11
2.3997e-11
2.79435e-06
8.43084e-07
3.47737e-07
1.73653e-06
2.61054e-06
2.93132e-06
3.13827e-06
3.3392e-06
3.5591e-06
3.80396e-06
4.06497e-06
4.32948e-06
4.58166e-06
4.80605e-06
4.98822e-06
5.1163e-06
5.1822e-06
5.18491e-06
5.12037e-06
4.988e-06
4.80367e-06
4.57293e-06
4.30571e-06
4.01236e-06
3.70291e-06
3.38649e-06
3.07104e-06
2.76311e-06
2.46785e-06
2.18909e-06
1.92943e-06
1.69041e-06
1.47269e-06
1.27624e-06
1.10048e-06
9.44427e-07
8.06856e-07
6.86358e-07
5.81444e-07
4.90607e-07
4.12371e-07
3.4532e-07
2.88109e-07
2.39431e-07
1.98337e-07
1.63737e-07
1.34706e-07
1.10445e-07
9.02488e-08
7.34978e-08
5.96552e-08
4.82573e-08
3.89059e-08
3.12608e-08
2.50326e-08
1.99767e-08
1.58869e-08
1.25902e-08
9.94228e-09
7.82307e-09
6.13309e-09
4.79028e-09
3.72727e-09
2.88888e-09
2.23015e-09
1.71459e-09
1.31266e-09
1.00058e-09
7.59259e-10
5.73452e-10
4.31011e-10
3.22308e-10
2.39741e-10
1.7733e-10
1.30395e-10
9.52857e-11
6.91682e-11
4.98538e-11
3.56592e-11
2.52961e-11
1.77837e-11
1.23794e-11
8.52359e-12
5.79737e-12
3.88916e-12
2.56808e-12
1.66497e-12
1.05633e-12
6.53439e-13
3.90878e-13
2.25441e-13
1.21902e-13
6.35529e-14
3.1844e-14
1.52969e-14
7.04588e-15
3.13834e-15
1.39291e-15
6.6211e-16
3.7657e-16
2.7271e-16
2.37566e-16
2.26495e-16
2.23243e-16
2.22349e-16
2.22119e-16
2.22063e-16
2.2205e-16
2.22047e-16
2.22046e-16
2.22046e-16
2.22046e-16
2.22046e-16
2.22045e-16
2.22045e-16
2.22045e-16
2.22045e-16
2.22045e-16
2.22045e-16
2.22045e-16
2.22045e-16
2.22045e-16
2.22045e-16
2.22045e-16
2.22045e-16
2.22045e-16
2.22045e-16
2.22045e-16
2.22045e-16
2.22045e-16
2.22045e-16
2.22045e-16
2.22045e-16
2.22045e-16
2.22045e-16
2.22045e-16
2.22045e-16
2.22045e-16
2.22045e-16
2.22045e-16
2.22045e-16
2.22045e-16
2.22045e-16
2.22045e-16
2.22045e-16
2.22045e-16
2.22045e-16
2.22045e-16
2.22045e-16
2.22045e-16
2.22045e-16
2.22045e-16
2.22045e-16
2.22045e-16
2.22045e-16
2.22045e-16
2.22106e-16
2.22586e-16
2.23954e-16
2.26962e-16
2.33038e-16
2.44567e-16
2.66741e-16
3.06198e-16
3.80055e-16
5.29525e-16
8.45495e-16
1.55684e-15
3.2636e-15
7.59265e-15
1.89684e-14
4.96788e-14
1.31347e-13
3.48595e-13
8.71365e-13
2.02302e-12
5.79653e-12
7.21693e-12
8.57534e-12
7.74412e-12
3.81809e-06
1.10924e-06
3.81483e-07
1.81814e-06
2.72863e-06
3.09625e-06
3.38213e-06
3.71429e-06
4.10632e-06
4.55337e-06
5.03556e-06
5.52766e-06
5.99683e-06
6.41095e-06
6.74133e-06
6.96556e-06
7.07125e-06
7.06222e-06
6.93224e-06
6.69367e-06
6.37581e-06
5.9929e-06
5.5644e-06
5.10895e-06
4.64303e-06
4.18044e-06
3.7321e-06
3.30614e-06
2.90817e-06
2.54164e-06
2.20817e-06
1.90802e-06
1.64038e-06
1.4037e-06
1.19593e-06
1.01476e-06
8.57717e-07
7.2233e-07
6.06195e-07
5.07031e-07
4.22731e-07
3.51286e-07
2.90829e-07
2.40188e-07
1.97793e-07
1.62382e-07
1.32914e-07
1.08471e-07
8.82611e-08
7.16031e-08
5.79153e-08
4.67029e-08
3.75466e-08
3.00924e-08
2.4043e-08
1.91488e-08
1.52018e-08
1.20289e-08
9.48656e-09
7.45609e-09
5.83986e-09
4.55771e-09
3.5441e-09
2.7456e-09
2.11882e-09
1.62865e-09
1.24675e-09
9.50361e-10
7.21254e-10
5.44882e-10
4.09682e-10
3.06499e-10
2.2811e-10
1.68842e-10
1.24252e-10
9.08792e-11
6.60385e-11
4.76547e-11
3.41323e-11
2.42501e-11
1.70782e-11
1.1912e-11
8.22055e-12
5.60609e-12
3.7725e-12
2.50015e-12
1.62806e-12
1.03837e-12
6.46559e-13
3.90112e-13
2.27199e-13
1.25086e-13
6.59408e-14
3.34718e-14
1.63155e-14
7.63329e-15
3.45037e-15
1.54526e-15
7.30371e-16
4.04635e-16
2.83311e-16
2.41251e-16
2.27675e-16
2.23591e-16
2.22443e-16
2.22141e-16
2.22067e-16
2.22049e-16
2.22046e-16
2.22045e-16
2.22045e-16
2.22045e-16
2.22045e-16
2.22045e-16
2.22045e-16
2.22045e-16
2.22045e-16
2.22045e-16
2.22045e-16
2.22045e-16
2.22045e-16
2.22045e-16
2.22045e-16
2.22045e-16
2.22045e-16
2.22045e-16
2.22045e-16
2.22045e-16
2.22045e-16
2.22045e-16
2.22045e-16
2.22045e-16
2.22045e-16
2.22045e-16
2.22045e-16
2.22045e-16
2.22045e-16
2.22045e-16
2.22045e-16
2.22045e-16
2.22045e-16
2.22045e-16
2.22045e-16
2.22045e-16
2.22045e-16
2.22045e-16
2.22045e-16
2.22045e-16
2.22045e-16
2.22045e-16
2.22045e-16
2.22045e-16
2.22045e-16
2.22045e-16
2.22045e-16
2.22045e-16
2.22045e-16
2.22337e-16
2.23381e-16
2.25843e-16
2.30998e-16
2.4038e-16
2.59326e-16
2.9251e-16
3.54857e-16
4.75589e-16
7.26599e-16
1.27881e-15
2.56737e-15
5.7354e-15
1.37592e-14
3.45102e-14
8.67081e-14
2.15602e-13
4.97408e-13
1.06395e-12
2.76658e-12
2.56194e-12
2.10136e-12
1.59886e-12
5.18987e-06
1.44272e-06
4.908e-07
2.0179e-06
2.97225e-06
3.41905e-06
3.84038e-06
4.3881e-06
5.12238e-06
6.01744e-06
6.98222e-06
7.96379e-06
8.88013e-06
9.65667e-06
1.0237e-05
1.05836e-05
1.06863e-05
1.05639e-05
1.02077e-05
9.69144e-06
9.05654e-06
8.34137e-06
7.58344e-06
6.81518e-06
6.06259e-06
5.34455e-06
4.67388e-06
4.05834e-06
3.50158e-06
3.00412e-06
2.56427e-06
2.17881e-06
1.84362e-06
1.55416e-06
1.30561e-06
1.09328e-06
9.12761e-07
7.59917e-07
6.30987e-07
5.22644e-07
4.31531e-07
3.55183e-07
2.9198e-07
2.39455e-07
1.95874e-07
1.59833e-07
1.30104e-07
1.05644e-07
8.55688e-08
6.91325e-08
5.57091e-08
4.47738e-08
3.58882e-08
2.86869e-08
2.2866e-08
1.81738e-08
1.44018e-08
1.13781e-08
8.96134e-09
7.03539e-09
5.50525e-09
4.29337e-09
3.33662e-09
2.58379e-09
1.99342e-09
1.53206e-09
1.17281e-09
8.94118e-10
6.78742e-10
5.12956e-10
3.85867e-10
2.88858e-10
2.15138e-10
1.59376e-10
1.17401e-10
8.59646e-11
6.25465e-11
4.51995e-11
3.24262e-11
2.30801e-11
1.62879e-11
1.13875e-11
7.8798e-12
5.39044e-12
3.6405e-12
2.42299e-12
1.58578e-12
1.01767e-12
6.38435e-13
3.89049e-13
2.29113e-13
1.2868e-13
6.86419e-14
3.5328e-14
1.75095e-14
8.35756e-15
3.86237e-15
1.76265e-15
8.35768e-16
4.51351e-16
3.0222e-16
2.48252e-16
2.30054e-16
2.24335e-16
2.22658e-16
2.22199e-16
2.22081e-16
2.22053e-16
2.22046e-16
2.22045e-16
2.22045e-16
2.22045e-16
2.22045e-16
2.22045e-16
2.22045e-16
2.22045e-16
2.22045e-16
2.22045e-16
2.22045e-16
2.22045e-16
2.22045e-16
2.22045e-16
2.22045e-16
2.22045e-16
2.22045e-16
2.22045e-16
2.22045e-16
2.22045e-16
2.22045e-16
2.22045e-16
2.22045e-16
2.22045e-16
2.22045e-16
2.22045e-16
2.22045e-16
2.22045e-16
2.22045e-16
2.22045e-16
2.22045e-16
2.22045e-16
2.22045e-16
2.22045e-16
2.22045e-16
2.22045e-16
2.22045e-16
2.22045e-16
2.22045e-16
2.22045e-16
2.22045e-16
2.22045e-16
2.22045e-16
2.22045e-16
2.22045e-16
2.22045e-16
2.22045e-16
2.22045e-16
2.22045e-16
2.2213e-16
2.22771e-16
2.24563e-16
2.28437e-16
2.36216e-16
2.50516e-16
2.77896e-16
3.27672e-16
4.19951e-16
6.08384e-16
1.01127e-15
1.91859e-15
4.06231e-15
9.24904e-15
2.19517e-14
5.16536e-14
1.24193e-13
2.45581e-13
6.27242e-13
7.35146e-13
6.52802e-13
4.511e-13
2.80404e-13
6.95543e-06
1.85539e-06
7.72147e-07
2.51895e-06
3.52984e-06
4.16696e-06
4.92599e-06
6.04905e-06
7.55214e-06
9.61738e-06
1.17938e-05
1.39568e-05
1.58278e-05
1.72458e-05
1.81229e-05
1.84352e-05
1.82389e-05
1.75506e-05
1.65109e-05
1.52271e-05
1.38162e-05
1.23559e-05
1.09077e-05
9.52142e-06
8.23525e-06
7.06577e-06
6.02007e-06
5.09844e-06
4.29574e-06
3.60341e-06
3.01115e-06
2.50798e-06
2.08294e-06
1.72572e-06
1.42645e-06
1.1765e-06
9.68563e-07
7.9632e-07
6.53284e-07
5.3426e-07
4.36388e-07
3.56445e-07
2.90574e-07
2.36423e-07
1.92023e-07
1.55682e-07
1.25986e-07
1.01761e-07
8.2031e-08
6.59905e-08
5.29732e-08
4.24292e-08
3.39056e-08
2.70294e-08
2.14942e-08
1.70484e-08
1.34861e-08
1.06386e-08
8.36833e-09
6.56297e-09
5.13129e-09
3.99915e-09
3.10652e-09
2.40489e-09
1.85513e-09
1.42578e-09
1.09162e-09
8.32453e-10
6.32191e-10
4.78035e-10
3.59838e-10
2.69588e-10
2.00972e-10
1.4904e-10
1.0992e-10
8.05963e-11
5.873e-11
4.25138e-11
3.05577e-11
2.17968e-11
1.54194e-11
1.08099e-11
7.50347e-12
5.15144e-12
3.49354e-12
2.33657e-12
1.53801e-12
9.93962e-13
6.28797e-13
3.87462e-13
2.31036e-13
1.32709e-13
7.17342e-14
3.74837e-14
1.89146e-14
9.22612e-15
4.37113e-15
2.04216e-15
9.78149e-16
5.18061e-16
3.30867e-16
2.59526e-16
2.34128e-16
2.25691e-16
2.23075e-16
2.22318e-16
2.22113e-16
2.22061e-16
2.22048e-16
2.22045e-16
2.22045e-16
2.22045e-16
2.22045e-16
2.22045e-16
2.22045e-16
2.22045e-16
2.22045e-16
2.22045e-16
2.22045e-16
2.22045e-16
2.22045e-16
2.22045e-16
2.22045e-16
2.22045e-16
2.22045e-16
2.22045e-16
2.22045e-16
2.22045e-16
2.22045e-16
2.22045e-16
2.22045e-16
2.22045e-16
2.22045e-16
2.22045e-16
2.22045e-16
2.22045e-16
2.22045e-16
2.22045e-16
2.22045e-16
2.22045e-16
2.22045e-16
2.22045e-16
2.22045e-16
2.22045e-16
2.22045e-16
2.22045e-16
2.22045e-16
2.22045e-16
2.22045e-16
2.22045e-16
2.22045e-16
2.22045e-16
2.22045e-16
2.22045e-16
2.22045e-16
2.22045e-16
2.22045e-16
2.22045e-16
2.22262e-16
2.23267e-16
2.2583e-16
2.31231e-16
2.41766e-16
2.61307e-16
2.98369e-16
3.65807e-16
4.95235e-16
7.62517e-16
1.33849e-15
2.63148e-15
5.57198e-15
1.22543e-14
2.65405e-14
5.40175e-14
1.25267e-13
1.58869e-13
1.4592e-13
1.1339e-13
6.7895e-14
3.81542e-14
9.10657e-06
2.56782e-06
1.81848e-06
4.10271e-06
5.16885e-06
6.55194e-06
8.5643e-06
1.18692e-05
1.59891e-05
2.16398e-05
2.71527e-05
3.22074e-05
3.58125e-05
3.76195e-05
3.79821e-05
3.69955e-05
3.49167e-05
3.21547e-05
2.8985e-05
2.56172e-05
2.23355e-05
1.9237e-05
1.63744e-05
1.37872e-05
1.15444e-05
9.60065e-06
7.9343e-06
6.52562e-06
5.34698e-06
4.36837e-06
3.56273e-06
2.90251e-06
2.36147e-06
1.91853e-06
1.55634e-06
1.26113e-06
1.02141e-06
8.25607e-07
6.66833e-07
5.3968e-07
4.36963e-07
3.53304e-07
2.85381e-07
2.30307e-07
1.85681e-07
1.49542e-07
1.20294e-07
9.66412e-08
7.75291e-08
6.21012e-08
4.96609e-08
3.96421e-08
3.15844e-08
2.51138e-08
1.99261e-08
1.57743e-08
1.24579e-08
9.81416e-09
7.71125e-09
6.04236e-09
4.72111e-09
3.67777e-09
2.85608e-09
2.21077e-09
1.70548e-09
1.31104e-09
1.00412e-09
7.66111e-10
5.82177e-10
4.40555e-10
3.31925e-10
2.48935e-10
1.85796e-10
1.3797e-10
1.01907e-10
7.48449e-11
5.46392e-11
3.96331e-11
2.85516e-11
2.04171e-11
1.44842e-11
1.01866e-11
7.09634e-12
4.89206e-12
3.33333e-12
2.24188e-12
1.48524e-12
9.67426e-13
6.17839e-13
3.85136e-13
2.33034e-13
1.36493e-13
7.57098e-14
4.03613e-14
2.08418e-14
1.04611e-14
5.13532e-15
2.49207e-15
1.22497e-15
6.4239e-16
3.87993e-16
2.83447e-16
2.43278e-16
2.28901e-16
2.24113e-16
2.22628e-16
2.22199e-16
2.22083e-16
2.22054e-16
2.22047e-16
2.22045e-16
2.22045e-16
2.22045e-16
2.22045e-16
2.22045e-16
2.22045e-16
2.22045e-16
2.22045e-16
2.22045e-16
2.22045e-16
2.22045e-16
2.22045e-16
2.22045e-16
2.22045e-16