/*--------------------------------*- C++ -*----------------------------------*\
  =========                 |
  \\      /  F ield         | OpenFOAM: The Open Source CFD Toolbox
   \\    /   O peration     | Website:  https://openfoam.org
    \\  /    A nd           | Version:  7
     \\/     M anipulation  |
\*---------------------------------------------------------------------------*/
FoamFile
{
    version     2.0;
    format      ascii;
    class       volScalarField;
    location    "0.004";
    object      p;
}
// * * * * * * * * * * * * * * * * * * * * * * * * * * * * * * * * * * * * * //

dimensions      [0 2 -2 0 0 0 0];

internalField   nonuniform List<scalar> 
12225
(
293.49
293.147
291.249
288.778
286.17
283.539
280.943
278.444
276.064
273.762
271.508
269.278
267.051
264.78
262.473
260.036
257.45
254.241
294.538
293.195
291.264
288.797
286.181
283.548
280.955
278.458
276.075
273.772
271.515
269.287
267.059
264.801
262.492
260.11
257.547
254.737
294.669
293.195
291.281
288.822
286.198
283.566
280.983
278.492
276.109
273.799
271.538
269.308
267.088
264.845
262.567
260.224
257.776
255.17
294.48
293.319
291.346
288.877
286.242
283.603
281.02
278.532
276.143
273.831
271.568
269.342
267.133
264.914
262.669
260.388
258.047
255.646
294.367
293.461
291.445
288.939
286.282
283.633
281.05
278.566
276.183
273.871
271.61
269.391
267.198
265.007
262.806
260.593
258.364
256.138
294.929
293.734
291.587
289.031
286.356
283.691
281.103
278.617
276.23
273.92
271.664
269.456
267.284
265.127
262.977
260.838
258.716
256.639
295.602
294.141
291.793
289.141
286.423
283.74
281.146
278.659
276.28
273.977
271.731
269.538
267.392
265.276
263.182
261.118
259.099
257.149
296.89
294.683
292.044
289.281
286.52
283.813
281.206
278.718
276.339
274.044
271.812
269.64
267.526
265.454
263.419
261.431
259.506
257.665
297.575
295.327
292.361
289.443
286.613
283.879
281.265
278.778
276.405
274.121
271.907
269.762
267.681
265.656
263.682
261.768
259.931
258.187
300.475
296.134
292.699
289.617
286.72
283.96
281.333
278.843
276.476
274.206
272.015
269.898
267.856
265.881
263.969
262.128
260.373
258.716
302.388
296.841
293.051
289.798
286.82
284.027
281.393
278.908
276.553
274.301
272.135
270.053
268.054
266.131
264.28
262.509
260.828
259.248
302.314
297.308
293.315
289.937
286.9
284.088
281.45
278.969
276.625
274.391
272.253
270.206
268.249
266.374
264.579
262.867
261.249
259.731
302.802
297.64
293.533
290.054
286.962
284.125
281.487
279.021
276.696
274.487
272.379
270.369
268.453
266.626
264.882
263.226
261.666
260.207
302.306
297.889
293.687
290.125
287
284.159
281.526
279.073
276.771
274.593
272.523
270.556
268.688
266.915
265.23
263.636
262.139
260.741
304.615
298.091
293.695
290.095
286.956
284.117
281.509
279.096
276.84
274.708
272.687
270.773
268.965
267.254
265.634
264.107
262.674
261.337
301.843
297.445
293.381
289.881
286.798
284.011
281.457
279.097
276.892
274.817
272.858
271.012
269.274
267.634
266.084
264.625
263.257
261.98
299.432
296.483
292.739
289.394
286.411
283.714
281.255
278.992
276.885
274.898
273.022
271.254
269.591
268.024
266.547
265.157
263.855
262.639
304.063
296.326
291.731
288.397
285.605
283.125
280.863
278.763
276.788
274.92
273.151
271.484
269.917
268.441
267.045
265.727
264.489
263.329
293.671
290.943
288.575
286.349
284.249
282.211
280.243
278.361
276.567
274.849
273.207
271.65
270.18
268.79
267.47
266.222
265.046
263.941
284.025
285.808
285.525
284.399
282.921
281.281
279.603
277.944
276.314
274.726
273.191
271.724
270.33
269.007
267.748
266.554
265.428
264.368
281.368
283.837
284.158
283.443
282.238
280.788
279.248
277.693
276.151
274.638
273.168
271.757
270.415
269.137
267.919
266.761
265.666
264.632
282.873
284.057
283.931
283.115
281.913
280.509
279.033
277.54
276.053
274.585
273.155
271.782
270.473
269.224
268.033
266.899
265.826
264.812
285.008
284.936
284.272
283.178
281.863
280.425
278.945
277.465
275.998
274.554
273.149
271.797
270.507
269.276
268.101
266.984
265.928
264.93
286.526
286.025
284.812
283.396
281.925
280.426
278.924
277.439
275.979
274.547
273.154
271.815
270.537
269.316
268.151
267.046
266.002
265.015
289.376
287.195
285.315
283.614
282.007
280.453
278.931
277.432
275.968
274.542
273.159
271.827
270.551
269.334
268.177
267.081
266.048
265.072
291.181
288.324
285.89
283.889
282.158
280.527
278.96
277.443
275.974
274.551
273.171
271.841
270.567
269.354
268.202
267.114
266.088
265.118
292.894
288.888
286.096
283.988
282.205
280.563
278.974
277.446
275.978
274.559
273.182
271.85
270.573
269.356
268.205
267.122
266.102
265.138
293.477
289.488
286.399
284.145
282.298
280.604
278.991
277.455
275.99
274.574
273.197
271.861
270.579
269.36
268.211
267.131
266.116
265.155
294.42
289.664
286.44
284.204
282.338
280.62
278.994
277.459
276
274.591
273.213
271.869
270.572
269.343
268.192
267.119
266.112
265.158
295.59
289.811
286.493
284.261
282.37
280.632
278.999
277.464
276.009
274.605
273.23
271.884
270.581
269.344
268.187
267.111
266.103
265.15
239.229
239.228
239.224
239.217
239.208
239.196
239.18
239.161
239.138
239.11
239.078
239.04
238.996
238.945
238.887
238.821
238.746
238.661
238.566
238.46
238.343
238.214
238.071
237.916
237.747
237.563
237.365
237.153
236.925
236.682
236.425
236.152
235.864
235.56
235.242
234.91
234.562
234.201
233.825
233.435
233.032
232.616
232.187
231.745
231.291
230.824
230.346
229.856
229.355
228.844
228.321
227.788
227.244
226.691
226.128
225.555
224.972
224.381
223.78
223.17
222.552
221.925
221.289
220.645
219.993
219.332
218.663
217.986
217.302
216.609
215.909
215.201
214.485
213.761
213.03
212.292
211.545
210.792
210.031
209.262
208.486
207.703
206.912
206.114
205.309
204.496
203.675
202.848
202.013
201.171
200.321
199.464
198.599
197.727
196.848
195.961
195.067
194.165
193.255
192.338
191.413
190.481
189.541
188.593
187.638
186.675
185.703
184.724
183.737
182.742
181.739
180.728
179.709
178.682
177.647
176.603
175.551
174.49
173.422
172.344
171.259
170.164
169.061
167.95
166.829
165.7
164.562
163.415
162.259
161.094
159.919
158.736
157.543
156.341
155.13
153.909
152.678
151.438
150.189
148.929
147.66
146.381
145.092
143.793
142.483
141.164
139.834
138.494
137.144
135.783
134.412
133.03
131.637
130.233
128.819
127.393
125.957
124.509
123.05
121.58
120.099
118.607
117.103
115.587
114.061
112.523
110.974
109.413
107.842
106.26
104.668
103.066
101.456
99.8381
98.2146
96.5903
94.9664
93.3609
91.7751
90.2772
239.237
239.236
239.232
239.226
239.217
239.205
239.191
239.172
239.15
239.124
239.092
239.056
239.013
238.963
238.906
238.841
238.767
238.683
238.589
238.484
238.367
238.238
238.096
237.94
237.771
237.588
237.389
237.176
236.948
236.705
236.447
236.173
235.884
235.581
235.262
234.928
234.58
234.218
233.841
233.451
233.047
232.63
232.2
231.757
231.302
230.835
230.357
229.866
229.365
228.852
228.329
227.796
227.252
226.698
226.134
225.561
224.978
224.386
223.785
223.175
222.556
221.929
221.293
220.649
219.996
219.335
218.666
217.989
217.304
216.612
215.911
215.203
214.487
213.763
213.032
212.293
211.547
210.793
210.032
209.263
208.487
207.704
206.913
206.115
205.309
204.496
203.676
202.849
202.014
201.171
200.321
199.464
198.6
197.728
196.848
195.961
195.067
194.165
193.255
192.338
191.414
190.481
189.541
188.593
187.638
186.675
185.703
184.724
183.737
182.742
181.739
180.728
179.709
178.682
177.646
176.603
175.551
174.49
173.422
172.344
171.259
170.164
169.061
167.95
166.829
165.7
164.562
163.415
162.259
161.094
159.919
158.736
157.543
156.341
155.13
153.909
152.678
151.438
150.188
148.929
147.66
146.381
145.092
143.792
142.483
141.164
139.834
138.494
137.144
135.783
134.412
133.03
131.637
130.233
128.819
127.393
125.957
124.509
123.05
121.58
120.099
118.606
117.102
115.587
114.06
112.522
110.973
109.413
107.841
106.259
104.667
103.065
101.454
99.836
98.2121
96.5854
94.9603
93.3436
91.7431
90.1624
239.253
239.253
239.249
239.243
239.235
239.225
239.211
239.195
239.175
239.15
239.121
239.087
239.046
238.999
238.944
238.881
238.808
238.726
238.634
238.53
238.414
238.286
238.145
237.99
237.82
237.636
237.438
237.224
236.995
236.751
236.492
236.217
235.926
235.621
235.301
234.966
234.616
234.252
233.874
233.482
233.077
232.658
232.227
231.783
231.326
230.858
230.378
229.887
229.384
228.871
228.346
227.812
227.267
226.712
226.148
225.574
224.99
224.398
223.796
223.185
222.566
221.938
221.301
220.657
220.003
219.342
218.673
217.995
217.31
216.617
215.916
215.208
214.491
213.767
213.036
212.297
211.55
210.796
210.035
209.266
208.49
207.706
206.915
206.117
205.311
204.498
203.678
202.85
202.015
201.173
200.323
199.465
198.601
197.729
196.849
195.962
195.068
194.166
193.256
192.339
191.414
190.482
189.542
188.594
187.638
186.675
185.704
184.725
183.738
182.743
181.74
180.729
179.709
178.682
177.647
176.603
175.551
174.49
173.422
172.344
171.259
170.164
169.061
167.95
166.829
165.7
164.562
163.415
162.259
161.094
159.919
158.736
157.543
156.341
155.13
153.909
152.678
151.438
150.188
148.929
147.66
146.381
145.091
143.792
142.483
141.164
139.834
138.494
137.144
135.783
134.412
133.029
131.637
130.233
128.818
127.393
125.956
124.509
123.05
121.58
120.099
118.606
117.102
115.587
114.06
112.522
110.973
109.412
107.841
106.258
104.666
103.063
101.452
99.8327
98.2074
96.5783
94.9491
93.3229
91.7077
90.0971
239.277
239.276
239.272
239.268
239.262
239.253
239.242
239.228
239.211
239.189
239.164
239.132
239.095
239.052
239
238.94
238.871
238.792
238.702
238.6
238.486
238.359
238.218
238.063
237.894
237.71
237.511
237.296
237.066
236.82
236.559
236.282
235.99
235.682
235.359
235.022
234.67
234.304
233.923
233.529
233.122
232.701
232.267
231.821
231.363
230.893
230.411
229.918
229.413
228.898
228.372
227.836
227.29
226.734
226.168
225.593
225.009
224.415
223.812
223.201
222.58
221.952
221.314
220.669
220.015
219.353
218.683
218.005
217.319
216.625
215.924
215.215
214.498
213.774
213.042
212.303
211.556
210.801
210.04
209.271
208.494
207.71
206.919
206.12
205.314
204.501
203.681
202.853
202.017
201.175
200.325
199.467
198.603
197.73
196.851
195.964
195.069
194.167
193.257
192.34
191.415
190.483
189.542
188.595
187.639
186.675
185.704
184.725
183.738
182.743
181.74
180.729
179.71
178.682
177.647
176.603
175.551
174.49
173.422
172.344
171.259
170.164
169.061
167.95
166.829
165.7
164.562
163.415
162.259
161.093
159.919
158.736
157.543
156.341
155.129
153.908
152.678
151.438
150.188
148.929
147.66
146.38
145.091
143.792
142.483
141.164
139.834
138.494
137.144
135.783
134.411
133.029
131.637
130.233
128.818
127.393
125.956
124.509
123.05
121.58
120.098
118.606
117.102
115.586
114.06
112.521
110.972
109.411
107.839
106.257
104.664
103.061
101.448
99.8278
98.2006
96.5682
94.9338
93.2981
91.6659
90.0225
239.306
239.305
239.302
239.3
239.295
239.289
239.281
239.27
239.257
239.24
239.219
239.193
239.161
239.122
239.075
239.02
238.955
238.879
238.792
238.693
238.581
238.456
238.316
238.162
237.993
237.808
237.608
237.392
237.16
236.912
236.648
236.368
236.073
235.763
235.437
235.097
234.742
234.372
233.989
233.592
233.181
232.757
232.321
231.872
231.411
230.938
230.454
229.959
229.452
228.935
228.407
227.869
227.321
226.763
226.196
225.619
225.033
224.438
223.834
223.221
222.6
221.97
221.331
220.685
220.03
219.367
218.696
218.018
217.331
216.637
215.934
215.225
214.507
213.783
213.05
212.31
211.563
210.808
210.046
209.276
208.5
207.715
206.924
206.125
205.319
204.505
203.684
202.856
202.021
201.178
200.327
199.47
198.605
197.733
196.853
195.965
195.071
194.168
193.259
192.341
191.416
190.484
189.544
188.596
187.64
186.676
185.705
184.726
183.739
182.743
181.74
180.729
179.71
178.683
177.647
176.603
175.551
174.491
173.422
172.345
171.259
170.164
169.061
167.95
166.829
165.7
164.562
163.415
162.259
161.093
159.919
158.736
157.543
156.341
155.129
153.908
152.678
151.438
150.188
148.929
147.659
146.38
145.091
143.792
142.483
141.164
139.834
138.494
137.144
135.783
134.411
133.029
131.636
130.233
128.818
127.393
125.956
124.508
123.05
121.58
120.098
118.605
117.101
115.586
114.059
112.521
110.971
109.41
107.838
106.255
104.661
103.057
101.444
99.8217
98.1921
96.5559
94.9156
93.27
91.622
89.9564
239.339
239.338
239.335
239.337
239.334
239.331
239.326
239.32
239.312
239.301
239.286
239.266
239.241
239.208
239.168
239.118
239.059
238.988
238.905
238.81
238.701
238.578
238.439
238.286
238.116
237.931
237.729
237.511
237.277
237.026
236.759
236.476
236.178
235.864
235.534
235.19
234.831
234.457
234.07
233.669
233.255
232.827
232.388
231.935
231.471
230.995
230.508
230.01
229.5
228.98
228.45
227.91
227.36
226.8
226.23
225.652
225.064
224.467
223.861
223.247
222.624
221.993
221.353
220.705
220.049
219.385
218.713
218.033
217.346
216.651
215.948
215.237
214.519
213.793
213.06
212.32
211.572
210.817
210.054
209.284
208.506
207.722
206.93
206.131
205.324
204.51
203.689
202.86
202.025
201.181
200.331
199.473
198.608
197.735
196.855
195.968
195.073
194.17
193.261
192.343
191.418
190.485
189.545
188.597
187.641
186.677
185.706
184.727
183.739
182.744
181.741
180.73
179.71
178.683
177.647
176.604
175.551
174.491
173.422
172.345
171.259
170.164
169.061
167.95
166.829
165.7
164.562
163.415
162.259
161.093
159.919
158.736
157.543
156.341
155.129
153.908
152.678
151.438
150.188
148.929
147.659
146.38
145.091
143.792
142.483
141.164
139.834
138.494
137.144
135.783
134.411
133.029
131.636
130.233
128.818
127.392
125.956
124.508
123.049
121.579
120.098
118.605
117.101
115.585
114.058
112.52
110.97
109.408
107.836
106.252
104.658
103.053
101.438
99.8144
98.1821
96.5419
94.8953
93.2406
91.5783
89.8962
239.373
239.372
239.372
239.372
239.373
239.374
239.375
239.374
239.373
239.37
239.362
239.351
239.333
239.309
239.277
239.235
239.182
239.118
239.041
238.95
238.845
238.724
238.587
238.434
238.264
238.078
237.874
237.654
237.417
237.162
236.892
236.605
236.302
235.983
235.649
235.3
234.936
234.558
234.166
233.761
233.342
232.911
232.467
232.01
231.542
231.063
230.572
230.07
229.557
229.035
228.501
227.958
227.405
226.843
226.271
225.69
225.1
224.501
223.893
223.277
222.653
222.02
221.378
220.729
220.072
219.406
218.733
218.052
217.364
216.667
215.963
215.252
214.533
213.806
213.073
212.331
211.583
210.827
210.063
209.293
208.515
207.73
206.937
206.137
205.33
204.516
203.694
202.866
202.029
201.186
200.335
199.477
198.611
197.739
196.858
195.971
195.076
194.173
193.263
192.345
191.42
190.487
189.546
188.598
187.642
186.678
185.707
184.727
183.74
182.745
181.742
180.73
179.711
178.683
177.648
176.604
175.552
174.491
173.422
172.345
171.259
170.165
169.062
167.95
166.829
165.7
164.562
163.415
162.258
161.093
159.919
158.735
157.543
156.341
155.129
153.908
152.678
151.438
150.188
148.928
147.659
146.38
145.091
143.792
142.483
141.163
139.834
138.494
137.143
135.783
134.411
133.029
131.636
130.232
128.818
127.392
125.956
124.508
123.049
121.579
120.097
118.604
117.1
115.584
114.057
112.518
110.968
109.407
107.834
106.249
104.654
103.048
101.432
99.8061
98.1708
96.5264
94.8736
93.2104
91.5358
89.8396
239.403
239.403
239.404
239.406
239.41
239.416
239.423
239.43
239.436
239.441
239.443
239.443
239.436
239.423
239.4
239.368
239.325
239.268
239.198
239.113
239.011
238.894
238.759
238.607
238.437
238.249
238.043
237.82
237.579
237.32
237.045
236.753
236.445
236.121
235.782
235.427
235.058
234.675
234.277
233.867
233.443
233.006
232.557
232.097
231.624
231.14
230.645
230.14
229.623
229.097
228.56
228.014
227.458
226.893
226.318
225.734
225.142
224.541
223.931
223.312
222.686
222.051
221.408
220.757
220.098
219.431
218.757
218.074
217.384
216.687
215.982
215.269
214.549
213.822
213.087
212.345
211.595
210.838
210.074
209.303
208.524
207.739
206.946
206.145
205.338
204.523
203.701
202.872
202.035
201.191
200.34
199.481
198.616
197.742
196.862
195.974
195.079
194.176
193.265
192.347
191.422
190.489
189.548
188.6
187.644
186.68
185.708
184.729
183.741
182.746
181.742
180.731
179.712
178.684
177.648
176.604
175.552
174.491
173.423
172.345
171.259
170.165
169.062
167.95
166.829
165.7
164.562
163.415
162.258
161.093
159.919
158.735
157.542
156.34
155.129
153.908
152.677
151.437
150.188
148.928
147.659
146.38
145.091
143.792
142.483
141.163
139.834
138.494
137.143
135.782
134.411
133.029
131.636
130.232
128.818
127.392
125.955
124.508
123.049
121.578
120.097
118.604
117.099
115.584
114.056
112.517
110.967
109.405
107.831
106.246
104.65
103.043
101.425
99.7971
98.1587
96.5101
94.8513
93.1802
91.4949
89.7869
239.424
239.424
239.426
239.431
239.438
239.449
239.462
239.477
239.493
239.51
239.524
239.536
239.543
239.543
239.534
239.514
239.482
239.436
239.374
239.296
239.2
239.086
238.954
238.802
238.632
238.443
238.234
238.007
237.762
237.499
237.219
236.921
236.607
236.277
235.931
235.57
235.195
234.805
234.402
233.985
233.556
233.114
232.659
232.193
231.716
231.227
230.728
230.218
229.697
229.167
228.627
228.077
227.517
226.949
226.371
225.784
225.189
224.585
223.973
223.352
222.723
222.086
221.441
220.788
220.128
219.459
218.783
218.099
217.408
216.709
216.002
215.288
214.567
213.839
213.103
212.36
211.609
210.852
210.087
209.315
208.535
207.749
206.955
206.154
205.346
204.531
203.708
202.878
202.041
201.197
200.345
199.487
198.62
197.747
196.866
195.978
195.082
194.179
193.268
192.35
191.425
190.491
189.55
188.602
187.646
186.681
185.71
184.73
183.742
182.747
181.743
180.732
179.712
178.685
177.649
176.605
175.552
174.492
173.423
172.345
171.259
170.165
169.062
167.95
166.829
165.7
164.562
163.414
162.258
161.093
159.919
158.735
157.542
156.34
155.129
153.908
152.677
151.437
150.187
148.928
147.659
146.38
145.091
143.792
142.482
141.163
139.833
138.493
137.143
135.782
134.411
133.028
131.636
130.232
128.817
127.392
125.955
124.507
123.048
121.578
120.096
118.603
117.099
115.583
114.055
112.516
110.965
109.402
107.828
106.243
104.646
103.037
101.418
99.7874
98.146
96.4932
94.8287
93.1504
91.4558
89.7381
239.426
239.427
239.429
239.435
239.446
239.461
239.481
239.504
239.532
239.562
239.592
239.62
239.644
239.662
239.67
239.667
239.65
239.617
239.567
239.498
239.409
239.3
239.17
239.02
238.849
238.658
238.447
238.216
237.966
237.697
237.41
237.106
236.785
236.448
236.096
235.728
235.345
234.949
234.539
234.116
233.68
233.232
232.772
232.3
231.817
231.323
230.819
230.304
229.779
229.244
228.7
228.146
227.583
227.011
226.429
225.84
225.241
224.635
224.02
223.396
222.765
222.125
221.478
220.823
220.16
219.49
218.812
218.126
217.433
216.733
216.025
215.31
214.587
213.858
213.121
212.376
211.625
210.866
210.101
209.328
208.547
207.76
206.966
206.164
205.355
204.539
203.716
202.886
202.048
201.204
200.351
199.492
198.626
197.752
196.871
195.982
195.086
194.183
193.272
192.353
191.427
190.494
189.553
188.604
187.647
186.683
185.711
184.731
183.744
182.748
181.744
180.733
179.713
178.685
177.649
176.605
175.553
174.492
173.423
172.346
171.26
170.165
169.062
167.95
166.829
165.7
164.562
163.414
162.258
161.093
159.919
158.735
157.542
156.34
155.128
153.907
152.677
151.437
150.187
148.928
147.659
146.38
145.09
143.791
142.482
141.163
139.833
138.493
137.143
135.782
134.41
133.028
131.635
130.232
128.817
127.391
125.955
124.507
123.048
121.577
120.096
118.602
117.098
115.582
114.054
112.514
110.963
109.4
107.825
106.239
104.641
103.031
101.41
99.7774
98.1329
96.4761
94.8063
93.1214
91.4187
89.6927
239.39
239.392
239.396
239.406
239.417
239.43
239.454
239.488
239.528
239.575
239.625
239.675
239.723
239.765
239.797
239.816
239.819
239.804
239.769
239.712
239.633
239.531
239.405
239.257
239.086
238.893
238.678
238.443
238.187
237.912
237.619
237.308
236.979
236.635
236.274
235.899
235.509
235.105
234.688
234.258
233.815
233.36
232.894
232.416
231.927
231.427
230.918
230.398
229.868
229.328
228.779
228.221
227.654
227.078
226.493
225.9
225.298
224.688
224.07
223.444
222.81
222.168
221.519
220.861
220.196
219.524
218.844
218.156
217.462
216.76
216.05
215.333
214.61
213.878
213.14
212.395
211.642
210.882
210.116
209.342
208.561
207.773
206.977
206.175
205.365
204.549
203.725
202.894
202.056
201.211
200.358
199.498
198.631
197.757
196.876
195.987
195.09
194.186
193.275
192.357
191.43
190.497
189.555
188.606
187.65
186.685
185.713
184.733
183.745
182.749
181.746
180.734
179.714
178.686
177.65
176.606
175.553
174.493
173.424
172.346
171.26
170.165
169.062
167.95
166.829
165.7
164.562
163.414
162.258
161.093
159.918
158.735
157.542
156.34
155.128
153.907
152.677
151.437
150.187
148.928
147.658
146.379
145.09
143.791
142.482
141.163
139.833
138.493
137.143
135.782
134.41
133.028
131.635
130.231
128.817
127.391
125.954
124.506
123.047
121.577
120.095
118.602
117.097
115.58
114.052
112.513
110.961
109.398
107.822
106.235
104.636
103.025
101.402
99.7672
98.1196
96.459
94.7843
93.0934
91.3838
89.6506
239.293
239.294
239.297
239.303
239.314
239.33
239.341
239.387
239.443
239.508
239.583
239.664
239.745
239.822
239.889
239.941
239.973
239.984
239.971
239.931
239.866
239.773
239.654
239.509
239.339
239.144
238.926
238.686
238.424
238.143
237.842
237.523
237.187
236.834
236.465
236.082
235.684
235.272
234.847
234.409
233.959
233.497
233.024
232.54
232.044
231.539
231.023
230.498
229.963
229.418
228.865
228.302
227.731
227.15
226.562
225.965
225.36
224.746
224.125
223.496
222.859
222.214
221.562
220.902
220.235
219.56
218.878
218.189
217.492
216.788
216.077
215.359
214.634
213.901
213.161
212.415
211.661
210.9
210.132
209.357
208.575
207.786
206.99
206.187
205.376
204.559
203.735
202.903
202.064
201.218
200.365
199.505
198.638
197.763
196.881
195.992
195.095
194.191
193.279
192.36
191.434
190.5
189.558
188.609
187.652
186.687
185.715
184.735
183.747
182.751
181.747
180.735
179.715
178.687
177.651
176.607
175.554
174.493
173.424
172.346
171.26
170.165
169.062
167.95
166.829
165.7
164.562
163.414
162.258
161.093
159.918
158.735
157.542
156.34
155.128
153.907
152.677
151.436
150.187
148.927
147.658
146.379
145.09
143.791
142.482
141.162
139.833
138.493
137.142
135.781
134.41
133.028
131.635
130.231
128.816
127.391
125.954
124.506
123.047
121.576
120.094
118.601
117.096
115.579
114.051
112.511
110.959
109.395
107.819
106.231
104.631
103.019
101.394
99.7568
98.1064
96.4422
94.7629
93.0667
91.3509
89.6115
239.088
239.088
239.084
239.082
239.083
239.095
239.123
239.134
239.194
239.28
239.39
239.516
239.649
239.781
239.902
240.005
240.084
240.135
240.155
240.143
240.097
240.02
239.91
239.771
239.603
239.408
239.187
238.942
238.675
238.386
238.078
237.75
237.406
237.044
236.667
236.275
235.868
235.448
235.015
234.569
234.111
233.642
233.162
232.671
232.169
231.657
231.136
230.604
230.064
229.514
228.955
228.388
227.812
227.227
226.635
226.034
225.425
224.808
224.183
223.551
222.911
222.264
221.609
220.946
220.276
219.599
218.915
218.224
217.525
216.819
216.106
215.386
214.659
213.925
213.184
212.436
211.681
210.919
210.15
209.374
208.591
207.8
207.003
206.199
205.388
204.57
203.745
202.913
202.073
201.227
200.373
199.512
198.644
197.769
196.887
195.997
195.1
194.195
193.283
192.364
191.437
190.503
189.561
188.612
187.654
186.689
185.717
184.736
183.748
182.752
181.748
180.736
179.716
178.688
177.652
176.607
175.555
174.494
173.424
172.347
171.26
170.166
169.062
167.95
166.83
165.7
164.562
163.414
162.258
161.093
159.918
158.734
157.542
156.339
155.128
153.907
152.676
151.436
150.187
148.927
147.658
146.379
145.09
143.791
142.482
141.162
139.833
138.493
137.142
135.781
134.41
133.027
131.634
130.231
128.816
127.39
125.953
124.505
123.046
121.576
120.094
118.6
117.095
115.578
114.05
112.509
110.957
109.392
107.816
106.227
104.626
103.012
101.386
99.7466
98.0934
96.4258
94.7424
93.0414
91.3202
89.5753
238.717
238.709
238.685
238.651
238.614
238.586
238.58
238.608
238.642
238.736
238.885
239.079
239.301
239.532
239.752
239.948
240.108
240.226
240.3
240.329
240.315
240.26
240.166
240.036
239.872
239.678
239.456
239.207
238.934
238.638
238.322
237.987
237.633
237.263
236.877
236.476
236.06
235.632
235.19
234.736
234.271
233.794
233.306
232.808
232.3
231.781
231.253
230.716
230.17
229.615
229.051
228.478
227.898
227.309
226.712
226.107
225.494
224.873
224.245
223.609
222.966
222.316
221.658
220.993
220.32
219.641
218.954
218.26
217.559
216.852
216.137
215.415
214.686
213.951
213.208
212.458
211.702
210.939
210.168
209.391
208.607
207.816
207.018
206.213
205.401
204.582
203.756
202.923
202.083
201.236
200.381
199.52
198.652
197.776
196.893
196.003
195.105
194.2
193.288
192.368
191.441
190.506
189.564
188.614
187.657
186.692
185.719
184.738
183.75
182.754
181.749
180.737
179.717
178.689
177.653
176.608
175.555
174.494
173.425
172.347
171.261
170.166
169.062
167.95
166.83
165.7
164.561
163.414
162.258
161.092
159.918
158.734
157.541
156.339
155.128
153.907
152.676
151.436
150.186
148.927
147.658
146.379
145.09
143.79
142.481
141.162
139.832
138.492
137.142
135.781
134.409
133.027
131.634
130.23
128.815
127.39
125.953
124.505
123.046
121.575
120.093
118.599
117.094
115.577
114.048
112.507
110.955
109.39
107.813
106.223
104.621
103.006
101.378
99.7365
98.0808
96.41
94.7229
93.0175
91.2916
89.5418
238.091
238.058
237.973
237.849
237.692
237.525
237.377
237.29
237.298
237.39
237.637
238.003
238.44
238.894
239.319
239.686
239.985
240.212
240.371
240.464
240.498
240.478
240.409
240.294
240.14
239.95
239.728
239.476
239.198
238.897
238.573
238.23
237.868
237.488
237.093
236.683
236.259
235.822
235.372
234.91
234.436
233.951
233.456
232.951
232.435
231.91
231.376
230.833
230.28
229.72
229.15
228.573
227.987
227.394
226.792
226.183
225.566
224.942
224.31
223.67
223.024
222.37
221.709
221.041
220.366
219.684
218.995
218.299
217.596
216.886
216.169
215.445
214.715
213.977
213.233
212.482
211.724
210.96
210.188
209.409
208.624
207.832
207.033
206.227
205.414
204.594
203.767
202.934
202.093
201.245
200.39
199.528
198.659
197.783
196.899
196.009
195.111
194.206
193.293
192.373
191.445
190.51
189.568
188.617
187.66
186.694
185.721
184.74
183.752
182.755
181.751
180.739
179.718
178.69
177.653
176.609
175.556
174.495
173.425
172.347
171.261
170.166
169.063
167.95
166.83
165.7
164.561
163.414
162.258
161.092
159.918
158.734
157.541
156.339
155.127
153.906
152.676
151.436
150.186
148.927
147.657
146.378
145.089
143.79
142.481
141.162
139.832
138.492
137.141
135.781
134.409
133.027
131.634
130.23
128.815
127.389
125.952
124.504
123.045
121.574
120.092
118.598
117.093
115.576
114.047
112.506
110.953
109.387
107.809
106.219
104.616
103
101.37
99.7268
98.0687
96.395
94.7044
92.9951
91.265
89.5111
237.092
237.003
236.79
236.462
236.019
235.489
234.948
234.508
234.298
234.413
234.868
235.605
236.499
237.417
238.254
238.961
239.531
239.971
240.288
240.5
240.62
240.661
240.633
240.545
240.408
240.226
240.007
239.754
239.473
239.166
238.835
238.484
238.113
237.725
237.321
236.902
236.469
236.022
235.563
235.093
234.611
234.118
233.615
233.102
232.579
232.047
231.506
230.956
230.398
229.831
229.256
228.674
228.083
227.484
226.878
226.264
225.643
225.014
224.379
223.736
223.086
222.429
221.764
221.093
220.415
219.73
219.039
218.34
217.635
216.923
216.204
215.478
214.745
214.006
213.26
212.508
211.748
210.982
210.209
209.429
208.643
207.849
207.049
206.242
205.428
204.607
203.78
202.945
202.104
201.255
200.4
199.537
198.667
197.79
196.906
196.015
195.117
194.211
193.298
192.377
191.449
190.514
189.571
188.621
187.663
186.697
185.724
184.743
183.754
182.757
181.753
180.74
179.72
178.691
177.654
176.61
175.557
174.495
173.426
172.348
171.261
170.166
169.063
167.951
166.83
165.7
164.561
163.414
162.258
161.092
159.917
158.734
157.541
156.339
155.127
153.906
152.676
151.436
150.186
148.926
147.657
146.378
145.089
143.79
142.481
141.161
139.832
138.492
137.141
135.78
134.409
133.026
131.633
130.23
128.815
127.389
125.952
124.504
123.044
121.574
120.091
118.597
117.092
115.575
114.045
112.504
110.951
109.385
107.806
106.215
104.611
102.994
101.363
99.7176
98.0572
96.3808
94.6872
92.9745
91.2406
89.483
235.85
235.635
235.132
234.315
233.124
231.527
229.677
228.021
227.034
226.968
227.786
229.383
231.437
233.609
235.598
237.237
238.484
239.38
239.991
240.406
240.662
240.793
240.823
240.773
240.658
240.489
240.276
240.025
239.741
239.43
239.093
238.735
238.356
237.96
237.547
237.119
236.677
236.222
235.755
235.276
234.786
234.285
233.774
233.254
232.724
232.185
231.637
231.081
230.517
229.944
229.364
228.775
228.179
227.576
226.965
226.346
225.721
225.088
224.449
223.802
223.148
222.488
221.821
221.146
220.465
219.778
219.083
218.382
217.674
216.96
216.239
215.511
214.777
214.036
213.288
212.534
211.773
211.005
210.23
209.449
208.662
207.867
207.066
206.258
205.443
204.621
203.792
202.957
202.115
201.265
200.409
199.546
198.675
197.798
196.913
196.022
195.123
194.216
193.303
192.382
191.454
190.518
189.575
188.624
187.666
186.7
185.726
184.745
183.756
182.759
181.754
180.741
179.721
178.692
177.655
176.61
175.557
174.496
173.426
172.348
171.262
170.167
169.063
167.951
166.83
165.7
164.561
163.414
162.257
161.092
159.917
158.733
157.54
156.338
155.127
153.906
152.675
151.435
150.186
148.926
147.657
146.378
145.089
143.79
142.48
141.161
139.831
138.491
137.141
135.78
134.408
133.026
131.633
130.229
128.814
127.388
125.951
124.503
123.044
121.573
120.09
118.596
117.091
115.573
114.044
112.502
110.948
109.382
107.803
106.211
104.607
102.988
101.356
99.7086
98.0462
96.3674
94.671
92.9551
91.218
89.4572
234.836
234.459
233.564
231.988
229.488
225.969
221.775
217.908
215.442
214.908
216.387
219.543
223.631
227.94
231.842
234.953
237.172
238.642
239.63
240.274
240.674
240.896
240.984
240.971
240.879
240.723
240.517
240.268
239.983
239.668
239.327
238.962
238.577
238.174
237.753
237.318
236.868
236.405
235.93
235.444
234.947
234.439
233.921
233.394
232.858
232.313
231.759
231.197
230.627
230.049
229.463
228.87
228.269
227.661
227.046
226.423
225.794
225.158
224.514
223.864
223.207
222.544
221.873
221.196
220.512
219.822
219.125
218.422
217.712
216.995
216.272
215.542
214.806
214.063
213.314
212.558
211.796
211.027
210.251
209.468
208.68
207.884
207.081
206.272
205.457
204.634
203.804
202.968
202.125
201.275
200.418
199.554
198.683
197.805
196.92
196.028
195.128
194.222
193.308
192.386
191.458
190.522
189.578
188.627
187.668
186.702
185.728
184.747
183.758
182.76
181.756
180.743
179.722
178.693
177.656
176.611
175.558
174.496
173.427
172.348