/*--------------------------------*- C++ -*----------------------------------*\
  =========                 |
  \\      /  F ield         | OpenFOAM: The Open Source CFD Toolbox
   \\    /   O peration     | Website:  https://openfoam.org
    \\  /    A nd           | Version:  7
     \\/     M anipulation  |
\*---------------------------------------------------------------------------*/
FoamFile
{
    version     2.0;
    format      ascii;
    class       surfaceScalarField;
    location    "0.004";
    object      phi_0;
}
// * * * * * * * * * * * * * * * * * * * * * * * * * * * * * * * * * * * * * //

dimensions      [0 3 -1 0 0 0 0];

internalField   nonuniform List<scalar> 
24170
(
1.40567e-06
1.94248e-07
1.27441e-06
1.31262e-07
1.14792e-06
1.26481e-07
1.03943e-06
1.08494e-07
9.44406e-07
9.50245e-08
8.67037e-07
7.73688e-08
8.16475e-07
5.05624e-08
7.98062e-07
1.84132e-08
8.03451e-07
-5.3895e-09
8.27251e-07
-2.37998e-08
8.58098e-07
-3.08467e-08
8.93296e-07
-3.51978e-08
9.2922e-07
-3.5924e-08
9.67605e-07
-3.83849e-08
1.02011e-06
-5.25101e-08
1.07718e-06
-5.70699e-08
1.17754e-06
-1.00357e-07
-1.00314e-07
1.27786e-06
1.66819e-06
2.21133e-07
1.64783e-06
1.51617e-07
1.61428e-06
1.6004e-07
1.58818e-06
1.34585e-07
1.56726e-06
1.15951e-07
1.54387e-06
1.00754e-07
1.523e-06
7.14319e-08
1.51387e-06
2.75499e-08
1.51683e-06
-8.35514e-09
1.52742e-06
-3.43875e-08
1.54407e-06
-4.75005e-08
1.56657e-06
-5.76991e-08
1.59253e-06
-6.18835e-08
1.62536e-06
-7.12153e-08
1.6627e-06
-8.98481e-08
1.72267e-06
-1.17039e-07
1.77803e-06
-1.55718e-07
-1.94373e-07
1.87209e-06
1.79756e-06
2.43698e-07
1.77223e-06
1.7695e-07
1.76239e-06
1.69879e-07
1.75698e-06
1.39996e-07
1.75302e-06
1.19904e-07
1.75084e-06
1.02936e-07
1.75342e-06
6.88563e-08
1.76011e-06
2.08544e-08
1.76856e-06
-1.68035e-08
1.77317e-06
-3.90006e-08
1.77665e-06
-5.09732e-08
1.77873e-06
-5.97789e-08
1.78852e-06
-7.16757e-08
1.80705e-06
-8.97477e-08
1.8394e-06
-1.22195e-07
1.88178e-06
-1.59419e-07
1.93045e-06
-2.04389e-07
-2.55915e-07
1.99199e-06
1.9249e-06
3.39398e-07
1.89739e-06
2.04465e-07
1.89585e-06
1.71412e-07
1.88765e-06
1.48201e-07
1.8789e-06
1.2865e-07
1.88005e-06
1.01788e-07
1.89093e-06
5.79794e-08
1.90512e-06
6.65859e-09
1.91626e-06
-2.79448e-08
1.92118e-06
-4.39168e-08
1.92153e-06
-5.13274e-08
1.92269e-06
-6.09357e-08
1.93066e-06
-7.96419e-08
1.94994e-06
-1.09032e-07
1.97905e-06
-1.51309e-07
2.01821e-06
-1.98572e-07
2.06412e-06
-2.50299e-07
-3.0673e-07
2.11493e-06
2.0668e-06
3.52852e-07
2.04388e-06
2.27383e-07
2.04334e-06
1.71952e-07
2.0452e-06
1.46343e-07
2.04661e-06
1.27238e-07
2.05195e-06
9.64535e-08
2.05985e-06
5.00754e-08
2.06364e-06
2.86714e-09
2.06329e-06
-2.75954e-08
2.0587e-06
-3.93235e-08
2.05491e-06
-4.75348e-08
2.0568e-06
-6.28257e-08
2.06774e-06
-9.05878e-08
2.08965e-06
-1.30937e-07
2.12067e-06
-1.82328e-07
2.16045e-06
-2.38355e-07
2.20583e-06
-2.95678e-07
-3.5445e-07
2.25355e-06
2.19291e-06
3.69807e-07
2.19771e-06
2.2259e-07
2.2041e-06
1.65555e-07
2.20117e-06
1.49276e-07
2.19865e-06
1.29755e-07
2.20496e-06
9.01485e-08
2.21582e-06
3.92101e-08
2.22308e-06
-4.39049e-09
2.22229e-06
-2.68092e-08
2.21756e-06
-3.45928e-08
2.21435e-06
-4.43248e-08
2.21803e-06
-6.65023e-08
2.2311e-06
-1.03658e-07
2.25381e-06
-1.53644e-07
2.28435e-06
-2.12875e-07
2.32103e-06
-2.75033e-07
2.36209e-06
-3.36739e-07
-3.97574e-07
2.40522e-06
2.41452e-06
3.60217e-07
2.39636e-06
2.40745e-07
2.37186e-06
1.90057e-07
2.36026e-06
1.60875e-07
2.36284e-06
1.27181e-07
2.37181e-06
8.11772e-08
2.3793e-06
3.17224e-08
2.38201e-06
-7.10918e-09
2.38338e-06
-2.81788e-08
2.38647e-06
-3.76761e-08
2.39268e-06
-5.05385e-08
2.40289e-06
-7.67064e-08
2.41725e-06
-1.18024e-07
2.43628e-06
-1.72672e-07
2.46053e-06
-2.37129e-07
2.49034e-06
-3.04839e-07
2.5256e-06
-3.72002e-07
-4.3614e-07
2.56417e-06
2.56745e-06
3.81002e-07
2.56959e-06
2.38606e-07
2.5653e-06
1.94341e-07
2.5582e-06
1.67975e-07
2.55166e-06
1.33727e-07
2.5476e-06
8.52339e-08
2.54783e-06
3.14971e-08
2.5534e-06
-1.26804e-08
2.56347e-06
-3.82509e-08
2.57495e-06
-4.9156e-08
2.58448e-06
-6.00669e-08
2.59161e-06
-8.38336e-08
2.59948e-06
-1.259e-07
2.61221e-06
-1.85403e-07
2.63222e-06
-2.57134e-07
2.65963e-06
-3.32254e-07
2.69295e-06
-4.05313e-07
-4.72365e-07
2.72917e-06
2.80449e-06
3.73426e-07
2.77668e-06
2.66411e-07
2.77483e-06
1.96188e-07
2.78178e-06
1.61027e-07
2.78216e-06
1.33347e-07
2.77847e-06
8.89237e-08
2.77801e-06
3.19583e-08
2.7818e-06
-1.64667e-08
2.78501e-06
-4.14677e-08
2.78411e-06
-4.82534e-08
2.77991e-06
-5.5866e-08
2.77725e-06
-8.11717e-08
2.78147e-06
-1.30121e-07
2.79492e-06
-1.98849e-07
2.81676e-06
-2.78977e-07
2.84481e-06
-3.60302e-07
2.87651e-06
-4.37021e-07
-5.05118e-07
2.90927e-06
2.97719e-06
4.10989e-07
2.98231e-06
2.6129e-07
2.98543e-06
1.93069e-07
2.98242e-06
1.64036e-07
2.97148e-06
1.44287e-07
2.95859e-06
1.01811e-07
2.95094e-06
3.96088e-08
2.94973e-06
-1.52534e-08
2.95269e-06
-4.4428e-08
2.95732e-06
-5.28835e-08
2.96302e-06
-6.15705e-08
2.9715e-06
-8.96513e-08
2.98438e-06
-1.42994e-07
3.00201e-06
-2.16483e-07
3.0235e-06
-3.00464e-07
3.04763e-06
-3.84438e-07
3.0732e-06
-4.62592e-07
-5.30779e-07
3.09886e-06
3.14087e-06
3.55135e-07
3.13658e-06
2.65578e-07
3.1359e-06
1.93756e-07
3.14654e-06
1.53395e-07
3.16336e-06
1.27466e-07
3.17951e-06
8.56594e-08
3.19172e-06
2.73984e-08
3.19935e-06
-2.2882e-08
3.20262e-06
-4.77006e-08
3.20367e-06
-5.39322e-08
3.20571e-06
-6.36077e-08
3.21005e-06
-9.39937e-08
3.21737e-06
-1.50312e-07
3.22769e-06
-2.26803e-07
3.24079e-06
-3.1357e-07
3.25661e-06
-4.0025e-07
3.2748e-06
-4.80781e-07
-5.49922e-07
3.29394e-06
2.88234e-06
4.16642e-07
2.85538e-06
2.92536e-07
2.85327e-06
1.95868e-07
2.84995e-06
1.56715e-07
2.84665e-06
1.30767e-07
2.85114e-06
8.11694e-08
2.86311e-06
1.54241e-08
2.87535e-06
-3.51156e-08
2.88302e-06
-5.53767e-08
2.88621e-06
-5.71153e-08
2.88629e-06
-6.36907e-08
2.8858e-06
-9.34983e-08
2.88644e-06
-1.50954e-07
2.88985e-06
-2.30218e-07
2.89713e-06
-3.20852e-07
2.90835e-06
-4.1147e-07
2.92236e-06
-4.94784e-07
-5.64739e-07
2.93717e-06
3.5215e-06
3.92345e-07
3.52796e-06
2.86074e-07
3.5294e-06
1.94429e-07
3.51543e-06
1.70683e-07
3.50096e-06
1.45233e-07
3.49602e-06
8.61082e-08
3.49845e-06
1.29971e-08
3.50495e-06
-4.16127e-08
3.51097e-06
-6.13957e-08
3.51385e-06
-6.00024e-08
3.51344e-06
-6.3277e-08
3.51107e-06
-9.1129e-08
3.50994e-06
-1.49826e-07
3.51313e-06
-2.33403e-07
3.52147e-06
-3.29199e-07
3.53392e-06
-4.23913e-07
3.54816e-06
-5.09027e-07
-5.78375e-07
3.5618e-06
4.2827e-06
4.78386e-07
4.32235e-06
2.46424e-07
4.32609e-06
1.90689e-07
4.30629e-06
1.90485e-07
4.28254e-06
1.68975e-07
4.26121e-06
1.07446e-07
4.24545e-06
2.875e-08
4.23456e-06
-3.07157e-08
4.23043e-06
-5.72669e-08
4.23156e-06
-6.11309e-08
4.23614e-06
-6.78592e-08
4.24395e-06
-9.89398e-08
4.255e-06
-1.6088e-07
4.26861e-06
-2.47011e-07
4.28334e-06
-3.43924e-07
4.29767e-06
-4.38242e-07
4.30988e-06
-5.21246e-07
-5.87421e-07
4.31893e-06
5.21199e-06
3.78006e-07
5.23135e-06
2.2707e-07
5.20746e-06
2.14573e-07
5.20069e-06
1.97259e-07
5.21103e-06
1.58631e-07
5.21839e-06
1.00089e-07
5.21299e-06
3.41507e-08
5.20376e-06
-2.14889e-08
5.19895e-06
-5.24523e-08
5.20313e-06
-6.53108e-08
5.21427e-06
-7.89969e-08
5.22715e-06
-1.11819e-07
5.23789e-06
-1.71628e-07
5.24514e-06
-2.5426e-07
5.24905e-06
-3.47831e-07
5.25023e-06
-4.39423e-07
5.24876e-06
-5.19773e-07
-5.82986e-07
5.24432e-06
6.46963e-06
4.22567e-07
6.3854e-06
3.11304e-07
6.35853e-06
2.41445e-07
6.35017e-06
2.05615e-07
6.34188e-06
1.66922e-07
6.33594e-06
1.0603e-07
6.33764e-06
3.24468e-08
6.34383e-06
-2.76743e-08
6.35326e-06
-6.18835e-08
6.36279e-06
-7.4838e-08
6.36981e-06
-8.60222e-08
6.37356e-06
-1.15569e-07
6.3742e-06
-1.72266e-07
6.37251e-06
-2.52568e-07
6.3689e-06
-3.44225e-07
6.3632e-06
-4.33715e-07
6.35447e-06
-5.11051e-07
-5.70233e-07
6.34172e-06
7.79925e-06
5.1114e-07
7.73137e-06
3.79177e-07
7.68746e-06
2.85357e-07
7.68178e-06
2.11297e-07
7.70827e-06
1.40426e-07
7.74922e-06
6.50794e-08
7.78607e-06
-4.39806e-09
7.81041e-06
-5.20185e-08
7.82022e-06
-7.16855e-08
7.82038e-06
-7.49984e-08
7.81611e-06
-8.1757e-08
7.81007e-06
-1.09524e-07
7.80236e-06
-1.64558e-07
7.79157e-06
-2.41781e-07
7.77617e-06
-3.28824e-07
7.75544e-06
-4.12984e-07
7.72925e-06
-4.84866e-07
-5.39499e-07
7.69852e-06
9.42712e-06
5.05126e-07
9.44724e-06
3.5906e-07
9.47735e-06
2.55246e-07
9.50079e-06
1.8786e-07
9.51898e-06
1.22239e-07
9.53127e-06
5.27877e-08
9.54181e-06
-1.4936e-08
9.55617e-06
-6.63811e-08
9.57717e-06
-9.26844e-08
9.6005e-06
-9.83332e-08
9.61773e-06
-9.89803e-08
9.62083e-06
-1.12629e-07
9.60599e-06
-1.49712e-07
9.57424e-06
-2.10033e-07
9.52981e-06
-2.84397e-07
9.47734e-06
-3.60512e-07
9.42042e-06
-4.27944e-07
-4.79468e-07
9.36039e-06
1.15242e-05
4.01941e-07
1.15979e-05
2.85402e-07
1.1616e-05
2.37059e-07
1.15956e-05
2.08303e-07
1.15665e-05
1.51364e-07
1.15504e-05
6.88916e-08
1.15454e-05
-9.92116e-09
1.15407e-05
-6.17099e-08
1.15301e-05
-8.20858e-08
1.15122e-05
-8.04558e-08
1.14895e-05
-7.62232e-08
1.14647e-05
-8.79053e-08
1.14396e-05
-1.24627e-07
1.14137e-05
-1.84115e-07
1.13851e-05
-2.55781e-07
1.13514e-05
-3.2685e-07
1.1311e-05
-3.87462e-07
-4.31441e-07
1.12629e-05
8.44633e-06
3.99777e-07
8.40113e-06
3.30593e-07
8.41604e-06
2.22155e-07
8.46229e-06
1.62051e-07
8.5057e-06
1.07958e-07
8.52909e-06
4.5493e-08
8.53559e-06
-1.64174e-08
8.53368e-06
-5.98026e-08
8.52784e-06
-7.62446e-08
8.51989e-06
-7.24989e-08
8.51003e-06
-6.63724e-08
8.49767e-06
-7.55409e-08
8.4814e-06
-1.0836e-07
8.45957e-06
-1.62278e-07
8.43075e-06
-2.26962e-07
8.39433e-06
-2.90437e-07
8.35066e-06
-3.43792e-07
-3.81553e-07
8.30078e-06
7.27316e-06
4.14772e-07
7.31042e-06
2.93327e-07
7.33464e-06
1.97942e-07
7.36203e-06
1.34654e-07
7.37771e-06
9.22811e-08
7.38085e-06
4.23538e-08
7.37874e-06
-1.4305e-08
7.37845e-06
-5.95131e-08
7.38228e-06
-8.00731e-08
7.38955e-06
-7.97692e-08
7.39759e-06
-7.44119e-08
7.40266e-06
-8.06181e-08
7.40078e-06
-1.06473e-07
7.3889e-06
-1.50397e-07
7.36602e-06
-2.04084e-07
7.33295e-06
-2.5737e-07
7.29164e-06
-3.02479e-07
-3.34324e-07
7.24441e-06
6.46544e-06
5.33081e-07
6.46253e-06
2.96237e-07
6.46812e-06
1.92352e-07
6.47217e-06
1.30607e-07
6.48632e-06
7.81333e-08
6.50739e-06
2.12814e-08
6.52225e-06
-2.91705e-08
6.52325e-06
-6.05071e-08
6.51303e-06
-6.98527e-08
6.49856e-06
-6.53064e-08
6.48442e-06
-6.02707e-08
6.47059e-06
-6.6786e-08
6.45468e-06
-9.056e-08
6.43442e-06
-1.30135e-07
6.40888e-06
-1.78543e-07
6.37833e-06
-2.26821e-07
6.34368e-06
-2.6783e-07
-2.96073e-07
6.30543e-06
5.68216e-06
4.29914e-07
5.68725e-06
2.91143e-07
5.68994e-06
1.89659e-07
5.69068e-06
1.29871e-07
5.68318e-06
8.56357e-08
5.67233e-06
3.21243e-08
5.67186e-06
-2.86965e-08
5.68606e-06
-7.47077e-08
5.70748e-06
-9.12768e-08
5.72414e-06
-8.19582e-08
5.7276e-06
-6.37306e-08
5.71572e-06
-5.49113e-08
5.69111e-06
-6.59483e-08
5.65852e-06
-9.75415e-08
5.6225e-06
-1.42528e-07
5.58586e-06
-1.90176e-07
5.54946e-06
-2.31432e-07
-2.59463e-07
5.51285e-06
4.81156e-06
3.43901e-07
4.8926e-06
2.10101e-07
4.92526e-06
1.56999e-07
4.93537e-06
1.19757e-07
4.94659e-06
7.44152e-08
4.96327e-06
1.54484e-08
4.97812e-06
-4.35489e-08
4.98771e-06
-8.42946e-08
4.99155e-06
-9.51198e-08
4.99142e-06
-8.18278e-08
4.98798e-06
-6.02889e-08
4.98097e-06
-4.79031e-08
4.97035e-06
-5.53247e-08
4.95611e-06
-8.33072e-08
4.93781e-06
-1.24223e-07
4.91468e-06
-1.67047e-07
4.8862e-06
-2.0295e-07
-2.25845e-07
4.85258e-06
4.24695e-06
3.13788e-07
4.30317e-06
1.53879e-07
4.34727e-06
1.12898e-07
4.3796e-06
8.7425e-08
4.41462e-06
3.93962e-08
4.44283e-06
-1.27621e-08
4.45171e-06
-5.24239e-08
4.4396e-06
-7.21815e-08
4.418e-06
-7.35232e-08
4.39955e-06
-6.33748e-08
4.39145e-06
-5.21884e-08
4.39299e-06
-4.945e-08
4.39774e-06
-6.00747e-08
4.3979e-06
-8.34649e-08
4.38791e-06
-1.1423e-07
4.36596e-06
-1.45097e-07
4.33319e-06
-1.70187e-07
-1.85494e-07
4.29284e-06
3.68301e-06
3.43472e-07
3.7126e-06
1.24282e-07
3.75913e-06
6.63721e-08
3.80511e-06
4.14481e-08
3.84401e-06
4.93491e-10
3.86609e-06
-3.48477e-08
3.8712e-06
-5.75309e-08
3.86522e-06
-6.61967e-08
3.85833e-06
-6.66403e-08
3.85836e-06
-6.34048e-08
3.86668e-06
-6.05061e-08
3.87873e-06
-6.14983e-08
3.88714e-06
-6.84828e-08
3.88553e-06
-8.18599e-08
3.87107e-06
-9.9768e-08
3.84462e-06
-1.18642e-07
3.80904e-06
-1.34617e-07
-1.44139e-07
3.76769e-06
3.20953e-06
2.58109e-07
3.28028e-06
5.35303e-08
3.32581e-06
2.08459e-08
3.36154e-06
5.71962e-09
3.38652e-06
-2.4492e-08
3.39846e-06
-4.67816e-08
3.39829e-06
-5.73644e-08
3.39314e-06
-6.10472e-08
3.39048e-06
-6.3979e-08
3.39536e-06
-6.82815e-08
3.40772e-06
-7.28656e-08
3.42249e-06
-7.62711e-08
3.43228e-06
-7.82761e-08
3.43103e-06
-8.06086e-08
3.4163e-06
-8.50366e-08
3.38925e-06
-9.15911e-08
3.35287e-06
-9.82341e-08
-1.02342e-07
3.31107e-06
2.87867e-06
1.3758e-07
2.91218e-06
2.00248e-08
2.92537e-06
7.65682e-09
2.95089e-06
-1.98028e-08
2.9727e-06
-4.63053e-08
2.98534e-06
-5.94226e-08
2.98892e-06
-6.09417e-08
2.98755e-06
-5.96742e-08
2.98751e-06
-6.39438e-08
2.99435e-06
-7.51138e-08
3.00894e-06
-8.74616e-08
3.02668e-06
-9.40117e-08
3.04022e-06
-9.18121e-08
3.04304e-06
-8.34308e-08
3.03171e-06
-7.37101e-08
3.00634e-06
-6.62147e-08
2.9693e-06
-6.11964e-08
-5.78821e-08
2.92484e-06
2.50333e-06
6.53739e-08
2.56241e-06
-3.90543e-08
2.59203e-06
-2.19643e-08
2.61367e-06
-4.14427e-08
2.62752e-06
-6.01553e-08
2.63136e-06
-6.32654e-08
2.62527e-06
-5.48514e-08
2.61391e-06
-4.83099e-08
2.60313e-06
-5.31702e-08
2.59513e-06
-6.71085e-08
2.58768e-06
-8.00141e-08
2.57689e-06
-8.32181e-08
2.55985e-06
-7.47803e-08
2.53553e-06
-5.91073e-08
2.50469e-06
-4.28692e-08
2.46903e-06
-3.05557e-08
2.43063e-06
-2.27998e-08
-1.87821e-08
2.39153e-06
2.14123e-06
2.10218e-06
2.08021e-06
2.03877e-06
1.97861e-06
1.91535e-06
1.8605e-06
1.81219e-06
1.75902e-06
1.69191e-06
1.61189e-06
1.52868e-06
1.4539e-06
1.39479e-06
1.35192e-06
1.32136e-06
1.29856e-06
1.27978e-06
2.91676e-09
-2.91676e-09
1.93441e-08
-1.64273e-08
3.77977e-08
-1.84536e-08
5.67134e-08
-1.89157e-08
7.64017e-08
-1.96883e-08
9.7155e-08
-2.07533e-08
1.19178e-07
-2.20234e-08
1.42645e-07
-2.34663e-08
1.67708e-07
-2.50637e-08
1.94504e-07
-2.67958e-08
2.23144e-07
-2.86396e-08
2.53713e-07
-3.05695e-08
2.86271e-07
-3.25579e-08
3.20847e-07
-3.45759e-08
3.57442e-07
-3.65944e-08
3.96026e-07
-3.85846e-08
4.36545e-07
-4.05185e-08
4.78915e-07
-4.237e-08
5.2303e-07
-4.41151e-08
5.68762e-07
-4.57325e-08
6.15966e-07
-4.7204e-08
6.64481e-07
-4.85146e-08
7.14133e-07
-4.96526e-08
7.64743e-07
-5.061e-08
8.16125e-07
-5.13818e-08
8.68091e-07
-5.19661e-08
9.20455e-07
-5.23641e-08
9.73035e-07
-5.25794e-08
1.02565e-06
-5.26179e-08
1.07814e-06
-5.24874e-08
1.13034e-06
-5.21972e-08
1.18209e-06
-5.17579e-08
1.23328e-06
-5.11808e-08
1.28375e-06
-5.0478e-08
1.33342e-06
-4.96617e-08
1.38216e-06
-4.87443e-08
1.4299e-06
-4.77381e-08
1.47655e-06
-4.66548e-08
1.52206e-06
-4.5506e-08
1.56636e-06
-4.43026e-08
1.60942e-06
-4.30549e-08
1.65119e-06
-4.17724e-08
1.69165e-06
-4.04641e-08
1.73079e-06
-3.91379e-08
1.76859e-06
-3.78014e-08
1.80505e-06
-3.64612e-08
1.84018e-06
-3.51232e-08
1.87397e-06
-3.37927e-08
1.90644e-06
-3.24743e-08
1.93762e-06
-3.11722e-08
1.96751e-06
-2.98898e-08
1.99614e-06
-2.863e-08
2.02353e-06
-2.73954e-08
2.04972e-06
-2.61881e-08
2.07473e-06
-2.50097e-08
2.09859e-06
-2.38616e-08
2.12134e-06
-2.27448e-08
2.143e-06
-2.166e-08
2.1636e-06
-2.06078e-08
2.18319e-06
-1.95884e-08
2.20179e-06
-1.8602e-08
2.21944e-06
-1.76484e-08
2.23617e-06
-1.67275e-08
2.25201e-06
-1.58389e-08
2.26699e-06
-1.49823e-08
2.28115e-06
-1.4157e-08
2.29451e-06
-1.33626e-08
2.30711e-06
-1.25984e-08
2.31897e-06
-1.18636e-08
2.33013e-06
-1.11576e-08
2.34061e-06
-1.04797e-08
2.35044e-06
-9.82891e-09
2.35964e-06
-9.2046e-09
2.36825e-06
-8.60595e-09
2.37628e-06
-8.03214e-09
2.38376e-06
-7.4824e-09
2.39072e-06
-6.95589e-09
2.39717e-06
-6.45187e-09
2.40314e-06
-5.96948e-09
2.40865e-06
-5.50803e-09
2.41372e-06
-5.06671e-09
2.41836e-06
-4.64478e-09
2.4226e-06
-4.24157e-09
2.42646e-06
-3.85629e-09
2.42995e-06
-3.48832e-09
2.43308e-06
-3.13687e-09
2.43588e-06
-2.8014e-09
2.43837e-06
-2.48121e-09
2.44054e-06
-2.17545e-09
2.44243e-06
-1.88408e-09
2.44403e-06
-1.60599e-09
2.44537e-06
-1.3398e-09
2.44646e-06
-1.08774e-09
2.44731e-06
-8.46496e-10
2.44792e-06
-6.11432e-10
2.44831e-06
-3.92566e-10
2.44849e-06
-1.84447e-10
2.44846e-06
3.46755e-11
2.44819e-06
2.69617e-10
2.4477e-06
4.86141e-10
2.44702e-06
6.8168e-10
2.44617e-06
8.56137e-10
2.44515e-06
1.01283e-09
2.444e-06
1.15653e-09
2.44271e-06
1.29072e-09
2.44129e-06
1.4176e-09
2.43975e-06
1.53824e-09
2.4381e-06
1.65326e-09
2.43633e-06
1.76297e-09
2.43447e-06
1.86771e-09
2.4325e-06
1.96775e-09
2.43043e-06
2.06335e-09
2.42828e-06
2.15471e-09
2.42604e-06
2.24212e-09
2.42371e-06
2.32576e-09
2.42131e-06
2.4059e-09
2.41882e-06
2.48265e-09
2.41627e-06
2.55635e-09
2.41364e-06
2.62702e-09
2.41095e-06
2.69496e-09
2.40818e-06
2.76021e-09
2.40536e-06
2.82307e-09
2.40248e-06
2.88366e-09
2.39954e-06
2.94224e-09
2.39654e-06
2.99886e-09
2.39348e-06
3.05357e-09
2.39038e-06
3.10658e-09
2.38722e-06
3.15793e-09
2.38401e-06
3.20779e-09
2.38075e-06
3.25633e-09
2.37745e-06
3.30356e-09
2.3741e-06
3.34967e-09
2.37071e-06
3.39464e-09
2.36727e-06
3.43866e-09
2.36379e-06
3.48176e-09
2.36026e-06
3.52407e-09
2.3567e-06
3.56558e-09
2.35309e-06
3.60652e-09
2.34944e-06
3.6468e-09
2.34576e-06
3.68654e-09
2.34203e-06
3.72578e-09
2.33827e-06
3.76462e-09
2.33446e-06
3.8032e-09
2.33062e-06
3.84162e-09
2.32674e-06
3.87994e-09
2.32282e-06
3.91823e-09
2.31887e-06
3.95659e-09
2.31487e-06
3.99517e-09
2.31084e-06
4.03411e-09
2.30676e-06
4.07357e-09
2.30265e-06
4.11369e-09
2.2985e-06
4.15475e-09
2.2943e-06
4.19699e-09
2.29006e-06
4.24074e-09
2.28577e-06
4.28643e-09
2.28144e-06
4.3346e-09
2.27705e-06
4.38596e-09
2.27261e-06
4.44132e-09
2.26811e-06
4.5018e-09
2.26354e-06
4.56878e-09
2.25889e-06
4.64414e-09
2.25416e-06
4.7302e-09
2.24933e-06
4.83007e-09
2.24439e-06
4.94778e-09
2.2393e-06
5.0887e-09
2.23404e-06
5.25999e-09
2.22857e-06
5.47124e-09
2.22283e-06
5.73549e-09
2.21676e-06
6.07162e-09
2.21026e-06
6.50279e-09
2.20318e-06
7.07597e-09
2.19537e-06
7.80955e-09
2.18645e-06
8.92249e-09
2.17636e-06
1.00847e-08
2.16329e-06
1.30739e-08
2.14953e-06
1.37643e-08
2.12347e-06
2.60532e-08
2.10185e-06
2.16209e-08
2.02059e-06
8.12572e-08
8.3775e-08
1.93682e-06
3.11013e-09
-6.02688e-09
2.09729e-08
-3.42901e-08
4.07175e-08
-3.81983e-08
6.09198e-08
-3.91181e-08
8.19329e-08
-4.07014e-08
1.04079e-07
-4.28996e-08
1.27586e-07
-4.55298e-08
1.52642e-07
-4.85226e-08
1.79415e-07
-5.18372e-08
2.0805e-07
-5.54301e-08
2.38661e-07
-5.92513e-08
2.71338e-07
-6.32459e-08
3.06136e-07
-6.73557e-08
3.43081e-07
-7.15214e-08
3.82169e-07
-7.56826e-08
4.23364e-07
-7.97792e-08
4.66599e-07
-8.37534e-08
5.1178e-07
-8.75515e-08
5.5879e-07
-9.11247e-08
6.07487e-07
-9.44296e-08
6.57713e-07
-9.74295e-08
7.09293e-07
-1.00095e-07
7.62043e-07
-1.02402e-07
8.1577e-07
-1.04337e-07
8.70278e-07
-1.0589e-07
9.25371e-07
-1.07059e-07
9.80853e-07
-1.07846e-07
1.03653e-06
-1.08261e-07
1.09223e-06
-1.08316e-07
1.14777e-06
-1.08028e-07
1.20299e-06
-1.07416e-07
1.25774e-06
-1.06503e-07
1.31187e-06
-1.05311e-07
1.36525e-06
-1.03866e-07
1.41779e-06
-1.02193e-07
1.46936e-06
-1.00316e-07
1.51988e-06
-9.82597e-08
1.56927e-06
-9.60493e-08
1.61747e-06
-9.37072e-08
1.66443e-06
-9.12554e-08
1.71009e-06
-8.87145e-08
1.75442e-06
-8.61035e-08
1.79739e-06
-8.34404e-08
1.839e-06
-8.07413e-08
1.87922e-06
-7.80209e-08
1.91805e-06
-7.52926e-08
1.95549e-06
-7.25683e-08
1.99156e-06
-6.98585e-08
2.02626e-06
-6.71726e-08
2.0596e-06
-6.45186e-08
2.09162e-06
-6.19035e-08
2.12232e-06
-5.93335e-08
2.15174e-06
-5.68135e-08
2.1799e-06
-5.43478e-08
2.20683e-06
-5.19397e-08
2.23256e-06
-4.95922e-08
2.25712e-06
-4.73072e-08
2.28055e-06
-4.50864e-08
2.30287e-06
-4.29309e-08
2.32412e-06
-4.08412e-08
2.34434e-06
-3.88179e-08
2.36355e-06
-3.68608e-08
2.38179e-06
-3.49695e-08
2.3991e-06
-3.31435e-08
2.4155e-06
-3.1382e-08
2.43103e-06
-2.96841e-08
2.44571e-06
-2.80486e-08
2.45959e-06
-2.64744e-08
2.47268e-06
-2.496e-08
2.48503e-06
-2.35042e-08
2.49666e-06
-2.21054e-08
2.50759e-06
-2.07621e-08
2.51786e-06
-1.94729e-08
2.52749e-06
-1.8236e-08
2.53651e-06
-1.705e-08
2.54494e-06
-1.59132e-08
2.5528e-06
-1.4824e-08
2.56013e-06
-1.3781e-08
2.56695e-06
-1.27825e-08
2.57327e-06
-1.18269e-08
2.57911e-06
-1.09128e-08
2.5845e-06
-1.00386e-08
2.58947e-06
-9.20303e-09
2.59401e-06
-8.40442e-09
2.59817e-06
-7.6415e-09
2.60194e-06
-6.91282e-09
2.60536e-06
-6.21713e-09
2.60843e-06
-5.55294e-09
2.61117e-06
-4.91914e-09
2.61361e-06
-4.31435e-09
2.61574e-06
-3.73744e-09
2.61758e-06
-3.1873e-09
2.61916e-06
-2.66284e-09
2.62048e-06
-2.1628e-09
2.62155e-06
-1.68622e-09
2.62239e-06
-1.23236e-09
2.62301e-06
-7.99644e-10
2.62343e-06
-3.85364e-10
2.62368e-06
1.74093e-11
2.62378e-06
3.85287e-10
2.62372e-06
7.39588e-10
2.6235e-06
1.07569e-09
2.62312e-06
1.39629e-09
2.62257e-06
1.70211e-09
2.62187e-06
1.99371e-09
2.62101e-06
2.27182e-09
2.62002e-06
2.537e-09
2.61888e-06
2.78982e-09
2.61761e-06
3.03078e-09
2.61622e-06
3.26054e-09
2.61471e-06
3.47959e-09
2.61308e-06
3.68856e-09
2.61135e-06
3.88794e-09
2.60951e-06
4.07836e-09
2.60758e-06
4.26016e-09
2.60555e-06
4.43396e-09
2.60343e-06
4.60015e-09
2.60123e-06
4.75916e-09
2.59894e-06
4.91141e-09
2.59658e-06
5.05729e-09
2.59415e-06
5.19716e-09
2.59164e-06
5.33146e-09
2.58906e-06
5.46056e-09
2.58642e-06
5.58486e-09
2.58371e-06
5.70465e-09
2.58095e-06
5.82016e-09
2.57812e-06
5.93159e-09
2.57524e-06
6.03929e-09
2.5723e-06
6.14352e-09
2.56931e-06
6.24454e-09
2.56628e-06
6.34259e-09
2.56319e-06
6.43789e-09
2.56005e-06
6.53062e-09
2.55687e-06
6.62104e-09
2.55364e-06
6.70932e-09
2.55037e-06
6.7956e-09
2.54706e-06
6.88016e-09
2.5437e-06
6.96308e-09
2.5403e-06
7.04451e-09
2.53686e-06
7.1246e-09
2.53339e-06
7.20351e-09
2.52987e-06
7.28135e-09
2.52631e-06
7.35842e-09
2.52272e-06
7.43489e-09
2.51909e-06
7.51099e-09
2.51542e-06
7.58685e-09
2.51171e-06
7.66266e-09
2.50797e-06
7.73865e-09
2.50419e-06
7.81512e-09
2.50037e-06
7.89236e-09
2.49651e-06
7.97071e-09
2.49262e-06
8.05065e-09
2.48868e-06
8.13259e-09
2.48471e-06
8.2173e-09
2.48069e-06
8.30548e-09
2.47662e-06
8.39819e-09
2.47251e-06
8.4966e-09
2.46835e-06
8.60239e-09
2.46414e-06
8.71754e-09
2.45986e-06
8.8447e-09
2.45552e-06
8.98724e-09
2.4511e-06
9.14946e-09
2.44659e-06
9.33711e-09
2.44198e-06
9.55765e-09
2.43725e-06
9.82085e-09
2.43237e-06
1.01398e-08
2.42731e-06
1.05324e-08
2.42202e-06
1.10215e-08
2.41645e-06
1.16435e-08
2.41052e-06
1.24346e-08
2.4041e-06
1.34935e-08
2.39709e-06
1.48224e-08
2.38916e-06
1.68547e-08
2.3802e-06
1.90355e-08
2.3693e-06
2.39805e-08
2.35621e-06
2.68571e-08
2.33865e-06
4.36113e-08
2.31437e-06
4.58965e-08
2.28645e-06
1.0918e-07
1.23961e-07
2.24626e-06
1.6984e-09
-7.72528e-09
1.77359e-08
-5.03276e-08
3.56196e-08
-5.60819e-08
5.40348e-08
-5.75333e-08
7.33858e-08
-6.00524e-08
9.4022e-08
-6.35358e-08
1.16193e-07
-6.77013e-08
1.40111e-07
-7.24404e-08
1.6596e-07
-7.76861e-08
1.93896e-07
-8.33663e-08
2.24044e-07
-8.9399e-08
2.56492e-07
-9.56941e-08
2.91293e-07
-1.02157e-07
3.28462e-07
-1.0869e-07
3.67977e-07
-1.15197e-07
4.0978e-07
-1.21582e-07
4.53783e-07
-1.27757e-07
4.99869e-07
-1.33637e-07
5.47892e-07
-1.39148e-07
5.97685e-07
-1.44222e-07
6.49062e-07
-1.48807e-07
7.01824e-07
-1.52857e-07
7.55763e-07
-1.56341e-07
8.10665e-07
-1.59239e-07
8.66315e-07
-1.6154e-07
9.22501e-07
-1.63245e-07
9.79015e-07
-1.64361e-07
1.03566e-06
-1.64904e-07
1.09224e-06
-1.64898e-07
1.14858e-06
-1.64371e-07
1.20452e-06
-1.63354e-07
1.2599e-06
-1.61884e-07
1.31459e-06
-1.59996e-07
1.36845e-06
-1.5773e-07
1.42139e-06
-1.55125e-07
1.47329e-06
-1.52219e-07
1.52408e-06
-1.4905e-07
1.57368e-06
-1.45654e-07
1.62204e-06
-1.42066e-07
1.66911e-06
-1.3832e-07
1.71484e-06
-1.34445e-07
1.75921e-06
-1.30471e-07
1.80219e-06
-1.26424e-07
1.84377e-06
-1.22327e-07
1.88396e-06
-1.18202e-07
1.92273e-06
-1.14069e-07
1.96011e-06
-1.09946e-07
1.9961e-06
-1.05847e-07
2.03071e-06
-1.01787e-07
2.06397e-06
-9.77767e-08
2.09589e-06
-9.38269e-08
2.12651e-06
-8.9946e-08
2.15584e-06
-8.61416e-08
2.18391e-06
-8.24195e-08
2.21075e-06
-7.87849e-08
2.2364e-06
-7.52417e-08
2.26089e-06
-7.17929e-08
2.28424e-06
-6.84409e-08
2.3065e-06
-6.51871e-08
2.32769e-06
-6.20325e-08
2.34785e-06
-5.89775e-08
2.36701e-06
-5.6022e-08
2.38521e-06
-5.31655e-08
2.40247e-06
-5.0407e-08
2.41883e-06
-4.77455e-08
2.43433e-06
-4.51795e-08
2.44899e-06
-4.27073e-08
2.46284e-06
-4.03272e-08
2.47592e-06
-3.80372e-08
2.48825e-06
-3.58351e-08
2.49986e-06
-3.37189e-08
2.51079e-06
-3.16862e-08
2.52105e-06
-2.97347e-08
2.53067e-06
-2.78622e-08
2.53969e-06
-2.60663e-08
2.54812e-06
-2.43446e-08
2.55599e-06
-2.26948e-08
2.56333e-06
-2.11144e-08
2.57014e-06
-1.96013e-08
2.57647e-06
-1.8153e-08
2.58233e-06
-1.67674e-08
2.58773e-06
-1.54421e-08
2.5927e-06
-1.4175e-08
2.59726e-06
-1.29639e-08
2.60143e-06
-1.18068e-08
2.60521e-06
-1.07015e-08
2.60864e-06
-9.646e-09
2.61173e-06
-8.63837e-09
2.61449e-06
-7.67669e-09
2.61693e-06
-6.759e-09
2.61908e-06
-5.88357e-09
2.62094e-06
-5.04896e-09
2.62253e-06
-4.25244e-09
2.62386e-06
-3.4931e-09
2.62494e-06
-2.77054e-09
2.62579e-06
-2.08005e-09
2.62641e-06
-1.42022e-09
2.62682e-06
-7.95895e-10
2.62705e-06
-2.08066e-10
2.62707e-06
3.57754e-10
2.62692e-06
8.94842e-10
2.62659e-06
1.40743e-09
2.62609e-06
1.89584e-09
2.62543e-06
2.36131e-09
2.62462e-06
2.80487e-09
2.62366e-06
3.22743e-09
2.62257e-06
3.62997e-09
2.62135e-06
4.0135e-09
2.62e-06
4.37893e-09
2.61853e-06
4.72719e-09
2.61695e-06
5.05924e-09
2.61526e-06
5.3759e-09
2.61347e-06
5.67796e-09
2.61159e-06
5.96628e-09
2.6096e-06
6.2416e-09
2.60753e-06
6.50462e-09
2.60538e-06
6.75602e-09
2.60314e-06
6.99651e-09
2.60083e-06
7.22664e-09
2.59844e-06
7.44702e-09
2.59597e-06
7.65827e-09
2.59344e-06
7.86103e-09
2.59085e-06
8.05582e-09
2.58819e-06
8.2433e-09
2.58547e-06
8.42376e-09
2.58269e-06
8.59767e-09
2.57986e-06
8.76542e-09
2.57697e-06
8.92742e-09
2.57403e-06
9.08412e-09
2.57104e-06
9.23591e-09
2.568e-06
9.38308e-09
2.56491e-06
9.52604e-09
2.56178e-06
9.6651e-09
2.5586e-06
9.80054e-09
2.55537e-06
9.93265e-09
2.55211e-06
1.00618e-08
2.5488e-06
1.01881e-08
2.54545e-06
1.0312e-08
2.54206e-06
1.04336e-08
2.53863e-06
1.05531e-08
2.53517e-06
1.06707e-08
2.53166e-06
1.07867e-08
2.52812e-06
1.09015e-08
2.52454e-06
1.10154e-08
2.52092e-06
1.11285e-08
2.51727e-06
1.12413e-08
2.51357e-06
1.13539e-08
2.50985e-06
1.14667e-08
2.50608e-06
1.15802e-08
2.50228e-06
1.16947e-08
2.49844e-06
1.18109e-08
2.49456e-06
1.19292e-08
2.49064e-06
1.20506e-08
2.48668e-06
1.21759e-08
2.48268e-06
1.23063e-08
2.47864e-06
1.24433e-08
2.47455e-06
1.25887e-08
2.4704e-06
1.27449e-08
2.46621e-06
1.29148e-08
2.46195e-06
1.31023e-08
2.45762e-06
1.33124e-08
2.45322e-06
1.35515e-08
2.44873e-06
1.38278e-08
2.44414e-06
1.41523e-08
2.43942e-06
1.45395e-08
2.43455e-06
1.50082e-08
2.4295e-06
1.55847e-08
2.42422e-06
1.63024e-08
2.41865e-06
1.72137e-08
2.41271e-06
1.83714e-08
2.40629e-06
1.99158e-08
2.39925e-06
2.18607e-08
2.39133e-06
2.4776e-08
2.38228e-06
2.80783e-08
2.37157e-06
3.46939e-08
2.35822e-06
4.02067e-08
2.34283e-06
5.9003e-08
2.31954e-06
6.91887e-08
2.29962e-06
1.29093e-07
1.64634e-07
2.25895e-06
-6.20976e-10
-7.1043e-09
1.27057e-08
-6.36542e-08
2.77892e-08
-7.11654e-08
4.35383e-08
-7.32824e-08
6.04154e-08
-7.69295e-08
7.88201e-08
-8.19405e-08
9.90442e-08
-8.79254e-08
1.21337e-07
-9.4733e-08
1.45912e-07
-1.02261e-07
1.72946e-07
-1.10401e-07
2.02575e-07
-1.19027e-07
2.34886e-07
-1.28005e-07
2.69921e-07
-1.37193e-07
3.07678e-07
-1.46447e-07
3.48105e-07
-1.55625e-07
3.91113e-07
-1.6459e-07
4.36572e-07
-1.73216e-07
4.8432e-07
-1.81385e-07
5.34167e-07
-1.88994e-07
5.85898e-07
-1.95954e-07
6.39284e-07
-2.02193e-07
6.94084e-07
-2.07657e-07
7.5005e-07
-2.12308e-07
8.06936e-07
-2.16125e-07
8.64497e-07
-2.19101e-07
9.22496e-07
-2.21244e-07
9.80708e-07
-2.22572e-07
1.03892e-06
-2.23114e-07
1.09693e-06
-2.22907e-07
1.15455e-06
-2.21994e-07
1.21162e-06
-2.20424e-07
1.26798e-06
-2.18249e-07
1.32351e-06
-2.15521e-07
1.37808e-06
-2.12297e-07
1.43158e-06
-2.08629e-07
1.48393e-06
-2.04572e-07
1.53506e-06
-2.00176e-07
1.5849e-06
-1.95492e-07
1.63339e-06
-1.90565e-07
1.68052e-06
-1.8544e-07
1.72623e-06
-1.80158e-07
1.77051e-06
-1.74756e-07
1.81336e-06
-1.69267e-07
1.85475e-06
-1.63725e-07
1.89471e-06
-1.58155e-07
1.93322e-06
-1.52585e-07
1.97031e-06
-1.47035e-07
2.00599e-06
-1.41526e-07
2.04028e-06
-1.36075e-07
2.0732e-06
-1.30697e-07
2.10478e-06
-1.25404e-07
2.13504e-06
-1.20208e-07
2.16402e-06
-1.15118e-07
2.19174e-06
-1.10141e-07
2.21824e-06
-1.05283e-07
2.24354e-06
-1.00549e-07
2.26769e-06
-9.5943e-08
2.29072e-06
-9.14675e-08
2.31266e-06
-8.71243e-08
2.33354e-06
-8.29142e-08
2.3534e-06
-7.88377e-08
2.37227e-06
-7.48943e-08
2.39019e-06
-7.10833e-08
2.40719e-06
-6.74034e-08
2.42329e-06
-6.38528e-08
2.43854e-06
-6.04297e-08
2.45297e-06
-5.71317e-08
2.4666e-06
-5.39564e-08
2.47946e-06
-5.09012e-08
2.49159e-06
-4.79631e-08
2.50301e-06
-4.51394e-08
2.51375e-06
-4.24269e-08
2.52384e-06
-3.98227e-08
2.5333e-06
-3.73236e-08
2.54216e-06
-3.49264e-08
2.55044e-06
-3.26281e-08
2.55817e-06
-3.04256e-08
2.56537e-06
-2.83156e-08
2.57207e-06
-2.62952e-08
2.57828e-06
-2.43612e-08
2.58402e-06
-2.25107e-08
2.58932e-06
-2.07406e-08
2.59419e-06
-1.9048e-08
2.59866e-06
-1.74302e-08
2.60274e-06
-1.58843e-08
2.60644e-06
-1.44076e-08
2.60979e-06
-1.29973e-08
2.61281e-06
-1.16509e-08
2.61549e-06
-1.03657e-08
2.61787e-06
-9.13933e-09
2.61996e-06
-7.96938e-09
2.62177e-06
-6.85354e-09
2.6233e-06
-5.78946e-09
2.62458e-06
-4.77516e-09
2.62562e-06
-3.80918e-09
2.62643e-06
-2.88941e-09
2.62703e-06
-2.01372e-09
2.62741e-06
-1.17762e-09
2.62758e-06
-3.76298e-10
2.62756e-06
3.76617e-10
2.62736e-06
1.09479e-09
2.62698e-06
1.77927e-09
2.62645e-06
2.43209e-09
2.62576e-06
3.05425e-09
2.62491e-06
3.64699e-09
2.62393e-06
4.21165e-09
2.62281e-06
4.74962e-09
2.62156e-06
5.26211e-09
2.62019e-06
5.75046e-09
2.6187e-06
6.21584e-09
2.6171e-06
6.65945e-09
2.61539e-06
7.08248e-09
2.61359e-06
7.48601e-09
2.61168e-06
7.87104e-09
2.60968e-06
8.23867e-09
2.6076e-06
8.58986e-09
2.60543e-06
8.92547e-09
2.60318e-06
9.2464e-09
2.60085e-06
9.55353e-09
2.59845e-06
9.84758e-09
2.59598e-06
1.01294e-08
2.59344e-06
1.03999e-08
2.59084e-06
1.06598e-08
2.58817e-06
1.09097e-08
2.58545e-06
1.11502e-08
2.58266e-06
1.13819e-08
2.57982e-06
1.16055e-08
2.57693e-06
1.18213e-08
2.57398e-06
1.203e-08
2.57099e-06
1.22321e-08