/*--------------------------------*- C++ -*----------------------------------*\
  =========                 |
  \\      /  F ield         | OpenFOAM: The Open Source CFD Toolbox
   \\    /   O peration     | Website:  https://openfoam.org
    \\  /    A nd           | Version:  7
     \\/     M anipulation  |
\*---------------------------------------------------------------------------*/
FoamFile
{
    version     2.0;
    format      ascii;
    class       volScalarField;
    location    "0.004";
    object      pMean;
}
// * * * * * * * * * * * * * * * * * * * * * * * * * * * * * * * * * * * * * //

dimensions      [0 2 -2 0 0 0 0];

internalField   nonuniform List<scalar> 
12225
(
20.9333
21.0548
21.2266
21.2286
21.108
20.9116
20.684
20.4383
20.1615
19.8344
19.4433
18.9631
18.3858
17.6362
16.712
15.2636
13.3263
8.56658
21.2807
21.0722
21.231
21.2413
21.1176
20.9193
20.6906
20.4442
20.1665
19.8408
19.4491
18.9777
18.3937
17.6834
16.7164
15.5123
13.5149
11.4279
21.4725
21.0621
21.2225
21.2558
21.1353
20.9367
20.7085
20.46
20.1814
19.8546
19.4683
18.999
18.4373
17.7287
16.8577
15.6854
14.2136
12.3632
21.6847
21.1102
21.239
21.2841
21.1632
20.9607
20.7294
20.4804
20.2011
19.8781
19.4944
19.0414
18.4884
17.8315
16.9975
16.0034
14.7417
13.3602
21.8413
21.1543
21.2497
21.3052
21.1897
20.9856
20.7539
20.5053
20.2291
19.9095
19.5356
19.0943
18.5712
17.9481
17.2036
16.3282
15.3184
14.2842
22.0139
21.2288
21.2816
21.3401
21.229
21.0228
20.7885
20.5403
20.2658
19.9526
19.5892
19.1672
18.6738
18.1012
17.4395
16.6933
15.8901
15.0942
22.1696
21.3059
21.3169
21.3737
21.2686
21.0628
20.8277
20.5807
20.3119
20.0076
19.6586
19.2589
18.8013
18.283
17.7051
17.0806
16.4407
15.8394
22.3237
21.4021
21.3733
21.423
21.3207
21.115
20.8789
20.6339
20.3707
20.0769
19.745
19.3711
18.9527
18.491
17.9942
17.4778
16.9728
16.521
22.4878
21.5071
21.4382
21.4765
21.3763
21.1734
20.9388
20.697
20.4414
20.1605
19.8483
19.503
19.1256
18.7208
18.2995
17.8782
17.4835
17.1467
22.6086
21.6125
21.5182
21.5435
21.4428
21.242
21.0092
20.7712
20.5247
20.259
19.9687
19.654
19.3184
18.9685
18.6162
18.2769
17.972
17.7245
22.7372
21.7281
21.6103
21.6217
21.5191
21.3216
21.0933
20.8616
20.625
20.3749
20.1077
19.8244
19.5297
19.2311
18.9402
18.6704
18.4382
18.2598
22.8903
21.8445
21.7038
21.7042
21.5995
21.4043
21.1797
20.9539
20.7281
20.4949
20.2499
19.9952
19.7363
19.4806
19.2389
19.0223
18.8436
18.7143
23.0122
21.9614
21.8076
21.7968
21.6891
21.4966
21.2778
21.0602
20.845
20.6265
20.4029
20.1758
19.9501
19.7332
19.5344
19.3628
19.228
19.1377
23.1148
22.096
21.9338
21.9124
21.8017
21.6116
21.3982
21.1887
20.9872
20.7886
20.5899
20.3927
20.2022
20.0249
19.8683
19.7393
19.6442
19.5875
23.3303
22.2733
22.091
22.0586
21.9456
21.7598
21.5552
21.3584
21.1723
20.9934
20.8202
20.654
20.4986
20.359
20.2412
20.1495
20.0878
20.0581
23.6274
22.5104
22.2956
22.2549
22.1393
21.9554
21.7573
21.571
21.4011
21.244
21.0973
20.9613
20.8385
20.7326
20.6478
20.5866
20.5509
20.5409
23.8263
22.727
22.5225
22.4803
22.3644
22.1858
21.9984
21.827
21.6749
21.5387
21.4162
21.3069
21.2124
21.1347
21.0764
21.0387
21.0219
21.0249
24.0981
23.0269
22.8267
22.7788
22.6609
22.4873
22.3086
22.1485
22.0107
21.8919
21.7891
21.7011
21.6277
21.5697
21.5287
21.5048
21.4976
21.5056
24.4563
23.3809
23.1793
23.1334
23.0141
22.836
22.657
22.5029
22.3754
22.2692
22.1801
22.1061
22.0462
22.0005
21.9695
21.953
21.9498
21.9581
24.795
23.7301
23.5224
23.4559
23.3201
23.1368
22.9587
22.8064
22.6805
22.5768
22.4918
22.4227
22.3679
22.3266
22.2989
22.2841
22.2805
22.2863
25.0631
24.0061
23.793
23.7087
23.5549
23.3574
23.1705
23.0144
22.8881
22.7853
22.7014
22.6336
22.5801
22.5399
22.5126
22.4971
22.492
22.4951
25.4029
24.3
24.0448
23.9271
23.7534
23.5462
23.3516
23.1867
23.0522
22.9444
22.8582
22.7895
22.7353
22.6943
22.666
22.6492
22.6422
22.6428
25.741
24.5841
24.2582
24.0937
23.8925
23.6701
23.4686
23.301
23.1653
23.056
22.9683
22.8984
22.8435
22.8019
22.773
22.7554
22.7472
22.746
26.0308
24.8237
24.4436
24.2422
24.0282
23.7973
23.5828
23.4015
23.2557
23.1409
23.0506
22.9789
22.9224
22.8797
22.8498
22.8313
22.8219
22.8192
26.3644
25.0602
24.5769
24.3217
24.0931
23.8614
23.6447
23.4603
23.313
23.1973
23.1056
23.0325
22.975
22.9318
22.9017
22.8828
22.8728
22.8692
26.7436
25.3087
24.7235
24.4319
24.1921
23.9442
23.7104
23.5143
23.3611
23.2422
23.148
23.0726
23.0135
22.9693
22.9385
22.9189
22.908
22.9033
27.037
25.4132
24.7392
24.4516
24.2266
23.9785
23.7394
23.5407
23.3867
23.267
23.1713
23.0944
23.0343
22.9897
22.9591
22.9398
22.9289
22.9239
27.5711
25.6367
24.8177
24.5156
24.2814
24.0168
23.7673
23.5647
23.4087
23.2865
23.1882
23.1093
23.0479
23.0029
22.9722
22.9529
22.9418
22.9365
27.8327
25.6147
24.7962
24.5365
24.3011
24.0285
23.7767
23.5746
23.4182
23.2943
23.1936
23.1126
23.0502
23.0054
22.9757
22.9574
22.9469
22.942
28.5962
25.6637
24.8037
24.567
24.3198
24.0381
23.7843
23.5818
23.4245
23.299
23.1964
23.1137
23.0502
23.0049
22.9751
22.9571
22.947
22.9427
23.3237
23.3292
23.3361
23.3458
23.358
23.3726
23.3896
23.4087
23.4298
23.4527
23.4772
23.5029
23.5297
23.5571
23.5849
23.6128
23.6404
23.6674
23.6936
23.7185
23.7419
23.7636
23.7833
23.8008
23.8158
23.8284
23.8382
23.8453
23.8495
23.8508
23.8492
23.8446
23.8371
23.8268
23.8136
23.7976
23.7789
23.7577
23.7339
23.7077
23.6792
23.6485
23.6157
23.5809
23.5442
23.5058
23.4656
23.4238
23.3805
23.3358
23.2898
23.2425
23.1941
23.1445
23.0939
23.0422
22.9897
22.9363
22.882
22.8269
22.7711
22.7146
22.6574
22.5996
22.5411
22.482
22.4224
22.3622
22.3014
22.2401
22.1783
22.116
22.0532
21.9899
21.9262
21.8619
21.7972
21.732
21.6664
21.6002
21.5337
21.4666
21.3991
21.3311
21.2626
21.1937
21.1243
21.0544
20.984
20.9132
20.8418
20.77
20.6976
20.6248
20.5514
20.4775
20.4031
20.3281
20.2526
20.1766
20.1
20.0228
19.9451
19.8669
19.788
19.7086
19.6286
19.548
19.4668
19.385
19.3026
19.2196
19.136
19.0517
18.9668
18.8813
18.7951
18.7083
18.6208
18.5326
18.4438
18.3543
18.2641
18.1732
18.0816
17.9893
17.8962
17.8025
17.7081
17.6129
17.517
17.4203
17.3229
17.2248
17.1259
17.0262
16.9257
16.8245
16.7224
16.6196
16.5159
16.4115
16.3062
16.2001
16.0931
15.9854
15.8768
15.7673
15.657
15.5458
15.4338
15.3209
15.2071
15.0925
14.977
14.8606
14.7433
14.6252
14.5062
14.3863
14.2656
14.144
14.0217
13.8986
13.7748
13.6503
13.5252
13.3998
13.274
13.1482
13.0227
12.8978
12.7743
12.6529
12.5352
12.4236
12.3213
12.2391
12.1843
12.2057
23.2957
23.3011
23.3085
23.3186
23.3313
23.3466
23.3644
23.3844
23.4065
23.4305
23.4561
23.483
23.511
23.5397
23.5687
23.5978
23.6266
23.6548
23.682
23.708
23.7324
23.755
23.7756
23.7938
23.8096
23.8228
23.8332
23.8408
23.8454
23.8471
23.8458
23.8416
23.8343
23.8242
23.8112
23.7954
23.7768
23.7557
23.732
23.7059
23.6775
23.6469
23.6141
23.5794
23.5428
23.5043
23.4642
23.4225
23.3792
23.3346
23.2886
23.2413
23.1929
23.1434
23.0928
23.0412
22.9887
22.9353
22.8811
22.826
22.7703
22.7138
22.6566
22.5988
22.5403
22.4813
22.4217
22.3615
22.3008
22.2395
22.1777
22.1154
22.0527
21.9894
21.9256
21.8614
21.7967
21.7316
21.6659
21.5998
21.5333
21.4662
21.3987
21.3307
21.2623
21.1934
21.124
21.0541
20.9837
20.9129
20.8415
20.7697
20.6974
20.6245
20.5511
20.4772
20.4028
20.3278
20.2523
20.1763
20.0997
20.0226
19.9449
19.8666
19.7878
19.7084
19.6284
19.5478
19.4666
19.3849
19.3025
19.2195
19.1358
19.0516
18.9667
18.8812
18.795
18.7082
18.6207
18.5325
18.4437
18.3541
18.2639
18.173
18.0814
17.9891
17.8961
17.8024
17.708
17.6128
17.5169
17.4202
17.3228
17.2247
17.1258
17.0261
16.9256
16.8244
16.7223
16.6195
16.5158
16.4114
16.3061
16.2
16.093
15.9853
15.8767
15.7672
15.6569
15.5457
15.4337
15.3208
15.207
15.0924
14.9769
14.8605
14.7432
14.625
14.506
14.3862
14.2654
14.1439
14.0215
13.8984
13.7746
13.65
13.525
13.3995
13.2737
13.1478
13.0221
12.8971
12.7733
12.6516
12.5334
12.4205
12.3166
12.2254
12.1522
12.0856
23.2395
23.2451
23.253
23.264
23.2779
23.2945
23.3139
23.3358
23.3599
23.3861
23.414
23.4434
23.4739
23.5051
23.5366
23.5682
23.5995
23.63
23.6594
23.6875
23.7139
23.7384
23.7606
23.7804
23.7976
23.8121
23.8236
23.8322
23.8378
23.8402
23.8396
23.8359
23.8292
23.8195
23.8069
23.7914
23.7732
23.7523
23.7288
23.7029
23.6746
23.6441
23.6115
23.5769
23.5403
23.502
23.4619
23.4203
23.3771
23.3325
23.2866
23.2394
23.1911
23.1416
23.0911
23.0395
22.9871
22.9337
22.8796
22.8246
22.7689
22.7125
22.6553
22.5976
22.5392
22.4802
22.4206
22.3605
22.2998
22.2386
22.1768
22.1146
22.0519
21.9886
21.9249
21.8607
21.7961
21.7309
21.6653
21.5993
21.5327
21.4657
21.3982
21.3303
21.2619
21.193
21.1236
21.0538
20.9834
20.9126
20.8412
20.7694
20.6971
20.6243
20.5509
20.477
20.4026
20.3277
20.2522
20.1762
20.0996
20.0225
19.9448
19.8665
19.7877
19.7083
19.6283
19.5477
19.4665
19.3848
19.3024
19.2194
19.1358
19.0515
18.9666
18.8811
18.7949
18.7081
18.6206
18.5324
18.4436
18.3541
18.2639
18.173
18.0814
17.9891
17.8961
17.8024
17.7079
17.6128
17.5168
17.4202
17.3228
17.2246
17.1257
17.026
16.9256
16.8243
16.7223
16.6194
16.5158
16.4113
16.306
16.1999
16.093
15.9852
15.8766
15.7672
15.6568
15.5457
15.4336
15.3207
15.207
15.0923
14.9768
14.8604
14.7431
14.625
14.5059
14.3861
14.2653
14.1438
14.0214
13.8982
13.7743
13.6498
13.5247
13.3991
13.2732
13.1471
13.0213
12.896
12.7719
12.6496
12.5305
12.4159
12.3087
12.2099
12.1245
12.0401
23.154
23.16
23.1689
23.1811
23.1967
23.2156
23.2375
23.2622
23.2896
23.3192
23.3507
23.3839
23.4182
23.4533
23.4887
23.5241
23.5591
23.5932
23.6261
23.6574
23.6868
23.714
23.7388
23.761
23.7803
23.7967
23.8099
23.82
23.8269
23.8305
23.8309
23.8281
23.8222
23.8131
23.801
23.786
23.7682
23.7477
23.7245
23.6988
23.6708
23.6405
23.608
23.5736
23.5372
23.4989
23.459
23.4175
23.3744
23.3299
23.2841
23.237
23.1887
23.1393
23.0889
23.0374
22.985
22.9318
22.8777
22.8228
22.7671
22.7108
22.6537
22.596
22.5377
22.4788
22.4193
22.3592
22.2986
22.2374
22.1757
22.1135
22.0508
21.9877
21.924
21.8599
21.7952
21.7302
21.6646
21.5986
21.5321
21.4651
21.3976
21.3297
21.2613
21.1925
21.1231
21.0533
20.983
20.9122
20.8409
20.7691
20.6967
20.6239
20.5506
20.4767
20.4023
20.3274
20.2519
20.1759
20.0994
20.0222
19.9446
19.8663
19.7875
19.7081
19.6281
19.5476
19.4664
19.3846
19.3023
19.2193
19.1357
19.0514
18.9665
18.881
18.7948
18.708
18.6205
18.5324
18.4435
18.354
18.2638
18.1729
18.0813
17.989
17.896
17.8023
17.7079
17.6127
17.5168
17.4201
17.3227
17.2246
17.1257
17.026
16.9255
16.8243
16.7222
16.6194
16.5157
16.4113
16.306
16.1999
16.0929
15.9852
15.8766
15.7671
15.6568
15.5456
15.4336
15.3207
15.2069
15.0922
14.9767
14.8603
14.743
14.6249
14.5058
14.3859
14.2652
14.1436
14.0212
13.898
13.774
13.6494
13.5242
13.3985
13.2724
13.1462
13.0201
12.8944
12.7697
12.6466
12.5262
12.4094
12.2982
12.1922
12.0929
11.9833
23.0373
23.044
23.054
23.0682
23.0862
23.1081
23.1336
23.1624
23.1942
23.2287
23.2653
23.3037
23.3434
23.3839
23.4247
23.4654
23.5055
23.5445
23.582
23.6177
23.6512
23.6822
23.7104
23.7357
23.7579
23.7767
23.7923
23.8043
23.8129
23.8181
23.8198
23.8182
23.8132
23.805
23.7936
23.7792
23.7619
23.7418
23.719
23.6937
23.666
23.6359
23.6037
23.5694
23.5332
23.4951
23.4553
23.4139
23.371
23.3266
23.2809
23.2339
23.1857
23.1365
23.0861
23.0348
22.9825
22.9293
22.8753
22.8205
22.765
22.7087
22.6517
22.5941
22.5359
22.477
22.4176
22.3576
22.297
22.2359
22.1743
22.1122
22.0496
21.9865
21.9229
21.8588
21.7942
21.7292
21.6637
21.5977
21.5312
21.4643
21.3969
21.329
21.2607
21.1918
21.1225
21.0527
20.9824
20.9117
20.8404
20.7686
20.6963
20.6235
20.5502
20.4764
20.402
20.3271
20.2517
20.1757
20.0991
20.022
19.9443
19.8661
19.7873
19.7079
19.628
19.5474
19.4662
19.3845
19.3021
19.2191
19.1355
19.0513
18.9664
18.8809
18.7947
18.7079
18.6204
18.5323
18.4434
18.3539
18.2637
18.1728
18.0812
17.989
17.896
17.8022
17.7078
17.6126
17.5167
17.4201
17.3227
17.2245
17.1256
17.0259
16.9255
16.8242
16.7222
16.6193
16.5157
16.4112
16.3059
16.1998
16.0929
15.9851
15.8765
15.767
15.6567
15.5455
15.4335
15.3206
15.2068
15.0922
14.9766
14.8602
14.7429
14.6247
14.5057
14.3858
14.265
14.1434
14.0209
13.8977
13.7737
13.649
13.5236
13.3978
13.2715
13.145
13.0185
12.8924
12.767
12.6428
12.5208
12.4014
12.2859
12.1727
12.0616
11.9382
22.8868
22.8943
22.9059
22.9226
22.944
22.97
23.0003
23.0345
23.0723
23.1132
23.1566
23.2019
23.2487
23.2964
23.3442
23.3918
23.4385
23.4838
23.5273
23.5686
23.6073
23.6431
23.6757
23.7049
23.7306
23.7526
23.7709
23.7854
23.7961
23.8031
23.8064
23.8062
23.8024
23.7952
23.7847
23.771
23.7544
23.7348
23.7125
23.6876
23.6602
23.6304
23.5985
23.5644
23.5284
23.4905
23.4509
23.4097
23.3669
23.3227
23.2771
23.2303
23.1822
23.1331
23.0828
23.0316
22.9795
22.9264
22.8725
22.8178
22.7624
22.7062
22.6494
22.5919
22.5337
22.475
22.4156
22.3557
22.2952
22.2342
22.1727
22.1107
22.0481
21.9851
21.9215
21.8575
21.793
21.728
21.6626
21.5967
21.5303
21.4634
21.396
21.3282
21.2599
21.1911
21.1218
21.0521
20.9818
20.9111
20.8398
20.7681
20.6958
20.6231
20.5498
20.476
20.4016
20.3267
20.2513
20.1753
20.0988
20.0217
19.9441
19.8659
19.7871
19.7077
19.6278
19.5472
19.4661
19.3843
19.302
19.219
19.1354
19.0512
18.9663
18.8808
18.7946
18.7078
18.6203
18.5322
18.4433
18.3538
18.2636
18.1728
18.0812
17.9889
17.8959
17.8022
17.7077
17.6126
17.5167
17.42
17.3226
17.2245
17.1256
17.0259
16.9254
16.8242
16.7221
16.6193
16.5156
16.4112
16.3059
16.1998
16.0928
15.9851
15.8764
15.767
15.6567
15.5455
15.4334
15.3205
15.2067
15.0921
14.9765
14.8601
14.7428
14.6246
14.5055
14.3856
14.2648
14.1431
14.0206
13.8973
13.7732
13.6484
13.5229
13.3969
13.2704
13.1436
13.0167
12.8899
12.7637
12.6384
12.5145
12.3924
12.2724
12.1529
12.0322
11.8998
22.6987
22.7074
22.7211
22.7411
22.7668
22.7981
22.8347
22.8761
22.9216
22.9708
23.023
23.0773
23.1333
23.19
23.2468
23.3031
23.3581
23.4113
23.4623
23.5105
23.5555
23.5971
23.6349
23.6688
23.6987
23.7245
23.746
23.7634
23.7766
23.7858
23.791
23.7923
23.7899
23.7838
23.7743
23.7615
23.7456
23.7267
23.7049
23.6804
23.6534
23.624
23.5924
23.5586
23.5228
23.4852
23.4458
23.4047
23.3621
23.3181
23.2727
23.226
23.1781
23.1291
23.079
23.028
22.9759
22.923
22.8693
22.8147
22.7594
22.7034
22.6466
22.5892
22.5312
22.4726
22.4133
22.3535
22.2932
22.2323
22.1708
22.1089
22.0464
21.9835
21.92
21.8561
21.7916
21.7267
21.6614
21.5955
21.5292
21.4623
21.395
21.3273
21.259
21.1903
21.121
21.0513
20.9811
20.9104
20.8392
20.7675
20.6953
20.6225
20.5493
20.4755
20.4012
20.3263
20.2509
20.175
20.0985
20.0214
19.9438
19.8656
19.7868
19.7075
19.6275
19.547
19.4659
19.3841
19.3018
19.2188
19.1352
19.051
18.9662
18.8807
18.7945
18.7077
18.6202
18.5321
18.4432
18.3537
18.2636
18.1727
18.0811
17.9888
17.8958
17.8021
17.7077
17.6125
17.5166
17.42
17.3226
17.2244
17.1255
17.0258
16.9254
16.8241
16.7221
16.6192
16.5156
16.4111
16.3058
16.1997
16.0928
15.985
15.8764
15.7669
15.6566
15.5454
15.4334
15.3204
15.2067
15.092
14.9764
14.86
14.7427
14.6245
14.5054
14.3854
14.2645
14.1428
14.0203
13.8969
13.7727
13.6477
13.5221
13.3959
13.2691
13.1419
13.0145
12.8871
12.76
12.6333
12.5076
12.3827
12.2585
12.1333
12.0048
11.8649
22.4683
22.4783
22.4947
22.5189
22.5502
22.5885
22.6331
22.6836
22.7392
22.799
22.8623
22.9282
22.9956
23.0638
23.1318
23.1988
23.2641
23.327
23.387
23.4435
23.4961
23.5445
23.5886
23.628
23.6627
23.6927
23.718
23.7387
23.7547
23.7663
23.7736
23.7767
23.7758
23.771
23.7626
23.7508
23.7356
23.7174
23.6962
23.6722
23.6457
23.6167
23.5854
23.5519
23.5164
23.479
23.4399
23.3991
23.3567
23.3128
23.2676
23.2211
23.1734
23.1246
23.0747
23.0238
22.972
22.9192
22.8656
22.8112
22.756
22.7001
22.6435
22.5863
22.5284
22.4699
22.4108
22.3511
22.2908
22.23
22.1687
22.1069
22.0445
21.9816
21.9183
21.8544
21.7901
21.7253
21.66
21.5942
21.5279
21.4612
21.3939
21.3262
21.258
21.1893
21.1202
21.0505
20.9803
20.9097
20.8385
20.7668
20.6947
20.622
20.5487
20.475
20.4007
20.3259
20.2505
20.1746
20.0981
20.021
19.9434
19.8653
19.7865
19.7072
19.6273
19.5468
19.4656
19.3839
19.3016
19.2186
19.1351
19.0508
18.966
18.8805
18.7944
18.7076
18.6201
18.532
18.4431
18.3536
18.2635
18.1726
18.081
17.9887
17.8957
17.802
17.7076
17.6124
17.5166
17.4199
17.3225
17.2244
17.1255
17.0258
16.9253
16.8241
16.722
16.6192
16.5155
16.4111
16.3058
16.1997
16.0927
15.9849
15.8763
15.7668
15.6565
15.5453
15.4333
15.3204
15.2066
15.0919
14.9763
14.8599
14.7425
14.6243
14.5052
14.3852
14.2643
14.1425
14.0199
13.8964
13.7721
13.647
13.5212
13.3947
13.2677
13.1401
13.0122
12.884
12.7559
12.6279
12.5001
12.3725
12.2445
12.1143
11.9795
11.8339
22.189
22.2007
22.2206
22.2502
22.2886
22.3357
22.3907
22.4528
22.521
22.5944
22.6718
22.7521
22.834
22.9165
22.9983
23.0785
23.1563
23.2309
23.3016
23.3679
23.4295
23.4859
23.537
23.5827
23.623
23.6578
23.6873
23.7115
23.7306
23.7449
23.7544
23.7594
23.7602
23.7568
23.7496
23.7388
23.7245
23.707
23.6864
23.663
23.637
23.6084
23.5775
23.5444
23.5092
23.4721
23.4332
23.3927
23.3505
23.3069
23.262
23.2157
23.1682
23.1196
23.0699
23.0191
22.9675
22.9149
22.8615
22.8073
22.7523
22.6965
22.6401
22.583
22.5252
22.4669
22.4079
22.3483
22.2882
22.2276
22.1664
22.1046
22.0424
21.9796
21.9164
21.8526
21.7884
21.7236
21.6584
21.5927
21.5265
21.4598
21.3927
21.325
21.2569
21.1883
21.1192
21.0496
20.9795
20.9088
20.8377
20.7661
20.694
20.6213
20.5481
20.4744
20.4002
20.3254
20.25
20.1741
20.0977
20.0207
19.9431
19.8649
19.7862
19.7069
19.627
19.5465
19.4654
19.3837
19.3014
19.2184
19.1349
19.0507
18.9658
18.8804
18.7942
18.7074
18.62
18.5318
18.443
18.3535
18.2634
18.1725
18.0809
17.9886
17.8957
17.802
17.7075
17.6124
17.5165
17.4198
17.3225
17.2243
17.1254
17.0257
16.9253
16.824
16.722
16.6191
16.5155
16.411
16.3057
16.1996
16.0926
15.9849
15.8762
15.7668
15.6564
15.5452
15.4332
15.3203
15.2065
15.0918
14.9762
14.8597
14.7424
14.6241
14.505
14.3849
14.264
14.1421
14.0194
13.8959
13.7715
13.6462
13.5202
13.3935
13.2661
13.1381
13.0096
12.8807
12.7515
12.6221
12.4924
12.3622
12.2307
12.0961
11.9561
11.8062
21.8522
21.8659
21.8903
21.9266
21.9741
22.0323
22.1003
22.1771
22.2615
22.352
22.4473
22.5457
22.6457
22.7458
22.8447
22.9412
23.0341
23.1226
23.2061
23.284
23.3558
23.4214
23.4806
23.5334
23.5798
23.6199
23.6539
23.6821
23.7045
23.7216
23.7336
23.7407
23.7431
23.7413
23.7353
23.7256
23.7122
23.6955
23.6756
23.6528
23.6273
23.5992
23.5687
23.536
23.5012
23.4644
23.4258
23.3856
23.3437
23.3004
23.2556
23.2096
23.1624
23.114
23.0645
23.014
22.9625
22.9102
22.8569
22.8029
22.7481
22.6925
22.6363
22.5794
22.5218
22.4636
22.4047
22.3453
22.2854
22.2248
22.1638
22.1022
22.04
21.9774
21.9143
21.8506
21.7865
21.7218
21.6567
21.5911
21.525
21.4584
21.3913
21.3238
21.2557
21.1871
21.1181
21.0485
20.9785
20.9079
20.8369
20.7653
20.6932
20.6206
20.5475
20.4738
20.3996
20.3248
20.2495
20.1736
20.0972
20.0202
19.9427
19.8646
19.7858
19.7066
19.6267
19.5462
19.4651
19.3834
19.3011
19.2182
19.1347
19.0505
18.9657
18.8802
18.7941
18.7073
18.6198
18.5317
18.4429
18.3534
18.2632
18.1724
18.0808
17.9886
17.8956
17.8019
17.7075
17.6123
17.5164
17.4198
17.3224
17.2243
17.1253
17.0257
16.9252
16.8239
16.7219
16.6191
16.5154
16.4109
16.3056
16.1995
16.0926
15.9848
15.8762
15.7667
15.6564
15.5452
15.4331
15.3202
15.2064
15.0917
14.9761
14.8596
14.7422
14.6239
14.5047
14.3847
14.2637
14.1418
14.019
13.8953
13.7708
13.6454
13.5192
13.3922
13.2644
13.136
13.0069
12.8772
12.747
12.6162
12.4846
12.3519
12.2172
12.0789
11.9347
11.7812
21.4457
21.4622
21.4921
21.5368
21.5954
21.6675
21.7519
21.8473
21.9521
22.0644
22.1823
22.3037
22.4265
22.5487
22.6688
22.7851
22.8964
23.0016
23.1002
23.1915
23.2752
23.3513
23.4195
23.4802
23.5333
23.5792
23.6182
23.6505
23.6766
23.6966
23.7111
23.7204
23.7247
23.7243
23.7197
23.7111
23.6987
23.6828
23.6637
23.6415
23.6166
23.589
23.559
23.5267
23.4923
23.4559
23.4176
23.3777
23.3362
23.2931
23.2487
23.2029
23.1559
23.1078
23.0586
23.0083
22.9571
22.905
22.852
22.7982
22.7436
22.6882
22.6321
22.5754
22.518
22.46
22.4013
22.3421
22.2823
22.2219
22.161
22.0995
22.0375
21.975
21.912
21.8485
21.7844
21.7199
21.6549
21.5894
21.5234
21.4569
21.3899
21.3224
21.2544
21.1859
21.1169
21.0474
20.9775
20.907
20.836
20.7645
20.6924
20.6198
20.5467
20.4731
20.3989
20.3242
20.2489
20.1731
20.0967
20.0198
19.9422
19.8641
19.7855
19.7062
19.6264
19.5459
19.4648
19.3832
19.3009
19.218
19.1345
19.0503
18.9655
18.88
18.7939
18.7071
18.6197
18.5316
18.4428
18.3533
18.2631
18.1723
18.0807
17.9885
17.8955
17.8018
17.7074
17.6122
17.5163
17.4197
17.3223
17.2242
17.1253
17.0256
16.9251
16.8239
16.7218
16.619
16.5153
16.4109
16.3056
16.1995
16.0925
15.9847
15.8761
15.7666
15.6563
15.5451
15.433
15.3201
15.2063
15.0915
14.9759
14.8594
14.742
14.6237
14.5045
14.3844
14.2633
14.1414
14.0185
13.8947
13.7701
13.6445
13.5181
13.3908
13.2627
13.1338
13.0041
12.8736
12.7423
12.6102
12.4768
12.3418
12.2043
12.0627
11.9151
11.7586
20.9529
20.9729
21.0096
21.0647
21.137
21.2259
21.3302
21.4488
21.5793
21.7195
21.8664
22.0173
22.1693
22.3197
22.4663
22.6072
22.741
22.8664
22.9829
23.09
23.1874
23.2753
23.3538
23.4231
23.4837
23.5359
23.5801
23.6169
23.6467
23.6699
23.687
23.6985
23.7047
23.706
23.7028
23.6953
23.6839
23.6689
23.6506
23.6292
23.6048
23.5778
23.5483
23.5165
23.4825
23.4465
23.4087
23.3691
23.3279
23.2852
23.2411
23.1957
23.149
23.1011
23.0522
23.0022
22.9512
22.8994
22.8466
22.793
22.7386
22.6835
22.6277
22.5711
22.5139
22.4561
22.3976
22.3386
22.2789
22.2187
22.1579
22.0966
22.0348
21.9724
21.9095
21.8461
21.7822
21.7178
21.6529
21.5875
21.5216
21.4552
21.3883
21.3209
21.253
21.1846
21.1157
21.0463
20.9764
20.9059
20.835
20.7635
20.6916
20.619
20.546
20.4724
20.3982
20.3236
20.2483
20.1725
20.0962
20.0193
19.9418
19.8637
19.7851
19.7058
19.626
19.5456
19.4645
19.3829
19.3006
19.2177
19.1342
19.0501
18.9653
18.8798
18.7937
18.707
18.6195
18.5314
18.4426
18.3532
18.263
18.1722
18.0806
17.9884
17.8954
17.8017
17.7073
17.6122
17.5163
17.4196
17.3223
17.2241
17.1252
17.0255
16.9251
16.8238
16.7218
16.6189
16.5153
16.4108
16.3055
16.1994
16.0924
15.9846
15.876
15.7665
15.6562
15.545
15.4329
15.32
15.2061
15.0914
14.9758
14.8593
14.7419
14.6235
14.5043
14.3841
14.263
14.141
14.018
13.8942
13.7693
13.6436
13.517
13.3894
13.2609
13.1315
13.0012
12.87
12.7377
12.6042
12.4691
12.3321
12.192
12.0476
11.8971
11.7382
20.3451
20.3692
20.414
20.4812
20.5696
20.6791
20.808
20.9553
21.1188
21.2954
21.4808
21.671
21.8615
22.0488
22.2297
22.402
22.5638
22.7141
22.8523
22.9781
23.0916
23.1931
23.2831
23.362
23.4307
23.4896
23.5395
23.581
23.6147
23.6413
23.6612
23.675
23.6831
23.6861
23.6843
23.6781
23.6678
23.6538
23.6363
23.6156
23.5919
23.5655
23.5366
23.5053
23.4718
23.4363
23.3989
23.3598
23.319
23.2766
23.2329
23.1878
23.1414
23.0939
23.0453
22.9956
22.9449
22.8933
22.8408
22.7875
22.7334
22.6785
22.6229
22.5666
22.5096
22.4519
22.3937
22.3348
22.2753
22.2153
22.1547
22.0936
22.0319
21.9697
21.9069
21.8437
21.7799
21.7156
21.6508
21.5855
21.5197
21.4534
21.3866
21.3193
21.2515
21.1832
21.1144
21.045
20.9752
20.9048
20.8339
20.7626
20.6906
20.6182
20.5452
20.4716
20.3975
20.3229
20.2477
20.1719
20.0956
20.0188
19.9413
19.8633
19.7846
19.7054
19.6256
19.5452
19.4642
19.3826
19.3004
19.2175
19.134
19.0498
18.9651
18.8796
18.7935
18.7068
18.6194
18.5313
18.4425
18.353
18.2629
18.172
18.0805
17.9883
17.8953
17.8016
17.7072
17.6121
17.5162
17.4196
17.3222
17.2241
17.1251
17.0255
16.925
16.8238
16.7217
16.6189
16.5152
16.4107
16.3054
16.1993
16.0924
15.9846
15.8759
15.7664
15.6561
15.5449
15.4328
15.3199
15.206
15.0913
14.9757
14.8591
14.7417
14.6233
14.504
14.3838
14.2627
14.1406
14.0175
13.8935
13.7686
13.6427
13.5158
13.3879
13.2591
13.1293
12.9983
12.8663
12.733
12.5983
12.4617
12.3227
12.1804
12.0336
11.8807
11.7197
19.5874
19.6157
19.6682
19.7468
19.8507
19.9816
20.1382
20.3207
20.5261
20.7514
20.9897
21.2345
21.4789
21.7174
21.9454
22.1598
22.3585
22.5405
22.7055
22.8539
22.9863
23.1035
23.2065
23.2962
23.3737
23.44
23.496
23.5425
23.5804
23.6104
23.6333
23.6495
23.6598
23.6646
23.6643
23.6594
23.6503
23.6373
23.6207
23.6008
23.5779
23.5522
23.5239
23.4932
23.4603
23.4253
23.3884
23.3497
23.3093
23.2674
23.224
23.1793
23.1333
23.0862
23.0379
22.9885
22.9382
22.8869
22.8347
22.7816
22.7278
22.6731
22.6178
22.5617
22.505
22.4475
22.3895
22.3308
22.2716
22.2117
22.1513
22.0903
22.0288
21.9668
21.9042
21.841
21.7774
21.7133
21.6486
21.5834
21.5177
21.4515
21.3848
21.3176
21.2499
21.1817
21.113
21.0437
20.9739
20.9037
20.8329
20.7615
20.6897
20.6172
20.5443
20.4708
20.3968
20.3222
20.247
20.1713
20.0951
20.0182
19.9408
19.8628
19.7842
19.705
19.6253
19.5449
19.4639
19.3823
19.3001
19.2172
19.1337
19.0496
18.9648
18.8794
18.7933
18.7066
18.6192
18.5311
18.4423
18.3529
18.2628
18.1719
18.0804
17.9882
17.8952
17.8015
17.7071
17.612
17.5161
17.4195
17.3221
17.224
17.1251
17.0254
16.9249
16.8237
16.7216
16.6188
16.5151
16.4107
16.3054
16.1992
16.0923
15.9845
15.8759
15.7664
15.656
15.5448
15.4327
15.3198
15.2059
15.0912
14.9755
14.859
14.7415
14.6231
14.5038
14.3835
14.2623
14.1402
14.017
13.8929
13.7678
13.6418
13.5147
13.3865
13.2573
13.127
12.9955
12.8627
12.7285
12.5926
12.4545
12.3138
12.1696
12.0207
11.8657
11.703
18.6008
18.6321
18.6873
18.7709
18.8836
19.0307
19.2144
19.4384
19.6997
19.9958
20.3154
20.6468
20.9765
21.2944
21.5923
21.8664
22.115
22.3382
22.537
22.7134
22.8686
23.0045
23.1226
23.2246
23.3121
23.3865
23.4491
23.501
23.5434
23.5771
23.6031
23.622
23.6345
23.6411
23.6425
23.6391
23.6312
23.6194
23.6038
23.5848
23.5627
23.5378
23.5102
23.4801
23.4478
23.4134
23.377
23.3388
23.2989
23.2575
23.2146
23.1703
23.1247
23.0779
23.03
22.981
22.931
22.88
22.8281
22.7754
22.7218
22.6675
22.6124
22.5566
22.5001
22.4429
22.3851
22.3266
22.2676
22.2079
22.1477
22.0869
22.0256
21.9637
21.9013
21.8383
21.7748
21.7108
21.6463
21.5812
21.5156
21.4496
21.383
21.3159
21.2483
21.1801
21.1115
21.0423
20.9726
20.9024
20.8317
20.7604
20.6886
20.6163
20.5434
20.4699
20.396
20.3214
20.2463
20.1707
20.0944
20.0176
19.9402
19.8623
19.7837
19.7046
19.6248
19.5445
19.4635
19.382
19.2998
19.2169
19.1335
19.0494
18.9646
18.8792
18.7931
18.7064
18.619
18.5309
18.4422
18.3528
18.2626
18.1718
18.0803
17.9881
17.8951
17.8014
17.707
17.6119
17.516
17.4194
17.322
17.2239
17.125
17.0253
16.9249
16.8236
16.7216
16.6187
16.515
16.4106
16.3053
16.1991
16.0922
15.9844
15.8758
15.7663
15.6559
15.5447
15.4326
15.3196
15.2058
15.091
14.9754
14.8588
14.7413
14.6229
14.5035
14.3832
14.262
14.1397
14.0165
13.8923
13.7671
13.6408
13.5135
13.3851
13.2555
13.1247
12.9927
12.8592
12.7241
12.5871
12.4477
12.3055
12.1595
12.0088
11.852
11.6879
17.2538
17.2787
17.3161
17.3752
17.4611
17.5903
17.7758
18.0371
18.3772
18.7933
19.2634
19.7575
20.2425
20.6965
21.1082
21.4751
21.7989
22.0827
22.3298
22.5445
22.7301
22.8898
23.0267
23.1435
23.2427
23.3265
23.3967
23.4548
23.5022
23.5401
23.5695
23.5913
23.6063
23.6151
23.6183
23.6165
23.61
23.5994
23.585
23.5671
23.546
23.5219
23.4951
23.4657
23.4341
23.4003
23.3646
23.327
23.2877
23.2467
23.2043
23.1605
23.1153
23.069
23.0215
22.9729
22.9232
22.8726
22.8211
22.7687
22.7154
22.6614
22.6066
22.5511
22.4948
22.4379
22.3803
22.3221
22.2633
22.2039
22.1439
22.0833
22.0221
21.9604
21.8981
21.8353
21.772
21.7081
21.6438
21.5788
21.5134
21.4475
21.381
21.314
21.2465
21.1784
21.1099
21.0408
20.9712
20.9011
20.8305
20.7593
20.6875
20.6152
20.5424
20.469
20.3951
20.3206
20.2456
20.17
20.0938
20.017
19.9397
19.8617
19.7832
19.7041
19.6244
19.5441
19.4632
19.3816
19.2994
19.2166
19.1332
19.0491
18.9644
18.879
18.7929
18.7062
18.6188
18.5308
18.442
18.3526
18.2625
18.1717
18.0802
17.9879
17.895
17.8013
17.7069
17.6118
17.5159
17.4193
17.322
17.2238
17.1249
17.0252
16.9248
16.8235
16.7215
16.6186
16.5149
16.4105
16.3052
16.199
16.0921
15.9843
15.8757
15.7662
15.6558
15.5446
15.4325
15.3195
15.2056
15.0909
14.9752
14.8586
14.7411
14.6227
14.5033
14.3829
14.2616
14.1393
14.016
13.8917
13.7663
13.6399
13.5124
13.3837
13.2538
13.1226
12.99
12.8558
12.7199
12.5818
12.4413
12.2977
12.1502
11.9979
11.8396
11.6742
15.3788
15.3644
15.3129
15.2409
15.1653
15.1344
15.2098
15.4729
15.9465
16.6048
17.3797
18.2001
18.9987
19.7315
20.3749
20.9227
21.3812
21.7628
22.0818
22.3494
22.5741
22.7631
22.9222
23.056
23.1684
23.2624
23.3408
23.4055
23.4582
23.5006
23.5337
23.5586
23.5762
23.5873
23.5925
23.5925
23.5876
23.5784
23.5652
23.5484
23.5283
23.5051
23.4792
23.4507
23.4198
23.3867
23.3516
23.3146
23.2759
23.2355
23.1936
23.1503
23.1057
23.0598
23.0127
22.9645
22.9152
22.865
22.8139
22.7618
22.7089
22.6552
22.6007
22.5454
22.4895
22.4328
22.3755
22.3175
22.2589
22.1997
22.1399
22.0795
22.0186
21.9571
21.895
21.8323
21.7692
21.7055
21.6412
21.5765
21.5112
21.4453
21.379
21.3121
21.2447
21.1768
21.1083
21.0393
20.9698
20.8998
20.8292
20.7581
20.6864
20.6142
20.5414
20.4681
20.3943
20.3198
20.2448
20.1693
20.0931
20.0164
19.9391
19.8612
19.7828
19.7037
19.624
19.5437
19.4628
19.3813
19.2991
19.2163
19.1329
19.0489
18.9641
18.8788
18.7927
18.706
18.6187
18.5306
18.4419
18.3525
18.2624
18.1716
18.0801
17.9879
17.8949
17.8013
17.7069
17.6118
17.5159
17.4193
17.3219
17.2238
17.1249
17.0252
16.9247
16.8235
16.7214
16.6186
16.5149
16.4104
16.3051
16.199
16.0921
15.9843
15.8756
15.7661
15.6558
15.5445
15.4324
15.3195
15.2056
15.0908
14.9751
14.8585
14.741
14.6225
14.5031
14.3827
14.2613
14.139
14.0156
13.8912
13.7657
13.6391
13.5113
13.3824
13.2522
13.1206
12.9875
12.8527
12.716
12.5771
12.4354
12.2906
12.1418
11.9881
11.8285
11.662
13.0713
12.952
12.6409
12.1551
11.5567
11.0246
10.7604
10.9561
11.6392
12.7469
14.1416
15.6502
17.1041
18.3855
19.4417
20.2748
20.9187
21.4255
21.8292
22.1551
22.4212
22.6401
22.8212
22.9715
23.0966
23.2006
23.2868
23.3578
23.4157
23.4623
23.4989
23.5269
23.5471
23.5604
23.5676
23.5692
23.5658
23.558
23.546
23.5303
23.5112
23.489
23.4639
23.4362
23.4061
23.3737
23.3392
23.3029
23.2647
23.2249
23.1835
23.1406
23.0964
23.051
23.0043
22.9565
22.9077
22.8578
22.807
22.7552
22.7027
22.6492
22.595
22.5401
22.4844
22.428
22.3709
22.3132
22.2548
22.1958
22.1362
22.076
22.0152
21.9539
21.892
21.8295
21.7665
21.7029
21.6388
21.5742
21.509
21.4433
21.3771
21.3103
21.243
21.1752
21.1068
21.0379
20.9685
20.8985
20.828
20.7569
20.6854
20.6132
20.5405
20.4673
20.3934
20.3191
20.2441
20.1686
20.0925
20.0158
19.9386
19.8607
19.7823
19.7033
19.6236
19.5434
19.4625
19.381
19.2989
19.2161
19.1327