/*--------------------------------*- C++ -*----------------------------------*\
  =========                 |
  \\      /  F ield         | OpenFOAM: The Open Source CFD Toolbox
   \\    /   O peration     | Website:  https://openfoam.org
    \\  /    A nd           | Version:  7
     \\/     M anipulation  |
\*---------------------------------------------------------------------------*/
FoamFile
{
    version     2.0;
    format      ascii;
    class       volSymmTensorField;
    location    "0.004";
    object      UPrime2Mean;
}
// * * * * * * * * * * * * * * * * * * * * * * * * * * * * * * * * * * * * * //

dimensions      [0 2 -2 0 0 0 0];

internalField   nonuniform List<symmTensor> 
12225
(
(0.0188078 -0.00368849 0 0.00169195 0 0)
(0.425806 -0.0184652 0 0.00176176 0 0)
(0.585568 -0.0231672 0 0.00194017 0 0)
(0.708809 -0.0229652 0 0.00162845 0 0)
(0.88949 -0.0204321 0 0.00108077 0 0)
(1.07407 -0.0161374 0 0.000581821 0 0)
(1.20943 -0.00937733 0 0.000230076 0 0)
(1.28191 -0.00498929 0 5.1741e-05 0 0)
(1.31116 -0.00133898 0 2.73019e-05 0 0)
(1.33211 -0.000306933 0 5.34352e-05 0 0)
(1.34308 -0.00389865 0 8.69319e-05 0 0)
(1.42014 -0.00030435 0 0.000338062 0 0)
(1.43987 -0.015856 0 0.000928276 0 0)
(1.65314 0.00955377 0 0.0026614 0 0)
(1.70856 -0.0698 0 0.0104775 0 0)
(2.37312 0.0848013 0 0.0243175 0 0)
(2.85409 -0.476234 0 0.164758 0 0)
(6.30948 0.415765 0 0.121457 0 0)
(0.0197566 -0.00219176 0 0.000796934 0 0)
(0.289694 -0.00910952 0 0.000664006 0 0)
(0.309277 -0.0123282 0 0.00138333 0 0)
(0.304036 -0.0114838 0 0.0016697 0 0)
(0.335878 -0.0108057 0 0.00167047 0 0)
(0.376547 -0.00961485 0 0.00128969 0 0)
(0.416441 -0.00754102 0 0.000683516 0 0)
(0.450599 -0.00444581 0 0.000271933 0 0)
(0.480195 -0.00337434 0 9.39995e-05 0 0)
(0.512452 -0.00297444 0 6.10368e-05 0 0)
(0.541987 -0.00563214 0 0.000223791 0 0)
(0.596936 -0.00955182 0 0.000444841 0 0)
(0.634492 -0.0148616 0 0.00138612 0 0)
(0.76949 -0.0321939 0 0.00379625 0 0)
(0.818991 -0.0391671 0 0.00760918 0 0)
(1.28996 -0.150697 0 0.0333347 0 0)
(1.32868 -0.18516 0 0.0350278 0 0)
(2.8771 -1.10058 0 0.464955 0 0)
(0.0142325 -0.00269406 0 0.00163837 0 0)
(0.284492 -0.015844 0 0.00204687 0 0)
(0.295963 -0.0184622 0 0.00351729 0 0)
(0.280667 -0.0156026 0 0.00404973 0 0)
(0.296952 -0.012989 0 0.00372761 0 0)
(0.319078 -0.0114265 0 0.00294238 0 0)
(0.341378 -0.00937871 0 0.00189887 0 0)
(0.366186 -0.00834727 0 0.000906753 0 0)
(0.39455 -0.00805348 0 0.000612479 0 0)
(0.427325 -0.00907147 0 0.00040133 0 0)
(0.467881 -0.0132707 0 0.000567501 0 0)
(0.51394 -0.0168032 0 0.000962876 0 0)
(0.577188 -0.0301034 0 0.00237717 0 0)
(0.655263 -0.0370273 0 0.00322261 0 0)
(0.791059 -0.0931135 0 0.0164746 0 0)
(0.969961 -0.117935 0 0.0170031 0 0)
(1.27673 -0.39772 0 0.145282 0 0)
(1.58891 -0.717906 0 0.354253 0 0)
(0.0144092 -0.00415627 0 0.00231945 0 0)
(0.280727 -0.016637 0 0.00235922 0 0)
(0.290832 -0.0179352 0 0.0034103 0 0)
(0.276232 -0.0153078 0 0.00393118 0 0)
(0.291257 -0.0129786 0 0.00369622 0 0)
(0.310217 -0.0113046 0 0.0029132 0 0)
(0.329516 -0.0103953 0 0.0020286 0 0)
(0.351745 -0.0101278 0 0.0014931 0 0)
(0.37811 -0.0113983 0 0.00115594 0 0)
(0.410217 -0.0139904 0 0.00111821 0 0)
(0.448109 -0.0187756 0 0.00134562 0 0)
(0.494686 -0.0265519 0 0.00197843 0 0)
(0.549947 -0.0379517 0 0.00321969 0 0)
(0.627131 -0.0611985 0 0.00690165 0 0)
(0.727666 -0.0993942 0 0.0146686 0 0)
(0.87265 -0.18759 0 0.0456832 0 0)
(1.043 -0.357348 0 0.129674 0 0)
(1.11875 -0.622241 0 0.360753 0 0)
(0.0149296 -0.00508444 0 0.0032118 0 0)
(0.273962 -0.0214684 0 0.00374142 0 0)
(0.280656 -0.0215018 0 0.00500983 0 0)
(0.267059 -0.0180839 0 0.00586116 0 0)
(0.28368 -0.0156395 0 0.00560184 0 0)
(0.30446 -0.0148484 0 0.00476416 0 0)
(0.325429 -0.0148399 0 0.00389666 0 0)
(0.348659 -0.0158608 0 0.00310227 0 0)
(0.375038 -0.0180113 0 0.00289402 0 0)
(0.405321 -0.0213416 0 0.00274941 0 0)
(0.440589 -0.027493 0 0.00306123 0 0)
(0.481599 -0.0358832 0 0.0037503 0 0)
(0.530744 -0.0515086 0 0.00597463 0 0)
(0.592403 -0.0748305 0 0.0100904 0 0)
(0.671427 -0.123405 0 0.0249975 0 0)
(0.763794 -0.20197 0 0.0573004 0 0)
(0.846644 -0.3442 0 0.14778 0 0)
(0.82482 -0.540239 0 0.390281 0 0)
(0.0148976 -0.00544575 0 0.0033852 0 0)
(0.271965 -0.0235088 0 0.00481388 0 0)
(0.276174 -0.0230527 0 0.00635236 0 0)
(0.262434 -0.0194369 0 0.00750994 0 0)
(0.27833 -0.0171013 0 0.00743214 0 0)
(0.297536 -0.0162988 0 0.00647543 0 0)
(0.316708 -0.0167801 0 0.00545399 0 0)
(0.338047 -0.0183749 0 0.00479684 0 0)
(0.362167 -0.0212775 0 0.00451468 0 0)
(0.389643 -0.0256056 0 0.00446756 0 0)
(0.421126 -0.0322967 0 0.00471721 0 0)
(0.457014 -0.0425947 0 0.00570499 0 0)
(0.498718 -0.0590279 0 0.00833578 0 0)
(0.547293 -0.0859951 0 0.0147862 0 0)
(0.604271 -0.132197 0 0.0311142 0 0)
(0.656075 -0.204564 0 0.068723 0 0)
(0.68617 -0.315407 0 0.157382 0 0)
(0.627264 -0.433282 0 0.326382 0 0)
(0.0150442 -0.00559516 0 0.00399385 0 0)
(0.266694 -0.026891 0 0.00599299 0 0)
(0.268888 -0.0259226 0 0.00755927 0 0)
(0.254805 -0.0217002 0 0.00879258 0 0)
(0.269783 -0.0194626 0 0.0089729 0 0)
(0.287263 -0.0192898 0 0.00841982 0 0)
(0.30426 -0.0205016 0 0.00786822 0 0)
(0.322967 -0.022791 0 0.00749756 0 0)
(0.343976 -0.0261988 0 0.00737117 0 0)
(0.367727 -0.0309164 0 0.00735261 0 0)
(0.394977 -0.0381056 0 0.007579 0 0)
(0.426084 -0.0491161 0 0.00866679 0 0)
(0.461201 -0.0665022 0 0.0118787 0 0)
(0.498843 -0.0937116 0 0.0196575 0 0)
(0.536858 -0.136242 0 0.0375664 0 0)
(0.561261 -0.197681 0 0.0762496 0 0)
(0.559267 -0.276511 0 0.14941 0 0)
(0.489111 -0.348252 0 0.278473 0 0)
(0.0110389 -0.00556228 0 0.00469423 0 0)
(0.260371 -0.0299673 0 0.00740224 0 0)
(0.26224 -0.0280855 0 0.00950256 0 0)
(0.249466 -0.0230004 0 0.0108447 0 0)
(0.264987 -0.0208908 0 0.0110828 0 0)
(0.281547 -0.0209898 0 0.0104496 0 0)
(0.296526 -0.0222753 0 0.00967161 0 0)
(0.312665 -0.0245705 0 0.00912928 0 0)
(0.330949 -0.0281842 0 0.00897259 0 0)
(0.351939 -0.0335593 0 0.00913714 0 0)
(0.376048 -0.0416823 0 0.00970377 0 0)
(0.402733 -0.0537209 0 0.0112642 0 0)
(0.430724 -0.07155 0 0.0151043 0 0)
(0.456926 -0.0974347 0 0.0236812 0 0)
(0.477903 -0.1345 0 0.0416954 0 0)
(0.481967 -0.182686 0 0.0766128 0 0)
(0.461555 -0.237303 0 0.136652 0 0)
(0.393184 -0.278438 0 0.229756 0 0)
(0.0144505 -0.00580408 0 0.00438781 0 0)
(0.256965 -0.0317829 0 0.00802392 0 0)
(0.252754 -0.0289234 0 0.0104 0 0)
(0.238918 -0.0227248 0 0.0119798 0 0)
(0.254557 -0.0206721 0 0.012696 0 0)
(0.271024 -0.0215802 0 0.0125852 0 0)
(0.285682 -0.0238968 0 0.0122916 0 0)
(0.3013 -0.0272868 0 0.0122763 0 0)
(0.318695 -0.0319854 0 0.012605 0 0)
(0.337928 -0.0383094 0 0.0131195 0 0)
(0.358656 -0.0469864 0 0.0138346 0 0)
(0.379679 -0.0588621 0 0.0153392 0 0)
(0.399221 -0.0753008 0 0.0189667 0 0)
(0.414147 -0.0978075 0 0.027142 0 0)
(0.421414 -0.127834 0 0.0435327 0 0)
(0.412538 -0.163648 0 0.0732413 0 0)
(0.384473 -0.199973 0 0.11971 0 0)
(0.323743 -0.222057 0 0.184495 0 0)
(0.0115975 -0.00701462 0 0.00753084 0 0)
(0.260625 -0.0371501 0 0.0119989 0 0)
(0.257245 -0.0342071 0 0.0148885 0 0)
(0.242092 -0.0274353 0 0.0167068 0 0)
(0.256386 -0.0254112 0 0.0174044 0 0)
(0.271421 -0.026552 0 0.0170259 0 0)
(0.284047 -0.028888 0 0.0164225 0 0)
(0.29677 -0.0320656 0 0.0162005 0 0)
(0.310358 -0.0363539 0 0.0163715 0 0)
(0.324736 -0.0420489 0 0.0167278 0 0)
(0.339488 -0.0497419 0 0.0171454 0 0)
(0.353545 -0.0601952 0 0.0181804 0 0)
(0.365212 -0.074483 0 0.0212134 0 0)
(0.371641 -0.0933401 0 0.0284361 0 0)
(0.370235 -0.117013 0 0.0425175 0 0)
(0.355056 -0.142915 0 0.066415 0 0)
(0.325873 -0.166551 0 0.100988 0 0)
(0.274462 -0.177539 0 0.145528 0 0)
(0.0213622 -0.00808308 0 0.00615562 0 0)
(0.264077 -0.0394352 0 0.0110939 0 0)
(0.252404 -0.0364552 0 0.0144382 0 0)
(0.232781 -0.0286087 0 0.0166833 0 0)
(0.244295 -0.025595 0 0.0179454 0 0)
(0.256898 -0.0262284 0 0.01827 0 0)
(0.267435 -0.0285282 0 0.0182423 0 0)
(0.278311 -0.0318862 0 0.018431 0 0)
(0.289899 -0.0363618 0 0.0189644 0 0)
(0.301857 -0.0421407 0 0.0195817 0 0)
(0.313591 -0.0497011 0 0.020137 0 0)
(0.323915 -0.0594887 0 0.0210685 0 0)
(0.331104 -0.0720978 0 0.0235932 0 0)
(0.33267 -0.0876145 0 0.0295323 0 0)
(0.326628 -0.105665 0 0.0407447 0 0)
(0.309154 -0.123664 0 0.0588154 0 0)
(0.281818 -0.138446 0 0.0834003 0 0)
(0.239165 -0.142998 0 0.11315 0 0)
(0.013936 -0.00853984 0 0.00839594 0 0)
(0.25993 -0.0413159 0 0.0139252 0 0)
(0.251142 -0.03852 0 0.0175345 0 0)
(0.232396 -0.0304557 0 0.0199298 0 0)
(0.243387 -0.0274836 0 0.0212313 0 0)
(0.254534 -0.0281832 0 0.0216838 0 0)
(0.263102 -0.0304135 0 0.021895 0 0)
(0.271841 -0.0335961 0 0.0222876 0 0)
(0.281266 -0.0378276 0 0.0228305 0 0)
(0.290855 -0.043276 0 0.0232195 0 0)
(0.2997 -0.0502516 0 0.023271 0 0)
(0.306495 -0.0589665 0 0.0234195 0 0)
(0.309529 -0.0696337 0 0.0248287 0 0)
(0.306754 -0.0819503 0 0.0290372 0 0)
(0.296968 -0.0953441 0 0.0373368 0 0)
(0.278018 -0.107633 0 0.0504966 0 0)
(0.252466 -0.116778 0 0.0677237 0 0)
(0.216145 -0.117963 0 0.087747 0 0)
(0.0147014 -0.00853859 0 0.00792971 0 0)
(0.256867 -0.0424294 0 0.014319 0 0)
(0.246598 -0.0393107 0 0.0184357 0 0)
(0.227951 -0.0308606 0 0.021058 0 0)
(0.238762 -0.028003 0 0.022511 0 0)
(0.249397 -0.0291715 0 0.0233499 0 0)
(0.25701 -0.0318889 0 0.0241254 0 0)
(0.264159 -0.0352987 0 0.025077 0 0)
(0.271295 -0.0393621 0 0.0260632 0 0)
(0.278046 -0.044289 0 0.0267307 0 0)
(0.283677 -0.0503914 0 0.0267159 0 0)
(0.28692 -0.0576649 0 0.0262774 0 0)
(0.286249 -0.066038 0 0.0264259 0 0)
(0.28024 -0.0750925 0 0.02857 0 0)
(0.268438 -0.0844116 0 0.0338207 0 0)
(0.249882 -0.0923849 0 0.0426475 0 0)
(0.227351 -0.0978498 0 0.0542271 0 0)
(0.197268 -0.0974187 0 0.0675049 0 0)
(0.0153546 -0.00866054 0 0.00906964 0 0)
(0.259324 -0.0451516 0 0.0179713 0 0)
(0.24998 -0.0428565 0 0.0232438 0 0)
(0.230242 -0.0342381 0 0.0263865 0 0)
(0.239839 -0.0315655 0 0.0276743 0 0)
(0.249404 -0.0331387 0 0.0279484 0 0)
(0.255539 -0.0360395 0 0.0283051 0 0)
(0.260326 -0.0391648 0 0.0290451 0 0)
(0.26421 -0.0424354 0 0.0298406 0 0)
(0.266945 -0.0459256 0 0.0299949 0 0)
(0.268019 -0.0498831 0 0.0290411 0 0)
(0.266672 -0.0544436 0 0.0272202 0 0)
(0.262006 -0.0597342 0 0.0256104 0 0)
(0.253352 -0.0655114 0 0.0256095 0 0)
(0.240758 -0.0714876 0 0.028158 0 0)
(0.223883 -0.0764111 0 0.033423 0 0)
(0.205158 -0.0796313 0 0.040599 0 0)
(0.181203 -0.0787331 0 0.0487905 0 0)
(0.0170402 -0.00874193 0 0.00967992 0 0)
(0.255149 -0.0484043 0 0.0179397 0 0)
(0.240747 -0.0455265 0 0.0241305 0 0)
(0.218341 -0.0351505 0 0.0280493 0 0)
(0.225717 -0.0307721 0 0.0300604 0 0)
(0.232728 -0.0311973 0 0.0309728 0 0)
(0.236437 -0.0333401 0 0.0315301 0 0)
(0.239014 -0.0356594 0 0.0320196 0 0)
(0.240648 -0.0378095 0 0.0322489 0 0)
(0.241115 -0.0399897 0 0.0317459 0 0)
(0.240201 -0.0426172 0 0.0300612 0 0)
(0.23748 -0.0458749 0 0.0273459 0 0)
(0.232299 -0.04977 0 0.0245409 0 0)
(0.224302 -0.0539221 0 0.0228619 0 0)
(0.213587 -0.0580399 0 0.0231091 0 0)
(0.200112 -0.0612247 0 0.0253824 0 0)
(0.185832 -0.0632689 0 0.0290737 0 0)
(0.167683 -0.0625324 0 0.0335178 0 0)
(0.0150307 -0.00928729 0 0.00869575 0 0)
(0.253629 -0.0502569 0 0.0182421 0 0)
(0.237624 -0.0475326 0 0.0256025 0 0)
(0.213795 -0.0366359 0 0.0298893 0 0)
(0.219082 -0.0316427 0 0.031893 0 0)
(0.223375 -0.0311922 0 0.032569 0 0)
(0.224278 -0.0321283 0 0.0327075 0 0)
(0.224329 -0.0331578 0 0.0327125 0 0)
(0.223874 -0.0341524 0 0.032483 0 0)
(0.222602 -0.0353225 0 0.0315248 0 0)
(0.220176 -0.0369632 0 0.0293997 0 0)
(0.216245 -0.0390833 0 0.0261341 0 0)
(0.210389 -0.0415534 0 0.0224498 0 0)
(0.202599 -0.0440606 0 0.0194246 0 0)
(0.193123 -0.046505 0 0.0178797 0 0)
(0.182159 -0.0483752 0 0.0180003 0 0)
(0.171177 -0.0496828 0 0.0193696 0 0)
(0.157472 -0.0492982 0 0.0214512 0 0)
(0.018082 -0.00781295 0 0.00877032 0 0)
(0.252792 -0.0492077 0 0.0184959 0 0)
(0.23234 -0.0462936 0 0.0261028 0 0)
(0.205149 -0.0342769 0 0.0303934 0 0)
(0.207297 -0.0277144 0 0.0322996 0 0)
(0.208822 -0.0260029 0 0.0329114 0 0)
(0.207763 -0.026239 0 0.0331891 0 0)
(0.20652 -0.0267927 0 0.0333792 0 0)
(0.205064 -0.0271999 0 0.0330983 0 0)
(0.202875 -0.0276121 0 0.0316742 0 0)
(0.199669 -0.028379 0 0.0286249 0 0)
(0.195352 -0.0296174 0 0.0241393 0 0)
(0.189777 -0.0312735 0 0.0192103 0 0)
(0.183132 -0.0331124 0 0.0150625 0 0)
(0.175604 -0.0350385 0 0.0124749 0 0)
(0.167384 -0.0366667 0 0.011503 0 0)
(0.159419 -0.0380046 0 0.0117235 0 0)
(0.14948 -0.0382659 0 0.0125966 0 0)
(0.0126532 -0.00725463 0 0.00989638 0 0)
(0.234198 -0.0475697 0 0.0191453 0 0)
(0.21464 -0.0435259 0 0.0245193 0 0)
(0.19021 -0.0305603 0 0.0277514 0 0)
(0.192904 -0.0236456 0 0.0296344 0 0)
(0.193221 -0.0215412 0 0.0308562 0 0)
(0.190572 -0.0209212 0 0.0317816 0 0)
(0.188151 -0.0202427 0 0.032297 0 0)
(0.186109 -0.019314 0 0.0320061 0 0)
(0.183855 -0.0185682 0 0.0304312 0 0)
(0.181032 -0.0185707 0 0.0273003 0 0)
(0.177505 -0.0195215 0 0.0228188 0 0)
(0.173129 -0.0212258 0 0.0177848 0 0)
(0.168107 -0.0232405 0 0.0132261 0 0)
(0.162535 -0.0253042 0 0.00990245 0 0)
(0.15659 -0.0270817 0 0.00802136 0 0)
(0.150864 -0.0285939 0 0.00732219 0 0)
(0.143744 -0.0293439 0 0.00736467 0 0)
(0.0144478 -0.00687545 0 0.00894107 0 0)
(0.245492 -0.048177 0 0.0148039 0 0)
(0.222775 -0.0433472 0 0.0195008 0 0)
(0.19407 -0.0307893 0 0.0225998 0 0)
(0.193951 -0.0239716 0 0.0234252 0 0)
(0.192136 -0.0214675 0 0.022889 0 0)
(0.187659 -0.0204635 0 0.0222233 0 0)
(0.183456 -0.0197271 0 0.0219113 0 0)
(0.17958 -0.0189197 0 0.0217125 0 0)
(0.175543 -0.0181122 0 0.0210892 0 0)
(0.171235 -0.017551 0 0.0194974 0 0)
(0.166736 -0.0173905 0 0.0166712 0 0)
(0.162048 -0.0176549 0 0.0129721 0 0)
(0.157344 -0.018274 0 0.00926871 0 0)
(0.152662 -0.0192368 0 0.00640108 0 0)
(0.148057 -0.020365 0 0.004722 0 0)
(0.14381 -0.0215661 0 0.00406253 0 0)
(0.138781 -0.0224263 0 0.00402185 0 0)
(0.014555 -0.00837482 0 0.0094237 0 0)
(0.240034 -0.0462879 0 0.0164033 0 0)
(0.21287 -0.0397957 0 0.0215307 0 0)
(0.183351 -0.0261619 0 0.0240937 0 0)
(0.18212 -0.0183364 0 0.0246722 0 0)
(0.179251 -0.0153306 0 0.024765 0 0)
(0.174308 -0.0140475 0 0.0249204 0 0)
(0.170265 -0.0128464 0 0.0248847 0 0)
(0.167002 -0.0113836 0 0.0241442 0 0)
(0.163863 -0.0100222 0 0.0221943 0 0)
(0.160655 -0.00930168 0 0.0188548 0 0)
(0.15742 -0.00947824 0 0.0145125 0 0)
(0.154148 -0.0104576 0 0.0100595 0 0)
(0.150924 -0.0119576 0 0.00642193 0 0)
(0.147678 -0.0137199 0 0.0040914 0 0)
(0.144366 -0.0154408 0 0.00299883 0 0)
(0.141163 -0.0169665 0 0.00273006 0 0)
(0.137378 -0.0180236 0 0.00282497 0 0)
(0.0180863 -0.00807348 0 0.00781815 0 0)
(0.246952 -0.0411289 0 0.012001 0 0)
(0.216552 -0.0350704 0 0.0148779 0 0)
(0.183799 -0.0232908 0 0.0164317 0 0)
(0.18013 -0.0162677 0 0.0166777 0 0)
(0.175439 -0.0130273 0 0.0160785 0 0)
(0.169305 -0.0112915 0 0.0152584 0 0)
(0.164609 -0.00992767 0 0.0146072 0 0)
(0.161127 -0.00860832 0 0.0140647 0 0)
(0.158132 -0.00741651 0 0.0132568 0 0)
(0.155401 -0.00668569 0 0.0118151 0 0)
(0.152894 -0.00671818 0 0.00963321 0 0)
(0.150476 -0.00756085 0 0.00705872 0 0)
(0.148084 -0.00900048 0 0.00471985 0 0)
(0.145584 -0.0107457 0 0.00310707 0 0)
(0.142893 -0.012458 0 0.00232034 0 0)
(0.140169 -0.0139498 0 0.00212865 0 0)
(0.13699 -0.0149886 0 0.00220533 0 0)
(0.0148029 -0.00562305 0 0.00590015 0 0)
(0.239869 -0.0350261 0 0.00934717 0 0)
(0.208841 -0.0291882 0 0.0118932 0 0)
(0.176984 -0.0181127 0 0.0131095 0 0)
(0.173877 -0.0114916 0 0.0133066 0 0)
(0.169647 -0.00856929 0 0.013053 0 0)
(0.164092 -0.00720717 0 0.0127031 0 0)
(0.160015 -0.00619169 0 0.0122886 0 0)
(0.157141 -0.00521424 0 0.0116427 0 0)
(0.154681 -0.00448374 0 0.0105664 0 0)
(0.152337 -0.00431621 0 0.00894634 0 0)
(0.150102 -0.00486476 0 0.00691422 0 0)
(0.147956 -0.00603798 0 0.00487118 0 0)
(0.145889 -0.00759289 0 0.00325964 0 0)
(0.143793 -0.00927949 0 0.00230497 0 0)
(0.141552 -0.0108441 0 0.00195062 0 0)
(0.139283 -0.0121563 0 0.00195801 0 0)
(0.136664 -0.0130464 0 0.00206825 0 0)
(0.0140903 -0.00502012 0 0.00686645 0 0)
(0.233694 -0.0292329 0 0.00961246 0 0)
(0.203403 -0.0227087 0 0.0106854 0 0)
(0.173346 -0.0123798 0 0.0108581 0 0)
(0.170648 -0.00643704 0 0.0103826 0 0)
(0.165754 -0.00387255 0 0.00969498 0 0)
(0.159653 -0.00272806 0 0.00912377 0 0)
(0.155906 -0.00199152 0 0.00869496 0 0)
(0.154158 -0.00138054 0 0.00826555 0 0)
(0.153047 -0.00106173 0 0.00763725 0 0)
(0.151757 -0.00137255 0 0.00666411 0 0)
(0.150085 -0.00245448 0 0.00536744 0 0)
(0.14814 -0.00412796 0 0.00398344 0 0)
(0.146131 -0.00605857 0 0.00284124 0 0)
(0.144105 -0.00795743 0 0.00216073 0 0)
(0.141972 -0.0095967 0 0.00194189 0 0)
(0.139841 -0.0108792 0 0.00199397 0 0)
(0.137448 -0.0116795 0 0.00208354 0 0)
(0.0137351 -0.00686546 0 0.00658793 0 0)
(0.239269 -0.0301978 0 0.0094159 0 0)
(0.204333 -0.0217309 0 0.00991724 0 0)
(0.170897 -0.0111833 0 0.0100206 0 0)
(0.167122 -0.00517767 0 0.00953894 0 0)
(0.162165 -0.00259576 0 0.00851656 0 0)
(0.15645 -0.00172533 0 0.00762813 0 0)
(0.153169 -0.00140202 0 0.00718575 0 0)
(0.151817 -0.00107134 0 0.00698809 0 0)
(0.151108 -0.000778444 0 0.0067525 0 0)
(0.150403 -0.000877576 0 0.0062277 0 0)
(0.149607 -0.00165985 0 0.00526555 0 0)
(0.148753 -0.00312659 0 0.00400895 0 0)
(0.147821 -0.00503387 0 0.00285325 0 0)
(0.146638 -0.00704325 0 0.0021379 0 0)
(0.144978 -0.0088066 0 0.00191092 0 0)
(0.142955 -0.0101129 0 0.001957 0 0)
(0.14044 -0.0108111 0 0.00201543 0 0)
(0.0159319 -0.007083 0 0.00528312 0 0)
(0.228552 -0.0240232 0 0.00682238 0 0)
(0.188759 -0.0149755 0 0.00685289 0 0)
(0.157969 -0.00555421 0 0.00651864 0 0)
(0.158049 -0.000764177 0 0.00581677 0 0)
(0.156021 0.000617936 0 0.00513654 0 0)
(0.15277 0.000474776 0 0.00473434 0 0)
(0.15175 1.06602e-05 0 0.00456815 0 0)
(0.152351 -0.00033076 0 0.00444411 0 0)
(0.153346 -0.000657934 0 0.00421205 0 0)
(0.154337 -0.00126385 0 0.00378359 0 0)
(0.155288 -0.00237134 0 0.00316947 0 0)
(0.155974 -0.00399718 0 0.00251749 0 0)
(0.155992 -0.00592399 0 0.00203176 0 0)
(0.154934 -0.00778291 0 0.00181566 0 0)
(0.152636 -0.00921498 0 0.00181022 0 0)
(0.149486 -0.0100512 0 0.00185469 0 0)
(0.145744 -0.0102605 0 0.00181478 0 0)
(0.0200336 -0.00638627 0 0.00317868 0 0)
(0.234039 -0.0196668 0 0.00387964 0 0)
(0.187444 -0.013414 0 0.0045297 0 0)
(0.154449 -0.00543992 0 0.00489048 0 0)
(0.154443 -0.000886058 0 0.00449435 0 0)
(0.152723 0.00064567 0 0.00382595 0 0)
(0.150474 0.000863648 0 0.00330958 0 0)
(0.151188 0.00073953 0 0.00299157 0 0)
(0.153894 0.000558272 0 0.0027552 0 0)
(0.156959 0.000247375 0 0.00248828 0 0)
(0.159713 -0.000374435 0 0.00215051 0 0)
(0.161897 -0.00142757 0 0.00176659 0 0)
(0.163101 -0.002873 0 0.00140523 0 0)
(0.162907 -0.00451152 0 0.00114304 0 0)
(0.1611 -0.00605263 0 0.00101791 0 0)
(0.157816 -0.00722706 0 0.00100616 0 0)
(0.153684 -0.00790971 0 0.0010313 0 0)
(0.149126 -0.00807941 0 0.00101929 0 0)
(0.0124222 -0.00363202 0 0.00266488 0 0)
(0.22048 -0.00855489 0 0.00161426 0 0)
(0.176954 -0.00429201 0 0.00165519 0 0)
(0.149945 -0.000278801 0 0.00178337 0 0)
(0.152795 0.00162424 0 0.00162597 0 0)
(0.152022 0.00169836 0 0.0014494 0 0)
(0.150773 0.000961029 0 0.00135444 0 0)
(0.152984 2.49506e-05 0 0.00129463 0 0)
(0.157418 -0.000923697 0 0.00123751 0 0)
(0.162173 -0.00189239 0 0.00117279 0 0)
(0.166396 -0.00292346 0 0.00110294 0 0)
(0.169642 -0.00402341 0 0.00103745 0 0)
(0.17132 -0.00512896 0 0.000986577 0 0)
(0.17093 -0.0061335 0 0.000957256 0 0)
(0.168342 -0.00690137 0 0.000943621 0 0)
(0.163925 -0.0073247 0 0.000930608 0 0)
(0.158554 -0.00736447 0 0.000889024 0 0)
(0.152872 -0.00705959 0 0.000802663 0 0)
(0.0190753 -0.00384902 0 0.00179975 0 0)
(0.217832 -0.00973492 0 0.00124098 0 0)
(0.168193 -0.00599449 0 0.00163523 0 0)
(0.143477 -0.00102529 0 0.0014839 0 0)
(0.149 0.00109136 0 0.00105905 0 0)
(0.151019 0.00129463 0 0.00075418 0 0)
(0.153301 0.000847569 0 0.00058249 0 0)
(0.159304 0.000165976 0 0.000461623 0 0)
(0.167205 -0.000690791 0 0.000370773 0 0)
(0.174897 -0.00163569 0 0.000317732 0 0)
(0.18149 -0.0025009 0 0.000295151 0 0)
(0.186394 -0.00313291 0 0.000281748 0 0)
(0.188746 -0.00349996 0 0.000266223 0 0)
(0.187832 -0.00373182 0 0.000251463 0 0)
(0.183503 -0.00395388 0 0.000239158 0 0)
(0.176504 -0.00416548 0 0.000230503 0 0)
(0.16814 -0.00426776 0 0.000222102 0 0)
(0.159656 -0.0041889 0 0.000209167 0 0)
(0.0138728 -0.000751026 0 0.000622355 0 0)
(0.206421 0.00253638 0 0.000128742 0 0)
(0.159736 0.00148386 0 0.000202368 0 0)
(0.139838 0.00154227 0 0.000296404 0 0)
(0.147945 0.00061266 0 0.000483738 0 0)
(0.151299 -0.000661527 0 0.000667647 0 0)
(0.15363 -0.00185685 0 0.000801568 0 0)
(0.158223 -0.00302506 0 0.000921809 0 0)
(0.163257 -0.00420455 0 0.00104988 0 0)
(0.166607 -0.00522634 0 0.00116917 0 0)
(0.167508 -0.00579862 0 0.0012111 0 0)
(0.166089 -0.00571315 0 0.00109489 0 0)
(0.162756 -0.00501989 0 0.000827409 0 0)
(0.158087 -0.00401949 0 0.000519518 0 0)
(0.152557 -0.00304049 0 0.000277493 0 0)
(0.14678 -0.00228697 0 0.000133121 0 0)
(0.14122 -0.00179111 0 6.14773e-05 0 0)
(0.136281 -0.00151379 0 3.17146e-05 0 0)
(0.0174503 -0.00208308 0 0.000685919 0 0)
(0.220909 -0.00147427 0 0.000205766 0 0)
(0.196025 -0.000152685 0 0.000180848 0 0)
(0.193255 0.00101546 0 0.000106593 0 0)
(0.215723 0.00130848 0 9.94507e-05 0 0)
(0.23365 0.00141256 0 0.000114467 0 0)
(0.249342 0.00161584 0 0.000134762 0 0)
(0.267722 0.00193603 0 0.000159497 0 0)
(0.290231 0.00222877 0 0.000189942 0 0)
(0.316265 0.00235013 0 0.000213055 0 0)
(0.343987 0.00212256 0 0.000186324 0 0)
(0.37008 0.00137123 0 0.000108834 0 0)
(0.390725 0.000214757 0 3.71292e-05 0 0)
(0.403763 -0.000893841 0 9.22561e-06 0 0)
(0.410131 -0.00156646 0 1.08883e-05 0 0)
(0.411637 -0.00176008 0 1.51663e-05 0 0)
(0.410685 -0.00166823 0 1.34993e-05 0 0)
(0.40786 -0.00148515 0 9.47478e-06 0 0)
(9.74946e-05 -0.000186652 1.24839e-21 0.000357649 -2.56384e-21 2.32784e-36)
(0.000638816 -0.000394861 -3.46854e-21 0.000244562 2.31569e-21 2.29528e-36)
(0.00148739 -0.000579163 0 0.000225679 0 0)
(0.00274552 -0.000778577 0 0.000220867 0 0)
(0.00436736 -0.000964471 0 0.00021305 0 0)
(0.00633095 -0.00113253 1.17484e-20 0.000202668 -2.18113e-21 2.16199e-36)
(0.00860573 -0.00128053 0 0.000190644 0 0)
(0.0111551 -0.0014062 0 0.000177417 0 0)
(0.013937 -0.00150769 0 0.000163327 0 0)
(0.0169054 -0.00158382 0 0.000148718 0 0)
(0.0200115 -0.00163421 -2.12104e-20 0.000133933 1.92066e-21 2.0026e-36)
(0.0232054 -0.00165925 0 0.000119301 0 0)
(0.0264375 -0.00166 0 0.000105118 0 0)
(0.0296601 -0.00163818 0 9.16405e-05 0 0)
(0.0328285 -0.00159601 0 7.90743e-05 0 0)
(0.0359021 -0.00153613 -2.92279e-20 6.7574e-05 1.6054e-21 1.85103e-36)
(0.0388457 -0.00146146 0 5.72401e-05 0 0)
(0.0416294 -0.00137505 0 4.81212e-05 0 0)
(0.0442296 -0.00127996 0 4.0219e-05 0 0)
(0.0466287 -0.00117916 0 3.34947e-05 0 0)
(0.048815 -0.00107541 0 2.78772e-05 0 0)
(0.0507826 -0.000971232 0 2.32712e-05 0 0)
(0.0525307 -0.000868791 0 1.95655e-05 0 0)
(0.0540629 -0.000769916 -3.85903e-20 1.6641e-05 1.10957e-21 1.62451e-36)
(0.0553869 -0.00067607 3.94672e-20 1.4377e-05 -1.0542e-21 1.59757e-36)
(0.0565133 -0.000588358 -4.02834e-20 1.26569e-05 1.0008e-21 1.57094e-36)
(0.0574552 -0.000507551 -4.10407e-20 1.13723e-05 9.4943e-22 1.54462e-36)
(0.0582273 -0.000434111 0 1.04258e-05 0 0)
(0.0588455 -0.000368235 0 9.73234e-06 0 0)
(0.0593263 -0.00030989 4.29788e-20 9.22044e-06 -8.07755e-22 1.46747e-36)
(0.0596859 -0.000258865 4.35202e-20 8.83153e-06 -7.64659e-22 1.44237e-36)
(0.0599404 -0.000214798 0 8.51931e-06 0 0)
(0.0601052 -0.000177231 0 8.24867e-06 0 0)
(0.0601946 -0.000145628 4.48597e-20 7.99407e-06 -6.47276e-22 1.36889e-36)
(0.060222 -0.000119421 0 7.73812e-06 0 0)
(0.0601994 -9.80193e-05 0 7.47003e-06 0 0)
(0.0601377 -8.08452e-05 -4.58135e-20 7.18419e-06 5.46522e-22 1.29813e-36)
(0.0600465 -6.73313e-05 0 6.87883e-06 0 0)
(0.0599341 -5.6953e-05 -4.62603e-20 6.55502e-06 4.8768e-22 1.25247e-36)
(0.0598077 -4.92144e-05 -9.28647e-20 6.21563e-06 9.21085e-22 4.92037e-36)
(0.0596734 -4.36742e-05 0 5.86466e-06 0 0)
(0.0595362 -3.99275e-05 0 5.50662e-06 0 0)
(0.0594002 -3.76253e-05 0 5.14614e-06 0 0)
(0.0592688 -3.64559e-05 0 4.78757e-06 0 0)
(0.0591446 -3.61575e-05 0 4.43492e-06 0 0)
(0.0590294 -3.6502e-05 -9.36878e-20 4.09162e-06 6.50613e-22 4.4081e-36)
(0.0589247 -3.73048e-05 -9.36447e-20 3.7605e-06 6.13547e-22 4.32682e-36)
(0.0588315 -3.84054e-05 -9.3557e-20 3.44382e-06 5.78467e-22 4.24669e-36)
(0.0587503 -3.96813e-05 0 3.14326e-06 0 0)
(0.0586813 -4.10279e-05 9.32568e-20 2.85996e-06 -5.13846e-22 4.08986e-36)
(0.0586245 -4.237e-05 0 2.59457e-06 0 0)
(0.0585798 -4.36398e-05 -9.28048e-20 2.34739e-06 4.55991e-22 3.93755e-36)
(0.0585465 -4.48012e-05 -9.25269e-20 2.11835e-06 4.29381e-22 3.86307e-36)
(0.0585244 -4.58151e-05 0 1.90711e-06 0 0)
(0.0585127 -4.66669e-05 0 1.71309e-06 0 0)
(0.0585108 -4.73367e-05 0 1.53561e-06 0 0)
(0.0585179 -4.78295e-05 -9.11116e-20 1.37381e-06 3.3664e-22 3.57613e-36)
(0.0585334 -4.81359e-05 0 1.2268e-06 0 0)
(0.0585565 -4.82702e-05 0 1.09359e-06 0 0)
(0.0585865 -4.82302e-05 0 9.73244e-07 0 0)
(0.0586227 -4.80366e-05 0 8.6477e-07 0 0)
(0.0586644 -4.76916e-05 0 7.67238e-07 0 0)
(0.0587109 -4.72173e-05 0 6.7971e-07 0 0)
(0.0587617 -4.66177e-05 0 6.01334e-07 0 0)
(0.0588161 -4.59152e-05 0 5.31267e-07 0 0)
(0.0588737 -4.51146e-05 8.65698e-20 4.68747e-07 -1.91145e-22 2.99208e-36)
(0.0589339 -4.42361e-05 0 4.13041e-07 0 0)
(0.0589962 -4.32854e-05 0 3.63493e-07 0 0)
(0.0590603 -4.22801e-05 -8.47601e-20 3.19475e-07 1.57303e-22 2.81536e-36)
(0.0591257 -4.12259e-05 -8.4133e-20 2.80434e-07 1.47306e-22 2.75836e-36)
(0.0591921 -4.01375e-05 0 2.45844e-07 0 0)
(0.0592592 -3.90211e-05 8.28484e-20 2.1525e-07 -1.29036e-22 2.64715e-36)
(0.0593267 -3.78884e-05 -8.21924e-20 1.88205e-07 1.20703e-22 2.59291e-36)
(0.0593944 -3.67409e-05 0 1.64351e-07 0 0)
(0.0594619 -3.55961e-05 8.08568e-20 1.43321e-07 -1.05503e-22 2.48713e-36)
(0.0595292 -3.44484e-05 0 1.24811e-07 0 0)
(0.059596 -3.33121e-05 0 1.08537e-07 0 0)
(0.0596622 -3.21873e-05 -7.88046e-20 9.42535e-08 8.59867e-23 2.33503e-36)
(0.0597277 -3.10834e-05 0 8.17218e-08 0 0)
(0.0597924 -2.9997e-05 7.74111e-20 7.07562e-08 -7.48958e-23 2.23786e-36)
(0.0598561 -2.89403e-05 0 6.11647e-08 0 0)
(0.0599188 -2.7908e-05 -7.60025e-20 5.27948e-08 6.51523e-23 2.14399e-36)
(0.0599805 -2.69111e-05 -7.52938e-20 4.54959e-08 6.07372e-23 2.09826e-36)
(0.060041 -2.59409e-05 -7.45827e-20 3.91501e-08 5.66101e-23 2.05333e-36)
(0.0601003 -2.50102e-05 -1.47739e-19 3.36397e-08 1.05493e-22 8.03667e-36)
(0.0601585 -2.41138e-05 1.4631e-19 2.88656e-08 -9.82725e-23 7.86311e-36)
(0.0602155 -2.32554e-05 0 2.47363e-08 0 0)
(0.0602713 -2.2428e-05 0 2.11816e-08 0 0)
(0.0603256 -2.16542e-05 0 1.81253e-08 0 0)
(0.0603786 -2.09124e-05 1.40579e-19 1.55269e-08 -7.38756e-23 7.19876e-36)
(0.0604304 -2.02337e-05 1.39145e-19 1.32957e-08 -6.879e-23 7.03994e-36)
(0.0604808 -1.9583e-05 -1.37713e-19 1.14694e-08 6.40696e-23 6.88394e-36)
(0.0605294 -1.89653e-05 0 1.0001e-08 0 0)
(0.0605764 -1.84965e-05 1.34853e-19 8.86773e-09 -5.58335e-23 6.58024e-36)
(0.0606226 -1.81451e-05 1.33428e-19 8.13777e-09 -5.22996e-23 6.43246e-36)
(0.0606687 -1.80529e-05 1.32005e-19 7.69453e-09 -4.91314e-23 6.28734e-36)
(0.0607154 -1.87188e-05 0 7.22908e-09 0 0)
(0.0607643 -1.98375e-05 0 6.94814e-09 0 0)
(0.0608152 -2.06074e-05 0 7.22355e-09 0 0)
(0.0608677 -2.07617e-05 1.26353e-19 7.68507e-09 -3.86987e-23 5.73268e-36)
(0.0609207 -2.04327e-05 0 7.9376e-09 0 0)
(0.0609734 -1.97727e-05 0 7.84936e-09 0 0)
(0.0610252 -1.89471e-05 -1.22164e-19 7.50688e-09 3.1011e-23 5.34273e-36)
(0.061076 -1.80716e-05 0 7.05151e-09 0 0)
(0.0611258 -1.72147e-05 0 6.58502e-09 0 0)
(0.0611744 -1.64089e-05 -1.18023e-19 6.1559e-09 2.45194e-23 4.97398e-36)
(0.0612221 -1.5655e-05 0 5.77255e-09 0 0)
(0.0612687 -1.4965e-05 0 5.44204e-09 0 0)
(0.0613143 -1.43228e-05 1.13936e-19 5.15231e-09 -1.94122e-23 4.62547e-36)
(0.0613591 -1.37383e-05 1.12586e-19 4.90504e-09 -1.79638e-23 4.51364e-36)
(0.0614031 -1.3193e-05 0 4.6877e-09 0 0)
(0.0614463 -1.26977e-05 -1.09906e-19 4.50236e-09 1.54315e-23 4.29627e-36)
(0.0614888 -1.22343e-05 0 4.33825e-09 0 0)
(0.0615307 -1.18149e-05 1.07254e-19 4.1986e-09 -1.33031e-23 4.08708e-36)
(0.061572 -1.14211e-05 0 4.07425e-09 0 0)
(0.0616128 -1.10641e-05 1.04629e-19 3.96699e-09 -1.15186e-23 3.88582e-36)
(0.0616531 -1.073e-05 1.03328e-19 3.87263e-09 -1.07463e-23 3.78808e-36)
(0.061693 -1.04276e-05 0 3.79055e-09 0 0)
(0.0617325 -1.01538e-05 0 3.72438e-09 0 0)
(0.0617716 -9.90477e-06 0 3.6659e-09 0 0)
(0.0618104 -9.67988e-06 0 3.61785e-09 0 0)
(0.061849 -9.46831e-06 0 3.572e-09 0 0)
(0.0618875 -9.27122e-06 0 3.52974e-09 0 0)
(0.061926 -9.0899e-06 0 3.49166e-09 0 0)
(0.0619643 -8.92093e-06 9.31785e-20 3.45735e-09 -6.39256e-24 3.07169e-36)
(0.0620025 -8.77299e-06 -9.19432e-20 3.42951e-09 6.00993e-24 2.9899e-36)
(0.0620407 -8.63471e-06 0 3.40495e-09 0 0)
(0.0620789 -8.51694e-06 0 3.38675e-09 0 0)
(0.062117 -8.40746e-06 0 3.3718e-09 0 0)
(0.0621551 -8.31548e-06 0 3.36199e-09 0 0)
(0.0621933 -8.2301e-06 -1.71755e-19 3.35457e-09 9.13764e-24 1.04196e-35)
(0.0622315 -8.15957e-06 0 3.35116e-09 0 0)
(0.0622699 -8.09397e-06 1.67004e-19 3.34933e-09 -8.31893e-24 9.84645e-36)
(0.0623084 -8.04177e-06 -1.64651e-19 3.35123e-09 7.9597e-24 9.56865e-36)
(0.062347 -7.9927e-06 0 3.35406e-09 0 0)
(0.0623858 -7.95518e-06 0 3.36025e-09 0 0)
(0.0624248 -7.91922e-06 0 3.36664e-09 0 0)
(0.062464 -7.89582e-06 1.55378e-19 3.37757e-09 -6.91351e-24 8.51384e-36)
(0.0625034 -7.87823e-06 1.53095e-19 3.39282e-09 -6.73611e-24 8.26377e-36)
(0.062543 -7.87171e-06 0 3.41143e-09 0 0)
(0.0625829 -7.87264e-06 1.48571e-19 3.43488e-09 -6.44221e-24 7.7794e-36)
(0.0626231 -7.87587e-06 1.46329e-19 3.45682e-09 -6.32321e-24 7.54492e-36)
(0.0626636 -7.88423e-06 -1.44101e-19 3.48054e-09 6.20885e-24 7.31547e-36)
(0.0627046 -7.89242e-06 0 3.50278e-09 0 0)
(0.0627459 -7.90386e-06 0 3.52626e-09 0 0)
(0.0627877 -7.91426e-06 -1.37499e-19 3.54815e-09 5.88646e-24 6.65646e-36)
(0.06283 -7.92739e-06 0 3.57179e-09 0 0)
(0.0628727 -7.93966e-06 0 3.59516e-09 0 0)
(0.0629158 -7.95384e-06 0 3.62068e-09 0 0)
(0.0629594 -7.9671e-06 0 3.64676e-09 0 0)
(0.0630035 -7.98134e-06 1.26758e-19 3.67534e-09 -5.32377e-24 5.65128e-36)
(0.0630479 -7.99377e-06 1.24648e-19 3.70523e-09 -5.20376e-24 5.46355e-36)
(0.0630928 -8.00466e-06 0 3.73763e-09 0 0)