# vtk DataFile Version 2.0
sampleSurface
ASCII
DATASET POLYDATA
POINTS 502 double
-0.0206 0 -0.0005
-0.0190172 0 -0.0005
-0.0190172 0 0.0005
-0.0206 0 0.0005
-0.0174976 0 -0.0005
-0.0174976 0 0.0005
-0.0160387 0 -0.0005
-0.0160387 0 0.0005
-0.0146381 0 -0.0005
-0.0146381 0 0.0005
-0.0132934 0 -0.0005
-0.0132934 0 0.0005
-0.0120025 0 -0.0005
-0.0120025 0 0.0005
-0.0107632 0 -0.0005
-0.0107632 0 0.0005
-0.00957337 0 -0.0005
-0.00957337 0 0.0005
-0.00843108 0 -0.0005
-0.00843108 0 0.0005
-0.00733443 0 -0.0005
-0.00733443 0 0.0005
-0.0062816 0 -0.0005
-0.0062816 0 0.0005
-0.00527083 0 -0.0005
-0.00527083 0 0.0005
-0.00430044 0 -0.0005
-0.00430044 0 0.0005
-0.00336883 0 -0.0005
-0.00336883 0 0.0005
-0.00247443 0 -0.0005
-0.00247443 0 0.0005
-0.00161577 0 -0.0005
-0.00161577 0 0.0005
-0.000791418 0 -0.0005
-0.000791418 0 0.0005
0 0 -0.0005
0 0 0.0005
0 -0.0254 -0.0005
0 -0.0254 0.0005
0 -0.0242711 0.0005
0 -0.0242711 -0.0005
0 -0.0231422 0.0005
0 -0.0231422 -0.0005
0 -0.0220133 0.0005
0 -0.0220133 -0.0005
0 -0.0208844 0.0005
0 -0.0208844 -0.0005
0 -0.0197556 0.0005
0 -0.0197556 -0.0005
0 -0.0186267 0.0005
0 -0.0186267 -0.0005
0 -0.0174978 0.0005
0 -0.0174978 -0.0005
0 -0.0163689 0.0005
0 -0.0163689 -0.0005
0 -0.01524 0.0005
0 -0.01524 -0.0005
0 -0.0141111 0.0005
0 -0.0141111 -0.0005
0 -0.0129822 0.0005
0 -0.0129822 -0.0005
0 -0.0118533 0.0005
0 -0.0118533 -0.0005
0 -0.0107244 0.0005
0 -0.0107244 -0.0005
0 -0.00959556 0.0005
0 -0.00959556 -0.0005
0 -0.00846667 0.0005
0 -0.00846667 -0.0005
0 -0.00726604 0.0005
0 -0.00726604 -0.0005
0 -0.00618989 0.0005
0 -0.00618989 -0.0005
0 -0.00522531 0.0005
0 -0.00522531 -0.0005
0 -0.00436073 0.0005
0 -0.00436073 -0.0005
0 -0.00358579 0.0005
0 -0.00358579 -0.0005
0 -0.00289118 0.0005
0 -0.00289118 -0.0005
0 -0.0022686 0.0005
0 -0.0022686 -0.0005
0 -0.00171055 0.0005
0 -0.00171055 -0.0005
0 -0.00121037 0.0005
0 -0.00121037 -0.0005
0 -0.000762037 0.0005
0 -0.000762037 -0.0005
0 -0.000360188 0.0005
0 -0.000360188 -0.0005
0.000528387 -0.0254 -0.0005
0.000528387 -0.0254 0.0005
0.00106088 -0.0254 -0.0005
0.00106088 -0.0254 0.0005
0.00159752 -0.0254 -0.0005
0.00159752 -0.0254 0.0005
0.00213833 -0.0254 -0.0005
0.00213833 -0.0254 0.0005
0.00268334 -0.0254 -0.0005
0.00268334 -0.0254 0.0005
0.00323259 -0.0254 -0.0005
0.00323259 -0.0254 0.0005
0.00378611 -0.0254 -0.0005
0.00378611 -0.0254 0.0005
0.00434393 -0.0254 -0.0005
0.00434393 -0.0254 0.0005
0.00490609 -0.0254 -0.0005
0.00490609 -0.0254 0.0005
0.00547262 -0.0254 -0.0005
0.00547262 -0.0254 0.0005
0.00604356 -0.0254 -0.0005
0.00604356 -0.0254 0.0005
0.00661893 -0.0254 -0.0005
0.00661893 -0.0254 0.0005
0.00719878 -0.0254 -0.0005
0.00719878 -0.0254 0.0005
0.00778313 -0.0254 -0.0005
0.00778313 -0.0254 0.0005
0.00837203 -0.0254 -0.0005
0.00837203 -0.0254 0.0005
0.00896551 -0.0254 -0.0005
0.00896551 -0.0254 0.0005
0.0095636 -0.0254 -0.0005
0.0095636 -0.0254 0.0005
0.0101663 -0.0254 -0.0005
0.0101663 -0.0254 0.0005
0.0107738 -0.0254 -0.0005
0.0107738 -0.0254 0.0005
0.0113859 -0.0254 -0.0005
0.0113859 -0.0254 0.0005
0.0120028 -0.0254 -0.0005
0.0120028 -0.0254 0.0005
0.0126245 -0.0254 -0.0005
0.0126245 -0.0254 0.0005
0.0132511 -0.0254 -0.0005
0.0132511 -0.0254 0.0005
0.0138825 -0.0254 -0.0005
0.0138825 -0.0254 0.0005
0.0145188 -0.0254 -0.0005
0.0145188 -0.0254 0.0005
0.0151601 -0.0254 -0.0005
0.0151601 -0.0254 0.0005
0.0158063 -0.0254 -0.0005
0.0158063 -0.0254 0.0005
0.0164576 -0.0254 -0.0005
0.0164576 -0.0254 0.0005
0.0171139 -0.0254 -0.0005
0.0171139 -0.0254 0.0005
0.0177754 -0.0254 -0.0005
0.0177754 -0.0254 0.0005
0.018442 -0.0254 -0.0005
0.018442 -0.0254 0.0005
0.0191137 -0.0254 -0.0005
0.0191137 -0.0254 0.0005
0.0197907 -0.0254 -0.0005
0.0197907 -0.0254 0.0005
0.020473 -0.0254 -0.0005
0.020473 -0.0254 0.0005
0.0211606 -0.0254 -0.0005
0.0211606 -0.0254 0.0005
0.0218535 -0.0254 -0.0005
0.0218535 -0.0254 0.0005
0.0225517 -0.0254 -0.0005
0.0225517 -0.0254 0.0005
0.0232555 -0.0254 -0.0005
0.0232555 -0.0254 0.0005
0.0239647 -0.0254 -0.0005
0.0239647 -0.0254 0.0005
0.0246794 -0.0254 -0.0005
0.0246794 -0.0254 0.0005
0.0253996 -0.0254 -0.0005
0.0253996 -0.0254 0.0005
0.0261255 -0.0254 -0.0005
0.0261255 -0.0254 0.0005
0.026857 -0.0254 -0.0005
0.026857 -0.0254 0.0005
0.0275942 -0.0254 -0.0005
0.0275942 -0.0254 0.0005
0.0283371 -0.0254 -0.0005
0.0283371 -0.0254 0.0005
0.0290858 -0.0254 -0.0005
0.0290858 -0.0254 0.0005
0.0298403 -0.0254 -0.0005
0.0298403 -0.0254 0.0005
0.0306007 -0.0254 -0.0005
0.0306007 -0.0254 0.0005
0.031367 -0.0254 -0.0005
0.031367 -0.0254 0.0005
0.0321393 -0.0254 -0.0005
0.0321393 -0.0254 0.0005
0.0329175 -0.0254 -0.0005
0.0329175 -0.0254 0.0005
0.0337019 -0.0254 -0.0005
0.0337019 -0.0254 0.0005
0.0344923 -0.0254 -0.0005
0.0344923 -0.0254 0.0005
0.0352888 -0.0254 -0.0005
0.0352888 -0.0254 0.0005
0.0360916 -0.0254 -0.0005
0.0360916 -0.0254 0.0005
0.0369006 -0.0254 -0.0005
0.0369006 -0.0254 0.0005
0.0377158 -0.0254 -0.0005
0.0377158 -0.0254 0.0005
0.0385375 -0.0254 -0.0005
0.0385375 -0.0254 0.0005
0.0393655 -0.0254 -0.0005
0.0393655 -0.0254 0.0005
0.0401999 -0.0254 -0.0005
0.0401999 -0.0254 0.0005
0.0410408 -0.0254 -0.0005
0.0410408 -0.0254 0.0005
0.0418883 -0.0254 -0.0005
0.0418883 -0.0254 0.0005
0.0427424 -0.0254 -0.0005
0.0427424 -0.0254 0.0005
0.0436031 -0.0254 -0.0005
0.0436031 -0.0254 0.0005
0.0444704 -0.0254 -0.0005
0.0444704 -0.0254 0.0005
0.0453446 -0.0254 -0.0005
0.0453446 -0.0254 0.0005
0.0462255 -0.0254 -0.0005
0.0462255 -0.0254 0.0005
0.0471133 -0.0254 -0.0005
0.0471133 -0.0254 0.0005
0.048008 -0.0254 -0.0005
0.048008 -0.0254 0.0005
0.0489096 -0.0254 -0.0005
0.0489096 -0.0254 0.0005
0.0498183 -0.0254 -0.0005
0.0498183 -0.0254 0.0005
0.050734 -0.0254 -0.0005
0.050734 -0.0254 0.0005
0.0516568 -0.0254 -0.0005
0.0516568 -0.0254 0.0005
0.0525868 -0.0254 -0.0005
0.0525868 -0.0254 0.0005
0.053524 -0.0254 -0.0005
0.053524 -0.0254 0.0005
0.0544686 -0.0254 -0.0005
0.0544686 -0.0254 0.0005
0.0554204 -0.0254 -0.0005
0.0554204 -0.0254 0.0005
0.0563797 -0.0254 -0.0005
0.0563797 -0.0254 0.0005
0.0573464 -0.0254 -0.0005
0.0573464 -0.0254 0.0005
0.0583206 -0.0254 -0.0005
0.0583206 -0.0254 0.0005
0.0593025 -0.0254 -0.0005
0.0593025 -0.0254 0.0005
0.0602919 -0.0254 -0.0005
0.0602919 -0.0254 0.0005
0.0612891 -0.0254 -0.0005
0.0612891 -0.0254 0.0005
0.0622939 -0.0254 -0.0005
0.0622939 -0.0254 0.0005
0.0633067 -0.0254 -0.0005
0.0633067 -0.0254 0.0005
0.0643272 -0.0254 -0.0005
0.0643272 -0.0254 0.0005
0.0653557 -0.0254 -0.0005
0.0653557 -0.0254 0.0005
0.0663923 -0.0254 -0.0005
0.0663923 -0.0254 0.0005
0.0674368 -0.0254 -0.0005
0.0674368 -0.0254 0.0005
0.0684895 -0.0254 -0.0005
0.0684895 -0.0254 0.0005
0.0695504 -0.0254 -0.0005
0.0695504 -0.0254 0.0005
0.0706195 -0.0254 -0.0005
0.0706195 -0.0254 0.0005
0.0716969 -0.0254 -0.0005
0.0716969 -0.0254 0.0005
0.0727828 -0.0254 -0.0005
0.0727828 -0.0254 0.0005
0.073877 -0.0254 -0.0005
0.073877 -0.0254 0.0005
0.0749798 -0.0254 -0.0005
0.0749798 -0.0254 0.0005
0.0760911 -0.0254 -0.0005
0.0760911 -0.0254 0.0005
0.0772111 -0.0254 -0.0005
0.0772111 -0.0254 0.0005
0.0783398 -0.0254 -0.0005
0.0783398 -0.0254 0.0005
0.0794772 -0.0254 -0.0005
0.0794772 -0.0254 0.0005
0.0806235 -0.0254 -0.0005
0.0806235 -0.0254 0.0005
0.0817787 -0.0254 -0.0005
0.0817787 -0.0254 0.0005
0.0829429 -0.0254 -0.0005
0.0829429 -0.0254 0.0005
0.0841162 -0.0254 -0.0005
0.0841162 -0.0254 0.0005
0.0852985 -0.0254 -0.0005
0.0852985 -0.0254 0.0005
0.0864901 -0.0254 -0.0005
0.0864901 -0.0254 0.0005
0.0876909 -0.0254 -0.0005
0.0876909 -0.0254 0.0005
0.0889011 -0.0254 -0.0005
0.0889011 -0.0254 0.0005
0.0901207 -0.0254 -0.0005
0.0901207 -0.0254 0.0005
0.0913497 -0.0254 -0.0005
0.0913497 -0.0254 0.0005
0.0925883 -0.0254 -0.0005
0.0925883 -0.0254 0.0005
0.0938366 -0.0254 -0.0005
0.0938366 -0.0254 0.0005
0.0950945 -0.0254 -0.0005
0.0950945 -0.0254 0.0005
0.0963622 -0.0254 -0.0005
0.0963622 -0.0254 0.0005
0.0976398 -0.0254 -0.0005
0.0976398 -0.0254 0.0005
0.0989273 -0.0254 -0.0005
0.0989273 -0.0254 0.0005
0.100225 -0.0254 -0.0005
0.100225 -0.0254 0.0005
0.101532 -0.0254 -0.0005
0.101532 -0.0254 0.0005
0.10285 -0.0254 -0.0005
0.10285 -0.0254 0.0005
0.104178 -0.0254 -0.0005
0.104178 -0.0254 0.0005
0.105517 -0.0254 -0.0005
0.105517 -0.0254 0.0005
0.106865 -0.0254 -0.0005
0.106865 -0.0254 0.0005
0.108225 -0.0254 -0.0005
0.108225 -0.0254 0.0005
0.109594 -0.0254 -0.0005
0.109594 -0.0254 0.0005
0.110975 -0.0254 -0.0005
0.110975 -0.0254 0.0005
0.112366 -0.0254 -0.0005
0.112366 -0.0254 0.0005
0.113768 -0.0254 -0.0005
0.113768 -0.0254 0.0005
0.115181 -0.0254 -0.0005
0.115181 -0.0254 0.0005
0.116605 -0.0254 -0.0005
0.116605 -0.0254 0.0005
0.11804 -0.0254 -0.0005
0.11804 -0.0254 0.0005
0.119486 -0.0254 -0.0005
0.119486 -0.0254 0.0005
0.120943 -0.0254 -0.0005
0.120943 -0.0254 0.0005
0.122412 -0.0254 -0.0005
0.122412 -0.0254 0.0005
0.123892 -0.0254 -0.0005
0.123892 -0.0254 0.0005
0.125384 -0.0254 -0.0005
0.125384 -0.0254 0.0005
0.126887 -0.0254 -0.0005
0.126887 -0.0254 0.0005
0.128402 -0.0254 -0.0005
0.128402 -0.0254 0.0005
0.129928 -0.0254 -0.0005
0.129928 -0.0254 0.0005
0.131467 -0.0254 -0.0005
0.131467 -0.0254 0.0005
0.133017 -0.0254 -0.0005
0.133017 -0.0254 0.0005
0.13458 -0.0254 -0.0005
0.13458 -0.0254 0.0005
0.136155 -0.0254 -0.0005
0.136155 -0.0254 0.0005
0.137742 -0.0254 -0.0005
0.137742 -0.0254 0.0005
0.139341 -0.0254 -0.0005
0.139341 -0.0254 0.0005
0.140953 -0.0254 -0.0005
0.140953 -0.0254 0.0005
0.142577 -0.0254 -0.0005
0.142577 -0.0254 0.0005
0.144214 -0.0254 -0.0005
0.144214 -0.0254 0.0005
0.145863 -0.0254 -0.0005
0.145863 -0.0254 0.0005
0.147526 -0.0254 -0.0005
0.147526 -0.0254 0.0005
0.149201 -0.0254 -0.0005
0.149201 -0.0254 0.0005
0.15089 -0.0254 -0.0005
0.15089 -0.0254 0.0005
0.152591 -0.0254 -0.0005
0.152591 -0.0254 0.0005
0.154306 -0.0254 -0.0005
0.154306 -0.0254 0.0005
0.156034 -0.0254 -0.0005
0.156034 -0.0254 0.0005
0.157775 -0.0254 -0.0005
0.157775 -0.0254 0.0005
0.159531 -0.0254 -0.0005
0.159531 -0.0254 0.0005
0.161299 -0.0254 -0.0005
0.161299 -0.0254 0.0005
0.163082 -0.0254 -0.0005
0.163082 -0.0254 0.0005
0.164878 -0.0254 -0.0005
0.164878 -0.0254 0.0005
0.166688 -0.0254 -0.0005
0.166688 -0.0254 0.0005
0.168513 -0.0254 -0.0005
0.168513 -0.0254 0.0005
0.170351 -0.0254 -0.0005
0.170351 -0.0254 0.0005
0.172204 -0.0254 -0.0005
0.172204 -0.0254 0.0005
0.174071 -0.0254 -0.0005
0.174071 -0.0254 0.0005
0.175953 -0.0254 -0.0005
0.175953 -0.0254 0.0005
0.177849 -0.0254 -0.0005
0.177849 -0.0254 0.0005
0.17976 -0.0254 -0.0005
0.17976 -0.0254 0.0005
0.181686 -0.0254 -0.0005
0.181686 -0.0254 0.0005
0.183627 -0.0254 -0.0005
0.183627 -0.0254 0.0005
0.185583 -0.0254 -0.0005
0.185583 -0.0254 0.0005
0.187555 -0.0254 -0.0005
0.187555 -0.0254 0.0005
0.189541 -0.0254 -0.0005
0.189541 -0.0254 0.0005
0.191543 -0.0254 -0.0005
0.191543 -0.0254 0.0005
0.193561 -0.0254 -0.0005
0.193561 -0.0254 0.0005
0.195594 -0.0254 -0.0005
0.195594 -0.0254 0.0005
0.197643 -0.0254 -0.0005
0.197643 -0.0254 0.0005
0.199708 -0.0254 -0.0005
0.199708 -0.0254 0.0005
0.201789 -0.0254 -0.0005
0.201789 -0.0254 0.0005
0.203886 -0.0254 -0.0005
0.203886 -0.0254 0.0005
0.206 -0.0254 -0.0005
0.206 -0.0254 0.0005
0.208047 -0.0251856 -0.0005
0.208047 -0.0251856 0.0005
0.210173 -0.0249628 -0.0005
0.210173 -0.0249628 0.0005
0.212382 -0.0247314 -0.0005
0.212382 -0.0247314 0.0005
0.214677 -0.024491 -0.0005
0.214677 -0.024491 0.0005
0.217061 -0.0242412 -0.0005
0.217061 -0.0242412 0.0005
0.219538 -0.0239817 -0.0005
0.219538 -0.0239817 0.0005
0.222112 -0.0237121 -0.0005
0.222112 -0.0237121 0.0005
0.224785 -0.023432 -0.0005
0.224785 -0.023432 0.0005
0.227563 -0.023141 -0.0005
0.227563 -0.023141 0.0005
0.230449 -0.0228387 -0.0005
0.230449 -0.0228387 0.0005
0.233447 -0.0225246 -0.0005
0.233447 -0.0225246 0.0005
0.236562 -0.0221983 -0.0005
0.236562 -0.0221983 0.0005
0.239797 -0.0218593 -0.0005
0.239797 -0.0218593 0.0005
0.243159 -0.0215071 -0.0005
0.243159 -0.0215071 0.0005
0.246652 -0.0211412 -0.0005
0.246652 -0.0211412 0.0005
0.250281 -0.0207611 -0.0005
0.250281 -0.0207611 0.0005
0.254051 -0.0203661 -0.0005
0.254051 -0.0203661 0.0005
0.257967 -0.0199558 -0.0005
0.257967 -0.0199558 0.0005
0.262036 -0.0195295 -0.0005
0.262036 -0.0195295 0.0005
0.266264 -0.0190867 -0.0005
0.266264 -0.0190867 0.0005
0.270655 -0.0186266 -0.0005
0.270655 -0.0186266 0.0005
0.275218 -0.0181486 -0.0005
0.275218 -0.0181486 0.0005
0.279959 -0.017652 -0.0005
0.279959 -0.017652 0.0005
0.284883 -0.017136 -0.0005
0.284883 -0.017136 0.0005
0.29 -0.0166 -0.0005
0.29 -0.0166 0.0005

POLYGONS 250 1250
4 0 1 2 3
4 1 4 5 2
4 4 6 7 5
4 6 8 9 7
4 8 10 11 9
4 10 12 13 11
4 12 14 15 13
4 14 16 17 15
4 16 18 19 17
4 18 20 21 19
4 20 22 23 21
4 22 24 25 23
4 24 26 27 25
4 26 28 29 27
4 28 30 31 29
4 30 32 33 31
4 32 34 35 33
4 34 36 37 35
4 38 39 40 41
4 41 40 42 43
4 43 42 44 45
4 45 44 46 47
4 47 46 48 49
4 49 48 50 51
4 51 50 52 53
4 53 52 54 55
4 55 54 56 57
4 57 56 58 59
4 59 58 60 61
4 61 60 62 63
4 63 62 64 65
4 65 64 66 67
4 67 66 68 69
4 69 68 70 71
4 71 70 72 73
4 73 72 74 75
4 75 74 76 77
4 77 76 78 79
4 79 78 80 81
4 81 80 82 83
4 83 82 84 85
4 85 84 86 87
4 87 86 88 89
4 89 88 90 91
4 91 90 37 36
4 38 92 93 39
4 92 94 95 93
4 94 96 97 95
4 96 98 99 97
4 98 100 101 99
4 100 102 103 101
4 102 104 105 103
4 104 106 107 105
4 106 108 109 107
4 108 110 111 109
4 110 112 113 111
4 112 114 115 113
4 114 116 117 115
4 116 118 119 117
4 118 120 121 119
4 120 122 123 121
4 122 124 125 123
4 124 126 127 125
4 126 128 129 127
4 128 130 131 129
4 130 132 133 131
4 132 134 135 133
4 134 136 137 135
4 136 138 139 137
4 138 140 141 139
4 140 142 143 141
4 142 144 145 143
4 144 146 147 145
4 146 148 149 147
4 148 150 151 149
4 150 152 153 151
4 152 154 155 153
4 154 156 157 155
4 156 158 159 157
4 158 160 161 159
4 160 162 163 161
4 162 164 165 163
4 164 166 167 165
4 166 168 169 167
4 168 170 171 169
4 170 172 173 171
4 172 174 175 173
4 174 176 177 175
4 176 178 179 177
4 178 180 181 179
4 180 182 183 181
4 182 184 185 183
4 184 186 187 185
4 186 188 189 187
4 188 190 191 189
4 190 192 193 191
4 192 194 195 193
4 194 196 197 195
4 196 198 199 197
4 198 200 201 199
4 200 202 203 201
4 202 204 205 203
4 204 206 207 205
4 206 208 209 207
4 208 210 211 209
4 210 212 213 211
4 212 214 215 213
4 214 216 217 215
4 216 218 219 217
4 218 220 221 219
4 220 222 223 221
4 222 224 225 223
4 224 226 227 225
4 226 228 229 227
4 228 230 231 229
4 230 232 233 231
4 232 234 235 233
4 234 236 237 235
4 236 238 239 237
4 238 240 241 239
4 240 242 243 241
4 242 244 245 243
4 244 246 247 245
4 246 248 249 247
4 248 250 251 249
4 250 252 253 251
4 252 254 255 253
4 254 256 257 255
4 256 258 259 257
4 258 260 261 259
4 260 262 263 261
4 262 264 265 263
4 264 266 267 265
4 266 268 269 267
4 268 270 271 269
4 270 272 273 271
4 272 274 275 273
4 274 276 277 275
4 276 278 279 277
4 278 280 281 279
4 280 282 283 281
4 282 284 285 283
4 284 286 287 285
4 286 288 289 287
4 288 290 291 289
4 290 292 293 291
4 292 294 295 293
4 294 296 297 295
4 296 298 299 297
4 298 300 301 299
4 300 302 303 301
4 302 304 305 303
4 304 306 307 305
4 306 308 309 307
4 308 310 311 309
4 310 312 313 311
4 312 314 315 313
4 314 316 317 315
4 316 318 319 317
4 318 320 321 319
4 320 322 323 321
4 322 324 325 323
4 324 326 327 325
4 326 328 329 327
4 328 330 331 329
4 330 332 333 331
4 332 334 335 333
4 334 336 337 335
4 336 338 339 337
4 338 340 341 339
4 340 342 343 341
4 342 344 345 343
4 344 346 347 345
4 346 348 349 347
4 348 350 351 349
4 350 352 353 351
4 352 354 355 353
4 354 356 357 355
4 356 358 359 357
4 358 360 361 359
4 360 362 363 361
4 362 364 365 363
4 364 366 367 365
4 366 368 369 367
4 368 370 371 369
4 370 372 373 371
4 372 374 375 373
4 374 376 377 375
4 376 378 379 377
4 378 380 381 379
4 380 382 383 381
4 382 384 385 383
4 384 386 387 385
4 386 388 389 387
4 388 390 391 389
4 390 392 393 391
4 392 394 395 393
4 394 396 397 395
4 396 398 399 397
4 398 400 401 399
4 400 402 403 401
4 402 404 405 403
4 404 406 407 405
4 406 408 409 407
4 408 410 411 409
4 410 412 413 411
4 412 414 415 413
4 414 416 417 415
4 416 418 419 417
4 418 420 421 419
4 420 422 423 421
4 422 424 425 423
4 424 426 427 425
4 426 428 429 427
4 428 430 431 429
4 430 432 433 431
4 432 434 435 433
4 434 436 437 435
4 436 438 439 437
4 438 440 441 439
4 440 442 443 441
4 442 444 445 443
4 444 446 447 445
4 446 448 449 447
4 448 450 451 449
4 450 452 453 451
4 452 454 455 453
4 454 456 457 455
4 456 458 459 457
4 458 460 461 459
4 460 462 463 461
4 462 464 465 463
4 464 466 467 465
4 466 468 469 467
4 468 470 471 469
4 470 472 473 471
4 472 474 475 473
4 474 476 477 475
4 476 478 479 477
4 478 480 481 479
4 480 482 483 481
4 482 484 485 483
4 484 486 487 485
4 486 488 489 487
4 488 490 491 489
4 490 492 493 491
4 492 494 495 493
4 494 496 497 495
4 496 498 499 497
4 498 500 501 499
POINT_DATA 502
FIELD attributes 1
U 3 502 float
1.68062 0.0920196 0.0141189
0.841362 0.0457556 0.0069578
0.841362 0.0457556 0.0069578
1.68062 0.0920196 0.0141189
0.0243759 0.000730368 0
0.0243759 0.000730368 0
0.0217114 0.000586491 0
0.0217114 0.000586491 0
0.0195825 0.000476013 0
0.0195825 0.000476013 0
0.0175519 0.000411009 0
0.0175519 0.000411009 0
0.0154902 0.000354659 0
0.0154902 0.000354659 0
0.0135333 0.000292849 0
0.0135333 0.000292849 0
0.0117857 0.000245527 0
0.0117857 0.000245527 0
0.0102421 0.000218193 0
0.0102421 0.000218193 0
0.00886839 0.000193029 0
0.00886839 0.000193029 0
0.00765707 0.000155665 0
0.00765707 0.000155665 0
0.00661239 0.000108526 0
0.00661239 0.000108526 0
0.00574746 6.4167e-05 0
0.00574746 6.4167e-05 0
0.00502957 3.09683e-05 0
0.00502957 3.09683e-05 0
0.00445407 1.23821e-05 0
0.00445407 1.23821e-05 0
0.00395974 6.99518e-06 0
0.00395974 6.99518e-06 0
0.00351585 -2.99596e-05 0
0.00351585 -2.99596e-05 0
0.00161841 0.00015073 0
0.00161841 0.00015073 0
2.61893e-05 -7.33762e-05 1.02955e-22
2.61893e-05 -7.33762e-05 1.02955e-22
6.41491e-05 -0.000365276 -2.78431e-22
6.41491e-05 -0.000365276 -2.78431e-22
0.000101082 -0.00089379 -3.30019e-22
0.000101082 -0.00089379 -3.30019e-22
7.61234e-05 -0.00124517 6.60319e-22
7.61234e-05 -0.00124517 6.60319e-22
2.69287e-05 -0.00135837 2.20028e-22
2.69287e-05 -0.00135837 2.20028e-22
-1.63929e-05 -0.0012528 -4.40401e-22
-1.63929e-05 -0.0012528 -4.40401e-22
-4.47409e-05 -0.000985592 0
-4.47409e-05 -0.000985592 0
-5.64813e-05 -0.000626887 -8.86009e-22
-5.64813e-05 -0.000626887 -8.86009e-22
-5.22022e-05 -0.000244864 9.42656e-26
-5.22022e-05 -0.000244864 9.42656e-26
-3.44491e-05 9.53461e-05 8.86104e-22
-3.44491e-05 9.53461e-05 8.86104e-22
-4.77598e-06 0.000343281 -8.91524e-22
-4.77598e-06 0.000343281 -8.91524e-22
3.20887e-05 0.000451545 -4.3503e-28
3.20887e-05 0.000451545 -4.3503e-28
6.18787e-05 0.000385025 8.91524e-22
6.18787e-05 0.000385025 8.91524e-22
4.89197e-05 0.000147007 8.98936e-22
4.89197e-05 0.000147007 8.98936e-22
-1.88789e-05 -0.00012674 -8.87379e-27
-1.88789e-05 -0.00012674 -8.87379e-27
-7.36024e-05 -0.000266664 -9.14878e-22
-7.36024e-05 -0.000266664 -9.14878e-22
-8.95218e-05 -0.000173811 0
-8.95218e-05 -0.000173811 0
-9.40172e-05 8.93607e-05 0
-9.40172e-05 8.93607e-05 0
2.59688e-07 0.000187732 0
2.59688e-07 0.000187732 0
0.000225755 -0.000387069 0
0.000225755 -0.000387069 0
0.000326368 -0.00135252 0
0.000326368 -0.00135252 0
0.000168672 -0.0018716 0
0.000168672 -0.0018716 0
-6.14282e-05 -0.00180592 0
-6.14282e-05 -0.00180592 0
-0.000241861 -0.00138872 0
-0.000241861 -0.00138872 0
-0.000351601 -0.000770331 0
-0.000351601 -0.000770331 0
-0.000254545 -0.000124703 0
-0.000254545 -0.000124703 0
3.54753e-05 0.000254658 0
3.54753e-05 0.000254658 0
9.05012e-05 -0.000118348 4.44334e-25
9.05012e-05 -0.000118348 4.44334e-25
0.000241387 -0.000179114 -5.11646e-23
0.000241387 -0.000179114 -5.11646e-23
0.000415728 -0.00019852 0
0.000415728 -0.00019852 0
0.000592068 -0.000202153 0
0.000592068 -0.000202153 0
0.000770157 -0.000201521 4.95846e-23
0.000770157 -0.000201521 4.95846e-23
0.000950529 -0.000200629 4.96737e-23
0.000950529 -0.000200629 4.96737e-23
0.00113373 -0.000200334 0
0.00113373 -0.000200334 0
0.00132024 -0.00020032 0
0.00132024 -0.00020032 0
0.00151003 -0.000199878 0
0.00151003 -0.000199878 0
0.00170231 -0.000198136 -4.76945e-23
0.00170231 -0.000198136 -4.76945e-23
0.00189522 -0.000194135 -4.77854e-23
0.00189522 -0.000194135 -4.77854e-23
0.00208588 -0.000186819 0
0.00208588 -0.000186819 0
0.00227019 -0.000175122 0
0.00227019 -0.000175122 0
0.00244306 -0.00015803 0
0.00244306 -0.00015803 0
0.00259793 -0.000134732 -4.5797e-23
0.00259793 -0.000134732 -4.5797e-23
0.0027279 -0.000104556 -4.58895e-23
0.0027279 -0.000104556 -4.58895e-23
0.00282456 -6.71225e-05 0
0.00282456 -6.71225e-05 0
0.00288119 -2.22693e-05 0
0.00288119 -2.22693e-05 0
0.00289015 3.1009e-05 0
0.00289015 3.1009e-05 0
0.00284285 9.3291e-05 0
0.00284285 9.3291e-05 0
0.00273561 0.000163151 0
0.00273561 0.000163151 0
0.00256808 0.000234184 0
0.00256808 0.000234184 0
0.00235078 0.000294688 -4.30675e-23
0.00235078 0.000294688 -4.30675e-23
0.0021134 0.000341478 -4.02528e-25
0.0021134 0.000341478 -4.02528e-25
0.00189437 0.000358164 4.0568e-25
0.00189437 0.000358164 4.0568e-25
0.00172089 0.000269057 -8.46809e-23
0.00172089 0.000269057 -8.46809e-23
0.00159519 5.87459e-06 -4.22312e-23
0.00159519 5.87459e-06 -4.22312e-23
0.00148949 -0.000331307 0
0.00148949 -0.000331307 0
0.0013683 -0.000484429 4.11547e-23
0.0013683 -0.000484429 4.11547e-23
0.00116224 -0.000277507 8.20898e-23
0.00116224 -0.000277507 8.20898e-23
0.000741959 0.000163363 4.09354e-23
0.000741959 0.000163363 4.09354e-23
9.02582e-05 0.000520161 0
9.02582e-05 0.000520161 0
-0.000661476 0.000667112 3.98688e-23
-0.000661476 0.000667112 3.98688e-23
-0.00142826 0.00070164 3.9967e-23
-0.00142826 0.00070164 3.9967e-23
-0.00218775 0.000699318 0
-0.00218775 0.000699318 0
-0.00292314 0.000678567 -3.86767e-23
-0.00292314 0.000678567 -3.86767e-23
-0.00362561 0.000646046 -3.8775e-23
-0.00362561 0.000646046 -3.8775e-23
-0.00428908 0.000605681 -3.78547e-23
-0.00428908 0.000605681 -3.78547e-23
-0.00490949 0.000560377 -1.1284e-22
-0.00490949 0.000560377 -1.1284e-22
-0.00548417 0.000512284 -7.50835e-23
-0.00548417 0.000512284 -7.50835e-23
-0.00601123 0.000462776 0
-0.00601123 0.000462776 0
-0.00648919 0.00041279 0
-0.00648919 0.00041279 0
-0.00691685 0.000363013 0
-0.00691685 0.000363013 0
-0.00729326 0.000313855 0
-0.00729326 0.000313855 0
-0.00761762 0.000265583 -7.02117e-23
-0.00761762 0.000265583 -7.02117e-23
-0.00788933 0.000218394 -1.39911e-22
-0.00788933 0.000218394 -1.39911e-22
-0.00810819 0.000172493 -1.38522e-22
-0.00810819 0.000172493 -1.38522e-22
-0.00827444 0.000128278 -6.90182e-23
-0.00827444 0.000128278 -6.90182e-23
-0.00838884 8.64082e-05 6.75417e-23
-0.00838884 8.64082e-05 6.75417e-23
-0.00845241 4.77011e-05 6.77374e-23
-0.00845241 4.77011e-05 6.77374e-23
-0.00846668 1.28153e-05 -6.63651e-23
-0.00846668 1.28153e-05 -6.63651e-23
-0.00843718 -1.8063e-05 -1.32373e-22
-0.00843718 -1.8063e-05 -1.32373e-22
-0.00836799 -4.52529e-05 -6.60086e-23
-0.00836799 -4.52529e-05 -6.60086e-23
-0.00826195 -6.90308e-05 0
-0.00826195 -6.90308e-05 0
-0.00812369 -8.94493e-05 0
-0.00812369 -8.94493e-05 0
-0.00795731 -0.000106482 -6.37966e-23
-0.00795731 -0.000106482 -6.37966e-23
-0.00776761 -0.000120098 -6.39942e-23
-0.00776761 -0.000120098 -6.39942e-23
-0.00755912 -0.000130358 0
-0.00755912 -0.000130358 0
-0.00733652 -0.000137398 0
-0.00733652 -0.000137398 0
-0.00710419 -0.000141465 0
-0.00710419 -0.000141465 0
-0.00686624 -0.000142902 0
-0.00686624 -0.000142902 0
-0.0066262 -0.000142171 0
-0.0066262 -0.000142171 0
-0.00638693 -0.000139836 0
-0.00638693 -0.000139836 0
-0.00615032 -0.000136575 0
-0.00615032 -0.000136575 0
-0.00591713 -0.000133137 5.97045e-23
-0.00591713 -0.000133137 5.97045e-23
-0.00568688 -0.000130316 5.99051e-23
-0.00568688 -0.000130316 5.99051e-23
-0.00545773 -0.000128882 0
-0.00545773 -0.000128882 0
-0.00522657 -0.000129504 -5.83573e-23
-0.00522657 -0.000129504 -5.83573e-23
-0.00498931 -0.000132628 -1.16472e-22
-0.00498931 -0.000132628 -1.16472e-22
-0.00474134 -0.000138354 -5.81147e-23
-0.00474134 -0.000138354 -5.81147e-23
-0.0044783 -0.000146339 5.70371e-23
-0.0044783 -0.000146339 5.70371e-23
-0.00419677 -0.000155797 6.34335e-25
-0.00419677 -0.000155797 6.34335e-25
-0.00389504 -0.000165577 -5.68065e-23
-0.00389504 -0.000165577 -5.68065e-23
-0.00357369 -0.000174344 5.57449e-23
-0.00357369 -0.000174344 5.57449e-23
-0.00323566 -0.000180851 5.59471e-23
-0.00323566 -0.000180851 5.59471e-23
-0.00288577 -0.000184239 0
-0.00288577 -0.000184239 0
-0.00252984 -0.000184185 -5.44405e-23
-0.00252984 -0.000184185 -5.44405e-23
-0.00217362 -0.000180856 -5.46429e-23
-0.00217362 -0.000180856 -5.46429e-23
-0.00182229 -0.000174733 5.35448e-23
-0.00182229 -0.000174733 5.35448e-23
-0.00148024 -0.000166491 5.37471e-23
-0.00148024 -0.000166491 5.37471e-23
-0.00115089 -0.000156834 -5.26255e-23
-0.00115089 -0.000156834 -5.26255e-23
-0.00083657 -0.000146346 -1.04986e-22
-0.00083657 -0.000146346 -1.04986e-22
-0.000538519 -0.000135484 -1.04046e-22
-0.000538519 -0.000135484 -1.04046e-22
-0.000257425 -0.000124564 -1.54311e-22
-0.000257425 -0.000124564 -1.54311e-22
5.72906e-06 -0.000114293 -1.37988e-24
5.72906e-06 -0.000114293 -1.37988e-24
0.000251118 -0.000104497 1.01847e-22
0.000251118 -0.000104497 1.01847e-22
0.000480615 -9.48349e-05 0
0.000480615 -9.48349e-05 0
0.000695052 -8.57103e-05 0
0.000695052 -8.57103e-05 0
0.000894546 -7.70932e-05 9.74515e-23
0.000894546 -7.70932e-05 9.74515e-23
0.00107971 -6.89728e-05 1.94309e-22
0.00107971 -6.89728e-05 1.94309e-22
0.00125114 -6.13374e-05 1.38379e-24
0.00125114 -6.13374e-05 1.38379e-24
0.00140948 -5.41762e-05 -9.58678e-23
0.00140948 -5.41762e-05 -9.58678e-23
0.00155533 -4.74805e-05 9.35118e-23
0.00155533 -4.74805e-05 9.35118e-23
0.00168934 -4.12447e-05 1.86444e-22
0.00168934 -4.12447e-05 1.86444e-22
0.00181214 -3.54645e-05 1.84503e-22
0.00181214 -3.54645e-05 1.84503e-22
0.00192439 -3.01356e-05 9.1962e-23
0.00192439 -3.01356e-05 9.1962e-23
0.00202676 -2.52519e-05 0
0.00202676 -2.52519e-05 0
0.00211993 -2.08036e-05 0
0.00211993 -2.08036e-05 0
0.00220455 -1.67759e-05 8.77624e-23
0.00220455 -1.67759e-05 8.77624e-23
0.00228132 -1.31488e-05 8.81467e-23
0.00228132 -1.31488e-05 8.81467e-23
0.00235086 -9.8967e-06 0
0.00235086 -9.8967e-06 0
0.00241379 -6.98958e-06 -8.49698e-23
0.00241379 -6.98958e-06 -8.49698e-23
0.0024707 -4.39434e-06 -8.53493e-23
0.0024707 -4.39434e-06 -8.53493e-23
0.00252208 -2.0774e-06 0
0.00252208 -2.0774e-06 0
0.00256841 -6.0885e-09 -8.22328e-23
0.00256841 -6.0885e-09 -8.22328e-23
0.00261008 1.84868e-06 -8.26073e-23
0.00261008 1.84868e-06 -8.26073e-23
0.00264745 3.51005e-06 0
0.00264745 3.51005e-06 0
0.00268081 4.99713e-06 7.95503e-23
0.00268081 4.99713e-06 7.95503e-23
0.00271041 6.3213e-06 1.58588e-22
0.00271041 6.3213e-06 1.58588e-22
0.00273648 7.48709e-06 7.90354e-23
0.00273648 7.48709e-06 7.90354e-23
0.00275924 8.50162e-06 -7.69205e-23
0.00275924 8.50162e-06 -7.69205e-23
0.00277888 9.36098e-06 -7.72842e-23
0.00277888 9.36098e-06 -7.72842e-23
0.00279563 1.00606e-05 7.51954e-23
0.00279563 1.00606e-05 7.51954e-23
0.00280967 1.0617e-05 7.55553e-23
0.00280967 1.0617e-05 7.55553e-23
0.00282123 1.1019e-05 7.34921e-23
0.00282123 1.1019e-05 7.34921e-23
0.00283056 1.12602e-05 1.46497e-22
0.00283056 1.12602e-05 1.46497e-22
0.00283783 1.14078e-05 7.30023e-23
0.00283783 1.14078e-05 7.30023e-23
0.00284317 1.14965e-05 0
0.00284317 1.14965e-05 0
0.00284683 1.14843e-05 0
0.00284683 1.14843e-05 0
0.00284906 1.13474e-05 0
0.00284906 1.13474e-05 0
0.00285008 1.1099e-05 0
0.00285008 1.1099e-05 0
0.00285012 1.07575e-05 0
0.00285012 1.07575e-05 0
0.00284941 1.03416e-05 0
0.00284941 1.03416e-05 0
0.00284813 9.873e-06 6.60804e-23
0.00284813 9.873e-06 6.60804e-23
0.00284642 9.3706e-06 1.13587e-24
0.00284642 9.3706e-06 1.13587e-24
0.00284441 8.84902e-06 -6.56152e-23
0.00284441 8.84902e-06 -6.56152e-23
0.00284222 8.32392e-06 0
0.00284222 8.32392e-06 0
0.00283991 7.81454e-06 0
0.00283991 7.81454e-06 0
0.00283754 7.33182e-06 0
0.00283754 7.33182e-06 0
0.00283515 6.86698e-06 -1.22703e-22
0.00283515 6.86698e-06 -1.22703e-22
0.00283281 6.4043e-06 -1.23348e-22
0.00283281 6.4043e-06 -1.23348e-22
0.00283053 5.94195e-06 1.1962e-22
0.00283053 5.94195e-06 1.1962e-22
0.00282834 5.50101e-06 2.16366e-24
0.00282834 5.50101e-06 2.16366e-24
0.00282621 5.10068e-06 -1.18721e-22
0.00282621 5.10068e-06 -1.18721e-22
0.00282415 4.7401e-06 0
0.00282415 4.7401e-06 0
0.00282216 4.41489e-06 0
0.00282216 4.41489e-06 0
0.00282024 4.12258e-06 1.12055e-22
0.00282024 4.12258e-06 1.12055e-22
0.00281839 3.85943e-06 2.2323e-22
0.00281839 3.85943e-06 2.2323e-22
0.00281663 3.61941e-06 1.11169e-22
0.00281663 3.61941e-06 1.11169e-22
0.00281496 3.3965e-06 1.0761e-22
0.00281496 3.3965e-06 1.0761e-22
0.00281339 3.18661e-06 2.14345e-22
0.00281339 3.18661e-06 2.14345e-22
0.00281193 2.98812e-06 2.04724e-24
0.00281193 2.98812e-06 2.04724e-24
0.0028106 2.8023e-06 -1.05265e-22
0.0028106 2.8023e-06 -1.05265e-22
0.0028094 2.63275e-06 0
0.0028094 2.63275e-06 0
0.00280833 2.48336e-06 -1.00345e-22
0.00280833 2.48336e-06 -1.00345e-22
0.00280738 2.35652e-06 -1.00911e-22
0.00280738 2.35652e-06 -1.00911e-22
0.00280653 2.25224e-06 0
0.00280653 2.25224e-06 0
0.00280577 2.16819e-06 0
0.00280577 2.16819e-06 0
0.00280508 2.10075e-06 0
0.00280508 2.10075e-06 0
0.00280444 2.04597e-06 9.32505e-23
0.00280444 2.04597e-06 9.32505e-23
0.00280384 2.0004e-06 1.85637e-22
0.00280384 2.0004e-06 1.85637e-22
0.00280326 1.96154e-06 9.23807e-23
0.00280326 1.96154e-06 9.23807e-23
0.00280269 1.92801e-06 8.90686e-23
0.00280269 1.92801e-06 8.90686e-23
0.00280213 1.89955e-06 8.95869e-23
0.00280213 1.89955e-06 8.95869e-23
0.00280155 1.87679e-06 0
0.00280155 1.87679e-06 0
0.00280094 1.86103e-06 8.49393e-23
0.00280094 1.86103e-06 8.49393e-23
0.00280028 1.85385e-06 8.54393e-23
0.00280028 1.85385e-06 8.54393e-23
0.00279954 1.85711e-06 8.22141e-23
0.00279954 1.85711e-06 8.22141e-23
0.0027987 1.87276e-06 8.27016e-23
0.0027987 1.87276e-06 8.27016e-23
0.00279771 1.90331e-06 0
0.00279771 1.90331e-06 0
0.00279654 1.95151e-06 7.81657e-23
0.00279654 1.95151e-06 7.81657e-23
0.00279511 2.0218e-06 7.86343e-23
0.00279511 2.0218e-06 7.86343e-23
0.0027934 2.11787e-06 7.54919e-23