/*--------------------------------*- C++ -*----------------------------------*\
  =========                 |
  \\      /  F ield         | OpenFOAM: The Open Source CFD Toolbox
   \\    /   O peration     | Website:  https://openfoam.org
    \\  /    A nd           | Version:  7
     \\/     M anipulation  |
\*---------------------------------------------------------------------------*/
FoamFile
{
    version     2.0;
    format      ascii;
    class       volScalarField;
    location    "0.045";
    object      s_0;
}
// * * * * * * * * * * * * * * * * * * * * * * * * * * * * * * * * * * * * * //

dimensions      [0 0 0 0 0 0 0];

internalField   nonuniform List<scalar> 
12225
(
1
1
1
1
1
1
1
1
1
1
1
1
1
1
1
1
1
1
1
1
1
1
1
1
1
1
1
1
1
1
1
1
1
1
1
1
1
1
1
1
1
1
1
1
1
1
1
1
1
1
1
1
1
1
1
1
1
1
1
1
1
1
1
1
1
1
1
1
1
1
1
1
1
1
1
1
1
1
1
1
1
1
1
1
1
1
1
1
1
1
1
1
1
1
1
1
1
1
1
1
1
1
1
1
1
1
1
1
1
1
1
1
1
1
1
1
1
1
1
1
1
1
1
1
1
1
1
1
1
1
1
1
1
1
1
1
1
1
1
1
1
1
1
1
1
1
1
1
1
1
1
1
1
1
1
1
1
1
1
1
1
1
1
1
1
1
1
1
1
1
1
1
1
1
1
1
1
1
1
1
1
1
1
1
1
1
1
1
1
1
1
1
1
1
1
1
1
1
1
1
1
1
1
1
1
1
1
1
1
1
1
1
1
1
1
1
1
1
1
1
1
1
1
1
1
1
1
1
1
1
1
1
1
1
1
1
1
1
1
1
1
1
1
1
1
1
1
1
1
1
1
1
1
1
1
1
1
1
1
1
1
1
1
1
1
1
1
1
1
1
1
1
1
1
1
1
1
1
1
1
1
1
1
1
1
1
1
1
1
1
1
1
1
1
1
1
1
1
1
1
1
1
1
1
1
1
1
1
1
1
1
1
1
1
1
1
1
1
1
1
1
1
1
1
1
1
1
1
1
1
1
1
1
1
1
1
1
1
1
1
1
1
1
1
1
1
1
1
1
1
1
1
1
1
1
1
1
1
1
1
1
1
1
1
1
1
1
1
1
1
1
1
1
1
1
1
1
1
1
1
1
1
1
1
1
1
1
1
1
1
1
1
1
1
1
1
1
1
1
1
1
1
1
1
1
1
1
1
1
1
1
1
1
1
1
1
1
1
1
1
1
1
1
1
1
1
1
1
1
1
1
1
1
1
1
1
1
1
1
1
1
1
1
1
1
1
1
1
1
1
1
1
1
1
1
1
1
1
1
1
1
1
1
1
1
1
1
1
1
1
1
1
1
1
1
1
1
1
1
1
1
1
1
1
1
1
1
1
1
1
1
1
1
1
1
1
1
1
1
1
1
1
1
1
1
1
1
1
1
1
1
1
1
1
1
1
1
1
1
1
1
1
1
1
1
1
1
1
1
1
1
1
1
1
1
1
1
1
1
1
4.59603e-09
2.22495e-07
1.53984e-06
5.86791e-06
1.68144e-05
4.06195e-05
8.8421e-05
0.000181254
0.000361029
0.000605438
0.00107996
0.00144601
0.00193456
0.0023217
0.00272146
0.00279992
0.00272821
0.00252349
0.00216935
0.00185466
0.00156923
0.00130553
0.00106265
0.000835204
0.000627133
0.000432311
0.000260699
0.000130359
4.30152e-05
3.21374e-05
0.000226396
0.00283409
0.0081865
0.00718648
0.0197127
0.199678
0.397145
0.399031
0.394323
0.394728
0.399263
0.410128
0.427242
0.447621
0.467909
0.487728
0.508731
0.530753
0.551377
0.569245
0.585084
0.599346
0.61145
0.621591
0.628291
0.631022
0.631867
0.63095
0.623786
0.610603
0.59679
0.584029
0.570161
0.554044
0.53742
0.522572
0.509966
0.500055
0.492522
0.485711
0.48108
0.478958
0.47783
0.476275
0.472891
0.469447
0.465302
0.458237
0.448418
0.43703
0.423053
0.406562
0.387087
0.364527
0.339498
0.311434
0.281454
0.249903
0.217667
0.185947
0.155958
0.129263
0.107215
0.0879087
0.0703505
0.0548407
0.041601
0.0307283
0.0221519
0.0156049
0.0106926
0.00709442
0.00455611
0.00283332
0.00170531
0.000992332
0.00055805
0.000303301
0.000159348
8.09517e-05
3.97782e-05
1.89074e-05
8.69043e-06
3.85844e-06
1.65064e-06
6.77661e-07
2.6506e-07
9.75593e-08
3.27925e-08
1.00904e-08
2.98907e-09
8.52802e-10
2.34964e-10
6.26644e-11
1.34896e-11
4.73536e-12
1.66963e-12
5.91318e-13
2.08188e-13
7.20436e-14
2.43609e-14
8.04698e-15
2.60286e-15
8.26398e-16
2.57873e-16
7.91045e-17
2.38492e-17
7.06523e-18
2.05655e-18
5.8827e-19
1.65402e-19
4.57224e-20
1.24284e-20
3.32238e-21
8.73517e-22
2.25902e-22
5.74691e-23
1.43833e-23
3.5419e-24
8.5825e-25
2.04659e-25
4.80309e-26
1.10946e-26
2.5224e-27
5.64449e-28
1.24312e-28
2.69416e-29
5.74445e-30
1.20461e-30
2.48323e-31
5.02938e-32
1.0001e-32
1.95105e-33
3.73109e-34
6.98841e-35
1.28097e-35
2.29611e-36
4.02194e-37
6.88076e-38
1.14913e-38
1.87289e-39
2.97745e-40
4.61677e-41
6.97427e-42
1.02638e-42
1.46621e-43
2.03277e-44
2.70324e-45
3.44944e-46
3.83229e-47
1.10588e-07
2.56512e-06
1.71245e-05
6.87646e-05
0.000209595
0.000533415
0.00120605
0.00260838
0.00500917
0.00877142
0.0130281
0.0174657
0.0208236
0.0246272
0.0271819
0.0270897
0.0265186
0.0248569
0.0213546
0.017277
0.0131471
0.00933431
0.00617692
0.00379558
0.00222562
0.00123418
0.000630371
0.000361364
0.000146996
7.14709e-05
0.000177946
0.00732314
0.0766313
0.236602
0.320729
0.39495
0.447675
0.463526
0.502272
0.550058
0.607807
0.663378
0.714657
0.764738
0.804891
0.842707
0.873604
0.899988
0.918253
0.931899
0.941571
0.947512
0.950131
0.95098
0.951229
0.953087
0.955759
0.958117
0.96059
0.963485
0.965753
0.967006
0.968123
0.968595
0.968696
0.967671
0.965898
0.965391
0.964895
0.963702
0.963068
0.963039
0.963009
0.963087
0.963009
0.962319
0.961444
0.960269
0.958511
0.956383
0.952765
0.948374
0.942723
0.935222
0.925312
0.912853
0.896882
0.876876
0.85181
0.82072
0.782415
0.735634
0.678886
0.614812
0.545338
0.471574
0.395461
0.32013
0.250276
0.191753
0.146174
0.108214
0.0774418
0.0537744
0.0363784
0.0239447
0.0153147
0.00952586
0.00576793
0.00340298
0.0019584
0.00110062
0.000604706
0.000325096
0.000171129
8.82358e-05
4.45658e-05
2.20434e-05
1.06731e-05
5.05526e-06
2.3404e-06
1.05843e-06
4.67348e-07
2.01416e-07
8.47152e-08
3.47748e-08
1.39342e-08
5.45157e-09
2.08309e-09
7.77593e-10
2.83617e-10
1.01088e-10
3.52098e-11
1.19827e-11
3.98299e-12
1.2926e-12
4.09421e-13
1.26497e-13
3.80775e-14
1.11585e-14
3.20094e-15
9.01829e-16
2.49511e-16
6.77817e-17
1.80777e-17
4.73316e-18
1.21649e-18
3.06903e-19
7.6e-20
1.8473e-20
4.40724e-21
1.03206e-21
2.37224e-22
5.35226e-23
1.18538e-23
2.57714e-24
5.50053e-25
1.1526e-25
2.37134e-26
4.79043e-27
9.50273e-28
1.85116e-28
3.54146e-29
6.65399e-30
1.22786e-30
2.22527e-31
3.96061e-32
6.92252e-33
1.18798e-33
2.00146e-34
3.30892e-35
5.36722e-36
8.53311e-37
1.32949e-37
2.02526e-38
3.01696e-39
4.36993e-40
6.1629e-41
8.50773e-42
-2.84083e-43
8.85426e-07
1.55435e-05
0.000105536
0.000446477
0.00142315
0.00373372
0.00869329
0.0188525
0.0345189
0.0540797
0.0697724
0.088166
0.0952678
0.111757
0.112035
0.108313
0.0989695
0.0858939
0.0728372
0.0600287
0.0478773
0.0366912
0.0264499
0.0175046
0.0105252
0.00548709
0.00237125
0.000672972
0.000286501
0.00534168
0.0752534
0.21833
0.371992
0.477165
0.534296
0.604523
0.642652
0.734851
0.786449
0.839859
0.86503
0.894628
0.911027
0.919956
0.924371
0.925771
0.925236
0.919235
0.912967
0.906094
0.892265
0.879909
0.872527
0.869432
0.869043
0.87635
0.893359
0.906615
0.917075
0.933892
0.946857
0.955054
0.965346
0.97306
0.977027
0.980518
0.982576
0.98484
0.985829
0.986759
0.987183
0.987731
0.988343
0.989086
0.990189
0.990675
0.991041
0.991874
0.993049
0.994425
0.995031
0.995559
0.996269
0.996612
0.996786
0.996984
0.996578
0.995829
0.994533
0.992546
0.989585
0.985227
0.978884
0.969685
0.956381
0.937206
0.909649
0.870267
0.814477
0.737324
0.639422
0.530233
0.417289
0.311519
0.225548
0.160745
0.110853
0.0741023
0.0481872
0.0304948
0.0188004
0.0113073
0.00664274
0.00381614
0.00214574
0.00118159
0.000637402
0.000336829
0.000174316
8.83102e-05
4.3774e-05
2.12192e-05
1.00545e-05
4.65573e-06
2.10647e-06
9.3127e-07
4.02357e-07
1.69926e-07
7.01668e-08
2.83363e-08
1.11943e-08
4.32703e-09
1.63678e-09
6.05961e-10
2.1957e-10
7.78734e-11
2.70334e-11
9.18527e-12
3.05446e-12
9.94e-13
3.16515e-13
9.86116e-14
3.00597e-14
8.96548e-15
2.61647e-15
7.47193e-16
2.08806e-16
5.71053e-17
1.52978e-17
4.02626e-18
1.0415e-18
2.64756e-19
6.61333e-20
1.62311e-20
3.91377e-21
9.27137e-22
2.15764e-22
4.93276e-23
1.10782e-23
2.4441e-24
5.29707e-25
1.12778e-25
2.35874e-26
4.84634e-27
9.78177e-28
1.93951e-28
3.77758e-29
7.22733e-30
1.35804e-30
2.5062e-31
4.54053e-32
8.07646e-33
1.40902e-33
2.41203e-34
4.04154e-35
6.63863e-36
1.06253e-36
1.66481e-37
2.51669e-38
3.65523e-39
3.77047e-06
6.4703e-05
0.000456772
0.00200743
0.0065494
0.0173698
0.0414975
0.0844085
0.13514
0.178901
0.205109
0.229275
0.228556
0.212991
0.181298
0.149191
0.122109
0.10053
0.0816804
0.065454
0.0520083
0.0397481
0.0283578
0.0183818
0.0105534
0.00504972
0.00180724
0.00126131
0.02654
0.135471
0.376781
0.533492
0.621486
0.700847
0.760186
0.809932
0.850556
0.885615
0.901351
0.911002
0.914527
0.915629
0.912311
0.903618
0.884801
0.853286
0.809307
0.750849
0.702306
0.664566
0.636241
0.623775
0.618159
0.616681
0.618803
0.632047
0.653208
0.677787
0.712523
0.754129
0.794438
0.830615
0.862715
0.883702
0.903693
0.919707
0.927856
0.936189
0.940212
0.944682
0.946664
0.948306
0.951217
0.955465
0.961126
0.96531
0.967451
0.971077
0.975442
0.982164
0.985975
0.988439
0.992086
0.995095
0.996399
0.997892
0.998564
0.999066
0.999343
0.999493
0.999569
0.999584
0.99949
0.999242
0.998779
0.997958
0.996526
0.994052
0.989778
0.982332
0.969289
0.946246
0.905864
0.837785
0.732923
0.598447
0.455768
0.327425
0.229211
0.156058
0.103048
0.0662004
0.0414312
0.025292
0.0150764
0.00878212
0.00500127
0.00278477
0.00151584
0.000806358
0.000419009
0.000212592
0.000105278
5.08739e-05
2.39874e-05
1.10365e-05
4.95586e-06
2.17251e-06
9.30035e-07
3.88932e-07
1.58936e-07
6.34858e-08
2.47938e-08
9.46913e-09
3.53707e-09
1.2924e-09
4.61972e-10
1.61555e-10
5.52746e-11
1.85029e-11
6.05999e-12
1.94196e-12
6.08919e-13
1.86835e-13
5.61005e-14
1.64862e-14
4.74203e-15
1.3352e-15
3.68053e-16
9.93248e-17
2.62452e-17
6.79345e-18
1.7262e-18
4.30929e-19
1.05685e-19
2.5462e-20
6.02606e-21
1.40097e-21
3.19947e-22
7.1776e-23
1.58174e-23
3.4241e-24
7.28145e-25
1.52108e-25
3.12134e-26
6.29201e-27
1.24587e-27
2.42321e-28
4.62888e-29
8.68441e-30
1.5996e-30
2.89296e-31
5.1325e-32
8.93629e-33
1.52368e-33
2.5475e-34
4.15604e-35
6.6399e-36
1.02779e-36
1.54503e-37
1.08161e-05
0.000197743
0.00145548
0.00659656
0.0218759
0.0582297
0.138272
0.240369
0.314231
0.346337
0.345471
0.327743
0.281434
0.221189
0.165786
0.116531
0.0771382
0.053885
0.0403589
0.0367173
0.0355778
0.0320726
0.0237165
0.0142818
0.00738956
0.00395867
0.00708118
0.0425931
0.180774
0.493186
0.648839
0.728709
0.796784
0.838386
0.87395
0.891133
0.902166
0.906693
0.90758
0.905166
0.892654
0.868904
0.824558
0.75057
0.68269
0.620724
0.578523
0.558925
0.546891
0.540639
0.538512
0.538257
0.541239
0.546124
0.548041
0.550705
0.555178
0.561793
0.568788
0.576505
0.590021
0.61504
0.647138
0.685654
0.718571
0.745844
0.777369
0.791534
0.807802
0.815063
0.823109
0.82904
0.835044
0.850614
0.868515
0.890573
0.903825
0.915661
0.923258
0.936774
0.949559
0.959045
0.969823
0.981103
0.986377
0.992144
0.995084
0.997139
0.998363
0.999087
0.999493
0.999707
0.999825
0.999886
0.999917
0.99993
0.999928
0.999897
0.999809
0.999613
0.999193
0.998287
0.996308
0.991952
0.982259
0.96041
0.910546
0.814679
0.673285
0.511733
0.363606
0.250935
0.168227
0.109561
0.069449
0.0428916
0.0258261
0.0151654
0.0086845
0.00484885
0.00263871
0.00139913
0.000722642
0.000363519
0.000178106
8.5005e-05
3.95321e-05
1.79206e-05
7.92195e-06
3.41642e-06
1.43797e-06
5.9092e-07
2.37166e-07
9.2991e-08
3.56281e-08
1.3341e-08
4.88305e-09
1.74723e-09
6.11229e-10
2.09067e-10
6.99235e-11
2.28691e-11
7.31461e-12
2.28818e-12
7.00138e-13
2.09565e-13
6.13689e-14
1.75845e-14
4.93092e-15
1.35335e-15
3.63619e-16
9.56541e-17
2.46382e-17
6.21871e-18
1.541e-18
3.74953e-19
8.9586e-20
2.10185e-20
4.84251e-21
1.09562e-21
2.43436e-22
5.312e-23
1.13839e-23
2.39607e-24
4.95317e-25
1.00566e-25
2.00535e-26
3.92739e-27
7.55329e-28
1.42658e-28
2.64508e-29
4.81494e-30
8.59861e-31
1.50676e-31
2.58665e-32
4.35302e-33
7.15706e-34
1.15166e-34
1.80203e-35
2.74184e-36
2.39548e-05
0.000463675
0.00351607
0.016269
0.0543501
0.143614
0.30856
0.410385
0.43376
0.429092
0.40992
0.360366
0.280186
0.201002
0.1302
0.0743987
0.0418073
0.0233689
0.0168157
0.0160133
0.0162601
0.0151022
0.0122197
0.00970406
0.00895008
0.0202474
0.0766197
0.244681
0.570797
0.724838
0.795537
0.840132
0.870126
0.88511
0.894025
0.89722
0.898085
0.890304
0.87169
0.8329
0.761123
0.695402
0.630774
0.597147
0.576042
0.565992
0.56215
0.561491
0.564508
0.578702
0.589544
0.594067
0.59612
0.59661
0.596353
0.593503
0.587716
0.581646
0.573109
0.564829
0.556836
0.551377
0.549842
0.550841
0.552365
0.556987
0.566906
0.573841
0.587222
0.595807
0.600015
0.604812
0.608581
0.628206
0.664283
0.716624
0.78161
0.819726
0.835374
0.845226
0.863738
0.888237
0.917522
0.945493
0.963271
0.97796
0.986832
0.99227
0.995463
0.997348
0.998475
0.999145
0.999536
0.999756
0.999875
0.999934
0.999962
0.999976
0.999983
0.999985
0.999983
0.999969
0.999925
0.999803
0.99948
0.998615
0.996301
0.990093
0.973455
0.928875
0.818709
0.656352
0.484164
0.338267
0.229565
0.151106
0.0966065
0.0600297
0.0362636
0.0212965
0.0121565
0.00674368
0.00363517
0.00190416
0.00096942
0.00047983
0.000231003
0.000108225
4.93692e-05
2.19401e-05
9.50392e-06
4.01472e-06
1.65454e-06
6.65464e-07
2.61291e-07
1.0018e-07
3.75136e-08
1.37219e-08
4.90361e-09
1.71216e-09
5.84175e-10
1.94786e-10
6.34791e-11
2.02214e-11
6.29718e-12
1.91732e-12
5.70841e-13
1.66217e-13
4.73419e-14
1.31918e-14
3.5969e-15
9.5985e-16
2.50735e-16
6.41252e-17
1.60669e-17
3.95038e-18
9.53265e-19
2.25783e-19
5.24927e-20
1.19802e-20
2.68418e-21
5.90434e-22
1.27517e-22
2.7041e-23
5.63055e-24
1.15125e-24
2.31141e-25
4.557e-26
8.8214e-27
1.67669e-27
3.12837e-28
5.72962e-29
1.02952e-29
1.81488e-30
3.13521e-31
5.30815e-32
8.78859e-33
1.42364e-33
2.24812e-34
3.45568e-35
4.39992e-05
0.000871126
0.00662041
0.0304506
0.0999557
0.251377
0.430279
0.48169
0.484708
0.486975
0.464865
0.403459
0.311919
0.207101
0.117915
0.058527
0.0313153
0.0198315
0.0158462
0.0146781
0.0145079
0.0146101
0.015677
0.0234739
0.0525292
0.145175
0.388012
0.648499
0.771318
0.829019
0.856872
0.872639
0.880467
0.884079
0.88538
0.874508
0.849449
0.79554
0.732379
0.668702
0.629064
0.601026
0.588088
0.583343
0.581996
0.587918
0.597604
0.604674
0.611193
0.612915
0.612967
0.610618
0.60828
0.607199
0.60711
0.609718
0.611659
0.61409
0.614823
0.614822
0.610549
0.600891
0.577154
0.554811
0.537601
0.520833
0.512095
0.505127
0.5015
0.500313
0.500231
0.499683
0.492532
0.486937
0.484923
0.49863
0.545881
0.65904
0.703776
0.7069
0.701855
0.731653
0.802662
0.860145
0.911081
0.946885
0.969805
0.983399
0.990924
0.994912
0.997065
0.998288
0.999006
0.999433
0.999688
0.999838
0.999919
0.99996
0.99998
0.999989
0.999993
0.999995
0.999996
0.999995
0.999988
0.999964
0.999885
0.999634
0.998845
0.996406
0.988971
0.96668
0.900854
0.747362
0.565631
0.400383
0.273794
0.181053
0.11591
0.0718716
0.04317
0.0251205
0.0141628
0.00773847
0.00409939
0.00210657
0.00105076
0.00050911
0.00023978
0.000109853
4.8989e-05
2.12779e-05
9.0059e-06
3.71611e-06
1.49546e-06
5.87112e-07
2.24927e-07
8.41063e-08
3.07016e-08
1.09423e-08
3.8083e-09
1.29445e-09
4.29766e-10
1.39388e-10
4.41703e-11
1.36776e-11
4.13933e-12
1.22453e-12
3.54169e-13
1.00169e-13
2.77096e-14
7.49884e-15
1.98574e-15
5.14642e-16
1.30573e-16
3.24665e-17
7.91885e-18
1.8949e-18
4.44886e-19
1.02493e-19
2.3172e-20
5.1416e-21
1.11978e-21
2.39391e-22
5.02393e-23
1.03507e-23
2.0936e-24
4.15749e-25
8.10509e-26
1.55122e-26
2.91405e-27
5.37289e-28
9.71913e-29
1.72465e-29
2.99976e-30
5.11324e-31
8.52954e-32
1.39216e-32
2.21905e-33
3.44776e-34
6.14716e-05
0.00115767
0.00870067
0.0395624
0.126441
0.304299
0.485206
0.534582
0.545162
0.542555
0.520076
0.461925
0.37481
0.276521
0.169741
0.0928431
0.0570434
0.0401247
0.0327519
0.0306793
0.0340575
0.0457814
0.0737947
0.140729
0.296523
0.530323
0.71473
0.800711
0.840297
0.858058
0.866107
0.869627
0.869727
0.85696
0.828939
0.770094
0.710731
0.661273
0.626097
0.603146
0.593066
0.589038
0.588149
0.589221
0.592421
0.593458
0.593757
0.588888
0.575431
0.554816
0.534622
0.523058
0.518295
0.517583
0.525502
0.53636
0.551337
0.572039
0.589342
0.606889
0.617752
0.623413
0.625535
0.624992
0.610725
0.574518
0.530541
0.503085
0.486731
0.47386
0.464932
0.460464
0.459386
0.45333
0.446339
0.443315
0.445053
0.474714
0.539609
0.567184
0.572581
0.602486
0.672655
0.757094
0.832931
0.893311
0.936572
0.965046
0.982062
0.991105
0.995434
0.997511
0.998589
0.999185
0.999527
0.999731
0.999854
0.999924
0.999962
0.999981
0.999991
0.999995
0.999997
0.999998
0.999999
0.999998
0.999996
0.999988
0.999956
0.999838
0.999425
0.998018
0.993355
0.97832
0.931014
0.795578
0.604435
0.429422
0.293357
0.193065
0.122542
0.0750577
0.0443873
0.0253587
0.0140058
0.00748442
0.00387326
0.00194302
0.000945737
0.00044704
0.000205382
9.1778e-05
3.99164e-05
1.69058e-05
6.97584e-06
2.80541e-06
1.09996e-06
4.2059e-07
1.5687e-07
5.70834e-08
2.02696e-08
7.02455e-09
2.37631e-09
7.84813e-10
2.53094e-10
7.97122e-11
2.45231e-11
7.37087e-12
2.16493e-12
6.21509e-13
1.74432e-13
4.78724e-14
1.28507e-14
3.37489e-15
8.67334e-16
2.18242e-16
5.38352e-17
1.30218e-17
3.08901e-18
7.18738e-19
1.64052e-19
3.67372e-20
8.07224e-21
1.74057e-21
3.68333e-22
7.6502e-23
1.55959e-23
3.12089e-24
6.13007e-25
1.18188e-25
2.23641e-26
4.15303e-27
7.56646e-28
1.35224e-28
2.36923e-29
4.06832e-30
6.84063e-31
1.12578e-31
1.81173e-32
2.84617e-33
6.57316e-05
0.00124744
0.00941955
0.0429212
0.136744
0.325706
0.522011
0.580104
0.587851
0.587067
0.572572
0.539832
0.487667
0.41793
0.333442
0.237839
0.172242
0.141949
0.130677
0.131358
0.167965
0.234453
0.353221
0.505744
0.657143
0.764039
0.817955
0.841946
0.851632
0.855333
0.85565
0.842294
0.812624
0.756065
0.69432
0.656598
0.619649
0.600877
0.590528
0.586772
0.586658
0.587184
0.587116
0.586273
0.581314
0.564573
0.530493
0.474948
0.44372
0.418149
0.406047
0.400222
0.398344
0.402511
0.411729
0.428463
0.445692
0.466062
0.488478
0.523525
0.55918
0.595464
0.621881
0.633828
0.637949
0.638414
0.622479
0.579281
0.523876
0.482646
0.458116
0.442087
0.436418
0.435655
0.437113
0.435826
0.433702
0.438864
0.466636
0.515114
0.539425
0.575336
0.641169
0.726973
0.804153
0.869874
0.918484
0.951205
0.972248
0.985155
0.992573
0.996417
0.998224
0.999057
0.999467
0.999694
0.999825
0.999904
0.999949
0.999974
0.999987
0.999993
0.999997
0.999998
0.999999
0.999999
1
0.999999
0.999998
0.999993
0.99997
0.999883
0.999556
0.998383
0.994317
0.980665
0.936015
0.800223
0.599888
0.42217
0.284793
0.184445
0.114827
0.0687953
0.0397113
0.0221127
0.011893
0.00618601
0.00311553
0.00152106
0.00072061
0.000331575
0.000148296
6.45103e-05
2.731e-05
1.12567e-05
4.51927e-06
1.76782e-06
6.73972e-07
2.5049e-07
9.07779e-08
3.20849e-08
1.10621e-08
3.72109e-09
1.22149e-09
3.91363e-10
1.22415e-10
3.7389e-11
1.11535e-11
3.25045e-12
9.25653e-13
2.57654e-13
7.01175e-14
1.86609e-14
4.85814e-15
1.23766e-15
3.08875e-16
7.55496e-17
1.81145e-17
4.25836e-18
9.8163e-19
2.21929e-19
4.92154e-20
1.07071e-20
2.28545e-21
4.78686e-22
9.83883e-23
1.98462e-23
3.92882e-24
7.63315e-25
1.45537e-25
2.72295e-26
4.99827e-27
8.99973e-28
1.58894e-28
2.74982e-29
4.66211e-30
7.73996e-31
1.25778e-31
1.99804e-32
3.53474e-05
0.000830601
0.00732131
0.0370963
0.127372
0.31758
0.534964
0.614259
0.636396
0.639384
0.634126
0.612937
0.582719
0.549991
0.509792
0.467761
0.433796
0.417018
0.412044
0.443301
0.49931
0.577086
0.660214
0.738352
0.795168
0.824084
0.836817
0.841991
0.843995
0.833107
0.805695
0.742951
0.6875
0.648258
0.615187
0.595411
0.584428
0.58036
0.579266
0.582537
0.583613
0.583645
0.580087
0.567085
0.535734
0.474507
0.422558
0.396974
0.366305
0.344388
0.329242
0.321666
0.31913
0.325772
0.340768
0.364197
0.386211
0.414628
0.434565
0.455299
0.47922
0.507833
0.559249
0.608353
0.632642
0.643704
0.646978
0.644255
0.625989
0.576361
0.512819
0.464516
0.445091
0.440223
0.442381
0.449322
0.450778
0.449966
0.462889
0.506856
0.540622
0.585209
0.65264
0.726081
0.796817
0.861278
0.913004
0.948238
0.970162
0.983373
0.991111
0.99542
0.997722
0.998889
0.999438
0.999689
0.999822
0.9999
0.999945
0.999971
0.999985
0.999993
0.999996
0.999998
0.999999
1
1
1
1
1
0.999998
0.999993
0.999969
0.999872
0.999505
0.998156
0.993377
0.97694
0.921709
0.758976
0.551595
0.379923
0.250135
0.157715
0.0954174
0.0554916
0.0310763
0.0167865
0.00875983
0.00442237
0.00216264
0.00102556
0.00047205
0.000211063
9.17317e-05
3.87751e-05
1.59484e-05
6.38533e-06
2.48945e-06
9.45377e-07
3.4979e-07
1.26129e-07
4.43336e-08
1.51934e-08
5.07789e-09
1.65544e-09
5.26566e-10
1.63458e-10
4.95318e-11
1.46556e-11
4.23531e-12
1.19578e-12
3.29937e-13
8.89912e-14
2.34707e-14
6.05506e-15
1.52923e-15
3.78337e-16
9.17128e-17
2.1788e-17
5.0737e-18
1.15834e-18
2.59315e-19
5.69338e-20
1.2261e-20
2.59032e-21
5.36905e-22
1.09194e-22
2.17912e-23
4.26732e-24
8.20006e-25
1.54612e-25
2.8601e-26
5.1899e-27
9.23574e-28
1.61134e-28
2.75527e-29
4.61568e-30
7.57457e-31
1.21665e-31
2.50712e-05
0.000368959
0.00403524
0.023558
0.0908932
0.252127
0.504989
0.62711
0.668073
0.681239
0.683073
0.676886
0.661017
0.648973
0.635759
0.62539
0.621461
0.625998
0.635107
0.665039
0.704113
0.742948
0.784406
0.809624
0.824287
0.830469
0.832755
0.827534
0.806317
0.750603
0.689364
0.649047
0.612863
0.592866
0.579181
0.572309
0.569752
0.570238
0.575521
0.578413
0.578909
0.574249
0.55635
0.506806
0.433183
0.37247
0.33167
0.289006
0.249909
0.220997
0.203193
0.194744
0.192369
0.201726
0.217913
0.246646
0.285221
0.33182
0.383737
0.423432
0.447779
0.468408
0.49185
0.535398
0.585781
0.620609
0.63824
0.644792
0.64696
0.633476
0.610929
0.566249
0.52203
0.506968
0.510092
0.529068
0.540665
0.543482
0.550281
0.574119
0.620499
0.673673
0.709504
0.744005
0.794126
0.851502
0.906909
0.946819
0.970493
0.983827
0.991267
0.995385
0.997624
0.998823
0.999433
0.999723
0.999853
0.999916
0.999951
0.999973
0.999985
0.999993
0.999996
0.999998
0.999999
1
1
1
1
1
1
0.999999
0.999998
0.999989
0.999953
0.999807
0.999249
0.99718
0.98974
0.963643
0.873801
0.665024
0.466071
0.310622
0.197612
0.120335
0.0703128
0.0395094
0.0213923
0.0111808
0.00564968
0.00276363
0.00131018
0.000602532
0.000269013
0.00011668
4.91911e-05
2.01675e-05
8.04391e-06
3.12239e-06
1.17992e-06
4.34193e-07
1.55633e-07
5.43526e-08
1.84992e-08
6.13777e-09
1.98569e-09
6.26573e-10
1.92894e-10
5.79532e-11
1.69973e-11
4.86813e-12
1.36195e-12
3.72315e-13
9.94836e-14
2.59915e-14
6.64414e-15
1.66293e-15
4.07619e-16
9.78782e-17
2.30287e-17
5.31005e-18
1.20023e-18
2.6598e-19
5.78001e-20
1.23189e-20
2.57535e-21
5.28168e-22
1.06272e-22
2.09796e-23
4.06369e-24
7.7229e-25
1.43996e-25
2.63377e-26
4.725e-27
8.31228e-28
1.43371e-28
2.42386e-29
4.01692e-30
6.52296e-31
7.75322e-05
0.000115988
0.00160892
0.011521
0.0526553
0.16822
0.400833
0.616417
0.681175
0.705664
0.716664
0.719296
0.717013
0.715393
0.718689
0.723667
0.724207
0.733349
0.754538
0.769384
0.789169
0.806795
0.818445
0.823636
0.825033
0.824274
0.812668
0.778614
0.710386
0.652238
0.616031
0.590702
0.571776
0.563029
0.559179
0.558266
0.561292
0.566797
0.571765
0.573421
0.56993
0.551152
0.505812
0.430709
0.357891
0.301661
0.256055
0.210092
0.176436
0.155068
0.144229
0.13961
0.138904
0.149231
0.163119
0.186648
0.219618
0.261508
0.315017
0.371793
0.424776
0.454032
0.469707
0.489726
0.533993
0.583338
0.608166
0.618224
0.621274
0.623982
0.622523
0.605685
0.581502
0.570869
0.574258
0.58609
0.607763
0.632062
0.653591
0.672169
0.68973
0.703077
0.716085
0.729437
0.746881
0.787729
0.858214
0.924801
0.96371
0.982798
0.991712
0.995939
0.997992
0.998987
0.999493
0.99976
0.999893
0.99995
0.999974
0.999985
0.999991
0.999995
0.999997
0.999999
0.999999
1
1
1
1
1
1
1
1
0.999999
0.999995
0.999978
0.999905
0.999617
0.998505
0.994343
0.979166
0.924997
0.753445
0.533296
0.358075
0.228957
0.139882
0.0819013
0.046074
0.0249586
0.0130438
0.00658709
0.00321863
0.00152341
0.000699086
0.000311278
0.000134571
5.6517e-05
2.30695e-05
9.15605e-06
3.53468e-06
1.32773e-06
4.85425e-07
1.7279e-07
5.98999e-08
2.02289e-08
6.65711e-09
2.1355e-09
6.67959e-10
2.03787e-10
6.06631e-11
1.76254e-11
4.99999e-12
1.38536e-12
3.75032e-13
9.92296e-14
2.56762e-14
6.50179e-15
1.61169e-15
3.91197e-16
9.30019e-17
2.1661e-17
4.94377e-18
1.10593e-18
2.42532e-19
5.21517e-20
1.09975e-20
2.27461e-21
4.61484e-22
9.1851e-23
1.79355e-23
3.436e-24
6.45805e-25
1.19077e-25
2.15382e-26
3.82101e-27
6.64837e-28
1.13436e-28
1.89834e-29
3.11588e-30
0.000574522
2.64157e-05
0.000427217
0.00394201
0.0219576
0.0852343
0.241638
0.508584
0.67006
0.720093
0.743425
0.755795
0.758084
0.756591
0.758039
0.771573
0.787901
0.794927
0.804529
0.814717
0.820524
0.824668
0.825987
0.822506
0.814108
0.792016
0.749948
0.687488
0.634581
0.600331
0.57762
0.560666
0.553046
0.549801
0.548698
0.548897
0.552575
0.559544
0.562743
0.561848
0.553108
0.5206
0.452478
0.369473
0.30104
0.247061
0.200357
0.162124
0.136154
0.122776
0.116042
0.113438
0.114892
0.124129
0.138481
0.159986
0.19169
0.233012
0.287587
0.348535
0.405203
0.44803
0.467545
0.479691
0.497835
0.540067
0.593988
0.610994
0.610206
0.595999
0.580935
0.584815
0.582293
0.578469
0.583328
0.593543
0.609953
0.635451
0.660784
0.680367
0.691586
0.69581
0.690593
0.659036
0.613251
0.613634
0.682072
0.82306
0.917987
0.965519
0.986385
0.994749
0.997927
0.999138
0.999627
0.999834
0.999924
0.999966
0.999986
0.999993
0.999997
0.999998
0.999999
0.999999
1
1
1
1
1
1
1
1
1
1
0.999999
0.999997
0.999987
0.999942
0.999757
0.999021
0.996165
0.985384
0.945665
0.805202
0.575688
0.387714
0.248218
0.151681
0.0887654
0.0498862
0.0269862
0.0140785
0.0070942
0.0034574
0.00163139
0.000745966
0.000330795
0.000142349
5.94768e-05
2.41404e-05
9.52202e-06
3.65149e-06
1.36182e-06
4.94118e-07
1.74478e-07
5.99784e-08
2.00787e-08
6.548e-09
2.08096e-09
6.44695e-10
1.94777e-10
5.74077e-11
1.65125e-11
4.63692e-12
1.27168e-12
3.40736e-13
8.92448e-14
2.28639e-14
5.73148e-15
1.40627e-15
3.37821e-16
7.94769e-17
1.83166e-17
4.13627e-18
9.1544e-19
1.98609e-19
4.22474e-20
8.81263e-21
1.80293e-21
3.61802e-22
7.12239e-23
1.37552e-23
2.60624e-24
4.84467e-25
8.83527e-26
1.58071e-26
2.7745e-27
4.77741e-28
8.07245e-29
1.33895e-29
0.00333937
6.89914e-05
6.20779e-05
0.0008739
0.00653645
0.0319454
0.112462
0.296739
0.575908
0.700664
0.741772
0.762931
0.784648
0.79544
0.797673
0.799886
0.810469
0.824352
0.830483
0.833583
0.8345
0.834484
0.830368
0.822318
0.803563
0.764886
0.709649
0.64522
0.594125
0.570042
0.555621
0.542605
0.538109
0.537921
0.53952
0.542794
0.546846
0.553455
0.5558
0.552564
0.533426
0.491605
0.422348
0.345785
0.280195
0.227976
0.183555
0.15041
0.127367
0.11511
0.105859
0.101513
0.105511
0.115071
0.129593
0.150797
0.18168
0.222619
0.278021
0.341673
0.399289
0.445999
0.479049
0.488256
0.496091
0.5164
0.562011
0.605809
0.612979
0.601674
0.572145
0.561031
0.562797
0.570938
0.585075
0.602905
0.615787
0.634105
0.655599
0.674347
0.68184
0.679804
0.6696
0.632696
0.554627
0.511795
0.515941
0.596004
0.789809
0.908486
0.963635
0.986832
0.995583
0.998587
0.999547
0.999846
0.999943
0.999978
0.999992
0.999997
0.999999
0.999999
1
1
1
1
1
1
1
1
1
1
1
1
1
1
0.999998
0.99999
0.999957
0.999813
0.999223
0.996859
0.987672
0.952955
0.825471
0.592234
0.398387
0.254483
0.155097
0.0905015
0.0507049
0.0273388
0.0142117
0.00713355
0.00346175
0.00162578
0.000739572
0.000326115
0.000139479
5.78936e-05
2.33318e-05
9.13386e-06
3.47473e-06
1.28503e-06
4.62162e-07
1.61702e-07
5.50606e-08
1.82527e-08
5.89301e-09
1.85369e-09
5.6833e-10
1.69901e-10
4.95444e-11
1.40985e-11
3.91652e-12
1.06255e-12
2.8167e-13
7.30014e-14
1.85047e-14
4.58924e-15
1.11392e-15
2.64698e-16
6.15971e-17
1.40411e-17
3.13606e-18
6.86455e-19
1.47291e-19
3.09861e-20
6.39227e-21
1.29332e-21
2.56674e-22
4.99713e-23
9.54473e-24
1.78867e-24
3.28892e-25
5.93383e-26
1.0506e-26
1.82545e-27
3.11386e-28
5.21781e-29
0.0121659
0.000730017
4.32986e-05
0.00011195
0.00121641
0.00786533
0.0350677
0.117144
0.303529
0.587367
0.714687
0.757848
0.781269
0.801553
0.816614
0.826345
0.833424
0.843173
0.847319
0.847338
0.846098
0.844168
0.838788
0.826935
0.807438
0.769246
0.713762
0.648718
0.593123
0.565628
0.550588
0.539029
0.53127
0.527542
0.527262
0.529535
0.534362
0.542213
0.547573
0.546136
0.531455
0.493924
0.428462
0.354903
0.289406
0.236756
0.192061
0.158627
0.134471
0.12169
0.1114
0.109879
0.112183
0.118576
0.13151
0.15581
0.188107
0.229441
0.288587
0.362368
0.417197
0.459483
0.498874
0.520911
0.52335
0.524963
0.551517
0.602536
0.624944
0.624978
0.600621
0.576485
0.576878
0.596778
0.631121
0.672137
0.705307
0.727734
0.741349
0.745767
0.74086
0.723395
0.698663
0.651832
0.562569
0.500066
0.48548
0.501821
0.61148
0.806265
0.916464
0.967638
0.988595
0.99633
0.998917
0.999701
0.999918
0.999976
0.999993
0.999998
0.999999
1
1
1
1
1
1
1
1
1
1
1
1
1
1
1
1
0.999998
0.999992
0.999962
0.999829
0.999267
0.996959
0.98778
0.952464
0.821296
0.585911
0.392039
0.249103
0.151022
0.0876664
0.0488615
0.0262056
0.013548
0.00676126
0.00326107
0.0015216
0.000687403
0.00030089
0.000127692
5.25671e-05
2.10028e-05
8.14799e-06
3.07055e-06
1.12448e-06
4.00338e-07
1.38618e-07
4.66985e-08
1.53128e-08
4.88936e-09
1.52083e-09
4.61027e-10
1.36261e-10
3.92829e-11
1.10511e-11
3.03499e-12
8.14099e-13
2.13404e-13
5.46896e-14
1.37072e-14
3.36115e-15
8.06617e-16
1.89507e-16
4.36006e-17
9.8263e-18
2.16985e-18
4.69591e-19
9.96215e-20
2.07214e-20
4.22666e-21
8.45589e-22
1.65945e-22
3.19499e-23
6.03557e-24
1.11884e-24
2.03543e-25
3.6347e-26
6.37169e-27
1.09698e-27
1.85644e-28
0.0241353
0.00447862
0.000222272
5.38152e-05
0.000150351
0.00125776
0.0074529
0.0313525
0.1013
0.26179
0.53094
0.704241
0.76427
0.794241
0.814497
0.828967
0.840663
0.850474
0.858583
0.861375
0.86063
0.857979
0.853761
0.843745
0.823519
0.790546
0.739524
0.674958
0.610421
0.573124
0.553792
0.540933
0.531815
0.525831
0.522477
0.520315
0.520224
0.52226
0.526183
0.527695
0.52328
0.502609
0.454154
0.386688
0.320661
0.266729
0.220919
0.186114
0.1591
0.144475
0.132541
0.13244
0.135769
0.146541
0.162253
0.188967
0.231543
0.274927
0.327632
0.400314
0.456484
0.482336
0.51001
0.546221
0.568123
0.572705
0.579524
0.618997
0.655168
0.659147
0.65067
0.640582
0.648795
0.688943
0.739368
0.781838
0.818659
0.8526
0.88257
0.904424
0.912614
0.903194
0.862959
0.764911
0.628612
0.524569
0.487509
0.492342
0.556331
0.745699
0.884841
0.952865
0.982194
0.993714
0.997922
0.99936
0.999818
0.999952
0.999988
0.999997
0.999999
1
1
1
1
1
1
1
1
1
1
1
1
1
1
1
1
1
0.999998
0.999992
0.999962
0.999825
0.999226
0.996706
0.986503
0.946724
0.800322
0.564226
0.374365
0.236033
0.142037
0.0818565
0.0452974
0.0241186
0.0123765
0.00612908
0.00293242
0.00135676
0.000607555
0.000263499
0.000110754
4.51405e-05
1.78494e-05
6.85069e-06
2.55326e-06
9.2448e-07
3.25335e-07
1.11323e-07
3.70556e-08
1.20041e-08
3.78631e-09
1.16334e-09
3.48339e-10
1.01695e-10
2.89598e-11
8.048e-12
2.18378e-12
5.78846e-13
1.49945e-13
3.79741e-14
9.40576e-15
2.27933e-15
5.406e-16
1.25528e-16
2.85449e-17
6.35867e-18
1.38793e-18
2.9692e-19
6.22703e-20
1.28051e-20
2.58245e-21
5.1086e-22
9.91448e-23
1.88798e-23
3.52831e-24
6.47196e-25
1.16552e-25
2.0611e-26
3.58073e-27
6.1181e-28