/*--------------------------------*- C++ -*----------------------------------*\
  =========                 |
  \\      /  F ield         | OpenFOAM: The Open Source CFD Toolbox
   \\    /   O peration     | Website:  https://openfoam.org
    \\  /    A nd           | Version:  7
     \\/     M anipulation  |
\*---------------------------------------------------------------------------*/
FoamFile
{
    version     2.0;
    format      ascii;
    class       volVectorField;
    location    "0.045";
    object      U_0;
}
// * * * * * * * * * * * * * * * * * * * * * * * * * * * * * * * * * * * * * //

dimensions      [0 1 -1 0 0 0 0];

internalField   nonuniform List<vector> 
12225
(
(4.85907 0.155756 0)
(4.2625 0.113855 0)
(3.74759 0.102388 0)
(3.32067 0.0873823 0)
(2.95451 0.0728135 0)
(2.62879 0.062713 0)
(2.31823 0.0588629 0)
(2.01081 0.0558499 0)
(1.71491 0.0479427 0)
(1.44839 0.0361813 0)
(1.22221 0.0244229 0)
(1.03846 0.0154449 0)
(0.885504 0.00977432 0)
(0.761373 0.00656067 0)
(0.646245 0.00486394 0)
(0.559459 0.0036691 0)
(0.455055 0.00380792 0)
(0.394501 -0.0073648 0)
(5.10003 0.0941246 0)
(4.93301 0.0858766 0)
(4.75198 0.110913 0)
(4.6139 0.105446 0)
(4.50656 0.0975374 0)
(4.40038 0.0956389 0)
(4.27431 0.0985008 0)
(4.12721 0.103915 0)
(3.97188 0.108034 0)
(3.82306 0.106272 0)
(3.68145 0.0991422 0)
(3.54418 0.0908374 0)
(3.39866 0.0840214 0)
(3.25415 0.0779854 0)
(3.09832 0.0731766 0)
(2.96381 0.0682587 0)
(2.80298 0.0682507 0)
(2.67018 0.0647663 0)
(5.02133 0.159019 0)
(4.91181 0.139806 0)
(4.80584 0.157184 0)
(4.73676 0.143577 0)
(4.69523 0.125934 0)
(4.67422 0.120193 0)
(4.66102 0.127385 0)
(4.6447 0.138466 0)
(4.62092 0.142256 0)
(4.58976 0.134626 0)
(4.55227 0.122202 0)
(4.50925 0.114315 0)
(4.45977 0.112943 0)
(4.40186 0.115417 0)
(4.33402 0.11697 0)
(4.25593 0.1171 0)
(4.17253 0.121644 0)
(4.07484 0.124141 0)
(5.03235 0.181944 0)
(4.94189 0.141229 0)
(4.8581 0.159897 0)
(4.78854 0.150131 0)
(4.73416 0.129354 0)
(4.70589 0.114603 0)
(4.70756 0.113184 0)
(4.72799 0.121029 0)
(4.75035 0.127364 0)
(4.75961 0.126833 0)
(4.75184 0.122335 0)
(4.7322 0.1195 0)
(4.71082 0.120919 0)
(4.68933 0.125211 0)
(4.66857 0.130223 0)
(4.63941 0.135303 0)
(4.60743 0.143624 0)
(4.56336 0.152778 0)
(5.08802 0.187219 0)
(4.96244 0.165724 0)
(4.85682 0.177288 0)
(4.78822 0.17046 0)
(4.76594 0.147233 0)
(4.77708 0.121964 0)
(4.80016 0.110877 0)
(4.81818 0.115481 0)
(4.82269 0.125362 0)
(4.81 0.131359 0)
(4.78402 0.131855 0)
(4.75451 0.130119 0)
(4.73241 0.129995 0)
(4.72021 0.132901 0)
(4.71624 0.138753 0)
(4.7117 0.14674 0)
(4.70604 0.158042 0)
(4.69363 0.17103 0)
(4.92198 0.221927 0)
(4.87406 0.184603 0)
(4.82731 0.18831 0)
(4.79135 0.175594 0)
(4.77681 0.142722 0)
(4.77899 0.112462 0)
(4.78783 0.104707 0)
(4.79364 0.117867 0)
(4.79214 0.13633 0)
(4.78256 0.147103 0)
(4.76778 0.147397 0)
(4.75314 0.141499 0)
(4.74382 0.135451 0)
(4.74091 0.13291 0)
(4.74307 0.135156 0)
(4.74569 0.141971 0)
(4.74761 0.153326 0)
(4.74609 0.167448 0)
(5.04874 0.224392 0)
(4.97884 0.213715 0)
(4.91292 0.207764 0)
(4.86854 0.190756 0)
(4.84912 0.154908 0)
(4.83529 0.118309 0)
(4.82027 0.101685 0)
(4.81091 0.108189 0)
(4.81298 0.124944 0)
(4.82171 0.138289 0)
(4.82728 0.14295 0)
(4.82395 0.140902 0)
(4.81265 0.136935 0)
(4.79786 0.135138 0)
(4.78398 0.1378 0)
(4.77249 0.145562 0)
(4.76441 0.158053 0)
(4.7585 0.173299 0)
(4.91472 0.28505 0)
(4.88712 0.215455 0)
(4.8961 0.200865 0)
(4.89742 0.183482 0)
(4.9001 0.151123 0)
(4.89922 0.123538 0)
(4.88856 0.11469 0)
(4.8696 0.121871 0)
(4.85011 0.134522 0)
(4.83449 0.14421 0)
(4.82163 0.148414 0)
(4.81005 0.14858 0)
(4.80035 0.147197 0)
(4.79367 0.146354 0)
(4.7913 0.147828 0)
(4.79157 0.152499 0)
(4.79528 0.160858 0)
(4.79831 0.172228 0)
(4.93261 0.284068 0)
(4.99395 0.209839 0)
(5.01627 0.198803 0)
(5.01761 0.189958 0)
(4.98689 0.163098 0)
(4.93492 0.133475 0)
(4.88633 0.11945 0)
(4.85566 0.124198 0)
(4.84466 0.137823 0)
(4.8465 0.149427 0)
(4.85293 0.154027 0)
(4.85819 0.152066 0)
(4.86085 0.146749 0)
(4.8608 0.141532 0)
(4.85935 0.139865 0)
(4.85687 0.14332 0)
(4.85458 0.152866 0)
(4.85191 0.167632 0)
(5.12435 0.217342 0)
(5.03668 0.214941 0)
(4.94277 0.203432 0)
(4.90049 0.192501 0)
(4.89407 0.177504 0)
(4.89422 0.159273 0)
(4.88843 0.145326 0)
(4.87982 0.139859 0)
(4.87608 0.140535 0)
(4.87966 0.142647 0)
(4.8876 0.14377 0)
(4.89523 0.144078 0)
(4.8995 0.144585 0)
(4.89844 0.146341 0)
(4.89159 0.149914 0)
(4.88016 0.156042 0)
(4.86614 0.164851 0)
(4.85267 0.176484 0)
(4.8884 0.244839 0)
(4.89035 0.243633 0)
(4.93373 0.229379 0)
(4.94964 0.19931 0)
(4.93428 0.169045 0)
(4.91093 0.145819 0)
(4.89571 0.133384 0)
(4.89203 0.130905 0)
(4.89687 0.134701 0)
(4.90489 0.14011 0)
(4.91214 0.143905 0)
(4.91731 0.145495 0)
(4.92091 0.146254 0)
(4.92263 0.148255 0)
(4.92196 0.153029 0)
(4.9169 0.161053 0)
(4.90883 0.172099 0)
(4.89658 0.184957 0)
(4.96522 0.292577 0)
(4.97056 0.224522 0)
(4.99756 0.202656 0)
(4.99689 0.199265 0)
(4.96743 0.188402 0)
(4.93206 0.168643 0)
(4.90578 0.149458 0)
(4.88874 0.138566 0)
(4.8774 0.136207 0)
(4.87026 0.13768 0)
(4.86754 0.138957 0)
(4.8694 0.139276 0)
(4.87549 0.140423 0)
(4.88374 0.144617 0)
(4.89295 0.153087 0)
(4.9004 0.165379 0)
(4.90712 0.180061 0)
(4.91093 0.195167 0)
(4.90676 0.25927 0)
(5.00808 0.19019 0)
(5.03812 0.19057 0)
(5.00534 0.205593 0)
(4.95365 0.203595 0)
(4.91471 0.18401 0)
(4.89918 0.160525 0)
(4.89931 0.145644 0)
(4.90541 0.141234 0)
(4.91281 0.141598 0)
(4.92018 0.141476 0)
(4.92652 0.139533 0)
(4.93085 0.137456 0)
(4.93317 0.137541 0)
(4.93434 0.141625 0)
(4.93538 0.149926 0)
(4.93746 0.161738 0)
(4.93981 0.17597 0)
(5.11648 0.208138 0)
(5.07731 0.201661 0)
(5.02518 0.231559 0)
(4.98362 0.251269 0)
(4.97294 0.231057 0)
(4.9731 0.188742 0)
(4.96633 0.151843 0)
(4.95194 0.133509 0)
(4.94032 0.129869 0)
(4.94071 0.131423 0)
(4.95513 0.132687 0)
(4.97802 0.133906 0)
(5.0015 0.137285 0)
(5.01859 0.14434 0)
(5.02574 0.15499 0)
(5.02272 0.167923 0)
(5.01225 0.182493 0)
(4.99675 0.196693 0)
(4.95786 0.298011 0)
(4.95438 0.231447 0)
(4.96919 0.21667 0)
(5.00053 0.21887 0)
(5.02362 0.208415 0)
(5.0138 0.195245 0)
(4.98255 0.184567 0)
(4.95355 0.171136 0)
(4.93886 0.150954 0)
(4.9381 0.126405 0)
(4.94688 0.104521 0)
(4.96065 0.0927093 0)
(4.9761 0.0942894 0)
(4.99008 0.108543 0)
(5.00063 0.131187 0)
(5.00594 0.157188 0)
(5.00699 0.182436 0)
(5.00454 0.20312 0)
(4.96533 0.298546 0)
(4.99211 0.229198 0)
(4.98915 0.213011 0)
(4.99251 0.221527 0)
(5.00452 0.223973 0)
(5.01379 0.212786 0)
(5.02366 0.189206 0)
(5.03892 0.162482 0)
(5.05297 0.141074 0)
(5.05748 0.126848 0)
(5.05142 0.118065 0)
(5.03938 0.114211 0)
(5.02692 0.116608 0)
(5.01759 0.127021 0)
(5.0132 0.144869 0)
(5.01257 0.167065 0)
(5.01539 0.189683 0)
(5.01905 0.20815 0)
(4.99101 0.271532 0)
(4.97802 0.215637 0)
(4.97221 0.188461 0)
(4.99834 0.191867 0)
(5.04212 0.192868 0)
(5.07199 0.181316 0)
(5.07618 0.163787 0)
(5.06261 0.148243 0)
(5.0421 0.137194 0)
(5.02288 0.129324 0)
(5.0096 0.122851 0)
(5.00257 0.117843 0)
(5.00054 0.116211 0)
(5.00199 0.120258 0)
(5.00753 0.13071 0)
(5.01687 0.146138 0)
(5.031 0.163606 0)
(5.04835 0.180298 0)
(4.98594 0.318586 0)
(4.98562 0.273161 0)
(4.98134 0.188026 0)
(4.9828 0.143418 0)
(4.99518 0.141649 0)
(5.01186 0.163987 0)
(5.02379 0.190688 0)
(5.03108 0.203433 0)
(5.03669 0.195745 0)
(5.04217 0.174204 0)
(5.04762 0.150032 0)
(5.05242 0.131631 0)
(5.05671 0.122168 0)
(5.06085 0.120959 0)
(5.06624 0.124748 0)
(5.0734 0.13086 0)
(5.08372 0.136246 0)
(5.09608 0.14066 0)
(4.99774 0.252029 0)
(5.04435 0.211594 0)
(5.05657 0.183704 0)
(5.05692 0.175885 0)
(5.04745 0.167252 0)
(5.04162 0.152313 0)
(5.0449 0.136808 0)
(5.05788 0.123318 0)
(5.07881 0.112063 0)
(5.10291 0.103071 0)
(5.12461 0.0965492 0)
(5.14072 0.0928487 0)
(5.152 0.0919365 0)
(5.16094 0.0933049 0)
(5.17053 0.096072 0)
(5.18172 0.099662 0)
(5.1954 0.103413 0)
(5.20999 0.107683 0)
(5.06687 0.221561 0)
(5.06002 0.196363 0)
(5.0536 0.178506 0)
(5.0569 0.161844 0)
(5.07462 0.160757 0)
(5.0971 0.164135 0)
(5.10898 0.156597 0)
(5.11486 0.13486 0)
(5.12454 0.107847 0)
(5.13857 0.0871937 0)
(5.15242 0.0784155 0)
(5.1623 0.0792429 0)
(5.16702 0.0834822 0)
(5.16768 0.0855681 0)
(5.16663 0.0831276 0)
(5.16673 0.0780918 0)
(5.16942 0.0726861 0)
(5.17635 0.0716353 0)
(5.06079 0.269221 0)
(5.02106 0.24715 0)
(5.02283 0.188513 0)
(5.01859 0.130263 0)
(5.02794 0.115831 0)
(5.05493 0.125135 0)
(5.08885 0.126133 0)
(5.12076 0.108125 0)
(5.14726 0.0805156 0)
(5.16655 0.0592147 0)
(5.17887 0.0535137 0)
(5.18652 0.0617688 0)
(5.19179 0.0753819 0)
(5.19549 0.0858748 0)
(5.19806 0.0880621 0)
(5.1999 0.0824563 0)
(5.20249 0.0712068 0)
(5.20633 0.059262 0)
(4.99671 0.340534 0)
(5.01814 0.228241 0)
(5.04307 0.186947 0)
(5.04826 0.15877 0)
(5.06037 0.12581 0)
(5.09073 0.0964763 0)
(5.13036 0.0748181 0)
(5.1685 0.0598504 0)
(5.19834 0.0508632 0)
(5.21713 0.0487567 0)
(5.22702 0.0542233 0)
(5.23356 0.0652219 0)
(5.24201 0.0769448 0)
(5.25433 0.0845031 0)
(5.2703 0.0849927 0)
(5.28769 0.0790989 0)
(5.3056 0.0686636 0)
(5.32156 0.0576685 0)
(4.94082 0.227419 0)
(4.96216 0.200565 0)
(5.00375 0.153512 0)
(5.04893 0.107697 0)
(5.09479 0.0760092 0)
(5.13431 0.0560355 0)
(5.16626 0.0404675 0)
(5.19387 0.028121 0)
(5.2187 0.0216063 0)
(5.23985 0.0223839 0)
(5.25689 0.029133 0)
(5.27036 0.037315 0)
(5.28137 0.0424714 0)
(5.29065 0.0420222 0)
(5.29916 0.0358391 0)
(5.30749 0.0262808 0)
(5.31668 0.0156597 0)
(5.32699 0.0075712 0)
(5.03288 0.2357 0)
(5.06739 0.187772 0)
(5.09759 0.143361 0)
(5.12469 0.110721 0)
(5.14931 0.0776411 0)
(5.17387 0.0470007 0)
(5.19897 0.0258054 0)
(5.22446 0.0141704 0)
(5.24886 0.0106679 0)
(5.27049 0.0156101 0)
(5.28837 0.0274086 0)
(5.30343 0.0432096 0)
(5.31832 0.0577829 0)
(5.33477 0.0661765 0)
(5.35328 0.0654962 0)
(5.37277 0.0566286 0)
(5.39242 0.0417142 0)
(5.40984 0.0256222 0)
(4.9542 0.245506 0)
(5.06007 0.142368 0)
(5.1359 0.091058 0)
(5.21344 0.0552105 0)
(5.26893 0.0285502 0)
(5.28903 0.00742223 0)
(5.28863 -0.00830334 0)
(5.28702 -0.017297 0)
(5.29149 -0.0190071 0)
(5.29833 -0.0135088 0)
(5.30463 -0.00380719 0)
(5.31202 0.00518348 0)
(5.32294 0.0089069 0)
(5.33873 0.00543624 0)
(5.35896 -0.00372041 0)
(5.38093 -0.0147573 0)
(5.40306 -0.0243561 0)
(5.42218 -0.0296461 0)
(5.03559 0.181285 0)
(5.10143 0.118067 0)
(5.18044 0.09377 0)
(5.23119 0.0638282 0)
(5.25459 0.0460229 0)
(5.27162 0.0377688 0)
(5.29483 0.0247625 0)
(5.31937 0.00970853 0)
(5.33778 0.00204363 0)
(5.35085 0.00524 0)
(5.36485 0.0165773 0)
(5.38544 0.0282833 0)
(5.41458 0.0339996 0)
(5.44942 0.0315551 0)
(5.4856 0.0222173 0)
(5.51873 0.00934757 0)
(5.54684 -0.00412179 0)
(5.56882 -0.0150803 0)
(5.07984 0.212218 0)
(5.16529 0.056425 0)
(5.27562 0.0199572 0)
(5.32526 0.0105327 0)
(5.3422 -0.00531626 0)
(5.35601 -0.0241994 0)
(5.37349 -0.0375348 0)
(5.3892 -0.0418261 0)
(5.39991 -0.0376428 0)
(5.41149 -0.030409 0)
(5.43267 -0.0263223 0)
(5.46668 -0.0281983 0)
(5.50981 -0.0354824 0)
(5.55464 -0.0455513 0)
(5.59371 -0.0552852 0)
(5.62238 -0.0625728 0)
(5.63989 -0.0664452 0)
(5.64731 -0.0665147 0)
(4.87167 0.125272 0)
(5.10769 0.0687509 0)
(5.25692 0.0687801 0)
(5.33243 0.0482267 0)
(5.38002 0.0282713 0)
(5.41783 0.0146784 0)
(5.44989 0.00496579 0)
(5.47713 -0.00320243 0)
(5.50275 -0.00958087 0)
(5.53074 -0.0142188 0)
(5.56295 -0.0184737 0)
(5.59729 -0.0231197 0)
(5.62903 -0.0272291 0)
(5.6537 -0.0296113 0)
(5.66903 -0.0298303 0)
(5.67596 -0.0285158 0)
(5.67707 -0.0267417 0)
(5.67604 -0.025718 0)
(5.01343 -0.0174137 0)
(5.1612 -0.0732637 0)
(5.33182 -0.0369179 0)
(5.41808 -0.0406868 0)
(5.46713 -0.0506529 0)
(5.50532 -0.057476 0)
(5.53534 -0.0619044 0)
(5.55321 -0.0630588 0)
(5.55948 -0.0617916 0)
(5.55936 -0.0605699 0)
(5.55729 -0.0613595 0)
(5.55453 -0.064092 0)
(5.54956 -0.0670547 0)
(5.54153 -0.068619 0)
(5.53005 -0.0682319 0)
(5.51707 -0.066504 0)
(5.5028 -0.0644615 0)
(5.48997 -0.062912 0)
(4.98864 0.0914983 0)
(5.09209 0.00405385 0)
(5.04937 -0.000122551 0)
(4.93516 -0.00817544 0)
(4.8229 -0.0121738 0)
(4.71264 -0.0136744 0)
(4.60156 -0.0145069 0)
(4.49229 -0.0146854 0)
(4.38802 -0.0150365 0)
(4.28826 -0.0166746 0)
(4.1891 -0.0195651 0)
(4.08757 -0.0222869 0)
(3.98392 -0.0231951 0)
(3.88256 -0.0218075 0)
(3.78719 -0.0189712 0)
(3.70127 -0.0161846 0)
(3.62248 -0.0145394 0)
(3.55149 -0.0141766 0)
(-0.00892057 -0.00353415 1.46882e-20)
(0.0582963 -0.0847982 -1.45807e-20)
(0.179391 -0.131473 0)
(0.313636 -0.149885 0)
(0.454519 -0.154873 0)
(0.597647 -0.154678 1.41056e-20)
(0.741388 -0.152863 0)
(0.885294 -0.150598 0)
(1.02927 -0.147917 0)
(1.17296 -0.144411 0)
(1.31531 -0.139452 -1.34487e-20)
(1.45446 -0.132263 0)
(1.58755 -0.121977 0)
(1.71095 -0.10781 0)
(1.81982 -0.0890006 0)
(1.90927 -0.0649754 -1.27733e-20)
(1.97273 -0.035527 0)
(2.00617 -0.000592309 0)
(2.00295 0.0389331 0)
(1.95682 0.0822806 0)
(1.8667 0.125578 0)
(1.73134 0.167971 0)
(1.55623 0.203518 0)
(1.34716 0.229996 -1.2074e-20)
(1.11241 0.24617 1.20116e-20)
(0.876473 0.229302 -1.19444e-20)
(0.606323 0.227326 -1.18693e-20)
(0.437297 0.14007 0)
(0.364971 0.000891604 0)
(0.155453 -0.0175504 1.16029e-20)
(0.198101 -0.125868 1.15003e-20)
(0.417434 -0.231331 0)
(0.605693 -0.433062 0)
(0.632236 -0.663202 1.11856e-20)
(0.621877 -0.51865 0)
(0.459772 0.0287246 0)
(-0.0317354 0.416336 -1.08932e-20)
(-0.525617 0.432622 0)
(-1.00633 0.421578 -1.06629e-20)
(-1.46637 0.405936 -2.1029e-20)
(-1.90799 0.387729 0)
(-2.32634 0.366361 0)
(-2.72045 0.343112 0)
(-3.08765 0.317519 0)
(-3.42584 0.289839 0)
(-3.73223 0.259948 -1.89271e-20)
(-4.00436 0.228172 -1.8586e-20)
(-4.23985 0.194916 -1.82619e-20)
(-4.43691 0.160891 0)
(-4.59441 0.126914 1.76789e-20)
(-4.71245 0.0937832 0)
(-4.7922 0.0623868 -1.71979e-20)
(-4.83549 0.0338724 -1.69972e-20)
(-4.84419 0.00932297 0)
(-4.8225 -0.0110084 0)
(-4.77767 -0.0278838 0)
(-4.71012 -0.0414818 -1.64252e-20)
(-4.62599 -0.0519534 0)
(-4.52843 -0.0595565 0)
(-4.42185 -0.0642991 0)
(-4.30998 -0.0666236 0)
(-4.19597 -0.0667773 0)
(-4.08267 -0.0652715 0)
(-3.97196 -0.0625898 0)
(-3.86526 -0.0591826 0)
(-3.76315 -0.0555167 1.57692e-20)
(-3.66573 -0.0519872 0)
(-3.57244 -0.048964 0)
(-3.48224 -0.0467756 -1.55585e-20)
(-3.39347 -0.045715 -1.54854e-20)
(-3.30407 -0.0459745 0)
(-3.21174 -0.0475959 1.53378e-20)
(-3.11425 -0.050442 -1.52645e-20)
(-3.00971 -0.0542253 0)
(-2.89684 -0.0585795 1.51209e-20)
(-2.77501 -0.0631676 0)
(-2.64396 -0.0677711 0)
(-2.50364 -0.0723095 -1.49152e-20)
(-2.35398 -0.0767909 0)
(-2.19489 -0.0812241 1.47853e-20)
(-2.02628 -0.0855191 0)
(-1.84848 -0.089389 -1.46585e-20)
(-1.66264 -0.0923603 -1.45932e-20)
(-1.47087 -0.0939768 -1.45242e-20)
(-1.27586 -0.0939984 -2.88998e-20)
(-1.08052 -0.0923843 2.87378e-20)
(-0.887693 -0.0892953 0)
(-0.700026 -0.0850179 0)
(-0.51963 -0.0798907 0)
(-0.347955 -0.0742618 2.79411e-20)
(-0.185863 -0.068348 2.7708e-20)
(-0.0345286 -0.0624429 -2.74625e-20)
(0.106013 -0.0568143 0)
(0.236769 -0.0512748 2.69305e-20)
(0.357893 -0.0459653 2.6654e-20)
(0.469656 -0.0409274 2.63736e-20)
(0.572425 -0.0361803 0)
(0.666606 -0.0317309 0)
(0.752627 -0.0275788 0)
(0.830921 -0.0237181 2.52308e-20)
(0.901915 -0.0201397 0)
(0.966028 -0.0168324 0)
(1.02366 -0.0137851 -2.437e-20)
(1.07521 -0.0109883 0)
(1.12105 -0.00843455 0)
(1.16156 -0.00611834 -2.35185e-20)
(1.1971 -0.00403518 0)
(1.22806 -0.00218046 0)
(1.2548 -0.00054704 2.2682e-20)
(1.27771 0.000874381 2.24071e-20)
(1.29716 0.00209576 0)
(1.31351 0.00313553 -2.18635e-20)
(1.32713 0.00401147 0)
(1.33833 0.00474231 2.13284e-20)
(1.34741 0.00535623 0)
(1.35463 0.00586347 2.0802e-20)
(1.36023 0.0062821 2.0542e-20)
(1.36435 0.00663868 0)
(1.36721 0.00692129 0)
(1.36887 0.00715841 0)
(1.36941 0.00737823 0)
(1.36896 0.0075311 0)
(1.36761 0.00758963 0)
(1.36545 0.00756582 0)
(1.36261 0.00746502 1.85353e-20)
(1.35922 0.00728486 -1.82931e-20)
(1.35541 0.00703345 0)
(1.3513 0.00672508 0)
(1.34701 0.00637505 0)
(1.34265 0.00599807 0)
(1.33827 0.0056063 -3.42169e-20)
(1.33397 0.00521025 0)
(1.32977 0.00482071 3.32927e-20)
(1.32571 0.00444727 -3.28354e-20)
(1.32181 0.0040954 0)
(1.31807 0.00376626 0)
(1.31449 0.00345855 0)
(1.31108 0.00316935 3.10373e-20)
(1.30784 0.00289554 3.05953e-20)
(1.30475 0.00263742 0)
(1.30178 0.00239573 2.972e-20)
(1.2989 0.0021767 2.92866e-20)
(1.29611 0.00198224 -2.8856e-20)
(1.29338 0.00180956 0)
(1.29072 0.00165637 0)
(1.28812 0.00152049 -2.75804e-20)
(1.28557 0.00139978 0)
(1.28307 0.00129242 0)
(1.28062 0.00119706 0)
(1.27821 0.00111445 0)
(1.27583 0.00104516 2.55066e-20)
(1.27347 0.000989877 2.50994e-20)
(1.27111 0.000947818 0)
(1.26875 0.000917443 2.42923e-20)
(1.26636 0.000896941 0)
(1.26393 0.000884506 0)
(1.26145 0.000879253 2.30997e-20)
(1.25892 0.00088065 0)
(1.2563 0.000888984 2.23163e-20)
(1.2536 0.000904386 0)
(1.25077 0.0009284 0)
(1.24783 0.000961451 2.11586e-20)
(1.24466 0.00100734 0)
(1.24136 0.00106619 2.0398e-20)
(1.23768 0.00114693 0)
(1.23383 0.00124735 0)
(1.22931 0.00138759 0)
(1.22461 0.00155218 -1.89042e-20)
(1.21872 0.00179471 0)
(1.21264 0.00205838 1.81713e-20)
(1.20449 0.00249161 0)
(1.19602 0.00290611 0)
(1.18422 0.0037426 0)
(1.17098 0.00434664 0)
(1.15387 0.00616531 0)
(1.12923 0.00681135 0)
(1.1071 0.0114735 0)
(1.0496 0.0111514 -3.07135e-20)
(1.03653 0.0252368 0)
(0.869141 0.0179623 0)
(0.0180397 -0.0978122 -4.40543e-20)
(0.121163 -0.317142 4.37168e-20)
(0.240865 -0.409949 0)
(0.360031 -0.437614 -2.86707e-20)
(0.480056 -0.442065 0)
(0.60284 -0.44074 -1.41004e-20)
(0.729399 -0.439172 2.79297e-20)
(0.86014 -0.438104 2.76707e-20)
(0.99475 -0.436385 0)
(1.13258 -0.432193 2.7134e-20)
(1.27221 -0.423388 1.34456e-20)
(1.41176 -0.407685 0)
(1.54831 -0.382417 0)
(1.6779 -0.345211 0)
(1.79587 -0.294002 0)
(1.89606 -0.227389 1.27715e-20)
(1.97327 -0.145329 0)
(2.01982 -0.0497821 -2.49844e-20)
(2.03375 0.0565019 0)
(2.01252 0.167987 0)
(1.95507 0.278085 2.44269e-20)
(1.85998 0.380235 0)
(1.73256 0.465526 -2.4169e-20)
(1.57795 0.535058 1.2061e-20)
(1.40281 0.566473 -1.19965e-20)
(1.23395 0.59662 1.19273e-20)
(1.05965 0.54569 1.18506e-20)
(0.911485 0.305143 0)
(0.678894 0.385617 0)
(0.661232 0.354055 -1.15887e-20)
(0.73843 -0.314732 1.15553e-20)
(0.45893 -0.55276 0)
(0.113867 0.129061 0)
(-0.550534 0.62761 -1.11861e-20)
(-1.1577 0.830577 0)
(-1.58715 0.997183 0)
(-1.97976 1.07262 1.08411e-20)
(-2.32776 1.05502 0)
(-2.67387 1.02389 -1.04499e-20)
(-2.99739 0.971398 2.09379e-20)
(-3.30554 0.913837 0)
(-3.59075 0.850919 0)
(-3.85507 0.785201 3.9552e-20)
(-4.09554 0.716622 3.88606e-20)
(-4.31191 0.645056 3.81727e-20)
(-4.50236 0.570499 -1.86119e-20)
(-4.66616 0.493134 1.85522e-20)
(-4.80255 0.413769 5.44643e-20)
(-4.91168 0.333598 -3.56519e-20)
(-4.99387 0.254092 -1.7661e-20)
(-5.04964 0.176715 0)
(-5.07969 0.103088 1.71871e-20)
(-5.08542 0.0350332 -1.68361e-20)
(-5.06894 -0.0258467 0)
(-5.031 -0.0790652 0)
(-4.97026 -0.124254 0)
(-4.89243 -0.16105 1.64174e-20)
(-4.79853 -0.189299 0)
(-4.69292 -0.209233 -3.24017e-20)
(-4.57879 -0.221281 0)
(-4.45979 -0.226392 -3.21331e-20)
(-4.33937 -0.225716 0)
(-4.22014 -0.22067 3.18914e-20)
(-4.10431 -0.212683 0)
(-3.993 -0.203076 -3.16467e-20)
(-3.88675 -0.19303 1.57547e-20)
(-3.78533 -0.18359 0)
(-3.68807 -0.17574 3.12446e-20)
(-3.59378 -0.170412 1.55535e-20)
(-3.50075 -0.168427 1.54806e-20)
(-3.40676 -0.170298 0)
(-3.3093 -0.176058 1.53197e-20)
(-3.20595 -0.185219 1.526e-20)
(-3.09473 -0.196895 0)
(-2.97442 -0.210018 -1.51164e-20)
(-2.84463 -0.223635 3.00683e-20)
(-2.70548 -0.23717 0)
(-2.55722 -0.250493 1.49108e-20)
(-2.39986 -0.263768 0)
(-2.23313 -0.277165 -4.43091e-20)
(-2.05657 -0.290475 0)
(-1.87013 -0.302777 4.39314e-20)
(-1.67481 -0.312502 1.4589e-20)
(-1.47294 -0.318104 -1.44968e-20)
(-1.26758 -0.318796 -2.88535e-20)
(-1.06197 -0.31443 2.86993e-20)
(-0.859252 -0.305507 0)
(-0.662134 -0.292981 0)
(-0.472695 -0.277906 0)
(-0.292227 -0.261309 -8.37975e-20)
(-0.121455 -0.244 -2.77054e-20)
(0.0384051 -0.226984 2.74575e-20)
(0.187851 -0.210366 0)
(0.328123 -0.194248 2.69137e-20)
(0.459134 -0.178835 -2.66465e-20)
(0.581304 -0.164217 -2.63662e-20)
(0.695073 -0.150428 0)
(0.800909 -0.137471 0)
(0.899298 -0.125331 0)
(0.990725 -0.11398 -2.52234e-20)
(1.07566 -0.103386 0)
(1.15454 -0.0935113 4.92933e-20)
(1.22778 -0.0843182 7.30828e-20)
(1.29573 -0.075772 -4.815e-20)
(1.35872 -0.0678426 0)
(1.41705 -0.0605066 -2.3507e-20)
(1.47102 -0.0537471 0)
(1.52088 -0.0475536 -4.58971e-20)
(1.56693 -0.0419176 2.26703e-20)
(1.60945 -0.0368297 2.23952e-20)
(1.64875 -0.0322765 0)
(1.68513 -0.0282355 6.55576e-20)
(1.71892 -0.0246763 -4.31668e-20)
(1.75042 -0.0215614 -2.13175e-20)
(1.77992 -0.0188405 0)
(1.8077 -0.0164643 -2.07905e-20)
(1.834 -0.0143809 -6.15895e-20)
(1.85904 -0.0125302 0)
(1.88295 -0.0108721 -4.00311e-20)
(1.9059 -0.00936227 -3.95232e-20)
(1.928 -0.00795504 -3.90193e-20)
(1.94929 -0.00665034 0)
(1.96982 -0.0054675 0)
(1.98959 -0.00440532 0)
(2.00858 -0.00345958 1.85212e-20)
(2.02679 -0.00263822 1.82794e-20)
(2.0442 -0.00194386 0)
(2.06083 -0.00137107 3.55998e-20)
(2.07667 -0.000910962 3.51258e-20)
(2.09174 -0.000550798 0)
(2.10607 -0.00027525 3.41884e-20)
(2.11967 -7.12551e-05 6.74489e-20)
(2.13258 7.33429e-05 -3.32641e-20)
(2.14481 0.000175725 -3.28067e-20)
(2.15639 0.000252907 0)
(2.16734 0.00030925 0)
(2.17767 0.000340251 0)
(2.1874 0.000352261 -3.10094e-20)
(2.19656 0.000368508 3.05676e-20)
(2.20511 0.000408296 6.02575e-20)
(2.21306 0.000473013 -2.96928e-20)
(2.22042 0.000545323 2.92597e-20)
(2.2272 0.000609003 2.88294e-20)
(2.23342 0.000662711 0)
(2.2391 0.000707405 0)
(2.24425 0.000743492 -2.75549e-20)
(2.24891 0.000770416 0)
(2.25309 0.000787776 0)
(2.25681 0.000797813 5.26084e-20)
(2.2601 0.000809275 0)
(2.26298 0.000820379 2.54832e-20)
(2.26547 0.000833823 -2.50764e-20)
(2.26761 0.000851897 0)
(2.26941 0.000875634 2.42702e-20)
(2.27089 0.000904872 0)
(2.27207 0.00093875 0)
(2.27298 0.000977616 -2.3079e-20)
(2.27362 0.0010223 4.53732e-20)
(2.274 0.00107505 -2.22966e-20)
(2.27415 0.00113817 0)
(2.27405 0.00121714 0)
(2.27373 0.00131419 2.114e-20)
(2.27314 0.00144043 0)
(2.27233 0.00159305 2.03802e-20)
(2.27116 0.00179798 0)
(2.26974 0.00203428 0)
(2.26782 0.00237167 0)
(2.26559 0.00272952 1.88883e-20)
(2.2626 0.00330504 0)
(2.25915 0.00383645 -1.81561e-20)
(2.2546 0.00488101 0)
(2.24911 0.00563586 0)
(2.24234 0.00768213 3.41519e-20)
(2.23292 0.00863239 -3.34432e-20)
(2.22335 0.0129958 0)
(2.20504 0.0138268 0)
(2.19371 0.0239812 0)
(2.15247 0.0236101 9.20455e-20)
(2.14759 0.0490485 0)
(2.04303 0.045021 -5.87035e-20)
(0.0447137 -0.293273 1.4586e-24)
(0.148544 -0.563878 -5.8257e-20)
(0.245157 -0.636254 0)
(0.336497 -0.651394 5.73151e-20)
(0.430255 -0.658348 0)
(0.530329 -0.667667 0)
(0.637585 -0.679049 -2.10961e-23)
(0.75167 -0.690261 -2.76689e-20)
(0.872025 -0.69876 -2.73738e-20)
(0.998068 -0.701824 -2.71337e-20)
(1.12877 -0.696365 0)
(1.26261 -0.678863 0)
(1.39663 -0.644672 2.62238e-20)
(1.52686 -0.589474 5.18532e-20)
(1.64694 -0.509053 -5.12669e-20)
(1.75004 -0.40077 0)
(1.82806 -0.264925 -5.0174e-20)
(1.87372 -0.105873 2.49925e-20)
(1.88194 0.0702703 0)
(1.84776 0.252535 -4.88884e-20)
(1.77008 0.429179 -2.44318e-20)
(1.65333 0.588552 4.83319e-20)
(1.50586 0.719209 2.41738e-20)
(1.34118 0.818471 0)
(1.16245 0.857799 -4.77586e-20)
(0.963559 0.834076 -4.75703e-20)
(0.753057 0.827249 0)
(0.521864 0.845796 -4.71373e-20)
(0.360926 0.431126 0)
(0.357005 -0.131341 -4.6532e-20)
(-0.0745051 0.315909 -2.30537e-20)
(-0.823222 0.876556 0)
(-1.34561 1.15242 0)
(-1.81056 1.32257 0)
(-2.17475 1.41163 0)
(-2.48392 1.49859 0)
(-2.74005 1.52029 0)
(-2.96476 1.49345 -4.22203e-20)
(-3.17945 1.43818 6.26681e-20)
(-3.38481 1.36527 0)
(-3.58942 1.2841 0)
(-3.7884 1.19745 0)
(-3.98167 1.10583 -4.13892e-22)
(-4.16436 1.00918 -3.8837e-20)
(-4.33376 0.90677 -7.59346e-20)
(-4.48634 0.799098 7.46181e-20)
(-4.61989 0.686954 3.65067e-20)
(-4.7326 0.572005 -3.62267e-20)
(-4.82354 0.456237 2.93712e-22)
(-4.89215 0.341988 -3.48471e-20)
(-4.9382 0.231393 0)
(-4.9617 0.126057 -3.39715e-20)
(-4.9634 0.0270269 2.24755e-22)
(-4.94523 -0.064702 0)
(-4.90826 -0.147079 0)
(-4.85346 -0.218319 3.27854e-20)
(-4.78265 -0.277262 0)
(-4.69763 -0.323213 0)
(-4.60069 -0.355872 -3.21826e-20)
(-4.49426 -0.37565 -6.43404e-20)
(-4.38123 -0.383481 3.21304e-20)
(-4.26471 -0.381125 0)
(-4.14791 -0.370914 -3.18884e-20)
(-4.0337 -0.355527 0)
(-3.92427 -0.337562 -3.16067e-20)
(-3.8207 -0.319179 -3.15156e-20)
(-3.72297 -0.302129 6.27459e-20)
(-3.63021 -0.287952 3.12269e-20)
(-3.54104 -0.278186 0)
(-3.4535 -0.274301 -6.18763e-20)
(-3.36505 -0.277325 0)
(-3.27272 -0.287403 -9.19051e-20)
(-3.17358 -0.30366 -6.09453e-20)
(-3.0653 -0.324401 -6.0639e-20)
(-2.94666 -0.347505 6.0338e-20)
(-2.81769 -0.371 -9.01046e-20)
(-2.6792 -0.393706 0)
(-2.53194 -0.415538 0)
(-2.37594 -0.437243 5.91887e-20)
(-2.2103 -0.459648 8.84443e-20)
(-2.03362 -0.482627 0)
(-1.84501 -0.504438 -2.9269e-20)
(-1.64527 -0.521963 0)
(-1.43735 -0.532009 8.69433e-20)
(-1.2255 -0.533128 6.80465e-23)
(-1.01412 -0.525155 -5.55134e-23)
(-0.807104 -0.509112 -5.70245e-20)
(-0.607536 -0.486916 0)
(-0.417432 -0.460625 5.62532e-20)
(-0.237812 -0.432083 2.75093e-23)
(-0.0693436 -0.402746 0)
(0.0875197 -0.374351 0)
(0.233753 -0.346361 0)
(0.370385 -0.319572 -5.3822e-20)
(0.497542 -0.294143 0)
(0.615684 -0.270187 0)
(0.72527 -0.247758 0)
(0.826776 -0.226863 0)
(0.920704 -0.20747 0)
(1.00759 -0.189516 -5.04261e-20)
(1.08801 -0.172914 0)
(1.16255 -0.157556 -4.92875e-20)
(1.23178 -0.143337 -4.87156e-20)
(1.29623 -0.130156 4.81457e-20)
(1.35639 -0.117937 0)
(1.41263 -0.106624 4.70137e-20)
(1.46527 -0.0961816 0)
(1.51456 -0.086593 4.58946e-20)
(1.56071 -0.0778487 -4.53406e-20)
(1.60392 -0.0699429 -1.34364e-19)
(1.64441 -0.062866 0)
(1.68242 -0.0565956 -1.31101e-19)
(1.71819 -0.0510979 -4.3159e-20)
(1.752 -0.046322 0)
(1.78413 -0.042201 -8.41999e-20)
(1.81485 -0.0386598 -8.31507e-20)
(1.84438 -0.0356143 1.23167e-19)
(1.87295 -0.0329791 0)
(1.90073 -0.0306723 4.0029e-20)
(1.92783 -0.0286282 3.9521e-20)
(1.95435 -0.0267889 1.17048e-19)
(1.98032 -0.0250997 0)
(2.00576 -0.0235376 0)
(2.03067 -0.0220939 0)
(2.05502 -0.0207591 3.70381e-20)
(2.07878 -0.0195251 0)
(2.10191 -0.0183885 0)
(2.12439 -0.0173469 -3.55966e-20)
(2.14621 -0.0163943 -3.51225e-20)
(2.16734 -0.0155223 0)
(2.18779 -0.0147204 0)
(2.20755 -0.013979 -6.74415e-20)
(2.22662 -0.0132878 0)
(2.24502 -0.0126336 6.56057e-20)
(2.26274 -0.0120031 6.46969e-20)
(2.2798 -0.0113911 0)
(2.2962 -0.0107988 0)
(2.31194 -0.0102229 -6.20096e-20)
(2.327 -0.00965007 -2.54571e-25)
(2.3414 -0.00906795 -2.19748e-25)
(2.35517 -0.00847125 0)
(2.36832 -0.00787035 -1.1702e-19)
(2.38082 -0.00728016 0)
(2.39268 -0.00670593 0)
(2.40389 -0.00615187 0)
(2.41445 -0.00562061 5.51001e-20)
(2.42437 -0.00511182 0)
(2.43364 -0.00462408 -1.06854e-19)
(2.44227 -0.00415779 -5.25986e-20)
(2.45026 -0.00372207 0)
(2.45762 -0.00331089 -5.09566e-20)
(2.46438 -0.00292181 0)
(2.47057 -0.0025573 0)
(2.47621 -0.00221338 -1.45592e-19)
(2.48134 -0.00188701 9.54636e-20)
(2.48597 -0.0015781 0)
(2.49014 -0.00128402 9.22966e-20)
(2.49387 -0.00100289 -4.53637e-20)
(2.49719 -0.000730977 0)
(2.50011 -0.000466156 0)
(2.50266 -0.000199812 0)
(2.50485 7.06587e-05 -1.26813e-19)
(2.5067 0.000365476 0)
(2.50822 0.000681078 -4.07519e-20)
(2.50941 0.00106139 0)
(2.51024 0.00147441 0)
(2.51076 0.00202524 0)
(2.51082 0.00259812 0)
(2.51056 0.00346719 0)
(2.50961 0.0042791 0)
(2.50841 0.00576633 -7.11539e-20)
(2.50595 0.00691193 0)
(2.50359 0.0096769 -3.41441e-20)
(2.49858 0.011236 1.003e-19)
(2.4949 0.0168135 0)
(2.48505 0.018796 0)
(2.48051 0.0308966 -6.26829e-20)
(2.46095 0.0333005 -6.13416e-20)
(2.45809 0.06094 5.9969e-20)
(2.42037 0.0655715 5.86851e-20)
(0.0499508 -0.507225 8.80639e-20)
(0.130474 -0.757566 8.73694e-20)
(0.199782 -0.802864 5.77795e-20)
(0.268114 -0.822142 2.86519e-20)
(0.341612 -0.844027 0)
(0.421027 -0.868227 -5.63137e-20)
(0.506568 -0.892549 2.7889e-20)
(0.598631 -0.915684 0)
(0.698063 -0.935876 2.73786e-20)
(0.805373 -0.950181 0)
(0.920009 -0.954172 -5.35472e-20)
(1.04046 -0.941699 0)
(1.16379 -0.90525 -2.62314e-20)
(1.28581 -0.836844 -5.18709e-20)
(1.39836 -0.729093 5.12875e-20)
(1.49415 -0.577015 0)
(1.56281 -0.381708 5.02028e-20)
(1.59813 -0.150001 0)
(1.59207 0.108225 0)
(1.54257 0.372586 4.89093e-20)
(1.44539 0.622517 0)
(1.30325 0.839411 -3.13936e-22)
(1.12417 1.01 0)
(0.917984 1.1347 0)
(0.692519 1.22942 1.9788e-22)
(0.459503 1.30392 4.76053e-20)
(0.260684 1.2461 4.72566e-20)
(0.174156 0.897471 4.71662e-20)
(-0.0369894 0.695108 0)
(-0.63682 1.0828 9.27328e-20)
(-1.23349 1.46701 0)
(-1.69485 1.65032 4.52332e-20)
(-2.03284 1.76315 0)
(-2.32509 1.82234 0)
(-2.55131 1.84655 -4.35525e-20)
(-2.75861 1.8498 0)
(-2.9375 1.82608 4.24094e-20)
(-3.11441 1.78281 3.65808e-22)
(-3.28657 1.72405 -8.28325e-20)
(-3.45836 1.65271 8.11949e-20)
(-3.62797 1.57001 0)
(-3.79166 1.47587 0)
(-3.94612 1.36949 3.82294e-20)
(-4.08737 1.25124 0)
(-4.213 1.122 3.77773e-20)
(-4.32159 0.984215 -3.71343e-20)
(-4.41295 0.840479 -3.65139e-20)
(-4.48752 0.693884 0)
(-4.5458 0.547378 3.53725e-20)
(-4.58847 0.403746 3.48644e-20)
(-4.61633 0.265164 -6.81951e-20)
(-4.63018 0.133119 3.39936e-20)
(-4.6302 0.00892128 3.36328e-20)
(-4.61537 -0.105589 0)
(-4.58579 -0.208279 0)
(-4.54309 -0.298429 -3.28019e-20)
(-4.48886 -0.374749 0)
(-4.42451 -0.436648 0)
(-4.35144 -0.483295 6.46031e-20)
(-4.27074 -0.514407 6.43559e-20)
(-4.18346 -0.530093 0)
(-4.09075 -0.531332 0)
(-3.99423 -0.520129 0)
(-3.89604 -0.499568 0)
(-3.79872 -0.473481 6.32532e-20)
(-3.7046 -0.445848 -6.29848e-20)
(-3.615 -0.420182 -6.27473e-20)
(-3.52983 -0.399243 -1.24928e-19)
(-3.44776 -0.385218 0)
(-3.36672 -0.380062 2.70298e-23)
(-3.28418 -0.385302 0)
(-3.19737 -0.401322 6.12534e-20)
(-3.10367 -0.426801 7.1389e-23)
(-3.00097 -0.458893 6.06337e-20)
(-2.88833 -0.493897 -6.0331e-20)
(-2.76629 -0.528317 1.13913e-22)
(-2.63616 -0.560158 0)
(-2.49878 -0.589684 -5.93086e-20)
(-2.3532 -0.619105 -5.91751e-20)
(-2.19647 -0.650892 -1.17645e-19)
(-2.02469 -0.685422 0)
(-1.83521 -0.719696 5.82464e-20)
(-1.62843 -0.747957 0)
(-1.4087 -0.764079 -1.15709e-19)
(-1.18291 -0.765521 5.76446e-20)
(-0.958398 -0.752375 -5.73444e-20)
(-0.740608 -0.726954 5.70112e-20)
(-0.53348 -0.692674 1.13176e-19)
(-0.338975 -0.653074 -5.62434e-20)
(-0.157525 -0.610986 5.58132e-20)
(0.0105264 -0.568903 0)