/*--------------------------------*- C++ -*----------------------------------*\
  =========                 |
  \\      /  F ield         | OpenFOAM: The Open Source CFD Toolbox
   \\    /   O peration     | Website:  https://openfoam.org
    \\  /    A nd           | Version:  7
     \\/     M anipulation  |
\*---------------------------------------------------------------------------*/
FoamFile
{
    version     2.0;
    format      ascii;
    class       volSymmTensorField;
    location    "0.045";
    object      UPrime2Mean;
}
// * * * * * * * * * * * * * * * * * * * * * * * * * * * * * * * * * * * * * //

dimensions      [0 2 -2 0 0 0 0];

internalField   nonuniform List<symmTensor> 
12225
(
(0.00496348 -0.00022896 0 0.000514231 0 0)
(0.0432704 -0.00190655 0 0.000280995 0 0)
(0.063471 -0.00283836 0 0.000280792 0 0)
(0.0851704 -0.00349849 0 0.00027463 0 0)
(0.12213 -0.00435153 0 0.000270488 0 0)
(0.176254 -0.0054156 0 0.000269296 0 0)
(0.247208 -0.0066251 0 0.000281079 0 0)
(0.334468 -0.00743723 0 0.000249906 0 0)
(0.436807 -0.00873841 0 0.000260151 0 0)
(0.552686 -0.00808523 0 0.000186677 0 0)
(0.683467 -0.0108407 0 0.000230063 0 0)
(0.820671 -0.0065737 0 0.000127647 0 0)
(0.986336 -0.0168338 0 0.000370188 0 0)
(1.14608 -0.000860987 0 0.000283341 0 0)
(1.38997 -0.0410986 0 0.00193671 0 0)
(1.62971 0.0206112 0 0.00241466 0 0)
(2.11382 -0.160257 0 0.022687 0 0)
(2.89994 0.061673 0 0.0112538 0 0)
(0.004606 -9.32282e-05 0 0.000595254 0 0)
(0.0291343 -0.000989872 0 0.000249501 0 0)
(0.0320415 -0.00163946 0 0.000359976 0 0)
(0.0330097 -0.00201494 0 0.000506962 0 0)
(0.0390699 -0.00273399 0 0.000681925 0 0)
(0.0497178 -0.00404617 0 0.000903385 0 0)
(0.0656367 -0.00585935 0 0.00112105 0 0)
(0.0891044 -0.00835971 0 0.00141329 0 0)
(0.120219 -0.010887 0 0.00155149 0 0)
(0.164522 -0.0147247 0 0.00188744 0 0)
(0.217739 -0.0172412 0 0.00182806 0 0)
(0.29382 -0.0238037 0 0.00237949 0 0)
(0.376139 -0.0252628 0 0.00210586 0 0)
(0.504429 -0.0402238 0 0.00362524 0 0)
(0.629425 -0.0400135 0 0.00323146 0 0)
(0.873366 -0.0856098 0 0.00985723 0 0)
(1.08594 -0.10332 0 0.0109365 0 0)
(1.60116 -0.308356 0 0.0758514 0 0)
(0.00433908 4.85639e-05 0 0.000880102 0 0)
(0.0288 -0.00150775 0 0.00051029 0 0)
(0.0305121 -0.00227303 0 0.000663203 0 0)
(0.0295188 -0.00247473 0 0.000881159 0 0)
(0.0319343 -0.00286265 0 0.0011448 0 0)
(0.0358478 -0.00363959 0 0.00146732 0 0)
(0.0409433 -0.00479488 0 0.00192037 0 0)
(0.0475285 -0.00618474 0 0.00231043 0 0)
(0.0564286 -0.00813073 0 0.00290276 0 0)
(0.0682711 -0.0100925 0 0.00321509 0 0)
(0.085139 -0.0136558 0 0.00401735 0 0)
(0.107426 -0.0164362 0 0.00418282 0 0)
(0.139904 -0.024068 0 0.0058231 0 0)
(0.182693 -0.0284357 0 0.00590607 0 0)
(0.247129 -0.0492475 0 0.0112923 0 0)
(0.333891 -0.0621309 0 0.0126881 0 0)
(0.459563 -0.132063 0 0.0400802 0 0)
(0.61958 -0.223326 0 0.0849665 0 0)
(0.00465856 -0.000413316 0 0.00100672 0 0)
(0.0287931 -0.00184018 0 0.000649668 0 0)
(0.0303309 -0.00246174 0 0.000793146 0 0)
(0.0292384 -0.0026773 0 0.00105949 0 0)
(0.0312744 -0.00304637 0 0.00136259 0 0)
(0.0345023 -0.00378722 0 0.00175338 0 0)
(0.0384768 -0.00484538 0 0.00222073 0 0)
(0.0433837 -0.0061999 0 0.00283134 0 0)
(0.0494247 -0.00776317 0 0.00341935 0 0)
(0.0574259 -0.00991367 0 0.00422436 0 0)
(0.0678656 -0.0124643 0 0.00494961 0 0)
(0.0825084 -0.0165886 0 0.00622613 0 0)
(0.102146 -0.0216959 0 0.00752766 0 0)
(0.130607 -0.0311838 0 0.0104683 0 0)
(0.169482 -0.0446119 0 0.0146248 0 0)
(0.224249 -0.0710139 0 0.0252661 0 0)
(0.2952 -0.117482 0 0.0487981 0 0)
(0.366038 -0.191126 0 0.10194 0 0)
(0.00467722 -0.000338551 0 0.00123545 0 0)
(0.0280138 -0.00216459 0 0.000831364 0 0)
(0.0291898 -0.00276027 0 0.000987363 0 0)
(0.028125 -0.0029571 0 0.00133703 0 0)
(0.0301873 -0.00334978 0 0.00173501 0 0)
(0.0333125 -0.00414518 0 0.0022 0 0)
(0.0370799 -0.00530922 0 0.0028158 0 0)
(0.0416294 -0.00676388 0 0.00350678 0 0)
(0.0472394 -0.00862941 0 0.00440556 0 0)
(0.0544071 -0.0108868 0 0.00533715 0 0)
(0.063842 -0.014155 0 0.0066623 0 0)
(0.0764283 -0.0183604 0 0.00817358 0 0)
(0.0934291 -0.0250936 0 0.0107867 0 0)
(0.116519 -0.0345239 0 0.0143951 0 0)
(0.147485 -0.0506861 0 0.0216803 0 0)
(0.187156 -0.0759283 0 0.0349047 0 0)
(0.233077 -0.116943 0 0.062077 0 0)
(0.270321 -0.178859 0 0.123039 0 0)
(0.00425085 -0.000660707 0 0.00130887 0 0)
(0.0275696 -0.00261348 0 0.00102905 0 0)
(0.0284023 -0.00307194 0 0.00125016 0 0)
(0.0272166 -0.00319896 0 0.00170042 0 0)
(0.0291291 -0.0036004 0 0.00220864 0 0)
(0.0320088 -0.00444095 0 0.0027957 0 0)
(0.0354653 -0.00566727 0 0.0035083 0 0)
(0.0396533 -0.00724574 0 0.00439471 0 0)
(0.0448172 -0.00923281 0 0.00544721 0 0)
(0.0513755 -0.0118244 0 0.0067458 0 0)
(0.059932 -0.0153376 0 0.00838458 0 0)
(0.0711203 -0.0202868 0 0.010661 0 0)
(0.0859453 -0.0274554 0 0.0139994 0 0)
(0.105128 -0.0380717 0 0.0192947 0 0)
(0.129784 -0.0543491 0 0.0283933 0 0)
(0.158324 -0.0785925 0 0.0445276 0 0)
(0.188364 -0.114519 0 0.0746922 0 0)
(0.208535 -0.160243 0 0.127805 0 0)
(0.00448441 -0.000519001 0 0.0015129 0 0)
(0.0274649 -0.00287788 0 0.00136565 0 0)
(0.0280462 -0.00338845 0 0.00156037 0 0)
(0.0267789 -0.00356555 0 0.00204603 0 0)
(0.0286158 -0.00405838 0 0.00264472 0 0)
(0.0313249 -0.0050106 0 0.00333558 0 0)
(0.0345146 -0.00636966 0 0.00418916 0 0)
(0.0383398 -0.00810186 0 0.00524634 0 0)
(0.0430304 -0.0102964 0 0.00657291 0 0)
(0.0489441 -0.0131384 0 0.00822687 0 0)
(0.0565695 -0.0170066 0 0.0103763 0 0)
(0.0663571 -0.0223835 0 0.0133483 0 0)
(0.0789168 -0.0300177 0 0.0176831 0 0)
(0.0944513 -0.0409973 0 0.0244654 0 0)
(0.113176 -0.0567453 0 0.0353228 0 0)
(0.133036 -0.0789716 0 0.053753 0 0)
(0.151714 -0.108291 0 0.0836446 0 0)
(0.161172 -0.142484 0 0.131944 0 0)
(0.00350765 -0.000487135 0 0.0016121 0 0)
(0.026419 -0.00309963 0 0.00146462 0 0)
(0.0270834 -0.00348164 0 0.00182783 0 0)
(0.0258933 -0.00354159 0 0.00242766 0 0)
(0.0276361 -0.00403364 0 0.00314969 0 0)
(0.0300759 -0.00502632 0 0.00398291 0 0)
(0.032891 -0.00642846 0 0.00499508 0 0)
(0.0362782 -0.00823416 0 0.00626736 0 0)
(0.0404353 -0.0105492 0 0.00787312 0 0)
(0.0456153 -0.0135716 0 0.00992171 0 0)
(0.0521494 -0.0176376 0 0.0126109 0 0)
(0.0602925 -0.0231927 0 0.016326 0 0)
(0.0703462 -0.0308765 0 0.0216679 0 0)
(0.0821973 -0.0415002 0 0.0297315 0 0)
(0.095569 -0.0560052 0 0.0420833 0 0)
(0.108537 -0.0750768 0 0.0614769 0 0)
(0.11914 -0.0983526 0 0.0906626 0 0)
(0.122368 -0.123353 0 0.133788 0 0)
(0.00508589 -0.000762807 0 0.001632 0 0)
(0.0270878 -0.00369345 0 0.00173058 0 0)
(0.0268644 -0.00405832 0 0.00219592 0 0)
(0.0253294 -0.00403438 0 0.0028792 0 0)
(0.0269494 -0.00453156 0 0.00373014 0 0)
(0.0292362 -0.00559469 0 0.00473094 0 0)
(0.0317865 -0.00709131 0 0.0059424 0 0)
(0.0347726 -0.00898648 0 0.00745764 0 0)
(0.0383571 -0.0113755 0 0.00937431 0 0)
(0.0427283 -0.0144598 0 0.0118389 0 0)
(0.0481092 -0.0185557 0 0.0150752 0 0)
(0.0546259 -0.0240652 0 0.0195212 0 0)
(0.0623608 -0.0314768 0 0.0257798 0 0)
(0.0709939 -0.0413373 0 0.0349233 0 0)
(0.0800372 -0.0541089 0 0.048261 0 0)
(0.0878343 -0.0698514 0 0.0679467 0 0)
(0.0930615 -0.0877449 0 0.0956661 0 0)
(0.092586 -0.105461 0 0.133693 0 0)
(0.00446462 -0.000831262 0 0.00177517 0 0)
(0.0266709 -0.00395947 0 0.00185477 0 0)
(0.0265424 -0.00427588 0 0.00240463 0 0)
(0.0250457 -0.00415644 0 0.00318889 0 0)
(0.0265727 -0.00460394 0 0.00416427 0 0)
(0.028641 -0.0056629 0 0.00531779 0 0)
(0.0308646 -0.00715907 0 0.00670996 0 0)
(0.033397 -0.00904351 0 0.00844997 0 0)
(0.0363639 -0.0114192 0 0.0106685 0 0)
(0.0399054 -0.01448 0 0.0135473 0 0)
(0.0441669 -0.0184941 0 0.0173311 0 0)
(0.0491636 -0.023767 0 0.0224587 0 0)
(0.0548241 -0.0306356 0 0.0295073 0 0)
(0.0607199 -0.039385 0 0.0394338 0 0)
(0.0663316 -0.0501434 0 0.0532714 0 0)
(0.070343 -0.0625908 0 0.0726135 0 0)
(0.0720217 -0.0758092 0 0.0983464 0 0)
(0.069374 -0.0878486 0 0.131805 0 0)
(0.00445321 -0.000944599 0 0.00199385 0 0)
(0.0265863 -0.00441745 0 0.00220805 0 0)
(0.02594 -0.00475423 0 0.00280042 0 0)
(0.0240893 -0.00453732 0 0.00366308 0 0)
(0.0253924 -0.004954 0 0.00475774 0 0)
(0.0272619 -0.00602698 0 0.00608262 0 0)
(0.0292326 -0.00752768 0 0.00768612 0 0)
(0.0314189 -0.00938329 0 0.00967947 0 0)
(0.0339203 -0.0116889 0 0.0122013 0 0)
(0.0368235 -0.014629 0 0.0154606 0 0)
(0.0401844 -0.0184286 0 0.0197195 0 0)
(0.0439256 -0.0233013 0 0.0254019 0 0)
(0.0478871 -0.0294373 0 0.0330233 0 0)
(0.0516438 -0.036919 0 0.0433899 0 0)
(0.0547531 -0.0456569 0 0.0572617 0 0)
(0.0562772 -0.0551654 0 0.0757576 0 0)
(0.0558859 -0.0645907 0 0.0992318 0 0)
(0.0523477 -0.0724293 0 0.128461 0 0)
(0.00397024 -0.000806885 0 0.00218519 0 0)
(0.025892 -0.00443721 0 0.00244177 0 0)
(0.0252538 -0.00480601 0 0.00306624 0 0)
(0.0233703 -0.00448397 0 0.00402126 0 0)
(0.0244834 -0.00480107 0 0.00523468 0 0)
(0.0260214 -0.00579499 0 0.00671649 0 0)
(0.0275809 -0.00720489 0 0.00851606 0 0)
(0.029301 -0.00893385 0 0.0107393 0 0)
(0.0312509 -0.0110573 0 0.0135432 0 0)
(0.0334561 -0.0137266 0 0.0171433 0 0)
(0.0358933 -0.0171119 0 0.0217973 0 0)
(0.038424 -0.0213433 0 0.0279003 0 0)
(0.0408554 -0.0264993 0 0.0358934 0 0)
(0.0428392 -0.0325302 0 0.0464356 0 0)
(0.0440608 -0.0392242 0 0.060051 0 0)
(0.0439189 -0.0460648 0 0.0775205 0 0)
(0.0423417 -0.0523205 0 0.0988697 0 0)
(0.0385585 -0.0568672 0 0.124605 0 0)
(0.00423577 -0.00108697 0 0.0024377 0 0)
(0.0262916 -0.00475192 0 0.00272762 0 0)
(0.0253675 -0.00504603 0 0.00335499 0 0)
(0.0231981 -0.00461603 0 0.0043874 0 0)
(0.0240783 -0.00485067 0 0.00570101 0 0)
(0.0253768 -0.00577686 0 0.0073155 0 0)
(0.0266375 -0.00710551 0 0.00928649 0 0)
(0.0279684 -0.00870794 0 0.0117144 0 0)
(0.0294175 -0.0106311 0 0.0147515 0 0)
(0.0309934 -0.0129968 0 0.0186075 0 0)
(0.0326534 -0.0159315 0 0.0235294 0 0)
(0.0342556 -0.0195012 0 0.029871 0 0)
(0.0356074 -0.0237031 0 0.037994 0 0)
(0.0364198 -0.0284029 0 0.0484236 0 0)
(0.0364672 -0.0333397 0 0.0614973 0 0)
(0.0353695 -0.038014 0 0.0777672 0 0)
(0.0332206 -0.0418428 0 0.09706 0 0)
(0.0295102 -0.0439604 0 0.119748 0 0)
(0.00425495 -0.00110139 0 0.00301644 0 0)
(0.0259577 -0.00476484 0 0.00343872 0 0)
(0.0248691 -0.00497039 0 0.00415102 0 0)
(0.0227281 -0.00441073 0 0.0052155 0 0)
(0.0235123 -0.00448601 0 0.00657722 0 0)
(0.0245293 -0.00524293 0 0.00829579 0 0)
(0.025372 -0.00637203 0 0.010423 0 0)
(0.0261734 -0.00771395 0 0.0130498 0 0)
(0.0269781 -0.0092848 0 0.0163133 0 0)
(0.0277955 -0.0111682 0 0.0204101 0 0)
(0.0286024 -0.01345 0 0.0255567 0 0)
(0.0292893 -0.0161395 0 0.032049 0 0)
(0.0296976 -0.0191736 0 0.0401515 0 0)
(0.0296088 -0.0223555 0 0.050245 0 0)
(0.028887 -0.0254241 0 0.0624901 0 0)
(0.0273259 -0.0279236 0 0.0772528 0 0)
(0.0251242 -0.0294538 0 0.0942152 0 0)
(0.0219291 -0.0293477 0 0.113684 0 0)
(0.00449875 -0.000780308 0 0.00294132 0 0)
(0.0258919 -0.00529828 0 0.00363576 0 0)
(0.024605 -0.00561775 0 0.00455175 0 0)
(0.0222013 -0.0049966 0 0.0058238 0 0)
(0.0227013 -0.00498595 0 0.00736488 0 0)
(0.0234212 -0.00563064 0 0.00922411 0 0)
(0.0239758 -0.00660347 0 0.0114787 0 0)
(0.0244652 -0.00771935 0 0.0142311 0 0)
(0.0248865 -0.0089657 0 0.0176168 0 0)
(0.0252186 -0.0103931 0 0.0218154 0 0)
(0.0254265 -0.0120382 0 0.0270064 0 0)
(0.0254279 -0.0138491 0 0.0334161 0 0)
(0.0251248 -0.0157186 0 0.0412103 0 0)
(0.0244092 -0.0174261 0 0.0506381 0 0)
(0.0232561 -0.0187598 0 0.0617106 0 0)
(0.0216018 -0.0193463 0 0.0746552 0 0)
(0.0196902 -0.018974 0 0.0890746 0 0)
(0.0172869 -0.0171338 0 0.105255 0 0)
(0.00462409 -0.000893404 0 0.00320315 0 0)
(0.025757 -0.00534944 0 0.00368549 0 0)
(0.0241038 -0.00575114 0 0.00452377 0 0)
(0.0213978 -0.00502947 0 0.00582803 0 0)
(0.0215909 -0.00485651 0 0.00745506 0 0)
(0.0220005 -0.00535212 0 0.00941505 0 0)
(0.0222743 -0.00615516 0 0.0117688 0 0)
(0.0224992 -0.00701838 0 0.0146113 0 0)
(0.0226132 -0.00787937 0 0.0180517 0 0)
(0.0225479 -0.0087552 0 0.0222249 0 0)
(0.0222783 -0.00966071 0 0.0272572 0 0)
(0.0217821 -0.0105291 0 0.0333072 0 0)
(0.0210436 -0.0112503 0 0.0404557 0 0)
(0.020054 -0.0116177 0 0.0488515 0 0)
(0.018857 -0.0114751 0 0.0584151 0 0)
(0.0174843 -0.010535 0 0.0692865 0 0)
(0.0161548 -0.00872741 0 0.081065 0 0)
(0.014712 -0.00567735 0 0.0940313 0 0)
(0.00503582 -0.000868631 0 0.00329177 0 0)
(0.0264039 -0.00548862 0 0.00388228 0 0)
(0.02435 -0.00596547 0 0.00483154 0 0)
(0.0212442 -0.00518011 0 0.00623603 0 0)
(0.0211496 -0.00487576 0 0.00791813 0 0)
(0.0212754 -0.00519768 0 0.00992009 0 0)
(0.0212092 -0.00574911 0 0.0122951 0 0)
(0.0210555 -0.00624122 0 0.0150998 0 0)
(0.0208024 -0.00658976 0 0.018409 0 0)
(0.0204242 -0.00680985 0 0.0223207 0 0)
(0.0199124 -0.00692107 0 0.0269138 0 0)
(0.0192668 -0.00686738 0 0.0322858 0 0)
(0.018494 -0.00655394 0 0.0384544 0 0)
(0.0176361 -0.00581226 0 0.0454974 0 0)
(0.0167566 -0.0045342 0 0.0532916 0 0)
(0.0159435 -0.00252571 0 0.0619354 0 0)
(0.0153695 0.000204852 0 0.0710577 0 0)
(0.0149536 0.00390728 0 0.0809375 0 0)
(0.0043373 -0.00086331 0 0.00337174 0 0)
(0.0256025 -0.0056861 0 0.00394498 0 0)
(0.0235882 -0.00608677 0 0.0046309 0 0)
(0.0203809 -0.00531452 0 0.00583958 0 0)
(0.0199965 -0.00500688 0 0.00739135 0 0)
(0.019722 -0.00514547 0 0.00924892 0 0)
(0.0192641 -0.00534595 0 0.0113956 0 0)
(0.0188018 -0.0053875 0 0.0138455 0 0)
(0.0183504 -0.00522225 0 0.016661 0 0)
(0.0178874 -0.00486488 0 0.0199323 0 0)
(0.0174047 -0.00431335 0 0.0237114 0 0)
(0.0169099 -0.00350752 0 0.0280433 0 0)
(0.0164215 -0.00236859 0 0.0329027 0 0)
(0.016005 -0.000787989 0 0.0383188 0 0)
(0.0157302 0.00128847 0 0.0441699 0 0)
(0.0157008 0.0039625 0 0.0505324 0 0)
(0.0160391 0.00719733 0 0.057116 0 0)
(0.0167081 0.0111318 0 0.0641664 0 0)
(0.00451748 -0.000604312 0 0.00317399 0 0)
(0.0259153 -0.00526228 0 0.00372909 0 0)
(0.0233615 -0.0054052 0 0.00426914 0 0)
(0.0198453 -0.00425487 0 0.00528843 0 0)
(0.0193147 -0.00349189 0 0.00657929 0 0)
(0.0188568 -0.00316415 0 0.00810817 0 0)
(0.0182475 -0.00290839 0 0.00989124 0 0)
(0.0177469 -0.00248502 0 0.0119358 0 0)
(0.0173862 -0.00180765 0 0.014242 0 0)
(0.0171338 -0.000866982 0 0.0168204 0 0)
(0.01698 0.000330045 0 0.0196738 0 0)
(0.0169466 0.0018047 0 0.022821 0 0)
(0.0170724 0.00358607 0 0.0262399 0 0)
(0.0174387 0.00572753 0 0.0299486 0 0)
(0.0181092 0.00823811 0 0.0338583 0 0)
(0.0191726 0.0111729 0 0.0380282 0 0)
(0.0206956 0.0144724 0 0.0422562 0 0)
(0.0226583 0.0182325 0 0.0467152 0 0)
(0.00471798 -0.000864862 0 0.0034877 0 0)
(0.0252729 -0.00489445 0 0.0036991 0 0)
(0.0224018 -0.00478059 0 0.00403927 0 0)
(0.0188136 -0.00364814 0 0.00486262 0 0)
(0.0181212 -0.00286383 0 0.00584082 0 0)
(0.0175499 -0.00245186 0 0.00695001 0 0)
(0.0168898 -0.00210064 0 0.0082225 0 0)
(0.0163754 -0.00157951 0 0.00967795 0 0)
(0.0160374 -0.000792306 0 0.0113188 0 0)
(0.0158693 0.000271714 0 0.0131426 0 0)
(0.0158955 0.00159546 0 0.0151367 0 0)
(0.0161633 0.00317302 0 0.017299 0 0)
(0.0167195 0.00500537 0 0.0196031 0 0)
(0.0176286 0.00711458 0 0.0220589 0 0)
(0.0189376 0.00949648 0 0.0246057 0 0)
(0.0207007 0.0121828 0 0.0272909 0 0)
(0.0229589 0.0151242 0 0.0299853 0 0)
(0.0256916 0.0183848 0 0.0328009 0 0)
(0.00453715 -0.000676607 0 0.00313498 0 0)
(0.0251727 -0.00431178 0 0.00313361 0 0)
(0.0222053 -0.00401658 0 0.00328642 0 0)
(0.0185793 -0.00279363 0 0.00385666 0 0)
(0.0178411 -0.00190849 0 0.00459566 0 0)
(0.0172301 -0.00134384 0 0.00543835 0 0)
(0.0166185 -0.000815653 0 0.00635283 0 0)
(0.0162602 -0.000140596 0 0.00733967 0 0)
(0.0161653 0.000753369 0 0.00841766 0 0)
(0.0163066 0.00187487 0 0.00960145 0 0)
(0.0167152 0.00320774 0 0.0108887 0 0)
(0.0174531 0.00474105 0 0.0122756 0 0)
(0.0185722 0.00646983 0 0.0137359 0 0)
(0.0201193 0.00840552 0 0.0152706 0 0)
(0.0221219 0.0105418 0 0.0168418 0 0)
(0.0246068 0.0128975 0 0.0184863 0 0)
(0.027599 0.0154346 0 0.0201304 0 0)
(0.0310675 0.0181948 0 0.0218551 0 0)
(0.00405708 -0.000474721 0 0.00291893 0 0)
(0.0246844 -0.00357888 0 0.00249387 0 0)
(0.0216266 -0.00342456 0 0.00254978 0 0)
(0.0179619 -0.00234429 0 0.002954 0 0)
(0.0172062 -0.00146789 0 0.00349431 0 0)
(0.0166303 -0.00087404 0 0.004132 0 0)
(0.0161179 -0.000338363 0 0.00484283 0 0)
(0.0158991 0.000325687 0 0.00561943 0 0)
(0.0159826 0.00120254 0 0.00646114 0 0)
(0.0163666 0.00229739 0 0.0073673 0 0)
(0.0170926 0.00358038 0 0.00832691 0 0)
(0.0182135 0.00502743 0 0.00933187 0 0)
(0.0197662 0.00662462 0 0.0103639 0 0)
(0.0217881 0.00837611 0 0.0114263 0 0)
(0.0242943 0.010273 0 0.0124946 0 0)
(0.0273073 0.0123315 0 0.0135987 0 0)
(0.0308382 0.0145128 0 0.0146852 0 0)
(0.0348664 0.0168556 0 0.0158089 0 0)
(0.00462584 -0.000629363 0 0.00260679 0 0)
(0.0244717 -0.00326032 0 0.00223017 0 0)
(0.0213523 -0.00290877 0 0.00213421 0 0)
(0.0177206 -0.00183254 0 0.00230238 0 0)
(0.0169241 -0.00103337 0 0.00259265 0 0)
(0.0162396 -0.000513084 0 0.00294322 0 0)
(0.0156303 -4.39221e-05 0 0.00331741 0 0)
(0.0154244 0.000531131 0 0.00371342 0 0)
(0.015661 0.00126911 0 0.00415134 0 0)
(0.0162987 0.00216538 0 0.00464559 0 0)
(0.0173328 0.00319546 0 0.00518983 0 0)
(0.0187842 0.00434097 0 0.00577042 0 0)
(0.0206762 0.00559624 0 0.00637015 0 0)
(0.0230377 0.00696759 0 0.00699126 0 0)
(0.0258961 0.00844995 0 0.00762011 0 0)
(0.0292652 0.0100497 0 0.00827571 0 0)
(0.0331706 0.0117395 0 0.00892511 0 0)
(0.0375624 0.0135322 0 0.00959636 0 0)
(0.00473628 -0.000806319 0 0.00230924 0 0)
(0.024295 -0.00302143 0 0.00199696 0 0)
(0.0205786 -0.00233041 0 0.00191261 0 0)
(0.0169428 -0.00114348 0 0.00206073 0 0)
(0.0164795 -0.000278949 0 0.00229946 0 0)
(0.0161462 0.000282218 0 0.00257422 0 0)
(0.0158529 0.000763855 0 0.00285722 0 0)
(0.0159813 0.00132701 0 0.00315154 0 0)
(0.016624 0.00203708 0 0.00346842 0 0)
(0.0177487 0.00289083 0 0.00381186 0 0)
(0.0193271 0.00386176 0 0.00417304 0 0)
(0.0213622 0.00492794 0 0.00454303 0 0)
(0.0238772 0.00607628 0 0.00491272 0 0)
(0.0269051 0.0073055 0 0.00528596 0 0)
(0.0304641 0.0086024 0 0.0056556 0 0)
(0.034554 0.00997099 0 0.00604367 0 0)
(0.0391816 0.0113867 0 0.00643008 0 0)
(0.0442975 0.0128771 0 0.00683118 0 0)
(0.00517435 -0.000700472 0 0.00212127 0 0)
(0.024454 -0.00271034 0 0.00163084 0 0)
(0.0203466 -0.00210338 0 0.00135782 0 0)
(0.0165325 -0.00119271 0 0.00135423 0 0)
(0.0159489 -0.000555767 0 0.00143338 0 0)
(0.0155214 -0.000165902 0 0.00150843 0 0)
(0.0152268 0.000141095 0 0.00158898 0 0)
(0.0154493 0.000497655 0 0.00170715 0 0)
(0.0162166 0.000967037 0 0.00186813 0 0)
(0.0174466 0.00155045 0 0.00205398 0 0)
(0.0191191 0.00222034 0 0.00224588 0 0)
(0.0212721 0.00295574 0 0.00243767 0 0)
(0.0239583 0.00374599 0 0.0026302 0 0)
(0.0272122 0.00458895 0 0.00283083 0 0)
(0.0310433 0.00547869 0 0.00303677 0 0)
(0.035428 0.00641683 0 0.0032563 0 0)
(0.0403595 0.00738594 0 0.00347425 0 0)
(0.0457657 0.00840562 0 0.00369602 0 0)
(0.00517056 -0.000622208 0 0.00189311 0 0)
(0.0241995 -0.00211454 0 0.00117895 0 0)
(0.019634 -0.00174888 0 0.000926712 0 0)
(0.0158837 -0.00095755 0 0.00100989 0 0)
(0.0154865 -0.000296622 0 0.00109914 0 0)
(0.0152627 0.000122059 0 0.00114137 0 0)
(0.0152733 0.000435764 0 0.00117167 0 0)
(0.0159115 0.000773152 0 0.00122255 0 0)
(0.0171642 0.00119463 0 0.00129483 0 0)
(0.0189183 0.00170238 0 0.001378 0 0)
(0.0211517 0.00227351 0 0.00146437 0 0)
(0.0239124 0.00288743 0 0.00155074 0 0)
(0.0272491 0.00353046 0 0.00163745 0 0)
(0.0311762 0.0041978 0 0.00173068 0 0)
(0.0356793 0.00488412 0 0.00183068 0 0)
(0.0407192 0.00559572 0 0.00194384 0 0)
(0.0462958 0.0063214 0 0.00206213 0 0)
(0.0523359 0.00708061 0 0.00218932 0 0)
(0.0036035 -0.000538026 0 0.00152798 0 0)
(0.0223764 -0.00105387 0 0.000710552 0 0)
(0.0180132 -0.000665819 0 0.00043752 0 0)
(0.0147324 -0.000238637 0 0.000433133 0 0)
(0.0147047 8.40803e-05 0 0.000437322 0 0)
(0.0147824 0.00024602 0 0.000441091 0 0)
(0.0150785 0.000349015 0 0.000460694 0 0)
(0.0159995 0.00047962 0 0.000491231 0 0)
(0.0175555 0.000668227 0 0.000525509 0 0)
(0.0196659 0.000908199 0 0.000560015 0 0)
(0.022335 0.00118307 0 0.000594275 0 0)
(0.0256101 0.00147894 0 0.000631217 0 0)
(0.0295135 0.00178881 0 0.000673502 0 0)
(0.0340172 0.00211303 0 0.000723635 0 0)
(0.0390805 0.00245104 0 0.000780311 0 0)
(0.0446483 0.00280606 0 0.000844996 0 0)
(0.050735 0.00316699 0 0.000913776 0 0)
(0.057268 0.00354254 0 0.000987914 0 0)
(0.00524974 -0.00057985 0 0.00113493 0 0)
(0.0224661 -0.00120209 0 0.000476883 0 0)
(0.0174292 -0.000883048 0 0.000396425 0 0)
(0.0146569 -0.000318408 0 0.000385656 0 0)
(0.0150767 5.02381e-05 0 0.000338256 0 0)
(0.0155032 0.000237101 0 0.000293202 0 0)
(0.016308 0.000375127 0 0.000271216 0 0)
(0.0179393 0.000518667 0 0.000264528 0 0)
(0.020332 0.000664724 0 0.000265411 0 0)
(0.0233336 0.000807815 0 0.000270696 0 0)
(0.0269057 0.00095377 0 0.000280455 0 0)
(0.0310772 0.00111086 0 0.000295857 0 0)
(0.0358599 0.00128458 0 0.000317671 0 0)
(0.0412366 0.00147457 0 0.000345885 0 0)
(0.047165 0.00167409 0 0.000379434 0 0)
(0.0536096 0.00187439 0 0.000419613 0 0)
(0.060566 0.00206462 0 0.000464772 0 0)
(0.0679776 0.00224707 0 0.000513498 0 0)
(0.00372968 -8.63931e-05 0 0.000862584 0 0)
(0.0209106 0.000181302 0 0.000210141 0 0)
(0.0161096 6.50481e-06 0 0.000155208 0 0)
(0.0137172 5.39014e-05 0 0.00015272 0 0)
(0.0144892 3.53102e-05 0 0.000160539 0 0)
(0.0152912 -4.561e-05 0 0.000169416 0 0)
(0.0164322 -0.000144815 0 0.000178313 0 0)
(0.0182748 -0.000245852 0 0.000188339 0 0)
(0.0206856 -0.000346411 0 0.000200648 0 0)
(0.0234706 -0.000442107 0 0.000214944 0 0)
(0.0265535 -0.000524289 0 0.000230604 0 0)
(0.0299586 -0.000586077 0 0.00024766 0 0)
(0.0336909 -0.000622358 0 0.000266434 0 0)
(0.0377826 -0.000632307 0 0.000287624 0 0)
(0.0421758 -0.000617674 0 0.000311186 0 0)
(0.046915 -0.000585259 0 0.000338702 0 0)
(0.0519008 -0.000539881 0 0.000370187 0 0)
(0.0572438 -0.000484829 0 0.000404162 0 0)
(0.00458229 -0.000355574 0 0.000696088 0 0)
(0.0225129 -0.000100005 0 0.000220486 0 0)
(0.0197867 4.14488e-06 0 0.00013783 0 0)
(0.0189167 0.000114728 0 9.89409e-05 0 0)
(0.0206861 0.000136309 0 7.7911e-05 0 0)
(0.0222955 0.000151559 0 6.59874e-05 0 0)
(0.0238731 0.000182597 0 5.88304e-05 0 0)
(0.0258123 0.000219551 0 5.52433e-05 0 0)
(0.0282374 0.000253206 0 5.43315e-05 0 0)
(0.0311606 0.000283279 0 5.56196e-05 0 0)
(0.0345734 0.000316379 0 5.88994e-05 0 0)
(0.0384788 0.00036096 0 6.37792e-05 0 0)
(0.0429248 0.000423096 0 6.96166e-05 0 0)
(0.0479817 0.000503023 0 7.5824e-05 0 0)
(0.0537523 0.00059581 0 8.22542e-05 0 0)
(0.060229 0.000694993 0 8.93049e-05 0 0)
(0.0675118 0.000796597 0 9.62696e-05 0 0)
(0.0754269 0.000903568 0 0.000102371 0 0)
(0.000256076 -0.000612494 1.34669e-22 0.00150113 -2.61221e-22 2.07908e-37)
(0.00372355 -0.00329813 -3.68763e-22 0.00299803 2.09208e-22 2.04999e-37)
(0.0137559 -0.0071754 0 0.00383679 0 0)
(0.0309243 -0.0112474 0 0.00417797 0 0)
(0.0556424 -0.0153175 0 0.00428599 0 0)
(0.0883404 -0.019469 1.20093e-21 0.00434264 -1.90066e-22 1.93094e-37)
(0.129407 -0.0237875 0 0.004412 0 0)
(0.179383 -0.0283079 0 0.00450048 0 0)
(0.23879 -0.0329853 0 0.00459093 0 0)
(0.308041 -0.0377012 0 0.00465792 0 0)
(0.38726 -0.042253 -2.22303e-21 0.00467195 1.95108e-22 1.78858e-37)
(0.476034 -0.0463518 0 0.00460423 0 0)
(0.573312 -0.0496102 0 0.00442769 0 0)
(0.677025 -0.0515884 0 0.00413105 0 0)
(0.784319 -0.051809 0 0.00372072 0 0)
(0.890938 -0.0498702 -3.24802e-21 0.0032394 2.23187e-22 1.6532e-37)
(0.992464 -0.0454885 0 0.00276121 0 0)
(1.08307 -0.0386506 0 0.00240129 0 0)
(1.15914 -0.0296213 0 0.00229553 0 0)
(1.21424 -0.0191267 0 0.00258287 0 0)
(1.24622 -0.0085582 0 0.00335106 0 0)
(1.25564 0.000385172 0 0.00457809 0 0)
(1.24696 0.00575406 0 0.00608251 0 0)
(1.22728 0.00622941 -5.59894e-21 0.00761391 3.47654e-22 1.4509e-37)
(1.20674 0.000531404 5.96615e-21 0.00877916 -3.46299e-22 1.42684e-37)
(1.19427 -0.0107973 -6.33333e-21 0.00959752 3.36554e-22 1.40306e-37)
(1.1985 -0.0268275 -6.6936e-21 0.0103124 3.20243e-22 1.37954e-37)
(1.22991 -0.0458963 0 0.0118724 0 0)
(1.28297 -0.0642398 0 0.0163275 0 0)
(1.36747 -0.0873354 7.68084e-21 0.0235117 -2.57026e-22 1.31065e-37)
(1.49327 -0.116775 7.96265e-21 0.0353524 -2.20964e-22 1.28823e-37)
(1.6384 -0.140075 0 0.0475374 0 0)
(1.77796 -0.15074 0 0.0548917 0 0)
(1.90394 -0.133724 8.88504e-21 0.0474609 -2.61176e-22 1.22259e-37)
(2.02595 -0.0937849 0 0.0318109 0 0)
(2.14594 -0.0706136 0 0.0310737 0 0)
(2.30559 -0.0874223 -9.96211e-21 0.0326447 3.71205e-22 1.15939e-37)
(2.52867 -0.111774 0 0.0292829 0 0)
(2.79959 -0.130222 -1.05859e-20 0.0256924 3.15753e-22 1.11861e-37)
(3.10661 -0.142613 -2.17099e-20 0.0221452 5.74635e-22 4.39447e-37)
(3.43769 -0.149509 0 0.0189192 0 0)
(3.78192 -0.151572 0 0.0160352 0 0)
(4.12955 -0.149545 0 0.0135097 0 0)
(4.47177 -0.14405 0 0.0113047 0 0)
(4.80069 -0.135657 0 0.00938636 0 0)
(5.10913 -0.124823 -2.36843e-20 0.0077175 2.5817e-22 3.93695e-37)
(5.39097 -0.111978 -2.37845e-20 0.00627301 2.11102e-22 3.86435e-37)
(5.6409 -0.0975102 -2.38146e-20 0.00503303 1.65986e-22 3.79279e-37)
(5.85437 -0.0818783 0 0.00398707 0 0)
(6.02792 -0.065566 2.36633e-20 0.0031247 -8.27914e-23 3.65272e-37)
(6.15924 -0.0491044 0 0.00243611 0 0)
(6.24716 -0.032979 -2.32408e-20 0.00190652 1.17002e-23 3.5167e-37)
(6.29354 -0.0175876 -2.2938e-20 0.00151806 -1.85095e-23 3.45018e-37)
(6.29874 -0.00323201 0 0.00125175 0 0)
(6.26553 0.00978003 0 0.00108694 0 0)
(6.19714 0.021271 0 0.00100035 0 0)
(6.09804 0.0311956 -2.12576e-20 0.0009687 -1.01817e-22 3.19391e-37)
(5.97157 0.0395501 0 0.000974495 0 0)
(5.82223 0.0463917 0 0.00100273 0 0)
(5.65383 0.0517892 0 0.00104333 0 0)
(5.47045 0.0558447 0 0.00108809 0 0)
(5.2756 0.0586807 0 0.00113224 0 0)
(5.07265 0.0604393 0 0.00117163 0 0)
(4.86451 0.0612738 0 0.00120416 0 0)
(4.65375 0.0613414 0 0.0012278 0 0)
(4.44243 0.0608074 1.65534e-20 0.00124191 1.28859e-22 2.67228e-37)
(4.23216 0.0598447 0 0.00124562 0 0)
(4.02396 0.0586275 0 0.00124 0 0)
(3.81836 0.0573116 -1.512e-20 0.00122753 -1.16903e-22 2.51446e-37)
(3.61544 0.0560159 -1.46698e-20 0.00121195 -1.12764e-22 2.46355e-37)
(3.41506 0.0548027 0 0.00119745 0 0)
(3.21696 0.0536789 1.3809e-20 0.00118673 1.04862e-22 2.36422e-37)
(3.02094 0.0526125 -1.33975e-20 0.00118044 -1.01079e-22 2.31578e-37)
(2.82697 0.0515494 0 0.00117717 0 0)
(2.63528 0.0504258 1.26114e-20 0.00117365 9.36728e-23 2.22131e-37)
(2.44627 0.0491845 0 0.00116681 0 0)
(2.26056 0.0477853 0 0.0011555 0 0)
(2.07883 0.0461858 -1.15261e-20 0.00113931 -8.21328e-23 2.08546e-37)
(1.90191 0.0443519 0 0.00111885 0 0)
(1.73086 0.0422405 1.0868e-20 0.00109291 7.3699e-23 1.99868e-37)
(1.56692 0.0398287 0 0.0010593 0 0)
(1.41139 0.0371326 -1.02663e-20 0.00101591 -6.44403e-23 1.91484e-37)
(1.26548 0.0341908 -9.98768e-21 0.00096053 -5.9557e-23 1.874e-37)
(1.13013 0.0310786 -9.72404e-21 0.000893032 -5.45882e-23 1.83386e-37)
(1.00598 0.02789 -1.89505e-20 0.000815079 -9.92354e-23 7.1777e-37)
(0.893312 0.0247259 1.84819e-20 0.00073 8.94519e-23 7.02269e-37)
(0.792057 0.0216738 0 0.000641686 0 0)
(0.701851 0.0188035 0 0.000554085 0 0)
(0.622102 0.0161617 0 0.000470459 0 0)
(0.552028 0.0137854 1.68683e-20 0.000393964 5.45568e-23 6.42934e-37)
(0.490775 0.011673 1.65217e-20 0.000325445 4.72553e-23 6.28748e-37)
(0.437427 0.00982176 -1.61943e-20 0.00026573 -4.05772e-23 6.14815e-37)
(0.391054 0.00820285 0 0.000213954 0 0)
(0.350813 0.00680194 1.55905e-20 0.000170074 2.89141e-23 5.87691e-37)
(0.315983 0.00559734 1.53112e-20 0.000133408 2.38964e-23 5.74492e-37)
(0.285888 0.00456693 1.50454e-20 0.000103182 1.9379e-23 5.61531e-37)
(0.259923 0.00368933 0 7.85917e-05 0 0)
(0.237548 0.00294466 0 5.88548e-05 0 0)
(0.21829 0.0023149 0 4.32436e-05 0 0)
(0.201732 0.00178396 1.40948e-20 3.10979e-05 5.64389e-24 5.11994e-37)
(0.187511 0.00133767 0 2.18297e-05 0 0)
(0.175312 0.000963646 0 1.49223e-05 0 0)
(0.164861 0.000651155 -1.34763e-20 9.92658e-06 9.59593e-25 4.77166e-37)
(0.155921 0.000390931 0 6.45524e-06 0 0)
(0.148288 0.000175007 0 4.17696e-06 0 0)
(0.141785 -3.46491e-06 -1.29183e-20 2.81096e-06 5.1751e-24 4.44233e-37)
(0.136259 -0.000150351 0 2.12235e-06 0 0)
(0.131579 -0.000270682 0 1.91777e-06 0 0)
(0.127633 -0.000368746 1.24067e-20 2.04158e-06 -7.59782e-24 4.13107e-37)
(0.124325 -0.000448182 1.22445e-20 2.372e-06 -8.09695e-24 4.03119e-37)
(0.121573 -0.000512086 0 2.8167e-06 0 0)
(0.119306 -0.000563039 -1.19305e-20 3.30831e-06 8.73807e-24 3.83705e-37)
(0.117464 -0.000603145 0 3.79949e-06 0 0)
(0.115997 -0.000634199 1.16285e-20 4.25883e-06 -8.99493e-24 3.65023e-37)
(0.114861 -0.000657535 0 4.66535e-06 0 0)
(0.114019 -0.000674168 1.13365e-20 5.00545e-06 -8.95678e-24 3.47048e-37)
(0.113437 -0.000685182 1.11938e-20 5.27501e-06 -8.85219e-24 3.38319e-37)
(0.113089 -0.000691101 0 5.46873e-06 0 0)
(0.112947 -0.000692544 0 5.58836e-06 0 0)
(0.11299 -0.000690485 0 5.64673e-06 0 0)
(0.113195 -0.000684009 0 5.62197e-06 0 0)
(0.113538 -0.000672172 0 5.49082e-06 0 0)
(0.113997 -0.00065541 0 5.26111e-06 0 0)
(0.11455 -0.000634493 0 4.95155e-06 0 0)
(0.115178 -0.00061003 1.01098e-20 4.57958e-06 -6.63837e-24 2.74337e-37)
(0.11586 -0.000582742 -9.97964e-21 4.16569e-06 6.25692e-24 2.67032e-37)
(0.116583 -0.000553447 0 3.73219e-06 0 0)
(0.117331 -0.000522922 0 3.29882e-06 0 0)
(0.118094 -0.000491836 0 2.88113e-06 0 0)
(0.118862 -0.00046077 0 2.49028e-06 0 0)
(0.119627 -0.000430204 -1.8682e-20 2.13339e-06 8.91352e-24 9.30591e-37)
(0.120385 -0.000400542 0 1.81429e-06 0 0)
(0.12113 -0.000372078 1.81809e-20 1.53384e-06 -7.70661e-24 8.79401e-37)
(0.121861 -0.000344993 -1.79322e-20 1.29043e-06 7.16423e-24 8.5459e-37)
(0.122575 -0.00031935 0 1.08082e-06 0 0)
(0.123272 -0.000295183 0 9.01465e-07 0 0)
(0.123951 -0.000272512 0 7.4906e-07 0 0)
(0.124611 -0.000251367 1.69501e-20 6.20632e-07 -5.38941e-24 7.60384e-37)
(0.125254 -0.000231775 1.67077e-20 5.13444e-07 -5.03672e-24 7.3805e-37)
(0.125881 -0.000213759 0 4.24923e-07 0 0)
(0.126492 -0.000197303 1.62265e-20 3.52436e-07 -4.42705e-24 6.9479e-37)
(0.127088 -0.000182357 1.59878e-20 2.93457e-07 -4.16619e-24 6.73848e-37)
(0.12767 -0.000168816 -1.57504e-20 2.45524e-07 3.93022e-24 6.53356e-37)
(0.128237 -0.000156574 0 2.06602e-07 0 0)
(0.128791 -0.000145553 0 1.75086e-07 0 0)
(0.129332 -0.000135681 -1.50455e-20 1.49667e-07 3.34956e-24 5.94498e-37)
(0.129862 -0.000126909 0 1.29297e-07 0 0)
(0.130381 -0.000119197 0 1.1311e-07 0 0)
(0.130892 -0.000112512 0 1.00371e-07 0 0)