/*--------------------------------*- C++ -*----------------------------------*\
  =========                 |
  \\      /  F ield         | OpenFOAM: The Open Source CFD Toolbox
   \\    /   O peration     | Website:  https://openfoam.org
    \\  /    A nd           | Version:  7
     \\/     M anipulation  |
\*---------------------------------------------------------------------------*/
FoamFile
{
    version     2.0;
    format      ascii;
    class       volScalarField;
    location    "0.28";
    object      epsilon;
}
// * * * * * * * * * * * * * * * * * * * * * * * * * * * * * * * * * * * * * //

dimensions      [0 2 -3 0 0 0 0];

internalField   nonuniform List<scalar> 
12225
(
261.514
229.335
202.526
181.489
166.165
155.706
148.932
144.731
142.226
140.781
139.962
139.493
139.204
138.994
138.813
138.624
138.462
139.388
74.4042
97.582
104.475
109.104
114.643
121.066
127.65
133.839
139.357
144.108
148.1
151.394
154.08
156.25
158.001
159.372
160.627
161.318
31.9471
44.3627
51.5587
56.297
60.1513
63.8122
67.439
70.9922
74.3981
77.5938
80.5358
83.202
85.5898
87.7104
89.5848
91.2321
92.7045
93.9557
20.8062
26.666
31.0975
34.3335
36.8348
38.9632
40.9035
42.7311
44.4732
46.1356
47.7136
49.1997
50.5883
51.8769
53.0662
54.1588
55.1605
56.0609
17.0807
19.8446
22.2843
24.2526
25.8323
27.1474
28.2875
29.3084
30.2446
31.1169
31.9363
32.7079
33.4341
34.1162
34.7552
35.3519
35.9065
36.4103
15.6187
16.8449
18.101
19.2182
20.168
20.9737
21.6651
22.2682
22.8039
23.2879
23.7309
24.1401
24.52
24.8739
25.2039
25.5114
25.7969
26.0539
15.0057
15.4483
16.0091
16.5711
17.0862
17.5421
17.94
18.2865
18.59
18.8586
19.0986
19.315
19.5117
19.6913
19.8561
20.0073
20.1457
20.2672
14.7446
14.7907
14.9476
15.1531
15.3696
15.5775
15.7674
15.9361
16.0844
16.2143
16.3282
16.4285
16.5172
16.5958
16.6657
16.728
16.783
16.8282
14.6329
14.4844
14.4154
14.4003
14.4173
14.4509
14.4904
14.5295
14.565
14.5958
14.6216
14.6426
14.6591
14.6717
14.6808
14.6868
14.6897
14.6882
14.5847
14.3444
14.156
14.012
13.9026
13.8186
13.7519
13.6966
13.6487
13.6057
13.5659
13.5282
13.4921
13.457
13.4227
13.3891
13.356
13.3225
14.5634
14.2814
14.0337
13.8195
13.6354
13.477
13.3393
13.2183
13.1104
13.013
12.9242
12.8423
12.7663
12.6951
12.6281
12.5648
12.5047
12.4475
14.5542
14.2552
13.9821
13.7352
13.5136
13.3153
13.1374
12.9772
12.8321
12.7
12.5789
12.4674
12.3642
12.2681
12.1784
12.0943
12.0152
11.9412
14.5491
14.242
13.9563
13.6925
13.4503
13.2287
13.026
12.8406
12.6707
12.5145
12.3706
12.2375
12.1142
11.9994
11.8923
11.7921
11.6984
11.6113
14.546
14.2346
13.943
13.6709
13.4177
13.1829
12.9655
12.7643
12.578
12.4053
12.2451
12.0962
11.9576
11.8283
11.7075
11.5944
11.4885
11.3905
14.544
14.2306
13.9366
13.6611
13.4034
13.1627
12.9382
12.7289
12.5339
12.352
12.1822
12.0237
11.8755
11.7368
11.6068
11.4849
11.3706
11.2648
14.5428
14.2284
13.9337
13.6573
13.3982
13.1557
12.9288
12.7165
12.518
12.3322
12.1582
11.9952
11.8424
11.699
11.5643
11.4376
11.3186
11.2085
14.5422
14.2274
13.9328
13.6565
13.3976
13.155
12.9279
12.7152
12.516
12.3293
12.1543
11.9901
11.8359
11.691
11.5546
11.4263
11.3056
11.1937
14.5423
14.2277
13.9335
13.6579
13.3998
13.1581
12.9318
12.7199
12.5214
12.3354
12.1609
11.9971
11.8432
11.6985
11.5624
11.4342
11.3135
11.2017
14.5433
14.2298
13.9367
13.6625
13.4058
13.1658
12.9411
12.731
12.5342
12.3499
12.1771
12.015
11.8627
11.7196
11.5849
11.4581
11.3388
11.2282
14.5456
14.2344
13.9436
13.6718
13.4176
13.1803
12.9585
12.7514
12.5578
12.3767
12.2071
12.0482
11.8992
11.7593
11.6278
11.5041
11.3878
11.2802
14.5493
14.2418
13.9546
13.6865
13.4365
13.2037
12.987
12.7853
12.5974
12.4222
12.2587
12.1059
11.963
11.8291
11.7036
11.5858
11.4754
11.3734
14.5556
14.2546
13.9745
13.7145
13.4739
13.2518
13.0471
12.8582
12.6837
12.5222
12.3724
12.2332
12.1038
11.983
11.8704
11.7651
11.6666
11.5757
14.567
14.2806
14.0189
13.7811
13.5663
13.3732
13.1995
13.0422
12.8991
12.7683
12.6481
12.5373
12.4348
12.3395
12.2502
12.1663
12.0874
12.0143
14.5931
14.349
14.1441
13.9722
13.8284
13.7082
13.6059
13.5163
13.4359
13.363
13.2956
13.2319
13.1708
13.1115
13.054
12.9978
12.9432
12.8913
14.6719
14.5671
14.5334
14.5366
14.5581
14.588
14.618
14.6433
14.6615
14.6704
14.6701
14.6615
14.6458
14.6242
14.5982
14.5687
14.5369
14.5046
14.9618
15.3045
15.7117
16.0878
16.4098
16.6789
16.8975
17.0642
17.1861
17.2722
17.3303
17.3668
17.3874
17.3965
17.3976
17.3936
17.3865
17.3789
16.0826
17.7385
19.0679
20.0268
20.7393
21.2729
21.6498
21.911
22.0921
22.22
22.3137
22.3869
22.4495
22.5081
22.5674
22.63
22.6976
22.7712
20.4114
25.6123
28.3433
29.7404
30.5943
31.1252
31.456
31.6814
31.8663
32.0479
32.2469
32.4739
32.7333
33.0255
33.3484
33.6988
34.073
34.4651
38.6012
49.0463
52.2936
53.1782
53.4527
53.5625
53.7111
54.015
54.504
55.1638
55.9691
56.8941
57.9141
59.0063
60.1504
61.3299
62.5338
63.7482
159.121
148.102
138.017
128.818
120.586
113.347
107.09
101.755
97.2558
93.49
90.3587
87.7701
85.6419
83.9024
82.4891
81.3491
80.4373
79.7156
0.0528739
0.0772968
0.132649
0.177586
0.217474
0.263449
0.313257
0.367619
0.428292
0.497898
0.572034
0.650967
0.735731
0.826667
0.923971
1.02779
1.13822
1.25532
1.37912
1.50958
1.64663
1.79018
1.94011
2.09627
2.2585
2.42663
2.60048
2.77984
2.96451
3.15429
3.34894
3.54825
3.75197
3.95986
4.17167
4.38714
4.60598
4.82792
5.05266
5.2799
5.50932
5.74059
5.97338
6.20732
6.44201
6.67698
6.91173
7.14563
7.37795
7.60789
7.83452
8.05686
8.27393
8.48478
8.68859
8.88458
9.07205
9.25012
9.41752
9.57238
9.71217
9.834
9.93537
10.015
10.0736
10.1151
10.1469
10.1791
43.1105
43.3036
43.4163
10.2284
43.9522
10.3156
10.395
44.3583
45.7455
45.9253
45.0644
45.5014
45.6593
44.9798
46.249
47.5871
48.9554
50.3365
51.7254
53.1168
54.5073
55.8942
57.2756
58.6506
60.0196
61.3858
62.7528
64.0995
65.4253
66.7292
68.0094
69.2639
70.4903
71.6863
72.8496
73.978
75.0693
76.1212
77.1318
78.0989
79.0209
79.8957
80.7218
81.4977
82.2217
82.8928
83.5096
84.0712
84.5766
85.0251
85.416
85.7491
86.0238
86.2401
86.398
86.4977
86.5394
86.5237
86.4511
86.3223
86.1383
85.9
85.6086
85.2652
84.8714
84.4285
83.938
83.4017
82.8212
82.1984
81.5352
80.8334
80.0949
79.3219
78.5164
77.6803
76.8157
75.9248
75.0095
74.0719
73.1143
72.1385
71.1464
70.1412
69.1237
68.0992
67.0728
66.0613
65.1826
66.0571
65.6123
75.5041
71.1768
75.2651
74.8739
70.5422
70.7673
74.7181
70.1537
16.0391
16.0698
76.0294
74.7465
16.7035
16.6201
16.5858
74.086
77.3187
16.9075
17.6358
17.7034
76.4383
0.223355
0.142296
0.147524
0.168179
0.196897
0.231619
0.27143
0.316237
0.365935
0.420315
0.478806
0.541242
0.607682
0.67822
0.752956
0.831975
0.91534
1.00309
1.09523
1.19175
1.29261
1.39778
1.50719
1.62077
1.73846
1.86015
1.98578
2.11524
2.24845
2.38529
2.52566
2.66946
2.81656
2.96684
3.12018
3.27644
3.43548
3.59716
3.76134
3.92788
4.09661
4.26741
4.44012
4.61461
4.79071
4.96828
5.14714
5.32713
5.50804
5.6897
5.87196
6.05473
6.23805
6.42211
6.6074
6.79471
6.98528
7.1808
7.38354
7.59644
7.82329
8.06912
8.34067
8.64752
9.00497
9.44355
10.0403
11.0171
13.0424
13.5826
13.8218
13.3395
14.928
14.6394
15.3404
16.7285
17.2495
18.0367
18.8186
19.4046
19.9921
20.4946
21.0362
21.6171
22.1848
22.75
23.3135
23.8758
24.4367
24.996
25.5537
26.1101
26.6661
27.2231
27.7882
28.3483
28.9014
29.4468
29.9835
30.5108
31.0279
31.5337
32.0275
32.5084
32.9755
33.428
33.8652
34.2861
34.6902
35.0765
35.4446
35.7938
36.1233
36.4328
36.7217
36.9895
37.2358
37.4603
37.6626
37.8426
37.9999
38.1345
38.2463
38.3352
38.4013
38.4447
38.4654
38.4636
38.4397
38.3939
38.3264
38.2378
38.1284
37.9988
37.8493
37.6806
37.4932
37.2878
37.065
36.8255
36.57
36.2991
36.0136
35.7142
35.4018
35.077
34.7406
34.3934
34.0363
33.6698
33.2947
32.9124
32.5224
32.1275
31.729
31.3361
31.0319
31.1956
30.9694
31.2134
30.9337
30.3471
30.5116
30.3806
30.3375
30.1749
29.7723
26.3281
26.0379
28.9158
29.1322
25.8102
25.3691
25.1622
27.72
27.9142
24.8438
22.7671
24.2437
27.5932
0.459605
0.24311
0.223227
0.23533
0.258213
0.288465
0.324913
0.366896
0.413837
0.465164
0.520348
0.579025
0.640992
0.706169
0.774549
0.846161
0.921052
0.999267
1.08084
1.1658
1.25416
1.34592
1.4411
1.53967
1.64163
1.74696
1.85564
1.96765
2.08296
2.20154
2.32336
2.44838
2.57656
2.70786
2.84225
2.97968
3.12012
3.26351
3.40984
3.55906
3.71117
3.86615
4.02401
4.18477
4.34846
4.51515
4.6849
4.85783
5.03406
5.21378
5.39723
5.58473
5.77674
5.97389
6.17701
6.38725
6.60607
6.83533
7.0773
7.33458
7.61003
7.9067
8.22766
8.57585
8.95406
9.36579
9.81759
10.3205
10.8717
11.3236
11.7443
12.1486
12.6473
13.0681
13.534
14.034
14.4989
15.0168
15.5426
16.0288
16.5081
16.9761
17.4355
17.8938
18.3475
18.8001
19.2526
19.7053
20.1581
20.611
21.0641
21.5175
21.9714
22.4266
22.8807
23.3308
23.7758
24.2148
24.6471
25.072
25.4889
25.8969
26.2954
26.6837
27.061
27.4268
27.7804
28.1211
28.4483
28.7615
29.06
29.3434
29.6112
29.863
30.0982
30.3166
30.5177
30.7014
30.8673
31.0152
31.145
31.2566
31.3498
31.4246
31.4811
31.5192
31.5392
31.5411
31.5251
31.4915
31.4404
31.3723
31.2874
31.1862
31.069
30.9362
30.7884
30.6259
30.4494
30.2594
30.0563
29.8408
29.6135
29.3748
29.1255
28.8662
28.5974
28.3196
28.0338
27.7403
27.4394
27.1328
26.819
26.5018
26.1834
25.8708
25.6015
25.4736
25.2297
24.9348
24.7052
24.3081
24.1763
24.0257
23.8432
23.5653
23.3288
22.7066
22.4535
22.4848
22.3765
21.8188
21.5393
21.3075
21.3149
21.1367
20.708
20.1898
20.3221
20.7256
0.741423
0.356622
0.306536
0.306306
0.323128
0.34959
0.383175
0.422674
0.467262
0.516258
0.569085
0.625296
0.684588
0.74678
0.81179
0.879603
0.950241
1.02375
1.10018
1.17958
1.26199
1.34748
1.43607
1.52779
1.62269
1.72079
1.82211
1.92668
2.03451
2.14564
2.26008
2.37784
2.49896
2.62344
2.75132
2.88262
3.01737
3.15562
3.29741
3.44279
3.59186
3.74468
3.90138
4.06208
4.22695
4.39616
4.56993
4.74853
4.93223
5.12138
5.31638
5.51768
5.72583
5.94149
6.16545
6.39864
6.6422
6.89741
7.16566
7.44838
7.74687
8.0622
8.39497
8.74521
9.11219
9.49458
9.89108
10.3006
10.7176
11.1295
11.5399
11.9543
12.3771
12.7988
13.2278
13.6652
14.1067
14.5583
15.0127
15.4628
15.9116
16.3589
16.8042
17.248
17.6904
18.1328
18.5758
19.0196
19.4642
19.9094
20.355
20.801
21.2471
21.692
22.1342
22.5723
23.0054
23.4327
23.8535
24.267
24.6725
25.0693
25.4567
25.8339
26.2003
26.5552
26.8979
27.2278
27.5443
27.8468
28.1348
28.4076
28.665
28.9063
29.1312
29.3394
29.5304
29.7041
29.8601
29.9983
30.1186
30.2207
30.3047
30.3706
30.4183
30.4479
30.4597
30.4537
30.4301
30.3891
30.3312
30.2565
30.1655
30.0585
29.9359
29.7982
29.6459
29.4795
29.2994
29.1063
28.9007
28.683
28.4541
28.2144
27.9644
27.705
27.4367
27.1596
26.8752
26.5835
26.2842
25.9809
25.6724
25.3606
25.0473
24.7377
24.4488
24.2084
23.9335
23.6194
23.3449
23.0351
22.787
22.5469
22.2965
22.0146
21.753
21.4304
21.1652
20.9311
20.7005
20.4024
20.1413
19.8922
19.6751
19.4453
19.2119
18.9616
18.8731
18.9126
1.01317
0.466415
0.383575
0.371734
0.382729
0.405448
0.436104
0.472976
0.51504
0.561551
0.611919
0.665682
0.722501
0.782155
0.844519
0.909544
0.977233
1.04762
1.12077
1.19674
1.2756
1.35742
1.44227
1.53021
1.62131
1.71564
1.81325
1.9142
2.01856
2.12638
2.23774
2.35268
2.47128
2.59362
2.71976
2.8498
2.98381
3.12191
3.26421
3.41082
3.5619
3.71761
3.87812
4.04364
4.21441
4.39069
4.57276
4.76095
4.95562
5.15716
5.366
5.5826
5.80748
6.0412
6.28438
6.53769
6.80186
7.07766
7.36582
7.66699
7.98162
8.30989
8.65167
9.00643
9.37327
9.75102
10.1384
10.5344
10.9372
11.345
11.7576
12.1759
12.6001
13.0294
13.4648
13.9064
14.3536
14.8061
15.2624
15.7211
16.1819
16.6446
17.1086
17.5734
18.0389
18.5055
18.9734
19.4426
19.9128
20.3838
20.8552
21.3268
21.7974
22.2656
22.7303
23.1906
23.6454
24.094
24.5357
24.9695
25.3946
25.8104
26.216
26.6105
26.9934
27.3638
27.721
28.0643
28.3931
28.7067
29.0046
29.2861
29.5508
29.7983
30.028
30.2397
30.4329
30.6075
30.763
30.8995
31.0167
31.1145
31.1929
31.252
31.2917
31.3122
31.3137
31.2964
31.2605
31.2063
31.1341
31.0443
30.9373
30.8137
30.6738
30.5181
30.3472
30.1616
29.962
29.749
29.523
29.2847
29.0349
28.7742
28.5029
28.2222
27.9327
27.6338
27.3283
27.0163
26.6979
26.3747
26.0469
25.7159
25.3832
25.0523
24.7311
24.4286
24.1173
23.7906
23.4783
23.1621
22.8597
22.5627
22.2648
21.9589
21.6609
21.3548
21.0608
20.7716
20.4899
20.2013
19.922
19.6497
19.3884
19.1353
18.9018
18.6861
18.5375
18.4727
1.25067
0.560297
0.450052
0.428164
0.433906
0.453098
0.480884
0.515111
0.554588
0.598524
0.646334
0.697569
0.751896
0.809086
0.868998
0.931566
0.996781
1.06467
1.13529
1.20872
1.28503
1.36432
1.44667
1.53217
1.62091
1.71298
1.80847
1.90748
2.0101
2.11643
2.22655
2.34058
2.45863
2.58081
2.70724
2.83804
2.97338
3.11338
3.25823
3.40809
3.56317
3.72368
3.88986
4.06196
4.24027
4.42509
4.61676
4.81562
5.02207
5.23651
5.45935
5.69103
5.93201
6.18275
6.44373
6.71543
6.99831
7.29284
7.5994
7.91826
8.24956
8.59323
8.94903
9.31652
9.69512
10.0842
10.4829
10.8908
11.3072
11.7314
12.1631
12.6024
13.0492
13.5032
13.9644
14.4326
14.9074
15.3883
15.8745
16.3655
16.8608
17.36
17.8624
18.3674
18.8746
19.384
19.8954
20.4084
20.9227
21.438
21.9536
22.469
22.9823
23.4924
23.9983
24.4991
24.9937
25.4814
25.9612
26.4322
26.8934
27.3441
27.7832
28.21
28.6236
29.0231
29.4078
29.7768
30.1296
30.4652
30.7832
31.0829
31.3638
31.6253
31.8671
32.0886
32.2897
32.4699
32.6291
32.7671
32.8837
32.9789
33.0527
33.1051
33.1363
33.1465
33.1357
33.1044
33.0528
32.9813
32.8902
32.7801
32.6514
32.5046
32.3404
32.1593
31.9619
31.7487
31.5207
31.2785
31.0225
30.7534
30.4726
30.1803
29.8764
29.5634
29.2417
28.9114
28.5738
28.2297
27.8795
27.5242
27.1647
26.8018
26.4371
26.073
25.7135
25.362
25.0095
24.6525
24.3006
23.9504
23.6042
23.2612
22.9201
22.5787
22.2419
21.907
21.5774
21.2513
20.9314
20.6157
20.3069
20.0059
19.7149
19.4366
19.1795
18.9489
18.7626
18.6364
1.44339
0.638606
0.505286
0.474633
0.475642
0.491558
0.516618
0.548291
0.585238
0.626629
0.671888
0.72059
0.772425
0.827174
0.884699
0.944933
1.00786
1.0735
1.14192
1.21319
1.28741
1.36466
1.44506
1.52871
1.61573
1.70623
1.80032
1.89812
1.99976
2.10536
2.21505
2.32898
2.44729
2.57013
2.69766
2.83005
2.9675
3.11019
3.25835
3.41219
3.57196
3.73793
3.91037
4.08958
4.27588
4.46963
4.67117
4.88089
5.09918
5.32645
5.56312
5.8096
6.0663
6.33364
6.61202
6.90181
7.20336
7.51699
7.84295
8.1814
8.5324
8.89589
9.2717
9.65958
10.0592
10.4703
10.8924
11.3252
11.7684
12.2216
12.6846
13.1571
13.6391
14.1302
14.6303
15.1389
15.6557
16.1802
16.7117
17.2498
17.794
18.3436
18.8979
19.4564
20.0185
20.5836
21.1513
21.7213
22.2928
22.8653
23.4383
24.01
24.5787
25.1434
25.7031
26.2568
26.8034
27.3419
27.8712
28.3904
28.8984
29.3941
29.8766
30.3449
30.798
31.235
31.655
32.0572
32.4406
32.8047
33.1485
33.4716
33.7732
34.0529
34.3102
34.5446
34.7559
34.9438
35.1079
35.2482
35.3646
35.457
35.5255
35.5702
35.5912
35.5888
35.5633
35.515
35.4444
35.3518
35.2377
35.1027
34.9473
34.7723
34.5784
34.3662
34.1361
33.889
33.6261
33.348
33.0552
32.7479
32.4288
32.0979
31.7557
31.4035
31.0422
30.6723
30.2948
29.9106
29.5204
29.1251
28.7255
28.3226
27.9179
27.513
27.1102
26.7114
26.3136
25.9153
25.5197
25.1264
24.7356
24.3477
23.9626
23.58
23.2017
22.8277
22.4587
22.0944
21.7364
21.3852
21.042
20.7081
20.3855
20.0777
19.791
19.532
19.3089
19.1321
1.59525
0.702053
0.549481
0.511179
0.507909
0.520791
0.543286
0.572539
0.607075
0.646023
0.688814
0.735047
0.784437
0.836786
0.891971
0.949929
1.01065
1.07415
1.1405
1.20978
1.28208
1.35751
1.4362
1.51825
1.60381
1.693
1.78597
1.88285
1.9838
2.08898
2.19853
2.31265
2.4315
2.55528
2.68418
2.81843
2.95824
3.10386
3.25555
3.41358
3.57823
3.74982
3.92867
4.11511
4.30953
4.51228
4.72378
4.94442
5.17462
5.41481
5.66542
5.92687
6.19957
6.48392
6.78029
7.08905
7.41051
7.74496
8.09263
8.45369
8.82824
9.21629
9.6178
10.0327
10.4608
10.9019
11.356
11.8228
12.3021
12.7936
13.2972
13.8126
14.3395
14.8776
15.4266
15.9862
16.5557
17.1348
17.7227
18.319
18.9228
19.5337
20.1508
20.7734
21.4006
22.0319
22.6665
23.3038
23.9429
24.5832
25.2237
25.8614
26.4952
27.1242
27.7471
28.3628
28.9701
29.5679
30.1548
30.7299
31.2918
31.8395
32.3718
32.8876
33.3858
33.8655
34.3255
34.765
35.183
35.5787
35.9513
36.3001
36.6245
36.9238
37.1977
37.4457
37.6675
37.8628
38.0314
38.1731
38.2879
38.3759
38.437
38.4716
38.4798
38.462
38.4184
38.3496
38.2561
38.1385
37.9972
37.8329
37.6461
37.438
37.2094
36.9609
36.6931
36.4063
36.1031
35.7838
35.4489
35.0994
34.7368
34.3617
33.975
33.5778
33.1709
32.7554
32.332
31.9017
31.4655
31.0241
30.5785
30.1298
29.6791
29.2278
28.7776
28.3296
27.8832
27.4378
26.9945
26.5538
26.1159
25.6812
25.2501
24.8229
24.4005
23.9834
23.5721
23.1667
22.7685
22.3784
21.9976
21.6276
21.2704
20.9293
20.6095
20.3166
20.0551
19.8313
1.70796
0.75128
0.583203
0.538345
0.531233
0.541307
0.561395
0.588363
0.620619
0.657252
0.69769
0.741554
0.788582
0.838599
0.891498
0.94723
1.00579
1.06721
1.13155
1.1989
1.26936
1.34305
1.4201
1.50064
1.58483
1.67281
1.76475
1.8608
1.96115
2.06598
2.17549
2.28987
2.40935
2.53414
2.6645
2.80068
2.94294
3.09157
3.24689
3.4092
3.57884
3.75618
3.94159
4.13545
4.33819
4.55022
4.77198
5.00393
5.24653
5.50023
5.7655
6.04278
6.33254
6.63518
6.95112
7.28074
7.62439
7.98239
8.355
8.74246
9.14493
9.56253
9.99532
10.4433
10.9066
11.385
11.8785
12.3869
12.9103
13.4483
14.0007
14.5672
15.1476
15.7415
16.3484
16.9679
17.5994
18.2424
18.896
19.5597
20.2327
20.9141
21.6031
22.2989
23.0004
23.7068
24.4172
25.1307
25.8463
26.5633
27.2787
27.9902
28.6969
29.3974
30.0906
30.7749
31.4492
32.112
32.762
33.3979
34.0184
34.6222
35.208
35.7746
36.3208
36.8454
37.3474
37.8258
38.2796
38.7078
39.1095
39.484
39.8307
40.149
40.4384
40.6985
40.9291
41.1298
41.3005
41.4411
41.5515
41.6319
41.6824
41.7034
41.6951
41.6579
41.5922
41.4987
41.3781
41.2309
41.058
40.8598
40.6368
40.3908
40.1228
39.8333
39.5232
39.1934
38.8455
38.4803
38.0988
37.7019
37.2909
36.8669
36.4308
35.9837
35.5266
35.0606
34.5866
34.1057
33.6187
33.1267
32.6306
32.1314
31.6304
31.1287
30.6276
30.1281
29.6302
29.1341
28.6404
28.1496
27.6622
27.1787
26.6994
26.2251
25.7563
25.2939
24.838
24.3893
23.9487
23.5175
23.0968
22.6882
22.2939
21.9168
21.5609
21.2312
20.9296
20.6605
1.78449
0.787316
0.607324
0.556984
0.546463
0.553948
0.571771
0.596581
0.626681
0.661124
0.699334
0.740943
0.78571
0.833483
0.884172
0.937741
0.994194
1.05357
1.11595
1.18141
1.25008
1.32207
1.39753
1.47661
1.55947
1.64629
1.73724
1.83252
1.93233
2.03688
2.14641
2.26114
2.38133
2.50726
2.6392
2.77746
2.92235
3.07422
3.23342
3.40032
3.57532
3.75883
3.95129
4.15315
4.36488
4.58697
4.81991
5.06422
5.32041
5.58901
5.87053
6.16548
6.47437
6.79769
7.13588
7.48939
7.85864
8.244
8.64581
9.06437
9.49993
9.95271
10.4228
10.9105
11.4157
11.9384
12.4788
13.0366
13.6119
14.2043
14.8137
15.4397
16.082
16.74
17.4134
18.1014
18.8035
19.5189
20.2469
20.9865
21.737
22.4973
23.2665
24.0435
24.8273
25.6167
26.4106
27.2079
28.0074
28.8076
29.6037
30.3949
31.1797
31.9568
32.7248
33.482
34.2268
34.9579
35.6737
36.3727
37.0535
37.7146
38.3548
38.9726
39.5667
40.1359
40.6792
41.1953
41.6833
42.1421
42.5707
42.9684
43.3346
43.6687
43.9703
44.239
44.4745
44.6766
44.8453
44.9805
45.0821
45.1504
45.1856
45.1882
45.1586
45.0973
45.0046
44.8815
44.7288
44.5473
44.3378
44.1012
43.8381
43.5502
43.2383
42.9035
42.5468
42.1693
41.7724
41.3572
40.9247
40.4762
40.0129
39.5359
39.0464
38.5455
38.0344
37.5142
36.9859
36.4506
35.9094
35.3633
34.8133
34.2605
33.706
33.1509
32.5963
32.0432
31.4919
30.9429
30.3968
29.8542
29.3156
28.7815
28.2526
27.7295
27.2128
26.7033
26.2014
25.7078
25.2234
24.7494
24.2872
23.8384
23.405
22.9897
22.5958
22.2272
21.8845
21.5712
1.82859
0.811452
0.6229
0.568123
0.554624
0.559735
0.575433
0.598199
0.62626
0.658633
0.694739
0.734219
0.776848
0.82249
0.871073
0.922573
0.97701
1.03443
1.09492
1.15858
1.22553
1.29591
1.36987
1.44758
1.52923
1.615
1.7051
1.79976
1.8992
2.00368
2.11345
2.22881
2.35003
2.47745
2.61139
2.75221
2.90029
3.05602
3.21983
3.39214
3.57343
3.76418
3.9649
4.1761
4.39835
4.63219
4.87821
5.13699
5.40913
5.69524
5.9959
6.31172
6.64326
6.99108
7.35573
7.73771
8.1375
8.55556
8.9923
9.4481
9.92328
10.4181
10.9329
11.4676
12.0226
12.5978
13.1933
13.8089
14.4446
15.1002
15.7753
16.4695
17.1824
17.9134
18.6619
19.427
20.2082
21.0044
21.8148
22.6384
23.4741
24.3209
25.1776
26.043
26.9158
27.7949
28.6787
29.5661
30.4556
31.3414
32.2219
33.0958
33.9616
34.8176
35.6621
36.4931
37.3092
38.1085
38.8895
39.6505
40.3901
41.1066
41.7986
42.4646
43.1034
43.7135
44.2939
44.8435
45.3611
45.8458
46.2962
46.7117
47.0918
47.436
47.7439
48.0152
48.2497
48.4472
48.6078
48.7315
48.8181
48.8681
48.882
48.8603
48.8035
48.7123
48.5873
48.4294
48.2396
48.0188
47.7679
47.488
47.1801
46.8455
46.4855
46.1011
45.6936
45.2643
44.8145
44.3454
43.8584
43.3547
42.8356
42.3024
41.7564
41.1987
40.6307
40.0535
39.4683
38.8762
38.2783
37.6757
37.0696
36.4609
35.8509
35.2405
34.6308
34.0228
33.417
32.8139
32.2144
31.619
31.0282
30.4429
29.8635
29.2907
28.7253
28.1679
27.6192
27.0798
26.5508
26.0333
25.5286
25.0384
24.5647
24.1099
23.6767
23.2681
22.8838
22.5272
1.8445
0.825124
0.631064
0.572849
0.556806
0.559771
0.573492
0.594337
0.620478
0.650913
0.685056
0.722557
0.763202
0.806871
0.853505
0.903098
0.95568
1.01131
1.07009
1.13212
1.19755
1.26652
1.33922
1.41582
1.49654
1.58159
1.67121
1.76566
1.86521
1.97014
2.08077
2.19742
2.32046
2.45024
2.58718
2.73168
2.88421
3.04522
3.21521
3.39471
3.58425
3.78441
3.99578
4.21898
4.45464
4.70343
4.96601
5.24308
5.53531
5.84342
6.16809
6.51001
6.86984
7.24823
7.64577
8.06305
8.50063
8.95902
9.4387
9.94009
10.4636
11.0095
11.5781
12.1695
12.7839
13.4214
14.0818
14.7652
15.4713
16.1998
16.9504
17.7226
18.5157
19.329
20.1617
21.0127
21.8813
22.7664
23.6669
24.5817
25.5096
26.4494
27.3996
28.3591
29.3262
30.2997
31.2781
32.2596
33.2385
34.2113
35.1766
36.133
37.0787
38.0121
38.9311
39.8332
40.7169
41.5803
42.4218
43.2396
44.0322
44.798
45.5352
46.2426
46.9187
47.5622
48.1718
48.7467
49.2859
49.7883
50.2519
50.6766
51.062
51.4077
51.7133
51.9786
52.2035
52.388
52.5322
52.6362
52.7002
52.7246
52.71
52.6571
52.5665
52.439
52.2754
52.0768
51.8441
51.5784
51.2809
50.9527
50.5951
50.2093
49.7968
49.3588
48.8967
48.4119
47.9057
47.3797
46.8351
46.2734
45.696
45.1042
44.4994
43.883
43.2562
42.6202
41.9765
41.3261
40.6702
40.01
39.3466
38.6811
38.0147
37.3483
36.683
36.0197
35.3591
34.702
34.0489
33.4007
32.7579
32.1213
31.4914
30.8691
30.255
29.6499
29.0543
28.4692
27.8954
27.3341
26.7868
26.255
25.7405
25.2456
24.7725
24.3235
23.8978
23.4988
1.83673
0.829808
0.632954
0.572248
0.554108
0.555181
0.567103
0.586183
0.610564
0.639232
0.671602
0.707332
0.746219
0.788158
0.833105
0.881067
0.932089
0.986249
1.04366
1.10444
1.16876
1.23678
1.30872
1.38478
1.46521
1.55026
1.64021
1.73536
1.83603
1.94257
2.05535
2.17476
2.30122
2.43519
2.57714
2.72758
2.88704
3.0561
3.23535
3.42539
3.62688
3.8405
4.06694
4.30692
4.56121
4.83057
5.11578
5.41765
5.73697
6.07454
6.43117
6.80765
7.20472
7.62311
8.06346
8.52637
9.01245
9.52225
10.0563
10.615
11.1988
11.8079
12.4426
13.1031
13.7893
14.5014
15.239
16.0021
16.7904
17.6034
18.4406
19.3015
20.1853
21.0908
22.0168
22.9623
23.9262
24.9074
25.9046
26.9166
27.9419
28.9791
30.0268
31.0836
32.1477
33.2178
34.2922
35.3641
36.4288
37.4848
38.5304
39.5639
40.5835
41.5877
42.574
43.5389
44.4812
45.3992
46.2911
47.1553
47.99
48.7935
49.5645
50.3013
51.0026
51.6671
52.2936
52.8812
53.4288
53.9355
54.4001
54.8222
55.2012
55.5369
55.8291
56.0775
56.2823
56.4435
56.5613
56.636
56.668
56.6579
56.6063
56.514
56.3818
56.2105
56.0013
55.7552
55.4734
55.157
54.8074
54.4258
54.0137
53.5723
53.1033
52.608
52.0879
51.5445
50.9794
50.3939
49.7897
49.1681
48.5308
47.879
47.2144
46.5382
45.8518
45.1567
44.454
43.7451
43.0311
42.3133
41.5928
40.8708
40.1483
39.4264
38.7062
37.9885
37.2741
36.5638
35.8583
35.1583
34.4645
33.7777
33.0985
32.4277
31.7659
31.1139
30.4725
29.8424
29.2246
28.6204
28.0309
27.4579
26.9031
26.3683
25.8555
25.3665
24.9001
24.4601
1.80991
0.826969
0.629662
0.567366
0.547604
0.547097
0.55747
0.575019
0.597883
0.625052
0.655948
0.69024
0.72774
0.768357
0.812064
0.858887
0.908891
0.962175
1.01887
1.07914
1.14316
1.21115
1.28335
1.36001
1.44143
1.52792
1.61981
1.71747
1.8213
1.93172
2.04917
2.17416
2.30718
2.44881
2.59962
2.76024
2.93134
3.1136
3.30776
3.51454
3.73471
3.96907
4.21845
4.4837
4.76571
5.06538
5.3836
5.72129
6.07936
6.45872
6.86025
7.28484
7.73336
8.20658
8.70503
9.22923
9.77979
10.3572
10.9621
11.5947
12.2554
12.9443
13.6616
14.4072
15.1812
15.9832
16.8129
17.6701
18.5541
19.4643
20.4001
21.3609
22.3463
23.3536
24.3812
25.4283
26.4936
27.5759
28.6738
29.7857
30.9102
32.0459
33.1911
34.3442
35.5035
36.668
37.8282
38.9797
40.1207
41.2492
42.3635
43.4614
44.541
45.6004
46.6373
47.6492
48.6341
49.5904
50.5162
51.4097
52.2694
53.0936
53.8808
54.6296
55.3388
56.0071
56.6334
57.2168
57.7564
58.2513
58.7009
59.1045
59.462
59.7729
60.0372
60.255
60.4263
60.5514
60.6307
60.6645
60.6535
60.5983
60.4997
60.3586
60.1759
59.9528
59.6903
59.3897
59.0522
58.6792
58.272
57.8322
57.3611
56.8603
56.3313
55.7757
55.1951
54.591
53.965
53.3188
52.6538
51.9717
51.274
50.5622
49.8378
49.1023
48.357
47.6034
46.8428
46.0766
45.3059
44.5319
43.756
42.9791
42.2024
41.4269
40.6537
39.8837
39.1177
38.3564
37.6007
36.8512
36.1087
35.3739
34.6476
33.9303
33.2229
32.5262
31.8407
31.1675
30.5075
29.8618
29.2318
28.619
28.0249
27.4513
26.8999
26.372
25.8664
25.387
1.76876
0.817983
0.622203
0.559201
0.538366
0.536704
0.545913
0.562321
0.584089
0.610221
0.640161
0.673595
0.710354
0.750371
0.793643
0.840223
0.890207
0.94373
1.00096
1.06211
1.1274
1.19712
1.27156
1.35104
1.43594
1.52666
1.62364
1.72733
1.83825
1.95694
2.08396
2.21992
2.3655
2.5214
2.68836
2.86717
3.05868
3.26375
3.48331
3.71826
3.96943
4.23775
4.52422
4.82983
5.15561
5.50257
5.87171
6.26402
6.68048
7.12202
7.5896
8.08411
8.60653
9.158
9.73829
10.3474
10.986
11.6547
12.3537
13.0832
13.8434
14.634
15.4551
16.3062
17.1871
18.0972
19.036
20.0027
20.9965
22.0165
23.0618
24.1311
25.2235
26.337
27.4701
28.6212
29.789
30.972
32.1685
33.3771
34.5963
35.8244
37.0602
38.3022
39.547
40.7836
42.0095
43.2225
44.4203
45.601
46.7625
47.9027
49.0195
50.1111
51.1752
52.2097
53.2127
54.1825
55.1172
56.0153
56.8752
57.6954
58.4745
59.2114
59.9047
60.5535
61.1568
61.7138
62.2238
62.6861
63.1002
63.4658
63.7826
64.0505
64.2697
64.4401
64.5621
64.6362
64.6627
64.6422
64.5756
64.4636
64.3071
64.1071
63.8647
63.5811
63.2576
62.8954
62.496
62.0607
61.5911
61.0886
60.555
59.9916
59.4002
58.7824
58.1398
57.4741
56.7869
56.0799
55.3546
54.6126
53.8557
53.0852
52.3028
51.5099
50.7079
49.8984
49.0825
48.2617
47.4372
46.6102
45.7819
44.9535
44.126
43.3004
42.4777
41.659
40.8449
40.0363
39.2339
38.4386
37.6509
36.8716
36.1015
35.3411
34.5914
33.853
33.1266
32.4132
31.7136
31.0292
30.361
29.7105
29.0793
28.469
27.8808
27.3161
26.7734
26.2569
1.7159
0.803569
0.611158
0.54843
0.52724
0.525061
0.533746
0.549695
0.571119
0.597059
0.626993
0.66064
0.697869
0.73865
0.783027
0.831103
0.883033
0.939016
0.999298
1.06417
1.13395
1.20904
1.28982
1.37677
1.47039
1.57122
1.67989
1.79705
1.9234
2.05965
2.20656
2.36493
2.53568
2.71972
2.91806
3.13171
3.36176
3.60935
3.87572
4.16234
4.46938
4.79802
5.14951
5.52496
5.92548
6.3521
6.80581
7.28755
7.79819
8.33854
8.90933
9.51122
10.1448
10.8105
11.5084
12.2386
13.001
13.7956
14.6224
15.4811
16.3713
17.2925
18.2442
19.2256
20.2359
21.2743
22.3397
23.431
24.5472
25.6869
26.8488
28.0316
29.2337
30.4535
31.6893
32.9395
34.2025
35.4769
36.7609
38.0532
39.3525
40.657
41.9666
43.2704
44.5613
45.8377
47.0975
48.3386
49.5591
50.7567
51.9296
53.0758
54.1934
55.2803
56.3349
57.3552
58.3396
59.2862
60.1938
61.0606
61.8855
62.6671
63.4043
64.096
64.7412
65.3392
65.889
66.3901
66.8421
67.2443
67.5967
67.8988
68.1508
68.3527
68.5047
68.607
68.6601
68.6646
68.621
68.5301
68.3928
68.2099
67.9826
67.7118
67.3989
67.045
66.6515
66.2198
65.7513
65.2476
64.7102
64.1407
63.5407
62.9118
62.2556
61.5739
60.8683
60.1405
59.3921
58.6248
57.8402
57.04
56.2257
55.3988
54.5609
53.7135
52.858
51.9958
51.1283
50.2567
49.3823
48.5063
47.6299
46.7541
45.88
45.0087
44.1411
43.278
42.4203
41.5688
40.7243
39.8874
39.0588
38.2393
37.4296
36.6302
35.8421
35.0658
34.3022
33.5521
32.8164
32.0963
31.393
30.7078
30.0422
29.3975
28.7751
28.176
27.5988
27.048
1.66362
0.787215
0.599031
0.537597
0.517118
0.515565
0.52498
0.541866
0.564507
0.592007
0.623906
0.659986
0.70019
0.744569
0.79326
0.846472
0.904479
0.967618
1.03628
1.11094
1.19211
1.28039
1.37642
1.48087
1.59451
1.7182
1.85286
1.99954
2.15938
2.33348
2.52252
2.72779
2.95058
3.19217
3.45386
3.73695
4.04278
4.37264
4.72786
5.10964
5.51894
5.95678
6.42418
6.92208
7.45131
8.01261
8.60657
9.2337
9.89435
10.5888
11.3171
12.0793
12.8754
13.7049
14.5674
15.4625
16.3893
17.3473
18.3357
19.3534
20.3996
21.4733
22.5733
23.6984
24.8475
26.0192
27.2123
28.4253
29.6569
30.9056
32.17
33.4485
34.7398
36.0423
37.3544
38.6747
40.0016
41.3343
42.671
44.0107
45.3535
46.6889
48.0074
49.3092
50.5921
51.8543
53.0938
54.3088
55.4975
56.658
57.7886
58.8877
59.9534
60.9843
61.9788
62.9353
63.8524
64.7287
65.5629
66.3539
67.1005
67.8017
68.4566
69.0644
69.6244
70.1358
70.5982
71.0112
71.3743
71.6875
71.9505
72.1635
72.3264
72.4396
72.5033
72.518
72.4842
72.4026
72.2739
72.0989
71.8786
71.614
71.3062
70.9563
70.5657
70.1355
69.6672
69.1623
68.6221
68.0482
67.4421
66.8056
66.14
65.4471
64.7286
63.986
63.221
62.4353
61.6305
60.8082
59.97
59.1174
58.2521
57.3756
56.4892
55.5945
54.6929
53.7857
52.8741
51.9596
51.0432
50.1261
49.2095
48.2944
47.3818
46.4726
45.5678
44.6683
43.7747
42.8879
42.0087
41.1376
40.2754
39.4226
38.5801
37.7484
36.9283
36.1204
35.3256
34.5445
33.7783
33.0278
32.2944
31.5792
30.8837
30.2091
29.5565
28.9272
28.3193
27.7382
1.61817
0.770707
0.587579
0.528916
0.51084
0.511804
0.524065
0.544264
0.570798
0.602887
0.64019
0.682627
0.730295
0.783422
0.842346
0.907504
0.979432
1.05877
1.14622
1.24257
1.34878
1.46597
1.59539
1.73776
1.8945
2.06704
2.25687
2.46556
2.6947
2.94586
3.22053
3.52031
3.8468
4.20154
4.586
5.00155
5.44945
5.93081
6.4466
6.99757
7.58426
8.20704
8.86612
9.56156
10.2932
11.0608
11.8639
12.7018
13.5739
14.4793
15.417
16.386
17.3851
18.4132
19.4689
20.551
21.6581
22.7889
23.9419
25.1158
26.3091
27.5207
28.749
29.9929
31.2508
32.5215
33.8036
35.0961
36.3975
37.7066
39.0221
40.3432
41.6684
42.9965