/*--------------------------------*- C++ -*----------------------------------*\
  =========                 |
  \\      /  F ield         | OpenFOAM: The Open Source CFD Toolbox
   \\    /   O peration     | Website:  https://openfoam.org
    \\  /    A nd           | Version:  7
     \\/     M anipulation  |
\*---------------------------------------------------------------------------*/
FoamFile
{
    version     2.0;
    format      ascii;
    class       volScalarField;
    location    "0.28";
    object      p;
}
// * * * * * * * * * * * * * * * * * * * * * * * * * * * * * * * * * * * * * //

dimensions      [0 2 -2 0 0 0 0];

internalField   nonuniform List<scalar> 
12225
(
-2.37718
-1.78102
-1.71647
-1.76689
-1.70224
-1.60052
-1.52526
-1.47509
-1.43603
-1.40402
-1.37955
-1.36209
-1.35017
-1.34256
-1.33858
-1.33729
-1.33986
-1.33788
-3.72999
-2.49348
-1.96239
-1.82253
-1.70871
-1.59471
-1.51579
-1.46483
-1.42625
-1.39514
-1.37157
-1.35487
-1.3436
-1.33655
-1.33305
-1.33238
-1.33475
-1.33937
-3.4869
-2.30513
-1.84905
-1.76016
-1.67671
-1.57705
-1.50349
-1.45481
-1.41785
-1.38811
-1.36559
-1.34965
-1.33895
-1.33236
-1.32923
-1.32898
-1.33182
-1.33779
-3.04188
-2.19471
-1.82746
-1.74422
-1.66274
-1.56697
-1.4952
-1.44725
-1.41112
-1.38232
-1.36057
-1.34519
-1.33491
-1.32866
-1.32579
-1.32586
-1.32874
-1.33501
-2.74715
-2.17114
-1.83781
-1.7327
-1.64684
-1.55492
-1.48537
-1.43825
-1.40301
-1.37522
-1.35433
-1.33961
-1.32984
-1.324
-1.32146
-1.32181
-1.32461
-1.33066
-2.54047
-2.13541
-1.82916
-1.71069
-1.6259
-1.54011
-1.47366
-1.42777
-1.39365
-1.36704
-1.34713
-1.33315
-1.32396
-1.31859
-1.31639
-1.31696
-1.31971
-1.32537
-2.36304
-2.07295
-1.80446
-1.68325
-1.60191
-1.52271
-1.45984
-1.41559
-1.38287
-1.35762
-1.33883
-1.32571
-1.31718
-1.31232
-1.31049
-1.31126
-1.314
-1.3193
-2.20263
-1.99679
-1.77082
-1.65232
-1.57465
-1.50206
-1.44329
-1.40119
-1.37018
-1.34651
-1.32902
-1.3169
-1.30915
-1.30489
-1.30349
-1.30451
-1.3073
-1.31232
-2.05794
-1.91393
-1.72895
-1.61684
-1.54337
-1.47757
-1.42349
-1.38405
-1.35511
-1.33328
-1.3173
-1.30635
-1.29952
-1.29599
-1.29511
-1.29645
-1.29938
-1.30426
-1.92639
-1.82637
-1.67832
-1.57593
-1.50766
-1.44883
-1.39999
-1.36375
-1.33725
-1.31754
-1.30331
-1.29374
-1.288
-1.28532
-1.28509
-1.28685
-1.29004
-1.29494
-1.80458
-1.73534
-1.61935
-1.52919
-1.46724
-1.41549
-1.37236
-1.33988
-1.31624
-1.29895
-1.28672
-1.27877
-1.27431
-1.27264
-1.27319
-1.27552
-1.27909
-1.28417
-1.699
-1.64939
-1.55835
-1.48077
-1.42556
-1.38046
-1.34293
-1.31442
-1.29379
-1.27903
-1.2689
-1.26264
-1.25955
-1.25898
-1.2604
-1.26339
-1.26745
-1.27287
-1.59852
-1.56273
-1.49282
-1.42798
-1.38003
-1.34165
-1.30999
-1.28582
-1.26853
-1.25656
-1.24876
-1.2444
-1.24286
-1.24355
-1.24598
-1.24977
-1.25447
-1.26032
-1.48689
-1.46228
-1.41202
-1.36143
-1.32246
-1.29196
-1.26728
-1.24858
-1.23558
-1.22717
-1.22237
-1.22049
-1.22099
-1.22336
-1.22716
-1.23205
-1.23766
-1.24417
-1.36194
-1.34626
-1.31332
-1.2779
-1.24976
-1.22847
-1.21201
-1.20009
-1.19258
-1.18875
-1.18781
-1.18916
-1.19235
-1.19695
-1.20261
-1.20904
-1.21594
-1.22346
-1.22024
-1.2117
-1.19367
-1.17373
-1.15818
-1.14763
-1.1408
-1.13719
-1.13662
-1.13865
-1.14268
-1.14825
-1.15498
-1.16258
-1.17076
-1.17932
-1.18802
-1.19702
-1.05606
-1.05346
-1.04856
-1.04427
-1.04307
-1.04515
-1.0497
-1.05618
-1.06432
-1.0738
-1.08423
-1.09527
-1.10667
-1.11824
-1.12982
-1.14128
-1.15247
-1.16356
-0.859633
-0.862655
-0.870508
-0.882854
-0.898305
-0.915603
-0.933939
-0.952839
-0.971948
-0.99095
-1.00959
-1.02772
-1.04523
-1.06205
-1.07814
-1.09348
-1.10803
-1.122
-0.612979
-0.623184
-0.646676
-0.679591
-0.715986
-0.752527
-0.78827
-0.822887
-0.85595
-0.887114
-0.916273
-0.943482
-0.968838
-0.99244
-1.01439
-1.03481
-1.05379
-1.07161
-0.35223
-0.371952
-0.41601
-0.474546
-0.535235
-0.592939
-0.647412
-0.698729
-0.746333
-0.789899
-0.829617
-0.865859
-0.898955
-0.929189
-0.956833
-0.982155
-1.00537
-1.02686
-0.116694
-0.147833
-0.216759
-0.303758
-0.388448
-0.465566
-0.536966
-0.60313
-0.663186
-0.717001
-0.765262
-0.808715
-0.847904
-0.883286
-0.915298
-0.944354
-0.970775
-0.995042
0.123734
0.0750657
-0.0291912
-0.151095
-0.260655
-0.356505
-0.444425
-0.524739
-0.596012
-0.658688
-0.714222
-0.763742
-0.807973
-0.847551
-0.883088
-0.915135
-0.944109
-0.970568
0.37464
0.2981
0.14403
-0.018318
-0.151454
-0.264859
-0.368931
-0.462342
-0.543208
-0.613232
-0.674796
-0.72929
-0.77757
-0.820463
-0.858766
-0.893146
-0.924102
-0.952251
0.642533
0.520004
0.296924
0.0926385
-0.0593105
-0.18909
-0.309243
-0.414308
-0.502825
-0.578673
-0.645109
-0.703562
-0.75498
-0.800409
-0.840816
-0.876965
-0.909418
-0.938826
0.935979
0.739907
0.421833
0.179287
0.0171958
-0.127299
-0.263247
-0.378247
-0.472553
-0.552916
-0.623227
-0.684757
-0.738546
-0.785872
-0.827851
-0.865313
-0.898876
-0.92921
1.25992
0.963537
0.521663
0.244289
0.0783584
-0.0791553
-0.229051
-0.351667
-0.450206
-0.534116
-0.607495
-0.671381
-0.726947
-0.775688
-0.818832
-0.857255
-0.891622
-0.9226
1.59469
1.17403
0.611634
0.308223
0.131127
-0.0439211
-0.205533
-0.332942
-0.434368
-0.521119
-0.596924
-0.662594
-0.719492
-0.769307
-0.813338
-0.852483
-0.887461
-0.918939
1.93174
1.24508
0.649772
0.389423
0.198139
-0.00878707
-0.185542
-0.317816
-0.422202
-0.511809
-0.589815
-0.656919
-0.714785
-0.765328
-0.809919
-0.849476
-0.884789
-0.916562
2.56464
1.02584
0.383469
0.291064
0.173305
-0.0228084
-0.196827
-0.324526
-0.426327
-0.515364
-0.593374
-0.66043
-0.718176
-0.76858
-0.812994
-0.852282
-0.887208
-0.918738
4.96686
2.04137
0.750586
0.476002
0.272843
0.0244723
-0.174383
-0.312252
-0.418958
-0.511153
-0.59136
-0.659946
-0.718824
-0.770134
-0.81529
-0.855118
-0.890198
-0.92064
-1.48146
-1.48145
-1.48163
-1.48196
-1.48239
-1.4829
-1.48346
-1.4841
-1.4848
-1.48558
-1.48644
-1.4874
-1.48845
-1.48963
-1.49092
-1.49235
-1.49393
-1.49566
-1.49755
-1.49961
-1.50185
-1.50428
-1.50689
-1.5097
-1.51272
-1.51594
-1.51937
-1.52301
-1.52686
-1.53093
-1.53522
-1.53972
-1.54443
-1.54936
-1.55449
-1.55984
-1.56539
-1.57113
-1.57707
-1.58319
-1.58949
-1.59596
-1.60259
-1.60937
-1.61628
-1.62332
-1.63047
-1.63771
-1.64504
-1.65242
-1.65984
-1.66727
-1.6747
-1.68208
-1.68941
-1.69664
-1.70374
-1.7107
-1.71749
-1.7241
-1.73051
-1.73667
-1.7425
-1.74795
-1.75295
-1.75732
-1.76116
-1.76457
-1.76774
-1.77271
-1.77598
-1.77864
-1.78808
-1.78236
-1.76099
-1.74275
-1.74567
-1.76484
-1.75892
-1.73978
-1.7247
-1.70721
-1.69192
-1.67668
-1.65938
-1.64089
-1.62095
-1.59949
-1.57643
-1.55171
-1.52533
-1.49727
-1.46753
-1.43606
-1.40283
-1.36771
-1.33077
-1.29203
-1.2515
-1.2092
-1.16513
-1.11932
-1.07178
-1.02254
-0.971625
-0.919076
-0.864927
-0.809223
-0.752009
-0.693336
-0.63326
-0.571838
-0.509132
-0.445208
-0.380134
-0.31398
-0.246819
-0.178727
-0.109782
-0.0400623
0.0303516
0.101378
0.172935
0.244941
0.317312
0.389966
0.462822
0.5358
0.608818
0.6818
0.754668
0.827346
0.899762
0.971845
1.04353
1.11474
1.18542
1.25551
1.32494
1.39368
1.46166
1.52883
1.59516
1.6606
1.72511
1.78865
1.85121
1.91274
1.97323
2.03265
2.09099
2.14824
2.20437
2.25941
2.31333
2.36614
2.41785
2.46811
2.5159
2.5634
2.6079
2.65868
2.70684
2.74629
2.78733
2.82849
2.86864
2.9056
2.93741
2.98083
3.02292
3.0516
3.08142
3.10507
3.13744
3.1833
3.20771
3.23601
3.267
3.29485
-1.4809
-1.48101
-1.48122
-1.48151
-1.48183
-1.48215
-1.48249
-1.48288
-1.48335
-1.48392
-1.48459
-1.48538
-1.48629
-1.48733
-1.4885
-1.48981
-1.49128
-1.49291
-1.49471
-1.49668
-1.49883
-1.50118
-1.50371
-1.50645
-1.50939
-1.51253
-1.51589
-1.51945
-1.52323
-1.52722
-1.53143
-1.53585
-1.54048
-1.54532
-1.55037
-1.55562
-1.56107
-1.56672
-1.57255
-1.57857
-1.58475
-1.59111
-1.59761
-1.60426
-1.61105
-1.61795
-1.62495
-1.63204
-1.6392
-1.6464
-1.65363
-1.66086
-1.66807
-1.67523
-1.68231
-1.6893
-1.69615
-1.70284
-1.70932
-1.71554
-1.72141
-1.72686
-1.73187
-1.73643
-1.74057
-1.74446
-1.74806
-1.75118
-1.75363
-1.75329
-1.75307
-1.75336
-1.7441
-1.74219
-1.75206
-1.76003
-1.74999
-1.72261
-1.71325
-1.71266
-1.70461
-1.69902
-1.68914
-1.6738
-1.65746
-1.63963
-1.62027
-1.5993
-1.57671
-1.55245
-1.5265
-1.49884
-1.46945
-1.43822
-1.40514
-1.37036
-1.33384
-1.29555
-1.25549
-1.21365
-1.17006
-1.12472
-1.07766
-1.0289
-0.978458
-0.926379
-0.872697
-0.817453
-0.760694
-0.702468
-0.642829
-0.581836
-0.519549
-0.456031
-0.391351
-0.325578
-0.258784
-0.191044
-0.122435
-0.0530356
0.0170749
0.0878153
0.159104
0.230859
0.302998
0.375439
0.448101
0.520902
0.593764
0.666608
0.739357
0.811935
0.884269
0.956289
1.02792
1.09911
1.16978
1.23987
1.30933
1.3781
1.44613
1.51337
1.57977
1.6453
1.70992
1.77358
1.83626
1.89793
1.95856
2.01813
2.07663
2.13404
2.19034
2.24554
2.29962
2.35257
2.4044
2.45503
2.50408
2.55204
2.60083
2.64566
2.68943
2.73381
2.77663
2.81742
2.85668
2.89561
2.93711
2.97129
3.00379
3.03972
3.07287
3.10856
3.14078
3.1648
3.1983
3.22896
3.26329
3.29948
-1.47932
-1.47975
-1.48023
-1.48069
-1.48102
-1.48128
-1.48152
-1.48179
-1.48215
-1.4826
-1.48317
-1.48386
-1.48469
-1.48565
-1.48675
-1.48801
-1.48942
-1.491
-1.49275
-1.49467
-1.49678
-1.49907
-1.50156
-1.50424
-1.50712
-1.51021
-1.5135
-1.51699
-1.5207
-1.52462
-1.52874
-1.53308
-1.53762
-1.54237
-1.54733
-1.55249
-1.55784
-1.56339
-1.56913
-1.57505
-1.58114
-1.5874
-1.59382
-1.60038
-1.60708
-1.61391
-1.62084
-1.62787
-1.63497
-1.64213
-1.64933
-1.65654
-1.66375
-1.67092
-1.67804
-1.68507
-1.69199
-1.69877
-1.70538
-1.71178
-1.71791
-1.72372
-1.72919
-1.73428
-1.73897
-1.74324
-1.74707
-1.75032
-1.75296
-1.7542
-1.75404
-1.75318
-1.75005
-1.74829
-1.74966
-1.75025
-1.74467
-1.73243
-1.72361
-1.71699
-1.70784
-1.69788
-1.68582
-1.67123
-1.65529
-1.63788
-1.61892
-1.59837
-1.5762
-1.55238
-1.52688
-1.49966
-1.47067
-1.43999
-1.4075
-1.37326
-1.33727
-1.29951
-1.25999
-1.2187
-1.17566
-1.13088
-1.08437
-1.03616
-0.986282
-0.934759
-0.88163
-0.826934
-0.770717
-0.713027
-0.653916
-0.59344
-0.53166
-0.468638
-0.40444
-0.339135
-0.272795
-0.205492
-0.137304
-0.0683067
0.00141991
0.0717959
0.14274
0.214171
0.286007
0.358166
0.430568
0.503132
0.575779
0.64843
0.721008
0.793437
0.865645
0.937559
1.00911
1.08023
1.15086
1.22093
1.29039
1.35918
1.42724
1.49454
1.56101
1.62663
1.69134
1.75512
1.81793
1.87975
1.94054
2.00028
2.05895
2.11654
2.17304
2.22842
2.28267
2.33575
2.3876
2.43848
2.48831
2.53693
2.58599
2.63137
2.67402
2.71875
2.76204
2.80327
2.84304
2.88261
2.92365
2.95893
2.99109
3.02711
3.06139
3.09709
3.12987
3.15498
3.18733
3.21919
3.25348
3.28627
-1.47698
-1.47767
-1.47856
-1.47935
-1.4799
-1.48029
-1.48062
-1.48095
-1.48132
-1.48179
-1.48236
-1.48305
-1.48387
-1.48483
-1.48594
-1.4872
-1.48862
-1.49021
-1.49196
-1.49389
-1.496
-1.4983
-1.50078
-1.50345
-1.50632
-1.50939
-1.51266
-1.51613
-1.5198
-1.52368
-1.52777
-1.53206
-1.53655
-1.54125
-1.54615
-1.55125
-1.55655
-1.56204
-1.56771
-1.57357
-1.57961
-1.58581
-1.59217
-1.59868
-1.60533
-1.61211
-1.619
-1.62599
-1.63306
-1.6402
-1.64738
-1.65458
-1.66178
-1.66896
-1.67609
-1.68314
-1.69009
-1.6969
-1.70354
-1.70996
-1.71612
-1.72198
-1.72748
-1.73259
-1.73728
-1.74151
-1.74521
-1.74832
-1.75074
-1.75231
-1.75278
-1.75217
-1.75068
-1.74904
-1.74765
-1.74524
-1.74033
-1.73299
-1.72516
-1.71706
-1.70778
-1.69711
-1.6847
-1.67056
-1.65501
-1.63793
-1.6193
-1.59907
-1.57723
-1.55375
-1.52858
-1.50172
-1.47311
-1.44279
-1.41071
-1.37689
-1.34131
-1.30397
-1.26487
-1.22402
-1.18141
-1.13706
-1.09099
-1.04322
-0.993769
-0.942679
-0.88998
-0.835712
-0.779917
-0.722644
-0.663944
-0.603872
-0.542488
-0.479852
-0.416032
-0.351093
-0.285108
-0.218149
-0.15029
-0.0816099
-0.0121857
0.0579026
0.128574
0.199749
0.271344
0.343279
0.415474
0.487848
0.560321
0.632816
0.705255
0.777564
0.849667
0.921495
0.992976
1.06404
1.13463
1.20469
1.27414
1.34294
1.41103
1.47836
1.54489
1.61057
1.67536
1.73923
1.80214
1.86407
1.92498
1.98485
2.04366
2.1014
2.15803
2.21356
2.26797
2.3212
2.37319
2.42418
2.47436
2.5233
2.5717
2.61785
2.6613
2.70554
2.74883
2.79043
2.83065
2.87039
2.91022
2.94669
2.98034
3.01575
3.05024
3.08486
3.11764
3.1457
3.17685
3.20839
3.24191
3.27013
-1.47447
-1.47543
-1.47676
-1.47794
-1.47879
-1.4794
-1.4799
-1.48037
-1.48086
-1.48141
-1.48205
-1.4828
-1.48368
-1.4847
-1.48585
-1.48716
-1.48863
-1.49026
-1.49205
-1.49401
-1.49616
-1.49848
-1.50098
-1.50367
-1.50655
-1.50963
-1.5129
-1.51637
-1.52003
-1.5239
-1.52797
-1.53224
-1.53671
-1.54138
-1.54626
-1.55133
-1.55659
-1.56205
-1.56769
-1.57352
-1.57952
-1.58569
-1.59203
-1.59851
-1.60514
-1.6119
-1.61878
-1.62576
-1.63282
-1.63996
-1.64714
-1.65435
-1.66157
-1.66876
-1.67591
-1.68299
-1.68996
-1.69679
-1.70344
-1.70988
-1.71606
-1.72192
-1.72743
-1.73254
-1.73721
-1.74139
-1.74503
-1.74809
-1.75045
-1.75202
-1.75274
-1.75255
-1.75151
-1.74991
-1.74779
-1.7446
-1.73976
-1.73331
-1.7259
-1.71764
-1.70826
-1.69756
-1.68528
-1.67144
-1.65613
-1.63928
-1.62088
-1.60089
-1.57928
-1.55604
-1.53112
-1.50452
-1.47619
-1.44614
-1.41435
-1.38082
-1.34553
-1.30849
-1.26968
-1.22911
-1.1868
-1.14275
-1.09697
-1.04949
-1.00034
-0.949541
-0.897132
-0.843151
-0.787642
-0.73065
-0.672227
-0.612427
-0.55131
-0.488936
-0.425371
-0.360681
-0.294937
-0.228211
-0.160578
-0.0921138
-0.0228966
0.0469943
0.117479
0.188476
0.259905
0.331684
0.403734
0.475975
0.548327
0.620712
0.693052
0.765274
0.837302
0.909066
0.980495
1.05152
1.12208
1.19211
1.26156
1.33036
1.39846
1.46581
1.53238
1.5981
1.66294
1.72687
1.78985
1.85185
1.91285
1.97281
2.03171
2.08955
2.14629
2.20193
2.25644
2.30979
2.36193
2.413
2.46322
2.51231
2.5604
2.60672
2.65099
2.6951
2.73827
2.78009
2.82059
2.86035
2.89964
2.93648
2.97118
3.0064
3.04086
3.07498
3.10756
3.13698
3.16772
3.19842
3.23089
3.25521
-1.4723
-1.47349
-1.47519
-1.47674
-1.47789
-1.47875
-1.47946
-1.48011
-1.48075
-1.48144
-1.4822
-1.48305
-1.48403
-1.48513
-1.48637
-1.48775
-1.48929
-1.49098
-1.49283
-1.49485
-1.49704
-1.49941
-1.50195
-1.50467
-1.50758
-1.51068
-1.51396
-1.51744
-1.52112
-1.52499
-1.52906
-1.53333
-1.53779
-1.54246
-1.54732
-1.55238
-1.55764
-1.56308
-1.56872
-1.57454
-1.58053
-1.5867
-1.59303
-1.59951
-1.60614
-1.61291
-1.61979
-1.62678
-1.63386
-1.64101
-1.64821
-1.65544
-1.66268
-1.6699
-1.67708
-1.68418
-1.69117
-1.69802
-1.7047
-1.71116
-1.71735
-1.72323
-1.72876
-1.73389
-1.73857
-1.74275
-1.7464
-1.74944
-1.75181
-1.75342
-1.75423
-1.75422
-1.7534
-1.75182
-1.74942
-1.74596
-1.74117
-1.73508
-1.72788
-1.71961
-1.71015
-1.69939
-1.68718
-1.67349
-1.6583
-1.6416
-1.62335
-1.60352
-1.58208
-1.559
-1.53426
-1.50784
-1.4797
-1.44985
-1.41826
-1.38492
-1.34983
-1.31297
-1.27436
-1.23399
-1.19186
-1.148
-1.10241
-1.05513
-1.00616
-0.955554
-0.903333
-0.849538
-0.794213
-0.737404
-0.679161
-0.61954
-0.558598
-0.496396
-0.432999
-0.368474
-0.302891
-0.236321
-0.16884
-0.100522
-0.0314453
0.0383107
0.108666
0.179541
0.250853
0.322524
0.394471
0.466617
0.538881
0.611185
0.683452
0.755608
0.827578
0.899291
0.970677
1.04167
1.1122
1.18221
1.25164
1.32043
1.38854
1.4559
1.52247
1.58822
1.65309
1.71706
1.78008
1.84212
1.90317
1.96319
2.02216
2.08006
2.13687
2.19258
2.24716
2.3006
2.35285
2.404
2.45421
2.50331
2.55127
2.59771
2.64246
2.68657
2.72974
2.77163
2.81229
2.85208
2.89109
2.92816
2.96345
2.99858
3.033
3.06677
3.09917
3.12926
3.15967
3.18954
3.22081
3.24174
-1.47084
-1.47219
-1.47416
-1.476
-1.47741
-1.4785
-1.47942
-1.48025
-1.48106
-1.48189
-1.48278
-1.48376
-1.48485
-1.48605
-1.48738
-1.48885
-1.49047
-1.49223
-1.49415
-1.49624
-1.49848
-1.5009
-1.50348
-1.50625
-1.50919
-1.51232
-1.51563
-1.51913
-1.52283
-1.52672
-1.5308
-1.53508
-1.53955
-1.54423
-1.5491
-1.55416
-1.55942
-1.56488
-1.57052
-1.57634
-1.58235
-1.58853
-1.59487
-1.60137
-1.60802
-1.6148
-1.62171
-1.62872
-1.63583
-1.643
-1.65024
-1.6575
-1.66477
-1.67202
-1.67923
-1.68636
-1.69338
-1.70026
-1.70696
-1.71343
-1.71965
-1.72555
-1.7311
-1.73625
-1.74095
-1.74515
-1.74881
-1.75186
-1.75425
-1.75591
-1.75678
-1.75685
-1.75611
-1.75452
-1.75203
-1.74848
-1.74375
-1.73781
-1.73073
-1.72249
-1.71301
-1.70221
-1.69002
-1.67638
-1.66126
-1.64464
-1.62648
-1.60675
-1.58541
-1.56244
-1.53781
-1.51151
-1.4835
-1.45376
-1.42229
-1.38907
-1.3541
-1.31736
-1.27886
-1.2386
-1.19659
-1.15284
-1.10737
-1.0602
-1.01135
-0.960849
-0.90874
-0.855057
-0.799844
-0.743146
-0.685014
-0.625502
-0.56467
-0.502576
-0.439287
-0.374868
-0.309389
-0.242922
-0.175541
-0.107322
-0.0383408
0.0313223
0.101588
0.172376
0.243605
0.315196
0.387068
0.459142
0.531339
0.60358
0.675788
0.747889
0.81981
0.891477
0.962823
1.03378
1.10428
1.17426
1.24367
1.31245
1.38054
1.44789
1.51447
1.58022
1.6451
1.70907
1.77211
1.83419
1.89526
1.95531
2.01432
2.07225
2.12911
2.18486
2.23949
2.29297
2.3453
2.39651
2.44672
2.49581
2.5437
2.59022
2.63527
2.67943
2.72259
2.76455
2.80531
2.84512
2.88396
2.92117
2.95683
2.99194
3.02629
3.0598
3.09201
3.12238
3.15243
3.18149
3.21165
3.22972
-1.47024
-1.47168
-1.47381
-1.47585
-1.47745
-1.47873
-1.47983
-1.48083
-1.48179
-1.48276
-1.48379
-1.48488
-1.48607
-1.48738
-1.4888
-1.49035
-1.49205
-1.49388
-1.49587
-1.49801
-1.50031
-1.50278
-1.50541
-1.50822
-1.5112
-1.51436
-1.5177
-1.52123
-1.52495
-1.52886
-1.53296
-1.53726
-1.54176
-1.54645
-1.55134
-1.55642
-1.5617
-1.56717
-1.57284
-1.57868
-1.58471
-1.59092
-1.59729
-1.60382
-1.6105
-1.61731
-1.62425
-1.6313
-1.63845
-1.64566
-1.65293
-1.66024
-1.66755
-1.67484
-1.68208
-1.68925
-1.6963
-1.70321
-1.70994
-1.71644
-1.72268
-1.72861
-1.73418
-1.73935
-1.74408
-1.7483
-1.75198
-1.75505
-1.75746
-1.75915
-1.76007
-1.76019
-1.75947
-1.75788
-1.75533
-1.75175
-1.74705
-1.74118
-1.73415
-1.72592
-1.71643
-1.70562
-1.69343
-1.6798
-1.66472
-1.64813
-1.63002
-1.61033
-1.58905
-1.56613
-1.54157
-1.51532
-1.48737
-1.4577
-1.42629
-1.39313
-1.35821
-1.32153
-1.28309
-1.24288
-1.20092
-1.15722
-1.1118
-1.06468
-1.01588
-0.965441
-0.913386
-0.859759
-0.804602
-0.747962
-0.689889
-0.630437
-0.569665
-0.507634
-0.444407
-0.380052
-0.314637
-0.248235
-0.180919
-0.112764
-0.0438469
0.0257526
0.0959553
0.166681
0.237849
0.30938
0.381194
0.453212
0.525354
0.597543
0.669701
0.741753
0.813627
0.885251
0.956555
1.02747
1.09794
1.16789
1.23726
1.30601
1.37408
1.44142
1.50797
1.57371
1.63858
1.70256
1.7656
1.82767
1.88876
1.94882
2.00784
2.06579
2.12266
2.17844
2.23309
2.28661
2.33898
2.39023
2.44043
2.4895
2.53737
2.58395
2.62918
2.67338
2.71656
2.75856
2.79939
2.83921
2.87794
2.91523
2.95114
2.98624
3.0205
3.0538
3.08582
3.11623
3.1459
3.17417
3.20333
3.21901
-1.47054
-1.472
-1.4742
-1.47633
-1.47806
-1.47948
-1.48071
-1.48184
-1.48293
-1.48402
-1.48515
-1.48635
-1.48763
-1.48902
-1.49052
-1.49215
-1.49391
-1.49581
-1.49785
-1.50004
-1.50239
-1.5049
-1.50757
-1.51042
-1.51343
-1.51662
-1.52
-1.52356
-1.5273
-1.53124
-1.53536
-1.53969
-1.54421
-1.54893
-1.55384
-1.55895
-1.56426
-1.56976
-1.57546
-1.58134
-1.58741
-1.59365
-1.60006
-1.60663
-1.61335
-1.62021
-1.62719
-1.63429
-1.64148
-1.64874
-1.65606
-1.66341
-1.67076
-1.6781
-1.68539
-1.69259
-1.69969
-1.70663
-1.71339
-1.71993
-1.72619
-1.73215
-1.73775
-1.74295
-1.74769
-1.75194
-1.75563
-1.75872
-1.76115
-1.76286
-1.76381
-1.76396
-1.76325
-1.76164
-1.75906
-1.75546
-1.75075
-1.74491
-1.73788
-1.72964
-1.72013
-1.7093
-1.69709
-1.68346
-1.66837
-1.65179
-1.63368
-1.614
-1.59273
-1.56983
-1.54528
-1.51905
-1.49111
-1.46146
-1.43006
-1.39691
-1.36199
-1.32532
-1.28688
-1.24668
-1.20472
-1.16103
-1.11561
-1.0685
-1.01971
-0.969277
-0.917235
-0.863623
-0.808483
-0.751862
-0.69381
-0.634383
-0.573638
-0.511637
-0.448442
-0.384121
-0.318744
-0.252381
-0.185105
-0.116993
-0.0481196
0.0214348
0.0915911
0.16227
0.23339
0.304873
0.376638
0.448607
0.5207
0.59284
0.66495
0.736955
0.808782
0.880358
0.951616
1.02249
1.09291
1.16282
1.23216
1.30087
1.3689
1.4362
1.50273
1.56844
1.6333
1.69725
1.76027
1.82234
1.88341
1.94346
2.00248
2.06043
2.11731
2.17308
2.22775
2.28128
2.33368
2.38494
2.43513
2.48419
2.53204
2.57866
2.62401
2.66825
2.71144
2.75347
2.79435
2.83416
2.87284
2.91018
2.94622
2.98131
3.01547
3.04858
3.08041
3.11072
3.14
3.16753
3.19579
3.20946
-1.47168
-1.4731
-1.47527
-1.47742
-1.4792
-1.4807
-1.48202
-1.48325
-1.48442
-1.4856
-1.48682
-1.48809
-1.48944
-1.49089
-1.49245
-1.49413
-1.49594
-1.49789
-1.49997
-1.5022
-1.50459
-1.50713
-1.50983
-1.51271
-1.51575
-1.51897
-1.52237
-1.52595
-1.52972
-1.53369
-1.53784
-1.54219
-1.54674
-1.55149
-1.55644
-1.56159
-1.56693
-1.57247
-1.57821
-1.58413
-1.59024
-1.59653
-1.60298
-1.6096
-1.61638
-1.62329
-1.63032
-1.63747
-1.64472
-1.65203
-1.6594
-1.6668
-1.67421
-1.68159
-1.68892
-1.69618
-1.70331
-1.71029
-1.71709
-1.72365
-1.72995
-1.73593
-1.74155
-1.74677
-1.75153
-1.75579
-1.7595
-1.76259
-1.76503
-1.76675
-1.76771
-1.76786
-1.76714
-1.76551
-1.7629
-1.75927
-1.75454
-1.74868
-1.74163
-1.73336
-1.72381
-1.71294
-1.70069
-1.68703
-1.67191
-1.6553
-1.63716
-1.61746
-1.59617
-1.57325
-1.54868
-1.52243
-1.49447
-1.46478
-1.43335
-1.40017
-1.36523
-1.32852
-1.29005
-1.24981
-1.20783
-1.16411
-1.11866
-1.07152
-1.02271
-0.972258
-0.920199
-0.866574
-0.811425
-0.754798
-0.696745
-0.63732
-0.576581
-0.51459
-0.451409
-0.387107
-0.32175
-0.255412
-0.188165
-0.120084
-0.0512454
0.0182718
0.0883887
0.159026
0.230103
0.30154
0.373258
0.445177
0.517219
0.589307
0.661365
0.733317
0.80509
0.876613
0.947817
1.01864
1.089
1.15886
1.22815
1.29681
1.3648
1.43206
1.49854
1.56421
1.62903
1.69295
1.75594
1.81797
1.87902
1.93905
1.99805
2.05599
2.11285
2.16862
2.22328
2.27681
2.32921
2.38048
2.43066
2.47969
2.52754
2.57418
2.61959
2.66388
2.70708
2.74913
2.79003
2.82983
2.86848
2.90585
2.94197
2.97703
3.0111
3.04403
3.07565
3.10577
3.13466
3.16149
3.18895
3.20093
-1.47353
-1.47487
-1.47694
-1.47903
-1.48081
-1.48233
-1.4837
-1.48497
-1.4862
-1.48743
-1.48869
-1.49001
-1.49141
-1.49289
-1.49449
-1.4962
-1.49804
-1.50001
-1.50212
-1.50437
-1.50678
-1.50934
-1.51206
-1.51496
-1.51802
-1.52126
-1.52468
-1.52829
-1.53209
-1.53608
-1.54026
-1.54464
-1.54923
-1.55401
-1.55899
-1.56418
-1.56957
-1.57515
-1.58093
-1.5869
-1.59306
-1.5994
-1.60591
-1.61258
-1.61941
-1.62638
-1.63347
-1.64068
-1.64797
-1.65534
-1.66277
-1.67022
-1.67767
-1.68511
-1.69248
-1.69977
-1.70695
-1.71396
-1.72079
-1.72738
-1.73369
-1.73969
-1.74533
-1.75055
-1.75532
-1.75958
-1.76328
-1.76637
-1.7688
-1.77051
-1.77146
-1.77158
-1.77083
-1.76916
-1.76652
-1.76283
-1.75806
-1.75216
-1.74506
-1.73674
-1.72713
-1.7162
-1.7039
-1.69018
-1.67501
-1.65834
-1.64016
-1.62041
-1.59907
-1.5761
-1.55147
-1.52516
-1.49715
-1.4674
-1.43592
-1.40267
-1.36767
-1.3309
-1.29237
-1.25208
-1.21004
-1.16627
-1.12077
-1.07359
-1.02473
-0.974242
-0.92215
-0.868496
-0.813324
-0.756679
-0.698612
-0.63918
-0.578439
-0.51645
-0.453277
-0.388987
-0.323647
-0.257331
-0.19011
-0.12206
-0.0532574
0.0162202
0.0862941
0.156885
0.227914
0.2993
0.370964
0.442827
0.51481
0.586838
0.658835
0.730724
0.802434
0.873891
0.945029
1.01578
1.08608
1.15588
1.2251
1.2937
1.36162
1.42882
1.49525
1.56086
1.62563
1.6895
1.75244
1.81443
1.87544
1.93544
1.9944
2.05231
2.10915
2.16489
2.21953
2.27305
2.32545
2.37671
2.42687
2.47588
2.52372
2.57037
2.61583
2.66014
2.70335
2.74541
2.78633
2.82612
2.86474
2.90213
2.93828
2.97331
3.00727
3.04003
3.07144
3.10133
3.12982
3.15601
3.18274
3.19332
-1.47595
-1.47718
-1.47911
-1.48108
-1.4828
-1.48429
-1.48564
-1.48692
-1.48816
-1.48941
-1.49068
-1.49201
-1.49342
-1.49492
-1.49652
-1.49824
-1.50008
-1.50206
-1.50417
-1.50643
-1.50885
-1.51142
-1.51415
-1.51706
-1.52014
-1.52339
-1.52683
-1.53046
-1.53428
-1.5383
-1.54251
-1.54692
-1.55154
-1.55636
-1.56138
-1.56661
-1.57204
-1.57767
-1.5835
-1.58952
-1.59573
-1.60212
-1.60869
-1.61542
-1.6223
-1.62932
-1.63647
-1.64373
-1.65107
-1.65849
-1.66596
-1.67346
-1.68096
-1.68842
-1.69583
-1.70315
-1.71035
-1.71738
-1.72422
-1.73082
-1.73714
-1.74314
-1.74877
-1.75399
-1.75874
-1.76298
-1.76665
-1.76972
-1.77211
-1.77378
-1.77468
-1.77476
-1.77396
-1.77223
-1.76952
-1.76577
-1.76093
-1.75496
-1.74779
-1.73939
-1.72971
-1.71871
-1.70633
-1.69254
-1.67729
-1.66056
-1.6423
-1.62249
-1.60107
-1.57803
-1.55332
-1.52694
-1.49884
-1.46901
-1.43745
-1.40412
-1.36904
-1.3322
-1.29359
-1.25323
-1.21112
-1.16728
-1.12173
-1.07449
-1.02559
-0.975054
-0.922925
-0.869239
-0.814041
-0.757378
-0.699301
-0.639863
-0.579123
-0.517142
-0.453982
-0.38971
-0.324395
-0.258108
-0.190922
-0.122912
-0.0541544
0.0152738
0.0852945
0.155828
0.226796
0.298119
0.369716
0.441508
0.51342
0.585373
0.657292
0.729103
0.800732
0.872109
0.943165
1.01383
1.08405
1.15376
1.2229
1.29142
1.35927
1.42639
1.49275
1.55829
1.62298
1.68679
1.74968
1.81161
1.87256
1.93251
1.99142
2.04929
2.10609
2.1618
2.21641
2.2699
2.32228
2.37353
2.42366
2.47265
2.52048
2.56713
2.61261
2.65694
2.70016
2.74223
2.78315
2.82293
2.86154
2.89892
2.93508
2.97007
3.00392
3.03651
3.06771
3.09733
3.12543
3.15102
3.1771
3.18652
-1.47879
-1.47989
-1.48163
-1.48344
-1.48505
-1.48647
-1.48777
-1.48901
-1.49022
-1.49144
-1.49269
-1.494
-1.49539
-1.49687
-1.49846
-1.50016
-1.50198
-1.50394
-1.50605
-1.5083
-1.51071
-1.51327
-1.51601
-1.51892
-1.522
-1.52527
-1.52872
-1.53237
-1.53621
-1.54025
-1.54449
-1.54893
-1.55358
-1.55844
-1.5635
-1.56877
-1.57424
-1.57992
-1.58579
-1.59186
-1.59812
-1.60456
-1.61117
-1.61795
-1.62487
-1.63194
-1.63913
-1.64643
-1.65381
-1.66127
-1.66877
-1.67629
-1.6838
-1.69129
-1.69871
-1.70603
-1.71323
-1.72026
-1.72708
-1.73366
-1.73996
-1.74593
-1.75152
-1.7567
-1.7614
-1.76559
-1.76921
-1.77221
-1.77454
-1.77614
-1.77698
-1.77698
-1.7761
-1.77429
-1.77149
-1.76765
-1.76272
-1.75666
-1.7494
-1.74091
-1.73114
-1.72004
-1.70758
-1.6937
-1.67837
-1.66156
-1.64322
-1.62332
-1.60181
-1.57867
-1.55387
-1.52739
-1.49919
-1.46928
-1.43762
-1.40421
-1.36905
-1.33212
-1.29344
-1.253
-1.21083
-1.16693
-1.12132
-1.07403
-1.02508
-0.974514
-0.922354
-0.868646
-0.813433
-0.756763
-0.698685
-0.639255
-0.578529
-0.516569
-0.453437
-0.389199
-0.323924
-0.257683
-0.190549
-0.122597
-0.0539027
0.0154575
0.0854055
0.155863
0.22675
0.297988
0.369497
0.441199
0.513018
0.584875
0.656697
0.728408
0.799936
0.871211
0.942164
1.01273
1.08285
1.15245
1.22149
1.28991
1.35766
1.42469
1.49096
1.55641
1.62102
1.68475
1.74755
1.80941
1.8703
1.93018
1.98903
2.04684
2.10359
2.15925
2.21382
2.26728
2.31963
2.37085
2.42095
2.46992
2.51773
2.56439
2.60988
2.65422
2.69743
2.73951
2.78043
2.8202
2.85879
2.89616
2.93231
2.96726
3.00099
3.03342
3.06441
3.09375
3.12146
3.14651
3.17198
3.18045
-1.48192
-1.48287
-1.48441
-1.48603
-1.48749
-1.48879
-1.49
-1.49115
-1.49229
-1.49344
-1.49463
-1.49589
-1.49722
-1.49865
-1.50019
-1.50185
-1.50364
-1.50557
-1.50765
-1.50987
-1.51226
-1.51482
-1.51755
-1.52045
-1.52354
-1.52681
-1.53027
-1.53393
-1.53779
-1.54185
-1.54611
-1.55058
-1.55526
-1.56015
-1.56524
-1.57054
-1.57605
-1.58176
-1.58767
-1.59377
-1.60006
-1.60654
-1.61318
-1.61998
-1.62693
-1.63402
-1.64123
-1.64853
-1.65593
-1.66338
-1.67088
-1.67839
-1.68589
-1.69335
-1.70074
-1.70803
-1.71519
-1.72217
-1.72894
-1.73547
-1.7417
-1.7476
-1.75311
-1.75821
-1.76283
-1.76693
-1.77045
-1.77336
-1.77559
-1.7771
-1.77782
-1.77772
-1.77674
-1.77482
-1.77191
-1.76797
-1.76294
-1.75677
-1.74941
-1.74082
-1.73095
-1.71976
-1.7072
-1.69324
-1.67782
-1.66093
-1.64249
-1.62249
-1.60088
-1.57764
-1.55274
-1.52616
-1.49787
-1.46786
-1.43611
-1.40262
-1.36738
-1.33038
-1.29163
-1.25113
-1.2089
-1.16495
-1.11931
-1.07198
-1.02301
-0.97242
-0.920251
-0.866541
-0.811334
-0.754678
-0.696623
-0.637224
-0.576536
-0.514621
-0.451542
-0.387365
-0.322157
-0.255989
-0.188934
-0.121066
-0.0524616
0.0168036
0.0866519
0.157005
0.227784
0.298911
0.370305
0.441891
0.513589
0.585325
0.657023
0.728609
0.800011
0.871159
0.941985
1.01242
1.08242
1.1519
1.22082
1.28912
1.35675
1.42366
1.48981
1.55516
1.61967
1.68329
1.74601
1.80778
1.86858
1.92838
1.98716
2.0449
2.10158
2.15719
2.21171
2.26512
2.31743
2.36862
2.41869
2.46763
2.51542
2.56206
2.60756
2.6519
2.69512
2.73719
2.77811
2.81787
2.85645
2.89381
2.92994
2.96483
2.99846
3.03073
3.0615
3.09057
3.1179
3.14245
3.16735
3.17508
-1.48522
-1.48604
-1.48735
-1.48876
-1.49004
-1.49118
-1.49224
-1.49327
-1.49428
-1.49532
-1.49641
-1.49757
-1.49881
-1.50016
-1.50163
-1.50323
-1.50496
-1.50685
-1.50888
-1.51108
-1.51344
-1.51597
-1.51869
-1.52158
-1.52466
-1.52793
-1.5314
-1.53507
-1.53893
-1.543
-1.54728
-1.55176
-1.55646
-1.56136
-1.56647
-1.57178
-1.5773
-1.58302
-1.58894
-1.59505
-1.60134
-1.6078
-1.61444
-1.62123
-1.62816
-1.63522
-1.64239
-1.64966
-1.65701
-1.66442
-1.67186
-1.6793
-1.68674
-1.69412
-1.70143
-1.70864
-1.7157
-1.72258
-1.72925
-1.73567
-1.74179
-1.74757
-1.75297
-1.75794
-1.76244
-1.76641
-1.76981
-1.77259
-1.7747
-1.77607
-1.77667
-1.77645
-1.77534
-1.7733
-1.77027
-1.76621
-1.76107
-1.75479
-1.74733
-1.73864
-1.72868
-1.7174
-1.70476
-1.69071
-1.67521
-1.65822
-1.63969
-1.61958
-1.59787
-1.57453
-1.54954
-1.52286
-1.49449
-1.46441
-1.43259
-1.39903
-1.36373
-1.32668
-1.28788
-1.24735
-1.20509
-1.16112
-1.11546
-1.06813
-1.01916
-0.968583
-0.916435
-0.862755
-0.807588
-0.75098
-0.692982
-0.633647
-0.573033
-0.511199
-0.448208
-0.384126
-0.319019
-0.25296
-0.186019
-0.118271
-0.0497914
0.0193441
0.0890584
0.159273
0.229911
0.300892
0.37214
0.443576
0.515123
0.586706
0.658249
0.72968
0.800926
0.871919
0.94259
1.01288
1.08271
1.15205
1.22082
1.28897
1.35646
1.42324
1.48926
1.55449
1.61887
1.68238
1.74498
1.80665
1.86735
1.92705
1.98575
2.04341
2.10002
2.15555
2.21001
2.26337
2.31563
2.36678
2.41681
2.46572
2.51349
2.56012
2.60561
2.64996
2.69317
2.73524
2.77616
2.81592
2.85448
2.89183
2.92793
2.96276
2.99629
3.0284
3.05896
3.08776
3.11474
3.13882
3.16319
3.17035
-1.48876
-1.48944
-1.49054
-1.49171
-1.49276
-1.49368
-1.49454
-1.49537
-1.4962
-1.49707
-1.498
-1.49902
-1.50013
-1.50137
-1.50274
-1.50425
-1.50591
-1.50773
-1.50971
-1.51186
-1.51418
-1.51668
-1.51937
-1.52224
-1.5253
-1.52856
-1.53201
-1.53566
-1.53952
-1.54357
-1.54783
-1.5523
-1.55697
-1.56185
-1.56693
-1.57221
-1.57769
-1.58337
-1.58923
-1.59528
-1.60151
-1.60791
-1.61446
-1.62117
-1.62801
-1.63497
-1.64204
-1.64921
-1.65644
-1.66372
-1.67103
-1.67835
-1.68564
-1.69289
-1.70005
-1.70711
-1.71401
-1.72074
-1.72726
-1.73351
-1.73947
-1.74509
-1.75033
-1.75514
-1.75948
-1.76329
-1.76653
-1.76916
-1.77111
-1.77234
-1.7728
-1.77243
-1.77119
-1.76902
-1.76588
-1.7617
-1.75645
-1.75007