/*--------------------------------*- C++ -*----------------------------------*\
  =========                 |
  \\      /  F ield         | OpenFOAM: The Open Source CFD Toolbox
   \\    /   O peration     | Website:  https://openfoam.org
    \\  /    A nd           | Version:  7
     \\/     M anipulation  |
\*---------------------------------------------------------------------------*/
FoamFile
{
    version     2.0;
    format      ascii;
    class       volVectorField;
    location    "0.28";
    object      U;
}
// * * * * * * * * * * * * * * * * * * * * * * * * * * * * * * * * * * * * * //

dimensions      [0 1 -1 0 0 0 0];

internalField   nonuniform List<vector> 
12225
(
(4.73347 -0.571241 0)
(4.31415 -0.430539 0)
(4.03362 -0.176988 0)
(3.82438 -0.0515566 0)
(3.64947 -0.00460948 0)
(3.50665 0.0100127 0)
(3.39575 0.0130641 0)
(3.3096 0.0124533 0)
(3.24033 0.0110262 0)
(3.18297 0.00968512 0)
(3.13461 0.0086089 0)
(3.09326 0.00775502 0)
(3.05738 0.00705232 0)
(3.02592 0.0064548 0)
(2.99797 0.00593411 0)
(2.97364 0.00543221 0)
(2.94924 0.00568669 0)
(2.93769 0.00230033 0)
(5.02997 0.295073 0)
(4.8422 0.245056 0)
(4.69196 0.169878 0)
(4.58579 0.107136 0)
(4.48719 0.0705187 0)
(4.39265 0.0517006 0)
(4.30768 0.0412026 0)
(4.23293 0.034254 0)
(4.16678 0.0291743 0)
(4.10817 0.0253562 0)
(4.05644 0.0224352 0)
(4.01081 0.0201376 0)
(3.97038 0.0182746 0)
(3.93443 0.0167415 0)
(3.90226 0.015404 0)
(3.87362 0.0144774 0)
(3.84742 0.0130063 0)
(3.82588 0.0149062 0)
(4.96336 0.187521 0)
(4.82997 0.103969 0)
(4.75456 0.0857273 0)
(4.7116 0.0765116 0)
(4.66623 0.0679666 0)
(4.61627 0.0608884 0)
(4.56785 0.0547149 0)
(4.5227 0.0490565 0)
(4.48041 0.0440513 0)
(4.44098 0.0398213 0)
(4.40465 0.0362906 0)
(4.37143 0.0333087 0)
(4.34112 0.0307483 0)
(4.31349 0.0285321 0)
(4.28829 0.0265632 0)
(4.26535 0.0249241 0)
(4.24466 0.0232456 0)
(4.22544 0.0226346 0)
(4.96282 0.171149 0)
(4.85057 0.102653 0)
(4.78993 0.0968053 0)
(4.7608 0.0902676 0)
(4.73316 0.0806654 0)
(4.70326 0.0725432 0)
(4.67492 0.0659092 0)
(4.64874 0.0600246 0)
(4.62395 0.0547989 0)
(4.60036 0.0502919 0)
(4.57817 0.0464298 0)
(4.55749 0.0430812 0)
(4.53829 0.0401383 0)
(4.52047 0.0375326 0)
(4.504 0.0351863 0)
(4.48877 0.033114 0)
(4.47505 0.0311001 0)
(4.46166 0.0294193 0)
(4.9736 0.195248 0)
(4.88122 0.129106 0)
(4.82305 0.114547 0)
(4.79436 0.101657 0)
(4.77169 0.0890938 0)
(4.74975 0.0798108 0)
(4.73036 0.0727286 0)
(4.71343 0.0666307 0)
(4.69791 0.0612538 0)
(4.68338 0.0565998 0)
(4.66985 0.0525807 0)
(4.65734 0.0490652 0)
(4.64575 0.0459481 0)
(4.63503 0.0431578 0)
(4.62514 0.0406242 0)
(4.61599 0.0383108 0)
(4.60782 0.0360924 0)
(4.59962 0.0339352 0)
(4.98217 0.218656 0)
(4.90833 0.150125 0)
(4.85343 0.126859 0)
(4.82377 0.110003 0)
(4.80229 0.0959013 0)
(4.78334 0.085717 0)
(4.76765 0.0780054 0)
(4.75483 0.071483 0)
(4.74377 0.0658056 0)
(4.73388 0.0609104 0)
(4.72502 0.0566804 0)
(4.71709 0.0529744 0)
(4.70996 0.0496813 0)
(4.70351 0.0467212 0)
(4.6977 0.0440228 0)
(4.69243 0.0415217 0)
(4.68786 0.0391375 0)
(4.68317 0.0367503 0)
(4.98795 0.235238 0)
(4.93048 0.166907 0)
(4.88099 0.138185 0)
(4.85125 0.118645 0)
(4.83002 0.103004 0)
(4.81219 0.0915484 0)
(4.79795 0.0828663 0)
(4.78687 0.0756689 0)
(4.77787 0.0695071 0)
(4.77028 0.0642325 0)
(4.76383 0.0596883 0)
(4.75835 0.0557157 0)
(4.75368 0.0521919 0)
(4.74966 0.0490251 0)
(4.74621 0.0461376 0)
(4.74322 0.0434516 0)
(4.74079 0.0409034 0)
(4.73825 0.0383699 0)
(4.9919 0.24733 0)
(4.94824 0.181993 0)
(4.90536 0.149796 0)
(4.87673 0.127876 0)
(4.85591 0.110521 0)
(4.83874 0.0975712 0)
(4.82516 0.0877154 0)
(4.81482 0.0796637 0)
(4.80674 0.0728635 0)
(4.80025 0.0670836 0)
(4.79502 0.0621251 0)
(4.79083 0.0578074 0)
(4.78747 0.0539914 0)
(4.78479 0.050572 0)
(4.78266 0.047462 0)
(4.78097 0.0445769 0)
(4.77976 0.041856 0)
(4.77848 0.0391938 0)
(4.99462 0.256579 0)
(4.96211 0.195554 0)
(4.92618 0.161126 0)
(4.89974 0.137185 0)
(4.87993 0.118245 0)
(4.8636 0.103812 0)
(4.85057 0.0927113 0)
(4.84065 0.0836986 0)
(4.83304 0.0761495 0)
(4.8271 0.0697643 0)
(4.82248 0.0643064 0)
(4.81895 0.0595726 0)
(4.81629 0.0554065 0)
(4.81432 0.0516883 0)
(4.81291 0.048321 0)
(4.81194 0.0452153 0)
(4.8114 0.0423079 0)
(4.81082 0.039511 0)
(4.99646 0.263627 0)
(4.97262 0.207254 0)
(4.94338 0.171632 0)
(4.91992 0.146171 0)
(4.90176 0.125938 0)
(4.88666 0.110167 0)
(4.87443 0.0978465 0)
(4.86499 0.087837 0)
(4.85776 0.0794795 0)
(4.85219 0.072424 0)
(4.84795 0.0664049 0)
(4.84479 0.0611995 0)
(4.84251 0.056635 0)
(4.84092 0.0525782 0)
(4.8399 0.0489221 0)
(4.83931 0.0455735 0)
(4.83912 0.0424643 0)
(4.83891 0.0395188 0)
(4.99767 0.268904 0)
(4.9804 0.217028 0)
(4.95721 0.181065 0)
(4.93713 0.154564 0)
(4.92109 0.133336 0)
(4.90762 0.116429 0)
(4.89653 0.102989 0)
(4.88783 0.0920132 0)
(4.88112 0.0828412 0)
(4.87596 0.0750917 0)
(4.87206 0.06848 0)
(4.8692 0.0627701 0)
(4.86719 0.0577758 0)
(4.86585 0.0533527 0)
(4.86506 0.0493851 0)
(4.86468 0.0457756 0)
(4.86469 0.0424514 0)
(4.86468 0.0393437 0)
(4.99839 0.272591 0)
(4.98561 0.224438 0)
(4.96721 0.188676 0)
(4.9503 0.161544 0)
(4.93642 0.139609 0)
(4.9247 0.121844 0)
(4.91494 0.107506 0)
(4.90717 0.0957157 0)
(4.90115 0.0858332 0)
(4.89652 0.0774634 0)
(4.89304 0.0703122 0)
(4.89052 0.0641362 0)
(4.88877 0.058741 0)
(4.88765 0.0539741 0)
(4.88704 0.0497136 0)
(4.88681 0.0458586 0)
(4.88695 0.0423332 0)
(4.88706 0.0390669 0)
(4.99887 0.275386 0)
(4.98949 0.230553 0)
(4.97518 0.195328 0)
(4.9613 0.167781 0)
(4.94963 0.145276 0)
(4.93976 0.126798 0)
(4.93149 0.111681 0)
(4.92485 0.0991557 0)
(4.91969 0.0886178 0)
(4.91575 0.0796669 0)
(4.91281 0.0720033 0)
(4.91071 0.0653798 0)
(4.9093 0.0595966 0)
(4.90845 0.0544953 0)
(4.90806 0.0499491 0)
(4.90801 0.0458537 0)
(4.90828 0.0421308 0)
(4.90852 0.038704 0)
(4.99923 0.277708 0)
(4.99273 0.236081 0)
(4.98229 0.201677 0)
(4.9716 0.17388 0)
(4.96242 0.150884 0)
(4.95468 0.131749 0)
(4.94822 0.115875 0)
(4.94303 0.102611 0)
(4.93904 0.091402 0)
(4.93605 0.0818478 0)
(4.93389 0.0736462 0)
(4.93242 0.0665485 0)
(4.93153 0.0603514 0)
(4.93109 0.0548919 0)
(4.93103 0.0500386 0)
(4.93126 0.0456841 0)
(4.93175 0.0417462 0)
(4.93217 0.0381468 0)
(4.99952 0.279545 0)
(4.99536 0.240727 0)
(4.9884 0.207276 0)
(4.98096 0.179373 0)
(4.97447 0.155956 0)
(4.96909 0.136228 0)
(4.9647 0.119645 0)
(4.96126 0.105666 0)
(4.95872 0.0937959 0)
(4.95695 0.0836446 0)
(4.95583 0.0749083 0)
(4.95523 0.0673382 0)
(4.95506 0.0607287 0)
(4.95523 0.0549125 0)
(4.95568 0.0497543 0)
(4.95632 0.0451431 0)
(4.95716 0.0409921 0)
(4.95789 0.037224 0)
(4.99973 0.280864 0)
(4.99746 0.244189 0)
(4.99359 0.211608 0)
(4.98936 0.183663 0)
(4.98574 0.15986 0)
(4.98291 0.139588 0)
(4.9808 0.12236 0)
(4.97936 0.107717 0)
(4.97854 0.0952236 0)
(4.97826 0.0845097 0)
(4.97841 0.0752724 0)
(4.97891 0.0672622 0)
(4.97968 0.0602716 0)
(4.98066 0.0541295 0)
(4.98179 0.0486962 0)
(4.98303 0.0438568 0)
(4.98437 0.0395196 0)
(4.98556 0.0356078 0)
(4.99991 0.281582 0)
(4.99922 0.246107 0)
(4.9981 0.214 0)
(4.99706 0.18591 0)
(4.9965 0.16169 0)
(4.99648 0.140897 0)
(4.99692 0.123094 0)
(4.99775 0.107871 0)
(4.99893 0.0948379 0)
(5.00039 0.0836422 0)
(5.00206 0.0739834 0)
(5.00388 0.0656099 0)
(5.0058 0.0583115 0)
(5.00777 0.0519133 0)
(5.00977 0.0462708 0)
(5.01177 0.0412648 0)
(5.01376 0.0367983 0)
(5.01555 0.0327952 0)
(5.00008 0.281514 0)
(5.00085 0.245904 0)
(5.00244 0.213474 0)
(5.00477 0.184878 0)
(5.00762 0.160101 0)
(5.0108 0.138774 0)
(5.01419 0.12047 0)
(5.01769 0.104792 0)
(5.02124 0.0913625 0)
(5.02478 0.0798345 0)
(5.02827 0.0699026 0)
(5.03168 0.0613091 0)
(5.03498 0.0538383 0)
(5.03817 0.0473105 0)
(5.04123 0.0415764 0)
(5.04415 0.0365123 0)
(5.04696 0.0320169 0)
(5.04949 0.0280143 0)
(5.00031 0.280218 0)
(5.00288 0.242308 0)
(5.00773 0.208091 0)
(5.01413 0.178242 0)
(5.02117 0.152631 0)
(5.02829 0.130756 0)
(5.0353 0.112105 0)
(5.04208 0.0962295 0)
(5.04856 0.0827138 0)
(5.05468 0.0711752 0)
(5.06043 0.0612841 0)
(5.06581 0.0527671 0)
(5.07084 0.0453982 0)
(5.07553 0.0389905 0)
(5.07992 0.0333892 0)
(5.084 0.0284674 0)
(5.08783 0.0241204 0)
(5.09129 0.0202736 0)
(5.00061 0.277666 0)
(5.00556 0.235152 0)
(5.01458 0.19759 0)
(5.02594 0.165744 0)
(5.03777 0.139078 0)
(5.04922 0.116711 0)
(5.06011 0.0979495 0)
(5.07036 0.0822354 0)
(5.07989 0.0690478 0)
(5.08865 0.057922 0)
(5.09668 0.0484796 0)
(5.10404 0.0404212 0)
(5.11079 0.0335049 0)
(5.11698 0.0275335 0)
(5.12267 0.022347 0)
(5.12791 0.0178162 0)
(5.13275 0.013836 0)
(5.13712 0.010333 0)
(5.00095 0.274073 0)
(5.00882 0.225403 0)
(5.02281 0.183989 0)
(5.03958 0.150393 0)
(5.05619 0.123129 0)
(5.07172 0.100728 0)
(5.0862 0.0823133 0)
(5.09958 0.0671993 0)
(5.11176 0.0547231 0)
(5.12277 0.0443251 0)
(5.1327 0.0355876 0)
(5.14169 0.0281956 0)
(5.14984 0.0218987 0)
(5.15724 0.0164959 0)
(5.16397 0.0118282 0)
(5.17011 0.00777003 0)
(5.17575 0.00422025 0)
(5.1808 0.00110965 0)
(5.00149 0.269084 0)
(5.01372 0.212411 0)
(5.03449 0.166906 0)
(5.05778 0.132089 0)
(5.07953 0.10473 0)
(5.09923 0.0827106 0)
(5.11732 0.0650576 0)
(5.13375 0.0509254 0)
(5.14841 0.0394652 0)
(5.16143 0.0300321 0)
(5.17303 0.0221918 0)
(5.18342 0.0156253 0)
(5.19272 0.0100789 0)
(5.20108 0.00535318 0)
(5.20861 0.00129506 0)
(5.21542 -0.00221397 0)
(5.2216 -0.00526804 0)
(5.22713 -0.00793147 0)
(5.00238 0.262161 0)
(5.0213 0.195493 0)
(5.05127 0.14637 0)
(5.08214 0.11131 0)
(5.10914 0.0844171 0)
(5.13296 0.0632216 0)
(5.15453 0.0468182 0)
(5.17371 0.0340901 0)
(5.19043 0.0239539 0)
(5.20501 0.0157156 0)
(5.21783 0.00895666 0)
(5.22915 0.00336468 0)
(5.23916 -0.00131222 0)
(5.24804 -0.00526537 0)
(5.25595 -0.0086361 0)
(5.26301 -0.0115319 0)
(5.26937 -0.0140371 0)
(5.27499 -0.0162098 0)
(5.00395 0.252443 0)
(5.03317 0.173602 0)
(5.07517 0.122464 0)
(5.11403 0.0887799 0)
(5.14578 0.0630461 0)
(5.1733 0.0431795 0)
(5.19783 0.0285447 0)
(5.21902 0.0176216 0)
(5.23699 0.00907694 0)
(5.25236 0.0022211 0)
(5.26567 -0.00331876 0)
(5.27724 -0.00783746 0)
(5.28732 -0.0115754 0)
(5.29612 -0.0147071 0)
(5.30385 -0.0173559 0)
(5.31066 -0.0196146 0)
(5.31669 -0.0215549 0)
(5.32196 -0.0232266 0)
(5.00664 0.239244 0)
(5.05115 0.146005 0)
(5.10793 0.0952187 0)
(5.15397 0.0649194 0)
(5.18899 0.041433 0)
(5.21919 0.0236835 0)
(5.24569 0.0113417 0)
(5.26778 0.00249319 0)
(5.28593 -0.00431801 0)
(5.30114 -0.00970172 0)
(5.31409 -0.013969 0)
(5.32513 -0.0173896 0)
(5.33453 -0.0201809 0)
(5.34256 -0.0224921 0)
(5.34945 -0.0244249 0)
(5.35538 -0.0260559 0)
(5.36051 -0.0274425 0)
(5.36487 -0.0286279 0)
(5.01051 0.222556 0)
(5.07591 0.115734 0)
(5.14966 0.067302 0)
(5.20127 0.0405875 0)
(5.23759 0.0200525 0)
(5.2689 0.00548446 0)
(5.29594 -0.00397176 0)
(5.31759 -0.0105791 0)
(5.33473 -0.0156303 0)
(5.3487 -0.0195413 0)
(5.36023 -0.0225485 0)
(5.3697 -0.0248917 0)
(5.37742 -0.0267579 0)
(5.38371 -0.0282669 0)
(5.38882 -0.0294989 0)
(5.39294 -0.0305154 0)
(5.39625 -0.03136 0)
(5.39884 -0.0320712 0)
(5.01612 0.196417 0)
(5.1084 0.0875785 0)
(5.19903 0.046371 0)
(5.25413 0.0197294 0)
(5.29026 -0.000111309 0)
(5.32098 -0.0113912 0)
(5.3465 -0.0174601 0)
(5.36571 -0.0215392 0)
(5.37994 -0.024694 0)
(5.39076 -0.027061 0)
(5.39895 -0.0287714 0)
(5.40491 -0.0300219 0)
(5.40903 -0.0309612 0)
(5.41168 -0.0316752 0)
(5.41317 -0.0322196 0)
(5.41371 -0.0326408 0)
(5.4135 -0.0329674 0)
(5.41268 -0.033232 0)
(5.02989 0.134583 0)
(5.15986 0.0475688 0)
(5.25805 0.0412229 0)
(5.30881 0.0216981 0)
(5.34242 -0.00174976 0)
(5.37065 -0.0156723 0)
(5.39128 -0.0222326 0)
(5.40376 -0.0258395 0)
(5.41044 -0.0281548 0)
(5.41334 -0.0295422 0)
(5.41345 -0.0302627 0)
(5.41129 -0.0305869 0)
(5.40739 -0.0306937 0)
(5.40222 -0.0306751 0)
(5.39614 -0.0305831 0)
(5.3894 -0.0304611 0)
(5.38221 -0.0303384 0)
(5.37474 -0.0302436 0)
(5.08133 -0.0500381 0)
(5.26819 -0.199284 0)
(5.34721 -0.137931 0)
(5.36473 -0.0864907 0)
(5.37841 -0.0639074 0)
(5.3912 -0.0517948 0)
(5.39344 -0.0435561 0)
(5.38486 -0.0382681 0)
(5.36999 -0.0349652 0)
(5.35211 -0.0326544 0)
(5.3326 -0.0308198 0)
(5.31216 -0.0292808 0)
(5.29133 -0.0279626 0)
(5.27054 -0.0268132 0)
(5.25006 -0.0257984 0)
(5.23006 -0.0249163 0)
(5.21065 -0.0241714 0)
(5.192 -0.0237517 0)
(5.01586 0.723718 0)
(5.23568 0.467498 0)
(5.2847 0.234421 0)
(5.2073 0.103783 0)
(5.10614 0.0382138 0)
(5.01515 0.00867791 0)
(4.93331 -0.00336591 0)
(4.85844 -0.00798493 0)
(4.79116 -0.0096544 0)
(4.73136 -0.0101219 0)
(4.67784 -0.0100948 0)
(4.62941 -0.0098926 0)
(4.58526 -0.00965575 0)
(4.54486 -0.00943552 0)
(4.50775 -0.00924476 0)
(4.4735 -0.00909877 0)
(4.44161 -0.0089998 0)
(4.41191 -0.00917395 0)
(0.00216875 -0.00557199 -1.4308e-20)
(0.00836855 -0.00937445 1.42749e-20)
(0.0143307 -0.00870668 0)
(0.0183474 -0.00588829 0)
(0.019887 -0.00242993 0)
(0.0188189 0.000770892 -1.35363e-20)
(0.0157601 0.00323042 0)
(0.0111669 0.00491598 0)
(0.00540432 0.00602589 0)
(-0.00123606 0.00679336 0)
(-0.00857279 0.00739203 1.29025e-20)
(-0.0165237 0.00791901 0)
(-0.0250401 0.00842228 0)
(-0.0340992 0.00892049 0)
(-0.0436914 0.00941701 0)
(-0.053811 0.00990883 1.17962e-20)
(-0.0644518 0.010391 0)
(-0.075606 0.0108585 0)
(-0.0872631 0.0113075 0)
(-0.0994106 0.0117347 0)
(-0.112034 0.0121379 0)
(-0.125116 0.0125159 0)
(-0.138641 0.0128679 0)
(-0.15259 0.0131936 1.01345e-20)
(-0.166944 0.0134934 -9.94534e-21)
(-0.181685 0.013768 9.76124e-21)
(-0.196794 0.0140183 9.58234e-21)
(-0.212254 0.0142454 0)
(-0.228045 0.0144506 0)
(-0.244153 0.0146354 -9.07772e-21)
(-0.260559 0.0148011 -8.92027e-21)
(-0.277249 0.0149491 0)
(-0.294207 0.0150809 0)
(-0.311419 0.0151979 -8.47975e-21)
(-0.328871 0.0153012 0)
(-0.346551 0.0153923 0)
(-0.364446 0.0154721 8.08516e-21)
(-0.382543 0.0155418 0)
(-0.400832 0.0156023 7.84608e-21)
(-0.419301 0.0156543 1.54667e-20)
(-0.437939 0.0156985 0)
(-0.456735 0.0157354 0)
(-0.475678 0.0157653 0)
(-0.494758 0.0157886 0)
(-0.513961 0.0158055 0)
(-0.533276 0.0158161 1.42858e-20)
(-0.55269 0.0158212 1.41152e-20)
(-0.572188 0.0158212 1.39514e-20)
(-0.591756 0.0158172 0)
(-0.611379 0.0158107 -1.36436e-20)
(-0.631042 0.0158032 0)
(-0.65073 0.0157962 1.3361e-20)
(-0.670431 0.0157908 1.32286e-20)
(-0.690131 0.0157871 0)
(-0.709818 0.0157831 0)
(-0.729478 0.0157739 0)
(-0.749089 0.0157499 1.27535e-20)
(-0.768619 0.0156989 0)
(-0.788024 0.0156209 0)
(-0.807256 0.0155576 0)
(-0.826297 0.0156161 0)
(-0.845186 0.0159307 0)
(-0.864003 0.0165486 0)
(-0.882855 0.0174283 0)
(-0.901831 0.0185156 0)
(-0.920836 0.0193587 -1.19775e-20)
(-0.939657 0.0193164 0)
(-0.957881 0.0189557 0)
(-0.975227 0.0184744 1.17651e-20)
(-0.992719 0.0207444 1.16979e-20)
(-1.01045 0.0270594 0)
(-1.02785 0.0199638 -1.15551e-20)
(-1.045 0.0273257 1.17418e-20)
(-1.06291 0.0325511 0)
(-1.08028 0.0161252 -1.2607e-20)
(-1.09315 0.000648254 0)
(-1.10491 0.00696856 0)
(-1.12023 0.0396187 1.10991e-20)
(-1.13855 0.0372632 0)
(-1.15426 0.0225693 -1.18578e-20)
(-1.16807 0.0291144 0)
(-1.18117 0.0152318 1.14949e-20)
(-1.18969 0.00252221 1.13366e-20)
(-1.19664 0.00586042 1.11562e-20)
(-1.20515 0.00551522 2.19342e-20)
(-1.21309 0.00527455 -2.15442e-20)
(-1.22063 0.00483858 0)
(-1.22751 0.00432852 0)
(-1.23368 0.00376453 0)
(-1.23905 0.00315972 -1.98661e-20)
(-1.24358 0.00252093 -1.94167e-20)
(-1.24721 0.00185888 1.89552e-20)
(-1.24988 0.00119328 0)
(-1.25152 0.000548001 -1.79955e-20)
(-1.25211 -3.81515e-05 -1.74922e-20)
(-1.25196 -0.000532387 -1.69752e-20)
(-1.25099 -0.00100204 0)
(-1.24923 -0.00146015 0)
(-1.24667 -0.00191272 0)
(-1.24332 -0.00236107 -1.47655e-20)
(-1.23917 -0.00280544 0)
(-1.23421 -0.00324554 0)
(-1.22844 -0.00368089 1.29584e-20)
(-1.22187 -0.00411097 0)
(-1.21449 -0.00453523 0)
(-1.20631 -0.00495312 1.1025e-20)
(-1.19732 -0.00536409 0)
(-1.18753 -0.0057676 0)
(-1.17695 -0.00616316 -8.97005e-21)
(-1.16558 -0.00655024 -8.2593e-21)
(-1.15342 -0.00692839 0)
(-1.14049 -0.00729713 6.80114e-21)
(-1.1268 -0.00765606 0)
(-1.11236 -0.00800476 -5.29675e-21)
(-1.09718 -0.00834287 0)
(-1.08127 -0.00867004 -3.74971e-21)
(-1.06464 -0.00898597 -2.96144e-21)
(-1.04732 -0.00929036 0)
(-1.02932 -0.00958292 0)
(-1.01064 -0.00986342 0)
(-0.991324 -0.0101316 0)
(-0.971373 -0.0103873 0)
(-0.950812 -0.0106304 0)
(-0.92966 -0.0108607 0)
(-0.907937 -0.0110781 3.6229e-21)
(-0.885665 -0.0112827 -4.47119e-21)
(-0.862865 -0.0114743 0)
(-0.83956 -0.0116529 0)
(-0.815772 -0.0118185 0)
(-0.791524 -0.0119713 0)
(-0.766839 -0.0121112 -1.74974e-20)
(-0.741741 -0.0122384 0)
(-0.716252 -0.0123531 2.09263e-20)
(-0.690397 -0.0124553 -2.26365e-20)
(-0.664198 -0.0125453 0)
(-0.637681 -0.0126232 0)
(-0.610867 -0.0126893 0)
(-0.583781 -0.012744 2.94152e-20)
(-0.556445 -0.0127874 3.10875e-20)
(-0.528882 -0.0128198 0)
(-0.501114 -0.0128416 3.43956e-20)
(-0.473164 -0.0128531 3.60288e-20)
(-0.445052 -0.0128547 -3.76466e-20)
(-0.4168 -0.0128467 0)
(-0.388427 -0.0128294 0)
(-0.359955 -0.0128033 -4.23954e-20)
(-0.331401 -0.0127686 0)
(-0.302786 -0.0127258 0)
(-0.274126 -0.0126752 0)
(-0.245439 -0.0126172 0)
(-0.216742 -0.0125528 4.98984e-20)
(-0.18805 -0.0124834 5.1329e-20)
(-0.159372 -0.0124123 0)
(-0.130698 -0.0123488 5.41151e-20)
(-0.10202 -0.0123265 0)
(-0.0733675 -0.0123803 0)
(-0.0443855 -0.0122762 5.81293e-20)
(-0.0148886 -0.0121317 0)
(0.0131842 -0.0110286 6.03813e-20)
(0.0435315 -0.0116021 0)
(0.0701553 -0.0102777 0)
(0.100061 -0.0108905 5.73198e-20)
(0.126038 -0.0121609 0)
(0.153083 -0.0110313 6.23809e-20)
(0.180357 -0.0088659 0)
(0.208101 -0.0102897 0)
(0.234217 -0.0119168 0)
(0.261567 -0.0107793 -6.33697e-20)
(0.28853 -0.004766 0)
(0.317598 -0.00704754 5.97595e-20)
(0.34243 -0.0127775 0)
(0.368793 -0.0109504 0)
(0.395694 -0.00938537 0)
(0.421916 -0.00449635 0)
(0.449355 -0.00284358 0)
(0.474851 -0.0117429 0)
(0.496916 -0.0082278 0)
(0.52044 -0.00350375 -1.21569e-19)
(0.538263 -0.000263373 0)
(0.53055 0.0102586 0)
(0.00206692 -0.016332 4.25739e-20)
(0.00522639 -0.0189429 -4.12449e-20)
(0.00534842 -0.0126899 0)
(0.00358396 -0.005195 2.48997e-20)
(0.000338164 0.00198553 0)
(-0.00415601 0.00824118 1.17288e-20)
(-0.00988089 0.0133333 -2.29012e-20)
(-0.016739 0.0172989 -2.24224e-20)
(-0.0246312 0.0203336 0)
(-0.0334441 0.0226857 -2.1532e-20)
(-0.0430578 0.0245854 -1.05611e-20)
(-0.0533631 0.0262044 0)
(-0.0642725 0.0276523 0)
(-0.0757193 0.0289924 0)
(-0.0876533 0.0302568 0)
(-0.100036 0.0314596 -9.53217e-21)
(-0.112836 0.0326049 0)
(-0.126028 0.0336925 1.82716e-20)
(-0.13959 0.0347203 0)
(-0.153501 0.0356861 0)
(-0.167743 0.0365884 -1.71957e-20)
(-0.182298 0.0374265 0)
(-0.197149 0.0382002 1.65278e-20)
(-0.212281 0.0389105 -8.11916e-21)
(-0.227678 0.0395588 7.96473e-21)
(-0.243326 0.040147 -7.81528e-21)
(-0.259212 0.0406775 -7.67076e-21)
(-0.275324 0.041153 0)
(-0.291651 0.0415762 0)
(-0.30818 0.04195 7.26611e-21)
(-0.324903 0.0422771 -7.11043e-21)
(-0.341808 0.0425604 0)
(-0.358889 0.0428023 0)
(-0.376135 0.0430053 6.79052e-21)
(-0.393538 0.0431716 0)
(-0.411091 0.0433032 0)
(-0.428786 0.0434018 -6.47773e-21)
(-0.446615 0.0434692 0)
(-0.464572 0.0435066 6.25651e-21)
(-0.482647 0.043515 -1.23976e-20)
(-0.500834 0.0434955 0)
(-0.519125 0.0434483 0)
(-0.537512 0.0433735 -2.37361e-20)
(-0.555986 0.0432709 -2.34294e-20)
(-0.574538 0.0431396 -2.31344e-20)
(-0.593159 0.0429784 1.13922e-20)
(-0.611839 0.0427862 -1.13228e-20)
(-0.630569 0.0425617 -3.35096e-20)
(-0.649337 0.0423046 2.20666e-20)
(-0.668134 0.042015 1.09474e-20)
(-0.686951 0.0416944 0)
(-0.705777 0.0413449 -1.07233e-20)
(-0.724604 0.0409691 1.05493e-20)
(-0.743423 0.0405683 0)
(-0.762224 0.0401414 0)
(-0.780995 0.0396821 0)
(-0.799726 0.0391781 -1.02519e-20)
(-0.818407 0.0386136 0)
(-0.837036 0.0379796 2.01324e-20)
(-0.855618 0.0372882 0)
(-0.874157 0.0365776 1.98895e-20)
(-0.89264 0.0358903 0)
(-0.911033 0.035228 -1.97198e-20)
(-0.929251 0.0345361 0)
(-0.947174 0.0337546 1.96346e-20)
(-0.964744 0.0328087 -9.77028e-21)
(-0.981949 0.0315973 0)
(-0.998924 0.0302416 -1.96055e-20)
(-1.01587 0.0288744 -9.83442e-21)
(-1.03207 0.0275348 -9.82559e-21)
(-1.04738 0.0267122 0)
(-1.06274 0.0254325 -9.6812e-21)
(-1.0768 0.0235719 -9.79997e-21)
(-1.08932 0.0230657 0)
(-1.10165 0.0236087 9.85782e-21)
(-1.11611 0.0232707 -1.94017e-20)
(-1.12986 0.0205084 0)
(-1.13954 0.017541 -9.27713e-21)
(-1.14703 0.0154168 0)
(-1.15536 0.0146047 2.78856e-20)
(-1.16317 0.0140909 0)
(-1.16985 0.0133127 -2.71229e-20)
(-1.17796 0.0129305 -8.9154e-21)
(-1.18627 0.012841 8.72872e-21)
(-1.1925 0.0122212 1.71567e-20)
(-1.19782 0.0112935 -1.68462e-20)
(-1.20236 0.0102075 0)
(-1.20616 0.00902394 0)
(-1.20926 0.0077835 0)
(-1.21166 0.00650394 4.65163e-20)
(-1.21338 0.00519409 1.51366e-20)
(-1.21443 0.00386244 -1.47606e-20)
(-1.21488 0.00253272 0)
(-1.21477 0.00124475 -1.40139e-20)
(-1.21413 6.53303e-06 1.35652e-20)
(-1.21274 -0.00116833 1.31455e-20)
(-1.2106 -0.00231593 0)
(-1.2077 -0.00344492 0)
(-1.20402 -0.0045604 0)
(-1.19956 -0.00566308 1.13679e-20)
(-1.1943 -0.00675244 0)
(-1.18825 -0.00782728 -2.09484e-20)
(-1.18141 -0.00888623 -2.99139e-20)
(-1.17376 -0.00992783 1.89956e-20)
(-1.16532 -0.0109506 0)
(-1.15608 -0.0119532 8.55592e-21)
(-1.14605 -0.0129342 0)
(-1.13523 -0.0138923 1.48714e-20)
(-1.12362 -0.0148262 -6.98292e-21)
(-1.11123 -0.0157348 -6.44187e-21)
(-1.09807 -0.0166169 0)
(-1.08415 -0.0174715 -1.5624e-20)
(-1.06947 -0.0182975 9.345e-21)
(-1.05406 -0.0190941 3.99425e-21)
(-1.0379 -0.0198605 0)
(-1.02104 -0.020596 2.81943e-21)
(-1.00346 -0.0212999 6.89903e-21)
(-0.985201 -0.0219718 0)
(-0.966264 -0.0226111 2.27459e-21)
(-0.94667 -0.0232173 1.06055e-21)
(-0.926435 -0.0237902 -1.61356e-22)
(-0.905579 -0.0243295 0)
(-0.884121 -0.024835 0)
(-0.862079 -0.0253066 0)
(-0.839475 -0.0257444 2.41874e-21)
(-0.81633 -0.0261484 3.31585e-21)
(-0.792665 -0.0265189 0)
(-0.768501 -0.026856 8.85604e-21)
(-0.743861 -0.0271601 1.01068e-20)
(-0.718769 -0.0274314 0)
(-0.693247 -0.0276705 1.28956e-20)
(-0.667317 -0.027878 2.77014e-20)
(-0.641005 -0.0280544 -1.53869e-20)
(-0.614332 -0.0282004 -1.60345e-20)
(-0.587322 -0.0283166 0)
(-0.56 -0.0284038 0)
(-0.532388 -0.0284629 0)
(-0.504509 -0.0284949 -2.15136e-20)
(-0.476386 -0.0285005 2.21184e-20)
(-0.448042 -0.0284807 4.72145e-20)
(-0.419499 -0.0284366 -2.50843e-20)
(-0.390779 -0.0283692 2.56602e-20)
(-0.361903 -0.0282795 2.74073e-20)
(-0.332892 -0.0281687 0)
(-0.303767 -0.0280377 0)
(-0.274546 -0.0278877 -3.02112e-20)
(-0.245249 -0.0277197 0)
(-0.215895 -0.0275347 0)
(-0.1865 -0.0273339 6.751e-20)
(-0.157083 -0.0271184 0)
(-0.127658 -0.0268897 3.55643e-20)
(-0.0982419 -0.0266505 -3.71341e-20)
(-0.0688463 -0.0264053 0)
(-0.0394807 -0.0261623 3.85704e-20)
(-0.010163 -0.0259406 0)
(0.0190545 -0.025785 0)
(0.0481441 -0.0257084 -4.13335e-20)
(0.0771043 -0.0253894 8.35793e-20)
(0.105956 -0.0249532 -4.25764e-20)
(0.133419 -0.0241903 0)
(0.162491 -0.0238951 0)
(0.189459 -0.0228937 4.13344e-20)
(0.218772 -0.0226218 0)
(0.247581 -0.0225528 4.45209e-20)
(0.276 -0.0224245 0)
(0.303622 -0.0217561 0)
(0.332206 -0.0214344 0)
(0.360268 -0.0217039 4.64163e-20)
(0.38835 -0.0221548 0)
(0.414089 -0.0208093 -4.4817e-20)
(0.442579 -0.0198252 0)
(0.470636 -0.0197063 0)
(0.497982 -0.0200456 9.52963e-20)
(0.525113 -0.0206583 -9.55685e-20)
(0.550287 -0.0194992 0)
(0.57567 -0.0174241 0)
(0.602569 -0.0166936 0)
(0.623483 -0.014311 2.79562e-19)
(0.645996 -0.00915796 0)
(0.653261 0.00329046 -1.89304e-19)
(0.000743126 -0.0198525 -3.72895e-23)
(-0.00136529 -0.0155216 5.32709e-20)
(-0.00566796 -0.00526129 0)
(-0.0108376 0.00459921 -4.51704e-20)
(-0.0168455 0.0134916 0)
(-0.0235584 0.0212805 0)
(-0.0309427 0.0279246 1.25511e-23)
(-0.0390151 0.0334601 1.93478e-20)
(-0.0477899 0.0380076 1.88797e-20)
(-0.0572523 0.0417419 1.84753e-20)
(-0.0673581 0.0448493 0)
(-0.0780464 0.0474946 0)
(-0.0892531 0.0498055 -1.73177e-20)
(-0.100919 0.0518719 -3.39187e-20)
(-0.112992 0.0537525 3.32217e-20)
(-0.12543 0.0554832 0)
(-0.138198 0.0570852 3.18848e-20)
(-0.151268 0.0585704 -1.56364e-20)
(-0.164615 0.0599459 0)
(-0.178222 0.0612162 3.00185e-20)
(-0.19207 0.0623849 1.47302e-20)
(-0.206146 0.0634553 -2.88646e-20)
(-0.220437 0.0644309 -1.41709e-20)
(-0.234931 0.0653152 0)
(-0.24962 0.0661124 2.72648e-20)
(-0.264495 0.0668266 2.67656e-20)
(-0.279546 0.0674623 0)
(-0.294768 0.0680239 2.58163e-20)
(-0.310154 0.0685158 0)
(-0.325697 0.0689423 2.49304e-20)
(-0.341391 0.0693074 1.22698e-20)
(-0.357231 0.0696149 0)
(-0.373212 0.0698685 0)
(-0.389328 0.0700711 0)
(-0.405574 0.0702257 0)
(-0.421945 0.0703348 0)
(-0.438435 0.0704005 0)
(-0.45504 0.0704245 2.19591e-20)
(-0.471752 0.0704084 -3.24849e-20)
(-0.488567 0.0703532 0)
(-0.505477 0.0702596 0)
(-0.522476 0.0701279 0)
(-0.539557 0.0699581 3.50377e-23)
(-0.556712 0.0697496 2.02789e-20)
(-0.573933 0.0695016 4.00237e-20)
(-0.591211 0.0692131 -3.95444e-20)
(-0.608538 0.0688834 -1.95241e-20)
(-0.625905 0.0685121 1.93391e-20)
(-0.643302 0.0680994 -3.58602e-23)
(-0.660718 0.0676467 1.88889e-20)
(-0.678145 0.0671558 0)
(-0.695571 0.0666291 1.85109e-20)
(-0.712984 0.0660683 -3.46623e-23)
(-0.730371 0.0654736 0)
(-0.747717 0.0648423 0)
(-0.765006 0.0641681 -1.78615e-20)
(-0.782222 0.0634432 0)
(-0.799352 0.0626624 0)
(-0.816383 0.0618317 1.74404e-20)
(-0.833304 0.0609742 3.47199e-20)
(-0.850086 0.0601243 -1.72876e-20)
(-0.866678 0.0593027 0)
(-0.883015 0.0584896 1.71189e-20)
(-0.899028 0.057625 0)
(-0.914649 0.0566285 1.69542e-20)
(-0.929864 0.0554122 1.6926e-20)
(-0.944727 0.0539416 -3.36968e-20)
(-0.959292 0.0523153 -1.67605e-20)
(-0.973624 0.050719 0)
(-0.987426 0.0492437 3.31655e-20)
(-1.00032 0.047717 0)
(-1.01285 0.0457394 4.90335e-20)
(-1.02501 0.0440616 3.23637e-20)
(-1.03608 0.0423339 3.21246e-20)
(-1.04669 0.0396192 -3.18132e-20)
(-1.05765 0.036847 4.72355e-20)
(-1.06851 0.0351727 0)
(-1.07751 0.0343563 0)
(-1.08499 0.0322614 -3.02306e-20)
(-1.09241 0.0294529 -4.47427e-20)
(-1.09936 0.0268406 0)
(-1.10611 0.023669 1.44837e-20)
(-1.11319 0.0210072 0)
(-1.11973 0.0192192 -4.19481e-20)
(-1.12521 0.0174009 -2.02995e-23)
(-1.12992 0.0155598 1.39699e-23)
(-1.13392 0.0136755 2.63577e-20)
(-1.13726 0.0117568 0)
(-1.13995 0.00981677 -2.52281e-20)
(-1.14198 0.00786732 1.0274e-23)
(-1.14338 0.0059197 0)
(-1.14414 0.00398521 0)
(-1.14425 0.00207772 0)
(-1.14372 0.000213247 2.21197e-20)
(-1.14251 -0.00162243 0)
(-1.14057 -0.00345118 0)
(-1.13789 -0.00526746 0)
(-1.13447 -0.00706868 0)
(-1.1303 -0.00885256 0)
(-1.12536 -0.0106168 1.79821e-20)
(-1.11966 -0.012359 0)
(-1.11319 -0.0140768 1.63934e-20)
(-1.10595 -0.0157677 1.56175e-20)
(-1.09793 -0.0174292 -1.48288e-20)
(-1.08914 -0.019059 0)
(-1.07958 -0.0206548 -1.32145e-20)
(-1.06924 -0.0222143 0)
(-1.05814 -0.0237356 -1.1553e-20)
(-1.04628 -0.0252166 1.07057e-20)
(-1.03366 -0.0266554 2.98245e-20)
(-1.02029 -0.0280502 0)
(-1.00618 -0.0293993 2.46125e-20)
(-0.991342 -0.0307013 7.53162e-21)
(-0.975778 -0.0319546 0)
(-0.959503 -0.0331582 1.11755e-20)
(-0.94253 -0.0343108 9.36646e-21)
(-0.924873 -0.0354115 -1.11378e-20)
(-0.906544 -0.0364596 0)
(-0.887561 -0.0374542 -1.74447e-21)
(-0.867938 -0.0383948 -8.12469e-22)
(-0.847693 -0.0392808 -2.02741e-23)
(-0.826843 -0.040112 0)
(-0.805406 -0.040888 0)
(-0.783403 -0.0416088 0)
(-0.760852 -0.0422746 3.47445e-21)
(-0.737774 -0.0428856 0)
(-0.714191 -0.0434422 0)
(-0.690122 -0.0439448 -6.72729e-21)
(-0.66559 -0.0443938 -7.66979e-21)
(-0.640618 -0.04479 0)
(-0.615227 -0.0451341 0)
(-0.589439 -0.0454273 -2.09617e-20)
(-0.563279 -0.0456705 0)
(-0.536768 -0.0458648 2.4669e-20)
(-0.50993 -0.0460114 2.60518e-20)
(-0.482787 -0.0461115 0)
(-0.455362 -0.0461667 0)
(-0.427678 -0.0461786 -3.14833e-20)
(-0.399757 -0.0461485 -4.5646e-22)
(-0.371621 -0.046078 -4.55847e-22)
(-0.343291 -0.045969 0)
(-0.31479 -0.0458232 -7.7461e-20)
(-0.286137 -0.0456422 0)
(-0.257353 -0.0454278 0)
(-0.228458 -0.045182 0)
(-0.199471 -0.0449064 4.56546e-20)
(-0.17041 -0.0446027 0)
(-0.141294 -0.0442729 -9.68558e-20)
(-0.112139 -0.0439187 -5.04345e-20)
(-0.0829608 -0.0435419 0)
(-0.053776 -0.0431447 -5.34947e-20)
(-0.0245986 -0.0427304 0)
(0.00455742 -0.0423041 0)
(0.0336782 -0.0418729 -1.71395e-19)
(0.0627462 -0.0414483 1.15971e-19)
(0.0917188 -0.041046 0)
(0.120533 -0.0406502 1.19831e-19)
(0.149276 -0.0401558 -6.13984e-20)
(0.177975 -0.0394286 0)
(0.206153 -0.0387634 0)
(0.234882 -0.038272 0)
(0.263013 -0.0375709 -1.9149e-19)
(0.291642 -0.0372126 0)
(0.319969 -0.0367572 -6.63834e-20)
(0.348326 -0.0361548 0)
(0.376429 -0.0357071 0)
(0.404615 -0.035505 0)
(0.432389 -0.0351539 0)
(0.460398 -0.0344286 0)
(0.487938 -0.0337558 0)
(0.515821 -0.0335684 -1.40815e-19)
(0.543343 -0.0331353 0)
(0.570618 -0.0326653 -7.18909e-20)
(0.597757 -0.031963 2.1651e-19)
(0.624493 -0.0307586 0)
(0.650552 -0.0297592 0)
(0.676217 -0.0278308 -1.46469e-19)
(0.69946 -0.0240778 -1.46881e-19)
(0.723212 -0.0174238 1.49064e-19)
(0.739499 -0.00411017 1.50095e-19)
(-0.00130955 -0.0150726 -8.3871e-20)
(-0.00713408 -0.0045973 -7.77486e-20)
(-0.0139919 0.00780209 -4.61162e-20)
(-0.0213093 0.0188011 -2.09526e-20)
(-0.0291292 0.0285893 0)
(-0.0372816 0.0372395 3.72972e-20)
(-0.0457587 0.044787 -1.79376e-20)
(-0.0546135 0.0512812 0)
(-0.0638947 0.0568104 -1.69403e-20)
(-0.0736269 0.061499 0)
(-0.0838095 0.065488 3.23001e-20)
(-0.0944214 0.068915 0)
(-0.10543 0.0718989 1.54664e-20)
(-0.116796 0.074534 3.02845e-20)
(-0.128484 0.0768905 -2.96581e-20)
(-0.140459 0.0790183 0)
(-0.152692 0.0809516 -2.84646e-20)
(-0.165157 0.082714 0)
(-0.177836 0.0843224 0)
(-0.190711 0.0857887 -2.68097e-20)
(-0.203769 0.0871227 0)
(-0.216999 0.0883325 5.12156e-24)
(-0.230392 0.0894253 0)
(-0.243941 0.0904078 0)
(-0.257638 0.0912867 -4.59072e-24)
(-0.27148 0.092068 -2.3943e-20)
(-0.285461 0.0927578 -2.35139e-20)
(-0.299577 0.0933617 -2.31083e-20)
(-0.313825 0.0938851 0)
(-0.328201 0.094333 -4.46535e-20)
(-0.342702 0.09471 0)
(-0.357325 0.0950204 -2.15974e-20)
(-0.372067 0.0952679 0)
(-0.386923 0.0954557 0)
(-0.401892 0.0955867 2.06001e-20)
(-0.416968 0.0956633 0)
(-0.432148 0.0956875 -1.9993e-20)
(-0.447427 0.0956608 -8.47391e-24)
(-0.462801 0.0955842 3.8867e-20)
(-0.478265 0.0954586 -3.83249e-20)
(-0.493812 0.0952841 0)
(-0.509436 0.0950606 0)
(-0.52513 0.0947876 -1.841e-20)
(-0.540888 0.094464 0)
(-0.5567 0.0940887 -1.7982e-20)
(-0.572559 0.0936604 1.77705e-20)
(-0.588456 0.0931779 1.75674e-20)
(-0.604381 0.0926406 0)
(-0.620324 0.0920483 -1.71855e-20)
(-0.636274 0.0914015 -1.70064e-20)
(-0.65222 0.0907011 3.36478e-20)