/*--------------------------------*- C++ -*----------------------------------*\
  =========                 |
  \\      /  F ield         | OpenFOAM: The Open Source CFD Toolbox
   \\    /   O peration     | Website:  https://openfoam.org
    \\  /    A nd           | Version:  7
     \\/     M anipulation  |
\*---------------------------------------------------------------------------*/
FoamFile
{
    version     2.0;
    format      ascii;
    class       surfaceScalarField;
    location    "0.018";
    object      phi_0;
}
// * * * * * * * * * * * * * * * * * * * * * * * * * * * * * * * * * * * * * //

dimensions      [0 3 -1 0 0 0 0];

internalField   nonuniform List<scalar> 
24170
(
1.37912e-06
2.2635e-07
1.24464e-06
1.34482e-07
1.13051e-06
1.14134e-07
1.02149e-06
1.09017e-07
9.08939e-07
1.1255e-07
8.01629e-07
1.0731e-07
7.09062e-07
9.2567e-08
6.32001e-07
7.70605e-08
5.6668e-07
6.53211e-08
5.10049e-07
5.66319e-08
4.61518e-07
4.85306e-08
4.2141e-07
4.01079e-08
3.89979e-07
3.14313e-08
3.66587e-07
2.33913e-08
3.49177e-07
1.74099e-08
3.37235e-07
1.19425e-08
3.23345e-07
1.389e-08
9.89893e-09
3.13446e-07
1.66014e-06
2.71599e-07
1.62601e-06
1.68609e-07
1.59193e-06
1.48211e-07
1.56196e-06
1.38996e-07
1.5288e-06
1.4571e-07
1.49021e-06
1.45897e-07
1.45083e-06
1.31944e-07
1.41383e-06
1.14058e-07
1.3786e-06
1.00557e-07
1.34283e-06
9.24042e-08
1.30594e-06
8.54163e-08
1.26917e-06
7.68732e-08
1.23481e-06
6.57937e-08
1.20455e-06
5.36495e-08
1.17846e-06
4.35004e-08
1.15585e-06
3.45529e-08
1.13688e-06
3.28592e-08
2.85807e-08
1.1182e-06
1.80674e-06
2.94318e-07
1.78122e-06
1.94128e-07
1.75256e-06
1.76873e-07
1.73655e-06
1.55004e-07
1.73383e-06
1.48437e-07
1.73084e-06
1.48884e-07
1.72108e-06
1.41707e-07
1.70813e-06
1.27006e-07
1.69667e-06
1.12014e-07
1.68783e-06
1.01247e-07
1.67966e-06
9.35803e-08
1.67019e-06
8.63495e-08
1.6583e-06
7.76816e-08
1.64471e-06
6.72356e-08
1.63071e-06
5.75009e-08
1.61705e-06
4.82133e-08
1.60683e-06
4.30804e-08
3.82595e-08
1.59715e-06
1.9453e-06
3.47929e-07
1.92514e-06
2.14295e-07
1.90561e-06
1.96398e-07
1.8854e-06
1.75211e-07
1.87343e-06
1.60412e-07
1.86626e-06
1.56056e-07
1.8594e-06
1.48563e-07
1.85302e-06
1.33388e-07
1.8487e-06
1.16335e-07
1.84678e-06
1.03168e-07
1.84578e-06
9.45749e-08
1.84399e-06
8.81454e-08
1.84019e-06
8.14833e-08
1.83433e-06
7.3089e-08
1.82763e-06
6.4207e-08
1.82084e-06
5.49997e-08
1.81635e-06
4.75687e-08
4.11018e-08
1.81351e-06
2.09645e-06
3.59571e-07
2.07115e-06
2.39597e-07
2.0596e-06
2.07941e-07
2.04242e-06
1.924e-07
2.02534e-06
1.77488e-07
2.01569e-06
1.6571e-07
2.01181e-06
1.52438e-07
2.00899e-06
1.36205e-07
2.00446e-06
1.20867e-07
1.99836e-06
1.09269e-07
1.99213e-06
1.00806e-07
1.98695e-06
9.33267e-08
1.98314e-06
8.52897e-08
1.98016e-06
7.60704e-08
1.97794e-06
6.64324e-08
1.97587e-06
5.70599e-08
1.97455e-06
4.88948e-08
4.18302e-08
1.97382e-06
2.23062e-06
3.64837e-07
2.20943e-06
2.60781e-07
2.18856e-06
2.28817e-07
2.16696e-06
2.13996e-07
2.15143e-06
1.9302e-07
2.14959e-06
1.67548e-07
2.15721e-06
1.44813e-07
2.16503e-06
1.2839e-07
2.16794e-06
1.17955e-07
2.16645e-06
1.1076e-07
2.16335e-06
1.03908e-07
2.16071e-06
9.59658e-08
2.15895e-06
8.70475e-08
2.15723e-06
7.77951e-08
2.1548e-06
6.88559e-08
2.15118e-06
6.06885e-08
2.14688e-06
5.31878e-08
4.6208e-08
2.1425e-06
2.3966e-06
3.81011e-07
2.38745e-06
2.69922e-07
2.37558e-06
2.40688e-07
2.36439e-06
2.25191e-07
2.35706e-06
2.0035e-07
2.3545e-06
1.7011e-07
2.35451e-06
1.448e-07
2.35455e-06
1.28346e-07
2.35414e-06
1.18365e-07
2.35401e-06
1.10896e-07
2.35417e-06
1.03745e-07
2.35363e-06
9.65067e-08
2.35111e-06
8.95635e-08
2.34613e-06
8.27779e-08
2.33945e-06
7.55379e-08
2.33252e-06
6.76206e-08
2.32717e-06
5.85316e-08
4.92667e-08
2.32411e-06
2.57042e-06
3.93784e-07
2.54507e-06
2.95278e-07
2.54451e-06
2.41248e-07
2.55201e-06
2.1769e-07
2.55155e-06
2.0081e-07
2.54474e-06
1.7692e-07
2.5391e-06
1.50441e-07
2.53834e-06
1.29101e-07
2.54133e-06
1.15379e-07
2.54475e-06
1.07475e-07
2.54548e-06
1.03008e-07
2.54195e-06
1.00036e-07
2.5345e-06
9.7017e-08
2.52506e-06
9.22187e-08
2.5163e-06
8.42932e-08
2.51045e-06
7.34775e-08
2.50871e-06
6.0266e-08
4.72242e-08
2.51076e-06
2.78016e-06
4.38398e-07
2.74311e-06
3.32321e-07
2.7168e-06
2.67564e-07
2.70797e-06
2.26517e-07
2.7029e-06
2.05883e-07
2.69754e-06
1.82272e-07
2.69422e-06
1.53766e-07
2.69443e-06
1.28893e-07
2.6971e-06
1.12704e-07
2.6998e-06
1.04779e-07
2.70067e-06
1.02134e-07
2.69947e-06
1.01244e-07
2.69747e-06
9.90092e-08
2.69637e-06
9.33169e-08
2.69733e-06
8.33388e-08
2.70058e-06
7.02221e-08
2.70526e-06
5.55911e-08
4.21105e-08
2.71037e-06
2.97874e-06
4.28462e-07
2.92272e-06
3.88339e-07
2.88955e-06
3.00734e-07
2.87782e-06
2.38247e-07
2.87854e-06
2.05159e-07
2.88338e-06
1.77431e-07
2.88828e-06
1.48872e-07
2.89369e-06
1.23482e-07
2.90097e-06
1.05423e-07
2.9093e-06
9.64462e-08
2.91647e-06
9.49699e-08
2.92082e-06
9.68935e-08
2.92246e-06
9.73712e-08
2.92253e-06
9.32434e-08
2.92219e-06
8.36773e-08
2.922e-06
7.04091e-08
2.92154e-06
5.60532e-08
4.34136e-08
2.92024e-06
3.17683e-06
5.09004e-07
3.13829e-06
4.26879e-07
3.12717e-06
3.1186e-07
3.1216e-06
2.43815e-07
3.1237e-06
2.03052e-07
3.12928e-06
1.71854e-07
3.13292e-06
1.45234e-07
3.13358e-06
1.22823e-07
3.13247e-06
1.0653e-07
3.13058e-06
9.83399e-08
3.12856e-06
9.69883e-08
3.12732e-06
9.81339e-08
3.12777e-06
9.69209e-08
3.1303e-06
9.07079e-08
3.13428e-06
7.96971e-08
3.13833e-06
6.63589e-08
3.14089e-06
5.34934e-08
4.35261e-08
3.14078e-06
2.86005e-06
4.58966e-07
2.88054e-06
4.06397e-07
2.85537e-06
3.37026e-07
2.8389e-06
2.60289e-07
2.84093e-06
2.01024e-07
2.8492e-06
1.63584e-07
2.85248e-06
1.41953e-07
2.84856e-06
1.26742e-07
2.84065e-06
1.14436e-07
2.83299e-06
1.06003e-07
2.82836e-06
1.01622e-07
2.82766e-06
9.8828e-08
2.83015e-06
9.44343e-08
2.83418e-06
8.66729e-08
2.83821e-06
7.56718e-08
2.84099e-06
6.35783e-08
2.84254e-06
5.19423e-08
4.33775e-08
2.84269e-06
3.49228e-06
5.10112e-07
3.45549e-06
4.4319e-07
3.44824e-06
3.44272e-07
3.44884e-06
2.59698e-07
3.44913e-06
2.00726e-07
3.44846e-06
1.64254e-07
3.44956e-06
1.40857e-07
3.45238e-06
1.23925e-07
3.45406e-06
1.12752e-07
3.4525e-06
1.07567e-07
3.44801e-06
1.06109e-07
3.44256e-06
1.04278e-07
3.43811e-06
9.88819e-08
3.43595e-06
8.8832e-08
3.43658e-06
7.50486e-08
3.43989e-06
6.02604e-08
3.44567e-06
4.61678e-08
3.5812e-08
3.45323e-06
4.24515e-06
4.98798e-07
4.26882e-06
4.19514e-07
4.27508e-06
3.38016e-07
4.2658e-06
2.68978e-07
4.25085e-06
2.15676e-07
4.23793e-06
1.77172e-07
4.22973e-06
1.49063e-07
4.22535e-06
1.28301e-07
4.2232e-06
1.14904e-07
4.22267e-06
1.08097e-07
4.22404e-06
1.04735e-07
4.22765e-06
1.00665e-07
4.23344e-06
9.30979e-08
4.24088e-06
8.13857e-08
4.24938e-06
6.65577e-08
4.25836e-06
5.12719e-08
4.26743e-06
3.71035e-08
2.69222e-08
4.27632e-06
5.14141e-06
5.32778e-07
5.15314e-06
4.07784e-07
5.16973e-06
3.21428e-07
5.16804e-06
2.70665e-07
5.16147e-06
2.22244e-07
5.16183e-06
1.76814e-07
5.17186e-06
1.39032e-07
5.18755e-06
1.12617e-07
5.20272e-06
9.97294e-08
5.21256e-06
9.82575e-08
5.21509e-06
1.02211e-07
5.21092e-06
1.04836e-07
5.20247e-06
1.01545e-07
5.19258e-06
9.12757e-08
5.18361e-06
7.55229e-08
5.17719e-06
5.7694e-08
5.17377e-06
4.05226e-08
2.71219e-08
5.17357e-06
6.39392e-06
4.96951e-07
6.37416e-06
4.27545e-07
6.35343e-06
3.42157e-07
6.33807e-06
2.86019e-07
6.33331e-06
2.2701e-07
6.33485e-06
1.75271e-07
6.33639e-06
1.3749e-07
6.33636e-06
1.12646e-07
6.33784e-06
9.82498e-08
6.34388e-06
9.22213e-08
6.35495e-06
9.11436e-08
6.36939e-06
9.03928e-08
6.38499e-06
8.59438e-08
6.3998e-06
7.6468e-08
6.41199e-06
6.33339e-08
6.42044e-06
4.92457e-08
6.42402e-06
3.69375e-08
2.80914e-08
6.42305e-06
7.6771e-06
4.58107e-07
7.71933e-06
3.85314e-07
7.74106e-06
3.20418e-07
7.76748e-06
2.59608e-07
7.78526e-06
2.09224e-07
7.78476e-06
1.75774e-07
7.76929e-06
1.52957e-07
7.75121e-06
1.30724e-07
7.74038e-06
1.09081e-07
7.74051e-06
9.20938e-08
7.75089e-06
8.076e-08
7.76854e-06
7.27484e-08
7.78945e-06
6.50345e-08
7.80925e-06
5.66704e-08
7.8242e-06
4.83832e-08
7.83203e-06
4.14157e-08
7.83238e-06
3.65845e-08
3.36335e-08
7.82684e-06
9.30883e-06
4.76926e-07
9.31443e-06
3.79714e-07
9.37269e-06
2.62163e-07
9.4275e-06
2.04802e-07
9.45476e-06
1.81955e-07
9.46027e-06
1.7027e-07
9.46086e-06
1.5237e-07
9.46476e-06
1.26822e-07
9.47145e-06
1.02391e-07
9.47824e-06
8.52984e-08
9.48404e-06
7.49632e-08
9.48921e-06
6.75747e-08
9.49449e-06
5.97521e-08
9.5003e-06
5.08657e-08
9.50701e-06
4.16714e-08
9.51501e-06
3.34172e-08
9.52527e-06
2.63262e-08
2.04645e-08
9.53844e-06
1.14083e-05
3.51504e-07
1.15137e-05
2.74317e-07
1.15524e-05
2.23428e-07
1.15722e-05
1.85006e-07
1.15855e-05
1.68667e-07
1.15953e-05
1.60471e-07
1.15971e-05
1.50626e-07
1.15907e-05
1.33137e-07
1.15837e-05
1.09406e-07
1.15823e-05
8.66749e-08
1.15875e-05
6.97698e-08
1.15963e-05
5.88484e-08
1.16046e-05
5.13769e-08
1.1611e-05
4.45084e-08
1.16167e-05
3.59876e-08
1.16246e-05
2.55421e-08
1.16376e-05
1.32716e-08
1.17539e-09
1.16569e-05
8.35353e-06
3.51857e-07
8.37308e-06
2.54768e-07
8.39404e-06
2.02467e-07
8.42387e-06
1.55173e-07
8.4644e-06
1.28141e-07
8.50678e-06
1.18086e-07
8.54284e-06
1.14566e-07
8.56751e-06
1.08469e-07
8.57975e-06
9.71698e-08
8.58299e-06
8.34329e-08
8.58217e-06
7.05827e-08
8.58206e-06
5.89618e-08
8.58636e-06
4.70829e-08
8.59711e-06
3.37515e-08
8.61452e-06
1.85799e-08
8.63752e-06
2.53857e-09
8.66323e-06
-1.24334e-08
-2.56749e-08
8.69008e-06
7.37102e-06
3.54534e-07
7.32566e-06
3.00129e-07
7.3116e-06
2.16523e-07
7.32641e-06
1.40362e-07
7.36166e-06
9.28988e-08
7.406e-06
7.37453e-08
7.44895e-06
7.16119e-08
7.48261e-06
7.48053e-08
7.50337e-06
7.64168e-08
7.51273e-06
7.40718e-08
7.51562e-06
6.76905e-08
7.51723e-06
5.73569e-08
7.52097e-06
4.33435e-08
7.52839e-06
2.63304e-08
7.53947e-06
7.49814e-09
7.55394e-06
-1.19286e-08
7.57105e-06
-2.95506e-08
-4.32423e-08
7.58862e-06
6.48002e-06
3.99383e-07
6.51042e-06
2.69731e-07
6.51417e-06
2.12776e-07
6.49926e-06
1.55272e-07
6.48497e-06
1.0719e-07
6.48136e-06
7.73461e-08
6.48917e-06
6.38104e-08
6.50414e-06
5.98316e-08
6.52266e-06
5.78999e-08
6.54318e-06
5.35453e-08
6.56503e-06
4.58399e-08
6.58747e-06
3.49216e-08
6.60986e-06
2.09515e-08
6.63174e-06
4.4518e-09
6.6511e-06
-1.18636e-08
6.66651e-06
-2.73384e-08
6.67757e-06
-4.06081e-08
-5.00305e-08
6.68436e-06
5.54502e-06
4.00255e-07
5.58186e-06
2.32889e-07
5.61894e-06
1.75689e-07
5.64226e-06
1.31958e-07
5.65796e-06
9.14877e-08
5.67224e-06
6.30639e-08
5.68965e-06
4.63987e-08
5.71301e-06
3.64791e-08
5.74224e-06
2.86667e-08
5.77442e-06
2.13676e-08
5.80511e-06
1.51481e-08
5.82998e-06
1.00504e-08
5.84605e-06
4.88502e-09
5.85219e-06
-1.68844e-09
5.85097e-06
-1.06507e-08
5.84441e-06
-2.07771e-08
5.83514e-06
-3.1333e-08
-4.10798e-08
5.82619e-06
4.77544e-06
3.86663e-07
4.83823e-06
1.70097e-07
4.88984e-06
1.24081e-07
4.92676e-06
9.50391e-08
4.95466e-06
6.3592e-08
4.98482e-06
3.29063e-08
5.02151e-06
9.70806e-09
5.06073e-06
-2.74966e-09
5.09639e-06
-6.98428e-09
5.12502e-06
-7.27032e-09
5.14608e-06
-5.90657e-09
5.16058e-06
-4.45052e-09
5.16996e-06
-4.49433e-09
5.17535e-06
-7.08415e-09
5.17693e-06
-1.22231e-08
5.1753e-06
-1.91492e-08
5.17106e-06
-2.70933e-08
-3.5272e-08
5.16525e-06
4.27198e-06
2.47111e-07
4.32242e-06
1.1966e-07
4.33595e-06
1.10547e-07
4.34164e-06
8.93462e-08
4.35641e-06
4.88275e-08
4.38212e-06
7.19273e-09
4.41281e-06
-2.09855e-08
4.43714e-06
-2.70773e-08
4.45148e-06
-2.1322e-08
4.45867e-06
-1.44649e-08
4.46432e-06
-1.15508e-08
4.4728e-06
-1.293e-08
4.48559e-06
-1.72823e-08
4.50144e-06
-2.29396e-08
4.51797e-06
-2.87487e-08
4.53293e-06
-3.41079e-08
4.54489e-06
-3.90563e-08
-4.38379e-08
4.55345e-06
3.74727e-06
1.97198e-07
3.78635e-06
8.05819e-08
3.81433e-06
8.25738e-08
3.84205e-06
6.16201e-08
3.8761e-06
1.47814e-08
3.90605e-06
-2.27579e-08
3.9243e-06
-3.92376e-08
3.93466e-06
-3.74376e-08
3.94319e-06
-2.98544e-08
3.9534e-06
-2.46764e-08
3.96493e-06
-2.30741e-08
3.97529e-06
-2.32873e-08
3.98203e-06
-2.40313e-08
3.98436e-06
-2.52619e-08
3.98328e-06
-2.76691e-08
3.98063e-06
-3.14566e-08
3.97823e-06
-3.66644e-08
-4.27346e-08
3.97713e-06
3.24737e-06
1.50614e-07
3.28715e-06
4.08036e-08
3.33017e-06
3.95613e-08
3.37307e-06
1.87194e-08
3.40036e-06
-1.25091e-08
3.41072e-06
-3.31238e-08
3.41201e-06
-4.05275e-08
3.41505e-06
-4.04753e-08
3.42379e-06
-3.85932e-08
3.43658e-06
-3.74712e-08
3.4504e-06
-3.68917e-08
3.46355e-06
-3.64311e-08
3.47597e-06
-3.64543e-08
3.48841e-06
-3.77082e-08
3.50105e-06
-4.03011e-08
3.51329e-06
-4.37051e-08
3.52376e-06
-4.71264e-08
-5.02888e-08
3.53131e-06
2.85092e-06
1.35256e-07
2.90246e-06
-1.0731e-08
2.94047e-06
1.55028e-09
2.97153e-06
-1.23433e-08
2.98949e-06
-3.04735e-08
2.99512e-06
-3.87536e-08
2.99611e-06
-4.15103e-08
2.9998e-06
-4.41715e-08
3.00888e-06
-4.76721e-08
3.02212e-06
-5.07064e-08
3.03733e-06
-5.21086e-08
3.05307e-06
-5.21626e-08
3.0684e-06
-5.17883e-08
3.08265e-06
-5.19544e-08
3.09497e-06
-5.26285e-08
3.10469e-06
-5.34232e-08
3.11121e-06
-5.36416e-08
-5.34079e-08
3.11433e-06
2.54372e-06
6.71477e-08
2.57824e-06
-4.52577e-08
2.59757e-06
-1.77772e-08
2.61162e-06
-2.63946e-08
2.625e-06
-4.38517e-08
2.63794e-06
-5.16963e-08
2.64961e-06
-5.31758e-08
2.65782e-06
-5.23869e-08
2.66055e-06
-5.03964e-08
2.65749e-06
-4.76469e-08
2.65057e-06
-4.51907e-08
2.64269e-06
-4.42768e-08
2.6362e-06
-4.53036e-08
2.63177e-06
-4.75208e-08
2.62842e-06
-4.92777e-08
2.62439e-06
-4.94004e-08
2.61805e-06
-4.7303e-08
-4.40473e-08
2.60869e-06
2.15032e-06
2.10506e-06
2.08728e-06
2.06089e-06
2.01704e-06
1.96534e-06
1.91217e-06
1.85978e-06
1.80938e-06
1.76174e-06
1.71655e-06
1.67227e-06
1.62696e-06
1.57944e-06
1.53017e-06
1.48077e-06
1.43346e-06
1.38942e-06
-1.778e-08
1.778e-08
-4.42155e-08
2.64355e-08
-7.3481e-08
2.92655e-08
-1.06935e-07
3.34542e-08
-1.4546e-07
3.85246e-08
-1.89672e-07
4.42121e-08
-2.39914e-07
5.02421e-08
-2.96333e-07
5.64189e-08
-3.58949e-07
6.26159e-08
-4.27702e-07
6.87531e-08
-5.02476e-07
7.47746e-08
-5.83107e-07
8.06304e-08
-6.69373e-07
8.62667e-08
-7.60998e-07
9.16249e-08
-8.57642e-07
9.66433e-08
-9.58905e-07
1.01263e-07
-1.06436e-06
1.05457e-07
-1.17353e-06
1.0917e-07
-1.28566e-06
1.12125e-07
-1.39991e-06
1.14254e-07
-1.51542e-06
1.15511e-07
-1.63123e-06
1.15811e-07
-1.74629e-06
1.15054e-07
-1.85943e-06
1.13138e-07
-1.96939e-06
1.09965e-07
-2.07484e-06
1.05449e-07
-2.17436e-06
9.95169e-08
-2.26648e-06
9.21177e-08
-2.3497e-06
8.32281e-08
-2.42257e-06
7.28655e-08
-2.48367e-06
6.11017e-08
-2.53173e-06
4.80546e-08
-2.56562e-06
3.389e-08
-2.58446e-06
1.88452e-08
-2.58766e-06
3.19944e-09
-2.57493e-06
-1.27329e-08
-2.54639e-06
-2.85343e-08
-2.50235e-06
-4.40463e-08
-2.44329e-06
-5.90581e-08
-2.36993e-06
-7.33595e-08
-2.28318e-06
-8.67454e-08
-2.18415e-06
-9.90317e-08
-2.07408e-06
-1.10067e-07
-1.95435e-06
-1.19738e-07
-1.82638e-06
-1.27972e-07
-1.69164e-06
-1.34737e-07
-1.55159e-06
-1.40045e-07
-1.40765e-06
-1.43941e-07
-1.26117e-06
-1.46488e-07
-1.11339e-06
-1.47777e-07
-9.6545e-07
-1.47938e-07
-8.18398e-07
-1.47052e-07
-6.731e-07
-1.45298e-07
-5.30323e-07
-1.42777e-07
-3.90743e-07
-1.39581e-07
-2.54826e-07
-1.35917e-07
-1.23189e-07
-1.31637e-07
3.98331e-09
-1.27173e-07
1.26536e-07
-1.22552e-07
2.44189e-07
-1.17654e-07
3.56827e-07
-1.12638e-07
4.64392e-07
-1.07565e-07
5.66875e-07
-1.02483e-07
6.64304e-07
-9.74287e-08
7.56739e-07
-9.24353e-08
8.44267e-07
-8.75278e-08
9.26993e-07
-8.27268e-08
1.00504e-06
-7.8049e-08
1.07855e-06
-7.35073e-08
1.14766e-06
-6.91116e-08
1.21253e-06
-6.48695e-08
1.27332e-06
-6.07863e-08
1.33018e-06
-5.68656e-08
1.38329e-06
-5.31094e-08
1.43281e-06
-4.95186e-08
1.4789e-06
-4.60931e-08
1.52174e-06
-4.28316e-08
1.56147e-06
-3.97323e-08
1.59826e-06
-3.67927e-08
1.63227e-06
-3.40097e-08
1.66365e-06
-3.13798e-08
1.69255e-06
-2.88988e-08
1.71911e-06
-2.65626e-08
1.74348e-06
-2.43663e-08
1.76578e-06
-2.23051e-08
1.78616e-06
-2.03739e-08
1.80472e-06
-1.85675e-08
1.8216e-06
-1.68805e-08
1.83691e-06
-1.53079e-08
1.85076e-06
-1.38439e-08
1.86324e-06
-1.24827e-08
1.87446e-06
-1.12189e-08
1.8845e-06
-1.00467e-08
1.89347e-06
-8.96104e-09
1.90142e-06
-7.95635e-09
1.90845e-06
-7.02749e-09
1.91462e-06
-6.16974e-09
1.92e-06
-5.37797e-09
1.92464e-06
-4.64754e-09
1.92862e-06
-3.97458e-09
1.93197e-06
-3.35394e-09
1.93476e-06
-2.78239e-09
1.93701e-06
-2.25631e-09
1.93878e-06
-1.77016e-09
1.94011e-06
-1.32421e-09
1.94102e-06
-9.10694e-10
1.94155e-06
-5.27944e-10
1.94172e-06
-1.77095e-10
1.94156e-06
1.65318e-10
1.94106e-06
5.00195e-10
1.94025e-06
8.10155e-10
1.93915e-06
1.09797e-09
1.93778e-06
1.36756e-09
1.93616e-06
1.61639e-09
1.93432e-06
1.84495e-09
1.93226e-06
2.05823e-09
1.93e-06
2.25806e-09
1.92756e-06
2.44502e-09
1.92494e-06
2.6168e-09
1.92217e-06
2.77121e-09
1.91927e-06
2.90497e-09
1.91625e-06
3.01683e-09
1.91314e-06
3.10874e-09
1.90995e-06
3.18518e-09
1.9067e-06
3.25139e-09
1.90339e-06
3.31196e-09
1.90002e-06
3.37003e-09
1.89659e-06
3.42691e-09
1.89311e-06
3.48294e-09
1.88957e-06
3.53788e-09
1.88598e-06
3.59135e-09
1.88234e-06
3.64324e-09
1.87865e-06
3.6934e-09
1.8749e-06
3.74201e-09
1.87111e-06
3.78916e-09
1.86728e-06
3.83505e-09
1.8634e-06
3.87975e-09
1.85948e-06
3.92356e-09
1.85551e-06
3.9665e-09
1.8515e-06
4.00874e-09
1.84745e-06
4.0504e-09
1.84336e-06
4.09156e-09
1.83923e-06
4.13237e-09
1.83505e-06
4.17291e-09
1.83084e-06
4.21335e-09
1.82659e-06
4.25383e-09
1.82229e-06
4.29455e-09
1.81796e-06
4.33565e-09
1.81358e-06
4.37734e-09
1.80916e-06
4.41984e-09
1.8047e-06
4.46337e-09
1.80019e-06
4.50833e-09
1.79563e-06
4.55511e-09
1.79103e-06
4.60419e-09
1.78637e-06
4.65619e-09
1.78166e-06
4.71198e-09
1.77689e-06
4.7724e-09
1.77205e-06
4.83902e-09
1.76714e-06
4.91281e-09
1.76214e-06
4.99684e-09
1.75705e-06
5.09216e-09
1.75184e-06
5.20425e-09
1.74651e-06
5.33554e-09
1.74101e-06
5.49199e-09
1.73533e-06
5.68684e-09
1.72942e-06
5.91132e-09
1.72319e-06
6.22529e-09
1.71664e-06
6.54996e-09
1.70954e-06
7.10246e-09
1.70198e-06
7.56049e-09
1.69334e-06
8.63741e-09
1.68413e-06
9.21356e-09
1.67256e-06
1.15628e-08
1.66053e-06
1.20306e-08
1.64275e-06
1.77844e-08
1.62557e-06
1.71801e-08
1.59243e-06
3.31407e-08
1.56346e-06
2.89729e-08
1.47993e-06
8.3524e-08
8.00079e-08
1.39992e-06
-5.91526e-08
7.69326e-08
-1.32533e-07
9.98162e-08
-2.06679e-07
1.03412e-07
-2.82478e-07
1.09253e-07
-3.59929e-07
1.15976e-07
-4.39096e-07
1.23378e-07
-5.2e-07
1.31146e-07
-6.02728e-07
1.39147e-07
-6.87377e-07
1.47265e-07
-7.74021e-07
1.55398e-07
-8.62703e-07
1.63456e-07
-9.53417e-07
1.71344e-07
-1.04612e-06
1.78965e-07
-1.1407e-06
1.86215e-07
-1.23704e-06
1.92982e-07
-1.33493e-06
1.99151e-07
-1.43408e-06
2.04601e-07
-1.5341e-06
2.09193e-07
-1.63471e-06
2.12742e-07
-1.73552e-06
2.15061e-07
-1.83599e-06
2.15976e-07
-1.9355e-06
2.15324e-07
-2.03335e-06
2.12907e-07
-2.12872e-06
2.08509e-07
-2.22068e-06
2.01924e-07
-2.30819e-06
1.92957e-07
-2.39012e-06
1.81442e-07
-2.46525e-06
1.67253e-07
-2.53235e-06
1.50323e-07
-2.59014e-06
1.30661e-07
-2.63741e-06
1.08367e-07
-2.67299e-06
8.36397e-08
-2.69588e-06
5.6774e-08
-2.7052e-06
2.81675e-08
-2.70025e-06
-1.74672e-09
-2.67972e-06
-3.32692e-08
-2.64344e-06
-6.48115e-08
-2.59144e-06
-9.60501e-08
-2.52408e-06
-1.26418e-07
-2.44206e-06
-1.55375e-07
-2.34635e-06
-1.82455e-07
-2.23811e-06
-2.07267e-07
-2.11868e-06
-2.295e-07
-1.98949e-06
-2.4893e-07
-1.85204e-06
-2.65419e-07
-1.70786e-06
-2.78921e-07
-1.55844e-06
-2.89463e-07
-1.40524e-06
-2.97139e-07
-1.24963e-06
-3.02103e-07
-1.09285e-06
-3.04557e-07
-9.35993e-07
-3.04792e-07
-7.80105e-07
-3.0294e-07
-6.26039e-07
-2.99364e-07
-4.74554e-07
-2.94262e-07
-3.26237e-07
-2.87898e-07
-1.81635e-07
-2.80518e-07
-4.10071e-08
-2.72265e-07
9.53233e-08
-2.63503e-07
2.26976e-07
-2.54205e-07
3.53905e-07
-2.44582e-07
4.76016e-07
-2.34749e-07
5.93265e-07
-2.24814e-07
7.0565e-07
-2.14867e-07
8.13204e-07
-2.04982e-07
9.15987e-07
-1.95218e-07
1.01408e-06
-1.85623e-07
1.10759e-06
-1.76236e-07
1.19663e-06
-1.67085e-07
1.28131e-06
-1.58194e-07
1.36178e-06
-1.4958e-07
1.43817e-06
-1.41257e-07
1.51061e-06
-1.33231e-07
1.57926e-06
-1.25509e-07
1.64424e-06
-1.18093e-07
1.70571e-06
-1.10984e-07
1.76379e-06
-1.04178e-07
1.81864e-06
-9.76747e-08
1.87037e-06
-9.1468e-08
1.91913e-06
-8.55532e-08
1.96505e-06
-7.99238e-08
2.00824e-06
-7.4573e-08
2.04883e-06
-6.94933e-08
2.08695e-06
-6.46769e-08
2.1227e-06
-6.01154e-08
2.15619e-06
-5.58006e-08
2.18754e-06
-5.17235e-08
2.21685e-06
-4.78755e-08
2.24422e-06
-4.42475e-08
2.26974e-06
-4.08305e-08
2.29351e-06
-3.76155e-08
2.31562e-06
-3.45936e-08
2.33616e-06
-3.17556e-08
2.3552e-06
-2.90929e-08
2.37284e-06
-2.65966e-08
2.38914e-06
-2.42583e-08
2.40418e-06
-2.20694e-08
2.41804e-06
-2.0022e-08
2.43077e-06
-1.8108e-08
2.44244e-06
-1.63196e-08
2.45311e-06
-1.46498e-08
2.46285e-06
-1.30909e-08
2.4717e-06
-1.16364e-08
2.47973e-06
-1.02796e-08
2.48697e-06
-9.01377e-09
2.49348e-06
-7.83353e-09
2.4993e-06
-6.73245e-09
2.50448e-06
-5.70546e-09
2.50905e-06
-4.74918e-09
2.51307e-06
-3.85435e-09
2.51659e-06
-3.01429e-09
2.51962e-06
-2.22877e-09
2.52222e-06
-1.49447e-09
2.52439e-06
-8.08312e-10
2.52617e-06
-1.62039e-10
2.52758e-06
4.36136e-10
2.52864e-06
1.00027e-09
2.52937e-06
1.52493e-09
2.5298e-06
2.01524e-09
2.52995e-06
2.46806e-09
2.52984e-06
2.88432e-09
2.52948e-06
3.26258e-09
2.52889e-06
3.60248e-09
2.5281e-06
3.90662e-09
2.5271e-06
4.18052e-09
2.52592e-06
4.43158e-09
2.52457e-06
4.66714e-09
2.52304e-06
4.89285e-09
2.52136e-06
5.11194e-09
2.51951e-06
5.32537e-09
2.51752e-06
5.53272e-09
2.51538e-06
5.73304e-09
2.5131e-06
5.9255e-09
2.51068e-06
6.10957e-09
2.50814e-06
6.28524e-09
2.50547e-06
6.45271e-09
2.5027e-06
6.61233e-09
2.49981e-06
6.7647e-09
2.49682e-06
6.9103e-09
2.49374e-06
7.0497e-09
2.49057e-06
7.18343e-09
2.4873e-06
7.312e-09
2.48396e-06
7.43582e-09
2.48054e-06
7.55545e-09
2.47704e-06
7.67131e-09
2.47347e-06
7.78398e-09
2.46983e-06
7.89389e-09
2.46612e-06
8.00157e-09
2.46235e-06
8.10746e-09
2.45851e-06
8.21215e-09
2.45462e-06
8.31618e-09
2.45066e-06
8.42018e-09
2.44664e-06
8.52495e-09
2.44257e-06
8.63125e-09
2.43843e-06
8.74017e-09
2.43424e-06
8.85291e-09
2.42998e-06
8.97091e-09
2.42565e-06
9.09609e-09
2.42126e-06
9.23051e-09
2.4168e-06
9.37751e-09
2.41225e-06
9.53963e-09
2.40762e-06
9.72386e-09
2.4029e-06
9.93126e-09
2.39805e-06
1.01793e-08
2.39308e-06
1.04591e-08
2.38795e-06
1.08198e-08
2.38265e-06
1.12127e-08
2.37709e-06
1.17809e-08
2.3713e-06
1.23445e-08
2.36508e-06
1.33179e-08
2.35852e-06
1.41221e-08
2.35121e-06
1.59492e-08
2.34338e-06
1.70402e-08
2.33413e-06
2.08158e-08
2.32408e-06
2.20848e-08
2.31111e-06
3.07519e-08
2.29652e-06
3.17715e-08
2.27548e-06
5.41751e-08
2.24909e-06
5.5365e-08
2.21141e-06
1.21205e-07
1.33165e-07
2.15825e-06
-6.86839e-08
1.45616e-07
-1.52238e-07
1.8337e-07
-2.35165e-07
1.86339e-07
-3.17778e-07
1.91865e-07
-3.99884e-07
1.98082e-07
-4.81649e-07
2.05144e-07
-5.63347e-07
2.12844e-07
-6.45258e-07
2.21058e-07
-7.27656e-07
2.29662e-07
-8.10843e-07
2.38585e-07
-8.95115e-07
2.47727e-07
-9.80738e-07
2.56968e-07
-1.06794e-06
2.66168e-07
-1.1569e-06
2.75176e-07
-1.24775e-06
2.8383e-07
-1.34056e-06
2.91961e-07
-1.43534e-06
2.99385e-07
-1.53205e-06
3.05896e-07
-1.63055e-06
3.11242e-07
-1.73062e-06
3.15135e-07
-1.8319e-06
3.17257e-07
-1.93384e-06
3.17261e-07
-2.03571e-06
3.14776e-07
-2.13661e-06
3.09409e-07
-2.23545e-06
3.00769e-07
-2.33098e-06
2.88481e-07
-2.42174e-06
2.72211e-07
-2.50619e-06
2.51694e-07
-2.58263e-06
2.26769e-07
-2.64937e-06
1.97399e-07
-2.70471e-06
1.63708e-07
-2.74707e-06
1.25996e-07
-2.77504e-06
8.47458e-08
-2.78752e-06
4.06513e-08
-2.78365e-06
-5.62329e-09
-2.76236e-06
-5.45513e-08
-2.72369e-06
-1.0348e-07
-2.668e-06
-1.51743e-07
-2.59593e-06
-1.9849e-07
-2.50839e-06
-2.42913e-07
-2.40655e-06
-2.84293e-07
-2.29179e-06
-3.22033e-07
-2.16562e-06
-3.55665e-07
-2.0297e-06
-3.84856e-07
-1.8857e-06
-4.09416e-07
-1.73533e-06
-4.29296e-07
-1.58021e-06
-4.4458e-07
-1.4219e-06
-4.55451e-07
-1.26182e-06
-4.62183e-07
-1.10123e-06
-4.6514e-07
-9.41348e-07
-4.64678e-07
-7.83042e-07
-4.61245e-07
-6.27203e-07
-4.55203e-07
-4.74515e-07
-4.4695e-07
-3.25463e-07
-4.3695e-07
-1.80512e-07
-4.25469e-07
-3.99389e-08
-4.12838e-07
9.58534e-08
-3.99295e-07
2.26887e-07
-3.85239e-07
3.53023e-07
-3.70719e-07
4.74215e-07
-3.55941e-07
5.90465e-07
-3.41064e-07
7.01812e-07
-3.26215e-07
8.08325e-07
-3.11495e-07
9.10095e-07
-2.96989e-07
1.00723e-06
-2.8276e-07
1.09986e-06
-2.68862e-07
1.18811e-06
-2.55333e-07
1.27212e-06
-2.42204e-07
1.35203e-06
-2.29496e-07
1.428e-06
-2.17223e-07
1.50016e-06
-2.05397e-07
1.56867e-06
-1.9402e-07
1.63368e-06
-1.83094e-07
1.69531e-06
-1.72617e-07
1.75371e-06
-1.62584e-07
1.80903e-06
-1.52989e-07
1.86138e-06
-1.43822e-07
1.9109e-06
-1.35075e-07
1.95772e-06
-1.26736e-07
2.00194e-06
-1.18795e-07
2.04369e-06
-1.1124e-07
2.08307e-06
-1.04057e-07
2.12019e-06
-9.72356e-08
2.15515e-06
-9.0762e-08
2.18805e-06
-8.46236e-08
2.21898e-06
-7.88078e-08
2.24804e-06
-7.33019e-08
2.2753e-06
-6.80934e-08
2.30085e-06
-6.317e-08
2.32478e-06
-5.85194e-08
2.34715e-06
-5.41297e-08
2.36805e-06
-4.9989e-08
2.38754e-06
-4.60858e-08
2.40569e-06
-4.2409e-08
2.42257e-06
-3.89474e-08
2.43823e-06
-3.56906e-08
2.45275e-06
-3.2628e-08
2.46619e-06
-2.97497e-08
2.47858e-06
-2.7046e-08
2.49e-06
-2.45074e-08
2.50049e-06
-2.2125e-08
2.5101e-06
-1.989e-08
2.51888e-06
-1.77938e-08
2.52687e-06
-1.58285e-08
2.53413e-06
-1.39865e-08
2.54068e-06
-1.22604e-08
2.54657e-06
-1.06424e-08
2.55184e-06
-9.1248e-09
2.55653e-06
-7.70057e-09
2.56067e-06
-6.36586e-09
2.56429e-06
-5.11605e-09
2.56743e-06
-3.94577e-09
2.57012e-06
-2.85164e-09
2.57238e-06
-1.83096e-09
2.57426e-06
-8.7581e-10
2.57577e-06
1.45836e-11
2.57693e-06
8.52936e-10
2.57777e-06
1.62833e-09
2.57831e-06
2.35033e-09
2.57855e-06
3.01716e-09
2.57852e-06
3.63019e-09
2.57824e-06
4.19273e-09
2.57771e-06
4.71047e-09
2.57695e-06
5.19065e-09
2.57597e-06
5.64105e-09
2.5748e-06
6.06795e-09
2.57344e-06
6.47548e-09
2.5719e-06
6.86573e-09
2.57019e-06
7.23928e-09
2.56833e-06
7.59598e-09
2.56632e-06
7.93577e-09
2.56417e-06
8.25872e-09
2.56189e-06
8.56527e-09
2.55948e-06
8.8561e-09
2.55696e-06
9.13217e-09
2.55433e-06
9.39439e-09
2.5516e-06
9.64379e-09
2.54877e-06
9.88131e-09
2.54584e-06
1.01079e-08
2.54283e-06
1.03244e-08
2.53974e-06
1.05318e-08
2.53656e-06
1.07309e-08
2.53331e-06
1.09224e-08
2.52999e-06
1.11074e-08
2.52659e-06
1.12865e-08
2.52313e-06
1.14607e-08
2.51961e-06
1.16307e-08
2.51603e-06
1.17974e-08
2.51238e-06
1.19617e-08
2.50868e-06
1.21247e-08
2.50491e-06
1.22873e-08
2.50109e-06
1.24509e-08
2.49722e-06
1.26169e-08
2.49328e-06
1.27872e-08
2.48929e-06
1.29635e-08
2.48524e-06
1.31491e-08
2.48112e-06
1.33459e-08
2.47694e-06
1.35599e-08
2.47269e-06
1.37925e-08
2.46835e-06
1.40564e-08
2.46394e-06
1.4348e-08
2.45942e-06
1.46987e-08
2.45479e-06
1.50858e-08
2.45002e-06
1.55886e-08
2.44511e-06
1.61276e-08
2.43998e-06
1.69052e-08
2.43465e-06
1.76817e-08
2.42898e-06
1.89801e-08
2.42299e-06
2.01186e-08
2.41647e-06
2.24622e-08
2.40937e-06
2.41395e-08
2.40147e-06
2.87206e-08
2.39235e-06
3.12033e-08
2.38209e-06
4.10093e-08
2.36882e-06
4.50435e-08
2.35487e-06
6.81263e-08
2.33286e-06
7.73719e-08
2.31718e-06
1.36893e-07
1.67271e-07
2.28307e-06
-6.38342e-08
2.09451e-07
-1.42748e-07
2.62284e-07
-2.21237e-07
2.64828e-07
-2.99448e-07
2.70076e-07
-3.77395e-07
2.76029e-07
-4.5528e-07
2.83029e-07
-5.33345e-07
2.90909e-07
-6.11952e-07
2.99665e-07
-6.91535e-07
3.09245e-07
-7.72491e-07
3.19541e-07
-8.55149e-07
3.30386e-07
-9.39806e-07
3.41624e-07
-1.02675e-06
3.53109e-07
-1.11626e-06
3.6469e-07
-1.20862e-06
3.76186e-07
-1.30402e-06
3.87369e-07
-1.40259e-06
3.97954e-07
-1.5043e-06
4.07603e-07
-1.60899e-06
4.15933e-07
-1.71638e-06
4.2252e-07
-1.82601e-06
4.26892e-07
-1.93728e-06
4.2853e-07
-2.04937e-06
4.26868e-07
-2.16127e-06
4.21305e-07
-2.27172e-06
4.11221e-07
-2.37924e-06
3.96005e-07
-2.48213e-06
3.75101e-07
-2.57849e-06
3.48048e-07
-2.66626e-06
3.14537e-07
-2.74333e-06
2.7447e-07
-2.80762e-06
2.27998e-07
-2.85718e-06
1.75553e-07
-2.8903e-06
1.17868e-07
-2.90564e-06
5.59942e-08
-2.90215e-06
-9.11752e-09
-2.87904e-06
-7.76537e-08
-2.83641e-06
-1.46111e-07
-2.77473e-06
-2.13427e-07
-2.69489e-06
-2.78333e-07
-2.59813e-06
-3.39666e-07
-2.486e-06
-3.96429e-07
-2.36022e-06
-4.47814e-07
-2.22267e-06
-4.93209e-07
-2.07533e-06
-5.32202e-07
-1.92017e-06
-5.64576e-07
-1.75913e-06
-5.90327e-07
-1.59407e-06
-6.0964e-07
-1.42669e-06
-6.22837e-07
-1.2585e-06
-6.3037e-07
-1.09089e-06
-6.32753e-07
-9.24934e-07
-6.30632e-07
-7.61633e-07
-6.24546e-07
-6.01763e-07
-6.15074e-07
-4.45893e-07
-6.0282e-07
-2.9448e-07
-5.88363e-07
-1.47978e-07
-5.71971e-07
-6.46796e-09
-5.54348e-07
1.30172e-07
-5.35935e-07
2.6146e-07
-5.16527e-07
3.87459e-07
-4.96718e-07
5.08217e-07
-4.76699e-07
6.23803e-07
-4.56649e-07
7.34305e-07
-4.36717e-07
8.39833e-07
-4.17024e-07
9.40513e-07
-3.97668e-07
1.03648e-06
-3.78728e-07
1.12788e-06
-3.60263e-07
1.21487e-06
-3.42319e-07
1.29759e-06
-3.24929e-07
1.37622e-06
-3.08117e-07
1.45089e-06
-2.91897e-07
1.52177e-06
-2.76279e-07
1.58902e-06
-2.61265e-07
1.65278e-06
-2.46853e-07
1.7132e-06
-2.33038e-07
1.77042e-06
-2.19811e-07
1.8246e-06
-2.07162e-07
1.87585e-06
-1.95076e-07
1.92432e-06
-1.83541e-07
1.97012e-06
-1.7254e-07
2.01338e-06
-1.62058e-07
2.05422e-06
-1.52076e-07
2.09274e-06
-1.4258e-07
2.12906e-06
-1.3355e-07
2.16327e-06
-1.24971e-07
2.19547e-06
-1.16824e-07
2.22575e-06
-1.09094e-07
2.25421e-06
-1.01762e-07
2.28093e-06
-9.48135e-08
2.30599e-06
-8.82315e-08
2.32948e-06
-8.20005e-08
2.35145e-06
-7.61054e-08
2.37199e-06
-7.05312e-08
2.39117e-06
-6.52633e-08
2.40905e-06
-6.02878e-08
2.42569e-06
-5.5591e-08
2.44116e-06
-5.11596e-08
2.45551e-06
-4.69808e-08
2.46881e-06
-4.30423e-08
2.48109e-06
-3.93321e-08
2.49242e-06
-3.58386e-08
2.50285e-06
-3.25505e-08
2.51242e-06
-2.94574e-08
2.52117e-06
-2.65486e-08
2.52916e-06
-2.38142e-08
2.53642e-06
-2.12448e-08
2.54299e-06
-1.88306e-08
2.54891e-06
-1.65625e-08
2.55421e-06
-1.44328e-08
2.55895e-06
-1.24329e-08
2.56314e-06
-1.05561e-08
2.56682e-06
-8.79599e-09
2.57002e-06
-7.14468e-09
2.57276e-06
-5.59614e-09
2.57508e-06
-4.1471e-09
2.57699e-06
-2.79085e-09
2.57853e-06
-1.52095e-09
2.57971e-06
-3.27401e-10
2.58056e-06
7.75661e-10
2.5811e-06
1.80946e-09
2.58135e-06
2.76929e-09
2.58132e-06
3.6603e-09
2.58102e-06
4.48686e-09
2.58048e-06
5.25479e-09
2.5797e-06
5.97083e-09
2.5787e-06
6.64186e-09
2.57749e-06
7.27404e-09
2.5761e-06
7.87191e-09
2.57452e-06
8.43879e-09
2.57279e-06
8.97663e-09
2.5709e-06
9.48687e-09
2.56886e-06
9.97054e-09
2.56669e-06
1.04288e-08
2.56439e-06