/*--------------------------------*- C++ -*----------------------------------*\
  =========                 |
  \\      /  F ield         | OpenFOAM: The Open Source CFD Toolbox
   \\    /   O peration     | Website:  https://openfoam.org
    \\  /    A nd           | Version:  7
     \\/     M anipulation  |
\*---------------------------------------------------------------------------*/
FoamFile
{
    version     2.0;
    format      ascii;
    class       volVectorField;
    location    "0.018";
    object      U_0;
}
// * * * * * * * * * * * * * * * * * * * * * * * * * * * * * * * * * * * * * //

dimensions      [0 1 -1 0 0 0 0];

internalField   nonuniform List<vector> 
12225
(
(4.73201 0.202637 0)
(4.07671 0.111942 0)
(3.68348 0.0870912 0)
(3.37156 0.0788643 0)
(3.02956 0.0743276 0)
(2.67629 0.065778 0)
(2.36011 0.0535187 0)
(2.09606 0.0420806 0)
(1.87327 0.0336567 0)
(1.68192 0.0268004 0)
(1.51512 0.0198004 0)
(1.37829 0.0130224 0)
(1.26372 0.00708318 0)
(1.186 0.00262487 0)
(1.11324 -0.000218218 0)
(1.08314 -0.00238397 0)
(1.03016 0.00194795 0)
(1.00963 -0.00289118 0)
(5.02315 0.11136 0)
(4.81826 0.0718757 0)
(4.67583 0.0725359 0)
(4.60212 0.079278 0)
(4.52544 0.094278 0)
(4.42103 0.100155 0)
(4.30421 0.0948382 0)
(4.1921 0.0859991 0)
(4.08592 0.079708 0)
(3.98256 0.0764048 0)
(3.87426 0.0727886 0)
(3.76754 0.0666704 0)
(3.65975 0.05775 0)
(3.56968 0.0475017 0)
(3.48205 0.0392899 0)
(3.41935 0.0303726 0)
(3.35265 0.0320695 0)
(3.30904 0.0265288 0)
(5.02458 0.226825 0)
(4.93889 0.139887 0)
(4.80328 0.124803 0)
(4.73414 0.115629 0)
(4.72912 0.118369 0)
(4.73499 0.123001 0)
(4.7187 0.119579 0)
(4.68316 0.109358 0)
(4.64587 0.0999167 0)
(4.61772 0.0951888 0)
(4.59606 0.0926829 0)
(4.57372 0.0891147 0)
(4.54539 0.0819828 0)
(4.51058 0.0716776 0)
(4.47259 0.0614459 0)
(4.4341 0.0524767 0)
(4.40228 0.0482737 0)
(4.37279 0.0461508 0)
(5.02029 0.159457 0)
(4.96268 0.12647 0)
(4.87698 0.123979 0)
(4.80832 0.110897 0)
(4.77722 0.106961 0)
(4.76304 0.111469 0)
(4.74788 0.111779 0)
(4.72897 0.104827 0)
(4.71299 0.0958546 0)
(4.70452 0.0892754 0)
(4.70209 0.0853972 0)
(4.69983 0.0824545 0)
(4.69393 0.0788079 0)
(4.6817 0.0732813 0)
(4.66572 0.0675432 0)
(4.64743 0.0607243 0)
(4.63328 0.0561579 0)
(4.62195 0.0521821 0)
(5.06273 0.252693 0)
(4.96562 0.152356 0)
(4.91004 0.14173 0)
(4.86574 0.135859 0)
(4.82417 0.129122 0)
(4.79755 0.128153 0)
(4.78642 0.126234 0)
(4.7803 0.118604 0)
(4.77087 0.108184 0)
(4.75666 0.0996209 0)
(4.74101 0.0945915 0)
(4.72726 0.0916577 0)
(4.71731 0.0884393 0)
(4.71003 0.0828906 0)
(4.70441 0.0752512 0)
(4.69924 0.066496 0)
(4.69559 0.0585816 0)
(4.69168 0.0515417 0)
(4.99009 0.214512 0)
(4.949 0.1662 0)
(4.88105 0.145672 0)
(4.82038 0.140668 0)
(4.77439 0.136826 0)
(4.76014 0.129535 0)
(4.7746 0.119667 0)
(4.79594 0.109935 0)
(4.80754 0.102968 0)
(4.80693 0.0989859 0)
(4.80023 0.0960996 0)
(4.79344 0.0924245 0)
(4.78944 0.0872151 0)
(4.7864 0.0807542 0)
(4.78274 0.0739586 0)
(4.77565 0.0674662 0)
(4.76713 0.0614837 0)
(4.75565 0.0556405 0)
(4.97842 0.245563 0)
(4.97025 0.175488 0)
(4.93717 0.167781 0)
(4.89642 0.164121 0)
(4.87527 0.150313 0)
(4.87052 0.130395 0)
(4.87269 0.114249 0)
(4.87354 0.10613 0)
(4.87164 0.104094 0)
(4.86987 0.103923 0)
(4.87021 0.10244 0)
(4.87071 0.0985327 0)
(4.86885 0.0927838 0)
(4.86108 0.0862239 0)
(4.84904 0.0795302 0)
(4.83344 0.0730908 0)
(4.82055 0.0665957 0)
(4.81062 0.0601 0)
(5.00231 0.233339 0)
(4.93803 0.188128 0)
(4.91345 0.167361 0)
(4.91943 0.159425 0)
(4.92558 0.149412 0)
(4.91829 0.134777 0)
(4.90609 0.120465 0)
(4.89984 0.109949 0)
(4.90244 0.102942 0)
(4.90964 0.0977096 0)
(4.91482 0.0937915 0)
(4.91267 0.0916666 0)
(4.90205 0.0915297 0)
(4.88468 0.0919428 0)
(4.86616 0.0904858 0)
(4.85079 0.0859014 0)
(4.84351 0.0770135 0)
(4.84358 0.0658842 0)
(5.03225 0.267704 0)
(4.98635 0.191658 0)
(4.91809 0.158187 0)
(4.88193 0.148806 0)
(4.86915 0.148158 0)
(4.86122 0.139345 0)
(4.85476 0.122457 0)
(4.85255 0.106775 0)
(4.85562 0.0986573 0)
(4.86101 0.0982383 0)
(4.86448 0.102274 0)
(4.86408 0.10683 0)
(4.86072 0.108778 0)
(4.85752 0.105895 0)
(4.85712 0.0972767 0)
(4.86094 0.0840321 0)
(4.86878 0.0676994 0)
(4.8777 0.0517868 0)
(5.03239 0.27308 0)
(4.96064 0.255861 0)
(4.88812 0.214893 0)
(4.84087 0.17769 0)
(4.83071 0.157852 0)
(4.83937 0.141864 0)
(4.85 0.12508 0)
(4.85864 0.110044 0)
(4.86893 0.099075 0)
(4.8824 0.0929723 0)
(4.89607 0.0914097 0)
(4.90626 0.0929005 0)
(4.91123 0.0947499 0)
(4.91242 0.0942541 0)
(4.91189 0.0893568 0)
(4.91135 0.0802041 0)
(4.91129 0.0680819 0)
(4.90976 0.0556163 0)
(4.99329 0.305474 0)
(4.94037 0.263507 0)
(4.92433 0.19542 0)
(4.89866 0.161118 0)
(4.89222 0.14777 0)
(4.901 0.134317 0)
(4.91051 0.11602 0)
(4.91452 0.0972612 0)
(4.91395 0.0845607 0)
(4.91097 0.0820464 0)
(4.90727 0.0886346 0)
(4.90423 0.0989375 0)
(4.90365 0.106215 0)
(4.90603 0.106018 0)
(4.91193 0.0975296 0)
(4.91845 0.0831956 0)
(4.92487 0.0671461 0)
(4.92638 0.0532521 0)
(4.92967 0.303906 0)
(5.03713 0.276953 0)
(5.00327 0.230867 0)
(4.95123 0.18662 0)
(4.94049 0.152668 0)
(4.95509 0.130672 0)
(4.96829 0.118039 0)
(4.96801 0.109357 0)
(4.95623 0.102046 0)
(4.94067 0.09705 0)
(4.92887 0.0951685 0)
(4.92402 0.0950205 0)
(4.92659 0.0938024 0)
(4.93294 0.0894147 0)
(4.94097 0.0815795 0)
(4.9469 0.0721536 0)
(4.95096 0.0630396 0)
(4.95216 0.0567822 0)
(5.01109 0.300398 0)
(4.95599 0.280044 0)
(4.92948 0.235428 0)
(4.92886 0.185016 0)
(4.93076 0.146439 0)
(4.92682 0.122905 0)
(4.92609 0.110052 0)
(4.93076 0.101816 0)
(4.93573 0.0967164 0)
(4.93595 0.0959078 0)
(4.93089 0.0988439 0)
(4.92282 0.102302 0)
(4.9155 0.102794 0)
(4.91032 0.0983769 0)
(4.90956 0.0888972 0)
(4.91194 0.0766621 0)
(4.91926 0.0631767 0)
(4.92822 0.052327 0)
(4.96149 0.313434 0)
(4.99738 0.284054 0)
(5.01193 0.233418 0)
(5.01156 0.186291 0)
(4.99379 0.153221 0)
(4.97309 0.13251 0)
(4.96057 0.118574 0)
(4.95462 0.108193 0)
(4.95141 0.101862 0)
(4.94967 0.100215 0)
(4.94986 0.101505 0)
(4.95274 0.101914 0)
(4.95845 0.0982927 0)
(4.96646 0.0892897 0)
(4.97601 0.0757537 0)
(4.9864 0.0606123 0)
(4.99717 0.0459758 0)
(5.00769 0.0358672 0)
(4.94614 0.334363 0)
(4.94474 0.276736 0)
(4.96799 0.227392 0)
(4.97653 0.195976 0)
(4.96726 0.167939 0)
(4.95979 0.142647 0)
(4.96545 0.121906 0)
(4.98002 0.107258 0)
(4.99643 0.0996535 0)
(5.00925 0.0980419 0)
(5.01537 0.0992715 0)
(5.01427 0.0995354 0)
(5.00759 0.0960312 0)
(4.99817 0.0878786 0)
(4.98862 0.0753735 0)
(4.98095 0.0607827 0)
(4.97632 0.0455119 0)
(4.97435 0.0328578 0)
(5.0643 0.333423 0)
(5.03687 0.257724 0)
(5.02097 0.210957 0)
(5.00524 0.193006 0)
(4.99622 0.165471 0)
(4.99544 0.131354 0)
(4.99789 0.0999626 0)
(4.99843 0.0781741 0)
(4.99814 0.0705675 0)
(5.00067 0.0769806 0)
(5.00767 0.0914863 0)
(5.0182 0.105481 0)
(5.0305 0.111655 0)
(5.0428 0.106874 0)
(5.05395 0.0923716 0)
(5.06215 0.0723309 0)
(5.06755 0.0515252 0)
(5.06771 0.0345554 0)
(5.0045 0.275457 0)
(4.9907 0.284857 0)
(4.99312 0.256565 0)
(5.01508 0.21344 0)
(5.03524 0.168154 0)
(5.04182 0.137998 0)
(5.03391 0.124025 0)
(5.0207 0.116257 0)
(5.01058 0.10705 0)
(5.00713 0.0954295 0)
(5.01089 0.0835923 0)
(5.02043 0.0730874 0)
(5.0336 0.063691 0)
(5.04742 0.0550282 0)
(5.05935 0.0474633 0)
(5.0669 0.0416742 0)
(5.06968 0.0387304 0)
(5.06742 0.0382449 0)
(4.96616 0.308133 0)
(4.93519 0.249181 0)
(4.95473 0.183304 0)
(4.9909 0.152094 0)
(5.01676 0.141391 0)
(5.02278 0.135769 0)
(5.02086 0.122443 0)
(5.02188 0.100103 0)
(5.02599 0.078791 0)
(5.03013 0.0673918 0)
(5.03333 0.0658329 0)
(5.03592 0.0682942 0)
(5.03866 0.0689461 0)
(5.04159 0.0660017 0)
(5.04499 0.0605919 0)
(5.04872 0.0550986 0)
(5.05343 0.05077 0)
(5.05947 0.0479105 0)
(4.98319 0.272116 0)
(4.99545 0.22031 0)
(5.02231 0.163329 0)
(5.03758 0.137339 0)
(5.04077 0.130945 0)
(5.04776 0.129515 0)
(5.05121 0.125639 0)
(5.04888 0.117289 0)
(5.04533 0.105653 0)
(5.04359 0.0925024 0)
(5.04447 0.0788418 0)
(5.04754 0.0652261 0)
(5.05176 0.0520868 0)
(5.05515 0.0398954 0)
(5.05772 0.0286565 0)
(5.06006 0.0183611 0)
(5.06446 0.00824187 0)
(5.0712 -0.00172429 0)
(4.95437 0.209048 0)
(4.97587 0.167829 0)
(4.98579 0.149738 0)
(5.00072 0.128432 0)
(5.02038 0.120356 0)
(5.04663 0.119849 0)
(5.07227 0.117566 0)
(5.09121 0.10687 0)
(5.10201 0.0887876 0)
(5.10589 0.0706937 0)
(5.10571 0.0592145 0)
(5.10455 0.0555125 0)
(5.10539 0.0560736 0)
(5.1097 0.0559453 0)
(5.11831 0.0508304 0)
(5.1304 0.0397884 0)
(5.14542 0.0229764 0)
(5.16106 0.00392579 0)
(5.03418 0.198042 0)
(5.00913 0.175315 0)
(4.9984 0.138176 0)
(4.99865 0.100596 0)
(5.0139 0.0765063 0)
(5.04345 0.0690412 0)
(5.07693 0.0726857 0)
(5.10394 0.0785316 0)
(5.12184 0.0809514 0)
(5.13153 0.0784967 0)
(5.1351 0.0708327 0)
(5.13597 0.0575541 0)
(5.1375 0.0389007 0)
(5.14116 0.0165261 0)
(5.14744 -0.0071381 0)
(5.15601 -0.0295033 0)
(5.16726 -0.0496372 0)
(5.1793 -0.0659822 0)
(5.07114 0.273845 0)
(5.09914 0.205581 0)
(5.10923 0.150432 0)
(5.10901 0.100127 0)
(5.09245 0.0660097 0)
(5.08514 0.0500057 0)
(5.09023 0.0472268 0)
(5.09974 0.0519346 0)
(5.11175 0.0581563 0)
(5.12683 0.0621879 0)
(5.14392 0.0630532 0)
(5.16154 0.0603023 0)
(5.17927 0.0533006 0)
(5.19693 0.041091 0)
(5.21365 0.0230337 0)
(5.2274 0.00143952 0)
(5.23791 -0.0214362 0)
(5.24461 -0.0420002 0)
(4.98586 0.23446 0)
(5.01011 0.164892 0)
(5.03975 0.143754 0)
(5.07542 0.116365 0)
(5.09544 0.085483 0)
(5.10907 0.0627078 0)
(5.12256 0.050489 0)
(5.13915 0.0446805 0)
(5.16215 0.0399425 0)
(5.191 0.0328005 0)
(5.22104 0.0222627 0)
(5.24716 0.00834981 0)
(5.2661 -0.00878199 0)
(5.27591 -0.0277751 0)
(5.27741 -0.0465525 0)
(5.27336 -0.0630772 0)
(5.26586 -0.0760963 0)
(5.25686 -0.0845152 0)
(4.92068 0.252241 0)
(4.96653 0.134493 0)
(5.02775 0.103544 0)
(5.08471 0.0820381 0)
(5.11952 0.0605429 0)
(5.14769 0.0434966 0)
(5.18173 0.0315075 0)
(5.22098 0.0228466 0)
(5.26023 0.0157328 0)
(5.29449 0.0109264 0)
(5.32083 0.0101279 0)
(5.33894 0.0134264 0)
(5.35078 0.0183719 0)
(5.35826 0.0214625 0)
(5.36208 0.0196053 0)
(5.3617 0.0114749 0)
(5.35868 -0.00261129 0)
(5.35279 -0.0209497 0)
(5.03509 0.212625 0)
(5.10421 0.0899928 0)
(5.14173 0.0622912 0)
(5.16226 0.0472735 0)
(5.1765 0.0281127 0)
(5.19882 0.00427899 0)
(5.23245 -0.0151954 0)
(5.26612 -0.0251023 0)
(5.28949 -0.0261806 0)
(5.30168 -0.022997 0)
(5.308 -0.0201533 0)
(5.31525 -0.0206647 0)
(5.32775 -0.0255191 0)
(5.34511 -0.0338372 0)
(5.36514 -0.0437543 0)
(5.38442 -0.0530951 0)
(5.40107 -0.0609116 0)
(5.41307 -0.0671859 0)
(5.05679 0.12553 0)
(5.12229 0.0822226 0)
(5.18641 0.0970984 0)
(5.23602 0.0870219 0)
(5.28215 0.0499572 0)
(5.32315 0.0081972 0)
(5.35314 -0.0154467 0)
(5.37073 -0.0180343 0)
(5.38241 -0.0101872 0)
(5.39509 -0.00320685 0)
(5.41093 -0.00166101 0)
(5.42692 -0.00449606 0)
(5.43892 -0.00950508 0)
(5.44477 -0.0149647 0)
(5.44513 -0.020482 0)
(5.44201 -0.0264246 0)
(5.43816 -0.033688 0)
(5.43547 -0.0428035 0)
(5.01028 0.11184 0)
(5.08761 0.0149188 0)
(5.18961 0.0116467 0)
(5.28294 -0.00132001 0)
(5.33507 -0.0259338 0)
(5.35135 -0.0433234 0)
(5.35317 -0.0484947 0)
(5.35585 -0.0457032 0)
(5.36621 -0.0422794 0)
(5.38432 -0.0412844 0)
(5.40607 -0.0413796 0)
(5.42739 -0.0408629 0)
(5.44703 -0.0395756 0)
(5.46595 -0.0390675 0)
(5.48576 -0.0413041 0)
(5.50556 -0.0469698 0)
(5.52454 -0.055744 0)
(5.53873 -0.0662463 0)
(4.98716 0.115532 0)
(5.1472 0.047972 0)
(5.28477 0.047558 0)
(5.35869 0.0296018 0)
(5.38976 0.00782048 0)
(5.3978 -0.00746314 0)
(5.39899 -0.0165614 0)
(5.40364 -0.0214702 0)
(5.41616 -0.0239184 0)
(5.43683 -0.0255073 0)
(5.46301 -0.0272929 0)
(5.49134 -0.0300675 0)
(5.51948 -0.0346149 0)
(5.54619 -0.0409101 0)
(5.5705 -0.0473918 0)
(5.59077 -0.0526841 0)
(5.60603 -0.0558912 0)
(5.61454 -0.0578591 0)
(5.06328 0.010866 0)
(5.29152 -0.0603826 0)
(5.39871 -0.0406175 0)
(5.41756 -0.0445247 0)
(5.42806 -0.0517711 0)
(5.44777 -0.051901 0)
(5.47483 -0.0504539 0)
(5.49948 -0.0532477 0)
(5.51257 -0.0600714 0)
(5.51152 -0.0670818 0)
(5.49946 -0.070855 0)
(5.48258 -0.0707552 0)
(5.46651 -0.0688686 0)
(5.45493 -0.0679843 0)
(5.44731 -0.0693299 0)
(5.44089 -0.0725337 0)
(5.43108 -0.076353 0)
(5.41584 -0.0799475 0)
(4.93305 0.087668 0)
(5.06426 0.00219659 0)
(5.03852 0.0143322 0)
(4.96451 0.00661553 0)
(4.86145 -0.012867 0)
(4.7386 -0.027648 0)
(4.61267 -0.0342162 0)
(4.48839 -0.0334094 0)
(4.36604 -0.0274421 0)
(4.24876 -0.0204133 0)
(4.13859 -0.0169845 0)
(4.03334 -0.0195383 0)
(3.92754 -0.0268569 0)
(3.81706 -0.0353286 0)
(3.70072 -0.0409678 0)
(3.58255 -0.0417739 0)
(3.4659 -0.0374433 0)
(3.35854 -0.030721 0)
(-0.00428963 -0.0049835 3.40316e-21)
(-0.0269351 -0.00074277 -3.37813e-21)
(-0.0516034 0.00270169 0)
(-0.0791331 0.00742756 0)
(-0.110977 0.0134803 0)
(-0.147622 0.0204719 3.26738e-21)
(-0.189579 0.0280202 0)
(-0.237045 0.0357808 0)
(-0.290095 0.0435093 0)
(-0.34871 0.0510527 0)
(-0.412812 0.0583326 -3.11248e-21)
(-0.482286 0.0652874 0)
(-0.556966 0.0718534 0)
(-0.636641 0.0779602 0)
(-0.721046 0.0835332 0)
(-0.809871 0.0884947 -2.9368e-21)
(-0.902762 0.0927751 0)
(-0.99931 0.0963344 0)
(-1.09895 0.0991561 0)
(-1.20099 0.101179 0)
(-1.30466 0.102335 0)
(-1.40916 0.102553 0)
(-1.51358 0.101761 0)
(-1.61693 0.0998935 -2.61592e-21)
(-1.71809 0.0968985 2.57529e-21)
(-1.8159 0.0927439 -2.53561e-21)
(-1.9091 0.0874158 -2.49737e-21)
(-1.99637 0.0809194 0)
(-2.07635 0.0732807 0)
(-2.1477 0.0645649 2.39663e-21)
(-2.20911 0.0548956 2.36956e-21)
(-2.25937 0.04443 0)
(-2.29739 0.0333559 0)
(-2.32219 0.0219293 2.31472e-21)
(-2.33309 0.0104129 0)
(-2.32936 -0.000958944 0)
(-2.3117 -0.0119666 -2.30501e-21)
(-2.27987 -0.0225991 0)
(-2.23425 -0.0327386 -2.32313e-21)
(-2.17537 -0.0422512 -4.67684e-21)
(-2.10394 -0.051007 0)
(-2.02086 -0.0588923 0)
(-1.92718 -0.0658198 0)
(-1.82407 -0.0717321 0)
(-1.7128 -0.0766011 0)
(-1.59465 -0.0804265 -4.94982e-21)
(-1.47092 -0.0832381 -4.99682e-21)
(-1.34293 -0.0850859 -5.04092e-21)
(-1.21193 -0.0860148 0)
(-1.07899 -0.0861039 5.11702e-21)
(-0.945222 -0.0854909 0)
(-0.811621 -0.0842185 -5.17326e-21)
(-0.678957 -0.0824061 -5.19316e-21)
(-0.547983 -0.0801572 0)
(-0.419446 -0.077498 0)
(-0.29394 -0.0746176 0)
(-0.171653 -0.0713461 -5.21796e-21)
(-0.0534309 -0.0681117 0)
(0.0603506 -0.0647851 0)
(0.170148 -0.061346 0)
(0.275695 -0.0578938 0)
(0.376809 -0.0544642 0)
(0.473431 -0.0510854 0)
(0.56555 -0.0477803 0)
(0.653194 -0.0445668 0)
(0.736417 -0.0414588 5.00829e-21)
(0.815297 -0.0384671 0)
(0.88993 -0.0355993 0)
(0.960428 -0.0328609 -4.89317e-21)
(1.02691 -0.0302554 -4.85221e-21)
(1.08951 -0.0277844 0)
(1.14837 -0.0254485 4.76755e-21)
(1.20362 -0.023247 -4.72417e-21)
(1.25541 -0.0211783 0)
(1.30388 -0.01924 4.63597e-21)
(1.34919 -0.017429 0)
(1.39147 -0.0157418 0)
(1.43088 -0.0141744 -4.50165e-21)
(1.46756 -0.0127225 0)
(1.50164 -0.0113815 4.41171e-21)
(1.53328 -0.0101465 0)
(1.56259 -0.00901243 -4.32201e-21)
(1.58972 -0.00797414 -4.27736e-21)
(1.6148 -0.00702632 -4.2329e-21)
(1.63794 -0.00616355 -8.37729e-21)
(1.65927 -0.00538033 8.28926e-21)
(1.6789 -0.00467112 0)
(1.69694 -0.00403039 0)
(1.7135 -0.00345277 0)
(1.72868 -0.00293337 7.94255e-21)
(1.74258 -0.00246774 7.85736e-21)
(1.75528 -0.00205159 -7.7728e-21)
(1.76687 -0.00168082 0)
(1.77743 -0.00135162 7.60563e-21)
(1.78705 -0.00106013 7.52302e-21)
(1.79578 -0.00080282 7.44106e-21)
(1.80371 -0.000576676 0)
(1.81088 -0.000378186 0)
(1.81736 -0.000204593 0)
(1.82321 -5.37372e-05 7.11982e-21)
(1.82847 7.79779e-05 0)
(1.83319 0.00019158 0)
(1.83741 0.000289431 -6.88569e-21)
(1.84118 0.00037525 0)
(1.84452 0.000446766 0)
(1.84749 0.000510572 -6.65724e-21)
(1.85008 0.000566742 0)
(1.85237 0.000613398 0)
(1.85433 0.00066488 6.43424e-21)
(1.85598 0.000721622 6.36108e-21)
(1.85735 0.000775152 0)
(1.85846 0.00082553 -6.21648e-21)
(1.85931 0.000877447 0)
(1.85993 0.000925787 6.07413e-21)
(1.86034 0.000960857 0)
(1.86055 0.000989396 5.93397e-21)
(1.86059 0.00101698 5.86468e-21)
(1.86045 0.00104293 0)
(1.86016 0.00106432 0)
(1.85972 0.00107809 0)
(1.85916 0.00108127 0)
(1.85849 0.00107302 0)
(1.85775 0.00105529 0)
(1.85694 0.00103156 0)
(1.85607 0.00100541 5.3287e-21)
(1.85516 0.000979426 -5.26389e-21)
(1.85421 0.000954878 0)
(1.85322 0.00093204 0)
(1.85219 0.000910712 0)
(1.85112 0.00089064 0)
(1.85001 0.00087168 -9.89333e-21)
(1.84887 0.000853814 0)
(1.84769 0.000837069 9.64574e-21)
(1.84648 0.000821485 -9.52322e-21)
(1.84524 0.000807066 0)
(1.84397 0.000793799 0)
(1.84267 0.000781637 0)
(1.84134 0.000770543 9.04149e-21)
(1.83999 0.000760453 8.9231e-21)
(1.8386 0.000751318 0)
(1.8372 0.000743062 8.6887e-21)
(1.83577 0.000735626 8.57268e-21)
(1.83431 0.000728952 -8.45744e-21)
(1.83283 0.000723005 0)
(1.83133 0.000717773 0)
(1.8298 0.000713248 -8.11626e-21)
(1.82824 0.00070942 0)
(1.82667 0.000706279 0)
(1.82507 0.000703822 0)
(1.82344 0.000702071 0)
(1.82178 0.000701065 7.56226e-21)
(1.8201 0.000700875 7.45357e-21)
(1.81839 0.000701581 0)
(1.81665 0.000703319 7.23827e-21)
(1.81487 0.00070622 0)
(1.81306 0.000710569 0)
(1.8112 0.000716498 6.92037e-21)
(1.80929 0.000724648 0)
(1.80733 0.000734922 6.71175e-21)
(1.80531 0.000748898 0)
(1.80321 0.000765658 0)
(1.80103 0.000788821 6.40375e-21)
(1.79872 0.000815976 0)
(1.79632 0.000853333 6.20173e-21)
(1.79369 0.000898838 0)
(1.79096 0.000957142 0)
(1.7878 0.00103746 0)
(1.78459 0.00112584 -5.806e-21)
(1.78053 0.00127596 0)
(1.77656 0.00140353 5.6128e-21)
(1.77095 0.00171067 0)
(1.76565 0.00186544 0)
(1.75736 0.0025693 0)
(1.74926 0.00264572 0)
(1.7366 0.00446325 0)
(1.7211 0.00399079 0)
(1.70237 0.00938985 0)
(1.66272 0.00660763 -9.79857e-21)
(1.63975 0.0262582 0)
(1.50653 0.0201187 0)
(-0.0188376 0.0755399 -1.02149e-20)
(-0.0854769 0.104044 1.01382e-20)
(-0.15028 0.110609 0)
(-0.21689 0.120814 -6.65088e-21)
(-0.284959 0.132701 0)
(-0.354585 0.145598 -3.265e-21)
(-0.425792 0.158829 6.47464e-21)
(-0.498653 0.172002 6.41297e-21)
(-0.573264 0.184899 0)
(-0.649713 0.197388 6.28507e-21)
(-0.728054 0.209352 3.10917e-21)
(-0.80831 0.220684 0)
(-0.890457 0.231264 0)
(-0.974438 0.240962 0)
(-1.06015 0.249638 0)
(-1.14743 0.257147 2.9335e-21)
(-1.23606 0.26335 0)
(-1.32577 0.268121 -5.70403e-21)
(-1.41627 0.271341 0)
(-1.50725 0.272851 0)
(-1.59827 0.272473 5.45757e-21)
(-1.68883 0.270014 0)
(-1.77833 0.265276 -5.28852e-21)
(-1.86609 0.258072 2.61373e-21)
(-1.9513 0.248234 -2.57328e-21)
(-2.03308 0.23562 2.53378e-21)
(-2.11041 0.220123 2.49571e-21)
(-2.18224 0.201687 0)
(-2.24742 0.180321 0)
(-2.30481 0.156124 -2.39547e-21)
(-2.35326 0.129297 2.32895e-21)
(-2.39169 0.100137 0)
(-2.4191 0.0690348 0)
(-2.43466 0.0364888 -2.31415e-21)
(-2.43762 0.00306755 0)
(-2.42748 -0.0306312 0)
(-2.40283 -0.0639849 2.30448e-21)
(-2.36398 -0.0964659 0)
(-2.31104 -0.127545 -2.28761e-21)
(-2.24452 -0.15674 4.67559e-21)
(-2.16516 -0.183626 0)
(-2.07388 -0.207856 0)
(-1.97182 -0.229167 9.55472e-21)
(-1.8602 -0.247385 9.65739e-21)
(-1.74036 -0.262425 9.76147e-21)
(-1.61364 -0.27429 -4.91558e-21)
(-1.48139 -0.283067 4.99554e-21)
(-1.34495 -0.288907 1.50947e-20)
(-1.20555 -0.291995 -1.01393e-20)
(-1.06434 -0.292584 -5.11594e-21)
(-0.922425 -0.290959 0)
(-0.780758 -0.287336 5.17237e-21)
(-0.640104 -0.282118 -5.18128e-21)
(-0.501102 -0.275485 0)
(-0.364552 -0.267691 0)
(-0.230885 -0.259094 0)
(-0.100499 -0.249622 5.21767e-21)
(0.025677 -0.239904 0)
(0.147842 -0.229855 -1.03882e-20)
(0.266245 -0.219558 0)
(0.380485 -0.209189 -1.03105e-20)
(0.490474 -0.198854 0)
(0.596172 -0.188635 1.02058e-20)
(0.697578 -0.178597 0)
(0.794725 -0.168792 -1.00793e-20)
(0.887666 -0.159258 5.00307e-21)
(0.976479 -0.150027 0)
(1.06125 -0.141118 9.85902e-21)
(1.14209 -0.132549 4.89111e-21)
(1.2191 -0.124329 4.85013e-21)
(1.29241 -0.116464 0)
(1.36212 -0.108954 4.76315e-21)
(1.42837 -0.1018 4.72201e-21)
(1.49127 -0.0949979 0)
(1.55096 -0.0885421 -4.63376e-21)
(1.60755 -0.082426 9.17648e-21)
(1.66118 -0.0766416 0)
(1.71195 -0.07118 4.49936e-21)
(1.75999 -0.0660314 0)
(1.80541 -0.0611857 -1.32267e-20)
(1.84833 -0.0566321 0)
(1.88886 -0.0523597 1.29577e-20)
(1.9271 -0.0483573 4.27496e-21)
(1.96316 -0.0446134 -4.22939e-21)
(1.99714 -0.0411166 -8.37039e-21)
(2.02913 -0.0378553 8.28245e-21)
(2.05924 -0.0348177 0)
(2.08755 -0.0319922 0)
(2.11416 -0.0293671 0)
(2.13914 -0.0269314 -2.38113e-20)
(2.16258 -0.0246741 -7.8524e-21)
(2.18456 -0.022585 7.76784e-21)
(2.20516 -0.0206539 0)
(2.22445 -0.0188709 7.59956e-21)
(2.24249 -0.0172265 -7.51807e-21)
(2.25937 -0.0157114 -7.43613e-21)
(2.27514 -0.014317 0)
(2.28986 -0.0130347 0)
(2.30361 -0.0118563 0)
(2.31642 -0.0107747 -7.11499e-21)
(2.32836 -0.00978193 0)
(2.33948 -0.00887154 1.3916e-20)
(2.34983 -0.00803741 2.06423e-20)
(2.35945 -0.00727215 -1.36079e-20)
(2.36839 -0.00657198 0)
(2.37669 -0.00592903 -6.65218e-21)
(2.3844 -0.00533848 0)
(2.39154 -0.0047976 -1.30066e-20)
(2.39817 -0.00429466 6.42941e-21)
(2.40432 -0.0038286 6.35633e-21)
(2.41004 -0.00340249 0)
(2.41535 -0.00301354 1.86363e-20)
(2.42029 -0.00266013 -1.22813e-20)
(2.42486 -0.00233865 -6.06996e-21)
(2.42909 -0.00203845 0)
(2.43301 -0.00176099 -5.9299e-21)
(2.43664 -0.00150906 -1.75818e-20)
(2.43999 -0.00127857 0)
(2.44309 -0.00107026 -1.14474e-20)
(2.44595 -0.000884015 -1.1312e-20)
(2.4486 -0.000721007 -1.11777e-20)
(2.45105 -0.000581611 0)
(2.45332 -0.000464069 0)
(2.45541 -0.000364789 0)
(2.45735 -0.000279218 5.32502e-21)
(2.45914 -0.000202956 5.26037e-21)
(2.4608 -0.000132744 0)
(2.46232 -6.672e-05 1.02644e-20)
(2.46371 -4.23075e-06 1.01376e-20)
(2.46498 5.47128e-05 0)
(2.46613 0.000109837 9.88686e-21)
(2.46717 0.000160954 1.95253e-20)
(2.46809 0.000208007 -9.63948e-21)
(2.46892 0.000251131 -9.51696e-21)
(2.46966 0.000290524 0)
(2.4703 0.00032648 0)
(2.47087 0.000359258 0)
(2.47136 0.000389171 -9.03578e-21)
(2.47178 0.000416467 8.9174e-21)
(2.47213 0.000441431 1.75999e-20)
(2.47242 0.00046428 -8.68331e-21)
(2.47266 0.000485243 8.56732e-21)
(2.47284 0.000504525 8.45225e-21)
(2.47298 0.000522335 0)
(2.47307 0.000538886 0)
(2.47312 0.00055439 -8.11132e-21)
(2.47313 0.000569056 0)
(2.4731 0.00058309 0)
(2.47304 0.000596706 1.55542e-20)
(2.47294 0.00061014 0)
(2.47281 0.000623657 7.55779e-21)
(2.47265 0.000637565 -7.44925e-21)
(2.47246 0.000652209 0)
(2.47224 0.000668016 7.23407e-21)
(2.47198 0.000685466 0)
(2.4717 0.000705212 0)
(2.47138 0.000727937 -6.91648e-21)
(2.47102 0.000754691 1.36238e-20)
(2.47062 0.00078647 -6.70802e-21)
(2.47018 0.000824947 0)
(2.46968 0.000871889 0)
(2.46912 0.000929348 6.40017e-21)
(2.46848 0.00100204 0)
(2.46775 0.00108935 6.19825e-21)
(2.46689 0.00120746 0)
(2.4659 0.00134003 0)
(2.46472 0.00154238 0)
(2.46332 0.00173985 5.80295e-21)
(2.4616 0.00210908 0)
(2.45951 0.00238769 -5.60988e-21)
(2.4569 0.00311671 0)
(2.45355 0.00345896 0)
(2.44949 0.00503948 1.06545e-20)
(2.44363 0.00529743 -1.04714e-20)
(2.43725 0.00907862 0)
(2.42564 0.00871406 0)
(2.41591 0.0188233 0)
(2.3896 0.0168441 2.93611e-20)
(2.37711 0.0482899 0)
(2.31292 0.0482787 -1.89584e-20)
(-0.0218605 0.213085 -2.04817e-24)
(-0.0991788 0.268222 -1.35204e-20)
(-0.171839 0.272406 0)
(-0.245717 0.281054 1.32992e-20)
(-0.318804 0.290936 0)
(-0.391647 0.301915 0)
(-0.464311 0.313481 -5.05415e-26)
(-0.537149 0.32553 -6.41086e-21)
(-0.610356 0.337857 -6.34606e-21)
(-0.684222 0.350248 -6.28307e-21)
(-0.759009 0.362523 0)
(-0.83498 0.374489 0)
(-0.912359 0.38596 6.07257e-21)
(-0.99133 0.39675 1.19989e-20)
(-1.07203 0.406659 -1.18485e-20)
(-1.15455 0.415472 0)
(-1.23893 0.422943 -1.15352e-20)
(-1.32516 0.428791 5.70267e-21)
(-1.41318 0.432703 0)
(-1.50284 0.43436 -1.10354e-20)
(-1.59388 0.433426 -5.45631e-21)
(-1.6859 0.429545 1.06864e-20)
(-1.77831 0.422346 5.28728e-21)
(-1.87039 0.411455 0)
(-1.96123 0.396512 -1.01572e-20)
(-2.04977 0.377184 -9.98528e-21)
(-2.13476 0.3532 0)
(-2.21485 0.324374 -9.66093e-21)
(-2.28853 0.290643 0)
(-2.35426 0.252085 -9.37985e-21)
(-2.41048 0.208945 -4.69632e-21)
(-2.4557 0.161652 0)
(-2.48859 0.110811 0)
(-2.50795 0.0571719 0)
(-2.51286 0.00163982 0)
(-2.5025 -0.0547615 0)
(-2.47646 -0.110988 0)
(-2.43487 -0.165902 -9.03925e-21)
(-2.37817 -0.218489 1.37046e-20)
(-2.30704 -0.267842 0)
(-2.22241 -0.313196 0)
(-2.12541 -0.35394 0)
(-2.01735 -0.389625 -8.47646e-23)
(-1.89964 -0.419967 -9.65393e-21)
(-1.77378 -0.444842 -1.94499e-20)
(-1.64129 -0.464282 1.96636e-20)
(-1.50365 -0.478453 9.90945e-21)
(-1.36231 -0.487631 -1.00515e-20)
(-1.21859 -0.492192 3.65045e-23)
(-1.07366 -0.492602 -1.01796e-20)
(-0.928596 -0.489324 0)
(-0.784424 -0.482837 -1.03058e-20)
(-0.641879 -0.473634 1.96563e-23)
(-0.501499 -0.462165 0)
(-0.364101 -0.448969 0)
(-0.229978 -0.434346 1.04151e-20)
(-0.0995473 -0.418667 0)
(0.0263679 -0.402292 0)
(0.148106 -0.385489 -1.03663e-20)
(0.265849 -0.368425 -2.06836e-20)
(0.379294 -0.351299 1.03083e-20)
(0.488394 -0.334275 0)
(0.593148 -0.317484 -1.02038e-20)
(0.69359 -0.301028 0)
(0.789782 -0.284985 -1.00651e-20)
(0.881807 -0.269416 -1.00078e-20)
(0.969762 -0.254364 1.98576e-20)
(1.05376 -0.23986 9.84733e-21)
(1.13391 -0.225925 0)
(1.21035 -0.21257 -1.9384e-20)
(1.28319 -0.199799 0)
(1.35257 -0.187613 -2.85747e-20)
(1.41862 -0.176005 -1.88744e-20)
(1.48146 -0.164966 -1.86996e-20)
(1.54122 -0.154484 1.85231e-20)
(1.59804 -0.144545 -2.75211e-20)
(1.65202 -0.135134 0)
(1.70329 -0.126233 0)
(1.75196 -0.117824 1.78082e-20)
(1.79815 -0.10989 2.64457e-20)
(1.84197 -0.102412 0)
(1.88351 -0.0953707 -8.63755e-21)
(1.92287 -0.0887474 0)
(1.96016 -0.0825234 2.53748e-20)
(1.99546 -0.0766806 3.32231e-24)
(2.02887 -0.0712009 -3.09037e-24)
(2.06046 -0.0660667 -1.63882e-20)
(2.09033 -0.0612608 0)
(2.11854 -0.0567664 1.6042e-20)
(2.14518 -0.0525672 2.30198e-24)
(2.17032 -0.0486471 0)
(2.19402 -0.0449907 0)
(2.21636 -0.0415829 0)
(2.23741 -0.0384095 -1.51995e-20)
(2.25721 -0.0354566 0)
(2.27584 -0.0327109 0)
(2.29335 -0.0301597 0)
(2.30979 -0.0277908 0)
(2.32523 -0.0255927 0)
(2.33972 -0.0235544 -1.42275e-20)
(2.35329 -0.0216652 0)
(2.36601 -0.0199153 -1.39153e-20)
(2.37791 -0.0182952 -1.37606e-20)
(2.38905 -0.0167962 1.36072e-20)
(2.39946 -0.0154091 0)
(2.40918 -0.0141262 1.33041e-20)
(2.41826 -0.0129401 0)
(2.42672 -0.011843 1.30058e-20)
(2.43462 -0.0108307 -1.28585e-20)
(2.44197 -0.00989793 -3.81359e-20)
(2.44882 -0.00903894 0)
(2.45519 -0.00824725 -3.72693e-20)
(2.46112 -0.00751764 -1.22798e-20)
(2.46663 -0.00684386 0)
(2.47176 -0.00621544 -2.39961e-20)
(2.47653 -0.00563307 -2.37172e-20)
(2.48098 -0.00509814 3.51608e-20)
(2.48511 -0.00460963 0)
(2.48894 -0.00416571 1.14467e-20)
(2.49251 -0.00376359 1.13113e-20)
(2.49582 -0.00340328 3.35306e-20)
(2.49889 -0.00308381 0)
(2.50173 -0.00280207 0)
(2.50436 -0.00255254 0)
(2.50679 -0.00232808 1.06492e-20)
(2.50903 -0.0021216 0)
(2.5111 -0.00192763 0)
(2.51301 -0.00174307 -1.02638e-20)
(2.51477 -0.00156694 -1.0137e-20)
(2.51639 -0.00139955 0)
(2.51788 -0.00124174 0)
(2.51926 -0.00109421 -1.95241e-20)
(2.52052 -0.000957301 0)
(2.52168 -0.000830941 1.90328e-20)
(2.52274 -0.000714763 1.87896e-20)
(2.52371 -0.000608199 0)
(2.5246 -0.000510618 0)
(2.52542 -0.000421335 -1.80702e-20)
(2.52616 -0.000339697 -1.13308e-25)
(2.52684 -0.000265058 -1.04337e-25)
(2.52746 -0.000196824 0)
(2.52802 -0.000134415 -3.42672e-20)
(2.52853 -7.72852e-05 0)
(2.529 -2.49019e-05 0)
(2.52942 2.32529e-05 0)
(2.52979 6.76719e-05 1.62217e-20)
(2.53014 0.000108831 0)
(2.53044 0.000147192 -3.15491e-20)
(2.53072 0.000183225 -1.55532e-20)
(2.53096 0.000217415 0)
(2.53117 0.000250295 -1.51147e-20)
(2.53136 0.000282426 0)
(2.53152 0.000314462 0)
(2.53165 0.000347084 -4.34018e-20)
(2.53176 0.000381197 2.85083e-20)
(2.53184 0.000417666 0)
(2.53189 0.000457904 2.7664e-20)
(2.53191 0.00050294 -1.36229e-20)
(2.5319 0.000555329 0)
(2.53185 0.000615847 0)
(2.53176 0.000690026 0)
(2.53162 0.000776411 -3.83987e-20)
(2.53141 0.00088871 0)
(2.53113 0.00101664 -1.23959e-20)
(2.53076 0.00119603 0)
(2.53025 0.0013889 0)
(2.52964 0.00168998 0)
(2.52877 0.00198078 0)
(2.52776 0.00251444 0)
(2.52627 0.00294433 0)
(2.52463 0.00395097 -2.20545e-20)
(2.52205 0.00456205 0)
(2.51935 0.00660684 -1.06538e-20)
(2.51475 0.00741816 3.14077e-20)
(2.51028 0.0119425 0)
(2.50184 0.0130061 0)
(2.49434 0.024052 -1.98783e-20)
(2.47899 0.0266004 -1.9566e-20)
(2.46733 0.0566015 1.92195e-20)
(2.44528 0.0680986 1.89559e-20)
(-0.0195263 0.337606 2.04319e-20)
(-0.092919 0.420188 2.02763e-20)
(-0.161303 0.422058 1.34071e-20)
(-0.231358 0.428786 6.64538e-21)
(-0.300547 0.436544 0)
(-0.369855 0.44599 -1.30596e-20)
(-0.439161 0.456831 6.46556e-21)
(-0.508866 0.468681 0)
(-0.579306 0.481275 6.34528e-21)
(-0.650907 0.494534 0)
(-0.723968 0.508253 -1.24116e-20)
(-0.79877 0.522193 0)
(-0.875561 0.536085 -6.07185e-21)
(-0.954604 0.549634 -1.19974e-20)
(-1.03617 0.562541 1.18469e-20)
(-1.12047 0.574479 0)
(-1.20768 0.585083 1.15334e-20)
(-1.29784 0.593955 0)
(-1.39087 0.600641 0)
(-1.48659 0.604627 1.10331e-20)
(-1.58466 0.605346 0)
(-1.68463 0.602178 -7.85116e-23)
(-1.78584 0.594463 0)
(-1.88749 0.581515 0)
(-1.98855 0.56266 1.15255e-22)
(-2.08777 0.537275 9.98197e-21)
(-2.18371 0.504833 9.67237e-21)
(-2.27471 0.464955 9.6575e-21)
(-2.35895 0.417462 0)
(-2.43452 0.362425 1.85694e-20)
(-2.4995 0.300213 0)
(-2.55205 0.231512 8.95731e-21)
(-2.59052 0.157309 0)
(-2.61349 0.0788682 0)
(-2.61989 -0.00231903 -8.7838e-21)
(-2.60891 -0.0846626 0)
(-2.58026 -0.166512 8.79781e-21)
(-2.53417 -0.246253 1.93033e-22)
(-2.47124 -0.322367 -1.80029e-20)
(-2.39242 -0.393496 1.79948e-20)
(-2.29895 -0.458509 0)
(-2.1923 -0.516536 0)
(-2.0741 -0.566962 9.21148e-21)
(-1.94606 -0.60942 0)
(-1.80997 -0.643789 9.6881e-21)
(-1.66759 -0.670176 -9.79933e-21)
(-1.52061 -0.688894 -9.90585e-21)
(-1.37062 -0.700411 0)
(-1.2191 -0.705338 1.0096e-20)
(-1.0673 -0.704378 1.01764e-20)
(-0.916297 -0.698278 -2.04138e-20)
(-0.767066 -0.687765 1.03029e-20)
(-0.620354 -0.673526 1.03482e-20)
(-0.476736 -0.656312 0)
(-0.336823 -0.636806 0)
(-0.200798 -0.615387 -1.04128e-20)
(-0.0690409 -0.592769 0)
(0.0576156 -0.569374 0)
(0.179675 -0.545346 2.07456e-20)
(0.297497 -0.521094 2.06775e-20)
(0.410701 -0.496868 0)
(0.519314 -0.472874 0)
(0.623391 -0.449276 0)
(0.723007 -0.426202 0)
(0.81826 -0.40375 2.01379e-20)
(0.909261 -0.381996 -1.99827e-20)
(0.996129 -0.360993 -1.98534e-20)
(1.07899 -0.340777 -3.93874e-20)
(1.15799 -0.32137 0)
(1.23325 -0.302784 1.29248e-23)
(1.30491 -0.28502 0)
(1.37312 -0.268073 1.90441e-20)
(1.438 -0.251933 1.06089e-23)
(1.49969 -0.236584 1.86969e-20)