/*--------------------------------*- C++ -*----------------------------------*\
  =========                 |
  \\      /  F ield         | OpenFOAM: The Open Source CFD Toolbox
   \\    /   O peration     | Website:  https://openfoam.org
    \\  /    A nd           | Version:  7
     \\/     M anipulation  |
\*---------------------------------------------------------------------------*/
FoamFile
{
    version     2.0;
    format      ascii;
    class       volSymmTensorField;
    location    "0.018";
    object      UPrime2Mean;
}
// * * * * * * * * * * * * * * * * * * * * * * * * * * * * * * * * * * * * * //

dimensions      [0 2 -2 0 0 0 0];

internalField   nonuniform List<symmTensor> 
12225
(
(0.0071467 -0.000616639 0 0.000682985 0 0)
(0.102458 -0.00446487 0 0.000498295 0 0)
(0.149342 -0.00651064 0 0.000577378 0 0)
(0.196995 -0.00781896 0 0.000583846 0 0)
(0.276448 -0.00934148 0 0.000561503 0 0)
(0.387129 -0.0109748 0 0.000520888 0 0)
(0.521831 -0.0123766 0 0.000490927 0 0)
(0.674947 -0.0127264 0 0.000383814 0 0)
(0.838737 -0.0137601 0 0.000369654 0 0)
(1.01282 -0.0111357 0 0.000226484 0 0)
(1.19077 -0.0151408 0 0.000286353 0 0)
(1.37373 -0.006317 0 0.000160066 0 0)
(1.57938 -0.0247562 0 0.000580899 0 0)
(1.78481 0.00531254 0 0.00065379 0 0)
(2.10421 -0.0687418 0 0.00398781 0 0)
(2.44799 0.0490591 0 0.0060255 0 0)
(3.20097 -0.299707 0 0.0517334 0 0)
(4.60186 0.143246 0 0.0280664 0 0)
(0.00695261 -0.000655453 0 0.000600122 0 0)
(0.0695716 -0.0026602 0 0.000370593 0 0)
(0.0763589 -0.00406595 0 0.000658589 0 0)
(0.0777817 -0.00475133 0 0.000951609 0 0)
(0.090708 -0.00597195 0 0.00125885 0 0)
(0.112139 -0.00801604 0 0.00158038 0 0)
(0.141633 -0.0105437 0 0.0018189 0 0)
(0.181775 -0.0137051 0 0.00211545 0 0)
(0.23024 -0.0163311 0 0.00209534 0 0)
(0.296047 -0.0206053 0 0.00237612 0 0)
(0.366771 -0.0220034 0 0.00201996 0 0)
(0.469661 -0.0300498 0 0.00264239 0 0)
(0.565823 -0.0287448 0 0.00207933 0 0)
(0.737176 -0.0512795 0 0.00440928 0 0)
(0.874486 -0.0460934 0 0.00390188 0 0)
(1.23193 -0.125904 0 0.0164587 0 0)
(1.475 -0.149829 0 0.0178162 0 0)
(2.3159 -0.554133 0 0.161493 0 0)
(0.00562023 -0.000494081 0 0.000943372 0 0)
(0.0672031 -0.00398036 0 0.000709632 0 0)
(0.0717235 -0.0053886 0 0.00120519 0 0)
(0.0690597 -0.0055063 0 0.001708 0 0)
(0.0741741 -0.00594169 0 0.00219104 0 0)
(0.0822597 -0.00701224 0 0.00264516 0 0)
(0.0922924 -0.00854562 0 0.00318745 0 0)
(0.104727 -0.0102674 0 0.00346059 0 0)
(0.120771 -0.0126759 0 0.00400718 0 0)
(0.141178 -0.0147167 0 0.00397149 0 0)
(0.169402 -0.0193186 0 0.00470175 0 0)
(0.205343 -0.0219015 0 0.00439668 0 0)
(0.257575 -0.0332138 0 0.00646933 0 0)
(0.324851 -0.0375647 0 0.00607506 0 0)
(0.429374 -0.0735479 0 0.0150485 0 0)
(0.568834 -0.0918141 0 0.0164357 0 0)
(0.779325 -0.226651 0 0.071091 0 0)
(1.03899 -0.398474 0 0.162113 0 0)
(0.00652033 -0.00116918 0 0.00126419 0 0)
(0.0684197 -0.0046049 0 0.000993268 0 0)
(0.072555 -0.00586807 0 0.00143852 0 0)
(0.0699442 -0.0061063 0 0.00199322 0 0)
(0.0747708 -0.00663626 0 0.00250927 0 0)
(0.0820057 -0.00779848 0 0.00304819 0 0)
(0.0904499 -0.00937935 0 0.00357029 0 0)
(0.100498 -0.0112843 0 0.00419802 0 0)
(0.112594 -0.0133894 0 0.00465127 0 0)
(0.128388 -0.0163897 0 0.00537694 0 0)
(0.148764 -0.0199501 0 0.00588553 0 0)
(0.177052 -0.0263004 0 0.00726135 0 0)
(0.214636 -0.0342623 0 0.00863359 0 0)
(0.268855 -0.0505773 0 0.0127983 0 0)
(0.342662 -0.0742836 0 0.019086 0 0)
(0.446288 -0.124075 0 0.0378156 0 0)
(0.580452 -0.21492 0 0.0822482 0 0)
(0.705418 -0.36021 0 0.18859 0 0)
(0.00694463 -0.00090943 0 0.00156935 0 0)
(0.0665201 -0.00536859 0 0.00136394 0 0)
(0.0696603 -0.00654913 0 0.00186691 0 0)
(0.0671822 -0.00680523 0 0.00260004 0 0)
(0.0722474 -0.00745134 0 0.00328484 0 0)
(0.0795016 -0.00881427 0 0.00392922 0 0)
(0.0877947 -0.0107201 0 0.00467609 0 0)
(0.0974691 -0.0129921 0 0.00537369 0 0)
(0.10917 -0.0158734 0 0.0063091 0 0)
(0.12392 -0.0193015 0 0.00716549 0 0)
(0.143157 -0.0245547 0 0.00860279 0 0)
(0.168541 -0.0313812 0 0.0102613 0 0)
(0.202582 -0.0430698 0 0.0137439 0 0)
(0.248399 -0.0597645 0 0.0188617 0 0)
(0.309541 -0.0900444 0 0.0307576 0 0)
(0.386952 -0.138377 0 0.0537955 0 0)
(0.475091 -0.219426 0 0.104902 0 0)
(0.539823 -0.342672 0 0.226374 0 0)
(0.00546616 -0.00141761 0 0.00161624 0 0)
(0.0655295 -0.00622674 0 0.00167134 0 0)
(0.068248 -0.00718857 0 0.00229634 0 0)
(0.0656182 -0.00733203 0 0.00321436 0 0)
(0.0703458 -0.0079667 0 0.00405653 0 0)
(0.0769818 -0.00935656 0 0.00484999 0 0)
(0.0845545 -0.0113722 0 0.00570597 0 0)
(0.0934959 -0.013949 0 0.00671863 0 0)
(0.104352 -0.0171885 0 0.00787425 0 0)
(0.117988 -0.0214459 0 0.00932034 0 0)
(0.135629 -0.0273268 0 0.0112092 0 0)
(0.158492 -0.0358441 0 0.0140739 0 0)
(0.188536 -0.0485612 0 0.0186741 0 0)
(0.227016 -0.0679916 0 0.026672 0 0)
(0.275964 -0.0986935 0 0.0416132 0 0)
(0.331388 -0.145391 0 0.0699311 0 0)
(0.387763 -0.215886 0 0.126167 0 0)
(0.419704 -0.305152 0 0.228826 0 0)
(0.00605425 -0.00139537 0 0.00191943 0 0)
(0.0639973 -0.00696189 0 0.00230551 0 0)
(0.0653625 -0.00773369 0 0.00299226 0 0)
(0.0622674 -0.00765574 0 0.00402006 0 0)
(0.0664926 -0.00824266 0 0.00504099 0 0)
(0.0723183 -0.00969635 0 0.00602737 0 0)
(0.0788704 -0.0118311 0 0.00713608 0 0)
(0.0866463 -0.0145701 0 0.0084314 0 0)
(0.0961709 -0.0180933 0 0.010027 0 0)
(0.10814 -0.0227434 0 0.0120281 0 0)
(0.12346 -0.0292413 0 0.0147303 0 0)
(0.142948 -0.0385213 0 0.0187264 0 0)
(0.167703 -0.0520547 0 0.0249833 0 0)
(0.197972 -0.0720352 0 0.0355155 0 0)
(0.23389 -0.10133 0 0.0534839 0 0)
(0.270754 -0.143406 0 0.0858094 0 0)
(0.303261 -0.199262 0 0.140435 0 0)
(0.314058 -0.26364 0 0.231743 0 0)
(0.00459771 -0.00141735 0 0.00211287 0 0)
(0.0621637 -0.00762055 0 0.00252834 0 0)
(0.0634482 -0.00813239 0 0.0034899 0 0)
(0.0604253 -0.00782237 0 0.00469079 0 0)
(0.064451 -0.00840634 0 0.00592227 0 0)
(0.0697113 -0.00993358 0 0.00714552 0 0)
(0.0754494 -0.0121501 0 0.00850399 0 0)
(0.0822376 -0.0150238 0 0.010147 0 0)
(0.0905443 -0.0187639 0 0.0122047 0 0)
(0.100866 -0.0237439 0 0.0148579 0 0)
(0.113801 -0.0306123 0 0.0184501 0 0)
(0.129773 -0.0402331 0 0.0236699 0 0)
(0.149247 -0.0538529 0 0.0316028 0 0)
(0.171773 -0.0730553 0 0.0442701 0 0)
(0.196497 -0.0996668 0 0.064672 0 0)
(0.219025 -0.134951 0 0.0982044 0 0)
(0.235134 -0.177903 0 0.15039 0 0)
(0.23412 -0.222861 0 0.229595 0 0)
(0.0069346 -0.00187324 0 0.00223783 0 0)
(0.063594 -0.00882653 0 0.00310623 0 0)
(0.063559 -0.00932871 0 0.00419895 0 0)
(0.0598784 -0.00881251 0 0.00553963 0 0)
(0.0635439 -0.00939821 0 0.00699879 0 0)
(0.0684366 -0.0110791 0 0.00849061 0 0)
(0.0736514 -0.0134956 0 0.0101526 0 0)
(0.0796444 -0.0165649 0 0.0121761 0 0)
(0.0867511 -0.0204817 0 0.0147336 0 0)
(0.0953189 -0.0256154 0 0.0180713 0 0)
(0.105739 -0.032546 0 0.0225535 0 0)
(0.118167 -0.0420149 0 0.0289325 0 0)
(0.13265 -0.0549625 0 0.0382854 0 0)
(0.148351 -0.0724373 0 0.0526026 0 0)
(0.164128 -0.0953265 0 0.074376 0 0)
(0.176275 -0.123603 0 0.107793 0 0)
(0.182173 -0.15543 0 0.15611 0 0)
(0.175109 -0.185582 0 0.223777 0 0)
(0.00593906 -0.00189264 0 0.00273007 0 0)
(0.0627597 -0.00958193 0 0.00364252 0 0)
(0.0626514 -0.00985112 0 0.00492426 0 0)
(0.0588824 -0.00903426 0 0.00639844 0 0)
(0.0622179 -0.00949015 0 0.00803527 0 0)
(0.0665181 -0.0111707 0 0.00977659 0 0)
(0.0709588 -0.0136198 0 0.0117384 0 0)
(0.0760065 -0.0167109 0 0.0141253 0 0)
(0.0819305 -0.0206394 0 0.0171587 0 0)
(0.0889408 -0.0257659 0 0.0211468 0 0)
(0.0972462 -0.0326019 0 0.0264979 0 0)
(0.10677 -0.0417201 0 0.0339795 0 0)
(0.117284 -0.0537655 0 0.0446052 0 0)
(0.127764 -0.0692429 0 0.0601294 0 0)
(0.137099 -0.0883706 0 0.0824631 0 0)
(0.142369 -0.110341 0 0.114648 0 0)
(0.142287 -0.133223 0 0.158268 0 0)
(0.132526 -0.152653 0 0.21582 0 0)
(0.00724781 -0.00215975 0 0.0029767 0 0)
(0.0634846 -0.010707 0 0.00407115 0 0)
(0.0620615 -0.0111735 0 0.00539484 0 0)
(0.0575492 -0.0101978 0 0.00701133 0 0)
(0.0605745 -0.0106213 0 0.00885586 0 0)
(0.0647008 -0.0124089 0 0.0108926 0 0)
(0.0688642 -0.0149972 0 0.0132137 0 0)
(0.0733959 -0.0181907 0 0.0160238 0 0)
(0.0785045 -0.022155 0 0.0195708 0 0)
(0.0843146 -0.0272163 0 0.0241976 0 0)
(0.0908711 -0.0337854 0 0.0303206 0 0)
(0.0979318 -0.0422493 0 0.038648 0 0)
(0.105109 -0.0529689 0 0.0500599 0 0)
(0.111439 -0.0660733 0 0.0660249 0 0)
(0.115996 -0.0813536 0 0.0879323 0 0)
(0.116739 -0.0977242 0 0.117875 0 0)
(0.113208 -0.113414 0 0.156377 0 0)
(0.10274 -0.125155 0 0.204789 0 0)
(0.00516793 -0.00204496 0 0.00340033 0 0)
(0.0612121 -0.0105609 0 0.00468881 0 0)
(0.0600074 -0.0110351 0 0.00609906 0 0)
(0.0555362 -0.00985864 0 0.00787218 0 0)
(0.0582518 -0.0101202 0 0.00991105 0 0)
(0.0617812 -0.0118198 0 0.0122277 0 0)
(0.065196 -0.014319 0 0.0148971 0 0)
(0.0688719 -0.0173672 0 0.0180907 0 0)
(0.0729503 -0.0210828 0 0.0220647 0 0)
(0.0774345 -0.0257347 0 0.0271824 0 0)
(0.0822273 -0.0316414 0 0.0338692 0 0)
(0.0869916 -0.0390345 0 0.042794 0 0)
(0.0913033 -0.0480656 0 0.0547051 0 0)
(0.094371 -0.0585942 0 0.0707799 0 0)
(0.0955567 -0.0701901 0 0.0919261 0 0)
(0.0935203 -0.0816965 0 0.119544 0 0)
(0.0883518 -0.0916666 0 0.153499 0 0)
(0.078279 -0.0975955 0 0.194606 0 0)
(0.00600382 -0.00285144 0 0.00363924 0 0)
(0.0626705 -0.0118595 0 0.00509622 0 0)
(0.0608941 -0.0121304 0 0.00660113 0 0)
(0.0558331 -0.0107526 0 0.00849797 0 0)
(0.0580352 -0.0109395 0 0.0107007 0 0)
(0.0610376 -0.0126253 0 0.013255 0 0)
(0.06386 -0.0150881 0 0.016229 0 0)
(0.0668167 -0.0180112 0 0.019773 0 0)
(0.069976 -0.0214712 0 0.0241309 0 0)
(0.0732775 -0.0256895 0 0.0296477 0 0)
(0.0765763 -0.0308989 0 0.0367087 0 0)
(0.0795402 -0.0371988 0 0.0458904 0 0)
(0.0817612 -0.0445735 0 0.0577891 0 0)
(0.0826218 -0.0527215 0 0.0733119 0 0)
(0.0816753 -0.0611201 0 0.0930214 0 0)
(0.0781114 -0.0687076 0 0.117861 0 0)
(0.0722937 -0.0743668 0 0.147364 0 0)
(0.0630847 -0.0762597 0 0.182067 0 0)
(0.00554197 -0.00243818 0 0.00386122 0 0)
(0.0608906 -0.0115872 0 0.00567141 0 0)
(0.0588459 -0.0118055 0 0.00764361 0 0)
(0.053824 -0.0102197 0 0.00983743 0 0)
(0.0557639 -0.010151 0 0.0122635 0 0)
(0.0581722 -0.0115761 0 0.0150528 0 0)
(0.0601621 -0.0137433 0 0.0183094 0 0)
(0.0620861 -0.016256 0 0.022184 0 0)
(0.0640062 -0.0191096 0 0.0268965 0 0)
(0.0658672 -0.0224629 0 0.0327536 0 0)
(0.067546 -0.0264952 0 0.0400919 0 0)
(0.0687728 -0.0312235 0 0.0493835 0 0)
(0.0692099 -0.0365219 0 0.0610573 0 0)
(0.0684186 -0.0419848 0 0.0757583 0 0)
(0.0661603 -0.0470942 0 0.0937297 0 0)
(0.0620318 -0.0509279 0 0.115551 0 0)
(0.0565731 -0.0527572 0 0.140517 0 0)
(0.0490055 -0.0512202 0 0.169035 0 0)
(0.00666069 -0.00225021 0 0.0040162 0 0)
(0.0610857 -0.0126829 0 0.0061691 0 0)
(0.0583062 -0.0131224 0 0.00848001 0 0)
(0.0526079 -0.0113389 0 0.0109175 0 0)
(0.0540212 -0.0110211 0 0.0134971 0 0)
(0.0558909 -0.0122102 0 0.0164245 0 0)
(0.0572394 -0.0141161 0 0.0198668 0 0)
(0.0583634 -0.0162801 0 0.0239699 0 0)
(0.0593137 -0.0186327 0 0.0288982 0 0)
(0.0600566 -0.0212698 0 0.0348817 0 0)
(0.0604976 -0.0242867 0 0.0421631 0 0)
(0.0604298 -0.0276037 0 0.051089 0 0)
(0.0596101 -0.0310149 0 0.0619197 0 0)
(0.0577942 -0.0340817 0 0.0750642 0 0)
(0.0549299 -0.0363748 0 0.0905202 0 0)
(0.0509063 -0.0371641 0 0.108616 0 0)
(0.0463258 -0.0360791 0 0.128589 0 0)
(0.0406443 -0.0321597 0 0.150808 0 0)
(0.00616094 -0.00184832 0 0.00437999 0 0)
(0.0600332 -0.012598 0 0.00665336 0 0)
(0.0565401 -0.0130777 0 0.00895048 0 0)
(0.0503591 -0.0110018 0 0.0114861 0 0)
(0.0512375 -0.0103236 0 0.0142265 0 0)
(0.0524637 -0.0111416 0 0.0173296 0 0)
(0.0531396 -0.0125901 0 0.0209439 0 0)
(0.0535627 -0.0141264 0 0.0252016 0 0)
(0.053724 -0.0156192 0 0.0302362 0 0)
(0.0535567 -0.0171134 0 0.0362071 0 0)
(0.053008 -0.0186649 0 0.0432465 0 0)
(0.0519877 -0.0201756 0 0.0515357 0 0)
(0.0504004 -0.0214634 0 0.0611599 0 0)
(0.0481971 -0.0221585 0 0.0723491 0 0)
(0.0454611 -0.0219901 0 0.0849832 0 0)
(0.0422702 -0.0204322 0 0.099273 0 0)
(0.0391363 -0.0173923 0 0.114522 0 0)
(0.0356595 -0.0121727 0 0.131078 0 0)
(0.00794009 -0.00230415 0 0.00465571 0 0)
(0.062155 -0.0131555 0 0.00679265 0 0)
(0.0576419 -0.0137192 0 0.00921632 0 0)
(0.0504651 -0.0115708 0 0.011939 0 0)
(0.0504828 -0.0107611 0 0.0147963 0 0)
(0.0509125 -0.0114016 0 0.017956 0 0)
(0.0508376 -0.0125427 0 0.0215444 0 0)
(0.0505449 -0.0135744 0 0.0256297 0 0)
(0.0500124 -0.0143381 0 0.0302873 0 0)
(0.0491803 -0.0148771 0 0.0356346 0 0)
(0.048029 -0.0152451 0 0.0417718 0 0)
(0.0465536 -0.0153621 0 0.0488217 0 0)
(0.0447511 -0.0150841 0 0.0567864 0 0)
(0.0426949 -0.0141502 0 0.0657464 0 0)
(0.0405061 -0.0123994 0 0.075484 0 0)
(0.0383478 -0.00951845 0 0.0860915 0 0)
(0.0366061 -0.00553976 0 0.0969661 0 0)
(0.0349912 -3.84213e-05 0 0.108421 0 0)
(0.00655824 -0.00206503 0 0.00444716 0 0)
(0.0594352 -0.0130762 0 0.00657571 0 0)
(0.0550928 -0.0136349 0 0.00848873 0 0)
(0.0480039 -0.0114404 0 0.0109141 0 0)
(0.0476427 -0.010484 0 0.0136559 0 0)
(0.047314 -0.0107187 0 0.0166446 0 0)
(0.0464048 -0.0111932 0 0.0199029 0 0)
(0.0454201 -0.0113834 0 0.0235104 0 0)
(0.0443972 -0.0111982 0 0.0275551 0 0)
(0.0432634 -0.0106948 0 0.0320985 0 0)
(0.042007 -0.0099008 0 0.0371446 0 0)
(0.040674 -0.00874005 0 0.0427006 0 0)
(0.0393194 -0.00710175 0 0.0487013 0 0)
(0.0380787 -0.00482936 0 0.05517 0 0)
(0.0370748 -0.00185467 0 0.0619188 0 0)
(0.0364782 0.0019658 0 0.0690196 0 0)
(0.0365239 0.00654325 0 0.0760325 0 0)
(0.0370101 0.0120699 0 0.0832387 0 0)
(0.00612761 -0.00183957 0 0.00414811 0 0)
(0.0595574 -0.0126502 0 0.0058406 0 0)
(0.0542006 -0.0125913 0 0.00767668 0 0)
(0.0463588 -0.00987813 0 0.00989754 0 0)
(0.0455084 -0.00825417 0 0.0121964 0 0)
(0.0446595 -0.00770364 0 0.0145748 0 0)
(0.043309 -0.00739607 0 0.0170963 0 0)
(0.0420594 -0.00683651 0 0.0197895 0 0)
(0.0409717 -0.00588192 0 0.0226656 0 0)
(0.0399859 -0.00455403 0 0.025745 0 0)
(0.0391086 -0.00290244 0 0.029039 0 0)
(0.0384033 -0.000920333 0 0.0325711 0 0)
(0.0379427 0.00142049 0 0.036307 0 0)
(0.0378602 0.00419461 0 0.0402481 0 0)
(0.0382497 0.00740959 0 0.0442599 0 0)
(0.0392423 0.0111448 0 0.0483857 0 0)
(0.0409565 0.0152821 0 0.0523527 0 0)
(0.0432587 0.0199569 0 0.0563509 0 0)
(0.00601702 -0.00207827 0 0.00424856 0 0)
(0.058734 -0.0120182 0 0.0057078 0 0)
(0.0525287 -0.0114499 0 0.00731789 0 0)
(0.0443966 -0.00863151 0 0.00915771 0 0)
(0.043122 -0.00683528 0 0.0109278 0 0)
(0.0419414 -0.00604009 0 0.0127193 0 0)
(0.0404217 -0.00550238 0 0.014611 0 0)
(0.0391196 -0.00473943 0 0.0166106 0 0)
(0.0380766 -0.00358102 0 0.0187108 0 0)
(0.0372576 -0.00204205 0 0.0209076 0 0)
(0.0367108 -0.00019424 0 0.0231769 0 0)
(0.0365245 0.00191796 0 0.0254921 0 0)
(0.0367645 0.00427416 0 0.0278003 0 0)
(0.0375206 0.00689124 0 0.030096 0 0)
(0.0388438 0.00974757 0 0.03231 0 0)
(0.040795 0.0128724 0 0.0345116 0 0)
(0.0434255 0.016178 0 0.0365716 0 0)
(0.046614 0.0197564 0 0.0386325 0 0)
(0.00701835 -0.00200943 0 0.00367232 0 0)
(0.0598007 -0.0108262 0 0.00471439 0 0)
(0.0529123 -0.0101088 0 0.00578236 0 0)
(0.0441744 -0.00735318 0 0.00705654 0 0)
(0.0424493 -0.00551402 0 0.00832662 0 0)
(0.0409704 -0.00448545 0 0.00959589 0 0)
(0.0393734 -0.00362113 0 0.0108555 0 0)
(0.0382125 -0.00258383 0 0.012081 0 0)
(0.037461 -0.00129404 0 0.0132828 0 0)
(0.0370157 0.000224396 0 0.0144924 0 0)
(0.0369142 0.00193283 0 0.0157251 0 0)
(0.0372682 0.00381415 0 0.0169883 0 0)
(0.038162 0.00586623 0 0.0182715 0 0)
(0.0396609 0.00809922 0 0.0195868 0 0)
(0.0417876 0.0105012 0 0.0208924 0 0)
(0.0445577 0.013082 0 0.0222132 0 0)
(0.0480033 0.0157838 0 0.0234538 0 0)
(0.0519946 0.0186453 0 0.0246798 0 0)
(0.00583204 -0.00134905 0 0.00333743 0 0)
(0.0579833 -0.00902039 0 0.00374668 0 0)
(0.0507215 -0.00845646 0 0.00462441 0 0)
(0.0420091 -0.0058975 0 0.0056045 0 0)
(0.0402915 -0.00407203 0 0.0065784 0 0)
(0.0387805 -0.00303048 0 0.00759799 0 0)
(0.0372256 -0.00218941 0 0.00865244 0 0)
(0.0362421 -0.0011506 0 0.00969381 0 0)
(0.0358502 0.000214233 0 0.0106796 0 0)
(0.0359843 0.00184817 0 0.0115962 0 0)
(0.0366541 0.00363938 0 0.0124447 0 0)
(0.0378944 0.00551027 0 0.0132397 0 0)
(0.0397326 0.0074332 0 0.0139851 0 0)
(0.0421941 0.00941321 0 0.0147028 0 0)
(0.0452865 0.011457 0 0.0153811 0 0)
(0.0489968 0.0135888 0 0.0160627 0 0)
(0.0533712 0.0157782 0 0.0166876 0 0)
(0.0582888 0.018062 0 0.0173075 0 0)
(0.00696512 -0.00147207 0 0.003033 0 0)
(0.0568843 -0.0078001 0 0.0034576 0 0)
(0.0494016 -0.00673268 0 0.0039273 0 0)
(0.0410698 -0.00408707 0 0.00439468 0 0)
(0.0396064 -0.00225029 0 0.00485229 0 0)
(0.038144 -0.00117301 0 0.00528797 0 0)
(0.0366462 -0.000327321 0 0.00569101 0 0)
(0.0359572 0.000605321 0 0.00608877 0 0)
(0.0361527 0.00172244 0 0.00650623 0 0)
(0.037065 0.00298988 0 0.00694389 0 0)
(0.0385866 0.00433888 0 0.0073847 0 0)
(0.0406697 0.00572528 0 0.00781289 0 0)
(0.0432918 0.00714275 0 0.00822059 0 0)
(0.0464794 0.00861015 0 0.00861879 0 0)
(0.0502816 0.0101285 0 0.00899395 0 0)
(0.0547306 0.011708 0 0.00936249 0 0)
(0.0598762 0.0133041 0 0.00968851 0 0)
(0.0656376 0.0149353 0 0.00998678 0 0)
(0.00647948 -0.00176325 0 0.00287218 0 0)
(0.0574941 -0.0074606 0 0.00317542 0 0)
(0.0490628 -0.00591584 0 0.00339722 0 0)
(0.0402052 -0.00327538 0 0.0038466 0 0)
(0.0387914 -0.00143982 0 0.0043071 0 0)
(0.0375944 -0.000371036 0 0.00469789 0 0)
(0.0364478 0.000397591 0 0.00501578 0 0)
(0.0361512 0.00119615 0 0.00529816 0 0)
(0.0367411 0.00215503 0 0.00558195 0 0)
(0.0380015 0.00326598 0 0.00587367 0 0)
(0.0398069 0.00446495 0 0.00614806 0 0)
(0.0421512 0.00568952 0 0.00638097 0 0)
(0.0450917 0.00690082 0 0.00655797 0 0)
(0.0486837 0.00808274 0 0.00668532 0 0)
(0.0529622 0.0092197 0 0.00675865 0 0)
(0.0578995 0.010322 0 0.00681487 0 0)
(0.0635352 0.0113751 0 0.00683891 0 0)
(0.0697245 0.0124259 0 0.00685325 0 0)
(0.0062517 -0.00166363 0 0.00233984 0 0)
(0.055487 -0.00618727 0 0.00222407 0 0)
(0.0460508 -0.00446477 0 0.00223271 0 0)
(0.0374001 -0.00221002 0 0.00237779 0 0)
(0.0364969 -0.000728506 0 0.0024951 0 0)
(0.0358319 5.85038e-05 0 0.00255391 0 0)
(0.0353327 0.00053237 0 0.00263443 0 0)
(0.0357978 0.00101927 0 0.00276858 0 0)
(0.037189 0.00166339 0 0.00292914 0 0)
(0.0392815 0.00244634 0 0.00307383 0 0)
(0.0420306 0.0032852 0 0.00317838 0 0)
(0.045511 0.00411619 0 0.00324505 0 0)
(0.0497955 0.00491135 0 0.00328686 0 0)
(0.0548864 0.00566486 0 0.00331817 0 0)
(0.0607489 0.00637485 0 0.00333758 0 0)
(0.0672613 0.00704318 0 0.00335406 0 0)
(0.0744194 0.00765218 0 0.00335245 0 0)
(0.0820281 0.00822826 0 0.00332982 0 0)
(0.00712161 -0.00158843 0 0.00194567 0 0)
(0.0551402 -0.00484114 0 0.00154956 0 0)
(0.0444997 -0.00375626 0 0.00160094 0 0)
(0.0360233 -0.0018082 0 0.00184103 0 0)
(0.0355908 -0.000370622 0 0.00194344 0 0)
(0.0352892 0.000407317 0 0.00191278 0 0)
(0.0352449 0.000909995 0 0.00186625 0 0)
(0.0363525 0.00142045 0 0.00187517 0 0)
(0.0385382 0.00201776 0 0.00191856 0 0)
(0.0415033 0.00266664 0 0.00195126 0 0)
(0.0451485 0.00331099 0 0.00195614 0 0)
(0.0495236 0.0039153 0 0.00193907 0 0)
(0.0546926 0.00446841 0 0.00190989 0 0)
(0.0606591 0.00496907 0 0.00187626 0 0)
(0.067399 0.00540949 0 0.00183484 0 0)
(0.074814 0.00579132 0 0.0017903 0 0)
(0.0829234 0.00609495 0 0.00173603 0 0)
(0.0915427 0.00634561 0 0.00167543 0 0)
(0.00507168 -0.00111479 0 0.00157977 0 0)
(0.0525241 -0.00243906 0 0.000832001 0 0)
(0.0421391 -0.00146124 0 0.000700848 0 0)
(0.0347251 -0.000371097 0 0.000768344 0 0)
(0.0349939 0.000355723 0 0.000775332 0 0)
(0.0351057 0.000650019 0 0.000757879 0 0)
(0.0355428 0.000759351 0 0.000760273 0 0)
(0.0373242 0.000869145 0 0.000776718 0 0)
(0.0403432 0.00103364 0 0.000788246 0 0)
(0.0442712 0.00122076 0 0.000785872 0 0)
(0.0490194 0.001385 0 0.000770581 0 0)
(0.0546377 0.00149674 0 0.000746941 0 0)
(0.0611557 0.00154336 0 0.000717979 0 0)
(0.0685145 0.00151977 0 0.000686268 0 0)
(0.0766203 0.00142078 0 0.000652793 0 0)
(0.0853126 0.00124938 0 0.000621738 0 0)
(0.0945869 0.000995565 0 0.000593577 0 0)
(0.104239 0.000683643 0 0.000567377 0 0)
(0.00693936 -0.00109504 0 0.00127779 0 0)
(0.0522773 -0.00260715 0 0.000596173 0 0)
(0.0403194 -0.00185765 0 0.000632256 0 0)
(0.0335142 -0.000540766 0 0.000632918 0 0)
(0.034396 0.000202317 0 0.000529045 0 0)
(0.0350722 0.000479909 0 0.000436762 0 0)
(0.0363842 0.000625143 0 0.000386442 0 0)
(0.0393477 0.000748399 0 0.00035609 0 0)
(0.0437174 0.000835855 0 0.000330607 0 0)
(0.0490619 0.000865556 0 0.000304558 0 0)
(0.0552377 0.000836 0 0.000278061 0 0)
(0.0622648 0.000753073 0 0.000253743 0 0)
(0.0701211 0.000622675 0 0.000234524 0 0)
(0.0787173 0.000443177 0 0.000222843 0 0)
(0.0878921 0.000204927 0 0.000219486 0 0)
(0.0975037 -0.000109271 0 0.000224851 0 0)
(0.107479 -0.000518545 0 0.000238469 0 0)
(0.117689 -0.00103154 0 0.000255776 0 0)
(0.0051803 -0.000114715 0 0.00076079 0 0)
(0.0492193 0.00050447 0 0.000230912 0 0)
(0.0377722 0.000112228 0 0.000203407 0 0)
(0.0320953 0.000198424 0 0.000216263 0 0)
(0.0339099 8.46829e-05 0 0.000244657 0 0)
(0.0354897 -0.000179756 0 0.000270681 0 0)
(0.0375687 -0.000491556 0 0.000290781 0 0)
(0.0409446 -0.000832114 0 0.000311228 0 0)
(0.0451721 -0.00120133 0 0.000337772 0 0)
(0.0496932 -0.00158775 0 0.000369974 0 0)
(0.0542713 -0.00197731 0 0.00040485 0 0)
(0.0588905 -0.00236669 0 0.000441113 0 0)
(0.0634775 -0.00275322 0 0.000478623 0 0)
(0.0679831 -0.00313761 0 0.000518661 0 0)
(0.0721826 -0.00351563 0 0.000561722 0 0)
(0.0760399 -0.00389616 0 0.000610618 0 0)
(0.0793095 -0.00427562 0 0.000666531 0 0)
(0.0821266 -0.00467039 0 0.000726095 0 0)
(0.00602683 -0.000439643 0 0.000686394 0 0)
(0.0520616 -0.00026344 0 0.000208409 0 0)
(0.0458992 -7.33139e-06 0 0.000141369 0 0)
(0.0445235 0.00027825 0 9.27267e-05 0 0)
(0.0494098 0.000324759 0 6.98794e-05 0 0)
(0.0535534 0.000339097 0 6.41094e-05 0 0)
(0.0573807 0.000398582 0 6.37682e-05 0 0)
(0.0619377 0.000484022 0 6.72446e-05 0 0)
(0.0675387 0.000566499 0 7.49889e-05 0 0)
(0.0741874 0.000637719 0 8.58509e-05 0 0)
(0.0818166 0.000707644 0 9.83182e-05 0 0)
(0.0903463 0.00079341 0 0.000112521 0 0)
(0.0998059 0.000912604 0 0.000128594 0 0)
(0.110272 0.00107144 0 0.000144791 0 0)
(0.12197 0.00125963 0 0.000159553 0 0)
(0.134806 0.00145646 0 0.000174035 0 0)
(0.149067 0.00164928 0 0.000189251 0 0)
(0.164219 0.00183772 0 0.000204705 0 0)
(0.000214753 -0.000474419 4.22068e-22 0.00106132 -8.79804e-22 5.18166e-37)
(0.00250958 -0.001832 -1.26932e-21 0.00136101 8.68333e-22 5.10918e-37)
(0.00773999 -0.00323321 0 0.00137257 0 0)
(0.0159162 -0.00468881 0 0.00139644 0 0)
(0.0272236 -0.00623199 0 0.00143397 0 0)
(0.041878 -0.00788496 4.5689e-21 0.00148704 -8.48981e-22 4.81248e-37)
(0.0600772 -0.00965751 0 0.00155588 0 0)
(0.0820662 -0.0115535 0 0.00163809 0 0)
(0.108064 -0.0135678 0 0.00173032 0 0)
(0.138306 -0.0156891 0 0.00182848 0 0)
(0.172999 -0.0179011 -8.49596e-21 0.00192876 8.01254e-22 4.4577e-37)
(0.212338 -0.020183 0 0.00202729 0 0)
(0.256486 -0.0225119 0 0.00212132 0 0)
(0.305559 -0.0248621 0 0.00220779 0 0)
(0.359625 -0.0272001 0 0.00228353 0 0)
(0.418674 -0.0294895 -1.19906e-20 0.00234595 7.00514e-22 4.12031e-37)
(0.482611 -0.0316848 0 0.00239131 0 0)
(0.551248 -0.033735 0 0.00241689 0 0)
(0.624272 -0.035586 0 0.00242043 0 0)
(0.701245 -0.037172 0 0.00239789 0 0)
(0.781593 -0.0384295 0 0.00234823 0 0)
(0.864567 -0.0392898 0 0.00226904 0 0)
(0.949297 -0.039691 0 0.00216129 0 0)
(1.03475 -0.0395776 -1.60772e-20 0.00202607 4.5513e-22 3.61608e-37)
(1.11974 -0.0388998 1.64234e-20 0.00186596 -4.20341e-22 3.55612e-37)
(1.20296 -0.0376272 -1.67291e-20 0.00168555 3.85313e-22 3.49684e-37)
(1.28303 -0.0357437 -1.69938e-20 0.00149028 3.5032e-22 3.43825e-37)
(1.3585 -0.0332557 0 0.00128709 0 0)
(1.42791 -0.0301958 0 0.00108412 0 0)
(1.48987 -0.0266162 1.75395e-20 0.000887666 -2.481e-22 3.26653e-37)
(1.5431 -0.0225939 1.76397e-20 0.000706561 -2.15844e-22 3.21065e-37)
(1.58646 -0.0182324 0 0.000546606 0 0)
(1.61907 -0.0136442 0 0.000412581 0 0)
(1.64029 -0.00895194 1.77095e-20 0.000308325 -1.28311e-22 3.04708e-37)
(1.6498 -0.00428016 0 0.000234187 0 0)
(1.64765 0.000261813 0 0.000189362 0 0)
(1.63411 0.00457443 -1.74743e-20 0.000170794 5.83192e-23 2.88958e-37)
(1.60971 0.00857246 0 0.000175297 0 0)
(1.57524 0.0121732 -1.71824e-20 0.000198474 2.24706e-23 2.78794e-37)
(1.5317 0.0153157 -3.40097e-20 0.000235702 1.56218e-23 1.09525e-36)
(1.48023 0.0179553 0 0.000281963 0 0)
(1.42213 0.0200708 0 0.000332405 0 0)
(1.3587 0.0216594 0 0.000382534 0 0)
(1.29126 0.022736 0 0.000428461 0 0)
(1.22113 0.0233393 0 0.000467585 0 0)
(1.14954 0.0235047 -3.13561e-20 0.000497425 -7.96195e-23 9.81218e-37)
(1.07758 0.0233038 -3.08738e-20 0.000517816 -8.47714e-23 9.63125e-37)
(1.00618 0.0227749 -3.03906e-20 0.000527573 -8.76583e-23 9.45288e-37)
(0.936224 0.0220006 0 0.000528262 0 0)
(0.868403 0.0210049 2.94331e-20 0.000519139 8.82462e-23 9.10378e-37)
(0.803173 0.0198633 0 0.000502513 0 0)
(0.741051 0.0186306 -2.85009e-20 0.000480113 -8.37237e-23 8.76474e-37)
(0.68229 0.0173379 -2.80481e-20 0.000452846 -8.01832e-23 8.59896e-37)
(0.627044 0.0160288 0 0.000422562 0 0)
(0.575455 0.0147186 0 0.000389745 0 0)
(0.527557 0.0134491 0 0.000356523 0 0)
(0.483233 0.012214 -2.63437e-20 0.000322558 -6.18791e-23 7.96023e-37)
(0.442404 0.0110537 0 0.000290136 0 0)
(0.404928 0.00995526 0 0.000258627 0 0)
(0.370609 0.00893077 0 0.000228864 0 0)
(0.339293 0.0079831 0 0.000201135 0 0)
(0.310793 0.00711247 0 0.000175605 0 0)
(0.284916 0.00631741 0 0.000152344 0 0)
(0.261468 0.00559522 0 0.000131351 0 0)
(0.24026 0.00494232 0 0.000112568 0 0)
(0.221106 0.00435458 2.31489e-20 9.58964e-05 2.26163e-23 6.66015e-37)
(0.203832 0.00382753 0 8.12096e-05 0 0)
(0.188272 0.00335654 0 6.83636e-05 0 0)
(0.174269 0.00293698 -2.22535e-20 5.72046e-05 -1.36305e-23 6.26679e-37)
(0.161678 0.00256433 -2.19704e-20 4.75756e-05 -1.11253e-23 6.13991e-37)
(0.150366 0.00223423 0 3.93213e-05 0 0)
(0.140208 0.00194253 2.1425e-20 3.22914e-05 6.79798e-24 5.89235e-37)
(0.13109 0.00168535 -2.11618e-20 2.63433e-05 -4.9541e-24 5.77163e-37)
(0.12291 0.00145908 0 2.13435e-05 0 0)
(0.115572 0.0012604 2.0653e-20 1.71687e-05 1.84635e-24 5.53617e-37)
(0.108991 0.00108625 0 1.37066e-05 0 0)
(0.103089 0.000933864 0 1.08556e-05 0 0)
(0.0977972 0.000800724 -1.99284e-20 8.52487e-06 1.55039e-24 5.19759e-37)
(0.0930513 0.000684562 0 6.63377e-06 0 0)
(0.0887949 0.000583355 1.94678e-20 5.11155e-06 -3.11309e-24 4.98131e-37)
(0.0849771 0.000495279 0 3.8964e-06 0 0)
(0.0815522 0.000418724 -1.90227e-20 2.93503e-06 4.22189e-24 4.77236e-37)
(0.0784793 0.000352248 -1.88054e-20 2.18164e-06 4.63208e-24 4.67057e-37)
(0.0757219 0.000294591 -1.85914e-20 1.59742e-06 4.96029e-24 4.57055e-37)
(0.0732471 0.000244624 -3.67609e-20 1.14952e-06 1.04282e-23 1.7889e-36)
(0.0710259 0.000201371 3.63447e-20 8.10609e-07 -1.08053e-23 1.75027e-36)
(0.069032 0.000163961 0 5.57953e-07 0 0)
(0.0672423 0.000131654 0 3.72976e-07 0 0)
(0.0656357 0.00010378 0 2.4045e-07 0 0)
(0.0641938 7.9779e-05 3.47318e-20 1.48129e-07 -1.13023e-23 1.60239e-36)
(0.0629 5.91573e-05 3.43401e-20 8.61647e-08 -1.12385e-23 1.56704e-36)
(0.0617396 4.15027e-05 -3.39527e-20 4.67592e-08 1.11212e-23 1.53231e-36)
(0.060699 2.64641e-05 0 2.3758e-08 0 0)
(0.0597666 1.37811e-05 3.31896e-20 1.2407e-08 -1.07772e-23 1.46471e-36)
(0.0589315 3.20788e-06 3.28137e-20 8.94588e-09 -1.05616e-23 1.43182e-36)
(0.0581839 -5.53125e-06 3.24412e-20 1.0432e-08 -1.03264e-23 1.39951e-36)
(0.0575151 -1.27305e-05 0 1.46565e-08 0 0)
(0.0569173 -1.86384e-05 0 2.00578e-08 0 0)
(0.0563835 -2.35053e-05 0 2.56048e-08 0 0)
(0.0559075 -2.75571e-05 3.09834e-20 3.07241e-08 -9.32007e-24 1.27605e-36)
(0.0554841 -3.0979e-05 0 3.51384e-08 0 0)
(0.0551085 -3.39462e-05 0 3.87607e-08 0 0)
(0.0547769 -3.6667e-05 -2.99216e-20 4.18516e-08 8.60087e-24 1.18925e-36)
(0.054486 -3.92584e-05 0 4.45812e-08 0 0)
(0.0542326 -4.18743e-05 0 4.7367e-08 0 0)
(0.0540149 -4.46954e-05 -2.88846e-20 5.09434e-08 7.97094e-24 1.10717e-36)
(0.0538308 -4.77251e-05 0 5.54509e-08 0 0)
(0.0536791 -5.11727e-05 0 6.19315e-08 0 0)
(0.05356 -5.49985e-05 2.7871e-20 7.07883e-08 -7.45455e-24 1.02959e-36)
(0.0534714 -5.88469e-05 2.75382e-20 8.10418e-08 -7.28987e-24 1.0047e-36)
(0.0534112 -6.24443e-05 0 9.17219e-08 0 0)
(0.0533774 -6.56958e-05 -2.68796e-20 1.02328e-07 6.93867e-24 9.56316e-37)
(0.0533677 -6.84528e-05 0 1.12103e-07 0 0)
(0.0533798 -7.05672e-05 2.62302e-20 1.20141e-07 -6.54127e-24 9.09753e-37)
(0.0534116 -7.20682e-05 0 1.26261e-07 0 0)
(0.053461 -7.30726e-05 2.55895e-20 1.30734e-07 -6.10502e-24 8.64954e-37)
(0.053526 -7.35708e-05 2.52723e-20 1.33382e-07 -5.88212e-24 8.43198e-37)
(0.0536046 -7.35243e-05 0 1.33903e-07 0 0)
(0.0536948 -7.29359e-05 0 1.32198e-07 0 0)
(0.0537946 -7.18445e-05 0 1.28376e-07 0 0)
(0.0539022 -7.03491e-05 0 1.22858e-07 0 0)
(0.0540161 -6.85821e-05 0 1.16267e-07 0 0)
(0.0541353 -6.66889e-05 0 1.09276e-07 0 0)
(0.054259 -6.4789e-05 0 1.02417e-07 0 0)
(0.0543867 -6.29593e-05 2.28059e-20 9.60044e-08 -4.1298e-24 6.83735e-37)
(0.0545183 -6.12401e-05 -2.25061e-20 9.01612e-08 3.9496e-24 6.65528e-37)
(0.0546537 -5.96366e-05 0 8.48839e-08 0 0)
(0.0547926 -5.81469e-05 0 8.0122e-08 0 0)
(0.0549351 -5.67599e-05 0 7.58171e-08 0 0)
(0.0550811 -5.54725e-05 0 7.19245e-08 0 0)
(0.0552304 -5.42783e-05 -4.20696e-20 6.84086e-08 6.46756e-24 2.31933e-36)
(0.055383 -5.31775e-05 0 6.52416e-08 0 0)
(0.0555388 -5.21643e-05 4.09177e-20 6.23944e-08 -6.03166e-24 2.19174e-36)
(0.0556976 -5.12382e-05 -4.0347e-20 5.98414e-08 5.83612e-24 2.12991e-36)
(0.0558594 -5.0392e-05 0 5.75537e-08 0 0)
(0.0560241 -4.96239e-05 0 5.55073e-08 0 0)
(0.0561917 -4.89267e-05 0 5.36769e-08 0 0)
(0.0563621 -4.82988e-05 3.80986e-20 5.20422e-08 -5.20334e-24 1.89512e-36)
(0.0565353 -4.77378e-05 3.7545e-20 5.05907e-08 -5.07761e-24 1.83945e-36)
(0.0567112 -4.72385e-05 0 4.92995e-08 0 0)
(0.0568899 -4.67992e-05 3.64477e-20 4.81595e-08 -4.85358e-24 1.73164e-36)
(0.0570714 -4.64097e-05 3.5904e-20 4.71438e-08 -4.75363e-24 1.67944e-36)
(0.0572557 -4.60685e-05 -3.53635e-20 4.62437e-08 4.65811e-24 1.62837e-36)
(0.0574428 -4.57685e-05 0 4.54416e-08 0 0)
(0.0576327 -4.5511e-05 0 4.47351e-08 0 0)
(0.0578255 -4.52907e-05 -3.37615e-20 4.41121e-08 4.39291e-24 1.48168e-36)
(0.0580211 -4.51092e-05 0 4.35718e-08 0 0)
(0.0582197 -4.49624e-05 0 4.31051e-08 0 0)
(0.0584212 -4.48519e-05 0 4.27122e-08 0 0)