# vtk DataFile Version 2.0
sampleSurface
ASCII
DATASET POLYDATA
POINTS 502 double
-0.0206 0 -0.0005
-0.0190172 0 -0.0005
-0.0190172 0 0.0005
-0.0206 0 0.0005
-0.0174976 0 -0.0005
-0.0174976 0 0.0005
-0.0160387 0 -0.0005
-0.0160387 0 0.0005
-0.0146381 0 -0.0005
-0.0146381 0 0.0005
-0.0132934 0 -0.0005
-0.0132934 0 0.0005
-0.0120025 0 -0.0005
-0.0120025 0 0.0005
-0.0107632 0 -0.0005
-0.0107632 0 0.0005
-0.00957337 0 -0.0005
-0.00957337 0 0.0005
-0.00843108 0 -0.0005
-0.00843108 0 0.0005
-0.00733443 0 -0.0005
-0.00733443 0 0.0005
-0.0062816 0 -0.0005
-0.0062816 0 0.0005
-0.00527083 0 -0.0005
-0.00527083 0 0.0005
-0.00430044 0 -0.0005
-0.00430044 0 0.0005
-0.00336883 0 -0.0005
-0.00336883 0 0.0005
-0.00247443 0 -0.0005
-0.00247443 0 0.0005
-0.00161577 0 -0.0005
-0.00161577 0 0.0005
-0.000791418 0 -0.0005
-0.000791418 0 0.0005
0 0 -0.0005
0 0 0.0005
0 -0.0254 -0.0005
0 -0.0254 0.0005
0 -0.0242711 0.0005
0 -0.0242711 -0.0005
0 -0.0231422 0.0005
0 -0.0231422 -0.0005
0 -0.0220133 0.0005
0 -0.0220133 -0.0005
0 -0.0208844 0.0005
0 -0.0208844 -0.0005
0 -0.0197556 0.0005
0 -0.0197556 -0.0005
0 -0.0186267 0.0005
0 -0.0186267 -0.0005
0 -0.0174978 0.0005
0 -0.0174978 -0.0005
0 -0.0163689 0.0005
0 -0.0163689 -0.0005
0 -0.01524 0.0005
0 -0.01524 -0.0005
0 -0.0141111 0.0005
0 -0.0141111 -0.0005
0 -0.0129822 0.0005
0 -0.0129822 -0.0005
0 -0.0118533 0.0005
0 -0.0118533 -0.0005
0 -0.0107244 0.0005
0 -0.0107244 -0.0005
0 -0.00959556 0.0005
0 -0.00959556 -0.0005
0 -0.00846667 0.0005
0 -0.00846667 -0.0005
0 -0.00726604 0.0005
0 -0.00726604 -0.0005
0 -0.00618989 0.0005
0 -0.00618989 -0.0005
0 -0.00522531 0.0005
0 -0.00522531 -0.0005
0 -0.00436073 0.0005
0 -0.00436073 -0.0005
0 -0.00358579 0.0005
0 -0.00358579 -0.0005
0 -0.00289118 0.0005
0 -0.00289118 -0.0005
0 -0.0022686 0.0005
0 -0.0022686 -0.0005
0 -0.00171055 0.0005
0 -0.00171055 -0.0005
0 -0.00121037 0.0005
0 -0.00121037 -0.0005
0 -0.000762037 0.0005
0 -0.000762037 -0.0005
0 -0.000360188 0.0005
0 -0.000360188 -0.0005
0.000528387 -0.0254 -0.0005
0.000528387 -0.0254 0.0005
0.00106088 -0.0254 -0.0005
0.00106088 -0.0254 0.0005
0.00159752 -0.0254 -0.0005
0.00159752 -0.0254 0.0005
0.00213833 -0.0254 -0.0005
0.00213833 -0.0254 0.0005
0.00268334 -0.0254 -0.0005
0.00268334 -0.0254 0.0005
0.00323259 -0.0254 -0.0005
0.00323259 -0.0254 0.0005
0.00378611 -0.0254 -0.0005
0.00378611 -0.0254 0.0005
0.00434393 -0.0254 -0.0005
0.00434393 -0.0254 0.0005
0.00490609 -0.0254 -0.0005
0.00490609 -0.0254 0.0005
0.00547262 -0.0254 -0.0005
0.00547262 -0.0254 0.0005
0.00604356 -0.0254 -0.0005
0.00604356 -0.0254 0.0005
0.00661893 -0.0254 -0.0005
0.00661893 -0.0254 0.0005
0.00719878 -0.0254 -0.0005
0.00719878 -0.0254 0.0005
0.00778313 -0.0254 -0.0005
0.00778313 -0.0254 0.0005
0.00837203 -0.0254 -0.0005
0.00837203 -0.0254 0.0005
0.00896551 -0.0254 -0.0005
0.00896551 -0.0254 0.0005
0.0095636 -0.0254 -0.0005
0.0095636 -0.0254 0.0005
0.0101663 -0.0254 -0.0005
0.0101663 -0.0254 0.0005
0.0107738 -0.0254 -0.0005
0.0107738 -0.0254 0.0005
0.0113859 -0.0254 -0.0005
0.0113859 -0.0254 0.0005
0.0120028 -0.0254 -0.0005
0.0120028 -0.0254 0.0005
0.0126245 -0.0254 -0.0005
0.0126245 -0.0254 0.0005
0.0132511 -0.0254 -0.0005
0.0132511 -0.0254 0.0005
0.0138825 -0.0254 -0.0005
0.0138825 -0.0254 0.0005
0.0145188 -0.0254 -0.0005
0.0145188 -0.0254 0.0005
0.0151601 -0.0254 -0.0005
0.0151601 -0.0254 0.0005
0.0158063 -0.0254 -0.0005
0.0158063 -0.0254 0.0005
0.0164576 -0.0254 -0.0005
0.0164576 -0.0254 0.0005
0.0171139 -0.0254 -0.0005
0.0171139 -0.0254 0.0005
0.0177754 -0.0254 -0.0005
0.0177754 -0.0254 0.0005
0.018442 -0.0254 -0.0005
0.018442 -0.0254 0.0005
0.0191137 -0.0254 -0.0005
0.0191137 -0.0254 0.0005
0.0197907 -0.0254 -0.0005
0.0197907 -0.0254 0.0005
0.020473 -0.0254 -0.0005
0.020473 -0.0254 0.0005
0.0211606 -0.0254 -0.0005
0.0211606 -0.0254 0.0005
0.0218535 -0.0254 -0.0005
0.0218535 -0.0254 0.0005
0.0225517 -0.0254 -0.0005
0.0225517 -0.0254 0.0005
0.0232555 -0.0254 -0.0005
0.0232555 -0.0254 0.0005
0.0239647 -0.0254 -0.0005
0.0239647 -0.0254 0.0005
0.0246794 -0.0254 -0.0005
0.0246794 -0.0254 0.0005
0.0253996 -0.0254 -0.0005
0.0253996 -0.0254 0.0005
0.0261255 -0.0254 -0.0005
0.0261255 -0.0254 0.0005
0.026857 -0.0254 -0.0005
0.026857 -0.0254 0.0005
0.0275942 -0.0254 -0.0005
0.0275942 -0.0254 0.0005
0.0283371 -0.0254 -0.0005
0.0283371 -0.0254 0.0005
0.0290858 -0.0254 -0.0005
0.0290858 -0.0254 0.0005
0.0298403 -0.0254 -0.0005
0.0298403 -0.0254 0.0005
0.0306007 -0.0254 -0.0005
0.0306007 -0.0254 0.0005
0.031367 -0.0254 -0.0005
0.031367 -0.0254 0.0005
0.0321393 -0.0254 -0.0005
0.0321393 -0.0254 0.0005
0.0329175 -0.0254 -0.0005
0.0329175 -0.0254 0.0005
0.0337019 -0.0254 -0.0005
0.0337019 -0.0254 0.0005
0.0344923 -0.0254 -0.0005
0.0344923 -0.0254 0.0005
0.0352888 -0.0254 -0.0005
0.0352888 -0.0254 0.0005
0.0360916 -0.0254 -0.0005
0.0360916 -0.0254 0.0005
0.0369006 -0.0254 -0.0005
0.0369006 -0.0254 0.0005
0.0377158 -0.0254 -0.0005
0.0377158 -0.0254 0.0005
0.0385375 -0.0254 -0.0005
0.0385375 -0.0254 0.0005
0.0393655 -0.0254 -0.0005
0.0393655 -0.0254 0.0005
0.0401999 -0.0254 -0.0005
0.0401999 -0.0254 0.0005
0.0410408 -0.0254 -0.0005
0.0410408 -0.0254 0.0005
0.0418883 -0.0254 -0.0005
0.0418883 -0.0254 0.0005
0.0427424 -0.0254 -0.0005
0.0427424 -0.0254 0.0005
0.0436031 -0.0254 -0.0005
0.0436031 -0.0254 0.0005
0.0444704 -0.0254 -0.0005
0.0444704 -0.0254 0.0005
0.0453446 -0.0254 -0.0005
0.0453446 -0.0254 0.0005
0.0462255 -0.0254 -0.0005
0.0462255 -0.0254 0.0005
0.0471133 -0.0254 -0.0005
0.0471133 -0.0254 0.0005
0.048008 -0.0254 -0.0005
0.048008 -0.0254 0.0005
0.0489096 -0.0254 -0.0005
0.0489096 -0.0254 0.0005
0.0498183 -0.0254 -0.0005
0.0498183 -0.0254 0.0005
0.050734 -0.0254 -0.0005
0.050734 -0.0254 0.0005
0.0516568 -0.0254 -0.0005
0.0516568 -0.0254 0.0005
0.0525868 -0.0254 -0.0005
0.0525868 -0.0254 0.0005
0.053524 -0.0254 -0.0005
0.053524 -0.0254 0.0005
0.0544686 -0.0254 -0.0005
0.0544686 -0.0254 0.0005
0.0554204 -0.0254 -0.0005
0.0554204 -0.0254 0.0005
0.0563797 -0.0254 -0.0005
0.0563797 -0.0254 0.0005
0.0573464 -0.0254 -0.0005
0.0573464 -0.0254 0.0005
0.0583206 -0.0254 -0.0005
0.0583206 -0.0254 0.0005
0.0593025 -0.0254 -0.0005
0.0593025 -0.0254 0.0005
0.0602919 -0.0254 -0.0005
0.0602919 -0.0254 0.0005
0.0612891 -0.0254 -0.0005
0.0612891 -0.0254 0.0005
0.0622939 -0.0254 -0.0005
0.0622939 -0.0254 0.0005
0.0633067 -0.0254 -0.0005
0.0633067 -0.0254 0.0005
0.0643272 -0.0254 -0.0005
0.0643272 -0.0254 0.0005
0.0653557 -0.0254 -0.0005
0.0653557 -0.0254 0.0005
0.0663923 -0.0254 -0.0005
0.0663923 -0.0254 0.0005
0.0674368 -0.0254 -0.0005
0.0674368 -0.0254 0.0005
0.0684895 -0.0254 -0.0005
0.0684895 -0.0254 0.0005
0.0695504 -0.0254 -0.0005
0.0695504 -0.0254 0.0005
0.0706195 -0.0254 -0.0005
0.0706195 -0.0254 0.0005
0.0716969 -0.0254 -0.0005
0.0716969 -0.0254 0.0005
0.0727828 -0.0254 -0.0005
0.0727828 -0.0254 0.0005
0.073877 -0.0254 -0.0005
0.073877 -0.0254 0.0005
0.0749798 -0.0254 -0.0005
0.0749798 -0.0254 0.0005
0.0760911 -0.0254 -0.0005
0.0760911 -0.0254 0.0005
0.0772111 -0.0254 -0.0005
0.0772111 -0.0254 0.0005
0.0783398 -0.0254 -0.0005
0.0783398 -0.0254 0.0005
0.0794772 -0.0254 -0.0005
0.0794772 -0.0254 0.0005
0.0806235 -0.0254 -0.0005
0.0806235 -0.0254 0.0005
0.0817787 -0.0254 -0.0005
0.0817787 -0.0254 0.0005
0.0829429 -0.0254 -0.0005
0.0829429 -0.0254 0.0005
0.0841162 -0.0254 -0.0005
0.0841162 -0.0254 0.0005
0.0852985 -0.0254 -0.0005
0.0852985 -0.0254 0.0005
0.0864901 -0.0254 -0.0005
0.0864901 -0.0254 0.0005
0.0876909 -0.0254 -0.0005
0.0876909 -0.0254 0.0005
0.0889011 -0.0254 -0.0005
0.0889011 -0.0254 0.0005
0.0901207 -0.0254 -0.0005
0.0901207 -0.0254 0.0005
0.0913497 -0.0254 -0.0005
0.0913497 -0.0254 0.0005
0.0925883 -0.0254 -0.0005
0.0925883 -0.0254 0.0005
0.0938366 -0.0254 -0.0005
0.0938366 -0.0254 0.0005
0.0950945 -0.0254 -0.0005
0.0950945 -0.0254 0.0005
0.0963622 -0.0254 -0.0005
0.0963622 -0.0254 0.0005
0.0976398 -0.0254 -0.0005
0.0976398 -0.0254 0.0005
0.0989273 -0.0254 -0.0005
0.0989273 -0.0254 0.0005
0.100225 -0.0254 -0.0005
0.100225 -0.0254 0.0005
0.101532 -0.0254 -0.0005
0.101532 -0.0254 0.0005
0.10285 -0.0254 -0.0005
0.10285 -0.0254 0.0005
0.104178 -0.0254 -0.0005
0.104178 -0.0254 0.0005
0.105517 -0.0254 -0.0005
0.105517 -0.0254 0.0005
0.106865 -0.0254 -0.0005
0.106865 -0.0254 0.0005
0.108225 -0.0254 -0.0005
0.108225 -0.0254 0.0005
0.109594 -0.0254 -0.0005
0.109594 -0.0254 0.0005
0.110975 -0.0254 -0.0005
0.110975 -0.0254 0.0005
0.112366 -0.0254 -0.0005
0.112366 -0.0254 0.0005
0.113768 -0.0254 -0.0005
0.113768 -0.0254 0.0005
0.115181 -0.0254 -0.0005
0.115181 -0.0254 0.0005
0.116605 -0.0254 -0.0005
0.116605 -0.0254 0.0005
0.11804 -0.0254 -0.0005
0.11804 -0.0254 0.0005
0.119486 -0.0254 -0.0005
0.119486 -0.0254 0.0005
0.120943 -0.0254 -0.0005
0.120943 -0.0254 0.0005
0.122412 -0.0254 -0.0005
0.122412 -0.0254 0.0005
0.123892 -0.0254 -0.0005
0.123892 -0.0254 0.0005
0.125384 -0.0254 -0.0005
0.125384 -0.0254 0.0005
0.126887 -0.0254 -0.0005
0.126887 -0.0254 0.0005
0.128402 -0.0254 -0.0005
0.128402 -0.0254 0.0005
0.129928 -0.0254 -0.0005
0.129928 -0.0254 0.0005
0.131467 -0.0254 -0.0005
0.131467 -0.0254 0.0005
0.133017 -0.0254 -0.0005
0.133017 -0.0254 0.0005
0.13458 -0.0254 -0.0005
0.13458 -0.0254 0.0005
0.136155 -0.0254 -0.0005
0.136155 -0.0254 0.0005
0.137742 -0.0254 -0.0005
0.137742 -0.0254 0.0005
0.139341 -0.0254 -0.0005
0.139341 -0.0254 0.0005
0.140953 -0.0254 -0.0005
0.140953 -0.0254 0.0005
0.142577 -0.0254 -0.0005
0.142577 -0.0254 0.0005
0.144214 -0.0254 -0.0005
0.144214 -0.0254 0.0005
0.145863 -0.0254 -0.0005
0.145863 -0.0254 0.0005
0.147526 -0.0254 -0.0005
0.147526 -0.0254 0.0005
0.149201 -0.0254 -0.0005
0.149201 -0.0254 0.0005
0.15089 -0.0254 -0.0005
0.15089 -0.0254 0.0005
0.152591 -0.0254 -0.0005
0.152591 -0.0254 0.0005
0.154306 -0.0254 -0.0005
0.154306 -0.0254 0.0005
0.156034 -0.0254 -0.0005
0.156034 -0.0254 0.0005
0.157775 -0.0254 -0.0005
0.157775 -0.0254 0.0005
0.159531 -0.0254 -0.0005
0.159531 -0.0254 0.0005
0.161299 -0.0254 -0.0005
0.161299 -0.0254 0.0005
0.163082 -0.0254 -0.0005
0.163082 -0.0254 0.0005
0.164878 -0.0254 -0.0005
0.164878 -0.0254 0.0005
0.166688 -0.0254 -0.0005
0.166688 -0.0254 0.0005
0.168513 -0.0254 -0.0005
0.168513 -0.0254 0.0005
0.170351 -0.0254 -0.0005
0.170351 -0.0254 0.0005
0.172204 -0.0254 -0.0005
0.172204 -0.0254 0.0005
0.174071 -0.0254 -0.0005
0.174071 -0.0254 0.0005
0.175953 -0.0254 -0.0005
0.175953 -0.0254 0.0005
0.177849 -0.0254 -0.0005
0.177849 -0.0254 0.0005
0.17976 -0.0254 -0.0005
0.17976 -0.0254 0.0005
0.181686 -0.0254 -0.0005
0.181686 -0.0254 0.0005
0.183627 -0.0254 -0.0005
0.183627 -0.0254 0.0005
0.185583 -0.0254 -0.0005
0.185583 -0.0254 0.0005
0.187555 -0.0254 -0.0005
0.187555 -0.0254 0.0005
0.189541 -0.0254 -0.0005
0.189541 -0.0254 0.0005
0.191543 -0.0254 -0.0005
0.191543 -0.0254 0.0005
0.193561 -0.0254 -0.0005
0.193561 -0.0254 0.0005
0.195594 -0.0254 -0.0005
0.195594 -0.0254 0.0005
0.197643 -0.0254 -0.0005
0.197643 -0.0254 0.0005
0.199708 -0.0254 -0.0005
0.199708 -0.0254 0.0005
0.201789 -0.0254 -0.0005
0.201789 -0.0254 0.0005
0.203886 -0.0254 -0.0005
0.203886 -0.0254 0.0005
0.206 -0.0254 -0.0005
0.206 -0.0254 0.0005
0.208047 -0.0251856 -0.0005
0.208047 -0.0251856 0.0005
0.210173 -0.0249628 -0.0005
0.210173 -0.0249628 0.0005
0.212382 -0.0247314 -0.0005
0.212382 -0.0247314 0.0005
0.214677 -0.024491 -0.0005
0.214677 -0.024491 0.0005
0.217061 -0.0242412 -0.0005
0.217061 -0.0242412 0.0005
0.219538 -0.0239817 -0.0005
0.219538 -0.0239817 0.0005
0.222112 -0.0237121 -0.0005
0.222112 -0.0237121 0.0005
0.224785 -0.023432 -0.0005
0.224785 -0.023432 0.0005
0.227563 -0.023141 -0.0005
0.227563 -0.023141 0.0005
0.230449 -0.0228387 -0.0005
0.230449 -0.0228387 0.0005
0.233447 -0.0225246 -0.0005
0.233447 -0.0225246 0.0005
0.236562 -0.0221983 -0.0005
0.236562 -0.0221983 0.0005
0.239797 -0.0218593 -0.0005
0.239797 -0.0218593 0.0005
0.243159 -0.0215071 -0.0005
0.243159 -0.0215071 0.0005
0.246652 -0.0211412 -0.0005
0.246652 -0.0211412 0.0005
0.250281 -0.0207611 -0.0005
0.250281 -0.0207611 0.0005
0.254051 -0.0203661 -0.0005
0.254051 -0.0203661 0.0005
0.257967 -0.0199558 -0.0005
0.257967 -0.0199558 0.0005
0.262036 -0.0195295 -0.0005
0.262036 -0.0195295 0.0005
0.266264 -0.0190867 -0.0005
0.266264 -0.0190867 0.0005
0.270655 -0.0186266 -0.0005
0.270655 -0.0186266 0.0005
0.275218 -0.0181486 -0.0005
0.275218 -0.0181486 0.0005
0.279959 -0.017652 -0.0005
0.279959 -0.017652 0.0005
0.284883 -0.017136 -0.0005
0.284883 -0.017136 0.0005
0.29 -0.0166 -0.0005
0.29 -0.0166 0.0005

POLYGONS 250 1250
4 0 1 2 3
4 1 4 5 2
4 4 6 7 5
4 6 8 9 7
4 8 10 11 9
4 10 12 13 11
4 12 14 15 13
4 14 16 17 15
4 16 18 19 17
4 18 20 21 19
4 20 22 23 21
4 22 24 25 23
4 24 26 27 25
4 26 28 29 27
4 28 30 31 29
4 30 32 33 31
4 32 34 35 33
4 34 36 37 35
4 38 39 40 41
4 41 40 42 43
4 43 42 44 45
4 45 44 46 47
4 47 46 48 49
4 49 48 50 51
4 51 50 52 53
4 53 52 54 55
4 55 54 56 57
4 57 56 58 59
4 59 58 60 61
4 61 60 62 63
4 63 62 64 65
4 65 64 66 67
4 67 66 68 69
4 69 68 70 71
4 71 70 72 73
4 73 72 74 75
4 75 74 76 77
4 77 76 78 79
4 79 78 80 81
4 81 80 82 83
4 83 82 84 85
4 85 84 86 87
4 87 86 88 89
4 89 88 90 91
4 91 90 37 36
4 38 92 93 39
4 92 94 95 93
4 94 96 97 95
4 96 98 99 97
4 98 100 101 99
4 100 102 103 101
4 102 104 105 103
4 104 106 107 105
4 106 108 109 107
4 108 110 111 109
4 110 112 113 111
4 112 114 115 113
4 114 116 117 115
4 116 118 119 117
4 118 120 121 119
4 120 122 123 121
4 122 124 125 123
4 124 126 127 125
4 126 128 129 127
4 128 130 131 129
4 130 132 133 131
4 132 134 135 133
4 134 136 137 135
4 136 138 139 137
4 138 140 141 139
4 140 142 143 141
4 142 144 145 143
4 144 146 147 145
4 146 148 149 147
4 148 150 151 149
4 150 152 153 151
4 152 154 155 153
4 154 156 157 155
4 156 158 159 157
4 158 160 161 159
4 160 162 163 161
4 162 164 165 163
4 164 166 167 165
4 166 168 169 167
4 168 170 171 169
4 170 172 173 171
4 172 174 175 173
4 174 176 177 175
4 176 178 179 177
4 178 180 181 179
4 180 182 183 181
4 182 184 185 183
4 184 186 187 185
4 186 188 189 187
4 188 190 191 189
4 190 192 193 191
4 192 194 195 193
4 194 196 197 195
4 196 198 199 197
4 198 200 201 199
4 200 202 203 201
4 202 204 205 203
4 204 206 207 205
4 206 208 209 207
4 208 210 211 209
4 210 212 213 211
4 212 214 215 213
4 214 216 217 215
4 216 218 219 217
4 218 220 221 219
4 220 222 223 221
4 222 224 225 223
4 224 226 227 225
4 226 228 229 227
4 228 230 231 229
4 230 232 233 231
4 232 234 235 233
4 234 236 237 235
4 236 238 239 237
4 238 240 241 239
4 240 242 243 241
4 242 244 245 243
4 244 246 247 245
4 246 248 249 247
4 248 250 251 249
4 250 252 253 251
4 252 254 255 253
4 254 256 257 255
4 256 258 259 257
4 258 260 261 259
4 260 262 263 261
4 262 264 265 263
4 264 266 267 265
4 266 268 269 267
4 268 270 271 269
4 270 272 273 271
4 272 274 275 273
4 274 276 277 275
4 276 278 279 277
4 278 280 281 279
4 280 282 283 281
4 282 284 285 283
4 284 286 287 285
4 286 288 289 287
4 288 290 291 289
4 290 292 293 291
4 292 294 295 293
4 294 296 297 295
4 296 298 299 297
4 298 300 301 299
4 300 302 303 301
4 302 304 305 303
4 304 306 307 305
4 306 308 309 307
4 308 310 311 309
4 310 312 313 311
4 312 314 315 313
4 314 316 317 315
4 316 318 319 317
4 318 320 321 319
4 320 322 323 321
4 322 324 325 323
4 324 326 327 325
4 326 328 329 327
4 328 330 331 329
4 330 332 333 331
4 332 334 335 333
4 334 336 337 335
4 336 338 339 337
4 338 340 341 339
4 340 342 343 341
4 342 344 345 343
4 344 346 347 345
4 346 348 349 347
4 348 350 351 349
4 350 352 353 351
4 352 354 355 353
4 354 356 357 355
4 356 358 359 357
4 358 360 361 359
4 360 362 363 361
4 362 364 365 363
4 364 366 367 365
4 366 368 369 367
4 368 370 371 369
4 370 372 373 371
4 372 374 375 373
4 374 376 377 375
4 376 378 379 377
4 378 380 381 379
4 380 382 383 381
4 382 384 385 383
4 384 386 387 385
4 386 388 389 387
4 388 390 391 389
4 390 392 393 391
4 392 394 395 393
4 394 396 397 395
4 396 398 399 397
4 398 400 401 399
4 400 402 403 401
4 402 404 405 403
4 404 406 407 405
4 406 408 409 407
4 408 410 411 409
4 410 412 413 411
4 412 414 415 413
4 414 416 417 415
4 416 418 419 417
4 418 420 421 419
4 420 422 423 421
4 422 424 425 423
4 424 426 427 425
4 426 428 429 427
4 428 430 431 429
4 430 432 433 431
4 432 434 435 433
4 434 436 437 435
4 436 438 439 437
4 438 440 441 439
4 440 442 443 441
4 442 444 445 443
4 444 446 447 445
4 446 448 449 447
4 448 450 451 449
4 450 452 453 451
4 452 454 455 453
4 454 456 457 455
4 456 458 459 457
4 458 460 461 459
4 460 462 463 461
4 462 464 465 463
4 464 466 467 465
4 466 468 469 467
4 468 470 471 469
4 470 472 473 471
4 472 474 475 473
4 474 476 477 475
4 476 478 479 477
4 478 480 481 479
4 480 482 483 481
4 482 484 485 483
4 484 486 487 485
4 486 488 489 487
4 488 490 491 489
4 490 492 493 491
4 492 494 495 493
4 494 496 497 495
4 496 498 499 497
4 498 500 501 499
POINT_DATA 502
FIELD attributes 1
U 3 502 float
1.59749 0.102349 -0.00713465
0.800294 0.0507646 -0.00351596
0.800294 0.0507646 -0.00351596
1.59749 0.102349 -0.00713465
0.0244166 0.000621892 0
0.0244166 0.000621892 0
0.0220326 0.000559864 0
0.0220326 0.000559864 0
0.0197795 0.000480122 0
0.0197795 0.000480122 0
0.0174461 0.000408559 0
0.0174461 0.000408559 0
0.0151716 0.000355746 0
0.0151716 0.000355746 0
0.0131047 0.000313965 0
0.0131047 0.000313965 0
0.0113184 0.000271771 0
0.0113184 0.000271771 0
0.0097849 0.000231302 0
0.0097849 0.000231302 0
0.00842384 0.000198566 0
0.00842384 0.000198566 0
0.00718667 0.000168252 0
0.00718667 0.000168252 0
0.00606073 0.000129419 0
0.00606073 0.000129419 0
0.00506461 8.33237e-05 0
0.00506461 8.33237e-05 0
0.00419808 3.97984e-05 0
0.00419808 3.97984e-05 0
0.00348461 1.22821e-05 0
0.00348461 1.22821e-05 0
0.00284377 2.56571e-06 0
0.00284377 2.56571e-06 0
0.00234457 -4.40973e-05 0
0.00234457 -4.40973e-05 0
0.00108968 0.000210868 0
0.00108968 0.000210868 0
-8.0083e-05 0.000132582 7.03347e-24
-8.0083e-05 0.000132582 7.03347e-24
-9.78686e-05 0.00035506 -1.89879e-23
-9.78686e-05 0.00035506 -1.89879e-23
-6.07577e-05 0.000465492 -2.24696e-23
-6.07577e-05 0.000465492 -2.24696e-23
7.48651e-05 -2.6058e-05 4.48088e-23
7.48651e-05 -2.6058e-05 4.48088e-23
0.000219277 -0.000996427 1.49687e-23
0.000219277 -0.000996427 1.49687e-23
0.000307757 -0.00226945 -2.9805e-23
0.000307757 -0.00226945 -2.9805e-23
0.000322039 -0.00360111 0
0.000322039 -0.00360111 0
0.000274943 -0.00476407 -5.8557e-23
0.000274943 -0.00476407 -5.8557e-23
0.000192017 -0.00560704 -1.12975e-26
0.000192017 -0.00560704 -1.12975e-26
9.9698e-05 -0.00608176 5.85457e-23
9.9698e-05 -0.00608176 5.85457e-23
1.43473e-05 -0.00620532 -6.00374e-23
1.43473e-05 -0.00620532 -6.00374e-23
-5.39811e-05 -0.00603353 3.84808e-27
-5.39811e-05 -0.00603353 3.84808e-27
-0.000104907 -0.00562963 6.00413e-23
-0.000104907 -0.00562963 6.00413e-23
-0.00014368 -0.00504781 6.33734e-23
-0.00014368 -0.00504781 6.33734e-23
-0.000175861 -0.00433825 -2.17916e-26
-0.000175861 -0.00433825 -2.17916e-26
-0.000200901 -0.00355502 -6.45188e-23
-0.000200901 -0.00355502 -6.45188e-23
-0.000191798 -0.00279256 0
-0.000191798 -0.00279256 0
-9.59204e-05 -0.00235938 0
-9.59204e-05 -0.00235938 0
8.38886e-05 -0.00245795 0
8.38886e-05 -0.00245795 0
0.000183966 -0.00291712 0
0.000183966 -0.00291712 0
6.97662e-05 -0.00312426 0
6.97662e-05 -0.00312426 0
-0.000115808 -0.00284048 0
-0.000115808 -0.00284048 0
-0.000247359 -0.00230761 0
-0.000247359 -0.00230761 0
-0.000360845 -0.00162714 0
-0.000360845 -0.00162714 0
-0.000421026 -0.000828284 0
-0.000421026 -0.000828284 0
-0.000280345 -0.000101196 0
-0.000280345 -0.000101196 0
2.31363e-05 0.000333542 0
2.31363e-05 0.000333542 0
-9.88413e-05 6.75933e-05 2.83306e-26
-9.88413e-05 6.75933e-05 2.83306e-26
-5.3377e-05 -7.92798e-05 -3.49737e-24
-5.3377e-05 -7.92798e-05 -3.49737e-24
0.000126304 -0.000208395 0
0.000126304 -0.000208395 0
0.00038079 -0.000277857 0
0.00038079 -0.000277857 0
0.000666722 -0.000306315 3.38917e-24
0.000666722 -0.000306315 3.38917e-24
0.000961663 -0.000309995 3.39526e-24
0.000961663 -0.000309995 3.39526e-24
0.00125445 -0.000300591 0
0.00125445 -0.000300591 0
0.00153783 -0.000284921 0
0.00153783 -0.000284921 0
0.00180808 -0.000266111 0
0.00180808 -0.000266111 0
0.00206309 -0.000245194 -3.18961e-24
0.00206309 -0.000245194 -3.18961e-24
0.00230085 -0.000222147 -3.19569e-24
0.00230085 -0.000222147 -3.19569e-24
0.00251876 -0.000196568 0
0.00251876 -0.000196568 0
0.00271346 -0.000167967 0
0.00271346 -0.000167967 0
0.00288097 -0.000136058 0
0.00288097 -0.000136058 0
0.00301709 -0.000100771 -2.97657e-24
0.00301709 -0.000100771 -2.97657e-24
0.00311748 -6.2027e-05 -2.98258e-24
0.00311748 -6.2027e-05 -2.98258e-24
0.00317908 -2.02994e-05 0
0.00317908 -2.02994e-05 0
0.00319887 2.45579e-05 0
0.00319887 2.45579e-05 0
0.00317309 7.11067e-05 0
0.00317309 7.11067e-05 0
0.00309934 0.000118984 0
0.00309934 0.000118984 0
0.00297964 0.000166722 0
0.00297964 0.000166722 0
0.00281317 0.000212728 0
0.00281317 0.000212728 0
0.00260358 0.000259108 -2.82474e-24
0.00260358 0.000259108 -2.82474e-24
0.00235207 0.000299267 -1.31137e-26
0.00235207 0.000299267 -1.31137e-26
0.00205954 0.000340499 1.4258e-26
0.00205954 0.000340499 1.4258e-26
0.00173426 0.000371022 -5.61609e-24
0.00173426 0.000371022 -5.61609e-24
0.00137452 0.000389274 -2.80623e-24
0.00137452 0.000389274 -2.80623e-24
0.000999117 0.000379291 0
0.000999117 0.000379291 0
0.000651769 0.000247318 2.74758e-24
0.000651769 0.000247318 2.74758e-24
0.00038301 3.60052e-05 5.48092e-24
0.00038301 3.60052e-05 5.48092e-24
0.000233029 -0.000108304 2.73336e-24
0.000233029 -0.000108304 2.73336e-24
0.000246892 -0.000155779 0
0.000246892 -0.000155779 0
0.000353587 -0.00015369 2.6786e-24
0.000353587 -0.00015369 2.6786e-24
0.000463048 -0.000148326 2.6852e-24
0.000463048 -0.000148326 2.6852e-24
0.000658793 -0.000133471 0
0.000658793 -0.000133471 0
0.000967413 -0.000222967 -2.62994e-24
0.000967413 -0.000222967 -2.62994e-24
0.00118647 -0.000702251 -2.63663e-24
0.00118647 -0.000702251 -2.63663e-24
0.00123241 -0.00113511 -2.57195e-24
0.00123241 -0.00113511 -2.57195e-24
0.00116041 -0.000711847 -7.66197e-24
0.00116041 -0.000711847 -7.66197e-24
0.00066178 0.000213955 -5.09667e-24
0.00066178 0.000213955 -5.09667e-24
-0.000255023 0.0007295 0
-0.000255023 0.0007295 0
-0.00123955 0.000824615 0
-0.00123955 0.000824615 0
-0.00221346 0.000841853 0
-0.00221346 0.000841853 0
-0.00314432 0.000810222 0
-0.00314432 0.000810222 0
-0.00400412 0.000743163 -4.46574e-24
-0.00400412 0.000743163 -4.46574e-24
-0.00477127 0.000656053 -8.74526e-24
-0.00477127 0.000656053 -8.74526e-24
-0.00544147 0.000563668 -8.34607e-24
-0.00544147 0.000563668 -8.34607e-24
-0.00601579 0.000474129 -4.07854e-24
-0.00601579 0.000474129 -4.07854e-24
-0.00650155 0.000392507 3.69077e-24
-0.00650155 0.000392507 3.69077e-24
-0.00690735 0.000320694 3.70146e-24
-0.00690735 0.000320694 3.70146e-24
-0.00724307 0.000259228 -3.37242e-24
-0.00724307 0.000259228 -3.37242e-24
-0.00751802 0.00020751 -6.62165e-24
-0.00751802 0.00020751 -6.62165e-24
-0.00774101 0.000164622 -3.24893e-24
-0.00774101 0.000164622 -3.24893e-24
-0.00791964 0.000129422 0
-0.00791964 0.000129422 0
-0.00806065 0.00010076 0
-0.00806065 0.00010076 0
-0.00816991 7.75838e-05 -2.88357e-24
-0.00816991 7.75838e-05 -2.88357e-24
-0.00825254 5.91069e-05 -2.89251e-24
-0.00825254 5.91069e-05 -2.89251e-24
-0.00831296 4.45736e-05 0
-0.00831296 4.45736e-05 0
-0.00835496 3.31263e-05 0
-0.00835496 3.31263e-05 0
-0.00838138 2.40251e-05 0
-0.00838138 2.40251e-05 0
-0.00839413 1.63903e-05 0
-0.00839413 1.63903e-05 0
-0.00839422 9.05935e-06 0
-0.00839422 9.05935e-06 0
-0.00838095 9.37058e-07 0
-0.00838095 9.37058e-07 0
-0.00835223 -8.93581e-06 0
-0.00835223 -8.93581e-06 0
-0.00830472 -2.11795e-05 2.87965e-24
-0.00830472 -2.11795e-05 2.87965e-24
-0.00823432 -3.58865e-05 2.88933e-24
-0.00823432 -3.58865e-05 2.88933e-24
-0.00813714 -5.25417e-05 0
-0.00813714 -5.25417e-05 0
-0.00801058 -6.99945e-05 -3.01297e-24
-0.00801058 -6.99945e-05 -3.01297e-24
-0.00785449 -8.66826e-05 -6.08667e-24
-0.00785449 -8.66826e-05 -6.08667e-24
-0.00767173 -0.000100966 -3.07396e-24
-0.00767173 -0.000100966 -3.07396e-24
-0.00746778 -0.000111557 3.16521e-24
-0.00746778 -0.000111557 3.16521e-24
-0.00724951 -0.000117914 -3.8276e-26
-0.00724951 -0.000117914 -3.8276e-26
-0.00702372 -0.000120351 -3.22616e-24
-0.00702372 -0.000120351 -3.22616e-24
-0.006796 -0.00011982 3.30838e-24
-0.006796 -0.00011982 3.30838e-24
-0.00657007 -0.000117517 3.32039e-24
-0.00657007 -0.000117517 3.32039e-24
-0.00634762 -0.000114584 0
-0.00634762 -0.000114584 0
-0.00612843 -0.000111978 -3.43814e-24
-0.00612843 -0.000111978 -3.43814e-24
-0.00591078 -0.000110383 -3.45092e-24
-0.00591078 -0.000110383 -3.45092e-24
-0.0056922 -0.000110125 3.52262e-24
-0.0056922 -0.000110125 3.52262e-24
-0.00547016 -0.000111226 3.53593e-24
-0.00547016 -0.000111226 3.53593e-24
-0.00524223 -0.000113588 -3.60867e-24
-0.00524223 -0.000113588 -3.60867e-24
-0.00500609 -0.000117054 -7.27491e-24
-0.00500609 -0.000117054 -7.27491e-24
-0.00475983 -0.000121346 -7.36285e-24
-0.00475983 -0.000121346 -7.36285e-24
-0.00450215 -0.000126133 -1.1191e-23
-0.00450215 -0.000126133 -1.1191e-23
-0.00423225 -0.000131114 5.70122e-26
-0.00423225 -0.000131114 5.70122e-26
-0.00394991 -0.000135984 7.59665e-24
-0.00394991 -0.000135984 7.59665e-24
-0.00365549 -0.000140406 0
-0.00365549 -0.000140406 0
-0.00335006 -0.000144071 0
-0.00335006 -0.000144071 0
-0.00303525 -0.000146723 7.8721e-24
-0.00303525 -0.000146723 7.8721e-24
-0.00271312 -0.000148188 1.58348e-23
-0.00271312 -0.000148188 1.58348e-23
-0.002386 -0.000148377 -1.61003e-26
-0.002386 -0.000148377 -1.61003e-26
-0.0020563 -0.0001473 -8.01233e-24
-0.0020563 -0.0001473 -8.01233e-24
-0.00172633 -0.000145041 8.04426e-24
-0.00172633 -0.000145041 8.04426e-24
-0.00139833 -0.000141706 1.61379e-23
-0.00139833 -0.000141706 1.61379e-23
-0.00107441 -0.00013736 1.61581e-23
-0.00107441 -0.00013736 1.61581e-23
-0.000756553 -0.000131999 8.09854e-24
-0.000756553 -0.000131999 8.09854e-24
-0.00044684 -0.000125754 0
-0.00044684 -0.000125754 0
-0.000147968 -0.000118676 0
-0.000147968 -0.000118676 0
0.000137647 -0.000110782 7.97197e-24
0.000137647 -0.000110782 7.97197e-24
0.000408677 -0.000102135 8.00687e-24
0.000408677 -0.000102135 8.00687e-24
0.000663634 -9.2817e-05 0
0.000663634 -9.2817e-05 0
0.00090087 -8.30948e-05 -7.80303e-24
0.00090087 -8.30948e-05 -7.80303e-24
0.00111935 -7.32343e-05 -7.83788e-24
0.00111935 -7.32343e-05 -7.83788e-24
0.0013186 -6.34936e-05 0
0.0013186 -6.34936e-05 0
0.00149869 -5.40993e-05 -7.58514e-24
0.00149869 -5.40993e-05 -7.58514e-24
0.00166014 -4.52277e-05 -7.61969e-24
0.00166014 -4.52277e-05 -7.61969e-24
0.00180383 -3.69972e-05 0
0.00180383 -3.69972e-05 0
0.00193085 -2.94695e-05 7.34445e-24
0.00193085 -2.94695e-05 7.34445e-24
0.00204244 -2.26589e-05 1.4641e-23
0.00204244 -2.26589e-05 1.4641e-23
0.00213985 -1.65452e-05 7.29637e-24
0.00213985 -1.65452e-05 7.29637e-24
0.00222427 -1.10858e-05 -7.09839e-24
0.00222427 -1.10858e-05 -7.09839e-24
0.00229683 -6.23013e-06 -7.13195e-24
0.00229683 -6.23013e-06 -7.13195e-24
0.00235855 -1.92872e-06 6.93588e-24
0.00235855 -1.92872e-06 6.93588e-24
0.00241038 1.85982e-06 6.96907e-24
0.00241038 1.85982e-06 6.96907e-24
0.00245317 5.16654e-06 6.77602e-24
0.00245317 5.16654e-06 6.77602e-24
0.00248771 8.01237e-06 1.35061e-23
0.00248771 8.01237e-06 1.35061e-23
0.0025148 1.04192e-05 6.72988e-24
0.0025148 1.04192e-05 6.72988e-24
0.00253517 1.24146e-05 0
0.00253517 1.24146e-05 0
0.00254957 1.40234e-05 0
0.00254957 1.40234e-05 0
0.00255873 1.53276e-05 0
0.00255873 1.53276e-05 0
0.00256313 1.6413e-05 0
0.00256313 1.6413e-05 0
0.00256349 1.72516e-05 0
0.00256349 1.72516e-05 0
0.00256055 1.78022e-05 0
0.00256055 1.78022e-05 0
0.00255495 1.80955e-05 6.09721e-24
0.00255495 1.80955e-05 6.09721e-24
0.00254728 1.81864e-05 1.02333e-25
0.00254728 1.81864e-05 1.02333e-25
0.00253802 1.81204e-05 -6.05677e-24
0.00253802 1.81204e-05 -6.05677e-24
0.00252755 1.79272e-05 0
0.00252755 1.79272e-05 0
0.00251622 1.76202e-05 0
0.00251622 1.76202e-05 0
0.00250435 1.71977e-05 0
0.00250435 1.71977e-05 0
0.0024922 1.66549e-05 -1.13622e-23
0.0024922 1.66549e-05 -1.13622e-23
0.00248003 1.59935e-05 -1.14219e-23
0.00248003 1.59935e-05 -1.14219e-23
0.00246809 1.52232e-05 1.10963e-23
0.00246809 1.52232e-05 1.10963e-23
0.00245656 1.43628e-05 1.89857e-25
0.00245656 1.43628e-05 1.89857e-25
0.00244562 1.3439e-05 -1.10238e-23
0.00244562 1.3439e-05 -1.10238e-23
0.00243538 1.24803e-05 0
0.00243538 1.24803e-05 0
0.00242593 1.15125e-05 0
0.00242593 1.15125e-05 0
0.00241733 1.05597e-05 1.04531e-23
0.00241733 1.05597e-05 1.04531e-23
0.0024096 9.6445e-06 2.08377e-23
0.0024096 9.6445e-06 2.08377e-23
0.00240272 8.78462e-06 1.03842e-23
0.00240272 8.78462e-06 1.03842e-23
0.00239668 7.98666e-06 1.008e-23
0.00239668 7.98666e-06 1.008e-23
0.00239142 7.24805e-06 2.0093e-23
0.00239142 7.24805e-06 2.0093e-23
0.00238689 6.56619e-06 1.76748e-25
0.00238689 6.56619e-06 1.76748e-25
0.00238305 5.94429e-06 -9.8905e-24
0.00238305 5.94429e-06 -9.8905e-24
0.00237985 5.38616e-06 0
0.00237985 5.38616e-06 0
0.00237722 4.88657e-06 -9.47579e-24
0.00237722 4.88657e-06 -9.47579e-24
0.0023751 4.43021e-06 -9.52915e-24
0.0023751 4.43021e-06 -9.52915e-24
0.00237342 4.00122e-06 0
0.00237342 4.00122e-06 0
0.00237209 3.59339e-06 0
0.00237209 3.59339e-06 0
0.00237107 3.20973e-06 0
0.00237107 3.20973e-06 0
0.0023703 2.86028e-06 8.89e-24
0.0023703 2.86028e-06 8.89e-24
0.00236975 2.55427e-06 1.77158e-23
0.00236975 2.55427e-06 1.77158e-23
0.00236939 2.29241e-06 8.82538e-24
0.00236939 2.29241e-06 8.82538e-24
0.00236918 2.07376e-06 8.54586e-24
0.00236918 2.07376e-06 8.54586e-24
0.00236909 1.89967e-06 8.59559e-24
0.00236909 1.89967e-06 8.59559e-24
0.00236906 1.76909e-06 0
0.00236906 1.76909e-06 0
0.00236904 1.67914e-06 8.20652e-24
0.00236904 1.67914e-06 8.20652e-24
0.00236897 1.62724e-06 8.25482e-24
0.00236897 1.62724e-06 8.25482e-24
0.00236878 1.61003e-06 7.98274e-24
0.00236878 1.61003e-06 7.98274e-24
0.00236841 1.62404e-06 8.03007e-24
0.00236841 1.62404e-06 8.03007e-24
0.00236779 1.66701e-06 0
0.00236779 1.66701e-06 0
0.00236686 1.73692e-06 7.65056e-24
0.00236686 1.73692e-06 7.65056e-24
0.00236553 1.83638e-06 7.69642e-24
0.00236553 1.83638e-06 7.69642e-24