/*--------------------------------*- C++ -*----------------------------------*\
  =========                 |
  \\      /  F ield         | OpenFOAM: The Open Source CFD Toolbox
   \\    /   O peration     | Website:  https://openfoam.org
    \\  /    A nd           | Version:  7
     \\/     M anipulation  |
\*---------------------------------------------------------------------------*/
FoamFile
{
    version     2.0;
    format      ascii;
    class       volVectorField;
    location    "1";
    object      U;
}
// * * * * * * * * * * * * * * * * * * * * * * * * * * * * * * * * * * * * * //

dimensions      [0 1 -1 0 0 0 0];

internalField   nonuniform List<vector> 
918
(
(0.798713 -0.104933 0)
(0.140745 2.47894 0)
(-0.100146 1.45323 0)
(0.720472 0.0883801 0)
(0.0101258 1.35214 -2.53182e-19)
(-0.137781 2.25646 -3.3104e-17)
(0.789435 1.19528 -3.30061e-18)
(0.272957 0.16703 -1.25012e-19)
(0.972626 -0.011247 0)
(0.0161665 1.18419 0)
(0.0108116 1.17015 0)
(0.632114 0.00734331 0)
(0.0999755 1.81344 0)
(0.0149179 1.55495 0)
(-0.0356586 0.939305 -3.92405e-18)
(-0.0104604 1.1214 -6.18265e-19)
(0.424093 0.106142 9.76209e-18)
(0.175153 1.39431 -2.51027e-18)
(0.661232 0.0176321 0)
(0.0131527 1.17136 0)
(0.324184 0.210704 -3.31816e-18)
(0.889925 -0.109521 0)
(0.94345 -0.0957431 0)
(0.737856 0.00659156 0)
(0.559222 0.0368189 0)
(-0.0231179 1.84727 0)
(-0.0165197 1.90373 1.11159e-17)
(-0.165755 1.46569 0)
(-0.0318336 1.77504 0)
(-0.141088 1.66803 0)
(0.0314148 1.84302 0)
(-0.0492146 1.50344 2.01211e-19)
(-0.0210205 1.09459 0)
(-0.317167 2.71199 -1.27229e-21)
(-0.30592 3.11174 2.85988e-17)
(-0.00925079 3.04063 0)
(0.652751 9.76564e-05 0)
(0.265249 0.38884 2.58626e-18)
(0.983314 1.47339 6.98024e-18)
(0.859148 1.04359 -5.58018e-18)
(0.81758 1.628 7.41305e-19)
(0.648395 1.31571 -3.70459e-18)
(0.43793 0.257279 1.25953e-19)
(0.312381 0.167453 0)
(0.89804 0.517897 0)
(0.390782 0.248347 5.49821e-19)
(0.23967 0.16308 -5.46405e-19)
(0.654521 -0.00646533 0)
(0.996408 -0.00712296 0)
(0.97344 0.000140686 0)
(0.985604 -0.14174 0)
(0.999682 -0.0350504 0)
(0.985074 -0.020122 0)
(0.00649155 1.04778 -5.56692e-18)
(0.016988 1.57852 0)
(0.022726 1.20555 0)
(-0.0189469 1.5626 0)
(-0.0129946 1.19851 0)
(-0.00430328 1.14976 0)
(0.0162687 1.53158 0)
(0.00792296 1.17208 0)
(-0.000346397 1.52299 0)
(-0.00362816 1.15003 0)
(0.671223 0.0006781 0)
(0.862904 0.0138266 0)
(0.637754 0.00382116 0)
(0.84797 -0.0045156 0)
(0.628731 -0.00221157 0)
(0.319022 2.94652 1.31989e-17)
(0.269199 3.21192 0)
(0.206388 3.03371 0)
(0.177813 2.74855 1.45097e-22)
(0.11801 2.17283 -1.85203e-17)
(0.14376 2.55288 0)
(0.0637876 1.63756 0)
(0.0104364 2.41111 2.30904e-23)
(0.0102682 1.53472 0)
(-0.0622826 2.44554 0)
(-0.0462202 1.58539 0)
(-0.0080565 1.48678 0)
(-0.0073796 0.982009 0)
(-0.0610402 1.70252 3.96937e-18)
(-0.043893 1.07569 0)
(-0.00451057 1.85009 0)
(-0.015845 1.49871 6.25448e-19)
(-2.98048e-05 1.12615 -7.90639e-19)
(0.628238 0.150771 -3.46836e-18)
(0.444088 0.0882191 -3.33716e-18)
(0.606126 0.181357 -1.03507e-17)
(0.403594 0.128588 -6.47298e-18)
(0.113774 0.822863 0)
(0.258133 1.79852 2.31993e-18)
(0.346991 1.42397 -3.62661e-18)
(0.889858 0.00320919 0)
(0.644992 -5.69996e-05 0)
(0.979769 0.0288847 0)
(1.04073 0.126401 0)
(0.988835 0.0895978 -4.41879e-17)
(0.903054 0.129421 3.30853e-17)
(0.0182555 1.52686 0)
(0.00711777 1.16487 0)
(-0.0150401 1.66528 0)
(-0.0113304 1.52422 0)
(-0.00704693 1.17146 0)
(0.612421 0.175612 1.18865e-18)
(0.305916 0.189695 0)
(0.929117 -0.0125623 0)
(0.665266 -0.00820992 0)
(0.836843 0.0181407 0)
(0.793033 0.0601703 0)
(0.596608 0.0132121 0)
(0.757909 0.0115748 0)
(0.733758 0.0378893 0)
(0.459864 0.0213012 1.58239e-17)
(-0.0439063 1.59214 7.41549e-18)
(-0.0572386 2.58643 0)
(-0.112012 2.69061 0)
(-0.00748046 1.64137 0)
(-0.00437034 2.73154 1.05604e-17)
(-0.000261577 1.8736 0)
(-0.0481036 2.75766 -3.388e-17)
(-0.0523127 1.92877 1.12786e-17)
(0.0175169 1.8451 0)
(-0.00464586 1.85888 0)
(-0.0108154 1.48328 -1.66683e-20)
(-0.028829 1.47401 0)
(-0.00257778 1.08556 0)
(0.888784 0.00432349 0)
(0.656791 0.00149759 0)
(0.647947 -0.00159544 0)
(0.884993 0.00422627 0)
(0.646827 0.00621092 0)
(0.483484 0.699221 -3.41003e-18)
(0.250567 0.354697 0)
(0.499216 0.760862 3.89355e-19)
(0.269023 0.43184 0)
(1.0654 1.28271 1.82543e-18)
(0.888218 0.863438 -4.00923e-18)
(0.461696 1.80094 0)
(0.651367 1.74745 0)
(0.504834 1.3858 0)
(0.246737 0.583234 -1.95402e-18)
(0.491365 0.2479 0)
(0.343103 0.1566 1.73734e-18)
(1.09942 1.06991 0)
(1.11303 0.854372 0)
(0.893298 0.685263 4.39248e-18)
(1.1458 0.649312 0)
(0.902023 0.394393 7.62447e-20)
(0.882852 0.0107498 0)
(0.888664 -0.00541049 0)
(0.657993 -0.00258351 0)
(0.884062 -0.00311494 0)
(0.883561 -0.00660435 0)
(0.640229 -0.000782053 0)
(0.990057 0.0410784 0)
(0.988696 0.0185366 0)
(0.972044 0.0241381 0)
(0.00542189 1.39338 2.96715e-18)
(0.00966797 0.999041 0)
(0.0182371 1.43542 5.48619e-18)
(0.0135494 1.09505 -4.96163e-18)
(0.0669824 1.73531 2.18055e-18)
(0.0230462 1.64813 0)
(0.0279824 1.30119 0)
(0.00580096 1.569 0)
(0.0066283 1.1594 0)
(-0.0104323 1.50796 -2.63227e-20)
(-0.00559858 1.13981 0)
(0.00560758 1.51915 -1.48855e-18)
(0.00344056 1.16281 2.80014e-18)
(0.0142707 1.54105 0)
(0.0157484 1.53015 0)
(0.00963397 1.15274 0)
(-0.00814864 1.538 0)
(-0.00666118 1.18389 0)
(0.910672 0.00958244 0)
(0.678996 0.00570432 0)
(0.901884 0.00134508 0)
(0.655058 -0.000674181 0)
(0.642949 -0.002061 0)
(0.867306 0.00662256 0)
(0.862597 0.00653678 0)
(0.6249 0.00333769 0)
(-0.000530487 3.90458 -9.44643e-20)
(0.0498045 3.82742 0)
(0.0437478 2.43464 0)
(0.0139066 1.55221 0)
(0.28953 1.42547 0)
(0.310657 0.6534 -6.78227e-19)
(-0.0736772 1.92344 0)
(-0.0601568 1.23598 0)
(-0.00436542 1.88543 0)
(-0.00865709 1.82399 0)
(-0.00243793 1.85462 0)
(0.0382604 1.88188 1.19956e-19)
(-0.00680864 1.88823 0)
(0.0340758 1.88614 0)
(0.0173195 1.14602 9.66476e-20)
(0.00348883 1.52159 1.02152e-18)
(0.00089719 1.50295 8.25078e-19)
(0.000866391 1.11523 0)
(0.651193 0.118228 5.44479e-18)
(0.447475 0.0604298 -5.22634e-18)
(0.170229 1.1568 0)
(0.134707 0.764543 -1.21406e-18)
(0.115657 1.24011 -4.08213e-18)
(0.0688504 0.903721 3.9998e-18)
(0.655181 -0.00691214 0)
(0.884091 -0.0136862 0)
(0.880865 -0.00488658 0)
(0.649295 -0.000932694 0)
(0.0146319 1.54321 0)
(0.0116382 1.53035 0)
(0.0110341 1.1595 0)
(0.355128 0.230463 4.86123e-18)
(0.376284 0.194003 -5.29003e-18)
(0.23062 0.161597 0)
(1.04868 0.0676003 6.85713e-19)
(0.813297 0.050874 0)
(0.987928 0.0264577 0)
(0.713264 0.0114646 0)
(0.666529 0.0783263 0)
(0.683106 0.0500216 -2.57565e-17)
(0.451807 0.0358884 9.3444e-18)
(-0.0654035 2.62563 7.82639e-18)
(-0.00926022 1.75402 4.57603e-19)
(0.0344049 3.84999 -2.11412e-19)
(0.147635 3.77495 9.08013e-18)
(-0.106781 2.79539 4.05578e-19)
(-0.104214 2.05524 -1.62752e-21)
(-0.250638 3.09565 -8.25185e-18)
(0.0603924 3.49371 6.1944e-18)
(0.0563552 3.70368 -9.53871e-18)
(0.894856 0.00313576 0)
(0.887844 0.0172881 0)
(0.649368 0.0102048 0)
(0.880672 -0.00169812 0)
(0.875414 -0.0051665 0)
(0.635161 -0.000585138 0)
(0.874657 -0.0025017 0)
(0.882638 0.00598022 0)
(0.649291 0.00313183 0)
(0.494232 0.651645 -3.46805e-18)
(0.235144 0.306163 0)
(0.256992 0.512793 5.92021e-19)
(0.445425 0.864228 4.95957e-18)
(0.482724 0.820507 -2.90177e-18)
(0.270162 0.480404 5.5264e-18)
(0.372692 0.96899 9.9168e-18)
(0.232624 0.627081 1.75754e-18)
(0.571359 0.207029 6.93909e-18)
(0.5315 0.232607 1.79423e-18)
(0.380851 0.145062 3.29578e-18)
(1.13412 0.491487 -4.89537e-18)
(0.868741 0.257197 -5.22014e-18)
(-0.00284679 1.46778 2.439e-18)
(0.000839908 1.0948 0)
(0.94463 0.0199864 0)
(0.927018 0.00567748 0)
(0.69144 0.00300319 0)
(0.00416561 3.8798 0)
(0.0178659 2.40418 1.38014e-17)
(0.0176062 2.41119 0)
(0.00483538 1.53965 -1.28242e-17)
(-0.0227508 3.89264 2.86299e-18)
(-0.0220017 3.92164 0)
(0.484078 0.608154 8.26614e-19)
(0.473428 0.740373 -2.55461e-18)
(0.20073 0.313607 2.06574e-18)
(-0.116296 2.43623 -7.19327e-18)
(-0.117882 2.17711 0)
(-0.0618071 1.44433 0)
(-0.0189832 1.51699 -1.04006e-19)
(0.0201852 1.50559 -2.33098e-18)
(-0.0124971 1.14715 -7.12652e-20)
(0.204342 1.1042 4.05637e-18)
(0.15351 0.724691 -2.64702e-18)
(0.0167356 1.35679 3.49013e-18)
(0.0503729 1.30005 -3.84956e-18)
(0.0279261 0.957023 1.48573e-19)
(-0.0393003 3.8494 -1.73611e-17)
(-0.0535436 3.9049 1.68883e-17)
(0.0183874 2.70124 9.03877e-18)
(-0.0468187 2.65358 -8.19129e-18)
(0.0245886 1.85058 -8.71965e-18)
(-0.0397204 3.91129 -2.1551e-17)
(-0.0540362 3.89909 1.89125e-17)
(0.399822 0.918037 0)
(0.415423 0.889545 -1.02592e-17)
(0.245673 0.538046 4.33934e-18)
(0.333389 1.01379 5.36227e-18)
(0.210435 0.661557 -8.11826e-18)
(1.1147 0.168787 2.66386e-18)
(1.12742 0.314191 0)
(0.870955 0.144339 -2.69332e-18)
(-0.00389148 1.49749 -2.97427e-20)
(0.00245781 1.48309 0)
(0.0042238 1.12755 0)
(0.233025 1.07971 -1.4709e-18)
(0.291726 1.05266 -3.23302e-18)
(0.187034 0.705302 5.94198e-18)
(1.05158 -0.069411 0)
(1.09332 -0.105733 8.02088e-18)
(0.0203733 1.85483 0)
(-0.0285094 1.86373 0)
(1.05081 0.0367358 5.81337e-20)
(1.02005 0.0627015 1.6498e-17)
(0.0112783 1.89702 -1.55987e-19)
(0.047976 1.85351 0)
(-0.219945 3.44405 5.81112e-18)
(-0.149989 2.68408 0)
(1.25253 0.684952 -2.55446e-18)
(1.08044 -0.00418613 -6.70122e-20)
(1.07328 0.014036 0)
(1.02374 -0.00542083 -3.81738e-21)
(0.0388457 1.97982 0)
(0.10318 1.81235 0)
(-0.0255384 1.87665 0)
(0.056443 1.87921 1.90206e-18)
(-0.0060634 1.88251 1.16188e-18)
(1.04163 -4.63506e-05 -4.09695e-20)
(1.10904 0.0362072 0)
(1.12733 0.0282386 0)
(-0.00695969 1.83937 0)
(0.017789 1.84981 0)
(-0.0226935 1.87506 0)
(0.301468 2.0764 2.81416e-18)
(1.05426 -0.0559643 0)
(1.04403 -0.0393794 0)
(1.03677 0.00884791 9.98989e-18)
(1.0652 -0.0283787 -1.20257e-17)
(1.07883 -0.0384601 0)
(0.0033279 1.84043 0)
(0.0080977 1.85627 0)
(-0.000223316 1.86558 0)
(-0.0190169 1.90414 0)
(-0.0408613 1.88118 0)
(-0.000305587 1.81554 0)
(1.07686 -0.00342908 0)
(1.06951 -0.00650165 -5.50774e-20)
(1.01238 1.73876 -3.62257e-18)
(1.04122 -0.0262557 -9.98217e-18)
(1.07308 0.0513023 1.2054e-17)
(1.07632 0.0253508 0)
(1.06263 0.00384404 9.70474e-18)
(1.0887 0.0661074 -1.20284e-17)
(1.05771 0.0267539 0)
(0.00659171 1.88657 0)
(0.0406171 1.87105 6.01093e-19)
(-0.0250408 1.80613 -4.4715e-19)
(1.24887 0.2531 1.45112e-17)
(1.17391 0.0691702 0)
(-0.528606 3.74619 -6.30386e-18)
(-0.304196 2.74796 -4.14502e-19)
(-0.497676 3.70779 8.39389e-18)
(-0.254638 3.54955 -3.52011e-18)
(-0.172901 3.10634 0)
(-0.096161 3.58215 2.58651e-18)
(-0.321307 3.95596 7.32991e-18)
(-0.247745 3.78885 -4.95932e-18)
(-0.195886 3.85786 0)
(0.652503 0.321697 0)
(0.514103 0.358399 0)
(1.16199 0.836601 7.75114e-18)
(1.22556 0.963542 -9.99288e-18)
(1.20189 0.616713 0)
(1.24022 0.58011 0)
(1.08753 0.0143874 -1.85767e-17)
(1.0508 0.00754571 2.31769e-17)
(1.08958 -0.0381085 0)
(1.05425 -0.036593 0)
(1.01295 0.0315002 0)
(1.07932 -0.0110704 0)
(1.04432 0.0250539 0)
(1.07171 -0.0209303 0)
(1.07586 -0.0276196 0)
(1.04404 0.0165463 0)
(0.0286657 1.9753 0)
(-0.00246872 1.907 0)
(0.1016 1.9847 0)
(0.128671 1.98569 0)
(0.104524 1.77541 0)
(0.0482064 1.72085 -2.75917e-18)
(0.0967804 1.82908 0)
(0.052699 1.76923 2.05383e-18)
(0.0629007 1.83892 -2.9474e-18)
(0.00346651 1.90019 0)
(0.0282825 1.83112 0)
(-0.0346478 1.88468 0)
(-0.0360822 1.83985 0)
(-0.00410176 1.86625 -1.48494e-18)
(-0.0295509 1.86124 1.71926e-18)
(0.0381716 1.89201 1.9842e-18)
(0.0141467 1.83796 0)
(-0.00703477 1.88387 -2.7105e-18)
(-0.00296219 1.83342 -1.72347e-18)
(0.0297992 1.88324 1.13903e-18)
(-0.0633944 1.79057 -2.16475e-18)
(0.0417824 1.85434 -2.43132e-18)
(1.05037 -0.00825125 1.64792e-17)
(1.03643 -0.0355428 -2.10072e-17)
(1.04552 0.0233118 -1.68596e-17)
(0.979775 0.013464 2.09126e-17)
(1.10582 0.0241944 0)
(1.09052 0.00921423 0)
(1.10038 0.0229661 0)
(1.11353 0.0162661 0)
(1.07491 0.0027999 0)
(1.14089 0.0631852 0)
(1.13195 0.0283354 0)
(1.10408 0.0243447 0)
(-0.0940612 1.8574 -6.01142e-20)
(0.0298476 1.86753 0)
(-0.0346726 1.86266 0)
(0.0148119 1.85792 5.22136e-19)
(0.0182864 1.84702 -2.32105e-20)
(-0.00474731 1.88987 5.88702e-19)
(-0.0375002 1.84329 -5.76676e-19)
(-0.032299 1.87712 0)
(-0.0113444 1.89005 0)
(0.0288421 1.86091 0)
(-0.0285192 1.87946 0)
(-0.0383434 1.86756 0)
(0.447505 2.06695 -5.77658e-18)
(0.519655 2.08393 -1.91709e-18)
(0.304297 1.50558 -1.01284e-18)
(0.216475 1.62037 3.31663e-18)
(0.353341 1.80499 1.39838e-18)
(1.08319 0.00241319 0)
(1.06975 0.0197101 0)
(1.06116 0.0393124 0)
(1.03219 -0.0131265 0)
(1.04047 -0.0238606 0)
(1.02291 0.0214598 0)
(1.05754 0.0650206 0)
(1.07843 0.0363058 0)
(1.06392 -0.0174285 1.80028e-17)
(1.05076 -0.023185 -2.29133e-17)
(1.07213 0.00451635 -1.75867e-17)
(1.03479 0.0147418 2.19717e-17)
(0.962685 1.78164 0)
(0.926432 1.82658 -4.66475e-18)
(0.989725 1.65436 -4.05247e-18)
(1.11262 1.53663 5.34826e-18)
(0.88522 1.39753 1.11e-17)
(0.878421 0.103088 6.39807e-18)
(1.18193 0.0993238 0)
(1.22083 0.212703 -1.17482e-17)
(1.18935 0.0911656 -5.08851e-19)
(1.01461 0.143443 0)
(-0.845786 3.03914 7.1598e-18)
(-0.720513 3.1834 -9.14902e-18)
(-0.679039 2.38866 4.64118e-18)
(-0.350849 1.03282 -2.37906e-18)
(-0.227535 2.93169 2.77347e-18)
(-0.196785 3.1587 0)
(-0.10806 2.75578 -3.61466e-18)
(-0.630984 3.07674 -1.62401e-17)
(-0.52727 2.98977 0)
(-0.0722693 3.74568 4.82697e-19)
(-0.0746907 3.98058 -5.23583e-18)
(-0.0661186 3.81004 7.54263e-18)
(-0.176955 3.9476 0)
(-0.124632 3.86748 0)
(0.906064 1.39429 0)
(0.27977 1.2083 -5.30005e-18)
(1.19417 1.22657 3.56862e-18)
(1.02886 1.45119 0)
(0.89469 1.25308 -2.83098e-18)
(1.10743 1.13425 1.07472e-19)
(0.243675 0.0486826 -6.84535e-18)
(0.687978 0.326939 -2.04572e-20)
(0.666565 0.297342 3.89845e-18)
(0.492824 0.385643 2.48074e-19)
(0.432977 0.322845 -9.60449e-18)
(0.638494 0.370735 0)
(0.601519 0.465102 6.4901e-18)
(0.647992 0.41191 0)
(0.557919 0.395494 0)
(0.550769 0.338198 0)
(0.691236 0.759007 5.55009e-18)
(1.26351 0.26704 -1.15591e-17)
(1.22943 0.454717 0)
(1.27292 0.307997 0)
(0.779002 0.229196 6.15246e-18)
(0.686975 0.65538 -4.0525e-18)
(0.630107 0.570258 7.58414e-18)
(0.9045 0.428183 -9.69855e-18)
(1.06128 -0.00472614 1.22547e-17)
(1.06597 0.0555103 -1.23106e-17)
(1.04347 0.0399695 0)
(1.0867 -0.0161303 0)
(1.07178 -0.0176767 -1.16544e-17)
(1.05375 0.0114173 1.14929e-17)
(1.05839 0.0376268 0)
(1.04321 0.00238925 0)
(1.07968 -0.0108906 0)
(1.05483 -0.00307647 0)
(1.0789 -0.0155949 0)
(1.06075 -0.0248271 0)
(0.0569399 1.91225 0)
(0.0620033 1.87864 0)
(0.100977 1.94287 -2.94962e-18)
(0.259323 2.07772 -1.56674e-18)
(0.180192 2.02874 -3.33484e-18)
(0.189457 2.04111 5.32023e-18)
(0.0648231 1.93301 0)
(0.199278 1.86075 -3.30272e-18)
(0.0893373 1.90356 0)
(0.313738 1.8045 -2.03776e-18)
(0.243027 1.69744 4.74939e-18)
(0.228262 1.85597 2.93279e-18)
(0.205631 1.9666 -1.68644e-18)
(0.131359 1.88433 1.36404e-18)
(0.252628 1.94238 -4.51471e-18)
(0.229325 1.85145 0)
(0.256978 1.84207 3.32286e-18)
(0.0317741 1.82687 -1.0939e-18)
(0.0422063 1.83774 0)
(0.0023337 1.84105 3.08947e-18)
(-0.0141565 1.83367 0)
(0.0145011 1.81764 -2.26749e-18)
(-4.23161e-05 1.76859 0)
(0.0291702 1.87515 -1.83428e-18)
(0.0532439 1.86838 0)
(0.0391973 1.88117 0)
(0.0218213 1.89426 2.20099e-18)
(0.0401241 1.8468 1.00579e-19)
(0.0409694 1.87136 3.54301e-18)
(0.0086477 1.8005 2.52945e-20)
(0.0778658 1.81153 1.08567e-18)
(0.0449444 1.78015 6.49843e-19)
(-0.0212313 1.85032 0)
(-0.0567819 1.83622 0)
(0.00337163 1.84072 2.97658e-18)
(-0.0286744 1.88814 2.91463e-18)
(0.0183257 1.88574 -3.74737e-18)
(0.00483867 1.86908 0)
(0.015734 1.86076 -1.98243e-18)
(-0.0357422 1.83552 7.96899e-19)
(-0.0292519 1.9003 -2.51039e-19)
(0.0775313 1.90886 -1.25225e-18)
(0.0614176 1.80848 -4.6309e-19)
(-0.0149114 1.84969 2.03363e-18)
(1.05444 0.0286817 -1.16112e-17)
(1.05188 -0.0330575 1.1231e-17)
(1.03276 0.025771 0)
(1.03319 -0.0168803 1.52043e-17)
(0.991232 0.0754777 -1.63888e-17)
(0.989554 0.0475626 1.74701e-17)
(1.03821 0.00636679 -1.9982e-18)
(1.10792 -0.034778 0)
(1.09668 -0.00427845 1.11779e-17)
(1.0681 -0.0291727 -1.10926e-17)
(1.05289 0.0185254 -6.37448e-19)
(1.0633 0.0375678 5.44781e-18)
(1.05092 0.0614696 0)
(1.03975 0.0512179 -1.95287e-18)
(1.06406 0.0483338 0)
(1.04213 0.0449451 0)
(1.07665 0.0484832 0)
(1.05263 0.0102789 0)
(1.08516 0.0537316 4.01295e-18)
(1.08478 0.0272235 -8.9558e-18)
(1.03306 0.00375715 -4.29405e-18)
(1.05846 0.0189538 -4.62625e-18)
(1.09249 0.0615297 9.2097e-18)
(1.0857 0.0472962 0)
(1.07444 0.0483182 0)
(0.0231548 1.9111 -7.66926e-19)
(0.0822548 1.84365 -7.69906e-20)
(0.0281261 1.84003 0)
(0.0208091 1.89823 7.92335e-19)
(-0.0753334 1.855 1.35158e-19)
(-0.022914 1.85654 -1.50466e-19)
(-0.0392464 1.8761 1.4932e-18)
(0.0158229 1.88771 -8.9344e-20)
(0.0851788 1.84847 4.37622e-19)
(-0.0233635 1.87831 -7.74631e-19)
(-0.0451372 1.8478 9.26639e-19)
(0.00646353 1.84575 8.84958e-21)
(-0.0138618 1.87501 9.73394e-19)
(0.481078 1.94068 3.17853e-18)
(0.383108 1.89926 4.83676e-18)
(0.825213 1.90645 4.49517e-18)
(0.649175 2.05535 1.92374e-18)
(0.748889 2.0225 0)
(0.315156 1.54194 1.19804e-18)
(0.318321 1.43859 1.49002e-18)
(0.254165 1.60555 6.32073e-20)
(0.311337 1.63446 -5.30392e-18)
(0.340031 1.61192 3.89828e-18)
(0.289492 1.57612 0)
(0.22098 1.50109 -2.56561e-18)
(0.0745536 1.72629 6.6822e-18)
(0.140277 1.70287 -8.17357e-20)
(0.0586407 1.61612 -8.34178e-18)
(0.61806 1.38948 6.52495e-18)
(0.48538 1.43987 0)
(1.05677 0.042007 3.85942e-19)
(1.06779 -0.0442392 -3.41001e-19)
(1.04963 -0.05629 -5.92769e-18)
(1.06187 -0.00248793 5.84316e-18)
(1.05066 0.0257372 0)
(0.850759 1.72087 0)
(0.834269 1.68976 0)
(0.948554 1.46911 0)
(0.739119 1.55144 0)
(0.886366 1.47118 1.27297e-20)
(0.806949 1.32157 0)
(0.65932 1.60079 7.44107e-20)
(0.534501 1.60338 0)
(0.616757 1.58685 -6.1526e-18)
(0.633522 1.57121 4.0655e-18)
(0.886383 0.1302 0)
(0.83396 0.138389 1.67056e-18)
(0.936135 0.109917 1.07113e-17)
(0.908714 0.0974542 -3.7431e-18)
(0.876277 0.079386 -1.18472e-17)
(1.09817 0.18931 -1.38011e-17)
(0.91021 0.333989 -6.99894e-20)
(0.926138 0.268287 9.67791e-18)
(0.976255 0.183077 9.21062e-18)
(0.935553 0.172921 -1.50981e-17)
(0.926334 0.226247 1.83171e-18)
(0.864689 0.261704 -4.17194e-18)
(0.885357 0.255003 0)
(1.0008 0.145912 7.46926e-18)
(1.02868 0.183313 0)
(1.03843 0.179809 0)
(1.10064 0.150891 4.58881e-18)
(1.02946 0.21948 -4.45955e-20)
(1.03533 0.164767 -2.38077e-18)
(1.07748 0.1459 0)
(1.05254 0.0411276 8.67251e-18)
(1.04869 0.00223798 1.08463e-17)
(1.08828 0.0437449 -8.34529e-18)
(1.05594 0.0737157 -7.34503e-18)
(1.02637 0.00176818 -1.09515e-17)
(0.986921 0.140327 0)
(1.0172 0.0374414 0)
(0.981845 0.0657283 -6.23867e-18)
(0.962869 0.0168207 2.31863e-18)
(1.05861 0.105233 1.01073e-17)
(1.08591 0.113193 -1.26367e-17)
(1.03813 0.13279 1.09682e-17)
(1.0052 0.148144 0)
(1.05901 0.0989265 0)
(1.03268 0.0720585 -5.11463e-18)
(1.04308 0.0749934 -8.24814e-18)
(0.700658 1.64346 3.24352e-18)
(0.712148 1.69052 -3.29395e-18)
(0.893275 1.72466 -4.5403e-18)
(0.935804 1.98382 1.06386e-18)
(0.946894 1.51462 -9.89106e-18)
(0.981795 1.4619 3.53131e-18)
(0.857169 1.19779 -2.31701e-20)
(0.978441 1.7839 -4.51047e-18)
(0.970111 1.73285 6.84517e-18)
(0.93745 2.05263 1.6848e-18)
(0.949388 1.71197 -1.78495e-18)
(0.826903 1.63655 0)
(0.368156 1.38745 -6.03349e-19)
(-0.84497 1.76519 3.38065e-18)
(-0.226882 0.412744 4.43249e-18)
(-0.415619 0.710048 4.34803e-18)
(0.397536 0.335232 5.38628e-18)
(0.369266 0.407299 -9.36278e-18)
(0.248418 0.358053 7.57016e-18)
(0.296392 0.22945 -2.55733e-18)
(0.365774 0.219573 5.76436e-18)
(0.781959 0.269357 -3.61584e-18)
(0.718879 0.312754 0)
(0.707632 0.269204 -8.36059e-21)
(0.559883 0.532959 3.58693e-18)
(0.527556 0.504058 -1.26014e-17)
(0.408513 0.454149 -7.03864e-20)
(0.467574 0.439164 0)
(0.480895 1.10373 4.47692e-18)
(0.754514 1.0079 6.04573e-18)
(0.684958 1.19649 -6.97074e-18)
(0.793405 1.0182 -2.5914e-18)
(0.998778 1.03907 -9.83174e-19)
(0.969697 1.11294 1.00407e-18)
(0.800606 0.758311 -9.06173e-18)
(0.837041 0.926085 2.44865e-18)
(1.01074 0.904146 0)
(0.986911 0.817939 -3.65579e-18)
(0.939437 0.348769 3.22068e-18)
(1.09873 0.354511 6.27313e-18)
(1.10514 0.275991 5.7368e-18)
(0.962654 0.424151 -6.25746e-18)
(1.11473 0.411125 0)
(1.10306 0.401983 0)
(0.830095 0.40174 -7.14409e-20)
(0.814879 0.29108 0)
(0.807606 0.293248 4.2846e-18)
(0.917837 0.28737 -8.83435e-20)
(0.899963 0.514418 2.67466e-17)
(0.796554 0.5725 6.83446e-18)
(0.805844 0.514591 -6.46226e-18)
(0.764093 0.459374 6.82504e-18)
(0.698945 0.510321 3.7589e-18)
(0.673667 0.441015 -3.6348e-18)
(1.05819 0.0573071 9.57181e-18)
(1.04087 -0.0462044 0)
(1.03755 -0.00183588 6.60391e-18)
(1.01035 0.057692 -1.46401e-17)
(1.0765 -0.0161071 7.10666e-18)
(1.05872 0.0313203 -1.45164e-17)
(1.07941 -0.00138642 0)
(1.06066 -0.0217575 -2.9952e-18)
(1.06295 0.043476 7.73933e-18)
(1.04131 -0.00184871 -4.06434e-18)
(1.04444 -0.0308227 2.85022e-18)
(-0.0278083 1.88746 0)
(0.100116 1.87564 0)
(0.0191337 1.89414 0)
(-0.00311653 1.87255 0)
(0.0546324 1.90722 5.32236e-18)
(0.0619153 1.90134 -1.51997e-18)
(0.0821567 1.83253 -1.49176e-18)
(0.121949 1.8422 1.64391e-18)
(-0.0211982 1.87461 -3.39775e-18)
(0.0237178 1.85761 2.55942e-18)
(0.0238193 1.90827 -7.29192e-20)
(0.0295583 1.89186 -3.17773e-18)
(0.033332 1.87877 -4.6101e-19)
(0.0930659 1.89376 -4.17707e-19)
(0.042093 1.81261 -3.29303e-18)
(0.0790115 1.80805 0)
(0.0975135 1.81293 1.50193e-18)
(0.0543171 1.86898 1.36114e-18)
(0.168488 1.76314 -1.24e-18)
(0.117706 1.73724 0)
(0.154774 1.70374 -5.47041e-18)
(0.178722 1.70496 3.9231e-18)
(0.182352 1.77386 -3.23012e-18)
(0.154287 1.77689 1.8314e-18)
(0.0660158 1.70167 0)
(0.0276399 1.81155 -3.25789e-18)
(-0.00251125 1.7988 -3.7961e-18)
(-0.0166182 1.7943 0)
(0.0328959 1.87872 -2.38222e-20)
(0.0351232 1.86537 1.61716e-18)
(0.0112986 1.90578 2.82276e-19)
(0.01376 1.86749 -4.22781e-18)
(-0.0143769 1.8814 1.23471e-18)
(-0.021475 1.79994 1.50748e-18)
(0.0308303 1.90489 0)
(-0.01709 1.92751 0)
(-0.00950295 1.87901 1.26786e-18)
(0.0286752 1.87716 -3.80833e-19)
(-0.0150999 1.9118 0)
(-0.00990851 1.88365 1.01005e-18)
(0.0402144 1.82021 -1.95893e-18)
(1.03129 0.103589 0)
(1.0945 0.072989 -1.02647e-18)
(1.03955 0.0313822 -7.35415e-18)
(0.9973 0.00394704 0)
(1.03342 -0.0427707 0)
(1.09032 -0.0583075 -6.95725e-20)
(1.04439 -0.0701522 1.20121e-17)
(1.05722 -0.0108684 1.40478e-17)
(1.05974 0.00476877 0)
(1.07176 0.00858851 0)
(1.0591 -0.013787 7.01001e-18)
(1.05316 0.0265873 0)
(1.05102 0.0405061 0)
(-0.0666747 1.8968 0)
(-0.00850763 1.81341 8.95514e-20)
(-0.0281558 1.82136 4.24578e-19)
(0.0031065 1.87841 0)
(0.0824738 1.85764 6.95117e-19)
(0.0555376 1.86799 -3.05792e-19)
(0.0190218 1.86957 0)
(0.462248 1.72464 0)
(0.401267 1.73352 -8.13423e-18)
(0.393665 1.70407 0)
(0.507991 1.87678 9.75908e-18)
(0.595806 1.92358 0)
(0.556258 1.9249 -4.25498e-18)
(0.659666 1.56476 -1.57151e-19)
(0.642526 1.45448 -7.616e-18)
(0.618414 1.33545 9.33208e-18)
(0.515726 1.47567 1.78868e-18)
(0.534906 1.54725 0)
(0.602766 1.55701 0)
(0.603229 1.4687 0)
(0.526152 1.36568 -6.20785e-18)
(0.466011 1.62342 -5.00532e-18)
(0.46196 1.57212 -1.12834e-18)
(0.507642 1.60306 9.41589e-19)
(0.373945 1.51743 0)
(0.472717 1.49445 0)
(0.421782 1.42597 -1.73699e-18)
(0.4481 1.54697 0)
(0.610809 1.59342 0)
(0.564657 1.56898 -7.39996e-18)
(0.49329 1.39441 -4.5999e-19)
(0.726658 1.62373 0)
(0.670118 1.6728 1.13649e-17)
(0.729548 1.32131 -2.36233e-18)
(0.932612 1.33986 0)
(0.848619 1.24879 4.1428e-18)
(0.547026 1.55403 0)
(0.523965 1.38866 0)
(0.864557 1.58424 -4.14276e-18)
(0.855219 1.66894 -3.25703e-18)
(0.793061 1.6513 5.44868e-18)
(0.787164 1.64489 -1.62655e-18)
(0.824654 1.53983 0)
(0.788163 1.56895 2.19641e-18)
(0.800881 1.41176 -3.06608e-18)
(0.729678 1.29128 -3.86463e-21)
(0.641577 1.6221 0)
(0.656926 1.66311 -2.89347e-18)
(0.70947 1.66075 0)
(0.862327 0.221104 0)
(0.845042 0.185167 0)
(0.771289 0.192154 0)
(0.830688 0.254374 -6.74682e-18)
(0.802739 0.226803 3.72917e-18)
(0.988009 0.0152901 -4.63045e-18)
(0.972245 0.0634199 0)
(0.949098 0.065667 1.96391e-18)
(0.913249 0.076701 7.7743e-18)
(0.892196 0.0386799 -4.90208e-18)
(0.733824 2.30625 2.95514e-18)
(0.792863 2.28938 0)
(0.465976 2.34427 5.3696e-18)
(0.208105 2.68845 -4.78155e-18)
(0.289849 2.50803 -4.14032e-18)
(0.193156 1.62614 6.44283e-18)
(0.341089 1.70002 0)
(-0.237558 0.985129 -1.21942e-18)
(-0.0104254 1.03674 8.48035e-18)
(-0.195918 0.536345 -1.75112e-18)
(0.0735169 0.516151 1.92551e-18)
(0.399424 0.571429 4.4328e-18)
(0.512129 0.60283 0)
(0.243711 0.78678 0)
(0.213649 0.662958 0)
(0.932858 0.735302 2.86104e-18)
(0.859622 0.593949 -6.60839e-18)
(0.895626 0.676442 6.02217e-18)
(0.903574 0.552122 -5.44729e-18)
(1.08135 0.606195 0)
(1.04723 0.674347 -1.87093e-18)
(0.784389 0.393792 -8.63467e-18)
(0.800835 0.363018 -1.14779e-17)
(0.703682 0.426387 6.81483e-18)
(0.712367 0.390759 -6.4266e-18)
(0.805014 0.333536 -5.41789e-18)
(0.762639 0.343443 6.62442e-18)
(1.09604 -0.00424861 -7.5889e-18)
(1.10053 0.0206837 1.52129e-17)
(1.08896 0.0375575 9.28696e-18)
(1.08974 -0.0228475 -1.11581e-17)
(0.953154 0.0191572 0)
(0.947854 -0.0121916 -1.87701e-17)
(0.0656482 1.82699 6.54948e-19)
(0.00753998 1.85959 0)
(0.0854238 1.86349 5.39371e-18)
(0.0554554 1.85666 -4.79826e-18)
(0.0681393 1.84399 2.72689e-18)
(0.0639821 1.88542 0)
(0.054987 1.9002 0)
(0.0225806 1.84775 -4.08347e-19)
(0.00545433 1.76138 3.62207e-19)
(0.0430324 1.77758 6.44983e-20)
(-0.0934442 1.87637 -6.5585e-19)
(-0.00265145 1.83808 3.71189e-19)
(0.60681 1.70721 -8.49921e-18)
(0.615476 1.70539 9.09132e-18)
(0.549109 1.81996 -5.56476e-18)
(0.604659 1.74355 4.11262e-19)
(0.714345 1.8024 0)
(0.650359 1.89768 -5.21255e-18)
(0.657265 1.88197 5.16997e-18)
(0.605061 1.83077 5.57081e-18)
(0.669092 1.81961 0)
(0.720027 1.75242 0)
(0.495566 1.60033 7.27116e-18)
(0.340538 1.5991 9.57491e-18)
(0.379752 1.58302 -6.60013e-18)
(0.294923 1.60774 -1.05052e-18)
(0.379346 1.62951 2.30603e-18)
(0.30645 1.58602 -5.36602e-18)
(0.677685 1.43038 -5.25394e-18)
(0.734168 1.39668 0)
(0.661203 1.29834 -5.73175e-18)
(0.764796 1.54393 0)
(0.736888 1.57158 0)
(0.398868 2.12118 -4.62712e-18)
(0.662715 2.29577 -3.99737e-18)
(0.436953 2.36971 4.67234e-18)
(-0.605521 1.72097 0)
(-0.385649 1.55324 -2.90756e-18)
(0.0211522 1.71807 -4.11594e-18)
(0.215647 2.04949 0)
(-0.0310389 2.47477 3.06277e-18)
(-0.388855 2.55907 0)
(0.48822 0.948617 -9.38112e-18)
(0.647964 0.956789 1.36483e-17)
(0.670404 0.801804 -1.35407e-17)
(0.390176 0.809911 -1.11577e-18)
(0.503609 0.72207 -4.70525e-18)
(0.70715 2.12375 3.2292e-18)
(0.808889 1.99528 -5.82595e-18)
(0.523424 2.05449 8.18721e-18)
(0.531409 1.88707 -5.55228e-18)
(0.717717 1.74669 -7.1117e-18)
(0.768757 1.88863 -6.27827e-19)
(0.801439 1.7911 6.14888e-18)
(0.624927 1.86512 4.5387e-19)
(0.654124 1.75427 3.02093e-18)
)
;

boundaryField
{
    wall-4
    {
        type            noSlip;
    }
    velocity-inlet-5
    {
        type            fixedValue;
        value           uniform (1 0 0);
    }
    velocity-inlet-6
    {
        type            fixedValue;
        value           uniform (0 3 0);
    }
    pressure-outlet-7
    {
        type            zeroGradient;
    }
    wall-8
    {
        type            noSlip;
    }
    frontAndBackPlanes
    {
        type            empty;
    }
}


// ************************************************************************* //
