/*--------------------------------*- C++ -*----------------------------------*\
  =========                 |
  \\      /  F ield         | OpenFOAM: The Open Source CFD Toolbox
   \\    /   O peration     | Website:  https://openfoam.org
    \\  /    A nd           | Version:  7
     \\/     M anipulation  |
\*---------------------------------------------------------------------------*/
FoamFile
{
    version     2.0;
    format      ascii;
    class       volScalarField;
    location    "0.024";
    object      nut;
}
// * * * * * * * * * * * * * * * * * * * * * * * * * * * * * * * * * * * * * //

dimensions      [0 2 -1 0 0 0 0];

internalField   nonuniform List<scalar> 
12225
(
0
0
0
0
0
0
0
0
0
0
0
0
0
0
0
0
0
0
0
0
0
0
0
0
0
0
0
0
0
0
0
0
0
0
0
0
0
2.23273e-10
0
0
0
8.98313e-11
1.0993e-10
1.79477e-11
0
0
0
0
0
0
0
0
0
0
0
1.50992e-08
7.31697e-09
1.56833e-09
1.3528e-09
4.79163e-10
0
0
0
0
0
0
0
0
0
0
0
0
1.83738e-07
1.94171e-07
1.36909e-07
7.49133e-08
5.03796e-08
2.57349e-08
1.21168e-08
6.24577e-09
2.87144e-09
1.16217e-09
6.86973e-10
6.85761e-10
5.99419e-10
0
0
0
0
0
2.1308e-07
2.73326e-07
1.04664e-07
1.42083e-07
2.66104e-07
3.21806e-07
3.65826e-07
2.84517e-07
1.42582e-07
3.91593e-08
0
0
0
1.30837e-09
3.83044e-09
1.89048e-09
2.25309e-09
2.31608e-09
3.97317e-07
2.98936e-07
0
8.65876e-08
1.8104e-07
3.28733e-08
0
1.68574e-07
2.06051e-07
1.03516e-07
1.96267e-08
0
0
0
1.74986e-08
3.72599e-08
5.00933e-08
5.08956e-08
5.57477e-07
2.84866e-07
9.35332e-09
1.84165e-07
2.05375e-07
0
0
0
6.07031e-08
5.95473e-08
2.8551e-08
2.0493e-08
3.37604e-08
5.03857e-08
5.47361e-08
5.25935e-08
5.93764e-08
7.96879e-08
3.3832e-07
2.53808e-07
1.33378e-07
3.77766e-07
3.1862e-07
4.21236e-08
0
0
4.37066e-08
5.98526e-08
4.97908e-08
4.75273e-08
5.07074e-08
4.8383e-08
3.77037e-08
2.4061e-08
1.6752e-08
2.50643e-08
0
6.37212e-07
1.13601e-06
8.33832e-07
4.9055e-07
1.18762e-07
0
1.22793e-08
4.83076e-08
5.57393e-08
3.6949e-08
1.93918e-08
2.44718e-08
3.34082e-08
3.52943e-08
2.94969e-08
1.95442e-08
1.28477e-08
0
1.092e-06
2.37428e-06
1.26303e-06
6.70328e-07
3.46399e-07
1.14428e-07
1.91592e-08
2.24296e-08
8.5868e-08
1.21808e-07
6.69017e-08
4.0732e-08
4.74988e-08
5.19363e-08
4.36881e-08
2.11938e-08
0
5.68317e-08
1.68757e-06
2.6521e-06
1.50246e-06
9.06891e-07
7.41193e-07
4.30238e-07
0
0
0
7.45786e-07
5.46642e-07
3.24244e-07
1.46653e-07
0
0
0
0
1.72349e-07
4.07333e-07
2.97637e-07
1.1183e-06
6.92824e-07
5.44717e-07
4.49186e-07
0
0
0
1.22197e-07
2.34376e-07
1.97284e-07
1.07755e-07
2.84042e-09
0
0
0
1.02052e-07
1.02805e-07
0
4.11047e-08
2.28994e-07
4.20478e-07
5.77394e-07
0
0
0
0
0
4.96693e-08
9.46157e-08
7.28235e-08
8.76577e-09
0
0
0
0
0
0
0
1.85931e-07
3.01952e-08
0
0
0
0
0
0
1.07854e-07
1.72047e-07
1.52597e-07
1.02204e-07
7.90716e-08
0
0
0
0
8.83952e-08
0
0
0
0
0
0
0
1.6614e-07
2.46587e-07
2.89711e-07
2.79953e-07
2.43375e-07
2.29542e-07
6.57415e-08
4.3003e-08
9.92907e-08
4.36767e-07
3.37641e-07
1.0119e-08
0
0
0
0
6.34107e-08
3.79149e-07
6.36933e-07
8.17089e-07
7.92763e-07
4.02582e-07
9.00601e-08
9.78729e-08
2.04129e-07
3.96136e-07
4.2233e-07
2.59475e-07
1.37177e-07
0
0
0
0
0
1.07384e-07
3.20777e-07
5.40228e-07
6.04951e-07
4.17228e-07
9.42849e-08
0
0
0
2.477e-07
4.06772e-07
1.5326e-07
1.05624e-07
6.60511e-08
0
0
0
0
0
0
1.22543e-07
1.22749e-07
4.61716e-08
0
0
0
0
0
0
2.05571e-08
3.02578e-08
3.36816e-08
0
0
0
0
0
0
0
3.66918e-08
7.1175e-08
6.70886e-08
4.93366e-08
6.87949e-08
0
0
0
0
0
0
0
0
0
0
0
0
0
0
0
0
0
0
1.25787e-06
1.24232e-06
0
0
0
0
0
0
0
0
0
0
0
0
0
0
0
0
3.87511e-07
2.38047e-07
3.28756e-07
0
0
0
0
0
0
0
0
0
0
0
0
0
0
0
0
0
0
0
0
0
0
0
0
0
0
0
0
0
0
0
0
0
1.76942e-08
0
0
0
0
9.86224e-08
1.84853e-07
1.11532e-07
0
0
0
4.00379e-09
7.8907e-08
9.759e-08
7.13958e-08
3.45729e-08
1.04357e-09
0
3.62552e-07
0
0
0
0
9.57318e-08
2.00341e-07
1.89245e-07
5.4654e-08
0
0
0
0
0
0
0
0
0
6.41765e-08
0
0
0
0
5.31233e-09
0
0
0
0
0
0
0
0
0
0
0
0
7.6059e-09
0
0
0
0
0
0
0
0
0
0
0
0
0
0
0
0
0
8.16062e-09
0
0
0
0
0
0
0
0
0
0
0
0
0
0
0
0
0
6.45789e-08
0
0
0
0
0
0
0
0
0
0
0
0
0
0
0
0
0
0
0
0
0
0
0
3.03473e-07
1.22468e-06
1.63745e-06
1.65537e-06
1.47634e-06
1.21867e-06
9.44476e-07
6.88602e-07
4.68934e-07
2.9239e-07
1.58881e-07
6.4376e-08
2.88282e-09
0
0
0
0
0
6.91528e-09
2.58346e-08
4.19789e-08
5.41537e-08
6.17774e-08
6.42487e-08
6.32108e-08
5.97301e-08
5.20304e-08
4.37435e-08
3.68149e-08
2.66462e-08
1.99496e-08
1.3933e-08
8.7622e-09
5.14994e-09
2.22695e-09
0
0
0
0
0
0
0
0
0
0
0
0
0
0
0
0
0
0
0
0
0
0
0
0
0
0
0
0
0
0
0
0
0
0
0
0
0
0
0
0
0
0
0
0
0
0
0
0
0
0
0
0
0
0
0
0
0
0
0
0
0
0
0
0
0
0
0
0
0
0
0
0
0
0
0
0
0
0
0
0
0
0
0
0
0
0
0
0
0
0
0
0
0
0
0
0
0
0
0
0
0
0
0
0
0
0
0
0
0
0
0
0
0
0
0
0
0
0
0
0
0
0
0
0
0
0
0
0
0
0
0
0
0
0
0
0
0
0
0
0
0
0
9.00288e-08
2.08111e-07
3.02336e-07
3.69113e-07
4.12952e-07
4.40032e-07
4.53963e-07
4.56183e-07
4.48833e-07
4.3309e-07
4.10203e-07
3.82129e-07
3.49218e-07
3.09524e-07
2.63978e-07
2.13775e-07
1.62788e-07
1.16514e-07
7.91894e-08
5.34221e-08
3.90679e-08
3.35447e-08
3.34669e-08
3.57398e-08
3.83616e-08
3.99021e-08
3.98548e-08
3.92394e-08
3.78657e-08
3.53416e-08
3.27525e-08
2.97187e-08
2.63115e-08
2.25788e-08
1.86839e-08
1.42967e-08
9.65877e-09
4.63171e-09
0
0
0
0
0
0
0
0
0
0
0
0
0
0
0
0
0
0
0
0
0
0
0
0
0
0
1.3564e-08
2.89874e-08
1.46872e-08
0
0
0
0
0
0
0
0
0
0
0
0
0
0
0
0
0
0
0
0
0
0
0
0
0
0
0
0
0
0
0
0
0
0
0
0
0
0
0
0
0
0
0
0
0
0
0
0
0
0
0
0
0
0
0
0
0
0
0
0
0
0
0
0
0
0
0
0
0
0
0
0
0
0
0
0
0
0
0
0
0
0
0
0
0
0
0
0
0
0
0
0
0
0
0
0
0
0
0
0
0
0
0
0
0
0
0
0
0
0
0
0
0
0
0
0
3.10435e-08
8.58827e-08
1.33371e-07
1.71015e-07
1.9888e-07
2.17369e-07
2.27717e-07
2.30756e-07
2.26798e-07
2.16808e-07
2.01711e-07
1.83305e-07
1.62741e-07
1.40861e-07
1.16926e-07
9.24139e-08
6.89413e-08
4.80011e-08
3.06541e-08
1.78449e-08
9.90655e-09
6.66708e-09
7.54075e-09
1.15679e-08
1.76049e-08
2.45259e-08
3.09951e-08
3.61685e-08
3.88966e-08
3.87864e-08
3.58908e-08
3.04846e-08
2.34532e-08
1.55902e-08
7.477e-09
0
0
0
0
0
0
0
0
0
0
0
0
0
0
0
0
0
0
0
3.09296e-09
2.16268e-08
3.75499e-08
5.02551e-08
5.94261e-08
6.48752e-08
6.77297e-08
6.71839e-08
6.06827e-08
4.93957e-08
3.5554e-08
2.0259e-08
4.67712e-09
0
0
0
0
0
0
0
0
0
0
0
0
0
0
0
0
0
0
0
0
0
0
0
0
0
0
0
0
0
0
0
0
0
0
0
0
0
0
0
0
0
0
0
0
0
0
0
0
0
0
0
0
0
0
0
0
0
0
0
0
0
0
0
0
0
0
0
0
0
0
0
0
0
0
0
0
0
0
0
0
0
0
0
0
0
0
0
0
0
0
0
0
0
0
0
0
0
0
0
0
0
0
0
0
0
0
0
0
0
0
0
0
0
0
0
0
0
0
0
0
0
0
0
0
0
0
0
0
0
0
0
0
0
0
0
0
0
0
0
0
0
0
0
0
0
0
0
0
0
4.53213e-08
1.46784e-07
2.25545e-07
2.81955e-07
3.18526e-07
3.36544e-07
3.41614e-07
3.38286e-07
3.26916e-07
3.13898e-07
3.01035e-07
2.82237e-07
2.6655e-07
2.50463e-07
2.31761e-07
2.14004e-07
1.952e-07
1.76481e-07
1.58871e-07
1.42299e-07
1.27283e-07
1.13672e-07
1.01379e-07
9.08212e-08
8.30407e-08
7.65011e-08
6.84233e-08
5.98612e-08
5.24564e-08
4.61069e-08
4.04747e-08
3.53954e-08
3.07387e-08
2.6313e-08
2.2057e-08
1.79958e-08
1.41122e-08
1.04021e-08
6.849e-09
3.4336e-09
1.89384e-10
0
0
0
0
0
0
0
0
0
0
0
0
0
0
0
0
0
0
0
0
0
0
0
0
0
0
0
0
0
0
0
0
0
0
0
0
0
0
0
0
0
0
0
0
0
1.66639e-15
8.68495e-15
1.24243e-14
1.42449e-14
1.47387e-14
1.42236e-14
1.2984e-14
1.13275e-14
9.53795e-15
7.8273e-15
6.31811e-15
5.05856e-15
4.04693e-15
3.25662e-15
2.65079e-15
2.19155e-15
1.84483e-15
1.58349e-15
1.38633e-15
1.23717e-15
1.12394e-15
1.03784e-15
9.71845e-16
9.21119e-16
8.81125e-16
8.49763e-16
8.22917e-16
8.0174e-16
7.80515e-16
7.64721e-16
7.43264e-16
7.29702e-16
7.01821e-16
6.8922e-16
6.46475e-16
6.365e-16
5.6419e-16
5.6725e-16
4.40814e-16
4.78117e-16
2.58281e-16
3.36158e-16
0
3.92313e-17
0
0
0
0
8.29161e-15
0
1.12242e-13
0
0
0
0
0
0
0
0
0
0
0
0
0
0
0
0
0
0
0
0
0
0
0
0
0
0
0
0
0
0
0
0
0
0
0
0
0
0
0
0
0
0
0
9.34467e-09
9.27649e-08
1.68271e-07
2.30409e-07
2.76837e-07
3.1106e-07
3.35963e-07
3.50688e-07
3.5579e-07
3.52387e-07
3.39962e-07
3.20585e-07
2.99943e-07
2.75898e-07
2.53827e-07
2.32574e-07
2.09426e-07
1.88399e-07
1.67595e-07
1.47624e-07
1.29184e-07
1.13329e-07
9.96674e-08
8.89661e-08
8.13776e-08
7.45287e-08
6.6232e-08
5.78089e-08
5.06317e-08
4.44804e-08
3.90351e-08
3.42032e-08
2.99357e-08
2.63202e-08
2.32679e-08
2.05918e-08
1.81574e-08
1.58335e-08
1.35933e-08
1.15033e-08
9.58444e-09
7.84099e-09
6.27457e-09
4.88179e-09
3.65629e-09
2.58915e-09
1.67019e-09
8.8824e-10
2.31779e-10
0
0
0
0
0
0
0
0
0
0
0
0
0
0
0
0
0
0
0
0
0
0
0
0
0
0
0
0
0
0
0
0
0
4.73351e-13
2.56017e-12
3.23683e-12
3.18959e-12
2.81344e-12
2.33229e-12
1.86032e-12
1.44857e-12
1.1124e-12
8.49113e-13
6.48001e-13
4.96567e-13
3.83127e-13
2.98052e-13
2.338e-13
1.84794e-13
1.46971e-13
1.17456e-13
9.42257e-14
7.58478e-14
6.12762e-14
4.9718e-14
4.05486e-14
3.32717e-14
2.75013e-14
2.29291e-14
1.9297e-14
1.64061e-14
1.40977e-14
1.22462e-14
1.07323e-14
9.48628e-15
8.43206e-15
7.53637e-15
6.71653e-15
5.97254e-15
5.22752e-15
4.50323e-15
3.71856e-15
2.86985e-15
1.9375e-15
7.64433e-16
0
0
0
0
0
0
0
0
6.18273e-14
0
2.11525e-12
0
1.3238e-11
0
0
0
0
0
0
0
0
0
0
0
0
0
0
0
0
0
0
0
0
0
0
0
0
0
0
0
0
0
0
0
0
0
0
0
0
0
0
0
0
0
0
0
0
0
0
0
0
0
4.02085e-08
1.13301e-07
1.90808e-07
2.61975e-07
3.15077e-07
3.44265e-07
3.51941e-07
3.38964e-07
3.09752e-07
2.76412e-07
2.46133e-07
2.16261e-07
1.89894e-07
1.66587e-07
1.44561e-07
1.24239e-07
1.06958e-07
9.38947e-08
8.41643e-08
7.52107e-08
6.64865e-08
5.85522e-08
5.14856e-08
4.51528e-08
3.92966e-08
3.39983e-08
2.9327e-08
2.52297e-08
2.16572e-08
1.85578e-08
1.59352e-08
1.38201e-08
1.21088e-08
1.05976e-08
9.15299e-09
7.73398e-09
6.37292e-09
5.10906e-09
3.95745e-09
2.92504e-09
2.01448e-09
1.22281e-09
5.46092e-10
0
0
0
0
0
0
0
0
0
0
0
0
0
0
0
0
0
0
0
0
0
0
0
0
0
0
0
0
0
0
0
0
0
0
0
0
0
0
0
0
0
0
0
0
0
0
0
0
0
0
0
0
0
0
0
0
0
0
0
0
0
0
0
0
0
0
0
0
0
0
0
0
0
0
0
3.25973e-15
3.37233e-14
1.30061e-13
3.46711e-13
1.28056e-12
3.14106e-12
8.89343e-12
1.37004e-11
2.94904e-11
2.53827e-11
6.36872e-11
1.08765e-12
2.95373e-11
0
0
0
0
0
0
0
0
0
0
0
0
0
0
0
0
0
0
0
0
0
0
0
0
0
0
0
0
0
0
0
0
0
0
0
0
0
5.18725e-08
1.09915e-07
1.31718e-07
6.67404e-08
0
0
0
0
0
0
0
0
0
0
0
0
0
1.36547e-07
2.66162e-07
3.3292e-07
3.46231e-07
3.17199e-07
2.75231e-07
2.36084e-07
2.03944e-07
1.77567e-07
1.55783e-07
1.36586e-07
1.19636e-07
1.03694e-07
8.79067e-08
7.348e-08
6.20381e-08
5.40835e-08
4.88379e-08
4.46284e-08
4.0231e-08
3.53546e-08
3.058e-08
2.59125e-08
2.1686e-08
1.80677e-08
1.50535e-08
1.25357e-08
1.04243e-08
8.68169e-09
7.30554e-09
6.21926e-09
5.27287e-09
4.3614e-09
3.46577e-09
2.61399e-09
1.83107e-09
1.12737e-09
5.09659e-10
0
0
0
0
0
0
0
0
0
0
0
0
0
0
0
0
0
0
0
0
0
0
0
0
0
0
0
0
0
0
0
0
0
0
0
0
0
0
0
0
0
0
0
0
0
0
0
0
0
0
0
0
0
0
0
0
0
0
0
0
0
0
0
0
0
0
0
0
0
0
1.28688e-13
2.77886e-13
3.9427e-13
5.34377e-13
6.85208e-13
9.68739e-13
1.33464e-12
2.09711e-12
3.02932e-12
5.05584e-12
7.05898e-12
1.18221e-11
1.42407e-11
2.43368e-11
1.85707e-11
3.32327e-11
0
0
0
0
0
0
0
0
0
0
0
0
0
0
0
0
0
0
0
0
0
0
0
0
0
0
0
0
0
0
0
0
0
0
0
0
0
0
0
0
0
0
0
0
0
0
0
0
0
0
0
0
0
0
0
0
0
0
1.37972e-07
2.8381e-07
3.24653e-07
2.99046e-07
2.5019e-07
2.07577e-07
1.7695e-07
1.56967e-07
1.42375e-07
1.29316e-07
1.14499e-07
9.73242e-08
7.95918e-08
6.37132e-08
5.0915e-08
4.15623e-08
3.59508e-08
3.35572e-08
3.26735e-08
3.10928e-08
2.80878e-08
2.43089e-08
2.01634e-08
1.62866e-08
1.30227e-08
1.04272e-08
8.38637e-09
6.74661e-09
5.41058e-09
4.34818e-09
3.52096e-09
2.85394e-09
2.24992e-09
1.66574e-09
1.10173e-09
5.76655e-10
1.03827e-10
0
0
0
0
0
0
0
0
0
0
0
0
0
0
0
0
0
0
0
0
0
0
0
0
0
0
0
0
0
0
0
0
0
0
0
0
0
0
0
0
0
0
0
0
0
0
0
0
0
0
0
0
0
0
0
0
0
0
0
0
0
0
0
0
0
0
0
0
0
4.03522e-14
1.72902e-13
2.78497e-13
3.97395e-13
5.20375e-13
7.35235e-13
1.00737e-12
1.54863e-12
2.20577e-12
3.54398e-12
4.83546e-12
7.59814e-12
8.77596e-12
1.40256e-11
9.01715e-12
1.02758e-11
0
0
0
0
0
0
0
0
0
0
0
0
0
0
0
0
0
0
0
0
0
0
0
0
0
0
0
0
0
0
0
0
0
0
0
0
0
0
0
0
0
0
0
1.37117e-07
4.01145e-07
7.63126e-07
1.13502e-06
1.37599e-06
1.31148e-06
1.11015e-06
8.18843e-07
3.80902e-07
0
0
0
0
0
0
0
3.23738e-08
2.3277e-07
2.83049e-07
2.53993e-07
2.07795e-07
1.70483e-07
1.46684e-07
1.32313e-07
1.21459e-07
1.10613e-07
9.94145e-08
8.72335e-08
7.32792e-08
5.80217e-08
4.38307e-08
3.24397e-08
2.46965e-08
2.10048e-08
2.09916e-08
2.28363e-08
2.35615e-08
2.20332e-08
1.89537e-08
1.52636e-08
1.18281e-08
9.03527e-09
6.91169e-09
5.32476e-09
4.11021e-09
3.15089e-09
2.39055e-09
1.79675e-09
1.31872e-09
9.05891e-10
5.21498e-10
1.54857e-10
0
0
0
0
0
0
0
0
0
0
0
0
0
0
0
0
0
0
0
0
0
0
0
0
0
0
0
0
0
0
0
0
0
0
0
0
0
0
0
0
0
0
0
0
0
0
0
0
0
0
0
0
0
0
0
0
0
0
0
0
0
0
0
0
0
0
0
0
0
0
8.72622e-14
1.77013e-13
2.70756e-13
3.61707e-13
5.06371e-13
6.83415e-13
1.01623e-12
1.41213e-12
2.15853e-12
2.83585e-12
4.18452e-12
4.38152e-12
5.24522e-12
2.59182e-12
1.9979e-13
0
0
0
0
0
0
0
0
0
0
0
0
0
0
0
0
0
0
0
0
0
0
0
0
0
0
0
0
0
0
0
0
0
0
0
0
0
0
0
1.39414e-07
9.87088e-07
1.8406e-06
2.00315e-06
9.74022e-07
0
0
0
8.29563e-07
1.39624e-06
1.73616e-06
1.77289e-06
1.56881e-06
1.20371e-06
6.71076e-07
0
0
0
0
0
0
0
1.82485e-07
2.20911e-07
1.97252e-07
1.65391e-07
1.39359e-07
1.19063e-07
1.03463e-07
9.27641e-08
8.53765e-08
7.94447e-08
7.32095e-08
6.50321e-08
5.35354e-08
3.99303e-08
2.70663e-08
1.71438e-08
1.13103e-08
9.89199e-09
1.24487e-08
1.64882e-08
1.8386e-08
1.73053e-08
1.44226e-08
1.11072e-08
8.20422e-09
5.97383e-09
4.35944e-09
3.20335e-09
2.35261e-09
1.70011e-09
1.19209e-09
7.95214e-10
4.71223e-10
1.92451e-10
0
0
0
0
0
0
0
0
0
0
0
0
0
0
0
0
0
0
0
0
0
0
0
0
0
0
0
0
0
0
0
0
0
0
0
0
0
0
0
0
0
0
0
0
0
0
0
0
0
0
0
0
0
0
0
0
0
0
0
0
0
0
0
0
0
0
0
0
0
0
1.32928e-14
8.81972e-14
1.59578e-13
2.22672e-13
3.10539e-13
4.10113e-13
5.83694e-13
7.77355e-13
1.109e-12
1.35474e-12
1.86732e-12
1.5428e-12
1.32637e-12
0
0
0
0
0
0
0
0
0
0
0
0
0
0
0
0
0
0
0
0
0
0
0
0
0
0
0
0
0
0
0
0
0
0
0
0
0
0
0
0
8.13657e-07
2.79357e-06
6.05658e-06
1.03242e-05
1.20145e-05
1.49288e-06
0
0
0
0
0
7.83201e-08
6.87669e-07
9.21191e-07
1.02487e-06
1.0433e-06
8.73992e-07
3.58612e-07
0
0
0
0
0
0
1.32587e-07
1.53929e-07
1.39861e-07
1.22035e-07
1.05643e-07
9.18131e-08
8.11018e-08
7.22518e-08
6.47952e-08
5.91842e-08
5.57281e-08
5.28705e-08
4.72634e-08
3.71931e-08
2.43875e-08
1.25744e-08
4.61331e-09
1.34553e-09
2.8086e-09
8.03883e-09
1.31452e-08
1.46891e-08
1.31765e-08
1.03339e-08
7.50846e-09
5.25568e-09
3.6361e-09
2.52074e-09
1.75075e-09
1.19861e-09
7.84145e-10
4.67421e-10
2.18568e-10
1.4034e-11
0
0
0
0
0
0
0
0
0
0
0
0
0
0
0
0
0
0
0
0
0
0
0
0
0
0
0
0
0
0
0
0
0
0
0
0
0
0
0
0
0
0
0
0
0
0
0
0
0
0
0
0
0
0
0
0
0
0
0
0
0
0
0
0
0
0
0
0
0
0
7.77293e-15
6.20421e-14
1.03779e-13
1.50795e-13
1.94101e-13
2.62038e-13
3.19305e-13
4.07007e-13
4.09945e-13
4.05256e-13
8.76185e-14
0
0
0
0
0
0
0
0
0
0
0
0
0
0
0
0
0
0
0
0
0
0
0
0
0
0
0
0
0
0
0
0
0
0
0
0
0
0
0
0
7.35961e-07
2.88815e-06
7.07774e-06
1.43199e-05
2.49461e-05
3.2362e-05
0
0
0
0
0
0
0
1.21753e-07
3.89849e-07
3.02808e-07
3.44346e-07
5.73957e-07
6.78685e-07
3.85119e-07
0
0
0
0
0
3.91812e-08
1.05618e-07
1.02258e-07
8.80494e-08
7.80707e-08
7.25702e-08
6.91114e-08
6.52312e-08
5.95934e-08
5.20311e-08
4.44684e-08
3.98655e-08
3.90279e-08
3.85812e-08
3.38623e-08
2.33767e-08
1.06332e-08
6.60101e-10
0
0
5.2995e-10
7.48207e-09
1.15375e-08
1.1595e-08
9.44261e-09
6.846e-09
4.66162e-09
3.07981e-09
2.01366e-09
1.31155e-09
8.39752e-10
5.06067e-10
2.59745e-10
7.27556e-11
0
0
0
0
0
0
0
0
0
0
0
0
0
0
0
0
0
0
0
0
0
0
0
0
0
0
0
0
0
0
0
0
0
0
0
0
0
0
0
0
0
0
0
0
0
0
0
0
0
0
0
0
0
0
0
0
0
0
0
0
0
0
0
0
0
0
0
0
0
0
0
0
8.72507e-15
3.23806e-14
4.48861e-14
5.68885e-14
5.09101e-14
4.06002e-14
0
0
0
0
0
0
0
0
0
2.79915e-10
1.12343e-09
2.09412e-09
9.07405e-10
0
0
0
0
0
0
0
0
0
0
0
0
0
0
0
0
0
0
0
0
0
0
0
0
0
0
0
0
0
1.34939e-07
1.08811e-06
3.00992e-06
5.87483e-06
8.63196e-06
7.87335e-06
0
0
0
0
0
0
0
0
0
2.86442e-07
2.76341e-07
2.95697e-08
1.0475e-07
4.1971e-07
5.2889e-07
1.97823e-07
0
0
0
0
0
8.67772e-08
8.06825e-08
6.41346e-08
5.44632e-08
4.95465e-08
4.77749e-08
4.90524e-08
5.09771e-08
4.99382e-08
4.41778e-08
3.57044e-08
2.88906e-08
2.70846e-08
2.90518e-08
2.91564e-08
2.24789e-08
1.02654e-08
0
0
0
0
2.57359e-09
8.46207e-09
9.925e-09
8.48519e-09
6.18904e-09
4.13845e-09
2.63525e-09
1.63303e-09
9.94491e-10
5.88833e-10
3.2026e-10
1.31718e-10
0
0
0
0
0
0
0
0
0
0
0
0
0
0
0
0
0
0
0
0
0
0
0
0
0
0
0
0
0
0
0
0
0
0
0
0
0
0
0
0
0
0
0
0
0
0
0
0
0
0
0
0
0
0
0
0
0
0
0
0
0
0
0
0
0
0
0
0
0
0
0
0
0
0
0
0
0
0
0
0
0
0
0
0
0
0
0
1.70802e-08
1.33144e-08
9.82665e-09
8.7271e-09
9.78216e-09
1.15455e-08
1.14152e-08
1.19801e-08
1.35827e-08
1.59747e-08
1.95945e-08
2.43466e-08
2.98901e-08
3.57457e-08
4.08886e-08
4.34487e-08
4.27704e-08
3.92368e-08
3.47681e-08
3.03835e-08
2.71714e-08
2.8109e-08
3.19584e-08
2.93122e-08
9.86698e-09
0
0
0
0
0
0
0
0
0
0
0
0
0
0
0
0
0
0
0
0
0
0
0
0
2.18467e-08
0
0
1.41333e-07
3.82301e-07
3.00629e-07
0
0
0
0
6.17681e-09
9.09539e-08
7.63418e-08
5.34495e-08
4.12746e-08
3.57244e-08
3.25078e-08
3.11841e-08
3.27408e-08
3.67225e-08
3.97586e-08
3.78661e-08
3.06392e-08
2.26014e-08
1.90009e-08
2.09838e-08
2.39534e-08
2.10392e-08
1.04454e-08
0
0
0
0
0
5.94192e-09
8.48785e-09
7.65896e-09
5.65448e-09
3.75182e-09
2.33637e-09
1.39481e-09
8.05724e-10
4.46673e-10
2.23759e-10
7.70943e-11
0
0
0
0
0
0
0
0
0
0
0
0
0
0
0
0
0
0
0
0
0
0
0
0
0
0
0
0
0
0
0
0
0
0
0
0
0
0
0
0
0
0
0
0
0
0
0
0
0
0
0
0
0
0
0
0
0
0
0
0
0
0
0
0
0
0
0
0
0
0
0
0
0
0
0
0
0
0
0
0
0
0
0
0
0
0
3.11567e-07
1.31029e-07
3.8023e-08
1.66012e-08
1.46245e-08
1.81195e-08
2.27559e-08
2.96812e-08
3.78496e-08
4.95348e-08
6.27571e-08
7.78424e-08
9.49296e-08
1.12604e-07
1.27898e-07
1.38386e-07
1.44088e-07
1.48202e-07
1.51591e-07
1.54874e-07
1.59951e-07
1.67957e-07
1.73842e-07
1.64834e-07
1.27604e-07
6.24985e-08
0
0
0
5.68674e-08
1.64963e-07
2.11696e-07
2.77431e-08
0
0
0
0
0
0
0
0
0
0
0
0
0
0
0
0
0
0
0
0
1.86788e-07
2.3164e-07
4.90096e-08
0
0
0
5.84951e-08
9.71534e-08
7.00199e-08
4.55686e-08
3.31369e-08
2.76174e-08
2.45137e-08
2.20077e-08
2.01133e-08
2.00791e-08
2.34465e-08
2.91483e-08
3.2067e-08
2.77038e-08
1.91431e-08
1.39883e-08
1.55583e-08
2.01915e-08
1.99342e-08
1.05361e-08
0
0
0
0
0
4.58358e-09
7.79494e-09
7.2969e-09
5.43653e-09
3.60523e-09
2.23149e-09
1.31663e-09
7.47259e-10
4.07165e-10
2.05792e-10
8.21444e-11
1.68976e-12
0
0
0
0
0
0
0
0
0
0
0
0
0
0
0
0
0
0
0
0
0
0
0
0
0
0
0
0
0
0
0
0
0
0
0
0
0
0
0
0
0
0
0
0
0
0
0
0
0
0
0
0
0
0
0
0
0
0
0
0
0
0
0
0
0
0
0
0
0
0
0
0
0
0
0
0
0
0
0
0
0
0
0
0
2.23747e-06
5.55657e-07
1.28779e-07
3.93877e-08
1.91618e-08
1.73785e-08
2.69406e-08
3.88515e-08
5.64511e-08
7.50291e-08
9.64512e-08
1.22245e-07
1.4915e-07
1.76981e-07
2.06256e-07
2.2581e-07
2.4157e-07
2.55981e-07
2.65261e-07
2.74621e-07
2.87346e-07
3.02727e-07
3.14908e-07
3.0703e-07
2.62155e-07
1.81039e-07
8.41788e-08
2.31483e-08
5.8519e-08
2.16691e-07
4.81619e-07
7.40564e-07
7.12425e-07
1.84972e-07
0
0
0
0
0
0
0
0
0
1.06152e-05
9.626e-06
5.85254e-06
2.91289e-06
1.10766e-06
2.41041e-07
0
0
0
0
7.59714e-08
1.55955e-07
2.59549e-07
2.46261e-07
0
0
1.53525e-07
1.04704e-07
5.56676e-08
3.27624e-08
2.42445e-08
2.09999e-08
1.95172e-08
1.85696e-08
1.70258e-08
1.43677e-08
1.20525e-08
1.3567e-08
2.03434e-08
2.64658e-08
2.42063e-08
1.58298e-08
1.11151e-08
1.3878e-08
1.93752e-08
1.89966e-08
8.55909e-09
0
0
0
0
0
5.23046e-09
7.76951e-09
6.88049e-09
4.92024e-09
3.1466e-09
1.8769e-09
1.0594e-09
5.65588e-10
2.80821e-10
1.20845e-10
2.97255e-11
0
0
0
0
0
0
0
0
0
0
0
0
0
0
0
0
0
0
0
0
0
0
0
0
0
0
0
0
0
0
0
0
0
0
0
0
0
0
0
0
0
0
0
0
0
0
0
0
0
0
0
0
0
0
0
0
0
0
0
0
0
0
0
0
0
0
0
0
0
0
0
0
0
0
0
0
0
0
0
0
0
0
0
0
3.83819e-06
1.035e-06
3.18186e-07
1.0325e-07
3.46521e-08
1.19089e-08
2.18227e-08
4.03633e-08
5.53643e-08
7.63996e-08
1.03738e-07
1.28669e-07
1.60944e-07
1.95474e-07
2.28316e-07
2.57531e-07
2.80295e-07
2.98646e-07
3.17954e-07
3.36559e-07
3.53603e-07
3.69268e-07
3.85619e-07
3.87859e-07
3.58644e-07
2.88474e-07
1.92205e-07
1.09989e-07
1.05924e-07
2.35756e-07
5.04333e-07
8.87465e-07
1.20569e-06
1.12877e-06
5.67635e-07
0
0
0
0
0
0
0
2.82194e-05
2.51976e-05
1.38181e-05
6.64532e-06
2.68682e-06
8.55244e-07
1.18958e-07
0
0
0
0
4.11431e-08
1.64238e-07
6.34757e-07
4.08105e-07
0
6.03512e-08
2.19183e-07
9.3249e-08
3.33681e-08
1.44543e-08
1.09953e-08
1.11774e-08
1.18115e-08
1.31065e-08
1.41562e-08
1.33208e-08
1.01165e-08
6.45755e-09
6.11335e-09
1.12869e-08
1.70785e-08
1.57309e-08
9.80198e-09
8.31976e-09
1.2755e-08
1.71581e-08
1.42761e-08
3.00158e-09
0
0
0
0
0
3.88791e-09
4.80778e-09
3.69352e-09
2.24556e-09
1.15927e-09
4.94604e-10
1.33129e-10
0
0
0
0
0
0
0
0
0
0
0
0
0
0
0
0
0
0
0
0
0
0
0
0
0
0
0
0
0
0
0
0
0
0
0
0
0
0
0
0
0
0
0
0
0
0
0
0
0
0
0
0
0
0
0
0
0
0
0
0
0
0
0
0
0
0
0
0
0
0
0
0
0
0
0
0
0
0
0
0
0
0
0
0
0
0
0
4.17961e-06
2.34163e-06
1.01729e-06
3.1378e-07
8.61961e-08
2.01739e-08
1.85266e-08
5.11245e-08
5.81116e-08
6.61719e-08
8.42103e-08
1.11722e-07
1.43485e-07
1.71603e-07
2.08622e-07
2.42172e-07
2.70477e-07
2.90008e-07
3.11407e-07
3.32589e-07
3.5461e-07
3.75764e-07
3.95402e-07
4.11597e-07
3.99369e-07
3.53855e-07
2.83229e-07
1.97114e-07
1.40434e-07
1.69924e-07
3.19168e-07
5.81037e-07
9.60653e-07
1.14804e-06
1.17841e-06
8.445e-07
0
0
0
0
0
0
6.17078e-06
7.04351e-06
4.48025e-06
2.12445e-06
7.61064e-07
1.24719e-07
0
0
0
0
0
8.27211e-08
3.67836e-07
1.08501e-06
2.00433e-07
0
2.88803e-07
2.23941e-07
7.34233e-08
2.0031e-08
5.91594e-09
5.06825e-09
6.67608e-09
7.88895e-09
9.6864e-09
1.19478e-08
1.30933e-08
1.17537e-08
8.21028e-09
4.62384e-09
3.27748e-09
5.83097e-09
9.61946e-09
8.84365e-09
6.12557e-09
7.43333e-09
1.15015e-08
1.33319e-08
8.14263e-09
0
0
0
0
0
0
0
0
0
0
0
0
0
0
0
0
0
0
0
0
0
0
0
0
0
0
0
0
0
0
0
0
0
0
0
0
0
0
0
0
0
0
0
0
0
0
0
0
0
0
0
0
0
0
0
0
0
0
0
0
0
0
0
0
0
0
0
0
0
0
0
0
0
0
0
0
0
0
0
0
0
0
0
0
0
0
0
0
0
0
0
0
0
0
0
0
0
0
0
1.2079e-06
3.45378e-06
1.72893e-06
7.25179e-07
2.14362e-07
7.24267e-08
6.54271e-08
6.36849e-08
3.6325e-08
5.09396e-08
6.00898e-08
7.49658e-08
1.01496e-07
1.31597e-07
1.52019e-07
1.86859e-07
2.19363e-07
2.39119e-07
2.59205e-07
2.79757e-07
2.99382e-07
3.1861e-07
3.36789e-07
3.56328e-07
3.65686e-07
3.50225e-07
3.0613e-07
2.42983e-07
1.71643e-07
1.25454e-07
1.42486e-07
2.38802e-07
4.29449e-07
6.05556e-07
7.6885e-07
8.40839e-07
6.55481e-07
3.50773e-07
0
0
0
1.99564e-07
9.64654e-07
1.14894e-06
7.6569e-07
2.91776e-07
6.03027e-09
0
0
0
0
5.12348e-08
1.09212e-07
2.51759e-07
9.15694e-07
6.44664e-07
1.70619e-07
1.80175e-07
3.82881e-07
1.62271e-07
5.22191e-08
1.94985e-08
1.16995e-08
1.20678e-08
1.32499e-08
1.324e-08
1.3367e-08
1.42399e-08
1.51325e-08
1.48838e-08
1.283e-08
1.01172e-08
8.1498e-09
6.54773e-09
7.02793e-09
8.38912e-09
7.09047e-09
6.41709e-09
8.31608e-09
1.01527e-08
9.29141e-09
3.18736e-09
0
0
0
0
0
0
0
0
0
0
0
0
0
0
0
0
0
0
0
0
0
0
0
0
0
0
0
0
0
0
0
0
0
0
0
0
0
0
0
0
0
0
0
0
0
0
0
0
0
0
0
0
0
0
0
0
0
0
0
0
0
0
0
0
0
0
0
0
0
0
0
0
0
0
0
0
0
0
0
0
0
0
0
0
0
0
0
0
0
0
0
0
0
0
0
0
0
0
5.57163e-07
2.20768e-06
1.67843e-06
6.32069e-07
2.59286e-07
8.24489e-08
4.63682e-08
0
0
2.83165e-08
3.98308e-08
4.72424e-08
5.9444e-08
8.1089e-08
1.00945e-07
1.16797e-07
1.43162e-07
1.6541e-07
1.81959e-07
1.99029e-07
2.14059e-07
2.29364e-07
2.42965e-07
2.59451e-07
2.7239e-07
2.70809e-07
2.55164e-07
2.1887e-07
1.6761e-07
1.11066e-07
6.81712e-08
5.91301e-08
9.60697e-08
1.61708e-07
2.43291e-07
3.17915e-07
3.13776e-07
2.74167e-07
1.76091e-07
5.37408e-08
0
0
1.36147e-08
2.19826e-08
0
0
0
0
2.03611e-08
5.45376e-08
1.07505e-07
1.65196e-07
2.56019e-07
6.92527e-07
9.43803e-07
3.7637e-07
2.33515e-07
3.6528e-07
3.10161e-07
1.08066e-07
4.80726e-08
3.00982e-08
2.56288e-08
2.54949e-08
2.48481e-08
2.26056e-08
2.04093e-08
1.91858e-08
1.87148e-08
1.83608e-08
1.73892e-08
1.58958e-08
1.54313e-08
1.49645e-08
1.26316e-08
1.14289e-08
1.02759e-08
8.5575e-09
8.7794e-09
8.92851e-09
8.30277e-09
5.90385e-09
9.28351e-10
0
1.69091e-09
3.92751e-09
2.47563e-09
0
0
0
0
0
0
0
0
0
0
0
0
0
0
0
0
0
0
0
0
0
0
0
0
0
0
0
0
0
0
0
0
0
0
0
0
0
0
0
0
0
0
0
0
0
0
0
0
0
0
0
0
0
0
0
0
0
0
0
0
0
0
0
0
0
0
0
0
0
0
0
0
0
0
0
0
0
0
0
0
0
0
0
0
0
0
0
0
0
0
0
0
0
1.21801e-07
8.151e-07
9.34138e-07
0
0
0
0
0
0
1.05201e-08
1.93759e-08
2.54224e-08
3.05928e-08
3.85157e-08
5.15383e-08
6.16e-08
7.42017e-08
8.55281e-08
9.65187e-08
1.10097e-07
1.19629e-07
1.29295e-07
1.37123e-07
1.47775e-07
1.57531e-07
1.6061e-07
1.55643e-07
1.3887e-07
1.11006e-07
7.43453e-08
3.35363e-08
0
0
0
0
0
1.31689e-09
0
0
0
0
0
0
0
0
0
6.23026e-08
1.23752e-07
1.45991e-07
1.65589e-07
2.17771e-07
3.03221e-07
5.90749e-07
9.4521e-07
4.98219e-07
3.24098e-07
3.29537e-07
4.48251e-07
1.84133e-07
8.61927e-08
5.73768e-08
4.72113e-08
4.37049e-08
4.19579e-08
3.89468e-08
3.44164e-08
3.0177e-08
2.72885e-08
2.53751e-08
2.3921e-08
2.27916e-08
2.18498e-08
2.19332e-08
2.34235e-08
2.22967e-08
1.86655e-08
1.5823e-08
1.30213e-08
1.17734e-08
1.09854e-08
8.5688e-09
7.0914e-09
4.74142e-09
3.01964e-09
5.89964e-09
9.69184e-09
9.41851e-09
4.12836e-09
0
0
0
0
0
0
0
0
0
0
0
0
0
0
0
0
0
0
0
0
0
0
0
0
0
0
0
0
0
0
0
0
0
0
0
0
0
0
0
0
0
0
0
0
0
0
0
0
0
0
0
0
0
0
0
0
0
0
0
0
0
0
0
0
0
0
0
0
0
0
0
0
0
0
0
0
0
0
0
0
0
0
0
0
0
0
0
0
0
0
0
0
0
0
0
0
0
0
0
0
0
3.01707e-09
7.37626e-09
9.42101e-09
1.11749e-08
1.29568e-08
1.56921e-08
1.99335e-08
2.38294e-08
2.76101e-08
2.93065e-08
3.14879e-08
3.37491e-08
3.65111e-08
3.90988e-08
4.17704e-08
4.44865e-08
4.54903e-08
4.24359e-08
3.37136e-08
1.87754e-08
0
0
0
0
0
0
0
0
0
0
0
0
0
0
0
3.72508e-08
1.25583e-07
2.00045e-07
2.32221e-07
2.31886e-07
2.49444e-07
3.38452e-07
5.9571e-07
8.66881e-07
5.2234e-07
3.91456e-07
3.6444e-07
4.74128e-07
2.78065e-07
1.23811e-07
8.44111e-08
7.11853e-08
6.47168e-08
6.10868e-08
5.74613e-08
5.2252e-08
4.62487e-08
4.14111e-08
3.83625e-08
3.59576e-08
3.32632e-08
3.06874e-08
2.88885e-08
2.8381e-08
3.01379e-08
3.11405e-08
2.78436e-08
2.33541e-08
1.9114e-08
1.62899e-08
1.50453e-08
1.16551e-08
8.8524e-09
7.9226e-09
7.24784e-09
1.01152e-08
1.51492e-08
1.64934e-08
1.18343e-08
2.37665e-09
0
0
0
0
0
0
0
0
0
0
0
0
0
0
0
0
0
0
0
0
0
0
0
0
0
0
0
0
0
0
0
0
0
0
0
0
0
0
0
0
0
0
0
0
0
0
0
0
0
0
0
0
0
0
0
0
0
0
0
0
0
0
0
0
0
0
0
0
0
0
0
0
0
0
0
0
0
0
0
0
0
0
0
0
0
0
0
0
0
0
0
0
0
0
0
0
6.83476e-08
2.94819e-08
0
0
0
0
0
0
0
0
0
0
0
0
0
0
0
0
0
0
0
0
0
0
0
0
0
0
0
0
0
0
0
0
0
0
0
0
6.57337e-08
1.448e-07
2.18823e-07
2.66275e-07
2.77784e-07
2.74637e-07
3.48918e-07
5.93691e-07
6.96515e-07
4.50762e-07
3.75134e-07
3.62615e-07
4.06282e-07
3.77817e-07
1.70002e-07
1.141e-07
9.65123e-08
8.93857e-08
8.30292e-08
7.64707e-08
7.05473e-08
6.3808e-08
5.67124e-08
5.19363e-08
5.0131e-08
4.85448e-08
4.52195e-08
4.09239e-08
3.71752e-08
3.49597e-08
3.55463e-08
3.75778e-08
3.58513e-08
3.10872e-08
2.59728e-08
2.15441e-08
1.95956e-08
1.65264e-08
1.24639e-08
1.14343e-08
1.17461e-08
1.46473e-08
2.03767e-08
2.30518e-08
1.96343e-08
9.75331e-09
0
0
0
0
0
0
0
0
0
0
0
0
0
0
0
0
0
0
0
0
0
0
0
0
0
0
0
0
0
0
0
0
0
0
0
0
0
0
0
0
0
0
0
0
0
0
0
0
0
0
0
0
0
0
0
0
0
0
0
0
0
0
0
0
0
0
0
0
0
0
0
0
0
0
0
0
0
0
0
0
0
0
0
0
0
0
0
0
0
0
0
0
0
0
0
6.84377e-08
8.95446e-08
0
0
0
0
0
0
0
0
0
0
0
0
0
0
0
0
0
0
0
0
0
0
0
0
0
0
0
0
0
0
0
0
0
0
0
0
5.93125e-08
1.32039e-07
2.00453e-07
2.56277e-07
2.84184e-07
2.92719e-07
3.39689e-07
5.22998e-07
4.35894e-07
3.25563e-07
3.10709e-07
3.19679e-07
3.45797e-07
4.57179e-07
2.35617e-07
1.4807e-07
1.18444e-07
1.09189e-07
1.04414e-07
9.55632e-08
8.53861e-08
7.73874e-08
7.09485e-08
6.52757e-08
6.21735e-08
6.21864e-08
6.1975e-08
5.86157e-08
5.24683e-08
4.60996e-08
4.11634e-08
3.96223e-08
4.15039e-08
4.16394e-08
3.75452e-08
3.23762e-08
2.71029e-08
2.41732e-08
2.17994e-08
1.75686e-08
1.58409e-08
1.65931e-08
1.95699e-08
2.55688e-08
2.90002e-08
2.65009e-08
1.75112e-08
3.41218e-09
0
0
0
0
0
0
0
0
0
0
0
0
0
0
0
0
0
0
0
0
0
0
0
0
0
0
0
0
0
0
0
0
0
0
0
0
0
0
0
0
0
0
0
0
0
0
0
0
0
0
0
0
0
0
0
0
0
0
0
0
0
0
0
0
0
0
0
0
0
0
0
0
0
0
0
0
0
0
0
0
0
0
0
0
0
0
0
0
0
0
0
5.7288e-08
9.21085e-08
0
0
0
0
0
0
0
0
0
0
0
0
0
0
0
0
0
0
0
0
0
0
0
0
0
0
0
0
0
0
0
0
0
0
0
0
0
0
0
7.81871e-08
1.51509e-07
2.10782e-07
2.46424e-07
2.5711e-07
3.01096e-07
2.84928e-07
2.12647e-07
2.04321e-07
2.30403e-07
2.53345e-07
2.64722e-07
4.11746e-07
2.85318e-07
1.77403e-07
1.3845e-07
1.26472e-07
1.23861e-07
1.18409e-07
1.06785e-07
9.42656e-08
8.53863e-08
7.84338e-08
7.34443e-08
7.21205e-08
7.39214e-08
7.49284e-08
7.22601e-08
6.48193e-08
5.5313e-08
4.68266e-08
4.2253e-08
4.3052e-08
4.49157e-08
4.24507e-08
3.76651e-08
3.25066e-08
2.87811e-08
2.69391e-08
2.34086e-08
2.11307e-08
2.18453e-08
2.47911e-08
3.07803e-08
3.44418e-08
3.20711e-08
2.42456e-08
1.01043e-08
0
0
0
0
0
0
0
0
0
0
0
0
0
0
0
0
0
0
0
0
0
0
0
0
0
0
0
0
0
0
0
0
0
0
0
0
0
0
0
0
0
0
0
0
0
0
0
0
0
0
0
0
0
0
0
0
0
0
0
0
0
0
0
0
0
0
0
0
0
0
0
0
0
0
0
0
0
0
0
0
0
0
0
0
0
0
0
0
0
0
1.65776e-07
1.30292e-07
4.60752e-08
0
0
0
0
0
0
0
0
0
0
0
0
0
0
0
0
0
0
0
0
0
0
0
0
0
0
0
0
0
0
0
0
0
0
0
0
0
0
1.65894e-08
8.86053e-08
1.45035e-07
1.77397e-07
2.24048e-07
2.3581e-07
1.56973e-07
1.23234e-07
1.30364e-07
1.58727e-07
1.85042e-07
1.94564e-07
3.14018e-07
3.11341e-07
2.12107e-07
1.6237e-07
1.40661e-07
1.35559e-07
1.32552e-07
1.23706e-07
1.08219e-07
9.68785e-08
9.0254e-08
8.54994e-08
8.2195e-08
8.19444e-08
8.45222e-08
8.59361e-08
8.34675e-08
7.58272e-08
6.37073e-08
5.15512e-08
4.34168e-08
4.23923e-08
4.54231e-08
4.5277e-08
4.1517e-08
3.69599e-08
3.29488e-08
3.13862e-08
2.89207e-08
2.65263e-08
2.69809e-08
2.97566e-08
3.5339e-08
3.88053e-08
3.573e-08
2.84032e-08
1.59725e-08
0
0
0
0
0
0
0
0
0
0
0
0
0
0
0
0
0
0
0
0
0
0
0
0
0
0
0
0
0
0
0
0
0
0
0
0
0
0
0
0
0
0
0
0
0
0
0
0
0
0
0
0
0
0
0
0
0
0
0
0
0
0
0
0
0
0
0
0
0
0
0
0
0
0
0
0
0
0
0
0
0
0
0
0
0
0
0
0
0
0
7.51305e-08
7.42009e-08
3.08299e-08
0
0
0
0
0
0
0
0
0
0
0
0
0
0
0
0
0
0
0
0
0
0
0
0
0
0
0
0
0
0
0
0
0
0
0
0
0
0
0
3.32352e-08
1.20094e-07
1.88083e-07
1.69852e-07
1.36179e-07
1.09978e-07
1.01742e-07
1.11121e-07
1.28309e-07
1.37658e-07
2.32946e-07
2.86687e-07
2.07607e-07
1.71194e-07
1.44101e-07
1.3528e-07
1.34871e-07
1.32019e-07
1.22638e-07
1.0868e-07
9.94577e-08
9.40876e-08
8.94161e-08
8.67376e-08
8.71957e-08
9.02266e-08
9.18245e-08
8.97643e-08
8.23798e-08
6.88442e-08
5.39327e-08
4.26007e-08
3.95263e-08
4.26802e-08
4.48833e-08
4.27762e-08
3.91721e-08
3.54468e-08
3.39027e-08
3.24909e-08
3.04587e-08
3.07061e-08
3.30534e-08
3.75626e-08
4.02532e-08
3.59749e-08
2.81822e-08
1.82096e-08
3.53115e-09
0
0
0
0
0
0
0
0
0
0
0
0
0
0
0
0
0
0
0
0
0
0
0
0
0
0
0
0
0
0
0
0
0
0
0
0
0
0
0
0
0
0
0
0
0
0
0
0
0
0
0
0
0
0
0
0
0
0
0
0
0
0
0
0
0
0
0
0
0
0
0
0
0
0
0
0
0
0
0
0
0
0
0
0
0
0
0
0
0
7.67898e-09
2.03053e-08
1.61945e-08
4.31147e-09
0
0
0
0
0
0
0
0
0
0
0
0
0
0
0
0
0
0
0
0
0
0
0
0
0
0
0
0
0
0
0
0
0
0
0
0
0
0
2.16416e-08
7.73613e-08
1.04039e-07
1.0944e-07
1.0393e-07
9.4469e-08
8.93249e-08
8.58793e-08