/*--------------------------------*- C++ -*----------------------------------*\
  =========                 |
  \\      /  F ield         | OpenFOAM: The Open Source CFD Toolbox
   \\    /   O peration     | Website:  https://openfoam.org
    \\  /    A nd           | Version:  7
     \\/     M anipulation  |
\*---------------------------------------------------------------------------*/
FoamFile
{
    version     2.0;
    format      ascii;
    class       volScalarField;
    location    "0.024";
    object      p;
}
// * * * * * * * * * * * * * * * * * * * * * * * * * * * * * * * * * * * * * //

dimensions      [0 2 -2 0 0 0 0];

internalField   nonuniform List<scalar> 
12225
(
125.292
117.725
112.159
107.922
104.653
102.06
99.9378
98.1467
96.5892
95.2089
93.9801
92.8846
91.8983
90.9926
90.1326
89.2915
88.4309
87.497
125.551
117.629
112.085
107.88
104.621
102.033
99.9155
98.129
96.5763
95.1999
93.9743
92.8821
91.8987
90.9944
90.1363
89.2982
88.4483
87.5464
125.34
117.354
111.911
107.777
104.546
101.974
99.8702
98.0952
96.5534
95.1884
93.973
92.886
91.9037
90.9984
90.1414
89.307
88.4713
87.6089
124.651
116.968
111.66
107.619
104.434
101.888
99.8032
98.0446
96.5188
95.1685
93.9635
92.8826
91.9033
90.9995
90.1457
89.3181
88.5004
87.6845
123.575
116.397
111.296
107.379
104.265
101.76
99.7036
97.9685
96.4632
95.1303
93.9389
92.8678
91.8952
90.9967
90.149
89.3329
88.5382
87.7666
121.594
115.635
110.814
107.052
104.034
101.589
99.5722
97.8679
96.3886
95.0781
93.9046
92.8467
91.8834
90.9925
90.1539
89.3527
88.5827
87.8495
120.239
114.759
110.211
106.628
103.732
101.364
99.3999
97.7347
96.2878
95.0043
93.8523
92.811
91.8607
90.9815
90.1561
89.3729
88.6284
87.9282
119.464
113.753
109.473
106.103
103.352
101.081
99.1826
97.5659
96.1585
94.9084
93.7834
92.7631
91.8296
90.9655
90.1561
89.3925
88.6726
88.0002
117.972
112.525
108.593
105.454
102.874
100.727
98.9142
97.3595
96.0001
94.7889
93.6951
92.6995
91.7865
90.9411
90.1511
89.409
88.7131
88.065
115.492
111.03
107.55
104.697
102.315
100.305
98.5891
97.105
95.8018
94.6373
93.5819
92.6173
91.7298
90.9067
90.1383
89.4185
88.7454
88.1194
112.021
109.3
106.356
103.804
101.639
99.7941
98.1995
96.8061
95.571
94.4592
93.446
92.5158
91.6572
90.86
90.116
89.4201
88.7699
88.1645
109.625
107.648
105.115
102.872
100.936
99.2578
97.7854
96.4824
95.3176
94.2625
93.2961
92.4043
91.577
90.8063
90.086
89.412
88.7821
88.1948
108.659
106.035
103.808
101.859
100.153
98.6538
97.3196
96.122
95.0371
94.0432
93.1253
92.2733
91.4798
90.7384
90.0442
89.3937
88.7846
88.2151
106.389
103.968
102.13
100.554
99.1512
97.8845
96.7227
95.6549
94.671
93.7579
92.9048
92.1053
91.3548
90.6495
89.9863
89.3628
88.7773
88.2279
102.823
101.288
100.055
98.9402
97.9013
96.9139
95.9687
95.0672
94.2093
93.3924
92.6158
91.8792
91.1812
90.5205
89.8956
89.3051
88.7481
88.2227
99.1679
97.9593
97.4352
96.9433
96.368
95.7299
95.049
94.3447
93.6374
92.9406
92.2612
91.6027
90.9682
90.3598
89.7788
89.2256
88.7002
88.2016
91.4287
93.3107
94.2296
94.5971
94.5873
94.3576
93.9842
93.5093
92.9724
92.4062
91.8309
91.2578
90.6942
90.1456
89.6159
89.1069
88.6191
88.1529
85.8222
88.6955
90.9135
92.1784
92.7857
92.9705
92.8858
92.6251
92.2569
91.8281
91.3653
90.8837
90.3953
89.9096
89.4329
88.9689
88.5197
88.0867
76.0539
84.3078
88.3909
90.4475
91.4642
91.9039
92.0052
91.8909
91.6372
91.3012
90.918
90.5062
90.0789
89.6479
89.2206
88.8005
88.3903
87.992
83.0271
87.6327
89.9361
91.0914
91.6386
91.8284
91.807
91.6466
91.3879
91.0655
90.7054
90.3213
89.9226
89.5189
89.1174
88.7215
88.3332
87.9526
94.8854
92.8781
92.4193
92.3245
92.2459
92.1115
91.9108
91.6453
91.3246
90.9668
90.5888
90.1991
89.8034
89.408
89.0174
88.6346
88.2643
87.9027
100.957
96.1593
94.244
93.3897
92.8746
92.4808
92.1186
91.7552
91.3813
90.9929
90.5965
90.1971
89.7978
89.4015
89.0116
88.6312
88.2574
87.8974
101.501
97.1988
95.1655
94.0414
93.2998
92.7432
92.2691
91.8226
91.4016
90.98
90.5637
90.1537
89.7506
89.3585
88.9753
88.6008
88.2355
87.8829
98.3933
96.9687
95.5573
94.456
93.6386
93.0052
92.4808
91.9676
91.5207
91.0505
90.6085
90.1838
89.769
89.3675
88.9798
88.6043
88.2405
87.8886
96.141
96.7817
95.6792
94.6188
93.7752
93.09
92.5212
91.9878
91.4724
91.0334
90.5951
90.1713
89.7618
89.3612
88.9727
88.5964
88.233
87.8831
98.574
97.192
95.9509
94.8654
93.9987
93.284
92.6382
92.0963
91.5589
91.0692
90.6181
90.1883
89.7744
89.3713
88.9805
88.6026
88.2384
87.8885
98.366
97.3413
95.9427
94.8825
94.029
93.3308
92.6814
92.1068
91.5693
91.0775
90.6225
90.191
89.7759
89.3731
88.9818
88.6023
88.2364
87.8858
99.2894
97.7379
96.1255
94.9823
94.1254
93.391
92.7255
92.1333
91.591
91.095
90.6356
90.2016
89.7849
89.3806
88.9872
88.6059
88.2392
87.8888
101.174
97.9582
96.1269
95.0152
94.1581
93.41
92.7383
92.1394
91.5943
91.0968
90.6381
90.2068
89.7934
89.39
88.9938
88.6071
88.2352
87.8826
102.594
98.1218
96.1541
95.0628
94.1872
93.4244
92.7506
92.1518
91.6054
91.104
90.6415
90.2088
89.7957
89.3936
88.9986
88.6126
88.2408
87.8877
79.1982
79.1904
79.1722
79.145
79.1091
79.0647
79.0123
78.9519
78.8835
78.8074
78.7236
78.6322
78.5329
78.4256
78.3105
78.1857
78.0506
77.9037
77.7435
77.5681
77.3751
77.1626
76.9283
76.6705
76.388
76.08
75.7467
75.389
75.0088
74.6091
74.194
73.7687
73.3393
72.913
72.4979
72.1027
71.7364
71.4081
71.1262
70.8985
70.731
70.6288
70.595
70.6322
70.7403
70.9152
71.1513
71.4419
71.779
72.1539
72.5575
72.9802
73.4124
73.8446
74.2679
74.6738
75.0552
75.406
75.7214
75.9984
76.2348
76.4297
76.5833
76.6965
76.771
76.8087
76.8122
76.7837
76.7256
76.6402
76.5308
76.3996
76.2487
76.0802
75.8957
75.6971
75.4857
75.2629
75.0299
74.7877
74.5373
74.2795
74.0149
73.7444
73.4683
73.1872
72.9014
72.6115
72.3176
72.02
71.7191
71.4149
71.1077
70.7977
70.4848
70.1693
69.8512
69.5306
69.2076
68.8822
68.5544
68.2242
67.8917
67.5569
67.2198
66.8803
66.5385
66.1944
65.8479
65.499
65.1477
64.794
64.4378
64.0791
63.718
63.3543
62.988
62.6192
62.2477
61.8736
61.4968
61.1173
60.7351
60.3501
59.9622
59.5716
59.178
58.7815
58.382
57.9796
57.5742
57.1658
56.7544
56.3398
55.9221
55.5013
55.0773
54.6501
54.2197
53.786
53.349
52.9087
52.465
52.018
51.5675
51.1136
50.6562
50.1953
49.7309
49.2629
48.7913
48.3161
47.8372
47.3547
46.8684
46.3785
45.8847
45.3872
44.886
44.3809
43.872
43.3593
42.8428
42.3226
41.7985
41.2708
40.7394
40.2046
39.6663
39.1249
38.5806
38.034
37.4854
36.936
36.3863
35.8394
35.2961
34.7635
34.245
33.7545
79.234
79.2256
79.2075
79.1811
79.1461
79.1027
79.0511
78.9914
78.9237
78.8482
78.7647
78.6731
78.573
78.4641
78.3457
78.2168
78.0761
77.9225
77.7542
77.5694
77.3663
77.1428
76.8973
76.628
76.3336
76.0136
75.6681
75.2982
74.9059
74.4945
74.068
73.6315
73.1912
72.7543
72.3292
71.9249
71.5509
71.2168
70.9315
70.7033
70.5389
70.4432
70.4195
70.4678
70.5853
70.7693
71.0147
71.3148
71.6615
72.0461
72.4592
72.8913
73.3327
73.7739
74.2058
74.6199
75.0087
75.3661
75.6874
75.9694
76.2099
76.4083
76.5647
76.6802
76.7565
76.7958
76.8005
76.7733
76.7151
76.6307
76.522
76.3915
76.2411
76.073
75.889
75.6908
75.4798
75.2573
75.0247
74.7828
74.5328
74.2752
74.011
73.7407
73.4648
73.1839
72.8984
72.6086
72.3149
72.0175
71.7167
71.4127
71.1056
70.7957
70.4829
70.1675
69.8495
69.5291
69.2061
68.8808
68.553
68.223
67.8905
67.5558
67.2187
66.8793
66.5376
66.1935
65.8471
65.4982
65.147
64.7933
64.4371
64.0785
63.7174
63.3537
62.9875
62.6187
62.2473
61.8732
61.4965
61.117
60.7348
60.3498
59.962
59.5713
59.1778
58.7813
58.3819
57.9795
57.5741
57.1657
56.7542
56.3397
55.922
55.5012
55.0772
54.65
54.2196
53.7859
53.3489
52.9086
52.4649
52.0179
51.5674
51.1135
50.6561
50.1952
49.7308
49.2628
48.7912
48.316
47.8371
47.3546
46.8684
46.3784
45.8847
45.3872
44.8859
44.3808
43.8719
43.3592
42.8427
42.3224
41.7983
41.2706
40.7392
40.2042
39.6659
39.1244
38.5799
38.033
37.4841
36.9342
36.384
35.8355
35.2911
34.7532
34.2284
33.7092
79.3072
79.2995
79.2832
79.2578
79.2238
79.1814
79.1305
79.0712
79.0033
78.9267
78.8411
78.7461
78.6413
78.5261
78.3997
78.2612
78.1096
77.9434
77.761
77.5608
77.3411
77.1004
76.8373
76.5504
76.239
75.9025
75.541
75.1554
74.7473
74.3194
73.8754
73.4207
72.9616
72.5058
72.0619
71.6395
71.2486
70.8995
70.602
70.3649
70.1954
70.0986
70.0778
70.1341
70.2649
70.4656
70.7296
71.0492
71.4157
71.8198
72.2521
72.7031
73.1631
73.6224
74.0719
74.5027
74.907
75.2783
75.6119
75.9043
76.1538
76.3595
76.5219
76.6423
76.7225
76.7651
76.7726
76.7474
76.691
76.6081
76.5008
76.3715
76.2222
76.0552
75.8722
75.6749
75.4648
75.2432
75.0114
74.7704
74.5211
74.2643
74.0008
73.7311
73.4559
73.1756
72.8906
72.6014
72.3081
72.0112
71.7109
71.4072
71.1006
70.791
70.4786
70.1635
69.8458
69.5256
69.2029
68.8778
68.5503
68.2204
67.8882
67.5537
67.2168
66.8776
66.536
66.192
65.8457
65.4969
65.1458
64.7922
64.4362
64.0777
63.7166
63.353
62.9869
62.6182
62.2468
61.8727
61.496
61.1166
60.7344
60.3495
59.9617
59.571
59.1775
58.781
58.3816
57.9793
57.5739
57.1655
56.7541
56.3395
55.9219
55.5011
55.0771
54.6499
54.2195
53.7858
53.3488
52.9085
52.4649
52.0178
51.5674
51.1135
50.6561
50.1952
49.7308
49.2628
48.7912
48.316
47.8371
47.3546
46.8683
46.3783
45.8846
45.3871
44.8858
44.3807
43.8718
43.3591
42.8425
42.3222
41.798
41.2702
40.7387
40.2036
39.6651
39.1234
38.5786
38.0313
37.4818
36.9308
36.3795
35.8285
35.2807
34.7353
34.1985
33.6556
79.3867
79.3793
79.3628
79.3378
79.3042
79.2621
79.2112
79.1516
79.0829
79.0048
78.917
78.8188
78.7096
78.5886
78.455
78.3078
78.1457
77.9676
77.7719
77.5572
77.3217
77.0641
76.7827
76.4764
76.1441
75.7853
75.4
74.9887
74.5531
74.0956
73.6202
73.1321
72.6381
72.1464
71.6668
71.2098
70.787
70.4101
70.0904
69.8378
69.6605
69.564
69.5514
69.6229
69.7749
70.0013
70.294
70.6435
71.0401
71.4739
71.9352
72.4145
72.9022
73.3889
73.8651
74.3215
74.7497
75.1427
75.4953
75.8041
76.0673
76.2843
76.456
76.5839
76.6703
76.7179
76.7294
76.7074
76.6542
76.5737
76.4685
76.3411
76.1936
76.0282
75.8468
75.651
75.4423
75.2221
74.9916
74.7519
74.5038
74.2482
73.9857
73.7171
73.4429
73.1635
72.8794
72.5909
72.2985
72.0023
71.7025
71.3995
71.0934
70.7844
70.4724
70.1578
69.8406
69.5208
69.1985
68.8737
68.5465
68.217
67.885
67.5507
67.2141
66.875
66.5337
66.1899
65.8437
65.4951
65.1442
64.7907
64.4348
64.0764
63.7154
63.3519
62.9859
62.6172
62.2459
61.8719
61.4953
61.1159
60.7338
60.3489
59.9612
59.5706
59.1771
58.7807
58.3813
57.979
57.5736
57.1652
56.7538
56.3393
55.9217
55.5009
55.0769
54.6497
54.2193
53.7856
53.3487
52.9084
52.4647
52.0177
51.5673
51.1134
50.656
50.1951
49.7307
49.2627
48.7911
48.3159
47.837
47.3545
46.8682
46.3782
45.8845
45.387
44.8857
44.3805
43.8716
43.3588
42.8422
42.3218
41.7976
41.2697
40.7381
40.2028
39.6641
39.122
38.5769
38.029
37.4788
36.9267
36.3738
35.8203
35.2684
34.7162
34.1677
33.6075
79.4641
79.4568
79.4404
79.4156
79.3823
79.3402
79.2892
79.2291
79.1595
79.0799
78.9897
78.8884
78.7751
78.649
78.5091
78.3542
78.1833
77.9948
77.7872
77.5589
77.308
77.0328
76.7314
76.4024
76.0444
75.6566
75.2387
74.7912
74.3156
73.8145
73.2918
72.7533
72.2064
71.6604
71.1262
70.6164
70.1442
69.7236
69.3683
69.0906
68.9006
68.8051
68.8066
68.903
69.0881
69.3531
69.688
70.0813
70.5215
70.9972
71.4984
72.0158
72.5407
73.0644
73.5772
74.0695
74.5315
74.9554
75.3352
75.6671
75.9496
76.1824
76.367
76.5052
76.5999
76.6542
76.6711
76.6534
76.6042
76.527
76.4247
76.2998
76.1548
75.9916
75.8123
75.6185
75.4117
75.1934
74.9647
74.7267
74.4802
74.2261
73.9652
73.698
73.4251
73.1469
72.864
72.5767
72.2852
71.99
71.6912
71.389
71.0837
70.7753
70.4641
70.1501
69.8335
69.5142
69.1924
68.8681
68.5414
68.2123
67.8807
67.5468
67.2104
66.8717
66.5306
66.1871
65.8411
65.4928
65.142
64.7887
64.433
64.0747
63.7139
63.3505
62.9846
62.616
62.2449
61.871
61.4944
61.1151
60.7331
60.3482
59.9605
59.57
59.1765
58.7802
58.3808
57.9785
57.5732
57.1649
56.7535
56.339
55.9214
55.5006
55.0767
54.6495
54.2191
53.7855
53.3485
52.9082
52.4646
52.0176
51.5672
51.1133
50.6559
50.195
49.7306
49.2626
48.791
48.3158
47.8369
47.3544
46.8681
46.3781
45.8844
45.3868
44.8855
44.3804
43.8714
43.3586
42.8419
42.3214
41.7972
41.2691
40.7373
40.2019
39.6629
39.1205
38.5749
38.0263
37.4753
36.9219
36.3672
35.8109
35.2546
34.6962
34.137
33.5641
79.5413
79.5338
79.5174
79.4927
79.4594
79.4174
79.3662
79.3057
79.2352
79.1543
79.0623
78.9583
78.8416
78.7111
78.5658
78.4044
78.2253
78.0271
77.8077
77.5651
77.2973
77.002
76.6773
76.3211
75.9319
75.5084
75.0497
74.5557
74.0275
73.4675
72.8801
72.2719
71.6513
71.029
70.4174
69.8316
69.288
68.8044
68.3984
68.0854
67.8786
67.7858
67.8082
67.9377
68.1695
68.4922
68.8904
69.3476
69.8484
70.3798
70.9314
71.4955
72.0657
72.6353
73.1953
73.7352
74.2435
74.7099
75.1271
75.491
75.8
76.0544
76.2562
76.4081
76.5137
76.5763
76.5996
76.5865
76.5419
76.4688
76.37
76.2484
76.1062
75.9458
75.7691
75.5779
75.3736
75.1576
74.9311
74.6952
74.4509
74.1988
73.9397
73.6742
73.403
73.1264
72.845
72.559
72.2689
71.9748
71.6772
71.376
71.0717
70.7643
70.4539
70.1407
69.8248
69.5062
69.1851
68.8614
68.5352
68.2066
67.8755
67.542
67.206
66.8677
66.5269
66.1837
65.838
65.4899
65.1394
64.7863
64.4308
64.0727
63.7121
63.3489
62.9831
62.6146
62.2436
61.8698
61.4933
61.1141
60.7322
60.3474
59.9598
59.5693
59.1759
58.7796
58.3803
57.978
57.5728
57.1645
56.7531
56.3386
55.921
55.5003
55.0764
54.6492
54.2189
53.7852
53.3483
52.908
52.4644
52.0174
51.567
51.1131
50.6558
50.1949
49.7305
49.2625
48.7909
48.3157
47.8368
47.3543
46.868
46.378
45.8842
45.3867
44.8853
44.3802
43.8711
43.3583
42.8416
42.321
41.7966
41.2684
40.7364
40.2007
39.6615
39.1186
38.5725
38.0233
37.4712
36.9165
36.3597
35.8006
35.24
34.6758
34.1074
33.5251
79.6259
79.6182
79.6016
79.5769
79.5435
79.5013
79.4498
79.3886
79.3171
79.2348
79.1408
79.0343
78.9144
78.7798
78.6294
78.4615
78.2745
78.0662
77.8343
77.5763
77.2899
76.9725
76.6216
76.2348
75.8094
75.3428
74.8331
74.279
73.6813
73.0432
72.3703
71.6702
70.9527
70.23
69.5169
68.8315
68.1944
67.6284
67.1564
66.7978
66.5669
66.4737
66.5178
66.7016
67.0099
67.4212
67.9115
68.4569
69.037
69.6358
70.2433
70.8545
71.4682
72.0832
72.6951
73.2937
73.8637
74.3891
74.8588
75.2672
75.6126
75.8964
76.1216
76.2922
76.4122
76.4856
76.5163
76.5098
76.4702
76.4011
76.3059
76.1875
76.0485
75.8912
75.7176
75.5293
75.3279
75.1147
74.8909
74.6576
74.4157
74.166
73.9092
73.6458
73.3766
73.1019
72.8222
72.5379
72.2493
71.9568
71.6604
71.3606
71.0574
70.7511
70.4418
70.1295
69.8145
69.4967
69.1763
68.8534
68.5278
68.1998
67.8693
67.5363
67.2008
66.8629
66.5225
66.1797
65.8343
65.4866
65.1363
64.7835
64.4282
64.0703
63.7099
63.3469
62.9812
62.613
62.242
61.8684
61.4921
61.113
60.7311
60.3464
59.9589
59.5684
59.1751
58.7789
58.3796
57.9774
57.5722
57.164
56.7526
56.3382
55.9206
55.4999
55.076
54.6489
54.2186
53.785
53.3481
52.9078
52.4642
52.0173
51.5669
51.113
50.6556
50.1948
49.7304
49.2624
48.7908
48.3156
47.8367
47.3542
46.8679
46.3779
45.8841
45.3865
44.8851
44.3799
43.8709
43.3579
42.8411
42.3205
41.796
41.2676
40.7354
40.1995
39.6599
39.1166
38.5699
38.0199
37.4667
36.9105
36.3517
35.7898
35.2251
34.6555
34.0796
33.4899
79.7261
79.718
79.7009
79.6757
79.6418
79.599
79.5467
79.4845
79.4116
79.3275
79.2312
79.1219
78.9984
78.8595
78.7036
78.529
78.3333
78.1142
77.8689
77.5946
77.2885
76.9476
76.5685
76.1469
75.6783
75.1581
74.583
73.9518
73.2669
72.5333
71.7584
70.9508
70.1206
69.2816
68.4512
67.649
66.899
66.2302
65.6723
65.2529
64.9934
64.905
65.0132
65.2961
65.7264
66.2697
66.8895
67.5503
68.2227
68.8864
69.5327
70.1658
70.7958
71.4323
72.08
72.7325
73.372
73.9735
74.515
74.9849
75.3803
75.7036
75.9598
76.1546
76.2931
76.3802
76.4225
76.4247
76.3914
76.3268
76.235
76.1196
75.9834
75.829
75.6584
75.4733
75.2751
75.0651
74.8444
74.6141
74.3751
74.1281
73.8739
73.6131
73.3462
73.0737
72.7961
72.5137
72.2269
71.936
71.6412
71.3428
71.041
70.7359
70.4278
70.1167
69.8026
69.4858
69.1663
68.8442
68.5194
68.1921
67.8622
67.5298
67.1948
66.8574
66.5175
66.1751
65.8301
65.4827
65.1328
64.7803
64.4252
64.0676
63.7074
63.3446
62.9792
62.6111
62.2403
61.8668
61.4906
61.1116
60.7299
60.3453
59.9578
59.5675
59.1742
58.778
58.3789
57.9767
57.5716
57.1634
56.7521
56.3377
55.9202
55.4995
55.0756
54.6486
54.2183
53.7847
53.3478
52.9076
52.464
52.0171
51.5667
51.1128
50.6555
50.1946
49.7302
49.2623
48.7907
48.3155
47.8366
47.354
46.8677
46.3777
45.8839
45.3863
44.8849
44.3797
43.8705
43.3576
42.8407
42.3199
41.7953
41.2667
40.7343
40.1981
39.6581
39.1144
38.5671
38.0162
37.4619
36.9042
36.3433
35.7787
35.2101
34.6357
34.0535
33.4579
79.8492
79.8402
79.8221
79.7959
79.7609
79.7167
79.6629
79.599
79.5241
79.4377
79.3386
79.226
79.0987
78.9551
78.7934
78.6114
78.4067
78.1763
77.9172
77.6264
77.3002
76.9345
76.5238
76.0616
75.5405
74.9547
74.3013
73.5818
72.802
71.9704
71.0963
70.1885
69.2536
68.2981
67.3337
66.3819
65.4749
64.6544
63.9685
63.4649
63.1821
63.1412
63.3277
63.7289
64.3131
65.0338
65.8355
66.6646
67.4782
68.2484
68.9605
69.6094
70.212
70.8071
71.4294
72.093
72.7828
73.462
74.09
74.6396
75.1009
75.4755
75.7707
75.9946
76.1545
76.2598
76.3165
76.3298
76.305
76.2468
76.1594
76.0471
75.9134
75.7614
75.5933
75.411
75.2159
75.0093
74.792
74.565
74.3293
74.0854
73.8341
73.5761
73.3118
73.0418
72.7665
72.4863
72.2015
71.9125
71.6195
71.3228
71.0225
70.7189
70.4121
70.1022
69.7893
69.4736
69.1551
68.8338
68.5099
68.1834
67.8542
67.5225
67.1881
66.8513
66.5119
66.1699
65.8254
65.4784
65.1288
64.7767
64.4219
64.0646
63.7047
63.3421
62.9769
62.609
62.2384
61.8651
61.489
61.1102
60.7285
60.344
59.9566
59.5664
59.1732
58.7771
58.378
57.976
57.5709
57.1627
56.7515
56.3371
55.9197
55.499
55.0752
54.6482
54.2179
53.7843
53.3475
52.9073
52.4638
52.0168
51.5665
51.1126
50.6553
50.1945
49.7301
49.2621
48.7905
48.3153
47.8365
47.3539
46.8676
46.3775
45.8837
45.3861
44.8847
44.3794
43.8702
43.3571
42.8402
42.3193
41.7945
41.2658
40.7332
40.1966
39.6563
39.112
38.5641
38.0123
37.4569
36.8977
36.3347
35.7675
35.1954
34.6167
34.0293
33.4288
80.0011
79.9909
79.9708
79.9429
79.9058
79.8595
79.8033
79.7368
79.6593
79.5699
79.4676
79.3513
79.2197
79.0711
78.9034
78.714
78.5002
78.2587
77.9862
77.6789
77.3323
76.9402
76.4947
75.9862
75.4062
74.7497
74.0171
73.2154
72.3555
71.4469
70.4931
69.4911
68.4349
67.3201
66.151
64.9491
63.7568
62.6393
61.6828
60.9752
60.5775
60.5213
60.7903
61.3714
62.2159
63.2486
64.3792
65.5225
66.6116
67.6039
68.4733
69.2098
69.8274
70.3697
70.9057
71.4983
72.1709
72.892
73.6001
74.2388
74.7798
75.2167
75.5581
75.8152
76.0015
76.1269
76.1992
76.225
76.2101
76.1598
76.0787
75.9709
75.8404
75.6906
75.5245
75.3444
75.1519
74.9482
74.7343
74.5108
74.2785
74.0381
73.7901
73.5352
73.2739
73.0066
72.7339
72.4561
72.1735
71.8866
71.5956
71.3007
71.0021
70.7001
70.3947
70.0862
69.7746
69.4601
69.1427
68.8225
68.4995
68.1738
67.8454
67.5144
67.1808
66.8445
66.5057
66.1643
65.8203
65.4737
65.1245
64.7727
64.4183
64.0613
63.7016
63.3393
62.9743
62.6066
62.2362
61.8631
61.4872
61.1085
60.727
60.3426
59.9554
59.5652
59.1721
58.7761
58.3771
57.9751
57.5701
57.162
56.7508
56.3365
55.9191
55.4985
55.0747
54.6477
54.2175
53.784
53.3472
52.907
52.4635
52.0166
51.5662
51.1124
50.6551
50.1943
49.7299
49.2619
48.7904
48.3152
47.8363
47.3537
46.8674
46.3774
45.8835
45.3859
44.8844
44.3791
43.8698
43.3567
42.8397
42.3187
41.7937
41.2648
40.7319
40.1951
39.6543
39.1096
38.5609
38.0083
37.4517
36.891
36.3261
35.7564
35.1811
34.5986
34.0069
33.4022
80.1864
80.1745
80.1517
80.1207
80.0805
80.0311
79.9717
79.9019
79.8209
79.7279
79.6218
79.5014
79.3653
79.2115
79.0378
78.8413
78.6189
78.3672
78.0823
77.7596
77.3931
76.9745
76.4935
75.9388
75.3025
74.5818
73.7823
72.9162
71.9949
71.0204
69.9815
68.8542
67.6128
66.2411
64.7398
63.1413
61.5152
59.9655
58.6215
57.613
57.0355
56.9381
57.3311
58.1739
59.381
60.8355
62.4063
63.9707
65.4341
66.7424
67.8745
68.8175
69.5561
70.1152
70.5756
71.0598
71.6423
72.3392
73.0924
73.8125
74.4354
74.9372
75.3298
75.6253
75.8395
75.9856
76.0739
76.1124
76.1078
76.066
75.9919
75.8899
75.764
75.6175
75.4538
75.2755
75.0848
74.8835
74.6724
74.4522
74.2235
73.9866
73.7422
73.4907
73.2325
72.9683
72.6984
72.4232
72.1431
71.8584
71.5695
71.2766
70.9799
70.6796
70.3759
70.0688
69.7587
69.4454
69.1292
68.8101
68.4881
68.1634
67.8359
67.5057
67.1728
66.8372
66.499
66.1582
65.8147
65.4685
65.1198
64.7684
64.4144
64.0577
63.6983
63.3363
62.9716
62.6041
62.2339
61.861
61.4852
61.1067
60.7253
60.3411
59.9539
59.5639
59.1709
58.775
58.3761
57.9742
57.5692
57.1612
56.75
56.3358
55.9184
55.4979
55.0742
54.6472
54.2171
53.7836
53.3468
52.9067
52.4632
52.0163
51.566
51.1122
50.6549
50.1941
49.7297
49.2618
48.7902
48.315
47.8361
47.3535
46.8672
46.3772
45.8833
45.3856
44.8841
44.3787
43.8695
43.3563
42.8391
42.318
41.7929
41.2638
40.7307
40.1935
39.6523
39.107
38.5577
38.0042
37.4465
36.8843
36.3175
35.7455
35.1673
34.5815
33.9861
33.378
80.4075
80.3935
80.3669
80.3319
80.2877
80.2342
80.1707
80.0967
80.0116
79.9143
79.8039
79.6791
79.5383
79.3795
79.2002
78.9973
78.7675
78.5071
78.2117
77.8756
77.4915
77.0495
76.5375
75.9433
75.2604
74.4884
73.637
72.7198
71.7434
70.7002
69.5586
68.2693
66.7878
65.0914
63.1862
61.127
59.0207
57.0126
55.2738
53.9755
53.2403
53.1266
53.6408
54.7366
56.3086
58.204
60.2433
62.2565
64.1125
65.7432
67.1392
68.3158
69.2575
69.9334
70.3838
70.7731
71.2426
71.8627
72.6222
73.4025
74.0909
74.6588
75.1019
75.4348
75.6755
75.8408
75.9438
75.9944
76
75.9665
75.8995
75.8038
75.6833
75.5414
75.3811
75.2053
75.0165
74.8169
74.6079
74.3904
74.1649
73.9316
73.6908
73.4428
73.1881
72.9271
72.6602
72.3878
72.1104
71.8282
71.5416
71.2508
70.956
70.6576
70.3556
70.0502
69.7415
69.4297
69.1147
68.7968
68.476
68.1522
67.8257
67.4963
67.1642
66.8294
66.4918
66.1516
65.8087
65.463
65.1148
64.7638
64.4101
64.0538
63.6948
63.333
62.9686
62.6014
62.2314
61.8587
61.4831
61.1048
60.7235
60.3394
59.9524
59.5625
59.1696
58.7738
58.375
57.9731
57.5683
57.1603
56.7492
56.3351
55.9178
55.4973
55.0736
54.6467
54.2166
53.7832
53.3464
52.9064
52.4629
52.016
51.5657
51.1119
50.6547
50.1939
49.7295
49.2616
48.79
48.3148
47.8359
47.3534
46.867
46.377
45.8831
45.3854
44.8838
44.3784
43.8691
43.3558
42.8385
42.3173
41.792
41.2627
40.7293
40.1919
39.6502
39.1044
38.5544
38
37.4412
36.8777
36.3091
35.7349
35.1541
34.5654
33.9668
33.3559
80.6651
80.6491
80.6175
80.5773
80.5281
80.4695
80.4011
80.3224
80.2325
80.1306
80.0157
79.8864
79.7411
79.5777
79.3935
79.1855
78.9499
78.6826
78.3795
78.0336
77.6364
77.1769
76.6423
76.02
75.3043
74.4959
73.6067
72.6481
71.6225
70.511
69.267
67.8235
66.1212
64.1349
61.875
59.4151
56.8973
54.4948
52.4004
50.8122
49.8958
49.7261
50.33
51.6539
53.5653
55.8732
58.3506
60.7795
62.99
64.8894
66.4615
67.7944
68.9073
69.7267
70.2409
70.584
70.9602
71.4966
72.2257
73.03
73.7741
74.398
74.8856
75.2512
75.5153
75.697
75.8123
75.873
75.8875
75.8622
75.8024
75.7129
75.598
75.4613
75.3056
75.1334
74.9473
74.7497
74.5425
74.327
74.1041
73.8739
73.6366
73.3922
73.1411
72.8834
72.6197
72.3503
72.0757
71.7961
71.5118
71.2233
70.9307
70.6342
70.3341
70.0304
69.7233
69.4129
69.0994
68.7827
68.463
68.1404
67.8148
67.4864
67.1551
66.8211
66.4842
66.1446
65.8023
65.4572
65.1094
64.7589
64.4057
64.0497
63.691
63.3296
62.9654
62.5985
62.2288
61.8562
61.4809
61.1027
60.7216
60.3377
59.9508
59.561
59.1683
58.7725
58.3738
57.9721
57.5672
57.1594
56.7484
56.3343
55.9171
55.4966
55.073
54.6462
54.2161
53.7827
53.346
52.906
52.4626
52.0157
51.5654
51.1117
50.6544
50.1936
49.7293
49.2614
48.7898
48.3146
47.8357
47.3532
46.8668
46.3767
45.8829
45.3851
44.8835
44.3781
43.8687
43.3553
42.838
42.3166
41.7912
41.2617
40.728
40.1902
39.6482
39.1019
38.5511
37.9959
37.4361
36.8712
36.301
35.7248
35.1417
34.5504
33.9491
33.3358
80.9553
80.9386
80.9021
80.8562
80.801
80.7367
80.6627
80.5786
80.4836
80.377
80.2575
80.1239
79.9746
79.8072
79.6193
79.4076
79.1684
78.8974
78.5896
78.238
77.8335
77.3643
76.8175
76.181
75.4488
74.6215
73.7101
72.7242
71.6638
70.5033
69.1896
67.6503
65.8153
63.6575
61.198
58.4905
55.7398
53.1165
50.8334
49.0946
48.0775
47.8904
48.5598
50.0121
52.0945
54.6031
57.298
59.9339
62.3309
64.382
66.0431
67.4184
68.5892
69.5107
70.1044
70.4474
70.7649
71.2295
71.9152
72.7257
73.5061
74.1699
74.6897
75.0793
75.361
75.5558
75.681
75.75
75.772
75.7538
75.7008
75.6177
75.5087
75.3772
75.2265
75.0589
74.8766
74.6819
74.4768
74.2631
74.0422
73.8146
73.5803
73.3393
73.0917
72.8376
72.5772
72.3109
72.0392
71.7623
71.4806
71.1944
70.904
70.6096
70.3114
70.0095
69.7041
69.3953
69.0832
68.7679
68.4494
68.1279
67.8034
67.476
67.1456
66.8123
66.4762
66.1373
65.7956
65.4511
65.1038
64.7537
64.4009
64.0454
63.687
63.326
62.9621
62.5954
62.226
61.8537
61.4785
61.1005
60.7196
60.3358
59.9491
59.5594
59.1668
58.7712
58.3726
57.9709
57.5662
57.1584
56.7475
56.3335
55.9163
55.496
55.0724
54.6456
54.2156
53.7823
53.3456
52.9056
52.4622
52.0154
51.5651
51.1114
50.6542
50.1934
49.7291
49.2612
48.7896
48.3144
47.8355
47.353
46.8666
46.3765
45.8826
45.3849
44.8832
44.3777
43.8683
43.3548
42.8374
42.3159
41.7903
41.2606
40.7267
40.1886
39.6461
39.0993
38.5479
37.9919
37.431
36.8649
36.2932
35.7152
35.13
34.5364
33.9329
33.3174
81.2642
81.2519
81.2156
81.1651
81.1039
81.0333
80.9533
80.8636
80.7635
80.6522
80.5286
80.3912
80.2385
80.0682
79.8778
79.664
79.4232
79.1511
78.8424
78.4902
78.0852
77.6158
77.0691
76.4333
75.7013
74.8729
73.9567
72.9618
71.8886
70.7136
69.3865
67.8372
65.9999
63.8427
61.3821
58.705
55.9679
53.366
51.1076
49.3919
48.3754
48.1614
48.8025
50.2223
52.2591
54.7107
57.3457
59.921
62.2601
64.278
65.928
67.2716
68.4121
69.3461
69.9806
70.3334
70.6233
71.0471
71.701
72.5073
73.3024
73.9846
74.5197
74.9214
75.2136
75.4174
75.5503
75.6263
75.655
75.643
75.596
75.5189
75.4157
75.2899
75.1443
74.9815
74.8036
74.6127
74.4106
74.1993
73.9804
73.7548
73.5231
73.2851
73.0407
72.79
72.5329
72.2699
72.0011
71.727
71.448
71.1643
70.8762
70.584
70.2878
69.9878
69.6841
69.3769
69.0663
68.7524
68.4353
68.115
67.7915
67.4651
67.1356
66.8032
66.4679
66.1296
65.7886
65.4446
65.0979
64.7484
64.396
64.0408
63.6829
63.3222
62.9586
62.5922
62.223
61.8509
61.476
61.0982
60.7175
60.3338
59.9473
59.5578
59.1653
58.7698
58.3712
57.9697
57.5651
57.1574
56.7465
56.3326
55.9155
55.4952
55.0718
54.645
54.2151
53.7818
53.3452
52.9052
52.4618
52.015
51.5648
51.1111
50.6539
50.1932
49.7288
49.2609
48.7894
48.3142
47.8353
47.3527
46.8664
46.3763
45.8824
45.3846
44.8829
44.3774
43.8679
43.3544
42.8368
42.3152
41.7895
41.2596
40.7254
40.187
39.6441
39.0968
38.5448
37.988
37.4262
36.8589
36.2858
35.7061
35.1191
34.5235
33.918
33.3008
81.6008
81.5962
81.5655
81.5119
81.4439
81.3663
81.2799
81.1847
81.0798
80.9643
80.8369
80.6963
80.5408
80.3682
80.1762
79.9616
79.721
79.4502
79.1441
78.796
78.3972
77.9369
77.4027
76.7825
76.0681
75.2569
74.3548
73.3712
72.3098
71.1575
69.8777
68.4171
66.7201
64.7537
62.5272
60.1143
57.6473
55.2997
53.2536
51.6806
50.7215
50.476
50.992
52.2174
54.0005
56.151
58.4661
60.7351
62.8008
64.5952
66.0919
67.3299
68.39
69.2715
69.8853
70.2327
70.5167
70.9339
71.5822
72.3832
73.1734
73.8496
74.3799
74.7795
75.0728
75.2803
75.4185
75.5004
75.5353
75.5294
75.4881
75.4163
75.3186
75.1982
75.0579
74.8999
74.7266
74.54
74.3419
74.1339
73.9175
73.6941
73.4646
73.2291
72.9877
72.7402
72.4864
72.2266
71.961
71.6899
71.4136
71.1325
70.8468
70.5569
70.2628
69.9648
69.663
69.3575
69.0485
68.7361
68.4203
68.1013
67.779
67.4536
67.1251
66.7936
66.4591
66.1216
65.7812
65.4379
65.0917
64.7427
64.3908
64.0361
63.6785
63.3181
62.9549
62.5888
62.2199
61.8481
61.4734
61.0957
60.7152
60.3318
59.9454
59.556
59.1636
58.7683
58.3699
57.9684
57.5639
57.1563
56.7456
56.3317
55.9147
55.4945
55.0711
54.6444
54.2145
53.7813
53.3447
52.9048
52.4615
52.0147
51.5645
51.1108
50.6536
50.1929
49.7286
49.2607
48.7892
48.314
47.8351
47.3526
46.8662
46.3761
45.8821
45.3844
44.8827
44.3771
43.8675
43.3539
42.8363
42.3145
41.7887
41.2586
40.7242
40.1854
39.6422
39.0944
38.5418
37.9843
37.4216
36.8532
36.2788
35.6977
35.109
34.5117
33.9044
33.2858
81.9728
81.9712
81.9422
81.8835
81.8045
81.7171
81.6238
81.5241
81.4159
81.2975
81.1673
81.024
80.8661
80.6916
80.4983
80.2836
80.044
79.7758
79.4742
79.1333
78.7454
78.3008
77.7883
77.196
76.5146
75.7393
74.8727
73.9233
72.8993
71.8005
70.6108
69.2993
67.8287
66.1711
64.3262
62.3414
60.3114
58.368
56.6553
55.3161
54.4687
54.181
54.4996
55.4062
56.7793
58.4532
60.2631
62.0546
63.7169
65.1999
66.4802
67.5699
68.5122
69.2903
69.8301
70.1548
70.4554
70.9047
71.5768
72.3728
73.1368
73.7809
74.2859
74.6695
74.9538
75.1574
75.2959
75.381
75.4205
75.4199
75.3837
75.3167
75.2236
75.108
74.9724
74.8189
74.6498
74.4673
74.2733
74.069
73.8559
73.6351
73.4078
73.1745
72.9356
72.6908
72.44
72.1832
71.9206
71.6524
71.3788
71.1003
70.8171
70.5294
70.2375
69.9415
69.6416
69.3379
69.0305
68.7196
68.4052
68.0874
67.7663
67.4419
67.1144
66.7838
66.4501
66.1134
65.7737
65.431
65.0854
64.7369
64.3855
64.0312
63.674
63.314
62.9511
62.5853
62.2166
61.8451
61.4706
61.0932
60.7129
60.3296
59.9434
59.5541
59.1619
58.7667
58.3684
57.9671
57.5627
57.1551
56.7445
56.3307
55.9138
55.4937
55.0704
54.6438
54.2139
53.7807
53.3442
52.9043
52.461
52.0143
51.5641
51.1105
50.6533
50.1926
49.7283
49.2604
48.7889
48.3137
47.8349
47.3523
46.8659
46.3758
45.8819
45.384
44.8823
44.3767
43.8671
43.3534
42.8357
42.3138
41.7878
41.2575
40.7229
40.1839
39.6403
39.092
38.5389
37.9807
37.4172
36.8478
36.2722
35.6898
35.0996
34.5008
33.8921
33.2721
82.3232
82.3192
82.303
82.2326
82.1398
82.0442
81.9486
81.8489
81.7404
81.6207
81.4885
81.3427
81.1819
81.0049
80.8097
80.594
80.3549
80.0888
79.7914
79.4575
79.0803
78.6517
78.1619
77.6004
76.9576
76.2272
75.4086
74.5076
73.5334
72.4933
71.3862
70.201
68.9195
67.5254
66.0171
64.4233
62.8056
61.2549
59.8762
58.7752
58.0413
57.729
57.8813
58.4914
59.4657
60.6784
62.0124
63.3652
64.6624
65.8613
66.9347
67.8786
68.6997
69.3585
69.806
70.1108
70.4522
70.9649
71.6735
72.4543
73.1729
73.7678
74.2359
74.596
74.866
75.0611
75.1954
75.2798
75.321
75.3235
75.2908
75.2274
75.138
75.0265
74.8952
74.7456
74.5799
74.4006
74.2098
74.0091
73.7994
73.5814
73.3564
73.1251
72.888
72.6453
72.397
72.1427
71.8827
71.6171
71.3461
71.07
70.789
70.5035
70.2136
69.9195
69.6213
69.3192
69.0134
68.7039
68.3908
68.0742
67.7542
67.4309
67.1043
66.7745
66.4416
66.1056
65.7665
65.4244
65.0794
64.7313
64.3804
64.0265