/*--------------------------------*- C++ -*----------------------------------*\
  =========                 |
  \\      /  F ield         | OpenFOAM: The Open Source CFD Toolbox
   \\    /   O peration     | Website:  https://openfoam.org
    \\  /    A nd           | Version:  7
     \\/     M anipulation  |
\*---------------------------------------------------------------------------*/
FoamFile
{
    version     2.0;
    format      ascii;
    class       surfaceScalarField;
    location    "0.024";
    object      phi;
}
// * * * * * * * * * * * * * * * * * * * * * * * * * * * * * * * * * * * * * //

dimensions      [0 3 -1 0 0 0 0];

internalField   nonuniform List<scalar> 
24170
(
1.41206e-06
2.46471e-07
1.25513e-06
1.56926e-07
1.11227e-06
1.42856e-07
9.90953e-07
1.21321e-07
8.84111e-07
1.06843e-07
7.86944e-07
9.71667e-08
6.97664e-07
8.92802e-08
6.14731e-07
8.29325e-08
5.39404e-07
7.53267e-08
4.74365e-07
6.50392e-08
4.21442e-07
5.2923e-08
3.80349e-07
4.10928e-08
3.48638e-07
3.17119e-08
3.23272e-07
2.53654e-08
3.00365e-07
2.29071e-08
2.79829e-07
2.0536e-08
2.56122e-07
2.37073e-08
2.05275e-08
2.35594e-07
1.65777e-06
2.95588e-07
1.63376e-06
1.80937e-07
1.59635e-06
1.80268e-07
1.55862e-06
1.5905e-07
1.52169e-06
1.43775e-07
1.48132e-06
1.37539e-07
1.43719e-06
1.33405e-07
1.39237e-06
1.27761e-07
1.34952e-06
1.18174e-07
1.30937e-06
1.05183e-07
1.27153e-06
9.07639e-08
1.23575e-06
7.68734e-08
1.20205e-06
6.54126e-08
1.16967e-06
5.77444e-08
1.13779e-06
5.4789e-08
1.105e-06
5.33291e-08
1.07119e-06
5.75179e-08
6.05959e-08
1.03112e-06
1.78287e-06
3.20333e-07
1.74037e-06
2.23428e-07
1.72081e-06
1.9983e-07
1.71323e-06
1.66632e-07
1.71166e-06
1.45343e-07
1.70879e-06
1.4041e-07
1.70202e-06
1.40171e-07
1.69323e-06
1.36551e-07
1.68389e-06
1.27515e-07
1.67433e-06
1.14748e-07
1.66392e-06
1.01172e-07
1.6522e-06
8.85956e-08
1.63901e-06
7.85981e-08
1.62443e-06
7.23264e-08
1.60842e-06
7.07959e-08
1.59063e-06
7.11276e-08
1.57262e-06
7.55213e-08
7.96096e-08
1.55361e-06
1.92335e-06
3.5418e-07
1.89131e-06
2.55472e-07
1.8813e-06
2.09844e-07
1.87254e-06
1.75387e-07
1.86784e-06
1.50047e-07
1.8689e-06
1.39352e-07
1.87107e-06
1.37992e-07
1.86939e-06
1.38236e-07
1.86268e-06
1.34229e-07
1.85362e-06
1.23799e-07
1.84548e-06
1.09316e-07
1.83979e-06
9.42855e-08
1.83615e-06
8.22402e-08
1.83336e-06
7.51122e-08
1.83046e-06
7.36957e-08
1.82626e-06
7.53262e-08
1.82196e-06
7.98233e-08
8.43209e-08
1.81725e-06
2.06871e-06
3.97015e-07
2.02584e-06
2.98346e-07
2.0021e-06
2.33578e-07
1.98952e-06
1.87975e-07
1.98526e-06
1.543e-07
1.98644e-06
1.38174e-07
1.9904e-06
1.34031e-07
1.99553e-06
1.3311e-07
2.00088e-06
1.28883e-07
2.00575e-06
1.18927e-07
2.00944e-06
1.05623e-07
2.01101e-06
9.27208e-08
2.00996e-06
8.32821e-08
2.00649e-06
7.85828e-08
2.00171e-06
7.84774e-08
1.99625e-06
8.07897e-08
1.99167e-06
8.44037e-08
8.755e-08
1.98844e-06
2.21533e-06
4.07938e-07
2.19023e-06
3.23446e-07
2.17666e-06
2.47145e-07
2.17527e-06
1.89365e-07
2.17625e-06
1.53318e-07
2.1731e-06
1.41325e-07
2.16646e-06
1.40675e-07
2.16059e-06
1.38978e-07
2.15863e-06
1.30844e-07
2.16056e-06
1.1699e-07
2.16425e-06
1.01934e-07
2.16692e-06
9.00524e-08
2.16678e-06
8.3421e-08
2.16351e-06
8.18535e-08
2.15832e-06
8.36721e-08
2.15258e-06
8.65301e-08
2.14794e-06
8.90415e-08
9.05624e-08
2.14493e-06
2.35878e-06
4.54794e-07
2.33343e-06
3.48795e-07
2.31847e-06
2.62104e-07
2.31003e-06
1.97808e-07
2.30902e-06
1.54324e-07
2.31235e-06
1.37999e-07
2.31511e-06
1.3791e-07
2.31581e-06
1.38284e-07
2.31577e-06
1.30878e-07
2.31636e-06
1.16401e-07
2.3178e-06
1.00492e-07
2.31932e-06
8.85339e-08
2.32004e-06
8.2704e-08
2.31957e-06
8.23256e-08
2.31819e-06
8.5047e-08
2.31636e-06
8.83634e-08
2.31466e-06
9.0741e-08
9.1592e-08
2.31363e-06
2.58122e-06
5.12591e-07
2.55363e-06
3.76388e-07
2.52046e-06
2.95274e-07
2.49156e-06
2.2671e-07
2.4737e-06
1.72178e-07
2.46947e-06
1.42233e-07
2.47696e-06
1.30423e-07
2.49107e-06
1.24175e-07
2.50494e-06
1.17e-07
2.51274e-06
1.08603e-07
2.51231e-06
1.00928e-07
2.50545e-06
9.53947e-08
2.49597e-06
9.2183e-08
2.48753e-06
9.07672e-08
2.4822e-06
9.03692e-08
2.48033e-06
9.02406e-08
2.4813e-06
8.97655e-08
8.90388e-08
2.48385e-06
2.75054e-06
4.67327e-07
2.74563e-06
3.81295e-07
2.74911e-06
2.91798e-07
2.74755e-06
2.28262e-07
2.72819e-06
1.91547e-07
2.70251e-06
1.67906e-07
2.68648e-06
1.4646e-07
2.68426e-06
1.26387e-07
2.69012e-06
1.1114e-07
2.69608e-06
1.02643e-07
2.69742e-06
9.95942e-08
2.6938e-06
9.90104e-08
2.68768e-06
9.82996e-08
2.68207e-06
9.63829e-08
2.67901e-06
9.34326e-08
2.67912e-06
9.01299e-08
2.68188e-06
8.70043e-08
8.43827e-08
2.68653e-06
2.94319e-06
4.62519e-07
2.95267e-06
3.71811e-07
2.93651e-06
3.07967e-07
2.91456e-06
2.5021e-07
2.90343e-06
2.02671e-07
2.90392e-06
1.67422e-07
2.90881e-06
1.41563e-07
2.9136e-06
1.21598e-07
2.91796e-06
1.06782e-07
2.92257e-06
9.80332e-08
2.92726e-06
9.49079e-08
2.93093e-06
9.53339e-08
2.93253e-06
9.67015e-08
2.93145e-06
9.7465e-08
2.92791e-06
9.6972e-08
2.92262e-06
9.5422e-08
2.91642e-06
9.32069e-08
9.0297e-08
2.9105e-06
3.15185e-06
4.34173e-07
3.13331e-06
3.90346e-07
3.12715e-06
3.14126e-07
3.13157e-06
2.45791e-07
3.13901e-06
1.95237e-07
3.14424e-06
1.62186e-07
3.14501e-06
1.40795e-07
3.1426e-06
1.24007e-07
3.13971e-06
1.09676e-07
3.1384e-06
9.93433e-08
3.13916e-06
9.415e-08
3.14111e-06
9.33765e-08
3.14272e-06
9.50956e-08
3.14273e-06
9.74569e-08
3.1406e-06
9.90967e-08
3.1367e-06
9.93268e-08
3.13189e-06
9.80114e-08
9.51782e-08
3.12701e-06
2.8844e-06
4.19873e-07
2.89076e-06
3.83989e-07
2.88547e-06
3.19415e-07
2.87597e-06
2.55296e-07
2.86054e-06
2.10659e-07
2.84641e-06
1.76316e-07
2.8411e-06
1.46113e-07
2.84329e-06
1.21814e-07
2.84599e-06
1.06972e-07
2.84372e-06
1.01613e-07
2.83598e-06
1.01896e-07
2.82605e-06
1.03304e-07
2.81795e-06
1.03199e-07
2.81425e-06
1.01154e-07
2.81541e-06
9.79317e-08
2.82041e-06
9.43272e-08
2.82766e-06
9.07619e-08
8.74991e-08
2.83534e-06
3.47373e-06
5.05629e-07
3.46204e-06
3.95677e-07
3.4683e-06
3.13158e-07
3.46926e-06
2.5433e-07
3.45854e-06
2.21383e-07
3.44221e-06
1.92643e-07
3.43106e-06
1.57262e-07
3.42917e-06
1.23704e-07
3.43271e-06
1.03437e-07
3.43629e-06
9.80261e-08
3.43774e-06
1.00445e-07
3.43793e-06
1.03119e-07
3.43878e-06
1.02352e-07
3.44135e-06
9.85836e-08
3.44573e-06
9.35498e-08
3.45121e-06
8.88498e-08
3.45701e-06
8.49579e-08
8.17192e-08
3.46279e-06
4.25773e-06
5.63831e-07
4.27024e-06
3.83169e-07
4.28201e-06
3.01387e-07
4.26194e-06
2.74397e-07
4.22183e-06
2.61499e-07
4.18944e-06
2.25034e-07
4.18043e-06
1.66268e-07
4.19208e-06
1.12054e-07
4.21355e-06
8.19661e-08
4.23544e-06
7.61419e-08
4.25265e-06
8.32357e-08
4.26346e-06
9.23042e-08
4.26797e-06
9.78433e-08
4.26708e-06
9.94705e-08
4.26208e-06
9.8556e-08
4.25463e-06
9.62912e-08
4.24631e-06
9.32821e-08
8.91177e-08
4.23891e-06
5.22863e-06
4.81455e-07
5.22034e-06
3.91458e-07
5.19045e-06
3.31276e-07
5.17371e-06
2.91137e-07
5.17005e-06
2.65162e-07
5.17435e-06
2.20726e-07
5.17926e-06
1.61358e-07
5.18022e-06
1.111e-07
5.17744e-06
8.47424e-08
5.17409e-06
7.94968e-08
5.17328e-06
8.40379e-08
5.17625e-06
8.93383e-08
5.18225e-06
9.18474e-08
5.18964e-06
9.20808e-08
5.19678e-06
9.14165e-08
5.20279e-06
9.02795e-08
5.20733e-06
8.87437e-08
8.57653e-08
5.21068e-06
6.26564e-06
5.49357e-07
6.28298e-06
3.74121e-07
6.3051e-06
3.0915e-07
6.31875e-06
2.77496e-07
6.34129e-06
2.42617e-07
6.36874e-06
1.93277e-07
6.38625e-06
1.4385e-07
6.38597e-06
1.11376e-07
6.37224e-06
9.84789e-08
6.35582e-06
9.59136e-08
6.34598e-06
9.38732e-08
6.34656e-06
8.87655e-08
6.35621e-06
8.21968e-08
6.37054e-06
7.77513e-08
6.38475e-06
7.71977e-08
6.39531e-06
7.97293e-08
6.40062e-06
8.34242e-08
8.52459e-08
6.40114e-06
7.716e-06
5.50093e-07
7.71006e-06
3.8007e-07
7.71719e-06
3.0202e-07
7.72183e-06
2.72851e-07
7.72332e-06
2.41124e-07
7.71878e-06
1.97819e-07
7.71372e-06
1.48915e-07
7.71833e-06
1.06764e-07
7.73597e-06
8.08372e-08
7.76076e-06
7.11246e-08
7.78347e-06
7.11593e-08
7.79748e-06
7.47583e-08
7.80122e-06
7.8454e-08
7.79754e-06
8.14348e-08
7.79157e-06
8.31649e-08
7.7877e-06
8.35991e-08
7.78935e-06
8.17808e-08
7.7584e-08
7.79701e-06
9.33148e-06
4.65282e-07
9.35188e-06
3.59669e-07
9.38383e-06
2.70065e-07
9.41903e-06
2.37651e-07
9.43674e-06
2.23413e-07
9.43977e-06
1.94795e-07
9.44109e-06
1.47588e-07
9.44971e-06
9.81465e-08
9.46571e-06
6.48353e-08
9.48306e-06
5.37761e-08
9.49428e-06
5.99436e-08
9.496e-06
7.3039e-08
9.49058e-06
8.38681e-08
9.48445e-06
8.75683e-08
9.48469e-06
8.29229e-08
9.4961e-06
7.21958e-08
9.52031e-06
5.75661e-08
4.25721e-08
9.55532e-06
1.13765e-05
4.44479e-07
1.14235e-05
3.12685e-07
1.1464e-05
2.2955e-07
1.15173e-05
1.84377e-07
1.15765e-05
1.64222e-07
1.16234e-05
1.47801e-07
1.16467e-05
1.24316e-07
1.16468e-05
9.80801e-08
1.16339e-05
7.77187e-08
1.1622e-05
6.57092e-08
1.16225e-05
5.9436e-08
1.16407e-05
5.48339e-08
1.16752e-05
4.93541e-08
1.17203e-05
4.24152e-08
1.17687e-05
3.45287e-08
1.18143e-05
2.6684e-08
1.18523e-05
1.95415e-08
1.37445e-08
1.18811e-05
8.3077e-06
2.715e-07
8.37117e-06
2.49213e-07
8.40721e-06
1.93516e-07
8.45544e-06
1.3615e-07
8.51758e-06
1.02074e-07
8.57697e-06
8.84113e-08
8.61427e-06
8.70198e-08
8.6247e-06
8.76453e-08
8.61744e-06
8.49827e-08
8.60642e-06
7.67305e-08
8.60267e-06
6.31872e-08
8.61081e-06
4.6694e-08
8.62964e-06
3.05183e-08
8.65465e-06
1.74117e-08
8.68059e-06
8.58811e-09
8.70351e-06
3.76591e-09
8.72144e-06
1.61029e-09
1.11318e-09
8.73407e-06
7.3159e-06
2.8747e-07
7.33633e-06
2.28779e-07
7.38308e-06
1.46762e-07
7.42206e-06
9.71698e-08
7.45094e-06
7.32015e-08
7.47619e-06
6.31549e-08
7.50382e-06
5.93893e-08
7.53415e-06
5.73153e-08
7.56494e-06
5.41904e-08
7.59263e-06
4.90439e-08
7.61387e-06
4.19528e-08
7.62709e-06
3.34664e-08
7.63326e-06
2.43543e-08
7.63512e-06
1.55484e-08
7.63601e-06
7.70084e-09
7.63809e-06
1.68858e-09
7.64251e-06
-2.81079e-09
-5.5789e-09
7.6492e-06
6.56029e-06
3.51598e-07
6.53864e-06
2.50436e-07
6.5467e-06
1.38702e-07
6.56145e-06
8.24205e-08
6.57134e-06
6.33055e-08
6.58e-06
5.45022e-08
6.59296e-06
4.64287e-08
6.61013e-06
4.01459e-08
6.6274e-06
3.69174e-08
6.641e-06
3.54424e-08
6.6501e-06
3.28483e-08
6.6567e-06
2.68737e-08
6.66388e-06
1.71757e-08
6.67421e-06
5.2133e-09
6.68763e-06
-5.72085e-09
6.70327e-06
-1.39448e-08
6.71933e-06
-1.88717e-08
-2.00985e-08
6.73385e-06
5.70109e-06
3.42854e-07
5.69053e-06
2.60996e-07
5.67833e-06
1.50904e-07
5.67169e-06
8.90589e-08
5.67315e-06
6.1842e-08
5.68746e-06
4.01998e-08
5.71434e-06
1.95422e-08
5.74579e-06
8.69689e-09
5.77246e-06
1.02478e-08
5.78828e-06
1.96276e-08
5.79369e-06
2.74293e-08
5.79317e-06
2.73935e-08
5.79196e-06
1.83868e-08
5.79349e-06
3.6822e-09
5.80092e-06
-1.31469e-08
5.81318e-06
-2.62014e-08
5.82815e-06
-3.38442e-08
-3.56235e-08
5.84367e-06
4.89377e-06
2.81179e-07
4.96723e-06
1.87545e-07
4.99558e-06
1.22545e-07
5.00232e-06
8.23202e-08
5.01115e-06
5.30116e-08
5.02742e-06
2.39335e-08
5.04508e-06
1.88126e-09
5.0585e-06
-4.7209e-09
5.06922e-06
-4.76649e-10
5.08131e-06
7.5376e-09
5.09796e-06
1.07775e-08
5.11799e-06
7.37177e-09
5.13774e-06
-1.36447e-09
5.15215e-06
-1.07322e-08
5.15803e-06
-1.90256e-08
5.15627e-06
-2.44438e-08
5.14979e-06
-2.73628e-08
-2.88502e-08
5.14302e-06
4.1966e-06
2.48506e-07
4.27014e-06
1.14001e-07
4.3293e-06
6.33803e-08
4.37437e-06
3.72497e-08
4.41396e-06
1.34242e-08
4.43919e-06
-1.29382e-09
4.44495e-06
-3.88147e-09
4.43965e-06
5.75514e-10
4.43719e-06
1.99301e-09
4.44692e-06
-2.19422e-09
4.46916e-06
-1.14687e-08
4.49713e-06
-2.05986e-08
4.52301e-06
-2.7244e-08
4.54233e-06
-3.00496e-08
4.55333e-06
-3.00273e-08
4.5575e-06
-2.86082e-08
4.55751e-06
-2.73761e-08
-2.75647e-08
4.55622e-06
3.73445e-06
2.60831e-07
3.77791e-06
7.05409e-08
3.80281e-06
3.84785e-08
3.80742e-06
3.2634e-08
3.82177e-06
-9.2601e-10
3.84637e-06
-2.58928e-08
3.87487e-06
-3.23774e-08
3.90117e-06
-2.57268e-08
3.92292e-06
-1.97578e-08
3.94026e-06
-1.95296e-08
3.95253e-06
-2.37405e-08
3.96107e-06
-2.91375e-08
3.96738e-06
-3.35515e-08
3.97338e-06
-3.60561e-08
3.98022e-06
-3.68652e-08
3.98822e-06
-3.66078e-08
3.99706e-06
-3.62193e-08
-3.62831e-08
4.00578e-06
3.26536e-06
2.54662e-07
3.30911e-06
2.67867e-08
3.35134e-06
-3.75657e-09
3.38771e-06
-3.73294e-09
3.41176e-06
-2.49716e-08
3.42518e-06
-3.9321e-08
3.43314e-06
-4.03324e-08
3.44209e-06
-3.46719e-08
3.45215e-06
-2.98254e-08
3.4616e-06
-2.89754e-08
3.46989e-06
-3.20322e-08
3.47798e-06
-3.72248e-08
3.48699e-06
-4.25625e-08
3.49728e-06
-4.63485e-08
3.50793e-06
-4.75128e-08
3.5175e-06
-4.6179e-08
3.52454e-06
-4.32618e-08
-4.05294e-08
3.52879e-06
2.94774e-06
1.26112e-07
2.98192e-06
-7.39664e-09
2.99343e-06
-1.52593e-08
3.019e-06
-2.93025e-08
3.03282e-06
-3.8791e-08
3.02934e-06
-3.5844e-08
3.022e-06
-3.29907e-08
3.02413e-06
-3.68088e-08
3.03804e-06
-4.37332e-08
3.058e-06
-4.89355e-08
3.07722e-06
-5.12552e-08
3.09204e-06
-5.20388e-08
3.10209e-06
-5.26181e-08
3.10904e-06
-5.32916e-08
3.11462e-06
-5.30932e-08
3.1199e-06
-5.1457e-08
3.12509e-06
-4.84539e-08
-4.51677e-08
3.12973e-06
2.52079e-06
3.76069e-08
2.57223e-06
-5.88456e-08
2.59221e-06
-3.52359e-08
2.60706e-06
-4.41479e-08
2.62316e-06
-5.48951e-08
2.64237e-06
-5.50523e-08
2.66166e-06
-5.22768e-08
2.67571e-06
-5.0864e-08
2.68101e-06
-4.90339e-08
2.67759e-06
-4.55124e-08
2.66836e-06
-4.20271e-08
2.6573e-06
-4.09771e-08
2.6474e-06
-4.27244e-08
2.63967e-06
-4.55543e-08
2.63359e-06
-4.70144e-08
2.62812e-06
-4.5989e-08
2.62243e-06
-4.27628e-08
-3.87869e-08
2.61605e-06
2.19607e-06
2.13723e-06
2.10199e-06
2.05785e-06
2.00295e-06
1.9479e-06
1.89562e-06
1.84476e-06
1.79572e-06
1.75021e-06
1.70818e-06
1.66721e-06
1.62448e-06
1.57893e-06
1.53191e-06
1.48592e-06
1.44316e-06
1.40437e-06
3.31353e-08
-3.31353e-08
6.69226e-08
-3.37873e-08
9.76023e-08
-3.06797e-08
1.23839e-07
-2.62371e-08
1.44808e-07
-2.09683e-08
1.59821e-07
-1.50135e-08
1.68251e-07
-8.43002e-09
1.69478e-07
-1.22717e-09
1.63073e-07
6.40555e-09
1.48409e-07
1.46634e-08
1.24799e-07
2.361e-08
9.14914e-08
3.33079e-08
4.77006e-08
4.37909e-08
-7.33892e-09
5.50395e-08
-7.43125e-08
6.69735e-08
-1.53758e-07
7.94457e-08
-2.46024e-07
9.22662e-08
-3.51193e-07
1.05169e-07
-4.69054e-07
1.17861e-07
-5.99101e-07
1.30047e-07
-7.40558e-07
1.41457e-07
-8.9253e-07
1.51971e-07
-1.05387e-06
1.61345e-07
-1.22295e-06
1.69071e-07
-1.39813e-06
1.7518e-07
-1.57775e-06
1.79628e-07
-1.76012e-06
1.82369e-07
-1.94349e-06
1.83371e-07
-2.12611e-06
1.82612e-07
-2.30617e-06
1.80066e-07
-2.4819e-06
1.75729e-07
-2.65151e-06
1.69607e-07
-2.8132e-06
1.61695e-07
-2.96519e-06
1.51989e-07
-3.1057e-06
1.40502e-07
-3.23295e-06
1.27255e-07
-3.34525e-06
1.12304e-07
-3.44104e-06
9.5786e-08
-3.51893e-06
7.78858e-08
-3.57771e-06
5.8788e-08
-3.6165e-06
3.87862e-08
-3.63482e-06
1.8317e-08
-3.63265e-06
-2.16906e-09
-3.61019e-06
-2.24617e-08
-3.56816e-06
-4.20261e-08
-3.50733e-06
-6.08312e-08
-3.42854e-06
-7.87858e-08
-3.33279e-06
-9.57494e-08
-3.22117e-06
-1.11623e-07
-3.09487e-06
-1.26304e-07
-2.95518e-06
-1.39689e-07
-2.80351e-06
-1.51668e-07
-2.64139e-06
-1.6212e-07
-2.47046e-06
-1.70925e-07
-2.29249e-06
-1.77976e-07
-2.10928e-06
-1.83205e-07
-1.92268e-06
-1.86597e-07
-1.73449e-06
-1.88197e-07
-1.54638e-06
-1.88106e-07
-1.3599e-06
-1.86479e-07
-1.1764e-06
-1.83499e-07
-9.97036e-07
-1.79367e-07
-8.22746e-07
-1.7429e-07
-6.54257e-07
-1.68489e-07
-4.92156e-07
-1.62101e-07
-3.36787e-07
-1.55369e-07
-1.88472e-07
-1.48315e-07
-4.74662e-08
-1.41006e-07
8.67319e-08
-1.34198e-07
2.13832e-07
-1.271e-07
3.33981e-07
-1.2015e-07
4.47348e-07
-1.13366e-07
5.54132e-07
-1.06784e-07
6.5456e-07
-1.00428e-07
7.48871e-07
-9.43108e-08
8.37309e-07
-8.84382e-08
9.2012e-07
-8.28114e-08
9.97548e-07
-7.74279e-08
1.06983e-06
-7.22825e-08
1.1372e-06
-6.73691e-08
1.19988e-06
-6.26806e-08
1.25809e-06
-5.82101e-08
1.31204e-06
-5.39507e-08
1.36194e-06
-4.98961e-08
1.40798e-06
-4.60406e-08
1.45036e-06
-4.23787e-08
1.48926e-06
-3.89058e-08
1.52488e-06
-3.56176e-08
1.55739e-06
-3.25099e-08
1.58697e-06
-2.95789e-08
1.61379e-06
-2.68207e-08
1.63802e-06
-2.42315e-08
1.65983e-06
-2.1807e-08
1.67937e-06
-1.9543e-08
1.69681e-06
-1.74344e-08
1.71228e-06
-1.54762e-08
1.72594e-06
-1.3663e-08
1.73793e-06
-1.19887e-08
1.74838e-06
-1.04468e-08
1.75741e-06
-9.03105e-09
1.76515e-06
-7.73488e-09
1.7717e-06
-6.55272e-09
1.77718e-06
-5.47719e-09
1.78168e-06
-4.5e-09
1.78529e-06
-3.61545e-09
1.78811e-06
-2.81444e-09
1.7902e-06
-2.09239e-09
1.79164e-06
-1.44115e-09
1.79249e-06
-8.52677e-10
1.79282e-06
-3.26045e-10
1.79266e-06
1.60881e-10
1.79204e-06
6.21958e-10
1.791e-06
1.03584e-09
1.7896e-06
1.40376e-09
1.78787e-06
1.73042e-09
1.78584e-06
2.02105e-09
1.78356e-06
2.28203e-09
1.78105e-06
2.51627e-09
1.77832e-06
2.72344e-09
1.77542e-06
2.9062e-09
1.77234e-06
3.07406e-09
1.76912e-06
3.22656e-09
1.76575e-06
3.3649e-09
1.76226e-06
3.49201e-09
1.75865e-06
3.60691e-09
1.75494e-06
3.70916e-09
1.75115e-06
3.79733e-09
1.74728e-06
3.86839e-09
1.74336e-06
3.9213e-09
1.7394e-06
3.95806e-09
1.73541e-06
3.98266e-09
1.73141e-06
4.00033e-09
1.7274e-06
4.01565e-09
1.72337e-06
4.03199e-09
1.71932e-06
4.05088e-09
1.71524e-06
4.07263e-09
1.71115e-06
4.09662e-09
1.70702e-06
4.1223e-09
1.70288e-06
4.14892e-09
1.6987e-06
4.17616e-09
1.6945e-06
4.20379e-09
1.69026e-06
4.23176e-09
1.686e-06
4.26018e-09
1.68171e-06
4.28914e-09
1.6774e-06
4.31882e-09
1.67305e-06
4.34932e-09
1.66867e-06
4.3808e-09
1.66425e-06
4.41338e-09
1.6598e-06
4.44726e-09
1.65532e-06
4.48265e-09
1.6508e-06
4.51981e-09
1.64624e-06
4.55918e-09
1.64164e-06
4.60115e-09
1.637e-06
4.64628e-09
1.6323e-06
4.69518e-09
1.62755e-06
4.7489e-09
1.62274e-06
4.80829e-09
1.61787e-06
4.87514e-09
1.61292e-06
4.9508e-09
1.60788e-06
5.03799e-09
1.60274e-06
5.13978e-09
1.59748e-06
5.25891e-09
1.59208e-06
5.40387e-09
1.5865e-06
5.57338e-09
1.58071e-06
5.79246e-09
1.57467e-06
6.04102e-09
1.56828e-06
6.395e-09
1.56151e-06
6.76379e-09
1.55413e-06
7.3811e-09
1.54621e-06
7.91685e-09
1.53712e-06
9.09802e-09
1.5273e-06
9.81777e-09
1.51497e-06
1.23321e-08
1.50189e-06
1.30737e-08
1.48283e-06
1.90641e-08
1.46381e-06
1.90171e-08
1.42887e-06
3.49365e-08
1.39697e-06
3.19008e-08
1.3135e-06
8.3478e-08
7.83591e-08
1.23514e-06
-1.7758e-08
-1.53773e-08
-4.74551e-08
-4.09019e-09
-8.00099e-08
1.87513e-09
-1.16067e-07
9.82026e-09
-1.56057e-07
1.90211e-08
-2.00372e-07
2.93023e-08
-2.49376e-07
4.05734e-08
-3.03472e-07
5.28694e-08
-3.63316e-07
6.62494e-08
-4.29386e-07
8.07335e-08
-5.02068e-07
9.6292e-08
-5.81633e-07
1.12873e-07
-6.68234e-07
1.30392e-07
-7.61905e-07
1.4871e-07
-8.62577e-07
1.67646e-07
-9.70086e-07
1.86955e-07
-1.08404e-06
2.06216e-07
-1.20379e-06
2.24921e-07
-1.32868e-06
2.42757e-07
-1.45805e-06
2.59416e-07
-1.59121e-06
2.74612e-07
-1.72735e-06
2.88111e-07
-1.86572e-06
2.99714e-07
-2.00588e-06
3.09232e-07
-2.14723e-06
3.16532e-07
-2.28912e-06
3.2152e-07
-2.43086e-06
3.24109e-07
-2.57169e-06
3.24197e-07
-2.71073e-06
3.21659e-07
-2.84701e-06
3.16345e-07
-2.97948e-06
3.08194e-07
-3.10707e-06
2.97204e-07
-3.22856e-06
2.83179e-07
-3.34254e-06
2.65971e-07
-3.44754e-06
2.45498e-07
-3.54202e-06
2.21744e-07
-3.6245e-06
1.94777e-07
-3.6935e-06
1.64783e-07
-3.74768e-06
1.32073e-07
-3.78595e-06
9.70583e-08
-3.80743e-06
6.02654e-08
-3.81143e-06
2.23175e-08
-3.79684e-06
-1.67643e-08
-3.76334e-06
-5.59563e-08
-3.71089e-06
-9.44745e-08
-3.63985e-06
-1.31878e-07
-3.55094e-06
-1.67693e-07
-3.44512e-06
-2.01574e-07
-3.32347e-06
-2.33266e-07
-3.1872e-06
-2.62576e-07
-3.03757e-06
-2.89317e-07
-2.87597e-06
-3.13277e-07
-2.70387e-06
-3.34214e-07
-2.52293e-06
-3.51868e-07
-2.3349e-06
-3.66002e-07
-2.14166e-06
-3.7645e-07
-1.94509e-06
-3.83168e-07
-1.74704e-06
-3.86245e-07
-1.54924e-06
-3.85904e-07
-1.35324e-06
-3.82482e-07
-1.16035e-06
-3.76385e-07
-9.71712e-07
-3.68007e-07
-7.88212e-07
-3.57791e-07
-6.10565e-07
-3.46135e-07
-4.39237e-07
-3.33429e-07
-2.74561e-07
-3.20045e-07
-1.16765e-07
-3.06111e-07
3.43702e-08
-2.92141e-07
1.7842e-07
-2.78248e-07
3.15745e-07
-2.64424e-07
4.46454e-07
-2.50859e-07
5.70735e-07
-2.37647e-07
6.88802e-07
-2.24852e-07
8.00889e-07
-2.12515e-07
9.07235e-07
-2.00658e-07
1.00809e-06
-1.89288e-07
1.10368e-06
-1.78405e-07
1.19425e-06
-1.68e-07
1.28003e-06
-1.58058e-07
1.36122e-06
-1.48565e-07
1.43805e-06
-1.39504e-07
1.51069e-06
-1.30857e-07
1.57935e-06
-1.22608e-07
1.6442e-06
-1.14741e-07
1.7054e-06
-1.07242e-07
1.76312e-06
-1.00097e-07
1.8175e-06
-9.32949e-08
1.86871e-06
-8.68239e-08
1.91688e-06
-8.0674e-08
1.96213e-06
-7.48357e-08
2.00461e-06
-6.93001e-08
2.04444e-06
-6.40585e-08
2.08173e-06
-5.91023e-08
2.11661e-06
-5.44229e-08
2.14919e-06
-5.00115e-08
2.17957e-06
-4.58593e-08
2.20787e-06
-4.19571e-08
2.23418e-06
-3.82958e-08
2.25859e-06
-3.48659e-08
2.28122e-06
-3.16579e-08
2.30215e-06
-2.86618e-08
2.32146e-06
-2.58678e-08
2.33925e-06
-2.32656e-08
2.3556e-06
-2.08448e-08
2.37058e-06
-1.85958e-08
2.38427e-06
-1.65082e-08
2.39675e-06
-1.45725e-08
2.40809e-06
-1.27793e-08
2.41835e-06
-1.11183e-08
2.42761e-06
-9.58418e-09
2.43594e-06
-8.16522e-09
2.44341e-06
-6.84752e-09
2.45007e-06
-5.6281e-09
2.45598e-06
-4.5031e-09
2.46118e-06
-3.46757e-09
2.46571e-06
-2.51207e-09
2.46962e-06
-1.62898e-09
2.47295e-06
-8.15338e-10
2.47573e-06
-5.59103e-11
2.478e-06
6.36741e-10
2.47979e-06
1.28615e-09
2.48113e-06
1.88397e-09
2.48206e-06
2.43564e-09
2.48261e-06
2.94719e-09
2.4828e-06
3.41571e-09
2.48266e-06
3.84306e-09
2.48223e-06
4.2312e-09
2.48152e-06
4.57953e-09
2.48055e-06
4.8892e-09
2.47935e-06
5.16316e-09
2.47792e-06
5.4055e-09
2.4763e-06
5.62146e-09
2.4745e-06
5.81701e-09
2.47253e-06
5.99844e-09
2.47041e-06
6.17121e-09
2.46815e-06
6.33942e-09
2.46574e-06
6.50547e-09
2.46319e-06
6.67e-09
2.46051e-06
6.83254e-09
2.45769e-06
6.99209e-09
2.45475e-06
7.14754e-09
2.45168e-06
7.29806e-09
2.4485e-06
7.44336e-09
2.4452e-06
7.5834e-09
2.4418e-06
7.71857e-09
2.4383e-06
7.84929e-09
2.43471e-06
7.97612e-09
2.43102e-06
8.09967e-09
2.42725e-06
8.22067e-09
2.42339e-06
8.33984e-09
2.41945e-06
8.45803e-09
2.41544e-06
8.57623e-09
2.41134e-06
8.69541e-09
2.40717e-06
8.81691e-09
2.40292e-06
8.94212e-09
2.3986e-06
9.07278e-09
2.3942e-06
9.21113e-09
2.38971e-06
9.35949e-09
2.38514e-06
9.52202e-09
2.38048e-06
9.7011e-09
2.37571e-06
9.90571e-09
2.37084e-06
1.01357e-08
2.36583e-06
1.04125e-08
2.36068e-06
1.0725e-08
2.35534e-06
1.11281e-08
2.34981e-06
1.15717e-08
2.344e-06
1.22048e-08
2.33791e-06
1.28509e-08
2.33136e-06
1.39289e-08
2.32442e-06
1.48634e-08
2.31665e-06
1.68672e-08
2.3083e-06
1.8163e-08
2.29838e-06
2.22563e-08
2.2876e-06
2.38528e-08
2.27359e-06
3.3072e-08
2.258e-06
3.46064e-08
2.23527e-06
5.76692e-08
2.20777e-06
5.9401e-08
2.16737e-06
1.23875e-07
1.34657e-07
2.11108e-06
-5.19723e-08
3.6595e-08
-1.18023e-07
6.19608e-08
-1.84241e-07
6.80931e-08
-2.5167e-07
7.72485e-08
-3.20398e-07
8.77499e-08
-3.90855e-07
9.97588e-08
-4.63451e-07
1.13169e-07
-5.38521e-07
1.27939e-07
-6.16283e-07
1.44012e-07
-6.9686e-07
1.6131e-07
-7.80292e-07
1.79724e-07
-8.66552e-07
1.99132e-07
-9.55547e-07
2.19387e-07
-1.04714e-06
2.40302e-07
-1.14114e-06
2.61647e-07
-1.23732e-06
2.83136e-07
-1.33554e-06
3.04434e-07
-1.43583e-06
3.25212e-07
-1.53827e-06
3.45193e-07
-1.64299e-06
3.64139e-07
-1.75022e-06
3.8184e-07
-1.86022e-06
3.98112e-07
-1.97327e-06
4.12766e-07
-2.08964e-06
4.25602e-07
-2.2095e-06
4.36395e-07
-2.33286e-06
4.4488e-07
-2.45951e-06
4.50756e-07
-2.58899e-06
4.53682e-07
-2.72061e-06
4.53278e-07
-2.85341e-06
4.49144e-07
-2.9861e-06
4.40883e-07
-3.11701e-06
4.28117e-07
-3.24431e-06
4.10476e-07
-3.36598e-06
3.87643e-07
-3.47989e-06
3.59404e-07
-3.58383e-06
3.25679e-07
-3.67559e-06
2.86545e-07
-3.75307e-06
2.42258e-07
-3.81431e-06
1.93315e-07
-3.85769e-06
1.4044e-07
-3.88197e-06
8.45404e-08
-3.8864e-06
2.67518e-08
-3.87018e-06
-3.29856e-08
-3.83326e-06
-9.28779e-08
-3.77624e-06
-1.51496e-07
-3.69999e-06
-2.08127e-07
-3.60556e-06
-2.62116e-07
-3.49414e-06
-3.13e-07
-3.36693e-06
-3.60471e-07
-3.22519e-06
-4.04319e-07
-3.07017e-06
-4.44334e-07
-2.90322e-06
-4.80233e-07
-2.72579e-06
-5.11644e-07
-2.53953e-06
-5.38128e-07
-2.34629e-06
-5.59237e-07
-2.1481e-06
-5.74638e-07
-1.94704e-06
-5.84234e-07
-1.74509e-06
-5.88189e-07
-1.5441e-06
-5.869e-07
-1.34565e-06
-5.80934e-07
-1.15109e-06
-5.70946e-07
-9.61476e-07
-5.57616e-07
-7.77665e-07
-5.41602e-07
-6.00252e-07
-5.23548e-07
-4.29604e-07
-5.04077e-07
-2.66052e-07
-4.83598e-07
-1.09607e-07
-4.62556e-07
3.96972e-08
-4.41445e-07
1.81953e-07
-4.20504e-07
3.17348e-07
-3.99819e-07
4.46085e-07
-3.79596e-07
5.68404e-07
-3.59966e-07
6.84566e-07
-3.41013e-07
7.9484e-07
-3.22789e-07
8.99498e-07
-3.05316e-07
9.98808e-07
-2.88598e-07
1.09303e-06
-2.72626e-07
1.18241e-06
-2.5738e-07
1.26719e-06
-2.42835e-07
1.34759e-06
-2.28966e-07
1.42382e-06
-2.15742e-07
1.4961e-06
-2.03134e-07
1.56461e-06
-1.91116e-07
1.62953e-06
-1.79661e-07
1.69103e-06
-1.68743e-07
1.74927e-06
-1.58342e-07
1.80441e-06
-1.48435e-07
1.8566e-06
-1.39004e-07
1.90595e-06
-1.30031e-07
1.95262e-06
-1.21499e-07
1.99671e-06
-1.13392e-07
2.03834e-06
-1.05696e-07
2.07764e-06
-9.83949e-08
2.11469e-06
-9.14754e-08
2.1496e-06
-8.49231e-08
2.18247e-06
-7.87242e-08
2.21337e-06
-7.2865e-08
2.24241e-06
-6.73318e-08
2.26966e-06
-6.21112e-08
2.29519e-06
-5.71902e-08
2.31908e-06
-5.25555e-08
2.34141e-06
-4.81945e-08
2.36224e-06
-4.40944e-08
2.38163e-06
-4.02427e-08
2.39967e-06
-3.6627e-08
2.41639e-06
-3.32356e-08
2.43188e-06
-3.00566e-08
2.44618e-06
-2.70791e-08
2.45935e-06
-2.42923e-08
2.47145e-06
-2.16856e-08
2.48253e-06
-1.92474e-08
2.49265e-06
-1.69665e-08
2.50186e-06
-1.48351e-08
2.5102e-06
-1.28468e-08
2.51773e-06
-1.09942e-08
2.52449e-06
-9.26899e-09
2.53052e-06
-7.66114e-09
2.53587e-06
-6.16383e-09
2.54058e-06
-4.77193e-09
2.5447e-06
-3.48141e-09
2.54827e-06
-2.2784e-09
2.55131e-06
-1.15976e-09
2.55387e-06
-1.22697e-10
2.55597e-06
8.50779e-10
2.55763e-06
1.74846e-09
2.5589e-06
2.57669e-09
2.55979e-06
3.34147e-09
2.56033e-06
4.04287e-09
2.56053e-06
4.68456e-09
2.56042e-06
5.27067e-09
2.56002e-06
5.80571e-09
2.55935e-06
6.29506e-09
2.55842e-06
6.74485e-09
2.55726e-06
7.16187e-09
2.55588e-06
7.55289e-09
2.55429e-06
7.92384e-09
2.55252e-06
8.27889e-09
2.55057e-06
8.62052e-09
2.54845e-06
8.94954e-09
2.54618e-06
9.26592e-09
2.54376e-06
9.56923e-09
2.54119e-06
9.85919e-09
2.5385e-06
1.01359e-08
2.53569e-06
1.03997e-08
2.53275e-06
1.06516e-08
2.52971e-06
1.08925e-08
2.52656e-06
1.11234e-08
2.52332e-06
1.13457e-08
2.51998e-06
1.15604e-08
2.51655e-06
1.17689e-08
2.51303e-06
1.19726e-08
2.50944e-06
1.2173e-08
2.50576e-06
1.23718e-08
2.50201e-06
1.25708e-08
2.49817e-06
1.27724e-08
2.49427e-06
1.29786e-08
2.49029e-06
1.31934e-08
2.48623e-06
1.34187e-08
2.48209e-06
1.3662e-08
2.47786e-06
1.3924e-08
2.47355e-06
1.42202e-08
2.46914e-06
1.45459e-08
2.46462e-06
1.49356e-08
2.45998e-06
1.53665e-08
2.45518e-06
1.59207e-08
2.45023e-06
1.65213e-08
2.44507e-06
1.73731e-08
2.43967e-06
1.82414e-08
2.43395e-06
1.96534e-08
2.42788e-06
2.09312e-08
2.42129e-06
2.3457e-08
2.41411e-06
2.53468e-08
2.40613e-06
3.02399e-08
2.39694e-06
3.30414e-08
2.38666e-06
4.33468e-08
2.37345e-06
4.78204e-08
2.35966e-06
7.14527e-08
2.3382e-06
8.08635e-08
2.32238e-06
1.39699e-07
1.68095e-07
2.28894e-06
-6.07193e-08
9.73143e-08
-1.36356e-07
1.37597e-07
-2.11496e-07
1.43233e-07
-2.86644e-07
1.52397e-07
-3.6192e-07
1.63025e-07
-4.37473e-07
1.75312e-07
-5.13409e-07
1.89106e-07
-5.89886e-07
2.04416e-07
-6.67006e-07
2.21132e-07
-7.44866e-07
2.39171e-07
-8.23602e-07
2.5846e-07
-9.03366e-07
2.78896e-07
-9.84301e-07
3.00321e-07
-1.06654e-06
3.22543e-07
-1.15024e-06
3.45343e-07
-1.2356e-06
3.68495e-07
-1.32296e-06
3.91793e-07
-1.4128e-06
4.15057e-07
-1.50573e-06
4.38124e-07
-1.60243e-06
4.60835e-07
-1.7036e-06
4.83011e-07
-1.80991e-06
5.04418e-07
-1.92188e-06
5.2474e-07
-2.03984e-06
5.43561e-07
-2.16383e-06
5.60382e-07
-2.2936e-06
5.74651e-07
-2.42863e-06
5.85786e-07
-2.56812e-06
5.93171e-07
-2.711e-06
5.96163e-07
-2.85594e-06
5.94086e-07
-3.0013e-06
5.86246e-07
-3.14516e-06
5.7197e-07
-3.28533e-06
5.50645e-07
-3.41944e-06
5.21752e-07
-3.54496e-06
4.84925e-07
-3.65929e-06
4.40015e-07
-3.75988e-06
3.87136e-07
-3.84433e-06
3.26701e-07
-3.91048e-06
2.59467e-07
-3.95653e-06
1.86494e-07
-3.98111e-06
1.09121e-07
-3.98355e-06
2.91854e-08
-3.96323e-06
-5.33041e-08
-3.9205e-06
-1.35604e-07
-3.85619e-06
-2.15809e-07
-3.77158e-06
-2.92729e-07
-3.66821e-06
-3.65491e-07
-3.5476e-06
-4.3361e-07
-3.4112e-06
-4.96871e-07
-3.26034e-06
-5.55177e-07
-3.09629e-06
-6.08391e-07
-2.9203e-06
-6.56216e-07
-2.7338e-06
-6.98144e-07
-2.53847e-06
-7.33463e-07
-2.33634e-06
-7.61366e-07
-2.12976e-06
-7.81217e-07
-1.92117e-06
-7.92829e-07
-1.71286e-06
-7.96494e-07
-1.50685e-06
-7.92914e-07
-1.30475e-06
-7.83035e-07
-1.1078e-06
-7.67895e-07
-9.16879e-07
-7.48534e-07
-7.32564e-07
-7.25917e-07
-5.55261e-07
-7.00851e-07
-3.85156e-07
-6.74183e-07
-2.22443e-07
-6.4631e-07
-6.69567e-08
-6.18042e-07
8.11961e-08
-5.89598e-07
2.22194e-07
-5.61502e-07
3.56207e-07
-5.33833e-07
4.83463e-07
-5.06851e-07
6.0423e-07
-4.80733e-07
7.18801e-07
-4.55584e-07
8.27474e-07
-4.31462e-07
9.30541e-07
-4.08384e-07
1.02829e-06
-3.86343e-07
1.12098e-06
-3.65317e-07
1.20887e-06
-3.45271e-07
1.2922e-06
-3.26167e-07
1.3712e-06
-3.07963e-07
1.44607e-06
-2.90617e-07
1.51703e-06
-2.74089e-07
1.58425e-06
-2.58339e-07
1.64792e-06
-2.43331e-07
1.70821e-06
-2.29031e-07
1.76527e-06
-2.15408e-07
1.81927e-06
-2.02432e-07
1.87035e-06
-1.90078e-07
1.91864e-06
-1.78321e-07
1.96427e-06
-1.67137e-07
2.00739e-06
-1.56503e-07
2.04809e-06
-1.464e-07
2.0865e-06
-1.36805e-07
2.12272e-06
-1.27699e-07
2.15686e-06
-1.19062e-07
2.18901e-06
-1.10874e-07
2.21926e-06
-1.03118e-07
2.24771e-06
-9.57747e-08
2.27442e-06
-8.8826e-08
2.29949e-06
-8.22545e-08
2.32297e-06
-7.60435e-08
2.34496e-06
-7.01766e-08
2.3655e-06
-6.46378e-08
2.38467e-06
-5.94119e-08
2.40253e-06
-5.44839e-08
2.41913e-06
-4.98397e-08
2.43454e-06
-4.54653e-08
2.44881e-06
-4.13478e-08
2.46199e-06
-3.74742e-08
2.47414e-06
-3.38318e-08
2.4853e-06
-3.04089e-08
2.49552e-06
-2.71938e-08
2.50487e-06
-2.41759e-08
2.51336e-06
-2.13461e-08
2.52106e-06
-1.86949e-08
2.52801e-06
-1.62134e-08
2.53424e-06
-1.38919e-08
2.5398e-06
-1.17194e-08
2.54471e-06
-9.68822e-09
2.54902e-06
-7.79385e-09
2.55277e-06
-6.0256e-09
2.55599e-06
-4.37503e-09
2.5587e-06
-2.8371e-09
2.56095e-06
-1.40055e-09
2.56276e-06
-6.31478e-11
2.56417e-06
1.17171e-09
2.56519e-06
2.32269e-09
2.56585e-06
3.38566e-09
2.56616e-06
4.36771e-09
2.56616e-06
5.27381e-09
2.56585e-06
6.10982e-09
2.56527e-06
6.88196e-09
2.56442e-06
7.59705e-09
2.56332e-06
8.26209e-09
2.56198e-06