/*--------------------------------*- C++ -*----------------------------------*\
  =========                 |
  \\      /  F ield         | OpenFOAM: The Open Source CFD Toolbox
   \\    /   O peration     | Website:  https://openfoam.org
    \\  /    A nd           | Version:  7
     \\/     M anipulation  |
\*---------------------------------------------------------------------------*/
FoamFile
{
    version     2.0;
    format      ascii;
    class       volScalarField;
    location    "0.024";
    object      pMean;
}
// * * * * * * * * * * * * * * * * * * * * * * * * * * * * * * * * * * * * * //

dimensions      [0 2 -2 0 0 0 0];

internalField   nonuniform List<scalar> 
12225
(
0.553498
1.57823
1.9717
2.05845
2.07861
2.07328
2.04709
2.00028
1.93678
1.86166
1.77895
1.68653
1.58292
1.45325
1.29478
1.04718
0.711959
-0.102067
0.882909
1.59076
1.96974
2.0645
2.08069
2.07334
2.0476
2.0022
1.93981
1.86577
1.78326
1.69261
1.58749
1.46459
1.29813
1.09217
0.746412
0.381146
1.05745
1.57349
1.94935
2.06631
2.08352
2.07547
2.05211
2.01033
1.95194
1.88088
1.80107
1.71089
1.60899
1.48447
1.33313
1.12986
0.874094
0.549947
1.25111
1.6113
1.95377
2.08189
2.09827
2.08644
2.06253
2.02325
1.96761
1.8993
1.82065
1.73306
1.63155
1.51449
1.36802
1.19349
0.972818
0.729301
1.41804
1.65001
1.95213
2.08921
2.11021
2.09654
2.07226
2.03525
1.98316
1.91783
1.84231
1.75714
1.66051
1.54828
1.41576
1.26024
1.08118
0.896479
1.58237
1.70909
1.96521
2.10433
2.13094
2.11565
2.08938
2.05347
2.00413
1.94194
1.86912
1.78713
1.69473
1.59001
1.47034
1.33548
1.19003
1.04446
1.73226
1.77637
1.98577
2.12046
2.15275
2.13712
2.10876
2.07299
2.02625
1.96748
1.89845
1.82057
1.73381
1.63732
1.53064
1.4152
1.29607
1.18174
1.87308
1.85579
2.0198
2.14395
2.17985
2.16497
2.13495
2.09901
2.05441
1.99888
1.93338
1.85984
1.77925
1.69163
1.59767
1.49927
1.40137
1.31042
1.99739
1.93921
2.0632
2.17305
2.21004
2.19683
2.16586
2.12914
2.08584
2.0336
1.9725
1.90403
1.82978
1.75082
1.66855
1.58509
1.50453
1.43153
2.11717
2.029
2.11879
2.21143
2.24598
2.2341
2.20291
2.1658
2.12372
2.07428
2.01722
1.95409
1.88663
1.8163
1.74476
1.67409
1.60746
1.5482
2.23123
2.1215
2.18315
2.25819
2.28789
2.2766
2.24564
2.2081
2.16667
2.11988
2.06702
2.00906
1.94797
1.88554
1.82356
1.76375
1.70859
1.66024
2.33091
2.20814
2.24949
2.30921
2.33279
2.32077
2.29002
2.25253
2.21171
2.16699
2.11767
2.06458
2.00936
1.95371
1.89942
1.84802
1.80137
1.76089
2.44023
2.29944
2.32168
2.36712
2.38382
2.37005
2.33923
2.3018
2.26177
2.21889
2.17273
2.1238
2.07368
2.02408
1.97659
1.93239
1.8929
1.85906
2.56274
2.4065
2.41092
2.44234
2.45083
2.43377
2.40221
2.36477
2.32509
2.28384
2.24092
2.19671
2.15229
2.10895
2.06807
2.03068
1.99783
1.97002
2.67953
2.52538
2.52003
2.53785
2.53653
2.51469
2.48154
2.44406
2.40542
2.36615
2.32624
2.28611
2.24682
2.20945
2.17505
2.1442
2.11755
2.09534
2.85106
2.68009
2.65844
2.66271
2.65088
2.62233
2.58566
2.54665
2.50782
2.46979
2.43259
2.39646
2.36199
2.32988
2.30092
2.27554
2.25411
2.23662
3.02914
2.85482
2.82517
2.81791
2.79539
2.75884
2.71703
2.67524
2.63529
2.59733
2.56131
2.52749
2.4964
2.46848
2.44408
2.4233
2.40634
2.39302
3.22115
3.05881
3.02784
3.01049
2.97507
2.9276
2.87848
2.8326
2.79097
2.75296
2.71803
2.68612
2.65758
2.63265
2.61144
2.59386
2.57993
2.56946
3.53529
3.34849
3.29661
3.26141
3.20957
3.14691
3.08477
3.02837
2.97864
2.93478
2.896
2.86204
2.83291
2.80857
2.78884
2.77333
2.76176
2.75367
3.82865
3.63438
3.56293
3.50241
3.4272
3.34724
3.27391
3.21062
3.15609
3.10818
3.0657
3.02843
2.99661
2.9702
2.94889
2.93218
2.91969
2.91094
4.08552
3.88005
3.78718
3.69886
3.59735
3.49568
3.40515
3.32829
3.26365
3.2089
3.16243
3.12344
3.09134
3.06542
3.04502
3.02942
3.0182
3.01081
4.36421
4.12977
3.99888
3.87565
3.751
3.63773
3.54148
3.45903
3.38662
3.32312
3.26882
3.22366
3.18694
3.1576
3.13466
3.11713
3.10433
3.09559
4.652
4.3724
4.18216
4.00768
3.84794
3.71308
3.60387
3.51407
3.43812
3.37351
3.31937
3.27506
3.23952
3.21129
3.18921
3.17244
3.16049
3.15275
4.95091
4.61519
4.36046
4.14686
3.97378
3.83462
3.71675
3.61205
3.52064
3.44439
3.3831
3.33449
3.29588
3.26526
3.24144
3.22351
3.21079
3.20246
5.23278
4.81448
4.45856
4.18822
3.99887
3.85914
3.74115
3.63609
3.54518
3.47045
3.41086
3.36335
3.3253
3.29504
3.27163
3.25427
3.24227
3.23476
5.60665
5.06383
4.60706
4.29889
4.10227
3.95065
3.81281
3.68968
3.588
3.50825
3.446
3.39655
3.35692
3.32556
3.30153
3.28391
3.27181
3.2643
5.92503
5.15828
4.59624
4.28999
4.1154
3.96868
3.82725
3.70157
3.60043
3.52217
3.46089
3.41179
3.37235
3.34128
3.31771
3.30066
3.28923
3.28244
6.43824
5.37983
4.67529
4.3549
4.17604
4.01128
3.85554
3.72382
3.62062
3.54106
3.47854
3.42849
3.38848
3.35722
3.3337
3.31692
3.30585
3.29947
6.68123
5.34817
4.64126
4.36711
4.19104
4.01915
3.86025
3.72911
3.627
3.54797
3.48564
3.43576
3.39601
3.36506
3.3419
3.32564
3.31518
3.30971
7.46685
5.3937
4.6434
4.40063
4.21287
4.03051
3.86865
3.73712
3.63467
3.55514
3.49241
3.44234
3.40251
3.37158
3.34848
3.33234
3.32209
3.31705
2.59579
2.59542
2.59398
2.59201
2.58948
2.58655
2.58332
2.57984
2.57619
2.57241
2.56856
2.56469
2.56081
2.55697
2.55321
2.54957
2.5461
2.5429
2.54007
2.53778
2.53622
2.53571
2.53665
2.53955
2.54503
2.55385
2.56689
2.58517
2.60977
2.6419
2.68278
2.73367
2.79579
2.87025
2.95802
3.05986
3.17622
3.30726
3.45274
3.61208
3.78429
3.96802
4.16159
4.36304
4.57015
4.78065
4.99226
5.20282
5.41024
5.6127
5.80852
5.99625
6.17469
6.34286
6.49999
6.64558
6.77932
6.90111
7.01106
7.10944
7.19667
7.27326
7.33985
7.39711
7.44573
7.48645
7.51998
7.54699
7.56817
7.58417
7.59553
7.60279
7.60643
7.60688
7.60455
7.59978
7.5929
7.58419
7.57391
7.56227
7.54948
7.5357
7.52109
7.50579
7.48991
7.47356
7.45681
7.43976
7.42246
7.40497
7.38734
7.36962
7.35183
7.33401
7.31617
7.29835
7.28055
7.26279
7.24507
7.22741
7.20981
7.19226
7.17478
7.15736
7.14
7.1227
7.10545
7.08825
7.0711
7.05398
7.0369
7.01984
7.0028
6.98577
6.96875
6.95174
6.93472
6.91769
6.90065
6.88358
6.86649
6.84937
6.8322
6.81499
6.79773
6.78042
6.76305
6.74561
6.72811
6.71053
6.69287
6.67513
6.6573
6.63938
6.62136
6.60324
6.58502
6.56668
6.54824
6.52968
6.51101
6.49221
6.47329
6.45425
6.43507
6.41577
6.39634
6.37678
6.35708
6.33725
6.31728
6.29718
6.27694
6.25658
6.23608
6.21546
6.19472
6.17387
6.15291
6.13187
6.11075
6.08958
6.06839
6.04723
6.02612
6.00515
5.9844
5.96399
5.94404
5.92483
5.90651
5.88967
5.87452
5.8624
5.85357
5.85141
5.85624
5.87812
5.91805
6.00702
2.59059
2.59011
2.58846
2.58611
2.58305
2.57944
2.57535
2.57088
2.56609
2.56105
2.55579
2.55035
2.54475
2.53903
2.5332
2.52733
2.52146
2.5157
2.51019
2.5051
2.5007
2.4973
2.49536
2.49539
2.49805
2.50415
2.51461
2.5305
2.55298
2.58327
2.62266
2.67247
2.73394
2.80825
2.89642
2.99921
3.1171
3.25022
3.39829
3.56063
3.73613
3.92331
4.12035
4.32517
4.53555
4.74919
4.9638
5.1772
5.38728
5.59219
5.79026
5.98005
6.16037
6.33024
6.48889
6.63583
6.77074
6.89353
7.00434
7.10343
7.19124
7.26831
7.33529
7.39287
7.44176
7.48271
7.51643
7.54361
7.56497
7.58112
7.59262
7.60002
7.60379
7.60436
7.60215
7.5975
7.59074
7.58214
7.57195
7.56041
7.54771
7.53403
7.51951
7.50428
7.48848
7.4722
7.45552
7.43853
7.4213
7.40387
7.3863
7.36863
7.35089
7.33311
7.31533
7.29754
7.27979
7.26206
7.24438
7.22675
7.20918
7.19167
7.17422
7.15682
7.13949
7.12221
7.10499
7.08781
7.07068
7.05358
7.03652
7.01948
7.00246
6.98545
6.96845
6.95146
6.93446
6.91745
6.90042
6.88337
6.86629
6.84918
6.83202
6.81482
6.79757
6.78027
6.7629
6.74547
6.72797
6.7104
6.69275
6.67501
6.65719
6.63927
6.62125
6.60313
6.58491
6.56658
6.54814
6.52959
6.51091
6.49212
6.4732
6.45416
6.43499
6.41569
6.39625
6.37669
6.35699
6.33716
6.31719
6.29709
6.27686
6.25649
6.23599
6.21537
6.19463
6.17377
6.15281
6.13176
6.11063
6.08945
6.06825
6.04706
6.02593
6.00493
5.98414
5.96368
5.94367
5.92434
5.90593
5.88886
5.87355
5.86087
5.85173
5.8479
5.85181
5.8663
5.89617
5.93244
2.55952
2.55909
2.55731
2.55475
2.55137
2.5473
2.54258
2.53729
2.53145
2.52511
2.51827
2.51097
2.50321
2.49502
2.48644
2.47751
2.46832
2.45895
2.44959
2.44045
2.43183
2.42412
2.41781
2.41347
2.41182
2.4137
2.42008
2.43205
2.45083
2.47773
2.51412
2.56141
2.62096
2.69402
2.7817
2.88486
3.00405
3.13941
3.29069
3.45715
3.6376
3.83041
4.03361
4.24493
4.46191
4.68208
4.90298
5.12231
5.33792
5.54794
5.75071
5.94479
6.12903
6.30246
6.46432
6.61411
6.75151
6.87646
6.98909
7.08971
7.17879
7.25692
7.32477
7.38307
7.43257
7.47405
7.50823
7.53583
7.55758
7.5741
7.58595
7.59368
7.59776
7.59865
7.59674
7.59238
7.58589
7.57756
7.56764
7.55635
7.54388
7.53042
7.51612
7.5011
7.48549
7.46939
7.45289
7.43607
7.41899
7.40171
7.38428
7.36674
7.34913
7.33148
7.3138
7.29613
7.27847
7.26084
7.24325
7.2257
7.20821
7.19077
7.17338
7.15606
7.13878
7.12156
7.10438
7.08725
7.07016
7.05311
7.03608
7.01908
7.00209
6.98512
6.96815
6.95118
6.9342
6.91721
6.9002
6.88317
6.8661
6.84901
6.83187
6.81468
6.79744
6.78015
6.7628
6.74538
6.72789
6.71032
6.69267
6.67494
6.65712
6.63921
6.6212
6.60308
6.58487
6.56654
6.5481
6.52955
6.51088
6.49208
6.47317
6.45413
6.43496
6.41566
6.39623
6.37666
6.35696
6.33713
6.31716
6.29706
6.27682
6.25645
6.23595
6.21533
6.19458
6.17371
6.15274
6.13168
6.11053
6.08934
6.06811
6.04689
6.02572
6.00467
5.98381
5.96325
5.94314
5.92364
5.90503
5.88763
5.87193
5.85852
5.8485
5.84267
5.84359
5.85082
5.86919
5.88425
2.50302
2.5026
2.50069
2.49792
2.49422
2.48967
2.4843
2.47814
2.47119
2.46345
2.45491
2.44556
2.43538
2.42439
2.41259
2.40002
2.38677
2.37295
2.35872
2.34433
2.33009
2.31641
2.30381
2.29293
2.28455
2.27958
2.27909
2.28429
2.29654
2.31729
2.34811
2.39058
2.44628
2.51667
2.60307
2.70647
2.82754
2.96646
3.1229
3.29598
3.48434
3.68613
3.89911
4.12068
4.34808
4.57848
4.80922
5.0378
5.262
5.47991
5.6899
5.89061
6.08089
6.25981
6.42663
6.58085
6.72213
6.85043
6.9659
7.0689
7.15995
7.23971
7.30891
7.36835
7.41881
7.46112
7.49603
7.5243
7.54668
7.56377
7.57617
7.58442
7.58901
7.59039
7.58894
7.58503
7.57897
7.57106
7.56153
7.55061
7.5385
7.52538
7.5114
7.49669
7.48136
7.46553
7.44929
7.4327
7.41585
7.39878
7.38155
7.36419
7.34676
7.32926
7.31174
7.29421
7.27668
7.25918
7.2417
7.22427
7.20687
7.18953
7.17223
7.15498
7.13778
7.12063
7.10352
7.08645
7.06942
7.05242
7.03544
7.01849
7.00154
6.98461
6.96767
6.95074
6.93379
6.91683
6.89985
6.88285
6.86581
6.84874
6.83162
6.81445
6.79723
6.77995
6.76262
6.74521
6.72773
6.71018
6.69254
6.67482
6.65701
6.6391
6.62109
6.60299
6.58478
6.56645
6.54802
6.52947
6.5108
6.49201
6.4731
6.45406
6.43489
6.41559
6.39617
6.3766
6.3569
6.33707
6.3171
6.297
6.27676
6.25639
6.23588
6.21525
6.19449
6.17362
6.15263
6.13155
6.11039
6.08916
6.0679
6.04664
6.02542
6.00429
5.98334
5.96266
5.94239
5.92268
5.90378
5.88596
5.86972
5.85541
5.84411
5.83605
5.83328
5.83413
5.84121
5.8384
2.41947
2.41908
2.41708
2.41419
2.41024
2.4053
2.39932
2.39229
2.38418
2.37493
2.36449
2.3528
2.33983
2.32551
2.30985
2.29285
2.27456
2.25509
2.23457
2.21325
2.19141
2.16949
2.14803
2.12771
2.10941
2.09417
2.08322
2.07798
2.08002
2.09109
2.11302
2.14773
2.19712
2.26299
2.34691
2.45013
2.57345
2.71718
2.88101
3.06399
3.26445
3.48006
3.70795
3.94495
4.18775
4.43317
4.67819
4.9201
5.15655
5.38561
5.60574
5.81565
6.01433
6.20091
6.37469
6.53511
6.68185
6.81485
6.93428
7.04058
7.13436
7.21636
7.28741
7.34839
7.40017
7.4436
7.47952
7.50871
7.53194
7.54982
7.56298
7.57195
7.57723
7.57926
7.57845
7.57515
7.56968
7.56233
7.55333
7.54293
7.53131
7.51865
7.5051
7.4908
7.47586
7.4604
7.4445
7.42824
7.41169
7.3949
7.37794
7.36084
7.34364
7.32637
7.30905
7.29171
7.27437
7.25703
7.23971
7.22242
7.20516
7.18794
7.17077
7.15363
7.13653
7.11948
7.10246
7.08547
7.06851
7.05158
7.03467
7.01777
7.00088
6.984
6.96712
6.95023
6.93332
6.9164
6.89946
6.88249
6.86548
6.84843
6.83134
6.81419
6.79699
6.77974
6.76242
6.74503
6.72756
6.71002
6.6924
6.67469
6.65688
6.63899
6.62099
6.60289
6.58469
6.56637
6.54794
6.5294
6.51073
6.49195
6.47304
6.454
6.43483
6.41554
6.39611
6.37655
6.35685
6.33702
6.31705
6.29694
6.2767
6.25632
6.23581
6.21517
6.1944
6.17351
6.15251
6.13141
6.11022
6.08896
6.06766
6.04634
6.02505
6.00384
5.98277
5.96194
5.94147
5.92149
5.90225
5.88393
5.86699
5.85166
5.83883
5.82837
5.82172
5.81652
5.81369
5.79945
2.31076
2.31031
2.30813
2.30498
2.3006
2.29503
2.28818
2.27996
2.27027
2.25903
2.24609
2.23137
2.21474
2.19612
2.17543
2.15265
2.12776
2.10079
2.07184
2.04108
2.00879
1.97539
1.94149
1.90786
1.87552
1.84571
1.81987
1.7997
1.78712
1.78422
1.79329
1.81667
1.85674
1.91575
1.99576
2.09849
2.22512
2.37617
2.55123
2.74889
2.96679
3.20188
3.45058
3.70921
3.97382
4.24048
4.50557
4.76595
5.01909
5.26308
5.49656
5.71851
5.92815
6.12479
6.30774
6.47642
6.63043
6.76965
6.89431
7.00492
7.10221
7.18708
7.26048
7.3234
7.37683
7.42168
7.45887
7.48924
7.51354
7.53244
7.54655
7.55644
7.56259
7.56547
7.56547
7.56294
7.55822
7.55157
7.54325
7.53349
7.52248
7.51039
7.49739
7.4836
7.46915
7.45414
7.43867
7.42281
7.40663
7.3902
7.37357
7.35678
7.33987
7.32287
7.3058
7.2887
7.27157
7.25444
7.23732
7.2202
7.20311
7.18605
7.16901
7.152
7.13503
7.11809
7.10117
7.08428
7.06742
7.05057
7.03373
7.01691
7.00009
6.98327
6.96644
6.9496
6.93275
6.91587
6.89897
6.88204
6.86506
6.84805
6.83099
6.81387
6.7967
6.77947
6.76217
6.7448
6.72735
6.70983
6.69222
6.67452
6.65673
6.63884
6.62086
6.60277
6.58457
6.56626
6.54784
6.52931
6.51065
6.49187
6.47296
6.45393
6.43476
6.41547
6.39604
6.37648
6.35678
6.33695
6.31698
6.29687
6.27662
6.25624
6.23572
6.21507
6.19429
6.17339
6.15237
6.13125
6.11003
6.08873
6.06737
6.04599
6.02462
6.0033
5.9821
5.96109
5.94039
5.9201
5.90044
5.88155
5.86381
5.84737
5.83281
5.81994
5.80937
5.79888
5.78781
5.76596
2.17892
2.17833
2.17578
2.17205
2.16684
2.16013
2.15175
2.14158
2.12946
2.11524
2.09871
2.07969
2.058
2.03347
2.00595
1.97528
1.94135
1.90408
1.8635
1.81971
1.77296
1.72371
1.67262
1.62062
1.56888
1.51884
1.47224
1.43111
1.39781
1.37501
1.36568
1.37289
1.39979
1.4494
1.52451
1.6274
1.75952
1.92123
2.11179
2.32939
2.5713
2.83387
3.11268
3.40261
3.69833
3.99472
4.28727
4.57232
4.84721
5.11019
5.36029
5.59704
5.82018
6.02934
6.22398
6.40338
6.56689
6.71426
6.84567
6.96178
7.06351
7.15194
7.22823
7.29351
7.34891
7.39546
7.43419
7.46595
7.49152
7.51163
7.52689
7.53788
7.5451
7.549
7.54998
7.54839
7.54456
7.53877
7.53126
7.52227
7.51199
7.5006
7.48824
7.47507
7.4612
7.44674
7.43177
7.41639
7.40067
7.38466
7.36842
7.352
7.33543
7.31875
7.30199
7.28517
7.2683
7.25141
7.23451
7.21761
7.20071
7.18383
7.16696
7.15011
7.13328
7.11647
7.09968
7.08291
7.06615
7.0494
7.03265
7.01592
6.99917
6.98243
6.96567
6.94889
6.93209
6.91527
6.89842
6.88153
6.8646
6.84762
6.83059
6.81351
6.79637
6.77916
6.76189
6.74454
6.72712
6.70961
6.69202
6.67434
6.65656
6.63869
6.62071
6.60264
6.58445
6.56615
6.54774
6.5292
6.51055
6.49178
6.47287
6.45385
6.43469
6.41539
6.39597
6.37641
6.35671
6.33688
6.31691
6.2968
6.27654
6.25616
6.23563
6.21497
6.19418
6.17326
6.15221
6.13106
6.1098
6.08846
6.06705
6.04559
6.02413
6.00269
5.98133
5.96012
5.93916
5.91852
5.8984
5.87889
5.86027
5.84263
5.82631
5.811
5.79677
5.78158
5.7639
5.73621
2.02543
2.02454
2.02123
2.01642
2.00971
2.00103
1.99018
1.97698
1.96119
1.94256
1.92078
1.89559
1.86669
1.83381
1.79664
1.75491
1.70837
1.65681
1.60014
1.53837
1.47175
1.40073
1.32605
1.24871
1.17004
1.09175
1.01603
0.945627
0.883795
0.834247
0.800993
0.788112
0.799521
0.838883
0.909621
1.01457
1.1554
1.33261
1.54552
1.79229
2.06963
2.37258
2.69462
3.02816
3.36592
3.70131
4.02881
4.34428
4.64504
4.92983
5.19847
5.45151
5.68956
5.91295
6.12143
6.31407
6.48973
6.64763
6.78778
6.91089
7.01816
7.11096
7.19074
7.25886
7.31663
7.36525
7.40576
7.43911
7.46615
7.48762
7.5042
7.51645
7.52489
7.52997
7.53209
7.5316
7.52882
7.52402
7.51747
7.50937
7.49994
7.48935
7.47775
7.46529
7.45209
7.43826
7.42388
7.40906
7.39385
7.37833
7.36254
7.34654
7.33037
7.31406
7.29764
7.28114
7.26457
7.24796
7.23132
7.21466
7.19799
7.18131
7.16463
7.14796
7.1313
7.11464
7.09799
7.08135
7.06471
7.04807
7.03143
7.01479
6.99814
6.98147
6.96479
6.94808
6.93135
6.91459
6.89779
6.88095
6.86406
6.84713
6.83014
6.8131
6.79599
6.77881
6.76157
6.74425
6.72685
6.70936
6.69179
6.67413
6.65637
6.63851
6.62055
6.60248
6.58431
6.56602
6.54761
6.52909
6.51045
6.49168
6.47278
6.45376
6.4346
6.41531
6.39589
6.37633
6.35664
6.3368
6.31683
6.29671
6.27646
6.25606
6.23553
6.21485
6.19405
6.17311
6.15204
6.13086
6.10956
6.08817
6.06669
6.04515
6.02358
6.00201
5.98048
5.95905
5.9378
5.91679
5.89616
5.87599
5.85645
5.83756
5.81947
5.8018
5.78423
5.76492
5.74192
5.70973
1.85163
1.8502
1.84564
1.83907
1.82995
1.8182
1.80354
1.78571
1.76433
1.73908
1.70957
1.6754
1.63615
1.59136
1.54054
1.48324
1.41901
1.34748
1.26839
1.18166
1.08745
0.986182
0.87862
0.765966
0.649969
0.533123
0.418765
0.311027
0.214549
0.134157
0.0748074
0.0416117
0.039252
0.0714082
0.141544
0.252925
0.408501
0.610174
0.857911
1.14876
1.47689
1.83433
2.21184
2.60014
2.99013
3.37358
3.74365
4.09539
4.42598
4.73455
5.02188
5.28998
5.54139
5.77808
6.00062
6.20794
6.39801
6.56895
6.72007
6.85194
6.96601
7.06409
7.14802
7.21951
7.28013
7.33116
7.37376
7.40896
7.43767
7.46068
7.4787
7.49235
7.50214
7.50853
7.51192
7.51267
7.51107
7.50741
7.50193
7.49485
7.48639
7.47671
7.46597
7.45431
7.44187
7.42874
7.41504
7.40083
7.38621
7.37123
7.35596
7.34044
7.32471
7.30882
7.29278
7.27664
7.26041
7.24411
7.22776
7.21137
7.19494
7.1785
7.16204
7.14557
7.12909
7.1126
7.09611
7.07962
7.06311
7.0466
7.03008
7.01354
6.99699
6.98041
6.96381
6.94718
6.93052
6.91383
6.89709
6.88031
6.86347
6.84659
6.82964
6.81264
6.79557
6.77843
6.76122
6.74392
6.72655
6.70909
6.69154
6.6739
6.65616
6.63832
6.62037
6.60232
6.58415
6.56588
6.54748
6.52897
6.51033
6.49157
6.47268
6.45366
6.43451
6.41522
6.3958
6.37625
6.35655
6.33672
6.31674
6.29662
6.27636
6.25596
6.23542
6.21473
6.19391
6.17295
6.15185
6.13063
6.1093
6.08785
6.0663
6.04468
6.02299
6.00128
5.97957
5.9579
5.93634
5.91494
5.89377
5.8729
5.85242
5.83228
5.81247
5.79256
5.77197
5.74908
5.72181
5.68607
1.65918
1.6568
1.65019
1.64082
1.62792
1.61141
1.59089
1.56602
1.53636
1.50144
1.4607
1.41353
1.35928
1.29727
1.22683
1.14727
1.05794
0.958187
0.847539
0.72572
0.592816
0.449411
0.296735
0.136894
-0.0270597
-0.19109
-0.35016
-0.498242
-0.628913
-0.736423
-0.816143
-0.864171
-0.876671
-0.8493
-0.777741
-0.657451
-0.48387
-0.25358
0.033791
0.374444
0.761095
1.18386
1.63167
2.09226
2.5528
3.00148
3.42888
3.82852
4.19722
4.5346
4.84273
5.12552
5.38792
5.6346
5.86831
6.0889
6.29368
6.47913
6.64305
6.78528
6.90736
7.01158
7.10032
7.17576
7.23962
7.29341
7.33841
7.37572
7.40633
7.43108
7.45071
7.46587
7.47711
7.48491
7.48968
7.49176
7.49146
7.48904
7.48475
7.47882
7.47142
7.46275
7.45296
7.4422
7.4306
7.41826
7.40529
7.39177
7.3778
7.36342
7.34871
7.33372
7.31848
7.30305
7.28744
7.2717
7.25584
7.23988
7.22385
7.20775
7.19161
7.17542
7.1592
7.14294
7.12667
7.11037
7.09405
7.07772
7.06136
7.04499
7.02859
7.01217
6.99572
6.97925
6.96274
6.9462
6.92962
6.91299
6.89632
6.8796
6.86283
6.84599
6.8291
6.81214
6.79511
6.77801
6.76083
6.74357
6.72622
6.70879
6.69127
6.67364
6.65592
6.6381
6.62017
6.60214
6.58399
6.56572
6.54734
6.52883
6.51021
6.49145
6.47257
6.45356
6.43441
6.41513
6.39571
6.37616
6.35646
6.33663
6.31665
6.29653
6.27627
6.25586
6.2353
6.2146
6.19376
6.17278
6.15166
6.1304
6.10902
6.08751
6.06589
6.04417
6.02237
6.0005
5.9786
5.95668
5.9348
5.91298
5.89127
5.86969
5.84826
5.82689
5.80543
5.78342
5.76015
5.73415
5.70343
5.66484
1.44945
1.44555
1.43579
1.42217
1.40355
1.37992
1.35076
1.31559
1.27373
1.22447
1.167
1.10051
1.02416
0.937031
0.83819
0.726563
0.601008
0.460526
0.304536
0.133113
-0.0528845
-0.25171
-0.460608
-0.675655
-0.891685
-1.10254
-1.30163
-1.48245
-1.63938
-1.76814
-1.86614
-1.93176
-1.96247
-1.95332
-1.89663
-1.78318
-1.60391
-1.35199
-1.02459
-0.624063
-0.158839
0.357314
0.906882
1.47044
2.02915
2.56681
3.07118
3.53447
3.95353
4.32905
4.66446
4.96534
5.23911
5.49361
5.73498
5.96544
6.18271
6.38198
6.55902
6.71232
6.84315
6.95418
7.04832
7.12808
7.19552
7.25235
7.3
7.33966
7.37238
7.39905
7.42046
7.43728
7.45009
7.45938
7.46559
7.46908
7.47015
7.46907
7.46607
7.46136
7.45514
7.44757
7.43882
7.42903
7.41834
7.40686
7.39469
7.38193
7.36866
7.35494
7.34085
7.32642
7.31173
7.29679
7.28165
7.26633
7.25088
7.2353
7.21961
7.20384
7.18799
7.17208
7.15611
7.1401
7.12404
7.10795
7.09182
7.07566
7.05947
7.04324
7.02698
7.01069
6.99436
6.97799
6.96159
6.94514
6.92864
6.91209
6.8955
6.87884
6.86213
6.84535
6.82851
6.8116
6.79461
6.77755
6.76041
6.74319
6.72587
6.70847
6.69097
6.67337
6.65567
6.63787
6.61996
6.60194
6.58381
6.56556
6.54718
6.52869
6.51007
6.49133
6.47245
6.45344
6.4343
6.41503
6.39562
6.37606
6.35637
6.33654
6.31656
6.29643
6.27616
6.25574
6.23518
6.21447
6.19361
6.1726
6.15145
6.13016
6.10872
6.08715
6.06546
6.04364
6.02172
5.99969
5.97759
5.95542
5.9332
5.91096
5.8887
5.8664
5.84404
5.82147
5.79846
5.77452
5.74887
5.72019
5.68665
5.64574
1.22479
1.2185
1.20389
1.18366
1.1564
1.12214
1.07997
1.02921
0.968842
0.897943
0.815486
0.72034
0.611181
0.486509
0.344734
0.184422
0.00461317
-0.194894
-0.413269
-0.64862
-0.89805
-1.15768
-1.42289
-1.68844
-1.94852
-2.19706
-2.42848
-2.63884
-2.82591
-2.98867
-3.12654
-3.23725
-3.31468
-3.34802
-3.32206
-3.21956
-3.02513
-2.7287
-2.32777
-1.82874
-1.2467
-0.603019
0.0774996
0.768892
1.44672
2.09055
2.68542
3.22265
3.69979
4.11945
4.4872
4.81059
5.09863
5.36104
5.60835
5.84569
6.07251
6.2832
6.47193
6.63567
6.77519
6.89324
6.99296
7.07723
7.14844
7.20849
7.25896
7.30115
7.33614
7.3649
7.38823
7.40684
7.42133
7.43222
7.43994
7.44489
7.44739
7.44769
7.44604
7.44263
7.43765
7.43126
7.42363
7.4149
7.40519
7.39463
7.38333
7.37137
7.35885
7.34584
7.33241
7.3186
7.30448
7.29008
7.27543
7.26059
7.24556
7.23038
7.21507
7.19964
7.18412
7.1685
7.15281
7.13705
7.12123
7.10536
7.08943
7.07346
7.05744
7.04137
7.02526
7.0091
6.9929
6.97665
6.96035
6.944
6.92759
6.91113
6.89461
6.87803
6.86138
6.84466
6.82788
6.81102
6.79408
6.77706
6.75996
6.74277
6.7255
6.70812
6.69065
6.67308
6.65541
6.63763
6.61974
6.60173
6.58362
6.56538
6.54702
6.52854
6.50993
6.49119
6.47233
6.45333
6.43419
6.41492
6.39551
6.37596
6.35627
6.33644
6.31646
6.29633
6.27605
6.25563
6.23505
6.21433
6.19345
6.17242
6.15124
6.1299
6.10842
6.08679
6.06501
6.0431
6.02105
5.99886
5.97655
5.95412
5.93157
5.9089
5.88609
5.86309
5.83983
5.81611
5.79165
5.76594
5.73819
5.7072
5.67133
5.62854
0.986176
0.976197
0.954198
0.924037
0.883933
0.83363
0.771836
0.697603
0.609533
0.506196
0.385637
0.24571
0.0841717
-0.100586
-0.309231
-0.541399
-0.79577
-1.07005
-1.361
-1.66442
-1.97571
-2.29031
-2.60403
-2.91264
-3.21214
-3.4992
-3.77136
-4.02715
-4.26533
-4.48419
-4.67957
-4.84273
-4.9592
-5.01036
-4.97544
-4.83509
-4.57507
-4.18879
-3.67871
-3.05595
-2.34013
-1.55731
-0.737531
0.0873696
0.887467
1.63826
2.32189
2.9299
3.4611
3.92062
4.3178
4.66322
4.96654
5.2389
5.4924
5.73516
5.96845
6.18735
6.38536
6.55818
6.7057
6.83037
6.93549
7.02422
7.09917
7.16248
7.21583
7.26062
7.29799
7.32894
7.3543
7.37481
7.39108
7.40365
7.41297
7.41944
7.4234
7.42512
7.42485
7.42278
7.4191
7.41396
7.4075
7.39988
7.39122
7.38164
7.37125
7.36016
7.34844
7.33618
7.32345
7.3103
7.29678
7.28295
7.26884
7.25448
7.23992
7.22516
7.21025
7.19519
7.18
7.16471
7.14931
7.13382
7.11825
7.10261
7.0869
7.07112
7.05528
7.03938
7.02343
7.00741
6.99134
6.97522
6.95903
6.94278
6.92648
6.9101
6.89367
6.87716
6.86058
6.84393
6.82721
6.8104
6.79352
6.77655
6.75949
6.74234
6.72509
6.70775
6.69031
6.67277
6.65512
6.63736
6.6195
6.60151
6.58341
6.56519
6.54685
6.52838
6.50978
6.49105
6.47219
6.4532
6.43408
6.41481
6.39541
6.37586
6.35617
6.33634
6.31635
6.29622
6.27594
6.25551
6.23492
6.21418
6.19329
6.17223
6.15102
6.12964
6.10811
6.08642
6.06456
6.04255
6.02036
5.99802
5.9755
5.95281
5.92993
5.90684
5.88349
5.85981
5.83567
5.81088
5.78508
5.75777
5.72817
5.69518
5.65737
5.61303
0.736488
0.72118
0.688092
0.642741
0.582818
0.507941
0.416143
0.305793
0.174015
0.0177094
-0.166482
-0.380759
-0.625824
-0.900393
-1.20169
-1.52595
-1.86893
-2.22566
-2.59052
-2.95804
-3.32398
-3.68565
-4.04124
-4.38915
-4.72755
-5.05384
-5.36443
-5.65509
-5.92056
-6.15463
-6.34927
-6.49344
-6.57177
-6.56633
-6.45849
-6.23176
-5.87439
-5.3819
-4.75881
-4.01875
-3.18283
-2.28017
-1.34611
-0.416574
0.47485
1.30155
2.04583
2.70079
3.26723
3.75265
4.16906
4.52969
4.84574
5.12804
5.38828
5.636
5.87402
6.09853
6.30325
6.4831
6.63712
6.76742
6.8773
6.97009
7.04856
7.11499
7.17116
7.21854
7.25831
7.2915
7.31897
7.34145
7.35958
7.37391
7.38489
7.39294
7.3984
7.40157
7.4027
7.402
7.39964
7.39578
7.39055
7.38409
7.37652
7.36797
7.35855
7.34836
7.33749
7.32602
7.31402
7.30156
7.28869
7.27545
7.2619
7.24806
7.23398
7.21968
7.20518
7.19051
7.17568
7.16071
7.14562
7.13042
7.11511
7.09971
7.08423
7.06866
7.05301
7.03729
7.0215
7.00564
6.98971
6.97371
6.95765
6.94151
6.9253
6.90902
6.89267
6.87625
6.85974
6.84316
6.8265
6.80975
6.79292
6.776
6.75899
6.74188
6.72467
6.70737
6.68996
6.67245
6.65482
6.63709
6.61924
6.60128
6.5832
6.56499
6.54666
6.52821
6.50962
6.49091
6.47206
6.45308
6.43396
6.4147
6.3953
6.37575
6.35607
6.33623
6.31625
6.29612
6.27583
6.25539
6.23479
6.21404
6.19312
6.17204
6.1508
6.12939
6.1078
6.08605
6.06411
6.04199
6.01968
5.99718
5.97446
5.95151
5.9283
5.90479
5.88092
5.85659
5.83163
5.80582
5.7788
5.75005
5.71882
5.68412
5.64468
5.59904
0.473594
0.450528
0.400486
0.331882
0.241811
0.129141
-0.0101576
-0.180157
-0.38622
-0.631634
-0.917787
-1.24315
-1.60398
-1.99444
-2.40772
-2.83591
-3.27049
-3.70336
-4.12808
-4.54078
-4.94002
-5.32502
-5.69474
-6.04695
-6.37802
-6.6829
-6.95604
-7.19255
-7.38807
-7.53834
-7.63868
-7.68167
-7.65527
-7.54469
-7.33256
-7.00355
-6.54588
-5.96052
-5.2512
-4.43355
-3.53034
-2.57148
-1.59143
-0.626202
0.292171
1.13872
1.8977
2.56317
3.13767
3.62981
4.05214
4.4188
4.74193
5.03169
5.29816
5.55041
5.79196
6.01999
6.22879
6.41318
6.57168
6.7061
6.81971
6.91588
6.99744
7.0667
7.12552
7.17539
7.21753
7.25295
7.28253
7.30702
7.32706
7.34319
7.3559
7.36558
7.37259
7.37724
7.3798
7.38047
7.37945
7.37688
7.3729
7.36763
7.3612
7.35372
7.3453
7.33604
7.32605
7.3154
7.30418
7.29243
7.28023
7.26762
7.25465
7.24136
7.22778
7.21395
7.19988
7.18561
7.17116
7.15654
7.14177
7.12687
7.11183
7.09669
7.08144
7.06608
7.05064
7.0351
7.01948
7.00378
6.988
6.97214
6.95619
6.94017
6.92407
6.90789
6.89163
6.87529
6.85886
6.84235
6.82576
6.80907
6.79229
6.77542
6.75846
6.74139
6.72423
6.70696
6.68958
6.6721
6.65451
6.6368
6.61898
6.60103
6.58297
6.56478
6.54647
6.52803
6.50946
6.49075
6.47191
6.45294
6.43383
6.41457
6.39518
6.37564
6.35596
6.33612
6.31614
6.296
6.27571
6.25527
6.23466
6.21389
6.19296
6.17185
6.15058
6.12913
6.10749
6.08567
6.06366
6.04144
6.01901
5.99634
5.97342
5.95022
5.9267
5.90279
5.87842
5.85347
5.82774
5.801
5.77286
5.74282
5.71016
5.67398
5.63316
5.58644
0.188039
0.154355
0.0792883
-0.0259583
-0.165582
-0.343656
-0.568927
-0.846882
-1.18062
-1.56669
-1.9992
-2.46997
-2.96954
-3.48516
-4.00318
-4.51138
-5.00006
-5.46154
-5.8899
-6.28168
-6.63521
-6.94964
-7.22478
-7.46104
-7.65999
-7.82218
-7.94732
-8.03661
-8.08739
-8.10057
-8.07046
-7.98981
-7.84778
-7.63108
-7.32489
-6.91632
-6.39714
-5.76786
-5.0347
-4.21199
-3.32095
-2.38823
-1.44428
-0.520612
0.354991
1.1615
1.88577
2.52304
3.07646
3.55467
3.96945
4.33363
4.65825
4.95196
5.22286
5.47854
5.72232
5.952
6.1625
6.34885
6.50955
6.64634
6.76245
6.86117
6.94529
7.01708
7.07837
7.13063
7.17508
7.21273
7.24445
7.27099
7.29299
7.31101
7.3255
7.33688
7.34553
7.35173
7.35577
7.35787
7.35822
7.35698
7.35428
7.35025
7.34499
7.33863
7.33127
7.32301
7.31395
7.30417
7.29376
7.28278
7.27128
7.25933
7.24698
7.23426
7.22122
7.20788
7.19428
7.18043
7.16638
7.15212
7.13769
7.1231
7.10836
7.09349
7.07848
7.06336
7.04813
7.03279
7.01735
7.00182
6.98619
6.97047
6.95466
6.93876
6.92277
6.90669
6.89053
6.87428
6.85793
6.8415
6.82497
6.80835
6.79163
6.77481
6.7579
6.74088
6.72376
6.70653
6.68919
6.67174
6.65417
6.63649
6.61869
6.60077
6.58273
6.56456
6.54626
6.52784
6.50928
6.49059
6.47176
6.4528
6.43369
6.41445
6.39506
6.37552
6.35584
6.33601
6.31603
6.29589
6.27559
6.25514
6.23452
6.21374
6.19279
6.17166
6.15036
6.12887
6.10719
6.08531
6.06321
6.0409
6.01834
5.99552
5.97241
5.94897
5.92514
5.90085
5.87601
5.85047
5.82404
5.79643
5.76729
5.7361
5.70219
5.66474
5.62274
5.57512
-0.115564
-0.166585
-0.283419
-0.451091
-0.679132
-0.976295
-1.35186
-1.80035
-2.31028
-2.864
-3.44392
-4.03072
-4.60693
-5.15665
-5.667
-6.12777
-6.53034
-6.86656
-7.13681
-7.34366
-7.4984
-7.61022
-7.6907
-7.74678
-7.77985
-7.79122
-7.77965
-7.74262
-7.67633
-7.57816
-7.44311
-7.26504
-7.03668
-6.74963
-6.39464
-5.96315
-5.44928
-4.85191
-4.17554
-3.43095
-2.63476
-1.80789
-0.973822
-0.157486
0.6185
1.33713
1.9881
2.5679
3.07919
3.5289
3.92626
4.28129
4.60248
4.8963
5.16883
5.42595
5.67019
5.89947
6.10902
6.29443
6.4547
6.5918
6.7089
6.8091
6.89503
6.96882
7.03222
7.08663
7.13321
7.17294
7.20668
7.23518
7.25908
7.27891
7.29516
7.30823
7.31848
7.32623
7.33175
7.33526
7.33696
7.33702
7.33557
7.33275
7.32866
7.32341
7.3171
7.30983
7.3017
7.2928
7.28321
7.27299
7.26222
7.25094
7.23921
7.22707
7.21457
7.20173
7.18859
7.17518
7.16153
7.14764
7.13356
7.11928
7.10484
7.09023
7.07548
7.06059
7.04558
7.03044
7.01518
6.99982
6.98434
6.96877
6.95309
6.93732
6.92144
6.90547
6.88941
6.87325
6.85699
6.84063
6.82417
6.80762
6.79096
6.7742
6.75733
6.74036
6.72328
6.70609
6.68879
6.67137
6.65384
6.63619
6.61841
6.60052
6.58249
6.56434
6.54606
6.52765
6.50911
6.49043
6.47161
6.45266
6.43356
6.41433
6.39494
6.37542
6.35574
6.33591
6.31592
6.29579
6.27549
6.25503
6.2344
6.21361
6.19264
6.17149
6.15016
6.12863
6.1069
6.08496
6.0628
6.04039
6.01772
5.99475
5.97146
5.94778
5.92367
5.89903
5.87375
5.84767
5.82058
5.7922
5.76215
5.72994
5.69494
5.65639
5.61339
5.56501
-0.407159
-0.486145
-0.671898
-0.948786
-1.32732
-1.80424
-2.37044
-2.99464
-3.6474
-4.29329
-4.90112
-5.44755
-5.91928
-6.30953
-6.61767
-6.84716
-7.00534
-7.10009
-7.14487
-7.15156
-7.13107
-7.09265
-7.04382
-6.9887
-6.92727
-6.85714
-6.77426
-6.67409
-6.55217
-6.40453
-6.22703
-6.01533
-5.76475
-5.46989
-5.12459
-4.72269
-4.25964
-3.73409
-3.14911
-2.51247
-1.83626
-1.13565
-0.427928
0.26786
0.934119
1.5577
2.13061
2.64991
3.11705
3.53664
3.91512
4.25923
4.57455