/*--------------------------------*- C++ -*----------------------------------*\
  =========                 |
  \\      /  F ield         | OpenFOAM: The Open Source CFD Toolbox
   \\    /   O peration     | Website:  https://openfoam.org
    \\  /    A nd           | Version:  7
     \\/     M anipulation  |
\*---------------------------------------------------------------------------*/
FoamFile
{
    version     2.0;
    format      ascii;
    class       volScalarField;
    location    "0.024";
    object      s;
}
// * * * * * * * * * * * * * * * * * * * * * * * * * * * * * * * * * * * * * //

dimensions      [0 0 0 0 0 0 0];

internalField   nonuniform List<scalar> 
12225
(
1
1
1
1
1
1
1
1
1
1
1
1
1
1
1
1
1
1
1
1
1
1
1
1
1
1
1
1
1
1
1
1
1
1
1
1
1
1
1
1
1
1
1
1
1
1
1
1
1
1
1
1
1
1
1
1
1
1
1
1
1
1
1
1
1
1
1
1
1
1
1
1
1
1
1
1
1
1
1
1
1
1
1
1
1
1
1
1
1
1
1
1
1
1
1
1
1
1
1
1
1
1
1
1
1
1
1
1
1
1
1
1
1
1
1
1
1
1
1
1
1
1
1
1
1
1
1
1
1
1
1
1
1
1
1
1
1
1
1
1
1
1
1
1
1
1
1
1
1
1
1
1
1
1
1
1
1
1
1
1
1
1
1
1
1
1
1
1
1
1
1
1
1
1
1
1
1
1
1
1
1
1
1
1
1
1
1
1
1
1
1
1
1
1
1
1
1
1
1
1
1
1
1
1
1
1
1
1
1
1
1
1
1
1
1
1
1
1
1
1
1
1
1
1
1
1
1
1
1
1
1
1
1
1
1
1
1
1
1
1
1
1
1
1
1
1
1
1
1
1
1
1
1
1
1
1
1
1
1
1
1
1
1
1
1
1
1
1
1
1
1
1
1
1
1
1
1
1
1
1
1
1
1
1
1
1
1
1
1
1
1
1
1
1
1
1
1
1
1
1
1
1
1
1
1
1
1
1
1
1
1
1
1
1
1
1
1
1
1
1
1
1
1
1
1
1
1
1
1
1
1
1
1
1
1
1
1
1
1
1
1
1
1
1
1
1
1
1
1
1
1
1
1
1
1
1
1
1
1
1
1
1
1
1
1
1
1
1
1
1
1
1
1
1
1
1
1
1
1
1
1
1
1
1
1
1
1
1
1
1
1
1
1
1
1
1
1
1
1
1
1
1
1
1
1
1
1
1
1
1
1
1
1
1
1
1
1
1
1
1
1
1
1
1
1
1
1
1
1
1
1
1
1
1
1
1
1
1
1
1
1
1
1
1
1
1
1
1
1
1
1
1
1
1
1
1
1
1
1
1
1
1
1
1
1
1
1
1
1
1
1
1
1
1
1
1
1
1
1
1
1
1
1
1
1
1
1
1
1
1
1
1
1
1
1
1
1
1
1
1
1
1
1
1
1
1
1
1
1
1
1
1
1
1
1
1
1
1
1
1
1
1
1
1
1
1
1
1
1
1
1
1
1
1
1
1
1
1
1
1
1.19603e-18
4.1169e-17
6.92017e-16
6.80351e-15
4.41331e-14
1.9199e-13
4.06673e-13
5.81606e-14
4.91779e-14
9.16702e-13
9.50566e-12
7.32974e-11
4.73933e-10
2.62283e-09
1.21512e-08
4.7549e-08
1.60241e-07
4.72291e-07
1.2344e-06
2.89596e-06
6.16386e-06
1.20196e-05
2.16779e-05
3.65013e-05
5.79065e-05
8.72816e-05
0.00012592
0.000174946
0.000235225
0.000307341
0.000391689
0.000488564
0.000598138
0.000720419
0.000855219
0.00100221
0.00116172
0.00133554
0.00152442
0.00172514
0.00194056
0.00218778
0.00246105
0.00269875
0.00287795
0.00298847
0.0030252
0.00299974
0.00290421
0.00273495
0.00252889
0.00228494
0.00200666
0.00172127
0.00143202
0.00116333
0.000909779
0.000693838
0.000509254
0.000361905
0.000248155
0.000163732
0.00010428
6.39095e-05
3.77241e-05
2.14428e-05
1.17297e-05
6.18389e-06
3.1468e-06
1.54139e-06
7.28374e-07
3.32216e-07
1.46343e-07
6.22958e-08
2.56408e-08
1.02101e-08
3.93545e-09
1.4691e-09
5.31398e-10
1.86344e-10
6.33778e-11
2.09161e-11
6.70081e-12
2.08474e-12
6.30114e-13
1.85089e-13
5.28549e-14
1.4678e-14
3.96507e-15
1.04222e-15
2.66621e-16
6.63981e-17
1.61001e-17
3.80177e-18
8.74337e-19
1.9586e-19
4.27365e-20
9.08279e-21
1.87998e-21
3.78878e-22
7.43201e-23
1.41827e-23
2.63099e-24
4.73898e-25
8.27483e-26
1.39725e-26
2.27364e-27
3.54558e-28
5.25014e-29
7.26211e-30
9.41851e-31
1.20442e-31
1.51857e-32
1.88854e-33
2.26262e-34
2.82218e-35
5.92063e-36
1.22277e-36
2.47776e-37
5.18476e-38
7.88626e-39
7.68194e-40
7.16745e-41
1.24007e-41
2.14961e-42
3.70606e-43
6.33462e-44
1.14644e-44
1.28096e-45
1.19595e-46
1.03475e-47
1.64303e-48
2.59427e-49
4.05573e-50
6.26425e-51
1.02565e-51
9.00751e-53
7.73779e-54
6.02455e-55
8.50138e-56
1.1818e-56
1.63348e-57
2.26756e-58
3.34352e-59
2.75515e-60
1.92738e-61
1.30723e-62
1.73615e-63
2.35733e-64
3.14463e-65
4.20228e-66
4.12141e-67
2.30524e-68
1.33788e-69
1.52857e-70
1.80727e-71
2.19453e-72
2.70556e-73
2.76074e-74
1.31886e-75
6.89432e-77
7.79434e-78
8.97958e-79
1.01042e-79
1.07726e-80
5.31421e-82
2.49704e-83
2.42072e-84
2.46129e-85
2.47472e-86
2.42096e-87
1.152e-88
5.08e-90
4.28167e-91
3.6343e-92
3.04623e-93
2.47836e-94
1.9998e-95
8.16474e-97
4.45785e-99
7.24559e-17
2.17633e-15
4.28498e-14
5.39613e-13
4.88971e-12
3.43628e-11
1.96177e-10
9.39208e-10
3.86121e-09
1.39108e-08
4.4605e-08
1.29058e-07
3.41196e-07
8.33752e-07
1.90241e-06
4.08814e-06
8.33074e-06
1.61833e-05
3.0093e-05
5.37521e-05
9.25178e-05
0.000153902
0.000248154
0.000388853
0.000593411
0.000883507
0.00128514
0.00182837
0.00254662
0.00347548
0.00465064
0.00610497
0.00786492
0.0099471
0.0123548
0.0150729
0.0180695
0.0213114
0.0247619
0.0283166
0.0318143
0.0352911
0.038927
0.0416104
0.0434206
0.0445726
0.0449885
0.0444255
0.043095
0.0409351
0.0383389
0.0351714
0.0315658
0.0277928
0.0237933
0.0199248
0.0161732
0.0127886
0.00979394
0.00727928
0.0052342
0.0036282
0.00242972
0.00156838
0.00097648
0.000585297
0.000337973
0.000188148
0.0001009
5.21557e-05
2.60026e-05
1.25111e-05
5.8133e-06
2.61023e-06
1.13332e-06
4.76145e-07
1.93704e-07
7.63575e-08
2.91862e-08
1.08247e-08
3.89816e-09
1.36396e-09
4.64006e-10
1.53568e-10
4.94768e-11
1.55268e-11
4.74888e-12
1.41634e-12
4.12139e-13
1.17068e-13
3.24757e-14
8.80254e-15
2.33225e-15
6.04285e-16
1.53171e-16
3.79964e-17
9.22761e-18
2.19462e-18
5.11312e-19
1.16734e-19
2.61219e-20
5.73091e-21
1.23296e-21
2.60182e-22
5.38631e-23
1.09414e-23
2.18117e-24
4.26787e-25
8.19775e-26
1.54597e-26
2.86265e-27
5.20507e-28
9.29434e-29
1.63e-29
2.80786e-30
4.7513e-31
7.89807e-32
1.28978e-32
2.06952e-33
3.27372e-34
5.10579e-35
7.85004e-36
1.18967e-36
1.77705e-37
2.61617e-38
3.79579e-39
5.42742e-40
7.64755e-41
1.06188e-41
1.45294e-42
1.95899e-43
2.6027e-44
3.40744e-45
4.3959e-46
5.58841e-47
7.00093e-48
8.64289e-49
1.05149e-49
1.26065e-50
1.48951e-51
1.7344e-52
1.99033e-53
2.25099e-54
2.50904e-55
2.75634e-56
2.98443e-57
3.18495e-58
3.35019e-59
3.47354e-60
3.54997e-61
3.57635e-62
3.55165e-63
3.47704e-64
3.35576e-65
3.19292e-66
2.99512e-67
2.77001e-68
2.52581e-69
2.27082e-70
2.01298e-71
1.75944e-72
1.51635e-73
1.28859e-74
1.07974e-75
8.92084e-77
7.26722e-78
5.83694e-79
4.622e-80
3.60791e-81
2.77594e-82
2.10472e-83
1.57222e-84
1.15651e-85
8.37458e-87
5.9628e-88
4.17258e-89
2.8611e-90
1.92105e-91
1.25196e-92
7.48826e-94
6.87199e-15
2.2985e-13
3.46709e-12
3.31429e-11
2.31457e-10
1.27272e-09
5.77689e-09
2.23645e-08
7.56808e-08
2.28289e-07
6.23968e-07
1.56709e-06
3.66025e-06
8.03285e-06
1.67067e-05
3.31582e-05
6.31514e-05
0.000115923
0.000205831
0.000354618
0.000594461
0.000971943
0.00155296
0.00242828
0.00371916
0.00558218
0.0082125
0.0118446
0.0167487
0.023218
0.0315428
0.0419724
0.0546734
0.0696995
0.0869666
0.106207
0.126944
0.14861
0.170708
0.192596
0.213264
0.232374
0.250794
0.264849
0.272688
0.277356
0.279142
0.275066
0.26722
0.255624
0.241567
0.224851
0.20685
0.187846
0.166617
0.144738
0.122385
0.100739
0.0805432
0.062656
0.0474652
0.0347228
0.0245055
0.0166823
0.0109719
0.00694216
0.00422861
0.00248083
0.00140028
0.000760898
0.000398237
0.000200847
9.7672e-05
4.58281e-05
2.0761e-05
9.08709e-06
3.84575e-06
1.57487e-06
6.24521e-07
2.40009e-07
8.94587e-08
3.23642e-08
1.13732e-08
3.88504e-09
1.29097e-09
4.17581e-10
1.31572e-10
4.04072e-11
1.21031e-11
3.53779e-12
1.00973e-12
2.81545e-13
7.67321e-14
2.04503e-14
5.33226e-15
1.3608e-15
3.40032e-16
8.32242e-17
1.99589e-17
4.69162e-18
1.08129e-18
2.44407e-19
5.41952e-20
1.1792e-20
2.51825e-21
5.27942e-22
1.08678e-22
2.19706e-23
4.36286e-24
8.51135e-25
1.63152e-25
3.07333e-26
5.68999e-27
1.03551e-27
1.85266e-28
3.259e-29
5.63724e-30
9.58934e-31
1.60433e-31
2.64003e-32
4.27337e-33
6.80487e-34
1.06621e-34
1.64675e-35
2.50733e-36
3.76317e-37
5.56707e-38
8.1172e-39
1.16647e-39
1.652e-40
2.30571e-41
3.17132e-42
4.29841e-43
5.74116e-44
7.55634e-45
9.8003e-46
1.25252e-46
1.57742e-47
1.95764e-48
2.39411e-49
2.8853e-50
3.42671e-51
4.01064e-52
4.62603e-53
5.25863e-54
5.89138e-55
6.50508e-56
7.07935e-57
7.59367e-58
8.02863e-59
8.36714e-60
8.59553e-61
8.70451e-62
8.68972e-63
8.55211e-64
8.29778e-65
7.93753e-66
7.48616e-67
6.96139e-68
6.38276e-69
5.77044e-70
5.14405e-71
4.52175e-72
3.91937e-73
3.34992e-74
2.82332e-75
2.34627e-76
1.92254e-77
1.55315e-78
1.23698e-79
9.71031e-81
7.51258e-82
5.7253e-83
4.29796e-84
3.174e-85
2.30671e-86
1.64408e-87
1.1512e-88
7.8469e-90
5.24014e-91
3.72328e-14
1.20706e-12
1.79603e-11
1.6905e-10
1.15967e-09
6.2501e-09
2.77467e-08
1.04924e-07
3.46696e-07
1.02166e-06
2.73126e-06
6.72135e-06
1.54176e-05
3.33137e-05
6.8398e-05
0.000134367
0.000253947
0.000463722
0.000821038
0.00141368
0.00237307
0.00389153
0.00624319
0.00980779
0.0150963
0.0227787
0.0337132
0.0489732
0.0698575
0.097875
0.134714
0.18221
0.242272
0.316883
0.401424
0.468808
0.535009
0.597821
0.643607
0.687257
0.724398
0.745931
0.765957
0.779933
0.787316
0.791914
0.793815
0.791056
0.784287
0.773005
0.756862
0.734819
0.7048
0.668294
0.623544
0.571509
0.511939
0.445879
0.375614
0.305355
0.242688
0.190595
0.143477
0.103674
0.0724161
0.0488883
0.0316414
0.0196964
0.0117883
0.006776
0.00374483
0.00199024
0.00101782
0.000501198
0.000237809
0.000108805
4.80417e-05
2.04875e-05
8.44563e-06
3.36838e-06
1.30087e-06
4.86913e-07
1.76783e-07
6.23109e-08
2.1339e-08
7.10575e-09
2.30249e-09
7.26521e-10
2.23388e-10
6.69749e-11
1.95918e-11
5.59497e-12
1.5607e-12
4.25466e-13
1.13407e-13
2.95695e-14
7.54501e-15
1.88477e-15
4.61107e-16
1.1052e-16
2.59605e-17
5.97799e-18
1.34986e-18
2.98969e-19
6.49652e-20
1.38532e-20
2.89957e-21
5.95825e-22
1.20224e-22
2.38247e-23
4.63773e-24
8.86939e-25
1.66671e-25
3.07799e-26
5.58697e-27
9.96887e-28
1.74876e-28
3.01634e-29
5.11616e-30
8.53435e-31
1.40024e-31
2.25988e-32
3.58802e-33
5.60432e-34
8.61404e-35
1.3049e-35
1.94818e-36
2.86645e-37
4.15628e-38
5.93874e-39
8.36183e-40
1.16015e-40
1.58608e-41
2.1366e-42
2.836e-43
3.70912e-44
4.77989e-45
6.06941e-46
7.59388e-47
9.36213e-48
1.13733e-48
1.36149e-49
1.60606e-50
1.86699e-51
2.13879e-52
2.41465e-53
2.68666e-54
2.94615e-55
3.18418e-56
3.392e-57
3.56159e-58
3.68618e-59
3.76073e-60
3.78219e-61
3.7498e-62
3.66506e-63
3.53166e-64
3.35518e-65
3.14272e-66
2.90243e-67
2.643e-68
2.37313e-69
2.10107e-70
1.83427e-71
1.57902e-72
1.34033e-73
1.12183e-74
9.25802e-76
7.5326e-77
6.04215e-78
4.77697e-79
3.72233e-80
2.85719e-81
2.16047e-82
1.60724e-83
1.17684e-84
8.45538e-86
5.97034e-87
4.11404e-88
2.78246e-89
9.42759e-14
3.12389e-12
4.63035e-11
4.35857e-10
3.01241e-09
1.6423e-08
7.38056e-08
2.8257e-07
9.45914e-07
2.82311e-06
7.63369e-06
1.89799e-05
4.39454e-05
9.57765e-05
0.00019823
0.000392379
0.000746944
0.00137364
0.00244985
0.00425219
0.00720583
0.0119554
0.0194637
0.031147
0.0490619
0.0761702
0.116708
0.176622
0.263807
0.387756
0.502084
0.60582
0.708464
0.764829
0.817438
0.852938
0.881731
0.902885
0.914077
0.925883
0.931715
0.936213
0.938024
0.940696
0.943776
0.946892
0.949604
0.952662
0.955578
0.957877
0.959422
0.959762
0.957521
0.953839
0.946718
0.935444
0.918279
0.893333
0.857464
0.806072
0.732527
0.636575
0.528764
0.414677
0.306757
0.223428
0.155827
0.103569
0.0663415
0.0406579
0.023891
0.0134669
0.00728374
0.00378328
0.00188855
0.000906781
0.000419151
0.000186696
8.02074e-05
3.32687e-05
1.33363e-05
5.17182e-06
1.94217e-06
7.06946e-07
2.49656e-07
8.56138e-08
2.8534e-08
9.25021e-09
2.91909e-09
8.97357e-10
2.68908e-10
7.8604e-11
2.24258e-11
6.24826e-12
1.70101e-12
4.52693e-13
1.17828e-13
3.00073e-14
7.48015e-15
1.82583e-15
4.36542e-16
1.0227e-16
2.34833e-17
5.28666e-18
1.16716e-18
2.52763e-19
5.37077e-20
1.11994e-20
2.29233e-21
4.6065e-22
9.0899e-23
1.76164e-23
3.35368e-24
6.27248e-25
1.15276e-25
2.082e-26
3.69598e-27
6.4497e-28
1.10654e-28
1.86664e-29
3.09653e-30
5.05192e-31
8.10681e-32
1.27968e-32
1.98721e-33
3.0363e-34
4.57091e-35
6.7804e-36
9.91024e-37
1.42718e-37
2.02503e-38
2.83097e-39
3.8993e-40
5.29154e-41
7.07488e-42
9.31964e-43
1.20955e-43
1.54667e-44
1.94863e-45
2.41893e-46
2.95864e-47
3.5657e-48
4.23443e-49
4.95513e-50
5.71397e-51
6.49318e-52
7.27158e-53
8.0254e-54
8.72943e-55
9.35841e-56
9.88852e-57
1.02989e-57
1.05729e-58
1.06994e-59
1.06734e-60
1.04964e-61
1.01762e-62
9.72658e-64
9.16584e-65
8.51603e-66
7.80131e-67
7.0465e-68
6.27571e-69
5.51115e-70
4.77211e-71
4.07446e-72
3.43008e-73
2.84713e-74
2.32989e-75
1.87963e-76
1.49458e-77
1.17128e-78
9.04217e-80
6.87634e-81
5.14566e-82
3.78969e-83
2.74052e-84
1.94756e-85
1.35389e-86
9.24159e-88
1.35625e-13
5.15704e-12
8.55494e-11
8.73445e-10
6.32104e-09
3.54237e-08
1.62688e-07
6.34287e-07
2.15364e-06
6.50429e-06
1.77841e-05
4.46539e-05
0.000104128
0.000227301
0.00046831
0.000936661
0.00180891
0.00337055
0.00609298
0.0107334
0.0185103
0.03139
0.0525656
0.0872613
0.144026
0.236557
0.385773
0.535093
0.657852
0.751274
0.810661
0.862188
0.886317
0.902244
0.912054
0.91667
0.918604
0.919006
0.917358
0.915623
0.912701
0.908778
0.907023
0.907687
0.911968
0.921259
0.929115
0.93972
0.95136
0.958722
0.968174
0.974508
0.979397
0.983662
0.986509
0.98812
0.989049
0.988207
0.985014
0.978825
0.967905
0.949762
0.919909
0.871234
0.792472
0.670863
0.526819
0.379905
0.261324
0.173452
0.109204
0.0659243
0.038001
0.0209687
0.0110814
0.0056148
0.00273045
0.00127576
0.000573354
0.000248142
0.000103541
4.17026e-05
1.62313e-05
6.11185e-06
2.22889e-06
7.8805e-07
2.70394e-07
9.01206e-08
2.92025e-08
9.20759e-09
2.82708e-09
8.4589e-10
2.46812e-10
7.02696e-11
1.95332e-11
5.30415e-12
1.40772e-12
3.65322e-13
9.27433e-14
2.30415e-14
5.60435e-15
1.33499e-15
3.11535e-16
7.12439e-17
1.59708e-17
3.51042e-18
7.56758e-19
1.60038e-19
3.32093e-20
6.76328e-21
1.35209e-21
2.65393e-22
5.11551e-23
9.68456e-24
1.80109e-24
3.29099e-25
5.90904e-26
1.04273e-26
1.80862e-27
3.08395e-28
5.17016e-29
8.52294e-30
1.3817e-30
2.20307e-31
3.45524e-32
5.33085e-33
8.09502e-34
1.21101e-34
1.78477e-35
2.59132e-36
3.70642e-37
5.22254e-38
7.24937e-39
9.91316e-40
1.33543e-40
1.77227e-41
2.31711e-42
2.98453e-43
3.78729e-44
4.73492e-45
5.83232e-46
7.07826e-47
8.46415e-48
9.97297e-49
1.15789e-49
1.32471e-50
1.49351e-51
1.65936e-52
1.81692e-53
1.96069e-54
2.08535e-55
2.18604e-56
2.25875e-57
2.30051e-58
2.30962e-59
2.28579e-60
2.23011e-61
2.145e-62
2.03401e-63
1.9016e-64
1.75281e-65
1.59299e-66
1.42745e-67
1.26121e-68
1.09873e-69
9.43785e-71
7.99319e-72
6.67459e-73
5.49475e-74
4.45934e-75
3.56704e-76
2.81207e-77
2.18398e-78
1.67083e-79
1.25809e-80
9.32328e-82
6.78875e-83
4.85832e-84
3.4079e-85
2.3486e-86
1.51599e-13
6.24347e-12
1.01728e-10
1.0464e-09
7.98535e-09
4.75738e-08
2.31722e-07
9.54716e-07
3.41262e-06
1.08017e-05
3.08041e-05
8.03829e-05
0.000194966
0.000449583
0.00101529
0.00215509
0.00415641
0.00756844
0.0135362
0.0239307
0.04262
0.0747542
0.130843
0.228902
0.399306
0.566509
0.693754
0.779746
0.837921
0.867206
0.88124
0.887606
0.889117
0.888293
0.873036
0.849682
0.81685
0.776241
0.73087
0.688744
0.66351
0.6479
0.641933
0.643764
0.658525
0.68873
0.719971
0.76451
0.811182
0.848726
0.887238
0.919187
0.943587
0.963524
0.977077
0.986462
0.991288
0.994395
0.99594
0.996624
0.996808
0.995731
0.993022
0.987381
0.976416
0.955462
0.915739
0.841469
0.70916
0.536463
0.365483
0.239224
0.148455
0.0878267
0.04953
0.0266722
0.0137313
0.00676714
0.00319693
0.00144977
0.000631996
0.00026521
0.000107281
4.1888e-05
1.58071e-05
5.77212e-06
2.04195e-06
7.00574e-07
2.33349e-07
7.55295e-08
2.37779e-08
7.28675e-09
2.17537e-09
6.33106e-10
1.79742e-10
4.98099e-11
1.34808e-11
3.56513e-12
9.21724e-13
2.33069e-13
5.7664e-14
1.39646e-14
3.31137e-15
7.69115e-16
1.7503e-16
3.90392e-17
8.53644e-18
1.83043e-18
3.84979e-19
7.94385e-20
1.60854e-20
3.19693e-21
6.23765e-22
1.19503e-22
2.24846e-23
4.15546e-24
7.54484e-25
1.34601e-25
2.35983e-26
4.06638e-27
6.88799e-28
1.14707e-28
1.87827e-29
3.02444e-30
4.78966e-31
7.46072e-32
1.14325e-32
1.72531e-33
2.56459e-34
3.75486e-35
5.41493e-36
7.69171e-37
1.07619e-37
1.48318e-38
2.01349e-39
2.69253e-40
3.54681e-41
4.60246e-42
5.88341e-43
7.40916e-44
9.19227e-45
1.12358e-45
1.3531e-46
1.60553e-47
1.87706e-48
2.16238e-49
2.45468e-50
2.74589e-51
3.02701e-52
3.28855e-53
3.52105e-54
3.71564e-55
3.86462e-56
3.96195e-57
4.00366e-58
3.98813e-59
3.91615e-60
3.79093e-61
3.61778e-62
3.4038e-63
3.15736e-64
2.88757e-65
2.60374e-66
2.31488e-67
2.02921e-68
1.75384e-69
1.49456e-70
1.25569e-71
1.04008e-72
8.49272e-74
6.83515e-75
5.42163e-76
4.2369e-77
3.26166e-78
2.47188e-79
1.84386e-80
1.35229e-81
9.7503e-83
6.90167e-84
4.8034e-85
1.23763e-13
6.20383e-12
1.26775e-10
1.55588e-09
1.32384e-08
8.53259e-08
4.42827e-07
1.91786e-06
7.07856e-06
2.26147e-05
6.39023e-05
0.000163925
0.000388819
0.000853675
0.00175453
0.00357243
0.00714682
0.0138217
0.0263312
0.0499134
0.0898089
0.1681
0.316583
0.505212
0.655074
0.768001
0.823405
0.852707
0.864995
0.868938
0.869404
0.850252
0.810089
0.736582
0.626424
0.55776
0.473627
0.431577
0.394319
0.37703
0.365663
0.360934
0.36
0.36302
0.367661
0.377887
0.391591
0.41654
0.458154
0.530625
0.619483
0.719241
0.805054
0.871468
0.918758
0.952426
0.973433
0.986393
0.993163
0.996517
0.99803
0.998728
0.99904
0.999009
0.998377
0.996646
0.992554
0.983214
0.9623
0.916176
0.817165
0.641974
0.441669
0.282177
0.171653
0.0991243
0.054447
0.0284979
0.0142371
0.00680058
0.00311124
0.00136562
0.000576057
0.000233906
9.15653e-05
3.4607e-05
1.26456e-05
4.47315e-06
1.53358e-06
5.10152e-07
1.64832e-07
5.17779e-08
1.58266e-08
4.71112e-09
1.3667e-09
3.8666e-10
1.06749e-10
2.8776e-11
7.57802e-12
1.95053e-12
4.90931e-13
1.20876e-13
2.91261e-14
6.87078e-15
1.5873e-15
3.59239e-16
7.96725e-17
1.73204e-17
3.69192e-18
7.71791e-19
1.58273e-19
3.18474e-20
6.28921e-21
1.21917e-21
2.32042e-22
4.33695e-23
7.96153e-24
1.43575e-24
2.54392e-25
4.42933e-26
7.57964e-27
1.27496e-27
2.10836e-28
3.42806e-29
5.48104e-30
8.61863e-31
1.33299e-31
2.02943e-32
3.04278e-33
4.49282e-34
6.53317e-35
9.35606e-36
1.31958e-36
1.83302e-37
2.50782e-38
3.37937e-39
4.48537e-40
5.86406e-41
7.55177e-42
9.58002e-43
1.1972e-43
1.4739e-44
1.78765e-45
2.13616e-46
2.51498e-47
2.91746e-48
3.33475e-49
3.75601e-50
4.16881e-51
4.55973e-52
4.91502e-53
5.22141e-54
5.46696e-55
5.64179e-56
5.73876e-57
5.75396e-58
5.68697e-59
5.54084e-60
5.32191e-61
5.03931e-62
4.70434e-63
4.32976e-64
3.92893e-65
3.51511e-66
3.1007e-67
2.69674e-68
2.31243e-69
1.95497e-70
1.6294e-71
1.33877e-72
1.08422e-73
8.65405e-75
6.80605e-76
5.27313e-77
4.0229e-78
3.02132e-79
2.23222e-80
1.62208e-81
1.15856e-82
8.14335e-84
8.10722e-14
5.37898e-12
1.1674e-10
1.47501e-09
1.31456e-08
8.91051e-08
4.84727e-07
2.22038e-06
8.92627e-06
3.19222e-05
0.000100698
0.000281001
0.000703492
0.00162293
0.00354281
0.00742829
0.0150744
0.0287917
0.0524003
0.0955387
0.189197
0.353486
0.535161
0.70073
0.788761
0.832851
0.85003
0.855269
0.856134
0.837077
0.785639
0.67398
0.547813
0.452684
0.405245
0.360923
0.338718
0.327436
0.321791
0.319721
0.319306
0.321411
0.323713
0.326326
0.328754
0.329756
0.326605
0.32287
0.321326
0.320959
0.339006
0.385798
0.493047
0.640496
0.780267
0.868409
0.925098
0.9602
0.979926
0.990263
0.995487
0.997986
0.999058
0.99949
0.999672
0.999718
0.999554
0.998921
0.997112
0.992208
0.979301
0.94621
0.863469
0.685392
0.466088
0.290906
0.17215
0.0965164
0.0513675
0.0260101
0.0125574
0.00579265
0.00255848
0.00108412
0.000441557
0.000173172
6.55039e-05
2.39343e-05
8.4597e-06
2.89624e-06
9.61566e-07
3.09934e-07
9.70821e-08
2.95795e-08
8.77384e-09
2.53553e-09
7.14392e-10
1.96368e-10
5.26904e-11
1.38087e-11
3.53636e-12
8.85404e-13
2.16819e-13
5.19516e-14
1.21845e-14
2.79822e-15
6.29451e-16
1.38734e-16
2.99692e-17
6.34684e-18
1.3181e-18
2.68505e-19
5.36633e-20
1.0525e-20
2.02618e-21
3.82947e-22
7.10701e-23
1.29541e-23
2.31939e-24
4.08004e-25
7.05259e-26
1.19811e-26
2.00064e-27
3.28423e-28
5.30083e-29
8.41314e-30
1.31319e-30
2.01707e-31
3.05049e-32
4.54248e-33
6.6604e-34
9.61627e-35
1.36718e-35
1.91415e-36
2.6392e-37
3.58369e-38
4.79259e-39
6.31259e-40
8.18954e-41
1.04651e-41
1.31729e-42
1.63338e-43
1.99519e-44
2.40098e-45
2.84656e-46
3.32506e-47
3.82688e-48
4.33985e-49
4.84963e-50
5.3403e-51
5.79515e-52
6.1976e-53
6.53223e-54
6.78574e-55
6.94783e-56
7.01187e-57
6.97542e-58
6.84029e-59
6.61246e-60
6.30159e-61
5.92039e-62
5.48373e-63
5.00769e-64
4.50862e-65
4.0022e-66
3.50271e-67
3.02243e-68
2.57126e-69
2.15652e-70
1.78302e-71
1.45315e-72
1.16725e-73
9.23926e-75
7.20523e-76
5.53419e-77
4.18546e-78
3.11552e-79
2.28205e-80
1.64452e-81
1.16726e-82
3.26139e-14
3.85498e-12
9.65847e-11
1.32638e-09
1.29247e-08
9.64665e-08
5.62916e-07
2.62036e-06
1.0032e-05
3.44023e-05
0.000108756
0.000310471
0.000802959
0.0019211
0.00437612
0.00959271
0.0200961
0.0401656
0.0803994
0.170398
0.326858
0.520261
0.698489
0.788536
0.83015
0.845255
0.848503
0.844652
0.814781
0.729261
0.564338
0.460462
0.388088
0.352564
0.334513
0.322973
0.317544
0.314242
0.312432
0.31202
0.312675
0.3143
0.320919
0.326794
0.338034
0.349219
0.355436
0.359156
0.342166
0.315595
0.298748
0.293345
0.304303
0.35749
0.497961
0.709544
0.832734
0.913024
0.956612
0.978949
0.990011
0.995387
0.997955
0.999127
0.999626
0.999822
0.999898
0.999912
0.999837
0.999516
0.998442
0.995042
0.984707
0.954458
0.868898
0.668634
0.436294
0.264872
0.151528
0.081962
0.0420336
0.0204931
0.00952294
0.00422827
0.00179803
0.000733875
0.00028808
0.000108962
3.9778e-05
1.40375e-05
4.79538e-06
1.58782e-06
5.1019e-07
1.59248e-07
4.83328e-08
1.42764e-08
4.10723e-09
1.15173e-09
3.14998e-10
8.40796e-11
2.19149e-11
5.5806e-12
1.38906e-12
3.38108e-13
8.05123e-14
1.87634e-14
4.28115e-15
9.56662e-16
2.09433e-16
4.49317e-17
9.44948e-18
1.94862e-18
3.94119e-19
7.82011e-20
1.5226e-20
2.9097e-21
5.45867e-22
1.00553e-22
1.81909e-23
3.23256e-24
5.64351e-25
9.68135e-26
1.63221e-26
2.7048e-27
4.40635e-28
7.05776e-29
1.11161e-29
1.72253e-30
2.62752e-31
3.94562e-32
5.83303e-33
8.4899e-34
1.21664e-34
1.7167e-35
2.38517e-36
3.26333e-37
4.39682e-38
5.83409e-39
7.62405e-40
9.81292e-41
1.24403e-41
1.55348e-42
1.91092e-43
2.31559e-44
2.76432e-45
3.25116e-46
3.76734e-47
4.30128e-48
4.83889e-49
5.36415e-50
5.85977e-51
6.30821e-52
6.69262e-53
6.99794e-54
7.21185e-55
7.32561e-56
7.33465e-57
7.23888e-58
7.04266e-59
6.75445e-60
6.38625e-61
5.95276e-62
5.47039e-63
4.95627e-64
4.42725e-65
3.89906e-66
3.38555e-67
2.89826e-68
2.44607e-69
2.03518e-70
1.66919e-71
1.34938e-72
1.07504e-73
8.43923e-75
6.5264e-76
4.97096e-77
3.72817e-78
2.7528e-79
2.00127e-80
1.43417e-81
1.55671e-14
1.93976e-12
5.78398e-11
1.03744e-09
1.10232e-08
8.59356e-08
5.26139e-07
2.69952e-06
1.19586e-05
4.44397e-05
0.00014346
0.00040466
0.00106416
0.00267519
0.00646525
0.014796
0.0316107
0.0653212
0.132684
0.261792
0.450388
0.643968
0.768398
0.82084
0.840059
0.844213
0.84071
0.811386
0.712392
0.543677
0.433417
0.37093
0.339251
0.324173
0.316549
0.303845
0.294111
0.281527
0.264786
0.242009
0.229544
0.224879
0.230712
0.246013
0.272752
0.309401
0.355158
0.383504
0.397353
0.402074
0.360067
0.304681
0.283984
0.287005
0.319046
0.439356
0.676616
0.830583
0.918352
0.962767
0.983628
0.992839
0.99685
0.998625
0.999408
0.999746
0.999895
0.999953
0.999972
0.999966
0.999909
0.999662
0.998726
0.995375
0.98397
0.946976
0.831745
0.590897
0.367312
0.214243
0.117636
0.0610171
0.0299982
0.0140225
0.00625047
0.00266395
0.00108829
0.000427123
0.000161375
5.88026e-05
2.06996e-05
7.04986e-06
2.32618e-06
7.44524e-07
2.31402e-07
6.99099e-08
2.05488e-08
5.88124e-09
1.64024e-09
4.46068e-10
1.18364e-10
3.0663e-11
7.7592e-12
1.91885e-12
4.63967e-13
1.09733e-13
2.53964e-14
5.75371e-15
1.2765e-15
2.77421e-16
5.90793e-17
1.23322e-17
2.52393e-18
5.06596e-19
9.97486e-20
1.92715e-20
3.6542e-21
6.80189e-22
1.24314e-22
2.23126e-23
3.93371e-24
6.81328e-25
1.15955e-25
1.93941e-26
3.18838e-27
5.15291e-28
8.18798e-29
1.27983e-29
1.9688e-30
2.98096e-31
4.44267e-32
6.51765e-33
9.41295e-34
1.33836e-34
1.87354e-35
2.58237e-36
3.50483e-37
4.68415e-38
6.16504e-39
7.99111e-40
1.02016e-40
1.28275e-41
1.58874e-42
1.93831e-43
2.32957e-44
2.75826e-45
3.21751e-46
3.69788e-47
4.18751e-48
4.6725e-49
5.13753e-50
5.56662e-51
5.94402e-52
6.25519e-53
6.48771e-54
6.63213e-55
6.68255e-56
6.6371e-57
6.49798e-58
6.2713e-59
5.96667e-60
5.59649e-61
5.17512e-62
4.71798e-63
4.24064e-64
3.75795e-65
3.28334e-66
2.82828e-67
2.40193e-68
2.01101e-69
1.65981e-70
1.35038e-71
1.08284e-72
8.55701e-74
6.66293e-75
5.1112e-76
3.8623e-77
2.87475e-78
2.10806e-79
1.5249e-80
8.99475e-15
9.49581e-13
3.21169e-11
5.83783e-10
6.95184e-09
6.01545e-08
4.1462e-07
2.3411e-06
1.08424e-05
4.2469e-05
0.000143182
0.000452113
0.00129152
0.00336938
0.00809698
0.0180908
0.0383775
0.0789869
0.164273
0.316563
0.523071
0.712491
0.798512
0.830303
0.839753
0.840732
0.822118
0.742965
0.589637
0.436914
0.366443
0.33131
0.314789
0.305976
0.288554
0.260909
0.224811
0.179793
0.142964
0.120831
0.111081
0.108111
0.115633
0.12947
0.15138
0.178599
0.222833
0.309489
0.391608
0.422362
0.434066
0.404011
0.32174
0.284259
0.285666
0.316398
0.461452
0.700534
0.852702
0.933998
0.972575
0.989087
0.995717
0.998301
0.999312
0.999717
0.99988
0.99995
0.99998
0.999991
0.999991
0.999979
0.999912
0.999616
0.998389
0.993619
0.976119
0.915266
0.725232
0.466059
0.276864
0.154001
0.0806189
0.0398854
0.0187185
0.00836134
0.00356588
0.00145595
0.000570555
0.000215071
7.81378e-05
2.74098e-05
9.29824e-06
3.05464e-06
9.73046e-07
3.00894e-07
9.04165e-08
2.64262e-08
7.51869e-09
2.08401e-09
5.63137e-10
1.48444e-10
3.81946e-11
9.59779e-12
2.35662e-12
5.65671e-13
1.32796e-13
3.05022e-14
6.85761e-15
1.50962e-15
3.25512e-16
6.87716e-17
1.42407e-17
2.89106e-18
5.75584e-19
1.12409e-19
2.15397e-20
4.0507e-21
7.47775e-22
1.35536e-22
2.41253e-23
4.21801e-24
7.24505e-25
1.22279e-25
2.0282e-26
3.30666e-27
5.29972e-28
8.35415e-29
1.29579e-29
1.97782e-30
2.97093e-31
4.39226e-32
6.39152e-33
9.15534e-34
1.29101e-34
1.79227e-35
2.44977e-36
3.29702e-37
4.3694e-38
5.70235e-39
7.329e-40
9.27729e-41
1.15667e-41
1.42048e-42
1.71838e-43
2.04782e-44
2.40422e-45
2.78091e-46
3.16924e-47
3.55878e-48
3.93772e-49
4.29348e-50
4.61334e-51
4.8852e-52
5.09837e-53
5.24424e-54
5.31683e-55
5.31329e-56
5.23395e-57
5.08242e-58
4.86519e-59
4.59129e-60
4.27156e-61
3.91803e-62
3.54313e-63
3.15902e-64
2.77694e-65
2.40674e-66
2.05654e-67
1.73251e-68
1.4389e-69
1.17808e-70
9.50775e-72
7.56307e-73
5.92922e-74
4.58069e-75
3.48733e-76
2.61628e-77
1.93481e-78
1.41236e-79
7.25509e-15
6.12222e-13
1.74018e-11
3.10675e-10
3.67283e-09
3.33197e-08
2.47637e-07
1.52664e-06
7.81555e-06
3.42542e-05
0.000126843
0.000413135
0.00120755
0.0031946
0.00772087
0.0172825
0.0370652
0.0809204
0.179075
0.348891
0.562485
0.727744
0.800471
0.829885
0.837991
0.831911
0.784416
0.671293
0.499854
0.388513
0.339842
0.315294
0.301483
0.28266
0.246411
0.200839
0.152287
0.112111
0.0884859
0.0768007
0.0718315
0.0705454
0.0770821
0.0900604
0.113022
0.139644
0.163894
0.202262
0.29386
0.40138
0.44198
0.44741
0.411574
0.316689
0.285146
0.288186
0.339001
0.544161
0.763681
0.889583
0.952906
0.981521
0.993204
0.997599
0.999158
0.999697
0.999887
0.999955
0.999982
0.999994
0.999997
0.999997
0.999994
0.999971
0.999856
0.999318
0.996986
0.987501
0.951313
0.820185
0.55018
0.331346
0.186116
0.0980458
0.0486814
0.0228812
0.0102202
0.00435309
0.00177341
0.000692877
0.000260235
9.41548e-05
3.28767e-05
1.10972e-05
3.62618e-06
1.14858e-06
3.5306e-07
1.05432e-07
3.0615e-08
8.65191e-09
2.38146e-09
6.38908e-10
1.6718e-10
4.26916e-11
1.06453e-11
2.59335e-12
6.17531e-13
1.43797e-13
3.27584e-14
7.30378e-15
1.59437e-15
3.40882e-16
7.1406e-17
1.46596e-17
2.95048e-18
5.82336e-19
1.12741e-19
2.14154e-20
3.99223e-21
7.30548e-22
1.31257e-22
2.31594e-23
4.01374e-24
6.83397e-25
1.14334e-25
1.87989e-26
3.03816e-27
4.82857e-28
7.54946e-29
1.16131e-29
1.75774e-30
2.61804e-31
3.83754e-32
5.53634e-33
7.86184e-34
1.09898e-34
1.51237e-35
2.04909e-36
2.73357e-37
3.59084e-38
4.64505e-39
5.91755e-40
7.42472e-41
9.17555e-42
1.11693e-42
1.33933e-43
1.58212e-44
1.84124e-45
2.11117e-46
2.38507e-47
2.65501e-48
2.91235e-49
3.14813e-50
3.35364e-51
3.5209e-52
3.64324e-53
3.71567e-54
3.73525e-55
3.70131e-56
3.61545e-57
3.48141e-58
3.30485e-59
3.09289e-60
2.8537e-61
2.59593e-62
2.32824e-63
2.05882e-64
1.79502e-65
1.54305e-66
1.3078e-67
1.09283e-68
9.00305e-70
7.31207e-71
5.85434e-72
4.6205e-73
3.59462e-74
2.75675e-75
2.08427e-76
1.55412e-77
1.14448e-78
9.33002e-12
1.4739e-13
7.42689e-12
1.44849e-10
1.97647e-09
1.83962e-08
1.33601e-07
8.41234e-07
4.50959e-06
2.07336e-05
8.5257e-05
0.000302665
0.000943273
0.00260642
0.00646178
0.0147514
0.0328973
0.0745105
0.167756
0.335053
0.550368
0.717344
0.794158
0.826308
0.834859
0.826933
0.784515
0.671423
0.49228
0.379141
0.327306
0.302486
0.285839
0.259115
0.216343
0.166405
0.119844
0.0869631
0.0683349
0.0585883
0.0550176
0.0575401
0.0625133
0.0728715
0.0945624
0.127019
0.153782
0.181614
0.24314
0.359707
0.438352
0.457721
0.444487
0.362397
0.290586
0.279832
0.300214
0.435319
0.691497
0.85324
0.936642
0.974618
0.99048
0.996635
0.998874
0.999641
0.999887
0.999964
0.999988
0.999996
0.999999
0.999999
0.999999
0.999998
0.999988
0.999931
0.999641
0.998269
0.992227
0.967394
0.871395
0.611584
0.371294
0.209738
0.110777
0.0550185
0.0258251
0.0115061
0.00488421
0.00198172
0.000770714
0.000288013
0.000103641
3.59806e-05
1.20711e-05
3.91932e-06
1.23318e-06
3.76453e-07
1.11614e-07
3.21711e-08
9.0226e-09
2.46412e-09
6.55801e-10
1.70198e-10
4.31005e-11
1.06562e-11
2.57367e-12
6.07502e-13
1.40214e-13
3.16575e-14
6.99489e-15
1.51312e-15
3.20565e-16
6.65357e-17
1.35342e-17
2.69889e-18
5.27762e-19
1.0123e-19
1.9051e-20
3.51858e-21
6.37914e-22
1.13553e-22
1.98505e-23
3.40853e-24
5.75001e-25
9.53139e-26
1.55277e-26
2.4873e-27
3.91873e-28
6.0731e-29
9.25912e-30
1.3889e-30
2.05003e-31
2.9777e-32
4.25672e-33
5.98941e-34
8.29558e-35
1.1311e-35
1.51838e-36
2.0069e-37
2.61195e-38
3.34761e-39
4.22537e-40
5.25274e-41
6.43173e-42
7.75745e-43
9.21695e-44
1.07885e-44
1.24411e-45
1.41357e-46
1.58253e-47
1.74578e-48
1.89781e-49
2.03313e-50
2.14659e-51
2.23369e-52
2.29093e-53
2.31596e-54
2.30782e-55
2.26696e-56
2.19519e-57
2.09559e-58
1.97224e-59
1.82999e-60
1.67411e-61
1.51001e-62
1.34289e-63
1.17755e-64
1.01811e-65
8.67937e-67
7.29562e-68
6.04657e-69
4.94112e-70
3.98109e-71
3.1626e-72
2.47718e-73
1.91336e-74
1.45752e-75
1.09546e-76
8.13559e-78
2.79852e-05
1.62221e-06
6.80992e-08
2.97264e-09
1.08152e-09
6.99946e-09
6.3934e-08
4.29278e-07
2.32873e-06
1.10034e-05
4.61549e-05
0.000170848
0.000559619
0.00163406
0.00430703
0.0105184
0.0249018
0.0587572
0.136573
0.292637
0.509536
0.68559
0.775661
0.816705
0.827812
0.824213
0.792938
0.696416
0.516444
0.393484
0.332885
0.304228
0.287233
0.262204
0.222227
0.174135
0.128054
0.0941586
0.0742113
0.0629228
0.0572921
0.0577686
0.0613502
0.0705638
0.0900511
0.124088
0.154912
0.180673
0.233284