/*--------------------------------*- C++ -*----------------------------------*\
  =========                 |
  \\      /  F ield         | OpenFOAM: The Open Source CFD Toolbox
   \\    /   O peration     | Website:  https://openfoam.org
    \\  /    A nd           | Version:  7
     \\/     M anipulation  |
\*---------------------------------------------------------------------------*/
FoamFile
{
    version     2.0;
    format      ascii;
    class       volVectorField;
    location    "0.024";
    object      U;
}
// * * * * * * * * * * * * * * * * * * * * * * * * * * * * * * * * * * * * * //

dimensions      [0 1 -1 0 0 0 0];

internalField   nonuniform List<vector> 
12225
(
(4.82789 0.191892 0)
(4.16575 0.127637 0)
(3.66305 0.0971135 0)
(3.27731 0.0778663 0)
(2.93532 0.0695241 0)
(2.61945 0.0619859 0)
(2.32803 0.0544344 0)
(2.05411 0.0484094 0)
(1.80079 0.0409332 0)
(1.57988 0.0305062 0)
(1.3958 0.0195837 0)
(1.25214 0.0111854 0)
(1.13759 0.00640936 0)
(1.05318 0.00469284 0)
(0.973076 0.00399787 0)
(0.912691 0.00279197 0)
(0.842361 0.00727545 0)
(0.779278 -0.000332075 0)
(4.96905 0.144584 0)
(4.83837 0.0852365 0)
(4.70089 0.103 0)
(4.60194 0.0999202 0)
(4.50857 0.0921323 0)
(4.40131 0.0884689 0)
(4.27571 0.0886954 0)
(4.13976 0.0902438 0)
(4.00695 0.0904242 0)
(3.88708 0.087366 0)
(3.77521 0.0801325 0)
(3.67003 0.0698219 0)
(3.56655 0.0596666 0)
(3.47222 0.0518064 0)
(3.37384 0.0497439 0)
(3.28642 0.0478695 0)
(3.1867 0.0541157 0)
(3.09616 0.0553238 0)
(4.99852 0.203679 0)
(4.822 0.141671 0)
(4.69704 0.136514 0)
(4.66539 0.122744 0)
(4.67172 0.118017 0)
(4.6751 0.12193 0)
(4.66121 0.125315 0)
(4.63511 0.123811 0)
(4.6075 0.117348 0)
(4.58285 0.107693 0)
(4.5581 0.0967314 0)
(4.5292 0.0866712 0)
(4.49543 0.0787582 0)
(4.4565 0.0746088 0)
(4.41506 0.0746751 0)
(4.36849 0.0764516 0)
(4.3236 0.0837387 0)
(4.27013 0.0937209 0)
(4.99041 0.213554 0)
(4.87172 0.163472 0)
(4.79525 0.144317 0)
(4.76505 0.12036 0)
(4.75528 0.102162 0)
(4.75887 0.0984985 0)
(4.76753 0.103089 0)
(4.76763 0.108005 0)
(4.75411 0.108759 0)
(4.73196 0.104476 0)
(4.71016 0.0974328 0)
(4.69314 0.0896425 0)
(4.68237 0.0835926 0)
(4.67397 0.0810562 0)
(4.66785 0.0833372 0)
(4.65877 0.0884414 0)
(4.6501 0.097554 0)
(4.636 0.107775 0)
(4.99156 0.235546 0)
(4.8881 0.173058 0)
(4.77815 0.140579 0)
(4.72427 0.127066 0)
(4.71354 0.118658 0)
(4.71902 0.115052 0)
(4.72768 0.117245 0)
(4.73661 0.122102 0)
(4.74733 0.123889 0)
(4.76001 0.118718 0)
(4.7723 0.107709 0)
(4.78014 0.0947073 0)
(4.78119 0.0841356 0)
(4.7749 0.0787481 0)
(4.76454 0.0799221 0)
(4.75204 0.0855759 0)
(4.74034 0.0949251 0)
(4.72989 0.105356 0)
(4.94938 0.256156 0)
(4.91072 0.217326 0)
(4.83671 0.179964 0)
(4.81065 0.14189 0)
(4.81984 0.11246 0)
(4.82587 0.100851 0)
(4.81519 0.10081 0)
(4.79691 0.103317 0)
(4.78522 0.103444 0)
(4.78584 0.100015 0)
(4.79489 0.0949465 0)
(4.80434 0.0908521 0)
(4.80805 0.089529 0)
(4.80362 0.0917314 0)
(4.79344 0.0970573 0)
(4.78056 0.103897 0)
(4.76867 0.111331 0)
(4.7596 0.118042 0)
(4.90727 0.270718 0)
(4.87166 0.213735 0)
(4.81862 0.157397 0)
(4.77778 0.126312 0)
(4.76822 0.114576 0)
(4.77932 0.117609 0)
(4.79036 0.125806 0)
(4.79273 0.129693 0)
(4.79065 0.124649 0)
(4.7904 0.111898 0)
(4.79368 0.0968996 0)
(4.79815 0.0854298 0)
(4.80108 0.0806224 0)
(4.80107 0.0825467 0)
(4.79894 0.0890044 0)
(4.79532 0.0970564 0)
(4.79176 0.104759 0)
(4.78826 0.110868 0)
(4.98654 0.314413 0)
(4.98507 0.246711 0)
(4.90867 0.207238 0)
(4.83076 0.160988 0)
(4.78096 0.117064 0)
(4.76319 0.0960428 0)
(4.77079 0.0954192 0)
(4.79463 0.101456 0)
(4.82373 0.103846 0)
(4.84634 0.100394 0)
(4.85425 0.0944121 0)
(4.84636 0.0902573 0)
(4.82895 0.0902509 0)
(4.8098 0.0944322 0)
(4.79607 0.101296 0)
(4.78898 0.108857 0)
(4.78897 0.115629 0)
(4.79235 0.120992 0)
(4.95894 0.3109 0)
(4.9622 0.247426 0)
(4.95115 0.193356 0)
(4.95855 0.156714 0)
(4.93574 0.135966 0)
(4.88754 0.125485 0)
(4.84718 0.117863 0)
(4.83239 0.10994 0)
(4.83859 0.102825 0)
(4.85177 0.0986563 0)
(4.85991 0.0978296 0)
(4.85778 0.0989215 0)
(4.84794 0.10029 0)
(4.83588 0.101097 0)
(4.82749 0.10145 0)
(4.82457 0.101858 0)
(4.82794 0.102431 0)
(4.83423 0.103994 0)
(4.9397 0.270788 0)
(4.97501 0.249587 0)
(4.96149 0.210997 0)
(4.91536 0.176402 0)
(4.88062 0.154037 0)
(4.87428 0.135666 0)
(4.8838 0.116549 0)
(4.89385 0.0993866 0)
(4.90063 0.0887686 0)
(4.90732 0.0863266 0)
(4.91562 0.0900892 0)
(4.92368 0.0963561 0)
(4.92872 0.101868 0)
(4.92929 0.105347 0)
(4.92509 0.10694 0)
(4.91738 0.107635 0)
(4.90742 0.108417 0)
(4.89642 0.109407 0)
(4.96931 0.311436 0)
(4.93066 0.246303 0)
(4.90651 0.209416 0)
(4.90729 0.174969 0)
(4.91548 0.14204 0)
(4.92612 0.121762 0)
(4.93226 0.113329 0)
(4.93101 0.107921 0)
(4.92565 0.100773 0)
(4.92135 0.0935944 0)
(4.92111 0.0900108 0)
(4.92404 0.0915962 0)
(4.92777 0.0969554 0)
(4.92922 0.10391 0)
(4.92786 0.110411 0)
(4.92248 0.115332 0)
(4.91582 0.118447 0)
(4.90719 0.119118 0)
(4.99751 0.261447 0)
(5.04888 0.25966 0)
(5.03545 0.218345 0)
(5.02352 0.179308 0)
(4.99789 0.152048 0)
(4.96598 0.13079 0)
(4.9482 0.113091 0)
(4.94886 0.0994109 0)
(4.95659 0.090951 0)
(4.95814 0.0882357 0)
(4.94868 0.0900372 0)
(4.93145 0.0944616 0)
(4.91442 0.100035 0)
(4.90317 0.105815 0)
(4.90144 0.11131 0)
(4.90695 0.115946 0)
(4.91894 0.119271 0)
(4.93191 0.121314 0)
(4.9672 0.271679 0)
(4.95357 0.25848 0)
(4.95347 0.228159 0)
(4.96293 0.186014 0)
(4.95437 0.159339 0)
(4.92938 0.142083 0)
(4.90672 0.12437 0)
(4.89824 0.107145 0)
(4.90164 0.0970193 0)
(4.90822 0.0967595 0)
(4.91203 0.102798 0)
(4.91262 0.109154 0)
(4.91274 0.111807 0)
(4.91505 0.110278 0)
(4.92003 0.106148 0)
(4.92753 0.101782 0)
(4.93567 0.0984577 0)
(4.94406 0.097335 0)
(4.99841 0.358387 0)
(4.9955 0.245464 0)
(5.02002 0.187817 0)
(5.02046 0.172561 0)
(4.97518 0.171897 0)
(4.92306 0.158467 0)
(4.89759 0.129095 0)
(4.90236 0.0993239 0)
(4.92503 0.0831852 0)
(4.95256 0.0821627 0)
(4.97648 0.0889079 0)
(4.99321 0.0960818 0)
(5.00207 0.10039 0)
(5.00394 0.102671 0)
(5.00014 0.104577 0)
(4.99231 0.106973 0)
(4.98279 0.109773 0)
(4.97274 0.11116 0)
(5.04878 0.306148 0)
(5.0343 0.263413 0)
(5.0029 0.237101 0)
(4.98167 0.227695 0)
(4.97119 0.222018 0)
(4.97227 0.193094 0)
(4.97838 0.140601 0)
(4.98176 0.0880885 0)
(4.98038 0.0569642 0)
(4.97667 0.0519371 0)
(4.97424 0.0643154 0)
(4.97521 0.082467 0)
(4.97991 0.0983807 0)
(4.98664 0.109077 0)
(4.99416 0.114744 0)
(5.00035 0.116565 0)
(5.00589 0.115841 0)
(5.00884 0.11328 0)
(4.93964 0.346904 0)
(4.953 0.257376 0)
(4.96738 0.209802 0)
(4.97645 0.183627 0)
(4.99174 0.167745 0)
(5.01376 0.144304 0)
(5.03367 0.117005 0)
(5.0408 0.0995279 0)
(5.03382 0.0959154 0)
(5.0198 0.0993852 0)
(5.00803 0.101315 0)
(5.004 0.0984951 0)
(5.00875 0.0929414 0)
(5.01914 0.0889385 0)
(5.03143 0.0891215 0)
(5.04158 0.0929803 0)
(5.04824 0.0989916 0)
(5.04994 0.103337 0)
(5.0008 0.327982 0)
(5.00003 0.230781 0)
(4.98797 0.214384 0)
(4.99044 0.213305 0)
(5.0001 0.192373 0)
(4.99912 0.155287 0)
(4.99193 0.116176 0)
(4.98985 0.0876549 0)
(4.99807 0.074105 0)
(5.01369 0.0712792 0)
(5.03051 0.0719817 0)
(5.04289 0.0722263 0)
(5.04867 0.0721673 0)
(5.04795 0.0745397 0)
(5.04417 0.0810732 0)
(5.04012 0.0913809 0)
(5.0391 0.10307 0)
(5.04208 0.112782 0)
(4.98572 0.336057 0)
(4.96088 0.258521 0)
(4.96671 0.194601 0)
(4.98913 0.173842 0)
(5.00779 0.167159 0)
(5.01207 0.152265 0)
(5.01015 0.123482 0)
(5.01219 0.0904498 0)
(5.02004 0.0665556 0)
(5.03012 0.0583913 0)
(5.03824 0.0644314 0)
(5.04157 0.0786989 0)
(5.04014 0.0942148 0)
(5.03612 0.10585 0)
(5.0338 0.11006 0)
(5.03618 0.106953 0)
(5.04578 0.096531 0)
(5.0616 0.0818725 0)
(4.96509 0.282252 0)
(4.97035 0.215502 0)
(4.98086 0.169053 0)
(4.9996 0.158169 0)
(5.02771 0.160434 0)
(5.05427 0.148576 0)
(5.06914 0.115246 0)
(5.07303 0.0739704 0)
(5.06981 0.0442108 0)
(5.06334 0.0358646 0)
(5.05932 0.0451687 0)
(5.06288 0.0611114 0)
(5.07504 0.0732586 0)
(5.09327 0.0758585 0)
(5.11442 0.0681398 0)
(5.13518 0.0531589 0)
(5.15411 0.0347379 0)
(5.1684 0.0174658 0)
(4.95096 0.234841 0)
(4.96816 0.193306 0)
(4.9869 0.153532 0)
(5.00665 0.118657 0)
(5.04411 0.0979637 0)
(5.08756 0.0898839 0)
(5.11805 0.089387 0)
(5.13043 0.0902761 0)
(5.12983 0.0880463 0)
(5.12298 0.0806065 0)
(5.117 0.0681149 0)
(5.11758 0.0527895 0)
(5.12627 0.0379887 0)
(5.1403 0.0266294 0)
(5.15626 0.0199438 0)
(5.171 0.0174586 0)
(5.18345 0.0177128 0)
(5.19217 0.0189458 0)
(4.99592 0.150907 0)
(5.00098 0.14925 0)
(5.02489 0.115213 0)
(5.05587 0.0766354 0)
(5.08103 0.0555943 0)
(5.10063 0.0504294 0)
(5.11789 0.0528823 0)
(5.13666 0.0570214 0)
(5.15838 0.0590814 0)
(5.17964 0.056592 0)
(5.19673 0.048718 0)
(5.2083 0.0364998 0)
(5.21479 0.0223883 0)
(5.2171 0.00914625 0)
(5.21757 -0.00131456 0)
(5.21806 -0.00832101 0)
(5.22043 -0.0126533 0)
(5.22415 -0.014555 0)
(5.12181 0.235354 0)
(5.13688 0.15564 0)
(5.12862 0.0929708 0)
(5.14357 0.0679051 0)
(5.15457 0.0580831 0)
(5.16131 0.0518818 0)
(5.16989 0.0475647 0)
(5.18162 0.0446822 0)
(5.19545 0.0419245 0)
(5.20808 0.0391743 0)
(5.21687 0.0367468 0)
(5.22241 0.0343746 0)
(5.22729 0.0310699 0)
(5.23396 0.026074 0)
(5.24354 0.0192062 0)
(5.25501 0.0118457 0)
(5.26779 0.00532515 0)
(5.27988 0.000477894 0)
(5.10887 0.209256 0)
(5.13571 0.170571 0)
(5.1168 0.0941027 0)
(5.11362 0.0474075 0)
(5.11276 0.0331617 0)
(5.11955 0.0291098 0)
(5.13885 0.0239076 0)
(5.16648 0.0194918 0)
(5.19428 0.0192726 0)
(5.21431 0.0218189 0)
(5.22343 0.0220659 0)
(5.22442 0.0159877 0)
(5.22267 0.00310709 0)
(5.22199 -0.0137103 0)
(5.22563 -0.0301231 0)
(5.2347 -0.0427022 0)
(5.24772 -0.0494866 0)
(5.26191 -0.0496426 0)
(5.03009 0.18639 0)
(5.10397 0.165896 0)
(5.15244 0.119025 0)
(5.17765 0.0848312 0)
(5.18682 0.0636612 0)
(5.2003 0.0385995 0)
(5.21799 0.013303 0)
(5.23277 -1.89249e-05 0)
(5.24406 0.00374693 0)
(5.25526 0.0185966 0)
(5.27008 0.0337528 0)
(5.28974 0.0405867 0)
(5.31173 0.0355551 0)
(5.33069 0.0202901 0)
(5.34147 0.00076242 0)
(5.34304 -0.0173626 0)
(5.33783 -0.0311017 0)
(5.3297 -0.0386037 0)
(4.9371 0.168813 0)
(5.01702 0.075352 0)
(5.10413 0.0410999 0)
(5.17966 0.0261659 0)
(5.23803 0.0103814 0)
(5.27603 -0.00442842 0)
(5.29013 -0.010877 0)
(5.28525 -0.00901029 0)
(5.27734 -0.00509664 0)
(5.28089 -0.00596261 0)
(5.30097 -0.0127398 0)
(5.33296 -0.0235131 0)
(5.36705 -0.0341403 0)
(5.39481 -0.0407962 0)
(5.41288 -0.0423539 0)
(5.42118 -0.0401965 0)
(5.42302 -0.0371162 0)
(5.42138 -0.0366444 0)
(5.02989 0.166666 0)
(5.1055 0.0889591 0)
(5.17913 0.0574282 0)
(5.20742 0.035341 0)
(5.21804 0.0145492 0)
(5.24031 0.00301252 0)
(5.27487 0.00463833 0)
(5.31276 0.0100269 0)
(5.34727 0.00957945 0)
(5.37517 0.0022509 0)
(5.39546 -0.00737767 0)
(5.40874 -0.0153891 0)
(5.41791 -0.0204236 0)
(5.42564 -0.0227238 0)
(5.43428 -0.0240043 0)
(5.44433 -0.0254277 0)
(5.45624 -0.0278893 0)
(5.46842 -0.0312604 0)
(5.0132 0.14912 0)
(5.12296 -0.00437054 0)
(5.23202 -0.0113899 0)
(5.30884 0.00479875 0)
(5.35245 -0.0150348 0)
(5.37028 -0.0441535 0)
(5.38086 -0.0566989 0)
(5.39443 -0.0525619 0)
(5.41152 -0.0433935 0)
(5.42801 -0.0375092 0)
(5.44161 -0.0378444 0)
(5.45349 -0.0425957 0)
(5.46623 -0.0489069 0)
(5.48131 -0.0543856 0)
(5.49833 -0.0578439 0)
(5.51475 -0.0593262 0)
(5.52866 -0.0597719 0)
(5.53716 -0.0605948 0)
(5.18349 0.162017 0)
(5.31595 0.0454158 0)
(5.39162 0.00722221 0)
(5.44522 -0.00779104 0)
(5.47401 -0.0173897 0)
(5.47039 -0.0148486 0)
(5.45164 -0.0084753 0)
(5.44486 -0.00600846 0)
(5.46189 -0.00859761 0)
(5.49597 -0.0144494 0)
(5.53362 -0.0218935 0)
(5.56483 -0.0301158 0)
(5.58655 -0.0382942 0)
(5.60074 -0.0447699 0)
(5.61141 -0.0477798 0)
(5.62099 -0.0471783 0)
(5.63075 -0.0439343 0)
(5.6398 -0.0406099 0)
(5.00083 -0.00610557 0)
(5.26917 -0.0495284 0)
(5.38649 -0.0303827 0)
(5.40684 -0.0367224 0)
(5.4183 -0.0423881 0)
(5.44954 -0.0416816 0)
(5.49264 -0.0449288 0)
(5.53153 -0.0554261 0)
(5.55375 -0.0670582 0)
(5.55512 -0.0733547 0)
(5.53974 -0.0730952 0)
(5.51644 -0.0695787 0)
(5.49315 -0.0671657 0)
(5.47452 -0.0678831 0)
(5.46043 -0.0706098 0)
(5.44949 -0.0733255 0)
(5.43827 -0.0746397 0)
(5.42676 -0.074507 0)
(5.04147 0.0725599 0)
(5.16503 -0.0198574 0)
(5.09953 -0.0152464 0)
(4.97497 -0.0220769 0)
(4.83501 -0.0357226 0)
(4.69834 -0.0409797 0)
(4.57183 -0.0371141 0)
(4.45052 -0.0286603 0)
(4.33145 -0.0191084 0)
(4.21837 -0.0119635 0)
(4.11476 -0.0104078 0)
(4.01761 -0.0150624 0)
(3.91887 -0.023404 0)
(3.81343 -0.0312193 0)
(3.70152 -0.0349595 0)
(3.59001 -0.0338828 0)
(3.48298 -0.0294038 0)
(3.3874 -0.0242745 0)
(0.0157117 -0.0550866 1.14344e-20)
(0.0439976 -0.0647727 -1.13516e-20)
(0.0738003 -0.0632387 0)
(0.0989728 -0.0601284 0)
(0.120195 -0.05605 0)
(0.136436 -0.0509385 1.10049e-20)
(0.147093 -0.0448512 0)
(0.15161 -0.0380606 0)
(0.149523 -0.0307484 0)
(0.140428 -0.0229684 0)
(0.123625 -0.014558 -1.05655e-20)
(0.0984711 -0.00531339 0)
(0.0643568 0.00495751 0)
(0.0206542 0.0163555 0)
(-0.0333768 0.0288787 0)
(-0.098418 0.0424328 -1.01189e-20)
(-0.174924 0.0567882 0)
(-0.263109 0.0715777 0)
(-0.362943 0.0863644 0)
(-0.474131 0.100663 0)
(-0.596142 0.113994 0)
(-0.728233 0.125998 0)
(-0.869485 0.136477 0)
(-1.01858 0.145276 -9.33705e-21)
(-1.17403 0.152231 9.23143e-21)
(-1.33439 0.157251 -9.1238e-21)
(-1.49815 0.160286 -9.01429e-21)
(-1.66376 0.161351 0)
(-1.82963 0.160499 0)
(-1.99419 0.157807 8.6771e-21)
(-2.1558 0.153389 8.56326e-21)
(-2.31284 0.147368 0)
(-2.4637 0.139828 0)
(-2.60674 0.130858 8.22634e-21)
(-2.7403 0.120566 0)
(-2.86277 0.109042 0)
(-2.97254 0.0963966 -7.91443e-21)
(-3.06812 0.0828258 0)
(-3.14815 0.068552 -7.73294e-21)
(-3.21151 0.0537437 -1.53053e-20)
(-3.25726 0.0386798 0)
(-3.28455 0.0238196 0)
(-3.29305 0.00943598 0)
(-3.28299 -0.00431308 0)
(-3.2552 -0.017313 0)
(-3.21012 -0.0296051 -1.46772e-20)
(-3.14832 -0.0411901 -1.46251e-20)
(-3.07066 -0.0519563 -1.45848e-20)
(-2.97802 -0.0618503 0)
(-2.87143 -0.0708157 1.45315e-20)
(-2.75197 -0.0788005 0)
(-2.62085 -0.0857545 -1.45015e-20)
(-2.47941 -0.0916242 -1.449e-20)
(-2.32907 -0.0963603 0)
(-2.17137 -0.0999295 0)
(-2.00796 -0.102322 0)
(-1.84049 -0.103555 -1.44249e-20)
(-1.6706 -0.103676 0)
(-1.49982 -0.102772 0)
(-1.32957 -0.100953 0)
(-1.16116 -0.0983539 0)
(-0.995723 -0.0951172 0)
(-0.834211 -0.0913554 0)
(-0.677375 -0.0872303 0)
(-0.525867 -0.0827914 0)
(-0.380111 -0.0782437 1.39014e-20)
(-0.240352 -0.0735858 0)
(-0.106916 -0.0688453 0)
(0.0194855 -0.0645316 -1.36065e-20)
(0.139383 -0.060058 -1.3495e-20)
(0.253441 -0.0557409 0)
(0.361395 -0.051583 1.32611e-20)
(0.463386 -0.047601 -1.31408e-20)
(0.55958 -0.0438054 0)
(0.650164 -0.0402011 1.28953e-20)
(0.735346 -0.0367887 0)
(0.815336 -0.0335658 0)
(0.890348 -0.0305284 -1.25196e-20)
(0.960594 -0.027671 0)
(1.02628 -0.0249878 1.22671e-20)
(1.08761 -0.0224723 0)
(1.14479 -0.0201185 -1.20146e-20)
(1.19799 -0.0179203 -1.18887e-20)
(1.24742 -0.0158721 -1.17632e-20)
(1.29324 -0.0139684 -2.32762e-20)
(1.33564 -0.012204 2.30271e-20)
(1.37478 -0.0105739 0)
(1.41083 -0.00907316 0)
(1.44396 -0.00769708 0)
(1.47433 -0.00644079 2.20437e-20)
(1.50209 -0.00529941 2.18015e-20)
(1.52741 -0.00426793 -2.15609e-20)
(1.55042 -0.00334118 0)
(1.57128 -0.00251376 2.10845e-20)
(1.59013 -0.00178021 2.08488e-20)
(1.60712 -0.00113482 2.06147e-20)
(1.62237 -0.000571869 0)
(1.63601 -8.54035e-05 0)
(1.64818 0.00033085 0)
(1.65898 0.000683204 1.96954e-20)
(1.66853 0.000978999 0)
(1.67694 0.00122469 0)
(1.68431 0.00142585 -1.90237e-20)
(1.69074 0.0015877 0)
(1.69631 0.00171333 0)
(1.7011 0.00180931 -1.83669e-20)
(1.70519 0.00187753 0)
(1.70865 0.00192353 0)
(1.71154 0.00195268 1.77246e-20)
(1.71393 0.00196423 1.75136e-20)
(1.71585 0.0019719 0)
(1.71732 0.00197851 -1.70964e-20)
(1.7184 0.00197748 0)
(1.71912 0.00196683 1.66852e-20)
(1.71953 0.00194893 0)
(1.71965 0.00192421 1.628e-20)
(1.71953 0.00189634 1.60796e-20)
(1.71918 0.0018698 0)
(1.71863 0.00183907 0)
(1.71791 0.00179627 0)
(1.71704 0.0017507 0)
(1.71603 0.00170738 0)
(1.71488 0.00166675 0)
(1.71362 0.00162864 0)
(1.71226 0.00159252 1.45266e-20)
(1.71081 0.00155717 -1.43385e-20)
(1.70927 0.00151952 0)
(1.70767 0.00147641 0)
(1.70602 0.00142705 0)
(1.70434 0.00137334 0)
(1.70265 0.00131861 -2.68345e-20)
(1.70094 0.00126624 0)
(1.69924 0.00121841 2.61149e-20)
(1.69753 0.00117574 -2.57587e-20)
(1.69582 0.00113764 0)
(1.6941 0.00110306 0)
(1.69237 0.00107103 0)
(1.69063 0.00104097 2.43572e-20)
(1.68888 0.00101267 2.40126e-20)
(1.68711 0.000986139 0)
(1.68533 0.000961435 2.33301e-20)
(1.68354 0.000938634 2.29921e-20)
(1.68173 0.000917756 -2.26563e-20)
(1.67991 0.000898791 0)
(1.67807 0.000881686 0)
(1.67621 0.000866359 -2.16618e-20)
(1.67434 0.000852713 0)
(1.67245 0.000840667 0)
(1.67054 0.000830158 0)
(1.66861 0.000821167 0)
(1.66665 0.000813686 2.00454e-20)
(1.66468 0.000807762 1.97281e-20)
(1.66267 0.000803422 0)
(1.66063 0.000800809 1.90993e-20)
(1.65856 0.000799971 0)
(1.65646 0.00080128 0)
(1.65431 0.000804767 1.81704e-20)
(1.65211 0.00081121 0)
(1.64985 0.000820583 1.75604e-20)
(1.64752 0.000834248 0)
(1.6451 0.000852308 0)
(1.64261 0.000876672 1.66589e-20)
(1.63995 0.000908341 0)
(1.63721 0.000949121 1.60669e-20)
(1.63418 0.00100327 0)
(1.63107 0.00106968 0)
(1.62744 0.00116381 0)
(1.62377 0.0012697 -1.49045e-20)
(1.61914 0.00144143 0)
(1.61458 0.00160225 1.43344e-20)
(1.6082 0.00193892 0)
(1.60209 0.00215891 0)
(1.59276 0.00289701 0)
(1.58341 0.00310608 0)
(1.56936 0.00495651 0)
(1.55161 0.00475891 0)
(1.5315 0.0101295 0)
(1.48727 0.00788474 -2.43167e-20)
(1.4654 0.0264372 0)
(1.32287 0.0198862 0)
(-0.00215856 -0.0699321 -3.43207e-20)
(-0.0290661 -0.0622839 3.40737e-20)
(-0.0558593 -0.0512927 0)
(-0.0865498 -0.0369425 -2.23754e-20)
(-0.120212 -0.0207909 0)
(-0.157592 -0.00354744 -1.10042e-20)
(-0.198903 0.0145815 2.18477e-20)
(-0.244571 0.0337615 2.16697e-20)
(-0.295074 0.0541516 0)
(-0.351033 0.0758546 2.13099e-20)
(-0.41279 0.0989403 1.05564e-20)
(-0.480641 0.123366 0)
(-0.554782 0.148988 0)
(-0.635314 0.175538 0)
(-0.722247 0.202633 0)
(-0.815485 0.229813 1.00971e-20)
(-0.914792 0.256583 0)
(-1.01972 0.28241 -1.98234e-20)
(-1.12971 0.30674 0)
(-1.24418 0.329041 0)
(-1.36246 0.348844 1.92353e-20)
(-1.48389 0.365782 0)
(-1.60784 0.379614 -1.8828e-20)
(-1.73381 0.390186 9.31685e-21)
(-1.86126 0.397387 -9.21221e-21)
(-1.98964 0.401194 9.10566e-21)
(-2.11834 0.401625 8.99728e-21)
(-2.24671 0.398721 0)
(-2.37402 0.392517 0)
(-2.49943 0.383024 -8.66366e-21)
(-2.62204 0.370226 8.51424e-21)
(-2.74089 0.354091 0)
(-2.85494 0.334608 0)
(-2.96294 0.311792 -8.21738e-21)
(-3.06357 0.285695 0)
(-3.15546 0.256404 0)
(-3.23717 0.224095 7.9083e-21)
(-3.30736 0.189073 0)
(-3.36473 0.151737 -7.67138e-21)
(-3.40812 0.112541 1.52977e-20)
(-3.43668 0.072102 0)
(-3.44976 0.0311714 0)
(-3.4466 -0.00959187 2.972e-20)
(-3.42672 -0.0495571 2.9532e-20)
(-3.3894 -0.0881588 2.93764e-20)
(-3.33496 -0.124985 -1.4579e-20)
(-3.26403 -0.159699 1.46198e-20)
(-3.17726 -0.192004 4.36577e-20)
(-3.07558 -0.221701 -2.90236e-20)
(-2.95998 -0.248635 -1.45259e-20)
(-2.83153 -0.272668 0)
(-2.69142 -0.293656 1.44958e-20)
(-2.54094 -0.311449 -1.44351e-20)
(-2.3815 -0.325896 0)
(-2.21467 -0.336877 0)
(-2.0421 -0.344331 0)
(-1.86549 -0.348292 1.44198e-20)
(-1.68653 -0.348908 0)
(-1.50681 -0.346439 -2.86918e-20)
(-1.32776 -0.34123 0)
(-1.15069 -0.333672 -2.85111e-20)
(-0.976715 -0.324169 0)
(-0.806715 -0.313145 2.82668e-20)
(-0.641374 -0.300983 0)
(-0.481344 -0.287995 -2.79632e-20)
(-0.327028 -0.274586 1.38918e-20)
(-0.178434 -0.260799 0)
(-0.0364501 -0.247022 2.74123e-20)
(0.0989089 -0.233795 1.3603e-20)
(0.228481 -0.220561 1.34904e-20)
(0.352235 -0.207712 0)
(0.470217 -0.195306 1.32517e-20)
(0.582573 -0.183392 1.31362e-20)
(0.689482 -0.171998 0)
(0.791143 -0.161133 -1.28906e-20)
(0.887765 -0.150796 2.55284e-20)
(0.979558 -0.140978 0)
(1.06673 -0.131664 1.25148e-20)
(1.14949 -0.122836 0)
(1.22803 -0.114473 -3.67834e-20)
(1.30254 -0.106556 0)
(1.37319 -0.0990643 3.60257e-20)
(1.44017 -0.0919785 1.18834e-20)
(1.50363 -0.0852808 -1.17556e-20)
(1.56373 -0.0789544 -2.32612e-20)
(1.62061 -0.0729838 2.30122e-20)
(1.67442 -0.0673549 0)
(1.72528 -0.0620546 0)
(1.77333 -0.0570706 0)
(1.81868 -0.0523914 -6.60923e-20)
(1.86147 -0.048006 -2.17893e-20)
(1.90179 -0.0439037 2.15485e-20)
(1.93977 -0.040074 0)
(1.9755 -0.0365064 2.10697e-20)
(2.00909 -0.0331903 -2.08358e-20)
(2.04064 -0.0301152 -2.06016e-20)
(2.07025 -0.0272703 0)
(2.098 -0.0246452 0)
(2.12399 -0.0222288 0)
(2.14831 -0.0200103 -1.9682e-20)
(2.17104 -0.0179775 0)
(2.19226 -0.0161181 3.84636e-20)
(2.21205 -0.0144207 5.70292e-20)
(2.23048 -0.012874 -3.7578e-20)
(2.24764 -0.0114683 0)
(2.26359 -0.0101923 -1.83525e-20)
(2.2784 -0.00903705 0)
(2.29214 -0.00799212 -3.58464e-20)
(2.30487 -0.0070465 1.77105e-20)
(2.31664 -0.00619379 1.74996e-20)
(2.32753 -0.00541937 0)
(2.33762 -0.00471614 5.12489e-20)
(2.34695 -0.00408392 -3.37533e-20)
(2.35557 -0.00352029 -1.66721e-20)
(2.36353 -0.0030203 0)
(2.37086 -0.00257517 -1.62672e-20)
(2.37762 -0.00217764 -4.82003e-20)
(2.38383 -0.00182662 0)
(2.38953 -0.00151488 -3.1341e-20)
(2.39475 -0.00122634 -3.09489e-20)
(2.39953 -0.000964775 -3.05597e-20)
(2.40389 -0.000732872 0)
(2.40787 -0.000527076 0)
(2.41149 -0.000341914 0)
(2.41479 -0.000179067 1.45149e-20)
(2.41778 -3.74021e-05 1.43272e-20)
(2.42051 8.46439e-05 0)
(2.42298 0.000186416 2.79103e-20)
(2.42522 0.000267849 2.75422e-20)
(2.42725 0.00033048 0)
(2.42909 0.000377108 2.68135e-20)
(2.43075 0.000411753 5.29056e-20)
(2.43226 0.000438702 -2.60946e-20)
(2.43362 0.000461849 -2.57386e-20)
(2.43486 0.00048384 0)
(2.43598 0.000506091 0)
(2.43698 0.000528818 0)
(2.43788 0.000551669 -2.43387e-20)
(2.43867 0.00057398 2.39943e-20)
(2.43935 0.000595243 4.73047e-20)
(2.43993 0.00061507 -2.33126e-20)
(2.44042 0.000633351 2.29749e-20)
(2.44082 0.000650109 2.26395e-20)
(2.44113 0.000665512 0)
(2.44136 0.000679769 0)
(2.44151 0.000693103 -2.16459e-20)
(2.4416 0.000705725 0)
(2.44162 0.000717864 0)
(2.44159 0.000729757 4.13421e-20)
(2.44149 0.00074168 0)
(2.44134 0.000753931 2.00312e-20)
(2.44114 0.000766877 -1.97142e-20)
(2.44089 0.000780893 0)
(2.44059 0.000796493 1.9086e-20)
(2.44024 0.00081417 0)
(2.43985 0.000834708 0)
(2.4394 0.000858842 -1.8158e-20)
(2.4389 0.00088774 3.57047e-20)
(2.43835 0.000922714 -1.75486e-20)
(2.43774 0.000965196 0)
(2.43705 0.00101815 0)
(2.43629 0.00108226 1.66478e-20)
(2.43542 0.00116534 0)
(2.43446 0.00126335 1.60563e-20)
(2.43334 0.00139833 0)
(2.43209 0.00154817 0)
(2.43057 0.00177732 0)
(2.42886 0.00200311 1.4895e-20)
(2.42671 0.00241638 0)
(2.42425 0.00274421 -1.43254e-20)
(2.42106 0.00354951 0)
(2.41724 0.0039769 0)
(2.41239 0.00568863 2.69719e-20)
(2.40583 0.00609119 -2.64221e-20)
(2.3985 0.010085 0)
(2.38555 0.0099859 0)
(2.37513 0.0202865 0)
(2.34537 0.0187516 7.28835e-20)
(2.33437 0.0488335 0)
(2.25868 0.0480632 -4.65667e-20)
(-0.0150742 0.0139357 -2.20439e-23)
(-0.0764289 0.0481632 -4.54558e-20)
(-0.133918 0.0596396 0)
(-0.193606 0.0758724 4.47555e-20)
(-0.253813 0.0941408 0)
(-0.315561 0.114631 0)
(-0.379035 0.137181 2.21007e-23)
(-0.444682 0.161675 -2.16537e-20)
(-0.512718 0.188069 -2.14948e-20)
(-0.583303 0.216214 -2.12919e-20)
(-0.6565 0.245829 0)
(-0.732317 0.276656 0)
(-0.810697 0.308414 2.07611e-20)
(-0.891536 0.340738 4.11492e-20)
(-0.974691 0.373174 -4.07733e-20)
(-1.05999 0.405213 0)
(-1.14727 0.436312 -4.00114e-20)
(-1.23649 0.465913 1.98065e-20)
(-1.32769 0.493487 0)
(-1.42097 0.518588 -3.88358e-20)
(-1.5165 0.540851 -1.92219e-20)
(-1.61451 0.559981 3.8023e-20)
(-1.71526 0.575745 1.88171e-20)
(-1.81901 0.58797 0)
(-1.92599 0.596571 -3.67498e-20)
(-2.03629 0.601472 -3.63099e-20)
(-2.14982 0.602566 0)
(-2.26631 0.599691 -3.54083e-20)
(-2.38524 0.592619 0)
(-2.50586 0.58106 -3.44836e-20)
(-2.62714 0.564681 -1.706e-20)
(-2.74773 0.543155 0)
(-2.86604 0.516203 0)
(-2.9803 0.483623 0)
(-3.08861 0.445334 0)
(-3.18896 0.401399 0)
(-3.2793 0.352028 0)
(-3.35766 0.29762 -3.09639e-20)
(-3.42217 0.238822 4.60047e-20)
(-3.47118 0.176472 0)
(-3.50343 0.111514 0)
(-3.51799 0.0449652 0)
(-3.51414 -0.0220245 -1.83583e-22)
(-3.49157 -0.0882344 -2.95256e-20)
(-3.4506 -0.152603 -5.85694e-20)
(-3.39181 -0.214118 5.83272e-20)
(-3.31605 -0.272021 2.89961e-20)
(-3.22431 -0.325842 -2.90692e-20)
(-3.11763 -0.375248 1.26009e-22)
(-2.99707 -0.420018 -2.88591e-20)
(-2.86373 -0.459958 0)
(-2.71875 -0.494849 -2.88309e-20)
(-2.56339 -0.524442 8.49567e-23)
(-2.39906 -0.548459 0)
(-2.22738 -0.566639 0)
(-2.05014 -0.578817 2.87821e-20)
(-1.86919 -0.585028 0)
(-1.68639 -0.585529 0)
(-1.50343 -0.580786 -2.86086e-20)
(-1.32181 -0.571431 -5.71367e-20)
(-1.14284 -0.55817 2.85015e-20)
(-0.967644 -0.541701 0)
(-0.797065 -0.522763 -2.82581e-20)
(-0.631711 -0.502041 0)
(-0.472139 -0.480164 -2.79238e-20)
(-0.318581 -0.457572 -2.77838e-20)
(-0.171148 -0.434644 5.51759e-20)
(-0.0307369 -0.411963 2.73816e-20)
(0.103005 -0.389694 0)
(0.230883 -0.367911 -5.39176e-20)
(0.35283 -0.346811 0)
(0.468987 -0.326508 -7.9491e-20)
(0.579546 -0.307072 -5.25094e-20)
(0.684724 -0.288538 -5.20235e-20)
(0.784752 -0.270916 5.15318e-20)
(0.879864 -0.254198 -7.65603e-20)
(0.970293 -0.23836 0)
(1.05626 -0.223374 0)
(1.13799 -0.209202 4.95313e-20)
(1.21568 -0.195807 7.3546e-20)
(1.28953 -0.183151 0)
(1.35973 -0.171196 -2.40142e-20)
(1.42646 -0.159906 0)
(1.48987 -0.149246 7.05272e-20)
(1.55013 -0.139186 6.95452e-24)
(1.60738 -0.129695 -6.43063e-24)
(1.66178 -0.120745 -4.55234e-20)
(1.71343 -0.112311 0)
(1.76249 -0.104369 4.45407e-20)
(1.80906 -0.0968974 4.67457e-24)
(1.85325 -0.0898738 0)
(1.89518 -0.0832783 0)
(1.93494 -0.0770915 0)
(1.97263 -0.0712943 -4.21394e-20)
(2.00835 -0.0658686 0)
(2.04217 -0.0607962 0)
(2.07418 -0.0560598 0)
(2.10447 -0.0516423 0)
(2.13309 -0.0475269 0)
(2.16014 -0.0436978 -3.93587e-20)
(2.18566 -0.0401395 0)
(2.20973 -0.0368371 -3.84615e-20)
(2.23242 -0.0337759 -3.8017e-20)
(2.25377 -0.0309412 3.75759e-20)
(2.27386 -0.0283187 0)
(2.29274 -0.0258951 3.67034e-20)
(2.31046 -0.0236572 0)
(2.32707 -0.0215922 3.5844e-20)
(2.34264 -0.0196887 -3.54191e-20)
(2.35722 -0.017934 -1.04991e-19)
(2.37084 -0.0163197 0)
(2.38356 -0.0148372 -1.02489e-19)
(2.39543 -0.0134775 -3.37496e-20)
(2.4065 -0.0122309 0)
(2.4168 -0.0110894 -6.5869e-20)
(2.42639 -0.0100436 -6.50621e-20)
(2.4353 -0.009085 9.6392e-20)
(2.44357 -0.00820849 0)
(2.45124 -0.00740467 3.13385e-20)
(2.45837 -0.00665831 3.09464e-20)
(2.46497 -0.00597397 9.16711e-20)
(2.47109 -0.00535025 0)
(2.47677 -0.00478057 0)
(2.48202 -0.00426378 0)
(2.48688 -0.0037946 2.90271e-20)
(2.49136 -0.00337268 0)
(2.4955 -0.00299463 0)
(2.49933 -0.0026594 -2.79078e-20)
(2.50285 -0.00236431 -2.75397e-20)
(2.50609 -0.00210595 0)
(2.50907 -0.0018806 0)
(2.5118 -0.00168402 -5.29006e-20)
(2.5143 -0.0015114 0)
(2.5166 -0.00135735 5.14724e-20)
(2.51871 -0.0012166 5.07653e-20)
(2.52064 -0.00108467 0)
(2.52241 -0.000958622 0)
(2.52403 -0.000837078 -4.86725e-20)
(2.52551 -0.000720019 -1.15961e-25)
(2.52686 -0.000608151 -1.05794e-25)
(2.5281 -0.000502394 0)
(2.52922 -0.000403445 -9.18907e-20)
(2.53024 -0.000311643 0)
(2.53116 -0.000226936 0)
(2.532 -0.000148997 0)
(2.53275 -7.73268e-05 4.32877e-20)
(2.53342 -1.13324e-05 0)
(2.53403 4.96287e-05 -8.39676e-20)
(2.53457 0.000106238 -4.13381e-20)
(2.53505 0.000159196 0)
(2.53548 0.000209261 -4.00585e-20)
(2.53585 0.0002572 0)
(2.53617 0.000303895 0)
(2.53645 0.000350212 -1.14505e-19)
(2.53668 0.000397297 7.50919e-20)
(2.53686 0.000446171 0)
(2.537 0.000498589 7.26248e-20)
(2.53709 0.000555662 -3.57012e-20)
(2.53714 0.000620568 0)
(2.53714 0.000693929 0)
(2.53708 0.00078241 0)
(2.53696 0.000884087 -9.98775e-20)
(2.53677 0.00101431 0)
(2.53648 0.00116243 -3.21097e-20)
(2.5361 0.00136604 0)
(2.53558 0.0015874 0)
(2.53493 0.00192379 0)
(2.53402 0.00225669 0)
(2.53296 0.00284624 0)
(2.53141 0.00334353 0)
(2.52971 0.00444725 -5.6165e-20)
(2.52704 0.00516355 0)
(2.52431 0.00738501 -2.69692e-20)
(2.51958 0.00834802 7.92527e-20)
(2.51523 0.013183 0)
(2.50654 0.0144441 0)
(2.4997 0.0259241 -4.96005e-20)
(2.48367 0.0284706 -4.85761e-20)
(2.47405 0.058417 4.75176e-20)
(2.44915 0.0685235 4.65587e-20)
(-0.018148 0.12642 6.87562e-20)
(-0.0887895 0.187077 6.82465e-20)
(-0.154161 0.196928 4.51623e-20)
(-0.221404 0.212963 2.24272e-20)
(-0.287934 0.231357 0)
(-0.354977 0.252386 -4.40989e-20)
(-0.422253 0.275718 2.18922e-20)
(-0.490077 0.301233 0)
(-0.558499 0.328685 2.14878e-20)
(-0.627606 0.35788 0)
(-0.697493 0.388635 -4.22868e-20)
(-0.768304 0.420704 0)
(-0.840173 0.453753 -2.07551e-20)
(-0.913227 0.487402 -4.11381e-20)
(-0.987582 0.521237 4.07632e-20)
(-1.06339 0.554811 0)
(-1.14088 0.587687 4.00033e-20)
(-1.22044 0.619494 0)
(-1.30258 0.649931 0)
(-1.38788 0.678714 3.88299e-20)
(-1.47699 0.705559 0)
(-1.57054 0.730186 -1.66761e-23)
(-1.6691 0.752294 0)
(-1.77306 0.771497 0)
(-1.88262 0.787302 4.69331e-23)
(-1.99769 0.799126 3.63029e-20)
(-2.11792 0.806347 3.57828e-20)
(-2.24273 0.808317 3.53995e-20)
(-2.37129 0.804356 0)
(-2.50253 0.793789 6.88289e-20)
(-2.63508 0.775971 0)
(-2.76733 0.7503 3.33855e-20)
(-2.8974 0.716244 0)
(-3.0232 0.673409 0)
(-3.14248 0.621608 -3.19641e-20)
(-3.25288 0.560898 0)
(-3.352 0.491606 3.10926e-20)
(-3.43752 0.414355 2.57572e-22)
(-3.5074 0.330127 -6.09292e-20)
(-3.55982 0.240264 6.00041e-20)
(-3.59335 0.146423 0)
(-3.60705 0.0504544 0)
(-3.60041 -0.0457627 2.89866e-20)
(-3.57328 -0.140348 0)
(-3.52631 -0.23177 2.91916e-20)
(-3.46043 -0.318765 -2.90748e-20)
(-3.37688 -0.400363 -2.89863e-20)
(-3.27699 -0.475914 0)
(-3.16205 -0.545037 2.88774e-20)
(-3.03326 -0.607524 2.88484e-20)
(-2.89172 -0.663215 -5.73597e-20)
(-2.73852 -0.711888 2.882e-20)
(-2.57488 -0.753207 2.88126e-20)
(-2.40219 -0.786713 0)
(-2.22221 -0.811895 0)
(-2.03697 -0.828399 -2.87718e-20)
(-1.8487 -0.836219 0)
(-1.65954 -0.83574 0)
(-1.47138 -0.827696 5.72721e-20)
(-1.28581 -0.813076 5.71196e-20)
(-1.10411 -0.792988 0)
(-0.927212 -0.768541 0)
(-0.755792 -0.740791 0)
(-0.590286 -0.710642 0)
(-0.430972 -0.679106 5.58665e-20)
(-0.277967 -0.646633 -5.54877e-20)
(-0.131397 -0.614106 -5.5165e-20)
(0.00794222 -0.581887 -1.09512e-19)
(0.140598 -0.550417 0)
(0.26735 -0.519775 2.85623e-23)
(0.388025 -0.490197 0)
(0.502815 -0.461823 5.2974e-20)
(0.611947 -0.434729 2.32414e-23)
(0.71567 -0.408946 5.20111e-20)
(0.81424 -0.384474 -5.15203e-20)
(0.907909 -0.361286 1.90248e-23)
(0.996922 -0.339344 0)