# vtk DataFile Version 2.0
sampleSurface
ASCII
DATASET POLYDATA
POINTS 502 double
-0.0206 0 -0.0005
-0.0190172 0 -0.0005
-0.0190172 0 0.0005
-0.0206 0 0.0005
-0.0174976 0 -0.0005
-0.0174976 0 0.0005
-0.0160387 0 -0.0005
-0.0160387 0 0.0005
-0.0146381 0 -0.0005
-0.0146381 0 0.0005
-0.0132934 0 -0.0005
-0.0132934 0 0.0005
-0.0120025 0 -0.0005
-0.0120025 0 0.0005
-0.0107632 0 -0.0005
-0.0107632 0 0.0005
-0.00957337 0 -0.0005
-0.00957337 0 0.0005
-0.00843108 0 -0.0005
-0.00843108 0 0.0005
-0.00733443 0 -0.0005
-0.00733443 0 0.0005
-0.0062816 0 -0.0005
-0.0062816 0 0.0005
-0.00527083 0 -0.0005
-0.00527083 0 0.0005
-0.00430044 0 -0.0005
-0.00430044 0 0.0005
-0.00336883 0 -0.0005
-0.00336883 0 0.0005
-0.00247443 0 -0.0005
-0.00247443 0 0.0005
-0.00161577 0 -0.0005
-0.00161577 0 0.0005
-0.000791418 0 -0.0005
-0.000791418 0 0.0005
0 0 -0.0005
0 0 0.0005
0 -0.0254 -0.0005
0 -0.0254 0.0005
0 -0.0242711 0.0005
0 -0.0242711 -0.0005
0 -0.0231422 0.0005
0 -0.0231422 -0.0005
0 -0.0220133 0.0005
0 -0.0220133 -0.0005
0 -0.0208844 0.0005
0 -0.0208844 -0.0005
0 -0.0197556 0.0005
0 -0.0197556 -0.0005
0 -0.0186267 0.0005
0 -0.0186267 -0.0005
0 -0.0174978 0.0005
0 -0.0174978 -0.0005
0 -0.0163689 0.0005
0 -0.0163689 -0.0005
0 -0.01524 0.0005
0 -0.01524 -0.0005
0 -0.0141111 0.0005
0 -0.0141111 -0.0005
0 -0.0129822 0.0005
0 -0.0129822 -0.0005
0 -0.0118533 0.0005
0 -0.0118533 -0.0005
0 -0.0107244 0.0005
0 -0.0107244 -0.0005
0 -0.00959556 0.0005
0 -0.00959556 -0.0005
0 -0.00846667 0.0005
0 -0.00846667 -0.0005
0 -0.00726604 0.0005
0 -0.00726604 -0.0005
0 -0.00618989 0.0005
0 -0.00618989 -0.0005
0 -0.00522531 0.0005
0 -0.00522531 -0.0005
0 -0.00436073 0.0005
0 -0.00436073 -0.0005
0 -0.00358579 0.0005
0 -0.00358579 -0.0005
0 -0.00289118 0.0005
0 -0.00289118 -0.0005
0 -0.0022686 0.0005
0 -0.0022686 -0.0005
0 -0.00171055 0.0005
0 -0.00171055 -0.0005
0 -0.00121037 0.0005
0 -0.00121037 -0.0005
0 -0.000762037 0.0005
0 -0.000762037 -0.0005
0 -0.000360188 0.0005
0 -0.000360188 -0.0005
0.000528387 -0.0254 -0.0005
0.000528387 -0.0254 0.0005
0.00106088 -0.0254 -0.0005
0.00106088 -0.0254 0.0005
0.00159752 -0.0254 -0.0005
0.00159752 -0.0254 0.0005
0.00213833 -0.0254 -0.0005
0.00213833 -0.0254 0.0005
0.00268334 -0.0254 -0.0005
0.00268334 -0.0254 0.0005
0.00323259 -0.0254 -0.0005
0.00323259 -0.0254 0.0005
0.00378611 -0.0254 -0.0005
0.00378611 -0.0254 0.0005
0.00434393 -0.0254 -0.0005
0.00434393 -0.0254 0.0005
0.00490609 -0.0254 -0.0005
0.00490609 -0.0254 0.0005
0.00547262 -0.0254 -0.0005
0.00547262 -0.0254 0.0005
0.00604356 -0.0254 -0.0005
0.00604356 -0.0254 0.0005
0.00661893 -0.0254 -0.0005
0.00661893 -0.0254 0.0005
0.00719878 -0.0254 -0.0005
0.00719878 -0.0254 0.0005
0.00778313 -0.0254 -0.0005
0.00778313 -0.0254 0.0005
0.00837203 -0.0254 -0.0005
0.00837203 -0.0254 0.0005
0.00896551 -0.0254 -0.0005
0.00896551 -0.0254 0.0005
0.0095636 -0.0254 -0.0005
0.0095636 -0.0254 0.0005
0.0101663 -0.0254 -0.0005
0.0101663 -0.0254 0.0005
0.0107738 -0.0254 -0.0005
0.0107738 -0.0254 0.0005
0.0113859 -0.0254 -0.0005
0.0113859 -0.0254 0.0005
0.0120028 -0.0254 -0.0005
0.0120028 -0.0254 0.0005
0.0126245 -0.0254 -0.0005
0.0126245 -0.0254 0.0005
0.0132511 -0.0254 -0.0005
0.0132511 -0.0254 0.0005
0.0138825 -0.0254 -0.0005
0.0138825 -0.0254 0.0005
0.0145188 -0.0254 -0.0005
0.0145188 -0.0254 0.0005
0.0151601 -0.0254 -0.0005
0.0151601 -0.0254 0.0005
0.0158063 -0.0254 -0.0005
0.0158063 -0.0254 0.0005
0.0164576 -0.0254 -0.0005
0.0164576 -0.0254 0.0005
0.0171139 -0.0254 -0.0005
0.0171139 -0.0254 0.0005
0.0177754 -0.0254 -0.0005
0.0177754 -0.0254 0.0005
0.018442 -0.0254 -0.0005
0.018442 -0.0254 0.0005
0.0191137 -0.0254 -0.0005
0.0191137 -0.0254 0.0005
0.0197907 -0.0254 -0.0005
0.0197907 -0.0254 0.0005
0.020473 -0.0254 -0.0005
0.020473 -0.0254 0.0005
0.0211606 -0.0254 -0.0005
0.0211606 -0.0254 0.0005
0.0218535 -0.0254 -0.0005
0.0218535 -0.0254 0.0005
0.0225517 -0.0254 -0.0005
0.0225517 -0.0254 0.0005
0.0232555 -0.0254 -0.0005
0.0232555 -0.0254 0.0005
0.0239647 -0.0254 -0.0005
0.0239647 -0.0254 0.0005
0.0246794 -0.0254 -0.0005
0.0246794 -0.0254 0.0005
0.0253996 -0.0254 -0.0005
0.0253996 -0.0254 0.0005
0.0261255 -0.0254 -0.0005
0.0261255 -0.0254 0.0005
0.026857 -0.0254 -0.0005
0.026857 -0.0254 0.0005
0.0275942 -0.0254 -0.0005
0.0275942 -0.0254 0.0005
0.0283371 -0.0254 -0.0005
0.0283371 -0.0254 0.0005
0.0290858 -0.0254 -0.0005
0.0290858 -0.0254 0.0005
0.0298403 -0.0254 -0.0005
0.0298403 -0.0254 0.0005
0.0306007 -0.0254 -0.0005
0.0306007 -0.0254 0.0005
0.031367 -0.0254 -0.0005
0.031367 -0.0254 0.0005
0.0321393 -0.0254 -0.0005
0.0321393 -0.0254 0.0005
0.0329175 -0.0254 -0.0005
0.0329175 -0.0254 0.0005
0.0337019 -0.0254 -0.0005
0.0337019 -0.0254 0.0005
0.0344923 -0.0254 -0.0005
0.0344923 -0.0254 0.0005
0.0352888 -0.0254 -0.0005
0.0352888 -0.0254 0.0005
0.0360916 -0.0254 -0.0005
0.0360916 -0.0254 0.0005
0.0369006 -0.0254 -0.0005
0.0369006 -0.0254 0.0005
0.0377158 -0.0254 -0.0005
0.0377158 -0.0254 0.0005
0.0385375 -0.0254 -0.0005
0.0385375 -0.0254 0.0005
0.0393655 -0.0254 -0.0005
0.0393655 -0.0254 0.0005
0.0401999 -0.0254 -0.0005
0.0401999 -0.0254 0.0005
0.0410408 -0.0254 -0.0005
0.0410408 -0.0254 0.0005
0.0418883 -0.0254 -0.0005
0.0418883 -0.0254 0.0005
0.0427424 -0.0254 -0.0005
0.0427424 -0.0254 0.0005
0.0436031 -0.0254 -0.0005
0.0436031 -0.0254 0.0005
0.0444704 -0.0254 -0.0005
0.0444704 -0.0254 0.0005
0.0453446 -0.0254 -0.0005
0.0453446 -0.0254 0.0005
0.0462255 -0.0254 -0.0005
0.0462255 -0.0254 0.0005
0.0471133 -0.0254 -0.0005
0.0471133 -0.0254 0.0005
0.048008 -0.0254 -0.0005
0.048008 -0.0254 0.0005
0.0489096 -0.0254 -0.0005
0.0489096 -0.0254 0.0005
0.0498183 -0.0254 -0.0005
0.0498183 -0.0254 0.0005
0.050734 -0.0254 -0.0005
0.050734 -0.0254 0.0005
0.0516568 -0.0254 -0.0005
0.0516568 -0.0254 0.0005
0.0525868 -0.0254 -0.0005
0.0525868 -0.0254 0.0005
0.053524 -0.0254 -0.0005
0.053524 -0.0254 0.0005
0.0544686 -0.0254 -0.0005
0.0544686 -0.0254 0.0005
0.0554204 -0.0254 -0.0005
0.0554204 -0.0254 0.0005
0.0563797 -0.0254 -0.0005
0.0563797 -0.0254 0.0005
0.0573464 -0.0254 -0.0005
0.0573464 -0.0254 0.0005
0.0583206 -0.0254 -0.0005
0.0583206 -0.0254 0.0005
0.0593025 -0.0254 -0.0005
0.0593025 -0.0254 0.0005
0.0602919 -0.0254 -0.0005
0.0602919 -0.0254 0.0005
0.0612891 -0.0254 -0.0005
0.0612891 -0.0254 0.0005
0.0622939 -0.0254 -0.0005
0.0622939 -0.0254 0.0005
0.0633067 -0.0254 -0.0005
0.0633067 -0.0254 0.0005
0.0643272 -0.0254 -0.0005
0.0643272 -0.0254 0.0005
0.0653557 -0.0254 -0.0005
0.0653557 -0.0254 0.0005
0.0663923 -0.0254 -0.0005
0.0663923 -0.0254 0.0005
0.0674368 -0.0254 -0.0005
0.0674368 -0.0254 0.0005
0.0684895 -0.0254 -0.0005
0.0684895 -0.0254 0.0005
0.0695504 -0.0254 -0.0005
0.0695504 -0.0254 0.0005
0.0706195 -0.0254 -0.0005
0.0706195 -0.0254 0.0005
0.0716969 -0.0254 -0.0005
0.0716969 -0.0254 0.0005
0.0727828 -0.0254 -0.0005
0.0727828 -0.0254 0.0005
0.073877 -0.0254 -0.0005
0.073877 -0.0254 0.0005
0.0749798 -0.0254 -0.0005
0.0749798 -0.0254 0.0005
0.0760911 -0.0254 -0.0005
0.0760911 -0.0254 0.0005
0.0772111 -0.0254 -0.0005
0.0772111 -0.0254 0.0005
0.0783398 -0.0254 -0.0005
0.0783398 -0.0254 0.0005
0.0794772 -0.0254 -0.0005
0.0794772 -0.0254 0.0005
0.0806235 -0.0254 -0.0005
0.0806235 -0.0254 0.0005
0.0817787 -0.0254 -0.0005
0.0817787 -0.0254 0.0005
0.0829429 -0.0254 -0.0005
0.0829429 -0.0254 0.0005
0.0841162 -0.0254 -0.0005
0.0841162 -0.0254 0.0005
0.0852985 -0.0254 -0.0005
0.0852985 -0.0254 0.0005
0.0864901 -0.0254 -0.0005
0.0864901 -0.0254 0.0005
0.0876909 -0.0254 -0.0005
0.0876909 -0.0254 0.0005
0.0889011 -0.0254 -0.0005
0.0889011 -0.0254 0.0005
0.0901207 -0.0254 -0.0005
0.0901207 -0.0254 0.0005
0.0913497 -0.0254 -0.0005
0.0913497 -0.0254 0.0005
0.0925883 -0.0254 -0.0005
0.0925883 -0.0254 0.0005
0.0938366 -0.0254 -0.0005
0.0938366 -0.0254 0.0005
0.0950945 -0.0254 -0.0005
0.0950945 -0.0254 0.0005
0.0963622 -0.0254 -0.0005
0.0963622 -0.0254 0.0005
0.0976398 -0.0254 -0.0005
0.0976398 -0.0254 0.0005
0.0989273 -0.0254 -0.0005
0.0989273 -0.0254 0.0005
0.100225 -0.0254 -0.0005
0.100225 -0.0254 0.0005
0.101532 -0.0254 -0.0005
0.101532 -0.0254 0.0005
0.10285 -0.0254 -0.0005
0.10285 -0.0254 0.0005
0.104178 -0.0254 -0.0005
0.104178 -0.0254 0.0005
0.105517 -0.0254 -0.0005
0.105517 -0.0254 0.0005
0.106865 -0.0254 -0.0005
0.106865 -0.0254 0.0005
0.108225 -0.0254 -0.0005
0.108225 -0.0254 0.0005
0.109594 -0.0254 -0.0005
0.109594 -0.0254 0.0005
0.110975 -0.0254 -0.0005
0.110975 -0.0254 0.0005
0.112366 -0.0254 -0.0005
0.112366 -0.0254 0.0005
0.113768 -0.0254 -0.0005
0.113768 -0.0254 0.0005
0.115181 -0.0254 -0.0005
0.115181 -0.0254 0.0005
0.116605 -0.0254 -0.0005
0.116605 -0.0254 0.0005
0.11804 -0.0254 -0.0005
0.11804 -0.0254 0.0005
0.119486 -0.0254 -0.0005
0.119486 -0.0254 0.0005
0.120943 -0.0254 -0.0005
0.120943 -0.0254 0.0005
0.122412 -0.0254 -0.0005
0.122412 -0.0254 0.0005
0.123892 -0.0254 -0.0005
0.123892 -0.0254 0.0005
0.125384 -0.0254 -0.0005
0.125384 -0.0254 0.0005
0.126887 -0.0254 -0.0005
0.126887 -0.0254 0.0005
0.128402 -0.0254 -0.0005
0.128402 -0.0254 0.0005
0.129928 -0.0254 -0.0005
0.129928 -0.0254 0.0005
0.131467 -0.0254 -0.0005
0.131467 -0.0254 0.0005
0.133017 -0.0254 -0.0005
0.133017 -0.0254 0.0005
0.13458 -0.0254 -0.0005
0.13458 -0.0254 0.0005
0.136155 -0.0254 -0.0005
0.136155 -0.0254 0.0005
0.137742 -0.0254 -0.0005
0.137742 -0.0254 0.0005
0.139341 -0.0254 -0.0005
0.139341 -0.0254 0.0005
0.140953 -0.0254 -0.0005
0.140953 -0.0254 0.0005
0.142577 -0.0254 -0.0005
0.142577 -0.0254 0.0005
0.144214 -0.0254 -0.0005
0.144214 -0.0254 0.0005
0.145863 -0.0254 -0.0005
0.145863 -0.0254 0.0005
0.147526 -0.0254 -0.0005
0.147526 -0.0254 0.0005
0.149201 -0.0254 -0.0005
0.149201 -0.0254 0.0005
0.15089 -0.0254 -0.0005
0.15089 -0.0254 0.0005
0.152591 -0.0254 -0.0005
0.152591 -0.0254 0.0005
0.154306 -0.0254 -0.0005
0.154306 -0.0254 0.0005
0.156034 -0.0254 -0.0005
0.156034 -0.0254 0.0005
0.157775 -0.0254 -0.0005
0.157775 -0.0254 0.0005
0.159531 -0.0254 -0.0005
0.159531 -0.0254 0.0005
0.161299 -0.0254 -0.0005
0.161299 -0.0254 0.0005
0.163082 -0.0254 -0.0005
0.163082 -0.0254 0.0005
0.164878 -0.0254 -0.0005
0.164878 -0.0254 0.0005
0.166688 -0.0254 -0.0005
0.166688 -0.0254 0.0005
0.168513 -0.0254 -0.0005
0.168513 -0.0254 0.0005
0.170351 -0.0254 -0.0005
0.170351 -0.0254 0.0005
0.172204 -0.0254 -0.0005
0.172204 -0.0254 0.0005
0.174071 -0.0254 -0.0005
0.174071 -0.0254 0.0005
0.175953 -0.0254 -0.0005
0.175953 -0.0254 0.0005
0.177849 -0.0254 -0.0005
0.177849 -0.0254 0.0005
0.17976 -0.0254 -0.0005
0.17976 -0.0254 0.0005
0.181686 -0.0254 -0.0005
0.181686 -0.0254 0.0005
0.183627 -0.0254 -0.0005
0.183627 -0.0254 0.0005
0.185583 -0.0254 -0.0005
0.185583 -0.0254 0.0005
0.187555 -0.0254 -0.0005
0.187555 -0.0254 0.0005
0.189541 -0.0254 -0.0005
0.189541 -0.0254 0.0005
0.191543 -0.0254 -0.0005
0.191543 -0.0254 0.0005
0.193561 -0.0254 -0.0005
0.193561 -0.0254 0.0005
0.195594 -0.0254 -0.0005
0.195594 -0.0254 0.0005
0.197643 -0.0254 -0.0005
0.197643 -0.0254 0.0005
0.199708 -0.0254 -0.0005
0.199708 -0.0254 0.0005
0.201789 -0.0254 -0.0005
0.201789 -0.0254 0.0005
0.203886 -0.0254 -0.0005
0.203886 -0.0254 0.0005
0.206 -0.0254 -0.0005
0.206 -0.0254 0.0005
0.208047 -0.0251856 -0.0005
0.208047 -0.0251856 0.0005
0.210173 -0.0249628 -0.0005
0.210173 -0.0249628 0.0005
0.212382 -0.0247314 -0.0005
0.212382 -0.0247314 0.0005
0.214677 -0.024491 -0.0005
0.214677 -0.024491 0.0005
0.217061 -0.0242412 -0.0005
0.217061 -0.0242412 0.0005
0.219538 -0.0239817 -0.0005
0.219538 -0.0239817 0.0005
0.222112 -0.0237121 -0.0005
0.222112 -0.0237121 0.0005
0.224785 -0.023432 -0.0005
0.224785 -0.023432 0.0005
0.227563 -0.023141 -0.0005
0.227563 -0.023141 0.0005
0.230449 -0.0228387 -0.0005
0.230449 -0.0228387 0.0005
0.233447 -0.0225246 -0.0005
0.233447 -0.0225246 0.0005
0.236562 -0.0221983 -0.0005
0.236562 -0.0221983 0.0005
0.239797 -0.0218593 -0.0005
0.239797 -0.0218593 0.0005
0.243159 -0.0215071 -0.0005
0.243159 -0.0215071 0.0005
0.246652 -0.0211412 -0.0005
0.246652 -0.0211412 0.0005
0.250281 -0.0207611 -0.0005
0.250281 -0.0207611 0.0005
0.254051 -0.0203661 -0.0005
0.254051 -0.0203661 0.0005
0.257967 -0.0199558 -0.0005
0.257967 -0.0199558 0.0005
0.262036 -0.0195295 -0.0005
0.262036 -0.0195295 0.0005
0.266264 -0.0190867 -0.0005
0.266264 -0.0190867 0.0005
0.270655 -0.0186266 -0.0005
0.270655 -0.0186266 0.0005
0.275218 -0.0181486 -0.0005
0.275218 -0.0181486 0.0005
0.279959 -0.017652 -0.0005
0.279959 -0.017652 0.0005
0.284883 -0.017136 -0.0005
0.284883 -0.017136 0.0005
0.29 -0.0166 -0.0005
0.29 -0.0166 0.0005

POLYGONS 250 1250
4 0 1 2 3
4 1 4 5 2
4 4 6 7 5
4 6 8 9 7
4 8 10 11 9
4 10 12 13 11
4 12 14 15 13
4 14 16 17 15
4 16 18 19 17
4 18 20 21 19
4 20 22 23 21
4 22 24 25 23
4 24 26 27 25
4 26 28 29 27
4 28 30 31 29
4 30 32 33 31
4 32 34 35 33
4 34 36 37 35
4 38 39 40 41
4 41 40 42 43
4 43 42 44 45
4 45 44 46 47
4 47 46 48 49
4 49 48 50 51
4 51 50 52 53
4 53 52 54 55
4 55 54 56 57
4 57 56 58 59
4 59 58 60 61
4 61 60 62 63
4 63 62 64 65
4 65 64 66 67
4 67 66 68 69
4 69 68 70 71
4 71 70 72 73
4 73 72 74 75
4 75 74 76 77
4 77 76 78 79
4 79 78 80 81
4 81 80 82 83
4 83 82 84 85
4 85 84 86 87
4 87 86 88 89
4 89 88 90 91
4 91 90 37 36
4 38 92 93 39
4 92 94 95 93
4 94 96 97 95
4 96 98 99 97
4 98 100 101 99
4 100 102 103 101
4 102 104 105 103
4 104 106 107 105
4 106 108 109 107
4 108 110 111 109
4 110 112 113 111
4 112 114 115 113
4 114 116 117 115
4 116 118 119 117
4 118 120 121 119
4 120 122 123 121
4 122 124 125 123
4 124 126 127 125
4 126 128 129 127
4 128 130 131 129
4 130 132 133 131
4 132 134 135 133
4 134 136 137 135
4 136 138 139 137
4 138 140 141 139
4 140 142 143 141
4 142 144 145 143
4 144 146 147 145
4 146 148 149 147
4 148 150 151 149
4 150 152 153 151
4 152 154 155 153
4 154 156 157 155
4 156 158 159 157
4 158 160 161 159
4 160 162 163 161
4 162 164 165 163
4 164 166 167 165
4 166 168 169 167
4 168 170 171 169
4 170 172 173 171
4 172 174 175 173
4 174 176 177 175
4 176 178 179 177
4 178 180 181 179
4 180 182 183 181
4 182 184 185 183
4 184 186 187 185
4 186 188 189 187
4 188 190 191 189
4 190 192 193 191
4 192 194 195 193
4 194 196 197 195
4 196 198 199 197
4 198 200 201 199
4 200 202 203 201
4 202 204 205 203
4 204 206 207 205
4 206 208 209 207
4 208 210 211 209
4 210 212 213 211
4 212 214 215 213
4 214 216 217 215
4 216 218 219 217
4 218 220 221 219
4 220 222 223 221
4 222 224 225 223
4 224 226 227 225
4 226 228 229 227
4 228 230 231 229
4 230 232 233 231
4 232 234 235 233
4 234 236 237 235
4 236 238 239 237
4 238 240 241 239
4 240 242 243 241
4 242 244 245 243
4 244 246 247 245
4 246 248 249 247
4 248 250 251 249
4 250 252 253 251
4 252 254 255 253
4 254 256 257 255
4 256 258 259 257
4 258 260 261 259
4 260 262 263 261
4 262 264 265 263
4 264 266 267 265
4 266 268 269 267
4 268 270 271 269
4 270 272 273 271
4 272 274 275 273
4 274 276 277 275
4 276 278 279 277
4 278 280 281 279
4 280 282 283 281
4 282 284 285 283
4 284 286 287 285
4 286 288 289 287
4 288 290 291 289
4 290 292 293 291
4 292 294 295 293
4 294 296 297 295
4 296 298 299 297
4 298 300 301 299
4 300 302 303 301
4 302 304 305 303
4 304 306 307 305
4 306 308 309 307
4 308 310 311 309
4 310 312 313 311
4 312 314 315 313
4 314 316 317 315
4 316 318 319 317
4 318 320 321 319
4 320 322 323 321
4 322 324 325 323
4 324 326 327 325
4 326 328 329 327
4 328 330 331 329
4 330 332 333 331
4 332 334 335 333
4 334 336 337 335
4 336 338 339 337
4 338 340 341 339
4 340 342 343 341
4 342 344 345 343
4 344 346 347 345
4 346 348 349 347
4 348 350 351 349
4 350 352 353 351
4 352 354 355 353
4 354 356 357 355
4 356 358 359 357
4 358 360 361 359
4 360 362 363 361
4 362 364 365 363
4 364 366 367 365
4 366 368 369 367
4 368 370 371 369
4 370 372 373 371
4 372 374 375 373
4 374 376 377 375
4 376 378 379 377
4 378 380 381 379
4 380 382 383 381
4 382 384 385 383
4 384 386 387 385
4 386 388 389 387
4 388 390 391 389
4 390 392 393 391
4 392 394 395 393
4 394 396 397 395
4 396 398 399 397
4 398 400 401 399
4 400 402 403 401
4 402 404 405 403
4 404 406 407 405
4 406 408 409 407
4 408 410 411 409
4 410 412 413 411
4 412 414 415 413
4 414 416 417 415
4 416 418 419 417
4 418 420 421 419
4 420 422 423 421
4 422 424 425 423
4 424 426 427 425
4 426 428 429 427
4 428 430 431 429
4 430 432 433 431
4 432 434 435 433
4 434 436 437 435
4 436 438 439 437
4 438 440 441 439
4 440 442 443 441
4 442 444 445 443
4 444 446 447 445
4 446 448 449 447
4 448 450 451 449
4 450 452 453 451
4 452 454 455 453
4 454 456 457 455
4 456 458 459 457
4 458 460 461 459
4 460 462 463 461
4 462 464 465 463
4 464 466 467 465
4 466 468 469 467
4 468 470 471 469
4 470 472 473 471
4 472 474 475 473
4 474 476 477 475
4 476 478 479 477
4 478 480 481 479
4 480 482 483 481
4 482 484 485 483
4 484 486 487 485
4 486 488 489 487
4 488 490 491 489
4 490 492 493 491
4 492 494 495 493
4 494 496 497 495
4 496 498 499 497
4 498 500 501 499
POINT_DATA 502
FIELD attributes 1
U 3 502 float
1.58654 0.0725485 0.0283935
0.795099 0.0360777 0.0139923
0.795099 0.0360777 0.0139923
1.58654 0.0725485 0.0283935
0.0247374 0.000576407 0
0.0247374 0.000576407 0
0.0223154 0.000494719 0
0.0223154 0.000494719 0
0.0202 0.000479811 0
0.0202 0.000479811 0
0.0180042 0.000467419 0
0.0180042 0.000467419 0
0.0157589 0.000416182 0
0.0157589 0.000416182 0
0.013648 0.000341727 0
0.013648 0.000341727 0
0.0117558 0.00028048 0
0.0117558 0.00028048 0
0.0100599 0.000241922 0
0.0100599 0.000241922 0
0.00853372 0.000206383 0
0.00853372 0.000206383 0
0.00718489 0.000159496 0
0.00718489 0.000159496 0
0.00602213 0.000108045 0
0.00602213 0.000108045 0
0.00505634 6.54493e-05 0
0.00505634 6.54493e-05 0
0.00425109 3.64056e-05 0
0.00425109 3.64056e-05 0
0.00361161 2.01686e-05 0
0.00361161 2.01686e-05 0
0.00304539 1.02783e-05 0
0.00304539 1.02783e-05 0
0.00262276 -4.45481e-05 0
0.00262276 -4.45481e-05 0
0.00124067 4.36848e-05 0
0.00124067 4.36848e-05 0
-3.88151e-05 3.4107e-05 1.34066e-23
-3.88151e-05 3.4107e-05 1.34066e-23
-8.33318e-06 -4.44661e-05 -3.62312e-23
-8.33318e-06 -4.44661e-05 -3.62312e-23
8.8468e-05 -0.000467829 -4.29102e-23
8.8468e-05 -0.000467829 -4.29102e-23
0.00018668 -0.00127078 8.56945e-23
0.00018668 -0.00127078 8.56945e-23
0.000212366 -0.00216146 2.8591e-23
0.000212366 -0.00216146 2.8591e-23
0.000184431 -0.00293353 -5.70791e-23
0.000184431 -0.00293353 -5.70791e-23
0.000134993 -0.00349379 0
0.000134993 -0.00349379 0
7.85544e-05 -0.0038138 -1.15075e-22
7.85544e-05 -0.0038138 -1.15075e-22
2.38711e-05 -0.00389434 5.55587e-29
2.38711e-05 -0.00389434 5.55587e-29
-2.0797e-05 -0.0037626 1.15075e-22
-2.0797e-05 -0.0037626 1.15075e-22
-5.15443e-05 -0.00347419 -1.17846e-22
-5.15443e-05 -0.00347419 -1.17846e-22
-7.22684e-05 -0.00309841 1.75149e-26
-7.22684e-05 -0.00309841 1.75149e-26
-9.18673e-05 -0.00270412 1.17864e-22
-9.18673e-05 -0.00270412 1.17864e-22
-0.000111535 -0.00232998 1.20792e-22
-0.000111535 -0.00232998 1.20792e-22
-0.000114746 -0.00197887 -2.04445e-26
-0.000114746 -0.00197887 -2.04445e-26
-0.000100122 -0.00163914 -1.22953e-22
-0.000100122 -0.00163914 -1.22953e-22
-0.000107852 -0.00121552 0
-0.000107852 -0.00121552 0
-0.000124898 -0.000757466 0
-0.000124898 -0.000757466 0
-6.28713e-05 -0.000496235 0
-6.28713e-05 -0.000496235 0
0.000116366 -0.000750208 0
0.000116366 -0.000750208 0
0.000245586 -0.00141961 0
0.000245586 -0.00141961 0
0.000153095 -0.00187058 0
0.000153095 -0.00187058 0
-4.73692e-05 -0.00181507 0
-4.73692e-05 -0.00181507 0
-0.000214414 -0.00143803 0
-0.000214414 -0.00143803 0
-0.00032038 -0.000860448 0
-0.00032038 -0.000860448 0
-0.000226738 -0.000256697 0
-0.000226738 -0.000256697 0
4.58689e-05 8.47126e-05 0
4.58689e-05 8.47126e-05 0
5.98354e-06 -4.29687e-05 5.6532e-26
5.98354e-06 -4.29687e-05 5.6532e-26
0.000153472 -0.000172017 -6.66386e-24
0.000153472 -0.000172017 -6.66386e-24
0.000377711 -0.000246729 0
0.000377711 -0.000246729 0
0.000629355 -0.000276559 0
0.000629355 -0.000276559 0
0.000891797 -0.000283452 6.44149e-24
0.000891797 -0.000283452 6.44149e-24
0.00115607 -0.000280411 6.45307e-24
0.00115607 -0.000280411 6.45307e-24
0.00141843 -0.000273547 0
0.00141843 -0.000273547 0
0.00167735 -0.000265054 0
0.00167735 -0.000265054 0
0.00193196 -0.000255211 0
0.00193196 -0.000255211 0
0.00218092 -0.000243419 -6.12102e-24
0.00218092 -0.000243419 -6.12102e-24
0.00242181 -0.000228645 -6.13269e-24
0.00242181 -0.000228645 -6.13269e-24
0.00265077 -0.000209781 0
0.00265077 -0.000209781 0
0.00286273 -0.000185736 0
0.00286273 -0.000185736 0
0.00305119 -0.000155584 0
0.00305119 -0.000155584 0
0.00320914 -0.000118565 -5.79059e-24
0.00320914 -0.000118565 -5.79059e-24
0.00332815 -7.42211e-05 -5.80228e-24
0.00332815 -7.42211e-05 -5.80228e-24
0.00340148 -2.25048e-05 0
0.00340148 -2.25048e-05 0
0.00342133 3.66187e-05 0
0.00342133 3.66187e-05 0
0.00337857 0.000101541 0
0.00337857 0.000101541 0
0.00326702 0.000170644 0
0.00326702 0.000170644 0
0.00308624 0.000239468 0
0.00308624 0.000239468 0
0.00283503 0.000305268 0
0.00283503 0.000305268 0
0.00252291 0.000362468 -5.52908e-24
0.00252291 0.000362468 -5.52908e-24
0.0021568 0.000401757 -3.02782e-26
0.0021568 0.000401757 -3.02782e-26
0.00174942 0.000427129 3.4626e-26
0.00174942 0.000427129 3.4626e-26
0.00136143 0.000398341 -1.09627e-23
0.00136143 0.000398341 -1.09627e-23
0.000942068 0.000317135 -5.47409e-24
0.000942068 0.000317135 -5.47409e-24
0.000610048 0.000192091 0
0.000610048 0.000192091 0
0.000503501 -7.14293e-07 5.35061e-24
0.000503501 -7.14293e-07 5.35061e-24
0.000400697 -0.000166573 1.06637e-23
0.000400697 -0.000166573 1.06637e-23
0.000411197 -0.000318769 5.31313e-24
0.000411197 -0.000318769 5.31313e-24
0.000721864 -0.000426936 0
0.000721864 -0.000426936 0
0.00110539 -0.000549619 5.15956e-24
0.00110539 -0.000549619 5.15956e-24
0.00130431 -0.000880742 5.17227e-24
0.00130431 -0.000880742 5.17227e-24
0.00132554 -0.00106479 0
0.00132554 -0.00106479 0
0.00120765 -0.000625576 -4.99858e-24
0.00120765 -0.000625576 -4.99858e-24
0.000691503 0.000188411 -5.01129e-24
0.000691503 0.000188411 -5.01129e-24
-0.000224191 0.000726661 -4.95328e-24
-0.000224191 0.000726661 -4.95328e-24
-0.00126057 0.000896296 -1.47569e-23
-0.00126057 0.000896296 -1.47569e-23
-0.00230163 0.000938145 -9.81647e-24
-0.00230163 0.000938145 -9.81647e-24
-0.00329236 0.00089761 0
-0.00329236 0.00089761 0
-0.00418559 0.000801718 0
-0.00418559 0.000801718 0
-0.00496296 0.000686947 0
-0.00496296 0.000686947 0
-0.00562655 0.000574801 0
-0.00562655 0.000574801 0
-0.0061863 0.000474079 -8.445e-24
-0.0061863 0.000474079 -8.445e-24
-0.00665494 0.000387488 -1.66856e-23
-0.00665494 0.000387488 -1.66856e-23
-0.00704501 0.000314753 -1.62456e-23
-0.00704501 0.000314753 -1.62456e-23
-0.00736783 0.000254182 -8.02809e-24
-0.00736783 0.000254182 -8.02809e-24
-0.00763274 0.000203626 7.63674e-24
-0.00763274 0.000203626 7.63674e-24
-0.00784714 0.000161079 7.65887e-24
-0.00784714 0.000161079 7.65887e-24
-0.00801677 0.000124779 -7.34636e-24
-0.00801677 0.000124779 -7.34636e-24
-0.00814606 9.33301e-05 -1.4599e-23
-0.00814606 9.33301e-05 -1.4599e-23
-0.00823847 6.57563e-05 -7.25248e-24
-0.00823847 6.57563e-05 -7.25248e-24
-0.00829702 4.13904e-05 0
-0.00829702 4.13904e-05 0
-0.00832419 2.00282e-05 0
-0.00832419 2.00282e-05 0
-0.00832341 1.74293e-06 -6.95197e-24
-0.00832341 1.74293e-06 -6.95197e-24
-0.00829821 -1.38338e-05 -6.9735e-24
-0.00829821 -1.38338e-05 -6.9735e-24
-0.0082511 -2.71185e-05 0
-0.0082511 -2.71185e-05 0
-0.00818491 -3.83105e-05 0
-0.00818491 -3.83105e-05 0
-0.0081022 -4.77153e-05 0
-0.0081022 -4.77153e-05 0
-0.00800514 -5.56133e-05 0
-0.00800514 -5.56133e-05 0
-0.00789546 -6.23763e-05 0
-0.00789546 -6.23763e-05 0
-0.00777431 -6.84375e-05 0
-0.00777431 -6.84375e-05 0
-0.00764234 -7.4156e-05 0
-0.00764234 -7.4156e-05 0
-0.00749974 -7.97935e-05 6.96192e-24
-0.00749974 -7.97935e-05 6.96192e-24
-0.0073464 -8.54468e-05 6.98532e-24
-0.0073464 -8.54468e-05 6.98532e-24
-0.00718221 -9.10239e-05 0
-0.00718221 -9.10239e-05 0
-0.00700737 -9.62649e-05 -7.01285e-24
-0.00700737 -9.62649e-05 -7.01285e-24
-0.00682271 -0.00010075 -1.4064e-23
-0.00682271 -0.00010075 -1.4064e-23
-0.00662991 -0.000103995 -7.05141e-24
-0.00662991 -0.000103995 -7.05141e-24
-0.00643153 -0.000105591 7.04829e-24
-0.00643153 -0.000105591 7.04829e-24
-0.00623072 -0.000105376 1.79934e-26
-0.00623072 -0.000105376 1.79934e-26
-0.00603069 -0.000103611 -7.08042e-24
-0.00603069 -0.000103611 -7.08042e-24
-0.0058337 -0.000101103 7.06333e-24
-0.0058337 -0.000101103 7.06333e-24
-0.00563985 -9.91848e-05 7.08896e-24
-0.00563985 -9.91848e-05 7.08896e-24
-0.00544615 -9.94869e-05 0
-0.00544615 -9.94869e-05 0
-0.00524636 -0.000103475 -7.07749e-24
-0.00524636 -0.000103475 -7.07749e-24
-0.00503216 -0.000111838 -7.1038e-24
-0.00503216 -0.000111838 -7.1038e-24
-0.00479546 -0.000124016 7.10301e-24
-0.00479546 -0.000124016 7.10301e-24
-0.00453052 -0.000138376 7.12985e-24
-0.00453052 -0.000138376 7.12985e-24
-0.00423535 -0.00015279 -7.13971e-24
-0.00423535 -0.00015279 -7.13971e-24
-0.00391189 -0.0001652 -1.43248e-23
-0.00391189 -0.0001652 -1.43248e-23
-0.00356546 -0.000174112 -1.43578e-23
-0.00356546 -0.000174112 -1.43578e-23
-0.00320347 -0.000178803 -2.15649e-23
-0.00320347 -0.000178803 -2.15649e-23
-0.00283388 -0.000179307 -4.90882e-26
-0.00283388 -0.000179307 -4.90882e-26
-0.00246368 -0.00017626 1.44287e-23
-0.00246368 -0.00017626 1.44287e-23
-0.00209823 -0.00017054 0
-0.00209823 -0.00017054 0
-0.00174162 -0.000163007 0
-0.00174162 -0.000163007 0
-0.00139686 -0.0001544 1.42697e-23
-0.00139686 -0.0001544 1.42697e-23
-0.00106581 -0.000145222 2.85412e-23
-0.00106581 -0.000145222 2.85412e-23
-0.00074951 -0.000135774 1.25563e-25
-0.00074951 -0.000135774 1.25563e-25
-0.000448502 -0.000126266 -1.42047e-23
-0.000448502 -0.000126266 -1.42047e-23
-0.000163715 -0.000116826 1.39813e-23
-0.000163715 -0.000116826 1.39813e-23
0.000104135 -0.000107532 2.79223e-23
0.000104135 -0.000107532 2.79223e-23
0.000355699 -9.83234e-05 2.77154e-23
0.000355699 -9.83234e-05 2.77154e-23
0.000591373 -8.91627e-05 1.3833e-23
0.000591373 -8.91627e-05 1.3833e-23
0.000810903 -8.01691e-05 0
0.000810903 -8.01691e-05 0
0.00101433 -7.14294e-05 0
0.00101433 -7.14294e-05 0
0.0012019 -6.30214e-05 1.32903e-23
0.0012019 -6.30214e-05 1.32903e-23
0.001374 -5.5011e-05 1.33485e-23
0.001374 -5.5011e-05 1.33485e-23
0.00153118 -4.74484e-05 0
0.00153118 -4.74484e-05 0
0.00167408 -4.03649e-05 -1.28949e-23
0.00167408 -4.03649e-05 -1.28949e-23
0.0018034 -3.37742e-05 -1.29525e-23
0.0018034 -3.37742e-05 -1.29525e-23
0.00191987 -2.76755e-05 0
0.00191987 -2.76755e-05 0
0.00202425 -2.20595e-05 -1.24906e-23
0.00202425 -2.20595e-05 -1.24906e-23
0.00211725 -1.69129e-05 -1.25474e-23
0.00211725 -1.69129e-05 -1.25474e-23
0.00219959 -1.22234e-05 0
0.00219959 -1.22234e-05 0
0.00227198 -7.98125e-06 1.20871e-23
0.00227198 -7.98125e-06 1.20871e-23
0.00233511 -4.1783e-06 2.40969e-23
0.00233511 -4.1783e-06 2.40969e-23
0.00238967 -8.06216e-07 1.20096e-23
0.00238967 -8.06216e-07 1.20096e-23
0.00243637 2.14478e-06 -1.16896e-23
0.00243637 2.14478e-06 -1.16896e-23
0.00247592 4.69263e-06 -1.17449e-23
0.00247592 4.69263e-06 -1.17449e-23
0.00250902 6.85958e-06 1.14293e-23
0.00250902 6.85958e-06 1.14293e-23
0.00253637 8.67346e-06 1.1484e-23
0.00253637 8.67346e-06 1.1484e-23
0.00255866 1.01756e-05 1.11733e-23
0.00255866 1.01756e-05 1.11733e-23
0.00257653 1.14018e-05 2.22742e-23
0.00257653 1.14018e-05 2.22742e-23
0.00259056 1.23943e-05 1.11006e-23
0.00259056 1.23943e-05 1.11006e-23
0.00260127 1.32049e-05 0
0.00260127 1.32049e-05 0
0.00260912 1.38692e-05 0
0.00260912 1.38692e-05 0
0.00261442 1.44364e-05 0
0.00261442 1.44364e-05 0
0.00261746 1.4928e-05 0
0.00261746 1.4928e-05 0
0.00261854 1.52959e-05 0
0.00261854 1.52959e-05 0
0.00261793 1.55006e-05 0
0.00261793 1.55006e-05 0
0.0026158 1.55462e-05 1.00744e-23
0.0026158 1.55462e-05 1.00744e-23
0.00261237 1.54454e-05 1.6831e-25
0.00261237 1.54454e-05 1.6831e-25
0.00260788 1.5197e-05 -1.00083e-23
0.00260788 1.5197e-05 -1.00083e-23
0.00260256 1.47994e-05 0
0.00260256 1.47994e-05 0
0.00259665 1.42661e-05 0
0.00259665 1.42661e-05 0
0.00259037 1.36208e-05 0
0.00259037 1.36208e-05 0
0.00258393 1.28913e-05 -1.87711e-23
0.00258393 1.28913e-05 -1.87711e-23
0.00257752 1.21071e-05 -1.88697e-23
0.00257752 1.21071e-05 -1.88697e-23
0.00257128 1.12935e-05 1.8325e-23
0.00257128 1.12935e-05 1.8325e-23
0.00256533 1.04729e-05 3.17979e-25
0.00256533 1.04729e-05 3.17979e-25
0.00255975 9.66761e-06 -1.82008e-23
0.00255975 9.66761e-06 -1.82008e-23
0.0025546 8.89639e-06 0
0.0025546 8.89639e-06 0
0.0025499 8.16939e-06 0
0.0025499 8.16939e-06 0
0.00254565 7.48878e-06 1.72354e-23
0.00254565 7.48878e-06 1.72354e-23
0.00254186 6.85463e-06 3.43505e-23
0.00254186 6.85463e-06 3.43505e-23
0.0025385 6.2665e-06 1.71144e-23
0.0025385 6.2665e-06 1.71144e-23
0.00253558 5.72061e-06 1.65974e-23
0.00253558 5.72061e-06 1.65974e-23
0.00253305 5.21047e-06 3.30761e-23
0.00253305 5.21047e-06 3.30761e-23
0.00253086 4.73283e-06 2.99777e-25
0.00253086 4.73283e-06 2.99777e-25
0.00252894 4.28709e-06 -1.62681e-23
0.00252894 4.28709e-06 -1.62681e-23
0.00252726 3.88024e-06 0
0.00252726 3.88024e-06 0
0.00252577 3.51905e-06 -1.55574e-23
0.00252577 3.51905e-06 -1.55574e-23
0.00252446 3.19998e-06 -1.5645e-23
0.00252446 3.19998e-06 -1.5645e-23
0.00252331 2.91823e-06 0
0.00252331 2.91823e-06 0
0.00252231 2.66996e-06 0
0.00252231 2.66996e-06 0
0.00252144 2.453e-06 0
0.00252144 2.453e-06 0
0.00252068 2.26648e-06 1.45431e-23
0.00252068 2.26648e-06 1.45431e-23
0.00252003 2.10963e-06 2.89698e-23
0.00252003 2.10963e-06 2.89698e-23
0.00251944 1.98287e-06 1.44259e-23
0.00251944 1.98287e-06 1.44259e-23
0.0025189 1.88598e-06 1.39457e-23
0.0025189 1.88598e-06 1.39457e-23
0.00251836 1.81666e-06 1.40269e-23
0.00251836 1.81666e-06 1.40269e-23
0.0025178 1.77175e-06 0
0.0025178 1.77175e-06 0
0.00251716 1.74757e-06 1.33561e-23
0.00251716 1.74757e-06 1.33561e-23
0.00251644 1.74142e-06 1.34347e-23
0.00251644 1.74142e-06 1.34347e-23
0.00251557 1.75225e-06 1.29672e-23
0.00251557 1.75225e-06 1.29672e-23
0.00251455 1.78027e-06 1.30441e-23
0.00251455 1.78027e-06 1.30441e-23
0.00251332 1.82725e-06 0
0.00251332 1.82725e-06 0
0.00251184 1.89525e-06 1.23899e-23
0.00251184 1.89525e-06 1.23899e-23
0.00251003 1.98847e-06 1.24642e-23
0.00251003 1.98847e-06 1.24642e-23
0.00250784 2.11056e-06 1.2009e-23