/*--------------------------------*- C++ -*----------------------------------*\
  =========                 |
  \\      /  F ield         | OpenFOAM: The Open Source CFD Toolbox
   \\    /   O peration     | Website:  https://openfoam.org
    \\  /    A nd           | Version:  7
     \\/     M anipulation  |
\*---------------------------------------------------------------------------*/
FoamFile
{
    version     2.0;
    format      ascii;
    class       volScalarField;
    location    "0.035";
    object      nut;
}
// * * * * * * * * * * * * * * * * * * * * * * * * * * * * * * * * * * * * * //

dimensions      [0 2 -1 0 0 0 0];

internalField   nonuniform List<scalar> 
12225
(
0
0
0
0
0
0
0
0
0
0
0
0
0
0
0
0
4.52993e-11
0
0
0
0
0
0
0
0
0
0
0
0
0
0
0
0
0
7.5802e-11
0
0
5.16525e-10
4.98654e-10
3.75066e-10
4.253e-10
1.17169e-10
0
0
0
0
0
0
0
0
0
0
3.61706e-12
0
0
1.32112e-08
9.58987e-09
3.72595e-09
1.57946e-09
7.4468e-10
0
0
0
0
0
0
0
0
0
0
0
0
4.41471e-07
4.02948e-07
3.29944e-07
1.68706e-08
0
0
1.5979e-09
4.32925e-09
4.3993e-09
2.69284e-09
0
0
0
0
0
0
0
0
3.37661e-07
3.96631e-07
5.57939e-07
6.68525e-07
4.70328e-07
1.50527e-07
1.0956e-07
8.71954e-08
6.40646e-08
3.90439e-08
2.1821e-08
1.41054e-08
9.62272e-09
3.69755e-09
0
0
0
0
8.78707e-08
1.9776e-07
5.61922e-07
6.0941e-07
3.96571e-07
1.28625e-07
5.16136e-08
9.39989e-08
7.34846e-08
3.29844e-08
1.60581e-08
1.29302e-08
1.35677e-08
1.14982e-08
7.66857e-09
4.5796e-09
6.34966e-09
8.45322e-09
0
6.39691e-08
5.16601e-07
4.41431e-07
2.007e-07
2.15834e-09
0
4.45428e-08
4.89646e-08
9.62429e-09
4.92113e-10
1.30665e-08
2.18088e-08
1.13242e-08
0
0
0
4.37977e-09
1.96968e-07
4.85195e-07
4.14501e-07
3.17911e-07
6.91798e-08
0
0
6.64459e-08
1.0794e-07
3.67913e-08
4.08422e-09
2.20033e-08
3.03602e-08
8.55824e-10
0
0
0
6.87911e-10
1.46737e-06
8.48551e-07
4.73466e-07
2.14142e-07
0
0
1.27358e-08
1.74956e-07
3.38632e-07
3.41254e-07
2.14443e-07
9.1109e-08
9.05313e-10
0
0
0
0
2.68121e-09
6.11186e-07
5.35597e-07
3.25739e-07
2.07066e-08
0
2.90408e-07
6.102e-07
7.03582e-07
5.3993e-07
3.66934e-07
2.05485e-07
7.67744e-08
1.75331e-10
0
0
0
4.15698e-09
3.86347e-08
1.21808e-07
5.49486e-07
6.87408e-07
2.70267e-07
1.96587e-07
7.09198e-07
1.16633e-06
1.1216e-06
6.63772e-07
3.0719e-07
1.50737e-07
8.11381e-08
3.44069e-08
0
0
0
1.74654e-08
3.53519e-08
1.03596e-06
1.20226e-06
1.61962e-06
1.22566e-06
5.95749e-07
8.02357e-07
8.57719e-07
6.5172e-07
3.83649e-07
1.94114e-07
1.154e-07
8.44671e-08
3.91974e-08
0
0
0
1.14442e-08
2.75784e-08
6.79097e-07
6.01459e-07
9.65353e-07
5.10093e-07
0
9.81324e-08
3.47249e-07
3.19094e-07
1.79202e-07
4.1179e-08
0
0
0
0
0
2.10809e-09
5.13658e-08
8.47371e-08
3.10239e-07
8.08403e-08
2.13613e-07
0
0
0
0
4.9879e-07
2.75274e-07
0
0
0
0
0
0
1.71896e-08
1.92253e-07
3.18308e-07
0
4.15226e-07
3.53414e-07
1.79799e-07
5.05166e-09
0
0
0
0
0
0
0
0
0
0
0
9.50286e-08
1.9849e-07
0
1.21922e-06
7.90646e-07
2.51181e-07
0
0
0
0
0
0
0
0
0
0
0
0
1.11707e-07
1.91631e-07
0
5.90122e-07
1.07896e-06
6.63452e-07
2.80595e-07
1.5298e-07
0
0
0
0
0
1.87754e-08
1.21618e-07
1.31177e-07
7.6344e-08
2.66636e-08
4.70719e-08
1.29334e-07
0
0
0
0
1.43247e-07
2.34903e-07
0
0
0
0
0
2.34215e-07
3.83376e-07
3.99425e-07
3.09831e-07
1.77714e-07
7.92704e-08
4.28751e-08
0
0
6.5785e-08
1.77088e-07
1.29438e-07
3.65414e-08
0
0
0
0
0
6.76006e-08
1.76326e-07
2.29846e-07
2.42843e-07
2.25152e-07
1.80886e-07
1.28329e-07
5.08022e-07
6.15879e-07
2.4752e-07
0
0
0
0
0
0
0
0
0
0
0
0
0
0
0
8.75255e-07
1.37919e-06
0
0
0
0
0
0
0
0
0
0
0
0
0
0
0
0
3.69312e-07
3.01137e-07
0
0
0
0
0
0
0
0
0
0
0
0
0
0
0
0
0
0
0
0
0
0
0
0
0
0
0
0
0
0
0
0
0
1.37085e-08
0
0
0
0
0
0
0
0
0
0
0
0
0
0
0
0
0
0
0
0
0
2.55261e-08
0
0
0
0
0
0
0
0
0
0
0
0
0
0
0
0
0
0
0
0
0
0
0
0
0
0
0
0
0
0
0
0
6.91452e-09
0
0
0
0
0
0
0
0
0
0
0
0
0
0
0
0
0
1.01595e-08
0
0
0
0
0
0
0
0
0
0
0
0
0
0
0
0
0
7.64959e-08
0
0
0
0
0
0
0
0
0
0
0
0
0
0
0
0
0
1.77176e-08
8.70755e-09
0
0
0
0
0
0
0
0
0
0
0
0
0
0
0
0
0
2.35471e-07
7.48499e-07
2.05199e-06
5.59498e-06
1.08417e-05
1.59248e-05
1.96881e-05
2.26098e-05
1.98451e-05
1.20635e-05
3.95281e-06
9.85613e-07
2.16438e-07
5.67298e-09
0
0
3.84605e-09
3.20875e-08
5.1545e-08
6.15197e-08
6.31583e-08
5.77257e-08
5.09006e-08
4.06158e-08
3.15258e-08
2.30654e-08
1.54109e-08
1.00919e-08
5.6487e-09
2.37164e-09
0
0
0
0
0
0
0
0
0
0
0
0
0
0
0
0
0
0
0
0
0
0
0
0
0
0
0
0
0
0
0
0
0
0
0
0
0
0
0
0
0
0
0
0
0
0
0
0
0
0
0
0
0
0
0
0
0
0
0
0
0
0
0
0
0
0
0
0
0
0
0
0
0
0
0
0
0
0
0
0
0
0
0
0
0
0
0
0
0
0
0
0
0
0
0
0
0
0
0
0
0
0
0
0
0
0
0
0
0
0
0
0
0
0
0
0
0
0
0
0
0
0
0
0
0
0
0
0
0
0
0
9.62151e-09
5.37621e-08
1.36806e-08
0
0
0
0
0
0
0
0
0
0
0
0
0
0
3.41678e-07
1.52957e-06
2.89036e-06
3.82732e-06
4.09473e-06
3.86861e-06
3.42334e-06
2.82072e-06
2.13342e-06
1.57673e-06
1.30197e-06
1.08309e-06
7.1115e-07
3.88895e-07
1.77768e-07
5.82048e-08
5.51201e-09
0
8.54691e-09
2.33856e-08
3.36852e-08
3.88006e-08
4.01931e-08
3.86253e-08
3.64341e-08
3.32776e-08
2.96048e-08
2.53701e-08
2.07856e-08
1.57191e-08
1.04395e-08
4.87883e-09
0
0
0
0
0
0
0
0
0
0
0
0
0
0
0
0
0
0
0
0
0
0
0
0
0
0
0
0
0
0
0
0
0
5.05303e-09
0
0
0
0
0
0
0
0
0
0
0
0
0
0
0
0
0
0
0
0
0
0
0
0
0
0
0
0
0
0
0
0
0
0
0
0
0
0
0
0
0
0
0
0
0
0
0
0
0
0
0
0
0
0
0
0
0
0
0
0
0
0
0
0
0
0
0
0
0
0
0
0
0
0
0
0
0
0
0
0
0
0
0
0
0
0
0
0
0
0
0
0
0
0
0
0
0
0
3.89094e-09
3.58866e-08
0
0
0
0
0
0
0
0
0
0
0
1.16798e-07
2.8443e-07
4.64241e-07
6.23692e-07
7.4085e-07
7.98116e-07
7.45474e-07
5.70733e-07
3.76281e-07
2.95021e-07
3.25371e-07
3.25253e-07
2.10597e-07
1.6919e-07
1.95391e-07
1.85781e-07
1.1884e-07
5.68895e-08
2.06886e-08
2.70944e-09
0
4.13261e-09
1.62194e-08
3.0476e-08
4.37733e-08
5.39304e-08
5.99568e-08
6.17278e-08
6.01179e-08
5.5101e-08
4.76143e-08
3.85069e-08
2.86136e-08
1.86475e-08
8.88172e-09
0
0
0
0
0
0
0
0
0
0
0
0
0
0
0
0
0
0
0
0
0
0
0
0
0
0
0
0
0
0
1.05264e-08
2.06698e-08
2.49287e-08
2.07293e-08
1.06349e-08
0
0
0
0
0
0
0
0
0
0
0
0
0
0
0
0
0
0
0
0
0
0
0
0
0
0
0
0
0
0
0
0
0
0
0
0
0
0
0
0
0
0
0
0
0
0
0
0
0
0
0
0
0
0
0
0
0
0
0
0
0
0
0
0
0
0
0
0
0
0
0
0
0
0
0
0
0
0
0
0
0
0
0
0
0
0
0
0
0
0
0
0
0
0
0
0
0
0
0
0
0
0
1.63506e-09
3.60835e-08
7.7483e-08
1.28144e-07
1.91131e-07
2.70012e-07
3.65792e-07
4.73175e-07
5.83636e-07
6.92712e-07
7.89501e-07
8.56634e-07
8.84597e-07
8.88105e-07
8.19506e-07
6.9023e-07
4.97378e-07
3.28834e-07
2.34381e-07
1.8062e-07
1.12224e-07
6.25092e-08
5.1204e-08
2.1508e-08
0
0
0
0
0
0
0
0
0
0
0
0
0
1.00632e-07
2.56784e-07
4.91812e-07
8.56999e-07
1.40166e-06
8.90768e-07
0
0
0
0
0
0
0
0
0
0
0
0
0
3.16418e-08
1.1588e-07
1.81787e-07
2.18535e-07
2.30332e-07
2.1976e-07
1.99656e-07
1.74109e-07
1.53984e-07
1.37217e-07
1.23268e-07
1.14294e-07
1.0449e-07
9.47985e-08
8.44273e-08
7.35982e-08
6.27451e-08
5.35854e-08
4.69211e-08
4.00699e-08
3.1233e-08
2.21628e-08
1.43935e-08
7.89325e-09
2.49028e-09
0
0
0
0
0
0
0
0
0
0
0
0
0
0
0
0
0
0
0
0
0
0
0
0
0
0
0
0
0
0
0
0
0
0
0
0
0
0
0
0
0
0
0
0
0
0
0
0
0
0
0
0
0
0
0
0
0
0
0
0
0
0
0
0
0
0
0
0
0
1.82302e-16
5.65254e-16
7.3386e-16
8.33842e-16
8.45305e-16
8.96198e-16
8.7097e-16
9.59393e-16
9.17042e-16
1.08095e-15
9.9372e-16
1.27288e-15
1.09741e-15
1.56524e-15
1.30528e-15
1.85405e-15
2.22524e-15
1.54986e-15
6.91574e-15
0
5.83708e-14
0
5.92627e-13
0
0
0
0
0
0
0
0
0
0
6.25425e-09
7.64121e-08
1.56296e-07
2.47594e-07
3.51843e-07
4.68217e-07
5.89734e-07
6.98458e-07
7.84759e-07
8.41009e-07
8.58761e-07
8.35374e-07
7.67657e-07
6.51682e-07
5.16644e-07
3.87575e-07
2.69142e-07
1.3591e-07
0
0
0
0
0
0
0
0
0
0
0
5.54308e-08
1.41285e-07
2.28815e-07
3.28486e-07
4.54707e-07
6.27052e-07
8.90613e-07
1.31415e-06
2.03789e-06
2.93852e-06
0
0
0
0
0
0
0
0
0
0
0
0
0
0
0
0
0
0
5.94233e-08
1.53871e-07
1.91701e-07
1.89638e-07
1.73456e-07
1.52921e-07
1.34536e-07
1.23459e-07
1.12622e-07
1.01577e-07
8.96463e-08
7.74203e-08
6.67902e-08
5.93939e-08
5.36685e-08
4.62922e-08
3.77455e-08
2.94453e-08
2.1641e-08
1.40916e-08
6.79856e-09
3.17207e-11
0
0
0
0
0
0
0
0
0
0
0
0
0
0
0
0
0
0
0
0
0
0
0
0
0
0
0
0
0
0
0
0
0
0
0
0
0
0
0
0
0
0
0
0
0
0
0
0
0
3.80157e-12
8.18707e-12
9.27878e-12
8.7171e-12
7.46592e-12
6.04131e-12
4.70187e-12
3.55714e-12
2.63644e-12
1.92666e-12
1.3956e-12
1.0059e-12
7.23084e-13
5.18829e-13
3.71737e-13
2.66075e-13
1.90573e-13
1.36838e-13
9.8804e-14
7.18023e-14
5.26148e-14
3.87441e-14
2.86759e-14
2.11451e-14
1.55047e-14
1.11379e-14
7.71291e-15
5.04088e-15
2.65503e-15
1.03054e-15
0
0
0
0
0
0
0
6.68815e-15
0
3.74471e-13
0
2.20023e-12
0
0
0
0
0
0
0
0
0
0
0
0
0
0
0
0
2.76213e-08
1.02023e-07
1.69822e-07
2.1847e-07
2.40363e-07
2.2312e-07
1.64385e-07
7.16039e-08
0
0
0
0
0
0
0
0
0
0
0
1.04182e-07
2.00823e-07
2.72035e-07
3.12975e-07
3.25606e-07
3.2551e-07
3.34612e-07
3.73152e-07
4.60779e-07
6.28513e-07
9.14536e-07
1.33822e-06
1.78948e-06
1.38502e-06
0
0
0
0
0
0
0
0
0
0
0
0
0
0
0
0
0
0
0
0
0
9.41985e-08
1.50193e-07
1.59214e-07
1.48971e-07
1.34533e-07
1.21756e-07
1.06925e-07
9.13838e-08
7.64456e-08
6.56224e-08
5.92679e-08
5.31204e-08
4.56932e-08
3.8961e-08
3.32169e-08
2.77167e-08
2.19075e-08
1.55785e-08
8.75119e-09
1.67416e-09
0
0
0
0
0
0
0
0
0
0
0
0
0
0
0
0
0
0
0
0
0
0
0
0
0
0
0
0
0
0
0
0
0
0
0
0
0
0
0
0
0
0
0
0
0
0
0
0
0
0
0
0
0
0
0
0
0
0
0
0
0
0
0
0
0
0
5.58316e-15
3.19748e-14
3.49745e-14
2.94775e-14
2.10814e-14
1.27813e-14
4.40079e-15
0
0
0
0
0
0
0
0
4.99801e-14
7.9e-14
6.3038e-13
1.06926e-12
6.43021e-12
4.78216e-12
3.50445e-11
0
2.35085e-11
0
0
0
0
0
0
0
0
0
0
0
0
0
0
0
0
0
0
0
0
0
0
0
0
0
0
0
0
0
0
0
0
2.25283e-08
1.40801e-07
2.30064e-07
2.72585e-07
2.74176e-07
2.4985e-07
2.1354e-07
1.74186e-07
1.35677e-07
1.02318e-07
8.50324e-08
9.79107e-08
1.55749e-07
2.62818e-07
3.92121e-07
4.69418e-07
4.00363e-07
2.03164e-07
7.81561e-08
1.20161e-07
2.16748e-07
2.66356e-07
2.49331e-07
1.5946e-07
2.25803e-08
0
0
0
0
0
0
0
0
0
0
0
0
0
0
0
7.27165e-08
1.32354e-07
1.42968e-07
1.34556e-07
1.15923e-07
9.44789e-08
7.58427e-08
6.34521e-08
5.51988e-08
4.64932e-08
3.80309e-08
3.20208e-08
2.7976e-08
2.48087e-08
2.18549e-08
1.8594e-08
1.45681e-08
9.40454e-09
3.08759e-09
0
0
0
0
0
0
0
0
0
0
0
0
0
0
0
0
0
0
0
0
0
0
0
0
0
0
0
0
0
0
0
0
0
0
0
0
0
0
0
0
0
0
0
0
0
0
0
0
0
0
0
0
0
0
0
0
0
0
0
0
0
0
0
0
0
0
0
0
0
0
0
0
0
0
0
4.13938e-14
2.28582e-13
4.32357e-13
8.92535e-13
1.48244e-12
2.88757e-12
4.2048e-12
7.6491e-12
8.92591e-12
1.6982e-11
1.0952e-11
2.06328e-11
0
0
0
0
0
0
0
0
0
0
0
0
0
0
0
0
0
0
0
0
0
0
0
0
0
0
0
0
0
0
0
0
0
5.66994e-08
1.34657e-07
1.81522e-07
2.00341e-07
1.9546e-07
1.58481e-07
7.82065e-08
0
0
0
0
0
0
0
3.32197e-08
3.87857e-07
6.45503e-07
5.30471e-07
3.17832e-08
0
0
1.70264e-07
4.76432e-07
6.81619e-07
7.08607e-07
6.89081e-07
6.35337e-07
5.28062e-07
4.04892e-07
1.98274e-07
0
0
0
0
0
0
0
0
0
0
0
0
0
1.09773e-07
1.41599e-07
1.29266e-07
1.02976e-07
8.00626e-08
6.44093e-08
5.27261e-08
4.23946e-08
3.39554e-08
2.7908e-08
2.37318e-08
2.08285e-08
1.85083e-08
1.62784e-08
1.40419e-08
1.17124e-08
8.80701e-09
4.49241e-09
0
0
0
0
0
0
0
0
0
0
0
0
0
0
0
0
0
0
0
0
0
0
0
0
0
0
0
0
0
0
0
0
0
0
0
0
0
0
0
0
0
0
0
0
0
0
0
0
0
0
0
0
0
0
0
0
0
0
0
0
0
0
0
0
0
0
0
0
0
0
0
0
0
0
0
1.14634e-13
2.66882e-13
5.7027e-13
9.74356e-13
1.84404e-12
2.68718e-12
4.55596e-12
5.15472e-12
8.73145e-12
4.53413e-12
4.49493e-12
0
0
0
0
0
0
0
0
0
0
0
0
0
0
0
0
0
0
0
0
0
0
0
0
0
0
0
0
0
0
0
0
4.43959e-08
9.56397e-08
1.23911e-07
1.36714e-07
1.26086e-07
6.31524e-08
0
0
0
0
0
0
0
0
2.62414e-07
1.17655e-06
2.39908e-06
3.24707e-06
1.64595e-06
0
0
0
0
0
4.09715e-07
6.42717e-07
6.1432e-07
4.86506e-07
3.02175e-07
1.93769e-07
1.73441e-07
2.08262e-07
2.01038e-07
5.62553e-08
0
0
0
0
0
0
0
0
0
0
0
9.36982e-08
1.28279e-07
1.10808e-07
8.50045e-08
6.45389e-08
5.01882e-08
4.02881e-08
3.31046e-08
2.72019e-08
2.24512e-08
1.91094e-08
1.69524e-08
1.5152e-08
1.28812e-08
1.01018e-08
7.45203e-09
5.3642e-09
3.21229e-09
0
0
0
0
0
0
0
0
0
0
0
0
0
0
0
0
0
0
0
0
0
0
0
0
0
0
0
0
0
0
0
0
0
0
0
0
0
0
0
0
0
0
0
0
0
0
0
0
0
0
0
0
0
0
0
0
0
0
0
0
0
0
0
0
0
0
0
0
0
0
0
0
0
0
2.13443e-14
1.17086e-13
2.7793e-13
4.86264e-13
9.11346e-13
1.29901e-12
2.13074e-12
2.09175e-12
2.69379e-12
3.40704e-13
0
0
0
0
0
0
0
0
0
0
0
0
0
0
0
0
0
0
0
0
0
0
0
0
0
0
0
0
0
0
0
0
2.0536e-08
4.67251e-08
6.02844e-08
6.8879e-08
5.4947e-08
0
0
0
0
0
0
0
0
0
7.59754e-07
2.30589e-06
5.02449e-06
9.48993e-06
1.5382e-05
8.90214e-06
0
0
0
0
0
3.23151e-07
1.05399e-06
1.19323e-06
1.00612e-06
6.52799e-07
3.17234e-07
9.90561e-08
2.95098e-08
4.23073e-08
6.43747e-08
7.17226e-08
0
0
0
0
0
0
0
0
0
0
0
6.56482e-08
9.89491e-08
8.25589e-08
6.05792e-08
4.59189e-08
3.83379e-08
3.41847e-08
3.0163e-08
2.49868e-08
1.98827e-08
1.64788e-08
1.49186e-08
1.39406e-08
1.20503e-08
8.90358e-09
5.38056e-09
2.62492e-09
1.02766e-09
0
0
0
0
0
0
0
0
0
0
0
0
0
0
0
0
0
0
0
0
0
0
0
0
0
0
0
0
0
0
0
0
0
0
0
0
0
0
0
0
0
0
0
0
0
0
0
0
0
0
0
0
0
0
0
0
0
0
0
0
0
0
0
0
0
0
0
0
0
0
0
0
0
0
1.44685e-14
8.83124e-14
1.64052e-13
3.0743e-13
4.05065e-13
5.75751e-13
3.95615e-13
7.30367e-14
0
0
0
0
0
0
0
0
0
0
0
0
0
0
0
0
0
0
0
0
0
0
0
0
0
0
0
0
0
0
0
0
5.56861e-09
1.7618e-08
1.83366e-08
2.09653e-08
1.72693e-08
0
0
0
0
0
0
0
0
2.79686e-08
7.7864e-07
2.23957e-06
4.92711e-06
9.18086e-06
1.50742e-05
1.87648e-05
0
0
0
0
0
0
0
0
7.52378e-07
9.76376e-07
8.57532e-07
5.89731e-07
3.10589e-07
1.27329e-07
6.83465e-08
2.92707e-08
0
0
0
0
0
0
0
0
0
0
0
0
0
5.15158e-08
6.63549e-08
5.06968e-08
3.81324e-08
3.26493e-08
3.17371e-08
3.15713e-08
2.89257e-08
2.35574e-08
1.78991e-08
1.43846e-08
1.32209e-08
1.29034e-08
1.15397e-08
8.5385e-09
4.73021e-09
1.24952e-09
0
0
0
0
0
0
0
0
0
0
0
0
0
0
0
0
0
0
0
0
0
0
0
0
0
0
0
0
0
0
0
0
0
0
0
0
0
0
0
0
0
0
0
0
0
0
0
0
0
0
0
0
0
0
0
0
0
0
0
0
0
0
0
0
0
0
0
0
0
0
0
0
0
0
0
0
4.04052e-15
2.22768e-14
9.39862e-15
0
0
0
0
0
0
0
0
2.18748e-11
0
0
0
0
0
0
0
0
0
0
0
0
0
0
0
0
0
0
0
0
0
0
0
0
0
0
1.30813e-09
0
0
0
0
0
0
0
0
0
0
0
0
1.77806e-07
8.28206e-07
2.08026e-06
3.88317e-06
5.74252e-06
5.82341e-06
5.14883e-07
0
0
0
0
0
0
0
0
0
3.27287e-07
4.46786e-07
3.8799e-07
2.28181e-07
2.86772e-08
0
3.94822e-08
3.99521e-08
0
0
0
0
0
0
0
0
0
0
0
0
2.71828e-08
5.49056e-08
4.62651e-08
3.43338e-08
2.80367e-08
2.64389e-08
2.7672e-08
2.87154e-08
2.63886e-08
2.10181e-08
1.57867e-08
1.31176e-08
1.26252e-08
1.25389e-08
1.12215e-08
8.41192e-09
4.89858e-09
1.29183e-09
0
0
0
0
0
0
0
0
0
0
0
0
0
0
0
0
0
0
0
0
0
0
0
0
0
0
0
0
0
0
0
0
0
0
0
0
0
0
0
0
0
0
0
0
0
0
0
0
0
0
0
0
0
0
0
0
0
0
0
0
0
0
0
0
0
0
0
0
0
0
0
0
0
0
0
0
0
0
0
0
0
0
0
0
0
0
4.50306e-09
1.76558e-09
0
0
0
0
0
0
0
0
0
0
0
0
0
0
0
0
0
0
2.5578e-09
9.77434e-09
1.38748e-08
1.3324e-08
6.8182e-09
0
0
0
0
0
0
5.23531e-09
0
0
0
0
0
0
0
0
0
0
5.60866e-08
0
0
0
0
0
0
0
0
0
0
0
0
0
0
1.30827e-07
1.54323e-07
1.27615e-07
0
0
0
1.84456e-08
0
0
0
0
0
3.19942e-07
5.54372e-07
2.22182e-07
0
0
0
0
7.45087e-08
8.4474e-08
6.40588e-08
4.35611e-08
3.10009e-08
2.39327e-08
2.11816e-08
2.19904e-08
2.34993e-08
2.19837e-08
1.76169e-08
1.37766e-08
1.23925e-08
1.24632e-08
1.22684e-08
1.07326e-08
8.12571e-09
5.18642e-09
1.86053e-09
0
0
0
0
0
0
0
0
0
0
0
0
0
0
0
0
0
0
0
0
0
0
0
0
0
0
0
0
0
0
0
0
0
0
0
0
0
0
0
0
0
0
0
0
0
0
0
0
0
0
0
0
0
0
0
0
0
0
0
0
0
0
0
0
0
0
0
0
0
0
0
0
0
0
0
0
0
0
0
0
0
0
0
0
0
5.1477e-08
1.38972e-08
3.55143e-09
0
0
0
0
0
0
0
0
0
0
2.16792e-09
8.8624e-09
1.47414e-08
2.16879e-08
3.07914e-08
4.27877e-08
5.77776e-08
7.44031e-08
8.88719e-08
9.5803e-08
8.74539e-08
5.94777e-08
1.65502e-08
0
0
0
0
0
4.38994e-08
7.05113e-08
7.97032e-08
8.24772e-08
8.51395e-08
8.82064e-08
7.87064e-08
1.29833e-08
0
0
0
0
0
0
0
0
0
0
0
0
0
0
0
0
0
0
1.08004e-09
0
1.84722e-08
1.51773e-08
0
0
0
1.10635e-07
0
0
0
0
0
7.78912e-08
1.11145e-07
7.25917e-08
4.45797e-08
9.35291e-08
1.76813e-07
1.68125e-07
1.26144e-07
8.32173e-08
5.16698e-08
3.2737e-08
2.19756e-08
1.56646e-08
1.34576e-08
1.50112e-08
1.73851e-08
1.70359e-08
1.42222e-08
1.1967e-08
1.14803e-08
1.17358e-08
1.13649e-08
9.76825e-09
7.66874e-09
5.60462e-09
2.77131e-09
0
0
0
0
0
0
0
0
0
0
0
0
0
0
0
0
0
0
0
0
0
0
0
0
0
0
0
0
0
0
0
0
0
0
0
0
0
0
0
0
0
0
0
0
0
0
0
0
0
0
0
0
0
0
0
0
0
0
0
0
0
0
0
0
0
0
0
0
0
0
0
0
0
0
0
0
0
0
0
0
0
0
0
0
1.33136e-07
6.27223e-09
9.20656e-09
1.12611e-08
2.00203e-09
0
0
0
0
8.58972e-09
2.16209e-08
3.79968e-08
5.43797e-08
6.75166e-08
7.62953e-08
8.21721e-08
8.84676e-08
9.79455e-08
1.11837e-07
1.29413e-07
1.51807e-07
1.75379e-07
1.94449e-07
1.96874e-07
1.67289e-07
9.80571e-08
3.00205e-10
0
0
0
0
2.25246e-08
1.48519e-07
2.42037e-07
3.0048e-07
3.39264e-07
3.74394e-07
3.96682e-07
3.49377e-07
1.40979e-07
0
0
0
0
0
0
0
0
0
0
0
5.82975e-07
1.43022e-06
1.04543e-06
4.783e-07
1.16616e-07
0
0
0
0
3.64417e-09
0
0
0
1.64575e-07
1.33659e-07
0
0
0
0
0
0
4.6605e-10
9.12658e-08
3.11994e-07
3.67868e-07
1.80142e-07
9.12725e-08
4.86039e-08
2.85583e-08
1.88425e-08
1.45517e-08
1.16826e-08
9.12714e-09
8.42868e-09
1.03003e-08
1.26701e-08
1.28918e-08
1.1392e-08
1.03616e-08
1.04212e-08
1.07623e-08
1.00405e-08
8.26413e-09
6.93825e-09
6.31394e-09
4.1246e-09
0
0
0
0
1.26547e-09
1.52823e-09
0
0
0
0
0
0
0
0
0
0
0
0
0
0
0
0
0
0
0
0
0
0
0
0
0
0
0
0
0
0
0
0
0
0
0
0
0
0
0
0
0
0
0
0
0
0
0
0
0
0
0
0
0
0
0
0
0
0
0
0
0
0
0
0
0
0
0
0
0
0
0
0
0
0
0
0
0
0
1.40836e-08
8.59822e-08
7.97843e-08
4.33539e-08
0
0
0
1.68815e-08
3.55592e-08
5.86573e-08
8.29049e-08
1.07711e-07
1.2881e-07
1.43433e-07
1.5225e-07
1.58428e-07
1.67714e-07
1.82066e-07
2.04329e-07
2.30403e-07
2.58693e-07
2.88662e-07
3.08773e-07
3.00402e-07
2.42688e-07
1.27258e-07
0
0
0
0
0
3.06257e-08
2.66815e-07
4.73353e-07
6.12192e-07
7.01811e-07
7.38558e-07
7.20409e-07
5.68175e-07
1.78998e-07
0
0
0
0
0
0
0
0
0
1.20589e-05
1.08178e-05
6.48979e-06
3.16218e-06
1.22281e-06
2.99054e-07
0
0
0
0
0
2.29916e-08
0
0
1.06297e-07
1.91801e-07
0
0
0
0
0
0
0
1.33669e-07
3.08472e-07
1.34019e-07
6.15951e-08
3.23239e-08
1.48052e-08
6.30265e-09
4.35604e-09
7.23484e-09
1.09111e-08
1.14423e-08
9.78142e-09
9.14588e-09
1.01446e-08
1.1084e-08
1.07577e-08
1.01768e-08
1.04311e-08
1.11485e-08
1.07783e-08
8.46664e-09
6.04565e-09
5.87476e-09
7.01734e-09
4.68587e-09
0
0
0
0
4.35522e-09
6.46561e-09
0
0
0
0
0
0
0
0
0
0
0
0
0
0
0
0
0
0
0
0
0
0
0
0
0
0
0
0
0
0
0
0
0
0
0
0
0
0
0
0
0
0
0
0
0
0
0
0
0
0
0
0
0
0
0
0
0
0
0
0
0
0
0
0
0
0
0
0
0
0
0
0
0
0
0
0
1.27648e-06
7.86873e-07
6.54739e-07
4.24298e-07
2.09336e-07
7.10917e-08
0
0
2.61026e-08
5.02275e-08
7.07962e-08
9.89612e-08
1.30838e-07
1.56722e-07
1.75869e-07
1.88097e-07
1.95796e-07
2.0366e-07
2.15501e-07
2.34124e-07
2.58117e-07
2.88387e-07
3.19987e-07
3.47447e-07
3.62347e-07
3.45625e-07
2.77976e-07
1.52748e-07
0
0
0
0
0
0
2.78715e-07
5.75743e-07
8.19319e-07
9.80229e-07
1.01023e-06
9.54257e-07
7.05948e-07
1.89745e-07
0
0
0
0
0
0
0
1.38089e-05
1.83108e-05
1.03857e-05
5.08902e-06
2.16454e-06
7.18675e-07
9.37624e-08
0
0
0
0
1.1424e-08
7.15098e-08
4.49951e-09
0
0
1.27952e-07
6.9107e-08
0
0
0
0
0
0
1.44732e-07
8.8977e-08
6.27382e-08
5.48185e-08
3.97285e-08
2.4046e-08
1.45445e-08
1.07899e-08
1.05117e-08
1.28331e-08
1.5089e-08
1.45417e-08
1.26394e-08
1.16828e-08
1.12518e-08
1.03163e-08
9.49397e-09
9.6748e-09
1.05679e-08
1.0814e-08
8.62685e-09
4.9502e-09
2.76388e-09
3.49212e-09
5.02637e-09
1.30701e-09
0
0
0
0
5.65993e-09
6.14616e-09
0
0
0
0
0
0
0
0
0
0
0
0
0
0
0
0
0
0
0
0
0
0
0
0
0
0
0
0
0
0
0
0
0
0
0
0
0
0
0
0
0
0
0
0
0
0
0
0
0
0
0
0
0
0
0
0
0
0
0
0
0
0
0
0
0
0
0
0
0
0
0
0
0
0
0
3.45937e-06
2.7638e-06
1.49122e-06
8.26825e-07
4.8879e-07
1.93984e-07
5.09199e-08
0
0
4.41336e-08
6.22639e-08
7.98029e-08
1.06351e-07
1.44512e-07
1.7003e-07
1.86268e-07
1.96582e-07
2.05205e-07
2.1309e-07
2.26193e-07
2.43488e-07
2.66043e-07
2.92168e-07
3.20918e-07
3.4689e-07
3.59927e-07
3.46357e-07
2.88263e-07
1.86565e-07
4.49016e-08
0
0
0
0
0
1.4642e-07
4.39373e-07
7.15451e-07
9.66363e-07
1.0547e-06
1.06752e-06
8.3038e-07
4.16265e-07
0
0
0
0
0
0
3.16569e-06
4.792e-06
3.54383e-06
1.85376e-06
6.84494e-07
1.19219e-07
0
0
0
0
0
7.12374e-08
1.12695e-07
4.85376e-09
0
0
0
9.74561e-08
1.99239e-07
7.59868e-07
1.0294e-06
7.29533e-07
8.5077e-07
3.22015e-07
1.62075e-07
1.14133e-07
9.47136e-08
8.36666e-08
7.26032e-08
6.18343e-08
5.27751e-08
4.41092e-08
3.47539e-08
2.67411e-08
2.23266e-08
2.01073e-08
1.7753e-08
1.58032e-08
1.46898e-08
1.3448e-08
1.17897e-08
1.06211e-08
1.00152e-08
9.97303e-09
8.78292e-09
5.35679e-09
2.18242e-09
7.5206e-10
6.58394e-10
9.69723e-10
0
0
0
0
0
6.3113e-09
4.33739e-09
0
0
0
0
0
0
0
0
0
0
0
0
0
0
0
0
0
0
0
0
0
0
0
0
0
0
0
0
0
0
0
0
0
0
0
0
0
0
0
0
0
0
0
0
0
0
0
0
0
0
0
0
0
0
0
0
0
0
0
0
0
0
0
0
0
0
0
0
0
0
0
0
0
0
1.19404e-06
2.35414e-06
2.08209e-06
1.15342e-06
8.56843e-07
7.17113e-07
4.36383e-07
2.23529e-07
1.28238e-07
2.91256e-08
3.69227e-08
6.32372e-08
7.73291e-08
9.66469e-08
1.2795e-07
1.52294e-07
1.6645e-07
1.76657e-07
1.83506e-07
1.91642e-07
2.01161e-07
2.15944e-07
2.32109e-07
2.52531e-07
2.7429e-07
2.93249e-07
3.01796e-07
2.9501e-07
2.56943e-07
1.88824e-07
9.27346e-08
0
0
0
0
0
0
1.58116e-07
3.84776e-07
5.75445e-07
7.63031e-07
7.91013e-07
7.57615e-07
5.48831e-07
2.6884e-07
0
0
0
1.70569e-07
6.76477e-07
9.13231e-07
7.07904e-07
3.02558e-07
2.79219e-08
0
0
0
2.2255e-08
2.72355e-08
5.67102e-08
1.45697e-07
1.336e-07
0
0
0
0
9.05025e-08
6.08154e-07
9.82317e-07
7.70324e-07
6.60764e-07
8.17766e-07
3.78791e-07
2.12583e-07
1.58901e-07
1.37922e-07
1.28059e-07
1.18122e-07
1.0445e-07
8.85401e-08
7.15304e-08
5.4838e-08
4.07497e-08
3.09127e-08
2.5391e-08
2.23814e-08
2.03116e-08
1.92957e-08
1.88198e-08
1.79991e-08
1.62653e-08
1.35749e-08
1.09667e-08
9.4576e-09
6.82554e-09
3.59806e-09
2.11686e-09
1.8277e-10
0
0
0
0
0
0
4.46839e-09
7.31937e-09
2.91966e-09
0
0
0
0
0
0
0
0
0
0
0
0
0
0
0
0
0
0
0
0
0
0
0
0
0
0
0
0
0
0
0
0
0
0
0
0
0
0
0
0
0
0
0
0
0
0
0
0
0
0
0
0
0
0
0
0
0
0
0
0
0
0
0
0
0
0
0
0
0
0
0
0
0
2.3998e-07
8.33991e-07
1.7359e-06
4.86132e-07
3.04382e-07
3.35166e-07
9.82836e-08
0
0
0
0
3.53926e-08
5.18489e-08
5.97735e-08
7.17352e-08
9.27174e-08
1.12329e-07
1.23638e-07
1.31461e-07
1.36819e-07
1.42558e-07
1.49513e-07
1.56892e-07
1.69674e-07
1.82573e-07
1.96474e-07
2.07297e-07
2.12986e-07
2.06003e-07
1.85212e-07
1.46282e-07
8.88263e-08
1.73436e-08
0
0
0
0
0
0
5.37339e-08
1.71266e-07
2.80191e-07
3.65726e-07
3.81451e-07
3.34187e-07
2.45774e-07
1.46839e-07
6.70818e-08
4.13442e-08
4.70227e-08
3.3354e-08
0
0
0
0
1.1014e-08
6.47641e-08
1.03729e-07
1.02445e-07
1.3763e-07
2.08164e-07
1.62843e-07
0
0
0
0
1.91465e-08
1.98058e-07
3.13049e-07
3.44669e-07
4.15035e-07
5.80807e-07
3.82055e-07
2.33624e-07
1.71774e-07
1.39314e-07
1.23138e-07
1.09701e-07
9.24887e-08
7.28381e-08
5.63665e-08
4.53075e-08
3.86216e-08
3.34653e-08
2.84086e-08
2.47134e-08
2.26411e-08
2.19022e-08
2.24562e-08
2.35561e-08
2.39705e-08
2.14385e-08
1.64445e-08
1.24864e-08
9.6755e-09
6.28988e-09
4.51311e-09
3.46909e-09
0
0
0
0
0
0
3.5048e-09
8.74932e-09
8.11331e-09
1.75313e-09
0
0
0
0
0
0
0
0
0
0
0
0
0
0
0
0
0
0
0
0
0
0
0
0
0
0
0
0
0
0
0
0
0
0
0
0
0
0
0
0
0
0
0
0
0
0
0
0
0
0
0
0
0
0
0
0
0
0
0
0
0
0
0
0
0
0
0
0
0
0
0
0
0
1.38022e-07
3.7415e-07
0
0
0
0
0
0
0
0
1.50179e-08
2.76775e-08
3.5095e-08
3.9714e-08
4.66069e-08
5.8833e-08
6.99607e-08
7.97349e-08
8.42041e-08
8.72126e-08
8.95507e-08
8.73285e-08
8.76911e-08
8.83902e-08
9.30293e-08
9.79695e-08
1.0236e-07
1.02891e-07
9.80106e-08
8.70281e-08
6.79046e-08
3.9098e-08
3.22686e-10
0
0
0
0
0
0
0
0
0
2.76681e-08
3.6752e-08
1.41532e-08
0
0
0
0
0
0
0
6.75152e-10
7.08106e-08
1.22872e-07
1.72409e-07
1.92147e-07
1.76634e-07
2.14087e-07
2.69051e-07
2.26943e-07
9.4457e-09
0
0
0
0
3.29658e-09
4.45691e-08
9.33148e-08
1.66001e-07
3.88202e-07
3.73181e-07
2.39094e-07
1.67335e-07
1.23775e-07
1.00867e-07
8.61191e-08
7.12562e-08
5.56984e-08
4.38874e-08
3.8179e-08
3.69015e-08
3.6796e-08
3.43136e-08
2.92085e-08
2.53881e-08
2.37854e-08
2.43239e-08
2.66881e-08
2.97936e-08
3.02069e-08
2.5099e-08
1.85427e-08
1.41214e-08
1.03843e-08
7.44763e-09
6.65657e-09
2.97665e-09
0
0
0
0
0
3.21034e-09
9.32901e-09
1.16339e-08
8.02637e-09
0
0
0
0
0
0
0
0
0
0
0
0
0
0
0
0
0
0
0
0
0
0
0
0
0
0
0
0
0
0
0
0
0
0
0
0
0
0
0
0
0
0
0
0
0
0
0
0
0
0
0
0
0
0
0
0
0
0
0
0
0
0
0
0
0
0
0
0
0
0
0
0
0
0
0
0
0
0
0
0
0
0
0
3.44569e-10
7.70031e-09
1.18381e-08
1.40889e-08
1.53097e-08
1.69737e-08
1.93694e-08
2.31651e-08
2.49819e-08
2.56809e-08
2.564e-08
2.29268e-08
1.97035e-08
1.59484e-08
1.26462e-08
1.0138e-08
7.65025e-09
4.18071e-09
0
0
0
0
0
0
0
0
0
0
0
0
0
0
0
0
0
0
0
0
0
0
0
4.46945e-08
1.37116e-07
2.08742e-07
2.5067e-07
2.70262e-07
2.55579e-07
2.36445e-07
2.89178e-07
3.34022e-07
3.05317e-07
1.15159e-07
0
9.74379e-08
4.9628e-08
4.71994e-09
0
0
1.22835e-08
8.45425e-08
4.84285e-07
3.76862e-07
2.51411e-07
1.84401e-07
1.42203e-07
1.20384e-07
1.05725e-07
9.03233e-08
7.43856e-08
6.11952e-08
5.27835e-08
4.86947e-08
4.72038e-08
4.5126e-08
3.95609e-08
3.29431e-08
2.87103e-08
2.7568e-08
2.94852e-08
3.38639e-08
3.74459e-08
3.44031e-08
2.65959e-08
2.00062e-08
1.54183e-08
1.14539e-08
9.4797e-09
7.07789e-09
1.47743e-10
0
0
0
0
3.61605e-09
9.44553e-09
1.32132e-08
1.25893e-08
5.69852e-09
0
0
0
0
0
0
0
0
0
0
0
0
0
0
0
0
0
0
0
0
0
0
0
0
0
0
0
0
0
0
0
0
0
0
0
0
0
0
0
0
0
0
0
0
0
0
0
0
0
0
0
0
0
0
0
0
0
0
0
0
0
0
0
0
0
0
0
0
0
0
0
0
0
0
0
0
0
0
0
0
0
0
0
0
0
0
0
0
0
0
0
0
0
0
0
0
0
0
0
0
0
0
0
0
0
0
0
0
0
0
0
0
0
0
0
0
0
0
0
0
0
0
6.6939e-08
1.47685e-07
2.2611e-07
2.83739e-07
3.15673e-07
3.1535e-07
2.82595e-07
2.86731e-07
3.56897e-07
3.95268e-07
4.23983e-07
5.50439e-07
5.56967e-07
3.65624e-07
1.56489e-07
3.14672e-08
0
0
7.20429e-09
2.40931e-07
4.72403e-07
3.26715e-07
2.40022e-07
1.77169e-07
1.40079e-07
1.23024e-07
1.12037e-07
1.01835e-07
9.13639e-08
8.02757e-08
7.06826e-08
6.40436e-08
6.04779e-08
5.78122e-08
5.20777e-08
4.36335e-08
3.6515e-08
3.29437e-08
3.33646e-08
3.76661e-08
4.30899e-08
4.25484e-08
3.50914e-08
2.6895e-08
2.10422e-08
1.64648e-08
1.30033e-08
1.04801e-08
5.27625e-09
0
0
0
0
4.98851e-09
9.52849e-09
1.29722e-08
1.45852e-08
1.05994e-08
0
0
0
0
0
0
0
0
0
0
0
0
0
0
0
0
0
0
0
0
0
0
0
0
0
0
0
0
0
0
0
0
0
0
0
0
0
0
0
0
0
0
0
0
0
0
0
0
0
0
0
0
0
0
0
0
0
0
0
0
0
0
0
0
0
0
0
0
0
0
0
0
0
1.47505e-07
2.94917e-07
0
0
0
0
0
0
0
0
0
0
0
0
0
0
0
0
0
0
0
0
0
0
0
0
0
0
0
0
0
0
0
0
0
0
0
0
0
0
0
0
0
0
0
0
0
6.4991e-09
5.61222e-08
1.13909e-07
1.74615e-07
2.30329e-07
2.78426e-07
3.10041e-07
3.04776e-07
2.6898e-07
3.22341e-07
3.99636e-07
4.7148e-07
7.15262e-07
7.11879e-07
5.40955e-07
4.48423e-07
2.6512e-07
8.41503e-08
1.68872e-08
1.05784e-08
1.17212e-07
3.94452e-07
3.09837e-07
2.46446e-07
1.90531e-07
1.50471e-07
1.29524e-07
1.20897e-07
1.14679e-07
1.04591e-07
9.35035e-08
8.47711e-08
7.72843e-08
7.17878e-08
6.93267e-08
6.83402e-08
6.40712e-08
5.48098e-08
4.50587e-08
3.88592e-08
3.74456e-08
4.10221e-08
4.74263e-08
4.92661e-08
4.27559e-08
3.37307e-08
2.69131e-08
2.20544e-08
1.76289e-08
1.39223e-08
9.76092e-09
5.85837e-09
3.79782e-09
2.8199e-09
3.58936e-09
7.85714e-09
1.01385e-08
1.13661e-08
1.37449e-08
1.29471e-08
3.12373e-09
0
0
0
0
0
0
0
0
0
0
0
0
0
0
0
0
0
0
0
0
0
0
0
0
0
0
0
0
0
0
0
0
0
0
0
0
0
0
0
0
0
0
0
0
0
0
0
0
0
0
0
0
0
0
0
0
0
0
0
0
0
0
0
0
0
0
0
0
0
0
0
1.79122e-07
2.99759e-07
1.99053e-07
0
0
0
0
0
0
0
0
0
0
0
0
0
0
0
0
0
0
0
0
0
0
0
0
0
0
0
0
0
0
0
0
0
0
0
0
0
0
0
0
0
0
0
0
6.03385e-09
3.75342e-08
7.33451e-08
1.12493e-07
1.52177e-07
1.95684e-07
2.44285e-07
2.6934e-07
2.40588e-07
2.30291e-07
3.4346e-07
4.43027e-07
6.37046e-07
6.70183e-07
4.84299e-07
4.6592e-07
4.47831e-07
3.08965e-07
1.37154e-07
8.54168e-08
1.87269e-07
3.8116e-07
2.94361e-07
2.47681e-07
2.05204e-07
1.69066e-07
1.41092e-07
1.33509e-07
1.31756e-07
1.27815e-07
1.16713e-07
1.00537e-07
8.74218e-08
7.8647e-08
7.37981e-08
7.29939e-08
7.4977e-08
7.43534e-08
6.65133e-08
5.47766e-08
4.56373e-08
4.1772e-08
4.39087e-08
5.07558e-08
5.48767e-08
4.95098e-08
4.00471e-08
3.25907e-08
2.76341e-08
2.29846e-08
1.79743e-08
1.377e-08
1.21676e-08
1.2399e-08
1.18549e-08
1.11928e-08
1.28063e-08
1.20267e-08
9.22518e-09
1.05505e-08
1.21282e-08
6.09268e-09
0
0
0
0
0
0
0
0
0
0
0
0
0
0
0
0
0
0
0
0
0
0
0
0
0
0
0
0
0
0
0
0
0
0
0
0
0
0
0
0
0
0
0
0
0
0
0
0
0
0
0
0
0
0
0
0
0
0
0
0
0
0
0
0
0
0
0
0
0
0
0
2.65108e-08
4.22916e-08
3.78327e-09
0
0
0
0
0
0
0
0
0
0
0
0
0
0
0
0
0
0
0
0
0
0
0
0
0
0
0
0
0
0
0
0
0
0
0
0
0
0
0
0
0
0
0
0
1.88583e-08
3.6853e-08
5.17521e-08
6.77198e-08
9.53794e-08
1.51504e-07
2.18613e-07
1.99726e-07
1.39092e-07
2.49275e-07
3.66082e-07
4.76347e-07
4.74329e-07
3.63724e-07
3.82559e-07
4.17868e-07
4.04539e-07
2.67983e-07
2.00717e-07
2.683e-07
2.94775e-07
2.93943e-07
2.6763e-07
2.31638e-07
1.83135e-07
1.44874e-07
1.39252e-07
1.43072e-07
1.43833e-07
1.40307e-07
1.2968e-07
1.11559e-07
9.49677e-08
8.25827e-08
7.5578e-08
7.43706e-08
7.76421e-08
7.996e-08
7.53369e-08
6.43039e-08
5.30272e-08
4.65708e-08
4.64718e-08
5.2557e-08
5.84742e-08
5.47321e-08
4.51441e-08
3.73339e-08
3.23521e-08
2.79882e-08
2.22682e-08
1.73639e-08
1.71721e-08
2.02207e-08
2.13785e-08
2.01841e-08
1.94067e-08
1.55741e-08
7.55382e-09
5.98963e-09
8.45402e-09
6.14714e-09
0
0
0
0
0
0
0
0
0
0
0
0
0
0
0
0
0
0
0
0
0
0
0
0
0
0
0
0
0
0
0
0
0
0
0
0
0
0
0
0
0
0
0
0
0
0
0
0
0
0
0
0
0
0
0
0
0
0
0
0
0
0
0
0
0
0
0
0
0
0
0
2.83046e-09
2.96525e-08
2.043e-08
0
0
0
0
0
0
0
0
0
0
0
0
0
0
0
0
0
0
0
0
0
0
0
0
0
0
0
0
0
0
0
0
0
0
0
0
0
0
0
0
1.34855e-08
3.51189e-08
4.17474e-08
4.03846e-08
2.93796e-08
7.69769e-09
0
0
7.97848e-08
1.03007e-07
7.05875e-08
4.41574e-08
5.25601e-08
1.12658e-07
1.81533e-07
2.04196e-07
2.03404e-07
2.54112e-07
3.1064e-07
3.5743e-07
3.17091e-07
2.68996e-07
2.54881e-07
2.12848e-07
1.83818e-07
1.90774e-07
1.82661e-07
1.52542e-07
1.33683e-07
1.3727e-07
1.47167e-07
1.50557e-07
1.48356e-07
1.42056e-07
1.28521e-07
1.11016e-07
9.47453e-08
8.18683e-08
7.43101e-08
7.28565e-08
7.62836e-08
8.02127e-08
7.81392e-08
6.93489e-08
5.79829e-08
4.98328e-08
4.76704e-08
5.20874e-08
5.84726e-08
5.62951e-08
4.70442e-08
3.93399e-08
3.46745e-08
3.09757e-08
2.53536e-08
1.98365e-08
2.00699e-08
2.49743e-08
2.82126e-08
2.75809e-08
2.52453e-08
1.94875e-08
6.87901e-09
1.26069e-09
2.93899e-09
2.42226e-09
0
0
0
0
0
0
0
0
0
0
0
0
0
0
0
0
0
0
0
0
0
0
0
0
0
0
0
0
0
0
0
0
0
0
0
0
0
0
0
0
0
0
0
0
0
0
0
0
0
0
0
0
0
0
0
0
0
0
0
0
0
0
0
0
0
0
0
0
0
0
0
0
1.28943e-08
2.01358e-08
1.52898e-08
2.9917e-09
0
0
0
0
0
0
0
0
0
0
0
0
0
0
0
0
0
0
0
0
0
0
0
0
0
0
0
0
0
0
0
0
0
0
0
0
0
1.49444e-08
3.22219e-08
5.33887e-08
4.53004e-08
0
0
0
2.59153e-08
7.58589e-08
5.97859e-08
4.04807e-08
2.9214e-08
2.25571e-08
2.65724e-08
4.44904e-08
6.25984e-08
8.05641e-08
1.3137e-07
1.91366e-07
2.47876e-07
2.623e-07
2.87141e-07
2.52107e-07
2.16923e-07
1.71433e-07
1.38935e-07
1.27748e-07
1.24425e-07
1.28439e-07
1.38844e-07
1.5112e-07
1.55384e-07
1.53206e-07
1.47993e-07
1.38094e-07
1.21049e-07
1.03827e-07
8.91838e-08
7.84563e-08
7.25583e-08
7.17104e-08
7.51338e-08
7.98367e-08
7.98093e-08