/*--------------------------------*- C++ -*----------------------------------*\
  =========                 |
  \\      /  F ield         | OpenFOAM: The Open Source CFD Toolbox
   \\    /   O peration     | Website:  https://openfoam.org
    \\  /    A nd           | Version:  7
     \\/     M anipulation  |
\*---------------------------------------------------------------------------*/
FoamFile
{
    version     2.0;
    format      ascii;
    class       surfaceScalarField;
    location    "0.035";
    object      phi_0;
}
// * * * * * * * * * * * * * * * * * * * * * * * * * * * * * * * * * * * * * //

dimensions      [0 3 -1 0 0 0 0];

internalField   nonuniform List<scalar> 
24170
(
1.38289e-06
2.0327e-07
1.25141e-06
1.31486e-07
1.11454e-06
1.36864e-07
9.96143e-07
1.18402e-07
8.91955e-07
1.04187e-07
7.89815e-07
1.0214e-07
6.87717e-07
1.02098e-07
5.92979e-07
9.47384e-08
5.10929e-07
8.20499e-08
4.41559e-07
6.93698e-08
3.82245e-07
5.93137e-08
3.30776e-07
5.14688e-08
2.86651e-07
4.41258e-08
2.50303e-07
3.63477e-08
2.20005e-07
3.02983e-08
1.94313e-07
2.56916e-08
1.65904e-07
2.84088e-08
2.76285e-08
1.38276e-07
1.66339e-06
2.5549e-07
1.6492e-06
1.45675e-07
1.61914e-06
1.66921e-07
1.58049e-06
1.57055e-07
1.54022e-06
1.4446e-07
1.49728e-06
1.45078e-07
1.45117e-06
1.48205e-07
1.40413e-06
1.41783e-07
1.35638e-06
1.29805e-07
1.30532e-06
1.20423e-07
1.24999e-06
1.14649e-07
1.19331e-06
1.08148e-07
1.14017e-06
9.72659e-08
1.09277e-06
8.37444e-08
1.05091e-06
7.21638e-08
1.01063e-06
6.59655e-08
9.68829e-07
7.02122e-08
7.77255e-08
9.18732e-07
1.7864e-06
2.80107e-07
1.77847e-06
1.53598e-07
1.76768e-06
1.7771e-07
1.74396e-06
1.80782e-07
1.71827e-06
1.70144e-07
1.69976e-06
1.63586e-07
1.68976e-06
1.58206e-07
1.68486e-06
1.46683e-07
1.6805e-06
1.34162e-07
1.67236e-06
1.28563e-07
1.65767e-06
1.29348e-07
1.63644e-06
1.29374e-07
1.61084e-06
1.22864e-07
1.58376e-06
1.10821e-07
1.55691e-06
9.90171e-08
1.53098e-06
9.18964e-08
1.50642e-06
9.47746e-08
1.03208e-07
1.48094e-06
1.89376e-06
2.55361e-07
1.87981e-06
1.67545e-07
1.87304e-06
1.84482e-07
1.86516e-06
1.88662e-07
1.85667e-06
1.78633e-07
1.8512e-06
1.69056e-07
1.84865e-06
1.60759e-07
1.84622e-06
1.49115e-07
1.84236e-06
1.38014e-07
1.8376e-06
1.3333e-07
1.83274e-06
1.34209e-07
1.82774e-06
1.34366e-07
1.82144e-06
1.29172e-07
1.81292e-06
1.19339e-07
1.80213e-06
1.098e-07
1.78971e-06
1.04325e-07
1.77833e-06
1.06147e-07
1.12669e-07
1.76887e-06
2.07321e-06
2.95283e-07
2.04553e-06
1.95223e-07
2.03356e-06
1.96452e-07
2.02829e-06
1.9394e-07
2.0231e-06
1.8382e-07
2.01873e-06
1.73424e-07
2.01467e-06
1.64819e-07
2.00839e-06
1.55392e-07
1.99948e-06
1.46929e-07
1.99033e-06
1.42474e-07
1.98365e-06
1.40896e-07
1.97987e-06
1.38147e-07
1.97706e-06
1.31982e-07
1.97272e-06
1.23674e-07
1.96584e-06
1.16682e-07
1.95674e-06
1.13421e-07
1.9482e-06
1.14694e-07
1.19087e-07
1.94178e-06
2.27596e-06
3.6855e-07
2.21865e-06
2.52536e-07
2.18795e-06
2.27151e-07
2.17153e-06
2.10362e-07
2.16102e-06
1.94333e-07
2.15194e-06
1.82504e-07
2.14376e-06
1.72996e-07
2.13684e-06
1.6231e-07
2.13135e-06
1.52419e-07
2.12733e-06
1.465e-07
2.12466e-06
1.43562e-07
2.12279e-06
1.40022e-07
2.12074e-06
1.34029e-07
2.11781e-06
1.26599e-07
2.11416e-06
1.20331e-07
2.11057e-06
1.17013e-07
2.10839e-06
1.16877e-07
1.19297e-07
2.10818e-06
2.39244e-06
4.13287e-07
2.34956e-06
2.95414e-07
2.32048e-06
2.56228e-07
2.30644e-06
2.24406e-07
2.303e-06
1.97768e-07
2.30336e-06
1.82145e-07
2.30287e-06
1.73491e-07
2.30055e-06
1.64624e-07
2.29792e-06
1.55054e-07
2.29655e-06
1.47865e-07
2.29654e-06
1.43573e-07
2.29662e-06
1.39947e-07
2.2954e-06
1.35246e-07
2.29257e-06
1.29433e-07
2.28896e-06
1.23939e-07
2.28594e-06
1.20031e-07
2.28479e-06
1.18027e-07
1.18183e-07
2.2859e-06
2.55948e-06
4.2663e-07
2.54749e-06
3.07406e-07
2.54232e-06
2.61399e-07
2.52375e-06
2.42974e-07
2.49838e-06
2.23133e-07
2.48213e-06
1.98402e-07
2.48157e-06
1.7405e-07
2.49163e-06
1.54561e-07
2.50415e-06
1.42533e-07
2.51342e-06
1.38598e-07
2.51676e-06
1.40234e-07
2.51376e-06
1.42941e-07
2.50568e-06
1.43327e-07
2.49499e-06
1.40128e-07
2.48461e-06
1.34319e-07
2.47692e-06
1.2772e-07
2.47329e-06
1.21652e-07
1.17785e-07
2.47369e-06
2.75866e-06
4.82399e-07
2.74484e-06
3.21226e-07
2.73067e-06
2.75565e-07
2.71547e-06
2.58173e-07
2.70824e-06
2.30361e-07
2.70616e-06
2.0049e-07
2.70405e-06
1.76158e-07
2.70004e-06
1.58573e-07
2.69563e-06
1.46939e-07
2.69279e-06
1.41438e-07
2.69176e-06
1.41266e-07
2.69125e-06
1.43447e-07
2.6901e-06
1.44479e-07
2.68801e-06
1.42223e-07
2.68547e-06
1.3686e-07
2.68317e-06
1.30019e-07
2.68138e-06
1.23439e-07
1.18711e-07
2.68045e-06
3.04054e-06
4.80582e-07
2.9806e-06
3.8117e-07
2.93174e-06
3.24418e-07
2.91085e-06
2.79069e-07
2.90454e-06
2.36669e-07
2.89993e-06
2.051e-07
2.89423e-06
1.81855e-07
2.88858e-06
1.64226e-07
2.8836e-06
1.51918e-07
2.87969e-06
1.45351e-07
2.87758e-06
1.43375e-07
2.878e-06
1.43027e-07
2.88111e-06
1.41362e-07
2.886e-06
1.37341e-07
2.8912e-06
1.31653e-07
2.89516e-06
1.26064e-07
2.89682e-06
1.21775e-07
1.19387e-07
2.89614e-06
3.18712e-06
4.86945e-07
3.16276e-06
4.05526e-07
3.14966e-06
3.37522e-07
3.1383e-06
2.9043e-07
3.12646e-06
2.48511e-07
3.12004e-06
2.11521e-07
3.11981e-06
1.8208e-07
3.12058e-06
1.63456e-07
3.11734e-06
1.55155e-07
3.10963e-06
1.53066e-07
3.10065e-06
1.52355e-07
3.09397e-06
1.49704e-07
3.09118e-06
1.44159e-07
3.09138e-06
1.37132e-07
3.09272e-06
1.30313e-07
3.09338e-06
1.25412e-07
3.09281e-06
1.22344e-07
1.2099e-07
3.0912e-06
2.89615e-06
4.58667e-07
2.84766e-06
4.54016e-07
2.83089e-06
3.5429e-07
2.83664e-06
2.84684e-07
2.84186e-06
2.4329e-07
2.83847e-06
2.1491e-07
2.82853e-06
1.92014e-07
2.81748e-06
1.74507e-07
2.80868e-06
1.63959e-07
2.80275e-06
1.58993e-07
2.79904e-06
1.56066e-07
2.79666e-06
1.52089e-07
2.79473e-06
1.46082e-07
2.79284e-06
1.39028e-07
2.79088e-06
1.32267e-07
2.7894e-06
1.26892e-07
2.789e-06
1.22744e-07
1.199e-07
2.79009e-06
3.49025e-06
4.91753e-07
3.51433e-06
4.29936e-07
3.50947e-06
3.59155e-07
3.48782e-06
3.06339e-07
3.45886e-06
2.72241e-07
3.43152e-06
2.42259e-07
3.41439e-06
2.09143e-07
3.41031e-06
1.7858e-07
3.41592e-06
1.58352e-07
3.42526e-06
1.49653e-07
3.43368e-06
1.47652e-07
3.43923e-06
1.4653e-07
3.44227e-06
1.4305e-07
3.4442e-06
1.37094e-07
3.44634e-06
1.3013e-07
3.44962e-06
1.23606e-07
3.45391e-06
1.18458e-07
1.1486e-07
3.45895e-06
4.27429e-06
5.78177e-07
4.23169e-06
4.72541e-07
4.22174e-06
3.69098e-07
4.22936e-06
2.98722e-07
4.24393e-06
2.57674e-07
4.25426e-06
2.31926e-07
4.25422e-06
2.0918e-07
4.24463e-06
1.88176e-07
4.23061e-06
1.72365e-07
4.21783e-06
1.62433e-07
4.21017e-06
1.55318e-07
4.2089e-06
1.47795e-07
4.21322e-06
1.38728e-07
4.22074e-06
1.29576e-07
4.22872e-06
1.22152e-07
4.23485e-06
1.17477e-07
4.23786e-06
1.1545e-07
1.14954e-07
4.23776e-06
5.16799e-06
5.88816e-07
5.16316e-06
4.77371e-07
5.17383e-06
3.58425e-07
5.19346e-06
2.79092e-07
5.22013e-06
2.31e-07
5.24134e-06
2.10715e-07
5.24436e-06
2.06165e-07
5.22837e-06
2.04165e-07
5.20268e-06
1.98056e-07
5.17813e-06
1.86986e-07
5.16088e-06
1.72564e-07
5.15155e-06
1.57127e-07
5.14744e-06
1.42835e-07
5.14561e-06
1.31407e-07
5.14434e-06
1.2342e-07
5.14335e-06
1.18471e-07
5.14339e-06
1.15411e-07
1.13293e-07
5.14505e-06
6.33334e-06
6.05035e-07
6.33975e-06
4.70963e-07
6.32248e-06
3.75698e-07
6.28601e-06
3.15555e-07
6.2523e-06
2.64713e-07
6.23927e-06
2.23743e-07
6.24681e-06
1.9863e-07
6.26583e-06
1.85142e-07
6.28822e-06
1.75661e-07
6.30921e-06
1.65996e-07
6.32639e-06
1.55391e-07
6.33862e-06
1.44898e-07
6.34576e-06
1.35694e-07
6.34887e-06
1.28295e-07
6.3498e-06
1.2249e-07
6.35054e-06
1.17734e-07
6.35239e-06
1.13556e-07
1.09669e-07
6.35601e-06
7.62846e-06
6.66399e-07
7.61602e-06
4.83399e-07
7.62665e-06
3.6507e-07
7.62589e-06
3.16314e-07
7.62834e-06
2.62264e-07
7.64302e-06
2.09063e-07
7.66615e-06
1.75502e-07
7.69049e-06
1.60796e-07
7.71334e-06
1.52814e-07
7.73591e-06
1.43426e-07
7.75919e-06
1.32116e-07
7.78144e-06
1.22646e-07
7.79925e-06
1.1788e-07
7.80958e-06
1.17967e-07
7.81158e-06
1.20492e-07
7.80644e-06
1.22866e-07
7.79689e-06
1.23109e-07
1.20644e-07
7.78592e-06
9.36214e-06
4.80487e-07
9.40944e-06
4.36099e-07
9.39906e-06
3.75449e-07
9.38588e-06
3.29494e-07
9.36648e-06
2.81671e-07
9.34464e-06
2.30898e-07
9.33563e-06
1.84515e-07
9.34674e-06
1.49681e-07
9.37281e-06
1.26751e-07
9.40281e-06
1.13422e-07
9.42682e-06
1.08111e-07
9.44024e-06
1.09222e-07
9.4442e-06
1.13915e-07
9.4434e-06
1.18772e-07
9.44356e-06
1.20331e-07
9.44877e-06
1.17653e-07
9.46161e-06
1.10274e-07
1.0059e-07
9.48166e-06
1.11064e-05
3.64506e-07
1.12562e-05
2.86297e-07
1.13597e-05
2.71979e-07
1.14331e-05
2.56099e-07
1.14681e-05
2.46662e-07
1.14681e-05
2.30923e-07
1.14548e-05
1.97848e-07
1.14506e-05
1.53866e-07
1.14618e-05
1.15557e-07
1.14825e-05
9.26701e-08
1.15063e-05
8.43099e-08
1.15311e-05
8.44474e-08
1.15588e-05
8.62366e-08
1.15924e-05
8.51107e-08
1.16337e-05
7.91067e-08
1.16818e-05
6.94931e-08
1.17342e-05
5.78399e-08
4.70488e-08
1.17878e-05
8.30103e-06
3.51332e-07
8.34149e-06
2.45836e-07
8.36867e-06
2.44798e-07
8.39441e-06
2.30366e-07
8.44191e-06
1.9916e-07
8.50247e-06
1.70356e-07
8.54994e-06
1.50384e-07
8.56866e-06
1.35141e-07
8.56524e-06
1.18982e-07
8.5571e-06
1.00805e-07
8.55833e-06
8.30794e-08
8.57453e-06
6.82486e-08
8.60356e-06
5.72082e-08
8.63911e-06
4.95623e-08
8.67415e-06
4.40626e-08
8.70382e-06
3.98305e-08
8.72548e-06
3.61813e-08
3.30955e-08
8.73943e-06
7.21069e-06
4.67163e-07
7.22925e-06
2.27273e-07
7.28986e-06
1.84189e-07
7.349e-06
1.71226e-07
7.40109e-06
1.47075e-07
7.4443e-06
1.27142e-07
7.47855e-06
1.16136e-07
7.50323e-06
1.10457e-07
7.52037e-06
1.01844e-07
7.53415e-06
8.70281e-08
7.54886e-06
6.83625e-08
7.56678e-06
5.03325e-08
7.58758e-06
3.64099e-08
7.60929e-06
2.78536e-08
7.62978e-06
2.35722e-08
7.64766e-06
2.19455e-08
7.66269e-06
2.11516e-08
2.036e-08
7.67543e-06
6.38892e-06
4.00148e-07
6.35145e-06
2.64749e-07
6.35401e-06
1.81624e-07
6.38301e-06
1.42226e-07
6.41452e-06
1.15565e-07
6.44534e-06
9.63256e-08
6.47626e-06
8.52153e-08
6.5057e-06
8.10165e-08
6.53073e-06
7.68171e-08
6.55052e-06
6.72324e-08
6.56674e-06
5.21411e-08
6.58182e-06
3.52613e-08
6.59744e-06
2.07868e-08
6.61392e-06
1.13716e-08
6.63066e-06
6.8334e-09
6.64692e-06
5.68282e-09
6.66205e-06
6.02253e-09
6.78939e-09
6.67562e-06
5.5764e-06
3.52636e-07
5.60408e-06
2.37065e-07
5.6293e-06
1.56407e-07
5.65124e-06
1.20284e-07
5.67539e-06
9.14093e-08
5.70544e-06
6.62786e-08
5.7361e-06
5.45548e-08
5.76209e-06
5.5025e-08
5.78136e-06
5.75525e-08
5.79469e-06
5.39004e-08
5.80419e-06
4.26367e-08
5.81216e-06
2.72976e-08
5.82031e-06
1.26336e-08
5.82949e-06
2.19172e-09
5.83974e-06
-3.41523e-09
5.84969e-06
-4.26645e-09
5.85784e-06
-2.13324e-09
1.00178e-09
5.86363e-06
4.89075e-06
3.52308e-07
4.91295e-06
2.14863e-07
4.94946e-06
1.19892e-07
4.97947e-06
9.02765e-08
4.99725e-06
7.3634e-08
5.01057e-06
5.29521e-08
5.02515e-06
3.9981e-08
5.04064e-06
3.953e-08
5.05357e-06
4.4628e-08
5.06182e-06
4.56456e-08
5.06641e-06
3.80466e-08
5.07e-06
2.37135e-08
5.0757e-06
6.92747e-09
5.08458e-06
-6.68655e-09
5.09685e-06
-1.56845e-08
5.1124e-06
-1.98157e-08
5.13037e-06
-2.01084e-08
-1.78911e-08
5.14927e-06
4.26958e-06
2.75976e-07
4.3019e-06
1.82546e-07
4.30761e-06
1.14181e-07
4.30032e-06
9.75661e-08
4.29094e-06
8.30136e-08
4.29003e-06
5.38651e-08
4.30333e-06
2.66787e-08
4.32883e-06
1.40286e-08
4.36028e-06
1.31821e-08
4.3917e-06
1.42215e-08
4.41981e-06
9.94181e-09
4.44334e-06
1.76195e-10
4.46314e-06
-1.28705e-08
4.47964e-06
-2.3181e-08
4.49308e-06
-2.91314e-08
4.50396e-06
-3.06919e-08
4.51301e-06
-2.91624e-08
-2.63478e-08
4.52147e-06
3.61201e-06
1.96512e-07
3.68994e-06
1.04616e-07
3.73346e-06
7.06567e-08
3.77258e-06
5.84456e-08
3.81278e-06
4.28155e-08
3.84679e-06
1.98573e-08
3.87277e-06
6.92074e-10
3.89401e-06
-7.20366e-09
3.9171e-06
-9.91387e-09
3.94395e-06
-1.26278e-08
3.9714e-06
-1.75057e-08
3.99467e-06
-2.30962e-08
4.00933e-06
-2.75266e-08
4.0151e-06
-2.89556e-08
4.01402e-06
-2.80487e-08
4.00944e-06
-2.61116e-08
4.00471e-06
-2.44295e-08
-2.38352e-08
4.00219e-06
3.20922e-06
1.66432e-07
3.27841e-06
3.54277e-08
3.30828e-06
4.07871e-08
3.32819e-06
3.85389e-08
3.35453e-06
1.64722e-08
3.38124e-06
-6.84918e-09
3.40181e-06
-1.98783e-08
3.41781e-06
-2.32095e-08
3.43223e-06
-2.43278e-08
3.44707e-06
-2.74751e-08
3.46172e-06
-3.2148e-08
3.4744e-06
-3.57766e-08
3.48363e-06
-3.67623e-08
3.48988e-06
-3.51994e-08
3.49463e-06
-3.28006e-08
3.49962e-06
-3.11047e-08
3.50608e-06
-3.08917e-08
-3.19793e-08
3.51423e-06
2.813e-06
6.67197e-08
2.86749e-06
-1.90653e-08
2.90022e-06
8.05449e-09
2.94437e-06
-5.61025e-09
2.989e-06
-2.81558e-08
3.02244e-06
-4.02869e-08
3.0433e-06
-4.07417e-08
3.05608e-06
-3.59943e-08
3.06443e-06
-3.26747e-08
3.07073e-06
-3.37766e-08
3.07676e-06
-3.81766e-08
3.08381e-06
-4.28215e-08
3.0925e-06
-4.54548e-08
3.10316e-06
-4.58594e-08
3.11539e-06
-4.50332e-08
3.12841e-06
-4.4121e-08
3.14098e-06
-4.34592e-08
-4.27367e-08
3.15173e-06
2.53372e-06
3.58348e-08
2.53231e-06
-1.76538e-08
2.54546e-06
-5.09839e-09
2.57798e-06
-3.81344e-08
2.60924e-06
-5.94106e-08
2.6295e-06
-6.05474e-08
2.64057e-06
-5.18128e-08
2.64714e-06
-4.25699e-08
2.65264e-06
-3.81709e-08
2.65833e-06
-3.94608e-08
2.66377e-06
-4.36254e-08
2.66779e-06
-4.68389e-08
2.66934e-06
-4.70044e-08
2.66805e-06
-4.45642e-08
2.66409e-06
-4.10766e-08
2.65791e-06
-3.79412e-08
2.64992e-06
-3.5471e-08
-3.34043e-08
2.64059e-06
2.12108e-06
2.10342e-06
2.09832e-06
2.06019e-06
2.00078e-06
1.94023e-06
1.88842e-06
1.84585e-06
1.80768e-06
1.76822e-06
1.72459e-06
1.67775e-06
1.63075e-06
1.58618e-06
1.54511e-06
1.50717e-06
1.4717e-06
1.43829e-06
5.73717e-08
-5.73717e-08
1.45593e-07
-8.82214e-08
2.39354e-07
-9.37606e-08
3.33036e-07
-9.36823e-08
4.26054e-07
-9.30176e-08
5.18894e-07
-9.28405e-08
6.11999e-07
-9.31054e-08
7.05501e-07
-9.35017e-08
7.99156e-07
-9.36544e-08
8.92305e-07
-9.31492e-08
9.83879e-07
-9.15747e-08
1.07235e-06
-8.84714e-08
1.15576e-06
-8.34077e-08
1.23173e-06
-7.59735e-08
1.29768e-06
-6.59453e-08
1.35094e-06
-5.32616e-08
1.38916e-06
-3.82219e-08
1.41055e-06
-2.13888e-08
1.41402e-06
-3.47284e-09
1.39626e-06
1.77582e-08
1.35838e-06
3.78861e-08
1.30371e-06
5.46725e-08
1.23583e-06
6.78724e-08
1.15692e-06
7.89137e-08
1.06107e-06
9.58461e-08
9.4016e-07
1.20914e-07
7.77784e-07
1.62376e-07
5.43595e-07
2.34189e-07
2.22205e-07
3.2139e-07
-1.57435e-07
3.7964e-07
-5.54486e-07
3.97052e-07
-9.53247e-07
3.9876e-07
-1.34516e-06
3.91909e-07
-1.72441e-06
3.79249e-07
-2.0872e-06
3.62795e-07
-2.43123e-06
3.4403e-07
-2.75527e-06
3.24037e-07
-3.05874e-06
3.03469e-07
-3.34146e-06
2.82723e-07
-3.60333e-06
2.61868e-07
-3.8441e-06
2.40774e-07
-4.06341e-06
2.19309e-07
-4.26073e-06
1.97315e-07
-4.43536e-06
1.7463e-07
-4.58649e-06
1.51138e-07
-4.71328e-06
1.26788e-07
-4.81491e-06
1.01626e-07
-4.89072e-06
7.58091e-08
-4.94034e-06
4.96181e-08
-4.96384e-06
2.3508e-08
-4.96194e-06
-1.90804e-09
-4.93673e-06
-2.52099e-08
-4.88901e-06
-4.77133e-08
-4.82055e-06
-6.84664e-08
-4.73309e-06
-8.74524e-08
-4.62833e-06
-1.04766e-07
-4.50798e-06
-1.20352e-07
-4.37368e-06
-1.34292e-07
-4.22704e-06
-1.46647e-07
-4.06953e-06
-1.57511e-07
-3.90254e-06
-1.66984e-07
-3.7274e-06
-1.7514e-07
-3.54536e-06
-1.82045e-07
-3.35763e-06
-1.87724e-07
-3.16544e-06
-1.92193e-07
-2.96995e-06
-1.95494e-07
-2.77221e-06
-1.97737e-07
-2.57311e-06
-1.99097e-07
-2.37333e-06
-1.99777e-07
-2.17339e-06
-1.9994e-07
-1.97374e-06
-1.99658e-07
-1.77484e-06
-1.98898e-07
-1.57729e-06
-1.97545e-07
-1.38186e-06
-1.95437e-07
-1.18944e-06
-1.92411e-07
-1.00109e-06
-1.88357e-07
-8.17852e-07
-1.83235e-07
-6.40768e-07
-1.77084e-07
-4.70694e-07
-1.70074e-07
-3.08364e-07
-1.62331e-07
-1.54344e-07
-1.5402e-07
-9.02089e-09
-1.45323e-07
1.27997e-07
-1.37018e-07
2.56299e-07
-1.28302e-07
3.7604e-07
-1.19741e-07
4.8744e-07
-1.114e-07
5.90781e-07
-1.03341e-07
6.86387e-07
-9.56061e-08
7.74614e-07
-8.82267e-08
8.55836e-07
-8.12221e-08
9.3044e-07
-7.46044e-08
9.98821e-07
-6.83801e-08
1.06137e-06
-6.25504e-08
1.11848e-06
-5.71122e-08
1.17054e-06
-5.20567e-08
1.21791e-06
-4.73706e-08
1.26095e-06
-4.3035e-08
1.29997e-06
-3.90266e-08
1.33529e-06
-3.53189e-08
1.36717e-06
-3.18828e-08
1.39586e-06
-2.86895e-08
1.42157e-06
-2.57113e-08
1.4445e-06
-2.29237e-08
1.46481e-06
-2.03067e-08
1.48265e-06
-1.78447e-08
1.49818e-06
-1.55276e-08
1.51153e-06
-1.33499e-08
1.52284e-06
-1.13081e-08
1.53224e-06
-9.40492e-09
1.53988e-06
-7.63943e-09
1.54589e-06
-6.01236e-09
1.55042e-06
-4.53169e-09
1.55361e-06
-3.18438e-09
1.55558e-06
-1.97209e-09
1.55648e-06
-9.03e-10
1.55641e-06
7.03084e-11
1.55545e-06
9.64463e-10
1.55371e-06
1.7387e-09
1.55132e-06
2.38715e-09
1.5484e-06
2.92525e-09
1.54503e-06
3.36444e-09
1.54132e-06
3.71747e-09
1.53732e-06
3.9974e-09
1.5331e-06
4.21407e-09
1.52872e-06
4.38032e-09
1.52421e-06
4.51163e-09
1.5196e-06
4.61305e-09
1.51492e-06
4.68058e-09
1.51019e-06
4.72375e-09
1.50545e-06
4.74966e-09
1.50067e-06
4.77598e-09
1.49587e-06
4.79744e-09
1.49106e-06
4.8126e-09
1.48624e-06
4.82183e-09
1.48141e-06
4.82551e-09
1.47659e-06
4.8248e-09
1.47177e-06
4.81838e-09
1.46696e-06
4.80408e-09
1.46218e-06
4.78116e-09
1.45743e-06
4.7495e-09
1.45272e-06
4.71118e-09
1.44805e-06
4.67012e-09
1.44342e-06
4.6311e-09
1.43882e-06
4.59789e-09
1.43425e-06
4.57259e-09
1.4297e-06
4.55561e-09
1.42515e-06
4.54621e-09
1.42061e-06
4.54324e-09
1.41606e-06
4.54573e-09
1.41151e-06
4.55315e-09
1.40694e-06
4.56536e-09
1.40236e-06
4.58264e-09
1.39775e-06
4.60535e-09
1.39312e-06
4.63402e-09
1.38845e-06
4.66933e-09
1.38374e-06
4.71214e-09
1.37897e-06
4.76367e-09
1.37415e-06
4.82537e-09
1.36925e-06
4.89969e-09
1.36426e-06
4.98874e-09
1.35916e-06
5.0977e-09
1.35393e-06
5.22844e-09
1.34854e-06
5.39292e-09
1.34295e-06
5.58848e-09
1.33711e-06
5.84536e-09
1.33097e-06
6.14101e-09
1.32441e-06
6.56089e-09
1.3174e-06
7.01051e-09
1.30966e-06
7.73825e-09
1.30124e-06
8.41405e-09
1.29147e-06
9.77059e-09
1.28073e-06
1.07425e-08
1.26724e-06
1.34946e-08
1.25251e-06
1.47289e-08
1.23161e-06
2.08999e-08
1.20977e-06
2.18414e-08
1.17239e-06
3.73791e-08
1.13626e-06
3.61252e-08
1.0556e-06
8.06645e-08
7.38399e-08
9.81756e-07
5.45218e-08
-1.11893e-07
1.1339e-07
-1.47089e-07
1.70107e-07
-1.50477e-07
2.27219e-07
-1.50795e-07
2.85928e-07
-1.51727e-07
3.46571e-07
-1.53484e-07
4.09101e-07
-1.55635e-07
4.73203e-07
-1.57604e-07
5.38311e-07
-1.58762e-07
6.03604e-07
-1.58443e-07
6.67966e-07
-1.55936e-07
7.29871e-07
-1.50377e-07
7.8734e-07
-1.40876e-07
8.37977e-07
-1.26611e-07
8.79179e-07
-1.07147e-07
9.0807e-07
-8.2153e-08
9.21403e-07
-5.15545e-08
9.15415e-07
-1.54005e-08
8.83567e-07
2.83751e-08
8.22067e-07
7.92576e-08
7.246e-07
1.35354e-07
5.83998e-07
1.95274e-07
3.91848e-07
2.60022e-07
1.37491e-07
3.33271e-07
-1.80623e-07
4.13961e-07
-5.52052e-07
4.92343e-07
-9.4956e-07
5.59884e-07
-1.33203e-06
6.16659e-07
-1.67367e-06
6.63028e-07
-1.98237e-06
6.88337e-07
-2.27743e-06
6.92114e-07
-2.56045e-06
6.8178e-07
-2.82951e-06
6.60968e-07
-3.08399e-06
6.33738e-07
-3.324e-06
6.02796e-07
-3.54998e-06
5.70017e-07
-3.76255e-06
5.36606e-07
-3.96221e-06
5.03126e-07
-4.14917e-06
4.6968e-07
-4.32325e-06
4.35954e-07
-4.48405e-06
4.01574e-07
-4.63137e-06
3.66633e-07
-4.76444e-06
3.30385e-07
-4.88212e-06
2.92305e-07
-4.98312e-06
2.52135e-07
-5.06615e-06
2.0982e-07
-5.13004e-06
1.65515e-07
-5.17383e-06
1.19604e-07
-5.19696e-06
7.27499e-08
-5.19928e-06
2.58256e-08
-5.18028e-06
-2.09059e-08
-5.13921e-06
-6.62868e-08
-5.07732e-06
-1.09597e-07
-4.9956e-06
-1.50184e-07
-4.89541e-06
-1.8765e-07
-4.77843e-06
-2.21738e-07
-4.64639e-06
-2.52399e-07
-4.50096e-06
-2.79721e-07
-4.34372e-06
-3.03883e-07
-4.17613e-06
-3.25102e-07
-3.99954e-06
-3.43579e-07
-3.81519e-06
-3.59484e-07
-3.62431e-06
-3.72931e-07
-3.42807e-06
-3.83965e-07
-3.2277e-06
-3.92564e-07
-3.02442e-06
-3.98769e-07
-2.81931e-06
-4.02848e-07
-2.61321e-06
-4.05194e-07
-2.40672e-06
-4.0627e-07
-2.20019e-06
-4.0647e-07
-1.99389e-06
-4.05964e-07
-1.78812e-06
-4.04661e-07
-1.58338e-06
-4.02283e-07
-1.38038e-06
-3.98437e-07
-1.18007e-06
-3.92728e-07
-9.83528e-07
-3.84897e-07
-7.91888e-07
-3.74876e-07
-6.06186e-07
-3.62786e-07
-4.27307e-07
-3.48953e-07
-2.55943e-07
-3.33695e-07
-9.24627e-08
-3.175e-07
6.30041e-08
-3.0079e-07
2.10063e-07
-2.84076e-07
3.49045e-07
-2.67284e-07
4.80049e-07
-2.50745e-07
6.03292e-07
-2.34643e-07
7.19049e-07
-2.19097e-07
8.2763e-07
-2.04188e-07
9.29372e-07
-1.89969e-07
1.02463e-06
-1.76477e-07
1.11376e-06
-1.63737e-07
1.19714e-06
-1.51763e-07
1.27515e-06
-1.40561e-07
1.34817e-06
-1.30126e-07
1.41655e-06
-1.20443e-07
1.48067e-06
-1.11486e-07
1.54085e-06
-1.03219e-07
1.59742e-06
-9.55973e-08
1.65067e-06
-8.85659e-08
1.70085e-06
-8.20667e-08
1.7482e-06
-7.60389e-08
1.79292e-06
-7.04233e-08
1.83516e-06
-6.51653e-08
1.87507e-06
-6.02177e-08
1.91277e-06
-5.55417e-08
1.94835e-06
-5.11087e-08
1.9819e-06
-4.68988e-08
2.01349e-06
-4.28994e-08
2.04319e-06
-3.91058e-08
2.07106e-06
-3.55145e-08
2.09718e-06
-3.21259e-08
2.12159e-06
-2.89427e-08
2.14436e-06
-2.59598e-08
2.16557e-06
-2.31759e-08
2.18526e-06
-2.05947e-08
2.20353e-06
-1.82033e-08
2.22048e-06
-1.59787e-08
2.23614e-06
-1.39262e-08
2.25057e-06
-1.20463e-08
2.26383e-06
-1.03269e-08
2.27595e-06
-8.75584e-09
2.28698e-06
-7.31955e-09
2.29699e-06
-6.00589e-09
2.30601e-06
-4.80524e-09
2.31409e-06
-3.70158e-09
2.32128e-06
-2.68001e-09
2.32763e-06
-1.73983e-09
2.33319e-06
-8.74678e-10
2.33796e-06
-5.03949e-11
2.34201e-06
6.97572e-10
2.34538e-06
1.41377e-09
2.34809e-06
2.08005e-09
2.35021e-06
2.69834e-09
2.35176e-06
3.26956e-09
2.35279e-06
3.79587e-09
2.35334e-06
4.27906e-09
2.35343e-06
4.72002e-09
2.35312e-06
5.11789e-09
2.35243e-06
5.47428e-09
2.35139e-06
5.79093e-09
2.35002e-06
6.07225e-09
2.34837e-06
6.32339e-09
2.34645e-06
6.55118e-09
2.34429e-06
6.76155e-09
2.3419e-06
6.95869e-09
2.33931e-06
7.1446e-09
2.33654e-06
7.31988e-09
2.3336e-06
7.48504e-09
2.3305e-06
7.64166e-09
2.32726e-06
7.79264e-09
2.32388e-06
7.94165e-09
2.32038e-06
8.09244e-09
2.31673e-06
8.24777e-09
2.31296e-06
8.40965e-09
2.30905e-06
8.57912e-09
2.305e-06
8.75701e-09
2.30082e-06
8.94468e-09
2.2965e-06
9.14388e-09
2.29204e-06
9.35874e-09
2.28744e-06
9.5923e-09
2.28268e-06
9.85435e-09
2.27776e-06
1.01471e-08
2.27266e-06
1.04931e-08
2.26737e-06
1.08858e-08
2.26183e-06
1.13808e-08
2.25604e-06
1.19334e-08
2.2499e-06
1.26989e-08
2.24341e-06
1.35018e-08
2.23637e-06
1.47824e-08
2.22882e-06
1.59572e-08
2.22031e-06
1.8281e-08
2.2111e-06
1.99568e-08
2.20005e-06
2.45451e-08
2.18801e-06
2.6769e-08
2.17224e-06
3.66649e-08
2.15487e-06
3.92148e-08
2.12965e-06
6.25985e-08
2.10048e-06
6.52923e-08
2.05582e-06
1.25329e-07
1.32573e-07
1.99708e-06
2.30487e-08
-1.34942e-07
3.39278e-08
-1.57968e-07
4.29399e-08
-1.5949e-07
5.30583e-08
-1.60914e-07
6.46455e-08
-1.63314e-07
7.72103e-08
-1.66048e-07
9.01057e-08
-1.6853e-07
1.02422e-07
-1.69921e-07
1.13128e-07
-1.69468e-07
1.21023e-07
-1.66337e-07
1.24608e-07
-1.59522e-07
1.22101e-07
-1.4787e-07
1.11333e-07
-1.30107e-07
8.97487e-08
-1.05027e-07
5.41894e-08
-7.15876e-08
8.87104e-10
-2.88507e-08
-7.39883e-08
2.33209e-08
-1.74518e-07
8.51289e-08
-3.03655e-07
1.57512e-07
-4.64207e-07
2.3981e-07
-6.58155e-07
3.29302e-07
-8.84487e-07
4.21606e-07
-1.1367e-06
5.12237e-07
-1.40092e-06
5.97486e-07
-1.66113e-06
6.74174e-07
-1.9094e-06
7.40611e-07
-2.14336e-06
7.93847e-07
-2.35794e-06
8.31235e-07
-2.54779e-06
8.52877e-07
-2.7181e-06
8.58652e-07
-2.87828e-06
8.52296e-07
-3.03374e-06
8.3724e-07
-3.18849e-06
8.15711e-07
-3.34476e-06
7.90014e-07
-3.50371e-06
7.61738e-07
-3.6655e-06
7.31812e-07
-3.82953e-06
7.0064e-07
-3.99447e-06
6.68061e-07
-4.15841e-06
6.33623e-07
-4.31927e-06
5.96817e-07
-4.47483e-06
5.57126e-07
-4.62226e-06
5.14068e-07
-4.75896e-06
4.67081e-07
-4.88235e-06
4.15695e-07
-4.98992e-06
3.59706e-07
-5.07932e-06
2.99222e-07
-5.14845e-06
2.34642e-07
-5.19549e-06
1.66649e-07
-5.21905e-06
9.63078e-08
-5.21873e-06
2.55066e-08
-5.19445e-06
-4.5193e-08
-5.14707e-06
-1.13666e-07
-5.07843e-06
-1.78229e-07
-4.99015e-06
-2.38468e-07
-4.88387e-06
-2.93932e-07
-4.76149e-06
-3.44118e-07
-4.62488e-06
-3.89009e-07
-4.47573e-06
-4.28865e-07
-4.31553e-06
-4.64087e-07
-4.14553e-06
-4.95098e-07
-3.96686e-06
-5.22252e-07
-3.78055e-06
-5.45799e-07
-3.58761e-06
-5.65866e-07
-3.38921e-06
-5.82371e-07
-3.18669e-06
-5.95078e-07
-2.98144e-06
-6.04016e-07
-2.77478e-06
-6.09508e-07
-2.56779e-06
-6.12185e-07
-2.36111e-06
-6.12953e-07
-2.15493e-06
-6.12648e-07
-1.94923e-06
-6.1167e-07
-1.74403e-06
-6.09857e-07
-1.53969e-06
-6.06624e-07
-1.33696e-06
-6.01167e-07
-1.13697e-06
-5.92712e-07
-9.41086e-07
-5.80785e-07
-7.50656e-07
-5.65305e-07
-5.66893e-07
-5.46549e-07
-3.90782e-07
-5.25064e-07
-2.23006e-07
-5.01471e-07
-6.39432e-08
-4.76562e-07
8.69306e-08
-4.51664e-07
2.29173e-07
-4.26319e-07
3.63239e-07
-4.0135e-07
4.89501e-07
-3.77007e-07
6.08351e-07
-3.53493e-07
7.20175e-07
-3.30921e-07
8.25335e-07
-3.09348e-07
9.24166e-07
-2.888e-07
1.01699e-06
-2.69298e-07
1.10411e-06
-2.50861e-07
1.18586e-06
-2.33511e-07
1.26256e-06
-2.17265e-07
1.33457e-06
-2.02133e-07
1.40223e-06
-1.88107e-07
1.46591e-06
-1.75161e-07
1.52594e-06
-1.63249e-07
1.58265e-06
-1.52306e-07
1.63634e-06
-1.42254e-07
1.68727e-06
-1.33002e-07
1.73569e-06
-1.24455e-07
1.78178e-06
-1.16521e-07
1.82573e-06
-1.09112e-07
1.86767e-06
-1.02152e-07
1.9077e-06
-9.55753e-08
1.94592e-06
-8.9334e-08
1.98242e-06
-8.33917e-08
2.01724e-06
-7.77241e-08
2.05045e-06
-7.23174e-08
2.0821e-06
-6.71634e-08
2.11223e-06
-6.22582e-08
2.14089e-06
-5.76007e-08
2.16812e-06
-5.31876e-08
2.19396e-06
-4.90157e-08
2.21845e-06
-4.50804e-08
2.24161e-06
-4.13708e-08
2.26351e-06
-3.78719e-08
2.28416e-06
-3.4579e-08
2.30361e-06
-3.14923e-08
2.32188e-06
-2.85983e-08
2.339e-06
-2.58828e-08
2.35502e-06
-2.33325e-08
2.36995e-06
-2.09352e-08
2.38382e-06
-1.8679e-08
2.39667e-06
-1.65523e-08
2.40853e-06
-1.45431e-08
2.41944e-06
-1.26431e-08
2.42941e-06
-1.08497e-08
2.43852e-06
-9.1547e-09
2.44677e-06
-7.55811e-09
2.45423e-06
-6.03963e-09
2.46091e-06
-4.60166e-09
2.46685e-06
-3.24601e-09
2.47209e-06
-1.97146e-09
2.47666e-06
-7.74952e-10
2.48059e-06
3.55516e-10
2.4839e-06
1.4112e-09
2.48662e-06
2.38969e-09
2.4888e-06
3.29359e-09
2.49047e-06
4.12578e-09
2.49165e-06
4.89263e-09
2.49237e-06
5.59807e-09
2.49268e-06
6.2492e-09
2.49259e-06
6.85281e-09
2.49213e-06
7.41463e-09
2.49134e-06
7.93847e-09
2.49023e-06
8.42671e-09
2.48883e-06
8.88137e-09
2.48717e-06
9.30533e-09
2.48526e-06
9.70317e-09
2.48312e-06
1.00808e-08
2.48077e-06
1.04443e-08
2.47822e-06
1.07993e-08
2.47548e-06
1.115e-08
2.47255e-06
1.14995e-08
2.46946e-06
1.18498e-08
2.4662e-06
1.22044e-08
2.46278e-06
1.25648e-08
2.4592e-06
1.29386e-08
2.45547e-06
1.33277e-08
2.45157e-06
1.37483e-08
2.44752e-06
1.41987e-08
2.4433e-06
1.4715e-08
2.43891e-06
1.52789e-08
2.43431e-06
1.59749e-08
2.42951e-06
1.6731e-08
2.42445e-06
1.77587e-08
2.41913e-06
1.88269e-08
2.41343e-06
2.04796e-08
2.40735e-06
2.20366e-08
2.40072e-06
2.4915e-08
2.39346e-06
2.72124e-08
2.38538e-06
3.26253e-08
2.37612e-06
3.60339e-08
2.36576e-06
4.70198e-08
2.3527e-06
5.22791e-08
2.33903e-06
7.62625e-08
2.31846e-06
8.58709e-08
2.30225e-06
1.4154e-07
1.65544e-07
2.26927e-06
-1.07753e-08
-1.24167e-07
-3.51166e-08
-1.33627e-07
-6.06907e-08
-1.33915e-07
-8.75037e-08
-1.34101e-07
-1.16119e-07
-1.34698e-07
-1.47195e-07
-1.34973e-07
-1.81583e-07
-1.34142e-07
-2.20325e-07
-1.31179e-07
-2.64569e-07
-1.25224e-07
-3.15535e-07
-1.15372e-07
-3.74581e-07
-1.00475e-07
-4.43127e-07
-7.93237e-08
-5.22697e-07
-5.05375e-08
-6.15399e-07
-1.23259e-08
-7.21201e-07
3.42147e-08
-8.41225e-07
9.1174e-08
-9.76987e-07
1.59082e-07
-1.12878e-06
2.36918e-07
-1.29422e-06
3.22956e-07
-1.46869e-06
4.14281e-07
-1.6466e-06
5.07215e-07
-1.82271e-06
5.97708e-07
-1.99242e-06
6.81951e-07
-2.15158e-06
7.56645e-07
-2.29698e-06
8.19574e-07
-2.42671e-06
8.70345e-07
-2.54255e-06
9.09683e-07
-2.64903e-06
9.37715e-07
-2.75099e-06
9.54837e-07
-2.85476e-06
9.62417e-07
-2.96513e-06
9.62666e-07
-3.08513e-06
9.57246e-07
-3.2166e-06
9.47179e-07
-3.35957e-06
9.32986e-07
-3.5127e-06
9.14865e-07
-3.67371e-06
8.92824e-07
-3.83982e-06
8.66744e-07
-4.00784e-06
8.36086e-07
-4.17489e-06
8.00668e-07
-4.33823e-06
7.60162e-07
-4.49522e-06
7.14114e-07
-4.64311e-06
6.61958e-07
-4.77913e-06
6.03098e-07
-4.90051e-06
5.37083e-07
-5.00454e-06
4.63737e-07
-5.08863e-06
3.83312e-07
-5.15058e-06
2.96589e-07
-5.18888e-06
2.04953e-07
-5.20259e-06
1.10018e-07
-5.1895e-06
1.24101e-08
-5.15394e-06
-8.07512e-08
-5.09647e-06
-1.71135e-07
-5.01814e-06
-2.56564e-07
-4.92139e-06
-3.35208e-07
-4.80908e-06
-4.06251e-07
-4.6837e-06
-4.69498e-07
-4.54732e-06
-5.25382e-07
-4.40149e-06
-5.74701e-07
-4.24714e-06
-6.18433e-07
-4.08473e-06
-6.57516e-07
-3.91432e-06
-6.92653e-07
-3.73589e-06
-7.24234e-07
-3.5495e-06
-7.52254e-07
-3.35558e-06
-7.7629e-07
-3.15501e-06
-7.95652e-07
-2.94924e-06
-8.09782e-07
-2.74022e-06
-8.18528e-07
-2.52997e-06
-8.22438e-07
-2.31982e-06
-8.23098e-07
-2.11024e-06
-8.22226e-07
-1.90103e-06
-8.20884e-07
-1.69185e-06
-8.1904e-07
-1.48282e-06
-8.1565e-07
-1.2748e-06
-8.09186e-07
-1.06929e-06
-7.9822e-07
-8.68147e-07
-7.81932e-07
-6.73191e-07
-7.60261e-07
-4.8605e-07
-7.3369e-07
-3.07961e-07
-7.03153e-07
-1.3967e-07
-6.69762e-07
1.85526e-08
-6.34785e-07
1.66656e-07
-5.99767e-07
3.04939e-07
-5.64602e-07
4.33879e-07
-5.3029e-07
5.54163e-07
-4.97291e-07
6.66548e-07
-4.65879e-07
7.71807e-07
-4.3618e-07
8.70659e-07
-4.08199e-07
9.63726e-07
-3.81867e-07
1.05151e-06
-3.57078e-07
1.13438e-06
-3.33731e-07
1.21262e-06
-3.11751e-07
1.28646e-06
-2.91104e-07
1.3561e-06
-2.71783e-07
1.42179e-06
-2.53793e-07
1.48376e-06
-2.37132e-07
1.54229e-06
-2.21774e-07
1.59764e-06
-2.07662e-07
1.6501e-06
-1.94711e-07
1.69991e-06
-1.8281e-07
1.74729e-06
-1.71838e-07
1.79244e-06
-1.61668e-07
1.83551e-06
-1.5218e-07
1.87662e-06
-1.43269e-07
1.91589e-06
-1.34846e-07
1.9534e-06
-1.26843e-07
1.98922e-06
-1.1921e-07
2.02341e-06
-1.11914e-07
2.05603e-06
-1.04935e-07
2.08713e-06
-9.82616e-08
2.11676e-06
-9.1888e-08
2.14497e-06
-8.58107e-08
2.1718e-06
-8.00257e-08
2.19731e-06
-7.45265e-08
2.22154e-06
-6.9306e-08
2.24452e-06
-6.43548e-08
2.26631e-06
-5.9659e-08
2.28694e-06
-5.52068e-08
2.30644e-06
-5.09904e-08
2.32484e-06
-4.69966e-08
2.34216e-06
-4.32097e-08
2.35844e-06
-3.96151e-08
2.37371e-06
-3.62001e-08
2.38798e-06
-3.29515e-08
2.40129e-06
-2.98579e-08
2.41365e-06
-2.69096e-08
2.42511e-06
-2.40977e-08
2.43567e-06
-2.14156e-08
2.44538e-06
-1.88583e-08
2.45424e-06
-1.64245e-08
2.46231e-06
-1.41044e-08