/*--------------------------------*- C++ -*----------------------------------*\
  =========                 |
  \\      /  F ield         | OpenFOAM: The Open Source CFD Toolbox
   \\    /   O peration     | Website:  https://openfoam.org
    \\  /    A nd           | Version:  7
     \\/     M anipulation  |
\*---------------------------------------------------------------------------*/
FoamFile
{
    version     2.0;
    format      ascii;
    class       volScalarField;
    location    "0.035";
    object      pMean;
}
// * * * * * * * * * * * * * * * * * * * * * * * * * * * * * * * * * * * * * //

dimensions      [0 2 -2 0 0 0 0];

internalField   nonuniform List<scalar> 
12225
(
-1.00336
0.0832584
0.495907
0.594699
0.631647
0.646933
0.642499
0.617764
0.57671
0.525076
0.468106
0.406864
0.341825
0.263585
0.169301
0.0171892
-0.193903
-0.732184
-0.6744
0.0950631
0.492956
0.599624
0.632443
0.645519
0.641422
0.618057
0.578252
0.527778
0.471251
0.411411
0.345436
0.271809
0.171995
0.0480716
-0.170416
-0.403478
-0.500515
0.0775192
0.471337
0.599786
0.63304
0.644945
0.642887
0.622926
0.586901
0.539504
0.485783
0.42684
0.363153
0.287708
0.197241
0.0732858
-0.0855675
-0.294094
-0.307645
0.113625
0.473794
0.613164
0.645197
0.652905
0.649979
0.632184
0.598814
0.554099
0.501832
0.444923
0.381249
0.310011
0.221405
0.115047
-0.0225675
-0.178366
-0.138159
0.152208
0.470991
0.618638
0.654687
0.660042
0.656262
0.640384
0.610212
0.568295
0.518725
0.463656
0.403018
0.334196
0.253631
0.158299
0.0467504
-0.0706577
0.0236588
0.209089
0.48143
0.630648
0.671902
0.675209
0.669032
0.653797
0.626013
0.586837
0.539504
0.486653
0.428464
0.363812
0.290504
0.207425
0.116804
0.0246263
0.173057
0.275219
0.499825
0.643861
0.690321
0.69282
0.684069
0.668466
0.642677
0.60626
0.561772
0.511628
0.45674
0.396685
0.330789
0.259277
0.184877
0.112616
0.31054
0.352342
0.530859
0.663551
0.713107
0.715854
0.704846
0.688351
0.663929
0.629951
0.58799
0.540575
0.48924
0.434167
0.375544
0.314062
0.252542
0.19483
0.42945
0.432552
0.570959
0.688558
0.738519
0.742352
0.729768
0.711814
0.687871
0.656088
0.617054
0.572738
0.524977
0.474707
0.42269
0.369874
0.318653
0.271757
0.552359
0.51983
0.622359
0.722246
0.769289
0.773838
0.76024
0.740902
0.717025
0.686776
0.650208
0.609021
0.565052
0.519515
0.473432
0.427835
0.384596
0.345629
0.664074
0.608006
0.681698
0.763646
0.805165
0.809475
0.795221
0.774504
0.750158
0.721108
0.686899
0.648591
0.608052
0.566724
0.525782
0.486125
0.449202
0.416224
0.763438
0.691608
0.743381
0.809204
0.843935
0.846819
0.83194
0.810209
0.785222
0.756736
0.72424
0.688526
0.651075
0.613259
0.576298
0.541027
0.508543
0.479578
0.859917
0.776285
0.810535
0.861469
0.888414
0.88866
0.872748
0.849979
0.824419
0.796205
0.764992
0.731228
0.696266
0.661423
0.627826
0.596122
0.567166
0.541383
0.973238
0.876718
0.893384
0.929016
0.946612
0.942644
0.924927
0.900835
0.874118
0.845682
0.815483
0.783803
0.751516
0.719619
0.689096
0.660542
0.63461
0.611458
1.09427
0.990859
0.994911
1.01618
1.02289
1.01262
0.991694
0.965793
0.93802
0.909171
0.879341
0.848851
0.818467
0.789004
0.7612
0.735387
0.711978
0.69098
1.24517
1.13136
1.12108
1.12845
1.12315
1.10442
1.07837
1.04928
1.0193
0.989215
0.959264
0.929629
0.90072
0.873024
0.847109
0.823215
0.801579
0.782102
1.39962
1.28886
1.27311
1.26872
1.25118
1.22256
1.18949
1.15558
1.12213
1.08946
1.05777
1.02729
0.998358
0.971274
0.946301
0.923477
0.902928
0.884465
1.60459
1.48806
1.46094
1.44283
1.41119
1.37014
1.32734
1.2864
1.24808
1.21211
1.1782
1.14632
1.11668
1.08938
1.06449
1.04188
1.02157
1.00337
1.88559
1.75218
1.70693
1.67038
1.62097
1.5634
1.50602
1.4528
1.40437
1.36012
1.31954
1.28252
1.24909
1.21918
1.19265
1.16915
1.14845
1.13018
2.14153
2.0093
1.95016
1.88993
1.81635
1.73968
1.66918
1.60718
1.55222
1.50236
1.45664
1.41494
1.37745
1.34411
1.31464
1.28863
1.26576
1.24566
2.40569
2.2522
2.16582
2.07595
1.9755
1.87673
1.78835
1.71165
1.64493
1.58619
1.53431
1.48874
1.449
1.41445
1.38445
1.35839
1.33591
1.31651
2.669
2.48895
2.36507
2.24035
2.11639
2.00541
1.91062
1.82792
1.75351
1.68629
1.62663
1.57466
1.52984
1.49128
1.45805
1.42929
1.40441
1.38288
2.94449
2.7224
2.54148
2.36597
2.2069
2.07434
1.96616
1.87473
1.79482
1.72468
1.66396
1.61202
1.56773
1.52973
1.49697
1.46874
1.44466
1.42424
3.23569
2.95966
2.71533
2.49961
2.32574
2.18846
2.07226
1.96703
1.87233
1.79055
1.72213
1.6652
1.61723
1.57626
1.54118
1.51118
1.4857
1.46403
3.51493
3.15497
2.80952
2.53779
2.34797
2.20955
2.09203
1.98514
1.88997
1.80915
1.74215
1.68617
1.63862
1.59788
1.56307
1.53355
1.50875
1.48798
3.88271
3.39984
2.95307
2.64357
2.44736
2.29828
2.16146
2.03631
1.93012
1.84406
1.77414
1.71585
1.66631
1.62408
1.58831
1.55821
1.53301
1.51192
4.20589
3.49603
2.942
2.6336
2.45902
2.31386
2.17302
2.04535
1.93954
1.85469
1.78547
1.72733
1.67782
1.63575
1.60031
1.57066
1.54601
1.52554
4.70786
3.71302
3.01846
2.69618
2.51838
2.35576
2.20037
2.06629
1.95825
1.87198
1.80136
1.74207
1.69181
1.64936
1.61379
1.58421
1.55971
1.53943
4.95367
3.68245
2.98443
2.70813
2.53287
2.36287
2.20409
2.07042
1.96338
1.87751
1.80691
1.74763
1.69751
1.65534
1.62009
1.59096
1.56695
1.54742
5.7439
3.72662
2.98531
2.74129
2.55437
2.37381
2.21203
2.07801
1.97064
1.88424
1.81317
1.75359
1.7033
1.66104
1.62578
1.59671
1.57285
1.5537
1.02532
1.02405
1.01898
1.01113
1.00048
0.987216
0.971445
0.953249
0.932712
0.909945
0.88512
0.858484
0.830362
0.801173
0.771408
0.741603
0.712302
0.683988
0.657019
0.631567
0.607599
0.584827
0.562814
0.541199
0.519739
0.498192
0.475825
0.451031
0.421055
0.382261
0.332751
0.273723
0.207667
0.137786
0.0676847
0.0011304
-0.058088
-0.106267
-0.139867
-0.155591
-0.150478
-0.121988
-0.0680791
0.0127326
0.121332
0.257971
0.422161
0.612638
0.827404
1.06391
1.31904
1.5893
1.87088
2.15992
2.45271
2.74583
3.03626
3.32139
3.59908
3.86763
4.1257
4.37226
4.60648
4.82769
5.03526
5.22869
5.40752
5.57146
5.72041
5.85448
5.97401
6.07952
6.17169
6.25131
6.31926
6.37646
6.42386
6.46238
6.49295
6.51643
6.53366
6.5454
6.55239
6.55529
6.55467
6.55106
6.54492
6.53668
6.52669
6.51526
6.50269
6.48919
6.47498
6.46022
6.44506
6.42961
6.41398
6.39825
6.38248
6.36673
6.35103
6.33542
6.31993
6.30456
6.28935
6.27428
6.25938
6.24464
6.23006
6.21565
6.20139
6.18729
6.17334
6.15953
6.14585
6.1323
6.11886
6.10554
6.09232
6.0792
6.06616
6.05321
6.04032
6.0275
6.01473
6.00201
5.98932
5.97666
5.96402
5.95139
5.93877
5.92615
5.91351
5.90087
5.8882
5.87551
5.86279
5.85004
5.83724
5.8244
5.81151
5.79856
5.78556
5.7725
5.75937
5.74618
5.73292
5.71958
5.70617
5.69269
5.67913
5.6655
5.65179
5.63801
5.62416
5.61024
5.59626
5.58223
5.56816
5.55405
5.53993
5.52582
5.51175
5.49776
5.48389
5.47023
5.45683
5.44383
5.43135
5.41966
5.4089
5.39965
5.39209
5.3875
5.38609
5.39093
5.40233
5.42859
5.47105
5.55172
1.02258
1.02046
1.01508
1.00702
0.996229
0.982807
0.966768
0.948154
0.927004
0.903403
0.877494
0.849495
0.819726
0.788601
0.756633
0.72439
0.692424
0.661237
0.631191
0.602628
0.575601
0.549807
0.52456
0.498757
0.471074
0.440167
0.406059
0.369404
0.329034
0.281435
0.224818
0.160139
0.0897767
0.0168681
-0.0550874
-0.122439
-0.18154
-0.228823
-0.260871
-0.274482
-0.266744
-0.235101
-0.177429
-0.0921722
0.0215457
0.163839
0.334053
0.53083
0.752095
0.995111
1.25656
1.53276
1.81985
2.11398
2.41141
2.70868
3.00271
3.2909
3.57116
3.84184
4.1017
4.34983
4.58551
4.80815
5.01718
5.21209
5.39243
5.55784
5.70818
5.84353
5.96422
6.07076
6.16385
6.24428
6.31293
6.37076
6.41868
6.45767
6.48862
6.51244
6.52996
6.54195
6.54918
6.55228
6.55184
6.5484
6.54242
6.53432
6.52446
6.51316
6.5007
6.48732
6.47321
6.45855
6.44349
6.42813
6.41259
6.39694
6.38125
6.36557
6.34994
6.33439
6.31896
6.30365
6.28849
6.27347
6.25862
6.24392
6.22939
6.21501
6.20079
6.18672
6.1728
6.15902
6.14538
6.13186
6.11845
6.10516
6.09197
6.07887
6.06587
6.05293
6.04007
6.02727
6.01451
6.00181
5.98913
5.97649
5.96386
5.95124
5.93863
5.92602
5.91339
5.90076
5.8881
5.87541
5.8627
5.84994
5.83715
5.82431
5.81142
5.79848
5.78548
5.77242
5.75929
5.7461
5.73284
5.7195
5.7061
5.69261
5.67906
5.66542
5.65171
5.63793
5.62408
5.61016
5.59618
5.58214
5.56806
5.55395
5.53982
5.5257
5.51161
5.4976
5.48371
5.47001
5.45657
5.44352
5.43097
5.41917
5.4083
5.39881
5.39107
5.38593
5.38418
5.38746
5.39794
5.41786
5.45212
5.49087
1.01172
1.00955
1.00432
0.996608
0.986293
0.973438
0.957998
0.939955
0.919291
0.896032
0.870249
0.842074
0.811723
0.779497
0.745785
0.710993
0.675543
0.639821
0.604138
0.568547
0.532858
0.496658
0.459521
0.42096
0.380129
0.335753
0.286903
0.23326
0.174627
0.110676
0.0416009
-0.0315673
-0.107099
-0.182715
-0.25573
-0.323176
-0.381867
-0.428476
-0.459634
-0.472064
-0.462696
-0.428806
-0.368136
-0.278987
-0.160312
-0.011811
0.16595
0.371509
0.602577
0.856141
1.1286
1.41592
1.71389
2.01834
2.32529
2.63108
2.93252
3.227
3.51248
3.78746
4.05092
4.30215
4.54069
4.76613
4.97804
5.17597
5.35941
5.5279
5.68119
5.81927
5.94243
6.05119
6.14624
6.22841
6.29859
6.35774
6.40681
6.44679
6.4786
6.50315
6.52131
6.53387
6.54161
6.54517
6.54516
6.54211
6.5365
6.52874
6.51921
6.50823
6.49606
6.48296
6.46912
6.45472
6.43991
6.42479
6.40947
6.39404
6.37855
6.36306
6.34762
6.33225
6.31698
6.30182
6.2868
6.27193
6.2572
6.24262
6.22819
6.21392
6.1998
6.18582
6.17198
6.15828
6.14471
6.13125
6.11791
6.10468
6.09154
6.07849
6.06552
6.05263
6.03979
6.02702
6.01429
6.00161
5.98895
5.97633
5.96371
5.95111
5.93851
5.92591
5.9133
5.90067
5.88802
5.87535
5.86264
5.84989
5.8371
5.82427
5.81138
5.79844
5.78545
5.77239
5.75926
5.74607
5.73281
5.71947
5.70607
5.69258
5.67902
5.66539
5.65168
5.63789
5.62404
5.61011
5.59612
5.58208
5.56799
5.55386
5.53971
5.52557
5.51146
5.49741
5.48347
5.46971
5.4562
5.44304
5.43038
5.41838
5.40729
5.39743
5.38928
5.38332
5.38065
5.38183
5.38936
5.40232
5.42564
5.44429
0.988111
0.986272
0.981535
0.974447
0.964873
0.952833
0.938268
0.921134
0.901377
0.878968
0.853895
0.826192
0.795948
0.763318
0.728505
0.691682
0.652996
0.612544
0.570372
0.526422
0.480453
0.432045
0.380677
0.325875
0.26724
0.204388
0.136954
0.0647738
-0.0120751
-0.0931718
-0.177692
-0.264412
-0.351696
-0.437486
-0.519322
-0.594385
-0.659548
-0.71147
-0.746739
-0.761979
-0.753948
-0.719659
-0.656519
-0.562558
-0.436621
-0.278544
-0.0891185
0.129924
0.375934
0.645465
0.934439
1.23858
1.55329
1.87385
2.19571
2.51483
2.82775
3.13184
3.42516
3.70645
3.97503
4.23058
4.47304
4.70238
4.91844
5.12085
5.30901
5.48227
5.64015
5.78249
5.90951
6.02172
6.11983
6.2047
6.27725
6.33844
6.38929
6.43077
6.46387
6.48954
6.50866
6.52208
6.53058
6.53484
6.53547
6.53301
6.52795
6.52071
6.51167
6.50115
6.48943
6.47675
6.46332
6.4493
6.43484
6.42007
6.40508
6.38995
6.37476
6.35955
6.34436
6.32923
6.31419
6.29925
6.28443
6.26974
6.25518
6.24076
6.22648
6.21235
6.19835
6.18449
6.17077
6.15717
6.14369
6.13032
6.11706
6.1039
6.09083
6.07785
6.06494
6.05209
6.03931
6.02658
6.01389
6.00125
5.98863
5.97603
5.96345
5.95087
5.93829
5.92571
5.91312
5.90051
5.88787
5.87521
5.86251
5.84978
5.837
5.82417
5.81129
5.79836
5.78537
5.77231
5.75919
5.746
5.73274
5.71941
5.706
5.69252
5.67896
5.66532
5.65161
5.63782
5.62396
5.61003
5.59603
5.58198
5.56787
5.55373
5.53956
5.52539
5.51124
5.49714
5.48314
5.4693
5.45569
5.4424
5.42957
5.41733
5.40595
5.39564
5.3869
5.38002
5.37604
5.375
5.37893
5.38581
5.39851
5.40115
0.946845
0.945334
0.941074
0.934656
0.925908
0.91482
0.901293
0.88524
0.866545
0.845108
0.820821
0.793596
0.763346
0.729975
0.693409
0.653606
0.610512
0.56404
0.514026
0.460244
0.402386
0.340101
0.273026
0.200851
0.123402
0.0406552
-0.0473017
-0.140269
-0.237887
-0.339537
-0.444251
-0.550665
-0.656968
-0.760839
-0.8595
-0.949812
-1.02839
-1.09171
-1.13613
-1.15801
-1.15379
-1.12017
-1.05434
-0.954233
-0.818834
-0.648175
-0.443157
-0.205753
0.0610206
0.353306
0.666622
0.995717
1.33498
1.6788
2.02193
2.3598
2.68868
3.00584
3.30954
3.59892
3.87376
4.13436
4.38128
4.6151
4.83614
5.04426
5.23878
5.41875
5.58322
5.73171
5.86427
5.98141
6.08389
6.17259
6.24846
6.31252
6.36581
6.40936
6.44421
6.47136
6.49176
6.50633
6.51584
6.52101
6.52247
6.52079
6.51646
6.50991
6.50152
6.49161
6.48048
6.46836
6.45546
6.44196
6.42799
6.41368
6.39914
6.38443
6.36964
6.3548
6.33997
6.32518
6.31045
6.2958
6.28125
6.26681
6.25249
6.23829
6.22422
6.21027
6.19645
6.18275
6.16918
6.15572
6.14237
6.12912
6.11597
6.10291
6.08994
6.07704
6.0642
6.05143
6.03872
6.02605
6.01341
6.00081
5.98824
5.97568
5.96313
5.95059
5.93804
5.92548
5.91291
5.90032
5.8877
5.87506
5.86237
5.84965
5.83688
5.82407
5.8112
5.79827
5.78528
5.77223
5.75912
5.74593
5.73268
5.71935
5.70594
5.69246
5.6789
5.66526
5.65155
5.63775
5.62389
5.60995
5.59594
5.58187
5.56775
5.55358
5.53938
5.52517
5.51098
5.49683
5.48276
5.46882
5.45509
5.44163
5.42859
5.41608
5.40432
5.3935
5.38405
5.37613
5.37059
5.36721
5.36734
5.36856
5.37186
5.36406
0.884714
0.883408
0.879456
0.873496
0.865293
0.854818
0.841918
0.826442
0.808199
0.787002
0.76262
0.734824
0.70338
0.668042
0.628552
0.584632
0.535982
0.48229
0.423231
0.358459
0.287631
0.210435
0.126617
0.0359776
-0.0615554
-0.165947
-0.277019
-0.394453
-0.517711
-0.64592
-0.777697
-0.911119
-1.04371
-1.17252
-1.29425
-1.40525
-1.50173
-1.57981
-1.63565
-1.66537
-1.66518
-1.63163
-1.56187
-1.45381
-1.30627
-1.11891
-0.892586
-0.629528
-0.333235
-0.00845622
0.338598
0.70108
1.07227
1.44574
1.8156
2.17671
2.52499
2.85765
3.17316
3.47114
3.75205
4.01699
4.26743
4.50488
4.7305
4.94464
5.14668
5.33518
5.50847
5.66539
5.80561
5.92955
6.038
6.13191
6.21227
6.28014
6.33663
6.38284
6.41991
6.44892
6.47095
6.48693
6.4977
6.50401
6.50651
6.5058
6.50236
6.49665
6.48906
6.47991
6.4695
6.45806
6.44582
6.43294
6.41958
6.40584
6.39185
6.37766
6.36336
6.34899
6.3346
6.32022
6.30587
6.29158
6.27737
6.26324
6.2492
6.23527
6.22145
6.20773
6.19413
6.18063
6.16724
6.15395
6.14075
6.12765
6.11463
6.1017
6.08883
6.07604
6.0633
6.05061
6.03798
6.02538
6.01281
6.00027
5.98774
5.97523
5.96273
5.95022
5.93771
5.92519
5.91264
5.90008
5.88748
5.87486
5.86219
5.84949
5.83673
5.82393
5.81107
5.79815
5.78518
5.77213
5.75902
5.74584
5.73259
5.71927
5.70586
5.69238
5.67882
5.66518
5.65146
5.63767
5.62379
5.60984
5.59583
5.58174
5.5676
5.5534
5.53917
5.52492
5.51067
5.49645
5.4823
5.46825
5.45437
5.44074
5.42745
5.41462
5.40243
5.39103
5.38076
5.37172
5.36448
5.35874
5.3551
5.35131
5.34683
5.33192
0.802431
0.801187
0.797281
0.791422
0.783284
0.772807
0.759769
0.743973
0.725156
0.703042
0.677305
0.647593
0.613523
0.574686
0.530644
0.480913
0.424994
0.362387
0.292623
0.215247
0.129863
0.0361222
-0.066285
-0.177635
-0.298149
-0.427973
-0.567053
-0.714995
-0.870861
-1.03301
-1.19906
-1.36595
-1.53007
-1.68754
-1.83433
-1.96648
-2.08015
-2.17169
-2.23744
-2.27366
-2.27651
-2.2422
-2.16719
-2.04835
-1.8831
-1.67067
-1.41283
-1.11341
-0.778072
-0.413744
-0.0275924
0.373163
0.781134
1.18903
1.59006
1.97831
2.34911
2.69941
3.02783
3.33455
3.6208
3.88852
4.14013
4.37829
4.60556
4.82357
5.03238
5.23016
5.41409
5.58172
5.73192
5.86484
5.98124
6.08207
6.16836
6.24119
6.30174
6.35127
6.39103
6.42228
6.44623
6.46388
6.47615
6.48381
6.48757
6.48801
6.48565
6.48096
6.47431
6.46606
6.45649
6.44586
6.43438
6.42224
6.40958
6.39653
6.38317
6.36961
6.35589
6.34208
6.32821
6.31431
6.30043
6.28657
6.27275
6.25899
6.24531
6.2317
6.21817
6.20473
6.19138
6.17811
6.16494
6.15185
6.13884
6.12591
6.11305
6.10026
6.08753
6.07486
6.06223
6.04965
6.0371
6.02459
6.0121
5.99963
5.98716
5.97471
5.96226
5.9498
5.93733
5.92484
5.91233
5.8998
5.88723
5.87463
5.86199
5.8493
5.83656
5.82377
5.81093
5.79802
5.78506
5.77202
5.75892
5.74575
5.7325
5.71918
5.70578
5.6923
5.67874
5.6651
5.65137
5.63757
5.62369
5.60973
5.5957
5.5816
5.56743
5.55321
5.53894
5.52464
5.51033
5.49604
5.48178
5.46761
5.45357
5.43973
5.42617
5.41299
5.40033
5.38829
5.37714
5.36691
5.35793
5.34983
5.34268
5.33444
5.32369
5.30335
0.701449
0.700051
0.695793
0.689507
0.680766
0.66948
0.655375
0.638195
0.617594
0.5932
0.564573
0.531251
0.492716
0.448403
0.397688
0.339917
0.274422
0.200536
0.11765
0.0251712
-0.0774342
-0.190706
-0.315221
-0.451612
-0.600474
-0.762179
-0.93655
-1.12256
-1.31811
-1.51995
-1.72391
-1.92532
-2.11952
-2.30219
-2.46956
-2.61858
-2.74671
-2.85113
-2.92838
-2.97422
-2.98395
-2.95248
-2.87451
-2.74532
-2.56199
-2.32416
-2.03381
-1.69538
-1.31565
-0.902836
-0.465716
-0.0138468
0.443179
0.896416
1.33795
1.76109
2.16073
2.53359
2.87848
3.19613
3.48867
3.75912
4.01095
4.24783
4.47353
4.69142
4.90327
5.10802
5.30206
5.48128
5.64306
5.78682
5.91308
6.02273
6.11662
6.19575
6.26136
6.31488
6.3578
6.39167
6.41781
6.43736
6.45133
6.46056
6.46576
6.46756
6.46647
6.46296
6.45742
6.45021
6.44163
6.43192
6.42132
6.41002
6.39815
6.38586
6.37324
6.36037
6.34732
6.33414
6.32087
6.30754
6.29418
6.28082
6.26746
6.25413
6.24084
6.2276
6.21441
6.20128
6.18823
6.17523
6.16231
6.14945
6.13665
6.12392
6.11124
6.09862
6.08604
6.0735
6.06101
6.04854
6.0361
6.02368
6.01128
5.99889
5.9865
5.97411
5.96172
5.94931
5.93689
5.92445
5.91198
5.89948
5.88694
5.87436
5.86175
5.84908
5.83637
5.82359
5.81077
5.79787
5.78492
5.77189
5.7588
5.74563
5.73239
5.71908
5.70568
5.6922
5.67864
5.665
5.65128
5.63747
5.62358
5.60961
5.59556
5.58144
5.56725
5.55299
5.53868
5.52433
5.50996
5.49558
5.48122
5.46691
5.4527
5.43863
5.42478
5.41121
5.39804
5.38534
5.37326
5.36181
5.3511
5.34072
5.33035
5.3182
5.30243
5.27786
0.584479
0.58266
0.577519
0.570132
0.559926
0.546801
0.530408
0.510417
0.486389
0.457875
0.424338
0.385209
0.339821
0.287442
0.227261
0.158436
0.0801082
-0.00855362
-0.108358
-0.220077
-0.34451
-0.482551
-0.635235
-0.803613
-0.988491
-1.18993
-1.40675
-1.63625
-1.87422
-2.1153
-2.35354
-2.58315
-2.79966
-3.00067
-3.18496
-3.35171
-3.49961
-3.6263
-3.72808
-3.79965
-3.8339
-3.82223
-3.75593
-3.62793
-3.43358
-3.17043
-2.83957
-2.4467
-2.00163
-1.51686
-1.0062
-0.483082
0.0402625
0.553221
1.04697
1.51448
1.95062
2.3524
2.71912
3.05222
3.35483
3.63095
3.88499
4.1215
4.34523
4.56098
4.77236
4.97995
5.18051
5.36908
5.54168
5.6966
5.83385
5.95388
6.05705
6.14394
6.21568
6.27388
6.32047
6.35726
6.38582
6.40748
6.42336
6.43433
6.44117
6.4445
6.44486
6.44271
6.43845
6.43243
6.42497
6.41632
6.40671
6.39634
6.38537
6.37392
6.3621
6.35001
6.33769
6.32522
6.31262
6.29992
6.28715
6.27434
6.26151
6.24866
6.23581
6.22298
6.21018
6.19741
6.18468
6.17199
6.15935
6.14675
6.1342
6.12168
6.10921
6.09677
6.08436
6.07199
6.05963
6.0473
6.03498
6.02267
6.01037
5.99806
5.98576
5.97344
5.96111
5.94877
5.9364
5.924
5.91158
5.89911
5.88661
5.87407
5.86148
5.84884
5.83615
5.8234
5.81058
5.79771
5.78476
5.77175
5.75867
5.74551
5.73228
5.71896
5.70557
5.6921
5.67854
5.6649
5.65117
5.63735
5.62346
5.60947
5.59541
5.58127
5.56705
5.55276
5.53841
5.524
5.50956
5.49508
5.48061
5.46615
5.45175
5.43744
5.42328
5.40931
5.39561
5.38221
5.3692
5.35652
5.34413
5.33158
5.31832
5.30278
5.28296
5.25504
0.454503
0.45184
0.44503
0.435593
0.422724
0.406322
0.385959
0.361243
0.331667
0.296674
0.255605
0.207708
0.152144
0.0879923
0.0142616
-0.0700867
-0.16611
-0.274891
-0.397471
-0.534919
-0.688352
-0.858968
-1.04799
-1.25639
-1.48437
-1.73076
-1.99255
-2.26459
-2.54007
-2.8119
-3.07423
-3.32336
-3.55779
-3.77802
-3.98628
-4.18455
-4.37251
-4.5466
-4.70008
-4.82317
-4.90339
-4.92686
-4.88028
-4.75241
-4.53557
-4.2272
-3.83115
-3.35785
-2.82264
-2.24339
-1.63797
-1.02402
-0.417358
0.169056
0.725309
1.24448
1.72231
2.15697
2.54888
2.90065
3.21661
3.5018
3.76143
4.00068
4.22468
4.43897
4.64872
4.85635
5.05979
5.25393
5.43413
5.59822
5.74584
5.87678
5.99044
6.08634
6.16514
6.22866
6.27927
6.31921
6.35041
6.3744
6.39237
6.40529
6.41395
6.41899
6.42096
6.42033
6.4175
6.41283
6.40662
6.39916
6.39066
6.38134
6.37135
6.36083
6.34989
6.33863
6.32712
6.3154
6.30352
6.29152
6.2794
6.2672
6.25493
6.24262
6.23027
6.2179
6.20552
6.19314
6.18077
6.16842
6.15609
6.14378
6.13149
6.11922
6.10697
6.09473
6.08252
6.07031
6.05812
6.04593
6.03374
6.02155
6.00935
5.99715
5.98493
5.9727
5.96044
5.94816
5.93586
5.92351
5.91114
5.89872
5.88625
5.87375
5.86119
5.84858
5.83591
5.82318
5.81038
5.79752
5.7846
5.7716
5.75853
5.74538
5.73215
5.71884
5.70546
5.69198
5.67843
5.66478
5.65105
5.63723
5.62333
5.60933
5.59525
5.58109
5.56684
5.55251
5.53811
5.52365
5.50913
5.49456
5.47996
5.46535
5.45076
5.4362
5.42171
5.40732
5.39307
5.37897
5.36503
5.35114
5.33714
5.32258
5.30675
5.28824
5.26516
5.23453
0.313897
0.30989
0.300395
0.287649
0.270498
0.248959
0.222466
0.190546
0.152521
0.107652
0.0551122
-0.00600467
-0.0766838
-0.158034
-0.251267
-0.357731
-0.478865
-0.616051
-0.770503
-0.943221
-1.13506
-1.34681
-1.57909
-1.83198
-2.10428
-2.39296
-2.69314
-2.99819
-3.30089
-3.59497
-3.87703
-4.14734
-4.40876
-4.66551
-4.92148
-5.17835
-5.4332
-5.6782
-5.90038
-6.08297
-6.20785
-6.25756
-6.21638
-6.07175
-5.81588
-5.44718
-4.97121
-4.40142
-3.75745
-3.06231
-2.34078
-1.61657
-0.910057
-0.237186
0.390929
0.967707
1.49039
1.95903
2.37616
2.74656
3.0764
3.37193
3.63894
3.8829
4.10948
4.32467
4.53436
4.74215
4.94688
5.14373
5.32809
5.49813
5.65389
5.79477
5.91904
6.02431
6.11054
6.17967
6.23446
6.27772
6.31172
6.33822
6.3585
6.37356
6.38423
6.39115
6.3949
6.39595
6.3947
6.39151
6.3867
6.38054
6.37327
6.3651
6.35619
6.34668
6.33671
6.32635
6.31569
6.30478
6.29367
6.28239
6.27097
6.25943
6.24778
6.23604
6.22422
6.21235
6.20044
6.18849
6.17652
6.16453
6.15254
6.14054
6.12853
6.11653
6.10452
6.09252
6.08051
6.06849
6.05647
6.04443
6.03239
6.02033
6.00825
5.99616
5.98404
5.97189
5.95972
5.94751
5.93526
5.92298
5.91065
5.89828
5.88586
5.87339
5.86087
5.84829
5.83564
5.82294
5.81017
5.79733
5.78441
5.77143
5.75837
5.74523
5.73201
5.71872
5.70533
5.69186
5.67831
5.66466
5.65093
5.6371
5.62319
5.60918
5.59508
5.5809
5.56662
5.55225
5.53781
5.52328
5.50868
5.49402
5.47929
5.46452
5.44973
5.43491
5.42009
5.40528
5.39048
5.37567
5.36081
5.34575
5.33025
5.31382
5.29571
5.27465
5.24889
5.21606
0.164831
0.158886
0.14537
0.127399
0.103766
0.0744644
0.0386645
-0.00425472
-0.0552068
-0.115068
-0.184827
-0.265605
-0.358732
-0.465744
-0.588324
-0.728109
-0.886458
-1.06427
-1.26186
-1.47914
-1.71578
-1.97137
-2.24554
-2.53769
-2.84609
-3.16745
-3.49692
-3.82884
-4.15806
-4.48092
-4.79706
-5.10896
-5.42055
-5.7356
-6.05571
-6.37865
-6.69652
-6.99676
-7.26262
-7.47538
-7.6164
-7.66786
-7.61324
-7.43828
-7.13282
-6.69365
-6.12715
-5.45044
-4.68894
-3.87199
-3.03053
-2.19375
-1.38628
-0.627044
0.0723117
0.705462
1.27107
1.77109
2.21055
2.59706
2.93898
3.24413
3.51858
3.76798
3.99831
4.21625
4.42813
4.63774
4.8441
5.0426
5.22923
5.40297
5.56451
5.71325
5.84634
5.96001
6.05319
6.12761
6.18645
6.23303
6.26996
6.29915
6.32194
6.33935
6.35222
6.3612
6.36688
6.36974
6.37021
6.36864
6.36534
6.3606
6.35466
6.34774
6.34
6.33159
6.32264
6.31325
6.3035
6.29345
6.28315
6.27264
6.26195
6.2511
6.2401
6.22897
6.21773
6.20639
6.19497
6.18348
6.17193
6.16034
6.14871
6.13705
6.12536
6.11364
6.1019
6.09013
6.07834
6.06653
6.05469
6.04283
6.03094
6.01902
6.00707
5.99509
5.98308
5.97103
5.95894
5.9468
5.93463
5.92241
5.91014
5.89782
5.88544
5.87301
5.86053
5.84798
5.83536
5.82268
5.80993
5.79711
5.78422
5.77125
5.7582
5.74508
5.73187
5.71858
5.7052
5.69174
5.67818
5.66454
5.6508
5.63697
5.62305
5.60903
5.59491
5.5807
5.56639
5.55199
5.53749
5.5229
5.50822
5.49346
5.4786
5.46367
5.44867
5.43359
5.41844
5.4032
5.38786
5.37236
5.35661
5.34043
5.32353
5.3054
5.28527
5.26201
5.23404
5.1994
0.00761598
-0.000929817
-0.0201922
-0.0457656
-0.0789021
-0.119816
-0.169582
-0.229008
-0.299264
-0.381561
-0.477526
-0.588977
-0.71788
-0.86586
-1.03399
-1.22271
-1.43185
-1.66066
-1.90785
-2.17184
-2.45123
-2.7453
-3.05407
-3.37775
-3.71581
-4.06675
-4.42757
-4.794
-5.16175
-5.52727
-5.88915
-6.24724
-6.60222
-6.95481
-7.30443
-7.64836
-7.97902
-8.28436
-8.54828
-8.7521
-8.87607
-8.9008
-8.80762
-8.58017
-8.20736
-7.68744
-7.03075
-6.25821
-5.3994
-4.48694
-3.55451
-2.63423
-1.75335
-0.931861
-0.181989
0.490504
1.08501
1.60609
2.06075
2.4586
2.80955
3.12229
3.4033
3.65804
3.8926
4.1144
4.33011
4.54295
4.75158
4.95177
5.14022
5.31673
5.48257
5.63701
5.77644
5.8962
5.99458
6.07324
6.13568
6.1855
6.22546
6.2575
6.28299
6.30294
6.31818
6.32937
6.33712
6.34193
6.34423
6.34439
6.34272
6.3395
6.33499
6.32939
6.32289
6.31566
6.3078
6.29944
6.29065
6.2815
6.27205
6.26234
6.2524
6.24226
6.23194
6.22146
6.21082
6.20004
6.18915
6.17815
6.16705
6.15588
6.14464
6.13334
6.12197
6.11056
6.0991
6.08759
6.07604
6.06444
6.0528
6.04112
6.02939
6.01763
6.00581
5.99396
5.98205
5.9701
5.9581
5.94605
5.93395
5.9218
5.90959
5.89732
5.885
5.87261
5.86016
5.84764
5.83506
5.82241
5.80968
5.79688
5.78401
5.77106
5.75803
5.74491
5.73172
5.71843
5.70506
5.6916
5.67805
5.66441
5.65067
5.63683
5.6229
5.60887
5.59473
5.5805
5.56616
5.55172
5.53717
5.52252
5.50776
5.49289
5.47791
5.46281
5.4476
5.43226
5.41678
5.40112
5.38525
5.36908
5.35248
5.33525
5.31705
5.29738
5.27548
5.25031
5.22049
5.18437
-0.157948
-0.169511
-0.196206
-0.232693
-0.280053
-0.338455
-0.409337
-0.49395
-0.594446
-0.713181
-0.852742
-1.01499
-1.20082
-1.40991
-1.64097
-1.89213
-2.16127
-2.44582
-2.74292
-3.0501
-3.36624
-3.69184
-4.02859
-4.37845
-4.74244
-5.11966
-5.50649
-5.89709
-6.28464
-6.663
-7.02865
-7.38043
-7.71899
-8.04619
-8.36341
-8.66985
-8.9596
-9.22085
-9.43733
-9.5902
-9.65891
-9.62452
-9.46943
-9.179
-8.74448
-8.16623
-7.45533
-6.63275
-5.72774
-4.77355
-3.80463
-2.85336
-1.94692
-1.10486
-0.338995
0.345411
0.948583
1.47577
1.93522
2.33754
2.69302
3.01032
3.29608
3.55574
3.7953
4.02207
4.24231
4.45844
4.66883
4.87019
5.06052
5.24014
5.40995
5.56851
5.71155
5.83439
5.93559
6.01713
6.08263
6.1356
6.1787
6.21375
6.24209
6.26473
6.28247
6.29599
6.30592
6.31278
6.31701
6.31898
6.31903
6.31742
6.3144
6.3102
6.30502
6.299
6.2923
6.28501
6.27722
6.26902
6.26045
6.25157
6.24241
6.23301
6.22339
6.21356
6.20354
6.19335
6.18301
6.17252
6.1619
6.15117
6.14034
6.12941
6.1184
6.10731
6.09615
6.08491
6.07361
6.06224
6.05081
6.03932
6.02777
6.01616
6.00449
5.99276
5.98097
5.96913
5.95723
5.94526
5.93324
5.92116
5.90901
5.8968
5.88452
5.87218
5.85977
5.84729
5.83474
5.82212
5.80942
5.79664
5.78379
5.77086
5.75784
5.74474
5.73156
5.71828
5.70492
5.69146
5.67792
5.66427
5.65053
5.63669
5.62275
5.6087
5.59455
5.58029
5.56593
5.55144
5.53685
5.52213
5.50729
5.49232
5.47721
5.46196
5.44654
5.43094
5.41513
5.39907
5.38268
5.36587
5.34847
5.33026
5.31087
5.28981
5.26635
5.23954
5.20816
5.17081
-0.335057
-0.350355
-0.387154
-0.439391
-0.507984
-0.592922
-0.69688
-0.822723
-0.974272
-1.154
-1.36317
-1.60109
-1.86566
-2.15339
-2.46027
-2.78158
-3.11231
-3.44775
-3.78449
-4.12109
-4.45822
-4.79755
-5.14109
-5.49028
-5.84512
-6.20338
-6.56071
-6.91144
-7.24965
-7.5706
-7.87243
-8.15574
-8.42221
-8.67461
-8.91427
-9.14038
-9.34706
-9.52687
-9.66365
-9.74025
-9.7385
-9.64151
-9.43355
-9.10167
-8.63842
-8.04458
-7.33044
-6.5158
-5.62752
-4.69602
-3.75332
-2.82981
-1.95047
-1.13304
-0.388412
0.278529
0.868145
1.38539
1.83861
2.23813
2.59332
2.91183
3.20001
3.46362
3.70859
3.941
4.16538
4.38325
4.59376
4.79556
4.98817
5.17183
5.34583
5.50721
5.65135
5.77454
5.87655
5.95989
6.02805
6.08413
6.13042
6.16857
6.19984
6.22521
6.24551
6.26144
6.27361
6.28258
6.2888
6.29266
6.29447
6.29453
6.29307
6.29032
6.2865
6.28175
6.27624
6.27006
6.26331
6.25608
6.24843
6.2404
6.23205
6.2234
6.21449
6.20534
6.19596
6.18637
6.17659
6.16663
6.15651
6.14624
6.13584
6.12531
6.11466
6.10391
6.09305
6.0821
6.07106
6.05993
6.04872
6.03743
6.02606
6.01462
6.0031
5.99151
5.97984
5.96811
5.95631
5.94443
5.93249
5.92048
5.9084
5.89625
5.88403
5.87173
5.85937
5.84692
5.83441
5.82181
5.80914
5.79639
5.78356
5.77065
5.75765
5.74456
5.73139
5.71812
5.70477
5.69132
5.67777
5.66413
5.65039
5.63654
5.62259
5.60854
5.59437
5.58009
5.56569
5.55117
5.53652
5.52175
5.50683
5.49176
5.47652
5.46111
5.44549
5.42965
5.41352
5.39707
5.38019
5.36277
5.34462
5.3255
5.30503
5.28273
5.2579
5.22967
5.19696
5.15858
-0.527634
-0.549017
-0.601063
-0.677728
-0.781085
-0.911945
-1.07556
-1.27561
-1.51442
-1.78997
-2.09863
-2.43523
-2.79377
-3.16605
-3.54333
-3.91796
-4.28407
-4.63729
-4.97449
-5.29442
-5.59739
-5.8847
-6.15864
-6.42225
-6.67927
-6.93185
-7.18015
-7.42359
-7.65787
-7.8815
-8.09056
-8.28355
-8.46008
-8.62091
-8.76661
-8.89653
-9.00743
-9.09355
-9.1438
-9.14424
-9.07957
-8.93478
-8.69639
-8.35394
-7.90166
-7.34051
-6.67905
-5.93342
-5.12549
-4.28038
-3.42485
-2.58465
-1.78097
-1.02921
-0.339338
0.283649
0.839592
1.33258
1.76982
2.15985
2.51016
2.82677
3.1154
3.38207
3.63216
3.86957
4.09661
4.31435
4.52378
4.72615
4.92211
5.11058
5.28824
5.45057
5.59342
5.71508
5.81681
5.90145
5.97206
6.03113
6.08055
6.12175
6.15593
6.18405
6.20695
6.22533
6.23983
6.25099
6.25927
6.26509
6.26875
6.27054
6.2707
6.26948
6.26706
6.26365
6.25938
6.25436
6.24871
6.2425
6.23581
6.22868
6.22117
6.21331
6.20514
6.19668
6.18796
6.17899
6.1698
6.1604
6.1508
6.14102
6.13106
6.12095
6.1107
6.1003
6.08978
6.07913
6.06837
6.05749
6.04651
6.03543
6.02426
6.01299
6.00163
5.99018
5.97865
5.96703
5.95534
5.94356
5.9317
5.91977
5.90776
5.89567
5.8835
5.87126
5.85894
5.84653
5.83405
5.82149
5.80885
5.79612
5.78332
5.77042
5.75744
5.74437
5.73121
5.71796
5.70461
5.69117
5.67763
5.66399
5.65024
5.63639
5.62244
5.60837
5.59418
5.57988
5.56545
5.5509
5.5362
5.52136
5.50637
5.4912
5.47585
5.46028
5.44447
5.42838
5.41196
5.39513
5.37779
5.35979
5.34095
5.321
5.29956
5.27615
5.25011
5.22066
5.18683
5.14759
-0.732068
-0.765266
-0.843715
-0.96283
-1.12835
-1.34241
-1.60974
-1.92639
-2.28493
-2.67395
-3.08205
-3.49653
-3.90593
-4.29989
-4.67018
-5.01048
-5.31561
-5.5808
-5.80721
-5.99762
-6.16098
-6.30515
-6.44004
-6.57283
-6.707
-6.84565
-6.98911
-7.13542
-7.28031
-7.41982
-7.54917
-7.66484
-7.76531
-7.85066
-7.92162
-7.97839
-8.01921
-8.03975
-8.0324
-7.9868
-7.89085
-7.73227
-7.49982
-7.18469
-6.78211
-6.29275
-5.72313
-5.08529
-4.39549
-3.67261
-2.93712
-2.20917
-1.50606
-0.841075
-0.223439
0.34178
0.853751
1.31522
1.73121
2.10759
2.44951
2.76153
3.04898
3.31747
3.57097
3.81126
4.03923
4.25656
4.46611
4.6705
4.87008
5.06173
5.24008
5.40028
5.53985
5.65914
5.7603
5.84598
5.91859
5.98011
6.03213
6.07595
6.11271
6.14336
6.16871
6.18946
6.20621
6.21951
6.22981
6.23754
6.24301
6.24651
6.24829
6.24856
6.24756
6.24546
6.24242
6.23858
6.23402
6.22883
6.2231
6.21687
6.2102
6.20313
6.1957