/*--------------------------------*- C++ -*----------------------------------*\
  =========                 |
  \\      /  F ield         | OpenFOAM: The Open Source CFD Toolbox
   \\    /   O peration     | Website:  https://openfoam.org
    \\  /    A nd           | Version:  7
     \\/     M anipulation  |
\*---------------------------------------------------------------------------*/
FoamFile
{
    version     2.0;
    format      ascii;
    class       volVectorField;
    location    "0.035";
    object      U;
}
// * * * * * * * * * * * * * * * * * * * * * * * * * * * * * * * * * * * * * //

dimensions      [0 1 -1 0 0 0 0];

internalField   nonuniform List<vector> 
12225
(
(4.69929 0.143389 0)
(4.12871 0.105834 0)
(3.65858 0.103092 0)
(3.28215 0.0854158 0)
(2.95876 0.0684113 0)
(2.64194 0.0608268 0)
(2.31286 0.0548731 0)
(1.99888 0.0449998 0)
(1.72153 0.0350603 0)
(1.4844 0.0281851 0)
(1.28209 0.0230206 0)
(1.10944 0.0184544 0)
(0.959421 0.0138126 0)
(0.837911 0.00937018 0)
(0.730909 0.00614326 0)
(0.651327 0.00457337 0)
(0.561213 0.00998475 0)
(0.477031 0.00455278 0)
(5.00044 0.13818 0)
(4.85852 0.0743774 0)
(4.75414 0.0883805 0)
(4.66763 0.0856214 0)
(4.56767 0.0842603 0)
(4.44839 0.0946769 0)
(4.31223 0.107988 0)
(4.17503 0.113308 0)
(4.04028 0.109468 0)
(3.89785 0.101837 0)
(3.73939 0.0941508 0)
(3.57202 0.0867393 0)
(3.40791 0.0783441 0)
(3.26481 0.0689293 0)
(3.13065 0.0618807 0)
(3.02154 0.057918 0)
(2.89297 0.0637613 0)
(2.77912 0.0696475 0)
(4.97625 0.163222 0)
(4.8825 0.106442 0)
(4.82414 0.132778 0)
(4.7821 0.136712 0)
(4.72251 0.129629 0)
(4.66114 0.128076 0)
(4.6191 0.129544 0)
(4.60108 0.125735 0)
(4.59359 0.119053 0)
(4.57888 0.117527 0)
(4.54769 0.122491 0)
(4.49759 0.127737 0)
(4.43359 0.125577 0)
(4.36122 0.115808 0)
(4.28793 0.104649 0)
(4.21477 0.0988839 0)
(4.14902 0.106106 0)
(4.07892 0.122166 0)
(4.90429 0.170963 0)
(4.82692 0.104632 0)
(4.7616 0.114364 0)
(4.74362 0.123636 0)
(4.73407 0.125418 0)
(4.71989 0.127401 0)
(4.70872 0.128011 0)
(4.70373 0.122739 0)
(4.69784 0.11646 0)
(4.68598 0.116758 0)
(4.67223 0.123763 0)
(4.65935 0.13039 0)
(4.64714 0.130639 0)
(4.62952 0.124444 0)
(4.60643 0.117197 0)
(4.57553 0.114143 0)
(4.5461 0.121016 0)
(4.51664 0.136208 0)
(4.99715 0.185628 0)
(4.91636 0.121459 0)
(4.83191 0.137402 0)
(4.80893 0.142547 0)
(4.80708 0.13755 0)
(4.80129 0.132335 0)
(4.79205 0.129786 0)
(4.78071 0.127091 0)
(4.76333 0.124948 0)
(4.7399 0.126231 0)
(4.71861 0.13048 0)
(4.70585 0.133974 0)
(4.7005 0.13379 0)
(4.69443 0.13039 0)
(4.6825 0.12762 0)
(4.66301 0.128963 0)
(4.6413 0.137096 0)
(4.62167 0.151199 0)
(5.14365 0.197939 0)
(4.99349 0.13031 0)
(4.87646 0.129465 0)
(4.8155 0.134834 0)
(4.79477 0.137694 0)
(4.78044 0.137649 0)
(4.76162 0.135914 0)
(4.74407 0.13273 0)
(4.73076 0.130661 0)
(4.71994 0.132228 0)
(4.71164 0.1363 0)
(4.7066 0.139395 0)
(4.70376 0.139271 0)
(4.69935 0.136832 0)
(4.69268 0.135139 0)
(4.68373 0.136908 0)
(4.67725 0.143191 0)
(4.67333 0.153209 0)
(5.00008 0.282485 0)
(4.91915 0.211031 0)
(4.82776 0.182253 0)
(4.77098 0.160614 0)
(4.75649 0.145889 0)
(4.76149 0.141819 0)
(4.76477 0.142724 0)
(4.76143 0.141521 0)
(4.75542 0.138152 0)
(4.7505 0.13619 0)
(4.74873 0.13662 0)
(4.74939 0.137247 0)
(4.7497 0.136371 0)
(4.7462 0.134445 0)
(4.7397 0.133729 0)
(4.73168 0.136017 0)
(4.72723 0.141861 0)
(4.72628 0.150893 0)
(4.95322 0.235284 0)
(4.92757 0.178468 0)
(4.92195 0.169323 0)
(4.8936 0.161473 0)
(4.84098 0.151087 0)
(4.79658 0.142358 0)
(4.78194 0.136736 0)
(4.79464 0.132694 0)
(4.81989 0.130215 0)
(4.84298 0.130954 0)
(4.85594 0.134873 0)
(4.85651 0.139645 0)
(4.84613 0.143083 0)
(4.82749 0.144419 0)
(4.80635 0.144543 0)
(4.78741 0.144915 0)
(4.77601 0.146213 0)
(4.77223 0.149883 0)
(4.95472 0.329207 0)
(4.96231 0.220823 0)
(4.94109 0.184607 0)
(4.89986 0.181205 0)
(4.87519 0.176038 0)
(4.87076 0.161326 0)
(4.8713 0.14259 0)
(4.86653 0.127298 0)
(4.85806 0.120049 0)
(4.8507 0.121937 0)
(4.84708 0.130666 0)
(4.84621 0.141806 0)
(4.84563 0.151135 0)
(4.84318 0.156005 0)
(4.83909 0.156435 0)
(4.83419 0.154174 0)
(4.8307 0.151229 0)
(4.82748 0.150304 0)
(5.11176 0.273853 0)
(5.07801 0.209974 0)
(4.96342 0.190606 0)
(4.9 0.182633 0)
(4.88041 0.164629 0)
(4.87428 0.149763 0)
(4.8671 0.142603 0)
(4.85795 0.139025 0)
(4.84931 0.136076 0)
(4.84146 0.134752 0)
(4.83554 0.136855 0)
(4.83342 0.141785 0)
(4.83666 0.146983 0)
(4.84416 0.150171 0)
(4.85354 0.150877 0)
(4.86187 0.150297 0)
(4.86718 0.150135 0)
(4.86791 0.151813 0)
(5.00091 0.300257 0)
(4.9742 0.267857 0)
(4.95061 0.245235 0)
(4.93126 0.216752 0)
(4.90783 0.188657 0)
(4.89132 0.166345 0)
(4.88813 0.148473 0)
(4.89182 0.135397 0)
(4.89197 0.129066 0)
(4.88301 0.12959 0)
(4.8681 0.134442 0)
(4.85431 0.13991 0)
(4.84678 0.143176 0)
(4.84553 0.144013 0)
(4.84768 0.143579 0)
(4.84985 0.144057 0)
(4.85 0.146466 0)
(4.8484 0.151138 0)
(5.07407 0.301468 0)
(4.99284 0.275991 0)
(4.93425 0.219768 0)
(4.93197 0.191591 0)
(4.946 0.174364 0)
(4.94899 0.158322 0)
(4.93568 0.145083 0)
(4.91567 0.139131 0)
(4.89812 0.141025 0)
(4.88542 0.147131 0)
(4.87697 0.152776 0)
(4.87166 0.154984 0)
(4.86847 0.153493 0)
(4.86534 0.150465 0)
(4.86242 0.148144 0)
(4.85861 0.14842 0)
(4.8573 0.150931 0)
(4.85664 0.155388 0)
(4.93795 0.276056 0)
(5.0184 0.290511 0)
(5.0262 0.254162 0)
(5.00329 0.214794 0)
(4.96484 0.190519 0)
(4.92074 0.176934 0)
(4.88545 0.16539 0)
(4.86985 0.153978 0)
(4.87293 0.14545 0)
(4.88561 0.141895 0)
(4.89934 0.142637 0)
(4.90954 0.145245 0)
(4.91566 0.14765 0)
(4.9188 0.148899 0)
(4.92164 0.149086 0)
(4.92482 0.148717 0)
(4.93096 0.148109 0)
(4.93669 0.148209 0)
(5.03288 0.310294 0)
(4.98311 0.275274 0)
(4.9454 0.238615 0)
(4.947 0.217178 0)
(4.96571 0.207651 0)
(4.98224 0.193886 0)
(4.98812 0.169352 0)
(4.98191 0.14328 0)
(4.96725 0.128058 0)
(4.95028 0.127108 0)
(4.93713 0.134578 0)
(4.93138 0.142391 0)
(4.93332 0.145572 0)
(4.94102 0.14407 0)
(4.95088 0.14056 0)
(4.95998 0.137948 0)
(4.96571 0.138401 0)
(4.96764 0.141997 0)
(4.98203 0.359665 0)
(4.97433 0.315469 0)
(4.9672 0.246073 0)
(4.98006 0.196898 0)
(5.00561 0.168572 0)
(5.03206 0.161721 0)
(5.04527 0.168694 0)
(5.03844 0.177505 0)
(5.01636 0.180286 0)
(4.99009 0.175518 0)
(4.96885 0.165344 0)
(4.95602 0.153255 0)
(4.95012 0.142501 0)
(4.94775 0.135939 0)
(4.94664 0.13464 0)
(4.94542 0.138071 0)
(4.94485 0.144332 0)
(4.94541 0.151011 0)
(5.00281 0.364733 0)
(5.00392 0.310489 0)
(5.00346 0.249477 0)
(4.9789 0.2062 0)
(4.94349 0.178029 0)
(4.92259 0.163244 0)
(4.92103 0.158996 0)
(4.93237 0.159591 0)
(4.94953 0.160654 0)
(4.96746 0.160713 0)
(4.98311 0.159148 0)
(4.99494 0.155717 0)
(5.00265 0.150836 0)
(5.00652 0.145298 0)
(5.00801 0.140073 0)
(5.00822 0.135907 0)
(5.0093 0.133027 0)
(5.01098 0.13217 0)
(4.97958 0.373115 0)
(4.93224 0.290934 0)
(4.93827 0.244902 0)
(4.93772 0.231064 0)
(4.93292 0.207463 0)
(4.93838 0.178096 0)
(4.95234 0.158513 0)
(4.96767 0.15038 0)
(4.98227 0.14674 0)
(4.9969 0.142295 0)
(5.01207 0.136425 0)
(5.02716 0.131519 0)
(5.04073 0.129745 0)
(5.05049 0.13176 0)
(5.05492 0.136423 0)
(5.0539 0.141877 0)
(5.04886 0.146765 0)
(5.04188 0.149742 0)
(5.03143 0.418435 0)
(5.00425 0.339013 0)
(4.99302 0.265207 0)
(4.99051 0.229123 0)
(4.97928 0.189603 0)
(4.96604 0.149261 0)
(4.95614 0.12352 0)
(4.95554 0.115309 0)
(4.96599 0.115435 0)
(4.98241 0.114298 0)
(4.99804 0.109941 0)
(5.00825 0.106625 0)
(5.01272 0.108762 0)
(5.01285 0.117441 0)
(5.01222 0.129725 0)
(5.0128 0.142023 0)
(5.01734 0.150679 0)
(5.02579 0.154645 0)
(4.84027 0.25183 0)
(4.87988 0.236726 0)
(4.91816 0.240154 0)
(4.96199 0.231286 0)
(4.99112 0.223437 0)
(4.99738 0.209067 0)
(4.9902 0.178914 0)
(4.98472 0.13974 0)
(4.98689 0.106863 0)
(4.99451 0.0912687 0)
(5.00429 0.0943266 0)
(5.01461 0.109427 0)
(5.02578 0.126886 0)
(5.03868 0.138652 0)
(5.05479 0.13974 0)
(5.07391 0.130922 0)
(5.09627 0.11384 0)
(5.11924 0.0945312 0)
(4.94104 0.217933 0)
(4.94491 0.172448 0)
(4.96686 0.166984 0)
(4.97912 0.163525 0)
(5.00108 0.16604 0)
(5.03822 0.163201 0)
(5.07459 0.147847 0)
(5.09516 0.12397 0)
(5.09823 0.100144 0)
(5.09226 0.0825352 0)
(5.08797 0.0723141 0)
(5.09221 0.0672312 0)
(5.10603 0.0639334 0)
(5.12619 0.0600501 0)
(5.1482 0.0545895 0)
(5.16799 0.0482303 0)
(5.18397 0.0420318 0)
(5.1943 0.03741 0)
(4.94597 0.235716 0)
(4.93652 0.138677 0)
(4.95491 0.153563 0)
(4.99521 0.155987 0)
(5.03806 0.129656 0)
(5.07284 0.107277 0)
(5.09891 0.102054 0)
(5.11843 0.106146 0)
(5.13269 0.106909 0)
(5.14293 0.0982478 0)
(5.15187 0.0823432 0)
(5.16244 0.0652452 0)
(5.17583 0.0519642 0)
(5.19075 0.044555 0)
(5.20557 0.0420546 0)
(5.21879 0.0424059 0)
(5.23022 0.0433927 0)
(5.2396 0.0437216 0)
(5.03477 0.323224 0)
(4.9966 0.166386 0)
(4.97815 0.113369 0)
(4.9906 0.102116 0)
(5.0201 0.0964592 0)
(5.04793 0.0920844 0)
(5.07108 0.0886328 0)
(5.09379 0.0849206 0)
(5.11545 0.0788548 0)
(5.13334 0.0690357 0)
(5.14722 0.0560331 0)
(5.15907 0.0420454 0)
(5.17093 0.0297441 0)
(5.18356 0.0210549 0)
(5.19675 0.0159132 0)
(5.20976 0.0137021 0)
(5.22229 0.0127926 0)
(5.23349 0.0124752 0)
(5.01784 0.210773 0)
(5.03574 0.17956 0)
(5.06168 0.131805 0)
(5.07881 0.102799 0)
(5.10217 0.0806003 0)
(5.1304 0.0604087 0)
(5.15818 0.0498414 0)
(5.18306 0.050041 0)
(5.20349 0.0529933 0)
(5.21861 0.050621 0)
(5.22883 0.0407103 0)
(5.23612 0.0264474 0)
(5.24302 0.012715 0)
(5.25066 0.0033716 0)
(5.25961 -0.000593358 0)
(5.26883 -0.000672555 0)
(5.27762 0.00134251 0)
(5.28388 0.00404822 0)
(5.05427 0.250967 0)
(5.05956 0.156449 0)
(5.09943 0.0967905 0)
(5.13912 0.0758451 0)
(5.1693 0.0613333 0)
(5.18549 0.0482282 0)
(5.19654 0.043723 0)
(5.21052 0.0478576 0)
(5.22599 0.0535487 0)
(5.23818 0.053771 0)
(5.24519 0.0461377 0)
(5.24859 0.0326284 0)
(5.25243 0.016953 0)
(5.25951 0.003407 0)
(5.27047 -0.00491427 0)
(5.28462 -0.00746873 0)
(5.30211 -0.0056172 0)
(5.32119 -0.000930257 0)
(5.06823 0.195206 0)
(5.08913 0.135069 0)
(5.11209 0.0803672 0)
(5.12096 0.060542 0)
(5.11465 0.0501149 0)
(5.10443 0.0337803 0)
(5.1067 0.0197666 0)
(5.12874 0.0166245 0)
(5.16461 0.0218738 0)
(5.20423 0.0267539 0)
(5.24081 0.0243211 0)
(5.27162 0.0136856 0)
(5.29722 -0.00111742 0)
(5.31884 -0.0167119 0)
(5.33683 -0.0299148 0)
(5.3513 -0.0385834 0)
(5.36306 -0.0428562 0)
(5.37303 -0.0434902 0)
(4.89391 0.178973 0)
(4.96956 0.115398 0)
(5.05538 0.0886793 0)
(5.12894 0.0846324 0)
(5.18891 0.0776326 0)
(5.23742 0.0547539 0)
(5.27382 0.0280946 0)
(5.30311 0.0109316 0)
(5.33309 0.00519927 0)
(5.36821 0.00364368 0)
(5.40684 -0.000872728 0)
(5.44327 -0.0099774 0)
(5.47063 -0.0202814 0)
(5.48504 -0.0280838 0)
(5.4879 -0.0313247 0)
(5.48323 -0.0302928 0)
(5.47581 -0.0264905 0)
(5.47006 -0.0224624 0)
(4.93099 0.131558 0)
(5.0576 0.0433811 0)
(5.1742 0.0158611 0)
(5.21932 0.00384284 0)
(5.24852 -0.00848624 0)
(5.28596 -0.0190153 0)
(5.32244 -0.0223885 0)
(5.35125 -0.0215502 0)
(5.37489 -0.0220041 0)
(5.39792 -0.0261405 0)
(5.42169 -0.0319046 0)
(5.44382 -0.0360651 0)
(5.46149 -0.037467 0)
(5.47346 -0.0360186 0)
(5.48173 -0.0338508 0)
(5.4886 -0.0328843 0)
(5.49721 -0.0344373 0)
(5.50837 -0.0384953 0)
(4.92835 0.110706 0)
(5.08045 0.0236845 0)
(5.20286 0.049091 0)
(5.28276 0.054367 0)
(5.35427 0.0343437 0)
(5.42001 0.00951333 0)
(5.46899 -0.00746587 0)
(5.50004 -0.0150881 0)
(5.5189 -0.0181567 0)
(5.5313 -0.0215407 0)
(5.54153 -0.0267804 0)
(5.55264 -0.0322128 0)
(5.5664 -0.0357143 0)
(5.58357 -0.0367976 0)
(5.60439 -0.0366136 0)
(5.62728 -0.0366749 0)
(5.65108 -0.0377657 0)
(5.67251 -0.0398283 0)
(5.10926 -0.010561 0)
(5.21798 -0.0414151 0)
(5.26994 -0.031135 0)
(5.31776 -0.0539421 0)
(5.37534 -0.0695752 0)
(5.42527 -0.0679811 0)
(5.45775 -0.0566804 0)
(5.47614 -0.0452365 0)
(5.48794 -0.039321 0)
(5.49879 -0.040136 0)
(5.51022 -0.0457239 0)
(5.52066 -0.0528751 0)
(5.52703 -0.0589267 0)
(5.5279 -0.0629514 0)
(5.52248 -0.0652452 0)
(5.51225 -0.066634 0)
(5.49708 -0.067458 0)
(5.47969 -0.0675314 0)
(4.84265 0.0650617 0)
(5.01132 0.0183712 0)
(5.06273 0.0239536 0)
(4.97877 0.00171551 0)
(4.83463 -0.0180898 0)
(4.68197 -0.0272047 0)
(4.54717 -0.0283317 0)
(4.43768 -0.0265816 0)
(4.3455 -0.0266716 0)
(4.25585 -0.0302099 0)
(4.15754 -0.0351468 0)
(4.04879 -0.0378714 0)
(3.93543 -0.0364681 0)
(3.82563 -0.0319286 0)
(3.72329 -0.026634 0)
(3.62997 -0.0226692 0)
(3.54202 -0.0204496 0)
(3.46133 -0.0193019 0)
(0.0185484 -0.0493992 -6.7911e-21)
(0.0860207 -0.0896201 6.7419e-21)
(0.170702 -0.100186 0)
(0.254095 -0.101049 0)
(0.336943 -0.0994611 0)
(0.419674 -0.0977248 -6.55579e-21)
(0.502494 -0.0962983 0)
(0.585589 -0.0950286 0)
(0.668975 -0.0935805 0)
(0.752322 -0.0915405 0)
(0.83489 -0.0884721 6.36272e-21)
(0.915546 -0.0839194 0)
(0.992749 -0.0774479 0)
(1.06459 -0.068651 0)
(1.1289 -0.05726 0)
(1.18314 -0.043239 6.20635e-21)
(1.22537 -0.0263356 0)
(1.25302 -0.00777336 0)
(1.26602 0.0117999 0)
(1.26165 0.0318035 0)
(1.23836 0.0508315 0)
(1.1969 0.0641779 0)
(1.14046 0.0610696 0)
(1.0732 0.0304432 5.87768e-21)
(0.996338 -0.0278491 -5.82478e-21)
(0.902775 -0.0863334 5.7742e-21)
(0.783527 -0.100708 5.72701e-21)
(0.619882 -0.016106 0)
(0.372868 0.155281 0)
(0.0413488 0.283736 -5.58139e-21)
(-0.317764 0.324787 -5.53558e-21)
(-0.680708 0.336995 0)
(-1.03977 0.337474 0)
(-1.38924 0.329356 -5.45953e-21)
(-1.72521 0.315733 0)
(-2.0451 0.298722 0)
(-2.3476 0.279846 5.46609e-21)
(-2.63202 0.260072 0)
(-2.89811 0.240183 5.49242e-21)
(-3.14579 0.220535 1.10142e-20)
(-3.37489 0.201128 0)
(-3.58508 0.181917 0)
(-3.77591 0.162786 0)
(-3.94672 0.143636 0)
(-4.09674 0.124412 0)
(-4.22515 0.105112 1.10558e-20)
(-4.33118 0.0857962 1.1017e-20)
(-4.41414 0.0665744 1.09597e-20)
(-4.47354 0.0476485 0)
(-4.50923 0.0294152 -1.07863e-20)
(-4.52126 0.0123628 0)
(-4.51026 -0.0032407 1.05344e-20)
(-4.47962 -0.0174163 1.03816e-20)
(-4.42891 -0.0303845 0)
(-4.3604 -0.0420927 0)
(-4.27523 -0.0526345 0)
(-4.17503 -0.0619425 9.6413e-21)
(-4.06132 -0.0701061 0)
(-3.93547 -0.0771675 0)
(-3.79889 -0.0832052 0)
(-3.6528 -0.0883027 0)
(-3.49842 -0.0925128 0)
(-3.33689 -0.0958913 0)
(-3.16935 -0.0984645 0)
(-2.99695 -0.100265 0)
(-2.82082 -0.101348 -7.80498e-21)
(-2.64199 -0.101796 0)
(-2.46139 -0.101723 0)
(-2.2797 -0.101248 7.25722e-21)
(-2.09744 -0.100468 7.08505e-21)
(-1.91498 -0.0994312 0)
(-1.7327 -0.0981316 -6.75729e-21)
(-1.55105 -0.0965198 6.60236e-21)
(-1.37064 -0.0945206 0)
(-1.19225 -0.0920604 -6.31276e-21)
(-1.01678 -0.0890931 0)
(-0.845218 -0.0856028 0)
(-0.678522 -0.0816213 5.93461e-21)
(-0.517567 -0.0772659 0)
(-0.363157 -0.0725996 -5.72056e-21)
(-0.215747 -0.0676945 0)
(-0.0760994 -0.0627205 5.53361e-21)
(0.0550655 -0.0580141 5.44801e-21)
(0.178373 -0.0531597 5.36623e-21)
(0.294233 -0.0484547 1.05779e-20)
(0.402468 -0.0439301 -1.04312e-20)
(0.503265 -0.0396138 0)
(0.596869 -0.0355248 0)
(0.683568 -0.0316746 0)
(0.76368 -0.0280693 -9.90421e-21)
(0.837542 -0.0247108 -9.78334e-21)
(0.905503 -0.0215979 9.66556e-21)
(0.967916 -0.0187267 0)
(1.02514 -0.0160906 -9.43743e-21)
(1.07752 -0.0136805 -9.32633e-21)
(1.12541 -0.0114851 -9.21678e-21)
(1.16914 -0.00949082 0)
(1.20901 -0.00768247 0)
(1.24531 -0.00604408 0)
(1.27832 -0.00455959 -8.79016e-21)
(1.30825 -0.00321397 0)
(1.33533 -0.0019936 0)
(1.35974 -0.000887283 8.47873e-21)
(1.38164 0.000113547 0)
(1.40118 0.00101564 0)
(1.4185 0.0018224 8.17274e-21)
(1.43372 0.00253659 0)
(1.44696 0.00316057 0)
(1.45837 0.0036928 -7.8716e-21)
(1.46805 0.00413796 -7.77226e-21)
(1.47614 0.00449801 0)
(1.48278 0.00476906 7.57511e-21)
(1.48808 0.00496871 0)
(1.49217 0.0050951 -7.37998e-21)
(1.49521 0.00514002 0)
(1.49729 0.0051536 -7.18685e-21)
(1.49845 0.005158 -7.09103e-21)
(1.49884 0.00512158 0)
(1.49856 0.00503386 0)
(1.49772 0.00490386 0)
(1.49642 0.00473953 0)
(1.49475 0.00454914 0)
(1.49278 0.00434212 0)
(1.49059 0.00412482 0)
(1.48822 0.00390313 -6.34271e-21)
(1.48572 0.00368756 6.25145e-21)
(1.48311 0.00348431 0)
(1.48042 0.00328489 0)
(1.4777 0.00308006 0)
(1.47495 0.00287209 0)
(1.47218 0.00268011 1.16056e-20)
(1.4694 0.00250611 0)
(1.4666 0.00234781 -1.12539e-20)
(1.4638 0.00220421 1.10795e-20)
(1.46101 0.00207434 0)
(1.45822 0.00195585 0)
(1.45544 0.00184616 0)
(1.45267 0.00174262 -1.03924e-20)
(1.44994 0.00164302 -1.02232e-20)
(1.44724 0.0015466 0)
(1.44458 0.00145468 -9.88765e-21)
(1.44198 0.00136972 -9.72137e-21)
(1.43942 0.00129413 9.55606e-21)
(1.43691 0.00122934 0)
(1.43443 0.00117528 0)
(1.43199 0.00113067 9.06592e-21)
(1.42957 0.00109345 0)
(1.42716 0.00106149 0)
(1.42477 0.00103305 0)
(1.42237 0.00100702 0)
(1.41998 0.000982964 -8.26783e-21)
(1.41759 0.000960968 -8.11095e-21)
(1.41518 0.000941404 0)
(1.41275 0.000924763 -7.79987e-21)
(1.41031 0.000911493 0)
(1.40783 0.000902006 0)
(1.40531 0.000896695 -7.33974e-21)
(1.40276 0.000896 0)
(1.40013 0.000900543 -7.03719e-21)
(1.39744 0.000911027 0)
(1.39464 0.000928701 0)
(1.39176 0.000954613 -6.58938e-21)
(1.38869 0.00099151 0)
(1.38551 0.00104025 -6.29465e-21)
(1.382 0.00110757 0)
(1.37837 0.00119068 0)
(1.37415 0.00130844 0)
(1.36983 0.00144382 5.71347e-21)
(1.3644 0.00165305 0)
(1.35896 0.001867 -5.42642e-21)
(1.35149 0.00226138 0)
(1.34407 0.00258133 0)
(1.33327 0.00339962 0)
(1.32177 0.00381204 0)
(1.30591 0.00569731 0)
(1.28426 0.0059766 0)
(1.26289 0.0109868 0)
(1.21091 0.00989173 8.56661e-21)
(1.19367 0.0257978 0)
(1.03662 0.0191135 0)
(0.0238654 -0.172328 2.03738e-20)
(0.0745639 -0.248136 -2.02271e-20)
(0.125954 -0.256256 0)
(0.176272 -0.252694 1.3296e-20)
(0.227885 -0.249328 0)
(0.281047 -0.247921 6.55757e-21)
(0.335916 -0.247872 -1.30346e-20)
(0.392289 -0.248223 -1.29542e-20)
(0.449863 -0.247979 0)
(0.508048 -0.246114 -1.28049e-20)
(0.565996 -0.241664 -6.36681e-21)
(0.622561 -0.233536 0)
(0.676208 -0.220735 0)
(0.725051 -0.202313 0)
(0.76687 -0.177853 0)
(0.799262 -0.147254 -6.21279e-21)
(0.819119 -0.111612 0)
(0.824691 -0.0716811 1.23158e-20)
(0.808257 -0.0278443 0)
(0.770082 0.0179569 0)
(0.704001 0.0611595 -1.20897e-20)
(0.601223 0.10071 0)
(0.456164 0.148161 1.19045e-20)
(0.257752 0.226094 -5.89084e-21)
(0.000389178 0.342044 5.83881e-21)
(-0.32047 0.478508 -5.78435e-21)
(-0.679077 0.610543 -5.73021e-21)
(-1.02632 0.723873 0)
(-1.34234 0.807451 0)
(-1.63806 0.848822 5.55803e-21)
(-1.91652 0.853762 -5.60821e-21)
(-2.18104 0.838827 0)
(-2.43202 0.808904 0)
(-2.6695 0.77018 5.4393e-21)
(-2.89374 0.726512 0)
(-3.10522 0.680693 0)
(-3.30457 0.634592 -5.451e-21)
(-3.49236 0.589183 0)
(-3.66888 0.544796 5.57718e-21)
(-3.83411 0.501218 -1.09924e-20)
(-3.98788 0.45799 0)
(-4.1299 0.41459 0)
(-4.25958 0.370602 -2.22988e-20)
(-4.37596 0.325682 -2.23104e-20)
(-4.47788 0.279623 -2.22971e-20)
(-4.56406 0.232358 1.12079e-20)
(-4.63336 0.184022 -1.10085e-20)
(-4.68479 0.134971 -3.30124e-20)
(-4.71762 0.0858027 2.19026e-20)
(-4.73142 0.0374034 1.07815e-20)
(-4.72621 -0.00922663 0)
(-4.70214 -0.0533205 -1.05301e-20)
(-4.65747 -0.0944298 1.04854e-20)
(-4.59471 -0.132317 0)
(-4.51422 -0.166715 0)
(-4.41778 -0.197548 0)
(-4.30678 -0.224779 -9.63704e-21)
(-4.18272 -0.248551 0)
(-4.04708 -0.269053 1.8502e-20)
(-3.90114 -0.286522 0)
(-3.74616 -0.301195 1.76558e-20)
(-3.58323 -0.313269 0)
(-3.41347 -0.322904 -1.68263e-20)
(-3.23799 -0.330221 0)
(-3.05794 -0.335341 1.60273e-20)
(-2.87449 -0.338438 -7.8398e-21)
(-2.68872 -0.339764 0)
(-2.50154 -0.339648 -1.49003e-20)
(-2.31358 -0.338459 -7.25466e-21)
(-2.12522 -0.336498 -7.08265e-21)
(-1.93668 -0.333905 0)
(-1.74818 -0.330631 -6.78387e-21)
(-1.56004 -0.326482 -6.60042e-21)
(-1.37282 -0.321183 0)
(-1.18727 -0.314468 6.31114e-21)
(-1.00436 -0.306174 -1.23701e-20)
(-0.8251 -0.296266 0)
(-0.650488 -0.284841 -5.9335e-21)
(-0.481414 -0.27219 0)
(-0.318637 -0.258553 1.71662e-20)
(-0.162581 -0.244268 0)
(-0.0142931 -0.229707 -1.66033e-20)
(0.126164 -0.215528 -5.44654e-21)
(0.259546 -0.201266 5.36914e-21)
(0.385756 -0.187387 1.05832e-20)
(0.504891 -0.174015 -1.0436e-20)
(0.617139 -0.161235 0)
(0.722738 -0.149096 0)
(0.821965 -0.137628 0)
(0.915119 -0.126842 2.97096e-20)
(1.00252 -0.116739 9.78017e-21)
(1.0845 -0.107314 -9.66234e-21)
(1.16139 -0.0985554 0)
(1.23354 -0.0904443 -9.43911e-21)
(1.3013 -0.082957 9.32286e-21)
(1.36498 -0.0760635 9.21323e-21)
(1.42492 -0.0697274 0)
(1.48142 -0.0639074 0)
(1.53475 -0.0585581 0)
(1.58518 -0.053632 8.78619e-21)
(1.63292 -0.0490821 0)
(1.67818 -0.0448636 -1.71583e-20)
(1.72111 -0.0409363 -2.5426e-20)
(1.76188 -0.0372665 1.6746e-20)
(1.80057 -0.0338265 0)
(1.83731 -0.0305966 8.17024e-21)
(1.87216 -0.0275633 0)
(1.90519 -0.0247173 1.59351e-20)
(1.93648 -0.0220553 -7.86832e-21)
(1.96607 -0.0195746 -7.76875e-21)
(1.99402 -0.0172726 0)
(2.0204 -0.0151524 -2.27111e-20)
(2.04524 -0.0132053 1.49453e-20)
(2.06862 -0.0114261 7.37468e-21)
(2.09058 -0.00981598 0)
(2.11119 -0.00835016 7.18145e-21)
(2.13055 -0.00702054 2.12576e-20)
(2.14872 -0.00584362 0)
(2.16574 -0.00481713 1.37915e-20)
(2.18166 -0.00392591 1.36028e-20)
(2.19651 -0.0031569 1.34151e-20)
(2.21034 -0.00249639 0)
(2.22319 -0.00193208 0)
(2.23512 -0.00145404 0)
(2.24617 -0.00104727 -6.3375e-21)
(2.25637 -0.000698312 -6.24602e-21)
(2.26578 -0.000406047 0)
(2.27444 -0.000165124 -1.21304e-20)
(2.28237 4.52921e-05 -1.1951e-20)
(2.28959 0.000247827 0)
(2.29618 0.000427469 -1.15952e-20)
(2.30214 0.000580504 -2.28381e-20)
(2.30754 0.000709804 1.12437e-20)
(2.31239 0.000816568 1.10697e-20)
(2.31675 0.000901757 0)
(2.32065 0.000970811 0)
(2.32412 0.00102442 0)
(2.32721 0.0010617 1.03831e-20)
(2.32993 0.00108433 -1.0214e-20)
(2.33233 0.00109326 -2.00918e-20)
(2.33442 0.00109043 9.87881e-21)
(2.33625 0.00107875 -9.71273e-21)
(2.33783 0.00106181 -9.54757e-21)
(2.33918 0.00104268 0)
(2.34033 0.00102353 0)
(2.3413 0.00100571 9.05798e-21)
(2.34211 0.000989985 0)
(2.34276 0.000976945 0)
(2.34329 0.000967174 -1.71537e-20)
(2.34369 0.000961232 0)
(2.34399 0.000959458 -8.26077e-21)
(2.34418 0.000961993 8.10405e-21)
(2.34426 0.000968746 0)
(2.34424 0.000979674 -7.79333e-21)
(2.34411 0.000994805 0)
(2.34387 0.00101451 0)
(2.34353 0.00103951 7.33368e-21)
(2.34307 0.0010708 -1.43643e-20)
(2.3425 0.00111019 7.03144e-21)
(2.34181 0.00115907 0)
(2.341 0.00122135 0)
(2.34006 0.00129764 -6.58419e-21)
(2.33895 0.00139737 0)
(2.33772 0.00151662 -6.2898e-21)
(2.33623 0.00168023 0)
(2.33459 0.00186653 0)
(2.33257 0.00214448 0)
(2.33034 0.00243169 -5.70905e-21)
(2.3275 0.00292592 0)
(2.32435 0.00335422 5.42227e-21)
(2.32023 0.00428906 0)
(2.31544 0.00488366 0)
(2.3094 0.00678932 -9.99118e-21)
(2.30128 0.00748567 9.70738e-21)
(2.29264 0.0117021 0)
(2.27676 0.0121465 0)
(2.26588 0.022362 0)
(2.22963 0.0216716 -2.56945e-20)
(2.22227 0.0488343 0)
(2.12908 0.0466663 1.59926e-20)
(0.0156171 -0.252935 -3.29131e-24)
(0.0257131 -0.306358 2.69704e-20)
(0.0344491 -0.307193 0)
(0.0425214 -0.307882 -2.65969e-20)
(0.0525944 -0.310881 0)
(0.0634417 -0.314918 0)
(0.0750809 -0.31907 6.46259e-24)
(0.0865124 -0.322108 1.29649e-20)
(0.097023 -0.322807 1.28808e-20)
(0.105515 -0.319867 1.28191e-20)
(0.110951 -0.311841 0)
(0.11189 -0.296991 0)
(0.106608 -0.273424 -1.26137e-20)
(0.0929206 -0.239603 -2.51106e-20)
(0.0686238 -0.194757 2.49975e-20)
(0.0305894 -0.138114 0)
(-0.0261304 -0.0685123 2.47704e-20)
(-0.104776 0.0153641 -1.23393e-20)
(-0.205685 0.115193 0)
(-0.332517 0.233405 2.43326e-20)
(-0.489967 0.368158 1.20934e-20)
(-0.679892 0.513212 -2.39695e-20)
(-0.897033 0.660098 -1.18856e-20)
(-1.12996 0.799905 0)
(-1.36651 0.924106 2.33713e-20)
(-1.59947 1.02505 2.3174e-20)
(-1.82123 1.10423 0)
(-2.0235 1.16416 2.28211e-20)
(-2.20386 1.20165 0)
(-2.3663 1.21177 2.25359e-20)
(-2.51657 1.1966 1.10965e-20)
(-2.66038 1.16318 0)
(-2.80162 1.11731 0)
(-2.94335 1.06456 0)
(-3.08711 1.00863 0)
(-3.2337 0.951843 0)
(-3.38291 0.895491 0)
(-3.53386 0.839921 2.23076e-20)
(-3.68505 0.784908 -3.3408e-20)
(-3.83468 0.729763 0)
(-3.98071 0.673601 0)
(-4.1208 0.615515 0)
(-4.25251 0.554776 -2.4136e-22)
(-4.37344 0.490819 2.2305e-20)
(-4.48122 0.423375 4.48288e-20)
(-4.57355 0.352509 -4.4744e-20)
(-4.64831 0.278656 -2.24162e-20)
(-4.70367 0.202643 2.20568e-20)
(-4.73816 0.125691 2.33517e-22)
(-4.75091 0.049226 2.19259e-20)
(-4.74189 -0.0255892 0)
(-4.71163 -0.097711 2.13741e-20)
(-4.66131 -0.165779 1.80212e-22)
(-4.59228 -0.228686 0)
(-4.5061 -0.285677 0)
(-4.4044 -0.336447 -1.98738e-20)
(-4.28891 -0.381039 0)
(-4.16117 -0.419724 0)
(-4.02257 -0.452924 1.86764e-20)
(-3.8743 -0.481097 3.63095e-20)
(-3.71735 -0.504655 -1.76511e-20)
(-3.55262 -0.523939 0)
(-3.38102 -0.539187 1.68217e-20)
(-3.20354 -0.550576 0)
(-3.02138 -0.558284 1.61536e-20)
(-2.83585 -0.562571 1.56373e-20)
(-2.64832 -0.563867 -3.06504e-20)
(-2.45994 -0.562788 -1.50206e-20)
(-2.27148 -0.560069 0)
(-2.0832 -0.556328 2.85058e-20)
(-1.8951 -0.551851 0)
(-1.70709 -0.546525 4.07049e-20)
(-1.51935 -0.539931 2.65328e-20)
(-1.33238 -0.531486 2.59209e-20)
(-1.14705 -0.520624 -2.53375e-20)
(-0.96454 -0.506995 3.71524e-20)
(-0.786096 -0.490559 0)
(-0.612897 -0.471561 0)
(-0.445957 -0.450487 -2.33308e-20)
(-0.286084 -0.427817 -3.4355e-20)
(-0.133639 -0.404232 0)
(0.0103677 -0.380588 1.1068e-20)
(0.146273 -0.356951 0)
(0.275124 -0.333694 -3.22095e-20)
(0.396809 -0.311108 1.46637e-23)
(0.511656 -0.289393 -1.38876e-23)
(0.619993 -0.268673 2.05938e-20)
(0.722138 -0.249024 0)
(0.818391 -0.230488 -2.0067e-20)
(0.909037 -0.213088 1.12331e-23)
(0.994352 -0.196829 0)
(1.07462 -0.181704 0)
(1.15012 -0.167696 0)
(1.22118 -0.154776 1.88716e-20)
(1.2881 -0.142905 0)
(1.35122 -0.132032 0)
(1.41086 -0.122096 0)
(1.46733 -0.113026 0)
(1.52092 -0.104744 0)
(1.57189 -0.0971692 1.7581e-20)
(1.62048 -0.0902191 0)
(1.66688 -0.0838151 1.71576e-20)
(1.71127 -0.0778852 1.69508e-20)
(1.75379 -0.072367 -1.67453e-20)
(1.79455 -0.0672084 0)
(1.83365 -0.062369 -1.63376e-20)
(1.87116 -0.0578184 0)
(1.90714 -0.053535 -1.59343e-20)
(1.94165 -0.0495053 1.57343e-20)
(1.97473 -0.045718 4.66108e-20)
(2.00643 -0.0421671 0)
(2.03678 -0.0388464 4.54251e-20)
(2.06582 -0.0357474 1.49482e-20)
(2.09358 -0.0328639 0)
(2.12012 -0.0301836 2.91143e-20)
(2.14544 -0.0276993 2.87283e-20)
(2.16959 -0.0254103 -4.25153e-20)
(2.1926 -0.0233067 0)
(2.2145 -0.0213731 -1.37904e-20)
(2.23533 -0.019594 -1.36016e-20)
(2.2551 -0.0179566 -4.02433e-20)
(2.27384 -0.0164483 0)
(2.29159 -0.0150573 0)
(2.30836 -0.0137743 0)
(2.32418 -0.0125873 -1.26743e-20)
(2.33908 -0.0114845 0)
(2.35309 -0.0104624 0)
(2.36624 -0.00951727 1.2129e-20)
(2.37856 -0.00863599 1.19496e-20)
(2.3901 -0.00779902 0)
(2.40088 -0.00701871 0)
(2.41093 -0.00629661 2.28352e-20)
(2.4203 -0.00563019 0)
(2.42901 -0.00501706 -2.21363e-20)
(2.4371 -0.00445288 -2.17902e-20)
(2.44458 -0.00393844 0)
(2.45148 -0.0034736 0)
(2.45783 -0.00305481 2.07634e-20)
(2.46367 -0.00268125 -1.05994e-25)
(2.46902 -0.00235045 -8.6386e-26)
(2.47392 -0.002058 0)
(2.47839 -0.00179979 3.8845e-20)
(2.48247 -0.00156998 0)
(2.48617 -0.00136325 0)
(2.48954 -0.00117578 0)
(2.49259 -0.00100553 -1.81131e-20)
(2.49536 -0.000851919 0)
(2.49786 -0.000714573 3.49397e-20)
(2.50012 -0.000592175 1.7151e-20)
(2.50215 -0.000481927 0)
(2.50399 -0.000379949 1.65188e-20)
(2.50563 -0.00028218 0)
(2.5071 -0.000185256 0)
(2.50842 -8.70234e-05 4.67524e-20)
(2.50958 1.36932e-05 -3.05521e-20)
(2.51059 0.000117257 0)
(2.51147 0.00022441 -2.93301e-20)
(2.51222 0.0003356 1.4362e-20)
(2.51284 0.000453482 0)
(2.51333 0.000579051 0)
(2.5137 0.00071907 0)
(2.51394 0.000873065 3.94987e-20)
(2.51404 0.00105681 0)
(2.514 0.0012623 1.25774e-20)
(2.51382 0.00152833 0)
(2.51343 0.00182082 0)
(2.51288 0.00224005 0)
(2.51203 0.00267034 0)
(2.51098 0.00337985 0)
(2.5094 0.00401531 0)
(2.50765 0.0053009 2.11181e-20)
(2.50484 0.00621872 0)
(2.50209 0.00871776 9.98948e-21)
(2.49706 0.00997992 -2.91218e-20)
(2.49295 0.0152154 0)
(2.48363 0.0168725 0)
(2.47801 0.0287118 1.77159e-20)
(2.46031 0.0313036 1.71311e-20)
(2.45441 0.0598794 -1.65816e-20)
(2.42316 0.0674856 -1.59886e-20)
(0.00173491 -0.256503 -4.07177e-20)
(-0.020646 -0.2851 -4.04318e-20)
(-0.0417162 -0.284979 -2.67557e-20)
(-0.0650935 -0.284689 -1.32722e-20)
(-0.0892866 -0.285724 0)
(-0.115627 -0.2869 2.62081e-20)
(-0.144526 -0.286929 -1.30013e-20)
(-0.176968 -0.28404 0)
(-0.213817 -0.276851 -1.28769e-20)
(-0.256156 -0.263893 0)
(-0.305162 -0.243347 2.54079e-20)
(-0.362096 -0.213398 0)
(-0.428259 -0.17197 1.26034e-20)
(-0.505191 -0.116892 2.50844e-20)
(-0.593684 -0.0455567 -2.49623e-20)
(-0.694146 0.0433247 0)
(-0.808396 0.150467 -2.47138e-20)
(-0.937292 0.27527 0)
(-1.07955 0.41524 0)
(-1.23182 0.565241 -2.42646e-20)
(-1.39008 0.718468 0)
(-1.55012 0.867333 8.06152e-23)
(-1.70735 1.005 0)
(-1.85699 1.12587 0)
(-1.99502 1.22554 4.38082e-24)
(-2.11934 1.30132 -2.31335e-20)
(-2.23028 1.35433 -2.30347e-20)
(-2.33045 1.38684 -2.27951e-20)
(-2.42436 1.40061 0)
(-2.51728 1.3969 -4.52154e-20)
(-2.61439 1.37898 0)
(-2.71927 1.35062 -2.25558e-20)
(-2.83415 1.31497 0)
(-2.9599 1.27427 0)
(-3.09577 1.2299 2.24935e-20)
(-3.2401 1.18245 0)
(-3.39046 1.13211 -2.25402e-20)
(-3.54411 1.07868 2.84309e-22)
(-3.69837 1.02172 4.49825e-20)
(-3.85073 0.960585 -4.53865e-20)
(-3.99872 0.894598 0)
(-4.13985 0.823053 0)
(-4.27162 0.745261 -2.3161e-20)
(-4.39145 0.66076 0)
(-4.49675 0.569511 -2.25308e-20)
(-4.58506 0.472 2.24897e-20)
(-4.65412 0.369214 2.24124e-20)
(-4.70193 0.262614 0)
(-4.72706 0.153958 -2.21333e-20)
(-4.72937 0.0450858 -2.19271e-20)
(-4.7099 -0.0618197 4.3939e-20)
(-4.66953 -0.164253 -2.13738e-20)
(-4.60953 -0.260031 -2.10394e-20)
(-4.53194 -0.347486 0)
(-4.43908 -0.425821 0)
(-4.33335 -0.49485 1.9872e-20)
(-4.21674 -0.554943 0)
(-4.09087 -0.606799 0)
(-3.95677 -0.651274 -3.71681e-20)
(-3.81499 -0.689193 -3.63028e-20)
(-3.66566 -0.721205 0)
(-3.50868 -0.747729 0)
(-3.34393 -0.768937 0)
(-3.17156 -0.784802 0)
(-2.99218 -0.795227 -3.21667e-20)
(-2.80703 -0.800326 3.15768e-20)
(-2.61788 -0.8007 3.0641e-20)
(-2.42669 -0.797488 5.99945e-20)
(-2.23503 -0.792098 0)
(-2.04359 -0.785744 1.6769e-22)
(-1.8523 -0.779011 0)
(-1.6608 -0.771678 -2.71623e-20)
(-1.46897 -0.762891 1.26956e-22)
(-1.27728 -0.751487 -2.59146e-20)
(-1.08687 -0.736354 2.53317e-20)
(-0.899265 -0.716849 7.31617e-23)
(-0.716164 -0.692918 0)
(-0.539174 -0.665039 2.38252e-20)
(-0.369572 -0.634058 2.33271e-20)
(-0.208361 -0.600925 4.58483e-20)
(-0.0563985 -0.566818 0)
(0.0858523 -0.533168 -2.21744e-20)
(0.218971 -0.499717 0)
(0.343644 -0.467315 4.29645e-20)
(0.460183 -0.436244 -2.11619e-20)
(0.569215 -0.406662 2.08684e-20)