# vtk DataFile Version 2.0
sampleSurface
ASCII
DATASET POLYDATA
POINTS 502 double
-0.0206 0 -0.0005
-0.0190172 0 -0.0005
-0.0190172 0 0.0005
-0.0206 0 0.0005
-0.0174976 0 -0.0005
-0.0174976 0 0.0005
-0.0160387 0 -0.0005
-0.0160387 0 0.0005
-0.0146381 0 -0.0005
-0.0146381 0 0.0005
-0.0132934 0 -0.0005
-0.0132934 0 0.0005
-0.0120025 0 -0.0005
-0.0120025 0 0.0005
-0.0107632 0 -0.0005
-0.0107632 0 0.0005
-0.00957337 0 -0.0005
-0.00957337 0 0.0005
-0.00843108 0 -0.0005
-0.00843108 0 0.0005
-0.00733443 0 -0.0005
-0.00733443 0 0.0005
-0.0062816 0 -0.0005
-0.0062816 0 0.0005
-0.00527083 0 -0.0005
-0.00527083 0 0.0005
-0.00430044 0 -0.0005
-0.00430044 0 0.0005
-0.00336883 0 -0.0005
-0.00336883 0 0.0005
-0.00247443 0 -0.0005
-0.00247443 0 0.0005
-0.00161577 0 -0.0005
-0.00161577 0 0.0005
-0.000791418 0 -0.0005
-0.000791418 0 0.0005
0 0 -0.0005
0 0 0.0005
0 -0.0254 -0.0005
0 -0.0254 0.0005
0 -0.0242711 0.0005
0 -0.0242711 -0.0005
0 -0.0231422 0.0005
0 -0.0231422 -0.0005
0 -0.0220133 0.0005
0 -0.0220133 -0.0005
0 -0.0208844 0.0005
0 -0.0208844 -0.0005
0 -0.0197556 0.0005
0 -0.0197556 -0.0005
0 -0.0186267 0.0005
0 -0.0186267 -0.0005
0 -0.0174978 0.0005
0 -0.0174978 -0.0005
0 -0.0163689 0.0005
0 -0.0163689 -0.0005
0 -0.01524 0.0005
0 -0.01524 -0.0005
0 -0.0141111 0.0005
0 -0.0141111 -0.0005
0 -0.0129822 0.0005
0 -0.0129822 -0.0005
0 -0.0118533 0.0005
0 -0.0118533 -0.0005
0 -0.0107244 0.0005
0 -0.0107244 -0.0005
0 -0.00959556 0.0005
0 -0.00959556 -0.0005
0 -0.00846667 0.0005
0 -0.00846667 -0.0005
0 -0.00726604 0.0005
0 -0.00726604 -0.0005
0 -0.00618989 0.0005
0 -0.00618989 -0.0005
0 -0.00522531 0.0005
0 -0.00522531 -0.0005
0 -0.00436073 0.0005
0 -0.00436073 -0.0005
0 -0.00358579 0.0005
0 -0.00358579 -0.0005
0 -0.00289118 0.0005
0 -0.00289118 -0.0005
0 -0.0022686 0.0005
0 -0.0022686 -0.0005
0 -0.00171055 0.0005
0 -0.00171055 -0.0005
0 -0.00121037 0.0005
0 -0.00121037 -0.0005
0 -0.000762037 0.0005
0 -0.000762037 -0.0005
0 -0.000360188 0.0005
0 -0.000360188 -0.0005
0.000528387 -0.0254 -0.0005
0.000528387 -0.0254 0.0005
0.00106088 -0.0254 -0.0005
0.00106088 -0.0254 0.0005
0.00159752 -0.0254 -0.0005
0.00159752 -0.0254 0.0005
0.00213833 -0.0254 -0.0005
0.00213833 -0.0254 0.0005
0.00268334 -0.0254 -0.0005
0.00268334 -0.0254 0.0005
0.00323259 -0.0254 -0.0005
0.00323259 -0.0254 0.0005
0.00378611 -0.0254 -0.0005
0.00378611 -0.0254 0.0005
0.00434393 -0.0254 -0.0005
0.00434393 -0.0254 0.0005
0.00490609 -0.0254 -0.0005
0.00490609 -0.0254 0.0005
0.00547262 -0.0254 -0.0005
0.00547262 -0.0254 0.0005
0.00604356 -0.0254 -0.0005
0.00604356 -0.0254 0.0005
0.00661893 -0.0254 -0.0005
0.00661893 -0.0254 0.0005
0.00719878 -0.0254 -0.0005
0.00719878 -0.0254 0.0005
0.00778313 -0.0254 -0.0005
0.00778313 -0.0254 0.0005
0.00837203 -0.0254 -0.0005
0.00837203 -0.0254 0.0005
0.00896551 -0.0254 -0.0005
0.00896551 -0.0254 0.0005
0.0095636 -0.0254 -0.0005
0.0095636 -0.0254 0.0005
0.0101663 -0.0254 -0.0005
0.0101663 -0.0254 0.0005
0.0107738 -0.0254 -0.0005
0.0107738 -0.0254 0.0005
0.0113859 -0.0254 -0.0005
0.0113859 -0.0254 0.0005
0.0120028 -0.0254 -0.0005
0.0120028 -0.0254 0.0005
0.0126245 -0.0254 -0.0005
0.0126245 -0.0254 0.0005
0.0132511 -0.0254 -0.0005
0.0132511 -0.0254 0.0005
0.0138825 -0.0254 -0.0005
0.0138825 -0.0254 0.0005
0.0145188 -0.0254 -0.0005
0.0145188 -0.0254 0.0005
0.0151601 -0.0254 -0.0005
0.0151601 -0.0254 0.0005
0.0158063 -0.0254 -0.0005
0.0158063 -0.0254 0.0005
0.0164576 -0.0254 -0.0005
0.0164576 -0.0254 0.0005
0.0171139 -0.0254 -0.0005
0.0171139 -0.0254 0.0005
0.0177754 -0.0254 -0.0005
0.0177754 -0.0254 0.0005
0.018442 -0.0254 -0.0005
0.018442 -0.0254 0.0005
0.0191137 -0.0254 -0.0005
0.0191137 -0.0254 0.0005
0.0197907 -0.0254 -0.0005
0.0197907 -0.0254 0.0005
0.020473 -0.0254 -0.0005
0.020473 -0.0254 0.0005
0.0211606 -0.0254 -0.0005
0.0211606 -0.0254 0.0005
0.0218535 -0.0254 -0.0005
0.0218535 -0.0254 0.0005
0.0225517 -0.0254 -0.0005
0.0225517 -0.0254 0.0005
0.0232555 -0.0254 -0.0005
0.0232555 -0.0254 0.0005
0.0239647 -0.0254 -0.0005
0.0239647 -0.0254 0.0005
0.0246794 -0.0254 -0.0005
0.0246794 -0.0254 0.0005
0.0253996 -0.0254 -0.0005
0.0253996 -0.0254 0.0005
0.0261255 -0.0254 -0.0005
0.0261255 -0.0254 0.0005
0.026857 -0.0254 -0.0005
0.026857 -0.0254 0.0005
0.0275942 -0.0254 -0.0005
0.0275942 -0.0254 0.0005
0.0283371 -0.0254 -0.0005
0.0283371 -0.0254 0.0005
0.0290858 -0.0254 -0.0005
0.0290858 -0.0254 0.0005
0.0298403 -0.0254 -0.0005
0.0298403 -0.0254 0.0005
0.0306007 -0.0254 -0.0005
0.0306007 -0.0254 0.0005
0.031367 -0.0254 -0.0005
0.031367 -0.0254 0.0005
0.0321393 -0.0254 -0.0005
0.0321393 -0.0254 0.0005
0.0329175 -0.0254 -0.0005
0.0329175 -0.0254 0.0005
0.0337019 -0.0254 -0.0005
0.0337019 -0.0254 0.0005
0.0344923 -0.0254 -0.0005
0.0344923 -0.0254 0.0005
0.0352888 -0.0254 -0.0005
0.0352888 -0.0254 0.0005
0.0360916 -0.0254 -0.0005
0.0360916 -0.0254 0.0005
0.0369006 -0.0254 -0.0005
0.0369006 -0.0254 0.0005
0.0377158 -0.0254 -0.0005
0.0377158 -0.0254 0.0005
0.0385375 -0.0254 -0.0005
0.0385375 -0.0254 0.0005
0.0393655 -0.0254 -0.0005
0.0393655 -0.0254 0.0005
0.0401999 -0.0254 -0.0005
0.0401999 -0.0254 0.0005
0.0410408 -0.0254 -0.0005
0.0410408 -0.0254 0.0005
0.0418883 -0.0254 -0.0005
0.0418883 -0.0254 0.0005
0.0427424 -0.0254 -0.0005
0.0427424 -0.0254 0.0005
0.0436031 -0.0254 -0.0005
0.0436031 -0.0254 0.0005
0.0444704 -0.0254 -0.0005
0.0444704 -0.0254 0.0005
0.0453446 -0.0254 -0.0005
0.0453446 -0.0254 0.0005
0.0462255 -0.0254 -0.0005
0.0462255 -0.0254 0.0005
0.0471133 -0.0254 -0.0005
0.0471133 -0.0254 0.0005
0.048008 -0.0254 -0.0005
0.048008 -0.0254 0.0005
0.0489096 -0.0254 -0.0005
0.0489096 -0.0254 0.0005
0.0498183 -0.0254 -0.0005
0.0498183 -0.0254 0.0005
0.050734 -0.0254 -0.0005
0.050734 -0.0254 0.0005
0.0516568 -0.0254 -0.0005
0.0516568 -0.0254 0.0005
0.0525868 -0.0254 -0.0005
0.0525868 -0.0254 0.0005
0.053524 -0.0254 -0.0005
0.053524 -0.0254 0.0005
0.0544686 -0.0254 -0.0005
0.0544686 -0.0254 0.0005
0.0554204 -0.0254 -0.0005
0.0554204 -0.0254 0.0005
0.0563797 -0.0254 -0.0005
0.0563797 -0.0254 0.0005
0.0573464 -0.0254 -0.0005
0.0573464 -0.0254 0.0005
0.0583206 -0.0254 -0.0005
0.0583206 -0.0254 0.0005
0.0593025 -0.0254 -0.0005
0.0593025 -0.0254 0.0005
0.0602919 -0.0254 -0.0005
0.0602919 -0.0254 0.0005
0.0612891 -0.0254 -0.0005
0.0612891 -0.0254 0.0005
0.0622939 -0.0254 -0.0005
0.0622939 -0.0254 0.0005
0.0633067 -0.0254 -0.0005
0.0633067 -0.0254 0.0005
0.0643272 -0.0254 -0.0005
0.0643272 -0.0254 0.0005
0.0653557 -0.0254 -0.0005
0.0653557 -0.0254 0.0005
0.0663923 -0.0254 -0.0005
0.0663923 -0.0254 0.0005
0.0674368 -0.0254 -0.0005
0.0674368 -0.0254 0.0005
0.0684895 -0.0254 -0.0005
0.0684895 -0.0254 0.0005
0.0695504 -0.0254 -0.0005
0.0695504 -0.0254 0.0005
0.0706195 -0.0254 -0.0005
0.0706195 -0.0254 0.0005
0.0716969 -0.0254 -0.0005
0.0716969 -0.0254 0.0005
0.0727828 -0.0254 -0.0005
0.0727828 -0.0254 0.0005
0.073877 -0.0254 -0.0005
0.073877 -0.0254 0.0005
0.0749798 -0.0254 -0.0005
0.0749798 -0.0254 0.0005
0.0760911 -0.0254 -0.0005
0.0760911 -0.0254 0.0005
0.0772111 -0.0254 -0.0005
0.0772111 -0.0254 0.0005
0.0783398 -0.0254 -0.0005
0.0783398 -0.0254 0.0005
0.0794772 -0.0254 -0.0005
0.0794772 -0.0254 0.0005
0.0806235 -0.0254 -0.0005
0.0806235 -0.0254 0.0005
0.0817787 -0.0254 -0.0005
0.0817787 -0.0254 0.0005
0.0829429 -0.0254 -0.0005
0.0829429 -0.0254 0.0005
0.0841162 -0.0254 -0.0005
0.0841162 -0.0254 0.0005
0.0852985 -0.0254 -0.0005
0.0852985 -0.0254 0.0005
0.0864901 -0.0254 -0.0005
0.0864901 -0.0254 0.0005
0.0876909 -0.0254 -0.0005
0.0876909 -0.0254 0.0005
0.0889011 -0.0254 -0.0005
0.0889011 -0.0254 0.0005
0.0901207 -0.0254 -0.0005
0.0901207 -0.0254 0.0005
0.0913497 -0.0254 -0.0005
0.0913497 -0.0254 0.0005
0.0925883 -0.0254 -0.0005
0.0925883 -0.0254 0.0005
0.0938366 -0.0254 -0.0005
0.0938366 -0.0254 0.0005
0.0950945 -0.0254 -0.0005
0.0950945 -0.0254 0.0005
0.0963622 -0.0254 -0.0005
0.0963622 -0.0254 0.0005
0.0976398 -0.0254 -0.0005
0.0976398 -0.0254 0.0005
0.0989273 -0.0254 -0.0005
0.0989273 -0.0254 0.0005
0.100225 -0.0254 -0.0005
0.100225 -0.0254 0.0005
0.101532 -0.0254 -0.0005
0.101532 -0.0254 0.0005
0.10285 -0.0254 -0.0005
0.10285 -0.0254 0.0005
0.104178 -0.0254 -0.0005
0.104178 -0.0254 0.0005
0.105517 -0.0254 -0.0005
0.105517 -0.0254 0.0005
0.106865 -0.0254 -0.0005
0.106865 -0.0254 0.0005
0.108225 -0.0254 -0.0005
0.108225 -0.0254 0.0005
0.109594 -0.0254 -0.0005
0.109594 -0.0254 0.0005
0.110975 -0.0254 -0.0005
0.110975 -0.0254 0.0005
0.112366 -0.0254 -0.0005
0.112366 -0.0254 0.0005
0.113768 -0.0254 -0.0005
0.113768 -0.0254 0.0005
0.115181 -0.0254 -0.0005
0.115181 -0.0254 0.0005
0.116605 -0.0254 -0.0005
0.116605 -0.0254 0.0005
0.11804 -0.0254 -0.0005
0.11804 -0.0254 0.0005
0.119486 -0.0254 -0.0005
0.119486 -0.0254 0.0005
0.120943 -0.0254 -0.0005
0.120943 -0.0254 0.0005
0.122412 -0.0254 -0.0005
0.122412 -0.0254 0.0005
0.123892 -0.0254 -0.0005
0.123892 -0.0254 0.0005
0.125384 -0.0254 -0.0005
0.125384 -0.0254 0.0005
0.126887 -0.0254 -0.0005
0.126887 -0.0254 0.0005
0.128402 -0.0254 -0.0005
0.128402 -0.0254 0.0005
0.129928 -0.0254 -0.0005
0.129928 -0.0254 0.0005
0.131467 -0.0254 -0.0005
0.131467 -0.0254 0.0005
0.133017 -0.0254 -0.0005
0.133017 -0.0254 0.0005
0.13458 -0.0254 -0.0005
0.13458 -0.0254 0.0005
0.136155 -0.0254 -0.0005
0.136155 -0.0254 0.0005
0.137742 -0.0254 -0.0005
0.137742 -0.0254 0.0005
0.139341 -0.0254 -0.0005
0.139341 -0.0254 0.0005
0.140953 -0.0254 -0.0005
0.140953 -0.0254 0.0005
0.142577 -0.0254 -0.0005
0.142577 -0.0254 0.0005
0.144214 -0.0254 -0.0005
0.144214 -0.0254 0.0005
0.145863 -0.0254 -0.0005
0.145863 -0.0254 0.0005
0.147526 -0.0254 -0.0005
0.147526 -0.0254 0.0005
0.149201 -0.0254 -0.0005
0.149201 -0.0254 0.0005
0.15089 -0.0254 -0.0005
0.15089 -0.0254 0.0005
0.152591 -0.0254 -0.0005
0.152591 -0.0254 0.0005
0.154306 -0.0254 -0.0005
0.154306 -0.0254 0.0005
0.156034 -0.0254 -0.0005
0.156034 -0.0254 0.0005
0.157775 -0.0254 -0.0005
0.157775 -0.0254 0.0005
0.159531 -0.0254 -0.0005
0.159531 -0.0254 0.0005
0.161299 -0.0254 -0.0005
0.161299 -0.0254 0.0005
0.163082 -0.0254 -0.0005
0.163082 -0.0254 0.0005
0.164878 -0.0254 -0.0005
0.164878 -0.0254 0.0005
0.166688 -0.0254 -0.0005
0.166688 -0.0254 0.0005
0.168513 -0.0254 -0.0005
0.168513 -0.0254 0.0005
0.170351 -0.0254 -0.0005
0.170351 -0.0254 0.0005
0.172204 -0.0254 -0.0005
0.172204 -0.0254 0.0005
0.174071 -0.0254 -0.0005
0.174071 -0.0254 0.0005
0.175953 -0.0254 -0.0005
0.175953 -0.0254 0.0005
0.177849 -0.0254 -0.0005
0.177849 -0.0254 0.0005
0.17976 -0.0254 -0.0005
0.17976 -0.0254 0.0005
0.181686 -0.0254 -0.0005
0.181686 -0.0254 0.0005
0.183627 -0.0254 -0.0005
0.183627 -0.0254 0.0005
0.185583 -0.0254 -0.0005
0.185583 -0.0254 0.0005
0.187555 -0.0254 -0.0005
0.187555 -0.0254 0.0005
0.189541 -0.0254 -0.0005
0.189541 -0.0254 0.0005
0.191543 -0.0254 -0.0005
0.191543 -0.0254 0.0005
0.193561 -0.0254 -0.0005
0.193561 -0.0254 0.0005
0.195594 -0.0254 -0.0005
0.195594 -0.0254 0.0005
0.197643 -0.0254 -0.0005
0.197643 -0.0254 0.0005
0.199708 -0.0254 -0.0005
0.199708 -0.0254 0.0005
0.201789 -0.0254 -0.0005
0.201789 -0.0254 0.0005
0.203886 -0.0254 -0.0005
0.203886 -0.0254 0.0005
0.206 -0.0254 -0.0005
0.206 -0.0254 0.0005
0.208047 -0.0251856 -0.0005
0.208047 -0.0251856 0.0005
0.210173 -0.0249628 -0.0005
0.210173 -0.0249628 0.0005
0.212382 -0.0247314 -0.0005
0.212382 -0.0247314 0.0005
0.214677 -0.024491 -0.0005
0.214677 -0.024491 0.0005
0.217061 -0.0242412 -0.0005
0.217061 -0.0242412 0.0005
0.219538 -0.0239817 -0.0005
0.219538 -0.0239817 0.0005
0.222112 -0.0237121 -0.0005
0.222112 -0.0237121 0.0005
0.224785 -0.023432 -0.0005
0.224785 -0.023432 0.0005
0.227563 -0.023141 -0.0005
0.227563 -0.023141 0.0005
0.230449 -0.0228387 -0.0005
0.230449 -0.0228387 0.0005
0.233447 -0.0225246 -0.0005
0.233447 -0.0225246 0.0005
0.236562 -0.0221983 -0.0005
0.236562 -0.0221983 0.0005
0.239797 -0.0218593 -0.0005
0.239797 -0.0218593 0.0005
0.243159 -0.0215071 -0.0005
0.243159 -0.0215071 0.0005
0.246652 -0.0211412 -0.0005
0.246652 -0.0211412 0.0005
0.250281 -0.0207611 -0.0005
0.250281 -0.0207611 0.0005
0.254051 -0.0203661 -0.0005
0.254051 -0.0203661 0.0005
0.257967 -0.0199558 -0.0005
0.257967 -0.0199558 0.0005
0.262036 -0.0195295 -0.0005
0.262036 -0.0195295 0.0005
0.266264 -0.0190867 -0.0005
0.266264 -0.0190867 0.0005
0.270655 -0.0186266 -0.0005
0.270655 -0.0186266 0.0005
0.275218 -0.0181486 -0.0005
0.275218 -0.0181486 0.0005
0.279959 -0.017652 -0.0005
0.279959 -0.017652 0.0005
0.284883 -0.017136 -0.0005
0.284883 -0.017136 0.0005
0.29 -0.0166 -0.0005
0.29 -0.0166 0.0005

POLYGONS 250 1250
4 0 1 2 3
4 1 4 5 2
4 4 6 7 5
4 6 8 9 7
4 8 10 11 9
4 10 12 13 11
4 12 14 15 13
4 14 16 17 15
4 16 18 19 17
4 18 20 21 19
4 20 22 23 21
4 22 24 25 23
4 24 26 27 25
4 26 28 29 27
4 28 30 31 29
4 30 32 33 31
4 32 34 35 33
4 34 36 37 35
4 38 39 40 41
4 41 40 42 43
4 43 42 44 45
4 45 44 46 47
4 47 46 48 49
4 49 48 50 51
4 51 50 52 53
4 53 52 54 55
4 55 54 56 57
4 57 56 58 59
4 59 58 60 61
4 61 60 62 63
4 63 62 64 65
4 65 64 66 67
4 67 66 68 69
4 69 68 70 71
4 71 70 72 73
4 73 72 74 75
4 75 74 76 77
4 77 76 78 79
4 79 78 80 81
4 81 80 82 83
4 83 82 84 85
4 85 84 86 87
4 87 86 88 89
4 89 88 90 91
4 91 90 37 36
4 38 92 93 39
4 92 94 95 93
4 94 96 97 95
4 96 98 99 97
4 98 100 101 99
4 100 102 103 101
4 102 104 105 103
4 104 106 107 105
4 106 108 109 107
4 108 110 111 109
4 110 112 113 111
4 112 114 115 113
4 114 116 117 115
4 116 118 119 117
4 118 120 121 119
4 120 122 123 121
4 122 124 125 123
4 124 126 127 125
4 126 128 129 127
4 128 130 131 129
4 130 132 133 131
4 132 134 135 133
4 134 136 137 135
4 136 138 139 137
4 138 140 141 139
4 140 142 143 141
4 142 144 145 143
4 144 146 147 145
4 146 148 149 147
4 148 150 151 149
4 150 152 153 151
4 152 154 155 153
4 154 156 157 155
4 156 158 159 157
4 158 160 161 159
4 160 162 163 161
4 162 164 165 163
4 164 166 167 165
4 166 168 169 167
4 168 170 171 169
4 170 172 173 171
4 172 174 175 173
4 174 176 177 175
4 176 178 179 177
4 178 180 181 179
4 180 182 183 181
4 182 184 185 183
4 184 186 187 185
4 186 188 189 187
4 188 190 191 189
4 190 192 193 191
4 192 194 195 193
4 194 196 197 195
4 196 198 199 197
4 198 200 201 199
4 200 202 203 201
4 202 204 205 203
4 204 206 207 205
4 206 208 209 207
4 208 210 211 209
4 210 212 213 211
4 212 214 215 213
4 214 216 217 215
4 216 218 219 217
4 218 220 221 219
4 220 222 223 221
4 222 224 225 223
4 224 226 227 225
4 226 228 229 227
4 228 230 231 229
4 230 232 233 231
4 232 234 235 233
4 234 236 237 235
4 236 238 239 237
4 238 240 241 239
4 240 242 243 241
4 242 244 245 243
4 244 246 247 245
4 246 248 249 247
4 248 250 251 249
4 250 252 253 251
4 252 254 255 253
4 254 256 257 255
4 256 258 259 257
4 258 260 261 259
4 260 262 263 261
4 262 264 265 263
4 264 266 267 265
4 266 268 269 267
4 268 270 271 269
4 270 272 273 271
4 272 274 275 273
4 274 276 277 275
4 276 278 279 277
4 278 280 281 279
4 280 282 283 281
4 282 284 285 283
4 284 286 287 285
4 286 288 289 287
4 288 290 291 289
4 290 292 293 291
4 292 294 295 293
4 294 296 297 295
4 296 298 299 297
4 298 300 301 299
4 300 302 303 301
4 302 304 305 303
4 304 306 307 305
4 306 308 309 307
4 308 310 311 309
4 310 312 313 311
4 312 314 315 313
4 314 316 317 315
4 316 318 319 317
4 318 320 321 319
4 320 322 323 321
4 322 324 325 323
4 324 326 327 325
4 326 328 329 327
4 328 330 331 329
4 330 332 333 331
4 332 334 335 333
4 334 336 337 335
4 336 338 339 337
4 338 340 341 339
4 340 342 343 341
4 342 344 345 343
4 344 346 347 345
4 346 348 349 347
4 348 350 351 349
4 350 352 353 351
4 352 354 355 353
4 354 356 357 355
4 356 358 359 357
4 358 360 361 359
4 360 362 363 361
4 362 364 365 363
4 364 366 367 365
4 366 368 369 367
4 368 370 371 369
4 370 372 373 371
4 372 374 375 373
4 374 376 377 375
4 376 378 379 377
4 378 380 381 379
4 380 382 383 381
4 382 384 385 383
4 384 386 387 385
4 386 388 389 387
4 388 390 391 389
4 390 392 393 391
4 392 394 395 393
4 394 396 397 395
4 396 398 399 397
4 398 400 401 399
4 400 402 403 401
4 402 404 405 403
4 404 406 407 405
4 406 408 409 407
4 408 410 411 409
4 410 412 413 411
4 412 414 415 413
4 414 416 417 415
4 416 418 419 417
4 418 420 421 419
4 420 422 423 421
4 422 424 425 423
4 424 426 427 425
4 426 428 429 427
4 428 430 431 429
4 430 432 433 431
4 432 434 435 433
4 434 436 437 435
4 436 438 439 437
4 438 440 441 439
4 440 442 443 441
4 442 444 445 443
4 444 446 447 445
4 446 448 449 447
4 448 450 451 449
4 450 452 453 451
4 452 454 455 453
4 454 456 457 455
4 456 458 459 457
4 458 460 461 459
4 460 462 463 461
4 462 464 465 463
4 464 466 467 465
4 466 468 469 467
4 468 470 471 469
4 470 472 473 471
4 472 474 475 473
4 474 476 477 475
4 476 478 479 477
4 478 480 481 479
4 480 482 483 481
4 482 484 485 483
4 484 486 487 485
4 486 488 489 487
4 488 490 491 489
4 490 492 493 491
4 492 494 495 493
4 494 496 497 495
4 496 498 499 497
4 498 500 501 499
POINT_DATA 502
FIELD attributes 1
U 3 502 float
1.64459 0.101894 0.00625259
0.823934 0.0505884 0.00308128
0.823934 0.0505884 0.00308128
1.64459 0.101894 0.00625259
0.0250474 0.000709802 0
0.0250474 0.000709802 0
0.0223449 0.000625174 0
0.0223449 0.000625174 0
0.0199644 0.000536626 0
0.0199644 0.000536626 0
0.0175463 0.00046766 0
0.0175463 0.00046766 0
0.0151604 0.00038925 0
0.0151604 0.00038925 0
0.0130117 0.000314412 0
0.0130117 0.000314412 0
0.0111431 0.000264934 0
0.0111431 0.000264934 0
0.00950442 0.00022931 0
0.00950442 0.00022931 0
0.00804121 0.000190598 0
0.00804121 0.000190598 0
0.0067413 0.000147645 0
0.0067413 0.000147645 0
0.00559259 0.000108537 0
0.00559259 0.000108537 0
0.00460981 7.85913e-05 0
0.00460981 7.85913e-05 0
0.00373499 5.59509e-05 0
0.00373499 5.59509e-05 0
0.00299984 4.89331e-05 0
0.00299984 4.89331e-05 0
0.00223245 2.11258e-05 0
0.00223245 2.11258e-05 0
0.00166141 -6.79976e-05 0
0.00166141 -6.79976e-05 0
0.000639662 0.000339375 0
0.000639662 0.000339375 0
-3.33963e-05 7.8374e-05 8.68756e-23
-3.33963e-05 7.8374e-05 8.68756e-23
-8.71726e-05 0.000173112 -2.34962e-22
-8.71726e-05 0.000173112 -2.34962e-22
-0.000129536 0.000322625 -2.78418e-22
-0.000129536 0.000322625 -2.78418e-22
0.000151774 -0.000271066 5.56466e-22
0.000151774 -0.000271066 5.56466e-22
0.00054666 -0.0024488 1.8582e-22
0.00054666 -0.0024488 1.8582e-22
0.00056895 -0.00491372 -3.70664e-22
0.00056895 -0.00491372 -3.70664e-22
0.000378038 -0.00644437 0
0.000378038 -0.00644437 0
0.00020817 -0.00732125 -7.42207e-22
0.00020817 -0.00732125 -7.42207e-22
5.84942e-05 -0.00759123 7.93233e-28
5.84942e-05 -0.00759123 7.93233e-28
-5.79636e-05 -0.00736675 7.42208e-22
-5.79636e-05 -0.00736675 7.42208e-22
-0.000135113 -0.00678525 -7.5043e-22
-0.000135113 -0.00678525 -7.5043e-22
-0.000177493 -0.00597594 2.4118e-25
-0.000177493 -0.00597594 2.4118e-25
-0.000203779 -0.00500753 7.50671e-22
-0.000203779 -0.00500753 7.50671e-22
-0.000199362 -0.00398134 7.6192e-22
-0.000199362 -0.00398134 7.6192e-22
-0.000154951 -0.00305405 -3.10952e-25
-0.000154951 -0.00305405 -3.10952e-25
-9.8661e-05 -0.0023287 -7.75741e-22
-9.8661e-05 -0.0023287 -7.75741e-22
-8.43115e-05 -0.00190068 0
-8.43115e-05 -0.00190068 0
-0.000167411 -0.00171553 0
-0.000167411 -0.00171553 0
-0.000217855 -0.00150672 0
-0.000217855 -0.00150672 0
-4.25615e-05 -0.00132339 0
-4.25615e-05 -0.00132339 0
0.000238439 -0.00162281 0
0.000238439 -0.00162281 0
0.000327259 -0.00238752 0
0.000327259 -0.00238752 0
0.000147354 -0.00281565 0
0.000147354 -0.00281565 0
-0.000179322 -0.00256614 0
-0.000179322 -0.00256614 0
-0.000479465 -0.00183949 0
-0.000479465 -0.00183949 0
-0.000624678 -0.000884977 0
-0.000624678 -0.000884977 0
-0.000383624 0.000166478 0
-0.000383624 0.000166478 0
-4.69205e-05 4.4544e-05 3.5576e-25
-4.69205e-05 4.4544e-05 3.5576e-25
-1.42941e-05 -3.03553e-05 -4.31928e-23
-1.42941e-05 -3.03553e-05 -4.31928e-23
0.000117532 -9.87294e-05 0
0.000117532 -9.87294e-05 0
0.000296216 -0.000126945 0
0.000296216 -0.000126945 0
0.000468676 -0.0001073 4.18923e-23
0.000468676 -0.0001073 4.18923e-23
0.000599403 -5.48217e-05 4.19676e-23
0.000599403 -5.48217e-05 4.19676e-23
0.000664261 1.12911e-05 0
0.000664261 1.12911e-05 0
0.000653995 7.52316e-05 0
0.000653995 7.52316e-05 0
0.000573449 0.000124644 0
0.000573449 0.000124644 0
0.000434268 0.000151686 -4.04192e-23
0.000434268 0.000151686 -4.04192e-23
0.000253707 0.000156033 -4.04962e-23
0.000253707 0.000156033 -4.04962e-23
5.35447e-05 0.00014358 0
5.35447e-05 0.00014358 0
-0.000143252 0.000123853 0
-0.000143252 0.000123853 0
-0.000321287 0.000106989 0
-0.000321287 0.000106989 0
-0.000481177 0.000100085 -3.89357e-23
-0.000481177 0.000100085 -3.89357e-23
-0.000632682 0.0001038 -3.90143e-23
-0.000632682 0.0001038 -3.90143e-23
-0.000778312 0.000109625 0
-0.000778312 0.000109625 0
-0.000907365 0.000108173 0
-0.000907365 0.000108173 0
-0.00101064 9.99065e-05 0
-0.00101064 9.99065e-05 0
-0.0010959 9.35713e-05 0
-0.0010959 9.35713e-05 0
-0.00117711 9.82974e-05 0
-0.00117711 9.82974e-05 0
-0.00125633 0.000114093 0
-0.00125633 0.000114093 0
-0.0013281 0.000127251 -3.66229e-23
-0.0013281 0.000127251 -3.66229e-23
-0.00139809 0.000123166 -3.67019e-25
-0.00139809 0.000123166 -3.67019e-25
-0.001487 0.000102287 3.69051e-25
-0.001487 0.000102287 3.69051e-25
-0.00161246 7.88744e-05 -7.18898e-23
-0.00161246 7.88744e-05 -7.18898e-23
-0.00177837 7.38698e-05 -3.5841e-23
-0.00177837 7.38698e-05 -3.5841e-23
-0.00198552 0.000101547 0
-0.00198552 0.000101547 0
-0.00223952 0.000159054 3.48737e-23
-0.00223952 0.000159054 3.48737e-23
-0.00254656 0.000235645 6.95283e-23
-0.00254656 0.000235645 6.95283e-23
-0.00290778 0.00031904 3.46548e-23
-0.00290778 0.00031904 3.46548e-23
-0.00331442 0.000378421 0
-0.00331442 0.000378421 0
-0.0037334 0.000352643 3.36666e-23
-0.0037334 0.000352643 3.36666e-23
-0.00409471 0.000197431 3.37495e-23
-0.00409471 0.000197431 3.37495e-23
-0.00432574 -3.56776e-05 0
-0.00432574 -3.56776e-05 0
-0.00441676 -0.000213674 -3.28291e-23
-0.00441676 -0.000213674 -3.28291e-23
-0.00442454 -0.000247873 -3.29126e-23
-0.00442454 -0.000247873 -3.29126e-23
-0.00441623 -0.000178404 -3.23157e-23
-0.00441623 -0.000178404 -3.23157e-23
-0.00441366 -0.00011403 -9.65416e-23
-0.00441366 -0.00011403 -9.65416e-23
-0.00439379 -0.000114705 -6.43102e-23
-0.00439379 -0.000114705 -6.43102e-23
-0.00433625 -0.000156375 0
-0.00433625 -0.000156375 0
-0.00424008 -0.000187228 0
-0.00424008 -0.000187228 0
-0.00411272 -0.000191492 0
-0.00411272 -0.000191492 0
-0.0039574 -0.000195364 0
-0.0039574 -0.000195364 0
-0.00376316 -0.000220322 -6.15477e-23
-0.00376316 -0.000220322 -6.15477e-23
-0.00351344 -0.000255569 -1.22879e-22
-0.00351344 -0.000255569 -1.22879e-22
-0.00320621 -0.000285893 -1.2211e-22
-0.00320621 -0.000285893 -1.2211e-22
-0.00284862 -0.000314752 -6.09515e-23
-0.00284862 -0.000314752 -6.09515e-23
-0.00244123 -0.000344675 6.00264e-23
-0.00244123 -0.000344675 6.00264e-23
-0.00198966 -0.000368747 6.02003e-23
-0.00198966 -0.000368747 6.02003e-23
-0.0015016 -0.000385077 -5.92626e-23
-0.0015016 -0.000385077 -5.92626e-23
-0.000982524 -0.000394521 -1.18305e-22
-0.000982524 -0.000394521 -1.18305e-22
-0.000445256 -0.000394323 -5.90427e-23
-0.000445256 -0.000394323 -5.90427e-23
0.000104635 -0.000397564 0
0.000104635 -0.000397564 0
0.000694439 -0.000422175 0
0.000694439 -0.000422175 0
0.00135652 -0.000437508 -5.68956e-23
0.00135652 -0.000437508 -5.68956e-23
0.0020475 -0.000393477 -5.70718e-23
0.0020475 -0.000393477 -5.70718e-23
0.00265996 -0.000287592 0
0.00265996 -0.000287592 0
0.00310745 -0.00014134 0
0.00310745 -0.00014134 0
0.00331342 5.04622e-05 0
0.00331342 5.04622e-05 0
0.0032163 0.000288345 0
0.0032163 0.000288345 0
0.00285225 0.000464796 0
0.00285225 0.000464796 0
0.00235048 0.000438572 0
0.00235048 0.000438572 0
0.00183791 0.000261124 0
0.00183791 0.000261124 0
0.00135246 0.000138366 5.21172e-23
0.00135246 0.000138366 5.21172e-23
0.000864228 0.000179826 5.22923e-23
0.000864228 0.000179826 5.22923e-23
0.000386823 0.000307459 0
0.000386823 0.000307459 0
-5.69652e-06 0.000393428 -5.0531e-23
-5.69652e-06 0.000393428 -5.0531e-23
-0.00025877 0.000390738 -1.00703e-22
-0.00025877 0.000390738 -1.00703e-22
-0.000365689 0.000336643 -5.01717e-23
-0.000365689 0.000336643 -5.01717e-23
-0.000379041 0.000231083 4.90437e-23
-0.000379041 0.000231083 4.90437e-23
-0.000366064 3.14734e-05 6.13188e-25
-0.000366064 3.14734e-05 6.13188e-25
-0.000284046 -0.00017557 -4.87775e-23
-0.000284046 -0.00017557 -4.87775e-23
-8.10639e-06 -0.00026178 4.77661e-23
-8.10639e-06 -0.00026178 4.77661e-23
0.000426616 -0.000189351 4.79395e-23
0.000426616 -0.000189351 4.79395e-23
0.000819093 -3.28792e-05 0
0.000819093 -3.28792e-05 0
0.00112418 7.99253e-06 -4.63492e-23
0.00112418 7.99253e-06 -4.63492e-23
0.00142202 -0.000181647 -4.65216e-23
0.00142202 -0.000181647 -4.65216e-23
0.0016902 -0.000441037 4.53861e-23
0.0016902 -0.000441037 4.53861e-23
0.00177374 -0.000416161 4.55576e-23
0.00177374 -0.000416161 4.55576e-23
0.0014512 -2.31915e-05 -4.44938e-23
0.0014512 -2.31915e-05 -4.44938e-23
0.000692648 0.000378606 -8.87132e-23
0.000692648 0.000378606 -8.87132e-23
-0.000280217 0.00055661 -8.7745e-23
-0.000280217 0.00055661 -8.7745e-23
-0.00128632 0.000591057 -1.29586e-22
-0.00128632 0.000591057 -1.29586e-22
-0.00226702 0.00057478 -1.53848e-24
-0.00226702 0.00057478 -1.53848e-24
-0.00319125 0.000538605 8.50248e-23
-0.00319125 0.000538605 8.50248e-23
-0.00404661 0.000494612 0
-0.00404661 0.000494612 0
-0.00483143 0.00044885 0
-0.00483143 0.00044885 0
-0.00554677 0.000403759 7.98251e-23
-0.00554677 0.000403759 7.98251e-23
-0.00619406 0.000360012 1.58805e-22
-0.00619406 0.000360012 1.58805e-22
-0.00677397 0.000317532 1.45807e-24
-0.00677397 0.000317532 1.45807e-24
-0.00728625 0.000275993 -7.78401e-23
-0.00728625 0.000275993 -7.78401e-23
-0.00772992 0.000235018 7.53864e-23
-0.00772992 0.000235018 7.53864e-23
-0.00810358 0.00019435 1.50104e-22
-0.00810358 0.00019435 1.50104e-22
-0.00840586 0.000154069 1.4819e-22
-0.00840586 0.000154069 1.4819e-22
-0.00863602 0.00011482 7.37878e-23
-0.00863602 0.00011482 7.37878e-23
-0.00879445 7.75248e-05 0
-0.00879445 7.75248e-05 0
-0.0088829 4.263e-05 0
-0.0088829 4.263e-05 0
-0.00890401 1.06941e-05 7.03802e-23
-0.00890401 1.06941e-05 7.03802e-23
-0.00886534 -1.70647e-05 7.06883e-23
-0.00886534 -1.70647e-05 7.06883e-23
-0.00877421 -4.08e-05 0
-0.00877421 -4.08e-05 0
-0.00863519 -6.11763e-05 -6.85914e-23
-0.00863519 -6.11763e-05 -6.85914e-23
-0.00845479 -7.81926e-05 -6.88978e-23
-0.00845479 -7.81926e-05 -6.88978e-23
-0.00823887 -9.22615e-05 0
-0.00823887 -9.22615e-05 0
-0.00799254 -0.000103863 -6.70672e-23
-0.00799254 -0.000103863 -6.70672e-23
-0.00771995 -0.000113567 -6.73727e-23
-0.00771995 -0.000113567 -6.73727e-23
-0.00742395 -0.000122019 0
-0.00742395 -0.000122019 0
-0.00710611 -0.000129824 6.56611e-23
-0.00710611 -0.000129824 6.56611e-23
-0.00676679 -0.000137487 1.31172e-22
-0.00676679 -0.000137487 1.31172e-22
-0.00640546 -0.000145338 6.55106e-23
-0.00640546 -0.000145338 6.55106e-23
-0.00602112 -0.000153471 -6.43078e-23
-0.00602112 -0.000153471 -6.43078e-23
-0.00561296 -0.000161717 -6.46119e-23
-0.00561296 -0.000161717 -6.46119e-23
-0.00518087 -0.000169658 6.34116e-23
-0.00518087 -0.000169658 6.34116e-23
-0.00472609 -0.000176682 6.37151e-23
-0.00472609 -0.000176682 6.37151e-23
-0.00425155 -0.000182087 6.24891e-23
-0.00425155 -0.000182087 6.24891e-23
-0.00376183 -0.000185251 1.24798e-22
-0.00376183 -0.000185251 1.24798e-22
-0.00326269 -0.000185794 6.23084e-23
-0.00326269 -0.000185794 6.23084e-23
-0.00276049 -0.000183598 0
-0.00276049 -0.000183598 0
-0.00226172 -0.000178798 0
-0.00226172 -0.000178798 0
-0.00177261 -0.000171774 0
-0.00177261 -0.000171774 0
-0.00129849 -0.000163081 0
-0.00129849 -0.000163081 0
-0.000843709 -0.000153065 0
-0.000843709 -0.000153065 0
-0.000411103 -0.000141651 0
-0.000411103 -0.000141651 0
-3.4681e-06 -0.000130838 5.73351e-23
-3.4681e-06 -0.000130838 5.73351e-23
0.000376938 -0.000120353 9.86665e-25
0.000376938 -0.000120353 9.86665e-25
0.000731287 -0.000109049 -5.69303e-23
0.000731287 -0.000109049 -5.69303e-23
0.00105999 -9.80368e-05 0
0.00105999 -9.80368e-05 0
0.00136224 -8.72468e-05 0
0.00136224 -8.72468e-05 0
0.00163858 -7.68175e-05 0
0.00163858 -7.68175e-05 0
0.00188983 -6.68912e-05 -1.0612e-22
0.00188983 -6.68912e-05 -1.0612e-22
0.00211734 -5.76097e-05 -1.06678e-22
0.00211734 -5.76097e-05 -1.06678e-22
0.00232297 -4.90902e-05 1.03234e-22
0.00232297 -4.90902e-05 1.03234e-22
0.00250898 -4.13627e-05 1.97977e-24
0.00250898 -4.13627e-05 1.97977e-24
0.00267766 -3.42239e-05 -1.02345e-22
0.00267766 -3.42239e-05 -1.02345e-22
0.00283068 -2.72969e-05 0
0.00283068 -2.72969e-05 0
0.00296879 -2.04211e-05 0
0.00296879 -2.04211e-05 0
0.00309167 -1.32625e-05 9.62174e-23
0.00309167 -1.32625e-05 9.62174e-23
0.00319695 -4.98093e-06 1.91605e-22
0.00319695 -4.98093e-06 1.91605e-22
0.00328049 4.347e-06 9.53823e-23
0.00328049 4.347e-06 9.53823e-23
0.00333885 1.44427e-05 9.22089e-23
0.00333885 1.44427e-05 9.22089e-23
0.00336648 2.62686e-05 1.8362e-22
0.00336648 2.62686e-05 1.8362e-22
0.00335758 3.9329e-05 1.79588e-24
0.00335758 3.9329e-05 1.79588e-24
0.00331173 5.13308e-05 -9.01088e-23
0.00331173 5.13308e-05 -9.01088e-23
0.00323164 6.13334e-05 0
0.00323164 6.13334e-05 0
0.00312067 7.01947e-05 -8.58029e-23
0.00312067 7.01947e-05 -8.58029e-23
0.0029814 7.87709e-05 -8.62861e-23
0.0029814 7.87709e-05 -8.62861e-23
0.00281582 8.61322e-05 0
0.00281582 8.61322e-05 0
0.00262839 8.91818e-05 0
0.00262839 8.91818e-05 0
0.0024288 8.48775e-05 0
0.0024288 8.48775e-05 0
0.0022313 7.2982e-05 7.96346e-23
0.0022313 7.2982e-05 7.96346e-23
0.00205076 5.61836e-05 1.58517e-22
0.00205076 5.61836e-05 1.58517e-22
0.00189789 3.83255e-05 7.88768e-23
0.00189789 3.83255e-05 7.88768e-23
0.00177708 2.25856e-05 7.60304e-23
0.00177708 2.25856e-05 7.60304e-23
0.001687 1.056e-05 7.64728e-23
0.001687 1.056e-05 7.64728e-23
0.00162282 2.45216e-06 0
0.00162282 2.45216e-06 0
0.00157859 -2.32547e-06 7.25003e-23
0.00157859 -2.32547e-06 7.25003e-23
0.00154886 -4.6434e-06 7.2927e-23
0.00154886 -4.6434e-06 7.2927e-23
0.00152936 -5.37439e-06 7.01775e-23
0.00152936 -5.37439e-06 7.01775e-23
0.00151703 -5.26028e-06 7.05937e-23
0.00151703 -5.26028e-06 7.05937e-23
0.0015097 -4.78381e-06 0
0.0015097 -4.78381e-06 0
0.00150588 -4.18357e-06 6.67304e-23
0.00150588 -4.18357e-06 6.67304e-23