/*--------------------------------*- C++ -*----------------------------------*\
  =========                 |
  \\      /  F ield         | OpenFOAM: The Open Source CFD Toolbox
   \\    /   O peration     | Website:  https://openfoam.org
    \\  /    A nd           | Version:  7
     \\/     M anipulation  |
\*---------------------------------------------------------------------------*/
FoamFile
{
    version     2.0;
    format      ascii;
    class       volScalarField;
    location    "0.081";
    object      k_0;
}
// * * * * * * * * * * * * * * * * * * * * * * * * * * * * * * * * * * * * * //

dimensions      [0 2 -2 0 0 0 0];

internalField   nonuniform List<scalar> 
12225
(
1.93678e-05
1.79712e-05
1.67257e-05
1.54101e-05
1.41127e-05
1.27563e-05
1.14181e-05
1.0331e-05
9.18776e-06
7.97216e-06
6.92834e-06
5.9583e-06
5.00058e-06
4.40969e-06
4.10694e-06
4.10255e-06
7.11263e-06
1.321e-05
1.99839e-05
1.98696e-05
1.96792e-05
1.94843e-05
1.919e-05
1.8816e-05
1.82994e-05
1.79104e-05
1.75823e-05
1.69948e-05
1.66045e-05
1.59165e-05
1.55329e-05
1.48753e-05
1.45534e-05
1.38361e-05
1.36975e-05
1.40247e-05
1.99998e-05
1.95258e-05
1.93586e-05
1.92538e-05
1.91214e-05
1.89668e-05
1.88268e-05
1.87443e-05
1.86986e-05
1.86386e-05
1.85946e-05
1.84949e-05
1.83917e-05
1.81375e-05
1.79779e-05
1.76679e-05
1.74372e-05
1.73512e-05
2.01843e-05
2.00549e-05
1.94784e-05
1.82896e-05
1.69609e-05
1.69132e-05
1.69917e-05
1.70957e-05
1.71956e-05
1.74153e-05
1.78541e-05
1.8118e-05
1.81924e-05
1.81795e-05
1.80809e-05
1.77553e-05
1.74837e-05
1.73675e-05
2.11942e-05
2.12988e-05
2.09912e-05
2.07796e-05
2.06389e-05
2.01887e-05
1.89777e-05
1.84962e-05
1.84942e-05
1.87222e-05
1.95849e-05
2.02647e-05
2.04619e-05
2.04552e-05
2.02064e-05
1.9246e-05
1.83832e-05
1.79022e-05
2.08752e-05
2.07105e-05
2.08091e-05
2.13059e-05
2.14937e-05
2.1603e-05
2.18829e-05
2.2671e-05
2.34943e-05
2.41387e-05
2.45632e-05
2.47123e-05
2.47183e-05
2.46423e-05
2.43251e-05
2.3442e-05
2.29803e-05
2.22848e-05
2.03056e-05
2.03404e-05
2.06144e-05
2.17086e-05
2.25139e-05
2.28022e-05
2.30133e-05
2.34515e-05
2.45188e-05
2.53275e-05
2.5633e-05
2.56714e-05
2.56002e-05
2.52332e-05
2.4793e-05
2.45198e-05
2.44059e-05
2.43237e-05
2.01389e-05
2.02334e-05
2.04828e-05
2.2037e-05
2.50559e-05
2.62404e-05
2.63365e-05
2.61337e-05
2.58227e-05
2.54138e-05
2.49652e-05
2.4589e-05
2.42361e-05
2.39222e-05
2.37385e-05
2.36816e-05
2.37037e-05
2.39473e-05
2.03747e-05
2.06893e-05
2.08743e-05
2.09544e-05
2.15221e-05
2.37603e-05
2.79578e-05
2.99768e-05
3.02331e-05
2.96281e-05
2.68457e-05
2.43455e-05
2.31664e-05
2.27454e-05
2.26883e-05
2.27828e-05
2.33749e-05
2.45514e-05
2.04285e-05
2.07306e-05
2.0785e-05
2.09374e-05
2.29218e-05
3.12585e-05
3.77211e-05
3.85256e-05
3.65021e-05
2.97243e-05
2.49094e-05
2.24891e-05
2.14951e-05
2.12123e-05
2.11985e-05
2.13506e-05
2.2046e-05
2.3258e-05
2.02955e-05
2.05521e-05
2.06456e-05
2.0919e-05
2.22465e-05
2.72646e-05
3.13137e-05
3.23283e-05
3.19241e-05
2.91528e-05
2.52908e-05
2.29691e-05
2.17512e-05
2.12037e-05
2.10517e-05
2.10528e-05
2.11102e-05
2.1312e-05
2.05916e-05
2.1005e-05
2.08599e-05
2.07065e-05
2.08504e-05
2.17688e-05
2.26605e-05
2.3042e-05
2.34739e-05
2.35514e-05
2.34576e-05
2.31513e-05
2.26391e-05
2.23429e-05
2.21425e-05
2.19489e-05
2.17097e-05
2.15159e-05
2.04756e-05
2.10918e-05
2.10991e-05
2.10098e-05
2.07884e-05
2.0628e-05
2.06133e-05
2.07289e-05
2.1251e-05
2.15773e-05
2.15971e-05
2.14733e-05
2.13686e-05
2.13808e-05
2.15029e-05
2.16411e-05
2.16708e-05
2.1658e-05
2.02319e-05
2.10249e-05
2.10713e-05
2.09503e-05
2.06464e-05
2.05008e-05
2.03568e-05
2.01961e-05
2.00802e-05
2.0033e-05
2.00341e-05
2.00607e-05
2.01349e-05
2.03659e-05
2.10451e-05
2.16445e-05
2.19357e-05
2.20508e-05
2.04376e-05
2.07221e-05
2.07392e-05
2.06636e-05
2.05752e-05
2.05582e-05
2.05311e-05
2.04697e-05
2.04305e-05
2.04174e-05
2.04204e-05
2.04505e-05
2.05389e-05
2.06672e-05
2.07771e-05
2.08417e-05
2.08582e-05
2.08812e-05
2.0279e-05
2.12796e-05
2.1609e-05
2.1641e-05
2.14655e-05
2.12562e-05
2.11913e-05
2.12498e-05
2.1354e-05
2.13952e-05
2.13953e-05
2.13485e-05
2.11365e-05
2.08354e-05
2.06237e-05
2.04915e-05
2.04201e-05
2.03944e-05
2.07468e-05
2.18871e-05
2.18606e-05
2.12385e-05
2.0828e-05
2.08619e-05
2.11658e-05
2.13788e-05
2.14164e-05
2.1394e-05
2.12358e-05
2.08686e-05
2.06087e-05
2.0464e-05
2.04024e-05
2.03873e-05
2.03888e-05
2.04053e-05
2.13784e-05
2.11533e-05
2.12253e-05
2.13607e-05
2.13493e-05
2.13705e-05
2.13839e-05
2.13296e-05
2.10202e-05
2.06123e-05
2.03792e-05
2.02605e-05
2.0222e-05
2.02017e-05
2.01997e-05
2.02066e-05
2.0245e-05
2.03615e-05
2.03495e-05
2.03798e-05
2.0439e-05
2.06311e-05
2.0697e-05
2.06984e-05
2.06803e-05
2.06276e-05
2.05283e-05
2.04118e-05
2.03069e-05
2.02343e-05
2.01973e-05
2.01856e-05
2.01849e-05
2.01897e-05
2.02135e-05
2.03035e-05
2.11573e-05
2.11613e-05
2.05961e-05
2.05621e-05
2.07373e-05
2.08278e-05
2.08438e-05
2.0881e-05
2.10129e-05
2.10139e-05
2.0827e-05
2.05099e-05
2.0385e-05
2.03487e-05
2.03415e-05
2.03408e-05
2.03411e-05
2.03443e-05
2.01322e-05
2.02213e-05
2.02458e-05
2.0322e-05
2.04146e-05
2.04425e-05
2.04361e-05
2.03941e-05
2.03907e-05
2.04816e-05
2.05945e-05
2.0573e-05
2.04279e-05
2.03346e-05
2.03077e-05
2.03006e-05
2.02902e-05
2.02817e-05
2.01153e-05
2.0486e-05
2.0663e-05
2.06676e-05
2.0567e-05
2.04271e-05
2.03703e-05
2.03642e-05
2.04031e-05
2.07235e-05
2.18587e-05
2.24255e-05
2.2399e-05
2.18781e-05
2.10756e-05
2.06263e-05
2.03884e-05
2.02822e-05
2.02305e-05
2.0368e-05
2.03758e-05
2.03073e-05
2.02212e-05
2.02012e-05
2.02065e-05
2.02492e-05
2.04246e-05
2.08489e-05
2.10611e-05
2.10702e-05
2.09768e-05
2.06342e-05
2.03245e-05
2.017e-05
2.01176e-05
2.01067e-05
2.02124e-05
2.01943e-05
2.02213e-05
2.02478e-05
2.02486e-05
2.02525e-05
2.02919e-05
2.04676e-05
2.065e-05
2.0728e-05
2.07745e-05
2.08571e-05
2.1087e-05
2.1844e-05
2.26253e-05
2.29501e-05
2.2983e-05
2.2896e-05
2.07236e-05
2.0466e-05
2.01893e-05
2.013e-05
2.01229e-05
2.01361e-05
2.02333e-05
2.04246e-05
2.05238e-05
2.05701e-05
2.0629e-05
2.07639e-05
2.12339e-05
2.22682e-05
2.28144e-05
2.29074e-05
2.28155e-05
2.22858e-05
2.03161e-05
2.02124e-05
2.01537e-05
2.00614e-05
2.00432e-05
2.00464e-05
2.00794e-05
2.01709e-05
2.02339e-05
2.02665e-05
2.02925e-05
2.03395e-05
2.04615e-05
2.09006e-05
2.14335e-05
2.16556e-05
2.16848e-05
2.16184e-05
2.00266e-05
2.00157e-05
1.99764e-05
1.9888e-05
1.97521e-05
1.97068e-05
1.97292e-05
1.98099e-05
2.00407e-05
2.03402e-05
2.06064e-05
2.07844e-05
2.09563e-05
2.10933e-05
2.12136e-05
2.13317e-05
2.16024e-05
2.20198e-05
2.02072e-05
1.75243e-05
1.42504e-05
1.49302e-05
1.75103e-05
2.06932e-05
2.5108e-05
2.95675e-05
3.62427e-05
4.31892e-05
5.19774e-05
5.97747e-05
6.79069e-05
7.49655e-05
8.18514e-05
8.57626e-05
9.07299e-05
9.77417e-05
2.87046e-05
6.1396e-05
0.000109834
0.000207516
0.000282326
0.000313394
0.000339258
0.000384045
0.000446547
0.000517074
0.000581895
0.000628025
0.00065068
0.000657498
0.00065941
0.000661401
0.000664979
0.00067158
0.00184755
0.00188605
0.00204988
0.00218984
0.00219838
0.00211222
0.00189375
0.00179847
0.00178062
0.00178444
0.00179319
0.00179081
0.00176613
0.00168469
0.00160504
0.00154684
0.00149638
0.00143873
0.00784993
0.00904542
0.00711696
0.00640376
0.00634887
0.00635204
0.00627866
0.00614503
0.00604239
0.00579724
0.0060255
0.00657901
0.00665654
0.00654544
0.00635337
0.00621548
0.00610162
0.00601007
0.00594088
0.00589224
0.00585079
0.00579741
0.00576052
0.00574514
0.00572779
0.00570044
0.00568169
0.00568017
0.00568349
0.00568919
0.00569972
0.00572174
0.0057509
0.00581197
0.00586347
0.00596196
0.00608238
0.0062744
0.00763187
0.00804758
0.00534484
0.0045567
0.00607445
0.00707056
0.00746458
0.00789416
0.00859968
0.00942619
0.00993194
0.0102294
0.0108819
0.0124115
0.0149674
0.0177295
0.0204007
0.0238647
0.0276844
0.0300018
0.0294558
0.0290491
0.0332678
0.0534305
0.0947571
0.106568
0.110328
0.121525
0.125111
0.102203
0.0248756
0.00334858
0.00153601
0.00125033
0.00126069
0.00127702
0.00126203
0.00118142
0.0010316
0.000908853
0.000733098
0.000570884
0.00046396
0.000337256
0.000274585
0.000203191
0.000171726
0.000155975
0.000151511
0.000156362
0.000158419
0.000161908
0.000163792
0.000166416
0.000168705
0.000170643
0.000172364
0.000173575
0.000174485
0.000175018
0.000175262
0.000175015
0.000173549
0.000171659
0.00016864
0.000165575
0.000162223
0.000157863
0.000153468
0.000149342
0.000145234
0.000140929
0.000137789
0.000134456
0.000131611
0.000128995
0.000126519
0.000124168
0.000121835
0.00011948
0.000117065
0.000114548
0.000111722
0.0001079
0.000103034
9.7363e-05
9.09252e-05
8.37038e-05
7.57835e-05
6.75453e-05
5.96899e-05
5.27067e-05
4.6733e-05
4.15899e-05
3.69229e-05
3.2326e-05
2.75628e-05
2.2605e-05
1.76626e-05
1.33075e-05
9.89223e-06
7.34937e-06
5.51173e-06
4.19468e-06
3.24189e-06
2.53981e-06
2.01179e-06
1.60698e-06
1.29265e-06
1.04802e-06
8.57536e-07
7.0776e-07
5.88305e-07
4.91917e-07
4.13469e-07
3.49148e-07
2.9597e-07
2.51572e-07
2.14095e-07
1.82135e-07
1.54648e-07
1.30895e-07
1.10325e-07
9.25399e-08
7.7187e-08
6.40036e-08
5.27041e-08
4.31053e-08
3.49508e-08
2.81334e-08
2.23905e-08
1.76969e-08
1.3745e-08
1.0641e-08
7.96702e-09
6.1313e-09
3.99904e-09
8.25758e-09
6.82445e-09
1.43638e-07
6.01713e-06
4.56432e-06
0.00734389
0.00752843
0.00743461
0.00701581
0.00684309
0.00670996
0.00650366
0.00616651
0.00582362
0.00528508
0.00499365
0.0048678
0.00477037
0.00468086
0.00467162
0.00466516
0.00466373
0.00466887
0.00468201
0.00470607
0.00476026
0.00479868
0.00486934
0.00494124
0.00501516
0.0051197
0.00518833
0.0052652
0.00533568
0.00534267
0.00532934
0.00528841
0.00517644
0.00511585
0.00511254
0.00512795
0.00518977
0.00529994
0.0056012
0.00647742
0.00655854
0.00659503
0.00668428
0.00675603
0.00637448
0.00571731
0.00584494
0.00608843
0.00553434
0.00470677
0.00400333
0.00356984
0.00357739
0.00390721
0.00431956
0.00483148
0.00553434
0.00609268
0.00626473
0.00664127
0.00747994
0.0106014
0.0133644
0.0155221
0.034354
0.096887
0.0697297
0.0256769
0.00553395
0.00162079
0.000952854
0.00072915
0.000622467
0.000532962
0.000455117
0.000381229
0.000328608
0.000298198
0.000271611
0.000260764
0.000257457
0.000258117
0.000271418
0.000278814
0.000300831
0.000317974
0.000340055
0.000360838
0.000381197
0.000397507
0.00041111
0.000423943
0.000434654
0.000443475
0.00044942
0.00045256
0.000453981
0.000454507
0.000454497
0.000451529
0.00044552
0.000438222
0.000427689
0.000415844
0.000403956
0.000385699
0.000365302
0.000343795
0.00032048
0.000294219
0.000271024
0.000248434
0.000230581
0.000216318
0.000203606
0.000192623
0.00018341
0.000175886
0.00016992
0.000165334
0.000162092
0.000160494
0.00016005
0.000160149
0.000160362
0.000160177
0.000158831
0.000155486
0.000149679
0.000141139
0.000130688
0.000119737
0.000109117
9.93636e-05
9.04448e-05
8.21359e-05
7.43478e-05
6.68279e-05
5.94811e-05
5.24905e-05
4.60032e-05
4.00599e-05
3.45985e-05
2.95596e-05
2.49616e-05
2.08329e-05
1.71728e-05
1.40263e-05
1.14658e-05
9.43433e-06
7.79028e-06
6.43991e-06
5.32525e-06
4.40887e-06
3.66211e-06
3.05864e-06
2.57244e-06
2.17888e-06
1.8562e-06
1.58685e-06
1.35763e-06
1.16055e-06
9.89732e-07
8.41522e-07
7.1225e-07
6.0009e-07
5.01962e-07
4.17574e-07
3.43976e-07
2.82212e-07
2.27712e-07
1.83866e-07
1.43521e-07
1.14758e-07
8.34559e-08
7.02725e-08
4.90677e-08
5.19643e-08
7.06964e-07
8.89981e-07
0.0065903
0.00775704
0.00784248
0.00763342
0.00714301
0.00642666
0.0055905
0.00495973
0.00455344
0.00441147
0.00439249
0.00441965
0.00449429
0.00459839
0.00477911
0.00495745
0.00517836
0.00546609
0.00577788
0.00622516
0.00668698
0.00716417
0.00776363
0.00830269
0.00888752
0.00949029
0.00993009
0.0103818
0.0107929
0.0108989
0.0108656
0.0107242
0.0103897
0.00959377
0.008479
0.00743541
0.00664341
0.00600999
0.00577119
0.00578363
0.00587895
0.00596343
0.00611639
0.00640811
0.00642407
0.00635407
0.00614657
0.00590605
0.0053133
0.00436018
0.00388418
0.00392182
0.00437642
0.00472983
0.00481377
0.00480408
0.00474708
0.00463957
0.00475114
0.00546054
0.00648498
0.00802344
0.0111778
0.0293569
0.0510601
0.0400927
0.0139384
0.00410397
0.00113522
0.000595141
0.000453932
0.000393119
0.000353144
0.000331656
0.000319773
0.000314735
0.000313996
0.000321628
0.000340831
0.000373283
0.00041661
0.000467414
0.000524164
0.000565247
0.000601284
0.0006336
0.000654462
0.000666217
0.000671733
0.000674437
0.000675597
0.000675836
0.000674565
0.000672428
0.000671872
0.000671956
0.000671838
0.000670907
0.000668917
0.000665929
0.00066143
0.000653397
0.000641244
0.000628134
0.000615377
0.000600522
0.000587748
0.000575601
0.000562991
0.000548557
0.000530836
0.000506823
0.000474528
0.000436085
0.000394371
0.000349754
0.000303168
0.000259626
0.000223971
0.000198795
0.000179626
0.000166267
0.00015839
0.000154484
0.000153223
0.00015376
0.000156481
0.000159103
0.000160068
0.000160063
0.000158679
0.000151978
0.000139347
0.000126244
0.000113485
0.00010248
9.37286e-05
8.62353e-05
7.89935e-05
7.17708e-05
6.49198e-05
5.88283e-05
5.37054e-05
4.94964e-05
4.59144e-05
4.26181e-05
3.93748e-05
3.60322e-05
3.248e-05
2.87688e-05
2.50634e-05
2.14951e-05
1.816e-05
1.51276e-05
1.24447e-05
1.01346e-05
8.19732e-06
6.61132e-06
5.3391e-06
4.33511e-06
3.5514e-06
2.94186e-06
2.46656e-06
2.09149e-06
1.78911e-06
1.54031e-06
1.33165e-06
1.15219e-06
9.96903e-07
8.56916e-07
7.36479e-07
6.22236e-07
5.30131e-07
4.33316e-07
3.68142e-07
2.82619e-07
2.44625e-07
1.63256e-07
1.75922e-07
1.6813e-07
0.00206856
0.00421219
0.00498012
0.00487434
0.00457231
0.00410461
0.0040716
0.00410881
0.00420974
0.0043807
0.00476505
0.00522713
0.00574293
0.00630874
0.00693562
0.00771457
0.00856989
0.00951369
0.0103674
0.0111559
0.0119022
0.0126213
0.0132889
0.0138945
0.014464
0.0149617
0.0153823
0.0157911
0.0161788
0.0164412
0.0165533
0.0165782
0.0165533
0.0164087
0.0159125
0.0146179
0.012707
0.0105461
0.00859603
0.00724784
0.00654586
0.00622058
0.00605828
0.00601729
0.00603713
0.00609651
0.00608859
0.00603658
0.00589074
0.00547846
0.00496787
0.00490505
0.00497019
0.00519101
0.0054157
0.00563197
0.00564643
0.0051845
0.00472653
0.00506626
0.00775131
0.0186199
0.0319066
0.0357997
0.0304891
0.00999597
0.00298402
0.000949505
0.000476694
0.000398216
0.000379361
0.000371867
0.00036885
0.000385636
0.000425768
0.000491392
0.000592559
0.000668333
0.000748146
0.00080234
0.000828183
0.000837565
0.000839043
0.000832751
0.000814449
0.000796088
0.000775803
0.000752814
0.000739537
0.000726865
0.000719037
0.000714591
0.000714336
0.000716161
0.000721034
0.000728389
0.000737457
0.000746317
0.000751114
0.000752962
0.000750092
0.000740457
0.000718893
0.000691035
0.000662576
0.000631528
0.000607172
0.000587397
0.00057577
0.000571652
0.000575212
0.000583334
0.000586372
0.000580425
0.000570406
0.000555066
0.000533956
0.000501409
0.000454538
0.000393948
0.000327933
0.000262872
0.000211249
0.00017845
0.000158076
0.000147705
0.000144001
0.00014404
0.000149213
0.000159799
0.000168212
0.000172943
0.000174598
0.000174642
0.000172975
0.000165521
0.000150675
0.000136364
0.000123154
0.000110191
9.71359e-05
8.46104e-05
7.34283e-05
6.41817e-05
5.69651e-05
5.13185e-05
4.67777e-05
4.30542e-05
3.99501e-05
3.71956e-05
3.43865e-05
3.12967e-05
2.79511e-05
2.44875e-05
2.10431e-05
1.77366e-05
1.4673e-05
1.19183e-05
9.5096e-06
7.46761e-06
5.79813e-06
4.48594e-06
3.49292e-06
2.75995e-06
2.22382e-06
1.8293e-06
1.53411e-06
1.30622e-06
1.12511e-06
9.74598e-07
8.48422e-07
7.36792e-07
6.40627e-07
5.51773e-07
4.74812e-07
4.01422e-07
3.39868e-07
2.78765e-07
2.31571e-07
1.83764e-07
0.00180688
0.00271484
0.00305939
0.0033382
0.00349713
0.00381082
0.00419562
0.00464596
0.0052003
0.00600356
0.00668445
0.00723584
0.0079188
0.00875626
0.00962585
0.0103657
0.0109865
0.0115509
0.0122165
0.0129125
0.013519
0.0140313
0.0144562
0.0147979
0.0150742
0.0153157
0.0155392
0.0157242
0.0158605
0.0159883
0.0161253
0.0162738
0.0164144
0.0165186
0.0165423
0.0163972
0.0158557
0.014818
0.0133342
0.0114559
0.00964364
0.00813244
0.00703244
0.00642452
0.00619115
0.0060338
0.00592269
0.00587116
0.00581161
0.00572098
0.00559131
0.00539744
0.00536148
0.00541831
0.0055678
0.00576196
0.00569251
0.00503179
0.00485269
0.00668269
0.0190281
0.0297027
0.0307247
0.0235545
0.00839102
0.00258051
0.000875181
0.000473832
0.000407131
0.000401101
0.000420061
0.000467568
0.000558236
0.000666567
0.000772229
0.000839129
0.00086731
0.000877436
0.00087802
0.000855781
0.000826356
0.000809205
0.000772848
0.000711008
0.000674736
0.000661399
0.000657962
0.000661767
0.000672248
0.000686962
0.000704578
0.000728319
0.00076048
0.000803398
0.00085908
0.000923943
0.000997479
0.00106763
0.00112445
0.00115077
0.00115972
0.00114878
0.00108898
0.00100567
0.000914023
0.000794849
0.00068786
0.000598638
0.000529189
0.000479048
0.000447149
0.000426888
0.000428326
0.000450166
0.000481075
0.000516251
0.000541402
0.000547835
0.000542812
0.000526172
0.000499891
0.000462678
0.000404901
0.000329048
0.000251984
0.000193808
0.000159964
0.000142223
0.000135044
0.000133675
0.000136021
0.000148268
0.000162619
0.000170841
0.000173739
0.000173808
0.000171532
0.000161104
0.000144712
0.0001318
0.000121288
0.00011143
0.000101301
9.09556e-05
8.11614e-05
7.28746e-05
6.63705e-05
6.1207e-05
5.68147e-05
5.30217e-05
5.00275e-05
4.77538e-05
4.56426e-05
4.30688e-05
3.97644e-05
3.57793e-05
3.12075e-05
2.61502e-05
2.08677e-05
1.58257e-05
1.14783e-05
8.05712e-06
5.58449e-06
3.91216e-06
2.82406e-06
2.12438e-06
1.66712e-06
1.35697e-06
1.13199e-06
9.57721e-07
8.15919e-07
6.97507e-07
5.989e-07
5.14287e-07
4.44034e-07
3.80687e-07
3.27982e-07
2.77094e-07
2.35405e-07
1.95454e-07
0.00139764
0.00224617
0.00289471
0.00369674
0.00443396
0.00510347
0.00547604
0.0058744
0.0064286
0.00687141
0.00727004
0.00798553
0.00905786
0.0101465
0.0109253
0.0112449
0.0113102
0.0112946
0.0111518
0.0108883
0.0105929
0.0102589
0.00991169
0.00959873
0.00934435
0.00915827
0.00904184
0.00899408
0.0089941
0.00906419
0.00916238
0.00930136
0.00947962
0.00971502
0.0100151
0.0103754
0.0107699
0.0111182
0.0112968
0.0112256
0.0108055
0.0100054
0.00894742
0.00795619
0.00719984
0.0066355
0.00625836
0.00600071
0.00582575
0.00566252
0.00554686
0.0055454
0.00563191
0.00564282
0.00551209
0.00532388
0.00493531
0.004464
0.00484564
0.0121891
0.025317
0.0274294
0.0194491
0.00756484
0.00246168
0.000890362
0.000509191
0.000451991
0.000448743
0.000516126
0.000659704
0.000784616
0.000868132
0.000903921
0.000916043
0.000909286
0.000891146
0.000864059
0.000818494
0.000725017
0.000678412
0.000655591
0.000647231
0.000650302
0.000687737
0.000763125
0.000867076
0.000993322
0.0010991
0.00119334
0.00127851
0.00137191
0.00148184
0.00161272
0.00178581
0.00196511
0.00216859
0.0023406
0.00248025
0.00253139
0.00250872
0.0023848
0.00219913
0.00198328
0.00177565
0.00157763
0.00136352
0.00112376
0.000882564
0.000668952
0.000510112
0.000414542
0.000349624
0.000307322
0.000282005
0.000270185
0.000282349
0.000329217
0.000391385
0.000449229
0.000484943
0.000489609
0.000478552
0.000449517
0.000408786
0.000343611
0.000262777
0.000195025
0.000155324
0.000135106
0.00012732
0.00012599
0.000128567
0.000142088
0.000158065
0.000166408
0.000168842
0.000168536
0.00016453
0.000149508
0.00013277
0.000120919
0.000111813
0.000103337
9.4427e-05
8.54022e-05
7.73372e-05
7.10607e-05
6.6542e-05
6.30949e-05
6.00331e-05
5.7111e-05
5.4462e-05
5.22246e-05
5.02521e-05
4.81174e-05
4.53148e-05
4.14873e-05
3.65853e-05
3.0923e-05
2.50928e-05
1.97086e-05
1.51053e-05
1.13534e-05
8.37156e-06
6.05486e-06
4.34266e-06
3.19639e-06
2.48325e-06
1.97205e-06
1.54246e-06
1.18439e-06
9.02561e-07
6.90051e-07
5.35416e-07
4.2327e-07
3.42362e-07
2.81623e-07
2.33568e-07
1.95175e-07
0.00175836
0.00324498
0.00442966
0.00503671
0.00526251
0.00550308
0.00576152
0.00633255
0.00687779
0.0069987
0.00703729
0.00708431
0.00713851
0.00718958
0.00719265
0.00706076
0.00690817
0.00673147
0.00653156
0.0063744
0.0062596
0.00616338
0.00609544
0.00606071
0.00604589
0.00604247
0.00606437
0.00609836
0.00615014
0.00620608
0.00626381
0.00632506
0.00637399
0.00640265
0.00641389
0.00640033
0.00637377
0.00632739
0.00629535
0.00636506
0.00654953
0.00679785
0.0069738
0.00701246
0.00688086
0.00657116
0.00625636
0.0059708
0.00572291
0.00549074
0.00537558
0.0053697
0.0053812
0.00535244
0.00525761
0.00503999
0.00444653
0.00429634
0.00574118
0.01727
0.0243583
0.0183516
0.00735727
0.00260429
0.000977716
0.000573311
0.000508709
0.000532554
0.000692296
0.00085013
0.00094048
0.000971163
0.000975733
0.000938731
0.000914572
0.000868795
0.000793648
0.000748071
0.000724734
0.000718755
0.000729515
0.00081014
0.000991966
0.00129438
0.00173135
0.00227634
0.00283655
0.00325082
0.00356731
0.00374378
0.00383336
0.00386231
0.00389883
0.00392591
0.00412457
0.00425376
0.00442334
0.00444776
0.0043208
0.00402876
0.00367014
0.00325721
0.00280637
0.00237549
0.00206029
0.00187261
0.00174197
0.00161129
0.00145879
0.00126706
0.0010388
0.000796979
0.000590558
0.000426941
0.000311916
0.000246219
0.000202797
0.000177326
0.000165411
0.000173111
0.000218863
0.000298561
0.00037274
0.00041884
0.00042608
0.00041287
0.000373935
0.000315537
0.000239245
0.000177137
0.000141983
0.000125328
0.00011981
0.00011956
0.000123954
0.000139926
0.000153105
0.0001586
0.000159361
0.000157826
0.000148748
0.000130235
0.000116974
0.00010804
0.000100932
9.37761e-05
8.59451e-05
7.81028e-05
7.14921e-05
6.68356e-05
6.37694e-05
6.12671e-05
5.85195e-05
5.54477e-05
5.25393e-05
5.02573e-05
4.85413e-05
4.68092e-05
4.43733e-05
4.08598e-05
3.63429e-05
3.12132e-05
2.59543e-05
2.09791e-05
1.65596e-05
1.28327e-05
9.82299e-06
7.48339e-06
5.70178e-06
4.32582e-06
3.224e-06
2.34422e-06
1.66619e-06
1.1664e-06
8.10411e-07
5.67802e-07
4.03359e-07
2.98911e-07
2.24453e-07
1.81044e-07
0.0027235
0.00417448
0.00494948
0.00528549
0.00542936
0.00559771
0.00575444
0.0059674
0.00609457
0.00611737
0.00606534
0.0059787
0.00595757
0.00591772
0.00582874
0.00574106
0.00564604
0.00555159
0.00544965
0.00536266
0.00528011
0.0052062
0.00516498
0.00514775
0.00515411
0.00518117
0.00523983
0.00531344
0.00542377
0.00554199
0.00568596
0.00583488
0.00597788
0.00610211
0.00618326
0.00622839
0.006179
0.00600209
0.00566941
0.00525006
0.0049322
0.00466824
0.00454093
0.00451709
0.00457536
0.0047187
0.00489587
0.00499321
0.00499254
0.00491304
0.00485416
0.00484803
0.00484024
0.00482842
0.00475277
0.00436504
0.00407298
0.0042761
0.0079767
0.0190953
0.0203867
0.00832116
0.00297954
0.00115464
0.000661754
0.000580552
0.000612577
0.000864286
0.00102758
0.00107496
0.00106869
0.00102809
0.000972951
0.000910633
0.000830288
0.000778549
0.000764118
0.000764288
0.00081578
0.000983598
0.00134162
0.00203071
0.00315828
0.00476706
0.00670356
0.00856349
0.00978469
0.0103518
0.0105498
0.0105863
0.0102225
0.00949945
0.00881245
0.00796823
0.00744926
0.00685361
0.00627788
0.00564702
0.00501606
0.00445517
0.00396625
0.00349037
0.00297446
0.00245599
0.00205051
0.00178989
0.00168359
0.0016143
0.00152832
0.00140916
0.00125861
0.00109646
0.00093203
0.000772855
0.000611487
0.000453988
0.000313268
0.000210329
0.000153512
0.000122375
0.000106849
0.000103244
0.000117308
0.000175769
0.000266572
0.000339745
0.000366532
0.000362346
0.000328311
0.000265991
0.00019781
0.000150503
0.000125745
0.000115515
0.000113201
0.000114258
0.00012232
0.000136744
0.000144437
0.00014644
0.000145905
0.00014131
0.000125647
0.000111152
0.000102363
9.63801e-05
9.08114e-05
8.4528e-05
7.76605e-05
7.11277e-05
6.60171e-05
6.27093e-05
6.05037e-05
5.83035e-05
5.55233e-05
5.23733e-05
4.9469e-05
4.72483e-05
4.56747e-05
4.41606e-05
4.20475e-05
3.89931e-05
3.50477e-05
3.05273e-05
2.58273e-05
2.12935e-05
1.71658e-05
1.35817e-05
1.05872e-05
8.15373e-06
6.18669e-06
4.58444e-06
3.29268e-06
2.29264e-06
1.54967e-06
1.02528e-06
6.65484e-07
4.34203e-07
2.86616e-07
1.96435e-07
0.0030001
0.00454019
0.00517973
0.00539561
0.00549577
0.00555475
0.00562104
0.00568787
0.00574185
0.0057589
0.00576002
0.00571781
0.00563634
0.0055253
0.0053823
0.00521409
0.00500918
0.00477123
0.00449648
0.00420506
0.00390878
0.00365125
0.00343651
0.0032867
0.00319577
0.00315709
0.00315092
0.0032312
0.00339001
0.00362147
0.00395199
0.0043414
0.00482235
0.00534737
0.00581642
0.00620644
0.00652888
0.00673322
0.00681018
0.00665978
0.00608904
0.00521069
0.00458269
0.00425288
0.00404423
0.00390864
0.00382836
0.00381587
0.00386414
0.00395827
0.00404009
0.00408223
0.00408822
0.00404717
0.00390635
0.00383424
0.0039388
0.00481394
0.0118036
0.0188553
0.0116662
0.00388876
0.00144264
0.000781137
0.00066921
0.000708381
0.000991364
0.00117252
0.00122181
0.00119351
0.00108238
0.00102058
0.000916501
0.000832094
0.000799088
0.000789797
0.000820209
0.000961724
0.00134471
0.00218484
0.00377906
0.00653156
0.0106354
0.0158359
0.0205913
0.0227266
0.0234966
0.0233453
0.0209458
0.0181685
0.0148255
0.012543
0.0108405
0.00946493
0.00846769
0.00759195
0.00676249
0.00592832
0.00515123
0.00448386
0.00392532
0.00343007
0.00290421
0.00229718
0.00162866
0.00120473
0.00109975
0.00113486
0.00121172
0.00126244
0.00122873
0.00111125
0.000978112
0.000850784
0.000735032
0.000628251
0.000522708
0.000402022
0.000269332
0.000171437
0.00011526
8.61921e-05
7.23582e-05
6.8427e-05
7.49633e-05
0.000112651
0.000207006
0.000286762
0.000315156
0.000310911
0.000273933
0.000208683
0.000155865
0.000125983
0.000112117
0.000107686
0.00010752
0.000110176
0.000120305
0.000128754
0.000131856
0.000131928
0.000129885
0.000120108
0.000105044
9.58391e-05
9.07069e-05
8.66779e-05
8.18565e-05
7.60453e-05
7.00228e-05
6.48233e-05
6.1164e-05
5.89561e-05
5.72414e-05
5.50101e-05
5.20959e-05
4.9022e-05
4.62927e-05
4.42014e-05
4.27259e-05
4.13959e-05
3.96113e-05
3.70262e-05
3.36451e-05
2.96912e-05
2.54646e-05
2.12552e-05
1.72983e-05
1.37586e-05
1.07144e-05
8.15925e-06
6.03999e-06
4.32292e-06
2.98504e-06
1.99286e-06
1.28767e-06
8.08244e-07
4.99938e-07
2.98719e-07
0.00331504
0.0048794
0.00530922
0.00542996
0.00548234
0.00552003
0.0055511
0.00557765
0.00558745
0.00555217
0.00545834
0.00527519
0.00498609
0.00458208
0.00399961
0.00349579
0.00305516
0.00257959
0.00230953
0.00207603
0.00192634
0.0018518
0.00178398
0.00170886
0.00165011
0.00157052
0.00148386
0.00141115
0.0013495
0.00131743
0.00132661
0.00142713
0.00162679
0.00198651
0.00262415
0.00351249
0.00465308
0.00593885
0.00678622
0.00730873
0.00750676
0.00753218
0.00677683
0.00583281
0.00525
0.00484834
0.00451789
0.00421356
0.00400588
0.00375209
0.00357769
0.00357009
0.00370518
0.00382004
0.00381097
0.00396838
0.00455782
0.00760081
0.0146129
0.0168683
0.00592871
0.00196156
0.000933228
0.000747434
0.000759674
0.00114208
0.00134959
0.00140303
0.0013638
0.00119173
0.00107313
0.000970396
0.000863493
0.000829896
0.000819823
0.000873361
0.00107811
0.00164037
0.00291755
0.00552761
0.0103437
0.0183628
0.029808
0.0370717
0.0402806
0.0413627
0.0402092
0.0339204
0.0278489
0.0213451
0.0160966
0.0129285
0.0108305
0.00923932
0.00814066
0.0073193
0.00656923
0.0057621
0.0048805
0.0039473
0.00315118
0.00263127
0.00216385
0.00158051
0.00109904
0.00091697
0.00082185
0.000782419
0.000786598
0.000822055
0.000871063
0.000893077
0.00087449
0.000818122
0.000739538
0.000649414
0.000571351
0.00049702
0.000416766
0.000307793
0.000200458
0.00012595
8.2115e-05
6.06232e-05
5.1837e-05
5.06473e-05
5.81537e-05
9.87848e-05
0.000197935
0.000260793
0.000274174
0.000262342
0.000211586
0.000156507
0.000124464
0.000108692
0.000102708
0.00010167
0.000102383
0.000106931
0.000114536
0.000118359
0.000119064
0.000118124
0.000112777
9.95278e-05
9.0314e-05
8.53716e-05
8.22502e-05
7.86504e-05
7.38007e-05
6.83106e-05
6.32718e-05
5.9508e-05
5.71175e-05
5.56022e-05
5.39933e-05
5.16486e-05
4.87273e-05
4.57794e-05
4.31861e-05
4.11664e-05
3.97869e-05
3.87197e-05
3.73617e-05
3.52485e-05
3.2292e-05
2.86533e-05
2.46112e-05
2.04777e-05
1.65345e-05
1.29817e-05
9.91054e-06
7.3313e-06
5.23387e-06
3.59924e-06
2.38924e-06
1.52534e-06
9.54213e-07
5.53278e-07
0.00372603
0.00510359
0.00534846
0.00542024
0.00544788
0.00545616
0.00545082
0.00540511
0.00529687
0.00506352
0.0046041
0.00385842
0.00326779
0.00273503
0.00244323
0.00224394
0.00206304
0.00196216
0.00191604
0.00189811
0.00189654
0.00192991
0.00197475
0.00199135
0.0019436
0.00183667
0.00165346
0.0014681
0.00130183
0.00112051
0.000955818
0.000874367
0.000816626
0.000789901
0.000835381
0.000983354
0.00132423
0.00207086
0.00380968
0.00604281
0.00737604
0.00805432
0.00864948
0.00863892
0.00807776
0.00753575
0.00710591
0.00661876
0.00616188
0.00585186
0.00523146
0.00482373
0.00476873
0.00496225
0.00601813
0.00707127
0.00847821
0.0122166
0.0146434
0.0104682
0.00299692
0.00118809
0.000808903
0.000773705
0.000966262
0.00135892
0.00149671
0.00152977
0.00143642
0.00116402
0.00102769
0.000924797
0.000866205
0.000851482
0.000901939
0.0011231
0.00174418
0.00320625
0.00646356
0.0132154
0.0263413
0.043473
0.0523575
0.0567367
0.0583024
0.0578636
0.0506426
0.043785
0.0343021
0.0239536
0.016403
0.0118778
0.00838496
0.00631453
0.0054005
0.00504343
0.00485873
0.00452545
0.00387252
0.00292747
0.00222241
0.00167972
0.00128496
0.00103066
0.000918381
0.000841144
0.000769093
0.00072049
0.000701226
0.000702252
0.000709834
0.000715467
0.000714468
0.000709651
0.000693386
0.000648388
0.0005847
0.000522282
0.000463162
0.000398978
0.000310267
0.000211332
0.000133134
8.24979e-05
5.55258e-05
4.40705e-05
4.101e-05
4.28856e-05
5.93265e-05
0.000131838
0.000214769
0.000242298
0.000239976
0.000208032
0.000153499
0.000121124
0.000104896
9.81828e-05
9.64856e-05
9.66319e-05
9.84884e-05
0.000104313
0.000108437
0.000109589
0.000109082
0.000105573
9.46058e-05
8.55347e-05
8.08233e-05
7.8128e-05
7.53079e-05
7.11942e-05
6.62097e-05
6.14974e-05
5.77586e-05
5.51011e-05
5.35894e-05
5.25336e-05
5.08663e-05
4.8233e-05
4.51909e-05
4.24273e-05
4.01235e-05
3.82614e-05
3.70234e-05
3.62878e-05
3.53131e-05
3.34479e-05
3.05651e-05
2.68814e-05
2.27566e-05
1.85767e-05
1.46633e-05
1.12035e-05
8.27515e-06
5.88663e-06
4.04059e-06
2.65665e-06
1.71206e-06
1.01879e-06
0.00375776
0.00509394
0.00533594
0.00538209
0.00538682
0.00535249
0.00524983
0.00503098
0.00457419
0.00382637
0.00317789
0.00277401
0.00253416
0.0024051
0.00233873
0.00229887
0.00229248
0.00246496
0.00274846
0.00292205
0.00312014
0.00325241
0.00333279
0.00339012
0.00342129
0.00343647
0.00339095
0.00322186
0.00286821
0.00230121
0.00166903
0.0012225
0.000898999
0.000730071
0.000646978
0.000620103
0.000613766
0.000713103
0.00108254
0.00226518
0.00519353