/*--------------------------------*- C++ -*----------------------------------*\
  =========                 |
  \\      /  F ield         | OpenFOAM: The Open Source CFD Toolbox
   \\    /   O peration     | Website:  https://openfoam.org
    \\  /    A nd           | Version:  7
     \\/     M anipulation  |
\*---------------------------------------------------------------------------*/
FoamFile
{
    version     2.0;
    format      ascii;
    class       surfaceScalarField;
    location    "0.081";
    object      phi;
}
// * * * * * * * * * * * * * * * * * * * * * * * * * * * * * * * * * * * * * //

dimensions      [0 3 -1 0 0 0 0];

internalField   nonuniform List<scalar> 
24170
(
1.39328e-06
1.70386e-07
1.25555e-06
1.37736e-07
1.11447e-06
1.41075e-07
1.00427e-06
1.10199e-07
9.02999e-07
1.01273e-07
8.02861e-07
1.00137e-07
7.09614e-07
9.32469e-08
6.2621e-07
8.34046e-08
5.51103e-07
7.51065e-08
4.82566e-07
6.85377e-08
4.20583e-07
6.19823e-08
3.66031e-07
5.45521e-08
3.19342e-07
4.66893e-08
2.79916e-07
3.94262e-08
2.46199e-07
3.37172e-08
2.16322e-07
2.98764e-08
1.87569e-07
2.87532e-08
1.98276e-08
1.67741e-07
1.6798e-06
1.99144e-07
1.66517e-06
1.52365e-07
1.62885e-06
1.77395e-07
1.59199e-06
1.47064e-07
1.55336e-06
1.39904e-07
1.50891e-06
1.44583e-07
1.46302e-06
1.39142e-07
1.41972e-06
1.26703e-07
1.3781e-06
1.16722e-07
1.33506e-06
1.11577e-07
1.28905e-06
1.08e-07
1.24041e-06
1.03187e-07
1.19094e-06
9.61607e-08
1.14198e-06
8.83872e-08
1.09501e-06
8.06883e-08
1.049e-06
7.58865e-08
1.00495e-06
7.28059e-08
6.63174e-08
9.58456e-07
1.79639e-06
2.49236e-07
1.76451e-06
1.84245e-07
1.7486e-06
1.93312e-07
1.73669e-06
1.58973e-07
1.73193e-06
1.44658e-07
1.73016e-06
1.4636e-07
1.72622e-06
1.43075e-07
1.7186e-06
1.34329e-07
1.70782e-06
1.27496e-07
1.69489e-06
1.24509e-07
1.68031e-06
1.22586e-07
1.66437e-06
1.19123e-07
1.6467e-06
1.13831e-07
1.62734e-06
1.07752e-07
1.60577e-06
1.02255e-07
1.58286e-06
9.87912e-08
1.55731e-06
9.83563e-08
9.59873e-08
1.52764e-06
1.92284e-06
2.91806e-07
1.89813e-06
2.08956e-07
1.89367e-06
1.97775e-07
1.88351e-06
1.69132e-07
1.8794e-06
1.48764e-07
1.88328e-06
1.4248e-07
1.88629e-06
1.40064e-07
1.88212e-06
1.38501e-07
1.87117e-06
1.38443e-07
1.85771e-06
1.37973e-07
1.84569e-06
1.34603e-07
1.83718e-06
1.27637e-07
1.8321e-06
1.18904e-07
1.82955e-06
1.10306e-07
1.82797e-06
1.0383e-07
1.82639e-06
1.00378e-07
1.82364e-06
1.01102e-07
1.03392e-07
1.81624e-06
2.11106e-06
3.98162e-07
2.06592e-06
2.54097e-07
2.05204e-06
2.11652e-07
2.04214e-06
1.7903e-07
2.03499e-06
1.55916e-07
2.03146e-06
1.46018e-07
2.02975e-06
1.41769e-07
2.02805e-06
1.40201e-07
2.02551e-06
1.40988e-07
2.02187e-06
1.41607e-07
2.01719e-06
1.39289e-07
2.01183e-06
1.32995e-07
2.00649e-06
1.24243e-07
2.00173e-06
1.15065e-07
1.99802e-06
1.07546e-07
1.99521e-06
1.03186e-07
1.99334e-06
1.0297e-07
1.06751e-07
1.98998e-06
2.26197e-06
4.12967e-07
2.22639e-06
2.89674e-07
2.21289e-06
2.25154e-07
2.20268e-06
1.89235e-07
2.19264e-06
1.6596e-07
2.18356e-06
1.55099e-07
2.17538e-06
1.49944e-07
2.16891e-06
1.46669e-07
2.16526e-06
1.44641e-07
2.16421e-06
1.42659e-07
2.16435e-06
1.39151e-07
2.16417e-06
1.33173e-07
2.16306e-06
1.25355e-07
2.16114e-06
1.1698e-07
2.15907e-06
1.0962e-07
2.15725e-06
1.05007e-07
2.15612e-06
1.04099e-07
1.07909e-07
2.15496e-06
2.41927e-06
4.76202e-07
2.39375e-06
3.15192e-07
2.38046e-06
2.38445e-07
2.37048e-06
1.99212e-07
2.36299e-06
1.7345e-07
2.36102e-06
1.57065e-07
2.36329e-06
1.47679e-07
2.36513e-06
1.4483e-07
2.36325e-06
1.46522e-07
2.35732e-06
1.48588e-07
2.34935e-06
1.4712e-07
2.3419e-06
1.40622e-07
2.33698e-06
1.30272e-07
2.33539e-06
1.18571e-07
2.33685e-06
1.08161e-07
2.34046e-06
1.014e-07
2.34513e-06
9.94295e-08
1.03266e-07
2.34977e-06
2.58031e-06
5.16381e-07
2.56888e-06
3.2662e-07
2.56093e-06
2.46397e-07
2.54362e-06
2.16516e-07
2.52464e-06
1.92436e-07
2.51529e-06
1.66411e-07
2.51632e-06
1.46646e-07
2.52238e-06
1.38774e-07
2.52881e-06
1.40094e-07
2.53364e-06
1.43754e-07
2.53665e-06
1.44118e-07
2.53803e-06
1.3924e-07
2.53823e-06
1.30069e-07
2.53755e-06
1.19255e-07
2.53648e-06
1.09228e-07
2.53534e-06
1.02538e-07
2.53469e-06
1.0008e-07
1.03156e-07
2.5348e-06
2.75273e-06
3.98436e-07
2.74861e-06
3.30734e-07
2.73229e-06
2.62722e-07
2.73552e-06
2.13286e-07
2.75257e-06
1.75387e-07
2.76951e-06
1.49463e-07
2.77562e-06
1.40543e-07
2.76964e-06
1.44752e-07
2.7574e-06
1.52332e-07
2.74564e-06
1.55517e-07
2.73787e-06
1.51882e-07
2.73399e-06
1.43118e-07
2.73208e-06
1.31983e-07
2.73015e-06
1.21181e-07
2.72736e-06
1.12023e-07
2.72383e-06
1.06072e-07
2.72058e-06
1.03324e-07
1.04937e-07
2.7188e-06
2.98069e-06
4.03212e-07
2.9537e-06
3.57725e-07
2.92842e-06
2.88003e-07
2.91972e-06
2.21978e-07
2.92234e-06
1.72767e-07
2.92731e-06
1.44494e-07
2.9292e-06
1.38659e-07
2.92814e-06
1.45806e-07
2.92751e-06
1.52967e-07
2.92976e-06
1.53267e-07
2.93469e-06
1.46949e-07
2.94032e-06
1.37486e-07
2.94462e-06
1.27685e-07
2.94683e-06
1.18971e-07
2.94724e-06
1.11617e-07
2.94699e-06
1.06314e-07
2.9472e-06
1.0312e-07
1.03315e-07
2.94882e-06
3.16124e-06
4.52969e-07
3.16198e-06
3.56986e-07
3.16132e-06
2.8866e-07
3.15153e-06
2.31774e-07
3.14058e-06
1.83718e-07
3.13376e-06
1.51315e-07
3.13269e-06
1.39723e-07
3.13606e-06
1.42436e-07
3.14147e-06
1.47562e-07
3.14669e-06
1.48046e-07
3.15047e-06
1.43165e-07
3.15293e-06
1.3503e-07
3.15509e-06
1.25523e-07
3.15839e-06
1.15666e-07
3.1638e-06
1.06215e-07
3.17143e-06
9.86804e-08
3.18096e-06
9.35907e-08
9.31315e-08
3.19114e-06
2.84383e-06
4.1335e-07
2.83965e-06
3.61173e-07
2.8391e-06
2.89205e-07
2.84354e-06
2.2733e-07
2.84742e-06
1.79842e-07
2.85092e-06
1.47811e-07
2.85736e-06
1.33289e-07
2.86682e-06
1.32975e-07
2.8755e-06
1.38887e-07
2.87918e-06
1.44359e-07
2.8763e-06
1.46052e-07
2.86856e-06
1.42762e-07
2.85944e-06
1.34645e-07
2.85223e-06
1.22872e-07
2.84914e-06
1.09314e-07
2.85071e-06
9.71083e-08
2.85692e-06
8.73747e-08
8.34129e-08
2.86664e-06
3.40684e-06
4.30081e-07
3.42629e-06
3.41718e-07
3.4541e-06
2.61403e-07
3.47322e-06
2.08212e-07
3.48181e-06
1.7125e-07
3.48487e-06
1.44752e-07
3.48586e-06
1.32294e-07
3.48608e-06
1.32759e-07
3.48621e-06
1.38755e-07
3.48719e-06
1.43376e-07
3.48989e-06
1.43351e-07
3.49442e-06
1.38236e-07
3.50015e-06
1.28915e-07
3.50616e-06
1.16858e-07
3.51204e-06
1.03436e-07
3.51802e-06
9.11314e-08
3.52472e-06
8.06729e-08
7.44962e-08
3.53364e-06
4.24447e-06
4.09088e-07
4.27985e-06
3.06337e-07
4.27367e-06
2.67578e-07
4.25895e-06
2.22934e-07
4.25108e-06
1.7912e-07
4.24678e-06
1.49056e-07
4.24211e-06
1.36965e-07
4.23926e-06
1.35602e-07
4.24155e-06
1.36467e-07
4.24954e-06
1.35383e-07
4.26118e-06
1.31719e-07
4.27338e-06
1.26036e-07
4.28409e-06
1.18203e-07
4.29243e-06
1.08514e-07
4.29858e-06
9.72833e-08
4.30329e-06
8.64261e-08
4.30729e-06
7.66753e-08
7.01865e-08
4.3116e-06
5.12691e-06
3.62783e-07
5.16749e-06
2.65758e-07
5.20886e-06
2.26214e-07
5.2216e-06
2.10196e-07
5.21338e-06
1.8734e-07
5.20068e-06
1.61757e-07
5.19426e-06
1.43378e-07
5.19445e-06
1.35417e-07
5.19624e-06
1.34677e-07
5.19631e-06
1.3531e-07
5.19497e-06
1.33059e-07
5.19439e-06
1.26613e-07
5.19616e-06
1.16436e-07
5.20039e-06
1.04288e-07
5.20628e-06
9.13927e-08
5.21282e-06
7.98794e-08
5.21973e-06
6.97679e-08
6.24381e-08
5.22748e-06
6.44571e-06
4.16951e-07
6.44319e-06
2.68281e-07
6.43255e-06
2.36855e-07
6.39224e-06
2.50507e-07
6.33837e-06
2.4121e-07
6.29981e-06
2.00321e-07
6.29315e-06
1.50033e-07
6.3114e-06
1.1717e-07
6.33681e-06
1.09264e-07
6.35663e-06
1.15485e-07
6.36778e-06
1.21916e-07
6.37318e-06
1.21209e-07
6.37695e-06
1.12665e-07
6.38179e-06
9.94482e-08
6.38893e-06
8.42513e-08
6.39891e-06
6.99056e-08
6.41211e-06
5.65686e-08
4.56719e-08
6.42887e-06
7.88601e-06
4.06052e-07
7.85203e-06
3.02263e-07
7.77731e-06
3.11576e-07
7.73351e-06
2.94303e-07
7.72259e-06
2.52136e-07
7.72008e-06
2.02832e-07
7.70913e-06
1.60981e-07
7.69086e-06
1.35443e-07
7.67655e-06
1.23564e-07
7.6755e-06
1.1654e-07
7.68967e-06
1.07745e-07
7.71528e-06
9.55965e-08
7.74648e-06
8.147e-08
7.77805e-06
6.78758e-08
7.80635e-06
5.5956e-08
7.83017e-06
4.60804e-08
7.84928e-06
3.74662e-08
2.94449e-08
7.8655e-06
9.61921e-06
5.56495e-07
9.52783e-06
3.93644e-07
9.52043e-06
3.1898e-07
9.55133e-06
2.634e-07
9.58458e-06
2.18882e-07
9.59025e-06
1.97165e-07
9.56433e-06
1.86906e-07
9.52524e-06
1.74533e-07
9.49511e-06
1.53695e-07
9.48594e-06
1.25701e-07
9.49857e-06
9.51168e-08
9.5275e-06
6.66716e-08
9.56532e-06
4.36473e-08
9.60533e-06
2.78683e-08
9.64213e-06
1.91521e-08
9.67253e-06
1.56861e-08
9.69513e-06
1.48575e-08
1.40452e-08
9.71053e-06
1.13809e-05
5.33533e-07
1.14352e-05
3.39399e-07
1.15346e-05
2.19535e-07
1.16114e-05
1.8657e-07
1.16466e-05
1.83708e-07
1.16573e-05
1.86461e-07
1.16626e-05
1.81667e-07
1.16707e-05
1.66402e-07
1.16795e-05
1.4484e-07
1.16835e-05
1.21719e-07
1.16802e-05
9.84862e-08
1.1672e-05
7.47949e-08
1.16649e-05
5.0826e-08
1.16646e-05
2.81086e-08
1.16753e-05
8.51305e-09
1.16984e-05
-7.438e-09
1.17323e-05
-1.90685e-08
-2.59201e-08
1.17723e-05
8.62728e-06
3.97577e-07
8.59066e-06
3.76022e-07
8.54664e-06
2.63558e-07
8.53169e-06
2.01514e-07
8.53031e-06
1.85086e-07
8.53855e-06
1.7823e-07
8.55722e-06
1.62994e-07
8.58513e-06
1.38491e-07
8.61759e-06
1.12376e-07
8.64867e-06
9.06376e-08
8.67344e-06
7.37196e-08
8.68957e-06
5.86687e-08
8.69785e-06
4.25483e-08
8.70134e-06
2.46143e-08
8.704e-06
5.848e-09
8.70706e-06
-1.04906e-08
8.71239e-06
-2.43983e-08
-3.44737e-08
8.72094e-06
7.18851e-06
4.42306e-07
7.25132e-06
3.13211e-07
7.26555e-06
2.49328e-07
7.27836e-06
1.88705e-07
7.29831e-06
1.65137e-07
7.32692e-06
1.49618e-07
7.36724e-06
1.22678e-07
7.41718e-06
8.85423e-08
7.47096e-06
5.85966e-08
7.52312e-06
3.84869e-08
7.5704e-06
2.64312e-08
7.61063e-06
1.84437e-08
7.64218e-06
1.09943e-08
7.66364e-06
3.15935e-09
7.67475e-06
-5.26685e-09
7.67721e-06
-1.29492e-08
7.67168e-06
-1.88634e-08
-2.40469e-08
7.66125e-06
6.34977e-06
3.89891e-07
6.39221e-06
2.70776e-07
6.43978e-06
2.01751e-07
6.47837e-06
1.50119e-07
6.51589e-06
1.27612e-07
6.5469e-06
1.18614e-07
6.56498e-06
1.04599e-07
6.57433e-06
7.91843e-08
6.58556e-06
4.737e-08
6.60687e-06
1.71792e-08
6.63949e-06
-6.18676e-09
6.67871e-06
-2.07801e-08
6.71787e-06
-2.81681e-08
6.75027e-06
-2.92348e-08
6.77107e-06
-2.60703e-08
6.77942e-06
-2.13038e-08
6.77707e-06
-1.65141e-08
-1.40587e-08
6.76709e-06
5.59568e-06
3.99961e-07
5.57085e-06
2.95606e-07
5.55297e-06
2.19635e-07
5.56182e-06
1.41269e-07
5.60675e-06
8.26801e-08
5.66905e-06
5.63082e-08
5.72867e-06
4.49829e-08
5.77595e-06
3.19072e-08
5.81125e-06
1.20685e-08
5.83807e-06
-9.64575e-09
5.85695e-06
-2.50676e-08
5.86707e-06
-3.08955e-08
5.8684e-06
-2.94954e-08
5.86359e-06
-2.44278e-08
5.85683e-06
-1.93135e-08
5.85191e-06
-1.63768e-08
5.85177e-06
-1.63784e-08
-1.91959e-08
5.85691e-06
4.82232e-06
3.75629e-07
4.9345e-06
1.83426e-07
5.0205e-06
1.33642e-07
5.06479e-06
9.6975e-08
5.07963e-06
6.78437e-08
5.08436e-06
5.15782e-08
5.09301e-06
3.63311e-08
5.10899e-06
1.59218e-08
5.12642e-06
-5.36224e-09
5.1374e-06
-2.06209e-08
5.13955e-06
-2.72139e-08
5.13458e-06
-2.59288e-08
5.1272e-06
-2.21203e-08
5.1229e-06
-2.01271e-08
5.12526e-06
-2.16658e-08
5.13513e-06
-2.62491e-08
5.15137e-06
-3.2622e-08
-3.86598e-08
5.17084e-06
4.28942e-06
2.79049e-07
4.32896e-06
1.43883e-07
4.35337e-06
1.09237e-07
4.37973e-06
7.0609e-08
4.40522e-06
4.23595e-08
4.42752e-06
2.92762e-08
4.44295e-06
2.08962e-08
4.45074e-06
8.13174e-09
4.45525e-06
-9.86938e-09
4.46027e-06
-2.56373e-08
4.46818e-06
-3.51286e-08
4.48008e-06
-3.78291e-08
4.4949e-06
-3.69347e-08
4.51092e-06
-3.61487e-08
4.52659e-06
-3.73428e-08
4.54073e-06
-4.03801e-08
4.55252e-06
-4.44153e-08
-4.7987e-08
4.56185e-06
3.76554e-06
3.10769e-07
3.79965e-06
1.09771e-07
3.83228e-06
7.66062e-08
3.85629e-06
4.6605e-08
3.87923e-06
1.94118e-08
3.90211e-06
6.40033e-09
3.92411e-06
-1.10307e-09
3.94217e-06
-9.92838e-09
3.95461e-06
-2.2306e-08
3.96168e-06
-3.27107e-08
3.96515e-06
-3.86008e-08
3.96791e-06
-4.0587e-08
3.97163e-06
-4.06554e-08
3.97609e-06
-4.0609e-08
3.98004e-06
-4.12963e-08
3.98236e-06
-4.26941e-08
3.9824e-06
-4.44591e-08
-4.61974e-08
3.98061e-06
3.32243e-06
1.9976e-07
3.35922e-06
7.29847e-08
3.37881e-06
5.70131e-08
3.39261e-06
3.2808e-08
3.40829e-06
3.72786e-09
3.43283e-06
-1.81332e-08
3.461e-06
-2.92747e-08
3.48672e-06
-3.56479e-08
3.50411e-06
-3.96987e-08
3.51259e-06
-4.11888e-08
3.51494e-06
-4.0951e-08
3.51515e-06
-4.07991e-08
3.51632e-06
-4.18254e-08
3.51977e-06
-4.40611e-08
3.52537e-06
-4.68907e-08
3.53229e-06
-4.96154e-08
3.53959e-06
-5.17569e-08
-5.32816e-08
3.54667e-06
2.85304e-06
4.80104e-08
2.91707e-06
8.94803e-09
2.94207e-06
3.2019e-08
2.9734e-06
1.47419e-09
3.00839e-06
-3.12561e-08
3.04208e-06
-5.18293e-08
3.07244e-06
-5.96278e-08
3.09656e-06
-5.97715e-08
3.11266e-06
-5.58031e-08
3.12158e-06
-5.0105e-08
3.12549e-06
-4.48628e-08
3.12639e-06
-4.16949e-08
3.1255e-06
-4.09432e-08
3.12369e-06
-4.22505e-08
3.12191e-06
-4.51044e-08
3.12109e-06
-4.87961e-08
3.12209e-06
-5.27618e-08
-5.62581e-08
3.12507e-06
2.51496e-06
-1.3584e-08
2.55935e-06
-3.54453e-08
2.60711e-06
-1.57368e-08
2.64361e-06
-3.50346e-08
2.6614e-06
-4.90397e-08
2.66321e-06
-5.36459e-08
2.65877e-06
-5.5181e-08
2.65492e-06
-5.59259e-08
2.65413e-06
-5.5006e-08
2.65602e-06
-5.19952e-08
2.65882e-06
-4.76639e-08
2.66037e-06
-4.32494e-08
2.65914e-06
-3.97149e-08
2.6546e-06
-3.77074e-08
2.64696e-06
-3.74633e-08
2.63678e-06
-3.8614e-08
2.62456e-06
-4.05468e-08
-4.23776e-08
2.61068e-06
2.16853e-06
2.13308e-06
2.11735e-06
2.08231e-06
2.03327e-06
1.97963e-06
1.92445e-06
1.86852e-06
1.81351e-06
1.76152e-06
1.71386e-06
1.67061e-06
1.63089e-06
1.59318e-06
1.55572e-06
1.51711e-06
1.47656e-06
1.43418e-06
-1.58963e-07
1.58963e-07
-3.07215e-07
1.48252e-07
-4.02453e-07
9.52384e-08
-4.31348e-07
2.88945e-08
-4.04899e-07
-2.64483e-08
-3.3722e-07
-6.76795e-08
-2.31482e-07
-1.05737e-07
-9.10772e-08
-1.40405e-07
7.73294e-08
-1.68407e-07
2.63358e-07
-1.86028e-07
4.56709e-07
-1.93351e-07
6.48088e-07
-1.91379e-07
8.30181e-07
-1.82093e-07
9.98428e-07
-1.68247e-07
1.15075e-06
-1.52326e-07
1.28707e-06
-1.36316e-07
1.40856e-06
-1.21487e-07
1.51711e-06
-1.08549e-07
1.61487e-06
-9.77649e-08
1.70401e-06
-8.91417e-08
1.78643e-06
-8.24189e-08
1.86369e-06
-7.72563e-08
1.93688e-06
-7.31879e-08
2.00656e-06
-6.9688e-08
2.07289e-06
-6.63211e-08
2.13524e-06
-6.23531e-08
2.19268e-06
-5.74431e-08
2.24328e-06
-5.06007e-08
2.28495e-06
-4.1672e-08
2.31401e-06
-2.9053e-08
2.32734e-06
-1.33371e-08
2.3186e-06
8.74052e-09
2.28049e-06
3.81174e-08
2.20652e-06
7.39692e-08
2.08598e-06
1.20533e-07
1.91761e-06
1.68376e-07
1.68036e-06
2.37249e-07
1.38921e-06
2.91153e-07
1.00879e-06
3.80419e-07
5.76178e-07
4.32609e-07
2.96081e-07
2.80097e-07
1.85847e-07
1.10234e-07
1.32763e-07
5.30834e-08
8.00273e-08
5.2736e-08
4.15218e-08
3.85055e-08
-2.20267e-08
6.35485e-08
-1.49068e-07
1.27042e-07
-3.14949e-07
1.65881e-07
-4.85085e-07
1.70135e-07
-6.35073e-07
1.49988e-07
-7.45491e-07
1.10417e-07
-7.97786e-07
5.22955e-08
-7.79832e-07
-1.79542e-08
-6.92568e-07
-8.72641e-08
-5.40818e-07
-1.5175e-07
-3.35718e-07
-2.051e-07
-1.38617e-07
-1.97101e-07
-8.62295e-09
-1.29994e-07
1.082e-07
-1.16823e-07
3.00387e-07
-1.92186e-07
5.49693e-07
-2.49306e-07
7.11253e-07
-1.6156e-07
7.04567e-07
6.68582e-09
7.21007e-07
-1.644e-08
8.9613e-07
-1.75123e-07
1.06012e-06
-1.63985e-07
1.00799e-06
5.21248e-08
6.66941e-07
3.4105e-07
1.06533e-07
5.60408e-07
-4.94292e-07
6.00825e-07
-1.07573e-06
5.81436e-07
-1.62199e-06
5.46263e-07
-2.12672e-06
5.04727e-07
-2.59035e-06
4.63633e-07
-3.01561e-06
4.25263e-07
-3.40565e-06
3.90034e-07
-3.76314e-06
3.57492e-07
-4.08988e-06
3.26746e-07
-4.38671e-06
2.96821e-07
-4.65348e-06
2.66772e-07
-4.88932e-06
2.35846e-07
-5.09295e-06
2.03631e-07
-5.26305e-06
1.70097e-07
-5.39854e-06
1.35489e-07
-5.4988e-06
1.00261e-07
-5.56389e-06
6.50848e-08
-5.59475e-06
3.08679e-08
-5.59325e-06
-1.50319e-09
-5.56413e-06
-2.91196e-08
-5.50989e-06
-5.42448e-08
-5.43341e-06
-7.64734e-08
-5.33754e-06
-9.58681e-08
-5.22436e-06
-1.13188e-07
-5.09541e-06
-1.28945e-07
-4.95153e-06
-1.43881e-07
-4.79295e-06
-1.5858e-07
-4.61955e-06
-1.73404e-07
-4.43112e-06
-1.88424e-07
-4.2278e-06
-2.03327e-07
-4.01026e-06
-2.17537e-07
-3.77996e-06
-2.30301e-07
-3.53912e-06
-2.40841e-07
-3.2906e-06
-2.48517e-07
-3.03766e-06
-2.52939e-07
-2.78362e-06
-2.54039e-07
-2.53152e-06
-2.52103e-07
-2.28378e-06
-2.47734e-07
-2.04211e-06
-2.41678e-07
-1.80738e-06
-2.34723e-07
-1.57972e-06
-2.27663e-07
-1.35865e-06
-2.21066e-07
-1.14343e-06
-2.15228e-07
-9.33147e-07
-2.10279e-07
-7.27028e-07
-2.0612e-07
-5.24647e-07
-2.0238e-07
-3.26061e-07
-1.98586e-07
-1.31747e-07
-1.94314e-07
5.73648e-08
-1.89112e-07
2.40043e-07
-1.82679e-07
4.14768e-07
-1.74724e-07
5.80132e-07
-1.65364e-07
7.34878e-07
-1.54746e-07
8.77951e-07
-1.43073e-07
1.00852e-06
-1.30567e-07
1.12599e-06
-1.1747e-07
1.23002e-06
-1.04034e-07
1.32051e-06
-9.04853e-08
1.39755e-06
-7.70393e-08
1.46155e-06
-6.40082e-08
1.5133e-06
-5.17497e-08
1.55356e-06
-4.026e-08
1.58292e-06
-2.93529e-08
1.60237e-06
-1.94551e-08
1.61286e-06
-1.0484e-08
1.61381e-06
-9.49208e-10
1.60412e-06
9.68279e-09
1.58356e-06
2.05619e-08
1.55261e-06
3.09507e-08
1.51259e-06
4.00236e-08
1.46544e-06
4.71495e-08
1.41348e-06
5.19523e-08
1.35912e-06
5.43655e-08
1.30455e-06
5.45679e-08
1.25165e-06
5.29005e-08
1.20183e-06
4.98169e-08
1.15602e-06
4.58159e-08
1.11465e-06
4.1369e-08
1.07779e-06
3.6861e-08
1.04523e-06
3.25578e-08
1.01662e-06
2.86092e-08
9.91546e-07
2.50754e-08
9.69585e-07
2.1961e-08
9.5034e-07
1.92445e-08
9.33444e-07
1.68957e-08
9.18561e-07
1.48836e-08
9.05383e-07
1.31774e-08
8.93636e-07
1.17476e-08
8.83072e-07
1.05641e-08
8.73472e-07
9.60005e-09
8.64645e-07
8.82707e-09
8.56419e-07
8.22533e-09
8.48648e-07
7.77093e-09
8.41189e-07
7.45915e-09
8.33925e-07
7.26462e-09
8.26714e-07
7.21096e-09
8.19456e-07
7.25777e-09
8.11964e-07
7.49201e-09
8.04141e-07
7.82245e-09
7.95647e-07
8.49428e-09
7.86444e-07
9.20349e-09
7.75789e-07
1.06542e-08
7.63872e-07
1.1918e-08
7.48979e-07
1.48926e-08
7.32295e-07
1.66839e-08
7.09339e-07
2.29564e-08
6.84998e-07
2.43407e-08
6.46219e-07
3.8779e-08
6.11607e-07
3.4612e-08
5.39262e-07
7.2345e-08
4.56425e-08
4.93619e-07
5.43423e-08
1.0462e-07
7.03145e-08
1.3228e-07
9.20712e-08
7.34817e-08
1.28371e-07
-7.40564e-09
1.93748e-07
-9.18252e-08
2.92324e-07
-1.66255e-07
4.21029e-07
-2.34442e-07
5.72312e-07
-2.91689e-07
7.35371e-07
-3.31465e-07
8.9689e-07
-3.47547e-07
1.0505e-06
-3.46966e-07
1.19065e-06
-3.31519e-07
1.31482e-06
-3.06271e-07
1.42295e-06
-2.76373e-07
1.51643e-06
-2.45805e-07
1.5973e-06
-2.17192e-07
1.66791e-06
-1.92094e-07
1.73065e-06
-1.71288e-07
1.78783e-06
-1.54941e-07
1.84151e-06
-1.42822e-07
1.89347e-06
-1.3438e-07
1.94508e-06
-1.28871e-07
1.99737e-06
-1.25477e-07
2.05098e-06
-1.23296e-07
2.10617e-06
-1.21509e-07
2.16291e-06
-1.191e-07
2.22074e-06
-1.15273e-07
2.27891e-06
-1.08769e-07
2.3362e-06
-9.89578e-08
2.39135e-06
-8.42067e-08
2.44182e-06
-6.38095e-08
2.48736e-06
-3.67975e-08
2.52701e-06
-1.52919e-09
2.55514e-06
4.58355e-08
2.56949e-06
1.06184e-07
2.5645e-06
1.73362e-07
2.54472e-06
2.57032e-07
2.49355e-06
3.42328e-07
2.44543e-06
4.2854e-07
2.37263e-06
5.05403e-07
2.13672e-06
5.16012e-07
1.73649e-06
5.1046e-07
1.26307e-06
5.26509e-07
8.55696e-07
4.60106e-07
5.46663e-07
3.47539e-07
3.13562e-07
2.96649e-07
1.47098e-07
2.93505e-07
1.23472e-08
3.00632e-07
-1.08529e-07
2.91011e-07
-2.13737e-07
2.55197e-07
-2.87076e-07
1.83756e-07
-3.10485e-07
7.5704e-08
-2.81329e-07
-4.71096e-08
-2.14455e-07
-1.54138e-07
-1.0963e-07
-2.56575e-07
6.19208e-08
-3.7665e-07
2.80629e-07
-4.15809e-07
4.72137e-07
-3.21502e-07
6.53869e-07
-2.98556e-07
9.04084e-07
-4.42401e-07
1.16877e-06
-5.1399e-07
1.40604e-06
-3.98833e-07
1.6548e-06
-2.42069e-07
1.71308e-06
-7.47264e-08
1.34775e-06
1.90214e-07
5.61828e-07
6.21933e-07
-3.48073e-07
9.62026e-07
-1.11713e-06
1.11011e-06
-1.70813e-06
1.1514e-06
-2.21908e-06
1.11178e-06
-2.67557e-06
1.03792e-06
-3.08274e-06
9.53433e-07
-3.44796e-06
8.69945e-07
-3.77702e-06
7.92696e-07
-4.07502e-06
7.23258e-07
-4.34593e-06
6.60946e-07
-4.59257e-06
6.04132e-07
-4.81659e-06
5.50767e-07
-5.01864e-06
4.98867e-07
-5.19852e-06
4.46657e-07
-5.35547e-06
3.92794e-07
-5.48842e-06
3.36579e-07
-5.59607e-06
2.77749e-07
-5.67724e-06
2.16654e-07
-5.73124e-06
1.54265e-07
-5.75821e-06
9.20581e-08
-5.75864e-06
3.12915e-08
-5.73359e-06
-2.65497e-08
-5.68326e-06
-7.94448e-08
-5.61013e-06
-1.27374e-07
-5.51674e-06
-1.69868e-07
-5.40533e-06
-2.07274e-07
-5.27807e-06
-2.40448e-07
-5.13633e-06
-2.70693e-07
-4.98081e-06
-2.99402e-07
-4.81158e-06
-3.27808e-07
-4.6283e-06
-3.56681e-07
-4.43061e-06
-3.86119e-07
-4.21846e-06
-4.15478e-07
-3.9925e-06
-4.43492e-07
-3.75424e-06
-4.68557e-07
-3.50602e-06
-4.89061e-07
-3.25085e-06
-5.03696e-07
-2.99207e-06
-5.11718e-07
-2.73304e-06
-5.13061e-07
-2.47677e-06
-5.08382e-07
-2.22549e-06
-4.99009e-07
-1.98062e-06
-4.86545e-07
-1.74276e-06
-4.72589e-07
-1.51166e-06
-4.58756e-07
-1.28656e-06
-4.46171e-07
-1.06644e-06
-4.35353e-07
-8.50195e-07
-4.26519e-07
-6.36942e-07
-4.19373e-07
-4.26139e-07
-4.13183e-07
-2.17835e-07
-4.0689e-07
-1.25344e-08
-3.99615e-07
1.88878e-07
-3.90524e-07
3.84609e-07
-3.7841e-07
5.73199e-07
-3.63314e-07
7.53121e-07
-3.45286e-07
9.22991e-07
-3.24616e-07
1.08164e-06
-3.01726e-07
1.22815e-06
-2.77074e-07
1.36179e-06
-2.5111e-07
1.48204e-06
-2.24283e-07
1.58861e-06
-1.97058e-07
1.68158e-06
-1.7001e-07
1.76148e-06
-1.43909e-07
1.8292e-06
-1.19469e-07
1.88598e-06
-9.70312e-08
1.93343e-06
-7.68049e-08
1.97292e-06
-5.89424e-08
2.00539e-06
-4.2956e-08
2.03241e-06
-2.7977e-08
2.05551e-06
-1.34164e-08
2.07506e-06
1.02064e-09
2.09051e-06
1.5499e-08
2.1013e-06
2.92285e-08
2.10671e-06
4.17446e-08
2.10627e-06
5.23935e-08
2.09985e-06
6.07765e-08
2.0878e-06
6.66199e-08
2.07086e-06
6.98458e-08
2.05008e-06
7.05995e-08
2.02669e-06
6.92046e-08
2.00194e-06
6.61122e-08
1.97697e-06
6.18324e-08
1.95266e-06
5.68653e-08
1.92963e-06
5.16432e-08
1.90821e-06
4.64942e-08
1.88854e-06
4.16343e-08
1.8706e-06
3.7181e-08
1.85432e-06
3.31795e-08
1.83957e-06
2.96282e-08
1.82625e-06
2.64994e-08
1.81425e-06
2.3753e-08
1.80346e-06
2.13451e-08
1.79383e-06
1.92378e-08
1.78525e-06
1.73996e-08
1.77767e-06
1.58142e-08
1.77097e-06
1.44643e-08
1.76508e-06
1.3356e-08
1.75988e-06
1.24648e-08
1.75525e-06
1.18352e-08
1.7511e-06
1.14092e-08
1.74726e-06
1.13351e-08
1.74362e-06
1.14605e-08
1.73989e-06
1.222e-08
1.73604e-06
1.30588e-08
1.73143e-06
1.52582e-08
1.72628e-06
1.70728e-08
1.71913e-06
2.20419e-08
1.71098e-06
2.4829e-08
1.69851e-06
3.543e-08
1.6847e-06
3.8153e-08
1.66245e-06
6.10278e-08
1.63787e-06
5.91951e-08
1.60038e-06
1.0983e-07
9.3858e-08
1.55217e-06
1.19988e-07
-1.53678e-08
2.41467e-07
1.08006e-08
3.50333e-07
-3.53837e-08
4.65244e-07
-1.22316e-07
5.92547e-07
-2.19128e-07
7.32642e-07
-3.0635e-07
8.7131e-07
-3.73111e-07
9.95042e-07
-4.15421e-07
1.0932e-06
-4.29627e-07
1.16406e-06
-4.18403e-07
1.2057e-06
-3.88603e-07
1.22403e-06
-3.49853e-07
1.22531e-06
-3.07553e-07
1.21568e-06
-2.66741e-07
1.20142e-06
-2.31547e-07
1.18705e-06
-2.02819e-07
1.17537e-06
-1.80413e-07
1.16794e-06
-1.63855e-07
1.16565e-06
-1.52656e-07
1.16926e-06
-1.46428e-07
1.17939e-06
-1.44511e-07
1.19641e-06
-1.4589e-07
1.22056e-06
-1.49628e-07
1.25212e-06
-1.54855e-07
1.29132e-06
-1.6071e-07
1.33838e-06
-1.66168e-07
1.39332e-06
-1.70211e-07
1.45605e-06
-1.71502e-07
1.52623e-06
-1.69136e-07
1.60343e-06
-1.61402e-07
1.68681e-06
-1.47195e-07
1.77551e-06
-1.25493e-07
1.86779e-06
-9.38107e-08
1.9659e-06
-5.22751e-08
2.06854e-06
3.54438e-09
2.1749e-06
6.70043e-08
2.28801e-06
1.43927e-07
2.3992e-06
2.31133e-07
2.50887e-06
3.1887e-07
2.59532e-06
4.18957e-07
2.61844e-06
4.92892e-07
2.58909e-06
5.39807e-07
2.52626e-06
5.89337e-07
2.36346e-06
6.22905e-07
2.07989e-06
6.31109e-07
1.74927e-06
6.27268e-07
1.44026e-06
6.0252e-07
1.18466e-06
5.56226e-07
9.83523e-07
4.92153e-07
8.28622e-07
4.10097e-07
7.14838e-07
2.97541e-07
6.37942e-07
1.526e-07
5.9224e-07
-1.40797e-09
5.85121e-07
-1.4702e-07
6.03274e-07
-2.74728e-07
6.57422e-07
-4.30799e-07
7.47048e-07
-5.05435e-07
8.77126e-07
-4.5158e-07
1.11519e-06
-5.36622e-07
1.44832e-06
-7.75526e-07
1.7451e-06
-8.1077e-07
1.824e-06
-4.77739e-07
1.54596e-06
3.59767e-08
8.38885e-07
6.32347e-07
-1.6128e-07
1.19038e-06
-1.01812e-06
1.47878e-06
-1.63589e-06
1.57979e-06
-2.10521e-06
1.57943e-06
-2.46858e-06
1.51477e-06
-2.77358e-06
1.41678e-06
-3.04526e-06
1.3096e-06
-3.29717e-06
1.20535e-06
-3.53677e-06
1.10954e-06
-3.76735e-06
1.02327e-06
-3.99003e-06
9.45944e-07
-4.20468e-06
8.75594e-07
-4.41034e-06
8.09786e-07
-4.60548e-06
7.45916e-07
-4.78809e-06
6.81476e-07
-4.95571e-06
6.14273e-07
-5.10552e-06
5.42602e-07
-5.23442e-06
4.65485e-07
-5.33944e-06
3.82765e-07
-5.41805e-06
2.95261e-07
-5.4685e-06
2.04716e-07
-5.49006e-06
1.13617e-07
-5.48294e-06
2.41762e-08
-5.44906e-06
-6.04316e-08
-5.39005e-06
-1.38457e-07
-5.30911e-06
-2.08313e-07
-5.20955e-06
-2.69429e-07
-5.09425e-06
-3.22574e-07
-4.96538e-06
-3.69319e-07
-4.82421e-06
-4.11863e-07
-4.67109e-06
-4.52516e-07
-4.50558e-06
-4.93318e-07
-4.32672e-06
-5.35547e-07
-4.13349e-06
-5.79342e-07
-3.92543e-06
-6.23546e-07
-3.703e-06
-6.6592e-07
-3.46788e-06
-7.0368e-07
-3.22282e-06
-7.34116e-07
-2.97145e-06
-7.55063e-07
-2.71781e-06
-7.65357e-07
-2.46588e-06
-7.64991e-07
-2.21914e-06
-7.55126e-07
-1.98004e-06
-7.38106e-07
-1.74985e-06
-7.16741e-07
-1.52877e-06
-6.9367e-07
-1.3159e-06
-6.71618e-07
-1.10965e-06
-6.52421e-07
-9.08226e-07
-6.36781e-07
-7.09787e-07
-6.24957e-07
-5.12866e-07
-6.16295e-07
-3.164e-07
-6.09649e-07
-1.20076e-07
-6.03214e-07
7.58772e-08
-5.95568e-07
2.69977e-07
-5.84624e-07
4.60942e-07
-5.69375e-07
6.4704e-07
-5.49412e-07
8.26502e-07
-5.24749e-07
9.9763e-07
-4.95743e-07
1.15889e-06
-4.62989e-07
1.30896e-06
-4.27145e-07
1.44672e-06
-3.88862e-07
1.57122e-06
-3.48783e-07
1.68169e-06
-3.07535e-07
1.77751e-06
-2.65825e-07
1.85825e-06
-2.24651e-07
1.92411e-06
-1.85331e-07
1.97635e-06
-1.49269e-07
2.01723e-06
-1.1769e-07
2.04943e-06
-9.11418e-08
2.07556e-06
-6.90861e-08
2.0979e-06
-5.03123e-08
2.11807e-06
-3.35871e-08
2.13708e-06
-1.79875e-08
2.15551e-06
-2.93343e-09
2.17331e-06
1.14253e-08
2.18973e-06
2.53239e-08
2.20385e-06
3.82811e-08
2.21468e-06
4.99465e-08
2.22141e-06
5.98891e-08
2.22362e-06
6.7632e-08
2.2213e-06
7.29228e-08
2.21479e-06
7.57121e-08
2.20473e-06
7.61705e-08
2.19193e-06
7.46359e-08
2.17726e-06
7.1538e-08
2.16157e-06
6.73267e-08
2.14564e-06
6.24214e-08
2.1301e-06
5.71815e-08
2.11538e-06
5.18956e-08
2.10178e-06
4.67797e-08
2.08943e-06
4.19815e-08
2.07834e-06
3.75876e-08
2.06846e-06
3.36375e-08
2.05967e-06
3.01358e-08
2.05183e-06
2.70699e-08
2.04483e-06
2.44057e-08
2.03853e-06
2.21095e-08
2.03288e-06
2.01198e-08
2.02782e-06
1.84103e-08
2.02339e-06
1.6902e-08
2.01959e-06
1.56334e-08
2.0165e-06
1.44977e-08
2.01413e-06
1.37014e-08
2.01257e-06
1.30253e-08
2.01171e-06
1.30747e-08
2.01158e-06
1.31963e-08
2.01189e-06
1.49428e-08
2.01259e-06
1.63707e-08
2.01325e-06
2.13843e-08
2.01361e-06
2.44698e-08
2.01342e-06
3.56239e-08
2.01149e-06
4.00764e-08
2.00934e-06
6.31839e-08
2.0014e-06
6.71289e-08
1.99788e-06
1.13355e-07
1.16703e-07
1.97503e-06
2.51877e-08
-4.05555e-08
1.45168e-07
-1.0918e-07
3.24934e-07
-2.15149e-07
5.19827e-07
-3.1721e-07
6.93791e-07
-3.93093e-07
8.22949e-07
-4.35508e-07
8.94381e-07
-4.44543e-07
9.05598e-07
-4.26638e-07
8.65197e-07
-3.89225e-07
7.87745e-07
-3.40951e-07
6.91891e-07
-2.92748e-07
5.92429e-07
-2.50392e-07
5.02541e-07
-2.17666e-07
4.27191e-07
-1.91391e-07
3.66618e-07
-1.70974e-07
3.16484e-07
-1.52685e-07
2.73855e-07
-1.37784e-07
2.37498e-07
-1.27498e-07
2.07276e-07
-1.22433e-07
1.8353e-07
-1.22682e-07
1.66989e-07
-1.2797e-07
1.58873e-07
-1.37774e-07
1.60519e-07
-1.51274e-07
1.73222e-07
-1.67558e-07
1.98111e-07
-1.85599e-07
2.36179e-07
-2.04236e-07
2.88159e-07
-2.22191e-07
3.54647e-07
-2.37989e-07
4.35753e-07
-2.50243e-07
5.31547e-07
-2.57196e-07
6.41859e-07
-2.57507e-07
7.6611e-07
-2.49745e-07
9.0437e-07
-2.3207e-07
1.0559e-06
-2.03807e-07
1.22143e-06
-1.6198e-07
1.39659e-06
-1.08156e-07
1.58208e-06
-4.15663e-08
1.77696e-06
3.62485e-08
1.97602e-06
1.1982e-07
2.18195e-06
2.13023e-07
2.37148e-06
3.03357e-07
2.5287e-06
3.82589e-07
2.65417e-06
4.63872e-07
2.73244e-06
5.44633e-07
2.75714e-06
6.06402e-07
2.73845e-06
6.45961e-07
2.67155e-06
6.6942e-07
2.5639e-06
6.63873e-07
2.43144e-06
6.24614e-07
2.28742e-06
5.54124e-07
2.1423e-06
4.42656e-07
1.98737e-06
3.07536e-07
1.83455e-06
1.51404e-07
1.6965e-06
-8.96312e-09
1.58552e-06
-1.63751e-07
1.51722e-06
-3.62497e-07
1.44835e-06
-4.36569e-07
1.42701e-06
-4.30241e-07
1.59018e-06
-6.99786e-07
1.72441e-06
-9.09756e-07
1.52345e-06
-6.09813e-07
9.25916e-07
1.19794e-07
5.07846e-08
9.11108e-07
-7.91397e-07
1.47453e-06
-1.41071e-06
1.80969e-06
-1.85091e-06
1.91898e-06
-2.16857e-06
1.89746e-06
-2.41082e-06
1.82168e-06
-2.61358e-06
1.71753e-06
-2.80197e-06
1.60517e-06
-2.98845e-06
1.49608e-06
-3.17775e-06
1.39465e-06
-3.37056e-06
1.30235e-06
-3.56562e-06
1.21834e-06
-3.76073e-06
1.14106e-06
-3.95358e-06
1.06844e-06
-4.14174e-06
9.97951e-07
-4.32283e-06
9.27002e-07
-4.49436e-06
8.53004e-07
-4.65365e-06
7.73562e-07
-4.79765e-06
6.86604e-07
-4.92288e-06
5.90719e-07
-5.02572e-06
4.85601e-07
-5.10296e-06
3.72508e-07
-5.152e-06
2.53753e-07
-5.17123e-06
1.3285e-07
-5.16203e-06
1.49715e-08
-5.1238e-06
-9.86632e-08
-5.06005e-06
-2.02205e-07
-4.97496e-06
-2.93405e-07
-4.87248e-06
-3.71909e-07
-4.75615e-06
-4.38901e-07
-4.62831e-06
-4.97163e-07
-4.49011e-06
-5.50064e-07
-4.34143e-06
-6.01192e-07
-4.18103e-06
-6.53722e-07
-4.007e-06
-7.09574e-07
-3.81749e-06
-7.68853e-07
-3.61139e-06
-8.29643e-07
-3.38895e-06
-8.88363e-07
-3.15195e-06
-9.40682e-07
-2.90349e-06
-9.82572e-07
-2.64766e-06
-1.01089e-06
-2.38912e-06
-1.0239e-06
-2.13258e-06
-1.02153e-06
-1.88252e-06
-1.00519e-06
-1.64245e-06
-9.78176e-07
-1.41452e-06
-9.44669e-07
-1.19971e-06
-9.08481e-07
-9.97452e-07
-8.7388e-07
-8.06003e-07
-8.4387e-07
-6.23044e-07
-8.1974e-07
-4.4607e-07
-8.01931e-07
-2.72767e-07
-7.89598e-07
-1.01089e-07
-7.81327e-07
7.01995e-08
-7.74502e-07
2.40996e-07
-7.66364e-07
4.11261e-07
-7.54889e-07
5.80548e-07
-7.38662e-07
7.48133e-07
-7.16997e-07
9.13103e-07
-6.89719e-07
1.07433e-06
-6.5697e-07
1.23036e-06
-6.1902e-07
1.37936e-06
-5.76149e-07
1.51922e-06
-5.28715e-07
1.64784e-06
-4.77406e-07
1.76371e-06
-4.23399e-07
1.86603e-06
-3.68154e-07
1.95437e-06
-3.12987e-07
2.02799e-06
-2.58951e-07
2.08603e-06
-2.07309e-07
2.12841e-06