/*--------------------------------*- C++ -*----------------------------------*\
  =========                 |
  \\      /  F ield         | OpenFOAM: The Open Source CFD Toolbox
   \\    /   O peration     | Website:  https://openfoam.org
    \\  /    A nd           | Version:  7
     \\/     M anipulation  |
\*---------------------------------------------------------------------------*/
FoamFile
{
    version     2.0;
    format      ascii;
    class       volScalarField;
    location    "0.081";
    object      pMean;
}
// * * * * * * * * * * * * * * * * * * * * * * * * * * * * * * * * * * * * * //

dimensions      [0 2 -2 0 0 0 0];

internalField   nonuniform List<scalar> 
12225
(
-2.3647
-1.2097
-0.77678
-0.665059
-0.608872
-0.568851
-0.546702
-0.5456
-0.562218
-0.589426
-0.619915
-0.648919
-0.673826
-0.697133
-0.721049
-0.76378
-0.829593
-1.03417
-2.03847
-1.19841
-0.780596
-0.661361
-0.609663
-0.572323
-0.550198
-0.547932
-0.563245
-0.589187
-0.618808
-0.6467
-0.671731
-0.693057
-0.719469
-0.750599
-0.819441
-0.893579
-1.86821
-1.21759
-0.80418
-0.663484
-0.612004
-0.576569
-0.553205
-0.548088
-0.560022
-0.582839
-0.609677
-0.636321
-0.660295
-0.68364
-0.707869
-0.742488
-0.789145
-0.85952
-1.67157
-1.18215
-0.8036
-0.652447
-0.602886
-0.57254
-0.550911
-0.544397
-0.553967
-0.57436
-0.599595
-0.625038
-0.649542
-0.672788
-0.699073
-0.730349
-0.773793
-0.828875
-1.50266
-1.14562
-0.808885
-0.649786
-0.596785
-0.569552
-0.549696
-0.541973
-0.548907
-0.566847
-0.590065
-0.614526
-0.638407
-0.662409
-0.688309
-0.719162
-0.757396
-0.802681
-1.34447
-1.09151
-0.801489
-0.641426
-0.583785
-0.55939
-0.542855
-0.535404
-0.540618
-0.556482
-0.578221
-0.601855
-0.625666
-0.649858
-0.675822
-0.705664
-0.740383
-0.780627
-1.20209
-1.02764
-0.785677
-0.631759
-0.569641
-0.546851
-0.533821
-0.52763
-0.531715
-0.545729
-0.565936
-0.588763
-0.612343
-0.63666
-0.662565
-0.691438
-0.723945
-0.760518
-1.07037
-0.954701
-0.75906
-0.6171
-0.55244
-0.530139
-0.52034
-0.516138
-0.519937
-0.532621
-0.551697
-0.573937
-0.597357
-0.621706
-0.647485
-0.67571
-0.706762
-0.741073
-0.949004
-0.877161
-0.722869
-0.596703
-0.53244
-0.510022
-0.502904
-0.501296
-0.505798
-0.517742
-0.535827
-0.557546
-0.580943
-0.60543
-0.631199
-0.658972
-0.689032
-0.72183
-0.835283
-0.795904
-0.676938
-0.569014
-0.508514
-0.486327
-0.481316
-0.48237
-0.488237
-0.500205
-0.517809
-0.539158
-0.562494
-0.587079
-0.612886
-0.640396
-0.669835
-0.701609
-0.72896
-0.71266
-0.622869
-0.533895
-0.479922
-0.45898
-0.455783
-0.459534
-0.467404
-0.480052
-0.49759
-0.518871
-0.542348
-0.56717
-0.593106
-0.620482
-0.649441
-0.680357
-0.636863
-0.634184
-0.566135
-0.494277
-0.448281
-0.429904
-0.42851
-0.434621
-0.444651
-0.458539
-0.476538
-0.49794
-0.52158
-0.546649
-0.572771
-0.600109
-0.628732
-0.658952
-0.546676
-0.555687
-0.505624
-0.449267
-0.41197
-0.397278
-0.398062
-0.406541
-0.418809
-0.434305
-0.453189
-0.475121
-0.499176
-0.524602
-0.550956
-0.578312
-0.606629
-0.63617
-0.436066
-0.461294
-0.429968
-0.389703
-0.363064
-0.354161
-0.358367
-0.369844
-0.385047
-0.40288
-0.423274
-0.446069
-0.470705
-0.496613
-0.523334
-0.550799
-0.578871
-0.607716
-0.319619
-0.354927
-0.338066
-0.313155
-0.298677
-0.297682
-0.3069
-0.322196
-0.340777
-0.361567
-0.38431
-0.408822
-0.434672
-0.461416
-0.488639
-0.516256
-0.54409
-0.572282
-0.186474
-0.227622
-0.223592
-0.213951
-0.213293
-0.222614
-0.238982
-0.259662
-0.282832
-0.307563
-0.333464
-0.360337
-0.387919
-0.415937
-0.444057
-0.472143
-0.499971
-0.527537
-0.0403528
-0.0804647
-0.0843882
-0.0889218
-0.103055
-0.124734
-0.150522
-0.178478
-0.207683
-0.237669
-0.268087
-0.298655
-0.3291
-0.359222
-0.388809
-0.417794
-0.446046
-0.473645
0.161667
0.107902
0.0881263
0.0673669
0.0372924
0.00113949
-0.0369336
-0.0748564
-0.112027
-0.148453
-0.184149
-0.219023
-0.252905
-0.285729
-0.317402
-0.347924
-0.377124
-0.405008
0.423623
0.353244
0.313093
0.271191
0.220579
0.165296
0.110179
0.0574922
0.00761847
-0.0397578
-0.0848231
-0.127523
-0.167723
-0.205431
-0.240756
-0.273976
-0.305245
-0.334831
0.679106
0.600066
0.541108
0.474623
0.399454
0.323829
0.25363
0.189888
0.13127
0.0763514
0.0244605
-0.0244992
-0.0704189
-0.113307
-0.153234
-0.190372
-0.224821
-0.256829
0.918566
0.827814
0.744594
0.647714
0.543863
0.444536
0.355324
0.275824
0.203897
0.13806
0.0778628
0.0231462
-0.0264733
-0.0716699
-0.113099
-0.151381
-0.186817
-0.219739
1.16394
1.05143
0.93385
0.8028
0.675041
0.562658
0.466295
0.380614
0.301283
0.22715
0.158847
0.0968966
0.041023
-0.00953242
-0.0555106
-0.0975816
-0.136196
-0.171782
1.43906
1.27998
1.10361
0.920879
0.757578
0.623218
0.512418
0.416021
0.328947
0.250126
0.179656
0.117072
0.0612662
0.0108853
-0.0350542
-0.077139
-0.115617
-0.150873
1.71865
1.51167
1.27358
1.05025
0.871286
0.732024
0.613989
0.504946
0.403527
0.312627
0.233592
0.165014
0.104501
0.0501436
0.000867919
-0.0439954
-0.0848923
-0.122365
1.9976
1.70326
1.36256
1.08307
0.888278
0.747425
0.626632
0.51421
0.411523
0.321475
0.243825
0.176111
0.11584
0.0614324
0.0121383
-0.0325513
-0.0730234
-0.109834
2.36881
1.9499
1.50644
1.18779
0.986211
0.835469
0.695994
0.565137
0.450448
0.354186
0.272983
0.202415
0.139577
0.083059
0.0321567
-0.0137793
-0.0553709
-0.0933139
2.6887
2.03851
1.48905
1.17324
0.994114
0.846866
0.703024
0.569592
0.455403
0.360388
0.279785
0.209209
0.1462
0.0896059
0.0387387
-0.00707773
-0.0484683
-0.0860974
3.20275
2.26334
1.56769
1.23627
1.05433
0.889522
0.73024
0.589673
0.472882
0.376206
0.293931
0.221893
0.157814
0.100506
0.0491515
0.00301212
-0.0386682
-0.0765881
3.42847
2.22664
1.53129
1.24621
1.0672
0.895173
0.732452
0.592168
0.47628
0.379956
0.297647
0.225534
0.161442
0.104202
0.0529163
0.00693767
-0.0345653
-0.0720658
4.23906
2.27189
1.5318
1.27995
1.08889
0.905978
0.74009
0.599273
0.482906
0.385963
0.303117
0.230621
0.166269
0.108848
0.0574296
0.0113813
-0.0301273
-0.0674265
-0.698878
-0.716598
-0.741841
-0.762043
-0.771247
-0.771133
-0.767358
-0.767918
-0.781365
-0.814758
-0.87252
-0.955448
-1.06068
-1.18321
-1.31604
-1.45109
-1.58016
-1.69576
-1.79174
-1.864
-1.91045
-1.93134
-1.92935
-1.90922
-1.87672
-1.83767
-1.79717
-1.75951
-1.72627
-1.699
-1.67817
-1.66619
-1.66534
-1.67444
-1.69425
-1.72807
-1.77902
-1.84737
-1.93071
-2.02644
-2.12883
-2.23514
-2.34438
-2.4561
-2.56669
-2.67344
-2.7752
-2.86914
-2.94949
-3.01051
-3.04969
-3.06553
-3.05887
-3.0331
-2.99277
-2.94192
-2.88329
-2.81703
-2.74179
-2.65791
-2.56878
-2.47777
-2.38746
-2.29949
-2.21839
-2.14932
-2.09344
-2.05036
-2.01786
-1.99071
-1.96168
-1.92483
-1.87597
-1.81223
-1.7315
-1.63219
-1.51309
-1.37325
-1.21214
-1.02963
-0.826138
-0.602722
-0.360984
-0.102889
0.169361
0.453442
0.746966
1.04746
1.35237
1.65906
1.96483
2.26701
2.56306
2.8506
3.12758
3.39225
3.64328
3.87972
4.10098
4.30676
4.4969
4.67129
4.82983
4.97245
5.09914
5.21001
5.30538
5.38579
5.45206
5.50519
5.54631
5.57666
5.59749
5.61001
5.61535
5.61456
5.60856
5.59819
5.58421
5.56729
5.54803
5.52697
5.5046
5.48136
5.45763
5.43371
5.40989
5.38637
5.36334
5.34092
5.3192
5.29823
5.27807
5.2587
5.24011
5.22228
5.20517
5.18878
5.17307
5.15804
5.14365
5.12989
5.11676
5.10423
5.09227
5.08087
5.06997
5.05955
5.04955
5.03993
5.03065
5.02167
5.01296
5.00448
4.99621
4.98812
4.9802
4.97244
4.96483
4.95736
4.95004
4.94288
4.9359
4.92912
4.92258
4.91634
4.91045
4.90502
4.90015
4.89604
4.89281
4.89091
4.89045
4.89235
4.89673
4.90548
4.91887
4.94063
4.97368
5.01676
-0.782931
-0.802599
-0.833487
-0.857948
-0.870131
-0.870598
-0.868391
-0.870592
-0.887371
-0.925478
-0.988663
-1.07698
-1.18735
-1.31437
-1.45097
-1.58925
-1.72131
-1.83983
-1.93858
-2.0127
-2.05923
-2.07788
-2.07118
-2.04418
-2.00351
-1.95644
-1.90924
-1.86675
-1.83212
-1.80767
-1.79516
-1.79371
-1.80409
-1.82773
-1.86185
-1.90399
-1.96004
-2.0358
-2.12365
-2.21567
-2.31464
-2.41965
-2.5306
-2.64917
-2.7707
-2.88393
-2.98569
-3.0764
-3.15058
-3.20334
-3.23292
-3.23949
-3.22475
-3.19186
-3.14471
-3.08669
-3.02119
-2.9494
-2.87009
-2.78377
-2.69342
-2.60184
-2.51099
-2.42327
-2.34141
-2.27187
-2.2171
-2.17253
-2.13523
-2.10072
-2.06327
-2.0181
-1.96167
-1.8914
-1.80524
-1.70146
-1.57854
-1.43522
-1.27074
-1.08498
-0.878431
-0.652138
-0.407593
-0.146716
0.128308
0.415139
0.711364
1.01444
1.32175
1.63067
1.93854
2.2427
2.54059
2.82982
3.1083
3.37427
3.62642
3.8638
4.0859
4.29245
4.48335
4.65853
4.81792
4.96141
5.08898
5.20072
5.29689
5.37804
5.44497
5.49869
5.54037
5.57123
5.59254
5.60552
5.61131
5.61093
5.60532
5.59531
5.58164
5.56498
5.54595
5.52509
5.50289
5.47979
5.45617
5.43235
5.40861
5.38517
5.3622
5.33984
5.31818
5.29727
5.27715
5.25782
5.23928
5.22151
5.20448
5.18816
5.17253
5.15757
5.14326
5.12957
5.1165
5.10403
5.09212
5.08075
5.06988
5.05948
5.04949
5.03988
5.0306
5.02163
5.01291
5.00443
4.99616
4.98807
4.98014
4.97237
4.96475
4.95727
4.94994
4.94276
4.93576
4.92896
4.92239
4.91611
4.91018
4.90469
4.89974
4.89553
4.89218
4.89007
4.88941
4.89087
4.89492
4.90254
4.91522
4.93323
4.96192
4.98634
-0.806057
-0.820576
-0.845946
-0.870541
-0.8926
-0.912441
-0.934385
-0.964463
-1.00942
-1.0743
-1.16143
-1.27008
-1.39692
-1.53669
-1.68284
-1.82808
-1.96488
-2.08603
-2.18541
-2.25832
-2.30182
-2.31586
-2.30334
-2.26931
-2.21993
-2.16163
-2.10108
-2.04479
-1.99864
-1.96759
-1.95486
-1.96078
-1.98168
-2.01447
-2.06007
-2.12085
-2.19588
-2.28496
-2.38809
-2.50185
-2.62143
-2.74476
-2.87028
-2.99292
-3.10961
-3.2212
-3.32662
-3.41959
-3.49235
-3.54022
-3.56131
-3.55626
-3.52783
-3.48037
-3.41861
-3.34663
-3.26952
-3.18984
-3.10697
-3.02151
-2.93432
-2.84446
-2.75094
-2.65914
-2.57551
-2.50175
-2.43795
-2.382
-2.33053
-2.27998
-2.22673
-2.16747
-2.0993
-2.01968
-1.92637
-1.81726
-1.69035
-1.54379
-1.37626
-1.18727
-0.977058
-0.746595
-0.497504
-0.231875
0.0479462
0.339501
0.640312
0.947843
1.25952
1.57268
1.88463
2.19267
2.49419
2.78674
3.06817
3.33671
3.59105
3.83031
4.05404
4.26212
4.45455
4.63132
4.79239
4.93764
5.06698
5.18042
5.2782
5.36082
5.42909
5.48404
5.52685
5.55879
5.58114
5.59513
5.60188
5.60242
5.59768
5.58846
5.57551
5.5595
5.54103
5.52067
5.4989
5.47618
5.4529
5.42938
5.40591
5.3827
5.35994
5.33776
5.31627
5.29553
5.27556
5.25639
5.23801
5.22039
5.20351
5.18734
5.17187
5.15705
5.14288
5.12933
5.11637
5.10399
5.09215
5.08083
5.07
5.05961
5.04963
5.04001
5.03072
5.02173
5.013
5.00449
4.9962
4.98809
4.98014
4.97235
4.9647
4.95719
4.94983
4.94261
4.93557
4.92871
4.92207
4.91571
4.90967
4.90404
4.89893
4.89446
4.89084
4.88827
4.88712
4.88767
4.89075
4.89636
4.90662
4.91933
4.94027
4.95293
-0.803372
-0.808296
-0.821488
-0.849668
-0.889522
-0.937805
-0.994885
-1.06311
-1.14533
-1.24381
-1.35957
-1.49198
-1.63856
-1.79488
-1.95493
-2.11161
-2.25728
-2.38439
-2.48656
-2.55864
-2.59788
-2.60488
-2.58348
-2.53981
-2.48089
-2.41414
-2.34663
-2.2852
-2.23543
-2.20384
-2.19154
-2.1971
-2.21925
-2.25711
-2.31047
-2.38044
-2.46757
-2.57067
-2.68734
-2.81469
-2.94915
-3.08654
-3.22418
-3.36053
-3.49362
-3.62067
-3.7376
-3.83751
-3.91356
-3.96111
-3.97784
-3.96395
-3.92245
-3.85881
-3.7791
-3.6884
-3.59266
-3.49648
-3.40168
-3.30976
-3.21919
-3.12653
-3.03169
-2.93714
-2.848
-2.76647
-2.69191
-2.62265
-2.55672
-2.49172
-2.42498
-2.35381
-2.27561
-2.18796
-2.0885
-1.97484
-1.84454
-1.69519
-1.52477
-1.33218
-1.11735
-0.881279
-0.625834
-0.353415
-0.0666762
0.231694
0.539127
0.85311
1.17102
1.49017
1.80785
2.12132
2.42791
2.72511
3.0107
3.28285
3.54025
3.7821
4.00809
4.21826
4.41275
4.5917
4.7551
4.90279
5.03461
5.15047
5.25054
5.33528
5.40549
5.46222
5.5067
5.54023
5.56412
5.57959
5.58778
5.58971
5.58627
5.57825
5.56639
5.55134
5.53373
5.51412
5.49301
5.47088
5.4481
5.42502
5.40194
5.37908
5.35663
5.33473
5.31349
5.29298
5.27323
5.25426
5.23606
5.21863
5.20193
5.18595
5.17064
5.15599
5.14197
5.12856
5.11573
5.10346
5.09172
5.08047
5.0697
5.05936
5.04941
5.03982
5.03055
5.02157
5.01285
5.00435
4.99605
4.98793
4.97998
4.97217
4.96451
4.95698
4.94959
4.94233
4.93524
4.92832
4.92161
4.91515
4.90899
4.9032
4.89788
4.89314
4.88917
4.8861
4.88433
4.88392
4.88574
4.88935
4.89665
4.90478
4.9178
4.92072
-0.815113
-0.817238
-0.835148
-0.873156
-0.930569
-1.00391
-1.08957
-1.18677
-1.29727
-1.42315
-1.56523
-1.72244
-1.89182
-2.06879
-2.24717
-2.41949
-2.57758
-2.71341
-2.82019
-2.8922
-2.92739
-2.92765
-2.89839
-2.84693
-2.7813
-2.70929
-2.63814
-2.57438
-2.52353
-2.49026
-2.47704
-2.48394
-2.51004
-2.55505
-2.61896
-2.70187
-2.80298
-2.92027
-3.05109
-3.19192
-3.33869
-3.48778
-3.63649
-3.78273
-3.92434
-4.05833
-4.18069
-4.2861
-4.36852
-4.42208
-4.44221
-4.42728
-4.37892
-4.30164
-4.20246
-4.08919
-3.96976
-3.85047
-3.73642
-3.63015
-3.52999
-3.43039
-3.33052
-3.23242
-3.13758
-3.04709
-2.96119
-2.8795
-2.80106
-2.72425
-2.64695
-2.5667
-2.48101
-2.38746
-2.28367
-2.16713
-2.03506
-1.88442
-1.7122
-1.51621
-1.29611
-1.05314
-0.789585
-0.508337
-0.212523
0.0948371
0.411006
0.733309
1.05907
1.38566
1.71039
2.03055
2.34343
2.64644
2.93726
3.21397
3.47523
3.72033
3.94912
4.16184
4.35884
4.54042
4.70664
4.85733
4.99221
5.1111
5.21403
5.30145
5.37414
5.43319
5.47985
5.51546
5.54136
5.55879
5.56888
5.57261
5.57085
5.56438
5.55392
5.54014
5.52365
5.50503
5.48482
5.46347
5.4414
5.41895
5.39642
5.37406
5.35205
5.33054
5.30966
5.28947
5.27002
5.25133
5.23341
5.21624
5.1998
5.18405
5.16898
5.15456
5.14074
5.12752
5.11485
5.10272
5.0911
5.07996
5.06927
5.059
5.04911
5.03956
5.03032
5.02136
5.01265
5.00415
4.99586
4.98774
4.97978
4.97196
4.96428
4.95672
4.9493
4.94201
4.93486
4.92787
4.92107
4.9145
4.9082
4.90222
4.89667
4.89162
4.88725
4.88363
4.88113
4.87971
4.88006
4.88167
4.88576
4.88973
4.89534
4.8915
-0.847079
-0.853796
-0.883315
-0.937075
-1.01115
-1.10028
-1.20326
-1.32086
-1.454
-1.60356
-1.76961
-1.95015
-2.14145
-2.33829
-2.53412
-2.72127
-2.89132
-3.03587
-3.1474
-3.22086
-3.25481
-3.25228
-3.21969
-3.16548
-3.09864
-3.0273
-2.95851
-2.89867
-2.85295
-2.82514
-2.81759
-2.83099
-2.86555
-2.92142
-2.99815
-3.09484
-3.20961
-3.33986
-3.48224
-3.63282
-3.78776
-3.9437
-4.0981
-4.24897
-4.39425
-4.53101
-4.65534
-4.76223
-4.84572
-4.89966
-4.91916
-4.90176
-4.84785
-4.76133
-4.64839
-4.51722
-4.37665
-4.23505
-4.10008
-3.97607
-3.86116
-3.7512
-3.64349
-3.53742
-3.43336
-3.33204
-3.23426
-3.1405
-3.05064
-2.9638
-2.87825
-2.79151
-2.70084
-2.60358
-2.49742
-2.37997
-2.24828
-2.09859
-1.92657
-1.72871
-1.50387
-1.25353
-0.980694
-0.68897
-0.382167
-0.0638658
0.262734
0.59468
0.929428
1.26442
1.59706
1.92467
2.24456
2.55408
2.85078
3.13265
3.39832
3.64712
3.87908
4.09469
4.29454
4.47907
4.64847
4.80258
4.941
5.06338
5.16966
5.2602
5.33582
5.39762
5.4469
5.48508
5.5135
5.5334
5.54585
5.55181
5.55211
5.54751
5.53871
5.52641
5.51124
5.4938
5.47464
5.45425
5.43305
5.41139
5.38958
5.36785
5.3464
5.32541
5.30498
5.2852
5.26613
5.2478
5.23021
5.21334
5.19718
5.18171
5.1669
5.15271
5.13913
5.12611
5.11363
5.10166
5.09019
5.07917
5.06858
5.05839
5.04857
5.03907
5.02988
5.02095
5.01227
5.0038
4.99552
4.98741
4.97945
4.97162
4.96393
4.95635
4.9489
4.94156
4.93436
4.9273
4.92041
4.91372
4.90726
4.90109
4.89529
4.8899
4.88509
4.88089
4.87759
4.87512
4.87394
4.87356
4.87454
4.87473
4.87421
4.86524
-0.879135
-0.901102
-0.947928
-1.01561
-1.10068
-1.20043
-1.31538
-1.44741
-1.59805
-1.76729
-1.9532
-2.15213
-2.35943
-2.5698
-2.77726
-2.97481
-3.15411
-3.30662
-3.42461
-3.50329
-3.54179
-3.54345
-3.51511
-3.466
-3.40551
-3.34229
-3.28372
-3.23586
-3.20344
-3.18979
-3.19673
-3.22481
-3.2741
-3.34411
-3.43393
-3.54222
-3.66705
-3.8059
-3.95583
-4.11351
-4.27546
-4.43878
-4.60117
-4.76036
-4.91353
-5.05717
-5.18693
-5.29731
-5.38231
-5.43648
-5.45551
-5.436
-5.37709
-5.28085
-5.15278
-5.00136
-4.83668
-4.66946
-4.50933
-4.36194
-4.22613
-4.09762
-3.97363
-3.85284
-3.73493
-3.62004
-3.50867
-3.40171
-3.3
-3.20359
-3.1112
-3.02021
-2.92716
-2.82865
-2.72215
-2.60569
-2.47639
-2.32988
-2.16078
-1.96386
-1.73621
-1.47913
-1.19656
-0.893177
-0.573716
-0.242597
0.0963189
0.439974
0.785592
1.13052
1.47216
1.80794
2.13526
2.45151
2.75423
3.04138
3.31157
3.56422
3.79948
4.01809
4.22085
4.40847
4.58127
4.7391
4.88145
5.00777
5.11779
5.21182
5.29067
5.35557
5.40789
5.44911
5.48055
5.50343
5.51874
5.52738
5.53012
5.52771
5.52085
5.51024
5.49656
5.48044
5.46247
5.44316
5.42295
5.40221
5.38123
5.36027
5.33953
5.31915
5.29929
5.28001
5.2614
5.24348
5.22627
5.20978
5.19397
5.17883
5.16433
5.15044
5.13713
5.12435
5.11209
5.10032
5.08902
5.07814
5.06768
5.0576
5.04786
5.03844
5.02931
5.02044
5.01179
5.00335
4.99509
4.987
4.97905
4.97122
4.96352
4.95592
4.94844
4.94106
4.9338
4.92667
4.91968
4.91286
4.90624
4.89985
4.89377
4.88803
4.88274
4.87794
4.8738
4.87026
4.86754
4.8652
4.86328
4.86004
4.85457
4.84143
-0.916804
-0.951849
-1.01695
-1.09323
-1.18256
-1.2875
-1.41108
-1.55468
-1.71783
-1.89852
-2.094
-2.30067
-2.51461
-2.73178
-2.94726
-3.15448
-3.34491
-3.50891
-3.63869
-3.72908
-3.7791
-3.79215
-3.77543
-3.73859
-3.69187
-3.64454
-3.60412
-3.57637
-3.56522
-3.57288
-3.6
-3.64632
-3.71129
-3.79427
-3.89475
-4.01206
-4.14532
-4.29316
-4.45367
-4.62427
-4.80204
-4.98412
-5.16746
-5.34857
-5.52339
-5.68697
-5.83317
-5.95508
-6.0459
-6.09956
-6.11115
-6.07809
-6.00045
-5.88128
-5.72688
-5.54604
-5.34988
-5.15091
-4.96019
-4.78352
-4.62007
-4.46642
-4.31991
-4.17895
-4.04263
-3.91056
-3.78309
-3.66133
-3.54665
-3.4399
-3.34067
-3.24694
-3.15473
-3.05898
-2.95586
-2.84326
-2.71842
-2.57703
-2.41339
-2.22074
-1.99307
-1.73046
-1.43757
-1.12078
-0.786334
-0.439754
-0.0854819
0.272794
0.631791
0.988602
1.34054
1.68513
2.01998
2.34278
2.65126
2.94345
3.21795
3.47422
3.71256
3.93396
4.13949
4.33015
4.50639
4.6681
4.81462
4.94517
5.05924
5.15704
5.2394
5.30766
5.36335
5.40796
5.44284
5.46912
5.48775
5.49951
5.5051
5.50521
5.50055
5.49185
5.47983
5.46517
5.44851
5.43039
5.41127
5.39155
5.37153
5.35145
5.33151
5.31188
5.29268
5.27401
5.25595
5.23854
5.2218
5.20573
5.19032
5.17554
5.16139
5.14781
5.13479
5.12228
5.11027
5.09871
5.08759
5.07689
5.06657
5.05661
5.04698
5.03765
5.02859
5.01978
5.01119
5.00279
4.99456
4.98649
4.97855
4.97073
4.96302
4.95541
4.94789
4.94047
4.93315
4.92594
4.91885
4.91189
4.9051
4.89849
4.89212
4.88601
4.88024
4.87481
4.86982
4.86519
4.86097
4.85673
4.85218
4.84586
4.83639
4.81986
-0.992368
-1.0289
-1.08994
-1.16186
-1.24975
-1.3561
-1.48274
-1.63006
-1.7969
-1.98079
-2.17888
-2.38807
-2.60553
-2.82832
-3.05272
-3.27217
-3.47688
-3.65635
-3.80168
-3.90764
-3.97331
-4.00246
-4.00287
-3.98486
-3.95919
-3.9351
-3.91967
-3.91781
-3.93216
-3.96338
-4.01081
-4.0735
-4.15109
-4.24422
-4.35414
-4.482
-4.62845
-4.79348
-4.97605
-5.17394
-5.38395
-5.60208
-5.82323
-6.04178
-6.25136
-6.44435
-6.61218
-6.74628
-6.83904
-6.88452
-6.87916
-6.82158
-6.71339
-6.55917
-6.36639
-6.14539
-5.90887
-5.67058
-5.44224
-5.22967
-5.03283
-4.84912
-4.67597
-4.51147
-4.35419
-4.20315
-4.05811
-3.92014
-3.79138
-3.67385
-3.56812
-3.47263
-3.38351
-3.29425
-3.19904
-3.09471
-2.97819
-2.84463
-2.6878
-2.49985
-2.27261
-2.00436
-1.69991
-1.36746
-1.0151
-0.649861
-0.277269
0.0981726
0.472651
0.842856
1.20598
1.5597
1.90195
2.23089
2.54461
2.84131
3.11957
3.37895
3.61994
3.84381
4.05198
4.2457
4.42554
4.5913
4.74207
4.87687
4.99506
5.09679
5.18291
5.25481
5.3141
5.36232
5.40086
5.43083
5.45307
5.46826
5.47701
5.47994
5.47774
5.47117
5.46099
5.44794
5.43271
5.41589
5.39798
5.37938
5.36041
5.34132
5.3223
5.30351
5.28508
5.26711
5.24968
5.23286
5.21665
5.20107
5.18611
5.17176
5.15799
5.14478
5.13208
5.11988
5.10814
5.09683
5.08592
5.07541
5.06525
5.05543
5.04593
5.0367
5.02773
5.019
5.01047
5.00212
4.99393
4.98589
4.97797
4.97016
4.96245
4.95483
4.94729
4.93982
4.93244
4.92515
4.91795
4.91086
4.90388
4.89705
4.89038
4.88389
4.87762
4.87155
4.86572
4.86001
4.85434
4.8483
4.84139
4.83233
4.81962
4.80031
-1.06104
-1.09056
-1.13933
-1.20449
-1.28893
-1.39384
-1.52038
-1.6684
-1.83623
-2.02099
-2.21968
-2.42958
-2.64886
-2.87602
-3.10805
-3.33834
-3.55654
-3.75123
-3.91342
-4.03826
-4.1252
-4.17809
-4.20472
-4.21476
-4.21808
-4.22324
-4.23654
-4.26157
-4.29943
-4.34971
-4.41181
-4.48591
-4.57344
-4.677
-4.80006
-4.94608
-5.11729
-5.31427
-5.53559
-5.7778
-6.03579
-6.30313
-6.57251
-6.83619
-7.0856
-7.31106
-7.50232
-7.64958
-7.74475
-7.78213
-7.75809
-7.67168
-7.5256
-7.32617
-7.08331
-6.80991
-6.52096
-6.23178
-5.9547
-5.69632
-5.45807
-5.23825
-5.03429
-4.84365
-4.66408
-4.4938
-4.33191
-4.17906
-4.03765
-3.91054
-3.79937
-3.70335
-3.61901
-3.53892
-3.45515
-3.36281
-3.258
-3.13475
-2.98537
-2.80113
-2.57252
-2.29641
-1.97813
-1.62724
-1.25391
-0.867207
-0.473976
-0.0794843
0.311921
0.696525
1.07133
1.43423
1.78367
2.11829
2.43653
2.73684
3.01798
3.27973
3.52289
3.74906
3.96003
4.15716
4.34098
4.51094
4.66589
4.80471
4.92685
5.0325
5.12251
5.19822
5.26123
5.31317
5.35547
5.3892
5.41518
5.43395
5.44602
5.45195
5.4524
5.44812
5.43994
5.42866
5.415
5.39962
5.38305
5.3657
5.3479
5.3299
5.3119
5.29407
5.27652
5.25935
5.24265
5.22648
5.21088
5.19586
5.18142
5.16754
5.15421
5.14139
5.12906
5.11719
5.10574
5.0947
5.08403
5.07372
5.06375
5.05409
5.04472
5.03562
5.02676
5.0181
5.00965
5.00136
4.99322
4.98521
4.97732
4.96953
4.96182
4.95418
4.94662
4.93911
4.93167
4.9243
4.91699
4.90975
4.9026
4.89553
4.88855
4.88168
4.87491
4.8682
4.86154
4.85478
4.84775
4.84002
4.83099
4.81954
4.80416
4.78255
-1.09132
-1.11568
-1.15882
-1.22
-1.30213
-1.4062
-1.5334
-1.68319
-1.85335
-2.04086
-2.2428
-2.4566
-2.68055
-2.91339
-3.15232
-3.39076
-3.61892
-3.826
-4.00387
-4.14867
-4.2604
-4.34237
-4.40075
-4.44343
-4.47855
-4.51326
-4.55274
-4.59976
-4.6551
-4.71886
-4.79189
-4.87668
-4.97721
-5.09852
-5.24581
-5.42327
-5.63307
-5.87482
-6.14518
-6.43843
-6.74777
-7.06574
-7.38422
-7.69452
-7.9866
-8.24876
-8.46811
-8.63252
-8.73217
-8.76032
-8.71377
-8.59342
-8.40355
-8.15269
-7.85316
-7.52041
-7.17166
-6.82381
-6.49048
-6.17986
-5.89479
-5.63449
-5.39664
-5.17823
-4.97613
-4.78745
-4.61019
-4.44423
-4.29191
-4.15698
-4.0421
-3.94716
-3.86859
-3.79839
-3.72702
-3.64829
-3.55679
-3.44471
-3.30245
-3.11999
-2.88709
-2.60038
-2.26551
-1.89358
-1.49701
-1.08669
-0.670992
-0.256093
0.153108
0.552557
0.939182
1.31112
1.66727
2.00683
2.32856
2.63131
2.91426
3.1777
3.42278
3.65147
3.86574
4.06686
4.25497
4.42913
4.58795
4.73037
4.85614
4.96556
5.05938
5.13884
5.20557
5.26122
5.30726
5.34478
5.3745
5.39689
5.41233
5.42133
5.42452
5.42266
5.41661
5.40721
5.39527
5.38146
5.36636
5.35039
5.33389
5.31713
5.30029
5.28352
5.26695
5.25069
5.23481
5.21939
5.20447
5.19007
5.17621
5.16286
5.15001
5.13763
5.1257
5.11419
5.10308
5.09232
5.08192
5.07184
5.06207
5.05259
5.04338
5.03441
5.02566
5.01711
5.00873
5.00051
4.99243
4.98446
4.9766
4.96883
4.96113
4.95349
4.9459
4.93836
4.93086
4.9234
4.91598
4.9086
4.90125
4.89395
4.88667
4.87941
4.87214
4.86481
4.85734
4.84957
4.84126
4.83197
4.82107
4.80751
4.78993
4.76641
-1.09677
-1.11809
-1.15827
-1.21777
-1.30009
-1.40627
-1.53762
-1.69378
-1.87272
-2.07132
-2.28602
-2.5134
-2.75089
-2.99637
-3.24655
-3.49514
-3.73349
-3.95267
-4.14575
-4.30913
-4.44239
-4.54757
-4.62952
-4.69523
-4.75212
-4.80669
-4.86376
-4.92626
-4.99593
-5.07419
-5.16353
-5.2677
-5.39161
-5.54076
-5.7201
-5.93304
-6.1805
-6.46085
-6.7698
-7.10164
-7.45014
-7.80837
-8.16805
-8.5191
-8.84869
-9.1414
-9.38148
-9.55542
-9.65347
-9.66967
-9.60171
-9.45097
-9.22333
-8.92894
-8.58175
-8.19909
-7.7998
-7.40209
-7.02036
-6.66371
-6.33617
-6.0381
-5.76786
-5.52252
-5.29838
-5.09164
-4.89933
-4.72083
-4.5585
-4.41661
-4.29885
-4.20543
-4.13222
-4.07053
-4.01032
-3.94394
-3.86423
-3.76151
-3.62427
-3.44091
-3.20082
-2.90138
-2.5488
-2.15521
-1.73454
-1.29955
-0.860519
-0.424774
0.00208127
0.415752
0.813342
1.19327
1.55496
1.89799
2.22182
2.52581
2.80979
3.07455
3.32168
3.55336
3.77149
3.97695
4.16933
4.34732
4.50943
4.65502
4.78405
4.89687
4.99417
5.07716
5.14742
5.20671
5.25649
5.29782
5.33131
5.35731
5.37612
5.38819
5.39415
5.39478
5.39097
5.38361
5.37352
5.36142
5.34791
5.33345
5.31839
5.30299
5.28743
5.27186
5.2564
5.24115
5.2262
5.21162
5.19745
5.18375
5.17051
5.15774
5.14541
5.13352
5.12203
5.11091
5.10015
5.08972
5.0796
5.06977
5.06023
5.05094
5.0419
5.03308
5.02446
5.01602
5.00773
4.99959
4.99157
4.98366
4.97583
4.96808
4.96039
4.95275
4.94514
4.93756
4.93
4.92246
4.91493
4.90741
4.89988
4.89234
4.88476
4.87712
4.86936
4.86142
4.85318
4.84445
4.83494
4.82423
4.81165
4.79627
4.77683
4.75172
-1.093
-1.11276
-1.15328
-1.21458
-1.30083
-1.41411
-1.55639
-1.72755
-1.92566
-2.14708
-2.38734
-2.64169
-2.90586
-3.17575
-3.44674
-3.71266
-3.96603
-4.19889
-4.40463
-4.57901
-4.7209
-4.83289
-4.92099
-4.99273
-5.05606
-5.11829
-5.18497
-5.25968
-5.34461
-5.44128
-5.55173
-5.67844
-5.82466
-5.99431
-6.19147
-6.42003
-6.68209
-6.97708
-7.30167
-7.65057
-8.01747
-8.39483
-8.77353
-9.14202
-9.48602
-9.78938
-10.0365
-10.214
-10.3123
-10.3252
-10.25
-10.0874
-9.84331
-9.52838
-9.15792
-8.75065
-8.32615
-7.90221
-7.49319
-7.10855
-6.75326
-6.4291
-6.13502
-5.8686
-5.626
-5.403
-5.19643
-5.00598
-4.83455
-4.68673
-4.56624
-4.47307
-4.40213
-4.34459
-4.29053
-4.23144
-4.15831
-4.0597
-3.92228
-3.73318
-3.48279
-3.16996
-2.80129
-2.38871
-1.94658
-1.48943
-1.0293
-0.575009
-0.132988
0.292342
0.698118
1.08343
1.44838
1.79307
2.11752
2.42175
2.70622
2.97226
3.22178
3.45693
3.67923
3.88894
4.08501
4.26607
4.43095
4.57926
4.71109
4.8268
4.92715
5.01336
5.08706
5.14995
5.20349
5.24863
5.28586
5.3154
5.33749
5.35256
5.36127
5.36443
5.36296
5.35777
5.34971
5.3395
5.32776
5.31495
5.30145
5.28752
5.27335
5.2591
5.24486
5.23074
5.21682
5.20316
5.18984
5.17689
5.16434
5.1522
5.14044
5.12906
5.11804
5.10735
5.09698
5.08689
5.07708
5.06753
5.05823
5.04916
5.04031
5.03165
5.02317
5.01485
5.00667
4.99861
4.99066
4.9828
4.97501
4.96729
4.95961
4.95197
4.94435
4.93673
4.92912
4.9215
4.91386
4.90619
4.89848
4.89071
4.88283
4.87482
4.86659
4.85806
4.84908
4.83945
4.82885
4.81684
4.80278
4.78581
4.76479
4.73837
-1.09572
-1.1154
-1.15842
-1.22486
-1.32004
-1.44748
-1.60986
-1.80735
-2.03788
-2.2969
-2.57849
-2.87591
-3.18238
-3.49126
-3.79607
-4.09
-4.36528
-4.6135
-4.82707
-5.00187
-5.1385
-5.24173
-5.31915
-5.38005
-5.43396
-5.48917
-5.55157
-5.62453
-5.7096
-5.80742
-5.91892
-6.04543
-6.18924
-6.35343
-6.54171
-6.75851
-7.00733
-7.2891
-7.60112
-7.9381
-8.29301
-8.65862
-9.02649
-9.38609
-9.72423
-10.0255
-10.2745
-10.4574
-10.5638
-10.5874
-10.5246
-10.3756
-10.1454
-9.84425
-9.48711
-9.09217
-8.67784
-8.26056
-7.85359
-7.46637
-7.10477
-6.77178
-6.46763
-6.19047
-5.93669
-5.70236
-5.48503
-5.28542
-5.10707
-4.95441
-4.83031
-4.73371
-4.65909
-4.59846
-4.54276
-4.483
-4.40859
-4.30624
-4.16124
-3.96071
-3.69726
-3.37134
-2.98976
-2.56347
-2.10719
-1.63565
-1.16174
-0.695558
-0.244427
0.186998
0.596418
0.98356
1.34904
1.69335
2.01702
2.32064
2.60531
2.87273
3.12501
3.36396
3.59026
3.80355
4.00251
4.1859
4.35293
4.50342
4.63751
4.75565
4.8587
4.94798
5.02509
5.09163
5.14891
5.19774
5.2385
5.27134
5.29649
5.31443
5.32584
5.33158
5.33257
5.32971
5.32385
5.31573
5.30595
5.29498
5.28319
5.27086
5.2582
5.24535
5.23243
5.21954
5.20673
5.1941
5.18169
5.16958
5.15777
5.14629
5.13514
5.12431
5.11378
5.10355
5.09358
5.08386
5.07438
5.06513
5.05609
5.04726
5.03861
5.03012
5.0218
5.01361
5.00553
4.99757
4.98969
4.9819
4.97416
4.96647
4.95881
4.95117
4.94353
4.93589
4.92822
4.92053
4.91278
4.90498
4.89709
4.88908
4.88092
4.87254
4.86387
4.85477
4.84511
4.83463
4.82303
4.80984
4.79447
4.77611
4.75375
4.72622
-1.11406
-1.1348
-1.18279
-1.25829
-1.36878
-1.51885
-1.71211
-1.94921
-2.22759
-2.54101
-2.88118
-3.23871
-3.60415
-3.96841
-4.32284
-4.65807
-4.96315
-5.22696
-5.44195
-5.60594
-5.72194
-5.79704
-5.84107
-5.86519
-5.88027
-5.89556
-5.9179
-5.95152
-5.99861
-6.06031
-6.13795
-6.23318
-6.34752
-6.48273
-6.64027
-6.82288
-7.03375
-7.27685
-7.5509
-7.85149
-8.17217
-8.50631
-8.84631
-9.18286
-9.50442
-9.79736
-10.0471
-10.2401
-10.3656
-10.4162
-10.3876
-10.279
-10.0941
-9.84077
-9.53188
-9.18381
-8.81295
-8.43357
-8.05751
-7.6938
-7.34897
-7.02691
-6.7289
-6.45369
-6.19837
-5.96006
-5.7379
-5.53386
-5.35164
-5.19476
-5.06453
-4.95925
-4.87426
-4.80342
-4.7388
-4.67086
-4.58711
-4.47269
-4.31296
-4.09736
-3.82088
-3.48518
-3.09633
-2.6645
-2.20308
-1.7268
-1.24889
-0.780166
-0.328261
0.102465
0.510304
0.895396
1.25848
1.60031
1.92183
2.22419
2.50899
2.77809
3.03333
3.27579
3.50545
3.72141
3.92237
4.10732
4.2758
4.42777
4.56352
4.6837
4.78929
4.88161
4.96212
5.03225
5.09309
5.14534
5.1893
5.22513
5.25309
5.27373
5.2878
5.29619
5.29979
5.29948
5.29605
5.29022
5.28259
5.27365
5.26374
5.25316
5.2421
5.23075
5.21923
5.20763
5.19602
5.18448
5.17308
5.16184
5.15083
5.14006
5.12955
5.1193
5.10929
5.09953
5.08998
5.08065
5.07153
5.06259
5.05383
5.04524
5.03681
5.02852
5.02035
5.0123
5.00435
4.99648
4.98869
4.98096
4.97327
4.96562
4.95798
4.95035
4.9427
4.93503
4.92732
4.91955
4.91171
4.90377
4.89571
4.88748
4.87904
4.87032
4.86121
4.85159
4.84127
4.83002
4.8175
4.80327
4.78674
4.76717
4.74366
4.71518
-1.14813
-1.17213
-1.22808
-1.3176
-1.45147
-1.63567
-1.87521
-2.17042
-2.51674
-2.90441
-3.32158
-3.75595
-4.19549
-4.62758
-5.039
-5.41577
-5.74325
-6.00957
-6.20705
-6.33379
-6.39425
-6.39836
-6.35979
-6.29408
-6.21687
-6.14151
-6.07811
-6.03386
-6.01177
-6.01388
-6.03977
-6.08936
-6.16235
-6.25803
-6.37553
-6.51452
-6.678
-6.87124
-7.09651
-7.351
-7.62887
-7.92356
-8.22831
-8.53569
-8.83664
-9.11991
-9.37279
-9.58268
-9.73862
-9.83229
-9.85804
-9.81328
-9.69903
-9.52083
-9.28871
-9.01606
-8.71628
-8.40137
-8.08138
-7.76453
-7.45741
-7.16449
-6.88784
-6.62702
-6.38048
-6.14722
-5.92811
-5.7258
-5.54331
-5.38261
-5.24396
-5.12596
-5.02601
-4.93984
-4.86017
-4.77608
-4.67402
-4.53978
-4.36132
-4.13088
-3.84508
-3.50504
-3.11596
-2.687
-2.23043
-1.76022
-1.28937
-0.828425
-0.384468
0.0386782
0.43966
0.818627
1.17628
1.5136
1.83184
2.1326
2.41761
2.68854
2.9465
3.19177
3.42375
3.64132
3.84335
4.02907
4.19822
4.35099
4.48793
4.6099
4.71795
4.8133
4.89718
4.97075
5.03493
5.09032
5.13722
5.17582
5.20648
5.22979
5.24659
5.25776
5.26417
5.26664
5.26591
5.26265
5.25743
5.25072
5.24288
5.23421
5.22492
5.21519
5.20516
5.19494
5.18462
5.17425
5.16391
5.15363
5.14348
5.13348
5.12365
5.11401
5.10455
5.09528
5.08619
5.07726
5.0685
5.0599
5.05144
5.04311
5.03491
5.02682
5.01883
5.01093
5.00311
4.99535
4.98765
4.97999
4.97236
4.96475
4.95713
4.94951
4.94186