/*--------------------------------*- C++ -*----------------------------------*\
  =========                 |
  \\      /  F ield         | OpenFOAM: The Open Source CFD Toolbox
   \\    /   O peration     | Website:  https://openfoam.org
    \\  /    A nd           | Version:  7
     \\/     M anipulation  |
\*---------------------------------------------------------------------------*/
FoamFile
{
    version     2.0;
    format      ascii;
    class       volScalarField;
    location    "0.081";
    object      s;
}
// * * * * * * * * * * * * * * * * * * * * * * * * * * * * * * * * * * * * * //

dimensions      [0 0 0 0 0 0 0];

internalField   nonuniform List<scalar> 
12225
(
1
1
1
1
1
1
1
1
1
1
1
1
1
1
1
1
1
1
1
1
1
1
1
1
1
1
1
1
1
1
1
1
1
1
1
1
1
1
1
1
1
1
1
1
1
1
1
1
1
1
1
1
1
1
1
1
1
1
1
1
1
1
1
1
1
1
1
1
1
1
1
1
1
1
1
1
1
1
1
1
1
1
1
1
1
1
1
1
1
1
1
1
1
1
1
1
1
1
1
1
1
1
1
1
1
1
1
1
1
1
1
1
1
1
1
1
1
1
1
1
1
1
1
1
1
1
1
1
1
1
1
1
1
1
1
1
1
1
1
1
1
1
1
1
1
1
1
1
1
1
1
1
1
1
1
1
1
1
1
1
1
1
1
1
1
1
1
1
1
1
1
1
1
1
1
1
1
1
1
1
1
1
1
1
1
1
1
1
1
1
1
1
1
1
1
1
1
1
1
1
1
1
1
1
1
1
1
1
1
1
1
1
1
1
1
1
1
1
1
1
1
1
1
1
1
1
1
1
1
1
1
1
1
1
1
1
1
1
1
1
1
1
1
1
1
1
1
1
1
1
1
1
1
1
1
1
1
1
1
1
1
1
1
1
1
1
1
1
1
1
1
1
1
1
1
1
1
1
1
1
1
1
1
1
1
1
1
1
1
1
1
1
1
1
1
1
1
1
1
1
1
1
1
1
1
1
1
1
1
1
1
1
1
1
1
1
1
1
1
1
1
1
1
1
1
1
1
1
1
1
1
1
1
1
1
1
1
1
1
1
1
1
1
1
1
1
1
1
1
1
1
1
1
1
1
1
1
1
1
1
1
1
1
1
1
1
1
1
1
1
1
1
1
1
1
1
1
1
1
1
1
1
1
1
1
1
1
1
1
1
1
1
1
1
1
1
1
1
1
1
1
1
1
1
1
1
1
1
1
1
1
1
1
1
1
1
1
1
1
1
1
1
1
1
1
1
1
1
1
1
1
1
1
1
1
1
1
1
1
1
1
1
1
1
1
1
1
1
1
1
1
1
1
1
1
1
1
1
1
1
1
1
1
1
1
1
1
1
1
1
1
1
1
1
1
1
1
1
1
1
1
1
1
1
1
1
1
1
1
1
1
1
1
1
1
1
1
1
1
1
1
1
1
1
1
1
1
1
1
1
1
1
1
1
1
1
1
1
1
1
1
1
1
1
1
1
1
1
1
1
1
1
1
1
1
1
1
1
1
1
0.154188
0.14957
0.148432
0.151546
0.158943
0.175447
0.20027
0.232098
0.275132
0.299567
0.323004
0.339451
0.358508
0.374596
0.38669
0.396042
0.402401
0.407248
0.411079
0.413692
0.415857
0.417713
0.419136
0.420339
0.421271
0.421997
0.42256
0.423123
0.423824
0.424315
0.424458
0.424555
0.424863
0.425966
0.427611
0.429833
0.431537
0.433899
0.447761
0.460859
0.305867
0.0603879
0.031222
0.0363678
0.0473629
0.0612216
0.0785591
0.0948682
0.107273
0.117899
0.127204
0.134642
0.14175
0.14531
0.147055
0.13488
0.117975
0.114751
0.136645
0.164323
0.182951
0.180916
0.177291
0.184006
0.202631
0.242845
0.396614
0.735201
0.858224
0.872322
0.874021
0.87521
0.876328
0.877635
0.879145
0.880237
0.881538
0.882818
0.884015
0.885352
0.886387
0.887305
0.888274
0.889228
0.88971
0.890196
0.890613
0.89079
0.890851
0.89083
0.890736
0.890595
0.890456
0.89033
0.890209
0.890093
0.89003
0.890006
0.890014
0.890118
0.890355
0.890606
0.890932
0.891187
0.891545
0.891878
0.892009
0.892008
0.891742
0.890939
0.889795
0.888238
0.886264
0.883909
0.881165
0.877964
0.87431
0.870196
0.865834
0.861535
0.857192
0.852571
0.848231
0.844607
0.839684
0.830553
0.818648
0.807249
0.793146
0.768066
0.733691
0.702219
0.667919
0.607536
0.517066
0.41154
0.304782
0.209136
0.132482
0.077252
0.0413892
0.0203677
0.009221
0.00385199
0.00148463
0.000520202
0.000160107
5.39354e-05
2.85015e-05
1.45707e-05
7.16496e-06
3.41401e-06
1.5847e-06
7.19815e-07
3.21429e-07
1.41758e-07
6.2021e-08
2.70269e-08
1.177e-08
5.13524e-09
2.24814e-09
9.88147e-10
4.35961e-10
1.92886e-10
8.54612e-11
3.78534e-11
1.67296e-11
7.36317e-12
3.2209e-12
1.3976e-12
6.00336e-13
2.54766e-13
1.06545e-13
4.37983e-14
1.76289e-14
6.92044e-15
2.63168e-15
9.62518e-16
3.37251e-16
-5.12712e-16
0.152514
0.155322
0.15537
0.151281
0.113714
0.120235
0.148176
0.208764
0.288232
0.361219
0.410619
0.444729
0.461668
0.46898
0.470369
0.46994
0.468768
0.466677
0.464309
0.461275
0.457572
0.453738
0.450502
0.447073
0.442622
0.439038
0.43647
0.43335
0.431416
0.431357
0.431846
0.43324
0.436608
0.440686
0.443044
0.445118
0.446415
0.447029
0.449025
0.457469
0.449147
0.429712
0.41672
0.361324
0.159191
0.0606754
0.0549115
0.0705472
0.085921
0.106296
0.123999
0.147589
0.172056
0.200182
0.240189
0.29068
0.309902
0.292168
0.288346
0.301175
0.333765
0.337252
0.329824
0.306491
0.297271
0.439073
0.777688
0.855564
0.876692
0.882134
0.887574
0.892111
0.896159
0.900144
0.903289
0.905699
0.907744
0.909114
0.909851
0.910113
0.910145
0.909583
0.90777
0.9052
0.902376
0.898779
0.89393
0.888117
0.882421
0.876884
0.872118
0.867699
0.864275
0.861291
0.858997
0.857401
0.856733
0.85645
0.856403
0.857346
0.859563
0.862226
0.866034
0.870417
0.875642
0.88232
0.888891
0.896483
0.904332
0.911743
0.918155
0.92286
0.926938
0.93043
0.933286
0.935394
0.936685
0.937255
0.936749
0.934489
0.93051
0.924987
0.91852
0.913167
0.909211
0.907118
0.907055
0.909666
0.917027
0.926731
0.938645
0.949979
0.960417
0.970714
0.975184
0.974359
0.969526
0.957632
0.932779
0.89677
0.855
0.806714
0.739723
0.6419
0.518688
0.394336
0.291404
0.21221
0.151506
0.105578
0.0715955
0.0471621
0.0301532
0.0187085
0.0112684
0.00659329
0.00375148
0.00207829
0.00112266
0.000592275
0.000305681
0.000154607
7.67564e-05
3.74623e-05
1.79978e-05
8.52061e-06
3.97756e-06
1.83187e-06
8.32166e-07
3.72958e-07
1.64686e-07
7.16804e-08
3.06475e-08
1.28969e-08
5.29625e-09
2.13728e-09
8.29681e-10
3.15855e-10
1.17366e-10
-6.39838e-10
0.112459
0.13093
0.133725
0.141566
0.167764
0.234118
0.336405
0.430069
0.475608
0.496718
0.497675
0.495848
0.49173
0.4833
0.47453
0.464123
0.449804
0.433907
0.416537
0.398736
0.381654
0.36405
0.346358
0.330589
0.315121
0.299878
0.288915
0.279295
0.269943
0.266794
0.267229
0.269706
0.276933
0.290622
0.314933
0.343016
0.373601
0.404418
0.418344
0.439807
0.446574
0.450936
0.454675
0.452626
0.43485
0.386665
0.271206
0.150127
0.105481
0.0861495
0.0811751
0.0839272
0.121185
0.173155
0.213947
0.302326
0.384006
0.418395
0.447802
0.473583
0.489199
0.488553
0.462707
0.439035
0.602264
0.802073
0.868424
0.885082
0.891344
0.895571
0.898002
0.900562
0.902366
0.90316
0.903397
0.903266
0.900568
0.895163
0.887328
0.875724
0.860769
0.841973
0.820242
0.802608
0.788723
0.7763
0.766745
0.762597
0.761447
0.761388
0.762179
0.763915
0.766174
0.768777
0.771492
0.774285
0.777153
0.779948
0.782634
0.785081
0.787384
0.789659
0.791989
0.794344
0.797024
0.800303
0.803384
0.807311
0.812224
0.819256
0.829187
0.842291
0.857224
0.873296
0.890327
0.907995
0.924114
0.936487
0.944618
0.950695
0.95446
0.955866
0.955062
0.948728
0.937287
0.923395
0.908524
0.895935
0.888419
0.885014
0.884505
0.886155
0.894726
0.914449
0.934254
0.951166
0.965258
0.977242
0.984969
0.987458
0.987414
0.986189
0.982082
0.969189
0.951627
0.938451
0.922426
0.891976
0.821064
0.690681
0.545345
0.411901
0.304487
0.221391
0.157518
0.109301
0.073849
0.0485686
0.0311116
0.0194347
0.0118586
0.00708167
0.00414771
0.00238822
0.0013551
0.00075975
0.000421894
0.000232663
0.000127561
6.96294e-05
3.77412e-05
2.03085e-05
1.07642e-05
5.62916e-06
2.86322e-06
1.43086e-06
6.85194e-07
3.19964e-07
1.47542e-07
4.71798e-08
0.0115938
0.0505027
0.152144
0.283725
0.421797
0.492942
0.522706
0.525053
0.521977
0.513903
0.500001
0.477755
0.450219
0.419855
0.383668
0.354165
0.331967
0.312599
0.295464
0.279153
0.264476
0.250956
0.238911
0.228239
0.219098
0.210297
0.203283
0.196754
0.190177
0.184544
0.181678
0.180695
0.180695
0.181778
0.186812
0.198904
0.222741
0.265578
0.300847
0.347357
0.388868
0.419391
0.438675
0.449708
0.458576
0.457693
0.448151
0.415365
0.357936
0.285128
0.214423
0.19951
0.207736
0.231566
0.288188
0.390503
0.477674
0.522758
0.537121
0.542252
0.552039
0.565791
0.620149
0.711555
0.818344
0.870762
0.886662
0.891765
0.894486
0.896211
0.89711
0.897423
0.895449
0.890355
0.881013
0.865456
0.840794
0.806127
0.778985
0.751788
0.734619
0.726618
0.723246
0.722052
0.721988
0.724931
0.731675
0.738814
0.745469
0.755087
0.763619
0.772399
0.780578
0.788125
0.794315
0.799104
0.802434
0.804027
0.804599
0.804675
0.804559
0.804442
0.804424
0.804829
0.806225
0.807118
0.807138
0.80645
0.804179
0.800453
0.796314
0.794838
0.796666
0.800318
0.80628
0.814779
0.828173
0.847906
0.873214
0.900435
0.927484
0.949224
0.962504
0.970567
0.974555
0.975434
0.973442
0.962494
0.939388
0.914984
0.89505
0.883985
0.8796
0.879073
0.880935
0.890774
0.913905
0.935445
0.95314
0.967072
0.977783
0.985878
0.991247
0.993548
0.993918
0.993769
0.993006
0.990516
0.981728
0.966147
0.954062
0.938167
0.903678
0.808275
0.634061
0.471387
0.340057
0.240059
0.165473
0.111272
0.0730343
0.0468702
0.0294835
0.0182359
0.0111254
0.00671705
0.00402307
0.00239536
0.00141758
0.000833755
0.000485313
0.000279159
0.000157436
8.71568e-05
4.68156e-05
2.45989e-05
1.2415e-05
6.09532e-06
2.92306e-06
1.15344e-06
0.0820299
0.321469
0.495471
0.546
0.556662
0.553039
0.544278
0.529418
0.505279
0.464065
0.429252
0.398281
0.368956
0.342751
0.320513
0.302598
0.288535
0.276086
0.261536
0.247924
0.237311
0.228812
0.222319
0.216983
0.213084
0.209385
0.205868
0.201878
0.198972
0.195869
0.193177
0.189758
0.186728
0.183679
0.18169
0.181308
0.183714
0.194828
0.224882
0.245534
0.271862
0.312342
0.351762
0.398486
0.434334
0.448857
0.462635
0.467511
0.465392
0.458305
0.440391
0.4255
0.425994
0.433018
0.449509
0.487995
0.535893
0.563749
0.565912
0.56884
0.620229
0.718062
0.770395
0.834463
0.870819
0.884846
0.889345
0.891424
0.892325
0.890989
0.885739
0.875489
0.855746
0.821529
0.786299
0.752664
0.729868
0.71945
0.714751
0.713357
0.715208
0.725002
0.735977
0.750122
0.772804
0.797215
0.816499
0.830914
0.840894
0.848321
0.851701
0.852198
0.851454
0.849323
0.845726
0.840678
0.83427
0.826895
0.819362
0.813003
0.809376
0.807999
0.807735
0.809991
0.817238
0.826354
0.835567
0.845682
0.854402
0.861007
0.865412
0.861684
0.85166
0.838324
0.823648
0.812894
0.809265
0.811182
0.81792
0.829083
0.844564
0.867864
0.898945
0.931487
0.958253
0.973799
0.981529
0.984396
0.98451
0.980753
0.963877
0.932749
0.905944
0.889691
0.883038
0.882069
0.884
0.895393
0.921184
0.942467
0.958823
0.971514
0.981016
0.987715
0.992287
0.995467
0.997236
0.997724
0.997648
0.997171
0.996293
0.99484
0.991783
0.985096
0.971352
0.942169
0.863997
0.682044
0.50228
0.357401
0.248299
0.168967
0.112844
0.0741656
0.0481106
0.0308918
0.0196682
0.0124314
0.00779207
0.00483792
0.00296276
0.00178551
0.00105204
0.000605931
0.000338496
0.00018414
9.6582e-05
4.8985e-05
2.43497e-05
1.03672e-05
0.516523
0.569243
0.581652
0.576788
0.565034
0.546937
0.523204
0.497425
0.465088
0.432772
0.400603
0.365884
0.334216
0.308912
0.290894
0.284232
0.283163
0.284247
0.289394
0.297552
0.306856
0.317556
0.32848
0.338435
0.346511
0.35223
0.355268
0.356591
0.355113
0.350705
0.344693
0.335736
0.326307
0.313153
0.298535
0.283926
0.270602
0.259369
0.252549
0.250416
0.252791
0.258996
0.271682
0.30236
0.344233
0.3841
0.424766
0.451668
0.469397
0.484035
0.488196
0.492564
0.503081
0.511838
0.520878
0.541717
0.572099
0.584314
0.578445
0.601826
0.73976
0.802346
0.843608
0.870593
0.881881
0.885742
0.887306
0.886007
0.879831
0.86489
0.836105
0.795729
0.758864
0.732477
0.719394
0.713615
0.712525
0.716568
0.722039
0.737292
0.765201
0.808752
0.843393
0.862184
0.87114
0.87359
0.873842
0.870904
0.86723
0.863314
0.858594
0.852727
0.844948
0.834544
0.821064
0.803627
0.78177
0.75469
0.727461
0.707445
0.696572
0.69265
0.692021
0.69607
0.710123
0.730704
0.755791
0.787942
0.823078
0.854223
0.877844
0.897864
0.911996
0.920573
0.924579
0.920006
0.90377
0.880859
0.858204
0.841735
0.838024
0.843034
0.855884
0.872708
0.896651
0.928332
0.958227
0.977043
0.986059
0.989281
0.989569
0.987036
0.973613
0.940836
0.913
0.897082
0.891261
0.890883
0.894302
0.911495
0.937687
0.9567
0.969983
0.979542
0.986699
0.991776
0.995063
0.997061
0.998314
0.998994
0.999225
0.999234
0.999142
0.998782
0.997788
0.99527
0.988873
0.972947
0.930761
0.801427
0.604067
0.437721
0.309426
0.214955
0.147515
0.100257
0.0675211
0.0450583
0.0297396
0.0193759
0.0124113
0.00779574
0.00477783
0.00285315
0.00165217
0.000928486
0.000504253
0.000263762
0.000135524
6.08536e-05
0.608744
0.600579
0.592863
0.576905
0.558566
0.53888
0.514997
0.485607
0.449236
0.424218
0.4117
0.401329
0.397377
0.397606
0.413451
0.434906
0.455545
0.482827
0.511249
0.53866
0.56349
0.585386
0.604633
0.619961
0.632012
0.638913
0.641979
0.642215
0.636912
0.628816
0.617627
0.604282
0.587582
0.569281
0.550149
0.528006
0.507224
0.485014
0.462347
0.438219
0.413153
0.388756
0.369082
0.35932
0.36092
0.378249
0.409546
0.439106
0.465494
0.48635
0.504277
0.518052
0.525001
0.531947
0.548144
0.577048
0.598181
0.598208
0.587063
0.666907
0.806886
0.846708
0.868937
0.878711
0.881736
0.882684
0.877782
0.863401
0.832578
0.786036
0.744386
0.722948
0.710858
0.706945
0.709952
0.715135
0.725028
0.75037
0.797243
0.843762
0.86531
0.87371
0.876023
0.874455
0.863148
0.844937
0.822349
0.800771
0.781336
0.766099
0.749178
0.734017
0.718297
0.699257
0.677099
0.651299
0.623031
0.601635
0.594505
0.594424
0.597953
0.603228
0.609235
0.615834
0.622946
0.630575
0.639092
0.651359
0.671908
0.707828
0.759599
0.819519
0.876076
0.912506
0.934649
0.948754
0.957075
0.96142
0.96047
0.949749
0.924795
0.897875
0.877962
0.87272
0.878342
0.893906
0.913859
0.941353
0.967542
0.983322
0.990417
0.992554
0.992482
0.989389
0.974303
0.943468
0.921269
0.910275
0.907487
0.908275
0.915521
0.938097
0.958418
0.972164
0.981385
0.987651
0.992049
0.995166
0.997207
0.99843
0.999134
0.999534
0.999703
0.99973
0.999703
0.999558
0.999065
0.997609
0.993421
0.981504
0.947517
0.839146
0.647858
0.481945
0.351044
0.251906
0.178641
0.125286
0.0867419
0.059108
0.0394912
0.0257926
0.0164088
0.0101478
0.00608334
0.00353168
0.00198375
0.00107116
0.000568563
0.000267599
0.609508
0.601448
0.599071
0.600877
0.600695
0.584737
0.554337
0.529644
0.518788
0.5157
0.522952
0.545202
0.563924
0.589518
0.626453
0.663578
0.695393
0.725098
0.755768
0.779465
0.798786
0.816182
0.828823
0.838424
0.843779
0.846478
0.847401
0.84328
0.835322
0.823152
0.807675
0.788736
0.767569
0.744376
0.717378
0.690265
0.662725
0.636591
0.614561
0.597495
0.584756
0.574235
0.563005
0.549327
0.533737
0.517526
0.504728
0.499663
0.501953
0.514756
0.531613
0.544372
0.559031
0.578872
0.597877
0.609201
0.611005
0.596605
0.596193
0.739627
0.841184
0.865161
0.875267
0.878213
0.878185
0.870391
0.847424
0.793501
0.744584
0.71678
0.701574
0.696881
0.70004
0.707488
0.719404
0.743346
0.794417
0.839701
0.859479
0.865345
0.865432
0.856071
0.827914
0.779798
0.712991
0.643007
0.592953
0.555445
0.539463
0.534805
0.534389
0.537257
0.540697
0.542555
0.543576
0.544202
0.546027
0.550547
0.558115
0.56814
0.578598
0.587975
0.596375
0.604219
0.611271
0.616961
0.621112
0.624338
0.628363
0.635851
0.650562
0.679255
0.734928
0.806248
0.867286
0.913345
0.944944
0.963048
0.973536
0.979307
0.981676
0.98013
0.969913
0.945612
0.920627
0.906426
0.906454
0.917459
0.937342
0.960672
0.97998
0.990057
0.993969
0.994737
0.994099
0.989313
0.970793
0.948318
0.934921
0.929774
0.929409
0.931909
0.944467
0.96337
0.976218
0.984504
0.989884
0.993457
0.995873
0.997517
0.998598
0.999243
0.999603
0.999794
0.99987
0.999879
0.99986
0.999753
0.999366
0.998136
0.994383
0.983229
0.950602
0.8465
0.666922
0.509762
0.382397
0.282068
0.204458
0.145358
0.10106
0.0685142
0.0451696
0.028902
0.0179171
0.0107434
0.00623606
0.00347763
0.00190634
0.000937674
0.613537
0.618271
0.619673
0.62383
0.624093
0.620672
0.609113
0.602615
0.601714
0.614985
0.634219
0.671038
0.708989
0.742006
0.784052
0.814779
0.840642
0.865169
0.881049
0.894872
0.905696
0.912065
0.918989
0.923565
0.926729
0.930055
0.931845
0.932905
0.933008
0.930091
0.923618
0.91174
0.891881
0.86539
0.830536
0.787797
0.743577
0.704478
0.668623
0.641932
0.623743
0.612313
0.604092
0.600049
0.599556
0.600658
0.604815
0.608665
0.60831
0.608024
0.609416
0.61272
0.615471
0.616829
0.617195
0.61623
0.60899
0.590604
0.620102
0.803566
0.858749
0.871479
0.874833
0.874942
0.865353
0.835143
0.768047
0.720294
0.696749
0.687913
0.686345
0.693181
0.703806
0.723487
0.765523
0.822427
0.849689
0.858861
0.859655
0.850728
0.816517
0.738486
0.599845
0.48447
0.43392
0.412553
0.406458
0.409253
0.427196
0.450335
0.470859
0.487824
0.501117
0.511004
0.518601
0.524885
0.531572
0.540049
0.550803
0.563513
0.575846
0.586298
0.595163
0.603203
0.610406
0.616081
0.619936
0.622365
0.624583
0.628265
0.635511
0.650549
0.685995
0.74192
0.797455
0.846377
0.888113
0.924296
0.952769
0.972749
0.983626
0.988963
0.991194
0.991221
0.987454
0.972595
0.94875
0.933961
0.932768
0.941358
0.960548
0.978482
0.989818
0.994746
0.99615
0.996121
0.994628
0.987291
0.97118
0.95904
0.9527
0.951132
0.951795
0.95649
0.969911
0.98106
0.988086
0.992432
0.99517
0.996949
0.998123
0.998895
0.999388
0.99968
0.999838
0.999915
0.999938
0.999937
0.999911
0.999796
0.999396
0.998123
0.994263
0.982919
0.950104
0.847233
0.678396
0.527865
0.401388
0.297985
0.215567
0.151627
0.103513
0.0684723
0.0438596
0.027156
0.0162793
0.00937592
0.00530647
0.00272179
0.620089
0.622644
0.624935
0.633453
0.637147
0.643188
0.648589
0.662314
0.685748
0.714286
0.75697
0.799098
0.833288
0.86144
0.887927
0.902432
0.914325
0.92289
0.927288
0.93286
0.935409
0.937223
0.939256
0.940776
0.943009
0.94683
0.94962
0.953949
0.959044
0.963258
0.966694
0.969268
0.970657
0.967047
0.957737
0.9381
0.90024
0.838804
0.763594
0.69984
0.655412
0.631215
0.613224
0.600862
0.594892
0.590688
0.5892
0.589876
0.594238
0.601714
0.605785
0.607911
0.608552
0.608258
0.608017
0.607037
0.597826
0.593174
0.696536
0.840772
0.866904
0.871648
0.872694
0.865174
0.83509
0.751954
0.703652
0.681392
0.674513
0.676786
0.686179
0.698165
0.724644
0.782405
0.831302
0.851552
0.856669
0.855094
0.835969
0.774761
0.633423
0.455122
0.374629
0.335996
0.320788
0.317149
0.329088
0.359151
0.389944
0.426942
0.462298
0.48506
0.501554
0.514243
0.523197
0.529232
0.534809
0.54226
0.552574
0.566601
0.581376
0.593098
0.601417
0.608015
0.614154
0.618969
0.621969
0.623673
0.625265
0.628258
0.634483
0.646959
0.676359
0.725895
0.778134
0.825385
0.865381
0.898192
0.924786
0.947104
0.9674
0.982621
0.99084
0.994437
0.995749
0.995703
0.993254
0.981972
0.962495
0.953297
0.953859
0.963764
0.979639
0.990397
0.995456
0.997132
0.997307
0.996773
0.993952
0.985631
0.976944
0.971173
0.968716
0.96861
0.970224
0.977046
0.985719
0.991298
0.994673
0.996707
0.997959
0.99875
0.999255
0.999575
0.999772
0.999885
0.999942
0.999965
0.999967
0.999961
0.999924
0.999783
0.999325
0.99793
0.99382
0.981976
0.947709
0.841213
0.674255
0.523396
0.394239
0.287784
0.203403
0.139058
0.0919615
0.0587562
0.0363618
0.0216296
0.0126371
0.00674417
0.622413
0.632594
0.641795
0.651784
0.66227
0.688752
0.71493
0.742072
0.782226
0.818206
0.852835
0.881688
0.895839
0.908842
0.914689
0.917772
0.919444
0.920125
0.919782
0.916075
0.910398
0.904956
0.902187
0.901008
0.90102
0.90403
0.910037
0.919026
0.932177
0.946786
0.959399
0.970189
0.978303
0.982219
0.984036
0.984466
0.978436
0.96209
0.926041
0.849503
0.757261
0.705885
0.671917
0.649443
0.633282
0.615834
0.603105
0.592611
0.583958
0.576473
0.571617
0.572824
0.581919
0.598379
0.603385
0.602504
0.597375
0.621575
0.792214
0.858039
0.868819
0.870578
0.865121
0.838198
0.77022
0.70316
0.6755
0.66633
0.665104
0.677151
0.691997
0.720054
0.785692
0.831518
0.850478
0.854949
0.852774
0.831395
0.757509
0.575256
0.395382
0.314572
0.276792
0.260026
0.254649
0.25857
0.286269
0.313492
0.360721
0.414687
0.462571
0.500403
0.530243
0.550017
0.560237
0.563277
0.563461
0.564742
0.569433
0.582907
0.600526
0.613686
0.620654
0.623167
0.625699
0.627738
0.628523
0.628434
0.628831
0.63061
0.634663
0.644932
0.670381
0.714251
0.76431
0.812412
0.854418
0.889152
0.916711
0.938185
0.954935
0.969275
0.982202
0.991209
0.995629
0.997382
0.997822
0.997435
0.99433
0.981981
0.9702
0.967743
0.970784
0.982181
0.991662
0.996266
0.9979
0.998163
0.997954
0.99676
0.992882
0.987472
0.983127
0.980713
0.980144
0.980749
0.984039
0.989961
0.994008
0.996445
0.997872
0.998719
0.999233
0.999548
0.999741
0.999858
0.999927
0.999964
0.99998
0.999983
0.999981
0.999968
0.999915
0.999738
0.999195
0.997585
0.992847
0.978782
0.935591
0.805185
0.632091
0.479332
0.350974
0.24805
0.169347
0.111599
0.0712142
0.0436954
0.0263349
0.014626
0.625983
0.650054
0.676658
0.688961
0.706887
0.745795
0.781253
0.811951
0.85156
0.87583
0.893936
0.904321
0.908286
0.91011
0.910537
0.905854
0.896395
0.887189
0.876471
0.86981
0.866519
0.864873
0.863995
0.863009
0.862169
0.860842
0.860239
0.859936
0.862526
0.869733
0.888197
0.918557
0.95122
0.971195
0.984378
0.989507
0.991154
0.990205
0.982117
0.958458
0.904448
0.821641
0.782853
0.763446
0.75095
0.736224
0.721552
0.706776
0.689388
0.679531
0.675247
0.665712
0.64847
0.619767
0.608038
0.606078
0.620462
0.737813
0.839656
0.865045
0.868507
0.867422
0.851877
0.797312
0.708066
0.670801
0.659653
0.658042
0.666969
0.687389
0.719543
0.775312
0.827503
0.847726
0.853293
0.853065
0.837392
0.772746
0.586657
0.386317
0.288933
0.242019
0.218165
0.206822
0.203038
0.210682
0.231455
0.274785
0.337618
0.40989
0.47788
0.539614
0.57568
0.58978
0.592969
0.592841
0.592638
0.593255
0.595704
0.603464
0.618662
0.630644
0.638906
0.642785
0.642825
0.641962
0.640371
0.636965
0.633906
0.632728
0.633905
0.63854
0.650302
0.677989
0.723723
0.77955
0.831302
0.875502
0.909795
0.934621
0.952077
0.965238
0.975886
0.985024
0.992247
0.996406
0.998191
0.998729
0.998669
0.997511
0.991175
0.981269
0.978121
0.978999
0.985587
0.9933
0.997101
0.998529
0.998837
0.998777
0.998303
0.996622
0.993237
0.990175
0.98827
0.987652
0.987863
0.98954
0.993326
0.996083
0.99776
0.998715
0.999252
0.999564
0.999749
0.99986
0.999925
0.999961
0.999981
0.999989
0.999991
0.999991
0.999986
0.999963
0.999886
0.999644
0.998902
0.99663
0.98952
0.966698
0.890542
0.714334
0.542933
0.397063
0.279965
0.190294
0.125164
0.0791482
0.0491184
0.0282648
0.633346
0.664097
0.704165
0.731403
0.752917
0.797248
0.831453
0.857219
0.884762
0.896744
0.902795
0.905034
0.905505
0.900456
0.88617
0.875906
0.870659
0.867836
0.866094
0.865533
0.865439
0.865672
0.865898
0.86564
0.864734
0.862651
0.859627
0.855671
0.850213
0.846587
0.845341
0.847644
0.86373
0.909837
0.957744
0.981309
0.991332
0.994158
0.994825
0.989604
0.969255
0.912501
0.841014
0.809497
0.796477
0.791488
0.7867
0.777175
0.767379
0.753517
0.733101
0.705448
0.667711
0.634245
0.625715
0.644975
0.729769
0.821509
0.858
0.866034
0.867175
0.860125
0.826653
0.751036
0.681592
0.653657
0.646832
0.650669
0.67278
0.714541
0.763557
0.812618
0.842012
0.851232
0.852909
0.846281
0.803871
0.658211
0.446188
0.301493
0.235727
0.202692
0.186073
0.178549
0.17632
0.18555
0.205786
0.249077
0.328371
0.418046
0.515812
0.577202
0.600044
0.605206
0.604774
0.603291
0.603012
0.603994
0.607763
0.616483
0.62709
0.637506
0.645682
0.651484
0.654927
0.656014
0.655367
0.651405
0.644323
0.639305
0.637511
0.638163
0.642336
0.65216
0.672588
0.720371
0.784686
0.844069
0.892477
0.927765
0.950211
0.964461
0.974763
0.982728
0.989097
0.994098
0.997276
0.99875
0.999215
0.999209
0.998579
0.994708
0.98763
0.985155
0.985472
0.989397
0.995063
0.997893
0.998996
0.999279
0.999274
0.999085
0.998363
0.996401
0.99433
0.993017
0.992558
0.992624
0.993542
0.995848
0.997592
0.998663
0.999272
0.999605
0.999783
0.99988
0.999934
0.999965
0.999982
0.999991
0.999995
0.999996
0.999996
0.999993
0.999981
0.999941
0.999807
0.999379
0.997989
0.993401
0.977932
0.924858
0.767807
0.581149
0.4236
0.297101
0.201414
0.131187
0.0837755
0.0498291
0.638644
0.69248
0.73989
0.771818
0.790375
0.832037
0.862106
0.880341
0.895837
0.900719
0.902212
0.902172
0.8938
0.879242
0.872926
0.870361
0.869619
0.869479
0.871649
0.872787
0.874168
0.874754
0.87497
0.875087
0.875197
0.875304
0.875203
0.874099
0.870021
0.859923
0.846848
0.837483
0.834538
0.842182
0.875266
0.942282
0.979303
0.992669
0.99638
0.997063
0.992408
0.970238
0.889059
0.832883
0.812394
0.806951
0.805275
0.79566
0.785325
0.772914
0.754278
0.73079
0.705789
0.688435
0.703524
0.757682
0.817777
0.850869
0.863014
0.86547
0.862906
0.840852
0.780057
0.696226
0.65505
0.642985
0.638461
0.643655
0.67119
0.716819
0.771902
0.820312
0.843854
0.851037
0.850465
0.829392
0.746046
0.570595
0.370018
0.254777
0.204215
0.180261
0.169282
0.165054
0.168614
0.177441
0.196588
0.239349
0.333568
0.452728
0.545761
0.594194
0.611315
0.614211
0.613828
0.612395
0.61266
0.614582
0.61994
0.630739
0.641133
0.648143
0.652798
0.656658
0.660515
0.664368
0.666897
0.667402
0.664035
0.656763
0.652199
0.650664
0.650879
0.654269
0.666777
0.703049
0.768822
0.831209
0.882134
0.920752
0.948218
0.965023
0.975252
0.9826
0.988365
0.992768
0.996021
0.998151
0.999187
0.999508
0.999496
0.999009
0.996058
0.991365
0.989852
0.990106
0.992783
0.99667
0.998594
0.999349
0.99956
0.99957
0.999483
0.999104
0.997983
0.996761
0.996021
0.995775
0.995799
0.996293
0.997634
0.998657
0.999271
0.999616
0.999802
0.999899
0.999948
0.999973
0.999987
0.999993
0.999997
0.999998
0.999998
0.999998
0.999996
0.999989
0.999962
0.99987
0.999557
0.998491
0.994803
0.981897
0.936486
0.790605
0.596261
0.431864
0.301879
0.20249
0.133005
0.0816267
0.645772
0.704622
0.754254
0.796711
0.81741
0.852906
0.877873
0.890788
0.898659
0.900441
0.900524
0.894658
0.880074
0.873425
0.87122
0.870725
0.871708
0.873503
0.874226
0.874504
0.87463
0.874662
0.874674
0.874874
0.875139
0.875683
0.876602
0.877768
0.878279
0.878288
0.873461
0.855342
0.834669
0.82994
0.837692
0.869357
0.944778
0.981255
0.994694
0.997948
0.998388
0.994
0.972265
0.890794
0.831121
0.815907
0.815144
0.815736
0.807604
0.797607
0.785758
0.774155
0.76716
0.769132
0.792549
0.824119
0.848321
0.859583
0.862995
0.862459
0.849874
0.815956
0.758317
0.679787
0.626304
0.613974
0.620146
0.630827
0.662753
0.711004
0.767574
0.817522
0.842088
0.849527
0.847496
0.811408
0.698612
0.517499
0.342967
0.245429
0.200727
0.178883
0.167589
0.165819
0.168463
0.17738
0.198761
0.250938
0.368388
0.488276
0.571256
0.610311
0.624224
0.627015
0.627308
0.628198
0.630868
0.637177
0.648444
0.659957
0.66731
0.668567
0.668051
0.667754
0.668837
0.674168
0.681112
0.685998
0.688143
0.686747
0.682452
0.681179
0.681909
0.684778
0.692595
0.715155
0.773547
0.835288
0.885279
0.921749
0.948191
0.966936
0.978189
0.984587
0.989021
0.992663
0.995534
0.997575
0.998877
0.999512
0.999687
0.999653
0.99917
0.996644
0.9938
0.993072
0.993394
0.995485
0.997959
0.999145
0.999607
0.99974
0.999748
0.9997
0.999473
0.998827
0.998218
0.997895
0.997815
0.997835
0.998082
0.998772
0.999314
0.999636
0.999814
0.999908
0.999955
0.999978
0.99999
0.999995
0.999998
0.999999
0.999999
0.999999
0.999999
0.999997
0.999991
0.99997
0.999893
0.999619
0.998643
0.995139
0.982529
0.937328
0.790457
0.592025
0.427089
0.295146
0.199427
0.126145
0.649885
0.719816
0.769796
0.815168
0.838124
0.862661
0.885254
0.894063
0.898655
0.899786
0.897836
0.887705
0.876497
0.87268
0.871572
0.871977
0.873298
0.873888
0.87405
0.873689
0.872995
0.872656
0.873088
0.873453
0.87369
0.873852
0.874157
0.87508
0.877923
0.879925
0.880001
0.87616
0.856228
0.832134
0.831116
0.843498
0.895474
0.959033
0.98699
0.996819
0.999078
0.999302
0.996194
0.977285
0.892727
0.832161
0.820533
0.824167
0.824939
0.816873
0.81205
0.809106
0.808969
0.816457
0.833784
0.847283
0.856686
0.860789
0.862373
0.859437
0.843106
0.810573
0.759061
0.683559
0.623717
0.593785
0.581593
0.590836
0.626473
0.685548
0.748391
0.805029
0.834242
0.843613
0.840949
0.808672
0.704312
0.522602
0.356669
0.257994
0.210408
0.18609
0.17511
0.176044
0.181958
0.19645
0.226372
0.296404
0.425099
0.545594
0.61422
0.640643
0.645659
0.645661
0.64587
0.647903
0.655081
0.669733
0.681844
0.687444
0.684478
0.679421
0.677152
0.676822
0.677593
0.68229
0.697418
0.711971
0.721549
0.726631
0.728228
0.729368
0.732233
0.739432
0.75484
0.786088
0.833617
0.882537
0.922366
0.948472
0.963076
0.973392
0.982275
0.988126
0.99147
0.993759
0.995746
0.997427
0.99864
0.999384
0.999725
0.999794
0.999731
0.999174
0.997076
0.995599
0.99535
0.995752
0.997439
0.998867
0.999527
0.999782
0.999854
0.999858
0.999827
0.999677
0.999347
0.999115
0.999019
0.999009
0.999033
0.999173
0.999484
0.99971
0.999847
0.999923
0.999963
0.999983
0.999992
0.999996
0.999998
0.999999
1
1
1
0.999999
0.999998
0.999993
0.999973
0.999898
0.999624
0.99861
0.994861
0.981099
0.931289
0.773393
0.576159
0.410567
0.285557
0.186064
0.651439
0.71806
0.770046
0.815005
0.846871
0.865611
0.885005
0.893696
0.898235
0.899299
0.896782
0.887611
0.877166
0.873082
0.871987
0.872214
0.873231
0.873824
0.873603
0.871983
0.870322
0.870293
0.871566
0.872866
0.87347
0.873675
0.873817
0.87422
0.875552
0.879268
0.880744
0.879431
0.869156
0.842216
0.832259
0.837546
0.874824
0.943463
0.979619
0.993773
0.998485
0.999667
0.999815
0.998219
0.982826
0.892757
0.829912
0.825716
0.831549
0.831219
0.827009
0.825652
0.828518
0.835239
0.84582
0.851941
0.857422
0.860207
0.860726
0.856352
0.840998
0.812981
0.768129
0.702723
0.633374
0.595283
0.572889
0.559162
0.564731
0.600037
0.671838
0.760813
0.80683
0.823769
0.822376
0.797898
0.71092
0.544346
0.398739
0.292839
0.23941
0.20812
0.199255
0.202101
0.211415
0.231119
0.272003
0.372909
0.517178
0.612156
0.652945
0.662306
0.66303
0.663355
0.664961
0.671138
0.687252
0.70403
0.706662
0.703042
0.692814
0.685103
0.681787
0.681166
0.681752
0.685857
0.702882
0.731258
0.754084
0.771025
0.780377
0.78519
0.792174
0.805755
0.834206
0.885999
0.927778
0.954194
0.970477
0.981263
0.987649
0.989912
0.990614
0.992375
0.994397
0.995769
0.996777
0.997743
0.998632
0.9993
0.999692
0.999843
0.999852
0.99974
0.999007
0.997562
0.996974
0.996959
0.997478
0.99871
0.999437
0.999766
0.99989
0.999922
0.999923
0.9999
0.999802
0.99968
0.999619
0.999605
0.999609
0.999638
0.999742
0.999849
0.999917
0.999957
0.999979
0.99999
0.999995
0.999998
0.999999
1
1
1
1
1
0.999999
0.999998
0.999993
0.999971
0.999891
0.999583
0.998414
0.994019
0.977749
0.918469
0.746046
0.548774
0.393472
0.264256
0.651724
0.710601
0.766108
0.810576
0.845647
0.864373
0.883056
0.892271
0.897221
0.898357
0.896817
0.889425
0.879257
0.874249
0.872485
0.872316
0.872713
0.873547
0.873523
0.873042
0.871557
0.871239
0.871405
0.872077
0.873016
0.873446
0.873667
0.874116
0.875388
0.879084
0.880991
0.880039
0.871342
0.84505
0.834643
0.837339
0.86811
0.938089
0.976993
0.992712
0.997912
0.999459
0.999886
0.999961
0.999338
0.985003
0.886663
0.825708
0.830455
0.837134
0.836897
0.835024
0.835295
0.839791
0.846801
0.851695
0.856124
0.857483
0.856133
0.848837
0.835331
0.814844
0.785571
0.74543
0.675828
0.613569
0.579066
0.558378
0.545963
0.545852
0.56592