/*--------------------------------*- C++ -*----------------------------------*\
  =========                 |
  \\      /  F ield         | OpenFOAM: The Open Source CFD Toolbox
   \\    /   O peration     | Website:  https://openfoam.org
    \\  /    A nd           | Version:  7
     \\/     M anipulation  |
\*---------------------------------------------------------------------------*/
FoamFile
{
    version     2.0;
    format      ascii;
    class       volScalarField;
    location    "0.081";
    object      s_0;
}
// * * * * * * * * * * * * * * * * * * * * * * * * * * * * * * * * * * * * * //

dimensions      [0 0 0 0 0 0 0];

internalField   nonuniform List<scalar> 
12225
(
1
1
1
1
1
1
1
1
1
1
1
1
1
1
1
1
1
1
1
1
1
1
1
1
1
1
1
1
1
1
1
1
1
1
1
1
1
1
1
1
1
1
1
1
1
1
1
1
1
1
1
1
1
1
1
1
1
1
1
1
1
1
1
1
1
1
1
1
1
1
1
1
1
1
1
1
1
1
1
1
1
1
1
1
1
1
1
1
1
1
1
1
1
1
1
1
1
1
1
1
1
1
1
1
1
1
1
1
1
1
1
1
1
1
1
1
1
1
1
1
1
1
1
1
1
1
1
1
1
1
1
1
1
1
1
1
1
1
1
1
1
1
1
1
1
1
1
1
1
1
1
1
1
1
1
1
1
1
1
1
1
1
1
1
1
1
1
1
1
1
1
1
1
1
1
1
1
1
1
1
1
1
1
1
1
1
1
1
1
1
1
1
1
1
1
1
1
1
1
1
1
1
1
1
1
1
1
1
1
1
1
1
1
1
1
1
1
1
1
1
1
1
1
1
1
1
1
1
1
1
1
1
1
1
1
1
1
1
1
1
1
1
1
1
1
1
1
1
1
1
1
1
1
1
1
1
1
1
1
1
1
1
1
1
1
1
1
1
1
1
1
1
1
1
1
1
1
1
1
1
1
1
1
1
1
1
1
1
1
1
1
1
1
1
1
1
1
1
1
1
1
1
1
1
1
1
1
1
1
1
1
1
1
1
1
1
1
1
1
1
1
1
1
1
1
1
1
1
1
1
1
1
1
1
1
1
1
1
1
1
1
1
1
1
1
1
1
1
1
1
1
1
1
1
1
1
1
1
1
1
1
1
1
1
1
1
1
1
1
1
1
1
1
1
1
1
1
1
1
1
1
1
1
1
1
1
1
1
1
1
1
1
1
1
1
1
1
1
1
1
1
1
1
1
1
1
1
1
1
1
1
1
1
1
1
1
1
1
1
1
1
1
1
1
1
1
1
1
1
1
1
1
1
1
1
1
1
1
1
1
1
1
1
1
1
1
1
1
1
1
1
1
1
1
1
1
1
1
1
1
1
1
1
1
1
1
1
1
1
1
1
1
1
1
1
1
1
1
1
1
1
1
1
1
1
1
1
1
1
1
1
1
1
1
1
1
1
1
1
1
1
1
1
1
1
1
1
1
1
1
1
1
1
1
1
1
1
1
1
1
1
1
1
1
1
1
1
1
1
1
1
1
1
1
1
1
1
1
1
1
0.154197
0.14958
0.148422
0.15151
0.158882
0.175385
0.200232
0.23206
0.275097
0.29954
0.322978
0.339444
0.358501
0.374584
0.386679
0.396033
0.402393
0.407246
0.411076
0.413688
0.415858
0.417716
0.419139
0.420343
0.421275
0.422002
0.422566
0.423135
0.423838
0.424322
0.42446
0.42456
0.42488
0.426015
0.427665
0.429885
0.431584
0.433967
0.448048
0.460941
0.304312
0.0599123
0.0311896
0.0363807
0.0473709
0.0612214
0.0785407
0.0948291
0.107218
0.117833
0.127137
0.134576
0.141695
0.145227
0.146932
0.134638
0.117734
0.114622
0.136562
0.164225
0.182777
0.180755
0.177277
0.184097
0.202811
0.243333
0.399543
0.737475
0.858641
0.872324
0.87401
0.875195
0.876305
0.877602
0.87911
0.880199
0.881493
0.882772
0.883964
0.885301
0.886343
0.887261
0.888228
0.889193
0.889686
0.890172
0.890598
0.890783
0.890853
0.890836
0.890747
0.890611
0.890475
0.890351
0.890233
0.890118
0.890055
0.890031
0.89004
0.890142
0.890376
0.890624
0.890949
0.8912
0.891552
0.891882
0.892012
0.892002
0.891726
0.890915
0.889761
0.888197
0.886216
0.883853
0.8811
0.877889
0.874226
0.870103
0.865746
0.861453
0.857118
0.852504
0.848173
0.844546
0.839595
0.830421
0.818489
0.807073
0.792897
0.767706
0.733292
0.701821
0.667373
0.606702
0.516017
0.410419
0.30373
0.208261
0.131831
0.076818
0.0411287
0.0202266
0.00915182
0.00382107
0.00147193
0.000515379
0.000158481
5.35762e-05
2.83359e-05
1.44829e-05
7.11969e-06
3.39166e-06
1.57403e-06
7.14853e-07
3.19169e-07
1.40745e-07
6.15713e-08
2.68285e-08
1.16826e-08
5.0967e-09
2.23109e-09
9.80576e-10
4.32587e-10
1.91378e-10
8.4786e-11
3.75513e-11
1.65947e-11
7.3032e-12
3.19439e-12
1.38597e-12
5.95289e-13
2.526e-13
1.05628e-13
4.3417e-14
1.74734e-14
6.85856e-15
2.60779e-15
9.53641e-16
3.34061e-16
-5.07967e-16
0.152507
0.155339
0.155381
0.151267
0.113605
0.120134
0.148112
0.208755
0.288258
0.361252
0.410653
0.444749
0.461671
0.468971
0.470359
0.469929
0.468752
0.466663
0.464293
0.461251
0.457544
0.453724
0.450501
0.447062
0.442614
0.439063
0.436502
0.433389
0.431496
0.431449
0.431948
0.433359
0.436752
0.44081
0.443144
0.44521
0.446494
0.447108
0.44914
0.457628
0.449172
0.429861
0.416752
0.360543
0.157879
0.0603435
0.0548648
0.0705256
0.0858646
0.106208
0.123925
0.147512
0.171994
0.200134
0.240174
0.290608
0.309571
0.29175
0.287975
0.300746
0.33326
0.336815
0.329419
0.306065
0.297297
0.442972
0.779213
0.855898
0.876773
0.882161
0.887585
0.89212
0.896154
0.900131
0.903283
0.905703
0.90776
0.909141
0.909899
0.910171
0.910209
0.909682
0.90791
0.905356
0.90255
0.898998
0.894201
0.88843
0.882774
0.87726
0.872506
0.868078
0.864637
0.861637
0.859325
0.857696
0.857013
0.856722
0.856668
0.857586
0.859792
0.862447
0.866248
0.870631
0.875845
0.882523
0.8891
0.896691
0.90453
0.911915
0.918285
0.922954
0.927023
0.930501
0.933341
0.93543
0.936702
0.937255
0.936713
0.934411
0.930398
0.924843
0.91838
0.913063
0.909136
0.907084
0.907053
0.909743
0.917169
0.926899
0.938827
0.950152
0.960572
0.970819
0.975217
0.974368
0.969495
0.957527
0.932579
0.896505
0.854686
0.806248
0.738935
0.640743
0.517359
0.393134
0.290471
0.21149
0.150953
0.105162
0.0712911
0.0469463
0.0300055
0.018611
0.0112061
0.00655495
0.00372862
0.00206509
0.00111525
0.000588239
0.000303538
0.000153495
7.6192e-05
3.71815e-05
1.78606e-05
8.45467e-06
3.94636e-06
1.81732e-06
8.25476e-07
3.69924e-07
1.63331e-07
7.10834e-08
3.03893e-08
1.27869e-08
5.25052e-09
2.11858e-09
8.22315e-10
3.13017e-10
1.1626e-10
-6.34089e-10
0.112416
0.130914
0.133715
0.141513
0.167664
0.233968
0.33632
0.430039
0.475591
0.496701
0.497657
0.495828
0.491707
0.483268
0.474514
0.464089
0.449765
0.433866
0.416486
0.398693
0.381622
0.364023
0.346357
0.330618
0.31516
0.29996
0.289041
0.279421
0.270112
0.267035
0.26749
0.270002
0.277339
0.291093
0.315449
0.343537
0.374111
0.404774
0.418611
0.440076
0.446728
0.451138
0.454859
0.452758
0.434733
0.386322
0.270161
0.149583
0.105236
0.0859836
0.0810669
0.0839176
0.12161
0.173415
0.214244
0.302702
0.384006
0.418132
0.447477
0.473167
0.488694
0.488002
0.461899
0.439718
0.605233
0.803136
0.868671
0.885131
0.891333
0.895564
0.897983
0.90053
0.902347
0.903155
0.903399
0.903286
0.900638
0.895274
0.887507
0.875988
0.861127
0.842479
0.820805
0.80307
0.789149
0.776739
0.767069
0.762729
0.761486
0.761393
0.762123
0.763818
0.76605
0.768635
0.771339
0.774126
0.776993
0.779794
0.782493
0.78495
0.787252
0.789535
0.79188
0.794255
0.796935
0.800224
0.803317
0.807258
0.812226
0.819332
0.829363
0.84255
0.857531
0.873651
0.890725
0.908416
0.924465
0.936717
0.944784
0.950813
0.954523
0.955881
0.955006
0.948527
0.937035
0.923102
0.908247
0.895736
0.888313
0.884971
0.884497
0.886204
0.894958
0.914759
0.934529
0.951393
0.965442
0.97738
0.985045
0.987487
0.987433
0.986189
0.982035
0.969025
0.95152
0.93838
0.922264
0.891549
0.819881
0.689083
0.543736
0.410539
0.30343
0.220573
0.156892
0.108833
0.0735091
0.0483297
0.0309491
0.0193277
0.0117902
0.00703922
0.004122
0.00237302
0.00134629
0.000754731
0.000419077
0.0002311
0.000126702
6.91591e-05
3.74851e-05
2.01696e-05
1.06895e-05
5.58933e-06
2.84246e-06
1.42019e-06
6.79932e-07
3.17434e-07
1.46334e-07
4.67881e-08
0.0115706
0.0503589
0.151729
0.283318
0.421522
0.492818
0.522637
0.525011
0.521942
0.513883
0.499988
0.477741
0.45023
0.419877
0.383716
0.354264
0.332071
0.312688
0.295547
0.279231
0.264548
0.251017
0.238957
0.228267
0.219104
0.210279
0.203254
0.196717
0.190129
0.184498
0.181644
0.180677
0.180687
0.181806
0.186959
0.199197
0.223272
0.266115
0.301425
0.34798
0.389334
0.419787
0.438954
0.450001
0.458816
0.457903
0.448257
0.415197
0.357768
0.28466
0.214345
0.19993
0.208254
0.232302
0.289456
0.391744
0.478365
0.522927
0.536978
0.542027
0.551742
0.565961
0.621342
0.713014
0.819215
0.870989
0.886682
0.891729
0.894454
0.896176
0.897067
0.897372
0.895399
0.89032
0.881004
0.865519
0.841008
0.806454
0.779305
0.752117
0.734724
0.726616
0.723185
0.721954
0.721862
0.724685
0.731354
0.738461
0.744992
0.754495
0.76299
0.771738
0.779935
0.787534
0.793799
0.798672
0.802093
0.803782
0.804429
0.804558
0.804486
0.804382
0.804361
0.804732
0.806075
0.80694
0.806908
0.806174
0.803851
0.800082
0.79597
0.794626
0.796489
0.800194
0.806222
0.814807
0.828392
0.848332
0.87376
0.90104
0.928057
0.949618
0.962728
0.9707
0.974608
0.97544
0.97335
0.962139
0.938939
0.914564
0.894771
0.883851
0.879555
0.879066
0.880991
0.891041
0.914254
0.93573
0.953364
0.967244
0.977913
0.985973
0.991303
0.993572
0.99393
0.993777
0.993005
0.990482
0.981577
0.966025
0.953962
0.937949
0.903102
0.806531
0.63208
0.46969
0.338747
0.239072
0.164745
0.110751
0.0726724
0.0466265
0.029324
0.0181341
0.0110619
0.00667812
0.00399951
0.00238123
0.00140916
0.000828754
0.000482358
0.000277423
0.00015643
8.65818e-05
4.64959e-05
2.44248e-05
1.23239e-05
6.04906e-06
2.90006e-06
1.14415e-06
0.0814368
0.320739
0.495206
0.545853
0.5566
0.552984
0.544238
0.529381
0.505282
0.464171
0.429432
0.3985
0.369196
0.342987
0.320727
0.302763
0.288658
0.276214
0.261681
0.248051
0.237401
0.228857
0.222311
0.216914
0.212955
0.209201
0.205629
0.201582
0.198623
0.195487
0.192781
0.189369
0.186355
0.183345
0.181409
0.18109
0.183601
0.194951
0.225196
0.245808
0.272327
0.312877
0.352385
0.399161
0.434814
0.449212
0.463019
0.467804
0.465654
0.458527
0.440488
0.425813
0.426383
0.433497
0.450105
0.488887
0.536552
0.563912
0.565814
0.568673
0.620997
0.718713
0.771255
0.835037
0.871012
0.884853
0.889297
0.891368
0.892263
0.890899
0.88561
0.875326
0.855573
0.821357
0.786208
0.752664
0.729815
0.719352
0.714604
0.713184
0.714911
0.724561
0.735567
0.749536
0.772027
0.796389
0.815766
0.830291
0.840398
0.847948
0.851596
0.852198
0.85152
0.849464
0.845948
0.840988
0.834673
0.827395
0.81994
0.813614
0.809965
0.808571
0.808294
0.810485
0.817647
0.826697
0.835831
0.84585
0.854472
0.860986
0.865225
0.861206
0.851052
0.837608
0.82294
0.812342
0.808941
0.810975
0.817853
0.829135
0.844788
0.868354
0.899606
0.932149
0.958702
0.974028
0.981635
0.984426
0.984502
0.980608
0.963378
0.932228
0.905565
0.8895
0.882975
0.88206
0.884059
0.89571
0.921545
0.94274
0.959031
0.971669
0.981127
0.987792
0.99234
0.995502
0.997252
0.997729
0.99765
0.997168
0.996288
0.994824
0.99174
0.984996
0.971144
0.941679
0.862483
0.679797
0.500418
0.355966
0.247242
0.168211
0.112316
0.0738075
0.0478725
0.030736
0.0195676
0.0123669
0.00775098
0.00481189
0.00294639
0.00177531
0.0010458
0.000602182
0.000336311
0.000182901
9.59047e-05
4.86282e-05
2.41652e-05
1.02864e-05
0.515936
0.569044
0.581568
0.576734
0.56501
0.546961
0.523291
0.497588
0.465335
0.433037
0.400903
0.366257
0.334603
0.3093
0.291128
0.284279
0.283151
0.284178
0.289241
0.297325
0.306544
0.317099
0.327887
0.337721
0.345688
0.351304
0.354246
0.355486
0.353933
0.349472
0.343433
0.334462
0.325058
0.311961
0.2974
0.282875
0.269658
0.258578
0.251953
0.25001
0.252599
0.258988
0.271915
0.303027
0.344929
0.384892
0.425511
0.452255
0.469967
0.484462
0.488548
0.493044
0.503619
0.512246
0.521332
0.542408
0.572578
0.584389
0.578286
0.602226
0.740683
0.802834
0.844021
0.87074
0.881882
0.885687
0.887231
0.885877
0.87964
0.864574
0.835551
0.795255
0.758535
0.732265
0.719213
0.713452
0.712361
0.716392
0.721822
0.736951
0.764685
0.808013
0.842904
0.861908
0.871075
0.873621
0.873909
0.871104
0.867524
0.863701
0.859091
0.853342
0.845709
0.835475
0.822187
0.804968
0.783349
0.756652
0.72942
0.709246
0.698155
0.694107
0.693414
0.697348
0.711341
0.731926
0.757007
0.789117
0.824105
0.85484
0.878334
0.89819
0.912149
0.920612
0.924412
0.919504
0.902871
0.879846
0.857255
0.84107
0.837726
0.842978
0.855996
0.872947
0.897166
0.928973
0.958741
0.977309
0.986174
0.989313
0.989567
0.986938
0.973186
0.940274
0.912634
0.896907
0.891212
0.89088
0.894408
0.911894
0.938019
0.956934
0.970147
0.97966
0.986784
0.991833
0.995098
0.997083
0.998327
0.999
0.999228
0.999235
0.999142
0.998777
0.997772
0.995229
0.988765
0.972675
0.929981
0.799267
0.601986
0.436065
0.308187
0.214062
0.146887
0.0998201
0.0672208
0.0448533
0.0296006
0.0192822
0.0123489
0.00775476
0.00475147
0.0028366
0.00164209
0.000922548
0.000500876
0.00026192
0.000134536
6.03955e-05
0.608738
0.60055
0.592804
0.57688
0.55857
0.538956
0.51518
0.485941
0.449623
0.424504
0.411967
0.401623
0.397667
0.397855
0.413524
0.434944
0.455456
0.482497
0.510742
0.537998
0.562694
0.584472
0.603585
0.618785
0.630725
0.637551
0.640596
0.640732
0.635449
0.627292
0.61605
0.602679
0.585979
0.567668
0.548584
0.526501
0.505804
0.483632
0.460973
0.436886
0.411899
0.387656
0.368262
0.358908
0.360869
0.378893
0.410251
0.439823
0.466156
0.486963
0.504892
0.518522
0.525376
0.532419
0.548964
0.577788
0.598472
0.598199
0.586903
0.66809
0.807419
0.846998
0.869054
0.878718
0.881693
0.882588
0.877595
0.863024
0.831815
0.785352
0.743899
0.72256
0.710581
0.706715
0.709775
0.714964
0.724841
0.750112
0.796807
0.843548
0.865246
0.873798
0.876168
0.874752
0.863711
0.845703
0.823387
0.802046
0.782775
0.767837
0.751165
0.736114
0.720487
0.70151
0.679353
0.653484
0.625029
0.602888
0.595251
0.59497
0.59834
0.603527
0.609483
0.616055
0.623171
0.630844
0.639447
0.651878
0.67272
0.709148
0.761078
0.821016
0.877206
0.913139
0.93505
0.948983
0.957173
0.961399
0.960224
0.949041
0.923756
0.8969
0.877303
0.872482
0.878396
0.894147
0.914265
0.941909
0.967974
0.983536
0.990501
0.992572
0.992474
0.989278
0.973842
0.943028
0.921005
0.91017
0.907468
0.9083
0.915731
0.938471
0.958667
0.97233
0.981496
0.987726
0.992101
0.995202
0.997229
0.998443
0.999142
0.999538
0.999705
0.99973
0.999703
0.999555
0.999056
0.997583
0.993347
0.981292
0.946888
0.837195
0.645841
0.480297
0.349778
0.250964
0.177953
0.124788
0.0863833
0.058852
0.0393109
0.025668
0.0163248
0.0100927
0.00604838
0.00351026
0.0019711
0.001064
0.000564584
0.000265658
0.609501
0.601389
0.598989
0.600795
0.600696
0.58496
0.554766
0.530084
0.519189
0.516064
0.523164
0.545382
0.56411
0.589377
0.626038
0.663148
0.694977
0.724523
0.755106
0.778855
0.798114
0.815466
0.828102
0.83768
0.843004
0.84564
0.846514
0.842324
0.834241
0.822003
0.80649
0.787607
0.766405
0.74321
0.716255
0.689204
0.661755
0.635757
0.613897
0.596955
0.584302
0.573818
0.562508
0.548735
0.533135
0.517034
0.504512
0.499726
0.502238
0.515414
0.532181
0.544957
0.55977
0.579654
0.598442
0.609468
0.611056
0.596342
0.596314
0.741244
0.841531
0.865276
0.875262
0.878186
0.878075
0.870136
0.846932
0.792613
0.743897
0.716288
0.701219
0.696581
0.699833
0.707284
0.719279
0.743259
0.794308
0.839655
0.859531
0.865476
0.865608
0.856404
0.828566
0.780893
0.714695
0.645088
0.595091
0.557328
0.540908
0.535955
0.535431
0.538143
0.541483
0.543228
0.544135
0.544644
0.546346
0.550755
0.558233
0.568192
0.578615
0.587979
0.596376
0.604222
0.611277
0.616974
0.621137
0.624385
0.628453
0.636029
0.650907
0.679914
0.736041
0.807561
0.868446
0.914275
0.945565
0.963386
0.973728
0.979385
0.981655
0.979944
0.969314
0.944722
0.919887
0.906082
0.906369
0.917748
0.937719
0.961112
0.980262
0.990184
0.99401
0.994743
0.994074
0.989158
0.970386
0.948036
0.934782
0.929739
0.929413
0.931987
0.944757
0.963603
0.976371
0.984602
0.989947
0.993499
0.995901
0.997535
0.998609
0.999249
0.999607
0.999795
0.99987
0.999879
0.999859
0.999751
0.999359
0.998114
0.994315
0.98303
0.950003
0.844679
0.665049
0.508202
0.381155
0.281099
0.203715
0.144796
0.100642
0.0682109
0.0449553
0.0287554
0.0178203
0.0106817
0.00619823
0.00345544
0.00189356
0.00093113
0.613504
0.618236
0.619621
0.623808
0.624124
0.620855
0.609491
0.602988
0.602074
0.615244
0.634262
0.670795
0.708792
0.741604
0.783503
0.814361
0.840143
0.864707
0.880667
0.894464
0.905361
0.911729
0.918622
0.923252
0.926402
0.929705
0.931467
0.9325
0.932497
0.929476
0.922825
0.910674
0.890626
0.863952
0.828944
0.786213
0.7424
0.70341
0.667849
0.641398
0.623379
0.612038
0.603964
0.600033
0.599592
0.600745
0.604953
0.608741
0.608391
0.608188
0.609677
0.613003
0.615686
0.616978
0.617278
0.616222
0.608699
0.590399
0.621196
0.804863
0.85894
0.871494
0.874806
0.874844
0.865068
0.834421
0.767034
0.719646
0.696265
0.687554
0.686137
0.69299
0.703658
0.723438
0.765686
0.822526
0.849778
0.858977
0.859799
0.850962
0.817013
0.739645
0.601951
0.485622
0.434649
0.413035
0.406844
0.409449
0.427146
0.450188
0.470688
0.487633
0.500942
0.510872
0.518498
0.5248
0.531497
0.539978
0.550735
0.563442
0.575771
0.586226
0.595104
0.603159
0.610373
0.616058
0.619923
0.622359
0.624585
0.628282
0.635574
0.6507
0.68637
0.742474
0.7981
0.847068
0.888855
0.925045
0.953393
0.973162
0.983822
0.989048
0.991212
0.991177
0.987215
0.971947
0.948135
0.933664
0.932705
0.941639
0.960909
0.978777
0.989967
0.994802
0.996162
0.996119
0.994577
0.987072
0.970952
0.958903
0.952647
0.95113
0.951822
0.956623
0.97012
0.981192
0.988168
0.992482
0.995202
0.996969
0.998136
0.998903
0.999393
0.999683
0.99984
0.999915
0.999938
0.999937
0.999911
0.999794
0.999388
0.9981
0.994194
0.982719
0.94951
0.845512
0.676638
0.526353
0.400134
0.296971
0.214768
0.151016
0.103061
0.0681492
0.0436373
0.027009
0.0161856
0.00931894
0.00527246
0.00270356
0.620076
0.622631
0.624894
0.63344
0.637169
0.643311
0.648807
0.662487
0.685938
0.714263
0.756703
0.798831
0.833043
0.861117
0.887609
0.902251
0.914106
0.922739
0.927126
0.932714
0.935321
0.937119
0.939162
0.940726
0.942943
0.9468
0.949614
0.953897
0.958981
0.963189
0.966612
0.969113
0.970435
0.966681
0.957147
0.937123
0.898528
0.836861
0.761607
0.698483
0.654487
0.630533
0.612735
0.600523
0.594659
0.590558
0.589149
0.589897
0.594402
0.601825
0.605829
0.607894
0.608469
0.608139
0.6079
0.60689
0.597544
0.59323
0.699515
0.841371
0.866988
0.87163
0.872624
0.864947
0.834532
0.75102
0.703038
0.680962
0.674153
0.676589
0.686023
0.698071
0.724713
0.78273
0.831466
0.851657
0.856759
0.855214
0.836154
0.775215
0.634531
0.45586
0.375041
0.336193
0.320862
0.317163
0.328897
0.358864
0.389615
0.426531
0.461837
0.484683
0.501169
0.513847
0.522828
0.528912
0.534543
0.542045
0.552399
0.56642
0.581163
0.592879
0.601225
0.607871
0.614046
0.618887
0.62191
0.623633
0.625242
0.628259
0.634524
0.647095
0.676708
0.726412
0.778724
0.825982
0.865949
0.898694
0.925242
0.947574
0.967866
0.982935
0.990982
0.994494
0.995761
0.995682
0.993115
0.981492
0.962082
0.953151
0.953862
0.964059
0.979898
0.990543
0.995515
0.997148
0.997308
0.996755
0.99387
0.985479
0.976837
0.971117
0.968705
0.968619
0.970274
0.977187
0.985823
0.991363
0.994712
0.99673
0.997973
0.998759
0.999261
0.999579
0.999774
0.999886
0.999943
0.999965
0.999967
0.999961
0.999923
0.999781
0.999317
0.997905
0.993748
0.98177
0.947089
0.83949
0.672509
0.521862
0.392948
0.286738
0.20259
0.138451
0.0915263
0.0584573
0.036164
0.0215047
0.0125598
0.00670088
0.622399
0.632585
0.641848
0.651851
0.662266
0.688756
0.715079
0.742114
0.782207
0.818166
0.852615
0.881603
0.895744
0.90876
0.914639
0.917731
0.919399
0.920076
0.919772
0.916141
0.910545
0.905138
0.902386
0.901222
0.901307
0.904337
0.910385
0.919392
0.932537
0.947172
0.959589
0.97029
0.978345
0.982218
0.983996
0.984309
0.978129
0.961462
0.924833
0.847406
0.7553
0.70434
0.670515
0.647995
0.631973
0.614836
0.602349
0.592046
0.583557
0.576226
0.571511
0.572768
0.582204
0.598603
0.603424
0.602443
0.597306
0.623198
0.794029
0.8583
0.868818
0.870537
0.864925
0.837623
0.769231
0.702616
0.67515
0.666086
0.664936
0.677016
0.691992
0.72029
0.786178
0.831722
0.850569
0.855008
0.852841
0.831457
0.75762
0.575654
0.395618
0.314663
0.276785
0.259977
0.254582
0.25844
0.286128
0.313323
0.360357
0.4142
0.461997
0.49966
0.529458
0.549237
0.559579
0.562703
0.562943
0.564292
0.569084
0.582625
0.600234
0.61338
0.620342
0.622903
0.625498
0.627577
0.628392
0.628339
0.628774
0.630595
0.634711
0.645135
0.67086
0.714984
0.765166
0.813226
0.855121
0.88972
0.917162
0.938545
0.955242
0.969595
0.982494
0.99138
0.995701
0.997407
0.997823
0.997408
0.99418
0.981604
0.970011
0.967702
0.970894
0.982421
0.991792
0.996321
0.997917
0.998165
0.997948
0.996727
0.992799
0.987401
0.983082
0.980698
0.98015
0.980774
0.984123
0.990034
0.994054
0.996472
0.997888
0.998729
0.999238
0.999551
0.999743
0.99986
0.999928
0.999964
0.99998
0.999983
0.999981
0.999968
0.999914
0.999735
0.999185
0.997557
0.992763
0.978532
0.934789
0.803265
0.630296
0.477785
0.349703
0.247055
0.168603
0.111067
0.0708492
0.0434566
0.0261818
0.0145363
0.625969
0.65001
0.676759
0.689185
0.706967
0.745819
0.781386
0.811952
0.851491
0.875828
0.893806
0.904286
0.908257
0.910082
0.910508
0.905833
0.896378
0.88725
0.876564
0.869864
0.866561
0.864914
0.864043
0.863049
0.862218
0.860877
0.86028
0.860005
0.862725
0.870054
0.888783
0.919192
0.951896
0.971462
0.984447
0.989519
0.991154
0.990097
0.98182
0.957761
0.902894
0.820003
0.781371
0.762257
0.74974
0.734865
0.720273
0.705659
0.688511
0.67906
0.675098
0.665757
0.648482
0.619679
0.608065
0.606207
0.62158
0.740977
0.840386
0.865117
0.86849
0.867329
0.851603
0.79676
0.707411
0.670342
0.65933
0.65782
0.666935
0.687621
0.720108
0.775869
0.827766
0.847822
0.853328
0.853091
0.837363
0.772627
0.58645
0.386248
0.28888
0.241956
0.21811
0.206785
0.203016
0.210705
0.231467
0.274703
0.337353
0.40937
0.477091
0.538716
0.574992
0.589367
0.592668
0.592581
0.592386
0.593001
0.59543
0.603248
0.61852
0.630528
0.638777
0.642594
0.642596
0.641737
0.640151
0.636768
0.633778
0.632663
0.633904
0.638637
0.650748
0.679097
0.725373
0.781192
0.832669
0.876504
0.910467
0.935062
0.952387
0.965481
0.976104
0.985229
0.992393
0.996478
0.998217
0.998734
0.998663
0.997454
0.990939
0.981113
0.978079
0.979031
0.985761
0.993404
0.997147
0.998545
0.99884
0.998776
0.998291
0.996578
0.993191
0.990143
0.988258
0.987653
0.987876
0.989588
0.993376
0.996115
0.997778
0.998725
0.999258
0.999567
0.999751
0.999861
0.999925
0.999962
0.999981
0.999989
0.999991
0.999991
0.999985
0.999963
0.999885
0.999639
0.998889
0.996589
0.989389
0.966271
0.88908
0.712295
0.54118
0.395615
0.278831
0.18945
0.124563
0.0787398
0.0488475
0.0280998
0.633345
0.664139
0.704282
0.731705
0.753072
0.797298
0.831596
0.857204
0.884743
0.896713
0.902755
0.905006
0.905481
0.900445
0.886175
0.875888
0.870643
0.867838
0.866093
0.865527
0.865431
0.865657
0.865881
0.865603
0.86469
0.862594
0.859544
0.855577
0.850168
0.846526
0.84529
0.847839
0.864238
0.910658
0.958271
0.981544
0.991395
0.994151
0.994783
0.989431
0.968772
0.911396
0.840363
0.808955
0.796079
0.791128
0.786325
0.776864
0.767128
0.753299
0.732932
0.705363
0.667775
0.634468
0.626244
0.646423
0.732589
0.822665
0.858242
0.866026
0.867127
0.859924
0.825979
0.750144
0.681186
0.653382
0.646562
0.650427
0.672686
0.714668
0.763846
0.812839
0.842083
0.851247
0.852919
0.846214
0.80361
0.657597
0.445734
0.301255
0.235561
0.202575
0.186004
0.178525
0.17632
0.185571
0.205849
0.249188
0.328181
0.417606
0.515212
0.576778
0.599759
0.604988
0.604585
0.603117
0.602845
0.603831
0.607608
0.61633
0.626983
0.637435
0.645627
0.651413
0.654813
0.655842
0.655144
0.65109
0.644021
0.639086
0.637369
0.638094
0.642392
0.652393
0.673322
0.721994
0.786349
0.845518
0.893591
0.928493
0.950621
0.964713
0.974954
0.982885
0.989232
0.994202
0.997333
0.998772
0.99922
0.999208
0.998549
0.994556
0.987524
0.985126
0.985485
0.989516
0.99514
0.997927
0.999009
0.999282
0.999275
0.99908
0.998345
0.996369
0.994308
0.993009
0.99256
0.992632
0.99357
0.99588
0.997613
0.998674
0.999279
0.999608
0.999785
0.999881
0.999935
0.999966
0.999983
0.999991
0.999995
0.999996
0.999996
0.999993
0.999981
0.99994
0.999805
0.999371
0.997963
0.993314
0.977636
0.923832
0.76562
0.579242
0.422033
0.295882
0.200509
0.13055
0.0833382
0.0495525
0.638643
0.692539
0.739994
0.772139
0.790613
0.832094
0.862218
0.880341
0.895823
0.900694
0.902182
0.902151
0.893806
0.879242
0.872922
0.870359
0.869621
0.869485
0.871661
0.872797
0.87417
0.874751
0.874962
0.875082
0.875191
0.875295
0.875176
0.874042
0.869873
0.859673
0.846612
0.837376
0.834474
0.842418
0.876196
0.943108
0.97958
0.992755
0.996384
0.997043
0.992266
0.969735
0.887778
0.832295
0.812114
0.806746
0.805089
0.795452
0.785197
0.772871
0.754364
0.731072
0.706476
0.689509
0.705212
0.759643
0.818869
0.851216
0.863043
0.865442
0.862762
0.840361
0.779451
0.69556
0.654395
0.642609
0.63815
0.643379
0.671027
0.716724
0.771865
0.820293
0.843832
0.851026
0.850412
0.829083
0.745158
0.569553
0.369469
0.254492
0.204043
0.180159
0.169226
0.165036
0.168617
0.177465
0.196663
0.239535
0.333756
0.452647
0.545656
0.594089
0.611149
0.614016
0.613617
0.61217
0.612428
0.614335
0.619678
0.630472
0.640878
0.647941
0.652658
0.656568
0.660445
0.664254
0.6667
0.667121
0.663582
0.6563
0.651805
0.650324
0.65058
0.654132
0.666997
0.704123
0.770148
0.832414
0.883109
0.921494
0.948722
0.965317
0.975435
0.982742
0.98848
0.992857
0.996087
0.998189
0.999203
0.999512
0.999495
0.998987
0.995954
0.9913
0.989837
0.990117
0.992864
0.996722
0.998617
0.999358
0.999563
0.99957
0.999481
0.999095
0.997965
0.99675
0.996018
0.995777
0.995804
0.996309
0.997653
0.998669
0.999277
0.99962
0.999804
0.9999
0.999949
0.999974
0.999987
0.999993
0.999997
0.999998
0.999998
0.999998
0.999996
0.999988
0.999961
0.999868
0.999551
0.998471
0.994732
0.981646
0.9356
0.788405
0.594269
0.430239
0.300619
0.201568
0.13235
0.0811966
0.645794
0.704699
0.754308
0.796943
0.817691
0.852966
0.877947
0.890799
0.898645
0.900422
0.900511
0.894656
0.880084
0.873434
0.871225
0.870728
0.871721
0.873512
0.874231
0.874506
0.874629
0.874661
0.874673
0.874874
0.875143
0.875689
0.876613
0.877784
0.878284
0.87825
0.873328
0.854959
0.834482
0.829885
0.837842
0.87003
0.945467
0.981501
0.994771
0.997956
0.998369
0.993846
0.971612
0.889322
0.830537
0.815683
0.815017
0.81558
0.807498
0.797614
0.785884
0.774497
0.767657
0.769938
0.793508
0.824855
0.848634
0.85966
0.862995
0.862377
0.849621
0.815678
0.758179
0.679692
0.625922
0.613278
0.619459
0.630385
0.662435
0.710791
0.767438
0.817439
0.842023
0.849457
0.847365
0.810977
0.697572
0.5163
0.342184
0.245044
0.200535
0.178778
0.16754
0.165813
0.168476
0.177437
0.198922
0.251417
0.368987
0.488551
0.571286
0.610157
0.623985
0.626737
0.627023
0.627904
0.630554
0.636817
0.648058
0.659592
0.66699
0.668308
0.667834
0.66758
0.668725
0.67412
0.680896
0.685668
0.687673
0.686108
0.681766
0.68053
0.681265
0.68415
0.692091
0.715286
0.774532
0.836187
0.886
0.922312
0.948649
0.967257
0.978369
0.984694
0.989107
0.992738
0.995592
0.997615
0.9989
0.999521
0.999689
0.999651
0.999149
0.996572
0.993765
0.993067
0.993407
0.995541
0.997992
0.999159
0.999613
0.999741
0.999748
0.999699
0.999468
0.998818
0.998213
0.997894
0.997817
0.997839
0.99809
0.998783
0.999321
0.99964
0.999816
0.999909
0.999956
0.999979
0.99999
0.999995
0.999998
0.999999
0.999999
0.999999
0.999999
0.999997
0.999991
0.999969
0.999891
0.999614
0.998624
0.99507
0.98228
0.936439
0.788214
0.590004
0.425447
0.293895
0.198504
0.125515
0.649915
0.719907
0.769878
0.815287
0.838395
0.862726
0.885297
0.89407
0.898642
0.899774
0.897823
0.8877
0.876503
0.87269
0.871584
0.871989
0.873303
0.873887
0.874047
0.873677
0.872985
0.872647
0.873089
0.873456
0.873691
0.873854
0.874161
0.875102
0.877957
0.879936
0.879977
0.876045
0.855744
0.831932
0.831101
0.843734
0.896276
0.959485
0.987166
0.996871
0.999084
0.999291
0.99608
0.976689
0.891234
0.831626
0.820395
0.824117
0.824875
0.816878
0.81213
0.80925
0.809248
0.816813
0.834132
0.84748
0.856741
0.86078
0.862344
0.859375
0.843016
0.810504
0.759033
0.683621
0.623568
0.593481
0.581031
0.589953
0.625405
0.684816
0.747918
0.804746
0.834021
0.843383
0.840644
0.808032
0.702978
0.521019
0.355755
0.257549
0.210202
0.185974
0.175101
0.176068
0.182027
0.19659
0.226689
0.297284
0.425944
0.546027
0.614202
0.640381
0.645322
0.645324
0.645537
0.64758
0.654772
0.669355
0.681478
0.687118
0.684172
0.679217
0.67701
0.676707
0.677515
0.682364
0.697591
0.711795
0.7211
0.725946
0.727393
0.728493
0.731361
0.738602
0.754088
0.785455
0.833379
0.882499
0.922397
0.948434
0.96304
0.973484
0.982401
0.98821
0.991522
0.993804
0.995789
0.997461
0.998663
0.999397
0.999729
0.999795
0.999729
0.999152
0.997032
0.995584
0.99535
0.995769
0.997475
0.998886
0.999535
0.999785
0.999855
0.999858
0.999826
0.999674
0.999344
0.999114
0.99902
0.99901
0.999035
0.999177
0.999488
0.999713
0.999849
0.999924
0.999963
0.999983
0.999992
0.999996
0.999998
0.999999
1
1
1
0.999999
0.999998
0.999992
0.999972
0.999897
0.999619
0.99859
0.994787
0.980825
0.930306
0.771084
0.574139
0.408958
0.284321
0.185189
0.651451
0.718153
0.770158
0.815101
0.847054
0.865719
0.885047
0.893704
0.898222
0.899279
0.896737
0.887537
0.877159
0.873088
0.871996
0.872221
0.873236
0.873824
0.873594
0.871954
0.870306
0.870291
0.871582
0.872884
0.873482
0.87368
0.873824
0.874231
0.87558
0.879304
0.880737
0.879379
0.868864
0.841898
0.832162
0.837627
0.875553
0.944016
0.979869
0.993861
0.998513
0.999672
0.999811
0.998152
0.982275
0.891199
0.82943
0.825681
0.831554
0.831211
0.827058
0.825727
0.828626
0.83535
0.84588
0.851954
0.857403
0.86017
0.860649
0.856212
0.840843
0.812924
0.768305
0.70321
0.633505
0.595142
0.572652
0.558746
0.563908
0.598547
0.669923
0.759638
0.805999
0.82301
0.82155
0.79671
0.708681
0.542092
0.39739
0.292172
0.239153
0.207995
0.199312
0.202191
0.211553
0.231377
0.272645
0.374419
0.518303
0.612581
0.652881
0.662028
0.662701
0.663015
0.664624
0.670826
0.686952
0.703689
0.706297
0.702656
0.69247
0.684872
0.681631
0.681044
0.681664
0.685925
0.703394
0.731558
0.754031
0.770561
0.779588
0.784374
0.791367
0.805014
0.833684
0.885535
0.927324
0.953936
0.970372
0.981242
0.987602
0.989795
0.990544
0.992386
0.994422
0.995789
0.996798
0.997765
0.998651
0.999312
0.999698
0.999844
0.999852
0.999735
0.998981
0.997543
0.996971
0.996962
0.997499
0.998729
0.999447
0.99977
0.999891
0.999923
0.999923
0.999899
0.9998
0.999679
0.999619
0.999606
0.999609
0.99964
0.999744
0.999851
0.999918
0.999957
0.999979
0.99999
0.999995
0.999998
0.999999
1
1
1
1
1
0.999999
0.999998
0.999992
0.999971
0.999889
0.999577
0.99839
0.993931
0.977425
0.917295
0.743679
0.546807
0.391893
0.263091
0.651726
0.710691
0.766227
0.810655
0.845809
0.864493
0.883103
0.892282
0.897209
0.898318
0.896764
0.889339
0.879219
0.874238
0.872485
0.872318
0.872718
0.873547
0.873519
0.873029
0.871539
0.871238
0.871409
0.872097
0.873035
0.87346
0.873681
0.874131
0.875415
0.879121
0.880984
0.87998
0.871088
0.844701
0.83454
0.837384
0.868779
0.938708
0.977273
0.992815
0.997944
0.999468
0.999889
0.99996
0.999304
0.984422
0.885023
0.825403
0.830463
0.837137
0.836922
0.835086
0.835366
0.839824
0.846794
0.851675
0.856049
0.857337
0.855888
0.848392
0.834922
0.814662
0.785594
0.745885
0.676825
0.613944
0.57906
0.558167
0.545659
0.545132
0.564758