/*--------------------------------*- C++ -*----------------------------------*\
  =========                 |
  \\      /  F ield         | OpenFOAM: The Open Source CFD Toolbox
   \\    /   O peration     | Website:  https://openfoam.org
    \\  /    A nd           | Version:  7
     \\/     M anipulation  |
\*---------------------------------------------------------------------------*/
FoamFile
{
    version     2.0;
    format      ascii;
    class       volVectorField;
    location    "0.081";
    object      U;
}
// * * * * * * * * * * * * * * * * * * * * * * * * * * * * * * * * * * * * * //

dimensions      [0 1 -1 0 0 0 0];

internalField   nonuniform List<vector> 
12225
(
(4.74036 0.141538 0)
(4.16391 0.129779 0)
(3.64961 0.111354 0)
(3.30302 0.0832922 0)
(2.99432 0.0722481 0)
(2.67519 0.0643511 0)
(2.36804 0.0541657 0)
(2.09107 0.0451805 0)
(1.8424 0.039126 0)
(1.61616 0.0340629 0)
(1.40962 0.0280203 0)
(1.22671 0.0208359 0)
(1.06845 0.0143005 0)
(0.937231 0.00890254 0)
(0.8223 0.00638143 0)
(0.730021 0.00535978 0)
(0.624503 0.00874089 0)
(0.563974 -0.00763817 0)
(5.03099 0.0985185 0)
(4.92265 0.0571651 0)
(4.79137 0.0862006 0)
(4.70099 0.077978 0)
(4.60693 0.0794202 0)
(4.48532 0.0895849 0)
(4.34924 0.0948644 0)
(4.21806 0.0939925 0)
(4.09446 0.0920404 0)
(3.97176 0.0913558 0)
(3.84045 0.0906254 0)
(3.70228 0.0880637 0)
(3.55711 0.0828601 0)
(3.41539 0.0768764 0)
(3.27196 0.0706678 0)
(3.14326 0.0675007 0)
(2.99748 0.0653121 0)
(2.87874 0.0616228 0)
(5.03318 0.129883 0)
(4.87084 0.131744 0)
(4.77468 0.149712 0)
(4.73899 0.127957 0)
(4.72831 0.124837 0)
(4.72706 0.131731 0)
(4.72229 0.12917 0)
(4.70641 0.119383 0)
(4.67945 0.112469 0)
(4.64544 0.112345 0)
(4.6074 0.116103 0)
(4.56587 0.119065 0)
(4.52135 0.119147 0)
(4.47103 0.116847 0)
(4.41704 0.113451 0)
(4.35436 0.111785 0)
(4.29014 0.113628 0)
(4.20926 0.110676 0)
(4.98803 0.190899 0)
(4.87413 0.12206 0)
(4.82668 0.121883 0)
(4.7966 0.10464 0)
(4.7812 0.0951336 0)
(4.79027 0.0985879 0)
(4.80654 0.104345 0)
(4.80632 0.10855 0)
(4.78391 0.112422 0)
(4.74873 0.115834 0)
(4.71426 0.117395 0)
(4.68742 0.116652 0)
(4.67158 0.114923 0)
(4.66237 0.113488 0)
(4.65975 0.113848 0)
(4.65443 0.116738 0)
(4.65142 0.123134 0)
(4.63584 0.12929 0)
(5.10136 0.201773 0)
(4.97214 0.151493 0)
(4.8885 0.145832 0)
(4.85216 0.132875 0)
(4.83728 0.121964 0)
(4.83098 0.11813 0)
(4.82778 0.118209 0)
(4.8237 0.121799 0)
(4.81778 0.129036 0)
(4.80971 0.136379 0)
(4.79974 0.139486 0)
(4.78755 0.136814 0)
(4.77512 0.130373 0)
(4.76292 0.12303 0)
(4.75358 0.117739 0)
(4.74523 0.116452 0)
(4.74035 0.120911 0)
(4.73409 0.130331 0)
(5.0684 0.28417 0)
(4.98903 0.182497 0)
(4.92359 0.143261 0)
(4.88748 0.125111 0)
(4.86646 0.114851 0)
(4.85126 0.113023 0)
(4.83459 0.114221 0)
(4.81693 0.11549 0)
(4.80407 0.117372 0)
(4.79864 0.120169 0)
(4.79857 0.122946 0)
(4.79936 0.124386 0)
(4.79862 0.124397 0)
(4.79518 0.12355 0)
(4.79106 0.122926 0)
(4.78611 0.124352 0)
(4.78347 0.129164 0)
(4.78035 0.138709 0)
(5.03358 0.246918 0)
(4.99444 0.20417 0)
(4.94511 0.16992 0)
(4.9094 0.143362 0)
(4.88844 0.127393 0)
(4.8824 0.122644 0)
(4.88771 0.124854 0)
(4.89447 0.130758 0)
(4.89438 0.137799 0)
(4.88495 0.142909 0)
(4.86915 0.144141 0)
(4.85216 0.141014 0)
(4.83905 0.1348 0)
(4.83236 0.127547 0)
(4.83308 0.121584 0)
(4.83862 0.119268 0)
(4.8486 0.122033 0)
(4.85786 0.131708 0)
(5.00044 0.343909 0)
(4.97838 0.209533 0)
(4.96573 0.156931 0)
(4.9306 0.144186 0)
(4.8839 0.136286 0)
(4.8565 0.12582 0)
(4.85364 0.115845 0)
(4.86382 0.111841 0)
(4.87659 0.116011 0)
(4.88713 0.124834 0)
(4.8945 0.132609 0)
(4.89888 0.135516 0)
(4.90058 0.132929 0)
(4.90035 0.126838 0)
(4.89863 0.120231 0)
(4.89667 0.116598 0)
(4.89479 0.118284 0)
(4.89447 0.1277 0)
(4.94472 0.290526 0)
(4.98584 0.216994 0)
(4.93635 0.178352 0)
(4.91545 0.160753 0)
(4.93523 0.144449 0)
(4.97387 0.127816 0)
(5.00038 0.119664 0)
(4.99996 0.122937 0)
(4.97964 0.132281 0)
(4.95479 0.140624 0)
(4.93632 0.14372 0)
(4.92665 0.141286 0)
(4.92283 0.135227 0)
(4.92035 0.128503 0)
(4.91658 0.123056 0)
(4.91075 0.121271 0)
(4.90444 0.123772 0)
(4.89932 0.132423 0)
(5.01165 0.241885 0)
(5.0077 0.223998 0)
(4.94287 0.187411 0)
(4.90926 0.148773 0)
(4.90409 0.120326 0)
(4.91387 0.105757 0)
(4.92263 0.106769 0)
(4.92335 0.118392 0)
(4.92028 0.131657 0)
(4.92061 0.140274 0)
(4.927 0.142791 0)
(4.93696 0.140898 0)
(4.94637 0.136727 0)
(4.95206 0.132198 0)
(4.95448 0.128223 0)
(4.95381 0.12648 0)
(4.95428 0.127409 0)
(4.95447 0.13295 0)
(4.95195 0.276278 0)
(4.96488 0.244182 0)
(4.96688 0.201218 0)
(4.95408 0.163398 0)
(4.93193 0.134018 0)
(4.91528 0.118025 0)
(4.91014 0.118643 0)
(4.91391 0.12932 0)
(4.92207 0.138991 0)
(4.93088 0.141521 0)
(4.93796 0.137608 0)
(4.94255 0.131259 0)
(4.94595 0.125653 0)
(4.94981 0.121903 0)
(4.95686 0.119891 0)
(4.96696 0.119734 0)
(4.98125 0.121559 0)
(4.99677 0.12723 0)
(4.9778 0.253794 0)
(4.95615 0.227182 0)
(4.93939 0.202921 0)
(4.95039 0.172117 0)
(4.95811 0.139951 0)
(4.96081 0.115986 0)
(4.9684 0.106393 0)
(4.98424 0.109548 0)
(5.00283 0.118517 0)
(5.01505 0.127385 0)
(5.01564 0.133309 0)
(5.00492 0.135239 0)
(4.98895 0.132922 0)
(4.97347 0.12681 0)
(4.96426 0.118489 0)
(4.96272 0.111268 0)
(4.96992 0.106831 0)
(4.98413 0.109702 0)
(4.89489 0.283394 0)
(4.87571 0.243838 0)
(4.91175 0.181949 0)
(4.95506 0.143885 0)
(4.97335 0.123414 0)
(4.97749 0.111762 0)
(4.97943 0.109153 0)
(4.98104 0.115506 0)
(4.98163 0.126987 0)
(4.98204 0.13851 0)
(4.98426 0.146376 0)
(4.98941 0.148632 0)
(4.99716 0.145043 0)
(5.00607 0.136723 0)
(5.01479 0.125253 0)
(5.02315 0.114026 0)
(5.03204 0.104176 0)
(5.04235 0.0998638 0)
(4.97241 0.250447 0)
(5.01334 0.205511 0)
(5.01471 0.184955 0)
(5.00088 0.162335 0)
(4.9877 0.138048 0)
(4.98003 0.116667 0)
(4.97433 0.106028 0)
(4.96945 0.10712 0)
(4.96894 0.113748 0)
(4.97539 0.119794 0)
(4.98761 0.12263 0)
(5.0024 0.122178 0)
(5.01617 0.118834 0)
(5.02776 0.113214 0)
(5.036 0.105746 0)
(5.0425 0.0982819 0)
(5.047 0.0916773 0)
(5.05199 0.0886601 0)
(4.94364 0.251009 0)
(4.94278 0.194039 0)
(4.98777 0.174361 0)
(5.02273 0.148176 0)
(5.02268 0.120563 0)
(5.00596 0.108441 0)
(4.99487 0.112305 0)
(4.99362 0.12129 0)
(4.99629 0.127427 0)
(4.99751 0.129596 0)
(4.99647 0.12941 0)
(4.99488 0.127986 0)
(4.99532 0.124641 0)
(4.99829 0.118913 0)
(5.00362 0.110561 0)
(5.00968 0.101577 0)
(5.01635 0.0929108 0)
(5.02289 0.0871452 0)
(5.06054 0.261688 0)
(5.08427 0.167838 0)
(5.08471 0.138515 0)
(5.06743 0.159146 0)
(5.02289 0.169345 0)
(4.97814 0.152125 0)
(4.9597 0.124232 0)
(4.96816 0.106676 0)
(4.98905 0.106061 0)
(5.00837 0.114654 0)
(5.02044 0.121803 0)
(5.0261 0.122024 0)
(5.02909 0.115382 0)
(5.032 0.105269 0)
(5.03673 0.0942866 0)
(5.04323 0.0852256 0)
(5.05252 0.0773126 0)
(5.06375 0.0718811 0)
(5.09392 0.225631 0)
(5.09937 0.172653 0)
(5.05549 0.190679 0)
(5.01621 0.200616 0)
(4.99802 0.188281 0)
(4.99657 0.154727 0)
(4.99399 0.113571 0)
(4.98358 0.0867471 0)
(4.97117 0.0830138 0)
(4.96479 0.0945653 0)
(4.96897 0.10856 0)
(4.98284 0.116437 0)
(5.00229 0.115264 0)
(5.02326 0.106331 0)
(5.04306 0.091625 0)
(5.05991 0.0742625 0)
(5.0741 0.055678 0)
(5.08462 0.038193 0)
(5.07907 0.32011 0)
(5.06984 0.254891 0)
(5.05467 0.251439 0)
(5.05795 0.223735 0)
(5.08362 0.185977 0)
(5.09548 0.162292 0)
(5.08617 0.153389 0)
(5.06664 0.149933 0)
(5.04711 0.141385 0)
(5.03543 0.12322 0)
(5.0361 0.097823 0)
(5.04811 0.0712944 0)
(5.06704 0.0493199 0)
(5.08837 0.0356269 0)
(5.10935 0.0306225 0)
(5.1273 0.0318343 0)
(5.1418 0.0359347 0)
(5.15114 0.0386818 0)
(4.94445 0.352801 0)
(4.95848 0.229945 0)
(4.99863 0.160259 0)
(5.04113 0.137459 0)
(5.06927 0.132027 0)
(5.07641 0.137584 0)
(5.07607 0.142903 0)
(5.0796 0.137471 0)
(5.08497 0.12089 0)
(5.088 0.0988904 0)
(5.08778 0.0762654 0)
(5.08482 0.0550405 0)
(5.08096 0.035939 0)
(5.07868 0.019852 0)
(5.08081 0.00761004 0)
(5.08793 -0.000541034 0)
(5.10068 -0.00578831 0)
(5.11716 -0.00948857 0)
(5.15131 0.285515 0)
(5.1112 0.220684 0)
(5.09868 0.142958 0)
(5.07703 0.129212 0)
(5.07021 0.143503 0)
(5.07509 0.154132 0)
(5.08371 0.154904 0)
(5.09764 0.147979 0)
(5.11621 0.137704 0)
(5.13584 0.126176 0)
(5.15315 0.112002 0)
(5.16561 0.0929631 0)
(5.17258 0.0685469 0)
(5.17523 0.0406424 0)
(5.17649 0.0123227 0)
(5.17819 -0.0131393 0)
(5.18082 -0.0338722 0)
(5.18448 -0.0477109 0)
(4.8855 0.279984 0)
(4.93679 0.273781 0)
(4.96106 0.216685 0)
(4.96773 0.155666 0)
(4.97484 0.128731 0)
(4.99378 0.117885 0)
(5.01951 0.103501 0)
(5.0504 0.0809607 0)
(5.08582 0.0566226 0)
(5.12258 0.0379121 0)
(5.15741 0.0272789 0)
(5.18789 0.0222563 0)
(5.2127 0.0179365 0)
(5.2312 0.0109858 0)
(5.24237 0.00031816 0)
(5.24635 -0.0132809 0)
(5.24518 -0.0281422 0)
(5.23893 -0.0424151 0)
(4.96155 0.243925 0)
(4.99059 0.148914 0)
(5.03512 0.126193 0)
(5.06724 0.116254 0)
(5.0982 0.121293 0)
(5.1288 0.12078 0)
(5.14973 0.102825 0)
(5.15836 0.0759374 0)
(5.16301 0.0526143 0)
(5.17397 0.0373997 0)
(5.196 0.0272014 0)
(5.2262 0.0178928 0)
(5.25843 0.00789455 0)
(5.28718 -0.00207004 0)
(5.30868 -0.00999416 0)
(5.32027 -0.0148287 0)
(5.32251 -0.0165126 0)
(5.31651 -0.0180038 0)
(5.0307 0.270751 0)
(5.02605 0.216679 0)
(5.00799 0.158127 0)
(4.99892 0.104047 0)
(5.02652 0.0691397 0)
(5.08261 0.0599117 0)
(5.14189 0.0602122 0)
(5.18974 0.0510354 0)
(5.22559 0.0264099 0)
(5.25313 -0.00621479 0)
(5.27396 -0.0364991 0)
(5.28739 -0.0570975 0)
(5.29254 -0.0643813 0)
(5.29003 -0.0598027 0)
(5.28388 -0.0482317 0)
(5.27766 -0.0352334 0)
(5.27498 -0.0243824 0)
(5.27732 -0.0187105 0)
(4.94753 0.229625 0)
(5.03682 0.159609 0)
(5.15227 0.1336 0)
(5.23117 0.0957177 0)
(5.26103 0.0583887 0)
(5.26602 0.0350095 0)
(5.2695 0.0214363 0)
(5.281 0.0106146 0)
(5.29957 -0.000382373 0)
(5.31698 -0.00864339 0)
(5.32485 -0.0095007 0)
(5.32224 -0.00438634 0)
(5.31433 0.00188319 0)
(5.3067 0.00522815 0)
(5.30499 0.00341533 0)
(5.3112 -0.00348646 0)
(5.32558 -0.0145262 0)
(5.34461 -0.0275545 0)
(5.09393 0.193 0)
(5.10308 0.0889327 0)
(5.14939 0.0611602 0)
(5.19645 0.043856 0)
(5.23249 0.0381196 0)
(5.25887 0.0379623 0)
(5.27909 0.0306079 0)
(5.29203 0.0125667 0)
(5.2978 -0.0102956 0)
(5.30232 -0.0305926 0)
(5.31023 -0.0428557 0)
(5.32218 -0.0465972 0)
(5.33815 -0.0463012 0)
(5.35679 -0.0467978 0)
(5.37615 -0.0502155 0)
(5.39417 -0.0562588 0)
(5.4099 -0.0636291 0)
(5.42229 -0.0697827 0)
(5.07156 0.214971 0)
(5.1394 0.11303 0)
(5.2128 0.0926891 0)
(5.26187 0.0619644 0)
(5.29482 0.0311568 0)
(5.3197 0.0144912 0)
(5.34624 0.00926091 0)
(5.37463 0.00401892 0)
(5.39795 -0.00484933 0)
(5.41164 -0.0143627 0)
(5.41767 -0.0222363 0)
(5.42083 -0.0266544 0)
(5.42481 -0.0283628 0)
(5.43066 -0.0294597 0)
(5.43696 -0.0319496 0)
(5.44148 -0.036441 0)
(5.44328 -0.0427931 0)
(5.44143 -0.0500414 0)
(5.12352 0.133244 0)
(5.20946 0.0249344 0)
(5.29722 0.00999571 0)
(5.33253 0.00211562 0)
(5.34446 -0.00384903 0)
(5.36668 -0.00564688 0)
(5.40779 -0.0102716 0)
(5.45432 -0.0212881 0)
(5.49093 -0.0350195 0)
(5.51125 -0.0458716 0)
(5.51813 -0.0518413 0)
(5.51838 -0.0545217 0)
(5.51851 -0.0562368 0)
(5.52181 -0.0584006 0)
(5.52922 -0.0610706 0)
(5.53919 -0.0638509 0)
(5.55084 -0.0662013 0)
(5.56195 -0.0682128 0)
(4.99188 0.104261 0)
(5.17929 0.0760687 0)
(5.29509 0.0716883 0)
(5.35403 0.0471105 0)
(5.4 0.0100271 0)
(5.45363 -0.0180289 0)
(5.51234 -0.031434 0)
(5.56467 -0.0342012 0)
(5.60227 -0.0317209 0)
(5.62427 -0.0278635 0)
(5.63472 -0.0252778 0)
(5.63818 -0.0256563 0)
(5.63778 -0.0292222 0)
(5.63496 -0.035166 0)
(5.6312 -0.0424626 0)
(5.62836 -0.0501056 0)
(5.62797 -0.0575401 0)
(5.63164 -0.0643709 0)
(5.02522 -0.0480124 0)
(5.21909 -0.0556745 0)
(5.38164 -0.0258639 0)
(5.4696 -0.0397377 0)
(5.50909 -0.0560445 0)
(5.51768 -0.0636935 0)
(5.51112 -0.0665728 0)
(5.50191 -0.0673526 0)
(5.49723 -0.0661543 0)
(5.49914 -0.063215 0)
(5.50504 -0.0596702 0)
(5.51061 -0.0568565 0)
(5.51143 -0.0555244 0)
(5.5057 -0.056152 0)
(5.4926 -0.0590725 0)
(5.474 -0.0640222 0)
(5.45013 -0.0704684 0)
(5.42335 -0.0773211 0)
(4.96418 0.052722 0)
(5.11813 0.00676772 0)
(5.1185 0.00371824 0)
(5.02632 -0.00733705 0)
(4.90309 -0.0152331 0)
(4.77431 -0.0191291 0)
(4.64557 -0.0225997 0)
(4.51393 -0.0269164 0)
(4.38104 -0.0306101 0)
(4.25275 -0.0321093 0)
(4.1336 -0.0312304 0)
(4.02556 -0.0289362 0)
(3.92738 -0.0264906 0)
(3.83645 -0.024969 0)
(3.74761 -0.0249253 0)
(3.65797 -0.0262539 0)
(3.56335 -0.028462 0)
(3.46499 -0.0305902 0)
(-0.0675337 0.196995 4.30146e-20)
(-0.221809 0.137737 -4.26822e-20)
(-0.333175 0.100707 0)
(-0.385466 0.0413634 0)
(-0.378286 -0.0160882 0)
(-0.336263 -0.0612072 4.14165e-20)
(-0.257842 -0.102556 0)
(-0.148106 -0.137721 0)
(-0.00979251 -0.163328 0)
(0.150703 -0.176665 0)
(0.321384 -0.180539 -3.98827e-20)
(0.492 -0.176602 0)
(0.657947 -0.166233 0)
(0.814896 -0.151659 0)
(0.958824 -0.134976 0)
(1.08848 -0.118151 -3.82496e-20)
(1.2044 -0.102434 0)
(1.30797 -0.0885699 0)
(1.40092 -0.0768571 0)
(1.48512 -0.067371 0)
(1.56242 -0.0597971 0)
(1.63433 -0.0538437 0)
(1.70228 -0.0489567 0)
(1.76676 -0.0446106 -3.57936e-20)
(1.82857 -0.0404136 3.54986e-20)
(1.88701 -0.0354857 -3.52056e-20)
(1.94193 -0.0297822 -3.49144e-20)
(1.99162 -0.0219391 0)
(2.0348 -0.012431 0)
(2.06843 0.00145727 3.40547e-20)
(2.09001 0.0174202 3.37739e-20)
(2.09681 0.0411234 0)
(2.0761 0.0694428 0)
(2.03525 0.105423 3.29535e-20)
(1.94511 0.152568 0)
(1.82935 0.196354 0)
(1.6424 0.273146 -3.21776e-20)
(1.40893 0.308888 0)
(1.12616 0.43058 -3.16688e-20)
(0.673503 0.444157 -6.28059e-20)
(0.336141 0.0183282 0)
(0.205124 -0.375016 0)
(0.143338 -0.403921 0)
(0.0915791 -0.161547 0)
(0.0558274 0.0658679 0)
(0.0231547 0.164558 -5.94888e-20)
(-0.0656044 0.16639 -5.88917e-20)
(-0.210976 0.139333 -5.82779e-20)
(-0.371436 0.111349 0)
(-0.522166 0.0825899 5.70589e-20)
(-0.643215 0.0515057 0)
(-0.717764 0.0181983 -5.59324e-20)
(-0.729863 -0.0116797 -5.54158e-20)
(-0.680446 -0.0319584 0)
(-0.571464 -0.0453687 0)
(-0.399679 -0.0505129 0)
(-0.200418 -0.0340419 -5.35507e-20)
(-0.0527982 -0.0343864 0)
(0.0352715 -0.0800276 0)
(0.168216 -0.135453 0)
(0.395752 -0.143545 0)
(0.619846 -0.0419375 0)
(0.654416 0.11731 0)
(0.624637 0.173478 0)
(0.740072 -0.0428827 0)
(0.902907 -0.395795 4.90413e-20)
(1.0056 -0.464978 0)
(0.866585 -0.0809831 0)
(0.390506 0.293778 -4.75809e-20)
(-0.189678 0.378718 -4.70662e-20)
(-0.743517 0.369336 0)
(-1.26755 0.345155 4.57931e-20)
(-1.75245 0.317598 -4.51197e-20)
(-2.19839 0.290538 0)
(-2.60852 0.265437 4.37605e-20)
(-2.98603 0.242528 0)
(-3.33362 0.221509 0)
(-3.65313 0.201806 -4.17742e-20)
(-3.94546 0.182831 0)
(-4.21065 0.16405 4.05248e-20)
(-4.44798 0.145057 0)
(-4.65616 0.125664 -3.93616e-20)
(-4.83379 0.10593 -3.88193e-20)
(-4.97968 0.0860627 -3.83063e-20)
(-5.09304 0.0663221 -7.56485e-20)
(-5.17362 0.0470659 7.47473e-20)
(-5.22185 0.0288892 0)
(-5.23888 0.0125062 0)
(-5.22703 -0.00176769 0)
(-5.1922 -0.014014 7.17146e-20)
(-5.13477 -0.0246061 7.1073e-20)
(-5.05841 -0.0336284 -7.04652e-20)
(-4.96483 -0.0415577 0)
(-4.85576 -0.0485635 6.93264e-20)
(-4.73218 -0.0550433 6.87855e-20)
(-4.59437 -0.0612785 6.82587e-20)
(-4.44224 -0.0674442 0)
(-4.2755 -0.0736017 0)
(-4.09405 -0.079629 0)
(-3.89828 -0.0852819 6.62384e-20)
(-3.68925 -0.0902364 0)
(-3.46879 -0.0941662 0)
(-3.23939 -0.0968098 -6.47312e-20)
(-3.00401 -0.0980213 0)
(-2.76582 -0.097796 0)
(-2.52789 -0.0962785 -6.31402e-20)
(-2.2928 -0.0937394 0)
(-2.06236 -0.0905089 0)
(-1.83757 -0.0869342 6.14359e-20)
(-1.61883 -0.0833507 6.08471e-20)
(-1.406 -0.0799928 0)
(-1.19853 -0.0769812 -5.9648e-20)
(-0.995697 -0.0743591 0)
(-0.796703 -0.0720786 5.84285e-20)
(-0.600958 -0.0699841 0)
(-0.408293 -0.0678888 5.71916e-20)
(-0.219124 -0.0656354 5.65654e-20)
(-0.0344229 -0.0631439 0)
(0.144872 -0.0601761 0)
(0.317735 -0.0566692 0)
(0.482733 -0.052678 0)
(0.638511 -0.0482677 0)
(0.783901 -0.0435194 0)
(0.917934 -0.0385189 0)
(1.03986 -0.033364 5.11994e-20)
(1.14916 -0.0281553 -5.05134e-20)
(1.24556 -0.0229629 0)
(1.329 -0.0178494 0)
(1.39965 -0.012977 0)
(1.45805 -0.00854932 0)
(1.50504 -0.00444577 -9.42358e-20)
(1.54114 -0.000433738 0)
(1.56697 0.00310557 9.15766e-20)
(1.58397 0.00616236 -9.02625e-20)
(1.59211 0.00989649 0)
(1.58996 0.0147039 0)
(1.57719 0.0196986 0)
(1.55366 0.0240366 8.51113e-20)
(1.52018 0.0270626 8.38496e-20)
(1.47846 0.0284543 0)
(1.43069 0.0282403 8.13555e-20)
(1.37925 0.0267369 8.01225e-20)
(1.32647 0.024341 -7.88985e-20)
(1.27442 0.0214318 0)
(1.22474 0.0183469 0)
(1.1786 0.0153568 -7.52791e-20)
(1.13666 0.0126487 0)
(1.09917 0.0103218 0)
(1.06604 0.00839339 0)
(1.03699 0.00682494 0)
(1.01164 0.00555531 6.94139e-20)
(0.989564 0.00452693 6.82647e-20)
(0.970374 0.0036981 0)
(0.953692 0.003043 6.59886e-20)
(0.939172 0.00254576 0)
(0.926499 0.0021918 0)
(0.915381 0.0019626 6.26288e-20)
(0.905569 0.00183276 0)
(0.896816 0.00177546 6.04236e-20)
(0.888942 0.00176444 0)
(0.881733 0.00178263 0)
(0.87508 0.00181444 5.71656e-20)
(0.868761 0.00185662 0)
(0.862765 0.00190066 5.50259e-20)
(0.856777 0.0019575 0)
(0.850953 0.0020199 0)
(0.844731 0.0021162 0)
(0.83858 0.00223775 -5.08216e-20)
(0.831374 0.00246013 0)
(0.824213 0.00273933 4.8757e-20)
(0.814881 0.00316718 0)
(0.805521 0.00361183 0)
(0.792292 0.00440214 0)
(0.77826 0.00507131 0)
(0.75922 0.00671162 0)
(0.733962 0.00733205 0)
(0.711136 0.0114446 0)
(0.651487 0.0096831 -8.15465e-20)
(0.650523 0.022925 0)
(0.480695 0.00893348 0)
(0.0424254 0.381539 -1.29079e-19)
(0.0512462 0.397182 1.28138e-19)
(0.0687771 0.236726 0)
(0.0914977 0.0560699 -8.41791e-20)
(0.139044 -0.0893836 0)
(0.208622 -0.197773 -4.14232e-20)
(0.313968 -0.293909 8.22079e-20)
(0.441255 -0.380622 8.15479e-20)
(0.584139 -0.450483 0)
(0.729663 -0.49417 8.02316e-20)
(0.8693 -0.51011 3.98031e-20)
(0.998781 -0.501464 0)
(1.11622 -0.47458 0)
(1.22035 -0.436983 0)
(1.31107 -0.3952 0)
(1.38969 -0.353978 3.82087e-20)
(1.45818 -0.316245 0)
(1.51857 -0.28352 -7.51481e-20)
(1.57291 -0.256277 0)
(1.62307 -0.23437 0)
(1.67084 -0.217165 7.33404e-20)
(1.71769 -0.203753 0)
(1.76473 -0.193116 -7.21556e-20)
(1.81279 -0.184059 3.57858e-20)
(1.86224 -0.175594 -3.54922e-20)
(1.91324 -0.166315 3.52e-20)
(1.96558 -0.155271 3.49094e-20)
(2.01888 -0.140766 0)
(2.07158 -0.121978 0)
(2.1244 -0.0966064 -3.40482e-20)
(2.17245 -0.0639778 3.37586e-20)
(2.21819 -0.0219149 0)
(2.25841 0.0328821 0)
(2.29434 0.0974824 -3.29318e-20)
(2.31577 0.180673 0)
(2.3251 0.268759 0)
(2.31796 0.381886 3.21176e-20)
(2.285 0.489863 0)
(2.24536 0.607562 -3.15162e-20)
(2.15406 0.726235 6.25611e-20)
(2.05442 0.718151 0)
(1.84693 0.660178 0)
(1.36639 0.563317 1.2201e-19)
(0.900189 0.324238 1.21003e-19)
(0.615225 0.0521929 1.19935e-19)
(0.370775 0.0165388 -5.94272e-20)
(0.19663 0.162411 5.88642e-20)
(0.0687749 0.283025 1.74869e-19)
(-0.0474272 0.319126 -1.15377e-19)
(-0.156328 0.293893 -5.71094e-20)
(-0.241744 0.222745 0)
(-0.282728 0.110612 5.59889e-20)
(-0.273909 -0.0312698 -5.53878e-20)
(-0.230684 -0.180929 0)
(-0.162258 -0.328911 0)
(-0.0339861 -0.455809 0)
(0.157388 -0.442213 5.35397e-20)
(0.346502 -0.276362 0)
(0.497179 -0.195054 -1.05068e-19)
(0.711826 -0.311587 0)
(0.964604 -0.42769 -1.02985e-19)
(1.18761 -0.316074 0)
(1.38774 -0.0969214 1.00893e-19)
(1.58897 -0.20733 0)
(1.57889 -0.374543 -9.89583e-20)
(0.968229 0.0443771 4.90288e-20)
(0.0423239 0.603045 0)
(-0.706061 0.88994 9.60091e-20)
(-1.32019 0.998886 4.7472e-20)
(-1.83495 0.981556 4.68959e-20)
(-2.28239 0.919419 0)
(-2.67946 0.842867 4.54024e-20)
(-3.03449 0.765771 4.4987e-20)
(-3.35429 0.693919 0)
(-3.64453 0.629138 -4.3658e-20)
(-3.90931 0.57113 8.58202e-20)
(-4.15149 0.518611 0)
(-4.37289 0.469876 4.1707e-20)
(-4.57429 0.423262 0)
(-4.75566 0.37726 -1.213e-19)
(-4.91636 0.330717 0)
(-5.05535 0.282972 1.17865e-19)
(-5.17138 0.233937 3.87916e-20)
(-5.26316 0.183992 -3.8176e-20)
(-5.32976 0.133871 -7.54098e-20)
(-5.37092 0.0846141 7.4532e-20)
(-5.38702 0.0374616 0)
(-5.37909 -0.00639229 0)
(-5.3486 -0.0461049 0)
(-5.29432 -0.0811023 -2.14988e-19)
(-5.22072 -0.11154 -7.10588e-20)
(-5.12898 -0.137744 7.04511e-20)
(-5.02165 -0.160599 0)
(-4.90009 -0.181003 6.92503e-20)
(-4.76511 -0.199981 -6.87715e-20)
(-4.61694 -0.218383 -6.82446e-20)
(-4.4552 -0.236731 0)
(-4.27946 -0.2551 0)
(-4.08944 -0.273078 0)
(-3.88545 -0.28987 -6.62234e-20)
(-3.66859 -0.304484 0)
(-3.44078 -0.315949 1.30402e-19)
(-3.20463 -0.323516 1.94105e-19)
(-2.96325 -0.326799 -1.28356e-19)
(-2.71989 -0.325834 0)
(-2.47762 -0.321086 -6.30897e-20)
(-2.23887 -0.313391 0)
(-2.00523 -0.303742 -1.23974e-19)
(-1.77742 -0.293147 6.13916e-20)
(-1.55552 -0.282584 6.08043e-20)
(-1.33906 -0.272739 0)
(-1.12726 -0.263952 1.7889e-19)
(-0.919155 -0.256362 -1.18038e-19)
(-0.713742 -0.249813 -5.8423e-20)
(-0.510344 -0.243831 0)
(-0.308836 -0.237879 -5.71879e-20)
(-0.109708 -0.231485 -1.6967e-19)
(0.0861399 -0.224238 0)
(0.277774 -0.21551 -1.10499e-19)
(0.463914 -0.20527 -1.09163e-19)
(0.642919 -0.19362 -1.07816e-19)
(0.813339 -0.180754 0)
(0.973893 -0.166928 0)
(1.12352 -0.152413 0)
(1.26136 -0.137485 5.11764e-20)
(1.38676 -0.122425 5.04955e-20)
(1.49925 -0.107491 0)
(1.59861 -0.0929228 9.82532e-20)
(1.68511 -0.0789772 9.68943e-20)
(1.75945 -0.0659032 0)
(1.82253 -0.0537669 9.42018e-20)
(1.8757 -0.0425511 1.85729e-19)
(1.92086 -0.0324519 -9.15424e-20)
(1.9587 -0.0233256 -9.02221e-20)
(1.99009 -0.0144122 0)
(2.01737 -0.00532177 0)
(2.04124 0.00382176 0)
(2.06146 0.012776 -8.50684e-20)
(2.07746 0.0211492 8.37968e-20)
(2.08851 0.0284896 1.65088e-19)
(2.09398 0.0343715 -8.13006e-20)
(2.09351 0.0384519 8.00605e-20)
(2.08718 0.0406329 7.88375e-20)
(2.07553 0.0410185 0)
(2.05946 0.0398744 0)
(2.04012 0.0375761 -7.5214e-20)
(2.01877 0.0345313 0)
(1.99662 0.0311134 0)
(1.97471 0.027622 1.43346e-19)
(1.95379 0.0242667 0)
(1.93435 0.0211697 6.93539e-20)
(1.91661 0.0183833 -6.82054e-20)
(1.90062 0.0159138 0)
(1.88634 0.0137421 6.59327e-20)
(1.87365 0.0118391 0)
(1.86245 0.0101743 0)
(1.85262 0.00872165 -6.25766e-20)
(1.84408 0.00746154 1.22944e-19)
(1.83674 0.00638095 -6.03741e-20)
(1.83054 0.00547049 0)
(1.82537 0.00472479 0)
(1.82121 0.00413371 5.71198e-20)
(1.81789 0.0036934 0)
(1.81541 0.00338365 5.49821e-20)
(1.81353 0.00321502 0)
(1.81232 0.0031509 0)
(1.81139 0.00324863 0)
(1.81097 0.00342378 5.07818e-20)
(1.81034 0.0038541 0)
(1.81003 0.00430289 -4.87189e-20)
(1.80884 0.00531924 0)
(1.80746 0.00611881 0)
(1.80453 0.00826191 9.13426e-20)
(1.79978 0.00932796 -8.93377e-20)
(1.79408 0.0138297 0)
(1.78046 0.0144965 0)
(1.77355 0.0243931 0)
(1.73585 0.0219957 2.44421e-19)
(1.74071 0.044854 0)
(1.63721 0.0335952 -1.55319e-19)
(0.0531689 0.032953 -5.88723e-23)
(0.161534 0.120405 -1.70888e-19)
(0.262919 0.0527709 0)
(0.356828 -0.0793209 1.68259e-19)
(0.464005 -0.232248 0)
(0.587463 -0.389507 0)
(0.71677 -0.535415 3.15869e-23)
(0.837314 -0.650971 -8.1423e-20)
(0.937064 -0.722392 -8.0778e-20)
(1.0103 -0.745574 -8.01415e-20)
(1.05791 -0.726516 0)
(1.08351 -0.676639 0)
(1.09161 -0.609285 7.82465e-20)
(1.08785 -0.535832 1.55267e-19)
(1.0774 -0.464363 -1.5405e-19)
(1.06486 -0.399768 0)
(1.05354 -0.344833 -1.51642e-19)
(1.04541 -0.300743 7.52417e-20)
(1.04156 -0.267419 0)
(1.04261 -0.243936 -1.4808e-19)
(1.04913 -0.228827 -7.34586e-20)
(1.06161 -0.22036 1.45729e-19)
(1.08034 -0.216701 7.22811e-20)
(1.10562 -0.215919 0)
(1.13761 -0.216216 -1.42226e-19)
(1.17673 -0.215676 -1.41062e-19)
(1.22279 -0.212741 0)
(1.27647 -0.205286 -1.3874e-19)
(1.3366 -0.192229 0)
(1.40396 -0.171143 -1.3643e-19)
(1.47758 -0.140679 -6.76323e-20)
(1.5561 -0.099972 0)
(1.63948 -0.0450536 0)
(1.72661 0.0215865 0)
(1.81989 0.107819 0)
(1.91454 0.206863 0)
(2.01669 0.324528 0)
(2.11757 0.45132 -1.27292e-19)
(2.21802 0.571376 1.89238e-19)
(2.30941 0.694822 0)
(2.3693 0.751802 0)
(2.38873 0.771585 0)
(2.32344 0.828051 -2.85876e-23)
(2.209 0.860184 -1.20588e-19)
(2.05175 0.831146 -2.38949e-19)
(1.76347 0.747479 2.36846e-19)
(1.42586 0.631213 1.17352e-19)
(1.16123 0.52694 -1.16247e-19)
(0.964955 0.440002 2.25654e-23)
(0.805741 0.351081 -1.13954e-19)
(0.687797 0.230051 0)
(0.607844 0.0671204 -1.11784e-19)
(0.560774 -0.103272 2.49386e-23)
(0.534681 -0.232879 0)
(0.52757 -0.342629 0)
(0.587375 -0.508413 1.07834e-19)
(0.645677 -0.606229 0)
(0.70467 -0.527358 0)
(0.876075 -0.548384 -1.04931e-19)
(1.18295 -0.778914 -2.07672e-19)
(1.49092 -0.829757 1.02827e-19)
(1.65352 -0.675312 0)
(1.66728 -0.517806 -1.00875e-19)
(1.23241 0.0329322 0)
(0.303528 0.836882 -9.88541e-20)
(-0.598204 1.33848 -9.80742e-20)
(-1.27377 1.5278 1.93393e-19)
(-1.75522 1.57124 9.52564e-20)
(-2.12913 1.53134 0)
(-2.43198 1.43822 -1.86193e-19)
(-2.69621 1.32171 0)
(-2.93728 1.20244 -2.72217e-19)
(-3.16474 1.09072 -1.78753e-19)
(-3.3835 0.990357 -1.76223e-19)
(-3.59526 0.901725 1.73685e-19)
(-3.80057 0.822941 -2.56954e-19)
(-3.99866 0.751438 0)
(-4.18837 0.684411 0)
(-4.36787 0.619294 1.63705e-19)
(-4.53493 0.553916 2.42148e-19)
(-4.68691 0.486617 0)
(-4.82084 0.416436 -7.85518e-20)
(-4.93376 0.343255 0)
(-5.023 0.267736 2.29131e-19)
(-5.08651 0.191168 2.97076e-22)
(-5.12322 0.115285 -2.79045e-22)
(-5.13313 0.0418557 -1.47412e-19)
(-5.11717 -0.0273133 0)
(-5.07695 -0.0903487 1.4448e-19)
(-5.01501 -0.146245 1.73527e-22)
(-4.93441 -0.194619 0)
(-4.83795 -0.236277 0)
(-4.72792 -0.27241 0)
(-4.60581 -0.304747 -1.38596e-19)
(-4.47222 -0.334969 0)
(-4.32687 -0.364521 0)
(-4.16888 -0.394255 0)
(-3.99712 -0.424213 0)
(-3.81084 -0.453618 0)
(-3.61006 -0.481027 -1.32329e-19)
(-3.3959 -0.504681 0)
(-3.17059 -0.522898 -1.30408e-19)
(-2.93729 -0.534414 -1.29393e-19)
(-2.69972 -0.538642 1.28359e-19)
(-2.46181 -0.535753 0)
(-2.22719 -0.526667 1.26218e-19)
(-1.99864 -0.512989 0)
(-1.77767 -0.49654 1.23973e-19)
(-1.56477 -0.479021 -1.22816e-19)
(-1.35951 -0.462075 -3.64807e-19)
(-1.1607 -0.446746 0)
(-0.966813 -0.433425 -3.57625e-19)
(-0.776097 -0.422224 -1.17931e-19)
(-0.586973 -0.412785 0)
(-0.398204 -0.404386 -2.31072e-19)
(-0.209416 -0.395949 -2.28605e-19)
(-0.0207845 -0.386656 3.39182e-19)
(0.167086 -0.375318 0)
(0.353184 -0.361321 1.10462e-19)
(0.535966 -0.344652 1.09128e-19)
(0.713709 -0.325472 3.23318e-19)
(0.884699 -0.304149 0)
(1.04733 -0.281108 0)
(1.20015 -0.256761 0)
(1.34193 -0.231489 1.02312e-19)
(1.4716 -0.205657 0)
(1.58829 -0.17968 0)
(1.69127 -0.154153 -9.82318e-20)
(1.77991 -0.129912 -9.68746e-20)
(1.85394 -0.107703 0)
(1.91389 -0.0878549 0)
(1.96155 -0.0705256 -1.85701e-19)
(1.99952 -0.0556482 0)
(2.03039 -0.0426622 1.80429e-19)
(2.05659 -0.031019 1.77814e-19)
(2.08001 -0.0203274 0)
(2.10197 -0.0101614 0)
(2.12336 -0.000477342 -1.70113e-19)
(2.14432 0.00872853 -7.66361e-24)
(2.16447 0.0173191 -6.97648e-24)
(2.18294 0.0249118 0)
(2.19867 0.0311978 -3.20209e-19)
(2.21074 0.0359679 0)
(2.21847 0.0391259 0)
(2.22163 0.0406603 0)
(2.22039 0.040658 1.50398e-19)
(2.21523 0.0393257 0)
(2.20689 0.0369632 -2.91312e-19)
(2.19622 0.0339125 -1.43311e-19)
(2.1841 0.0305049 0)
(2.17136 0.0270182 -1.38672e-19)
(2.15872 0.0236537 0)
(2.14673 0.020535 0)
(2.13575 0.017721 -3.95494e-19)
(2.12599 0.0152264 2.59161e-19)
(2.11753 0.0130384 0)
(2.11034 0.0111287 2.50243e-19)
(2.10434 0.00946035 -1.22913e-19)
(2.09939 0.00799672 0)
(2.09536 0.00670408 0)
(2.09212 0.00556162 0)
(2.08959 0.00455106 -3.42633e-19)
(2.0877 0.003675 0)
(2.08645 0.00291753 -1.09937e-19)
(2.08588 0.00231057 0)
(2.08601 0.00181764 0)
(2.08696 0.00153657 0)
(2.08866 0.00136004 0)
(2.09133 0.00156745 0)
(2.09457 0.00182083 0)
(2.09887 0.00288392 -1.90734e-19)
(2.10302 0.00372113 0)
(2.10852 0.0063468 -9.1319e-20)
(2.11203 0.00777742 2.67934e-19)
(2.11836 0.0134059 0)
(2.11818 0.0149942 0)
(2.12605 0.0267537 -1.66755e-19)
(2.11597 0.0267935 -1.6289e-19)
(2.12918 0.0512553 1.59012e-19)
(2.09707 0.046953 1.55262e-19)
(-0.0128413 -0.0944601 2.58545e-19)
(0.0603834 -0.0828586 2.56638e-19)
(0.200019 -0.188745 1.69759e-19)
(0.373445 -0.377187 8.42276e-20)
(0.544059 -0.571144 0)
(0.683428 -0.727843 -1.65559e-19)
(0.774812 -0.825615 8.21412e-20)
(0.811886 -0.858343 0)
(0.795971 -0.829203 8.08059e-20)
(0.740779 -0.752992 0)
(0.660729 -0.649314 -1.59197e-19)
(0.570652 -0.540288 0)
(0.483669 -0.443461 -7.83916e-20)
(0.409639 -0.368005 -1.55583e-19)
(0.349748 -0.314382 1.54382e-19)
(0.301836 -0.278873 0)
(0.261706 -0.256791 1.51989e-19)
(0.227219 -0.244298 0)
(0.19781 -0.238723 0)
(0.173699 -0.238316 1.48437e-19)
(0.155487 -0.242005 0)
(0.144081 -0.249129 3.38954e-24)
(0.140739 -0.259098 0)
(0.146732 -0.271144 0)
(0.163176 -0.28428 -9.17256e-24)
(0.191154 -0.297184 1.41413e-19)
(0.231326 -0.308255 1.40263e-19)
(0.284669 -0.315594 1.39075e-19)
(0.350888 -0.317722 0)
(0.431197 -0.312048 2.7352e-19)
(0.524632 -0.296983 0)
(0.630513 -0.27084 1.3447e-19)
(0.750052 -0.230633 0)
(0.880602 -0.176117 0)
(1.02595 -0.102821 -1.31034e-19)
(1.18047 -0.014096 0)
(1.34415 0.0897185 1.28726e-19)
(1.51787 0.209125 -4.72849e-23)
(1.69569 0.330852 -2.52727e-19)
(1.88135 0.459431 2.50404e-19)
(2.0617 0.57754 0)
(2.22415 0.672858 0)
(2.35629 0.770721 1.21689e-19)
(2.45042 0.850965 0)
(2.50695 0.894734 1.193e-19)
(2.50658 0.91823 -1.18175e-19)
(2.45258 0.922342 -1.17045e-19)
(2.37185 0.88801 0)
(2.26831 0.803261 1.1473e-19)
(2.13694 0.679418 1.13595e-19)
(2.01018 0.513332 -2.2518e-19)
(1.88276 0.31492 1.11457e-19)
(1.7513 0.0953751 1.10477e-19)
(1.61705 -0.127975 0)
(1.47298 -0.328832 0)
(1.43667 -0.552522 -1.07643e-19)
(1.37502 -0.654204 0)
(1.25231 -0.600574 0)
(1.36314 -0.7827 2.09601e-19)
(1.55419 -1.12982 2.07452e-19)
(1.5617 -1.16392 0)
(1.22016 -0.47458 0)
(0.452151 0.590493 0)
(-0.36278 1.37732 0)
(-1.05584 1.84974 1.9744e-19)
(-1.54577 2.02439 -1.94791e-19)
(-1.87783 2.02571 -1.93017e-19)
(-2.12439 1.95114 -3.80901e-19)
(-2.32285 1.83261 0)
(-2.50156 1.6977 6.50823e-22)
(-2.67422 1.56279 0)
(-2.84944 1.43612 1.81225e-19)
(-3.02806 1.32155 5.89379e-22)
(-3.2102 1.21882 1.76214e-19)
(-3.39377 1.12639 -1.73686e-19)
(-3.57683 1.04167 4.83457e-22)
(-3.75709 0.961788 0)
(-3.93228 0.883902 -1.65735e-19)
(-4.10012 0.805322 -1.63733e-19)
(-4.25812 0.723702 -3.22283e-19)
(-4.40347 0.637245 0)
(-4.53283 0.545007 1.56404e-19)
(-4.64273 0.446979 0)
(-4.72994 0.344203 -3.05003e-19)
(-4.7918 0.238781 1.50833e-19)
(-4.82668 0.133576 -1.49094e-19)
(-4.83401 0.0318267 1.47483e-19)
(-4.8141 -0.0631916 2.91313e-19)
(-4.76922 -0.148754 -1.44536e-19)
(-4.70285 -0.223933 1.43211e-19)
(-4.61865 -0.288513 0)
(-4.52019 -0.343475 -2.81247e-19)
(-4.41007 -0.390597 0)