/*--------------------------------*- C++ -*----------------------------------*\
  =========                 |
  \\      /  F ield         | OpenFOAM: The Open Source CFD Toolbox
   \\    /   O peration     | Website:  https://openfoam.org
    \\  /    A nd           | Version:  7
     \\/     M anipulation  |
\*---------------------------------------------------------------------------*/
FoamFile
{
    version     2.0;
    format      ascii;
    class       volScalarField;
    location    "0.02";
    object      p;
}
// * * * * * * * * * * * * * * * * * * * * * * * * * * * * * * * * * * * * * //

dimensions      [0 2 -2 0 0 0 0];

internalField   nonuniform List<scalar> 
12225
(
-2.14817
-1.56058
-1.49615
-1.54212
-1.47067
-1.36175
-1.27801
-1.21751
-1.16599
-1.11904
-1.07667
-1.0377
-0.999848
-0.960773
-0.918349
-0.869156
-0.813409
-0.733935
-3.52738
-2.28068
-1.73995
-1.59464
-1.47608
-1.35558
-1.26834
-1.20713
-1.15616
-1.11017
-1.06876
-1.03065
-0.993614
-0.955351
-0.914015
-0.866183
-0.81305
-0.73693
-3.26633
-2.07956
-1.62335
-1.53245
-1.44467
-1.33835
-1.2564
-1.19754
-1.14831
-1.10388
-1.06377
-1.0268
-0.990883
-0.953923
-0.914311
-0.869338
-0.820202
-0.758376
-2.82055
-1.97224
-1.60442
-1.51779
-1.43119
-1.32867
-1.24866
-1.19075
-1.14264
-1.09951
-1.06069
-1.02499
-0.990514
-0.955424
-0.918377
-0.877635
-0.834243
-0.786856
-2.52794
-1.95119
-1.61575
-1.50668
-1.41566
-1.31723
-1.23967
-1.18287
-1.13602
-1.09442
-1.05716
-1.0231
-0.990547
-0.957927
-0.924212
-0.888491
-0.851698
-0.815206
-2.32225
-1.91611
-1.60739
-1.48514
-1.39542
-1.30335
-1.22917
-1.17394
-1.1287
-1.08893
-1.05357
-1.02151
-0.9913
-0.961657
-0.931852
-0.901573
-0.871668
-0.844455
-2.14543
-1.85421
-1.58335
-1.45857
-1.37249
-1.28725
-1.21697
-1.16385
-1.12061
-1.08304
-1.04992
-1.02025
-0.992802
-0.966583
-0.941132
-0.916537
-0.893628
-0.874997
-1.98583
-1.77899
-1.55076
-1.42884
-1.34663
-1.2683
-1.20255
-1.15213
-1.11137
-1.07638
-1.0459
-1.01903
-0.994763
-0.972368
-0.95161
-0.932822
-0.916842
-0.90618
-1.84224
-1.69734
-1.51021
-1.39486
-1.31712
-1.24596
-1.18542
-1.13835
-1.10055
-1.06858
-1.04115
-1.01749
-0.996794
-0.978558
-0.962715
-0.949738
-0.94044
-0.937094
-1.71204
-1.61124
-1.46119
-1.35578
-1.28358
-1.21986
-1.16517
-1.12209
-1.08778
-1.05926
-1.03531
-1.01524
-0.998457
-0.984627
-0.973807
-0.966519
-0.963516
-0.966778
-1.59187
-1.52193
-1.40412
-1.31123
-1.24575
-1.18966
-1.14138
-1.10298
-1.07267
-1.04806
-1.02798
-1.01186
-0.999265
-0.990002
-0.9842
-0.982375
-0.985174
-0.994295
-1.48806
-1.43783
-1.34517
-1.26517
-1.20685
-1.15797
-1.11602
-1.0825
-1.05638
-1.03574
-1.01956
-1.00734
-0.99878
-0.993772
-0.992481
-0.995376
-1.00299
-1.01679
-1.38959
-1.35327
-1.28197
-1.21503
-1.16443
-1.12288
-1.08756
-1.05937
-1.03779
-1.02144
-1.0094
-1.00127
-0.996834
-0.996054
-0.999103
-1.00639
-1.01834
-1.03614
-1.28058
-1.25555
-1.20417
-1.15191
-1.11086
-1.07793
-1.05054
-1.02898
-1.01313
-1.00208
-0.995098
-0.991855
-0.992222
-0.996212
-1.00398
-1.01586
-1.03215
-1.05374
-1.15906
-1.14307
-1.10936
-1.07278
-1.04325
-1.02041
-1.00236
-0.988951
-0.980211
-0.975657
-0.97477
-0.977293
-0.983157
-0.992405
-1.00516
-1.02166
-1.04207
-1.06702
-1.02175
-1.01306
-0.994639
-0.974159
-0.958035
-0.946964
-0.939798
-0.936189
-0.936151
-0.939459
-0.945798
-0.954996
-0.967022
-0.981923
-0.99979
-1.02075
-1.04489
-1.0726
-0.863103
-0.860528
-0.855675
-0.851524
-0.850641
-0.853312
-0.858845
-0.866861
-0.877272
-0.889947
-0.90472
-0.921498
-0.940284
-0.961122
-0.98407
-1.00919
-1.0365
-1.06621
-0.673404
-0.676631
-0.684991
-0.698177
-0.714843
-0.733811
-0.754386
-0.776218
-0.799094
-0.822849
-0.847388
-0.872705
-0.898846
-0.925876
-0.953847
-0.982807
-1.01274
-1.04381
-0.434491
-0.44508
-0.469504
-0.503896
-0.542301
-0.581427
-0.620407
-0.658994
-0.696841
-0.733681
-0.769483
-0.804369
-0.838484
-0.871955
-0.90489
-0.937385
-0.969472
-1.00134
-0.180086
-0.200284
-0.245525
-0.305908
-0.369044
-0.4298
-0.487971
-0.543669
-0.596366
-0.64576
-0.692054
-0.735628
-0.776801
-0.815829
-0.852939
-0.888338
-0.922155
-0.954668
0.0511853
0.01953
-0.0507163
-0.139764
-0.227122
-0.307509
-0.382797
-0.453475
-0.518658
-0.5782
-0.632765
-0.683069
-0.729611
-0.772789
-0.812971
-0.850489
-0.885571
-0.91859
0.288532
0.239328
0.133645
0.00955651
-0.102788
-0.202004
-0.293885
-0.378729
-0.455052
-0.523258
-0.584759
-0.640628
-0.691521
-0.737997
-0.780586
-0.819748
-0.855803
-0.889208
0.537256
0.460196
0.304599
0.13994
0.00395501
-0.112843
-0.22089
-0.318799
-0.404606
-0.479958
-0.547177
-0.607579
-0.66194
-0.711
-0.755461
-0.7959
-0.832719
-0.866437
0.803617
0.680611
0.455947
0.24925
0.094395
-0.038809
-0.162938
-0.272444
-0.365781
-0.446773
-0.5186
-0.582603
-0.639639
-0.690661
-0.736539
-0.777943
-0.815341
-0.849291
1.09604
0.899348
0.579623
0.334792
0.169876
0.0218969
-0.118112
-0.237509
-0.336517
-0.421863
-0.497354
-0.564156
-0.62321
-0.6757
-0.72264
-0.764768
-0.802608
-0.836742
1.41978
1.12226
0.677871
0.398493
0.23028
0.0694993
-0.0845551
-0.211581
-0.314749
-0.403527
-0.48193
-0.550885
-0.611463
-0.665061
-0.712808
-0.755483
-0.793662
-0.827924
1.75538
1.33491
0.767223
0.460681
0.281584
0.103875
-0.0615325
-0.193224
-0.299207
-0.390737
-0.471451
-0.542047
-0.603784
-0.65825
-0.706644
-0.749764
-0.788245
-0.822669
2.08981
1.41226
0.812303
0.545615
0.349792
0.138763
-0.0418331
-0.17829
-0.287186
-0.381514
-0.464344
-0.536273
-0.598859
-0.653915
-0.702707
-0.746057
-0.784667
-0.819159
2.70109
1.17259
0.537854
0.44594
0.325708
0.125438
-0.0526839
-0.18469
-0.291091
-0.384901
-0.467742
-0.5396
-0.602027
-0.656887
-0.705432
-0.748429
-0.786555
-0.820698
5.14374
2.19509
0.901331
0.628247
0.422765
0.171207
-0.0310945
-0.172856
-0.283921
-0.380742
-0.465677
-0.538988
-0.602485
-0.6582
-0.707443
-0.750944
-0.789194
-0.822225
-1.73465
-1.74167
-1.76065
-1.7839
-1.80859
-1.84941
-1.89635
-1.92851
-1.9746
-2.04808
-2.10753
-2.16312
-2.24097
-2.32856
-2.42434
-2.52939
-2.64338
-2.76591
-2.89616
-3.03298
-3.17479
-3.31968
-3.46539
-3.60937
-3.74884
-3.88085
-4.00231
-4.11014
-4.20127
-4.27272
-4.3218
-4.34628
-4.34441
-4.31467
-4.25508
-4.16194
-4.03215
-3.86542
-3.66352
-3.42834
-3.16193
-2.86669
-2.54539
-2.20115
-1.83744
-1.45797
-1.0666
-0.667286
-0.263967
0.139532
0.539566
0.932751
1.31602
1.68665
2.04234
2.38114
2.70154
3.00241
3.28299
3.54286
3.78198
4.00081
4.20076
4.38242
4.54543
4.69025
4.81783
4.9292
5.02548
5.10781
5.17731
5.23507
5.28216
5.31961
5.34832
5.36922
5.38314
5.39067
5.39265
5.38896
5.37993
5.3681
5.35114
5.32103
5.2805
5.26882
5.28121
5.27877
5.26802
5.25345
5.23629
5.21765
5.19824
5.17849
5.15872
5.13912
5.11984
5.10099
5.08264
5.06483
5.04761
5.031
5.01502
4.99967
4.98496
4.97086
4.95738
4.9445
4.9322
4.92043
4.90917
4.89839
4.88813
4.87834
4.86898
4.86006
4.85153
4.84336
4.83555
4.82809
4.82096
4.81414
4.8076
4.8013
4.79525
4.78942
4.78381
4.77841
4.77319
4.76812
4.76321
4.75844
4.75381
4.7493
4.74488
4.74055
4.7363
4.73213
4.72803
4.72397
4.71997
4.716
4.71207
4.70818
4.70431
4.70046
4.69664
4.69283
4.68905
4.68528
4.68152
4.67777
4.67403
4.6703
4.66659
4.66289
4.65922
4.65557
4.65196
4.64839
4.64489
4.64147
4.63816
4.635
4.63202
4.6293
4.6269
4.62493
4.62353
4.62289
4.62324
4.62494
4.62847
4.63453
4.6442
4.65908
4.68218
4.71764
4.77823
4.86257
-1.68937
-1.70726
-1.72685
-1.74286
-1.76212
-1.78461
-1.8066
-1.84073
-1.89103
-1.93475
-1.98766
-2.06653
-2.15559
-2.25074
-2.35458
-2.46834
-2.59208
-2.72542
-2.86747
-3.01688
-3.17189
-3.33035
-3.48978
-3.64743
-3.8004
-3.9456
-4.07989
-4.20003
-4.30283
-4.38512
-4.44383
-4.47597
-4.47877
-4.44979
-4.38749
-4.29111
-4.16289
-4.003
-3.81057
-3.58588
-3.33017
-3.04534
-2.73387
-2.39866
-2.04301
-1.67049
-1.28489
-0.890076
-0.489938
-0.08828
0.311256
0.705266
1.09065
1.46464
1.82486
2.16933
2.49646
2.80506
3.09431
3.36372
3.61302
3.84207
4.05065
4.23925
4.40896
4.56069
4.69535
4.81391
4.9174
5.00683
5.08324
5.14774
5.20138
5.24518
5.28015
5.30705
5.32676
5.34035
5.34887
5.35412
5.35573
5.35173
5.3467
5.34878
5.35664
5.33838
5.30021
5.27333
5.2519
5.23222
5.21339
5.19488
5.17651
5.15821
5.14005
5.12208
5.10437
5.087
5.07001
5.05346
5.03738
5.02178
5.00671
4.99216
4.97816
4.96471
4.9518
4.93939
4.92749
4.9161
4.90521
4.89483
4.88496
4.87546
4.86635
4.85764
4.84931
4.84135
4.83372
4.82639
4.81937
4.81262
4.80614
4.79993
4.79396
4.78821
4.78266
4.7773
4.77211
4.76709
4.76222
4.75749
4.75287
4.74836
4.74396
4.73965
4.73542
4.73126
4.72716
4.72311
4.71912
4.71516
4.71124
4.70735
4.70349
4.69965
4.69583
4.69203
4.68825
4.68448
4.68072
4.67698
4.67325
4.66953
4.66582
4.66213
4.65845
4.65481
4.6512
4.64763
4.64413
4.64071
4.6374
4.63423
4.63126
4.62853
4.62613
4.62415
4.62274
4.62206
4.62237
4.62401
4.62742
4.63329
4.6426
4.65678
4.67843
4.71044
4.76261
4.83014
-1.60885
-1.64695
-1.68278
-1.70761
-1.72879
-1.75371
-1.78336
-1.82132
-1.87108
-1.92965
-1.99679
-2.07899
-2.17436
-2.2809
-2.39831
-2.52583
-2.66242
-2.80695
-2.95813
-3.11442
-3.27412
-3.4353
-3.59587
-3.75356
-3.90596
-4.0505
-4.18449
-4.30515
-4.40964
-4.49509
-4.55871
-4.5977
-4.60936
-4.59099
-4.54031
-4.4572
-4.34034
-4.18972
-4.00548
-3.78827
-3.53936
-3.26062
-2.95445
-2.62372
-2.27167
-1.90188
-1.5181
-1.12423
-0.724167
-0.321753
0.0793351
0.475651
0.864043
1.24171
1.60622
1.95555
2.28806
2.60253
2.89808
3.17418
3.43049
3.66687
3.88344
4.08068
4.25922
4.41976
4.56311
4.69019
4.80195
4.89938
4.98352
5.05542
5.11613
5.16663
5.20789
5.24075
5.26612
5.28493
5.298
5.30617
5.30976
5.30921
5.30638
5.30297
5.29905
5.28795
5.26981
5.25331
5.23726
5.22083
5.20399
5.18678
5.16933
5.15176
5.1342
5.11675
5.0995
5.08254
5.06592
5.04971
5.03393
5.01863
5.00381
4.98952
4.97575
4.96251
4.9498
4.9376
4.92591
4.91472
4.90401
4.89376
4.88382
4.87437
4.86536
4.85673
4.84848
4.84058
4.833
4.82574
4.81877
4.81209
4.80567
4.79951
4.79358
4.78786
4.78235
4.77702
4.77187
4.76688
4.76203
4.75731
4.75271
4.74823
4.74384
4.73955
4.73533
4.73117
4.72709
4.72305
4.71906
4.71511
4.71119
4.70731
4.70345
4.69961
4.6958
4.692
4.68821
4.68445
4.68069
4.67695
4.67321
4.66949
4.66578
4.66208
4.65841
4.65476
4.65114
4.64757
4.64406
4.64062
4.6373
4.63411
4.63111
4.62835
4.62591
4.62389
4.62241
4.62164
4.62183
4.62329
4.62645
4.63192
4.64059
4.65365
4.67315
4.7008
4.74207
4.78548
-1.54513
-1.59891
-1.65129
-1.6889
-1.72031
-1.75408
-1.79414
-1.84308
-1.9028
-1.97371
-2.05583
-2.14972
-2.25505
-2.37123
-2.49757
-2.6332
-2.77715
-2.92834
-3.0856
-3.24757
-3.41277
-3.57952
-3.74593
-3.9099
-4.06912
-4.22106
-4.36297
-4.49195
-4.60498
-4.69897
-4.77087
-4.8177
-4.83665
-4.82519
-4.78128
-4.70364
-4.59127
-4.44368
-4.26097
-4.04388
-3.79374
-3.51252
-3.20272
-2.86733
-2.50976
-2.13371
-1.74312
-1.34203
-0.93449
-0.524487
-0.115822
0.287957
0.683618
1.0683
1.43955
1.79531
2.13395
2.45424
2.75533
3.03664
3.29792
3.5392
3.76092
3.96353
4.1475
4.31347
4.46224
4.59469
4.71175
4.81442
4.9037
4.98062
5.04618
5.10139
5.14718
5.18446
5.21412
5.23704
5.25401
5.26583
5.27314
5.27653
5.27684
5.27495
5.2707
5.26262
5.25034
5.23629
5.22158
5.20629
5.19048
5.17424
5.15769
5.14097
5.1242
5.1075
5.09095
5.07464
5.05863
5.04299
5.02774
5.01293
4.99857
4.9847
4.97132
4.95845
4.94607
4.93418
4.92276
4.91181
4.90131
4.89123
4.88156
4.87234
4.8635
4.85504
4.84693
4.83916
4.83171
4.82457
4.81771
4.81113
4.8048
4.79871
4.79285
4.7872
4.78175
4.77648
4.77138
4.76643
4.76163
4.75695
4.75239
4.74794
4.74358
4.7393
4.73511
4.73097
4.7269
4.72288
4.71891
4.71497
4.71106
4.70719
4.70333
4.69951
4.6957
4.69191
4.68813
4.68436
4.68061
4.67687
4.67313
4.66941
4.6657
4.662
4.65832
4.65467
4.65104
4.64746
4.64393
4.64048
4.63713
4.63391
4.63087
4.62806
4.62555
4.62344
4.62184
4.62092
4.6209
4.62205
4.62478
4.6296
4.63727
4.64869
4.66528
4.68769
4.71797
4.74378
-1.53014
-1.59588
-1.66146
-1.71103
-1.7537
-1.79823
-1.84899
-1.90852
-1.97837
-2.05927
-2.15154
-2.25515
-2.36964
-2.49443
-2.62888
-2.77231
-2.92393
-3.08283
-3.24796
-3.4181
-3.59186
-3.76762
-3.94354
-4.11753
-4.28724
-4.45005
-4.60312
-4.74337
-4.86757
-4.97239
-5.05451
-5.11066
-5.13778
-5.1331
-5.09442
-5.02013
-4.90905
-4.76064
-4.57503
-4.35304
-4.09618
-3.80658
-3.48699
-3.14065
-2.77121
-2.38267
-1.97921
-1.56515
-1.1448
-0.722343
-0.301775
0.11321
0.519283
0.913528
1.29348
1.65711
2.00286
2.32956
2.63642
2.92297
3.18904
3.43487
3.66095
3.86774
4.05581
4.22587
4.37871
4.51523
4.63637
4.74309
4.83639
4.91728
4.98674
5.04575
5.09524
5.13612
5.16925
5.19548
5.2156
5.23037
5.24045
5.24642
5.24892
5.24855
5.24538
5.2389
5.22924
5.21757
5.20466
5.19082
5.17626
5.16112
5.14557
5.12975
5.11381
5.09786
5.08202
5.06636
5.05096
5.03587
5.02115
5.00683
4.99293
4.97949
4.96651
4.954
4.94196
4.93038
4.91926
4.90859
4.89834
4.88851
4.87909
4.87006
4.8614
4.8531
4.84515
4.83753
4.83022
4.8232
4.81646
4.80998
4.80375
4.79775
4.79198
4.78641
4.78102
4.77582
4.77078
4.76588
4.76113
4.7565
4.75198
4.74756
4.74323
4.73899
4.73482
4.73071
4.72666
4.72266
4.7187
4.71477
4.71088
4.70702
4.70318
4.69936
4.69556
4.69177
4.688
4.68424
4.68049
4.67675
4.67302
4.6693
4.66558
4.66188
4.6582
4.65453
4.65089
4.64729
4.64375
4.64027
4.63689
4.63363
4.63053
4.62765
4.62504
4.62281
4.62105
4.61991
4.61959
4.62034
4.6225
4.62648
4.63288
4.64232
4.65562
4.67262
4.69336
4.70677
-1.57694
-1.64794
-1.72044
-1.77835
-1.83011
-1.88391
-1.94395
-2.01253
-2.09109
-2.1804
-2.28075
-2.39217
-2.51437
-2.64694
-2.78937
-2.9411
-3.10142
-3.26952
-3.44445
-3.62506
-3.81002
-3.99773
-4.18635
-4.37372
-4.5574
-4.73463
-4.90233
-5.05719
-5.19567
-5.31409
-5.40876
-5.47606
-5.51255
-5.51513
-5.48132
-5.40932
-5.29777
-5.14612
-4.95456
-4.72406
-4.45634
-4.15385
-3.81962
-3.45725
-3.07077
-2.66454
-2.24311
-1.81117
-1.37335
-0.934151
-0.497808
-0.0682127
0.35118
0.7574
1.14799
1.52098
1.87493
2.20879
2.52191
2.81398
3.08506
3.33552
3.56586
3.77667
3.96862
4.14248
4.2991
4.43939
4.56429
4.67478
4.77184
4.85646
4.9296
4.99222
5.04524
5.08953
5.12596
5.15534
5.17843
5.19597
5.20858
5.21686
5.22136
5.22257
5.22071
5.21583
5.20823
5.19853
5.18728
5.17485
5.16151
5.14746
5.1329
5.11798
5.10287
5.08769
5.07255
5.05755
5.04276
5.02825
5.01407
5.00025
4.98682
4.97382
4.96125
4.94912
4.93744
4.9262
4.91539
4.90501
4.89504
4.88547
4.87628
4.86747
4.85902
4.85091
4.84314
4.83568
4.82851
4.82163
4.81502
4.80866
4.80254
4.79665
4.79097
4.78549
4.78018
4.77505
4.77008
4.76525
4.76055
4.75597
4.75149
4.74712
4.74283
4.73862
4.73448
4.7304
4.72638
4.7224
4.71846
4.71455
4.71067
4.70682
4.703
4.69919
4.6954
4.69162
4.68786
4.68411
4.68036
4.67662
4.67289
4.66917
4.66545
4.66174
4.65805
4.65437
4.65072
4.6471
4.64353
4.64002
4.63659
4.63328
4.63011
4.62714
4.62442
4.62203
4.62007
4.61866
4.61799
4.61824
4.61971
4.62271
4.62766
4.63493
4.64484
4.6567
4.66943
4.67353
-1.67501
-1.74537
-1.81874
-1.88066
-1.93821
-1.99852
-2.06532
-2.14075
-2.22615
-2.3223
-2.42957
-2.54803
-2.67757
-2.81793
-2.96877
-3.12962
-3.29989
-3.47888
-3.66568
-3.85923
-4.05819
-4.26096
-4.46563
-4.66997
-4.87136
-5.06681
-5.253
-5.42626
-5.58263
-5.71801
-5.82822
-5.90916
-5.95694
-5.96802
-5.93959
-5.86965
-5.75668
-5.60012
-5.40027
-5.15833
-4.87632
-4.55703
-4.20392
-3.82102
-3.4128
-2.98409
-2.53991
-2.0854
-1.62562
-1.16547
-0.709523
-0.261924
0.173712
0.594345
0.997539
1.38144
1.74472
2.08654
2.40645
2.70442
2.98076
3.23593
3.47055
3.68535
3.8811
4.05867
4.21894
4.36288
4.49143
4.60559
4.70633
4.79462
4.87141
4.93762
4.99416
5.04188
5.08162
5.11416
5.14025
5.16056
5.17574
5.18636
5.19295
5.19598
5.19578
5.19261
5.18683
5.17889
5.16923
5.1582
5.1461
5.13317
5.11962
5.10563
5.09136
5.07697
5.06255
5.04823
5.03407
5.02015
5.00652
4.99321
4.98027
4.96773
4.95559
4.94386
4.93255
4.92166
4.91119
4.90111
4.89143
4.88213
4.8732
4.86462
4.85639
4.84849
4.8409
4.83362
4.82662
4.81989
4.81342
4.8072
4.8012
4.79542
4.78984
4.78445
4.77924
4.77419
4.76929
4.76453
4.75989
4.75537
4.75095
4.74662
4.74238
4.73821
4.7341
4.73005
4.72606
4.7221
4.71819
4.7143
4.71044
4.70661
4.7028
4.699
4.69522
4.69146
4.6877
4.68395
4.68021
4.67648
4.67275
4.66903
4.66531
4.66159
4.65789
4.6542
4.65053
4.64689
4.64328
4.63973
4.63625
4.63287
4.62962
4.62654
4.62368
4.62111
4.61892
4.61721
4.61611
4.61581
4.6165
4.61842
4.62182
4.62685
4.63346
4.6406
4.64664
4.64361
-1.80526
-1.87099
-1.94095
-2.00336
-2.06378
-2.12809
-2.19948
-2.27988
-2.37058
-2.47239
-2.58576
-2.71089
-2.84779
-2.99635
-3.15633
-3.32739
-3.50906
-3.70069
-3.90147
-4.11036
-4.32603
-4.54686
-4.77089
-4.99574
-5.21862
-5.43629
-5.64507
-5.84086
-6.01921
-6.17545
-6.30478
-6.40248
-6.46409
-6.48552
-6.46358
-6.39605
-6.28125
-6.11866
-5.90875
-5.653
-5.35384
-5.01448
-4.63884
-4.23145
-3.7973
-3.34174
-2.87034
-2.38879
-1.90269
-1.41745
-0.938086
-0.469086
-0.0142794
0.423203
0.840953
1.23725
1.61095
1.96147
2.28874
2.59302
2.87478
3.13471
3.37361
3.59233
3.79179
3.97293
4.13674
4.2842
4.41631
4.53406
4.63842
4.73034
4.81076
4.88058
4.94068
4.99189
5.03501
5.07079
5.09996
5.12317
5.14105
5.15416
5.16302
5.16811
5.16982
5.1685
5.16454
5.15833
5.15026
5.14067
5.12987
5.11811
5.10562
5.09259
5.07922
5.06564
5.05199
5.03836
5.02486
5.01155
4.99849
4.98573
4.97329
4.96122
4.94952
4.93822
4.9273
4.91678
4.90665
4.8969
4.88752
4.87851
4.86985
4.86152
4.85353
4.84584
4.83846
4.83136
4.82454
4.81798
4.81166
4.80558
4.79972
4.79406
4.7886
4.78332
4.7782
4.77324
4.76842
4.76373
4.75917
4.75471
4.75034
4.74607
4.74187
4.73775
4.73368
4.72967
4.7257
4.72178
4.71789
4.71402
4.71019
4.70637
4.70258
4.6988
4.69503
4.69128
4.68753
4.68379
4.68006
4.67633
4.6726
4.66887
4.66515
4.66143
4.65771
4.65401
4.65032
4.64665
4.64301
4.63941
4.63588
4.63242
4.62908
4.62588
4.62286
4.62009
4.61763
4.61557
4.61402
4.61311
4.61297
4.61375
4.61555
4.61835
4.62183
4.62476
4.62524
4.61671
-1.9479
-2.00648
-2.07026
-2.13064
-2.19177
-2.25821
-2.33263
-2.41673
-2.51175
-2.61851
-2.73757
-2.86923
-3.01364
-3.17083
-3.34068
-3.52297
-3.71731
-3.92315
-4.13975
-4.36612
-4.60094
-4.8426
-5.08904
-5.33778
-5.5858
-5.82957
-6.06502
-6.28752
-6.49201
-6.6731
-6.82527
-6.94302
-7.02118
-7.05505
-7.04097
-6.97654
-6.85989
-6.69065
-6.46955
-6.19845
-5.8802
-5.51851
-5.11778
-4.68304
-4.21978
-3.73389
-3.23155
-2.71906
-2.20269
-1.68849
-1.18207
-0.6884
-0.211597
0.245054
0.679143
1.08914
1.47421
1.8342
2.16931
2.4801
2.76737
3.03204
3.2751
3.4976
3.7006
3.88515
4.05232
4.20316
4.33868
4.45989
4.56776
4.66325
4.74726
4.82068
4.88435
4.93908
4.98563
5.02474
5.05709
5.08332
5.10405
5.11981
5.13114
5.13851
5.14234
5.14304
5.14099
5.13657
5.13016
5.12209
5.11266
5.10214
5.09078
5.07879
5.06635
5.05364
5.04079
5.02791
5.01509
5.00242
4.98996
4.97776
4.96586
4.95428
4.94306
4.93219
4.92169
4.91155
4.90179
4.89238
4.88332
4.87461
4.86623
4.85818
4.85043
4.84298
4.83582
4.82892
4.82229
4.81591
4.80976
4.80383
4.79811
4.79258
4.78724
4.78207
4.77706
4.7722
4.76747
4.76287
4.75837
4.75398
4.74968
4.74547
4.74132
4.73724
4.73322
4.72925
4.72532
4.72142
4.71756
4.71372
4.70991
4.70612
4.70234
4.69858
4.69483
4.69108
4.68735
4.68362
4.67989
4.67616
4.67243
4.66871
4.66498
4.66125
4.65752
4.6538
4.65009
4.64639
4.64271
4.63907
4.63547
4.63193
4.62849
4.62515
4.62196
4.61897
4.61623
4.6138
4.61176
4.61019
4.60919
4.6088
4.60902
4.60967
4.61025
4.60946
4.60535
4.59255
-2.08443
-2.13433
-2.19023
-2.24688
-2.3072
-2.37448
-2.45085
-2.53783
-2.63654
-2.74784
-2.87236
-3.01051
-3.16259
-3.32874
-3.50899
-3.70322
-3.91116
-4.13238
-4.36619
-4.61168
-4.86757
-5.13223
-5.40356
-5.67893
-5.95512
-6.22826
-6.49382
-6.74657
-6.98074
-7.19009
-7.36821
-7.50873
-7.60568
-7.65366
-7.64857
-7.58785
-7.46959
-7.29365
-7.06115
-6.7744
-6.43675
-6.05234
-5.62599
-5.1631
-4.66957
-4.15174
-3.61632
-3.07029
-2.5207
-1.97439
-1.43782
-0.916663
-0.415471
0.0622595
0.514158
0.939037
1.33639
1.70631
2.04952
2.36693
2.65965
2.92889
3.17591
3.40196
3.60824
3.79596
3.96626
4.12023
4.25896
4.38345
4.49468
4.5936
4.68111
4.75805
4.82525
4.88349
4.9335
4.97598
5.01158
5.04094
5.06463
5.08321
5.09717
5.107
5.11313
5.11599
5.11597
5.11345
5.10879
5.10232
5.09435
5.08516
5.075
5.06411
5.05268
5.0409
5.02889
5.0168
5.00472
4.99273
4.98091
4.9693
4.95796
4.9469
4.93617
4.92576
4.9157
4.90597
4.89659
4.88754
4.87883
4.87044
4.86236
4.85459
4.8471
4.8399
4.83297
4.82629
4.81987
4.81367
4.8077
4.80193
4.79637
4.79099
4.78578
4.78073
4.77584
4.77108
4.76645
4.76193
4.75752
4.7532
4.74897
4.74482
4.74073
4.7367
4.73272
4.72879
4.7249
4.72104
4.71721
4.7134
4.70961
4.70584
4.70208
4.69834
4.6946
4.69088
4.68715
4.68343
4.67971
4.67599
4.67226
4.66853
4.6648
4.66107
4.65733
4.65359
4.64985
4.64612
4.6424
4.6387
4.63503
4.63141
4.62785
4.62437
4.62101
4.61778
4.61473
4.61191
4.60936
4.60713
4.60525
4.60369
4.60237
4.60099
4.59893
4.59488
4.58698
4.57083
-2.19835
-2.23883
-2.28598
-2.33785
-2.39632
-2.46355
-2.54116
-2.63041
-2.73236
-2.84786
-2.97759
-3.1221
-3.28179
-3.45695
-3.64773
-3.85415
-4.07607
-4.31314
-4.5648
-4.8302
-5.10811
-5.3969
-5.69442
-5.99791
-6.30393
-6.60824
-6.90579
-7.19071
-7.45639
-7.69568
-7.90116
-8.06554
-8.18199
-8.24448
-8.24857
-8.19171
-8.07217
-7.89024
-7.64749
-7.34676
-6.99179
-6.58707
-6.13765
-5.64905
-5.12727
-4.57887
-4.01096
-3.43116
-2.84739
-2.26755
-1.69918
-1.14891
-0.621879
-0.121716
0.349189
0.789689
1.19973
1.57989
1.93122
2.2551
2.55303
2.82657
3.07724
3.3065
3.51576
3.70632
3.87944
4.03628
4.17794
4.30547
4.41985
4.52201
4.61285
4.69319
4.76382
4.8255
4.87893
4.92477
4.96367
4.9962
5.02295
5.04443
5.06114
5.07357
5.08215
5.08729
5.08941
5.08888
5.08606
5.08129
5.07486
5.06709
5.05822
5.0485
5.03815
5.02735
5.01626
5.005
4.9937
4.98243
4.97128
4.96031
4.94956
4.93906
4.92884
4.91893
4.90932
4.90003
4.89106
4.88239
4.87404
4.86599
4.85823
4.85075
4.84355
4.83661
4.82992
4.82348
4.81727
4.81128
4.80549
4.7999
4.7945
4.78928
4.78421
4.7793
4.77452
4.76988
4.76535
4.76092
4.7566
4.75236
4.7482
4.74412
4.74009
4.73612
4.73219
4.7283
4.72445
4.72063
4.71683
4.71305
4.70929
4.70555
4.70181
4.69809
4.69437
4.69066
4.68695
4.68324
4.67952
4.67581
4.67208
4.66835
4.66462
4.66087
4.65712
4.65336
4.6496
4.64583
4.64207
4.63832
4.63458
4.63086
4.62719
4.62356
4.62
4.61653
4.61317
4.60995
4.60688
4.60398
4.60122
4.59853
4.59572
4.59244
4.588
4.58113
4.57009
4.55128
-2.27577
-2.30705
-2.34517
-2.3916
-2.44754
-2.5141
-2.59237
-2.68339
-2.78811
-2.90737
-3.04191
-3.19236
-3.35925
-3.543
-3.74389
-3.96207
-4.19752
-4.45002
-4.71909
-5.00394
-5.30342
-5.61589
-5.93913
-6.27025
-6.60554
-6.9404
-7.26921
-7.58542
-7.88155
-8.14951
-8.38091
-8.56756
-8.7019
-8.77747
-8.78976
-8.73648
-8.61638
-8.43022
-8.18011
-7.86929
-7.50184
-7.08237
-6.6159
-6.10771
-5.56356
-4.98987
-4.39391
-3.78377
-3.16828
-2.55655
-1.95726
-1.37796
-0.824721
-0.301815
0.188289
0.644568
1.06722
1.45731
1.8164
2.14634
2.44906
2.72646
2.98035
3.21243
3.42426
3.6173
3.79288
3.95224
4.09652
4.2268
4.34405
4.44923
4.54318
4.62674
4.70066
4.76566
4.82242
4.87157
4.91373
4.94945
4.97927
5.00371
5.02326
5.03836
5.04947
5.057
5.06135
5.0629
5.062
5.05899
5.0542
5.04791
5.04041
5.03194
5.02273
5.01298
5.00285
4.99248
4.982
4.97151
4.96108
4.95077
4.94065
4.93074
4.92107
4.91167
4.90256
4.89372
4.88518
4.87692
4.86895
4.86125
4.85383
4.84667
4.83977
4.83311
4.82668
4.82048
4.8145
4.80872
4.80314
4.79774
4.79252
4.78745
4.78254
4.77776
4.77312
4.76859
4.76417
4.75985
4.75562
4.75147
4.74739
4.74337
4.73941
4.73549
4.73162
4.72778
4.72397
4.72019
4.71643
4.71268
4.70895
4.70523
4.70153
4.69782
4.69412
4.69043
4.68673
4.68303
4.67933
4.67562
4.6719
4.66817
4.66442
4.66067
4.65691
4.65313
4.64934
4.64554
4.64173
4.63792
4.63411
4.6303
4.6265
4.62272
4.61897
4.61525
4.61157
4.60795
4.60436
4.60079
4.59717
4.59338
4.58918
4.58415
4.57758
4.56826
4.55461
4.53367
-2.30498
-2.32969
-2.35871
-2.39935
-2.45224
-2.51757
-2.59593
-2.68816
-2.79506
-2.91746
-3.05612
-3.21176
-3.385
-3.57638
-3.78631
-4.01504
-4.26267
-4.52906
-4.81383
-5.11624
-5.43515
-5.76889
-6.11516
-6.47089
-6.83211
-7.19379
-7.5498
-7.89288
-8.21481
-8.50664
-8.75922
-8.96371
-9.11211
-9.19788
-9.21686
-9.16716
-9.04807
-8.86086
-8.608
-8.29308
-7.9203
-7.49423
-7.01958
-6.50122
-5.94446
-5.35516
-4.74005
-4.10722
-3.46608
-2.82688
-2.19971
-1.59354
-1.01568
-0.47126
0.0368749
0.507799
0.942051
1.34115
1.70717
2.04242
2.34926
2.62992
2.88649
3.12089
3.33485
3.52993
3.70758
3.86908
4.01563
4.14832
4.26815
4.37604
4.47287
4.55941
4.63642
4.70458
4.76455
4.81691
4.86225
4.90111
4.934
4.9614
4.9838
5.00162
5.01531
5.02528
5.03191
5.03559
5.03667
5.0355
5.03239
5.02766
5.02158
5.01442
5.00641
4.99777
4.98866
4.97924
4.96963
4.95995
4.95028
4.94068
4.93122
4.92193
4.91285
4.904
4.89539
4.88704
4.87895
4.87112
4.86355
4.85624
4.84917
4.84235
4.83576
4.82939
4.82324
4.81731
4.81157
4.80602
4.80065
4.79545
4.79041
4.78552
4.78076
4.77614
4.77163
4.76723
4.76292
4.75871
4.75458
4.75052
4.74652
4.74258
4.73868
4.73483
4.73101
4.72723
4.72346
4.71972
4.716
4.71229
4.70859
4.70491
4.70122
4.69754
4.69387
4.69019
4.68651
4.68282
4.67912
4.67542
4.6717
4.66797
4.66423
4.66047
4.65669
4.65289
4.64908
4.64524
4.64139
4.63752
4.63363
4.62972
4.6258
4.62187
4.61792
4.61395
4.60996
4.60593
4.60182
4.5976
4.59315
4.58832
4.58282
4.57619
4.56773
4.5563
4.54048
4.51782
-2.28318
-2.29849
-2.3201
-2.35565
-2.40538
-2.46907
-2.54703
-2.63986
-2.74828
-2.87303
-3.0149
-3.17466
-3.35301
-3.55057
-3.76784
-4.00517
-4.26273
-4.54044
-4.83795
-5.15454
-5.48902
-5.83968
-6.20406
-6.5789
-6.95992
-7.34173
-7.71774
-8.08018
-8.42028
-8.72863
-8.99569
-9.21242
-9.37082
-9.46461
-9.49015
-9.44574
-9.33112
-9.14783
-8.89858
-8.58705
-8.21745
-7.79413
-7.32141
-6.80351
-6.24478
-5.65014
-5.0257
-4.37928
-3.72062
-3.06089
-2.41166
-1.7836
-1.18537
-0.622998
-0.0997685
0.383365
0.827201
1.23366
1.60526
1.94473
2.25478
2.53795
2.79657
3.03273
3.24832
3.445
3.62429
3.78754
3.93599
4.07075
4.19283
4.30315
4.40257
4.49186
4.57174
4.64287
4.70587
4.7613
4.80972
4.85163
4.88753
4.91786
4.94308
4.96363
4.97991
4.99233
5.00127
5.00711
5.01021
5.0109
5.00953
5.00639
5.00179
4.99599
4.98924
4.98175
4.97371
4.96528
4.95659
4.94776
4.93889
4.93004
4.92127
4.91264
4.90417
4.8959
4.88784
4.88
4.87239
4.86501
4.85786
4.85095
4.84425
4.83778
4.83152
4.82547
4.81962
4.81395
4.80847
4.80316
4.79802
4.79303
4.78818
4.78347
4.77889
4.77442
4.77006
4.76579
4.76161
4.75751
4.75348
4.74951
4.7456
4.74174
4.73792
4.73413
4.73037
4.72664
4.72293
4.71923
4.71555
4.71188
4.70822
4.70456
4.70091
4.69725
4.6936
4.68994
4.68627
4.6826
4.67891
4.67522
4.6715
4.66777
4.66403
4.66026
4.65647
4.65265
4.64881
4.64494
4.64104
4.63711
4.63314
4.62914
4.6251
4.62101
4.61686
4.61265
4.60834
4.60392
4.59932
4.59446
4.58923
4.58341
4.5767
4.56863
4.55849
4.54524
4.5276
4.50354
-2.20876
-2.21446
-2.22861
-2.25906
-2.30544
-2.36708
-2.44407
-2.53685
-2.64599
-2.77219
-2.91621
-3.07883
-3.26078
-3.46274
-3.68526
-3.92871
-4.1933
-4.47895
-4.78529
-5.11155
-5.45647
-5.81821
-6.19416
-6.58085
-6.97377
-7.36726
-7.75448
-8.12742
-8.47716
-8.79424
-9.06917
-9.2931
-9.45834
-9.55897
-9.59169
-9.55477
-9.44832
-9.27394
-9.03436
-8.73322
-8.37455
-7.96238
-7.50052
-6.99244
-6.44152
-5.85166
-5.22808
-4.57812
-3.91168
-3.2407
-2.57804
-1.93582
-1.324
-0.749485
-0.216023
0.275352
0.725598
1.13692
1.51216
1.85435
2.16645
2.45121
2.71113
2.94844
3.16512
3.36294
3.54345
3.70808
3.85807
3.99456
4.11857
4.23103
4.33277
4.42456
4.50708
4.58098
4.64683
4.70519
4.75655
4.80141
4.84022
4.87341
4.90142
4.92464
4.94349
4.95835
4.9696
4.97761
4.98274
4.98532
4.9857
4.9842
4.9811
4.9767
4.97124
4.96495
4.95802
4.95062
4.9429
4.93496
4.92692
4.91885
4.91082
4.90288
4.89505
4.88739
4.87989
4.87259
4.86548
4.85858
4.85188
4.84538
4.83909
4.83299
4.82708
4.82135
4.8158
4.81043
4.80522
4.80016
4.79526
4.79049
4.78585
4.78133
4.77692
4.77262
4.7684
4.76428
4.76023
4.75625
4.75233
4.74846
4.74464
4.74086
4.73711
4.73339
4.7297
4.72603
4.72237
4.71872
4.71508
4.71145
4.70782
4.7042
4.70057
4.69695
4.69332
4.68968
4.68603
4.68237
4.6787
4.67501
4.6713
4.66757
4.66382
4.66005
4.65624
4.65241
4.64854
4.64464
4.64069
4.6367
4.63266
4.62857
4.6244
4.62016
4.61582
4.61136
4.60675
4.60194
4.59686
4.59141
4.58543
4.5787
4.57089
4.56151
4.54989
4.53507
4.51591
4.49069
-2.08351
-2.07816
-2.08478
-2.11016
-2.15285
-2.21188
-2.28725
-2.37928
-2.48842
-2.61527
-2.76051
-2.92488
-3.1091
-3.3138
-3.53952
-3.78661
-4.05519
-4.34516
-4.65603
-4.98694
-5.33649
-5.70267
-6.08274
-6.47305
-6.86897
-7.26477
-7.65363
-8.02767
-8.37824
-8.69625
-8.97268
-9.19919
-9.36851
-9.47506
-9.51575
-9.48893
-9.39478
-9.23463
-9.01102
-8.72726
-8.38702
-7.99385
-7.55089
-7.06081
-6.526
-5.94936
-5.33524
-4.6906
-4.02542
-3.3524
-2.6855
-2.03802
-1.42093
-0.841771
-0.304607
0.189509
0.641665
1.05425
1.4303
1.77298
2.08538
2.37036
2.63049
2.86805
3.08509
3.2834
3.4646
3.63011
3.78122
3.91906
4.04467
4.15896
4.26276
4.3568
4.44175
4.51823
4.58678
4.64792
4.70213
4.74985
4.79151
4.82752
4.85828
4.88418
4.90559
4.9229
4.93648
4.94668
4.95386
4.95837
4.96055
4.96072
4.95918
4.95623
4.95212
4.94708
4.94132
4.93501
4.92829
4.92131
4.91416
4.90692
4.89967
4.89245
4.88532
4.8783
4.87142
4.86469
4.85812
4.85173
4.8455
4.83946
4.83358
4.82788
4.82234
4.81696
4.81175
4.80668
4.80176
4.79697
4.79232
4.78779
4.78337
4.77905
4.77483
4.7707
4.76665
4.76267
4.75876
4.75491
4.7511
4.74734
4.74362
4.73992
4.73626
4.73261
4.72899
4.72537
4.72177
4.71818
4.71459
4.711
4.70741
4.70382
4.70023
4.69663
4.69302
4.68941
4.68578
4.68213
4.67847
4.67479
4.67109
4.66737
4.66361
4.65983
4.65602
4.65216
4.64827
4.64433
4.64034
4.6363
4.63219
4.628
4.62371
4.61932
4.6148
4.61011
4.6052
4.60003
4.59449
4.58847
4.58179
4.57422
4.5654
4.55486
4.54195
4.52577
4.50533
4.47916
-1.91985
-1.90226
-1.9011
-1.92127
-1.95965
-2.01522
-2.08813
-2.17862
-2.287
-2.41372
-2.55935
-2.72449
-2.90976
-3.11566
-3.34262
-3.59086
-3.8604
-4.15097
-4.46196
-4.79234
-5.14058
-5.5045
-5.88126
-6.26715
-6.65756
-7.04689
-7.42859
-7.79522
-8.13872
-8.45069
-8.72288
-8.94762
-9.11824
-9.22965
-9.27899
-9.26407
-9.18494
-9.04258
-8.83913
-8.57742
-8.26052
-7.89134
-7.47228
-7.00515
-6.49146
-5.93329
-5.33446
-4.70182
-4.04572
-3.37957
-2.71814
-2.07545
-1.46286
-0.888105
-0.355187
0.134951
0.583511
0.99295
1.3663
1.70673
2.01727
2.30075
2.55969
2.79637
3.01281
3.21081