/*--------------------------------*- C++ -*----------------------------------*\
  =========                 |
  \\      /  F ield         | OpenFOAM: The Open Source CFD Toolbox
   \\    /   O peration     | Website:  https://openfoam.org
    \\  /    A nd           | Version:  7
     \\/     M anipulation  |
\*---------------------------------------------------------------------------*/
FoamFile
{
    version     2.0;
    format      ascii;
    class       surfaceScalarField;
    location    "0.02";
    object      phi;
}
// * * * * * * * * * * * * * * * * * * * * * * * * * * * * * * * * * * * * * //

dimensions      [0 3 -1 0 0 0 0];

internalField   nonuniform List<scalar> 
24170
(
1.4294e-06
1.64804e-07
1.33497e-06
9.44332e-08
1.2549e-06
8.0061e-08
1.18862e-06
6.62822e-08
1.13739e-06
5.12357e-08
1.09727e-06
4.01189e-08
1.0653e-06
3.19727e-08
1.03936e-06
2.59361e-08
1.01783e-06
2.15311e-08
9.9941e-07
1.84183e-08
9.83147e-07
1.6263e-08
9.68343e-07
1.48041e-08
9.5445e-07
1.38931e-08
9.40951e-07
1.34982e-08
9.2735e-07
1.3601e-08
9.12533e-07
1.48174e-08
8.97056e-07
1.54771e-08
2.51836e-08
8.71872e-07
1.67124e-06
2.02189e-07
1.63002e-06
1.35655e-07
1.58769e-06
1.22386e-07
1.54934e-06
1.04634e-07
1.51519e-06
8.5383e-08
1.48441e-06
7.09032e-08
1.45648e-06
5.98979e-08
1.43135e-06
5.10727e-08
1.40882e-06
4.40553e-08
1.38859e-06
3.86509e-08
1.37027e-06
3.45798e-08
1.35349e-06
3.15844e-08
1.33789e-06
2.95019e-08
1.32307e-06
2.83146e-08
1.30872e-06
2.79542e-08
1.29433e-06
2.92023e-08
1.27926e-06
3.05431e-08
4.03199e-08
1.26413e-06
1.781e-06
2.52446e-07
1.75652e-06
1.60135e-07
1.73569e-06
1.43216e-07
1.71656e-06
1.23763e-07
1.698e-06
1.0395e-07
1.6798e-06
8.90944e-08
1.66207e-06
7.76358e-08
1.64504e-06
6.80974e-08
1.62889e-06
6.02052e-08
1.61364e-06
5.38984e-08
1.59924e-06
4.89867e-08
1.58555e-06
4.52713e-08
1.57242e-06
4.26329e-08
1.55965e-06
4.10882e-08
1.54697e-06
4.06303e-08
1.53429e-06
4.18793e-08
1.52062e-06
4.42196e-08
5.16067e-08
1.50933e-06
1.91824e-06
2.96904e-07
1.89249e-06
1.85878e-07
1.87591e-06
1.59804e-07
1.86256e-06
1.37108e-07
1.85028e-06
1.16225e-07
1.8386e-06
1.00781e-07
1.8273e-06
8.89363e-08
1.81633e-06
7.90675e-08
1.80569e-06
7.08442e-08
1.79538e-06
6.42112e-08
1.78536e-06
5.90056e-08
1.77557e-06
5.50591e-08
1.76592e-06
5.22824e-08
1.7563e-06
5.07069e-08
1.74655e-06
5.03806e-08
1.7367e-06
5.17321e-08
1.72631e-06
5.46069e-08
6.06667e-08
1.71725e-06
2.06814e-06
3.32327e-07
2.04068e-06
2.13337e-07
2.02383e-06
1.76652e-07
2.01148e-06
1.49459e-07
2.00116e-06
1.26545e-07
1.99211e-06
1.09836e-07
1.98385e-06
9.71941e-08
1.97608e-06
8.68334e-08
1.96865e-06
7.82774e-08
1.96146e-06
7.13996e-08
1.95445e-06
6.60208e-08
1.94753e-06
6.1976e-08
1.94063e-06
5.91825e-08
1.93367e-06
5.76639e-08
1.92657e-06
5.74824e-08
1.9194e-06
5.89083e-08
1.91205e-06
6.19562e-08
6.73156e-08
1.9054e-06
2.22657e-06
3.60302e-07
2.19956e-06
2.40347e-07
2.18211e-06
1.94099e-07
2.16947e-06
1.62104e-07
2.15942e-06
1.36596e-07
2.15115e-06
1.18099e-07
2.14409e-06
1.04257e-07
2.13779e-06
9.31382e-08
2.13197e-06
8.4091e-08
2.12649e-06
7.68801e-08
2.12123e-06
7.12821e-08
2.11609e-06
6.71137e-08
2.111e-06
6.42792e-08
2.10588e-06
6.27763e-08
2.10072e-06
6.26489e-08
2.09558e-06
6.40474e-08
2.09052e-06
6.70153e-08
7.18048e-08
2.08603e-06
2.39433e-06
3.82331e-07
2.36928e-06
2.654e-07
2.3517e-06
2.11674e-07
2.33857e-06
1.75237e-07
2.3282e-06
1.46967e-07
2.31993e-06
1.26367e-07
2.31317e-06
1.11019e-07
2.30741e-06
9.88952e-08
2.30233e-06
8.91715e-08
2.29772e-06
8.14918e-08
2.29343e-06
7.55721e-08
2.28935e-06
7.11949e-08
2.28539e-06
6.82353e-08
2.28151e-06
6.6653e-08
2.27771e-06
6.64534e-08
2.27406e-06
6.76935e-08
2.2707e-06
7.03832e-08
7.45648e-08
2.26794e-06
2.57268e-06
3.99442e-07
2.55027e-06
2.87808e-07
2.53313e-06
2.2882e-07
2.51975e-06
1.88615e-07
2.50901e-06
1.57708e-07
2.50047e-06
1.34902e-07
2.49363e-06
1.17866e-07
2.48797e-06
1.04549e-07
2.48316e-06
9.39843e-08
2.47895e-06
8.56974e-08
2.47519e-06
7.9338e-08
2.47174e-06
7.46439e-08
2.46852e-06
7.14505e-08
2.46551e-06
6.96715e-08
2.4627e-06
6.92632e-08
2.46018e-06
7.02068e-08
2.45811e-06
7.24581e-08
7.59513e-08
2.45672e-06
2.76261e-06
4.12504e-07
2.74309e-06
3.07324e-07
2.72688e-06
2.45024e-07
2.71368e-06
2.01818e-07
2.7028e-06
1.68591e-07
2.69404e-06
1.43659e-07
2.68703e-06
1.24882e-07
2.68131e-06
1.10266e-07
2.67655e-06
9.87392e-08
2.67252e-06
8.97266e-08
2.66905e-06
8.28142e-08
2.666e-06
7.76918e-08
2.6633e-06
7.41489e-08
2.66092e-06
7.20495e-08
2.65889e-06
7.12978e-08
2.65728e-06
7.18114e-08
2.65625e-06
7.34928e-08
7.62144e-08
2.65599e-06
2.96505e-06
4.22343e-07
2.94844e-06
3.23937e-07
2.93357e-06
2.59887e-07
2.92099e-06
2.14407e-07
2.91032e-06
1.79261e-07
2.90156e-06
1.52418e-07
2.89448e-06
1.31961e-07
2.88872e-06
1.16023e-07
2.88399e-06
1.03469e-07
2.88007e-06
9.3647e-08
2.8768e-06
8.60884e-08
2.87405e-06
8.04364e-08
2.87177e-06
7.64342e-08
2.86992e-06
7.38965e-08
2.86854e-06
7.26772e-08
2.86771e-06
7.26412e-08
2.86756e-06
7.36459e-08
7.55266e-08
2.86825e-06
3.18107e-06
4.2968e-07
3.16723e-06
3.37774e-07
3.15395e-06
2.73163e-07
3.14233e-06
2.26029e-07
3.13225e-06
1.89346e-07
3.1238e-06
1.60867e-07
3.11688e-06
1.38875e-07
3.11124e-06
1.21662e-07
3.10664e-06
1.08073e-07
3.10289e-06
9.74012e-08
3.09984e-06
8.91332e-08
3.0974e-06
8.28723e-08
3.09552e-06
7.83183e-08
3.09418e-06
7.52407e-08
3.09341e-06
7.34487e-08
3.09328e-06
7.27654e-08
3.09391e-06
7.30129e-08
7.40071e-08
3.09543e-06
2.86568e-06
4.34421e-07
2.856e-06
3.47449e-07
2.84607e-06
2.83095e-07
2.83716e-06
2.34938e-07
2.82934e-06
1.97169e-07
2.82268e-06
1.67521e-07
2.81718e-06
1.44377e-07
2.81269e-06
1.26156e-07
2.80904e-06
1.1172e-07
2.80611e-06
1.00329e-07
2.80381e-06
9.14388e-08
2.80206e-06
8.46241e-08
2.80082e-06
7.95523e-08
2.8001e-06
7.59597e-08
2.79993e-06
7.36239e-08
2.80035e-06
7.23396e-08
2.80146e-06
7.19109e-08
7.21352e-08
2.80333e-06
3.49493e-06
4.38572e-07
3.48583e-06
3.56542e-07
3.47608e-06
2.9285e-07
3.46711e-06
2.43908e-07
3.45912e-06
2.05154e-07
3.45227e-06
1.74373e-07
3.44659e-06
1.50064e-07
3.44195e-06
1.30789e-07
3.43823e-06
1.15439e-07
3.43532e-06
1.03247e-07
3.43311e-06
9.36431e-08
3.43156e-06
8.61725e-08
3.43064e-06
8.04719e-08
3.43036e-06
7.6246e-08
3.43074e-06
7.3243e-08
3.43184e-06
7.12342e-08
3.43375e-06
7.00087e-08
6.93571e-08
3.43652e-06
4.26198e-06
4.42015e-07
4.25395e-06
3.64573e-07
4.24492e-06
3.01877e-07
4.23646e-06
2.52371e-07
4.22888e-06
2.12737e-07
4.22235e-06
1.80896e-07
4.21697e-06
1.55449e-07
4.21265e-06
1.35107e-07
4.20929e-06
1.18803e-07
4.20678e-06
1.05754e-07
4.20506e-06
9.5363e-08
4.20408e-06
8.71488e-08
4.20383e-06
8.07202e-08
4.20433e-06
7.57537e-08
4.2056e-06
7.19734e-08
4.2077e-06
6.91337e-08
4.21069e-06
6.70145e-08
6.54108e-08
4.21464e-06
5.19696e-06
4.44661e-07
5.1905e-06
3.71041e-07
5.1829e-06
3.09471e-07
5.1757e-06
2.59574e-07
5.1693e-06
2.19137e-07
5.16388e-06
1.86319e-07
5.15953e-06
1.59799e-07
5.15622e-06
1.38411e-07
5.15388e-06
1.21148e-07
5.15241e-06
1.07217e-07
5.15178e-06
9.59962e-08
5.15195e-06
8.69815e-08
5.15291e-06
7.97576e-08
5.15469e-06
7.39783e-08
5.15731e-06
6.93503e-08
5.16082e-06
6.5619e-08
5.16528e-06
6.25624e-08
5.99869e-08
5.1707e-06
6.33665e-06
4.4641e-07
6.33228e-06
3.75411e-07
6.32703e-06
3.14715e-07
6.32214e-06
2.64464e-07
6.31802e-06
2.23261e-07
6.31479e-06
1.89545e-07
6.31254e-06
1.62051e-07
6.31125e-06
1.39695e-07
6.31088e-06
1.21522e-07
6.31136e-06
1.06738e-07
6.31265e-06
9.47019e-08
6.31475e-06
8.48888e-08
6.31764e-06
7.68647e-08
6.32135e-06
7.02684e-08
6.3259e-06
6.4797e-08
6.33133e-06
6.01936e-08
6.33765e-06
5.62412e-08
5.27613e-08
6.34488e-06
7.72591e-06
4.47087e-07
7.72436e-06
3.76964e-07
7.72274e-06
3.16337e-07
7.7217e-06
2.655e-07
7.72146e-06
2.23498e-07
7.72205e-06
1.88962e-07
7.72345e-06
1.60649e-07
7.72565e-06
1.37495e-07
7.7286e-06
1.1857e-07
7.73226e-06
1.03078e-07
7.73661e-06
9.0357e-08
7.74163e-06
7.98649e-08
7.74734e-06
7.11555e-08
7.75375e-06
6.38601e-08
7.76087e-06
5.76737e-08
7.76872e-06
5.23435e-08
7.7773e-06
4.76622e-08
4.34676e-08
7.78659e-06
9.41961e-06
4.46291e-07
9.42216e-06
3.74422e-07
9.4262e-06
3.12295e-07
9.43148e-06
2.60222e-07
9.43769e-06
2.17283e-07
9.4446e-06
1.82051e-07
9.45206e-06
1.53194e-07
9.45996e-06
1.29595e-07
9.46824e-06
1.10293e-07
9.47686e-06
9.44607e-08
9.4858e-06
8.14084e-08
9.49509e-06
7.05762e-08
9.50474e-06
6.15097e-08
9.51476e-06
5.38387e-08
9.52517e-06
4.72623e-08
9.53598e-06
4.15368e-08
9.54717e-06
3.64669e-08
3.19063e-08
9.55873e-06
1.14851e-05
4.42835e-07
1.14947e-05
3.64867e-07
1.15084e-05
2.98555e-07
1.15245e-05
2.44165e-07
1.15416e-05
2.00174e-07
1.1559e-05
1.64586e-07
1.15765e-05
1.35775e-07
1.15936e-05
1.12471e-07
1.16103e-05
9.3586e-08
1.16266e-05
7.81978e-08
1.16424e-05
6.55651e-08
1.16579e-05
5.51064e-08
1.1673e-05
4.63612e-08
1.16879e-05
3.8962e-08
1.17025e-05
3.26165e-08
1.1717e-05
2.70942e-08
1.17312e-05
2.22144e-08
1.78443e-08
1.17453e-05
8.41029e-06
4.37895e-07
8.42335e-06
3.51808e-07
8.44125e-06
2.80654e-07
8.46108e-06
2.24339e-07
8.48125e-06
1.80005e-07
8.50106e-06
1.44774e-07
8.52011e-06
1.16727e-07
8.53815e-06
9.44279e-08
8.55512e-06
7.66188e-08
8.57105e-06
6.22664e-08
8.58602e-06
5.05902e-08
8.60013e-06
4.10009e-08
8.61345e-06
3.30388e-08
8.62607e-06
2.63434e-08
8.63805e-06
2.06342e-08
8.64945e-06
1.56945e-08
8.66031e-06
1.1357e-08
7.49978e-09
8.67065e-06
7.32411e-06
4.3107e-07
7.34189e-06
3.34031e-07
7.36507e-06
2.57473e-07
7.38948e-06
1.99928e-07
7.41346e-06
1.56027e-07
7.43641e-06
1.21817e-07
7.45794e-06
9.52038e-08
7.47781e-06
7.45491e-08
7.49607e-06
5.83597e-08
7.51284e-06
4.54955e-08
7.52827e-06
3.51636e-08
7.54249e-06
2.67826e-08
7.55563e-06
1.99021e-08
7.56779e-06
1.41749e-08
7.57909e-06
9.33827e-09
7.58959e-06
5.19255e-09
7.59936e-06
1.58601e-09
-1.5918e-09
7.60845e-06
6.37945e-06
4.2169e-07
6.40281e-06
3.10663e-07
6.4312e-06
2.29089e-07
6.45937e-06
1.71752e-07
6.48617e-06
1.29231e-07
6.51125e-06
9.67332e-08
6.53422e-06
7.22416e-08
6.55494e-06
5.38236e-08
6.5736e-06
3.96969e-08
6.59044e-06
2.86599e-08
6.60566e-06
1.99483e-08
6.61943e-06
1.30036e-08
6.63194e-06
7.3929e-09
6.64333e-06
2.79147e-09
6.65371e-06
-1.03987e-09
6.66318e-06
-4.27913e-09
6.67182e-06
-7.06043e-09
-9.47988e-09
6.67971e-06
5.5585e-06
4.08656e-07
5.58853e-06
2.80636e-07
5.62184e-06
1.95772e-07
5.65291e-06
1.40688e-07
5.68161e-06
1.0053e-07
5.70783e-06
7.05061e-08
5.7312e-06
4.88716e-08
5.7518e-06
3.32249e-08
5.76999e-06
2.15063e-08
5.78611e-06
1.25403e-08
5.80043e-06
5.63127e-09
5.81318e-06
2.55938e-10
5.82456e-06
-3.98979e-09
5.83475e-06
-7.39728e-09
5.84388e-06
-1.01745e-08
5.85208e-06
-1.24744e-08
5.85943e-06
-1.44104e-08
-1.60632e-08
5.86601e-06
4.84601e-06
3.90253e-07
4.88367e-06
2.42976e-07
4.92101e-06
1.58434e-07
4.95378e-06
1.07921e-07
4.98329e-06
7.10152e-08
5.00947e-06
4.43253e-08
5.03206e-06
2.628e-08
5.05147e-06
1.38137e-08
5.06827e-06
4.71025e-09
5.08288e-06
-2.06612e-09
5.09562e-06
-7.10867e-09
5.10676e-06
-1.0891e-08
5.11655e-06
-1.37737e-08
5.12516e-06
-1.60046e-08
5.13274e-06
-1.77552e-08
5.13941e-06
-1.91502e-08
5.14528e-06
-2.02804e-08
-2.12105e-08
5.15043e-06
4.22841e-06
3.64519e-07
4.27442e-06
1.96968e-07
4.31402e-06
1.18828e-07
4.34683e-06
7.51116e-08
4.37575e-06
4.21022e-08
4.40054e-06
1.95316e-08
4.4212e-06
5.62335e-09
4.43849e-06
-3.47938e-09
4.45313e-06
-9.93351e-09
4.4656e-06
-1.45379e-08
4.47626e-06
-1.77632e-08
4.48539e-06
-2.00201e-08
4.49323e-06
-2.16135e-08
4.49997e-06
-2.27426e-08
4.50575e-06
-2.35406e-08
4.51071e-06
-2.41046e-08
4.51493e-06
-2.45025e-08
-2.47855e-08
4.5185e-06
3.69264e-06
3.30517e-07
3.7473e-06
1.42309e-07
3.78728e-06
7.88469e-08
3.81854e-06
4.38571e-08
3.84537e-06
1.52758e-08
3.86754e-06
-2.64128e-09
3.88536e-06
-1.21948e-08
3.89987e-06
-1.79898e-08
3.91182e-06
-2.18824e-08
3.92168e-06
-2.44058e-08
3.92983e-06
-2.59129e-08
3.93656e-06
-2.67455e-08
3.94209e-06
-2.71482e-08
3.94662e-06
-2.72707e-08
3.95029e-06
-2.72093e-08
3.95322e-06
-2.70346e-08
3.95551e-06
-2.67915e-08
-2.65185e-08
3.95724e-06
3.2281e-06
2.87447e-07
3.28961e-06
8.08029e-08
3.32853e-06
3.99293e-08
3.35748e-06
1.49013e-08
3.38106e-06
-8.30441e-09
3.39951e-06
-2.10926e-08
3.41365e-06
-2.63269e-08
3.42461e-06
-2.89581e-08
3.43312e-06
-3.03915e-08
3.43964e-06
-3.09213e-08
3.44453e-06
-3.08069e-08
3.44811e-06
-3.03217e-08
3.45061e-06
-2.96471e-08
3.45222e-06
-2.88811e-08
3.45309e-06
-2.8082e-08
3.45335e-06
-2.72931e-08
3.4531e-06
-2.65363e-08
-2.58426e-08
3.45242e-06
2.83347e-06
2.26711e-07
2.89257e-06
2.16986e-08
2.92709e-06
5.41539e-09
2.95282e-06
-1.08305e-08
2.97215e-06
-2.76397e-08
2.98554e-06
-3.44808e-08
2.99452e-06
-3.53061e-08
3.00018e-06
-3.46182e-08
3.00333e-06
-3.3546e-08
3.00456e-06
-3.21503e-08
3.00432e-06
-3.05663e-08
3.00297e-06
-2.89641e-08
3.00076e-06
-2.74379e-08
2.9979e-06
-2.60201e-08
2.99453e-06
-2.47214e-08
2.9908e-06
-2.35556e-08
2.98678e-06
-2.25207e-08
-2.16284e-08
2.98257e-06
2.52552e-06
1.14999e-07
2.55893e-06
-1.17104e-08
2.57788e-06
-1.35417e-08
2.59248e-06
-2.54246e-08
2.60163e-06
-3.67938e-08
2.60453e-06
-3.73802e-08
2.6026e-06
-3.33731e-08
2.59733e-06
-2.93502e-08
2.58992e-06
-2.61384e-08
2.58126e-06
-2.34849e-08
2.57191e-06
-2.12228e-08
2.56225e-06
-1.93023e-08
2.55249e-06
-1.7679e-08
2.54277e-06
-1.63008e-08
2.53318e-06
-1.51264e-08
2.52377e-06
-1.41441e-08
2.5146e-06
-1.33593e-08
-1.3026e-08
2.506e-06
2.21634e-06
2.20463e-06
2.19108e-06
2.16566e-06
2.12887e-06
2.09149e-06
2.05811e-06
2.02876e-06
2.00262e-06
1.97914e-06
1.95792e-06
1.93861e-06
1.92094e-06
1.90463e-06
1.88951e-06
1.87536e-06
1.86201e-06
1.84898e-06
3.73312e-08
-3.73312e-08
4.35542e-08
-6.22296e-09
2.82693e-08
1.52849e-08
-2.95192e-09
3.12212e-08
-4.32437e-08
4.02918e-08
-8.82623e-08
4.50186e-08
-1.39847e-07
5.1585e-08
-1.99092e-07
5.92451e-08
-2.6313e-07
6.40381e-08
-3.40158e-07
7.70277e-08
-4.30593e-07
9.04344e-08
-5.24659e-07
9.40666e-08
-6.25611e-07
1.00952e-07
-7.37828e-07
1.12217e-07
-8.5915e-07
1.21323e-07
-9.87914e-07
1.28764e-07
-1.12254e-06
1.34621e-07
-1.26137e-06
1.38839e-07
-1.40278e-06
1.41406e-07
-1.54511e-06
1.42334e-07
-1.68678e-06
1.41661e-07
-1.82622e-06
1.39446e-07
-1.96199e-06
1.3577e-07
-2.09272e-06
1.30725e-07
-2.21712e-06
1.24405e-07
-2.33403e-06
1.16906e-07
-2.44235e-06
1.08324e-07
-2.5411e-06
9.87524e-08
-2.62938e-06
8.8278e-08
-2.70637e-06
7.69855e-08
-2.77132e-06
6.49567e-08
-2.8236e-06
5.22714e-08
-2.86263e-06
3.90394e-08
-2.88804e-06
2.54044e-08
-2.89951e-06
1.14742e-08
-2.89807e-06
-1.44666e-09
-2.88461e-06
-1.34552e-08
-2.85964e-06
-2.49672e-08
-2.82357e-06
-3.60772e-08
-2.77669e-06
-4.68734e-08
-2.71933e-06
-5.73611e-08
-2.65183e-06
-6.75025e-08
-2.57459e-06
-7.72399e-08
-2.48808e-06
-8.65075e-08
-2.39284e-06
-9.52392e-08
-2.28947e-06
-1.03373e-07
-2.17862e-06
-1.10852e-07
-2.06099e-06
-1.17631e-07
-1.93732e-06
-1.23671e-07
-1.80837e-06
-1.28947e-07
-1.67493e-06
-1.33442e-07
-1.53778e-06
-1.37152e-07
-1.3977e-06
-1.40081e-07
-1.25545e-06
-1.42244e-07
-1.11179e-06
-1.43663e-07
-9.67424e-07
-1.44364e-07
-8.23048e-07
-1.44376e-07
-6.79322e-07
-1.43726e-07
-5.36883e-07
-1.42439e-07
-3.96345e-07
-1.40538e-07
-2.58301e-07
-1.38044e-07
-1.23226e-07
-1.35075e-07
8.88541e-09
-1.32112e-07
1.37979e-07
-1.29093e-07
2.6364e-07
-1.25661e-07
3.85543e-07
-1.21903e-07
5.03442e-07
-1.17899e-07
6.17141e-07
-1.13699e-07
7.26502e-07
-1.09362e-07
8.31488e-07
-1.04986e-07
9.32119e-07
-1.00631e-07
1.02838e-06
-9.62636e-08
1.12029e-06
-9.19123e-08
1.20788e-06
-8.75866e-08
1.29102e-06
-8.31422e-08
1.37002e-06
-7.90009e-08
1.44505e-06
-7.5021e-08
1.51634e-06
-7.12976e-08
1.58399e-06
-6.7651e-08
1.64571e-06
-6.17199e-08
1.7014e-06
-5.56816e-08
1.7548e-06
-5.34e-08
1.80455e-06
-4.97571e-08
1.8437e-06
-3.91469e-08
1.87028e-06
-2.65843e-08
1.89871e-06
-2.84258e-08
1.93537e-06
-3.66573e-08
1.97156e-06
-3.61975e-08
2.00495e-06
-3.33838e-08
2.03465e-06
-2.97068e-08
2.06077e-06
-2.61138e-08
2.08363e-06
-2.28586e-08
2.1036e-06
-1.99728e-08
2.12103e-06
-1.7428e-08
2.13621e-06
-1.51793e-08
2.14939e-06
-1.31847e-08
2.1608e-06
-1.14099e-08
2.17063e-06
-9.82728e-09
2.17904e-06
-8.41174e-09
2.18618e-06
-7.14136e-09
2.19219e-06
-6.00419e-09
2.19719e-06
-4.99886e-09
2.20131e-06
-4.12208e-09
2.20466e-06
-3.35428e-09
2.20732e-06
-2.66298e-09
2.20935e-06
-2.02079e-09
2.21077e-06
-1.42076e-09
2.21164e-06
-8.77242e-10
2.21203e-06
-3.8548e-10
2.21192e-06
1.04627e-10
2.21136e-06
5.63505e-10
2.21041e-06
9.49305e-10
2.20918e-06
1.22964e-09
2.20771e-06
1.47532e-09
2.20602e-06
1.68937e-09
2.20414e-06
1.8809e-09
2.20208e-06
2.0536e-09
2.19988e-06
2.1998e-09
2.19757e-06
2.31087e-09
2.19518e-06
2.38801e-09
2.19274e-06
2.44455e-09
2.19024e-06
2.49969e-09
2.18768e-06
2.56463e-09
2.18504e-06
2.63432e-09
2.18235e-06
2.69391e-09
2.17961e-06
2.73505e-09
2.17685e-06
2.76418e-09
2.17405e-06
2.79424e-09
2.17122e-06
2.83093e-09
2.16835e-06
2.8679e-09
2.16546e-06
2.89566e-09
2.16255e-06
2.91337e-09
2.15962e-06
2.92981e-09
2.15666e-06
2.95373e-09
2.15368e-06
2.98397e-09
2.15067e-06
3.01158e-09
2.14764e-06
3.03068e-09
2.14459e-06
3.0451e-09
2.14153e-06
3.06238e-09
2.13844e-06
3.08444e-09
2.13534e-06
3.1063e-09
2.13221e-06
3.12398e-09
2.12907e-06
3.1404e-09
2.12591e-06
3.16118e-09
2.12273e-06
3.18703e-09
2.11951e-06
3.21309e-09
2.11628e-06
3.23585e-09
2.11302e-06
3.25746e-09
2.10974e-06
3.28221e-09
2.10643e-06
3.31108e-09
2.10308e-06
3.34216e-09
2.09971e-06
3.37498e-09
2.0963e-06
3.41135e-09
2.09284e-06
3.45211e-09
2.08935e-06
3.49595e-09
2.08581e-06
3.5423e-09
2.08221e-06
3.59416e-09
2.07856e-06
3.65562e-09
2.07483e-06
3.72779e-09
2.07102e-06
3.80878e-09
2.06712e-06
3.89825e-09
2.06312e-06
4.00018e-09
2.059e-06
4.12104e-09
2.05473e-06
4.2665e-09
2.05029e-06
4.44231e-09
2.04563e-06
4.65733e-09
2.04071e-06
4.92492e-09
2.03545e-06
5.26217e-09
2.02976e-06
5.69105e-09
2.02351e-06
6.24365e-09
2.01654e-06
6.96923e-09
2.0086e-06
7.94207e-09
1.99932e-06
9.2766e-09
1.98817e-06
1.11594e-08
1.97424e-06
1.3925e-08
1.95606e-06
1.81818e-08
1.93068e-06
2.53744e-08
1.89294e-06
3.77474e-08
1.82612e-06
6.6813e-08
1.09054e-07
1.71707e-06
-3.22408e-08
-5.09041e-09
-7.70847e-08
3.86209e-08
-1.35119e-07
7.33192e-08
-2.04144e-07
1.00246e-07
-2.8551e-07
1.21658e-07
-3.78784e-07
1.38293e-07
-4.81593e-07
1.54394e-07
-5.93214e-07
1.70866e-07
-7.15703e-07
1.86527e-07
-8.41431e-07
2.02756e-07
-9.7006e-07
2.19063e-07
-1.10731e-06
2.31313e-07
-1.24801e-06
2.41657e-07
-1.38699e-06
2.51191e-07
-1.52425e-06
2.58587e-07
-1.65891e-06
2.63419e-07
-1.78989e-06
2.65606e-07
-1.91619e-06
2.65139e-07
-2.03689e-06
2.62103e-07
-2.15121e-06
2.56652e-07
-2.25852e-06
2.48978e-07
-2.35837e-06
2.39295e-07
-2.45042e-06
2.2782e-07
-2.53446e-06
2.14765e-07
-2.61038e-06
2.0032e-07
-2.67813e-06
1.84656e-07
-2.73773e-06
1.67924e-07
-2.78923e-06
1.50253e-07
-2.83271e-06
1.31758e-07
-2.86827e-06
1.12544e-07
-2.89603e-06
9.27173e-08
-2.91615e-06
7.23907e-08
-2.9288e-06
5.16921e-08
-2.93414e-06
3.07462e-08
-2.93248e-06
9.81266e-09
-2.92241e-06
-1.1514e-08
-2.90301e-06
-3.28584e-08
-2.87368e-06
-5.42963e-08
-2.83413e-06
-7.56222e-08
-2.78435e-06
-9.66602e-08
-2.72446e-06
-1.17247e-07
-2.65474e-06
-1.37222e-07
-2.57555e-06
-1.56428e-07
-2.48735e-06
-1.74713e-07
-2.39065e-06
-1.91935e-07
-2.28606e-06
-2.07966e-07
-2.17422e-06
-2.22695e-07
-2.05582e-06
-2.36028e-07
-1.9316e-06
-2.47894e-07
-1.8023e-06
-2.58242e-07
-1.6687e-06
-2.67046e-07
-1.53155e-06
-2.74301e-07
-1.39161e-06
-2.80023e-07
-1.2496e-06
-2.84247e-07
-1.10624e-06
-2.87026e-07
-9.62178e-07
-2.88426e-07
-8.18032e-07
-2.88522e-07
-6.74364e-07
-2.87395e-07
-5.31674e-07
-2.85129e-07
-3.904e-07
-2.81812e-07
-2.50897e-07
-2.77547e-07
-1.13491e-07
-2.7248e-07
2.12125e-08
-2.66815e-07
1.52708e-07
-2.60589e-07
2.80834e-07
-2.53787e-07
4.05411e-07
-2.4648e-07
5.26266e-07
-2.38753e-07
6.4325e-07
-2.30683e-07
7.56244e-07
-2.22356e-07
8.65123e-07
-2.13866e-07
9.69773e-07
-2.0528e-07
1.07013e-06
-1.96624e-07
1.16615e-06
-1.87925e-07
1.25776e-06
-1.79203e-07
1.34508e-06
-1.7046e-07
1.42791e-06
-1.61831e-07
1.50618e-06
-1.53295e-07
1.57965e-06
-1.44762e-07
1.64806e-06
-1.36065e-07
1.71311e-06
-1.26771e-07
1.77495e-06
-1.17522e-07
1.83066e-06
-1.09106e-07
1.88101e-06
-1.00106e-07
1.93127e-06
-8.94045e-08
1.9837e-06
-7.90144e-08
2.02874e-06
-7.34702e-08
2.06356e-06
-7.14731e-08
2.09509e-06
-6.77297e-08
2.1247e-06
-6.29919e-08
2.15281e-06
-5.78237e-08
2.17927e-06
-5.25697e-08
2.20387e-06
-4.74613e-08
2.22652e-06
-4.26204e-08
2.24719e-06
-3.81018e-08
2.26594e-06
-3.39212e-08
2.28283e-06
-3.00741e-08
2.29796e-06
-2.65471e-08
2.31146e-06
-2.33227e-08
2.32343e-06
-2.03802e-08
2.33399e-06
-1.76996e-08
2.34325e-06
-1.52655e-08
2.35132e-06
-1.30686e-08
2.35829e-06
-1.1097e-08
2.36426e-06
-9.32749e-09
2.36933e-06
-7.72649e-09
2.37357e-06
-6.26307e-09
2.37707e-06
-4.92067e-09
2.37989e-06
-3.6979e-09
2.38211e-06
-2.59961e-09
2.38383e-06
-1.61641e-09
2.38511e-06
-7.22018e-10
2.38598e-06
8.52003e-11
2.38649e-06
7.19027e-10
2.38664e-06
1.32294e-09
2.38648e-06
1.85216e-09
2.38603e-06
2.32781e-09
2.38532e-06
2.76531e-09
2.38435e-06
3.16932e-09
2.38312e-06
3.53504e-09
2.38166e-06
3.85358e-09
2.37998e-06
4.12137e-09
2.37813e-06
4.34693e-09
2.37615e-06
4.54755e-09
2.37405e-06
4.73727e-09
2.37182e-06
4.91744e-09
2.36948e-06
5.08019e-09
2.36702e-06
5.22044e-09
2.36447e-06
5.34318e-09
2.36185e-06
5.45842e-09
2.35914e-06
5.57089e-09
2.35636e-06
5.67604e-09
2.35351e-06
5.76629e-09
2.3506e-06
5.84052e-09
2.34765e-06
5.90628e-09
2.34466e-06
5.97202e-09
2.34163e-06
6.03883e-09
2.33856e-06
6.10134e-09
2.33545e-06
6.15564e-09
2.33231e-06
6.20486e-09
2.32914e-06
6.25494e-09
2.32594e-06
6.30744e-09
2.3227e-06
6.35852e-09
2.31944e-06
6.40544e-09
2.31615e-06
6.45082e-09
2.31284e-06
6.49974e-09
2.30949e-06
6.55327e-09
2.30612e-06
6.60789e-09
2.30272e-06
6.66061e-09
2.29929e-06
6.71271e-09
2.29583e-06
6.76732e-09
2.29235e-06
6.82586e-09
2.28884e-06
6.88827e-09
2.28529e-06
6.95562e-09
2.28171e-06
7.03048e-09
2.2781e-06
7.11364e-09
2.27443e-06
7.20357e-09
2.27073e-06
7.29943e-09
2.26698e-06
7.40445e-09
2.26318e-06
7.52429e-09
2.25933e-06
7.66306e-09
2.25541e-06
7.82214e-09
2.2514e-06
8.00352e-09
2.24731e-06
8.21344e-09
2.24311e-06
8.46203e-09
2.2388e-06
8.76147e-09
2.23433e-06
9.12681e-09
2.22967e-06
9.57863e-09
2.22479e-06
1.01454e-08
2.21962e-06
1.08645e-08
2.21407e-06
1.17862e-08
2.20806e-06
1.29839e-08
2.20143e-06
1.45688e-08
2.19399e-06
1.67141e-08
2.18546e-06
1.96921e-08
2.17541e-06
2.39768e-08
2.16324e-06
3.03509e-08
2.14793e-06
4.06879e-08
2.12819e-06
5.74809e-08
2.1016e-06
9.3405e-08
1.54942e-07
2.05571e-06
-7.90784e-08
7.3988e-08
-1.65928e-07
1.25471e-07
-2.56449e-07
1.6384e-07
-3.52163e-07
1.95959e-07
-4.54368e-07
2.23863e-07
-5.64385e-07
2.4831e-07
-6.80564e-07
2.70573e-07
-8.00969e-07
2.91272e-07
-9.24695e-07
3.10252e-07
-1.04924e-06
3.27297e-07
-1.17224e-06
3.42063e-07
-1.29471e-06
3.5379e-07
-1.41559e-06
3.62533e-07
-1.53292e-06
3.68524e-07
-1.64602e-06
3.71683e-07
-1.75457e-06
3.71969e-07
-1.85841e-06
3.69448e-07
-1.95752e-06
3.64251e-07
-2.05198e-06
3.56555e-07
-2.14188e-06
3.46559e-07
-2.22737e-06
3.34466e-07
-2.30854e-06
3.20462e-07
-2.38543e-06
3.04712e-07
-2.45802e-06
2.8735e-07
-2.52618e-06
2.68481e-07
-2.5897e-06
2.48184e-07
-2.6483e-06
2.2652e-07
-2.70158e-06
2.03535e-07
-2.7491e-06
1.79274e-07
-2.79034e-06
1.53783e-07
-2.82474e-06
1.27123e-07
-2.85172e-06
9.93698e-08
-2.87065e-06
7.06177e-08
-2.88089e-06
4.09847e-08
-2.88167e-06
1.05986e-08
-2.87274e-06
-2.04467e-08
-2.85366e-06
-5.19435e-08
-2.82431e-06
-8.36385e-08
-2.78467e-06
-1.15262e-07
-2.7348e-06
-1.46535e-07
-2.67486e-06
-1.77185e-07
-2.60514e-06
-2.06945e-07
-2.526e-06
-2.35562e-07
-2.43792e-06
-2.62795e-07
-2.34143e-06
-2.88424e-07
-2.23714e-06
-3.12254e-07
-2.12572e-06
-3.34114e-07
-2.00788e-06
-3.53868e-07
-1.88437e-06
-3.7141e-07
-1.75594e-06
-3.8667e-07
-1.62337e-06
-3.99615e-07
-1.48743e-06
-4.10243e-07
-1.34886e-06
-4.1859e-07
-1.20839e-06
-4.24718e-07
-1.0667e-06
-4.28717e-07
-9.24428e-07
-4.30698e-07
-7.82163e-07
-4.30787e-07
-6.40438e-07
-4.2912e-07
-4.99727e-07
-4.2584e-07
-3.60444e-07
-4.21095e-07
-2.22951e-07
-4.1504e-07
-8.75941e-08
-4.07837e-07
4.51967e-08
-3.99606e-07
1.75057e-07
-3.9045e-07
3.01761e-07
-3.8049e-07
4.25111e-07
-3.69831e-07
5.44937e-07
-3.58579e-07
6.61091e-07
-3.46837e-07
7.73443e-07
-3.34708e-07
8.81867e-07
-3.22289e-07
9.8625e-07
-3.09663e-07
1.08651e-06
-2.96886e-07
1.1826e-06
-2.84009e-07
1.27447e-06
-2.71074e-07
1.36213e-06
-2.58119e-07
1.4455e-06
-2.45209e-07
1.52456e-06
-2.32352e-07
1.59931e-06
-2.1951e-07
1.66987e-06
-2.06627e-07
1.73671e-06
-1.93609e-07
1.7998e-06
-1.80618e-07
1.85861e-06
-1.67909e-07
1.91369e-06
-1.55188e-07
1.96649e-06
-1.42207e-07
2.01739e-06
-1.2991e-07
2.06372e-06
-1.19804e-07
2.10408e-06
-1.11835e-07
2.14065e-06
-1.04299e-07
2.17431e-06
-9.66504e-08
2.20551e-06
-8.90177e-08
2.23446e-06
-8.15241e-08
2.26128e-06
-7.42843e-08
2.28604e-06
-6.73788e-08
2.3088e-06
-6.08561e-08
2.32961e-06
-5.47399e-08
2.34858e-06
-4.90371e-08
2.36577e-06
-4.37437e-08
2.3813e-06
-3.88485e-08
2.39526e-06
-3.43357e-08
2.40774e-06
-3.01874e-08
2.41886e-06
-2.63865e-08
2.42871e-06
-2.29179e-08
2.43738e-06
-1.97636e-08
2.44495e-06
-1.68981e-08
2.45151e-06
-1.42896e-08
2.45716e-06
-1.19067e-08
2.46196e-06
-9.72711e-09
2.466e-06
-7.73907e-09
2.46934e-06
-5.93751e-09
2.47204e-06
-4.31506e-09
2.47418e-06
-2.8586e-09
2.47582e-06
-1.55972e-09
2.47697e-06
-4.31593e-10
2.4777e-06
6.00064e-10
2.47804e-06
1.51045e-09
2.47804e-06
2.32639e-09
2.47774e-06
3.06787e-09
2.47716e-06
3.75066e-09
2.47631e-06
4.38065e-09
2.47521e-06
4.95399e-09
2.47387e-06
5.46369e-09
2.47231e-06
5.90906e-09
2.47055e-06
6.30043e-09
2.46864e-06
6.65452e-09
2.46657e-06
6.98318e-09
2.46436e-06
7.28813e-09
2.46202e-06
7.56519e-09
2.45955e-06
7.8136e-09
2.45697e-06
8.0395e-09
2.45429e-06
8.25056e-09
2.45151e-06
8.44852e-09
2.44865e-06
8.62843e-09
2.44571e-06
8.78512e-09
2.44269e-06
8.92052e-09
2.43962e-06
9.04298e-09
2.4365e-06
9.15998e-09
2.43333e-06
9.27219e-09
2.43011e-06
9.37623e-09
2.42684e-06
9.47128e-09
2.42354e-06
9.5616e-09
2.42019e-06
9.65175e-09
2.41681e-06
9.74153e-09
2.41339e-06
9.82755e-09
2.40993e-06
9.90901e-09
2.40644e-06
9.98984e-09
2.40292e-06
1.00741e-08
2.39936e-06
1.01617e-08
2.39577e-06
1.02492e-08
2.39215e-06
1.03351e-08
2.3885e-06
1.04215e-08
2.38481e-06
1.05115e-08
2.38109e-06
1.06066e-08
2.37734e-06
1.07081e-08
2.37355e-06
1.08186e-08
2.36973e-06
1.09406e-08
2.36586e-06
1.10736e-08
2.36194e-06
1.12158e-08
2.35798e-06
1.13683e-08
2.35396e-06
1.1537e-08
2.3499e-06
1.17302e-08
2.34576e-06
1.19536e-08
2.34156e-06
1.22113e-08
2.33726e-06
1.251e-08
2.33286e-06
1.28622e-08
2.32834e-06
1.32856e-08
2.32366e-06
1.38023e-08
2.3188e-06
1.44408e-08
2.3137e-06
1.52399e-08
2.30832e-06
1.62523e-08
2.30255e-06
1.75482e-08
2.29631e-06
1.92269e-08
2.28944e-06
2.14365e-08
2.28175e-06
2.44062e-08
2.27295e-06
2.84924e-08
2.26263e-06
3.42932e-08
2.25021e-06
4.2774e-08
2.23491e-06
5.59898e-08
2.21553e-06
7.68588e-08
2.19364e-06
1.15295e-07
1.77999e-07
2.17059e-06
-1.04972e-07
1.7896e-07
-2.10309e-07
2.30807e-07
-3.1532e-07
2.68852e-07
-4.21163e-07
3.01802e-07
-5.28737e-07
3.31437e-07
-6.38575e-07
3.58148e-07
-7.5016e-07
3.82157e-07
-8.62393e-07
4.03506e-07
-9.74186e-07
4.22045e-07
-1.08452e-06
4.37628e-07
-1.19252e-06
4.50067e-07
-1.29798e-06
4.59245e-07
-1.40073e-06
4.65288e-07
-1.50055e-06
4.68348e-07
-1.59742e-06
4.68547e-07
-1.69145e-06
4.66e-07
-1.78284e-06
4.60839e-07
-1.8718e-06
4.5321e-07
-1.9585e-06
4.43256e-07
-2.04305e-06
4.31106e-07
-2.12544e-06
4.16863e-07
-2.20558e-06
4.00603e-07
-2.28324e-06
3.82368e-07
-2.35806e-06
3.62175e-07
-2.4296e-06
3.40021e-07
-2.49731e-06
3.15888e-07
-2.56055e-06
2.89757e-07
-2.61862e-06
2.61614e-07
-2.67082e-06
2.31465e-07
-2.71637e-06
1.99339e-07
-2.75455e-06
1.653e-07
-2.78463e-06
1.29453e-07
-2.80596e-06
9.19432e-08
-2.81793e-06
5.29606e-08
-2.82006e-06
1.27304e-08
-2.81203e-06
-2.8485e-08
-2.79359e-06
-7.03794e-08
-2.76463e-06
-1.12597e-07
-2.72513e-06
-1.5476e-07
-2.67519e-06
-1.96482e-07
-2.61499e-06
-2.37379e-07
-2.54486e-06
-2.77077e-07
-2.4652e-06
-3.15221e-07
-2.37652e-06
-3.51477e-07
-2.2794e-06
-3.85543e-07
-2.17451e-06
-4.17151e-07
-2.06254e-06
-4.46076e-07
-1.94428e-06
-4.72133e-07
-1.8205e-06
-4.95188e-07
-1.69201e-06
-5.15156e-07
-1.55963e-06
-5.31999e-07
-1.42414e-06
-5.45734e-07
-1.28631e-06
-5.5642e-07
-1.14687e-06
-5.6416e-07
-1.0065e-06
-5.6909e-07
-8.65818e-07
-5.71375e-07
-7.25404e-07
-5.71201e-07
-5.8576e-07
-5.68763e-07
-4.47336e-07
-5.64264e-07
-3.10523e-07
-5.57908e-07
-1.75666e-07
-5.49897e-07
-4.3088e-08
-5.40415e-07
8.69087e-08
-5.29603e-07
2.14069e-07
-5.1761e-07
3.38174e-07
-5.04595e-07
4.59042e-07
-4.90699e-07
5.76521e-07
-4.76057e-07
6.90476e-07
-4.60792e-07
8.00788e-07
-4.4502e-07
9.07348e-07
-4.2885e-07
1.01006e-06
-4.12374e-07
1.10884e-06
-3.95672e-07
1.20365e-06
-3.78812e-07
1.29443e-06
-3.61856e-07
1.38117e-06
-3.44859e-07
1.46384e-06
-3.27879e-07
1.54243e-06
-3.10947e-07
1.617e-06
-2.94072e-07
1.68762e-06
-2.77253e-07
1.7545e-06
-2.60486e-07
1.81773e-06
-2.43854e-07
1.87732e-06
-2.27496e-07
1.93353e-06
-2.11395e-07
1.98688e-06
-1.95563e-07
2.03747e-06
-1.80496e-07
2.08455e-06
-1.66891e-07
2.12747e-06
-1.54747e-07
2.1666e-06
-1.43427e-07
2.20252e-06
-1.32573e-07
2.23563e-06
-1.22126e-07
2.26619e-06
-1.12092e-07
2.29441e-06
-1.02503e-07
2.32042e-06
-9.33903e-08
2.34435e-06
-8.47766e-08
2.36628e-06
-7.66743e-08
2.38633e-06
-6.90857e-08
2.40459e-06
-6.20057e-08
2.42116e-06
-5.54232e-08
2.43615e-06
-4.93226e-08
2.44965e-06
-4.36853e-08
2.46175e-06
-3.8492e-08
2.47256e-06
-3.37226e-08
2.48215e-06
-2.93543e-08
2.49061e-06
-2.53596e-08
2.49803e-06
-2.17067e-08
2.50449e-06
-1.83644e-08
2.51007e-06
-1.53065e-08
2.51484e-06
-1.25139e-08
2.51888e-06
-9.97311e-09
2.52223e-06
-7.67177e-09
2.52497e-06
-5.59583e-09
2.52714e-06
-3.73075e-09
2.52878e-06
-2.06518e-09
2.52994e-06
-5.68454e-10
2.53068e-06
7.71574e-10
2.53103e-06
1.97533e-09
2.53104e-06
3.06536e-09
2.53072e-06
4.06176e-09
2.53013e-06
4.97731e-09
2.52927e-06
5.81581e-09
2.52815e-06
6.57542e-09
2.52681e-06
7.25563e-09
2.52525e-06
7.86288e-09
2.52349e-06
8.41056e-09
2.52156e-06
8.91204e-09
2.51947e-06
9.37445e-09
2.51724e-06
9.79892e-09
2.51487e-06
1.01856e-08
2.51237e-06
1.05388e-08
2.50976e-06
1.08646e-08
2.50704e-06
1.1167e-08
2.50422e-06
1.14442e-08
2.50131e-06
1.16926e-08
2.49832e-06