/*--------------------------------*- C++ -*----------------------------------*\
  =========                 |
  \\      /  F ield         | OpenFOAM: The Open Source CFD Toolbox
   \\    /   O peration     | Website:  https://openfoam.org
    \\  /    A nd           | Version:  7
     \\/     M anipulation  |
\*---------------------------------------------------------------------------*/
FoamFile
{
    version     2.0;
    format      ascii;
    class       volVectorField;
    location    "0.02";
    object      U;
}
// * * * * * * * * * * * * * * * * * * * * * * * * * * * * * * * * * * * * * //

dimensions      [0 1 -1 0 0 0 0];

internalField   nonuniform List<vector> 
12225
(
(4.73496 -0.56547 0)
(4.31576 -0.421562 0)
(4.03352 -0.170426 0)
(3.82178 -0.0482395 0)
(3.64447 -0.00302252 0)
(3.49933 0.010911 0)
(3.38593 0.0137419 0)
(3.2968 0.0131289 0)
(3.22387 0.0118215 0)
(3.16199 0.0106864 0)
(3.10803 0.00989887 0)
(3.0597 0.00943431 0)
(3.01505 0.00925672 0)
(2.9725 0.00939709 0)
(2.93015 0.00984313 0)
(2.88765 0.0113376 0)
(2.83488 0.0117097 0)
(2.8116 0.0254292 0)
(5.02906 0.297311 0)
(4.84074 0.246821 0)
(4.69026 0.170461 0)
(4.58377 0.107145 0)
(4.48425 0.070752 0)
(4.38815 0.0523102 0)
(4.30109 0.0421363 0)
(4.22376 0.0355102 0)
(4.1545 0.0308124 0)
(4.09214 0.0274756 0)
(4.03588 0.0251761 0)
(3.98474 0.0236957 0)
(3.93756 0.0229243 0)
(3.89334 0.0228967 0)
(3.85064 0.0236146 0)
(3.80971 0.0260768 0)
(3.76468 0.0281703 0)
(3.72839 0.0417862 0)
(4.96289 0.185857 0)
(4.82899 0.101924 0)
(4.75334 0.0850188 0)
(4.70988 0.07693 0)
(4.66355 0.068965 0)
(4.61216 0.0622363 0)
(4.5619 0.0564009 0)
(4.51444 0.0511683 0)
(4.46933 0.0467186 0)
(4.42647 0.0432086 0)
(4.38596 0.040613 0)
(4.34768 0.0388584 0)
(4.31117 0.037925 0)
(4.27596 0.0379293 0)
(4.2413 0.0389551 0)
(4.20702 0.0419161 0)
(4.1713 0.0459781 0)
(4.13592 0.0576683 0)
(4.96276 0.17086 0)
(4.85013 0.102879 0)
(4.78902 0.0975835 0)
(4.75915 0.0914107 0)
(4.73048 0.0820884 0)
(4.69924 0.0743325 0)
(4.66921 0.0681842 0)
(4.64096 0.0629171 0)
(4.61363 0.0584726 0)
(4.58695 0.0549603 0)
(4.56103 0.0523772 0)
(4.53583 0.0506932 0)
(4.51114 0.0499388 0)
(4.48668 0.0502748 0)
(4.46209 0.051878 0)
(4.4372 0.0555011 0)
(4.41173 0.0610463 0)
(4.38543 0.0720051 0)
(4.97359 0.195443 0)
(4.88091 0.129803 0)
(4.8222 0.115554 0)
(4.79273 0.102985 0)
(4.76905 0.0908156 0)
(4.74583 0.0820431 0)
(4.72486 0.0755949 0)
(4.706 0.0702795 0)
(4.68815 0.0658819 0)
(4.67083 0.0624683 0)
(4.65395 0.0600352 0)
(4.63743 0.0585689 0)
(4.62106 0.0581237 0)
(4.60465 0.0588726 0)
(4.58799 0.0610429 0)
(4.57101 0.06521 0)
(4.55391 0.0715975 0)
(4.53625 0.0818271 0)
(4.98215 0.218898 0)
(4.90802 0.150831 0)
(4.8526 0.127961 0)
(4.82218 0.111558 0)
(4.79973 0.0979815 0)
(4.77955 0.0884244 0)
(4.76235 0.0814721 0)
(4.74772 0.0758825 0)
(4.7345 0.0713683 0)
(4.72206 0.0679386 0)
(4.71017 0.0655705 0)
(4.69868 0.0642504 0)
(4.68738 0.0640381 0)
(4.6761 0.0650979 0)
(4.66473 0.0676608 0)
(4.65325 0.0721532 0)
(4.64202 0.0788673 0)
(4.63072 0.0885792 0)
(4.98791 0.23549 0)
(4.93018 0.167681 0)
(4.88019 0.13947 0)
(4.84972 0.120487 0)
(4.82755 0.105467 0)
(4.80854 0.0947417 0)
(4.79287 0.0869395 0)
(4.7801 0.0808201 0)
(4.7691 0.0759948 0)
(4.75916 0.0723929 0)
(4.75 0.0699573 0)
(4.74138 0.0686612 0)
(4.73311 0.068554 0)
(4.72503 0.0697752 0)
(4.71709 0.0725274 0)
(4.70932 0.0771177 0)
(4.70209 0.083804 0)
(4.69522 0.0929829 0)
(4.99187 0.247625 0)
(4.94795 0.182893 0)
(4.90459 0.151298 0)
(4.87526 0.130017 0)
(4.85354 0.113374 0)
(4.83525 0.101256 0)
(4.82033 0.092399 0)
(4.80842 0.0855635 0)
(4.79851 0.0802607 0)
(4.7899 0.0763401 0)
(4.78226 0.0737048 0)
(4.77534 0.0723046 0)
(4.76894 0.0721654 0)
(4.76293 0.0733903 0)
(4.7573 0.0761355 0)
(4.7521 0.0806089 0)
(4.74768 0.0869958 0)
(4.74391 0.0954879 0)
(4.9946 0.256927 0)
(4.96184 0.19659 0)
(4.92545 0.162845 0)
(4.89835 0.139624 0)
(4.87769 0.121488 0)
(4.86032 0.10799 0)
(4.84606 0.0980021 0)
(4.83469 0.090334 0)
(4.82543 0.0844273 0)
(4.81761 0.0800636 0)
(4.8109 0.0771065 0)
(4.80507 0.0754764 0)
(4.79992 0.075167 0)
(4.79535 0.0762378 0)
(4.79137 0.0787899 0)
(4.78803 0.0829461 0)
(4.78565 0.0888104 0)
(4.78411 0.0964491 0)
(4.99643 0.264025 0)
(4.97237 0.208423 0)
(4.94271 0.173564 0)
(4.91863 0.148909 0)
(4.89969 0.129571 0)
(4.88363 0.114832 0)
(4.87029 0.10373 0)
(4.85956 0.0951805 0)
(4.85087 0.0885906 0)
(4.84369 0.0836895 0)
(4.83769 0.0803059 0)
(4.83267 0.0783293 0)
(4.82846 0.0777173 0)
(4.82499 0.0784826 0)
(4.82226 0.0806693 0)
(4.82035 0.084327 0)
(4.81952 0.0894839 0)
(4.81964 0.0961236 0)
(4.99764 0.269349 0)
(4.98018 0.218328 0)
(4.9566 0.183208 0)
(4.93597 0.157595 0)
(4.91922 0.137348 0)
(4.9049 0.121563 0)
(4.89283 0.109436 0)
(4.88301 0.100018 0)
(4.87507 0.0927148 0)
(4.86858 0.0872175 0)
(4.86329 0.0833274 0)
(4.85902 0.0809054 0)
(4.85564 0.0798724 0)
(4.85311 0.0801954 0)
(4.85143 0.0818644 0)
(4.85068 0.0848665 0)
(4.85108 0.0891668 0)
(4.85247 0.0946924 0)
(4.99837 0.273078 0)
(4.98541 0.225853 0)
(4.96667 0.191005 0)
(4.94926 0.164833 0)
(4.93476 0.14395 0)
(4.92231 0.12738 0)
(4.9117 0.114427 0)
(4.903 0.104267 0)
(4.89597 0.096318 0)
(4.8903 0.0902536 0)
(4.88577 0.0858537 0)
(4.88225 0.0829558 0)
(4.87966 0.0814495 0)
(4.87795 0.081263 0)
(4.87715 0.0823419 0)
(4.87732 0.0846261 0)
(4.87866 0.0880371 0)
(4.88097 0.0924629 0)
(4.99885 0.275909 0)
(4.98932 0.232075 0)
(4.97472 0.197829 0)
(4.96041 0.171306 0)
(4.94821 0.149917 0)
(4.93773 0.132695 0)
(4.92876 0.11902 0)
(4.92138 0.108176 0)
(4.91545 0.0996099 0)
(4.91074 0.0929816 0)
(4.9071 0.0880536 0)
(4.90443 0.0846424 0)
(4.90267 0.0826094 0)
(4.9018 0.0818486 0)
(4.90185 0.0822678 0)
(4.90287 0.0837689 0)
(4.90503 0.0862412 0)
(4.90811 0.0895413 0)
(4.99922 0.278269 0)
(4.9926 0.237713 0)
(4.98191 0.204354 0)
(4.97088 0.177642 0)
(4.96129 0.15582 0)
(4.95309 0.137993 0)
(4.94612 0.123604 0)
(4.94042 0.112049 0)
(4.93593 0.102817 0)
(4.93251 0.0955565 0)
(4.93005 0.0900127 0)
(4.92847 0.0859807 0)
(4.92775 0.083294 0)
(4.92788 0.0818135 0)
(4.9289 0.0814119 0)
(4.93084 0.0819585 0)
(4.93384 0.0833155 0)
(4.93768 0.0853224 0)
(4.99951 0.28014 0)
(4.99526 0.24246 0)
(4.98814 0.210114 0)
(4.98046 0.183347 0)
(4.97371 0.161148 0)
(4.96804 0.142759 0)
(4.96335 0.127675 0)
(4.95966 0.115393 0)
(4.95695 0.105453 0)
(4.95513 0.0974986 0)
(4.95413 0.091256 0)
(4.95391 0.0864991 0)
(4.95444 0.083035 0)
(4.95575 0.0806942 0)
(4.95785 0.0793199 0)
(4.96077 0.0787565 0)
(4.96462 0.0788477 0)
(4.96916 0.0794296 0)
(4.99973 0.281484 0)
(4.99741 0.246 0)
(4.99345 0.214564 0)
(4.98912 0.187787 0)
(4.98539 0.165217 0)
(4.98248 0.146279 0)
(4.98033 0.130517 0)
(4.97893 0.117499 0)
(4.97827 0.106814 0)
(4.97832 0.0981092 0)
(4.97902 0.091093 0)
(4.98036 0.0855188 0)
(4.98232 0.0811703 0)
(4.98491 0.0778535 0)
(4.98816 0.0753897 0)
(4.99208 0.0736078 0)
(4.99672 0.0723434 0)
(5.0019 0.0714388 0)
(4.99991 0.282212 0)
(4.99922 0.247947 0)
(4.99811 0.216993 0)
(4.99711 0.190062 0)
(4.99662 0.167045 0)
(4.99672 0.147528 0)
(4.99738 0.131092 0)
(4.99854 0.117345 0)
(5.00021 0.105906 0)
(5.00235 0.096425 0)
(5.00494 0.0885977 0)
(5.00797 0.0821582 0)
(5.01144 0.0768718 0)
(5.01535 0.0725285 0)
(5.01972 0.0689369 0)
(5.02456 0.0659204 0)
(5.02989 0.0633163 0)
(5.03554 0.0609802 0)
(5.00009 0.282126 0)
(5.00091 0.247692 0)
(5.00261 0.21637 0)
(5.00511 0.188868 0)
(5.00821 0.165203 0)
(5.01173 0.145021 0)
(5.01556 0.127907 0)
(5.01965 0.113468 0)
(5.02395 0.101324 0)
(5.02843 0.0911181 0)
(5.0331 0.082528 0)
(5.03793 0.0752718 0)
(5.04296 0.069102 0)
(5.04817 0.0637998 0)
(5.05359 0.0591706 0)
(5.05922 0.0550409 0)
(5.06507 0.0512569 0)
(5.071 0.0476907 0)
(5.00032 0.280772 0)
(5.00299 0.243925 0)
(5.00804 0.210697 0)
(5.01474 0.181803 0)
(5.02217 0.157137 0)
(5.0298 0.136203 0)
(5.03743 0.118489 0)
(5.04496 0.103543 0)
(5.05235 0.0909374 0)
(5.05953 0.0802734 0)
(5.06653 0.0711989 0)
(5.07334 0.0634135 0)
(5.08 0.0566601 0)
(5.08653 0.0507169 0)
(5.09296 0.0453926 0)
(5.09929 0.0405227 0)
(5.10555 0.0359668 0)
(5.11162 0.0316136 0)
(5.00062 0.278142 0)
(5.0057 0.236535 0)
(5.01498 0.199804 0)
(5.0267 0.168749 0)
(5.039 0.142843 0)
(5.05103 0.12121 0)
(5.0626 0.10315 0)
(5.07365 0.0880969 0)
(5.08409 0.0755153 0)
(5.09389 0.0649228 0)
(5.10307 0.0559197 0)
(5.11171 0.0481824 0)
(5.11986 0.0414428 0)
(5.12757 0.0354763 0)
(5.13488 0.0300957 0)
(5.14183 0.0251455 0)
(5.14846 0.0204974 0)
(5.15467 0.0160534 0)
(5.00096 0.274476 0)
(5.00898 0.226565 0)
(5.02325 0.185845 0)
(5.04042 0.152903 0)
(5.05753 0.126257 0)
(5.07367 0.104438 0)
(5.08884 0.0865617 0)
(5.10301 0.0719336 0)
(5.11607 0.0598765 0)
(5.12804 0.0498139 0)
(5.13902 0.0413087 0)
(5.14913 0.0340249 0)
(5.15846 0.0276904 0)
(5.1671 0.0220822 0)
(5.1751 0.0170201 0)
(5.18254 0.012359 0)
(5.18948 0.00798146 0)
(5.19583 0.00380018 0)
(5.0015 0.269417 0)
(5.01389 0.213364 0)
(5.03496 0.168427 0)
(5.05867 0.134147 0)
(5.08093 0.10729 0)
(5.10124 0.0857301 0)
(5.12001 0.0684911 0)
(5.1372 0.0547182 0)
(5.1527 0.0435494 0)
(5.1666 0.0343242 0)
(5.17914 0.0265916 0)
(5.19049 0.0200148 0)
(5.20079 0.0143222 0)
(5.21015 0.00929697 0)
(5.21867 0.00476941 0)
(5.22645 0.000606234 0)
(5.23356 -0.00329818 0)
(5.23996 -0.00702126 0)
(5.00239 0.262431 0)
(5.02147 0.196257 0)
(5.05176 0.14759 0)
(5.08306 0.112965 0)
(5.11057 0.0864759 0)
(5.13499 0.0656454 0)
(5.15723 0.049564 0)
(5.17714 0.037106 0)
(5.19464 0.0271755 0)
(5.21003 0.0190659 0)
(5.22369 0.0123449 0)
(5.23585 0.00668523 0)
(5.24671 0.00182011 0)
(5.25641 -0.002456 0)
(5.2651 -0.00629732 0)
(5.27289 -0.00982258 0)
(5.2799 -0.0131246 0)
(5.28609 -0.016271 0)
(5.00396 0.252653 0)
(5.03334 0.174199 0)
(5.07567 0.123433 0)
(5.11497 0.0900968 0)
(5.14722 0.0646749 0)
(5.17533 0.04509 0)
(5.20051 0.030709 0)
(5.2224 0.0199945 0)
(5.2411 0.0115992 0)
(5.25722 0.00482385 0)
(5.2713 -0.000714981 0)
(5.28363 -0.00532419 0)
(5.29443 -0.00925623 0)
(5.30392 -0.0126969 0)
(5.31228 -0.0157801 0)
(5.31963 -0.0186073 0)
(5.32613 -0.0212567 0)
(5.33175 -0.0237848 0)
(5.00666 0.239376 0)
(5.05135 0.146396 0)
(5.10845 0.0959637 0)
(5.1549 0.0659842 0)
(5.19042 0.0427336 0)
(5.22119 0.025176 0)
(5.24832 0.0130205 0)
(5.27108 0.00433078 0)
(5.28993 -0.00237061 0)
(5.30585 -0.00770359 0)
(5.31951 -0.0119877 0)
(5.33124 -0.0155021 0)
(5.34129 -0.0184743 0)
(5.34992 -0.0210623 0)
(5.35733 -0.023376 0)
(5.3637 -0.025499 0)
(5.36915 -0.0274938 0)
(5.37371 -0.0294078 0)
(5.01056 0.22265 0)
(5.07614 0.115791 0)
(5.15023 0.0676704 0)
(5.20219 0.0413492 0)
(5.23893 0.0210825 0)
(5.2708 0.0066743 0)
(5.29847 -0.00266129 0)
(5.32078 -0.009169 0)
(5.3386 -0.0141511 0)
(5.35325 -0.018036 0)
(5.36546 -0.0210704 0)
(5.37558 -0.0235032 0)
(5.38391 -0.0255294 0)
(5.39073 -0.027276 0)
(5.3963 -0.0288298 0)
(5.40077 -0.0302582 0)
(5.40433 -0.0316084 0)
(5.40702 -0.0329217 0)
(5.01609 0.196894 0)
(5.10846 0.0876358 0)
(5.19954 0.0461555 0)
(5.25503 0.0197121 0)
(5.29152 0.000231055 0)
(5.32275 -0.0107018 0)
(5.34889 -0.0165618 0)
(5.36876 -0.0205286 0)
(5.38367 -0.0236239 0)
(5.39517 -0.0259738 0)
(5.40402 -0.027713 0)
(5.41062 -0.0290434 0)
(5.41532 -0.0301186 0)
(5.41848 -0.0310299 0)
(5.42038 -0.0318379 0)
(5.42124 -0.0325932 0)
(5.42121 -0.0333275 0)
(5.42044 -0.0340751 0)
(5.02938 0.136331 0)
(5.15901 0.0504765 0)
(5.25794 0.0433514 0)
(5.30948 0.0228129 0)
(5.34368 -0.00118698 0)
(5.37245 -0.015182 0)
(5.39364 -0.0216727 0)
(5.40674 -0.0252115 0)
(5.41407 -0.0274814 0)
(5.41765 -0.0288527 0)
(5.41842 -0.0295938 0)
(5.4169 -0.02998 0)
(5.41359 -0.0301928 0)
(5.40893 -0.0303268 0)
(5.40327 -0.0304371 0)
(5.39683 -0.0305693 0)
(5.3898 -0.0307549 0)
(5.38234 -0.0310233 0)
(5.08071 -0.0531406 0)
(5.26711 -0.200657 0)
(5.34622 -0.136942 0)
(5.36441 -0.0850398 0)
(5.37904 -0.0626531 0)
(5.39269 -0.0508127 0)
(5.39565 -0.0427647 0)
(5.38776 -0.0376075 0)
(5.3736 -0.0343974 0)
(5.35642 -0.0321614 0)
(5.33762 -0.0304019 0)
(5.31785 -0.0289509 0)
(5.29764 -0.0277409 0)
(5.27739 -0.0267249 0)
(5.25734 -0.0258722 0)
(5.23763 -0.0251834 0)
(5.21836 -0.0246647 0)
(5.19968 -0.0245036 0)
(5.01733 0.717046 0)
(5.23843 0.458092 0)
(5.28697 0.227391 0)
(5.20908 0.0992348 0)
(5.10792 0.0355897 0)
(5.01731 0.00726648 0)
(4.93606 -0.00407525 0)
(4.86189 -0.00831007 0)
(4.79534 -0.00977888 0)
(4.73621 -0.0101501 0)
(4.68327 -0.0100898 0)
(4.63527 -0.00989627 0)
(4.59137 -0.00969877 0)
(4.55101 -0.0095426 0)
(4.51369 -0.00943769 0)
(4.47895 -0.00939759 0)
(4.44629 -0.00942441 0)
(4.41548 -0.00973995 0)
(0.0265041 -0.0620773 -1.27287e-20)
(0.0403779 -0.0293553 1.06385e-20)
(0.0330414 -4.64202e-05 0)
(0.0146597 0.0230636 0)
(-0.0166971 0.030361 0)
(-0.0608104 0.0332669 -9.54832e-21)
(-0.0998556 0.044671 0)
(-0.144449 0.0528324 0)
(-0.206992 0.0476424 0)
(-0.270485 0.0760862 0)
(-0.334993 0.099517 1.064e-20)
(-0.422701 0.0840689 0)
(-0.512971 0.0815047 0)
(-0.60534 0.0972546 0)
(-0.710546 0.109347 0)
(-0.822782 0.119622 1.08209e-20)
(-0.94112 0.128199 0)
(-1.06408 0.134905 0)
(-1.19018 0.139668 0)
(-1.31796 0.142434 0)
(-1.44597 0.143191 0)
(-1.57279 0.141973 0)
(-1.69709 0.138856 0)
(-1.81759 0.133945 1.10599e-20)
(-1.93309 0.12737 -1.11331e-20)
(-2.04251 0.119272 1.11993e-20)
(-2.1448 0.109803 1.12531e-20)
(-2.23905 0.09912 0)
(-2.32437 0.0873923 0)
(-2.39999 0.0748037 -1.12921e-20)
(-2.46519 0.06156 -1.12491e-20)
(-2.51936 0.0479041 0)
(-2.56196 0.0341575 0)
(-2.59254 0.0206727 -1.08959e-20)
(-2.61073 0.00786716 0)
(-2.61605 -0.00388887 0)
(-2.6105 -0.0144472 1.00725e-20)
(-2.59454 -0.0242099 0)
(-2.56839 -0.0334977 9.20255e-21)
(-2.53232 -0.0424387 1.73442e-20)
(-2.48658 -0.0510634 0)
(-2.43145 -0.0593571 0)
(-2.36726 -0.0672855 0)
(-2.29438 -0.0748061 0)
(-2.21325 -0.0818759 0)
(-2.12439 -0.0884546 8.28845e-21)
(-2.02833 -0.0945069 6.34767e-21)
(-1.92568 -0.100004 4.29199e-21)
(-1.8171 -0.104925 0)
(-1.70324 -0.109254 1.48088e-22)
(-1.5848 -0.112984 0)
(-1.46249 -0.116115 -4.99986e-21)
(-1.33701 -0.118648 -7.57089e-21)
(-1.20907 -0.120591 0)
(-1.07934 -0.121949 0)
(-0.948499 -0.122726 0)
(-0.817185 -0.122917 -1.87607e-20)
(-0.686008 -0.122504 0)
(-0.555564 -0.121452 0)
(-0.426456 -0.119696 0)
(-0.299235 -0.117125 0)
(-0.174323 -0.113661 0)
(-0.051953 -0.109276 0)
(0.0678473 -0.104307 0)
(0.184977 -0.0991948 0)
(0.298996 -0.0941011 3.66358e-20)
(0.409606 -0.089061 0)
(0.516594 -0.0840891 0)
(0.619789 -0.0792261 -3.55531e-20)
(0.719095 -0.0746052 -3.51172e-20)
(0.814522 -0.0702677 0)
(0.906089 -0.0660727 3.41821e-20)
(0.993754 -0.0620461 -3.36957e-20)
(1.07755 -0.0581475 0)
(1.15745 -0.0539745 3.2712e-20)
(1.23341 -0.0503699 0)
(1.30573 -0.0467428 0)
(1.37469 -0.0430079 -3.12435e-20)
(1.44032 -0.0384418 0)
(1.502 -0.0278897 3.03285e-20)
(1.55802 -0.0175295 0)
(1.60944 -0.0157022 -2.94756e-20)
(1.65888 -0.00823677 -2.90748e-20)
(1.70247 0.0168378 -2.87392e-20)
(1.7345 0.0466365 -5.58092e-20)
(1.76065 0.0286785 5.24042e-20)
(1.79147 -0.0090352 0)
(1.82794 -0.0214212 0)
(1.86285 -0.0245575 0)
(1.89412 -0.0239359 4.92954e-20)
(1.92199 -0.0220595 4.88684e-20)
(1.94667 -0.0198908 -4.84711e-20)
(1.96851 -0.0177728 0)
(1.98787 -0.0158187 4.7738e-20)
(2.00502 -0.0140517 4.73939e-20)
(2.02023 -0.012465 4.70615e-20)
(2.03371 -0.0110445 0)
(2.04565 -0.00977507 0)
(2.05622 -0.00863886 0)
(2.06556 -0.00761882 4.58257e-20)
(2.07379 -0.00670848 0)
(2.08105 -0.00591233 0)
(2.08744 -0.00522889 -4.49813e-20)
(2.09308 -0.00463523 0)
(2.09807 -0.00409427 0)
(2.10245 -0.0035782 -4.41974e-20)
(2.10627 -0.00308232 0)
(2.10956 -0.00261876 0)
(2.11239 -0.00220383 4.34706e-20)
(2.11479 -0.00185177 4.32388e-20)
(2.11673 -0.00156257 0)
(2.11828 -0.00133881 -4.27885e-20)
(2.11955 -0.00117646 0)
(2.12059 -0.00105068 4.23596e-20)
(2.12143 -0.000943341 0)
(2.1221 -0.000839843 4.1948e-20)
(2.12261 -0.000736688 4.17484e-20)
(2.12299 -0.000646997 0)
(2.12326 -0.000589341 0)
(2.12346 -0.000570929 0)
(2.12362 -0.000578412 0)
(2.12375 -0.000583944 0)
(2.12385 -0.000565549 0)
(2.12389 -0.00052614 0)
(2.12389 -0.000489972 4.02592e-20)
(2.12386 -0.000477061 -4.00837e-20)
(2.12382 -0.0004834 0)
(2.12377 -0.000488518 0)
(2.12371 -0.000479506 0)
(2.12364 -0.000463846 0)
(2.12355 -0.000458689 -7.84631e-20)
(2.12346 -0.000470386 0)
(2.12338 -0.000487255 7.78011e-20)
(2.1233 -0.000492977 -7.74736e-20)
(2.12321 -0.000484894 0)
(2.12312 -0.00047599 0)
(2.12302 -0.000478608 0)
(2.12294 -0.000490199 7.61845e-20)
(2.12286 -0.000498352 7.58666e-20)
(2.12278 -0.000497248 0)
(2.1227 -0.000493838 7.52351e-20)
(2.12263 -0.00049688 7.49213e-20)
(2.12256 -0.000504727 -7.46087e-20)
(2.1225 -0.000508232 0)
(2.12244 -0.000503791 0)
(2.12237 -0.00049807 -7.36776e-20)
(2.12231 -0.000498511 0)
(2.12225 -0.000503713 0)
(2.12219 -0.000506617 0)
(2.12213 -0.000504221 0)
(2.12206 -0.000499534 7.21477e-20)
(2.12199 -0.000494908 7.1845e-20)
(2.1219 -0.000488505 0)
(2.12181 -0.000478746 7.1243e-20)
(2.12169 -0.000468249 0)
(2.12156 -0.000460153 0)
(2.12141 -0.000452472 7.03495e-20)
(2.12122 -0.000439683 0)
(2.12099 -0.000419836 6.97619e-20)
(2.12071 -0.000396933 0)
(2.12037 -0.000374975 0)
(2.11996 -0.000352027 6.88979e-20)
(2.11947 -0.000322134 0)
(2.11886 -0.000281314 6.83386e-20)
(2.11812 -0.000228767 0)
(2.1172 -0.000162602 0)
(2.11606 -7.74394e-05 0)
(2.11464 3.31026e-05 -6.7291e-20)
(2.11285 0.000174692 0)
(2.11059 0.000355966 6.68315e-20)
(2.10768 0.000593807 0)
(2.10393 0.000915142 0)
(2.09902 0.00135845 0)
(2.09247 0.00198337 0)
(2.08359 0.00289656 0)
(2.07105 0.00428907 0)
(2.05322 0.00663012 0)
(2.024 0.0105114 -1.33884e-19)
(1.98416 0.0201073 0)
(1.874 0.0320301 0)
(-0.0222017 -0.0680515 3.6819e-20)
(-0.0482905 0.00822417 -2.91893e-20)
(-0.0915621 0.0636689 0)
(-0.146482 0.104003 1.5181e-20)
(-0.214978 0.133695 0)
(-0.292383 0.151412 7.32279e-21)
(-0.379182 0.16896 -1.40154e-20)
(-0.47639 0.191477 -1.41093e-20)
(-0.581849 0.213398 0)
(-0.689598 0.234802 -1.36785e-20)
(-0.804668 0.260824 -7.0609e-21)
(-0.925216 0.282026 0)
(-1.04952 0.300105 0)
(-1.17448 0.317115 0)
(-1.29861 0.330476 0)
(-1.42079 0.339742 -7.04255e-21)
(-1.54029 0.345008 0)
(-1.65616 0.34632 1.4509e-20)
(-1.76752 0.34384 0)
(-1.87359 0.337814 0)
(-1.97376 0.328546 -1.53748e-20)
(-2.06752 0.316369 0)
(-2.15452 0.301628 1.59995e-20)
(-2.2345 0.284661 -7.99053e-21)
(-2.30733 0.26578 8.11923e-21)
(-2.37292 0.245268 -8.23344e-21)
(-2.43126 0.223375 -8.32825e-21)
(-2.48238 0.200315 0)
(-2.52631 0.176276 0)
(-2.56313 0.151424 8.45263e-21)
(-2.59294 0.125915 -8.88404e-21)
(-2.61583 0.0999152 0)
(-2.63193 0.0736374 0)
(-2.6414 0.0473487 8.12477e-21)
(-2.64441 0.0214194 0)
(-2.64105 -0.00378325 0)
(-2.62953 -0.028126 -7.38068e-21)
(-2.60909 -0.0516833 0)
(-2.57947 -0.0744974 7.24795e-21)
(-2.54056 -0.0965448 -1.24104e-20)
(-2.4924 -0.117742 0)
(-2.43515 -0.137976 0)
(-2.3691 -0.157119 -2.00825e-20)
(-2.29459 -0.175048 -1.77811e-20)
(-2.21205 -0.191648 -1.53462e-20)
(-2.12199 -0.206816 7.18855e-21)
(-2.02494 -0.22047 -4.24374e-21)
(-1.92151 -0.232549 -1.01833e-20)
(-1.81233 -0.243011 4.47969e-21)
(-1.69807 -0.251842 -9.58583e-23)
(-1.5794 -0.259045 0)
(-1.45702 -0.264649 3.16595e-21)
(-1.33161 -0.268702 -2.96037e-21)
(-1.20384 -0.271269 0)
(-1.07435 -0.272429 0)
(-0.943767 -0.272271 0)
(-0.812667 -0.270892 1.12459e-20)
(-0.681585 -0.268387 0)
(-0.551004 -0.264846 -2.74616e-20)
(-0.421353 -0.260349 0)
(-0.293005 -0.254959 -3.4453e-20)
(-0.166283 -0.248709 0)
(-0.041556 -0.241607 4.07462e-20)
(0.0806309 -0.233774 0)
(0.199975 -0.225466 -4.33674e-20)
(0.316301 -0.216842 2.15196e-20)
(0.429456 -0.208008 0)
(0.539282 -0.199047 4.59591e-20)
(0.645646 -0.190043 2.38166e-20)
(0.748434 -0.18109 2.40232e-20)
(0.847537 -0.172254 0)
(0.942855 -0.163548 2.34612e-20)
(1.03433 -0.154991 2.4385e-20)
(1.12191 -0.146597 0)
(1.20559 -0.138382 -2.44602e-20)
(1.28537 -0.130494 4.83288e-20)
(1.36111 -0.122975 0)
(1.43261 -0.11583 2.43982e-20)
(1.4997 -0.109054 0)
(1.56276 -0.102513 -7.24915e-20)
(1.62288 -0.0963058 0)
(1.67929 -0.090667 7.19505e-20)
(1.73014 -0.0858361 2.39217e-20)
(1.77794 -0.0818137 -2.36322e-20)
(1.82751 -0.0767984 -4.6797e-20)
(1.87498 -0.0683608 4.49949e-20)
(1.9143 -0.0600615 0)
(1.94653 -0.0527785 0)
(1.97642 -0.0466524 0)
(2.00525 -0.0411835 -1.26799e-19)
(2.03269 -0.0363407 -4.20628e-20)
(2.05854 -0.0320662 4.1815e-20)
(2.08265 -0.0282925 0)
(2.10495 -0.0249593 4.11738e-20)
(2.12547 -0.022011 -4.11914e-20)
(2.14425 -0.0193992 -4.10003e-20)
(2.16137 -0.017083 0)
(2.17695 -0.0150276 0)
(2.19107 -0.0132017 0)
(2.20384 -0.0115779 -4.02535e-20)
(2.21538 -0.0101369 0)
(2.22577 -0.00886748 7.96672e-20)
(2.23513 -0.00775845 1.19004e-19)
(2.24352 -0.00678891 -7.89463e-20)
(2.25104 -0.00592874 0)
(2.25777 -0.00514985 -3.90819e-20)
(2.2638 -0.00443707 0)
(2.26917 -0.00378965 -7.75192e-20)
(2.27396 -0.0032138 3.85586e-20)
(2.27824 -0.00271702 3.83849e-20)
(2.28213 -0.00230306 0)
(2.28564 -0.00196084 1.14184e-19)
(2.2888 -0.00165002 -7.57575e-20)
(2.29164 -0.00137499 -3.77194e-20)
(2.29419 -0.00113988 0)
(2.29648 -0.000936371 -3.73744e-20)
(2.29853 -0.000759024 -1.11593e-19)
(2.30035 -0.000607714 0)
(2.30196 -0.00048377 -7.37295e-20)
(2.30334 -0.000385835 -7.3407e-20)
(2.30452 -0.000308274 -7.30884e-20)
(2.30554 -0.00024318 0)
(2.30645 -0.00018502 0)
(2.30725 -0.000133545 0)
(2.30797 -9.1588e-05 3.5916e-20)
(2.30859 -6.01624e-05 3.5776e-20)
(2.30911 -3.63701e-05 0)
(2.30956 -1.59142e-05 7.09396e-20)
(2.30996 3.1013e-06 7.06424e-20)
(2.3103 1.92065e-05 0)
(2.31059 3.02018e-05 7.00624e-20)
(2.31083 3.63063e-05 1.39525e-19)
(2.31103 4.0282e-05 -6.94806e-20)
(2.3112 4.45414e-05 -6.91766e-20)
(2.31137 4.87639e-05 0)
(2.31152 5.07932e-05 0)
(2.31165 4.95838e-05 0)
(2.31177 4.64708e-05 -6.80528e-20)
(2.31188 4.33756e-05 6.77578e-20)
(2.31198 4.05904e-05 1.34968e-19)
(2.31208 3.7006e-05 -6.72109e-20)
(2.31218 3.21656e-05 6.69194e-20)
(2.31226 2.72366e-05 6.66541e-20)
(2.31235 2.36558e-05 0)
(2.31244 2.14589e-05 0)
(2.31253 1.96099e-05 -6.58121e-20)
(2.31262 1.7622e-05 0)
(2.3127 1.60787e-05 0)
(2.31278 1.56392e-05 1.29989e-19)
(2.31287 1.63064e-05 0)
(2.31295 1.79591e-05 6.44435e-20)
(2.31303 2.10826e-05 -6.41831e-20)
(2.31311 2.64908e-05 0)
(2.31319 3.45673e-05 6.36306e-20)
(2.31326 4.52831e-05 0)
(2.31332 5.89787e-05 0)
(2.31336 7.67373e-05 -6.28359e-20)
(2.31338 9.98215e-05 1.25128e-19)
(2.31339 0.000129037 -6.23043e-20)
(2.31338 0.000164963 0)
(2.31333 0.000208667 0)
(2.31324 0.000262008 6.15087e-20)
(2.31309 0.000327462 0)
(2.31287 0.000408178 6.09984e-20)
(2.31257 0.000508534 0)
(2.31215 0.00063475 0)
(2.3116 0.00079517 0)
(2.31087 0.00100065 6.00457e-20)
(2.3099 0.00126581 0)
(2.30861 0.00161127 -5.9613e-20)
(2.30693 0.00206697 0)
(2.30471 0.00267735 0)
(2.30179 0.00351125 1.18164e-19)
(2.2979 0.00467864 -1.17931e-19)
(2.29271 0.00637444 0)
(2.28555 0.00892756 0)
(2.27604 0.0131479 0)
(2.26132 0.020078 3.55184e-19)
(2.24542 0.0358104 0)
(2.21192 0.0598136 -2.3941e-19)
(-0.0546883 0.0565726 -9.89424e-22)
(-0.112126 0.146288 3.2901e-20)
(-0.185407 0.213901 0)
(-0.267493 0.268462 -2.46642e-20)
(-0.35593 0.313636 0)
(-0.450698 0.351491 0)
(-0.551737 0.385662 3.84352e-23)
(-0.657678 0.417606 1.09124e-20)
(-0.767163 0.447231 1.08643e-20)
(-0.878075 0.474725 1.0742e-20)
(-0.98873 0.498742 0)
(-1.09891 0.517284 0)
(-1.2081 0.531059 -1.10814e-20)
(-1.31507 0.540731 -2.24749e-20)
(-1.41852 0.545795 2.2858e-20)
(-1.51811 0.545946 0)
(-1.61364 0.541241 2.37894e-20)
(-1.70504 0.531907 -1.17265e-20)
(-1.79232 0.518305 0)
(-1.87557 0.500871 2.5419e-20)
(-1.95491 0.48007 1.2521e-20)
(-2.03043 0.45636 -2.65253e-20)
(-2.1022 0.43017 -1.30533e-20)
(-2.17023 0.401883 0)
(-2.23445 0.371828 2.79896e-20)
(-2.2947 0.340281 2.83822e-20)
(-2.35075 0.307474 0)
(-2.40229 0.273602 2.89611e-20)
(-2.44893 0.238834 0)
(-2.49023 0.203323 2.91977e-20)
(-2.52571 0.16721 1.40708e-20)
(-2.55482 0.13063 0)
(-2.57702 0.0937034 0)
(-2.59168 0.0565286 0)
(-2.59818 0.0191763 0)
(-2.59606 -0.018281 0)
(-2.58493 -0.0557579 0)
(-2.56456 -0.0929226 2.48668e-20)
(-2.53486 -0.129421 -3.47646e-20)
(-2.49585 -0.16493 0)
(-2.4476 -0.199156 0)
(-2.39031 -0.231829 0)
(-2.32425 -0.2627 -1.31325e-21)
(-2.2498 -0.29154 1.40562e-20)
(-2.16739 -0.31815 2.54789e-20)
(-2.07752 -0.342361 -2.13644e-20)
(-1.98078 -0.364039 -9.1969e-21)
(-1.87776 -0.383087 5.71443e-21)
(-1.76913 -0.399446 1.2709e-21)
(-1.65555 -0.413096 2.44219e-21)
(-1.53772 -0.424055 0)
(-1.41633 -0.432379 -2.25747e-21)
(-1.29207 -0.438155 1.22108e-21)
(-1.16559 -0.441502 0)
(-1.03754 -0.44256 0)
(-0.908512 -0.441491 1.18811e-20)
(-0.779066 -0.438468 0)
(-0.64971 -0.433671 0)
(-0.520903 -0.427286 -1.80516e-20)
(-0.393048 -0.419499 -4.3337e-20)
(-0.266508 -0.410497 2.52845e-20)
(-0.141604 -0.400477 0)
(-0.0186614 -0.389619 -2.96186e-20)
(0.101918 -0.378023 0)
(0.219867 -0.365795 -3.01089e-20)
(0.334987 -0.353042 -3.30802e-20)
(0.447113 -0.339882 6.63165e-20)
(0.556092 -0.326428 3.32455e-20)
(0.661791 -0.312792 0)
(0.764088 -0.299082 -7.11361e-20)
(0.862865 -0.285383 0)
(0.958024 -0.271746 -1.10952e-19)
(1.0495 -0.258214 -7.45724e-20)
(1.13723 -0.244818 -7.54678e-20)
(1.22121 -0.231582 7.62558e-20)
(1.30141 -0.218579 -1.15869e-19)
(1.37775 -0.205795 0)
(1.4502 -0.193152 0)
(1.51879 -0.180512 7.84983e-20)
(1.5838 -0.16761 1.18621e-19)
(1.64554 -0.154761 0)
(1.70373 -0.142522 -3.99245e-20)
(1.75807 -0.130199 0)
(1.80964 -0.11708 1.19139e-19)
(1.8598 -0.104934 6.41698e-22)
(1.90714 -0.0965715 -5.61337e-22)
(1.94932 -0.0913577 -7.74351e-20)
(1.98676 -0.0861834 0)
(2.02121 -0.0803076 7.63805e-20)
(2.05334 -0.074107 1.89011e-22)
(2.08337 -0.0678652 0)
(2.11144 -0.0617946 0)
(2.13762 -0.0560258 0)
(2.16194 -0.0506258 -7.51486e-20)
(2.18446 -0.0456211 0)
(2.20525 -0.0410144 0)
(2.22439 -0.0367954 0)
(2.24196 -0.0329467 0)
(2.25804 -0.0294469 0)
(2.27274 -0.0262733 -7.37496e-20)
(2.28614 -0.0234058 0)
(2.29833 -0.0208276 -7.33386e-20)
(2.30941 -0.0185199 -7.30849e-20)
(2.31944 -0.0164564 7.28255e-20)
(2.32851 -0.0146041 0)
(2.3367 -0.0129327 7.22933e-20)
(2.3441 -0.0114222 0)
(2.35076 -0.0100648 7.17461e-20)
(2.35676 -0.00885907 -7.14677e-20)
(2.36215 -0.00779846 -2.135e-19)
(2.36699 -0.00687038 0)
(2.37137 -0.0060508 -2.11811e-19)
(2.3753 -0.00531163 -7.02825e-20)
(2.37882 -0.00466952 0)
(2.38198 -0.00411809 -1.39439e-19)
(2.38482 -0.00363544 -1.38855e-19)
(2.38738 -0.0032017 2.0743e-19)
(2.38969 -0.00280523 0)
(2.39176 -0.00244486 6.85779e-20)
(2.39361 -0.00212796 6.82928e-20)
(2.39525 -0.00186231 2.04006e-19)
(2.39668 -0.00164663 0)
(2.39794 -0.0014677 0)
(2.39906 -0.0013084 0)
(2.40005 -0.00115978 6.6881e-20)
(2.40092 -0.00102486 0)
(2.40169 -0.00091069 0)
(2.40235 -0.000817811 -6.60771e-20)
(2.40292 -0.000738707 -6.58065e-20)
(2.40341 -0.000665614 0)
(2.40384 -0.00059826 0)
(2.4042 -0.000543004 -1.30002e-19)
(2.4045 -0.00050457 0)
(2.40475 -0.00047968 1.28938e-19)
(2.40496 -0.00045973 1.28404e-19)
(2.40515 -0.000439253 0)
(2.40532 -0.000420198 0)
(2.40546 -0.000407361 -1.26827e-19)
(2.40559 -0.000401213 -3.39545e-24)
(2.40569 -0.000397155 -3.07812e-24)
(2.40578 -0.000391425 0)
(2.40587 -0.000385399 -2.49484e-19)
(2.40594 -0.00038275 0)
(2.406 -0.000383698 0)
(2.40605 -0.000384289 0)
(2.4061 -0.000381403 1.22668e-19)
(2.40615 -0.000376389 0)
(2.40619 -0.000372635 -2.43264e-19)
(2.40622 -0.000370942 -1.21118e-19)
(2.40625 -0.000369001 0)
(2.40628 -0.000364681 -1.20088e-19)
(2.4063 -0.00035772 0)
(2.40632 -0.000347927 0)
(2.40633 -0.000333714 -3.55645e-19)
(2.40634 -0.000313735 2.36073e-19)
(2.40633 -0.000288888 0)
(2.40631 -0.000260959 2.34035e-19)
(2.40627 -0.000229223 -1.16512e-19)
(2.40622 -0.000189697 0)
(2.40614 -0.000138211 0)
(2.40603 -7.31158e-05 0)
(2.40589 6.00587e-06 -3.43525e-19)
(2.40569 0.000101776 0)
(2.40542 0.000220255 -1.13534e-19)
(2.40507 0.000369409 0)
(2.40461 0.000558251 0)
(2.40401 0.00079848 0)
(2.40323 0.00110656 0)
(2.40221 0.00150445 0)
(2.40088 0.00202091 0)
(2.39913 0.00269656 -2.20881e-19)
(2.39685 0.00359304 0)
(2.39384 0.00480647 -1.09813e-19)
(2.38987 0.00648634 3.28644e-19)
(2.38458 0.00888721 0)
(2.37738 0.0124211 0)
(2.36781 0.0180188 -2.18718e-19)
(2.35407 0.0269633 -2.19682e-19)
(2.33824 0.0444103 2.19857e-19)
(2.31586 0.074297 2.21895e-19)
(-0.0720401 0.237062 -5.85144e-20)
(-0.144905 0.331619 -4.2768e-20)
(-0.232012 0.401344 -2.35395e-20)
(-0.32534 0.460111 -1.06403e-20)
(-0.420713 0.511259 0)
(-0.517724 0.555983 1.94688e-20)
(-0.616595 0.595443 -9.74468e-21)
(-0.71669 0.630113 0)
(-0.816929 0.659801 -9.23419e-21)
(-0.916303 0.684411 0)
(-1.01401 0.703444 1.92489e-20)
(-1.10956 0.716329 0)
(-1.20288 0.723478 9.47743e-21)
(-1.29375 0.725353 1.92652e-20)
(-1.38204 0.722188 -1.96338e-20)
(-1.46781 0.714215 0)
(-1.55121 0.701748 -2.05084e-20)
(-1.63245 0.685165 0)
(-1.71168 0.664864 0)
(-1.78905 0.641233 -2.20269e-20)
(-1.86461 0.614624 0)
(-1.93831 0.585331 -1.09321e-21)
(-2.00999 0.553595 0)
(-2.0794 0.519593 0)
(-2.14616 0.483455 1.17278e-21)
(-2.20984 0.445274 -2.4947e-20)
(-2.26988 0.405117 -2.6552e-20)
(-2.32568 0.363045 -2.56162e-20)
(-2.37659 0.319127 0)
(-2.42194 0.273452 -5.33437e-20)
(-2.46105 0.226145 0)
(-2.49323 0.177373 -2.74206e-20)
(-2.51786 0.127349 0)
(-2.53435 0.0763347 0)
(-2.54219 0.0246161 2.65984e-20)
(-2.541 -0.0275113 0)
(-2.53052 -0.0796577 -2.49804e-20)
(-2.51058 -0.131396 1.48604e-21)
(-2.48109 -0.182273 4.41221e-20)
(-2.44207 -0.231842 -4.29971e-20)
(-2.39364 -0.279669 0)
(-2.336 -0.325351 0)
(-2.26949 -0.368512 -1.822e-20)
(-2.19448 -0.408817 0)
(-2.11147 -0.445973 -1.20297e-20)
(-2.021 -0.479736 1.01622e-20)
(-1.92369 -0.509917 8.23216e-21)
(-1.82019 -0.536379 0)
(-1.71119 -0.559043 -4.22707e-21)
(-1.59743 -0.577888 -2.17216e-21)
(-1.47961 -0.592951 2.16276e-21)
(-1.35847 -0.604318 1.99813e-21)
(-1.2347 -0.612127 4.09898e-21)
(-1.10899 -0.616556 0)
(-0.981977 -0.617816 0)
(-0.854244 -0.616144 -1.04032e-20)
(-0.726338 -0.611793 0)
(-0.598747 -0.605024 0)
(-0.471907 -0.596098 3.33298e-20)
(-0.346203 -0.585275 3.74889e-20)
(-0.221979 -0.572815 0)
(-0.0995242 -0.558968 0)
(0.0208791 -0.543938 0)
(0.138958 -0.527889 0)
(0.254495 -0.51099 5.31177e-20)
(0.367304 -0.4934 -5.39057e-20)
(0.477228 -0.475277 -5.69705e-20)
(0.584133 -0.456765 -1.16199e-19)
(0.687898 -0.437997 0)
(0.788411 -0.419097 9.90815e-22)
(0.885573 -0.400168 0)
(0.979295 -0.38129 6.39958e-20)
(1.06951 -0.362531 8.27985e-22)