/*--------------------------------*- C++ -*----------------------------------*\
  =========                 |
  \\      /  F ield         | OpenFOAM: The Open Source CFD Toolbox
   \\    /   O peration     | Website:  https://openfoam.org
    \\  /    A nd           | Version:  7
     \\/     M anipulation  |
\*---------------------------------------------------------------------------*/
FoamFile
{
    version     2.0;
    format      ascii;
    class       volScalarField;
    location    "0.24";
    object      nut;
}
// * * * * * * * * * * * * * * * * * * * * * * * * * * * * * * * * * * * * * //

dimensions      [0 2 -1 0 0 0 0];

internalField   nonuniform List<scalar> 
12225
(
3.8006e-05
3.33294e-05
2.94332e-05
2.6376e-05
2.41489e-05
2.26289e-05
2.16444e-05
2.1034e-05
2.06699e-05
2.04599e-05
2.0341e-05
2.02729e-05
2.02308e-05
2.02004e-05
2.01741e-05
2.01468e-05
2.01234e-05
2.02579e-05
0.000205724
0.000151533
0.000127319
0.000114411
0.000107381
0.000103279
0.000100625
9.87145e-05
9.72143e-05
9.5962e-05
9.48777e-05
9.39223e-05
9.30753e-05
9.23229e-05
9.16575e-05
9.10575e-05
9.05581e-05
8.99876e-05
0.000418643
0.000297003
0.000242053
0.000210271
0.000189716
0.000175349
0.000164797
0.000156798
0.000150585
0.000145655
0.00014167
0.000138399
0.000135679
0.000133392
0.000131456
0.000129795
0.000128379
0.000127101
0.000615537
0.000473548
0.000392596
0.000341289
0.000306024
0.000280096
0.000260139
0.000244329
0.00023155
0.000221055
0.000212324
0.000204984
0.000198759
0.000193439
0.000188863
0.000184899
0.000181453
0.00017845
0.000739725
0.000627508
0.000543987
0.000483438
0.000438577
0.000404036
0.000376538
0.000354117
0.000335499
0.00031981
0.000306432
0.000294917
0.000284931
0.000276214
0.000268565
0.000261817
0.000255846
0.00025062
0.000803284
0.000733061
0.000666705
0.000610802
0.00056523
0.000527916
0.000496946
0.0004709
0.000448727
0.000429642
0.000413056
0.000398524
0.000385707
0.000374337
0.000364203
0.000355132
0.000346996
0.000339816
0.000832284
0.000794591
0.000750953
0.000708346
0.000669788
0.000635822
0.000606119
0.000580153
0.000557381
0.00053731
0.000519522
0.000503672
0.000489481
0.000476719
0.000465199
0.000454767
0.000445309
0.000436903
0.000844509
0.000826357
0.000801471
0.000773647
0.000745699
0.000719061
0.000694331
0.000671691
0.000651106
0.000632432
0.000615491
0.000600099
0.000586088
0.000573306
0.00056162
0.000550915
0.000541115
0.000532344
0.000849308
0.000841192
0.000828458
0.000812442
0.0007947
0.000776402
0.000758304
0.000740867
0.000724343
0.000708837
0.000694373
0.000680923
0.000668436
0.00065685
0.000646102
0.000636129
0.000626899
0.000618569
0.000851043
0.000847506
0.000841448
0.000833092
0.000823016
0.000811833
0.00080006
0.000788103
0.000776257
0.000764719
0.00075361
0.000742999
0.000732919
0.00072338
0.000714375
0.000705894
0.000697943
0.000690691
0.000851597
0.000849941
0.000847101
0.000842991
0.000837726
0.000831519
0.00082461
0.000817234
0.000809597
0.000801866
0.000794169
0.000786599
0.000779221
0.000772081
0.000765206
0.000758619
0.000752351
0.000746559
0.000851725
0.000850709
0.000849144
0.00084693
0.000844053
0.00084056
0.000836536
0.000832086
0.000827322
0.000822345
0.000817248
0.000812104
0.000806973
0.000801904
0.000796932
0.000792087
0.000787411
0.000783046
0.000851737
0.000850954
0.00084994
0.000848639
0.000847018
0.00084507
0.000842806
0.000840258
0.000837465
0.000834477
0.000831341
0.000828101
0.000824798
0.000821466
0.000818135
0.000814833
0.000811598
0.00080854
0.00085171
0.000850987
0.000850182
0.000849278
0.000848261
0.000847121
0.000845852
0.000844453
0.00084293
0.000841294
0.000839561
0.000837746
0.000835866
0.000833939
0.00083198
0.000830007
0.000828047
0.000826171
0.000851677
0.00085095
0.000850197
0.00084942
0.000848622
0.000847804
0.000846965
0.0008461
0.000845208
0.000844287
0.000843336
0.000842357
0.000841352
0.000840324
0.000839279
0.000838223
0.00083717
0.000836162
0.000851651
0.000850908
0.00085016
0.000849409
0.000848667
0.00084794
0.000847234
0.000846548
0.000845883
0.000845236
0.000844605
0.000843986
0.000843378
0.000842778
0.000842186
0.000841602
0.000841036
0.000840509
0.000851638
0.000850886
0.000850136
0.000849392
0.000848662
0.000847955
0.000847279
0.000846636
0.000846028
0.000845454
0.000844912
0.000844401
0.000843918
0.000843459
0.000843024
0.000842612
0.000842228
0.000841889
0.000851639
0.00085089
0.00085015
0.000849417
0.0008487
0.000848008
0.000847347
0.000846722
0.000846133
0.000845581
0.000845065
0.000844583
0.000844133
0.000843713
0.000843321
0.000842956
0.000842624
0.000842341
0.000851662
0.000850939
0.000850226
0.000849522
0.000848835
0.000848175
0.000847548
0.000846956
0.000846402
0.000845885
0.000845404
0.000844957
0.000844542
0.000844156
0.000843797
0.000843465
0.000843165
0.000842913
0.000851715
0.000851053
0.000850399
0.000849754
0.000849128
0.000848532
0.00084797
0.000847444
0.000846955
0.000846499
0.000846074
0.000845677
0.000845304
0.000844953
0.00084462
0.000844304
0.00084401
0.000843754
0.000851801
0.000851234
0.000850669
0.000850109
0.000849564
0.000849039
0.000848536
0.000848051
0.000847577
0.000847108
0.000846638
0.000846164
0.000845682
0.000845189
0.000844683
0.000844165
0.000843642
0.000843131
0.000851941
0.000851518
0.000851065
0.000850568
0.000850017
0.000849406
0.000848723
0.000847953
0.000847088
0.000846125
0.000845066
0.000843915
0.000842678
0.000841365
0.000839978
0.000838533
0.00083705
0.000835569
0.000852143
0.000851828
0.000851264
0.000850361
0.000849079
0.000847418
0.00084539
0.000843014
0.000840328
0.000837376
0.000834207
0.000830858
0.000827368
0.000823786
0.000820162
0.000816531
0.00081293
0.000809429
0.00085222
0.000851245
0.000849025
0.000845468
0.000840719
0.000835023
0.000828607
0.000821664
0.000814377
0.000806866
0.000799267
0.000791714
0.000784301
0.000777081
0.000770092
0.000763357
0.000756901
0.000750802
0.000850791
0.000845028
0.000835399
0.000822958
0.00080886
0.000794028
0.000779051
0.00076424
0.000749854
0.000736137
0.000723186
0.000711016
0.000699611
0.000688936
0.000678949
0.000669603
0.000660863
0.000652771
0.000841138
0.000816681
0.000786996
0.000756694
0.000727769
0.00070094
0.000676355
0.000654201
0.000634327
0.000616473
0.000600389
0.000585844
0.000572632
0.000560581
0.000549541
0.000539389
0.000530028
0.000521448
0.000798628
0.000728722
0.000669091
0.000620805
0.000580931
0.000547658
0.000520036
0.000496769
0.000476882
0.000459666
0.000444592
0.00043126
0.000419361
0.000408656
0.000398958
0.000390119
0.000382028
0.000374641
0.000662426
0.000545578
0.000474636
0.000425191
0.000388258
0.000360252
0.000338447
0.000320948
0.000306532
0.000294413
0.000284057
0.000275086
0.000267223
0.000260262
0.00025405
0.000248465
0.000243415
0.000238844
0.000377505
0.000286123
0.00024263
0.000214905
0.00019564
0.00018223
0.000172793
0.000165955
0.000160835
0.000156887
0.000153765
0.000151239
0.000149149
0.000147386
0.00014587
0.000144544
0.000143369
0.000142299
6.98062e-05
6.49723e-05
6.05478e-05
5.65123e-05
5.29008e-05
4.97254e-05
4.69802e-05
4.464e-05
4.26661e-05
4.1014e-05
3.96403e-05
3.85046e-05
3.7571e-05
3.68078e-05
3.61878e-05
3.56876e-05
3.52876e-05
3.4971e-05
9.22113e-08
2.63337e-06
4.41037e-06
5.90816e-06
7.45879e-06
9.15854e-06
1.10023e-05
1.30353e-05
1.52662e-05
1.75265e-05
1.9861e-05
2.22775e-05
2.47762e-05
2.73567e-05
3.00195e-05
3.27655e-05
3.55958e-05
3.85116e-05
4.15134e-05
4.46017e-05
4.77765e-05
5.10374e-05
5.43838e-05
5.78146e-05
6.13286e-05
6.49239e-05
6.85986e-05
7.23504e-05
7.61766e-05
8.00741e-05
8.40395e-05
8.80689e-05
9.21579e-05
9.63017e-05
0.000100495
0.000104732
0.000109007
0.000113312
0.000117641
0.000121986
0.00012634
0.000130694
0.000135039
0.000139365
0.000143662
0.000147919
0.000152125
0.000156267
0.000160332
0.000164311
0.000168191
0.000171962
0.000175613
0.00017913
0.000182495
0.000185679
0.000188641
0.000191314
0.000193596
0.000195315
0.000196182
0.000195765
0.000193764
0.000191407
0.000191913
4.42227e-05
4.49775e-05
0.000199542
0.000200441
0.000200233
0.000198485
0.000199479
4.59115e-05
4.60686e-05
4.66858e-05
4.65699e-05
4.71528e-05
4.70978e-05
4.65726e-05
4.76539e-05
4.73841e-05
4.77461e-05
4.81444e-05
4.85436e-05
4.89379e-05
4.93255e-05
4.97048e-05
5.00751e-05
5.04359e-05
5.0787e-05
5.11283e-05
5.14601e-05
5.17833e-05
5.20996e-05
5.2406e-05
5.27002e-05
5.29824e-05
5.32528e-05
5.35111e-05
5.37573e-05
5.39911e-05
5.42123e-05
5.44207e-05
5.46162e-05
5.47986e-05
5.49677e-05
5.51235e-05
5.52657e-05
5.53943e-05
5.55092e-05
5.56103e-05
5.56976e-05
5.5771e-05
5.58305e-05
5.58762e-05
5.59079e-05
5.59258e-05
5.59299e-05
5.59202e-05
5.58968e-05
5.58598e-05
5.58094e-05
5.57456e-05
5.56685e-05
5.55784e-05
5.54754e-05
5.53596e-05
5.52314e-05
5.50908e-05
5.49381e-05
5.47736e-05
5.45975e-05
5.441e-05
5.42115e-05
5.40022e-05
5.37823e-05
5.35523e-05
5.33124e-05
5.30629e-05
5.28041e-05
5.25364e-05
5.22601e-05
5.19756e-05
5.16831e-05
5.1383e-05
5.10757e-05
5.07614e-05
5.04407e-05
5.01137e-05
4.97809e-05
4.94427e-05
4.90995e-05
4.87516e-05
4.84002e-05
4.80447e-05
4.76882e-05
4.73061e-05
4.65807e-05
4.65088e-05
4.58723e-05
4.58825e-05
4.55187e-05
4.55042e-05
4.52261e-05
4.50028e-05
4.47177e-05
4.48531e-05
0.000221289
4.44874e-05
0.000221548
4.43157e-05
0.000216774
0.000215464
4.39e-05
4.57051e-05
4.35053e-05
0.000206991
4.54918e-05
0.000208058
0.00020685
3.73535e-07
1.48726e-05
3.40719e-05
4.77784e-05
5.6722e-05
6.28169e-05
6.76624e-05
7.2064e-05
7.63904e-05
8.07862e-05
8.52759e-05
8.98546e-05
9.45143e-05
9.92505e-05
0.000104062
0.000108951
0.000113921
0.000118973
0.000124112
0.00012934
0.000134659
0.00014007
0.000145574
0.000151172
0.000156864
0.00016265
0.000168529
0.000174501
0.000180563
0.000186715
0.000192953
0.000199276
0.00020568
0.000212161
0.000218716
0.000225339
0.000232025
0.000238768
0.000245561
0.000252397
0.000259267
0.000266163
0.000273072
0.000279983
0.000286883
0.000293756
0.000300585
0.000307352
0.000314038
0.000320619
0.000327072
0.000333369
0.000339475
0.000345344
0.000350906
0.000356057
0.000360626
0.000364319
0.000366614
0.000366567
0.000362537
0.0003521
0.000333328
0.00031053
0.000307256
0.000288072
0.000296088
0.000330579
0.000323312
0.000318682
0.000311425
0.000309712
0.0002919
0.00029267
0.000296053
0.000300034
0.000301899
0.000305279
0.000311927
0.000315611
0.000323588
0.000329158
0.000333596
0.000338407
0.000343365
0.000348407
0.000353482
0.000358563
0.000363629
0.000368666
0.000373657
0.000378576
0.000383391
0.000387904
0.000392201
0.000396421
0.000400579
0.000404676
0.000408706
0.000412669
0.00041656
0.000420375
0.000424113
0.000427768
0.000431339
0.000434821
0.000438212
0.00044151
0.000444711
0.000447812
0.000450812
0.000453707
0.000456497
0.000459178
0.000461749
0.000464208
0.000466555
0.000468786
0.000470902
0.000472901
0.000474782
0.000476545
0.00047819
0.000479715
0.000481121
0.000482408
0.000483576
0.000484626
0.000485557
0.000486372
0.00048707
0.000487652
0.000488121
0.000488477
0.000488722
0.000488857
0.000488884
0.000488806
0.000488623
0.000488339
0.000487956
0.000487475
0.0004869
0.000486232
0.000485475
0.000484631
0.000483702
0.000482693
0.000481605
0.00048044
0.000479205
0.000477899
0.000476524
0.000475086
0.000473564
0.000471784
0.000468554
0.000456274
0.0004536
0.000440735
0.000438602
0.000431385
0.000429198
0.0004243
0.000418807
0.000412761
0.000412905
0.000462904
0.000404112
0.000449994
0.000395314
0.000441655
0.000440609
0.000383974
0.000374399
0.000371041
0.00041405
0.000366167
0.000405288
0.000395367
7.6409e-07
2.49644e-05
5.64199e-05
7.95266e-05
9.57468e-05
0.000107456
0.000116468
0.000124011
0.000130841
0.000137381
0.000143842
0.000150322
0.00015686
0.000163475
0.000170175
0.000176964
0.000183847
0.000190827
0.000197907
0.000205091
0.000212381
0.00021978
0.000227291
0.000234913
0.000242649
0.000250498
0.000258463
0.000266541
0.000274733
0.000283038
0.000291453
0.000299978
0.000308608
0.000317341
0.000326173
0.000335098
0.00034411
0.000353204
0.000362371
0.000371602
0.000380887
0.000390213
0.000399568
0.000408935
0.000418297
0.000427634
0.000436924
0.000446144
0.000455269
0.00046427
0.000473119
0.000481782
0.000490219
0.000498382
0.000506202
0.000513584
0.000520393
0.000526427
0.000531396
0.0005349
0.00053646
0.00053575
0.000533311
0.000531789
0.000535076
0.000538106
0.000544103
0.000551938
0.000555634
0.000560703
0.000566415
0.000573478
0.000579163
0.000586784
0.000595208
0.00060386
0.000612021
0.000620936
0.000630615
0.000640412
0.000650653
0.000661045
0.000671221
0.000681424
0.000691636
0.000701831
0.00071198
0.000722059
0.000732045
0.000741914
0.00075164
0.000761194
0.000770506
0.00077948
0.000788249
0.000796872
0.00080536
0.000813713
0.000821924
0.000829987
0.000837896
0.000845643
0.000853222
0.000860626
0.000867848
0.000874883
0.000881724
0.000888365
0.000894801
0.000901027
0.000907037
0.000912827
0.000918393
0.00092373
0.000928836
0.000933706
0.000938338
0.00094273
0.000946878
0.000950781
0.000954437
0.000957845
0.000961004
0.000963914
0.000966574
0.000968986
0.000971149
0.000973064
0.000974733
0.000976157
0.000977338
0.000978278
0.000978981
0.000979449
0.000979685
0.000979692
0.000979475
0.000979038
0.000978384
0.000977519
0.000976447
0.000975173
0.000973703
0.000972041
0.000970193
0.000968165
0.000965963
0.000963593
0.000961063
0.000958374
0.00095554
0.000952567
0.000949452
0.000946192
0.000942758
0.000938865
0.000933316
0.000922132
0.000915716
0.000908829
0.000901956
0.00089493
0.000887014
0.000878994
0.00087105
0.00086484
0.000858945
0.00086751
0.000846649
0.000852138
0.000831841
0.000838184
0.000832546
0.000810857
0.000803849
0.00079493
0.000799673
0.000783229
0.000784832
0.00076964
1.19366e-06
3.2066e-05
7.21901e-05
0.000103002
0.000125643
0.000142537
0.000155666
0.000166474
0.000175944
0.000184705
0.00019313
0.00020143
0.000209718
0.000218051
0.00022646
0.000234961
0.000243562
0.000252269
0.000261087
0.000270019
0.000279069
0.000288238
0.000297531
0.000306949
0.000316493
0.000326166
0.000335967
0.000345897
0.000355956
0.000366144
0.000376458
0.000386897
0.000397457
0.000408136
0.000418929
0.000429831
0.000440834
0.000451932
0.000463116
0.000474375
0.000485699
0.000497074
0.000508485
0.000519917
0.00053135
0.000542766
0.000554144
0.000565462
0.000576698
0.00058783
0.000598836
0.000609695
0.000620381
0.000630867
0.000641117
0.000651085
0.00066071
0.000669918
0.000678617
0.000686723
0.000694195
0.000701144
0.000707991
0.000715531
0.000724391
0.000733872
0.000743979
0.000754594
0.000765349
0.000776888
0.000789037
0.000801712
0.000814507
0.00082762
0.000840994
0.000854518
0.000868061
0.000881887
0.000895978
0.000910248
0.000924634
0.000939092
0.000953468
0.000967759
0.000981954
0.000996044
0.00101001
0.00102384
0.0010375
0.00105099
0.00106428
0.00107735
0.00109008
0.00110252
0.00111475
0.00112678
0.00113861
0.00115026
0.00116171
0.00117295
0.00118397
0.00119477
0.00120533
0.00121565
0.00122571
0.00123552
0.00124506
0.00125432
0.0012633
0.00127199
0.00128039
0.00128848
0.00129626
0.00130372
0.00131087
0.00131769
0.00132419
0.00133035
0.00133618
0.00134168
0.00134683
0.00135164
0.00135611
0.00136023
0.00136401
0.00136745
0.00137054
0.0013733
0.00137571
0.00137778
0.00137952
0.00138092
0.00138199
0.00138274
0.00138316
0.00138327
0.00138306
0.00138255
0.00138173
0.00138062
0.00137921
0.00137753
0.00137556
0.00137333
0.00137084
0.00136809
0.0013651
0.00136187
0.00135841
0.00135474
0.00135085
0.00134675
0.00134246
0.00133795
0.00133317
0.00132791
0.00132143
0.00131223
0.00130446
0.00129762
0.00128968
0.00128169
0.00127262
0.00126357
0.00125467
0.0012468
0.00123853
0.0012338
0.00122231
0.00121628
0.0012045
0.00119879
0.00119048
0.00117824
0.0011701
0.0011604
0.00115376
0.0011429
0.00113383
0.00111746
1.58257e-06
3.74459e-05
8.44151e-05
0.000121682
0.000149884
0.000171427
0.00018838
0.000202313
0.000214353
0.000225269
0.000235564
0.000245551
0.000255414
0.000265262
0.000275154
0.000285125
0.000295193
0.000305369
0.00031566
0.000326071
0.000336607
0.00034727
0.000358064
0.000368991
0.000380052
0.000391251
0.000402587
0.000414062
0.000425675
0.000437425
0.000449313
0.000461334
0.000473488
0.000485769
0.000498174
0.000510696
0.000523331
0.000536069
0.000548903
0.000561824
0.00057482
0.000587879
0.000600989
0.000614135
0.000627303
0.000640478
0.000653643
0.000666785
0.00067989
0.000692947
0.000705945
0.000718877
0.000731738
0.000744521
0.00075722
0.000769827
0.000782332
0.000794724
0.000806999
0.000819166
0.000831273
0.000843427
0.000855819
0.00086869
0.000882186
0.000896215
0.000910721
0.000925675
0.000941052
0.000956897
0.000973133
0.000989681
0.00100643
0.00102336
0.00104043
0.0010576
0.00107484
0.00109219
0.00110962
0.0011271
0.00114458
0.00116202
0.00117934
0.00119652
0.00121354
0.00123041
0.0012471
0.0012636
0.0012799
0.00129598
0.00131183
0.00132741
0.00134266
0.00135763
0.00137236
0.00138686
0.00140114
0.00141518
0.001429
0.00144256
0.00145587
0.00146891
0.00148168
0.00149417
0.00150636
0.00151824
0.00152981
0.00154106
0.00155197
0.00156255
0.00157278
0.00158266
0.00159217
0.00160132
0.00161009
0.00161849
0.0016265
0.00163412
0.00164136
0.00164819
0.00165463
0.00166066
0.0016663
0.00167153
0.00167635
0.00168077
0.00168478
0.00168839
0.0016916
0.0016944
0.00169681
0.00169882
0.00170044
0.00170166
0.00170251
0.00170297
0.00170306
0.00170279
0.00170214
0.00170114
0.0016998
0.00169811
0.00169609
0.00169374
0.00169107
0.00168809
0.00168482
0.00168125
0.0016774
0.00167329
0.0016689
0.00166427
0.00165937
0.00165421
0.00164874
0.00164281
0.00163605
0.00162793
0.00161993
0.00161231
0.00160404
0.00159551
0.00158636
0.00157709
0.00156783
0.00155894
0.00154978
0.00154135
0.00153141
0.00152243
0.00151215
0.00150318
0.00149366
0.00148325
0.00147392
0.00146394
0.00145442
0.00144381
0.00143212
0.00141618
1.90295e-06
4.16512e-05
9.40934e-05
0.000136741
0.00016976
0.000195466
0.000215945
0.000232828
0.000247328
0.000260314
0.000272384
0.000283935
0.000295222
0.000306403
0.000317575
0.000328793
0.000340091
0.00035149
0.000363001
0.000374632
0.00038639
0.000398278
0.0004103
0.00042246
0.000434758
0.000447197
0.00045978
0.000472505
0.000485374
0.000498386
0.000511541
0.000524835
0.000538268
0.000551835
0.000565533
0.000579356
0.000593299
0.000607356
0.00062152
0.000635782
0.000650135
0.000664569
0.000679074
0.000693642
0.000708261
0.000722922
0.000737618
0.000752341
0.000767086
0.000781852
0.00079664
0.000811452
0.000826296
0.000841179
0.000856114
0.000871108
0.000886176
0.000901329
0.000916586
0.000931975
0.000947537
0.000963334
0.00097945
0.000995963
0.00101292
0.00103031
0.00104809
0.00106624
0.00108473
0.00110352
0.00112258
0.00114185
0.00116128
0.00118083
0.00120046
0.00122015
0.00123987
0.00125961
0.00127934
0.00129903
0.00131865
0.00133816
0.00135752
0.0013767
0.00139571
0.00141452
0.00143312
0.0014515
0.00146966
0.00148758
0.00150525
0.0015226
0.00153964
0.00155642
0.00157294
0.00158922
0.00160526
0.00162105
0.00163658
0.00165185
0.00166684
0.00168154
0.00169595
0.00171005
0.00172383
0.00173728
0.0017504
0.00176317
0.00177558
0.00178763
0.0017993
0.00181059
0.00182148
0.00183198
0.00184208
0.00185177
0.00186104
0.00186989
0.00187832
0.00188631
0.00189388
0.001901
0.00190769
0.00191393
0.00191973
0.00192509
0.00193001
0.00193448
0.00193851
0.0019421
0.00194525
0.00194796
0.00195025
0.00195209
0.00195352
0.00195452
0.00195511
0.00195529
0.00195506
0.00195443
0.00195342
0.00195202
0.00195024
0.0019481
0.0019456
0.00194275
0.00193955
0.00193603
0.00193219
0.00192803
0.00192357
0.00191882
0.00191377
0.00190842
0.00190273
0.00189663
0.00188992
0.00188242
0.00187462
0.00186676
0.00185848
0.0018499
0.00184095
0.0018318
0.00182254
0.00181331
0.00180391
0.00179455
0.00178478
0.00177508
0.00176503
0.00175521
0.00174527
0.00173512
0.00172525
0.00171513
0.00170496
0.00169426
0.00168228
0.00166752
2.15592e-06
4.48892e-05
0.000101638
0.000148746
0.00018592
0.000215331
0.000239033
0.000258671
0.000275504
0.000290464
0.000304218
0.000317231
0.000329817
0.000342185
0.000354465
0.000366741
0.000379065
0.00039147
0.000403975
0.000416593
0.000429334
0.000442202
0.000455204
0.000468342
0.00048162
0.00049504
0.000508604
0.000522312
0.000536166
0.000550165
0.00056431
0.000578598
0.000593027
0.000607596
0.000622301
0.000637139
0.000652105
0.000667195
0.000682403
0.000697725
0.000713154
0.000728685
0.000744313
0.000760031
0.000775835
0.000791722
0.000807688
0.000823735
0.000839862
0.000856076
0.000872383
0.000888793
0.000905319
0.000921976
0.000938779
0.000955745
0.000972891
0.000990234
0.00100779
0.00102559
0.00104365
0.001062
0.00108067
0.00109969
0.00111907
0.00113879
0.00115884
0.00117917
0.00119975
0.00122056
0.00124155
0.00126268
0.00128392
0.00130524
0.00132661
0.00134798
0.00136935
0.00139068
0.00141195
0.00143314
0.00145421
0.00147513
0.00149589
0.00151646
0.00153683
0.00155699
0.00157692
0.00159662
0.00161609
0.0016353
0.00165425
0.00167287
0.00169121
0.00170929
0.00172712
0.0017447
0.00176203
0.00177911
0.00179592
0.00181247
0.00182873
0.00184469
0.00186036
0.0018757
0.00189072
0.00190541
0.00191975
0.00193372
0.00194734
0.00196057
0.00197342
0.00198587
0.00199791
0.00200954
0.00202076
0.00203155
0.00204191
0.00205183
0.0020613
0.00207033
0.0020789
0.00208702
0.00209468
0.00210187
0.0021086
0.00211487
0.00212067
0.002126
0.00213086
0.00213526
0.0021392
0.00214267
0.00214569
0.00214824
0.00215034
0.002152
0.00215322
0.00215399
0.00215433
0.00215424
0.00215374
0.00215282
0.0021515
0.00214977
0.00214766
0.00214517
0.0021423
0.00213908
0.00213551
0.0021316
0.00212735
0.00212278
0.00211789
0.00211267
0.00210711
0.00210115
0.00209471
0.00208772
0.00208032
0.00207266
0.00206464
0.00205633
0.00204772
0.00203888
0.00202986
0.00202073
0.00201142
0.00200199
0.00199236
0.00198262
0.00197273
0.00196283
0.00195287
0.00194286
0.00193291
0.00192289
0.00191277
0.00190228
0.00189079
0.00187745
2.34734e-06
4.72911e-05
0.000107343
0.000158089
0.000198802
0.000231473
0.000258082
0.000280259
0.000299276
0.000316099
0.000331442
0.000345822
0.000359601
0.00037303
0.000386276
0.00039945
0.000412624
0.000425846
0.000439145
0.000452542
0.000466049
0.000479676
0.00049343
0.000507316
0.000521337
0.000535497
0.000549798
0.000564242
0.000578831
0.000593564
0.000608442
0.000623464
0.00063863
0.000653939
0.000669387
0.000684974
0.000700697
0.000716553
0.000732539
0.000748652
0.00076489
0.00078125
0.000797731
0.000814331
0.000831048
0.000847885
0.000864843
0.000881927
0.000899141
0.000916494
0.000933996
0.000951661
0.000969501
0.000987533
0.00100577
0.00102423
0.00104293
0.00106188
0.0010811
0.00110059
0.00112037
0.00114044
0.00116082
0.00118151
0.00120249
0.00122376
0.00124529
0.00126705
0.001289
0.00131113
0.00133338
0.00135575
0.00137818
0.00140066
0.00142315
0.00144562
0.00146806
0.00149044
0.00151273
0.00153491
0.00155695
0.00157884
0.00160055
0.00162206
0.00164337
0.00166446
0.00168533
0.00170596
0.00172634
0.00174648
0.00176633
0.00178589
0.0018052
0.00182425
0.00184307
0.00186164
0.00187997
0.00189805
0.00191587
0.00193342
0.00195069
0.00196767
0.00198435
0.00200071
0.00201675
0.00203245
0.0020478
0.0020628
0.00207742
0.00209167
0.00210552
0.00211897
0.00213202
0.00214465
0.00215685
0.00216862
0.00217995
0.00219084
0.00220127
0.00221125
0.00222076
0.0022298
0.00223837
0.00224647
0.0022541
0.00226125
0.00226791
0.0022741
0.0022798
0.00228502
0.00228976
0.00229403
0.00229783
0.00230114
0.00230398
0.00230636
0.00230829
0.00230975
0.00231075
0.0023113
0.00231142
0.0023111
0.00231036
0.0023092
0.00230763
0.00230566
0.0023033
0.00230055
0.00229744
0.00229396
0.00229013
0.00228595
0.00228143
0.00227657
0.00227135
0.00226576
0.00225974
0.00225327
0.00224639
0.00223917
0.00223161
0.00222375
0.0022156
0.0022072
0.00219858
0.00218978
0.00218078
0.00217161
0.00216227
0.00215278
0.00214317
0.00213349
0.00212376
0.00211401
0.00210428
0.00209454
0.00208476
0.00207474
0.00206403
0.00205208
2.48221e-06
4.89777e-05
0.000111454
0.000165091
0.000208762
0.000244251
0.000273441
0.000297918
0.000318945
0.0003375
0.000354325
0.000369972
0.000384841
0.000399217
0.000413302
0.000427232
0.0004411
0.000454969
0.000468881
0.000482865
0.00049694
0.000511118
0.000525411
0.000539825
0.000554366
0.000569038
0.000583844
0.000598787
0.000613869
0.000629092
0.000644456
0.000659963
0.000675613
0.000691405
0.000707339
0.000723415
0.000739632
0.000755988
0.000772485
0.000789121
0.000805896
0.00082281
0.000839865
0.000857062
0.000874404
0.000891895
0.00090954
0.000927345
0.000945318
0.000963469
0.00098181
0.00100035
0.00101911
0.00103809
0.00105732
0.0010768
0.00109654
0.00111656
0.00113686
0.00115744
0.00117831
0.00119946
0.0012209
0.00124261
0.00126458
0.00128679
0.00130922
0.00133185
0.00135464
0.00137756
0.0014006
0.00142371
0.00144688
0.00147007
0.00149327
0.00151644
0.00153956
0.0015626
0.00158555
0.00160838
0.00163107
0.00165361
0.00167596
0.00169813
0.00172009
0.00174184
0.00176337
0.00178467
0.00180573
0.00182654
0.00184708
0.00186738
0.00188744
0.00190727
0.00192688
0.00194627
0.00196542
0.00198433
0.00200299
0.00202139
0.00203952
0.00205737
0.00207492
0.00209216
0.00210908
0.00212568
0.00214193
0.00215783
0.00217336
0.00218852
0.00220328
0.00221764
0.0022316
0.00224514
0.00225825
0.00227093
0.00228317
0.00229496
0.0023063
0.00231718
0.00232758
0.00233752
0.00234697
0.00235595
0.00236444
0.00237246
0.00237999
0.00238703
0.00239357
0.00239962
0.00240518
0.00241027
0.00241487
0.00241898
0.0024226
0.00242574
0.00242841
0.00243061
0.00243234
0.00243361
0.00243444
0.00243481
0.00243474
0.00243425
0.00243333
0.00243199
0.00243025
0.00242811
0.00242559
0.00242268
0.0024194
0.00241576
0.00241177
0.00240741
0.00240269
0.00239761
0.00239213
0.00238624
0.00237996
0.00237332
0.00236634
0.00235904
0.00235145
0.00234358
0.00233547
0.00232714
0.00231859
0.00230985
0.00230093
0.00229184
0.00228263
0.00227333
0.00226398
0.00225461
0.00224527
0.00223596
0.00222666
0.00221724
0.00220737
0.00219669
2.56622e-06
5.00548e-05
0.000114186
0.000170032
0.000216107
0.00025398
0.000285415
0.000311934
0.000334772
0.000354904
0.000373082
0.000389881
0.000405729
0.000420938
0.000435736
0.000450285
0.000464697
0.000479051
0.000493402
0.000507789
0.000522236
0.000536764
0.000551385
0.000566111
0.000580947
0.000595902
0.000610978
0.000626181
0.000641513
0.000656977
0.000672576
0.000688311
0.000704184
0.000720196
0.000736348
0.000752642
0.000769078
0.000785658
0.000802383
0.000819255
0.000836276
0.00085345
0.000870779
0.000888267
0.000905921
0.000923745
0.000941746
0.000959933
0.000978315
0.000996901
0.0010157
0.00103473
0.001054
0.00107352
0.00109329
0.00111334
0.00113366
0.00115426
0.00117515
0.00119631
0.00121776
0.00123949
0.00126147
0.00128372
0.0013062
0.0013289
0.0013518
0.00137488
0.0013981
0.00142146
0.00144491
0.00146844
0.00149202
0.00151563
0.00153924
0.00156282
0.00158636
0.00160983
0.0016332
0.00165647
0.0016796
0.00170258
0.00172539
0.00174803
0.00177046
0.0017927
0.00181472
0.00183652
0.0018581
0.00187945
0.00190058
0.00192149
0.00194221
0.00196272
0.00198303
0.00200313
0.00202301
0.00204267
0.00206209
0.00208126
0.00210018
0.00211882
0.00213717
0.00215523
0.00217298
0.0021904
0.00220749
0.00222423
0.00224062
0.00225663
0.00227225
0.00228748
0.0023023
0.00231671
0.00233069
0.00234424
0.00235735
0.00237002
0.00238224
0.00239399
0.00240527
0.00241607
0.00242639
0.00243623
0.00244559
0.00245447
0.00246287
0.00247076
0.00247814
0.00248504
0.00249143
0.00249734
0.00250276
0.00250768
0.00251211
0.00251606
0.00251953
0.00252252
0.00252503
0.00252708
0.00252867
0.0025298
0.00253049
0.00253073
0.00253054
0.00252993
0.00252889
0.00252745
0.00252561
0.00252338
0.00252076
0.00251777
0.0025144
0.00251067
0.00250657
0.0025021
0.00249725
0.00249202
0.0024864
0.00248042
0.00247409
0.00246743
0.00246047
0.00245322
0.0024457
0.00243794
0.00242994
0.00242173
0.00241332
0.00240473
0.00239601
0.00238719
0.00237832
0.00236943
0.00236057
0.00235177
0.00234303
0.00233426
0.00232522
0.00231564
2.60551e-06
5.06145e-05
0.000115725
0.000173156
0.000221111
0.00026094
0.000294274
0.000322557
0.000346984
0.000368509
0.000387887
0.0004057
0.000422394
0.000438304
0.000453679
0.000468699
0.000483497
0.000498166
0.000512775
0.000527371
0.000541988
0.000556651
0.000571379
0.000586184
0.000601079
0.00061607
0.000631165
0.00064637
0.000661688
0.000677124
0.000692683
0.000708366
0.000724177
0.00074012
0.000756197
0.00077241
0.000788764
0.00080526
0.000821903
0.000838696
0.000855644
0.000872752
0.000890026
0.000907471
0.000925095
0.000942905
0.00096091
0.000979119
0.000997543
0.00101619
0.00103507
0.0010542
0.00107358
0.00109323
0.00111315
0.00113335
0.00115383
0.0011746
0.00119566
0.001217
0.00123862
0.00126051
0.00128267
0.00130507
0.00132772
0.00135057
0.00137363
0.00139687
0.00142026
0.00144378
0.00146742
0.00149114
0.00151493
0.00153876
0.0015626
0.00158644
0.00161024
0.00163399
0.00165766
0.00168123
0.00170469
0.00172801
0.00175117
0.00177417
0.00179699
0.00181961
0.00184204
0.00186426
0.00188629
0.00190814
0.00192982
0.00195133
0.00197266
0.00199382
0.0020148
0.00203559
0.00205617
0.00207655
0.0020967
0.00211662
0.00213629
0.0021557
0.00217484
0.00219368
0.00221223
0.00223046
0.00224837
0.00226593
0.00228315
0.0023
0.00231646
0.00233253
0.0023482
0.00236345
0.00237829
0.00239269
0.00240666
0.00242019
0.00243329
0.00244591
0.00245805
0.00246971
0.0024809
0.0024916
0.00250182
0.00251155
0.0025208
0.00252954
0.00253778
0.00254553
0.00255278
0.00255954
0.0025658
0.00257157
0.00257685
0.00258164
0.00258594
0.00258977
0.00259311
0.00259599
0.0025984
0.00260035
0.00260184
0.00260289
0.0026035
0.00260368
0.00260343
0.00260276
0.00260168
0.0026002
0.00259833
0.00259607
0.00259342
0.00259041
0.00258702
0.00258325
0.00257911
0.0025746
0.00256971
0.00256445
0.00255883
0.00255288
0.00254662
0.00254004
0.00253319
0.00252606
0.00251869
0.00251108
0.00250326
0.00249525
0.0024871
0.00247883
0.0024705
0.00246215
0.00245384
0.0024456
0.00243746
0.00242935
0.00242109
0.00241246
2.6064e-06
5.07377e-05
0.000116238
0.000174684
0.000224019
0.00026538
0.000300256
0.000330004
0.000355766
0.000378468
0.000398853
0.000417505
0.00043488
0.000451326
0.000467107
0.000482423
0.000497421
0.000512207
0.000526863
0.000541447
0.000555999
0.000570553
0.000585132
0.000599754
0.000614432
0.000629178
0.000644001