/*--------------------------------*- C++ -*----------------------------------*\
  =========                 |
  \\      /  F ield         | OpenFOAM: The Open Source CFD Toolbox
   \\    /   O peration     | Website:  https://openfoam.org
    \\  /    A nd           | Version:  7
     \\/     M anipulation  |
\*---------------------------------------------------------------------------*/
FoamFile
{
    version     2.0;
    format      ascii;
    class       volScalarField;
    location    "0.24";
    object      p;
}
// * * * * * * * * * * * * * * * * * * * * * * * * * * * * * * * * * * * * * //

dimensions      [0 2 -2 0 0 0 0];

internalField   nonuniform List<scalar> 
12225
(
-2.37648
-1.78031
-1.71576
-1.76615
-1.70147
-1.59972
-1.52442
-1.47421
-1.43509
-1.40302
-1.37847
-1.36092
-1.3489
-1.34117
-1.33705
-1.33559
-1.33797
-1.33575
-3.72929
-2.49278
-1.96167
-1.82179
-1.70795
-1.59392
-1.51495
-1.46394
-1.42531
-1.39413
-1.37049
-1.3537
-1.34233
-1.33516
-1.33152
-1.33068
-1.33288
-1.33723
-3.4862
-2.30443
-1.84834
-1.75943
-1.67595
-1.57626
-1.50265
-1.45393
-1.41691
-1.3871
-1.36451
-1.34849
-1.33768
-1.33097
-1.32771
-1.3273
-1.32997
-1.33571
-3.04118
-2.19401
-1.82675
-1.74348
-1.66198
-1.56618
-1.49436
-1.44637
-1.41019
-1.38133
-1.3595
-1.34404
-1.33365
-1.32729
-1.32429
-1.32421
-1.32692
-1.333
-2.74646
-2.17045
-1.8371
-1.73197
-1.64608
-1.55413
-1.48454
-1.43737
-1.40208
-1.37424
-1.35327
-1.33847
-1.3286
-1.32265
-1.31998
-1.32019
-1.32285
-1.32873
-2.53978
-2.13472
-1.82846
-1.70997
-1.62515
-1.53933
-1.47284
-1.4269
-1.39273
-1.36606
-1.34608
-1.33203
-1.32274
-1.31727
-1.31495
-1.31539
-1.31801
-1.32352
-2.36236
-2.07226
-1.80376
-1.68253
-1.60116
-1.52193
-1.45903
-1.41474
-1.38196
-1.35665
-1.3378
-1.3246
-1.31599
-1.31104
-1.3091
-1.30976
-1.31238
-1.31754
-2.20195
-1.99611
-1.77012
-1.6516
-1.57391
-1.50129
-1.44249
-1.40034
-1.36929
-1.34557
-1.32801
-1.31582
-1.30799
-1.30365
-1.30216
-1.30308
-1.30576
-1.31067
-2.05727
-1.91325
-1.72826
-1.61614
-1.54265
-1.47681
-1.42271
-1.38322
-1.35424
-1.33236
-1.31632
-1.30531
-1.29841
-1.2948
-1.29384
-1.2951
-1.29794
-1.30274
-1.92573
-1.82571
-1.67765
-1.57524
-1.50695
-1.44809
-1.39922
-1.36294
-1.33641
-1.31665
-1.30236
-1.29275
-1.28694
-1.2842
-1.28389
-1.28559
-1.28871
-1.29354
-1.80393
-1.73469
-1.61869
-1.52851
-1.46654
-1.41477
-1.37161
-1.3391
-1.31542
-1.29809
-1.28582
-1.27782
-1.27331
-1.27159
-1.27208
-1.27436
-1.27788
-1.28291
-1.69836
-1.64874
-1.5577
-1.4801
-1.42488
-1.37975
-1.3422
-1.31366
-1.293
-1.27821
-1.26804
-1.26174
-1.25861
-1.258
-1.25937
-1.26232
-1.26635
-1.27175
-1.59789
-1.5621
-1.49219
-1.42733
-1.37936
-1.34097
-1.30928
-1.28509
-1.26778
-1.25577
-1.24794
-1.24356
-1.24198
-1.24265
-1.24505
-1.24881
-1.25348
-1.25933
-1.48628
-1.46167
-1.4114
-1.3608
-1.32182
-1.2913
-1.26661
-1.24789
-1.23486
-1.22644
-1.22162
-1.21972
-1.22019
-1.22254
-1.22632
-1.23121
-1.23681
-1.24333
-1.36136
-1.34567
-1.31273
-1.2773
-1.24915
-1.22784
-1.21137
-1.19945
-1.19192
-1.18808
-1.18712
-1.18847
-1.19164
-1.19624
-1.2019
-1.20834
-1.21524
-1.22279
-1.21968
-1.21113
-1.1931
-1.17316
-1.15761
-1.14705
-1.14022
-1.1366
-1.13603
-1.13805
-1.14208
-1.14765
-1.15439
-1.162
-1.17019
-1.17877
-1.1875
-1.19654
-1.05553
-1.05294
-1.04803
-1.04374
-1.04254
-1.04463
-1.04917
-1.05566
-1.06381
-1.0733
-1.08373
-1.09478
-1.1062
-1.1178
-1.12941
-1.1409
-1.15213
-1.16327
-0.859149
-0.862172
-0.870028
-0.882378
-0.897834
-0.91514
-0.933486
-0.952397
-0.971521
-0.990541
-1.00921
-1.02736
-1.0449
-1.06176
-1.07789
-1.09328
-1.10788
-1.12191
-0.612546
-0.622753
-0.64625
-0.679174
-0.71558
-0.752136
-0.787896
-0.822535
-0.855623
-0.886816
-0.916008
-0.943255
-0.968654
-0.992304
-1.01431
-1.03479
-1.05383
-1.07171
-0.351839
-0.371564
-0.41563
-0.474178
-0.534883
-0.592607
-0.647103
-0.698448
-0.746084
-0.789687
-0.829446
-0.865734
-0.89888
-0.929169
-0.956872
-0.982258
-1.00554
-1.0271
-0.116332
-0.147475
-0.21641
-0.303423
-0.388132
-0.465273
-0.536701
-0.602897
-0.66299
-0.716847
-0.765154
-0.808657
-0.847901
-0.883342
-0.915418
-0.94454
-0.971031
-0.995371
0.124074
0.0754015
-0.0288655
-0.150785
-0.260366
-0.356242
-0.444193
-0.524542
-0.595856
-0.658577
-0.71416
-0.763733
-0.808023
-0.847662
-0.883266
-0.915381
-0.944426
-0.97096
0.374964
0.29842
0.144339
-0.0180262
-0.151185
-0.264617
-0.368723
-0.462172
-0.54308
-0.613152
-0.674768
-0.729318
-0.777658
-0.820615
-0.858985
-0.893435
-0.924464
-0.952686
0.642846
0.520312
0.297221
0.0929174
-0.0590554
-0.188864
-0.309051
-0.414157
-0.502718
-0.578615
-0.645105
-0.703616
-0.755095
-0.80059
-0.841065
-0.877285
-0.90981
-0.939293
0.936284
0.740208
0.422121
0.179557
0.017441
-0.127084
-0.263068
-0.378108
-0.472461
-0.552874
-0.62324
-0.684829
-0.738681
-0.786073
-0.82812
-0.865653
-0.899289
-0.929698
1.26022
0.963832
0.521947
0.244553
0.0785968
-0.0789468
-0.228879
-0.351537
-0.450122
-0.534084
-0.607519
-0.671465
-0.727094
-0.775902
-0.819115
-0.857609
-0.892049
-0.923101
1.59499
1.17432
0.611914
0.308484
0.131361
-0.0437175
-0.205366
-0.332817
-0.43429
-0.521093
-0.596955
-0.662685
-0.719646
-0.769528
-0.813629
-0.852844
-0.887896
-0.919449
1.93204
1.24537
0.65005
0.389682
0.198374
-0.00858544
-0.185377
-0.317693
-0.422127
-0.511786
-0.589849
-0.657013
-0.714943
-0.765553
-0.810214
-0.849842
-0.885228
-0.917076
2.56494
1.02613
0.383746
0.291322
0.173538
-0.0226078
-0.196663
-0.324404
-0.426252
-0.515342
-0.593409
-0.660526
-0.718336
-0.768807
-0.81329
-0.852649
-0.887648
-0.919254
4.96716
2.04166
0.750862
0.47626
0.273075
0.024673
-0.174219
-0.31213
-0.418884
-0.511131
-0.591394
-0.660041
-0.718983
-0.77036
-0.815584
-0.855483
-0.890636
-0.921153
-1.48046
-1.48049
-1.48073
-1.48114
-1.48166
-1.48228
-1.48299
-1.48379
-1.4847
-1.48572
-1.48686
-1.48813
-1.48955
-1.49111
-1.49283
-1.49472
-1.49678
-1.49902
-1.50144
-1.50404
-1.50683
-1.5098
-1.51297
-1.51632
-1.51987
-1.52361
-1.52754
-1.53166
-1.53597
-1.54047
-1.54515
-1.55002
-1.55508
-1.56031
-1.56573
-1.57132
-1.57708
-1.58301
-1.5891
-1.59535
-1.60174
-1.60828
-1.61494
-1.62173
-1.62863
-1.63564
-1.64272
-1.64988
-1.65709
-1.66433
-1.6716
-1.67886
-1.6861
-1.6933
-1.70045
-1.70756
-1.71464
-1.72175
-1.72904
-1.73673
-1.74541
-1.75629
-1.76722
-1.76098
-1.74351
-1.74729
-1.76463
-1.77383
-1.77708
-1.78397
-1.77629
-1.75241
-1.75077
-1.7602
-1.76166
-1.76275
-1.75997
-1.76072
-1.74686
-1.73536
-1.72735
-1.70364
-1.68486
-1.66691
-1.64846
-1.62886
-1.60787
-1.58535
-1.56122
-1.53543
-1.50796
-1.47881
-1.44796
-1.41538
-1.38095
-1.34469
-1.30664
-1.26681
-1.22521
-1.18185
-1.13676
-1.08995
-1.04143
-0.991249
-0.939421
-0.885985
-0.83098
-0.774448
-0.716436
-0.656995
-0.596178
-0.534045
-0.470657
-0.406079
-0.34038
-0.273631
-0.205905
-0.13728
-0.0678317
0.00235775
0.0732073
0.144634
0.216556
0.288888
0.361549
0.434456
0.507528
0.580685
0.653849
0.726941
0.799886
0.872611
0.945042
1.01711
1.08875
1.15989
1.23048
1.30045
1.36975
1.43832
1.50611
1.57308
1.63918
1.70436
1.76859
1.83184
1.89407
1.95525
2.01536
2.07439
2.1323
2.1891
2.24478
2.29933
2.35275
2.40505
2.45625
2.50589
2.55403
2.60166
2.64799
2.69329
2.73734
2.77962
2.82064
2.86143
2.90113
2.93834
2.975
3.01093
3.04576
3.07921
3.10914
3.13373
3.17328
3.21018
3.2258
3.26153
3.30104
3.321
-1.47958
-1.47978
-1.48009
-1.48046
-1.48081
-1.48115
-1.48156
-1.48206
-1.4827
-1.48349
-1.48443
-1.48553
-1.48679
-1.48822
-1.48982
-1.49161
-1.49357
-1.49572
-1.49806
-1.50059
-1.5033
-1.50621
-1.50932
-1.51261
-1.5161
-1.51978
-1.52364
-1.5277
-1.53194
-1.53637
-1.54099
-1.54578
-1.55076
-1.55591
-1.56124
-1.56674
-1.5724
-1.57822
-1.5842
-1.59033
-1.59661
-1.60301
-1.60954
-1.61619
-1.62294
-1.62979
-1.63671
-1.64369
-1.65072
-1.65778
-1.66484
-1.67189
-1.67892
-1.68588
-1.69276
-1.69952
-1.7061
-1.71241
-1.7183
-1.72354
-1.72762
-1.72873
-1.72559
-1.73529
-1.75855
-1.76292
-1.75375
-1.75053
-1.75288
-1.74919
-1.7526
-1.77029
-1.76789
-1.75501
-1.74894
-1.74084
-1.73366
-1.72047
-1.71662
-1.70871
-1.69533
-1.69199
-1.67949
-1.66402
-1.64675
-1.62788
-1.60745
-1.58542
-1.56175
-1.53641
-1.50936
-1.48057
-1.45
-1.4176
-1.38345
-1.34759
-1.30998
-1.2706
-1.22948
-1.1866
-1.14199
-1.09565
-1.04762
-0.997915
-0.946564
-0.893602
-0.839066
-0.782997
-0.725441
-0.666447
-0.606069
-0.544364
-0.481393
-0.41722
-0.351913
-0.285542
-0.21818
-0.149902
-0.0807867
-0.0109126
0.0596387
0.130785
0.202444
0.274532
0.346967
0.419668
0.492552
0.565541
0.638555
0.711517
0.784351
0.856983
0.929341
1.00135
1.07296
1.14408
1.21466
1.28465
1.35398
1.42259
1.49045
1.55749
1.62367
1.68896
1.7533
1.81667
1.87903
1.94036
2.00063
2.05981
2.1179
2.17487
2.23072
2.28544
2.33903
2.3915
2.44288
2.493
2.542
2.58953
2.63608
2.68127
2.7252
2.7683
2.8103
2.85045
2.88924
2.92845
2.96557
3.00124
3.03577
3.06867
3.10189
3.13748
3.16461
3.19101
3.22747
3.25479
3.28537
3.32568
-1.47746
-1.47808
-1.47878
-1.47937
-1.47977
-1.48007
-1.48038
-1.48078
-1.48131
-1.482
-1.48284
-1.48385
-1.48504
-1.4864
-1.48795
-1.48967
-1.49159
-1.49368
-1.49597
-1.49844
-1.5011
-1.50395
-1.50699
-1.51022
-1.51364
-1.51724
-1.52103
-1.525
-1.52916
-1.5335
-1.53802
-1.54273
-1.54761
-1.55267
-1.5579
-1.5633
-1.56887
-1.5746
-1.58049
-1.58653
-1.59272
-1.59904
-1.6055
-1.61207
-1.61876
-1.62554
-1.63241
-1.63935
-1.64634
-1.65337
-1.66042
-1.66747
-1.67449
-1.68146
-1.68835
-1.69512
-1.70175
-1.70817
-1.71431
-1.72005
-1.72511
-1.72891
-1.73154
-1.73741
-1.74723
-1.75322
-1.75409
-1.75399
-1.75414
-1.75353
-1.75507
-1.76029
-1.76043
-1.75548
-1.75064
-1.74425
-1.73691
-1.72808
-1.72038
-1.71085
-1.69918
-1.6891
-1.67615
-1.66121
-1.64453
-1.6262
-1.60626
-1.58469
-1.56147
-1.53658
-1.50999
-1.48166
-1.45158
-1.41973
-1.38614
-1.3508
-1.31372
-1.27489
-1.23431
-1.19199
-1.14793
-1.10216
-1.05469
-1.00555
-0.954762
-0.902361
-0.848382
-0.792865
-0.735854
-0.677398
-0.617549
-0.556363
-0.493899
-0.430221
-0.365394
-0.299489
-0.232577
-0.164733
-0.0960325
-0.0265557
0.0436176
0.114406
0.185726
0.257497
0.329637
0.402063
0.474696
0.547455
0.620262
0.69304
0.765712
0.838205
0.910445
0.982364
1.05389
1.12496
1.19552
1.26549
1.33483
1.40348
1.47138
1.53848
1.60475
1.67014
1.7346
1.79809
1.8606
1.92208
1.98252
2.04188
2.10015
2.15732
2.21337
2.26828
2.32205
2.37465
2.42603
2.47646
2.52599
2.57383
2.62058
2.66607
2.71025
2.75362
2.7959
2.8364
2.87555
2.91482
2.95215
2.98816
3.02308
3.05656
3.09042
3.12535
3.15384
3.18075
3.21625
3.24509
3.27575
3.31179
-1.47456
-1.47553
-1.47677
-1.47782
-1.47852
-1.47903
-1.47948
-1.47997
-1.48055
-1.48126
-1.48211
-1.48313
-1.48433
-1.48569
-1.48724
-1.48896
-1.49087
-1.49296
-1.49523
-1.49769
-1.50033
-1.50316
-1.50617
-1.50936
-1.51274
-1.5163
-1.52004
-1.52396
-1.52807
-1.53235
-1.53682
-1.54146
-1.54628
-1.55127
-1.55644
-1.56177
-1.56728
-1.57295
-1.57878
-1.58476
-1.59089
-1.59716
-1.60357
-1.6101
-1.61675
-1.62349
-1.63033
-1.63725
-1.64422
-1.65124
-1.65828
-1.66532
-1.67234
-1.67931
-1.68621
-1.693
-1.69964
-1.70609
-1.71228
-1.71811
-1.72344
-1.72815
-1.73254
-1.73748
-1.74298
-1.74766
-1.75067
-1.75244
-1.75332
-1.75374
-1.75444
-1.75533
-1.75478
-1.75211
-1.74816
-1.74294
-1.73642
-1.72901
-1.72076
-1.7113
-1.70052
-1.68872
-1.67551
-1.66073
-1.64435
-1.62636
-1.60677
-1.58556
-1.56269
-1.53815
-1.5119
-1.48394
-1.45423
-1.42279
-1.38961
-1.35469
-1.31803
-1.27962
-1.23947
-1.19759
-1.15397
-1.10864
-1.06161
-1.01291
-0.962563
-0.910599
-0.857055
-0.801969
-0.745384
-0.687348
-0.627911
-0.56713
-0.505062
-0.441769
-0.377319
-0.311778
-0.245218
-0.177713
-0.10934
-0.0401749
0.0297007
0.100206
0.17126
0.24278
0.314684
0.386893
0.459324
0.5319
0.60454
0.677169
0.74971
0.82209
0.894234
0.966074
1.03754
1.10857
1.17909
1.24906
1.3184
1.38706
1.455
1.52215
1.58848
1.65394
1.71849
1.78209
1.84471
1.90631
1.96688
2.02638
2.0848
2.14212
2.19833
2.2534
2.30734
2.36009
2.41159
2.4621
2.51183
2.55994
2.60677
2.65249
2.69689
2.74037
2.78273
2.82363
2.86314
2.90227
2.93979
2.97606
3.01135
3.04529
3.07912
3.11285
3.14304
3.17161
3.20461
3.23434
3.26555
3.29523
-1.47169
-1.47301
-1.47478
-1.47632
-1.47741
-1.47821
-1.4789
-1.47957
-1.48029
-1.48111
-1.48205
-1.48315
-1.4844
-1.48581
-1.4874
-1.48916
-1.4911
-1.49321
-1.4955
-1.49797
-1.50061
-1.50343
-1.50643
-1.50961
-1.51297
-1.5165
-1.52022
-1.52411
-1.52818
-1.53242
-1.53685
-1.54145
-1.54623
-1.55118
-1.55631
-1.56161
-1.56707
-1.5727
-1.5785
-1.58445
-1.59055
-1.5968
-1.60318
-1.6097
-1.61633
-1.62307
-1.6299
-1.63681
-1.64379
-1.65081
-1.65786
-1.66491
-1.67195
-1.67894
-1.68585
-1.69266
-1.69932
-1.70578
-1.71199
-1.71787
-1.72335
-1.72842
-1.73322
-1.738
-1.74267
-1.7467
-1.74975
-1.75196
-1.75344
-1.75429
-1.75477
-1.75476
-1.75366
-1.75123
-1.74757
-1.74272
-1.73673
-1.72959
-1.72143
-1.71213
-1.70153
-1.68971
-1.67651
-1.66184
-1.64563
-1.62785
-1.60849
-1.58752
-1.5649
-1.5406
-1.51462
-1.48692
-1.45749
-1.42634
-1.39345
-1.35882
-1.32245
-1.28434
-1.24449
-1.2029
-1.15958
-1.11455
-1.06783
-1.01943
-0.969377
-0.91771
-0.864461
-0.809666
-0.753369
-0.695616
-0.636458
-0.575949
-0.514149
-0.451118
-0.386921
-0.321627
-0.255306
-0.188032
-0.119881
-0.0509289
0.0187433
0.0890551
0.159925
0.231272
0.303014
0.375071
0.447363
0.51981
0.592334
0.664859
0.737307
0.809605
0.88168
0.953463
1.02488
1.09588
1.16638
1.23633
1.30567
1.37434
1.4423
1.50949
1.57586
1.64137
1.70598
1.76964
1.83234
1.89402
1.95468
2.01428
2.0728
2.13023
2.18655
2.24174
2.29579
2.34866
2.40031
2.45088
2.50057
2.54886
2.59579
2.64165
2.68624
2.72977
2.77215
2.8133
2.85308
2.89209
2.9298
2.96622
3.0017
3.03593
3.06963
3.10294
3.13371
3.16318
3.19496
3.22436
3.25519
3.28025
-1.46948
-1.47106
-1.47325
-1.47521
-1.47667
-1.47778
-1.47873
-1.47962
-1.48052
-1.4815
-1.48257
-1.48378
-1.48512
-1.48662
-1.48828
-1.4901
-1.49208
-1.49423
-1.49655
-1.49904
-1.50171
-1.50454
-1.50754
-1.51072
-1.51407
-1.51759
-1.52129
-1.52516
-1.52921
-1.53344
-1.53784
-1.54242
-1.54717
-1.5521
-1.5572
-1.56248
-1.56793
-1.57354
-1.57932
-1.58526
-1.59136
-1.5976
-1.60399
-1.6105
-1.61714
-1.62389
-1.63073
-1.63766
-1.64466
-1.6517
-1.65877
-1.66585
-1.67291
-1.67992
-1.68686
-1.69369
-1.70036
-1.70685
-1.71309
-1.71904
-1.72465
-1.72992
-1.73488
-1.73961
-1.744
-1.74781
-1.75089
-1.75323
-1.75489
-1.75592
-1.75634
-1.75605
-1.75477
-1.75236
-1.74884
-1.74417
-1.73837
-1.73144
-1.72337
-1.71411
-1.70361
-1.69183
-1.67866
-1.66406
-1.64795
-1.63031
-1.6111
-1.59028
-1.56783
-1.54371
-1.51791
-1.4904
-1.46117
-1.43021
-1.39751
-1.36308
-1.32691
-1.28899
-1.24934
-1.20794
-1.16482
-1.11999
-1.07346
-1.02525
-0.9754
-0.923927
-0.870869
-0.816264
-0.760155
-0.702586
-0.64361
-0.58328
-0.521655
-0.458796
-0.394767
-0.329636
-0.263475
-0.196355
-0.128352
-0.059544
0.00999004
0.0801695
0.150913
0.22214
0.293769
0.36572
0.437913
0.510268
0.582709
0.655156
0.727535
0.799772
0.871794
0.943531
1.01491
1.08588
1.15636
1.22629
1.29562
1.3643
1.43226
1.49946
1.56586
1.63139
1.69604
1.75974
1.82248
1.88422
1.94494
2.0046
2.06319
2.12069
2.17708
2.23235
2.28648
2.33943
2.39119
2.44183
2.49148
2.53984
2.58688
2.63282
2.67753
2.72113
2.76358
2.80482
2.84476
2.88381
2.92159
2.95814
2.9937
3.02807
3.06177
3.09473
3.12579
3.15568
3.18654
3.21546
3.24554
3.26673
-1.46826
-1.46999
-1.47247
-1.47474
-1.47649
-1.47787
-1.47906
-1.48017
-1.48126
-1.48239
-1.48361
-1.48494
-1.48639
-1.48798
-1.48971
-1.4916
-1.49364
-1.49584
-1.4982
-1.50072
-1.5034
-1.50625
-1.50927
-1.51245
-1.5158
-1.51932
-1.52302
-1.52688
-1.53092
-1.53514
-1.53953
-1.54409
-1.54884
-1.55376
-1.55886
-1.56413
-1.56957
-1.57519
-1.58097
-1.58692
-1.59302
-1.59928
-1.60568
-1.61221
-1.61887
-1.62564
-1.63251
-1.63947
-1.64649
-1.65357
-1.66067
-1.66778
-1.67487
-1.68192
-1.68888
-1.69574
-1.70245
-1.70896
-1.71525
-1.72126
-1.72696
-1.73234
-1.73738
-1.74208
-1.74637
-1.75011
-1.75321
-1.75563
-1.75738
-1.75846
-1.75884
-1.75844
-1.7571
-1.75472
-1.75127
-1.74671
-1.74102
-1.7342
-1.72621
-1.71701
-1.70655
-1.69478
-1.68164
-1.66708
-1.65104
-1.63347
-1.61435
-1.59363
-1.57128
-1.54728
-1.52159
-1.4942
-1.46509
-1.43425
-1.40168
-1.36737
-1.33131
-1.29352
-1.25398
-1.21271
-1.1697
-1.12499
-1.07858
-1.03049
-0.980752
-0.929396
-0.876454
-0.821965
-0.765969
-0.708514
-0.64965
-0.589431
-0.527915
-0.465163
-0.401241
-0.336216
-0.270157
-0.203138
-0.135234
-0.0665229
0.00291729
0.0730057
0.143661
0.214804
0.286351
0.358225
0.430345
0.502631
0.575007
0.647395
0.719718
0.791904
0.863881
0.935576
1.00692
1.07785
1.14831
1.21822
1.28754
1.3562
1.42416
1.49136
1.55775
1.6233
1.68796
1.75168
1.81445
1.87622
1.93697
1.99667
2.0553
2.11284
2.16927
2.22458
2.27876
2.33177
2.3836
2.43429
2.48393
2.53232
2.57945
2.62545
2.67024
2.7139
2.7564
2.7977
2.83776
2.87683
2.91467
2.95131
2.98692
3.02137
3.05503
3.08775
3.11891
3.14895
3.17908
3.20736
3.23659
3.25465
-1.46814
-1.46993
-1.47255
-1.475
-1.47696
-1.47855
-1.47993
-1.48122
-1.48248
-1.48376
-1.4851
-1.48654
-1.48809
-1.48976
-1.49157
-1.49352
-1.49561
-1.49785
-1.50025
-1.5028
-1.50551
-1.50838
-1.51141
-1.5146
-1.51796
-1.52148
-1.52518
-1.52904
-1.53308
-1.53729
-1.54168
-1.54625
-1.551
-1.55592
-1.56103
-1.56631
-1.57176
-1.57739
-1.58319
-1.58916
-1.59528
-1.60156
-1.60799
-1.61455
-1.62125
-1.62805
-1.63496
-1.64196
-1.64902
-1.65614
-1.66329
-1.67044
-1.67757
-1.68465
-1.69165
-1.69854
-1.70528
-1.71184
-1.71817
-1.72424
-1.73001
-1.73545
-1.74055
-1.74525
-1.7495
-1.75323
-1.75635
-1.75882
-1.76062
-1.76172
-1.76208
-1.76162
-1.76025
-1.75789
-1.75448
-1.74998
-1.74437
-1.73761
-1.72966
-1.72049
-1.71005
-1.6983
-1.68517
-1.67062
-1.6546
-1.63707
-1.61799
-1.59732
-1.57503
-1.55108
-1.52545
-1.49812
-1.46907
-1.4383
-1.40579
-1.37154
-1.33554
-1.2978
-1.25832
-1.21711
-1.17416
-1.1295
-1.08315
-1.03512
-0.98544
-0.934142
-0.881258
-0.826827
-0.770891
-0.713495
-0.654691
-0.594532
-0.533077
-0.470388
-0.406527
-0.341564
-0.275569
-0.208613
-0.140773
-0.0721242
-0.00274705
0.0672788
0.137873
0.208954
0.280442
0.352257
0.424321
0.496553
0.568877
0.641214
0.71349
0.78563
0.857564
0.929219
1.00053
1.07142
1.14185
1.21173
1.28102
1.34966
1.4176
1.48478
1.55117
1.61671
1.68136
1.74509
1.80786
1.86964
1.93039
1.99011
2.04876
2.10632
2.16278
2.21811
2.27231
2.32536
2.37724
2.42796
2.47758
2.526
2.57319
2.61923
2.66408
2.70778
2.75032
2.79167
2.83181
2.8709
2.90878
2.94548
2.98112
3.01561
3.0492
3.08173
3.11288
3.14287
3.17239
3.19998
3.22836
3.24385
-1.46908
-1.47085
-1.47348
-1.476
-1.47807
-1.47979
-1.48132
-1.48274
-1.48412
-1.48552
-1.48696
-1.48849
-1.49011
-1.49185
-1.49372
-1.49572
-1.49785
-1.50013
-1.50256
-1.50513
-1.50786
-1.51074
-1.51378
-1.51698
-1.52035
-1.52388
-1.52758
-1.53145
-1.53549
-1.53971
-1.54411
-1.54869
-1.55345
-1.55838
-1.5635
-1.5688
-1.57428
-1.57993
-1.58576
-1.59176
-1.59792
-1.60424
-1.6107
-1.61731
-1.62405
-1.6309
-1.63786
-1.6449
-1.65201
-1.65918
-1.66637
-1.67357
-1.68074
-1.68787
-1.69492
-1.70185
-1.70864
-1.71524
-1.72162
-1.72774
-1.73356
-1.73906
-1.74418
-1.7489
-1.75315
-1.75688
-1.76002
-1.76252
-1.76435
-1.76546
-1.7658
-1.76531
-1.76392
-1.76155
-1.75816
-1.75369
-1.74811
-1.74137
-1.73345
-1.72429
-1.71385
-1.70208
-1.68894
-1.67438
-1.65836
-1.64083
-1.62175
-1.60109
-1.57881
-1.55488
-1.52926
-1.50195
-1.47291
-1.44215
-1.40965
-1.37541
-1.33942
-1.30169
-1.26222
-1.22101
-1.17808
-1.13343
-1.08709
-1.03907
-0.989404
-0.93812
-0.885252
-0.830839
-0.774921
-0.717546
-0.658764
-0.598631
-0.537203
-0.474542
-0.410713
-0.345784
-0.279824
-0.212907
-0.145106
-0.0764994
-0.00716552
0.0628156
0.133364
0.204398
0.275839
0.347607
0.419623
0.491809
0.564085
0.636376
0.708607
0.780702
0.85259
0.924201
0.995467
1.06632
1.1367
1.20655
1.27581
1.34441
1.41232
1.47948
1.54584
1.61135
1.67599
1.7397
1.80246
1.86423
1.92498
1.98469
2.04334
2.1009
2.15736
2.21271
2.26692
2.31998
2.37188
2.42262
2.47224
2.52067
2.56789
2.61397
2.65885
2.70258
2.74515
2.78653
2.82673
2.86582
2.90374
2.94048
2.97612
3.01062
3.04412
3.0765
3.10755
3.13739
3.16635
3.19325
3.22081
3.23419
-1.47094
-1.47263
-1.47517
-1.47766
-1.47975
-1.48153
-1.48313
-1.48464
-1.4861
-1.48757
-1.48909
-1.49067
-1.49235
-1.49414
-1.49604
-1.49807
-1.50023
-1.50253
-1.50497
-1.50756
-1.5103
-1.51319
-1.51623
-1.51944
-1.52281
-1.52635
-1.53006
-1.53394
-1.53799
-1.54222
-1.54664
-1.55123
-1.55601
-1.56097
-1.56611
-1.57144
-1.57695
-1.58264
-1.58851
-1.59455
-1.60075
-1.60711
-1.61363
-1.62029
-1.62707
-1.63398
-1.64099
-1.64809
-1.65526
-1.66247
-1.66972
-1.67697
-1.68419
-1.69137
-1.69846
-1.70544
-1.71227
-1.71892
-1.72534
-1.73151
-1.73738
-1.74291
-1.74806
-1.7528
-1.75706
-1.76079
-1.76394
-1.76645
-1.76829
-1.76939
-1.76972
-1.7692
-1.76778
-1.7654
-1.76199
-1.75752
-1.75194
-1.7452
-1.73726
-1.72808
-1.71761
-1.70582
-1.69264
-1.67805
-1.662
-1.64444
-1.62534
-1.60465
-1.58235
-1.55839
-1.53276
-1.50542
-1.47635
-1.44556
-1.41303
-1.37876
-1.34275
-1.30499
-1.26549
-1.22426
-1.1813
-1.13662
-1.09026
-1.04222
-0.992536
-0.941237
-0.888355
-0.833931
-0.778006
-0.720626
-0.661843
-0.601711
-0.54029
-0.477638
-0.413823
-0.348911
-0.282971
-0.216079
-0.148306
-0.0797301
-0.0104304
0.0595137
0.130022
0.201016
0.272414
0.344137
0.416106
0.488243
0.56047
0.632711
0.704891
0.776936
0.848774
0.920334
0.99155
1.06236
1.13269
1.20249
1.27169
1.34026
1.40812
1.47523
1.54155
1.60704
1.67164
1.73532
1.79804
1.85979
1.92052
1.98021
2.03884
2.09639
2.15284
2.20818
2.26239
2.31545
2.36736
2.41811
2.46772
2.51615
2.56339
2.60948
2.65439
2.69814
2.74073
2.78214
2.82237
2.86147
2.8994
2.93616
2.9718
3.00628
3.03968
3.07191
3.10282
3.13242
3.16089
3.18711
3.21392
3.22553
-1.47354
-1.4751
-1.47747
-1.47984
-1.48188
-1.48366
-1.48528
-1.48681
-1.48831
-1.48981
-1.49136
-1.49298
-1.49468
-1.49648
-1.4984
-1.50044
-1.50261
-1.50491
-1.50735
-1.50994
-1.51268
-1.51558
-1.51863
-1.52184
-1.52521
-1.52876
-1.53247
-1.53636
-1.54043
-1.54468
-1.54912
-1.55374
-1.55854
-1.56353
-1.56871
-1.57408
-1.57963
-1.58536
-1.59127
-1.59736
-1.60362
-1.61003
-1.6166
-1.62332
-1.63016
-1.63713
-1.64419
-1.65135
-1.65857
-1.66584
-1.67314
-1.68044
-1.68771
-1.69494
-1.70207
-1.70909
-1.71596
-1.72265
-1.72911
-1.73531
-1.74121
-1.74676
-1.75193
-1.75667
-1.76093
-1.76466
-1.7678
-1.77031
-1.77213
-1.77321
-1.7735
-1.77295
-1.77149
-1.76907
-1.76563
-1.76113
-1.75552
-1.74874
-1.74077
-1.73154
-1.72103
-1.70918
-1.69595
-1.6813
-1.66519
-1.64758
-1.62843
-1.60769
-1.58534
-1.56133
-1.53564
-1.50824
-1.47912
-1.44827
-1.41568
-1.38135
-1.34528
-1.30747
-1.26792
-1.22663
-1.18362
-1.1389
-1.09249
-1.04441
-0.994688
-0.943354
-0.890442
-0.835992
-0.780044
-0.722647
-0.663851
-0.603712
-0.542287
-0.479638
-0.415829
-0.350928
-0.285005
-0.218133
-0.150387
-0.0818435
-0.0125801
0.0573242
0.12779
0.198738
0.270087
0.34176
0.413676
0.485757
0.557927
0.63011
0.702231
0.774215
0.845991
0.91749
0.988643
1.05939
1.12966
1.19939
1.26854
1.33704
1.40484
1.4719
1.53817
1.6036
1.66815
1.73178
1.79447
1.85617
1.91686
1.97652
2.03512
2.09265
2.14907
2.20439
2.25858
2.31163
2.36353
2.41428
2.46388
2.5123
2.55956
2.60566
2.65058
2.69434
2.73694
2.77837
2.81861
2.85773
2.89566
2.93242
2.96804
3.00249
3.03579
3.06786
3.0986
3.12793
3.15592
3.18151
3.20761
3.21777
-1.47667
-1.47806
-1.48021
-1.4824
-1.48433
-1.48604
-1.48762
-1.48913
-1.49062
-1.49212
-1.49366
-1.49527
-1.49697
-1.49876
-1.50067
-1.5027
-1.50486
-1.50715
-1.50959
-1.51217
-1.5149
-1.51779
-1.52083
-1.52405
-1.52743
-1.53098
-1.53471
-1.53861
-1.5427
-1.54697
-1.55143
-1.55608
-1.56092
-1.56595
-1.57117
-1.57658
-1.58218
-1.58796
-1.59393
-1.60007
-1.60638
-1.61285
-1.61948
-1.62625
-1.63315
-1.64017
-1.64729
-1.6545
-1.66177
-1.66909
-1.67644
-1.68378
-1.69109
-1.69835
-1.70552
-1.71257
-1.71946
-1.72617
-1.73265
-1.73886
-1.74477
-1.75032
-1.75549
-1.76021
-1.76445
-1.76815
-1.77127
-1.77374
-1.77552
-1.77656
-1.7768
-1.77619
-1.77467
-1.77219
-1.7687
-1.76414
-1.75847
-1.75163
-1.74359
-1.7343
-1.72372
-1.71179
-1.69849
-1.68377
-1.66758
-1.6499
-1.63067
-1.60987
-1.58743
-1.56335
-1.53757
-1.51009
-1.48089
-1.44996
-1.4173
-1.38289
-1.34675
-1.30886
-1.26924
-1.22789
-1.18482
-1.14004
-1.09357
-1.04544
-0.995677
-0.944302
-0.891355
-0.836874
-0.780903
-0.723488
-0.664682
-0.604537
-0.543112
-0.480469
-0.416673
-0.35179
-0.285891
-0.219048
-0.151337
-0.0828344
-0.0136165
0.056238
0.12665
0.19754
0.268829
0.340438
0.412287
0.4843
0.556399
0.628508
0.700554
0.772462
0.844161
0.915581
0.986655
1.05732
1.12751
1.19717
1.26624
1.33466
1.40239
1.46938
1.53557
1.60093
1.66541
1.72899
1.79161
1.85326
1.9139
1.97351
2.03207
2.08955
2.14594
2.20123
2.25539
2.30842
2.3603
2.41103
2.46061
2.50903
2.55629
2.60238
2.64731
2.69108
2.73369
2.77512
2.81538
2.85449
2.89243
2.92919
2.96477
2.99917
3.03237
3.06429
3.09482
3.12387
3.15141
3.17641
3.20185
3.21081
-1.48015
-1.48135
-1.48323
-1.48519
-1.48696
-1.48855
-1.49005
-1.49149
-1.49293
-1.49438
-1.49588
-1.49745
-1.49911
-1.50087
-1.50274
-1.50474
-1.50687
-1.50914
-1.51155
-1.51411
-1.51683
-1.51971
-1.52276
-1.52597
-1.52935
-1.53292
-1.53666
-1.54058
-1.54469
-1.549
-1.55349
-1.55817
-1.56305
-1.56812
-1.57339
-1.57884
-1.58449
-1.59032
-1.59634
-1.60253
-1.60889
-1.61542
-1.62209
-1.62891
-1.63586
-1.64293
-1.65009
-1.65734
-1.66465
-1.672
-1.67937
-1.68674
-1.69407
-1.70134
-1.70852
-1.71557
-1.72247
-1.72917
-1.73564
-1.74183
-1.74771
-1.75324
-1.75837
-1.76305
-1.76724
-1.77089
-1.77394
-1.77635
-1.77806
-1.77903
-1.77919
-1.7785
-1.77689
-1.77433
-1.77075
-1.76611
-1.76035
-1.75343
-1.74531
-1.73593
-1.72526
-1.71325
-1.69986
-1.68505
-1.66878
-1.65101
-1.6317
-1.61079
-1.58826
-1.56407
-1.5382
-1.51063
-1.48133
-1.45031
-1.41756
-1.38308
-1.34685
-1.30889
-1.2692
-1.22778
-1.18464
-1.13981
-1.09329
-1.04512
-0.995312
-0.943904
-0.890929
-0.836426
-0.780441
-0.723019
-0.664212
-0.604074
-0.542663
-0.48004
-0.416271
-0.351421
-0.285562
-0.218766
-0.151108
-0.0826635
-0.0135097
0.056276
0.126615
0.197428
0.268636
0.34016
0.411923
0.483846
0.555853
0.627869
0.699819
0.77163
0.84323
0.914552
0.985526
1.05609
1.12618
1.19574
1.26471
1.33304
1.40068
1.46757
1.53368
1.59895
1.66335
1.72685
1.7894
1.85097
1.91155
1.97109
2.02959
2.08702
2.14337
2.19861
2.25273
2.30572
2.35758
2.40829
2.45785
2.50625
2.5535
2.59959
2.64452
2.68828
2.73089
2.77233
2.8126
2.85171
2.88964
2.92638
2.96194
2.99627
3.02936
3.06112
3.09145
3.1202
3.14732
3.17176
3.19659
3.20458
-1.48378
-1.48479
-1.48638
-1.48808
-1.48965
-1.49109
-1.49245
-1.49378
-1.49512
-1.49648
-1.4979
-1.4994
-1.50099
-1.50269
-1.50451
-1.50646
-1.50854
-1.51077
-1.51316
-1.51569
-1.5184
-1.52126
-1.5243
-1.52752
-1.53091
-1.53448
-1.53824
-1.54219
-1.54633
-1.55066
-1.55518
-1.55991
-1.56482
-1.56994
-1.57524
-1.58074
-1.58643
-1.59231
-1.59837
-1.6046
-1.611
-1.61756
-1.62427
-1.63112
-1.63809
-1.64518
-1.65236
-1.65962
-1.66693
-1.67429
-1.68165
-1.689
-1.69632
-1.70356
-1.71071
-1.71773
-1.72458
-1.73123
-1.73765
-1.74378
-1.7496
-1.75506
-1.76011
-1.76471
-1.76881
-1.77237
-1.77532
-1.77763
-1.77924
-1.7801
-1.78016
-1.77936
-1.77765
-1.77498
-1.7713
-1.76655
-1.76069
-1.75368
-1.74545
-1.73598
-1.72521
-1.71311
-1.69963
-1.68473
-1.66837
-1.6505
-1.63108
-1.61007
-1.58743
-1.56313
-1.53716
-1.50949
-1.4801
-1.44899
-1.41616
-1.38159
-1.34529
-1.30727
-1.26751
-1.22604
-1.18285
-1.13797
-1.09142
-1.04322
-0.993386
-0.941962
-0.888978
-0.834474
-0.778496
-0.721088
-0.662304
-0.602195
-0.540822
-0.478244
-0.414527
-0.349737
-0.283945
-0.217222
-0.149643
-0.0812844
-0.0122215
0.0574682
0.127706
0.198415
0.269515
0.340928
0.412577
0.484383
0.556272
0.628168
0.699997
0.771685
0.843163
0.91436
0.985211
1.05565
1.12562
1.19506
1.26391
1.33212
1.39964
1.46643
1.53242
1.59759
1.66189
1.72529
1.78775
1.84924
1.90973
1.9692
2.02763
2.08499
2.14127
2.19646
2.25054
2.30349
2.3553
2.40598
2.45551
2.5039
2.55113
2.59721
2.64213
2.6859
2.72851
2.76995
2.81022
2.84933
2.88725
2.92397
2.95949
2.99376
3.02674
3.05834
3.08846
3.11691
3.14364
3.16756
3.19181
3.19903
-1.48745
-1.48826
-1.48956
-1.49098
-1.49231
-1.49354
-1.49473
-1.4959
-1.49709
-1.49832
-1.49962
-1.50101
-1.50251
-1.50412
-1.50586
-1.50774
-1.50978
-1.51196
-1.51431
-1.51682
-1.5195
-1.52236
-1.52539
-1.52861
-1.53201
-1.53559
-1.53937
-1.54334
-1.54751
-1.55187
-1.55642
-1.56117
-1.56612
-1.57126
-1.5766
-1.58212
-1.58783
-1.59373
-1.5998
-1.60605
-1.61245
-1.61901
-1.62572
-1.63256
-1.63951
-1.64657
-1.65372
-1.66094
-1.66821
-1.67551
-1.68282
-1.69011
-1.69735
-1.70452
-1.71158
-1.71851
-1.72527
-1.73182
-1.73813
-1.74416
-1.74987
-1.75521
-1.76014
-1.76462
-1.76859
-1.77202
-1.77485
-1.77703
-1.77851
-1.77924
-1.77916
-1.77823
-1.7764
-1.77361
-1.76981
-1.76495
-1.75898
-1.75186
-1.74354
-1.73396
-1.7231
-1.71091
-1.69734
-1.68236
-1.6659
-1.64792
-1.62839
-1.60727
-1.58452
-1.56013
-1.53406
-1.50629
-1.47683
-1.44565
-1.41275
-1.37812
-1.34177
-1.3037
-1.2639
-1.22239
-1.17919
-1.13429
-1.08773
-1.03952
-0.989698
-0.938288
-0.885327
-0.830854
-0.774914
-0.717555
-0.658825
-0.598781
-0.53748
-0.474982
-0.411352
-0.346658
-0.280967
-0.214354
-0.14689
-0.0786514
-0.00971438
0.0598445
0.129948
0.200518
0.271476
0.342744
0.414246
0.485905
0.557644
0.629388
0.701065
0.772601
0.843927
0.914972
0.985672
1.05596
1.12578
1.19508
1.26378
1.33185
1.39924
1.46589
1.53176
1.5968
1.66098
1.72427
1.78662
1.848
1.9084
1.96778
2.02612
2.08341
2.13962
2.19474
2.24875
2.30165
2.35342
2.40406
2.45356
2.50192
2.54913
2.5952
2.64011
2.68388
2.72648
2.76793
2.8082
2.8473
2.88522
2.92192
2.95739
2.9916
3.02447
3.05592
3.08583
3.11399
3.14034
3.16378
3.18748
3.19412
-1.49119
-1.49181
-1.49283
-1.49394
-1.49499
-1.49596
-1.49691
-1.49786
-1.49884
-1.49989
-1.50102
-1.50225
-1.50361
-1.50511
-1.50675
-1.50855
-1.51051
-1.51264
-1.51494
-1.51742
-1.52008
-1.52292
-1.52595
-1.52916
-1.53257
-1.53616
-1.53995
-1.54393
-1.5481
-1.55247
-1.55703
-1.56178
-1.56673
-1.57186
-1.57719
-1.5827
-1.58838
-1.59425
-1.60028
-1.60648
-1.61283
-1.61932
-1.62596
-1.63272
-1.63958
-1.64655
-1.6536
-1.66071
-1.66786
-1.67504
-1.68221
-1.68937
-1.69647
-1.70349
-1.71041
-1.71719
-1.72379
-1.73019
-1.73634
-1.74221
-1.74775
-1.75293
-1.7577
-1.76201
-1.76583
-1.76909
-1.77176
-1.77378
-1.77511
-1.77569
-1.77547
-1.7744
-1.77244
-1.76952
-1.7656
-1.76063
-1.75456
-1.74733
-1.73892