/*--------------------------------*- C++ -*----------------------------------*\
  =========                 |
  \\      /  F ield         | OpenFOAM: The Open Source CFD Toolbox
   \\    /   O peration     | Website:  https://openfoam.org
    \\  /    A nd           | Version:  7
     \\/     M anipulation  |
\*---------------------------------------------------------------------------*/
FoamFile
{
    version     2.0;
    format      ascii;
    class       volScalarField;
    location    "0.05";
    object      nut;
}
// * * * * * * * * * * * * * * * * * * * * * * * * * * * * * * * * * * * * * //

dimensions      [0 2 -1 0 0 0 0];

internalField   nonuniform List<scalar> 
12225
(
0
0
0
0
0
0
0
0
0
0
0
0
0
0
0
0
0
0
0
0
0
0
6.40033e-11
0
0
0
0
0
0
0
0
0
0
0
0
0
0
0
5.36887e-10
1.47279e-09
1.44343e-09
3.52126e-10
0
0
0
0
0
0
0
0
0
0
0
0
1.14297e-08
2.63116e-09
8.80701e-09
8.02288e-09
4.61738e-09
7.24225e-10
0
0
0
0
0
0
0
0
2.5621e-10
4.80497e-10
1.52193e-10
0
2.18391e-07
3.60307e-07
9.68374e-08
3.02147e-08
3.52145e-08
1.1567e-08
0
0
0
7.29968e-10
1.75234e-09
2.39011e-09
2.45234e-09
2.42348e-09
2.28289e-09
1.06864e-09
6.81055e-10
0
2.18177e-07
5.1061e-07
3.58574e-07
1.50058e-07
1.34368e-07
1.08119e-07
7.63702e-08
4.90344e-08
2.63979e-08
1.10448e-08
6.91688e-09
6.96336e-09
3.15887e-09
0
0
0
7.51914e-10
0
2.36261e-07
5.23001e-07
4.63676e-07
1.70012e-07
9.9498e-08
9.21915e-08
1.09527e-07
1.31167e-07
1.29232e-07
6.42115e-08
0
0
0
1.84651e-09
5.76331e-09
1.90347e-09
0
0
1.22646e-07
1.4465e-07
4.73638e-07
2.304e-07
1.74377e-07
1.68294e-07
2.67992e-07
4.23904e-07
3.58828e-07
1.27658e-07
3.47582e-08
1.86524e-08
2.21365e-08
1.47148e-08
9.77433e-09
1.03647e-08
1.46506e-08
2.25224e-08
0
0
3.07334e-07
3.09971e-07
2.75941e-07
2.25736e-07
3.12334e-07
3.44572e-07
1.69645e-07
8.0729e-08
6.68136e-08
8.0372e-08
8.2555e-08
4.18726e-08
2.35714e-08
1.19005e-07
2.01745e-07
2.34354e-07
0
0
0
2.5849e-07
3.46274e-07
2.42527e-07
2.32461e-07
1.60861e-07
8.67151e-08
7.3439e-08
1.15325e-07
1.66636e-07
1.32677e-07
0
0
4.21486e-08
8.59451e-08
9.22992e-08
0
0
0
2.82963e-07
5.49373e-07
2.62783e-07
1.4811e-07
1.7867e-07
1.11938e-07
1.18082e-07
2.29737e-07
3.08376e-07
7.97665e-08
0
0
0
5.24054e-09
2.49919e-08
0
0
0
8.4389e-07
3.66104e-07
0
0
1.17758e-07
2.33577e-07
3.98812e-07
7.16911e-07
5.80338e-07
0
0
0
0
0
5.06823e-10
0
0
5.28808e-07
4.79403e-07
8.01403e-08
0
3.38291e-08
8.41989e-08
1.09395e-07
1.66848e-07
1.88404e-07
0
0
0
0
0
0
1.74697e-08
4.0429e-07
2.92412e-07
1.84542e-07
2.08695e-07
0
0
0
0
0
5.43035e-08
1.29808e-08
0
0
0
0
0
0
5.05231e-08
6.49052e-07
6.41393e-07
4.35082e-07
1.32648e-07
0
0
0
0
0
1.64664e-08
0
0
0
0
0
0
0
0
4.94648e-07
2.24459e-07
1.63297e-07
8.6184e-07
0
0
0
0
0
0
0
0
0
0
0
0
0
0
2.97053e-07
0
1.50469e-07
9.38783e-07
2.06477e-07
0
0
0
0
0
0
0
0
0
0
0
0
0
1.23614e-07
0
3.05553e-08
5.67307e-07
3.69673e-08
0
1.45227e-08
3.22553e-09
0
0
0
0
0
0
0
0
0
0
2.69796e-07
0
0
1.24823e-07
7.91034e-08
0
8.16064e-08
2.0269e-07
2.54934e-07
2.31839e-07
1.06019e-07
0
0
0
0
0
0
0
2.40246e-07
3.19724e-08
0
0
0
0
0
1.00115e-08
3.51485e-07
4.93984e-07
3.43869e-07
1.93889e-08
0
0
0
0
0
0
7.18787e-08
0
0
0
0
0
0
0
7.74355e-08
2.38043e-07
1.28668e-07
0
0
0
0
0
0
0
5.08935e-07
0
0
0
0
0
0
0
6.88522e-08
6.77372e-08
3.89111e-08
3.03923e-08
1.73159e-08
0
0
0
0
0
4.92291e-08
0
0
0
0
0
2.97265e-07
4.74277e-07
2.76223e-07
1.11255e-07
5.59766e-08
5.62071e-08
7.47164e-08
9.4954e-08
1.05866e-07
9.74283e-08
6.31238e-08
1.27136e-08
0
0
0
0
0
7.42764e-09
1.45906e-07
1.95134e-07
1.66524e-07
1.1455e-07
7.92349e-08
6.36615e-08
5.91489e-08
5.92336e-08
5.79944e-08
4.87117e-08
2.69221e-08
0
0
0
7.96178e-08
2.6578e-07
8.22415e-08
0
0
0
9.76402e-09
3.882e-08
5.0127e-08
5.36203e-08
5.66184e-08
5.95819e-08
5.52918e-08
3.70608e-08
9.16897e-09
0
1.316e-07
1.26568e-07
2.31424e-07
4.02006e-07
2.88879e-07
2.90317e-08
0
0
0
0
0
0
0
0
0
0
0
0
3.50326e-08
0
0
0
0
0
0
0
0
0
0
0
0
0
0
0
0
0
6.64808e-09
0
0
0
0
0
0
0
0
0
0
0
0
0
0
0
0
0
7.89751e-09
0
0
0
0
0
0
0
0
0
0
0
0
0
0
0
0
0
6.30444e-08
0
0
0
0
0
0
0
0
0
0
0
0
0
0
0
0
0
1.88616e-07
2.21806e-07
2.76642e-07
2.02194e-07
5.519e-08
0
0
0
0
0
0
0
0
0
0
0
0
0
0
1.78703e-08
3.88456e-08
5.85291e-08
7.28512e-08
8.06432e-08
7.51846e-08
4.79767e-08
7.45412e-09
7.52018e-09
0
0
0
0
0
2.30929e-06
3.93618e-06
5.27898e-06
7.24432e-06
1.44071e-05
1.65481e-05
4.52495e-06
6.34214e-07
6.82049e-08
0
0
1.49364e-08
3.91345e-08
5.1077e-08
5.08721e-08
4.541e-08
3.49173e-08
2.68801e-08
1.70471e-08
1.07778e-08
6.10031e-09
2.50708e-09
0
0
0
0
0
0
0
0
0
0
0
0
0
0
0
0
0
0
0
0
0
0
0
0
0
0
0
0
0
0
0
0
0
0
0
0
0
0
0
0
0
0
0
0
0
0
0
0
0
0
0
0
0
0
0
0
0
0
0
0
0
0
0
0
0
0
0
0
0
0
0
0
0
0
0
0
0
0
0
0
0
0
0
0
0
0
0
0
0
0
0
0
0
0
0
0
0
0
0
0
0
0
0
0
0
0
0
0
0
0
0
0
0
0
0
0
0
0
0
0
0
0
0
0
5.00779e-12
1.34997e-07
3.09149e-07
3.78575e-07
4.57338e-07
4.15256e-07
2.53144e-07
5.40676e-08
0
0
0
0
0
0
0
0
0
0
0
0
4.9459e-08
9.83802e-08
1.3535e-07
1.5709e-07
1.5763e-07
1.56145e-07
1.52008e-07
2.10674e-07
5.21053e-07
1.16494e-06
2.29768e-06
0
0
0
0
0
0
0
0
4.89589e-07
8.31595e-07
3.33979e-07
5.6768e-08
0
0
8.41904e-09
2.41104e-08
3.25197e-08
3.38909e-08
3.27813e-08
2.99243e-08
2.6023e-08
2.13003e-08
1.64433e-08
1.08461e-08
4.82869e-09
0
0
0
0
0
0
0
0
0
0
0
0
0
0
0
0
0
0
0
0
0
0
0
0
0
0
0
0
0
0
0
0
0
0
0
0
0
0
0
0
0
0
0
0
0
0
0
0
0
0
0
0
0
0
0
0
0
0
0
0
0
0
0
0
0
0
0
0
0
0
0
0
0
0
0
0
0
0
0
0
0
0
0
0
0
0
0
0
0
0
0
0
0
0
0
0
0
0
0
0
0
0
0
0
0
0
0
0
0
0
0
0
0
0
0
0
0
0
0
0
0
0
0
7.71504e-12
0
4.23303e-08
1.70976e-07
2.42209e-07
3.59355e-07
4.94336e-07
5.69326e-07
6.40428e-07
6.76043e-07
6.98429e-07
7.10771e-07
6.77747e-07
6.01724e-07
4.90024e-07
2.90751e-07
4.83599e-08
0
0
0
3.16759e-08
1.72342e-07
2.38678e-07
2.1717e-07
1.64809e-07
1.03881e-07
1.03998e-07
1.30482e-07
1.34452e-07
5.72669e-08
0
0
0
0
0
0
0
0
0
0
0
2.05123e-07
6.3411e-08
0
0
0
0
3.03055e-08
5.84466e-08
7.59952e-08
8.35435e-08
8.29319e-08
7.60648e-08
6.4456e-08
4.8982e-08
3.11165e-08
1.24272e-08
0
0
0
0
0
0
0
0
0
0
0
0
0
0
0
0
0
0
0
0
0
0
0
0
0
0
0
0
0
0
0
0
0
0
0
0
0
0
0
0
0
0
0
0
0
0
0
0
0
0
0
0
0
0
0
0
0
0
0
0
0
0
0
0
0
0
0
0
0
0
0
0
0
0
0
0
0
0
0
0
0
0
0
0
0
0
0
0
0
0
0
0
0
0
0
0
0
0
0
0
0
0
0
0
0
0
0
0
0
0
0
0
0
0
0
0
0
0
1.61386e-14
0
4.91461e-14
3.25205e-13
0
1.03157e-11
0
4.36249e-09
5.37779e-08
1.62353e-07
3.58471e-07
5.40386e-07
6.61656e-07
7.85699e-07
8.78998e-07
9.78072e-07
1.08098e-06
1.14816e-06
1.16945e-06
1.21074e-06
1.10331e-06
8.52157e-07
5.42963e-07
3.7727e-07
5.36703e-07
6.51591e-07
4.37375e-07
8.90591e-08
0
0
0
0
0
0
0
0
0
0
0
0
0
0
0
1.27866e-08
0
0
0
0
0
0
0
0
1.19305e-07
2.99292e-07
5.46027e-07
8.50207e-07
1.17493e-06
1.413e-06
1.40318e-06
1.01951e-06
4.45165e-07
0
0
0
0
0
0
0
0
0
0
0
0
0
0
0
0
0
0
0
0
0
0
0
0
0
0
0
0
0
1.37163e-08
2.71009e-08
3.05726e-08
2.923e-08
2.56329e-08
2.0344e-08
1.39713e-08
6.95329e-09
0
0
0
0
0
0
0
0
0
0
0
0
0
0
0
0
0
0
0
0
0
0
0
0
0
0
0
0
0
0
0
0
0
0
0
0
0
0
0
0
0
0
0
0
0
0
0
0
0
0
0
0
0
0
0
0
0
0
0
0
0
0
0
0
0
0
0
0
0
0
0
0
0
0
0
0
0
0
0
0
0
0
0
3.11238e-14
0
3.61977e-13
0
4.28865e-12
0
0
1.00727e-08
9.23688e-08
3.93961e-07
5.8046e-07
7.02069e-07
8.02574e-07
9.18371e-07
1.01728e-06
1.08669e-06
1.14718e-06
1.06803e-06
8.71786e-07
3.84215e-07
0
0
7.93164e-07
2.41826e-06
2.62092e-06
1.89934e-06
1.02571e-06
2.75583e-07
0
0
0
0
0
0
0
0
0
0
0
0
0
0
0
0
0
0
6.07269e-08
1.46079e-07
2.3451e-07
3.50822e-07
4.98993e-07
6.64013e-07
8.42048e-07
1.04527e-06
1.27016e-06
1.52035e-06
1.78285e-06
1.90822e-06
1.56713e-06
5.39778e-07
0
0
0
0
0
0
0
0
0
0
0
0
0
0
0
0
0
0
0
0
0
0
0
0
0
0
0
0
0
0
0
0
0
0
0
0
0
0
0
0
0
0
0
0
0
0
0
0
0
0
0
0
0
0
0
0
0
0
0
0
0
0
0
0
0
0
0
0
0
0
0
0
0
0
0
0
0
0
0
0
0
0
0
0
0
0
0
0
0
0
0
0
0
0
0
0
0
0
0
0
0
0
0
0
0
0
2.86199e-13
6.44307e-13
6.60153e-13
5.16977e-13
3.43656e-13
1.37365e-13
3.14491e-14
0
0
0
0
0
0
0
4.16145e-14
0
3.00642e-13
0
2.21499e-12
0
0
0
4.07747e-08
4.00339e-07
5.54356e-07
6.53392e-07
7.41755e-07
8.35736e-07
9.10953e-07
9.31261e-07
7.79876e-07
2.65569e-07
0
0
0
1.08737e-06
7.55181e-06
8.79982e-06
7.11956e-06
4.89075e-06
2.91093e-06
1.41953e-06
4.44768e-07
0
0
0
0
0
0
0
0
0
0
0
0
0
0
1.32858e-07
3.43167e-07
4.75139e-07
5.55921e-07
6.16332e-07
6.86468e-07
7.63823e-07
8.36649e-07
9.31672e-07
1.03107e-06
1.1191e-06
1.20607e-06
1.27261e-06
1.31944e-06
1.31785e-06
1.18242e-06
7.23922e-07
0
0
0
0
0
0
0
0
0
0
0
0
0
0
0
0
0
0
0
0
0
0
0
0
0
0
0
0
0
0
0
0
0
0
0
0
0
0
0
0
0
0
0
0
0
0
0
0
0
0
0
0
0
0
0
0
0
0
0
0
0
0
0
0
0
0
0
0
0
0
0
0
0
0
0
0
0
0
0
0
0
0
0
0
0
0
0
0
0
0
0
0
0
0
0
0
0
0
0
0
0
0
0
0
0
0
0
0
0
0
0
0
0
0
0
0
0
0
4.30351e-13
0
1.55936e-12
0
5.57237e-12
0
1.25607e-11
0
0
0
1.21615e-08
3.53746e-07
4.52907e-07
5.00404e-07
5.58852e-07
5.97986e-07
5.85214e-07
2.9662e-07
0
0
0
0
1.37223e-05
2.02936e-05
1.86404e-05
1.51881e-05
1.19145e-05
8.59608e-06
5.60776e-06
3.08583e-06
1.17173e-06
0
0
0
0
0
0
0
0
0
0
0
0
2.29723e-07
7.79063e-07
9.18525e-07
8.6886e-07
8.09257e-07
7.65099e-07
7.21786e-07
6.30146e-07
5.10701e-07
3.82203e-07
2.56355e-07
1.50583e-07
7.38705e-08
2.89445e-08
1.55193e-08
2.85785e-08
5.61216e-08
7.51976e-08
4.6933e-08
0
0
0
0
0
0
0
0
2.13836e-09
1.64435e-08
1.06346e-08
0
0
0
0
0
0
0
0
0
0
0
0
0
0
0
0
0
0
0
0
0
0
0
0
0
0
0
0
0
0
0
0
0
0
0
0
0
0
0
0
0
0
0
0
0
0
0
0
0
0
0
0
0
0
0
0
0
0
0
0
0
0
0
0
0
0
0
0
0
0
0
0
0
0
0
0
0
0
0
0
0
0
0
0
0
0
0
0
0
0
0
0
0
0
0
0
0
0
0
0
0
0
0
0
0
0
0
0
0
1.59349e-12
0
1.28966e-12
0
0
0
0
0
0
2.06229e-07
2.36006e-07
2.43715e-07
2.432e-07
1.98037e-07
0
0
0
0
1.10468e-05
1.70046e-05
1.8229e-05
1.83581e-05
1.80778e-05
1.65037e-05
1.38464e-05
1.04182e-05
6.841e-06
3.685e-06
1.44053e-06
3.19032e-07
0
0
0
0
0
0
0
0
0
0
2.61423e-07
1.16839e-06
1.00463e-06
8.31531e-07
6.97237e-07
5.79456e-07
4.22941e-07
2.50757e-07
7.8508e-08
0
0
0
0
0
0
0
0
0
0
0
0
0
0
0
0
0
3.36791e-09
1.3612e-08
1.97423e-08
2.69247e-08
3.20226e-08
3.13971e-08
1.8714e-08
0
0
0
0
0
0
0
0
0
0
0
0
0
2.85851e-08
1.56398e-08
0
0
0
0
0
0
0
0
0
0
0
0
0
0
0
0
0
0
0
0
0
0
0
0
0
0
0
0
0
0
0
0
0
0
0
0
0
0
0
0
0
0
0
0
0
0
0
0
0
0
0
0
0
0
0
0
0
0
0
0
0
0
0
0
0
0
0
0
0
0
0
0
0
0
0
0
0
0
0
0
0
0
0
0
0
0
0
0
0
0
0
0
0
0
0
0
0
0
0
0
0
0
0
0
0
0
0
4.7302e-07
3.56036e-06
8.53628e-06
1.10306e-05
1.22802e-05
1.37111e-05
1.46683e-05
1.50222e-05
1.52518e-05
1.50305e-05
1.38263e-05
1.08953e-05
6.57123e-06
3.10933e-06
1.50257e-06
5.48085e-07
0
0
0
0
0
0
0
0
0
0
0
3.61338e-07
3.62274e-07
2.42771e-07
1.05546e-07
0
0
0
0
0
0
0
0
0
0
9.26058e-08
2.78518e-07
2.83854e-07
1.2482e-08
0
0
9.90145e-08
4.21233e-07
5.89955e-07
6.23025e-07
5.11861e-07
4.04613e-07
2.85007e-07
1.85917e-07
1.30589e-07
1.02729e-07
9.69421e-08
9.32323e-08
8.33942e-08
5.46046e-08
8.56949e-09
0
0
0
0
0
6.79887e-09
0
0
0
1.06851e-08
3.95318e-08
4.19483e-08
1.90345e-08
0
0
0
0
0
0
0
0
0
0
0
0
0
0
0
0
0
0
0
0
0
0
0
0
0
0
0
0
0
0
0
0
0
0
0
0
0
0
0
0
0
0
0
0
0
0
0
0
0
0
0
0
0
0
0
0
0
0
0
0
0
0
0
0
0
0
0
0
0
0
0
0
0
0
0
0
0
0
0
0
0
0
0
0
0
0
0
0
0
0
0
0
0
0
0
0
0
0
0
0
0
0
0
0
8.65299e-08
1.37618e-06
3.80917e-06
5.92646e-06
6.81812e-06
7.36956e-06
8.10468e-06
8.62428e-06
8.95489e-06
9.23358e-06
9.0828e-06
8.7984e-06
8.51685e-06
7.33208e-06
4.47781e-06
2.20528e-06
1.09576e-06
4.9337e-07
9.23879e-08
0
0
0
0
0
0
0
0
0
4.08555e-08
8.86361e-09
0
0
0
0
0
0
0
0
0
1.98816e-07
7.25692e-07
1.51108e-06
2.47513e-06
3.1883e-06
2.42735e-06
0
0
0
0
0
2.84243e-07
7.26999e-07
8.20424e-07
7.6822e-07
6.14903e-07
4.1129e-07
2.52877e-07
1.52206e-07
1.09659e-07
1.11904e-07
1.33024e-07
1.44264e-07
1.2346e-07
6.8879e-08
3.19952e-09
0
0
0
0
0
0
0
0
0
0
0
0
0
0
0
0
0
0
0
0
0
0
0
0
0
0
0
0
0
0
0
0
0
0
0
0
0
0
0
0
0
0
0
0
0
0
0
0
0
0
0
0
0
0
0
0
0
0
0
0
0
0
0
0
0
0
0
0
0
0
0
0
0
0
0
0
0
0
0
0
0
0
0
0
0
0
0
0
0
0
0
0
0
0
0
0
0
0
0
0
0
0
0
0
0
0
0
0
0
0
0
0
0
0
0
0
4.43062e-07
1.69808e-06
2.88796e-06
3.42698e-06
3.53221e-06
3.5831e-06
3.52677e-06
3.36886e-06
2.9813e-06
2.28011e-06
1.78215e-06
1.84522e-06
2.48033e-06
2.56698e-06
2.1193e-06
1.60313e-06
1.13771e-06
7.47118e-07
5.69124e-07
3.353e-07
0
0
0
0
0
0
0
0
0
0
0
0
0
0
0
0
1.12944e-07
5.9071e-07
1.48429e-06
3.03464e-06
5.54831e-06
9.36657e-06
1.41352e-05
9.34051e-06
0
0
0
0
0
0
0
5.45516e-07
7.83051e-07
7.65673e-07
6.3176e-07
4.15951e-07
2.38967e-07
1.23765e-07
7.17614e-08
6.71468e-08
9.09119e-08
1.17528e-07
1.27149e-07
1.12306e-07
7.72411e-08
2.91901e-08
0
0
0
0
0
0
0
0
0
0
0
0
0
0
0
0
0
0
0
0
0
0
0
0
0
0
0
0
0
0
0
0
0
0
0
0
0
0
0
0
0
0
0
0
0
0
0
0
0
0
0
0
0
0
0
0
0
0
0
0
0
0
0
0
0
0
0
0
0
0
0
0
0
0
0
0
0
0
0
0
0
0
0
0
0
0
0
0
0
0
0
0
0
0
0
0
0
0
0
0
0
0
0
0
0
0
0
0
0
0
0
0
0
0
0
2.16921e-07
9.55833e-07
1.45162e-06
1.56709e-06
1.50106e-06
1.35241e-06
1.18472e-06
9.98616e-07
8.8719e-07
9.89774e-07
1.26485e-06
1.5737e-06
1.71749e-06
1.71247e-06
1.64718e-06
1.57885e-06
1.49186e-06
8.56634e-07
9.61575e-08
0
0
0
0
0
0
4.19247e-08
0
0
0
0
0
0
0
0
1.06732e-07
5.70819e-07
1.43784e-06
2.97813e-06
5.47627e-06
8.94968e-06
1.22988e-05
1.03948e-05
0
0
0
0
0
0
0
0
4.36972e-08
4.47951e-07
5.90515e-07
5.85646e-07
5.04042e-07
3.61816e-07
2.15563e-07
1.1958e-07
8.57825e-08
9.49738e-08
1.16893e-07
1.31295e-07
1.36657e-07
1.3584e-07
1.23248e-07
8.54915e-08
1.77935e-08
0
0
0
0
0
0
0
0
0
0
0
0
0
0
0
0
0
0
0
0
0
0
0
0
0
0
0
0
0
0
0
0
0
0
0
0
0
0
0
0
0
0
0
0
0
0
0
0
0
0
0
0
0
0
0
0
0
0
0
0
0
0
0
0
0
0
0
0
0
0
0
0
0
0
0
0
0
0
0
0
0
0
0
0
0
0
0
0
0
0
0
0
0
0
0
0
0
0
0
0
0
0
0
0
0
0
0
0
0
0
0
0
0
0
0
1.7208e-07
4.1501e-07
4.9114e-07
4.75032e-07
4.40579e-07
4.33569e-07
4.78133e-07
5.79335e-07
7.00497e-07
8.4178e-07
9.64133e-07
1.08516e-06
1.11397e-06
9.52276e-07
6.97008e-07
3.884e-07
7.80878e-08
0
0
0
0
0
1.02482e-07
1.41868e-07
9.19605e-08
1.78936e-08
0
0
0
0
0
0
1.56335e-07
5.60654e-07
1.26655e-06
2.26831e-06
3.33273e-06
3.79138e-06
2.33481e-06
0
0
0
0
0
0
0
0
0
0
1.78947e-07
3.33871e-07
3.40599e-07
3.23883e-07
2.97906e-07
2.18044e-07
1.10488e-07
5.28876e-08
7.26552e-08
1.16563e-07
1.36702e-07
1.28166e-07
1.14216e-07
1.10862e-07
1.05272e-07
6.99817e-08
0
0
0
0
0
0
0
0
0
0
0
0
0
0
0
0
0
0
0
0
0
0
0
9.21086e-09
1.10415e-08
6.85916e-09
6.76868e-10
0
0
0
0
0
0
0
0
0
0
0
0
0
0
0
0
0
0
0
0
1.9809e-09
7.00147e-09
0
0
0
0
0
0
0
0
0
0
0
0
0
0
0
0
0
0
0
0
0
0
0
0
0
0
0
0
0
0
0
0
0
0
0
0
0
0
0
0
0
0
0
0
0
0
0
0
0
0
0
0
0
0
0
0
0
0
0
0
0
0
0
0
0
0
0
0
0
0
9.19346e-08
1.85413e-07
2.84684e-07
4.00112e-07
5.24493e-07
6.60324e-07
7.60686e-07
8.09644e-07
7.23008e-07
6.09916e-07
4.7116e-07
3.02919e-07
9.61152e-08
0
0
0
0
0
1.77205e-07
2.35769e-07
2.15952e-07
1.49647e-07
7.05068e-08
9.54618e-09
0
0
0
0
0
0
0
0
0
0
0
0
0
0
0
0
0
0
0
0
0
0
1.82991e-07
1.9707e-07
1.56692e-07
1.53141e-07
1.49856e-07
6.89016e-08
0
0
0
5.77378e-08
7.58831e-08
4.43087e-08
1.73055e-09
0
0
0
2.06849e-08
1.87183e-08
9.32566e-09
1.06178e-08
1.81246e-08
2.37499e-08
1.98062e-08
0
0
0
0
0
0
0
0
0
0
0
0
7.44346e-09
2.12361e-08
2.15051e-08
2.31677e-08
2.26788e-08
1.84083e-08
1.20358e-08
5.8762e-09
1.2665e-09
0
0
0
0
0
0
0
0
0
0
0
0
0
0
0
0
0
0
0
7.61429e-09
1.41491e-08
9.25693e-10
0
0
0
0
0
0
0
0
0
0
0
0
0
0
0
0
0
0
0
0
0
0
0
0
0
0
0
0
0
0
0
0
0
0
0
0
0
0
0
0
0
0
0
0
0
0
0
0
0
0
0
0
0
0
0
0
0
0
0
0
0
0
0
0
0
0
0
0
0
1.40954e-07
2.89159e-07
4.2965e-07
5.44668e-07
6.32293e-07
6.54964e-07
6.52898e-07
5.80413e-07
5.1642e-07
4.20468e-07
2.93035e-07
1.31235e-07
0
0
0
0
1.75084e-08
1.905e-07
2.90737e-07
3.2887e-07
3.10981e-07
2.58802e-07
2.05826e-07
1.6518e-07
1.24074e-07
4.31641e-08
0
0
0
0
0
0
0
0
0
0
0
0
0
0
0
0
0
0
0
5.46587e-08
1.03855e-07
5.47265e-08
1.56839e-08
4.67355e-08
7.15846e-08
0
0
0
0
6.39126e-08
3.50734e-08
0
0
0
0
0
0
0
0
0
0
0
0
1.99523e-08
2.04245e-09
0
0
0
0
0
0
0
0
0
2.04165e-08
3.01901e-08
2.95855e-08
2.6716e-08
2.40021e-08
2.0507e-08
1.55321e-08
1.08822e-08
7.56852e-09
5.56841e-09
4.45023e-09
2.09579e-09
0
0
0
0
0
0
0
0
0
0
0
0
0
0
0
0
0
1.03092e-08
1.47695e-08
8.76913e-10
0
0
0
0
0
0
0
0
0
0
0
0
0
0
0
0
0
0
0
0
0
0
0
0
0
0
0
0
0
0
0
0
0
0
0
0
0
0
0
0
0
0
0
0
0
0
0
0
0
0
0
0
0
0
0
0
0
0
0
0
0
0
0
0
0
0
0
0
1.10738e-07
2.53011e-07
3.70556e-07
4.63255e-07
5.26712e-07
5.48629e-07
5.52304e-07
5.20944e-07
4.86545e-07
4.11257e-07
3.12493e-07
1.88157e-07
5.01896e-08
0
0
0
2.96435e-08
1.64728e-07
2.85086e-07
3.76666e-07
4.2122e-07
4.18047e-07
3.89226e-07
3.63505e-07
3.48594e-07
2.92501e-07
8.82437e-08
0
0
0
0
0
0
0
0
0
0
0
0
0
0
1.0817e-07
6.38885e-08
4.19147e-08
1.00089e-07
1.0908e-07
7.46374e-08
3.01725e-08
0
0
3.45432e-08
6.11897e-08
0
0
0
1.24281e-07
1.33693e-07
7.74279e-10
0
0
0
0
0
0
0
0
0
0
0
0
0
0
0
0
0
0
0
0
9.1607e-09
4.34497e-08
4.02372e-08
2.59117e-08
1.58385e-08
1.21935e-08
1.08298e-08
1.00918e-08
9.73307e-09
8.86438e-09
8.84475e-09
9.2759e-09
9.50925e-09
8.82294e-09
4.61001e-09
0
0
0
0
0
2.63265e-10
9.0444e-10
0
0
0
0
0
4.82303e-10
1.90646e-09
3.93874e-11
0
4.4395e-09
1.3992e-08
1.28596e-08
0
0
0
0
0
0
0
0
0
0
0
0
0
0
0
0
0
0
0
0
0
0
0
0
0
0
0
0
0
0
0
0
0
0
0
0
0
0
0
0
0
0
0
0
0
0
0
0
0
0
0
2.99717e-08
1.40539e-10
0
0
0
0
0
0
0
0
0
0
0
0
0
0
0
6.28596e-08
1.68148e-07
2.57043e-07
3.23776e-07
3.69706e-07
3.99976e-07
4.16486e-07
4.08131e-07
3.92661e-07
3.4663e-07
2.84407e-07
2.05209e-07
1.19834e-07
4.18651e-08
0
0
4.30094e-08
1.20288e-07
2.1049e-07
3.0895e-07
3.9424e-07
4.52248e-07
4.75594e-07
4.86173e-07
5.00994e-07
5.16e-07
4.24809e-07
1.32874e-07
0
0
0
0
0
0
0
0
0
0
5.91179e-08
2.16343e-06
2.36911e-06
1.75987e-06
9.83378e-07
4.87175e-07
3.15537e-07
2.03296e-07
7.4832e-08
2.34316e-08
1.61227e-08
0
0
4.10577e-08
2.05959e-08
0
0
4.35453e-08
1.40945e-07
4.91536e-08
0
0
0
0
0
0
0
0
0
0
0
0
0
0
0
0
0
0
0
0
4.56374e-08
6.91682e-08
5.50613e-08
3.69793e-08
2.4988e-08
1.54745e-08
5.11277e-09
0
0
3.14264e-09
7.19267e-09
1.05247e-08
1.20416e-08
1.18727e-08
9.56194e-09
3.22874e-09
0
0
0
3.05772e-09
4.66453e-09
4.39471e-09
3.45326e-09
1.02238e-09
0
0
0
0
1.38584e-09
1.44777e-09
0
5.57893e-10
9.99566e-09
1.75852e-08
8.23753e-09
0
0
0
0
0
0
0
0
0
0
0
0
0
0
0
0
0
0
0
0
0
0
0
0
0
0
0
0
0
0
0
0
0
0
0
0
0
0
0
0
0
0
0
0
0
0
0
0
0
0
0
0
0
0
0
0
0
0
0
0
0
0
0
0
0
0
0
2.41149e-08
9.31562e-08
1.54559e-07
2.06e-07
2.43517e-07
2.69372e-07
2.86305e-07
2.90131e-07
2.87743e-07
2.65782e-07
2.31743e-07
1.85304e-07
1.34818e-07
8.6862e-08
5.12355e-08
3.97085e-08
5.53949e-08
9.23224e-08
1.43018e-07
2.07447e-07
2.74692e-07
3.49083e-07
4.08716e-07
4.76312e-07
5.04602e-07
5.49317e-07
5.48091e-07
4.52393e-07
1.68669e-07
0
0
0
0
0
0
0
0
0
3.02119e-06
3.67116e-06
2.66999e-06
1.58009e-06
7.77268e-07
3.70114e-07
2.54918e-07
1.89249e-07
6.80049e-08
6.45684e-09
3.3506e-08
3.33785e-08
0
0
0
0
0
0
3.27752e-08
3.86824e-08
0
0
0
0
0
0
0
0
0
0
0
0
0
0
0
0
0
0
1.74962e-08
6.22449e-08
8.98466e-08
9.23902e-08
8.17511e-08
6.60938e-08
5.23603e-08
3.95565e-08
2.71778e-08
1.58454e-08
7.97452e-09
6.27864e-09
9.42355e-09
1.34946e-08
1.59021e-08
1.61833e-08
1.41794e-08
9.69336e-09
3.34611e-09
0
1.98947e-09
6.44492e-09
8.94827e-09
8.94827e-09
7.19573e-09
3.6942e-09
0
0
0
0
0
0
0
0
0
1.50774e-08
1.9549e-08
1.54823e-09
0
0
0
0
0
0
0
0
0
0
0
0
0
0
0
0
0
0
0
0
0
0
0
0
0
0
0
0
0
0
0
0
0
0
0
0
0
0
0
0
0
0
0
0
0
0
0
0
0
0
0
4.98688e-07
0
0
0
0
0
0
0
0
0
0
0
0
0
0
0
2.93328e-08
6.62559e-08
9.99353e-08
1.29366e-07
1.54784e-07
1.74733e-07
1.86917e-07
1.95051e-07
1.94606e-07
1.83957e-07
1.61276e-07
1.31601e-07
1.00532e-07
7.42897e-08
5.96174e-08
5.91303e-08
7.14752e-08
9.40164e-08
1.26609e-07
1.66635e-07
2.1282e-07
2.63653e-07
3.16372e-07
3.78002e-07
4.13076e-07
4.54037e-07
4.3129e-07
3.60722e-07
1.34285e-07
0
0
0
0
0
0
0
2.24693e-07
4.21359e-06
2.72196e-06
1.50573e-06
7.71962e-07
3.99955e-07
2.57322e-07
2.33592e-07
2.05571e-07
1.10778e-07
3.45853e-08
4.05684e-08
4.9948e-08
0
0
0
0
0
0
0
0
0
0
0
0
0
0
0
0
0
0
0
0
0
0
0
0
0
1.76536e-08
1.27306e-07
1.30027e-07
1.07891e-07
1.01349e-07
9.87605e-08
9.09849e-08
7.38265e-08
5.96093e-08
5.20851e-08
4.79322e-08
4.26493e-08
3.47512e-08
2.75717e-08
2.31238e-08
2.11612e-08
2.13211e-08
2.16802e-08
1.95187e-08
1.4428e-08
9.25987e-09
7.12291e-09
7.65135e-09
9.07146e-09
1.06415e-08
1.16119e-08
9.2088e-09
2.13642e-09
0
0
0
0
0
0
0
0
0
1.9112e-08
1.62552e-08
0
0
0
0
0
0
0
0
0
0
0
0
0
0
0
0
0
0
0
0
0
0
0
0
0
0
0
0
0
0
0
0
0
0
0
0
0
0
0
0
0
0
0
0
0
0
0
0
0
0
0
4.26395e-07
1.4905e-08
0
0
0
0
0
0
0
0
0
0
0
0
0
0
0
7.28656e-09
2.53927e-08
4.19195e-08
5.75859e-08
7.36222e-08
8.81873e-08
1.0005e-07
1.0814e-07
1.11449e-07
1.09192e-07
1.02313e-07
9.2613e-08
8.29092e-08
7.40533e-08
6.83539e-08
6.6373e-08
6.87919e-08
7.68981e-08
9.07534e-08
1.08735e-07
1.32234e-07
1.56777e-07
1.9197e-07
2.16065e-07
2.50002e-07
2.53119e-07
2.52544e-07
1.94594e-07
9.73246e-08
0
0
0
0
0
0
1.62648e-06
1.6032e-06
8.1754e-07
4.19933e-07
2.21261e-07
1.89571e-07
2.27501e-07
2.3343e-07
2.0653e-07
1.61457e-07
1.06987e-07
6.07278e-08
1.129e-08
0
0
0
0
0
0
0
0
0
0
0
0
0
0
0
0
0
0
0
0
0
6.86988e-10
0
0
0
2.95479e-08
9.65183e-08
1.18874e-07
9.92192e-08
8.45223e-08
8.44819e-08
8.50631e-08
7.9305e-08
6.99126e-08
6.72392e-08
6.90242e-08
6.983e-08
6.54111e-08
5.72484e-08
4.629e-08
3.40421e-08
2.71371e-08
2.6859e-08
2.87212e-08
2.76208e-08
2.25572e-08
1.61366e-08
1.01603e-08
6.43623e-09
6.83459e-09
1.09213e-08
1.42536e-08
9.51851e-09
0
0
0
0
0
0
0
0
0
0
1.76635e-08
4.18192e-09
0
0
0
0
0
0
0
0
0
0
0
0
0
0
0
0
0
0
0
0
0
0
0
0
0
0
0
0
0
0
0
0
0
0
0
0
0
0
0
0
0
0
0
0
0
0
0
0
0
0
0
0
0
0
0
0
0
0
0
0
0
2.3052e-08
2.71186e-08
1.72464e-08
3.25649e-09
0
0
0
0
0
0
5.18688e-09
1.16341e-08
1.85144e-08
2.55346e-08
3.19289e-08
3.73132e-08
4.15543e-08
4.55382e-08
4.98114e-08
5.37738e-08
5.64627e-08
5.7153e-08
5.51256e-08
5.12816e-08
4.79105e-08
4.61117e-08
4.69732e-08
4.91946e-08
5.44489e-08
5.81774e-08
6.36691e-08
6.21144e-08
5.92206e-08
4.5624e-08
2.91422e-08
1.02727e-08
0
9.43243e-09
6.17176e-08
1.80896e-07
3.39564e-07
3.6436e-07
4.78554e-08
0
0
2.79084e-08
1.56141e-07
2.75512e-07
2.57681e-07
2.21833e-07
2.63942e-07
2.41293e-07
1.05393e-07
0
0
1.68704e-07
4.26256e-08
0
0
0
0
0
0
0
0
0
0
0
0
0
0
0
0
0
1.77681e-08
3.04033e-08
2.35874e-08
2.18089e-08
3.09235e-08
5.19183e-08
8.08103e-08
1.04731e-07
9.7227e-08
7.49191e-08
6.77744e-08
7.35455e-08
7.75e-08
7.41168e-08
7.0872e-08
7.2877e-08
7.44743e-08
7.35726e-08
7.03847e-08
6.51037e-08
5.40586e-08
4.04795e-08
3.3697e-08
3.44676e-08
3.73198e-08
3.56861e-08
2.81415e-08
1.6302e-08
5.49019e-09
1.43558e-09
5.11272e-09
1.36324e-08
1.65462e-08
6.85076e-09
0
0
0
0
0
0
0
0
0
0
4.74114e-09
0
0
0
0
0
0
0
0
0
0
0
0
0
0
0
0
0
0
0
0
0
0
0
0
0
0
0
0
0
0
0
0
0
0
0
0
0
0
0
0
0
0
0
0
0
0
0
0
0
0
0
0
0
0
0
0
0
0
0
0
0
3.21925e-10
9.76162e-09
1.4464e-08
1.42606e-08
8.45025e-09
0
0
0
0
0
0
0
0
0
0
0
0
0
0
0
1.39858e-09
7.93733e-09
1.26443e-08
1.42215e-08
1.18269e-08
5.46834e-09
0
0
0
0
0
0
0
0
0
0
0
0
0
6.70647e-08
1.40829e-07
1.07642e-07
0
0
0
0
1.68993e-07
3.06607e-07
2.3261e-07
2.0979e-07
3.66458e-07
3.3594e-07
1.02101e-07
0
8.76959e-09
3.66242e-07
1.32823e-07
1.9587e-09
0
0
0
0
0
0
0
0
0
0
0
0
0
0
0
0
1.67661e-08
3.64716e-08
3.43489e-08
3.8168e-08
4.89867e-08
6.55116e-08
8.59178e-08
1.02095e-07
9.93878e-08
8.28183e-08
7.38603e-08
7.95313e-08
9.01524e-08
9.11064e-08
8.34603e-08
7.78017e-08
7.40833e-08
6.90439e-08
6.6813e-08
6.75473e-08
6.55746e-08
5.60234e-08
4.54727e-08
4.15107e-08
4.34051e-08
4.49068e-08
3.99853e-08
2.6651e-08
9.13619e-09
0
0
8.13625e-09
1.86105e-08
1.59467e-08
1.94257e-09
0
0
0
0
0
0
0
0
0
0
0
0
0
0
0
0
0
0
0
0
0
0
0
0
0
0
0
0
0
0
0
0
0
0
0
0
0
0
0
0
0
0
0
0
0
0
0
0
0
0
0
0
0
0
0
0
0
0
0
0
0
0
0
0
1.03387e-07
9.42023e-08
2.49117e-08
0
0
0
0
0
0
0
0
0
0
0
0
0
0
0
0
0
0
0
0
0
0
0
0
0
0
0
0
0
0
0
0
0
0
0
0
0
0
0
0
0
0
0
0
5.06904e-08
7.66012e-08
0
0
0
0
1.6171e-07
2.75069e-07
1.36963e-07
2.19441e-07
4.84095e-07
3.79498e-07
3.96858e-08
0
1.54148e-07
7.34327e-07
3.13615e-07
5.98878e-08
0
0
0
0
0
0
0
0
0
0
0
0
0
0
0
0
9.26865e-08
1.1199e-07
9.35202e-08
7.51614e-08
6.75205e-08
7.24416e-08
8.51172e-08
9.78571e-08
1.05099e-07
1.00544e-07
9.48154e-08
9.63606e-08
1.05909e-07
1.10886e-07
1.05681e-07
9.49718e-08
8.39461e-08
7.18464e-08
6.35773e-08
6.3834e-08
6.73519e-08
6.58761e-08
5.79827e-08
5.10553e-08
4.94103e-08
5.04502e-08
4.83701e-08
3.79161e-08
1.79198e-08
3.07895e-10
0
1.7045e-09
1.58271e-08
2.17777e-08
1.15743e-08
0
0
0
0
0
0
0
0
0
0
0
0
0
0
0
0
0
0
0
0
0
0
0
0
0
0
0
0
0
0
0
0
0
0
0
0
0
0
0
0
0
0
0
0
0
0
0
0
0
0
0
0
0
0
0
0
0
0
0
0
0
0
0
3.24822e-08
1.35275e-07
4.34438e-08
0
0
0
0
0
0
0
0
0
0
0
0
0
0
0
0
0
0
0
0
0
0
0
0
0
0
0
0
0
0
0
0
0
0
0
0
0
0
0
0
0
0
0
0
0
1.63667e-08
5.66153e-08
0
0
0
0
1.31756e-07
1.47486e-07
1.74051e-08
2.96699e-07
5.39956e-07
3.56338e-07
0
0
1.94836e-07
1.52045e-06
6.27285e-07
1.66762e-07
0
0
0
0
0
0
0
0
0
0
0
0
0
0
0
0
1.30805e-07
1.69376e-07
1.4827e-07
1.22436e-07
1.00148e-07
8.72622e-08
8.94375e-08
1.00912e-07
1.18372e-07
1.25629e-07
1.22416e-07
1.18774e-07
1.20364e-07
1.22796e-07
1.1914e-07
1.09763e-07
9.62547e-08
8.0282e-08
6.64673e-08
6.18704e-08
6.5806e-08
6.96773e-08
6.79683e-08
6.19196e-08
5.69352e-08
5.52355e-08
5.35463e-08
4.66441e-08
2.91334e-08
6.46317e-09
0
0
1.06132e-08
2.3286e-08
1.96728e-08
5.70403e-09
0
0
0
0
0
0
0
0
0
0
0
0
0
0
0
0
0
0
0
0
0
0
0
0
0
0
0
0
0
0
0
0
0
0
0
0
0
0
0
0
0
0
0
0
0
0
0
0
0
0
0
0
0
0
0
0
0
0
1.5611e-07
2.45334e-07
8.38522e-08
0
0
0
0
0
0
0
0
0
0
0
0
0
0
0
0
0
0
0
0
0
0
0
0
0
0
0
0
0
0
0
0
0
0
0
0
0
0
0
0
0
0
0
0
0
0
0
0
0
2.97149e-08
1.29771e-07
0
0
0
0
7.03738e-08
0
9.66333e-09
3.78639e-07
5.37519e-07
3.22405e-07
0
0
0
2.86932e-06
1.11011e-06
2.34244e-07
0
0
0
0
0
0
0
0
0
0
0
0
0
0
0
0
1.67537e-07
1.99731e-07
1.7511e-07
1.48656e-07
1.27879e-07
1.10565e-07
1.04954e-07
1.143e-07
1.32268e-07
1.46934e-07
1.45614e-07
1.38847e-07
1.33221e-07
1.29227e-07
1.23283e-07
1.15311e-07
1.04494e-07
9.03003e-08
7.5107e-08
6.59386e-08
6.59494e-08
7.04623e-08
7.28051e-08
7.10896e-08
6.58106e-08
6.08594e-08
5.73586e-08
5.22963e-08
3.94152e-08
1.60905e-08
0
0
5.17934e-09
2.13394e-08
2.4702e-08
1.36347e-08
9.54315e-10
0
0
0
0
0
0
0
0
0
0
0
0
0
0
0
0
0
0
0
0
0
0
0
0
0
0
0
0
0
0
0
0
0
0
0
0
0
0
0
0
0
0
0
0
0
0
0
0
0
0
0
0
0
0
0
0
0
2.50178e-09
7.03885e-10
0
0
0
0
0
0
0
0
0
0
0
0
0
0
0
0
0
0
0
0
0
0
0
0
0
0
0
0
0
0
0
0
0
0
0
0
0
0
0
0
0
1.55601e-10
0
0
0
0
0
0
0
2.35874e-09
2.61239e-07
6.72992e-07
9.37697e-07
0
0
0
2.14419e-08
0
7.3391e-08
3.94403e-07
4.78496e-07
2.79568e-07
0
0
0
3.73512e-06
1.27611e-06
1.64853e-07
0
0
0
0
0
0
0
0
0
0
0
0
0
0
0
4.32012e-08
2.22786e-07
2.30132e-07
1.93595e-07
1.64119e-07
1.45931e-07
1.33239e-07
1.26394e-07
1.30221e-07
1.42696e-07
1.56023e-07
1.55504e-07
1.47509e-07
1.3932e-07
1.31005e-07
1.22385e-07
1.13942e-07
1.0629e-07
9.68554e-08
8.4465e-08
7.39429e-08
6.99224e-08
7.15691e-08
7.43994e-08
7.5277e-08
7.249e-08
6.58681e-08
5.99929e-08
5.49879e-08
4.62206e-08
2.64366e-08
3.72432e-09
0
6.55448e-10
1.68286e-08
2.59979e-08
1.92087e-08
7.04151e-09
0
0
1.0191e-09
0
0
0
0
0
0
0
0
0
0
0
0
0
0
0
0
0
0
0
0
0
0
0
0
0
0
0
0
0
0
0
0
0
0
0
0
0
0
0
0
0
0
0
0
0
0
0
0
0
0
0
0
0
0
0
4.28403e-08
5.52411e-08
2.77766e-08
0
0
0
0
0
0
0
0
0
0
0
0
0
0
0
0
0
0
0
0
0
0
0
0
0
0
0
0
0
0
0
0
0
0
0
0
0
0
6.32536e-08
1.32478e-07
1.24962e-07
3.50571e-08
0
0
0
0
0
1.01396e-07
3.5746e-07
7.23804e-07
8.61016e-07
2.69059e-07
1.17437e-07
5.81816e-08
0
0
1.47498e-07
3.92522e-07
4.24323e-07
2.21029e-07
0
0
0
3.00549e-06
9.66491e-07
1.01596e-07
1.23196e-09
0
0
0
0
0
0
1.24071e-08
0
0
4.36118e-09
6.12081e-07
2.31925e-08
0
0
8.96997e-08
2.43456e-07
2.37903e-07
1.98205e-07
1.67224e-07
1.52027e-07
1.44407e-07
1.40145e-07
1.40503e-07
1.46621e-07
1.53555e-07
1.51691e-07
1.429e-07
1.33505e-07
1.23795e-07
1.1483e-07
1.07475e-07
1.02323e-07
9.70084e-08
8.84853e-08
7.89921e-08
7.29046e-08
7.15163e-08
7.28499e-08
7.42352e-08
7.3008e-08
6.68199e-08
5.94705e-08
5.38334e-08
4.75567e-08
3.336e-08
1.06832e-08
0
0
1.03436e-08
2.26463e-08
2.07689e-08
1.09145e-08
1.79674e-09
0
6.01065e-10
8.49751e-09
0
0
0
0
0
0
0
0
0
0
0
0
0
0
0
0
0
0
0
0
0
0
0
0
0
0
0
0
0
0
0
0
0
0
0
0
0
0
0
0
0
0
0
0
0
0
0
0
0
0
0
0
0
0
2.19506e-08
4.66917e-08
4.98127e-08
3.30429e-08
4.72114e-09
0
0
0
0
0
0
0
0
0
0
0
0
0
0
0
0
0
0
0
0
0
0
0
0
0
0
0
0
0
0
0
0
0
0
0
3.13489e-08
1.29909e-07
2.72835e-07
2.72691e-07
1.14491e-07
0
0
0
0
0
2.4113e-08
1.8222e-07
4.11496e-07
6.20248e-07
5.32514e-07
2.76231e-07
8.118e-08
6.61691e-10
3.39382e-08
2.67426e-07
4.02802e-07
3.80792e-07
1.57404e-07
0
0
0
1.42112e-06
5.74891e-07
5.93498e-08
4.89841e-09
3.06557e-09
8.67065e-09
4.25936e-09
0
0
0
8.50776e-08
1.91963e-08
0
1.33578e-07
1.0192e-06
2.90303e-07
0
0
1.48505e-07
2.47111e-07
2.36981e-07
2.00459e-07
1.69157e-07
1.54703e-07
1.50969e-07
1.48707e-07
1.47378e-07
1.48772e-07
1.49588e-07
1.44341e-07
1.34719e-07
1.24837e-07
1.15058e-07
1.07096e-07
1.01812e-07
9.93629e-08
9.75569e-08
9.25889e-08
8.44027e-08
7.71104e-08
7.30573e-08
7.21832e-08
7.29762e-08
7.25869e-08
6.76175e-08
5.96264e-08
5.30672e-08
4.73902e-08
3.77436e-08
1.84834e-08
7.10352e-10
0
3.8037e-09
1.64586e-08
1.9533e-08
1.30347e-08
4.80895e-09
0
0
9.54649e-09
1.07238e-08
0
0
0
0
0
0
0
0
0
0
0
0
0
0
0
0
0
0
0
0
0
0
0
0
0
0
0
0
0
0
0
0
0
0
0
0
0
0
0
0
0
0
0
0
0
0
0
0
0
0
0
0
0
8.58209e-10
4.7635e-09
8.18769e-09
8.44413e-09
5.4383e-10
0
0
0
0
0
0
0
0
0
0
0
0
0
0
0
0
0
0
0
0
0
0
0
0
0
0
0
0
0
0
0
0
0
0
0
7.14313e-08
2.43171e-07
4.05422e-07
1.06024e-07
0
0
0
0
0
0
0
0
1.28379e-07
4.4139e-07
7.57539e-07
5.29331e-07
1.44597e-07
7.22743e-08
3.43997e-07
4.88303e-07
4.14844e-07
3.25038e-07
7.86464e-08
0
0
0
0
9.29962e-08
3.41261e-08
2.29041e-08
1.38531e-08
8.09587e-09
4.97291e-09
0
0
7.7821e-09
8.67108e-08
7.32821e-08
7.51404e-08
2.33921e-07
4.92639e-07
5.20309e-07
0
0
1.7997e-07
2.22318e-07
2.17881e-07
1.92516e-07
1.64606e-07
1.49029e-07
1.45864e-07
1.45815e-07
1.44718e-07
1.42808e-07
1.3824e-07
1.29212e-07
1.18663e-07
1.0955e-07
1.02117e-07
9.60512e-08
9.21498e-08
9.12041e-08
9.20884e-08
9.08141e-08
8.57764e-08
7.81244e-08
7.17715e-08
6.83296e-08
6.76457e-08
6.73246e-08
6.38549e-08
5.6615e-08
5.0137e-08
4.48225e-08
3.82895e-08
2.49584e-08
6.67379e-09
0
0
8.44202e-09
1.48841e-08
1.23669e-08
6.40857e-09
0
0
3.03444e-09
1.68083e-08
0
0
0
0
0
0
0
0
0
0
0
0
0
0
0
0
0
0
0
0
0
0
0
0
0
0
0
0
0
0
0
0
0
0
0
0
0
0
0
0
0
0
0
0
0
0
0
0
0
0
0
0
0
0
0
0
0
0
0
0
0
0
1.45039e-09
2.54798e-09
0
0
0
0
0
0
0
0
0
0
0
0
0
0
0
0
0
0
0
0
0
0
0
0
0
0
0
0
5.99582e-09
1.50814e-07
2.55195e-07
0
0
0
0
0
0
0
0
0
0
0
2.18486e-07
4.91319e-07
8.51071e-07
4.27267e-07
4.11116e-07
8.20491e-07
7.89803e-07
4.26341e-07
2.60102e-07
0
0
0
0
0
0
1.61969e-08
4.5004e-08
3.37567e-08
1.64487e-08
1.06474e-09
0
0
3.70554e-08
8.34198e-08
8.60978e-08
1.03513e-07
1.53201e-07
1.79419e-07
3.00144e-07
0
1.16375e-07