/*--------------------------------*- C++ -*----------------------------------*\
  =========                 |
  \\      /  F ield         | OpenFOAM: The Open Source CFD Toolbox
   \\    /   O peration     | Website:  https://openfoam.org
    \\  /    A nd           | Version:  7
     \\/     M anipulation  |
\*---------------------------------------------------------------------------*/
FoamFile
{
    version     2.0;
    format      ascii;
    class       volScalarField;
    location    "0.05";
    object      pMean;
}
// * * * * * * * * * * * * * * * * * * * * * * * * * * * * * * * * * * * * * //

dimensions      [0 2 -2 0 0 0 0];

internalField   nonuniform List<scalar> 
12225
(
-1.61031
-0.48968
-0.0659588
0.0410996
0.0904054
0.12164
0.134606
0.126761
0.101351
0.0650538
0.0247331
-0.0161786
-0.056025
-0.100658
-0.152889
-0.241975
-0.371488
-0.72728
-1.285
-0.478097
-0.069359
0.0453168
0.0902682
0.118965
0.131973
0.12533
0.101195
0.0661592
0.0265852
-0.0129902
-0.0532687
-0.094591
-0.150681
-0.220238
-0.354577
-0.498017
-1.1132
-0.497161
-0.0923954
0.0440423
0.0890527
0.11605
0.130495
0.126843
0.106287
0.0744751
0.0378374
-0.000539361
-0.0391093
-0.0823046
-0.132692
-0.203961
-0.298072
-0.428567
-0.914801
-0.461271
-0.0911005
0.0561138
0.0993858
0.121489
0.134391
0.132378
0.114338
0.0851777
0.0501958
0.0134938
-0.0252946
-0.0663972
-0.116845
-0.17789
-0.259942
-0.356857
-0.746121
-0.424574
-0.0957651
0.0597067
0.106648
0.125857
0.137263
0.136702
0.121576
0.0951115
0.0625557
0.0272974
-0.00968814
-0.0500105
-0.0963539
-0.151785
-0.218307
-0.29081
-0.590785
-0.370031
-0.0873102
0.0693378
0.12109
0.137685
0.146045
0.145536
0.132423
0.108386
0.0777202
0.043979
0.00821448
-0.030203
-0.073048
-0.121914
-0.176152
-0.232956
-0.446992
-0.305569
-0.0704977
0.0803391
0.13676
0.151955
0.157073
0.155596
0.143977
0.122232
0.0937421
0.0617123
0.0276277
-0.00867035
-0.0479011
-0.0905642
-0.135494
-0.180092
-0.314076
-0.231857
-0.042638
0.0965751
0.15573
0.170679
0.172903
0.169847
0.158961
0.139041
0.112317
0.0818511
0.0494999
0.0155325
-0.0201369
-0.0575515
-0.0952996
-0.131351
-0.195202
-0.153971
-0.00526688
0.118475
0.177465
0.192804
0.192688
0.187425
0.176299
0.157748
0.132875
0.10408
0.0733554
0.0415217
0.00895115
-0.0241056
-0.0563877
-0.0864785
-0.0797027
-0.0709595
0.0425817
0.148241
0.203687
0.21908
0.217224
0.209753
0.197802
0.17984
0.156262
0.129003
0.0999529
0.070154
0.0402199
0.0105602
-0.017824
-0.0439506
0.0265945
0.0135524
0.0982114
0.185198
0.23446
0.248956
0.245661
0.235927
0.22252
0.204603
0.18201
0.155966
0.128258
0.100088
0.0722376
0.0451069
0.0194853
-0.00405737
0.121526
0.093766
0.156664
0.226793
0.26839
0.280646
0.275912
0.264262
0.249214
0.230706
0.208461
0.183324
0.156691
0.129696
0.10321
0.077639
0.0536041
0.0313783
0.215865
0.174499
0.219143
0.273999
0.307207
0.316099
0.309528
0.295906
0.279153
0.259667
0.237291
0.212495
0.186463
0.160258
0.134717
0.110164
0.087108
0.0656208
0.331409
0.272243
0.29735
0.336231
0.35912
0.362625
0.35309
0.336955
0.317775
0.296596
0.273512
0.24879
0.223173
0.197457
0.17239
0.148311
0.125634
0.104306
0.451113
0.381856
0.392543
0.416071
0.42701
0.422979
0.408873
0.389428
0.367503
0.344087
0.319417
0.293757
0.267692
0.241842
0.21677
0.192673
0.169801
0.148032
0.589188
0.513236
0.510482
0.519003
0.516753
0.503079
0.482405
0.45811
0.43215
0.405429
0.378288
0.350912
0.323613
0.296749
0.270743
0.245744
0.221907
0.199106
0.743881
0.666057
0.654247
0.648665
0.632206
0.606698
0.576967
0.545746
0.514168
0.482637
0.451403
0.420683
0.390736
0.361761
0.33394
0.307269
0.28181
0.257332
0.937436
0.853781
0.829879
0.809353
0.77722
0.737591
0.696296
0.655898
0.616986
0.579476
0.543253
0.508308
0.474778
0.442733
0.412229
0.383156
0.355549
0.329259
1.21355
1.10793
1.0618
1.02021
0.96825
0.910114
0.85224
0.797467
0.746202
0.698042
0.652657
0.609929
0.569866
0.532408
0.497423
0.464593
0.433694
0.40437
1.46114
1.35372
1.29247
1.22693
1.15021
1.07152
0.998433
0.932593
0.872586
0.816782
0.7644
0.715317
0.669634
0.627264
0.587984
0.55145
0.517433
0.485633
1.69798
1.5809
1.49686
1.40199
1.29765
1.19634
1.10512
1.02423
0.951621
0.885546
0.825234
0.770379
0.720591
0.675262
0.633787
0.595567
0.560246
0.527373
1.95184
1.80902
1.68791
1.55781
1.42927
1.31467
1.21591
1.12828
1.04771
0.973072
0.904846
0.843313
0.78805
0.738188
0.692881
0.651362
0.613164
0.577859
2.23161
2.04069
1.86003
1.67901
1.5159
1.37995
1.26727
1.16956
1.0817
1.00237
0.931568
0.868838
0.813059
0.762877
0.717296
0.67567
0.637682
0.60289
2.51418
2.27235
2.02867
1.80668
1.62781
1.48669
1.36627
1.25555
1.15362
1.06295
0.984381
0.916332
0.856407
0.802706
0.754166
0.710094
0.670005
0.633312
2.79554
2.46672
2.12136
1.84361
1.64894
1.50626
1.38333
1.26939
1.16577
1.07534
0.997716
0.930263
0.870416
0.816592
0.768021
0.724157
0.684566
0.648653
3.16192
2.71013
2.26274
1.94628
1.74486
1.59209
1.4505
1.31847
1.20355
1.1075
1.02667
0.956601
0.89444
0.838767
0.788848
0.744004
0.703582
0.666864
3.48058
2.80199
2.24925
1.9348
1.75509
1.60571
1.4597
1.32496
1.21033
1.11533
1.03496
0.964804
0.902431
0.846688
0.79685
0.752199
0.712071
0.675773
3.98765
3.02227
2.32591
1.9966
1.814
1.64714
1.48614
1.34462
1.22753
1.13096
1.04904
0.977557
0.914248
0.857925
0.807744
0.762935
0.722712
0.686347
4.21976
2.98787
2.29089
2.00766
1.82764
1.65343
1.48896
1.3477
1.23148
1.13523
1.05326
0.9817
0.918395
0.862176
0.812127
0.76756
0.727618
0.691794
5.01826
3.03244
2.29135
2.04081
1.84899
1.66408
1.49651
1.35476
1.23809
1.14125
1.05876
0.986846
0.923315
0.866955
0.816822
0.772247
0.732374
0.696835
0.00100949
0.00175579
-0.0034547
-0.0157562
-0.0364083
-0.0655346
-0.103038
-0.148742
-0.202472
-0.263945
-0.332595
-0.407381
-0.486636
-0.567937
-0.648074
-0.723138
-0.788815
-0.840913
-0.876126
-0.892799
-0.890913
-0.872542
-0.842177
-0.806313
-0.771873
-0.744907
-0.729177
-0.726377
-0.733954
-0.74944
-0.771902
-0.805437
-0.852006
-0.906978
-0.97038
-1.04389
-1.12903
-1.22771
-1.34146
-1.47918
-1.64319
-1.82093
-1.99695
-2.1595
-2.29876
-2.40724
-2.47937
-2.51135
-2.50095
-2.44729
-2.35065
-2.21243
-2.03506
-1.82202
-1.57746
-1.30601
-1.01262
-0.70239
-0.380199
-0.050737
0.281711
0.613348
0.940934
1.26177
1.5737
1.87511
2.1649
2.44249
2.70776
2.96092
3.20242
3.43284
3.65282
3.86296
4.06386
4.2561
4.44016
4.61636
4.78461
4.94448
5.09517
5.23572
5.3651
5.4825
5.58739
5.67968
5.75967
5.82794
5.88525
5.9325
5.9706
6.00047
6.02297
6.03892
6.04907
6.05413
6.05478
6.05165
6.04533
6.03636
6.02523
6.01239
5.99823
5.98309
5.96724
5.95093
5.93436
5.91768
5.90101
5.88446
5.86809
5.85197
5.83614
5.82062
5.80542
5.79058
5.77607
5.76192
5.7481
5.73462
5.72145
5.70857
5.69599
5.68367
5.67161
5.65979
5.64819
5.63678
5.62557
5.61452
5.60362
5.59286
5.58221
5.57166
5.5612
5.55082
5.54049
5.5302
5.51995
5.50971
5.49948
5.48925
5.479
5.46874
5.45844
5.44811
5.43773
5.42731
5.41683
5.4063
5.39571
5.38506
5.37434
5.36357
5.35274
5.34186
5.33093
5.31995
5.30895
5.29793
5.28691
5.27592
5.26498
5.25414
5.24344
5.23296
5.22277
5.21299
5.20374
5.19527
5.18773
5.18165
5.1772
5.17553
5.17684
5.18373
5.19657
5.22159
5.26069
5.32667
-0.00820139
-0.00976141
-0.0175961
-0.0324444
-0.0549041
-0.085223
-0.123653
-0.170394
-0.225591
-0.289206
-0.360891
-0.439794
-0.52436
-0.612186
-0.699981
-0.783663
-0.858701
-0.920531
-0.965161
-0.989427
-0.991709
-0.973145
-0.937963
-0.893158
-0.847017
-0.807996
-0.78222
-0.772788
-0.779827
-0.802544
-0.841616
-0.896447
-0.96601
-1.04826
-1.13805
-1.23308
-1.34454
-1.46953
-1.59747
-1.73882
-1.89978
-2.06948
-2.23487
-2.38501
-2.51093
-2.60582
-2.66452
-2.68338
-2.66013
-2.59378
-2.4846
-2.3341
-2.14495
-1.92056
-1.66519
-1.38363
-1.08096
-0.762294
-0.432629
-0.0966086
0.241549
0.578129
0.909933
1.23431
1.54912
1.85279
2.14426
2.42299
2.68893
2.94241
3.18399
3.41435
3.63416
3.84411
4.04481
4.23691
4.42097
4.59741
4.76627
4.9271
5.07906
5.22107
5.35199
5.47089
5.57715
5.67064
5.75165
5.8208
5.87887
5.92678
5.96548
5.99588
6.01886
6.03523
6.04576
6.05115
6.05207
6.04919
6.04307
6.03427
6.02329
6.01058
5.99653
5.98149
5.96574
5.94952
5.93303
5.91643
5.89984
5.88335
5.86706
5.851
5.83522
5.81975
5.80462
5.78982
5.77536
5.76125
5.74748
5.73403
5.72089
5.70806
5.69552
5.68324
5.67122
5.65943
5.64786
5.63649
5.62531
5.61428
5.60341
5.59266
5.58203
5.5715
5.56106
5.55068
5.54037
5.53009
5.51984
5.50962
5.49939
5.48917
5.47893
5.46867
5.45837
5.44804
5.43767
5.42725
5.41677
5.40624
5.39565
5.385
5.37429
5.36351
5.35268
5.34179
5.33086
5.31988
5.30887
5.29784
5.28681
5.2758
5.26485
5.25399
5.24326
5.23274
5.2225
5.21267
5.20334
5.19476
5.1871
5.18079
5.17614
5.17395
5.17491
5.18039
5.19234
5.21213
5.24486
5.27929
-0.0239945
-0.0279249
-0.0388373
-0.056322
-0.0807252
-0.112521
-0.152349
-0.200798
-0.258384
-0.325421
-0.401886
-0.487249
-0.580164
-0.678232
-0.777895
-0.874495
-0.962566
-1.03644
-1.09124
-1.12336
-1.13082
-1.11495
-1.08041
-1.03398
-0.983324
-0.93578
-0.898751
-0.87911
-0.882612
-0.913609
-0.97418
-1.06045
-1.16294
-1.27985
-1.40724
-1.53899
-1.67885
-1.82855
-1.9835
-2.14195
-2.30272
-2.46041
-2.60829
-2.73902
-2.84575
-2.9225
-2.96427
-2.96714
-2.92832
-2.84638
-2.72134
-2.55463
-2.34875
-2.10741
-1.83507
-1.53671
-1.21781
-0.883825
-0.53998
-0.191118
0.158424
0.504882
0.8451
1.1765
1.49704
1.80525
2.10013
2.38122
2.6486
2.90277
3.1445
3.37468
3.59418
3.80377
4.00415
4.19597
4.37995
4.55674
4.72666
4.88934
5.04385
5.18888
5.32304
5.44511
5.5543
5.65036
5.73359
5.80463
5.86434
5.91369
5.95367
5.98522
6.00924
6.02654
6.03789
6.044
6.04556
6.04322
6.03757
6.02918
6.01856
6.00617
5.99242
5.97765
5.96215
5.94617
5.92991
5.91352
5.89714
5.88085
5.86474
5.84886
5.83325
5.81794
5.80295
5.78829
5.77396
5.75998
5.74632
5.73298
5.71996
5.70723
5.69478
5.68259
5.67065
5.65894
5.64744
5.63613
5.625
5.61402
5.60319
5.59248
5.58189
5.57138
5.56096
5.5506
5.5403
5.53004
5.5198
5.50958
5.49937
5.48914
5.47891
5.46865
5.45836
5.44803
5.43766
5.42723
5.41676
5.40622
5.39563
5.38498
5.37426
5.36348
5.35264
5.34175
5.3308
5.31981
5.30879
5.29774
5.28669
5.27566
5.26467
5.25377
5.24299
5.2324
5.22208
5.21212
5.20265
5.19385
5.18595
5.17921
5.17411
5.17104
5.17102
5.17438
5.18348
5.19686
5.2197
5.23648
-0.0457263
-0.0512727
-0.063922
-0.0828296
-0.108485
-0.141559
-0.182919
-0.233412
-0.293887
-0.365038
-0.447244
-0.540297
-0.643101
-0.75319
-0.866582
-0.977833
-1.08048
-1.16771
-1.23381
-1.27417
-1.28708
-1.27451
-1.24221
-1.19825
-1.15117
-1.10978
-1.08189
-1.07503
-1.09517
-1.14875
-1.23407
-1.34737
-1.47714
-1.61858
-1.77175
-1.93365
-2.10155
-2.27338
-2.44648
-2.61808
-2.78428
-2.94048
-3.08149
-3.20172
-3.29562
-3.35794
-3.38403
-3.37001
-3.31308
-3.21175
-3.06615
-2.87755
-2.64846
-2.38266
-2.0851
-1.76152
-1.41814
-1.06096
-0.695761
-0.327758
0.0385334
0.399362
0.751696
1.09316
1.42189
1.73655
2.03623
2.32055
2.58972
2.84452
3.0861
3.31574
3.53458
3.74352
3.94325
4.13447
4.31803
4.49497
4.66608
4.83129
4.98958
5.13924
5.27843
5.4055
5.51932
5.61946
5.70618
5.7802
5.84246
5.89404
5.936
5.96932
5.99493
6.01365
6.02627
6.03349
6.03602
6.03452
6.02959
6.02182
6.01175
5.99985
5.98654
5.97218
5.95706
5.94144
5.92552
5.90944
5.89335
5.87734
5.86148
5.84584
5.83045
5.81535
5.80056
5.78608
5.77193
5.7581
5.74459
5.7314
5.7185
5.70589
5.69356
5.68148
5.66964
5.65802
5.64661
5.63538
5.62433
5.61342
5.60265
5.592
5.58146
5.571
5.56062
5.5503
5.54003
5.5298
5.51959
5.50939
5.4992
5.48899
5.47877
5.46853
5.45825
5.44793
5.43757
5.42715
5.41668
5.40615
5.39556
5.38491
5.37419
5.36341
5.35257
5.34167
5.33071
5.31971
5.30867
5.2976
5.28652
5.27546
5.26443
5.25347
5.24263
5.23195
5.22152
5.21141
5.20176
5.19269
5.18446
5.17725
5.17153
5.1675
5.16615
5.16732
5.17299
5.18078
5.19392
5.19691
-0.0721246
-0.0782912
-0.0913592
-0.110589
-0.13666
-0.170326
-0.212587
-0.26451
-0.327244
-0.401822
-0.488989
-0.588843
-0.700442
-0.821264
-0.946863
-1.07103
-1.18625
-1.28481
-1.36049
-1.4083
-1.42773
-1.4224
-1.39961
-1.36846
-1.33815
-1.31702
-1.31265
-1.33174
-1.37925
-1.45909
-1.57033
-1.70864
-1.86755
-2.04057
-2.22363
-2.41351
-2.60688
-2.80044
-2.99106
-3.1754
-3.34945
-3.50865
-3.64814
-3.76296
-3.84819
-3.89906
-3.91105
-3.88041
-3.80443
-3.68135
-3.51029
-3.29254
-3.03141
-2.73148
-2.39911
-2.04127
-1.66505
-1.27761
-0.885352
-0.493702
-0.107151
0.270743
0.637238
0.990282
1.32832
1.65019
1.9551
2.24273
2.51342
2.76824
3.00885
3.2371
3.45462
3.66251
3.86137
4.05171
4.23439
4.41086
4.58276
4.75077
4.91386
5.06979
5.21598
5.35014
5.4706
5.57661
5.66834
5.74659
5.81246
5.86716
5.91185
5.94761
5.97541
5.99609
6.01043
6.01917
6.02302
6.02264
6.01869
6.01177
6.00244
5.99121
5.9785
5.9647
5.95011
5.93498
5.91951
5.90387
5.88818
5.87255
5.85705
5.84173
5.82665
5.81184
5.79731
5.78308
5.76916
5.75555
5.74224
5.72924
5.71652
5.70408
5.69191
5.67998
5.66828
5.6568
5.64551
5.63439
5.62344
5.61263
5.60195
5.59138
5.58091
5.57051
5.56019
5.54992
5.5397
5.52951
5.51933
5.50917
5.499
5.48882
5.47862
5.4684
5.45813
5.44783
5.43748
5.42707
5.41661
5.40608
5.3955
5.38484
5.37412
5.36334
5.35249
5.34158
5.33061
5.3196
5.30854
5.29745
5.28634
5.27523
5.26415
5.25313
5.2422
5.23142
5.22085
5.21057
5.2007
5.19134
5.18271
5.17496
5.1685
5.16341
5.1605
5.15941
5.16144
5.16407
5.16849
5.16233
-0.101475
-0.107565
-0.120239
-0.139046
-0.164788
-0.198269
-0.240638
-0.293188
-0.357332
-0.434369
-0.525297
-0.630336
-0.748409
-0.876602
-1.00988
-1.14141
-1.26346
-1.36847
-1.45017
-1.50556
-1.53547
-1.54486
-1.54147
-1.53463
-1.53369
-1.54646
-1.57897
-1.63633
-1.72248
-1.83793
-1.98182
-2.1506
-2.33895
-2.54159
-2.75326
-2.96919
-3.18509
-3.39702
-3.60142
-3.79484
-3.97378
-4.13452
-4.27299
-4.3847
-4.46472
-4.50777
-4.50861
-4.4626
-4.36602
-4.2165
-4.01388
-3.7605
-3.46067
-3.12093
-2.74852
-2.3515
-1.93825
-1.51663
-1.09377
-0.675608
-0.266793
0.129299
0.510402
0.875081
1.22237
1.55144
1.86161
2.15252
2.42446
2.67862
2.91713
3.14278
3.35815
3.56484
3.76325
3.95314
4.13478
4.30976
4.48094
4.65065
4.81858
4.98175
5.13645
5.27944
5.40833
5.52188
5.62012
5.70387
5.77442
5.83314
5.88135
5.92025
5.95084
5.97401
5.99056
6.00124
6.00676
6.00782
6.00511
5.99926
5.99087
5.98048
5.96854
5.95545
5.94151
5.927
5.91211
5.89701
5.88184
5.86668
5.85162
5.83672
5.82202
5.80755
5.79335
5.77942
5.76578
5.75242
5.73936
5.72658
5.71408
5.70185
5.68986
5.67811
5.66658
5.65525
5.64411
5.63313
5.6223
5.61161
5.60103
5.59055
5.58017
5.56985
5.5596
5.5494
5.53923
5.52909
5.51896
5.50884
5.49871
5.48856
5.4784
5.4682
5.45796
5.44767
5.43734
5.42695
5.41649
5.40598
5.3954
5.38475
5.37403
5.36324
5.35239
5.34147
5.3305
5.31946
5.30838
5.29726
5.28612
5.27497
5.26383
5.25273
5.24171
5.23081
5.22009
5.20961
5.19948
5.18979
5.18071
5.17237
5.16507
5.15887
5.15428
5.15093
5.14938
5.1474
5.14461
5.13199
-0.131366
-0.137035
-0.148947
-0.166857
-0.191666
-0.224246
-0.265877
-0.318001
-0.38219
-0.45989
-0.552177
-0.659188
-0.779509
-0.909725
-1.04449
-1.17714
-1.30025
-1.40755
-1.4946
-1.56015
-1.60638
-1.63871
-1.66488
-1.69381
-1.73352
-1.79038
-1.86917
-1.97343
-2.10481
-2.26324
-2.44676
-2.6511
-2.87118
-3.10157
-3.33673
-3.57173
-3.80249
-4.02586
-4.23922
-4.44015
-4.62597
-4.79355
-4.93906
-5.05751
-5.14267
-5.18777
-5.1863
-5.13217
-5.02071
-4.8496
-4.61916
-4.3312
-3.99032
-3.60364
-3.18053
-2.73191
-2.26872
-1.80114
-1.33772
-0.885063
-0.447859
-0.0291185
0.369516
0.747385
1.10445
1.44096
1.75699
2.05223
2.3264
2.58026
2.81624
3.03825
3.25058
3.45624
3.65558
3.84685
4.02882
4.20248
4.37133
4.54017
4.71106
4.88088
5.0443
5.19665
5.33466
5.45664
5.56233
5.65253
5.72862
5.79213
5.84455
5.88717
5.92111
5.94729
5.96652
5.97956
5.98713
5.98995
5.98875
5.9842
5.97696
5.96758
5.95657
5.94433
5.93119
5.91743
5.90324
5.8888
5.87424
5.85966
5.84513
5.83072
5.81648
5.80244
5.78862
5.77505
5.76174
5.7487
5.73592
5.72341
5.71116
5.69916
5.68739
5.67585
5.66452
5.65338
5.6424
5.63159
5.62091
5.61035
5.5999
5.58954
5.57926
5.56904
5.55888
5.54875
5.53866
5.52858
5.51851
5.50844
5.49836
5.48826
5.47813
5.46796
5.45775
5.44749
5.43717
5.4268
5.41636
5.40586
5.39529
5.38464
5.37393
5.36314
5.35228
5.34136
5.33037
5.31931
5.30821
5.29706
5.28588
5.27467
5.26347
5.25229
5.24117
5.23014
5.21925
5.20855
5.19814
5.18808
5.17852
5.16953
5.16135
5.15397
5.14768
5.14209
5.13721
5.13111
5.1225
5.10491
-0.161855
-0.166961
-0.177932
-0.194622
-0.217954
-0.248857
-0.288655
-0.338846
-0.401025
-0.476631
-0.566657
-0.670918
-0.787647
-0.913401
-1.04312
-1.17105
-1.29171
-1.40039
-1.4952
-1.5762
-1.64627
-1.71058
-1.77608
-1.85016
-1.93919
-2.04806
-2.18004
-2.33692
-2.51891
-2.72442
-2.94959
-3.18927
-3.43802
-3.6905
-3.94225
-4.19015
-4.43239
-4.66792
-4.89593
-5.11516
-5.32342
-5.51704
-5.69039
-5.83623
-5.94622
-6.01143
-6.02261
-5.97135
-5.8514
-5.65915
-5.39363
-5.05808
-4.65954
-4.20823
-3.71688
-3.1995
-2.67043
-2.14259
-1.62644
-1.12954
-0.656564
-0.209815
0.210196
0.60413
0.973342
1.31928
1.64275
1.94372
2.22193
2.4779
2.71369
2.93299
3.14134
3.34442
3.54418
3.73798
3.92281
4.09775
4.26522
4.4314
4.60244
4.77655
4.94726
5.10801
5.2545
5.38455
5.49769
5.59457
5.67654
5.74525
5.80225
5.84895
5.88657
5.91613
5.93843
5.95423
5.96422
5.96913
5.96971
5.96671
5.96081
5.95264
5.94272
5.93148
5.91928
5.90638
5.89302
5.87934
5.86549
5.85158
5.83767
5.82384
5.81013
5.79658
5.78321
5.77006
5.75713
5.74444
5.73198
5.71977
5.7078
5.69607
5.68455
5.67325
5.66213
5.6512
5.64043
5.62979
5.61929
5.60889
5.59858
5.58836
5.5782
5.56809
5.55802
5.54799
5.53798
5.52798
5.51798
5.50797
5.49794
5.48789
5.4778
5.46767
5.4575
5.44727
5.43698
5.42663
5.41621
5.40572
5.39516
5.38452
5.37381
5.36302
5.35216
5.34123
5.33022
5.31915
5.30802
5.29684
5.28561
5.27435
5.26308
5.25182
5.24058
5.2294
5.21833
5.2074
5.19668
5.18623
5.17615
5.1665
5.1574
5.14882
5.14086
5.13308
5.12517
5.11544
5.10216
5.08064
-0.193721
-0.198244
-0.208278
-0.22364
-0.245221
-0.273955
-0.311109
-0.358103
-0.416482
-0.487622
-0.572323
-0.670191
-0.77933
-0.896676
-1.01842
-1.14033
-1.25853
-1.37146
-1.47854
-1.58087
-1.68143
-1.78485
-1.89674
-2.02262
-2.16705
-2.33312
-2.52231
-2.73457
-2.96801
-3.2187
-3.48126
-3.75006
-4.0203
-4.28899
-4.55493
-4.8183
-5.08014
-5.34158
-5.60308
-5.86347
-6.11916
-6.36375
-6.58833
-6.78243
-6.93445
-7.03161
-7.06116
-7.01217
-6.87675
-6.6511
-6.33617
-5.93718
-5.4641
-4.93076
-4.35341
-3.75003
-3.13869
-2.53582
-1.95449
-1.40352
-0.887541
-0.407736
0.0370397
0.449217
0.831807
1.18789
1.51992
1.82867
2.1136
2.37431
2.61225
2.83107
3.03654
3.23655
3.43545
3.63088
3.81842
3.99581
4.16415
4.32946
4.50009
4.67646
4.85226
5.01944
5.17281
5.30971
5.42936
5.53239
5.62011
5.69401
5.75567
5.80654
5.84795
5.88101
5.90658
5.92539
5.9381
5.9454
5.94804
5.94681
5.94247
5.93568
5.92701
5.91693
5.9058
5.89391
5.88147
5.86866
5.85563
5.84246
5.82926
5.81607
5.80297
5.78997
5.77712
5.76444
5.75194
5.73965
5.72756
5.71569
5.70403
5.69259
5.68135
5.6703
5.65943
5.64873
5.63817
5.62775
5.61743
5.60721
5.59707
5.58699
5.57697
5.56699
5.55704
5.54711
5.5372
5.52728
5.51736
5.50742
5.49746
5.48746
5.47743
5.46734
5.45721
5.44701
5.43676
5.42643
5.41604
5.40556
5.39502
5.38439
5.37368
5.3629
5.35203
5.34109
5.33007
5.31898
5.30782
5.2966
5.28533
5.27401
5.26267
5.2513
5.23995
5.22862
5.21735
5.20618
5.19514
5.18428
5.17367
5.16332
5.15329
5.14352
5.13394
5.1241
5.11346
5.10054
5.0835
5.05884
-0.228678
-0.232792
-0.242235
-0.256511
-0.2766
-0.303316
-0.337834
-0.381434
-0.43552
-0.501307
-0.579486
-0.669766
-0.770835
-0.880551
-0.996279
-1.11552
-1.23668
-1.35961
-1.4849
-1.61431
-1.75073
-1.89794
-2.06003
-2.24061
-2.44227
-2.66612
-2.91163
-3.1762
-3.45507
-3.74247
-4.03314
-4.32335
-4.61125
-4.8973
-5.18436
-5.47643
-5.77703
-6.08802
-6.40881
-6.73564
-7.06125
-7.37537
-7.66552
-7.91762
-8.11653
-8.24673
-8.2934
-8.24391
-8.0894
-7.8259
-7.45416
-6.98072
-6.41826
-5.78444
-5.10072
-4.39049
-3.67706
-2.98128
-2.31944
-1.70213
-1.13402
-0.615009
-0.141822
0.290403
0.687056
1.05342
1.39378
1.71027
2.00244
2.26936
2.51161
2.73232
2.93699
3.13483
3.33247
3.52859
3.71792
3.89742
4.06783
4.23421
4.40553
4.58394
4.76306
4.93462
5.09281
5.23461
5.35933
5.46756
5.56053
5.63949
5.70587
5.76104
5.80633
5.84291
5.87172
5.89357
5.90911
5.91898
5.9239
5.92465
5.92205
5.91682
5.90957
5.90079
5.89087
5.88009
5.8687
5.85686
5.84473
5.8324
5.81997
5.80751
5.79507
5.78269
5.7704
5.75824
5.74623
5.73438
5.7227
5.7112
5.69989
5.68877
5.67782
5.66706
5.65645
5.646
5.63567
5.62547
5.61536
5.60533
5.59537
5.58546
5.5756
5.56576
5.55594
5.54613
5.53632
5.5265
5.51666
5.5068
5.49691
5.48698
5.477
5.46697
5.45688
5.44673
5.43651
5.42621
5.41584
5.40539
5.39486
5.38424
5.37354
5.36276
5.35189
5.34094
5.32991
5.31879
5.30761
5.29635
5.28503
5.27365
5.26223
5.25077
5.23929
5.2278
5.21633
5.2049
5.19353
5.18225
5.17109
5.16004
5.1491
5.13816
5.12703
5.11527
5.1022
5.08651
5.06641
5.03918
-0.269196
-0.2733
-0.282834
-0.296807
-0.316365
-0.342077
-0.375046
-0.416409
-0.467492
-0.529492
-0.603217
-0.688797
-0.785657
-0.892717
-1.0086
-1.1323
-1.26421
-1.40489
-1.55552
-1.71792
-1.89438
-2.0875
-2.29976
-2.53303
-2.78792
-3.06347
-3.35688
-3.66338
-3.97701
-4.29225
-4.60574
-4.91711
-5.22864
-5.5448
-5.87123
-6.21334
-6.57431
-6.95426
-7.34921
-7.75113
-8.14945
-8.53198
-8.88497
-9.19304
-9.43915
-9.60484
-9.6713
-9.62216
-9.44589
-9.1372
-8.69776
-8.13702
-7.47167
-6.72432
-5.92171
-5.09251
-4.26515
-3.46515
-2.71232
-2.01932
-1.39133
-0.827255
-0.321803
0.132474
0.543849
0.920318
1.26856
1.59229
1.89157
2.16457
2.4112
2.63434
2.84006
3.03806
3.23617
3.43302
3.62339
3.80449
3.97711
4.14586
4.31934
4.49969
4.6809
4.85481
5.01545
5.16005
5.28812
5.40042
5.49809
5.58214
5.65355
5.71336
5.76272
5.80283
5.83479
5.85953
5.87779
5.89022
5.8975
5.90037
5.89967
5.89615
5.89047
5.88315
5.87456
5.86503
5.85478
5.844
5.83285
5.82144
5.80987
5.79819
5.78647
5.77476
5.7631
5.75151
5.74002
5.72865
5.71742
5.70633
5.6954
5.68462
5.674
5.66354
5.65321
5.64302
5.63295
5.62298
5.61309
5.60327
5.59351
5.58378
5.57408
5.56439
5.55471
5.54503
5.53534
5.52563
5.51589
5.50612
5.49631
5.48645
5.47653
5.46656
5.45652
5.44642
5.43623
5.42597
5.41563
5.4052
5.39469
5.38409
5.37339
5.36261
5.35174
5.34078
5.32973
5.3186
5.30739
5.29609
5.28472
5.27328
5.26178
5.25021
5.2386
5.22695
5.21527
5.20358
5.19188
5.18018
5.16847
5.15673
5.14489
5.13281
5.12024
5.1067
5.09147
5.07337
5.05076
5.02143
-0.317856
-0.322557
-0.333323
-0.348569
-0.369437
-0.39634
-0.430418
-0.472697
-0.524496
-0.587038
-0.661365
-0.748155
-0.847737
-0.960209
-1.08564
-1.22437
-1.37715
-1.54476
-1.72805
-1.92797
-2.14563
-2.3822
-2.63878
-2.91608
-3.21367
-3.52953
-3.85986
-4.19959
-4.54369
-4.88831
-5.23248
-5.57796
-5.92878
-6.29032
-6.6679
-7.06547
-7.48389
-7.92096
-8.37093
-8.82523
-9.27379
-9.70508
-10.1052
-10.4568
-10.739
-10.9282
-11.0012
-10.9389
-10.7295
-10.3687
-9.85988
-9.21489
-8.45347
-7.60218
-6.69152
-5.75461
-4.82403
-3.92922
-3.0929
-2.32936
-1.64437
-1.03629
-0.498595
-0.0218635
0.404511
0.791119
1.14693
1.47706
1.78214
2.06025
2.31072
2.53667
2.74514
2.94615
3.14643
3.34468
3.53608
3.71842
3.89302
4.06474
4.24144
4.4239
4.60615
4.78051
4.94155
5.08705
5.21699
5.33234
5.43419
5.5232
5.59978
5.66444
5.71802
5.76165
5.79659
5.82397
5.84471
5.85955
5.86913
5.87418
5.87549
5.87382
5.86985
5.8641
5.85698
5.84879
5.83979
5.83017
5.82009
5.80967
5.799
5.78817
5.77724
5.76626
5.75526
5.74429
5.73337
5.72252
5.71176
5.70112
5.69059
5.68019
5.66991
5.65977
5.64974
5.63983
5.63002
5.6203
5.61064
5.60104
5.59148
5.58195
5.57243
5.5629
5.55338
5.54383
5.53427
5.52468
5.51504
5.50537
5.49565
5.48587
5.47602
5.46611
5.45613
5.44607
5.43594
5.42571
5.4154
5.405
5.39451
5.38392
5.37324
5.36246
5.35159
5.34062
5.32956
5.31841
5.30716
5.29583
5.28441
5.2729
5.26131
5.24964
5.2379
5.22609
5.2142
5.20224
5.1902
5.17808
5.16583
5.15341
5.14071
5.12755
5.11363
5.09847
5.08133
5.06115
5.03644
5.00539
-0.377832
-0.38374
-0.397241
-0.415887
-0.440821
-0.472415
-0.51185
-0.560159
-0.618699
-0.688868
-0.772261
-0.870386
-0.984565
-1.11566
-1.26415
-1.43035
-1.61435
-1.81605
-2.03528
-2.2719
-2.52604
-2.79835
-3.08978
-3.4011
-3.73206
-4.0811
-4.44492
-4.81891
-5.19832
-5.57929
-5.96036
-6.34188
-6.72635
-7.11785
-7.5211
-7.94056
-8.37806
-8.83237
-9.29884
-9.76957
-10.2345
-10.6817
-11.096
-11.4583
-11.7451
-11.931
-11.9919
-11.9084
-11.6689
-11.2692
-10.7122
-10.0094
-9.18159
-8.2576
-7.27139
-6.25964
-5.25816
-4.29804
-3.40376
-2.59061
-1.86465
-1.22437
-0.662114
-0.167559
0.27152
0.667437
1.03044
1.36614
1.67538
1.95668
2.21012
2.43954
2.65306
2.85963
3.06392
3.26395
3.45599
3.63887
3.81543
3.9914
4.17236
4.35685
4.53891
4.71202
4.87199
5.01738
5.14854
5.26646
5.37194
5.46526
5.54635
5.61533
5.67275
5.71968
5.75741
5.78725
5.81028
5.82733
5.8391
5.8463
5.84967
5.84996
5.84781
5.84376
5.83821
5.83148
5.82382
5.81543
5.80649
5.79712
5.78743
5.77751
5.76741
5.7572
5.74692
5.7366
5.72629
5.716
5.70576
5.69558
5.68549
5.67549
5.66558
5.65578
5.64607
5.63646
5.62692
5.61745
5.60804
5.59867
5.58932
5.57999
5.57065
5.5613
5.55194
5.54254
5.53312
5.52365
5.51413
5.50456
5.49493
5.48524
5.47547
5.46563
5.45571
5.44571
5.43562
5.42543
5.41516
5.40478
5.39431
5.38374
5.37307
5.3623
5.35143
5.34045
5.32938
5.31821
5.30693
5.29556
5.28409
5.27252
5.26084
5.24907
5.2372
5.22522
5.21312
5.2009
5.18853
5.17599
5.16322
5.15014
5.13661
5.12243
5.10727
5.09064
5.07182
5.04983
5.02337
4.99089
-0.451418
-0.45889
-0.476661
-0.501569
-0.534568
-0.576002
-0.627193
-0.689322
-0.764292
-0.854236
-0.961493
-1.08782
-1.2342
-1.40064
-1.58653
-1.79104
-2.01317
-2.25181
-2.5058
-2.77435
-3.05769
-3.35709
-3.67439
-4.01122
-4.36794
-4.74291
-5.13198
-5.52916
-5.92776
-6.32201
-6.70905
-7.08882
-7.46412
-7.84024
-8.2236
-8.6204
-9.03394
-9.46341
-9.90421
-10.3487
-10.7865
-11.2064
-11.5941
-11.9314
-12.196
-12.3627
-12.407
-12.3082
-12.0537
-11.6387
-11.0656
-10.3456
-9.49914
-8.5551
-7.54786
-6.51502
-5.49291
-4.51315
-3.60033
-2.76998
-2.02844
-1.37446
-0.800928
-0.29715
0.149696
0.552536
0.921295
1.26101
1.57256
1.85553
2.11148
2.34582
2.56647
2.77997
2.98837
3.18946
3.3812
3.56479
3.74495
3.92689
4.11231
4.29786
4.47832
4.64907
4.80743
4.95267
5.08513
5.20543
5.31386
5.41031
5.49457
5.56666
5.62709
5.67684
5.71717
5.74938
5.77461
5.79378
5.80765
5.81694
5.8224
5.82471
5.82449
5.82224
5.81836
5.81318
5.80694
5.79986
5.79211
5.78386
5.7752
5.76624
5.75703
5.74764
5.73811
5.7285
5.71882
5.70913
5.69943
5.68976
5.68012
5.67054
5.66103
5.65159
5.64222
5.63291
5.62367
5.61447
5.6053
5.59617
5.58704
5.57791
5.56877
5.5596
5.5504
5.54117
5.53188
5.52255
5.51315
5.50369
5.49417
5.48456
5.47488
5.46512
5.45526
5.44532
5.43528
5.42514
5.4149
5.40456
5.39411
5.38356
5.3729
5.36214
5.35127
5.34029
5.3292
5.31801
5.3067
5.29529
5.28377
5.27213
5.26038
5.2485
5.2365
5.22435
5.21205
5.19957
5.18688
5.17393
5.16066
5.14695
5.13264
5.11751
5.10121
5.08325
5.06295
5.0394
5.01145
4.97779
-0.540378
-0.550263
-0.574521
-0.609401
-0.656202
-0.714828
-0.78736
-0.876107
-0.984085
-1.11339
-1.26536
-1.44008
-1.63661
-1.8531
-2.08738
-2.33682
-2.59869
-2.87054
-3.15092
-3.43978
-3.7385
-4.04904
-4.37333
-4.7124
-5.06574
-5.43064
-5.80231
-6.17475
-6.54182
-6.89864
-7.24341
-7.5773
-7.90375
-8.22856
-8.55797
-8.898
-9.25179
-9.62138
-10.0021
-10.3875
-10.7686
-11.1353
-11.4746
-11.7697
-11.9999
-12.1416
-12.1714
-12.0691
-11.8212
-11.4217
-10.872
-10.1822
-9.37104
-8.46439
-7.4942
-6.49693
-5.5076
-4.55648
-3.66697
-2.85413
-2.12461
-1.4779
-0.907981
-0.404779
0.0439525
0.450057
0.821815
1.16307
1.47497
1.75877
2.01817
2.25907
2.48755
2.70695
2.91736
3.1178
3.30935
3.496
3.68247
3.87086
4.05949
4.24463
4.42272
4.59104
4.74812
4.89359
5.02748
5.1498
5.2603
5.35866
5.44471
5.51863
5.58111
5.63314
5.67584
5.71035
5.73775
5.75899
5.77493
5.78632
5.79389
5.79829
5.80005
5.79967
5.79753
5.79395
5.7892
5.7835
5.77703
5.76994
5.76237
5.7544
5.74613
5.7376
5.72887
5.71999
5.711
5.70193
5.69281
5.68366
5.67451
5.66538
5.65628
5.64722
5.6382
5.62922
5.62027
5.61135
5.60245
5.59355
5.58465
5.57573
5.56679
5.55781
5.54878
5.53971
5.53058
5.52138
5.51211
5.50277
5.49335
5.48385
5.47426
5.46457
5.45479
5.44491
5.43492
5.42483
5.41463
5.40433
5.39391
5.38338
5.37273
5.36198
5.3511
5.34012
5.32902
5.31781
5.30648
5.29503
5.28346
5.27176
5.25992
5.24794
5.23581
5.2235
5.211
5.19827
5.18527
5.17193
5.15817
5.14387
5.12884
5.11283
5.0955
5.07635
5.05474
5.02984
5.00063
4.96597
-0.645843
-0.660634
-0.69504
-0.746179
-0.816698
-0.907233
-1.02124
-1.16125
-1.32913
-1.52385
-1.74331
-1.98443
-2.24365
-2.51597
-2.79607
-3.07948
-3.36302
-3.64457
-3.92294
-4.19821
-4.47144
-4.74427
-5.01874
-5.29699
-5.58118
-5.87179
-6.16735
-6.4655
-6.7612
-7.05182
-7.3338
-7.60651
-7.87144
-8.1324
-8.39455
-8.66322
-8.94263
-9.23539
-9.5398
-9.85104
-10.1617
-10.4624
-10.7412
-10.9838
-11.1727
-11.2882
-11.3096
-11.2186
-11.0013
-10.6501
-10.1643
-9.55074
-8.82457
-8.00803
-7.12925
-6.22045
-5.31355
-4.43593
-3.60858
-2.84555
-2.1538
-1.53401
-0.98172
-0.488419
-0.0439581
0.360745
0.731586
1.07141
1.38222
1.66719
1.93109
2.17885
2.41341
2.63557
2.84578
3.04628
3.24121
3.43471
3.62858
3.82158
4.01103
4.1945
4.37013
4.53655
4.69298
4.83899
4.97415
5.09781
5.20936
5.30849
5.39529
5.47023
5.53416
5.58805
5.63286
5.66953
5.69907
5.72242
5.74048
5.75403
5.76379
5.77033
5.77417
5.77574
5.77541
5.77353
5.77035
5.7661
5.76098
5.75514
5.74873
5.74183
5.73455
5.72694
5.71907
5.71097
5.7027
5.6943
5.6858
5.67722
5.66859
5.65994
5.65128
5.64262
5.63397
5.62534
5.61671
5.60809
5.59946
5.59081
5.58214
5.57344
5.5647
5.55591
5.54706
5.53816
5.52918
5.52014
5.51101
5.50179
5.49249
5.48309
5.47359
5.46399
5.45429
5.44447
5.43455
5.42451
5.41435
5.40408
5.39369
5.38319
5.37256
5.36181
5.35094
5.33995
5.32884
5.31761
5.30625
5.29477
5.28315
5.27138
5.25947
5.24739
5.23514
5.22268
5.20998
5.19701
5.18371
5.17
5.15579
5.14092
5.12522
5.10841
5.09014
5.06993
5.04718
5.02111
4.99082
4.95532
-0.766091
-0.789331
-0.841304
-0.921612
-1.03608
-1.18573
-1.37302
-1.59514
-1.84698
-2.12081
-2.40908
-2.70346
-2.99658
-3.28198
-3.55481
-3.81159
-4.04974
-4.26692
-4.46492
-4.64662
-4.81912
-4.98855
-5.16228
-5.34543
-5.54018
-5.74795
-5.96773
-6.19649
-6.42944
-6.66219
-6.89024
-7.11102
-7.32447
-7.533
-7.74085
-7.9528
-8.17297
-8.40386
-8.64539
-8.89449