/*--------------------------------*- C++ -*----------------------------------*\
  =========                 |
  \\      /  F ield         | OpenFOAM: The Open Source CFD Toolbox
   \\    /   O peration     | Website:  https://openfoam.org
    \\  /    A nd           | Version:  7
     \\/     M anipulation  |
\*---------------------------------------------------------------------------*/
FoamFile
{
    version     2.0;
    format      ascii;
    class       volScalarField;
    location    "0.05";
    object      pPrime2Mean;
}
// * * * * * * * * * * * * * * * * * * * * * * * * * * * * * * * * * * * * * //

dimensions      [0 4 -4 0 0 0 0];

internalField   nonuniform List<scalar> 
12225
(
7.14645e+06
7.03258e+06
6.91501e+06
6.80161e+06
6.69269e+06
6.58792e+06
6.48699e+06
6.38961e+06
6.29547e+06
6.20421e+06
6.11548e+06
6.02885e+06
5.94381e+06
5.85973e+06
5.77571e+06
5.69041e+06
5.6014e+06
5.50267e+06
7.14654e+06
7.03263e+06
6.91506e+06
6.80167e+06
6.69276e+06
6.58799e+06
6.48708e+06
6.38972e+06
6.29559e+06
6.20437e+06
6.11568e+06
6.02911e+06
5.94416e+06
5.86021e+06
5.77644e+06
5.69156e+06
5.60358e+06
5.50762e+06
7.1467e+06
7.03274e+06
6.91518e+06
6.80179e+06
6.6929e+06
6.58816e+06
6.48727e+06
6.38995e+06
6.29587e+06
6.20472e+06
6.11612e+06
6.02968e+06
5.94492e+06
5.86127e+06
5.77799e+06
5.69404e+06
5.60795e+06
5.5179e+06
7.14689e+06
7.03292e+06
6.91536e+06
6.802e+06
6.69313e+06
6.58842e+06
6.48759e+06
6.39033e+06
6.29634e+06
6.2053e+06
6.11685e+06
6.03063e+06
5.94618e+06
5.863e+06
5.78048e+06
5.69787e+06
5.61443e+06
5.53019e+06
7.14711e+06
7.03318e+06
6.91564e+06
6.8023e+06
6.69347e+06
6.58882e+06
6.48805e+06
6.39089e+06
6.29702e+06
6.20614e+06
6.11792e+06
6.032e+06
5.94799e+06
5.86546e+06
5.78396e+06
5.70304e+06
5.62256e+06
5.54349e+06
7.14744e+06
7.03354e+06
6.91602e+06
6.80272e+06
6.69394e+06
6.58936e+06
6.48869e+06
6.39165e+06
6.29796e+06
6.2073e+06
6.11938e+06
6.03386e+06
5.95042e+06
5.86872e+06
5.78845e+06
5.70946e+06
5.63197e+06
5.55727e+06
7.14787e+06
7.03402e+06
6.91653e+06
6.80328e+06
6.69456e+06
6.59008e+06
6.48954e+06
6.39267e+06
6.29919e+06
6.20882e+06
6.12127e+06
6.03626e+06
5.95352e+06
5.8728e+06
5.79394e+06
5.71698e+06
5.64236e+06
5.5713e+06
7.14843e+06
7.03463e+06
6.91719e+06
6.80399e+06
6.69536e+06
6.591e+06
6.49062e+06
6.39396e+06
6.30075e+06
6.21073e+06
6.12364e+06
6.03925e+06
5.95732e+06
5.87772e+06
5.80038e+06
5.72547e+06
5.6535e+06
5.58546e+06
7.1492e+06
7.03542e+06
6.91802e+06
6.80489e+06
6.69637e+06
6.59215e+06
6.49196e+06
6.39556e+06
6.30268e+06
6.21308e+06
6.12654e+06
6.04285e+06
5.96186e+06
5.88346e+06
5.8077e+06
5.73479e+06
5.6652e+06
5.59969e+06
7.15012e+06
7.0364e+06
6.91904e+06
6.80599e+06
6.6976e+06
6.59356e+06
6.49361e+06
6.39751e+06
6.30502e+06
6.21592e+06
6.13e+06
6.04711e+06
5.96712e+06
5.89e+06
5.81582e+06
5.7448e+06
5.67734e+06
5.61396e+06
7.15148e+06
7.03762e+06
6.92029e+06
6.80733e+06
6.69909e+06
6.59526e+06
6.49559e+06
6.39984e+06
6.3078e+06
6.21926e+06
6.13404e+06
6.05201e+06
5.9731e+06
5.89728e+06
5.82465e+06
5.7554e+06
5.68982e+06
5.62826e+06
7.15271e+06
7.03896e+06
6.92166e+06
6.8088e+06
6.70072e+06
6.59711e+06
6.49773e+06
6.40236e+06
6.31078e+06
6.22281e+06
6.13829e+06
6.05711e+06
5.9792e+06
5.90458e+06
5.83331e+06
5.76555e+06
5.70149e+06
5.64137e+06
7.15442e+06
7.04052e+06
6.92324e+06
6.81048e+06
6.70257e+06
6.59921e+06
6.50015e+06
6.40518e+06
6.3141e+06
6.22674e+06
6.14295e+06
6.06264e+06
5.98576e+06
5.91229e+06
5.84231e+06
5.77591e+06
5.71322e+06
5.65435e+06
7.15666e+06
7.04259e+06
6.92532e+06
6.81269e+06
6.70501e+06
6.60196e+06
6.50331e+06
6.40885e+06
6.31839e+06
6.23177e+06
6.14885e+06
6.06955e+06
5.99381e+06
5.92163e+06
5.85302e+06
5.78803e+06
5.72671e+06
5.66909e+06
7.15957e+06
7.04532e+06
6.92807e+06
6.8156e+06
6.7082e+06
6.60555e+06
6.50741e+06
6.41358e+06
6.32386e+06
6.23811e+06
6.15621e+06
6.07805e+06
6.00358e+06
5.93276e+06
5.86557e+06
5.802e+06
5.74204e+06
5.68563e+06
7.16316e+06
7.04883e+06
6.93164e+06
6.81939e+06
6.71235e+06
6.61019e+06
6.51266e+06
6.41957e+06
6.33073e+06
6.24599e+06
6.16522e+06
6.08831e+06
6.01519e+06
5.94577e+06
5.88e+06
5.81782e+06
5.75916e+06
5.70392e+06
7.16768e+06
7.05325e+06
6.93617e+06
6.82421e+06
6.71761e+06
6.61603e+06
6.51924e+06
6.42701e+06
6.33916e+06
6.25553e+06
6.17598e+06
6.10038e+06
6.02863e+06
5.9606e+06
5.89621e+06
5.83535e+06
5.7779e+06
5.72375e+06
7.17293e+06
7.05859e+06
6.94173e+06
6.83015e+06
6.72408e+06
6.62319e+06
6.52721e+06
6.43593e+06
6.34916e+06
6.2667e+06
6.1884e+06
6.11411e+06
6.04368e+06
5.97698e+06
5.91387e+06
5.85422e+06
5.79788e+06
5.7447e+06
7.17915e+06
7.06487e+06
6.94827e+06
6.83712e+06
6.73165e+06
6.6315e+06
6.5364e+06
6.44612e+06
6.36042e+06
6.27912e+06
6.20204e+06
6.12898e+06
6.05978e+06
5.99428e+06
5.93232e+06
5.87373e+06
5.81836e+06
5.76603e+06
7.18445e+06
7.07017e+06
6.95377e+06
6.843e+06
6.73802e+06
6.63847e+06
6.54405e+06
6.4545e+06
6.3696e+06
6.28914e+06
6.2129e+06
6.14069e+06
6.07233e+06
6.00763e+06
5.94642e+06
5.88852e+06
5.83377e+06
5.782e+06
7.1876e+06
7.07363e+06
6.95749e+06
6.84701e+06
6.74239e+06
6.64324e+06
6.54926e+06
6.4602e+06
6.37581e+06
6.29586e+06
6.22015e+06
6.14846e+06
6.0806e+06
6.01639e+06
5.95563e+06
5.89814e+06
5.84376e+06
5.79232e+06
7.19014e+06
7.07615e+06
6.96018e+06
6.84994e+06
6.74559e+06
6.64675e+06
6.5531e+06
6.46438e+06
6.38034e+06
6.30076e+06
6.22541e+06
6.15408e+06
6.08656e+06
6.02267e+06
5.96221e+06
5.905e+06
5.85087e+06
5.79965e+06
7.19131e+06
7.07778e+06
6.96206e+06
6.85204e+06
6.7479e+06
6.64928e+06
6.55586e+06
6.46739e+06
6.3836e+06
6.30428e+06
6.22917e+06
6.15809e+06
6.09081e+06
6.02713e+06
5.96688e+06
5.90986e+06
5.85589e+06
5.80482e+06
7.19231e+06
7.07889e+06
6.96335e+06
6.8535e+06
6.74953e+06
6.65107e+06
6.55782e+06
6.46952e+06
6.38591e+06
6.30675e+06
6.23182e+06
6.1609e+06
6.09378e+06
6.03026e+06
5.97014e+06
5.91325e+06
5.8594e+06
5.80842e+06
7.1929e+06
7.0796e+06
6.96422e+06
6.8545e+06
6.75065e+06
6.65231e+06
6.55918e+06
6.47099e+06
6.3875e+06
6.30847e+06
6.23365e+06
6.16285e+06
6.09583e+06
6.03241e+06
5.97239e+06
5.91558e+06
5.8618e+06
5.81089e+06
7.19291e+06
7.08e+06
6.96478e+06
6.85516e+06
6.7514e+06
6.65314e+06
6.56009e+06
6.47198e+06
6.38857e+06
6.30962e+06
6.23488e+06
6.16415e+06
6.09721e+06
6.03385e+06
5.97389e+06
5.91714e+06
5.86341e+06
5.81255e+06
7.19291e+06
7.08023e+06
6.96513e+06
6.85558e+06
6.75188e+06
6.65367e+06
6.56068e+06
6.47262e+06
6.38927e+06
6.31036e+06
6.23567e+06
6.16499e+06
6.09809e+06
6.03478e+06
5.97486e+06
5.91814e+06
5.86445e+06
5.81361e+06
7.19298e+06
7.08038e+06
6.96534e+06
6.85584e+06
6.75217e+06
6.654e+06
6.56103e+06
6.47301e+06
6.38969e+06
6.31081e+06
6.23616e+06
6.1655e+06
6.09863e+06
6.03534e+06
5.97545e+06
5.91875e+06
5.86508e+06
5.81426e+06
7.19303e+06
7.08046e+06
6.96545e+06
6.85598e+06
6.75233e+06
6.65418e+06
6.56123e+06
6.47322e+06
6.38991e+06
6.31105e+06
6.23641e+06
6.16577e+06
6.09892e+06
6.03565e+06
5.97576e+06
5.91908e+06
5.86541e+06
5.8146e+06
7.19305e+06
7.08049e+06
6.9655e+06
6.85603e+06
6.7524e+06
6.65425e+06
6.56131e+06
6.47331e+06
6.39e+06
6.31115e+06
6.23652e+06
6.16589e+06
6.09904e+06
6.03577e+06
5.97589e+06
5.91921e+06
5.86555e+06
5.81474e+06
4.64958e+06
4.64921e+06
4.64847e+06
4.64733e+06
4.64581e+06
4.64389e+06
4.64156e+06
4.63882e+06
4.63566e+06
4.63208e+06
4.62807e+06
4.62364e+06
4.61876e+06
4.61346e+06
4.60771e+06
4.60152e+06
4.59489e+06
4.58782e+06
4.58031e+06
4.57235e+06
4.56396e+06
4.55512e+06
4.54585e+06
4.53614e+06
4.526e+06
4.51543e+06
4.50444e+06
4.49303e+06
4.4812e+06
4.46895e+06
4.4563e+06
4.44325e+06
4.4298e+06
4.41596e+06
4.40173e+06
4.38712e+06
4.37213e+06
4.35678e+06
4.34106e+06
4.32499e+06
4.30857e+06
4.2918e+06
4.27469e+06
4.25725e+06
4.23948e+06
4.22139e+06
4.20299e+06
4.18428e+06
4.16526e+06
4.14595e+06
4.12635e+06
4.10646e+06
4.08629e+06
4.06584e+06
4.04513e+06
4.02415e+06
4.00292e+06
3.98143e+06
3.95969e+06
3.93771e+06
3.9155e+06
3.89305e+06
3.87037e+06
3.84747e+06
3.82436e+06
3.80102e+06
3.77748e+06
3.75374e+06
3.72979e+06
3.70565e+06
3.68131e+06
3.65679e+06
3.63208e+06
3.60718e+06
3.58212e+06
3.55687e+06
3.53146e+06
3.50589e+06
3.48014e+06
3.45424e+06
3.42819e+06
3.40198e+06
3.37562e+06
3.34911e+06
3.32246e+06
3.29567e+06
3.26874e+06
3.24168e+06
3.21448e+06
3.18716e+06
3.15971e+06
3.13213e+06
3.10444e+06
3.07663e+06
3.04871e+06
3.02067e+06
2.99252e+06
2.96427e+06
2.93591e+06
2.90745e+06
2.87889e+06
2.85023e+06
2.82149e+06
2.79265e+06
2.76372e+06
2.7347e+06
2.70561e+06
2.67643e+06
2.64717e+06
2.61784e+06
2.58844e+06
2.55897e+06
2.52943e+06
2.49983e+06
2.47016e+06
2.44044e+06
2.41066e+06
2.38083e+06
2.35095e+06
2.32103e+06
2.29106e+06
2.26104e+06
2.231e+06
2.20092e+06
2.1708e+06
2.14066e+06
2.1105e+06
2.08031e+06
2.05011e+06
2.01989e+06
1.98966e+06
1.95943e+06
1.92919e+06
1.89896e+06
1.86873e+06
1.83851e+06
1.8083e+06
1.77811e+06
1.74794e+06
1.71779e+06
1.68768e+06
1.6576e+06
1.62756e+06
1.59756e+06
1.56761e+06
1.53772e+06
1.50788e+06
1.47811e+06
1.44841e+06
1.41877e+06
1.38922e+06
1.35976e+06
1.33038e+06
1.3011e+06
1.27192e+06
1.24285e+06
1.21389e+06
1.18506e+06
1.15635e+06
1.12777e+06
1.09934e+06
1.07105e+06
1.04292e+06
1.01495e+06
987155
959535
932102
904866
877835
851020
824432
798085
771992
746169
720637
695421
670555
646090
622112
598809
4.65126e+06
4.65089e+06
4.65014e+06
4.649e+06
4.64747e+06
4.64553e+06
4.64319e+06
4.64043e+06
4.63725e+06
4.63365e+06
4.62963e+06
4.62516e+06
4.62027e+06
4.61493e+06
4.60916e+06
4.60294e+06
4.59628e+06
4.58918e+06
4.58163e+06
4.57364e+06
4.56521e+06
4.55634e+06
4.54703e+06
4.53729e+06
4.52711e+06
4.51651e+06
4.50548e+06
4.49403e+06
4.48216e+06
4.46989e+06
4.4572e+06
4.44411e+06
4.43063e+06
4.41675e+06
4.40249e+06
4.38785e+06
4.37284e+06
4.35745e+06
4.34171e+06
4.32561e+06
4.30916e+06
4.29236e+06
4.27523e+06
4.25776e+06
4.23997e+06
4.22186e+06
4.20343e+06
4.1847e+06
4.16566e+06
4.14633e+06
4.12671e+06
4.1068e+06
4.08661e+06
4.06615e+06
4.04542e+06
4.02443e+06
4.00318e+06
3.98168e+06
3.95993e+06
3.93793e+06
3.91571e+06
3.89325e+06
3.87056e+06
3.84765e+06
3.82452e+06
3.80118e+06
3.77763e+06
3.75388e+06
3.72992e+06
3.70577e+06
3.68143e+06
3.65689e+06
3.63218e+06
3.60728e+06
3.58221e+06
3.55696e+06
3.53154e+06
3.50596e+06
3.48021e+06
3.45431e+06
3.42825e+06
3.40203e+06
3.37567e+06
3.34916e+06
3.3225e+06
3.29571e+06
3.26878e+06
3.24171e+06
3.21452e+06
3.18719e+06
3.15974e+06
3.13216e+06
3.10447e+06
3.07666e+06
3.04873e+06
3.02069e+06
2.99254e+06
2.96428e+06
2.93592e+06
2.90746e+06
2.8789e+06
2.85025e+06
2.8215e+06
2.79266e+06
2.76373e+06
2.73471e+06
2.70562e+06
2.67644e+06
2.64718e+06
2.61785e+06
2.58845e+06
2.55897e+06
2.52944e+06
2.49983e+06
2.47017e+06
2.44044e+06
2.41067e+06
2.38084e+06
2.35095e+06
2.32103e+06
2.29106e+06
2.26105e+06
2.231e+06
2.20092e+06
2.1708e+06
2.14066e+06
2.1105e+06
2.08031e+06
2.05011e+06
2.01989e+06
1.98967e+06
1.95943e+06
1.9292e+06
1.89896e+06
1.86873e+06
1.83851e+06
1.8083e+06
1.77811e+06
1.74794e+06
1.71779e+06
1.68768e+06
1.6576e+06
1.62756e+06
1.59756e+06
1.56761e+06
1.53772e+06
1.50788e+06
1.47811e+06
1.44841e+06
1.41877e+06
1.38922e+06
1.35976e+06
1.33038e+06
1.3011e+06
1.27192e+06
1.24285e+06
1.21389e+06
1.18506e+06
1.15635e+06
1.12777e+06
1.09934e+06
1.07105e+06
1.04292e+06
1.01495e+06
987154
959534
932101
904863
877832
851016
824428
798079
771984
746159
720623
695401
670527
646045
622032
598619
4.65464e+06
4.65426e+06
4.65349e+06
4.65234e+06
4.65078e+06
4.64882e+06
4.64645e+06
4.64366e+06
4.64045e+06
4.63681e+06
4.63274e+06
4.62823e+06
4.62328e+06
4.61789e+06
4.61206e+06
4.60578e+06
4.59906e+06
4.59189e+06
4.58427e+06
4.57622e+06
4.56772e+06
4.55878e+06
4.5494e+06
4.53958e+06
4.52933e+06
4.51866e+06
4.50756e+06
4.49603e+06
4.4841e+06
4.47175e+06
4.45899e+06
4.44584e+06
4.43229e+06
4.41835e+06
4.40402e+06
4.38932e+06
4.37424e+06
4.3588e+06
4.343e+06
4.32684e+06
4.31033e+06
4.29348e+06
4.2763e+06
4.25878e+06
4.24094e+06
4.22278e+06
4.20431e+06
4.18554e+06
4.16646e+06
4.14709e+06
4.12743e+06
4.10748e+06
4.08726e+06
4.06677e+06
4.046e+06
4.02498e+06
4.0037e+06
3.98217e+06
3.96039e+06
3.93837e+06
3.91612e+06
3.89364e+06
3.87093e+06
3.848e+06
3.82485e+06
3.80149e+06
3.77792e+06
3.75415e+06
3.73018e+06
3.70601e+06
3.68166e+06
3.65711e+06
3.63238e+06
3.60747e+06
3.58239e+06
3.55713e+06
3.5317e+06
3.50611e+06
3.48035e+06
3.45444e+06
3.42837e+06
3.40215e+06
3.37577e+06
3.34926e+06
3.3226e+06
3.2958e+06
3.26886e+06
3.24179e+06
3.21459e+06
3.18725e+06
3.1598e+06
3.13222e+06
3.10452e+06
3.0767e+06
3.04877e+06
3.02073e+06
2.99258e+06
2.96432e+06
2.93596e+06
2.90749e+06
2.87893e+06
2.85027e+06
2.82152e+06
2.79268e+06
2.76375e+06
2.73473e+06
2.70563e+06
2.67645e+06
2.6472e+06
2.61786e+06
2.58846e+06
2.55899e+06
2.52945e+06
2.49984e+06
2.47018e+06
2.44045e+06
2.41067e+06
2.38084e+06
2.35096e+06
2.32103e+06
2.29106e+06
2.26105e+06
2.231e+06
2.20092e+06
2.17081e+06
2.14067e+06
2.1105e+06
2.08032e+06
2.05011e+06
2.01989e+06
1.98967e+06
1.95943e+06
1.9292e+06
1.89896e+06
1.86873e+06
1.83851e+06
1.8083e+06
1.77811e+06
1.74794e+06
1.71779e+06
1.68768e+06
1.6576e+06
1.62756e+06
1.59756e+06
1.56761e+06
1.53772e+06
1.50788e+06
1.47811e+06
1.44841e+06
1.41877e+06
1.38922e+06
1.35976e+06
1.33038e+06
1.3011e+06
1.27192e+06
1.24285e+06
1.21389e+06
1.18506e+06
1.15635e+06
1.12777e+06
1.09934e+06
1.07105e+06
1.04292e+06
1.01495e+06
987152
959531
932097
904859
877826
851009
824419
798067
771968
746138
720595
695363
670470
645959
621885
598321
4.65972e+06
4.65933e+06
4.65855e+06
4.65737e+06
4.65579e+06
4.65379e+06
4.65137e+06
4.64853e+06
4.64526e+06
4.64156e+06
4.63742e+06
4.63284e+06
4.62781e+06
4.62234e+06
4.61642e+06
4.61005e+06
4.60323e+06
4.59596e+06
4.58825e+06
4.58009e+06
4.57148e+06
4.56243e+06
4.55295e+06
4.54302e+06
4.53266e+06
4.52188e+06
4.51067e+06
4.49904e+06
4.487e+06
4.47454e+06
4.46168e+06
4.44842e+06
4.43477e+06
4.42073e+06
4.40631e+06
4.39151e+06
4.37634e+06
4.36081e+06
4.34492e+06
4.32868e+06
4.31209e+06
4.29516e+06
4.2779e+06
4.26031e+06
4.2424e+06
4.22417e+06
4.20563e+06
4.18679e+06
4.16765e+06
4.14822e+06
4.1285e+06
4.1085e+06
4.08823e+06
4.06768e+06
4.04687e+06
4.0258e+06
4.00448e+06
3.98291e+06
3.96109e+06
3.93903e+06
3.91674e+06
3.89423e+06
3.87148e+06
3.84852e+06
3.82534e+06
3.80195e+06
3.77836e+06
3.75456e+06
3.73057e+06
3.70638e+06
3.682e+06
3.65743e+06
3.63268e+06
3.60776e+06
3.58265e+06
3.55738e+06
3.53194e+06
3.50633e+06
3.48056e+06
3.45463e+06
3.42855e+06
3.40231e+06
3.37593e+06
3.3494e+06
3.32273e+06
3.29592e+06
3.26898e+06
3.2419e+06
3.21469e+06
3.18735e+06
3.15989e+06
3.1323e+06
3.1046e+06
3.07678e+06
3.04884e+06
3.02079e+06
2.99264e+06
2.96437e+06
2.93601e+06
2.90754e+06
2.87897e+06
2.85031e+06
2.82156e+06
2.79271e+06
2.76378e+06
2.73476e+06
2.70566e+06
2.67648e+06
2.64722e+06
2.61788e+06
2.58848e+06
2.559e+06
2.52946e+06
2.49986e+06
2.47019e+06
2.44046e+06
2.41068e+06
2.38085e+06
2.35097e+06
2.32104e+06
2.29107e+06
2.26106e+06
2.23101e+06
2.20093e+06
2.17081e+06
2.14067e+06
2.11051e+06
2.08032e+06
2.05012e+06
2.0199e+06
1.98967e+06
1.95944e+06
1.9292e+06
1.89896e+06
1.86873e+06
1.83851e+06
1.8083e+06
1.77811e+06
1.74794e+06
1.7178e+06
1.68768e+06
1.6576e+06
1.62756e+06
1.59756e+06
1.56762e+06
1.53772e+06
1.50788e+06
1.47811e+06
1.44841e+06
1.41877e+06
1.38922e+06
1.35976e+06
1.33038e+06
1.3011e+06
1.27192e+06
1.24285e+06
1.21389e+06
1.18506e+06
1.15635e+06
1.12777e+06
1.09934e+06
1.07105e+06
1.04292e+06
1.01495e+06
987149
959527
932092
904852
877818
850998
824405
798049
771945
746108
720554
695306
670390
645838
621690
597976
4.66655e+06
4.66614e+06
4.66534e+06
4.66413e+06
4.6625e+06
4.66045e+06
4.65798e+06
4.65507e+06
4.65172e+06
4.64793e+06
4.6437e+06
4.63902e+06
4.63388e+06
4.62829e+06
4.62225e+06
4.61576e+06
4.60881e+06
4.60141e+06
4.59356e+06
4.58526e+06
4.57651e+06
4.56731e+06
4.55768e+06
4.54761e+06
4.53711e+06
4.52617e+06
4.51482e+06
4.50304e+06
4.49085e+06
4.47826e+06
4.46526e+06
4.45186e+06
4.43807e+06
4.4239e+06
4.40935e+06
4.39442e+06
4.37913e+06
4.36348e+06
4.34747e+06
4.33112e+06
4.31442e+06
4.29738e+06
4.28002e+06
4.26233e+06
4.24432e+06
4.22601e+06
4.20738e+06
4.18845e+06
4.16923e+06
4.14972e+06
4.12993e+06
4.10986e+06
4.08951e+06
4.0689e+06
4.04802e+06
4.02689e+06
4.00551e+06
3.98388e+06
3.96201e+06
3.93991e+06
3.91757e+06
3.895e+06
3.87222e+06
3.84921e+06
3.826e+06
3.80257e+06
3.77894e+06
3.75511e+06
3.73108e+06
3.70686e+06
3.68245e+06
3.65786e+06
3.63309e+06
3.60813e+06
3.58301e+06
3.55771e+06
3.53225e+06
3.50662e+06
3.48083e+06
3.45489e+06
3.42879e+06
3.40254e+06
3.37614e+06
3.3496e+06
3.32292e+06
3.2961e+06
3.26914e+06
3.24205e+06
3.21483e+06
3.18748e+06
3.16001e+06
3.13241e+06
3.1047e+06
3.07687e+06
3.04893e+06
3.02088e+06
2.99271e+06
2.96444e+06
2.93607e+06
2.9076e+06
2.87903e+06
2.85036e+06
2.82161e+06
2.79276e+06
2.76382e+06
2.7348e+06
2.70569e+06
2.67651e+06
2.64725e+06
2.61791e+06
2.5885e+06
2.55903e+06
2.52948e+06
2.49987e+06
2.47021e+06
2.44048e+06
2.4107e+06
2.38086e+06
2.35098e+06
2.32105e+06
2.29108e+06
2.26107e+06
2.23102e+06
2.20093e+06
2.17082e+06
2.14068e+06
2.11051e+06
2.08032e+06
2.05012e+06
2.0199e+06
1.98967e+06
1.95944e+06
1.9292e+06
1.89897e+06
1.86873e+06
1.83851e+06
1.8083e+06
1.77811e+06
1.74794e+06
1.7178e+06
1.68768e+06
1.6576e+06
1.62756e+06
1.59757e+06
1.56762e+06
1.53772e+06
1.50788e+06
1.47811e+06
1.44841e+06
1.41878e+06
1.38922e+06
1.35976e+06
1.33038e+06
1.3011e+06
1.27192e+06
1.24285e+06
1.21389e+06
1.18506e+06
1.15635e+06
1.12777e+06
1.09934e+06
1.07105e+06
1.04292e+06
1.01495e+06
987145
959522
932085
904844
877807
850985
824387
798026
771915
746068
720501
695234
670289
645691
621464
597613
4.67516e+06
4.67474e+06
4.6739e+06
4.67265e+06
4.67097e+06
4.66885e+06
4.6663e+06
4.6633e+06
4.65985e+06
4.65596e+06
4.6516e+06
4.64679e+06
4.64151e+06
4.63578e+06
4.62959e+06
4.62293e+06
4.61582e+06
4.60824e+06
4.60022e+06
4.59173e+06
4.5828e+06
4.57342e+06
4.5636e+06
4.55335e+06
4.54265e+06
4.53154e+06
4.51999e+06
4.50804e+06
4.49567e+06
4.48289e+06
4.46971e+06
4.45614e+06
4.44219e+06
4.42785e+06
4.41313e+06
4.39805e+06
4.3826e+06
4.3668e+06
4.35065e+06
4.33415e+06
4.31732e+06
4.30015e+06
4.28266e+06
4.26485e+06
4.24672e+06
4.22829e+06
4.20955e+06
4.19052e+06
4.1712e+06
4.15159e+06
4.1317e+06
4.11154e+06
4.0911e+06
4.07041e+06
4.04945e+06
4.02825e+06
4.00679e+06
3.98509e+06
3.96316e+06
3.94099e+06
3.91859e+06
3.89597e+06
3.87313e+06
3.85007e+06
3.82681e+06
3.80334e+06
3.77966e+06
3.75579e+06
3.73172e+06
3.70746e+06
3.68302e+06
3.65839e+06
3.63359e+06
3.6086e+06
3.58345e+06
3.55812e+06
3.53263e+06
3.50698e+06
3.48117e+06
3.45521e+06
3.42909e+06
3.40282e+06
3.3764e+06
3.34984e+06
3.32314e+06
3.29631e+06
3.26934e+06
3.24223e+06
3.215e+06
3.18764e+06
3.16016e+06
3.13255e+06
3.10483e+06
3.07699e+06
3.04904e+06
3.02098e+06
2.99281e+06
2.96453e+06
2.93616e+06
2.90768e+06
2.8791e+06
2.85043e+06
2.82167e+06
2.79281e+06
2.76387e+06
2.73484e+06
2.70574e+06
2.67655e+06
2.64728e+06
2.61794e+06
2.58853e+06
2.55905e+06
2.52951e+06
2.4999e+06
2.47023e+06
2.4405e+06
2.41072e+06
2.38088e+06
2.351e+06
2.32107e+06
2.29109e+06
2.26108e+06
2.23103e+06
2.20094e+06
2.17083e+06
2.14068e+06
2.11052e+06
2.08033e+06
2.05013e+06
2.01991e+06
1.98968e+06
1.95944e+06
1.92921e+06
1.89897e+06
1.86874e+06
1.83852e+06
1.80831e+06
1.77811e+06
1.74794e+06
1.7178e+06
1.68768e+06
1.6576e+06
1.62756e+06
1.59757e+06
1.56762e+06
1.53772e+06
1.50789e+06
1.47811e+06
1.44841e+06
1.41878e+06
1.38922e+06
1.35976e+06
1.33038e+06
1.3011e+06
1.27192e+06
1.24285e+06
1.21389e+06
1.18506e+06
1.15635e+06
1.12777e+06
1.09934e+06
1.07105e+06
1.04291e+06
1.01494e+06
987140
959516
932077
904834
877794
850968
824366
797999
771879
746021
720438
695149
670171
645523
621218
597246
4.68562e+06
4.68517e+06
4.6843e+06
4.68299e+06
4.68124e+06
4.67904e+06
4.67639e+06
4.67328e+06
4.66971e+06
4.66567e+06
4.66116e+06
4.65619e+06
4.65074e+06
4.64482e+06
4.63844e+06
4.63158e+06
4.62426e+06
4.61648e+06
4.60823e+06
4.59953e+06
4.59037e+06
4.58076e+06
4.57072e+06
4.56023e+06
4.54931e+06
4.53796e+06
4.5262e+06
4.51402e+06
4.50142e+06
4.48843e+06
4.47504e+06
4.46126e+06
4.4471e+06
4.43256e+06
4.41765e+06
4.40238e+06
4.38674e+06
4.37076e+06
4.35443e+06
4.33777e+06
4.32077e+06
4.30344e+06
4.2858e+06
4.26784e+06
4.24957e+06
4.231e+06
4.21214e+06
4.19298e+06
4.17353e+06
4.15381e+06
4.13381e+06
4.11354e+06
4.093e+06
4.07221e+06
4.05116e+06
4.02986e+06
4.00832e+06
3.98654e+06
3.96452e+06
3.94228e+06
3.91981e+06
3.89712e+06
3.87421e+06
3.8511e+06
3.82777e+06
3.80424e+06
3.78052e+06
3.75659e+06
3.73248e+06
3.70818e+06
3.68369e+06
3.65902e+06
3.63418e+06
3.60916e+06
3.58397e+06
3.55862e+06
3.5331e+06
3.50742e+06
3.48158e+06
3.45559e+06
3.42944e+06
3.40315e+06
3.37671e+06
3.35013e+06
3.32342e+06
3.29656e+06
3.26957e+06
3.24245e+06
3.2152e+06
3.18783e+06
3.16033e+06
3.13272e+06
3.10498e+06
3.07713e+06
3.04917e+06
3.0211e+06
2.99292e+06
2.96464e+06
2.93625e+06
2.90777e+06
2.87918e+06
2.85051e+06
2.82174e+06
2.79288e+06
2.76393e+06
2.7349e+06
2.70579e+06
2.6766e+06
2.64733e+06
2.61798e+06
2.58857e+06
2.55909e+06
2.52954e+06
2.49993e+06
2.47025e+06
2.44052e+06
2.41074e+06
2.3809e+06
2.35101e+06
2.32108e+06
2.29111e+06
2.26109e+06
2.23104e+06
2.20095e+06
2.17084e+06
2.14069e+06
2.11053e+06
2.08034e+06
2.05013e+06
2.01991e+06
1.98968e+06
1.95945e+06
1.92921e+06
1.89897e+06
1.86874e+06
1.83852e+06
1.80831e+06
1.77812e+06
1.74795e+06
1.7178e+06
1.68769e+06
1.65761e+06
1.62756e+06
1.59757e+06
1.56762e+06
1.53772e+06
1.50789e+06
1.47811e+06
1.44841e+06
1.41878e+06
1.38922e+06
1.35976e+06
1.33038e+06
1.3011e+06
1.27192e+06
1.24285e+06
1.21389e+06
1.18506e+06
1.15635e+06
1.12777e+06
1.09933e+06
1.07104e+06
1.04291e+06
1.01494e+06
987134
959508
932068
904822
877779
850948
824341
797966
771837
745966
720366
695053
670040
645341
620962
596885
4.69799e+06
4.69751e+06
4.69659e+06
4.69522e+06
4.69338e+06
4.69108e+06
4.68831e+06
4.68506e+06
4.68133e+06
4.67712e+06
4.67243e+06
4.66725e+06
4.6616e+06
4.65546e+06
4.64883e+06
4.64174e+06
4.63416e+06
4.62612e+06
4.61761e+06
4.60864e+06
4.59922e+06
4.58934e+06
4.57902e+06
4.56826e+06
4.55707e+06
4.54545e+06
4.53342e+06
4.52097e+06
4.50812e+06
4.49487e+06
4.48123e+06
4.46721e+06
4.4528e+06
4.43803e+06
4.42289e+06
4.40739e+06
4.39154e+06
4.37535e+06
4.35882e+06
4.34195e+06
4.32476e+06
4.30726e+06
4.28943e+06
4.2713e+06
4.25287e+06
4.23414e+06
4.21512e+06
4.19582e+06
4.17624e+06
4.15637e+06
4.13624e+06
4.11585e+06
4.09519e+06
4.07428e+06
4.05313e+06
4.03172e+06
4.01008e+06
3.9882e+06
3.9661e+06
3.94377e+06
3.92121e+06
3.89845e+06
3.87547e+06
3.85228e+06
3.82889e+06
3.8053e+06
3.78151e+06
3.75753e+06
3.73336e+06
3.709e+06
3.68447e+06
3.65975e+06
3.63487e+06
3.6098e+06
3.58458e+06
3.55918e+06
3.53363e+06
3.50791e+06
3.48204e+06
3.45602e+06
3.42985e+06
3.40353e+06
3.37707e+06
3.35047e+06
3.32373e+06
3.29685e+06
3.26984e+06
3.24271e+06
3.21544e+06
3.18805e+06
3.16054e+06
3.13291e+06
3.10516e+06
3.0773e+06
3.04933e+06
3.02124e+06
2.99305e+06
2.96476e+06
2.93637e+06
2.90787e+06
2.87928e+06
2.8506e+06
2.82182e+06
2.79295e+06
2.764e+06
2.73496e+06
2.70585e+06
2.67665e+06
2.64738e+06
2.61803e+06
2.58861e+06
2.55913e+06
2.52957e+06
2.49996e+06
2.47028e+06
2.44055e+06
2.41076e+06
2.38092e+06
2.35104e+06
2.3211e+06
2.29112e+06
2.26111e+06
2.23105e+06
2.20097e+06
2.17085e+06
2.1407e+06
2.11054e+06
2.08035e+06
2.05014e+06
2.01992e+06
1.98969e+06
1.95945e+06
1.92921e+06
1.89898e+06
1.86874e+06
1.83852e+06
1.80831e+06
1.77812e+06
1.74795e+06
1.7178e+06
1.68769e+06
1.65761e+06
1.62757e+06
1.59757e+06
1.56762e+06
1.53773e+06
1.50789e+06
1.47811e+06
1.44841e+06
1.41878e+06
1.38923e+06
1.35976e+06
1.33038e+06
1.3011e+06
1.27192e+06
1.24285e+06
1.21389e+06
1.18505e+06
1.15634e+06
1.12777e+06
1.09933e+06
1.07104e+06
1.04291e+06
1.01493e+06
987128
959500
932057
904808
877762
850926
824313
797930
771791
745906
720287
694948
669899
645151
620702
596534
4.71236e+06
4.71185e+06
4.71087e+06
4.70941e+06
4.70747e+06
4.70505e+06
4.70213e+06
4.69871e+06
4.69479e+06
4.69037e+06
4.68546e+06
4.68004e+06
4.67412e+06
4.66771e+06
4.66081e+06
4.65342e+06
4.64555e+06
4.6372e+06
4.62838e+06
4.6191e+06
4.60935e+06
4.59915e+06
4.58851e+06
4.57744e+06
4.56593e+06
4.554e+06
4.54165e+06
4.5289e+06
4.51574e+06
4.5022e+06
4.48827e+06
4.47396e+06
4.45928e+06
4.44423e+06
4.42883e+06
4.41308e+06
4.39698e+06
4.38055e+06
4.36378e+06
4.34669e+06
4.32929e+06
4.31157e+06
4.29355e+06
4.27522e+06
4.25661e+06
4.2377e+06
4.21851e+06
4.19904e+06
4.17929e+06
4.15928e+06
4.139e+06
4.11846e+06
4.09767e+06
4.07663e+06
4.05535e+06
4.03383e+06
4.01207e+06
3.99009e+06
3.96788e+06
3.94545e+06
3.9228e+06
3.89995e+06
3.87688e+06
3.85361e+06
3.83015e+06
3.80648e+06
3.78263e+06
3.75858e+06
3.73435e+06
3.70994e+06
3.68534e+06
3.66058e+06
3.63564e+06
3.61053e+06
3.58526e+06
3.55982e+06
3.53423e+06
3.50848e+06
3.48257e+06
3.45652e+06
3.43031e+06
3.40397e+06
3.37748e+06
3.35085e+06
3.32408e+06
3.29718e+06
3.27015e+06
3.24299e+06
3.21571e+06
3.1883e+06
3.16077e+06
3.13312e+06
3.10536e+06
3.07748e+06
3.0495e+06
3.0214e+06
2.9932e+06
2.9649e+06
2.93649e+06
2.90799e+06
2.87939e+06
2.8507e+06
2.82191e+06
2.79304e+06
2.76408e+06
2.73504e+06
2.70591e+06
2.67671e+06
2.64743e+06
2.61808e+06
2.58866e+06
2.55917e+06
2.52961e+06
2.49999e+06
2.47032e+06
2.44058e+06
2.41079e+06
2.38095e+06
2.35106e+06
2.32112e+06
2.29114e+06
2.26113e+06
2.23107e+06
2.20098e+06
2.17086e+06
2.14072e+06
2.11055e+06
2.08036e+06
2.05015e+06
2.01993e+06
1.9897e+06
1.95946e+06
1.92922e+06
1.89898e+06
1.86875e+06
1.83853e+06
1.80832e+06
1.77812e+06
1.74795e+06
1.71781e+06
1.68769e+06
1.65761e+06
1.62757e+06
1.59757e+06
1.56762e+06
1.53773e+06
1.50789e+06
1.47812e+06
1.44841e+06
1.41878e+06
1.38923e+06
1.35976e+06
1.33038e+06
1.3011e+06
1.27192e+06
1.24285e+06
1.21389e+06
1.18505e+06
1.15634e+06
1.12777e+06
1.09933e+06
1.07104e+06
1.0429e+06
1.01493e+06
987121
959491
932046
904793
877743
850902
824282
797891
771741
745841
720202
694837
669752
644955
620443
596197
4.72885e+06
4.72829e+06
4.72724e+06
4.72568e+06
4.72362e+06
4.72104e+06
4.71793e+06
4.71431e+06
4.71017e+06
4.7055e+06
4.70031e+06
4.6946e+06
4.68838e+06
4.68164e+06
4.67441e+06
4.66667e+06
4.65845e+06
4.64974e+06
4.64055e+06
4.63089e+06
4.62078e+06
4.61021e+06
4.59919e+06
4.58775e+06
4.57587e+06
4.56358e+06
4.55088e+06
4.53777e+06
4.52428e+06
4.51039e+06
4.49613e+06
4.4815e+06
4.4665e+06
4.45115e+06
4.43545e+06
4.41941e+06
4.40304e+06
4.38633e+06
4.36931e+06
4.35197e+06
4.33432e+06
4.31637e+06
4.29812e+06
4.27958e+06
4.26076e+06
4.24165e+06
4.22227e+06
4.20261e+06
4.18269e+06
4.16251e+06
4.14207e+06
4.12137e+06
4.10043e+06
4.07925e+06
4.05782e+06
4.03617e+06
4.01428e+06
3.99218e+06
3.96985e+06
3.94731e+06
3.92457e+06
3.90161e+06
3.87845e+06
3.8551e+06
3.83154e+06
3.8078e+06
3.78387e+06
3.75975e+06
3.73545e+06
3.71097e+06
3.68632e+06
3.66149e+06
3.6365e+06
3.61134e+06
3.58602e+06
3.56054e+06
3.5349e+06
3.5091e+06
3.48316e+06
3.45707e+06
3.43083e+06
3.40445e+06
3.37793e+06
3.35127e+06
3.32447e+06
3.29755e+06
3.27049e+06
3.24331e+06
3.216e+06
3.18858e+06
3.16103e+06
3.13336e+06
3.10558e+06
3.07769e+06
3.04969e+06
3.02158e+06
2.99337e+06
2.96505e+06
2.93663e+06
2.90812e+06
2.87951e+06
2.85081e+06
2.82201e+06
2.79313e+06
2.76417e+06
2.73512e+06
2.70599e+06
2.67678e+06
2.6475e+06
2.61814e+06
2.58871e+06
2.55922e+06
2.52966e+06
2.50003e+06
2.47035e+06
2.44061e+06
2.41082e+06
2.38098e+06
2.35108e+06
2.32115e+06
2.29116e+06
2.26114e+06
2.23109e+06
2.201e+06
2.17088e+06
2.14073e+06
2.11056e+06
2.08037e+06
2.05016e+06
2.01994e+06
1.9897e+06
1.95947e+06
1.92923e+06
1.89899e+06
1.86875e+06
1.83853e+06
1.80832e+06
1.77813e+06
1.74796e+06
1.71781e+06
1.68769e+06
1.65761e+06
1.62757e+06
1.59757e+06
1.56762e+06
1.53773e+06
1.50789e+06
1.47812e+06
1.44841e+06
1.41878e+06
1.38923e+06
1.35976e+06
1.33038e+06
1.3011e+06
1.27192e+06
1.24285e+06
1.21389e+06
1.18505e+06
1.15634e+06
1.12776e+06
1.09933e+06
1.07103e+06
1.0429e+06
1.01492e+06
987113
959481
932033
904778
877723
850877
824249
797849
771687
745772
720114
694721
669602
644760
620189
595873
4.74758e+06
4.74697e+06
4.74583e+06
4.74416e+06
4.74193e+06
4.73916e+06
4.73584e+06
4.73197e+06
4.72755e+06
4.72257e+06
4.71706e+06
4.711e+06
4.70441e+06
4.69729e+06
4.68966e+06
4.68152e+06
4.67287e+06
4.66374e+06
4.65413e+06
4.64404e+06
4.63349e+06
4.6225e+06
4.61106e+06
4.59919e+06
4.58689e+06
4.57419e+06
4.56108e+06
4.54758e+06
4.53369e+06
4.51943e+06
4.5048e+06
4.48981e+06
4.47446e+06
4.45877e+06
4.44274e+06
4.42638e+06
4.40969e+06
4.39269e+06
4.37538e+06
4.35776e+06
4.33985e+06
4.32164e+06
4.30314e+06
4.28437e+06
4.26531e+06
4.24599e+06
4.22639e+06
4.20653e+06
4.18642e+06
4.16605e+06
4.14543e+06
4.12456e+06
4.10345e+06
4.08211e+06
4.06053e+06
4.03873e+06
4.01671e+06
3.99447e+06
3.97202e+06
3.94936e+06
3.92649e+06
3.90343e+06
3.88017e+06
3.85672e+06
3.83307e+06
3.80924e+06
3.78522e+06
3.76103e+06
3.73665e+06
3.7121e+06
3.68738e+06
3.6625e+06
3.63744e+06
3.61222e+06
3.58685e+06
3.56131e+06
3.53563e+06
3.50979e+06
3.4838e+06
3.45767e+06
3.43139e+06
3.40497e+06
3.37842e+06
3.35173e+06
3.3249e+06
3.29795e+06
3.27087e+06
3.24366e+06
3.21633e+06
3.18888e+06
3.16131e+06
3.13362e+06
3.10583e+06
3.07792e+06
3.0499e+06
3.02178e+06
2.99355e+06
2.96522e+06
2.93679e+06
2.90826e+06
2.87964e+06
2.85093e+06
2.82213e+06
2.79324e+06
2.76426e+06
2.73521e+06
2.70607e+06
2.67685e+06
2.64756e+06
2.6182e+06
2.58877e+06
2.55927e+06
2.52971e+06
2.50008e+06
2.47039e+06
2.44065e+06
2.41085e+06
2.38101e+06
2.35111e+06
2.32117e+06
2.29119e+06
2.26117e+06
2.23111e+06
2.20101e+06
2.17089e+06
2.14074e+06
2.11057e+06
2.08038e+06
2.05017e+06
2.01994e+06
1.98971e+06
1.95947e+06
1.92923e+06
1.89899e+06
1.86876e+06
1.83854e+06
1.80832e+06
1.77813e+06
1.74796e+06
1.71781e+06
1.6877e+06
1.65762e+06
1.62757e+06
1.59758e+06
1.56763e+06
1.53773e+06
1.50789e+06
1.47812e+06
1.44841e+06
1.41878e+06
1.38923e+06
1.35976e+06
1.33038e+06
1.3011e+06
1.27192e+06
1.24285e+06
1.21389e+06
1.18505e+06
1.15634e+06
1.12776e+06
1.09932e+06
1.07103e+06
1.04289e+06
1.01491e+06
987105
959471
932020
904761
877701
850850
824215
797806
771631
745701
720022
694604
669451
644566
619942
595566
4.76872e+06
4.76805e+06
4.7668e+06
4.76498e+06
4.76257e+06
4.75957e+06
4.75598e+06
4.7518e+06
4.74704e+06
4.7417e+06
4.73579e+06
4.72931e+06
4.72228e+06
4.71471e+06
4.70661e+06
4.69799e+06
4.68886e+06
4.67923e+06
4.66912e+06