/*--------------------------------*- C++ -*----------------------------------*\
  =========                 |
  \\      /  F ield         | OpenFOAM: The Open Source CFD Toolbox
   \\    /   O peration     | Website:  https://openfoam.org
    \\  /    A nd           | Version:  7
     \\/     M anipulation  |
\*---------------------------------------------------------------------------*/
FoamFile
{
    version     2.0;
    format      ascii;
    class       volScalarField;
    location    "0.05";
    object      s_0;
}
// * * * * * * * * * * * * * * * * * * * * * * * * * * * * * * * * * * * * * //

dimensions      [0 0 0 0 0 0 0];

internalField   nonuniform List<scalar> 
12225
(
1
1
1
1
1
1
1
1
1
1
1
1
1
1
1
1
1
1
1
1
1
1
1
1
1
1
1
1
1
1
1
1
1
1
1
1
1
1
1
1
1
1
1
1
1
1
1
1
1
1
1
1
1
1
1
1
1
1
1
1
1
1
1
1
1
1
1
1
1
1
1
1
1
1
1
1
1
1
1
1
1
1
1
1
1
1
1
1
1
1
1
1
1
1
1
1
1
1
1
1
1
1
1
1
1
1
1
1
1
1
1
1
1
1
1
1
1
1
1
1
1
1
1
1
1
1
1
1
1
1
1
1
1
1
1
1
1
1
1
1
1
1
1
1
1
1
1
1
1
1
1
1
1
1
1
1
1
1
1
1
1
1
1
1
1
1
1
1
1
1
1
1
1
1
1
1
1
1
1
1
1
1
1
1
1
1
1
1
1
1
1
1
1
1
1
1
1
1
1
1
1
1
1
1
1
1
1
1
1
1
1
1
1
1
1
1
1
1
1
1
1
1
1
1
1
1
1
1
1
1
1
1
1
1
1
1
1
1
1
1
1
1
1
1
1
1
1
1
1
1
1
1
1
1
1
1
1
1
1
1
1
1
1
1
1
1
1
1
1
1
1
1
1
1
1
1
1
1
1
1
1
1
1
1
1
1
1
1
1
1
1
1
1
1
1
1
1
1
1
1
1
1
1
1
1
1
1
1
1
1
1
1
1
1
1
1
1
1
1
1
1
1
1
1
1
1
1
1
1
1
1
1
1
1
1
1
1
1
1
1
1
1
1
1
1
1
1
1
1
1
1
1
1
1
1
1
1
1
1
1
1
1
1
1
1
1
1
1
1
1
1
1
1
1
1
1
1
1
1
1
1
1
1
1
1
1
1
1
1
1
1
1
1
1
1
1
1
1
1
1
1
1
1
1
1
1
1
1
1
1
1
1
1
1
1
1
1
1
1
1
1
1
1
1
1
1
1
1
1
1
1
1
1
1
1
1
1
1
1
1
1
1
1
1
1
1
1
1
1
1
1
1
1
1
1
1
1
1
1
1
1
1
1
1
1
1
1
1
1
1
1
1
1
1
1
1
1
1
1
1
1
1
1
1
1
1
1
1
1
1
1
1
1
1
1
1
1
1
1
1
1
1
1
1
1
1
1
1
1
1
1
1
1
1
1
1
1
1
1
1
1
1
1
1
1
1
1
1
1
1
1
1
1
1
1
1
1
1
1
1
9.26009e-08
2.79571e-06
2.08198e-05
7.1344e-05
0.000180171
0.00041941
0.000752247
0.00169281
0.00257309
0.00446731
0.00665588
0.0089348
0.0115333
0.0139703
0.015889
0.0173203
0.0171943
0.0165444
0.0151703
0.0137524
0.0123826
0.0110221
0.00965864
0.00829045
0.00691938
0.00548618
0.00392634
0.00231107
0.000979082
0.000267594
0.000122976
0.000202808
0.000670146
0.00238873
0.0120082
0.018376
0.0191356
0.0343111
0.258233
0.622665
0.633126
0.612599
0.589104
0.58083
0.579157
0.579196
0.581198
0.586787
0.595938
0.606808
0.617374
0.627154
0.637028
0.647503
0.657719
0.666498
0.673784
0.680251
0.683272
0.684581
0.684865
0.683362
0.6775
0.668987
0.660612
0.652456
0.646196
0.643749
0.64286
0.642715
0.643973
0.648745
0.656642
0.664858
0.670994
0.673909
0.675015
0.674943
0.670511
0.662021
0.653269
0.640741
0.62709
0.611684
0.594666
0.576481
0.556519
0.535651
0.512964
0.488694
0.46277
0.435042
0.405401
0.373841
0.340513
0.305567
0.269449
0.23272
0.196436
0.161917
0.130822
0.104912
0.0836507
0.0648542
0.0486929
0.035366
0.0248747
0.0169812
0.0112486
0.00719428
0.00442735
0.00261862
0.00148697
0.000809119
0.000420945
0.000208826
9.84087e-05
4.37967e-05
1.82029e-05
6.83467e-06
2.49828e-06
8.91009e-07
3.0921e-07
1.0414e-07
3.4028e-08
1.08689e-08
2.8673e-09
9.6612e-10
4.08118e-10
1.64617e-10
6.50288e-11
2.52985e-11
9.66276e-12
3.61303e-12
1.3218e-12
4.73525e-13
1.66282e-13
5.72773e-14
1.93609e-14
6.42378e-15
2.09264e-15
6.69511e-16
2.10426e-16
6.49835e-17
1.972e-17
5.88052e-18
1.72336e-18
4.96453e-19
1.40604e-19
3.91563e-20
1.07236e-20
2.88838e-21
7.65201e-22
1.99399e-22
5.11101e-23
1.28864e-23
3.19585e-24
7.79583e-25
1.87041e-25
4.41355e-26
1.0242e-26
2.33715e-27
5.24394e-28
1.15676e-28
2.50827e-29
5.34521e-30
1.1192e-30
2.30168e-31
4.64723e-32
9.20595e-33
1.78797e-33
3.40042e-34
6.32538e-35
1.14803e-35
2.02947e-36
3.47568e-37
5.75398e-38
9.08371e-39
1.36785e-39
1.71287e-40
5.56422e-07
2.32474e-05
0.000144543
0.000520696
0.00142271
0.00338575
0.00690261
0.0162717
0.0257088
0.0454294
0.0650406
0.0852762
0.106352
0.122042
0.137968
0.150614
0.150617
0.147099
0.137794
0.121496
0.102158
0.0813507
0.0617779
0.04401
0.0298297
0.0191488
0.0116951
0.00681959
0.00378679
0.00187563
0.0011373
0.00154355
0.0047626
0.0055588
0.0176578
0.0722042
0.246728
0.501187
0.601791
0.675936
0.69156
0.712168
0.735054
0.771459
0.796212
0.827651
0.850653
0.877135
0.895367
0.916311
0.928319
0.942191
0.949273
0.9572
0.960809
0.962623
0.963196
0.962641
0.962735
0.963878
0.966146
0.968379
0.970506
0.972573
0.973537
0.974059
0.974395
0.974651
0.974855
0.975012
0.975135
0.975209
0.97526
0.975321
0.975449
0.975668
0.97632
0.977634
0.979045
0.980709
0.981907
0.982388
0.9826
0.982738
0.982775
0.982135
0.979765
0.977531
0.974524
0.970578
0.965676
0.959584
0.951954
0.942391
0.930426
0.915396
0.896445
0.872464
0.842178
0.804044
0.756283
0.697216
0.62791
0.551746
0.470434
0.386761
0.30531
0.232445
0.174112
0.128399
0.0916678
0.0633088
0.0424533
0.0276829
0.0175425
0.0108076
0.00648036
0.00378686
0.00215978
0.0012042
0.000657069
0.000351366
0.000184349
9.49732e-05
4.80623e-05
2.38895e-05
1.16588e-05
5.58358e-06
2.62262e-06
1.20746e-06
5.44625e-07
2.4056e-07
1.04019e-07
4.40218e-08
1.82317e-08
7.38826e-09
2.92933e-09
1.13613e-09
4.30901e-10
1.59738e-10
5.7851e-11
2.04589e-11
7.06013e-12
2.37427e-12
7.76443e-13
2.4641e-13
7.61006e-14
2.30586e-14
6.85809e-15
2.00213e-15
5.73659e-16
1.61303e-16
4.45062e-17
1.20491e-17
3.20044e-18
8.33984e-19
2.13194e-19
5.34613e-20
1.31504e-20
3.17296e-21
7.50947e-22
1.74329e-22
3.96957e-23
8.86598e-24
1.94226e-24
4.17329e-25
8.79434e-26
1.81742e-26
3.68253e-27
7.31514e-28
1.42386e-28
2.71525e-29
5.06702e-30
9.25252e-31
1.64878e-31
2.86872e-32
4.84117e-33
7.93543e-34
1.32248e-34
-3.60409e-35
8.6618e-06
0.000103547
0.000606239
0.0022897
0.00665715
0.0164704
0.0367283
0.0842217
0.136161
0.217334
0.290008
0.357554
0.404692
0.441442
0.460571
0.460146
0.455267
0.44381
0.42383
0.396201
0.357435
0.30757
0.251613
0.190456
0.133043
0.0848327
0.0480669
0.0262272
0.0172063
0.00826866
0.00412508
0.00700708
0.045912
0.127849
0.314496
0.492198
0.677307
0.756819
0.79831
0.827291
0.864216
0.886657
0.906682
0.920911
0.929708
0.936357
0.939154
0.940156
0.939803
0.935911
0.930985
0.92613
0.915277
0.903996
0.892505
0.881925
0.875961
0.873609
0.873267
0.878343
0.891709
0.904288
0.91526
0.930205
0.94298
0.948579
0.951436
0.952809
0.953271
0.953267
0.95206
0.94852
0.943908
0.941347
0.940331
0.940285
0.944274
0.952194
0.957491
0.963985
0.97374
0.979164
0.982148
0.986038
0.990651
0.993151
0.994399
0.995784
0.996953
0.997515
0.997977
0.998248
0.998389
0.99845
0.998302
0.997921
0.997256
0.996195
0.994562
0.992066
0.98827
0.982508
0.973778
0.960568
0.940617
0.910493
0.865342
0.799154
0.707572
0.596306
0.476236
0.35934
0.259502
0.183827
0.12668
0.0846635
0.0550277
0.0348395
0.0215188
0.0129891
0.00767561
0.00444729
0.00252976
0.00141402
0.000777011
0.000419773
0.000222884
0.000116245
5.9512e-05
2.98854e-05
1.47111e-05
7.0944e-06
3.35028e-06
1.54888e-06
7.00897e-07
3.1043e-07
1.34571e-07
5.70991e-08
2.3714e-08
9.6401e-09
3.83589e-09
1.49402e-09
5.69529e-10
2.12463e-10
7.75495e-11
2.76907e-11
9.67118e-12
3.30331e-12
1.10331e-12
3.60329e-13
1.15059e-13
3.59196e-14
1.09622e-14
3.27012e-15
9.53524e-16
2.72231e-16
7.63455e-17
2.10323e-17
5.69129e-18
1.51252e-18
3.94737e-19
1.01156e-19
2.54511e-20
6.28664e-21
1.52435e-21
3.62802e-22
8.47449e-23
1.94262e-23
4.36897e-24
9.63998e-25
2.08565e-25
4.4251e-26
9.19571e-27
1.87276e-27
3.72684e-28
7.26173e-29
1.37558e-29
2.54847e-30
4.54275e-31
7.66698e-32
3.84865e-05
0.000331285
0.00196983
0.0077932
0.0236003
0.0609504
0.142969
0.28953
0.430262
0.532701
0.577267
0.600444
0.599707
0.592872
0.577836
0.561031
0.54153
0.524021
0.504918
0.48112
0.44958
0.407519
0.35536
0.294278
0.227405
0.158475
0.0959449
0.0501072
0.0206042
0.00909772
0.029849
0.187746
0.353474
0.525438
0.672242
0.777626
0.840196
0.869747
0.89304
0.905985
0.918379
0.923774
0.926664
0.927441
0.926423
0.919763
0.906654
0.886168
0.856774
0.817321
0.77025
0.730022
0.69118
0.661073
0.638417
0.619577
0.611002
0.607045
0.60585
0.609226
0.626412
0.653991
0.685893
0.725871
0.772707
0.807352
0.823208
0.830003
0.831948
0.831987
0.828086
0.816819
0.803175
0.796596
0.794008
0.795685
0.813161
0.839156
0.85429
0.870146
0.894562
0.914576
0.928293
0.942493
0.957428
0.969361
0.975707
0.982537
0.988396
0.991785
0.994684
0.996625
0.997902
0.998691
0.999172
0.999459
0.999626
0.999719
0.99977
0.999793
0.999782
0.999704
0.999518
0.999166
0.99852
0.997343
0.995178
0.991163
0.98336
0.967642
0.936278
0.877923
0.781855
0.649471
0.501814
0.363714
0.254796
0.174
0.115477
0.0746631
0.0471293
0.0290947
0.0175915
0.0104283
0.00606455
0.00346037
0.00193676
0.00106275
0.000571333
0.000300709
0.000154851
7.79763e-05
3.83824e-05
1.84644e-05
8.68063e-06
3.98852e-06
1.79134e-06
7.86557e-07
3.3771e-07
1.41805e-07
5.82417e-08
2.34005e-08
9.19783e-09
3.53686e-09
1.33049e-09
4.89612e-10
1.76251e-10
6.20641e-11
2.1378e-11
7.20277e-12
2.37373e-12
7.65168e-13
2.41254e-13
7.44027e-14
2.24448e-14
6.62284e-15
1.91136e-15
5.39594e-16
1.49178e-16
4.04899e-17
1.079e-17
2.82305e-18
7.25111e-19
1.82833e-19
4.52512e-20
1.09929e-20
2.62084e-21
6.13201e-22
1.40764e-22
3.17032e-23
7.0019e-24
1.51667e-24
3.21839e-25
6.69423e-26
1.36138e-26
2.71149e-27
5.25912e-28
9.97835e-29
1.82977e-29
3.23816e-30
8.964e-05
0.000801039
0.00515486
0.0214519
0.0672877
0.180422
0.418841
0.570791
0.634033
0.656988
0.654359
0.645508
0.627276
0.598661
0.567838
0.534504
0.500009
0.476727
0.454872
0.436826
0.418192
0.390202
0.347878
0.291451
0.224996
0.154192
0.0899236
0.0370677
0.0176366
0.0632587
0.267361
0.533253
0.659318
0.75458
0.824352
0.862516
0.883311
0.894414
0.904505
0.909099
0.911481
0.90697
0.895008
0.872007
0.835276
0.783518
0.73439
0.682124
0.638147
0.604509
0.584421
0.564584
0.551235
0.543794
0.534292
0.529643
0.522914
0.516054
0.510262
0.503605
0.499887
0.49839
0.498056
0.503826
0.522425
0.548419
0.58278
0.616216
0.629026
0.633166
0.633005
0.622337
0.610229
0.608448
0.612632
0.632517
0.668921
0.708747
0.73891
0.757211
0.770858
0.787757
0.812141
0.838219
0.861524
0.888319
0.913171
0.93282
0.949933
0.963776
0.975464
0.983883
0.990048
0.994156
0.99671
0.998185
0.999002
0.999445
0.999684
0.999811
0.999881
0.999923
0.999946
0.999959
0.999964
0.999961
0.99994
0.999874
0.999711
0.999321
0.998384
0.996093
0.990405
0.976061
0.939282
0.849052
0.708203
0.546056
0.39325
0.273404
0.185075
0.122035
0.0785407
0.0494059
0.0304014
0.0183051
0.0107835
0.00621246
0.00349803
0.0019238
0.00103283
0.000541053
0.000276499
0.000137835
6.70323e-05
3.18096e-05
1.47335e-05
6.66289e-06
2.94281e-06
1.26978e-06
5.35378e-07
2.20621e-07
8.88684e-08
3.49944e-08
1.34718e-08
5.07037e-09
1.86575e-09
6.71228e-10
2.36097e-10
8.11926e-11
2.72992e-11
8.97416e-12
2.88443e-12
9.06498e-13
2.78573e-13
8.37162e-14
2.46048e-14
7.07325e-15
1.98893e-15
5.47115e-16
1.47502e-16
3.90209e-17
1.01291e-17
2.57998e-18
6.44782e-19
1.58108e-19
3.80369e-20
8.97759e-21
2.07843e-21
4.7199e-22
1.05093e-22
2.29447e-23
4.90776e-24
1.02872e-24
2.1092e-25
4.23366e-26
8.28759e-27
1.58563e-27
2.9441e-28
5.28858e-29
0.000150364
0.00154461
0.0112176
0.0494406
0.162165
0.450722
0.621824
0.677323
0.689398
0.681683
0.663322
0.635893
0.578259
0.503827
0.409166
0.328873
0.282762
0.242852
0.233809
0.24179
0.266107
0.289823
0.283298
0.260321
0.207468
0.133037
0.0547579
0.0339061
0.0790702
0.316428
0.601463
0.726411
0.792285
0.831053
0.855924
0.871022
0.879913
0.883491
0.883384
0.869649
0.843506
0.803262
0.756605
0.706098
0.664567
0.63272
0.605707
0.587714
0.574725
0.56823
0.562149
0.55891
0.556684
0.556035
0.555957
0.555746
0.55299
0.548579
0.541292
0.53126
0.516797
0.502002
0.487792
0.479436
0.47549
0.474009
0.474152
0.47936
0.487367
0.49645
0.504495
0.510675
0.51596
0.524999
0.541435
0.569446
0.610084
0.658044
0.701007
0.720703
0.728517
0.732296
0.736003
0.740013
0.744072
0.75542
0.773522
0.798907
0.829223
0.867406
0.90521
0.934607
0.958011
0.975126
0.986349
0.992971
0.99648
0.998234
0.999088
0.999507
0.999723
0.999842
0.99991
0.999949
0.99997
0.999982
0.999988
0.999991
0.999991
0.999988
0.999973
0.999925
0.999778
0.99934
0.998031
0.994115
0.982421
0.94774
0.847849
0.682549
0.510925
0.362578
0.249915
0.167561
0.109458
0.0697197
0.0433085
0.0262299
0.0154823
0.00890166
0.00498343
0.00271579
0.00144061
0.00074393
0.00037409
0.000183251
8.74855e-05
4.07236e-05
1.84912e-05
8.19341e-06
3.54398e-06
1.4968e-06
6.17417e-07
2.48772e-07
9.7922e-08
3.76575e-08
1.41494e-08
5.19471e-09
1.86351e-09
6.53225e-10
2.23751e-10
7.48946e-11
2.44986e-11
7.83183e-12
2.44709e-12
7.4738e-13
2.23146e-13
6.51406e-14
1.85947e-14
5.19111e-15
1.41752e-15
3.79241e-16
9.94978e-17
2.56002e-17
6.45965e-18
1.59853e-18
3.8794e-19
9.23307e-20
2.15482e-20
4.93129e-21
1.10627e-21
2.43283e-22
5.24122e-23
1.10622e-23
2.28445e-24
4.61681e-25
9.10885e-26
1.75556e-26
3.29251e-27
5.98343e-28
0.000250093
0.00251625
0.0209299
0.097394
0.339048
0.6168
0.699024
0.712642
0.702554
0.677963
0.62296
0.533391
0.384512
0.212694
0.127459
0.0859044
0.0669339
0.0622338
0.0690935
0.0875234
0.113672
0.17443
0.224946
0.220559
0.149836
0.0694976
0.0514378
0.0930609
0.327702
0.625334
0.74628
0.799856
0.825803
0.839272
0.847989
0.850655
0.837507
0.812439
0.782484
0.741696
0.703199
0.676353
0.644506
0.623074
0.606129
0.594876
0.586616
0.582677
0.580766
0.580382
0.580987
0.58294
0.584517
0.58527
0.585397
0.584954
0.584889
0.585271
0.58593
0.586246
0.585627
0.58087
0.570362
0.548806
0.524683
0.502979
0.488952
0.482207
0.479291
0.478312
0.479024
0.484723
0.492949
0.5035
0.520923
0.548295
0.588741
0.638509
0.688338
0.715326
0.724545
0.728412
0.729992
0.729301
0.725778
0.724501
0.723761
0.723164
0.722172
0.724581
0.741958
0.783668
0.843722
0.902472
0.943531
0.971068
0.986221
0.993801
0.9973
0.998815
0.999447
0.999717
0.999843
0.999909
0.999946
0.999969
0.999983
0.999991
0.999995
0.999997
0.999997
0.999997
0.999994
0.999984
0.999944
0.999804
0.999323
0.997699
0.992315
0.97482
0.919208
0.771744
0.590749
0.426762
0.297958
0.20178
0.132685
0.0847471
0.0525716
0.0316666
0.0185183
0.0105133
0.00579546
0.00310315
0.00161474
0.000817042
0.000402259
0.000192823
9.00447e-05
4.09853e-05
1.81912e-05
7.87616e-06
3.32748e-06
1.37203e-06
5.52239e-07
2.17004e-07
8.32581e-08
3.11915e-08
1.1411e-08
4.07669e-09
1.42237e-09
4.84688e-10
1.61318e-10
5.24458e-11
1.66566e-11
5.16845e-12
1.56708e-12
4.64354e-13
1.34495e-13
3.80836e-14
1.05442e-14
2.85588e-15
7.57937e-16
1.97151e-16
5.02658e-17
1.25628e-17
3.07785e-18
7.3922e-19
1.74037e-19
4.0165e-20
9.0847e-21
2.01375e-21
4.3726e-22
9.29961e-23
1.93555e-23
3.94172e-24
7.84251e-25
1.52415e-25
2.88776e-26
5.31099e-27
0.000492274
0.00363272
0.0337265
0.162141
0.501845
0.691153
0.728123
0.725372
0.699636
0.628821
0.50157
0.316743
0.15109
0.0720761
0.0398439
0.0288053
0.0217692
0.0251479
0.0372983
0.0595936
0.10451
0.149515
0.161478
0.122497
0.0798592
0.0685161
0.10875
0.326878
0.630781
0.750732
0.796935
0.814652
0.821979
0.824128
0.804525
0.756157
0.722303
0.698735
0.676646
0.65422
0.634872
0.622577
0.607688
0.600679
0.593489
0.588033
0.582299
0.579739
0.576886
0.573726
0.570186
0.566161
0.562663
0.560961
0.560447
0.562577
0.567107
0.572931
0.580505
0.588798
0.594379
0.600472
0.604562
0.606294
0.606239
0.598045
0.583868
0.562958
0.548467
0.536262
0.530888
0.529003
0.528652
0.531867
0.543215
0.559759
0.59118
0.637105
0.685904
0.723389
0.741312
0.755027
0.768931
0.776401
0.779834
0.776643
0.769058
0.754677
0.732589
0.707588
0.690719
0.68163
0.687949
0.727093
0.806632
0.892901
0.947102
0.975881
0.989775
0.995938
0.998441
0.999393
0.999744
0.999878
0.999935
0.999963
0.999978
0.999987
0.999993
0.999996
0.999998
0.999999
0.999999
0.999999
0.999998
0.999993
0.999974
0.999899
0.999619
0.998608
0.995068
0.983023
0.943171
0.819847
0.632382
0.459933
0.322118
0.217962
0.142609
0.090254
0.055264
0.0327501
0.0187925
0.0104482
0.00563267
0.00294697
0.00149761
0.000739839
0.000355565
0.000166353
7.58072e-05
3.36638e-05
1.4573e-05
6.15168e-06
2.5328e-06
1.0173e-06
3.98656e-07
1.52439e-07
5.68835e-08
2.07157e-08
7.36326e-09
2.55464e-09
8.65205e-10
2.86075e-10
9.2356e-11
2.91162e-11
8.96512e-12
2.69654e-12
7.92449e-13
2.27581e-13
6.38835e-14
1.75323e-14
4.70938e-15
1.23914e-15
3.19422e-16
8.06753e-17
1.99654e-17
4.84182e-18
1.15063e-18
2.67956e-19
6.11432e-20
1.36697e-20
2.99344e-21
6.41955e-22
1.34745e-22
2.76727e-23
5.55548e-24
1.0897e-24
2.0865e-25
3.88491e-26
0.00105637
0.00469505
0.045446
0.218925
0.578951
0.722966
0.739856
0.729102
0.677922
0.572309
0.410041
0.202777
0.0799495
0.0390674
0.0249629
0.0223644
0.023443
0.0298166
0.0438267
0.0664295
0.0882601
0.0963013
0.0929521
0.0839272
0.0853448
0.131544
0.336427
0.629489
0.748198
0.791343
0.805117
0.808924
0.799951
0.763951
0.696097
0.663806
0.647487
0.636211
0.625885
0.616508
0.608943
0.603871
0.596195
0.591454
0.583524
0.575511
0.565208
0.552792
0.533542
0.51705
0.498682
0.486444
0.479115
0.475714
0.475051
0.482362
0.490701
0.506726
0.523111
0.540977
0.565544
0.583602
0.601945
0.61202
0.619087
0.623707
0.625405
0.624015
0.616926
0.605932
0.595508
0.590709
0.589616
0.593137
0.605624
0.62201
0.645558
0.67718
0.712988
0.744904
0.76727
0.785786
0.800497
0.810316
0.817437
0.823138
0.826888
0.828711
0.827567
0.813362
0.768963
0.706833
0.668675
0.662748
0.679461
0.735338
0.838375
0.921167
0.964891
0.985556
0.994519
0.998032
0.999312
0.999752
0.999902
0.999955
0.999977
0.999987
0.999992
0.999996
0.999998
0.999999
0.999999
1
1
1
0.999999
0.999995
0.999979
0.999917
0.999675
0.998781
0.995586
0.984537
0.94732
0.827618
0.633641
0.457586
0.317395
0.211874
0.136258
0.0844979
0.0505748
0.0292468
0.0163593
0.00886121
0.0046532
0.00237135
0.00117391
0.000564965
0.000264518
0.000120554
5.35057e-05
2.31352e-05
9.74831e-06
4.00378e-06
1.60316e-06
6.25916e-07
2.38311e-07
8.84926e-08
3.20517e-08
1.13245e-08
3.9036e-09
1.31292e-09
4.30922e-10
1.38045e-10
4.31696e-11
1.31814e-11
3.93065e-12
1.14495e-12
3.25857e-13
9.06346e-14
2.46533e-14
6.56479e-15
1.71168e-15
4.37066e-16
1.09307e-16
2.67778e-17
6.42617e-18
1.51077e-18
3.47936e-19
7.84935e-20
1.7343e-20
3.75223e-21
7.94646e-22
1.64672e-22
3.33725e-23
6.61076e-24
1.27954e-24
2.41228e-25
0.00219996
0.00516791
0.0507926
0.247475
0.613123
0.735877
0.745669
0.729043
0.669491
0.553855
0.378497
0.166456
0.0670438
0.0370165
0.0290113
0.0274946
0.0293821
0.0386698
0.0513985
0.0659273
0.0748635
0.0814825
0.0894089
0.102234
0.167479
0.374514
0.633808
0.744478
0.785669
0.798286
0.80069
0.787018
0.73591
0.666552
0.636128
0.622139
0.615228
0.611079
0.607618
0.603851
0.598798
0.593399
0.586351
0.576089
0.560439
0.537903
0.512765
0.484754
0.46609
0.444213
0.427918
0.415352
0.404525
0.399598
0.398166
0.404061
0.413176
0.425525
0.445328
0.464995
0.489738
0.519695
0.552363
0.587166
0.609866
0.624363
0.630782
0.633428
0.634058
0.630638
0.622333
0.613622
0.609339
0.608376
0.615173
0.630609
0.656045
0.685482
0.716678
0.746015
0.769805
0.788055
0.800637
0.807675
0.808719
0.808031
0.809655
0.818147
0.831746
0.847624
0.855354
0.846375
0.781588
0.698847
0.674888
0.68856
0.74292
0.829631
0.908921
0.958467
0.983333
0.993794
0.997832
0.999283
0.999766
0.999921
0.99997
0.999987
0.999993
0.999996
0.999998
0.999999
0.999999
1
1
1
1
1
0.999999
0.999994
0.999976
0.999901
0.999614
0.998548
0.994726
0.981411
0.936023
0.793405
0.591309
0.418401
0.283727
0.184676
0.115571
0.0696496
0.0404864
0.0227346
0.0123505
0.00649935
0.00331704
0.00164346
0.00079114
0.000370283
0.000168594
7.47095e-05
3.22323e-05
1.3543e-05
5.54313e-06
2.21052e-06
8.59023e-07
3.25349e-07
1.20112e-07
4.32285e-08
1.51692e-08
5.19075e-09
1.73238e-09
5.64002e-10
1.79157e-10
5.55394e-11
1.68069e-11
4.96595e-12
1.43305e-12
4.03993e-13
1.11311e-13
3.00057e-14
7.91585e-15
2.04413e-15
5.16787e-16
1.2793e-16
3.10127e-17
7.36287e-18
1.71202e-18
3.89866e-19
8.69426e-20
1.89844e-20
4.05798e-21
8.48872e-22
1.73722e-22
3.47662e-23
6.80344e-24
1.29871e-24
0.00419332
0.00469209
0.0498212
0.254319
0.620229
0.742559
0.757697
0.741368
0.691456
0.596567
0.441676
0.241567
0.107472
0.0601062
0.0440102
0.0400143
0.0401875
0.0482588
0.0597862
0.0700488
0.0820472
0.0981517
0.132005
0.218554
0.444145
0.653121
0.749252
0.786903
0.79794
0.799183
0.785028
0.734733
0.657022
0.622301
0.608228
0.602239
0.599419
0.597806
0.596109
0.593454
0.589477
0.582336
0.5674
0.544363
0.514637
0.482837
0.448659
0.42015
0.391288
0.358227
0.336639
0.314724
0.303922
0.299076
0.29851
0.313206
0.3282
0.350377
0.37821
0.400193
0.424168
0.44886
0.475251
0.504251
0.553015
0.596584
0.621206
0.632268
0.635526
0.635738
0.631324
0.625841
0.62054
0.617943
0.617579
0.626049
0.646097
0.674388
0.703911
0.730545
0.752541
0.767168
0.772715
0.767469
0.744457
0.719883
0.701913
0.694346
0.714694
0.768491
0.83365
0.867859
0.875884
0.855583
0.780518
0.73639
0.742449
0.800676
0.873533
0.929253
0.964967
0.984867
0.99419
0.997983
0.999343
0.999794
0.999937
0.99998
0.999993
0.999997
0.999999
0.999999
0.999999
1
1
1
1
1
1
1
0.999998
0.999991
0.999961
0.999843
0.999392
0.997722
0.991714
0.970574
0.897428
0.706364
0.507694
0.348177
0.228458
0.143791
0.0870085
0.0507211
0.0285379
0.015523
0.00817461
0.00417271
0.00206663
0.000993925
0.000464496
0.000211048
9.32703e-05
4.01072e-05
1.6786e-05
6.83951e-06
2.71358e-06
1.04853e-06
3.94646e-07
1.4471e-07
5.17034e-08
1.80032e-08
6.11045e-09
2.022e-09
6.52488e-10
2.0538e-10
6.30747e-11
1.89054e-11
5.53193e-12
1.58071e-12
4.41248e-13
1.2043e-13
3.21517e-14
8.39822e-15
2.14675e-15
5.37119e-16
1.3156e-16
3.15495e-17
7.40826e-18
1.70336e-18
3.83497e-19
8.45359e-20
1.82431e-20
3.85334e-21
7.96515e-22
1.61077e-22
3.18726e-23
6.15973e-24
0.0074047
0.00354365
0.034462
0.186964
0.569615
0.744861
0.76868
0.761961
0.723466
0.66266
0.562972
0.409733
0.22551
0.133301
0.0945209
0.0797268
0.0756641
0.0780372
0.0933046
0.110222
0.144968
0.207612
0.339465
0.523284
0.683698
0.760009
0.792708
0.803621
0.805513
0.793222
0.753499
0.680133
0.622595
0.603512
0.596645
0.594019
0.592872
0.592284
0.590894
0.586438
0.576049
0.555104
0.523042
0.486339
0.447099
0.406065
0.369318
0.333737
0.29217
0.259098
0.232624
0.211491
0.201407
0.19759
0.200239
0.217251
0.242899
0.277374
0.317264
0.35774
0.39271
0.420811
0.446678
0.468785
0.489005
0.519385
0.569164
0.610039
0.627272
0.63167
0.626938
0.619997
0.615455
0.61533
0.615993
0.618418
0.624645
0.639531
0.657331
0.672572
0.686881
0.69605
0.697504
0.698166
0.692863
0.685065
0.66586
0.637264
0.617367
0.620237
0.671266
0.785793
0.868681
0.897248
0.904833
0.89007
0.856408
0.845138
0.87105
0.922914
0.958338
0.979314
0.990555
0.996047
0.998509
0.99949
0.999839
0.999952
0.999986
0.999996
0.999999
0.999999
1
1
1
1
1
1
1
1
1
0.999999
0.999996
0.999981
0.999919
0.999679
0.998762
0.995358
0.983001
0.938966
0.791728
0.575509
0.397195
0.261703
0.165134
0.100068
0.058375
0.0328494
0.0178627
0.00939974
0.00479229
0.00236946
0.00113704
0.000529903
0.000239961
0.000105632
4.5218e-05
1.88286e-05
7.62826e-06
3.00764e-06
1.15427e-06
4.31275e-07
1.56909e-07
5.56004e-08
1.91928e-08
6.45557e-09
2.1163e-09
6.76379e-10
2.10815e-10
6.40981e-11
1.90179e-11
5.50793e-12
1.55772e-12
4.30497e-13
1.16318e-13
3.07361e-14
7.94479e-15
2.00933e-15
4.97333e-16
1.20487e-16
2.85753e-17
6.63489e-18
1.50833e-18
3.35711e-19
7.31541e-20
1.56048e-20
3.25851e-21
6.65949e-22
1.33241e-22
2.6066e-23
0.0122178
0.00261742
0.0156416
0.116209
0.45294
0.72346
0.774243
0.778563
0.761516
0.720698
0.673052
0.603037
0.495928
0.370738
0.278545
0.234311
0.214501
0.210673
0.243999
0.300747
0.390982
0.510865
0.620368
0.723726
0.777905
0.803234
0.81242
0.814177
0.805848
0.777343
0.71966
0.643436
0.60667
0.594684
0.590655
0.589251
0.58862
0.587507
0.583726
0.574827
0.557576
0.528636
0.489686
0.447946
0.404058
0.359854
0.314522
0.271841
0.229169
0.196868
0.169603
0.152969
0.144803
0.141812
0.14378
0.154715
0.174412
0.2067
0.257809
0.319242
0.372667
0.408482
0.436879
0.462321
0.480399
0.496231
0.517753
0.553186
0.596957
0.619927
0.623963
0.612238
0.594142
0.583744
0.582499
0.583956
0.583974
0.583993
0.586032
0.590284
0.598629
0.616851
0.652074
0.678112
0.68757
0.687923
0.680726
0.65385
0.617178
0.596345
0.596684
0.626074
0.744793
0.869763
0.919644
0.943327
0.954203
0.95291
0.941791
0.940976
0.95862
0.978549
0.989701
0.995376
0.998036
0.999214
0.999706
0.999898
0.999968
0.99999
0.999997
0.999999
1
1
1
1
1
1
1
1
1
1
0.999999
0.999997
0.999988
0.999949
0.99979
0.999168
0.996787
0.987884
0.955284
0.838207
0.61644
0.42652
0.281163
0.177339
0.10736
0.0625458
0.0351391
0.0190708
0.0100124
0.00509078
0.00250905
0.00119959
0.000556704
0.000250899
0.000109861
4.67525e-05
1.93426e-05
7.78195e-06
3.04526e-06
1.15937e-06
4.29512e-07
1.54877e-07
5.43704e-08
1.85874e-08
6.18986e-09
2.00855e-09
6.35282e-10
1.9592e-10
5.89352e-11
1.72983e-11
4.95604e-12
1.38684e-12
3.79237e-13
1.01374e-13
2.64974e-14
6.77431e-15
1.69441e-15
4.14721e-16
9.93478e-17
2.32962e-17
5.34793e-18
1.20194e-18
2.64486e-19
5.69815e-20
1.20203e-20
2.48267e-21
5.02227e-22
9.94329e-23
0.0188111
0.00258212
0.00636285
0.0490673
0.256644
0.649059
0.770392
0.786754
0.784767
0.763653
0.737784
0.708475
0.666176
0.612469
0.561841
0.530288
0.515889
0.512849
0.549446
0.592476
0.655217
0.716453
0.764294
0.803267
0.819895
0.826695
0.828171
0.824108
0.808389
0.776794
0.718524
0.641352
0.605154
0.59312
0.588496
0.58646
0.585264
0.582875
0.576086
0.560468
0.531454
0.490014
0.444461
0.398331
0.348756
0.303745
0.263786
0.220263
0.181403
0.156009
0.134794
0.125108
0.120509
0.118559
0.120265
0.128107
0.143473
0.166642
0.205286
0.270299
0.347064
0.404258
0.434472
0.460994
0.491491
0.50417
0.515333
0.535628
0.568946
0.608622
0.625553
0.622147
0.599266
0.577001
0.568048
0.567491
0.569297
0.572329
0.575543
0.581038
0.590477
0.611456
0.657095
0.702468
0.736324
0.75153
0.753725
0.748133
0.709092
0.634206
0.599487
0.600799
0.635216
0.75192
0.878306
0.940246
0.967528
0.980732
0.98511
0.985198
0.983771
0.98525
0.991316
0.995643
0.998009
0.999155
0.999662
0.999871
0.999953
0.999984
0.999995
0.999998
1
1
1
1
1
1
1
1
1
1
1
1
0.999998
0.999991
0.999961
0.999835
0.999325
0.99732
0.989621
0.96078
0.85501
0.631048
0.435913
0.286565
0.180193
0.10874
0.0631406
0.0353507
0.0191148
0.00999525
0.00505972
0.00248166
0.00118018
0.000544507
0.000243848
0.000106041
4.47941e-05
1.83862e-05
7.33507e-06
2.84492e-06
1.073e-06
3.93643e-07
1.40508e-07
4.8812e-08
1.65087e-08
5.43761e-09
1.74489e-09
5.457e-10
1.66391e-10
4.94841e-11
1.43593e-11
4.06787e-12
1.12562e-12
3.04348e-13
8.04359e-14
2.07859e-14
5.25352e-15
1.299e-15
3.14302e-16
7.44291e-17
1.72534e-17
3.91552e-18
8.70063e-19
1.89313e-19
4.03421e-20
8.4198e-21
1.72186e-21
3.4491e-22
0.0242354
0.00464856
0.00299485
0.0157368
0.0970609
0.404509
0.72565
0.790994
0.797587
0.791467
0.770894
0.761919
0.753793
0.739449
0.720567
0.709622
0.7059
0.71353
0.735202
0.754635
0.786644
0.81037
0.827035
0.838993
0.843112
0.844157
0.842568
0.834866
0.816868
0.782928
0.727521
0.649717
0.608211
0.594257
0.588737
0.586199
0.58459
0.582313
0.576074
0.560741
0.531313
0.487583
0.438532
0.39087
0.340674
0.290124
0.248389
0.21214
0.176814
0.153013
0.13376
0.122856
0.115837
0.113035
0.114678
0.120627
0.134448
0.155437
0.188783
0.251704
0.333238
0.407578
0.447324
0.469013
0.497063
0.538049
0.555762
0.561414
0.572126
0.606116
0.635547
0.645696
0.639159
0.607047
0.585008
0.583043
0.592795
0.620743
0.641209
0.663757
0.68535
0.712698
0.764447
0.823342
0.869667
0.89829
0.91014
0.909777
0.891885
0.796471
0.671973
0.630281
0.635172
0.699702
0.826492
0.914021
0.960975
0.982524
0.991763
0.995394
0.996617
0.997127
0.997679
0.99826
0.998873
0.999379
0.999703
0.999874
0.999951
0.999982
0.999994
0.999998
0.999999
1
1
1
1
1
1
1
1
1
1
1
1
0.999998
0.999992
0.999964
0.999846
0.999356
0.997374
0.989602
0.96
0.85011
0.623314
0.428135
0.2799
0.175057
0.105084
0.0606972
0.0338006
0.0181747
0.00944766
0.00475254
0.0023154
0.00109325
0.000500562
0.000222356
9.58668e-05
4.013e-05
1.6315e-05
6.44392e-06
2.47332e-06
9.22797e-07
3.34779e-07
1.18135e-07
4.05623e-08
1.35564e-08
4.41181e-09
1.39867e-09
4.3213e-10
1.30166e-10
3.8243e-11
1.09646e-11
3.06932e-12
8.39214e-13
2.24209e-13
5.85514e-14
1.49509e-14
3.73402e-15
9.12391e-16
2.18165e-16
5.10611e-17
1.16996e-17
2.62491e-18
5.76743e-19
1.24133e-19
2.61749e-20
5.40991e-21
1.09602e-21
0.0263983
0.00911539
0.00384101
0.00441915
0.0237532
0.131246
0.482492
0.756427
0.804346
0.808169
0.801856
0.784801
0.780024
0.779696
0.782177
0.787597
0.790132
0.796
0.811089
0.822811
0.835867
0.845483
0.850408
0.853318
0.854027
0.853806
0.851
0.843653
0.828976
0.801472
0.754678
0.682209
0.623901
0.600888
0.59146
0.58722
0.585028
0.582895
0.577788
0.565317
0.539172
0.496787
0.447601
0.399953
0.351051
0.299849
0.256095
0.221082
0.186652
0.162092
0.142729
0.131106
0.122688
0.121973
0.123937
0.129686
0.142587
0.16147
0.18809
0.249212
0.337539
0.418299
0.464983
0.481741
0.49813
0.546187
0.609125
0.640482
0.643779
0.643697
0.663701
0.686986
0.692408
0.68391
0.65758
0.651848
0.669012
0.708002
0.73933
0.759944
0.772779
0.790573
0.824162
0.86685
0.907122
0.939288
0.962047
0.973344
0.973069
0.951197
0.841476
0.738543
0.71652
0.730146
0.816451
0.907526
0.95683
0.981335
0.992577
0.997088
0.998755
0.999362
0.999594
0.999707
0.999785
0.999849
0.999901
0.999941
0.999969
0.999986
0.999994
0.999998
0.999999
1
1
1
1
1
1
1
1
1
1
1
1
1
0.999998
0.999992
0.999964
0.99984
0.999312
0.997131
0.988431
0.954896
0.830064
0.600847
0.409172
0.265466
0.164824
0.0982394
0.0563414
0.0311478
0.0166225
0.00857297
0.00427699
0.00206566
0.000966458
0.000438281
0.000192741
8.2229e-05
3.40456e-05
1.36844e-05
5.34151e-06
2.02541e-06
7.46315e-07
2.6733e-07
9.31231e-08
3.15592e-08
1.04097e-08
3.34337e-09
1.04606e-09
3.18972e-10
9.48356e-11
2.75066e-11
7.78662e-12
2.15227e-12
5.8111e-13
1.53322e-13
3.95451e-14
9.97403e-15
2.46079e-15
5.94055e-16
1.40361e-16
3.24665e-17
7.35373e-18
1.63137e-18
3.54574e-19
7.55208e-20
1.5771e-20
3.23034e-21
0.0269218
0.0144528
0.0108628
0.00512253
0.00310959
0.0208457
0.124726
0.46252
0.754916
0.808747
0.816121
0.815002
0.804888
0.795487
0.794509
0.799611
0.809936
0.817406
0.825023
0.834274
0.843541
0.850341
0.853369
0.854862
0.855221
0.854824
0.852135
0.84559
0.832983
0.810078
0.770088
0.713685
0.661801
0.625196
0.604109
0.593175
0.587839
0.584885
0.581947
0.575615
0.560784
0.528707
0.475667
0.425864
0.378818
0.328993
0.281701
0.245875
0.21308
0.186834
0.166964
0.154459
0.144945