/*--------------------------------*- C++ -*----------------------------------*\
  =========                 |
  \\      /  F ield         | OpenFOAM: The Open Source CFD Toolbox
   \\    /   O peration     | Website:  https://openfoam.org
    \\  /    A nd           | Version:  7
     \\/     M anipulation  |
\*---------------------------------------------------------------------------*/
FoamFile
{
    version     2.0;
    format      ascii;
    class       volSymmTensorField;
    location    "0.05";
    object      UPrime2Mean;
}
// * * * * * * * * * * * * * * * * * * * * * * * * * * * * * * * * * * * * * //

dimensions      [0 2 -2 0 0 0 0];

internalField   nonuniform List<symmTensor> 
12225
(
(0.0047215 -0.000221346 0 0.000514244 0 0)
(0.0394335 -0.00172804 0 0.000271443 0 0)
(0.0576799 -0.00256606 0 0.000265107 0 0)
(0.0772604 -0.00315922 0 0.000256018 0 0)
(0.110767 -0.00393384 0 0.000250184 0 0)
(0.160008 -0.00491247 0 0.000248679 0 0)
(0.224947 -0.00606779 0 0.000261337 0 0)
(0.305641 -0.00691927 0 0.000237805 0 0)
(0.40161 -0.00826216 0 0.000253638 0 0)
(0.511697 -0.00779302 0 0.000187154 0 0)
(0.63729 -0.01039 0 0.000225469 0 0)
(0.769627 -0.00644479 0 0.000124145 0 0)
(0.929186 -0.0158505 0 0.000345155 0 0)
(1.08286 -0.00107419 0 0.000256811 0 0)
(1.31521 -0.0381303 0 0.00176338 0 0)
(1.54243 0.0185958 0 0.00217329 0 0)
(1.99754 -0.147366 0 0.0205218 0 0)
(2.72325 0.0565269 0 0.0101393 0 0)
(0.00443931 -0.000110898 0 0.000608902 0 0)
(0.0265471 -0.000912288 0 0.000238639 0 0)
(0.0292346 -0.0014863 0 0.000331183 0 0)
(0.030165 -0.00183551 0 0.000466718 0 0)
(0.0357637 -0.00251461 0 0.000630282 0 0)
(0.0456426 -0.00375053 0 0.000838951 0 0)
(0.0604781 -0.00547379 0 0.00104973 0 0)
(0.0824939 -0.00789013 0 0.00133998 0 0)
(0.112003 -0.0104075 0 0.00149954 0 0)
(0.154301 -0.0142082 0 0.00184826 0 0)
(0.205679 -0.016808 0 0.00181817 0 0)
(0.278954 -0.0231411 0 0.00234578 0 0)
(0.359137 -0.0247188 0 0.00208674 0 0)
(0.482605 -0.0388125 0 0.00350194 0 0)
(0.605008 -0.0388766 0 0.00312216 0 0)
(0.837589 -0.0812709 0 0.00921828 0 0)
(1.04533 -0.0980231 0 0.0102171 0 0)
(1.53012 -0.28629 0 0.0691326 0 0)
(0.00423301 -3.59728e-06 0 0.000864852 0 0)
(0.0262653 -0.0013991 0 0.000480223 0 0)
(0.0278379 -0.00209496 0 0.000619165 0 0)
(0.0269715 -0.00227628 0 0.000822004 0 0)
(0.0292169 -0.00263458 0 0.00106443 0 0)
(0.0328665 -0.00335606 0 0.0013605 0 0)
(0.0376267 -0.00445054 0 0.0017863 0 0)
(0.0437574 -0.0058028 0 0.00217667 0 0)
(0.0520154 -0.00770961 0 0.0027789 0 0)
(0.0630125 -0.00965267 0 0.00313307 0 0)
(0.0787468 -0.0130778 0 0.00393182 0 0)
(0.0996599 -0.01579 0 0.00411613 0 0)
(0.130223 -0.0229887 0 0.00566509 0 0)
(0.170618 -0.0272417 0 0.00576732 0 0)
(0.231369 -0.0466643 0 0.0107872 0 0)
(0.31324 -0.058927 0 0.0121399 0 0)
(0.431585 -0.123486 0 0.0372749 0 0)
(0.582745 -0.207837 0 0.0783451 0 0)
(0.00439589 -0.000368513 0 0.000971818 0 0)
(0.0260138 -0.00166336 0 0.000601028 0 0)
(0.0274085 -0.00221748 0 0.000731869 0 0)
(0.0264533 -0.00241507 0 0.000989957 0 0)
(0.0283217 -0.00277256 0 0.00128194 0 0)
(0.0313059 -0.00348213 0 0.00165216 0 0)
(0.0350065 -0.00449142 0 0.00209738 0 0)
(0.0395671 -0.00579088 0 0.00269158 0 0)
(0.0451398 -0.00729438 0 0.0032876 0 0)
(0.0524718 -0.00933812 0 0.00409905 0 0)
(0.0620187 -0.0117443 0 0.00483368 0 0)
(0.0754325 -0.0156027 0 0.00607231 0 0)
(0.0934617 -0.0203827 0 0.00732846 0 0)
(0.119642 -0.0292114 0 0.0101128 0 0)
(0.155419 -0.0416868 0 0.0140338 0 0)
(0.205884 -0.0660697 0 0.0239314 0 0)
(0.271276 -0.108819 0 0.045662 0 0)
(0.337097 -0.176518 0 0.0944353 0 0)
(0.00440868 -0.000358038 0 0.00122045 0 0)
(0.0254111 -0.00199141 0 0.000786537 0 0)
(0.0265069 -0.00252815 0 0.000924742 0 0)
(0.0255602 -0.00271 0 0.00125744 0 0)
(0.0274364 -0.00308061 0 0.00163441 0 0)
(0.0302929 -0.00382509 0 0.00206768 0 0)
(0.0337564 -0.00491739 0 0.00264442 0 0)
(0.037951 -0.00628971 0 0.00330749 0 0)
(0.0431098 -0.00804552 0 0.00418347 0 0)
(0.0496675 -0.0101596 0 0.00510721 0 0)
(0.0582697 -0.0131975 0 0.00640029 0 0)
(0.0697476 -0.0171035 0 0.00786279 0 0)
(0.0852699 -0.0233355 0 0.0103437 0 0)
(0.106377 -0.0320619 0 0.0137523 0 0)
(0.134677 -0.0469541 0 0.0205641 0 0)
(0.170954 -0.0701666 0 0.0328593 0 0)
(0.212975 -0.107778 0 0.0579571 0 0)
(0.247274 -0.164504 0 0.113943 0 0)
(0.00439447 -0.000530356 0 0.00127883 0 0)
(0.0251496 -0.00231242 0 0.00095238 0 0)
(0.0257646 -0.00275947 0 0.0011541 0 0)
(0.0246511 -0.00289975 0 0.00158889 0 0)
(0.0263851 -0.00329271 0 0.00207542 0 0)
(0.0290228 -0.00408862 0 0.00262785 0 0)
(0.0322084 -0.0052436 0 0.00329783 0 0)
(0.0360779 -0.00673332 0 0.0041411 0 0)
(0.040833 -0.00860818 0 0.00516132 0 0)
(0.046833 -0.0110416 0 0.00643301 0 0)
(0.0546309 -0.0143206 0 0.00803166 0 0)
(0.0648313 -0.018919 0 0.0102197 0 0)
(0.0783792 -0.0255604 0 0.0133864 0 0)
(0.0959458 -0.0353723 0 0.0183613 0 0)
(0.118552 -0.0503809 0 0.0268517 0 0)
(0.144754 -0.0726889 0 0.0418268 0 0)
(0.172392 -0.105689 0 0.0696845 0 0)
(0.191126 -0.147682 0 0.118576 0 0)
(0.00419814 -0.000509921 0 0.00145395 0 0)
(0.0248232 -0.00257933 0 0.00126304 0 0)
(0.0253155 -0.00302522 0 0.00145073 0 0)
(0.0241556 -0.00318925 0 0.00192891 0 0)
(0.025807 -0.00364982 0 0.00250802 0 0)
(0.0282636 -0.0045398 0 0.00316311 0 0)
(0.0311787 -0.00581076 0 0.00396718 0 0)
(0.0346916 -0.00743153 0 0.00496763 0 0)
(0.0389975 -0.00948335 0 0.00623359 0 0)
(0.044404 -0.0121296 0 0.00782237 0 0)
(0.0513523 -0.0157124 0 0.00988425 0 0)
(0.0602653 -0.0206787 0 0.0127136 0 0)
(0.0717205 -0.0277241 0 0.0168068 0 0)
(0.0859229 -0.0378505 0 0.0231658 0 0)
(0.103087 -0.0523642 0 0.0332915 0 0)
(0.121355 -0.072827 0 0.0503958 0 0)
(0.138628 -0.0998096 0 0.0780415 0 0)
(0.147594 -0.131303 0 0.122575 0 0)
(0.00353337 -0.000440474 0 0.00153048 0 0)
(0.0241123 -0.00279881 0 0.0013615 0 0)
(0.0246717 -0.00318086 0 0.00169438 0 0)
(0.023593 -0.00327439 0 0.00227008 0 0)
(0.0252017 -0.0037607 0 0.00296166 0 0)
(0.027461 -0.00470602 0 0.00374968 0 0)
(0.030058 -0.00602445 0 0.00470086 0 0)
(0.0331558 -0.00770865 0 0.00590069 0 0)
(0.0369292 -0.00985866 0 0.00742754 0 0)
(0.0416141 -0.0126594 0 0.00938625 0 0)
(0.0475306 -0.0164217 0 0.0119553 0 0)
(0.0549366 -0.0215594 0 0.0154846 0 0)
(0.0641272 -0.0286657 0 0.0205265 0 0)
(0.0750087 -0.0384881 0 0.0280904 0 0)
(0.0873306 -0.0518905 0 0.0396213 0 0)
(0.09934 -0.0695016 0 0.0576501 0 0)
(0.109248 -0.0909967 0 0.084701 0 0)
(0.112479 -0.114119 0 0.12457 0 0)
(0.00484442 -0.000684499 0 0.001559 0 0)
(0.0246038 -0.00337537 0 0.0016285 0 0)
(0.0244527 -0.00373906 0 0.00205579 0 0)
(0.0231803 -0.00373964 0 0.00270531 0 0)
(0.0247557 -0.00421326 0 0.00351584 0 0)
(0.0268832 -0.00521341 0 0.00445675 0 0)
(0.0292053 -0.00661069 0 0.00558595 0 0)
(0.0319076 -0.00837163 0 0.00700103 0 0)
(0.035152 -0.0105909 0 0.00880653 0 0)
(0.0391149 -0.0134565 0 0.0111463 0 0)
(0.044009 -0.0172579 0 0.0142261 0 0)
(0.0499649 -0.0223672 0 0.0184444 0 0)
(0.057066 -0.0292356 0 0.0243518 0 0)
(0.0650247 -0.0383674 0 0.0329332 0 0)
(0.0733865 -0.0501851 0 0.0453934 0 0)
(0.0806464 -0.0647484 0 0.0637131 0 0)
(0.0855781 -0.0813034 0 0.0894414 0 0)
(0.0853294 -0.0977391 0 0.124673 0 0)
(0.00435688 -0.000721111 0 0.0017751 0 0)
(0.0243734 -0.00357457 0 0.00177826 0 0)
(0.0242361 -0.00387129 0 0.00225814 0 0)
(0.022844 -0.00378503 0 0.00298735 0 0)
(0.0241765 -0.00421601 0 0.00390197 0 0)
(0.0260167 -0.0051957 0 0.00497269 0 0)
(0.0280193 -0.00657038 0 0.00625919 0 0)
(0.0303309 -0.00831022 0 0.00787773 0 0)
(0.0330706 -0.0105195 0 0.00996095 0 0)
(0.0363578 -0.0133752 0 0.01268 0 0)
(0.0403131 -0.0171172 0 0.0162594 0 0)
(0.0449421 -0.0220208 0 0.0211016 0 0)
(0.0501742 -0.0283922 0 0.0277388 0 0)
(0.0556145 -0.0364916 0 0.0370516 0 0)
(0.0607852 -0.046436 0 0.0499929 0 0)
(0.0645017 -0.0579397 0 0.0680254 0 0)
(0.0660931 -0.070166 0 0.0919695 0 0)
(0.0637755 -0.0813571 0 0.123053 0 0)
(0.00419411 -0.000843854 0 0.00196225 0 0)
(0.0240544 -0.00400318 0 0.00212811 0 0)
(0.023454 -0.00435447 0 0.00265692 0 0)
(0.0217843 -0.00417666 0 0.00347516 0 0)
(0.0229657 -0.0045638 0 0.00450553 0 0)
(0.0246597 -0.00555094 0 0.00572919 0 0)
(0.0264511 -0.00693688 0 0.00721175 0 0)
(0.0284499 -0.00866131 0 0.00907646 0 0)
(0.0307488 -0.01081 0 0.0114568 0 0)
(0.0334229 -0.0135461 0 0.0145433 0 0)
(0.0365192 -0.0170718 0 0.0185724 0 0)
(0.0399637 -0.0215801 0 0.0239283 0 0)
(0.0436098 -0.0272462 0 0.0310851 0 0)
(0.0470677 -0.0341446 0 0.0407889 0 0)
(0.0499384 -0.0422 0 0.0537496 0 0)
(0.051367 -0.0509701 0 0.0710049 0 0)
(0.0510639 -0.0596902 0 0.0928944 0 0)
(0.047902 -0.0669827 0 0.120139 0 0)
(0.00406485 -0.000762157 0 0.00208522 0 0)
(0.0238108 -0.00408378 0 0.00228735 0 0)
(0.0232026 -0.00446688 0 0.00285522 0 0)
(0.0214432 -0.00420462 0 0.0037413 0 0)
(0.0223999 -0.0044947 0 0.00487488 0 0)
(0.0237718 -0.00540292 0 0.0062527 0 0)
(0.0251956 -0.00671344 0 0.00792534 0 0)
(0.026788 -0.00833824 0 0.010003 0 0)
(0.0286037 -0.0103401 0 0.0126378 0 0)
(0.0306571 -0.0128513 0 0.0160299 0 0)
(0.0329208 -0.0160238 0 0.0204149 0 0)
(0.0352677 -0.0199747 0 0.0261546 0 0)
(0.0375288 -0.0247807 0 0.033657 0 0)
(0.0393901 -0.0303998 0 0.0435352 0 0)
(0.040571 -0.0366468 0 0.056281 0 0)
(0.0405131 -0.0430468 0 0.0726241 0 0)
(0.0391578 -0.048942 0 0.0925992 0 0)
(0.0357727 -0.0532853 0 0.116683 0 0)
(0.00411288 -0.000968398 0 0.00238962 0 0)
(0.023807 -0.00430424 0 0.00259996 0 0)
(0.0229818 -0.00462644 0 0.00314092 0 0)
(0.0210636 -0.0042515 0 0.00408878 0 0)
(0.0218582 -0.00446133 0 0.00532075 0 0)
(0.0230301 -0.00531731 0 0.00683595 0 0)
(0.0241955 -0.00656665 0 0.0086841 0 0)
(0.0254457 -0.00808411 0 0.0109645 0 0)
(0.0268092 -0.00990216 0 0.013824 0 0)
(0.028278 -0.0121231 0 0.0174589 0 0)
(0.0298063 -0.0148579 0 0.0220962 0 0)
(0.0312729 -0.0181708 0 0.0280614 0 0)
(0.03252 -0.0220694 0 0.0356909 0 0)
(0.0332976 -0.0264434 0 0.0454749 0 0)
(0.0333984 -0.031059 0 0.057731 0 0)
(0.0324727 -0.0354651 0 0.0729754 0 0)
(0.0305861 -0.0391186 0 0.0910559 0 0)
(0.0272762 -0.0412325 0 0.112323 0 0)
(0.00410017 -0.00106226 0 0.00293661 0 0)
(0.0236406 -0.00437984 0 0.00328827 0 0)
(0.0226809 -0.00457801 0 0.00387952 0 0)
(0.0207032 -0.00406991 0 0.00485669 0 0)
(0.0213662 -0.00414266 0 0.00615416 0 0)
(0.0222822 -0.00485219 0 0.00778384 0 0)
(0.0230761 -0.0059197 0 0.00978447 0 0)
(0.0238483 -0.00719193 0 0.0122453 0 0)
(0.0246235 -0.00867312 0 0.0152959 0 0)
(0.0253985 -0.0104341 0 0.0191235 0 0)
(0.0261465 -0.0125539 0 0.0239399 0 0)
(0.0267732 -0.0150462 0 0.0300315 0 0)
(0.027145 -0.0178572 0 0.0376529 0 0)
(0.0270707 -0.020807 0 0.0471605 0 0)
(0.0264227 -0.0236534 0 0.0587065 0 0)
(0.0250105 -0.0259822 0 0.0726283 0 0)
(0.0230064 -0.0274223 0 0.088633 0 0)
(0.0200937 -0.0273793 0 0.107004 0 0)
(0.00429529 -0.000665534 0 0.00291328 0 0)
(0.0234484 -0.00478802 0 0.00344684 0 0)
(0.022249 -0.00510809 0 0.00423949 0 0)
(0.0200649 -0.00456631 0 0.00542515 0 0)
(0.0205242 -0.00456134 0 0.00688049 0 0)
(0.0211955 -0.0051533 0 0.00863344 0 0)
(0.0217066 -0.00606151 0 0.0107604 0 0)
(0.022151 -0.00711441 0 0.0133535 0 0)
(0.022537 -0.00828955 0 0.0165299 0 0)
(0.022852 -0.00962919 0 0.0204548 0 0)
(0.0230665 -0.0111708 0 0.0253031 0 0)
(0.023102 -0.0128708 0 0.0312952 0 0)
(0.0228626 -0.0146315 0 0.0385929 0 0)
(0.022243 -0.0162471 0 0.0474346 0 0)
(0.0212181 -0.0175201 0 0.0578407 0 0)
(0.0197262 -0.0181059 0 0.0700338 0 0)
(0.0179921 -0.0178104 0 0.0836579 0 0)
(0.0158023 -0.0161718 0 0.0989859 0 0)
(0.00450907 -0.000787087 0 0.00312403 0 0)
(0.0235247 -0.00485675 0 0.00344163 0 0)
(0.0220214 -0.00524453 0 0.00417378 0 0)
(0.0195377 -0.0046237 0 0.00538101 0 0)
(0.0196626 -0.00448349 0 0.00691845 0 0)
(0.0199937 -0.00493074 0 0.00879449 0 0)
(0.0202065 -0.00564821 0 0.0110469 0 0)
(0.0203781 -0.00641312 0 0.0137445 0 0)
(0.020458 -0.00716995 0 0.0169859 0 0)
(0.020386 -0.00794063 0 0.0209086 0 0)
(0.0201349 -0.00874471 0 0.0256453 0 0)
(0.0196807 -0.00952332 0 0.0313528 0 0)
(0.0190083 -0.0101748 0 0.0381108 0 0)
(0.0181115 -0.0105096 0 0.0460618 0 0)
(0.01703 -0.0103827 0 0.0551403 0 0)
(0.0157932 -0.00953116 0 0.0654848 0 0)
(0.014598 -0.00788562 0 0.0767344 0 0)
(0.0133018 -0.00510356 0 0.0891505 0 0)
(0.00471418 -0.000759438 0 0.00318959 0 0)
(0.0239018 -0.00494594 0 0.00364837 0 0)
(0.0220396 -0.00541614 0 0.00447643 0 0)
(0.019238 -0.00473336 0 0.00575524 0 0)
(0.0191665 -0.0044686 0 0.00731097 0 0)
(0.0193012 -0.00475149 0 0.00917577 0 0)
(0.0192554 -0.00523262 0 0.0113861 0 0)
(0.0191145 -0.00566024 0 0.0139955 0 0)
(0.0188715 -0.00596357 0 0.0170841 0 0)
(0.0185114 -0.00615828 0 0.0207526 0 0)
(0.0180341 -0.00626056 0 0.0250791 0 0)
(0.0174428 -0.00621518 0 0.0301561 0 0)
(0.0167445 -0.00593216 0 0.0360005 0 0)
(0.0159765 -0.00525393 0 0.0426883 0 0)
(0.0151942 -0.00408167 0 0.0501084 0 0)
(0.014476 -0.00223212 0 0.0583608 0 0)
(0.0139754 0.000287642 0 0.0671035 0 0)
(0.0136186 0.00372058 0 0.0766061 0 0)
(0.0043117 -0.00075263 0 0.00332892 0 0)
(0.0234123 -0.00513307 0 0.00381067 0 0)
(0.0215599 -0.00551946 0 0.00438524 0 0)
(0.0186029 -0.00483083 0 0.00548356 0 0)
(0.0181907 -0.00454513 0 0.00691894 0 0)
(0.0179 -0.00465477 0 0.0086488 0 0)
(0.0174672 -0.00481925 0 0.0106752 0 0)
(0.0170409 -0.00484336 0 0.0130273 0 0)
(0.0166261 -0.00468703 0 0.015753 0 0)
(0.016198 -0.0043632 0 0.0189137 0 0)
(0.0157483 -0.00386588 0 0.0225476 0 0)
(0.0152876 -0.00313403 0 0.0267021 0 0)
(0.0148365 -0.00208977 0 0.0313642 0 0)
(0.0144566 -0.000629329 0 0.0365728 0 0)
(0.0142115 0.00129957 0 0.0422195 0 0)
(0.014195 0.00379189 0 0.0483801 0 0)
(0.0145179 0.00681605 0 0.0547807 0 0)
(0.0151484 0.0104993 0 0.0616412 0 0)
(0.00442961 -0.000591099 0 0.00304742 0 0)
(0.0236973 -0.00473528 0 0.0035136 0 0)
(0.021351 -0.00484802 0 0.00394118 0 0)
(0.0181176 -0.00381852 0 0.00484481 0 0)
(0.0175806 -0.00314033 0 0.00603485 0 0)
(0.017112 -0.00284996 0 0.0074615 0 0)
(0.0165251 -0.00261849 0 0.00913402 0 0)
(0.016059 -0.0022295 0 0.011064 0 0)
(0.0157361 -0.00160306 0 0.013255 0 0)
(0.0155195 -0.000729434 0 0.0157142 0 0)
(0.0153959 0.000385487 0 0.0184377 0 0)
(0.0153857 0.00176302 0 0.0214407 0 0)
(0.0155266 0.00343456 0 0.0247058 0 0)
(0.0158947 0.00545406 0 0.02826 0 0)
(0.0165499 0.00783555 0 0.0320262 0 0)
(0.0175767 0.0106334 0 0.0360667 0 0)
(0.0190408 0.0137974 0 0.0401862 0 0)
(0.020929 0.0174175 0 0.0445542 0 0)
(0.00447127 -0.000922364 0 0.00362597 0 0)
(0.0229357 -0.00447135 0 0.00374361 0 0)
(0.0202951 -0.00434979 0 0.00393872 0 0)
(0.0170378 -0.00330461 0 0.00466811 0 0)
(0.0164013 -0.00255859 0 0.00556197 0 0)
(0.0158906 -0.00214406 0 0.00658594 0 0)
(0.0153193 -0.00178294 0 0.00779122 0 0)
(0.0148874 -0.00126646 0 0.00918871 0 0)
(0.014618 -0.000502878 0 0.0107676 0 0)
(0.0145091 0.000521689 0 0.0125266 0 0)
(0.0145869 0.00179298 0 0.0144526 0 0)
(0.0148967 0.00330851 0 0.0165371 0 0)
(0.0154804 0.0050707 0 0.0187522 0 0)
(0.0163966 0.00710097 0 0.0211111 0 0)
(0.0176857 0.00939257 0 0.0235593 0 0)
(0.0193996 0.0119754 0 0.0261452 0 0)
(0.0215738 0.0148007 0 0.0287474 0 0)
(0.0241957 0.017931 0 0.0314775 0 0)
(0.00450393 -0.000642821 0 0.00309988 0 0)
(0.0229842 -0.00391162 0 0.00305654 0 0)
(0.0202389 -0.00366225 0 0.00312765 0 0)
(0.0169132 -0.00257633 0 0.00361183 0 0)
(0.0162193 -0.00179046 0 0.00427151 0 0)
(0.0156537 -0.00129716 0 0.00504784 0 0)
(0.0150872 -0.000831487 0 0.00592323 0 0)
(0.014751 -0.000217044 0 0.00688915 0 0)
(0.0146615 0.000612288 0 0.00794352 0 0)
(0.0147973 0.00166262 0 0.0090892 0 0)
(0.0151856 0.00292034 0 0.0103214 0 0)
(0.0158814 0.00437878 0 0.0116423 0 0)
(0.0169339 0.00603469 0 0.0130391 0 0)
(0.0183896 0.00789873 0 0.0145248 0 0)
(0.0202757 0.00996194 0 0.0160681 0 0)
(0.0226214 0.0122406 0 0.0177019 0 0)
(0.0254488 0.0146954 0 0.0193491 0 0)
(0.0287358 0.0173687 0 0.0210845 0 0)
(0.0041536 -0.000462355 0 0.00297656 0 0)
(0.0227216 -0.00331754 0 0.0025 0 0)
(0.0198623 -0.00315554 0 0.00248429 0 0)
(0.0164444 -0.00215553 0 0.00283845 0 0)
(0.0156899 -0.00136195 0 0.00333032 0 0)
(0.0151257 -0.000833474 0 0.00391541 0 0)
(0.0146341 -0.000354071 0 0.00457561 0 0)
(0.0144202 0.000253656 0 0.005307 0 0)
(0.0144938 0.00107049 0 0.00610831 0 0)
(0.0148541 0.00210285 0 0.00697637 0 0)
(0.0155376 0.00332368 0 0.00789852 0 0)
(0.0165925 0.00470952 0 0.00886677 0 0)
(0.0180551 0.00624488 0 0.00986614 0 0)
(0.0199621 0.00793172 0 0.0109032 0 0)
(0.0223294 0.00976087 0 0.0119558 0 0)
(0.025179 0.0117482 0 0.0130535 0 0)
(0.0285218 0.013858 0 0.0141441 0 0)
(0.0323415 0.0161292 0 0.0152808 0 0)
(0.00440982 -0.000550462 0 0.00253691 0 0)
(0.0222357 -0.00297642 0 0.00216973 0 0)
(0.0194056 -0.00267225 0 0.00202967 0 0)
(0.0161219 -0.00169755 0 0.00215894 0 0)
(0.0153933 -0.000965354 0 0.00242148 0 0)
(0.0147657 -0.000482293 0 0.00274484 0 0)
(0.0142117 -4.56222e-05 0 0.00309485 0 0)
(0.0140289 0.000490603 0 0.00347332 0 0)
(0.0142539 0.00118369 0 0.00389648 0 0)
(0.0148525 0.00203228 0 0.0043722 0 0)
(0.0158241 0.00301365 0 0.00489315 0 0)
(0.0171905 0.00411031 0 0.00545175 0 0)
(0.0189745 0.00531637 0 0.0060377 0 0)
(0.021203 0.00663783 0 0.00665564 0 0)
(0.0238992 0.00806888 0 0.00729003 0 0)
(0.0270748 0.00961595 0 0.0079564 0 0)
(0.0307511 0.0112526 0 0.00862044 0 0)
(0.0348862 0.0129938 0 0.00930994 0 0)
(0.0045227 -0.00071497 0 0.00225994 0 0)
(0.0221105 -0.00274573 0 0.00190109 0 0)
(0.0187089 -0.00211578 0 0.00178453 0 0)
(0.0153896 -0.00104437 0 0.00191546 0 0)
(0.0149443 -0.00026877 0 0.00213577 0 0)
(0.0146264 0.000236326 0 0.00238967 0 0)
(0.0143507 0.000676728 0 0.00265454 0 0)
(0.0144594 0.0011998 0 0.00293447 0 0)
(0.0150419 0.00186614 0 0.00323873 0 0)
(0.0160785 0.00267324 0 0.00356932 0 0)
(0.017549 0.00359653 0 0.00391861 0 0)
(0.0194547 0.00461489 0 0.00428232 0 0)
(0.0218127 0.00571642 0 0.00465714 0 0)
(0.0246523 0.00690231 0 0.00504923 0 0)
(0.027993 0.00816272 0 0.0054486 0 0)
(0.0318404 0.00950268 0 0.00587089 0 0)
(0.0362054 0.010898 0 0.00629213 0 0)
(0.0410473 0.0123722 0 0.00672498 0 0)
(0.00493945 -0.000648803 0 0.00205801 0 0)
(0.0222022 -0.00243546 0 0.00153368 0 0)
(0.0184685 -0.00187865 0 0.00126526 0 0)
(0.0150188 -0.00104619 0 0.00126317 0 0)
(0.0145049 -0.000459772 0 0.0013354 0 0)
(0.0141414 -9.7261e-05 0 0.00140265 0 0)
(0.0138966 0.000190954 0 0.00147571 0 0)
(0.0141228 0.000527584 0 0.00158598 0 0)
(0.0148545 0.000972627 0 0.00173891 0 0)
(0.0160241 0.00152782 0 0.00191831 0 0)
(0.017613 0.00216663 0 0.00210793 0 0)
(0.0196497 0.00286846 0 0.00230346 0 0)
(0.0221765 0.00362328 0 0.00250519 0 0)
(0.0252231 0.00443054 0 0.00271732 0 0)
(0.0288013 0.0052863 0 0.00293372 0 0)
(0.0328971 0.00619392 0 0.00316182 0 0)
(0.0375123 0.00713754 0 0.00338785 0 0)
(0.0425872 0.00813782 0 0.00362024 0 0)
(0.00492964 -0.000549779 0 0.00188377 0 0)
(0.0219395 -0.00193157 0 0.00114908 0 0)
(0.0178003 -0.00159466 0 0.000891602 0 0)
(0.0144093 -0.000857884 0 0.000947897 0 0)
(0.0140696 -0.000247859 0 0.00101686 0 0)
(0.0138988 0.000136593 0 0.00105269 0 0)
(0.0139445 0.000427293 0 0.0010829 0 0)
(0.0145647 0.000744552 0 0.0011324 0 0)
(0.0157542 0.00114327 0 0.00120278 0 0)
(0.0174136 0.00162552 0 0.0012865 0 0)
(0.0195223 0.00217133 0 0.00137877 0 0)
(0.0221237 0.00276455 0 0.00147912 0 0)
(0.0252634 0.00339575 0 0.00158717 0 0)
(0.0289599 0.00406214 0 0.00170437 0 0)
(0.0332084 0.00475692 0 0.00182592 0 0)
(0.0379788 0.00548222 0 0.00195623 0 0)
(0.0432744 0.00622426 0 0.00208811 0 0)
(0.0490229 0.00700008 0 0.0022279 0 0)
(0.00347408 -0.000509522 0 0.00152169 0 0)
(0.020297 -0.000969437 0 0.000694505 0 0)
(0.0163593 -0.000591044 0 0.000420762 0 0)
(0.0134541 -0.000189869 0 0.000408075 0 0)
(0.0134904 0.000111219 0 0.000410237 0 0)
(0.0136163 0.000267976 0 0.000414718 0 0)
(0.0139446 0.000372886 0 0.000435293 0 0)
(0.0148499 0.000503708 0 0.000465227 0 0)
(0.0163432 0.000688558 0 0.000498216 0 0)
(0.0183511 0.000923449 0 0.000533377 0 0)
(0.0208776 0.00119611 0 0.000571563 0 0)
(0.0239693 0.00149633 0 0.000614549 0 0)
(0.0276563 0.00181798 0 0.000662965 0 0)
(0.0319267 0.00215894 0 0.000718097 0 0)
(0.0367502 0.00251492 0 0.00077864 0 0)
(0.0420746 0.00288783 0 0.000846919 0 0)
(0.0479011 0.00326778 0 0.000919693 0 0)
(0.0541516 0.00366719 0 0.000998963 0 0)
(0.00504584 -0.000556053 0 0.00115488 0 0)
(0.0205129 -0.00112791 0 0.000472911 0 0)
(0.0159225 -0.000833719 0 0.000389662 0 0)
(0.0133982 -0.000312877 0 0.00036928 0 0)
(0.0137801 2.59381e-05 0 0.000319342 0 0)
(0.0141765 0.000198589 0 0.000276337 0 0)
(0.0149173 0.000328361 0 0.000256665 0 0)
(0.0164107 0.000465667 0 0.000252396 0 0)
(0.0185983 0.000609392 0 0.000255802 0 0)
(0.0213423 0.00075544 0 0.000263853 0 0)
(0.0246148 0.000909355 0 0.000276706 0 0)
(0.0284565 0.00107875 0 0.000295375 0 0)
(0.0328915 0.00126843 0 0.000320514 0 0)
(0.0379116 0.00147824 0 0.00035225 0 0)
(0.0434759 0.00170244 0 0.000389694 0 0)
(0.0495454 0.00193392 0 0.00043433 0 0)
(0.0561075 0.00216279 0 0.000484736 0 0)
(0.0631065 0.00239118 0 0.00053995 0 0)
(0.00357035 -0.00012933 0 0.000919138 0 0)
(0.0190236 0.000130457 0 0.000233163 0 0)
(0.0146801 -1.63935e-05 0 0.000160307 0 0)
(0.0124923 2.93337e-05 0 0.000150885 0 0)
(0.0131721 1.73674e-05 0 0.000153195 0 0)
(0.0138933 -4.83692e-05 0 0.000159118 0 0)
(0.0149392 -0.000130144 0 0.000166487 0 0)
(0.0166365 -0.000213556 0 0.000175444 0 0)
(0.0188631 -0.000294532 0 0.00018696 0 0)
(0.0214484 -0.000368021 0 0.000200751 0 0)
(0.0243337 -0.000427033 0 0.000216048 0 0)
(0.0275521 -0.000466568 0 0.000232656 0 0)
(0.0311171 -0.000482408 0 0.000250883 0 0)
(0.0350648 -0.000472732 0 0.000271513 0 0)
(0.0393477 -0.000437484 0 0.000294534 0 0)
(0.0440126 -0.000380792 0 0.000321433 0 0)
(0.0489726 -0.000306381 0 0.000352241 0 0)
(0.0543352 -0.000216265 0 0.000385767 0 0)
(0.00447758 -0.000292961 0 0.000727518 0 0)
(0.0205527 -5.0541e-05 0 0.000229243 0 0)
(0.018068 3.45008e-05 0 0.000143187 0 0)
(0.0172367 0.000124481 0 0.000101042 0 0)
(0.0187753 0.000132746 0 7.58233e-05 0 0)
(0.0201725 0.000137933 0 6.23037e-05 0 0)
(0.0215559 0.000163016 0 5.53155e-05 0 0)
(0.0232855 0.000197405 0 5.18343e-05 0 0)
(0.025476 0.000230584 0 5.089e-05 0 0)
(0.0281448 0.000261753 0 5.21412e-05 0 0)
(0.0312916 0.000296399 0 5.51847e-05 0 0)
(0.0349239 0.000341524 0 5.95836e-05 0 0)
(0.0390849 0.000402767 0 6.48325e-05 0 0)
(0.0438401 0.000481262 0 7.04388e-05 0 0)
(0.0492862 0.000573428 0 7.63193e-05 0 0)
(0.0554289 0.000674264 0 8.29562e-05 0 0)
(0.0623651 0.000780531 0 8.97576e-05 0 0)
(0.0699564 0.000895027 0 9.59616e-05 0 0)
(0.000307678 -0.000676091 1.27728e-22 0.00155421 -2.45359e-22 1.87218e-37)
(0.00341727 -0.00299645 -3.33015e-22 0.0027682 1.82908e-22 1.84599e-37)
(0.0129936 -0.00700542 0 0.00400532 0 0)
(0.0309079 -0.0118551 0 0.00476923 0 0)
(0.0582577 -0.0169283 0 0.00508468 0 0)
(0.0956145 -0.0220391 9.84461e-22 0.00518627 -1.4399e-22 1.73878e-37)
(0.143274 -0.027187 0 0.00522181 0 0)
(0.201583 -0.0323953 0 0.00524507 0 0)
(0.270857 -0.0376218 0 0.00525788 0 0)
(0.351311 -0.0427366 0 0.00523898 0 0)
(0.442803 -0.0475078 -1.77038e-21 0.00515837 1.5242e-22 1.61058e-37)
(0.544588 -0.051598 0 0.00498515 0 0)
(0.655083 -0.054565 0 0.00469306 0 0)
(0.771665 -0.0559092 0 0.00427312 0 0)
(0.89055 -0.0551105 0 0.00373986 0 0)
(1.00688 -0.0517361 -2.58674e-21 0.0031456 1.89636e-22 1.48868e-37)
(1.11489 -0.0455066 0 0.00257961 0 0)
(1.20877 -0.0364326 0 0.00217281 0 0)
(1.28321 -0.0248736 0 0.00208004 0 0)
(1.33168 -0.0117097 0 0.00245464 0 0)
(1.35191 0.00144099 0 0.00338802 0 0)
(1.34491 0.0127559 0 0.00485195 0 0)
(1.3157 0.0200813 0 0.00664837 0 0)
(1.27226 0.0219955 -4.766e-21 0.00848075 3.40097e-22 1.30651e-37)
(1.22627 0.0172392 5.12466e-21 0.00993258 -3.41513e-22 1.28484e-37)
(1.187 0.00552679 -5.48507e-21 0.0107366 3.32663e-22 1.26343e-37)
(1.16723 -0.0112979 -5.83648e-21 0.0111547 3.16068e-22 1.24226e-37)
(1.1741 -0.0336129 0 0.0115811 0 0)
(1.21545 -0.0579165 0 0.0147759 0 0)
(1.29338 -0.0852219 6.7599e-21 0.0219061 -2.14789e-22 1.18022e-37)
(1.41329 -0.116632 7.00648e-21 0.0337758 -1.71658e-22 1.16003e-37)
(1.57295 -0.147041 0 0.0474169 0 0)
(1.756 -0.170024 0 0.0572136 0 0)
(1.93898 -0.178847 7.71559e-21 0.0604711 -1.61309e-22 1.10092e-37)
(2.11038 -0.171635 0 0.0589667 0 0)
(2.26352 -0.161045 0 0.0590283 0 0)
(2.40587 -0.145769 -8.64165e-21 0.0539202 2.76981e-22 1.04402e-37)
(2.54756 -0.115875 0 0.0382826 0 0)
(2.69424 -0.085119 -9.31738e-21 0.032456 3.36255e-22 1.00729e-37)
(2.87097 -0.0929667 -1.92879e-20 0.0383535 6.62177e-22 3.95715e-37)
(3.11622 -0.120592 0 0.0331489 0 0)
(3.41562 -0.139105 0 0.0274307 0 0)
(3.74796 -0.149261 0 0.0226394 0 0)
(4.09763 -0.152401 0 0.0184546 0 0)
(4.45079 -0.149984 0 0.0149838 0 0)
(4.79588 -0.143157 -2.18702e-20 0.0120913 3.20861e-22 3.54514e-37)
(5.12365 -0.132972 -2.20781e-20 0.00971201 2.70754e-22 3.47977e-37)
(5.42645 -0.120238 -2.22183e-20 0.0077567 2.22987e-22 3.41533e-37)
(5.69804 -0.105701 0 0.00616119 0 0)
(5.93364 -0.0899904 2.22916e-20 0.0048675 -1.35239e-22 3.2892e-37)
(6.12977 -0.0737088 0 0.0038314 0 0)
(6.28418 -0.0573866 -2.20926e-20 0.00301509 5.96085e-23 3.16672e-37)
(6.39728 -0.0414583 -2.18979e-20 0.00238534 2.69266e-23 3.10682e-37)
(6.46846 -0.0262629 0 0.00191311 0 0)
(6.49961 -0.0121246 0 0.0015717 0 0)
(6.4932 0.000725576 0 0.00133652 0 0)
(6.45258 0.0121502 -2.05955e-20 0.00118434 -6.77343e-23 2.87605e-37)
(6.38075 0.0220453 0 0.00109608 0 0)
(6.28211 0.0304067 0 0.0010524 0 0)
(6.16046 0.0372902 0 0.00103839 0 0)
(6.01971 0.0427781 0 0.00104259 0 0)
(5.8636 0.0469593 0 0.00105761 0 0)
(5.69571 0.0499532 0 0.00107706 0 0)
(5.51929 0.0518869 0 0.00109672 0 0)
(5.33726 0.0529078 0 0.00111271 0 0)
(5.15213 0.053168 1.63403e-20 0.00112288 1.14173e-22 2.40635e-37)
(4.96594 0.0528427 0 0.00112536 0 0)
(4.7802 0.0521092 0 0.00112045 0 0)
(4.59587 0.0511411 -1.49742e-20 0.00111008 -1.04866e-22 2.26422e-37)
(4.41343 0.0500942 -1.45425e-20 0.00109742 -1.01283e-22 2.21838e-37)
(4.23293 0.0490911 0 0.00108595 0 0)
(4.0541 0.0482282 1.37143e-20 0.00107766 9.44073e-23 2.12894e-37)
(3.87639 0.0475849 -1.33168e-20 0.0010727 -9.13113e-23 2.08532e-37)
(3.69899 0.0472268 0 0.00106996 0 0)
(3.52081 0.0472027 1.2551e-20 0.0010679 8.6197e-23 2.00025e-37)
(3.34055 0.0475312 0 0.00106671 0 0)
(3.15685 0.048172 0 0.00106947 0 0)
(2.96875 0.0489862 -1.14619e-20 0.00107984 -8.12093e-23 1.87792e-37)
(2.77605 0.0497418 0 0.00110049 0 0)
(2.57959 0.0501604 1.07702e-20 0.0011295 7.8082e-23 1.79978e-37)
(2.38117 0.0500033 0 0.00116086 0 0)
(2.18339 0.0491108 -1.01136e-20 0.00118574 -7.30902e-23 1.72428e-37)
(1.98926 0.0474222 -9.80277e-21 0.00119412 -6.96439e-23 1.68751e-37)
(1.80181 0.0449903 -9.50559e-21 0.00117878 -6.56131e-23 1.65137e-37)
(1.62371 0.0419641 -1.84465e-20 0.00113726 -1.22263e-22 6.4634e-37)
(1.45694 0.0385471 1.79126e-20 0.00107228 1.12732e-22 6.32382e-37)
(1.30263 0.0349457 0 0.000990102 0 0)
(1.16131 0.0313305 0 0.000897823 0 0)
(1.03301 0.0278355 0 0.000802307 0 0)
(0.917342 0.0245509 1.60762e-20 0.000709138 7.50997e-23 5.78952e-37)
(0.813659 0.0215105 1.56852e-20 0.000620848 6.67418e-23 5.66179e-37)
(0.721161 0.0187314 -1.5318e-20 0.000539169 -5.89568e-23 5.53632e-37)
(0.639 0.0162137 0 0.000464769 0 0)
(0.566329 0.0139361 1.46478e-20 0.000396885 4.50674e-23 5.29207e-37)
(0.502357 0.0118926 1.43415e-20 0.000335678 3.89162e-23 5.17322e-37)
(0.446294 0.0100652 1.40525e-20 0.00028059 3.32553e-23 5.05651e-37)
(0.397399 0.0084412 0 0.000231406 0 0)
(0.354944 0.0070046 0 0.000187753 0 0)
(0.318245 0.00574675 0 0.000149738 0 0)
(0.286672 0.00465546 1.30423e-20 0.000117226 1.50213e-23 4.61042e-37)
(0.25962 0.00371719 0 8.99776e-05 0 0)
(0.236522 0.00291736 0 6.76306e-05 0 0)
(0.216862 0.00224081 -1.24071e-20 4.97182e-05 -5.49751e-24 4.29681e-37)
(0.200175 0.00167245 0 3.57044e-05 0 0)
(0.186047 0.00119776 0 2.50251e-05 0 0)
(0.174116 0.000803253 -1.18497e-20 1.71263e-05 1.05561e-24 4.00025e-37)
(0.164069 0.000476782 0 1.14914e-05 0 0)
(0.155636 0.000207639 0 7.65843e-06 0 0)
(0.148585 -1.34074e-05 1.13514e-20 5.22697e-06 -5.24922e-24 3.71996e-37)
(0.14272 -0.000194223 1.11959e-20 3.85739e-06 -6.22294e-24 3.63002e-37)
(0.137872 -0.000341445 0 3.26652e-06 0 0)
(0.1339 -0.000460603 -1.08978e-20 3.22236e-06 7.65165e-24 3.4552e-37)
(0.130681 -0.000556377 0 3.53689e-06 0 0)
(0.128112 -0.000632625 1.06144e-20 4.06176e-06 -8.4985e-24 3.28697e-37)
(0.126103 -0.000692567 0 4.68362e-06 0 0)
(0.124578 -0.000738935 1.03432e-20 5.31952e-06 -8.88339e-24 3.12511e-37)
(0.123473 -0.000773955 1.02114e-20 5.91305e-06 -8.93884e-24 3.04651e-37)
(0.122732 -0.000799693 0 6.4324e-06 0 0)
(0.122306 -0.000817782 0 6.86251e-06 0 0)
(0.122155 -0.000830154 0 7.21203e-06 0 0)
(0.122249 -0.000837847 0 7.48567e-06 0 0)
(0.122548 -0.000839281 0 7.64032e-06 0 0)
(0.123021 -0.000833623 0 7.64707e-06 0 0)
(0.12364 -0.000821362 0 7.51014e-06 0 0)
(0.124379 -0.000803346 9.22123e-21 7.24829e-06 -7.40308e-24 2.47036e-37)
(0.125213 -0.00078022 -9.10315e-21 6.87954e-06 7.04086e-24 2.40458e-37)
(0.12612 -0.000752507 0 6.42129e-06 0 0)
(0.127078 -0.000720806 0 5.89394e-06 0 0)
(0.128069 -0.000685836 0 5.32125e-06 0 0)
(0.129077 -0.00064841 0 4.72823e-06 0 0)
(0.130086 -0.000609373 -1.70485e-20 4.1384e-06 1.02241e-23 8.37982e-37)
(0.131084 -0.000569577 0 3.57219e-06 0 0)
(0.132062 -0.000529803 1.6594e-20 3.04526e-06 -8.78559e-24 7.91886e-37)
(0.133014 -0.000490721 -1.63683e-20 2.56769e-06 8.12203e-24 7.69545e-37)
(0.133932 -0.000452871 0 2.14465e-06 0 0)
(0.134815 -0.000416688 0 1.77735e-06 0 0)
(0.135661 -0.000382461 0 1.46364e-06 0 0)
(0.13647 -0.000350335 1.54757e-20 1.19883e-06 -5.91484e-24 6.84713e-37)
(0.137241 -0.000320344 1.52551e-20 9.77138e-07 -5.47336e-24 6.64603e-37)
(0.137978 -0.00029249 0 7.92971e-07 0 0)
(0.13868 -0.000266777 1.48169e-20 6.41346e-07 -4.70733e-24 6.25648e-37)
(0.139352 -0.000243154 1.45993e-20 5.17443e-07 -4.37835e-24 6.0679e-37)
(0.139995 -0.000221524 -1.43828e-20 4.16717e-07 4.08066e-24 5.88336e-37)
(0.140612 -0.000201752 0 3.3508e-07 0 0)
(0.141206 -0.000183746 0 2.69329e-07 0 0)
(0.14178 -0.000167472 -1.37399e-20 2.1701e-07 3.34998e-24 5.35336e-37)
(0.142335 -0.000152914 0 1.76e-07 0 0)
(0.142873 -0.000140038 0 1.44345e-07 0 0)
(0.143397 -0.000128775 0 1.20208e-07 0 0)