# vtk DataFile Version 2.0
sampleSurface
ASCII
DATASET POLYDATA
POINTS 502 double
-0.0206 0 -0.0005
-0.0190172 0 -0.0005
-0.0190172 0 0.0005
-0.0206 0 0.0005
-0.0174976 0 -0.0005
-0.0174976 0 0.0005
-0.0160387 0 -0.0005
-0.0160387 0 0.0005
-0.0146381 0 -0.0005
-0.0146381 0 0.0005
-0.0132934 0 -0.0005
-0.0132934 0 0.0005
-0.0120025 0 -0.0005
-0.0120025 0 0.0005
-0.0107632 0 -0.0005
-0.0107632 0 0.0005
-0.00957337 0 -0.0005
-0.00957337 0 0.0005
-0.00843108 0 -0.0005
-0.00843108 0 0.0005
-0.00733443 0 -0.0005
-0.00733443 0 0.0005
-0.0062816 0 -0.0005
-0.0062816 0 0.0005
-0.00527083 0 -0.0005
-0.00527083 0 0.0005
-0.00430044 0 -0.0005
-0.00430044 0 0.0005
-0.00336883 0 -0.0005
-0.00336883 0 0.0005
-0.00247443 0 -0.0005
-0.00247443 0 0.0005
-0.00161577 0 -0.0005
-0.00161577 0 0.0005
-0.000791418 0 -0.0005
-0.000791418 0 0.0005
0 0 -0.0005
0 0 0.0005
0 -0.0254 -0.0005
0 -0.0254 0.0005
0 -0.0242711 0.0005
0 -0.0242711 -0.0005
0 -0.0231422 0.0005
0 -0.0231422 -0.0005
0 -0.0220133 0.0005
0 -0.0220133 -0.0005
0 -0.0208844 0.0005
0 -0.0208844 -0.0005
0 -0.0197556 0.0005
0 -0.0197556 -0.0005
0 -0.0186267 0.0005
0 -0.0186267 -0.0005
0 -0.0174978 0.0005
0 -0.0174978 -0.0005
0 -0.0163689 0.0005
0 -0.0163689 -0.0005
0 -0.01524 0.0005
0 -0.01524 -0.0005
0 -0.0141111 0.0005
0 -0.0141111 -0.0005
0 -0.0129822 0.0005
0 -0.0129822 -0.0005
0 -0.0118533 0.0005
0 -0.0118533 -0.0005
0 -0.0107244 0.0005
0 -0.0107244 -0.0005
0 -0.00959556 0.0005
0 -0.00959556 -0.0005
0 -0.00846667 0.0005
0 -0.00846667 -0.0005
0 -0.00726604 0.0005
0 -0.00726604 -0.0005
0 -0.00618989 0.0005
0 -0.00618989 -0.0005
0 -0.00522531 0.0005
0 -0.00522531 -0.0005
0 -0.00436073 0.0005
0 -0.00436073 -0.0005
0 -0.00358579 0.0005
0 -0.00358579 -0.0005
0 -0.00289118 0.0005
0 -0.00289118 -0.0005
0 -0.0022686 0.0005
0 -0.0022686 -0.0005
0 -0.00171055 0.0005
0 -0.00171055 -0.0005
0 -0.00121037 0.0005
0 -0.00121037 -0.0005
0 -0.000762037 0.0005
0 -0.000762037 -0.0005
0 -0.000360188 0.0005
0 -0.000360188 -0.0005
0.000528387 -0.0254 -0.0005
0.000528387 -0.0254 0.0005
0.00106088 -0.0254 -0.0005
0.00106088 -0.0254 0.0005
0.00159752 -0.0254 -0.0005
0.00159752 -0.0254 0.0005
0.00213833 -0.0254 -0.0005
0.00213833 -0.0254 0.0005
0.00268334 -0.0254 -0.0005
0.00268334 -0.0254 0.0005
0.00323259 -0.0254 -0.0005
0.00323259 -0.0254 0.0005
0.00378611 -0.0254 -0.0005
0.00378611 -0.0254 0.0005
0.00434393 -0.0254 -0.0005
0.00434393 -0.0254 0.0005
0.00490609 -0.0254 -0.0005
0.00490609 -0.0254 0.0005
0.00547262 -0.0254 -0.0005
0.00547262 -0.0254 0.0005
0.00604356 -0.0254 -0.0005
0.00604356 -0.0254 0.0005
0.00661893 -0.0254 -0.0005
0.00661893 -0.0254 0.0005
0.00719878 -0.0254 -0.0005
0.00719878 -0.0254 0.0005
0.00778313 -0.0254 -0.0005
0.00778313 -0.0254 0.0005
0.00837203 -0.0254 -0.0005
0.00837203 -0.0254 0.0005
0.00896551 -0.0254 -0.0005
0.00896551 -0.0254 0.0005
0.0095636 -0.0254 -0.0005
0.0095636 -0.0254 0.0005
0.0101663 -0.0254 -0.0005
0.0101663 -0.0254 0.0005
0.0107738 -0.0254 -0.0005
0.0107738 -0.0254 0.0005
0.0113859 -0.0254 -0.0005
0.0113859 -0.0254 0.0005
0.0120028 -0.0254 -0.0005
0.0120028 -0.0254 0.0005
0.0126245 -0.0254 -0.0005
0.0126245 -0.0254 0.0005
0.0132511 -0.0254 -0.0005
0.0132511 -0.0254 0.0005
0.0138825 -0.0254 -0.0005
0.0138825 -0.0254 0.0005
0.0145188 -0.0254 -0.0005
0.0145188 -0.0254 0.0005
0.0151601 -0.0254 -0.0005
0.0151601 -0.0254 0.0005
0.0158063 -0.0254 -0.0005
0.0158063 -0.0254 0.0005
0.0164576 -0.0254 -0.0005
0.0164576 -0.0254 0.0005
0.0171139 -0.0254 -0.0005
0.0171139 -0.0254 0.0005
0.0177754 -0.0254 -0.0005
0.0177754 -0.0254 0.0005
0.018442 -0.0254 -0.0005
0.018442 -0.0254 0.0005
0.0191137 -0.0254 -0.0005
0.0191137 -0.0254 0.0005
0.0197907 -0.0254 -0.0005
0.0197907 -0.0254 0.0005
0.020473 -0.0254 -0.0005
0.020473 -0.0254 0.0005
0.0211606 -0.0254 -0.0005
0.0211606 -0.0254 0.0005
0.0218535 -0.0254 -0.0005
0.0218535 -0.0254 0.0005
0.0225517 -0.0254 -0.0005
0.0225517 -0.0254 0.0005
0.0232555 -0.0254 -0.0005
0.0232555 -0.0254 0.0005
0.0239647 -0.0254 -0.0005
0.0239647 -0.0254 0.0005
0.0246794 -0.0254 -0.0005
0.0246794 -0.0254 0.0005
0.0253996 -0.0254 -0.0005
0.0253996 -0.0254 0.0005
0.0261255 -0.0254 -0.0005
0.0261255 -0.0254 0.0005
0.026857 -0.0254 -0.0005
0.026857 -0.0254 0.0005
0.0275942 -0.0254 -0.0005
0.0275942 -0.0254 0.0005
0.0283371 -0.0254 -0.0005
0.0283371 -0.0254 0.0005
0.0290858 -0.0254 -0.0005
0.0290858 -0.0254 0.0005
0.0298403 -0.0254 -0.0005
0.0298403 -0.0254 0.0005
0.0306007 -0.0254 -0.0005
0.0306007 -0.0254 0.0005
0.031367 -0.0254 -0.0005
0.031367 -0.0254 0.0005
0.0321393 -0.0254 -0.0005
0.0321393 -0.0254 0.0005
0.0329175 -0.0254 -0.0005
0.0329175 -0.0254 0.0005
0.0337019 -0.0254 -0.0005
0.0337019 -0.0254 0.0005
0.0344923 -0.0254 -0.0005
0.0344923 -0.0254 0.0005
0.0352888 -0.0254 -0.0005
0.0352888 -0.0254 0.0005
0.0360916 -0.0254 -0.0005
0.0360916 -0.0254 0.0005
0.0369006 -0.0254 -0.0005
0.0369006 -0.0254 0.0005
0.0377158 -0.0254 -0.0005
0.0377158 -0.0254 0.0005
0.0385375 -0.0254 -0.0005
0.0385375 -0.0254 0.0005
0.0393655 -0.0254 -0.0005
0.0393655 -0.0254 0.0005
0.0401999 -0.0254 -0.0005
0.0401999 -0.0254 0.0005
0.0410408 -0.0254 -0.0005
0.0410408 -0.0254 0.0005
0.0418883 -0.0254 -0.0005
0.0418883 -0.0254 0.0005
0.0427424 -0.0254 -0.0005
0.0427424 -0.0254 0.0005
0.0436031 -0.0254 -0.0005
0.0436031 -0.0254 0.0005
0.0444704 -0.0254 -0.0005
0.0444704 -0.0254 0.0005
0.0453446 -0.0254 -0.0005
0.0453446 -0.0254 0.0005
0.0462255 -0.0254 -0.0005
0.0462255 -0.0254 0.0005
0.0471133 -0.0254 -0.0005
0.0471133 -0.0254 0.0005
0.048008 -0.0254 -0.0005
0.048008 -0.0254 0.0005
0.0489096 -0.0254 -0.0005
0.0489096 -0.0254 0.0005
0.0498183 -0.0254 -0.0005
0.0498183 -0.0254 0.0005
0.050734 -0.0254 -0.0005
0.050734 -0.0254 0.0005
0.0516568 -0.0254 -0.0005
0.0516568 -0.0254 0.0005
0.0525868 -0.0254 -0.0005
0.0525868 -0.0254 0.0005
0.053524 -0.0254 -0.0005
0.053524 -0.0254 0.0005
0.0544686 -0.0254 -0.0005
0.0544686 -0.0254 0.0005
0.0554204 -0.0254 -0.0005
0.0554204 -0.0254 0.0005
0.0563797 -0.0254 -0.0005
0.0563797 -0.0254 0.0005
0.0573464 -0.0254 -0.0005
0.0573464 -0.0254 0.0005
0.0583206 -0.0254 -0.0005
0.0583206 -0.0254 0.0005
0.0593025 -0.0254 -0.0005
0.0593025 -0.0254 0.0005
0.0602919 -0.0254 -0.0005
0.0602919 -0.0254 0.0005
0.0612891 -0.0254 -0.0005
0.0612891 -0.0254 0.0005
0.0622939 -0.0254 -0.0005
0.0622939 -0.0254 0.0005
0.0633067 -0.0254 -0.0005
0.0633067 -0.0254 0.0005
0.0643272 -0.0254 -0.0005
0.0643272 -0.0254 0.0005
0.0653557 -0.0254 -0.0005
0.0653557 -0.0254 0.0005
0.0663923 -0.0254 -0.0005
0.0663923 -0.0254 0.0005
0.0674368 -0.0254 -0.0005
0.0674368 -0.0254 0.0005
0.0684895 -0.0254 -0.0005
0.0684895 -0.0254 0.0005
0.0695504 -0.0254 -0.0005
0.0695504 -0.0254 0.0005
0.0706195 -0.0254 -0.0005
0.0706195 -0.0254 0.0005
0.0716969 -0.0254 -0.0005
0.0716969 -0.0254 0.0005
0.0727828 -0.0254 -0.0005
0.0727828 -0.0254 0.0005
0.073877 -0.0254 -0.0005
0.073877 -0.0254 0.0005
0.0749798 -0.0254 -0.0005
0.0749798 -0.0254 0.0005
0.0760911 -0.0254 -0.0005
0.0760911 -0.0254 0.0005
0.0772111 -0.0254 -0.0005
0.0772111 -0.0254 0.0005
0.0783398 -0.0254 -0.0005
0.0783398 -0.0254 0.0005
0.0794772 -0.0254 -0.0005
0.0794772 -0.0254 0.0005
0.0806235 -0.0254 -0.0005
0.0806235 -0.0254 0.0005
0.0817787 -0.0254 -0.0005
0.0817787 -0.0254 0.0005
0.0829429 -0.0254 -0.0005
0.0829429 -0.0254 0.0005
0.0841162 -0.0254 -0.0005
0.0841162 -0.0254 0.0005
0.0852985 -0.0254 -0.0005
0.0852985 -0.0254 0.0005
0.0864901 -0.0254 -0.0005
0.0864901 -0.0254 0.0005
0.0876909 -0.0254 -0.0005
0.0876909 -0.0254 0.0005
0.0889011 -0.0254 -0.0005
0.0889011 -0.0254 0.0005
0.0901207 -0.0254 -0.0005
0.0901207 -0.0254 0.0005
0.0913497 -0.0254 -0.0005
0.0913497 -0.0254 0.0005
0.0925883 -0.0254 -0.0005
0.0925883 -0.0254 0.0005
0.0938366 -0.0254 -0.0005
0.0938366 -0.0254 0.0005
0.0950945 -0.0254 -0.0005
0.0950945 -0.0254 0.0005
0.0963622 -0.0254 -0.0005
0.0963622 -0.0254 0.0005
0.0976398 -0.0254 -0.0005
0.0976398 -0.0254 0.0005
0.0989273 -0.0254 -0.0005
0.0989273 -0.0254 0.0005
0.100225 -0.0254 -0.0005
0.100225 -0.0254 0.0005
0.101532 -0.0254 -0.0005
0.101532 -0.0254 0.0005
0.10285 -0.0254 -0.0005
0.10285 -0.0254 0.0005
0.104178 -0.0254 -0.0005
0.104178 -0.0254 0.0005
0.105517 -0.0254 -0.0005
0.105517 -0.0254 0.0005
0.106865 -0.0254 -0.0005
0.106865 -0.0254 0.0005
0.108225 -0.0254 -0.0005
0.108225 -0.0254 0.0005
0.109594 -0.0254 -0.0005
0.109594 -0.0254 0.0005
0.110975 -0.0254 -0.0005
0.110975 -0.0254 0.0005
0.112366 -0.0254 -0.0005
0.112366 -0.0254 0.0005
0.113768 -0.0254 -0.0005
0.113768 -0.0254 0.0005
0.115181 -0.0254 -0.0005
0.115181 -0.0254 0.0005
0.116605 -0.0254 -0.0005
0.116605 -0.0254 0.0005
0.11804 -0.0254 -0.0005
0.11804 -0.0254 0.0005
0.119486 -0.0254 -0.0005
0.119486 -0.0254 0.0005
0.120943 -0.0254 -0.0005
0.120943 -0.0254 0.0005
0.122412 -0.0254 -0.0005
0.122412 -0.0254 0.0005
0.123892 -0.0254 -0.0005
0.123892 -0.0254 0.0005
0.125384 -0.0254 -0.0005
0.125384 -0.0254 0.0005
0.126887 -0.0254 -0.0005
0.126887 -0.0254 0.0005
0.128402 -0.0254 -0.0005
0.128402 -0.0254 0.0005
0.129928 -0.0254 -0.0005
0.129928 -0.0254 0.0005
0.131467 -0.0254 -0.0005
0.131467 -0.0254 0.0005
0.133017 -0.0254 -0.0005
0.133017 -0.0254 0.0005
0.13458 -0.0254 -0.0005
0.13458 -0.0254 0.0005
0.136155 -0.0254 -0.0005
0.136155 -0.0254 0.0005
0.137742 -0.0254 -0.0005
0.137742 -0.0254 0.0005
0.139341 -0.0254 -0.0005
0.139341 -0.0254 0.0005
0.140953 -0.0254 -0.0005
0.140953 -0.0254 0.0005
0.142577 -0.0254 -0.0005
0.142577 -0.0254 0.0005
0.144214 -0.0254 -0.0005
0.144214 -0.0254 0.0005
0.145863 -0.0254 -0.0005
0.145863 -0.0254 0.0005
0.147526 -0.0254 -0.0005
0.147526 -0.0254 0.0005
0.149201 -0.0254 -0.0005
0.149201 -0.0254 0.0005
0.15089 -0.0254 -0.0005
0.15089 -0.0254 0.0005
0.152591 -0.0254 -0.0005
0.152591 -0.0254 0.0005
0.154306 -0.0254 -0.0005
0.154306 -0.0254 0.0005
0.156034 -0.0254 -0.0005
0.156034 -0.0254 0.0005
0.157775 -0.0254 -0.0005
0.157775 -0.0254 0.0005
0.159531 -0.0254 -0.0005
0.159531 -0.0254 0.0005
0.161299 -0.0254 -0.0005
0.161299 -0.0254 0.0005
0.163082 -0.0254 -0.0005
0.163082 -0.0254 0.0005
0.164878 -0.0254 -0.0005
0.164878 -0.0254 0.0005
0.166688 -0.0254 -0.0005
0.166688 -0.0254 0.0005
0.168513 -0.0254 -0.0005
0.168513 -0.0254 0.0005
0.170351 -0.0254 -0.0005
0.170351 -0.0254 0.0005
0.172204 -0.0254 -0.0005
0.172204 -0.0254 0.0005
0.174071 -0.0254 -0.0005
0.174071 -0.0254 0.0005
0.175953 -0.0254 -0.0005
0.175953 -0.0254 0.0005
0.177849 -0.0254 -0.0005
0.177849 -0.0254 0.0005
0.17976 -0.0254 -0.0005
0.17976 -0.0254 0.0005
0.181686 -0.0254 -0.0005
0.181686 -0.0254 0.0005
0.183627 -0.0254 -0.0005
0.183627 -0.0254 0.0005
0.185583 -0.0254 -0.0005
0.185583 -0.0254 0.0005
0.187555 -0.0254 -0.0005
0.187555 -0.0254 0.0005
0.189541 -0.0254 -0.0005
0.189541 -0.0254 0.0005
0.191543 -0.0254 -0.0005
0.191543 -0.0254 0.0005
0.193561 -0.0254 -0.0005
0.193561 -0.0254 0.0005
0.195594 -0.0254 -0.0005
0.195594 -0.0254 0.0005
0.197643 -0.0254 -0.0005
0.197643 -0.0254 0.0005
0.199708 -0.0254 -0.0005
0.199708 -0.0254 0.0005
0.201789 -0.0254 -0.0005
0.201789 -0.0254 0.0005
0.203886 -0.0254 -0.0005
0.203886 -0.0254 0.0005
0.206 -0.0254 -0.0005
0.206 -0.0254 0.0005
0.208047 -0.0251856 -0.0005
0.208047 -0.0251856 0.0005
0.210173 -0.0249628 -0.0005
0.210173 -0.0249628 0.0005
0.212382 -0.0247314 -0.0005
0.212382 -0.0247314 0.0005
0.214677 -0.024491 -0.0005
0.214677 -0.024491 0.0005
0.217061 -0.0242412 -0.0005
0.217061 -0.0242412 0.0005
0.219538 -0.0239817 -0.0005
0.219538 -0.0239817 0.0005
0.222112 -0.0237121 -0.0005
0.222112 -0.0237121 0.0005
0.224785 -0.023432 -0.0005
0.224785 -0.023432 0.0005
0.227563 -0.023141 -0.0005
0.227563 -0.023141 0.0005
0.230449 -0.0228387 -0.0005
0.230449 -0.0228387 0.0005
0.233447 -0.0225246 -0.0005
0.233447 -0.0225246 0.0005
0.236562 -0.0221983 -0.0005
0.236562 -0.0221983 0.0005
0.239797 -0.0218593 -0.0005
0.239797 -0.0218593 0.0005
0.243159 -0.0215071 -0.0005
0.243159 -0.0215071 0.0005
0.246652 -0.0211412 -0.0005
0.246652 -0.0211412 0.0005
0.250281 -0.0207611 -0.0005
0.250281 -0.0207611 0.0005
0.254051 -0.0203661 -0.0005
0.254051 -0.0203661 0.0005
0.257967 -0.0199558 -0.0005
0.257967 -0.0199558 0.0005
0.262036 -0.0195295 -0.0005
0.262036 -0.0195295 0.0005
0.266264 -0.0190867 -0.0005
0.266264 -0.0190867 0.0005
0.270655 -0.0186266 -0.0005
0.270655 -0.0186266 0.0005
0.275218 -0.0181486 -0.0005
0.275218 -0.0181486 0.0005
0.279959 -0.017652 -0.0005
0.279959 -0.017652 0.0005
0.284883 -0.017136 -0.0005
0.284883 -0.017136 0.0005
0.29 -0.0166 -0.0005
0.29 -0.0166 0.0005

POLYGONS 250 1250
4 0 1 2 3
4 1 4 5 2
4 4 6 7 5
4 6 8 9 7
4 8 10 11 9
4 10 12 13 11
4 12 14 15 13
4 14 16 17 15
4 16 18 19 17
4 18 20 21 19
4 20 22 23 21
4 22 24 25 23
4 24 26 27 25
4 26 28 29 27
4 28 30 31 29
4 30 32 33 31
4 32 34 35 33
4 34 36 37 35
4 38 39 40 41
4 41 40 42 43
4 43 42 44 45
4 45 44 46 47
4 47 46 48 49
4 49 48 50 51
4 51 50 52 53
4 53 52 54 55
4 55 54 56 57
4 57 56 58 59
4 59 58 60 61
4 61 60 62 63
4 63 62 64 65
4 65 64 66 67
4 67 66 68 69
4 69 68 70 71
4 71 70 72 73
4 73 72 74 75
4 75 74 76 77
4 77 76 78 79
4 79 78 80 81
4 81 80 82 83
4 83 82 84 85
4 85 84 86 87
4 87 86 88 89
4 89 88 90 91
4 91 90 37 36
4 38 92 93 39
4 92 94 95 93
4 94 96 97 95
4 96 98 99 97
4 98 100 101 99
4 100 102 103 101
4 102 104 105 103
4 104 106 107 105
4 106 108 109 107
4 108 110 111 109
4 110 112 113 111
4 112 114 115 113
4 114 116 117 115
4 116 118 119 117
4 118 120 121 119
4 120 122 123 121
4 122 124 125 123
4 124 126 127 125
4 126 128 129 127
4 128 130 131 129
4 130 132 133 131
4 132 134 135 133
4 134 136 137 135
4 136 138 139 137
4 138 140 141 139
4 140 142 143 141
4 142 144 145 143
4 144 146 147 145
4 146 148 149 147
4 148 150 151 149
4 150 152 153 151
4 152 154 155 153
4 154 156 157 155
4 156 158 159 157
4 158 160 161 159
4 160 162 163 161
4 162 164 165 163
4 164 166 167 165
4 166 168 169 167
4 168 170 171 169
4 170 172 173 171
4 172 174 175 173
4 174 176 177 175
4 176 178 179 177
4 178 180 181 179
4 180 182 183 181
4 182 184 185 183
4 184 186 187 185
4 186 188 189 187
4 188 190 191 189
4 190 192 193 191
4 192 194 195 193
4 194 196 197 195
4 196 198 199 197
4 198 200 201 199
4 200 202 203 201
4 202 204 205 203
4 204 206 207 205
4 206 208 209 207
4 208 210 211 209
4 210 212 213 211
4 212 214 215 213
4 214 216 217 215
4 216 218 219 217
4 218 220 221 219
4 220 222 223 221
4 222 224 225 223
4 224 226 227 225
4 226 228 229 227
4 228 230 231 229
4 230 232 233 231
4 232 234 235 233
4 234 236 237 235
4 236 238 239 237
4 238 240 241 239
4 240 242 243 241
4 242 244 245 243
4 244 246 247 245
4 246 248 249 247
4 248 250 251 249
4 250 252 253 251
4 252 254 255 253
4 254 256 257 255
4 256 258 259 257
4 258 260 261 259
4 260 262 263 261
4 262 264 265 263
4 264 266 267 265
4 266 268 269 267
4 268 270 271 269
4 270 272 273 271
4 272 274 275 273
4 274 276 277 275
4 276 278 279 277
4 278 280 281 279
4 280 282 283 281
4 282 284 285 283
4 284 286 287 285
4 286 288 289 287
4 288 290 291 289
4 290 292 293 291
4 292 294 295 293
4 294 296 297 295
4 296 298 299 297
4 298 300 301 299
4 300 302 303 301
4 302 304 305 303
4 304 306 307 305
4 306 308 309 307
4 308 310 311 309
4 310 312 313 311
4 312 314 315 313
4 314 316 317 315
4 316 318 319 317
4 318 320 321 319
4 320 322 323 321
4 322 324 325 323
4 324 326 327 325
4 326 328 329 327
4 328 330 331 329
4 330 332 333 331
4 332 334 335 333
4 334 336 337 335
4 336 338 339 337
4 338 340 341 339
4 340 342 343 341
4 342 344 345 343
4 344 346 347 345
4 346 348 349 347
4 348 350 351 349
4 350 352 353 351
4 352 354 355 353
4 354 356 357 355
4 356 358 359 357
4 358 360 361 359
4 360 362 363 361
4 362 364 365 363
4 364 366 367 365
4 366 368 369 367
4 368 370 371 369
4 370 372 373 371
4 372 374 375 373
4 374 376 377 375
4 376 378 379 377
4 378 380 381 379
4 380 382 383 381
4 382 384 385 383
4 384 386 387 385
4 386 388 389 387
4 388 390 391 389
4 390 392 393 391
4 392 394 395 393
4 394 396 397 395
4 396 398 399 397
4 398 400 401 399
4 400 402 403 401
4 402 404 405 403
4 404 406 407 405
4 406 408 409 407
4 408 410 411 409
4 410 412 413 411
4 412 414 415 413
4 414 416 417 415
4 416 418 419 417
4 418 420 421 419
4 420 422 423 421
4 422 424 425 423
4 424 426 427 425
4 426 428 429 427
4 428 430 431 429
4 430 432 433 431
4 432 434 435 433
4 434 436 437 435
4 436 438 439 437
4 438 440 441 439
4 440 442 443 441
4 442 444 445 443
4 444 446 447 445
4 446 448 449 447
4 448 450 451 449
4 450 452 453 451
4 452 454 455 453
4 454 456 457 455
4 456 458 459 457
4 458 460 461 459
4 460 462 463 461
4 462 464 465 463
4 464 466 467 465
4 466 468 469 467
4 468 470 471 469
4 470 472 473 471
4 472 474 475 473
4 474 476 477 475
4 476 478 479 477
4 478 480 481 479
4 480 482 483 481
4 482 484 485 483
4 484 486 487 485
4 486 488 489 487
4 488 490 491 489
4 490 492 493 491
4 492 494 495 493
4 494 496 497 495
4 496 498 499 497
4 498 500 501 499
POINT_DATA 502
FIELD attributes 1
U 3 502 float
1.60918 0.108808 0.00472484
0.806101 0.0539969 0.00232841
0.806101 0.0539969 0.00232841
1.60918 0.108808 0.00472484
0.0242274 0.000694771 0
0.0242274 0.000694771 0
0.0214311 0.000595427 0
0.0214311 0.000595427 0
0.0191462 0.000499252 0
0.0191462 0.000499252 0
0.0171494 0.000425272 0
0.0171494 0.000425272 0
0.0153085 0.00037486 0
0.0153085 0.00037486 0
0.0135527 0.000330412 0
0.0135527 0.000330412 0
0.011908 0.000279122 0
0.011908 0.000279122 0
0.0104099 0.000230237 0
0.0104099 0.000230237 0
0.00906556 0.000191214 0
0.00906556 0.000191214 0
0.00787055 0.000155934 0
0.00787055 0.000155934 0
0.00681565 0.000119283 0
0.00681565 0.000119283 0
0.00590018 8.33916e-05 0
0.00590018 8.33916e-05 0
0.00509318 5.74391e-05 0
0.00509318 5.74391e-05 0
0.00439871 4.5519e-05 0
0.00439871 4.5519e-05 0
0.00368323 5.20785e-05 0
0.00368323 5.20785e-05 0
0.0030928 2.13035e-05 0
0.0030928 2.13035e-05 0
0.00117775 0.000166413 0
0.00117775 0.000166413 0
-0.00010605 0.00032421 -8.36986e-23
-0.00010605 0.00032421 -8.36986e-23
2.61945e-05 0.000802861 2.26401e-22
2.61945e-05 0.000802861 2.26401e-22
0.000166336 0.000643225 2.68292e-22
0.000166336 0.000643225 2.68292e-22
5.72671e-05 -0.000178459 -5.36938e-22
5.72671e-05 -0.000178459 -5.36938e-22
-3.96411e-05 -0.000358511 -1.78989e-22
-3.96411e-05 -0.000358511 -1.78989e-22
0.000145115 -0.000944922 3.57991e-22
0.000145115 -0.000944922 3.57991e-22
0.00030412 -0.00229727 0
0.00030412 -0.00229727 0
0.000111961 -0.00284319 7.17992e-22
0.000111961 -0.00284319 7.17992e-22
-0.000103232 -0.00226567 -1.47702e-25
-0.000103232 -0.00226567 -1.47702e-25
-0.000154242 -0.00148235 -7.1814e-22
-0.000154242 -0.00148235 -7.1814e-22
-0.000235686 -0.000303724 7.21704e-22
-0.000235686 -0.000303724 7.21704e-22
-0.000273409 0.00111492 2.79115e-25
-0.000273409 0.00111492 2.79115e-25
-0.000233632 0.00241752 -7.21425e-22
-0.000233632 0.00241752 -7.21425e-22
-0.000180329 0.0035848 -7.27642e-22
-0.000180329 0.0035848 -7.27642e-22
-9.83238e-05 0.0044732 -2.06064e-25
-9.83238e-05 0.0044732 -2.06064e-25
1.27094e-05 0.00498507 7.40329e-22
1.27094e-05 0.00498507 7.40329e-22
0.000166639 0.0049792 0
0.000166639 0.0049792 0
0.000339369 0.00436242 0
0.000339369 0.00436242 0
0.000510697 0.00321571 0
0.000510697 0.00321571 0
0.000605575 0.00167234 0
0.000605575 0.00167234 0
0.000374201 3.72163e-05 0
0.000374201 3.72163e-05 0
-9.12253e-05 -0.00105881 0
-9.12253e-05 -0.00105881 0
-0.000259202 -0.00147348 0
-0.000259202 -0.00147348 0
-0.000155488 -0.00155433 0
-0.000155488 -0.00155433 0
-0.000211951 -0.00134329 0
-0.000211951 -0.00134329 0
-0.000443532 -0.000839696 0
-0.000443532 -0.000839696 0
-0.000415739 -0.000102477 0
-0.000415739 -0.000102477 0
-0.000230719 0.000271983 -3.66934e-25
-0.000230719 0.000271983 -3.66934e-25
-0.000446388 0.000189201 4.15891e-23
-0.000446388 0.000189201 4.15891e-23
-0.000580317 0.000109301 0
-0.000580317 0.000109301 0
-0.000615472 1.29885e-05 0
-0.000615472 1.29885e-05 0
-0.000571513 -6.98962e-05 -4.03778e-23
-0.000571513 -6.98962e-05 -4.03778e-23
-0.000469675 -0.000138391 -4.04504e-23
-0.000469675 -0.000138391 -4.04504e-23
-0.000314215 -0.000197922 0
-0.000314215 -0.000197922 0
-0.000112549 -0.000244435 0
-0.000112549 -0.000244435 0
0.000127956 -0.000273529 0
0.000127956 -0.000273529 0
0.000392014 -0.000285087 3.89356e-23
0.000392014 -0.000285087 3.89356e-23
0.000662337 -0.000282587 3.90098e-23
0.000662337 -0.000282587 3.90098e-23
0.000927209 -0.00026843 0
0.000927209 -0.00026843 0
0.00117868 -0.000245529 0
0.00117868 -0.000245529 0
0.00140938 -0.000217337 0
0.00140938 -0.000217337 0
0.001615 -0.000187191 3.74715e-23
0.001615 -0.000187191 3.74715e-23
0.00179511 -0.000157938 3.75472e-23
0.00179511 -0.000157938 3.75472e-23
0.00195174 -0.000131577 0
0.00195174 -0.000131577 0
0.00208812 -0.000109304 0
0.00208812 -0.000109304 0
0.00220802 -9.16712e-05 0
0.00220802 -9.16712e-05 0
0.00231542 -7.86844e-05 0
0.00231542 -7.86844e-05 0
0.00241408 -6.98265e-05 0
0.00241408 -6.98265e-05 0
0.0025074 -6.43527e-05 0
0.0025074 -6.43527e-05 0
0.00259807 -6.12722e-05 3.51636e-23
0.00259807 -6.12722e-05 3.51636e-23
0.002688 -5.96723e-05 3.66882e-25
0.002688 -5.96723e-05 3.66882e-25
0.00277835 -5.8495e-05 -3.6659e-25
0.00277835 -5.8495e-05 -3.6659e-25
0.00286931 -5.68917e-05 6.89618e-23
0.00286931 -5.68917e-05 6.89618e-23
0.00296045 -5.34976e-05 3.43762e-23
0.00296045 -5.34976e-05 3.43762e-23
0.00304959 -4.75598e-05 0
0.00304959 -4.75598e-05 0
0.00313506 -3.77466e-05 -3.34416e-23
0.00313506 -3.77466e-05 -3.34416e-23
0.00321122 -2.19283e-05 -6.66799e-23
0.00321122 -2.19283e-05 -6.66799e-23
0.00327497 -3.22523e-07 -3.32384e-23
0.00327497 -3.22523e-07 -3.32384e-23
0.00331821 3.19221e-05 0
0.00331821 3.19221e-05 0
0.00333215 7.42344e-05 -3.23221e-23
0.00333215 7.42344e-05 -3.23221e-23
0.00330403 0.000134612 -3.24017e-23
0.00330403 0.000134612 -3.24017e-23
0.00321547 0.00020561 0
0.00321547 0.00020561 0
0.00306342 0.000300179 3.14998e-23
0.00306342 0.000300179 3.14998e-23
0.00280261 0.000411339 3.15799e-23
0.00280261 0.000411339 3.15799e-23
0.00246182 0.000525093 3.09766e-23
0.00246182 0.000525093 3.09766e-23
0.00197438 0.000754432 9.25231e-23
0.00197438 0.000754432 9.25231e-23
0.00126074 0.00073776 6.16272e-23
0.00126074 0.00073776 6.16272e-23
0.000661697 9.83831e-05 0
0.000661697 9.83831e-05 0
0.000396167 -0.000595508 0
0.000396167 -0.000595508 0
0.000290662 -0.000729269 0
0.000290662 -0.000729269 0
0.000213268 -0.000383152 0
0.000213268 -0.000383152 0
0.000167687 2.22534e-05 5.85854e-23
0.000167687 2.22534e-05 5.85854e-23
0.000131834 0.00023339 1.16853e-22
0.000131834 0.00023339 1.16853e-22
1.19746e-05 0.00027007 1.15888e-22
1.19746e-05 0.00027007 1.15888e-22
-0.000217887 0.00023355 5.77846e-23
-0.000217887 0.00023355 5.77846e-23
-0.000506057 0.000193974 -5.66427e-23
-0.000506057 0.000193974 -5.66427e-23
-0.000806471 0.000165733 -5.68068e-23
-0.000806471 0.000165733 -5.68068e-23
-0.00108075 0.000135528 5.57008e-23
-0.00108075 0.000135528 5.57008e-23
-0.00128467 9.12343e-05 1.11098e-22
-0.00128467 9.12343e-05 1.11098e-22
-0.00137807 3.62785e-05 5.53979e-23
-0.00137807 3.62785e-05 5.53979e-23
-0.00134659 -1.54267e-05 0
-0.00134659 -1.54267e-05 0
-0.00119322 -5.80614e-05 0
-0.00119322 -5.80614e-05 0
-0.000924978 -8.63991e-05 5.32193e-23
-0.000924978 -8.63991e-05 5.32193e-23
-0.000604888 -9.23987e-05 5.33842e-23
-0.000604888 -9.23987e-05 5.33842e-23
-0.000345751 -0.000111575 0
-0.000345751 -0.000111575 0
-0.000141767 -0.000182796 0
-0.000141767 -0.000182796 0
0.000154403 -0.000281089 0
0.000154403 -0.000281089 0
0.000604603 -0.000301879 0
0.000604603 -0.000301879 0
0.00104566 -0.00014079 0
0.00104566 -0.00014079 0
0.00118442 0.000119959 0
0.00118442 0.000119959 0
0.0010731 0.000229832 0
0.0010731 0.000229832 0
0.00112416 2.09151e-06 -4.87398e-23
0.00112416 2.09151e-06 -4.87398e-23
0.00142394 -0.00046883 -4.89036e-23
0.00142394 -0.00046883 -4.89036e-23
0.00172624 -0.000781962 0
0.00172624 -0.000781962 0
0.00176692 -0.000550571 4.73682e-23
0.00176692 -0.000550571 4.73682e-23
0.00133413 5.46672e-05 9.45399e-23
0.00133413 5.46672e-05 9.45399e-23
0.000481442 0.000500782 4.71719e-23
0.000481442 0.000500782 4.71719e-23
-0.000528931 0.000646724 -4.62629e-23
-0.000528931 0.000646724 -4.62629e-23
-0.00154614 0.000664514 -5.3182e-25
-0.00154614 0.000664514 -5.3182e-25
-0.00253843 0.000645918 4.60586e-23
-0.00253843 0.000645918 4.60586e-23
-0.00348212 0.000612201 -4.52485e-23
-0.00348212 0.000612201 -4.52485e-23
-0.0043669 0.000571307 -4.54127e-23
-0.0043669 0.000571307 -4.54127e-23
-0.00518976 0.000527477 0
-0.00518976 0.000527477 0
-0.00595011 0.000482825 4.43982e-23
-0.00595011 0.000482825 4.43982e-23
-0.00664816 0.000438272 4.45633e-23
-0.00664816 0.000438272 4.45633e-23
-0.00728404 0.000394139 -4.38442e-23
-0.00728404 0.000394139 -4.38442e-23
-0.00785739 0.000350361 -4.40099e-23
-0.00785739 0.000350361 -4.40099e-23
-0.00836705 0.000306634 4.32601e-23
-0.00836705 0.000306634 4.32601e-23
-0.00881117 0.000262723 8.63734e-23
-0.00881117 0.000262723 8.63734e-23
-0.00918763 0.000218737 8.57297e-23
-0.00918763 0.000218737 8.57297e-23
-0.0094948 0.000175134 1.27312e-22
-0.0094948 0.000175134 1.27312e-22
-0.00973206 0.000132626 1.07898e-24
-0.00973206 0.000132626 1.07898e-24
-0.00990002 9.2157e-05 -8.41143e-23
-0.00990002 9.2157e-05 -8.41143e-23
-0.0100005 5.479e-05 0
-0.0100005 5.479e-05 0
-0.0100367 2.13719e-05 0
-0.0100367 2.13719e-05 0
-0.0100161 -7.90735e-06 -8.03695e-23
-0.0100161 -7.90735e-06 -8.03695e-23
-0.00994537 -3.33709e-05 -1.60127e-22
-0.00994537 -3.33709e-05 -1.60127e-22
-0.00982886 -5.55981e-05 -1.28757e-24
-0.00982886 -5.55981e-05 -1.28757e-24
-0.00967091 -7.52599e-05 7.87937e-23
-0.00967091 -7.52599e-05 7.87937e-23
-0.00947459 -9.28939e-05 -7.65044e-23
-0.00947459 -9.28939e-05 -7.65044e-23
-0.00924253 -0.000109027 -1.52337e-22
-0.00924253 -0.000109027 -1.52337e-22
-0.00897624 -0.000124 -1.50346e-22
-0.00897624 -0.000124 -1.50346e-22
-0.00867729 -0.000137932 -7.48334e-23
-0.00867729 -0.000137932 -7.48334e-23
-0.00834731 -0.000150693 0
-0.00834731 -0.000150693 0
-0.00798885 -0.000161903 0
-0.00798885 -0.000161903 0
-0.00760542 -0.000171115 -7.05918e-23
-0.00760542 -0.000171115 -7.05918e-23
-0.00720158 -0.000177911 -7.09009e-23
-0.00720158 -0.000177911 -7.09009e-23
-0.00678264 -0.000182045 0
-0.00678264 -0.000182045 0
-0.00635426 -0.000183492 6.77914e-23
-0.00635426 -0.000183492 6.77914e-23
-0.00592198 -0.000182426 6.80942e-23
-0.00592198 -0.000182426 6.80942e-23
-0.00549094 -0.000179173 0
-0.00549094 -0.000179173 0
-0.00506554 -0.000174167 6.51546e-23
-0.00506554 -0.000174167 6.51546e-23
-0.00464907 -0.000167911 6.54513e-23
-0.00464907 -0.000167911 6.54513e-23
-0.00424358 -0.000160929 0
-0.00424358 -0.000160929 0
-0.00384997 -0.000153747 -6.26659e-23
-0.00384997 -0.000153747 -6.26659e-23
-0.00346814 -0.00014687 -1.2482e-22
-0.00346814 -0.00014687 -1.2482e-22
-0.00309713 -0.000140684 -6.21519e-23
-0.00309713 -0.000140684 -6.21519e-23
-0.00273521 -0.000135458 6.02889e-23
-0.00273521 -0.000135458 6.02889e-23
-0.00238008 -0.000131373 6.05739e-23
-0.00238008 -0.000131373 6.05739e-23
-0.0020291 -0.000128459 -5.87508e-23
-0.0020291 -0.000128459 -5.87508e-23
-0.00167971 -0.000126528 -5.90319e-23
-0.00167971 -0.000126528 -5.90319e-23
-0.00133001 -0.000125219 -5.72465e-23
-0.00133001 -0.000125219 -5.72465e-23
-0.000979124 -0.000124111 -1.14032e-22
-0.000979124 -0.000124111 -1.14032e-22
-0.000627288 -0.000122742 -5.67836e-23
-0.000627288 -0.000122742 -5.67836e-23
-0.00027596 -0.000120721 0
-0.00027596 -0.000120721 0
7.23453e-05 -0.000117507 0
7.23453e-05 -0.000117507 0
0.000414523 -0.000112776 0
0.000414523 -0.000112776 0
0.000746771 -0.000106612 0
0.000746771 -0.000106612 0
0.00106507 -9.91003e-05 0
0.00106507 -9.91003e-05 0
0.00136582 -9.04468e-05 0
0.00136582 -9.04468e-05 0
0.00164598 -8.09214e-05 -5.09341e-23
0.00164598 -8.09214e-05 -5.09341e-23
0.00190316 -7.0825e-05 -9.00874e-25
0.00190316 -7.0825e-05 -9.00874e-25
0.00213572 -6.04408e-05 5.055e-23
0.00213572 -6.04408e-05 5.055e-23
0.00234266 -4.99716e-05 0
0.00234266 -4.99716e-05 0
0.00252352 -3.95668e-05 0
0.00252352 -3.95668e-05 0
0.00267833 -2.95066e-05 0
0.00267833 -2.95066e-05 0
0.00280789 -2.01535e-05 9.44335e-23
0.00280789 -2.01535e-05 9.44335e-23
0.00291351 -1.14337e-05 9.49296e-23
0.00291351 -1.14337e-05 9.49296e-23
0.00299625 -3.10252e-06 -9.20542e-23
0.00299625 -3.10252e-06 -9.20542e-23
0.00305744 4.36126e-06 -1.66675e-24
0.00305744 4.36126e-06 -1.66675e-24
0.00309939 1.09592e-05 9.13604e-23
0.00309939 1.09592e-05 9.13604e-23
0.00312263 1.83102e-05 0
0.00312263 1.83102e-05 0
0.00312555 2.74242e-05 0
0.00312555 2.74242e-05 0
0.00310695 3.73857e-05 -8.62191e-23
0.00310695 3.73857e-05 -8.62191e-23
0.00306646 4.66439e-05 -1.71756e-22
0.00306646 4.66439e-05 -1.71756e-22
0.00300503 5.37991e-05 -8.5533e-23
0.00300503 5.37991e-05 -8.5533e-23
0.00292549 5.78316e-05 -8.27838e-23
0.00292549 5.78316e-05 -8.27838e-23
0.00283205 5.83999e-05 -1.64889e-22
0.00283205 5.83999e-05 -1.64889e-22
0.0027297 5.58899e-05 -1.58176e-24
0.0027297 5.58899e-05 -1.58176e-24
0.00262357 5.11076e-05 8.09669e-23
0.00262357 5.11076e-05 8.09669e-23
0.00251829 4.4953e-05 0
0.00251829 4.4953e-05 0
0.00241767 3.82715e-05 7.71537e-23
0.00241767 3.82715e-05 7.71537e-23
0.00232436 3.17499e-05 7.75882e-23
0.00232436 3.17499e-05 7.75882e-23
0.00223992 2.58585e-05 0
0.00223992 2.58585e-05 0
0.00216489 2.08403e-05 0
0.00216489 2.08403e-05 0
0.0020991 1.67393e-05 0
0.0020991 1.67393e-05 0
0.00204192 1.34638e-05 -7.16111e-23
0.00204192 1.34638e-05 -7.16111e-23
0.0019925 1.08641e-05 -1.42535e-22
0.0019925 1.08641e-05 -1.42535e-22
0.00194994 8.79585e-06 -7.09196e-23
0.00194994 8.79585e-06 -7.09196e-23
0.00191335 7.15109e-06 -6.83259e-23
0.00191335 7.15109e-06 -6.83259e-23
0.00188193 5.86165e-06 -6.87235e-23
0.00188193 5.86165e-06 -6.87235e-23
0.00185495 4.88632e-06 0
0.00185495 4.88632e-06 0
0.00183173 4.194e-06 -6.50733e-23
0.00183173 4.194e-06 -6.50733e-23
0.00181169 3.74939e-06 -6.54563e-23
0.00181169 3.74939e-06 -6.54563e-23
0.00179431 3.50768e-06 -6.2923e-23
0.00179431 3.50768e-06 -6.2923e-23
0.0017791 3.41663e-06 -6.32962e-23
0.0017791 3.41663e-06 -6.32962e-23
0.00176566 3.42806e-06 0
0.00176566 3.42806e-06 0
0.00175362 3.50274e-06 -5.97248e-23
0.00175362 3.50274e-06 -5.97248e-23