/*--------------------------------*- C++ -*----------------------------------*\
  =========                 |
  \\      /  F ield         | OpenFOAM: The Open Source CFD Toolbox
   \\    /   O peration     | Website:  https://openfoam.org
    \\  /    A nd           | Version:  7
     \\/     M anipulation  |
\*---------------------------------------------------------------------------*/
FoamFile
{
    version     2.0;
    format      ascii;
    class       surfaceScalarField;
    location    "0.29";
    object      phi;
}
// * * * * * * * * * * * * * * * * * * * * * * * * * * * * * * * * * * * * * //

dimensions      [0 3 -1 0 0 0 0];

internalField   nonuniform List<scalar> 
24170
(
1.42871e-06
1.65495e-07
1.33476e-06
9.39436e-08
1.25537e-06
7.93964e-08
1.18987e-06
6.54962e-08
1.13935e-06
5.05267e-08
1.1e-06
3.93475e-08
1.06891e-06
3.10917e-08
1.04403e-06
2.48768e-08
1.0238e-06
2.02277e-08
1.007e-06
1.68039e-08
9.92742e-07
1.42556e-08
9.80448e-07
1.22939e-08
9.69721e-07
1.07279e-08
9.6027e-07
9.45063e-09
9.51906e-07
8.36415e-09
9.44355e-07
7.55112e-09
9.3764e-07
6.71469e-09
7.06858e-09
9.30571e-07
1.67172e-06
2.02402e-07
1.63059e-06
1.35075e-07
1.5883e-06
1.21686e-07
1.55016e-06
1.03628e-07
1.51647e-06
8.42232e-08
1.48631e-06
6.95074e-08
1.45918e-06
5.8218e-08
1.43502e-06
4.90391e-08
1.41367e-06
4.15783e-08
1.39485e-06
3.56208e-08
1.37825e-06
3.08561e-08
1.36357e-06
2.698e-08
1.35053e-06
2.37661e-08
1.33891e-06
2.1073e-08
1.32852e-06
1.87525e-08
1.31918e-06
1.68924e-08
1.31088e-06
1.50105e-08
1.45378e-08
1.30341e-06
1.78132e-06
2.52337e-07
1.75687e-06
1.59529e-07
1.73623e-06
1.42329e-07
1.71737e-06
1.22484e-07
1.69925e-06
1.02346e-07
1.68165e-06
8.71039e-08
1.66467e-06
7.5196e-08
1.64859e-06
6.51237e-08
1.63359e-06
5.65813e-08
1.61973e-06
4.94744e-08
1.60702e-06
4.35686e-08
1.5954e-06
3.86015e-08
1.5848e-06
3.43695e-08
1.57513e-06
3.07363e-08
1.56632e-06
2.75672e-08
1.55834e-06
2.48692e-08
1.55103e-06
2.23252e-08
2.0486e-08
1.54508e-06
1.91834e-06
2.96688e-07
1.89273e-06
1.85141e-07
1.87642e-06
1.58643e-07
1.86341e-06
1.35486e-07
1.85161e-06
1.14154e-07
1.84051e-06
9.81984e-08
1.82995e-06
8.57581e-08
1.81989e-06
7.5186e-08
1.81035e-06
6.61148e-08
1.80138e-06
5.84469e-08
1.79298e-06
5.19646e-08
1.78516e-06
4.64232e-08
1.7779e-06
4.16326e-08
1.77118e-06
3.74601e-08
1.76496e-06
3.37848e-08
1.75928e-06
3.05524e-08
1.75402e-06
2.75808e-08
2.49386e-08
1.74957e-06
2.0682e-06
3.32047e-07
2.04092e-06
2.12426e-07
2.02436e-06
1.75201e-07
2.01238e-06
1.47464e-07
2.00255e-06
1.2399e-07
1.9941e-06
1.0665e-07
1.98658e-06
9.32766e-08
1.97971e-06
8.2055e-08
1.97335e-06
7.24683e-08
1.96746e-06
6.43406e-08
1.96199e-06
5.74303e-08
1.95693e-06
5.14881e-08
1.95224e-06
4.63222e-08
1.94791e-06
4.17936e-08
1.94391e-06
3.77838e-08
1.94026e-06
3.42041e-08
1.9369e-06
3.09381e-08
2.78935e-08
1.93394e-06
2.22664e-06
3.59949e-07
2.19981e-06
2.39253e-07
2.18266e-06
1.92356e-07
2.1704e-06
1.59719e-07
2.16085e-06
1.33541e-07
2.15321e-06
1.14295e-07
2.14689e-06
9.95907e-08
2.14149e-06
8.74636e-08
2.13674e-06
7.72163e-08
2.13252e-06
6.85602e-08
2.12874e-06
6.12052e-08
2.12535e-06
5.48808e-08
2.12229e-06
4.93812e-08
2.11953e-06
4.45539e-08
2.11704e-06
4.02743e-08
2.11481e-06
3.6435e-08
2.1128e-06
3.29441e-08
2.96756e-08
2.11102e-06
2.39441e-06
3.81898e-07
2.36954e-06
2.6412e-07
2.35227e-06
2.09633e-07
2.33954e-06
1.72448e-07
2.32968e-06
1.43396e-07
2.32205e-06
1.21932e-07
2.31604e-06
1.05598e-07
2.31118e-06
9.23259e-08
2.30715e-06
8.12465e-08
2.30376e-06
7.1947e-08
2.30089e-06
6.40755e-08
2.29844e-06
5.73292e-08
2.29634e-06
5.14796e-08
2.29454e-06
4.63555e-08
2.29299e-06
4.18208e-08
2.29167e-06
3.7756e-08
2.29054e-06
3.40737e-08
3.06531e-08
2.28957e-06
2.57276e-06
3.98927e-07
2.55055e-06
2.86334e-07
2.53371e-06
2.26471e-07
2.52075e-06
1.85411e-07
2.51053e-06
1.53612e-07
2.50263e-06
1.2983e-07
2.49654e-06
1.11688e-07
2.49177e-06
9.70951e-08
2.48798e-06
8.50347e-08
2.48495e-06
7.49768e-08
2.48253e-06
6.65051e-08
2.48058e-06
5.92785e-08
2.47901e-06
5.30405e-08
2.47777e-06
4.75982e-08
2.47679e-06
4.28e-08
2.47603e-06
3.85168e-08
2.47545e-06
3.46562e-08
3.1109e-08
2.47499e-06
2.76269e-06
4.1191e-07
2.74337e-06
3.0565e-07
2.72748e-06
2.42364e-07
2.71469e-06
1.98194e-07
2.70434e-06
1.63969e-07
2.69621e-06
1.37953e-07
2.68994e-06
1.17959e-07
2.68509e-06
1.01951e-07
2.68131e-06
8.88081e-08
2.67839e-06
7.79012e-08
2.67614e-06
6.87554e-08
2.67443e-06
6.09912e-08
2.67314e-06
5.43222e-08
2.67221e-06
4.85324e-08
2.67156e-06
4.34533e-08
2.67113e-06
3.89455e-08
2.67088e-06
3.49082e-08
3.12393e-08
2.67075e-06
2.96513e-06
4.21672e-07
2.94871e-06
3.22061e-07
2.93416e-06
2.56915e-07
2.92199e-06
2.10367e-07
2.91184e-06
1.74121e-07
2.9037e-06
1.46093e-07
2.89734e-06
1.2432e-07
2.8924e-06
1.0689e-07
2.88858e-06
9.26234e-08
2.88567e-06
8.08164e-08
2.88348e-06
7.09475e-08
2.88186e-06
6.26031e-08
2.88072e-06
5.54686e-08
2.87995e-06
4.93053e-08
2.87947e-06
4.39274e-08
2.87923e-06
3.9185e-08
2.87917e-06
3.49668e-08
3.11729e-08
2.87924e-06
3.18114e-06
4.28937e-07
3.1675e-06
3.35703e-07
3.15453e-06
2.69889e-07
3.14331e-06
2.21587e-07
3.13372e-06
1.83709e-07
3.12585e-06
1.53956e-07
3.11961e-06
1.30564e-07
3.11472e-06
1.1178e-07
3.11094e-06
9.64095e-08
3.10805e-06
8.36992e-08
3.10591e-06
7.30928e-08
3.10436e-06
6.41506e-08
3.10329e-06
5.65334e-08
3.10262e-06
4.99822e-08
3.10225e-06
4.42951e-08
3.10212e-06
3.93114e-08
3.10218e-06
3.49087e-08
3.09866e-08
3.10237e-06
2.86573e-06
4.3362e-07
2.85622e-06
3.45221e-07
2.84653e-06
2.79578e-07
2.83794e-06
2.30176e-07
2.8305e-06
1.91142e-07
2.82431e-06
1.60155e-07
2.81932e-06
1.35553e-07
2.81538e-06
1.15715e-07
2.81233e-06
9.9464e-08
2.81e-06
8.60219e-08
2.80829e-06
7.48105e-08
2.80706e-06
6.53724e-08
2.80624e-06
5.73523e-08
2.80575e-06
5.04761e-08
2.80552e-06
4.45301e-08
2.80548e-06
3.9344e-08
2.8056e-06
3.47891e-08
3.07523e-08
2.80584e-06
3.49499e-06
4.3771e-07
3.48606e-06
3.54148e-07
3.47656e-06
2.8908e-07
3.46792e-06
2.38813e-07
3.46034e-06
1.98725e-07
3.45395e-06
1.66547e-07
3.44876e-06
1.40736e-07
3.44466e-06
1.19815e-07
3.44148e-06
1.02644e-07
3.43908e-06
8.84264e-08
3.43732e-06
7.6567e-08
3.4361e-06
6.6594e-08
3.43532e-06
5.81371e-08
3.43489e-06
5.09079e-08
3.43473e-06
4.46804e-08
3.4348e-06
3.92747e-08
3.43504e-06
3.4553e-08
3.03951e-08
3.4354e-06
4.26204e-06
4.41095e-07
4.25417e-06
3.62015e-07
4.24539e-06
2.97857e-07
4.23725e-06
2.46957e-07
4.23004e-06
2.05931e-07
4.22394e-06
1.72653e-07
4.21899e-06
1.45683e-07
4.21511e-06
1.237e-07
4.21214e-06
1.05614e-07
4.20994e-06
9.06202e-08
4.2084e-06
7.81088e-08
4.2074e-06
6.75964e-08
4.20684e-06
5.86991e-08
4.20663e-06
5.11149e-08
4.2067e-06
4.46059e-08
4.207e-06
3.89822e-08
4.20745e-06
3.40962e-08
2.98224e-08
4.20803e-06
5.19701e-06
4.4369e-07
5.19069e-06
3.68341e-07
5.18331e-06
3.05241e-07
5.17636e-06
2.53898e-07
5.17026e-06
2.12038e-07
5.16514e-06
1.77774e-07
5.16107e-06
1.49752e-07
5.15799e-06
1.26781e-07
5.15576e-06
1.07838e-07
5.15426e-06
9.21184e-08
5.15337e-06
7.90014e-08
5.15298e-06
6.79918e-08
5.15298e-06
5.86935e-08
5.15331e-06
5.07914e-08
5.15388e-06
4.40357e-08
5.15463e-06
3.82265e-08
5.15552e-06
3.32059e-08
2.88442e-08
5.1565e-06
6.33668e-06
4.45407e-07
6.3324e-06
3.72622e-07
6.32728e-06
3.10361e-07
6.32252e-06
2.58652e-07
6.31852e-06
2.16038e-07
6.31538e-06
1.80919e-07
6.31313e-06
1.52005e-07
6.31171e-06
1.28193e-07
6.31103e-06
1.08521e-07
6.31095e-06
9.21975e-08
6.31137e-06
7.85879e-08
6.31217e-06
6.71855e-08
6.31328e-06
5.75824e-08
6.31462e-06
4.94515e-08
6.31613e-06
4.25309e-08
6.31774e-06
3.66108e-08
6.31943e-06
3.15235e-08
2.71351e-08
6.32113e-06
7.72591e-06
4.46085e-07
7.72435e-06
3.74183e-07
7.7227e-06
3.12014e-07
7.72158e-06
2.59765e-07
7.72119e-06
2.16428e-07
7.72151e-06
1.80602e-07
7.72249e-06
1.51025e-07
7.72406e-06
1.26626e-07
7.72611e-06
1.06473e-07
7.72852e-06
8.97781e-08
7.73122e-06
7.58943e-08
7.7341e-06
6.43e-08
7.73711e-06
5.4575e-08
7.74018e-06
4.63807e-08
7.74327e-06
3.94449e-08
7.74633e-06
3.35485e-08
7.74934e-06
2.85154e-08
2.42083e-08
7.75227e-06
9.41956e-06
4.45343e-07
9.42195e-06
3.71798e-07
9.42572e-06
3.08238e-07
9.43061e-06
2.5488e-07
9.43628e-06
2.10761e-07
9.44245e-06
1.74431e-07
9.44893e-06
1.44545e-07
9.45557e-06
1.19986e-07
9.46224e-06
9.97973e-08
9.46886e-06
8.3161e-08
9.47535e-06
6.94033e-08
9.48167e-06
5.79828e-08
9.48778e-06
4.84655e-08
9.49366e-06
4.05026e-08
9.49929e-06
3.38137e-08
9.50466e-06
2.81734e-08
9.50978e-06
2.34009e-08
1.93583e-08
9.51463e-06
1.1485e-05
4.42016e-07
1.14942e-05
3.62603e-07
1.15074e-05
2.95073e-07
1.15226e-05
2.39618e-07
1.15387e-05
1.94682e-07
1.15549e-05
1.58257e-07
1.15707e-05
1.28708e-07
1.15859e-05
1.04768e-07
1.16004e-05
8.53558e-08
1.1614e-05
6.95572e-08
1.16267e-05
5.66432e-08
1.16387e-05
4.60449e-08
1.16498e-05
3.73139e-08
1.16602e-05
3.00935e-08
1.16699e-05
2.41002e-08
1.1679e-05
1.91086e-08
1.16875e-05
1.49391e-08
1.1458e-08
1.16954e-05
8.41017e-06
4.37196e-07
8.4229e-06
3.49879e-07
8.44027e-06
2.77697e-07
8.45939e-06
2.20497e-07
8.47868e-06
1.75394e-07
8.49743e-06
1.39506e-07
8.51523e-06
1.10908e-07
8.53183e-06
8.81667e-08
8.54716e-06
7.00298e-08
8.56124e-06
5.5472e-08
8.57417e-06
4.37215e-08
8.58601e-06
3.41971e-08
8.59688e-06
2.64466e-08
8.60686e-06
2.01147e-08
8.61604e-06
1.49237e-08
8.62449e-06
1.06563e-08
8.63229e-06
7.14089e-09
4.25123e-09
8.63949e-06
7.32399e-06
4.30486e-07
7.34145e-06
3.32427e-07
7.36412e-06
2.55021e-07
7.38787e-06
1.96748e-07
7.41104e-06
1.52226e-07
7.43304e-06
1.17501e-07
7.45348e-06
9.04749e-08
7.47213e-06
6.95114e-08
7.48904e-06
5.31225e-08
7.50434e-06
4.01748e-08
7.51818e-06
2.98814e-08
7.53071e-06
2.16663e-08
7.54207e-06
1.50832e-08
7.5524e-06
9.78701e-09
7.56181e-06
5.51439e-09
7.5704e-06
2.06264e-09
7.57827e-06
-7.26847e-10
-2.96952e-09
7.58549e-06
6.37934e-06
4.21211e-07
6.40241e-06
3.09363e-07
6.43033e-06
2.271e-07
6.45791e-06
1.69166e-07
6.48399e-06
1.26144e-07
6.50825e-06
9.32435e-08
6.53028e-06
6.84396e-08
6.54999e-06
4.98017e-08
6.56756e-06
3.55541e-08
6.58324e-06
2.45005e-08
6.59724e-06
1.58806e-08
6.60976e-06
9.13951e-09
6.621e-06
3.84645e-09
6.63111e-06
-3.22994e-10
6.64023e-06
-3.60994e-09
6.64849e-06
-6.19658e-09
6.65599e-06
-8.22431e-09
-9.79531e-09
6.66282e-06
5.55841e-06
4.08267e-07
5.58815e-06
2.79617e-07
5.62105e-06
1.94202e-07
5.6516e-06
1.38622e-07
5.67968e-06
9.80604e-08
5.7052e-06
6.77224e-08
5.72779e-06
4.58491e-08
5.74755e-06
3.00415e-08
5.76486e-06
1.82487e-08
5.78006e-06
9.29936e-09
5.79344e-06
2.50007e-09
5.80525e-06
-2.66993e-09
5.81571e-06
-6.61335e-09
5.82501e-06
-9.62235e-09
5.83331e-06
-1.19074e-08
5.84073e-06
-1.36258e-08
5.84741e-06
-1.48977e-08
-1.581e-08
5.85342e-06
4.84593e-06
3.89941e-07
4.88334e-06
2.42213e-07
4.9203e-06
1.57238e-07
4.95262e-06
1.06305e-07
4.98161e-06
6.90729e-08
5.00719e-06
4.214e-08
5.02913e-06
2.39092e-08
5.04785e-06
1.13228e-08
5.06392e-06
2.17376e-09
5.07779e-06
-4.57182e-09
5.0898e-06
-9.50546e-09
5.10023e-06
-1.30989e-08
5.10933e-06
-1.57121e-08
5.1173e-06
-1.75939e-08
5.12431e-06
-1.89181e-08
5.1305e-06
-1.98137e-08
5.13598e-06
-2.03775e-08
-2.06799e-08
5.14085e-06
4.22832e-06
3.64293e-07
4.27411e-06
1.96429e-07
4.3134e-06
1.17942e-07
4.34584e-06
7.38724e-08
4.3743e-06
4.06102e-08
4.39858e-06
1.78575e-08
4.41869e-06
3.798e-09
4.43541e-06
-5.39447e-09
4.44946e-06
-1.18753e-08
4.46133e-06
-1.64443e-08
4.4714e-06
-1.95705e-08
4.47996e-06
-2.16629e-08
4.48728e-06
-2.30264e-08
4.49354e-06
-2.38608e-08
4.49893e-06
-2.43018e-08
4.50356e-06
-2.44499e-08
4.50756e-06
-2.4378e-08
-2.41426e-08
4.51103e-06
3.69254e-06
3.30392e-07
3.74698e-06
1.41996e-07
3.78675e-06
7.81662e-08
3.81772e-06
4.29025e-08
3.84418e-06
1.41572e-08
3.8659e-06
-3.86761e-09
3.88325e-06
-1.35545e-08
3.89727e-06
-1.94149e-08
3.90872e-06
-2.33227e-08
3.91809e-06
-2.5812e-08
3.92575e-06
-2.72339e-08
3.93202e-06
-2.7929e-08
3.93713e-06
-2.81423e-08
3.9413e-06
-2.80243e-08
3.94467e-06
-2.76734e-08
3.94738e-06
-2.71628e-08
3.94955e-06
-2.65415e-08
-2.58529e-08
3.95126e-06
3.22816e-06
2.87261e-07
3.28932e-06
8.08417e-08
3.32809e-06
3.93988e-08
3.35682e-06
1.417e-08
3.3801e-06
-9.12549e-09
3.39817e-06
-2.19408e-08
3.4119e-06
-2.7283e-08
3.42245e-06
-2.99579e-08
3.43052e-06
-3.13984e-08
3.43661e-06
-3.18984e-08
3.44109e-06
-3.17139e-08
3.44428e-06
-3.1118e-08
3.44643e-06
-3.02927e-08
3.44774e-06
-2.93373e-08
3.44838e-06
-2.8312e-08
3.44848e-06
-2.72621e-08
3.44815e-06
-2.62127e-08
-2.51988e-08
3.4475e-06
2.8341e-06
2.25889e-07
2.89269e-06
2.22504e-08
2.92688e-06
5.2154e-09
2.9523e-06
-1.12471e-08
2.9713e-06
-2.81315e-08
2.98439e-06
-3.50307e-08
2.99303e-06
-3.59263e-08
2.99834e-06
-3.52621e-08
3.00112e-06
-3.41825e-08
3.00198e-06
-3.27548e-08
3.00138e-06
-3.1111e-08
2.99968e-06
-2.94204e-08
2.99716e-06
-2.77783e-08
2.99405e-06
-2.62182e-08
2.99049e-06
-2.47523e-08
2.98662e-06
-2.33962e-08
2.98256e-06
-2.215e-08
-2.10286e-08
2.97839e-06
2.52607e-06
1.13625e-07
2.5595e-06
-1.11795e-08
2.57814e-06
-1.34297e-08
2.59238e-06
-2.54862e-08
2.60109e-06
-3.68402e-08
2.60364e-06
-3.7575e-08
2.60136e-06
-3.36485e-08
2.59575e-06
-2.96544e-08
2.588e-06
-2.64334e-08
2.57899e-06
-2.37478e-08
2.56932e-06
-2.14345e-08
2.55934e-06
-1.9446e-08
2.5493e-06
-1.77396e-08
2.53935e-06
-1.6265e-08
2.52958e-06
-1.49816e-08
2.52006e-06
-1.38793e-08
2.51088e-06
-1.29644e-08
-1.24952e-08
2.50234e-06
2.21496e-06
2.20378e-06
2.19035e-06
2.16487e-06
2.12803e-06
2.09045e-06
2.0568e-06
2.02715e-06
2.00072e-06
1.97697e-06
1.95553e-06
1.93609e-06
1.91835e-06
1.90208e-06
1.8871e-06
1.87322e-06
1.86026e-06
1.84776e-06
5.30169e-09
-5.30169e-09
1.2527e-08
-7.22536e-09
1.8299e-08
-5.77193e-09
2.16143e-08
-3.31534e-09
2.22202e-08
-6.05838e-10
2.0388e-08
1.83215e-09
1.65672e-08
3.82078e-09
1.12219e-08
5.34536e-09
4.73e-09
6.49186e-09
-2.65045e-09
7.38045e-09
-1.07705e-08
8.12009e-09
-1.95534e-08
8.7829e-09
-2.89624e-08
9.40896e-09
-3.8983e-08
1.00206e-08
-4.96099e-08
1.06269e-08
-6.08398e-08
1.12299e-08
-7.26677e-08
1.18278e-08
-8.50851e-08
1.24174e-08
-9.80803e-08
1.29953e-08
-1.11638e-07
1.35581e-08
-1.25741e-07
1.41031e-08
-1.40369e-07
1.4628e-08
-1.55501e-07
1.51313e-08
-1.71113e-07
1.56118e-08
-1.87181e-07
1.60689e-08
-2.03684e-07
1.65023e-08
-2.20596e-07
1.69122e-08
-2.37895e-07
1.7299e-08
-2.55558e-07
1.76633e-08
-2.73564e-07
1.80059e-08
-2.91892e-07
1.83276e-08
-3.10521e-07
1.86293e-08
-3.29433e-07
1.8912e-08
-3.4861e-07
1.91765e-08
-3.68033e-07
1.94236e-08
-3.87687e-07
1.96541e-08
-4.07556e-07
1.98686e-08
-4.27624e-07
2.00677e-08
-4.47876e-07
2.02519e-08
-4.68297e-07
2.04215e-08
-4.88874e-07
2.0577e-08
-5.09593e-07
2.07185e-08
-5.30439e-07
2.08462e-08
-5.51399e-07
2.096e-08
-5.72458e-07
2.10594e-08
-5.93602e-07
2.11438e-08
-6.14814e-07
2.12124e-08
-6.36078e-07
2.12641e-08
-6.57376e-07
2.12979e-08
-6.78689e-07
2.13128e-08
-6.99997e-07
2.1308e-08
-7.2128e-07
2.12829e-08
-7.42517e-07
2.1237e-08
-7.63686e-07
2.11694e-08
-7.84765e-07
2.10788e-08
-8.05729e-07
2.0964e-08
-8.26556e-07
2.08265e-08
-8.47233e-07
2.06775e-08
-8.67784e-07
2.05504e-08
-8.88287e-07
2.05037e-08
-9.08869e-07
2.05822e-08
-9.29579e-07
2.07097e-08
-9.50167e-07
2.05873e-08
-9.70063e-07
1.98961e-08
-9.88922e-07
1.88594e-08
-1.00743e-06
1.85068e-08
-1.02705e-06
1.96204e-08
-1.04727e-06
2.02166e-08
-1.06955e-06
2.22868e-08
-1.08556e-06
1.60036e-08
-1.09823e-06
1.26787e-08
-1.11656e-06
1.83228e-08
-1.13518e-06
1.86178e-08
-1.15221e-06
1.70319e-08
-1.17253e-06
2.03238e-08
-1.19051e-06
1.79788e-08
-1.20424e-06
1.37347e-08
-1.21763e-06
1.33822e-08
-1.23104e-06
1.34135e-08
-1.24438e-06
1.33441e-08
-1.25636e-06
1.19795e-08
-1.27107e-06
1.47016e-08
-1.28135e-06
1.02832e-08
-1.28758e-06
6.23439e-09
-1.29485e-06
7.26482e-09
-1.30191e-06
7.06459e-09
-1.30847e-06
6.55746e-09
-1.31433e-06
5.85718e-09
-1.31938e-06
5.04989e-09
-1.32355e-06
4.16855e-09
-1.32677e-06
3.22433e-09
-1.32899e-06
2.22031e-09
-1.33015e-06
1.16369e-09
-1.33016e-06
5.71124e-12
-1.32924e-06
-9.16285e-10
-1.32745e-06
-1.79438e-09
-1.3248e-06
-2.65087e-09
-1.3213e-06
-3.49826e-09
-1.31695e-06
-4.34505e-09
-1.31176e-06
-5.19306e-09
-1.30572e-06
-6.04228e-09
-1.29883e-06
-6.89188e-09
-1.29109e-06
-7.74066e-09
-1.2825e-06
-8.58741e-09
-1.27307e-06
-9.43077e-09
-1.2628e-06
-1.02694e-08
-1.2517e-06
-1.11021e-08
-1.23977e-06
-1.19274e-08
-1.22703e-06
-1.27441e-08
-1.21347e-06
-1.35509e-08
-1.19913e-06
-1.43465e-08
-1.184e-06
-1.51297e-08
-1.1681e-06
-1.58993e-08
-1.15145e-06
-1.66543e-08
-1.13405e-06
-1.73933e-08
-1.11594e-06
-1.81156e-08
-1.09712e-06
-1.882e-08
-1.07761e-06
-1.95056e-08
-1.05744e-06
-2.01715e-08
-1.03662e-06
-2.08168e-08
-1.01518e-06
-2.14406e-08
-9.93139e-07
-2.20423e-08
-9.70518e-07
-2.26211e-08
-9.47342e-07
-2.31763e-08
-9.23634e-07
-2.37076e-08
-8.9942e-07
-2.42143e-08
-8.74724e-07
-2.46961e-08
-8.49572e-07
-2.51525e-08
-8.23988e-07
-2.55832e-08
-7.98e-07
-2.5988e-08
-7.71634e-07
-2.63667e-08
-7.44914e-07
-2.67192e-08
-7.17869e-07
-2.70456e-08
-6.90523e-07
-2.73459e-08
-6.62903e-07
-2.762e-08
-6.35035e-07
-2.78682e-08
-6.06944e-07
-2.80908e-08
-5.78656e-07
-2.82881e-08
-5.50196e-07
-2.84604e-08
-5.21587e-07
-2.8608e-08
-4.92856e-07
-2.87316e-08
-4.64024e-07
-2.88317e-08
-4.35115e-07
-2.89089e-08
-4.06152e-07
-2.89636e-08
-3.77155e-07
-2.89967e-08
-3.48146e-07
-2.90088e-08
-3.19145e-07
-2.90006e-08
-2.90173e-07
-2.89726e-08
-2.61247e-07
-2.89257e-08
-2.32387e-07
-2.88604e-08
-2.03608e-07
-2.87782e-08
-1.74927e-07
-2.86813e-08
-1.46354e-07
-2.85735e-08
-1.17889e-07
-2.84644e-08
-8.95048e-08
-2.83845e-08
-6.11157e-08
-2.83892e-08
-3.26917e-08
-2.8424e-08
-4.49873e-09
-2.81929e-08
2.31847e-08
-2.76834e-08
5.09815e-08
-2.77968e-08
7.84047e-08
-2.74232e-08
1.05224e-07
-2.68196e-08
1.31754e-07
-2.65293e-08
1.58038e-07
-2.62842e-08
1.83862e-07
-2.58243e-08
2.10459e-07
-2.65966e-08
2.36499e-07
-2.60408e-08
2.62353e-07
-2.58532e-08
2.88089e-07
-2.57369e-08
3.12521e-07
-2.44314e-08
3.37343e-07
-2.48223e-08
3.62205e-07
-2.4862e-08
3.8734e-07
-2.51345e-08
4.11635e-07
-2.42951e-08
4.35275e-07
-2.36402e-08
4.57915e-07
-2.26397e-08
4.79634e-07
-2.17195e-08
4.96437e-07
-1.68026e-08
5.04552e-07
-8.11542e-09
1.32538e-08
4.91298e-07
4.20615e-09
-9.50784e-09
6.34846e-09
-9.36767e-09
5.83233e-09
-5.2558e-09
3.32338e-09
-8.0639e-10
-7.00919e-10
3.41846e-09
-6.07024e-09
7.20147e-09
-1.27058e-08
1.04564e-08
-2.05357e-08
1.31753e-08
-2.94613e-08
1.54174e-08
-3.93616e-08
1.72807e-08
-5.01113e-08
1.88698e-08
-6.16022e-08
2.02738e-08
-7.37501e-08
2.15569e-08
-8.64907e-08
2.27612e-08
-9.97749e-08
2.39111e-08
-1.13564e-07
2.50192e-08
-1.27827e-07
2.60907e-08
-1.42536e-07
2.71265e-08
-1.57667e-07
2.81257e-08
-1.73195e-07
2.90866e-08
-1.89099e-07
3.00072e-08
-2.05358e-07
3.08863e-08
-2.21949e-07
3.1723e-08
-2.38854e-07
3.25169e-08
-2.56054e-07
3.32683e-08
-2.73529e-07
3.39777e-08
-2.91263e-07
3.46464e-08
-3.0924e-07
3.52756e-08
-3.27444e-07
3.5867e-08
-3.4586e-07
3.64221e-08
-3.64475e-07
3.69427e-08
-3.83276e-07
3.74306e-08
-4.02252e-07
3.78874e-08
-4.2139e-07
3.83144e-08
-4.40679e-07
3.87132e-08
-4.6011e-07
3.90847e-08
-4.79671e-07
3.94299e-08
-4.99353e-07
3.97497e-08
-5.19146e-07
4.00447e-08
-5.3904e-07
4.03152e-08
-5.59024e-07
4.05617e-08
-5.7909e-07
4.07843e-08
-5.99226e-07
4.09827e-08
-6.19423e-07
4.11566e-08
-6.39669e-07
4.13051e-08
-6.59952e-07
4.14274e-08
-6.80262e-07
4.1522e-08
-7.00586e-07
4.15877e-08
-7.20911e-07
4.16232e-08
-7.41226e-07
4.16279e-08
-7.6152e-07
4.16015e-08
-7.81781e-07
4.15446e-08
-8.02003e-07
4.14582e-08
-8.22177e-07
4.13435e-08
-8.423e-07
4.12021e-08
-8.62373e-07
4.10367e-08
-8.82399e-07
4.08533e-08
-9.02387e-07
4.06654e-08
-9.22333e-07
4.04956e-08
-9.42195e-07
4.03662e-08
-9.6188e-07
4.02672e-08
-9.81276e-07
4.01059e-08
-1.00038e-06
3.9696e-08
-1.0194e-06
3.89107e-08
-1.0385e-06
3.79611e-08
-1.05738e-06
3.7387e-08
-1.07511e-06
3.73534e-08
-1.09204e-06
3.7146e-08
-1.10639e-06
3.66369e-08
-1.12453e-06
3.41381e-08
-1.1438e-06
3.19457e-08
-1.1579e-06
3.24307e-08
-1.1714e-06
3.2119e-08
-1.18556e-06
3.11907e-08
-1.1962e-06
3.09579e-08
-1.20721e-06
2.89942e-08
-1.21967e-06
2.61899e-08
-1.23063e-06
2.43471e-08
-1.2402e-06
2.2985e-08
-1.24843e-06
2.15686e-08
-1.25628e-06
1.98314e-08
-1.26047e-06
1.88856e-08
-1.26655e-06
1.6367e-08
-1.27427e-06
1.39512e-08
-1.27973e-06
1.27294e-08
-1.28409e-06
1.14206e-08
-1.28753e-06
1.00021e-08
-1.29016e-06
8.48749e-09
-1.29201e-06
6.90216e-09
-1.29311e-06
5.26404e-09
-1.29347e-06
3.58612e-09
-1.29313e-06
1.88103e-09
-1.29216e-06
1.94506e-10
-1.29063e-06
-1.52287e-09
-1.28838e-06
-3.16767e-09
-1.28536e-06
-4.82109e-09
-1.28152e-06
-6.48428e-09
-1.27687e-06
-8.15444e-09
-1.27138e-06
-9.83132e-09
-1.26506e-06
-1.15134e-08
-1.2579e-06
-1.31988e-08
-1.24991e-06
-1.4885e-08
-1.24108e-06
-1.65698e-08
-1.23142e-06
-1.82503e-08
-1.22092e-06
-1.9924e-08
-1.20961e-06
-2.15883e-08
-1.19747e-06
-2.32405e-08
-1.18452e-06
-2.48781e-08
-1.17076e-06
-2.64984e-08
-1.15621e-06
-2.8099e-08
-1.14088e-06
-2.96773e-08
-1.12478e-06
-3.12309e-08
-1.10792e-06
-3.27574e-08
-1.09032e-06
-3.42546e-08
-1.072e-06
-3.57202e-08
-1.05296e-06
-3.71523e-08
-1.03323e-06
-3.85488e-08
-1.01283e-06
-3.99078e-08
-9.91773e-07
-4.12276e-08
-9.70084e-07
-4.25063e-08
-9.47782e-07
-4.37424e-08
-9.2489e-07
-4.49343e-08
-9.0143e-07
-4.60805e-08
-8.77427e-07
-4.71799e-08
-8.52903e-07
-4.82314e-08
-8.27883e-07
-4.9234e-08
-8.02392e-07
-5.01869e-08
-7.76456e-07
-5.10892e-08
-7.50099e-07
-5.19404e-08
-7.23347e-07
-5.27398e-08
-6.96226e-07
-5.34871e-08
-6.68763e-07
-5.41823e-08
-6.40983e-07
-5.48254e-08
-6.12913e-07
-5.54163e-08
-5.84578e-07
-5.59551e-08
-5.56004e-07
-5.64422e-08
-5.27217e-07
-5.68782e-08
-4.98241e-07
-5.72637e-08
-4.69102e-07
-5.75993e-08
-4.39824e-07
-5.78858e-08
-4.10432e-07
-5.81243e-08
-3.80947e-07
-5.83159e-08
-3.51395e-07
-5.84617e-08
-3.21795e-07
-5.85629e-08
-2.92171e-07
-5.86209e-08
-2.62543e-07
-5.86371e-08
-2.32931e-07
-5.86127e-08
-2.03354e-07
-5.85493e-08
-1.73831e-07
-5.84483e-08
-1.4438e-07
-5.83112e-08
-1.15018e-07
-5.81405e-08
-8.57603e-08
-5.79392e-08
-5.66205e-08
-5.77133e-08
-2.76117e-08
-5.74732e-08
1.24444e-09
-5.72407e-08
2.99074e-08
-5.70521e-08
5.83553e-08
-5.68719e-08
8.65948e-08
-5.64324e-08
1.1467e-07
-5.57587e-08
1.42252e-07
-5.53785e-08
1.6947e-07
-5.46416e-08
1.96592e-07
-5.39419e-08
2.23989e-07
-5.39261e-08
2.51171e-07
-5.34657e-08
2.78157e-07
-5.28109e-08
3.04401e-07
-5.28402e-08
3.30423e-07
-5.20631e-08
3.56433e-07
-5.18625e-08
3.82677e-07
-5.1981e-08
4.08573e-07
-5.03279e-08
4.34281e-07
-5.05305e-08
4.5987e-07
-5.04504e-08
4.84737e-07
-5.00013e-08
5.08926e-07
-4.84842e-08
5.32488e-07
-4.72026e-08
5.55684e-07
-4.58361e-08
5.77123e-07
-4.31577e-08
5.96515e-07
-3.61952e-08
6.11568e-07
-2.31678e-08
2.78539e-09
6.22036e-07
1.1032e-10
-9.61816e-09
-3.08296e-09
-6.17439e-09
-8.08102e-09
-2.57737e-10
-1.40894e-08
5.20196e-09
-2.09085e-08
1.02376e-08
-2.84764e-08
1.47693e-08
-3.68007e-08
1.87807e-08
-4.59033e-08
2.22779e-08
-5.57865e-08
2.53006e-08
-6.64215e-08
2.79157e-08
-7.77541e-08
3.02024e-08
-8.97171e-08
3.22367e-08
-1.02243e-07
3.40826e-08
-1.1527e-07
3.5788e-08
-1.28745e-07
3.73861e-08
-1.42623e-07
3.88981e-08
-1.5687e-07
4.03369e-08
-1.71452e-07
4.17094e-08
-1.86346e-07
4.30195e-08
-2.01529e-07
4.4269e-08
-2.16981e-07
4.5459e-08
-2.32684e-07
4.65903e-08
-2.48625e-07
4.76638e-08
-2.64789e-07
4.86807e-08
-2.81163e-07
4.96424e-08
-2.97736e-07
5.05507e-08
-3.14497e-07
5.14076e-08
-3.31437e-07
5.22151e-08
-3.48546e-07
5.29756e-08
-3.65815e-07
5.36911e-08
-3.83236e-07
5.4364e-08
-4.00802e-07
5.49963e-08
-4.18504e-07
5.55899e-08
-4.36336e-07
5.61463e-08
-4.5429e-07
5.66672e-08
-4.72359e-07
5.71535e-08
-4.90535e-07
5.76062e-08
-5.08812e-07
5.80261e-08
-5.2718e-07
5.84135e-08
-5.45634e-07
5.87686e-08
-5.64163e-07
5.90914e-08
-5.82761e-07
5.93816e-08
-6.01417e-07
5.96387e-08
-6.20122e-07
5.98618e-08
-6.38866e-07
6.00496e-08
-6.5764e-07
6.02007e-08
-6.76431e-07
6.03135e-08
-6.9523e-07
6.03864e-08
-7.14025e-07
6.0418e-08
-7.32805e-07
6.04077e-08
-7.51558e-07
6.03552e-08
-7.70274e-07
6.02608e-08
-7.88942e-07
6.01256e-08
-8.07549e-07
5.99507e-08
-8.26085e-07
5.97376e-08
-8.44536e-07
5.94884e-08
-8.6289e-07
5.92069e-08
-8.81124e-07
5.88994e-08
-8.99201e-07
5.85723e-08
-9.17057e-07
5.82227e-08
-9.34612e-07
5.78224e-08
-9.5181e-07
5.73038e-08
-9.68692e-07
5.65785e-08
-9.85397e-07
5.56151e-08
-1.00197e-06
5.45305e-08
-1.0181e-06
5.35227e-08
-1.03336e-06
5.26134e-08
-1.04781e-06
5.15896e-08
-1.06136e-06
5.01959e-08
-1.07557e-06
4.83451e-08
-1.09012e-06
4.64936e-08
-1.10285e-06
4.51567e-08
-1.11454e-06
4.38114e-08
-1.12564e-06
4.22898e-08
-1.13531e-06
4.06315e-08
-1.14472e-06
3.84056e-08
-1.15439e-06
3.58618e-08
-1.16351e-06
3.34652e-08
-1.17175e-06
3.12253e-08
-1.17918e-06
2.89967e-08
-1.18604e-06
2.66898e-08
-1.19161e-06
2.44615e-08
-1.19723e-06
2.19826e-08
-1.20282e-06
1.95441e-08
-1.20744e-06
1.73466e-08
-1.21119e-06
1.51696e-08
-1.21415e-06
1.29618e-08
-1.21637e-06
1.07056e-08
-1.21787e-06
8.40231e-09
-1.21866e-06
6.05899e-09
-1.21876e-06
3.6846e-09
-1.21817e-06
1.29074e-09
-1.21687e-06
-1.10787e-09
-1.21487e-06
-3.51635e-09
-1.21211e-06
-5.92832e-09
-1.20858e-06
-8.35925e-09
-1.20425e-06
-1.08091e-08
-1.19913e-06
-1.32753e-08
-1.19321e-06
-1.57544e-08
-1.18648e-06
-1.82428e-08
-1.17894e-06
-2.07369e-08
-1.17059e-06
-2.32326e-08
-1.16144e-06
-2.57263e-08
-1.15147e-06
-2.82138e-08
-1.1407e-06
-3.06914e-08
-1.12914e-06
-3.3155e-08
-1.11678e-06
-3.56008e-08
-1.10363e-06
-3.8025e-08
-1.08971e-06
-4.04237e-08
-1.07501e-06
-4.27932e-08
-1.05956e-06
-4.51298e-08
-1.04336e-06
-4.74299e-08
-1.02643e-06
-4.96898e-08
-1.00878e-06
-5.19064e-08
-9.90419e-07
-5.40763e-08
-9.71375e-07
-5.61964e-08
-9.5166e-07
-5.82638e-08
-9.31292e-07
-6.02757e-08
-9.1029e-07
-6.22294e-08
-8.88674e-07
-6.41223e-08
-8.66465e-07
-6.59519e-08
-8.43683e-07
-6.7716e-08
-8.20351e-07
-6.94124e-08
-7.96492e-07
-7.10392e-08
-7.72128e-07
-7.25949e-08
-7.47284e-07
-7.40781e-08
-7.21984e-07
-7.54874e-08
-6.96251e-07
-7.68217e-08
-6.70112e-07
-7.80799e-08
-6.4359e-07
-7.92613e-08
-6.16712e-07
-8.03654e-08
-5.89502e-07
-8.1392e-08
-5.61987e-07
-8.23411e-08
-5.3419e-07
-8.32127e-08
-5.06138e-07
-8.4007e-08
-4.77856e-07
-8.47243e-08
-4.49369e-07
-8.53657e-08
-4.207e-07
-8.5932e-08
-3.91875e-07
-8.64242e-08
-3.62918e-07
-8.68434e-08
-3.33851e-07
-8.71912e-08
-3.04698e-07
-8.74693e-08
-2.7548e-07
-8.76793e-08
-2.4622e-07
-8.7823e-08
-2.16939e-07
-8.79025e-08
-1.87656e-07
-8.79199e-08
-1.58391e-07
-8.78772e-08
-1.29164e-07
-8.77768e-08
-9.99913e-08
-8.76208e-08
-7.0891e-08
-8.74116e-08
-4.18789e-08
-8.71526e-08
-1.297e-08
-8.68481e-08
1.58205e-08
-8.65038e-08
4.44765e-08
-8.61291e-08
7.29772e-08
-8.57414e-08
1.01292e-07
-8.53667e-08
1.29405e-07
-8.49856e-08
1.57371e-07
-8.43977e-08
1.85193e-07
-8.35814e-08
2.12692e-07
-8.2877e-08
2.40031e-07
-8.1981e-08
2.67272e-07
-8.11827e-08
2.94287e-07
-8.09413e-08
3.21199e-07
-8.03769e-08
3.48001e-07
-7.9613e-08
3.74321e-07
-7.91609e-08
4.00669e-07
-7.84109e-08
4.26761e-07
-7.7954e-08
4.52503e-07
-7.77229e-08
4.78541e-07
-7.63663e-08
5.04086e-07
-7.60754e-08
5.29317e-07
-7.56816e-08
5.54128e-07
-7.4812e-08
5.78792e-07
-7.31486e-08
6.02871e-07
-7.12816e-08
6.26112e-07
-6.90773e-08
6.4801e-07
-6.50556e-08
6.68686e-07
-5.68706e-08
6.87672e-07
-4.21542e-08
-1.5765e-08
7.06222e-07
-3.80389e-09
-5.81427e-09
-1.07637e-08
7.85385e-10
-1.85566e-08
7.53523e-09
-2.68548e-08
1.35001e-08
-3.55136e-08
1.88964e-08
-4.45395e-08
2.37952e-08
-5.39754e-08
2.82166e-08
-6.3872e-08
3.21745e-08
-7.42668e-08
3.56954e-08
-8.51738e-08
3.88227e-08
-9.65825e-08
4.16111e-08
-1.08464e-07
4.41183e-08
-1.20779e-07
4.63978e-08
-1.33486e-07
4.84945e-08
-1.46543e-07
5.0443e-08
-1.59913e-07
5.22687e-08
-1.73566e-07
5.39895e-08
-1.87474e-07
5.56174e-08
-2.01615e-07
5.71605e-08
-2.1597e-07
5.86246e-08
-2.30525e-07
6.00137e-08
-2.45266e-07
6.13312e-08
-2.60182e-07
6.25799e-08
-2.75264e-07
6.37627e-08
-2.90504e-07
6.48823e-08
-3.05895e-07
6.59413e-08
-3.2143e-07
6.69426e-08
-3.37103e-07
6.78888e-08
-3.5291e-07
6.87825e-08
-3.68845e-07
6.96263e-08
-3.84904e-07
7.04225e-08
-4.01081e-07
7.11732e-08
-4.17371e-07
7.18803e-08
-4.3377e-07
7.25454e-08
-4.50273e-07
7.31696e-08
-4.66873e-07
7.3754e-08
-4.83566e-07
7.42991e-08
-5.00345e-07
7.48054e-08
-5.17205e-07
7.52728e-08
-5.34137e-07
7.57011e-08
-5.51136e-07
7.60897e-08
-5.68192e-07
7.64378e-08
-5.85297e-07
7.67442e-08
-6.02443e-07
7.70076e-08
-6.19619e-07
7.7226e-08
-6.36816e-07
7.73976e-08
-6.54023e-07
7.75202e-08
-6.71229e-07
7.75918e-08
-6.88421e-07
7.76105e-08
-7.05588e-07
7.7575e-08
-7.22717e-07
7.74841e-08
-7.39794e-07
7.73375e-08
-7.56803e-07
7.71348e-08
-7.73728e-07
7.68756e-08
-7.9055e-07
7.65598e-08
-8.07249e-07
7.61868e-08
-8.23798e-07
7.57564e-08
-8.40167e-07
7.52682e-08
-8.56314e-07
7.47192e-08
-8.7219e-07
7.40989e-08
-8.87751e-07
7.33828e-08
-9.02977e-07
7.25302e-08
-9.17896e-07
7.14977e-08
-9.32556e-07
7.0275e-08
-9.46941e-07
6.89149e-08
-9.60913e-07
6.74955e-08
-9.74317e-07
6.60171e-08
-9.87125e-07
6.43976e-08
-9.99493e-07
6.25641e-08
-1.01165e-06
6.0503e-08
-1.02354e-06
5.8378e-08
-1.03472e-06
5.63396e-08
-1.04516e-06
5.42538e-08
-1.05492e-06
5.20453e-08
-1.06396e-06
4.96751e-08
-1.0726e-06
4.70416e-08
-1.08095e-06
4.42154e-08
-1.08886e-06
4.13765e-08
-1.09619e-06
3.85583e-08
-1.10292e-06
3.57183e-08
-1.10909e-06
3.28625e-08
-1.11462e-06
2.99906e-08
-1.11967e-06
2.70394e-08
-1.12423e-06
2.40998e-08
-1.1281e-06
2.12166e-08
-1.13126e-06
1.83326e-08
-1.13372e-06
1.54227e-08
-1.13549e-06
1.24741e-08
-1.13657e-06
9.48396e-09
-1.13697e-06
6.45481e-09
-1.13668e-06
3.39187e-09
-1.13569e-06
3.01406e-10
-1.13398e-06
-2.81096e-09
-1.13156e-06
-5.94495e-09
-1.12838e-06
-9.10293e-09
-1.12445e-06
-1.22893e-08
-1.11976e-06
-1.55019e-08
-1.1143e-06
-1.87371e-08
-1.10806e-06
-2.19901e-08
-1.10105e-06
-2.5256e-08
-1.09326e-06
-2.85296e-08
-1.08468e-06
-3.18058e-08
-1.07533e-06
-3.50793e-08
-1.0652e-06
-3.83449e-08
-1.05429e-06
-4.15975e-08
-1.04261e-06
-4.48318e-08
-1.03017e-06
-4.80429e-08
-1.01697e-06
-5.12256e-08
-1.00302e-06
-5.43749e-08
-9.88328e-07
-5.74861e-08
-9.72904e-07
-6.0554e-08
-9.5676e-07
-6.35741e-08
-9.39908e-07
-6.65416e-08
-9.22362e-07
-6.94521e-08
-9.04137e-07
-7.23012e-08
-8.85249e-07
-7.50851e-08
-8.65713e-07
-7.77996e-08
-8.45547e-07
-8.04412e-08
-8.24771e-07
-8.30062e-08
-8.03401e-07
-8.54915e-08
-7.8146e-07
-8.78935e-08
-7.58966e-07