/*--------------------------------*- C++ -*----------------------------------*\
  =========                 |
  \\      /  F ield         | OpenFOAM: The Open Source CFD Toolbox
   \\    /   O peration     | Website:  https://openfoam.org
    \\  /    A nd           | Version:  7
     \\/     M anipulation  |
\*---------------------------------------------------------------------------*/
FoamFile
{
    version     2.0;
    format      ascii;
    class       volScalarField;
    location    "0.015";
    object      k;
}
// * * * * * * * * * * * * * * * * * * * * * * * * * * * * * * * * * * * * * //

dimensions      [0 2 -2 0 0 0 0];

internalField   nonuniform List<scalar> 
12225
(
1.92703e-05
1.82221e-05
1.6549e-05
1.5424e-05
1.44285e-05
1.22709e-05
1.16004e-05
1.31391e-05
1.47361e-05
1.32653e-05
9.15308e-06
7.28701e-06
6.50994e-06
6.07048e-06
5.8284e-06
5.62026e-06
5.60015e-06
1.6924e-05
1.99812e-05
1.98921e-05
1.96645e-05
1.93841e-05
1.91898e-05
1.87416e-05
1.81554e-05
1.81668e-05
1.87953e-05
2.00041e-05
2.0124e-05
1.9787e-05
1.82341e-05
1.68193e-05
1.59093e-05
1.56029e-05
1.51123e-05
1.52705e-05
2.00013e-05
1.93125e-05
1.89992e-05
1.8881e-05
1.88441e-05
1.87419e-05
1.86384e-05
1.86399e-05
1.87867e-05
1.93751e-05
1.9636e-05
1.96051e-05
1.93313e-05
1.86403e-05
1.81173e-05
1.78131e-05
1.76812e-05
1.75795e-05
2.01583e-05
2.01385e-05
1.9823e-05
1.89629e-05
1.7039e-05
1.64533e-05
1.64801e-05
1.67298e-05
1.69159e-05
1.69155e-05
1.67833e-05
1.64589e-05
1.61307e-05
1.58414e-05
1.566e-05
1.5591e-05
1.55934e-05
1.56722e-05
2.04966e-05
2.42787e-05
2.65562e-05
2.52315e-05
2.23636e-05
2.11385e-05
2.06712e-05
2.02157e-05
1.92173e-05
1.68041e-05
1.55845e-05
1.51796e-05
1.48208e-05
1.46691e-05
1.46677e-05
1.47091e-05
1.47657e-05
1.4753e-05
2.04125e-05
2.39521e-05
2.45873e-05
2.32797e-05
2.2288e-05
2.24922e-05
2.36069e-05
2.43115e-05
2.43801e-05
2.40669e-05
2.30256e-05
2.19267e-05
2.11355e-05
2.06688e-05
2.04629e-05
2.0393e-05
2.0348e-05
2.01783e-05
2.0293e-05
2.23315e-05
2.27539e-05
2.20614e-05
2.16686e-05
2.2055e-05
2.43865e-05
2.76369e-05
2.86873e-05
2.85063e-05
2.69093e-05
2.50869e-05
2.451e-05
2.44701e-05
2.46364e-05
2.50145e-05
2.51478e-05
2.5146e-05
2.10366e-05
2.24024e-05
2.17496e-05
2.09582e-05
2.09389e-05
2.13575e-05
2.35852e-05
2.64542e-05
2.74604e-05
2.73676e-05
2.60199e-05
2.46117e-05
2.4269e-05
2.42897e-05
2.4566e-05
2.49963e-05
2.51264e-05
2.51565e-05
2.06933e-05
2.13847e-05
2.10632e-05
2.06346e-05
2.06838e-05
2.13707e-05
2.42766e-05
2.66182e-05
2.67619e-05
2.53774e-05
2.31591e-05
2.24568e-05
2.23485e-05
2.24494e-05
2.2871e-05
2.31043e-05
2.31297e-05
2.31211e-05
2.05339e-05
2.13245e-05
2.1336e-05
2.07477e-05
2.06805e-05
2.13638e-05
2.23388e-05
2.24447e-05
2.21446e-05
2.14468e-05
2.12261e-05
2.12264e-05
2.13569e-05
2.19383e-05
2.26382e-05
2.29768e-05
2.30433e-05
2.30094e-05
2.04065e-05
2.06198e-05
2.03883e-05
2.02858e-05
2.0554e-05
2.18537e-05
2.28056e-05
2.28929e-05
2.2618e-05
2.19151e-05
2.15508e-05
2.14538e-05
2.14661e-05
2.16419e-05
2.2226e-05
2.26244e-05
2.26902e-05
2.26241e-05
2.04538e-05
2.03289e-05
2.03137e-05
2.04552e-05
2.06292e-05
2.10992e-05
2.17615e-05
2.20292e-05
2.20474e-05
2.20004e-05
2.18746e-05
2.15413e-05
2.10197e-05
2.0697e-05
2.07222e-05
2.10536e-05
2.13052e-05
2.13573e-05
2.04105e-05
2.07839e-05
2.07897e-05
2.07744e-05
2.07268e-05
2.06155e-05
2.06158e-05
2.07141e-05
2.10243e-05
2.12915e-05
2.14883e-05
2.16255e-05
2.17519e-05
2.18871e-05
2.19774e-05
2.20271e-05
2.20786e-05
2.21519e-05
2.01978e-05
2.0684e-05
2.11098e-05
2.1401e-05
2.15273e-05
2.16973e-05
2.17798e-05
2.1775e-05
2.1629e-05
2.1232e-05
2.10925e-05
2.10879e-05
2.1128e-05
2.13479e-05
2.16232e-05
2.16751e-05
2.16574e-05
2.16874e-05
2.04093e-05
2.24323e-05
2.32386e-05
2.28004e-05
2.21601e-05
2.19637e-05
2.16965e-05
2.11719e-05
2.08937e-05
2.08194e-05
2.08388e-05
2.09827e-05
2.11811e-05
2.13026e-05
2.13792e-05
2.14004e-05
2.13445e-05
2.11927e-05
2.01072e-05
2.15758e-05
2.35632e-05
2.41976e-05
2.43307e-05
2.39403e-05
2.22488e-05
2.1005e-05
2.06537e-05
2.06062e-05
2.06543e-05
2.09229e-05
2.12711e-05
2.14511e-05
2.15112e-05
2.15146e-05
2.14847e-05
2.13332e-05
2.02246e-05
2.13598e-05
2.1856e-05
2.18713e-05
2.15877e-05
2.09406e-05
2.06084e-05
2.04954e-05
2.04714e-05
2.04727e-05
2.04981e-05
2.0608e-05
2.09178e-05
2.12276e-05
2.14333e-05
2.15037e-05
2.14601e-05
2.11774e-05
2.02769e-05
2.03321e-05
2.03202e-05
2.02935e-05
2.03374e-05
2.06018e-05
2.09323e-05
2.10954e-05
2.11578e-05
2.11782e-05
2.11966e-05
2.12407e-05
2.14036e-05
2.18839e-05
2.22221e-05
2.23131e-05
2.23009e-05
2.21803e-05
2.00319e-05
2.02246e-05
2.03882e-05
2.04245e-05
2.04274e-05
2.04337e-05
2.04677e-05
2.0517e-05
2.05414e-05
2.05716e-05
2.06409e-05
2.08786e-05
2.16862e-05
2.22819e-05
2.23572e-05
2.22778e-05
2.2136e-05
2.20415e-05
2.02598e-05
2.0469e-05
2.08726e-05
2.11002e-05
2.11353e-05
2.10834e-05
2.0903e-05
2.08286e-05
2.08322e-05
2.08763e-05
2.08961e-05
2.09188e-05
2.09778e-05
2.10374e-05
2.10755e-05
2.11171e-05
2.11948e-05
2.1371e-05
2.03263e-05
2.04907e-05
2.08889e-05
2.09523e-05
2.08854e-05
2.06179e-05
2.03407e-05
2.02735e-05
2.02855e-05
2.03949e-05
2.06762e-05
2.0804e-05
2.08233e-05
2.08202e-05
2.08036e-05
2.07972e-05
2.07978e-05
2.08073e-05
2.01151e-05
2.04817e-05
2.06887e-05
2.06805e-05
2.05268e-05
2.02122e-05
2.01063e-05
2.01027e-05
2.01237e-05
2.02516e-05
2.05839e-05
2.06924e-05
2.06677e-05
2.06506e-05
2.06565e-05
2.06942e-05
2.07413e-05
2.07661e-05
2.0053e-05
2.04386e-05
2.04994e-05
2.04033e-05
2.02878e-05
2.02077e-05
2.01779e-05
2.018e-05
2.02216e-05
2.04547e-05
2.08385e-05
2.09535e-05
2.09594e-05
2.09541e-05
2.08907e-05
2.07091e-05
2.05349e-05
2.04278e-05
2.04837e-05
2.04839e-05
2.05931e-05
2.053e-05
2.04585e-05
2.04095e-05
2.03484e-05
2.03566e-05
2.05358e-05
2.16464e-05
2.39774e-05
2.49169e-05
2.49255e-05
2.43597e-05
2.26666e-05
2.14442e-05
2.07542e-05
2.038e-05
2.00919e-05
2.02199e-05
2.02126e-05
2.01607e-05
2.01421e-05
2.01062e-05
2.00972e-05
2.01211e-05
2.03196e-05
2.14749e-05
2.36616e-05
2.44057e-05
2.43757e-05
2.38386e-05
2.28142e-05
2.21333e-05
2.16107e-05
2.11852e-05
2.0411e-05
2.06001e-05
2.05244e-05
2.02958e-05
2.04281e-05
2.03839e-05
2.01443e-05
2.00974e-05
2.0114e-05
2.02252e-05
2.07056e-05
2.15667e-05
2.21126e-05
2.23977e-05
2.25067e-05
2.25095e-05
2.24261e-05
2.20355e-05
2.04422e-05
2.03852e-05
2.00889e-05
1.99786e-05
1.98526e-05
1.97633e-05
1.97231e-05
1.96451e-05
1.94538e-05
1.89132e-05
1.76063e-05
1.67635e-05
1.66664e-05
1.68784e-05
1.76662e-05
1.87275e-05
2.01961e-05
2.09766e-05
2.02933e-05
1.79779e-05
1.3862e-05
1.43919e-05
1.72406e-05
2.45513e-05
3.43531e-05
3.96461e-05
4.112e-05
4.16712e-05
4.27682e-05
4.53122e-05
5.15439e-05
6.59456e-05
8.13855e-05
9.32102e-05
0.00010573
0.000111452
2.99471e-05
8.73748e-05
0.000110368
0.00015898
0.00026303
0.000377325
0.0004548
0.000483465
0.00048688
0.000486732
0.000488652
0.000497626
0.000528697
0.000574262
0.00061135
0.000632776
0.000644973
0.000650881
0.00209416
0.00210338
0.00204692
0.00205331
0.002111
0.00212117
0.00208628
0.00196124
0.00185655
0.00177835
0.0017004
0.00161418
0.00152284
0.00143228
0.00134958
0.00127765
0.00121796
0.00117425
2.00959e-07
1.53337e-06
6.62433e-06
1.88542e-05
3.77093e-05
5.83819e-05
7.74827e-05
9.36538e-05
0.000106359
0.000115391
0.00012089
0.000123287
0.000122832
0.000118831
0.000112084
0.000102903
9.18503e-05
7.95912e-05
6.67881e-05
5.41861e-05
4.22827e-05
3.16884e-05
2.27639e-05
1.54829e-05
1.0319e-05
6.62206e-06
4.44037e-06
3.20174e-06
2.72572e-06
2.8596e-06
3.10613e-06
3.33898e-06
3.53399e-06
3.69264e-06
3.80895e-06
3.87433e-06
3.89609e-06
3.87488e-06
3.80338e-06
3.68037e-06
3.52411e-06
3.33453e-06
3.1206e-06
2.88316e-06
2.63121e-06
2.36042e-06
2.10044e-06
1.81645e-06
1.54745e-06
1.26679e-06
9.94867e-07
7.68254e-07
5.98034e-07
4.79112e-07
3.91562e-07
3.21344e-07
2.64198e-07
2.1737e-07
1.78451e-07
1.45774e-07
1.18349e-07
9.54503e-08
7.64515e-08
6.07881e-08
4.7967e-08
3.75492e-08
2.91499e-08
2.24355e-08
1.71093e-08
1.29235e-08
9.67163e-09
7.16602e-09
5.24915e-09
3.80061e-09
2.72281e-09
1.93236e-09
1.35977e-09
9.49342e-10
6.57876e-10
4.52631e-10
3.09241e-10
2.09822e-10
1.41398e-10
9.46464e-11
6.29317e-11
4.15697e-11
2.72819e-11
1.7792e-11
1.15321e-11
7.43075e-12
4.76154e-12
3.03566e-12
1.92663e-12
1.21804e-12
7.67519e-13
4.82248e-13
3.02213e-13
1.88907e-13
1.17774e-13
7.32332e-14
4.54226e-14
2.81105e-14
1.73666e-14
1.07172e-14
6.61613e-15
4.09824e-15
2.56091e-15
1.63128e-15
1.06906e-15
7.27856e-16
5.20019e-16
3.93476e-16
3.16924e-16
2.7136e-16
2.4513e-16
2.30996e-16
2.24385e-16
2.22197e-16
2.22045e-16
2.22045e-16
2.22045e-16
2.22045e-16
2.22045e-16
2.22045e-16
2.22045e-16
2.22045e-16
2.22045e-16
2.22045e-16
2.22045e-16
2.22045e-16
2.22045e-16
2.22045e-16
2.22045e-16
2.22045e-16
2.22045e-16
2.22045e-16
2.22045e-16
2.22045e-16
2.22045e-16
2.22045e-16
2.22045e-16
2.22045e-16
2.22045e-16
2.22045e-16
2.22045e-16
2.22045e-16
2.22045e-16
2.22045e-16
2.22045e-16
2.22045e-16
2.22045e-16
2.22045e-16
2.22045e-16
2.22045e-16
2.22045e-16
2.22045e-16
2.22045e-16
2.22045e-16
2.22045e-16
2.22045e-16
2.22045e-16
2.22045e-16
2.22045e-16
2.22045e-16
2.22045e-16
2.22045e-16
2.22045e-16
2.22045e-16
2.22045e-16
2.4326e-16
4.10373e-16
1.37655e-15
6.26143e-15
2.87598e-14
1.2535e-13
5.26519e-13
2.26125e-12
1.05667e-11
1.59094e-10
6.56155e-08
4.82336e-07
1.37956e-06
4.12404e-06
9.89673e-06
1.727e-05
2.41412e-05
2.94165e-05
3.23418e-05
3.35058e-05
3.31193e-05
3.11106e-05
2.84564e-05
2.54722e-05
2.23056e-05
1.93169e-05
1.65955e-05
1.43111e-05
1.25729e-05
1.13561e-05
1.06477e-05
1.03626e-05
1.04779e-05
1.10356e-05
1.19003e-05
1.30209e-05
1.44389e-05
1.60588e-05
1.77733e-05
1.95264e-05
2.12259e-05
2.27915e-05
2.41817e-05
2.53652e-05
2.6317e-05
2.70329e-05
2.74321e-05
2.75864e-05
2.75905e-05
2.72148e-05
2.66504e-05
2.5829e-05
2.48216e-05
2.36302e-05
2.23101e-05
2.09559e-05
1.9594e-05
1.81672e-05
1.6587e-05
1.51062e-05
1.35997e-05
1.16039e-05
9.02048e-06
6.57143e-06
4.81772e-06
3.79164e-06
3.09063e-06
2.53347e-06
2.09477e-06
1.74514e-06
1.45496e-06
1.20836e-06
9.98474e-07
8.20431e-07
6.69982e-07
5.43554e-07
4.37896e-07
3.50072e-07
2.77673e-07
2.18351e-07
1.70048e-07
1.31255e-07
1.00357e-07
7.5767e-08
5.64694e-08
4.16732e-08
3.05198e-08
2.22046e-08
1.60557e-08
1.15398e-08
8.24381e-09
5.85292e-09
4.12922e-09
2.89434e-09
2.0154e-09
1.39396e-09
9.57601e-10
6.53342e-10
4.42706e-10
2.97936e-10
1.99161e-10
1.32263e-10
8.72914e-11
5.72842e-11
3.7406e-11
2.43235e-11
1.57601e-11
1.01782e-11
6.55177e-12
4.20245e-12
2.68495e-12
1.70811e-12
1.08187e-12
6.82148e-13
4.28057e-13
2.67214e-13
1.65971e-13
1.02718e-13
6.34812e-14
3.92596e-14
2.43176e-14
1.50779e-14
9.37048e-15
5.84736e-15
3.67423e-15
2.33809e-15
1.51952e-15
1.01945e-15
7.14394e-16
5.28112e-16
4.13906e-16
3.43425e-16
2.99565e-16
2.72023e-16
2.54574e-16
2.43425e-16
2.36247e-16
2.31589e-16
2.28537e-16
2.26519e-16
2.2517e-16
2.24256e-16
2.23627e-16
2.23189e-16
2.22881e-16
2.2266e-16
2.225e-16
2.22382e-16
2.22295e-16
2.22231e-16
2.22184e-16
2.22149e-16
2.22121e-16
2.22099e-16
2.22082e-16
2.22069e-16
2.2206e-16
2.22054e-16
2.2205e-16
2.22047e-16
2.22046e-16
2.22045e-16
2.22045e-16
2.22045e-16
2.22045e-16
2.22045e-16
2.22045e-16
2.22045e-16
2.22045e-16
2.22045e-16
2.22045e-16
2.22045e-16
2.22045e-16
2.22045e-16
2.22045e-16
2.22045e-16
2.22045e-16
2.22045e-16
2.22049e-16
2.22116e-16
2.22873e-16
2.28573e-16
2.63372e-16
4.55065e-16
1.3979e-15
5.95148e-15
2.58734e-14
1.28238e-13
6.27238e-13
1.42289e-11
5.80836e-09
6.30394e-07
1.23668e-06
2.11871e-06
3.8006e-06
5.80316e-06
7.15489e-06
7.73336e-06
7.87685e-06
7.72097e-06
7.42263e-06
7.28867e-06
7.29413e-06
7.65567e-06
8.23581e-06
9.08899e-06
1.01895e-05
1.15287e-05
1.30511e-05
1.50804e-05
1.77538e-05
2.10505e-05
2.49796e-05
2.93828e-05
3.41917e-05
3.93673e-05
4.45582e-05
4.97705e-05
5.49605e-05
6.00455e-05
6.49176e-05
6.94013e-05
7.3305e-05
7.64471e-05
7.87679e-05
8.02413e-05
8.09503e-05
8.11859e-05
8.09615e-05
7.99511e-05
7.88726e-05
7.73786e-05
7.53944e-05
7.26325e-05
6.909e-05
6.48438e-05
6.00052e-05
5.49248e-05
4.97044e-05
4.44401e-05
3.92486e-05
3.41864e-05
2.93201e-05
2.47352e-05
2.04825e-05
1.66846e-05
1.34142e-05
1.0718e-05
8.6143e-06
7.07416e-06
5.94197e-06
4.99718e-06
4.18692e-06
3.49176e-06
2.89616e-06
2.38795e-06
1.95629e-06
1.59045e-06
1.2828e-06
1.02573e-06
8.11099e-07
6.35052e-07
4.9256e-07
3.75406e-07
2.81056e-07
2.09487e-07
1.56246e-07
1.1643e-07
8.65705e-08
6.41646e-08
4.73696e-08
3.48103e-08
2.54505e-08
1.85047e-08
1.33758e-08
9.60898e-09
6.85902e-09
4.86404e-09
3.42636e-09
2.39738e-09
1.6661e-09
1.15016e-09
7.88869e-10
5.37895e-10
3.64978e-10
2.46758e-10
1.66424e-10
1.12025e-10
7.52305e-11
5.03543e-11
3.35569e-11
2.22463e-11
1.46638e-11
9.60812e-12
6.25527e-12
4.04384e-12
2.59595e-12
1.65818e-12
1.05787e-12
6.75311e-13
4.30556e-13
2.73464e-13
1.72438e-13
1.07712e-13
6.69088e-14
4.15404e-14
2.58439e-14
1.6157e-14
1.01791e-14
6.48049e-15
4.18117e-15
2.74288e-15
1.83719e-15
1.26337e-15
8.97865e-16
6.6391e-16
5.13496e-16
4.16302e-16
3.53059e-16
3.11567e-16
2.84089e-16
2.65665e-16
2.53123e-16
2.44458e-16
2.38398e-16
2.34099e-16
2.30994e-16
2.28716e-16
2.27036e-16
2.25801e-16
2.24888e-16
2.24199e-16
2.23662e-16
2.23236e-16
2.22902e-16
2.22648e-16
2.22463e-16
2.22335e-16
2.22247e-16
2.22189e-16
2.22151e-16
2.22124e-16
2.22105e-16
2.22091e-16
2.22081e-16
2.22073e-16
2.22066e-16
2.2206e-16
2.22056e-16
2.22054e-16
2.22052e-16
2.22051e-16
2.22051e-16
2.22051e-16
2.22051e-16
2.22051e-16
2.2205e-16
2.22049e-16
2.22049e-16
2.22052e-16
2.22082e-16
2.22284e-16
2.23538e-16
2.30744e-16
2.68196e-16
4.59501e-16
1.35113e-15
6.17406e-15
3.13618e-14
7.27239e-13
2.51691e-10
7.22125e-07
1.32348e-06
1.75982e-06
2.35325e-06
2.9943e-06
3.41733e-06
3.66594e-06
3.9886e-06
4.44588e-06
5.09619e-06
5.99122e-06
7.13306e-06
8.5939e-06
1.06804e-05
1.35293e-05
1.73267e-05
2.21547e-05
2.81197e-05
3.50493e-05
4.27782e-05
5.12631e-05
6.04452e-05
7.02225e-05
8.05004e-05
9.10964e-05
0.000101759
0.000112216
0.000122228
0.00013151
0.000139879
0.000147314
0.00015297
0.000156192
0.000157897
0.000158451
0.000156091
0.000151832
0.000147019
0.000139706
0.000132237
0.000123574
0.000114742
0.000105634
9.65386e-05
8.77495e-05
7.92439e-05
7.13051e-05
6.39136e-05
5.68272e-05
5.00462e-05
4.37835e-05
3.81187e-05
3.3052e-05
2.85553e-05
2.45843e-05
2.1093e-05
1.8038e-05
1.53764e-05
1.30672e-05
1.10701e-05
9.34572e-06
7.86102e-06
6.58738e-06
5.49837e-06
4.57017e-06
3.7818e-06
3.11406e-06
2.5502e-06
2.07619e-06
1.67793e-06
1.34569e-06
1.0722e-06
8.45018e-07
6.58268e-07
5.13282e-07
4.0007e-07
3.11214e-07
2.41365e-07
1.8648e-07
1.43436e-07
1.09781e-07
8.3572e-08
6.32562e-08
4.75914e-08
3.55785e-08
2.64233e-08
1.94905e-08
1.42772e-08
1.03836e-08
7.49767e-09
5.37385e-09
3.82321e-09
2.70113e-09
1.89718e-09
1.32726e-09
9.2758e-10
6.4913e-10
4.54701e-10
3.17841e-10
2.21148e-10
1.52917e-10
1.04987e-10
7.1532e-11
4.83624e-11
3.2451e-11
2.16127e-11
1.42886e-11
9.37695e-12
6.11047e-12
3.95807e-12
2.55171e-12
1.63913e-12
1.05039e-12
6.72186e-13
4.29907e-13
2.75011e-13
1.76114e-13
1.12972e-13
7.26107e-14
4.67705e-14
3.02028e-14
1.9568e-14
1.274e-14
8.35605e-15
5.53659e-15
3.72122e-15
2.54954e-15
1.78867e-15
1.29128e-15
9.64042e-16
7.45763e-16
5.97584e-16
4.95228e-16
4.23408e-16
3.72177e-16
3.3494e-16
3.0744e-16
2.86979e-16
2.71726e-16
2.60284e-16
2.51533e-16
2.44714e-16
2.39305e-16
2.35078e-16
2.31822e-16
2.29371e-16
2.2761e-16
2.263e-16
2.25362e-16
2.24697e-16
2.24169e-16
2.23765e-16
2.23483e-16
2.2326e-16
2.23051e-16
2.22872e-16
2.22743e-16
2.22659e-16
2.22608e-16
2.22586e-16
2.22575e-16
2.22574e-16
2.22564e-16
2.22553e-16
2.22501e-16
2.22375e-16
2.22252e-16
2.2226e-16
2.22365e-16
2.22721e-16
2.23713e-16
2.26399e-16
2.34468e-16
2.60883e-16
4.09189e-16
1.21e-15
1.53096e-14
4.07644e-14
2.24613e-13
1.32718e-11
7.67061e-07
1.53238e-06
1.82399e-06
2.19295e-06
2.56704e-06
2.91205e-06
3.29661e-06
3.86666e-06
4.64424e-06
5.81731e-06
7.56719e-06
1.01505e-05
1.37854e-05
1.84319e-05
2.41678e-05
3.10845e-05
3.93488e-05
4.88988e-05
5.97464e-05
7.22317e-05
8.66598e-05
0.000102777
0.000120207
0.000138104
0.00015552
0.000172163
0.000187837
0.000201699
0.000213559
0.000223418
0.000230947
0.000234571
0.0002357
0.000232911
0.000229397
0.000219728
0.000209008
0.000199341
0.000183712
0.000171449
0.00015642
0.000142403
0.000128534
0.000115402
0.000103022
9.15308e-05
8.07054e-05
7.09017e-05
6.22847e-05
5.44334e-05
4.7411e-05
4.11553e-05
3.56162e-05
3.07291e-05
2.64278e-05
2.26549e-05
1.93581e-05
1.64886e-05
1.40009e-05
1.1853e-05
1.00026e-05
8.41349e-06
7.05418e-06
5.89633e-06
4.91388e-06
4.08288e-06
3.38246e-06
2.79424e-06
2.30163e-06
1.88997e-06
1.54672e-06
1.26132e-06
1.02472e-06
8.29228e-07
6.68316e-07
5.36337e-07
4.28473e-07
3.40649e-07
2.69457e-07
2.12023e-07
1.65919e-07
1.29104e-07
9.98655e-08
7.67757e-08
5.86512e-08
4.45111e-08
3.35469e-08
2.51028e-08
1.86407e-08
1.3734e-08
1.00312e-08
7.26404e-09
5.226e-09
3.73438e-09
2.64983e-09
1.86662e-09
1.30499e-09
9.0514e-10
6.22608e-10
4.24545e-10
2.86849e-10
1.91955e-10
1.27158e-10
8.33401e-11
5.40095e-11
3.45868e-11
2.18705e-11
1.36443e-11
8.39093e-12
5.08119e-12
3.02709e-12
1.77256e-12
1.0183e-12
5.75076e-13
3.18332e-13
1.71306e-13
9.39251e-14
5.39724e-14
3.29762e-14
2.16554e-14
1.53496e-14
1.16746e-14
9.32991e-15
7.65799e-15
6.37627e-15
5.33881e-15
4.46947e-15
3.72972e-15
3.09791e-15
2.56074e-15
2.1097e-15
1.73598e-15
1.43013e-15
1.18246e-15
9.83593e-16
8.24847e-16
6.98674e-16
5.98721e-16
5.19674e-16
4.57325e-16
4.07906e-16
3.69071e-16
3.38027e-16
3.13758e-16
2.94464e-16
2.78971e-16
2.67334e-16
2.57427e-16
2.49816e-16
2.44223e-16
2.3903e-16
2.34865e-16
2.32188e-16
2.29846e-16
2.27182e-16
2.24736e-16
2.23114e-16
2.22347e-16
2.221e-16
2.22063e-16
2.22079e-16
2.22138e-16
2.22262e-16
2.22495e-16
2.2295e-16
2.23869e-16
2.26349e-16
2.33005e-16
2.50522e-16
2.96492e-16
4.18807e-16
7.46844e-16
1.76277e-15
4.81397e-15
2.65534e-14
1.23335e-13
2.62842e-12
3.20284e-12
2.82825e-11
3.00449e-11
7.69775e-07
1.71188e-06
2.12621e-06
2.31245e-06
2.61348e-06
3.01285e-06
3.57672e-06
4.54586e-06
6.11296e-06
8.35893e-06
1.14849e-05
1.56577e-05
2.10362e-05
2.79947e-05
3.72517e-05
4.90007e-05
6.32666e-05
8.10028e-05
0.000102884
0.000129017
0.000156736
0.000184997
0.000212817
0.000239858
0.000264558
0.000287819
0.000307461
0.000324126
0.00033698
0.000347444
0.00035267
0.000354219
0.000345824
0.000337397
0.000327501
0.000301191
0.000283898
0.000265221
0.000234362
0.000217319
0.000190845
0.000170013
0.00014929
0.000130729
0.000113673
9.86077e-05
8.54796e-05
7.38881e-05
6.38698e-05
5.55101e-05
4.81837e-05
4.17614e-05
3.61372e-05
3.11924e-05
2.68408e-05
2.30239e-05
1.9686e-05
1.67769e-05
1.42496e-05
1.20622e-05
1.01763e-05
8.55628e-06
7.16997e-06
5.98838e-06
4.98549e-06
4.13747e-06
3.42222e-06
2.82232e-06
2.32124e-06
1.90362e-06
1.55615e-06
1.26766e-06
1.02877e-06
8.31597e-07
6.69441e-07
5.3661e-07
4.28248e-07
3.40218e-07
2.69006e-07
2.11648e-07
1.6566e-07
1.28964e-07
9.98311e-08
7.68246e-08
5.87567e-08
4.46481e-08
3.37009e-08
2.52572e-08
1.87924e-08
1.38704e-08
1.01596e-08
7.36988e-09
5.31184e-09
3.8028e-09
2.7034e-09
1.90779e-09
1.33605e-09
9.28181e-10
6.39429e-10
4.3664e-10
2.95416e-10
1.97932e-10
1.31262e-10
8.61093e-11
5.58437e-11
3.57766e-11
2.26243e-11
1.41093e-11
8.66835e-12
5.24044e-12
3.1135e-12
1.81547e-12
1.03743e-12
5.80157e-13
3.17051e-13
1.69091e-13
8.7948e-14
4.46225e-14
2.21207e-14
1.07709e-14
5.21918e-15
2.57206e-15
1.35299e-15
8.18166e-16
5.8463e-16
4.80076e-16
4.28955e-16
3.99092e-16
3.77466e-16
3.59069e-16
3.42201e-16
3.26479e-16
3.11974e-16
2.98838e-16
2.8715e-16
2.76897e-16
2.68007e-16
2.60371e-16
2.53863e-16
2.48365e-16
2.43715e-16
2.3985e-16
2.36582e-16
2.33911e-16
2.31692e-16
2.29838e-16
2.28397e-16
2.27137e-16
2.26138e-16
2.25373e-16
2.24676e-16
2.24101e-16
2.23695e-16
2.23361e-16
2.2301e-16
2.22668e-16
2.22423e-16
2.22267e-16
2.22155e-16
2.22128e-16
2.22144e-16
2.22247e-16
2.23559e-16
2.31986e-16
2.63228e-16
3.5953e-16
6.33831e-16
1.39726e-15
3.49837e-15
9.21782e-15
2.49266e-14
6.72044e-14
1.82562e-13
4.75984e-13
1.2431e-12
2.78485e-12
1.12648e-11
1.24656e-11
2.5838e-11
2.82338e-11
7.6417e-07
1.78054e-06
2.44901e-06
2.72351e-06
2.97684e-06
3.54331e-06
4.42522e-06
5.68177e-06
7.61935e-06
1.07586e-05
1.54016e-05
2.2113e-05
3.20001e-05
4.6038e-05
6.33801e-05
8.43368e-05
0.000110697
0.000143513
0.000184556
0.000224583
0.000264015
0.000301558
0.000339373
0.000371294
0.000405404
0.000433909
0.000460178
0.00047824
0.000497051
0.00050941
0.000513449
0.000508675
0.000489419
0.000480609
0.000449684
0.000404187
0.000383357
0.000344185
0.000296648
0.000274054
0.000230099
0.000202982
0.000173456
0.000148216
0.000125931
0.000106442
8.98796e-05
7.59094e-05
6.40552e-05
5.39858e-05
4.57265e-05
3.9128e-05
3.38614e-05
2.94352e-05
2.55106e-05
2.20137e-05
1.89436e-05
1.62434e-05
1.38768e-05
1.18117e-05
1.00148e-05
8.45637e-06
7.11062e-06
5.95426e-06
4.96584e-06
4.12562e-06
3.41509e-06
2.81578e-06
2.31215e-06
1.8911e-06
1.54097e-06
1.25117e-06
1.01225e-06
8.15981e-07
6.5528e-07
5.24143e-07
4.17506e-07
3.31115e-07
2.614e-07
2.05377e-07
1.60554e-07
1.24856e-07
9.65662e-08
7.42589e-08
5.67653e-08
4.31208e-08
3.25445e-08
2.43917e-08
1.81541e-08
1.34046e-08
9.82604e-09
7.13287e-09
5.1441e-09
3.68527e-09
2.62191e-09
1.8519e-09
1.29815e-09
9.02796e-10
6.22647e-10
4.25697e-10
2.88384e-10
1.93484e-10
1.28498e-10
8.44245e-11
5.48392e-11
3.51931e-11
2.22959e-11
1.39318e-11
8.5775e-12
5.19748e-12
3.09567e-12
1.80989e-12
1.0372e-12
5.81757e-13
3.18906e-13
1.70622e-13
8.89952e-14
4.52227e-14
2.23928e-14
1.08284e-14
5.14533e-15
2.43846e-15
1.19003e-15
6.32983e-16
3.92621e-16
2.92341e-16
2.51868e-16
2.3602e-16
2.29946e-16
2.27587e-16
2.26568e-16
2.2601e-16
2.25605e-16
2.25248e-16
2.2491e-16
2.24585e-16
2.24277e-16
2.2399e-16
2.23726e-16
2.23488e-16
2.23274e-16
2.23087e-16
2.2292e-16
2.22779e-16
2.22656e-16
2.2255e-16
2.22465e-16
2.22389e-16
2.22327e-16
2.22277e-16
2.22233e-16
2.22196e-16
2.22167e-16
2.22145e-16
2.22119e-16
2.22102e-16
2.22086e-16
2.22072e-16
2.22588e-16
2.24847e-16
2.30422e-16
2.42437e-16
2.65217e-16
3.11222e-16
3.97115e-16
5.71869e-16
9.45728e-16
1.78844e-15
3.82417e-15
8.86351e-15
2.2073e-14
5.56282e-14
1.44795e-13
3.57086e-13
9.82338e-13
1.94684e-12
7.15289e-12
7.50317e-12
8.7289e-12
1.17966e-11
7.53023e-07
1.78687e-06
2.59192e-06
2.96061e-06
3.29134e-06
3.9954e-06
5.25483e-06
7.36049e-06
1.07509e-05
1.59768e-05
2.39936e-05
3.55992e-05
5.11691e-05
7.10226e-05
9.73053e-05
0.00013366
0.000183657
0.000246738
0.000297391
0.000348753
0.000401829
0.000449111
0.000496776
0.000549577
0.000593638
0.000646043
0.00068164
0.000718398
0.000751151
0.000766352
0.000770829
0.000751586
0.000730555
0.000708089
0.000629183
0.000580319
0.000547504
0.000469315
0.00040682
0.00036331
0.000297354
0.000254889
0.000212119
0.000177258
0.000147171
0.00012144
9.94805e-05
8.10334e-05
6.58662e-05
5.36697e-05
4.37573e-05
3.56592e-05
2.91172e-05
2.41369e-05
2.053e-05
1.78506e-05
1.56543e-05
1.37102e-05
1.19137e-05
1.03055e-05
8.88605e-06
7.62915e-06
6.51507e-06
5.5307e-06
4.66624e-06
3.91234e-06
3.26037e-06
2.70184e-06
2.22745e-06
1.82746e-06
1.49236e-06
1.2133e-06
9.82168e-07
7.91714e-07
6.35523e-07
5.08001e-07
4.04332e-07
3.20407e-07
2.5275e-07
1.9844e-07
1.55036e-07
1.20506e-07
9.31658e-08
7.1626e-08
5.47453e-08
4.15867e-08
3.13901e-08
2.35334e-08
1.75212e-08
1.29457e-08
9.49427e-09
6.90045e-09
4.97822e-09
3.56795e-09
2.53972e-09
1.7949e-09
1.25904e-09
8.7627e-10
6.04874e-10
4.13946e-10
2.80725e-10
1.8857e-10
1.25399e-10
8.25093e-11
5.36818e-11
3.45121e-11
2.19079e-11
1.37196e-11
8.46769e-12
5.14505e-12
3.07384e-12
1.80329e-12
1.03735e-12
5.84305e-13
3.21796e-13
1.73046e-13
9.07582e-14
4.63904e-14
2.31109e-14
1.12417e-14
5.36918e-15
2.55276e-15
1.24456e-15
6.5649e-16
4.00814e-16
2.93317e-16
2.49593e-16
2.32397e-16
2.25858e-16
2.23454e-16
2.22598e-16
2.22302e-16
2.222e-16
2.22164e-16
2.22147e-16
2.22138e-16
2.22129e-16
2.22121e-16
2.22113e-16
2.22106e-16
2.22098e-16
2.22091e-16
2.22085e-16
2.22079e-16
2.22074e-16
2.2207e-16
2.22066e-16
2.22062e-16
2.22059e-16
2.22057e-16
2.22055e-16
2.22053e-16
2.22051e-16
2.2205e-16
2.22049e-16
2.22048e-16
2.22047e-16
2.22047e-16
2.22245e-16
2.23948e-16
2.28634e-16
2.38733e-16
2.59748e-16
2.98281e-16
3.74208e-16
5.19058e-16
8.2357e-16
1.4866e-15
3.04812e-15
6.75212e-15
1.61507e-14
3.88726e-14
9.67821e-14
2.24965e-13
6.40595e-13
1.09603e-12
2.95656e-12
3.26275e-12
3.51446e-12
4.41079e-12
7.43057e-07
1.77796e-06
2.70838e-06
3.15574e-06
3.54785e-06
4.37176e-06
5.88945e-06
8.60879e-06
1.32698e-05
2.07701e-05
3.24696e-05
4.98306e-05
7.43654e-05
0.000108724
0.000158576
0.000231861
0.000318781
0.000384694
0.000448201
0.000510064
0.000566597
0.000636522
0.000701673
0.000781288
0.000868214
0.000952809
0.00103435
0.00110495
0.00115209
0.00117512
0.00118224
0.00112167
0.00107136
0.000987707
0.000848956
0.000796316
0.000727419
0.000623077
0.000568725
0.000478143
0.000403129
0.000324554
0.000263295
0.000215081
0.00017606
0.00014476
0.000118778
9.62526e-05
7.57792e-05
5.90933e-05
4.60904e-05
3.61454e-05
2.85233e-05
2.25756e-05
1.78968e-05
1.43038e-05
1.16979e-05
9.86601e-06
8.52801e-06
7.43438e-06
6.51325e-06
5.73307e-06
5.0436e-06
4.40659e-06
3.82127e-06
3.28944e-06
2.8081e-06
2.37645e-06
1.99431e-06
1.66027e-06
1.37184e-06
1.12564e-06
9.17692e-07
7.43693e-07
5.99313e-07
4.80397e-07
3.83107e-07
3.03992e-07
2.40017e-07
1.8856e-07
1.47383e-07
1.14599e-07
8.86291e-08
6.81637e-08
5.21211e-08
3.96141e-08
2.99189e-08
2.24476e-08
1.6726e-08
1.23718e-08
9.08187e-09
6.61191e-09
4.77374e-09
3.42426e-09
2.43965e-09
1.72586e-09
1.2119e-09
8.44419e-10
5.83605e-10
3.99921e-10
2.71603e-10
1.82726e-10
1.21717e-10
8.02333e-11
5.23053e-11
3.37007e-11
2.14443e-11
1.34648e-11
8.33478e-12
5.08074e-12
3.04637e-12
1.79431e-12
1.03677e-12
5.86842e-13
3.24946e-13
1.75784e-13
9.2797e-14
4.77694e-14
2.39791e-14
1.1757e-14
5.65925e-15
2.70814e-15
1.32398e-15
6.9527e-16
4.18847e-16
3.01269e-16
2.52919e-16
2.33693e-16
2.26301e-16
2.23553e-16
2.22564e-16
2.22219e-16
2.22103e-16
2.22065e-16
2.22053e-16
2.22049e-16
2.22048e-16
2.22047e-16
2.22047e-16
2.22047e-16
2.22047e-16
2.22046e-16
2.22046e-16
2.22046e-16
2.22046e-16
2.22046e-16
2.22045e-16
2.22045e-16
2.22045e-16
2.22045e-16
2.22045e-16
2.22045e-16
2.22045e-16
2.22045e-16
2.22045e-16
2.22045e-16
2.22045e-16
2.22045e-16
2.22048e-16
2.22944e-16
2.26288e-16
2.34078e-16
2.51034e-16
2.81228e-16
3.43422e-16
4.54914e-16
6.84501e-16
1.16642e-15
2.26206e-15
4.75502e-15
1.08264e-14
2.47363e-14
5.79155e-14
1.25224e-13
3.55867e-13
5.10657e-13
8.43794e-13
1.00692e-12
1.11899e-12
1.47468e-12
7.34432e-07
1.74442e-06
2.77197e-06
3.35413e-06
3.91984e-06
5.17099e-06
7.45767e-06
1.1565e-05
1.89119e-05
3.15599e-05
5.29433e-05
8.75948e-05
0.000138712
0.000212262
0.00030731
0.000403029
0.000465394
0.000521947
0.00057983
0.000660552
0.000754407
0.000861824
0.00100927
0.00118193
0.0013836
0.00158317
0.00179301
0.0020028
0.0021702
0.0022807
0.00232845
0.00213635
0.00188841
0.00160098
0.00121263
0.00102292
0.000841449
0.000725756
0.000655108
0.000561407
0.000489876
0.000407578
0.000327074
0.000258987
0.000204753
0.000164632
0.000134893
0.000111793
9.28974e-05
7.37505e-05
5.56747e-05
4.169e-05
3.12248e-05
2.35396e-05
1.79405e-05
1.38084e-05
1.06865e-05
8.35932e-06
6.72379e-06
5.54442e-06
4.61542e-06
3.88284e-06
3.3178e-06
2.89628e-06
2.57055e-06
2.29589e-06
2.04544e-06
1.80185e-06
1.56761e-06
1.34834e-06
1.14623e-06
9.63461e-07
8.01425e-07
6.60262e-07
5.3919e-07
4.36784e-07
3.51216e-07
2.80477e-07
2.22546e-07
1.75498e-07
1.37576e-07
1.0722e-07
8.30765e-08
6.39934e-08
4.89996e-08
3.72899e-08
2.81986e-08
2.11847e-08
1.58052e-08
1.1709e-08
8.60682e-09
6.27951e-09
4.5386e-09
3.25926e-09
2.32486e-09
1.64673e-09
1.15788e-09
8.07934e-10
5.59242e-10
3.83852e-10
2.61145e-10
1.76019e-10
1.17485e-10
7.76113e-11
5.07147e-11
3.27592e-11
2.09032e-11
1.31652e-11
8.17675e-12
5.00301e-12
3.01219e-12
1.78235e-12
1.03512e-12
5.89234e-13
3.2832e-13
1.78842e-13
9.51327e-14
4.93807e-14
2.50116e-14
1.23797e-14
6.01534e-15
2.90205e-15
1.42479e-15
7.45394e-16
4.42742e-16
3.12211e-16
2.57726e-16
2.3572e-16
2.2712e-16
2.23868e-16
2.22679e-16
2.22259e-16
2.22115e-16
2.22067e-16
2.22052e-16
2.22047e-16
2.22045e-16
2.22045e-16
2.22045e-16
2.22045e-16
2.22045e-16
2.22045e-16
2.22045e-16
2.22045e-16
2.22045e-16
2.22045e-16
2.22045e-16
2.22045e-16
2.22045e-16
2.22045e-16
2.22045e-16
2.22045e-16
2.22045e-16
2.22045e-16
2.22045e-16
2.22045e-16
2.22045e-16
2.22045e-16
2.22045e-16
2.22185e-16
2.24009e-16
2.29177e-16
2.40866e-16
2.62911e-16
3.08703e-16
3.89438e-16
5.48736e-16
8.69653e-16
1.5643e-15
3.06213e-15
6.48407e-15
1.37816e-14
3.30245e-14
6.00354e-14
1.50627e-13
1.68354e-13
1.89454e-13
2.38468e-13
2.77308e-13
3.99963e-13
7.2859e-07
1.69462e-06
2.76735e-06
3.42231e-06
4.08939e-06
5.63948e-06
8.79188e-06
1.50034e-05
2.66866e-05
4.65523e-05
7.68629e-05
0.000120508
0.00018562
0.000278542
0.000383181
0.000474636
0.000546953
0.000635705
0.000764712
0.000881899
0.00104723
0.00130369
0.00165756
0.0021407
0.00279727
0.00361964
0.00464145
0.00577913
0.00677945
0.00746801
0.00774866
0.00712336
0.00600081
0.00458144
0.00315336
0.00204558
0.00129516
0.000914127
0.00069882
0.000583865
0.000507003
0.000432743
0.000355421
0.000285276
0.000228563
0.000180925
0.000143802
0.000117175
9.86672e-05
8.45859e-05
7.09552e-05
5.45786e-05
3.9449e-05
2.82697e-05
2.02251e-05
1.46222e-05
1.07707e-05
8.07734e-06
6.12902e-06
4.77575e-06
3.85667e-06
3.13308e-06
2.55595e-06
2.09907e-06
1.73922e-06
1.46276e-06
1.25672e-06
1.11069e-06
9.99344e-07
9.01686e-07
8.06782e-07
7.09714e-07
6.14638e-07
5.24672e-07
4.41671e-07
3.67033e-07
3.01453e-07
2.44962e-07
1.9713e-07
1.57231e-07
1.2438e-07
9.76405e-08
7.60936e-08
5.88885e-08
4.52633e-08
3.45567e-08
2.62042e-08
1.9735e-08
1.47579e-08
1.09573e-08
8.07275e-09
5.90289e-09
4.27763e-09
3.07658e-09
2.198e-09
1.55942e-09
1.09836e-09
7.67784e-10
5.32473e-10
3.66226e-10
2.49693e-10
1.68682e-10
1.12858e-10
7.47451e-11
4.89757e-11
3.173e-11
2.03124e-11
1.28386e-11
8.00519e-12
4.91944e-12
2.97647e-12
1.77098e-12
1.03488e-12
5.93149e-13
3.33039e-13
1.8297e-13
9.82637e-14
5.15535e-14
2.64223e-14
1.3246e-14
6.52145e-15
3.1842e-15
1.57517e-15
8.22109e-16
4.80233e-16
3.29776e-16
2.65621e-16
2.39126e-16
2.28532e-16