/*--------------------------------*- C++ -*----------------------------------*\
  =========                 |
  \\      /  F ield         | OpenFOAM: The Open Source CFD Toolbox
   \\    /   O peration     | Website:  https://openfoam.org
    \\  /    A nd           | Version:  7
     \\/     M anipulation  |
\*---------------------------------------------------------------------------*/
FoamFile
{
    version     2.0;
    format      ascii;
    class       surfaceScalarField;
    location    "0.015";
    object      phi;
}
// * * * * * * * * * * * * * * * * * * * * * * * * * * * * * * * * * * * * * //

dimensions      [0 3 -1 0 0 0 0];

internalField   nonuniform List<scalar> 
24170
(
1.3625e-06
1.70761e-07
1.2466e-06
1.15903e-07
1.11566e-06
1.30939e-07
1.00043e-06
1.15232e-07
8.97015e-07
1.03412e-07
7.98776e-07
9.82391e-08
7.07456e-07
9.13199e-08
6.26472e-07
8.09838e-08
5.57796e-07
6.86759e-08
5.01785e-07
5.60117e-08
4.58131e-07
4.36541e-08
4.25286e-07
3.28451e-08
4.0157e-07
2.37154e-08
3.84244e-07
1.73258e-08
3.71074e-07
1.31699e-08
3.60327e-07
1.07479e-08
3.45041e-07
1.52857e-08
1.67451e-08
3.28296e-07
1.65273e-06
2.28356e-07
1.62967e-06
1.38965e-07
1.592e-06
1.68605e-07
1.54985e-06
1.57385e-07
1.51303e-06
1.40234e-07
1.47919e-06
1.32073e-07
1.44456e-06
1.25955e-07
1.40904e-06
1.16504e-07
1.3739e-06
1.03809e-07
1.3398e-06
9.01206e-08
1.30707e-06
7.63785e-08
1.27582e-06
6.40918e-08
1.24644e-06
5.31007e-08
1.21976e-06
4.40058e-08
1.19545e-06
3.74813e-08
1.1733e-06
3.28906e-08
1.15275e-06
3.58389e-08
4.03843e-08
1.12911e-06
1.7604e-06
2.38816e-07
1.74203e-06
1.57336e-07
1.7311e-06
1.79535e-07
1.71444e-06
1.74041e-07
1.70359e-06
1.51082e-07
1.70252e-06
1.3314e-07
1.70624e-06
1.22243e-07
1.70868e-06
1.14058e-07
1.70605e-06
1.06438e-07
1.69753e-06
9.86472e-08
1.68418e-06
8.97213e-08
1.66844e-06
7.98396e-08
1.65206e-06
6.9479e-08
1.63699e-06
5.90771e-08
1.62379e-06
5.06727e-08
1.61249e-06
4.41941e-08
1.60418e-06
4.41545e-08
4.74882e-08
1.59707e-06
1.88854e-06
2.90424e-07
1.85135e-06
1.94517e-07
1.83044e-06
2.00453e-07
1.81969e-06
1.84783e-07
1.81604e-06
1.54732e-07
1.81904e-06
1.30145e-07
1.8266e-06
1.14683e-07
1.83512e-06
1.0554e-07
1.84098e-06
1.00577e-07
1.84227e-06
9.73559e-08
1.83914e-06
9.285e-08
1.83349e-06
8.54958e-08
1.82736e-06
7.5603e-08
1.82249e-06
6.39517e-08
1.81956e-06
5.35948e-08
1.81816e-06
4.56028e-08
1.81916e-06
4.31546e-08
4.51968e-08
1.82145e-06
2.04554e-06
3.75719e-07
2.00203e-06
2.3803e-07
1.99546e-06
2.07014e-07
1.98893e-06
1.91321e-07
1.98094e-06
1.62722e-07
1.97617e-06
1.34914e-07
1.9759e-06
1.14946e-07
1.97794e-06
1.03502e-07
1.97903e-06
9.94895e-08
1.97732e-06
9.90651e-08
1.97318e-06
9.69936e-08
1.96847e-06
9.02028e-08
1.965e-06
7.90674e-08
1.96344e-06
6.55169e-08
1.96393e-06
5.31028e-08
1.96555e-06
4.39858e-08
1.96874e-06
3.99661e-08
4.10493e-08
1.97288e-06
2.21825e-06
3.95896e-07
2.19932e-06
2.5696e-07
2.17933e-06
2.27008e-07
2.15869e-06
2.11954e-07
2.14141e-06
1.80005e-07
2.13012e-06
1.4621e-07
2.12581e-06
1.19252e-07
2.12671e-06
1.026e-07
2.12977e-06
9.6433e-08
2.13235e-06
9.64791e-08
2.13303e-06
9.63182e-08
2.13158e-06
9.16479e-08
2.12855e-06
8.20974e-08
2.12451e-06
6.95648e-08
2.12038e-06
5.72337e-08
2.11672e-06
4.76396e-08
2.11466e-06
4.20282e-08
4.09629e-08
2.11475e-06
2.40577e-06
4.2761e-07
2.37518e-06
2.87557e-07
2.34625e-06
2.55936e-07
2.32649e-06
2.31713e-07
2.32217e-06
1.8433e-07
2.32827e-06
1.40102e-07
2.33512e-06
1.12403e-07
2.33573e-06
1.01992e-07
2.32871e-06
1.03455e-07
2.31697e-06
1.08215e-07
2.30476e-06
1.08532e-07
2.29544e-06
1.00963e-07
2.29058e-06
8.69573e-08
2.2898e-06
7.03515e-08
2.29157e-06
5.54634e-08
2.29425e-06
4.49613e-08
2.29663e-06
3.96481e-08
3.89263e-08
2.29866e-06
2.57681e-06
4.71282e-07
2.53098e-06
3.33393e-07
2.50766e-06
2.79251e-07
2.50323e-06
2.36146e-07
2.50867e-06
1.78892e-07
2.51826e-06
1.30512e-07
2.52479e-06
1.05868e-07
2.52244e-06
1.04345e-07
2.51131e-06
1.14589e-07
2.49681e-06
1.22713e-07
2.48527e-06
1.20073e-07
2.48025e-06
1.05981e-07
2.48166e-06
8.55486e-08
2.487e-06
6.5014e-08
2.49337e-06
4.90925e-08
2.49874e-06
3.95899e-08
2.50233e-06
3.60583e-08
3.68504e-08
2.5044e-06
2.74152e-06
5.03926e-07
2.707e-06
3.67916e-07
2.6944e-06
2.9185e-07
2.69808e-06
2.3246e-07
2.70165e-06
1.75321e-07
2.69827e-06
1.33895e-07
2.68842e-06
1.15713e-07
2.67597e-06
1.16797e-07
2.66547e-06
1.25095e-07
2.66015e-06
1.28029e-07
2.66071e-06
1.19509e-07
2.66548e-06
1.01211e-07
2.67176e-06
7.92729e-08
2.6773e-06
5.94748e-08
2.68123e-06
4.51586e-08
2.68375e-06
3.70748e-08
2.68573e-06
3.40767e-08
3.46302e-08
2.68795e-06
2.96303e-06
4.51737e-07
2.9475e-06
3.8345e-07
2.91874e-06
3.20604e-07
2.90091e-06
2.50294e-07
2.88893e-06
1.87304e-07
2.87609e-06
1.4673e-07
2.86121e-06
1.30595e-07
2.84897e-06
1.29037e-07
2.84524e-06
1.2882e-07
2.85192e-06
1.21355e-07
2.86587e-06
1.05559e-07
2.88164e-06
8.5438e-08
2.89464e-06
6.62745e-08
2.90252e-06
5.15911e-08
2.9056e-06
4.20783e-08
2.90553e-06
3.71505e-08
2.90462e-06
3.49825e-08
3.46237e-08
2.90463e-06
3.13027e-06
4.58228e-07
3.11209e-06
4.01627e-07
3.10945e-06
3.23238e-07
3.11548e-06
2.44274e-07
3.11079e-06
1.9199e-07
3.09367e-06
1.63847e-07
3.07352e-06
1.50747e-07
3.0594e-06
1.43154e-07
3.05561e-06
1.32612e-07
3.06146e-06
1.15506e-07
3.07314e-06
9.38768e-08
3.08593e-06
7.26519e-08
3.09621e-06
5.59878e-08
3.10205e-06
4.57567e-08
3.10368e-06
4.04473e-08
3.10257e-06
3.82634e-08
3.10084e-06
3.67122e-08
3.46899e-08
3.10077e-06
2.83747e-06
4.95395e-07
2.82562e-06
4.1348e-07
2.8243e-06
3.24557e-07
2.81941e-06
2.49168e-07
2.81218e-06
1.99212e-07
2.80783e-06
1.682e-07
2.80657e-06
1.52007e-07
2.80537e-06
1.44354e-07
2.80241e-06
1.35578e-07
2.79847e-06
1.19444e-07
2.79558e-06
9.67691e-08
2.79498e-06
7.32463e-08
2.79649e-06
5.44796e-08
2.79876e-06
4.34848e-08
2.80047e-06
3.87372e-08
2.80094e-06
3.77977e-08
2.80057e-06
3.70811e-08
3.50947e-08
2.80016e-06
3.43449e-06
4.77479e-07
3.40786e-06
4.40114e-07
3.39599e-06
3.36428e-07
3.4042e-06
2.40954e-07
3.42012e-06
1.83297e-07
3.43418e-06
1.54139e-07
3.4428e-06
1.43382e-07
3.44622e-06
1.40938e-07
3.4462e-06
1.35596e-07
3.44403e-06
1.21613e-07
3.43971e-06
1.01086e-07
3.43286e-06
8.00973e-08
3.42364e-06
6.36994e-08
3.41359e-06
5.35333e-08
3.40479e-06
4.7541e-08
3.39935e-06
4.32345e-08
3.39869e-06
3.77449e-08
3.1048e-08
3.40274e-06
4.20855e-06
4.84982e-07
4.22424e-06
4.24424e-07
4.23437e-06
3.26293e-07
4.23403e-06
2.41291e-07
4.2314e-06
1.85933e-07
4.22951e-06
1.56021e-07
4.22544e-06
1.47452e-07
4.21771e-06
1.48671e-07
4.20775e-06
1.45558e-07
4.19751e-06
1.31857e-07
4.18821e-06
1.10383e-07
4.18088e-06
8.74221e-08
4.17677e-06
6.78122e-08
4.17749e-06
5.2814e-08
4.18386e-06
4.11682e-08
4.19587e-06
3.12316e-08
4.21204e-06
2.15666e-08
1.30431e-08
4.23005e-06
5.16919e-06
4.81075e-07
5.12188e-06
4.71734e-07
5.08694e-06
3.61229e-07
5.07089e-06
2.57339e-07
5.06694e-06
1.89885e-07
5.06778e-06
1.55179e-07
5.07031e-06
1.44923e-07
5.07537e-06
1.4361e-07
5.08365e-06
1.37285e-07
5.09407e-06
1.2143e-07
5.10506e-06
9.9401e-08
5.11572e-06
7.67562e-08
5.12634e-06
5.71941e-08
5.13747e-06
4.16798e-08
5.14946e-06
2.9186e-08
5.16183e-06
1.88637e-08
5.17353e-06
9.8617e-09
2.86183e-09
5.18371e-06
6.2629e-06
5.2118e-07
6.31075e-06
4.23886e-07
6.32879e-06
3.43187e-07
6.3175e-06
2.68624e-07
6.29447e-06
2.12923e-07
6.2656e-06
1.84046e-07
6.24196e-06
1.68563e-07
6.23581e-06
1.49756e-07
6.24975e-06
1.23343e-07
6.27626e-06
9.49216e-08
6.30453e-06
7.11381e-08
6.32676e-06
5.45218e-08
6.34041e-06
4.35418e-08
6.34681e-06
3.52809e-08
6.34857e-06
2.74244e-08
6.34819e-06
1.92513e-08
6.34709e-06
1.09576e-08
3.55649e-09
6.34639e-06
7.57901e-06
4.08309e-07
7.62747e-06
3.75427e-07
7.6394e-06
3.31261e-07
7.63435e-06
2.73667e-07
7.61368e-06
2.33593e-07
7.59177e-06
2.05956e-07
7.58763e-06
1.72711e-07
7.6064e-06
1.3098e-07
7.63787e-06
9.18766e-08
7.66788e-06
6.49049e-08
7.68836e-06
5.06603e-08
7.69969e-06
4.31966e-08
7.70702e-06
3.62103e-08
7.7155e-06
2.68005e-08
7.72716e-06
1.57679e-08
7.74091e-06
5.4944e-09
7.7545e-06
-2.62586e-09
-7.26788e-09
7.76532e-06
9.27583e-06
4.4332e-07
9.2516e-06
3.99659e-07
9.26283e-06
3.20031e-07
9.28724e-06
2.49258e-07
9.32071e-06
2.00119e-07
9.36322e-06
1.63447e-07
9.41024e-06
1.25694e-07
9.45253e-06
8.86861e-08
9.48355e-06
6.08558e-08
9.50176e-06
4.66942e-08
9.50851e-06
4.39081e-08
9.50597e-06
4.57376e-08
9.49637e-06
4.58083e-08
9.48204e-06
4.11303e-08
9.46599e-06
3.18245e-08
9.45149e-06
1.99965e-08
9.44123e-06
7.62948e-09
-3.00282e-09
9.43697e-06
1.119e-05
3.8989e-07
1.12557e-05
3.33952e-07
1.12912e-05
2.84605e-07
1.13141e-05
2.26349e-07
1.13492e-05
1.65038e-07
1.13969e-05
1.15692e-07
1.14372e-05
8.53776e-08
1.14558e-05
7.00719e-08
1.14566e-05
6.01434e-08
1.14553e-05
4.79222e-08
1.14667e-05
3.25119e-08
1.14958e-05
1.66989e-08
1.15381e-05
3.51242e-09
1.15859e-05
-6.67441e-09
1.16302e-05
-1.24677e-08
1.1665e-05
-1.48164e-08
1.16876e-05
-1.50389e-08
-1.43679e-08
1.1699e-05
8.34869e-06
5.09891e-07
8.3249e-06
3.57733e-07
8.34781e-06
2.61701e-07
8.40017e-06
1.73991e-07
8.45394e-06
1.11266e-07
8.49532e-06
7.43088e-08
8.51871e-06
6.19929e-08
8.52542e-06
6.33601e-08
8.51973e-06
6.58288e-08
8.50653e-06
6.11277e-08
8.49147e-06
4.75663e-08
8.47977e-06
2.8404e-08
8.47532e-06
7.95753e-09
8.47757e-06
-8.92449e-09
8.48598e-06
-2.08735e-08
8.49891e-06
-2.77434e-08
8.51433e-06
-3.04584e-08
-3.0631e-08
8.53059e-06
7.24443e-06
4.68863e-07
7.25326e-06
3.48902e-07
7.2913e-06
2.23655e-07
7.3326e-06
1.32693e-07
7.36706e-06
7.68043e-08
7.38978e-06
5.15879e-08
7.4027e-06
4.9073e-08
7.41119e-06
5.48733e-08
7.42117e-06
5.58505e-08
7.43504e-06
4.7254e-08
7.45097e-06
3.16348e-08
7.4653e-06
1.40735e-08
7.4747e-06
-1.43889e-09
7.4799e-06
-1.41266e-08
7.48106e-06
-2.20304e-08
7.48007e-06
-2.6752e-08
7.47892e-06
-2.93139e-08
-3.12383e-08
7.47953e-06
6.2971e-06
3.34662e-07
6.36194e-06
2.84066e-07
6.38708e-06
1.98514e-07
6.41178e-06
1.07994e-07
6.4326e-06
5.5983e-08
6.44278e-06
4.14032e-08
6.44638e-06
4.54748e-08
6.45191e-06
4.93422e-08
6.46531e-06
4.24561e-08
6.48683e-06
2.57363e-08
6.51355e-06
4.91478e-09
6.54061e-06
-1.29881e-08
6.56625e-06
-2.7083e-08
6.58872e-06
-3.65958e-08
6.60827e-06
-4.15832e-08
6.62473e-06
-4.32099e-08
6.63779e-06
-4.23687e-08
-4.02801e-08
6.64683e-06
5.55913e-06
2.96566e-07
5.58019e-06
2.63e-07
5.58833e-06
1.90378e-07
5.59265e-06
1.03672e-07
5.60153e-06
4.71064e-08
5.62418e-06
1.87469e-08
5.66133e-06
8.33308e-09
5.70281e-06
7.86167e-09
5.73361e-06
1.16558e-08
5.74487e-06
1.44751e-08
5.73798e-06
1.18074e-08
5.72308e-06
1.9031e-09
5.7114e-06
-1.53938e-08
5.70879e-06
-3.39947e-08
5.71663e-06
-4.94193e-08
5.73261e-06
-5.91897e-08
5.7534e-06
-6.3157e-08
-6.2699e-08
5.77582e-06
4.89897e-06
3.65364e-07
4.89776e-06
2.64214e-07
4.91709e-06
1.71051e-07
4.92356e-06
9.71982e-08
4.92562e-06
4.50427e-08
4.93365e-06
1.07236e-08
4.94899e-06
-7.00819e-09
4.96651e-06
-9.65814e-09
4.98339e-06
-5.22458e-09
5.00046e-06
-2.59837e-09
5.01983e-06
-7.56267e-09
5.04231e-06
-2.05732e-08
5.06429e-06
-3.73737e-08
5.08294e-06
-5.26474e-08
5.09612e-06
-6.25925e-08
5.10345e-06
-6.65197e-08
5.10575e-06
-6.54584e-08
-6.16963e-08
5.10474e-06
4.18628e-06
4.0425e-07
4.26265e-06
1.87848e-07
4.34052e-06
9.31826e-08
4.37591e-06
6.18121e-08
4.39106e-06
2.98862e-08
4.40055e-06
1.23633e-09
4.4091e-06
-1.55545e-08
4.41751e-06
-1.80753e-08
4.42847e-06
-1.61776e-08
4.44406e-06
-1.81957e-08
4.46342e-06
-2.69224e-08
4.48238e-06
-3.95307e-08
4.49649e-06
-5.14872e-08
4.50318e-06
-5.93317e-08
4.5026e-06
-6.20113e-08
4.49682e-06
-6.07417e-08
4.48866e-06
-5.72988e-08
-5.39758e-08
4.48094e-06
3.71997e-06
3.65417e-07
3.7626e-06
1.4522e-07
3.76214e-06
9.36446e-08
3.77048e-06
5.34647e-08
3.80396e-06
-3.58662e-09
3.84494e-06
-3.97422e-08
3.8791e-06
-4.97143e-08
3.90315e-06
-4.21262e-08
3.91937e-06
-3.24033e-08
3.92997e-06
-2.87972e-08
3.93528e-06
-3.22291e-08
3.93556e-06
-3.98143e-08
3.93184e-06
-4.77664e-08
3.92583e-06
-5.33233e-08
3.91949e-06
-5.56622e-08
3.91437e-06
-5.56237e-08
3.91147e-06
-5.43997e-08
-5.34669e-08
3.91096e-06
3.23184e-06
3.29245e-07
3.2931e-06
8.39617e-08
3.33283e-06
5.39128e-08
3.36618e-06
2.01122e-08
3.38557e-06
-2.29737e-08
3.39299e-06
-4.71618e-08
3.39759e-06
-5.43183e-08
3.40734e-06
-5.18687e-08
3.42248e-06
-4.75456e-08
3.43935e-06
-4.56714e-08
3.45387e-06
-4.67456e-08
3.46355e-06
-4.94969e-08
3.46803e-06
-5.22461e-08
3.4686e-06
-5.38964e-08
3.4672e-06
-5.42558e-08
3.46557e-06
-5.39951e-08
3.46484e-06
-5.36662e-08
-5.40438e-08
3.46541e-06
2.84359e-06
1.45192e-07
2.91645e-06
1.11008e-08
2.93725e-06
3.31131e-08
2.95796e-06
-5.93906e-10
2.97587e-06
-4.08874e-08
2.99403e-06
-6.53178e-08
3.01123e-06
-7.15182e-08
3.0252e-06
-6.58429e-08
3.03346e-06
-5.58054e-08
3.03585e-06
-4.8065e-08
3.03457e-06
-4.546e-08
3.03236e-06
-4.72879e-08
3.03109e-06
-5.09822e-08
3.03146e-06
-5.42647e-08
3.03325e-06
-5.60399e-08
3.03592e-06
-5.66639e-08
3.03888e-06
-5.66299e-08
-5.67517e-08
3.04159e-06
2.48189e-06
4.67741e-08
2.53332e-06
-4.03318e-08
2.58656e-06
-2.01278e-08
2.62408e-06
-3.81123e-08
2.63978e-06
-5.65877e-08
2.63891e-06
-6.44535e-08
2.6307e-06
-6.33084e-08
2.62137e-06
-5.65049e-08
2.61442e-06
-4.88639e-08
2.61109e-06
-4.47307e-08
2.61058e-06
-4.49472e-08
2.61063e-06
-4.73381e-08
2.60874e-06
-4.9091e-08
2.60324e-06
-4.87707e-08
2.59377e-06
-4.65672e-08
2.58079e-06
-4.36814e-08
2.56521e-06
-4.10528e-08
-3.95573e-08
2.54802e-06
2.15757e-06
2.11724e-06
2.09711e-06
2.059e-06
2.00241e-06
1.93795e-06
1.87465e-06
1.81814e-06
1.76928e-06
1.72455e-06
1.6796e-06
1.63226e-06
1.58317e-06
1.5344e-06
1.48783e-06
1.44415e-06
1.4031e-06
1.36354e-06
-4.45286e-08
4.45286e-08
-9.94367e-08
5.4908e-08
-1.55987e-07
5.65498e-08
-2.15116e-07
5.91293e-08
-2.77262e-07
6.21464e-08
-3.42777e-07
6.55153e-08
-4.11825e-07
6.90472e-08
-4.84414e-07
7.25896e-08
-5.60432e-07
7.60177e-08
-6.39666e-07
7.92344e-08
-7.21834e-07
8.21671e-08
-8.06591e-07
8.47571e-08
-8.93547e-07
8.69567e-08
-9.82291e-07
8.87439e-08
-1.07237e-06
9.00837e-08
-1.16314e-06
9.07662e-08
-1.25387e-06
9.07264e-08
-1.3438e-06
8.99309e-08
-1.43211e-06
8.83134e-08
-1.51791e-06
8.57999e-08
-1.60023e-06
8.23191e-08
-1.67804e-06
7.78112e-08
-1.75027e-06
7.22306e-08
-1.81582e-06
6.55506e-08
-1.87359e-06
5.77694e-08
-1.92251e-06
4.8919e-08
-1.96158e-06
3.90672e-08
-1.98989e-06
2.83149e-08
-2.0067e-06
1.68052e-08
-2.01144e-06
4.74196e-09
-2.00372e-06
-7.72253e-09
-1.98347e-06
-2.02508e-08
-1.95077e-06
-3.26957e-08
-1.90588e-06
-4.48924e-08
-1.84921e-06
-5.66739e-08
-1.78133e-06
-6.78716e-08
-1.70301e-06
-7.83283e-08
-1.6151e-06
-8.79072e-08
-1.5186e-06
-9.64985e-08
-1.41458e-06
-1.04023e-07
-1.30415e-06
-1.10431e-07
-1.18844e-06
-1.15704e-07
-1.0686e-06
-1.19843e-07
-9.45713e-07
-1.22887e-07
-8.2082e-07
-1.24893e-07
-6.9491e-07
-1.2591e-07
-5.68855e-07
-1.26054e-07
-4.43511e-07
-1.25345e-07
-3.19523e-07
-1.23988e-07
-1.97579e-07
-1.21944e-07
-7.8282e-08
-1.19297e-07
3.81798e-08
-1.16462e-07
1.51278e-07
-1.13098e-07
2.60729e-07
-1.09451e-07
3.66313e-07
-1.05585e-07
4.67872e-07
-1.01559e-07
5.65297e-07
-9.74255e-08
6.58528e-07
-9.32305e-08
7.47541e-07
-8.90127e-08
8.32346e-07
-8.4805e-08
9.12981e-07
-8.06353e-08
9.89508e-07
-7.65268e-08
1.06201e-06
-7.24987e-08
1.13057e-06
-6.85663e-08
1.19531e-06
-6.4742e-08
1.25635e-06
-6.10356e-08
1.3138e-06
-5.74542e-08
1.36781e-06
-5.40034e-08
1.41849e-06
-5.06868e-08
1.466e-06
-4.75064e-08
1.51046e-06
-4.44635e-08
1.55202e-06
-4.1558e-08
1.59081e-06
-3.87888e-08
1.62697e-06
-3.61544e-08
1.66062e-06
-3.36525e-08
1.6919e-06
-3.12803e-08
1.72093e-06
-2.90345e-08
1.74785e-06
-2.69117e-08
1.77275e-06
-2.49078e-08
1.79577e-06
-2.30191e-08
1.81701e-06
-2.12412e-08
1.83658e-06
-1.95696e-08
1.85458e-06
-1.79996e-08
1.87111e-06
-1.65267e-08
1.88626e-06
-1.51464e-08
1.90011e-06
-1.38538e-08
1.91275e-06
-1.26447e-08
1.92427e-06
-1.15145e-08
1.93473e-06
-1.04589e-08
1.9442e-06
-9.47356e-09
1.95276e-06
-8.55437e-09
1.96045e-06
-7.69747e-09
1.96735e-06
-6.89881e-09
1.97351e-06
-6.15487e-09
1.97897e-06
-5.46217e-09
1.98379e-06
-4.81699e-09
1.988e-06
-4.21639e-09
1.99166e-06
-3.65779e-09
1.9948e-06
-3.13719e-09
1.99745e-06
-2.65265e-09
1.99965e-06
-2.20257e-09
2.00143e-06
-1.78145e-09
2.00282e-06
-1.39022e-09
2.00385e-06
-1.02627e-09
2.00453e-06
-6.81962e-10
2.0049e-06
-3.63469e-10
2.00496e-06
-6.3065e-11
2.00471e-06
2.45642e-10
2.00417e-06
5.42835e-10
2.00335e-06
8.24086e-10
2.00226e-06
1.08763e-09
2.00093e-06
1.33325e-09
1.99936e-06
1.56268e-09
1.99758e-06
1.7801e-09
1.9956e-06
1.98361e-09
1.99343e-06
2.16931e-09
1.9911e-06
2.33385e-09
1.98862e-06
2.47535e-09
1.98603e-06
2.59513e-09
1.98333e-06
2.69755e-09
1.98054e-06
2.7877e-09
1.97767e-06
2.87023e-09
1.97472e-06
2.94818e-09
1.9717e-06
3.02316e-09
1.9686e-06
3.09564e-09
1.96544e-06
3.16552e-09
1.9622e-06
3.23282e-09
1.95891e-06
3.29739e-09
1.95555e-06
3.35939e-09
1.95213e-06
3.41895e-09
1.94865e-06
3.47624e-09
1.94512e-06
3.5315e-09
1.94154e-06
3.58484e-09
1.9379e-06
3.6365e-09
1.93421e-06
3.68664e-09
1.93048e-06
3.73541e-09
1.92669e-06
3.78293e-09
1.92287e-06
3.82942e-09
1.91899e-06
3.87492e-09
1.91507e-06
3.91957e-09
1.91111e-06
3.96349e-09
1.9071e-06
4.00679e-09
1.90305e-06
4.04964e-09
1.89896e-06
4.09213e-09
1.89482e-06
4.13441e-09
1.89065e-06
4.17657e-09
1.88643e-06
4.21877e-09
1.88217e-06
4.26116e-09
1.87786e-06
4.30396e-09
1.87352e-06
4.34738e-09
1.86912e-06
4.39164e-09
1.86469e-06
4.43711e-09
1.8602e-06
4.48416e-09
1.85567e-06
4.53324e-09
1.85109e-06
4.58495e-09
1.84645e-06
4.64003e-09
1.84175e-06
4.69935e-09
1.83698e-06
4.76418e-09
1.83215e-06
4.83568e-09
1.82723e-06
4.91636e-09
1.82222e-06
5.0075e-09
1.81711e-06
5.1143e-09
1.81187e-06
5.23757e-09
1.80648e-06
5.387e-09
1.80092e-06
5.566e-09
1.79514e-06
5.78177e-09
1.78907e-06
6.06771e-09
1.78269e-06
6.37683e-09
1.7758e-06
6.88731e-09
1.76849e-06
7.30998e-09
1.76017e-06
8.32311e-09
1.75134e-06
8.82894e-09
1.74026e-06
1.10792e-08
1.72887e-06
1.13937e-08
1.71186e-06
1.70127e-08
1.69577e-06
1.60837e-08
1.66384e-06
3.19278e-08
1.63669e-06
2.71501e-08
1.55392e-06
8.27746e-08
7.97832e-08
1.47414e-06
-7.06279e-08
1.15157e-07
-1.54772e-07
1.39052e-07
-2.38973e-07
1.4075e-07
-3.23766e-07
1.43923e-07
-4.08967e-07
1.47347e-07
-4.94551e-07
1.51099e-07
-5.80457e-07
1.54953e-07
-6.66647e-07
1.58779e-07
-7.53092e-07
1.62463e-07
-8.39753e-07
1.65896e-07
-9.26561e-07
1.68975e-07
-1.01341e-06
1.71601e-07
-1.10013e-06
1.73682e-07
-1.18651e-06
1.75126e-07
-1.27224e-06
1.75815e-07
-1.35706e-06
1.7558e-07
-1.44058e-06
1.74252e-07
-1.52232e-06
1.71671e-07
-1.60169e-06
1.67679e-07
-1.67801e-06
1.62118e-07
-1.75052e-06
1.54837e-07
-1.81842e-06
1.45706e-07
-1.8808e-06
1.34617e-07
-1.93676e-06
1.21505e-07
-1.98534e-06
1.0635e-07
-2.02561e-06
8.91917e-08
-2.05668e-06
7.01391e-08
-2.07774e-06
4.93701e-08
-2.08807e-06
2.71372e-08
-2.08721e-06
3.87767e-09
-2.07384e-06
-2.10931e-08
-2.04782e-06
-4.62643e-08
-2.00906e-06
-7.14587e-08
-1.95769e-06
-9.62618e-08
-1.89411e-06
-1.20251e-07
-1.81894e-06
-1.43042e-07
-1.73298e-06
-1.64295e-07
-1.63716e-06
-1.83726e-07
-1.53254e-06
-2.01114e-07
-1.42026e-06
-2.16304e-07
-1.30149e-06
-2.29205e-07
-1.1774e-06
-2.39795e-07
-1.04917e-06
-2.48074e-07
-9.17926e-07
-2.54126e-07
-7.8475e-07
-2.58069e-07
-6.50568e-07
-2.60092e-07
-5.16307e-07
-2.60315e-07
-3.82761e-07
-2.58891e-07
-2.50622e-07
-2.56127e-07
-1.20542e-07
-2.52024e-07
7.21264e-09
-2.47052e-07
1.31865e-07
-2.41114e-07
2.53254e-07
-2.34487e-07
3.71101e-07
-2.27297e-07
4.85196e-07
-2.1968e-07
5.95391e-07
-2.11753e-07
7.01585e-07
-2.0362e-07
8.03722e-07
-1.95367e-07
9.0178e-07
-1.87071e-07
9.9577e-07
-1.78794e-07
1.08572e-06
-1.7059e-07
1.1717e-06
-1.62502e-07
1.25377e-06
-1.54565e-07
1.33201e-06
-1.46809e-07
1.40652e-06
-1.39256e-07
1.47741e-06
-1.31923e-07
1.54478e-06
-1.24824e-07
1.60874e-06
-1.17968e-07
1.66942e-06
-1.11361e-07
1.72692e-06
-1.05008e-07
1.78136e-06
-9.89091e-08
1.83287e-06
-9.30647e-08
1.88156e-06
-8.74728e-08
1.92753e-06
-8.21303e-08
1.97091e-06
-7.70329e-08
2.01181e-06
-7.21758e-08
2.05033e-06
-6.75532e-08
2.08657e-06
-6.31587e-08
2.12065e-06
-5.89858e-08
2.15266e-06
-5.50274e-08
2.18269e-06
-5.12762e-08
2.21085e-06
-4.77247e-08
2.23721e-06
-4.43652e-08
2.26188e-06
-4.11901e-08
2.28492e-06
-3.81916e-08
2.30643e-06
-3.53622e-08
2.32648e-06
-3.26942e-08
2.34515e-06
-3.01801e-08
2.3625e-06
-2.78126e-08
2.37861e-06
-2.55843e-08
2.39355e-06
-2.34883e-08
2.40737e-06
-2.15179e-08
2.42013e-06
-1.96661e-08
2.4319e-06
-1.79268e-08
2.44274e-06
-1.62937e-08
2.45268e-06
-1.47607e-08
2.46179e-06
-1.33222e-08
2.4701e-06
-1.19729e-08
2.47767e-06
-1.0707e-08
2.48454e-06
-9.52007e-09
2.49074e-06
-8.40735e-09
2.49632e-06
-7.36332e-09
2.50132e-06
-6.38475e-09
2.50576e-06
-5.46744e-09
2.50968e-06
-4.60568e-09
2.51312e-06
-3.79734e-09
2.5161e-06
-3.04058e-09
2.51867e-06
-2.32569e-09
2.52086e-06
-1.64933e-09
2.5227e-06
-1.01288e-09
2.5242e-06
-4.13737e-10
2.52538e-06
1.49523e-10
2.52627e-06
6.7716e-10
2.52687e-06
1.17434e-09
2.52722e-06
1.63859e-09
2.52732e-06
2.06832e-09
2.52719e-06
2.46189e-09
2.52685e-06
2.81839e-09
2.5263e-06
3.14102e-09
2.52556e-06
3.4359e-09
2.52464e-06
3.71015e-09
2.52354e-06
3.97002e-09
2.52227e-06
4.21956e-09
2.52083e-06
4.4606e-09
2.51923e-06
4.69336e-09
2.51748e-06
4.91724e-09
2.51558e-06
5.13161e-09
2.51354e-06
5.33616e-09
2.51137e-06
5.53092e-09
2.50908e-06
5.71615e-09
2.50666e-06
5.89234e-09
2.50413e-06
6.06002e-09
2.5015e-06
6.21975e-09
2.49876e-06
6.37212e-09
2.49593e-06
6.51771e-09
2.49301e-06
6.65696e-09
2.49e-06
6.79052e-09
2.48691e-06
6.91874e-09
2.48374e-06
7.04215e-09
2.4805e-06
7.16118e-09
2.47719e-06
7.27625e-09
2.47381e-06
7.3877e-09
2.47036e-06
7.49601e-09
2.46685e-06
7.6015e-09
2.46328e-06
7.70461e-09
2.45965e-06
7.80566e-09
2.45597e-06
7.90508e-09
2.45223e-06
8.00325e-09
2.44843e-06
8.10069e-09
2.44458e-06
8.19787e-09
2.44067e-06
8.29535e-09
2.43672e-06
8.39383e-09
2.43271e-06
8.49397e-09
2.42864e-06
8.5968e-09
2.42453e-06
8.70337e-09
2.42035e-06
8.81501e-09
2.41612e-06
8.93342e-09
2.41182e-06
9.06058e-09
2.40746e-06
9.19939e-09
2.40302e-06
9.35263e-09
2.3985e-06
9.52584e-09
2.39389e-06
9.72184e-09
2.38918e-06
9.95352e-09
2.38435e-06
1.02181e-08
2.37936e-06
1.05534e-08
2.37422e-06
1.09237e-08
2.36883e-06
1.14531e-08
2.36323e-06
1.19795e-08
2.35723e-06
1.28925e-08
2.3509e-06
1.36339e-08
2.34387e-06
1.53593e-08
2.33636e-06
1.63376e-08
2.32749e-06
1.99483e-08
2.31787e-06
2.1015e-08
2.30551e-06
2.93645e-08
2.2915e-06
3.00978e-08
2.27149e-06
5.19383e-08
2.24582e-06
5.28174e-08
2.20989e-06
1.18709e-07
1.30055e-07
2.15962e-06
-7.13399e-08
1.86496e-07
-1.56222e-07
2.23934e-07
-2.40767e-07
2.25295e-07
-3.25303e-07
2.28458e-07
-4.09645e-07
2.31689e-07
-4.93819e-07
2.35274e-07
-5.77919e-07
2.39052e-07
-6.62122e-07
2.42983e-07
-7.46601e-07
2.46942e-07
-8.31515e-07
2.5081e-07
-9.16994e-07
2.54454e-07
-1.00311e-06
2.57718e-07
-1.08986e-06
2.60431e-07
-1.17713e-06
2.62398e-07
-1.26472e-06
2.63401e-07
-1.35233e-06
2.63192e-07
-1.43959e-06
2.61507e-07
-1.52598e-06
2.58066e-07
-1.61088e-06
2.5258e-07
-1.69353e-06
2.44762e-07
-1.77302e-06
2.34334e-07
-1.84836e-06
2.21045e-07
-1.91843e-06
2.04688e-07
-1.98204e-06
1.85113e-07
-2.03795e-06
1.6226e-07
-2.08492e-06
1.36162e-07
-2.12176e-06
1.06972e-07
-2.14736e-06
7.49729e-08
-2.16081e-06
4.05888e-08
-2.1615e-06
4.56528e-09
-2.14831e-06
-3.42754e-08
-2.12114e-06
-7.34418e-08
-2.08006e-06
-1.12532e-07
-2.02543e-06
-1.50898e-07
-1.95779e-06
-1.87893e-07
-1.87791e-06
-2.22917e-07
-1.78677e-06
-2.5544e-07
-1.68546e-06
-2.85028e-07
-1.57523e-06
-3.11349e-07
-1.45735e-06
-3.34178e-07
-1.33316e-06
-3.53395e-07
-1.20398e-06
-3.68974e-07
-1.07106e-06
-3.80998e-07
-9.3558e-07
-3.89606e-07
-7.98638e-07
-3.95012e-07
-6.61252e-07
-3.97478e-07
-5.24309e-07
-3.97258e-07
-3.8856e-07
-3.9464e-07
-2.5478e-07
-3.89907e-07
-1.23363e-07
-3.83441e-07
4.99001e-09
-3.75405e-07
1.30128e-07
-3.66252e-07
2.51692e-07
-3.56052e-07
3.69468e-07
-3.45074e-07
4.83301e-07
-3.33513e-07
5.93086e-07
-3.21539e-07
6.98768e-07
-3.09301e-07
8.00326e-07
-2.96925e-07
8.97771e-07
-2.84517e-07
9.91143e-07
-2.72166e-07
1.0805e-06
-2.59947e-07
1.16592e-06
-2.4792e-07
1.24749e-06
-2.36134e-07
1.32531e-06
-2.24627e-07
1.39948e-06
-2.1343e-07
1.47012e-06
-2.02565e-07
1.53735e-06
-1.92049e-07
1.60127e-06
-1.81894e-07
1.66202e-06
-1.72105e-07
1.7197e-06
-1.62688e-07
1.77443e-06
-1.53643e-07
1.82633e-06
-1.44967e-07
1.87552e-06
-1.36656e-07
1.92209e-06
-1.28706e-07
1.96617e-06
-1.21108e-07
2.00785e-06
-1.13855e-07
2.04723e-06
-1.06939e-07
2.08442e-06
-1.0035e-07
2.11952e-06
-9.40769e-08
2.1526e-06
-8.81109e-08
2.18376e-06
-8.24411e-08
2.2131e-06
-7.70569e-08
2.24068e-06
-7.19476e-08
2.26659e-06
-6.71025e-08
2.29091e-06
-6.25111e-08
2.31371e-06
-5.81628e-08
2.33506e-06
-5.40473e-08
2.35504e-06
-5.01544e-08
2.3737e-06
-4.64742e-08
2.39111e-06
-4.29969e-08
2.40734e-06
-3.9713e-08
2.42243e-06
-3.66133e-08
2.43645e-06
-3.36888e-08
2.44946e-06
-3.09309e-08
2.4615e-06
-2.83312e-08
2.47262e-06
-2.58814e-08
2.48287e-06
-2.35738e-08
2.4923e-06
-2.1401e-08
2.50095e-06
-1.93555e-08
2.50886e-06
-1.74305e-08
2.51607e-06
-1.56195e-08
2.52262e-06
-1.39156e-08
2.52855e-06
-1.23133e-08
2.53389e-06
-1.08065e-08
2.53867e-06
-9.38915e-09
2.54293e-06
-8.05563e-09
2.54669e-06
-6.80142e-09
2.54999e-06
-5.62062e-09
2.55284e-06
-4.50811e-09
2.55529e-06
-3.46151e-09
2.55736e-06
-2.47972e-09
2.55907e-06
-1.56032e-09
2.56045e-06
-7.00923e-10
2.56151e-06
1.08239e-10
2.56228e-06
8.68559e-10
2.56277e-06
1.57735e-09
2.563e-06
2.23605e-09
2.56297e-06
2.84395e-09
2.56271e-06
3.40527e-09
2.56222e-06
3.92644e-09
2.56151e-06
4.41455e-09
2.56061e-06
4.87592e-09
2.55951e-06
5.31488e-09
2.55824e-06
5.73399e-09
2.5568e-06
6.13405e-09
2.5552e-06
6.5154e-09
2.55345e-06
6.87814e-09
2.55157e-06
7.22255e-09
2.54955e-06
7.54925e-09
2.54741e-06
7.85905e-09
2.54515e-06
8.15283e-09
2.54277e-06
8.43164e-09
2.5403e-06
8.69646e-09
2.53772e-06
8.94825e-09
2.53505e-06
9.18792e-09
2.53229e-06
9.41645e-09
2.52945e-06
9.63465e-09
2.52652e-06
9.84338e-09
2.52352e-06
1.00434e-08
2.52045e-06
1.02354e-08
2.5173e-06
1.04202e-08
2.51409e-06
1.05984e-08
2.51082e-06
1.07706e-08
2.50748e-06
1.09376e-08
2.50409e-06
1.10999e-08
2.50064e-06
1.12581e-08
2.49713e-06
1.1413e-08
2.49357e-06
1.15651e-08
2.48995e-06
1.17152e-08
2.48628e-06
1.18641e-08
2.48257e-06
1.20125e-08
2.4788e-06
1.21615e-08
2.47498e-06
1.23122e-08
2.47111e-06
1.24659e-08
2.46719e-06
1.26242e-08
2.46322e-06
1.27888e-08
2.45919e-06
1.29625e-08
2.4551e-06
1.31474e-08
2.45095e-06
1.33485e-08
2.44674e-06
1.35682e-08
2.44245e-06
1.38163e-08
2.43808e-06
1.40931e-08
2.43361e-06
1.44226e-08
2.42903e-06
1.47906e-08
2.42432e-06
1.5264e-08
2.41947e-06
1.57743e-08
2.41441e-06
1.65114e-08
2.40915e-06
1.72413e-08
2.40357e-06
1.84782e-08
2.39766e-06
1.9544e-08
2.39123e-06
2.17836e-08
2.38423e-06
2.33395e-08
2.37642e-06
2.77579e-08
2.36741e-06
3.00303e-08
2.35723e-06
3.95433e-08
2.34402e-06
4.33023e-08
2.33004e-06
6.59198e-08
2.308e-06
7.48586e-08
2.2925e-06
1.34207e-07
1.64825e-07
2.25773e-06
-6.68694e-08
2.53366e-07
-1.47279e-07
3.04344e-07
-2.2778e-07
3.05796e-07
-3.08756e-07
3.09434e-07
-3.90182e-07
3.13115e-07
-4.72279e-07
3.17371e-07
-5.55204e-07
3.21978e-07
-6.39081e-07
3.2686e-07
-7.24086e-07
3.31946e-07
-8.10398e-07
3.37122e-07
-8.98138e-07
3.42194e-07
-9.87354e-07
3.46935e-07
-1.07801e-06
3.51091e-07
-1.16999e-06
3.54378e-07
-1.26307e-06
3.56478e-07
-1.35693e-06
3.57048e-07
-1.45113e-06
3.55709e-07
-1.54511e-06
3.5205e-07
-1.63817e-06
3.4564e-07
-1.72944e-06
3.36032e-07
-1.8179e-06
3.2279e-07
-1.90235e-06
3.05502e-07
-1.98148e-06
2.83818e-07
-2.05385e-06
2.57474e-07
-2.11792e-06
2.26337e-07
-2.17219e-06
1.90429e-07
-2.21518e-06
1.4996e-07
-2.24554e-06
1.05337e-07
-2.26215e-06
5.71993e-08
-2.26418e-06
6.59638e-09
-2.25058e-06
-4.78796e-08
-2.22122e-06
-1.02806e-07
-2.17621e-06
-1.57543e-07
-2.11601e-06
-2.11098e-07
-2.04139e-06
-2.62505e-07
-1.95342e-06
-3.10893e-07
-1.85333e-06
-3.55527e-07
-1.74255e-06
-3.95813e-07
-1.62258e-06
-4.31311e-07
-1.49501e-06
-4.61749e-07
-1.36139e-06
-4.87017e-07
-1.22322e-06
-5.07147e-07
-1.08193e-06
-5.2229e-07
-9.38822e-07
-5.3271e-07
-7.95101e-07
-5.38733e-07
-6.51784e-07
-5.40795e-07
-5.09803e-07
-5.39239e-07
-3.69862e-07
-5.34581e-07
-2.3256e-07
-5.27208e-07
-9.85481e-08
-5.17453e-07
3.2028e-08
-5.05981e-07
1.58687e-07
-4.92911e-07
2.81271e-07
-4.78635e-07
3.99631e-07
-4.63434e-07
5.13678e-07
-4.47559e-07
6.23367e-07
-4.31228e-07
7.28694e-07
-4.14629e-07
8.29688e-07
-3.97919e-07
9.26403e-07
-3.81231e-07
1.01891e-06
-3.64675e-07
1.10731e-06
-3.4834e-07
1.19168e-06
-3.32299e-07
1.27216e-06
-3.16609e-07
1.34885e-06
-3.01316e-07
1.42187e-06
-2.86455e-07
1.49136e-06
-2.7205e-07
1.55743e-06
-2.58121e-07
1.62021e-06
-2.44678e-07
1.67984e-06
-2.31728e-07
1.73642e-06
-2.19273e-07
1.79009e-06
-2.07312e-07
1.84096e-06
-1.9584e-07
1.88916e-06
-1.84849e-07
1.93478e-06
-1.74332e-07
1.97795e-06
-1.64278e-07
2.01877e-06
-1.54675e-07
2.05734e-06
-1.45511e-07
2.09377e-06
-1.36773e-07
2.12814e-06
-1.28447e-07
2.16055e-06
-1.20519e-07
2.19108e-06
-1.12977e-07
2.21983e-06
-1.05805e-07
2.24687e-06
-9.89897e-08
2.27229e-06
-9.25173e-08
2.29615e-06
-8.6374e-08
2.31853e-06
-8.05463e-08
2.33951e-06
-7.50211e-08
2.35914e-06
-6.97854e-08
2.37749e-06
-6.48264e-08
2.39463e-06
-6.0132e-08
2.4106e-06
-5.56901e-08
2.42548e-06
-5.14891e-08
2.43931e-06
-4.75178e-08
2.45214e-06
-4.37652e-08
2.46403e-06
-4.02209e-08
2.47502e-06
-3.68745e-08
2.48517e-06
-3.37161e-08
2.4945e-06
-3.07366e-08
2.50307e-06
-2.79265e-08
2.51092e-06
-2.52771e-08
2.51808e-06
-2.27801e-08
2.52459e-06
-2.04273e-08
2.53049e-06
-1.82108e-08
2.53581e-06
-1.61235e-08
2.54058e-06
-1.41577e-08
2.54483e-06
-1.23064e-08
2.54859e-06
-1.05637e-08
2.55189e-06
-8.92318e-09
2.55476e-06
-7.37911e-09
2.55723e-06
-5.92692e-09
2.55931e-06
-4.56155e-09
2.56103e-06
-3.27897e-09
2.5624e-06
-2.07383e-09
2.56345e-06
-9.42761e-10
2.5642e-06
1.19402e-10
2.56467e-06
1.11131e-09
2.56486e-06
2.0383e-09
2.56481e-06
2.90224e-09
2.5645e-06
3.7076e-09
2.56397e-06
4.45994e-09
2.56322e-06
5.16552e-09
2.56227e-06
5.83017e-09
2.56112e-06
6.4584e-09
2.5598e-06
7.05366e-09
2.55832e-06
7.61817e-09
2.55668e-06
8.15346e-09
2.5549e-06
8.66089e-09
2.55298e-06
9.14155e-09
2.55093e-06
9.5968e-09
2.54876e-06
1.00279e-08
2.54648e-06
1.04363e-08
2.54409e-06
1.08235e-08
2.54159e-06
1.11907e-08
2.539e-06
1.15394e-08