/*--------------------------------*- C++ -*----------------------------------*\
  =========                 |
  \\      /  F ield         | OpenFOAM: The Open Source CFD Toolbox
   \\    /   O peration     | Website:  https://openfoam.org
    \\  /    A nd           | Version:  7
     \\/     M anipulation  |
\*---------------------------------------------------------------------------*/
FoamFile
{
    version     2.0;
    format      ascii;
    class       volScalarField;
    location    "0.015";
    object      pPrime2Mean;
}
// * * * * * * * * * * * * * * * * * * * * * * * * * * * * * * * * * * * * * //

dimensions      [0 4 -4 0 0 0 0];

internalField   nonuniform List<scalar> 
12225
(
2.36494e+07
2.32714e+07
2.28814e+07
2.25054e+07
2.21445e+07
2.17974e+07
2.14631e+07
2.11407e+07
2.0829e+07
2.05269e+07
2.02332e+07
1.99465e+07
1.96651e+07
1.93868e+07
1.91088e+07
1.88266e+07
1.85321e+07
1.82055e+07
2.36497e+07
2.32716e+07
2.28815e+07
2.25056e+07
2.21447e+07
2.17976e+07
2.14634e+07
2.1141e+07
2.08294e+07
2.05275e+07
2.02339e+07
1.99474e+07
1.96663e+07
1.93885e+07
1.91112e+07
1.88304e+07
1.85393e+07
1.82218e+07
2.36502e+07
2.32719e+07
2.28819e+07
2.2506e+07
2.21451e+07
2.17981e+07
2.1464e+07
2.11418e+07
2.08303e+07
2.05286e+07
2.02354e+07
1.99493e+07
1.96688e+07
1.9392e+07
1.91164e+07
1.88386e+07
1.85538e+07
1.82558e+07
2.36507e+07
2.32725e+07
2.28825e+07
2.25066e+07
2.21459e+07
2.1799e+07
2.14651e+07
2.1143e+07
2.08319e+07
2.05305e+07
2.02378e+07
1.99524e+07
1.96729e+07
1.93977e+07
1.91246e+07
1.88513e+07
1.85752e+07
1.82964e+07
2.36514e+07
2.32732e+07
2.28833e+07
2.25076e+07
2.21469e+07
2.18003e+07
2.14666e+07
2.11449e+07
2.08341e+07
2.05333e+07
2.02413e+07
1.99569e+07
1.96789e+07
1.94058e+07
1.91361e+07
1.88684e+07
1.86021e+07
1.83404e+07
2.36523e+07
2.32743e+07
2.28845e+07
2.25089e+07
2.21484e+07
2.1802e+07
2.14687e+07
2.11474e+07
2.08372e+07
2.05371e+07
2.02461e+07
1.99631e+07
1.96869e+07
1.94166e+07
1.9151e+07
1.88896e+07
1.86332e+07
1.8386e+07
2.36535e+07
2.32757e+07
2.28861e+07
2.25106e+07
2.21504e+07
2.18044e+07
2.14714e+07
2.11507e+07
2.08412e+07
2.05421e+07
2.02523e+07
1.9971e+07
1.96972e+07
1.94301e+07
1.91691e+07
1.89145e+07
1.86676e+07
1.84324e+07
2.36551e+07
2.32775e+07
2.28881e+07
2.25129e+07
2.2153e+07
2.18073e+07
2.14749e+07
2.11549e+07
2.08464e+07
2.05484e+07
2.02602e+07
1.99809e+07
1.97098e+07
1.94463e+07
1.91904e+07
1.89425e+07
1.87044e+07
1.84793e+07
2.36573e+07
2.32799e+07
2.28906e+07
2.25157e+07
2.21562e+07
2.1811e+07
2.14793e+07
2.11602e+07
2.08527e+07
2.05562e+07
2.02697e+07
1.99928e+07
1.97247e+07
1.94653e+07
1.92146e+07
1.89734e+07
1.87431e+07
1.85263e+07
2.36599e+07
2.32828e+07
2.28938e+07
2.25192e+07
2.21601e+07
2.18156e+07
2.14847e+07
2.11665e+07
2.08604e+07
2.05655e+07
2.02811e+07
2.00068e+07
1.97421e+07
1.94869e+07
1.92414e+07
1.90065e+07
1.87832e+07
1.85735e+07
2.36639e+07
2.32865e+07
2.28976e+07
2.25234e+07
2.21649e+07
2.18211e+07
2.14911e+07
2.11742e+07
2.08695e+07
2.05765e+07
2.02945e+07
2.0023e+07
1.97619e+07
1.9511e+07
1.92706e+07
1.90415e+07
1.88245e+07
1.86208e+07
2.36674e+07
2.32905e+07
2.29018e+07
2.2528e+07
2.21701e+07
2.18271e+07
2.14981e+07
2.11824e+07
2.08793e+07
2.05882e+07
2.03085e+07
2.00398e+07
1.9782e+07
1.95351e+07
1.92993e+07
1.90751e+07
1.88631e+07
1.86642e+07
2.36724e+07
2.32952e+07
2.29067e+07
2.25333e+07
2.2176e+07
2.18339e+07
2.1506e+07
2.11917e+07
2.08902e+07
2.06011e+07
2.03239e+07
2.00581e+07
1.98037e+07
1.95606e+07
1.9329e+07
1.91093e+07
1.89019e+07
1.87071e+07
2.3679e+07
2.33014e+07
2.29131e+07
2.25403e+07
2.21838e+07
2.18428e+07
2.15163e+07
2.12037e+07
2.09043e+07
2.06177e+07
2.03433e+07
2.00809e+07
1.98303e+07
1.95914e+07
1.93644e+07
1.91494e+07
1.89465e+07
1.87558e+07
2.36875e+07
2.33096e+07
2.29216e+07
2.25494e+07
2.2194e+07
2.18544e+07
2.15296e+07
2.12191e+07
2.09223e+07
2.06386e+07
2.03675e+07
2.01089e+07
1.98625e+07
1.96282e+07
1.94059e+07
1.91956e+07
1.89972e+07
1.88105e+07
2.36979e+07
2.33202e+07
2.29327e+07
2.25614e+07
2.22073e+07
2.18694e+07
2.15467e+07
2.12388e+07
2.09448e+07
2.06645e+07
2.03973e+07
2.01428e+07
1.99008e+07
1.96712e+07
1.94536e+07
1.92479e+07
1.90538e+07
1.8871e+07
2.37111e+07
2.33335e+07
2.29467e+07
2.25767e+07
2.22242e+07
2.18883e+07
2.15682e+07
2.12631e+07
2.09725e+07
2.06959e+07
2.04327e+07
2.01826e+07
1.99452e+07
1.97202e+07
1.95071e+07
1.93058e+07
1.91157e+07
1.89366e+07
2.37264e+07
2.33499e+07
2.29642e+07
2.25956e+07
2.22451e+07
2.19116e+07
2.15943e+07
2.12924e+07
2.10054e+07
2.07327e+07
2.04737e+07
2.02279e+07
1.99949e+07
1.97743e+07
1.95655e+07
1.93681e+07
1.91817e+07
1.90058e+07
2.37454e+07
2.33697e+07
2.29851e+07
2.26182e+07
2.22698e+07
2.19388e+07
2.16244e+07
2.13259e+07
2.10425e+07
2.07736e+07
2.05186e+07
2.0277e+07
2.00481e+07
1.98314e+07
1.96264e+07
1.94326e+07
1.92494e+07
1.90763e+07
2.3764e+07
2.33876e+07
2.30035e+07
2.26377e+07
2.22908e+07
2.19618e+07
2.16496e+07
2.13535e+07
2.10728e+07
2.08066e+07
2.05545e+07
2.03156e+07
2.00895e+07
1.98755e+07
1.9673e+07
1.94815e+07
1.93004e+07
1.91291e+07
2.37756e+07
2.33998e+07
2.30162e+07
2.26511e+07
2.23053e+07
2.19776e+07
2.16668e+07
2.13723e+07
2.10933e+07
2.08288e+07
2.05784e+07
2.03413e+07
2.01169e+07
1.99044e+07
1.97034e+07
1.95133e+07
1.93334e+07
1.91632e+07
2.37853e+07
2.34089e+07
2.30256e+07
2.26611e+07
2.23161e+07
2.19893e+07
2.16796e+07
2.13862e+07
2.11083e+07
2.0845e+07
2.05958e+07
2.03599e+07
2.01365e+07
1.99252e+07
1.97252e+07
1.9536e+07
1.93569e+07
1.91874e+07
2.37902e+07
2.34149e+07
2.30322e+07
2.26683e+07
2.23239e+07
2.19978e+07
2.16888e+07
2.13962e+07
2.11191e+07
2.08567e+07
2.06083e+07
2.03731e+07
2.01506e+07
1.99399e+07
1.97406e+07
1.9552e+07
1.93735e+07
1.92045e+07
2.37943e+07
2.34192e+07
2.30369e+07
2.26734e+07
2.23295e+07
2.20038e+07
2.16953e+07
2.14033e+07
2.11267e+07
2.08649e+07
2.0617e+07
2.03824e+07
2.01604e+07
1.99503e+07
1.97514e+07
1.95632e+07
1.93851e+07
1.92164e+07
2.37969e+07
2.34219e+07
2.304e+07
2.26769e+07
2.23333e+07
2.20079e+07
2.16999e+07
2.14082e+07
2.1132e+07
2.08705e+07
2.06231e+07
2.03889e+07
2.01672e+07
1.99574e+07
1.97588e+07
1.95709e+07
1.9393e+07
1.92246e+07
2.37973e+07
2.34235e+07
2.3042e+07
2.26792e+07
2.23358e+07
2.20107e+07
2.17029e+07
2.14115e+07
2.11355e+07
2.08744e+07
2.06271e+07
2.03932e+07
2.01717e+07
1.99622e+07
1.97638e+07
1.95761e+07
1.93983e+07
1.92301e+07
2.37977e+07
2.34245e+07
2.30433e+07
2.26807e+07
2.23375e+07
2.20126e+07
2.17049e+07
2.14136e+07
2.11378e+07
2.08768e+07
2.06298e+07
2.03959e+07
2.01747e+07
1.99652e+07
1.9767e+07
1.95794e+07
1.94018e+07
1.92336e+07
2.37982e+07
2.34251e+07
2.30441e+07
2.26816e+07
2.23385e+07
2.20137e+07
2.17061e+07
2.14149e+07
2.11392e+07
2.08783e+07
2.06314e+07
2.03976e+07
2.01764e+07
1.99671e+07
1.97689e+07
1.95814e+07
1.94038e+07
1.92357e+07
2.37985e+07
2.34255e+07
2.30445e+07
2.26821e+07
2.2339e+07
2.20143e+07
2.17067e+07
2.14156e+07
2.114e+07
2.08791e+07
2.06322e+07
2.03985e+07
2.01774e+07
1.99681e+07
1.977e+07
1.95825e+07
1.9405e+07
1.92369e+07
2.37987e+07
2.34256e+07
2.30447e+07
2.26823e+07
2.23393e+07
2.20145e+07
2.1707e+07
2.14159e+07
2.11403e+07
2.08794e+07
2.06326e+07
2.03989e+07
2.01778e+07
1.99685e+07
1.97704e+07
1.95829e+07
1.94054e+07
1.92373e+07
1.53828e+07
1.53815e+07
1.53791e+07
1.53753e+07
1.53703e+07
1.53639e+07
1.53562e+07
1.53472e+07
1.53367e+07
1.53249e+07
1.53116e+07
1.52969e+07
1.52808e+07
1.52632e+07
1.52442e+07
1.52237e+07
1.52018e+07
1.51784e+07
1.51536e+07
1.51272e+07
1.50995e+07
1.50702e+07
1.50395e+07
1.50074e+07
1.49739e+07
1.49389e+07
1.49025e+07
1.48648e+07
1.48256e+07
1.47851e+07
1.47433e+07
1.47001e+07
1.46556e+07
1.46098e+07
1.45627e+07
1.45143e+07
1.44648e+07
1.4414e+07
1.4362e+07
1.43088e+07
1.42544e+07
1.41989e+07
1.41423e+07
1.40846e+07
1.40258e+07
1.3966e+07
1.39051e+07
1.38431e+07
1.37802e+07
1.37163e+07
1.36515e+07
1.35857e+07
1.35189e+07
1.34513e+07
1.33828e+07
1.33134e+07
1.32431e+07
1.3172e+07
1.31001e+07
1.30274e+07
1.29539e+07
1.28797e+07
1.28047e+07
1.27289e+07
1.26524e+07
1.25753e+07
1.24974e+07
1.24188e+07
1.23396e+07
1.22597e+07
1.21792e+07
1.20981e+07
1.20164e+07
1.1934e+07
1.18511e+07
1.17676e+07
1.16835e+07
1.15989e+07
1.15137e+07
1.14281e+07
1.13418e+07
1.12551e+07
1.11679e+07
1.10802e+07
1.09921e+07
1.09034e+07
1.08143e+07
1.07248e+07
1.06348e+07
1.05444e+07
1.04536e+07
1.03624e+07
1.02708e+07
1.01788e+07
1.00864e+07
9.99363e+06
9.9005e+06
9.80703e+06
9.7132e+06
9.61905e+06
9.52456e+06
9.42976e+06
9.33465e+06
9.23923e+06
9.14353e+06
9.04754e+06
8.95127e+06
8.85474e+06
8.75795e+06
8.66091e+06
8.56364e+06
8.46613e+06
8.3684e+06
8.27046e+06
8.17232e+06
8.07399e+06
7.97547e+06
7.87678e+06
7.77792e+06
7.67891e+06
7.57976e+06
7.48047e+06
7.38106e+06
7.28154e+06
7.18191e+06
7.0822e+06
6.9824e+06
6.88253e+06
6.78261e+06
6.68264e+06
6.58263e+06
6.48261e+06
6.38257e+06
6.28254e+06
6.18253e+06
6.08254e+06
5.9826e+06
5.88271e+06
5.7829e+06
5.68317e+06
5.58354e+06
5.48402e+06
5.38464e+06
5.28539e+06
5.18631e+06
5.08741e+06
4.9887e+06
4.89019e+06
4.79192e+06
4.69389e+06
4.59612e+06
4.49863e+06
4.40144e+06
4.30457e+06
4.20803e+06
4.11185e+06
4.01606e+06
3.92066e+06
3.82568e+06
3.73114e+06
3.63707e+06
3.54348e+06
3.45041e+06
3.35788e+06
3.26591e+06
3.17453e+06
3.08377e+06
2.99366e+06
2.90423e+06
2.81552e+06
2.72756e+06
2.64039e+06
2.55406e+06
2.46863e+06
2.38416e+06
2.30073e+06
2.21847e+06
2.13753e+06
2.0582e+06
1.9811e+06
1.53883e+07
1.53871e+07
1.53846e+07
1.53808e+07
1.53758e+07
1.53694e+07
1.53616e+07
1.53525e+07
1.5342e+07
1.53301e+07
1.53167e+07
1.5302e+07
1.52858e+07
1.52681e+07
1.5249e+07
1.52284e+07
1.52064e+07
1.51829e+07
1.51579e+07
1.51315e+07
1.51036e+07
1.50742e+07
1.50435e+07
1.50112e+07
1.49776e+07
1.49425e+07
1.4906e+07
1.48681e+07
1.48288e+07
1.47882e+07
1.47462e+07
1.47029e+07
1.46583e+07
1.46124e+07
1.45652e+07
1.45168e+07
1.44671e+07
1.44162e+07
1.43641e+07
1.43108e+07
1.42564e+07
1.42008e+07
1.41441e+07
1.40863e+07
1.40274e+07
1.39675e+07
1.39065e+07
1.38445e+07
1.37815e+07
1.37176e+07
1.36527e+07
1.35868e+07
1.352e+07
1.34523e+07
1.33837e+07
1.33143e+07
1.3244e+07
1.31728e+07
1.31009e+07
1.30282e+07
1.29546e+07
1.28803e+07
1.28053e+07
1.27295e+07
1.2653e+07
1.25758e+07
1.24979e+07
1.24193e+07
1.234e+07
1.22601e+07
1.21796e+07
1.20985e+07
1.20167e+07
1.19343e+07
1.18514e+07
1.17679e+07
1.16838e+07
1.15991e+07
1.1514e+07
1.14283e+07
1.1342e+07
1.12553e+07
1.11681e+07
1.10804e+07
1.09922e+07
1.09036e+07
1.08145e+07
1.07249e+07
1.0635e+07
1.05445e+07
1.04537e+07
1.03625e+07
1.02709e+07
1.01789e+07
1.00865e+07
9.99369e+06
9.90057e+06
9.80708e+06
9.71326e+06
9.6191e+06
9.52461e+06
9.4298e+06
9.33469e+06
9.23927e+06
9.14356e+06
9.04757e+06
8.9513e+06
8.85477e+06
8.75797e+06
8.66094e+06
8.56366e+06
8.46615e+06
8.36842e+06
8.27048e+06
8.17234e+06
8.074e+06
7.97548e+06
7.87679e+06
7.77793e+06
7.67892e+06
7.57977e+06
7.48048e+06
7.38107e+06
7.28154e+06
7.18192e+06
7.0822e+06
6.9824e+06
6.88253e+06
6.78261e+06
6.68264e+06
6.58264e+06
6.48261e+06
6.38257e+06
6.28254e+06
6.18253e+06
6.08254e+06
5.9826e+06
5.88271e+06
5.7829e+06
5.68317e+06
5.58354e+06
5.48402e+06
5.38464e+06
5.28539e+06
5.18631e+06
5.08741e+06
4.9887e+06
4.89019e+06
4.79192e+06
4.69389e+06
4.59612e+06
4.49863e+06
4.40144e+06
4.30457e+06
4.20803e+06
4.11185e+06
4.01606e+06
3.92065e+06
3.82567e+06
3.73114e+06
3.63707e+06
3.54348e+06
3.45041e+06
3.35788e+06
3.26591e+06
3.17453e+06
3.08377e+06
2.99365e+06
2.90422e+06
2.81551e+06
2.72754e+06
2.64037e+06
2.55403e+06
2.46859e+06
2.38411e+06
2.30067e+06
2.21837e+06
2.13738e+06
2.05793e+06
1.98047e+06
1.53995e+07
1.53982e+07
1.53957e+07
1.53919e+07
1.53867e+07
1.53803e+07
1.53724e+07
1.53632e+07
1.53526e+07
1.53405e+07
1.5327e+07
1.53121e+07
1.52957e+07
1.52779e+07
1.52586e+07
1.52378e+07
1.52156e+07
1.51919e+07
1.51667e+07
1.514e+07
1.51119e+07
1.50823e+07
1.50513e+07
1.50188e+07
1.49849e+07
1.49496e+07
1.49128e+07
1.48747e+07
1.48352e+07
1.47944e+07
1.47522e+07
1.47086e+07
1.46638e+07
1.46177e+07
1.45703e+07
1.45216e+07
1.44717e+07
1.44206e+07
1.43683e+07
1.43149e+07
1.42602e+07
1.42045e+07
1.41476e+07
1.40897e+07
1.40306e+07
1.39705e+07
1.39094e+07
1.38473e+07
1.37842e+07
1.37201e+07
1.3655e+07
1.3589e+07
1.35221e+07
1.34543e+07
1.33856e+07
1.33161e+07
1.32457e+07
1.31745e+07
1.31024e+07
1.30296e+07
1.2956e+07
1.28816e+07
1.28065e+07
1.27306e+07
1.26541e+07
1.25768e+07
1.24988e+07
1.24202e+07
1.23409e+07
1.2261e+07
1.21804e+07
1.20992e+07
1.20174e+07
1.1935e+07
1.1852e+07
1.17684e+07
1.16843e+07
1.15996e+07
1.15144e+07
1.14287e+07
1.13424e+07
1.12557e+07
1.11685e+07
1.10807e+07
1.09925e+07
1.09039e+07
1.08147e+07
1.07252e+07
1.06352e+07
1.05448e+07
1.04539e+07
1.03627e+07
1.0271e+07
1.0179e+07
1.00866e+07
9.99383e+06
9.90069e+06
9.8072e+06
9.71337e+06
9.6192e+06
9.5247e+06
9.42989e+06
9.33477e+06
9.23934e+06
9.14363e+06
9.04763e+06
8.95136e+06
8.85482e+06
8.75802e+06
8.66098e+06
8.5637e+06
8.46619e+06
8.36845e+06
8.27051e+06
8.17237e+06
8.07403e+06
7.97551e+06
7.87681e+06
7.77795e+06
7.67894e+06
7.57978e+06
7.48049e+06
7.38108e+06
7.28156e+06
7.18193e+06
7.08221e+06
6.98241e+06
6.88254e+06
6.78262e+06
6.68265e+06
6.58264e+06
6.48262e+06
6.38258e+06
6.28255e+06
6.18253e+06
6.08255e+06
5.9826e+06
5.88272e+06
5.7829e+06
5.68317e+06
5.58354e+06
5.48403e+06
5.38464e+06
5.2854e+06
5.18631e+06
5.08741e+06
4.9887e+06
4.8902e+06
4.79192e+06
4.69389e+06
4.59612e+06
4.49863e+06
4.40144e+06
4.30457e+06
4.20803e+06
4.11185e+06
4.01605e+06
3.92065e+06
3.82567e+06
3.73114e+06
3.63706e+06
3.54348e+06
3.45041e+06
3.35787e+06
3.2659e+06
3.17452e+06
3.08376e+06
2.99364e+06
2.9042e+06
2.81548e+06
2.72751e+06
2.64033e+06
2.55398e+06
2.46852e+06
2.38402e+06
2.30054e+06
2.21819e+06
2.13709e+06
2.05744e+06
1.97949e+06
1.54163e+07
1.5415e+07
1.54124e+07
1.54085e+07
1.54033e+07
1.53967e+07
1.53887e+07
1.53793e+07
1.53685e+07
1.53562e+07
1.53425e+07
1.53274e+07
1.53107e+07
1.52926e+07
1.5273e+07
1.52519e+07
1.52294e+07
1.52053e+07
1.51798e+07
1.51528e+07
1.51243e+07
1.50944e+07
1.5063e+07
1.50302e+07
1.49959e+07
1.49602e+07
1.49231e+07
1.48847e+07
1.48448e+07
1.48036e+07
1.47611e+07
1.47172e+07
1.4672e+07
1.46255e+07
1.45778e+07
1.45289e+07
1.44787e+07
1.44273e+07
1.43747e+07
1.43209e+07
1.4266e+07
1.421e+07
1.41529e+07
1.40947e+07
1.40354e+07
1.39751e+07
1.39138e+07
1.38514e+07
1.37881e+07
1.37238e+07
1.36586e+07
1.35924e+07
1.35253e+07
1.34573e+07
1.33885e+07
1.33188e+07
1.32483e+07
1.31769e+07
1.31047e+07
1.30318e+07
1.2958e+07
1.28836e+07
1.28083e+07
1.27324e+07
1.26557e+07
1.25783e+07
1.25003e+07
1.24216e+07
1.23422e+07
1.22622e+07
1.21815e+07
1.21002e+07
1.20184e+07
1.19359e+07
1.18529e+07
1.17692e+07
1.16851e+07
1.16004e+07
1.15151e+07
1.14293e+07
1.1343e+07
1.12563e+07
1.1169e+07
1.10812e+07
1.0993e+07
1.09043e+07
1.08151e+07
1.07256e+07
1.06355e+07
1.05451e+07
1.04542e+07
1.0363e+07
1.02713e+07
1.01793e+07
1.00868e+07
9.99404e+06
9.90089e+06
9.80738e+06
9.71353e+06
9.61935e+06
9.52484e+06
9.43002e+06
9.33489e+06
9.23945e+06
9.14373e+06
9.04772e+06
8.95144e+06
8.8549e+06
8.7581e+06
8.66105e+06
8.56376e+06
8.46624e+06
8.36851e+06
8.27056e+06
8.17241e+06
8.07407e+06
7.97554e+06
7.87684e+06
7.77798e+06
7.67897e+06
7.57981e+06
7.48052e+06
7.3811e+06
7.28158e+06
7.18195e+06
7.08223e+06
6.98242e+06
6.88256e+06
6.78263e+06
6.68266e+06
6.58265e+06
6.48262e+06
6.38259e+06
6.28255e+06
6.18254e+06
6.08255e+06
5.98261e+06
5.88272e+06
5.78291e+06
5.68318e+06
5.58354e+06
5.48403e+06
5.38464e+06
5.2854e+06
5.18632e+06
5.08741e+06
4.9887e+06
4.8902e+06
4.79192e+06
4.69389e+06
4.59612e+06
4.49863e+06
4.40144e+06
4.30457e+06
4.20803e+06
4.11185e+06
4.01605e+06
3.92065e+06
3.82567e+06
3.73113e+06
3.63706e+06
3.54347e+06
3.4504e+06
3.35786e+06
3.26589e+06
3.17451e+06
3.08374e+06
2.99362e+06
2.90418e+06
2.81545e+06
2.72746e+06
2.64027e+06
2.55391e+06
2.46842e+06
2.38388e+06
2.30035e+06
2.21792e+06
2.13669e+06
2.0568e+06
1.97834e+06
1.54389e+07
1.54376e+07
1.54349e+07
1.54309e+07
1.54255e+07
1.54187e+07
1.54105e+07
1.54009e+07
1.53898e+07
1.53773e+07
1.53633e+07
1.53478e+07
1.53308e+07
1.53123e+07
1.52923e+07
1.52708e+07
1.52479e+07
1.52234e+07
1.51974e+07
1.51699e+07
1.5141e+07
1.51106e+07
1.50787e+07
1.50454e+07
1.50106e+07
1.49744e+07
1.49369e+07
1.48979e+07
1.48576e+07
1.48159e+07
1.47729e+07
1.47285e+07
1.46829e+07
1.4636e+07
1.45879e+07
1.45385e+07
1.44879e+07
1.44361e+07
1.43831e+07
1.4329e+07
1.42737e+07
1.42174e+07
1.41599e+07
1.41014e+07
1.40418e+07
1.39811e+07
1.39195e+07
1.38569e+07
1.37933e+07
1.37287e+07
1.36633e+07
1.35968e+07
1.35295e+07
1.34614e+07
1.33923e+07
1.33224e+07
1.32517e+07
1.31801e+07
1.31078e+07
1.30347e+07
1.29608e+07
1.28861e+07
1.28108e+07
1.27347e+07
1.26579e+07
1.25804e+07
1.25022e+07
1.24234e+07
1.23439e+07
1.22638e+07
1.2183e+07
1.21017e+07
1.20197e+07
1.19372e+07
1.1854e+07
1.17703e+07
1.16861e+07
1.16013e+07
1.1516e+07
1.14302e+07
1.13438e+07
1.1257e+07
1.11697e+07
1.10819e+07
1.09936e+07
1.09049e+07
1.08157e+07
1.0726e+07
1.0636e+07
1.05455e+07
1.04546e+07
1.03633e+07
1.02716e+07
1.01796e+07
1.00871e+07
9.99431e+06
9.90114e+06
9.80762e+06
9.71375e+06
9.61955e+06
9.52503e+06
9.43019e+06
9.33505e+06
9.2396e+06
9.14386e+06
9.04785e+06
8.95156e+06
8.855e+06
8.75819e+06
8.66114e+06
8.56384e+06
8.46632e+06
8.36857e+06
8.27062e+06
8.17247e+06
8.07412e+06
7.97559e+06
7.87689e+06
7.77802e+06
7.679e+06
7.57984e+06
7.48055e+06
7.38113e+06
7.2816e+06
7.18197e+06
7.08225e+06
6.98244e+06
6.88257e+06
6.78264e+06
6.68267e+06
6.58266e+06
6.48263e+06
6.3826e+06
6.28256e+06
6.18255e+06
6.08256e+06
5.98261e+06
5.88273e+06
5.78291e+06
5.68318e+06
5.58355e+06
5.48403e+06
5.38464e+06
5.2854e+06
5.18632e+06
5.08741e+06
4.9887e+06
4.8902e+06
4.79192e+06
4.69389e+06
4.59612e+06
4.49863e+06
4.40144e+06
4.30457e+06
4.20803e+06
4.11185e+06
4.01605e+06
3.92065e+06
3.82567e+06
3.73113e+06
3.63705e+06
3.54347e+06
3.45039e+06
3.35785e+06
3.26588e+06
3.17449e+06
3.08372e+06
2.99359e+06
2.90414e+06
2.8154e+06
2.72741e+06
2.64019e+06
2.55381e+06
2.46829e+06
2.38371e+06
2.30011e+06
2.21758e+06
2.1362e+06
2.05605e+06
1.97714e+06
1.54674e+07
1.5466e+07
1.54632e+07
1.54591e+07
1.54535e+07
1.54465e+07
1.54381e+07
1.54282e+07
1.54168e+07
1.54039e+07
1.53894e+07
1.53735e+07
1.53561e+07
1.53371e+07
1.53166e+07
1.52946e+07
1.5271e+07
1.5246e+07
1.52194e+07
1.51913e+07
1.51618e+07
1.51308e+07
1.50983e+07
1.50643e+07
1.5029e+07
1.49922e+07
1.4954e+07
1.49144e+07
1.48735e+07
1.48312e+07
1.47876e+07
1.47427e+07
1.46965e+07
1.46491e+07
1.46004e+07
1.45505e+07
1.44993e+07
1.44471e+07
1.43936e+07
1.4339e+07
1.42833e+07
1.42265e+07
1.41686e+07
1.41096e+07
1.40497e+07
1.39887e+07
1.39267e+07
1.38637e+07
1.37998e+07
1.37349e+07
1.36691e+07
1.36024e+07
1.35348e+07
1.34663e+07
1.3397e+07
1.33269e+07
1.32559e+07
1.31841e+07
1.31116e+07
1.30382e+07
1.29641e+07
1.28893e+07
1.28138e+07
1.27375e+07
1.26605e+07
1.25829e+07
1.25046e+07
1.24256e+07
1.2346e+07
1.22657e+07
1.21849e+07
1.21034e+07
1.20213e+07
1.19387e+07
1.18555e+07
1.17717e+07
1.16874e+07
1.16025e+07
1.15171e+07
1.14312e+07
1.13448e+07
1.12579e+07
1.11705e+07
1.10827e+07
1.09943e+07
1.09056e+07
1.08163e+07
1.07267e+07
1.06366e+07
1.0546e+07
1.04551e+07
1.03638e+07
1.02721e+07
1.018e+07
1.00875e+07
9.99465e+06
9.90146e+06
9.80791e+06
9.71402e+06
9.6198e+06
9.52526e+06
9.43041e+06
9.33524e+06
9.23978e+06
9.14403e+06
9.048e+06
8.9517e+06
8.85513e+06
8.75831e+06
8.66125e+06
8.56394e+06
8.46641e+06
8.36866e+06
8.2707e+06
8.17254e+06
8.07418e+06
7.97565e+06
7.87694e+06
7.77807e+06
7.67905e+06
7.57988e+06
7.48058e+06
7.38116e+06
7.28163e+06
7.182e+06
7.08227e+06
6.98247e+06
6.88259e+06
6.78266e+06
6.68269e+06
6.58268e+06
6.48265e+06
6.38261e+06
6.28257e+06
6.18255e+06
6.08257e+06
5.98262e+06
5.88273e+06
5.78292e+06
5.68319e+06
5.58355e+06
5.48404e+06
5.38465e+06
5.28541e+06
5.18632e+06
5.08742e+06
4.98871e+06
4.8902e+06
4.79193e+06
4.69389e+06
4.59612e+06
4.49863e+06
4.40144e+06
4.30457e+06
4.20803e+06
4.11185e+06
4.01605e+06
3.92065e+06
3.82567e+06
3.73113e+06
3.63705e+06
3.54346e+06
3.45038e+06
3.35784e+06
3.26586e+06
3.17447e+06
3.08369e+06
2.99356e+06
2.9041e+06
2.81535e+06
2.72733e+06
2.6401e+06
2.55369e+06
2.46814e+06
2.3835e+06
2.29983e+06
2.21719e+06
2.13565e+06
2.05524e+06
1.97593e+06
1.5502e+07
1.55005e+07
1.54976e+07
1.54933e+07
1.54875e+07
1.54802e+07
1.54715e+07
1.54612e+07
1.54494e+07
1.5436e+07
1.54211e+07
1.54046e+07
1.53866e+07
1.5367e+07
1.53459e+07
1.53232e+07
1.5299e+07
1.52732e+07
1.52459e+07
1.52171e+07
1.51868e+07
1.51551e+07
1.51218e+07
1.50871e+07
1.5051e+07
1.50134e+07
1.49745e+07
1.49342e+07
1.48925e+07
1.48495e+07
1.48052e+07
1.47596e+07
1.47128e+07
1.46647e+07
1.46153e+07
1.45648e+07
1.4513e+07
1.44601e+07
1.44061e+07
1.43509e+07
1.42947e+07
1.42374e+07
1.4179e+07
1.41195e+07
1.40591e+07
1.39976e+07
1.39352e+07
1.38718e+07
1.38075e+07
1.37422e+07
1.3676e+07
1.3609e+07
1.3541e+07
1.34722e+07
1.34026e+07
1.33322e+07
1.32609e+07
1.31889e+07
1.31161e+07
1.30425e+07
1.29682e+07
1.28931e+07
1.28174e+07
1.27409e+07
1.26637e+07
1.25859e+07
1.25074e+07
1.24283e+07
1.23485e+07
1.22681e+07
1.21871e+07
1.21055e+07
1.20233e+07
1.19405e+07
1.18572e+07
1.17733e+07
1.16889e+07
1.16039e+07
1.15185e+07
1.14325e+07
1.1346e+07
1.1259e+07
1.11716e+07
1.10836e+07
1.09952e+07
1.09064e+07
1.08171e+07
1.07274e+07
1.06372e+07
1.05467e+07
1.04557e+07
1.03643e+07
1.02726e+07
1.01804e+07
1.00879e+07
9.99506e+06
9.90183e+06
9.80826e+06
9.71434e+06
9.6201e+06
9.52554e+06
9.43066e+06
9.33548e+06
9.24e+06
9.14423e+06
9.04819e+06
8.95187e+06
8.85529e+06
8.75845e+06
8.66138e+06
8.56406e+06
8.46652e+06
8.36876e+06
8.27079e+06
8.17262e+06
8.07426e+06
7.97572e+06
7.87701e+06
7.77813e+06
7.6791e+06
7.57993e+06
7.48063e+06
7.3812e+06
7.28167e+06
7.18203e+06
7.0823e+06
6.98249e+06
6.88262e+06
6.78268e+06
6.6827e+06
6.58269e+06
6.48266e+06
6.38262e+06
6.28259e+06
6.18257e+06
6.08258e+06
5.98263e+06
5.88274e+06
5.78293e+06
5.68319e+06
5.58356e+06
5.48404e+06
5.38465e+06
5.28541e+06
5.18633e+06
5.08742e+06
4.98871e+06
4.89021e+06
4.79193e+06
4.6939e+06
4.59613e+06
4.49863e+06
4.40144e+06
4.30457e+06
4.20803e+06
4.11185e+06
4.01605e+06
3.92065e+06
3.82566e+06
3.73112e+06
3.63704e+06
3.54345e+06
3.45037e+06
3.35783e+06
3.26584e+06
3.17444e+06
3.08366e+06
2.99352e+06
2.90405e+06
2.81528e+06
2.72725e+06
2.63999e+06
2.55355e+06
2.46796e+06
2.38326e+06
2.29951e+06
2.21676e+06
2.13505e+06
2.05439e+06
1.97473e+06
1.55429e+07
1.55414e+07
1.55383e+07
1.55338e+07
1.55277e+07
1.55201e+07
1.55109e+07
1.55001e+07
1.54878e+07
1.54739e+07
1.54584e+07
1.54412e+07
1.54225e+07
1.54022e+07
1.53803e+07
1.53568e+07
1.53317e+07
1.53051e+07
1.5277e+07
1.52473e+07
1.52161e+07
1.51834e+07
1.51493e+07
1.51137e+07
1.50767e+07
1.50382e+07
1.49984e+07
1.49572e+07
1.49147e+07
1.48709e+07
1.48257e+07
1.47793e+07
1.47316e+07
1.46827e+07
1.46326e+07
1.45813e+07
1.45289e+07
1.44753e+07
1.44206e+07
1.43648e+07
1.43079e+07
1.42499e+07
1.4191e+07
1.4131e+07
1.407e+07
1.4008e+07
1.3945e+07
1.38812e+07
1.38164e+07
1.37506e+07
1.3684e+07
1.36166e+07
1.35483e+07
1.34791e+07
1.34091e+07
1.33383e+07
1.32667e+07
1.31944e+07
1.31213e+07
1.30474e+07
1.29728e+07
1.28975e+07
1.28215e+07
1.27448e+07
1.26674e+07
1.25894e+07
1.25107e+07
1.24314e+07
1.23514e+07
1.22708e+07
1.21897e+07
1.21079e+07
1.20256e+07
1.19427e+07
1.18592e+07
1.17752e+07
1.16907e+07
1.16056e+07
1.152e+07
1.14339e+07
1.13473e+07
1.12603e+07
1.11727e+07
1.10847e+07
1.09963e+07
1.09073e+07
1.0818e+07
1.07282e+07
1.0638e+07
1.05474e+07
1.04564e+07
1.0365e+07
1.02732e+07
1.0181e+07
1.00884e+07
9.99553e+06
9.90227e+06
9.80866e+06
9.71472e+06
9.62045e+06
9.52586e+06
9.43095e+06
9.33575e+06
9.24025e+06
9.14446e+06
9.0484e+06
8.95206e+06
8.85547e+06
8.75862e+06
8.66153e+06
8.5642e+06
8.46665e+06
8.36888e+06
8.2709e+06
8.17272e+06
8.07435e+06
7.9758e+06
7.87708e+06
7.7782e+06
7.67916e+06
7.57999e+06
7.48068e+06
7.38125e+06
7.28171e+06
7.18207e+06
7.08233e+06
6.98252e+06
6.88264e+06
6.78271e+06
6.68273e+06
6.58271e+06
6.48268e+06
6.38264e+06
6.2826e+06
6.18258e+06
6.08259e+06
5.98264e+06
5.88275e+06
5.78293e+06
5.6832e+06
5.58357e+06
5.48405e+06
5.38466e+06
5.28542e+06
5.18633e+06
5.08743e+06
4.98871e+06
4.89021e+06
4.79193e+06
4.6939e+06
4.59613e+06
4.49864e+06
4.40144e+06
4.30457e+06
4.20803e+06
4.11185e+06
4.01605e+06
3.92064e+06
3.82566e+06
3.73112e+06
3.63703e+06
3.54344e+06
3.45036e+06
3.35781e+06
3.26582e+06
3.17442e+06
3.08362e+06
2.99347e+06
2.90399e+06
2.81521e+06
2.72716e+06
2.63988e+06
2.5534e+06
2.46776e+06
2.383e+06
2.29917e+06
2.2163e+06
2.13442e+06
2.05353e+06
1.97357e+06
1.55905e+07
1.55888e+07
1.55856e+07
1.55807e+07
1.55743e+07
1.55663e+07
1.55566e+07
1.55453e+07
1.55324e+07
1.55177e+07
1.55015e+07
1.54835e+07
1.5464e+07
1.54428e+07
1.54199e+07
1.53955e+07
1.53694e+07
1.53418e+07
1.53126e+07
1.52819e+07
1.52497e+07
1.52159e+07
1.51807e+07
1.51441e+07
1.5106e+07
1.50665e+07
1.50256e+07
1.49834e+07
1.49399e+07
1.48951e+07
1.4849e+07
1.48016e+07
1.4753e+07
1.47032e+07
1.46523e+07
1.46001e+07
1.45469e+07
1.44925e+07
1.4437e+07
1.43804e+07
1.43228e+07
1.42642e+07
1.42045e+07
1.41439e+07
1.40823e+07
1.40197e+07
1.39562e+07
1.38917e+07
1.38264e+07
1.37602e+07
1.36931e+07
1.36252e+07
1.35564e+07
1.34868e+07
1.34164e+07
1.33452e+07
1.32733e+07
1.32006e+07
1.31271e+07
1.3053e+07
1.29781e+07
1.29025e+07
1.28262e+07
1.27492e+07
1.26716e+07
1.25933e+07
1.25144e+07
1.24348e+07
1.23547e+07
1.22739e+07
1.21926e+07
1.21106e+07
1.20281e+07
1.19451e+07
1.18615e+07
1.17773e+07
1.16927e+07
1.16075e+07
1.15218e+07
1.14356e+07
1.13489e+07
1.12617e+07
1.11741e+07
1.1086e+07
1.09974e+07
1.09084e+07
1.0819e+07
1.07292e+07
1.06389e+07
1.05482e+07
1.04571e+07
1.03657e+07
1.02738e+07
1.01816e+07
1.0089e+07
9.99606e+06
9.90276e+06
9.80911e+06
9.71514e+06
9.62084e+06
9.52622e+06
9.43129e+06
9.33606e+06
9.24053e+06
9.14472e+06
9.04864e+06
8.95228e+06
8.85567e+06
8.75881e+06
8.6617e+06
8.56436e+06
8.46679e+06
8.36901e+06
8.27102e+06
8.17283e+06
8.07445e+06
7.97589e+06
7.87716e+06
7.77827e+06
7.67923e+06
7.58005e+06
7.48074e+06
7.3813e+06
7.28176e+06
7.18211e+06
7.08237e+06
6.98256e+06
6.88267e+06
6.78274e+06
6.68275e+06
6.58274e+06
6.4827e+06
6.38266e+06
6.28262e+06
6.18259e+06
6.0826e+06
5.98265e+06
5.88276e+06
5.78294e+06
5.68321e+06
5.58358e+06
5.48406e+06
5.38467e+06
5.28542e+06
5.18634e+06
5.08743e+06
4.98872e+06
4.89021e+06
4.79194e+06
4.6939e+06
4.59613e+06
4.49864e+06
4.40145e+06
4.30457e+06
4.20803e+06
4.11185e+06
4.01605e+06
3.92064e+06
3.82566e+06
3.73111e+06
3.63703e+06
3.54343e+06
3.45034e+06
3.35779e+06
3.2658e+06
3.17439e+06
3.08359e+06
2.99342e+06
2.90393e+06
2.81513e+06
2.72706e+06
2.63975e+06
2.55323e+06
2.46754e+06
2.38272e+06
2.2988e+06
2.21581e+06
2.13377e+06
2.05267e+06
1.97246e+06
1.5645e+07
1.56432e+07
1.56397e+07
1.56346e+07
1.56277e+07
1.56192e+07
1.56089e+07
1.55969e+07
1.55832e+07
1.55678e+07
1.55506e+07
1.55317e+07
1.55111e+07
1.54889e+07
1.54649e+07
1.54393e+07
1.54121e+07
1.53833e+07
1.53529e+07
1.53209e+07
1.52875e+07
1.52525e+07
1.52161e+07
1.51782e+07
1.51389e+07
1.50982e+07
1.50562e+07
1.50128e+07
1.49681e+07
1.49222e+07
1.4875e+07
1.48266e+07
1.47769e+07
1.47261e+07
1.46742e+07
1.46211e+07
1.45669e+07
1.45116e+07
1.44552e+07
1.43979e+07
1.43394e+07
1.428e+07
1.42196e+07
1.41583e+07
1.40959e+07
1.40327e+07
1.39685e+07
1.39035e+07
1.38376e+07
1.37708e+07
1.37032e+07
1.36347e+07
1.35655e+07
1.34954e+07
1.34246e+07
1.33529e+07
1.32806e+07
1.32075e+07
1.31337e+07
1.30591e+07
1.29839e+07
1.2908e+07
1.28314e+07
1.27541e+07
1.26762e+07
1.25977e+07
1.25185e+07
1.24387e+07
1.23583e+07
1.22773e+07
1.21958e+07
1.21137e+07
1.2031e+07
1.19478e+07
1.1864e+07
1.17797e+07
1.16949e+07
1.16095e+07
1.15237e+07
1.14374e+07
1.13506e+07
1.12633e+07
1.11756e+07
1.10874e+07
1.09987e+07
1.09096e+07
1.08201e+07
1.07302e+07
1.06399e+07
1.05491e+07
1.0458e+07
1.03665e+07
1.02746e+07
1.01823e+07
1.00896e+07
9.99664e+06
9.9033e+06
9.80962e+06
9.71561e+06
9.62127e+06
9.52662e+06
9.43166e+06
9.3364e+06
9.24085e+06
9.14501e+06
9.0489e+06
8.95253e+06
8.8559e+06
8.75901e+06
8.66189e+06
8.56453e+06
8.46695e+06
8.36915e+06
8.27115e+06
8.17295e+06
8.07456e+06
7.97599e+06
7.87726e+06
7.77836e+06
7.67931e+06
7.58012e+06
7.4808e+06
7.38136e+06
7.28181e+06
7.18216e+06
7.08242e+06
6.9826e+06
6.88271e+06
6.78277e+06
6.68278e+06
6.58276e+06
6.48272e+06
6.38268e+06
6.28264e+06
6.18261e+06
6.08262e+06
5.98267e+06
5.88278e+06
5.78296e+06
5.68322e+06
5.58359e+06
5.48407e+06
5.38468e+06
5.28543e+06
5.18635e+06
5.08744e+06
4.98872e+06
4.89022e+06
4.79194e+06
4.69391e+06
4.59613e+06
4.49864e+06
4.40145e+06
4.30457e+06
4.20803e+06
4.11185e+06
4.01605e+06
3.92064e+06
3.82565e+06
3.7311e+06
3.63702e+06
3.54342e+06
3.45033e+06
3.35777e+06
3.26577e+06
3.17435e+06
3.08354e+06
2.99337e+06
2.90386e+06
2.81504e+06
2.72695e+06
2.63961e+06
2.55305e+06
2.46731e+06
2.38243e+06
2.29842e+06
2.21531e+06
2.13312e+06
2.05183e+06
1.97139e+06
1.5707e+07
1.5705e+07
1.57012e+07
1.56957e+07
1.56883e+07
1.56792e+07
1.56682e+07
1.56554e+07
1.56407e+07
1.56243e+07
1.5606e+07
1.5586e+07
1.55642e+07
1.55406e+07
1.55154e+07
1.54884e+07
1.54598e+07
1.54296e+07
1.53978e+07
1.53644e+07
1.53295e+07
1.52932e+07
1.52553e+07
1.5216e+07
1.51754e+07
1.51333e+07
1.50899e+07
1.50453e+07
1.49993e+07
1.49521e+07
1.49037e+07
1.4854e+07
1.48032e+07
1.47513e+07
1.46983e+07
1.46441e+07
1.45889e+07
1.45326e+07
1.44753e+07
1.4417e+07
1.43577e+07
1.42974e+07
1.42362e+07
1.4174e+07
1.41109e+07
1.40469e+07
1.39821e+07
1.39164e+07
1.38498e+07
1.37824e+07
1.37142e+07
1.36452e+07
1.35754e+07
1.35048e+07
1.34334e+07
1.33614e+07
1.32886e+07
1.3215e+07
1.31408e+07
1.30659e+07
1.29902e+07
1.2914e+07
1.2837e+07
1.27595e+07
1.26813e+07
1.26024e+07
1.2523e+07
1.24429e+07
1.23623e+07
1.22811e+07
1.21993e+07
1.2117e+07
1.20341e+07
1.19507e+07
1.18667e+07
1.17823e+07
1.16973e+07
1.16118e+07
1.15258e+07
1.14394e+07
1.13524e+07
1.1265e+07
1.11772e+07
1.10889e+07
1.10001e+07
1.0911e+07
1.08214e+07
1.07314e+07
1.06409e+07
1.05501e+07
1.04589e+07
1.03673e+07
1.02754e+07
1.0183e+07
1.00903e+07
9.99729e+06
9.9039e+06
9.81017e+06
9.71612e+06
9.62174e+06
9.52705e+06
9.43206e+06
9.33677e+06
9.24119e+06
9.14533e+06
9.0492e+06
8.9528e+06
8.85614e+06
8.75924e+06
8.6621e+06
8.56472e+06
8.46713e+06
8.36931e+06
8.2713e+06
8.17309e+06
8.07469e+06
7.97611e+06
7.87736e+06
7.77845e+06
7.6794e+06
7.5802e+06
7.48087e+06
7.38142e+06
7.28187e+06