/*--------------------------------*- C++ -*----------------------------------*\
  =========                 |
  \\      /  F ield         | OpenFOAM: The Open Source CFD Toolbox
   \\    /   O peration     | Website:  https://openfoam.org
    \\  /    A nd           | Version:  7
     \\/     M anipulation  |
\*---------------------------------------------------------------------------*/
FoamFile
{
    version     2.0;
    format      ascii;
    class       volScalarField;
    location    "0.015";
    object      s_0;
}
// * * * * * * * * * * * * * * * * * * * * * * * * * * * * * * * * * * * * * //

dimensions      [0 0 0 0 0 0 0];

internalField   nonuniform List<scalar> 
12225
(
1
1
1
1
1
1
1
1
1
1
1
1
1
1
1
1
1
1
1
1
1
1
1
1
1
1
1
1
1
1
1
1
1
1
1
1
1
1
1
1
1
1
1
1
1
1
1
1
1
1
1
1
1
1
1
1
1
1
1
1
1
1
1
1
1
1
1
1
1
1
1
1
1
1
1
1
1
1
1
1
1
1
1
1
1
1
1
1
1
1
1
1
1
1
1
1
1
1
1
1
1
1
1
1
1
1
1
1
1
1
1
1
1
1
1
1
1
1
1
1
1
1
1
1
1
1
1
1
1
1
1
1
1
1
1
1
1
1
1
1
1
1
1
1
1
1
1
1
1
1
1
1
1
1
1
1
1
1
1
1
1
1
1
1
1
1
1
1
1
1
1
1
1
1
1
1
1
1
1
1
1
1
1
1
1
1
1
1
1
1
1
1
1
1
1
1
1
1
1
1
1
1
1
1
1
1
1
1
1
1
1
1
1
1
1
1
1
1
1
1
1
1
1
1
1
1
1
1
1
1
1
1
1
1
1
1
1
1
1
1
1
1
1
1
1
1
1
1
1
1
1
1
1
1
1
1
1
1
1
1
1
1
1
1
1
1
1
1
1
1
1
1
1
1
1
1
1
1
1
1
1
1
1
1
1
1
1
1
1
1
1
1
1
1
1
1
1
1
1
1
1
1
1
1
1
1
1
1
1
1
1
1
1
1
1
1
1
1
1
1
1
1
1
1
1
1
1
1
1
1
1
1
1
1
1
1
1
1
1
1
1
1
1
1
1
1
1
1
1
1
1
1
1
1
1
1
1
1
1
1
1
1
1
1
1
1
1
1
1
1
1
1
1
1
1
1
1
1
1
1
1
1
1
1
1
1
1
1
1
1
1
1
1
1
1
1
1
1
1
1
1
1
1
1
1
1
1
1
1
1
1
1
1
1
1
1
1
1
1
1
1
1
1
1
1
1
1
1
1
1
1
1
1
1
1
1
1
1
1
1
1
1
1
1
1
1
1
1
1
1
1
1
1
1
1
1
1
1
1
1
1
1
1
1
1
1
1
1
1
1
1
1
1
1
1
1
1
1
1
1
1
1
1
1
1
1
1
1
1
1
1
1
1
1
1
1
1
1
1
1
1
1
1
1
1
1
1
1
1
1
1
1
1
1
1
1
1
1
1
1
1
1
1
1
1
1
1
1
1
1
1
1
1
1
1
1
1
1
1
1
1.99359e-27
1.50546e-25
5.13886e-24
1.12174e-22
1.77945e-21
2.19312e-20
2.18769e-19
1.81613e-18
1.28074e-17
7.79693e-17
4.15252e-16
1.95704e-15
8.24529e-15
3.13432e-14
1.08422e-13
3.44018e-13
1.00884e-12
2.75395e-12
7.04513e-12
1.69945e-11
3.88732e-11
8.47494e-11
1.76949e-10
3.55462e-10
6.89963e-10
1.29855e-09
2.37581e-09
4.23669e-09
7.37901e-09
1.25158e-08
2.09043e-08
3.07375e-08
4.04316e-08
4.82745e-08
5.20898e-08
5.30262e-08
4.84536e-08
4.13141e-08
3.29437e-08
2.39778e-08
1.66332e-08
1.06206e-08
6.4048e-09
3.61544e-09
1.92327e-09
9.66044e-10
4.61287e-10
2.08155e-10
8.87872e-11
3.58682e-11
1.38026e-11
5.09056e-12
1.80339e-12
6.14221e-13
2.01193e-13
6.34851e-14
1.93273e-14
5.68489e-15
1.61767e-15
4.4585e-16
1.19148e-16
3.09038e-17
7.78672e-18
1.90752e-18
4.54647e-19
1.05503e-19
2.38511e-20
5.25587e-21
1.12952e-21
2.36843e-22
4.84757e-23
9.68846e-24
1.8915e-24
3.60843e-25
6.72856e-26
1.2267e-26
2.18712e-27
3.81445e-28
6.50891e-29
1.0869e-29
1.77647e-30
2.84239e-31
4.45278e-32
6.83061e-33
1.02617e-33
1.50994e-34
2.17625e-35
3.07257e-36
4.24967e-37
5.75805e-38
7.64295e-39
9.93786e-40
1.26572e-40
1.57884e-41
1.9285e-42
2.30606e-43
2.69867e-44
3.08941e-45
3.45765e-46
3.78045e-47
4.03412e-48
4.19521e-49
4.24418e-50
4.16636e-51
3.95185e-52
3.60208e-53
3.12408e-54
2.65478e-55
2.22904e-56
1.84871e-57
1.51399e-58
1.22392e-59
9.76485e-61
7.69089e-62
5.57833e-63
7.43169e-64
9.7843e-65
1.35452e-65
9.97087e-67
7.24115e-68
5.18974e-69
3.45269e-70
4.19793e-71
4.8998e-72
5.7363e-73
3.60635e-74
2.4177e-75
1.67783e-76
1.13599e-77
7.94084e-79
8.15254e-80
8.83624e-81
9.89204e-82
5.68585e-83
3.20066e-84
1.80799e-85
9.90436e-87
9.9867e-88
9.41601e-89
8.70431e-90
4.74281e-91
2.85022e-92
1.66747e-93
9.13848e-95
4.59152e-96
3.68475e-97
2.83462e-98
2.38833e-99
1.81506e-100
8.76757e-102
3.71861e-103
1.51818e-104
8.92261e-106
8.71296e-107
7.83896e-108
3.36838e-109
1.34343e-110
5.08624e-112
2.33352e-113
2.14283e-114
1.8669e-115
7.58226e-117
2.83414e-118
1.00847e-119
4.38626e-121
3.66879e-122
2.88811e-123
1.10295e-124
4.03606e-126
1.42452e-127
4.76109e-129
3.09203e-130
2.07925e-131
1.37477e-132
4.27321e-134
1.24212e-135
3.47917e-137
1.93563e-138
1.1285e-139
5.99715e-141
1.80869e-24
1.10605e-22
3.09988e-21
5.54586e-20
7.22335e-19
7.3477e-18
6.10035e-17
4.26137e-16
2.56128e-15
1.34772e-14
6.29551e-14
2.64115e-13
1.00511e-12
3.50014e-12
1.12412e-11
3.35327e-11
9.34979e-11
2.4507e-10
6.06955e-10
1.42681e-09
3.19624e-09
6.84715e-09
1.40732e-08
2.78352e-08
5.31149e-08
9.79546e-08
1.74766e-07
3.0207e-07
5.07206e-07
8.24594e-07
1.28596e-06
1.78792e-06
2.25274e-06
2.60411e-06
2.75568e-06
2.75827e-06
2.50668e-06
2.13685e-06
1.70806e-06
1.25958e-06
8.82651e-07
5.74126e-07
3.5252e-07
2.03238e-07
1.10537e-07
5.67706e-08
2.76664e-08
1.28133e-08
5.61562e-09
2.33324e-09
9.23566e-10
3.50567e-10
1.279e-10
4.48114e-11
1.51047e-11
4.90664e-12
1.53848e-12
4.6631e-13
1.3681e-13
3.89016e-14
1.07329e-14
2.87626e-15
7.49406e-16
1.90007e-16
4.69179e-17
1.12914e-17
2.65028e-18
6.0708e-19
1.35787e-19
2.96728e-20
6.33811e-21
1.3239e-21
2.70537e-22
5.41053e-23
1.05937e-23
2.03141e-24
3.8161e-25
7.02489e-26
1.26757e-26
2.24249e-27
3.89056e-28
6.62088e-29
1.10543e-29
1.81111e-30
2.91229e-31
4.59707e-32
7.12448e-33
1.08423e-33
1.62051e-34
2.37906e-35
3.43118e-36
4.86207e-37
6.77009e-38
9.26435e-39
1.24604e-39
1.64739e-40
2.14117e-41
2.73616e-42
3.43804e-43
4.24816e-44
5.1624e-45
6.17021e-46
7.25409e-47
8.38954e-48
9.54545e-49
1.06854e-49
1.17696e-50
1.27561e-51
1.36048e-52
1.42795e-53
1.47506e-54
1.501e-55
1.50675e-56
1.49201e-57
1.45736e-58
1.40413e-59
1.33442e-60
1.25088e-61
1.15656e-62
1.05475e-63
9.48758e-65
8.41764e-66
7.36638e-67
6.35842e-68
5.4135e-69
4.54616e-70
3.76577e-71
3.07688e-72
2.47981e-73
1.97146e-74
1.54605e-75
1.19601e-76
9.12697e-78
6.87087e-79
5.10268e-80
3.73849e-81
2.7022e-82
1.92695e-83
1.35571e-84
9.4107e-86
6.44532e-87
4.3556e-88
2.90433e-89
1.91096e-90
1.24072e-91
7.94937e-93
5.02617e-94
3.13618e-95
1.93125e-96
1.17371e-97
7.0402e-99
4.16794e-100
2.43547e-101
1.4047e-102
7.99715e-104
4.49416e-105
2.49308e-106
1.36523e-107
7.38026e-109
3.93857e-110
2.07499e-111
1.07921e-112
5.54136e-114
2.80894e-115
1.40567e-116
6.94435e-118
3.38666e-119
1.63034e-120
7.74679e-122
3.63289e-123
1.68113e-124
7.67505e-126
3.45577e-127
1.53403e-128
6.70842e-130
2.88823e-131
1.22172e-132
5.07156e-134
2.05213e-135
7.7987e-137
7.87009e-23
4.72769e-21
1.31448e-19
2.3309e-18
3.00976e-17
3.03635e-16
2.50154e-15
1.73502e-14
1.03594e-13
5.41708e-13
2.51538e-12
1.04916e-11
3.96976e-11
1.37442e-10
4.38783e-10
1.30063e-09
3.60168e-09
9.36856e-09
2.30002e-08
5.3515e-08
1.18423e-07
2.50012e-07
5.04969e-07
9.7824e-07
1.8213e-06
3.26308e-06
5.62924e-06
9.3603e-06
1.5043e-05
2.33169e-05
3.44203e-05
4.57854e-05
5.56643e-05
6.25093e-05
6.54791e-05
6.43826e-05
5.84292e-05
4.99217e-05
4.01319e-05
3.00402e-05
2.13321e-05
1.41583e-05
8.8706e-06
5.23085e-06
2.91173e-06
1.53134e-06
7.62748e-07
3.61675e-07
1.62651e-07
6.93903e-08
2.81825e-08
1.0966e-08
4.09698e-09
1.46934e-09
5.06774e-10
1.68376e-10
5.39777e-11
1.6721e-11
5.01206e-12
1.45557e-12
4.10029e-13
1.12159e-13
2.98206e-14
7.71369e-15
1.94282e-15
4.76825e-16
1.14117e-16
2.66495e-17
6.07622e-18
1.35338e-18
2.94624e-19
6.27165e-20
1.30601e-20
2.66153e-21
5.31007e-22
1.03753e-22
1.98594e-23
3.72504e-24
6.84875e-25
1.23458e-25
2.18255e-26
3.78478e-27
6.43939e-28
1.07513e-28
1.76189e-29
2.83448e-30
4.47736e-31
6.94536e-32
1.05818e-32
1.58375e-33
2.32881e-34
3.36484e-35
4.77789e-36
6.66811e-37
9.14787e-38
1.23379e-38
1.63611e-39
2.13346e-40
2.73593e-41
3.45081e-42
4.28129e-43
5.22529e-44
6.27436e-45
7.41299e-46
8.6183e-47
9.86035e-48
1.11031e-48
1.23058e-49
1.34253e-50
1.44187e-51
1.52458e-52
1.58721e-53
1.62709e-54
1.64324e-55
1.63687e-56
1.60819e-57
1.55833e-58
1.48928e-59
1.4037e-60
1.30483e-61
1.1962e-62
1.08149e-63
9.6429e-65
8.47932e-66
7.35334e-67
6.28903e-68
5.30473e-69
4.41297e-70
3.62071e-71
2.92995e-72
2.33852e-73
1.84097e-74
1.42951e-75
1.0949e-76
8.27213e-78
6.16497e-79
4.53239e-80
3.28715e-81
2.35191e-82
1.66014e-83
1.15612e-84
7.94349e-86
5.38498e-87
3.60194e-88
2.37728e-89
1.54822e-90
9.94966e-92
6.30987e-93
3.94898e-94
2.43902e-95
1.48672e-96
8.94411e-98
5.31074e-99
3.11242e-100
1.80044e-101
1.02804e-102
5.79433e-104
3.22383e-105
1.77064e-106
9.60024e-108
5.13856e-109
2.71527e-110
1.41645e-111
7.29478e-113
3.70887e-114
1.86159e-115
9.22426e-117
4.51195e-118
2.17847e-119
1.03815e-120
4.88225e-122
2.26555e-123
1.03694e-124
4.68057e-126
2.08156e-127
9.12055e-129
3.92712e-130
1.66297e-131
6.87677e-133
2.79255e-134
2.15396e-21
1.28503e-19
3.58548e-18
6.37051e-17
8.23349e-16
8.30192e-15
6.82358e-14
4.71157e-13
2.79468e-12
1.44899e-11
6.6603e-11
2.74637e-10
1.02634e-09
3.50729e-09
1.10466e-08
3.22915e-08
8.81483e-08
2.25897e-07
5.4594e-07
1.249e-06
2.71355e-06
5.61352e-06
1.10835e-05
2.09284e-05
3.78474e-05
6.5599e-05
0.000109
0.000173765
0.000266406
0.000392082
0.000548306
0.00069863
0.000820967
0.000897746
0.000931044
0.000902815
0.000819965
0.000704246
0.000571711
0.000435811
0.000315187
0.00021434
0.000137675
8.34078e-05
4.77228e-05
2.58051e-05
1.32115e-05
6.42483e-06
2.97222e-06
1.30467e-06
5.45061e-07
2.17985e-07
8.3566e-08
3.07333e-08
1.08631e-08
3.69667e-09
1.21307e-09
3.84442e-10
1.1783e-10
3.49719e-11
1.00634e-11
2.81068e-12
7.6271e-13
2.01278e-13
5.17009e-14
1.29362e-14
3.15529e-15
7.50735e-16
1.74348e-16
3.95432e-17
8.76357e-18
1.89867e-18
4.0232e-19
8.34104e-20
1.69262e-20
3.36311e-21
6.54494e-22
1.2479e-22
2.33179e-23
4.27116e-24
7.67105e-25
1.35119e-25
2.33466e-26
3.95792e-27
6.5846e-28
1.0752e-28
1.72355e-29
2.71273e-30
4.1928e-31
6.36477e-32
9.49088e-33
1.39039e-33
2.00139e-34
2.83104e-35
3.93585e-36
5.37848e-37
7.22538e-38
9.54315e-39
1.23937e-39
1.58284e-40
1.98813e-41
2.45623e-42
2.98505e-43
3.56893e-44
4.19825e-45
4.85939e-46
5.53503e-47
6.2047e-48
6.84578e-49
7.43472e-50
7.94849e-51
8.36605e-52
8.66979e-53
8.84664e-54
8.89238e-55
8.81462e-56
8.61641e-57
8.30575e-58
7.89508e-59
7.40036e-60
6.84013e-61
6.2343e-62
5.60303e-63
4.9656e-64
4.33948e-65
3.73963e-66
3.17799e-67
2.66329e-68
2.20107e-69
1.79396e-70
1.44199e-71
1.14313e-72
8.93775e-74
6.89237e-75
5.24242e-76
3.93307e-77
2.91059e-78
2.12468e-79
1.52998e-80
1.08685e-81
7.61657e-83
5.2659e-84
3.59189e-85
2.41727e-86
1.60508e-87
1.0516e-88
6.7983e-90
4.33675e-91
2.72997e-92
1.69588e-93
1.03966e-94
6.29016e-96
3.75596e-97
2.21352e-98
1.28755e-99
7.39219e-101
4.18916e-102
2.34335e-103
1.29394e-104
7.05295e-106
3.79502e-107
2.01583e-108
1.05704e-109
5.47186e-111
2.79627e-112
1.41066e-113
7.02512e-115
3.45348e-116
1.6757e-117
8.02512e-119
3.79258e-120
1.76854e-121
8.13395e-123
3.68952e-124
1.64885e-125
7.26077e-127
3.14291e-128
1.33845e-129
5.57672e-131
2.28419e-132
5.05795e-20
2.93202e-18
8.05664e-17
1.40827e-15
1.78925e-14
1.77151e-13
1.4284e-12
9.66903e-12
5.61923e-11
2.85309e-10
1.28385e-09
5.18245e-09
1.89644e-08
6.34889e-08
1.96008e-07
5.619e-07
1.50455e-06
3.78155e-06
8.95832e-06
2.00692e-05
4.26341e-05
8.60746e-05
0.000165457
0.000303248
0.000530365
0.00088537
0.00141083
0.00214775
0.00312974
0.00435708
0.00576437
0.00703359
0.00799135
0.008524
0.00874821
0.00840155
0.00765368
0.00663017
0.00545867
0.00425315
0.00315038
0.00220623
0.0014611
0.000914353
0.000540669
0.000302081
0.00015977
8.01025e-05
3.81935e-05
1.73041e-05
7.45597e-06
3.07149e-06
1.21096e-06
4.57606e-07
1.66051e-07
5.79615e-08
1.94944e-08
6.32739e-09
1.98477e-09
6.02486e-10
1.77204e-10
5.05575e-11
1.40069e-11
3.77196e-12
9.88214e-13
2.52088e-13
6.26613e-14
1.51879e-14
3.59192e-15
8.29354e-16
1.87057e-16
4.12331e-17
8.88695e-18
1.8736e-18
3.86536e-19
7.8063e-20
1.54379e-20
2.99054e-21
5.67618e-22
1.0559e-22
1.92556e-23
3.4432e-24
6.03852e-25
1.03885e-25
1.75354e-26
2.90468e-27
4.72254e-28
7.5374e-29
1.18115e-29
1.81759e-30
2.74696e-31
4.07794e-32
5.94729e-33
8.52204e-34
1.19997e-34
1.66056e-35
2.25863e-36
3.01992e-37
3.96966e-38
5.1306e-39
6.52058e-40
8.14992e-41
1.00188e-41
1.21147e-42
1.44109e-43
1.68652e-44
1.94203e-45
2.20052e-46
2.45379e-47
2.69297e-48
2.90901e-49
3.09328e-50
3.2381e-51
3.33733e-52
3.38672e-53
3.38713e-54
3.34017e-55
3.24772e-56
3.11353e-57
2.94297e-58
2.74266e-59
2.52008e-60
2.28306e-61
2.03931e-62
1.79606e-63
1.55969e-64
1.3355e-65
1.12758e-66
9.38772e-68
7.70714e-69
6.23963e-70
4.98162e-71
3.92231e-72
3.04569e-73
2.33248e-74
1.76179e-75
1.31252e-76
9.64476e-78
6.99075e-79
4.99826e-80
3.52526e-81
2.45277e-82
1.68358e-83
1.14007e-84
7.61682e-86
5.02078e-87
3.26543e-88
2.09555e-89
1.32697e-90
8.29164e-92
5.11277e-93
3.11116e-94
1.86833e-95
1.1073e-96
6.47696e-98
3.73926e-99
2.1307e-100
1.19838e-101
6.65289e-103
3.64574e-104
1.97209e-105
1.05304e-106
5.55063e-108
2.88818e-109
1.48351e-110
7.52208e-112
3.7649e-113
1.86006e-114
9.07033e-116
4.36536e-117
2.07318e-118
9.715e-120
4.49013e-121
2.04672e-122
9.19282e-124
4.0687e-125
1.77105e-126
7.58647e-128
3.18576e-129
1.31642e-130
9.40871e-19
5.23469e-17
1.3994e-15
2.37781e-14
2.93814e-13
2.83029e-12
2.22043e-11
1.462e-10
8.26399e-10
4.08284e-09
1.78926e-08
7.04206e-08
2.51542e-07
8.22837e-07
2.48406e-06
6.96644e-06
1.82502e-05
4.48669e-05
0.000103897
0.000227291
0.000470829
0.000925152
0.00172656
0.00306258
0.00516444
0.00827897
0.0126191
0.0183061
0.0253071
0.0332656
0.0415123
0.0485142
0.0533211
0.0556489
0.0564803
0.0540009
0.0495253
0.0434887
0.0365077
0.0292026
0.0222878
0.0161808
0.0111354
0.0072483
0.0044611
0.00259342
0.00142546
0.000741746
0.000366139
0.000171808
7.66339e-05
3.26203e-05
1.32672e-05
5.16552e-06
1.92893e-06
6.92117e-07
2.39032e-07
7.95882e-08
2.55866e-08
7.95341e-09
2.39352e-09
6.98204e-10
1.97639e-10
5.43442e-11
1.4529e-11
3.78003e-12
9.57821e-13
2.36549e-13
5.69773e-14
1.33936e-14
3.07434e-15
6.8944e-16
1.51126e-16
3.23948e-17
6.79324e-18
1.39415e-18
2.80108e-19
5.51137e-20
1.06229e-20
2.00629e-21
3.71387e-22
6.73973e-23
1.19933e-23
2.09321e-24
3.5838e-25
6.02031e-26
9.9246e-27
1.60584e-27
2.55068e-28
3.97778e-29
6.0915e-30
9.16151e-31
1.35341e-31
1.96413e-32
2.80057e-33
3.92383e-34
5.40276e-35
7.31164e-36
9.72651e-37
1.27201e-37
1.63556e-38
2.06789e-39
2.57112e-40
3.14408e-41
3.7817e-42
4.47449e-43
5.20842e-44
5.96508e-45
6.72225e-46
7.45489e-47
8.13647e-48
8.74057e-49
9.24255e-50
9.62119e-51
9.86023e-52
9.95386e-53
9.90588e-54
9.71834e-55
9.39916e-56
8.96157e-57
8.42321e-58
7.80498e-59
7.12969e-60
6.42067e-61
5.70046e-62
4.98964e-63
4.30595e-64
3.66373e-65
3.07356e-66
2.54238e-67
2.07363e-68
1.66774e-69
1.32265e-70
1.03443e-71
7.97827e-73
6.06853e-74
4.55241e-75
3.36821e-76
2.45794e-77
1.76919e-78
1.25611e-79
8.79713e-81
6.07765e-82
4.14215e-83
2.78503e-84
1.8474e-85
1.20903e-86
7.80688e-88
4.97387e-89
3.12683e-90
1.93966e-91
1.18733e-92
7.17231e-94
4.27565e-95
2.51546e-96
1.46055e-97
8.36983e-99
4.734e-100
2.6428e-101
1.45625e-102
7.92055e-104
4.25234e-105
2.25352e-106
1.17886e-107
6.08732e-109
3.10281e-110
1.56112e-111
7.75283e-113
3.8001e-114
1.83831e-115
8.77529e-117
4.1332e-118
1.92018e-119
8.79801e-121
3.97285e-122
1.76792e-123
7.74214e-125
3.33739e-126
1.41291e-127
5.89024e-129
1.29159e-17
6.90123e-16
1.79421e-14
2.95612e-13
3.53729e-12
3.29833e-11
2.50528e-10
1.59821e-09
8.76273e-09
4.20464e-08
1.79173e-07
6.8645e-07
2.38941e-06
7.62474e-06
2.24756e-05
6.15862e-05
0.000157674
0.000378712
0.00085608
0.00182575
0.0036802
0.00702
0.0126807
0.0216982
0.0351757
0.0540329
0.0786441
0.108428
0.14155
0.174799
0.205116
0.230655
0.246707
0.253113
0.253025
0.241006
0.22315
0.200559
0.173322
0.143405
0.113421
0.0858117
0.0620679
0.0424286
0.0274104
0.0167411
0.0096386
0.00524422
0.00269966
0.00131818
0.000611412
0.000269988
0.000113715
4.5773e-05
1.76432e-05
6.52471e-06
2.31932e-06
7.93825e-07
2.6203e-07
8.35381e-08
2.57588e-08
7.69177e-09
2.2269e-09
6.25784e-10
1.70857e-10
4.53663e-11
1.17245e-11
2.95163e-12
7.2435e-13
1.73397e-13
4.05145e-14
9.24476e-15
2.0612e-15
4.4925e-16
9.57608e-17
1.99707e-17
4.07624e-18
8.14588e-19
1.59427e-19
3.05671e-20
5.74293e-21
1.05757e-21
1.90933e-22
3.38022e-23
5.86934e-24
9.99769e-25
1.67092e-25
2.74051e-26
4.41165e-27
6.97162e-28
1.08167e-28
1.64796e-29
2.46578e-30
3.62388e-31
5.23195e-32
7.42127e-33
1.03436e-33
1.41676e-34
1.90724e-35
2.52375e-36
3.28297e-37
4.19872e-38
5.28009e-39
6.52959e-40
7.94138e-41
9.49981e-42
1.11785e-42
1.29405e-43
1.47384e-44
1.65169e-45
1.82147e-46
1.97685e-47
2.11165e-48
2.22026e-49
2.29806e-50
2.34223e-51
2.35297e-52
2.32984e-53
2.27384e-54
2.18738e-55
2.07406e-56
1.93848e-57
1.78587e-58
1.62179e-59
1.4518e-60
1.28115e-61
1.11451e-62
9.55815e-64
8.08135e-65
6.73642e-66
5.53636e-67
4.48627e-68
3.5845e-69
2.82403e-70
2.19394e-71
1.68078e-72
1.26983e-73
9.4612e-75
6.95228e-76
5.03856e-77
3.60165e-78
2.53939e-79
1.76606e-80
1.21157e-81
8.1993e-83
5.47399e-84
3.60536e-85
2.34276e-86
1.50196e-87
9.50072e-89
5.92977e-90
3.65191e-91
2.21931e-92
1.33091e-93
7.87636e-95
4.60007e-96
2.65142e-97
1.50828e-98
8.46818e-100
4.69258e-101
2.5666e-102
1.3856e-103
7.38344e-105
3.88353e-106
2.01624e-107
1.03325e-108
5.22643e-110
2.60937e-111
1.28578e-112
6.25285e-114
3.00061e-115
1.42077e-116
6.63583e-118
3.05681e-119
1.38806e-120
6.21215e-122
2.73761e-123
1.18798e-124
5.0705e-126
2.13258e-127
1.20837e-16
6.21236e-15
1.57412e-13
2.52079e-12
2.92942e-11
2.65225e-10
1.95821e-09
1.21661e-08
6.50713e-08
3.04903e-07
1.26966e-06
4.75598e-06
1.61919e-05
5.05393e-05
0.000145662
0.000389938
0.000974235
0.00228048
0.00501627
0.010391
0.0202984
0.0374318
0.0652336
0.1076
0.168317
0.250376
0.355423
0.455425
0.529168
0.59359
0.640233
0.67144
0.691159
0.70097
0.70495
0.69509
0.669553
0.627919
0.571663
0.50086
0.417373
0.329034
0.251398
0.184059
0.126119
0.0818129
0.049965
0.0286858
0.0155389
0.00795401
0.00385763
0.00177672
0.000778704
0.000325441
0.000129967
4.97007e-05
1.82362e-05
6.43226e-06
2.1848e-06
7.15779e-07
2.26523e-07
6.93446e-08
2.05604e-08
5.91128e-09
1.64982e-09
4.47436e-10
1.18024e-10
3.03054e-11
7.58097e-12
1.84882e-12
4.39863e-13
1.02153e-13
2.31709e-14
5.13581e-15
1.11289e-15
2.3586e-16
4.89091e-17
9.92689e-18
1.97273e-18
3.83962e-19
7.32142e-20
1.36806e-20
2.50566e-21
4.49932e-22
7.92267e-23
1.36831e-23
2.3183e-24
3.85391e-25
6.28721e-26
1.00672e-26
1.58242e-27
2.44209e-28
3.70076e-29
5.50771e-30
8.05119e-31
1.15615e-31
1.63112e-32
2.26117e-33
3.08038e-34
4.1243e-35
5.42777e-36
7.02208e-37
8.93163e-38
1.11702e-38
1.37374e-39
1.66152e-40
1.97653e-41
2.31284e-42
2.66241e-43
3.01529e-44
3.36009e-45
3.68452e-46
3.97613e-47
4.22306e-48
4.41491e-49
4.54404e-50
4.60894e-51
4.60687e-52
4.53797e-53
4.40533e-54
4.21468e-55
3.97402e-56
3.69304e-57
3.3825e-58
3.05356e-59
2.71707e-60
2.38307e-61
2.0603e-62
1.75589e-63
1.47521e-64
1.22185e-65
9.97711e-67
8.03215e-68
6.37555e-69
4.98975e-70
3.85065e-71
2.93023e-72
2.19886e-73
1.6272e-74
1.18754e-75
8.54749e-77
6.06778e-78
4.24854e-79
2.93417e-80
1.99887e-81
1.34324e-82
8.90458e-84
5.82343e-85
3.75723e-86
2.39165e-87
1.50205e-88
9.30779e-90
5.69114e-91
3.43367e-92
2.04428e-93
1.20105e-94
6.96356e-96
3.98447e-97
2.25003e-98
1.25401e-99
6.89787e-101
3.74492e-102
2.00675e-103
1.06138e-104
5.54088e-106
2.85508e-107
1.45205e-108
7.28889e-110
3.61107e-111
1.76557e-112
8.51843e-114
4.05527e-115
1.90445e-116
8.82161e-118
4.02886e-119
1.81381e-120
8.04492e-122
3.51525e-123
1.51247e-124
6.41731e-126
7.77907e-16
3.91496e-14
9.78747e-13
1.53934e-11
1.75534e-10
1.55825e-09
1.12629e-08
6.83482e-08
3.56332e-07
1.62586e-06
6.59306e-06
2.40645e-05
7.98871e-05
0.000243266
0.000684341
0.00178953
0.00437437
0.0100478
0.0217904
0.0447898
0.0875069
0.162955
0.290404
0.463857
0.575669
0.68431
0.735361
0.768069
0.792908
0.805106
0.815694
0.827865
0.839426
0.854579
0.868987
0.883072
0.894991
0.902076
0.901126
0.88687
0.856087
0.79957
0.704444
0.577511
0.433967
0.298465
0.198389
0.121507
0.0701727
0.0379991
0.0194259
0.00939617
0.00431131
0.00188076
0.000781823
0.000310414
0.00011798
4.30161e-05
1.5075e-05
5.08707e-06
1.65569e-06
5.20531e-07
1.583e-07
4.66275e-08
1.33183e-08
3.69295e-09
9.95088e-10
2.60804e-10
6.65435e-11
1.65415e-11
4.00899e-12
9.47921e-13
2.188e-13
4.93291e-14
1.08682e-14
2.34103e-15
4.93222e-16
1.01678e-16
2.05173e-17
4.05381e-18
7.84487e-19
1.48734e-19
2.76345e-20
5.03283e-21
8.98649e-22
1.57354e-22
2.70248e-23
4.55327e-24
7.52729e-25
1.22119e-25
1.94457e-26
3.03968e-27
4.66511e-28
7.03049e-29
1.04054e-29
1.51266e-30
2.16016e-31
3.03073e-32
4.17811e-33
5.66023e-34
7.53632e-35
9.86293e-36
1.26888e-36
1.60491e-37
1.99592e-38
2.44086e-39
2.93556e-40
3.47244e-41
4.04032e-42
4.62461e-43
5.20781e-44
5.77029e-45
6.29131e-46
6.75035e-47
7.1284e-48
7.41022e-49
7.58979e-50
7.65943e-51
7.61628e-52
7.46243e-53
7.20478e-54
6.85451e-55
6.42629e-56
5.93726e-57
5.40592e-58
4.85095e-59
4.29016e-60
3.73962e-61
3.21298e-62
2.72101e-63
2.27151e-64
1.8693e-65
1.5165e-66
1.21289e-67
9.56396e-69
7.43549e-70
5.69975e-71
4.30818e-72
3.21103e-73
2.36008e-74
1.71063e-75
1.2228e-76
8.62061e-78
5.99414e-79
4.11092e-80
2.78095e-81
1.85569e-82
1.22151e-83
7.93202e-85
5.0814e-86
3.21155e-87
2.0026e-88
1.23207e-89
7.47932e-91
4.48007e-92
2.64802e-93
1.54449e-94
8.88985e-96
5.04964e-97
2.83072e-98
1.56609e-99
8.55121e-101
4.60831e-102
2.45113e-103
1.28677e-104
6.66738e-106
3.40973e-107
1.72104e-108
8.57334e-110
4.21483e-111
2.04476e-112
9.78818e-114
4.62258e-115
2.15343e-116
9.89286e-118
4.48107e-119
2.00062e-120
8.80346e-122
3.81788e-123
1.63395e-124
3.26411e-15
1.64855e-13
4.12951e-12
6.44049e-11
7.25281e-10
6.34828e-09
4.51936e-08
2.69886e-07
1.38471e-06
6.22301e-06
2.48793e-05
8.95977e-05
0.000293693
0.00088425
0.00246605
0.00642275
0.0157464
0.0366088
0.0812039
0.172582
0.352255
0.533163
0.65333
0.710934
0.743053
0.756874
0.760292
0.759935
0.750633
0.730954
0.719574
0.715596
0.736304
0.767225
0.806123
0.848596
0.890306
0.920642
0.942274
0.954749
0.96109
0.962934
0.9528
0.92609
0.870588
0.762457
0.588967
0.397097
0.247439
0.143635
0.0782675
0.0401021
0.0194096
0.00889719
0.00387226
0.00160426
0.000634322
0.000239957
8.70412e-05
3.03375e-05
1.01791e-05
3.29344e-06
1.02917e-06
3.11059e-07
9.10521e-08
2.58439e-08
7.12089e-09
1.90662e-09
4.96545e-10
1.25891e-10
3.10966e-11
7.48912e-12
1.75969e-12
4.03639e-13
9.04359e-14
1.98016e-14
4.2391e-15
8.87656e-16
1.81879e-16
3.64788e-17
7.16411e-18
1.3781e-18
2.59725e-19
4.79706e-20
8.68498e-21
1.54167e-21
2.68372e-22
4.58233e-23
7.67579e-24
1.2616e-24
2.03496e-25
3.22176e-26
5.00726e-27
7.64083e-28
1.14492e-28
1.68486e-29
2.43535e-30
3.45799e-31
4.82399e-32
6.6124e-33
8.90705e-34
1.17918e-34
1.53443e-35
1.96282e-36
2.46848e-37
3.05237e-38
3.7115e-39
4.43823e-40
5.2199e-41
6.03877e-42
6.87242e-43
7.69464e-44
8.47666e-45
9.18879e-46
9.80234e-47
1.0293e-47
1.06471e-48
1.08496e-49
1.08919e-50
1.07724e-51
1.04969e-52
1.00776e-53
9.53284e-55
8.88526e-56
8.16053e-57
7.3856e-58
6.58705e-59
5.78966e-60
5.01523e-61
4.28179e-62
3.60309e-63
2.98855e-64
2.44344e-65
1.96933e-66
1.56471e-67
1.22564e-68
9.46515e-70
7.20691e-71
5.41061e-72
4.00533e-73
2.92379e-74
2.10469e-75
1.49411e-76
1.04605e-77
7.22292e-79
4.91909e-80
3.30436e-81
2.18946e-82
1.43105e-83
9.22698e-85
5.86904e-86
3.68295e-87
2.28015e-88
1.39279e-89
8.39425e-91
4.99191e-92
2.92925e-93
1.69616e-94
9.69194e-96
5.46517e-97
3.04129e-98
1.67027e-99
9.05307e-101
4.84281e-102
2.5568e-103
1.33228e-104
6.85167e-106
3.47771e-107
1.74211e-108
8.61243e-110
4.20164e-111
2.02266e-112
9.60691e-114
4.50146e-115
2.08043e-116
9.48248e-118
4.26179e-119
1.88871e-120
8.2551e-122
3.56296e-123
9.19366e-15
4.78188e-13
1.22817e-11
1.9332e-10
2.19808e-09
1.90675e-08
1.34583e-07
7.97795e-07
4.06962e-06
1.82005e-05
7.24213e-05
0.000259649
0.00084877
0.00255783
0.00718212
0.0189816
0.0476454
0.114372
0.263629
0.475862
0.599782
0.661411
0.688041
0.696517
0.686168
0.618528
0.516105
0.409206
0.336909
0.296034
0.278421
0.27329
0.294031
0.334602
0.408103
0.513628
0.646209
0.779543
0.871292
0.929703
0.960755
0.975983
0.983079
0.986339
0.983005
0.968504
0.931346
0.844196
0.659597
0.42837
0.251557
0.138
0.0711331
0.0345451
0.0158543
0.00689632
0.00285172
0.0011243
0.000423749
0.000153051
5.30895e-05
1.77208e-05
5.70207e-06
1.7716e-06
5.32273e-07
1.54856e-07
4.36811e-08
1.19599e-08
3.18193e-09
8.23373e-10
2.0741e-10
5.09021e-11
1.21797e-11
2.84331e-12
6.47983e-13
1.44244e-13
3.13799e-14
6.6746e-15
1.3887e-15
2.82726e-16
5.63454e-17
1.09958e-17
2.10188e-18
3.93655e-19
7.22548e-20
1.30006e-20
2.29354e-21
3.96809e-22
6.73405e-23
1.12117e-23
1.83163e-24
2.93664e-25
4.62146e-26
7.13982e-27
1.08302e-27
1.6132e-28
2.35994e-29
3.39102e-30
4.78665e-31
6.63829e-32
9.046e-33
1.21139e-33
1.59436e-34
2.06258e-35
2.62305e-36
3.27958e-37
4.03173e-38
4.87384e-39
5.79427e-40
6.77515e-41
7.79242e-42
8.8166e-43
9.814e-44
1.07485e-44
1.15836e-45
1.22874e-46
1.28374e-47
1.32103e-48
1.33901e-49
1.33692e-50
1.31491e-51
1.27402e-52
1.21607e-53
1.14358e-54
1.05954e-55
9.67238e-57
8.70031e-58
7.71155e-59
6.73559e-60
5.79773e-61
4.91825e-62
4.112e-63
3.38851e-64
2.75232e-65
2.20366e-66
1.73926e-67
1.35327e-68
1.03806e-69
7.85051e-71
5.85375e-72
4.30379e-73
3.1201e-74
2.23052e-75
1.57248e-76
1.09327e-77
7.49631e-79
5.06954e-80
3.3815e-81
2.22478e-82
1.44386e-83
9.24351e-85
5.83773e-86
3.63717e-87
2.2357e-88
1.35584e-89
8.11281e-91
4.78976e-92
2.79031e-93
1.604e-94
9.09874e-96
5.0933e-97
2.81365e-98
1.53393e-99
8.25303e-101
4.38232e-102
2.29658e-103
1.18781e-104
6.06321e-106
3.05449e-107
1.51861e-108
7.45087e-110
3.60741e-111
1.72337e-112
8.123e-114
3.77716e-115
1.73256e-116
7.83919e-118
3.49897e-119
1.54113e-120
6.70684e-122
1.97116e-14
1.40485e-12
3.68418e-11
4.81056e-10
4.83308e-09
4.2596e-08
3.03663e-07
1.81286e-06
9.29377e-06
4.16902e-05
0.000166204
0.000597421
0.00196306
0.00597464
0.0170553
0.0462492
0.120751
0.307381
0.497742
0.59278
0.632897
0.64715
0.634787
0.548401
0.361865
0.240173
0.17059
0.138086
0.123192
0.118407
0.119198
0.123313
0.128006
0.134375
0.14448
0.167387
0.221616
0.347606
0.565735
0.771765
0.884407
0.94575
0.976013
0.988594
0.993312
0.994921
0.992555
0.981688
0.948838
0.855676
0.633793
0.380134
0.211782
0.110066
0.0537332
0.024724
0.01076
0.00444491
0.0017486
0.000657002
0.000236383
8.16287e-05
2.71114e-05
8.67682e-06
2.68049e-06
8.0055e-07
2.31474e-07
6.48813e-08
1.76503e-08
4.66518e-09
1.19921e-09
3.00069e-10
7.31479e-11
1.73845e-11
4.03084e-12
9.1238e-13
2.0172e-13
4.35851e-14
9.20775e-15
1.90275e-15
3.84767e-16
7.61653e-17
1.47641e-17
2.80336e-18
5.21553e-19
9.5099e-20
1.69988e-20
2.97934e-21
5.12124e-22
8.63507e-23
1.42848e-23
2.31884e-24
3.6943e-25
5.77727e-26
8.86968e-27
1.33705e-27
1.97927e-28
2.87763e-29
4.10954e-30
5.76546e-31
7.94711e-32
1.07639e-32
1.43273e-33
1.87432e-34
2.4102e-35
3.04677e-36
3.78659e-37
4.62727e-38
5.56046e-39
6.5713e-40
7.63814e-41
8.73295e-42
9.82228e-43
1.08688e-43
1.18334e-44
1.26807e-45
1.33814e-46
1.39061e-47
1.42323e-48
1.43459e-49
1.42424e-50
1.39272e-51
1.34149e-52
1.27285e-53
1.18975e-54
1.09558e-55
9.93955e-57
8.88473e-58
7.82528e-59
6.79136e-60
5.80814e-61
4.89513e-62
4.06594e-63
3.3285e-64
2.68567e-65
2.13595e-66
1.67452e-67
1.29411e-68
9.85946e-70
7.40559e-71
5.48418e-72
4.00434e-73
2.88296e-74
2.0467e-75
1.43284e-76
9.89221e-78
6.73532e-79
4.52286e-80
2.99556e-81
1.95691e-82
1.26099e-83
8.01536e-85
5.02595e-86
3.10898e-87
1.89732e-88
1.14236e-89
6.78611e-91
3.97753e-92
2.30036e-93
1.31275e-94
7.39244e-96
4.10796e-97
2.25274e-98
1.21914e-99
6.51119e-101
3.43196e-102
1.78527e-103
9.16526e-105
4.64372e-106
2.322e-107
1.14584e-108
5.57996e-110
2.68145e-111
1.2715e-112
5.94906e-114
2.74636e-115
1.25102e-116
5.62379e-118
2.4959e-119
1.09501e-120
3.10804e-14
1.98224e-12
5.20517e-11
9.22696e-10
1.23474e-08
1.18137e-07
9.13338e-07
5.68795e-06
2.84189e-05
0.000122147
0.000483587
0.00172502
0.00555683
0.0161551
0.0429447
0.105296
0.266477
0.465294
0.5629
0.600996
0.614889
0.575954
0.418584
0.240501
0.156887
0.117767
0.102325
0.0975955
0.096764
0.100257
0.104547
0.111201
0.118912
0.122819
0.122795
0.118902
0.120318
0.137854
0.204422
0.411521
0.693616
0.849351
0.933035
0.973321
0.990111
0.995903
0.997761
0.997829
0.99482
0.982357
0.938502
0.793999
0.511786
0.28734
0.150762
0.0740417
0.0341678
0.0148807
0.00614173
0.00241102
0.000903086
0.00032365
0.000111252
3.6761e-05
1.16997e-05
3.59294e-06
1.06641e-06
3.06367e-07
8.53067e-08
2.30503e-08
6.05063e-09
1.54452e-09
3.8375e-10
9.28818e-11
2.19163e-11
5.04501e-12
1.13368e-12
2.48828e-13
5.33732e-14
1.11937e-14
2.29635e-15
4.60997e-16
9.05968e-17
1.74354e-17
3.28691e-18
6.07168e-19
1.09928e-19
1.95116e-20
3.39596e-21
5.79702e-22
9.70751e-23
1.59496e-23
2.57161e-24
4.06955e-25
6.32178e-26
9.64157e-27
1.44389e-27
2.1235e-28
3.06736e-29
4.35235e-30
6.06709e-31
8.30976e-32
1.1184e-32
1.47929e-33
1.92313e-34
2.45757e-35
3.0874e-36
3.8134e-37
4.63137e-38
5.53129e-39
6.4969e-40
7.50568e-41
8.5294e-42
9.53525e-43
1.04875e-43
1.13529e-44
1.21002e-45
1.26986e-46
1.31224e-47
1.33534e-48
1.33816e-49
1.32065e-50
1.28367e-51
1.22894e-52
1.15888e-53
1.07648e-54
9.8505e-56
8.88006e-57
7.88686e-58
6.90155e-59
5.95071e-60
5.05584e-61
4.23298e-62
3.4926e-63
2.84005e-64
2.27615e-65
1.79803e-66
1.40002e-67
1.07458e-68
8.13083e-70
6.06513e-71
4.46045e-72
3.23424e-73
2.31229e-74
1.63008e-75
1.13317e-76
7.76825e-78
5.25183e-79
3.5017e-80
2.30276e-81
1.49362e-82
9.55586e-84
6.0306e-85
3.7543e-86
2.30566e-87
1.39694e-88
8.35009e-90
4.92443e-91
2.86542e-92
1.64514e-93
9.32002e-95
5.21008e-96
2.87409e-97
1.56457e-98
8.40508e-100
4.45605e-101
2.33146e-102
1.20387e-103
6.13497e-105
3.08548e-106
1.53148e-107
7.50186e-109
3.62654e-110
1.73011e-111
8.14549e-113
3.7847e-114
1.7357e-115
7.85818e-117
3.5138e-118
1.55385e-119
6.2596e-14
2.29778e-12
5.90935e-11
1.02512e-09
1.36758e-08
1.29787e-07
1.02728e-06
6.8766e-06
3.85292e-05
0.000178672
0.000698404
0.00238945
0.00722677
0.0203523
0.0571539
0.176451
0.386145
0.516526
0.569062
0.590765
0.569718
0.408944
0.227907
0.141471
0.107364
0.0943482
0.0889357
0.083309
0.0791295
0.0772625
0.0800857
0.0918706
0.113246
0.134892
0.146476
0.138379
0.120258
0.114514
0.125551
0.185029
0.407289
0.697914
0.85993
0.940769
0.976969
0.991986
0.997418
0.998968
0.999184
0.998197
0.992713
0.969225
0.8786
0.614226
0.350228
0.185538
0.0915936
0.0423531
0.0184439
0.00760012
0.00297518
0.00111022
0.000396081
0.000135448
4.45021e-05
1.40772e-05
4.29536e-06
1.26637e-06
3.61301e-07
9.98899e-08
2.67953e-08
6.98188e-09
1.76891e-09
4.36178e-10
1.04764e-10
2.45295e-11
5.6027e-12
1.24917e-12
2.72029e-13
5.78916e-14
1.20458e-14
2.45175e-15
4.88333e-16
9.52184e-17
1.81821e-17
3.40112e-18
6.23427e-19
1.12009e-19