/*--------------------------------*- C++ -*----------------------------------*\
  =========                 |
  \\      /  F ield         | OpenFOAM: The Open Source CFD Toolbox
   \\    /   O peration     | Website:  https://openfoam.org
    \\  /    A nd           | Version:  7
     \\/     M anipulation  |
\*---------------------------------------------------------------------------*/
FoamFile
{
    version     2.0;
    format      ascii;
    class       volScalarField;
    location    "0.047";
    object      pMean;
}
// * * * * * * * * * * * * * * * * * * * * * * * * * * * * * * * * * * * * * //

dimensions      [0 2 -2 0 0 0 0];

internalField   nonuniform List<scalar> 
12225
(
-1.49034
-0.374754
0.0476074
0.153226
0.199778
0.227322
0.236327
0.224955
0.196697
0.15794
0.115085
0.071065
0.0272964
-0.022596
-0.0813546
-0.18012
-0.322142
-0.705945
-1.16475
-0.363167
0.0442394
0.157527
0.199766
0.224843
0.233983
0.223868
0.196883
0.159358
0.117183
0.074489
0.030196
-0.0162164
-0.0790924
-0.157053
-0.30432
-0.461953
-0.992324
-0.381823
0.0213891
0.156364
0.19877
0.222351
0.233136
0.226124
0.202733
0.168359
0.129038
0.0874381
0.0449019
-0.00338501
-0.0600289
-0.139472
-0.243679
-0.386508
-0.794632
-0.345786
0.0229202
0.168599
0.209379
0.22826
0.237694
0.232441
0.211569
0.179801
0.142048
0.102128
0.0593811
0.0134932
-0.0429541
-0.111101
-0.201893
-0.308159
-0.626374
-0.308727
0.0186085
0.172454
0.216981
0.233137
0.241257
0.237565
0.219634
0.190531
0.155193
0.116732
0.0759452
0.0310695
-0.0207004
-0.0824345
-0.156102
-0.235802
-0.470589
-0.253741
0.0274674
0.182439
0.231835
0.245546
0.250803
0.247294
0.231427
0.204764
0.171328
0.134457
0.0950528
0.0524092
0.00468758
-0.0496443
-0.109728
-0.172279
-0.325254
-0.188628
0.0447639
0.193851
0.247934
0.260387
0.262584
0.258239
0.243931
0.219595
0.188398
0.153362
0.115864
0.0756995
0.0321492
-0.0151879
-0.0649289
-0.114106
-0.190962
-0.114292
0.0731471
0.210623
0.267512
0.279874
0.279353
0.273565
0.260074
0.237618
0.208265
0.17494
0.139429
0.101982
0.0625422
0.0211638
-0.0205421
-0.0602717
-0.0699211
-0.0352336
0.11134
0.23319
0.289906
0.302763
0.30005
0.292188
0.278562
0.257584
0.230225
0.198767
0.165154
0.130219
0.0943829
0.0579923
0.0224697
-0.010572
0.0465058
0.048609
0.159804
0.263608
0.316924
0.329998
0.325705
0.315784
0.301456
0.281173
0.255242
0.22552
0.193872
0.16136
0.128648
0.0962246
0.0652103
0.036728
0.154755
0.134167
0.216088
0.301336
0.348597
0.360848
0.355219
0.343179
0.327567
0.307525
0.282796
0.254537
0.224532
0.194017
0.163828
0.13443
0.106706
0.0813156
0.252182
0.215542
0.275166
0.34361
0.383391
0.393553
0.38662
0.372817
0.355724
0.335244
0.311031
0.283902
0.255259
0.226268
0.197842
0.170437
0.144738
0.121082
0.347216
0.297089
0.338333
0.391611
0.423198
0.430113
0.421428
0.40579
0.387186
0.365942
0.341826
0.315283
0.287521
0.259641
0.232512
0.206498
0.182157
0.15961
0.464275
0.395784
0.417444
0.454768
0.476209
0.477945
0.466486
0.448532
0.427707
0.404977
0.380376
0.354178
0.327159
0.30014
0.273889
0.24877
0.225227
0.20323
0.581972
0.505559
0.513485
0.535688
0.545375
0.539815
0.52404
0.503054
0.479792
0.455149
0.429289
0.402494
0.375394
0.348634
0.322786
0.298064
0.274741
0.252717
0.722916
0.63805
0.632474
0.64003
0.63676
0.621753
0.599661
0.574095
0.547068
0.519409
0.491415
0.463293
0.435388
0.408064
0.381746
0.356594
0.332773
0.310158
0.87311
0.790266
0.777178
0.771077
0.753975
0.727589
0.696915
0.664864
0.632634
0.600586
0.568932
0.537903
0.507787
0.478786
0.451084
0.424688
0.399678
0.375833
1.06219
0.976775
0.953723
0.933435
0.901089
0.860997
0.819135
0.778256
0.739058
0.701436
0.665231
0.63044
0.597226
0.565657
0.535777
0.507467
0.48076
0.455494
1.34653
1.23536
1.18856
1.14703
1.09492
1.03648
0.978339
0.923534
0.872498
0.824754
0.779906
0.737837
0.698584
0.662092
0.62822
0.59665
0.567163
0.539407
1.59518
1.48287
1.42145
1.35632
1.27974
1.20101
1.12801
1.06251
1.00306
0.947948
0.896361
0.84819
0.803572
0.762425
0.724505
0.689448
0.657019
0.62691
1.82993
1.70961
1.62616
1.53198
1.42791
1.32662
1.23555
1.15515
1.08334
1.0183
0.959197
0.905694
0.857401
0.813697
0.773962
0.737588
0.704226
0.673427
2.0905
1.9413
1.81931
1.68985
1.56193
1.44777
1.3495
1.26252
1.18275
1.10908
1.04199
0.981753
0.927957
0.879719
0.836172
0.79653
0.760316
0.727088
2.36934
2.17237
1.99112
1.81077
1.64803
1.51227
1.40004
1.30321
1.21659
1.13869
1.06946
1.00841
0.954432
0.906167
0.862604
0.823085
0.787287
0.754772
2.65271
2.40467
2.16068
1.93989
1.76192
1.6213
1.50139
1.3914
1.2905
1.20109
1.12397
1.05754
0.999404
0.947634
0.901149
0.859245
0.821419
0.787067
2.9329
2.59827
2.25274
1.97617
1.78233
1.64019
1.51799
1.40507
1.30277
1.21387
1.13792
1.07226
1.01433
0.962572
0.916181
0.874585
0.83734
0.80384
3.29625
2.84177
2.39509
2.07975
1.87913
1.72695
1.5861
1.45509
1.34144
1.24688
1.16771
1.09946
1.03924
0.985651
0.937943
0.895416
0.857398
0.823157
3.61341
2.93274
2.38114
2.06794
1.8891
1.74042
1.59528
1.46167
1.34841
1.25499
1.17637
1.10811
1.04775
0.994156
0.946592
0.904321
0.866655
0.832877
4.12143
3.15381
2.45826
2.13008
1.94826
1.78216
1.62206
1.48169
1.366
1.27102
1.19086
1.12129
1.06002
1.00588
0.958002
0.915606
0.877878
0.844069
4.35313
3.11875
2.42302
2.14102
1.96185
1.78843
1.62493
1.48488
1.3701
1.27549
1.19531
1.1257
1.06447
1.01046
0.962749
0.920631
0.883219
0.84998
5.15303
3.16362
2.42358
2.17427
1.98329
1.79919
1.63261
1.49207
1.37685
1.28165
1.20097
1.13101
1.06956
1.01542
0.96764
0.925522
0.888186
0.855238
0.238807
0.238897
0.232392
0.21939
0.199163
0.171708
0.137072
0.0952596
0.0462536
-0.00985768
-0.0727279
-0.141581
-0.215067
-0.291139
-0.367001
-0.439176
-0.503733
-0.556758
-0.59502
-0.616766
-0.621724
-0.611507
-0.590034
-0.562943
-0.536528
-0.515696
-0.503949
-0.502765
-0.509226
-0.526058
-0.550396
-0.584749
-0.636986
-0.69665
-0.761638
-0.836748
-0.928896
-1.04527
-1.18598
-1.34152
-1.50201
-1.65812
-1.80118
-1.92341
-2.01814
-2.07991
-2.1046
-2.08946
-2.03313
-1.93541
-1.79726
-1.62065
-1.40853
-1.16485
-0.894074
-0.60102
-0.290727
0.0316996
0.361459
0.694185
1.02605
1.35376
1.6746
1.98641
2.28753
2.5768
2.85355
3.11752
3.36884
3.60789
3.83515
4.05113
4.25623
4.45076
4.63489
4.80877
4.97252
5.12632
5.27024
5.40418
5.52784
5.64072
5.74229
5.83213
5.91007
5.97624
6.03114
6.0755
6.11024
6.13639
6.155
6.16707
6.17353
6.17524
6.17298
6.16741
6.15911
6.1486
6.13632
6.12265
6.10794
6.09245
6.07641
6.06003
6.04345
6.02681
6.01021
5.99373
5.97742
5.96135
5.94555
5.93003
5.91482
5.89992
5.88533
5.87106
5.85709
5.84342
5.83003
5.81691
5.80404
5.79139
5.77897
5.76674
5.75471
5.74284
5.73114
5.71958
5.70814
5.69682
5.6856
5.67447
5.66342
5.65242
5.64147
5.63056
5.61967
5.60879
5.59792
5.58703
5.57614
5.56521
5.55426
5.54327
5.53223
5.52115
5.51001
5.49882
5.48757
5.47625
5.46488
5.45344
5.44193
5.43037
5.41874
5.40707
5.39534
5.38357
5.37177
5.35995
5.34814
5.33635
5.32461
5.31297
5.30147
5.29019
5.27918
5.2686
5.25854
5.24927
5.24092
5.23405
5.22882
5.22641
5.22704
5.23336
5.24577
5.27084
5.31037
5.37887
0.23183
0.229608
0.221026
0.206198
0.184801
0.156626
0.121356
0.0786849
0.0283511
-0.0297447
-0.0954422
-0.168144
-0.24662
-0.328862
-0.412019
-0.492445
-0.566007
-0.628437
-0.675948
-0.705349
-0.714768
-0.704853
-0.679198
-0.644011
-0.606964
-0.575632
-0.555762
-0.550306
-0.559301
-0.5845
-0.626494
-0.679814
-0.749263
-0.838365
-0.940733
-1.04365
-1.15021
-1.27387
-1.41649
-1.57034
-1.72633
-1.87561
-2.01002
-2.12231
-2.20629
-2.25696
-2.27047
-2.24415
-2.17654
-2.06739
-1.91768
-1.7296
-1.50642
-1.25213
-0.971401
-0.669307
-0.351001
-0.0214319
0.314692
0.653046
0.989796
1.32169
1.64603
1.96071
2.26409
2.55508
2.83302
3.09775
3.34948
3.58874
3.81613
4.03226
4.23761
4.43249
4.61706
4.79144
4.95575
5.11019
5.25491
5.38989
5.51477
5.62903
5.73203
5.82322
5.90235
5.96952
6.02523
6.07024
6.10552
6.13211
6.15109
6.16349
6.17025
6.17222
6.17021
6.16485
6.15674
6.1464
6.13427
6.12075
6.10616
6.09078
6.07485
6.05857
6.04208
6.02553
6.009
5.99259
5.97636
5.96036
5.94461
5.92915
5.91399
5.89914
5.88461
5.87038
5.85646
5.84283
5.82947
5.81639
5.80355
5.79094
5.77856
5.76637
5.75437
5.74253
5.73086
5.71932
5.70791
5.69661
5.68541
5.6743
5.66326
5.65227
5.64134
5.63044
5.61956
5.60869
5.59782
5.58695
5.57605
5.56514
5.55419
5.5432
5.53217
5.52108
5.50995
5.49876
5.48751
5.47619
5.46482
5.45338
5.44187
5.4303
5.41868
5.407
5.39526
5.38349
5.37168
5.35986
5.34803
5.33623
5.32448
5.31281
5.30129
5.28997
5.27892
5.26828
5.25815
5.24876
5.2403
5.23319
5.22777
5.22483
5.2251
5.22999
5.2415
5.26114
5.294
5.32916
0.218831
0.214681
0.204193
0.187955
0.165644
0.13679
0.100768
0.0569918
0.00491674
-0.0558484
-0.125435
-0.203573
-0.289299
-0.380708
-0.474817
-0.567556
-0.653979
-0.728767
-0.787186
-0.825549
-0.84162
-0.836216
-0.813271
-0.778923
-0.740337
-0.704717
-0.678962
-0.669846
-0.683021
-0.721675
-0.783522
-0.874561
-0.980134
-1.09245
-1.21664
-1.35044
-1.49008
-1.63491
-1.78403
-1.93439
-2.08094
-2.21764
-2.33813
-2.43622
-2.50629
-2.54343
-2.5437
-2.50417
-2.42301
-2.29973
-2.13527
-1.93188
-1.69282
-1.42244
-1.12572
-0.807933
-0.47453
-0.130851
0.218091
0.567807
0.914421
1.2547
1.58604
1.90642
2.21433
2.50877
2.78918
3.05551
3.30813
3.5478
3.77539
3.99177
4.19758
4.39321
4.57875
4.7542
4.91964
5.07533
5.22163
5.35863
5.48605
5.60318
5.70916
5.80321
5.88489
5.95421
6.01167
6.05808
6.0945
6.12206
6.14188
6.15502
6.16245
6.16504
6.16357
6.15871
6.15105
6.14112
6.12936
6.11618
6.1019
6.08682
6.07116
6.05514
6.03889
6.02256
6.00625
5.99004
5.974
5.95817
5.94259
5.92729
5.91228
5.89757
5.88317
5.86907
5.85526
5.84174
5.8285
5.81551
5.80277
5.79025
5.77795
5.76584
5.7539
5.74214
5.73052
5.71903
5.70766
5.6964
5.68524
5.67415
5.66314
5.65217
5.64125
5.63036
5.6195
5.60864
5.59778
5.58691
5.57602
5.56511
5.55416
5.54318
5.53215
5.52107
5.50993
5.49874
5.48749
5.47617
5.46479
5.45335
5.44184
5.43027
5.41864
5.40695
5.39521
5.38342
5.3716
5.35976
5.34792
5.33609
5.32431
5.3126
5.30103
5.28964
5.27851
5.26774
5.25748
5.24787
5.23917
5.23165
5.22578
5.22198
5.22127
5.22404
5.23266
5.2458
5.26854
5.28549
0.201056
0.196017
0.184962
0.168442
0.145909
0.116776
0.080282
0.0356727
-0.0178586
-0.0810365
-0.154368
-0.237937
-0.331139
-0.43219
-0.537923
-0.643739
-0.743917
-0.832147
-0.902934
-0.951648
-0.976259
-0.97798
-0.961595
-0.934361
-0.904173
-0.879346
-0.868065
-0.877134
-0.910701
-0.977586
-1.06787
-1.17607
-1.30188
-1.43998
-1.58706
-1.74111
-1.90004
-2.06137
-2.22188
-2.37793
-2.52519
-2.65869
-2.773
-2.86259
-2.92224
-2.94732
-2.93395
-2.87914
-2.78108
-2.63932
-2.45507
-2.23056
-1.96914
-1.67528
-1.35444
-1.01264
-0.656173
-0.291093
0.0771178
0.443742
0.804869
1.15737
1.49882
1.82742
2.14185
2.44126
2.72518
2.99366
3.24728
3.48713
3.7146
3.931
4.13728
4.33391
4.52085
4.69789
4.86496
5.02239
5.17081
5.31071
5.44189
5.56344
5.6741
5.77265
5.85833
5.93101
5.9912
6.0398
6.07801
6.10706
6.12819
6.14249
6.15096
6.15451
6.1539
6.1498
6.14283
6.13351
6.12232
6.10965
6.09585
6.0812
6.06595
6.0503
6.0344
6.01839
6.00239
5.98646
5.97067
5.95509
5.93974
5.92465
5.90983
5.89531
5.88108
5.86714
5.85349
5.84012
5.82701
5.81415
5.80152
5.78912
5.77692
5.7649
5.75306
5.74137
5.72983
5.71841
5.70711
5.69591
5.68479
5.67376
5.66278
5.65186
5.64097
5.63011
5.61927
5.60844
5.5976
5.58675
5.57589
5.56499
5.55405
5.54308
5.53206
5.52099
5.50986
5.49867
5.48742
5.47611
5.46473
5.45329
5.44178
5.4302
5.41856
5.40687
5.39512
5.38332
5.37148
5.35962
5.34775
5.33589
5.32407
5.31231
5.30067
5.28919
5.27795
5.26705
5.25659
5.24674
5.23771
5.22972
5.22324
5.21848
5.21644
5.21701
5.22217
5.22961
5.24247
5.2452
0.179676
0.17469
0.164013
0.148051
0.126131
0.0976705
0.0618468
0.01777
-0.0355864
-0.0992311
-0.174022
-0.260397
-0.3581
-0.465633
-0.579804
-0.695689
-0.806907
-0.906404
-0.988199
-1.04747
-1.08323
-1.0978
-1.09701
-1.08869
-1.08128
-1.08247
-1.09925
-1.13784
-1.20297
-1.29481
-1.41151
-1.54754
-1.69849
-1.86088
-2.03157
-2.20778
-2.38689
-2.5658
-2.74072
-2.90734
-3.06098
-3.19671
-3.3094
-3.39395
-3.44558
-3.4599
-3.43302
-3.36204
-3.24524
-3.08199
-2.8725
-2.61913
-2.32612
-1.99872
-1.64386
-1.26924
-0.882239
-0.489561
-0.097017
0.290578
0.669388
1.03653
1.38991
1.72808
2.05002
2.35507
2.64287
2.91352
3.16778
3.40712
3.63354
3.84909
4.05531
4.25289
4.4416
4.62074
4.78986
4.94926
5.10006
5.24341
5.37948
5.50712
5.62445
5.72955
5.82112
5.89873
5.96286
6.01461
6.05535
6.08653
6.10949
6.12541
6.13535
6.14021
6.14076
6.1377
6.13166
6.12318
6.11275
6.10078
6.08762
6.07356
6.05886
6.04372
6.0283
6.01274
5.99714
5.98159
5.96616
5.9509
5.93586
5.92105
5.90651
5.89224
5.87824
5.86453
5.85109
5.83791
5.82498
5.8123
5.79984
5.78759
5.77553
5.76365
5.75193
5.74036
5.72892
5.7176
5.70639
5.69527
5.68423
5.67326
5.66234
5.65147
5.64063
5.62981
5.61901
5.60821
5.5974
5.58658
5.57573
5.56485
5.55393
5.54297
5.53196
5.5209
5.50978
5.4986
5.48736
5.47605
5.46467
5.45322
5.44171
5.43013
5.41849
5.40678
5.39502
5.38321
5.37136
5.35947
5.34757
5.33567
5.32379
5.31197
5.30025
5.28867
5.2773
5.26622
5.25555
5.2454
5.23599
5.22746
5.22024
5.21443
5.21083
5.20913
5.21061
5.21278
5.21679
5.21012
0.154569
0.150071
0.140255
0.125441
0.104914
0.0781126
0.0441667
0.00207953
-0.0493301
-0.111245
-0.184757
-0.270538
-0.368531
-0.477379
-0.593927
-0.713255
-0.82914
-0.934957
-1.02496
-1.09593
-1.14769
-1.18336
-1.20883
-1.23156
-1.25925
-1.29838
-1.35506
-1.43386
-1.53635
-1.66253
-1.81074
-1.97715
-2.15773
-2.3488
-2.5467
-2.74774
-2.94821
-3.1443
-3.33209
-3.50739
-3.66588
-3.80319
-3.91485
-3.99621
-4.04243
-4.04852
-4.00985
-3.92261
-3.78411
-3.59318
-3.35096
-3.06108
-2.72904
-2.36237
-1.96896
-1.55699
-1.13472
-0.709913
-0.28921
0.122181
0.520449
0.90307
1.26856
1.61617
1.94551
2.25622
2.54798
2.8208
3.07535
3.31325
3.53709
3.75003
3.95475
4.15255
4.34296
4.52447
4.69577
4.85688
5.00951
5.15606
5.29766
5.43294
5.559
5.6729
5.77245
5.85675
5.92627
5.98228
6.02646
6.06049
6.0859
6.10399
6.11584
6.12239
6.12443
6.12269
6.11782
6.1104
6.10092
6.08982
6.07746
6.06415
6.05015
6.03564
6.02082
6.00581
5.99072
5.97565
5.96065
5.9458
5.93113
5.91667
5.90245
5.88848
5.87477
5.86132
5.84813
5.83519
5.82249
5.81002
5.79776
5.78569
5.77381
5.76209
5.75052
5.73908
5.72777
5.71657
5.70546
5.69443
5.68348
5.67259
5.66174
5.65094
5.64016
5.62939
5.61864
5.60788
5.59711
5.58632
5.5755
5.56465
5.55376
5.54282
5.53182
5.52078
5.50967
5.4985
5.48726
5.47596
5.46458
5.45314
5.44163
5.43004
5.41839
5.40668
5.39491
5.38308
5.3712
5.35929
5.34735
5.3354
5.32347
5.31158
5.29977
5.28807
5.27655
5.26528
5.25435
5.24386
5.23401
5.22489
5.21684
5.20991
5.20463
5.20064
5.19851
5.19599
5.19268
5.17941
0.125284
0.121425
0.112646
0.0992713
0.0805869
0.0560504
0.0247834
-0.0142252
-0.0621716
-0.120281
-0.189742
-0.271388
-0.365334
-0.47044
-0.583912
-0.701345
-0.817121
-0.925914
-1.02348
-1.10805
-1.18042
-1.24384
-1.30353
-1.36581
-1.43696
-1.52251
-1.62674
-1.75212
-1.89954
-2.06836
-2.25602
-2.45891
-2.67297
-2.89382
-3.11714
-3.33897
-3.55578
-3.76442
-3.96188
-4.14506
-4.31051
-4.45436
-4.57229
-4.65911
-4.70866
-4.71448
-4.67068
-4.5721
-4.41521
-4.19919
-3.92594
-3.59881
-3.2238
-2.80918
-2.36503
-1.9026
-1.43289
-0.965537
-0.508278
-0.0666574
0.355756
0.757025
1.13644
1.49411
1.83061
2.14665
2.44269
2.7187
2.97463
3.21156
3.43224
3.64092
3.84208
4.03864
4.23044
4.41471
4.5887
4.75146
4.90478
5.05296
5.19942
5.34283
5.47896
5.60324
5.71238
5.80491
5.88113
5.94252
5.99104
6.02872
6.05727
6.07811
6.09237
6.10101
6.10487
6.10473
6.10128
6.09511
6.08678
6.07672
6.06532
6.0529
6.03972
6.02599
6.01189
5.99754
5.98307
5.96857
5.9541
5.93973
5.92551
5.91146
5.89763
5.88401
5.87064
5.8575
5.8446
5.83194
5.8195
5.80728
5.79525
5.7834
5.77172
5.76019
5.7488
5.73753
5.72637
5.71531
5.70433
5.69342
5.68257
5.67178
5.66102
5.65029
5.63959
5.62889
5.61819
5.60749
5.59676
5.58602
5.57523
5.56442
5.55355
5.54263
5.53166
5.52063
5.50954
5.49838
5.48716
5.47586
5.46449
5.45305
5.44153
5.42995
5.41829
5.40657
5.39478
5.38293
5.37103
5.35909
5.34711
5.33511
5.32312
5.31115
5.29923
5.2874
5.27571
5.26422
5.25302
5.24217
5.23183
5.22207
5.21313
5.20503
5.19804
5.19177
5.18627
5.17957
5.17036
5.15203
0.0893665
0.0860976
0.0782894
0.0663504
0.0495806
0.0274648
-0.000840263
-0.0363054
-0.0800665
-0.133303
-0.197188
-0.27255
-0.359644
-0.45767
-0.564492
-0.67678
-0.790507
-0.901774
-1.00843
-1.10968
-1.20666
-1.30233
-1.40111
-1.5081
-1.62817
-1.76532
-1.92222
-2.10013
-2.29854
-2.515
-2.74549
-2.98541
-3.23009
-3.47534
-3.71772
-3.95488
-4.1853
-4.40776
-4.62083
-4.82249
-5.00976
-5.17833
-5.32217
-5.4338
-5.50489
-5.52685
-5.49107
-5.39013
-5.21921
-4.97646
-4.6629
-4.28376
-3.84777
-3.36655
-2.85396
-2.32456
-1.79227
-1.26914
-0.764375
-0.284057
0.168664
0.592864
0.989122
1.35893
1.70426
2.02703
2.32839
2.6085
2.86728
3.10545
3.32527
3.53061
3.72719
3.92073
4.11277
4.29973
4.47727
4.64298
4.79765
4.94635
5.09592
5.24601
5.39133
5.5255
5.64412
5.74512
5.82857
5.89596
5.9495
5.99152
6.02386
6.04802
6.06515
6.07627
6.08229
6.08402
6.0822
6.0775
6.07048
6.06162
6.05134
6.03995
6.02773
6.01489
6.00162
5.98804
5.97429
5.96045
5.94659
5.93279
5.91908
5.90551
5.89211
5.87891
5.86591
5.85313
5.84056
5.82821
5.81607
5.80412
5.79236
5.78076
5.76931
5.758
5.74682
5.73573
5.72475
5.71384
5.70301
5.69223
5.68151
5.67083
5.66017
5.64954
5.63891
5.62829
5.61766
5.60702
5.59635
5.58565
5.57491
5.56413
5.5533
5.54242
5.53147
5.52047
5.50939
5.49825
5.48703
5.47574
5.46438
5.45294
5.44143
5.42984
5.41817
5.40644
5.39464
5.38277
5.37084
5.35886
5.34684
5.33479
5.32273
5.31067
5.29864
5.28667
5.2748
5.26308
5.25157
5.24033
5.22948
5.21905
5.20919
5.19988
5.1912
5.18274
5.17417
5.16378
5.14983
5.12752
0.044877
0.0420214
0.0348664
0.0240332
0.00878242
-0.0113338
-0.0371031
-0.0694032
-0.109276
-0.157817
-0.216137
-0.285077
-0.365073
-0.455841
-0.556226
-0.664127
-0.776956
-0.893153
-1.01168
-1.13262
-1.25735
-1.38855
-1.52982
-1.68508
-1.85778
-2.05033
-2.26364
-2.49674
-2.74659
-3.00856
-3.27721
-3.54729
-3.81483
-4.07802
-4.33658
-4.5913
-4.84323
-5.09308
-5.34051
-5.58349
-5.81763
-6.03593
-6.22898
-6.38597
-6.49517
-6.54391
-6.52004
-6.41375
-6.21894
-5.93414
-5.56308
-5.11379
-4.5987
-4.03338
-3.43474
-2.821
-2.21005
-1.61727
-1.0539
-0.526588
-0.0377559
0.413276
0.829013
1.21277
1.56808
1.8983
2.20603
2.49218
2.75629
2.9981
3.21925
3.42353
3.61683
3.8071
3.99833
4.18726
4.36823
4.53771
4.69527
4.84562
4.99737
5.1519
5.30394
5.44577
5.57215
5.68051
5.77055
5.84381
5.90267
5.94949
5.98612
6.01404
6.03445
6.04839
6.05684
6.06068
6.06071
6.05765
6.05212
6.04462
6.03559
6.02536
6.01422
6.00239
5.99005
5.97735
5.9644
5.95131
5.93814
5.92498
5.91186
5.89883
5.88593
5.87319
5.86061
5.84822
5.83602
5.82402
5.8122
5.80056
5.78909
5.77777
5.76658
5.75552
5.74456
5.73369
5.72289
5.71217
5.7015
5.69088
5.68029
5.66974
5.6592
5.64867
5.63814
5.6276
5.61705
5.60648
5.59588
5.58523
5.57455
5.56381
5.55302
5.54217
5.53126
5.52027
5.50922
5.4981
5.48689
5.47562
5.46426
5.45283
5.44131
5.42972
5.41805
5.4063
5.39449
5.3826
5.37064
5.35863
5.34656
5.33445
5.32231
5.31016
5.29801
5.28589
5.27383
5.26186
5.25004
5.23839
5.227
5.21588
5.20509
5.19458
5.18427
5.17372
5.16239
5.14877
5.131
5.10551
-0.00983971
-0.0126574
-0.019791
-0.0302741
-0.0449615
-0.0642201
-0.0887777
-0.119408
-0.15703
-0.202635
-0.257274
-0.321913
-0.397286
-0.483709
-0.580948
-0.688274
-0.804869
-0.930527
-1.0653
-1.20999
-1.36622
-1.53634
-1.72312
-1.92917
-2.15628
-2.40479
-2.67305
-2.9571
-3.2511
-3.54876
-3.84484
-4.13615
-4.42186
-4.70349
-4.98477
-5.27008
-5.56274
-5.86389
-6.17193
-6.4821
-6.7862
-7.07312
-7.3296
-7.54085
-7.69126
-7.76532
-7.7489
-7.63086
-7.40472
-7.06966
-6.63013
-6.09649
-5.48469
-4.81459
-4.10867
-3.39058
-2.68299
-2.005
-1.37032
-0.786431
-0.254903
0.227007
0.66436
1.06299
1.42868
1.76665
2.08097
2.37351
2.64372
2.89073
3.11529
3.32076
3.5128
3.70077
3.89106
4.08137
4.26506
4.43769
4.59867
4.75184
4.90619
5.06448
5.22107
5.36814
5.49996
5.61366
5.70901
5.78755
5.85161
5.90341
5.94466
5.97671
6.00071
6.01774
6.02883
6.03496
6.03702
6.03576
6.03186
6.02586
6.01821
6.00927
5.99932
5.9886
5.9773
5.96556
5.9535
5.94123
5.92884
5.91638
5.90391
5.89148
5.87914
5.8669
5.85479
5.84284
5.83104
5.81941
5.80795
5.79664
5.78548
5.77446
5.76355
5.75275
5.74204
5.7314
5.72083
5.7103
5.69982
5.68936
5.67893
5.66852
5.65811
5.64769
5.63727
5.62684
5.61637
5.60588
5.59535
5.58477
5.57414
5.56345
5.55271
5.5419
5.53101
5.52006
5.50903
5.49793
5.48674
5.47548
5.46413
5.4527
5.44119
5.42959
5.41792
5.40616
5.39433
5.38241
5.37043
5.35838
5.34626
5.33409
5.32188
5.30962
5.29735
5.28507
5.27281
5.26059
5.24843
5.23637
5.22443
5.21261
5.2009
5.1892
5.17734
5.16485
5.15106
5.13464
5.11377
5.08568
-0.0756631
-0.0789328
-0.0869871
-0.0983293
-0.114018
-0.134261
-0.159787
-0.191306
-0.229725
-0.276026
-0.331275
-0.396549
-0.472851
-0.561041
-0.661737
-0.775462
-0.903137
-1.04545
-1.20326
-1.37768
-1.57014
-1.78228
-2.01569
-2.2714
-2.54909
-2.84662
-3.15982
-3.48271
-3.80858
-4.13161
-4.4487
-4.76028
-5.06974
-5.38257
-5.70508
-6.04273
-6.39814
-6.77036
-7.15412
-7.54008
-7.9165
-8.27006
-8.58586
-8.84744
-9.03702
-9.13607
-9.1267
-8.99447
-8.73099
-8.33501
-7.81307
-7.17958
-6.45536
-5.66591
-4.83958
-4.00537
-3.19049
-2.41784
-1.70361
-1.05626
-0.476747
0.0396572
0.500644
0.914873
1.29088
1.63626
1.95696
2.25588
2.53253
2.78489
3.01303
3.22019
3.41279
3.60072
3.79161
3.98308
4.1684
4.34335
4.50746
4.66436
4.82247
4.98428
5.1442
5.29454
5.42957
5.5467
5.64588
5.72874
5.7975
5.85415
5.90014
5.93654
5.96436
5.98466
5.99855
6.0071
6.01131
6.012
6.00987
6.00549
5.99934
5.99179
5.98314
5.97363
5.96345
5.95276
5.94167
5.9303
5.91873
5.90704
5.89528
5.88351
5.87176
5.86008
5.84849
5.83701
5.82565
5.81443
5.80334
5.79239
5.78157
5.77086
5.76025
5.74974
5.73929
5.7289
5.71856
5.70825
5.69796
5.68769
5.67743
5.66717
5.6569
5.64662
5.63632
5.62598
5.61562
5.60521
5.59476
5.58425
5.57369
5.56306
5.55236
5.54159
5.53075
5.51983
5.50883
5.49775
5.48658
5.47533
5.46399
5.45257
5.44106
5.42946
5.41778
5.40601
5.39416
5.38222
5.37021
5.35812
5.34595
5.33372
5.32142
5.30907
5.29666
5.28422
5.27175
5.25927
5.24678
5.2343
5.22181
5.20929
5.19669
5.18384
5.17052
5.15624
5.14027
5.1214
5.09799
5.06779
-0.15254
-0.156887
-0.167161
-0.181209
-0.200096
-0.223997
-0.253771
-0.290137
-0.334082
-0.386603
-0.448825
-0.521995
-0.607501
-0.70683
-0.82152
-0.953145
-1.10301
-1.27214
-1.46128
-1.67103
-1.90192
-2.15443
-2.4289
-2.72515
-3.04169
-3.37531
-3.72109
-4.07317
-4.42601
-4.77575
-5.12192
-5.4672
-5.81661
-6.17633
-6.55196
-6.9471
-7.36161
-7.79191
-8.23077
-8.6682
-9.09286
-9.4918
-9.84959
-10.1475
-10.3635
-10.4738
-10.4564
-10.2951
-9.98166
-9.51698
-8.91054
-8.1802
-7.35078
-6.45214
-5.51653
-4.57733
-3.66558
-2.80745
-2.02108
-1.31551
-0.691218
-0.142027
0.341783
0.771282
1.15742
1.51005
1.83684
2.14152
2.42358
2.68061
2.91192
3.12114
3.3159
3.50658
3.69968
3.89275
4.0795
4.25623
4.42302
4.58396
4.7467
4.91208
5.07433
5.22619
5.36256
5.48144
5.58318
5.66939
5.74211
5.8031
5.85352
5.89418
5.92586
5.94953
5.9663
5.97737
5.98381
5.98654
5.98629
5.98366
5.97912
5.97306
5.96581
5.95759
5.94861
5.93904
5.92899
5.91858
5.9079
5.89703
5.88604
5.87497
5.86387
5.85279
5.84174
5.83077
5.81989
5.8091
5.79842
5.78785
5.77738
5.767
5.75671
5.74649
5.73633
5.7262
5.71611
5.70603
5.69595
5.68588
5.6758
5.66571
5.65559
5.64545
5.63527
5.62506
5.6148
5.60449
5.59412
5.58369
5.57319
5.56263
5.55198
5.54126
5.53046
5.51958
5.50861
5.49755
5.4864
5.47517
5.46384
5.45243
5.44092
5.42932
5.41763
5.40585
5.39398
5.38203
5.36998
5.35785
5.34563
5.33334
5.32095
5.3085
5.29596
5.28336
5.27068
5.25793
5.24511
5.2322
5.21917
5.20597
5.1925
5.17857
5.16389
5.14797
5.13007
5.10909
5.08357
5.05162
-0.24097
-0.24699
-0.260973
-0.279919
-0.304844
-0.335999
-0.374399
-0.420878
-0.476572
-0.542669
-0.620727
-0.712516
-0.819984
-0.944882
-1.08862
-1.25218
-1.43617
-1.64081
-1.86596
-2.11128
-2.37652
-2.66179
-2.96743
-3.29345
-3.63878
-4.00104
-4.37618
-4.75903
-5.14453
-5.52887
-5.91108
-6.29225
-6.67557
-7.06559
-7.46699
-7.88371
-8.31643
-8.7625
-9.21575
-9.66686
-10.1043
-10.5143
-10.88
-11.1802
-11.3904
-11.485
-11.4418
-11.2445
-10.8863
-10.369
-9.70208
-8.9038
-8.00082
-7.0255
-6.01407
-5.00325
-4.02678
-3.11177
-2.27727
-1.53246
-0.877384
-0.305392
0.194959
0.636027
1.03056
1.38993
1.72263
2.03232
2.31827
2.57816
2.81201
3.02425
3.22368
3.41967
3.61658
3.81133
3.99873
4.17621
4.34546
4.51145
4.67948
4.84796
5.01106
5.1627
5.29897
5.4186
5.52212
5.61105
5.68715
5.75183
5.80603
5.85044
5.8857
5.91264
5.93233
5.94597
5.95472
5.95956
5.96128
5.96049
5.95766
5.9532
5.94741
5.94056
5.93286
5.92447
5.91552
5.90614
5.8964
5.88641
5.87622
5.8659
5.8555
5.84505
5.83459
5.82416
5.81378
5.80346
5.79321
5.78304
5.77295
5.76292
5.75296
5.74305
5.73317
5.72332
5.71348
5.70364
5.6938
5.68393
5.67405
5.66413
5.65418
5.64419
5.63415
5.62406
5.61392
5.60371
5.59343
5.58309
5.57267
5.56217
5.55158
5.54091
5.53016
5.51931
5.50837
5.49734
5.48622
5.475
5.46369
5.45228
5.44077
5.42918
5.41748
5.40569
5.39381
5.38183
5.36975
5.35758
5.34531
5.33295
5.32048
5.30792
5.29526
5.28248
5.2696
5.25659
5.24344
5.23011
5.21655
5.20269
5.18839
5.17344
5.1575
5.14009
5.12049
5.0977
5.07039
5.03702
-0.341381
-0.349308
-0.36838
-0.39501
-0.429914
-0.47338
-0.526655
-0.590806
-0.667647
-0.759215
-0.867785
-0.995139
-1.14246
-1.3101
-1.49787
-1.70521
-1.93145
-2.17565
-2.43667
-2.7136
-3.00644
-3.31616
-3.64426
-3.99194
-4.35909
-4.74353
-5.14055
-5.54362
-5.94575
-6.34112
-6.72726
-7.10464
-7.47663
-7.84884
-8.22765
-8.61869
-9.02417
-9.44179
-9.86539
-10.2858
-10.691
-11.0679
-11.4002
-11.6679
-11.8473
-11.9135
-11.8439
-11.6217
-11.2396
-10.699
-10.0095
-9.18913
-8.26409
-7.26754
-6.23627
-5.20755
-4.21524
-3.28643
-2.43979
-1.68419
-1.01954
-0.439255
0.0678048
0.514541
0.914404
1.2791
1.61663
1.92981
2.21768
2.47892
2.7151
2.9322
3.13879
3.34163
3.5423
3.7375
3.92392
4.10159
4.27424
4.44638
4.61929
4.78943
4.95178
5.10202
5.23764
5.35786
5.46313
5.55462
5.63368
5.70142
5.75865
5.80608
5.84438
5.8743
5.8968
5.91305
5.92419
5.93124
5.93501
5.93613
5.93509
5.93229
5.92805
5.92264
5.91627
5.90912
5.90134
5.89303
5.88429
5.87522
5.86589
5.85636
5.84668
5.83691
5.82708
5.81722
5.80737
5.79754
5.78775
5.778
5.7683
5.75864
5.74902
5.73943
5.72986
5.72029
5.71071
5.70112
5.69151
5.68187
5.67218
5.66245
5.65268
5.64285
5.63295
5.623
5.61297
5.60288
5.5927
5.58245
5.5721
5.56168
5.55116
5.54054
5.52983
5.51903
5.50813
5.49713
5.48603
5.47483
5.46353
5.45213
5.44063
5.42903
5.41733
5.40553
5.39363
5.38163
5.36952
5.35731
5.34499
5.33256
5.32001
5.30735
5.29455
5.28162
5.26853
5.25526
5.24178
5.22805
5.21399
5.19949
5.18441
5.1685
5.15142
5.13267
5.11157
5.0872
5.05839
5.02382
-0.454805
-0.465316
-0.491618
-0.529543
-0.580186
-0.643275
-0.72089
-0.815399
-0.929862
-1.06632
-1.22599
-1.40876
-1.61354
-1.83839
-2.08106
-2.33893
-2.60923
-2.88951
-3.17827
-3.47544
-3.78236
-4.10093
-4.43292
-4.77918
-5.13888
-5.50892
-5.88407
-6.2579
-6.62404
-6.97768
-7.31735
-7.64468
-7.96357
-8.28009
-8.60036
-8.92985
-9.27058
-9.62335
-9.98187
-10.3381
-10.6815
-11.0003
-11.2794
-11.5001
-11.6407
-11.6781
-11.5907
-11.3625
-10.9853
-10.4597
-9.79385
-9.00454
-8.11597
-7.15818
-6.16604
-5.17527
-4.21803
-3.31996
-2.49839
-1.76165
-1.10999
-0.537576
-0.0346016
0.411145
0.812609
1.18035
1.52053
1.83479
2.12257
2.38433
2.6239
2.84779
3.06257
3.27145
3.47381
3.66756
3.85273
4.03238
4.21051
4.38858
4.56446
4.73433
4.89483
5.04343
5.1786
5.29973
5.40691
5.5008
5.58233
5.65243
5.71193
5.76166
5.8024
5.8349
5.86002
5.8788
5.89235
5.90167
5.90758
5.9107
5.91152
5.91045
5.90782
5.90389
5.89891
5.89306
5.88648
5.87929
5.87161
5.8635
5.85506
5.84636
5.83746
5.82839
5.81922
5.80997
5.80067
5.79136
5.78205
5.77275
5.76346
5.75419
5.74492
5.73566
5.7264
5.71712
5.70782
5.69848
5.68911
5.67969
5.67021
5.66068
5.65109
5.64142
5.63169
5.62187
5.61198
5.602
5.59193
5.58177
5.57151
5.56116
5.55071
5.54015
5.5295
5.51874
5.50787
5.4969
5.48583
5.47465
5.46336
5.45197
5.44048
5.42888
5.41718
5.40537
5.39345
5.38143
5.36929
5.35704
5.34467
5.33218
5.31955
5.30678
5.29386
5.28077
5.26747
5.25396
5.24017
5.22604
5.2115
5.19641
5.18059
5.1638
5.14567
5.12573
5.10331
5.07757
5.04749
5.01191
-0.58266
-0.598317
-0.635553
-0.691153
-0.767624
-0.865425
-0.988146
-1.13837
-1.31797
-1.52574
-1.75931
-2.01518
-2.28938
-2.5764
-2.87046
-3.16671
-3.46176
-3.75333
-4.04017
-4.32234
-4.60094
-4.87763
-5.15452
-5.43376
-5.71758
-6.00641
-6.29865
-6.59186
-6.88086
-7.16316
-7.43533
-7.69696
-7.94975
-8.19766
-8.4456
-8.6984
-8.95945
-9.23024
-9.50769
-9.78551
-10.0548
-10.3045
-10.5211
-10.6888
-10.789
-10.8025
-10.7109
-10.4993
-10.159
-9.68861
-9.09357
-8.387
-7.58882
-6.72496
-5.82613
-4.92453
-4.04899
-3.22217
-2.45933
-1.76825
-1.14995
-0.600255
-0.111314
0.327307
0.7264
1.09379
1.4332
1.74557
2.03174
2.29444
2.53864
2.7698
2.99115
3.20321
3.40553
3.59914
3.78707
3.97264
4.15705
4.33859
4.51432
4.68194
4.83991
4.98696
5.122
5.24418
5.35314
5.44897
5.53225
5.60393
5.66502
5.71653
5.7593
5.79407
5.8216
5.84282
5.85878
5.87042
5.87854
5.88375
5.88654
5.8873
5.88636
5.88401
5.8805
5.87601
5.87071
5.86472
5.85814
5.85107
5.84359
5.83577
5.82768
5.81938
5.81091
5.8023
5.7936
5.78484
5.77604
5.76721
5.75836
5.7495
5.74062
5.73171
5.72277
5.71379
5.70477
5.69569
5.68657
5.67738
5.66813
5.6588
5.6494
5.63991
5.63034
5.62068
5.61092
5.60106
5.59111
5.58105
5.57088
5.56061
5.55023
5.53974
5.52914
5.51843
5.5076
5.49667
5.48562
5.47446
5.46319
5.45181
5.44033
5.42873
5.41702
5.4052
5.39327
5.38123
5.36906
5.35677
5.34435
5.3318
5.31909
5.30623
5.29318
5.27993
5.26645
5.25269
5.2386
5.22411
5.20911
5.19345
5.17696
5.15936
5.14029
5.11928
5.0957
5.06879
5.03762
5.0012
-0.721753
-0.746555
-0.802797
-0.88973
-1.01322
-1.17426
-1.37529
-1.61325
-1.88267
-2.17526
-2.48288
-2.79655
-3.10823
-3.41078
-3.69877
-3.9683
-4.21641
-4.44052
-4.64244
-4.82521
-4.99635
-5.16239
-5.33119
-5.50821
-5.69581
-5.89553
-6.10637
-6.32523
-6.54721
-6.76784
-6.98262
-7.18896
-7.38684
-7.57867
-7.76849
-7.96073
-8.15883
-8.36443
-8.57627
-8.79005
-8.99864
-9.1926
-9.36028
-9.48809
-9.56111
-9.56384
-9.48147
-9.30142
-9.01518
-8.61967