/*--------------------------------*- C++ -*----------------------------------*\
  =========                 |
  \\      /  F ield         | OpenFOAM: The Open Source CFD Toolbox
   \\    /   O peration     | Website:  https://openfoam.org
    \\  /    A nd           | Version:  7
     \\/     M anipulation  |
\*---------------------------------------------------------------------------*/
FoamFile
{
    version     2.0;
    format      ascii;
    class       volVectorField;
    location    "0.047";
    object      U;
}
// * * * * * * * * * * * * * * * * * * * * * * * * * * * * * * * * * * * * * //

dimensions      [0 1 -1 0 0 0 0];

internalField   nonuniform List<vector> 
12225
(
(4.76586 0.153968 0)
(4.16538 0.102378 0)
(3.72806 0.0816947 0)
(3.3916 0.0761182 0)
(3.05349 0.0768551 0)
(2.69167 0.0722368 0)
(2.33734 0.0606049 0)
(2.01807 0.0484986 0)
(1.73349 0.0410178 0)
(1.47694 0.0361717 0)
(1.24647 0.0297023 0)
(1.04646 0.0212402 0)
(0.875363 0.0132893 0)
(0.73813 0.00763337 0)
(0.618398 0.0040078 0)
(0.533879 0.00243669 0)
(0.437927 0.000853817 0)
(0.39863 -0.0149305 0)
(4.92064 0.0843643 0)
(4.83492 0.0771409 0)
(4.71167 0.0927067 0)
(4.6205 0.0894238 0)
(4.54651 0.0925303 0)
(4.46202 0.103029 0)
(4.34458 0.111361 0)
(4.19085 0.112705 0)
(4.01374 0.109249 0)
(3.83528 0.104875 0)
(3.66424 0.101105 0)
(3.5023 0.0969486 0)
(3.34054 0.0904518 0)
(3.18756 0.0814177 0)
(3.03572 0.0721555 0)
(2.91259 0.0640635 0)
(2.76828 0.0633112 0)
(2.65991 0.0531667 0)
(4.98194 0.138408 0)
(4.9322 0.101421 0)
(4.8521 0.120909 0)
(4.80103 0.11641 0)
(4.77526 0.11503 0)
(4.76292 0.123098 0)
(4.74894 0.135066 0)
(4.71711 0.144227 0)
(4.6622 0.146963 0)
(4.59411 0.143982 0)
(4.52538 0.1385 0)
(4.46141 0.133322 0)
(4.40116 0.12836 0)
(4.34028 0.122784 0)
(4.27779 0.114643 0)
(4.21075 0.106803 0)
(4.14236 0.105557 0)
(4.06448 0.105635 0)
(5.0108 0.153589 0)
(4.92069 0.100086 0)
(4.82947 0.122526 0)
(4.7688 0.123326 0)
(4.745 0.117554 0)
(4.74807 0.119852 0)
(4.76502 0.130294 0)
(4.77982 0.142028 0)
(4.7788 0.149233 0)
(4.75769 0.150253 0)
(4.724 0.146736 0)
(4.68789 0.140916 0)
(4.65901 0.134711 0)
(4.63722 0.128364 0)
(4.62303 0.122467 0)
(4.60646 0.118541 0)
(4.59181 0.121515 0)
(4.56766 0.128373 0)
(5.08374 0.201758 0)
(4.92723 0.140715 0)
(4.83612 0.143028 0)
(4.78518 0.134318 0)
(4.77508 0.11639 0)
(4.7904 0.108711 0)
(4.81293 0.117428 0)
(4.82648 0.135061 0)
(4.82086 0.152044 0)
(4.79641 0.162053 0)
(4.76418 0.163241 0)
(4.73682 0.157043 0)
(4.72257 0.146923 0)
(4.72124 0.135904 0)
(4.72867 0.126908 0)
(4.73582 0.121733 0)
(4.73965 0.123806 0)
(4.73461 0.131859 0)
(5.01671 0.204714 0)
(4.95764 0.152724 0)
(4.93042 0.14683 0)
(4.93361 0.143785 0)
(4.92264 0.127773 0)
(4.88621 0.11785 0)
(4.84532 0.124566 0)
(4.81367 0.142591 0)
(4.78913 0.16122 0)
(4.76662 0.171454 0)
(4.7474 0.169761 0)
(4.7359 0.158211 0)
(4.73461 0.142233 0)
(4.74164 0.12748 0)
(4.75248 0.118221 0)
(4.76095 0.116375 0)
(4.76371 0.12366 0)
(4.7588 0.137654 0)
(5.02411 0.224917 0)
(4.99808 0.178811 0)
(4.94772 0.145387 0)
(4.91758 0.137437 0)
(4.9091 0.133374 0)
(4.90102 0.133391 0)
(4.88489 0.14089 0)
(4.86334 0.15497 0)
(4.8408 0.170116 0)
(4.82037 0.179058 0)
(4.80445 0.177033 0)
(4.7938 0.164433 0)
(4.7877 0.146163 0)
(4.78381 0.128679 0)
(4.78103 0.117443 0)
(4.77729 0.115169 0)
(4.77334 0.122669 0)
(4.76848 0.13793 0)
(4.94165 0.21626 0)
(4.97636 0.167141 0)
(4.94896 0.153857 0)
(4.92349 0.143195 0)
(4.90242 0.132004 0)
(4.87574 0.130299 0)
(4.84834 0.142143 0)
(4.82837 0.162182 0)
(4.81811 0.180108 0)
(4.81627 0.18739 0)
(4.82117 0.18121 0)
(4.83001 0.164942 0)
(4.83907 0.14543 0)
(4.84449 0.129285 0)
(4.84452 0.120747 0)
(4.83866 0.120814 0)
(4.8289 0.129149 0)
(4.81671 0.143733 0)
(5.07129 0.262591 0)
(4.98458 0.198383 0)
(4.94579 0.166968 0)
(4.91562 0.160929 0)
(4.87612 0.161912 0)
(4.835 0.160945 0)
(4.81509 0.160539 0)
(4.82556 0.164152 0)
(4.85748 0.170265 0)
(4.89503 0.173325 0)
(4.92476 0.168666 0)
(4.93863 0.156637 0)
(4.93581 0.141746 0)
(4.91973 0.129437 0)
(4.89718 0.123678 0)
(4.87327 0.125808 0)
(4.85229 0.13561 0)
(4.83559 0.151212 0)
(5.04758 0.2737 0)
(5.01082 0.219195 0)
(4.91452 0.165038 0)
(4.86264 0.151725 0)
(4.87305 0.152459 0)
(4.90968 0.150117 0)
(4.93894 0.145803 0)
(4.9493 0.146077 0)
(4.94578 0.152091 0)
(4.9371 0.158953 0)
(4.92853 0.16202 0)
(4.92054 0.160233 0)
(4.91207 0.155409 0)
(4.90117 0.150287 0)
(4.88863 0.147402 0)
(4.87506 0.148577 0)
(4.86328 0.154175 0)
(4.85358 0.16427 0)
(4.91213 0.270982 0)
(4.97098 0.258475 0)
(4.98804 0.224737 0)
(4.97841 0.181917 0)
(4.96372 0.151975 0)
(4.94403 0.141281 0)
(4.92219 0.146015 0)
(4.90647 0.158714 0)
(4.90019 0.170517 0)
(4.90051 0.175597 0)
(4.90298 0.172832 0)
(4.90379 0.164591 0)
(4.90143 0.15472 0)
(4.89649 0.146701 0)
(4.89081 0.142831 0)
(4.88611 0.14416 0)
(4.88367 0.150245 0)
(4.88335 0.160742 0)
(4.91736 0.256662 0)
(4.9432 0.205534 0)
(4.96656 0.174109 0)
(4.97765 0.158065 0)
(4.96914 0.157278 0)
(4.94018 0.159662 0)
(4.91118 0.16018 0)
(4.90078 0.160578 0)
(4.91035 0.162479 0)
(4.92891 0.164865 0)
(4.94455 0.165561 0)
(4.951 0.163691 0)
(4.94743 0.159692 0)
(4.93705 0.155207 0)
(4.92349 0.152007 0)
(4.91049 0.15183 0)
(4.8993 0.155393 0)
(4.89106 0.16288 0)
(4.93724 0.237923 0)
(4.98977 0.217354 0)
(5.02836 0.196004 0)
(5.03908 0.177772 0)
(5.00543 0.178081 0)
(4.95516 0.180525 0)
(4.92844 0.172043 0)
(4.93671 0.157834 0)
(4.96307 0.148382 0)
(4.985 0.147854 0)
(4.99046 0.15356 0)
(4.97917 0.160523 0)
(4.95882 0.164746 0)
(4.93724 0.165375 0)
(4.92078 0.164124 0)
(4.91018 0.163704 0)
(4.90586 0.165932 0)
(4.90445 0.171764 0)
(5.00494 0.225359 0)
(5.01936 0.180591 0)
(5.00065 0.15941 0)
(4.96992 0.172444 0)
(4.95311 0.19368 0)
(4.96025 0.188969 0)
(4.98497 0.162206 0)
(5.00997 0.140189 0)
(5.02186 0.139556 0)
(5.01855 0.156916 0)
(5.00672 0.17829 0)
(4.9938 0.191418 0)
(4.98423 0.191692 0)
(4.97749 0.182337 0)
(4.97196 0.16963 0)
(4.96599 0.16016 0)
(4.95991 0.156463 0)
(4.95439 0.159651 0)
(5.0995 0.271937 0)
(5.09341 0.233993 0)
(5.06037 0.215137 0)
(5.0232 0.203112 0)
(5.01131 0.185637 0)
(5.01034 0.161643 0)
(5.00462 0.140337 0)
(4.99418 0.13177 0)
(4.98697 0.137628 0)
(4.98899 0.151166 0)
(5.00012 0.164167 0)
(5.01448 0.172347 0)
(5.02467 0.175609 0)
(5.0261 0.17704 0)
(5.01893 0.178487 0)
(5.00579 0.180951 0)
(4.99187 0.183239 0)
(4.97939 0.183931 0)
(5.12861 0.343097 0)
(5.09754 0.270827 0)
(5.07469 0.223527 0)
(5.05405 0.211221 0)
(5.04154 0.2061 0)
(5.02736 0.197156 0)
(5.01047 0.181797 0)
(4.99846 0.164316 0)
(4.99557 0.152662 0)
(5.00096 0.151373 0)
(5.01133 0.158904 0)
(5.02256 0.170467 0)
(5.0318 0.181135 0)
(5.03851 0.187954 0)
(5.04521 0.189996 0)
(5.0525 0.188115 0)
(5.06276 0.183728 0)
(5.07218 0.179102 0)
(4.99305 0.36814 0)
(5.00623 0.2974 0)
(4.99748 0.229634 0)
(5.00183 0.206394 0)
(5.0123 0.196698 0)
(5.01304 0.181714 0)
(5.00449 0.159489 0)
(4.99516 0.137098 0)
(4.9916 0.123665 0)
(4.99773 0.122872 0)
(5.01481 0.131384 0)
(5.04013 0.14304 0)
(5.06811 0.152527 0)
(5.09346 0.157361 0)
(5.11264 0.157902 0)
(5.12441 0.155801 0)
(5.12907 0.153484 0)
(5.12798 0.152423 0)
(4.99831 0.321208 0)
(5.01955 0.283558 0)
(5.01149 0.240233 0)
(5.01496 0.211224 0)
(5.02719 0.210715 0)
(5.0378 0.219138 0)
(5.03872 0.216945 0)
(5.03429 0.196552 0)
(5.03123 0.162503 0)
(5.03234 0.126429 0)
(5.03888 0.0993982 0)
(5.05057 0.0878647 0)
(5.06565 0.0925511 0)
(5.08103 0.110015 0)
(5.09491 0.134131 0)
(5.10588 0.158611 0)
(5.11433 0.179194 0)
(5.12031 0.192421 0)
(4.99686 0.277153 0)
(5.00835 0.284592 0)
(4.99695 0.227429 0)
(4.9858 0.177453 0)
(4.98795 0.160228 0)
(5.00363 0.155183 0)
(5.03195 0.145579 0)
(5.06541 0.129126 0)
(5.0959 0.112177 0)
(5.11767 0.100982 0)
(5.12925 0.0968292 0)
(5.13308 0.0975528 0)
(5.13326 0.100392 0)
(5.13271 0.103919 0)
(5.13437 0.107214 0)
(5.13944 0.110417 0)
(5.1492 0.112682 0)
(5.16271 0.114822 0)
(4.95213 0.424906 0)
(5.00249 0.338197 0)
(5.01213 0.253288 0)
(5.03198 0.217817 0)
(5.06 0.187205 0)
(5.09606 0.150269 0)
(5.12598 0.116114 0)
(5.14182 0.0915002 0)
(5.14928 0.0772496 0)
(5.15584 0.0721869 0)
(5.16549 0.0751964 0)
(5.17885 0.0845809 0)
(5.19385 0.0974252 0)
(5.20719 0.110246 0)
(5.21746 0.11941 0)
(5.22511 0.123474 0)
(5.23198 0.121705 0)
(5.23915 0.115787 0)
(4.82614 0.348518 0)
(4.93563 0.248568 0)
(4.95865 0.182913 0)
(4.98764 0.131085 0)
(5.0246 0.0935579 0)
(5.06871 0.0766563 0)
(5.10899 0.0777328 0)
(5.13647 0.0825085 0)
(5.15094 0.0779626 0)
(5.15598 0.0635307 0)
(5.15642 0.0486257 0)
(5.15758 0.0422983 0)
(5.16354 0.046951 0)
(5.1754 0.0590266 0)
(5.19261 0.0717728 0)
(5.21308 0.0804629 0)
(5.23545 0.082123 0)
(5.25706 0.0776124 0)
(5.00768 0.280415 0)
(5.02527 0.219759 0)
(5.0621 0.199489 0)
(5.10309 0.147358 0)
(5.12311 0.0889705 0)
(5.12865 0.0519354 0)
(5.13663 0.0418309 0)
(5.15179 0.0496406 0)
(5.16982 0.0630434 0)
(5.18478 0.0737607 0)
(5.1947 0.078869 0)
(5.20216 0.0786913 0)
(5.21146 0.0748542 0)
(5.22527 0.0692759 0)
(5.24444 0.0628279 0)
(5.26721 0.0564158 0)
(5.29209 0.0498283 0)
(5.31556 0.0441798 0)
(5.07505 0.342631 0)
(5.04807 0.207443 0)
(5.0853 0.121747 0)
(5.13641 0.0948036 0)
(5.16827 0.0803983 0)
(5.17944 0.0629175 0)
(5.18261 0.0460271 0)
(5.1852 0.0356304 0)
(5.1906 0.0309081 0)
(5.19998 0.0274486 0)
(5.21282 0.0230092 0)
(5.22827 0.0180179 0)
(5.24599 0.0135033 0)
(5.26535 0.00995859 0)
(5.28595 0.00714558 0)
(5.30675 0.0048665 0)
(5.3274 0.00256412 0)
(5.34688 0.00132019 0)
(4.99728 0.324906 0)
(5.06595 0.208318 0)
(5.08904 0.119222 0)
(5.11369 0.0773687 0)
(5.14647 0.0545584 0)
(5.18453 0.0447534 0)
(5.22129 0.0440558 0)
(5.25177 0.0486971 0)
(5.27486 0.0543595 0)
(5.29222 0.0567344 0)
(5.30643 0.0536534 0)
(5.31933 0.0453912 0)
(5.33197 0.0343865 0)
(5.34497 0.0229939 0)
(5.35844 0.0121246 0)
(5.37188 0.00314072 0)
(5.38566 -0.00398062 0)
(5.39909 -0.00842958 0)
(5.04609 0.258599 0)
(5.1155 0.160918 0)
(5.16115 0.102296 0)
(5.19231 0.0650181 0)
(5.2096 0.0281762 0)
(5.22542 0.000364095 0)
(5.24818 -0.0114847 0)
(5.27733 -0.0112499 0)
(5.30901 -0.00638822 0)
(5.34156 -0.00302899 0)
(5.37407 -0.00373096 0)
(5.40487 -0.00743341 0)
(5.43111 -0.0124758 0)
(5.44978 -0.0174524 0)
(5.46099 -0.0222093 0)
(5.46681 -0.0264598 0)
(5.46982 -0.0304418 0)
(5.4717 -0.0332475 0)
(5.01607 0.203046 0)
(5.104 0.139342 0)
(5.18791 0.101646 0)
(5.27472 0.070627 0)
(5.32899 0.0397165 0)
(5.35754 0.0144022 0)
(5.37519 0.00385887 0)
(5.39197 0.00499043 0)
(5.41074 0.00829633 0)
(5.42918 0.00748126 0)
(5.44494 0.00275114 0)
(5.45689 -0.00202545 0)
(5.46563 -0.00449138 0)
(5.4732 -0.00473409 0)
(5.48116 -0.00448183 0)
(5.48969 -0.00544746 0)
(5.49884 -0.00868837 0)
(5.50733 -0.0126952 0)
(4.96334 0.132969 0)
(5.13039 0.0503512 0)
(5.2847 0.0200744 0)
(5.36304 -0.0020658 0)
(5.39116 -0.019701 0)
(5.4039 -0.0310917 0)
(5.42114 -0.0344601 0)
(5.44723 -0.0320014 0)
(5.47696 -0.0279506 0)
(5.50316 -0.0248858 0)
(5.52232 -0.0234737 0)
(5.5352 -0.0241398 0)
(5.54456 -0.0266069 0)
(5.55291 -0.0307335 0)
(5.56122 -0.0360073 0)
(5.56897 -0.0413201 0)
(5.57577 -0.0458147 0)
(5.58064 -0.0482046 0)
(5.07287 0.132664 0)
(5.18592 0.0402912 0)
(5.32787 0.036284 0)
(5.40457 0.028919 0)
(5.43055 0.0107661 0)
(5.43424 -0.00726274 0)
(5.43773 -0.0182481 0)
(5.45191 -0.0217171 0)
(5.47548 -0.020109 0)
(5.50253 -0.0170536 0)
(5.52947 -0.0150575 0)
(5.55524 -0.0145086 0)
(5.57953 -0.0146607 0)
(5.60178 -0.01495 0)
(5.62102 -0.0154807 0)
(5.63675 -0.0166376 0)
(5.64932 -0.0187583 0)
(5.65983 -0.0217911 0)
(4.99522 0.05894 0)
(5.2218 -0.0274819 0)
(5.33055 -0.03309 0)
(5.38118 -0.0426506 0)
(5.42223 -0.0409539 0)
(5.4563 -0.0396731 0)
(5.47829 -0.0445025 0)
(5.49047 -0.0511338 0)
(5.49879 -0.0545047 0)
(5.50709 -0.0542337 0)
(5.51629 -0.0529585 0)
(5.52589 -0.052801 0)
(5.53424 -0.0539493 0)
(5.54043 -0.0556817 0)
(5.54296 -0.0573024 0)
(5.54219 -0.0585383 0)
(5.53709 -0.0594048 0)
(5.52985 -0.0602196 0)
(4.92928 0.0206567 0)
(5.06646 -0.0160775 0)
(5.04221 -0.00148491 0)
(4.92319 -0.0121774 0)
(4.80289 -0.0240108 0)
(4.69426 -0.0286265 0)
(4.58691 -0.0285524 0)
(4.47582 -0.0272151 0)
(4.36436 -0.0258692 0)
(4.25764 -0.0248252 0)
(4.15769 -0.0242079 0)
(4.06358 -0.0236777 0)
(3.97331 -0.0225206 0)
(3.88729 -0.0204413 0)
(3.80551 -0.0179447 0)
(3.72927 -0.0159139 0)
(3.65608 -0.0152359 0)
(3.58668 -0.0159906 0)
(-0.0219043 0.0192474 7.56566e-21)
(0.0286883 -0.0677888 -7.51145e-21)
(0.14449 -0.12627 0)
(0.281441 -0.151916 0)
(0.427898 -0.159753 0)
(0.576755 -0.159538 7.26081e-21)
(0.725009 -0.156185 0)
(0.871437 -0.15167 0)
(1.01555 -0.146492 0)
(1.15686 -0.140466 0)
(1.29434 -0.133106 -6.88428e-21)
(1.42634 -0.123741 0)
(1.55015 -0.111802 0)
(1.66282 -0.0966407 0)
(1.76002 -0.077876 0)
(1.83826 -0.0550461 -6.4976e-21)
(1.89164 -0.0281126 0)
(1.91856 0.00292809 0)
(1.91197 0.0380981 0)
(1.86878 0.0755614 0)
(1.78527 0.115334 0)
(1.66481 0.152404 0)
(1.5028 0.18872 0)
(1.3146 0.216102 -6.17998e-21)
(1.09265 0.232356 6.15668e-21)
(0.858852 0.244171 -6.12863e-21)
(0.659028 0.199957 -6.09524e-21)
(0.390625 0.153434 0)
(0.28879 0.0604452 0)
(0.271721 -0.0613502 5.96198e-21)
(0.174027 -0.124045 5.90298e-21)
(0.283343 -0.230538 0)
(0.519179 -0.243984 0)
(0.708883 -0.366656 5.73672e-21)
(0.739181 -0.611367 0)
(0.731579 -0.570045 0)
(0.607502 -0.123238 -5.54849e-21)
(0.158441 0.332502 0)
(-0.407331 0.472522 -5.49198e-21)
(-0.988704 0.519725 -1.08494e-20)
(-1.55828 0.518188 0)
(-2.08259 0.474245 0)
(-2.54308 0.41161 0)
(-2.93822 0.346958 0)
(-3.27208 0.287378 0)
(-3.55175 0.235478 -9.32492e-21)
(-3.78439 0.191611 -9.06776e-21)
(-3.97685 0.155092 -8.82865e-21)
(-4.13486 0.124713 0)
(-4.26312 0.0992955 8.41167e-21)
(-4.36519 0.0777924 0)
(-4.44391 0.0592964 -8.08159e-21)
(-4.5014 0.0431714 -7.94949e-21)
(-4.53942 0.028972 0)
(-4.55959 0.0164043 0)
(-4.56309 0.00553217 0)
(-4.55257 -0.00363434 -7.62284e-21)
(-4.52929 -0.0115155 0)
(-4.49481 -0.0181519 0)
(-4.4507 -0.0237259 0)
(-4.39823 -0.0283933 0)
(-4.33854 -0.0323082 0)
(-4.2724 -0.0357255 0)
(-4.20034 -0.038865 0)
(-4.12256 -0.0418994 0)
(-4.03908 -0.0449415 7.58636e-21)
(-3.94981 -0.0479836 0)
(-3.85474 -0.0509332 0)
(-3.75413 -0.0536004 -7.62517e-21)
(-3.64865 -0.0557203 -7.63486e-21)
(-3.53947 -0.0570343 0)
(-3.42821 -0.0573621 7.64654e-21)
(-3.3167 -0.0567116 -7.64825e-21)
(-3.20659 -0.0553634 0)
(-3.09866 -0.0539123 7.64523e-21)
(-2.99224 -0.0532065 0)
(-2.88476 -0.0541551 0)
(-2.77207 -0.0574238 -7.64248e-21)
(-2.64938 -0.0630779 0)
(-2.51278 -0.0704374 7.6577e-21)
(-2.36012 -0.0784143 0)
(-2.19146 -0.0858035 -7.68466e-21)
(-2.00894 -0.0916008 -7.6976e-21)
(-1.81619 -0.0952107 -7.70704e-21)
(-1.6176 -0.0964669 -1.54221e-20)
(-1.41737 -0.0955818 1.54169e-20)
(-1.21879 -0.093036 0)
(-1.02432 -0.0892991 0)
(-0.835873 -0.0848262 0)
(-0.654706 -0.079956 1.52541e-20)
(-0.481529 -0.0748911 1.51803e-20)
(-0.316709 -0.0697498 -1.5095e-20)
(-0.160419 -0.064638 0)
(-0.0134368 -0.0595866 1.4892e-20)
(0.124296 -0.0546483 1.47729e-20)
(0.25346 -0.0497052 1.46444e-20)
(0.373835 -0.0448354 0)
(0.485414 -0.0400871 0)
(0.588296 -0.0355038 0)
(0.682675 -0.0311236 1.40761e-20)
(0.768826 -0.0269774 0)
(0.847087 -0.023086 0)
(0.917839 -0.0194604 -1.36172e-20)
(0.981485 -0.0161026 0)
(1.03844 -0.0130084 0)
(1.0891 -0.0101707 -1.31503e-20)
(1.13387 -0.00758148 0)
(1.17313 -0.00523419 0)
(1.20727 -0.00312394 1.26861e-20)
(1.23666 -0.00124561 1.25329e-20)
(1.26168 0.000405719 0)
(1.28272 0.00183671 -1.22299e-20)
(1.30015 0.00306078 0)
(1.31436 0.00408901 1.19316e-20)
(1.32572 0.00494055 0)
(1.33457 0.00564045 1.16384e-20)
(1.34126 0.00620178 1.14938e-20)
(1.34607 0.00665631 0)
(1.34926 0.00702672 0)
(1.35106 0.0073278 0)
(1.35157 0.00759616 0)
(1.35099 0.00781767 0)
(1.34947 0.00795701 0)
(1.3471 0.00800937 0)
(1.344 0.00798434 1.03844e-20)
(1.34028 0.00788608 -1.02513e-20)
(1.33607 0.00770969 0)
(1.33149 0.00745886 0)
(1.32666 0.00714458 0)
(1.32169 0.00678039 0)
(1.31669 0.00638188 -1.92045e-20)
(1.31174 0.00596354 0)
(1.30691 0.00553715 1.86998e-20)
(1.30224 0.00511387 -1.84503e-20)
(1.29777 0.00470502 0)
(1.29353 0.00431843 0)
(1.28951 0.0039564 0)
(1.2857 0.00361866 1.74708e-20)
(1.28212 0.00330538 1.72303e-20)
(1.27875 0.00301576 0)
(1.27558 0.00274661 1.67543e-20)
(1.27259 0.00249445 1.65188e-20)
(1.26974 0.00225935 -1.62848e-20)
(1.267 0.00204051 0)
(1.26435 0.00184562 0)
(1.26179 0.0016736 -1.55919e-20)
(1.2593 0.0015218 0)
(1.25687 0.00138789 0)
(1.2545 0.00127025 0)
(1.25218 0.00116818 0)
(1.24989 0.00108139 1.44659e-20)
(1.24764 0.00100926 1.42449e-20)
(1.2454 0.000952713 0)
(1.24316 0.000910457 1.38067e-20)
(1.24089 0.00088139 0)
(1.23859 0.000863365 0)
(1.23623 0.0008548 1.31593e-20)
(1.23381 0.00085452 0)
(1.23129 0.000862595 1.2734e-20)
(1.22868 0.000879079 0)
(1.22593 0.000905554 0)
(1.22305 0.000942356 1.21056e-20)
(1.21995 0.000993126 0)
(1.21669 0.00105764 1.1693e-20)
(1.21303 0.00114435 0)
(1.20919 0.00125035 0)
(1.20467 0.00139592 0)
(1.19995 0.00156541 -1.08832e-20)
(1.19401 0.00181267 0)
(1.18786 0.0020844 1.04866e-20)
(1.17961 0.00252348 0)
(1.17098 0.00295259 0)
(1.15902 0.00379352 0)
(1.14551 0.00442395 0)
(1.12817 0.0062342 0)
(1.10308 0.00692493 0)
(1.08079 0.0115312 0)
(1.02247 0.0112319 -1.79557e-20)
(1.01019 0.0251378 0)
(0.841218 0.0174561 0)
(0.00585113 -0.0325039 -2.26844e-20)
(0.107548 -0.282436 2.25117e-20)
(0.234358 -0.409731 0)
(0.36277 -0.454225 -1.47547e-20)
(0.49103 -0.462529 0)
(0.620237 -0.458162 -7.25714e-21)
(0.75116 -0.450413 1.43449e-20)
(0.884083 -0.441914 1.41971e-20)
(1.01887 -0.432421 0)
(1.15481 -0.420593 1.38857e-20)
(1.29058 -0.404525 6.88201e-21)
(1.4239 -0.382111 0)
(1.55207 -0.351359 0)
(1.671 -0.310627 0)
(1.77711 -0.258618 0)
(1.86474 -0.194743 6.49617e-21)
(1.93082 -0.119746 0)
(1.96909 -0.0346576 -1.2667e-20)
(1.97884 0.0576431 0)
(1.96007 0.154664 0)
(1.90877 0.250842 1.24143e-20)
(1.83047 0.342532 0)
(1.72005 0.424513 -1.23251e-20)
(1.59427 0.484905 6.1729e-21)
(1.44508 0.544234 -6.14822e-21)
(1.28803 0.511879 6.11913e-21)
(1.11844 0.528097 6.08499e-21)
(0.966583 0.501124 0)
(0.899008 0.167522 0)
(0.717579 0.166069 -5.9538e-21)
(0.809055 0.169314 5.94541e-21)
(0.857345 -0.374122 0)
(0.552966 -0.562215 0)
(0.253155 0.0604794 -5.7423e-21)
(-0.380301 0.552893 0)
(-1.03312 0.809156 0)
(-1.55726 1.03931 5.53348e-21)
(-2.01871 1.20209 0)
(-2.43521 1.2404 -5.28543e-21)
(-2.81624 1.20764 1.07934e-20)
(-3.14632 1.11177 0)
(-3.43409 0.98572 0)
(-3.67978 0.849708 1.98462e-20)
(-3.89119 0.719761 1.93401e-20)
(-4.0718 0.602544 1.88332e-20)
(-4.22689 0.500665 -9.03118e-21)
(-4.35964 0.413618 9.05355e-21)
(-4.47305 0.339341 2.62377e-20)
(-4.56902 0.275507 -1.70091e-20)
(-4.64883 0.21992 -8.4036e-21)
(-4.7131 0.170725 0)
(-4.76223 0.126421 8.07578e-21)
(-4.79645 0.0861365 -7.81068e-21)
(-4.81599 0.0493154 0)
(-4.82144 0.0156426 0)
(-4.81369 -0.014488 0)
(-4.79247 -0.0413032 7.61922e-21)
(-4.75932 -0.0648719 0)
(-4.71539 -0.0851823 -1.50464e-20)
(-4.66189 -0.102489 0)
(-4.6002 -0.117173 -1.50282e-20)
(-4.53138 -0.129755 0)
(-4.45629 -0.140847 1.50621e-20)
(-4.37538 -0.151012 0)
(-4.28881 -0.160694 -1.51197e-20)
(-4.19646 -0.170156 7.56779e-21)
(-4.0982 -0.179413 0)
(-3.99394 -0.188195 1.52098e-20)
(-3.88394 -0.195939 7.62223e-21)
(-3.76892 -0.201877 7.63201e-21)
(-3.65024 -0.205242 0)
(-3.52977 -0.205541 7.63525e-21)
(-3.40973 -0.202861 7.6458e-21)
(-3.29218 -0.198121 0)
(-3.17826 -0.19319 -7.64307e-21)
(-3.0674 -0.190701 1.52605e-20)
(-2.95674 -0.193448 0)
(-2.84123 -0.203471 7.64043e-21)
(-2.71483 -0.221035 0)
(-2.57255 -0.244112 -2.29301e-20)
(-2.41182 -0.26917 0)
(-2.23291 -0.292324 2.30136e-20)
(-2.03868 -0.310379 7.69516e-21)
(-1.83373 -0.321542 -7.67818e-21)
(-1.62326 -0.325437 -1.5371e-20)
(-1.412 -0.322805 1.53716e-20)
(-1.20341 -0.315233 0)
(-0.999823 -0.304192 0)
(-0.802892 -0.291066 0)
(-0.613553 -0.27687 -4.57306e-20)
(-0.432209 -0.262203 -1.51782e-20)
(-0.259062 -0.247365 1.50934e-20)
(-0.0941988 -0.232537 0)
(0.0616831 -0.218109 1.48775e-20)
(0.208868 -0.20368 -1.47687e-20)
(0.348063 -0.189358 -1.46403e-20)
(0.478888 -0.17526 0)
(0.601401 -0.161507 0)
(0.715745 -0.148215 0)
(0.822161 -0.135484 -1.40721e-20)
(0.92098 -0.123392 0)
(1.0126 -0.111987 2.75313e-20)
(1.09746 -0.101291 4.08354e-20)
(1.17603 -0.0913024 -2.69116e-20)
(1.24873 -0.0820036 0)
(1.31599 -0.0733666 -1.31428e-20)
(1.37818 -0.0653601 0)
(1.43564 -0.0579545 -2.56681e-20)
(1.48866 -0.051126 1.26787e-20)
(1.53752 -0.0448568 1.25256e-20)
(1.58249 -0.0391359 0)
(1.62382 -0.0339564 3.66715e-20)
(1.66181 -0.0293088 -2.41473e-20)
(1.69673 -0.0251813 -1.19259e-20)
(1.72889 -0.0215539 0)
(1.7586 -0.0183943 -1.16324e-20)
(1.78616 -0.0156667 -3.44617e-20)
(1.81188 -0.0133215 0)
(1.83604 -0.0113036 -2.24033e-20)
(1.85888 -0.00955967 -2.21219e-20)
(1.88069 -0.00802976 -2.18432e-20)
(1.9016 -0.00667899 0)
(1.92174 -0.00548422 0)
(1.94121 -0.00442514 0)
(1.96005 -0.00348688 1.03765e-20)
(1.97828 -0.002657 1.0244e-20)
(1.9959 -0.00193731 0)
(2.01289 -0.00133037 1.99615e-20)
(2.02925 -0.000831995 1.97018e-20)
(2.04496 -0.000435819 0)
(2.06002 -0.000133766 1.91891e-20)
(2.07444 8.60251e-05 3.78709e-20)
(2.08821 0.000237152 -1.86842e-20)
(2.10137 0.000331043 -1.84345e-20)
(2.11392 0.000379715 0)
(2.12588 0.000399442 0)
(2.13727 0.000404927 0)
(2.14811 0.000399058 -1.74553e-20)
(2.1584 0.00037721 1.72149e-20)
(2.16815 0.000344576 3.39524e-20)
(2.17738 0.000321601 -1.67392e-20)
(2.18607 0.000327513 1.65038e-20)
(2.19421 0.000362988 1.62699e-20)
(2.20178 0.000419512 0)
(2.2088 0.00047426 0)
(2.21528 0.000520327 -1.55776e-20)
(2.22122 0.000559599 0)
(2.22665 0.000593268 0)
(2.23158 0.000621292 2.97968e-20)
(2.23603 0.000643692 0)
(2.24 0.000661717 1.44527e-20)
(2.24353 0.000679207 -1.42318e-20)
(2.24663 0.000704773 0)
(2.24932 0.000735123 1.37941e-20)
(2.25162 0.000772598 0)
(2.25355 0.000817614 0)
(2.25513 0.000869916 -1.31474e-20)
(2.25638 0.000928989 2.58687e-20)
(2.2573 0.000995945 -1.27226e-20)
(2.25792 0.00107237 0)
(2.25823 0.00116308 0)
(2.25826 0.00127008 1.20948e-20)
(2.25796 0.00140481 0)
(2.2574 0.00156542 1.16826e-20)
(2.25645 0.00177912 0)
(2.25521 0.00202557 0)
(2.25344 0.00237563 0)
(2.25134 0.00274936 1.08739e-20)
(2.24844 0.00334338 0)
(2.24505 0.00389783 -1.04777e-20)
(2.24053 0.00496697 0)
(2.23502 0.00575333 0)
(2.22818 0.00783018 1.97891e-20)
(2.21861 0.00882336 -1.94079e-20)
(2.2089 0.013218 0)
(2.19025 0.0140938 0)
(2.17881 0.0242542 0)
(2.1368 0.0238294 5.38051e-20)
(2.13233 0.0490553 0)
(2.02591 0.0446167 -3.44636e-20)
(0.0408909 -0.214673 1.2852e-23)
(0.159918 -0.550978 -2.99762e-20)
(0.272901 -0.666011 0)
(0.376973 -0.691764 2.94718e-20)
(0.480078 -0.694222 0)
(0.587504 -0.693998 0)
(0.701096 -0.69455 -3.72078e-23)
(0.820901 -0.694686 -1.4194e-20)
(0.946346 -0.692106 -1.39944e-20)
(1.07659 -0.684044 -1.38831e-20)
(1.21004 -0.667347 0)
(1.34437 -0.638458 0)
(1.47589 -0.593959 1.33083e-20)
(1.60002 -0.530937 2.62659e-20)
(1.71108 -0.44695 -2.59266e-20)
(1.80284 -0.34173 0)
(1.86897 -0.217138 -2.53239e-20)
(1.9048 -0.0766555 1.26686e-20)
(1.90642 0.0736639 0)
(1.87253 0.227701 -2.47126e-20)
(1.80222 0.376227 -1.2415e-20)
(1.69931 0.51263 2.45211e-20)
(1.57047 0.631499 1.23258e-20)
(1.4207 0.716806 0)
(1.2626 0.789334 -2.44009e-20)
(1.10977 0.841547 -2.43613e-20)
(0.951561 0.750425 0)
(0.80642 0.592796 -2.42357e-20)
(0.606986 0.586958 0)
(0.449363 0.0330156 -2.39962e-20)
(0.387649 -0.338882 -1.18524e-20)
(-0.0745421 0.310678 0)
(-0.803839 0.823468 0)
(-1.33315 1.12009 0)
(-1.84617 1.34982 0)
(-2.27704 1.50696 0)
(-2.65609 1.65222 0)
(-2.95947 1.71782 -2.14038e-20)
(-3.20231 1.69104 3.17549e-20)
(-3.39964 1.59416 0)
(-3.56526 1.44658 0)
(-3.71461 1.27773 0)
(-3.85279 1.10669 -4.72664e-22)
(-3.98502 0.947166 -1.93287e-20)
(-4.11121 0.804879 -3.72649e-20)
(-4.2317 0.680851 3.63208e-20)
(-4.34502 0.57347 1.75501e-20)
(-4.44951 0.479653 -1.74178e-20)
(-4.54297 0.396441 2.63475e-22)
(-4.62344 0.321153 -1.63862e-20)
(-4.68955 0.251847 0)
(-4.74013 0.187234 -1.57867e-20)
(-4.77448 0.126595 2.05588e-22)
(-4.79263 0.0696698 0)
(-4.79471 0.0166415 0)
(-4.78183 -0.0322277 1.50881e-20)
(-4.75542 -0.0764719 0)
(-4.71644 -0.115451 0)
(-4.66644 -0.149026 -1.48351e-20)
(-4.60703 -0.177375 -2.98809e-20)
(-4.53967 -0.201116 1.50278e-20)
(-4.46569 -0.221195 0)
(-4.38606 -0.238703 -1.50616e-20)
(-4.30141 -0.254747 0)
(-4.21198 -0.27025 -1.50605e-20)
(-4.1177 -0.285764 -1.51504e-20)
(-4.01834 -0.301325 3.03213e-20)
(-3.9137 -0.316366 1.5174e-20)
(-3.80389 -0.329752 0)
(-3.68956 -0.339965 -3.04795e-20)
(-3.57206 -0.345453 0)
(-3.45341 -0.345159 -4.58058e-20)
(-3.33615 -0.339071 -3.05299e-20)
(-3.22292 -0.328726 -3.05165e-20)
(-3.11566 -0.317485 3.04892e-20)
(-3.01433 -0.310302 -4.57118e-20)
(-2.91582 -0.312651 0)
(-2.8135 -0.328775 0)
(-2.69862 -0.359741 3.03888e-20)
(-2.56342 -0.401977 4.56869e-20)
(-2.4039 -0.448142 0)
(-2.22066 -0.490374 -1.53268e-20)
(-2.01828 -0.522411 0)
(-1.80361 -0.541183 4.60404e-20)
(-1.58373 -0.546573 8.27235e-23)
(-1.36479 -0.540285 -7.27174e-23)
(-1.15088 -0.52562 -3.0679e-20)
(-0.944461 -0.505478 0)
(-0.746747 -0.482403 3.05415e-20)
(-0.558098 -0.458023 4.19592e-23)
(-0.378339 -0.433238 0)
(-0.207272 -0.40851 0)
(-0.0450275 -0.384 0)
(0.10825 -0.36013 -2.97587e-20)
(0.252985 -0.336104 0)
(0.389439 -0.312369 0)
(0.517368 -0.289061 0)
(0.636796 -0.266393 0)
(0.747852 -0.244586 0)
(0.850774 -0.223842 -2.81256e-20)
(0.945895 -0.204311 0)
(1.03364 -0.186084 -2.75271e-20)
(1.11449 -0.169186 -2.72186e-20)
(1.18902 -0.153584 2.69084e-20)
(1.25779 -0.139205 0)
(1.32141 -0.12595 2.62863e-20)
(1.38044 -0.113719 0)
(1.43537 -0.102425 2.56663e-20)
(1.48662 -0.0920049 -2.53583e-20)
(1.53452 -0.0824143 -7.51481e-20)
(1.57933 -0.0736304 0)
(1.62123 -0.0656427 -7.33305e-20)
(1.66042 -0.0584451 -2.41397e-20)
(1.69708 -0.052032 0)
(1.73143 -0.0463875 -4.71031e-20)
(1.76371 -0.0414819 -4.65194e-20)
(1.79417 -0.0372712 6.8914e-20)
(1.82308 -0.0336965 0)
(1.85072 -0.0306847 2.24022e-20)
(1.87733 -0.0281614 2.21208e-20)
(1.90312 -0.0260515 6.55226e-20)
(1.92827 -0.0242655 0)
(1.95292 -0.0227259 0)
(1.97716 -0.0213796 0)
(2.00102 -0.0201864 2.07499e-20)
(2.02452 -0.0191162 0)
(2.04763 -0.0181447 0)
(2.07032 -0.0172559 -1.99598e-20)
(2.09254 -0.0164403 -1.97001e-20)
(2.11427 -0.0156909 0)
(2.13545 -0.0150011 0)
(2.15607 -0.014364 -3.7867e-20)
(2.17611 -0.0137722 0)
(2.19556 -0.0132186 3.68649e-20)
(2.21442 -0.0126948 3.63691e-20)
(2.23268 -0.01219 0)
(2.25035 -0.0116939 0)
(2.26744 -0.0112031 -3.49055e-20)
(2.28394 -0.0107187 -2.3323e-25)
(2.29986 -0.0102379 -1.87053e-25)
(2.31516 -0.00974934 0)
(2.32986 -0.00924189 -6.60045e-20)
(2.34399 -0.00871325 0)
(2.35755 -0.00816309 0)
(2.37052 -0.00760987 0)
(2.38288 -0.00706364 3.11497e-20)
(2.39464 -0.00652839 0)
(2.40576 -0.00600786 -6.04824e-20)
(2.41626 -0.00550307 -2.97913e-20)
(2.42612 -0.00501238 0)
(2.43534 -0.00453393 -2.88997e-20)
(2.44391 -0.00406905 0)
(2.45184 -0.00362845 0)
(2.45914 -0.00320519 -8.2748e-20)
(2.46583 -0.00279997 5.42978e-20)
(2.47194 -0.00241409 0)
(2.4775 -0.00204399 5.25784e-20)
(2.48252 -0.00168828 -2.58632e-20)
(2.48702 -0.00134328 0)
(2.49104 -0.00100642 0)
(2.49459 -0.000669937 0)
(2.4977 -0.000333237 -7.2553e-20)
(2.50037 2.14731e-05 0)
(2.50262 0.000388752 -2.33602e-20)
(2.50447 0.000812649 0)
(2.50588 0.00126295 0)
(2.50691 0.00184802 0)
(2.50743 0.00245567 0)
(2.50758 0.00336214 0)
(2.50699 0.00421681 0)
(2.50611 0.00575138 -4.11133e-20)
(2.50392 0.00695069 0)
(2.5018 0.00977571 -1.97844e-20)
(2.49694 0.0113961 5.82032e-20)
(2.49348 0.0170442 0)
(2.48364 0.0190793 0)
(2.4794 0.0312251 -3.656e-20)
(2.45955 0.0335533 -3.58548e-20)
(2.45729 0.0610572 3.51177e-20)
(2.41839 0.0650695 3.44524e-20)
(0.0577415 -0.45674 4.52638e-20)
(0.162804 -0.791787 4.48916e-20)
(0.252201 -0.866362 2.96592e-20)
(0.336193 -0.884553 1.4674e-20)
(0.423803 -0.898178 0)
(0.51807 -0.912835 -2.88329e-20)
(0.619779 -0.927153 1.42291e-20)
(0.729407 -0.939759 0)
(0.847312 -0.948446 1.39932e-20)
(0.972981 -0.949367 0)
(1.1049 -0.937553 -2.71656e-20)
(1.24014 -0.907073 0)
(1.37444 -0.85208 -1.33069e-20)
(1.50136 -0.767174 -2.6264e-20)
(1.61367 -0.648399 2.59263e-20)
(1.70294 -0.495068 0)
(1.76153 -0.310939 2.53279e-20)
(1.78442 -0.101954 0)
(1.76729 0.121869 0)
(1.70849 0.347692 2.47166e-20)
(1.60964 0.562067 0)
(1.47404 0.752648 -2.77402e-22)
(1.31229 0.911579 0)
(1.13509 1.0279 0)
(0.95288 1.07415 1.56512e-22)
(0.769012 1.05147 2.43725e-20)
(0.557333 1.07115 2.42258e-20)
(0.300691 1.05667 2.42521e-20)
(0.251962 0.64853 0)
(-0.0580101 0.573344 4.79188e-20)
(-0.731356 1.04415 0)
(-1.28531 1.40074 2.33015e-20)
(-1.76983 1.61899 0)
(-2.15556 1.80607 0)
(-2.50981 1.94059 -2.22037e-20)
(-2.78999 2.02735 0)
(-3.03306 2.06251 2.14093e-20)
(-3.21835 2.03315 3.7546e-22)
(-3.37163 1.94266 -4.16129e-20)
(-3.49454 1.8044 4.03591e-20)
(-3.6019 1.63612 0)
(-3.70069 1.45753 0)
(-3.79701 1.28213 1.8451e-20)
(-3.89477 1.11893 0)
(-3.99572 0.971315 1.84394e-20)
(-4.09965 0.839242 -1.79884e-20)
(-4.20437 0.720735 -1.75512e-20)
(-4.30637 0.612799 0)
(-4.40177 0.512558 1.67451e-20)
(-4.48655 0.417513 1.63881e-20)
(-4.55722 0.326307 -3.15394e-20)
(-4.61114 0.238534 1.5789e-20)
(-4.64678 0.154245 1.55525e-20)
(-4.66323 0.073946 0)
(-4.6607 -0.00128296 0)
(-4.64029 -0.0708207 -1.50916e-20)
(-4.60349 -0.133052 0)
(-4.5525 -0.187362 0)
(-4.48964 -0.233741 2.98877e-20)
(-4.41717 -0.272503 2.98876e-20)
(-4.33708 -0.304537 0)
(-4.25105 -0.331089 0)
(-4.16051 -0.353755 0)
(-4.06666 -0.374206 0)
(-3.97044 -0.393896 3.01877e-20)
(-3.87248 -0.413713 -3.02078e-20)
(-3.7731 -0.433734 -3.03291e-20)
(-3.67248 -0.453155 -6.07435e-20)
(-3.57087 -0.470375 0)
(-3.46876 -0.483199 3.08729e-23)
(-3.36699 -0.489291 0)
(-3.26683 -0.486869 3.05319e-20)
(-3.16993 -0.475571 3.52841e-23)
(-3.0783 -0.457268 3.05186e-20)
(-2.99384 -0.436738 -3.04905e-20)
(-2.91682 -0.421804 8.25338e-23)
(-2.84406 -0.421916 0)
(-2.76744 -0.445059 -3.02446e-20)
(-2.67471 -0.494103 -3.03842e-20)
(-2.55398 -0.563391 -6.06338e-20)
(-2.39968 -0.639302 0)
(-2.21366 -0.707344 3.03524e-20)
(-2.00299 -0.756914 0)
(-1.7773 -0.78371 -6.11626e-20)
(-1.54558 -0.788961 3.06871e-20)
(-1.31559 -0.776036 -3.06942e-20)
(-1.09248 -0.750789 3.06711e-20)
(-0.879304 -0.718432 6.107e-20)
(-0.677275 -0.683142 -3.05353e-20)