/*--------------------------------*- C++ -*----------------------------------*\
  =========                 |
  \\      /  F ield         | OpenFOAM: The Open Source CFD Toolbox
   \\    /   O peration     | Website:  https://openfoam.org
    \\  /    A nd           | Version:  7
     \\/     M anipulation  |
\*---------------------------------------------------------------------------*/
FoamFile
{
    version     2.0;
    format      ascii;
    class       volVectorField;
    location    "0.047";
    object      U_0;
}
// * * * * * * * * * * * * * * * * * * * * * * * * * * * * * * * * * * * * * //

dimensions      [0 1 -1 0 0 0 0];

internalField   nonuniform List<vector> 
12225
(
(4.76839 0.159589 0)
(4.163 0.102175 0)
(3.72548 0.0816729 0)
(3.38821 0.0764487 0)
(3.04881 0.0771157 0)
(2.68606 0.0722853 0)
(2.33138 0.0605494 0)
(2.01196 0.0484902 0)
(1.72713 0.0410884 0)
(1.47026 0.0362601 0)
(1.23942 0.029764 0)
(1.03904 0.0212888 0)
(0.867553 0.0133555 0)
(0.729897 0.00772908 0)
(0.609658 0.00413084 0)
(0.524345 0.00262586 0)
(0.427086 0.00125507 0)
(0.384577 -0.0139129 0)
(4.91962 0.087383 0)
(4.83324 0.0781295 0)
(4.70795 0.0928927 0)
(4.61663 0.0895973 0)
(4.5427 0.0927704 0)
(4.45773 0.103299 0)
(4.33922 0.111569 0)
(4.1844 0.112818 0)
(4.0067 0.109323 0)
(3.82812 0.104984 0)
(3.65704 0.101276 0)
(3.49485 0.0971511 0)
(3.33271 0.0906478 0)
(3.17933 0.0816176 0)
(3.0272 0.0724469 0)
(2.90345 0.0646081 0)
(2.75812 0.0644286 0)
(2.64779 0.0554167 0)
(4.98347 0.13494 0)
(4.93084 0.102369 0)
(4.84851 0.121424 0)
(4.79669 0.116714 0)
(4.77075 0.115404 0)
(4.75816 0.123594 0)
(4.74352 0.135627 0)
(4.71074 0.144691 0)
(4.65499 0.147224 0)
(4.58649 0.144105 0)
(4.51769 0.138641 0)
(4.45375 0.133572 0)
(4.39345 0.12871 0)
(4.33231 0.123167 0)
(4.2694 0.115096 0)
(4.2017 0.107582 0)
(4.13252 0.107126 0)
(4.05378 0.108678 0)
(5.00547 0.146982 0)
(4.91822 0.101332 0)
(4.8253 0.123601 0)
(4.764 0.123842 0)
(4.74036 0.117949 0)
(4.74359 0.120371 0)
(4.76031 0.130954 0)
(4.77439 0.142659 0)
(4.77233 0.149686 0)
(4.75021 0.150532 0)
(4.71587 0.146946 0)
(4.67958 0.141153 0)
(4.65082 0.135033 0)
(4.62918 0.128803 0)
(4.61492 0.123125 0)
(4.598 0.119661 0)
(4.58284 0.123495 0)
(4.55836 0.131699 0)
(5.08343 0.195861 0)
(4.92373 0.142036 0)
(4.83235 0.143978 0)
(4.78105 0.134632 0)
(4.77113 0.116564 0)
(4.78645 0.109213 0)
(4.80844 0.11835 0)
(4.82092 0.13617 0)
(4.81403 0.153047 0)
(4.78857 0.162777 0)
(4.75591 0.163671 0)
(4.72868 0.157278 0)
(4.71485 0.147122 0)
(4.71386 0.136236 0)
(4.72131 0.127564 0)
(4.72811 0.122967 0)
(4.73136 0.125954 0)
(4.72594 0.135212 0)
(5.01757 0.213711 0)
(4.95699 0.15506 0)
(4.92843 0.148115 0)
(4.93059 0.144514 0)
(4.91779 0.128235 0)
(4.88001 0.118582 0)
(4.83859 0.125725 0)
(4.80671 0.143956 0)
(4.78189 0.162429 0)
(4.75909 0.172238 0)
(4.7398 0.170082 0)
(4.72845 0.158243 0)
(4.72739 0.142265 0)
(4.73452 0.127806 0)
(4.7452 0.119087 0)
(4.75324 0.118005 0)
(4.75546 0.126247 0)
(4.75022 0.141254 0)
(5.0227 0.236833 0)
(4.99479 0.181515 0)
(4.94398 0.146421 0)
(4.91344 0.1385 0)
(4.90443 0.134418 0)
(4.89561 0.134495 0)
(4.87876 0.14215 0)
(4.85668 0.156343 0)
(4.83377 0.171377 0)
(4.81314 0.179951 0)
(4.79713 0.177456 0)
(4.78644 0.164515 0)
(4.78025 0.146199 0)
(4.77622 0.129012 0)
(4.77323 0.118368 0)
(4.76927 0.116899 0)
(4.76522 0.125324 0)
(4.76047 0.141459 0)
(4.93863 0.215109 0)
(4.97375 0.170146 0)
(4.94517 0.155587 0)
(4.91914 0.144344 0)
(4.89713 0.133112 0)
(4.86961 0.131688 0)
(4.84182 0.143828 0)
(4.82179 0.163904 0)
(4.8116 0.18151 0)
(4.80985 0.188239 0)
(4.81477 0.181528 0)
(4.82351 0.164985 0)
(4.83231 0.145559 0)
(4.83732 0.129824 0)
(4.83692 0.121911 0)
(4.83067 0.122712 0)
(4.8207 0.131816 0)
(4.8086 0.147086 0)
(5.06596 0.265997 0)
(4.98046 0.200996 0)
(4.94155 0.168779 0)
(4.91069 0.162686 0)
(4.87011 0.16351 0)
(4.82872 0.162324 0)
(4.80942 0.161824 0)
(4.82064 0.16542 0)
(4.85291 0.171438 0)
(4.89021 0.174232 0)
(4.91918 0.169241 0)
(4.93202 0.15702 0)
(4.92822 0.142208 0)
(4.91143 0.130254 0)
(4.88851 0.12505 0)
(4.86453 0.127837 0)
(4.84375 0.138307 0)
(4.82744 0.154473 0)
(5.04208 0.280014 0)
(5.00382 0.220601 0)
(4.9083 0.166438 0)
(4.85804 0.153503 0)
(4.8695 0.154155 0)
(4.90604 0.151542 0)
(4.93439 0.147114 0)
(4.94366 0.14747 0)
(4.93934 0.153537 0)
(4.93016 0.160292 0)
(4.92128 0.163168 0)
(4.91303 0.161242 0)
(4.90432 0.156413 0)
(4.8932 0.151446 0)
(4.88054 0.14887 0)
(4.86697 0.15046 0)
(4.85537 0.15652 0)
(4.84602 0.167041 0)
(4.91434 0.269019 0)
(4.96817 0.261109 0)
(4.9846 0.226171 0)
(4.97414 0.182899 0)
(4.95862 0.153252 0)
(4.93805 0.143007 0)
(4.91568 0.14803 0)
(4.89985 0.160724 0)
(4.89362 0.172246 0)
(4.89393 0.176927 0)
(4.89623 0.173818 0)
(4.89677 0.165406 0)
(4.89414 0.155574 0)
(4.88902 0.14778 0)
(4.8833 0.144266 0)
(4.87869 0.146011 0)
(4.87644 0.152518 0)
(4.87639 0.163379 0)
(4.91264 0.257839 0)
(4.94011 0.207036 0)
(4.96327 0.175928 0)
(4.97355 0.160247 0)
(4.96367 0.159595 0)
(4.9337 0.161799 0)
(4.9046 0.162052 0)
(4.8947 0.162254 0)
(4.90468 0.164033 0)
(4.92319 0.166295 0)
(4.93837 0.166856 0)
(4.94418 0.164884 0)
(4.94005 0.16086 0)
(4.92931 0.156458 0)
(4.91561 0.153454 0)
(4.90267 0.153566 0)
(4.89164 0.157461 0)
(4.88369 0.16526 0)
(4.93935 0.235848 0)
(4.98653 0.219188 0)
(5.02554 0.198085 0)
(5.0345 0.180257 0)
(4.99897 0.180765 0)
(4.94823 0.18275 0)
(4.92228 0.173608 0)
(4.93136 0.159103 0)
(4.95781 0.149759 0)
(4.97906 0.14947 0)
(4.98354 0.155314 0)
(4.97143 0.162242 0)
(4.95068 0.166323 0)
(4.92913 0.166841 0)
(4.91294 0.165609 0)
(4.90269 0.16535 0)
(4.89871 0.167831 0)
(4.89761 0.173913 0)
(4.99928 0.213085 0)
(5.01669 0.182099 0)
(4.99612 0.162291 0)
(4.96467 0.176317 0)
(4.94782 0.196956 0)
(4.95532 0.19086 0)
(4.98007 0.16336 0)
(5.0045 0.141635 0)
(5.01552 0.14171 0)
(5.01146 0.159482 0)
(4.99923 0.180697 0)
(4.98627 0.193263 0)
(4.97681 0.192932 0)
(4.97015 0.183222 0)
(4.96465 0.170517 0)
(4.95868 0.161331 0)
(4.95266 0.158035 0)
(4.94735 0.161595 0)
(5.09873 0.272649 0)
(5.09369 0.237513 0)
(5.05612 0.218874 0)
(5.01806 0.206505 0)
(5.00595 0.188256 0)
(5.00445 0.16365 0)
(4.99802 0.142233 0)
(4.9872 0.133921 0)
(4.98006 0.140019 0)
(4.98239 0.153533 0)
(4.99377 0.166275 0)
(5.00809 0.174138 0)
(5.01794 0.177199 0)
(5.01891 0.178598 0)
(5.01134 0.180098 0)
(4.99802 0.182612 0)
(4.98415 0.184856 0)
(4.97198 0.185451 0)
(5.12151 0.351321 0)
(5.09323 0.274461 0)
(5.06992 0.227984 0)
(5.04853 0.215649 0)
(5.03525 0.20976 0)
(5.0204 0.199938 0)
(5.00321 0.183863 0)
(4.9913 0.166039 0)
(4.98868 0.154429 0)
(4.9943 0.15336 0)
(5.00476 0.161052 0)
(5.01595 0.172606 0)
(5.02508 0.183101 0)
(5.03176 0.189656 0)
(5.03856 0.191427 0)
(5.04603 0.189332 0)
(5.05647 0.18483 0)
(5.06603 0.180177 0)
(4.99485 0.368528 0)
(5.00511 0.302871 0)
(4.99318 0.235191 0)
(4.99628 0.211596 0)
(5.00586 0.20074 0)
(5.00584 0.184547 0)
(4.99692 0.161486 0)
(4.9876 0.138786 0)
(4.98436 0.125465 0)
(4.99098 0.124912 0)
(5.00857 0.133544 0)
(5.03423 0.145107 0)
(5.06231 0.154337 0)
(5.08753 0.158873 0)
(5.10641 0.159182 0)
(5.11784 0.156972 0)
(5.12217 0.154671 0)
(5.12088 0.153691 0)
(5.00206 0.347135 0)
(5.02009 0.299056 0)
(5.00504 0.249233 0)
(5.00725 0.217536 0)
(5.01925 0.215771 0)
(5.02976 0.222943 0)
(5.03059 0.219373 0)
(5.02626 0.197757 0)
(5.02345 0.162951 0)
(5.02491 0.126724 0)
(5.03181 0.100049 0)
(5.0438 0.0891536 0)
(5.05907 0.0945025 0)
(5.07451 0.112452 0)
(5.08836 0.136761 0)
(5.09926 0.161146 0)
(5.10766 0.1814 0)
(5.11363 0.19419 0)
(4.97871 0.303609 0)
(4.98135 0.297481 0)
(4.979 0.233155 0)
(4.97229 0.181178 0)
(4.97704 0.163349 0)
(4.99453 0.157567 0)
(5.02408 0.147163 0)
(5.05816 0.130195 0)
(5.08879 0.113133 0)
(5.11044 0.102079 0)
(5.12183 0.0980994 0)
(5.12554 0.0989117 0)
(5.12573 0.101753 0)
(5.12533 0.105238 0)
(5.12725 0.108477 0)
(5.13265 0.111614 0)
(5.14277 0.113804 0)
(5.1566 0.115868 0)
(4.9335 0.416427 0)
(4.97781 0.332976 0)
(4.99406 0.251319 0)
(5.01867 0.217527 0)
(5.04938 0.186985 0)
(5.08703 0.149964 0)
(5.11751 0.116 0)
(5.13349 0.0917401 0)
(5.14114 0.0778593 0)
(5.14805 0.0731406 0)
(5.15812 0.0764558 0)
(5.17181 0.0860621 0)
(5.18696 0.0989866 0)
(5.20032 0.111706 0)
(5.21057 0.120614 0)
(5.21824 0.124343 0)
(5.2252 0.122237 0)
(5.23254 0.116097 0)
(4.81959 0.32698 0)
(4.91999 0.236291 0)
(4.94466 0.176611 0)
(4.97629 0.127483 0)
(5.01513 0.0917334 0)
(5.0604 0.0762561 0)
(5.10109 0.0781851 0)
(5.12855 0.0830554 0)
(5.1429 0.0781676 0)
(5.14791 0.0635178 0)
(5.14848 0.0488112 0)
(5.14995 0.0429803 0)
(5.15636 0.0481253 0)
(5.16867 0.0604351 0)
(5.18628 0.0730847 0)
(5.20704 0.0814404 0)
(5.22958 0.0826682 0)
(5.25125 0.0778219 0)
(5.0021 0.257401 0)
(5.01481 0.207767 0)
(5.0525 0.192596 0)
(5.09379 0.142159 0)
(5.11378 0.0854773 0)
(5.11969 0.0502564 0)
(5.12834 0.0415942 0)
(5.14407 0.0502162 0)
(5.16234 0.063875 0)
(5.1773 0.0745203 0)
(5.18721 0.0794359 0)
(5.19481 0.0790713 0)
(5.20443 0.0751083 0)
(5.21866 0.0694575 0)
(5.23824 0.0629699 0)
(5.26132 0.0565388 0)
(5.28636 0.0499565 0)
(5.30983 0.0443643 0)
(5.07249 0.331764 0)
(5.04393 0.194715 0)
(5.07877 0.114163 0)
(5.1292 0.0906763 0)
(5.16034 0.0778465 0)
(5.17114 0.0612362 0)
(5.17431 0.0450641 0)
(5.17712 0.0352569 0)
(5.18283 0.0308642 0)
(5.19254 0.0275018 0)
(5.20569 0.0230768 0)
(5.22141 0.0181159 0)
(5.23938 0.013658 0)
(5.25898 0.0101671 0)
(5.27975 0.00739322 0)
(5.30068 0.00512692 0)
(5.32142 0.00284533 0)
(5.34094 0.0016756 0)
(4.99516 0.313506 0)
(5.0602 0.197762 0)
(5.08272 0.112017 0)
(5.1071 0.0729146 0)
(5.14001 0.0518896 0)
(5.17817 0.0434408 0)
(5.21477 0.0436444 0)
(5.24499 0.0487745 0)
(5.26785 0.0545622 0)
(5.28511 0.0568505 0)
(5.29933 0.0535885 0)
(5.31231 0.0451671 0)
(5.32506 0.0340888 0)
(5.3382 0.0226986 0)
(5.35178 0.0118748 0)
(5.36533 0.00298543 0)
(5.37922 -0.00401919 0)
(5.39275 -0.00831261 0)
(5.04986 0.2417 0)
(5.11471 0.152111 0)
(5.15674 0.0966739 0)
(5.18645 0.0609953 0)
(5.20309 0.0252738 0)
(5.21877 -0.001358 0)
(5.2416 -0.0122047 0)
(5.27083 -0.0113765 0)
(5.30264 -0.00628507 0)
(5.33535 -0.00295663 0)
(5.36798 -0.00375592 0)
(5.39876 -0.00752004 0)
(5.4248 -0.0125619 0)
(5.44314 -0.0175093 0)
(5.45407 -0.0222493 0)
(5.45971 -0.0264769 0)
(5.46268 -0.0304152 0)
(5.46462 -0.0331194 0)
(5.01981 0.196262 0)
(5.10504 0.133179 0)
(5.18586 0.0967791 0)
(5.27126 0.0671304 0)
(5.32394 0.0373609 0)
(5.35135 0.013009 0)
(5.36842 0.00332073 0)
(5.38507 0.00492856 0)
(5.40386 0.00832925 0)
(5.42229 0.00740442 0)
(5.43796 0.00262749 0)
(5.44979 -0.00205581 0)
(5.4585 -0.0043681 0)
(5.46613 -0.00452138 0)
(5.4742 -0.00428473 0)
(5.48285 -0.00535914 0)
(5.4921 -0.00870592 0)
(5.50064 -0.012715 0)
(4.9638 0.124551 0)
(5.13366 0.0459129 0)
(5.28435 0.0163704 0)
(5.35944 -0.00461899 0)
(5.38566 -0.0211227 0)
(5.39758 -0.0318713 0)
(5.41469 -0.0347774 0)
(5.44089 -0.0320244 0)
(5.47063 -0.027867 0)
(5.49663 -0.0247803 0)
(5.51552 -0.0234051 0)
(5.5282 -0.0241407 0)
(5.5375 -0.0266933 0)
(5.5459 -0.0309055 0)
(5.55427 -0.0362214 0)
(5.56205 -0.0415123 0)
(5.56883 -0.0459124 0)
(5.57368 -0.0481497 0)
(5.07444 0.127302 0)
(5.18846 0.0369805 0)
(5.32741 0.0339764 0)
(5.40118 0.0275222 0)
(5.42501 0.0096371 0)
(5.42745 -0.00814056 0)
(5.43069 -0.0187356 0)
(5.44513 -0.0218165 0)
(5.46899 -0.0199732 0)
(5.49619 -0.0168588 0)
(5.52318 -0.0148956 0)
(5.54899 -0.0143821 0)
(5.57329 -0.014548 0)
(5.59552 -0.0148437 0)
(5.61468 -0.0153975 0)
(5.63032 -0.0165986 0)
(5.64282 -0.0187726 0)
(5.65335 -0.0218375 0)
(4.9974 0.0633758 0)
(5.22417 -0.0296932 0)
(5.32891 -0.0350657 0)
(5.37801 -0.0432679 0)
(5.41792 -0.0411108 0)
(5.45096 -0.0399469 0)
(5.47213 -0.0449047 0)
(5.48392 -0.0514453 0)
(5.49223 -0.054622 0)
(5.5007 -0.0542191 0)
(5.51009 -0.0529294 0)
(5.51982 -0.05282 0)
(5.52824 -0.0540142 0)
(5.53442 -0.055762 0)
(5.5369 -0.0573707 0)
(5.53604 -0.0585814 0)
(5.53085 -0.0594251 0)
(5.52356 -0.0602238 0)
(4.93059 0.0238222 0)
(5.0686 -0.0157557 0)
(5.04113 -0.0015716 0)
(4.91998 -0.0126072 0)
(4.79862 -0.0243651 0)
(4.68922 -0.0287836 0)
(4.58115 -0.0285681 0)
(4.46954 -0.0271811 0)
(4.35786 -0.0258376 0)
(4.25113 -0.0248096 0)
(4.15123 -0.0241986 0)
(4.05714 -0.0236484 0)
(3.96687 -0.0224487 0)
(3.88088 -0.0203313 0)
(3.79917 -0.0178293 0)
(3.72301 -0.0158363 0)
(3.64985 -0.0152244 0)
(3.58043 -0.0160293 0)
(-0.0218766 0.0192048 3.8777e-20)
(0.0287446 -0.0678142 -3.84936e-20)
(0.144518 -0.126234 0)
(0.281391 -0.151839 0)
(0.427752 -0.159658 0)
(0.576511 -0.159441 3.72826e-20)
(0.724671 -0.156096 0)
(0.871014 -0.151592 0)
(1.01505 -0.146426 0)
(1.15631 -0.140413 0)
(1.29374 -0.133065 -3.57249e-20)
(1.4257 -0.12371 0)
(1.54948 -0.111778 0)
(1.66213 -0.0966211 0)
(1.75931 -0.0778551 0)
(1.83752 -0.0550173 -3.41941e-20)
(1.89088 -0.0280712 0)
(1.91775 0.00299084 0)
(1.91108 0.0381836 0)
(1.8678 0.0756781 0)
(1.78416 0.115479 0)
(1.66352 0.152567 0)
(1.50132 0.188917 0)
(1.31295 0.216236 -3.21724e-20)
(1.09073 0.232572 3.19478e-20)
(0.857033 0.244186 -3.17202e-20)
(0.656814 0.199853 -3.14871e-20)
(0.388225 0.153648 0)
(0.287275 0.0602559 0)
(0.26939 -0.0615221 3.07443e-20)
(0.171434 -0.123988 3.04751e-20)
(0.281497 -0.23079 0)
(0.517704 -0.244043 0)
(0.706645 -0.36849 2.96406e-20)
(0.736253 -0.61255 0)
(0.728676 -0.568375 0)
(0.603123 -0.119453 -2.88207e-20)
(0.152532 0.334341 0)
(-0.412581 0.472197 -2.83642e-20)
(-0.99352 0.518995 -5.61281e-20)
(-1.56257 0.51764 0)
(-2.0868 0.474157 0)
(-2.5475 0.411829 0)
(-2.94296 0.347288 0)
(-3.27713 0.287693 0)
(-3.55703 0.235715 -5.19642e-20)
(-3.78978 0.191743 -5.1295e-20)
(-3.98223 0.15512 -5.06499e-20)
(-4.14013 0.124648 0)
(-4.26819 0.0991516 4.94364e-20)
(-4.36999 0.0775895 0)
(-4.44839 0.0590544 -4.83276e-20)
(-4.50552 0.0429094 -4.7812e-20)
(-4.54318 0.0287114 0)
(-4.56301 0.0161573 0)
(-4.56616 0.00529736 0)
(-4.55535 -0.00384444 -4.59839e-20)
(-4.5318 -0.0117033 0)
(-4.49707 -0.0183168 0)
(-4.45276 -0.0238628 0)
(-4.40013 -0.0284992 0)
(-4.34033 -0.0323792 0)
(-4.27414 -0.035758 0)
(-4.20208 -0.0388586 0)
(-4.12436 -0.041856 0)
(-4.041 -0.0448668 4.27264e-20)
(-3.95188 -0.0478867 0)
(-3.85699 -0.050826 0)
(-3.75655 -0.0534972 -4.17339e-20)
(-3.65123 -0.055636 -4.14044e-20)
(-3.54216 -0.0569823 0)
(-3.43094 -0.0573517 4.0744e-20)
(-3.3194 -0.0567457 -4.04127e-20)
(-3.20917 -0.0554367 0)
(-3.10107 -0.0540119 3.97492e-20)
(-2.99445 -0.0533141 0)
(-2.88679 -0.054252 0)
(-2.77394 -0.0574952 -3.87695e-20)
(-2.65116 -0.0631173 0)
(-2.51453 -0.0704478 3.81444e-20)
(-2.36188 -0.0784046 0)
(-2.19326 -0.0857849 -3.75414e-20)
(-2.01077 -0.0915828 -3.72432e-20)
(-1.81805 -0.095199 -3.6944e-20)
(-1.61947 -0.0964629 -7.32829e-20)
(-1.41924 -0.0955835 7.26684e-20)
(-1.22065 -0.0930396 0)
(-1.02616 -0.0893009 0)
(-0.837713 -0.0848227 0)
(-0.656554 -0.0799449 7.01012e-20)
(-0.483403 -0.0748714 6.94337e-20)
(-0.318625 -0.0697214 -6.87574e-20)
(-0.162395 -0.0646022 0)
(-0.0154922 -0.0595467 6.73773e-20)
(0.122151 -0.054603 6.66616e-20)
(0.251223 -0.0496575 6.59341e-20)
(0.3715 -0.0447868 0)
(0.48298 -0.0400392 0)
(0.585765 -0.0354577 0)
(0.68005 -0.0310802 6.30193e-20)
(0.766112 -0.0269371 0)
(0.844291 -0.0230492 0)
(0.914967 -0.019427 -6.08504e-20)
(0.978543 -0.0160726 0)
(1.03543 -0.0129816 0)
(1.08603 -0.0101469 -5.87135e-20)
(1.13075 -0.00756045 0)
(1.16996 -0.00521582 0)
(1.20406 -0.00310813 5.6617e-20)
(1.23341 -0.00123226 5.59278e-20)
(1.2584 0.000416716 0)
(1.27941 0.00184549 -5.45643e-20)
(1.29682 0.00306753 0)
(1.311 0.00409393 5.32207e-20)
(1.32235 0.00494394 0)
(1.33119 0.00564256 5.1897e-20)
(1.33787 0.00620288 5.12424e-20)
(1.34267 0.0066567 0)
(1.34586 0.00702656 0)
(1.34765 0.0073272 0)
(1.34817 0.00759525 0)
(1.34759 0.00781648 0)
(1.34607 0.00795549 0)
(1.34371 0.0080075 0)
(1.34061 0.00798215 4.6176e-20)
(1.33689 0.00788353 -4.55631e-20)
(1.33268 0.00770674 0)
(1.3281 0.00745557 0)
(1.32327 0.00714102 0)
(1.31831 0.00677668 0)
(1.31331 0.00637813 -8.51236e-20)
(1.30837 0.00595984 0)
(1.30353 0.00553358 8.27795e-20)
(1.29887 0.0051105 -8.16193e-20)
(1.29441 0.0047019 0)
(1.29016 0.00431561 0)
(1.28615 0.00395385 0)
(1.28235 0.00361637 7.70546e-20)
(1.27876 0.00330334 7.59321e-20)
(1.2754 0.00301393 0)
(1.27223 0.00274492 7.37086e-20)
(1.26924 0.00249287 7.26075e-20)
(1.26638 0.00225787 -7.15135e-20)
(1.26365 0.00203924 0)
(1.261 0.00184458 0)
(1.25844 0.00167276 -6.82723e-20)
(1.25595 0.00152113 0)
(1.25352 0.00138738 0)
(1.25115 0.00126987 0)
(1.24882 0.00116792 0)
(1.24654 0.00108123 6.30024e-20)
(1.24428 0.00100917 6.19676e-20)
(1.24204 0.000952707 0)
(1.2398 0.000910518 5.99164e-20)
(1.23754 0.0008815 0)
(1.23523 0.000863503 0)
(1.23288 0.000854952 5.68851e-20)
(1.23045 0.000854674 0)
(1.22793 0.000862744 5.48938e-20)
(1.22533 0.000879214 0)
(1.22257 0.000905666 0)
(1.2197 0.000942436 5.195e-20)
(1.21659 0.000993161 0)
(1.21333 0.00105762 5.00157e-20)
(1.20967 0.00114426 0)
(1.20584 0.00125018 0)
(1.20132 0.00139566 0)
(1.19659 0.00156504 -4.62138e-20)
(1.19066 0.00181217 0)
(1.18451 0.00208372 4.43463e-20)
(1.17626 0.0025226 0)
(1.16764 0.0029514 0)
(1.15568 0.00379199 0)
(1.14218 0.00442184 0)
(1.12485 0.00623147 0)
(1.09977 0.00692102 0)
(1.07751 0.011526 0)
(1.01921 0.0112238 -7.4266e-20)
(1.00697 0.0251242 0)
(0.838115 0.0174263 0)
(0.00588513 -0.0326315 -1.16324e-19)
(0.107536 -0.282436 1.15431e-19)
(0.234249 -0.409544 0)
(0.362544 -0.453936 -7.5736e-20)
(0.490692 -0.462211 0)
(0.619797 -0.457856 -3.72638e-20)
(0.750628 -0.450139 7.39009e-20)
(0.88347 -0.441679 7.32809e-20)
(1.01819 -0.432227 0)
(1.15407 -0.420439 7.20296e-20)
(1.28979 -0.404407 3.57132e-20)
(1.42308 -0.382023 0)
(1.55121 -0.351296 0)
(1.67012 -0.310579 0)
(1.77622 -0.258569 0)
(1.86383 -0.194676 3.41867e-20)
(1.92989 -0.119642 0)
(1.96812 -0.0344946 -6.71833e-20)
(1.97781 0.0578809 0)
(1.95896 0.154987 0)
(1.90755 0.251238 6.56181e-20)
(1.82909 0.34301 0)
(1.71848 0.424972 -6.46776e-20)
(1.59253 0.485454 3.21355e-20)
(1.44303 0.544567 -3.19039e-20)
(1.28579 0.512059 3.16711e-20)
(1.11585 0.529211 3.14342e-20)
(0.964482 0.500536 0)
(0.896381 0.166847 0)
(0.714646 0.167996 -3.07022e-20)
(0.807191 0.168915 3.04886e-20)
(0.853197 -0.377059 0)
(0.548262 -0.560267 0)
(0.247586 0.064746 -2.96688e-20)
(-0.387568 0.555032 0)
(-1.0394 0.810174 0)
(-1.56217 1.03974 2.87415e-20)
(-2.02327 1.20153 0)
(-2.43943 1.23941 -2.80342e-20)
(-2.82061 1.20696 5.58388e-20)
(-3.15095 1.11162 0)
(-3.43901 0.986012 0)
(-3.68493 0.850226 1.07407e-19)
(-3.89647 0.720291 1.06081e-19)
(-4.07712 0.602954 1.04762e-19)
(-4.23217 0.500879 -5.15972e-20)
(-4.3648 0.413616 5.12147e-20)
(-4.47803 0.339132 1.51542e-19)
(-4.57377 0.275119 -9.97634e-20)
(-4.65332 0.21939 -4.93891e-20)
(-4.71729 0.170097 0)
(-4.76612 0.125735 4.82929e-20)
(-4.80004 0.0854269 -4.7653e-20)
(-4.81927 0.0486215 0)
(-4.82443 0.0149843 0)
(-4.81641 -0.015105 0)
(-4.79492 -0.0418592 4.5962e-20)
(-4.76154 -0.065364 0)
(-4.7174 -0.0856027 -9.0269e-20)
(-4.66373 -0.102826 0)
(-4.60191 -0.117417 -8.88064e-20)
(-4.53302 -0.129896 0)
(-4.45791 -0.14088 8.74163e-20)
(-4.37703 -0.150939 0)
(-4.29054 -0.160523 -8.60686e-20)
(-4.19834 -0.169905 4.26955e-20)
(-4.10026 -0.179108 0)
(-3.9962 -0.18787 8.4085e-20)
(-3.8864 -0.195637 4.17179e-20)
(-3.77155 -0.201641 4.1389e-20)
(-3.65298 -0.20511 0)
(-3.53254 -0.20554 4.07229e-20)
(-3.41244 -0.202995 4.03997e-20)
(-3.29474 -0.19837 0)
(-3.18061 -0.193512 -3.9738e-20)
(-3.06952 -0.191039 7.87973e-20)
(-2.95864 -0.193744 0)
(-2.84296 -0.203681 3.87592e-20)
(-2.71647 -0.221143 0)
(-2.57417 -0.244129 -1.14364e-19)
(-2.41349 -0.269128 0)
(-2.23463 -0.29226 1.12556e-19)
(-2.04046 -0.310323 3.72314e-20)
(-1.83555 -0.321512 -3.69067e-20)
(-1.62509 -0.325434 -7.32161e-20)
(-1.41382 -0.322821 7.26088e-20)
(-1.20521 -0.315256 0)
(-1.0016 -0.304209 0)
(-0.804658 -0.291065 0)
(-0.615323 -0.276845 -2.10246e-19)
(-0.434001 -0.262152 -6.94242e-20)
(-0.260895 -0.247287 6.87499e-20)
(-0.096094 -0.232436 0)
(0.0597094 -0.217994 6.73542e-20)
(0.206807 -0.20355 -6.66428e-20)
(0.34591 -0.18922 -6.59155e-20)
(0.476638 -0.17512 0)
(0.599054 -0.161369 0)
(0.713304 -0.148082 0)
(0.81963 -0.135359 -6.30012e-20)
(0.918365 -0.123275 0)
(1.00991 -0.111879 1.23101e-19)
(1.0947 -0.101192 1.82492e-19)
(1.1732 -0.0912129 -1.20227e-19)
(1.24585 -0.0819223 0)
(1.31306 -0.073293 -5.86908e-20)
(1.37521 -0.0652935 0)
(1.43262 -0.0578945 -1.14578e-19)
(1.4856 -0.0510722 5.6593e-20)
(1.53443 -0.0448091 5.59032e-20)
(1.57936 -0.0390941 0)
(1.62067 -0.0339205 1.6362e-19)
(1.65862 -0.0292786 -1.07729e-19)
(1.69352 -0.0251567 -5.31955e-20)
(1.72567 -0.0215345 0)
(1.75536 -0.0183797 -5.18703e-20)
(1.78291 -0.0156564 -1.53644e-19)
(1.80862 -0.0133146 0)
(1.83277 -0.0112996 -9.98372e-20)
(1.85562 -0.0095577 -9.85558e-20)
(1.87743 -0.00802921 -9.72837e-20)
(1.89834 -0.00667925 0)
(1.91848 -0.00548481 0)
(1.93795 -0.00442584 0)
(1.9568 -0.00348753 4.61433e-20)
(1.97503 -0.00265756 4.55306e-20)
(1.99265 -0.00193783 0)
(2.00964 -0.00133091 8.8633e-20)
(2.026 -0.000832585 8.7432e-20)
(2.04171 -0.000436487 0)
(2.05677 -0.000134515 8.50552e-20)
(2.07118 8.52336e-05 1.67757e-19)
(2.08495 0.000236355 -8.27106e-20)
(2.09811 0.000330269 -8.155e-20)
(2.11065 0.000379026 0)
(2.12261 0.000398943 0)
(2.134 0.000404659 0)
(2.14483 0.00039894 -7.69864e-20)
(2.15511 0.00037717 7.58642e-20)
(2.16486 0.000344716 1.49499e-19)
(2.17408 0.000322136 -7.36419e-20)
(2.18277 0.000328538 7.25415e-20)
(2.1909 0.000364399 7.14482e-20)
(2.19846 0.000421012 0)
(2.20548 0.000475706 0)
(2.21195 0.000521716 -6.82094e-20)
(2.21789 0.000560942 0)
(2.22331 0.000594556 0)
(2.22823 0.000622505 1.30062e-19)
(2.23267 0.000644815 0)
(2.23664 0.000662755 6.29445e-20)
(2.24017 0.0006802 -6.19107e-20)
(2.24326 0.000705776 0)
(2.24594 0.000736073 5.98617e-20)
(2.24824 0.000773504 0)
(2.25017 0.000818455 0)
(2.25174 0.000870677 -5.68338e-20)
(2.25299 0.00092965 1.11673e-19)
(2.25391 0.000996497 -5.48447e-20)
(2.25452 0.0010728 0)
(2.25483 0.00116339 0)
(2.25486 0.00127027 5.19041e-20)
(2.25456 0.00140487 0)
(2.254 0.00156533 4.99719e-20)
(2.25304 0.00177888 0)
(2.25181 0.00202513 0)
(2.25004 0.00237495 0)
(2.24793 0.00274837 4.61744e-20)
(2.24504 0.00334199 0)
(2.24165 0.00389593 -4.43089e-20)
(2.23713 0.00496441 0)
(2.23162 0.0057499 0)
(2.22479 0.00782563 8.31059e-20)
(2.21523 0.00881725 -8.12935e-20)
(2.20553 0.0132098 0)
(2.18689 0.0140826 0)
(2.17547 0.0242383 0)
(2.13349 0.0238057 2.22586e-19)
(2.12905 0.0490162 0)
(2.0227 0.0445377 -1.41525e-19)
(0.0408916 -0.214763 -1.55396e-23)
(0.159779 -0.550744 -1.53846e-19)
(0.272608 -0.665526 0)
(0.376544 -0.691202 1.51413e-19)
(0.479531 -0.693676 0)
(0.586852 -0.693505 0)
(0.700347 -0.694118 -1.09179e-23)
(0.820058 -0.694316 -7.3265e-20)
(0.945412 -0.691796 -7.26211e-20)
(1.07557 -0.683793 -7.20161e-20)
(1.20895 -0.667151 0)
(1.34321 -0.638313 0)
(1.47468 -0.593862 7.00742e-20)
(1.59878 -0.530873 1.38885e-19)
(1.70982 -0.446895 -1.37643e-19)
(1.80156 -0.341658 0)
(1.86769 -0.217011 -1.35273e-19)
(1.9035 -0.0764328 6.71917e-20)
(1.90506 0.0740178 0)
(1.87109 0.228206 -1.32034e-19)
(1.80065 0.376873 -6.56216e-20)
(1.69758 0.513434 1.30112e-19)
(1.56851 0.63235 6.46813e-20)
(1.41851 0.717748 0)
(1.26032 0.790514 -1.27482e-19)
(1.10733 0.842262 -1.26623e-19)
(0.949009 0.750154 0)
(0.80339 0.593762 -1.24887e-19)
(0.603328 0.587633 0)
(0.446081 0.0314563 -1.23091e-19)
(0.384352 -0.336482 -6.09845e-20)
(-0.0810559 0.315026 0)
(-0.809987 0.825695 0)
(-1.33814 1.12176 0)
(-1.85085 1.35016 0)
(-2.28095 1.50693 0)
(-2.65956 1.65179 0)
(-2.96278 1.71717 -1.13047e-19)
(-3.20579 1.69057 1.67916e-19)
(-3.40356 1.59411 0)
(-3.5696 1.44697 0)
(-3.71927 1.27838 0)
(-3.85763 1.1074 -4.59283e-22)
(-3.98992 0.947725 -1.06018e-19)
(-4.11608 0.805192 -2.09062e-19)
(-4.23647 0.680865 2.06531e-19)
(-4.34965 0.573188 1.01871e-19)
(-4.45398 0.479105 -1.00942e-19)
(-4.54725 0.395673 2.53708e-22)
(-4.62752 0.320216 -9.83642e-20)
(-4.69341 0.250795 0)
(-4.74375 0.186117 -9.62313e-20)
(-4.77785 0.125458 1.97715e-22)
(-4.79576 0.0685472 0)
(-4.7976 0.0155611 0)
(-4.78449 -0.0332305 9.25284e-20)
(-4.75785 -0.0773811 0)
(-4.71868 -0.116249 0)
(-4.66852 -0.149698 -9.00678e-20)
(-4.60898 -0.177909 -1.78884e-19)
(-4.54155 -0.201494 8.88043e-20)
(-4.46753 -0.221401 0)
(-4.38791 -0.238725 -8.74138e-20)
(-4.30332 -0.254585 0)
(-4.214 -0.269915 -8.60148e-20)
(-4.11988 -0.285286 -8.54006e-20)
(-4.02071 -0.300753 1.69445e-19)
(-3.91628 -0.315764 8.40516e-20)
(-3.80665 -0.329197 0)
(-3.69247 -0.339536 -1.65506e-19)
(-3.57505 -0.34522 0)
(-3.4564 -0.345167 -2.44315e-19)
(-3.33903 -0.33933 -1.61541e-19)
(-3.22561 -0.329198 -1.60206e-19)
(-3.11807 -0.318091 1.58864e-19)
(-3.01643 -0.310933 -2.36307e-19)
(-2.91763 -0.313195 0)
(-2.81511 -0.329151 0)
(-2.70015 -0.359913 1.53558e-19)
(-2.56497 -0.401972 2.28515e-19)
(-2.40554 -0.448027 0)
(-2.22241 -0.490228 -7.50041e-20)
(-2.0201 -0.522294 0)
(-1.80547 -0.541124 2.21358e-19)
(-1.5856 -0.546572 8.0673e-23)
(-1.36663 -0.540323 -7.07982e-23)
(-1.15268 -0.52567 -1.43917e-19)
(-0.946229 -0.505516 0)
(-0.748496 -0.482408 1.41386e-19)
(-0.55985 -0.457984 4.0545e-23)
(-0.380115 -0.433151 0)
(-0.209094 -0.408377 0)
(-0.0469216 -0.383829 0)
(0.106269 -0.35993 -1.34684e-19)
(0.250911 -0.335882 0)
(0.387263 -0.312135 0)
(0.515088 -0.288825 0)
(0.634412 -0.266161 0)
(0.745367 -0.244366 0)
(0.848193 -0.223636 -1.25967e-19)
(0.943226 -0.204122 0)
(1.03089 -0.185913 -1.23082e-19)
(1.11167 -0.169033 -1.21644e-19)
(1.18613 -0.153447 1.20212e-19)
(1.25485 -0.139082 0)
(1.31842 -0.125839 1.17374e-19)
(1.37741 -0.113619 0)
(1.43231 -0.102335 1.14569e-19)
(1.48353 -0.0919237 -1.13181e-19)
(1.53141 -0.0823413 -3.35399e-19)
(1.57618 -0.0735657 0)
(1.61806 -0.0655863 -3.27215e-19)
(1.65723 -0.0583971 -1.07718e-19)
(1.69388 -0.0519923 0)
(1.72821 -0.0463562 -2.10104e-19)
(1.76048 -0.0414585 -2.07464e-19)
(1.79093 -0.037255 3.07268e-19)
(1.81984 -0.0336866 0)
(1.84747 -0.0306802 9.98324e-20)
(1.87408 -0.028161 9.85508e-20)
(1.89987 -0.026054 2.91832e-19)
(1.92503 -0.0242698 0)
(1.94969 -0.022731 0)
(1.97393 -0.0213849 0)
(1.9978 -0.0201913 9.22787e-20)
(2.0213 -0.0191204 0)
(2.04441 -0.018148 0)
(2.0671 -0.0172582 -8.86258e-20)
(2.08932 -0.0164417 -8.74244e-20)
(2.11105 -0.0156915 0)
(2.13223 -0.0150009 0)
(2.15285 -0.0143631 -1.6774e-19)
(2.17288 -0.0137707 0)
(2.19233 -0.0132165 1.63082e-19)
(2.21118 -0.0126921 1.60775e-19)
(2.22943 -0.0121867 0)
(2.2471 -0.0116901 0)
(2.26418 -0.0111987 -1.53951e-19)
(2.28068 -0.0107139 -3.14538e-25)
(2.29659 -0.0102326 -2.64795e-25)
(2.31189 -0.00974351 0)
(2.32658 -0.00923548 -2.9012e-19)
(2.3407 -0.0087063 0)
(2.35425 -0.00815582 0)
(2.36721 -0.00760247 0)
(2.37957 -0.00705619 1.36395e-19)
(2.39131 -0.00652098 0)
(2.40243 -0.00600056 -2.64287e-19)
(2.41292 -0.00549591 -1.30038e-19)
(2.42277 -0.00500537 0)
(2.43198 -0.00452709 -1.25865e-19)
(2.44054 -0.00406246 0)
(2.44846 -0.00362233 0)
(2.45575 -0.00319946 -3.59098e-19)
(2.46244 -0.00279466 2.35337e-19)
(2.46854 -0.00240922 0)
(2.47409 -0.00203954 2.27287e-19)
(2.4791 -0.00168426 -1.11649e-19)
(2.4836 -0.00133969 0)
(2.48761 -0.00100327 0)
(2.49116 -0.000667225 0)
(2.49426 -0.000330983 -3.11356e-19)
(2.49693 2.32623e-05 0)
(2.49917 0.000390076 -9.99217e-20)
(2.50102 0.000813509 0)
(2.50243 0.00126333 0)
(2.50346 0.0018479 0)
(2.50398 0.00245497 0)
(2.50412 0.00336074 0)
(2.50353 0.00421454 0)
(2.50265 0.00574799 -1.73492e-19)
(2.50046 0.00694588 0)
(2.49835 0.009769 -8.30861e-20)
(2.4935 0.0113869 2.43813e-19)
(2.49004 0.0170315 0)
(2.48021 0.0190617 0)
(2.47598 0.0312001 -1.51822e-19)
(2.45616 0.0335165 -1.48343e-19)
(2.45393 0.060998 1.44836e-19)
(2.41507 0.0649645 1.41479e-19)
(0.0576803 -0.456578 2.32604e-19)
(0.162545 -0.791167 2.30755e-19)
(0.251763 -0.865548 1.52632e-19)
(0.335605 -0.883735 7.57258e-20)
(0.423076 -0.897408 0)
(0.517203 -0.912122 -1.48974e-19)
(0.618765 -0.926497 7.38654e-20)
(0.728242 -0.939163 0)
(0.845996 -0.947916 7.26149e-20)
(0.97152 -0.948912 0)
(1.1033 -0.937179 -1.42604e-19)
(1.23842 -0.906786 0)
(1.37263 -0.851881 -7.00669e-20)
(1.49948 -0.767046 -1.38875e-19)
(1.61175 -0.648309 1.37642e-19)
(1.70099 -0.494976 0)
(1.75956 -0.31078 1.35295e-19)
(1.78244 -0.101653 0)
(1.76527 0.122362 0)
(1.70641 0.348402 1.32056e-19)
(1.60748 0.562988 0)
(1.47178 0.753756 -2.28381e-22)
(1.30991 0.912768 0)
(1.13255 1.02891 0)
(0.950146 1.07481 1.12667e-22)
(0.765865 1.05249 1.26682e-19)
(0.553485 1.0731 1.25776e-19)
(0.297084 1.05747 1.24971e-19)
(0.248853 0.64822 0)
(-0.0633483 0.576046 2.46117e-19)
(-0.736589 1.04702 0)
(-1.28999 1.40275 1.20378e-19)
(-1.77384 1.62014 0)
(-2.15888 1.80659 0)
(-2.51258 1.94032 -1.16409e-19)
(-2.79244 2.02683 0)
(-3.03548 2.06195 1.13831e-19)
(-3.22104 2.03293 3.51203e-22)
(-3.37473 1.94289 -2.23053e-19)
(-3.49808 1.80508 2.20184e-19)
(-3.60577 1.63707 0)
(-3.70475 1.45852 0)
(-3.8011 1.28297 1.05978e-19)
(-3.89877 1.11947 0)
(-3.99952 0.971514 1.04343e-19)
(-4.10324 0.839087 -1.03102e-19)
(-4.20774 0.72026 -1.01877e-19)
(-4.30955 0.612052 0)
(-4.40481 0.511594 9.95071e-20)
(-4.48949 0.416382 9.83757e-20)
(-4.56011 0.325052 -1.94002e-19)
(-4.61399 0.237197 9.6246e-20)
(-4.6496 0.152871 9.52552e-20)
(-4.66603 0.072564 0)
(-4.66347 -0.00262989 0)
(-4.64302 -0.0720688 -9.25497e-20)
(-4.60618 -0.134175 0)
(-4.55516 -0.188329 0)
(-4.49229 -0.234531 1.80375e-19)
(-4.41983 -0.273098 1.78924e-19)
(-4.33978 -0.304922 0)
(-4.25382 -0.331249 0)
(-4.16337 -0.353677 0)
(-4.06962 -0.37389 0)
(-3.97351 -0.393361 1.72126e-19)
(-3.87566 -0.413004 -1.70763e-19)
(-3.77638 -0.43292 -1.69488e-19)
(-3.67585 -0.45233 -3.36316e-19)
(-3.57429 -0.469642 0)
(-3.47218 -0.482667 2.32602e-23)
(-3.37036 -0.489053 0)
(-3.27007 -0.486987 1.6289e-19)
(-3.17297 -0.476056 2.9145e-23)
(-3.08108 -0.458069 1.60217e-19)
(-2.9963 -0.437738 -1.5887e-19)
(-2.91894 -0.422829 7.73139e-23)
(-2.84588 -0.422782 0)
(-2.76908 -0.445619 -1.547e-19)
(-2.67633 -0.494298 -1.53535e-19)
(-2.55571 -0.563276 -3.04357e-19)
(-2.40159 -0.639016 0)
(-2.21571 -0.707041 1.49675e-19)
(-2.0051 -0.756701 0)
(-1.77938 -0.783619 -2.94846e-19)
(-1.54757 -0.788974 1.46308e-19)
(-1.31748 -0.776114 -1.45105e-19)
(-1.09426 -0.750883 1.4388e-19)
(-0.881012 -0.718501 2.851e-19)
(-0.678943 -0.683158 -1.41357e-19)
(-0.487819 -0.647115 1.40061e-19)