/*--------------------------------*- C++ -*----------------------------------*\
  =========                 |
  \\      /  F ield         | OpenFOAM: The Open Source CFD Toolbox
   \\    /   O peration     | Website:  https://openfoam.org
    \\  /    A nd           | Version:  7
     \\/     M anipulation  |
\*---------------------------------------------------------------------------*/
FoamFile
{
    version     2.0;
    format      ascii;
    class       volVectorField;
    location    "0.047";
    object      UMean;
}
// * * * * * * * * * * * * * * * * * * * * * * * * * * * * * * * * * * * * * //

dimensions      [0 1 -1 0 0 0 0];

internalField   nonuniform List<vector> 
12225
(
(4.77981 0.163949 0)
(4.18917 0.110904 0)
(3.73215 0.0974232 0)
(3.36748 0.0807076 0)
(3.04156 0.0671757 0)
(2.74072 0.0570475 0)
(2.46627 0.0481549 0)
(2.22218 0.0398973 0)
(2.01198 0.0311852 0)
(1.83508 0.0236938 0)
(1.69372 0.0151319 0)
(1.58123 0.0103379 0)
(1.50173 0.00146484 0)
(1.44189 0.00277259 0)
(1.409 -0.0108578 0)
(1.38986 0.00304421 0)
(1.39156 -0.0302384 0)
(1.41708 0.00154196 0)
(5.01958 0.112668 0)
(4.87658 0.0727251 0)
(4.76155 0.0882956 0)
(4.67482 0.0873199 0)
(4.58555 0.0852202 0)
(4.48611 0.0847559 0)
(4.37836 0.0839901 0)
(4.26857 0.0808724 0)
(4.15925 0.0762833 0)
(4.05626 0.0687579 0)
(3.95779 0.0615372 0)
(3.87157 0.0508221 0)
(3.78947 0.0439952 0)
(3.72573 0.0310562 0)
(3.66009 0.0280685 0)
(3.62179 0.0104406 0)
(3.57175 0.00914134 0)
(3.5564 -0.0282625 0)
(4.99831 0.171761 0)
(4.88073 0.121487 0)
(4.80281 0.128925 0)
(4.77277 0.122758 0)
(4.75865 0.11483 0)
(4.74504 0.110502 0)
(4.72948 0.107141 0)
(4.71261 0.103109 0)
(4.69494 0.0965755 0)
(4.6761 0.089238 0)
(4.65652 0.0789761 0)
(4.63579 0.0702556 0)
(4.61592 0.0577363 0)
(4.59583 0.0505122 0)
(4.5797 0.0361568 0)
(4.56374 0.0300952 0)
(4.55544 0.0100366 0)
(4.54303 -0.011601 0)
(4.99661 0.188327 0)
(4.90228 0.119413 0)
(4.8262 0.117371 0)
(4.79249 0.112401 0)
(4.78061 0.104416 0)
(4.77467 0.0991874 0)
(4.77115 0.096193 0)
(4.77045 0.0925908 0)
(4.7725 0.0876553 0)
(4.7763 0.0806518 0)
(4.7809 0.0729873 0)
(4.78542 0.063628 0)
(4.79017 0.0549849 0)
(4.79459 0.0445023 0)
(4.80091 0.0353833 0)
(4.80698 0.0228006 0)
(4.81761 0.00807458 0)
(4.82418 -0.0132496 0)
(4.99655 0.213525 0)
(4.92575 0.143023 0)
(4.85802 0.133296 0)
(4.8227 0.127867 0)
(4.80904 0.118009 0)
(4.80235 0.109638 0)
(4.79821 0.103664 0)
(4.79689 0.0982334 0)
(4.79895 0.0915448 0)
(4.80364 0.0837306 0)
(4.8102 0.0745394 0)
(4.81755 0.0650578 0)
(4.82582 0.0546506 0)
(4.83447 0.0443135 0)
(4.84457 0.032875 0)
(4.85528 0.0197478 0)
(4.86782 0.00408658 0)
(4.87834 -0.018792 0)
(4.99076 0.228751 0)
(4.93875 0.156942 0)
(4.88052 0.138357 0)
(4.84549 0.130718 0)
(4.83078 0.119727 0)
(4.82431 0.109231 0)
(4.82071 0.101302 0)
(4.81962 0.0944898 0)
(4.82157 0.0872 0)
(4.82609 0.0787401 0)
(4.83248 0.0693739 0)
(4.83976 0.0592763 0)
(4.84793 0.0487998 0)
(4.85646 0.0377395 0)
(4.86614 0.0258063 0)
(4.876 0.0121962 0)
(4.88682 -0.00432499 0)
(4.89551 -0.0249106 0)
(4.99603 0.244367 0)
(4.9578 0.174077 0)
(4.90827 0.148402 0)
(4.87449 0.137773 0)
(4.85893 0.125949 0)
(4.85236 0.11395 0)
(4.84884 0.103988 0)
(4.84737 0.0955567 0)
(4.84852 0.0871297 0)
(4.85211 0.077921 0)
(4.85759 0.0679059 0)
(4.86407 0.0572825 0)
(4.87144 0.0462264 0)
(4.87913 0.0345014 0)
(4.88773 0.0219878 0)
(4.89608 0.00773451 0)
(4.90495 -0.00853862 0)
(4.91129 -0.0278256 0)
(5.00064 0.253207 0)
(4.97449 0.187594 0)
(4.93435 0.15695 0)
(4.90342 0.142598 0)
(4.88781 0.1298 0)
(4.88153 0.116731 0)
(4.87878 0.105119 0)
(4.87778 0.0950588 0)
(4.87885 0.0854651 0)
(4.88202 0.0754436 0)
(4.88694 0.064806 0)
(4.89274 0.0536491 0)
(4.8993 0.0420801 0)
(4.90597 0.0299198 0)
(4.91328 0.0169336 0)
(4.92 0.00257166 0)
(4.927 -0.0133676 0)
(4.93136 -0.031342 0)
(5.00167 0.261392 0)
(4.98445 0.200405 0)
(4.95314 0.166304 0)
(4.92626 0.148074 0)
(4.91165 0.133712 0)
(4.90611 0.119518 0)
(4.90446 0.106404 0)
(4.90437 0.0948464 0)
(4.90571 0.0841477 0)
(4.90856 0.0734286 0)
(4.91283 0.0623091 0)
(4.9179 0.0507137 0)
(4.92366 0.0387317 0)
(4.92946 0.0262068 0)
(4.93571 0.0130036 0)
(4.94126 -0.00127447 0)
(4.94683 -0.0166702 0)
(4.95004 -0.0333586 0)
(4.99579 0.26741 0)
(4.98532 0.211002 0)
(4.96165 0.17501 0)
(4.93953 0.153504 0)
(4.92669 0.13742 0)
(4.92163 0.122314 0)
(4.92026 0.108127 0)
(4.92033 0.09534 0)
(4.92165 0.0835773 0)
(4.92437 0.0721024 0)
(4.92848 0.0604442 0)
(4.93338 0.0484356 0)
(4.93885 0.0360675 0)
(4.94427 0.0232394 0)
(4.94981 0.00986591 0)
(4.95459 -0.00425751 0)
(4.95909 -0.0191024 0)
(4.96165 -0.0346504 0)
(4.98835 0.270535 0)
(4.98219 0.218566 0)
(4.96349 0.181416 0)
(4.9441 0.156981 0)
(4.93177 0.138943 0)
(4.92654 0.122895 0)
(4.9254 0.107848 0)
(4.92602 0.0939663 0)
(4.92774 0.0811426 0)
(4.93052 0.0688417 0)
(4.93443 0.0566092 0)
(4.93901 0.0442177 0)
(4.94411 0.0316049 0)
(4.94903 0.0186977 0)
(4.95401 0.00543647 0)
(4.95807 -0.00829148 0)
(4.96194 -0.0224216 0)
(4.96383 -0.036889 0)
(5.00812 0.27433 0)
(5.00401 0.226103 0)
(4.98885 0.189304 0)
(4.97193 0.163177 0)
(4.96023 0.143301 0)
(4.95466 0.126007 0)
(4.95307 0.109973 0)
(4.95337 0.0951365 0)
(4.95471 0.0813921 0)
(4.95685 0.0683551 0)
(4.95991 0.0556007 0)
(4.9635 0.0428471 0)
(4.9676 0.0299851 0)
(4.97151 0.0169577 0)
(4.97553 0.00373655 0)
(4.97861 -0.00970971 0)
(4.98169 -0.0233157 0)
(4.98286 -0.0369759 0)
(5.00108 0.276961 0)
(5.00112 0.230601 0)
(4.99058 0.193928 0)
(4.97738 0.166317 0)
(4.96798 0.144678 0)
(4.96373 0.126093 0)
(4.96305 0.109133 0)
(4.96405 0.093502 0)
(4.9658 0.0790599 0)
(4.96808 0.0654858 0)
(4.97103 0.0523605 0)
(4.97442 0.0393774 0)
(4.97828 0.0263992 0)
(4.98191 0.013373 0)
(4.98563 0.000306409 0)
(4.98839 -0.0127948 0)
(4.99118 -0.0258591 0)
(4.99213 -0.0388017 0)
(5.01293 0.27928 0)
(5.01527 0.23633 0)
(5.00807 0.200621 0)
(4.99806 0.172024 0)
(4.99088 0.148726 0)
(4.98763 0.128755 0)
(4.98715 0.110878 0)
(4.98808 0.0945233 0)
(4.98976 0.0793863 0)
(4.99193 0.0651169 0)
(4.9947 0.0513887 0)
(4.99779 0.0379514 0)
(5.00122 0.0247026 0)
(5.00436 0.0116073 0)
(5.00756 -0.00131468 0)
(5.00982 -0.014058 0)
(5.01218 -0.0265765 0)
(5.01289 -0.0388001 0)
(5.00817 0.277527 0)
(5.01272 0.237694 0)
(5.00881 0.202591 0)
(5.00229 0.173036 0)
(4.99783 0.148401 0)
(4.99633 0.127361 0)
(4.99703 0.108723 0)
(4.99897 0.0917442 0)
(5.00158 0.0760064 0)
(5.00453 0.0612186 0)
(5.00778 0.0471399 0)
(5.01105 0.0335685 0)
(5.01438 0.0203775 0)
(5.01734 0.00749205 0)
(5.02021 -0.00511192 0)
(5.02232 -0.017427 0)
(5.02444 -0.0294187 0)
(5.02533 -0.0410051 0)
(5.00739 0.281631 0)
(5.01339 0.24333 0)
(5.01194 0.20856 0)
(5.00803 0.178248 0)
(5.00579 0.152225 0)
(5.00589 0.129668 0)
(5.00763 0.109677 0)
(5.01025 0.091604 0)
(5.01333 0.0750372 0)
(5.01657 0.0596691 0)
(5.0199 0.0452239 0)
(5.02313 0.0314768 0)
(5.0263 0.0182647 0)
(5.02908 0.00551646 0)
(5.03169 -0.00680989 0)
(5.03357 -0.0186836 0)
(5.03537 -0.0301226 0)
(5.03606 -0.0410385 0)
(5.0024 0.275793 0)
(5.0088 0.238866 0)
(5.00944 0.204632 0)
(5.00857 0.174161 0)
(5.00925 0.147516 0)
(5.01166 0.124227 0)
(5.01507 0.103652 0)
(5.01889 0.0852054 0)
(5.02288 0.0684202 0)
(5.02683 0.0529383 0)
(5.03069 0.038485 0)
(5.03424 0.0248647 0)
(5.03752 0.0119326 0)
(5.04024 -0.000394747 0)
(5.0427 -0.0121773 0)
(5.04441 -0.0234221 0)
(5.0461 -0.0341595 0)
(5.04677 -0.044375 0)
(5.00876 0.282711 0)
(5.01537 0.242843 0)
(5.01749 0.206979 0)
(5.01896 0.175325 0)
(5.02221 0.147511 0)
(5.02687 0.123012 0)
(5.03197 0.10131 0)
(5.03696 0.0819718 0)
(5.04171 0.0646428 0)
(5.04615 0.0490188 0)
(5.05032 0.0348024 0)
(5.05408 0.0217312 0)
(5.05751 0.00954869 0)
(5.06035 -0.00191558 0)
(5.0629 -0.0128279 0)
(5.06469 -0.0232161 0)
(5.06645 -0.0331792 0)
(5.06717 -0.0426289 0)
(5.0053 0.276773 0)
(5.01674 0.234769 0)
(5.02363 0.196892 0)
(5.02943 0.163852 0)
(5.0367 0.135317 0)
(5.04505 0.110588 0)
(5.05327 0.0889256 0)
(5.06069 0.0697009 0)
(5.06725 0.0524531 0)
(5.07301 0.0368513 0)
(5.07815 0.0226363 0)
(5.08265 0.00960083 0)
(5.08663 -0.00243499 0)
(5.08992 -0.0136085 0)
(5.09279 -0.0240453 0)
(5.0949 -0.0338175 0)
(5.09685 -0.0430197 0)
(5.09786 -0.0516673 0)
(5.00087 0.272929 0)
(5.01315 0.227231 0)
(5.02307 0.186217 0)
(5.03327 0.151176 0)
(5.04493 0.121951 0)
(5.0567 0.0976178 0)
(5.06723 0.077072 0)
(5.07622 0.0594102 0)
(5.08402 0.0439808 0)
(5.09091 0.0303255 0)
(5.09708 0.0180757 0)
(5.10248 0.00693889 0)
(5.10716 -0.00333636 0)
(5.11099 -0.0128941 0)
(5.11424 -0.0218685 0)
(5.11667 -0.0302783 0)
(5.11881 -0.0382354 0)
(5.12005 -0.0456831 0)
(4.99806 0.26978 0)
(5.01224 0.216446 0)
(5.02644 0.171293 0)
(5.04214 0.134883 0)
(5.05901 0.105659 0)
(5.07505 0.08143 0)
(5.08896 0.0605387 0)
(5.10066 0.0421853 0)
(5.11062 0.0261034 0)
(5.11921 0.0121218 0)
(5.12667 -5.62469e-05 0)
(5.13299 -0.010806 0)
(5.13836 -0.0204798 0)
(5.14268 -0.0293295 0)
(5.14631 -0.0375283 0)
(5.14897 -0.0451592 0)
(5.15129 -0.0522959 0)
(5.15254 -0.0589498 0)
(5.01193 0.265425 0)
(5.03077 0.202452 0)
(5.05146 0.153367 0)
(5.07287 0.117346 0)
(5.09334 0.0908523 0)
(5.1112 0.0702007 0)
(5.12613 0.0529841 0)
(5.13889 0.038076 0)
(5.15019 0.025026 0)
(5.16021 0.0135504 0)
(5.16896 0.00334329 0)
(5.17632 -0.0058632 0)
(5.18249 -0.0142844 0)
(5.18745 -0.0220376 0)
(5.19158 -0.0292302 0)
(5.19467 -0.0358977 0)
(5.19732 -0.04216 0)
(5.19887 -0.048004 0)
(5.00191 0.2582 0)
(5.03028 0.184189 0)
(5.06247 0.130641 0)
(5.09356 0.093602 0)
(5.12054 0.0661945 0)
(5.14232 0.0437429 0)
(5.15967 0.0246527 0)
(5.17405 0.00881798 0)
(5.18643 -0.0039923 0)
(5.19708 -0.0144378 0)
(5.20605 -0.0232706 0)
(5.21338 -0.0310454 0)
(5.21937 -0.0380623 0)
(5.2241 -0.0444649 0)
(5.228 -0.0503424 0)
(5.23085 -0.0557772 0)
(5.23321 -0.0608446 0)
(5.2345 -0.0656033 0)
(5.00651 0.243969 0)
(5.04412 0.16216 0)
(5.08748 0.112082 0)
(5.12593 0.0837317 0)
(5.15588 0.0642821 0)
(5.17871 0.0470325 0)
(5.19748 0.0312945 0)
(5.21409 0.017821 0)
(5.22881 0.00671365 0)
(5.24125 -0.00260178 0)
(5.25138 -0.0107554 0)
(5.25943 -0.0180877 0)
(5.26594 -0.0247314 0)
(5.27112 -0.0307428 0)
(5.27538 -0.0362239 0)
(5.27856 -0.0412471 0)
(5.2812 -0.0459406 0)
(5.28278 -0.0503131 0)
(5.00747 0.226613 0)
(5.06145 0.125007 0)
(5.12278 0.0700415 0)
(5.17098 0.0414169 0)
(5.20358 0.0209355 0)
(5.2266 0.00306872 0)
(5.24566 -0.0112389 0)
(5.2627 -0.0215915 0)
(5.27757 -0.0292098 0)
(5.28982 -0.0355036 0)
(5.2996 -0.0411872 0)
(5.30731 -0.0464166 0)
(5.31353 -0.0511784 0)
(5.31845 -0.0555076 0)
(5.32244 -0.0594824 0)
(5.32536 -0.0631939 0)
(5.32773 -0.0666977 0)
(5.32906 -0.0700454 0)
(5.01356 0.209755 0)
(5.08911 0.110612 0)
(5.16838 0.0747319 0)
(5.22327 0.0580046 0)
(5.25679 0.0395955 0)
(5.28102 0.0212221 0)
(5.30264 0.00673539 0)
(5.32214 -0.00349015 0)
(5.33836 -0.0111572 0)
(5.35104 -0.0176602 0)
(5.36088 -0.0235096 0)
(5.36863 -0.0287826 0)
(5.37492 -0.0335167 0)
(5.3799 -0.0378059 0)
(5.3839 -0.0417661 0)
(5.3868 -0.0454693 0)
(5.38908 -0.048976 0)
(5.39036 -0.0522813 0)
(5.00669 0.15932 0)
(5.12115 0.0342865 0)
(5.21882 0.00591171 0)
(5.27368 -0.00400131 0)
(5.3038 -0.0183377 0)
(5.32762 -0.0308249 0)
(5.35029 -0.0386419 0)
(5.37062 -0.0435981 0)
(5.38717 -0.0476312 0)
(5.40006 -0.0514128 0)
(5.41021 -0.0549266 0)
(5.41838 -0.058106 0)
(5.42513 -0.0609696 0)
(5.43055 -0.0636088 0)
(5.43497 -0.066076 0)
(5.43825 -0.0684386 0)
(5.44093 -0.0707083 0)
(5.44255 -0.072932 0)
(5.01259 0.150755 0)
(5.17551 0.056404 0)
(5.29767 0.0426338 0)
(5.35577 0.0261244 0)
(5.38669 0.00684271 0)
(5.41337 -0.00683785 0)
(5.43852 -0.0149252 0)
(5.45999 -0.0205439 0)
(5.4769 -0.0254115 0)
(5.48987 -0.0298832 0)
(5.49988 -0.0338932 0)
(5.50764 -0.0374863 0)
(5.51357 -0.0407249 0)
(5.51787 -0.0437463 0)
(5.52072 -0.0465602 0)
(5.52223 -0.0492763 0)
(5.52267 -0.0518485 0)
(5.52197 -0.0543878 0)
(5.01435 0.0202681 0)
(5.22687 -0.0511156 0)
(5.352 -0.0342052 0)
(5.40407 -0.0428594 0)
(5.43241 -0.0531237 0)
(5.45435 -0.0578726 0)
(5.47045 -0.0597779 0)
(5.4792 -0.0611783 0)
(5.48066 -0.0626002 0)
(5.47612 -0.0639532 0)
(5.46679 -0.0651345 0)
(5.45379 -0.0661776 0)
(5.43757 -0.0670954 0)
(5.41893 -0.0679692 0)
(5.39775 -0.0687659 0)
(5.37509 -0.0695792 0)
(5.3502 -0.0703429 0)
(5.32492 -0.0712007 0)
(4.96746 0.0683997 0)
(5.10271 -0.0017053 0)
(5.073 -0.00172233 0)
(4.95729 -0.0119109 0)
(4.82845 -0.019423 0)
(4.70302 -0.0223253 0)
(4.5811 -0.0234136 0)
(4.46095 -0.0241224 0)
(4.34221 -0.0246598 0)
(4.22557 -0.0249914 0)
(4.11177 -0.0251341 0)
(4.00147 -0.0251485 0)
(3.89465 -0.025082 0)
(3.79166 -0.024986 0)
(3.6918 -0.024865 0)
(3.59593 -0.024762 0)
(3.5024 -0.0246447 0)
(3.41355 -0.0246005 0)
(0.00273565 -0.0174385 2.05614e-21)
(0.0249249 -0.039985 -2.04327e-21)
(0.059014 -0.0479847 0)
(0.0929721 -0.0493316 0)
(0.126515 -0.048174 0)
(0.158951 -0.0461784 1.97789e-21)
(0.190157 -0.0439395 0)
(0.220066 -0.0416302 0)
(0.248666 -0.039223 0)
(0.275797 -0.0366125 0)
(0.301132 -0.0336292 -1.87553e-21)
(0.324112 -0.0300789 0)
(0.343975 -0.0257492 0)
(0.359687 -0.0204434 0)
(0.37007 -0.0139802 0)
(0.373666 -0.00625667 -1.75831e-21)
(0.369108 0.00279867 0)
(0.354807 0.0131384 0)
(0.329785 0.0246661 0)
(0.292118 0.0371058 0)
(0.241138 0.0498464 0)
(0.176825 0.0620728 0)
(0.0999976 0.0727585 0)
(0.0125468 0.0805994 -1.63509e-21)
(-0.0832348 0.0845151 1.62572e-21)
(-0.18338 0.0833686 -1.61563e-21)
(-0.285793 0.0778022 -1.60429e-21)
(-0.384453 0.0685264 0)
(-0.475022 0.0578267 0)
(-0.563078 0.044894 1.5618e-21)
(-0.637859 0.0286423 1.54491e-21)
(-0.707459 0.0203569 0)
(-0.78866 0.0235961 0)
(-0.889919 0.0366813 1.48574e-21)
(-1.00696 0.0689382 0)
(-1.13782 0.107805 0)
(-1.27819 0.127903 -1.41743e-21)
(-1.41386 0.125613 0)
(-1.53715 0.11468 -1.36411e-21)
(-1.64731 0.102573 -2.67046e-21)
(-1.74363 0.0898801 0)
(-1.82559 0.0767858 0)
(-1.89294 0.0636226 0)
(-1.94558 0.0506772 0)
(-1.98366 0.038158 0)
(-2.00743 0.0262023 -2.37973e-21)
(-2.01731 0.0148886 -2.35318e-21)
(-2.01377 0.00427881 -2.33486e-21)
(-1.99739 -0.00558254 0)
(-1.96881 -0.0146313 2.32307e-21)
(-1.92877 -0.0228185 0)
(-1.8781 -0.0301027 -2.34244e-21)
(-1.81797 -0.0364658 -2.36227e-21)
(-1.7492 -0.0419216 0)
(-1.67292 -0.046476 0)
(-1.59023 -0.050181 0)
(-1.50221 -0.0530883 -2.48739e-21)
(-1.40979 -0.0552927 0)
(-1.31396 -0.056836 0)
(-1.21556 -0.0577941 0)
(-1.11539 -0.0582232 0)
(-1.01414 -0.0582084 0)
(-0.912451 -0.0578056 0)
(-0.810837 -0.0570869 0)
(-0.709758 -0.0561081 0)
(-0.609575 -0.0549431 2.79194e-21)
(-0.510559 -0.0536441 0)
(-0.412889 -0.0522746 0)
(-0.316652 -0.0508897 -2.85204e-21)
(-0.221854 -0.0495288 -2.86672e-21)
(-0.128463 -0.048217 0)
(-0.0364241 -0.0469546 2.88884e-21)
(0.054305 -0.0457285 -2.89656e-21)
(0.143734 -0.044522 0)
(0.23181 -0.0433122 2.9058e-21)
(0.318466 -0.0420805 0)
(0.403632 -0.0408317 0)
(0.487256 -0.0395656 -2.9051e-21)
(0.569306 -0.0382885 0)
(0.6497 -0.0369804 2.89562e-21)
(0.72832 -0.0356071 0)
(0.804957 -0.0341384 -2.87903e-21)
(0.879327 -0.0325376 -2.86796e-21)
(0.951117 -0.0307938 -2.85499e-21)
(1.02 -0.0289151 -5.68021e-21)
(1.0857 -0.02693 5.64675e-21)
(1.14799 -0.0248781 0)
(1.20672 -0.0228027 0)
(1.2618 -0.0207443 0)
(1.31323 -0.0187447 5.48158e-21)
(1.36106 -0.0168221 5.43424e-21)
(1.4054 -0.0149952 -5.3852e-21)
(1.44637 -0.0132755 0)
(1.48412 -0.0116634 5.28329e-21)
(1.51883 -0.0101558 5.23098e-21)
(1.55065 -0.00875506 5.17805e-21)
(1.57973 -0.0074589 0)
(1.60622 -0.00626446 0)
(1.63029 -0.0051683 0)
(1.65207 -0.00416655 4.96383e-21)
(1.67173 -0.00325506 0)
(1.68939 -0.00242942 0)
(1.70519 -0.00168507 -4.80384e-21)
(1.71928 -0.00101741 0)
(1.73176 -0.000421864 0)
(1.74277 0.000106097 -4.64661e-21)
(1.75242 0.000570912 0)
(1.76082 0.000976942 0)
(1.76807 0.00132853 4.49306e-21)
(1.77427 0.00162992 4.44278e-21)
(1.77951 0.00188526 0)
(1.78388 0.00209865 -4.34358e-21)
(1.78745 0.00227398 0)
(1.79031 0.00241487 4.24622e-21)
(1.79253 0.00252495 0)
(1.79416 0.00260721 4.15067e-21)
(1.79527 0.00266472 4.10355e-21)
(1.79591 0.00270039 0)
(1.79613 0.00271632 0)
(1.79598 0.00271586 0)
(1.7955 0.00269916 0)
(1.79473 0.00266378 0)
(1.79372 0.00261023 0)
(1.7925 0.0025413 0)
(1.79111 0.00245969 3.74154e-21)
(1.78958 0.00236779 -3.69803e-21)
(1.78795 0.00226814 0)
(1.78624 0.00216339 0)
(1.78447 0.00205604 0)
(1.78266 0.0019483 0)
(1.78083 0.00184203 -6.97151e-21)
(1.77898 0.00173873 0)
(1.77714 0.00163955 6.80637e-21)
(1.7753 0.00154534 -6.72475e-21)
(1.77347 0.00145658 0)
(1.77165 0.0013735 0)
(1.76984 0.00129608 0)
(1.76805 0.00122427 6.40433e-21)
(1.76628 0.00115797 6.32569e-21)
(1.76451 0.00109704 0)
(1.76276 0.00104132 6.17009e-21)
(1.76102 0.00099062 6.09312e-21)
(1.75929 0.000944773 -6.01668e-21)
(1.75756 0.000903605 0)
(1.75584 0.000866869 0)
(1.75412 0.000834268 -5.79053e-21)
(1.75241 0.000805535 0)
(1.75069 0.000780464 0)
(1.74898 0.000758886 0)
(1.74725 0.000740654 0)
(1.74552 0.000725598 5.42372e-21)
(1.74377 0.000713559 5.35182e-21)
(1.74201 0.000704352 0)
(1.74022 0.000697823 5.20945e-21)
(1.73841 0.00069385 0)
(1.73657 0.000692472 0)
(1.73469 0.000693777 4.99941e-21)
(1.73276 0.000698143 0)
(1.73078 0.000705907 4.86169e-21)
(1.72874 0.000717893 0)
(1.72661 0.000734734 0)
(1.7244 0.000757894 4.65859e-21)
(1.72205 0.000788574 0)
(1.71959 0.000828866 4.52557e-21)
(1.71689 0.000881805 0)
(1.71406 0.000948891 0)
(1.71078 0.00104008 0)
(1.70737 0.00114861 -4.26571e-21)
(1.70313 0.00131127 0)
(1.6988 0.00148024 4.13941e-21)
(1.6929 0.00179308 0)
(1.68696 0.00203436 0)
(1.67826 0.00271071 0)
(1.66905 0.0029685 0)
(1.65587 0.00466002 0)
(1.63842 0.0045569 0)
(1.61949 0.00951847 0)
(1.57635 0.00751074 -7.36976e-21)
(1.55596 0.0254497 0)
(1.41659 0.0194705 0)
(0.00220679 -0.0395664 -6.17073e-21)
(0.00813299 -0.0836912 6.13156e-21)
(0.0175521 -0.0952727 0)
(0.0253718 -0.0941674 -4.02417e-21)
(0.0331417 -0.0901149 0)
(0.0409446 -0.0858331 -1.97921e-21)
(0.0490915 -0.0819371 3.9171e-21)
(0.057507 -0.0782528 3.87768e-21)
(0.0660447 -0.0743497 0)
(0.0744023 -0.0697044 3.79281e-21)
(0.0821391 -0.0637418 1.87675e-21)
(0.0886581 -0.055862 0)
(0.0931032 -0.0454317 0)
(0.0944935 -0.0318547 0)
(0.0914717 -0.0146252 0)
(0.0827984 0.00654551 1.75944e-21)
(0.0668546 0.0316755 0)
(0.0425741 0.060357 -3.41241e-21)
(0.00829329 0.0917725 0)
(-0.0357335 0.12471 0)
(-0.0904953 0.157435 3.30893e-21)
(-0.156614 0.188269 0)
(-0.233914 0.215575 -3.26456e-21)
(-0.321444 0.238404 1.63624e-21)
(-0.41829 0.255234 -1.62688e-21)
(-0.52153 0.264299 1.61681e-21)
(-0.629763 0.265883 1.6055e-21)
(-0.738258 0.25442 0)
(-0.84755 0.240897 0)
(-0.953592 0.226275 -1.56305e-21)
(-1.06386 0.20804 1.51974e-21)
(-1.19928 0.222134 0)
(-1.34328 0.274725 0)
(-1.48573 0.313778 -1.48704e-21)
(-1.61589 0.32321 0)
(-1.72493 0.316105 0)
(-1.81873 0.297781 1.41882e-21)
(-1.90108 0.271566 0)
(-1.97298 0.241477 -1.30069e-21)
(-2.03429 0.209617 2.67295e-21)
(-2.08473 0.176967 0)
(-2.12414 0.144203 0)
(-2.15256 0.11183 4.89839e-21)
(-2.17003 0.0801778 4.80844e-21)
(-2.17669 0.049498 4.73094e-21)
(-2.17265 0.0199669 -2.28618e-21)
(-2.15805 -0.00826984 2.35485e-21)
(-2.13305 -0.0350725 6.92509e-21)
(-2.09796 -0.0603005 -4.57405e-21)
(-2.05312 -0.0837686 -2.32436e-21)
(-1.99901 -0.105313 0)
(-1.93616 -0.124773 2.34356e-21)
(-1.86498 -0.142051 -2.30768e-21)
(-1.78639 -0.157061 0)
(-1.70111 -0.169777 0)
(-1.61 -0.180235 0)
(-1.51389 -0.1885 2.48823e-21)
(-1.41376 -0.194719 0)
(-1.31044 -0.199026 -5.10094e-21)
(-1.2048 -0.201615 0)
(-1.09758 -0.202684 -5.25674e-21)
(-0.989458 -0.202441 0)
(-0.881011 -0.20109 5.39866e-21)
(-0.772735 -0.198828 0)
(-0.665065 -0.195835 -5.5204e-21)
(-0.558352 -0.192298 2.78026e-21)
(-0.452832 -0.188376 0)
(-0.348681 -0.184251 5.65937e-21)
(-0.245954 -0.18007 2.85238e-21)
(-0.144622 -0.175966 2.86703e-21)
(-0.0446092 -0.172004 0)
(0.0541781 -0.168205 2.87894e-21)
(0.151799 -0.164518 2.89681e-21)
(0.248269 -0.160874 0)
(0.343531 -0.157196 -2.90601e-21)
(0.437491 -0.153433 5.80615e-21)
(0.530058 -0.149605 0)
(0.621182 -0.145726 2.90525e-21)
(0.710855 -0.141818 0)
(0.799036 -0.137823 -8.67981e-21)
(0.885623 -0.133642 0)
(0.970409 -0.129149 8.63136e-21)
(1.05309 -0.124246 2.86805e-21)
(1.13332 -0.11888 -2.85049e-21)
(1.21073 -0.113082 -5.67244e-21)
(1.285 -0.106936 5.63999e-21)
(1.35592 -0.100565 0)
(1.42335 -0.0941167 0)
(1.48719 -0.0877122 0)
(1.54747 -0.0814621 -1.64405e-20)
(1.60426 -0.0754393 -5.43425e-21)
(1.65768 -0.0696905 5.38519e-21)
(1.70786 -0.064241 0)
(1.75496 -0.0590979 5.28025e-21)
(1.79915 -0.0542529 -5.23092e-21)
(1.84058 -0.0497079 -5.17799e-21)
(1.8794 -0.0454554 0)
(1.91574 -0.0414862 0)
(1.94976 -0.0377898 0)
(1.9816 -0.0343547 -4.96372e-21)
(2.01138 -0.031169 0)
(2.03925 -0.0282201 9.71205e-21)
(2.06531 -0.0254956 1.44097e-20)
(2.0897 -0.0229829 -9.5005e-21)
(2.11251 -0.0206697 0)
(2.13385 -0.0185441 -4.6453e-21)
(2.15382 -0.0165945 0)
(2.1725 -0.0148101 -9.08627e-21)
(2.18999 -0.0131802 4.49197e-21)
(2.20636 -0.0116947 4.44174e-21)
(2.2217 -0.0103438 0)
(2.23607 -0.00911785 1.30294e-20)
(2.24954 -0.00800759 -8.58825e-21)
(2.26218 -0.00700386 -4.24599e-21)
(2.27404 -0.0060977 0)
(2.28519 -0.00528057 -4.15043e-21)
(2.29566 -0.00454434 -1.23095e-20)
(2.3055 -0.00388136 0)
(2.31475 -0.00328509 -8.02034e-21)
(2.32346 -0.00274926 -7.92868e-21)
(2.33164 -0.00226978 -7.83785e-21)
(2.33934 -0.0018445 0)
(2.34656 -0.00147042 0)
(2.35334 -0.00114356 0)
(2.35968 -0.000859969 3.74106e-21)
(2.36562 -0.000615995 3.69774e-21)
(2.37116 -0.000408009 0)
(2.37632 -0.000232121 7.22345e-21)
(2.38113 -8.44197e-05 7.13857e-21)
(2.38561 3.88596e-05 0)
(2.38975 0.000141264 6.97091e-21)
(2.3936 0.000226107 1.37759e-20)
(2.39715 0.000296317 -6.80577e-21)
(2.40043 0.000354489 -6.72404e-21)
(2.40346 0.000402905 0)
(2.40623 0.000443431 0)
(2.40878 0.000477493 0)
(2.41111 0.00050622 -6.40374e-21)
(2.41323 0.000530715 6.32504e-21)
(2.41515 0.000552027 1.2494e-20)
(2.41688 0.000570841 -6.16951e-21)
(2.41844 0.000587359 6.09249e-21)
(2.41983 0.00060148 6.0161e-21)
(2.42107 0.000613196 0)
(2.42216 0.000622739 0)
(2.42311 0.000630642 -5.78993e-21)
(2.42393 0.000637438 0)
(2.42463 0.00064367 0)
(2.42522 0.000649828 1.11368e-20)
(2.4257 0.000656468 0)
(2.42607 0.000664061 5.42315e-21)
(2.42636 0.000673115 -5.35129e-21)
(2.42655 0.000684003 0)
(2.42666 0.000697138 5.20889e-21)
(2.42668 0.000712958 0)
(2.42663 0.00073205 0)
(2.42649 0.000755128 -4.9989e-21)
(2.42628 0.000783176 9.85958e-21)
(2.42598 0.000817583 -4.8612e-21)
(2.4256 0.000859751 0)
(2.42513 0.000912468 0)
(2.42456 0.000977058 4.65801e-21)
(2.42386 0.00105996 0)
(2.42306 0.00116004 4.52495e-21)
(2.42207 0.00129425 0)
(2.42093 0.00144973 0)
(2.41952 0.00167528 0)
(2.41788 0.00191453 4.26525e-21)
(2.41581 0.00231415 0)
(2.41337 0.00267121 -4.13896e-21)
(2.41026 0.00343259 0)
(2.40639 0.00392532 0)
(2.40166 0.0055141 7.91033e-21)
(2.39493 0.00606141 -7.79239e-21)
(2.38779 0.00973906 0)
(2.37457 0.00993134 0)
(2.36441 0.0195142 0)
(2.33476 0.0184571 2.20889e-20)
(2.32359 0.0477083 0)
(2.25274 0.0480103 -1.43538e-20)
(0.000670844 -0.0376247 2.60509e-24)
(-0.0117966 -0.0755438 -8.17533e-21)
(-0.0232228 -0.083239 0)
(-0.0362536 -0.0816589 8.04921e-21)
(-0.0481626 -0.079911 0)
(-0.0591563 -0.0786545 0)
(-0.0690547 -0.0775708 -3.95441e-24)
(-0.0782085 -0.076071 -3.87979e-21)
(-0.0868535 -0.0735412 -3.83371e-21)
(-0.0953356 -0.0692846 -3.79486e-21)
(-0.10403 -0.062501 0)
(-0.113421 -0.0523015 0)
(-0.124213 -0.0376883 3.6438e-21)
(-0.137287 -0.0177173 7.18344e-21)
(-0.153828 0.00837666 -7.07802e-21)
(-0.175058 0.0409107 0)
(-0.202562 0.0797599 -6.873e-21)
(-0.237562 0.124087 3.41404e-21)
(-0.281608 0.172655 0)
(-0.334993 0.223701 -6.62041e-21)
(-0.39844 0.275149 -3.31057e-21)
(-0.471816 0.324534 6.50769e-21)
(-0.554118 0.369063 3.26625e-21)
(-0.643407 0.406215 0)
(-0.738185 0.433861 -6.39336e-21)
(-0.837515 0.44936 -6.35585e-21)
(-0.939954 0.451583 0)
(-1.04523 0.444794 -6.26061e-21)
(-1.15196 0.423713 0)
(-1.26283 0.405249 -6.12154e-21)
(-1.39199 0.43898 -3.06767e-21)
(-1.52887 0.480602 0)
(-1.64572 0.49178 0)
(-1.74279 0.485482 0)
(-1.82618 0.467405 0)
(-1.89731 0.441517 0)
(-1.95938 0.407977 0)
(-2.01376 0.368465 -5.27547e-21)
(-2.0616 0.325135 7.82789e-21)
(-2.10297 0.279684 0)
(-2.1376 0.233226 0)
(-2.16489 0.186477 0)
(-2.18423 0.139951 -1.60213e-22)
(-2.19496 0.0940172 -4.8101e-21)
(-2.19655 0.0489955 -9.31671e-21)
(-2.18857 0.00515783 9.19629e-21)
(-2.17072 -0.0372156 4.48587e-21)
(-2.14284 -0.0778428 -4.58986e-21)
(-2.10493 -0.116426 1.21664e-22)
(-2.05718 -0.152654 -4.46254e-21)
(-1.99995 -0.186226 0)
(-1.9338 -0.21687 -4.52786e-21)
(-1.85943 -0.244323 9.05207e-23)
(-1.77765 -0.268362 0)
(-1.68941 -0.288835 0)
(-1.59564 -0.305673 4.79966e-21)
(-1.49732 -0.318924 0)
(-1.3954 -0.328741 0)
(-1.29074 -0.335384 -5.01245e-21)
(-1.18416 -0.339176 -1.02832e-20)
(-1.07636 -0.340471 5.25717e-21)
(-0.967977 -0.339623 0)
(-0.859532 -0.336976 -5.39901e-21)
(-0.751471 -0.332867 0)
(-0.644205 -0.327595 -5.47682e-21)
(-0.538061 -0.321442 -5.57287e-21)
(-0.433291 -0.314689 1.12001e-20)
(-0.330072 -0.307627 5.62295e-21)
(-0.228438 -0.300524 0)
(-0.128308 -0.293625 -1.14122e-20)
(-0.0295203 -0.287061 0)
(0.0681041 -0.280848 -1.72696e-20)
(0.164713 -0.274879 -1.15332e-20)
(0.260347 -0.26898 -1.15569e-20)
(0.354925 -0.262997 1.15728e-20)
(0.448276 -0.256842 -1.73872e-20)
(0.540245 -0.250547 0)
(0.63078 -0.24419 0)
(0.719926 -0.237838 1.15619e-20)
(0.807729 -0.231407 1.73263e-20)
(0.894146 -0.224703 0)
(0.978961 -0.217459 -5.75215e-21)
(1.06181 -0.209476 0)
(1.14224 -0.200656 1.71004e-20)
(1.21978 -0.191052 1.38137e-23)
(1.29407 -0.180831 -1.1996e-23)
(1.36482 -0.170231 -1.12031e-20)
(1.43192 -0.159523 0)
(1.49533 -0.148934 1.10405e-20)
(1.5551 -0.138643 7.57961e-24)
(1.61138 -0.128765 0)
(1.6643 -0.119376 0)
(1.71405 -0.1105 0)
(1.76082 -0.102142 -1.05633e-20)
(1.80477 -0.0942944 0)
(1.84606 -0.0869503 0)
(1.88484 -0.0800945 0)
(1.92127 -0.0737092 0)
(1.9555 -0.0677749 0)
(1.98767 -0.0622708 -9.92237e-21)
(2.01792 -0.0571745 0)
(2.04638 -0.0524627 -9.71195e-21)
(2.07318 -0.0481121 -9.60587e-21)
(2.09844 -0.0440993 9.50041e-21)
(2.12227 -0.040402 0)
(2.14476 -0.0369991 9.29167e-21)
(2.16602 -0.0338708 0)
(2.18613 -0.0309989 9.0862e-21)
(2.20516 -0.0283661 -8.98478e-21)
(2.22318 -0.0259564 -2.665e-20)
(2.24027 -0.0237542 0)
(2.25647 -0.0217444 -2.60555e-20)
(2.27186 -0.0199123 -8.58604e-21)
(2.28648 -0.0182436 0)
(2.30038 -0.016724 -1.67889e-20)
(2.31361 -0.0153398 -1.65989e-20)
(2.32621 -0.014078 2.46167e-20)
(2.33823 -0.0129266 0)
(2.34968 -0.0118747 8.02026e-21)
(2.36061 -0.0109128 7.9286e-21)
(2.37104 -0.0100322 2.35123e-20)
(2.38098 -0.00922451 0)
(2.39046 -0.00848331 0)
(2.39949 -0.00780304 0)
(2.40809 -0.00717846 7.4816e-21)
(2.41627 -0.00660485 0)
(2.42404 -0.00607789 0)
(2.43142 -0.0055935 -7.22335e-21)
(2.43842 -0.00514783 -7.13846e-21)
(2.44505 -0.00473715 0)
(2.45132 -0.00435792 0)
(2.45725 -0.00400696 -1.37757e-20)
(2.46285 -0.00368139 0)
(2.46814 -0.00337859 1.34479e-20)
(2.47312 -0.00309626 1.32858e-20)
(2.47781 -0.00283245 0)
(2.48221 -0.00258557 0)
(2.48635 -0.00235423 -1.2807e-20)
(2.49023 -0.00213714 -9.42256e-26)
(2.49386 -0.00193312 -8.25247e-26)
(2.49725 -0.0017413 0)
(2.50042 -0.00156111 -2.43694e-20)
(2.50336 -0.00139219 0)
(2.5061 -0.00123426 0)
(2.50864 -0.00108691 0)
(2.51099 -0.000949518 1.15796e-20)
(2.51315 -0.000821371 0)
(2.51514 -0.000701663 -2.25664e-20)
(2.51696 -0.000589544 -1.11365e-20)
(2.51862 -0.000484218 0)
(2.52014 -0.000384873 -1.0846e-20)
(2.52151 -0.000290737 0)
(2.52275 -0.000200892 0)
(2.52386 -0.000114377 -3.12525e-20)
(2.52485 -3.00279e-05 2.05531e-20)
(2.52572 5.33623e-05 0)
(2.52649 0.000137532 1.99948e-20)
(2.52715 0.000223973 -9.85929e-21)
(2.52771 0.000315615 0)
(2.52816 0.000414024 0)
(2.52852 0.000524802 0)
(2.52876 0.00064838 -2.79473e-20)
(2.52889 0.000797047 0)
(2.52889 0.000965759 -9.04977e-21)
(2.52876 0.00118432 0)
(2.52846 0.00142797 0)
(2.528 0.00177441 0)
(2.52725 0.00213637 0)
(2.52632 0.00272468 0)
(2.52489 0.00326459 0)
(2.52325 0.00433786 -1.63039e-20)
(2.52064 0.00512689 0)
(2.51793 0.00724448 -7.91008e-21)
(2.51318 0.00834732 2.33717e-20)
(2.50879 0.012902 0)
(2.49991 0.0144253 0)
(2.49298 0.0252447 -1.49066e-20)
(2.47628 0.028207 -1.47197e-20)
(2.46651 0.0567419 1.44999e-20)
(2.43931 0.0674115 1.43538e-20)
(-0.00284887 -0.0137146 1.23392e-20)
(-0.0284771 -0.0352352 1.2259e-20)
(-0.0525385 -0.0408286 8.10873e-21)
(-0.0781272 -0.040401 4.01886e-21)
(-0.10268 -0.0407643 0)
(-0.126983 -0.0413099 -7.9045e-21)
(-0.150845 -0.0415769 3.91162e-21)
(-0.174552 -0.0410415 0)
(-0.198155 -0.0391534 3.83592e-21)
(-0.221843 -0.035138 0)
(-0.245874 -0.0279773 -7.482e-21)
(-0.2706 -0.0164661 0)
(-0.296527 0.000721801 -3.64587e-21)
(-0.324409 0.0249882 -7.18746e-21)
(-0.355351 0.0575937 7.08195e-21)
(-0.390369 0.0993709 0)
(-0.430912 0.150441 6.8767e-21)
(-0.477595 0.209635 0)
(-0.532033 0.274949 0)
(-0.593539 0.342812 6.62406e-21)
(-0.662178 0.409504 0)
(-0.737665 0.471305 -6.13375e-23)
(-0.818826 0.524912 0)
(-0.904059 0.567743 0)
(-0.991977 0.598327 7.94426e-23)
(-1.08217 0.617069 6.35955e-21)
(-1.17438 0.623626 6.21903e-21)
(-1.26704 0.615727 6.26433e-21)
(-1.36562 0.609458 0)
(-1.48356 0.631339 1.21198e-20)
(-1.59634 0.64997 0)
(-1.69076 0.647073 5.79021e-21)
(-1.77183 0.630726 0)
(-1.84319 0.605649 0)
(-1.9073 0.572979 -5.4407e-21)
(-1.96548 0.534378 0)
(-2.01844 0.490284 5.19714e-21)
(-2.06609 0.441713 2.02175e-22)
(-2.10797 0.38937 -1.01196e-20)
(-2.14343 0.334129 9.68266e-21)
(-2.17174 0.27671 0)
(-2.19221 0.217832 0)
(-2.20424 0.158166 4.33422e-21)
(-2.20729 0.0983406 0)
(-2.20104 0.0389499 4.58578e-21)
(-2.18524 -0.019477 -4.52856e-21)
(-2.15977 -0.076423 -4.48708e-21)
(-2.1246 -0.131382 0)
(-2.07982 -0.183855 4.45432e-21)
(-2.02566 -0.233362 4.46326e-21)
(-1.96256 -0.279405 -8.68418e-21)
(-1.89111 -0.321418 4.52838e-21)
(-1.81199 -0.358922 4.58163e-21)
(-1.72603 -0.391533 0)
(-1.63425 -0.418974 0)
(-1.53771 -0.441187 -4.80004e-21)
(-1.43748 -0.458334 0)
(-1.33458 -0.470717 0)
(-1.22986 -0.478767 1.01145e-20)
(-1.12404 -0.482973 1.02838e-20)
(-1.01767 -0.483841 0)
(-0.911184 -0.48188 0)
(-0.80493 -0.477551 0)
(-0.699185 -0.471279 0)
(-0.594224 -0.463461 1.09979e-20)
(-0.490336 -0.454441 -1.10508e-20)
(-0.387802 -0.444615 -1.12004e-20)
(-0.286861 -0.434377 -2.25156e-20)