/*--------------------------------*- C++ -*----------------------------------*\
  =========                 |
  \\      /  F ield         | OpenFOAM: The Open Source CFD Toolbox
   \\    /   O peration     | Website:  https://openfoam.org
    \\  /    A nd           | Version:  7
     \\/     M anipulation  |
\*---------------------------------------------------------------------------*/
FoamFile
{
    version     2.0;
    format      ascii;
    class       volScalarField;
    location    "0.02";
    object      k_0;
}
// * * * * * * * * * * * * * * * * * * * * * * * * * * * * * * * * * * * * * //

dimensions      [0 2 -2 0 0 0 0];

internalField   nonuniform List<scalar> 
12225
(
1.93752e-05
1.79905e-05
1.68242e-05
1.5258e-05
1.38806e-05
1.25712e-05
1.49945e-05
1.23438e-05
9.35908e-06
8.23739e-06
7.12552e-06
6.27502e-06
5.92844e-06
5.89478e-06
5.90993e-06
5.90244e-06
5.60809e-06
1.06957e-05
1.9982e-05
1.98783e-05
1.96648e-05
1.94508e-05
1.89256e-05
1.8804e-05
1.99459e-05
1.99962e-05
1.86164e-05
1.73255e-05
1.66163e-05
1.6192e-05
1.57049e-05
1.54817e-05
1.51727e-05
1.50349e-05
1.46857e-05
1.46488e-05
1.99984e-05
1.90753e-05
1.89976e-05
1.90618e-05
1.90717e-05
1.91204e-05
1.93907e-05
1.94448e-05
1.92743e-05
1.88555e-05
1.85403e-05
1.8327e-05
1.81815e-05
1.80617e-05
1.79991e-05
1.78817e-05
1.78104e-05
1.76464e-05
2.00383e-05
1.99043e-05
1.95445e-05
1.78658e-05
1.73013e-05
1.73915e-05
1.76621e-05
1.80564e-05
1.82304e-05
1.82441e-05
1.82155e-05
1.81016e-05
1.794e-05
1.77691e-05
1.76192e-05
1.74576e-05
1.73371e-05
1.71868e-05
2.0767e-05
2.12966e-05
2.15863e-05
2.13622e-05
2.04142e-05
1.89045e-05
1.83473e-05
1.83838e-05
1.86759e-05
1.89314e-05
1.89788e-05
1.89292e-05
1.86244e-05
1.7941e-05
1.74374e-05
1.71341e-05
1.70132e-05
1.69573e-05
2.07591e-05
2.09023e-05
2.09733e-05
2.10038e-05
2.09447e-05
2.07186e-05
2.05334e-05
2.05539e-05
2.10159e-05
2.20194e-05
2.25794e-05
2.27644e-05
2.27405e-05
2.2446e-05
2.14837e-05
2.06107e-05
2.01942e-05
1.99516e-05
2.0292e-05
2.03736e-05
2.085e-05
2.1272e-05
2.12429e-05
2.10305e-05
2.09476e-05
2.09996e-05
2.12957e-05
2.23835e-05
2.44342e-05
2.59371e-05
2.66402e-05
2.67578e-05
2.66594e-05
2.60631e-05
2.44325e-05
2.31611e-05
2.00705e-05
2.0128e-05
2.06124e-05
2.21654e-05
2.24231e-05
2.23194e-05
2.19087e-05
2.15098e-05
2.13649e-05
2.14131e-05
2.20016e-05
2.38114e-05
2.5086e-05
2.55461e-05
2.55904e-05
2.54597e-05
2.47565e-05
2.36347e-05
2.03063e-05
2.04059e-05
2.10158e-05
2.21011e-05
2.2262e-05
2.22115e-05
2.21488e-05
2.20178e-05
2.15678e-05
2.14236e-05
2.16028e-05
2.2584e-05
2.35792e-05
2.3894e-05
2.39026e-05
2.37742e-05
2.31364e-05
2.24067e-05
2.04423e-05
2.07205e-05
2.15521e-05
2.16892e-05
2.15699e-05
2.13673e-05
2.13972e-05
2.15922e-05
2.16218e-05
2.15193e-05
2.12737e-05
2.12148e-05
2.12166e-05
2.12304e-05
2.12361e-05
2.12261e-05
2.11515e-05
2.107e-05
2.02322e-05
2.15972e-05
2.56183e-05
2.56457e-05
2.39876e-05
2.25685e-05
2.23358e-05
2.24261e-05
2.25579e-05
2.25303e-05
2.23195e-05
2.19062e-05
2.16591e-05
2.15374e-05
2.14806e-05
2.1446e-05
2.14207e-05
2.14003e-05
2.01208e-05
2.16675e-05
2.32131e-05
2.33165e-05
2.28473e-05
2.26459e-05
2.2934e-05
2.3353e-05
2.34038e-05
2.33531e-05
2.31792e-05
2.27141e-05
2.22054e-05
2.18623e-05
2.1653e-05
2.15452e-05
2.14815e-05
2.14533e-05
2.08973e-05
2.29134e-05
2.40991e-05
2.38111e-05
2.25998e-05
2.23912e-05
2.27596e-05
2.31303e-05
2.31967e-05
2.3118e-05
2.26834e-05
2.21512e-05
2.18293e-05
2.16511e-05
2.1565e-05
2.14967e-05
2.13424e-05
2.11425e-05
2.17055e-05
2.18578e-05
2.13858e-05
2.11146e-05
2.11565e-05
2.12944e-05
2.13525e-05
2.13637e-05
2.13821e-05
2.1388e-05
2.13999e-05
2.14958e-05
2.1575e-05
2.15799e-05
2.15503e-05
2.13898e-05
2.11662e-05
2.10852e-05
2.07748e-05
2.12781e-05
2.11817e-05
2.08717e-05
2.07704e-05
2.07728e-05
2.07989e-05
2.07954e-05
2.07799e-05
2.07822e-05
2.08227e-05
2.09067e-05
2.09373e-05
2.09374e-05
2.09115e-05
2.08217e-05
2.07086e-05
2.06417e-05
2.07675e-05
2.10709e-05
2.07631e-05
2.03656e-05
2.03763e-05
2.04163e-05
2.03964e-05
2.04919e-05
2.06572e-05
2.07287e-05
2.07486e-05
2.07506e-05
2.07396e-05
2.06827e-05
2.0587e-05
2.05047e-05
2.04398e-05
2.03906e-05
2.01158e-05
2.06179e-05
2.07053e-05
2.06479e-05
2.05554e-05
2.05108e-05
2.05048e-05
2.05204e-05
2.06105e-05
2.07299e-05
2.07991e-05
2.08335e-05
2.08475e-05
2.08501e-05
2.08476e-05
2.08339e-05
2.07801e-05
2.06809e-05
2.01937e-05
2.0297e-05
2.07624e-05
2.10221e-05
2.10829e-05
2.10661e-05
2.09626e-05
2.08713e-05
2.08558e-05
2.08592e-05
2.08598e-05
2.08497e-05
2.08143e-05
2.0754e-05
2.06778e-05
2.06068e-05
2.05665e-05
2.05582e-05
2.06491e-05
2.06271e-05
2.05317e-05
2.05659e-05
2.06213e-05
2.06348e-05
2.06525e-05
2.0673e-05
2.06811e-05
2.06795e-05
2.06594e-05
2.05655e-05
2.04083e-05
2.0316e-05
2.02808e-05
2.02775e-05
2.02878e-05
2.03306e-05
2.04669e-05
2.10038e-05
2.10731e-05
2.10466e-05
2.1052e-05
2.10623e-05
2.10372e-05
2.08719e-05
2.05713e-05
2.03886e-05
2.03053e-05
2.02861e-05
2.02938e-05
2.03709e-05
2.04748e-05
2.04847e-05
2.04384e-05
2.03355e-05
2.01053e-05
2.11831e-05
2.17478e-05
2.17315e-05
2.13381e-05
2.08859e-05
2.06715e-05
2.05782e-05
2.0542e-05
2.05116e-05
2.04428e-05
2.03406e-05
2.02679e-05
2.02373e-05
2.02349e-05
2.02611e-05
2.02989e-05
2.02935e-05
2.05042e-05
2.07894e-05
2.07818e-05
2.05679e-05
2.03699e-05
2.03318e-05
2.03585e-05
2.04202e-05
2.04372e-05
2.04336e-05
2.03991e-05
2.0309e-05
2.02384e-05
2.01892e-05
2.01584e-05
2.01469e-05
2.01487e-05
2.01687e-05
2.20262e-05
2.09605e-05
2.02151e-05
2.01206e-05
2.01305e-05
2.02134e-05
2.03018e-05
2.03308e-05
2.03323e-05
2.03174e-05
2.02584e-05
2.02195e-05
2.02144e-05
2.02286e-05
2.03069e-05
2.04132e-05
2.04705e-05
2.04985e-05
2.02827e-05
2.01119e-05
2.01151e-05
2.01244e-05
2.0112e-05
2.00972e-05
2.00955e-05
2.01155e-05
2.02674e-05
2.04019e-05
2.03961e-05
2.02949e-05
2.01939e-05
2.0163e-05
2.01585e-05
2.01597e-05
2.01666e-05
2.01734e-05
2.0015e-05
2.01781e-05
2.03644e-05
2.03665e-05
2.01848e-05
2.00925e-05
2.00973e-05
2.01684e-05
2.02731e-05
2.02755e-05
2.02469e-05
2.02304e-05
2.02131e-05
2.0191e-05
2.0168e-05
2.01506e-05
2.01417e-05
2.01411e-05
2.01543e-05
2.10679e-05
2.12824e-05
2.10478e-05
2.09605e-05
2.10108e-05
2.0925e-05
2.06836e-05
2.06328e-05
2.06359e-05
2.06464e-05
2.06455e-05
2.06306e-05
2.05706e-05
2.03717e-05
2.00146e-05
1.9674e-05
1.95264e-05
2.00723e-05
2.02271e-05
2.02195e-05
2.01156e-05
1.99749e-05
1.97391e-05
1.94261e-05
1.91778e-05
1.90648e-05
1.90629e-05
1.91092e-05
1.92307e-05
1.92819e-05
1.92068e-05
1.87799e-05
1.72202e-05
1.51952e-05
1.40923e-05
2.02149e-05
1.88901e-05
1.72564e-05
1.7455e-05
1.79608e-05
1.92983e-05
2.31258e-05
2.78207e-05
3.0923e-05
3.4076e-05
4.09642e-05
4.98369e-05
6.07122e-05
6.83655e-05
7.55496e-05
7.97577e-05
8.55789e-05
9.07942e-05
3.08656e-05
0.000115889
0.000193517
0.00021537
0.000228589
0.00026145
0.00031981
0.000354674
0.000370466
0.000386874
0.000422804
0.000483362
0.000540342
0.000580795
0.00060573
0.000615785
0.00061652
0.000615592
0.00245312
0.00233025
0.00228317
0.00218687
0.00203434
0.00189854
0.00178655
0.00171435
0.00167956
0.00166641
0.00165831
0.00164334
0.001604
0.00150258
0.00138553
0.00127837
0.00118343
0.00110958
6.58624e-07
4.14934e-06
1.45938e-05
3.47488e-05
6.11979e-05
8.82093e-05
0.000113276
0.000136191
0.000157513
0.000177934
0.000197784
0.000217375
0.00023676
0.000255817
0.000274999
0.000294173
0.000313397
0.000330784
0.000342576
0.000348081
0.000347374
0.000338085
0.000321073
0.00029634
0.000265642
0.000231229
0.000195225
0.000160341
0.000126257
9.23511e-05
6.75051e-05
5.06163e-05
3.14523e-05
2.26616e-05
1.65612e-05
1.33097e-05
1.21021e-05
1.30225e-05
1.33838e-05
1.37163e-05
1.38911e-05
1.39559e-05
1.39298e-05
1.37681e-05
1.34663e-05
1.30215e-05
1.26063e-05
1.20928e-05
1.13894e-05
1.08225e-05
9.9717e-06
9.21583e-06
8.44168e-06
7.66599e-06
6.83833e-06
6.02339e-06
5.20677e-06
4.42393e-06
3.71091e-06
3.02562e-06
2.40448e-06
1.85352e-06
1.43227e-06
1.13552e-06
9.22511e-07
7.58644e-07
6.27213e-07
5.17594e-07
4.24984e-07
3.46776e-07
2.81121e-07
2.26391e-07
1.80983e-07
1.43499e-07
1.12851e-07
8.80504e-08
6.81011e-08
5.21321e-08
3.94641e-08
2.95442e-08
2.18882e-08
1.60621e-08
1.16847e-08
8.43184e-09
6.03782e-09
4.29118e-09
3.02724e-09
2.11981e-09
1.47341e-09
1.01652e-09
6.96091e-10
4.73127e-10
3.19194e-10
2.13752e-10
1.42091e-10
9.37681e-11
6.14352e-11
3.99678e-11
2.58232e-11
1.65741e-11
1.05712e-11
6.70367e-12
4.22922e-12
2.65615e-12
1.66174e-12
1.03608e-12
6.43966e-13
3.99055e-13
2.46355e-13
1.51914e-13
9.35457e-14
5.74703e-14
3.52105e-14
2.15169e-14
1.31255e-14
8.01027e-15
4.90713e-15
3.02994e-15
1.89607e-15
1.21206e-15
8.00357e-16
5.53613e-16
4.06851e-16
3.2067e-16
2.71147e-16
2.43769e-16
2.2975e-16
2.23708e-16
2.22071e-16
2.22045e-16
2.22045e-16
2.22045e-16
2.22045e-16
2.22045e-16
2.22045e-16
2.22045e-16
2.22045e-16
2.22045e-16
2.22045e-16
2.22045e-16
2.22045e-16
2.22045e-16
2.22045e-16
2.22045e-16
2.22045e-16
2.22045e-16
2.22045e-16
2.22045e-16
2.22045e-16
2.22045e-16
2.22045e-16
2.22045e-16
2.22045e-16
2.22045e-16
2.22045e-16
2.22045e-16
2.22045e-16
2.22045e-16
2.22045e-16
2.22045e-16
2.22045e-16
2.22045e-16
2.22045e-16
2.22045e-16
2.22045e-16
2.22045e-16
2.22045e-16
2.22045e-16
2.22045e-16
2.22045e-16
2.22045e-16
2.22045e-16
2.22105e-16
2.45487e-16
4.17329e-16
1.36714e-15
6.59162e-15
2.6176e-13
1.36689e-10
7.8739e-08
1.37968e-06
7.25577e-06
2.15399e-05
4.25795e-05
6.40268e-05
8.4521e-05
0.000103772
0.000119516
0.000130192
0.000136874
0.000140681
0.000142589
0.000143301
0.000142396
0.000140311
0.000137059
0.000132492
0.000126589
0.000119232
0.000110827
0.000101663
9.23046e-05
8.30614e-05
7.43604e-05
6.68871e-05
6.09324e-05
5.64012e-05
5.3259e-05
5.13833e-05
5.06928e-05
5.11728e-05
5.29804e-05
5.45198e-05
5.78246e-05
6.07899e-05
6.33873e-05
6.58633e-05
6.77036e-05
6.92368e-05
6.99539e-05
7.02434e-05
7.0152e-05
6.94457e-05
6.85618e-05
6.66153e-05
6.45071e-05
6.30227e-05
6.04057e-05
5.73912e-05
5.57214e-05
5.20015e-05
4.96656e-05
4.67331e-05
4.41149e-05
4.12885e-05
3.8141e-05
3.47052e-05
3.11314e-05
2.76886e-05
2.42239e-05
2.11658e-05
1.69025e-05
1.24362e-05
9.03218e-06
7.01602e-06
5.62077e-06
4.65808e-06
3.91467e-06
3.28722e-06
2.74795e-06
2.28505e-06
1.89028e-06
1.55479e-06
1.26983e-06
1.02963e-06
8.29718e-07
6.63845e-07
5.25937e-07
4.12243e-07
3.19979e-07
2.46245e-07
1.88091e-07
1.42721e-07
1.07632e-07
8.06861e-08
6.01204e-08
4.45158e-08
3.27458e-08
2.39234e-08
1.73539e-08
1.2496e-08
8.92983e-09
6.33181e-09
4.45401e-09
3.10778e-09
2.15069e-09
1.47603e-09
1.00459e-09
6.78036e-10
4.53842e-10
3.01307e-10
1.98472e-10
1.29775e-10
8.42929e-11
5.44302e-11
3.49671e-11
2.23605e-11
1.42367e-11
9.02535e-12
5.69538e-12
3.57637e-12
2.23374e-12
1.38717e-12
8.56376e-13
5.25446e-13
3.20862e-13
1.9547e-13
1.18893e-13
7.22325e-14
4.38433e-14
2.65931e-14
1.61294e-14
9.79768e-15
5.97797e-15
3.68089e-15
2.30295e-15
1.47733e-15
9.82371e-16
6.85102e-16
5.05945e-16
3.97419e-16
3.31276e-16
2.90692e-16
2.65617e-16
2.50012e-16
2.40225e-16
2.34031e-16
2.30067e-16
2.27498e-16
2.25811e-16
2.24685e-16
2.23921e-16
2.23392e-16
2.2302e-16
2.22757e-16
2.22568e-16
2.22432e-16
2.22332e-16
2.22256e-16
2.22198e-16
2.22153e-16
2.2212e-16
2.22096e-16
2.22079e-16
2.22068e-16
2.22061e-16
2.22056e-16
2.22052e-16
2.2205e-16
2.22049e-16
2.22048e-16
2.22047e-16
2.22047e-16
2.22046e-16
2.22046e-16
2.22046e-16
2.22046e-16
2.22046e-16
2.22045e-16
2.22045e-16
2.22045e-16
2.22048e-16
2.22113e-16
2.2287e-16
2.28804e-16
2.63934e-16
5.17516e-16
1.91871e-14
1.18278e-11
6.8773e-09
1.32044e-06
6.31844e-06
1.68419e-05
2.94798e-05
3.83535e-05
4.32059e-05
4.73809e-05
4.98251e-05
5.08206e-05
5.12728e-05
5.16663e-05
5.18087e-05
5.18591e-05
5.18598e-05
5.18637e-05
5.20355e-05
5.24132e-05
5.31152e-05
5.40367e-05
5.5165e-05
5.65996e-05
5.83661e-05
6.04469e-05
6.27971e-05
6.55221e-05
6.8766e-05
7.38481e-05
8.00996e-05
8.73095e-05
9.52909e-05
0.000103954
0.000113085
0.000121598
0.000128939
0.000135226
0.000141291
0.000146752
0.000151573
0.000154406
0.000155753
0.000156039
0.000153476
0.000151587
0.000147284
0.000139612
0.000134897
0.000130534
0.000120723
0.000114784
0.000109971
0.000100414
9.60114e-05
8.93425e-05
8.35182e-05
7.71821e-05
7.10254e-05
6.49522e-05
5.88889e-05
5.28546e-05
4.69662e-05
4.12502e-05
3.57022e-05
3.04355e-05
2.55779e-05
2.11886e-05
1.73546e-05
1.41964e-05
1.19153e-05
1.01128e-05
8.54977e-06
7.18988e-06
6.01534e-06
5.00537e-06
4.13553e-06
3.3907e-06
2.7648e-06
2.23886e-06
1.78832e-06
1.40986e-06
1.10511e-06
8.64006e-07
6.74162e-07
5.2483e-07
4.07395e-07
3.15092e-07
2.42644e-07
1.85914e-07
1.4165e-07
1.07267e-07
8.07041e-08
6.03064e-08
4.47461e-08
3.29539e-08
2.4086e-08
1.74721e-08
1.25753e-08
8.97669e-09
6.35452e-09
4.46041e-09
3.1043e-09
2.14218e-09
1.46602e-09
9.95483e-10
6.71272e-10
4.49986e-10
3.00188e-10
1.99433e-10
1.31983e-10
8.6984e-11
5.7058e-11
3.72244e-11
2.41348e-11
1.55402e-11
9.93247e-12
6.30207e-12
3.97299e-12
2.49127e-12
1.55412e-12
9.64624e-13
5.96149e-13
3.66824e-13
2.24789e-13
1.37283e-13
8.36571e-14
5.09504e-14
3.10745e-14
1.90205e-14
1.17121e-14
7.27441e-15
4.57191e-15
2.91976e-15
1.9054e-15
1.27976e-15
8.92032e-16
6.50586e-16
4.9943e-16
4.04127e-16
3.43453e-16
3.04362e-16
2.78822e-16
2.61869e-16
2.50402e-16
2.42495e-16
2.36953e-16
2.33019e-16
2.30202e-16
2.28161e-16
2.26652e-16
2.25513e-16
2.24645e-16
2.2398e-16
2.23478e-16
2.23108e-16
2.22843e-16
2.22655e-16
2.22522e-16
2.22429e-16
2.22367e-16
2.2232e-16
2.22288e-16
2.2226e-16
2.2224e-16
2.22222e-16
2.2221e-16
2.222e-16
2.22191e-16
2.22182e-16
2.22172e-16
2.22153e-16
2.22117e-16
2.221e-16
2.22102e-16
2.22131e-16
2.2226e-16
2.22844e-16
2.25273e-16
2.56959e-16
1.19404e-15
5.4336e-13
2.8565e-10
1.04457e-06
4.01202e-06
9.4566e-06
1.54795e-05
1.88516e-05
2.0542e-05
2.18323e-05
2.29823e-05
2.42019e-05
2.58339e-05
2.79202e-05
3.04443e-05
3.3462e-05
3.68566e-05
4.05354e-05
4.44855e-05
4.87106e-05
5.31019e-05
5.79827e-05
6.42522e-05
7.22859e-05
8.24677e-05
9.51883e-05
0.000111511
0.000129698
0.00014754
0.000166266
0.000182792
0.000198507
0.000213921
0.00022555
0.000238785
0.000248512
0.000259302
0.000267344
0.000274824
0.000281917
0.00028648
0.000288735
0.00028931
0.000284623
0.000279751
0.000273085
0.000258568
0.000241762
0.000231636
0.000215277
0.000192993
0.000181566
0.000161943
0.000146526
0.000131779
0.000117408
0.000104397
9.23873e-05
8.15545e-05
7.19362e-05
6.34266e-05
5.59456e-05
4.93363e-05
4.34796e-05
3.83134e-05
3.36479e-05
2.94347e-05
2.56867e-05
2.2339e-05
1.93518e-05
1.67005e-05
1.43597e-05
1.23028e-05
1.04916e-05
8.90027e-06
7.51026e-06
6.30103e-06
5.25316e-06
4.3545e-06
3.58891e-06
2.92712e-06
2.36274e-06
1.91336e-06
1.55431e-06
1.26216e-06
1.02241e-06
8.25096e-07
6.62803e-07
5.29681e-07
4.20918e-07
3.32491e-07
2.60977e-07
2.03491e-07
1.57563e-07
1.2112e-07
9.24222e-08
6.99905e-08
5.25888e-08
3.92001e-08
2.89857e-08
2.1258e-08
1.54609e-08
1.11493e-08
7.97073e-09
5.64904e-09
3.97008e-09
2.76886e-09
1.91882e-09
1.32325e-09
9.09248e-10
6.22895e-10
4.25308e-10
2.89169e-10
1.95524e-10
1.31317e-10
8.75311e-11
5.78823e-11
3.79676e-11
2.46996e-11
1.59349e-11
1.01991e-11
6.48006e-12
4.08947e-12
2.5662e-12
1.60304e-12
9.98e-13
6.19955e-13
3.84733e-13
2.38801e-13
1.48406e-13
9.24416e-14
5.77652e-14
3.62387e-14
2.28488e-14
1.45029e-14
9.28802e-15
6.01943e-15
3.96472e-15
2.67009e-15
1.85044e-15
1.32535e-15
9.83881e-16
7.58022e-16
6.05946e-16
5.01482e-16
4.28319e-16
3.76277e-16
3.38723e-16
3.1137e-16
2.91254e-16
2.76182e-16
2.64736e-16
2.56013e-16
2.49313e-16
2.44179e-16
2.40332e-16
2.37524e-16
2.35409e-16
2.3386e-16
2.32694e-16
2.31953e-16
2.3128e-16
2.30934e-16
2.30414e-16
2.30213e-16
2.2977e-16
2.29613e-16
2.29157e-16
2.28932e-16
2.28156e-16
2.27534e-16
2.2547e-16
2.23969e-16
2.23968e-16
2.25045e-16
2.29657e-16
2.44345e-16
3.05839e-16
4.60123e-16
4.86549e-15
1.07322e-14
9.39136e-14
1.27854e-11
8.84311e-07
2.72818e-06
5.57804e-06
8.65804e-06
1.03483e-05
1.1334e-05
1.25989e-05
1.43884e-05
1.68306e-05
2.00064e-05
2.38257e-05
2.80825e-05
3.26716e-05
3.74441e-05
4.29378e-05
4.95887e-05
5.79934e-05
6.88128e-05
8.33298e-05
0.000102952
0.000127391
0.000149041
0.000171976
0.000188877
0.000203795
0.000219096
0.000231676
0.000246687
0.00026109
0.000275722
0.000295736
0.000310682
0.000329449
0.000343863
0.000358717
0.000370347
0.000380959
0.000387663
0.000392394
0.0003946
0.000392704
0.000376113
0.000357941
0.000337372
0.000312274
0.000289418
0.000257033
0.000231651
0.000213496
0.000184055
0.000167139
0.000146349
0.000129184
0.000113079
9.86421e-05
8.57052e-05
7.43184e-05
6.43372e-05
5.56528e-05
4.803e-05
4.1343e-05
3.55369e-05
3.07808e-05
2.69466e-05
2.37899e-05
2.1109e-05
1.86604e-05
1.63516e-05
1.42462e-05
1.23393e-05
1.06264e-05
9.10368e-06
7.76145e-06
6.58619e-06
5.56366e-06
4.67937e-06
3.91874e-06
3.26762e-06
2.71309e-06
2.24342e-06
1.84713e-06
1.51389e-06
1.23499e-06
1.00265e-06
8.10021e-07
6.51058e-07
5.20531e-07
4.13855e-07
3.27148e-07
2.57021e-07
2.0064e-07
1.55582e-07
1.20012e-07
9.20635e-08
7.02129e-08
5.32216e-08
4.00847e-08
2.99897e-08
2.2282e-08
1.64366e-08
1.20346e-08
8.74407e-09
6.30306e-09
4.50661e-09
3.19533e-09
2.24621e-09
1.56511e-09
1.08061e-09
7.39056e-10
5.00498e-10
3.35477e-10
2.22472e-10
1.4589e-10
9.45552e-11
6.05446e-11
3.82724e-11
2.3861e-11
1.46787e-11
8.89852e-12
5.28974e-12
3.10959e-12
1.82779e-12
1.07668e-12
6.37575e-13
3.81119e-13
2.31152e-13
1.43088e-13
9.09196e-14
5.96136e-14
4.0459e-14
2.84002e-14
2.05304e-14
1.519e-14
1.14302e-14
8.69773e-15
6.66273e-15
5.12317e-15
3.95112e-15
3.05766e-15
2.3765e-15
1.85896e-15
1.46597e-15
1.16804e-15
9.42934e-16
7.72131e-16
6.42739e-16
5.44933e-16
4.70098e-16
4.12834e-16
3.69416e-16
3.35917e-16
3.09753e-16
2.89835e-16
2.74793e-16
2.62902e-16
2.53292e-16
2.45924e-16
2.406e-16
2.36496e-16
2.32926e-16
2.29724e-16
2.27052e-16
2.2511e-16
2.24135e-16
2.23824e-16
2.23636e-16
2.23686e-16
2.2449e-16
2.28465e-16
2.44809e-16
3.07145e-16
5.20512e-16
1.1981e-15
3.13848e-15
1.36379e-14
2.72431e-14
7.04417e-13
8.40948e-13
1.19709e-11
1.31792e-11
8.248e-07
2.13239e-06
3.71174e-06
5.46659e-06
6.63606e-06
7.73236e-06
9.46592e-06
1.19707e-05
1.52991e-05
1.94028e-05
2.40233e-05
2.93796e-05
3.58903e-05
4.42525e-05
5.5712e-05
7.25022e-05
9.82007e-05
0.000123767
0.000150181
0.00017114
0.000187016
0.00020209
0.000211883
0.000228412
0.000249438
0.000271902
0.000295612
0.000324104
0.000357836
0.000397346
0.000435913
0.000471586
0.00050165
0.000530031
0.000547947
0.000561178
0.000567197
0.000569554
0.000568584
0.000557256
0.000549521
0.000532387
0.000507508
0.000477885
0.000454925
0.000418824
0.00036975
0.00032953
0.000287336
0.000243425
0.000214126
0.00018312
0.000158946
0.000136575
0.000117262
0.000100434
8.56592e-05
7.26279e-05
6.11383e-05
5.10536e-05
4.24057e-05
3.52533e-05
2.93973e-05
2.4591e-05
2.06297e-05
1.74391e-05
1.50402e-05
1.32905e-05
1.19209e-05
1.07119e-05
9.54205e-06
8.37642e-06
7.28767e-06
6.28766e-06
5.38285e-06
4.57598e-06
3.86452e-06
3.2434e-06
2.70601e-06
2.24492e-06
1.85248e-06
1.52076e-06
1.24209e-06
1.00931e-06
8.15953e-07
6.56152e-07
5.24843e-07
4.17429e-07
3.30142e-07
2.59453e-07
2.02727e-07
1.57212e-07
1.21304e-07
9.31002e-08
7.10531e-08
5.39069e-08
4.06454e-08
3.04484e-08
2.26562e-08
1.67404e-08
1.22797e-08
8.94002e-09
6.4581e-09
4.62776e-09
3.28865e-09
2.31696e-09
1.61785e-09
1.11927e-09
7.66916e-10
5.20251e-10
3.49258e-10
2.31927e-10
1.52269e-10
9.87843e-11
6.32883e-11
4.00152e-11
2.49496e-11
1.53281e-11
9.27047e-12
5.51366e-12
3.22152e-12
1.84732e-12
1.03876e-12
5.72386e-13
3.08986e-13
1.63448e-13
8.4851e-14
4.34206e-14
2.20882e-14
1.13361e-14
6.01204e-15
3.40175e-15
2.11552e-15
1.46235e-15
1.10811e-15
8.95846e-16
7.53482e-16
6.48629e-16
5.66705e-16
5.0062e-16
4.46906e-16
4.03058e-16
3.67373e-16
3.38568e-16
3.15242e-16
2.96483e-16
2.8151e-16
2.69425e-16
2.59716e-16
2.52035e-16
2.45872e-16
2.40874e-16
2.36925e-16
2.33879e-16
2.31401e-16
2.29323e-16
2.27731e-16
2.26509e-16
2.25531e-16
2.24781e-16
2.23978e-16
2.23268e-16
2.2311e-16
2.2322e-16
2.23802e-16
2.29805e-16
2.63733e-16
4.02036e-16
9.76916e-16
3.30899e-15
1.23304e-14
4.21765e-14
1.35374e-13
3.82196e-13
1.09098e-12
2.39008e-12
9.93086e-12
1.04081e-11
2.10594e-11
2.1355e-11
8.13068e-07
1.898e-06
2.87992e-06
4.03925e-06
5.0702e-06
6.39796e-06
8.50429e-06
1.1487e-05
1.53043e-05
2.00958e-05
2.65689e-05
3.66924e-05
5.28985e-05
7.16997e-05
9.45242e-05
0.000122856
0.000146945
0.000168488
0.000188446
0.000206837
0.000224048
0.000248048
0.000278895
0.000316523
0.0003574
0.000404065
0.000454871
0.000505733
0.000550454
0.000583973
0.000606822
0.000623726
0.000637038
0.000646069
0.000652906
0.000658979
0.000661857
0.000661979
0.000646092
0.000617655
0.000602006
0.000589191
0.000548542
0.000515535
0.000498227
0.00046943
0.000434032
0.000402101
0.00036054
0.000316649
0.000272448
0.000233167
0.000199218
0.000169799
0.000144317
0.000123077
0.000105515
9.04247e-05
7.70877e-05
6.47e-05
5.27505e-05
4.17843e-05
3.29926e-05
2.60774e-05
2.08263e-05
1.68147e-05
1.36799e-05
1.11965e-05
9.24099e-06
7.81538e-06
6.84972e-06
6.20695e-06
5.66089e-06
5.11519e-06
4.5353e-06
3.9686e-06
3.43565e-06
2.94425e-06
2.49938e-06
2.10289e-06
1.75451e-06
1.45241e-06
1.19355e-06
9.74068e-07
7.89775e-07
6.36294e-07
5.09525e-07
4.05473e-07
3.20761e-07
2.52072e-07
1.9695e-07
1.52701e-07
1.17794e-07
9.0385e-08
6.8968e-08
5.23195e-08
3.94481e-08
2.95543e-08
2.19953e-08
1.62571e-08
1.19301e-08
8.68994e-09
6.28127e-09
4.50421e-09
3.20337e-09
2.25885e-09
1.57878e-09
1.09336e-09
7.49991e-10
5.09367e-10
3.42377e-10
2.27654e-10
1.49669e-10
9.72371e-11
6.23905e-11
3.95096e-11
2.46754e-11
1.5186e-11
9.20114e-12
5.48311e-12
3.2102e-12
1.84445e-12
1.0388e-12
5.72833e-13
3.0896e-13
1.62839e-13
8.38152e-14
4.21274e-14
2.06982e-14
9.97422e-15
4.7532e-15
2.28137e-15
1.14342e-15
6.33503e-16
4.10444e-16
3.14514e-16
2.73274e-16
2.54939e-16
2.46018e-16
2.40955e-16
2.37561e-16
2.34964e-16
2.32837e-16
2.31055e-16
2.29537e-16
2.28252e-16
2.27173e-16
2.26261e-16
2.25494e-16
2.24862e-16
2.2434e-16
2.23894e-16
2.23547e-16
2.23247e-16
2.23029e-16
2.22813e-16
2.22654e-16
2.22564e-16
2.22398e-16
2.22595e-16
2.25565e-16
2.34185e-16
2.53425e-16
2.92735e-16
3.71921e-16
5.33296e-16
8.81659e-16
1.668e-15
3.57719e-15
8.29758e-15
2.06163e-14
5.15478e-14
1.33398e-13
3.24808e-13
9.19332e-13
1.7505e-12
6.21303e-12
6.52204e-12
7.41957e-12
1.00293e-11
8.18597e-07
1.83592e-06
2.55043e-06
3.44848e-06
4.44351e-06
5.9401e-06
8.30892e-06
1.16084e-05
1.61562e-05
2.27832e-05
3.25622e-05
4.66578e-05
6.5404e-05
9.00808e-05
0.000117
0.000142564
0.000168652
0.000193027
0.000218021
0.000247456
0.000284527
0.000327589
0.000375961
0.000422948
0.000471256
0.000516872
0.000560006
0.000600469
0.000641695
0.000680162
0.000710556
0.00074301
0.000778478
0.000812734
0.000848096
0.000892306
0.000952078
0.00097718
0.000975613
0.000862579
0.000791656
0.000733939
0.000602199
0.00053729
0.000494629
0.000460631
0.000432334
0.000407415
0.00037594
0.000339682
0.000300129
0.000260084
0.000223881
0.00019277
0.000165895
0.000141838
0.000120366
0.000103016
8.89904e-05
7.74472e-05
6.76069e-05
5.80358e-05
4.69308e-05
3.5587e-05
2.64752e-05
1.97767e-05
1.49362e-05
1.14766e-05
8.98568e-06
7.1273e-06
5.70501e-06
4.63013e-06
3.88117e-06
3.40144e-06
3.097e-06
2.84362e-06
2.58693e-06
2.31431e-06
2.0397e-06
1.77491e-06
1.52484e-06
1.29391e-06
1.08531e-06
9.00564e-07
7.3985e-07
6.02221e-07
4.86019e-07
3.89069e-07
3.0911e-07
2.43727e-07
1.90843e-07
1.4827e-07
1.14469e-07
8.78752e-08
6.70697e-08
5.08848e-08
3.83673e-08
2.8744e-08
2.13918e-08
1.58109e-08
1.16029e-08
8.45228e-09
6.11031e-09
4.3825e-09
3.11768e-09
2.19922e-09
1.53779e-09
1.06556e-09
7.31392e-10
4.97109e-10
3.34426e-10
2.22587e-10
1.465e-10
9.52974e-11
6.12317e-11
3.88366e-11
2.42974e-11
1.49825e-11
9.09754e-12
5.43447e-12
3.19024e-12
1.83841e-12
1.03876e-12
5.74836e-13
3.11211e-13
1.64675e-13
8.51018e-14
4.29407e-14
2.11685e-14
1.02212e-14
4.8666e-15
2.32072e-15
1.14446e-15
6.16469e-16
3.86328e-16
2.88923e-16
2.48876e-16
2.32866e-16
2.26617e-16
2.24212e-16
2.23278e-16
2.2289e-16
2.22702e-16
2.22589e-16
2.22506e-16
2.22438e-16
2.22379e-16
2.22327e-16
2.22282e-16
2.22243e-16
2.2221e-16
2.2218e-16
2.22157e-16
2.22136e-16
2.22121e-16
2.22105e-16
2.22094e-16
2.22087e-16
2.22073e-16
2.22077e-16
2.23887e-16
2.30558e-16
2.46781e-16
2.80554e-16
3.49964e-16
4.86891e-16
7.76607e-16
1.40924e-15
2.8994e-15
6.43186e-15
1.53545e-14
3.66645e-14
9.0369e-14
2.05675e-13
5.91532e-13
9.73925e-13
2.46517e-12
2.76152e-12
2.99054e-12
3.77695e-12
8.18906e-07
1.84296e-06
2.44444e-06
3.23205e-06
4.24873e-06
5.88226e-06
8.49241e-06
1.27174e-05
1.99773e-05
3.14864e-05
4.76803e-05
6.73409e-05
8.80178e-05
0.000110926
0.000140705
0.000179223
0.000220851
0.000261614
0.000296839
0.000343056
0.000385332
0.00042569
0.000466284
0.00050722
0.000551224
0.000600045
0.000662016
0.00073088
0.000811595
0.000906684
0.00103664
0.00123363
0.00150859
0.00184899
0.0022372
0.00267455
0.00303886
0.00318901
0.00320065
0.00274696
0.00225628
0.00192648
0.00136239
0.00100364
0.000716308
0.00053434
0.000436129
0.000387412
0.000358784
0.000332549
0.000302549
0.000267246
0.00023114
0.000199906
0.000173659
0.000151363
0.000131407
0.000112454
9.52768e-05
8.20128e-05
7.212e-05
6.43808e-05
5.80165e-05
5.09481e-05
4.0939e-05
2.98553e-05
2.11509e-05
1.49414e-05
1.06483e-05
7.74838e-06
5.79614e-06
4.44695e-06
3.46571e-06
2.73569e-06
2.22154e-06
1.87892e-06
1.64856e-06
1.48764e-06
1.35981e-06
1.24304e-06
1.12387e-06
9.97603e-07
8.71121e-07
7.48606e-07
6.33502e-07
5.28523e-07
4.35207e-07
3.54097e-07
2.8495e-07
2.26981e-07
1.79106e-07
1.40044e-07
1.08589e-07
8.36357e-08
6.39939e-08
4.86451e-08
3.67345e-08
2.75551e-08
2.05287e-08
1.51872e-08
1.1155e-08
8.1328e-09
5.88424e-09
4.22392e-09
3.00749e-09
2.12342e-09
1.48622e-09
1.03088e-09
7.0837e-10
4.82031e-10
3.24695e-10
2.16408e-10
1.42646e-10
9.29418e-11
5.98244e-11
3.8018e-11
2.38363e-11
1.47329e-11
8.96934e-12
5.3733e-12
3.16434e-12
1.82985e-12
1.03789e-12
5.76769e-13
3.13693e-13
1.66818e-13
8.66753e-14
4.39872e-14
2.18159e-14
1.05988e-14
5.07522e-15
2.42971e-15
1.19835e-15
6.41704e-16
3.97352e-16
2.93223e-16
2.50153e-16
2.3285e-16
2.26095e-16
2.23534e-16
2.2259e-16
2.22251e-16
2.22131e-16
2.22089e-16
2.22074e-16
2.22067e-16
2.22063e-16
2.2206e-16
2.22058e-16
2.22056e-16
2.22054e-16
2.22053e-16
2.22051e-16
2.2205e-16
2.22049e-16
2.22048e-16
2.22048e-16
2.22047e-16
2.22046e-16
2.22047e-16
2.22654e-16
2.26942e-16
2.38913e-16
2.64758e-16
3.19359e-16
4.23523e-16
6.39234e-16
1.09359e-15
2.12344e-15
4.4582e-15
1.00911e-14
2.28011e-14
5.38127e-14
1.12291e-13
2.99803e-13
4.71376e-13
6.44763e-13
7.91065e-13
8.92064e-13
1.21126e-12
8.11768e-07
1.90021e-06
2.43209e-06
3.14609e-06
4.20079e-06
6.10781e-06
9.60246e-06
1.57817e-05
2.54435e-05
3.94159e-05
5.83424e-05
8.27318e-05
0.000113763
0.000153186
0.000196049
0.000232617
0.000262166
0.000295087
0.000338738
0.000383603
0.000424211
0.000468625
0.000515619
0.000573104
0.00065195
0.000745099
0.000850558
0.00101742
0.00125357
0.00162431
0.0022248
0.00316117
0.00448883
0.00614317
0.00795897
0.00977134
0.010863
0.011261
0.0107667
0.00944029
0.00776801
0.00605727
0.00446365
0.00310134
0.00204945
0.00126081
0.00076234
0.000513379
0.000380871
0.000318411
0.000288336
0.000260395
0.000228928
0.000198084
0.000173358
0.000152591
0.00013461
0.000118185
0.000103334
8.83936e-05
7.5126e-05
6.59324e-05
5.95701e-05
5.49912e-05
5.07454e-05
4.46241e-05
3.46091e-05
2.40174e-05
1.6251e-05
1.08544e-05
7.30314e-06
5.04382e-06
3.61522e-06
2.68715e-06
2.04588e-06
1.58571e-06
1.2697e-06
1.05316e-06
8.91624e-07
7.69295e-07
6.83833e-07
6.25252e-07
5.75753e-07
5.25068e-07
4.68694e-07
4.09659e-07
3.51192e-07
2.95647e-07
2.44729e-07
1.99543e-07
1.60411e-07
1.27371e-07
9.98955e-08
7.76258e-08
5.98035e-08
4.56997e-08
3.46505e-08
2.60738e-08
1.94735e-08
1.44356e-08
1.06209e-08
7.7548e-09
5.61827e-09
4.0381e-09
2.87874e-09
2.03505e-09
1.42619e-09
9.90558e-10
6.81615e-10
4.64513e-10
3.13389e-10
2.09225e-10
1.38161e-10
9.0195e-11
5.8179e-11
3.70572e-11
2.32921e-11
1.44362e-11
8.81528e-12
5.29863e-12
3.13186e-12
1.81842e-12
1.03601e-12
5.78544e-13
3.16344e-13
1.69209e-13
8.84725e-14
4.52037e-14
2.25801e-14
1.10509e-14
5.32932e-15
2.56635e-15
1.26883e-15
6.76574e-16
4.13919e-16
3.00768e-16
2.53424e-16
2.34195e-16
2.26618e-16
2.23718e-16
2.22641e-16
2.22252e-16
2.22115e-16
2.22068e-16
2.22053e-16
2.22048e-16
2.22046e-16
2.22046e-16
2.22045e-16
2.22045e-16
2.22045e-16
2.22045e-16
2.22045e-16
2.22045e-16
2.22045e-16
2.22045e-16
2.22045e-16
2.22045e-16
2.22045e-16
2.22045e-16
2.22054e-16
2.23755e-16
2.30858e-16
2.48156e-16
2.85993e-16
3.58968e-16
5.05605e-16
8.0187e-16
1.44005e-15
2.80758e-15
5.89559e-15
1.23486e-14
2.99963e-14
5.21631e-14
1.25733e-13
1.42694e-13
1.58576e-13
1.94072e-13
2.22074e-13
3.17331e-13
7.84108e-07
1.91012e-06
2.49386e-06
3.12642e-06
4.15985e-06
6.15534e-06
9.90095e-06
1.64191e-05
2.66158e-05
4.11602e-05
6.09182e-05
8.71748e-05
0.000122139
0.000169217
0.000226259
0.000268979
0.000309016
0.000363372
0.00041311
0.000458624
0.000506146
0.000557482
0.000611399
0.000683974
0.000785204
0.000953144
0.00121731
0.00163519
0.00232186
0.00349138
0.00542493
0.00843637
0.0127388
0.0177865
0.0223581
0.0263276
0.0282945
0.0289006
0.0263534
0.0228872
0.0183625
0.013879
0.0106494
0.00755337
0.00545683
0.00359899
0.00202325
0.00115042
0.000677894
0.000422526
0.000301934
0.00025437
0.000223445
0.000190623
0.000160794
0.000140443
0.000127937
0.000116649
0.000104827
9.28024e-05
8.08709e-05
6.89143e-05
6.01613e-05
5.49203e-05
5.16391e-05
4.87783e-05
4.52746e-05
3.84199e-05
2.77191e-05
1.82717e-05
1.16646e-05
7.3435e-06
4.67597e-06
3.08434e-06
2.13639e-06
1.55012e-06
1.15975e-06
8.92673e-07
7.14362e-07
5.82076e-07
4.78939e-07
3.99872e-07
3.41532e-07
3.01557e-07
2.75773e-07
2.55282e-07
2.3397e-07
2.09378e-07
1.82716e-07
1.55934e-07
1.30295e-07
1.06855e-07
8.6066e-08
6.83132e-08
5.35347e-08
4.14689e-08
3.17818e-08
2.41174e-08
1.81316e-08
1.35108e-08
9.9813e-09
7.31196e-09
5.3119e-09
3.82676e-09
2.73367e-09
1.93613e-09
1.35932e-09
9.45801e-10
6.52e-10
4.45161e-10
3.00915e-10
2.01303e-10
1.33214e-10
8.71637e-11
5.63611e-11
3.59933e-11
2.26879e-11
1.41059e-11
8.64395e-12
5.21624e-12
3.09688e-12
1.807e-12
1.03511e-12
5.81511e-13
3.20068e-13
1.72446e-13
9.08856e-14
4.68416e-14
2.36183e-14
1.16731e-14
5.68443e-15