/*--------------------------------*- C++ -*----------------------------------*\
  =========                 |
  \\      /  F ield         | OpenFOAM: The Open Source CFD Toolbox
   \\    /   O peration     | Website:  https://openfoam.org
    \\  /    A nd           | Version:  7
     \\/     M anipulation  |
\*---------------------------------------------------------------------------*/
FoamFile
{
    version     2.0;
    format      ascii;
    class       volScalarField;
    location    "0.02";
    object      nut;
}
// * * * * * * * * * * * * * * * * * * * * * * * * * * * * * * * * * * * * * //

dimensions      [0 2 -1 0 0 0 0];

internalField   nonuniform List<scalar> 
12225
(
0
0
0
0
0
0
9.00008e-11
9.19879e-11
0
0
0
0
0
0
0
0
0
0
0
0
0
0
0
0
3.3253e-10
3.1484e-10
0
0
0
0
0
0
0
0
0
0
0
3.0979e-10
5.25904e-10
6.98516e-11
0
2.71368e-10
7.86602e-10
6.45689e-10
0
0
0
0
0
0
0
0
0
0
1.49147e-09
8.79836e-09
1.36688e-08
5.86833e-09
9.94854e-10
0
0
0
0
0
0
0
0
0
0
0
2.6105e-10
0
2.21212e-07
4.86757e-08
9.61188e-08
5.35995e-08
0
0
0
0
0
0
1.30725e-09
1.69945e-09
1.39374e-09
8.66149e-10
6.97517e-10
0
1.2847e-09
0
3.04021e-07
1.135e-07
6.0602e-08
1.02467e-07
1.48219e-07
1.22103e-07
5.70643e-08
1.88425e-08
0
0
0
8.20261e-09
1.23893e-08
5.23157e-09
0
0
0
0
1.62932e-07
0
3.26916e-08
5.33177e-08
7.43081e-08
4.32114e-08
0
0
0
0
0
3.69316e-09
2.38299e-08
1.962e-08
1.22481e-08
7.09807e-09
5.42256e-09
0
1.42165e-07
0
8.76157e-08
1.60593e-07
2.78935e-08
0
0
0
4.76604e-09
0
0
0
0
1.41535e-08
1.38308e-08
0
0
0
5.9751e-07
7.64406e-08
3.25196e-07
8.34513e-07
2.61139e-07
0
0
9.51325e-08
2.97497e-07
3.85317e-07
0
0
0
0
0
0
0
0
4.4705e-07
0
5.07318e-07
5.21037e-07
1.37225e-07
0
5.64337e-08
1.8063e-07
2.25233e-07
2.28149e-07
1.27643e-07
0
0
0
0
0
0
0
0
0
5.07888e-07
2.77071e-07
0
0
7.06e-08
1.5071e-07
1.51892e-07
1.07705e-07
3.78633e-08
0
0
0
0
0
0
0
0
0
1.08737e-06
6.69715e-07
6.42999e-08
0
5.59633e-08
1.17628e-07
1.19183e-07
6.89094e-08
0
0
0
0
0
0
0
0
0
6.31492e-07
9.78088e-07
7.99536e-07
3.26771e-07
0
9.666e-08
1.35763e-07
1.07881e-07
3.95243e-08
0
0
0
0
0
0
0
0
1.7823e-07
3.88198e-07
7.36332e-07
8.02934e-07
5.66892e-07
0
0
0
0
0
0
0
0
0
0
0
0
0
3.58582e-07
3.11469e-07
3.23983e-07
6.26864e-07
2.75991e-07
0
0
0
0
0
0
0
0
0
5.44846e-08
1.17191e-07
1.39436e-07
1.04414e-07
3.10098e-07
2.85188e-07
0
0
3.50897e-07
2.61741e-07
1.61679e-08
0
0
0
0
0
0
0
0
0
1.18737e-08
7.79105e-08
3.98523e-07
1.90987e-07
0
0
3.3281e-07
9.23528e-07
5.91878e-07
2.8306e-07
0
0
0
0
0
0
0
0
0
0
7.73256e-07
7.11664e-07
0
0
0
0
0
0
0
0
0
0
0
0
0
0
0
0
6.65279e-07
0
0
0
0
0
0
0
0
0
0
0
0
6.47287e-09
5.1775e-09
0
0
0
1.93577e-08
0
0
0
0
0
0
0
0
0
0
0
0
0
1.25953e-07
1.83666e-07
1.40592e-07
1.68871e-08
0
0
0
0
0
0
0
0
0
0
0
0
0
0
0
0
7.99419e-08
1.09918e-07
0
0
0
0
0
0
0
0
0
0
0
0
0
0
0
0
0
0
5.05365e-08
0
0
0
0
0
0
0
0
0
0
0
3.23507e-08
4.08235e-08
3.58644e-08
2.42817e-08
1.024e-08
0
3.65003e-08
0
0
0
0
0
0
0
2.19422e-08
7.56521e-08
7.82342e-08
3.21515e-08
0
0
0
0
3.54102e-10
0
2.4911e-07
0
0
8.60758e-08
6.6777e-08
1.23155e-08
1.54094e-08
1.02956e-08
1.74817e-08
2.04763e-08
0
0
0
0
0
0
0
0
0
0
0
0
1.28123e-07
1.37689e-07
8.92145e-08
0
0
0
0
0
0
0
0
0
0
0
0
0
0
0
0
0
0
0
0
0
0
0
0
0
0
0
0
0
5.63454e-09
0
0
0
0
0
0
0
0
0
0
0
0
0
0
0
0
0
7.71985e-09
0
0
0
0
0
0
0
0
0
0
0
0
0
0
0
0
0
6.22088e-08
0
0
0
0
0
0
0
0
0
0
0
0
0
0
0
0
0
0
0
0
0
0
0
0
0
0
0
0
0
0
0
0
0
0
1.40293e-08
2.82563e-08
4.11324e-08
5.18601e-08
5.97532e-08
6.46352e-08
6.64354e-08
6.53791e-08
6.18704e-08
5.64041e-08
4.96456e-08
4.1853e-08
3.32194e-08
2.5668e-08
1.93878e-08
1.27532e-08
8.45659e-09
5.01139e-09
2.35784e-09
8.30051e-11
0
0
0
0
0
0
0
0
0
0
0
0
0
0
0
0
0
0
0
0
0
0
0
0
0
0
0
0
0
0
0
0
0
0
0
0
0
0
0
0
0
0
0
0
0
0
0
0
0
0
0
0
0
0
0
0
0
0
0
0
0
0
0
0
0
0
0
0
0
0
0
0
0
0
0
0
0
0
0
0
0
0
0
0
0
0
0
0
0
0
0
0
0
0
0
0
0
0
0
0
0
0
0
0
0
0
0
0
0
0
0
0
0
0
0
0
0
0
0
0
0
0
0
0
0
0
0
0
0
0
0
0
0
0
0
0
0
0
0
0
0
0
0
0
0
0
0
0
5.24901e-08
9.59526e-08
1.23622e-07
1.35522e-07
1.34902e-07
1.25495e-07
1.10831e-07
9.39874e-08
7.72666e-08
6.2711e-08
5.14831e-08
4.39553e-08
3.98617e-08
3.84179e-08
3.86155e-08
3.94087e-08
4.00616e-08
4.01264e-08
3.94572e-08
3.81905e-08
3.64974e-08
3.44723e-08
3.22169e-08
2.97832e-08
2.71844e-08
2.44086e-08
2.14511e-08
1.79658e-08
1.43063e-08
1.01204e-08
5.44575e-09
3.03699e-10
0
0
0
0
0
0
0
0
0
0
0
0
0
0
0
0
0
0
0
0
0
0
0
1.46257e-08
3.72379e-08
2.97248e-08
7.38615e-09
0
0
0
0
0
0
0
0
0
0
0
0
0
0
0
0
0
0
0
0
0
0
0
0
0
0
0
0
0
0
0
0
0
0
0
0
0
0
0
0
0
0
0
0
0
0
0
0
0
0
0
0
0
0
0
0
0
0
0
0
0
0
0
0
0
0
0
0
0
0
0
0
0
0
0
0
0
0
0
0
0
0
0
0
0
0
0
0
0
0
0
0
0
0
0
0
0
0
0
0
0
0
0
0
0
0
0
0
0
0
0
0
0
0
0
0
0
0
0
0
0
0
0
0
0
0
0
0
0
0
0
0
0
0
0
0
0
0
0
0
0
0
3.64444e-09
1.1311e-08
1.83551e-08
2.39152e-08
2.72481e-08
2.78829e-08
2.56707e-08
2.10285e-08
1.47728e-08
7.62953e-09
0
0
0
0
0
0
0
0
0
0
0
0
0
0
0
0
9.40118e-09
3.02677e-08
4.88805e-08
6.46901e-08
7.71817e-08
8.56815e-08
9.01529e-08
9.11206e-08
8.92982e-08
8.36162e-08
7.26141e-08
5.81415e-08
4.22716e-08
2.58567e-08
1.00651e-08
0
0
0
0
0
0
0
0
0
0
0
0
0
0
0
0
0
0
0
0
0
0
0
0
0
0
0
0
0
0
0
0
0
0
0
0
0
0
0
0
0
0
0
0
0
0
0
0
0
0
0
0
0
0
0
0
0
0
0
0
0
0
0
0
0
0
0
0
0
0
0
0
0
0
0
0
0
0
0
0
0
0
0
0
0
0
0
0
0
0
0
0
0
0
0
0
0
0
0
0
0
0
0
0
0
0
0
0
0
0
0
0
0
0
0
0
0
0
0
0
0
0
0
0
0
0
0
0
0
0
0
0
0
0
0
0
0
0
0
0
0
0
0
0
0
0
0
0
0
0
1.15609e-08
1.02934e-07
1.80714e-07
2.39317e-07
2.80654e-07
3.06679e-07
3.16912e-07
3.17265e-07
3.16013e-07
3.06262e-07
2.89348e-07
2.78391e-07
2.5957e-07
2.43007e-07
2.25996e-07
2.08598e-07
1.9181e-07
1.75479e-07
1.60019e-07
1.4563e-07
1.3234e-07
1.20436e-07
1.10171e-07
1.01468e-07
9.29048e-08
8.37207e-08
7.48589e-08
6.69448e-08
5.975e-08
5.30984e-08
4.69248e-08
4.11866e-08
3.58474e-08
3.08575e-08
2.61854e-08
2.18125e-08
1.77194e-08
1.38903e-08
1.0322e-08
7.00908e-09
3.94209e-09
1.14836e-09
0
0
0
0
0
0
0
0
0
0
0
0
0
0
0
0
0
0
0
0
0
0
0
0
0
0
0
0
0
0
0
4.96392e-13
7.29165e-13
7.98086e-13
7.85867e-13
7.36948e-13
6.4882e-13
5.31873e-13
4.24764e-13
3.37894e-13
2.68893e-13
2.12861e-13
1.67236e-13
1.30348e-13
1.00822e-13
7.76619e-14
5.98697e-14
4.63306e-14
3.59898e-14
2.79939e-14
2.17356e-14
1.68154e-14
1.2965e-14
9.9829e-15
7.70155e-15
5.9774e-15
4.68925e-15
3.73486e-15
3.02891e-15
2.50571e-15
2.1163e-15
1.82468e-15
1.60432e-15
1.43597e-15
1.306e-15
1.20449e-15
1.12445e-15
1.06058e-15
1.00865e-15
9.65635e-16
9.29466e-16
8.98434e-16
8.71322e-16
8.47149e-16
8.25207e-16
8.04041e-16
7.83774e-16
7.61798e-16
7.4092e-16
7.13483e-16
6.90006e-16
6.50094e-16
6.22425e-16
5.59844e-16
5.264e-16
4.25045e-16
3.85891e-16
2.17248e-16
1.79261e-16
0
0
0
0
0
0
0
0
0
0
0
0
0
0
0
0
0
0
0
0
0
0
0
0
0
0
0
0
0
0
0
0
0
0
0
0
0
0
0
0
0
0
0
0
0
0
0
0
0
7.28322e-09
1.05621e-07
1.93645e-07
2.65318e-07
3.13579e-07
3.43226e-07
3.56709e-07
3.56344e-07
3.48922e-07
3.30091e-07
3.1227e-07
2.96922e-07
2.7202e-07
2.54956e-07
2.33882e-07
2.14933e-07
1.96171e-07
1.78287e-07
1.61366e-07
1.4567e-07
1.3132e-07
1.18625e-07
1.07817e-07
9.83233e-08
8.84418e-08
7.89672e-08
7.09102e-08
6.40894e-08
5.81029e-08
5.25611e-08
4.72983e-08
4.23848e-08
3.7811e-08
3.35702e-08
2.96623e-08
2.60805e-08
2.28129e-08
1.98459e-08
1.71645e-08
1.47525e-08
1.25924e-08
1.06673e-08
8.96074e-09
7.455e-09
6.13275e-09
4.97844e-09
3.97706e-09
3.11427e-09
2.3764e-09
1.75064e-09
1.22485e-09
7.87724e-10
4.28733e-10
1.38274e-10
0
0
0
0
0
0
0
0
0
0
0
0
0
0
0
0
0
0
0
0
0
0
0
0
0
0
0
0
0
2.63664e-13
1.16136e-12
1.44942e-12
1.42934e-12
1.27561e-12
1.08139e-12
8.91843e-13
7.25716e-13
5.88085e-13
4.77359e-13
3.89153e-13
3.18704e-13
2.61932e-13
2.15748e-13
1.77868e-13
1.46643e-13
1.20856e-13
9.96148e-14
8.21848e-14
6.79356e-14
5.63441e-14
4.69432e-14
3.93414e-14
3.32186e-14
2.82803e-14
2.43041e-14
2.11061e-14
1.85126e-14
1.64029e-14
1.46872e-14
1.3269e-14
1.20791e-14
1.10775e-14
1.02222e-14
9.46114e-15
8.7694e-15
8.12015e-15
7.51234e-15
6.8857e-15
6.25915e-15
5.54566e-15
4.81602e-15
3.93864e-15
2.9989e-15
1.87584e-15
5.18807e-16
0
0
0
0
0
0
0
0
1.83128e-13
0
5.51232e-12
0
2.87359e-11
0
0
0
0
0
0
0
0
0
0
0
0
0
0
0
0
0
0
0
0
0
0
0
0
0
0
0
0
0
0
0
0
0
0
0
0
0
0
1.86525e-08
1.34711e-07
2.3797e-07
3.23083e-07
3.84172e-07
4.21509e-07
4.38756e-07
4.44648e-07
4.3255e-07
4.05257e-07
3.77207e-07
3.44781e-07
3.09725e-07
2.82805e-07
2.54301e-07
2.30157e-07
2.06928e-07
1.8574e-07
1.66526e-07
1.49143e-07
1.33557e-07
1.20022e-07
1.08369e-07
9.74495e-08
8.62665e-08
7.57685e-08
6.6716e-08
5.89099e-08
5.21931e-08
4.6669e-08
4.22039e-08
3.84155e-08
3.49549e-08
3.1618e-08
2.83318e-08
2.5213e-08
2.22845e-08
1.95605e-08
1.70509e-08
1.47571e-08
1.26758e-08
1.08004e-08
9.12204e-09
7.63027e-09
6.31291e-09
5.15703e-09
4.14942e-09
3.27722e-09
2.5278e-09
1.88933e-09
1.35027e-09
9.00083e-10
5.28522e-10
2.26635e-10
0
0
0
0
0
0
0
0
0
0
0
0
0
0
0
0
0
0
0
0
0
0
0
0
0
0
0
0
0
0
0
0
0
0
0
0
0
0
0
0
0
0
0
0
0
0
0
0
0
0
0
0
0
0
0
0
0
0
0
0
0
0
0
0
0
0
0
0
0
0
0
0
0
0
2.08119e-14
9.06166e-14
2.19545e-13
6.10758e-13
1.47799e-12
3.82368e-12
7.03182e-12
1.45188e-11
1.97112e-11
3.61156e-11
3.15192e-11
6.91697e-11
4.78542e-12
3.14489e-11
0
0
0
0
0
0
0
0
0
0
0
0
0
0
0
0
0
0
0
0
0
0
0
0
0
0
0
0
0
0
0
0
0
0
0
0
0
0
9.80704e-09
8.67186e-08
1.56745e-07
2.21089e-07
2.81012e-07
3.2923e-07
3.73265e-07
4.14005e-07
4.36901e-07
4.40354e-07
4.29691e-07
4.01665e-07
3.65341e-07
3.25788e-07
2.88405e-07
2.5448e-07
2.2366e-07
1.95822e-07
1.71632e-07
1.51384e-07
1.35045e-07
1.223e-07
1.11345e-07
9.96548e-08
8.7108e-08
7.56926e-08
6.56834e-08
5.70794e-08
4.96791e-08
4.32722e-08
3.7721e-08
3.29549e-08
2.90875e-08
2.60845e-08
2.37446e-08
2.16417e-08
1.95862e-08
1.75063e-08
1.549e-08
1.35798e-08
1.17925e-08
1.01405e-08
8.63001e-09
7.26314e-09
6.03862e-09
4.95221e-09
3.99729e-09
3.16569e-09
2.44806e-09
1.83486e-09
1.31606e-09
8.82194e-10
5.23717e-10
2.32234e-10
0
0
0
0
0
0
0
0
0
0
0
0
0
0
0
0
0
0
0
0
0
0
0
0
0
0
0
0
0
0
0
0
0
0
0
0
0
0
0
0
0
0
0
0
0
0
0
0
0
0
0
0
0
0
0
0
0
0
0
0
0
0
0
0
0
0
0
0
0
1.70301e-13
3.00921e-13
4.14765e-13
5.07435e-13
6.40462e-13
7.92747e-13
1.09283e-12
1.48348e-12
2.29835e-12
3.3103e-12
5.48709e-12
7.69965e-12
1.2851e-11
1.57631e-11
2.65773e-11
2.11098e-11
3.74134e-11
0
1.17975e-13
0
0
0
0
0
0
0
0
0
0
0
0
0
0
0
0
0
0
0
0
0
0
0
0
0
0
0
0
0
0
0
0
0
0
0
0
0
0
0
0
0
0
0
0
0
4.65081e-08
1.57717e-07
2.66189e-07
3.46163e-07
3.81601e-07
3.7939e-07
3.53167e-07
3.16367e-07
2.78395e-07
2.43125e-07
2.10942e-07
1.81367e-07
1.55325e-07
1.34583e-07
1.18097e-07
1.04991e-07
9.48255e-08
8.67306e-08
7.83789e-08
6.89191e-08
5.9591e-08
5.1045e-08
4.3464e-08
3.70061e-08
3.16245e-08
2.71026e-08
2.32715e-08
2.00691e-08
1.75437e-08
1.56394e-08
1.41746e-08
1.28645e-08
1.158e-08
1.02929e-08
9.03533e-09
7.83618e-09
6.70789e-09
5.66171e-09
4.70601e-09
3.84524e-09
3.08045e-09
2.40978e-09
1.82919e-09
1.33292e-09
9.14315e-10
5.66039e-10
2.80985e-10
5.18033e-11
0
0
0
0
0
0
0
0
0
0
0
0
0
0
0
0
0
0
0
0
0
0
0
0
0
0
0
0
0
0
0
0
0
0
0
0
0
0
0
0
0
0
0
0
0
0
0
0
0
0
0
0
0
0
0
0
0
0
0
0
0
0
0
0
0
0
0
0
8.27689e-14
1.99744e-13
3.0427e-13
3.88644e-13
5.00677e-13
6.22472e-13
8.49133e-13
1.13904e-12
1.71869e-12
2.4295e-12
3.87343e-12
5.3039e-12
8.32279e-12
9.74053e-12
1.53816e-11
1.04631e-11
1.24005e-11
0
0
0
0
0
0
0
0
0
0
0
0
0
0
0
0
0
0
0
0
0
0
0
0
0
0
0
0
0
0
0
0
0
0
0
0
0
0
0
0
0
0
0
0
0
0
0
0
0
0
0
1.52793e-07
2.74415e-07
3.19242e-07
3.13485e-07
2.84275e-07
2.50525e-07
2.19129e-07
1.91595e-07
1.6714e-07
1.43508e-07
1.19798e-07
9.87642e-08
8.26215e-08
7.20272e-08
6.66069e-08
6.40733e-08
6.05733e-08
5.43284e-08
4.69774e-08
3.95977e-08
3.28782e-08
2.72311e-08
2.2693e-08
1.90666e-08
1.60966e-08
1.3638e-08
1.16839e-08
1.01831e-08
9.00867e-09
8.05044e-09
7.20792e-09
6.41901e-09
5.64933e-09
4.88903e-09
4.15816e-09
3.46939e-09
2.83265e-09
2.25545e-09
1.74184e-09
1.29289e-09
9.07174e-10
5.81503e-10
3.11585e-10
9.22933e-11
0
0
0
0
0
0
0
0
0
0
0
0
0
0
0
0
0
0
0
0
0
0
0
0
0
0
0
0
0
0
0
0
0
0
0
0
0
0
0
0
0
0
0
0
0
0
0
0
0
0
0
0
0
0
0
0
0
0
0
0
0
0
0
0
0
0
0
0
1.22418e-14
1.13682e-13
2.04589e-13
2.77092e-13
3.64273e-13
4.53152e-13
6.06155e-13
7.97235e-13
1.15938e-12
1.59567e-12
2.41881e-12
3.18906e-12
4.66407e-12
5.02176e-12
6.80745e-12
3.39155e-12
8.73369e-13
0
0
0
0
0
0
0
0
0
0
0
0
0
0
0
0
0
0
0
0
0
0
0
0
0
0
0
0
0
0
0
0
0
0
0
0
0
0
0
8.31717e-08
3.3354e-07
7.70518e-07
1.21948e-06
1.47141e-06
1.43678e-06
1.14146e-06
6.67325e-07
1.20488e-07
0
0
0
0
0
1.64687e-07
2.51605e-07
2.61725e-07
2.38936e-07
2.11766e-07
1.88756e-07
1.68957e-07
1.49215e-07
1.28423e-07
1.05703e-07
8.35364e-08
6.54489e-08
5.28281e-08
4.64193e-08
4.55475e-08
4.74157e-08
4.7148e-08
4.29112e-08
3.68545e-08
3.02941e-08
2.43788e-08
1.95914e-08
1.5913e-08
1.31034e-08
1.08867e-08
9.09798e-09
7.70088e-09
6.61049e-09
5.7086e-09
4.95007e-09
4.32938e-09
3.81326e-09
3.34243e-09
2.8857e-09
2.43313e-09
1.99659e-09
1.58757e-09
1.2139e-09
8.80691e-10
5.9062e-10
3.43869e-10
1.39047e-10
0
0
0
0
0
0
0
0
0
0
0
0
0
0
0
0
0
0
0
0
0
0
0
0
0
0
0
0
0
0
0
0
0
0
0
0
0
0
0
0
0
0
0
0
0
0
0
0
0
0
0
0
0
0
0
0
0
0
0
0
0
0
0
0
0
0
0
0
0
3.85564e-14
1.15264e-13
1.75417e-13
2.3941e-13
2.99758e-13
3.9231e-13
5.01499e-13
6.95021e-13
9.15811e-13
1.29617e-12
1.59532e-12
2.1981e-12
1.91785e-12
1.86371e-12
0
0
0
0
0
0
0
0
0
0
0
0
0
0
0
0
0
0
0
0
0
0
0
0
0
0
0
0
0
0
0
0
0
0
0
0
0
4.64667e-07
1.62152e-06
2.55974e-06
2.17868e-06
4.97311e-07
0
0
5.70562e-07
1.71057e-06
2.38197e-06
2.57024e-06
2.25137e-06
1.68213e-06
8.54955e-07
0
0
0
0
0
9.59211e-08
1.97419e-07
2.09474e-07
1.90017e-07
1.68984e-07
1.51742e-07
1.36361e-07
1.22997e-07
1.09382e-07
9.26838e-08
7.25064e-08
5.32175e-08
3.84223e-08
2.99074e-08
2.80489e-08
3.17423e-08
3.68027e-08
3.76037e-08
3.39234e-08
2.82082e-08
2.23166e-08
1.73299e-08
1.35224e-08
1.07392e-08
8.69427e-09
7.1251e-09
5.90103e-09
4.964e-09
4.19539e-09
3.54293e-09
2.99312e-09
2.53641e-09
2.16362e-09
1.85598e-09
1.57823e-09
1.30962e-09
1.04576e-09
7.93775e-10
5.61709e-10
3.5454e-10
1.75357e-10
2.50153e-11
0
0
0
0
0
0
0
0
0
0
0
0
0
0
0
0
0
0
0
0
0
0
0
0
0
0
0
0
0
0
0
0
0
0
0
0
0
0
0
0
0
0
0
0
0
0
0
0
0
0
0
0
0
0
0
0
0
0
0
0
0
0
0
0
0
0
0
0
0
3.15058e-14
8.07714e-14
1.26222e-13
1.63453e-13
2.12508e-13
2.60029e-13
3.38858e-13
4.09883e-13
5.17134e-13
5.69857e-13
5.40789e-13
2.41636e-13
0
0
0
0
0
0
0
0
0
0
0
0
0
0
0
0
0
0
0
0
0
0
0
0
0
0
0
0
0
0
0
0
0
0
0
0
1.06447e-07
1.48365e-06
4.47979e-06
9.41852e-06
1.43936e-05
1.11968e-05
0
0
0
0
0
0
7.95714e-07
1.47478e-06
1.67168e-06
1.50063e-06
9.57165e-07
4.04747e-08
0
0
0
0
7.10466e-08
1.55797e-07
1.61538e-07
1.43715e-07
1.24478e-07
1.10558e-07
1.02345e-07
9.66208e-08
8.99504e-08
7.91424e-08
6.27899e-08
4.39264e-08
2.7651e-08
1.72848e-08
1.39997e-08
1.74666e-08
2.5212e-08
3.08871e-08
3.0415e-08
2.61252e-08
2.06134e-08
1.55998e-08
1.17025e-08
8.9056e-09
6.9535e-09
5.56012e-09
4.5178e-09
3.74596e-09
3.12637e-09
2.59225e-09
2.14007e-09
1.76104e-09
1.44571e-09
1.18601e-09
9.73575e-10
7.95828e-10
6.34641e-10
4.7982e-10
3.30901e-10
1.92166e-10
6.83277e-11
0
0
0
0
0
0
0
0
0
0
0
0
0
0
0
0
0
0
0
0
0
0
0
0
0
0
0
0
0
0
0
0
0
0
0
0
0
0
0
0
0
0
0
0
0
0
0
0
0
0
0
0
0
0
0
0
0
0
0
0
0
0
0
0
0
0
0
0
0
0
0
3.15006e-14
5.37775e-14
7.37874e-14
8.65264e-14
9.91218e-14
1.00455e-13
8.63665e-14
2.97391e-14
0
0
0
0
0
0
0
0
0
0
0
5.58555e-10
0
0
0
0
0
0
0
0
0
0
0
0
0
0
0
0
0
0
0
0
0
0
0
0
0
0
1.02693e-06
3.9865e-06
1.03311e-05
2.18779e-05
3.8962e-05
2.16045e-05
0
0
0
0
0
0
0
0
2.75558e-07
6.63989e-07
8.57822e-07
6.04172e-07
0
0
0
0
0
8.94275e-08
1.20846e-07
1.10034e-07
9.51804e-08
8.42268e-08
7.68167e-08
7.33455e-08
7.20381e-08
7.03226e-08
6.50177e-08
5.33303e-08
3.63003e-08
1.92328e-08
7.46816e-09
3.20144e-09
6.05109e-09
1.45793e-08
2.37214e-08
2.6438e-08
2.38067e-08
1.89547e-08
1.41279e-08
1.02602e-08
7.47842e-09
5.5869e-09
4.31339e-09
3.418e-09
2.78039e-09
2.3116e-09
1.90751e-09
1.55258e-09
1.24965e-09
9.97489e-10
7.89976e-10
6.19933e-10
4.80548e-10
3.65007e-10
2.6611e-10
1.76132e-10
9.10949e-11
1.16054e-11
0
0
0
0
0
0
0
0
0
0
0
0
0
0
0
0
0
0
0
0
0
0
0
0
0
0
0
0
0
0
0
0
0
0
0
0
0
0
0
0
0
0
0
0
0
0
0
0
0
0
0
0
0
0
0
0
0
0
0
0
0
0
0
0
0
0
0
0
0
0
0
0
0
0
0
0
0
0
0
0
0
0
0
0
0
0
1.66023e-10
1.13656e-09
3.23777e-09
8.0751e-09
1.50036e-08
1.43154e-08
1.35598e-08
1.38485e-08
1.49552e-08
1.65919e-08
1.81818e-08
1.83958e-08
1.59986e-08
1.12027e-08
4.41423e-09
0
0
0
0
0
0
0
0
0
0
0
0
0
0
0
7.616e-07
2.63537e-06
5.50685e-06
7.15532e-06
0
0
0
0
0
0
0
0
0
0
0
0
3.10199e-07
4.82054e-07
2.26967e-07
0
0
0
0
6.10673e-08
9.93557e-08
8.01445e-08
6.33813e-08
5.51941e-08
5.14723e-08
4.93951e-08
4.84917e-08
4.88139e-08
5.01867e-08
5.01219e-08
4.39026e-08
3.00409e-08
1.28814e-08
0
0
0
5.64762e-09
1.67123e-08
2.22008e-08
2.12409e-08
1.72102e-08
1.27588e-08
9.07131e-09
6.38756e-09
4.56963e-09
3.38063e-09
2.59128e-09
2.0451e-09
1.67757e-09
1.39297e-09
1.13665e-09
9.08843e-10
7.13241e-10
5.50664e-10
4.1883e-10
3.12811e-10
2.26971e-10
1.56622e-10
9.76091e-11
4.64106e-11
0
0
0
0
0
0
0
0
0
0
0
0
0
0
0
0
0
0
0
0
0
0
0
0
0
0
0
0
0
0
0
0
0
0
0
0
0
0
0
0
0
0
0
0
0
0
0
0
0
0
0
0
0
0
0
0
0
0
0
0
0
0
0
0
0
0
0
0
0
0
0
0
0
0
0
0
0
0
0
0
0
0
0
0
0
0
1.83528e-08
1.5377e-08
1.30463e-08
1.50851e-08
2.3707e-08
2.83188e-08
3.16008e-08
3.7981e-08
4.77084e-08
5.96805e-08
7.36518e-08
8.79246e-08
9.98774e-08
1.11246e-07
1.18729e-07
1.21192e-07
1.208e-07
1.18085e-07
1.16766e-07
1.18292e-07
1.11634e-07
8.58014e-08
3.76257e-08
0
0
0
0
0
0
0
0
0
0
0
0
0
0
0
0
0
0
0
0
0
0
0
0
2.20163e-07
2.04376e-07
0
0
0
0
8.01645e-08
9.80734e-08
6.50725e-08
4.09387e-08
3.15359e-08
2.89808e-08
2.81388e-08
2.78154e-08
2.7589e-08
2.78026e-08
3.04248e-08
3.48738e-08
3.51098e-08
2.55886e-08
8.54531e-09
0
0
0
0
1.1087e-08
1.86107e-08
1.89484e-08
1.56157e-08
1.15531e-08
8.10538e-09
5.5742e-09
3.85481e-09
2.7394e-09
2.02355e-09
1.5444e-09
1.22462e-09
1.00914e-09
8.32904e-10
6.73685e-10
5.30728e-10
4.07801e-10
3.06098e-10
2.24463e-10
1.60171e-10
1.0985e-10
6.9913e-11
3.74828e-11
1.02611e-11
0
0
0
0
0
0
0
0
0
0
0
0
0
0
0
0
0
0
0
0
0
0
0
0
0
0
0
0
0
0
0
0
0
0
0
0
0
0
0
0
0
0
0
0
0
0
0
0
0
0
0
0
0
0
0
0
0
0
0
0
0
0
0
0
0
0
0
0
0
0
0
0
0
0
0
0
0
0
0
0
0
0
0
0
4.84206e-07
2.12445e-07
5.87856e-08
2.3928e-08
2.49747e-08
3.54234e-08
4.47026e-08
5.62963e-08
7.16608e-08
9.25984e-08
1.18516e-07
1.47086e-07
1.71243e-07
1.99364e-07
2.23383e-07
2.40511e-07
2.5268e-07
2.64636e-07
2.76401e-07
2.83283e-07
2.75652e-07
2.38506e-07
1.69141e-07
9.36979e-08
5.89464e-08
1.0568e-07
2.34603e-07
3.73943e-07
3.46791e-07
0
0
0
0
0
0
0
0
0
0
3.11222e-06
5.18815e-06
3.25453e-06
1.37065e-06
3.63315e-07
0
0
0
4.13599e-08
1.06762e-07
1.49475e-07
0
0
2.11574e-08
1.45649e-07
1.05817e-07
5.4836e-08
2.70341e-08
1.81737e-08
1.75621e-08
1.75364e-08
1.64998e-08
1.54203e-08
1.40013e-08
1.28836e-08
1.55051e-08
2.26677e-08
2.72549e-08
2.06045e-08
3.5822e-09
0
0
0
0
9.87616e-09
1.7256e-08
1.74028e-08
1.40734e-08
1.01982e-08
6.99659e-09
4.68564e-09
3.13336e-09
2.13786e-09
1.51335e-09
1.11158e-09
8.4203e-10
6.6116e-10
5.29674e-10
4.23221e-10
3.31031e-10
2.51227e-10
1.84711e-10
1.31637e-10
9.01288e-11
5.81255e-11
3.37334e-11
1.51811e-11
8.04097e-13
0
0
0
0
0
0
0
0
0
0
0
0
0
0
0
0
0
0
0
0
0
0
0
0
0
0
0
0
0
0
0
0
0
0
0
0
0
0
0
0
0
0
0
0
0
0
0
0
0
0
0
0
0
0
0
0
0
0
0
0
0
0
0
0
0
0
0
0
0
0
0
0
0
0
0
0
0
0
0
0
0
0
0
3.87569e-06
8.90917e-07
1.78828e-07
4.57765e-08
2.26464e-08
3.07935e-08
4.68775e-08
6.03083e-08
7.81117e-08
9.91043e-08
1.29288e-07
1.59044e-07
1.87774e-07
2.2758e-07
2.67845e-07
3.03491e-07
3.28764e-07
3.48351e-07
3.69771e-07
3.8505e-07
3.87656e-07
3.6227e-07
3.0133e-07
2.33122e-07
2.07406e-07
2.89587e-07
5.16458e-07
7.77984e-07
9.5523e-07
8.28964e-07
0
0
0
0
0
0
0
0
4.04139e-05
2.78353e-05
1.40696e-05
5.71265e-06
1.94856e-06
5.11732e-07
0
0
0
0
1.11109e-07
4.3553e-07
3.07094e-07
0
2.36445e-07
2.02942e-07
9.73136e-08
3.73244e-08
1.26592e-08
6.96073e-09
9.44891e-09
1.2207e-08
1.20505e-08
1.07798e-08
9.33373e-09
6.76529e-09
4.25903e-09
5.68735e-09
1.23839e-08
1.76871e-08
1.24332e-08
0
0
0
0
0
9.0429e-09
1.35639e-08
1.2706e-08
9.7309e-09
6.74531e-09
4.44406e-09
2.85236e-09
1.8153e-09
1.16846e-09
7.76737e-10
5.37988e-10
3.84248e-10
2.81299e-10
2.07997e-10
1.51837e-10
1.06853e-10
7.04679e-11
4.16079e-11
1.95016e-11
3.38421e-12
0
0
0
0
0
0
0
0
0
0
0
0
0
0
0
0
0
0
0
0
0
0
0
0
0
0
0
0
0
0
0
0
0
0
0
0
0
0
0
0
0
0
0
0
0
0
0
0
0
0
0
0
0
0
0
0
0
0
0
0
0
0
0
0
0
0
0
0
0
0
0
0
0
0
0
0
0
0
0
0
0
0
0
0
0
0
6.55573e-06
1.71029e-06
3.72303e-07
9.41162e-08
3.50471e-08
2.8546e-08
5.22037e-08
6.31373e-08
7.21419e-08
8.98631e-08
1.21012e-07
1.42969e-07
1.71935e-07
2.16368e-07
2.58226e-07
3.06089e-07
3.39967e-07
3.72287e-07
3.99105e-07
4.27755e-07
4.40535e-07
4.28042e-07
3.91678e-07
3.36037e-07
2.99241e-07
3.38712e-07
5.16397e-07
8.16657e-07
1.08929e-06
1.2364e-06
1.16838e-06
2.93163e-07
0
0
0
0
0
2.4051e-06
1.55604e-05
1.23068e-05
6.08549e-06
2.3862e-06
6.8815e-07
4.81244e-08
0
0
0
8.95251e-10
3.19152e-07
8.08556e-07
2.82629e-07
2.2685e-07
3.64423e-07
1.83291e-07
6.0661e-08
1.57404e-08
1.12943e-09
0
2.46861e-09
7.54223e-09
9.89947e-09
9.73266e-09
9.27467e-09
7.91759e-09
4.79716e-09
1.97033e-09
2.59678e-09
7.65177e-09
1.17458e-08
7.01351e-09
0
0
0
0
9.07308e-10
6.23167e-09
7.88509e-09
6.66705e-09
4.66596e-09
2.97032e-09
1.79405e-09
1.04446e-09
5.90103e-10
3.25891e-10
1.76997e-10
9.27514e-11
4.17868e-11
7.81663e-12
0
0
0
0
0
0
0
0
0
0
0
0
0
0
0
0
0
0
0
0
0
0
0
0
0
0
0
0
0
0
0
0
0
0
0
0
0
0
0
0
0
0
0
0
0
0
0
0
0
0
0
0
0
0
0
0
0
0
0
0
0
0
0
0
0
0
0
0
0
0
0
0
0
0
0
0
0
0
0
0
0
0
0
0
0
0
0
0
0
0
0
0
4.5626e-06
3.32647e-06
9.93329e-07
2.38621e-07
6.87463e-08
4.22683e-08
6.76994e-08
5.67668e-08
5.93004e-08
6.79962e-08
9.07527e-08
1.14775e-07
1.33398e-07
1.65093e-07
2.0706e-07
2.5466e-07
2.92839e-07
3.26561e-07
3.53521e-07
3.81714e-07
4.09513e-07
4.15487e-07
3.94858e-07
3.57402e-07
3.11428e-07
2.9315e-07
3.46871e-07
5.16615e-07
7.31704e-07
8.96567e-07
1.07957e-06
9.25457e-07
4.90307e-07
0
0
0
0
1.04417e-06
2.7987e-06
2.48669e-06
1.35151e-06
4.79737e-07
4.72113e-08
0
0
0
0
1.91144e-07
7.61383e-07
5.76453e-07
2.64391e-07
4.05658e-07
3.48435e-07
1.20999e-07
3.26226e-08
7.47499e-09
1.38799e-09
1.13719e-09
3.65459e-09
7.7267e-09
1.08619e-08
1.15484e-08
1.16725e-08
1.16796e-08
9.82623e-09
6.73012e-09
4.78189e-09
5.31095e-09
8.66535e-09
1.02601e-08
4.77197e-09
0
0
0
2.40651e-10
2.37937e-09
3.80568e-09
3.38633e-09
2.15084e-09
1.05835e-09
3.83117e-10
3.7894e-11
0
0
0
0
0
0
0
0
0
0
0
0
0
0
0
0
0
0
0
0
0
0
0
0
0
0
0
0
0
0
0
0
0
0
0
0
0
0
0
0
0
0
0
0
0
0
0
0
0
0
0
0
0
0
0
0
0
0
0
0
0
0
0
0
0
0
0
0
0
0
0
0
0
0
0
0
0
0
0
0
0
0
0
0
0
0
0
0
0
0
0
0
0
0
0
0
0
0
1.40999e-06
3.73016e-06
1.5048e-06
4.35146e-07
1.21402e-07
9.15669e-08
7.45899e-08
2.43516e-08
3.77863e-08
4.66258e-08
5.69719e-08
7.26583e-08
9.12684e-08
1.09617e-07
1.35359e-07
1.72944e-07
2.08604e-07
2.39334e-07
2.63379e-07
2.87021e-07
3.13166e-07
3.25337e-07
3.19801e-07
2.98075e-07
2.62896e-07
2.23241e-07
2.04425e-07
2.3826e-07
3.13366e-07
4.04344e-07
5.35199e-07
5.42183e-07
4.86956e-07
3.03611e-07
5.85038e-08
0
0
1.56814e-07
3.58628e-07
3.03484e-07
1.23009e-07
0
0
0
3.11597e-08
7.60119e-08
1.89414e-07
6.84456e-07
8.19872e-07
4.02842e-07
3.8763e-07
4.91645e-07
1.97589e-07
6.28769e-08
2.36858e-08
1.33806e-08
1.18194e-08
1.21142e-08
1.27989e-08
1.40616e-08
1.53801e-08
1.55813e-08
1.53153e-08
1.55942e-08
1.50355e-08
1.29089e-08
1.11855e-08
1.0439e-08
1.04271e-08
1.16784e-08
1.01645e-08
4.39686e-09
1.12369e-09
2.7295e-09
4.65958e-09
4.71358e-09
3.74517e-09
2.12858e-09
5.36238e-10
0
0
0
0
0
0
0
0
0
0
0
0
0
0
0
0
0
0
0
0
0
0
0
0
0
0
0
0
0
0
0
0
0
0
0
0
0
0
0
0
0
0
0
0
0
0
0
0
0
0
0
0
0
0
0
0
0
0
0
0
0
0
0
0
0
0
0
0
0
0
0
0
0
0
0
0
0
0
0
0
0
0
0
0
0
0
0
0
0
0
0
0
0
0
0
0
0
0
0
0
0
5.36015e-07
2.0953e-06
1.39242e-06
2.41722e-07
3.10267e-08
2.2929e-08
1.42806e-09
0
1.37779e-08
2.2829e-08
3.02531e-08
3.76285e-08
4.92206e-08
5.90158e-08
7.46171e-08
8.83425e-08
1.11286e-07
1.362e-07
1.54702e-07
1.71636e-07
1.90954e-07
2.03809e-07
2.04969e-07
1.94038e-07
1.72006e-07
1.40526e-07
1.05881e-07
8.46795e-08
8.06012e-08
9.47845e-08
1.22957e-07
1.29812e-07
1.20803e-07
7.32482e-08
0
0
0
0
0
0
0
1.9224e-08
7.17016e-08
1.31924e-07
1.79123e-07
2.48439e-07
5.76049e-07
8.33981e-07
4.74414e-07
3.88475e-07
5.33245e-07
2.98311e-07
1.08801e-07
5.12133e-08
3.38606e-08
2.90563e-08
2.82333e-08
2.75674e-08
2.65463e-08
2.54025e-08
2.39399e-08
2.23105e-08
2.0764e-08
2.00708e-08
1.9666e-08
1.85397e-08
1.77399e-08
1.78726e-08
1.65774e-08
1.50034e-08
1.39922e-08
1.0391e-08
6.95234e-09
8.35238e-09
1.10555e-08
1.10534e-08
8.35701e-09
4.35797e-09
8.89552e-10
0
0
0
0
0
0
0
0
0
0
0
0
0
0
0
0
0
0
0
0
0
0
0
0
0
0
0
0
0
0
0
0
0
0
0
0
0
0
0
0
0
0
0
0
0
0
0
0
0
0
0
0
0
0
0
0
0
0
0
0
0
0
0
0
0
0
0
0
0
0
0
0
0
0
0
0
0
0
0
0
0
0
0
0
0
0
0
0
0
0
0
0
0
0
0
0
0
0
0
0
0
0
2.01698e-07
9.14668e-08
0
0
0
0
0
0
6.71763e-09
1.14355e-08
1.50108e-08
1.8218e-08
2.17053e-08
2.67449e-08
2.96275e-08
3.50004e-08
4.20468e-08
5.01868e-08
5.8304e-08
6.72692e-08
7.47209e-08
7.73849e-08
7.18388e-08
5.91056e-08
3.91067e-08
1.27862e-08
0
0
0
0
0
0
0
0
0
0
0
0
0
8.19785e-08
1.51714e-07
2.13985e-07
2.62445e-07
3.14702e-07
5.59058e-07
7.95679e-07
5.31026e-07
4.18711e-07
5.19464e-07
4.02655e-07
1.56912e-07
7.78711e-08
5.56642e-08
4.86492e-08
4.69454e-08
4.56841e-08
4.27202e-08
4.04021e-08
3.86516e-08
3.55274e-08
3.16064e-08
2.81921e-08
2.59051e-08
2.44749e-08
2.35235e-08
2.33569e-08
2.49959e-08
2.45608e-08
2.06194e-08
1.76141e-08
1.5077e-08
1.23044e-08
1.37948e-08
1.77871e-08
1.8881e-08
1.58871e-08
9.99855e-09
3.66866e-09
0
0
0
0
0
0
0
0
0
0
0
0
0
0
0
0
0
0
0
0
0
0
0
0
0
0
0
0
0
0
0
0
0
0
0
0
0
0
0
0
0
0
0
0
0
0
0
0
0
0
0
0
0
0
0
0
0
0
0
0
0
0
0
0
0
0
0
0
0
0
0
0
0
0
0
0
0
0
0
0
0
0
0
0
0
0
0
0
0
0
0
0
0
0
0
0
0
0
0
0
0
0
0
0
0
0
2.40669e-08
0
0
0
0
0
0
0
0
0
0
0
0
0
0
0
0
0
0
0
0
0
0
0
0
0
0
0
0
0
0
0
0
2.0122e-08
1.10316e-07
1.92634e-07
2.64378e-07
3.17605e-07
3.5862e-07
5.55065e-07
6.77476e-07
5.09508e-07
4.12265e-07
4.61632e-07
4.6867e-07
1.98628e-07
1.04744e-07
7.62727e-08
6.76806e-08
6.65064e-08
6.51804e-08
6.16853e-08
5.67812e-08
5.35603e-08
5.22907e-08
4.9213e-08
4.35306e-08
3.77163e-08
3.34851e-08
3.04869e-08
2.87289e-08
2.85829e-08
3.09243e-08
3.25583e-08
2.78545e-08
2.18238e-08
1.88405e-08
1.69467e-08
1.87834e-08
2.43648e-08
2.7101e-08
2.47401e-08
1.79332e-08
8.83138e-09
2.1355e-09
0
0
0
0
0
0
0
0
0
0
0
0
0
0
0
0
0
0
0
0
0
0
0
0
0
0
0
0
0
0
0
0
0
0
0
0
0
0
0
0
0
0
0
0
0
0
0
0
0
0
0
0
0
0
0
0
0
0
0
0
0
0
0
0
0
0
0
0
0
0
0
0
0
0
0
0
0
0
0
0
0
0
0
0
0
0
0
0
0
0
0
0
0
0
0
0
0
0
0
0
0
0
0
0
1.22885e-07
3.3411e-08
0
0
0
0
0
0
0
0
0
0
0
0
0
0
0
0
0
0
0
0
0
0
0
0
0
0
0
0
0
0
0
0
8.61577e-08
1.75856e-07
2.60509e-07
3.24796e-07
3.55677e-07
5.31427e-07
5.37201e-07
4.45669e-07
3.94689e-07
4.04266e-07
5.08482e-07
2.51225e-07
1.34664e-07
9.47497e-08
8.28115e-08
8.30456e-08
8.31857e-08
7.9258e-08
7.22678e-08
6.65269e-08
6.47576e-08
6.45266e-08
6.2366e-08
5.67719e-08
4.89876e-08
4.26718e-08
3.79235e-08
3.4627e-08
3.37345e-08
3.58204e-08
3.89541e-08
3.54115e-08
2.6833e-08
2.21584e-08
2.07784e-08
2.30521e-08
3.03467e-08
3.51332e-08
3.38944e-08
2.70558e-08
1.59717e-08
5.91656e-09
4.39589e-10
0
0
0
0
0
0
0
0
0
0
0
0
0
0
0
0
0
0
0
0
0
0
0
0
0
0
0
0
0
0
0
0
0
0
0
0
0
0
0
0
0
0
0
0
0
0
0
0
0
0
0
0
0
0
0
0
0
0
0
0
0
0
0
0
0
0
0
0
0
0
0
0
0
0
0
0
0
0
0
0
0
0
0
0
0
0
0
0
0
0
0
0
0
0
0
0
0
0
0
0
0
0
0
0
0
0
0
0
0
0
0
0
0
0
0
0
0
0
0
0
0
0
0
0
0
0
0
0
0
0
0
0
0
0
0
0
2.77838e-08
1.27054e-07
2.19532e-07
2.82764e-07
3.07366e-07
4.5106e-07
4.11469e-07
3.80446e-07
3.66342e-07
3.48266e-07
4.81144e-07
2.80596e-07
1.55087e-07
1.1168e-07
9.58357e-08
9.55011e-08
9.8537e-08
9.60333e-08
8.94233e-08
8.08906e-08
7.69338e-08
7.63268e-08
7.64306e-08
7.44328e-08
6.88196e-08
6.04933e-08
5.28967e-08
4.6704e-08
4.14821e-08
3.90308e-08
4.00283e-08
4.34776e-08
4.20162e-08
3.23993e-08
2.55186e-08
2.40418e-08
2.67074e-08
3.5387e-08
4.25382e-08
4.26788e-08
3.6403e-08
2.44126e-08
1.09687e-08
2.83438e-09
0
0
0
0
0
0
0
0
0
0
0
0
0
0
0
0
0
0
0
0
0
0
0
0
0
0
0
0
0
0
0
0
0
0
0
0
0
0
0
0
0
0
0
0
0
0
0
0
0
0
0
0
0
0
0
0
0
0
0
0
0
0
0
0
0
0
0
0
0
0
0
0
0
0
0
0
0
0
0
0
0
0
0
0
0
0
0
0
0
0
0
0
0
0
0
0
0
0
0
3.36093e-07
1.92734e-07
1.95018e-08
0
0
0
0
0
0
0
0
0
0
0
0
0
0
0
0
0
0
0
0
0
0
0
0
0
0
0
0
0
0
0
0
0
0
2.6173e-08
1.18789e-07
1.76091e-07
2.4581e-07
3.22067e-07
3.10152e-07
3.16392e-07
3.23115e-07
3.02832e-07
4.12946e-07
2.86193e-07
1.68121e-07
1.2567e-07
1.07943e-07
1.0573e-07
1.09878e-07
1.10281e-07
1.05105e-07
9.62073e-08
8.88876e-08
8.60999e-08
8.58614e-08
8.58796e-08
8.40554e-08
7.87041e-08
7.04431e-08
6.25282e-08
5.55907e-08
4.8617e-08
4.40627e-08
4.32626e-08
4.60618e-08
4.6397e-08
3.74341e-08
2.88105e-08
2.67582e-08
2.95407e-08
3.89599e-08
4.84073e-08
5.00204e-08
4.4606e-08
3.27024e-08
1.68558e-08
5.78736e-09
4.59937e-10
0
0
0
0
0
0
0
0
0
0
0
0
0
0
0
0
0
0
0
0
0
0
0
0
0
0
0
0
0
0
0
0
0
0
0
0
0
0
0
0
0
0
0
0
0
0
0
0
0
0
0
0
0
0
0
0
0
0
0
0
0
0
0
0
0
0
0
0
0
0
0
0
0
0
0
0
0
0
0
0
0
0
0
0
0
0
0
0
0
0
0
0
0
0
0
0
0
0
1.34442e-07
1.10466e-07
2.90559e-08
0
0
0
0
0
0
0
0
0
0
0
0
0
0
0
0
0
0
0
0
0
0
0
0
0
0
0
0
0
0
0
0
0
0
0
8.78714e-09
1.42466e-07
2.00957e-07
2.29241e-07
2.54092e-07
2.70519e-07
2.52071e-07
3.34072e-07
2.65693e-07
1.68339e-07
1.31588e-07
1.15393e-07
1.12137e-07
1.15169e-07
1.17232e-07
1.14255e-07
1.07713e-07
9.86353e-08
9.28835e-08
9.0536e-08
8.98315e-08
8.928e-08
8.73298e-08
8.25715e-08
7.56829e-08
6.8658e-08
6.19892e-08
5.40395e-08
4.72966e-08
4.45377e-08
4.57616e-08
4.69567e-08
3.99476e-08
3.09609e-08
2.83679e-08
3.0804e-08
3.97652e-08
5.06709e-08
5.36668e-08
4.91931e-08
3.84178e-08
2.20915e-08
8.70854e-09
1.83897e-09
0
0
0
0
0
0
0
0
0
0
0
0
0
0
0
0
0
0
0
0
0
0
0
0
0
0
0
0
0
0
0
0
0
0
0
0
0
0
0
0
0
0
0
0
0
0
0
0
0
0
0
0
0
0
0
0
0
0
0
0
0
0
0
0
0
0
0
0
0
0
0
0
0
0
0
0
0
0
0
0
0
0
0
0
0
0
0
0
0
0
0
0
0
0
0
0
0
0
3.17782e-09
2.4703e-08
1.43305e-08
0
0
0
0
0
0
0
0
0
0
0
0
0
0
0
0
0
0
0
0
0
0
0
0
0
0
0
0
0
0
0
0
0
0
0
2.63657e-08
1.0195e-07
1.51214e-07
1.88285e-07
2.11001e-07
2.01686e-07
2.74007e-07
2.31498e-07
1.59013e-07
1.29726e-07
1.16115e-07
1.13785e-07
1.16604e-07
1.1896e-07
1.17625e-07
1.14108e-07
1.07365e-07
1.0007e-07
9.53519e-08
9.30251e-08
9.17965e-08
9.06768e-08
8.84084e-08
8.36909e-08
7.72328e-08
7.16047e-08
6.59028e-08
5.78219e-08
4.96184e-08
4.49016e-08
4.39256e-08
4.48422e-08
4.02638e-08
3.23282e-08
2.96363e-08
3.15082e-08
3.89472e-08
5.02226e-08
5.46502e-08
5.10734e-08
4.17095e-08
2.63616e-08
1.1507e-08
3.24888e-09
0
0
0
0
0
0
0
0
0