/*--------------------------------*- C++ -*----------------------------------*\
  =========                 |
  \\      /  F ield         | OpenFOAM: The Open Source CFD Toolbox
   \\    /   O peration     | Website:  https://openfoam.org
    \\  /    A nd           | Version:  7
     \\/     M anipulation  |
\*---------------------------------------------------------------------------*/
FoamFile
{
    version     2.0;
    format      ascii;
    class       volScalarField;
    location    "0.02";
    object      s_0;
}
// * * * * * * * * * * * * * * * * * * * * * * * * * * * * * * * * * * * * * //

dimensions      [0 0 0 0 0 0 0];

internalField   nonuniform List<scalar> 
12225
(
1
1
1
1
1
1
1
1
1
1
1
1
1
1
1
1
1
1
1
1
1
1
1
1
1
1
1
1
1
1
1
1
1
1
1
1
1
1
1
1
1
1
1
1
1
1
1
1
1
1
1
1
1
1
1
1
1
1
1
1
1
1
1
1
1
1
1
1
1
1
1
1
1
1
1
1
1
1
1
1
1
1
1
1
1
1
1
1
1
1
1
1
1
1
1
1
1
1
1
1
1
1
1
1
1
1
1
1
1
1
1
1
1
1
1
1
1
1
1
1
1
1
1
1
1
1
1
1
1
1
1
1
1
1
1
1
1
1
1
1
1
1
1
1
1
1
1
1
1
1
1
1
1
1
1
1
1
1
1
1
1
1
1
1
1
1
1
1
1
1
1
1
1
1
1
1
1
1
1
1
1
1
1
1
1
1
1
1
1
1
1
1
1
1
1
1
1
1
1
1
1
1
1
1
1
1
1
1
1
1
1
1
1
1
1
1
1
1
1
1
1
1
1
1
1
1
1
1
1
1
1
1
1
1
1
1
1
1
1
1
1
1
1
1
1
1
1
1
1
1
1
1
1
1
1
1
1
1
1
1
1
1
1
1
1
1
1
1
1
1
1
1
1
1
1
1
1
1
1
1
1
1
1
1
1
1
1
1
1
1
1
1
1
1
1
1
1
1
1
1
1
1
1
1
1
1
1
1
1
1
1
1
1
1
1
1
1
1
1
1
1
1
1
1
1
1
1
1
1
1
1
1
1
1
1
1
1
1
1
1
1
1
1
1
1
1
1
1
1
1
1
1
1
1
1
1
1
1
1
1
1
1
1
1
1
1
1
1
1
1
1
1
1
1
1
1
1
1
1
1
1
1
1
1
1
1
1
1
1
1
1
1
1
1
1
1
1
1
1
1
1
1
1
1
1
1
1
1
1
1
1
1
1
1
1
1
1
1
1
1
1
1
1
1
1
1
1
1
1
1
1
1
1
1
1
1
1
1
1
1
1
1
1
1
1
1
1
1
1
1
1
1
1
1
1
1
1
1
1
1
1
1
1
1
1
1
1
1
1
1
1
1
1
1
1
1
1
1
1
1
1
1
1
1
1
1
1
1
1
1
1
1
1
1
1
1
1
1
1
1
1
1
1
1
1
1
1
1
1
1
1
1
1
1
1
1
1
1
1
1
1
1
1
1
1
1
1
1
1
1
1
1
1
1
1
1
1
1
1
1
1.53846e-23
2.69186e-22
1.12957e-20
2.9913e-19
5.69371e-18
8.2668e-17
9.48354e-16
8.81645e-15
6.77914e-14
4.38673e-13
2.42508e-12
1.1605e-11
4.86332e-11
1.8032e-10
5.96982e-10
1.77954e-09
4.81389e-09
1.19085e-08
2.71475e-08
5.74745e-08
1.13865e-07
2.12639e-07
3.76872e-07
6.37959e-07
1.03736e-06
1.62833e-06
2.47705e-06
3.66329e-06
5.28184e-06
7.4457e-06
1.02899e-05
1.39753e-05
1.86929e-05
2.46619e-05
3.21322e-05
4.14655e-05
5.32209e-05
6.75992e-05
8.36025e-05
9.71821e-05
0.000106444
0.000110864
0.000112123
0.000106323
9.73715e-05
8.54286e-05
7.10828e-05
5.74495e-05
4.43129e-05
3.26313e-05
2.31661e-05
1.56621e-05
1.01937e-05
6.32879e-06
3.76638e-06
2.14412e-06
1.16905e-06
6.108e-07
3.05885e-07
1.47168e-07
6.77982e-08
2.99893e-08
1.27496e-08
5.22284e-09
2.06118e-09
7.84459e-10
2.88209e-10
1.0232e-10
3.51347e-11
1.16799e-11
3.76218e-12
1.17517e-12
3.56246e-13
1.04883e-13
3.00089e-14
8.34948e-15
2.26038e-15
5.95722e-16
1.52919e-16
3.82499e-17
9.32671e-18
2.2178e-18
5.14476e-19
1.16464e-19
2.57356e-20
5.55269e-21
1.17005e-21
2.40838e-22
4.8434e-23
9.51796e-24
1.82794e-24
3.43121e-25
6.2955e-26
1.12908e-26
1.97935e-27
3.39143e-28
5.67859e-29
9.28949e-30
1.48418e-30
2.31481e-31
3.52205e-32
5.22304e-33
7.54003e-34
1.05778e-34
1.43844e-35
1.88971e-36
2.38465e-37
2.86547e-38
3.22743e-39
3.5305e-40
3.80989e-41
4.05553e-42
4.25832e-43
4.4147e-44
4.13537e-45
6.98159e-46
1.16513e-46
1.92192e-47
3.36322e-48
3.40185e-49
3.11246e-50
2.62499e-51
4.04921e-52
6.18694e-53
9.51111e-54
1.3041e-54
1.05096e-55
8.58628e-57
6.64249e-58
9.58113e-59
1.36424e-59
1.91226e-60
2.30451e-61
1.61395e-62
1.2351e-63
9.26602e-65
1.25474e-65
1.57892e-66
1.89927e-67
1.74183e-68
1.33189e-69
1.02429e-70
7.51073e-72
7.702e-73
7.50696e-74
7.53409e-75
7.56608e-76
7.46119e-77
5.39954e-78
3.86077e-79
2.44536e-80
1.34948e-81
1.38038e-82
1.44125e-83
1.57079e-84
1.32882e-85
5.90292e-87
2.6959e-88
2.44661e-89
2.30326e-90
2.2588e-91
2.03101e-92
8.48541e-94
3.41229e-95
2.37759e-96
2.37449e-97
2.27527e-98
1.56471e-99
5.58984e-101
2.1755e-102
1.81211e-103
1.59763e-104
1.42215e-105
6.08043e-107
2.34167e-108
9.14452e-110
7.3295e-111
5.76312e-112
4.39625e-113
1.22371e-114
3.0485e-19
1.43405e-17
3.0129e-16
4.00706e-15
3.87031e-14
2.92185e-13
1.80621e-12
9.44291e-12
4.27571e-11
1.70777e-10
6.10514e-10
1.97679e-09
5.85476e-09
1.59944e-08
4.05973e-08
9.63669e-08
2.15219e-07
4.54799e-07
9.14252e-07
1.757e-06
3.24254e-06
5.76861e-06
9.92686e-06
1.6572e-05
2.69017e-05
4.25377e-05
6.55992e-05
9.87604e-05
0.000145289
0.000209039
0.000294366
0.000405933
0.00054849
0.00072651
0.000943356
0.0012012
0.00150519
0.00186009
0.00218465
0.00246567
0.00263864
0.002709
0.00271925
0.0025835
0.00237642
0.0021042
0.00178681
0.0014722
0.00116383
0.000885037
0.000647689
0.000454721
0.000306974
0.00019854
0.000123105
7.31292e-05
4.16454e-05
2.27179e-05
1.18785e-05
5.95925e-06
2.87125e-06
1.32686e-06
5.89836e-07
2.52306e-07
1.03958e-07
4.13042e-08
1.58417e-08
5.87155e-09
2.10529e-09
7.31028e-10
2.46069e-10
8.03713e-11
2.54958e-11
7.86217e-12
2.35874e-12
6.89001e-13
1.96101e-13
5.44202e-14
1.47346e-14
3.89472e-15
1.00558e-15
2.5374e-16
6.26042e-17
1.51098e-17
3.56893e-18
8.25304e-19
1.86915e-19
4.14741e-20
9.01882e-21
1.92261e-21
4.01898e-22
8.24015e-23
1.65749e-23
3.27156e-24
6.33772e-25
1.20522e-25
2.25021e-26
4.12546e-27
7.42811e-28
1.31369e-28
2.28231e-29
3.89551e-30
6.53296e-31
1.07659e-31
1.7435e-32
2.77497e-33
4.34099e-34
6.67485e-35
1.0089e-35
1.49904e-36
2.18955e-37
3.14412e-38
4.43882e-39
6.16138e-40
8.40896e-41
1.1291e-41
1.49496e-42
1.95162e-43
2.51186e-44
3.18721e-45
3.98681e-46
4.91617e-47
5.97588e-48
7.16041e-49
8.45716e-50
9.84588e-51
1.12986e-51
1.278e-52
1.42489e-53
1.56594e-54
1.69636e-55
1.8114e-56
1.90664e-57
1.97827e-58
2.02336e-59
2.04003e-60
2.02759e-61
1.98663e-62
1.9189e-63
1.82726e-64
1.71541e-65
1.58771e-66
1.44885e-67
1.30357e-68
1.15644e-69
1.01157e-70
8.72522e-72
7.4212e-73
6.22451e-74
5.14855e-75
4.1998e-76
3.37871e-77
2.68082e-78
2.09794e-79
1.61935e-80
1.2329e-81
9.25904e-83
6.85912e-84
5.01242e-85
3.61338e-86
2.56966e-87
1.80278e-88
1.24772e-89
8.5193e-91
5.73848e-92
3.81319e-93
2.49956e-94
1.61621e-95
1.03075e-96
6.48305e-98
4.02062e-99
2.45813e-100
1.48092e-101
8.78866e-103
5.13289e-104
2.94854e-105
1.66172e-106
9.17931e-108
4.93122e-109
2.45668e-110
1.09807e-17
4.51029e-16
8.48635e-15
1.01464e-13
8.86328e-13
6.09413e-12
3.45683e-11
1.67094e-10
7.04909e-10
2.64336e-09
8.93949e-09
2.75849e-08
7.84161e-08
2.0703e-07
5.11217e-07
1.18808e-06
2.61361e-06
5.47127e-06
1.09518e-05
2.10528e-05
3.90101e-05
6.98967e-05
0.000121416
0.00020489
0.000336384
0.000537808
0.000837813
0.00127221
0.00188359
0.00271974
0.00383015
0.00526096
0.00704922
0.00921674
0.0117592
0.0146378
0.0178144
0.02125
0.0241676
0.0265765
0.0280053
0.0285633
0.0283891
0.0271199
0.0251311
0.0225318
0.0195425
0.0164548
0.0133799
0.0105173
0.00797504
0.00582183
0.00409021
0.00276084
0.0017885
0.00111058
0.000661091
0.000376902
0.000205865
0.000107782
5.41119e-05
2.60637e-05
1.20531e-05
5.35721e-06
2.29076e-06
9.43357e-07
3.74543e-07
1.43529e-07
5.31462e-08
1.90363e-08
6.60294e-09
2.2202e-09
7.24408e-10
2.29575e-10
7.0731e-11
2.12037e-11
6.18985e-12
1.76093e-12
4.8855e-13
1.32271e-13
3.4969e-14
9.03262e-15
2.28082e-15
5.63291e-16
1.36127e-16
3.22044e-17
7.46143e-18
1.69367e-18
3.76779e-19
8.21749e-20
1.75759e-20
3.68758e-21
7.59146e-22
1.53382e-22
3.04217e-23
5.92442e-24
1.13303e-24
2.12838e-25
3.9277e-26
7.1216e-27
1.2689e-27
2.222e-28
3.82457e-29
6.47129e-30
1.07651e-30
1.76077e-31
2.83197e-32
4.47935e-33
6.96814e-34
1.06617e-34
1.60463e-35
2.37573e-36
3.46035e-37
4.9588e-38
6.99196e-39
9.70094e-40
1.32447e-40
1.77956e-41
2.35362e-42
3.06907e-43
3.94542e-44
5.00004e-45
6.24644e-46
7.69234e-47
9.33772e-48
1.1173e-48
1.31774e-49
1.53185e-50
1.75518e-51
1.98217e-52
2.20634e-53
2.42056e-54
2.61745e-55
2.78972e-56
2.9307e-57
3.03471e-58
3.09746e-59
3.11636e-60
3.09067e-61
3.02157e-62
2.91206e-63
2.76674e-64
2.5915e-65
2.39312e-66
2.17883e-67
1.95588e-68
1.73117e-69
1.51088e-70
1.30027e-71
1.10347e-72
9.23494e-74
7.62199e-75
6.20414e-76
4.98069e-77
3.94374e-78
3.08003e-79
2.37271e-80
1.80299e-81
1.3515e-82
9.99359e-84
7.28997e-85
5.24612e-86
3.72449e-87
2.60865e-88
1.80255e-89
1.22879e-90
8.26377e-92
5.48245e-93
3.58783e-94
2.31592e-95
1.47422e-96
9.25363e-98
5.72492e-99
3.49067e-100
2.09523e-101
1.23828e-102
7.18385e-104
4.09645e-105
2.2772e-106
1.24161e-107
6.69035e-17
2.79792e-15
5.37947e-14
6.54653e-13
5.80615e-12
4.04385e-11
2.31898e-10
1.13138e-09
4.81076e-09
1.8163e-08
6.17937e-08
1.91732e-07
5.47953e-07
1.45449e-06
3.61166e-06
8.44288e-06
1.86883e-05
3.93783e-05
7.937e-05
0.000153685
0.000286926
0.000518047
0.000906673
0.00154087
0.00254567
0.00409092
0.00639587
0.00972758
0.0143892
0.0206947
0.0289317
0.0393165
0.0519493
0.0667601
0.0834131
0.101222
0.119335
0.136906
0.150794
0.161448
0.167587
0.169911
0.167858
0.161514
0.151379
0.138073
0.122599
0.105867
0.0887785
0.0723132
0.0572226
0.0437308
0.0321783
0.0227865
0.0155238
0.0101471
0.00635173
0.00380849
0.00218597
0.00120092
0.000631781
0.000318394
0.000153831
7.13187e-05
3.17592e-05
1.35986e-05
5.60472e-06
2.22611e-06
8.5306e-07
3.15762e-07
1.13029e-07
3.91708e-08
1.31567e-08
4.2874e-09
1.35686e-09
4.1742e-10
1.24937e-10
3.6412e-11
1.03411e-11
2.86402e-12
7.74028e-13
2.0426e-13
5.26633e-14
1.32729e-14
3.27172e-15
7.89117e-16
1.86316e-16
4.308e-17
9.75848e-18
2.16631e-18
4.71442e-19
1.00609e-19
2.10603e-20
4.32537e-21
8.71799e-22
1.7248e-22
3.35027e-23
6.39029e-24
1.19712e-24
2.20294e-25
3.98273e-26
7.07513e-27
1.23515e-27
2.11931e-28
3.57441e-29
5.92651e-30
9.66103e-31
1.54853e-31
2.44076e-32
3.7834e-33
5.76798e-34
8.64941e-35
1.27587e-35
1.85146e-36
2.6433e-37
3.71308e-38
5.13225e-39
6.98073e-40
9.34415e-41
1.23093e-41
1.59727e-42
2.04306e-43
2.57585e-44
3.20096e-45
3.92054e-46
4.73268e-47
5.63061e-48
6.60212e-49
7.62931e-50
8.68875e-51
9.75213e-52
1.07873e-52
1.17598e-53
1.26348e-54
1.33791e-55
1.3963e-56
1.43629e-57
1.45621e-58
1.45525e-59
1.4335e-60
1.39192e-61
1.3323e-62
1.25713e-63
1.16939e-64
1.07241e-65
9.69612e-67
8.64349e-68
7.59716e-69
6.58419e-70
5.62678e-71
4.74177e-72
3.94061e-73
3.22957e-74
2.61038e-75
2.08092e-76
1.63612e-77
1.26883e-78
9.70585e-80
7.32352e-81
5.451e-82
4.00235e-83
2.89899e-84
2.07148e-85
1.46023e-86
1.01548e-87
6.96675e-89
4.71503e-90
3.14793e-91
2.07307e-92
1.34659e-93
8.62561e-95
5.44829e-96
3.39181e-97
2.08115e-98
1.25712e-99
7.47769e-101
4.36801e-102
2.50877e-103
1.40779e-104
7.75999e-106
2.46281e-16
1.07596e-14
2.1584e-13
2.72428e-12
2.49552e-11
1.7884e-10
1.05177e-09
5.24725e-09
2.27567e-08
8.74192e-08
3.01917e-07
9.48816e-07
2.74042e-06
7.33604e-06
1.83368e-05
4.30827e-05
9.57364e-05
0.000202356
0.000408928
0.000793599
0.00148448
0.00268419
0.00470167
0.00798944
0.0131806
0.0211126
0.0328193
0.0494769
0.0723038
0.102445
0.140874
0.188265
0.244729
0.309375
0.379563
0.44084
0.49154
0.536794
0.568845
0.590169
0.60226
0.606691
0.599792
0.584549
0.559291
0.525079
0.48214
0.43128
0.374659
0.315422
0.259357
0.210601
0.164178
0.122816
0.0883892
0.0614331
0.0407738
0.0258825
0.0157313
0.00912679
0.00506261
0.00268413
0.00136152
0.000661333
0.00030791
0.000137562
5.90397e-05
2.43711e-05
9.68799e-06
3.71334e-06
1.37409e-06
4.915e-07
1.70141e-07
5.70648e-08
1.85642e-08
5.86384e-09
1.80013e-09
5.37571e-10
1.56295e-10
4.42768e-11
1.22305e-11
3.29645e-12
8.67478e-13
2.23015e-13
5.60418e-14
1.37724e-14
3.31153e-15
7.79402e-16
1.7963e-16
4.0555e-17
8.97237e-18
1.94583e-18
4.13778e-19
8.63005e-20
1.76584e-20
3.54557e-21
6.98733e-22
1.35181e-22
2.5679e-23
4.79048e-24
8.77783e-25
1.58005e-25
2.7944e-26
4.85624e-27
8.29395e-28
1.39227e-28
2.29737e-29
3.72678e-30
5.94394e-31
9.32167e-32
1.43758e-32
2.18036e-33
3.2525e-34
4.7724e-35
6.88845e-36
9.78149e-37
1.36654e-37
1.87847e-38
2.54088e-39
3.38218e-40
4.43057e-41
5.71767e-42
7.27206e-43
9.115e-44
1.12591e-44
1.37052e-45
1.644e-46
1.94335e-47
2.26375e-48
2.59857e-49
2.93948e-50
3.27671e-51
3.5995e-52
3.89666e-53
4.15716e-54
4.37085e-55
4.52908e-56
4.62534e-57
4.65563e-58
4.6188e-59
4.51658e-60
4.35347e-61
4.1364e-62
3.87425e-63
3.57724e-64
3.25626e-65
2.92227e-66
2.58565e-67
2.25572e-68
1.94036e-69
1.64582e-70
1.37659e-71
1.13543e-72
9.2358e-74
7.40902e-75
5.86189e-76
4.57425e-77
3.52067e-78
2.67281e-79
2.00153e-80
1.47849e-81
1.07734e-82
7.74402e-84
5.49126e-85
3.84122e-86
2.65068e-87
1.80437e-88
1.21161e-89
8.02484e-91
5.24235e-92
3.37709e-93
2.14518e-94
1.34304e-95
8.2872e-97
5.03484e-98
3.01215e-99
1.7707e-100
1.02355e-101
5.79323e-103
3.22274e-104
6.95445e-16
3.18994e-14
6.69234e-13
8.77629e-12
8.32109e-11
6.1529e-10
3.72088e-09
1.90152e-08
8.41486e-08
3.28641e-07
1.15001e-06
3.6504e-06
1.06194e-05
2.85631e-05
7.15853e-05
0.000168352
0.000373956
0.00078927
0.00159133
0.00307912
0.00573997
0.0103425
0.0180637
0.0306591
0.0506833
0.0817658
0.128923
0.198761
0.299381
0.436016
0.542853
0.642182
0.734255
0.781801
0.82822
0.857081
0.873016
0.888037
0.896009
0.902904
0.908903
0.913709
0.916403
0.917637
0.914913
0.908537
0.896176
0.87613
0.845695
0.801925
0.739084
0.654927
0.558144
0.451933
0.34508
0.255566
0.183223
0.124173
0.0806224
0.0499055
0.0294116
0.0165338
0.00886373
0.00453796
0.0022209
0.00104026
0.000466902
0.000201069
8.31927e-05
3.31164e-05
1.27007e-05
4.6993e-06
1.67975e-06
5.80791e-07
1.94488e-07
6.31484e-08
1.99021e-08
6.09457e-09
1.8151e-09
5.26204e-10
1.48612e-10
4.0919e-11
1.09919e-11
2.88252e-12
7.3839e-13
1.84864e-13
4.52578e-14
1.08396e-14
2.54098e-15
5.83224e-16
1.31122e-16
2.8885e-17
6.23688e-18
1.32034e-18
2.74127e-19
5.58307e-20
1.11572e-20
2.18821e-21
4.21279e-22
7.96299e-23
1.47804e-23
2.69447e-24
4.82507e-25
8.48868e-26
1.46738e-26
2.49268e-27
4.16163e-28
6.82943e-29
1.10173e-29
1.74736e-30
2.72488e-31
4.17841e-32
6.30104e-33
9.34525e-34
1.36327e-34
1.95626e-35
2.76156e-36
3.83534e-37
5.24093e-38
7.04695e-39
9.32417e-40
1.21449e-40
1.55873e-41
1.97122e-42
2.45631e-43
3.01587e-44
3.6486e-45
4.34931e-46
5.10855e-47
5.91232e-48
6.74226e-49
7.57609e-50
8.38849e-51
9.15233e-52
9.84006e-53
1.04255e-53
1.08852e-54
1.12004e-55
1.1358e-56
1.13515e-57
1.11817e-58
1.08563e-59
1.03894e-60
9.80048e-62
9.11328e-63
8.35389e-64
7.54932e-65
6.7259e-66
5.90792e-67
5.11657e-68
4.3692e-69
3.67894e-70
3.05463e-71
2.50109e-72
2.01953e-73
1.6082e-74
1.26304e-75
9.78347e-77
7.47458e-78
5.63265e-79
4.18681e-80
3.06979e-81
2.22024e-82
1.58403e-83
1.11481e-84
7.73947e-86
5.30014e-87
3.58031e-88
2.38548e-89
1.5676e-90
1.01583e-91
6.49081e-93
4.08795e-94
2.53746e-95
1.5511e-96
9.33691e-98
5.52617e-99
3.21673e-100
1.8369e-101
1.03164e-102
1.68938e-15
8.07727e-14
1.76388e-12
2.39084e-11
2.33166e-10
1.76661e-09
1.09075e-08
5.67172e-08
2.54576e-07
1.00549e-06
3.5487e-06
1.13336e-05
3.31019e-05
8.92228e-05
0.000223758
0.000526086
0.001168
0.0024655
0.00497951
0.00967676
0.0181821
0.0331691
0.0589578
0.102429
0.174555
0.293341
0.469235
0.605118
0.729985
0.789414
0.840423
0.875639
0.893269
0.906709
0.912766
0.915168
0.915725
0.915331
0.916951
0.920023
0.926712
0.935235
0.94458
0.953378
0.961424
0.967929
0.972673
0.975065
0.976046
0.972611
0.964519
0.949661
0.924618
0.88399
0.818565
0.713498
0.57771
0.430361
0.297553
0.200711
0.126804
0.0763885
0.04365
0.0237398
0.0122962
0.00607506
0.00286689
0.00129415
0.000559662
0.000232226
9.26025e-05
3.55422e-05
1.31505e-05
4.69734e-06
1.62212e-06
5.42256e-07
1.75691e-07
5.52348e-08
1.68676e-08
5.00841e-09
1.44724e-09
4.07326e-10
1.11747e-10
2.99043e-11
7.81125e-12
1.99278e-12
4.96812e-13
1.211e-13
2.88753e-14
6.73794e-15
1.5393e-15
3.44416e-16
7.55015e-17
1.62212e-17
3.41661e-18
7.05692e-19
1.42973e-19
2.84196e-20
5.54376e-21
1.06146e-21
1.99526e-22
3.68275e-23
6.67567e-24
1.1886e-24
2.07904e-25
3.57301e-26
6.03402e-27
1.00146e-27
1.63369e-28
2.61976e-29
4.13003e-30
6.40163e-31
9.75699e-32
1.46241e-32
2.15571e-33
3.12549e-34
4.45747e-35
6.25371e-36
8.63177e-37
1.17222e-37
1.56639e-38
2.05979e-39
2.6682e-40
3.40521e-41
4.28144e-42
5.30343e-43
6.47214e-44
7.7816e-45
9.21771e-46
1.07576e-46
1.23695e-47
1.40133e-48
1.56418e-49
1.7203e-50
1.86425e-51
1.99068e-52
2.09463e-53
2.1719e-54
2.21927e-55
2.23479e-56
2.21787e-57
2.16932e-58
2.09131e-59
1.98718e-60
1.86122e-61
1.71838e-62
1.56395e-63
1.40321e-64
1.24119e-65
1.08242e-66
9.30687e-68
7.89019e-69
6.59575e-70
5.43691e-71
4.41947e-72
3.5427e-73
2.80068e-74
2.18361e-75
1.67912e-76
1.2735e-77
9.52672e-79
7.02949e-80
5.11623e-81
3.67309e-82
2.60118e-83
1.81705e-84
1.25203e-85
8.50956e-87
5.70444e-88
3.77149e-89
2.4589e-90
1.58073e-91
1.00169e-92
6.25612e-94
3.84872e-95
2.3318e-96
1.38992e-97
8.15079e-99
4.69623e-100
2.66313e-101
3.43587e-15
1.74572e-13
3.97458e-12
5.54863e-11
5.538e-10
4.2753e-09
2.69024e-08
1.42829e-07
6.46892e-07
2.56885e-06
9.10385e-06
2.91622e-05
8.53546e-05
0.000230437
0.0005788
0.00136384
0.00303945
0.00645675
0.0131826
0.0260744
0.0503254
0.0953462
0.178075
0.328764
0.52225
0.666851
0.758477
0.812813
0.844062
0.857806
0.865188
0.868049
0.865949
0.846606
0.822074
0.794179
0.765771
0.747925
0.741298
0.747176
0.766492
0.798242
0.834372
0.869511
0.907279
0.937736
0.960608
0.975383
0.984049
0.988831
0.991212
0.992405
0.991395
0.987347
0.97849
0.961379
0.929142
0.869076
0.758465
0.591238
0.410958
0.267194
0.164935
0.096223
0.0532082
0.0279429
0.0139585
0.00664417
0.00301883
0.00131164
0.000545963
0.000218111
8.37796e-05
3.09947e-05
1.1062e-05
3.81446e-06
1.27263e-06
4.11342e-07
1.28963e-07
3.92612e-08
1.16184e-08
3.34516e-09
9.37891e-10
2.56268e-10
6.82909e-11
1.77601e-11
4.5104e-12
1.11922e-12
2.71505e-13
6.44187e-14
1.49559e-14
3.39907e-15
7.56522e-16
1.6495e-16
3.52448e-17
7.38215e-18
1.51614e-18
3.0541e-19
6.03557e-20
1.17043e-20
2.2277e-21
4.16237e-22
7.63622e-23
1.37577e-23
2.43452e-24
4.23202e-25
7.22791e-26
1.21302e-26
2.00062e-27
3.24309e-28
5.16775e-29
8.0954e-30
1.24685e-30
1.88831e-31
2.81228e-32
4.11914e-33
5.93416e-34
8.40915e-35
1.17226e-35
1.60771e-36
2.1694e-37
2.88043e-38
3.76619e-39
4.85083e-40
6.15455e-41
7.69203e-42
9.47011e-43
1.14854e-43
1.37221e-44
1.61505e-45
1.87263e-46
2.13908e-47
2.40727e-48
2.66903e-49
2.9156e-50
3.13809e-51
3.32796e-52
3.47762e-53
3.58093e-54
3.63358e-55
3.63342e-56
3.58062e-57
3.47759e-58
3.32887e-59
3.14073e-60
2.92078e-61
2.67746e-62
2.41947e-63
2.15531e-64
1.89284e-65
1.63888e-66
1.39905e-67
1.17758e-68
9.77321e-70
7.99818e-71
6.45461e-72
5.1368e-73
4.03159e-74
3.12058e-75
2.38225e-76
1.79367e-77
1.33205e-78
9.75715e-80
7.04959e-81
5.02397e-82
3.53162e-83
2.44872e-84
1.67469e-85
1.12964e-86
7.51507e-88
4.93016e-89
3.1892e-90
2.03372e-91
1.27827e-92
7.9156e-94
4.82817e-95
2.89892e-96
1.71313e-97
9.95848e-99
5.70211e-100
7.1927e-15
4.15243e-13
9.63448e-12
1.35358e-10
1.33412e-09
9.77214e-09
5.67542e-08
2.93063e-07
1.34074e-06
5.39677e-06
1.93585e-05
6.26864e-05
0.000185263
0.000504522
0.0012775
0.00303444
0.00682639
0.0147156
0.0308924
0.0620219
0.124433
0.248026
0.47823
0.635581
0.744337
0.796542
0.820616
0.830471
0.83351
0.820432
0.782504
0.715769
0.611631
0.530426
0.458019
0.412192
0.385486
0.373315
0.369668
0.378202
0.393627
0.424916
0.477681
0.555157
0.653603
0.764059
0.845831
0.910524
0.950865
0.975002
0.987562
0.993511
0.996191
0.99725
0.997607
0.996589
0.993423
0.985911
0.969074
0.931936
0.851139
0.689718
0.481856
0.30323
0.181408
0.102243
0.0545171
0.0275645
0.013243
0.00605847
0.002645
0.00110438
0.000441947
0.000169851
6.28136e-05
2.23924e-05
7.70778e-06
2.56564e-06
8.26998e-07
2.58467e-07
7.84152e-08
2.31181e-08
6.62953e-09
1.85087e-09
5.03487e-10
1.3355e-10
3.45651e-11
8.73469e-12
2.15637e-12
5.20355e-13
1.22798e-13
2.83526e-14
6.40753e-15
1.41793e-15
3.07357e-16
6.52834e-17
1.35915e-17
2.77439e-18
5.55417e-19
1.09077e-19
2.1019e-20
3.97514e-21
7.37977e-22
1.34514e-22
2.40772e-23
4.23284e-24
7.30993e-25
1.24027e-25
2.06775e-26
3.38781e-27
5.4555e-28
8.63563e-29
1.34384e-29
2.05608e-30
3.09325e-31
4.57634e-32
6.6587e-33
9.52943e-34
1.3415e-34
1.85778e-35
2.53113e-36
3.39303e-37
4.47814e-38
5.82117e-39
7.45296e-40
9.39847e-41
1.16735e-41
1.42815e-42
1.72099e-43
2.04282e-44
2.38858e-45
2.75116e-46
3.12159e-47
3.48924e-48
3.84235e-49
4.16859e-50
4.4558e-51
4.6927e-52
4.86964e-53
4.97929e-54
5.01708e-55
4.98158e-56
4.87455e-57
4.70081e-58
4.46787e-59
4.18542e-60
3.86462e-61
3.51741e-62
3.1558e-63
2.79116e-64
2.43372e-65
2.0921e-66
1.77314e-67
1.48174e-68
1.22092e-69
9.91989e-71
7.94783e-72
6.27958e-73
4.89294e-74
3.75994e-75
2.84957e-76
2.12999e-77
1.57032e-78
1.14188e-79
8.18988e-81
5.79383e-82
4.0428e-83
2.7824e-84
1.88869e-85
1.26441e-86
8.34757e-88
5.43419e-89
3.48765e-90
2.20641e-91
1.37551e-92
8.44831e-94
5.11019e-95
3.04373e-96
1.78493e-97
1.03186e-98
7.68911e-15
4.67591e-13
1.18465e-11
1.77208e-10
1.90329e-09
1.68266e-08
1.19436e-07
6.69435e-07
3.15185e-06
1.29931e-05
4.80245e-05
0.000160329
0.000481402
0.00130002
0.00319959
0.00727827
0.0154324
0.0311887
0.0631288
0.136002
0.292837
0.532087
0.673989
0.757146
0.79368
0.806426
0.810112
0.791546
0.734151
0.613719
0.483906
0.376881
0.323738
0.285177
0.266469
0.257974
0.255407
0.257594
0.261758
0.269535
0.274954
0.280422
0.287492
0.296064
0.323251
0.387018
0.52816
0.701738
0.827979
0.9095
0.955407
0.979399
0.991163
0.996362
0.998319
0.99902
0.999241
0.998934
0.997581
0.99368
0.983165
0.955729
0.885902
0.720578
0.490016
0.298634
0.171773
0.0931025
0.0476664
0.0231158
0.0106462
0.00466878
0.00195463
0.000783167
0.000301014
0.000111223
3.95856e-05
1.35952e-05
4.51281e-06
1.44996e-06
4.51536e-07
1.36453e-07
4.00594e-08
1.14365e-08
3.17794e-09
8.60252e-10
2.27021e-10
5.84481e-11
1.46899e-11
3.60635e-12
8.65276e-13
2.03001e-13
4.65907e-14
1.04652e-14
2.30151e-15
4.95745e-16
1.04625e-16
2.16412e-17
4.38863e-18
8.72765e-19
1.70256e-19
3.25872e-20
6.12114e-21
1.12863e-21
2.0431e-22
3.63187e-23
6.34085e-24
1.08746e-24
1.83229e-25
3.03359e-26
4.93578e-27
7.89313e-28
1.24077e-28
1.91747e-29
2.91348e-30
4.35297e-31
6.39579e-32
9.24223e-33
1.31363e-33
1.83665e-34
2.5262e-35
3.4185e-36
4.5539e-37
5.97407e-38
7.71797e-39
9.81954e-40
1.23039e-40
1.51836e-41
1.84541e-42
2.20909e-43
2.60466e-44
3.02494e-45
3.46042e-46
3.89942e-47
4.32861e-48
4.73359e-49
5.09971e-50
5.4129e-51
5.6606e-52
5.8326e-53
5.92173e-54
5.92434e-55
5.84059e-56
5.67438e-57
5.43306e-58
5.12693e-59
4.76842e-60
4.37138e-61
3.95011e-62
3.51856e-63
3.08965e-64
2.6746e-65
2.28263e-66
1.9207e-67
1.59348e-68
1.30352e-69
1.05146e-70
8.36354e-72
6.5603e-73
5.07471e-74
3.87139e-75
2.91278e-76
2.16144e-77
1.58192e-78
1.14192e-79
8.13036e-81
5.70953e-82
3.95463e-83
2.70155e-84
1.82015e-85
1.20936e-86
7.92361e-88
5.1186e-89
3.25972e-90
2.04607e-91
1.26559e-92
7.71275e-94
4.63055e-95
2.73915e-96
1.59845e-97
6.61451e-15
5.55753e-13
1.81769e-11
2.90016e-10
2.80092e-09
2.07463e-08
1.40014e-07
8.00146e-07
3.86751e-06
1.63132e-05
6.16258e-05
0.000210768
0.000650349
0.00180926
0.00456957
0.0107003
0.0242089
0.054919
0.132244
0.28127
0.512163
0.670981
0.746715
0.780273
0.790196
0.790089
0.750468
0.639818
0.46913
0.356864
0.293925
0.257295
0.241357
0.233645
0.230391
0.229304
0.229971
0.233787
0.24178
0.253647
0.265724
0.274105
0.277537
0.269395
0.259761
0.25424
0.268782
0.341149
0.533543
0.746221
0.869792
0.937224
0.97176
0.988284
0.995527
0.998394
0.999359
0.999664
0.99974
0.999574
0.998762
0.995998
0.98722
0.960589
0.882936
0.684891
0.437116
0.256894
0.141491
0.0733231
0.0358695
0.0166182
0.00731464
0.00306814
0.0012299
0.00047241
0.000174282
6.18869e-05
2.11929e-05
7.01093e-06
2.24401e-06
6.95898e-07
2.09354e-07
6.11688e-08
1.73755e-08
4.80303e-09
1.2931e-09
3.39335e-10
8.68592e-11
2.17009e-11
5.29513e-12
1.26256e-12
2.94327e-13
6.71139e-14
1.49759e-14
3.2715e-15
6.99906e-16
1.46698e-16
3.01333e-17
6.06789e-18
1.19818e-18
2.32071e-19
4.41e-20
8.22393e-21
1.50536e-21
2.70526e-22
4.77388e-23
8.27382e-24
1.4086e-24
2.35605e-25
3.87223e-26
6.25434e-27
9.92891e-28
1.54945e-28
2.37716e-29
3.58588e-30
5.31905e-31
7.75923e-32
1.11325e-32
1.57106e-33
2.18102e-34
2.97874e-35
4.00451e-36
5.30084e-37
6.90925e-38
8.86787e-39
1.12079e-39
1.39495e-40
1.70979e-41
2.06389e-42
2.45362e-43
2.8729e-44
3.31318e-45
3.76355e-46
4.21109e-47
4.64147e-48
5.03963e-49
5.39069e-50
5.68081e-51
5.89816e-52
6.0337e-53
6.08178e-54
6.04059e-55
5.91219e-56
5.70243e-57
5.42043e-58
5.07797e-59
4.68869e-60
4.26714e-61
3.82796e-62
3.38504e-63
2.95085e-64
2.53592e-65
2.14857e-66
1.79478e-67
1.47821e-68
1.20046e-69
9.61297e-71
7.59082e-72
5.91094e-73
4.53917e-74
3.43767e-75
2.56763e-76
1.89144e-77
1.37421e-78
9.8474e-80
6.95986e-81
4.85165e-82
3.33565e-83
2.26184e-84
1.51256e-85
9.97472e-87
6.48619e-88
4.15844e-89
2.62826e-90
1.63736e-91
1.00538e-92
6.08438e-94
3.63013e-95
2.138e-96
6.70345e-15
5.38342e-13
1.72054e-11
2.85449e-10
3.47897e-09
3.1559e-08
2.16212e-07
1.24643e-06
6.11499e-06
2.58123e-05
9.59088e-05
0.000320554
0.00097381
0.00268877
0.00691003
0.0176033
0.0442136
0.104342
0.222298
0.424785
0.627182
0.722467
0.762784
0.77628
0.775683
0.735992
0.589015
0.413184
0.313831
0.263837
0.240154
0.228711
0.217348
0.204485
0.191638
0.179001
0.170761
0.167851
0.180119
0.202875
0.238647
0.2743
0.297057
0.307585
0.28939
0.251733
0.232597
0.227577
0.269343
0.428703
0.694506
0.848582
0.929975
0.969855
0.987815
0.995393
0.998395
0.999474
0.999805
0.999897
0.999897
0.999733
0.99898
0.996066
0.98555
0.949809
0.834271
0.579705
0.347221
0.194155
0.101712
0.0501236
0.0233276
0.0102921
0.00432001
0.00173066
0.000663661
0.000244234
8.64539e-05
2.94963e-05
9.71722e-06
3.09607e-06
9.5544e-07
2.85947e-07
8.3094e-08
2.34701e-08
6.44969e-09
1.72592e-09
4.501e-10
1.14477e-10
2.84143e-11
6.88705e-12
1.63099e-12
3.77586e-13
8.54947e-14
1.89415e-14
4.10792e-15
8.72432e-16
1.81509e-16
3.7006e-17
7.39584e-18
1.44935e-18
2.7858e-19
5.2533e-20
9.72127e-21
1.76572e-21
3.14865e-22
5.51333e-23
9.48146e-24
1.60171e-24
2.65834e-25
4.33537e-26
6.94851e-27
1.09463e-27
1.69516e-28
2.58092e-29
3.86373e-30
5.68798e-31
8.23516e-32
1.17271e-32
1.6427e-33
2.26366e-34
3.07033e-35
4.09999e-36
5.39038e-37
6.97765e-38
8.89344e-39
1.11614e-39
1.37936e-40
1.67866e-41
2.01181e-42
2.37451e-43
2.7602e-44
3.16013e-45
3.56357e-46
3.95825e-47
4.3309e-48
4.66798e-49
4.95651e-50
5.1849e-51
5.34371e-52
5.42629e-53
5.42927e-54
5.35279e-55
5.20044e-56
4.97899e-57
4.69792e-58
4.36872e-59
4.00412e-60
3.61731e-61
3.22116e-62
2.82752e-63
2.44673e-64
2.08725e-65
1.75546e-66
1.45564e-67
1.1901e-68
9.59395e-70
7.62632e-71
5.97797e-72
4.62093e-73
3.52256e-74
2.64822e-75
1.96349e-76
1.4358e-77
1.03552e-78
7.36596e-80
5.1678e-81
3.57591e-82
2.44042e-83
1.64258e-84
1.09032e-85
7.13708e-87
4.60674e-88
2.93188e-89
1.8397e-90
1.13816e-91
6.94295e-93
4.17755e-94
2.48268e-95
7.67906e-15
4.57609e-13
1.42984e-11
2.62696e-10
3.31052e-09
3.05817e-08
2.15229e-07
1.27119e-06
6.54302e-06
2.94539e-05
0.000116693
0.000410822
0.00130131
0.00379932
0.0103368
0.0259256
0.0611716
0.141139
0.294401
0.531906
0.676786
0.736318
0.760742
0.76756
0.745582
0.625255
0.425144
0.310014
0.255559
0.230686
0.216459
0.195955
0.168236
0.134577
0.101014
0.0845109
0.077775
0.076641
0.0848035
0.0993468
0.126126
0.185165
0.269158
0.316965
0.334028
0.31852
0.25438
0.217486
0.215328
0.251747
0.42361
0.699365
0.856472
0.936849
0.974155
0.990032
0.99635
0.998746
0.999601
0.99988
0.999954
0.999966
0.999927
0.999689
0.998585
0.993935
0.975783
0.909604
0.699359
0.429749
0.243686
0.12878
0.0637914
0.0297634
0.0131389
0.00550993
0.0022029
0.000842301
0.000308856
0.00010887
3.69704e-05
1.21175e-05
3.83983e-06
1.17817e-06
3.50494e-07
1.01217e-07
2.84055e-08
7.75442e-09
2.06102e-09
5.33767e-10
1.34797e-10
3.32171e-11
7.99218e-12
1.87863e-12
4.31636e-13
9.69859e-14
2.13213e-14
4.5879e-15
9.66682e-16
1.99518e-16
4.03515e-17
7.9994e-18
1.55491e-18
2.96435e-19
5.54427e-20
1.01756e-20
1.83305e-21
3.24181e-22
5.62976e-23
9.60205e-24
1.60876e-24
2.64815e-25
4.28344e-26
6.80934e-27
1.064e-27
1.63441e-28
2.46841e-29
3.66576e-30
5.35362e-31
7.68981e-32
1.08645e-32
1.51003e-33
2.06567e-34
2.78168e-35
3.68758e-36
4.81268e-37
6.18391e-38
7.82335e-39
9.74532e-40
1.19534e-40
1.44379e-41
1.7173e-42
2.0116e-43
2.32066e-44
2.63678e-45
2.95088e-46
3.25284e-47
3.53208e-48
3.7781e-49
3.98121e-50
4.13308e-51
4.22739e-52
4.26022e-53
4.23031e-54
4.1392e-55
3.99103e-56
3.79227e-57
3.55124e-58
3.27754e-59
2.98144e-60
2.67322e-61
2.36262e-62
2.05837e-63
1.76785e-64
1.49685e-65
1.24952e-66
1.0284e-67
8.34542e-69
6.67765e-70
5.26873e-71
4.09932e-72
3.14527e-73
2.3799e-74
1.77595e-75
1.30703e-76
9.48702e-78
6.79167e-79
4.79546e-80
3.33958e-81
2.29383e-82
1.55394e-83
1.03824e-84
6.84137e-86
4.44583e-87
2.8492e-88
1.80072e-89
1.12244e-90
6.90123e-92
4.18713e-93
2.51039e-94
1.02406e-14
3.916e-13
1.1164e-11
2.03097e-10
2.59971e-09
2.45942e-08
1.86072e-07
1.13126e-06
5.90387e-06
2.69258e-05
0.000108082
0.000384926
0.001231
0.00362738
0.00998746
0.0254947
0.0635279
0.15419
0.340688
0.563971
0.682086
0.734252
0.755362
0.748768
0.673963
0.508128
0.343097
0.267508
0.231479
0.210413
0.188159
0.155301
0.118801
0.0844967
0.0630367
0.0532042
0.0495125
0.0523162
0.0602942
0.0725764
0.088353
0.116513
0.181875
0.28658
0.338784
0.344897
0.317229
0.234745
0.209678
0.2174
0.291307
0.53709
0.765717
0.892999
0.955181
0.982608
0.993674
0.997811
0.999279
0.999776
0.999936
0.999981
0.999988
0.999975
0.999879
0.999365
0.996918
0.986226
0.943159
0.781457
0.494016
0.283037
0.150421
0.074678
0.0348402
0.0153542
0.00642066
0.00255748
0.000973569
0.000355213
0.000124529
4.20408e-05
1.36942e-05
4.31139e-06
1.31396e-06
3.88179e-07
1.11301e-07
3.10071e-08
8.40144e-09
2.216e-09
5.69464e-10
1.42681e-10
3.48795e-11
8.32434e-12
1.9407e-12
4.42213e-13
9.85333e-14
2.14791e-14
4.58263e-15
9.57321e-16
1.95887e-16
3.92747e-17
7.71833e-18
1.4872e-18
2.81048e-19
5.21042e-20
9.47893e-21
1.69256e-21
2.96706e-22
5.10738e-23
8.63472e-24
1.43403e-24
2.33993e-25
3.75196e-26
5.91275e-27
9.15931e-28
1.39488e-28
2.08867e-29
3.07549e-30
4.45369e-31
6.34359e-32
8.88834e-33
1.22572e-33
1.66371e-34
2.22284e-35
2.92356e-36
3.7854e-37
4.82539e-38
6.05618e-39
7.48397e-40
9.10656e-41
1.09116e-41
1.28752e-42
1.49614e-43
1.71226e-44
1.93002e-45
2.14276e-46
2.34329e-47
2.52428e-48
2.67876e-49
2.80048e-50
2.88441e-51
2.92703e-52
2.92662e-53
2.88334e-54
2.79921e-55
2.67798e-56
2.52484e-57
2.34603e-58
2.14848e-59
1.9393e-60
1.72542e-61
1.51323e-62
1.30826e-63
1.11501e-64
9.36884e-66
7.76123e-67
6.33918e-68
5.1052e-69
4.05404e-70
3.1745e-71
2.45128e-72
1.86663e-73
1.4018e-74
1.03821e-75
7.58365e-77
5.46348e-78
3.88212e-79
2.72072e-80
1.8807e-81
1.28227e-82