/*--------------------------------*- C++ -*----------------------------------*\
  =========                 |
  \\      /  F ield         | OpenFOAM: The Open Source CFD Toolbox
   \\    /   O peration     | Website:  https://openfoam.org
    \\  /    A nd           | Version:  7
     \\/     M anipulation  |
\*---------------------------------------------------------------------------*/
FoamFile
{
    version     2.0;
    format      ascii;
    class       volVectorField;
    location    "0.02";
    object      U_0;
}
// * * * * * * * * * * * * * * * * * * * * * * * * * * * * * * * * * * * * * //

dimensions      [0 1 -1 0 0 0 0];

internalField   nonuniform List<vector> 
12225
(
(4.77267 0.171861 0)
(4.20604 0.122203 0)
(3.72361 0.110105 0)
(3.29062 0.093821 0)
(2.91889 0.0737584 0)
(2.625 0.0580031 0)
(2.36872 0.0525238 0)
(2.11752 0.0495524 0)
(1.87488 0.0410671 0)
(1.66047 0.0291772 0)
(1.48313 0.0189848 0)
(1.34727 0.0125333 0)
(1.23705 0.00866168 0)
(1.15961 0.0054933 0)
(1.08346 0.00244389 0)
(1.04369 -0.00101052 0)
(0.982643 0.00136347 0)
(0.949973 -0.00381794 0)
(5.03318 0.130571 0)
(4.83655 0.0698484 0)
(4.74919 0.0926915 0)
(4.66098 0.10167 0)
(4.54806 0.0922628 0)
(4.42574 0.0787834 0)
(4.29962 0.0746952 0)
(4.1752 0.0800826 0)
(4.05394 0.0859941 0)
(3.93674 0.0846752 0)
(3.82021 0.0757158 0)
(3.71523 0.0639943 0)
(3.61669 0.0535868 0)
(3.53953 0.0456317 0)
(3.46183 0.041414 0)
(3.40252 0.0367588 0)
(3.32897 0.0386243 0)
(3.26048 0.0295502 0)
(5.04203 0.231612 0)
(4.86816 0.137858 0)
(4.74321 0.132548 0)
(4.7233 0.139274 0)
(4.74064 0.132121 0)
(4.7443 0.120816 0)
(4.7222 0.116667 0)
(4.68748 0.118016 0)
(4.65318 0.116884 0)
(4.62306 0.109232 0)
(4.5951 0.096976 0)
(4.56848 0.0846363 0)
(4.54095 0.0740937 0)
(4.51162 0.0653451 0)
(4.47983 0.0592165 0)
(4.4445 0.0555726 0)
(4.41322 0.0570242 0)
(4.37274 0.0550635 0)
(5.00443 0.21751 0)
(4.90394 0.150008 0)
(4.83357 0.13241 0)
(4.79854 0.119853 0)
(4.79385 0.103238 0)
(4.79605 0.092722 0)
(4.79255 0.0947078 0)
(4.7859 0.103343 0)
(4.78064 0.107356 0)
(4.77674 0.10249 0)
(4.77264 0.0916837 0)
(4.76607 0.0802178 0)
(4.75654 0.0717714 0)
(4.74241 0.0662466 0)
(4.72565 0.0642018 0)
(4.70561 0.0632855 0)
(4.68892 0.0641387 0)
(4.67128 0.0624183 0)
(4.97645 0.236813 0)
(4.88473 0.142506 0)
(4.8289 0.131532 0)
(4.80389 0.139322 0)
(4.80682 0.128428 0)
(4.8151 0.114148 0)
(4.8186 0.110296 0)
(4.82297 0.11414 0)
(4.83141 0.115501 0)
(4.83868 0.109612 0)
(4.839 0.0990433 0)
(4.83075 0.0888299 0)
(4.8174 0.082238 0)
(4.80238 0.0786593 0)
(4.78857 0.0768755 0)
(4.77579 0.0752929 0)
(4.76618 0.0740063 0)
(4.75551 0.0721913 0)
(4.99462 0.29428 0)
(4.92287 0.195783 0)
(4.85644 0.152549 0)
(4.84582 0.135038 0)
(4.85429 0.115836 0)
(4.85443 0.101278 0)
(4.84672 0.0981647 0)
(4.84169 0.102814 0)
(4.84075 0.10642 0)
(4.8361 0.104541 0)
(4.82298 0.098653 0)
(4.80415 0.0918643 0)
(4.78752 0.0860669 0)
(4.7778 0.0811342 0)
(4.77665 0.0770508 0)
(4.7799 0.0741513 0)
(4.78625 0.0726629 0)
(4.78859 0.0720997 0)
(4.94356 0.238622 0)
(4.94072 0.175248 0)
(4.89698 0.137777 0)
(4.85233 0.130839 0)
(4.84096 0.122905 0)
(4.84719 0.112259 0)
(4.85394 0.106918 0)
(4.8594 0.109019 0)
(4.86325 0.113333 0)
(4.86208 0.114348 0)
(4.85542 0.110315 0)
(4.84664 0.102126 0)
(4.84091 0.0920001 0)
(4.83952 0.0820112 0)
(4.84265 0.0741431 0)
(4.84619 0.0695792 0)
(4.85078 0.0683481 0)
(4.8516 0.070163 0)
(4.90487 0.266998 0)
(4.93646 0.206519 0)
(4.91683 0.172193 0)
(4.89471 0.14764 0)
(4.88104 0.123909 0)
(4.868 0.105681 0)
(4.85218 0.0990298 0)
(4.84365 0.102571 0)
(4.84904 0.109097 0)
(4.86473 0.111968 0)
(4.88284 0.108915 0)
(4.89703 0.101041 0)
(4.90493 0.0911761 0)
(4.90688 0.081834 0)
(4.9055 0.0747811 0)
(4.90293 0.0707459 0)
(4.90188 0.0695133 0)
(4.90266 0.0705995 0)
(5.00295 0.25326 0)
(4.96701 0.165215 0)
(4.95043 0.149885 0)
(4.93629 0.14398 0)
(4.93031 0.135085 0)
(4.92308 0.124161 0)
(4.90765 0.114202 0)
(4.89105 0.106004 0)
(4.88193 0.0996681 0)
(4.88173 0.0951334 0)
(4.88619 0.0920701 0)
(4.88986 0.0894503 0)
(4.88992 0.0861506 0)
(4.88665 0.0815792 0)
(4.88209 0.0761253 0)
(4.87866 0.0712098 0)
(4.87731 0.0677107 0)
(4.87929 0.0671791 0)
(4.99668 0.292707 0)
(4.95202 0.224341 0)
(4.9052 0.178156 0)
(4.87872 0.147352 0)
(4.88059 0.128183 0)
(4.89546 0.117916 0)
(4.90234 0.115037 0)
(4.89476 0.115956 0)
(4.87834 0.11599 0)
(4.86195 0.112758 0)
(4.85147 0.106882 0)
(4.84744 0.0998372 0)
(4.84798 0.0926273 0)
(4.85053 0.0857737 0)
(4.85444 0.07929 0)
(4.85901 0.0740303 0)
(4.86557 0.0696995 0)
(4.87334 0.0680062 0)
(4.97165 0.243724 0)
(4.96683 0.200961 0)
(4.95339 0.173527 0)
(4.9327 0.145653 0)
(4.91714 0.124262 0)
(4.90752 0.115771 0)
(4.8987 0.11748 0)
(4.88912 0.119844 0)
(4.87967 0.116773 0)
(4.8726 0.108848 0)
(4.87028 0.0996597 0)
(4.87317 0.0915341 0)
(4.88032 0.0846202 0)
(4.88974 0.0778798 0)
(4.90002 0.0703676 0)
(4.90902 0.0628001 0)
(4.91758 0.0558394 0)
(4.92282 0.051966 0)
(4.96957 0.249196 0)
(5.02779 0.213096 0)
(5.04682 0.195508 0)
(5.02226 0.168852 0)
(4.99049 0.143805 0)
(4.96982 0.12693 0)
(4.96209 0.120807 0)
(4.95971 0.12136 0)
(4.95456 0.121279 0)
(4.94568 0.115926 0)
(4.9383 0.105513 0)
(4.93748 0.0930747 0)
(4.94413 0.0816176 0)
(4.95556 0.0727022 0)
(4.96789 0.0663915 0)
(4.97722 0.0623427 0)
(4.9828 0.0601336 0)
(4.9829 0.0596626 0)
(5.00804 0.2167 0)
(4.95925 0.184633 0)
(4.94832 0.178102 0)
(4.95531 0.159926 0)
(4.98006 0.139105 0)
(4.99536 0.128319 0)
(4.98935 0.128173 0)
(4.97127 0.131503 0)
(4.95317 0.130637 0)
(4.94137 0.121896 0)
(4.93707 0.106656 0)
(4.93827 0.0892161 0)
(4.94258 0.0736668 0)
(4.94824 0.0621167 0)
(4.95479 0.0547482 0)
(4.96125 0.0510255 0)
(4.96775 0.0500339 0)
(4.97303 0.0517509 0)
(5.04886 0.213121 0)
(4.97185 0.236313 0)
(4.9471 0.196268 0)
(4.93383 0.152542 0)
(4.93366 0.125273 0)
(4.94087 0.120587 0)
(4.95014 0.128803 0)
(4.96179 0.135842 0)
(4.97595 0.133539 0)
(4.98989 0.121746 0)
(5.00044 0.104996 0)
(5.00542 0.0883723 0)
(5.00554 0.0748348 0)
(5.0023 0.0650319 0)
(4.99881 0.0582479 0)
(4.99544 0.0540194 0)
(4.99442 0.0518715 0)
(4.99361 0.0523649 0)
(5.04518 0.277427 0)
(5.03926 0.249874 0)
(5.00959 0.205875 0)
(4.98724 0.16733 0)
(4.97229 0.136089 0)
(4.96114 0.121515 0)
(4.95531 0.118143 0)
(4.95976 0.116674 0)
(4.97271 0.112014 0)
(4.98686 0.103986 0)
(4.99651 0.0945693 0)
(4.99992 0.0851286 0)
(4.99969 0.0762505 0)
(4.99894 0.0679999 0)
(5.00125 0.0606973 0)
(5.00672 0.0552085 0)
(5.0164 0.0515032 0)
(5.02745 0.0512471 0)
(5.00562 0.256865 0)
(5.01299 0.290721 0)
(4.98618 0.245104 0)
(4.97644 0.173205 0)
(4.98866 0.136816 0)
(5.01356 0.129051 0)
(5.03701 0.126677 0)
(5.05244 0.119751 0)
(5.05787 0.109848 0)
(5.0553 0.100999 0)
(5.04952 0.0941391 0)
(5.04444 0.0869382 0)
(5.04221 0.0769034 0)
(5.04293 0.0634595 0)
(5.04564 0.0478827 0)
(5.04903 0.0333339 0)
(5.05264 0.0217294 0)
(5.05603 0.0162026 0)
(4.93204 0.209271 0)
(4.98347 0.248636 0)
(5.03992 0.228556 0)
(5.07216 0.159454 0)
(5.07881 0.101834 0)
(5.0749 0.0754132 0)
(5.06978 0.0771743 0)
(5.06421 0.09299 0)
(5.05973 0.107742 0)
(5.0602 0.112509 0)
(5.06708 0.105888 0)
(5.07771 0.0917283 0)
(5.08807 0.0755596 0)
(5.09519 0.0621401 0)
(5.09794 0.0532909 0)
(5.0966 0.0488443 0)
(5.09302 0.0468919 0)
(5.08849 0.0457629 0)
(5.00765 0.288586 0)
(5.05419 0.177287 0)
(5.07626 0.148552 0)
(5.09631 0.1335 0)
(5.08988 0.129943 0)
(5.06755 0.140482 0)
(5.04643 0.148256 0)
(5.03388 0.140231 0)
(5.03248 0.117736 0)
(5.04232 0.0908391 0)
(5.05909 0.0689437 0)
(5.07624 0.0560522 0)
(5.08943 0.0508208 0)
(5.09764 0.0490994 0)
(5.10223 0.0466301 0)
(5.10466 0.0415922 0)
(5.1068 0.0337107 0)
(5.10876 0.0253787 0)
(5.08372 0.277055 0)
(5.08323 0.179135 0)
(5.06161 0.166286 0)
(5.03404 0.168018 0)
(5.01626 0.157962 0)
(5.00986 0.144732 0)
(5.019 0.130361 0)
(5.03936 0.11033 0)
(5.06264 0.0849649 0)
(5.08387 0.060073 0)
(5.10107 0.0413912 0)
(5.11394 0.0312976 0)
(5.12367 0.0286459 0)
(5.13108 0.0304134 0)
(5.13653 0.0334243 0)
(5.13963 0.0355746 0)
(5.14114 0.0360429 0)
(5.14074 0.0345814 0)
(5.05208 0.303407 0)
(5.03935 0.290838 0)
(5.03109 0.214389 0)
(5.0277 0.169745 0)
(5.03107 0.146258 0)
(5.03971 0.122037 0)
(5.05251 0.0926724 0)
(5.06651 0.0634654 0)
(5.07901 0.04012 0)
(5.08976 0.0246662 0)
(5.10012 0.0169217 0)
(5.1117 0.0158618 0)
(5.12537 0.0196016 0)
(5.14035 0.0259911 0)
(5.15563 0.0320987 0)
(5.16957 0.0356675 0)
(5.18215 0.0352161 0)
(5.19169 0.030638 0)
(5.0056 0.322248 0)
(5.05219 0.262709 0)
(5.07126 0.209081 0)
(5.08454 0.182036 0)
(5.10071 0.158284 0)
(5.11748 0.127699 0)
(5.12764 0.0936574 0)
(5.13043 0.0626086 0)
(5.12824 0.0371901 0)
(5.12416 0.0162191 0)
(5.12134 -0.00148693 0)
(5.12212 -0.0151805 0)
(5.12859 -0.023107 0)
(5.141 -0.0252709 0)
(5.15774 -0.022761 0)
(5.17592 -0.017482 0)
(5.19379 -0.011023 0)
(5.20885 -0.00469064 0)
(5.03735 0.235929 0)
(5.06228 0.195402 0)
(5.08426 0.182131 0)
(5.09708 0.142651 0)
(5.12227 0.110212 0)
(5.16106 0.0921467 0)
(5.19923 0.0809781 0)
(5.22865 0.0699002 0)
(5.24746 0.0559794 0)
(5.25531 0.0393801 0)
(5.25372 0.0214217 0)
(5.24653 0.00421638 0)
(5.23752 -0.0100474 0)
(5.22864 -0.0199406 0)
(5.22183 -0.0247242 0)
(5.21796 -0.0249776 0)
(5.21731 -0.0222089 0)
(5.2193 -0.0177696 0)
(5.0631 0.261756 0)
(5.03681 0.219884 0)
(5.06642 0.185855 0)
(5.09131 0.144994 0)
(5.11487 0.0971271 0)
(5.13807 0.0506092 0)
(5.16022 0.0179387 0)
(5.18134 0.00395472 0)
(5.2013 0.00276308 0)
(5.21817 0.005226 0)
(5.2299 0.00598717 0)
(5.2358 0.00311967 0)
(5.23762 -0.00252153 0)
(5.23797 -0.00868355 0)
(5.23903 -0.0135201 0)
(5.24109 -0.0163364 0)
(5.24551 -0.0177007 0)
(5.25231 -0.0182684 0)
(4.93416 0.234492 0)
(4.96873 0.20192 0)
(5.03188 0.151691 0)
(5.1364 0.115641 0)
(5.21139 0.087742 0)
(5.23403 0.0641975 0)
(5.22575 0.0448855 0)
(5.21389 0.0314821 0)
(5.21201 0.0226495 0)
(5.22106 0.0157041 0)
(5.23555 0.00793248 0)
(5.24991 -0.000980543 0)
(5.26246 -0.00957909 0)
(5.27377 -0.016726 0)
(5.28589 -0.0228258 0)
(5.29981 -0.0279092 0)
(5.3163 -0.0325751 0)
(5.33407 -0.0369036 0)
(4.95965 0.252162 0)
(5.01436 0.182306 0)
(5.10438 0.0647121 0)
(5.16731 0.0162185 0)
(5.20387 0.0195882 0)
(5.23341 0.0282463 0)
(5.26665 0.0233219 0)
(5.30063 0.00839059 0)
(5.32658 -0.00635608 0)
(5.33913 -0.0158392 0)
(5.33962 -0.020987 0)
(5.33513 -0.0245368 0)
(5.33273 -0.0294896 0)
(5.33602 -0.0368463 0)
(5.34565 -0.0455997 0)
(5.35925 -0.054207 0)
(5.37468 -0.0614676 0)
(5.38808 -0.0663844 0)
(4.92737 0.23681 0)
(5.0678 0.119355 0)
(5.17484 0.0861457 0)
(5.22295 0.0752691 0)
(5.24022 0.056414 0)
(5.26669 0.0298385 0)
(5.3067 0.00532884 0)
(5.34545 -0.00582742 0)
(5.37292 -0.00259379 0)
(5.38959 0.00549819 0)
(5.40227 0.00940308 0)
(5.41639 0.00460135 0)
(5.43342 -0.00835611 0)
(5.45153 -0.0253375 0)
(5.46763 -0.041258 0)
(5.47951 -0.0529197 0)
(5.48676 -0.0591921 0)
(5.49006 -0.0607563 0)
(5.04634 0.201452 0)
(5.06261 0.0475143 0)
(5.1635 -0.00532392 0)
(5.25675 -0.0112298 0)
(5.32451 -0.0120599 0)
(5.36474 -0.0205261 0)
(5.37899 -0.0305844 0)
(5.38044 -0.0354065 0)
(5.38324 -0.0351787 0)
(5.39644 -0.0345868 0)
(5.42115 -0.0378898 0)
(5.45138 -0.0458851 0)
(5.47895 -0.0560248 0)
(5.49794 -0.0650253 0)
(5.5064 -0.0709375 0)
(5.50618 -0.0737354 0)
(5.50073 -0.0743912 0)
(5.49418 -0.0746807 0)
(4.99006 0.213601 0)
(5.16074 0.0901824 0)
(5.29676 0.0334754 0)
(5.35168 0.0071403 0)
(5.37999 0.000183925 0)
(5.41008 -0.00186877 0)
(5.43736 -0.0022919 0)
(5.45779 -0.00410896 0)
(5.47583 -0.00864304 0)
(5.49648 -0.0155724 0)
(5.52008 -0.0239355 0)
(5.54272 -0.0322567 0)
(5.55977 -0.0392104 0)
(5.56872 -0.0440578 0)
(5.56959 -0.0466757 0)
(5.56457 -0.0478279 0)
(5.55666 -0.0483473 0)
(5.54887 -0.0498813 0)
(5.00833 0.0593471 0)
(5.22763 -0.0536418 0)
(5.38068 -0.0460388 0)
(5.4275 -0.0464272 0)
(5.43833 -0.0490064 0)
(5.45657 -0.0505185 0)
(5.48462 -0.0515362 0)
(5.51072 -0.0523523 0)
(5.52647 -0.054318 0)
(5.53001 -0.0582828 0)
(5.52305 -0.0633856 0)
(5.5087 -0.0677346 0)
(5.48996 -0.069838 0)
(5.47048 -0.0694034 0)
(5.45211 -0.0674213 0)
(5.43569 -0.0655795 0)
(5.41964 -0.0650869 0)
(5.40336 -0.0671059 0)
(4.93883 0.125858 0)
(5.10436 0.00697368 0)
(5.02575 -0.0138862 0)
(4.87835 -0.0176993 0)
(4.75271 -0.0175376 0)
(4.64292 -0.0198912 0)
(4.53418 -0.0219027 0)
(4.4283 -0.0203031 0)
(4.3295 -0.0169137 0)
(4.23518 -0.0150853 0)
(4.1392 -0.0163415 0)
(4.0381 -0.0200184 0)
(3.93233 -0.0244239 0)
(3.82584 -0.0279657 0)
(3.72171 -0.0298413 0)
(3.6226 -0.029982 0)
(3.52822 -0.02855 0)
(3.43966 -0.027047 0)
(0.00326004 -0.0278262 4.91554e-20)
(-0.000861677 -0.0270136 -4.88059e-20)
(-0.00589753 -0.0235372 0)
(-0.0152375 -0.0185733 0)
(-0.0292378 -0.0121041 0)
(-0.0487518 -0.00448527 4.73564e-20)
(-0.0743891 0.00390171 0)
(-0.10648 0.0127055 0)
(-0.145249 0.0216947 0)
(-0.190836 0.0307572 0)
(-0.243341 0.0398441 -4.55305e-20)
(-0.302828 0.0489051 0)
(-0.369307 0.057877 0)
(-0.442727 0.066675 0)
(-0.522963 0.075188 0)
(-0.609818 0.083284 -4.36875e-20)
(-0.703014 0.0908286 0)
(-0.802214 0.0976989 0)
(-0.907024 0.103792 0)
(-1.01698 0.109042 0)
(-1.13144 0.113419 0)
(-1.24957 0.116833 0)
(-1.37049 0.119194 0)
(-1.49325 0.120406 -4.07068e-20)
(-1.61678 0.120389 4.03341e-20)
(-1.73992 0.119086 -3.99625e-20)
(-1.86144 0.116454 -3.95924e-20)
(-1.97998 0.112458 0)
(-2.0941 0.107073 0)
(-2.2023 0.1003 3.84979e-20)
(-2.30299 0.092178 3.81408e-20)
(-2.39461 0.0827771 0)
(-2.47559 0.0722073 0)
(-2.54446 0.0606322 3.71038e-20)
(-2.59987 0.04824 0)
(-2.6407 0.035275 0)
(-2.66583 0.0220986 -3.61332e-20)
(-2.67459 0.0090232 0)
(-2.6667 -0.00371184 -3.55272e-20)
(-2.64286 -0.0159247 -7.04727e-20)
(-2.60313 -0.0275795 0)
(-2.54806 -0.0385625 0)
(-2.47843 -0.0487194 0)
(-2.39522 -0.0579265 0)
(-2.29958 -0.0660827 0)
(-2.19281 -0.073123 -6.72696e-20)
(-2.0763 -0.0790155 -6.67672e-20)
(-1.95148 -0.0837569 -6.62688e-20)
(-1.8198 -0.0873708 0)
(-1.68273 -0.0899013 6.52769e-20)
(-1.54166 -0.0914144 0)
(-1.39787 -0.0920051 -6.42826e-20)
(-1.25254 -0.0917687 -6.3782e-20)
(-1.10683 -0.0907799 0)
(-0.961729 -0.089153 0)
(-0.818093 -0.086952 0)
(-0.676652 -0.0842482 -6.17435e-20)
(-0.538151 -0.081311 0)
(-0.403175 -0.0780072 0)
(-0.272108 -0.0745413 0)
(-0.14527 -0.0708133 0)
(-0.0235103 -0.067106 0)
(0.0931352 -0.0633995 0)
(0.205205 -0.0596616 0)
(0.312366 -0.0559514 0)
(0.414554 -0.0523057 5.68695e-20)
(0.511768 -0.0487509 0)
(0.604053 -0.0453062 0)
(0.691487 -0.0419856 -5.5194e-20)
(0.774173 -0.0387992 -5.4639e-20)
(0.852231 -0.0357538 0)
(0.925796 -0.0328538 5.35359e-20)
(0.995014 -0.0301013 -5.29881e-20)
(1.06004 -0.0274972 0)
(1.12102 -0.0250407 5.19008e-20)
(1.17813 -0.0227303 0)
(1.23151 -0.0205635 0)
(1.28135 -0.0185371 -5.02925e-20)
(1.32779 -0.0166477 0)
(1.37099 -0.0148912 4.92364e-20)
(1.41113 -0.0132633 0)
(1.44834 -0.0117592 -4.81936e-20)
(1.4828 -0.0103742 -4.76774e-20)
(1.51464 -0.00910295 -4.71645e-20)
(1.54401 -0.00794036 -9.33102e-20)
(1.57107 -0.006881 9.22983e-20)
(1.59594 -0.00591937 0)
(1.61877 -0.00504988 0)
(1.63968 -0.0042669 0)
(1.6588 -0.00356468 8.83194e-20)
(1.67625 -0.00293737 8.73418e-20)
(1.69215 -0.00237901 -8.63711e-20)
(1.7066 -0.00188359 0)
(1.71972 -0.0014453 8.44498e-20)
(1.7316 -0.00105927 8.34992e-20)
(1.74235 -0.000720995 8.25552e-20)
(1.75204 -0.000426023 0)
(1.76076 -0.000170509 0)
(1.76859 4.96714e-05 0)
(1.7756 0.000238259 7.88449e-20)
(1.78187 0.000398192 0)
(1.78745 0.000533762 0)
(1.7924 0.000646761 -7.61295e-20)
(1.79678 0.000740491 0)
(1.80063 0.0008188 0)
(1.80401 0.000880543 -7.34704e-20)
(1.80695 0.000933108 0)
(1.80949 0.000975408 0)
(1.81168 0.0010097 7.08662e-20)
(1.81351 0.00104628 7.001e-20)
(1.815 0.00108508 0)
(1.8162 0.00112027 -6.83153e-20)
(1.81711 0.00114884 0)
(1.81776 0.00117573 6.66438e-20)
(1.81818 0.00120369 0)
(1.81838 0.00122455 6.4995e-20)
(1.81839 0.00123359 6.41791e-20)
(1.81821 0.00123901 0)
(1.81787 0.00124439 0)
(1.81738 0.00124967 0)
(1.81674 0.00125294 0)
(1.81597 0.00125175 0)
(1.81509 0.00124282 0)
(1.81412 0.00122424 0)
(1.81307 0.00119687 5.78464e-20)
(1.81196 0.00116362 -5.70785e-20)
(1.81082 0.00112812 0)
(1.80964 0.00109332 0)
(1.80843 0.00106085 0)
(1.80719 0.00103106 0)
(1.80593 0.00100362 -1.06629e-19)
(1.80464 0.000978049 0)
(1.80331 0.000953986 1.03686e-19)
(1.80196 0.000931296 -1.02229e-19)
(1.80058 0.000909972 0)
(1.79918 0.000890067 0)
(1.79775 0.000871609 0)
(1.79629 0.000854603 9.6494e-20)
(1.79481 0.000839013 9.50832e-20)
(1.79331 0.000824795 0)
(1.79179 0.000811877 9.22885e-20)
(1.79024 0.000800195 9.09043e-20)
(1.78867 0.000789667 -8.95289e-20)
(1.78707 0.000780222 0)
(1.78546 0.00077179 0)
(1.78382 0.000764332 -8.54541e-20)
(1.78216 0.000757824 0)
(1.78048 0.000752261 0)
(1.77877 0.000747634 0)
(1.77703 0.000743947 0)
(1.77528 0.000741217 7.88285e-20)
(1.77349 0.000739499 7.75275e-20)
(1.77167 0.000738862 0)
(1.76983 0.00073945 7.49489e-20)
(1.76794 0.000741368 0)
(1.76602 0.00074494 0)
(1.76406 0.000750241 7.11381e-20)
(1.76205 0.000758034 0)
(1.75998 0.000768121 6.86348e-20)
(1.75785 0.000782213 0)
(1.75563 0.000799486 0)
(1.75333 0.00082316 6.49342e-20)
(1.7509 0.000852049 0)
(1.74837 0.0008903 6.25026e-20)
(1.74559 0.000939239 0)
(1.74273 0.000999715 0)
(1.73939 0.00108506 0)
(1.73602 0.00117898 -5.77229e-20)
(1.73175 0.00133641 0)
(1.72758 0.00147545 5.53748e-20)
(1.72169 0.00179339 0)
(1.7161 0.00197161 0)
(1.70744 0.00268523 0)
(1.69891 0.00281269 0)
(1.68573 0.00463791 0)
(1.66946 0.00426648 0)
(1.65019 0.00964685 0)
(1.60894 0.00708231 -9.26149e-20)
(1.58615 0.0263618 0)
(1.44944 0.0201969 0)
(-0.0138227 0.0233926 -1.47488e-19)
(-0.0692801 0.0472504 1.46415e-19)
(-0.12329 0.0563533 0)
(-0.17999 0.0694568 -9.61439e-20)
(-0.238975 0.0846161 0)
(-0.30041 0.100918 -4.73171e-20)
(-0.364399 0.117707 9.39258e-20)
(-0.431115 0.134682 9.31862e-20)
(-0.500736 0.151709 0)
(-0.57338 0.16867 9.17069e-20)
(-0.649129 0.185444 4.54708e-20)
(-0.728025 0.201889 0)
(-0.810061 0.217839 0)
(-0.895189 0.233119 0)
(-0.98331 0.247549 0)
(-1.07428 0.260956 4.36227e-20)
(-1.1679 0.273168 0)
(-1.26393 0.284009 -8.57749e-20)
(-1.36206 0.293303 0)
(-1.46195 0.300898 0)
(-1.56328 0.306658 8.35416e-20)
(-1.66571 0.310413 0)
(-1.76879 0.311983 -8.20521e-20)
(-1.87194 0.311175 4.06571e-20)
(-1.97454 0.307797 -4.02875e-20)
(-2.07585 0.301659 3.99191e-20)
(-2.17504 0.292585 3.95523e-20)
(-2.27117 0.280407 0)
(-2.36315 0.264991 0)
(-2.4498 0.246251 -3.84675e-20)
(-2.52986 0.224166 3.80841e-20)
(-2.60201 0.198796 0)
(-2.6649 0.170302 0)
(-2.71723 0.138963 -3.70856e-20)
(-2.75777 0.105163 0)
(-2.78546 0.069409 0)
(-2.79948 0.0323515 3.61228e-20)
(-2.79896 -0.00530403 0)
(-2.78326 -0.0428549 -3.54793e-20)
(-2.75127 -0.079592 7.0453e-20)
(-2.70332 -0.11492 0)
(-2.63984 -0.148284 0)
(-2.56156 -0.179182 1.37535e-19)
(-2.4695 -0.207205 1.36489e-19)
(-2.36487 -0.232048 1.35463e-19)
(-2.24903 -0.253509 -6.72047e-20)
(-2.12345 -0.271492 6.67455e-20)
(-1.9896 -0.285992 1.9871e-19)
(-1.84899 -0.297091 -1.31476e-19)
(-1.70311 -0.304941 -6.52574e-20)
(-1.55336 -0.309746 0)
(-1.40103 -0.31176 6.42653e-20)
(-1.24727 -0.311254 -6.37528e-20)
(-1.09322 -0.308508 0)
(-0.939862 -0.303847 0)
(-0.787991 -0.297497 0)
(-0.638425 -0.28974 6.17335e-20)
(-0.491819 -0.280974 0)
(-0.348581 -0.271246 -1.21384e-19)
(-0.209089 -0.260893 0)
(-0.0737621 -0.250068 -1.19278e-19)
(0.0564123 -0.238987 0)
(0.181816 -0.227852 1.17067e-19)
(0.302975 -0.216647 0)
(0.4194 -0.205512 -1.14819e-19)
(0.531075 -0.194542 5.68476e-20)
(0.638024 -0.18381 0)
(0.740304 -0.173369 1.11459e-19)
(0.837999 -0.163255 5.51727e-20)
(0.931212 -0.153496 5.46175e-20)
(1.02006 -0.14411 0)
(1.10467 -0.135109 5.35131e-20)
(1.18518 -0.126497 5.29658e-20)
(1.26173 -0.118276 0)
(1.33445 -0.110443 -5.1878e-20)
(1.4035 -0.102995 1.02676e-19)
(1.469 -0.0959238 0)
(1.5311 -0.0892216 5.02687e-20)
(1.58994 -0.0828793 0)
(1.64565 -0.0768869 -1.47635e-19)
(1.69836 -0.071234 0)
(1.74819 -0.0659095 1.44505e-19)
(1.79528 -0.0609024 4.7652e-20)
(1.83974 -0.0562013 -4.71384e-20)
(1.88169 -0.0517945 -9.32575e-20)
(1.92125 -0.0476705 9.22451e-20)
(1.95851 -0.0438176 0)
(1.9936 -0.0402241 0)
(2.0266 -0.0368782 0)
(2.05763 -0.0337683 -2.64795e-19)
(2.08677 -0.0308825 -8.72874e-20)
(2.11412 -0.0282089 8.63163e-20)
(2.13977 -0.0257354 0)
(2.16381 -0.0234502 8.43942e-20)
(2.18632 -0.021342 -8.3444e-20)
(2.20738 -0.0194 -8.25e-20)
(2.22706 -0.0176138 0)
(2.24545 -0.0159732 0)
(2.26261 -0.0144685 0)
(2.27861 -0.0130901 -7.879e-20)
(2.29352 -0.0118291 0)
(2.3074 -0.0106763 1.53948e-19)
(2.32032 -0.00962383 2.28226e-19)
(2.33232 -0.00866382 -1.50366e-19)
(2.34347 -0.00778756 0)
(2.35382 -0.00699022 -7.34173e-20)
(2.36342 -0.00626193 0)
(2.37231 -0.00559737 -1.43352e-19)
(2.38053 -0.00499097 7.08146e-20)
(2.38816 -0.00443148 6.9959e-20)
(2.39523 -0.00391766 0)
(2.40178 -0.0034524 2.04797e-19)
(2.40785 -0.00303153 -1.34855e-19)
(2.41347 -0.0026496 -6.65953e-20)
(2.41866 -0.00230619 0)
(2.42346 -0.00199419 -6.49478e-20)
(2.42788 -0.00170321 -1.92397e-19)
(2.43195 -0.00143774 0)
(2.4357 -0.00119873 -1.25036e-19)
(2.43915 -0.000980708 -1.23439e-19)
(2.44232 -0.000785 -1.21852e-19)
(2.44524 -0.000610835 0)
(2.44792 -0.000458569 0)
(2.45039 -0.000328966 0)
(2.45265 -0.000221315 5.78049e-20)
(2.45474 -0.000133037 5.70377e-20)
(2.45665 -6.00536e-05 0)
(2.45841 2.32865e-06 1.11037e-19)
(2.46003 5.81727e-05 1.09532e-19)
(2.46151 0.000110269 0)
(2.46287 0.000159963 1.06554e-19)
(2.46411 0.000207567 2.10158e-19)
(2.46523 0.000252786 -1.03614e-19)
(2.46623 0.000295231 -1.02158e-19)
(2.46713 0.00033459 0)
(2.46792 0.000370782 0)
(2.46861 0.000403861 0)
(2.46921 0.000434018 -9.64285e-20)
(2.46973 0.000461474 9.50189e-20)
(2.47016 0.000486498 1.87237e-19)
(2.47053 0.000509328 -9.22268e-20)
(2.47082 0.000530222 9.08439e-20)
(2.47106 0.000549404 8.94698e-20)
(2.47123 0.000567099 0)
(2.47135 0.000583511 0)
(2.47141 0.000598855 -8.53986e-20)
(2.47143 0.000613346 0)
(2.47141 0.000627217 0)
(2.47134 0.000640702 1.62805e-19)
(2.47123 0.000654054 0)
(2.47109 0.000667543 7.87789e-20)
(2.4709 0.00068149 -7.74791e-20)
(2.47068 0.000696252 0)
(2.47043 0.000712287 7.49026e-20)
(2.47014 0.000730083 0)
(2.46981 0.000750342 0)
(2.46944 0.000773751 -7.1095e-20)
(2.46904 0.000801437 1.39681e-19)
(2.46858 0.000834454 -6.85938e-20)
(2.46808 0.000874467 0)
(2.46752 0.000923596 0)
(2.46689 0.000983408 6.4896e-20)
(2.46617 0.00105988 0)
(2.46536 0.00115072 6.24662e-20)
(2.46442 0.00127504 0)
(2.46334 0.0014132 0)
(2.46204 0.00162534 0)
(2.46054 0.00183201 5.76902e-20)
(2.45867 0.00221678 0)
(2.45645 0.00251108 -5.53438e-20)
(2.45365 0.00326663 0)
(2.45015 0.00363765 0)
(2.44581 0.00526509 1.03754e-19)
(2.43971 0.00557202 -1.01475e-19)
(2.43299 0.00943389 0)
(2.42094 0.00915949 0)
(2.41091 0.0193619 0)
(2.38343 0.0175235 2.77658e-19)
(2.37134 0.0486018 0)
(2.30305 0.048357 -1.765e-19)
(-0.0201968 0.149875 -4.77154e-23)
(-0.0944703 0.200381 -1.95237e-19)
(-0.164025 0.20762 0)
(-0.234956 0.220032 1.92264e-19)
(-0.305236 0.23413 0)
(-0.375577 0.249609 0)
(-0.446076 0.266119 4.29917e-23)
(-0.517007 0.283513 -9.3144e-20)
(-0.588577 0.301463 -9.24443e-20)
(-0.661067 0.319737 -9.16646e-20)
(-0.73471 0.338131 0)
(-0.809712 0.356428 0)
(-0.886241 0.37441 8.94791e-20)
(-0.964458 0.391849 1.77475e-19)
(-1.04453 0.408526 -1.7599e-19)
(-1.12664 0.424227 0)
(-1.21097 0.438739 -1.73016e-19)
(-1.2977 0.451849 8.57455e-20)
(-1.38694 0.463329 0)
(-1.47875 0.472924 -1.68543e-19)
(-1.57313 0.48035 -8.35175e-20)
(-1.66999 0.485316 1.65553e-19)
(-1.76913 0.487496 8.20303e-20)
(-1.87021 0.486523 0)
(-1.97275 0.481987 -1.61067e-19)
(-2.07604 0.473453 -1.59576e-19)
(-2.17918 0.460495 0)
(-2.28103 0.442713 -1.56613e-19)
(-2.38027 0.419753 0)
(-2.47537 0.391345 -1.53694e-19)
(-2.56464 0.357336 -7.61761e-20)
(-2.64626 0.317719 0)
(-2.71838 0.272671 0)
(-2.77917 0.222575 0)
(-2.82691 0.168043 0)
(-2.86013 0.109883 0)
(-2.87754 0.0490402 0)
(-2.87814 -0.0133565 -1.43027e-19)
(-2.86121 -0.0760513 2.12807e-19)
(-2.82664 -0.137836 0)
(-2.77481 -0.197437 0)
(-2.70644 -0.253737 0)
(-2.62253 -0.305797 -1.04479e-22)
(-2.52433 -0.352865 -1.36441e-19)
(-2.41326 -0.394409 -2.70742e-19)
(-2.29091 -0.430104 2.6873e-19)
(-2.1589 -0.459815 1.33338e-19)
(-2.0189 -0.483577 -1.32413e-19)
(-1.87252 -0.501567 4.88218e-23)
(-1.72135 -0.514072 -1.30402e-19)
(-1.56688 -0.521469 0)
(-1.41042 -0.524195 -1.28441e-19)
(-1.25318 -0.522745 2.3652e-23)
(-1.09626 -0.517633 0)
(-0.940648 -0.509328 0)
(-0.787088 -0.498316 1.24437e-19)
(-0.636367 -0.485153 0)
(-0.489053 -0.470152 0)
(-0.345525 -0.453757 -1.21337e-19)
(-0.206265 -0.436355 -2.40593e-19)
(-0.0714197 -0.418335 1.19247e-19)
(0.0580991 -0.400128 0)
(0.182591 -0.381531 -1.17039e-19)
(0.302721 -0.362989 0)
(0.41801 -0.344648 -1.14789e-19)
(0.52849 -0.326642 -1.13673e-19)
(0.634227 -0.309073 2.25105e-19)
(0.73531 -0.29202 1.11435e-19)
(0.831854 -0.27554 0)
(0.923986 -0.259671 -2.18431e-19)
(1.01185 -0.244438 0)
(1.09558 -0.229852 -3.21036e-19)
(1.17534 -0.215918 -2.11833e-19)
(1.25127 -0.202633 -2.09654e-19)
(1.32353 -0.189988 2.07486e-19)
(1.39226 -0.177972 -3.07997e-19)
(1.45761 -0.166568 0)
(1.51973 -0.155759 0)
(1.57874 -0.145528 1.98936e-19)
(1.6348 -0.135853 2.95247e-19)
(1.68802 -0.126716 0)
(1.73853 -0.118095 -9.63306e-20)
(1.78645 -0.109969 0)
(1.83191 -0.102318 2.82814e-19)
(1.875 -0.0951214 1.34744e-24)
(1.91583 -0.088359 -1.24223e-24)
(1.9545 -0.082011 -1.8247e-19)
(1.99112 -0.0760579 0)
(2.02577 -0.0704807 1.7849e-19)
(2.05854 -0.0652609 8.89744e-25)
(2.08952 -0.0603805 0)
(2.11878 -0.055822 0)
(2.14641 -0.0515688 0)
(2.17248 -0.0476044 -1.68781e-19)
(2.19706 -0.0439127 0)
(2.22022 -0.0404783 0)
(2.24203 -0.037286 0)
(2.26255 -0.0343215 0)
(2.28184 -0.0315707 0)
(2.29997 -0.0290205 -1.57571e-19)
(2.31698 -0.026658 0)
(2.33294 -0.024471 -1.53939e-19)
(2.3479 -0.022448 -1.52142e-19)
(2.36191 -0.0205778 1.50358e-19)
(2.37502 -0.0188501 0)
(2.38728 -0.0172546 1.46826e-19)
(2.39873 -0.0157821 0)
(2.40943 -0.0144226 1.43344e-19)
(2.4194 -0.0131689 -1.41621e-19)
(2.4287 -0.0120147 -4.19728e-19)
(2.43736 -0.0109524 0)
(2.44542 -0.00997623 -4.09567e-19)
(2.45292 -0.0090792 -1.34846e-19)
(2.45989 -0.00825423 0)
(2.46636 -0.0074963 -2.63057e-19)
(2.47238 -0.00679632 -2.59774e-19)
(2.47798 -0.00614586 3.84769e-19)
(2.48317 -0.00554735 0)
(2.488 -0.00499851 1.25028e-19)
(2.49248 -0.00449982 1.2343e-19)
(2.49663 -0.00404631 3.6553e-19)
(2.50048 -0.00363558 0)
(2.50406 -0.0032669 0)
(2.50736 -0.00293919 0)
(2.51042 -0.00265058 1.15601e-19)
(2.51324 -0.00239774 0)
(2.51584 -0.00217519 0)
(2.51824 -0.00197605 -1.11029e-19)
(2.52045 -0.00179353 -1.09525e-19)
(2.52248 -0.00162228 0)
(2.52435 -0.00145907 0)
(2.52607 -0.00130271 -2.10142e-19)
(2.52766 -0.00115345 0)
(2.52911 -0.00101211 2.04301e-19)
(2.53044 -0.000879572 2.01408e-19)
(2.53167 -0.000756338 0)
(2.53279 -0.000642533 0)
(2.53381 -0.000537921 -1.92843e-19)
(2.53474 -0.000442047 -6.7159e-26)
(2.53559 -0.000354321 -6.20128e-26)
(2.53637 -0.000274108 0)
(2.53707 -0.000200765 -3.63349e-19)
(2.53771 -0.000133674 0)
(2.53829 -7.22373e-05 0)
(2.53881 -1.58824e-05 0)
(2.53928 3.59561e-05 1.70785e-19)
(2.53971 8.38363e-05 0)
(2.54009 0.000128312 -3.30881e-19)
(2.54043 0.000169931 -1.62793e-19)
(2.54073 0.000209244 0)
(2.541 0.000246834 -1.57546e-19)
(2.54123 0.000283309 0)
(2.54143 0.000319388 0)
(2.5416 0.000355805 -4.49383e-19)
(2.54173 0.000393548 2.94482e-19)
(2.54184 0.000433515 0)
(2.54191 0.000477262 2.84359e-19)
(2.54195 0.00052579 -1.39671e-19)
(2.54195 0.000581963 0)
(2.54191 0.000646349 0)
(2.54182 0.000725063 0)
(2.54168 0.000816218 -3.89348e-19)
(2.54148 0.000934395 0)
(2.54119 0.00106881 -1.24924e-19)
(2.54082 0.00125646 0)
(2.5403 0.00145861 0)
(2.53967 0.0017721 0)
(2.53879 0.00207694 0)
(2.53776 0.00262939 0)
(2.53625 0.00308215 0)
(2.53458 0.00412117 -2.16703e-19)
(2.53197 0.00476847 0)
(2.52925 0.00687758 -1.03746e-19)
(2.5246 0.00774062 3.04392e-19)
(2.52016 0.0123801 0)
(2.51163 0.0135177 0)
(2.50431 0.0247504 -1.89449e-19)
(2.48873 0.0272874 -1.85077e-19)
(2.47769 0.0573919 1.80676e-19)
(2.45458 0.0684765 1.76475e-19)
(-0.0189168 0.27113 2.9517e-19)
(-0.09216 0.349305 2.92984e-19)
(-0.159874 0.353913 1.93876e-19)
(-0.229107 0.364172 9.62533e-20)
(-0.29704 0.37616 0)
(-0.364761 0.390291 -1.89419e-19)
(-0.432202 0.405911 9.40224e-20)
(-0.499776 0.422723 0)
(-0.567764 0.440644 9.24308e-20)
(-0.636513 0.459521 0)
(-0.706289 0.47906 -1.81997e-19)
(-0.777417 0.498985 0)
(-0.850261 0.51906 -8.94689e-20)
(-0.925232 0.53909 -1.77455e-19)
(-1.00274 0.558874 1.75971e-19)
(-1.08318 0.578179 0)
(-1.16685 0.596745 1.72996e-19)
(-1.25402 0.61427 0)
(-1.34488 0.630404 0)
(-1.43956 0.644734 1.68518e-19)
(-1.5381 0.656775 0)
(-1.64048 0.665981 1.38734e-23)
(-1.74655 0.671752 0)
(-1.85597 0.673426 0)
(-1.96816 0.670291 2.77091e-23)
(-2.08227 0.661594 1.59529e-19)
(-2.19716 0.646557 1.57979e-19)
(-2.31141 0.624422 1.56559e-19)
(-2.42336 0.594502 0)
(-2.53111 0.556246 3.07155e-19)
(-2.6326 0.509306 0)
(-2.72562 0.453603 1.50636e-19)
(-2.80794 0.389378 0)
(-2.87735 0.317222 0)
(-2.93179 0.238091 -1.46538e-19)
(-2.96952 0.153291 0)
(-2.98911 0.064414 1.44001e-19)
(-2.98952 -0.026741 2.05281e-22)
(-2.97021 -0.118215 -2.83362e-19)
(-2.93124 -0.208038 2.80845e-19)
(-2.87307 -0.294338 0)
(-2.79669 -0.375444 0)
(-2.70346 -0.449974 1.37015e-19)
(-2.59506 -0.516878 0)
(-2.47334 -0.575445 1.35272e-19)
(-2.34026 -0.625292 -1.34272e-19)
(-2.19774 -0.666324 -1.33284e-19)
(-2.04769 -0.69867 0)
(-1.89191 -0.722649 1.31328e-19)
(-1.73209 -0.738764 1.30354e-19)
(-1.56976 -0.747637 -2.58653e-19)
(-1.40627 -0.749934 1.28397e-19)
(-1.24286 -0.746395 1.27411e-19)
(-1.08059 -0.737761 0)
(-0.920367 -0.724737 0)
(-0.762984 -0.708063 -1.24403e-19)
(-0.609148 -0.688471 0)
(-0.459357 -0.666464 0)
(-0.31405 -0.642681 2.42633e-19)
(-0.173556 -0.617688 2.40543e-19)
(-0.0383191 -0.59178 0)
(0.0914557 -0.565872 0)
(0.216179 -0.539507 0)
(0.335908 -0.513311 0)
(0.450587 -0.487488 2.29518e-19)
(0.560275 -0.462209 -2.27274e-19)
(0.665076 -0.437603 -2.25048e-19)
(0.765116 -0.413767 -4.45634e-19)
(0.860538 -0.39077 0)
(0.951495 -0.368657 5.71957e-24)
(1.03814 -0.347455 0)
(1.12065 -0.327173 2.13982e-19)
(1.19917 -0.307811 4.7221e-24)
(1.27386 -0.289361 2.09618e-19)
(1.34489 -0.271806 -2.07453e-19)
(1.4124 -0.255127 3.8217e-24)
(1.47656 -0.239298 0)