/*--------------------------------*- C++ -*----------------------------------*\
  =========                 |
  \\      /  F ield         | OpenFOAM: The Open Source CFD Toolbox
   \\    /   O peration     | Website:  https://openfoam.org
    \\  /    A nd           | Version:  7
     \\/     M anipulation  |
\*---------------------------------------------------------------------------*/
FoamFile
{
    version     2.0;
    format      ascii;
    class       volVectorField;
    location    "0.02";
    object      UMean;
}
// * * * * * * * * * * * * * * * * * * * * * * * * * * * * * * * * * * * * * //

dimensions      [0 1 -1 0 0 0 0];

internalField   nonuniform List<vector> 
12225
(
(4.78837 0.163847 0)
(4.2164 0.10917 0)
(3.77861 0.0938418 0)
(3.43934 0.0753887 0)
(3.15018 0.0603492 0)
(2.8965 0.049199 0)
(2.67768 0.039046 0)
(2.49623 0.0299192 0)
(2.3561 0.0198985 0)
(2.25183 0.0130413 0)
(2.18895 0.00348763 0)
(2.149 0.00182523 0)
(2.15107 -0.0110489 0)
(2.15902 -0.00216118 0)
(2.21574 -0.0305716 0)
(2.26896 0.004155 0)
(2.38476 -0.0773753 0)
(2.53678 0.00629532 0)
(5.01501 0.110523 0)
(4.88558 0.0687063 0)
(4.77887 0.0816596 0)
(4.70089 0.0774044 0)
(4.62663 0.0716794 0)
(4.55049 0.0673177 0)
(4.47354 0.0629584 0)
(4.40258 0.0555325 0)
(4.33861 0.047503 0)
(4.28869 0.0353031 0)
(4.24819 0.0263586 0)
(4.22751 0.0108844 0)
(4.2133 0.00494325 0)
(4.2272 -0.0158409 0)
(4.23894 -0.0163379 0)
(4.29684 -0.0515176 0)
(4.34139 -0.0576041 0)
(4.45416 -0.142048 0)
(5.00884 0.170929 0)
(4.90301 0.118339 0)
(4.83173 0.121869 0)
(4.80634 0.111467 0)
(4.79849 0.0985476 0)
(4.79377 0.0890298 0)
(4.79013 0.0799222 0)
(4.78807 0.0703283 0)
(4.78868 0.0572943 0)
(4.79135 0.0448673 0)
(4.79789 0.0280362 0)
(4.8074 0.0161764 0)
(4.82385 -0.00435093 0)
(4.84504 -0.0136081 0)
(4.87776 -0.0425917 0)
(4.91796 -0.0546859 0)
(4.97296 -0.106636 0)
(5.03385 -0.164541 0)
(4.9924 0.183841 0)
(4.91049 0.112703 0)
(4.84153 0.10678 0)
(4.81309 0.0975255 0)
(4.80777 0.0848963 0)
(4.81025 0.0744825 0)
(4.81636 0.0659583 0)
(4.82641 0.0559994 0)
(4.83999 0.0447501 0)
(4.85684 0.0308441 0)
(4.87604 0.0171655 0)
(4.89837 0.000644153 0)
(4.92391 -0.0145189 0)
(4.9542 -0.0348864 0)
(4.99057 -0.0552462 0)
(5.03288 -0.0862671 0)
(5.08336 -0.128366 0)
(5.13174 -0.189093 0)
(4.99308 0.213266 0)
(4.9333 0.138013 0)
(4.87133 0.123895 0)
(4.84003 0.113285 0)
(4.83194 0.097722 0)
(4.83278 0.0834569 0)
(4.83751 0.0710843 0)
(4.84595 0.0589648 0)
(4.85837 0.0449886 0)
(4.87423 0.0300796 0)
(4.8932 0.0131445 0)
(4.9151 -0.0038873 0)
(4.94058 -0.0238086 0)
(4.96998 -0.0448777 0)
(5.00426 -0.0714895 0)
(5.04267 -0.105041 0)
(5.08455 -0.148979 0)
(5.12266 -0.213275 0)
(4.98504 0.225816 0)
(4.94374 0.148055 0)
(4.89074 0.124755 0)
(4.85935 0.111782 0)
(4.84989 0.0951392 0)
(4.85049 0.0786737 0)
(4.85509 0.0643736 0)
(4.86294 0.0506035 0)
(4.87447 0.035903 0)
(4.88946 0.0195905 0)
(4.90776 0.0019307 0)
(4.92891 -0.0173278 0)
(4.95351 -0.0384008 0)
(4.98101 -0.0624377 0)
(5.01238 -0.0911077 0)
(5.04547 -0.12663 0)
(5.08004 -0.172278 0)
(5.10943 -0.230396 0)
(5.01411 0.241613 0)
(4.98653 0.166473 0)
(4.9407 0.135731 0)
(4.90904 0.119176 0)
(4.89768 0.100999 0)
(4.89733 0.0824208 0)
(4.90115 0.0655087 0)
(4.90765 0.0496238 0)
(4.91735 0.0331141 0)
(4.93032 0.015257 0)
(4.9465 -0.00411256 0)
(4.96537 -0.0251385 0)
(4.98725 -0.0482392 0)
(5.01133 -0.0746217 0)
(5.03818 -0.105174 0)
(5.06532 -0.142469 0)
(5.09278 -0.187158 0)
(5.11433 -0.241343 0)
(5.00652 0.250286 0)
(4.99324 0.178729 0)
(4.95846 0.142025 0)
(4.93068 0.12121 0)
(4.91999 0.101719 0)
(4.92056 0.0817866 0)
(4.92578 0.0629814 0)
(4.93342 0.0451433 0)
(4.94371 0.0270757 0)
(4.95672 0.00778923 0)
(4.97242 -0.0130382 0)
(4.99015 -0.0356693 0)
(5.01007 -0.0604811 0)
(5.03138 -0.0884514 0)
(5.05442 -0.120469 0)
(5.07692 -0.158101 0)
(5.0988 -0.201651 0)
(5.11509 -0.2521 0)
(5.01006 0.255868 0)
(5.00412 0.189106 0)
(4.97675 0.148974 0)
(4.95167 0.124155 0)
(4.9406 0.102813 0)
(4.94038 0.081334 0)
(4.94513 0.0605186 0)
(4.95232 0.0406886 0)
(4.96187 0.0210405 0)
(4.97389 0.000562732 0)
(4.98838 -0.0213405 0)
(5.00475 -0.045193 0)
(5.02286 -0.0713051 0)
(5.0418 -0.100477 0)
(5.06155 -0.133239 0)
(5.08016 -0.170636 0)
(5.09743 -0.212611 0)
(5.10972 -0.259429 0)
(4.99673 0.265319 0)
(4.99831 0.201885 0)
(4.97904 0.158531 0)
(4.95894 0.129619 0)
(4.94986 0.106 0)
(4.95038 0.0830908 0)
(4.95551 0.0605959 0)
(4.96262 0.0387838 0)
(4.9716 0.0171625 0)
(4.98277 -0.005081 0)
(4.99613 -0.0285481 0)
(5.01106 -0.0537435 0)
(5.02719 -0.0810389 0)
(5.04362 -0.111062 0)
(5.06007 -0.14417 0)
(5.075 -0.180983 0)
(5.08809 -0.221233 0)
(5.09689 -0.264865 0)
(4.99232 0.261804 0)
(4.99609 0.204075 0)
(4.98042 0.160406 0)
(4.96216 0.128937 0)
(4.9529 0.103398 0)
(4.95269 0.0793792 0)
(4.95742 0.0557744 0)
(4.96433 0.0325762 0)
(4.97278 0.0096328 0)
(4.98283 -0.013742 0)
(4.99463 -0.0381701 0)
(5.00761 -0.0641872 0)
(5.02142 -0.092123 0)
(5.03503 -0.122424 0)
(5.04828 -0.155261 0)
(5.05962 -0.190986 0)
(5.06926 -0.229189 0)
(5.0748 -0.269772 0)
(5.01846 0.272128 0)
(5.02372 0.214924 0)
(5.01004 0.169933 0)
(4.99256 0.135537 0)
(4.98256 0.107252 0)
(4.98083 0.0813609 0)
(4.98392 0.0562983 0)
(4.98916 0.0317179 0)
(4.99577 0.00730718 0)
(5.00374 -0.0174236 0)
(5.01319 -0.0429674 0)
(5.0236 -0.0698125 0)
(5.03461 -0.0982534 0)
(5.04521 -0.128654 0)
(5.05522 -0.161105 0)
(5.06326 -0.19581 0)
(5.06973 -0.232338 0)
(5.07253 -0.270569 0)
(4.99258 0.271694 0)
(5.0053 0.217074 0)
(4.99913 0.172553 0)
(4.98741 0.136782 0)
(4.98055 0.106732 0)
(4.97991 0.0794227 0)
(4.98327 0.0531202 0)
(4.98859 0.0272814 0)
(4.99511 0.00165492 0)
(5.00264 -0.0240986 0)
(5.01121 -0.0504165 0)
(5.02031 -0.0777377 0)
(5.02969 -0.10632 0)
(5.03836 -0.136479 0)
(5.04633 -0.168209 0)
(5.05222 -0.201658 0)
(5.05673 -0.236364 0)
(5.05774 -0.272321 0)
(5.00816 0.271905 0)
(5.02059 0.221697 0)
(5.01602 0.177232 0)
(5.00601 0.140077 0)
(5.00039 0.10849 0)
(5.00038 0.079913 0)
(5.00378 0.0525715 0)
(5.00868 0.0256751 0)
(5.01427 -0.000985122 0)
(5.02026 -0.0276717 0)
(5.02672 -0.0546684 0)
(5.0333 -0.0823768 0)
(5.03997 -0.111025 0)
(5.04589 -0.140872 0)
(5.05119 -0.171841 0)
(5.05455 -0.204027 0)
(5.05684 -0.236958 0)
(5.05594 -0.270675 0)
(5.01083 0.273424 0)
(5.02325 0.223463 0)
(5.02028 0.178732 0)
(5.01257 0.140125 0)
(5.00853 0.10662 0)
(5.00924 0.0763631 0)
(5.01283 0.0478249 0)
(5.0176 0.020143 0)
(5.02273 -0.0071089 0)
(5.02792 -0.0342482 0)
(5.03322 -0.0615371 0)
(5.0383 -0.0892894 0)
(5.04313 -0.117634 0)
(5.04697 -0.146767 0)
(5.04997 -0.176534 0)
(5.05106 -0.207063 0)
(5.05107 -0.237836 0)
(5.04823 -0.269078 0)
(5.01548 0.279572 0)
(5.03197 0.229525 0)
(5.03274 0.184148 0)
(5.0278 0.144453 0)
(5.02546 0.109377 0)
(5.02654 0.0773891 0)
(5.02928 0.0473433 0)
(5.03246 0.0185143 0)
(5.03566 -0.00950452 0)
(5.03874 -0.0370634 0)
(5.04175 -0.0644519 0)
(5.0444 -0.0919734 0)
(5.04664 -0.119707 0)
(5.04786 -0.147778 0)
(5.04821 -0.175991 0)
(5.04682 -0.204453 0)
(5.04448 -0.23274 0)
(5.03982 -0.26114 0)
(5.00836 0.267429 0)
(5.02674 0.222529 0)
(5.02923 0.178802 0)
(5.0255 0.139092 0)
(5.02392 0.103698 0)
(5.02551 0.0716753 0)
(5.02851 0.0418312 0)
(5.03162 0.0131927 0)
(5.03446 -0.0147834 0)
(5.03689 -0.0423428 0)
(5.03884 -0.0695294 0)
(5.03999 -0.0964439 0)
(5.04033 -0.12308 0)
(5.03942 -0.149615 0)
(5.0376 -0.175924 0)
(5.03417 -0.202217 0)
(5.03001 -0.228077 0)
(5.0238 -0.253919 0)
(5.02546 0.274208 0)
(5.04088 0.226802 0)
(5.04267 0.182881 0)
(5.03994 0.142718 0)
(5.03979 0.106291 0)
(5.04252 0.0728906 0)
(5.04612 0.0417657 0)
(5.04928 0.0124398 0)
(5.05164 -0.0153558 0)
(5.05308 -0.041903 0)
(5.05363 -0.0674705 0)
(5.0531 -0.092378 0)
(5.05159 -0.116784 0)
(5.04879 -0.140895 0)
(5.04507 -0.164608 0)
(5.03985 -0.188073 0)
(5.03397 -0.210932 0)
(5.02625 -0.233526 0)
(5.00624 0.273394 0)
(5.02581 0.22258 0)
(5.03175 0.176383 0)
(5.03321 0.134626 0)
(5.03722 0.0971919 0)
(5.04353 0.0634666 0)
(5.04968 0.0326186 0)
(5.05428 0.003981 0)
(5.05712 -0.0228337 0)
(5.05832 -0.0481109 0)
(5.05814 -0.0720743 0)
(5.05657 -0.0950128 0)
(5.0538 -0.11709 0)
(5.04963 -0.138554 0)
(5.04441 -0.159363 0)
(5.03777 -0.179742 0)
(5.03045 -0.19939 0)
(5.02161 -0.218723 0)
(5.0009 0.269076 0)
(5.02227 0.214885 0)
(5.03197 0.165958 0)
(5.03788 0.123683 0)
(5.04561 0.0872852 0)
(5.05426 0.055599 0)
(5.06152 0.0275803 0)
(5.06649 0.00239009 0)
(5.06942 -0.0206635 0)
(5.07073 -0.042146 0)
(5.07072 -0.0624335 0)
(5.06929 -0.081838 0)
(5.06652 -0.100516 0)
(5.06221 -0.118649 0)
(5.05669 -0.136207 0)
(5.04968 -0.153328 0)
(5.04185 -0.169795 0)
(5.03252 -0.185878 0)
(4.99599 0.265945 0)
(5.0188 0.206003 0)
(5.03168 0.153933 0)
(5.04158 0.11042 0)
(5.05291 0.0739645 0)
(5.06426 0.0425472 0)
(5.07341 0.0147027 0)
(5.07966 -0.0102738 0)
(5.08333 -0.0327004 0)
(5.08493 -0.0529292 0)
(5.08487 -0.0713779 0)
(5.08319 -0.088499 0)
(5.0801 -0.104594 0)
(5.07545 -0.119964 0)
(5.0696 -0.13467 0)
(5.06225 -0.14894 0)
(5.05413 -0.162604 0)
(5.04449 -0.176001 0)
(5.01564 0.263061 0)
(5.04188 0.194866 0)
(5.06042 0.139735 0)
(5.07584 0.0977269 0)
(5.09068 0.0654865 0)
(5.10325 0.0390991 0)
(5.11236 0.0160124 0)
(5.11842 -0.00493823 0)
(5.12218 -0.0241049 0)
(5.12392 -0.0416631 0)
(5.12379 -0.0578193 0)
(5.1218 -0.0728344 0)
(5.11826 -0.0869181 0)
(5.11318 -0.100274 0)
(5.10702 -0.112965 0)
(5.09951 -0.125165 0)
(5.09141 -0.136822 0)
(5.0819 -0.148162 0)
(5.01025 0.258229 0)
(5.04727 0.178432 0)
(5.07808 0.119065 0)
(5.10365 0.0765055 0)
(5.12536 0.0439587 0)
(5.14219 0.0168896 0)
(5.15391 -0.0063181 0)
(5.1615 -0.0260076 0)
(5.16602 -0.0427464 0)
(5.16801 -0.0574119 0)
(5.1678 -0.070751 0)
(5.16552 -0.083249 0)
(5.16154 -0.0950567 0)
(5.156 -0.106284 0)
(5.14931 -0.116916 0)
(5.14132 -0.12712 0)
(5.1326 -0.136811 0)
(5.1226 -0.146247 0)
(4.99241 0.243122 0)
(5.04038 0.15656 0)
(5.08386 0.101928 0)
(5.11669 0.0692758 0)
(5.14008 0.0455418 0)
(5.15683 0.0240732 0)
(5.16965 0.00425809 0)
(5.17988 -0.0131553 0)
(5.18741 -0.0280636 0)
(5.19183 -0.0410795 0)
(5.19321 -0.0528961 0)
(5.19194 -0.0639031 0)
(5.18865 -0.0742191 0)
(5.18358 -0.0839457 0)
(5.1772 -0.093126 0)
(5.16934 -0.101886 0)
(5.16064 -0.110212 0)
(5.15053 -0.118249 0)
(5.02264 0.225472 0)
(5.08515 0.119375 0)
(5.14461 0.0612994 0)
(5.18593 0.0302912 0)
(5.21152 0.00724505 0)
(5.22801 -0.0133063 0)
(5.24007 -0.0303153 0)
(5.24913 -0.0435396 0)
(5.25513 -0.0542095 0)
(5.25786 -0.0636321 0)
(5.25773 -0.072429 0)
(5.25531 -0.0807581 0)
(5.25117 -0.0886101 0)
(5.24544 -0.0960338 0)
(5.23845 -0.103038 0)
(5.23002 -0.109745 0)
(5.22076 -0.116102 0)
(5.21015 -0.122288 0)
(5.01927 0.210743 0)
(5.10485 0.107905 0)
(5.18218 0.0689307 0)
(5.23007 0.0490535 0)
(5.25714 0.027649 0)
(5.27584 0.0065505 0)
(5.29116 -0.0102311 0)
(5.30285 -0.0224099 0)
(5.31004 -0.0320517 0)
(5.31294 -0.0407692 0)
(5.31252 -0.0490345 0)
(5.30955 -0.056829 0)
(5.30465 -0.0640647 0)
(5.29797 -0.0707812 0)
(5.2899 -0.0770412 0)
(5.28041 -0.082986 0)
(5.27011 -0.0886382 0)
(5.25869 -0.0941388 0)
(5.01285 0.156705 0)
(5.13531 0.0304177 0)
(5.23153 0.00117007 0)
(5.27979 -0.0103174 0)
(5.30286 -0.0260254 0)
(5.31978 -0.039814 0)
(5.33504 -0.0491292 0)
(5.34708 -0.0556849 0)
(5.35456 -0.0613446 0)
(5.35778 -0.0667999 0)
(5.35773 -0.0720369 0)
(5.35511 -0.0769518 0)
(5.35047 -0.0815125 0)
(5.34399 -0.085822 0)
(5.33615 -0.0899366 0)
(5.32697 -0.0939853 0)
(5.31709 -0.0979372 0)
(5.30616 -0.101906 0)
(5.0041 0.152287 0)
(5.17667 0.0540635 0)
(5.29588 0.0390673 0)
(5.34627 0.0212301 0)
(5.3701 0.000945572 0)
(5.39005 -0.0134749 0)
(5.40761 -0.0224809 0)
(5.42034 -0.0293142 0)
(5.42757 -0.0354889 0)
(5.43016 -0.0412315 0)
(5.42922 -0.0464685 0)
(5.42552 -0.051269 0)
(5.41949 -0.055708 0)
(5.41141 -0.0599398 0)
(5.40159 -0.0639826 0)
(5.3902 -0.0679753 0)
(5.37759 -0.0718487 0)
(5.36378 -0.0757487 0)
(5.01329 0.0192482 0)
(5.23575 -0.052391 0)
(5.3573 -0.0363313 0)
(5.40029 -0.0451852 0)
(5.42035 -0.0555813 0)
(5.43471 -0.0605514 0)
(5.44251 -0.0627951 0)
(5.44169 -0.0646895 0)
(5.43246 -0.0667039 0)
(5.41636 -0.0686617 0)
(5.39486 -0.0704263 0)
(5.36917 -0.0720437 0)
(5.33982 -0.0735549 0)
(5.30754 -0.0750678 0)
(5.2723 -0.0765627 0)
(5.23505 -0.0781375 0)
(5.19519 -0.0796967 0)
(5.15442 -0.0813799 0)
(4.97198 0.0673569 0)
(5.11319 -0.00167254 0)
(5.08 -0.00228723 0)
(4.95787 -0.0122533 0)
(4.8242 -0.0196521 0)
(4.69511 -0.022615 0)
(4.56936 -0.0237885 0)
(4.44453 -0.0246195 0)
(4.3201 -0.0253515 0)
(4.19683 -0.0259261 0)
(4.0756 -0.0263171 0)
(3.9572 -0.0265567 0)
(3.84172 -0.0266805 0)
(3.72949 -0.0267424 0)
(3.61992 -0.0267615 0)
(3.51374 -0.0268013 0)
(3.4095 -0.0268439 0)
(3.30931 -0.0269982 0)
(-0.00945872 0.0150384 5.27906e-21)
(-0.0308831 0.0148459 -5.24598e-21)
(-0.0512275 0.0153176 0)
(-0.072867 0.0165943 0)
(-0.0953188 0.01809 0)
(-0.118924 0.0197195 5.10236e-21)
(-0.143524 0.0213853 0)
(-0.16912 0.022972 0)
(-0.195539 0.0243944 0)
(-0.222629 0.0255856 0)
(-0.250201 0.0265124 -4.92488e-21)
(-0.278031 0.0271572 0)
(-0.305896 0.0274986 0)
(-0.33353 0.0275348 0)
(-0.360668 0.0272567 0)
(-0.387042 0.0266543 -4.75091e-21)
(-0.412346 0.025735 0)
(-0.436261 0.0244899 0)
(-0.458474 0.0229144 0)
(-0.478653 0.0210315 0)
(-0.496465 0.0188294 0)
(-0.511593 0.0163347 0)
(-0.52366 0.0135419 0)
(-0.532362 0.0104752 -4.48888e-21)
(-0.537397 0.0071581 4.45869e-21)
(-0.538441 0.00361434 -4.42932e-21)
(-0.535231 -0.000120506 -4.40085e-21)
(-0.527496 -0.00401164 0)
(-0.515036 -0.00802658 0)
(-0.497675 -0.0120935 4.32152e-21)
(-0.475279 -0.0161893 4.29727e-21)
(-0.447798 -0.0202439 0)
(-0.415195 -0.0241975 0)
(-0.377532 -0.0280107 4.23132e-21)
(-0.334945 -0.0316164 0)
(-0.287607 -0.0349744 0)
(-0.235773 -0.0380338 -4.17453e-21)
(-0.179758 -0.0407712 0)
(-0.119944 -0.0431611 -4.14034e-21)
(-0.0567182 -0.0451953 -8.24772e-21)
(0.00949225 -0.0468628 0)
(0.0782314 -0.0481597 0)
(0.149033 -0.0490859 0)
(0.22144 -0.0496454 0)
(0.294978 -0.0498591 0)
(0.369186 -0.0497358 -8.04426e-21)
(0.443628 -0.0493169 -8.00639e-21)
(0.517918 -0.0486135 -7.96678e-21)
(0.591663 -0.0476749 0)
(0.664517 -0.0465098 7.88179e-21)
(0.736211 -0.0451646 0)
(0.806444 -0.0436749 -7.78884e-21)
(0.875007 -0.0420665 -7.73943e-21)
(0.94172 -0.0403711 0)
(1.00641 -0.0386049 0)
(1.06894 -0.0368061 0)
(1.12926 -0.0349667 -7.52402e-21)
(1.18729 -0.0331515 0)
(1.24296 -0.0313411 0)
(1.29628 -0.0295602 0)
(1.34725 -0.0278119 0)
(1.39588 -0.0261178 0)
(1.44221 -0.024472 0)
(1.48628 -0.0228852 0)
(1.52815 -0.0213612 0)
(1.56785 -0.0199026 6.96988e-21)
(1.60545 -0.0185112 0)
(1.64102 -0.0171876 0)
(1.67463 -0.0159321 -6.77566e-21)
(1.70635 -0.014744 -6.7107e-21)
(1.73626 -0.0136223 0)
(1.76441 -0.0125658 6.58084e-21)
(1.7909 -0.0115726 -6.51606e-21)
(1.81579 -0.0106409 0)
(1.83916 -0.00976862 6.387e-21)
(1.86107 -0.00895342 0)
(1.8816 -0.008193 0)
(1.90082 -0.00748494 -6.19523e-21)
(1.91878 -0.00682681 0)
(1.93557 -0.00621612 6.0689e-21)
(1.95124 -0.00565042 0)
(1.96585 -0.00512724 -5.94399e-21)
(1.97946 -0.00464417 -5.88209e-21)
(1.99212 -0.00419882 -5.82059e-21)
(2.0039 -0.00378888 -1.1519e-20)
(2.01484 -0.00341206 1.13976e-20)
(2.025 -0.00306618 0)
(2.03441 -0.00274907 0)
(2.04313 -0.00245872 0)
(2.0512 -0.00219313 1.09202e-20)
(2.05867 -0.00195041 1.0803e-20)
(2.06556 -0.00172872 -1.06866e-20)
(2.07191 -0.00152628 0)
(2.07777 -0.0013413 1.04564e-20)
(2.08316 -0.00117209 1.03425e-20)
(2.08811 -0.00101714 1.02295e-20)
(2.09266 -0.000875178 0)
(2.09682 -0.000745029 0)
(2.10062 -0.000625616 0)
(2.10409 -0.000515956 9.78578e-21)
(2.10725 -0.000415105 0)
(2.11011 -0.000322215 0)
(2.1127 -0.000236534 -9.46154e-21)
(2.11503 -0.00015724 0)
(2.11713 -8.37805e-05 0)
(2.11899 -1.54519e-05 -9.14446e-21)
(2.12064 4.83293e-05 0)
(2.1221 0.000107764 0)
(2.12336 0.000163561 8.83434e-21)
(2.12444 0.000215347 8.73249e-21)
(2.12536 0.000262182 0)
(2.12612 0.00030358 -8.531e-21)
(2.12674 0.000339698 0)
(2.12723 0.000370754 8.33244e-21)
(2.1276 0.000396705 0)
(2.12787 0.000417742 8.13674e-21)
(2.12803 0.000434651 8.03995e-21)
(2.1281 0.000448076 0)
(2.12808 0.00045827 0)
(2.12799 0.000465433 0)
(2.12783 0.000469805 0)
(2.12761 0.000471736 0)
(2.12733 0.000471676 0)
(2.12701 0.000470186 0)
(2.12663 0.000467837 7.29004e-21)
(2.12622 0.000465101 -7.19926e-21)
(2.12576 0.000462306 0)
(2.12527 0.000459614 0)
(2.12474 0.000457087 0)
(2.12417 0.000454715 0)
(2.12358 0.000452488 -1.35094e-20)
(2.12295 0.000450392 0)
(2.1223 0.000448433 1.31623e-20)
(2.12161 0.000446617 -1.29905e-20)
(2.12091 0.00044496 0)
(2.12017 0.000443465 0)
(2.11941 0.000442139 0)
(2.11863 0.000440979 1.23149e-20)
(2.11782 0.000439974 1.21488e-20)
(2.117 0.000439128 0)
(2.11615 0.000438428 1.182e-20)
(2.11528 0.000437893 1.16572e-20)
(2.11439 0.000437519 -1.14954e-20)
(2.11349 0.000437327 0)
(2.11256 0.000437317 0)
(2.11162 0.000437509 -1.10166e-20)
(2.11065 0.000437913 0)
(2.10967 0.000438557 0)
(2.10867 0.000439466 0)
(2.10764 0.000440686 0)
(2.1066 0.000442261 1.0239e-20)
(2.10554 0.000444265 1.00864e-20)
(2.10445 0.000446777 0)
(2.10334 0.000449914 9.78423e-21)
(2.1022 0.0004538 0)
(2.10104 0.000458635 0)
(2.09984 0.000464602 9.33802e-21)
(2.09861 0.000472069 0)
(2.09733 0.000481248 9.0452e-21)
(2.096 0.000492894 0)
(2.09462 0.000507103 0)
(2.09317 0.000525534 8.61285e-21)
(2.09162 0.000547777 0)
(2.08999 0.000577356 8.3292e-21)
(2.0882 0.000612915 0)
(2.08628 0.000660712 0)
(2.08409 0.000719922 0)
(2.08175 0.000796437 -7.77324e-21)
(2.07888 0.000902759 0)
(2.07585 0.00101944 7.50145e-21)
(2.07178 0.00123576 0)
(2.06757 0.00138651 0)
(2.06135 0.00190481 0)
(2.05477 0.00198442 0)
(2.0448 0.00344999 0)
(2.03214 0.00293926 0)
(2.01624 0.00777488 0)
(1.98317 0.00478977 -1.29759e-20)
(1.95953 0.0248739 0)
(1.84082 0.0198376 0)
(-0.0141568 0.0729173 -1.58413e-20)
(-0.0500219 0.0757636 1.57421e-20)
(-0.0828895 0.0752913 0)
(-0.116826 0.0774604 -1.03489e-20)
(-0.150537 0.0794862 0)
(-0.184226 0.0813429 -5.10549e-21)
(-0.217558 0.0828869 1.01335e-20)
(-0.250475 0.0840097 1.0062e-20)
(-0.282809 0.0846262 0)
(-0.314447 0.0846704 9.9195e-21)
(-0.345238 0.0841058 4.92784e-21)
(-0.375045 0.0828987 0)
(-0.403714 0.0810204 0)
(-0.431053 0.0784529 0)
(-0.45691 0.0751683 0)
(-0.481086 0.0711626 4.75362e-21)
(-0.503377 0.0664258 0)
(-0.523586 0.0609565 -9.36084e-21)
(-0.541454 0.0547395 0)
(-0.556755 0.0478053 0)
(-0.569259 0.0401416 9.16031e-21)
(-0.578742 0.0317832 0)
(-0.584929 0.0227459 -9.03161e-21)
(-0.587566 0.0130697 4.49109e-21)
(-0.586438 0.00280012 -4.46084e-21)
(-0.581289 -0.00800066 4.4314e-21)
(-0.571909 -0.0192592 4.40287e-21)
(-0.558098 -0.0308907 0)
(-0.539653 -0.0428013 0)
(-0.516444 -0.0548617 -4.32334e-21)
(-0.488375 -0.0669583 4.2848e-21)
(-0.455356 -0.0789502 0)
(-0.417385 -0.0906923 0)
(-0.374514 -0.102039 -4.23288e-21)
(-0.326835 -0.112845 0)
(-0.274497 -0.122968 0)
(-0.217717 -0.132284 4.17593e-21)
(-0.156766 -0.140678 0)
(-0.0919457 -0.148062 -4.132e-21)
(-0.0236547 -0.154367 8.25022e-21)
(0.0476798 -0.159551 0)
(0.121589 -0.163593 0)
(0.197598 -0.16649 1.62905e-20)
(0.275228 -0.168266 1.62241e-20)
(0.353997 -0.168972 1.61555e-20)
(0.433424 -0.16866 -8.03779e-21)
(0.513067 -0.167415 8.00826e-21)
(0.592543 -0.165307 2.38994e-20)
(0.671459 -0.162458 -1.58485e-20)
(0.749478 -0.15893 -7.88342e-21)
(0.8263 -0.154851 0)
(0.901649 -0.150293 7.79036e-21)
(0.975327 -0.145375 -7.7378e-21)
(1.04717 -0.140168 0)
(1.11699 -0.134747 0)
(1.18468 -0.1292 0)
(1.25016 -0.123556 7.52524e-21)
(1.31336 -0.117917 0)
(1.37426 -0.112293 -1.48152e-20)
(1.43284 -0.106737 0)
(1.48909 -0.101279 -1.45728e-20)
(1.54303 -0.0959491 0)
(1.59471 -0.0907591 1.43233e-20)
(1.64416 -0.0857299 0)
(1.69142 -0.0808738 -1.40688e-20)
(1.73654 -0.0761994 6.96959e-21)
(1.77958 -0.0717121 0)
(1.82061 -0.0674148 1.36816e-20)
(1.85967 -0.0633085 6.7764e-21)
(1.89684 -0.0593924 6.71142e-21)
(1.93219 -0.0556644 0)
(1.96578 -0.0521214 6.58068e-21)
(1.99768 -0.0487594 6.5167e-21)
(2.02795 -0.0455736 0)
(2.05665 -0.0425589 -6.3876e-21)
(2.08386 -0.0397098 1.26461e-20)
(2.10964 -0.0370205 0)
(2.13404 -0.0344849 6.19577e-21)
(2.15713 -0.0320971 0)
(2.17897 -0.0298509 -1.82077e-20)
(2.1996 -0.0277402 0)
(2.21909 -0.0257588 1.78329e-20)
(2.23749 -0.0239007 5.88256e-21)
(2.25484 -0.02216 -5.82061e-21)
(2.27121 -0.0205309 -1.1519e-20)
(2.28663 -0.0190077 1.13977e-20)
(2.30116 -0.0175847 0)
(2.31483 -0.0162566 0)
(2.32769 -0.0150181 0)
(2.33978 -0.0138641 -3.27624e-20)
(2.35114 -0.0127897 -1.08037e-20)
(2.36181 -0.01179 1.06873e-20)
(2.37183 -0.0108606 0)
(2.38122 -0.00999692 1.04566e-20)
(2.39002 -0.00919491 -1.03432e-20)
(2.39827 -0.00845047 -1.02302e-20)
(2.406 -0.00775975 0)
(2.41324 -0.00711914 0)
(2.42001 -0.0065252 0)
(2.42634 -0.00597474 -9.78645e-21)
(2.43226 -0.00546472 0)
(2.4378 -0.00499226 1.91387e-20)
(2.44297 -0.00455468 2.83863e-20)
(2.4478 -0.00414939 -1.87112e-20)
(2.45231 -0.00377408 0)
(2.45652 -0.00342646 -9.1449e-21)
(2.46045 -0.00310441 0)
(2.46412 -0.00280626 -1.7875e-20)
(2.46755 -0.00253024 8.83481e-21)
(2.47075 -0.00227531 8.73295e-21)
(2.47373 -0.0020409 0)
(2.47652 -0.00182587 2.55947e-20)
(2.47912 -0.00162871 -1.68638e-20)
(2.48154 -0.00144804 -8.33304e-21)
(2.48379 -0.00128256 0)
(2.48588 -0.00113097 -8.13733e-21)
(2.48782 -0.000992562 -2.41215e-20)
(2.48963 -0.000866708 0)
(2.4913 -0.000752466 -1.56979e-20)
(2.49285 -0.000648979 -1.55085e-20)
(2.49429 -0.000555449 -1.53204e-20)
(2.49561 -0.000470994 0)
(2.49684 -0.000394735 0)
(2.49797 -0.000325748 0)
(2.49901 -0.000263097 7.29053e-21)
(2.49997 -0.000205905 7.1998e-21)
(2.50085 -0.000153396 0)
(2.50166 -0.000104971 1.40402e-20)
(2.5024 -6.01831e-05 1.38624e-20)
(2.50307 -1.87436e-05 0)
(2.50368 1.95679e-05 1.35104e-20)
(2.50423 5.49083e-05 2.66725e-20)
(2.50473 8.74526e-05 -1.31633e-20)
(2.50518 0.000117358 -1.29914e-20)
(2.50558 0.00014482 0)
(2.50593 0.000170012 0)
(2.50625 0.000193128 0)
(2.50653 0.000214337 -1.23158e-20)
(2.50677 0.000233796 1.21497e-20)
(2.50698 0.00025167 2.39695e-20)
(2.50716 0.000268101 -1.18209e-20)
(2.50731 0.000283266 1.1658e-20)
(2.50743 0.000297306 1.14963e-20)
(2.50753 0.000310385 0)
(2.50761 0.000322629 0)
(2.50767 0.000334188 -1.10174e-20)
(2.5077 0.00034519 0)
(2.50772 0.000355799 0)
(2.50771 0.000366166 2.10957e-20)
(2.50769 0.000376484 0)
(2.50766 0.000386946 1.02397e-20)
(2.5076 0.000397799 -1.00872e-20)
(2.50753 0.000409312 0)
(2.50744 0.000421827 9.78494e-21)
(2.50733 0.000435737 0)
(2.50719 0.000451554 0)
(2.50704 0.00046987 -9.33876e-21)
(2.50686 0.000491491 1.83837e-20)
(2.50666 0.000517328 -9.04591e-21)
(2.50641 0.000548685 0)
(2.50613 0.000587054 0)
(2.50579 0.000634445 8.61343e-21)
(2.5054 0.000693731 0)
(2.50493 0.00076726 8.32971e-21)
(2.50436 0.000862306 0)
(2.50366 0.000977845 0)
(2.50282 0.00113708 0)
(2.50176 0.00131801 7.77385e-21)
(2.50048 0.00160179 0)
(2.49878 0.00187654 -7.50204e-21)
(2.49676 0.00242903 0)
(2.4939 0.00281021 0)
(2.49064 0.00401733 1.42068e-20)
(2.48547 0.00441599 -1.39477e-20)
(2.48008 0.00742309 0)
(2.46986 0.00739395 0)
(2.46065 0.0161038 0)
(2.4385 0.0148074 3.89114e-20)
(2.42322 0.0460627 0)
(2.37812 0.049446 -2.50545e-20)
(-0.0147598 0.14861 1.23503e-23)
(-0.0536171 0.155373 -2.0984e-20)
(-0.0886499 0.152644 0)
(-0.124812 0.153689 2.06958e-20)
(-0.160191 0.153969 0)
(-0.195208 0.15375 0)
(-0.229513 0.153002 -1.24492e-23)
(-0.263134 0.151703 -1.0067e-20)
(-0.295962 0.149792 -9.98281e-21)
(-0.327938 0.147202 -9.92439e-21)
(-0.358969 0.143887 0)
(-0.388971 0.139786 0)
(-0.417823 0.134852 9.69787e-21)
(-0.445394 0.129035 1.92543e-20)
(-0.471527 0.122282 -1.91135e-20)
(-0.496055 0.114564 0)
(-0.518808 0.105831 -1.88342e-20)
(-0.539601 0.0960753 9.36502e-21)
(-0.558198 0.085272 0)
(-0.574377 0.0733948 -1.84236e-20)
(-0.587916 0.0604614 -9.16415e-21)
(-0.598557 0.0464708 1.81582e-20)
(-0.606005 0.0314696 9.0352e-21)
(-0.609991 0.0154737 0)
(-0.61024 -0.00144974 -1.7779e-20)
(-0.606445 -0.0192178 -1.76591e-20)
(-0.598347 -0.0377298 0)
(-0.585672 -0.0568645 -1.74313e-20)
(-0.568174 -0.0764578 0)
(-0.545651 -0.0963533 -1.72219e-20)
(-0.517953 -0.116333 -8.58643e-21)
(-0.484978 -0.136178 0)
(-0.446669 -0.155661 0)
(-0.403071 -0.174526 0)
(-0.3543 -0.19253 0)
(-0.300532 -0.209428 0)
(-0.242028 -0.225004 0)
(-0.179114 -0.239052 -1.65802e-20)
(-0.112189 -0.251405 2.47924e-20)
(-0.0417085 -0.261937 0)
(0.0318389 -0.270563 0)
(0.107937 -0.277241 0)
(0.186063 -0.281982 -2.20932e-23)
(0.26569 -0.284821 -1.62266e-20)
(0.346306 -0.285842 -3.22986e-20)
(0.427417 -0.285161 3.21575e-20)
(0.508566 -0.282901 1.59985e-20)
(0.589338 -0.279211 -1.59327e-20)
(0.669347 -0.274265 9.55289e-24)
(0.748259 -0.268231 -1.57556e-20)
(0.825793 -0.261282 0)
(0.901679 -0.253572 -1.55724e-20)
(0.975717 -0.245264 5.45791e-24)
(1.04779 -0.236498 0)
(1.11771 -0.22742 0)
(1.1854 -0.21813 1.51582e-20)
(1.2508 -0.20874 0)
(1.31386 -0.199333 0)
(1.37458 -0.189985 -1.48101e-20)
(1.43293 -0.180763 -2.9386e-20)
(1.48894 -0.171721 1.45735e-20)
(1.54265 -0.162892 0)
(1.5941 -0.154309 -1.43239e-20)
(1.64334 -0.145999 0)
(1.69042 -0.137979 -1.40653e-20)
(1.73538 -0.130263 -1.39408e-20)
(1.77831 -0.122857 2.76196e-20)
(1.81925 -0.115765 1.36786e-20)
(1.85828 -0.108987 0)
(1.89546 -0.102522 -2.68414e-20)
(1.93086 -0.0963642 0)
(1.96456 -0.0905079 -3.94847e-20)
(1.9966 -0.0849459 -2.60632e-20)
(2.02707 -0.0796697 -2.58047e-20)
(2.05602 -0.0746703 2.55471e-20)
(2.08352 -0.0699382 -3.79367e-20)
(2.10963 -0.0654637 0)
(2.1344 -0.0612365 0)
(2.1579 -0.0572467 2.4527e-20)
(2.18018 -0.053484 3.64136e-20)
(2.20129 -0.0499386 0)
(2.22129 -0.0466004 -1.18885e-20)
(2.24023 -0.0434598 0)
(2.25815 -0.0405073 3.49239e-20)
(2.2751 -0.0377336 1.19051e-24)
(2.29112 -0.0351298 -1.11113e-24)
(2.30626 -0.0326872 -2.25539e-20)
(2.32057 -0.0303974 0)
(2.33407 -0.0282522 2.20767e-20)
(2.34681 -0.0262439 8.38183e-25)
(2.35882 -0.0243649 0)
(2.37014 -0.0226081 0)
(2.3808 -0.0209665 0)
(2.39084 -0.0194338 -2.09137e-20)
(2.40029 -0.0180034 0)
(2.40917 -0.0166694 0)
(2.41751 -0.0154258 0)
(2.42535 -0.0142671 0)
(2.43271 -0.0131879 0)
(2.43962 -0.0121834 -1.95722e-20)
(2.44609 -0.0112488 0)
(2.45216 -0.0103795 -1.91387e-20)
(2.45784 -0.00957144 -1.89242e-20)
(2.46316 -0.00882052 1.87112e-20)
(2.46813 -0.00812303 0)
(2.47278 -0.00747545 1.829e-20)
(2.47713 -0.00687442 0)
(2.48119 -0.00631691 1.7875e-20)
(2.48498 -0.00580018 -1.76698e-20)
(2.48851 -0.00532159 -5.23979e-20)
(2.49181 -0.00487856 0)
(2.49489 -0.00446868 -5.11891e-20)
(2.49776 -0.00408949 -1.68636e-20)
(2.50043 -0.00373893 0)
(2.50291 -0.00341495 -3.2939e-20)
(2.50523 -0.00311579 -3.2549e-20)
(2.50739 -0.00284017 4.82428e-20)
(2.50939 -0.00258674 0)
(2.51125 -0.00235411 1.5698e-20)
(2.51298 -0.00214073 1.55085e-20)
(2.51459 -0.00194503 4.59611e-20)
(2.51607 -0.00176557 0)
(2.51745 -0.00160092 0)
(2.51873 -0.00144967 0)
(2.51991 -0.00131045 1.45811e-20)
(2.521 -0.00118193 0)
(2.52201 -0.00106296 0)
(2.52294 -0.000952527 -1.40402e-20)
(2.5238 -0.000849898 -1.38624e-20)
(2.5246 -0.000754528 0)
(2.52533 -0.000666023 0)
(2.526 -0.000584073 -2.66726e-20)
(2.52662 -0.000508375 0)
(2.52719 -0.000438619 2.5983e-20)
(2.52772 -0.000374457 2.56417e-20)
(2.5282 -0.000315528 0)
(2.52864 -0.00026146 0)
(2.52905 -0.000211895 -2.46316e-20)
(2.52942 -0.000166484 -4.33132e-26)
(2.52976 -0.000124883 -4.13241e-26)
(2.53007 -8.67495e-05 0)
(2.53036 -5.17347e-05 -4.66323e-20)
(2.53062 -1.95172e-05 0)
(2.53085 1.02187e-05 0)
(2.53107 3.77557e-05 0)
(2.53126 6.33834e-05 2.2035e-20)
(2.53144 8.73771e-05 0)
(2.5316 0.000110037 -4.28135e-20)
(2.53174 0.000131664 -2.10957e-20)
(2.53187 0.000152595 0)
(2.53198 0.000173189 -2.04796e-20)
(2.53208 0.000193856 0)
(2.53216 0.000215061 0)
(2.53222 0.00023735 -5.87099e-20)
(2.53227 0.000261386 3.85411e-20)
(2.5323 0.000287933 0)
(2.53231 0.000318015 3.73549e-20)
(2.5323 0.000352715 -1.83837e-20)
(2.53227 0.000393761 0)
(2.5322 0.000442603 0)
(2.5321 0.000502486 0)
(2.53195 0.00057488 -5.16808e-20)
(2.53174 0.000666771 0)
(2.53147 0.000777614 -1.66596e-20)
(2.53111 0.000924663 0)
(2.53063 0.00109739 0)
(2.53003 0.00134286 0)
(2.5292 0.00161337 0)
(2.52821 0.00204444 0)
(2.52679 0.0024646 0)
(2.52513 0.00327265 -2.9469e-20)
(2.52265 0.00390956 0)
(2.51988 0.00555524 -1.42069e-20)
(2.51539 0.00648585 4.18393e-20)
(2.51063 0.0101942 0)
(2.50225 0.0116094 0)
(2.49382 0.0211196 -2.63888e-20)
(2.47831 0.0246371 -2.59351e-20)
(2.4642 0.0527155 2.54508e-20)
(2.44161 0.0671385 2.50566e-20)
(-0.0144115 0.22094 3.16338e-20)
(-0.0532883 0.232345 3.14362e-20)
(-0.0883446 0.227719 2.08012e-20)
(-0.124816 0.227838 1.03102e-20)
(-0.160536 0.226679 0)
(-0.196077 0.224845 -2.03696e-20)
(-0.231067 0.222392 1.00943e-20)
(-0.265547 0.219269 0)
(-0.299404 0.215393 9.98801e-21)
(-0.332584 0.210703 0)
(-0.364983 0.205131 -1.96511e-20)
(-0.396505 0.198589 0)
(-0.427008 0.190992 -9.70284e-21)
(-0.456356 0.182281 -1.92641e-20)
(-0.484395 0.172364 1.91231e-20)
(-0.510962 0.161187 0)
(-0.535853 0.14869 1.88434e-20)
(-0.558851 0.134816 0)
(-0.579747 0.119536 0)
(-0.598255 0.102798 1.84321e-20)
(-0.614097 0.0845942 0)
(-0.626991 0.0649117 -5.80847e-23)
(-0.636619 0.0437675 0)
(-0.642673 0.0211952 0)
(-0.644795 -0.00274691 6.50966e-23)
(-0.642642 -0.0279635 1.76661e-20)
(-0.635903 -0.0543179 1.74808e-20)
(-0.624241 -0.0816376 1.74378e-20)
(-0.607362 -0.109715 0)
(-0.585023 -0.138281 3.43836e-20)
(-0.557015 -0.167043 0)
(-0.523218 -0.195656 1.69667e-20)
(-0.483583 -0.223755 0)
(-0.43815 -0.250966 0)
(-0.387059 -0.276903 -1.67262e-20)
(-0.33054 -0.301203 0)
(-0.268917 -0.323529 1.65913e-20)
(-0.202595 -0.343591 5.47071e-23)
(-0.132057 -0.361145 -3.29911e-20)
(-0.0578406 -0.376009 3.28259e-20)
(0.0194865 -0.388074 0)
(0.0993172 -0.397286 0)
(0.181058 -0.403663 1.62084e-20)
(0.264125 -0.407289 0)
(0.347934 -0.40829 1.61433e-20)
(0.43196 -0.406852 -1.60737e-20)
(0.515722 -0.403172 -1.60006e-20)
(0.598781 -0.397489 0)
(0.680736 -0.390042 1.58426e-20)
(0.761265 -0.38109 1.57573e-20)
(0.840104 -0.37089 -3.13146e-20)
(0.917007 -0.359668 1.55739e-20)
(0.991803 -0.347649 1.54759e-20)
(1.06437 -0.335044 0)
(1.13458 -0.322049 0)
(1.20238 -0.308798 -1.51593e-20)
(1.26774 -0.295461 0)
(1.33061 -0.282131 0)
(1.39102 -0.268924 2.96279e-20)
(1.44898 -0.255926 2.93876e-20)
(1.50453 -0.243197 0)
(1.55772 -0.230791 0)
(1.60862 -0.218747 0)
(1.65727 -0.207097 0)