# vtk DataFile Version 2.0
sampleSurface
ASCII
DATASET POLYDATA
POINTS 502 double
-0.0206 0 -0.0005
-0.0190172 0 -0.0005
-0.0190172 0 0.0005
-0.0206 0 0.0005
-0.0174976 0 -0.0005
-0.0174976 0 0.0005
-0.0160387 0 -0.0005
-0.0160387 0 0.0005
-0.0146381 0 -0.0005
-0.0146381 0 0.0005
-0.0132934 0 -0.0005
-0.0132934 0 0.0005
-0.0120025 0 -0.0005
-0.0120025 0 0.0005
-0.0107632 0 -0.0005
-0.0107632 0 0.0005
-0.00957337 0 -0.0005
-0.00957337 0 0.0005
-0.00843108 0 -0.0005
-0.00843108 0 0.0005
-0.00733443 0 -0.0005
-0.00733443 0 0.0005
-0.0062816 0 -0.0005
-0.0062816 0 0.0005
-0.00527083 0 -0.0005
-0.00527083 0 0.0005
-0.00430044 0 -0.0005
-0.00430044 0 0.0005
-0.00336883 0 -0.0005
-0.00336883 0 0.0005
-0.00247443 0 -0.0005
-0.00247443 0 0.0005
-0.00161577 0 -0.0005
-0.00161577 0 0.0005
-0.000791418 0 -0.0005
-0.000791418 0 0.0005
0 0 -0.0005
0 0 0.0005
0 -0.0254 -0.0005
0 -0.0254 0.0005
0 -0.0242711 0.0005
0 -0.0242711 -0.0005
0 -0.0231422 0.0005
0 -0.0231422 -0.0005
0 -0.0220133 0.0005
0 -0.0220133 -0.0005
0 -0.0208844 0.0005
0 -0.0208844 -0.0005
0 -0.0197556 0.0005
0 -0.0197556 -0.0005
0 -0.0186267 0.0005
0 -0.0186267 -0.0005
0 -0.0174978 0.0005
0 -0.0174978 -0.0005
0 -0.0163689 0.0005
0 -0.0163689 -0.0005
0 -0.01524 0.0005
0 -0.01524 -0.0005
0 -0.0141111 0.0005
0 -0.0141111 -0.0005
0 -0.0129822 0.0005
0 -0.0129822 -0.0005
0 -0.0118533 0.0005
0 -0.0118533 -0.0005
0 -0.0107244 0.0005
0 -0.0107244 -0.0005
0 -0.00959556 0.0005
0 -0.00959556 -0.0005
0 -0.00846667 0.0005
0 -0.00846667 -0.0005
0 -0.00726604 0.0005
0 -0.00726604 -0.0005
0 -0.00618989 0.0005
0 -0.00618989 -0.0005
0 -0.00522531 0.0005
0 -0.00522531 -0.0005
0 -0.00436073 0.0005
0 -0.00436073 -0.0005
0 -0.00358579 0.0005
0 -0.00358579 -0.0005
0 -0.00289118 0.0005
0 -0.00289118 -0.0005
0 -0.0022686 0.0005
0 -0.0022686 -0.0005
0 -0.00171055 0.0005
0 -0.00171055 -0.0005
0 -0.00121037 0.0005
0 -0.00121037 -0.0005
0 -0.000762037 0.0005
0 -0.000762037 -0.0005
0 -0.000360188 0.0005
0 -0.000360188 -0.0005
0.000528387 -0.0254 -0.0005
0.000528387 -0.0254 0.0005
0.00106088 -0.0254 -0.0005
0.00106088 -0.0254 0.0005
0.00159752 -0.0254 -0.0005
0.00159752 -0.0254 0.0005
0.00213833 -0.0254 -0.0005
0.00213833 -0.0254 0.0005
0.00268334 -0.0254 -0.0005
0.00268334 -0.0254 0.0005
0.00323259 -0.0254 -0.0005
0.00323259 -0.0254 0.0005
0.00378611 -0.0254 -0.0005
0.00378611 -0.0254 0.0005
0.00434393 -0.0254 -0.0005
0.00434393 -0.0254 0.0005
0.00490609 -0.0254 -0.0005
0.00490609 -0.0254 0.0005
0.00547262 -0.0254 -0.0005
0.00547262 -0.0254 0.0005
0.00604356 -0.0254 -0.0005
0.00604356 -0.0254 0.0005
0.00661893 -0.0254 -0.0005
0.00661893 -0.0254 0.0005
0.00719878 -0.0254 -0.0005
0.00719878 -0.0254 0.0005
0.00778313 -0.0254 -0.0005
0.00778313 -0.0254 0.0005
0.00837203 -0.0254 -0.0005
0.00837203 -0.0254 0.0005
0.00896551 -0.0254 -0.0005
0.00896551 -0.0254 0.0005
0.0095636 -0.0254 -0.0005
0.0095636 -0.0254 0.0005
0.0101663 -0.0254 -0.0005
0.0101663 -0.0254 0.0005
0.0107738 -0.0254 -0.0005
0.0107738 -0.0254 0.0005
0.0113859 -0.0254 -0.0005
0.0113859 -0.0254 0.0005
0.0120028 -0.0254 -0.0005
0.0120028 -0.0254 0.0005
0.0126245 -0.0254 -0.0005
0.0126245 -0.0254 0.0005
0.0132511 -0.0254 -0.0005
0.0132511 -0.0254 0.0005
0.0138825 -0.0254 -0.0005
0.0138825 -0.0254 0.0005
0.0145188 -0.0254 -0.0005
0.0145188 -0.0254 0.0005
0.0151601 -0.0254 -0.0005
0.0151601 -0.0254 0.0005
0.0158063 -0.0254 -0.0005
0.0158063 -0.0254 0.0005
0.0164576 -0.0254 -0.0005
0.0164576 -0.0254 0.0005
0.0171139 -0.0254 -0.0005
0.0171139 -0.0254 0.0005
0.0177754 -0.0254 -0.0005
0.0177754 -0.0254 0.0005
0.018442 -0.0254 -0.0005
0.018442 -0.0254 0.0005
0.0191137 -0.0254 -0.0005
0.0191137 -0.0254 0.0005
0.0197907 -0.0254 -0.0005
0.0197907 -0.0254 0.0005
0.020473 -0.0254 -0.0005
0.020473 -0.0254 0.0005
0.0211606 -0.0254 -0.0005
0.0211606 -0.0254 0.0005
0.0218535 -0.0254 -0.0005
0.0218535 -0.0254 0.0005
0.0225517 -0.0254 -0.0005
0.0225517 -0.0254 0.0005
0.0232555 -0.0254 -0.0005
0.0232555 -0.0254 0.0005
0.0239647 -0.0254 -0.0005
0.0239647 -0.0254 0.0005
0.0246794 -0.0254 -0.0005
0.0246794 -0.0254 0.0005
0.0253996 -0.0254 -0.0005
0.0253996 -0.0254 0.0005
0.0261255 -0.0254 -0.0005
0.0261255 -0.0254 0.0005
0.026857 -0.0254 -0.0005
0.026857 -0.0254 0.0005
0.0275942 -0.0254 -0.0005
0.0275942 -0.0254 0.0005
0.0283371 -0.0254 -0.0005
0.0283371 -0.0254 0.0005
0.0290858 -0.0254 -0.0005
0.0290858 -0.0254 0.0005
0.0298403 -0.0254 -0.0005
0.0298403 -0.0254 0.0005
0.0306007 -0.0254 -0.0005
0.0306007 -0.0254 0.0005
0.031367 -0.0254 -0.0005
0.031367 -0.0254 0.0005
0.0321393 -0.0254 -0.0005
0.0321393 -0.0254 0.0005
0.0329175 -0.0254 -0.0005
0.0329175 -0.0254 0.0005
0.0337019 -0.0254 -0.0005
0.0337019 -0.0254 0.0005
0.0344923 -0.0254 -0.0005
0.0344923 -0.0254 0.0005
0.0352888 -0.0254 -0.0005
0.0352888 -0.0254 0.0005
0.0360916 -0.0254 -0.0005
0.0360916 -0.0254 0.0005
0.0369006 -0.0254 -0.0005
0.0369006 -0.0254 0.0005
0.0377158 -0.0254 -0.0005
0.0377158 -0.0254 0.0005
0.0385375 -0.0254 -0.0005
0.0385375 -0.0254 0.0005
0.0393655 -0.0254 -0.0005
0.0393655 -0.0254 0.0005
0.0401999 -0.0254 -0.0005
0.0401999 -0.0254 0.0005
0.0410408 -0.0254 -0.0005
0.0410408 -0.0254 0.0005
0.0418883 -0.0254 -0.0005
0.0418883 -0.0254 0.0005
0.0427424 -0.0254 -0.0005
0.0427424 -0.0254 0.0005
0.0436031 -0.0254 -0.0005
0.0436031 -0.0254 0.0005
0.0444704 -0.0254 -0.0005
0.0444704 -0.0254 0.0005
0.0453446 -0.0254 -0.0005
0.0453446 -0.0254 0.0005
0.0462255 -0.0254 -0.0005
0.0462255 -0.0254 0.0005
0.0471133 -0.0254 -0.0005
0.0471133 -0.0254 0.0005
0.048008 -0.0254 -0.0005
0.048008 -0.0254 0.0005
0.0489096 -0.0254 -0.0005
0.0489096 -0.0254 0.0005
0.0498183 -0.0254 -0.0005
0.0498183 -0.0254 0.0005
0.050734 -0.0254 -0.0005
0.050734 -0.0254 0.0005
0.0516568 -0.0254 -0.0005
0.0516568 -0.0254 0.0005
0.0525868 -0.0254 -0.0005
0.0525868 -0.0254 0.0005
0.053524 -0.0254 -0.0005
0.053524 -0.0254 0.0005
0.0544686 -0.0254 -0.0005
0.0544686 -0.0254 0.0005
0.0554204 -0.0254 -0.0005
0.0554204 -0.0254 0.0005
0.0563797 -0.0254 -0.0005
0.0563797 -0.0254 0.0005
0.0573464 -0.0254 -0.0005
0.0573464 -0.0254 0.0005
0.0583206 -0.0254 -0.0005
0.0583206 -0.0254 0.0005
0.0593025 -0.0254 -0.0005
0.0593025 -0.0254 0.0005
0.0602919 -0.0254 -0.0005
0.0602919 -0.0254 0.0005
0.0612891 -0.0254 -0.0005
0.0612891 -0.0254 0.0005
0.0622939 -0.0254 -0.0005
0.0622939 -0.0254 0.0005
0.0633067 -0.0254 -0.0005
0.0633067 -0.0254 0.0005
0.0643272 -0.0254 -0.0005
0.0643272 -0.0254 0.0005
0.0653557 -0.0254 -0.0005
0.0653557 -0.0254 0.0005
0.0663923 -0.0254 -0.0005
0.0663923 -0.0254 0.0005
0.0674368 -0.0254 -0.0005
0.0674368 -0.0254 0.0005
0.0684895 -0.0254 -0.0005
0.0684895 -0.0254 0.0005
0.0695504 -0.0254 -0.0005
0.0695504 -0.0254 0.0005
0.0706195 -0.0254 -0.0005
0.0706195 -0.0254 0.0005
0.0716969 -0.0254 -0.0005
0.0716969 -0.0254 0.0005
0.0727828 -0.0254 -0.0005
0.0727828 -0.0254 0.0005
0.073877 -0.0254 -0.0005
0.073877 -0.0254 0.0005
0.0749798 -0.0254 -0.0005
0.0749798 -0.0254 0.0005
0.0760911 -0.0254 -0.0005
0.0760911 -0.0254 0.0005
0.0772111 -0.0254 -0.0005
0.0772111 -0.0254 0.0005
0.0783398 -0.0254 -0.0005
0.0783398 -0.0254 0.0005
0.0794772 -0.0254 -0.0005
0.0794772 -0.0254 0.0005
0.0806235 -0.0254 -0.0005
0.0806235 -0.0254 0.0005
0.0817787 -0.0254 -0.0005
0.0817787 -0.0254 0.0005
0.0829429 -0.0254 -0.0005
0.0829429 -0.0254 0.0005
0.0841162 -0.0254 -0.0005
0.0841162 -0.0254 0.0005
0.0852985 -0.0254 -0.0005
0.0852985 -0.0254 0.0005
0.0864901 -0.0254 -0.0005
0.0864901 -0.0254 0.0005
0.0876909 -0.0254 -0.0005
0.0876909 -0.0254 0.0005
0.0889011 -0.0254 -0.0005
0.0889011 -0.0254 0.0005
0.0901207 -0.0254 -0.0005
0.0901207 -0.0254 0.0005
0.0913497 -0.0254 -0.0005
0.0913497 -0.0254 0.0005
0.0925883 -0.0254 -0.0005
0.0925883 -0.0254 0.0005
0.0938366 -0.0254 -0.0005
0.0938366 -0.0254 0.0005
0.0950945 -0.0254 -0.0005
0.0950945 -0.0254 0.0005
0.0963622 -0.0254 -0.0005
0.0963622 -0.0254 0.0005
0.0976398 -0.0254 -0.0005
0.0976398 -0.0254 0.0005
0.0989273 -0.0254 -0.0005
0.0989273 -0.0254 0.0005
0.100225 -0.0254 -0.0005
0.100225 -0.0254 0.0005
0.101532 -0.0254 -0.0005
0.101532 -0.0254 0.0005
0.10285 -0.0254 -0.0005
0.10285 -0.0254 0.0005
0.104178 -0.0254 -0.0005
0.104178 -0.0254 0.0005
0.105517 -0.0254 -0.0005
0.105517 -0.0254 0.0005
0.106865 -0.0254 -0.0005
0.106865 -0.0254 0.0005
0.108225 -0.0254 -0.0005
0.108225 -0.0254 0.0005
0.109594 -0.0254 -0.0005
0.109594 -0.0254 0.0005
0.110975 -0.0254 -0.0005
0.110975 -0.0254 0.0005
0.112366 -0.0254 -0.0005
0.112366 -0.0254 0.0005
0.113768 -0.0254 -0.0005
0.113768 -0.0254 0.0005
0.115181 -0.0254 -0.0005
0.115181 -0.0254 0.0005
0.116605 -0.0254 -0.0005
0.116605 -0.0254 0.0005
0.11804 -0.0254 -0.0005
0.11804 -0.0254 0.0005
0.119486 -0.0254 -0.0005
0.119486 -0.0254 0.0005
0.120943 -0.0254 -0.0005
0.120943 -0.0254 0.0005
0.122412 -0.0254 -0.0005
0.122412 -0.0254 0.0005
0.123892 -0.0254 -0.0005
0.123892 -0.0254 0.0005
0.125384 -0.0254 -0.0005
0.125384 -0.0254 0.0005
0.126887 -0.0254 -0.0005
0.126887 -0.0254 0.0005
0.128402 -0.0254 -0.0005
0.128402 -0.0254 0.0005
0.129928 -0.0254 -0.0005
0.129928 -0.0254 0.0005
0.131467 -0.0254 -0.0005
0.131467 -0.0254 0.0005
0.133017 -0.0254 -0.0005
0.133017 -0.0254 0.0005
0.13458 -0.0254 -0.0005
0.13458 -0.0254 0.0005
0.136155 -0.0254 -0.0005
0.136155 -0.0254 0.0005
0.137742 -0.0254 -0.0005
0.137742 -0.0254 0.0005
0.139341 -0.0254 -0.0005
0.139341 -0.0254 0.0005
0.140953 -0.0254 -0.0005
0.140953 -0.0254 0.0005
0.142577 -0.0254 -0.0005
0.142577 -0.0254 0.0005
0.144214 -0.0254 -0.0005
0.144214 -0.0254 0.0005
0.145863 -0.0254 -0.0005
0.145863 -0.0254 0.0005
0.147526 -0.0254 -0.0005
0.147526 -0.0254 0.0005
0.149201 -0.0254 -0.0005
0.149201 -0.0254 0.0005
0.15089 -0.0254 -0.0005
0.15089 -0.0254 0.0005
0.152591 -0.0254 -0.0005
0.152591 -0.0254 0.0005
0.154306 -0.0254 -0.0005
0.154306 -0.0254 0.0005
0.156034 -0.0254 -0.0005
0.156034 -0.0254 0.0005
0.157775 -0.0254 -0.0005
0.157775 -0.0254 0.0005
0.159531 -0.0254 -0.0005
0.159531 -0.0254 0.0005
0.161299 -0.0254 -0.0005
0.161299 -0.0254 0.0005
0.163082 -0.0254 -0.0005
0.163082 -0.0254 0.0005
0.164878 -0.0254 -0.0005
0.164878 -0.0254 0.0005
0.166688 -0.0254 -0.0005
0.166688 -0.0254 0.0005
0.168513 -0.0254 -0.0005
0.168513 -0.0254 0.0005
0.170351 -0.0254 -0.0005
0.170351 -0.0254 0.0005
0.172204 -0.0254 -0.0005
0.172204 -0.0254 0.0005
0.174071 -0.0254 -0.0005
0.174071 -0.0254 0.0005
0.175953 -0.0254 -0.0005
0.175953 -0.0254 0.0005
0.177849 -0.0254 -0.0005
0.177849 -0.0254 0.0005
0.17976 -0.0254 -0.0005
0.17976 -0.0254 0.0005
0.181686 -0.0254 -0.0005
0.181686 -0.0254 0.0005
0.183627 -0.0254 -0.0005
0.183627 -0.0254 0.0005
0.185583 -0.0254 -0.0005
0.185583 -0.0254 0.0005
0.187555 -0.0254 -0.0005
0.187555 -0.0254 0.0005
0.189541 -0.0254 -0.0005
0.189541 -0.0254 0.0005
0.191543 -0.0254 -0.0005
0.191543 -0.0254 0.0005
0.193561 -0.0254 -0.0005
0.193561 -0.0254 0.0005
0.195594 -0.0254 -0.0005
0.195594 -0.0254 0.0005
0.197643 -0.0254 -0.0005
0.197643 -0.0254 0.0005
0.199708 -0.0254 -0.0005
0.199708 -0.0254 0.0005
0.201789 -0.0254 -0.0005
0.201789 -0.0254 0.0005
0.203886 -0.0254 -0.0005
0.203886 -0.0254 0.0005
0.206 -0.0254 -0.0005
0.206 -0.0254 0.0005
0.208047 -0.0251856 -0.0005
0.208047 -0.0251856 0.0005
0.210173 -0.0249628 -0.0005
0.210173 -0.0249628 0.0005
0.212382 -0.0247314 -0.0005
0.212382 -0.0247314 0.0005
0.214677 -0.024491 -0.0005
0.214677 -0.024491 0.0005
0.217061 -0.0242412 -0.0005
0.217061 -0.0242412 0.0005
0.219538 -0.0239817 -0.0005
0.219538 -0.0239817 0.0005
0.222112 -0.0237121 -0.0005
0.222112 -0.0237121 0.0005
0.224785 -0.023432 -0.0005
0.224785 -0.023432 0.0005
0.227563 -0.023141 -0.0005
0.227563 -0.023141 0.0005
0.230449 -0.0228387 -0.0005
0.230449 -0.0228387 0.0005
0.233447 -0.0225246 -0.0005
0.233447 -0.0225246 0.0005
0.236562 -0.0221983 -0.0005
0.236562 -0.0221983 0.0005
0.239797 -0.0218593 -0.0005
0.239797 -0.0218593 0.0005
0.243159 -0.0215071 -0.0005
0.243159 -0.0215071 0.0005
0.246652 -0.0211412 -0.0005
0.246652 -0.0211412 0.0005
0.250281 -0.0207611 -0.0005
0.250281 -0.0207611 0.0005
0.254051 -0.0203661 -0.0005
0.254051 -0.0203661 0.0005
0.257967 -0.0199558 -0.0005
0.257967 -0.0199558 0.0005
0.262036 -0.0195295 -0.0005
0.262036 -0.0195295 0.0005
0.266264 -0.0190867 -0.0005
0.266264 -0.0190867 0.0005
0.270655 -0.0186266 -0.0005
0.270655 -0.0186266 0.0005
0.275218 -0.0181486 -0.0005
0.275218 -0.0181486 0.0005
0.279959 -0.017652 -0.0005
0.279959 -0.017652 0.0005
0.284883 -0.017136 -0.0005
0.284883 -0.017136 0.0005
0.29 -0.0166 -0.0005
0.29 -0.0166 0.0005

POLYGONS 250 1250
4 0 1 2 3
4 1 4 5 2
4 4 6 7 5
4 6 8 9 7
4 8 10 11 9
4 10 12 13 11
4 12 14 15 13
4 14 16 17 15
4 16 18 19 17
4 18 20 21 19
4 20 22 23 21
4 22 24 25 23
4 24 26 27 25
4 26 28 29 27
4 28 30 31 29
4 30 32 33 31
4 32 34 35 33
4 34 36 37 35
4 38 39 40 41
4 41 40 42 43
4 43 42 44 45
4 45 44 46 47
4 47 46 48 49
4 49 48 50 51
4 51 50 52 53
4 53 52 54 55
4 55 54 56 57
4 57 56 58 59
4 59 58 60 61
4 61 60 62 63
4 63 62 64 65
4 65 64 66 67
4 67 66 68 69
4 69 68 70 71
4 71 70 72 73
4 73 72 74 75
4 75 74 76 77
4 77 76 78 79
4 79 78 80 81
4 81 80 82 83
4 83 82 84 85
4 85 84 86 87
4 87 86 88 89
4 89 88 90 91
4 91 90 37 36
4 38 92 93 39
4 92 94 95 93
4 94 96 97 95
4 96 98 99 97
4 98 100 101 99
4 100 102 103 101
4 102 104 105 103
4 104 106 107 105
4 106 108 109 107
4 108 110 111 109
4 110 112 113 111
4 112 114 115 113
4 114 116 117 115
4 116 118 119 117
4 118 120 121 119
4 120 122 123 121
4 122 124 125 123
4 124 126 127 125
4 126 128 129 127
4 128 130 131 129
4 130 132 133 131
4 132 134 135 133
4 134 136 137 135
4 136 138 139 137
4 138 140 141 139
4 140 142 143 141
4 142 144 145 143
4 144 146 147 145
4 146 148 149 147
4 148 150 151 149
4 150 152 153 151
4 152 154 155 153
4 154 156 157 155
4 156 158 159 157
4 158 160 161 159
4 160 162 163 161
4 162 164 165 163
4 164 166 167 165
4 166 168 169 167
4 168 170 171 169
4 170 172 173 171
4 172 174 175 173
4 174 176 177 175
4 176 178 179 177
4 178 180 181 179
4 180 182 183 181
4 182 184 185 183
4 184 186 187 185
4 186 188 189 187
4 188 190 191 189
4 190 192 193 191
4 192 194 195 193
4 194 196 197 195
4 196 198 199 197
4 198 200 201 199
4 200 202 203 201
4 202 204 205 203
4 204 206 207 205
4 206 208 209 207
4 208 210 211 209
4 210 212 213 211
4 212 214 215 213
4 214 216 217 215
4 216 218 219 217
4 218 220 221 219
4 220 222 223 221
4 222 224 225 223
4 224 226 227 225
4 226 228 229 227
4 228 230 231 229
4 230 232 233 231
4 232 234 235 233
4 234 236 237 235
4 236 238 239 237
4 238 240 241 239
4 240 242 243 241
4 242 244 245 243
4 244 246 247 245
4 246 248 249 247
4 248 250 251 249
4 250 252 253 251
4 252 254 255 253
4 254 256 257 255
4 256 258 259 257
4 258 260 261 259
4 260 262 263 261
4 262 264 265 263
4 264 266 267 265
4 266 268 269 267
4 268 270 271 269
4 270 272 273 271
4 272 274 275 273
4 274 276 277 275
4 276 278 279 277
4 278 280 281 279
4 280 282 283 281
4 282 284 285 283
4 284 286 287 285
4 286 288 289 287
4 288 290 291 289
4 290 292 293 291
4 292 294 295 293
4 294 296 297 295
4 296 298 299 297
4 298 300 301 299
4 300 302 303 301
4 302 304 305 303
4 304 306 307 305
4 306 308 309 307
4 308 310 311 309
4 310 312 313 311
4 312 314 315 313
4 314 316 317 315
4 316 318 319 317
4 318 320 321 319
4 320 322 323 321
4 322 324 325 323
4 324 326 327 325
4 326 328 329 327
4 328 330 331 329
4 330 332 333 331
4 332 334 335 333
4 334 336 337 335
4 336 338 339 337
4 338 340 341 339
4 340 342 343 341
4 342 344 345 343
4 344 346 347 345
4 346 348 349 347
4 348 350 351 349
4 350 352 353 351
4 352 354 355 353
4 354 356 357 355
4 356 358 359 357
4 358 360 361 359
4 360 362 363 361
4 362 364 365 363
4 364 366 367 365
4 366 368 369 367
4 368 370 371 369
4 370 372 373 371
4 372 374 375 373
4 374 376 377 375
4 376 378 379 377
4 378 380 381 379
4 380 382 383 381
4 382 384 385 383
4 384 386 387 385
4 386 388 389 387
4 388 390 391 389
4 390 392 393 391
4 392 394 395 393
4 394 396 397 395
4 396 398 399 397
4 398 400 401 399
4 400 402 403 401
4 402 404 405 403
4 404 406 407 405
4 406 408 409 407
4 408 410 411 409
4 410 412 413 411
4 412 414 415 413
4 414 416 417 415
4 416 418 419 417
4 418 420 421 419
4 420 422 423 421
4 422 424 425 423
4 424 426 427 425
4 426 428 429 427
4 428 430 431 429
4 430 432 433 431
4 432 434 435 433
4 434 436 437 435
4 436 438 439 437
4 438 440 441 439
4 440 442 443 441
4 442 444 445 443
4 444 446 447 445
4 446 448 449 447
4 448 450 451 449
4 450 452 453 451
4 452 454 455 453
4 454 456 457 455
4 456 458 459 457
4 458 460 461 459
4 460 462 463 461
4 462 464 465 463
4 464 466 467 465
4 466 468 469 467
4 468 470 471 469
4 470 472 473 471
4 472 474 475 473
4 474 476 477 475
4 476 478 479 477
4 478 480 481 479
4 480 482 483 481
4 482 484 485 483
4 484 486 487 485
4 486 488 489 487
4 488 490 491 489
4 490 492 493 491
4 492 494 495 493
4 494 496 497 495
4 496 498 499 497
4 498 500 501 499
POINT_DATA 502
FIELD attributes 1
U 3 502 float
1.6327 0.0754736 -0.00340408
0.817993 0.037568 -0.00167753
0.817993 0.037568 -0.00167753
1.6327 0.0754736 -0.00340408
0.0245491 0.000721175 0
0.0245491 0.000721175 0
0.0214379 0.00062869 0
0.0214379 0.00062869 0
0.0191177 0.00049911 0
0.0191177 0.00049911 0
0.0170579 0.000413286 0
0.0170579 0.000413286 0
0.0150363 0.00035804 0
0.0150363 0.00035804 0
0.0130956 0.000310534 0
0.0130956 0.000310534 0
0.0113046 0.000267272 0
0.0113046 0.000267272 0
0.00969137 0.000227517 0
0.00969137 0.000227517 0
0.00824847 0.000187456 0
0.00824847 0.000187456 0
0.00697086 0.000145199 0
0.00697086 0.000145199 0
0.00584108 0.000105874 0
0.00584108 0.000105874 0
0.00487231 7.4889e-05 0
0.00487231 7.4889e-05 0
0.00400608 5.08095e-05 0
0.00400608 5.08095e-05 0
0.00329299 4.02423e-05 0
0.00329299 4.02423e-05 0
0.00254603 1.15114e-05 0
0.00254603 1.15114e-05 0
0.00200137 -7.00837e-05 0
0.00200137 -7.00837e-05 0
0.000814094 0.000325004 0
0.000814094 0.000325004 0
-1.25099e-05 6.55533e-05 -1.01972e-23
-1.25099e-05 6.55533e-05 -1.01972e-23
-2.25443e-05 -2.75583e-06 2.75977e-23
-2.25443e-05 -2.75583e-06 2.75977e-23
-4.78633e-05 -0.000172275 3.27525e-23
-4.78633e-05 -0.000172275 3.27525e-23
0.000155671 -0.000771987 -6.56765e-23
0.000155671 -0.000771987 -6.56765e-23
0.000506335 -0.002746 -2.18782e-23
0.000506335 -0.002746 -2.18782e-23
0.000512787 -0.00506808 4.38545e-23
0.000512787 -0.00506808 4.38545e-23
0.000277837 -0.006262 0
0.000277837 -0.006262 0
9.3002e-05 -0.00668402 8.80311e-23
9.3002e-05 -0.00668402 8.80311e-23
-3.23189e-05 -0.00655495 -4.24358e-27
-3.23189e-05 -0.00655495 -4.24358e-27
-0.000114909 -0.00605063 -8.80354e-23
-0.000114909 -0.00605063 -8.80354e-23
-0.000189588 -0.00521304 8.39359e-23
-0.000189588 -0.00521304 8.39359e-23
-0.000230153 -0.00412659 -3.66187e-26
-0.000230153 -0.00412659 -3.66187e-26
-0.000214118 -0.00302725 -8.39725e-23
-0.000214118 -0.00302725 -8.39725e-23
-0.000176774 -0.0019979 -8.09386e-23
-0.000176774 -0.0019979 -8.09386e-23
-0.00011493 -0.00116138 2.74295e-26
-0.00011493 -0.00116138 2.74295e-26
-2.8946e-05 -0.000620435 8.24011e-23
-2.8946e-05 -0.000620435 8.24011e-23
5.81101e-05 -0.000479175 0
5.81101e-05 -0.000479175 0
2.61286e-05 -0.000738462 0
2.61286e-05 -0.000738462 0
-0.000144542 -0.00100977 0
-0.000144542 -0.00100977 0
-0.000147328 -0.00101532 0
-0.000147328 -0.00101532 0
0.000161677 -0.00113098 0
0.000161677 -0.00113098 0
0.000359912 -0.00177906 0
0.000359912 -0.00177906 0
0.000219842 -0.00240982 0
0.000219842 -0.00240982 0
-8.02508e-05 -0.00238205 0
-8.02508e-05 -0.00238205 0
-0.0003993 -0.00178325 0
-0.0003993 -0.00178325 0
-0.000599673 -0.000888272 0
-0.000599673 -0.000888272 0
-0.000376057 0.000149085 0
-0.000376057 0.000149085 0
-6.40876e-06 3.4869e-05 -4.44194e-26
-6.40876e-06 3.4869e-05 -4.44194e-26
3.93398e-05 -2.54282e-05 5.06716e-24
3.93398e-05 -2.54282e-05 5.06716e-24
0.00013653 -7.34246e-05 0
0.00013653 -7.34246e-05 0
0.000257342 -9.44364e-05 0
0.000257342 -9.44364e-05 0
0.000374079 -8.71541e-05 -4.92445e-24
0.000374079 -8.71541e-05 -4.92445e-24
0.000465556 -6.13318e-05 -4.9333e-24
0.000465556 -6.13318e-05 -4.9333e-24
0.000519939 -2.66225e-05 0
0.000519939 -2.66225e-05 0
0.000530865 1.07835e-05 0
0.000530865 1.07835e-05 0
0.000500165 4.54217e-05 0
0.000500165 4.54217e-05 0
0.000432583 7.31356e-05 4.7681e-24
0.000432583 7.31356e-05 4.7681e-24
0.000335219 9.11313e-05 4.77718e-24
0.000335219 9.11313e-05 4.77718e-24
0.000217326 9.83096e-05 0
0.000217326 9.83096e-05 0
8.78888e-05 9.64565e-05 0
8.78888e-05 9.64565e-05 0
-4.55228e-05 9.05051e-05 0
-4.55228e-05 9.05051e-05 0
-0.000179282 8.60687e-05 4.57724e-24
-0.000179282 8.60687e-05 4.57724e-24
-0.000313903 8.76599e-05 4.58648e-24
-0.000313903 8.76599e-05 4.58648e-24
-0.000446544 9.51026e-05 0
-0.000446544 9.51026e-05 0
-0.000570134 0.000100743 0
-0.000570134 0.000100743 0
-0.000678677 9.65937e-05 0
-0.000678677 9.65937e-05 0
-0.000770525 8.37219e-05 0
-0.000770525 8.37219e-05 0
-0.000850031 7.32206e-05 0
-0.000850031 7.32206e-05 0
-0.000923083 7.71331e-05 0
-0.000923083 7.71331e-05 0
-0.000991328 9.52063e-05 4.26008e-24
-0.000991328 9.52063e-05 4.26008e-24
-0.00105351 0.000112975 4.7036e-26
-0.00105351 0.000112975 4.7036e-26
-0.00111288 0.00011754 -4.70515e-26
-0.00111288 0.00011754 -4.70515e-26
-0.0011808 0.000108506 8.34141e-24
-0.0011808 0.000108506 8.34141e-24
-0.00126941 9.23171e-05 4.15658e-24
-0.00126941 9.23171e-05 4.15658e-24
-0.00138385 7.66325e-05 0
-0.00138385 7.66325e-05 0
-0.00152234 6.88711e-05 -4.03065e-24
-0.00152234 6.88711e-05 -4.03065e-24
-0.00168008 7.26199e-05 -8.03018e-24
-0.00168008 7.26199e-05 -8.03018e-24
-0.00185229 8.62266e-05 -3.99953e-24
-0.00185229 8.62266e-05 -3.99953e-24
-0.00203497 0.000105546 0
-0.00203497 0.000105546 0
-0.00222448 0.000126267 -3.85669e-24
-0.00222448 0.000126267 -3.85669e-24
-0.00241593 0.000148005 -3.86619e-24
-0.00241593 0.000148005 -3.86619e-24
-0.00260589 0.000176873 0
-0.00260589 0.000176873 0
-0.00279454 0.000220014 3.69532e-24
-0.00279454 0.000220014 3.69532e-24
-0.00298278 0.000271977 3.70471e-24
-0.00298278 0.000271977 3.70471e-24
-0.00316715 0.000284138 3.56987e-24
-0.00316715 0.000284138 3.56987e-24
-0.00331911 0.000160907 1.05875e-23
-0.00331911 0.000160907 1.05875e-23
-0.00336273 -0.00013185 7.02676e-24
-0.00336273 -0.00013185 7.02676e-24
-0.00321676 -0.000431318 0
-0.00321676 -0.000431318 0
-0.00292325 -0.000516696 0
-0.00292325 -0.000516696 0
-0.00262896 -0.000429358 0
-0.00262896 -0.000429358 0
-0.00236308 -0.000381651 0
-0.00236308 -0.000381651 0
-0.0020599 -0.000393751 6.12191e-24
-0.0020599 -0.000393751 6.12191e-24
-0.0017584 -0.000383738 1.21139e-23
-0.0017584 -0.000383738 1.21139e-23
-0.00148609 -0.000369384 1.18242e-23
-0.00148609 -0.000369384 1.18242e-23
-0.00120723 -0.000368049 5.84901e-24
-0.00120723 -0.000368049 5.84901e-24
-0.000895494 -0.000373277 -5.57206e-24
-0.000895494 -0.000373277 -5.57206e-24
-0.000523094 -0.000388507 -5.58821e-24
-0.000523094 -0.000388507 -5.58821e-24
-9.052e-05 -0.000399367 5.35921e-24
-9.052e-05 -0.000399367 5.35921e-24
0.000380353 -0.000388988 1.06482e-23
0.000380353 -0.000388988 1.06482e-23
0.000855336 -0.000352371 5.28893e-24
0.000855336 -0.000352371 5.28893e-24
0.00130696 -0.000292466 0
0.00130696 -0.000292466 0
0.00171242 -0.000215814 0
0.00171242 -0.000215814 0
0.00204084 -0.000118817 5.102e-24
0.00204084 -0.000118817 5.102e-24
0.00225298 1.31579e-05 5.11781e-24
0.00225298 1.31579e-05 5.11781e-24
0.00231095 0.000173306 0
0.00231095 0.000173306 0
0.00220238 0.000296937 0
0.00220238 0.000296937 0
0.00194232 0.000316201 0
0.00194232 0.000316201 0
0.00156102 0.000252403 0
0.00156102 0.000252403 0
0.00109818 0.000191796 0
0.00109818 0.000191796 0
0.000591135 0.000177573 0
0.000591135 0.000177573 0
6.70115e-05 0.000183834 0
6.70115e-05 0.000183834 0
-0.000416747 0.000178725 -5.25567e-24
-0.000416747 0.000178725 -5.25567e-24
-0.000758808 0.000143999 -5.27333e-24
-0.000758808 0.000143999 -5.27333e-24
-0.000877313 7.17239e-05 0
-0.000877313 7.17239e-05 0
-0.000734461 4.87525e-06 5.15027e-24
-0.000734461 4.87525e-06 5.15027e-24
-0.000345647 3.89937e-05 1.02e-23
-0.000345647 3.89937e-05 1.02e-23
0.000118102 0.000161765 5.04943e-24
0.000118102 0.000161765 5.04943e-24
0.000401685 0.000151699 -4.82387e-24
0.000401685 0.000151699 -4.82387e-24
0.000506812 -4.86235e-05 -1.00532e-25
0.000506812 -4.86235e-05 -1.00532e-25
0.000646113 -0.000194688 4.75733e-24
0.000646113 -0.000194688 4.75733e-24
0.000864908 -0.000104696 -4.57908e-24
0.000864908 -0.000104696 -4.57908e-24
0.00109333 7.90154e-05 -4.5957e-24
0.00109333 7.90154e-05 -4.5957e-24
0.00133396 -1.731e-05 0
0.00133396 -1.731e-05 0
0.00159732 -0.000414507 4.38882e-24
0.00159732 -0.000414507 4.38882e-24
0.00170221 -0.000472197 4.40514e-24
0.00170221 -0.000472197 4.40514e-24
0.00122782 9.08398e-05 -4.34949e-24
0.00122782 9.08398e-05 -4.34949e-24
0.000196003 0.000587635 -4.36592e-24
0.000196003 0.000587635 -4.36592e-24
-0.000933102 0.000671697 4.435e-24
-0.000933102 0.000671697 4.435e-24
-0.00196652 0.000616494 8.98349e-24
-0.00196652 0.000616494 8.98349e-24
-0.00289863 0.000550095 9.19446e-24
-0.00289863 0.000550095 9.19446e-24
-0.00372955 0.000487518 1.41962e-23
-0.00372955 0.000487518 1.41962e-23
-0.00447216 0.000432093 -2.04054e-25
-0.00447216 0.000432093 -2.04054e-25
-0.00513889 0.000383711 -9.8128e-24
-0.00513889 0.000383711 -9.8128e-24
-0.005738 0.000340821 0
-0.005738 0.000340821 0
-0.00627519 0.000301719 0
-0.00627519 0.000301719 0
-0.00675338 0.00026507 -1.05767e-23
-0.00675338 0.00026507 -1.05767e-23
-0.00717389 0.000229877 -2.13276e-23
-0.00717389 0.000229877 -2.13276e-23
-0.00753676 0.000195495 4.97505e-26
-0.00753676 0.000195495 4.97505e-26
-0.00784149 0.000161661 1.08462e-23
-0.00784149 0.000161661 1.08462e-23
-0.00808745 0.000128351 -1.08631e-23
-0.00808745 0.000128351 -1.08631e-23
-0.00827426 9.57614e-05 -2.17353e-23
-0.00827426 9.57614e-05 -2.17353e-23
-0.00840203 6.45373e-05 -2.16172e-23
-0.00840203 6.45373e-05 -2.16172e-23
-0.00847173 3.54304e-05 -1.07905e-23
-0.00847173 3.54304e-05 -1.07905e-23
-0.00848601 8.51113e-06 0
-0.00848601 8.51113e-06 0
-0.00844994 -1.57496e-05 0
-0.00844994 -1.57496e-05 0
-0.00836801 -3.70226e-05 -1.00082e-23
-0.00836801 -3.70226e-05 -1.00082e-23
-0.00824361 -5.57415e-05 -1.0052e-23
-0.00824361 -5.57415e-05 -1.0052e-23
-0.008081 -7.20201e-05 0
-0.008081 -7.20201e-05 0
-0.00788434 -8.60075e-05 9.15279e-24
-0.00788434 -8.60075e-05 9.15279e-24
-0.00765752 -9.79568e-05 9.19368e-24
-0.00765752 -9.79568e-05 9.19368e-24
-0.00740397 -0.000108163 0
-0.00740397 -0.000108163 0
-0.00712656 -0.000116954 8.18613e-24
-0.00712656 -0.000116954 8.18613e-24
-0.0068276 -0.000124639 8.22342e-24
-0.0068276 -0.000124639 8.22342e-24
-0.00650889 -0.000131464 0
-0.00650889 -0.000131464 0
-0.00617184 -0.000137582 -7.20341e-24
-0.00617184 -0.000137582 -7.20341e-24
-0.00581771 -0.000143043 -1.41212e-23
-0.00581771 -0.000143043 -1.41212e-23
-0.0054478 -0.000147792 -6.91646e-24
-0.0054478 -0.000147792 -6.91646e-24
-0.00506371 -0.000151698 6.27409e-24
-0.00506371 -0.000151698 6.27409e-24
-0.00466746 -0.000154577 6.30375e-24
-0.00466746 -0.000154577 6.30375e-24
-0.00426158 -0.000156234 -5.71981e-24
-0.00426158 -0.000156234 -5.71981e-24
-0.00384906 -0.000156511 -5.74718e-24
-0.00384906 -0.000156511 -5.74718e-24
-0.00343326 -0.000155311 -5.2426e-24
-0.00343326 -0.000155311 -5.2426e-24
-0.00301778 -0.000152607 -1.03058e-23
-0.00301778 -0.000152607 -1.03058e-23
-0.00260628 -0.000148491 -5.06232e-24
-0.00260628 -0.000148491 -5.06232e-24
-0.00220211 -0.000143158 0
-0.00220211 -0.000143158 0
-0.00180827 -0.000136833 0
-0.00180827 -0.000136833 0
-0.00142715 -0.000129808 0
-0.00142715 -0.000129808 0
-0.00106052 -0.000122393 0
-0.00106052 -0.000122393 0
-0.000709432 -0.000114821 0
-0.000709432 -0.000114821 0
-0.000374047 -0.000107114 0
-0.000374047 -0.000107114 0
-5.46353e-05 -0.000100015 -4.18424e-24
-5.46353e-05 -0.000100015 -4.18424e-24
0.000248925 -9.3707e-05 -5.821e-26
0.000248925 -9.3707e-05 -5.821e-26
0.000538904 -8.76825e-05 4.16857e-24
0.000538904 -8.76825e-05 4.16857e-24
0.00081746 -8.21768e-05 0
0.00081746 -8.21768e-05 0
0.00108583 -7.7245e-05 0
0.00108583 -7.7245e-05 0
0.00134543 -7.27436e-05 0
0.00134543 -7.27436e-05 0
0.00159731 -6.84237e-05 8.06334e-24
0.00159731 -6.84237e-05 8.06334e-24
0.00184178 -6.39327e-05 8.1057e-24
0.00184178 -6.39327e-05 8.1057e-24
0.00207806 -5.88188e-05 -7.9692e-24
0.00207806 -5.88188e-05 -7.9692e-24
0.00230389 -5.25562e-05 -9.6701e-26
0.00230389 -5.25562e-05 -9.6701e-26
0.00251546 -4.47643e-05 7.95698e-24
0.00251546 -4.47643e-05 7.95698e-24
0.00270786 -3.55309e-05 0
0.00270786 -3.55309e-05 0
0.00287602 -2.50054e-05 0
0.00287602 -2.50054e-05 0
0.00301467 -1.31301e-05 -7.65227e-24
0.00301467 -1.31301e-05 -7.65227e-24
0.0031194 -7.73637e-07 -1.52709e-23
0.0031194 -7.73637e-07 -1.52709e-23
0.00318875 1.11098e-05 -7.61845e-24
0.00318875 1.11098e-05 -7.61845e-24
0.0032215 2.30888e-05 -7.41496e-24
0.0032215 2.30888e-05 -7.41496e-24
0.00321703 3.5119e-05 -1.47837e-23
0.00321703 3.5119e-05 -1.47837e-23
0.00317854 4.59258e-05 -1.3148e-25
0.00317854 4.59258e-05 -1.3148e-25
0.00311008 5.53766e-05 7.27717e-24
0.00311008 5.53766e-05 7.27717e-24
0.0030144 6.4412e-05 0
0.0030144 6.4412e-05 0
0.00289309 7.3155e-05 6.94361e-24
0.00289309 7.3155e-05 6.94361e-24
0.00274806 7.99118e-05 6.98271e-24
0.00274806 7.99118e-05 6.98271e-24
0.00258421 8.18195e-05 0
0.00258421 8.18195e-05 0
0.00241078 7.69813e-05 0
0.00241078 7.69813e-05 0
0.00223992 6.59401e-05 0
0.00223992 6.59401e-05 0
0.00208342 5.11702e-05 -6.41747e-24
0.00208342 5.11702e-05 -6.41747e-24
0.00194944 3.57431e-05 -1.2759e-23
0.00194944 3.57431e-05 -1.2759e-23
0.00184134 2.21128e-05 -6.34099e-24
0.00184134 2.21128e-05 -6.34099e-24
0.00175823 1.15585e-05 -6.06938e-24
0.00175823 1.15585e-05 -6.06938e-24
0.00169664 4.30573e-06 -6.1047e-24
0.00169664 4.30573e-06 -6.1047e-24
0.00165214 -9.00209e-08 0
0.00165214 -9.00209e-08 0
0.00162053 -2.37e-06 -5.70528e-24
0.00162053 -2.37e-06 -5.70528e-24
0.00159836 -3.29973e-06 -5.73886e-24
0.00159836 -3.29973e-06 -5.73886e-24
0.00158298 -3.49067e-06 -5.46311e-24
0.00158298 -3.49067e-06 -5.46311e-24
0.00157249 -3.33151e-06 -5.49551e-24
0.00157249 -3.33151e-06 -5.49551e-24
0.00156548 -3.02157e-06 0
0.00156548 -3.02157e-06 0
0.00156088 -2.64138e-06 -5.10674e-24