# vtk DataFile Version 2.0
sampleSurface
ASCII
DATASET POLYDATA
POINTS 502 double
-0.0206 0 -0.0005
-0.0190172 0 -0.0005
-0.0190172 0 0.0005
-0.0206 0 0.0005
-0.0174976 0 -0.0005
-0.0174976 0 0.0005
-0.0160387 0 -0.0005
-0.0160387 0 0.0005
-0.0146381 0 -0.0005
-0.0146381 0 0.0005
-0.0132934 0 -0.0005
-0.0132934 0 0.0005
-0.0120025 0 -0.0005
-0.0120025 0 0.0005
-0.0107632 0 -0.0005
-0.0107632 0 0.0005
-0.00957337 0 -0.0005
-0.00957337 0 0.0005
-0.00843108 0 -0.0005
-0.00843108 0 0.0005
-0.00733443 0 -0.0005
-0.00733443 0 0.0005
-0.0062816 0 -0.0005
-0.0062816 0 0.0005
-0.00527083 0 -0.0005
-0.00527083 0 0.0005
-0.00430044 0 -0.0005
-0.00430044 0 0.0005
-0.00336883 0 -0.0005
-0.00336883 0 0.0005
-0.00247443 0 -0.0005
-0.00247443 0 0.0005
-0.00161577 0 -0.0005
-0.00161577 0 0.0005
-0.000791418 0 -0.0005
-0.000791418 0 0.0005
0 0 -0.0005
0 0 0.0005
0 -0.0254 -0.0005
0 -0.0254 0.0005
0 -0.0242711 0.0005
0 -0.0242711 -0.0005
0 -0.0231422 0.0005
0 -0.0231422 -0.0005
0 -0.0220133 0.0005
0 -0.0220133 -0.0005
0 -0.0208844 0.0005
0 -0.0208844 -0.0005
0 -0.0197556 0.0005
0 -0.0197556 -0.0005
0 -0.0186267 0.0005
0 -0.0186267 -0.0005
0 -0.0174978 0.0005
0 -0.0174978 -0.0005
0 -0.0163689 0.0005
0 -0.0163689 -0.0005
0 -0.01524 0.0005
0 -0.01524 -0.0005
0 -0.0141111 0.0005
0 -0.0141111 -0.0005
0 -0.0129822 0.0005
0 -0.0129822 -0.0005
0 -0.0118533 0.0005
0 -0.0118533 -0.0005
0 -0.0107244 0.0005
0 -0.0107244 -0.0005
0 -0.00959556 0.0005
0 -0.00959556 -0.0005
0 -0.00846667 0.0005
0 -0.00846667 -0.0005
0 -0.00726604 0.0005
0 -0.00726604 -0.0005
0 -0.00618989 0.0005
0 -0.00618989 -0.0005
0 -0.00522531 0.0005
0 -0.00522531 -0.0005
0 -0.00436073 0.0005
0 -0.00436073 -0.0005
0 -0.00358579 0.0005
0 -0.00358579 -0.0005
0 -0.00289118 0.0005
0 -0.00289118 -0.0005
0 -0.0022686 0.0005
0 -0.0022686 -0.0005
0 -0.00171055 0.0005
0 -0.00171055 -0.0005
0 -0.00121037 0.0005
0 -0.00121037 -0.0005
0 -0.000762037 0.0005
0 -0.000762037 -0.0005
0 -0.000360188 0.0005
0 -0.000360188 -0.0005
0.000528387 -0.0254 -0.0005
0.000528387 -0.0254 0.0005
0.00106088 -0.0254 -0.0005
0.00106088 -0.0254 0.0005
0.00159752 -0.0254 -0.0005
0.00159752 -0.0254 0.0005
0.00213833 -0.0254 -0.0005
0.00213833 -0.0254 0.0005
0.00268334 -0.0254 -0.0005
0.00268334 -0.0254 0.0005
0.00323259 -0.0254 -0.0005
0.00323259 -0.0254 0.0005
0.00378611 -0.0254 -0.0005
0.00378611 -0.0254 0.0005
0.00434393 -0.0254 -0.0005
0.00434393 -0.0254 0.0005
0.00490609 -0.0254 -0.0005
0.00490609 -0.0254 0.0005
0.00547262 -0.0254 -0.0005
0.00547262 -0.0254 0.0005
0.00604356 -0.0254 -0.0005
0.00604356 -0.0254 0.0005
0.00661893 -0.0254 -0.0005
0.00661893 -0.0254 0.0005
0.00719878 -0.0254 -0.0005
0.00719878 -0.0254 0.0005
0.00778313 -0.0254 -0.0005
0.00778313 -0.0254 0.0005
0.00837203 -0.0254 -0.0005
0.00837203 -0.0254 0.0005
0.00896551 -0.0254 -0.0005
0.00896551 -0.0254 0.0005
0.0095636 -0.0254 -0.0005
0.0095636 -0.0254 0.0005
0.0101663 -0.0254 -0.0005
0.0101663 -0.0254 0.0005
0.0107738 -0.0254 -0.0005
0.0107738 -0.0254 0.0005
0.0113859 -0.0254 -0.0005
0.0113859 -0.0254 0.0005
0.0120028 -0.0254 -0.0005
0.0120028 -0.0254 0.0005
0.0126245 -0.0254 -0.0005
0.0126245 -0.0254 0.0005
0.0132511 -0.0254 -0.0005
0.0132511 -0.0254 0.0005
0.0138825 -0.0254 -0.0005
0.0138825 -0.0254 0.0005
0.0145188 -0.0254 -0.0005
0.0145188 -0.0254 0.0005
0.0151601 -0.0254 -0.0005
0.0151601 -0.0254 0.0005
0.0158063 -0.0254 -0.0005
0.0158063 -0.0254 0.0005
0.0164576 -0.0254 -0.0005
0.0164576 -0.0254 0.0005
0.0171139 -0.0254 -0.0005
0.0171139 -0.0254 0.0005
0.0177754 -0.0254 -0.0005
0.0177754 -0.0254 0.0005
0.018442 -0.0254 -0.0005
0.018442 -0.0254 0.0005
0.0191137 -0.0254 -0.0005
0.0191137 -0.0254 0.0005
0.0197907 -0.0254 -0.0005
0.0197907 -0.0254 0.0005
0.020473 -0.0254 -0.0005
0.020473 -0.0254 0.0005
0.0211606 -0.0254 -0.0005
0.0211606 -0.0254 0.0005
0.0218535 -0.0254 -0.0005
0.0218535 -0.0254 0.0005
0.0225517 -0.0254 -0.0005
0.0225517 -0.0254 0.0005
0.0232555 -0.0254 -0.0005
0.0232555 -0.0254 0.0005
0.0239647 -0.0254 -0.0005
0.0239647 -0.0254 0.0005
0.0246794 -0.0254 -0.0005
0.0246794 -0.0254 0.0005
0.0253996 -0.0254 -0.0005
0.0253996 -0.0254 0.0005
0.0261255 -0.0254 -0.0005
0.0261255 -0.0254 0.0005
0.026857 -0.0254 -0.0005
0.026857 -0.0254 0.0005
0.0275942 -0.0254 -0.0005
0.0275942 -0.0254 0.0005
0.0283371 -0.0254 -0.0005
0.0283371 -0.0254 0.0005
0.0290858 -0.0254 -0.0005
0.0290858 -0.0254 0.0005
0.0298403 -0.0254 -0.0005
0.0298403 -0.0254 0.0005
0.0306007 -0.0254 -0.0005
0.0306007 -0.0254 0.0005
0.031367 -0.0254 -0.0005
0.031367 -0.0254 0.0005
0.0321393 -0.0254 -0.0005
0.0321393 -0.0254 0.0005
0.0329175 -0.0254 -0.0005
0.0329175 -0.0254 0.0005
0.0337019 -0.0254 -0.0005
0.0337019 -0.0254 0.0005
0.0344923 -0.0254 -0.0005
0.0344923 -0.0254 0.0005
0.0352888 -0.0254 -0.0005
0.0352888 -0.0254 0.0005
0.0360916 -0.0254 -0.0005
0.0360916 -0.0254 0.0005
0.0369006 -0.0254 -0.0005
0.0369006 -0.0254 0.0005
0.0377158 -0.0254 -0.0005
0.0377158 -0.0254 0.0005
0.0385375 -0.0254 -0.0005
0.0385375 -0.0254 0.0005
0.0393655 -0.0254 -0.0005
0.0393655 -0.0254 0.0005
0.0401999 -0.0254 -0.0005
0.0401999 -0.0254 0.0005
0.0410408 -0.0254 -0.0005
0.0410408 -0.0254 0.0005
0.0418883 -0.0254 -0.0005
0.0418883 -0.0254 0.0005
0.0427424 -0.0254 -0.0005
0.0427424 -0.0254 0.0005
0.0436031 -0.0254 -0.0005
0.0436031 -0.0254 0.0005
0.0444704 -0.0254 -0.0005
0.0444704 -0.0254 0.0005
0.0453446 -0.0254 -0.0005
0.0453446 -0.0254 0.0005
0.0462255 -0.0254 -0.0005
0.0462255 -0.0254 0.0005
0.0471133 -0.0254 -0.0005
0.0471133 -0.0254 0.0005
0.048008 -0.0254 -0.0005
0.048008 -0.0254 0.0005
0.0489096 -0.0254 -0.0005
0.0489096 -0.0254 0.0005
0.0498183 -0.0254 -0.0005
0.0498183 -0.0254 0.0005
0.050734 -0.0254 -0.0005
0.050734 -0.0254 0.0005
0.0516568 -0.0254 -0.0005
0.0516568 -0.0254 0.0005
0.0525868 -0.0254 -0.0005
0.0525868 -0.0254 0.0005
0.053524 -0.0254 -0.0005
0.053524 -0.0254 0.0005
0.0544686 -0.0254 -0.0005
0.0544686 -0.0254 0.0005
0.0554204 -0.0254 -0.0005
0.0554204 -0.0254 0.0005
0.0563797 -0.0254 -0.0005
0.0563797 -0.0254 0.0005
0.0573464 -0.0254 -0.0005
0.0573464 -0.0254 0.0005
0.0583206 -0.0254 -0.0005
0.0583206 -0.0254 0.0005
0.0593025 -0.0254 -0.0005
0.0593025 -0.0254 0.0005
0.0602919 -0.0254 -0.0005
0.0602919 -0.0254 0.0005
0.0612891 -0.0254 -0.0005
0.0612891 -0.0254 0.0005
0.0622939 -0.0254 -0.0005
0.0622939 -0.0254 0.0005
0.0633067 -0.0254 -0.0005
0.0633067 -0.0254 0.0005
0.0643272 -0.0254 -0.0005
0.0643272 -0.0254 0.0005
0.0653557 -0.0254 -0.0005
0.0653557 -0.0254 0.0005
0.0663923 -0.0254 -0.0005
0.0663923 -0.0254 0.0005
0.0674368 -0.0254 -0.0005
0.0674368 -0.0254 0.0005
0.0684895 -0.0254 -0.0005
0.0684895 -0.0254 0.0005
0.0695504 -0.0254 -0.0005
0.0695504 -0.0254 0.0005
0.0706195 -0.0254 -0.0005
0.0706195 -0.0254 0.0005
0.0716969 -0.0254 -0.0005
0.0716969 -0.0254 0.0005
0.0727828 -0.0254 -0.0005
0.0727828 -0.0254 0.0005
0.073877 -0.0254 -0.0005
0.073877 -0.0254 0.0005
0.0749798 -0.0254 -0.0005
0.0749798 -0.0254 0.0005
0.0760911 -0.0254 -0.0005
0.0760911 -0.0254 0.0005
0.0772111 -0.0254 -0.0005
0.0772111 -0.0254 0.0005
0.0783398 -0.0254 -0.0005
0.0783398 -0.0254 0.0005
0.0794772 -0.0254 -0.0005
0.0794772 -0.0254 0.0005
0.0806235 -0.0254 -0.0005
0.0806235 -0.0254 0.0005
0.0817787 -0.0254 -0.0005
0.0817787 -0.0254 0.0005
0.0829429 -0.0254 -0.0005
0.0829429 -0.0254 0.0005
0.0841162 -0.0254 -0.0005
0.0841162 -0.0254 0.0005
0.0852985 -0.0254 -0.0005
0.0852985 -0.0254 0.0005
0.0864901 -0.0254 -0.0005
0.0864901 -0.0254 0.0005
0.0876909 -0.0254 -0.0005
0.0876909 -0.0254 0.0005
0.0889011 -0.0254 -0.0005
0.0889011 -0.0254 0.0005
0.0901207 -0.0254 -0.0005
0.0901207 -0.0254 0.0005
0.0913497 -0.0254 -0.0005
0.0913497 -0.0254 0.0005
0.0925883 -0.0254 -0.0005
0.0925883 -0.0254 0.0005
0.0938366 -0.0254 -0.0005
0.0938366 -0.0254 0.0005
0.0950945 -0.0254 -0.0005
0.0950945 -0.0254 0.0005
0.0963622 -0.0254 -0.0005
0.0963622 -0.0254 0.0005
0.0976398 -0.0254 -0.0005
0.0976398 -0.0254 0.0005
0.0989273 -0.0254 -0.0005
0.0989273 -0.0254 0.0005
0.100225 -0.0254 -0.0005
0.100225 -0.0254 0.0005
0.101532 -0.0254 -0.0005
0.101532 -0.0254 0.0005
0.10285 -0.0254 -0.0005
0.10285 -0.0254 0.0005
0.104178 -0.0254 -0.0005
0.104178 -0.0254 0.0005
0.105517 -0.0254 -0.0005
0.105517 -0.0254 0.0005
0.106865 -0.0254 -0.0005
0.106865 -0.0254 0.0005
0.108225 -0.0254 -0.0005
0.108225 -0.0254 0.0005
0.109594 -0.0254 -0.0005
0.109594 -0.0254 0.0005
0.110975 -0.0254 -0.0005
0.110975 -0.0254 0.0005
0.112366 -0.0254 -0.0005
0.112366 -0.0254 0.0005
0.113768 -0.0254 -0.0005
0.113768 -0.0254 0.0005
0.115181 -0.0254 -0.0005
0.115181 -0.0254 0.0005
0.116605 -0.0254 -0.0005
0.116605 -0.0254 0.0005
0.11804 -0.0254 -0.0005
0.11804 -0.0254 0.0005
0.119486 -0.0254 -0.0005
0.119486 -0.0254 0.0005
0.120943 -0.0254 -0.0005
0.120943 -0.0254 0.0005
0.122412 -0.0254 -0.0005
0.122412 -0.0254 0.0005
0.123892 -0.0254 -0.0005
0.123892 -0.0254 0.0005
0.125384 -0.0254 -0.0005
0.125384 -0.0254 0.0005
0.126887 -0.0254 -0.0005
0.126887 -0.0254 0.0005
0.128402 -0.0254 -0.0005
0.128402 -0.0254 0.0005
0.129928 -0.0254 -0.0005
0.129928 -0.0254 0.0005
0.131467 -0.0254 -0.0005
0.131467 -0.0254 0.0005
0.133017 -0.0254 -0.0005
0.133017 -0.0254 0.0005
0.13458 -0.0254 -0.0005
0.13458 -0.0254 0.0005
0.136155 -0.0254 -0.0005
0.136155 -0.0254 0.0005
0.137742 -0.0254 -0.0005
0.137742 -0.0254 0.0005
0.139341 -0.0254 -0.0005
0.139341 -0.0254 0.0005
0.140953 -0.0254 -0.0005
0.140953 -0.0254 0.0005
0.142577 -0.0254 -0.0005
0.142577 -0.0254 0.0005
0.144214 -0.0254 -0.0005
0.144214 -0.0254 0.0005
0.145863 -0.0254 -0.0005
0.145863 -0.0254 0.0005
0.147526 -0.0254 -0.0005
0.147526 -0.0254 0.0005
0.149201 -0.0254 -0.0005
0.149201 -0.0254 0.0005
0.15089 -0.0254 -0.0005
0.15089 -0.0254 0.0005
0.152591 -0.0254 -0.0005
0.152591 -0.0254 0.0005
0.154306 -0.0254 -0.0005
0.154306 -0.0254 0.0005
0.156034 -0.0254 -0.0005
0.156034 -0.0254 0.0005
0.157775 -0.0254 -0.0005
0.157775 -0.0254 0.0005
0.159531 -0.0254 -0.0005
0.159531 -0.0254 0.0005
0.161299 -0.0254 -0.0005
0.161299 -0.0254 0.0005
0.163082 -0.0254 -0.0005
0.163082 -0.0254 0.0005
0.164878 -0.0254 -0.0005
0.164878 -0.0254 0.0005
0.166688 -0.0254 -0.0005
0.166688 -0.0254 0.0005
0.168513 -0.0254 -0.0005
0.168513 -0.0254 0.0005
0.170351 -0.0254 -0.0005
0.170351 -0.0254 0.0005
0.172204 -0.0254 -0.0005
0.172204 -0.0254 0.0005
0.174071 -0.0254 -0.0005
0.174071 -0.0254 0.0005
0.175953 -0.0254 -0.0005
0.175953 -0.0254 0.0005
0.177849 -0.0254 -0.0005
0.177849 -0.0254 0.0005
0.17976 -0.0254 -0.0005
0.17976 -0.0254 0.0005
0.181686 -0.0254 -0.0005
0.181686 -0.0254 0.0005
0.183627 -0.0254 -0.0005
0.183627 -0.0254 0.0005
0.185583 -0.0254 -0.0005
0.185583 -0.0254 0.0005
0.187555 -0.0254 -0.0005
0.187555 -0.0254 0.0005
0.189541 -0.0254 -0.0005
0.189541 -0.0254 0.0005
0.191543 -0.0254 -0.0005
0.191543 -0.0254 0.0005
0.193561 -0.0254 -0.0005
0.193561 -0.0254 0.0005
0.195594 -0.0254 -0.0005
0.195594 -0.0254 0.0005
0.197643 -0.0254 -0.0005
0.197643 -0.0254 0.0005
0.199708 -0.0254 -0.0005
0.199708 -0.0254 0.0005
0.201789 -0.0254 -0.0005
0.201789 -0.0254 0.0005
0.203886 -0.0254 -0.0005
0.203886 -0.0254 0.0005
0.206 -0.0254 -0.0005
0.206 -0.0254 0.0005
0.208047 -0.0251856 -0.0005
0.208047 -0.0251856 0.0005
0.210173 -0.0249628 -0.0005
0.210173 -0.0249628 0.0005
0.212382 -0.0247314 -0.0005
0.212382 -0.0247314 0.0005
0.214677 -0.024491 -0.0005
0.214677 -0.024491 0.0005
0.217061 -0.0242412 -0.0005
0.217061 -0.0242412 0.0005
0.219538 -0.0239817 -0.0005
0.219538 -0.0239817 0.0005
0.222112 -0.0237121 -0.0005
0.222112 -0.0237121 0.0005
0.224785 -0.023432 -0.0005
0.224785 -0.023432 0.0005
0.227563 -0.023141 -0.0005
0.227563 -0.023141 0.0005
0.230449 -0.0228387 -0.0005
0.230449 -0.0228387 0.0005
0.233447 -0.0225246 -0.0005
0.233447 -0.0225246 0.0005
0.236562 -0.0221983 -0.0005
0.236562 -0.0221983 0.0005
0.239797 -0.0218593 -0.0005
0.239797 -0.0218593 0.0005
0.243159 -0.0215071 -0.0005
0.243159 -0.0215071 0.0005
0.246652 -0.0211412 -0.0005
0.246652 -0.0211412 0.0005
0.250281 -0.0207611 -0.0005
0.250281 -0.0207611 0.0005
0.254051 -0.0203661 -0.0005
0.254051 -0.0203661 0.0005
0.257967 -0.0199558 -0.0005
0.257967 -0.0199558 0.0005
0.262036 -0.0195295 -0.0005
0.262036 -0.0195295 0.0005
0.266264 -0.0190867 -0.0005
0.266264 -0.0190867 0.0005
0.270655 -0.0186266 -0.0005
0.270655 -0.0186266 0.0005
0.275218 -0.0181486 -0.0005
0.275218 -0.0181486 0.0005
0.279959 -0.017652 -0.0005
0.279959 -0.017652 0.0005
0.284883 -0.017136 -0.0005
0.284883 -0.017136 0.0005
0.29 -0.0166 -0.0005
0.29 -0.0166 0.0005

POLYGONS 250 1250
4 0 1 2 3
4 1 4 5 2
4 4 6 7 5
4 6 8 9 7
4 8 10 11 9
4 10 12 13 11
4 12 14 15 13
4 14 16 17 15
4 16 18 19 17
4 18 20 21 19
4 20 22 23 21
4 22 24 25 23
4 24 26 27 25
4 26 28 29 27
4 28 30 31 29
4 30 32 33 31
4 32 34 35 33
4 34 36 37 35
4 38 39 40 41
4 41 40 42 43
4 43 42 44 45
4 45 44 46 47
4 47 46 48 49
4 49 48 50 51
4 51 50 52 53
4 53 52 54 55
4 55 54 56 57
4 57 56 58 59
4 59 58 60 61
4 61 60 62 63
4 63 62 64 65
4 65 64 66 67
4 67 66 68 69
4 69 68 70 71
4 71 70 72 73
4 73 72 74 75
4 75 74 76 77
4 77 76 78 79
4 79 78 80 81
4 81 80 82 83
4 83 82 84 85
4 85 84 86 87
4 87 86 88 89
4 89 88 90 91
4 91 90 37 36
4 38 92 93 39
4 92 94 95 93
4 94 96 97 95
4 96 98 99 97
4 98 100 101 99
4 100 102 103 101
4 102 104 105 103
4 104 106 107 105
4 106 108 109 107
4 108 110 111 109
4 110 112 113 111
4 112 114 115 113
4 114 116 117 115
4 116 118 119 117
4 118 120 121 119
4 120 122 123 121
4 122 124 125 123
4 124 126 127 125
4 126 128 129 127
4 128 130 131 129
4 130 132 133 131
4 132 134 135 133
4 134 136 137 135
4 136 138 139 137
4 138 140 141 139
4 140 142 143 141
4 142 144 145 143
4 144 146 147 145
4 146 148 149 147
4 148 150 151 149
4 150 152 153 151
4 152 154 155 153
4 154 156 157 155
4 156 158 159 157
4 158 160 161 159
4 160 162 163 161
4 162 164 165 163
4 164 166 167 165
4 166 168 169 167
4 168 170 171 169
4 170 172 173 171
4 172 174 175 173
4 174 176 177 175
4 176 178 179 177
4 178 180 181 179
4 180 182 183 181
4 182 184 185 183
4 184 186 187 185
4 186 188 189 187
4 188 190 191 189
4 190 192 193 191
4 192 194 195 193
4 194 196 197 195
4 196 198 199 197
4 198 200 201 199
4 200 202 203 201
4 202 204 205 203
4 204 206 207 205
4 206 208 209 207
4 208 210 211 209
4 210 212 213 211
4 212 214 215 213
4 214 216 217 215
4 216 218 219 217
4 218 220 221 219
4 220 222 223 221
4 222 224 225 223
4 224 226 227 225
4 226 228 229 227
4 228 230 231 229
4 230 232 233 231
4 232 234 235 233
4 234 236 237 235
4 236 238 239 237
4 238 240 241 239
4 240 242 243 241
4 242 244 245 243
4 244 246 247 245
4 246 248 249 247
4 248 250 251 249
4 250 252 253 251
4 252 254 255 253
4 254 256 257 255
4 256 258 259 257
4 258 260 261 259
4 260 262 263 261
4 262 264 265 263
4 264 266 267 265
4 266 268 269 267
4 268 270 271 269
4 270 272 273 271
4 272 274 275 273
4 274 276 277 275
4 276 278 279 277
4 278 280 281 279
4 280 282 283 281
4 282 284 285 283
4 284 286 287 285
4 286 288 289 287
4 288 290 291 289
4 290 292 293 291
4 292 294 295 293
4 294 296 297 295
4 296 298 299 297
4 298 300 301 299
4 300 302 303 301
4 302 304 305 303
4 304 306 307 305
4 306 308 309 307
4 308 310 311 309
4 310 312 313 311
4 312 314 315 313
4 314 316 317 315
4 316 318 319 317
4 318 320 321 319
4 320 322 323 321
4 322 324 325 323
4 324 326 327 325
4 326 328 329 327
4 328 330 331 329
4 330 332 333 331
4 332 334 335 333
4 334 336 337 335
4 336 338 339 337
4 338 340 341 339
4 340 342 343 341
4 342 344 345 343
4 344 346 347 345
4 346 348 349 347
4 348 350 351 349
4 350 352 353 351
4 352 354 355 353
4 354 356 357 355
4 356 358 359 357
4 358 360 361 359
4 360 362 363 361
4 362 364 365 363
4 364 366 367 365
4 366 368 369 367
4 368 370 371 369
4 370 372 373 371
4 372 374 375 373
4 374 376 377 375
4 376 378 379 377
4 378 380 381 379
4 380 382 383 381
4 382 384 385 383
4 384 386 387 385
4 386 388 389 387
4 388 390 391 389
4 390 392 393 391
4 392 394 395 393
4 394 396 397 395
4 396 398 399 397
4 398 400 401 399
4 400 402 403 401
4 402 404 405 403
4 404 406 407 405
4 406 408 409 407
4 408 410 411 409
4 410 412 413 411
4 412 414 415 413
4 414 416 417 415
4 416 418 419 417
4 418 420 421 419
4 420 422 423 421
4 422 424 425 423
4 424 426 427 425
4 426 428 429 427
4 428 430 431 429
4 430 432 433 431
4 432 434 435 433
4 434 436 437 435
4 436 438 439 437
4 438 440 441 439
4 440 442 443 441
4 442 444 445 443
4 444 446 447 445
4 446 448 449 447
4 448 450 451 449
4 450 452 453 451
4 452 454 455 453
4 454 456 457 455
4 456 458 459 457
4 458 460 461 459
4 460 462 463 461
4 462 464 465 463
4 464 466 467 465
4 466 468 469 467
4 468 470 471 469
4 470 472 473 471
4 472 474 475 473
4 474 476 477 475
4 476 478 479 477
4 478 480 481 479
4 480 482 483 481
4 482 484 485 483
4 484 486 487 485
4 486 488 489 487
4 488 490 491 489
4 490 492 493 491
4 492 494 495 493
4 494 496 497 495
4 496 498 499 497
4 498 500 501 499
POINT_DATA 502
FIELD attributes 1
U 3 502 float
1.60867 0.116102 -0.0245887
0.806194 0.0575302 -0.0121173
0.806194 0.0575302 -0.0121173
1.60867 0.116102 -0.0245887
0.024906 0.000597151 0
0.024906 0.000597151 0
0.0219913 0.000539187 0
0.0219913 0.000539187 0
0.0194389 0.000486341 0
0.0194389 0.000486341 0
0.0171191 0.000451669 0
0.0171191 0.000451669 0
0.0150036 0.000405155 0
0.0150036 0.000405155 0
0.0131212 0.000336511 0
0.0131212 0.000336511 0
0.0114573 0.000272871 0
0.0114573 0.000272871 0
0.00993069 0.000235535 0
0.00993069 0.000235535 0
0.00848323 0.000210244 0
0.00848323 0.000210244 0
0.00712663 0.000173001 0
0.00712663 0.000173001 0
0.0058985 0.000122345 0
0.0058985 0.000122345 0
0.0048474 7.36757e-05 0
0.0048474 7.36757e-05 0
0.00396815 3.60455e-05 0
0.00396815 3.60455e-05 0
0.00327059 1.42439e-05 0
0.00327059 1.42439e-05 0
0.00267271 -2.90678e-06 0
0.00267271 -2.90678e-06 0
0.00219051 -5.21504e-05 0
0.00219051 -5.21504e-05 0
0.000982953 0.000198924 0
0.000982953 0.000198924 0
-7.33625e-05 0.00011404 -3.79705e-23
-7.33625e-05 0.00011404 -3.79705e-23
-8.31069e-05 0.000278794 1.02742e-22
-8.31069e-05 0.000278794 1.02742e-22
-2.68825e-05 0.000272745 1.21802e-22
-2.68825e-05 0.000272745 1.21802e-22
0.000113069 -0.000323255 -2.43775e-22
0.000113069 -0.000323255 -2.43775e-22
0.000232905 -0.00132427 -8.12883e-23
0.000232905 -0.00132427 -8.12883e-23
0.000288851 -0.00251179 1.62561e-22
0.000288851 -0.00251179 1.62561e-22
0.00028434 -0.00368392 0
0.00028434 -0.00368392 0
0.000236011 -0.00467702 3.27062e-22
0.000236011 -0.00467702 3.27062e-22
0.000159444 -0.0053771 4.91041e-26
0.000159444 -0.0053771 4.91041e-26
7.23542e-05 -0.00574285 -3.27013e-22
7.23542e-05 -0.00574285 -3.27013e-22
-1.06264e-05 -0.00578213 3.27206e-22
-1.06264e-05 -0.00578213 3.27206e-22
-7.53431e-05 -0.00554961 -2.88397e-26
-7.53431e-05 -0.00554961 -2.88397e-26
-0.000117588 -0.00511696 -3.27235e-22
-0.000117588 -0.00511696 -3.27235e-22
-0.000142495 -0.00454549 -3.26933e-22
-0.000142495 -0.00454549 -3.26933e-22
-0.000160057 -0.00388093 1.04384e-25
-0.000160057 -0.00388093 1.04384e-25
-0.000180771 -0.00314203 3.32833e-22
-0.000180771 -0.00314203 3.32833e-22
-0.000189806 -0.002367 0
-0.000189806 -0.002367 0
-0.000132663 -0.00183317 0
-0.000132663 -0.00183317 0
2.91797e-05 -0.00178706 0
2.91797e-05 -0.00178706 0
0.000191249 -0.00224839 0
0.000191249 -0.00224839 0
0.00015617 -0.00268647 0
0.00015617 -0.00268647 0
-3.07446e-05 -0.00263249 0
-3.07446e-05 -0.00263249 0
-0.000194536 -0.00222337 0
-0.000194536 -0.00222337 0
-0.000324125 -0.00162541 0
-0.000324125 -0.00162541 0
-0.000403674 -0.00087944 0
-0.000403674 -0.00087944 0
-0.000284036 -0.000172834 0
-0.000284036 -0.000172834 0
-1.29958e-05 0.000287792 0
-1.29958e-05 0.000287792 0
-7.86415e-05 4.34309e-05 -1.59568e-25
-7.86415e-05 4.34309e-05 -1.59568e-25
-9.31516e-06 -0.00010208 1.88741e-23
-9.31516e-06 -0.00010208 1.88741e-23
0.000184613 -0.000218474 0
0.000184613 -0.000218474 0
0.000440334 -0.000277863 0
0.000440334 -0.000277863 0
0.000719261 -0.000299505 -1.82962e-23
0.000719261 -0.000299505 -1.82962e-23
0.00100449 -0.000299887 -1.83291e-23
0.00100449 -0.000299887 -1.83291e-23
0.00128634 -0.000289793 0
0.00128634 -0.000289793 0
0.00155905 -0.000274896 0
0.00155905 -0.000274896 0
0.0018199 -0.000257549 0
0.0018199 -0.000257549 0
0.00206717 -0.000238356 1.76893e-23
0.00206717 -0.000238356 1.76893e-23
0.00229899 -0.000217088 1.7723e-23
0.00229899 -0.000217088 1.7723e-23
0.00251262 -0.000193175 0
0.00251262 -0.000193175 0
0.00270457 -0.000166006 0
0.00270457 -0.000166006 0
0.00287058 -0.000135264 0
0.00287058 -0.000135264 0
0.00300613 -0.000100663 1.71231e-23
0.00300613 -0.000100663 1.71231e-23
0.00310668 -6.22549e-05 1.71577e-23
0.00310668 -6.22549e-05 1.71577e-23
0.00316845 -2.00886e-05 0
0.00316845 -2.00886e-05 0
0.00318849 2.57048e-05 0
0.00318849 2.57048e-05 0
0.00316133 7.38695e-05 0
0.00316133 7.38695e-05 0
0.00308507 0.00012454 0
0.00308507 0.00012454 0
0.0029599 0.000174228 0
0.0029599 0.000174228 0
0.00278501 0.000224849 0
0.00278501 0.000224849 0
0.00256579 0.000271856 1.61021e-23
0.00256579 0.000271856 1.61021e-23
0.00229831 0.000315009 1.67895e-25
0.00229831 0.000315009 1.67895e-25
0.00199424 0.000357022 -1.65264e-25
0.00199424 0.000357022 -1.65264e-25
0.00165364 0.000376253 3.15904e-23
0.00165364 0.000376253 3.15904e-23
0.0012837 0.000387762 1.57503e-23
0.0012837 0.000387762 1.57503e-23
0.000921528 0.000337452 0
0.000921528 0.000337452 0
0.000599012 0.000168005 -1.53618e-23
0.000599012 0.000168005 -1.53618e-23
0.000380021 -2.06843e-05 -3.06422e-23
0.000380021 -2.06843e-05 -3.06422e-23
0.000329123 -0.000136315 -1.52805e-23
0.000329123 -0.000136315 -1.52805e-23
0.000401565 -0.000173681 0
0.000401565 -0.000173681 0
0.000488264 -0.000181465 -1.48627e-23
0.000488264 -0.000181465 -1.48627e-23
0.00063156 -0.000183807 -1.48993e-23
0.00063156 -0.000183807 -1.48993e-23
0.000901484 -0.000172287 0
0.000901484 -0.000172287 0
0.00116405 -0.000454757 1.44529e-23
0.00116405 -0.000454757 1.44529e-23
0.00123223 -0.00100398 1.44896e-23
0.00123223 -0.00100398 1.44896e-23
0.00117586 -0.00098475 1.4234e-23
0.00117586 -0.00098475 1.4234e-23
0.000849798 -8.51801e-05 4.25035e-23
0.000849798 -8.51801e-05 4.25035e-23
6.01362e-07 0.000696896 2.83067e-23
6.01362e-07 0.000696896 2.83067e-23
-0.000981107 0.000821939 0
-0.000981107 0.000821939 0
-0.00187768 0.000781755 0
-0.00187768 0.000781755 0
-0.00276604 0.000756833 0
-0.00276604 0.000756833 0
-0.00359955 0.000716531 0
-0.00359955 0.000716531 0
-0.00438236 0.000667425 2.71573e-23
-0.00438236 0.000667425 2.71573e-23
-0.00509968 0.000608229 5.42922e-23
-0.00509968 0.000608229 5.42922e-23
-0.00574785 0.00054307 5.41003e-23
-0.00574785 0.00054307 5.41003e-23
-0.00632096 0.0004742 2.70416e-23
-0.00632096 0.0004742 2.70416e-23
-0.00681811 0.000404915 -2.67649e-23
-0.00681811 0.000404915 -2.67649e-23
-0.00723936 0.000337437 -2.68424e-23
-0.00723936 0.000337437 -2.68424e-23
-0.00758733 0.000273692 2.6522e-23
-0.00758733 0.000273692 2.6522e-23
-0.00786579 0.000214766 5.29786e-23
-0.00786579 0.000214766 5.29786e-23
-0.00807992 0.000161511 2.64569e-23
-0.00807992 0.000161511 2.64569e-23
-0.00823557 0.000114568 0
-0.00823557 0.000114568 0
-0.00833892 7.43912e-05 0
-0.00833892 7.43912e-05 0
-0.0083963 4.10659e-05 2.5642e-23
-0.0083963 4.10659e-05 2.5642e-23
-0.00841426 1.44205e-05 2.57215e-23
-0.00841426 1.44205e-05 2.57215e-23
-0.00840166 -6.05787e-06 0
-0.00840166 -6.05787e-06 0
-0.00836509 -2.11378e-05 0
-0.00836509 -2.11378e-05 0
-0.00831003 -3.15705e-05 0
-0.00831003 -3.15705e-05 0
-0.00824255 -3.79969e-05 0
-0.00824255 -3.79969e-05 0
-0.00816737 -4.09819e-05 0
-0.00816737 -4.09819e-05 0
-0.00808892 -4.12729e-05 0
-0.00808892 -4.12729e-05 0
-0.00801008 -3.98004e-05 0
-0.00801008 -3.98004e-05 0
-0.00793262 -3.76832e-05 -2.33273e-23
-0.00793262 -3.76832e-05 -2.33273e-23
-0.00785641 -3.61921e-05 -2.34057e-23
-0.00785641 -3.61921e-05 -2.34057e-23
-0.00777949 -3.65973e-05 0
-0.00777949 -3.65973e-05 0
-0.00769778 -4.00217e-05 2.24879e-23
-0.00769778 -4.00217e-05 2.24879e-23
-0.00760544 -4.71801e-05 4.47727e-23
-0.00760544 -4.71801e-05 4.47727e-23
-0.00749572 -5.81452e-05 2.22845e-23
-0.00749572 -5.81452e-05 2.22845e-23
-0.00736247 -7.21429e-05 -2.16453e-23
-0.00736247 -7.21429e-05 -2.16453e-23
-0.00720171 -8.75906e-05 -3.56981e-25
-0.00720171 -8.75906e-05 -3.56981e-25
-0.00701274 -0.000102456 2.14411e-23
-0.00701274 -0.000102456 2.14411e-23
-0.00679839 -0.000114874 -2.08085e-23
-0.00679839 -0.000114874 -2.08085e-23
-0.00656442 -0.000123699 -2.0884e-23
-0.00656442 -0.000123699 -2.0884e-23
-0.00631784 -0.000128748 0
-0.00631784 -0.000128748 0
-0.00606484 -0.000130711 1.99929e-23
-0.00606484 -0.000130711 1.99929e-23
-0.00580936 -0.000130805 2.00673e-23
-0.00580936 -0.000130805 2.00673e-23
-0.00555282 -0.000130286 -1.94616e-23
-0.00555282 -0.000130286 -1.94616e-23
-0.0052948 -0.000130026 -1.95352e-23
-0.0052948 -0.000130026 -1.95352e-23
-0.00503412 -0.00013041 1.89366e-23
-0.00503412 -0.00013041 1.89366e-23
-0.0047693 -0.000131561 3.76853e-23
-0.0047693 -0.000131561 3.76853e-23
-0.0044987 -0.000133503 3.71653e-23
-0.0044987 -0.000133503 3.71653e-23
-0.00422072 -0.000136085 5.48086e-23
-0.00422072 -0.000136085 5.48086e-23
-0.00393428 -0.000138983 6.51886e-25
-0.00393428 -0.000138983 6.51886e-25
-0.003639 -0.000141848 -3.59524e-23
-0.003639 -0.000141848 -3.59524e-23
-0.00333513 -0.000144359 0
-0.00333513 -0.000144359 0
-0.00302356 -0.000146229 0
-0.00302356 -0.000146229 0
-0.00270576 -0.000147224 -3.3851e-23
-0.00270576 -0.000147224 -3.3851e-23
-0.00238354 -0.00014721 -6.73763e-23
-0.00238354 -0.00014721 -6.73763e-23
-0.00205889 -0.000146124 -5.88699e-25
-0.00205889 -0.000146124 -5.88699e-25
-0.00173391 -0.000143949 3.3072e-23
-0.00173391 -0.000143949 3.3072e-23
-0.00141069 -0.000140714 -3.20716e-23
-0.00141069 -0.000140714 -3.20716e-23
-0.00109134 -0.000136477 -6.38657e-23
-0.00109134 -0.000136477 -6.38657e-23
-0.000777927 -0.000131264 -6.30534e-23
-0.000777927 -0.000131264 -6.30534e-23
-0.000472459 -0.000125006 -3.13932e-23
-0.000472459 -0.000125006 -3.13932e-23
-0.000177645 -0.000117931 0
-0.000177645 -0.000117931 0
0.000103892 -0.000110138 0
0.000103892 -0.000110138 0
0.000371 -0.000101551 -2.97604e-23
0.000371 -0.000101551 -2.97604e-23
0.000622426 -9.23844e-05 -2.98907e-23
0.000622426 -9.23844e-05 -2.98907e-23
0.000856613 -8.28776e-05 0
0.000856613 -8.28776e-05 0
0.0010727 -7.32818e-05 2.8729e-23
0.0010727 -7.32818e-05 2.8729e-23
0.00127033 -6.38313e-05 2.88573e-23
0.00127033 -6.38313e-05 2.88573e-23
0.0014496 -5.47257e-05 0
0.0014496 -5.47257e-05 0
0.00161104 -4.61182e-05 2.77659e-23
0.00161104 -4.61182e-05 2.77659e-23
0.00175546 -3.81107e-05 2.78924e-23
0.00175546 -3.81107e-05 2.78924e-23
0.00188385 -3.07564e-05 0
0.00188385 -3.07564e-05 0
0.00199734 -2.40675e-05 -2.68459e-23
0.00199734 -2.40675e-05 -2.68459e-23
0.00209705 -1.80267e-05 -5.35163e-23
0.00209705 -1.80267e-05 -5.35163e-23
0.00218406 -1.2599e-05 -2.66698e-23
0.00218406 -1.2599e-05 -2.66698e-23
0.00225942 -7.74156e-06 2.5953e-23
0.00225942 -7.74156e-06 2.5953e-23
0.00232405 -3.41511e-06 2.60757e-23
0.00232405 -3.41511e-06 2.60757e-23
0.00237886 4.13536e-07 -2.53683e-23
0.00237886 4.13536e-07 -2.53683e-23
0.00242464 3.76919e-06 -2.54897e-23
0.00242464 3.76919e-06 -2.54897e-23
0.00246219 6.66995e-06 -2.47906e-23
0.00246219 6.66995e-06 -2.47906e-23
0.00249226 9.13369e-06 -4.94148e-23
0.00249226 9.13369e-06 -4.94148e-23
0.00251561 1.11851e-05 -2.46235e-23
0.00251561 1.11851e-05 -2.46235e-23
0.00253294 1.28541e-05 0
0.00253294 1.28541e-05 0
0.00254503 1.41845e-05 0
0.00254503 1.41845e-05 0
0.00255251 1.52706e-05 0
0.00255251 1.52706e-05 0
0.00255589 1.61678e-05 0
0.00255589 1.61678e-05 0
0.00255586 1.68419e-05 0
0.00255586 1.68419e-05 0
0.00255307 1.72773e-05 0
0.00255307 1.72773e-05 0
0.00254806 1.75042e-05 -2.22605e-23
0.00254806 1.75042e-05 -2.22605e-23
0.0025413 1.75633e-05 -3.8828e-25
0.0025413 1.75633e-05 -3.8828e-25
0.00253318 1.74843e-05 2.20982e-23
0.00253318 1.74843e-05 2.20982e-23
0.00252401 1.72809e-05 0
0.00252401 1.72809e-05 0
0.00251408 1.69549e-05 0
0.00251408 1.69549e-05 0
0.00250367 1.65018e-05 0
0.00250367 1.65018e-05 0
0.00249302 1.59222e-05 4.12564e-23
0.00249302 1.59222e-05 4.12564e-23
0.00248237 1.52248e-05 4.14731e-23
0.00248237 1.52248e-05 4.14731e-23
0.00247192 1.44272e-05 -4.01865e-23
0.00247192 1.44272e-05 -4.01865e-23
0.00246186 1.35549e-05 -7.44737e-25
0.00246186 1.35549e-05 -7.44737e-25
0.00245231 1.26368e-05 3.98664e-23
0.00245231 1.26368e-05 3.98664e-23
0.00244341 1.16995e-05 0
0.00244341 1.16995e-05 0
0.0024352 1.07669e-05 0
0.0024352 1.07669e-05 0
0.00242775 9.86233e-06 -3.75517e-23
0.00242775 9.86233e-06 -3.75517e-23
0.00242106 9.00548e-06 -7.47874e-23
0.00242106 9.00548e-06 -7.47874e-23
0.00241513 8.20614e-06 -3.72338e-23
0.00241513 8.20614e-06 -3.72338e-23
0.00240992 7.46381e-06 -3.59983e-23
0.00240992 7.46381e-06 -3.59983e-23
0.0024054 6.77607e-06 -7.16816e-23
0.0024054 6.77607e-06 -7.16816e-23
0.00240152 6.14542e-06 -7.07394e-25
0.00240152 6.14542e-06 -7.07394e-25
0.00239825 5.57576e-06 3.51684e-23
0.00239825 5.57576e-06 3.51684e-23
0.00239553 5.06303e-06 0
0.00239553 5.06303e-06 0
0.00239331 4.59319e-06 3.34543e-23
0.00239331 4.59319e-06 3.34543e-23
0.0023915 4.15202e-06 3.36427e-23
0.0023915 4.15202e-06 3.36427e-23
0.00239003 3.73503e-06 0
0.00239003 3.73503e-06 0
0.00238886 3.34446e-06 0
0.00238886 3.34446e-06 0
0.00238793 2.98984e-06 0
0.00238793 2.98984e-06 0
0.00238722 2.67944e-06 -3.09651e-23
0.00238722 2.67944e-06 -3.09651e-23
0.00238669 2.41144e-06 -6.16168e-23
0.00238669 2.41144e-06 -6.16168e-23
0.00238631 2.18379e-06 -3.06495e-23
0.00238631 2.18379e-06 -3.06495e-23
0.00238606 1.9971e-06 -2.94967e-23
0.00238606 1.9971e-06 -2.94967e-23
0.00238588 1.85237e-06 -2.96683e-23
0.00238588 1.85237e-06 -2.96683e-23
0.00238574 1.74802e-06 0
0.00238574 1.74802e-06 0
0.00238558 1.68028e-06 -2.8046e-23
0.00238558 1.68028e-06 -2.8046e-23
0.00238535 1.64495e-06 -2.82111e-23
0.00238535 1.64495e-06 -2.82111e-23
0.00238498 1.63838e-06 -2.70883e-23
0.00238498 1.63838e-06 -2.70883e-23
0.00238442 1.65834e-06 -2.7249e-23
0.00238442 1.65834e-06 -2.7249e-23
0.00238361 1.70384e-06 0
0.00238361 1.70384e-06 0
0.0023825 1.77432e-06 -2.56651e-23
0.0023825 1.77432e-06 -2.56651e-23
0.002381 1.87368e-06 -2.58189e-23