/*--------------------------------*- C++ -*----------------------------------*\
  =========                 |
  \\      /  F ield         | OpenFOAM: The Open Source CFD Toolbox
   \\    /   O peration     | Website:  https://openfoam.org
    \\  /    A nd           | Version:  7
     \\/     M anipulation  |
\*---------------------------------------------------------------------------*/
FoamFile
{
    version     2.0;
    format      ascii;
    class       volScalarField;
    location    "0.25";
    object      k;
}
// * * * * * * * * * * * * * * * * * * * * * * * * * * * * * * * * * * * * * //

dimensions      [0 2 -2 0 0 0 0];

internalField   nonuniform List<scalar> 
12225
(
0.332317
0.291425
0.257358
0.230626
0.211153
0.197862
0.189254
0.183917
0.180734
0.178897
0.177857
0.177261
0.176894
0.176628
0.176398
0.176158
0.175953
0.177129
0.412401
0.405339
0.384443
0.37242
0.369842
0.372732
0.377786
0.383147
0.387984
0.391995
0.395136
0.397491
0.399191
0.400366
0.401152
0.40157
0.402046
0.40164
0.385493
0.382621
0.37238
0.362671
0.356086
0.352602
0.351409
0.351689
0.352823
0.354375
0.35606
0.357704
0.35922
0.360568
0.361748
0.362749
0.363667
0.364291
0.377227
0.374576
0.368311
0.360828
0.353906
0.348227
0.343847
0.340599
0.338265
0.336632
0.335513
0.334759
0.334258
0.33393
0.333721
0.333585
0.333508
0.333431
0.374686
0.371972
0.367006
0.360935
0.354801
0.349104
0.344021
0.339588
0.335779
0.332529
0.329759
0.327391
0.325355
0.323593
0.322058
0.320708
0.319511
0.318446
0.373367
0.37041
0.366183
0.361149
0.355897
0.350753
0.345873
0.341341
0.337194
0.333429
0.330026
0.326953
0.324175
0.32166
0.319376
0.317295
0.315393
0.313668
0.372514
0.36931
0.365485
0.361142
0.356592
0.352038
0.347593
0.343335
0.339312
0.335545
0.332038
0.328782
0.325765
0.322968
0.320376
0.31797
0.315735
0.313686
0.371961
0.368516
0.364845
0.360912
0.356855
0.352786
0.348773
0.344871
0.341122
0.33755
0.334167
0.330976
0.327971
0.325148
0.322496
0.320006
0.31767
0.315512
0.371601
0.367939
0.364273
0.360546
0.356798
0.353078
0.349416
0.34584
0.34238
0.339055
0.335875
0.332845
0.329966
0.327235
0.324649
0.322201
0.319888
0.317741
0.371367
0.367529
0.3638
0.360143
0.356559
0.353057
0.349641
0.34632
0.343107
0.340011
0.337039
0.334193
0.331475
0.328883
0.326415
0.324066
0.321839
0.319762
0.371217
0.367247
0.36344
0.35978
0.356258
0.352867
0.3496
0.34645
0.343417
0.340503
0.337706
0.335027
0.332464
0.330014
0.327675
0.325443
0.323321
0.321338
0.371127
0.367076
0.363208
0.359518
0.356
0.352646
0.349443
0.346381
0.343452
0.34065
0.337971
0.335409
0.332961
0.330622
0.328389
0.326257
0.324229
0.322332
0.371065
0.366958
0.363043
0.359321
0.355788
0.352438
0.34926
0.346241
0.34337
0.340639
0.338037
0.335559
0.333197
0.330944
0.328796
0.326748
0.3248
0.322979
0.371019
0.366871
0.362922
0.359171
0.355617
0.352255
0.349077
0.346071
0.343226
0.340531
0.337977
0.335552
0.33325
0.331061
0.328979
0.326998
0.325118
0.323362
0.370987
0.366811
0.362842
0.359073
0.355502
0.352127
0.348938
0.345928
0.343086
0.340402
0.337865
0.335464
0.333192
0.331038
0.328995
0.327057
0.325221
0.323511
0.370966
0.366774
0.362796
0.35902
0.355444
0.352061
0.348866
0.345851
0.343005
0.34032
0.337785
0.335391
0.333127
0.330986
0.328959
0.32704
0.325225
0.323537
0.370955
0.366756
0.362778
0.359006
0.355434
0.352055
0.348864
0.345851
0.343008
0.340325
0.337793
0.335401
0.333142
0.331006
0.328985
0.327073
0.325267
0.323589
0.370956
0.366761
0.362791
0.359031
0.355472
0.352108
0.348931
0.345932
0.343103
0.340433
0.337914
0.335535
0.333288
0.331163
0.329154
0.327253
0.325458
0.323791
0.370974
0.366798
0.362849
0.359113
0.35558
0.352245
0.349098
0.346131
0.343333
0.340695
0.338207
0.33586
0.333643
0.331548
0.329567
0.327694
0.325926
0.324284
0.371015
0.366882
0.362976
0.359284
0.355798
0.352513
0.349419
0.346508
0.343768
0.341188
0.338758
0.336468
0.334307
0.332266
0.330338
0.328514
0.326794
0.325197
0.371081
0.367016
0.363177
0.359553
0.35614
0.352932
0.34992
0.347093
0.344437
0.341938
0.339586
0.337369
0.335276
0.333298
0.331426
0.329653
0.327976
0.326417
0.371191
0.367242
0.36352
0.360017
0.356729
0.35365
0.350767
0.348061
0.345515
0.343112
0.34084
0.338688
0.336644
0.3347
0.332848
0.331083
0.329402
0.327827
0.371381
0.367644
0.364139
0.360847
0.357754
0.354851
0.352116
0.34952
0.347043
0.344671
0.342396
0.340208
0.338102
0.336074
0.334118
0.332234
0.330424
0.328714
0.371731
0.368398
0.36528
0.362293
0.35941
0.35663
0.353929
0.351282
0.348679
0.346123
0.34362
0.341173
0.338786
0.336464
0.334211
0.33203
0.329928
0.327936
0.372421
0.369829
0.36729
0.364585
0.361716
0.358753
0.355718
0.352625
0.349507
0.346401
0.343337
0.340335
0.337413
0.334583
0.331852
0.329227
0.326714
0.324347
0.373942
0.372661
0.370661
0.367779
0.364273
0.360415
0.35635
0.35219
0.348035
0.343961
0.340014
0.336224
0.332607
0.329174
0.325927
0.322865
0.319986
0.317315
0.377771
0.378982
0.376507
0.371673
0.365879
0.359788
0.353689
0.347765
0.342138
0.336876
0.332004
0.327524
0.323424
0.319686
0.316285
0.313195
0.310392
0.307874
0.3876
0.394032
0.38662
0.374838
0.363294
0.35297
0.343934
0.336122
0.329443
0.323783
0.319023
0.315048
0.31175
0.309032
0.30681
0.305009
0.303564
0.302424
0.402384
0.394874
0.37547
0.356343
0.340872
0.32932
0.321123
0.315594
0.31209
0.310096
0.309227
0.3092
0.309796
0.310849
0.312229
0.313839
0.315613
0.317471
0.351309
0.326982
0.304715
0.284406
0.26623
0.25025
0.236434
0.224657
0.214723
0.206409
0.199495
0.19378
0.189081
0.18524
0.18212
0.179603
0.17759
0.175996
0.000258786
0.00164994
0.00278031
0.00372168
0.00466007
0.00570141
0.00683041
0.00807317
0.00947432
0.0109231
0.0124275
0.0140013
0.0156466
0.0173639
0.0191539
0.0210174
0.0229553
0.0249683
0.0270566
0.0292204
0.0314594
0.0337732
0.0361609
0.0386216
0.0411538
0.0437562
0.0464267
0.0491635
0.0519643
0.0548265
0.0577474
0.0607242
0.0637538
0.0668329
0.0699583
0.0731265
0.0763337
0.0795762
0.08285
0.0861505
0.0894731
0.0928122
0.0961615
0.0995136
0.10286
0.106191
0.109495
0.112761
0.115979
0.119136
0.122222
0.125229
0.128147
0.130964
0.133663
0.136221
0.138606
0.140779
0.142701
0.144338
0.145676
0.146725
0.147539
0.148199
0.148746
0.149002
0.148387
0.146111
0.146831
0.147659
0.148614
0.149962
0.151427
0.153355
0.152103
0.152926
0.15261
0.15301
0.152327
0.153735
0.156627
0.155836
0.158694
0.161623
0.164562
0.16749
0.170396
0.173274
0.176118
0.178923
0.181688
0.184414
0.187103
0.189767
0.19239
0.194949
0.197442
0.19987
0.202229
0.204516
0.206729
0.208865
0.21092
0.212891
0.214777
0.216573
0.218277
0.219888
0.221403
0.22282
0.224137
0.225352
0.226464
0.227472
0.228375
0.229171
0.229861
0.230443
0.230918
0.231285
0.231545
0.231697
0.231743
0.231683
0.231518
0.23125
0.230879
0.230408
0.229837
0.229169
0.228406
0.22755
0.226603
0.225568
0.224448
0.223244
0.22196
0.220599
0.219164
0.217658
0.216084
0.214445
0.212744
0.210985
0.209171
0.207305
0.205391
0.203432
0.201431
0.199391
0.197318
0.195213
0.19308
0.190929
0.188762
0.186633
0.185052
0.197492
0.184137
0.184485
0.201181
0.189382
0.185299
0.199741
0.201953
0.187364
0.199831
0.198155
0.190479
0.202202
0.191072
0.200471
0.19942
0.198022
0.195716
0.198375
0.197397
0.201638
0.197235
0.18931
0.00106066
0.00547184
0.00851367
0.0108467
0.012863
0.0147009
0.0165101
0.0183567
0.0202623
0.0222215
0.0242297
0.026285
0.0283872
0.0305375
0.0327382
0.0349919
0.037301
0.0396678
0.0420944
0.0445822
0.0471325
0.0497461
0.0524236
0.0551651
0.0579707
0.06084
0.0637724
0.0667672
0.0698233
0.0729394
0.0761141
0.0793457
0.0826324
0.0859723
0.0893632
0.092803
0.0962893
0.0998194
0.103391
0.107
0.110644
0.114319
0.11802
0.121743
0.12548
0.129225
0.132971
0.136712
0.140439
0.144146
0.147828
0.151481
0.155099
0.158677
0.162207
0.165675
0.169066
0.17236
0.17554
0.1786
0.181552
0.184436
0.18732
0.190295
0.193416
0.196622
0.19988
0.203836
0.207809
0.211901
0.216276
0.220801
0.225432
0.2298
0.235345
0.240469
0.244747
0.250304
0.256841
0.263074
0.269968
0.27583
0.281546
0.287268
0.293044
0.298842
0.304645
0.310441
0.316218
0.321968
0.327684
0.333358
0.338986
0.344526
0.349952
0.355298
0.360563
0.365744
0.370836
0.375831
0.380724
0.385508
0.390177
0.394726
0.399146
0.403434
0.407583
0.411588
0.415443
0.419144
0.422685
0.426063
0.429273
0.432311
0.435175
0.43786
0.440364
0.442684
0.444819
0.446766
0.448524
0.450091
0.451468
0.452654
0.453649
0.454453
0.455068
0.455493
0.455732
0.455785
0.455654
0.455343
0.454854
0.45419
0.453354
0.452351
0.451184
0.449856
0.448374
0.44674
0.44496
0.443039
0.440982
0.438793
0.436479
0.434045
0.431496
0.428838
0.426077
0.423216
0.420266
0.417229
0.414107
0.410921
0.407647
0.404336
0.400976
0.396874
0.394769
0.391769
0.390753
0.385234
0.382149
0.381156
0.378119
0.372563
0.371302
0.363973
0.362052
0.361546
0.356108
0.35524
0.352207
0.348881
0.342386
0.342656
0.339742
0.336391
0.330242
0.327329
0.0021753
0.00928437
0.0134741
0.0164532
0.0189292
0.0211956
0.0233914
0.0255865
0.0278115
0.0300757
0.0323798
0.0347231
0.0371057
0.0395291
0.041996
0.04451
0.0470745
0.0496929
0.0523685
0.0551039
0.0579014
0.0607629
0.06369
0.0666839
0.0697453
0.0728749
0.0760729
0.0793393
0.0826738
0.0860761
0.0895456
0.0930815
0.0966828
0.100349
0.104078
0.107869
0.111721
0.115633
0.119602
0.123628
0.127708
0.13184
0.136022
0.140249
0.144521
0.148831
0.153178
0.157557
0.161966
0.166402
0.170865
0.175355
0.179873
0.184421
0.189002
0.193614
0.198259
0.202937
0.207654
0.212425
0.217276
0.222244
0.227375
0.232715
0.238283
0.244057
0.250022
0.256261
0.262579
0.269054
0.275696
0.282453
0.289341
0.296329
0.303556
0.310785
0.317986
0.325414
0.333007
0.340621
0.348329
0.355898
0.363364
0.370765
0.378144
0.385509
0.392858
0.400184
0.407479
0.414737
0.421951
0.429114
0.436219
0.443219
0.450125
0.456935
0.463647
0.470253
0.476744
0.483114
0.489353
0.495453
0.501407
0.507207
0.512843
0.51831
0.5236
0.528705
0.533619
0.538336
0.542848
0.547152
0.55124
0.555109
0.558754
0.56217
0.565354
0.568304
0.571015
0.573485
0.575714
0.577699
0.57944
0.580935
0.582186
0.583193
0.583957
0.584479
0.58476
0.584805
0.584615
0.584193
0.583543
0.582669
0.581576
0.580267
0.578749
0.577026
0.575104
0.572989
0.570686
0.568203
0.565546
0.56272
0.559734
0.556594
0.553307
0.54988
0.546322
0.542634
0.538833
0.534922
0.530892
0.526796
0.522617
0.518381
0.514061
0.509473
0.505835
0.501713
0.497773
0.492881
0.488623
0.484765
0.480436
0.475519
0.471498
0.466091
0.462004
0.458321
0.453517
0.449732
0.445519
0.441179
0.436188
0.43284
0.428881
0.424775
0.420187
0.416451
0.00342789
0.0126839
0.0177054
0.0211527
0.0239894
0.0265509
0.028996
0.0314081
0.0338299
0.0362809
0.0387688
0.0412963
0.0438646
0.0464756
0.049132
0.0518371
0.0545947
0.0574084
0.060282
0.0632187
0.0662214
0.0692927
0.0724347
0.0756494
0.0789381
0.082302
0.0857421
0.089259
0.0928533
0.0965251
0.100275
0.104102
0.108007
0.111989
0.116048
0.120185
0.124398
0.128687
0.133053
0.137494
0.14201
0.146601
0.151265
0.156003
0.160812
0.165692
0.170643
0.175663
0.180754
0.185916
0.191152
0.196465
0.20186
0.207344
0.212922
0.218601
0.224386
0.230286
0.236309
0.242468
0.248783
0.255274
0.261961
0.268858
0.275966
0.283263
0.29073
0.298366
0.306145
0.314068
0.322125
0.330297
0.338582
0.346973
0.355469
0.364031
0.372648
0.381331
0.390061
0.398819
0.407608
0.416379
0.425104
0.433778
0.442415
0.451025
0.459608
0.468158
0.476671
0.48514
0.493558
0.50192
0.510191
0.51836
0.526426
0.534383
0.542223
0.549938
0.557519
0.564955
0.572237
0.579355
0.586299
0.593061
0.599631
0.605999
0.612158
0.618099
0.623813
0.629294
0.634534
0.639526
0.644264
0.648742
0.652956
0.6569
0.660571
0.663963
0.667075
0.669903
0.672446
0.674702
0.67667
0.678349
0.679741
0.680845
0.681663
0.682198
0.68245
0.682424
0.682122
0.681548
0.680708
0.679605
0.678245
0.676633
0.674775
0.672679
0.67035
0.667795
0.665021
0.662037
0.658851
0.655468
0.651897
0.648149
0.644229
0.640144
0.635911
0.631523
0.627006
0.622375
0.617625
0.612781
0.607849
0.602852
0.597786
0.592615
0.58779
0.582739
0.577639
0.572236
0.567041
0.561953
0.556697
0.551264
0.546079
0.540569
0.535353
0.530302
0.524979
0.519946
0.514854
0.509747
0.504562
0.499858
0.495169
0.49059
0.486125
0.482174
0.00458031
0.0155297
0.0212351
0.0251111
0.0282583
0.0310584
0.0336925
0.0362593
0.038814
0.0413862
0.0439915
0.0466375
0.0493282
0.0520667
0.0548559
0.0576993
0.0606003
0.0635628
0.0665904
0.0696866
0.0728547
0.0760976
0.0794179
0.0828179
0.0862996
0.0898646
0.0935145
0.0972504
0.101074
0.104985
0.108985
0.113074
0.117254
0.121525
0.125887
0.130342
0.134889
0.13953
0.144266
0.149096
0.154023
0.159046
0.164167
0.169386
0.174705
0.180125
0.185647
0.191273
0.197004
0.202845
0.2088
0.214873
0.221071
0.227401
0.233871
0.240487
0.247256
0.254184
0.26128
0.268551
0.276005
0.283654
0.291502
0.299554
0.307805
0.31624
0.324844
0.333607
0.342518
0.351569
0.360748
0.370044
0.379451
0.388959
0.398558
0.408234
0.417972
0.427761
0.437589
0.447444
0.45732
0.467198
0.477057
0.486883
0.496677
0.506441
0.516172
0.525865
0.535514
0.545112
0.554651
0.56412
0.573481
0.582732
0.591866
0.600875
0.609751
0.618483
0.627061
0.635472
0.643706
0.651752
0.659598
0.667235
0.67465
0.681835
0.688778
0.695471
0.701904
0.708069
0.713958
0.719562
0.724876
0.729891
0.734604
0.739008
0.743098
0.746872
0.750324
0.753452
0.756255
0.758729
0.760876
0.762694
0.764184
0.765348
0.766186
0.766701
0.766896
0.766775
0.766341
0.765599
0.764555
0.763213
0.761581
0.759665
0.75747
0.755006
0.75228
0.7493
0.746073
0.742609
0.738918
0.735006
0.730881
0.726561
0.722047
0.717343
0.712486
0.707468
0.702305
0.697009
0.691587
0.686055
0.680426
0.674724
0.668956
0.663122
0.657368
0.651497
0.645556
0.639484
0.633468
0.62748
0.621419
0.615295
0.609252
0.603142
0.597103
0.591136
0.585122
0.579225
0.57337
0.567568
0.561835
0.556345
0.551047
0.546008
0.541273
0.537015
0.00554483
0.0178313
0.0241241
0.0283733
0.0317916
0.0347971
0.0375898
0.0402808
0.0429359
0.0455941
0.0482785
0.0510023
0.0537734
0.056597
0.0594773
0.0624179
0.0654227
0.0684954
0.0716396
0.074859
0.078157
0.0815367
0.085001
0.0885525
0.0921936
0.0959265
0.0997531
0.103675
0.107694
0.111812
0.11603
0.120349
0.124771
0.129297
0.133929
0.138668
0.143516
0.148474
0.153545
0.158729
0.16403
0.169449
0.174988
0.18065
0.186437
0.192352
0.198398
0.204578
0.210895
0.217354
0.22396
0.230719
0.237636
0.244719
0.251974
0.259408
0.267026
0.274834
0.282835
0.291034
0.299434
0.308039
0.31685
0.325866
0.335082
0.344488
0.354073
0.363824
0.373732
0.383787
0.393979
0.404297
0.414733
0.425276
0.435917
0.446643
0.457441
0.468298
0.479201
0.490138
0.501099
0.512073
0.52304
0.533988
0.544911
0.555805
0.566663
0.577479
0.588246
0.598954
0.609595
0.620143
0.630572
0.640878
0.651053
0.661088
0.670971
0.680691
0.690235
0.69959
0.708745
0.717686
0.726402
0.734879
0.743107
0.751073
0.758767
0.766178
0.773295
0.780109
0.786611
0.792792
0.798645
0.804163
0.80934
0.814169
0.818646
0.822767
0.826527
0.829924
0.832955
0.835619
0.837916
0.839845
0.841408
0.842606
0.84344
0.843915
0.844033
0.843798
0.843216
0.842291
0.84103
0.83944
0.837528
0.835299
0.832763
0.829929
0.826806
0.823401
0.819723
0.815784
0.811598
0.807166
0.802495
0.79762
0.792538
0.787258
0.7818
0.77617
0.770381
0.764446
0.758374
0.75218
0.745881
0.739497
0.73304
0.726516
0.719969
0.713342
0.706648
0.699875
0.693098
0.686321
0.679506
0.672663
0.665852
0.65904
0.652259
0.64552
0.638801
0.632164
0.625606
0.619141
0.612803
0.60668
0.600819
0.595294
0.590143
0.585457
0.0063111
0.019664
0.0264284
0.0309868
0.0346347
0.0378168
0.040746
0.0435423
0.0462794
0.0490038
0.0517448
0.0545211
0.0573448
0.0602239
0.0631642
0.0661705
0.069247
0.0723978
0.0756267
0.0789374
0.0823334
0.0858181
0.0893946
0.0930658
0.0968343
0.100703
0.104674
0.108749
0.112931
0.117222
0.121623
0.126138
0.130767
0.135513
0.140379
0.145366
0.150477
0.155715
0.161082
0.166581
0.172215
0.177988
0.183903
0.189963
0.196173
0.202535
0.209053
0.215733
0.222579
0.229594
0.236786
0.244159
0.251719
0.259473
0.267427
0.275585
0.283953
0.292533
0.30133
0.310343
0.319575
0.329026
0.338695
0.348578
0.358673
0.36897
0.37946
0.390133
0.400979
0.411986
0.423146
0.434448
0.445881
0.457436
0.4691
0.480862
0.492709
0.504628
0.516604
0.528624
0.540678
0.552751
0.564829
0.576897
0.588946
0.600968
0.612953
0.624892
0.636776
0.648595
0.660337
0.671958
0.68345
0.694806
0.706015
0.717066
0.727946
0.738642
0.74914
0.759426
0.769486
0.779306
0.788873
0.798173
0.807192
0.81592
0.824342
0.832448
0.840225
0.847664
0.854755
0.861488
0.867855
0.873849
0.879463
0.884692
0.889529
0.893971
0.898013
0.901653
0.904888
0.907717
0.91014
0.912158
0.913771
0.914982
0.915793
0.916207
0.91623
0.915866
0.91512
0.913998
0.912508
0.910658
0.908455
0.905908
0.903023
0.899812
0.896289
0.89246
0.888328
0.883916
0.879238
0.874301
0.869114
0.863696
0.858057
0.852208
0.846163
0.839934
0.833533
0.826973
0.820267
0.813429
0.806476
0.799425
0.792291
0.785081
0.77781
0.770465
0.763055
0.755582
0.748082
0.740568
0.733029
0.725476
0.717939
0.710419
0.702926
0.695473
0.688066
0.680739
0.673513
0.66641
0.659467
0.652755
0.64634
0.640301
0.634658
0.629462
0.00689727
0.0210751
0.028202
0.0330054
0.0368399
0.0401689
0.0432134
0.0460991
0.0489047
0.0516818
0.0544649
0.0572773
0.0601346
0.0630478
0.0660249
0.069072
0.0721943
0.0753964
0.0786824
0.0820563
0.0855218
0.0890824
0.0927416
0.0965024
0.100368
0.104341
0.108425
0.112621
0.116933
0.121364
0.125915
0.13059
0.135392
0.140322
0.145385
0.150583
0.15592
0.161398
0.167023
0.172797
0.178724
0.184809
0.191057
0.197471
0.204057
0.210818
0.217761
0.22489
0.23221
0.239727
0.247447
0.255374
0.263514
0.271874
0.280459
0.289272
0.298319
0.307601
0.317121
0.32688
0.336876
0.34711
0.357579
0.368279
0.379208
0.390356
0.401718
0.413282
0.425039
0.436978
0.44909
0.461362
0.473784
0.486344
0.49903
0.511829
0.524728
0.537712
0.550767
0.563878
0.577031
0.590213
0.603407
0.6166
0.629778
0.64293
0.656044
0.66911
0.682114
0.695045
0.707877
0.720572
0.733124
0.745525
0.757761
0.769819
0.781686
0.793345
0.804783
0.815983
0.826931
0.837611
0.848009
0.858109
0.867899
0.877363
0.886489
0.895264
0.903676
0.911712
0.919364
0.92662
0.933473
0.939914
0.945936
0.951535
0.956704
0.961439
0.965736
0.969592
0.973004
0.975972
0.978496
0.980578
0.982219
0.983421
0.984188
0.984524
0.984434
0.983923
0.982999
0.981667
0.979935
0.977815
0.975314
0.972441
0.969201
0.96561
0.961686
0.957435
0.952866
0.947995
0.942836
0.937402
0.931702
0.925754
0.91957
0.913161
0.906544
0.899729
0.892732
0.885564
0.878241
0.870775
0.863185
0.855486
0.847693
0.839814
0.831859
0.823828
0.815729
0.807573
0.79938
0.791165
0.78293
0.774686
0.766454
0.758245
0.750067
0.741934
0.73386
0.725875
0.718006
0.710282
0.702745
0.695458
0.68849
0.681915
0.675735
0.669982
0.00731639
0.02211
0.0295011
0.0344881
0.0384663
0.0419114
0.0450487
0.0480072
0.0508683
0.0536868
0.0565006
0.0593365
0.0622133
0.0651446
0.0681404
0.0712085
0.0743552
0.0775857
0.080905
0.0843172
0.0878265
0.0914366
0.0951511
0.0989736
0.102907
0.106956
0.111122
0.115409
0.119819
0.124358
0.129026
0.133828
0.138768
0.143848
0.149073
0.154446
0.159972
0.165655
0.171499
0.17751
0.183692
0.19005
0.196591
0.203319
0.210239
0.217359
0.224683
0.232217
0.239968
0.24794
0.256141
0.264575
0.273248
0.282166
0.291333
0.300755
0.310433
0.320371
0.330571
0.341032
0.351754
0.362735
0.373973
0.385465
0.397206
0.409189
0.421407
0.433851
0.44651
0.459375
0.472433
0.485674
0.499084
0.512652
0.526363
0.540204
0.554159
0.568213
0.582351
0.596556
0.610813
0.625105
0.639418
0.653734
0.668039
0.682318
0.696558
0.710745
0.724865
0.738902
0.752803
0.766558
0.780156
0.793585
0.80683
0.819876
0.832706
0.845305
0.857657
0.869744
0.88155
0.893058
0.904254
0.915121
0.925644
0.935809
0.945602
0.955009
0.964017
0.972614
0.980788
0.988529
0.995828
1.00268
1.00907
1.015
1.02047
1.02546
1.02998
1.03402
1.03758
1.04065
1.04325
1.04537
1.04701
1.04818
1.04888
1.04912
1.0489
1.04822
1.04711
1.04555
1.04357
1.04117
1.03836
1.03516
1.03158
1.02762
1.0233
1.01863
1.01363
1.00831
1.00268
0.996764
0.990565
0.984102
0.977388
0.970437
0.963265
0.955885
0.948311
0.940557
0.932638
0.924569
0.916365
0.908043
0.899617
0.891096
0.88249
0.873805
0.86505
0.856236
0.847382
0.838501
0.829601
0.820694
0.811799
0.802929
0.794095
0.785311
0.776597
0.767981
0.759494
0.751169
0.743051
0.735198
0.727676
0.72055
0.713809
0.707478
0.00758434
0.0228139
0.0303816
0.0354961
0.039577
0.043107
0.0463137
0.0493269
0.0522292
0.0550772
0.0579109
0.0607593
0.0636437
0.0665797
0.0695794
0.072652
0.075805
0.0790446
0.0823763
0.0858048
0.0893347
0.0929701
0.0967151
0.100573
0.104549
0.108645
0.112865
0.117214
0.121694
0.126309
0.131065
0.135963
0.141009
0.146207
0.151562
0.157078
0.162761
0.168615
0.174647
0.180861
0.187265
0.193864
0.200664
0.207672
0.214895
0.222339
0.230011
0.237918
0.246066
0.254461
0.26311
0.272019
0.281193
0.290638
0.300359
0.310359
0.320643
0.331212
0.342068
0.35321
0.364639
0.376353
0.388348
0.400622
0.413168
0.425981
0.439054
0.452376
0.465938
0.479729
0.493736
0.507947
0.522349
0.536926
0.551663
0.566546
0.581558
0.596681
0.611898
0.627193
0.642547
0.657943
0.673364
0.688791
0.704208
0.719598
0.734945
0.750234
0.765449
0.780548
0.795493
0.810278
0.824889
0.839311
0.853528
0.867521
0.881273
0.894768
0.907986
0.920911
0.933525
0.945811
0.957752
0.969332
0.980535
0.991346
1.00175
1.01174
1.02129
1.03039
1.03903
1.0472
1.0549
1.0621
1.06882
1.07504
1.08075
1.08595
1.09065
1.09483
1.0985
1.10165
1.10428
1.1064
1.10802
1.10913
1.10974
1.10985
1.10948
1.10863
1.10731
1.10552
1.10329
1.10061
1.0975
1.09398
1.09005
1.08572
1.08102
1.07596
1.07054
1.06478
1.0587
1.05232
1.04564
1.03868
1.03146
1.024
1.01629
1.00838
1.00025
0.991944
0.98346
0.974818
0.966033
0.957121
0.948097
0.93897
0.929752
0.920452
0.911078
0.901644
0.892166
0.882658
0.873131
0.863598
0.854077
0.844581
0.835126
0.825726
0.816404
0.807187
0.798109
0.789207
0.780524
0.772118
0.764046
0.756366
0.749056
0.742141
0.00771878
0.0232301
0.0308984
0.0360898
0.0402352
0.0438202
0.0470723
0.050121
0.0530491
0.0559136
0.0587557
0.0616057
0.0644865
0.0674155
0.0704061
0.073469
0.0766127
0.0798443
0.0831701
0.0865956
0.0901256
0.0937648
0.0975177
0.101389
0.105381
0.109501
0.11375
0.118135
0.122658
0.127325
0.13214
0.137109
0.142235
0.147524
0.152982
0.158615
0.164428
0.170429
0.176622
0.183016
0.189617
0.196433
0.20347
0.210737
0.218241
0.225989
0.233989
0.24225
0.250777
0.259578
0.26866
0.278029
0.287692
0.297652
0.307916
0.318487
0.329368
0.340562
0.35207
0.363893
0.376028
0.388475
0.40123
0.414288
0.427646
0.441294
0.455227
0.469433
0.483903
0.498624
0.513584
0.528768
0.54416
0.559745
0.575505
0.591423
0.607481
0.623661
0.639943
0.656309
0.672738
0.689213
0.705713
0.722219
0.738714
0.755177
0.771593
0.787942
0.804196
0.820296
0.836231
0.851988
0.867553
0.882907
0.898031
0.912905
0.927509
0.941827
0.955839
0.969527
0.982873
0.995859
1.00847
1.02068
1.03249
1.04386
1.0548
1.06529
1.07531
1.08484
1.09388
1.10241
1.11043
1.11793
1.1249
1.13134
1.13724
1.1426
1.14742
1.1517
1.15542
1.1586
1.16123
1.16332
1.16487
1.16589
1.16639
1.16636
1.16582
1.16478
1.16325
1.16123
1.15874
1.15578
1.15238
1.14854
1.14427
1.1396
1.13453
1.12908
1.12326
1.1171
1.11059
1.10377
1.09664
1.08922
1.08153
1.07358
1.06539
1.05697
1.04834
1.03951
1.0305
1.02133
1.012
1.00255
0.992968
0.983283
0.9735
0.963631
0.953686
0.943679
0.933624
0.923537
0.913429
0.903315
0.893212
0.883136
0.873101
0.863126
0.853234
0.843454
0.833819
0.824368
0.815145
0.806204
0.797596
0.78937
0.781497
0.774008
0.00773824
0.0233998
0.0311031
0.0363273
0.0405028
0.0441144
0.0473884
0.0504532
0.0533907
0.0562578
0.059096
0.0619364
0.0648027
0.0677134
0.0706832
0.0737237
0.0768445
0.0800535
0.0833577
0.0867632
0.0902757
0.0939003
0.0976419
0.101506
0.105496
0.109618
0.113876
0.118276
0.122822
0.127519
0.132374
0.137392
0.142579
0.147941
0.153485
0.159218
0.165147
0.171278
0.177621
0.184182
0.19097
0.197994
0.205261
0.21278
0.220561
0.228611
0.236939
0.245554
0.254463
0.263674
0.273195
0.283033
0.293192
0.303679
0.314498
0.325653
0.337147
0.348981
0.361158
0.373677
0.386536
0.399733
0.413264
0.427124
0.441306
0.455805
0.470609
0.485709
0.501094
0.516749
0.532662
0.548816
0.565194
0.581775
0.598542
0.615474
0.632554
0.649759
0.66707
0.684467
0.701927
0.71943
0.736956
0.754485
0.771995
0.789467
0.806881
0.824217
0.8414
0.858417
0.875252
0.89189
0.908314
0.924506
0.940438
0.956089
0.971442
0.986476
1.00117
1.01552
1.02949
1.04306
1.05623
1.06897
1.08127
1.09311
1.10448
1.11536
1.12575
1.13563
1.14496
1.15376
1.16202
1.16972
1.17686
1.18345
1.18946
1.19491
1.19979
1.20409
1.20782
1.21097
1.21356
1.21558
1.21704
1.21794
1.2183
1.21811
1.2174
1.21615
1.2144
1.21214
1.2094
1.20617
1.20248
1.19834
1.19376
1.18875
1.18334
1.17753
1.17134
1.1648
1.1579
1.15067
1.14313
1.13529
1.12717
1.11879
1.11015
1.10128
1.09219
1.0829
1.07342
1.06377
1.05396
1.04401
1.03394
1.02375
1.01346
1.00308
0.992625
0.982102
0.971529
0.960919
0.950288
0.939648
0.929018
0.918414
0.907852
0.897352
0.886937
0.876638
0.866488
0.856526
0.846795
0.837346
0.828225
0.819473
0.811057
0.803014
0.00766156
0.0233612
0.0310437
0.0362625
0.0404377
0.0440502
0.0473241
0.0503858
0.0533162
0.0561717
0.0589934
0.0618126
0.0646537
0.0675357
0.0704739
0.073481
0.0765672
0.0797413
0.0830109
0.086383
0.0898638
0.0934593
0.097175
0.101017
0.10499
0.1091
0.113352
0.117753
0.122309
0.127026
0.13191
0.136969
0.142209
0.147638
0.153264
0.159095
0.165139
0.171406
0.177902
0.184639
0.191624
0.198868
0.206381
0.214171
0.222249
0.230624
0.239305
0.248303
0.257624
0.267278
0.277273
0.287615
0.298311
0.309364
0.320778
0.332558
0.344704
0.35722
0.370104
0.383357
0.396975
0.410956
0.425294
0.439983
0.455015
0.470382
0.486072
0.502075
0.518378
0.534965
0.551823
0.568934
0.586277
0.603827
0.621564
0.639467
0.657516
0.67569
0.693965
0.71232
0.730732
0.74918
0.767643
0.786097
0.804524
0.822901
0.841208
0.859365
0.877354
0.895158
0.91276
0.93014
0.947284
0.96418
0.980778
0.997061
1.01301
1.02862
1.04385
1.0587
1.07315
1.08717
1.10075
1.11388
1.12653
1.13869
1.15036
1.16151
1.17213
1.18221
1.19173
1.20068
1.20907
1.21688
1.22411
1.23074
1.23679
1.24225
1.24711
1.25138
1.25506
1.25814
1.26063
1.26254
1.26387
1.26463
1.26482
1.26446
1.26354
1.2621
1.26012
1.25763
1.25463
1.25115
1.24718
1.24276
1.23788
1.23257
1.22685
1.22072
1.2142
1.20732
1.20007
1.1925
1.18459
1.17639
1.1679
1.15913
1.15011
1.14085
1.13136
1.12167
1.11178
1.10172
1.0915
1.08113
1.07063
1.06001
1.04929
1.03847
1.02757
1.0166
1.00557
0.994511
0.983423
0.972324
0.961233
0.950164
0.939137
0.928172
0.917292
0.906528
0.895913
0.885486
0.87529
0.865371
0.855771
0.846524
0.837597
0.829032
0.00750762
0.0231497
0.0307642
0.0359451
0.0400935
0.0436841
0.0469376
0.0499784
0.052886
0.055716
0.0585089
0.0612961
0.0641018
0.0669456
0.0698433
0.0728079
0.0758505
0.0789805
0.0822065
0.0855361
0.0889763
0.092534
0.0962157
0.100028
0.103977
0.10807
0.112314
0.116715
0.121281
0.126019
0.130937
0.136044
0.141349
0.146859
0.152585
0.158536
0.164722
0.171152
0.177837
0.184787
0.192012
0.199523
0.207331
0.215446
0.223879
0.23264
0.241739
0.251187
0.260991
0.27116
0.281704
0.292627
0.303938
0.315635
0.327721
0.340199
0.35307
0.366335
0.379992
0.394039
0.408472
0.423285
0.438472
0.454024
0.469933
0.486186
0.502772
0.519677
0.536887
0.554385
0.572157
0.590188
0.608456
0.626914
0.645549
0.66434
0.683267
0.702306
0.721435
0.74063
0.759868
0.779127
0.798385
0.817622
0.836815
0.855935
0.874907
0.89371
0.912324
0.930729
0.948906
0.966834
0.984494
1.00187
1.01892
1.03564
1.05199
1.06797
1.08356
1.09873
1.11347
1.12775
1.14157
1.15491
1.16775
1.18007
1.19187
1.20313
1.21384
1.22398
1.23355
1.24254
1.25094
1.25874
1.26594
1.27253
1.27852
1.2839
1.28867
1.29283
1.29639
1.29934
1.30169
1.30344
1.3046
1.30519
1.30519
1.30463
1.30351
1.30185
1.29966
1.29693
1.2937
1.28998
1.28577
1.28109
1.27595
1.27038
1.26438
1.25798
1.25118
1.24401
1.23649
1.22861
1.22042
1.21191
1.20312
1.19404
1.18471
1.17513
1.16533
1.15532
1.14511
1.13471
1.12416
1.11345
1.1026
1.09164
1.08056
1.06938
1.05812
1.04679
1.0354
1.02396
1.0125
1.00102
0.989545
0.978088
0.966669
0.955308
0.944031
0.932866
0.921848
0.911014
0.900404
0.890063
0.880028
0.870331
0.860936
0.851893
0.00729527
0.0227971
0.0303038
0.0354192
0.0395182
0.0430671
0.0462826
0.0492868
0.0521577
0.0549498
0.0577032
0.0604489
0.0632111
0.0660094
0.0688601
0.0717767
0.0747709
0.077853
0.0810322
0.0843171
0.087716
0.0912368
0.0948873
0.0986753
0.102609
0.106696
0.110944
0.115363
0.11996
0.124746
0.12973
0.134922
0.140332
0.145971
0.151851
0.157983
0.164379
0.171049
0.178004
0.185254
0.192812
0.20069
0.208899
0.21745
0.226354
0.235621
0.245262
0.255286
0.2657
0.276514
0.287734
0.29937
0.311432
0.323902
0.33678
0.35007
0.363771
0.377883
0.392402
0.407321
0.422636
0.438337
0.454416
0.47086
0.48766
0.5048
0.522267
0.540044
0.558114
0.576461
0.595064
0.613904
0.632956
0.652192
0.671588
0.691122
0.710768
0.730506
0.75031
0.770157
0.790026
0.809894
0.829739
0.849546
0.869261
0.888827
0.908222
0.927425
0.946413
0.965166
0.983663
1.00188
1.01981
1.03741
1.05467
1.07157
1.08809
1.1042
1.1199
1.13516
1.14996
1.16429
1.17813
1.19147
1.20429
1.21658
1.22833
1.23952
1.25015
1.2602
1.26966
1.27853
1.2868
1.29446
1.30152
1.30796
1.31378
1.31899
1.32359
1.32757
1.33094
1.3337
1.33585
1.33741
1.33837
1.33875
1.33855
1.33778
1.33645
1.33458
1.33217
1.32924
1.3258
1.32186
1.31744
1.31254
1.3072
1.30141
1.2952
1.28858
1.28157
1.27419
1.26645
1.25836
1.24995
1.24122
1.23221
1.22291
1.21336
1.20356
1.19353
1.18329
1.17285
1.16222
1.15143
1.14048
1.12939
1.11817
1.10684
1.0954
1.08388
1.07228
1.06061
1.0489
1.03715
1.02538
1.01361
1.00185
0.990127
0.978454
0.966858
0.955368
0.944018
0.932843
0.921884
0.911181
0.900769
0.890676
0.880867
0.8714
0.0070325
0.0223148
0.0296763
0.0347009
0.0387303
0.0422198
0.0453815
0.0483349
0.0511566
0.0539
0.0566048
0.0593014
0.0620142
0.0647629
0.0675641
0.0704322
0.0733795
0.0764175
0.0795566
0.0828068
0.0861777
0.0896791
0.0933206
0.0971123
0.101064
0.105186
0.109488
0.11398
0.118674
0.123581
0.128713
0.134083
0.139704
0.145588
0.15175
0.158203
0.164963
0.172045
0.179448
0.187186
0.195275
0.203726
0.212551
0.221761
0.231364
0.24137
0.251787
0.262622
0.27388
0.285567
0.297686