/*--------------------------------*- C++ -*----------------------------------*\
  =========                 |
  \\      /  F ield         | OpenFOAM: The Open Source CFD Toolbox
   \\    /   O peration     | Website:  https://openfoam.org
    \\  /    A nd           | Version:  7
     \\/     M anipulation  |
\*---------------------------------------------------------------------------*/
FoamFile
{
    version     2.0;
    format      ascii;
    class       surfaceScalarField;
    location    "0.25";
    object      phi;
}
// * * * * * * * * * * * * * * * * * * * * * * * * * * * * * * * * * * * * * //

dimensions      [0 3 -1 0 0 0 0];

internalField   nonuniform List<scalar> 
24170
(
1.42871e-06
1.65495e-07
1.33476e-06
9.39448e-08
1.25536e-06
7.93984e-08
1.18987e-06
6.54989e-08
1.13934e-06
5.053e-08
1.09998e-06
3.93516e-08
1.06889e-06
3.10965e-08
1.04401e-06
2.48825e-08
1.02377e-06
2.02344e-08
1.00696e-06
1.68117e-08
9.92695e-07
1.42646e-08
9.8039e-07
1.23045e-08
9.6965e-07
1.07404e-08
9.60184e-07
9.4655e-09
9.51802e-07
8.38197e-09
9.44228e-07
7.57433e-09
9.37489e-07
6.73872e-09
7.12868e-09
9.3036e-07
1.67172e-06
2.02402e-07
1.63059e-06
1.35077e-07
1.58829e-06
1.21689e-07
1.55016e-06
1.03633e-07
1.51646e-06
8.42292e-08
1.4863e-06
6.95148e-08
1.45917e-06
5.82269e-08
1.435e-06
4.90497e-08
1.41364e-06
4.15908e-08
1.39482e-06
3.56354e-08
1.37821e-06
3.08731e-08
1.36352e-06
2.69998e-08
1.35047e-06
2.37894e-08
1.33883e-06
2.11004e-08
1.32843e-06
1.87849e-08
1.31907e-06
1.69328e-08
1.31075e-06
1.50563e-08
1.4612e-08
1.30327e-06
1.78132e-06
2.52337e-07
1.75687e-06
1.59532e-07
1.73622e-06
1.42333e-07
1.71737e-06
1.2249e-07
1.69924e-06
1.02354e-07
1.68164e-06
8.71144e-08
1.66466e-06
7.52088e-08
1.64857e-06
6.51389e-08
1.63356e-06
5.65993e-08
1.6197e-06
4.94955e-08
1.60698e-06
4.35933e-08
1.59535e-06
3.86304e-08
1.58474e-06
3.44032e-08
1.57506e-06
3.07761e-08
1.56623e-06
2.76141e-08
1.55824e-06
2.49261e-08
1.5509e-06
2.23922e-08
2.05747e-08
1.54494e-06
1.91834e-06
2.96689e-07
1.89273e-06
1.85145e-07
1.87641e-06
1.58649e-07
1.86341e-06
1.35494e-07
1.8516e-06
1.14165e-07
1.8405e-06
9.82119e-08
1.82994e-06
8.57746e-08
1.81987e-06
7.52057e-08
1.81033e-06
6.61382e-08
1.80135e-06
5.84744e-08
1.79295e-06
5.19968e-08
1.78512e-06
4.64607e-08
1.77784e-06
4.16764e-08
1.77111e-06
3.75116e-08
1.76488e-06
3.38453e-08
1.75918e-06
3.06246e-08
1.75391e-06
2.76662e-08
2.50433e-08
1.74944e-06
2.0682e-06
3.32048e-07
2.04092e-06
2.12431e-07
2.02436e-06
1.75209e-07
2.01238e-06
1.47474e-07
2.00254e-06
1.24003e-07
1.99408e-06
1.06667e-07
1.98656e-06
9.32969e-08
1.97969e-06
8.20793e-08
1.97333e-06
7.24969e-08
1.96743e-06
6.43742e-08
1.96196e-06
5.74696e-08
1.95688e-06
5.1534e-08
1.95218e-06
4.63757e-08
1.94784e-06
4.1856e-08
1.94383e-06
3.78569e-08
1.94016e-06
3.42903e-08
1.93679e-06
3.10394e-08
2.8014e-08
1.93382e-06
2.22664e-06
3.59951e-07
2.19981e-06
2.39259e-07
2.18266e-06
1.92365e-07
2.1704e-06
1.59732e-07
2.16085e-06
1.33557e-07
2.1532e-06
1.14315e-07
2.14688e-06
9.96149e-08
2.14147e-06
8.74924e-08
2.13671e-06
7.72503e-08
2.13249e-06
6.86e-08
2.12871e-06
6.12516e-08
2.1253e-06
5.49348e-08
2.12224e-06
4.94438e-08
2.11947e-06
4.46267e-08
2.11696e-06
4.03591e-08
2.11472e-06
3.6534e-08
2.1127e-06
3.30594e-08
2.98106e-08
2.1109e-06
2.39441e-06
3.819e-07
2.36954e-06
2.64127e-07
2.35226e-06
2.09643e-07
2.33953e-06
1.72463e-07
2.32968e-06
1.43415e-07
2.32203e-06
1.21956e-07
2.31602e-06
1.05626e-07
2.31116e-06
9.23593e-08
2.30712e-06
8.12859e-08
2.30373e-06
7.1993e-08
2.30085e-06
6.4129e-08
2.29839e-06
5.73911e-08
2.29629e-06
5.15512e-08
2.29448e-06
4.64383e-08
2.29292e-06
4.19165e-08
2.29159e-06
3.78667e-08
2.29044e-06
3.42016e-08
3.08009e-08
2.28945e-06
2.57276e-06
3.9893e-07
2.55055e-06
2.86341e-07
2.53371e-06
2.26483e-07
2.52074e-06
1.85428e-07
2.51052e-06
1.53634e-07
2.50262e-06
1.29857e-07
2.49653e-06
1.1172e-07
2.49175e-06
9.71334e-08
2.48796e-06
8.50795e-08
2.48492e-06
7.5029e-08
2.48249e-06
6.65656e-08
2.48053e-06
5.93483e-08
2.47896e-06
5.31208e-08
2.47771e-06
4.76904e-08
2.47672e-06
4.29058e-08
2.47595e-06
3.86381e-08
2.47535e-06
3.47952e-08
3.12677e-08
2.47489e-06
2.76268e-06
4.11914e-07
2.74337e-06
3.05659e-07
2.72747e-06
2.42378e-07
2.71469e-06
1.98213e-07
2.70433e-06
1.63994e-07
2.6962e-06
1.37983e-07
2.68993e-06
1.17996e-07
2.68507e-06
1.01994e-07
2.68129e-06
8.88584e-08
2.67836e-06
7.79595e-08
2.6761e-06
6.88227e-08
2.67438e-06
6.10684e-08
2.67309e-06
5.44107e-08
2.67215e-06
4.86335e-08
2.67148e-06
4.35684e-08
2.67104e-06
3.90764e-08
2.67078e-06
3.50566e-08
3.1407e-08
2.67064e-06
2.96513e-06
4.21676e-07
2.94871e-06
3.22071e-07
2.93416e-06
2.56931e-07
2.92199e-06
2.10389e-07
2.91183e-06
1.74149e-07
2.90369e-06
1.46127e-07
2.89732e-06
1.24361e-07
2.89238e-06
1.06938e-07
2.88856e-06
9.26791e-08
2.88564e-06
8.08808e-08
2.88344e-06
7.10214e-08
2.88182e-06
6.26875e-08
2.88066e-06
5.55648e-08
2.87988e-06
4.94144e-08
2.8794e-06
4.40508e-08
2.87915e-06
3.93242e-08
2.87909e-06
3.51232e-08
3.13477e-08
2.87915e-06
3.18114e-06
4.28941e-07
3.1675e-06
3.35714e-07
3.15452e-06
2.69906e-07
3.1433e-06
2.21611e-07
3.13371e-06
1.8374e-07
3.12584e-06
1.53993e-07
3.11959e-06
1.30608e-07
3.1147e-06
1.11832e-07
3.11091e-06
9.64704e-08
3.10802e-06
8.37693e-08
3.10587e-06
7.3173e-08
3.10431e-06
6.42417e-08
3.10324e-06
5.66366e-08
3.10256e-06
5.00985e-08
3.10218e-06
4.44257e-08
3.10205e-06
3.94574e-08
3.1021e-06
3.50712e-08
3.11664e-08
3.10228e-06
2.86573e-06
4.33624e-07
2.85621e-06
3.45233e-07
2.84652e-06
2.79597e-07
2.83793e-06
2.30202e-07
2.8305e-06
1.91175e-07
2.8243e-06
1.60195e-07
2.8193e-06
1.35601e-07
2.81536e-06
1.15771e-07
2.8123e-06
9.95291e-08
2.80998e-06
8.60966e-08
2.80825e-06
7.48955e-08
2.80703e-06
6.54686e-08
2.8062e-06
5.74607e-08
2.8057e-06
5.05976e-08
2.80546e-06
4.46657e-08
2.80543e-06
3.94945e-08
2.80554e-06
3.49553e-08
3.09348e-08
2.80577e-06
3.49499e-06
4.37715e-07
3.48606e-06
3.54161e-07
3.47656e-06
2.891e-07
3.46792e-06
2.38841e-07
3.46033e-06
1.9876e-07
3.45394e-06
1.66591e-07
3.44875e-06
1.40787e-07
3.44465e-06
1.19876e-07
3.44146e-06
1.02714e-07
3.43905e-06
8.85058e-08
3.43729e-06
7.6657e-08
3.43606e-06
6.66954e-08
3.43527e-06
5.82506e-08
3.43484e-06
5.10342e-08
3.43468e-06
4.48204e-08
3.43475e-06
3.94289e-08
3.43498e-06
3.47219e-08
3.05788e-08
3.43534e-06
4.26204e-06
4.411e-07
4.25417e-06
3.62029e-07
4.24539e-06
2.9788e-07
4.23724e-06
2.46988e-07
4.23004e-06
2.0597e-07
4.22393e-06
1.72699e-07
4.21898e-06
1.45738e-07
4.21509e-06
1.23765e-07
4.21211e-06
1.05688e-07
4.20991e-06
9.07041e-08
4.20837e-06
7.82035e-08
4.20736e-06
6.77023e-08
4.20679e-06
5.88169e-08
4.20658e-06
5.12451e-08
4.20666e-06
4.4749e-08
4.20695e-06
3.91385e-08
4.2074e-06
3.42657e-08
3.00051e-08
4.20798e-06
5.19701e-06
4.43696e-07
5.19069e-06
3.68356e-07
5.1833e-06
3.05265e-07
5.17636e-06
2.53931e-07
5.17025e-06
2.12079e-07
5.16513e-06
1.77824e-07
5.16105e-06
1.49811e-07
5.15797e-06
1.26849e-07
5.15574e-06
1.07915e-07
5.15424e-06
9.2206e-08
5.15334e-06
7.90997e-08
5.15294e-06
6.8101e-08
5.15295e-06
5.8814e-08
5.15327e-06
5.09236e-08
5.15384e-06
4.41797e-08
5.15459e-06
3.83823e-08
5.15549e-06
3.33734e-08
2.90228e-08
5.15647e-06
6.33668e-06
4.45413e-07
6.3324e-06
3.72638e-07
6.32727e-06
3.10386e-07
6.32252e-06
2.58686e-07
6.31852e-06
2.16081e-07
6.31537e-06
1.80971e-07
6.31312e-06
1.52066e-07
6.3117e-06
1.28263e-07
6.31102e-06
1.08601e-07
6.31093e-06
9.22872e-08
6.31135e-06
7.86877e-08
6.31215e-06
6.72957e-08
6.31326e-06
5.7703e-08
6.3146e-06
4.95825e-08
6.31611e-06
4.26724e-08
6.31773e-06
3.67624e-08
6.31942e-06
3.16848e-08
2.73056e-08
6.32114e-06
7.72591e-06
4.46091e-07
7.72435e-06
3.742e-07
7.7227e-06
3.1204e-07
7.72158e-06
2.598e-07
7.72119e-06
2.16472e-07
7.72151e-06
1.80655e-07
7.72249e-06
1.51087e-07
7.72405e-06
1.26696e-07
7.7261e-06
1.06553e-07
7.72852e-06
8.9867e-08
7.73122e-06
7.59925e-08
7.73411e-06
6.44074e-08
7.73712e-06
5.46916e-08
7.74019e-06
4.65064e-08
7.74329e-06
3.95793e-08
7.74636e-06
3.36911e-08
7.74938e-06
2.86657e-08
2.43656e-08
7.75232e-06
9.41956e-06
4.45349e-07
9.42195e-06
3.71814e-07
9.42572e-06
3.08263e-07
9.43061e-06
2.54914e-07
9.43628e-06
2.10803e-07
9.44245e-06
1.74481e-07
9.44893e-06
1.44604e-07
9.45558e-06
1.20054e-07
9.46226e-06
9.9873e-08
9.46888e-06
8.32449e-08
9.47538e-06
6.94953e-08
9.4817e-06
5.80826e-08
9.48782e-06
4.85729e-08
9.49371e-06
4.06173e-08
9.49935e-06
3.39352e-08
9.50474e-06
2.83012e-08
9.50987e-06
2.35343e-08
1.94966e-08
9.51474e-06
1.1485e-05
4.42021e-07
1.14942e-05
3.62618e-07
1.15074e-05
2.95096e-07
1.15226e-05
2.39649e-07
1.15387e-05
1.9472e-07
1.15549e-05
1.58302e-07
1.15707e-05
1.28761e-07
1.1586e-05
1.04828e-07
1.16004e-05
8.54223e-08
1.1614e-05
6.96305e-08
1.16268e-05
5.67229e-08
1.16387e-05
4.61307e-08
1.16499e-05
3.74056e-08
1.16603e-05
3.01906e-08
1.16701e-05
2.42022e-08
1.16792e-05
1.9215e-08
1.16876e-05
1.50493e-08
1.15714e-08
1.16956e-05
8.41017e-06
4.37201e-07
8.4229e-06
3.49892e-07
8.44028e-06
2.77717e-07
8.4594e-06
2.20524e-07
8.47869e-06
1.75428e-07
8.49745e-06
1.39545e-07
8.51526e-06
1.10954e-07
8.53187e-06
8.82186e-08
8.5472e-06
7.00876e-08
8.5613e-06
5.55353e-08
8.57423e-06
4.37901e-08
8.58609e-06
3.42707e-08
8.59697e-06
2.65249e-08
8.60696e-06
2.01973e-08
8.61616e-06
1.501e-08
8.62462e-06
1.0746e-08
8.63244e-06
7.23336e-09
4.34591e-09
8.63967e-06
7.32399e-06
4.3049e-07
7.34145e-06
3.32438e-07
7.36413e-06
2.55038e-07
7.38788e-06
1.96771e-07
7.41105e-06
1.52255e-07
7.43306e-06
1.17535e-07
7.4535e-06
9.05141e-08
7.47217e-06
6.95556e-08
7.48908e-06
5.31715e-08
7.50439e-06
4.02284e-08
7.51824e-06
2.99394e-08
7.53078e-06
2.17284e-08
7.54216e-06
1.5149e-08
7.5525e-06
9.85619e-09
7.56192e-06
5.58654e-09
7.57053e-06
2.13735e-09
7.57842e-06
-6.50021e-10
-2.89108e-09
7.58565e-06
6.37934e-06
4.21214e-07
6.40241e-06
3.09372e-07
6.43033e-06
2.27114e-07
6.45792e-06
1.69185e-07
6.484e-06
1.26168e-07
6.50827e-06
9.32718e-08
6.53031e-06
6.84723e-08
6.55003e-06
4.98386e-08
6.5676e-06
3.5595e-08
6.58329e-06
2.45452e-08
6.5973e-06
1.59289e-08
6.60983e-06
9.19103e-09
6.62108e-06
3.90098e-09
6.6312e-06
-2.65754e-10
6.64034e-06
-3.55035e-09
6.64861e-06
-6.13499e-09
6.65612e-06
-8.16108e-09
-9.73086e-09
6.66296e-06
5.55841e-06
4.0827e-07
5.58816e-06
2.79625e-07
5.62106e-06
1.94213e-07
5.6516e-06
1.38638e-07
5.67969e-06
9.80799e-08
5.70522e-06
6.77456e-08
5.72782e-06
4.58758e-08
5.74758e-06
3.00717e-08
5.7649e-06
1.82821e-08
5.7801e-06
9.3359e-09
5.79349e-06
2.53951e-09
5.80531e-06
-2.62782e-09
5.81578e-06
-6.5688e-09
5.82509e-06
-9.57564e-09
5.8334e-06
-1.18588e-08
5.84084e-06
-1.35756e-08
5.84753e-06
-1.48462e-08
-1.57576e-08
5.85355e-06
4.84593e-06
3.89943e-07
4.88334e-06
2.42219e-07
4.92031e-06
1.57248e-07
4.95263e-06
1.06318e-07
4.98162e-06
6.90885e-08
5.0072e-06
4.21585e-08
5.02915e-06
2.39306e-08
5.04787e-06
1.1347e-08
5.06396e-06
2.20061e-09
5.07783e-06
-4.54247e-09
5.08985e-06
-9.47377e-09
5.10029e-06
-1.30651e-08
5.10939e-06
-1.56763e-08
5.11737e-06
-1.75563e-08
5.12439e-06
-1.88791e-08
5.13059e-06
-1.97734e-08
5.13608e-06
-2.03362e-08
-2.06378e-08
5.14096e-06
4.22832e-06
3.64294e-07
4.27411e-06
1.96434e-07
4.31341e-06
1.1795e-07
4.34584e-06
7.3882e-08
4.37431e-06
4.06223e-08
4.3986e-06
1.78719e-08
4.41871e-06
3.81473e-09
4.43543e-06
-5.37553e-09
4.44949e-06
-1.18542e-08
4.46137e-06
-1.64212e-08
4.47144e-06
-1.95456e-08
4.48001e-06
-2.16363e-08
4.48733e-06
-2.29982e-08
4.49361e-06
-2.38313e-08
4.499e-06
-2.42711e-08
4.50364e-06
-2.44182e-08
4.50765e-06
-2.43455e-08
-2.41096e-08
4.51113e-06
3.69254e-06
3.30393e-07
3.74698e-06
1.41999e-07
3.78676e-06
7.81714e-08
3.81773e-06
4.29096e-08
3.84418e-06
1.41664e-08
3.86591e-06
-3.8568e-09
3.88327e-06
-1.35419e-08
3.89729e-06
-1.94005e-08
3.90875e-06
-2.33067e-08
3.91812e-06
-2.57944e-08
3.92579e-06
-2.72149e-08
3.93206e-06
-2.79087e-08
3.93718e-06
-2.81208e-08
3.94135e-06
-2.80017e-08
3.94473e-06
-2.76499e-08
3.94745e-06
-2.71385e-08
3.94963e-06
-2.65166e-08
-2.58276e-08
3.95134e-06
3.22816e-06
2.87261e-07
3.28932e-06
8.0844e-08
3.32809e-06
3.94024e-08
3.35682e-06
1.4175e-08
3.38011e-06
-9.11875e-09
3.39819e-06
-2.19331e-08
3.41192e-06
-2.72738e-08
3.42246e-06
-2.99475e-08
3.43054e-06
-3.13867e-08
3.43664e-06
-3.18856e-08
3.44112e-06
-3.17e-08
3.44431e-06
-3.11031e-08
3.44647e-06
-3.02769e-08
3.44779e-06
-2.93208e-08
3.44843e-06
-2.82949e-08
3.44854e-06
-2.72444e-08
3.44822e-06
-2.61946e-08
-2.51804e-08
3.44757e-06
2.8341e-06
2.2589e-07
2.8927e-06
2.22518e-08
2.92688e-06
5.21779e-09
2.9523e-06
-1.12437e-08
2.97131e-06
-2.8127e-08
2.9844e-06
-3.50254e-08
2.99305e-06
-3.59201e-08
2.99835e-06
-3.5255e-08
3.00114e-06
-3.41746e-08
3.002e-06
-3.27461e-08
3.0014e-06
-3.11016e-08
2.99971e-06
-2.94104e-08
2.9972e-06
-2.77677e-08
2.99409e-06
-2.62072e-08
2.99053e-06
-2.47408e-08
2.98667e-06
-2.33844e-08
2.98262e-06
-2.2138e-08
-2.10164e-08
2.97845e-06
2.52607e-06
1.13625e-07
2.5595e-06
-1.11786e-08
2.57814e-06
-1.34281e-08
2.59239e-06
-2.54841e-08
2.6011e-06
-3.68375e-08
2.60364e-06
-3.75719e-08
2.60137e-06
-3.36449e-08
2.59576e-06
-2.96503e-08
2.58802e-06
-2.6429e-08
2.57901e-06
-2.3743e-08
2.56934e-06
-2.14294e-08
2.55937e-06
-1.94405e-08
2.54934e-06
-1.7734e-08
2.53939e-06
-1.62591e-08
2.52962e-06
-1.49756e-08
2.52011e-06
-1.38731e-08
2.51093e-06
-1.29582e-08
-1.2489e-08
2.50241e-06
2.21496e-06
2.20378e-06
2.19036e-06
2.16487e-06
2.12803e-06
2.09046e-06
2.05682e-06
2.02717e-06
2.00074e-06
1.977e-06
1.95557e-06
1.93613e-06
1.91839e-06
1.90213e-06
1.88716e-06
1.87328e-06
1.86033e-06
1.84784e-06
6.47784e-09
-6.47784e-09
1.41527e-08
-7.67488e-09
1.93533e-08
-5.20061e-09
2.1227e-08
-1.87367e-09
1.98311e-08
1.39594e-09
1.57394e-08
4.0917e-09
9.59048e-09
6.14887e-09
1.94729e-09
7.6432e-09
-6.79125e-09
8.73854e-09
-1.63778e-08
9.58653e-09
-2.66644e-08
1.02866e-08
-3.75657e-08
1.09013e-08
-4.90317e-08
1.1466e-08
-6.10298e-08
1.19981e-08
-7.35351e-08
1.25053e-08
-8.65256e-08
1.29906e-08
-9.99804e-08
1.34548e-08
-1.13878e-07
1.3898e-08
-1.28199e-07
1.43204e-08
-1.42921e-07
1.47221e-08
-1.58025e-07
1.51038e-08
-1.73491e-07
1.54662e-08
-1.89301e-07
1.58103e-08
-2.05438e-07
1.6137e-08
-2.21886e-07
1.64475e-08
-2.38629e-07
1.67428e-08
-2.55653e-07
1.7024e-08
-2.72945e-07
1.72922e-08
-2.90493e-07
1.75482e-08
-3.08286e-07
1.77931e-08
-3.26314e-07
1.80276e-08
-3.44566e-07
1.82523e-08
-3.63034e-07
1.84679e-08
-3.81709e-07
1.86747e-08
-4.00582e-07
1.88731e-08
-4.19645e-07
1.90633e-08
-4.3889e-07
1.92453e-08
-4.58309e-07
1.94189e-08
-4.77893e-07
1.95839e-08
-4.97633e-07
1.97397e-08
-5.17519e-07
1.98858e-08
-5.3754e-07
2.00212e-08
-5.57685e-07
2.01451e-08
-5.77942e-07
2.02566e-08
-5.98296e-07
2.03548e-08
-6.18736e-07
2.04392e-08
-6.39245e-07
2.05097e-08
-6.59812e-07
2.05668e-08
-6.80423e-07
2.0611e-08
-7.01066e-07
2.06432e-08
-7.21729e-07
2.06631e-08
-7.42398e-07
2.06683e-08
-7.63051e-07
2.06529e-08
-7.83657e-07
2.06068e-08
-8.04176e-07
2.05187e-08
-8.24559e-07
2.03825e-08
-8.44767e-07
2.02084e-08
-8.64795e-07
2.00279e-08
-8.84678e-07
1.98827e-08
-9.04479e-07
1.98016e-08
-9.24267e-07
1.97882e-08
-9.44118e-07
1.98509e-08
-9.64058e-07
1.99392e-08
-9.83681e-07
1.9623e-08
-1.00212e-06
1.84381e-08
-1.01965e-06
1.75288e-08
-1.04152e-06
2.18683e-08
-1.06244e-06
2.09283e-08
-1.07874e-06
1.62919e-08
-1.09654e-06
1.78007e-08
-1.11338e-06
1.68466e-08
-1.13065e-06
1.72692e-08
-1.14587e-06
1.52159e-08
-1.16399e-06
1.8126e-08
-1.18339e-06
1.93917e-08
-1.1947e-06
1.13158e-08
-1.20704e-06
1.23418e-08
-1.22381e-06
1.67632e-08
-1.24019e-06
1.63822e-08
-1.25581e-06
1.56181e-08
-1.26764e-06
1.18318e-08
-1.27408e-06
6.43769e-09
-1.28182e-06
7.74372e-09
-1.28983e-06
8.0049e-09
-1.29739e-06
7.56153e-09
-1.30437e-06
6.98429e-09
-1.31065e-06
6.27507e-09
-1.31613e-06
5.47922e-09
-1.32075e-06
4.61989e-09
-1.32445e-06
3.70533e-09
-1.32719e-06
2.73533e-09
-1.3289e-06
1.70971e-09
-1.32952e-06
6.24202e-10
-1.3291e-06
-4.17809e-10
-1.32778e-06
-1.31751e-09
-1.3256e-06
-2.18106e-09
-1.32257e-06
-3.02909e-09
-1.3187e-06
-3.87295e-09
-1.31398e-06
-4.71769e-09
-1.30842e-06
-5.56418e-09
-1.30201e-06
-6.41195e-09
-1.29475e-06
-7.26004e-09
-1.28664e-06
-8.10718e-09
-1.27769e-06
-8.95214e-09
-1.26789e-06
-9.79352e-09
-1.25726e-06
-1.06301e-08
-1.2458e-06
-1.14604e-08
-1.23352e-06
-1.22832e-08
-1.22042e-06
-1.30972e-08
-1.20652e-06
-1.3901e-08
-1.19183e-06
-1.46935e-08
-1.17636e-06
-1.54733e-08
-1.16012e-06
-1.62393e-08
-1.14313e-06
-1.69904e-08
-1.1254e-06
-1.77255e-08
-1.10696e-06
-1.84435e-08
-1.08781e-06
-1.91434e-08
-1.06799e-06
-1.98243e-08
-1.0475e-06
-2.04853e-08
-1.02638e-06
-2.11254e-08
-1.00464e-06
-2.17438e-08
-9.82296e-07
-2.23398e-08
-9.59383e-07
-2.29128e-08
-9.35921e-07
-2.3462e-08
-9.11934e-07
-2.39871e-08
-8.87446e-07
-2.44874e-08
-8.62484e-07
-2.49626e-08
-8.37071e-07
-2.54123e-08
-8.11235e-07
-2.58361e-08
-7.85002e-07
-2.62338e-08
-7.58396e-07
-2.66053e-08
-7.31446e-07
-2.69506e-08
-7.04176e-07
-2.72696e-08
-6.76614e-07
-2.75623e-08
-6.48785e-07
-2.78289e-08
-6.20715e-07
-2.80695e-08
-5.92431e-07
-2.82845e-08
-5.63957e-07
-2.84742e-08
-5.35318e-07
-2.86388e-08
-5.06539e-07
-2.87787e-08
-4.77644e-07
-2.88946e-08
-4.48658e-07
-2.8987e-08
-4.19601e-07
-2.90563e-08
-3.90498e-07
-2.91032e-08
-3.6137e-07
-2.91284e-08
-3.32237e-07
-2.91326e-08
-3.03121e-07
-2.91164e-08
-2.7404e-07
-2.90805e-08
-2.45014e-07
-2.90257e-08
-2.16062e-07
-2.89528e-08
-1.87198e-07
-2.88633e-08
-1.58438e-07
-2.87607e-08
-1.29785e-07
-2.8653e-08
-1.01225e-07
-2.85592e-08
-7.26725e-08
-2.85527e-08
-4.38203e-08
-2.88522e-08
-1.49344e-08
-2.88859e-08
1.3061e-08
-2.79954e-08
3.99352e-08
-2.68743e-08
6.72557e-08
-2.73205e-08
9.42366e-08
-2.69809e-08
1.20847e-07
-2.66106e-08
1.47636e-07
-2.6789e-08
1.74008e-07
-2.6372e-08
1.99918e-07
-2.59097e-08
2.26657e-07
-2.67393e-08
2.53023e-07
-2.63662e-08
2.78577e-07
-2.55536e-08
3.04114e-07
-2.55367e-08
3.28277e-07
-2.41634e-08
3.52687e-07
-2.44097e-08
3.77576e-07
-2.48892e-08
4.02527e-07
-2.49511e-08
4.26046e-07
-2.35184e-08
4.48991e-07
-2.29457e-08
4.7233e-07
-2.33389e-08
4.93498e-07
-2.11683e-08
5.10446e-07
-1.69478e-08
5.18871e-07
-8.42489e-09
1.43681e-08
5.04503e-07
3.90931e-09
-1.03872e-08
4.64992e-09
-8.41549e-09
2.45856e-09
-3.00925e-09
-1.75439e-09
2.33929e-09
-7.53885e-09
7.1804e-09
-1.47898e-08
1.13427e-08
-2.34186e-08
1.47777e-08
-3.33097e-08
1.75343e-08
-4.42995e-08
1.97283e-08
-5.62096e-08
2.14967e-08
-6.88833e-08
2.29603e-08
-8.2193e-08
2.4211e-08
-9.60397e-08
2.53127e-08
-1.10348e-07
2.63064e-08
-1.25061e-07
2.72178e-08
-1.40133e-07
2.80626e-08
-1.55528e-07
2.88506e-08
-1.71219e-07
2.95883e-08
-1.87179e-07
3.02808e-08
-2.03389e-07
3.09319e-08
-2.1983e-07
3.15453e-08
-2.36488e-07
3.21241e-08
-2.53349e-07
3.26714e-08
-2.70402e-07
3.319e-08
-2.87637e-07
3.36826e-08
-3.05046e-07
3.41516e-08
-3.22621e-07
3.45992e-08
-3.40356e-07
3.50273e-08
-3.58246e-07
3.54377e-08
-3.76285e-07
3.58318e-08
-3.94468e-07
3.62107e-08
-4.12791e-07
3.65756e-08
-4.3125e-07
3.69269e-08
-4.49841e-07
3.72653e-08
-4.68558e-07
3.75908e-08
-4.87398e-07
3.79035e-08
-5.06356e-07
3.82029e-08
-5.25426e-07
3.84886e-08
-5.44602e-07
3.87598e-08
-5.63877e-07
3.90153e-08
-5.83245e-07
3.92539e-08
-6.02698e-07
3.94741e-08
-6.22227e-07
3.96743e-08
-6.41824e-07
3.9853e-08
-6.61478e-07
4.00089e-08
-6.8118e-07
4.01414e-08
-7.00921e-07
4.02501e-08
-7.20689e-07
4.03356e-08
-7.40477e-07
4.03985e-08
-7.60273e-07
4.04393e-08
-7.80067e-07
4.04568e-08
-7.99845e-07
4.04473e-08
-8.19597e-07
4.0404e-08
-8.39308e-07
4.03183e-08
-8.58973e-07
4.01837e-08
-8.78593e-07
4.00026e-08
-8.98177e-07
3.97924e-08
-9.17733e-07
3.95836e-08
-9.37256e-07
3.9406e-08
-9.5672e-07
3.92657e-08
-9.76071e-07
3.91385e-08
-9.95211e-07
3.89917e-08
-1.01403e-06
3.87563e-08
-1.03263e-06
3.82234e-08
-1.05148e-06
3.72872e-08
-1.07058e-06
3.66351e-08
-1.08589e-06
3.71693e-08
-1.1014e-06
3.64404e-08
-1.11962e-06
3.45174e-08
-1.13538e-06
3.35556e-08
-1.15091e-06
3.23802e-08
-1.16515e-06
3.15053e-08
-1.18011e-06
3.01765e-08
-1.19158e-06
2.95985e-08
-1.20089e-06
2.87041e-08
-1.2153e-06
2.57205e-08
-1.22727e-06
2.43165e-08
-1.23484e-06
2.43281e-08
-1.24189e-06
2.34341e-08
-1.24803e-06
2.17551e-08
-1.25487e-06
1.86712e-08
-1.26406e-06
1.56372e-08
-1.27084e-06
1.45192e-08
-1.27632e-06
1.34797e-08
-1.28094e-06
1.21827e-08
-1.28473e-06
1.07742e-08
-1.28773e-06
9.28145e-09
-1.28998e-06
7.72284e-09
-1.29147e-06
6.11319e-09
-1.29223e-06
4.46313e-09
-1.29228e-06
2.78325e-09
-1.29166e-06
1.0912e-09
-1.29044e-06
-5.95326e-10
-1.28859e-06
-2.26373e-09
-1.286e-06
-3.90605e-09
-1.28263e-06
-5.55756e-09
-1.27844e-06
-7.21786e-09
-1.27342e-06
-8.88575e-09
-1.26758e-06
-1.05605e-08
-1.26091e-06
-1.22405e-08
-1.25339e-06
-1.39236e-08
-1.24505e-06
-1.56073e-08
-1.23586e-06
-1.72892e-08
-1.22585e-06
-1.89665e-08
-1.21501e-06
-2.06366e-08
-1.20334e-06
-2.22969e-08
-1.19086e-06
-2.39448e-08
-1.17756e-06
-2.55776e-08
-1.16347e-06
-2.71927e-08
-1.14858e-06
-2.87876e-08
-1.13291e-06
-3.03598e-08
-1.11648e-06
-3.19069e-08
-1.09929e-06
-3.34264e-08
-1.08137e-06
-3.49162e-08
-1.06272e-06
-3.6374e-08
-1.04336e-06
-3.77978e-08
-1.02332e-06
-3.91856e-08
-1.00261e-06
-4.05354e-08
-9.8125e-07
-4.18456e-08
-9.59262e-07
-4.31142e-08
-9.36666e-07
-4.43397e-08
-9.13485e-07
-4.55205e-08
-8.89742e-07
-4.66553e-08
-8.65462e-07
-4.77429e-08
-8.40666e-07
-4.87822e-08
-8.15381e-07
-4.97723e-08
-7.89632e-07
-5.07123e-08
-7.63443e-07
-5.16013e-08
-7.3684e-07
-5.24388e-08
-7.0985e-07
-5.32243e-08
-6.82497e-07
-5.39575e-08
-6.5481e-07
-5.46383e-08
-6.26813e-07
-5.52667e-08
-5.98532e-07
-5.58426e-08
-5.69995e-07
-5.63664e-08
-5.41226e-07
-5.68384e-08
-5.12251e-07
-5.72593e-08
-4.83096e-07
-5.76295e-08
-4.53785e-07
-5.79498e-08
-4.24342e-07
-5.8221e-08
-3.94793e-07
-5.84443e-08
-3.65159e-07
-5.86205e-08
-3.35465e-07
-5.87509e-08
-3.05731e-07
-5.88367e-08
-2.7598e-07
-5.88794e-08
-2.46233e-07
-5.888e-08
-2.16509e-07
-5.88402e-08
-1.86828e-07
-5.87612e-08
-1.57209e-07
-5.86446e-08
-1.2767e-07
-5.84923e-08
-9.82262e-08
-5.83069e-08
-6.8894e-08
-5.80929e-08
-3.96858e-08
-5.78613e-08
-1.06127e-08
-5.76323e-08
1.82866e-08
-5.7452e-08
4.67956e-08
-5.73612e-08
7.47736e-08
-5.68639e-08
1.02812e-07
-5.60333e-08
1.31489e-07
-5.55514e-08
1.59267e-07
-5.50985e-08
1.86749e-07
-5.44636e-08
2.14079e-07
-5.39403e-08
2.41214e-07
-5.39235e-08
2.68243e-07
-5.34012e-08
2.95057e-07
-5.27241e-08
3.21157e-07
-5.28394e-08
3.46917e-07
-5.21261e-08
3.72725e-07
-5.13611e-08
3.98853e-07
-5.16647e-08
4.25007e-07
-5.03175e-08
4.50601e-07
-5.0004e-08
4.75932e-07
-5.022e-08
5.0062e-07
-4.96391e-08
5.24901e-07
-4.77999e-08
5.48821e-07
-4.68652e-08
5.71907e-07
-4.64252e-08
5.93067e-07
-4.23279e-08
6.11346e-07
-3.52266e-08
6.25624e-07
-2.27035e-08
4.17384e-09
6.35818e-07
-1.40156e-09
-8.9856e-09
-6.60269e-09
-3.21436e-09
-1.33848e-08
3.77283e-09
-2.1086e-08
1.00405e-08
-2.95226e-08
1.56171e-08
-3.8683e-08
2.05031e-08
-4.86049e-08
2.46995e-08
-5.93108e-08
2.82402e-08
-7.07802e-08
3.11977e-08
-8.29514e-08
3.36679e-08
-9.57411e-08
3.575e-08
-1.09062e-07
3.7532e-08
-1.22834e-07
3.90846e-08
-1.36988e-07
4.04608e-08
-1.51469e-07
4.16986e-08
-1.66231e-07
4.2825e-08
-1.8124e-07
4.38593e-08
-1.96468e-07
4.48157e-08
-2.11892e-07
4.57047e-08
-2.27495e-07
4.65351e-08
-2.43263e-07
4.73138e-08
-2.59186e-07
4.80471e-08
-2.75255e-07
4.874e-08
-2.91462e-07
4.93974e-08
-3.07803e-07
5.00232e-08
-3.24272e-07
5.06209e-08
-3.40867e-07
5.11937e-08
-3.57583e-07
5.17439e-08
-3.7442e-07
5.22739e-08
-3.91373e-07
5.27852e-08
-4.08441e-07
5.32791e-08
-4.25622e-07
5.37567e-08
-4.42914e-07
5.42184e-08
-4.60313e-07
5.46644e-08
-4.77817e-07
5.50946e-08
-4.95422e-07
5.55084e-08
-5.13124e-07
5.59052e-08
-5.30919e-07
5.62838e-08
-5.48802e-07
5.66428e-08
-5.66767e-07
5.69805e-08
-5.84808e-07
5.7295e-08
-6.02918e-07
5.75842e-08
-6.2109e-07
5.7846e-08
-6.39315e-07
5.80783e-08
-6.57586e-07
5.82795e-08
-6.75893e-07
5.84483e-08
-6.94227e-07
5.85838e-08
-7.12577e-07
5.86859e-08
-7.30933e-07
5.87542e-08
-7.49281e-07
5.87879e-08
-7.67609e-07
5.87845e-08
-7.85902e-07
5.87397e-08
-8.04144e-07
5.8647e-08
-8.22326e-07
5.84998e-08
-8.40437e-07
5.82945e-08
-8.58469e-07
5.80345e-08
-8.76408e-07
5.77318e-08
-8.94228e-07
5.74038e-08
-9.11885e-07
5.70622e-08
-9.2932e-07
5.6701e-08
-9.46475e-07
5.62933e-08
-9.63282e-07
5.5799e-08
-9.79687e-07
5.51617e-08
-9.95771e-07
5.43069e-08
-1.01174e-06
5.32535e-08
-1.02735e-06
5.2244e-08
-1.04151e-06
5.13336e-08
-1.05518e-06
5.01065e-08
-1.06918e-06
4.8519e-08
-1.08254e-06
4.69224e-08
-1.09546e-06
4.52992e-08
-1.1076e-06
4.36461e-08
-1.11936e-06
4.19272e-08
-1.12995e-06
4.01911e-08
-1.13949e-06
3.82503e-08
-1.14974e-06
3.59685e-08
-1.15934e-06
3.391e-08
-1.16716e-06
3.21529e-08
-1.17397e-06
3.02407e-08
-1.18015e-06
2.79371e-08
-1.18663e-06
2.51541e-08
-1.19349e-06
2.24919e-08
-1.19931e-06
2.03449e-08
-1.20414e-06
1.83067e-08
-1.20817e-06
1.62105e-08
-1.21145e-06
1.40576e-08
-1.21402e-06
1.1847e-08
-1.21588e-06
9.58452e-09
-1.21704e-06
7.27833e-09
-1.21752e-06
4.93701e-09
-1.2173e-06
2.57045e-09
-1.2164e-06
1.86794e-10
-1.2148e-06
-2.19913e-09
-1.21246e-06
-4.59502e-09
-1.20937e-06
-7.00411e-09
-1.20549e-06
-9.43379e-09
-1.20083e-06
-1.18825e-08
-1.19536e-06
-1.43472e-08
-1.1891e-06
-1.68244e-08
-1.18203e-06
-1.93105e-08
-1.17415e-06
-2.18017e-08
-1.16547e-06
-2.42942e-08
-1.15597e-06
-2.67839e-08
-1.14567e-06
-2.92671e-08
-1.13457e-06
-3.17396e-08
-1.12267e-06
-3.41977e-08
-1.10997e-06
-3.66373e-08
-1.0965e-06
-3.90548e-08
-1.08224e-06
-4.14461e-08
-1.06722e-06
-4.38075e-08
-1.05145e-06
-4.61353e-08
-1.03493e-06
-4.84259e-08
-1.01768e-06
-5.06758e-08
-9.99714e-07
-5.28815e-08
-9.81048e-07
-5.504e-08
-9.61698e-07
-5.7148e-08
-9.41681e-07
-5.92027e-08
-9.21015e-07
-6.12012e-08
-8.9972e-07
-6.31408e-08
-8.77815e-07
-6.50189e-08
-8.55322e-07
-6.6833e-08
-8.32261e-07
-6.8581e-08
-8.08656e-07
-7.02606e-08
-7.84529e-07
-7.18701e-08
-7.59903e-07
-7.34079e-08
-7.34803e-07
-7.48726e-08
-7.09252e-07
-7.62629e-08
-6.83276e-07
-7.75777e-08
-6.56899e-07
-7.88158e-08
-6.30146e-07
-7.99767e-08
-6.03044e-07
-8.10599e-08
-5.75617e-07
-8.20652e-08
-5.47891e-07
-8.29927e-08
-5.19891e-07
-8.38423e-08
-4.91643e-07
-8.46143e-08
-4.63173e-07
-8.53093e-08
-4.34504e-07
-8.59282e-08
-4.05661e-07
-8.64719e-08
-3.7667e-07
-8.69414e-08
-3.47553e-07
-8.7338e-08
-3.18334e-07
-8.76632e-08
-2.89036e-07
-8.79187e-08
-2.59681e-07
-8.8106e-08
-2.3029e-07
-8.82271e-08
-2.00886e-07
-8.8284e-08
-1.71487e-07
-8.82788e-08
-1.42114e-07
-8.82133e-08
-1.12785e-07
-8.809e-08
-8.35185e-08
-8.79111e-08
-5.43316e-08
-8.76792e-08
-2.52405e-08
-8.73979e-08
3.73926e-09
-8.70727e-08
3.25905e-08
-8.67125e-08
6.12907e-08
-8.63326e-08
8.97934e-08
-8.59547e-08
1.18e-07
-8.5568e-08
1.4599e-07
-8.4854e-08
1.7401e-07
-8.40528e-08
2.01997e-07
-8.35389e-08
2.29666e-07
-8.27673e-08
2.57114e-07
-8.19123e-08
2.84379e-07
-8.12048e-08
3.11332e-07
-8.08764e-08
3.3817e-07
-8.02391e-08
3.64881e-07
-7.94352e-08
3.91067e-07
-7.90251e-08
4.17211e-07
-7.82701e-08
4.43312e-07
-7.74627e-08
4.68962e-07
-7.73147e-08
4.94873e-07
-7.6228e-08
5.20433e-07
-7.5564e-08
5.4548e-07
-7.5267e-08
5.70165e-07
-7.43244e-08
5.94868e-07
-7.25028e-08
6.18911e-07
-7.09081e-08
6.41601e-07
-6.91156e-08
6.63383e-07
-6.41098e-08
6.83732e-07
-5.55753e-08
7.02056e-07
-4.10279e-08
-1.40867e-08
7.20317e-07
-5.76188e-09
-3.22372e-09
-1.46358e-08
5.65954e-09
-2.42426e-08
1.33796e-08
-3.41417e-08
1.99396e-08
-4.42722e-08
2.57476e-08
-5.46761e-08
3.09069e-08
-6.54257e-08
3.54491e-08
-7.65864e-08
3.9401e-08
-8.81954e-08
4.28066e-08
-1.00256e-07
4.57286e-08
-1.12745e-07
4.82387e-08
-1.25622e-07
5.04086e-08
-1.38839e-07
5.23025e-08
-1.52352e-07
5.39739e-08
-1.6612e-07
5.54657e-08
-1.80106e-07
5.68112e-08
-1.94282e-07
5.8036e-08
-2.08627e-07
5.91601e-08
-2.23121e-07
6.0199e-08
-2.37752e-07
6.11655e-08
-2.52508e-07
6.20699e-08
-2.67381e-07
6.29208e-08
-2.82367e-07
6.37255e-08
-2.9746e-07
6.44902e-08
-3.12657e-07
6.52202e-08
-3.27956e-07
6.59199e-08
-3.43355e-07
6.65929e-08
-3.58853e-07
6.72422e-08
-3.74449e-07
6.78702e-08
-3.90143e-07
6.84786e-08
-4.05932e-07
6.90686e-08
-4.21817e-07
6.9641e-08
-4.37794e-07
7.01961e-08
-4.53864e-07
7.07337e-08
-4.70022e-07
7.12531e-08
-4.86267e-07
7.17533e-08
-5.02595e-07
7.2233e-08
-5.19002e-07
7.26905e-08
-5.35483e-07
7.31237e-08
-5.52032e-07
7.35304e-08
-5.68645e-07
7.39078e-08
-5.85314e-07
7.42533e-08
-6.02033e-07
7.45642e-08
-6.18792e-07
7.48377e-08
-6.35584e-07
7.50715e-08
-6.52399e-07
7.52634e-08
-6.69227e-07
7.54119e-08
-6.86056e-07
7.55153e-08
-7.02874e-07
7.5572e-08
-7.19666e-07
7.55797e-08
-7.36416e-07
7.55349e-08
-7.53109e-07
7.54324e-08
-7.69728e-07
7.52662e-08
-7.86259e-07
7.50302e-08
-8.02685e-07
7.47208e-08
-8.18989e-07
7.43384e-08
-8.35145e-07
7.38883e-08
-8.51119e-07
7.33771e-08
-8.66863e-07
7.28067e-08
-8.82331e-07
7.21684e-08
-8.97479e-07
7.14415e-08
-9.12278e-07
7.05982e-08
-9.26721e-07
6.96043e-08
-9.40843e-07
6.84288e-08
-9.54675e-07
6.70859e-08
-9.68083e-07
6.56522e-08
-9.80891e-07
6.41416e-08
-9.93233e-07
6.24478e-08
-1.00527e-06
6.05564e-08
-1.01691e-06
5.85583e-08
-1.02808e-06
5.64758e-08
-1.03876e-06
5.43228e-08
-1.04889e-06
5.2061e-08
-1.05842e-06
4.97141e-08
-1.06742e-06
4.72572e-08
-1.0761e-06
4.46472e-08
-1.08423e-06
4.20377e-08
-1.09157e-06
3.94921e-08
-1.09821e-06
3.68842e-08
-1.10434e-06
3.40687e-08
-1.11024e-06
3.10538e-08
-1.11583e-06
2.80754e-08
-1.12074e-06
2.52576e-08
-1.12492e-06
2.24837e-08
-1.12839e-06
1.96843e-08
-1.13118e-06
1.68439e-08
-1.13328e-06
1.39551e-08
-1.13472e-06
1.10182e-08
-1.13548e-06
8.03692e-09
-1.13556e-06
5.01677e-09
-1.13495e-06
1.96378e-09
-1.13365e-06
-1.11669e-09
-1.13163e-06
-4.21979e-09
-1.12887e-06
-7.34765e-09
-1.12537e-06
-1.05037e-08
-1.12112e-06
-1.36892e-08
-1.1161e-06
-1.6901e-08
-1.11031e-06
-2.01349e-08
-1.10375e-06
-2.33861e-08
-1.09641e-06
-2.66495e-08
-1.08829e-06
-2.99199e-08
-1.0794e-06
-3.31922e-08
-1.06972e-06
-3.6461e-08
-1.05926e-06
-3.97212e-08
-1.04804e-06
-4.29676e-08
-1.03604e-06
-4.6195e-08
-1.02328e-06
-4.93983e-08
-1.00976e-06
-5.25725e-08
-9.95494e-07
-5.57124e-08
-9.80488e-07
-5.88132e-08
-9.64753e-07
-6.18699e-08
-9.48301e-07
-6.48778e-08
-9.31145e-07
-6.78322e-08
-9.13298e-07
-7.07287e-08
-8.94775e-07
-7.35631e-08
-8.75591e-07
-7.63312e-08
-8.55765e-07
-7.90292e-08
-8.35313e-07
-8.16534e-08
-8.14253e-07
-8.42002e-08
-7.92606e-07
-8.66662e-08
-7.70391e-07
-8.90481e-08