/*--------------------------------*- C++ -*----------------------------------*\
  =========                 |
  \\      /  F ield         | OpenFOAM: The Open Source CFD Toolbox
   \\    /   O peration     | Website:  https://openfoam.org
    \\  /    A nd           | Version:  7
     \\/     M anipulation  |
\*---------------------------------------------------------------------------*/
FoamFile
{
    version     2.0;
    format      ascii;
    class       volVectorField;
    location    "0.25";
    object      U;
}
// * * * * * * * * * * * * * * * * * * * * * * * * * * * * * * * * * * * * * //

dimensions      [0 1 -1 0 0 0 0];

internalField   nonuniform List<vector> 
12225
(
(4.73347 -0.571241 0)
(4.31415 -0.430538 0)
(4.03361 -0.176987 0)
(3.82437 -0.0515555 0)
(3.64945 -0.00460799 0)
(3.50662 0.0100146 0)
(3.39571 0.0130663 0)
(3.30955 0.012456 0)
(3.24027 0.0110295 0)
(3.18288 0.0096891 0)
(3.13451 0.00861372 0)
(3.09313 0.00776088 0)
(3.05723 0.00705947 0)
(3.02573 0.00646364 0)
(2.99774 0.0059449 0)
(2.97336 0.00544771 0)
(2.94889 0.005698 0)
(2.93734 0.0023671 0)
(5.02997 0.295073 0)
(4.8422 0.245057 0)
(4.69196 0.16988 0)
(4.58579 0.107138 0)
(4.48718 0.0705213 0)
(4.39263 0.0517041 0)
(4.30765 0.0412071 0)
(4.23289 0.0342595 0)
(4.16673 0.0291811 0)
(4.10811 0.0253645 0)
(4.05636 0.0224452 0)
(4.01071 0.0201498 0)
(3.97026 0.0182895 0)
(3.93428 0.0167599 0)
(3.90208 0.0154267 0)
(3.87341 0.0145073 0)
(3.84715 0.0130412 0)
(3.82559 0.014968 0)
(4.96336 0.187522 0)
(4.82997 0.103971 0)
(4.75456 0.0857295 0)
(4.71159 0.0765148 0)
(4.66622 0.0679709 0)
(4.61625 0.0608939 0)
(4.56783 0.0547218 0)
(4.52267 0.0490651 0)
(4.48037 0.0440618 0)
(4.44092 0.0398342 0)
(4.40457 0.0363064 0)
(4.37134 0.0333279 0)
(4.34101 0.0307717 0)
(4.31335 0.0285608 0)
(4.28812 0.0265984 0)
(4.26515 0.024969 0)
(4.24441 0.0233002 0)
(4.22516 0.0227131 0)
(4.96282 0.17115 0)
(4.85057 0.102654 0)
(4.78993 0.096808 0)
(4.7608 0.0902717 0)
(4.73315 0.0806711 0)
(4.70325 0.0725506 0)
(4.67489 0.0659186 0)
(4.64871 0.0600363 0)
(4.62391 0.0548135 0)
(4.6003 0.0503097 0)
(4.5781 0.0464515 0)
(4.55741 0.0431076 0)
(4.53818 0.0401705 0)
(4.52035 0.0375721 0)
(4.50385 0.0352346 0)
(4.48859 0.0331743 0)
(4.47484 0.0311744 0)
(4.46141 0.0295168 0)
(4.9736 0.195248 0)
(4.88122 0.129108 0)
(4.82305 0.114551 0)
(4.79435 0.101662 0)
(4.77168 0.0891009 0)
(4.74974 0.0798201 0)
(4.73034 0.0727404 0)
(4.7134 0.0666454 0)
(4.69787 0.061272 0)
(4.68333 0.0566221 0)
(4.66979 0.0526079 0)
(4.65726 0.0490984 0)
(4.64566 0.0459884 0)
(4.63492 0.043207 0)
(4.625 0.0406843 0)
(4.61583 0.038385 0)
(4.60763 0.0361834 0)
(4.5994 0.0340493 0)
(4.98217 0.218657 0)
(4.90832 0.150127 0)
(4.85343 0.126864 0)
(4.82376 0.110009 0)
(4.80228 0.09591 0)
(4.78333 0.0857283 0)
(4.76762 0.0780197 0)
(4.7548 0.0715008 0)
(4.74373 0.0658276 0)
(4.73384 0.0609372 0)
(4.72496 0.0567131 0)
(4.71702 0.053014 0)
(4.70987 0.0497294 0)
(4.70341 0.0467796 0)
(4.69758 0.0440937 0)
(4.69228 0.0416083 0)
(4.68769 0.0392431 0)
(4.68297 0.03688 0)
(4.98795 0.235238 0)
(4.93048 0.16691 0)
(4.88099 0.13819 0)
(4.85125 0.118653 0)
(4.83001 0.103014 0)
(4.81217 0.0915617 0)
(4.79793 0.0828831 0)
(4.78684 0.0756898 0)
(4.77783 0.0695327 0)
(4.77023 0.0642638 0)
(4.76377 0.0597263 0)
(4.75828 0.0557617 0)
(4.75359 0.0522475 0)
(4.74956 0.0490923 0)
(4.74609 0.0462187 0)
(4.74309 0.0435497 0)
(4.74063 0.0410221 0)
(4.73808 0.0385138 0)
(4.9919 0.24733 0)
(4.94824 0.181996 0)
(4.90536 0.149802 0)
(4.87672 0.127885 0)
(4.8559 0.110533 0)
(4.83872 0.0975865 0)
(4.82514 0.0877348 0)
(4.81479 0.0796877 0)
(4.8067 0.072893 0)
(4.8002 0.0671194 0)
(4.79496 0.0621685 0)
(4.79076 0.0578596 0)
(4.78739 0.0540543 0)
(4.78469 0.0506475 0)
(4.78255 0.0475526 0)
(4.78085 0.0446856 0)
(4.77962 0.0419863 0)
(4.77832 0.0393501 0)
(4.99462 0.25658 0)
(4.96211 0.195558 0)
(4.92618 0.161134 0)
(4.89973 0.137195 0)
(4.87992 0.118258 0)
(4.86358 0.103829 0)
(4.85055 0.0927333 0)
(4.84063 0.0837259 0)
(4.833 0.0761828 0)
(4.82706 0.0698046 0)
(4.82243 0.0643551 0)
(4.81889 0.059631 0)
(4.81622 0.0554764 0)
(4.81424 0.0517717 0)
(4.81282 0.0484204 0)
(4.81183 0.0453335 0)
(4.81128 0.0424484 0)
(4.81068 0.0396777 0)
(4.99646 0.263628 0)
(4.97262 0.207258 0)
(4.94338 0.17164 0)
(4.91992 0.146182 0)
(4.90175 0.125953 0)
(4.88665 0.110186 0)
(4.87441 0.0978712 0)
(4.86497 0.0878675 0)
(4.85773 0.0795166 0)
(4.85215 0.0724688 0)
(4.8479 0.0664587 0)
(4.84473 0.0612638 0)
(4.84244 0.0567115 0)
(4.84084 0.052669 0)
(4.83981 0.0490295 0)
(4.8392 0.0457002 0)
(4.83901 0.0426134 0)
(4.83879 0.0396939 0)
(4.99767 0.268905 0)
(4.9804 0.217033 0)
(4.95721 0.181074 0)
(4.93713 0.154577 0)
(4.92108 0.133353 0)
(4.90761 0.116451 0)
(4.89652 0.103017 0)
(4.88781 0.0920469 0)
(4.88109 0.082882 0)
(4.87593 0.0751408 0)
(4.87202 0.0685387 0)
(4.86915 0.0628398 0)
(4.86713 0.0578584 0)
(4.86578 0.05345 0)
(4.86498 0.0494994 0)
(4.86459 0.0459095 0)
(4.86459 0.0426075 0)
(4.86457 0.0395252 0)
(4.99839 0.272592 0)
(4.98561 0.224443 0)
(4.96721 0.188686 0)
(4.95029 0.161558 0)
(4.93641 0.139628 0)
(4.92469 0.121868 0)
(4.91492 0.107536 0)
(4.90715 0.0957523 0)
(4.90112 0.0858774 0)
(4.89649 0.0775164 0)
(4.893 0.0703753 0)
(4.89047 0.0642108 0)
(4.88871 0.0588288 0)
(4.88759 0.0540769 0)
(4.88697 0.0498336 0)
(4.88674 0.045998 0)
(4.88687 0.0424944 0)
(4.88697 0.0392526 0)
(4.99887 0.275388 0)
(4.98949 0.230559 0)
(4.97518 0.195339 0)
(4.96129 0.167796 0)
(4.94962 0.145296 0)
(4.93975 0.126824 0)
(4.93148 0.111713 0)
(4.92483 0.0991949 0)
(4.91967 0.088665 0)
(4.91572 0.0797232 0)
(4.91278 0.0720701 0)
(4.91067 0.0654584 0)
(4.90926 0.0596887 0)
(4.9084 0.0546025 0)
(4.908 0.0500734 0)
(4.90795 0.0459969 0)
(4.90822 0.0422952 0)
(4.90845 0.0388918 0)
(4.99923 0.27771 0)
(4.99273 0.236088 0)
(4.98229 0.201689 0)
(4.9716 0.173896 0)
(4.96241 0.150906 0)
(4.95467 0.131777 0)
(4.94821 0.11591 0)
(4.94302 0.102653 0)
(4.93902 0.0914523 0)
(4.93602 0.0819076 0)
(4.93386 0.0737167 0)
(4.93239 0.066631 0)
(4.93149 0.0604475 0)
(4.93105 0.055003 0)
(4.93099 0.0501664 0)
(4.93121 0.0458303 0)
(4.9317 0.0419125 0)
(4.93212 0.0383349 0)
(4.99952 0.279547 0)
(4.99536 0.240733 0)
(4.9884 0.207289 0)
(4.98096 0.17939 0)
(4.97447 0.155979 0)
(4.96909 0.136257 0)
(4.96469 0.119682 0)
(4.96124 0.105711 0)
(4.9587 0.0938491 0)
(4.95694 0.0837075 0)
(4.95581 0.0749821 0)
(4.95521 0.067424 0)
(4.95503 0.0608279 0)
(4.95521 0.0550264 0)
(4.95565 0.0498841 0)
(4.95629 0.0452903 0)
(4.95713 0.041158 0)
(4.95786 0.0374099 0)
(4.99973 0.280865 0)
(4.99746 0.244196 0)
(4.99359 0.211621 0)
(4.98936 0.183682 0)
(4.98573 0.159885 0)
(4.98291 0.139619 0)
(4.9808 0.122398 0)
(4.97936 0.107763 0)
(4.97854 0.0952791 0)
(4.97825 0.0845749 0)
(4.9784 0.0753484 0)
(4.9789 0.06735 0)
(4.97967 0.0603722 0)
(4.98065 0.054244 0)
(4.98178 0.0488256 0)
(4.98302 0.0440022 0)
(4.98436 0.0396817 0)
(4.98556 0.0357878 0)
(4.99991 0.281584 0)
(4.99922 0.246115 0)
(4.9981 0.214013 0)
(4.99706 0.185929 0)
(4.9965 0.161715 0)
(4.99648 0.14093 0)
(4.99692 0.123134 0)
(4.99775 0.107919 0)
(4.99893 0.0948943 0)
(5.00039 0.083708 0)
(5.00206 0.0740595 0)
(5.00388 0.0656972 0)
(5.0058 0.0584107 0)
(5.00778 0.0520252 0)
(5.00978 0.0463961 0)
(5.01178 0.0414042 0)
(5.01378 0.0369523 0)
(5.01557 0.0329645 0)
(5.00008 0.281516 0)
(5.00085 0.245912 0)
(5.00244 0.213487 0)
(5.00477 0.184897 0)
(5.00762 0.160127 0)
(5.01081 0.138806 0)
(5.01419 0.120509 0)
(5.01769 0.104838 0)
(5.02124 0.0914175 0)
(5.02479 0.0798983 0)
(5.02828 0.0699759 0)
(5.03169 0.0613923 0)
(5.035 0.0539322 0)
(5.03819 0.0474155 0)
(5.04126 0.0416928 0)
(5.04418 0.0366406 0)
(5.047 0.0321573 0)
(5.04954 0.0281672 0)
(5.00031 0.28022 0)
(5.00288 0.242315 0)
(5.00773 0.208104 0)
(5.01413 0.17826 0)
(5.02117 0.152655 0)
(5.0283 0.130786 0)
(5.03531 0.112141 0)
(5.04209 0.0962727 0)
(5.04858 0.0827642 0)
(5.0547 0.0712333 0)
(5.06045 0.0613503 0)
(5.06584 0.0528417 0)
(5.07087 0.0454816 0)
(5.07557 0.0390829 0)
(5.07996 0.0334909 0)
(5.08405 0.0285785 0)
(5.08789 0.024241 0)
(5.09136 0.0204039 0)
(5.00061 0.277667 0)
(5.00556 0.235159 0)
(5.01459 0.197602 0)
(5.02594 0.16576 0)
(5.03777 0.139099 0)
(5.04922 0.116737 0)
(5.06012 0.0979814 0)
(5.07038 0.0822731 0)
(5.07991 0.0690917 0)
(5.08867 0.0579722 0)
(5.0967 0.0485365 0)
(5.10407 0.0404849 0)
(5.11083 0.0335758 0)
(5.11703 0.0276116 0)
(5.12273 0.0224324 0)
(5.12797 0.017909 0)
(5.13282 0.013936 0)
(5.13719 0.0104406 0)
(5.00095 0.274074 0)
(5.00882 0.225409 0)
(5.02281 0.183999 0)
(5.03958 0.150407 0)
(5.05619 0.123147 0)
(5.07173 0.100751 0)
(5.08621 0.0823408 0)
(5.0996 0.0672317 0)
(5.11178 0.0547606 0)
(5.12279 0.044368 0)
(5.13273 0.0356361 0)
(5.14173 0.0282498 0)
(5.14989 0.0219586 0)
(5.15729 0.0165617 0)
(5.16403 0.0119 0)
(5.17018 0.00784768 0)
(5.17582 0.00430378 0)
(5.18088 0.0011992 0)
(5.00149 0.269085 0)
(5.01372 0.212416 0)
(5.03449 0.166914 0)
(5.05779 0.132101 0)
(5.07953 0.104746 0)
(5.09924 0.0827298 0)
(5.11733 0.0650808 0)
(5.13376 0.0509527 0)
(5.14843 0.0394967 0)
(5.16146 0.0300681 0)
(5.17307 0.0222324 0)
(5.18346 0.0156705 0)
(5.19277 0.0101289 0)
(5.20113 0.00540794 0)
(5.20867 0.00135459 0)
(5.21549 -0.00214969 0)
(5.22168 -0.00519903 0)
(5.22721 -0.0078576 0)
(5.00238 0.262162 0)
(5.0213 0.195497 0)
(5.05128 0.146377 0)
(5.08215 0.11132 0)
(5.10915 0.0844299 0)
(5.13298 0.0632374 0)
(5.15454 0.0468373 0)
(5.17373 0.0341126 0)
(5.19045 0.0239799 0)
(5.20504 0.0157452 0)
(5.21787 0.00899005 0)
(5.22919 0.00340188 0)
(5.23921 -0.00127116 0)
(5.2481 -0.00522044 0)
(5.25601 -0.00858731 0)
(5.26309 -0.0114793 0)
(5.26945 -0.0139807 0)
(5.27508 -0.0161494 0)
(5.00395 0.252444 0)
(5.03317 0.173605 0)
(5.07517 0.122469 0)
(5.11403 0.0887878 0)
(5.14578 0.0630564 0)
(5.17331 0.0431924 0)
(5.19785 0.0285602 0)
(5.21904 0.0176398 0)
(5.23701 0.00909799 0)
(5.25239 0.0022451 0)
(5.26571 -0.00329172 0)
(5.27729 -0.00780734 0)
(5.28737 -0.0115422 0)
(5.29618 -0.0146707 0)
(5.30391 -0.0173165 0)
(5.31073 -0.0195722 0)
(5.31678 -0.0215094 0)
(5.32206 -0.023178 0)
(5.00664 0.239245 0)
(5.05115 0.146008 0)
(5.10793 0.0952229 0)
(5.15397 0.0649256 0)
(5.189 0.0414411 0)
(5.2192 0.0236937 0)
(5.24571 0.0113539 0)
(5.2678 0.00250758 0)
(5.28595 -0.00430133 0)
(5.30118 -0.00968268 0)
(5.31413 -0.0139476 0)
(5.32517 -0.0173656 0)
(5.33458 -0.0201545 0)
(5.34262 -0.0224632 0)
(5.34952 -0.0243936 0)
(5.35546 -0.0260222 0)
(5.3606 -0.0274065 0)
(5.36496 -0.0285893 0)
(5.01051 0.222557 0)
(5.07591 0.115735 0)
(5.14966 0.0673051 0)
(5.20128 0.0405922 0)
(5.2376 0.0200588 0)
(5.26892 0.00549225 0)
(5.29595 -0.00396234 0)
(5.31761 -0.010568 0)
(5.33475 -0.0156174 0)
(5.34873 -0.0195266 0)
(5.36027 -0.0225319 0)
(5.36974 -0.0248732 0)
(5.37747 -0.0267375 0)
(5.38377 -0.0282445 0)
(5.38888 -0.0294746 0)
(5.39301 -0.0304892 0)
(5.39634 -0.031332 0)
(5.39893 -0.0320413 0)
(5.01612 0.196417 0)
(5.1084 0.0875797 0)
(5.19903 0.0463734 0)
(5.25414 0.0197328 0)
(5.29026 -0.000107049 0)
(5.32099 -0.0113857 0)
(5.34651 -0.0174533 0)
(5.36573 -0.021531 0)
(5.37996 -0.0246844 0)
(5.39079 -0.02705 0)
(5.39899 -0.028759 0)
(5.40496 -0.0300081 0)
(5.40908 -0.0309458 0)
(5.41174 -0.0316584 0)
(5.41323 -0.0322014 0)
(5.41378 -0.0326212 0)
(5.41358 -0.0329465 0)
(5.41277 -0.0332097 0)
(5.02989 0.134583 0)
(5.15986 0.0475696 0)
(5.25805 0.0412245 0)
(5.30881 0.0217004 0)
(5.34242 -0.00174668 0)
(5.37066 -0.0156684 0)
(5.39129 -0.0222277 0)
(5.40378 -0.0258337 0)
(5.41046 -0.028148 0)
(5.41337 -0.0295344 0)
(5.41348 -0.0302539 0)
(5.41133 -0.0305772 0)
(5.40744 -0.030683 0)
(5.40228 -0.0306633 0)
(5.39621 -0.0305704 0)
(5.38947 -0.0304474 0)
(5.38229 -0.0303239 0)
(5.37483 -0.0302281 0)
(5.08133 -0.0500381 0)
(5.26819 -0.199284 0)
(5.34721 -0.13793 0)
(5.36473 -0.0864892 0)
(5.37842 -0.0639052 0)
(5.39121 -0.0517922 0)
(5.39345 -0.0435529 0)
(5.38488 -0.0382644 0)
(5.37001 -0.0349608 0)
(5.35214 -0.0326495 0)
(5.33264 -0.0308143 0)
(5.3122 -0.0292747 0)
(5.29138 -0.0279559 0)
(5.2706 -0.026806 0)
(5.25013 -0.0257906 0)
(5.23013 -0.0249081 0)
(5.21074 -0.0241627 0)
(5.1921 -0.0237426 0)
(5.01586 0.723718 0)
(5.23568 0.467498 0)
(5.2847 0.234421 0)
(5.2073 0.103784 0)
(5.10615 0.0382148 0)
(5.01517 0.00867914 0)
(4.93333 -0.00336439 0)
(4.85847 -0.00798312 0)
(4.7912 -0.00965229 0)
(4.7314 -0.0101195 0)
(4.6779 -0.0100921 0)
(4.62947 -0.00988964 0)
(4.58534 -0.00965253 0)
(4.54495 -0.00943203 0)
(4.50785 -0.00924104 0)
(4.47361 -0.00909482 0)
(4.44174 -0.00899568 0)
(4.41204 -0.0091697 0)
(0.00267565 -0.00687669 -1.46616e-20)
(0.00949707 -0.010568 1.45995e-20)
(0.0153565 -0.00880753 0)
(0.018674 -0.00486228 0)
(0.0188939 -0.000637248 0)
(0.0163069 0.00286252 -1.38015e-20)
(0.011631 0.00533113 0)
(0.00540259 0.00692296 0)
(-0.00195224 0.00794679 0)
(-0.0101431 0.00866434 0)
(-0.0190176 0.00923067 1.29365e-20)
(-0.0284766 0.0097275 0)
(-0.0384638 0.0101913 0)
(-0.0489465 0.0106343 0)
(-0.0599014 0.0110585 0)
(-0.0713091 0.0114617 1.17464e-20)
(-0.0831515 0.0118415 0)
(-0.0954107 0.0121959 0)
(-0.108069 0.0125239 0)
(-0.121108 0.0128255 0)
(-0.13451 0.0131011 0)
(-0.148259 0.0133518 0)
(-0.162339 0.013579 0)
(-0.176734 0.0137843 1.00938e-20)
(-0.191429 0.0139695 -9.91203e-21)
(-0.206412 0.0141362 9.73583e-21)
(-0.22167 0.0142863 9.56517e-21)
(-0.237191 0.0144216 0)
(-0.252965 0.0145435 0)
(-0.268982 0.0146538 -9.08562e-21)
(-0.285232 0.0147537 -8.93629e-21)
(-0.301708 0.0148446 0)
(-0.318402 0.0149274 0)
(-0.335305 0.0150032 -8.51832e-21)
(-0.352412 0.0150727 0)
(-0.369714 0.0151365 0)
(-0.387206 0.0151951 8.14277e-21)
(-0.40488 0.0152486 0)
(-0.42273 0.0152972 7.91422e-21)
(-0.440747 0.0153411 1.56122e-20)
(-0.458924 0.0153802 0)
(-0.477253 0.0154146 0)
(-0.495723 0.0154444 0)
(-0.514325 0.0154699 0)
(-0.533047 0.0154918 0)
(-0.551878 0.015511 1.44726e-20)
(-0.570805 0.0155284 1.43072e-20)
(-0.589816 0.0155454 1.41484e-20)
(-0.6089 0.0155628 0)
(-0.628045 0.0155812 -1.38498e-20)
(-0.647242 0.0155997 0)
(-0.66648 0.0156152 1.35749e-20)
(-0.685742 0.0156209 1.34457e-20)
(-0.705008 0.0156064 0)
(-0.724244 0.0155617 0)
(-0.743407 0.0154881 0)
(-0.762455 0.0154167 1.29843e-20)
(-0.781362 0.0154166 0)
(-0.800144 0.0155776 0)
(-0.818848 0.0159583 0)
(-0.837514 0.0165702 0)
(-0.856255 0.0175009 0)
(-0.875193 0.0187223 0)
(-0.894044 0.0192495 0)
(-0.912084 0.018412 0)
(-0.929571 0.0202748 -1.22802e-20)
(-0.94818 0.0362619 0)
(-0.968145 0.0340706 0)
(-0.986676 0.0182049 1.36599e-20)
(-1.0028 0.019382 1.35225e-20)
(-1.01961 0.0161055 0)
(-1.03615 0.0169271 -1.32524e-20)
(-1.05174 0.0114988 1.27725e-20)
(-1.06876 0.0226724 0)
(-1.0863 0.0282985 -1.25219e-20)
(-1.10161 0.00574162 0)
(-1.11343 0.0107095 0)
(-1.12764 0.0290705 1.13257e-20)
(-1.14435 0.0335384 0)
(-1.16019 0.0304806 -1.20422e-20)
(-1.17395 0.0179604 0)
(-1.18346 0.00297766 1.16941e-20)
(-1.19057 0.00526118 1.15153e-20)
(-1.19902 0.0059383 1.13259e-20)
(-1.20743 0.00550618 2.22625e-20)
(-1.21526 0.00512509 -2.18619e-20)
(-1.22255 0.0046426 0)
(-1.22913 0.00410103 0)
(-1.23497 0.00351657 0)
(-1.23998 0.00289544 -2.01426e-20)
(-1.24414 0.00224388 -1.96831e-20)
(-1.24738 0.00157628 1.92116e-20)
(-1.24964 0.000920089 0)
(-1.25087 0.000308714 -1.82296e-20)
(-1.25118 -0.000231633 -1.77156e-20)
(-1.25071 -0.000713673 -1.71878e-20)
(-1.24945 -0.00117798 0)
(-1.24739 -0.00163397 0)
(-1.24454 -0.00208531 0)
(-1.24089 -0.00253278 -1.49336e-20)
(-1.23644 -0.00297635 0)
(-1.23119 -0.00341565 0)
(-1.22513 -0.00385017 1.30923e-20)
(-1.21827 -0.00427935 0)
(-1.2106 -0.00470265 0)
(-1.20213 -0.00511951 1.11239e-20)
(-1.19285 -0.00552936 0)
(-1.18277 -0.00593168 0)
(-1.1719 -0.00632595 -9.03363e-21)
(-1.16025 -0.00671166 -8.31112e-21)
(-1.14781 -0.00708833 0)
(-1.1346 -0.00745551 6.82959e-21)
(-1.12063 -0.00781278 0)
(-1.10592 -0.00815976 -5.30216e-21)
(-1.09046 -0.00849606 0)
(-1.07428 -0.00882135 -3.73256e-21)
(-1.05739 -0.00913531 -2.93322e-21)
(-1.03981 -0.00943764 0)
(-1.02154 -0.00972808 0)
(-1.00261 -0.0100064 0)
(-0.983041 -0.0102723 0)
(-0.962843 -0.0105257 0)
(-0.942039 -0.0107664 0)
(-0.920648 -0.0109943 0)
(-0.898692 -0.0112094 3.73322e-21)
(-0.87619 -0.0114115 -4.59087e-21)
(-0.853166 -0.0116007 0)
(-0.829641 -0.0117768 0)
(-0.805638 -0.01194 0)
(-0.781179 -0.0120903 0)
(-0.756289 -0.0122277 -1.78228e-20)
(-0.73099 -0.0123525 0)
(-0.705306 -0.0124646 2.12821e-20)
(-0.679261 -0.0125644 -2.30064e-20)
(-0.652878 -0.0126518 0)
(-0.626181 -0.0127273 0)
(-0.599193 -0.012791 0)
(-0.571938 -0.0128432 2.98352e-20)
(-0.544438 -0.0128841 3.15184e-20)
(-0.516716 -0.0129139 0)
(-0.488796 -0.0129331 3.48465e-20)
(-0.460698 -0.012942 3.6489e-20)
(-0.432444 -0.0129408 -3.81155e-20)
(-0.404055 -0.01293 0)
(-0.375553 -0.0129098 0)
(-0.346956 -0.0128808 -4.28879e-20)
(-0.318285 -0.0128431 0)
(-0.289557 -0.0127972 0)
(-0.260792 -0.0127435 0)
(-0.232006 -0.0126823 0)
(-0.203217 -0.0126146 5.04236e-20)
(-0.174439 -0.012542 5.18599e-20)
(-0.145681 -0.0124683 0)
(-0.116925 -0.0124046 5.46562e-20)
(-0.0881335 -0.0123942 0)
(-0.0593787 -0.0125257 0)
(-0.030347 -0.0120261 5.86459e-20)
(0.000857305 -0.0125096 0)
(0.0261121 -0.011477 6.05975e-20)
(0.0551579 -0.0113994 0)
(0.0823025 -0.010244 0)
(0.111302 -0.0105228 6.19638e-20)
(0.13794 -0.0116046 0)
(0.165357 -0.010321 6.25603e-20)
(0.193087 -0.00876494 0)
(0.220986 -0.0103604 0)
(0.247439 -0.00750427 0)
(0.277173 -0.00855014 -5.9499e-20)
(0.30262 -0.0119655 0)
(0.328908 -0.00811075 6.3883e-20)
(0.356148 -0.00923813 0)
(0.38131 -0.0110346 0)
(0.408449 -0.00943226 0)
(0.434099 -0.00370013 0)
(0.461865 -0.00759976 0)
(0.484665 -0.0120819 0)
(0.509712 -0.00519971 0)
(0.530884 0.000979859 -1.27872e-19)
(0.551159 -4.67624e-05 0)
(0.540849 0.00324747 0)
(0.00211636 -0.01839 4.35684e-20)
(0.00453909 -0.0188186 -4.20016e-20)
(0.0035614 -0.0106231 0)
(0.00065429 -0.00178154 2.51388e-20)
(-0.00377388 0.0062623 0)
(-0.00956658 0.0129698 1.1761e-20)
(-0.0166648 0.0182126 -2.29236e-20)
(-0.0249524 0.0221486 -2.24014e-20)
(-0.0342942 0.0250697 0)
(-0.0445366 0.027282 -2.14279e-20)
(-0.0555305 0.0290294 -1.04936e-20)
(-0.0671501 0.0304774 0)
(-0.0792971 0.0317288 0)
(-0.0918963 0.0328424 0)
(-0.10489 0.0338507 0)
(-0.118236 0.0347708 -9.42672e-21)
(-0.131897 0.0356126 0)
(-0.145848 0.0363823 1.80634e-20)
(-0.160064 0.0370844 0)
(-0.174526 0.0377234 0)
(-0.189217 0.0383033 -1.70178e-20)
(-0.204124 0.0388282 0)
(-0.219234 0.0393022 1.63795e-20)
(-0.234538 0.0397293 -8.0538e-21)
(-0.250025 0.0401132 7.90783e-21)
(-0.265688 0.0404576 -7.76697e-21)
(-0.281522 0.0407658 -7.63104e-21)
(-0.297519 0.0410407 0)
(-0.313676 0.041285 0)
(-0.329988 0.0415012 7.25124e-21)
(-0.34645 0.0416914 -7.10217e-21)
(-0.363061 0.0418573 0)
(-0.379815 0.0420004 0)
(-0.39671 0.0421218 6.80439e-21)
(-0.413742 0.0422223 0)
(-0.430908 0.0423026 0)
(-0.448204 0.0423629 -6.50896e-21)
(-0.465625 0.042403 0)
(-0.483167 0.0424226 6.29622e-21)
(-0.500825 0.0424209 -1.24876e-20)
(-0.518594 0.0423968 0)
(-0.536466 0.0423489 0)
(-0.554435 0.0422757 -2.39571e-20)
(-0.572494 0.0421756 -2.36627e-20)
(-0.590634 0.0420471 -2.33792e-20)
(-0.608847 0.0418896 1.15191e-20)
(-0.627125 0.0417033 -1.14568e-20)
(-0.645459 0.0414893 -3.39245e-20)
(-0.66384 0.0412494 2.23519e-20)
(-0.682261 0.0409855 1.10955e-20)
(-0.700712 0.0406978 0)
(-0.719183 0.0403828 -1.08796e-20)
(-0.737662 0.0400324 1.07076e-20)
(-0.756138 0.0396333 0)
(-0.774603 0.0391724 0)
(-0.793052 0.0386444 0)
(-0.811493 0.0380623 -1.04342e-20)
(-0.829933 0.0374575 0)
(-0.848376 0.0368651 2.05373e-20)
(-0.866813 0.0362986 0)
(-0.885222 0.0357352 2.03606e-20)
(-0.903504 0.0351321 0)
(-0.921528 0.0344259 -2.02669e-20)
(-0.939365 0.0334078 0)
(-0.957423 0.0317717 2.02337e-20)
(-0.975465 0.0296615 -1.00387e-20)
(-0.991701 0.028145 0)
(-1.00711 0.02767 -2.10103e-20)
(-1.02326 0.0278241 -1.0622e-20)
(-1.03974 0.027819 -1.0551e-20)
(-1.05499 0.0271452 0)
(-1.06937 0.0264797 -1.03351e-20)
(-1.08419 0.025729 -1.02357e-20)
(-1.09663 0.0237113 0)
(-1.10723 0.0223302 1.00605e-20)
(-1.11943 0.0218001 -1.98417e-20)
(-1.13253 0.0199275 0)
(-1.14238 0.0171678 -9.49331e-21)
(-1.14986 0.0149866 0)
(-1.15707 0.0147093 2.82923e-20)
(-1.16424 0.0142932 0)
(-1.17241 0.0136828 -2.75308e-20)
(-1.18097 0.013346 -9.03034e-21)
(-1.18779 0.0128224 8.84677e-21)
(-1.19348 0.0119542 1.73855e-20)
(-1.19842 0.010901 -1.70672e-20)
(-1.20264 0.00974974 0)
(-1.20616 0.0085344 0)
(-1.20897 0.0072769 0)
(-1.21111 0.00598818 4.70819e-20)
(-1.21258 0.00467486 1.53167e-20)
(-1.2134 0.00334857 -1.49333e-20)
(-1.21364 0.00203467 0)
(-1.21334 0.00076449 -1.41721e-20)
(-1.21242 -0.000445519 1.37135e-20)
(-1.21076 -0.00160801 1.32861e-20)
(-1.20835 -0.00274769 0)
(-1.20517 -0.00387173 0)
(-1.2012 -0.00498319 0)
(-1.19646 -0.00608217 1.14775e-20)
(-1.19092 -0.00716783 0)
(-1.18458 -0.00823886 -2.11399e-20)
(-1.17745 -0.00929383 -3.01752e-20)
(-1.16953 -0.0103313 1.91551e-20)
(-1.1608 -0.0113497 0)
(-1.15129 -0.0123477 8.6216e-21)
(-1.14097 -0.0133239 0)
(-1.12987 -0.014277 1.49664e-20)
(-1.11799 -0.0152057 -7.02439e-21)
(-1.10532 -0.0161089 -6.47532e-21)
(-1.09189 -0.0169853 0)
(-1.0777 -0.017834 -1.56687e-20)
(-1.06275 -0.0186539 9.36049e-21)
(-1.04707 -0.0194443 3.9923e-21)
(-1.03065 -0.0202043 0)
(-1.01353 -0.0209332 2.80238e-21)
(-0.995694 -0.0216304 6.82962e-21)
(-0.977177 -0.0222954 0)
(-0.957989 -0.0229277 2.20089e-21)
(-0.938147 -0.0235268 9.72919e-22)
(-0.917669 -0.0240925 -2.62628e-22)
(-0.896574 -0.0246244 0)
(-0.87488 -0.0251225 0)
(-0.852607 -0.0255866 0)
(-0.829776 -0.026017 2.49347e-21)
(-0.806408 -0.0264136 3.40003e-21)
(-0.782525 -0.0267767 0)
(-0.758148 -0.0271064 9.04428e-21)
(-0.7333 -0.027403 1.03061e-20)
(-0.708003 -0.0276669 0)
(-0.682282 -0.0278987 1.31188e-20)
(-0.656159 -0.0280989 2.81613e-20)
(-0.629657 -0.028268 -1.56291e-20)
(-0.602801 -0.0284068 -1.62798e-20)
(-0.575613 -0.0285159 0)
(-0.548117 -0.0285961 0)
(-0.520336 -0.0286483 0)
(-0.492294 -0.0286734 -2.17952e-20)
(-0.464013 -0.0286721 2.24017e-20)
(-0.435516 -0.0286456 4.77986e-20)
(-0.406825 -0.0285947 -2.53845e-20)
(-0.377963 -0.0285206 2.59615e-20)
(-0.34895 -0.0284242 2.77182e-20)
(-0.319807 -0.0283066 0)
(-0.290555 -0.0281689 0)
(-0.261213 -0.0280121 -3.05326e-20)
(-0.231801 -0.0278373 0)
(-0.202337 -0.0276455 0)
(-0.172839 -0.0274377 6.81817e-20)
(-0.143324 -0.0272152 0)
(-0.113808 -0.0269794 3.59066e-20)
(-0.0843075 -0.0267333 -3.74826e-20)
(-0.054834 -0.0264823 0)
(-0.0253961 -0.0262397 3.89237e-20)
(0.0039799 -0.0260384 0)
(0.0331563 -0.0259482 0)
(0.0622958 -0.0257572 -4.14577e-20)
(0.0900919 -0.0247341 8.38038e-20)
(0.119905 -0.0244021 -4.27652e-20)
(0.148855 -0.0241685 0)
(0.177556 -0.0239225 0)
(0.205614 -0.023327 4.39365e-20)
(0.23416 -0.0229512 0)
(0.26261 -0.0228384 4.4733e-20)
(0.290808 -0.0226248 0)
(0.318371 -0.0223464 0)
(0.346673 -0.0224726 0)
(0.372649 -0.0213674 4.43195e-20)
(0.401161 -0.0206742 0)
(0.42939 -0.0206936 -4.72423e-20)
(0.45649 -0.0201915 0)
(0.484478 -0.0197901 0)
(0.511509 -0.019971 9.56532e-20)
(0.53876 -0.0202579 -9.59547e-20)
(0.563577 -0.0185596 0)
(0.59098 -0.0174639 0)
(0.61557 -0.0171713 0)
(0.637579 -0.0154364 2.93129e-19)
(0.657083 -0.00861105 0)
(0.666819 0.00517702 -1.97594e-19)
(0.00015203 -0.0201027 -4.44611e-23)
(-0.00327462 -0.0125617 5.40155e-20)
(-0.00877002 -0.000563886 0)
(-0.0150997 0.0104406 -4.51638e-20)
(-0.0222567 0.0201312 0)
(-0.0300925 0.0284163 0)
(-0.0385927 0.0352906 1.3143e-23)
(-0.0477882 0.0408496 1.9229e-20)
(-0.0576854 0.0452777 1.87359e-20)
(-0.0682476 0.0487993 1.83084e-20)
(-0.0794082 0.0516304 0)
(-0.0910898 0.0539499 0)
(-0.103217 0.0558919 -1.71032e-20)
(-0.115725 0.0575506 -3.34753e-20)
(-0.128558 0.0589897 3.27718e-20)
(-0.141673 0.0602515 0)
(-0.155035 0.0613653 3.14428e-20)
(-0.168617 0.0623516 -1.54213e-20)
(-0.182396 0.0632262 0)
(-0.196358 0.0640016 2.9628e-20)
(-0.210487 0.0646886 1.45471e-20)
(-0.224774 0.0652965 -2.85254e-20)
(-0.23921 0.0658336 -1.40158e-20)
(-0.253789 0.0663075 0)
(-0.268505 0.0667248 2.70148e-20)
(-0.283355 0.0670914 2.65464e-20)
(-0.298336 0.0674124 0)
(-0.313444 0.0676926 2.56582e-20)
(-0.328679 0.0679356 0)
(-0.344037 0.0681447 2.48306e-20)
(-0.359518 0.0683227 1.22348e-20)
(-0.37512 0.0684717 0)
(-0.390841 0.0685931 0)
(-0.40668 0.0686883 0)
(-0.422633 0.0687577 0)
(-0.4387 0.0688016 0)
(-0.454877 0.0688197 0)
(-0.47116 0.0688116 2.20447e-20)
(-0.487546 0.0687762 -3.26401e-20)
(-0.50403 0.0687122 0)
(-0.520608 0.068618 0)
(-0.537273 0.068492 0)
(-0.554021 0.0683322 3.6827e-23)
(-0.570843 0.0681372 2.04531e-20)
(-0.587733 0.0679058 4.03935e-20)
(-0.604685 0.0676377 -3.9936e-20)
(-0.621689 0.0673333 -1.97296e-20)
(-0.638737 0.0669938 1.95559e-20)
(-0.65582 0.0666203 -3.68985e-23)
(-0.672927 0.0662135 1.91233e-20)
(-0.690047 0.0657719 0)
(-0.707167 0.0652909 1.87622e-20)
(-0.724275 0.0647635 -3.52874e-23)
(-0.741357 0.064182 0)
(-0.758406 0.0635436 0)
(-0.775413 0.0628565 -1.81478e-20)
(-0.792371 0.0621433 0)
(-0.809263 0.0614351 0)
(-0.826055 0.0607549 1.77713e-20)
(-0.842699 0.0600987 3.54229e-20)
(-0.859149 0.0594327 -1.76606e-20)
(-0.875341 0.0587021 0)
(-0.891187 0.0578107 1.75273e-20)
(-0.906709 0.0566255 0)
(-0.922111 0.0551974 1.73562e-20)
(-0.937357 0.0540216 1.73023e-20)
(-0.951731 0.0532489 -3.44666e-20)
(-0.965205 0.0517725 -1.72444e-20)
(-0.978682 0.0496528 0)
(-0.992041 0.0478359 3.40193e-20)
(-1.00498 0.0460761 0)
(-1.01734 0.0443469 5.0212e-20)
(-1.02914 0.0424873 3.3125e-20)
(-1.04028 0.0408458 3.27159e-20)
(-1.05038 0.0388173 -3.23947e-20)
(-1.06038 0.036022 4.80486e-20)
(-1.07049 0.033971 0)
(-1.07953 0.0325836 0)
(-1.08713 0.0307982 -3.06604e-20)
(-1.09388 0.0282945 -4.53346e-20)
(-1.10065 0.0250328 0)
(-1.10791 0.0221101 1.46786e-20)
(-1.11484 0.0202392 0)
(-1.12075 0.018499 -4.24377e-20)
(-1.12582 0.0166786 -1.81448e-23)
(-1.1302 0.0148174 1.18807e-23)
(-1.13392 0.0129185 2.66547e-20)
(-1.13699 0.0109933 0)
(-1.13941 0.00905345 -2.55042e-20)
(-1.1412 0.0071099 1.24857e-23)
(-1.14236 0.00517398 0)
(-1.14287 0.00325802 0)
(-1.14275 0.00137237 0)
(-1.14197 -0.00048054 2.23366e-20)
(-1.14049 -0.00231433 0)
(-1.13828 -0.00413871 0)
(-1.13534 -0.00594996 0)
(-1.13165 -0.00774588 0)
(-1.12721 -0.00952427 0)
(-1.122 -0.0112828 1.81367e-20)
(-1.11603 -0.0130191 0)
(-1.10929 -0.0147306 1.65226e-20)
(-1.10177 -0.0164149 1.57353e-20)
(-1.09349 -0.0180694 -1.49352e-20)
(-1.08442 -0.0196919 0)
(-1.07459 -0.02128 -1.32978e-20)
(-1.06399 -0.0228315 0)
(-1.05262 -0.0243444 -1.16134e-20)
(-1.04049 -0.0258167 1.07547e-20)
(-1.02761 -0.0272464 2.99429e-20)
(-1.01398 -0.0286317 0)
(-0.999605 -0.029971 2.46635e-20)
(-0.984503 -0.0312628 7.54126e-21)
(-0.968682 -0.0325058 0)
(-0.952154 -0.0336987 1.11461e-20)
(-0.93493 -0.0348404 9.31592e-21)
(-0.917024 -0.03593 -1.10283e-20)
(-0.89845 -0.0369667 0)
(-0.879225 -0.0379498 -1.68625e-21)
(-0.859363 -0.0388787 -7.44597e-22)
(-0.838883 -0.0397528 2.06606e-22)
(-0.817802 -0.0405719 0)
(-0.796138 -0.0413358 0)
(-0.773912 -0.0420444 0)
(-0.751142 -0.0426981 3.58256e-21)
(-0.72785 -0.0432969 0)
(-0.704056 -0.0438413 0)
(-0.679781 -0.0443317 -6.86417e-21)
(-0.655049 -0.0447686 -7.81416e-21)
(-0.629879 -0.0451527 0)
(-0.604297 -0.0454848 0)
(-0.578322 -0.0457661 -2.12918e-20)
(-0.55198 -0.0459974 0)
(-0.525292 -0.04618 2.50235e-20)
(-0.498281 -0.046315 2.64138e-20)
(-0.470971 -0.0464037 0)
(-0.443383 -0.0464477 0)
(-0.415542 -0.0464484 -3.18756e-20)
(-0.387467 -0.0464073 -4.59663e-22)
(-0.359183 -0.046326 -4.58929e-22)
(-0.330711 -0.0462062 0)
(-0.302071 -0.0460496 -7.83133e-20)
(-0.273285 -0.045858 0)
(-0.244373 -0.045633 0)
(-0.215355 -0.0453766 0)
(-0.18625 -0.0450904 4.61079e-20)
(-0.157076 -0.0447761 0)
(-0.127852 -0.0444356 -9.77814e-20)
(-0.0985946 -0.0440705 -5.09048e-20)
(-0.0693207 -0.0436826 0)
(-0.040046 -0.0432741 -5.39755e-20)
(-0.0107854 -0.0428488 0)
(0.0184462 -0.0424126 0)
(0.0476328 -0.0419758 -1.7227e-19)
(0.0767413 -0.0415547 1.1655e-19)
(0.105675 -0.0411536 0)
(0.134551 -0.0405504 1.20307e-19)
(0.162995 -0.0398659 -6.1558e-20)
(0.192175 -0.0393724 0)
(0.220915 -0.038808 0)
(0.249561 -0.0381805 0)
(0.277961 -0.0376173 -1.95187e-19)
(0.306378 -0.0372804 0)
(0.334632 -0.0367816 -6.68216e-20)
(0.362881 -0.0362116 0)
(0.390767 -0.0358832 0)
(0.418826 -0.0354296 0)
(0.446276 -0.0347548 0)
(0.474178 -0.034406 0)
(0.50205 -0.0337594 0)
(0.52964 -0.0332905 -1.41794e-19)
(0.557248 -0.0330142 0)
(0.584299 -0.0325075 -7.22315e-20)
(0.611513 -0.0316289 2.17558e-19)
(0.637985 -0.0306641 0)
(0.664276 -0.0297194 0)
(0.689177 -0.0275644 -1.47616e-19)
(0.712641 -0.0237816 -1.49012e-19)
(0.73561 -0.0168655 1.48282e-19)
(0.751843 -0.00352862 1.51387e-19)
(-0.00214121 -0.0126389 -8.57514e-20)
(-0.00931548 0.00127072 -7.85625e-20)
(-0.0173512 0.0151362 -4.61465e-20)
(-0.0258083 0.0270612 -2.08773e-20)
(-0.034697 0.0374775 0)
(-0.043842 0.0465092 3.70202e-20)
(-0.0532578 0.0542165 -1.77821e-20)
(-0.0630155 0.0606797 0)
(-0.0731686 0.066024 -1.67507e-20)
(-0.0837367 0.0704094 0)
(-0.0947099 0.0740054 3.18703e-20)
(-0.106058 0.0769699 0)
(-0.117742 0.0794362 1.52345e-20)
(-0.12972 0.08151 2.98148e-20)
(-0.141953 0.0832712 -2.91888e-20)
(-0.154408 0.0847797 0)
(-0.167057 0.0860798 -2.80121e-20)
(-0.179878 0.0872053 0)
(-0.192853 0.088182 0)
(-0.205968 0.089031 -2.64135e-20)
(-0.219214 0.0897692 0)
(-0.232582 0.0904112 4.54138e-24)
(-0.246067 0.090969 0)
(-0.259664 0.0914532 0)
(-0.273371 0.0918728 -5.05509e-24)
(-0.287186 0.0922353 -2.37114e-20)
(-0.301107 0.0925472 -2.33099e-20)
(-0.315133 0.092814 -2.29338e-20)
(-0.329265 0.09304 0)
(-0.3435 0.0932288 -4.44117e-20)
(-0.357839 0.0933831 0)
(-0.372281 0.093505 -2.15261e-20)
(-0.386826 0.0935957 0)
(-0.401472 0.0936561 0)
(-0.416218 0.0936861 2.05959e-20)
(-0.431061 0.0936855 0)
(-0.446 0.0936533 -2.00276e-20)
(-0.461031 0.0935884 -1.08013e-23)
(-0.476151 0.0934889 3.90066e-20)
(-0.491356 0.0933529 -3.8493e-20)
(-0.50664 0.0931781 0)
(-0.521999 0.0929621 0)
(-0.537427 0.0927025 -1.85325e-20)
(-0.552917 0.0923973 0)
(-0.568463 0.0920447 -1.81316e-20)
(-0.584055 0.0916438 1.79308e-20)
(-0.599686 0.0911941 1.77378e-20)
(-0.615347 0.0906956 0)
(-0.631026 0.0901484 -1.73746e-20)
(-0.646711 0.0895514 -1.7204e-20)
(-0.662389 0.088902 3.40563e-20)
(-0.678045 0.0881953 -1.68843e-20)
(-0.693666 0.087425 -1.67347e-20)