/*--------------------------------*- C++ -*----------------------------------*\
  =========                 |
  \\      /  F ield         | OpenFOAM: The Open Source CFD Toolbox
   \\    /   O peration     | Website:  https://openfoam.org
    \\  /    A nd           | Version:  7
     \\/     M anipulation  |
\*---------------------------------------------------------------------------*/
FoamFile
{
    version     2.0;
    format      ascii;
    class       surfaceScalarField;
    location    "0.071";
    object      phi;
}
// * * * * * * * * * * * * * * * * * * * * * * * * * * * * * * * * * * * * * //

dimensions      [0 3 -1 0 0 0 0];

internalField   nonuniform List<scalar> 
24170
(
1.38408e-06
1.88336e-07
1.23846e-06
1.45624e-07
1.10186e-06
1.36593e-07
9.94808e-07
1.07055e-07
8.98907e-07
9.59014e-08
8.01171e-07
9.77361e-08
7.03635e-07
9.75354e-08
6.16086e-07
8.75493e-08
5.43973e-07
7.21132e-08
4.85603e-07
5.83695e-08
4.36246e-07
4.93569e-08
3.92356e-07
4.38904e-08
3.52745e-07
3.96108e-08
3.16974e-07
3.57716e-08
2.84164e-07
3.28101e-08
2.54017e-07
3.01469e-08
2.21406e-07
3.26107e-08
2.6817e-08
1.94589e-07
1.65281e-06
2.43945e-07
1.61106e-06
1.87374e-07
1.57965e-06
1.68005e-07
1.55652e-06
1.3019e-07
1.53732e-06
1.15101e-07
1.51122e-06
1.23832e-07
1.474e-06
1.34758e-07
1.42892e-06
1.3263e-07
1.3807e-06
1.2033e-07
1.33285e-06
1.06223e-07
1.28778e-06
9.44224e-08
1.24761e-06
8.40648e-08
1.21158e-06
7.56395e-08
1.1779e-06
6.94477e-08
1.14244e-06
6.82742e-08
1.10268e-06
6.99065e-08
1.05936e-06
7.59341e-08
7.58733e-08
1.0103e-06
1.77313e-06
2.49347e-07
1.76384e-06
1.96669e-07
1.75407e-06
1.77768e-07
1.73872e-06
1.45538e-07
1.73196e-06
1.21865e-07
1.73499e-06
1.20806e-07
1.73826e-06
1.31483e-07
1.73297e-06
1.37926e-07
1.7167e-06
1.36598e-07
1.69309e-06
1.2983e-07
1.66821e-06
1.19299e-07
1.64717e-06
1.05105e-07
1.63165e-06
9.11667e-08
1.6207e-06
8.03966e-08
1.61228e-06
7.66893e-08
1.60293e-06
7.92539e-08
1.59164e-06
8.72243e-08
9.52331e-08
1.57228e-06
1.89647e-06
3.52159e-07
1.87943e-06
2.13714e-07
1.88278e-06
1.74413e-07
1.8764e-06
1.51927e-07
1.87138e-06
1.26881e-07
1.87184e-06
1.20341e-07
1.87301e-06
1.30314e-07
1.87007e-06
1.40868e-07
1.86313e-06
1.4354e-07
1.8556e-06
1.3736e-07
1.85035e-06
1.24553e-07
1.84765e-06
1.07802e-07
1.84648e-06
9.23336e-08
1.84556e-06
8.13187e-08
1.84502e-06
7.7231e-08
1.84471e-06
7.95604e-08
1.84531e-06
8.66213e-08
9.63759e-08
1.84417e-06
2.04656e-06
3.85983e-07
2.03551e-06
2.24758e-07
2.02525e-06
1.84681e-07
2.01709e-06
1.60086e-07
2.01281e-06
1.31157e-07
2.01111e-06
1.2204e-07
2.01068e-06
1.30746e-07
2.01091e-06
1.40643e-07
2.01234e-06
1.42111e-07
2.01561e-06
1.34085e-07
2.02054e-06
1.19626e-07
2.02578e-06
1.02562e-07
2.03048e-06
8.76298e-08
2.034e-06
7.78028e-08
2.03681e-06
7.44221e-08
2.03926e-06
7.71024e-08
2.04208e-06
8.38033e-08
9.34542e-08
2.045e-06
2.20593e-06
3.77926e-07
2.20023e-06
2.30458e-07
2.18606e-06
1.98854e-07
2.17086e-06
1.75282e-07
2.1592e-06
1.42818e-07
2.15636e-06
1.24881e-07
2.16221e-06
1.24892e-07
2.1719e-06
1.30958e-07
2.1807e-06
1.33309e-07
2.18635e-06
1.28438e-07
2.18903e-06
1.1695e-07
2.19e-06
1.01588e-07
2.19124e-06
8.63943e-08
2.19391e-06
7.5125e-08
2.19861e-06
6.97289e-08
2.20498e-06
7.07324e-08
2.21235e-06
7.64287e-08
8.56618e-08
2.22014e-06
2.41078e-06
3.85591e-07
2.39221e-06
2.4903e-07
2.37383e-06
2.17238e-07
2.36279e-06
1.86322e-07
2.3533e-06
1.52306e-07
2.34412e-06
1.34063e-07
2.33691e-06
1.32096e-07
2.33298e-06
1.34889e-07
2.33292e-06
1.33376e-07
2.3367e-06
1.24658e-07
2.34361e-06
1.10036e-07
2.35213e-06
9.30728e-08
2.36094e-06
7.75809e-08
2.36908e-06
6.698e-08
2.37625e-06
6.25644e-08
2.38245e-06
6.45345e-08
2.38799e-06
7.08802e-08
8.02022e-08
2.39345e-06
2.59111e-06
4.23776e-07
2.55584e-06
2.84299e-07
2.54679e-06
2.26285e-07
2.55029e-06
1.8282e-07
2.55027e-06
1.52329e-07
2.54013e-06
1.44203e-07
2.52625e-06
1.4598e-07
2.51857e-06
1.42568e-07
2.52167e-06
1.30276e-07
2.53291e-06
1.13419e-07
2.54595e-06
9.69891e-08
2.55538e-06
8.36481e-08
2.55936e-06
7.35984e-08
2.55937e-06
6.69709e-08
2.55834e-06
6.359e-08
2.55874e-06
6.41427e-08
2.56216e-06
6.74565e-08
7.34527e-08
2.56891e-06
2.79766e-06
3.71407e-07
2.78533e-06
2.96625e-07
2.77726e-06
2.34357e-07
2.76248e-06
1.97603e-07
2.74112e-06
1.7369e-07
2.72585e-06
1.59467e-07
2.72422e-06
1.47614e-07
2.73259e-06
1.34199e-07
2.74237e-06
1.20491e-07
2.74732e-06
1.08472e-07
2.74602e-06
9.82897e-08
2.74072e-06
8.89411e-08
2.73484e-06
7.94835e-08
2.73093e-06
7.08846e-08
2.73052e-06
6.39946e-08
2.73398e-06
6.06793e-08
2.74165e-06
5.97881e-08
6.18716e-08
2.75323e-06
2.97555e-06
3.83293e-07
2.96548e-06
3.06693e-07
2.94368e-06
2.56154e-07
2.91634e-06
2.24947e-07
2.90253e-06
1.87502e-07
2.91054e-06
1.5146e-07
2.93302e-06
1.25132e-07
2.95655e-06
1.10668e-07
2.97164e-06
1.05401e-07
2.97599e-06
1.04123e-07
2.97225e-06
1.02032e-07
2.96435e-06
9.6841e-08
2.95533e-06
8.84986e-08
2.9469e-06
7.93138e-08
2.94037e-06
7.05302e-08
2.937e-06
6.40456e-08
2.93831e-06
5.84808e-08
5.45331e-08
2.94565e-06
3.19304e-06
3.9317e-07
3.19031e-06
3.09422e-07
3.18241e-06
2.64054e-07
3.18287e-06
2.24483e-07
3.19138e-06
1.78993e-07
3.20361e-06
1.39233e-07
3.21476e-06
1.13984e-07
3.22073e-06
1.04692e-07
3.22036e-06
1.0577e-07
3.21525e-06
1.09236e-07
3.20785e-06
1.09433e-07
3.20006e-06
1.04629e-07
3.19289e-06
9.5668e-08
3.18702e-06
8.51896e-08
3.18309e-06
7.44603e-08
3.18236e-06
6.47664e-08
3.18564e-06
5.52034e-08
4.61869e-08
3.19399e-06
2.90302e-06
4.26306e-07
2.86736e-06
3.45088e-07
2.84837e-06
2.83044e-07
2.85163e-06
2.21223e-07
2.86617e-06
1.64452e-07
2.87775e-06
1.27654e-07
2.87911e-06
1.12625e-07
2.87186e-06
1.11937e-07
2.86237e-06
1.15266e-07
2.85604e-06
1.15566e-07
2.85501e-06
1.1046e-07
2.85868e-06
1.00963e-07
2.86528e-06
8.90592e-08
2.87334e-06
7.71341e-08
2.88198e-06
6.58188e-08
2.89114e-06
5.56068e-08
2.90094e-06
4.54006e-08
3.53932e-08
2.91174e-06
3.53784e-06
5.4752e-07
3.47101e-06
4.11926e-07
3.45495e-06
2.99103e-07
3.46543e-06
2.10744e-07
3.48185e-06
1.4803e-07
3.49229e-06
1.17212e-07
3.49539e-06
1.09529e-07
3.4948e-06
1.12522e-07
3.49411e-06
1.15953e-07
3.49515e-06
1.14533e-07
3.49818e-06
1.07427e-07
3.50258e-06
9.65662e-08
3.50748e-06
8.41528e-08
3.51247e-06
7.21435e-08
3.51757e-06
6.07196e-08
3.52322e-06
4.99585e-08
3.53009e-06
3.85318e-08
2.69474e-08
3.53854e-06
4.30528e-06
4.57972e-07
4.29432e-06
4.22881e-07
4.28406e-06
3.09367e-07
4.29076e-06
2.04048e-07
4.29905e-06
1.39735e-07
4.29831e-06
1.17947e-07
4.28872e-06
1.1912e-07
4.27781e-06
1.23431e-07
4.27248e-06
1.21286e-07
4.27383e-06
1.13183e-07
4.27837e-06
1.02888e-07
4.28232e-06
9.26154e-08
4.2842e-06
8.2273e-08
4.28536e-06
7.09811e-08
4.28827e-06
5.781e-08
4.29511e-06
4.31241e-08
4.30646e-06
2.71823e-08
1.20244e-08
4.32138e-06
5.18338e-06
5.20882e-07
5.20147e-06
4.04794e-07
5.19039e-06
3.20451e-07
5.1637e-06
2.30733e-07
5.15088e-06
1.52553e-07
5.15309e-06
1.1574e-07
5.16237e-06
1.09836e-07
5.17471e-06
1.11095e-07
5.18975e-06
1.06244e-07
5.20636e-06
9.65731e-08
5.22202e-06
8.72324e-08
5.23481e-06
7.9819e-08
5.24483e-06
7.22555e-08
5.25378e-06
6.20355e-08
5.2634e-06
4.81856e-08
5.27459e-06
3.19392e-08
5.28682e-06
1.49495e-08
-3.37103e-10
5.29918e-06
6.41183e-06
3.37218e-07
6.46614e-06
3.50484e-07
6.45748e-06
3.29112e-07
6.44184e-06
2.46372e-07
6.41725e-06
1.77147e-07
6.38757e-06
1.45419e-07
6.36406e-06
1.3335e-07
6.35673e-06
1.18425e-07
6.36691e-06
9.60592e-08
6.38855e-06
7.49359e-08
6.41362e-06
6.21655e-08
6.43627e-06
5.71635e-08
6.45404e-06
5.44905e-08
6.46697e-06
4.91035e-08
6.47627e-06
3.88809e-08
6.48328e-06
2.49301e-08
6.48892e-06
9.31662e-09
-5.67412e-09
6.49425e-06
7.75798e-06
4.05835e-07
7.79694e-06
3.11529e-07
7.85918e-06
2.66867e-07
7.87949e-06
2.26065e-07
7.86235e-06
1.94288e-07
7.83289e-06
1.74871e-07
7.81264e-06
1.53603e-07
7.8091e-06
1.21962e-07
7.81878e-06
8.63877e-08
7.83526e-06
5.84513e-08
7.8536e-06
4.38288e-08
7.87067e-06
4.0093e-08
7.88446e-06
4.07008e-08
7.89399e-06
3.95683e-08
7.89951e-06
3.33625e-08
7.90227e-06
2.21705e-08
7.9041e-06
7.48616e-09
-7.88554e-09
7.90631e-06
9.4359e-06
5.53088e-07
9.42198e-06
3.25454e-07
9.44775e-06
2.41097e-07
9.4546e-06
2.19213e-07
9.44871e-06
2.00182e-07
9.45303e-06
1.70545e-07
9.47301e-06
1.33626e-07
9.49597e-06
9.90028e-08
9.50903e-06
7.33265e-08
9.51056e-06
5.69208e-08
9.5082e-06
4.61901e-08
9.51068e-06
3.76101e-08
9.52225e-06
2.91301e-08
9.54163e-06
2.01866e-08
9.56452e-06
1.04798e-08
9.58661e-06
7.30173e-11
9.60447e-06
-1.03699e-08
-2.11564e-08
9.61774e-06
1.15598e-05
4.57044e-07
1.15096e-05
3.75648e-07
1.14896e-05
2.61081e-07
1.15065e-05
2.02275e-07
1.15309e-05
1.75782e-07
1.15526e-05
1.48883e-07
1.15705e-05
1.15744e-07
1.15868e-05
8.26745e-08
1.16049e-05
5.52053e-08
1.16276e-05
3.42348e-08
1.16556e-05
1.82504e-08
1.1687e-05
6.13627e-09
1.17199e-05
-3.74217e-09
1.17517e-05
-1.15822e-08
1.17806e-05
-1.83983e-08
1.18058e-05
-2.51495e-08
1.18281e-05
-3.26774e-08
-4.10637e-08
1.1848e-05
8.52983e-06
4.21851e-07
8.55982e-06
3.45665e-07
8.55663e-06
2.6427e-07
8.5554e-06
2.03504e-07
8.55937e-06
1.71807e-07
8.55798e-06
1.50273e-07
8.5526e-06
1.21132e-07
8.55161e-06
8.36645e-08
8.56044e-06
4.63687e-08
8.57867e-06
1.60115e-08
8.6004e-06
-3.4876e-09
8.62008e-06
-1.35366e-08
8.6356e-06
-1.92622e-08
8.64722e-06
-2.32018e-08
8.65644e-06
-2.7623e-08
8.66466e-06
-3.33638e-08
8.67227e-06
-4.02939e-08
-4.7843e-08
8.67905e-06
7.449e-06
5.38727e-07
7.44694e-06
3.47716e-07
7.48045e-06
2.30765e-07
7.51123e-06
1.72726e-07
7.53628e-06
1.46756e-07
7.55985e-06
1.26698e-07
7.58248e-06
9.85015e-08
7.60232e-06
6.38223e-08
7.61719e-06
3.15056e-08
7.62589e-06
7.31107e-09
7.63408e-06
-1.16793e-08
7.64476e-06
-2.42222e-08
7.65835e-06
-3.28506e-08
7.67379e-06
-3.86373e-08
7.68789e-06
-4.17281e-08
7.69738e-06
-4.28504e-08
7.69944e-06
-4.23522e-08
-4.1609e-08
7.6932e-06
6.40744e-06
3.87234e-07
6.48139e-06
2.7376e-07
6.53437e-06
1.77788e-07
6.57187e-06
1.35221e-07
6.59682e-06
1.21812e-07
6.61673e-06
1.06789e-07
6.63312e-06
8.21102e-08
6.64344e-06
5.34984e-08
6.64738e-06
2.75687e-08
6.64881e-06
5.87972e-09
6.64753e-06
-1.0397e-08
6.64922e-06
-2.59127e-08
6.65589e-06
-3.95201e-08
6.66698e-06
-4.97243e-08
6.6804e-06
-5.51475e-08
6.69334e-06
-5.57927e-08
6.70336e-06
-5.23783e-08
-4.6686e-08
6.70844e-06
5.63045e-06
3.12368e-07
5.61371e-06
2.90499e-07
5.60914e-06
1.82361e-07
5.63169e-06
1.1267e-07
5.67379e-06
7.97064e-08
5.72323e-06
5.73528e-08
5.76509e-06
4.02516e-08
5.79173e-06
2.68516e-08
5.80458e-06
1.4722e-08
5.80719e-06
3.27484e-09
5.80732e-06
-1.05266e-08
5.80565e-06
-2.42486e-08
5.8041e-06
-3.79686e-08
5.80417e-06
-4.97955e-08
5.80691e-06
-5.78825e-08
5.81273e-06
-6.16181e-08
5.82181e-06
-6.14548e-08
-5.83508e-08
5.83347e-06
4.84761e-06
4.2109e-07
4.90671e-06
2.31395e-07
4.95166e-06
1.37411e-07
4.97776e-06
8.65678e-08
4.9974e-06
6.0068e-08
5.01272e-06
4.20352e-08
5.02817e-06
2.48048e-08
5.04882e-06
6.19932e-09
5.07395e-06
-1.04035e-08
5.10186e-06
-2.46437e-08
5.12583e-06
-3.4497e-08
5.14172e-06
-4.01348e-08
5.147e-06
-4.32527e-08
5.14231e-06
-4.50982e-08
5.13076e-06
-4.63325e-08
5.11635e-06
-4.72116e-08
5.10263e-06
-4.77384e-08
-4.79153e-08
5.0922e-06
4.25775e-06
3.62003e-07
4.32165e-06
1.6749e-07
4.37075e-06
8.83103e-08
4.38896e-06
6.83622e-08
4.3871e-06
6.1928e-08
4.38317e-06
4.59603e-08
4.3859e-06
2.20818e-08
4.39348e-06
-1.38563e-09
4.40467e-06
-2.15914e-08
4.41653e-06
-3.65018e-08
4.43034e-06
-4.83062e-08
4.44691e-06
-5.67126e-08
4.46529e-06
-6.16329e-08
4.48312e-06
-6.29254e-08
4.49751e-06
-6.07195e-08
4.50638e-06
-5.60884e-08
4.50875e-06
-5.01038e-08
-4.48268e-08
4.50566e-06
3.70968e-06
3.77836e-07
3.75375e-06
1.23414e-07
3.79667e-06
4.53888e-08
3.825e-06
4.00408e-08
3.86089e-06
2.60294e-08
3.9031e-06
3.7498e-09
3.93723e-06
-1.204e-08
3.95767e-06
-2.1833e-08
3.96482e-06
-2.87349e-08
3.96412e-06
-3.5804e-08
3.96034e-06
-4.45221e-08
3.95669e-06
-5.3069e-08
3.95412e-06
-5.90643e-08
3.95228e-06
-6.10819e-08
3.95067e-06
-5.91097e-08
3.94901e-06
-5.44272e-08
3.94741e-06
-4.85041e-08
-4.36037e-08
3.94619e-06
3.30568e-06
1.98762e-07
3.33778e-06
9.13129e-08
3.34053e-06
4.26435e-08
3.36821e-06
1.23602e-08
3.41032e-06
-1.60829e-08
3.44237e-06
-2.83017e-08
3.45661e-06
-2.62831e-08
3.45908e-06
-2.43027e-08
3.4607e-06
-3.03501e-08
3.46693e-06
-4.2033e-08
3.47621e-06
-5.38005e-08
3.48456e-06
-6.14237e-08
3.48907e-06
-6.35685e-08
3.48928e-06
-6.12946e-08
3.48692e-06
-5.67513e-08
3.48444e-06
-5.19451e-08
3.48397e-06
-4.80381e-08
-4.60151e-08
3.48638e-06
2.8785e-06
1.59096e-07
2.9371e-06
3.27061e-08
2.967e-06
1.27471e-08
2.99806e-06
-1.87011e-08
3.02444e-06
-4.24632e-08
3.04235e-06
-4.62078e-08
3.05616e-06
-4.00986e-08
3.06972e-06
-3.78586e-08
3.08235e-06
-4.29768e-08
3.09109e-06
-5.07814e-08
3.09374e-06
-5.64435e-08
3.09076e-06
-5.84426e-08
3.08492e-06
-5.77346e-08
3.07966e-06
-5.60307e-08
3.07739e-06
-5.44793e-08
3.07895e-06
-5.35083e-08
3.08389e-06
-5.29831e-08
-5.27027e-08
3.09058e-06
2.54465e-06
4.99313e-08
2.59449e-06
-1.71305e-08
2.62634e-06
-1.91015e-08
2.64828e-06
-4.06448e-08
2.65755e-06
-5.17344e-08
2.66024e-06
-4.8902e-08
2.66471e-06
-4.45594e-08
2.67278e-06
-4.59324e-08
2.68053e-06
-5.07301e-08
2.68319e-06
-5.34352e-08
2.67844e-06
-5.1698e-08
2.66732e-06
-4.73199e-08
2.653e-06
-4.34132e-08
2.63879e-06
-4.18281e-08
2.62665e-06
-4.23395e-08
2.6168e-06
-4.36557e-08
2.60831e-06
-4.44924e-08
-4.42649e-08
2.59987e-06
2.13358e-06
2.11645e-06
2.09735e-06
2.05671e-06
2.00497e-06
1.95607e-06
1.91151e-06
1.86558e-06
1.81485e-06
1.76141e-06
1.70972e-06
1.6624e-06
1.61898e-06
1.57715e-06
1.53481e-06
1.49116e-06
1.44667e-06
1.4024e-06
-2.92587e-07
2.92587e-07
-5.69958e-07
2.77371e-07
-7.78098e-07
2.0814e-07
-9.04509e-07
1.26411e-07
-9.35386e-07
3.08768e-08
-8.84605e-07
-5.07806e-08
-7.65596e-07
-1.1901e-07
-5.84016e-07
-1.81579e-07
-3.45944e-07
-2.38072e-07
-5.9468e-08
-2.86476e-07
2.61613e-07
-3.21081e-07
6.04641e-07
-3.43027e-07
9.56484e-07
-3.51843e-07
1.30463e-06
-3.48147e-07
1.63837e-06
-3.33744e-07
1.9492e-06
-3.10826e-07
2.23101e-06
-2.81812e-07
2.47999e-06
-2.4898e-07
2.69397e-06
-2.13982e-07
2.87194e-06
-1.77966e-07
3.0135e-06
-1.4156e-07
3.11858e-06
-1.05081e-07
3.18698e-06
-6.84004e-08
3.21845e-06
-3.14699e-08
3.21318e-06
5.27377e-09
3.16885e-06
4.43245e-08
3.08519e-06
8.36581e-08
2.96063e-06
1.24566e-07
2.79486e-06
1.65764e-07
2.58531e-06
2.09552e-07
2.32997e-06
2.5534e-07
2.02877e-06
3.01206e-07
1.67429e-06
3.54477e-07
1.27651e-06
3.97779e-07
8.30506e-07
4.46004e-07
4.16138e-07
4.14368e-07
1.30388e-07
2.8575e-07
-5.52622e-08
1.8565e-07
-1.80242e-07
1.2498e-07
-2.56522e-07
7.62807e-08
-2.81066e-07
2.45434e-08
-2.62789e-07
-1.82769e-08
-2.09809e-07
-5.298e-08
-1.205e-07
-8.93093e-08
-2.67956e-09
-1.1782e-07
1.39044e-07
-1.41723e-07
3.0771e-07
-1.68667e-07
4.80777e-07
-1.73067e-07
6.18679e-07
-1.37902e-07
6.79728e-07
-6.10491e-08
6.56656e-07
2.30726e-08
6.7494e-07
-1.8284e-08
8.45183e-07
-1.70243e-07
1.05225e-06
-2.07065e-07
1.16047e-06
-1.08223e-07
1.12096e-06
3.95072e-08
8.61981e-07
2.58982e-07
3.71752e-07
4.90229e-07
-2.29601e-07
6.01353e-07
-8.53902e-07
6.24301e-07
-1.46396e-06
6.10055e-07
-2.03913e-06
5.75172e-07
-2.5701e-06
5.30972e-07
-3.05405e-06
4.83954e-07
-3.49189e-06
4.37834e-07
-3.88631e-06
3.94423e-07
-4.24066e-06
3.54353e-07
-4.5582e-06
3.1754e-07
-4.84172e-06
2.83518e-07
-5.09349e-06
2.5177e-07
-5.3154e-06
2.21904e-07
-5.50905e-06
1.93652e-07
-5.67578e-06
1.66728e-07
-5.81653e-06
1.40751e-07
-5.93179e-06
1.15267e-07
-6.02159e-06
8.9795e-08
-6.08543e-06
6.38395e-08
-6.12245e-06
3.70208e-08
-6.13171e-06
9.2553e-09
-6.11395e-06
-1.77566e-08
-6.06873e-06
-4.52223e-08
-5.99582e-06
-7.29058e-08
-5.89573e-06
-1.00093e-07
-5.7695e-06
-1.26227e-07
-5.61895e-06
-1.50552e-07
-5.44639e-06
-1.72563e-07
-5.2546e-06
-1.91783e-07
-5.04661e-06
-2.07993e-07
-4.82548e-06
-2.2113e-07
-4.59418e-06
-2.31295e-07
-4.35552e-06
-2.38663e-07
-4.11209e-06
-2.43433e-07
-3.86628e-06
-2.45804e-07
-3.62027e-06
-2.46015e-07
-3.37589e-06
-2.44382e-07
-3.13457e-06
-2.41316e-07
-2.89723e-06
-2.37339e-07
-2.66419e-06
-2.33039e-07
-2.4352e-06
-2.28991e-07
-2.20953e-06
-2.25667e-07
-1.98617e-06
-2.23361e-07
-1.76406e-06
-2.2211e-07
-1.54239e-06
-2.21676e-07
-1.32078e-06
-2.21607e-07
-1.09951e-06
-2.21272e-07
-8.79553e-07
-2.19954e-07
-6.62566e-07
-2.16987e-07
-4.50721e-07
-2.11845e-07
-2.4646e-07
-2.04261e-07
-5.21397e-08
-1.94321e-07
1.30847e-07
-1.82986e-07
3.00465e-07
-1.69619e-07
4.55874e-07
-1.55409e-07
5.9679e-07
-1.40915e-07
7.2355e-07
-1.2676e-07
8.36989e-07
-1.1344e-07
9.38285e-07
-1.01296e-07
1.02877e-06
-9.04842e-08
1.10971e-06
-8.09403e-08
1.18214e-06
-7.24273e-08
1.24673e-06
-6.45918e-08
1.30373e-06
-5.69976e-08
1.35303e-06
-4.93038e-08
1.39437e-06
-4.13396e-08
1.4273e-06
-3.29329e-08
1.45146e-06
-2.41611e-08
1.46696e-06
-1.55012e-08
1.4739e-06
-6.93829e-09
1.47218e-06
1.7183e-09
1.46243e-06
9.75311e-09
1.44601e-06
1.6422e-08
1.42431e-06
2.16972e-08
1.39858e-06
2.57281e-08
1.36995e-06
2.86322e-08
1.3394e-06
3.05565e-08
1.30779e-06
3.16072e-08
1.27593e-06
3.18575e-08
1.24453e-06
3.14e-08
1.21417e-06
3.03655e-08
1.18525e-06
2.89123e-08
1.15806e-06
2.71963e-08
1.13271e-06
2.53469e-08
1.10925e-06
2.34563e-08
1.08767e-06
2.1581e-08
1.06792e-06
1.97546e-08
1.04992e-06
1.80003e-08
1.03358e-06
1.63373e-08
1.0188e-06
1.47827e-08
1.00545e-06
1.33502e-08
9.93398e-07
1.20491e-08
9.82517e-07
1.08815e-08
9.72674e-07
9.84271e-09
9.63752e-07
8.92182e-09
9.55647e-07
8.10528e-09
9.48266e-07
7.38046e-09
9.41527e-07
6.73948e-09
9.35345e-07
6.18167e-09
9.29642e-07
5.70321e-09
9.24333e-07
5.30907e-09
9.19334e-07
4.99852e-09
9.14561e-07
4.77309e-09
9.09935e-07
4.6267e-09
9.05363e-07
4.57126e-09
9.00762e-07
4.60155e-09
8.96e-07
4.76191e-09
8.90973e-07
5.02718e-09
8.85479e-07
5.49328e-09
8.79426e-07
6.05339e-09
8.72471e-07
6.95549e-09
8.64565e-07
7.90514e-09
8.55001e-07
9.56425e-09
8.43985e-07
1.10159e-08
8.29826e-07
1.41597e-08
8.13712e-07
1.61134e-08
7.91149e-07
2.25635e-08
7.6689e-07
2.42582e-08
7.27865e-07
3.90252e-08
6.91937e-07
3.59287e-08
6.17437e-07
7.44991e-08
5.06571e-08
5.6678e-07
-1.61345e-08
3.08722e-07
-7.28468e-08
3.34083e-07
-1.12269e-07
2.47562e-07
-1.02108e-07
1.1625e-07
-3.72751e-08
-3.39557e-08
8.75226e-08
-1.75578e-07
2.63809e-07
-2.95296e-07
4.82793e-07
-4.00563e-07
7.36753e-07
-4.92033e-07
1.01651e-06
-5.66235e-07
1.31193e-06
-6.16494e-07
1.60856e-06
-6.39665e-07
1.89889e-06
-6.42166e-07
2.17524e-06
-6.24503e-07
2.43207e-06
-5.90567e-07
2.66601e-06
-5.44766e-07
2.87516e-06
-4.90967e-07
3.05843e-06
-4.32246e-07
3.21526e-06
-3.70816e-07
3.34536e-06
-3.08063e-07
3.44862e-06
-2.44816e-07
3.52507e-06
-1.81532e-07
3.57527e-06
-1.18604e-07
3.60013e-06
-5.63327e-08
3.60071e-06
4.70085e-09
3.57537e-06
6.9656e-08
3.52617e-06
1.32867e-07
3.45409e-06
1.96642e-07
3.35812e-06
2.6173e-07
3.23933e-06
3.28348e-07
3.09676e-06
3.97911e-07
2.9305e-06
4.67465e-07
2.74535e-06
5.39627e-07
2.53876e-06
6.04365e-07
2.32436e-06
6.60404e-07
2.06142e-06
6.77305e-07
1.70448e-06
6.42692e-07
1.32058e-06
5.69555e-07
9.74644e-07
4.70912e-07
7.12465e-07
3.3846e-07
5.35865e-07
2.01143e-07
4.32127e-07
8.54609e-08
4.03819e-07
-2.46721e-08
4.46627e-07
-1.32118e-07
5.35887e-07
-2.0708e-07
6.5767e-07
-2.63506e-07
8.30557e-07
-3.41553e-07
1.03647e-06
-3.78983e-07
1.18054e-06
-2.81967e-07
1.31873e-06
-1.99242e-07
1.53312e-06
-1.91313e-07
1.6421e-06
-1.27264e-07
1.44653e-06
2.53264e-08
9.50822e-07
2.8864e-07
1.96273e-07
6.46326e-07
-6.24099e-07
8.59879e-07
-1.36229e-06
9.97173e-07
-1.97097e-06
1.09891e-06
-2.49685e-06
1.12724e-06
-2.97184e-06
1.09928e-06
-3.39894e-06
1.03716e-06
-3.78047e-06
9.56699e-07
-4.11967e-06
8.70171e-07
-4.42074e-06
7.85027e-07
-4.6882e-06
7.05293e-07
-4.9263e-06
6.32521e-07
-5.13868e-06
5.66738e-07
-5.32826e-06
5.0712e-07
-5.49728e-06
4.52534e-07
-5.64741e-06
4.01901e-07
-5.77979e-06
3.5429e-07
-5.89543e-06
3.09283e-07
-5.99487e-06
2.66177e-07
-6.07823e-06
2.2411e-07
-6.14519e-06
1.82224e-07
-6.195e-06
1.39604e-07
-6.22657e-06
9.54063e-08
-6.23861e-06
4.90605e-08
-6.22911e-06
-2.3915e-10
-6.1955e-06
-5.13725e-08
-6.13603e-06
-1.04685e-07
-6.05001e-06
-1.58931e-07
-5.93742e-06
-2.12681e-07
-5.79929e-06
-2.64358e-07
-5.63735e-06
-3.12489e-07
-5.45408e-06
-3.5583e-07
-5.25235e-06
-3.93515e-07
-5.03526e-06
-4.25088e-07
-4.80589e-06
-4.505e-07
-4.56718e-06
-4.7e-07
-4.32185e-06
-4.83994e-07
-4.07239e-06
-4.92898e-07
-3.82108e-06
-4.97109e-07
-3.57002e-06
-4.97079e-07
-3.321e-06
-4.93402e-07
-3.07542e-06
-4.86896e-07
-2.83414e-06
-4.78622e-07
-2.59738e-06
-4.69794e-07
-2.36477e-06
-4.61605e-07
-2.13541e-06
-4.55029e-07
-1.9081e-06
-4.50662e-07
-1.68165e-06
-4.48568e-07
-1.4551e-06
-4.48225e-07
-1.22803e-06
-4.48676e-07
-1.0007e-06
-4.48598e-07
-7.74208e-07
-4.4645e-07
-5.50383e-07
-4.40812e-07
-3.31666e-07
-4.30562e-07
-1.20765e-07
-4.15162e-07
8.03942e-08
-3.95479e-07
2.69223e-07
-3.71815e-07
4.44282e-07
-3.44677e-07
6.04722e-07
-3.15849e-07
7.5061e-07
-2.86803e-07
8.82709e-07
-2.5886e-07
1.00229e-06
-2.33018e-07
1.11088e-06
-2.09886e-07
1.21008e-06
-1.89685e-07
1.30139e-06
-1.72252e-07
1.38607e-06
-1.57104e-07
1.46498e-06
-1.43507e-07
1.5386e-06
-1.30619e-07
1.607e-06
-1.17705e-07
1.66988e-06
-1.0422e-07
1.72682e-06
-8.98634e-08
1.77738e-06
-7.47263e-08
1.82106e-06
-5.91838e-08
1.85775e-06
-4.36271e-08
1.88802e-06
-2.85523e-08
1.91239e-06
-1.46106e-08
1.93105e-06
-2.23933e-09
1.94429e-06
8.45125e-09
1.95277e-06
1.72528e-08
1.95722e-06
2.418e-08
1.95839e-06
2.93898e-08
1.95696e-06
3.30388e-08
1.95354e-06
3.52763e-08
1.94865e-06
3.62851e-08
1.94274e-06
3.62825e-08
1.93614e-06
3.55121e-08
1.92912e-06
3.42081e-08
1.9219e-06
3.25698e-08
1.91461e-06
3.0746e-08
1.90736e-06
2.88337e-08
1.90022e-06
2.68884e-08
1.89329e-06
2.4938e-08
1.88663e-06
2.29942e-08
1.88035e-06
2.10621e-08
1.87455e-06
1.91479e-08
1.86934e-06
1.72618e-08
1.8648e-06
1.54169e-08
1.86102e-06
1.36279e-08
1.85803e-06
1.19092e-08
1.85586e-06
1.02762e-08
1.8545e-06
8.74485e-09
1.8539e-06
7.33588e-09
1.854e-06
6.07883e-09
1.85472e-06
4.9886e-09
1.85594e-06
4.08917e-09
1.85754e-06
3.3981e-09
1.85939e-06
2.91785e-09
1.86139e-06
2.63556e-09
1.86339e-06
2.56166e-09
1.86531e-06
2.68188e-09
1.86702e-06
3.06094e-09
1.86838e-06
3.65791e-09
1.86924e-06
4.6371e-09
1.8695e-06
5.79299e-09
1.86888e-06
7.57934e-09
1.86738e-06
9.40699e-09
1.8644e-06
1.25385e-08
1.86025e-06
1.51702e-08
1.85352e-06
2.08868e-08
1.84531e-06
2.43232e-08
1.83231e-06
3.55646e-08
1.81755e-06
3.90139e-08
1.79379e-06
6.27861e-08
1.76721e-06
6.25119e-08
1.72628e-06
1.15424e-07
1.03392e-07
1.67355e-06
1.97491e-07
1.11231e-07
3.25197e-07
2.06377e-07
4.30376e-07
1.42383e-07
5.46305e-07
3.20324e-10
7.03884e-07
-1.91534e-07
8.98989e-07
-3.70683e-07
1.12958e-06
-5.25889e-07
1.38314e-06
-6.54121e-07
1.64394e-06
-7.52837e-07
1.89658e-06
-8.18876e-07
2.13058e-06
-8.50487e-07
2.34293e-06
-8.52014e-07
2.53108e-06
-8.30317e-07
2.6963e-06
-7.89731e-07
2.84157e-06
-7.35836e-07
2.97023e-06
-6.73427e-07
3.08505e-06
-6.05788e-07
3.18762e-06
-5.34815e-07
3.27824e-06
-4.61433e-07
3.35622e-06
-3.86043e-07
3.42032e-06
-3.08913e-07
3.46912e-06
-2.3034e-07
3.50132e-06
-1.50798e-07
3.51581e-06
-7.08237e-08
3.51161e-06
8.89876e-09
3.49074e-06
9.0531e-08
3.45273e-06
1.70873e-07
3.39892e-06
2.5045e-07
3.33059e-06
3.3006e-07
3.24952e-06
4.09424e-07
3.15771e-06
4.89715e-07
3.05744e-06
5.67741e-07
2.95353e-06
6.43538e-07
2.84579e-06
7.12103e-07
2.73638e-06
7.6981e-07
2.6015e-06
8.12186e-07
2.42924e-06
8.14956e-07
2.22889e-06
7.69902e-07
2.01747e-06
6.82328e-07
1.79609e-06
5.59845e-07
1.59221e-06
4.05026e-07
1.43479e-06
2.42875e-07
1.32865e-06
8.14647e-08
1.27589e-06
-7.93563e-08
1.27348e-06
-2.04671e-07
1.35059e-06
-3.40614e-07
1.47744e-06
-4.68404e-07
1.6394e-06
-5.40944e-07
1.79748e-06
-4.4004e-07
1.76068e-06
-1.62446e-07
1.46111e-06
1.0826e-07
8.45329e-07
4.88514e-07
-5.3777e-08
9.24432e-07
-9.38184e-07
1.17305e-06
-1.6239e-06
1.33205e-06
-2.19097e-06
1.42695e-06
-2.66721e-06
1.47341e-06
-3.03996e-06
1.47166e-06
-3.33814e-06
1.42541e-06
-3.58813e-06
1.34927e-06
-3.80707e-06
1.25611e-06
-4.00695e-06
1.15658e-06
-4.19477e-06
1.05799e-06
-4.37445e-06
9.64701e-07
-4.54785e-06
8.78696e-07
-4.71557e-06
8.00241e-07
-4.87734e-06
7.28504e-07
-5.03233e-06
6.62112e-07
-5.17941e-06
5.99613e-07
-5.3173e-06
5.39793e-07
-5.44484e-06
4.81825e-07
-5.56076e-06
4.2521e-07
-5.66404e-06
3.69457e-07
-5.75376e-06
3.13832e-07
-5.82881e-06
2.57273e-07
-5.88766e-06
1.98452e-07
-5.9283e-06
1.36042e-07
-5.94817e-06
6.89355e-08
-5.94495e-06
-3.46143e-09
-5.91634e-06
-7.99835e-08
-5.86091e-06
-1.60116e-07
-5.77782e-06
-2.42023e-07
-5.66721e-06
-3.23283e-07
-5.5303e-06
-4.0127e-07
-5.36921e-06
-4.73576e-07
-5.18681e-06
-5.38229e-07
-4.98638e-06
-5.93953e-07
-4.77128e-06
-6.4018e-07
-4.54478e-06
-6.77004e-07
-4.3098e-06
-7.04975e-07
-4.06897e-06
-7.24832e-07
-3.82462e-06
-7.37244e-07
-3.57897e-06
-7.42759e-07
-3.3341e-06
-7.41949e-07
-3.09188e-06
-7.35623e-07
-2.85378e-06
-7.24992e-07
-2.62068e-06
-7.11724e-07
-2.3927e-06
-6.97779e-07
-2.16918e-06
-6.85125e-07
-1.94884e-06
-6.75362e-07
-1.73006e-06
-6.6945e-07
-1.51111e-06
-6.67516e-07
-1.29064e-06
-6.6869e-07
-1.06796e-06
-6.71361e-07
-8.4323e-07
-6.73324e-07
-6.17697e-07
-6.71983e-07
-3.93668e-07
-6.64841e-07
-1.74079e-07
-6.50151e-07
3.83108e-08
-6.27552e-07
2.40184e-07
-5.97352e-07
4.28445e-07
-5.60076e-07
6.01249e-07
-5.17481e-07
7.57064e-07
-4.71664e-07
8.95241e-07
-4.2498e-07
1.01635e-06
-3.79967e-07
1.12225e-06
-3.38919e-07
1.2157e-06
-3.03342e-07
1.2997e-06
-2.73679e-07
1.37684e-06
-2.49395e-07
1.44906e-06
-2.29321e-07
1.51756e-06
-2.12007e-07
1.58293e-06
-1.95989e-07
1.64525e-06
-1.80024e-07
1.70424e-06
-1.63207e-07
1.7594e-06
-1.45026e-07
1.81011e-06
-1.25442e-07
1.85572e-06
-1.04794e-07
1.89577e-06
-8.3678e-08
1.93015e-06
-6.29264e-08
1.95897e-06
-4.34342e-08
1.98265e-06
-2.59206e-08
2.00186e-06
-1.07575e-08
2.01718e-06
1.93516e-09
2.02918e-06
1.21838e-08
2.03829e-06
2.02783e-08
2.04499e-06
2.63328e-08
2.04971e-06
3.0563e-08
2.05282e-06
3.31719e-08
2.05474e-06
3.43639e-08
2.05584e-06
3.44136e-08
2.05643e-06
3.36118e-08
2.05676e-06
3.22432e-08
2.05696e-06
3.05512e-08
2.05707e-06
2.87167e-08
2.0571e-06
2.68558e-08
2.05701e-06
2.50285e-08
2.05676e-06
2.32492e-08
2.05632e-06
2.14997e-08
2.05573e-06
1.97436e-08
2.05505e-06
1.79395e-08
2.05441e-06
1.60511e-08
2.05399e-06
1.40551e-08
2.05395e-06
1.19483e-08
2.05447e-06
9.75017e-09
2.05572e-06
7.50335e-09
2.05778e-06
5.27057e-09
2.06072e-06
3.14242e-09
2.06455e-06
1.15717e-09
2.06922e-06
-5.8159e-10
2.07465e-06
-2.03173e-09
2.08072e-06
-3.15269e-09
2.08729e-06
-3.93574e-09
2.09421e-06
-4.35376e-09
2.10133e-06
-4.44368e-09
2.10852e-06
-4.12793e-09
2.11568e-06
-3.49882e-09
2.12267e-06
-2.35086e-09
2.12943e-06
-9.67208e-10
2.13578e-06
1.22537e-09
2.1417e-06
3.48363e-09
2.14694e-06
7.29929e-09
2.1515e-06
1.06158e-08
2.15501e-06
1.73758e-08
2.15735e-06
2.19806e-08
2.1583e-06
3.46114e-08
2.15684e-06
4.04795e-08
2.15435e-06
6.52768e-08
2.14542e-06
7.14355e-08
2.13997e-06
1.20875e-07
1.28859e-07
2.11451e-06
1.18926e-07
-7.69454e-09
2.3337e-07
9.19319e-08
3.98601e-07
-2.28472e-08
6.36323e-07
-2.37402e-07
9.10692e-07
-4.65903e-07
1.20277e-06
-6.62764e-07
1.48832e-06
-8.1144e-07
1.74536e-06
-9.11153e-07
1.9595e-06
-9.6698e-07
2.1265e-06
-9.85874e-07
2.25192e-06
-9.7591e-07
2.3456e-06
-9.4569e-07
2.41825e-06
-9.02968e-07
2.48187e-06
-8.53356e-07
2.5457e-06
-7.99658e-07
2.61444e-06
-7.42165e-07
2.68878e-06
-6.80128e-07
2.76677e-06
-6.12809e-07
2.84483e-06
-5.39496e-07
2.91869e-06
-4.59902e-07
2.98408e-06
-3.74301e-07
3.03746e-06
-2.8372e-07
3.07669e-06
-1.90028e-07
3.10098e-06
-9.511e-08
3.11165e-06
-1.77079e-09
3.10875e-06
9.34232e-08
3.09436e-06
1.85267e-07
3.07018e-06
2.74631e-07
3.03764e-06
3.62603e-07
2.99714e-06
4.49918e-07
2.94955e-06
5.3731e-07
2.89386e-06
6.23426e-07
2.83153e-06
7.05867e-07
2.76298e-06
7.80661e-07
2.68987e-06
8.42918e-07
2.61716e-06
8.84896e-07
2.5313e-06
9.00815e-07
2.42591e-06
8.7529e-07
2.29632e-06
8.11917e-07
2.15295e-06
7.03222e-07
2.00787e-06
5.501e-07
1.86618e-06
3.84567e-07
1.78389e-06
1.63752e-07
1.70118e-06
3.36084e-09
1.62382e-06
-1.27315e-07
1.69026e-06
-4.07051e-07
1.83125e-06
-6.09396e-07
1.73758e-06
-4.47279e-07
1.36023e-06
-6.26907e-08
7.07197e-07
4.90591e-07
-1.72549e-07
9.88006e-07
-9.90913e-07
1.30688e-06
-1.61053e-06
1.54405e-06
-2.11498e-06
1.6775e-06
-2.51742e-06
1.73448e-06
-2.83285e-06
1.74238e-06
-3.07549e-06
1.71605e-06
-3.26336e-06
1.65953e-06
-3.41761e-06
1.57966e-06
-3.55497e-06
1.48663e-06
-3.6872e-06
1.38834e-06
-3.82116e-06
1.29054e-06
-3.95987e-06
1.1967e-06
-4.10375e-06
1.10858e-06
-4.25174e-06
1.02669e-06
-4.40197e-06
9.50473e-07
-4.55211e-06
8.78637e-07
-4.69959e-06
8.09599e-07
-4.84191e-06
7.41928e-07
-4.97682e-06
6.74704e-07
-5.10262e-06
6.0762e-07
-5.21813e-06
5.40723e-07
-5.32257e-06
4.739e-07
-5.41518e-06
4.06442e-07
-5.49478e-06
3.36871e-07
-5.5594e-06
2.63076e-07
-5.60625e-06
1.82885e-07
-5.63204e-06
9.47309e-08
-5.63261e-06
-2.8951e-09
-5.60713e-06
-1.0546e-07
-5.55265e-06
-2.14593e-07
-5.46848e-06
-3.26198e-07
-5.35547e-06
-4.36287e-07
-5.21572e-06
-5.41023e-07
-5.05229e-06
-6.37006e-07
-4.86886e-06
-7.21663e-07
-4.66928e-06
-7.93526e-07
-4.45723e-06
-8.52232e-07
-4.2359e-06
-8.98333e-07
-4.00793e-06
-9.32947e-07
-3.77546e-06
-9.57306e-07
-3.54036e-06
-9.72338e-07
-3.30455e-06
-9.78576e-07
-3.07003e-06
-9.76466e-07
-2.83884e-06
-9.66813e-07
-2.61272e-06
-9.51111e-07
-2.39275e-06
-9.31696e-07
-2.17906e-06
-9.11465e-07
-1.97073e-06
-8.93459e-07
-1.76591e-06
-8.80184e-07
-1.56222e-06
-8.73132e-07
-1.35721e-06
-8.72534e-07
-1.14874e-06
-8.77157e-07
-9.35495e-07
-8.84605e-07
-7.17242e-07
-8.91577e-07
-4.94929e-07
-8.94296e-07
-2.709e-07
-8.8887e-07
-4.83424e-08
-8.72709e-07
1.68612e-07
-8.44506e-07
3.75441e-07
-8.04182e-07
5.69154e-07
-7.5379e-07
7.47978e-07
-6.96305e-07
9.10886e-07
-6.34572e-07
1.05661e-06
-5.70704e-07
1.18339e-06
-5.06744e-07
1.29013e-06
-4.45657e-07
1.37792e-06
-3.91141e-07
1.45038e-06
-3.46134e-07
1.5124e-06
-3.11414e-07
1.56853e-06
-2.85456e-07
1.6219e-06
-2.65378e-07
1.67399e-06
-2.48079e-07
1.725e-06
-2.31032e-07
1.77443e-06
-2.12631e-07
1.82156e-06
-1.92155e-07
1.86568e-06
-1.69568e-07
1.90617e-06
-1.45277e-07
1.94247e-06
-1.1998e-07
1.97415e-06
-9.46076e-08
2.00096e-06
-7.02447e-08
2.02298e-06
-4.79413e-08
2.04068e-06
-2.84548e-08
2.05475e-06
-1.21418e-08