/*--------------------------------*- C++ -*----------------------------------*\
  =========                 |
  \\      /  F ield         | OpenFOAM: The Open Source CFD Toolbox
   \\    /   O peration     | Website:  https://openfoam.org
    \\  /    A nd           | Version:  7
     \\/     M anipulation  |
\*---------------------------------------------------------------------------*/
FoamFile
{
    version     2.0;
    format      ascii;
    class       surfaceScalarField;
    location    "0.071";
    object      phi_0;
}
// * * * * * * * * * * * * * * * * * * * * * * * * * * * * * * * * * * * * * //

dimensions      [0 3 -1 0 0 0 0];

internalField   nonuniform List<scalar> 
24170
(
1.38836e-06
1.91376e-07
1.24242e-06
1.45944e-07
1.10644e-06
1.35982e-07
9.99757e-07
1.0668e-07
9.03846e-07
9.59108e-08
8.05951e-07
9.78951e-08
7.08334e-07
9.76167e-08
6.20832e-07
8.75027e-08
5.48814e-07
7.20176e-08
4.90512e-07
5.83021e-08
4.41192e-07
4.93201e-08
3.97353e-07
4.38384e-08
3.57849e-07
3.95045e-08
3.22257e-07
3.55916e-08
2.89732e-07
3.25257e-08
2.60049e-07
2.96825e-08
2.2841e-07
3.16392e-08
2.3479e-08
2.04931e-07
1.65654e-06
2.66253e-07
1.61513e-06
1.87355e-07
1.58472e-06
1.66397e-07
1.56206e-06
1.29333e-07
1.54296e-06
1.15019e-07
1.51668e-06
1.24168e-07
1.47923e-06
1.35067e-07
1.434e-06
1.32739e-07
1.38571e-06
1.20307e-07
1.33787e-06
1.06142e-07
1.29293e-06
9.42598e-08
1.25297e-06
8.38002e-08
1.21717e-06
7.53021e-08
1.1837e-06
6.90565e-08
1.14844e-06
6.77887e-08
1.10902e-06
6.91072e-08
1.06641e-06
7.42419e-08
7.16264e-08
1.01827e-06
1.77802e-06
2.49202e-07
1.76876e-06
1.96614e-07
1.7593e-06
1.75864e-07
1.74418e-06
1.44455e-07
1.73772e-06
1.21475e-07
1.74089e-06
1.20993e-07
1.74403e-06
1.31932e-07
1.73841e-06
1.38361e-07
1.72183e-06
1.36887e-07
1.6981e-06
1.2987e-07
1.67335e-06
1.19006e-07
1.65263e-06
1.04519e-07
1.63751e-06
9.04245e-08
1.62698e-06
7.95867e-08
1.61898e-06
7.57904e-08
1.61008e-06
7.80076e-08
1.59933e-06
8.49934e-08
9.07713e-08
1.58018e-06
1.89935e-06
3.77289e-07
1.88485e-06
2.1112e-07
1.88865e-06
1.72056e-07
1.88236e-06
1.50754e-07
1.87745e-06
1.26378e-07
1.87791e-06
1.20538e-07
1.8789e-06
1.3094e-07
1.87575e-06
1.41511e-07
1.86873e-06
1.43902e-07
1.86131e-06
1.37293e-07
1.85627e-06
1.2405e-07
1.85379e-06
1.06992e-07
1.85284e-06
9.13814e-08
1.85214e-06
8.02818e-08
1.8519e-06
7.60281e-08
1.85201e-06
7.79069e-08
1.85304e-06
8.39641e-08
9.19292e-08
1.85188e-06
2.04936e-06
3.92005e-07
2.04112e-06
2.19363e-07
2.03131e-06
1.81868e-07
2.02349e-06
1.58571e-07
2.01932e-06
1.30552e-07
2.01755e-06
1.22298e-07
2.01705e-06
1.31445e-07
2.01728e-06
1.41281e-07
2.0188e-06
1.42383e-07
2.0222e-06
1.33888e-07
2.02725e-06
1.19007e-07
2.03258e-06
1.01659e-07
2.03738e-06
8.65773e-08
2.04104e-06
7.6628e-08
2.04405e-06
7.30164e-08
2.04676e-06
7.51948e-08
2.04977e-06
8.09575e-08
8.92203e-08
2.05248e-06
2.20899e-06
3.377e-07
2.20627e-06
2.22083e-07
2.19253e-06
1.95611e-07
2.17752e-06
1.73581e-07
2.16603e-06
1.42037e-07
2.1634e-06
1.24935e-07
2.16939e-06
1.25451e-07
2.17909e-06
1.31579e-07
2.18781e-06
1.33665e-07
2.19334e-06
1.28358e-07
2.19595e-06
1.16402e-07
2.19695e-06
1.00652e-07
2.19834e-06
8.51883e-08
2.20126e-06
7.37132e-08
2.20622e-06
6.80567e-08
2.2128e-06
6.86071e-08
2.22022e-06
7.3546e-08
8.17713e-08
2.22766e-06
2.41598e-06
3.66073e-07
2.39884e-06
2.39219e-07
2.38099e-06
2.13459e-07
2.37018e-06
1.84395e-07
2.36065e-06
1.51563e-07
2.35134e-06
1.34241e-07
2.34407e-06
1.3273e-07
2.34016e-06
1.35485e-07
2.34021e-06
1.33617e-07
2.34415e-06
1.24417e-07
2.35122e-06
1.09332e-07
2.35986e-06
9.2012e-08
2.36877e-06
7.62802e-08
2.37698e-06
6.54973e-08
2.38419e-06
6.08484e-08
2.39037e-06
6.24295e-08
2.39575e-06
6.81665e-08
7.67379e-08
2.40078e-06
2.59681e-06
3.88952e-07
2.5634e-06
2.7263e-07
2.55516e-06
2.21697e-07
2.55872e-06
1.80837e-07
2.55831e-06
1.51975e-07
2.54771e-06
1.44839e-07
2.5337e-06
1.46739e-07
2.52627e-06
1.42913e-07
2.52975e-06
1.30141e-07
2.54122e-06
1.1295e-07
2.55424e-06
9.63098e-08
2.56347e-06
8.2783e-08
2.56724e-06
7.25038e-08
2.56715e-06
6.5589e-08
2.56614e-06
6.18589e-08
2.56659e-06
6.19842e-08
2.56997e-06
6.47824e-08
7.02272e-08
2.57648e-06
2.80832e-06
3.35167e-07
2.79473e-06
2.86219e-07
2.78632e-06
2.30109e-07
2.77087e-06
1.96289e-07
2.7492e-06
1.73638e-07
2.73412e-06
1.59924e-07
2.73282e-06
1.48037e-07
2.74134e-06
1.34399e-07
2.75097e-06
1.20501e-07
2.75561e-06
1.08317e-07
2.75402e-06
9.79012e-08
2.74858e-06
8.82159e-08
2.74272e-06
7.83638e-08
2.73894e-06
6.93707e-08
2.73869e-06
6.21071e-08
2.74226e-06
5.84183e-08
2.74991e-06
5.71292e-08
5.88237e-08
2.76132e-06
2.98832e-06
3.45876e-07
2.97634e-06
2.98199e-07
2.95315e-06
2.53299e-07
2.92537e-06
2.24068e-07
2.9119e-06
1.87108e-07
2.92041e-06
1.51416e-07
2.94304e-06
1.25406e-07
2.96628e-06
1.11161e-07
2.98084e-06
1.05939e-07
2.98468e-06
1.04472e-07
2.9806e-06
1.01983e-07
2.97253e-06
9.62831e-08
2.96346e-06
8.74372e-08
2.95503e-06
7.78064e-08
2.94851e-06
6.86261e-08
2.94516e-06
6.17623e-08
2.94648e-06
5.58128e-08
5.15254e-08
2.95378e-06
3.21084e-06
3.86053e-07
3.20337e-06
3.0567e-07
3.19385e-06
2.62815e-07
3.19386e-06
2.24066e-07
3.20212e-06
1.78845e-07
3.21405e-06
1.39481e-07
3.2248e-06
1.14664e-07
3.2303e-06
1.05654e-07
3.22952e-06
1.0672e-07
3.22413e-06
1.09863e-07
3.21658e-06
1.09529e-07
3.20873e-06
1.04133e-07
3.20154e-06
9.46317e-08
3.19565e-06
8.3695e-08
3.19171e-06
7.25603e-08
3.19099e-06
6.24893e-08
3.19423e-06
5.25698e-08
4.32603e-08
3.2025e-06
2.91842e-06
4.52101e-07
2.87862e-06
3.45471e-07
2.85866e-06
2.82777e-07
2.86168e-06
2.21041e-07
2.87587e-06
1.64658e-07
2.88683e-06
1.28516e-07
2.88753e-06
1.13965e-07
2.87984e-06
1.13343e-07
2.87022e-06
1.1635e-07
2.86397e-06
1.16104e-07
2.86312e-06
1.10387e-07
2.86692e-06
1.00332e-07
2.87358e-06
8.79673e-08
2.88161e-06
7.56643e-08
2.89017e-06
6.40083e-08
2.89918e-06
5.34711e-08
2.9088e-06
4.29556e-08
3.26971e-08
2.91936e-06
3.55099e-06
5.4768e-07
3.48441e-06
4.12056e-07
3.46791e-06
2.99272e-07
3.47789e-06
2.11065e-07
3.49358e-06
1.48963e-07
3.50327e-06
1.18827e-07
3.50581e-06
1.11423e-07
3.50492e-06
1.14238e-07
3.5041e-06
1.1717e-07
3.50509e-06
1.15114e-07
3.50809e-06
1.07386e-07
3.51242e-06
9.60007e-08
3.51722e-06
8.31712e-08
3.52206e-06
7.08173e-08
3.527e-06
5.90744e-08
3.53247e-06
4.80012e-08
3.53914e-06
3.62831e-08
2.44703e-08
3.54737e-06
4.32735e-06
4.754e-07
4.31171e-06
4.27689e-07
4.29998e-06
3.11006e-07
4.30562e-06
2.05425e-07
4.31282e-06
1.41762e-07
4.31107e-06
1.2058e-07
4.3008e-06
1.21691e-07
4.28965e-06
1.25386e-07
4.28435e-06
1.2247e-07
4.28575e-06
1.13722e-07
4.29018e-06
1.02947e-07
4.29391e-06
9.22757e-08
4.29555e-06
8.15358e-08
4.29654e-06
6.98188e-08
4.29939e-06
5.62252e-08
4.30622e-06
4.11694e-08
4.31754e-06
2.49645e-08
9.66899e-09
4.33234e-06
5.20217e-06
5.15807e-07
5.2225e-06
4.07354e-07
5.20862e-06
3.24891e-07
5.18034e-06
2.33705e-07
5.16693e-06
1.55171e-07
5.16879e-06
1.1872e-07
5.17775e-06
1.1273e-07
5.18985e-06
1.13288e-07
5.20473e-06
1.07591e-07
5.22115e-06
9.73027e-08
5.23653e-06
8.75667e-08
5.249e-06
7.98032e-08
5.25872e-06
7.18094e-08
5.26745e-06
6.10913e-08
5.2769e-06
4.67737e-08
5.28789e-06
3.01815e-08
5.29984e-06
1.30157e-08
-2.31027e-09
5.31182e-06
6.45037e-06
3.38553e-07
6.49333e-06
3.64397e-07
6.4799e-06
3.3832e-07
6.46175e-06
2.51849e-07
6.43548e-06
1.81442e-07
6.40486e-06
1.49342e-07
6.38114e-06
1.36456e-07
6.37406e-06
1.20366e-07
6.38455e-06
9.70966e-08
6.40628e-06
7.55782e-08
6.43114e-06
6.26997e-08
6.4534e-06
5.75462e-08
6.47069e-06
5.45197e-08
6.48315e-06
4.8628e-08
6.49203e-06
3.78968e-08
6.49866e-06
2.35542e-08
6.50396e-06
7.71444e-09
-7.34314e-09
6.50899e-06
7.79958e-06
4.69133e-07
7.82789e-06
3.3608e-07
7.88555e-06
2.80662e-07
7.90248e-06
2.34924e-07
7.88317e-06
2.00752e-07
7.85286e-06
1.7965e-07
7.83261e-06
1.56709e-07
7.82932e-06
1.23655e-07
7.83912e-06
8.7291e-08
7.85554e-06
5.9157e-08
7.87366e-06
4.45864e-08
7.89039e-06
4.08176e-08
7.90374e-06
4.11618e-08
7.9128e-06
3.95703e-08
7.91785e-06
3.28436e-08
7.92021e-06
2.11973e-08
7.92173e-06
6.19321e-09
-9.32866e-09
7.92372e-06
9.43811e-06
5.43774e-07
9.4427e-06
3.31495e-07
9.47173e-06
2.5163e-07
9.47827e-06
2.28384e-07
9.47215e-06
2.06873e-07
9.47682e-06
1.74976e-07
9.49703e-06
1.36502e-07
9.51966e-06
1.01027e-07
9.53203e-06
7.49194e-08
9.53298e-06
5.82033e-08
9.53043e-06
4.71364e-08
9.53307e-06
3.81851e-08
9.5449e-06
2.93316e-08
9.56441e-06
2.00611e-08
9.58717e-06
1.00765e-08
9.6089e-06
-5.26766e-10
9.62629e-06
-1.12004e-08
-2.21239e-08
9.63909e-06
1.16093e-05
5.31596e-07
1.15371e-05
4.03673e-07
1.15143e-05
2.74486e-07
1.15316e-05
2.11069e-07
1.15565e-05
1.8199e-07
1.15784e-05
1.53023e-07
1.15965e-05
1.18413e-07
1.16131e-05
8.44629e-08
1.16315e-05
5.64849e-08
1.16545e-05
3.51615e-08
1.16827e-05
1.89368e-08
1.17143e-05
6.63326e-09
1.17471e-05
-3.50485e-09
1.17787e-05
-1.15085e-08
1.18073e-05
-1.85191e-08
1.18322e-05
-2.54751e-08
1.18543e-05
-3.32115e-08
-4.17658e-08
1.18739e-05
8.50639e-06
4.17932e-07
8.56049e-06
3.49569e-07
8.5659e-06
2.69077e-07
8.56875e-06
2.08227e-07
8.57466e-06
1.76075e-07
8.57416e-06
1.53525e-07
8.56942e-06
1.23153e-07
8.56914e-06
8.47471e-08
8.57863e-06
4.69889e-08
8.59735e-06
1.64451e-08
8.61909e-06
-2.80244e-09
8.63877e-06
-1.3045e-08
8.65413e-06
-1.8869e-08
8.6656e-06
-2.29811e-08
8.67472e-06
-2.76325e-08
8.68285e-06
-3.36068e-08
8.69037e-06
-4.07377e-08
-4.84177e-08
8.69703e-06
7.4285e-06
4.81657e-07
7.44708e-06
3.30986e-07
7.48839e-06
2.27766e-07
7.52245e-06
1.74171e-07
7.54925e-06
1.49279e-07
7.57392e-06
1.2885e-07
7.59722e-06
9.98529e-08
7.61741e-06
6.45551e-08
7.63245e-06
3.19551e-08
7.64108e-06
7.8161e-09
7.64965e-06
-1.13788e-08
7.66056e-06
-2.39479e-08
7.67434e-06
-3.2648e-08
7.68983e-06
-3.84745e-08
7.70378e-06
-4.15818e-08
7.71289e-06
-4.27189e-08
7.71441e-06
-4.2256e-08
-4.15934e-08
7.70758e-06
6.43087e-06
3.70183e-07
6.49383e-06
2.68033e-07
6.54522e-06
1.76371e-07
6.58282e-06
1.36576e-07
6.60821e-06
1.2388e-07
6.62864e-06
1.08423e-07
6.64535e-06
8.31393e-08
6.65576e-06
5.41525e-08
6.65964e-06
2.80723e-08
6.66137e-06
6.088e-09
6.66022e-06
-1.02291e-08
6.66226e-06
-2.59869e-08
6.66929e-06
-3.96761e-08
6.68064e-06
-4.98326e-08
6.69417e-06
-5.51107e-08
6.70704e-06
-5.55853e-08
6.71682e-06
-5.20379e-08
-4.63207e-08
6.72155e-06
5.65196e-06
3.54327e-07
5.62357e-06
2.96423e-07
5.61788e-06
1.82061e-07
5.64144e-06
1.13012e-07
5.68464e-06
8.0683e-08
5.73457e-06
5.8488e-08
5.77639e-06
4.13249e-08
5.80285e-06
2.76919e-08
5.81553e-06
1.53893e-08
5.81789e-06
3.72516e-09
5.81814e-06
-1.04703e-08
5.81654e-06
-2.43911e-08
5.81511e-06
-3.82443e-08
5.81535e-06
-5.00773e-08
5.81831e-06
-5.80648e-08
5.82437e-06
-6.16529e-08
5.83368e-06
-6.13453e-08
-5.81564e-08
5.84552e-06
4.84926e-06
4.13792e-07
4.91562e-06
2.3006e-07
4.9603e-06
1.3739e-07
4.98632e-06
8.6987e-08
5.00604e-06
6.09688e-08
5.02154e-06
4.29859e-08
5.03734e-06
2.55192e-08
5.05865e-06
6.38355e-09
5.08418e-06
-1.01355e-08
5.11236e-06
-2.44552e-08
5.1362e-06
-3.43149e-08
5.15173e-06
-3.9918e-08
5.15653e-06
-4.30463e-08
5.15139e-06
-4.4934e-08
5.13955e-06
-4.6225e-08
5.12505e-06
-4.71591e-08
5.11144e-06
-4.77327e-08
-4.79525e-08
5.10124e-06
4.26573e-06
3.43504e-07
4.32972e-06
1.66071e-07
4.37832e-06
8.87914e-08
4.39579e-06
6.95209e-08
4.3937e-06
6.30526e-08
4.39016e-06
4.65327e-08
4.39339e-06
2.22829e-08
4.40146e-06
-1.68277e-09
4.41294e-06
-2.16126e-08
4.42505e-06
-3.65714e-08
4.43913e-06
-4.8397e-08
4.45598e-06
-5.67649e-08
4.47453e-06
-6.15918e-08
4.49234e-06
-6.27467e-08
4.50652e-06
-6.04085e-08
4.51506e-06
-5.56951e-08
4.51704e-06
-4.97131e-08
-4.45366e-08
4.51362e-06
3.71691e-06
3.79156e-07
3.76063e-06
1.22346e-07
3.80337e-06
4.60515e-08
3.83182e-06
4.10771e-08
3.86826e-06
2.66134e-08
3.91079e-06
4.00121e-09
3.9448e-06
-1.17329e-08
3.96475e-06
-2.16273e-08
3.97164e-06
-2.85034e-08
3.97083e-06
-3.57592e-08
3.96708e-06
-4.46527e-08
3.96356e-06
-5.32396e-08
3.9611e-06
-5.91359e-08
3.95933e-06
-6.09729e-08
3.95775e-06
-5.88272e-08
3.95609e-06
-5.40415e-08
3.95451e-06
-4.81275e-08
-4.33503e-08
3.95332e-06
3.31611e-06
2.24491e-07
3.34264e-06
9.58129e-08
3.34572e-06
4.29724e-08
3.37433e-06
1.2463e-08
3.41683e-06
-1.58806e-08
3.44857e-06
-2.77412e-08
3.46243e-06
-2.55949e-08
3.46476e-06
-2.39572e-08
3.46664e-06
-3.03776e-08
3.4732e-06
-4.23223e-08
3.48266e-06
-5.41152e-08
3.491e-06
-6.15734e-08
3.49535e-06
-6.34879e-08
3.4954e-06
-6.10293e-08
3.49298e-06
-5.64067e-08
3.49057e-06
-5.16245e-08
3.49026e-06
-4.78234e-08
-4.59464e-08
3.49286e-06
2.88298e-06
1.80877e-07
2.94195e-06
3.68415e-08
2.97197e-06
1.29553e-08
3.00315e-06
-1.87225e-08
3.02957e-06
-4.22992e-08
3.04754e-06
-4.57138e-08
3.06154e-06
-3.95868e-08
3.07523e-06
-3.76488e-08
3.08788e-06
-4.30275e-08
3.09649e-06
-5.09336e-08
3.09892e-06
-5.65491e-08
3.09579e-06
-5.84454e-08
3.08996e-06
-5.7654e-08
3.08485e-06
-5.5915e-08
3.08281e-06
-5.43729e-08
3.08463e-06
-5.34382e-08
3.08976e-06
-5.29618e-08
-5.27296e-08
3.09655e-06
2.54745e-06
7.46782e-08
2.59847e-06
-1.4169e-08
2.63044e-06
-1.90218e-08
2.65232e-06
-4.06022e-08
2.6616e-06
-5.1582e-08
2.66455e-06
-4.86554e-08
2.66939e-06
-4.44332e-08
2.67775e-06
-4.60026e-08
2.68556e-06
-5.08443e-08
2.68808e-06
-5.34481e-08
2.68312e-06
-5.15896e-08
2.67185e-06
-4.71769e-08
2.65753e-06
-4.33313e-08
2.64345e-06
-4.18418e-08
2.6315e-06
-4.24205e-08
2.62182e-06
-4.37525e-08
2.61342e-06
-4.45641e-08
-4.42991e-08
2.60499e-06
2.13421e-06
2.12004e-06
2.10102e-06
2.06042e-06
2.00883e-06
1.96018e-06
1.91575e-06
1.86974e-06
1.8189e-06
1.76545e-06
1.71386e-06
1.66668e-06
1.62335e-06
1.58151e-06
1.53909e-06
1.49534e-06
1.45077e-06
1.40647e-06
-2.92534e-07
2.92534e-07
-5.6989e-07
2.77356e-07
-7.78074e-07
2.08184e-07
-9.0454e-07
1.26465e-07
-9.35467e-07
3.0927e-08
-8.84682e-07
-5.07848e-08
-7.65612e-07
-1.1907e-07
-5.83883e-07
-1.81729e-07
-3.45537e-07
-2.38346e-07
-5.86698e-08
-2.86867e-07
2.6288e-07
-3.2155e-07
6.06406e-07
-3.43526e-07
9.58734e-07
-3.52328e-07
1.30731e-06
-3.4858e-07
1.64142e-06
-3.34102e-07
1.95252e-06
-3.11099e-07
2.23452e-06
-2.82003e-07
2.48362e-06
-2.49102e-07
2.69767e-06
-2.14048e-07
2.87566e-06
-1.77991e-07
3.01721e-06
-1.41554e-07
3.12226e-06
-1.05052e-07
3.19062e-06
-6.83537e-08
3.22203e-06
-3.14138e-08
3.21668e-06
5.34847e-09
3.17228e-06
4.44063e-08
3.08853e-06
8.3751e-08
2.96385e-06
1.24679e-07
2.79796e-06
1.65889e-07
2.58824e-06
2.09722e-07
2.33273e-06
2.55503e-07
2.03132e-06
3.01416e-07
1.67661e-06
3.54702e-07
1.2787e-06
3.97911e-07
8.32813e-07
4.4589e-07
4.19171e-07
4.13643e-07
1.34202e-07
2.84969e-07
-5.09057e-08
1.85108e-07
-1.75494e-07
1.24589e-07
-2.51402e-07
7.59079e-08
-2.75539e-07
2.41372e-08
-2.56916e-07
-1.86237e-08
-2.03574e-07
-5.33412e-08
-1.13923e-07
-8.96514e-08
4.17619e-09
-1.18099e-07
1.46172e-07
-1.41996e-07
3.15023e-07
-1.68851e-07
4.87847e-07
-1.72824e-07
6.25228e-07
-1.37381e-07
6.85571e-07
-6.03428e-08
6.62362e-07
2.32083e-08
6.82213e-07
-1.98504e-08
8.53588e-07
-1.71375e-07
1.05989e-06
-2.06305e-07
1.16658e-06
-1.06685e-07
1.12502e-06
4.15617e-08
8.62983e-07
2.62034e-07
3.70715e-07
4.92267e-07
-2.30924e-07
6.01639e-07
-8.54765e-07
6.23842e-07
-1.46405e-06
6.09287e-07
-2.03836e-06
5.7431e-07
-2.56848e-06
5.3012e-07
-3.05165e-06
4.83166e-07
-3.48879e-06
4.37138e-07
-3.88262e-06
3.93829e-07
-4.23648e-06
3.53864e-07
-4.55363e-06
3.17151e-07
-4.83685e-06
2.83219e-07
-5.08839e-06
2.5154e-07
-5.31011e-06
2.21718e-07
-5.50359e-06
1.93481e-07
-5.67014e-06
1.6655e-07
-5.81069e-06
1.40548e-07
-5.92572e-06
1.15035e-07
-6.01526e-06
8.95386e-08
-6.07883e-06
6.35751e-08
-6.1156e-06
3.67669e-08
-6.12463e-06
9.02679e-09
-6.1067e-06
-1.79271e-08
-6.06137e-06
-4.53363e-08
-5.9884e-06
-7.29634e-08
-5.88831e-06
-1.00094e-07
-5.76212e-06
-1.26183e-07
-5.61165e-06
-1.50476e-07
-5.43918e-06
-1.72469e-07
-5.2475e-06
-1.91684e-07
-5.0396e-06
-2.079e-07
-4.81855e-06
-2.21049e-07
-4.58732e-06
-2.31231e-07
-4.3487e-06
-2.3862e-07
-4.10528e-06
-2.43413e-07
-3.85948e-06
-2.45807e-07
-3.61344e-06
-2.46042e-07
-3.369e-06
-2.44433e-07
-3.12761e-06
-2.41389e-07
-2.89018e-06
-2.3743e-07
-2.65704e-06
-2.33145e-07
-2.42793e-06
-2.29106e-07
-2.20215e-06
-2.25785e-07
-1.97867e-06
-2.23477e-07
-1.75645e-06
-2.22218e-07
-1.53468e-06
-2.2177e-07
-1.313e-06
-2.21681e-07
-1.09168e-06
-2.21321e-07
-8.71708e-07
-2.19974e-07
-6.54733e-07
-2.16975e-07
-4.42934e-07
-2.11799e-07
-2.3875e-07
-2.04184e-07
-4.45344e-08
-1.94216e-07
1.38332e-07
-1.82866e-07
3.07815e-07
-1.69484e-07
4.63084e-07
-1.55269e-07
6.03861e-07
-1.40777e-07
7.30492e-07
-1.26631e-07
8.43818e-07
-1.13325e-07
9.45016e-07
-1.01199e-07
1.03542e-06
-9.04051e-08
1.1163e-06
-8.0877e-08
1.18867e-06
-7.23756e-08
1.25322e-06
-6.45461e-08
1.31017e-06
-5.69524e-08
1.35943e-06
-4.92549e-08
1.40071e-06
-4.12847e-08
1.43358e-06
-3.28712e-08
1.45768e-06
-2.40958e-08
1.47312e-06
-1.54363e-08
1.47999e-06
-6.87399e-09
1.47821e-06
1.77792e-09
1.46841e-06
9.80046e-09
1.45196e-06
1.6455e-08
1.43024e-06
2.17177e-08
1.4045e-06
2.57381e-08
1.37587e-06
2.86338e-08
1.34531e-06
3.05515e-08
1.31372e-06
3.15969e-08
1.28187e-06
3.18431e-08
1.25049e-06
3.13829e-08
1.22014e-06
3.0347e-08
1.19125e-06
2.88937e-08
1.16407e-06
2.71787e-08
1.13874e-06
2.5331e-08
1.1153e-06
2.34424e-08
1.09373e-06
2.15693e-08
1.07398e-06
1.9745e-08
1.05599e-06
1.79926e-08
1.03966e-06
1.63315e-08
1.02488e-06
1.47785e-08
1.01153e-06
1.33476e-08
9.99487e-07
1.20479e-08
9.88605e-07
1.08816e-08
9.78761e-07
9.84374e-09
9.69838e-07
8.9237e-09
9.6173e-07
8.10785e-09
9.54346e-07
7.38363e-09
9.47603e-07
6.7432e-09
9.41417e-07
6.18593e-09
9.35709e-07
5.70815e-09
9.30394e-07
5.31477e-09
9.25389e-07
5.00486e-09
9.20609e-07
4.78009e-09
9.15975e-07
4.63431e-09
9.11395e-07
4.57948e-09
9.06785e-07
4.61039e-09
9.02013e-07
4.77141e-09
8.96976e-07
5.03734e-09
8.91472e-07
5.50411e-09
8.85407e-07
6.06491e-09
8.78439e-07
6.96778e-09
8.70521e-07
7.91839e-09
8.60942e-07
9.57871e-09
8.4991e-07
1.10319e-08
8.35732e-07
1.41779e-08
8.19598e-07
1.61346e-08
7.97009e-07
2.2589e-08
7.72718e-07
2.42907e-08
7.33649e-07
3.90687e-08
6.97656e-07
3.59936e-08
6.23044e-07
7.46115e-08
5.09333e-08
5.72111e-07
-1.61914e-08
3.08725e-07
-7.29395e-08
3.34104e-07
-1.12333e-07
2.47578e-07
-1.02053e-07
1.16185e-07
-3.71073e-08
-3.40185e-08
8.77434e-08
-1.75635e-07
2.64037e-07
-2.95364e-07
4.83055e-07
-4.00747e-07
7.3713e-07
-4.92421e-07
1.0171e-06
-5.66836e-07
1.31278e-06
-6.17233e-07
1.60974e-06
-6.40482e-07
1.90038e-06
-6.42975e-07
2.17704e-06
-6.25238e-07
2.43413e-06
-5.9119e-07
2.66829e-06
-5.45263e-07
2.87763e-06
-4.91343e-07
3.06105e-06
-4.32518e-07
3.21801e-06
-3.71004e-07
3.3482e-06
-3.08186e-07
3.45154e-06
-2.44891e-07
3.52806e-06
-1.81572e-07
3.57833e-06
-1.1862e-07
3.60324e-06
-5.63324e-08
3.60382e-06
4.77114e-09
3.57852e-06
6.97075e-08
3.52933e-06
1.32939e-07
3.45727e-06
1.96745e-07
3.36129e-06
2.61861e-07
3.2425e-06
3.28518e-07
3.0999e-06
3.98107e-07
2.93363e-06
4.67678e-07
2.74849e-06
5.39846e-07
2.54188e-06
6.04519e-07
2.32737e-06
6.60398e-07
2.06409e-06
6.76924e-07
1.70711e-06
6.41954e-07
1.32362e-06
5.68597e-07
9.7837e-07
4.69836e-07
7.16944e-07
3.37334e-07
5.40895e-07
2.00186e-07
4.37625e-07
8.4646e-08
4.09818e-07
-2.5534e-08
4.53029e-07
-1.32862e-07
5.42465e-07
-2.07535e-07
6.64573e-07
-2.64104e-07
8.38005e-07
-3.42282e-07
1.04378e-06
-3.78603e-07
1.18721e-06
-2.80804e-07
1.3267e-06
-1.99837e-07
1.54142e-06
-1.91514e-07
1.64728e-06
-1.25711e-07
1.44823e-06
2.76795e-08
9.48827e-07
2.93095e-07
1.92106e-07
6.50036e-07
-6.27811e-07
8.61479e-07
-1.36405e-06
9.98272e-07
-1.97093e-06
1.09915e-06
-2.49583e-06
1.12653e-06
-2.97005e-06
1.09806e-06
-3.39646e-06
1.0357e-06
-3.77736e-06
9.55216e-07
-4.11602e-06
8.68778e-07
-4.41664e-06
7.83784e-07
-4.68373e-06
7.04224e-07
-4.92153e-06
6.31629e-07
-5.13368e-06
5.66014e-07
-5.32307e-06
5.06547e-07
-5.49194e-06
4.52085e-07
-5.64194e-06
4.01539e-07
-5.77419e-06
3.53974e-07
-5.88968e-06
3.08969e-07
-5.98896e-06
2.6583e-07
-6.07212e-06
2.23709e-07
-6.13885e-06
1.81767e-07
-6.18842e-06
1.39107e-07
-6.21974e-06
9.48964e-08
-6.23155e-06
4.85742e-08
-6.22188e-06
-6.4435e-10
-6.1881e-06
-5.17034e-08
-6.12854e-06
-1.04902e-07
-6.04247e-06
-1.59028e-07
-5.9299e-06
-2.12667e-07
-5.79183e-06
-2.64253e-07
-5.62999e-06
-3.12321e-07
-5.44682e-06
-3.5563e-07
-5.2452e-06
-3.9331e-07
-5.0282e-06
-4.24899e-07
-4.79891e-06
-4.5034e-07
-4.56026e-06
-4.69877e-07
-4.31497e-06
-4.83912e-07
-4.06552e-06
-4.9286e-07
-3.81421e-06
-4.97119e-07
-3.56312e-06
-4.97136e-07
-3.31404e-06
-4.93506e-07
-3.06839e-06
-4.87043e-07
-2.82701e-06
-4.78805e-07
-2.59015e-06
-4.70005e-07
-2.35742e-06
-4.61834e-07
-2.12794e-06
-4.55265e-07
-1.90053e-06
-4.50892e-07
-1.67397e-06
-4.48781e-07
-1.44733e-06
-4.48409e-07
-1.22019e-06
-4.48819e-07
-9.92821e-07
-4.48689e-07
-7.66314e-07
-4.4648e-07
-5.42512e-07
-4.40776e-07
-3.23854e-07
-4.30458e-07
-1.13044e-07
-4.14993e-07
8.80008e-08
-3.95261e-07
2.76689e-07
-3.71555e-07
4.51598e-07
-3.44392e-07
6.11887e-07
-3.15558e-07
7.57632e-07
-2.86522e-07
8.89605e-07
-2.58604e-07
1.00908e-06
-2.32797e-07
1.11758e-06
-2.09705e-07
1.21672e-06
-1.89543e-07
1.30799e-06
-1.72145e-07
1.39264e-06
-1.57022e-07
1.47153e-06
-1.4344e-07
1.54513e-06
-1.30555e-07
1.61351e-06
-1.17634e-07
1.67636e-06
-1.04135e-07
1.73325e-06
-8.97634e-08
1.78377e-06
-7.46135e-08
1.8274e-06
-5.90638e-08
1.86403e-06
-4.35068e-08
1.89425e-06
-2.84397e-08
1.91856e-06
-1.45128e-08
1.93718e-06
-2.16012e-09
1.95038e-06
8.51101e-09
1.95883e-06
1.72929e-08
1.96326e-06
2.42027e-08
1.96441e-06
2.93976e-08
1.96298e-06
3.30344e-08
1.95956e-06
3.52624e-08
1.95468e-06
3.62645e-08
1.94877e-06
3.62579e-08
1.94217e-06
3.5486e-08
1.93517e-06
3.41827e-08
1.92795e-06
3.25464e-08
1.92067e-06
3.07255e-08
1.91342e-06
2.88164e-08
1.90629e-06
2.68742e-08
1.89936e-06
2.49266e-08
1.89271e-06
2.29852e-08
1.88643e-06
2.10549e-08
1.88064e-06
1.91422e-08
1.87543e-06
1.72573e-08
1.87089e-06
1.54134e-08
1.86711e-06
1.36251e-08
1.86413e-06
1.19073e-08
1.86196e-06
1.02752e-08
1.8606e-06
8.74491e-09
1.86001e-06
7.3372e-09
1.86011e-06
6.08161e-09
1.86083e-06
4.99332e-09
1.86204e-06
4.09621e-09
1.86364e-06
3.40724e-09
1.86549e-06
2.92913e-09
1.86748e-06
2.64883e-09
1.86948e-06
2.57679e-09
1.87139e-06
2.69882e-09
1.87308e-06
3.07968e-09
1.87444e-06
3.67845e-09
1.87529e-06
4.65941e-09
1.87554e-06
5.81706e-09
1.8749e-06
7.60523e-09
1.87338e-06
9.43501e-09
1.87039e-06
1.25691e-08
1.86622e-06
1.5204e-08
1.85947e-06
2.09249e-08
1.85124e-06
2.43674e-08
1.83821e-06
3.56175e-08
1.82342e-06
3.90803e-08
1.79962e-06
6.28738e-08
1.77297e-06
6.26387e-08
1.73195e-06
1.15631e-07
1.03802e-07
1.67908e-06
1.97654e-07
1.11071e-07
3.25507e-07
2.06251e-07
4.30941e-07
1.42144e-07
5.47186e-07
-5.9825e-11
7.04972e-07
-1.91804e-07
9.00209e-07
-3.70872e-07
1.13092e-06
-5.26071e-07
1.3846e-06
-6.54435e-07
1.64556e-06
-7.53373e-07
1.89836e-06
-8.19637e-07
2.13254e-06
-8.51415e-07
2.34504e-06
-8.52982e-07
2.53332e-06
-8.31256e-07
2.69866e-06
-7.90581e-07
2.84404e-06
-7.36569e-07
2.97282e-06
-6.74037e-07
3.08776e-06
-6.06285e-07
3.19045e-06
-5.35212e-07
3.28119e-06
-4.61744e-07
3.35929e-06
-3.86283e-07
3.42349e-06
-3.09094e-07
3.47239e-06
-2.30473e-07
3.50466e-06
-1.50892e-07
3.51922e-06
-7.08864e-08
3.51511e-06
8.87453e-09
3.49428e-06
9.0542e-08
3.4563e-06
1.7092e-07
3.4025e-06
2.50542e-07
3.33417e-06
3.30195e-07
3.25308e-06
4.09605e-07
3.16126e-06
4.89931e-07
3.06097e-06
5.67961e-07
2.95707e-06
6.43749e-07
2.84935e-06
7.12244e-07
2.73988e-06
7.69861e-07
2.60479e-06
8.12016e-07
2.43232e-06
8.14427e-07
2.23194e-06
7.68978e-07
2.02067e-06
6.81103e-07
1.79954e-06
5.5846e-07
1.59619e-06
4.03539e-07
1.43927e-06
2.41567e-07
1.33349e-06
8.02432e-08
1.28103e-06
-8.0397e-08
1.2792e-06
-2.05706e-07
1.35702e-06
-3.41929e-07
1.48411e-06
-4.69364e-07
1.6469e-06
-5.41395e-07
1.80402e-06
-4.37929e-07
1.76391e-06
-1.5972e-07
1.46103e-06
1.11362e-07
8.41531e-07
4.93788e-07
-5.92174e-08
9.28428e-07
-9.4144e-07
1.17532e-06
-1.62476e-06
1.33336e-06
-2.19057e-06
1.42728e-06
-2.66531e-06
1.47301e-06
-3.03679e-06
1.47063e-06
-3.33418e-06
1.42393e-06
-3.58371e-06
1.34758e-06
-3.80239e-06
1.25439e-06
-4.00211e-06
1.15494e-06
-4.18983e-06
1.05649e-06
-4.36941e-06
9.63364e-07
-4.54272e-06
8.77535e-07
-4.71034e-06
7.99254e-07
-4.87202e-06
7.27686e-07
-5.02692e-06
6.61448e-07
-5.17391e-06
5.99075e-07
-5.31171e-06
5.39342e-07
-5.43914e-06
4.81406e-07
-5.55494e-06
4.24765e-07
-5.65805e-06
3.68939e-07
-5.74755e-06
3.13213e-07
-5.82234e-06
2.56557e-07
-5.8809e-06
1.97668e-07
-5.92125e-06
1.35241e-07
-5.94085e-06
6.8182e-08
-5.93741e-06
-4.0896e-09
-5.90865e-06
-8.04578e-08
-5.85315e-06
-1.60404e-07
-5.77006e-06
-2.42116e-07
-5.65953e-06
-3.23203e-07
-5.52273e-06
-4.01055e-07
-5.36177e-06
-4.73275e-07
-5.17951e-06
-5.37893e-07
-4.9792e-06
-5.93622e-07
-4.76421e-06
-6.39885e-07
-4.53779e-06
-6.76761e-07
-4.30288e-06
-7.04792e-07
-4.06208e-06
-7.24713e-07
-3.81774e-06
-7.37193e-07
-3.57208e-06
-7.42779e-07
-3.32718e-06
-7.42042e-07
-3.08489e-06
-7.35788e-07
-2.84671e-06
-7.25223e-07
-2.61351e-06
-7.1201e-07
-2.38541e-06
-6.98107e-07
-2.16176e-06
-6.85481e-07
-1.9413e-06
-6.75727e-07
-1.72238e-06
-6.69808e-07
-1.50331e-06
-6.67848e-07
-1.28274e-06
-6.68979e-07
-1.05998e-06
-6.71587e-07
-8.35198e-07
-6.73468e-07
-6.09649e-07
-6.7203e-07
-3.85644e-07
-6.64781e-07
-1.66122e-07
-6.4998e-07
4.61625e-08
-6.27278e-07
2.47892e-07
-5.9699e-07
4.35983e-07
-5.59646e-07
6.08596e-07
-5.17005e-07
7.64207e-07
-4.71169e-07
9.02182e-07
-4.24497e-07
1.02311e-06
-3.79529e-07
1.12886e-06
-3.38552e-07
1.22221e-06
-3.03059e-07
1.30615e-06
-2.73476e-07
1.38326e-06
-2.4926e-07
1.45547e-06
-2.29233e-07
1.52398e-06
-2.11945e-07
1.58936e-06
-1.95933e-07
1.65168e-06
-1.79958e-07
1.71067e-06
-1.6312e-07
1.76581e-06
-1.44911e-07
1.8165e-06
-1.25302e-07
1.86207e-06
-1.04635e-07
1.90208e-06
-8.35107e-08
1.9364e-06
-6.27633e-08
1.96517e-06
-4.32869e-08
1.98881e-06
-2.57968e-08
2.00798e-06
-1.066e-08
2.02327e-06
2.00577e-09
2.03524e-06
1.22311e-08
2.04433e-06
2.03046e-08
2.05103e-06
2.63417e-08
2.05573e-06
3.05576e-08
2.05884e-06
3.31551e-08
2.06076e-06
3.43389e-08
2.06186e-06
3.43837e-08
2.06246e-06
3.35802e-08
2.0628e-06
3.22125e-08
2.063e-06
3.05236e-08
2.06312e-06
2.86935e-08
2.06316e-06
2.68375e-08
2.06307e-06
2.50149e-08
2.06282e-06
2.32397e-08
2.06238e-06
2.14934e-08
2.06178e-06
1.97393e-08
2.0611e-06
1.79361e-08
2.06047e-06
1.60477e-08
2.06004e-06
1.40512e-08
2.06001e-06
1.19436e-08
2.06054e-06
9.74493e-09
2.06178e-06
7.49804e-09
2.06385e-06
5.26591e-09
2.0668e-06
3.13906e-09
2.07063e-06
1.15629e-09
2.07531e-06
-5.78549e-10
2.08074e-06
-2.02533e-09
2.08681e-06
-3.14222e-09
2.09338e-06
-3.92121e-09
2.10029e-06
-4.33534e-09
2.10742e-06
-4.4216e-09
2.1146e-06
-4.10239e-09
2.12175e-06
-3.47001e-09
2.12872e-06
-2.31897e-09
2.13547e-06
-9.32331e-10
2.14182e-06
1.26321e-09
2.14773e-06
3.52489e-09
2.15295e-06
7.34456e-09
2.15749e-06
1.06661e-08
2.16098e-06
1.74326e-08
2.1633e-06
2.20467e-08
2.16423e-06
3.46905e-08
2.16273e-06
4.05781e-08
2.1602e-06
6.54061e-08
2.15122e-06
7.16169e-08
2.1457e-06
1.21154e-07
1.29336e-07
2.12016e-06
1.1937e-07
-8.29924e-09
2.34185e-07
9.14365e-08
3.99658e-07
-2.33297e-08
6.37402e-07
-2.37804e-07
9.11812e-07
-4.66214e-07
1.20402e-06
-6.63083e-07
1.48984e-06
-8.11893e-07
1.74724e-06
-9.11827e-07
1.96175e-06
-9.67888e-07
2.12908e-06
-9.86962e-07
2.25475e-06
-9.77085e-07
2.34862e-06
-9.46858e-07
2.42143e-06
-9.04067e-07
2.48521e-06
-8.54353e-07
2.54917e-06
-8.00537e-07
2.61806e-06
-7.42928e-07
2.69256e-06
-6.80777e-07
2.77069e-06
-6.13348e-07
2.84888e-06
-5.39931e-07
2.92284e-06
-4.60242e-07
2.9883e-06
-3.74557e-07
3.04174e-06
-2.8391e-07
3.08101e-06
-1.90166e-07
3.10533e-06
-9.52049e-08
3.11608e-06
-1.87487e-09
3.11321e-06
9.34072e-08
3.09884e-06
1.85289e-07
3.07468e-06
2.74707e-07
3.04213e-06
3.62748e-07
3.00159e-06
4.50142e-07
2.95392e-06
5.37605e-07
2.89811e-06
6.23766e-07
2.83566e-06
7.06203e-07
2.76696e-06
7.80944e-07
2.69375e-06
8.43069e-07
2.6209e-06
8.84866e-07
2.5348e-06
9.00528e-07
2.42921e-06
8.74568e-07
2.29944e-06
8.10871e-07
2.15618e-06
7.01718e-07
2.01114e-06
5.48578e-07
1.86989e-06
3.82816e-07
1.78819e-06
1.61946e-07
1.70495e-06
2.83864e-09
1.62815e-06
-1.28898e-07
1.6962e-06
-4.09986e-07
1.83633e-06
-6.09489e-07
1.73899e-06
-4.4406e-07
1.35875e-06
-5.76824e-08
7.01938e-07
4.97088e-07
-1.78581e-07
9.91882e-07
-9.94353e-07
1.30956e-06
-1.6116e-06
1.54568e-06
-2.11428e-06
1.67799e-06
-2.51507e-06
1.73415e-06
-2.82928e-06
1.7415e-06
-3.07101e-06
1.71474e-06
-3.2583e-06
1.65792e-06
-3.41229e-06
1.57791e-06
-3.54956e-06
1.48486e-06
-3.6818e-06
1.38663e-06
-3.81579e-06
1.28893e-06
-3.95451e-06
1.19521e-06
-4.09837e-06
1.10722e-06
-4.24631e-06
1.02547e-06
-4.39646e-06
9.49407e-07
-4.54651e-06
8.77735e-07
-4.69392e-06
8.08858e-07
-4.83617e-06
7.41326e-07
-4.97102e-06
6.7419e-07
-5.09674e-06
6.07123e-07
-5.21213e-06
5.40161e-07
-5.3164e-06
4.73208e-07
-5.40878e-06
4.0559e-07
-5.48809e-06
3.35874e-07
-5.55242e-06
2.61995e-07
-5.59898e-06
1.81803e-07
-5.62453e-06
9.37307e-08
-5.62496e-06
-3.66046e-09
-5.59941e-06
-1.06013e-07
-5.54494e-06
-2.14868e-07
-5.46085e-06
-3.26203e-07
-5.34799e-06
-4.36066e-07
-5.20841e-06
-5.4064e-07
-5.04515e-06
-6.36536e-07
-4.86187e-06
-7.21173e-07
-4.66242e-06
-7.9307e-07
-4.45046e-06
-8.51842e-07
-4.2292e-06
-8.98023e-07
-4.00127e-06
-9.3272e-07
-3.76882e-06
-9.57163e-07
-3.53373e-06
-9.72283e-07
-3.2979e-06
-9.78614e-07
-3.06334e-06
-9.76602e-07
-2.83208e-06
-9.67049e-07
-2.60586e-06
-9.51439e-07
-2.38577e-06
-9.32102e-07
-2.17195e-06
-9.1193e-07
-1.96346e-06
-8.93962e-07
-1.75849e-06
-8.80703e-07
-1.55465e-06
-8.73644e-07
-1.34949e-06
-8.73015e-07
-1.14088e-06
-8.77583e-07
-9.27517e-07
-8.84952e-07
-7.09166e-07
-8.91819e-07
-4.86789e-07
-8.94408e-07
-2.62739e-07
-8.88831e-07
-4.0212e-08
-8.72507e-07
1.76657e-07
-8.44147e-07
3.83352e-07
-8.03685e-07
5.76899e-07
-7.53193e-07
7.55543e-07
-6.95648e-07
9.18259e-07
-6.33885e-07
1.06377e-06
-5.70005e-07
1.1903e-06
-5.06063e-07
1.29679e-06
-4.45041e-07
1.38437e-06
-3.90643e-07
1.45668e-06
-3.45785e-07
1.51863e-06
-3.11208e-07
1.57475e-06
-2.85356e-07
1.62815e-06
-2.6534e-07
1.68027e-06
-2.48057e-07
1.73131e-06
-2.30995e-07
1.78075e-06
-2.1256e-07
1.82788e-06
-1.92045e-07
1.872e-06
-1.69419e-07
1.91246e-06
-1.45098e-07
1.94873e-06
-1.19782e-07
1.98038e-06
-9.44054e-08
2.00714e-06
-7.00541e-08
2.02912e-06