/*--------------------------------*- C++ -*----------------------------------*\
  =========                 |
  \\      /  F ield         | OpenFOAM: The Open Source CFD Toolbox
   \\    /   O peration     | Website:  https://openfoam.org
    \\  /    A nd           | Version:  7
     \\/     M anipulation  |
\*---------------------------------------------------------------------------*/
FoamFile
{
    version     2.0;
    format      ascii;
    class       volScalarField;
    location    "0.071";
    object      s_0;
}
// * * * * * * * * * * * * * * * * * * * * * * * * * * * * * * * * * * * * * //

dimensions      [0 0 0 0 0 0 0];

internalField   nonuniform List<scalar> 
12225
(
1
1
1
1
1
1
1
1
1
1
1
1
1
1
1
1
1
1
1
1
1
1
1
1
1
1
1
1
1
1
1
1
1
1
1
1
1
1
1
1
1
1
1
1
1
1
1
1
1
1
1
1
1
1
1
1
1
1
1
1
1
1
1
1
1
1
1
1
1
1
1
1
1
1
1
1
1
1
1
1
1
1
1
1
1
1
1
1
1
1
1
1
1
1
1
1
1
1
1
1
1
1
1
1
1
1
1
1
1
1
1
1
1
1
1
1
1
1
1
1
1
1
1
1
1
1
1
1
1
1
1
1
1
1
1
1
1
1
1
1
1
1
1
1
1
1
1
1
1
1
1
1
1
1
1
1
1
1
1
1
1
1
1
1
1
1
1
1
1
1
1
1
1
1
1
1
1
1
1
1
1
1
1
1
1
1
1
1
1
1
1
1
1
1
1
1
1
1
1
1
1
1
1
1
1
1
1
1
1
1
1
1
1
1
1
1
1
1
1
1
1
1
1
1
1
1
1
1
1
1
1
1
1
1
1
1
1
1
1
1
1
1
1
1
1
1
1
1
1
1
1
1
1
1
1
1
1
1
1
1
1
1
1
1
1
1
1
1
1
1
1
1
1
1
1
1
1
1
1
1
1
1
1
1
1
1
1
1
1
1
1
1
1
1
1
1
1
1
1
1
1
1
1
1
1
1
1
1
1
1
1
1
1
1
1
1
1
1
1
1
1
1
1
1
1
1
1
1
1
1
1
1
1
1
1
1
1
1
1
1
1
1
1
1
1
1
1
1
1
1
1
1
1
1
1
1
1
1
1
1
1
1
1
1
1
1
1
1
1
1
1
1
1
1
1
1
1
1
1
1
1
1
1
1
1
1
1
1
1
1
1
1
1
1
1
1
1
1
1
1
1
1
1
1
1
1
1
1
1
1
1
1
1
1
1
1
1
1
1
1
1
1
1
1
1
1
1
1
1
1
1
1
1
1
1
1
1
1
1
1
1
1
1
1
1
1
1
1
1
1
1
1
1
1
1
1
1
1
1
1
1
1
1
1
1
1
1
1
1
1
1
1
1
1
1
1
1
1
1
1
1
1
1
1
1
1
1
1
1
1
1
1
1
1
1
1
1
1
1
1
1
1
1
1
1
1
1
1
1
1
1
1
1
1
1
1
1
1
1
1
1
1
1
1
1
1
1
1
1
1
1
1
1
1
1
1
1
1
1
1
0.0348533
0.097365
0.140945
0.163396
0.173013
0.176561
0.18763
0.215702
0.254893
0.296144
0.338413
0.37126
0.399334
0.432151
0.470336
0.500738
0.521854
0.536873
0.549814
0.559774
0.563328
0.563386
0.56246
0.559718
0.552829
0.544294
0.531933
0.515565
0.499172
0.473645
0.44133
0.412156
0.35167
0.242217
0.168485
0.108672
0.0278408
0.00831464
0.0110032
0.013902
0.0152877
0.0173064
0.0208282
0.0245095
0.0285462
0.0328836
0.036575
0.0385454
0.0394007
0.0408868
0.0489842
0.0709001
0.0908952
0.114628
0.145672
0.235795
0.56704
0.778661
0.818873
0.825098
0.829144
0.832645
0.8355
0.837459
0.83922
0.841068
0.842825
0.843893
0.844934
0.845942
0.846945
0.847858
0.848705
0.849499
0.85021
0.850773
0.851523
0.852225
0.852566
0.853238
0.853973
0.854473
0.854897
0.855499
0.855788
0.856202
0.856744
0.857075
0.857512
0.857759
0.857999
0.85811
0.858181
0.858191
0.857992
0.857514
0.857072
0.856566
0.856135
0.855648
0.855139
0.854844
0.854187
0.853451
0.852395
0.850816
0.848891
0.846463
0.843345
0.839348
0.834235
0.827664
0.819369
0.809036
0.796309
0.780944
0.762773
0.741268
0.716168
0.68673
0.651318
0.609317
0.559998
0.500567
0.431673
0.357703
0.277844
0.194898
0.125677
0.0771252
0.0451249
0.0251236
0.0132662
0.00662215
0.00311718
0.00138251
0.00057922
0.000229597
8.33207e-05
2.52504e-05
1.01857e-05
5.26786e-06
2.5873e-06
1.23657e-06
5.76185e-07
2.61952e-07
1.16421e-07
5.06942e-08
2.16774e-08
9.12448e-09
3.78994e-09
1.55731e-09
6.34665e-10
2.57174e-10
1.03858e-10
4.18864e-11
1.68981e-11
6.82668e-12
2.76335e-12
1.1209e-12
4.55514e-13
1.85351e-13
7.5435e-14
3.06494e-14
1.2397e-14
4.97385e-15
1.97155e-15
7.6906e-16
2.94192e-16
1.10043e-16
4.0155e-17
1.42665e-17
4.92643e-18
1.65031e-18
5.35163e-19
1.67414e-19
5.04113e-20
1.42772e-20
3.82773e-21
-3.66128e-21
0.023703
0.0731182
0.0918881
0.0870358
0.0580746
0.0415858
0.0560398
0.0858075
0.146672
0.226594
0.314759
0.399463
0.479472
0.546132
0.583774
0.607397
0.621323
0.631394
0.639626
0.649489
0.656265
0.664884
0.672772
0.677311
0.686517
0.691947
0.691963
0.690039
0.684378
0.670722
0.653211
0.612769
0.567873
0.490181
0.339339
0.227177
0.130252
0.0711536
0.040277
0.0258531
0.0183462
0.0154597
0.0165203
0.0212305
0.0313585
0.0501948
0.0737728
0.0899534
0.097249
0.104394
0.108341
0.110717
0.115597
0.197286
0.586292
0.747833
0.797903
0.823172
0.831123
0.835795
0.839446
0.842695
0.845016
0.847205
0.849208
0.850838
0.852185
0.853342
0.854403
0.855194
0.856121
0.856942
0.857717
0.858359
0.858874
0.859393
0.859953
0.860202
0.860363
0.860572
0.860948
0.86131
0.861657
0.862183
0.862682
0.863516
0.864519
0.865781
0.867024
0.868221
0.869535
0.870742
0.872025
0.873471
0.875214
0.876874
0.877847
0.878605
0.879608
0.880033
0.880466
0.8808
0.881001
0.8814
0.88205
0.883251
0.885134
0.887748
0.891348
0.896045
0.90202
0.909368
0.918182
0.9284
0.939306
0.949908
0.958842
0.965352
0.970508
0.974541
0.977601
0.979822
0.981231
0.981908
0.981903
0.979913
0.97204
0.961883
0.941935
0.90155
0.837473
0.750266
0.642717
0.523007
0.404842
0.301603
0.217949
0.152976
0.104432
0.0694046
0.044924
0.0283255
0.0174
0.0104168
0.00608104
0.0034646
0.00192859
0.00105029
0.000560394
0.000293393
0.000150946
7.64213e-05
3.81192e-05
1.87512e-05
9.10254e-06
4.36224e-06
2.06404e-06
9.64155e-07
4.44566e-07
2.02347e-07
9.09434e-08
4.03842e-08
1.77256e-08
7.68858e-09
3.29161e-09
1.3879e-09
5.74713e-10
2.33076e-10
9.23163e-11
3.5647e-11
1.33901e-11
4.89108e-12
1.73291e-12
5.96271e-13
1.98202e-13
6.38966e-14
1.98191e-14
5.67662e-15
1.53273e-15
-6.91485e-15
0.0110859
0.0246707
0.0372505
0.034217
0.0287149
0.0432447
0.0830728
0.170988
0.302442
0.422692
0.519367
0.575325
0.604683
0.616135
0.620612
0.625433
0.626795
0.627331
0.626612
0.626459
0.626922
0.628445
0.632094
0.638251
0.645677
0.655619
0.667286
0.676002
0.683205
0.69044
0.691813
0.689879
0.683292
0.666312
0.628156
0.542828
0.393882
0.247295
0.144035
0.0888699
0.0594835
0.0457797
0.0456512
0.0499339
0.0629155
0.0852932
0.122565
0.170704
0.196317
0.195394
0.185947
0.223518
0.515347
0.712049
0.794691
0.820365
0.830944
0.835878
0.838585
0.841302
0.843161
0.84456
0.845954
0.847318
0.848352
0.848826
0.849033
0.849103
0.849133
0.849088
0.849062
0.849009
0.848871
0.84856
0.848155
0.847647
0.846881
0.845782
0.844532
0.843202
0.841703
0.840802
0.840437
0.840331
0.840779
0.842081
0.844719
0.848662
0.852148
0.855813
0.859766
0.863671
0.86781
0.87181
0.875872
0.879226
0.882287
0.885823
0.888921
0.890664
0.891527
0.891706
0.889969
0.887219
0.883441
0.879328
0.875864
0.872841
0.870204
0.86833
0.867436
0.867358
0.868043
0.869702
0.873386
0.880281
0.89158
0.907485
0.92525
0.941945
0.955105
0.965614
0.974159
0.980991
0.986386
0.990578
0.993624
0.995605
0.996709
0.997213
0.997315
0.99675
0.994427
0.988646
0.976056
0.946908
0.870106
0.743661
0.604458
0.468319
0.349309
0.252813
0.177579
0.121186
0.0804741
0.0520913
0.0329289
0.020367
0.0123504
0.00735759
0.00431506
0.00249638
0.00142746
0.000808384
0.000454396
0.000254197
0.000141926
7.92538e-05
4.42327e-05
2.45263e-05
1.34264e-05
7.22489e-06
3.80974e-06
1.96471e-06
9.89124e-07
4.85685e-07
2.32205e-07
1.0803e-07
4.88789e-08
2.15937e-08
9.30714e-09
3.91866e-09
1.60753e-09
6.44325e-10
2.50654e-10
9.53179e-11
3.48813e-11
1.24752e-11
4.30908e-12
1.16922e-12
0.00288366
0.00746732
0.00886507
0.024116
0.0808733
0.22856
0.40321
0.538907
0.601025
0.624919
0.635085
0.633998
0.629199
0.618881
0.599092
0.581074
0.554989
0.533379
0.507839
0.491486
0.479621
0.474986
0.476609
0.481621
0.490554
0.509556
0.529036
0.557107
0.595756
0.628975
0.655131
0.674927
0.681166
0.680824
0.676343
0.659205
0.615843
0.512074
0.371664
0.253838
0.183152
0.136374
0.132555
0.138187
0.15394
0.187104
0.264308
0.32693
0.326116
0.351946
0.50306
0.657688
0.765634
0.809743
0.826289
0.832263
0.834993
0.837076
0.839034
0.840964
0.842251
0.84293
0.843359
0.843495
0.843509
0.84341
0.843268
0.84277
0.841942
0.841531
0.841097
0.840402
0.839377
0.837626
0.834954
0.831332
0.826695
0.82085
0.813885
0.806329
0.799164
0.795371
0.794261
0.79428
0.796825
0.80341
0.813061
0.823667
0.832518
0.840213
0.846587
0.85241
0.858202
0.864242
0.870547
0.876433
0.882394
0.888284
0.895565
0.902031
0.908691
0.915215
0.921595
0.926374
0.928981
0.929182
0.924688
0.916297
0.905143
0.892949
0.883201
0.875906
0.870815
0.867754
0.865899
0.864907
0.864816
0.865871
0.870376
0.882489
0.90171
0.922348
0.939343
0.952851
0.963827
0.973065
0.980946
0.987456
0.992423
0.995752
0.997708
0.998828
0.999401
0.999531
0.999473
0.99908
0.997751
0.994524
0.988147
0.974434
0.939016
0.830876
0.655403
0.494068
0.359463
0.253814
0.174072
0.116204
0.075733
0.0483449
0.030329
0.0187585
0.0114729
0.00695803
0.00419439
0.00251737
0.00150473
0.000893212
0.000524266
0.000303279
0.000172448
9.61789e-05
5.25281e-05
2.80632e-05
1.46524e-05
7.47402e-06
3.7217e-06
1.80944e-06
8.57723e-07
3.96643e-07
1.78285e-07
7.82393e-08
3.34801e-08
1.40048e-08
5.69453e-09
2.26353e-09
8.68905e-10
3.25776e-10
1.17773e-10
3.77864e-11
0.000239083
0.00197563
0.0538527
0.214697
0.473628
0.596119
0.640955
0.649343
0.645154
0.634487
0.615758
0.577938
0.533696
0.47613
0.426656
0.377318
0.335784
0.306294
0.281987
0.268049
0.256423
0.256283
0.259843
0.270408
0.284693
0.315314
0.338488
0.362762
0.411217
0.449477
0.499277
0.576775
0.633501
0.664069
0.671521
0.669747
0.660489
0.629702
0.539795
0.417995
0.328654
0.291419
0.285263
0.289798
0.304207
0.334591
0.380658
0.510801
0.595665
0.650772
0.733231
0.789732
0.816404
0.826941
0.831033
0.832923
0.834655
0.835991
0.837086
0.837654
0.838072
0.838145
0.838221
0.838187
0.837171
0.835296
0.832847
0.829673
0.826826
0.825124
0.823818
0.821623
0.818574
0.814003
0.806954
0.797553
0.78611
0.772281
0.762642
0.760013
0.759539
0.760636
0.765358
0.772737
0.781432
0.792325
0.806044
0.820251
0.832638
0.843352
0.85179
0.858362
0.863126
0.867544
0.871573
0.875028
0.879065
0.884193
0.890823
0.898256
0.906673
0.915508
0.923936
0.932074
0.939755
0.946536
0.951923
0.955294
0.955697
0.951046
0.93844
0.920951
0.90337
0.891171
0.882693
0.875519
0.869388
0.865228
0.863491
0.863644
0.866607
0.878256
0.9041
0.930202
0.949106
0.96177
0.970706
0.9777
0.983668
0.98888
0.993099
0.99608
0.997928
0.998973
0.999526
0.999779
0.999843
0.999831
0.999736
0.999379
0.998234
0.994908
0.986333
0.963222
0.89075
0.709439
0.527615
0.379442
0.265661
0.181723
0.121818
0.0803032
0.0522282
0.033606
0.0214321
0.0135567
0.00849532
0.00526045
0.00321042
0.00192609
0.00113334
0.000652876
0.000367718
0.000202337
0.00010871
5.70235e-05
2.91942e-05
1.45913e-05
7.11538e-06
3.38663e-06
1.5711e-06
7.10601e-07
3.12255e-07
1.33993e-07
5.59364e-08
2.27846e-08
8.9888e-09
3.4511e-09
1.28388e-09
4.33918e-10
0.00566974
0.0676976
0.275518
0.570182
0.649399
0.662122
0.654816
0.62899
0.578004
0.527886
0.466418
0.410048
0.36254
0.320804
0.285683
0.255562
0.231164
0.211283
0.193524
0.180607
0.1694
0.161665
0.161524
0.165001
0.175004
0.195604
0.238356
0.277827
0.310583
0.351822
0.388241
0.4265
0.510491
0.601603
0.649132
0.662877
0.661324
0.651141
0.607301
0.513778
0.432785
0.404133
0.407179
0.413877
0.40674
0.423301
0.590864
0.687221
0.725732
0.769675
0.802479
0.818694
0.825723
0.828685
0.830466
0.831387
0.831893
0.832099
0.832261
0.832717
0.832861
0.832447
0.830999
0.828412
0.824818
0.819281
0.813365
0.809551
0.807746
0.806591
0.805102
0.802411
0.797343
0.788959
0.77704
0.762617
0.748147
0.741631
0.739726
0.739425
0.741221
0.747536
0.756436
0.765709
0.775798
0.788735
0.805948
0.825299
0.843222
0.858227
0.870407
0.879927
0.886948
0.893125
0.898515
0.902034
0.903653
0.903967
0.904207
0.906382
0.910476
0.91676
0.924557
0.932948
0.94131
0.949187
0.956406
0.962485
0.96758
0.971049
0.972101
0.969625
0.959142
0.939028
0.920752
0.90839
0.898045
0.887614
0.876901
0.868793
0.865444
0.865555
0.869802
0.886234
0.918226
0.945476
0.962695
0.973159
0.979902
0.984869
0.988976
0.992513
0.995344
0.997337
0.998586
0.999297
0.999671
0.999854
0.999928
0.99994
0.999928
0.999849
0.999546
0.998501
0.995085
0.984681
0.952668
0.845105
0.647886
0.476433
0.341448
0.239858
0.165807
0.113047
0.0761068
0.0506056
0.0332007
0.0214519
0.0136191
0.00847618
0.00516118
0.00307009
0.00178229
0.0010093
0.000557423
0.000300273
0.000157773
8.08837e-05
4.04519e-05
1.97417e-05
9.39458e-06
4.36023e-06
1.97019e-06
8.65772e-07
3.70266e-07
1.54264e-07
6.23561e-08
2.4469e-08
9.33119e-09
3.26881e-09
0.0507933
0.230529
0.595851
0.670253
0.666401
0.630796
0.563636
0.510172
0.470844
0.428578
0.382202
0.339674
0.302069
0.270066
0.243543
0.22114
0.201628
0.18369
0.166864
0.152217
0.140189
0.128073
0.119912
0.118548
0.120166
0.127193
0.145651
0.189807
0.245098
0.301188
0.339083
0.366254
0.42194
0.512245
0.595025
0.640151
0.653148
0.648621
0.623218
0.551891
0.498116
0.490497
0.491534
0.450867
0.448673
0.610056
0.725429
0.760799
0.788143
0.808048
0.818475
0.823226
0.825592
0.826726
0.826596
0.825396
0.824723
0.824514
0.824619
0.824449
0.822904
0.820372
0.816071
0.810653
0.804759
0.79826
0.791581
0.786021
0.782395
0.778903
0.774262
0.766927
0.756792
0.743781
0.727956
0.716587
0.711782
0.709779
0.709342
0.711774
0.719161
0.72573
0.732006
0.740139
0.751321
0.765737
0.783089
0.803202
0.823286
0.841993
0.858023
0.871285
0.881728
0.891098
0.899884
0.908102
0.914761
0.919438
0.922792
0.925545
0.928449
0.932258
0.937494
0.943696
0.950287
0.956419
0.961714
0.966157
0.970906
0.975586
0.979299
0.981599
0.981917
0.979343
0.968153
0.947003
0.931043
0.923829
0.915892
0.902353
0.888065
0.878418
0.875331
0.876643
0.88683
0.915148
0.944726
0.964914
0.976632
0.983419
0.987759
0.990957
0.993569
0.995723
0.997373
0.998507
0.999211
0.99961
0.999819
0.99992
0.999963
0.999972
0.999968
0.999933
0.999776
0.999188
0.997124
0.990272
0.96853
0.896154
0.715675
0.539714
0.397594
0.287435
0.204371
0.142963
0.0983067
0.0663432
0.0438506
0.0283305
0.0178612
0.0109761
0.00657025
0.00383032
0.00217492
0.00120323
0.000648761
0.000341062
0.000174846
8.74317e-05
4.26334e-05
2.02721e-05
9.39085e-06
4.2367e-06
1.85645e-06
7.9165e-07
3.27835e-07
1.31637e-07
5.1439e-08
1.86137e-08
0.306701
0.578333
0.690865
0.675951
0.6
0.525991
0.498752
0.471393
0.433444
0.390376
0.349109
0.313879
0.283321
0.257301
0.235871
0.216862
0.198784
0.180789
0.16337
0.148145
0.135036
0.122735
0.113675
0.108361
0.106902
0.109658
0.125074
0.169168
0.231928
0.288347
0.322556
0.344489
0.384019
0.472173
0.564853
0.621619
0.63997
0.639849
0.617841
0.56647
0.551303
0.549763
0.504692
0.46231
0.581285
0.732391
0.777473
0.796316
0.809886
0.816612
0.819872
0.821629
0.821538
0.81855
0.816282
0.815286
0.814968
0.814754
0.813738
0.811564
0.807915
0.803631
0.798646
0.792379
0.786243
0.779647
0.772771
0.765153
0.756852
0.746916
0.732747
0.714276
0.695695
0.677926
0.669485
0.665385
0.663523
0.662429
0.660985
0.657492
0.651785
0.64944
0.651084
0.654477
0.662806
0.673449
0.685284
0.698258
0.716583
0.740284
0.766203
0.790096
0.809896
0.826377
0.843197
0.861361
0.878937
0.893591
0.904997
0.914096
0.922053
0.929792
0.93789
0.94659
0.95552
0.963868
0.971004
0.976497
0.979344
0.980689
0.982402
0.985222
0.987471
0.988419
0.988022
0.984795
0.972452
0.952965
0.941754
0.937466
0.931464
0.917629
0.904301
0.8974
0.896456
0.901275
0.922383
0.949476
0.969459
0.981151
0.987445
0.990985
0.993328
0.995162
0.996666
0.997852
0.998713
0.999282
0.999625
0.999817
0.999917
0.999964
0.999982
0.999985
0.999981
0.999952
0.999824
0.999339
0.997638
0.991968
0.973937
0.914902
0.753738
0.581145
0.437929
0.322946
0.233059
0.164418
0.113213
0.0759679
0.0496132
0.0315107
0.0194571
0.0116818
0.00682192
0.00387715
0.00214566
0.00115688
0.000607932
0.000311455
0.000155565
7.57533e-05
3.59456e-05
1.66134e-05
7.46837e-06
3.26179e-06
1.3841e-06
5.693e-07
2.2803e-07
8.51325e-08
0.489862
0.701609
0.695556
0.578979
0.523209
0.504847
0.486759
0.455968
0.416955
0.377613
0.342763
0.314974
0.296361
0.286244
0.277432
0.264093
0.24656
0.226073
0.206286
0.192054
0.180222
0.168212
0.155555
0.149207
0.150549
0.177442
0.200535
0.231692
0.27339
0.310902
0.332747
0.353027
0.396248
0.486248
0.56852
0.613633
0.628284
0.626995
0.609643
0.593425
0.59016
0.559929
0.485411
0.533613
0.715373
0.77971
0.800466
0.809828
0.81464
0.816504
0.817386
0.81439
0.810073
0.808063
0.807282
0.806783
0.805523
0.803564
0.800736
0.797446
0.794032
0.789864
0.785389
0.780796
0.775352
0.769386
0.761598
0.75055
0.733943
0.709616
0.683491
0.66383
0.647337
0.639825
0.635153
0.628322
0.612494
0.59033
0.563805
0.539669
0.52209
0.511466
0.507696
0.511479
0.521612
0.534492
0.552417
0.568541
0.583206
0.597354
0.613152
0.631352
0.651414
0.671959
0.69369
0.719975
0.750233
0.779103
0.802742
0.822297
0.840779
0.860142
0.880543
0.902856
0.926308
0.94812
0.965447
0.977277
0.984358
0.988274
0.989826
0.989626
0.989932
0.991657
0.992634
0.992683
0.991811
0.987892
0.975569
0.96187
0.955594
0.953084
0.948281
0.937776
0.929009
0.925383
0.926148
0.936177
0.957867
0.974867
0.985559
0.991213
0.994085
0.995685
0.996809
0.997732
0.998485
0.999056
0.999451
0.999701
0.999848
0.999928
0.999968
0.999986
0.999991
0.999991
0.999985
0.999952
0.999818
0.999338
0.997714
0.992451
0.97592
0.922315
0.771879
0.602331
0.457522
0.33804
0.242783
0.169353
0.114651
0.0753062
0.0479931
0.0296899
0.0178403
0.0104206
0.0059212
0.0032753
0.00176461
0.000926353
0.000473942
0.000236327
0.000114832
5.43449e-05
2.50367e-05
1.12074e-05
4.87401e-06
2.05487e-06
8.43938e-07
3.24795e-07
0.569138
0.729942
0.606716
0.533453
0.51568
0.503069
0.483615
0.453162
0.422273
0.405652
0.398632
0.395169
0.393568
0.388706
0.375655
0.3597
0.344066
0.327919
0.317817
0.311227
0.304273
0.299869
0.294036
0.286445
0.283762
0.286418
0.290137
0.305777
0.326496
0.345343
0.357086
0.381294
0.439114
0.520671
0.582066
0.616434
0.626019
0.624733
0.617955
0.615479
0.595574
0.521499
0.502566
0.676073
0.771921
0.800237
0.809294
0.812842
0.814185
0.813809
0.808304
0.801085
0.798085
0.796511
0.794964
0.793738
0.792578
0.790822
0.788466
0.786316
0.784138
0.781294
0.777798
0.773363
0.767166
0.758323
0.744298
0.721305
0.694239
0.667191
0.645749
0.62908
0.618357
0.608797
0.589928
0.556048
0.507333
0.458137
0.416694
0.390755
0.378743
0.375177
0.383707
0.407466
0.437931
0.473662
0.501474
0.52688
0.547367
0.561009
0.569398
0.575944
0.582353
0.588932
0.595816
0.604369
0.616816
0.63265
0.648371
0.661807
0.674559
0.690578
0.714881
0.750301
0.798968
0.857988
0.910417
0.950093
0.974462
0.986903
0.992276
0.994427
0.994878
0.994464
0.994726
0.995538
0.995692
0.995468
0.994304
0.990076
0.980181
0.972287
0.969364
0.968139
0.96594
0.960343
0.955146
0.953466
0.955493
0.966851
0.980465
0.989241
0.994051
0.996405
0.99754
0.998183
0.998669
0.999078
0.999404
0.999641
0.999798
0.999893
0.999947
0.999976
0.999989
0.999995
0.999995
0.999994
0.999984
0.999941
0.999786
0.999261
0.99756
0.99215
0.974969
0.918115
0.762808
0.591779
0.444242
0.322603
0.226642
0.154081
0.101419
0.0646842
0.040013
0.0240308
0.0140254
0.00796168
0.00439883
0.00236664
0.00124035
0.000633335
0.00031507
0.000152657
7.20105e-05
3.30388e-05
1.47263e-05
6.36487e-06
2.68038e-06
1.06246e-06
0.619809
0.714732
0.561222
0.530263
0.520764
0.516177
0.503184
0.503105
0.509702
0.50979
0.496502
0.477205
0.465566
0.458108
0.455421
0.452879
0.442943
0.429965
0.41695
0.401749
0.386439
0.37677
0.369839
0.363271
0.358317
0.35627
0.357869
0.364534
0.375955
0.391063
0.411529
0.447432
0.512452
0.564742
0.60253
0.622266
0.629312
0.631827
0.629337
0.615568
0.558228
0.510998
0.608301
0.752056
0.796097
0.808279
0.811639
0.812495
0.811696
0.804791
0.794815
0.790523
0.788516
0.787422
0.786277
0.785179
0.784316
0.783401
0.78183
0.779668
0.777731
0.775241
0.770577
0.763826
0.753264
0.733954
0.710715
0.685927
0.65753
0.634062
0.614009
0.600893
0.588084
0.562098
0.5058
0.433001
0.367061
0.315261
0.28908
0.277457
0.274555
0.287471
0.313506
0.345247
0.387288
0.431386
0.473531
0.509626
0.537152
0.555106
0.564704
0.569718
0.573281
0.576147
0.57855
0.58096
0.584591
0.590415
0.597917
0.605363
0.611643
0.617183
0.623511
0.633196
0.651028
0.687517
0.760038
0.854266
0.925454
0.966034
0.985815
0.993852
0.996563
0.997405
0.9974
0.997259
0.997494
0.997665
0.997619
0.997307
0.996098
0.991994
0.985846
0.982227
0.981212
0.980868
0.980095
0.977303
0.974357
0.974015
0.976792
0.985524
0.992207
0.995987
0.997852
0.998689
0.999075
0.999311
0.999505
0.999669
0.999795
0.999882
0.999936
0.999968
0.999985
0.999993
0.999997
0.999997
0.999997
0.999993
0.999977
0.999918
0.999715
0.999051
0.996908
0.989922
0.9666
0.886296
0.707587
0.53663
0.391947
0.276155
0.187913
0.12365
0.0787843
0.0486704
0.0291867
0.0170074
0.00963794
0.00531491
0.00285353
0.00149195
0.000759773
0.000376783
0.000181927
8.54559e-05
3.90356e-05
1.72922e-05
7.46506e-06
3.04498e-06
0.638695
0.669191
0.554763
0.541035
0.55033
0.571227
0.58017
0.577293
0.563069
0.561564
0.569523
0.578692
0.58227
0.583885
0.5827
0.575743
0.569969
0.567224
0.560064
0.551144
0.538488
0.527936
0.518144
0.512881
0.508234
0.50539
0.504045
0.503706
0.510311
0.522417
0.545782
0.572396
0.597839
0.618468
0.631247
0.636873
0.639122
0.635949
0.624866
0.578703
0.528353
0.551289
0.717397
0.786274
0.805855
0.81073
0.811581
0.810965
0.805388
0.792248
0.785714
0.782739
0.781171
0.780171
0.779389
0.778649
0.777573
0.776087
0.775427
0.774022
0.770415
0.76438
0.755148
0.740659
0.724095
0.706746
0.680186
0.650457
0.624794
0.604104
0.590712
0.575852
0.547127
0.478714
0.391054
0.311822
0.256948
0.229693
0.216858
0.212918
0.219951
0.241196
0.269799
0.308409
0.35704
0.410904
0.462215
0.504103
0.534578
0.55459
0.566059
0.571926
0.574597
0.576288
0.577694
0.57898
0.580878
0.584254
0.589384
0.59552
0.601528
0.606675
0.61108
0.615782
0.622385
0.633432
0.65547
0.705369
0.809825
0.906028
0.958981
0.984224
0.994318
0.997626
0.998579
0.998821
0.998804
0.998826
0.998897
0.998885
0.998799
0.998459
0.997205
0.993991
0.99139
0.990341
0.990091
0.989897
0.989181
0.987089
0.986177
0.986606
0.989963
0.994588
0.99728
0.998666
0.99931
0.999589
0.999718
0.999796
0.999858
0.999908
0.999945
0.999969
0.999984
0.999992
0.999996
0.999998
0.999999
0.999998
0.999997
0.999989
0.999961
0.999862
0.999531
0.998424
0.994691
0.981864
0.937067
0.795017
0.604858
0.442452
0.31165
0.211756
0.139052
0.0883944
0.0544783
0.0325914
0.0189448
0.0107082
0.00588893
0.00315224
0.00164285
0.00083359
0.000411799
0.000197927
9.25497e-05
4.20004e-05
1.85776e-05
7.78956e-06
0.645428
0.653233
0.558716
0.555414
0.577153
0.611795
0.627909
0.650057
0.690877
0.710972
0.722044
0.735669
0.744249
0.748396
0.750074
0.74837
0.737907
0.723301
0.708197
0.690678
0.670032
0.653468
0.635635
0.621324
0.609296
0.601921
0.598982
0.601037
0.606415
0.61296
0.62009
0.629277
0.632851
0.637055
0.638875
0.639335
0.636156
0.622404
0.581575
0.544626
0.543428
0.67074
0.769239
0.800846
0.809265
0.810809
0.810669
0.80617
0.792973
0.783086
0.778752
0.776466
0.77513
0.774069
0.772998
0.77183
0.770654
0.769137
0.766118
0.761691
0.752401
0.737625
0.721748
0.710161
0.695027
0.668147
0.6397
0.617392
0.601146
0.589402
0.578526
0.549893
0.485898
0.392104
0.301586
0.236765
0.20279
0.185746
0.178048
0.176148
0.187575
0.210164
0.248793
0.29741
0.351439
0.409711
0.465704
0.512079
0.54497
0.565978
0.579353
0.585687
0.586535
0.585462
0.584185
0.583745
0.584208
0.586182
0.590412
0.59613
0.60247
0.608878
0.614771
0.619662
0.624282
0.631041
0.643077
0.665144
0.709522
0.802307
0.90004
0.957482
0.984223
0.994741
0.998207
0.999178
0.99946
0.999525
0.999551
0.999557
0.999549
0.999515
0.999401
0.998984
0.997714
0.996535
0.995927
0.995673
0.995486
0.995069
0.993893
0.993155
0.993157
0.994108
0.99663
0.998301
0.999187
0.999614
0.999805
0.999889
0.99993
0.999953
0.999969
0.99998
0.999988
0.999994
0.999997
0.999999
0.999999
0.999999
0.999999
0.999998
0.999994
0.999977
0.999916
0.999705
0.998971
0.996404
0.987313
0.955078
0.842857
0.645163
0.471286
0.331027
0.224177
0.1467
0.0929376
0.0570847
0.0340351
0.0197152
0.0111035
0.00608306
0.00324323
0.00168298
0.000850133
0.000417828
0.00019981
9.27933e-05
4.20176e-05
1.80863e-05
0.651254
0.646368
0.564061
0.565403
0.60371
0.672963
0.707297
0.721062
0.742573
0.781741
0.808763
0.824093
0.837994
0.844826
0.849265
0.850902
0.850151
0.845563
0.835359
0.821129
0.800664
0.769907
0.736847
0.699304
0.665203
0.641046
0.620841
0.610316
0.606261
0.606552
0.608425
0.613918
0.620663
0.624216
0.623591
0.616392
0.599451
0.574418
0.556722
0.553246
0.627316
0.746824
0.792731
0.806732
0.80991
0.810247
0.806666
0.796574
0.784634
0.776602
0.773243
0.771464
0.7702
0.768978
0.767539
0.765503
0.762991
0.759823
0.755484
0.747624
0.732911
0.7142
0.696196
0.677934
0.655014
0.632307
0.616219
0.60139
0.590883
0.579128
0.55655
0.504887
0.424047
0.32953
0.248495
0.198962
0.174348
0.162168
0.157524
0.158928
0.167794
0.188302
0.23286
0.295435
0.36855
0.447712
0.518876
0.570829
0.600033
0.613586
0.618516
0.616981
0.612735
0.607294
0.602249
0.599179
0.598401
0.599486
0.603625
0.609822
0.617856
0.628633
0.641022
0.651931
0.658817
0.661748
0.664446
0.671808
0.695212
0.748893
0.827493
0.909721
0.962111
0.986169
0.995522
0.998617
0.9995
0.999737
0.999817
0.999841
0.999842
0.999836
0.99982
0.999768
0.99958
0.999104
0.998719
0.99849
0.998367
0.998239
0.997936
0.997297
0.996921
0.996881
0.99714
0.998185
0.999088
0.999567
0.9998
0.999907
0.999953
0.999974
0.999984
0.99999
0.999994
0.999996
0.999998
0.999999
0.999999
1
1
1
0.999999
0.999996
0.999983
0.999938
0.999773
0.99918
0.997028
0.989201
0.961009
0.860717
0.65971
0.480091
0.335633
0.226222
0.147357
0.0929348
0.056829
0.0337295
0.019448
0.0109004
0.00594246
0.00315183
0.0016269
0.000817007
0.000399232
0.000189498
8.77229e-05
3.87109e-05
0.656008
0.645522
0.575446
0.580023
0.621686
0.69495
0.758326
0.815065
0.858765
0.876936
0.888934
0.895594
0.898683
0.900085
0.900734
0.901806
0.903314
0.905006
0.907046
0.910046
0.912341
0.913339
0.904542
0.887589
0.849901
0.793319
0.732901
0.676446
0.641497
0.617675
0.601349
0.590857
0.585088
0.582208
0.581233
0.578615
0.573823
0.568606
0.570112
0.620182
0.727885
0.78288
0.803281
0.809162
0.810164
0.808577
0.802288
0.792294
0.782671
0.775002
0.770434
0.768643
0.767458
0.766157
0.764607
0.76234
0.759139
0.754554
0.74732
0.731936
0.708399
0.684777
0.665683
0.650309
0.634175
0.614574
0.5952
0.583163
0.575953
0.563253
0.534987
0.482894
0.392558
0.295535
0.221143
0.181149
0.161595
0.151745
0.150658
0.153275
0.161508
0.180926
0.225989
0.314852
0.423144
0.530515
0.620602
0.679306
0.701298
0.701689
0.695514
0.681379
0.664704
0.649582
0.637259
0.628379
0.624215
0.624681
0.631079
0.642628
0.653394
0.666366
0.684554
0.706257
0.72646
0.73824
0.740792
0.738583
0.736527
0.749809
0.804092
0.871209
0.931172
0.970732
0.989405
0.996597
0.99899
0.999682
0.999869
0.999928
0.999944
0.999945
0.999942
0.999934
0.999906
0.999805
0.999657
0.999551
0.999487
0.999444
0.999373
0.999182
0.998918
0.998778
0.99876
0.998838
0.999208
0.999594
0.999806
0.999911
0.99996
0.999981
0.999991
0.999995
0.999997
0.999998
0.999999
0.999999
1
1
1
1
1
0.999999
0.999996
0.999986
0.999946
0.999796
0.999233
0.997127
0.989304
0.960735
0.858133
0.653847
0.472904
0.328629
0.220228
0.142653
0.0894718
0.0544056
0.0321073
0.0184041
0.010254
0.00555561
0.00292832
0.0015014
0.000748999
0.000362992
0.000171561
7.74548e-05
0.657856
0.646319
0.580524
0.592987
0.657549
0.765165
0.850104
0.882795
0.897182
0.902202
0.903748
0.903963
0.902586
0.899993
0.898586
0.897094
0.89661
0.897566
0.900082
0.905629
0.914803
0.927558
0.938646
0.948716
0.952858
0.9506
0.928726
0.882207
0.810925
0.743297
0.700558
0.663231
0.635218
0.6145
0.602404
0.59655
0.597924
0.610515
0.655599
0.726212
0.775798
0.799287
0.808078
0.810358
0.81055
0.808382
0.801914
0.792283
0.783193
0.77566
0.770317
0.767773
0.766416
0.765095
0.763619
0.761561
0.758569
0.754341
0.747142
0.731441
0.705152
0.675513
0.649203
0.630629
0.610967
0.594723
0.586035
0.575896
0.566441
0.552287
0.524635
0.466046
0.379289
0.291396
0.223372
0.18314
0.161258
0.151425
0.150525
0.152748
0.160764
0.181089
0.23431
0.344315
0.474588
0.605226
0.715109
0.791271
0.82118
0.823277
0.817747
0.802234
0.777533
0.748334
0.721367
0.698287
0.681633
0.674354
0.676508
0.693752
0.71364
0.725012
0.736179
0.75538
0.784414
0.816093
0.837962
0.846044
0.842508
0.830012
0.829593
0.862692
0.915894
0.955617
0.98064
0.992887
0.997704
0.999323
0.999802
0.999933
0.999969
0.999979
0.99998
0.999979
0.999974
0.999957
0.999915
0.999879
0.999856
0.999843
0.999827
0.999792
0.999709
0.999639
0.999608
0.999607
0.999637
0.999758
0.999871
0.999936
0.99997
0.999986
0.999994
0.999997
0.999999
0.999999
1
1
1
1
1
1
1
1
0.999999
0.999997
0.999986
0.999947
0.999792
0.999193
0.996895
0.988219
0.956205
0.841281
0.63409
0.455136
0.314122
0.209121
0.134574
0.0838431
0.0506364
0.0296742
0.0168892
0.00934164
0.00502441
0.00262788
0.00133706
0.000660858
0.000318492
0.000146835
0.660516
0.652814
0.591492
0.620558
0.715412
0.829749
0.878568
0.895844
0.900824
0.90158
0.899668
0.891045
0.883438
0.879667
0.877824
0.877235
0.876486
0.875511
0.872737
0.867984
0.863858
0.860205
0.88074
0.916166
0.955102
0.97077
0.976587
0.976771
0.957235
0.908935
0.843953
0.798536
0.762611
0.732438
0.709847
0.698266
0.695611
0.714881
0.742605
0.774622
0.795754
0.806013
0.809944
0.810904
0.810792
0.808656
0.802663
0.793635
0.785383
0.778308
0.771276
0.76759
0.765604
0.764051
0.762597
0.760809
0.758338
0.754834
0.749113
0.736123
0.70942
0.678526
0.650062
0.629304
0.608891
0.588013
0.569606
0.564998
0.560153
0.549462
0.526898
0.473097
0.389644
0.304285
0.236536
0.194231
0.168755
0.158061
0.158201
0.162247
0.174371
0.201103
0.258411
0.374554
0.531004
0.690492
0.817078
0.887219
0.920835
0.936475
0.942715
0.943131
0.936657
0.918176
0.887187
0.851144
0.817241
0.790724
0.776987
0.778913
0.80351
0.827381
0.836131
0.835487
0.836897
0.855286
0.88964
0.917275
0.93274
0.934956
0.924832
0.91161
0.918652
0.950695
0.975221
0.989187
0.995934
0.998667
0.999604
0.999887
0.999966
0.999986
0.999991
0.999992
0.999991
0.999988
0.999978
0.999966
0.999958
0.999954
0.999951
0.999945
0.999929
0.999911
0.9999
0.999898
0.999901
0.999923
0.999954
0.999975
0.999987
0.999993
0.999997
0.999998
0.999999
1
1
1
1
1
1
1
1
1
1
0.999999
0.999996
0.999985
0.999941
0.999762
0.999056
0.996305
0.985836
0.947056
0.811902
0.604078
0.430046
0.294591
0.194672
0.124334
0.0768673
0.0460563
0.0267745
0.0151148
0.00829223
0.00442196
0.00229319
0.00115504
0.000567082
0.000266629
0.663554
0.665415
0.597543
0.627656
0.75029
0.854698
0.888262
0.898138
0.900185
0.898949
0.889952
0.880468
0.877535
0.876661
0.876335
0.876502
0.876837