/*--------------------------------*- C++ -*----------------------------------*\
  =========                 |
  \\      /  F ield         | OpenFOAM: The Open Source CFD Toolbox
   \\    /   O peration     | Website:  https://openfoam.org
    \\  /    A nd           | Version:  7
     \\/     M anipulation  |
\*---------------------------------------------------------------------------*/
FoamFile
{
    version     2.0;
    format      ascii;
    class       volVectorField;
    location    "0.071";
    object      U;
}
// * * * * * * * * * * * * * * * * * * * * * * * * * * * * * * * * * * * * * //

dimensions      [0 1 -1 0 0 0 0];

internalField   nonuniform List<vector> 
12225
(
(4.73367 0.169151 0)
(4.10659 0.123873 0)
(3.60756 0.104956 0)
(3.26395 0.0831792 0)
(2.97463 0.0703359 0)
(2.6733 0.0638768 0)
(2.3551 0.0555162 0)
(2.05785 0.0422497 0)
(1.80942 0.0291029 0)
(1.60912 0.0211408 0)
(1.4414 0.0184168 0)
(1.29595 0.0175279 0)
(1.16446 0.0150839 0)
(1.0487 0.012078 0)
(0.942256 0.00842333 0)
(0.844043 0.00720197 0)
(0.759209 0.0107181 0)
(0.617675 0.00445584 0)
(5.0178 0.0972037 0)
(4.77219 0.0763656 0)
(4.63148 0.0868602 0)
(4.5697 0.0728614 0)
(4.53024 0.0709593 0)
(4.47095 0.0852336 0)
(4.37371 0.100255 0)
(4.24982 0.104118 0)
(4.11342 0.0967746 0)
(3.97217 0.0856158 0)
(3.83283 0.0762855 0)
(3.70539 0.0702498 0)
(3.59639 0.0675731 0)
(3.49495 0.0664201 0)
(3.402 0.0683498 0)
(3.28782 0.0680299 0)
(3.1725 0.0746729 0)
(3.01694 0.0710649 0)
(4.92494 0.174483 0)
(4.851 0.15574 0)
(4.78987 0.136318 0)
(4.75032 0.109736 0)
(4.72848 0.097111 0)
(4.73016 0.103603 0)
(4.74332 0.116143 0)
(4.74468 0.121508 0)
(4.71696 0.118276 0)
(4.65945 0.112343 0)
(4.58849 0.10622 0)
(4.52163 0.0982691 0)
(4.47291 0.090133 0)
(4.43675 0.083845 0)
(4.41552 0.0839079 0)
(4.38932 0.0921144 0)
(4.36765 0.106386 0)
(4.31931 0.118113 0)
(4.90996 0.175685 0)
(4.81601 0.119603 0)
(4.78948 0.114006 0)
(4.77454 0.103498 0)
(4.76659 0.0886126 0)
(4.76664 0.0867055 0)
(4.77099 0.0981907 0)
(4.76955 0.111857 0)
(4.75674 0.121138 0)
(4.73648 0.124151 0)
(4.71897 0.120461 0)
(4.70832 0.110302 0)
(4.70497 0.0984362 0)
(4.70247 0.0888615 0)
(4.70216 0.0865172 0)
(4.69945 0.0918134 0)
(4.70242 0.103527 0)
(4.70068 0.1187 0)
(4.89107 0.251623 0)
(4.88886 0.154049 0)
(4.82132 0.120749 0)
(4.7869 0.108927 0)
(4.78272 0.0963593 0)
(4.78207 0.097138 0)
(4.77924 0.110463 0)
(4.77779 0.123685 0)
(4.77994 0.129096 0)
(4.78603 0.125461 0)
(4.79623 0.115222 0)
(4.8086 0.101804 0)
(4.82109 0.0902809 0)
(4.83123 0.0839137 0)
(4.83939 0.0844697 0)
(4.84504 0.0917203 0)
(4.85241 0.104352 0)
(4.85874 0.121181 0)
(4.9052 0.223734 0)
(4.92324 0.144658 0)
(4.86563 0.135938 0)
(4.82014 0.12308 0)
(4.79188 0.10224 0)
(4.77948 0.0942922 0)
(4.78504 0.101287 0)
(4.80445 0.112678 0)
(4.82736 0.119854 0)
(4.84454 0.119672 0)
(4.85323 0.113007 0)
(4.85607 0.102424 0)
(4.85763 0.0918004 0)
(4.8619 0.0845692 0)
(4.87056 0.0828853 0)
(4.88338 0.0878608 0)
(4.89984 0.0981792 0)
(4.91691 0.113357 0)
(5.01114 0.257973 0)
(4.99716 0.155571 0)
(4.93085 0.13443 0)
(4.89097 0.125515 0)
(4.8736 0.110434 0)
(4.85862 0.100133 0)
(4.84191 0.100596 0)
(4.82935 0.107292 0)
(4.82511 0.113402 0)
(4.82939 0.114327 0)
(4.84098 0.108506 0)
(4.85765 0.0973912 0)
(4.87635 0.0845666 0)
(4.89466 0.0747082 0)
(4.91102 0.0710282 0)
(4.9252 0.0751557 0)
(4.93759 0.08597 0)
(4.9488 0.102357 0)
(5.04569 0.231047 0)
(4.97234 0.181094 0)
(4.92471 0.165622 0)
(4.91369 0.138779 0)
(4.92344 0.113207 0)
(4.91714 0.105394 0)
(4.89011 0.111549 0)
(4.86477 0.118834 0)
(4.86004 0.119263 0)
(4.8767 0.111909 0)
(4.90344 0.0996466 0)
(4.92699 0.0865206 0)
(4.94028 0.0757532 0)
(4.9431 0.0699579 0)
(4.94118 0.0698402 0)
(4.93978 0.0757662 0)
(4.94335 0.086224 0)
(4.95338 0.10042 0)
(5.04675 0.270472 0)
(5.03689 0.1859 0)
(5.02098 0.145325 0)
(4.99319 0.125605 0)
(4.95333 0.118347 0)
(4.91671 0.122917 0)
(4.90199 0.127376 0)
(4.91183 0.122481 0)
(4.93253 0.109692 0)
(4.94773 0.0957068 0)
(4.95054 0.0853295 0)
(4.94298 0.079313 0)
(4.93179 0.0756473 0)
(4.92229 0.0730553 0)
(4.91825 0.0713705 0)
(4.92118 0.0727758 0)
(4.93105 0.0770333 0)
(4.94894 0.0857646 0)
(4.97566 0.244132 0)
(5.00998 0.21491 0)
(4.98198 0.176426 0)
(4.92234 0.153533 0)
(4.87824 0.135243 0)
(4.87469 0.119442 0)
(4.90625 0.107492 0)
(4.95086 0.100992 0)
(4.98663 0.0997193 0)
(5.0028 0.100751 0)
(5.00149 0.100262 0)
(4.99013 0.0960736 0)
(4.97525 0.0882823 0)
(4.96032 0.0797982 0)
(4.94734 0.0726139 0)
(4.93859 0.0694245 0)
(4.93621 0.0687334 0)
(4.94296 0.0711599 0)
(4.97843 0.228931 0)
(5.02105 0.18223 0)
(5.00143 0.176635 0)
(4.98761 0.171218 0)
(4.99442 0.147729 0)
(5.01243 0.118177 0)
(5.03264 0.095568 0)
(5.04796 0.085166 0)
(5.05323 0.0851412 0)
(5.04808 0.0901859 0)
(5.03702 0.0950326 0)
(5.02446 0.0967465 0)
(5.01277 0.0945935 0)
(5.00234 0.0902701 0)
(4.9947 0.0845642 0)
(4.99013 0.0791804 0)
(4.99262 0.0729595 0)
(5.00003 0.0668192 0)
(5.06723 0.25668 0)
(5.02939 0.224009 0)
(4.97401 0.187492 0)
(4.95692 0.152502 0)
(4.97833 0.121381 0)
(5.00595 0.10023 0)
(5.01749 0.0907016 0)
(5.01079 0.0919717 0)
(4.99432 0.0994686 0)
(4.97887 0.107158 0)
(4.97186 0.110613 0)
(4.97476 0.108661 0)
(4.98462 0.102095 0)
(4.998 0.0931876 0)
(5.01285 0.0831785 0)
(5.0282 0.0732506 0)
(5.04484 0.0625695 0)
(5.06204 0.0516622 0)
(5.09012 0.306634 0)
(4.9928 0.238151 0)
(4.94185 0.198099 0)
(4.93993 0.160893 0)
(4.96533 0.120024 0)
(4.98576 0.0936768 0)
(4.99311 0.0874088 0)
(4.99417 0.0936647 0)
(4.99342 0.101344 0)
(4.99334 0.103525 0)
(4.996 0.0990029 0)
(5.00161 0.0901184 0)
(5.00864 0.0796278 0)
(5.01582 0.0701321 0)
(5.02301 0.0618915 0)
(5.03049 0.0547573 0)
(5.03923 0.0467589 0)
(5.04982 0.0375451 0)
(5.04607 0.325046 0)
(5.04524 0.298766 0)
(5.02442 0.21541 0)
(5.02353 0.140564 0)
(5.03772 0.101299 0)
(5.04277 0.0912374 0)
(5.0333 0.0938284 0)
(5.01936 0.0993871 0)
(5.00959 0.10388 0)
(5.00776 0.105921 0)
(5.01232 0.105033 0)
(5.01824 0.101177 0)
(5.02174 0.0945647 0)
(5.02271 0.0857531 0)
(5.02444 0.0746424 0)
(5.02941 0.061619 0)
(5.04036 0.0458116 0)
(5.05557 0.0288243 0)
(4.95236 0.322092 0)
(5.00408 0.261608 0)
(5.00634 0.207191 0)
(4.97608 0.150865 0)
(4.95637 0.10448 0)
(4.95206 0.0876124 0)
(4.95761 0.0945467 0)
(4.9689 0.105483 0)
(4.98286 0.107119 0)
(4.99838 0.0996976 0)
(5.01451 0.0896431 0)
(5.02851 0.0812993 0)
(5.03928 0.0743563 0)
(5.04769 0.06613 0)
(5.05652 0.0541394 0)
(5.0662 0.0381175 0)
(5.07814 0.0190016 0)
(5.08913 -0.000194101 0)
(5.05506 0.249192 0)
(5.09479 0.251168 0)
(5.09446 0.235354 0)
(5.089 0.180834 0)
(5.07637 0.126121 0)
(5.05094 0.0953709 0)
(5.02589 0.085075 0)
(5.01348 0.0817524 0)
(5.01559 0.0778999 0)
(5.02935 0.0747059 0)
(5.04933 0.0743647 0)
(5.0691 0.0753326 0)
(5.08522 0.0734853 0)
(5.09695 0.0658662 0)
(5.10557 0.0521802 0)
(5.11159 0.0347542 0)
(5.11667 0.0160886 0)
(5.12046 -0.000940918 0)
(5.00658 0.226185 0)
(5.02595 0.227414 0)
(5.06646 0.213904 0)
(5.09886 0.170688 0)
(5.10014 0.138366 0)
(5.07779 0.131946 0)
(5.05857 0.132256 0)
(5.05222 0.118458 0)
(5.05518 0.089737 0)
(5.06406 0.0596508 0)
(5.07607 0.0403523 0)
(5.08808 0.0343855 0)
(5.09828 0.0363339 0)
(5.10582 0.0383805 0)
(5.11067 0.0347406 0)
(5.11302 0.0238176 0)
(5.11411 0.00661651 0)
(5.11481 -0.0138634 0)
(4.98218 0.30704 0)
(4.99945 0.177363 0)
(5.00932 0.150852 0)
(5.0195 0.154751 0)
(5.01899 0.154576 0)
(5.01476 0.14251 0)
(5.02106 0.117691 0)
(5.03542 0.0872761 0)
(5.04647 0.0622085 0)
(5.04948 0.0488561 0)
(5.04785 0.0461702 0)
(5.0468 0.0487645 0)
(5.05042 0.050864 0)
(5.05897 0.0487492 0)
(5.07098 0.0409136 0)
(5.08314 0.0281871 0)
(5.09444 0.011924 0)
(5.10208 -0.00563017 0)
(5.04397 0.300161 0)
(5.01058 0.234047 0)
(5.00666 0.174531 0)
(5.0059 0.153354 0)
(5.01528 0.138941 0)
(5.02566 0.115552 0)
(5.0346 0.091036 0)
(5.04231 0.0732481 0)
(5.04942 0.0617202 0)
(5.05789 0.0509831 0)
(5.06889 0.036905 0)
(5.08198 0.0196402 0)
(5.09642 0.00193728 0)
(5.11083 -0.0132711 0)
(5.12424 -0.0250693 0)
(5.13565 -0.0341711 0)
(5.14603 -0.0425681 0)
(5.15489 -0.0521663 0)
(5.04769 0.311596 0)
(5.08775 0.254157 0)
(5.08826 0.179386 0)
(5.0897 0.138916 0)
(5.09082 0.128343 0)
(5.09069 0.120016 0)
(5.08919 0.100114 0)
(5.08704 0.0716098 0)
(5.08849 0.0430272 0)
(5.0963 0.0204314 0)
(5.10884 0.00551259 0)
(5.12199 -0.00284319 0)
(5.13278 -0.00714859 0)
(5.14063 -0.0104684 0)
(5.14678 -0.0157752 0)
(5.15179 -0.0241933 0)
(5.15668 -0.0360129 0)
(5.16052 -0.050124 0)
(5.05633 0.27993 0)
(5.07821 0.232196 0)
(5.09862 0.190799 0)
(5.12262 0.149728 0)
(5.142 0.122303 0)
(5.15659 0.106954 0)
(5.17246 0.0890522 0)
(5.18869 0.0627572 0)
(5.20124 0.0331748 0)
(5.20888 0.0067798 0)
(5.21371 -0.0124511 0)
(5.21934 -0.0247947 0)
(5.22771 -0.0329879 0)
(5.23807 -0.0395166 0)
(5.24882 -0.0460779 0)
(5.25719 -0.0536542 0)
(5.26201 -0.0621116 0)
(5.26007 -0.0715811 0)
(5.02197 0.28936 0)
(5.05001 0.184345 0)
(5.10343 0.119158 0)
(5.14269 0.102563 0)
(5.1692 0.103225 0)
(5.1875 0.0970995 0)
(5.20162 0.0780845 0)
(5.21223 0.0521224 0)
(5.21732 0.0273686 0)
(5.21786 0.00816778 0)
(5.21737 -0.00717854 0)
(5.21783 -0.0204236 0)
(5.22108 -0.0317846 0)
(5.22787 -0.040292 0)
(5.23796 -0.0443916 0)
(5.24866 -0.0441307 0)
(5.25849 -0.039843 0)
(5.2644 -0.0340551 0)
(5.06498 0.238706 0)
(5.05585 0.201073 0)
(5.05274 0.131368 0)
(5.05801 0.0900093 0)
(5.0914 0.0749894 0)
(5.13976 0.0637013 0)
(5.18341 0.0489366 0)
(5.21339 0.03238 0)
(5.2302 0.0167356 0)
(5.23671 0.00164338 0)
(5.23677 -0.0146994 0)
(5.23505 -0.0330079 0)
(5.23367 -0.051695 0)
(5.23289 -0.0682108 0)
(5.23383 -0.0800217 0)
(5.23749 -0.0860594 0)
(5.24419 -0.0865753 0)
(5.25388 -0.0826642 0)
(4.95385 0.218619 0)
(5.04572 0.174734 0)
(5.10123 0.116311 0)
(5.14049 0.0752979 0)
(5.16981 0.0500901 0)
(5.18815 0.0328617 0)
(5.20011 0.0233704 0)
(5.21553 0.0184662 0)
(5.23944 0.0126575 0)
(5.26905 0.00487618 0)
(5.29818 -0.003645 0)
(5.3201 -0.0134948 0)
(5.33105 -0.0250993 0)
(5.33073 -0.0371864 0)
(5.32131 -0.0479896 0)
(5.30688 -0.0561833 0)
(5.29142 -0.0613995 0)
(5.27838 -0.0636581 0)
(5.0111 0.241643 0)
(5.08107 0.13541 0)
(5.16424 0.0786356 0)
(5.22114 0.0459761 0)
(5.23042 0.0348522 0)
(5.21894 0.0273675 0)
(5.21473 0.0130666 0)
(5.2208 -0.00802551 0)
(5.23226 -0.0307369 0)
(5.24657 -0.0496973 0)
(5.26227 -0.0614665 0)
(5.28014 -0.065598 0)
(5.30105 -0.0644812 0)
(5.32335 -0.0611347 0)
(5.34348 -0.0580322 0)
(5.35772 -0.0566935 0)
(5.36476 -0.0573415 0)
(5.36343 -0.0600988 0)
(4.99198 0.265586 0)
(5.06799 0.0939488 0)
(5.15917 0.0484452 0)
(5.21317 0.0570245 0)
(5.257 0.0615436 0)
(5.3076 0.0478806 0)
(5.35956 0.0253164 0)
(5.39836 0.0059117 0)
(5.41717 -0.00591873 0)
(5.42003 -0.0158603 0)
(5.41569 -0.0287509 0)
(5.40992 -0.0442446 0)
(5.40543 -0.0591932 0)
(5.40238 -0.0698215 0)
(5.4002 -0.0734593 0)
(5.39794 -0.0702171 0)
(5.39567 -0.0616077 0)
(5.39341 -0.0517396 0)
(5.10384 0.15267 0)
(5.19798 0.0560438 0)
(5.23444 0.0110129 0)
(5.27138 -0.00123003 0)
(5.32875 -0.0207017 0)
(5.38605 -0.0371661 0)
(5.41979 -0.0423993 0)
(5.42915 -0.041975 0)
(5.42997 -0.0440326 0)
(5.43603 -0.0497283 0)
(5.44971 -0.0570395 0)
(5.46505 -0.0629663 0)
(5.4758 -0.0656524 0)
(5.47896 -0.064993 0)
(5.47635 -0.0624208 0)
(5.47145 -0.0597385 0)
(5.4685 -0.0583159 0)
(5.4699 -0.0596951 0)
(5.06624 0.139208 0)
(5.20965 0.0779486 0)
(5.3342 0.0506064 0)
(5.4011 0.0192545 0)
(5.44127 -0.00182094 0)
(5.47077 -0.00572077 0)
(5.49663 -0.000633306 0)
(5.52241 -8.15742e-05 0)
(5.54802 -0.00981238 0)
(5.56904 -0.0263488 0)
(5.57989 -0.0432002 0)
(5.5787 -0.0556884 0)
(5.56911 -0.0622396 0)
(5.5574 -0.0637444 0)
(5.54976 -0.0621063 0)
(5.54886 -0.0593083 0)
(5.5552 -0.0565769 0)
(5.56644 -0.0550791 0)
(5.08776 0.0445341 0)
(5.30275 -0.0341752 0)
(5.43781 -0.0297537 0)
(5.49135 -0.0442395 0)
(5.50465 -0.060392 0)
(5.50562 -0.0646804 0)
(5.51121 -0.0619824 0)
(5.52652 -0.0606717 0)
(5.54597 -0.0627039 0)
(5.55911 -0.0649853 0)
(5.55756 -0.0647152 0)
(5.5401 -0.0621459 0)
(5.5117 -0.0595103 0)
(5.48052 -0.0590415 0)
(5.45227 -0.0616141 0)
(5.42978 -0.0666704 0)
(5.41111 -0.0729544 0)
(5.39489 -0.0789966 0)
(4.86726 0.0546365 0)
(5.07275 0.0129177 0)
(5.07586 0.00250293 0)
(4.97096 -0.0117009 0)
(4.83418 -0.0160727 0)
(4.70763 -0.0126745 0)
(4.60065 -0.0117821 0)
(4.49746 -0.0178267 0)
(4.38288 -0.0269533 0)
(4.25661 -0.0330734 0)
(4.12914 -0.0339194 0)
(4.01079 -0.0317552 0)
(3.90365 -0.0300681 0)
(3.8037 -0.0306249 0)
(3.70392 -0.0326907 0)
(3.60191 -0.0345162 0)
(3.4958 -0.0346078 0)
(3.39063 -0.0327409 0)
(-0.128205 0.340273 -4.949e-20)
(-0.404024 0.34346 4.91107e-20)
(-0.624134 0.257024 0)
(-0.775865 0.167711 0)
(-0.840922 0.0649548 0)
(-0.819902 -0.0291036 -4.76821e-20)
(-0.742113 -0.106585 0)
(-0.606131 -0.174546 0)
(-0.41812 -0.232627 0)
(-0.185998 -0.278275 0)
(0.0862529 -0.303879 4.5902e-20)
(0.387233 -0.319018 0)
(0.69511 -0.322504 0)
(1.00496 -0.315156 0)
(1.30967 -0.298457 0)
(1.59906 -0.273999 4.40383e-20)
(1.86545 -0.24408 0)
(2.10468 -0.211239 0)
(2.31385 -0.177088 0)
(2.49155 -0.14278 0)
(2.63683 -0.10881 0)
(2.74946 -0.0755356 0)
(2.82977 -0.0430053 0)
(2.87679 -0.0107475 4.14285e-20)
(2.89262 0.0215826 -4.10944e-20)
(2.8722 0.0560244 4.07533e-20)
(2.81694 0.0910449 4.04084e-20)
(2.72603 0.129118 0)
(2.59814 0.166091 0)
(2.4343 0.207353 -3.93617e-20)
(2.22525 0.249227 -3.90144e-20)
(1.9827 0.290146 0)
(1.68332 0.344871 0)
(1.34988 0.378953 -3.80164e-20)
(0.95317 0.427512 0)
(0.517877 0.300724 0)
(0.213413 0.00164139 3.71487e-20)
(0.0200475 -0.126451 0)
(-0.1191 -0.0892585 3.65241e-20)
(-0.208983 -0.0317551 7.23908e-20)
(-0.250698 -0.00950438 0)
(-0.252688 -0.0134789 0)
(-0.220355 -0.0307334 0)
(-0.15469 -0.0508444 0)
(-0.0609025 -0.0602544 0)
(0.0567508 -0.062423 6.84557e-20)
(0.201526 -0.0651424 6.77675e-20)
(0.361371 -0.059671 6.70856e-20)
(0.513301 -0.0268509 0)
(0.614305 0.0237883 -6.57885e-20)
(0.600908 0.0787758 0)
(0.576443 0.115712 6.45416e-20)
(0.685645 0.0398965 6.38785e-20)
(0.873697 -0.188607 0)
(1.01838 -0.471385 0)
(1.06793 -0.501214 0)
(0.978374 -0.199726 6.13923e-20)
(0.624471 0.187096 0)
(0.0756747 0.377165 0)
(-0.503152 0.422115 0)
(-1.07948 0.423893 0)
(-1.62715 0.404292 0)
(-2.13563 0.374477 0)
(-2.60087 0.341165 0)
(-3.02334 0.307986 0)
(-3.40544 0.276623 -5.69757e-20)
(-3.75021 0.247667 0)
(-4.06072 0.22112 0)
(-4.33959 0.196656 5.57398e-20)
(-4.58894 0.173941 5.53218e-20)
(-4.81049 0.152801 0)
(-5.00568 0.133144 -5.44646e-20)
(-5.17576 0.114811 5.40221e-20)
(-5.32169 0.0975693 0)
(-5.4441 0.0811513 -5.31011e-20)
(-5.54318 0.0652699 0)
(-5.61864 0.0496302 0)
(-5.6698 0.0340732 5.16051e-20)
(-5.69558 0.0187542 0)
(-5.69497 0.00387253 -5.05142e-20)
(-5.67007 -0.0107957 0)
(-5.61882 -0.0250768 4.93435e-20)
(-5.54244 -0.0387882 4.87321e-20)
(-5.44079 -0.0517631 4.81066e-20)
(-5.31564 -0.0636053 9.49405e-20)
(-5.16862 -0.074125 -9.3653e-20)
(-5.00225 -0.0830909 0)
(-4.81912 -0.0904396 0)
(-4.62207 -0.096165 0)
(-4.41387 -0.100352 -8.84969e-20)
(-4.19716 -0.103117 -8.72357e-20)
(-3.97445 -0.104602 8.59941e-20)
(-3.74808 -0.104944 0)
(-3.52019 -0.104283 -8.35793e-20)
(-3.29268 -0.102785 -8.24086e-20)
(-3.06711 -0.100656 -8.12626e-20)
(-2.84455 -0.0981407 0)
(-2.62552 -0.0955065 0)
(-2.41 -0.0930058 0)
(-2.19748 -0.0908423 -7.69065e-20)
(-1.98708 -0.0891359 0)
(-1.77784 -0.08789 0)
(-1.56891 -0.0869918 7.38382e-20)
(-1.35977 -0.0862418 0)
(-1.15043 -0.0853683 0)
(-0.941472 -0.0840711 7.09213e-20)
(-0.734105 -0.0820817 0)
(-0.530042 -0.0792061 0)
(-0.331368 -0.0753517 -6.81693e-20)
(-0.140194 -0.0705388 -6.72902e-20)
(0.0403602 -0.0654799 0)
(0.208737 -0.0594527 6.55488e-20)
(0.364685 -0.0531904 0)
(0.507185 -0.0469025 -6.38583e-20)
(0.636272 -0.0408452 0)
(0.752463 -0.0352066 -6.22286e-20)
(0.856675 -0.0300975 -6.1432e-20)
(0.950084 -0.0255466 0)
(1.03392 -0.0214906 0)
(1.10927 -0.0178207 0)
(1.17694 -0.0144032 0)
(1.23737 -0.0110587 0)
(1.29055 -0.00769158 0)
(1.33629 -0.00430993 0)
(1.37421 -0.000828421 -5.53364e-20)
(1.40376 0.00266778 5.46006e-20)
(1.42483 0.00581789 0)
(1.43772 0.00877622 0)
(1.44195 0.0118643 0)
(1.43782 0.0146638 0)
(1.42657 0.0166797 1.01985e-19)
(1.40942 0.0179308 0)
(1.38767 0.0185749 -9.91597e-20)
(1.36252 0.0187286 9.77594e-20)
(1.33495 0.0184691 0)
(1.30589 0.0178515 0)
(1.27614 0.0169223 0)
(1.24646 0.0157422 -9.22344e-20)
(1.21748 0.0144021 -9.08713e-20)
(1.18972 0.0130022 0)
(1.16349 0.0116231 -8.81662e-20)
(1.139 0.010317 -8.68241e-20)
(1.11632 0.00911104 8.5489e-20)
(1.09548 0.00801565 0)
(1.07645 0.00703437 0)
(1.05917 0.00616939 8.15254e-20)
(1.04357 0.00542172 0)
(1.02955 0.00478918 0)
(1.01701 0.00426491 0)
(1.00581 0.00383686 0)
(0.995842 0.00348878 -7.50603e-20)
(0.986963 0.00320218 -7.37884e-20)
(0.979057 0.00295889 0)
(0.972017 0.00274337 -7.12656e-20)
(0.965745 0.00254483 0)
(0.960159 0.00235661 0)
(0.955172 0.00217723 -6.75331e-20)
(0.950714 0.00200619 0)
(0.946689 0.0018471 -6.50787e-20)
(0.943035 0.00170707 0)
(0.939635 0.00159402 0)
(0.936458 0.00150831 -6.14469e-20)
(0.933339 0.00145308 0)
(0.930308 0.00142186 -5.90584e-20)
(0.927076 0.00142781 0)
(0.92379 0.00147017 0)
(0.91989 0.00157213 0)
(0.915812 0.00170931 5.43585e-20)
(0.910482 0.00193329 0)
(0.904894 0.0022003 -5.20464e-20)
(0.897015 0.00263412 0)
(0.888729 0.00310352 0)
(0.876682 0.00393689 0)
(0.863201 0.00465466 0)
(0.845265 0.00637553 0)
(0.819803 0.00711895 0)
(0.797915 0.0113612 0)
(0.737125 0.0100699 8.6125e-20)
(0.735148 0.0234257 0)
(0.561398 0.0107839 0)
(0.0133756 0.720871 1.48524e-19)
(-0.0446755 0.652731 -1.47485e-19)
(-0.0926273 0.476976 0)
(-0.11414 0.266305 9.69891e-20)
(-0.0730781 0.0320523 0)
(0.0118505 -0.175166 4.77808e-20)
(0.147449 -0.351258 -9.48076e-20)
(0.327929 -0.508426 -9.4008e-20)
(0.541351 -0.648226 0)
(0.783069 -0.767295 -9.24027e-20)
(1.04127 -0.854385 -4.57471e-20)
(1.30462 -0.905273 0)
(1.56422 -0.920569 0)
(1.81489 -0.902989 0)
(2.05278 -0.858603 0)
(2.27316 -0.794284 -4.39267e-20)
(2.47283 -0.71637 0)
(2.64999 -0.630283 8.67442e-20)
(2.80418 -0.540186 0)
(2.93472 -0.448894 0)
(3.04162 -0.358101 -8.48439e-20)
(3.12451 -0.268742 0)
(3.18355 -0.181289 8.3558e-20)
(3.21932 -0.0957121 -4.13902e-20)
(3.23148 -0.0119523 4.10592e-20)
(3.22359 0.0709865 -4.07144e-20)
(3.19343 0.15311 -4.03647e-20)
(3.14181 0.23592 0)
(3.06782 0.319305 0)
(2.97489 0.404408 3.92948e-20)
(2.85823 0.493048 -3.90536e-20)
(2.72488 0.580577 0)
(2.56443 0.674278 0)
(2.38949 0.755776 3.78952e-20)
(2.19357 0.83498 0)
(1.96187 0.858398 0)
(1.71592 0.783984 -3.69957e-20)
(1.38981 0.635495 0)
(1.01251 0.44042 3.64351e-20)
(0.727175 0.243155 -7.22733e-20)
(0.547156 0.0729337 0)
(0.420138 -0.0428989 0)
(0.36321 -0.125396 -1.40836e-19)
(0.378539 -0.205211 -1.39487e-19)
(0.438727 -0.270108 -1.38125e-19)
(0.531997 -0.327774 6.83969e-20)
(0.670295 -0.382277 -6.76791e-20)
(0.854179 -0.384331 -2.01025e-19)
(1.01777 -0.320782 1.32719e-19)
(1.12655 -0.172993 6.57001e-20)
(1.2812 -0.0130186 0)
(1.47505 -0.167078 -6.4437e-20)
(1.48534 -0.501871 6.37901e-20)
(1.20213 -0.32751 0)
(0.574303 0.224265 0)
(-0.232675 0.614784 0)
(-0.929647 0.863575 -6.14207e-20)
(-1.52408 1.03349 0)
(-2.0536 1.09282 1.20443e-19)
(-2.52078 1.07561 0)
(-2.93833 1.01777 1.18286e-19)
(-3.31006 0.938035 0)
(-3.64046 0.850736 -1.16422e-19)
(-3.93397 0.764129 0)
(-4.1952 0.682728 1.14727e-19)
(-4.42845 0.608397 -5.70695e-20)
(-4.63736 0.541395 0)
(-4.8248 0.481041 -1.12283e-19)
(-4.99294 0.426267 -5.56548e-20)
(-5.1434 0.376019 -5.52504e-20)
(-5.27739 0.329421 0)
(-5.39585 0.285769 -5.45325e-20)
(-5.49939 0.244458 -5.39821e-20)
(-5.58821 0.204843 0)
(-5.66214 0.166226 5.30759e-20)
(-5.72066 0.127896 -1.05302e-19)
(-5.76284 0.0891882 0)
(-5.7874 0.0496285 -5.15956e-20)
(-5.79294 0.00919758 0)
(-5.77809 -0.0318262 1.5162e-19)
(-5.73881 -0.0731559 0)
(-5.67552 -0.114112 -1.48093e-19)
(-5.58683 -0.153817 -4.87234e-20)
(-5.47402 -0.191353 4.81701e-20)
(-5.33789 -0.225698 9.5051e-20)
(-5.18064 -0.256092 -9.37473e-20)
(-5.0046 -0.281962 0)
(-4.8126 -0.303072 0)
(-4.60745 -0.319448 0)
(-4.39194 -0.33134 2.65491e-19)
(-4.16864 -0.339104 8.72137e-20)
(-3.93995 -0.343126 -8.59729e-20)
(-3.70813 -0.343795 0)
(-3.47523 -0.341527 -8.36027e-20)
(-3.24312 -0.336809 8.23905e-20)
(-3.01333 -0.330251 8.12459e-20)
(-2.78688 -0.322588 0)
(-2.56424 -0.314623 0)
(-2.34523 -0.307117 0)
(-2.1292 -0.300678 7.68945e-20)
(-1.91512 -0.295657 0)
(-1.70185 -0.292061 -1.49706e-19)
(-1.48842 -0.289546 -2.21523e-19)
(-1.27424 -0.287512 1.45715e-19)
(-1.05928 -0.285157 0)
(-0.844189 -0.281604 7.0943e-20)
(-0.630272 -0.276066 0)
(-0.419459 -0.267941 1.38146e-19)
(-0.214037 -0.256961 -6.81831e-20)
(-0.0168088 -0.243479 -6.72948e-20)
(0.169599 -0.22836 0)
(0.343802 -0.211204 -1.96589e-19)
(0.504898 -0.193275 1.29355e-19)
(0.652339 -0.175251 6.38383e-20)
(0.786498 -0.157809 0)
(0.908329 -0.141519 6.22108e-20)
(1.01915 -0.12679 1.8425e-19)
(1.12044 -0.113811 0)
(1.21365 -0.102506 1.19707e-19)
(1.3001 -0.0925838 1.18166e-19)
(1.38081 -0.0836165 1.16638e-19)
(1.45641 -0.0751175 0)
(1.52716 -0.0666787 0)
(1.59295 -0.0580461 0)
(1.65328 -0.0490628 -5.53218e-20)
(1.70778 -0.0397719 -5.45816e-20)
(1.75607 -0.0304905 0)
(1.79738 -0.0213674 -1.06249e-19)
(1.83217 -0.012473 -1.04804e-19)
(1.86123 -0.00430139 0)
(1.88471 0.00271489 -1.01937e-19)
(1.90268 0.00850904 -2.01038e-19)
(1.91567 0.013136 9.91052e-20)
(1.92437 0.0166588 9.77057e-20)
(1.92953 0.0192291 0)
(1.93184 0.0209521 0)
(1.93194 0.0219072 0)
(1.93037 0.0221878 9.21691e-20)
(1.92761 0.021894 -9.08065e-20)
(1.92403 0.0211478 -1.78898e-19)
(1.91994 0.0200813 8.80987e-20)
(1.91555 0.0188131 -8.6757e-20)
(1.91104 0.0174343 -8.54213e-20)
(1.90654 0.0160045 0)
(1.90212 0.0145587 0)
(1.89787 0.0131193 8.14591e-20)
(1.89386 0.0117047 0)
(1.89019 0.0103336 0)
(1.88696 0.00902531 -1.55123e-19)
(1.88429 0.00779922 0)
(1.88227 0.00667087 -7.49984e-20)
(1.88099 0.00564989 7.37277e-20)
(1.88052 0.0047393 0)
(1.88091 0.00393653 -7.12071e-20)
(1.88214 0.00323566 0)
(1.88422 0.00263249 0)
(1.88707 0.00212706 6.74778e-20)
(1.89064 0.0017105 -1.32496e-19)
(1.89481 0.00138801 6.50253e-20)
(1.89948 0.00114864 0)
(1.90449 0.00098125 0)
(1.90978 0.000876255 -6.13966e-20)
(1.91515 0.000839919 0)
(1.92058 0.000871839 -5.901e-20)
(1.92582 0.00100389 0)
(1.93093 0.00122031 0)
(1.93551 0.00158102 0)
(1.93975 0.00200364 -5.43136e-20)
(1.94302 0.00268208 0)
(1.94571 0.00336007 5.20033e-20)
(1.94692 0.00457691 0)
(1.94703 0.00553717 0)
(1.94528 0.00781135 -9.71703e-20)
(1.94068 0.0089918 9.4917e-20)
(1.93536 0.0135964 0)
(1.92061 0.014447 0)
(1.91362 0.0245526 0)
(1.87319 0.0227229 -2.58152e-19)
(1.87728 0.0463453 0)
(1.76776 0.0364366 1.63506e-19)
(0.107961 0.47993 7.95229e-25)
(0.235514 0.636096 1.96559e-19)
(0.331369 0.47727 0)
(0.423927 0.187424 -1.93755e-19)
(0.545919 -0.143501 0)
(0.703912 -0.435595 0)
(0.896273 -0.681977 1.51174e-24)
(1.11722 -0.89354 9.3727e-20)
(1.35212 -1.07173 9.29891e-20)
(1.58445 -1.20907 9.21213e-20)
(1.80165 -1.29773 0)
(1.99801 -1.33495 0)
(2.17406 -1.32416 -9.00971e-20)
(2.33045 -1.27247 -1.78863e-19)
(2.46872 -1.1898 1.77568e-19)
(2.59148 -1.08618 0)
(2.70124 -0.969911 1.75049e-19)
(2.79977 -0.847 -8.66775e-20)
(2.88786 -0.72139 0)
(2.96535 -0.595332 1.71314e-19)
(3.03127 -0.470094 8.48286e-20)
(3.08431 -0.34627 -1.68781e-19)
(3.12313 -0.224413 -8.35628e-20)
(3.14676 -0.104854 0)
(3.15401 0.0119298 1.64836e-19)
(3.14506 0.125404 1.63425e-19)
(3.12042 0.235992 0)
(3.08143 0.344599 1.6056e-19)
(3.02794 0.452995 0)
(2.96283 0.56057 1.57662e-19)
(2.88586 0.669816 7.7962e-20)
(2.80109 0.776889 0)
(2.70902 0.882672 0)
(2.61184 0.979114 0)
(2.51592 1.05599 0)
(2.40654 1.10178 0)
(2.28036 1.07903 0)
(2.1129 0.991986 1.46575e-19)
(1.90765 0.862227 -2.17999e-19)
(1.71116 0.674728 0)
(1.52717 0.4622 0)
(1.3632 0.264394 0)
(1.2403 0.0500839 7.83555e-23)
(1.17634 -0.166231 1.39233e-19)
(1.13974 -0.304064 2.75741e-19)
(1.17255 -0.394947 -2.73067e-19)
(1.28584 -0.543659 -1.352e-19)
(1.41206 -0.625263 1.33815e-19)
(1.56666 -0.42418 1.40477e-22)
(1.65055 -0.37081 1.31432e-19)
(1.54331 -0.508992 0)
(1.17867 -0.138995 1.29024e-19)
(0.370422 0.580597 6.98448e-23)
(-0.490362 1.06501 0)
(-1.19153 1.3412 0)
(-1.7754 1.48581 -1.2392e-19)
(-2.244 1.58232 0)
(-2.62509 1.62021 0)
(-2.92959 1.59158 1.20867e-19)
(-3.18109 1.5125 2.38989e-19)
(-3.39638 1.40221 -1.1811e-19)
(-3.5892 1.2784 0)
(-3.76807 1.15372 1.16337e-19)
(-3.93819 1.0357 0)
(-4.10228 0.927913 1.15328e-19)
(-4.2615 0.831201 1.13902e-19)
(-4.41597 0.744772 -2.26698e-19)
(-4.5651 0.667039 -1.12737e-19)
(-4.7079 0.596217 0)
(-4.84317 0.530699 2.21699e-19)
(-4.96963 0.469193 0)
(-5.0861 0.410721 3.27267e-19)
(-5.19154 0.354507 2.16524e-19)
(-5.28508 0.299707 2.14728e-19)
(-5.36569 0.245299 -2.12884e-19)
(-5.43207 0.190142 3.16328e-19)
(-5.48254 0.13316 0)
(-5.51495 0.0734868 0)
(-5.52692 0.0107303 -2.04849e-19)
(-5.51632 -0.0547359 -3.03752e-19)
(-5.48123 -0.12216 0)
(-5.42062 -0.189943 9.87862e-20)
(-5.33414 -0.256212 0)
(-5.22243 -0.318918 -2.89092e-19)
(-5.08705 -0.376274 2.09038e-22)
(-4.93032 -0.426786 -1.84773e-22)
(-4.75508 -0.46953 1.84953e-19)
(-4.56442 -0.504123 0)
(-4.36141 -0.530714 -1.79712e-19)
(-4.14883 -0.549817 1.08086e-22)
(-3.92921 -0.562116 0)
(-3.70483 -0.568277 0)
(-3.47782 -0.568917 0)
(-3.25024 -0.564683 1.6716e-19)
(-3.02402 -0.556356 0)
(-2.80077 -0.544938 0)
(-2.5816 -0.531685 0)
(-2.36687 -0.517993 0)
(-2.15622 -0.5052 0)
(-1.94866 -0.494366 1.53881e-19)
(-1.74276 -0.486099 0)
(-1.53691 -0.480415 1.49695e-19)
(-1.32973 -0.47667 1.47683e-19)
(-1.12027 -0.473778 -1.45702e-19)
(-0.908374 -0.470327 0)
(-0.694736 -0.464751 -1.41844e-19)
(-0.480851 -0.455601 0)
(-0.269102 -0.441816 -1.38135e-19)
(-0.0625406 -0.423165 1.36331e-19)
(0.135464 -0.399941 4.03647e-19)
(0.322185 -0.372679 0)
(0.495547 -0.3425 3.93053e-19)
(0.653763 -0.311202 1.29333e-19)
(0.795622 -0.280409 0)
(0.920936 -0.251446 2.52021e-19)
(1.03083 -0.225161 2.48799e-19)
(1.1276 -0.201962 -3.68426e-19)
(1.21408 -0.181914 0)
(1.29301 -0.164789 -1.19683e-19)
(1.36658 -0.150097 -1.18145e-19)
(1.43625 -0.137118 -3.49876e-19)
(1.50286 -0.125043 0)
(1.5667 -0.113163 0)
(1.62767 -0.100938 0)
(1.68534 -0.0880982 -1.10641e-19)
(1.73914 -0.0747372 0)
(1.78845 -0.0611111 0)
(1.83261 -0.0475956 1.0624e-19)
(1.8713 -0.0347588 1.04795e-19)
(1.90455 -0.0230913 0)
(1.93257 -0.0128203 0)
(1.95601 -0.00407532 2.01027e-19)
(1.97541 0.00309205 0)
(1.99132 0.00874087 -1.95395e-19)
(2.00427 0.012977 -1.92607e-19)
(2.01468 0.0158981 0)
(2.02296 0.0176416 0)
(2.02952 0.0183925 1.84323e-19)
(2.03473 0.0183763 -2.40657e-24)
(2.03899 0.0178086 -1.9504e-24)
(2.04264 0.0168781 0)
(2.04597 0.0157367 3.46979e-19)
(2.04914 0.0144929 0)
(2.05227 0.0132167 0)
(2.05535 0.0119482 0)
(2.05837 0.0107032 -1.62891e-19)
(2.06127 0.0094794 0)
(2.06402 0.00826515 3.15357e-19)
(2.06662 0.0070481 1.55094e-19)
(2.06912 0.00582051 0)
(2.07162 0.0045813 1.49968e-19)
(2.07428 0.00333619 0)
(2.07727 0.00209686 0)
(2.08078 0.000880344 4.27159e-19)
(2.08499 -0.000292215 -2.79774e-19)
(2.09004 -0.00139779 0)
(2.096 -0.00240762 -2.69858e-19)
(2.10292 -0.00330055 1.3247e-19)
(2.11078 -0.00405465 0)
(2.11953 -0.00465525 0)
(2.12906 -0.00508408 0)
(2.13924 -0.00535115 3.68302e-19)
(2.14992 -0.00545531 0)
(2.16094 -0.005418 1.17994e-19)
(2.17218 -0.00520672 0)
(2.18348 -0.00486133 0)
(2.19478 -0.00428666 0)
(2.20587 -0.00360769 0)
(2.21685 -0.00255051 0)
(2.22721 -0.00148682 0)
(2.2375 0.000337905 2.03382e-19)
(2.24643 0.00185161 0)
(2.25576 0.00509151 9.71448e-20)
(2.26195 0.00705373 -2.84676e-19)
(2.27037 0.0131936 0)
(2.27107 0.0152999 0)
(2.27972 0.0276751 1.76429e-19)
(2.2687 0.0286139 1.72045e-19)
(2.28165 0.0543593 -1.67692e-19)
(2.24625 0.0521991 -1.63443e-19)
(0.0456337 -0.0418863 -2.97291e-19)
(0.162003 0.164852 -2.95017e-19)
(0.266544 0.0784817 -1.95195e-19)
(0.440735 -0.18712 -9.68276e-20)
(0.674857 -0.535228 0)
(0.934936 -0.885087 1.90433e-19)
(1.19921 -1.18976 -9.45007e-20)
(1.44598 -1.42773 0)
(1.65921 -1.59087 -9.28449e-20)
(1.83018 -1.67879 0)
(1.95882 -1.69758 1.83184e-19)
(2.05272 -1.65861 0)
(2.12325 -1.57728 9.00812e-20)
(2.18208 -1.46908 1.78888e-19)
(2.23836 -1.34664 -1.77638e-19)
(2.29784 -1.21836 0)
(2.36278 -1.0884 -1.75172e-19)
(2.43246 -0.957869 0)
(2.50428 -0.826275 0)
(2.57459 -0.692785 -1.71464e-19)
(2.63952 -0.55696 0)
(2.69546 -0.419007 -4.05689e-22)
(2.73965 -0.279736 0)
(2.77069 -0.14036 0)
(2.78805 -0.00233566 3.6196e-22)
(2.79335 0.133591 -1.63564e-19)
(2.78722 0.266304 -1.62446e-19)
(2.77124 0.395933 -1.60655e-19)
(2.74702 0.523142 0)
(2.71575 0.647921 -3.15731e-19)
(2.67711 0.771599 0)
(2.63259 0.88938 -1.55055e-19)
(2.57989 1.00196 0)
(2.52199 1.09919 0)
(2.45876 1.17636 1.50685e-19)
(2.39292 1.22559 0)
(2.32536 1.23062 -1.47867e-19)
(2.24033 1.18691 3.04578e-23)
(2.13794 1.07117 2.90382e-19)
(2.00557 0.912575 -2.8778e-19)
(1.88585 0.684423 0)
(1.74285 0.419578 0)
(1.63555 0.176212 -1.40021e-19)
(1.5994 -0.0470051 0)
(1.49163 -0.246169 -1.37751e-19)
(1.46572 -0.52356 1.36412e-19)
(1.61525 -0.72172 1.3507e-19)
(1.65833 -0.852595 0)
(1.49027 -0.779284 -1.32739e-19)
(1.03967 -0.045659 -1.3159e-19)
(0.225814 0.790025 2.61064e-19)
(-0.554948 1.32631 -1.29022e-19)
(-1.21182 1.67871 -1.27478e-19)
(-1.73243 1.8705 0)
(-2.14116 1.97662 0)
(-2.46408 2.01263 1.23646e-19)
(-2.71448 1.99801 0)
(-2.90732 1.93891 0)
(-3.06172 1.84356 -2.40855e-19)
(-3.19464 1.72526 -2.38896e-19)
(-3.31888 1.59546 0)
(-3.44254 1.46407 0)
(-3.56984 1.33772 0)
(-3.70212 1.22009 0)
(-3.83905 1.11246 -2.30076e-19)
(-3.97927 1.01441 2.28973e-19)
(-4.12085 0.924459 2.2676e-19)
(-4.26152 0.840708 4.50681e-19)
(-4.39885 0.76136 0)
(-4.53054 0.685083 4.04732e-22)
(-4.65469 0.611122 0)
(-4.76994 0.539094 -2.18361e-19)
(-4.87546 0.468592 3.63994e-22)
(-4.97063 0.398859 -2.14814e-19)
(-5.05454 0.328618 2.12972e-19)
(-5.12562 0.256194 3.7922e-22)
(-5.18159 0.179919 0)
(-5.21943 0.0985766 2.07469e-19)
(-5.23569 0.0115364 2.0495e-19)
(-5.22804 -0.0809372 4.05778e-19)
(-5.19438 -0.176738 0)
(-5.13312 -0.273332 -1.98281e-19)
(-5.04452 -0.367591 0)
(-4.9299 -0.456361 3.86019e-19)
(-4.79171 -0.536839 -1.90253e-19)
(-4.6331 -0.606908 1.87624e-19)
(-4.45756 -0.66537 -1.84984e-19)
(-4.26858 -0.711942 -3.65063e-19)
(-4.06931 -0.747124 1.79734e-19)
(-3.86237 -0.771909 -1.77148e-19)