/*--------------------------------*- C++ -*----------------------------------*\
  =========                 |
  \\      /  F ield         | OpenFOAM: The Open Source CFD Toolbox
   \\    /   O peration     | Website:  https://openfoam.org
    \\  /    A nd           | Version:  7
     \\/     M anipulation  |
\*---------------------------------------------------------------------------*/
FoamFile
{
    version     2.0;
    format      ascii;
    class       volVectorField;
    location    "0.071";
    object      U_0;
}
// * * * * * * * * * * * * * * * * * * * * * * * * * * * * * * * * * * * * * //

dimensions      [0 1 -1 0 0 0 0];

internalField   nonuniform List<vector> 
12225
(
(4.74125 0.169868 0)
(4.11875 0.124145 0)
(3.62082 0.104739 0)
(3.27915 0.0830694 0)
(2.99026 0.0703117 0)
(2.68845 0.0638396 0)
(2.36984 0.0554207 0)
(2.07263 0.042135 0)
(1.8245 0.0290379 0)
(1.62445 0.0211525 0)
(1.45686 0.0184645 0)
(1.31154 0.0175413 0)
(1.18029 0.0150283 0)
(1.065 0.0119538 0)
(0.959269 0.00823618 0)
(0.862269 0.00695412 0)
(0.779732 0.010199 0)
(0.645447 0.00256741 0)
(5.0221 0.102662 0)
(4.78284 0.0764364 0)
(4.64511 0.0861855 0)
(4.58541 0.0724068 0)
(4.54678 0.0709784 0)
(4.48723 0.0855235 0)
(4.38931 0.100501 0)
(4.2649 0.104167 0)
(4.12817 0.0966813 0)
(3.98677 0.0854845 0)
(3.84761 0.0761598 0)
(3.72074 0.0701267 0)
(3.61245 0.0674254 0)
(3.5117 0.066198 0)
(3.41936 0.0679448 0)
(3.30584 0.0672514 0)
(3.19217 0.0730168 0)
(3.03973 0.0662961 0)
(4.93398 0.184426 0)
(4.86382 0.155598 0)
(4.80372 0.134815 0)
(4.76466 0.108959 0)
(4.7437 0.0969554 0)
(4.74621 0.103831 0)
(4.75945 0.116425 0)
(4.7601 0.121667 0)
(4.73135 0.118337 0)
(4.67313 0.112316 0)
(4.60218 0.106015 0)
(4.53603 0.0978429 0)
(4.48838 0.0895562 0)
(4.45338 0.0831866 0)
(4.43331 0.0831796 0)
(4.40828 0.0910287 0)
(4.38802 0.104093 0)
(4.34079 0.112713 0)
(4.90766 0.183446 0)
(4.82875 0.119384 0)
(4.80396 0.112795 0)
(4.78943 0.10273 0)
(4.78186 0.0881887 0)
(4.78216 0.0867631 0)
(4.78628 0.0986312 0)
(4.78427 0.112422 0)
(4.77102 0.12158 0)
(4.75081 0.124262 0)
(4.73377 0.12013 0)
(4.72373 0.109582 0)
(4.72093 0.0974856 0)
(4.71896 0.0877775 0)
(4.71931 0.0852549 0)
(4.71751 0.0900439 0)
(4.72159 0.100505 0)
(4.72039 0.113075 0)
(4.89381 0.261478 0)
(4.89978 0.150662 0)
(4.83462 0.118759 0)
(4.80171 0.108014 0)
(4.79814 0.0960474 0)
(4.79745 0.0974197 0)
(4.79442 0.111063 0)
(4.7929 0.124215 0)
(4.79518 0.129292 0)
(4.80156 0.12522 0)
(4.81206 0.114582 0)
(4.82469 0.100904 0)
(4.8374 0.0892601 0)
(4.84781 0.0827811 0)
(4.85636 0.0830692 0)
(4.86256 0.0896918 0)
(4.87047 0.101051 0)
(4.87675 0.115723 0)
(4.91121 0.212456 0)
(4.93312 0.140535 0)
(4.87914 0.134017 0)
(4.83461 0.121851 0)
(4.80674 0.101653 0)
(4.79482 0.0943933 0)
(4.80085 0.101796 0)
(4.82048 0.113218 0)
(4.84329 0.120145 0)
(4.86019 0.119574 0)
(4.86862 0.112496 0)
(4.87141 0.101563 0)
(4.87318 0.0906741 0)
(4.87791 0.0831924 0)
(4.88715 0.081147 0)
(4.90054 0.0854725 0)
(4.91729 0.0946505 0)
(4.93398 0.108166 0)
(5.0171 0.240083 0)
(5.00951 0.149207 0)
(4.94476 0.132029 0)
(4.9061 0.124378 0)
(4.88891 0.109902 0)
(4.87367 0.100123 0)
(4.85673 0.10098 0)
(4.84414 0.107795 0)
(4.84007 0.113737 0)
(4.84464 0.114272 0)
(4.85658 0.107959 0)
(4.87356 0.0963783 0)
(4.89248 0.0831934 0)
(4.91096 0.0730604 0)
(4.92743 0.0690657 0)
(4.94164 0.0726696 0)
(4.95382 0.0826024 0)
(4.96438 0.0977744 0)
(5.05015 0.213397 0)
(4.98506 0.174615 0)
(4.94018 0.162806 0)
(4.93011 0.137144 0)
(4.93952 0.112641 0)
(4.93212 0.105731 0)
(4.90439 0.11224 0)
(4.87927 0.119352 0)
(4.87532 0.119347 0)
(4.89266 0.111528 0)
(4.91959 0.0988845 0)
(4.94285 0.0854789 0)
(4.95568 0.0744949 0)
(4.95816 0.0684667 0)
(4.95616 0.0679991 0)
(4.95485 0.0733759 0)
(4.95847 0.0830305 0)
(4.9682 0.0962352 0)
(5.05894 0.247944 0)
(5.05406 0.178229 0)
(5.03787 0.142203 0)
(5.00885 0.124591 0)
(4.96795 0.118484 0)
(4.93127 0.123579 0)
(4.9172 0.127877 0)
(4.92762 0.122515 0)
(4.94831 0.109369 0)
(4.963 0.0952436 0)
(4.96517 0.0848048 0)
(4.95719 0.0786317 0)
(4.94591 0.0746405 0)
(4.93657 0.0715846 0)
(4.93282 0.0693673 0)
(4.93599 0.070186 0)
(4.94595 0.0737887 0)
(4.96363 0.081822 0)
(4.98527 0.224044 0)
(5.03077 0.208923 0)
(4.99871 0.173771 0)
(4.93754 0.152656 0)
(4.89355 0.135012 0)
(4.89095 0.119508 0)
(4.92317 0.107723 0)
(4.96764 0.101335 0)
(5.00261 0.100082 0)
(5.0178 0.100945 0)
(5.01575 0.100072 0)
(5.00398 0.0953606 0)
(4.98893 0.0870315 0)
(4.97396 0.078061 0)
(4.96099 0.0704264 0)
(4.95227 0.0667646 0)
(4.9499 0.0655246 0)
(4.95661 0.0673717 0)
(4.99114 0.212949 0)
(5.04615 0.178452 0)
(5.02013 0.175778 0)
(5.00522 0.171016 0)
(5.01155 0.147448 0)
(5.02912 0.118042 0)
(5.04876 0.0957639 0)
(5.06337 0.0856683 0)
(5.0679 0.085766 0)
(5.06218 0.0906769 0)
(5.05079 0.0951523 0)
(5.03809 0.0963498 0)
(5.02634 0.09364 0)
(5.01588 0.088766 0)
(5.00821 0.082505 0)
(5.00364 0.0765456 0)
(5.0061 0.0697185 0)
(5.0134 0.0630084 0)
(5.07883 0.264328 0)
(5.05292 0.222874 0)
(4.99242 0.186721 0)
(4.9748 0.15214 0)
(4.9958 0.121446 0)
(5.02245 0.100748 0)
(5.03272 0.0915817 0)
(5.02499 0.0930323 0)
(5.00801 0.100445 0)
(4.99256 0.107774 0)
(4.98583 0.110683 0)
(4.98903 0.108122 0)
(4.99906 0.100973 0)
(5.01246 0.0915349 0)
(5.02719 0.0810205 0)
(5.04234 0.0705877 0)
(5.05869 0.0593996 0)
(5.07549 0.0480334 0)
(5.09534 0.312034 0)
(5.01227 0.238161 0)
(4.9607 0.198409 0)
(4.95836 0.161058 0)
(4.98283 0.120293 0)
(5.002 0.0945193 0)
(5.00834 0.0887378 0)
(5.00881 0.0950383 0)
(5.00776 0.102338 0)
(5.00756 0.103923 0)
(5.01019 0.0987911 0)
(5.01574 0.0893875 0)
(5.02264 0.0784868 0)
(5.02963 0.0686432 0)
(5.03659 0.0600432 0)
(5.04382 0.0525042 0)
(5.05229 0.0440555 0)
(5.06255 0.0344089 0)
(5.06149 0.332646 0)
(5.06735 0.300361 0)
(5.04386 0.215368 0)
(5.04173 0.140915 0)
(5.05467 0.102572 0)
(5.0583 0.0930438 0)
(5.04775 0.0956307 0)
(5.0333 0.100895 0)
(5.02347 0.104977 0)
(5.02174 0.10656 0)
(5.02629 0.105184 0)
(5.03199 0.100831 0)
(5.03517 0.0937261 0)
(5.03587 0.0844213 0)
(5.03747 0.0728133 0)
(5.04242 0.059293 0)
(5.05338 0.0430277 0)
(5.06849 0.0256668 0)
(4.95906 0.32459 0)
(5.0247 0.263357 0)
(5.02484 0.209393 0)
(4.99261 0.152543 0)
(4.9721 0.106224 0)
(4.96736 0.0898958 0)
(4.97257 0.0969434 0)
(4.98359 0.107333 0)
(4.99735 0.108156 0)
(5.01271 0.100079 0)
(5.02862 0.0896299 0)
(5.04231 0.0810058 0)
(5.05276 0.0737138 0)
(5.06093 0.0650024 0)
(5.06958 0.0524515 0)
(5.0791 0.0359085 0)
(5.09082 0.0164199 0)
(5.10146 -0.0029624 0)
(5.0746 0.249751 0)
(5.11959 0.257283 0)
(5.1139 0.240179 0)
(5.10577 0.183653 0)
(5.09141 0.128372 0)
(5.06482 0.0977327 0)
(5.03935 0.0873306 0)
(5.02704 0.0835513 0)
(5.02942 0.0791996 0)
(5.04336 0.0756625 0)
(5.06329 0.0750458 0)
(5.0828 0.0756308 0)
(5.09855 0.0732308 0)
(5.10989 0.064976 0)
(5.11815 0.0507164 0)
(5.12386 0.0328802 0)
(5.12865 0.0139952 0)
(5.13218 -0.00312521 0)
(5.01787 0.25114 0)
(5.05028 0.240872 0)
(5.08515 0.221668 0)
(5.11495 0.175627 0)
(5.11417 0.142505 0)
(5.09079 0.135671 0)
(5.07145 0.134985 0)
(5.06525 0.119859 0)
(5.06834 0.0901832 0)
(5.07724 0.0598231 0)
(5.08915 0.0406934 0)
(5.10097 0.0349032 0)
(5.11091 0.0367436 0)
(5.11815 0.0383538 0)
(5.12268 0.0340897 0)
(5.12475 0.0225385 0)
(5.1256 0.00483353 0)
(5.12611 -0.0159477 0)
(4.98011 0.320804 0)
(5.00653 0.186397 0)
(5.02108 0.159651 0)
(5.03218 0.161771 0)
(5.03139 0.159708 0)
(5.02723 0.145925 0)
(5.03381 0.119764 0)
(5.04818 0.0885946 0)
(5.05888 0.0633122 0)
(5.06149 0.0499945 0)
(5.05964 0.0472949 0)
(5.0586 0.0496707 0)
(5.06237 0.051347 0)
(5.07105 0.0487 0)
(5.08307 0.0403305 0)
(5.0951 0.027152 0)
(5.10615 0.0105597 0)
(5.11352 -0.00720006 0)
(5.05561 0.321433 0)
(5.02658 0.244895 0)
(5.01818 0.182499 0)
(5.01671 0.159641 0)
(5.02634 0.143508 0)
(5.03683 0.118716 0)
(5.04588 0.0934204 0)
(5.05367 0.0752329 0)
(5.0609 0.0633229 0)
(5.06952 0.0520624 0)
(5.08068 0.0374219 0)
(5.09384 0.0196908 0)
(5.1083 0.001733 0)
(5.12265 -0.0135718 0)
(5.13595 -0.0254146 0)
(5.14722 -0.0345992 0)
(5.15749 -0.0431668 0)
(5.16621 -0.0530056 0)
(5.0412 0.334856 0)
(5.08112 0.265109 0)
(5.09099 0.185313 0)
(5.09645 0.143768 0)
(5.09934 0.13243 0)
(5.10004 0.122966 0)
(5.09898 0.101919 0)
(5.09723 0.0726342 0)
(5.09911 0.0437005 0)
(5.10729 0.0210403 0)
(5.11999 0.00611317 0)
(5.13312 -0.0022259 0)
(5.14385 -0.00662281 0)
(5.1516 -0.0101701 0)
(5.15768 -0.0158046 0)
(5.16263 -0.0245796 0)
(5.16747 -0.0367302 0)
(5.17125 -0.0510762 0)
(5.04641 0.26028 0)
(5.07226 0.228189 0)
(5.10129 0.19158 0)
(5.12921 0.151588 0)
(5.15024 0.124545 0)
(5.16579 0.10902 0)
(5.18232 0.0904858 0)
(5.19892 0.0635341 0)
(5.21161 0.0335567 0)
(5.21925 0.00702097 0)
(5.22418 -0.012146 0)
(5.23004 -0.024443 0)
(5.23857 -0.0326831 0)
(5.24905 -0.0393379 0)
(5.25976 -0.0460846 0)
(5.26796 -0.053864 0)
(5.27245 -0.0625141 0)
(5.2701 -0.0721296 0)
(5.03389 0.263024 0)
(5.06315 0.176237 0)
(5.11279 0.11781 0)
(5.15118 0.104034 0)
(5.17792 0.105235 0)
(5.19664 0.0985924 0)
(5.21112 0.0789283 0)
(5.22188 0.0525905 0)
(5.22695 0.0277467 0)
(5.22755 0.00854177 0)
(5.22725 -0.00689321 0)
(5.22791 -0.0202577 0)
(5.23145 -0.0316817 0)
(5.23851 -0.0401402 0)
(5.24877 -0.0441025 0)
(5.25948 -0.0436862 0)
(5.26918 -0.0392994 0)
(5.27484 -0.0335656 0)
(5.07524 0.249186 0)
(5.06932 0.202122 0)
(5.06099 0.130669 0)
(5.06627 0.0905271 0)
(5.10082 0.0761515 0)
(5.14993 0.0648016 0)
(5.19369 0.0497779 0)
(5.22349 0.0329716 0)
(5.24013 0.0171691 0)
(5.24643 0.0018571 0)
(5.24643 -0.0147748 0)
(5.24482 -0.0333121 0)
(5.24353 -0.052106 0)
(5.24288 -0.0685705 0)
(5.244 -0.0801932 0)
(5.24787 -0.0859821 0)
(5.25479 -0.0862591 0)
(5.26467 -0.0822093 0)
(4.95018 0.228761 0)
(5.05339 0.176249 0)
(5.10987 0.11619 0)
(5.14936 0.0753772 0)
(5.17873 0.0505292 0)
(5.19715 0.0336103 0)
(5.20935 0.024316 0)
(5.22534 0.0193497 0)
(5.24986 0.0133172 0)
(5.27986 0.00528158 0)
(5.30906 -0.00340769 0)
(5.3307 -0.0134767 0)
(5.34117 -0.0252578 0)
(5.34034 -0.0374327 0)
(5.33051 -0.048227 0)
(5.31589 -0.0563419 0)
(5.30044 -0.0614483 0)
(5.2876 -0.063618 0)
(5.0163 0.233489 0)
(5.09053 0.13475 0)
(5.17369 0.0786601 0)
(5.22973 0.0464089 0)
(5.2382 0.0357011 0)
(5.2269 0.0280741 0)
(5.22337 0.0133246 0)
(5.23004 -0.00807428 0)
(5.24193 -0.0310258 0)
(5.25655 -0.0498399 0)
(5.27256 -0.0613401 0)
(5.29077 -0.0652063 0)
(5.31197 -0.0639447 0)
(5.33438 -0.0605909 0)
(5.35437 -0.0575984 0)
(5.36827 -0.0564341 0)
(5.37484 -0.0572754 0)
(5.37308 -0.0602106 0)
(4.99338 0.258907 0)
(5.07873 0.0921131 0)
(5.16835 0.0490922 0)
(5.22221 0.0582728 0)
(5.26672 0.0624264 0)
(5.31803 0.0481613 0)
(5.37013 0.0253036 0)
(5.4084 0.00603358 0)
(5.4266 -0.00574411 0)
(5.4292 -0.0158487 0)
(5.42484 -0.0290113 0)
(5.41921 -0.0446755 0)
(5.41489 -0.0595811 0)
(5.41197 -0.069944 0)
(5.40985 -0.0732018 0)
(5.40761 -0.0696064 0)
(5.40535 -0.0607992 0)
(5.40312 -0.0509728 0)
(5.11704 0.1613 0)
(5.20789 0.0570664 0)
(5.24193 0.0112677 0)
(5.28041 -0.00108341 0)
(5.33901 -0.0206549 0)
(5.39621 -0.0369312 0)
(5.42915 -0.0419608 0)
(5.43799 -0.0416001 0)
(5.43898 -0.0437913 0)
(5.44563 -0.0496833 0)
(5.45979 -0.0570724 0)
(5.47524 -0.0629249 0)
(5.4858 -0.0654564 0)
(5.48867 -0.0646578 0)
(5.48587 -0.0620364 0)
(5.48096 -0.059411 0)
(5.47822 -0.0581511 0)
(5.47992 -0.0597568 0)
(5.06835 0.154426 0)
(5.21869 0.0813805 0)
(5.343 0.0506868 0)
(5.41019 0.0190379 0)
(5.4505 -0.00154497 0)
(5.48003 -0.0050818 0)
(5.50612 -1.59136e-05 0)
(5.53224 0.000115204 0)
(5.55805 -0.0100459 0)
(5.57897 -0.0268435 0)
(5.58944 -0.0436944 0)
(5.58786 -0.0559821 0)
(5.57811 -0.0622569 0)
(5.56655 -0.0635195 0)
(5.55929 -0.0617381 0)
(5.55887 -0.0589059 0)
(5.56565 -0.056235 0)
(5.57716 -0.05486 0)
(5.09105 0.0617714 0)
(5.30971 -0.0319608 0)
(5.4462 -0.0294233 0)
(5.49974 -0.0442312 0)
(5.5129 -0.0603971 0)
(5.51415 -0.0644984 0)
(5.5205 -0.0617284 0)
(5.53659 -0.0605127 0)
(5.55644 -0.0626041 0)
(5.56948 -0.0648532 0)
(5.56748 -0.0645092 0)
(5.54957 -0.0619145 0)
(5.521 -0.0593415 0)
(5.48997 -0.0590009 0)
(5.46209 -0.0617146 0)
(5.44002 -0.0668797 0)
(5.42164 -0.0732174 0)
(5.40552 -0.0792578 0)
(4.86731 0.0648553 0)
(5.07859 0.0141482 0)
(5.08417 0.00231499 0)
(4.97962 -0.0116704 0)
(4.84304 -0.0158647 0)
(4.71713 -0.0124843 0)
(4.61069 -0.0118097 0)
(4.50752 -0.018069 0)
(4.39261 -0.0272175 0)
(4.26615 -0.0331968 0)
(4.13883 -0.0338917 0)
(4.02084 -0.0316803 0)
(3.914 -0.0300461 0)
(3.81412 -0.030674 0)
(3.71421 -0.0327561 0)
(3.61196 -0.0345291 0)
(3.50563 -0.034532 0)
(3.40034 -0.0325953 0)
(-0.128176 0.340177 3.89266e-20)
(-0.403951 0.343482 -3.8604e-20)
(-0.624096 0.257108 0)
(-0.775878 0.167815 0)
(-0.841004 0.0650458 0)
(-0.820012 -0.0290441 3.73913e-20)
(-0.742172 -0.106615 0)
(-0.606098 -0.17466 0)
(-0.417888 -0.232846 0)
(-0.185461 -0.278589 0)
(0.087183 -0.304243 -3.61226e-20)
(0.388579 -0.319403 0)
(0.696885 -0.322877 0)
(1.00716 -0.315485 0)
(1.31223 -0.298718 0)
(1.6019 -0.27418 -3.4509e-20)
(1.8685 -0.244189 0)
(2.10788 -0.211291 0)
(2.31713 -0.177097 0)
(2.49488 -0.14276 0)
(2.64016 -0.108769 0)
(2.75278 -0.0754841 0)
(2.83305 -0.0429448 0)
(2.88004 -0.0106776 -3.19647e-20)
(2.8958 0.0216726 3.16926e-20)
(2.87531 0.0561226 -3.14301e-20)
(2.81999 0.0911543 -3.11795e-20)
(2.72897 0.129251 0)
(2.601 0.166226 0)
(2.43701 0.20756 3.04877e-20)
(2.22782 0.249384 3.02714e-20)
(1.98511 0.290406 0)
(1.68548 0.34516 0)
(1.35187 0.379033 2.96272e-20)
(0.954927 0.427102 0)
(0.520239 0.299253 0)
(0.216637 0.000626835 -2.89089e-20)
(0.0237814 -0.126472 0)
(-0.114992 -0.0891012 -2.8395e-20)
(-0.204516 -0.0317833 -5.62559e-20)
(-0.245878 -0.00972758 0)
(-0.247531 -0.0138167 0)
(-0.214864 -0.0311254 0)
(-0.148887 -0.0511872 0)
(-0.0548282 -0.0604712 0)
(0.0631182 -0.0625232 -5.33416e-20)
(0.208119 -0.0650988 -5.28551e-20)
(0.367938 -0.0593521 -5.23716e-20)
(0.519605 -0.0263195 0)
(0.619803 0.0242135 5.13988e-20)
(0.605788 0.0792903 0)
(0.582577 0.115726 -5.0414e-20)
(0.693012 0.038533 -4.99113e-20)
(0.881026 -0.191676 0)
(1.02469 -0.473866 0)
(1.07301 -0.499432 0)
(0.981092 -0.194711 -4.79371e-20)
(0.623762 0.191031 0)
(0.0740938 0.378171 0)
(-0.504315 0.42203 0)
(-1.07997 0.42344 0)
(-1.62683 0.403707 0)
(-2.13449 0.373874 0)
(-2.59897 0.340597 0)
(-3.02076 0.307478 0)
(-3.40227 0.276188 4.27097e-20)
(-3.74655 0.247309 0)
(-4.05665 0.220839 0)
(-4.33521 0.196447 -4.08127e-20)
(-4.58433 0.173791 -4.02127e-20)
(-4.80569 0.152689 0)
(-5.00072 0.133047 3.90698e-20)
(-5.17064 0.114712 -3.8529e-20)
(-5.31639 0.0974574 0)
(-5.43859 0.0810221 3.75154e-20)
(-5.53743 0.065128 0)
(-5.61264 0.0494864 0)
(-5.66355 0.0339364 -3.61856e-20)
(-5.6891 0.0186313 0)
(-5.68829 0.00377454 3.54392e-20)
(-5.66326 -0.0108586 0)
(-5.61193 -0.0251103 -3.48055e-20)
(-5.53552 -0.038792 -3.45284e-20)
(-5.43389 -0.0517435 -3.42742e-20)
(-5.30879 -0.0635694 -6.80791e-20)
(-5.16186 -0.07408 6.76407e-20)
(-4.99556 -0.0830439 0)
(-4.81252 -0.0903957 0)
(-4.61555 -0.0961279 0)
(-4.40741 -0.100324 6.60392e-20)
(-4.19075 -0.103099 6.56429e-20)
(-3.96806 -0.104595 -6.52382e-20)
(-3.74168 -0.104948 0)
(-3.51378 -0.104298 6.43914e-20)
(-3.28622 -0.102811 6.39457e-20)
(-3.06058 -0.100691 6.34843e-20)
(-2.83794 -0.0981841 0)
(-2.61881 -0.0955562 0)
(-2.40318 -0.0930593 0)
(-2.19054 -0.090897 6.14976e-20)
(-1.98003 -0.0891893 0)
(-1.77068 -0.0879395 0)
(-1.56164 -0.0870349 -5.99003e-20)
(-1.35242 -0.0862761 0)
(-1.14301 -0.0853917 0)
(-0.934012 -0.0840819 -5.82338e-20)
(-0.726633 -0.0820789 0)
(-0.522588 -0.0791894 0)
(-0.323963 -0.0753221 5.64822e-20)
(-0.132865 -0.0704983 5.58763e-20)
(0.0475859 -0.0654331 0)
(0.215844 -0.0594 -5.46023e-20)
(0.371667 -0.0531357 0)
(0.51404 -0.0468493 5.32847e-20)
(0.643006 -0.0407962 0)
(0.759087 -0.0351635 5.19577e-20)
(0.863205 -0.0300612 5.12943e-20)
(0.956537 -0.0255167 0)
(1.04031 -0.0214662 0)
(1.11561 -0.0178 0)
(1.18325 -0.0143841 0)
(1.24364 -0.0110392 0)
(1.29679 -0.00767101 0)
(1.34248 -0.00428788 0)
(1.38035 -0.000804827 4.61103e-20)
(1.40985 0.00269042 -4.54835e-20)
(1.43086 0.00583763 0)
(1.4437 0.00879496 0)
(1.44787 0.0118808 0)
(1.44369 0.0146739 0)
(1.43241 0.0166825 -8.48486e-20)
(1.41524 0.0179284 0)
(1.39349 0.0185689 8.24694e-20)
(1.36833 0.0187202 -8.1294e-20)
(1.34078 0.0184588 0)
(1.31173 0.0178397 0)
(1.282 0.0169096 0)
(1.25235 0.0157291 7.66823e-20)
(1.2234 0.0143893 7.55512e-20)
(1.19566 0.0129903 0)
(1.16946 0.0116124 7.33139e-20)
(1.14499 0.0103077 7.22075e-20)
(1.12234 0.00910308 -7.1109e-20)
(1.10152 0.00800898 0)
(1.08251 0.0070289 0)
(1.06525 0.00616503 -6.78597e-20)
(1.04966 0.00541836 0)
(1.03566 0.00478669 0)
(1.02313 0.00426313 0)
(1.01194 0.0038356 0)
(1.00198 0.00348787 6.25893e-20)
(0.993111 0.00320145 6.15558e-20)
(0.985213 0.00295819 0)
(0.978181 0.00274261 5.95087e-20)
(0.971915 0.00254395 0)
(0.966336 0.00235559 0)
(0.961355 0.00217608 5.64865e-20)
(0.956903 0.00200497 0)
(0.952883 0.0018459 5.45029e-20)
(0.949233 0.00170597 0)
(0.945836 0.00159307 0)
(0.942662 0.00150751 5.1573e-20)
(0.939546 0.0014524 0)
(0.936518 0.00142127 4.9649e-20)
(0.933287 0.0014273 0)
(0.930001 0.00146976 0)
(0.926102 0.00157181 0)
(0.922024 0.0017091 -4.58692e-20)
(0.916693 0.00193325 0)
(0.911103 0.0022005 4.40132e-20)
(0.903221 0.00263463 0)
(0.89493 0.00310444 0)
(0.882878 0.00393835 0)
(0.869387 0.00465686 0)
(0.851439 0.00637882 0)
(0.825959 0.0071239 0)
(0.804043 0.0113688 0)
(0.743208 0.0100828 -7.36755e-20)
(0.741148 0.0234492 0)
(0.567206 0.0108446 0)
(0.0133365 0.720749 -1.1678e-19)
(-0.0447556 0.652631 1.15901e-19)
(-0.0927443 0.477021 0)
(-0.114167 0.266347 -7.6097e-20)
(-0.0729621 0.0320597 0)
(0.0120686 -0.175219 -3.74689e-20)
(0.147613 -0.351462 7.4361e-20)
(0.328124 -0.5089 7.37565e-20)
(0.541623 -0.649053 0)
(0.783499 -0.768451 7.25403e-20)
(1.04191 -0.855749 3.60009e-20)
(1.30553 -0.9067 0)
(1.56539 -0.921928 0)
(1.81634 -0.904186 0)
(2.0545 -0.859585 0)
(2.2751 -0.795037 3.44216e-20)
(2.47495 -0.716907 0)
(2.65227 -0.630636 -6.73907e-20)
(2.80658 -0.540395 0)
(2.93722 -0.448996 0)
(3.0442 -0.358128 6.5503e-20)
(3.12716 -0.268719 0)
(3.18626 -0.181233 -6.4331e-20)
(3.22208 -0.0956342 3.19352e-20)
(3.23428 -0.0118557 -3.16655e-20)
(3.22641 0.0711097 3.14001e-20)
(3.19627 0.15326 3.11458e-20)
(3.14466 0.236111 0)
(3.07068 0.319526 0)
(2.97775 0.404689 -3.04359e-20)
(2.86107 0.493352 3.01149e-20)
(2.72772 0.580916 0)
(2.5672 0.674628 0)
(2.39233 0.756058 -2.95327e-20)
(2.19627 0.835037 0)
(1.96445 0.857777 0)
(1.71838 0.782815 2.879e-20)
(1.39216 0.634039 0)
(1.0154 0.439111 -2.83259e-20)
(0.731018 0.242057 5.61659e-20)
(0.551505 0.0720337 0)
(0.424885 -0.0435708 0)
(0.368483 -0.126032 1.09468e-19)
(0.38418 -0.205806 1.08489e-19)
(0.444583 -0.27064 1.07515e-19)
(0.538107 -0.328409 -5.32641e-20)
(0.676867 -0.382633 5.27862e-20)
(0.860979 -0.383969 1.56874e-19)
(1.024 -0.319988 -1.03605e-19)
(1.13295 -0.171621 -5.13296e-20)
(1.2889 -0.0131375 0)
(1.48196 -0.171362 5.03327e-20)
(1.48893 -0.503389 -4.99037e-20)
(1.20202 -0.321954 0)
(0.570415 0.230528 0)
(-0.236131 0.618433 0)
(-0.931588 0.866026 4.79568e-20)
(-1.52496 1.03445 0)
(-2.05324 1.09238 -9.35583e-20)
(-2.51956 1.07449 0)
(-2.93636 1.01635 -9.12231e-20)
(-3.30746 0.936569 0)
(-3.63731 0.849348 8.87546e-20)
(-3.93037 0.762887 0)
(-4.19123 0.681659 -8.62387e-20)
(-4.42418 0.607506 4.23821e-20)
(-4.63284 0.540673 0)
(-4.82009 0.480473 8.25397e-20)
(-4.98808 0.425828 4.07505e-20)
(-5.13841 0.375674 4.01609e-20)
(-5.27228 0.329131 0)
(-5.39062 0.285494 3.89218e-20)
(-5.49401 0.244165 3.85006e-20)
(-5.58265 0.204514 0)
(-5.65639 0.165856 -3.74976e-20)
(-5.71468 0.127494 7.39648e-20)
(-5.75662 0.0887783 0)
(-5.78095 0.0492387 3.61789e-20)
(-5.78629 0.00885322 0)
(-5.77129 -0.0320955 -1.06211e-19)
(-5.73187 -0.0733365 0)
(-5.66851 -0.114205 1.04316e-19)
(-5.57981 -0.153827 3.45222e-20)
(-5.46704 -0.191297 -3.41962e-20)
(-5.33098 -0.225597 -6.79368e-20)
(-5.17381 -0.255966 6.75125e-20)
(-4.99787 -0.281831 0)
(-4.80595 -0.302951 0)
(-4.60089 -0.319347 0)
(-4.38543 -0.331265 -1.98002e-19)
(-4.16217 -0.339058 -6.56264e-20)
(-3.9335 -0.343111 6.52221e-20)
(-3.70167 -0.343813 0)
(-3.46875 -0.341577 6.43356e-20)
(-3.23659 -0.336891 -6.39317e-20)
(-3.00673 -0.33036 -6.34712e-20)
(-2.7802 -0.322721 0)
(-2.55745 -0.314773 0)
(-2.33834 -0.307278 0)
(-2.12219 -0.300842 -6.14879e-20)
(-1.90799 -0.295817 0)
(-1.69461 -0.292209 1.20827e-19)
(-1.48109 -0.289675 1.79641e-19)
(-1.26682 -0.287615 -1.18657e-19)
(-1.0518 -0.285228 0)
(-0.836679 -0.281639 -5.81995e-20)
(-0.622758 -0.276062 0)
(-0.411974 -0.267897 -1.14125e-19)
(-0.206613 -0.256879 5.64624e-20)
(-0.00947807 -0.243367 5.58548e-20)
(0.176812 -0.228227 0)
(0.350883 -0.211057 1.63742e-19)
(0.511841 -0.193122 -1.07848e-19)
(0.659148 -0.175101 -5.32681e-20)
(0.793184 -0.157669 0)
(0.914911 -0.141396 -5.19428e-20)
(1.02565 -0.126689 -1.53835e-19)
(1.12688 -0.113731 0)
(1.22004 -0.102446 -9.99159e-20)
(1.30646 -0.0925377 -9.86057e-20)
(1.38716 -0.0835784 -9.73034e-20)
(1.46275 -0.075081 0)
(1.53348 -0.0666386 0)
(1.59926 -0.0579995 0)
(1.65956 -0.0490087 4.60915e-20)
(1.71403 -0.0397126 4.54676e-20)
(1.76227 -0.0304296 0)
(1.80354 -0.0213073 8.84528e-20)
(1.83828 -0.0124179 8.72279e-20)
(1.8673 -0.00425662 0)
(1.89074 0.00274736 8.48087e-20)
(1.90867 0.00852941 1.67219e-19)
(1.92164 0.0131454 -8.24241e-20)
(1.93032 0.0166593 -8.12427e-20)
(1.93547 0.0192225 0)
(1.93778 0.0209398 0)
(1.93789 0.0218906 0)
(1.93633 0.0221679 -7.66281e-20)
(1.93358 0.0218721 7.54946e-20)
(1.93002 0.0211251 1.48744e-19)
(1.92594 0.0200588 -7.32578e-20)
(1.92157 0.0187916 7.21506e-20)
(1.91708 0.0174141 7.10528e-20)
(1.91258 0.0159858 0)
(1.90818 0.0145414 0)
(1.90394 0.0131033 -6.78045e-20)
(1.89995 0.01169 0)
(1.89629 0.01032 0)
(1.89308 0.00901289 1.29247e-19)
(1.89041 0.00778788 0)
(1.8884 0.00666058 6.25379e-20)
(1.88714 0.00564058 -6.15052e-20)
(1.88669 0.00473089 0)
(1.88709 0.00392896 5.94599e-20)
(1.88834 0.00322886 0)
(1.89042 0.00262642 0)
(1.89329 0.00212169 -5.64401e-20)
(1.89687 0.00170589 1.10892e-19)
(1.90104 0.0013843 -5.44582e-20)
(1.90572 0.00114549 0)
(1.91075 0.000978597 0)
(1.91604 0.00087404 5.15304e-20)
(1.92141 0.000838139 0)
(1.92685 0.000870538 4.96078e-20)
(1.93209 0.00100312 0)
(1.9372 0.00122009 0)
(1.94178 0.00158131 0)
(1.94602 0.00200443 4.58314e-20)
(1.94928 0.0026834 0)
(1.95198 0.003362 -4.39768e-20)
(1.95318 0.00457961 0)
(1.95329 0.00554091 0)
(1.95153 0.00781654 8.2474e-20)
(1.94691 0.00899907 -8.06719e-20)
(1.94158 0.0136067 0)
(1.92681 0.014462 0)
(1.91979 0.0245751 0)
(1.87931 0.0227596 2.20817e-19)
(1.88333 0.0464119 0)
(1.7737 0.036588 -1.40358e-19)
(0.108074 0.480031 -7.90167e-23)
(0.235694 0.636243 -1.5455e-19)
(0.331723 0.477275 0)
(0.424577 0.187168 1.52192e-19)
(0.546824 -0.143829 0)
(0.704912 -0.435781 0)
(0.897359 -0.682035 7.57145e-23)
(1.11844 -0.893733 -7.35358e-20)
(1.35352 -1.07228 -7.29251e-20)
(1.58599 -1.21003 -7.23193e-20)
(1.80333 -1.29902 0)
(1.99982 -1.33642 0)
(2.176 -1.32564 7.03515e-20)
(2.33249 -1.27383 1.39422e-19)
(2.47086 -1.19095 -1.38143e-19)
(2.59372 -1.08711 0)
(2.70359 -0.970635 -1.35599e-19)
(2.80224 -0.847541 6.73388e-20)
(2.89044 -0.721784 0)
(2.96804 -0.59561 -1.3188e-19)
(3.03406 -0.470284 -6.54912e-20)
(3.0872 -0.346392 1.29527e-19)
(3.12609 -0.224485 6.43346e-20)
(3.14979 -0.104888 0)
(3.15711 0.0119194 -1.26263e-19)
(3.14822 0.125437 -1.2521e-19)
(3.12362 0.236068 0)
(3.08464 0.344728 -1.23208e-19)
(3.03115 0.453175 0)
(2.96604 0.560799 -1.21313e-19)
(2.88905 0.670096 -6.0304e-20)
(2.80428 0.777175 0)
(2.71218 0.882962 0)
(2.61504 0.979307 0)
(2.51911 1.05601 0)
(2.40961 1.10144 0)
(2.28328 1.07807 0)
(2.11555 0.990622 -1.13951e-19)
(1.9104 0.860519 1.69529e-19)
(1.71419 0.672728 0)
(1.53055 0.460503 0)
(1.36702 0.262884 0)
(1.24459 0.0483093 1.17031e-22)
(1.18082 -0.167682 -1.08292e-19)
(1.14449 -0.304781 -2.14741e-19)
(1.17825 -0.395919 2.12766e-19)
(1.29182 -0.545313 1.05384e-19)
(1.41833 -0.624611 -1.04406e-19)
(1.57337 -0.42234 1.12706e-22)
(1.65542 -0.374047 -1.02414e-19)
(1.54569 -0.509409 0)
(1.17637 -0.130792 -1.00659e-19)
(0.36354 0.588734 4.8047e-23)
(-0.494808 1.06947 0)
(-1.19342 1.34378 0)
(-1.77559 1.48685 9.64557e-20)
(-2.2428 1.58254 0)
(-2.62269 1.61956 0)
(-2.92629 1.59015 -9.26446e-20)
(-3.17723 1.51064 -1.83682e-19)
(-3.39219 1.40021 9.10881e-20)
(-3.58482 1.27645 0)
(-3.76357 1.15194 -8.86899e-20)
(-3.9336 1.03414 0)
(-4.0976 0.926591 -8.56146e-20)
(-4.25673 0.830105 -8.49846e-20)
(-4.41111 0.743884 1.67052e-19)
(-4.56015 0.666332 8.21388e-20)
(-4.70287 0.595656 0)
(-4.83806 0.530236 -1.60084e-19)
(-4.96444 0.468776 0)
(-5.08079 0.410297 -2.3366e-19)
(-5.18609 0.354032 -1.53566e-19)
(-5.27944 0.299158 -1.51529e-19)
(-5.35983 0.244674 1.49573e-19)
(-5.42594 0.189463 -2.21704e-19)
(-5.47612 0.132466 0)
(-5.50827 0.0728304 0)
(-5.52 0.0101627 1.42759e-19)
(-5.50923 -0.0551785 2.12123e-19)
(-5.47403 -0.122451 0)
(-5.41339 -0.190076 -6.95358e-20)
(-5.32694 -0.2562 0)
(-5.21531 -0.318791 2.05205e-19)
(-5.08005 -0.376071 2.03206e-22)
(-4.92344 -0.426547 -1.79363e-22)
(-4.74833 -0.469289 -1.34175e-19)
(-4.55777 -0.503904 0)
(-4.35483 -0.530533 1.32642e-19)
(-4.14232 -0.549684 1.04109e-22)
(-3.92274 -0.562033 0)
(-3.69837 -0.568248 0)
(-3.47135 -0.568942 0)
(-3.24375 -0.564763 -1.2871e-19)
(-3.01747 -0.556488 0)
(-2.79414 -0.545118 0)
(-2.57487 -0.531905 0)
(-2.36004 -0.518242 0)
(-2.14926 -0.505467 0)
(-1.94157 -0.494637 -1.22873e-19)
(-1.73554 -0.486363 0)
(-1.52958 -0.480658 -1.20819e-19)
(-1.32228 -0.47688 -1.19739e-19)
(-1.11273 -0.473942 1.18646e-19)
(-0.900759 -0.470435 0)
(-0.687079 -0.464795 1.16416e-19)
(-0.473188 -0.455575 0)
(-0.261473 -0.44172 1.14115e-19)
(-0.0549867 -0.423002 -1.12927e-19)
(0.142904 -0.399724 -3.35014e-19)
(0.329482 -0.372421 0)
(0.502679 -0.342221 -3.27302e-19)
(0.660712 -0.310922 -1.07778e-19)
(0.802382 -0.280148 0)
(0.927515 -0.251216 -2.10322e-19)
(1.03726 -0.224969 -2.0768e-19)
(1.13391 -0.20181 3.07566e-19)
(1.22032 -0.1818 0)
(1.29922 -0.164709 9.98956e-20)
(1.37278 -0.150043 9.8588e-20)
(1.44246 -0.137079 2.91848e-19)
(1.50908 -0.125007 0)
(1.57295 -0.11312 0)
(1.63392 -0.100883 0)
(1.69159 -0.0880291 9.21645e-20)
(1.74538 -0.074656 0)
(1.79466 -0.0610223 0)
(1.83878 -0.0475062 -8.84452e-20)
(1.87744 -0.0346762 -8.72209e-20)
(1.91064 -0.0230206 0)
(1.93862 -0.0127643 0)
(1.96203 -0.00403551 -1.6721e-19)
(1.98141 0.00311601 0)
(1.9973 0.00875015 1.62478e-19)
(2.01024 0.0129733 1.60135e-19)
(2.02064 0.0158837 0)
(2.02892 0.0176188 0)
(2.03547 0.018364 -1.53235e-19)
(2.04069 0.0183447 -2.38127e-24)
(2.04496 0.0177759 -1.92793e-24)
(2.04863 0.016846 0)
(2.05197 0.0157064 -2.88561e-19)
(2.05516 0.0144649 0)
(2.0583 0.0131913 0)
(2.0614 0.0119254 0)
(2.06443 0.0106826 1.35586e-19)
(2.06734 0.00946055 0)
(2.0701 0.00824751 -2.62659e-19)
(2.07271 0.0070312 -1.29223e-19)
(2.07522 0.00580398 0)
(2.07773 0.00456489 -1.25052e-19)
(2.08039 0.00331981 0)
(2.08339 0.00208054 0)
(2.08692 0.000864224 -3.5669e-19)
(2.09114 -0.000307924 2.33742e-19)
(2.0962 -0.00141288 0)
(2.10218 -0.00242191 2.25715e-19)
(2.10912 -0.00331331 -1.1087e-19)
(2.117 -0.00406613 0)
(2.12576 -0.00466501 0)
(2.1353 -0.00509208 0)
(2.14549 -0.00535753 -3.09117e-19)
(2.15618 -0.00546022 0)
(2.16721 -0.00542158 -9.91945e-20)
(2.17846 -0.00520905 0)
(2.18975 -0.00486248 0)
(2.20106 -0.00428668 0)
(2.21215 -0.00360659 0)
(2.22313 -0.0025482 0)
(2.23349 -0.00148318 0)
(2.24378 0.000343104 -1.72183e-19)
(2.2527 0.00185876 0)
(2.26202 0.0051012 -8.24524e-20)
(2.2682 0.00706699 2.41942e-19)
(2.27661 0.0132119 0)
(2.27729 0.015326 0)
(2.28592 0.0277134 -1.50627e-19)
(2.27486 0.0286735 -1.47157e-19)
(2.28776 0.0544604 1.43669e-19)
(2.25229 0.0523941 1.40305e-19)
(0.0458554 -0.0425206 2.34049e-19)
(0.162563 0.164302 2.32257e-19)
(0.267441 0.0776401 1.53742e-19)
(0.441716 -0.188018 7.63476e-20)
(0.675813 -0.535879 0)
(0.935946 -0.885547 -1.49703e-19)
(1.2004 -1.19028 7.41989e-20)
(1.44746 -1.42855 0)
(1.66106 -1.59209 7.28119e-20)
(1.83237 -1.68036 0)
(1.96126 -1.69935 -1.42972e-19)
(2.05534 -1.66042 0)
(2.12602 -1.57899 -7.03389e-20)
(2.18497 -1.47062 -1.39441e-19)
(2.24139 -1.34798 1.38197e-19)
(2.301 -1.21951 0)
(2.36609 -1.08938 1.35694e-19)
(2.4359 -0.958697 0)
(2.50784 -0.826965 0)
(2.57825 -0.693352 1.31995e-19)
(2.64326 -0.557417 0)
(2.69926 -0.419367 -2.65973e-22)
(2.74351 -0.280007 0)
(2.77457 -0.140552 0)
(2.79199 -0.0024459 2.37148e-22)
(2.79734 0.13355 1.25316e-19)
(2.79123 0.266333 1.24066e-19)
(2.77527 0.39605 1.23281e-19)
(2.75106 0.523344 0)
(2.71977 0.64822 2.42522e-19)
(2.68108 0.771963 0)
(2.63648 0.889771 1.19318e-19)
(2.58365 1.00234 0)
(2.52565 1.09943 0)
(2.46227 1.17647 -1.16606e-19)
(2.39639 1.22538 0)
(2.32862 1.23007 1.14807e-19)
(2.2434 1.18574 -3.93665e-23)
(2.14078 1.06944 -2.25958e-19)
(2.00838 0.910671 2.24275e-19)
(1.88889 0.681921 0)
(1.74572 0.417384 0)
(1.63948 0.174539 1.09643e-19)
(1.6032 -0.048389 0)
(1.4947 -0.248308 1.07331e-19)
(1.47063 -0.526172 -1.06315e-19)
(1.62072 -0.722785 -1.05283e-19)
(1.66153 -0.854667 0)
(1.49133 -0.775185 1.034e-19)
(1.03574 -0.0350865 1.02538e-19)
(0.219657 0.797721 -2.03182e-19)
(-0.558917 1.33114 1.00652e-19)
(-1.21404 1.68135 9.95599e-20)
(-1.73253 1.87216 0)
(-2.13968 1.97702 0)
(-2.46123 2.01212 -9.6243e-20)
(-2.71071 1.99678 0)
(-2.90288 1.9372 0)
(-3.05694 1.84154 1.85852e-19)
(-3.18971 1.72313 1.83611e-19)
(-3.31392 1.59337 0)
(-3.43761 1.4621 0)
(-3.56493 1.33593 0)
(-3.6972 1.21849 0)
(-3.83409 1.11106 1.71869e-19)
(-3.97424 1.01321 -1.68947e-19)
(-4.11574 0.923462 -1.67098e-19)
(-4.25632 0.839894 -3.29041e-19)
(-4.39359 0.760699 0)
(-4.52522 0.684523 3.82918e-22)
(-4.64931 0.610593 0)
(-4.76447 0.538522 1.55734e-19)
(-4.86985 0.467916 3.46312e-22)
(-4.96483 0.398049 1.5159e-19)
(-5.04849 0.327685 -1.49636e-19)
(-5.11928 0.255184 3.64603e-22)
(-5.17496 0.178902 0)
(-5.21255 0.0976294 -1.43976e-19)
(-5.22862 0.0107369 -1.42829e-19)
(-5.22086 -0.0815154 -2.82375e-19)
(-5.18717 -0.177067 0)
(-5.12597 -0.273417 1.38496e-19)
(-5.03748 -0.367467 0)
(-4.92301 -0.456083 -2.73229e-19)
(-4.78498 -0.536473 1.35851e-19)
(-4.62651 -0.606515 -1.35002e-19)
(-4.4511 -0.664997 1.34198e-19)
(-4.26221 -0.711622 2.66494e-19)
(-4.06301 -0.746871 -1.32658e-19)
(-3.85612 -0.77173 1.31893e-19)