/*--------------------------------*- C++ -*----------------------------------*\
  =========                 |
  \\      /  F ield         | OpenFOAM: The Open Source CFD Toolbox
   \\    /   O peration     | Website:  https://openfoam.org
    \\  /    A nd           | Version:  7
     \\/     M anipulation  |
\*---------------------------------------------------------------------------*/
FoamFile
{
    version     2.0;
    format      ascii;
    class       volScalarField;
    location    "0.05";
    object      k;
}
// * * * * * * * * * * * * * * * * * * * * * * * * * * * * * * * * * * * * * //

dimensions      [0 2 -2 0 0 0 0];

internalField   nonuniform List<scalar> 
12225
(
0.332318
0.291431
0.257366
0.230639
0.211182
0.197926
0.189374
0.184113
0.181023
0.179295
0.178376
0.177912
0.177688
0.177583
0.177538
0.177519
0.177618
0.179306
0.412415
0.4054
0.384562
0.372636
0.370212
0.373313
0.378626
0.384283
0.389447
0.393813
0.397341
0.400125
0.402311
0.404056
0.405543
0.406841
0.40866
0.409605
0.385492
0.382635
0.372416
0.362745
0.356223
0.352834
0.351773
0.352222
0.353565
0.355368
0.35735
0.359346
0.361282
0.363139
0.364959
0.366778
0.368874
0.370978
0.377228
0.374599
0.368357
0.360895
0.354001
0.348363
0.344042
0.340878
0.338658
0.337175
0.33625
0.335745
0.335561
0.33564
0.335962
0.336527
0.33742
0.338596
0.374689
0.372005
0.367066
0.361015
0.354902
0.34923
0.34418
0.339793
0.336046
0.332883
0.330231
0.328021
0.326198
0.32472
0.323567
0.322731
0.32223
0.322054
0.373369
0.370444
0.366248
0.36124
0.356012
0.350893
0.34604
0.341541
0.337436
0.333728
0.330404
0.327437
0.324804
0.322485
0.320468
0.318746
0.31732
0.316192
0.372514
0.369339
0.36555
0.361239
0.356718
0.352194
0.347778
0.343552
0.339566
0.335847
0.332401
0.329228
0.32632
0.323671
0.321276
0.319131
0.317235
0.315598
0.371957
0.368538
0.364903
0.361006
0.356984
0.35295
0.348972
0.345106
0.341397
0.337872
0.334547
0.331429
0.328519
0.325819
0.323327
0.321043
0.318966
0.317115
0.371594
0.367951
0.364319
0.360629
0.35692
0.353239
0.349617
0.346083
0.342668
0.339394
0.336274
0.333317
0.330529
0.327912
0.325467
0.323195
0.321097
0.319198
0.371358
0.367531
0.36383
0.360208
0.356663
0.353202
0.34983
0.346556
0.343392
0.340353
0.337445
0.334676
0.332049
0.329568
0.327233
0.325046
0.323008
0.321146
0.371206
0.367241
0.363455
0.359823
0.356336
0.352986
0.349762
0.346661
0.343681
0.340827
0.338099
0.335499
0.333029
0.33069
0.328481
0.326402
0.324455
0.322667
0.371115
0.367064
0.363209
0.35954
0.356052
0.352733
0.349571
0.346556
0.343679
0.340938
0.338328
0.335847
0.333493
0.331264
0.329157
0.327172
0.32531
0.323595
0.371052
0.36694
0.363032
0.359324
0.355813
0.352492
0.349349
0.346372
0.343551
0.340877
0.338344
0.335944
0.333674
0.331529
0.329504
0.327597
0.325807
0.324156
0.371005
0.366848
0.362899
0.359155
0.355614
0.352272
0.349121
0.346149
0.343346
0.340703
0.33821
0.335859
0.333643
0.331555
0.329589
0.327739
0.326006
0.324408
0.370973
0.366785
0.362809
0.35904
0.355474
0.352108
0.348937
0.345951
0.343141
0.340499
0.338014
0.335677
0.33348
0.331416
0.329476
0.327655
0.325951
0.324381
0.370951
0.366745
0.362756
0.358974
0.355395
0.352014
0.348827
0.345826
0.343003
0.340349
0.337856
0.335513
0.333313
0.331247
0.329308
0.327488
0.325786
0.324218
0.37094
0.366726
0.362735
0.358952
0.355373
0.351991
0.348802
0.345797
0.34297
0.340311
0.337811
0.335463
0.333256
0.331183
0.329236
0.327409
0.325697
0.324119
0.370941
0.36673
0.362746
0.358975
0.355408
0.352041
0.348866
0.345876
0.343062
0.340415
0.337927
0.335587
0.333388
0.331321
0.329378
0.327551
0.325838
0.324257
0.370959
0.366768
0.362807
0.359064
0.355529
0.352196
0.349058
0.346106
0.343331
0.340724
0.338273
0.33597
0.333805
0.331769
0.329854
0.328053
0.326362
0.3248
0.371
0.366854
0.362942
0.359249
0.355771
0.352499
0.349426
0.346542
0.343837
0.341298
0.338916
0.336679
0.334578
0.332602
0.330744
0.328995
0.327352
0.325833
0.371067
0.366992
0.363153
0.359538
0.356143
0.35296
0.349981
0.347194
0.344583
0.342137
0.339842
0.337686
0.33566
0.333752
0.331953
0.330256
0.328658
0.327176
0.371178
0.367224
0.36351
0.360027
0.356768
0.353726
0.350887
0.348232
0.34574
0.343397
0.341189
0.339103
0.337129
0.335258
0.33348
0.331791
0.330187
0.328689
0.371369
0.367634
0.364148
0.360886
0.357833
0.354976
0.352293
0.349754
0.347337
0.345028
0.342818
0.340698
0.338663
0.336707
0.334826
0.333019
0.331286
0.329653
0.371721
0.368398
0.36531
0.362363
0.359525
0.356796
0.35415
0.35156
0.349017
0.346523
0.344085
0.341705
0.339389
0.337139
0.334959
0.332853
0.330826
0.328908
0.372414
0.369841
0.367339
0.364678
0.361855
0.358942
0.355959
0.352921
0.34986
0.346813
0.34381
0.340871
0.338013
0.335248
0.332584
0.330026
0.32758
0.325279
0.37394
0.372684
0.370723
0.36788
0.364418
0.360604
0.356587
0.352475
0.34837
0.344347
0.340452
0.336715
0.333153
0.329773
0.32658
0.323571
0.320744
0.318125
0.377774
0.379016
0.376573
0.371768
0.366008
0.359955
0.353895
0.348008
0.34242
0.337195
0.33236
0.327914
0.323847
0.320138
0.316763
0.313697
0.310914
0.308413
0.387608
0.394075
0.386693
0.374936
0.363414
0.353111
0.344093
0.336295
0.329624
0.323965
0.319196
0.315203
0.311878
0.309125
0.306857
0.305001
0.303494
0.302286
0.402374
0.39487
0.37549
0.356381
0.340913
0.329342
0.3211
0.315498
0.311892
0.309769
0.308747
0.308543
0.308942
0.309779
0.31093
0.312298
0.313819
0.315421
0.351308
0.326984
0.304728
0.284434
0.266277
0.250315
0.236514
0.224747
0.214816
0.206497
0.199569
0.19383
0.189097
0.185213
0.18204
0.179461
0.177379
0.17571
0.0330016
0.0606821
0.0749823
0.0852182
0.0929438
0.0990873
0.10432
0.109201
0.114276
0.120091
0.126258
0.131917
0.135976
0.138989
0.136768
0.136498
0.140002
0.139886
0.143511
0.135656
0.135678
0.140334
0.142563
0.13979
0.144221
0.15637
0.169649
0.183077
0.196263
0.208992
0.221131
0.2326
0.243359
0.253397
0.262722
0.271352
0.279319
0.286657
0.293406
0.299604
0.305293
0.310514
0.315306
0.319706
0.323749
0.32747
0.330901
0.334071
0.337008
0.33974
0.342291
0.344685
0.346946
0.349096
0.351158
0.353154
0.355105
0.357036
0.35897
0.360934
0.362891
0.36482
0.36673
0.368628
0.370516
0.372396
0.374268
0.376126
0.377967
0.379781
0.381559
0.383286
0.384945
0.386515
0.387972
0.389286
0.390422
0.391341
0.391999
0.392343
0.39232
0.391868
0.390922
0.389416
0.387281
0.38445
0.380863
0.376466
0.371217
0.36509
0.358078
0.350193
0.341473
0.331975
0.321782
0.310996
0.299747
0.288208
0.27665
0.265542
0.255848
0.248714
0.242742
0.23694
0.231216
0.225579
0.220055
0.214668
0.209437
0.204379
0.199504
0.194822
0.19034
0.186062
0.181989
0.178141
0.174647
0.171455
0.168739
0.166314
0.165841
0.167116
0.168755
0.167633
0.167071
0.167045
0.168222
0.1678
0.166224
0.163724
0.160482
0.156657
0.152385
0.147776
0.142925
0.137911
0.132799
0.127648
0.122507
0.117422
0.112435
0.107587
0.102921
0.0984838
0.0943259
0.0904591
0.0868893
0.0836163
0.0806347
0.0779348
0.0755035
0.0733249
0.0713814
0.0696545
0.0681253
0.0667752
0.0655864
0.0645418
0.0636257
0.0628236
0.0621223
0.0615098
0.0609752
0.0605091
0.0601027
0.0597486
0.05944
0.0591712
0.0589372
0.0587337
0.0585575
0.058406
0.0582776
0.0581723
0.0580918
0.0580419
0.0580345
0.0581072
0.0583084
0.0590701
0.0536582
0.0900933
0.110895
0.123833
0.132609
0.139393
0.145595
0.152259
0.160326
0.169995
0.18135
0.194294
0.208678
0.224377
0.241212
0.260738
0.281607
0.299663
0.314019
0.32491
0.332645
0.336499
0.341119
0.34292
0.346672
0.350093
0.353597
0.357832
0.36289
0.368756
0.375369
0.382629
0.390399
0.398522
0.406832
0.415171
0.423397
0.43139
0.439055
0.446325
0.453157
0.459527
0.465432
0.470881
0.475894
0.480501
0.484735
0.488635
0.492241
0.495594
0.498738
0.501714
0.504566
0.507334
0.510061
0.512787
0.515551
0.518392
0.521349
0.524456
0.527691
0.531101
0.534713
0.538549
0.542629
0.54697
0.551584
0.556482
0.56167
0.567148
0.572914
0.578958
0.585266
0.591815
0.598574
0.605502
0.612547
0.619643
0.62671
0.633653
0.640359
0.646696
0.652518
0.657658
0.661941
0.665178
0.667183
0.667771
0.666776
0.664055
0.659502
0.653053
0.644698
0.634479
0.622493
0.608889
0.593861
0.577641
0.5605
0.542725
0.524691
0.507402
0.490433
0.473647
0.457105
0.440889
0.42507
0.409705
0.394834
0.380486
0.366676
0.353409
0.340686
0.328497
0.31683
0.305664
0.294955
0.284692
0.27484
0.265501
0.256201
0.247139
0.240083
0.232822
0.226495
0.22113
0.216972
0.212891
0.208592
0.204014
0.199166
0.194078
0.188797
0.183374
0.17786
0.1723
0.166736
0.161209
0.155758
0.150421
0.145238
0.140248
0.135488
0.13099
0.126773
0.122867
0.119289
0.11603
0.113075
0.110407
0.108008
0.105857
0.103931
0.10221
0.100673
0.0993028
0.0980821
0.0969964
0.0960325
0.0951791
0.094426
0.093764
0.0931852
0.0926822
0.0922483
0.0918777
0.091565
0.0913057
0.0910961
0.0909335
0.0908166
0.0907459
0.0907248
0.0907615
0.090872
0.0910918
0.0914805
0.0922531
0.0935487
0.0980201
0.0824535
0.126336
0.151926
0.168016
0.179396
0.188854
0.198339
0.209469
0.223086
0.239128
0.258246
0.279863
0.303024
0.326605
0.349184
0.369352
0.385625
0.397091
0.403745
0.406329
0.406314
0.405438
0.405371
0.407171
0.411431
0.41807
0.426972
0.438043
0.450988
0.465398
0.480828
0.496833
0.512988
0.528917
0.544308
0.558917
0.572573
0.58517
0.596656
0.607023
0.616295
0.624521
0.631761
0.638085
0.64357
0.648289
0.652318
0.655732
0.658601
0.660995
0.662982
0.664628
0.665997
0.667151
0.668151
0.669057
0.669924
0.670808
0.671761
0.67283
0.674038
0.675409
0.676981
0.678795
0.680892
0.68331
0.686085
0.689248
0.692825
0.69684
0.701308
0.706241
0.71164
0.7175
0.723805
0.730528
0.737624
0.745037
0.752687
0.760474
0.768274
0.775936
0.783281
0.790106
0.796182
0.80126
0.805082
0.807386
0.807924
0.806472
0.802849
0.796925
0.788638
0.777996
0.765079
0.750036
0.733076
0.714454
0.694452
0.673338
0.651948
0.630837
0.609799
0.588887
0.568221
0.547919
0.528079
0.508779
0.490074
0.472004
0.454591
0.437843
0.421761
0.406335
0.391545
0.377362
0.363755
0.350722
0.338263
0.326337
0.314828
0.303807
0.293524
0.28368
0.274436
0.265732
0.257671
0.250146
0.243014
0.236141
0.229419
0.22278
0.21619
0.209636
0.20312
0.19665
0.190243
0.183917
0.177691
0.171591
0.165641
0.159866
0.154288
0.148926
0.143803
0.138943
0.134362
0.130073
0.126099
0.122444
0.119101
0.116061
0.113311
0.110835
0.108616
0.106638
0.104882
0.10333
0.101964
0.100769
0.0997261
0.098822
0.0980418
0.0973725
0.0968017
0.0963183
0.0959122
0.0955743
0.0952967
0.0950729
0.0948973
0.0947665
0.0946789
0.0946367
0.0946475
0.0947321
0.094927
0.0953579
0.0961446
0.0982754
0.113672
0.167458
0.198457
0.218306
0.232913
0.245702
0.259059
0.274091
0.290581
0.30916
0.329668
0.351187
0.372357
0.391674
0.407764
0.419737
0.427418
0.431384
0.432841
0.43337
0.434613
0.437941
0.444249
0.453875
0.466704
0.482338
0.500273
0.519989
0.540935
0.56257
0.584396
0.60598
0.626958
0.647045
0.666026
0.683756
0.700148
0.715161
0.728794
0.741074
0.752044
0.761763
0.770295
0.777711
0.784078
0.789467
0.793945
0.797579
0.800435
0.802576
0.804065
0.804965
0.805338
0.805246
0.804753
0.803919
0.802809
0.801486
0.800016
0.798468
0.796915
0.795379
0.793916
0.792589
0.791461
0.790599
0.790064
0.789916
0.790213
0.791006
0.792342
0.794261
0.796798
0.799975
0.803805
0.808287
0.813406
0.819127
0.82539
0.832114
0.839184
0.846453
0.853741
0.860828
0.867461
0.873356
0.878205
0.881687
0.883488
0.88331
0.880897
0.876049
0.868641
0.858626
0.846045
0.831021
0.813747
0.794472
0.773482
0.751169
0.728651
0.705903
0.68302
0.660156
0.637474
0.615118
0.593208
0.57184
0.551081
0.530981
0.51157
0.492864
0.474865
0.457568
0.440957
0.425007
0.4097
0.395045
0.381044
0.367659
0.354804
0.342466
0.330698
0.319447
0.308718
0.298473
0.288702
0.279405
0.27056
0.262107
0.253972
0.246089
0.238404
0.230881
0.223497
0.216239
0.209103
0.202089
0.195205
0.18846
0.181869
0.175446
0.169208
0.163173
0.157361
0.151792
0.146486
0.141462
0.136733
0.132321
0.128238
0.124482
0.121048
0.117928
0.115109
0.112578
0.110318
0.108312
0.106541
0.104986
0.10363
0.102452
0.101437
0.100566
0.0998235
0.099195
0.0986669
0.0982269
0.0978642
0.0975694
0.097335
0.0971552
0.0970269
0.0969507
0.0969327
0.0969906
0.0971575
0.0975212
0.0981821
0.0995297
0.147394
0.211163
0.248098
0.272261
0.290261
0.305744
0.320175
0.334167
0.348896
0.364621
0.380865
0.396671
0.410934
0.42273
0.431579
0.437619
0.441607
0.444742
0.448393
0.453832
0.462019
0.473485
0.48833
0.506307
0.526949
0.549691
0.573959
0.59922
0.624983
0.650813
0.676332
0.701224
0.725231
0.748153
0.769843
0.790197
0.809151
0.826674
0.842758
0.857414
0.870669
0.882557
0.893119
0.9024
0.910447
0.917308
0.92303
0.927663
0.931256
0.933857
0.935516
0.936285
0.936216
0.935365
0.93379
0.931551
0.928713
0.925346
0.921522
0.917318
0.91285
0.908145
0.903268
0.898299
0.893327
0.888438
0.883724
0.879276
0.875184
0.871534
0.868412
0.865898
0.864064
0.862976
0.862689
0.863246
0.864671
0.866971
0.870127
0.874093
0.878789
0.884093
0.889845
0.895835
0.901808
0.907466
0.912472
0.916463
0.919066
0.919918
0.918688
0.9151
0.908954
0.900137
0.888633
0.874521
0.857962
0.83918
0.818473
0.796772
0.774386
0.751476
0.728243
0.704891
0.68161
0.658564
0.635887
0.613687
0.592044
0.571017
0.550646
0.530954
0.511953
0.493641
0.476012
0.459051
0.442751
0.427119
0.412155
0.397827
0.384077
0.370873
0.358216
0.346087
0.334464
0.323313
0.312602
0.302326
0.292481
0.283042
0.273967
0.265208
0.25672
0.248465
0.240412
0.23254
0.224832
0.21728
0.209879
0.202632
0.195543
0.188621
0.181879
0.17533
0.168993
0.162888
0.157034
0.151452
0.14616
0.141172
0.136511
0.132188
0.128204
0.124556
0.121237
0.118236
0.11554
0.113133
0.110998
0.109114
0.107463
0.106025
0.10478
0.103709
0.102793
0.102015
0.101359
0.10081
0.100355
0.0999824
0.0996826
0.099448
0.099274
0.0991593
0.0991085
0.0991355
0.0992679
0.0995678
0.100106
0.101076
0.179541
0.253219
0.296785
0.325335
0.345941
0.361078
0.37296
0.383527
0.393787
0.40402
0.413972
0.423137
0.431057
0.437567
0.442926
0.447807
0.45316
0.460004
0.469215
0.481387
0.496774
0.515317
0.536718
0.560535
0.586268
0.613416
0.641513
0.670138
0.698921
0.727534
0.755696
0.783168
0.809749
0.835279
0.859627
0.882695
0.904413
0.92473
0.943615
0.961051
0.977036
0.991572
1.00467
1.01635
1.02663
1.03553
1.04308
1.04931
1.05423
1.0579
1.06033
1.06156
1.06164
1.06061
1.05851
1.0554
1.05133
1.04638
1.0406
1.03408
1.02694
1.01923
1.01101
1.00237
0.993425
0.984267
0.975011
0.965773
0.956672
0.947831
0.939372
0.931417
0.924085
0.917492
0.911746
0.906943
0.903167
0.900482
0.898928
0.898518
0.899224
0.90098
0.903666
0.907111
0.911084
0.915295
0.919402
0.923017
0.925724
0.927101
0.926746
0.924305
0.919494
0.912126
0.902112
0.889473
0.874327
0.856852
0.837818
0.817551
0.796313
0.774349
0.751901
0.729193
0.706424
0.683766
0.661362
0.639326
0.617747
0.596693
0.57621
0.556331
0.537076
0.518453
0.500464
0.483106
0.46638
0.450293
0.434845
0.420013
0.405759
0.392053
0.378883
0.366231
0.354071
0.342372
0.331102
0.320248
0.309806
0.299759
0.290083
0.280744
0.271706
0.262937
0.254407
0.246089
0.237964
0.230018
0.222239
0.214623
0.207169
0.199881
0.192766
0.185837
0.17911
0.172603
0.166336
0.160331
0.154607
0.149182
0.144072
0.139301
0.134876
0.130799
0.127067
0.123673
0.120607
0.117855
0.115401
0.113227
0.111313
0.109638
0.108182
0.106924
0.105844
0.104923
0.104143
0.103487
0.10294
0.102489
0.102122
0.10183
0.101606
0.101448
0.101357
0.101343
0.101427
0.101651
0.102062
0.102767
0.206956
0.289371
0.33879
0.370519
0.390995
0.404542
0.413855
0.420743
0.426367
0.431364
0.435998
0.440375
0.44465
0.44916
0.454453
0.461211
0.470114
0.481711
0.496323
0.514027
0.534684
0.557994
0.583571
0.610992
0.63984
0.669722
0.700282
0.731198
0.762183
0.792981
0.823365
0.853135
0.882116
0.910159
0.937134
0.962934
0.987471
1.01067
1.03248
1.05285
1.07175
1.08915
1.10503
1.11939
1.13222
1.14351
1.15326
1.16149
1.1682
1.17339
1.1771
1.17933
1.18011
1.17946
1.17742
1.17404
1.16935
1.1634
1.15626
1.14799
1.1387
1.12846
1.11733
1.10541
1.09279
1.0796
1.06595
1.05198
1.03781
1.02361
1.00951
0.995681
0.982286
0.969485
0.957442
0.946314
0.936251
0.927386
0.919833
0.91368
0.908975
0.905725
0.903881
0.903333
0.903902
0.905337
0.907316
0.909454
0.911311
0.912423
0.912327
0.910595
0.906863
0.90086
0.892413
0.881486
0.868156
0.852931
0.836062
0.817826
0.798488
0.778303
0.757511
0.736333
0.714966
0.693576
0.672305
0.651268
0.630558
0.610245
0.590385
0.571014
0.552162
0.533846
0.516077
0.498863
0.482213
0.466135
0.450632
0.435693
0.421294
0.407414
0.394039
0.381153
0.368734
0.356755
0.345189
0.334023
0.323249
0.312855
0.302824
0.293131
0.28375
0.274653
0.265811
0.2572
0.248799
0.240589
0.232557
0.224692
0.216991
0.209452
0.202081
0.194887
0.187883
0.181087
0.174518
0.168197
0.162148
0.156388
0.150938
0.145815
0.141038
0.136614
0.132543
0.128823
0.125446
0.122401
0.119674
0.117247
0.115101
0.113216
0.111571
0.110144
0.108914
0.107861
0.106966
0.106209
0.105575
0.105048
0.104616
0.104267
0.103993
0.103789
0.103655
0.103596
0.103626
0.103773
0.104066
0.104569
0.226614
0.314493
0.366731
0.399796
0.420944
0.434127
0.441974
0.446411
0.448895
0.450512
0.452058
0.454151
0.457338
0.462156
0.469124
0.478695
0.491187
0.506745
0.525337
0.546781
0.570794
0.597035
0.625145
0.654771
0.68558
0.717264
0.749544
0.782163
0.814886
0.847498
0.879803
0.911621
0.942787
0.973154
1.00259
1.03097
1.05819
1.08416
1.10879
1.13202
1.15379
1.17404
1.19273
1.20982
1.22529
1.2391
1.25124
1.26168
1.27043
1.27746
1.28278
1.28639
1.2883
1.28851
1.28704
1.28392
1.27918
1.27284
1.26496
1.25559
1.2448
1.23267
1.21927
1.20469
1.18903
1.1724
1.15492
1.13672
1.11794
1.09875
1.07931
1.0598
1.04042
1.02137
1.00286
0.985087
0.968277
0.952629
0.938335
0.925563
0.914452
0.905096
0.897533
0.891737
0.887606
0.884957
0.883522
0.882949
0.882807
0.882613
0.881867
0.880087
0.876831
0.871764
0.864604
0.855405
0.844262
0.831348
0.816864
0.801033
0.784087
0.766253
0.747745
0.728762
0.70948
0.690052
0.670608
0.651256
0.632085
0.613166
0.594555
0.576295
0.558421
0.540957
0.523923
0.507336
0.491211
0.475563
0.460398
0.445715
0.431504
0.417755
0.404457
0.391598
0.379164
0.367134
0.355491
0.344223
0.333322
0.32278
0.312586
0.30272
0.293164
0.283892
0.274882
0.26611
0.257555
0.249198
0.241022
0.233016
0.225171
0.217483
0.209956
0.202594
0.195411
0.188421
0.181644
0.175102
0.168816
0.162808
0.1571
0.151709
0.146657
0.141957
0.137613
0.133625
0.12999
0.126699
0.123739
0.121094
0.118748
0.116679
0.114867
0.11329
0.111926
0.110754
0.109753
0.108905
0.10819
0.107592
0.107098
0.106695
0.106373
0.106125
0.105948
0.105844
0.105821
0.105896
0.106088
0.106436
0.23409
0.3244
0.378771
0.413702
0.436219
0.450108
0.457943
0.461731
0.463152
0.463627
0.464328
0.466195
0.469966
0.476199
0.485286
0.497446
0.512737
0.531071
0.55225
0.576004
0.602027
0.630002
0.659622
0.690596
0.722654
0.755547
0.789046
0.822933
0.85701
0.891085
0.92498
0.958526
0.991564
1.02394
1.05553
1.08618
1.11579
1.14424
1.17143
1.19727
1.22168
1.24457
1.2659
1.28559
1.3036
1.31987
1.33438
1.34707
1.35793
1.36693
1.37404
1.37926
1.38256
1.38395
1.38343
1.38099
1.37665
1.37044
1.36238
1.35249
1.34084
1.32749
1.31253
1.29603
1.27809
1.25881
1.23829
1.21667
1.19408
1.17069
1.14666
1.12219
1.09747
1.07275
1.04824
1.0242
1.00089
0.97856
0.957475
0.937879
0.919995
0.904008
0.890048
0.878178
0.868389
0.860587
0.854587
0.850117
0.846782
0.844113
0.841609
0.838778
0.835106
0.830259
0.823999
0.816212
0.806887
0.796095
0.783958
0.770632
0.756289
0.741106
0.725253
0.708888
0.692153
0.675177
0.658067
0.640916
0.623802
0.60679
0.589935
0.57328
0.556861
0.54071
0.524852
0.50931
0.494106
0.479259
0.464784
0.450687
0.436969
0.423631
0.410669
0.398079
0.385854
0.373984
0.362458
0.35127
0.340417
0.329895
0.319696
0.309807
0.300215
0.2909
0.281844
0.273025
0.264423
0.256019
0.247796
0.23974
0.23184
0.224092
0.216495
0.209051
0.201773
0.194672
0.187768
0.181082
0.174637
0.168456
0.162561
0.156974
0.151713
0.146798
0.142237
0.138034
0.134187
0.130692
0.127537
0.124709
0.122191
0.119964
0.118007
0.116298
0.114816
0.113538
0.112444
0.111512
0.110724
0.110062
0.109512
0.109059
0.108691
0.108402
0.108184
0.108038
0.107967
0.10798
0.108089
0.108319
0.232476
0.323075
0.3783
0.414595
0.438704
0.454138
0.4633
0.468141
0.470403
0.471649
0.473228
0.476226
0.48145
0.489433
0.500462
0.514622
0.531839
0.551931
0.574651
0.599719
0.626851
0.655769
0.686213
0.717941
0.750727
0.784361
0.818646
0.853395
0.888429
0.923574
0.958664
0.993538
1.02804
1.06202
1.09533
1.12784
1.15941
1.18992
1.21926
1.24732
1.274
1.2992
1.32284
1.34485
1.36515
1.38368
1.40039
1.41521
1.42811
1.43904
1.44797
1.45486
1.45969
1.46243
1.46308
1.46161
1.45803
1.45233
1.44453
1.43464
1.42268
1.40874
1.39288
1.37519
1.35574
1.33463
1.31196
1.28785
1.26242
1.23582
1.20822
1.17981
1.1508
1.12141
1.09189
1.06251
1.03354
1.00528
0.978021
0.952072
0.92773
0.905259
0.884864
0.866691
0.850818
0.837239
0.825866
0.816566
0.809011
0.80277
0.797366
0.792415
0.7874
0.781946
0.775766
0.768677
0.760586
0.751473
0.741377
0.730374
0.718563
0.706053
0.692953
0.679371
0.665403
0.651139
0.636657
0.622028
0.60731
0.592558
0.577817
0.563127
0.548524
0.534041
0.519706
0.505546
0.491588
0.477855
0.464367
0.45114
0.438183
0.425507
0.413115
0.401014
0.389203
0.377682
0.36645
0.355508
0.344858
0.3345
0.324433
0.314651
0.305144
0.295899
0.286901
0.278133
0.269576
0.261212
0.253025
0.244999
0.237123
0.22939
0.221796
0.214344
0.207042
0.199902
0.192941
0.18618
0.179642
0.173351
0.167332
0.161607
0.156196
0.151121
0.146394
0.142022
0.138007
0.134346
0.131031
0.12805
0.125388
0.123026
0.120945
0.119123
0.117538
0.116168
0.11499
0.113985
0.113132
0.112414
0.111812
0.111314
0.110906
0.110579
0.110325
0.110141
0.110027
0.109989
0.11003
0.110171
0.224679
0.313508
0.368352
0.405433
0.43114
0.448643
0.460079
0.467221
0.471707
0.475062
0.478637
0.483542
0.490587
0.50029
0.512902
0.528467
0.546883
0.567958
0.591457
0.617126
0.644716
0.67399
0.704725
0.736716
0.769771
0.803706
0.838347
0.873526
0.909079
0.944846
0.980672
1.0164
1.05188
1.08696
1.12149
1.15534
1.18837
1.22044
1.25143
1.28122
1.30969
1.33675
1.3623
1.38623
1.40848
1.42895
1.44758
1.4643
1.47905
1.49177
1.50242
1.51094
1.5173
1.52146
1.5234
1.52307
1.52047
1.51558
1.50839
1.4989
1.48711
1.4731
1.45696
1.43874
1.41852
1.39638
1.37242
1.34674
1.31946
1.29071
1.26065
1.22947
1.19736
1.16454
1.13125
1.09777
1.06437
1.03136
0.999036
0.967727
0.937789
0.909566
0.8833
0.859193
0.837393
0.817968
0.800869
0.78622
0.773783
0.763189
0.754069
0.746038
0.738694
0.731676
0.724681
0.717476
0.7099
0.701854
0.693292
0.684205
0.674611
0.664543
0.654043
0.643156
0.631926
0.620398
0.608612
0.59661
0.584428
0.572101
0.559662
0.547144
0.534577
0.52199
0.509412
0.496872
0.484397
0.472013
0.459745
0.447614
0.435638
0.423832
0.412212
0.400788
0.38957
0.378568
0.367787
0.357238
0.346928
0.336864
0.32705
0.317486
0.30817
0.299093
0.290245
0.281612
0.27318
0.264932
0.256851
0.248924
0.241138
0.233484
0.225958
0.21856
0.211296
0.204176
0.197218
0.190441
0.183868
0.177524
0.171434
0.165624
0.160113
0.154926
0.150077
0.145578
0.141433
0.137641
0.134197
0.131092
0.128311
0.125837
0.123651
0.121733
0.12006
0.11861
0.117361
0.116292
0.115382
0.114613
0.113968
0.11343
0.112986
0.112625
0.11234
0.112123
0.111974
0.111892
0.111882
0.111955
0.212436
0.298296
0.351931
0.389322
0.416489
0.436254
0.450451
0.460597
0.46811
0.474347
0.480544
0.48774
0.496722
0.508003
0.521848
0.538329
0.557378
0.578845
0.602536
0.628243
0.655757
0.68488
0.715424
0.747212
0.780077
0.813858
0.848395
0.88353
0.919115
0.955
0.99104
1.02709
1.06299
1.09862
1.13381
1.16842
1.20233
1.23539
1.26747
1.29844
1.32819
1.3566
1.38356
1.40896
1.43273
1.45475
1.47495
1.49326
1.50959
1.52389
1.53608
1.54612
1.55394
1.5595
1.56276
1.56367
1.5622
1.55833
1.55202
1.54325
1.53203
1.51844
1.50254
1.48439
1.46407
1.44164
1.41719
1.39082
1.36262
1.33274
1.30131
1.2685
1.23449
1.19951
1.16377
1.12754
1.09109
1.0547
1.01866
0.983252
0.948861
0.915984
0.884812
0.855571
0.828465
0.803645
0.781206
0.761204
0.743562
0.728116
0.71464
0.702857
0.692459
0.683131
0.674578
0.666539
0.6588
0.651192
0.643589
0.635901
0.628064
0.620036
0.611787
0.603299
0.594564
0.585577
0.576341
0.566863
0.557153
0.547227
0.537101
0.526794
0.516328
0.505727
0.495014
0.484216
0.473359
0.462469
0.451573
0.440695
0.429857
0.419081
0.408386
0.397792
0.387314
0.37697
0.366775
0.356744
0.346893
0.337234
0.327778
0.318531
0.309496
0.300672
0.292053
0.28363
0.275391
0.267323
0.259411
0.251641
0.244001
0.236482
0.229077
0.221785
0.214611
0.207565
0.20066
0.193917
0.187359
0.18101
0.174896
0.169045
0.163479
0.158221
0.153291
0.148701
0.14446
0.140569
0.137025
0.133821
0.130944
0.128379
0.126107
0.124108
0.122361
0.120844
0.119535
0.118411
0.117453
0.116641
0.115957
0.115384
0.114909
0.11452
0.114207
0.113963
0.113785
0.11367
0.113619
0.113642
0.19718
0.279656
0.331672
0.369046
0.397452
0.419407
0.436456
0.449834
0.460692
0.470144
0.479239
0.488891
0.499827
0.512558
0.527383
0.544425
0.563685
0.585082
0.608486
0.633744
0.660696
0.689181
0.719046
0.750141
0.782325
0.815464
0.849412
0.883976
0.919042
0.954479
0.990154
1.02593
1.06166
1.09721
1.13245
1.16722
1.20139
1.23483
1.2674
1.29897
1.32942
1.35863
1.38649
1.41287
1.43769
1.46084
1.48223
1.50177
1.51937
1.53498
1.5485
1.55987
1.56903
1.57592
1.58048
1.58267
1.58243
1.57973
1.57451
1.56674
1.55644
1.54367
1.52849
1.51095
1.49113
1.46908
1.44487
1.4186
1.39035
1.36026
1.32845
1.29507
1.26031
1.22434
1.18739
1.14969
1.1115
1.07308
1.03473
0.996725
0.959412
0.923118
0.888116
0.854668
0.823014
0.793369
0.765917
0.740794
0.718077
0.697771
0.67981
0.664057
0.650309
0.638317
0.627806
0.618502
0.610145
0.602505
0.595385
0.588617
0.582064
0.575613
0.569172
0.562666
0.556036
0.549237
0.542234
0.535004
0.527531
0.519811
0.511841
0.503627
0.49518
0.486513
0.477643
0.468591
0.459379
0.450031
0.440571
0.431023
0.421412
0.411762
0.402095
0.392435
0.382805
0.373226
0.36372
0.354308
0.345012
0.33585
0.326839
0.317992
0.309317
0.300818
0.292495
0.284344
0.276358
0.268525
0.260833
0.25327
0.245824
0.238485
0.231246
0.224106
0.217066
0.210136
0.203329
0.196663
0.190161
0.183849
0.177753
0.1719
0.166316
0.161025
0.156048
0.1514
0.147094
0.143132
0.139514
0.136234
0.133283
0.130645
0.128304
0.126241
0.124433
0.12286
0.1215
0.120331
0.119332
0.118483
0.117766
0.117165
0.116664
0.116251
0.115915
0.115649
0.115447
0.115306
0.115224
0.115211
0.179982
0.259281
0.309627
0.346816
0.376228
0.400143
0.419869
0.43638
0.450558
0.46326
0.475311
0.487466
0.500368
0.514525
0.530256
0.547668
0.566864
0.587849
0.61057
0.634941
0.660858
0.688205
0.716867
0.746723
0.777653
0.809534
0.842239
0.875631
0.909588
0.943984
0.978693
1.01359
1.04853
1.0834
1.11805
1.15235
1.18617
1.21937
1.25182
1.28339
1.31397
1.34342
1.37162
1.39847
1.42386
1.44768
1.46983
1.49022
1.50876
1.52536
1.53995
1.55245
1.56279
1.5709
1.57672
1.58018
1.58123
1.57981
1.57586
1.56934
1.56026
1.5487
1.53469
1.51827
1.49951
1.47846
1.45518
1.42975
1.40226
1.37282
1.34154
1.30857
1.27406
1.23817
1.20111
1.16309
1.12431
1.08504
1.04551
1.00599
0.96676
0.928088
0.890245
0.853498
0.818114
0.78436
0.752503
0.722796
0.695464
0.67068
0.648545
0.629064
0.612141
0.597588
0.585152
0.574539
0.565447
0.557587
0.550691
0.544528
0.538895
0.53362
0.528561
0.523598
0.518636
0.513595
0.508414
0.503047
0.497458
0.491623
0.485526
0.479159
0.472521
0.465616
0.458452
0.45104
0.443398
0.435543
0.427495
0.419275
0.410907
0.402414
0.39382
0.385149
0.376428
0.36768
0.358933
0.350212
0.341542
0.332948
0.32445
0.316068
0.307815
0.2997
0.29173
0.283904
0.276218
0.268667
0.261239
0.253924
0.246712
0.239592
0.232557
0.225605
0.218737
0.21196
0.205286
0.198734
0.192325
0.186085
0.180041
0.174221
0.168652
0.163359
0.158366
0.153691
0.149346
0.145338
0.14167
0.138336
0.13533
0.132637
0.130243
0.128128
0.126272
0.124654
0.123253
0.122046
0.121014
0.120135
0.119391
0.118765
0.118243
0.117811
0.117457
0.117173
0.116952
0.116791
0.116688
0.116648
0.16173
0.238178
0.287157
0.324177
0.354426
0.380045
0.402192
0.421571
0.438853
0.454662
0.469602
0.484244
0.499097
0.514588
0.53103
0.548633
0.567541
0.587832
0.60953
0.632622
0.657066
0.682802
0.709755
0.737842
0.766971
0.797042
0.827951
0.859587
0.891838
0.924591
0.95773
0.991135
1.02468
1.05825
1.09171
1.12494
1.1578
1.19017
1.22192
1.25293
1.28307
1.31222
1.34027
1.36709
1.39258
1.41662
1.43913
1.46
1.47913
1.49644
1.51184
1.52525
1.5366
1.5458
1.55279
1.55749
1.55985
1.55979
1.55725
1.55217
1.54459
1.53455
1.52208
1.50721
1.48998
1.47045
1.44867
1.4247
1.39863
1.37054
1.34054
1.30875
1.2753
1.24034
1.20403
1.16656
1.1281
1.08885
1.04903
1.00885
0.968528
0.928305
0.888425
0.849149
0.81077
0.77361
0.738028
0.704405
0.673124
0.644527
0.618871
0.596292
0.576779
0.560186
0.546256
0.534666
0.525059
0.517085
0.510413
0.504752
0.499846
0.495482
0.491478
0.487688
0.483992
0.480292
0.476511
0.472591
0.468483
0.464152
0.459574
0.45473
0.449609
0.444207
0.438522
0.432559
0.426326
0.419834
0.413097
0.40613
0.398954
0.391587
0.384053
0.376375
0.368577
0.360687
0.352732
0.344741
0.336741
0.32876
0.320823
0.312952
0.305168
0.297483
0.289908
0.282448
0.275104
0.267871
0.260742
0.25371
0.246764
0.239894
0.233095
0.226362
0.219695
0.213102
0.206593
0.200185
0.193899
0.187761
0.181799
0.176042
0.170517
0.165251
0.160269
0.155591
0.151232
0.147202
0.143504
0.140137
0.137093
0.134361
0.131927
0.129774
0.127882
0.126229
0.124795
0.123559
0.122499
0.121596
0.120831
0.120186
0.119647
0.119198
0.11883
0.118533
0.118299
0.118123
0.118004
0.117945
0.14371
0.216902
0.264447
0.301393
0.332416
0.359514
0.383716
0.405643
0.425761
0.444477
0.462181
0.479249
0.496043
0.512893
0.530082
0.547846
0.566371
0.585799
0.606227
0.627716
0.650294
0.673964
0.698704
0.724476
0.751226
0.778889
0.807388
0.836636
0.866542
0.897008
0.927931
0.959205
0.990718
1.02236
1.054
1.08554
1.11684
1.14779
1.17827
1.20816
1.23732
1.26566
1.29304
1.31936
1.34451
1.36838
1.39086
1.41186
1.43127
1.449
1.46498
1.4791
1.49129
1.50147
1.50956
1.51548
1.51917
1.52054
1.51953
1.5161
1.51027
1.50205
1.49147
1.47853
1.46328
1.44574
1.42595
1.40398
1.37989
1.35374
1.32563
1.29566
1.26392
1.23054
1.19565
1.15938
1.12189
1.08331
1.04382
1.00358
0.962757
0.921557
0.880202
0.838961
0.798161
0.7582
0.719548
0.682735
0.648306
0.616765
0.588504
0.563752
0.542542
0.52473
0.510026
0.498052
0.488389