/*--------------------------------*- C++ -*----------------------------------*\
  =========                 |
  \\      /  F ield         | OpenFOAM: The Open Source CFD Toolbox
   \\    /   O peration     | Website:  https://openfoam.org
    \\  /    A nd           | Version:  7
     \\/     M anipulation  |
\*---------------------------------------------------------------------------*/
FoamFile
{
    version     2.0;
    format      ascii;
    class       volScalarField;
    location    "0.05";
    object      p;
}
// * * * * * * * * * * * * * * * * * * * * * * * * * * * * * * * * * * * * * //

dimensions      [0 2 -2 0 0 0 0];

internalField   nonuniform List<scalar> 
12225
(
-2.43917
-1.84125
-1.77263
-1.81674
-1.74384
-1.63209
-1.54476
-1.48025
-1.42437
-1.37284
-1.32577
-1.28218
-1.24004
-1.19735
-1.15237
-1.10253
-1.04728
-0.973964
-3.79222
-2.55383
-2.01854
-1.87229
-1.7503
-1.62625
-1.5352
-1.46986
-1.41444
-1.36378
-1.3176
-1.27479
-1.23334
-1.19133
-1.14716
-1.09858
-1.04503
-0.980301
-3.54949
-2.36593
-1.90556
-1.81027
-1.71865
-1.60894
-1.52328
-1.46029
-1.4066
-1.35745
-1.31252
-1.27077
-1.23031
-1.1894
-1.14662
-1.10029
-1.05047
-0.995803
-3.1048
-2.25578
-1.88424
-1.79471
-1.70518
-1.59947
-1.51577
-1.45371
-1.40112
-1.35325
-1.30953
-1.26894
-1.22975
-1.19038
-1.14969
-1.10663
-1.06151
-1.01596
-2.81062
-2.23278
-1.89519
-1.78388
-1.69005
-1.58835
-1.50706
-1.4461
-1.39474
-1.34835
-1.30612
-1.26702
-1.2295
-1.19218
-1.15417
-1.11495
-1.0749
-1.0365
-2.60473
-2.19791
-1.88745
-1.76286
-1.67024
-1.57485
-1.49692
-1.43754
-1.38776
-1.34315
-1.3027
-1.26542
-1.22993
-1.19509
-1.16021
-1.12513
-1.09027
-1.05814
-2.42838
-2.1366
-1.86399
-1.7368
-1.64781
-1.55928
-1.48527
-1.42798
-1.38018
-1.3377
-1.29937
-1.26425
-1.23117
-1.19919
-1.1678
-1.13709
-1.10744
-1.0812
-2.26937
-2.06194
-1.83199
-1.70769
-1.62265
-1.54106
-1.47159
-1.41701
-1.37167
-1.3317
-1.29588
-1.26333
-1.23305
-1.20429
-1.17672
-1.15051
-1.12608
-1.10543
-2.12646
-1.98095
-1.7922
-1.67455
-1.59404
-1.51967
-1.45545
-1.40423
-1.36185
-1.32485
-1.29196
-1.26238
-1.2353
-1.21012
-1.18662
-1.16504
-1.14575
-1.13047
-1.99712
-1.89571
-1.74412
-1.63651
-1.56162
-1.49476
-1.43645
-1.38929
-1.3504
-1.31683
-1.28731
-1.26114
-1.23763
-1.21634
-1.19713
-1.18025
-1.16601
-1.15586
-1.87798
-1.80747
-1.68822
-1.59323
-1.52517
-1.46604
-1.41423
-1.37182
-1.337
-1.30735
-1.28166
-1.2593
-1.23973
-1.22261
-1.20786
-1.1957
-1.18638
-1.18115
-1.77532
-1.72455
-1.63054
-1.54855
-1.48777
-1.43597
-1.39062
-1.35321
-1.32267
-1.29706
-1.27529
-1.25678
-1.24113
-1.22805
-1.2175
-1.20968
-1.20476
-1.20385
-1.6782
-1.64136
-1.5688
-1.5
-1.44708
-1.40276
-1.3642
-1.33227
-1.30642
-1.28522
-1.26769
-1.25333
-1.24179
-1.23289
-1.22659
-1.22305
-1.22241
-1.22558
-1.57099
-1.54547
-1.49296
-1.43901
-1.39583
-1.36034
-1.32995
-1.30489
-1.28501
-1.26935
-1.25711
-1.24784
-1.2413
-1.23736
-1.236
-1.23732
-1.24143
-1.24903
-1.45187
-1.43545
-1.40076
-1.36273
-1.33134
-1.30625
-1.28553
-1.269
-1.25663
-1.24789
-1.24218
-1.23914
-1.23861
-1.2405
-1.2448
-1.25158
-1.26088
-1.27325
-1.31776
-1.30872
-1.28954
-1.2679
-1.2503
-1.23742
-1.22809
-1.22192
-1.21888
-1.2187
-1.22098
-1.22549
-1.2321
-1.24077
-1.2515
-1.26433
-1.27929
-1.29674
-1.16334
-1.16054
-1.15519
-1.1503
-1.14846
-1.14995
-1.15405
-1.16035
-1.16872
-1.179
-1.19095
-1.20445
-1.21944
-1.23591
-1.25388
-1.27339
-1.29444
-1.3173
-0.97912
-0.982278
-0.9905
-1.00349
-1.01991
-1.03856
-1.05873
-1.08006
-1.10229
-1.12524
-1.1488
-1.17293
-1.19765
-1.22303
-1.24911
-1.27594
-1.30356
-1.33218
-0.747018
-0.757766
-0.782526
-0.817443
-0.85654
-0.896512
-0.936486
-0.976208
-1.01533
-1.05357
-1.0909
-1.12745
-1.16336
-1.19878
-1.23384
-1.26866
-1.30332
-1.33805
-0.498763
-0.519313
-0.56531
-0.626874
-0.691579
-0.754271
-0.814752
-0.873141
-0.928912
-0.981773
-1.03194
-1.0798
-1.12569
-1.1699
-1.21267
-1.25424
-1.29477
-1.33457
-0.271886
-0.304012
-0.375302
-0.466
-0.555564
-0.638688
-0.717252
-0.791761
-0.861343
-0.925865
-0.986007
-1.0425
-1.09588
-1.14655
-1.1949
-1.2413
-1.286
-1.32938
-0.037878
-0.0876469
-0.194583
-0.32068
-0.435742
-0.538335
-0.634256
-0.723831
-0.805598
-0.879975
-0.948391
-1.01194
-1.0713
-1.12706
-1.17975
-1.22986
-1.27772
-1.3238
0.208385
0.130665
-0.0263216
-0.193229
-0.332325
-0.453006
-0.565685
-0.669014
-0.76106
-0.843487
-0.918636
-0.987842
-1.0519
-1.11157
-1.16758
-1.22049
-1.27074
-1.31883
0.473011
0.349241
0.123059
-0.0860579
-0.244295
-0.381728
-0.510938
-0.62638
-0.726544
-0.815275
-0.895772
-0.969396
-1.03703
-1.09963
-1.15809
-1.21307
-1.26506
-1.31459
0.764228
0.566868
0.245546
-0.00203917
-0.170643
-0.322966
-0.46835
-0.594032
-0.700276
-0.793825
-0.878499
-0.955489
-1.02576
-1.0905
-1.15074
-1.20721
-1.26044
-1.311
1.08671
0.789003
0.34381
0.0612539
-0.111445
-0.276663
-0.436253
-0.569769
-0.680443
-0.777721
-0.865639
-0.945151
-1.01735
-1.08364
-1.14515
-1.20268
-1.25678
-1.30801
1.42059
0.998567
0.432883
0.124329
-0.0599168
-0.24303
-0.41397
-0.552341
-0.666028
-0.766246
-0.856679
-0.938059
-1.01166
-1.07909
-1.14155
-1.19982
-1.25455
-1.30628
1.75714
1.06908
0.470295
0.204841
0.00745072
-0.208228
-0.394542
-0.5378
-0.654508
-0.757653
-0.850345
-0.933214
-1.00784
-1.07603
-1.13908
-1.1978
-1.25288
-1.30491
2.38985
0.849592
0.203855
0.106394
-0.0181282
-0.222483
-0.406063
-0.544716
-0.658831
-0.761422
-0.854135
-0.936968
-1.01148
-1.07955
-1.14243
-1.20088
-1.25558
-1.30739
4.79192
1.86495
0.570893
0.291272
0.0815692
-0.17516
-0.383643
-0.532428
-0.651387
-0.757077
-0.851921
-0.936211
-1.01178
-1.08067
-1.1442
-1.20309
-1.25783
-1.30838
-1.92951
-1.91529
-1.9148
-1.92997
-1.95165
-1.97506
-1.99845
-2.02055
-2.04038
-2.05861
-2.07536
-2.09091
-2.10578
-2.12128
-2.13932
-2.15685
-2.17033
-2.18794
-2.21298
-2.24165
-2.28262
-2.34457
-2.39152
-2.42804
-2.48397
-2.55346
-2.63582
-2.73037
-2.83813
-2.95808
-3.08858
-3.22737
-3.37186
-3.51936
-3.66727
-3.81327
-3.95536
-4.09197
-4.22187
-4.34421
-4.45843
-4.56421
-4.6614
-4.75
-4.83008
-4.90175
-4.96518
-5.0205
-5.06786
-5.10739
-5.1392
-5.16336
-5.17994
-5.18897
-5.19049
-5.18458
-5.17131
-5.15058
-5.12203
-5.08515
-5.03891
-4.98354
-4.91898
-4.84503
-4.76138
-4.66765
-4.56341
-4.44821
-4.32154
-4.18285
-4.0316
-3.86722
-3.68913
-3.49679
-3.28969
-3.06739
-2.82954
-2.57596
-2.30661
-2.02171
-1.72174
-1.40749
-1.08012
-0.74116
-0.392544
-0.0365891
0.324028
0.686332
1.04713
1.40312
1.75101
2.08764
2.4101
2.71584
3.00277
3.2693
3.51435
3.73737
3.93824
4.11746
4.27637
4.41609
4.53715
4.64064
4.72803
4.80085
4.86061
4.90875
4.94664
4.97557
4.9967
5.01112
5.01976
5.0235
5.02308
5.01903
5.01196
5.00186
4.98768
4.96477
4.92827
4.9158
4.91897
4.90586
4.89655
4.8848
4.87302
4.86493
4.85574
4.84543
4.83512
4.82469
4.81424
4.80394
4.79385
4.78399
4.77436
4.76495
4.75575
4.74671
4.73782
4.72899
4.72077
4.71226
4.70363
4.69461
4.68599
4.67752
4.66915
4.66098
4.65302
4.64529
4.6378
4.63057
4.62362
4.61696
4.61059
4.60453
4.59878
4.59335
4.58825
4.58349
4.57907
4.57503
4.57139
4.5682
4.56551
4.5634
4.56199
4.56144
4.56195
4.56383
4.5675
4.57357
4.58297
4.59705
4.61833
4.64995
4.7021
4.77088
-1.94296
-1.94043
-1.94559
-1.9604
-1.98023
-2.00104
-2.02083
-2.03873
-2.05444
-2.06711
-2.07749
-2.08648
-2.09472
-2.10277
-2.11094
-2.11851
-2.12905
-2.14457
-2.16502
-2.1917
-2.22684
-2.25424
-2.28929
-2.34383
-2.41247
-2.49614
-2.59207
-2.70126
-2.82397
-2.95863
-3.10273
-3.25327
-3.40712
-3.56135
-3.71342
-3.86127
-4.00331
-4.13841
-4.26582
-4.38509
-4.496
-4.5985
-4.69263
-4.7785
-4.85626
-4.92606
-4.98804
-5.04233
-5.08904
-5.12826
-5.16002
-5.18437
-5.20127
-5.2107
-5.21256
-5.20672
-5.19302
-5.17131
-5.14154
-5.10365
-5.05818
-5.00444
-4.94196
-4.87037
-4.7893
-4.69837
-4.59716
-4.4852
-4.36202
-4.22709
-4.07986
-3.91979
-3.74631
-3.55887
-3.35695
-3.1401
-2.90796
-2.66028
-2.39699
-2.11823
-1.82439
-1.51617
-1.1946
-0.861104
-0.517475
-0.165907
0.191043
0.550509
0.909385
1.26443
1.61237
1.95005
2.27455
2.58326
2.87401
3.14515
3.39552
3.62446
3.83181
4.01783
4.18292
4.32776
4.45366
4.56205
4.65433
4.73197
4.79641
4.84907
4.89127
4.92427
4.94924
4.96724
4.97922
4.98604
4.98849
4.98717
4.98211
4.97448
4.96611
4.96147
4.96579
4.95206
4.92893
4.91644
4.90054
4.88633
4.87118
4.85449
4.83952
4.82647
4.81449
4.80324
4.79253
4.7823
4.7725
4.76309
4.75406
4.74537
4.73697
4.72885
4.72098
4.71333
4.70549
4.69794
4.6905
4.68313
4.67609
4.66899
4.66182
4.65473
4.64773
4.64085
4.63411
4.62753
4.62114
4.61495
4.60898
4.60325
4.59776
4.59254
4.58761
4.58297
4.57866
4.57469
4.5711
4.56793
4.56525
4.56314
4.56171
4.56112
4.56157
4.56336
4.56689
4.57273
4.58176
4.59515
4.61509
4.64375
4.68906
4.74457
-1.9507
-1.95629
-1.96519
-1.97944
-1.99683
-2.01461
-2.03109
-2.0454
-2.05712
-2.06601
-2.0723
-2.07669
-2.08023
-2.08392
-2.08835
-2.09437
-2.10392
-2.12012
-2.14384
-2.17622
-2.21835
-2.2693
-2.32985
-2.40551
-2.4961
-2.60109
-2.71722
-2.84291
-2.97603
-3.11442
-3.25604
-3.39896
-3.54144
-3.68197
-3.81927
-3.9523
-4.08025
-4.20248
-4.3185
-4.42798
-4.53066
-4.62641
-4.71511
-4.79672
-4.87122
-4.93862
-4.99892
-5.05214
-5.09829
-5.13737
-5.16938
-5.1943
-5.21209
-5.22271
-5.22607
-5.22204
-5.21045
-5.19108
-5.1638
-5.12851
-5.08522
-5.03366
-4.9735
-4.90444
-4.8261
-4.73813
-4.64011
-4.5316
-4.41212
-4.28118
-4.13824
-3.98275
-3.81415
-3.63188
-3.43542
-3.22428
-2.99805
-2.75644
-2.49931
-2.2267
-1.93892
-1.63655
-1.32051
-0.992083
-0.652959
-0.305219
0.048677
0.405933
0.763488
1.11812
1.46654
1.80557
2.13221
2.4438
2.73808
3.0133
3.26822
3.50207
3.7146
3.90598
4.07666
4.22741
4.35934
4.47367
4.57172
4.65492
4.72467
4.78236
4.82932
4.86679
4.89595
4.91784
4.93345
4.94364
4.9492
4.95077
4.9488
4.94438
4.93865
4.93338
4.93036
4.92084
4.90559
4.89259
4.87894
4.86656
4.85366
4.84031
4.82808
4.81652
4.8054
4.79485
4.7848
4.7752
4.76602
4.75723
4.74881
4.74071
4.73291
4.72536
4.71804
4.71092
4.70378
4.69673
4.68964
4.68278
4.67542
4.66822
4.66116
4.6542
4.64732
4.64056
4.63393
4.62745
4.62114
4.61502
4.6091
4.60341
4.59795
4.59275
4.58783
4.58319
4.57886
4.57487
4.57125
4.56804
4.56531
4.56313
4.56161
4.56091
4.56121
4.5628
4.56606
4.57149
4.57986
4.59217
4.61011
4.63487
4.67093
4.70664
-1.92325
-1.93879
-1.95243
-1.96784
-1.98421
-2.00006
-2.0144
-2.02668
-2.03664
-2.04437
-2.05027
-2.05509
-2.05992
-2.0661
-2.07496
-2.08815
-2.10791
-2.1366
-2.176
-2.22727
-2.2906
-2.36545
-2.45114
-2.54761
-2.65313
-2.76626
-2.88567
-3.00999
-3.1378
-3.26786
-3.399
-3.53019
-3.66043
-3.7888
-3.91447
-4.0367
-4.15483
-4.26831
-4.37668
-4.47956
-4.57665
-4.66773
-4.75261
-4.83115
-4.90325
-4.96883
-5.02782
-5.08017
-5.12582
-5.16471
-5.1968
-5.22201
-5.24028
-5.25153
-5.25568
-5.25261
-5.2422
-5.22431
-5.19879
-5.16552
-5.1243
-5.07491
-5.01708
-4.95049
-4.87484
-4.78974
-4.69482
-4.58963
-4.47372
-4.34658
-4.20768
-4.05647
-3.89235
-3.71476
-3.52313
-3.31691
-3.09564
-2.85894
-2.60656
-2.33846
-2.05481
-1.75607
-1.44304
-1.11692
-0.779296
-0.4322
-0.0780724
0.28027
0.63971
0.996926
1.34852
1.69117
2.02173
2.33743
2.63589
2.91525
3.1742
3.41192
3.62816
3.82319
3.99758
4.15211
4.28777
4.40575
4.50738
4.59405
4.66717
4.72812
4.77821
4.81868
4.85069
4.87531
4.89351
4.90615
4.91405
4.91789
4.91831
4.91613
4.91214
4.90743
4.90243
4.89469
4.88382
4.87255
4.86126
4.85046
4.83934
4.82786
4.81667
4.80578
4.79526
4.78524
4.77569
4.76656
4.75784
4.74951
4.74153
4.73387
4.72648
4.71933
4.71238
4.70557
4.69878
4.69201
4.68523
4.67852
4.67171
4.665
4.65841
4.65181
4.64527
4.63881
4.63245
4.62622
4.62012
4.61419
4.60844
4.60289
4.59755
4.59244
4.58759
4.583
4.5787
4.57471
4.57108
4.56784
4.56505
4.56279
4.56115
4.56029
4.56037
4.56164
4.56445
4.56924
4.57663
4.58737
4.60261
4.62262
4.64908
4.66967
-1.8504
-1.87518
-1.89677
-1.91597
-1.93352
-1.94952
-1.96385
-1.97651
-1.98771
-1.99796
-2.00805
-2.01896
-2.03197
-2.04859
-2.07054
-2.09961
-2.13759
-2.18588
-2.24523
-2.31564
-2.39647
-2.48658
-2.58471
-2.68978
-2.80051
-2.91567
-3.03421
-3.15526
-3.27799
-3.40163
-3.52541
-3.64861
-3.77052
-3.8905
-4.00793
-4.12224
-4.23294
-4.33956
-4.44173
-4.53909
-4.63136
-4.71829
-4.79967
-4.87532
-4.94509
-5.00885
-5.06648
-5.11788
-5.16294
-5.20158
-5.23371
-5.25923
-5.27803
-5.29003
-5.2951
-5.29313
-5.28398
-5.2675
-5.24356
-5.212
-5.17264
-5.12523
-5.06954
-5.00528
-4.93213
-4.84974
-4.75774
-4.6557
-4.54316
-4.41962
-4.28454
-4.13736
-3.97746
-3.80424
-3.61707
-3.41535
-3.19852
-2.96611
-2.71775
-2.45326
-2.17267
-1.87631
-1.56484
-1.23935
-0.901358
-0.552852
-0.196299
0.165409
0.529024
0.891049
1.24788
1.59598
1.932
2.25297
2.5564
2.84033
3.10336
3.34471
3.56424
3.76222
3.93926
4.0962
4.23414
4.35431
4.45808
4.54686
4.62205
4.68503
4.73712
4.77956
4.81349
4.83998
4.86
4.87442
4.88404
4.8896
4.89175
4.8912
4.88865
4.88487
4.88013
4.87326
4.86434
4.85484
4.84496
4.8351
4.82505
4.81465
4.80431
4.79421
4.78444
4.77505
4.76608
4.7575
4.74931
4.74147
4.73397
4.72677
4.71983
4.7131
4.70655
4.70011
4.69371
4.68732
4.68094
4.6746
4.66824
4.6619
4.65559
4.64931
4.64306
4.63688
4.63079
4.62479
4.61891
4.61317
4.60759
4.60218
4.59697
4.59196
4.58718
4.58265
4.57838
4.57441
4.57076
4.56748
4.56461
4.56224
4.56045
4.55937
4.55915
4.56002
4.56226
4.56623
4.5724
4.58126
4.59345
4.60856
4.62656
4.63632
-1.74462
-1.77896
-1.81024
-1.83495
-1.85492
-1.87253
-1.8886
-1.90384
-1.91911
-1.93541
-1.95384
-1.97566
-2.0022
-2.03487
-2.07501
-2.12377
-2.18189
-2.24964
-2.32674
-2.41244
-2.50571
-2.6054
-2.71042
-2.8198
-2.9326
-3.04797
-3.16514
-3.28345
-3.40231
-3.52114
-3.63943
-3.75666
-3.87235
-3.98602
-4.09723
-4.20555
-4.31059
-4.41197
-4.50935
-4.60241
-4.6909
-4.77454
-4.85312
-4.92643
-4.99431
-5.05658
-5.1131
-5.16373
-5.20835
-5.24683
-5.27906
-5.30492
-5.32428
-5.33703
-5.34305
-5.3422
-5.33433
-5.3193
-5.29696
-5.26712
-5.22963
-5.18425
-5.13076
-5.06886
-4.99826
-4.91862
-4.82957
-4.7307
-4.62154
-4.50161
-4.37035
-4.22718
-4.07147
-3.90257
-3.71981
-3.5225
-3.31
-3.08172
-2.83715
-2.57596
-2.29803
-2.00351
-1.69292
-1.3672
-1.02779
-0.676645
-0.316273
0.0503294
0.419733
0.788203
1.15186
1.50688
1.84965
2.17698
2.48619
2.77521
3.04264
3.2878
3.51057
3.71126
3.89057
4.04947
4.18915
4.31093
4.41623
4.50651
4.58318
4.64763
4.7012
4.7451
4.7805
4.80845
4.82991
4.84575
4.85679
4.86374
4.86728
4.86807
4.86672
4.86381
4.85953
4.85355
4.84607
4.83776
4.82893
4.81992
4.81068
4.80119
4.79174
4.78248
4.77346
4.76476
4.75641
4.74843
4.7408
4.7335
4.72651
4.71979
4.71332
4.70703
4.7009
4.69485
4.68885
4.68285
4.67686
4.67086
4.66484
4.65882
4.6528
4.6468
4.64083
4.63491
4.62905
4.62327
4.6176
4.61204
4.60662
4.60136
4.59627
4.59136
4.58666
4.58218
4.57795
4.57398
4.5703
4.56697
4.56401
4.5615
4.55953
4.55818
4.55761
4.558
4.55956
4.56257
4.56736
4.57417
4.58322
4.59364
4.60447
4.60605
-1.6308
-1.67321
-1.71307
-1.74277
-1.76636
-1.78696
-1.80651
-1.82645
-1.84817
-1.87308
-1.90252
-1.93772
-1.97979
-2.02962
-2.08781
-2.1546
-2.22985
-2.31308
-2.4035
-2.50015
-2.60204
-2.70817
-2.81765
-2.92971
-3.04365
-3.15884
-3.27478
-3.39097
-3.50699
-3.62243
-3.73692
-3.85007
-3.96151
-4.07089
-4.17784
-4.28204
-4.38314
-4.48083
-4.57481
-4.6648
-4.75055
-4.83181
-4.90836
-4.98
-5.04652
-5.10777
-5.16357
-5.21377
-5.25823
-5.2968
-5.32935
-5.35574
-5.37585
-5.38953
-5.39666
-5.39708
-5.39066
-5.37723
-5.35663
-5.3287
-5.29325
-5.25008
-5.19895
-5.1396
-5.07173
-4.99501
-4.90907
-4.81351
-4.70788
-4.59168
-4.46436
-4.32531
-4.1739
-4.00942
-3.83114
-3.63833
-3.43023
-3.20613
-2.96539
-2.70751
-2.43218
-2.13936
-1.82938
-1.50304
-1.16165
-0.807126
-0.442005
-0.0694133
0.307009
0.683237
1.05505
1.41826
1.76894
2.10358
2.41932
2.71401
2.9863
3.23551
3.46158
3.66494
3.84641
4.00708
4.14826
4.27138
4.37793
4.4694
4.54725
4.61289
4.66766
4.71278
4.74941
4.7786
4.8013
4.8184
4.83067
4.83886
4.84362
4.84556
4.84526
4.84318
4.83959
4.83449
4.82809
4.8208
4.81291
4.80471
4.79627
4.78766
4.77905
4.77056
4.76228
4.75427
4.74658
4.73921
4.73217
4.72543
4.71898
4.71278
4.70679
4.70096
4.69526
4.68963
4.68403
4.67842
4.67279
4.66714
4.66145
4.65573
4.65001
4.64428
4.63856
4.63288
4.62724
4.62168
4.61619
4.61081
4.60556
4.60043
4.59546
4.59065
4.58603
4.5816
4.57739
4.57343
4.56972
4.56632
4.56326
4.5606
4.5584
4.55676
4.55579
4.55562
4.55643
4.55839
4.56169
4.56639
4.57236
4.57846
4.58326
4.57851
-1.53258
-1.57984
-1.62568
-1.65983
-1.68672
-1.71096
-1.73506
-1.76087
-1.7901
-1.82436
-1.86497
-1.91297
-1.96902
-2.03341
-2.10605
-2.18655
-2.27424
-2.36827
-2.46773
-2.57168
-2.67921
-2.78952
-2.90191
-3.01575
-3.13053
-3.24577
-3.36109
-3.47611
-3.59052
-3.70399
-3.81622
-3.92691
-4.03576
-4.14248
-4.24677
-4.34835
-4.44693
-4.54225
-4.63405
-4.72206
-4.80606
-4.88582
-4.96113
-5.03177
-5.09757
-5.15834
-5.21391
-5.26411
-5.3088
-5.34782
-5.38102
-5.40826
-5.4294
-5.44429
-5.45279
-5.45476
-5.45003
-5.43845
-5.41985
-5.39406
-5.36091
-5.3202
-5.27169
-5.21512
-5.15021
-5.07663
-4.99402
-4.90199
-4.80008
-4.68779
-4.56457
-4.42981
-4.28283
-4.12291
-3.94927
-3.76109
-3.55754
-3.33777
-3.10102
-2.84661
-2.57403
-2.28302
-1.97372
-1.64671
-1.30316
-0.944924
-0.574539
-0.195261
0.18904
0.574012
0.955014
1.32742
1.68693
2.02965
2.3526
2.65356
2.93111
3.18463
3.41415
3.62023
3.80383
3.96621
4.1088
4.23314
4.34079
4.43332
4.51222
4.57892
4.63477
4.681
4.71876
4.7491
4.77297
4.79124
4.80469
4.81404
4.81993
4.82297
4.82366
4.82247
4.81968
4.81545
4.81
4.80366
4.79668
4.7893
4.78166
4.77387
4.76605
4.75833
4.75078
4.74348
4.73645
4.72973
4.7233
4.71715
4.71126
4.7056
4.70012
4.69478
4.68954
4.68434
4.67916
4.67394
4.66869
4.66339
4.65803
4.65262
4.64718
4.64172
4.63626
4.6308
4.62538
4.62002
4.61472
4.60951
4.60441
4.59942
4.59456
4.58985
4.5853
4.58093
4.57675
4.57277
4.56903
4.56556
4.56238
4.55954
4.5571
4.55513
4.55372
4.55295
4.55295
4.55381
4.55558
4.55817
4.56122
4.56343
4.56317
4.55352
-1.46373
-1.51264
-1.56069
-1.59723
-1.62696
-1.65481
-1.68352
-1.71509
-1.75132
-1.79377
-1.84362
-1.90161
-1.96801
-2.04268
-2.12511
-2.21458
-2.31018
-2.41097
-2.51602
-2.62446
-2.73551
-2.84848
-2.96279
-3.07793
-3.19348
-3.30904
-3.4243
-3.53894
-3.65267
-3.76524
-3.87638
-3.98583
-4.09334
-4.19866
-4.30153
-4.40171
-4.49896
-4.59303
-4.68368
-4.77071
-4.85387
-4.93297
-5.0078
-5.07816
-5.14387
-5.20474
-5.26061
-5.31131
-5.35668
-5.39657
-5.43081
-5.45926
-5.48177
-5.4982
-5.50838
-5.51218
-5.50944
-5.49999
-5.48366
-5.46029
-5.4297
-5.3917
-5.34605
-5.29251
-5.23079
-5.16058
-5.08151
-4.9932
-4.89519
-4.78698
-4.66802
-4.53767
-4.39526
-4.24002
-4.07113
-3.88772
-3.68885
-3.47359
-3.24102
-2.9903
-2.72073
-2.43182
-2.12346
-1.79603
-1.4505
-1.0886
-0.712861
-0.326649
0.0659289
0.46015
0.850901
1.23306
1.60192
1.95335
2.28404
2.59167
2.8748
3.13283
3.36592
3.57479
3.76057
3.92468
4.06868
4.19424
4.303
4.39659
4.47653
4.5443
4.60123
4.64857
4.68747
4.71897
4.74401
4.76346
4.77809
4.7886
4.79564
4.79976
4.80148
4.80123
4.79932
4.79599
4.79148
4.78606
4.77997
4.77344
4.76662
4.75964
4.75262
4.74567
4.73887
4.73228
4.72595
4.71989
4.71411
4.70858
4.70328
4.69819
4.69325
4.68843
4.68367
4.67894
4.67418
4.66938
4.66452
4.65958
4.65455
4.64946
4.64431
4.63912
4.6339
4.62867
4.62347
4.6183
4.61318
4.60814
4.60319
4.59833
4.59359
4.58897
4.5845
4.58017
4.57601
4.57203
4.56825
4.56469
4.56138
4.55836
4.55566
4.55334
4.55145
4.55006
4.54921
4.54894
4.54919
4.54974
4.55007
4.54883
4.54435
4.53088
-1.42778
-1.47503
-1.52149
-1.55812
-1.58939
-1.61986
-1.65216
-1.6882
-1.72969
-1.77799
-1.83408
-1.89846
-1.97116
-2.05182
-2.13977
-2.23414
-2.334
-2.43839
-2.54645
-2.65735
-2.7704
-2.88497
-3.00055
-3.11667
-3.23295
-3.34903
-3.46462
-3.57941
-3.69317
-3.80562
-3.91654
-4.02569
-4.13284
-4.23776
-4.34023
-4.44002
-4.53691
-4.63068
-4.72113
-4.80803
-4.89118
-4.9704
-5.04547
-5.11623
-5.18247
-5.24404
-5.30075
-5.35244
-5.39896
-5.44013
-5.47582
-5.50586
-5.5301
-5.54839
-5.56058
-5.56652
-5.56604
-5.55899
-5.54519
-5.52448
-5.4967
-5.46163
-5.41906
-5.36874
-5.31039
-5.2437
-5.16831
-5.08384
-4.98984
-4.8858
-4.77117
-4.6453
-4.5075
-4.35698
-4.19288
-4.01427
-3.82014
-3.60948
-3.38123
-3.1344
-2.86809
-2.5816
-2.27457
-1.94713
-1.60004
-1.23487
-0.854112
-0.461248
-0.0606052
0.342697
0.743146
1.13519
1.5136
1.87392
2.21255
2.52697
2.81574
3.07833
3.31504
3.52676
3.7148
3.88072
4.02624
4.15313
4.26311
4.35786
4.43897
4.5079
4.56602
4.61457
4.6547
4.68745
4.71375
4.73445
4.75032
4.76205
4.77028
4.77555
4.77836
4.77912
4.77818
4.7758
4.77225
4.76778
4.76261
4.75696
4.751
4.74485
4.73865
4.7325
4.72647
4.72063
4.71502
4.70966
4.70455
4.69967
4.695
4.69051
4.68614
4.68186
4.67762
4.67337
4.66908
4.66471
4.66025
4.65568
4.65101
4.64623
4.64138
4.63645
4.63148
4.62649
4.6215
4.61652
4.61159
4.60671
4.6019
4.59718
4.59255
4.58803
4.58363
4.57935
4.57521
4.57122
4.56739
4.56374
4.56029
4.55707
4.5541
4.55141
4.54903
4.54699
4.54529
4.54389
4.54266
4.54127
4.53911
4.53484
4.52685
4.51036
-1.41933
-1.46176
-1.50349
-1.53804
-1.56919
-1.60076
-1.635
-1.67362
-1.71809
-1.76958
-1.82887
-1.89631
-1.97183
-2.055
-2.14512
-2.24135
-2.34279
-2.44854
-2.55776
-2.6697
-2.78367
-2.8991
-3.01547
-3.13233
-3.24931
-3.36606
-3.48226
-3.59763
-3.71192
-3.82487
-3.93626
-4.04585
-4.15342
-4.25876
-4.36164
-4.46187
-4.55923
-4.65352
-4.74454
-4.83208
-4.91596
-4.99598
-5.07197
-5.14374
-5.21111
-5.27391
-5.33197
-5.38514
-5.43325
-5.47614
-5.51365
-5.54564
-5.57195
-5.59242
-5.60691
-5.61525
-5.6173
-5.61288
-5.60184
-5.584
-5.5592
-5.52724
-5.48789
-5.44091
-5.38604
-5.32295
-5.25131
-5.17072
-5.08073
-4.98085
-4.8705
-4.74905
-4.61577
-4.46987
-4.31045
-4.13654
-3.94708
-3.74095
-3.517
-3.27409
-3.01116
-2.7273
-2.42193
-2.09494
-1.74688
-1.37913
-0.994185
-0.595509
-0.187577
0.224156
0.63376
1.03522
1.42282
1.79165
2.13786
2.45878
2.75296
3.01997
3.26023
3.4748
3.66514
3.833
3.98019
4.10859
4.21999
4.31611
4.39858
4.46887
4.52836
4.5783
4.61982
4.65396
4.68165
4.70373
4.72096
4.73402
4.74353
4.75003
4.75401
4.75589
4.75602
4.75467
4.75214
4.74866
4.74446
4.73975
4.73469
4.72942
4.72407
4.71875
4.71353
4.70848
4.70363
4.699
4.6946
4.69041
4.6864
4.68253
4.67877
4.67507
4.67137
4.66763
4.66383
4.65991
4.65587
4.65169
4.64737
4.64293
4.63837
4.63372
4.62901
4.62425
4.61946
4.61469
4.60993
4.60522
4.60056
4.59597
4.59145
4.58702
4.58269
4.57846
4.57434
4.57034
4.56646
4.56272
4.55913
4.5557
4.55245
4.54938
4.54651
4.54382
4.54127
4.53877
4.53612
4.53291
4.5285
4.52157
4.51065
4.49176
-1.42723
-1.46271
-1.49763
-1.52837
-1.55786
-1.58893
-1.62339
-1.66267
-1.70799
-1.76034
-1.82033
-1.88824
-1.96399
-2.04718
-2.13717
-2.2332
-2.33442
-2.44002
-2.54918
-2.66118
-2.77536
-2.89113
-3.00798
-3.12545
-3.24313
-3.36066
-3.47771
-3.59399
-3.70923
-3.82317
-3.93556
-4.04618
-4.15481
-4.26121
-4.3652
-4.46655
-4.56506
-4.66055
-4.75281
-4.84164
-4.92688
-5.00832
-5.0858
-5.15913
-5.22815
-5.29268
-5.35257
-5.40764
-5.45775
-5.50272
-5.54242
-5.57668
-5.60536
-5.62829
-5.64533
-5.65632
-5.6611
-5.65952
-5.65139
-5.63658
-5.6149
-5.58615
-5.55011
-5.50654
-5.45516
-5.39568
-5.32775
-5.25098
-5.16491
-5.06905
-4.96283
-4.8456
-4.71663
-4.57511
-4.42011
-4.25062
-4.06555
-3.8637
-3.64382
-3.40468
-3.14508
-2.86394
-2.56049
-2.2344
-1.88602
-1.51656
-1.12833
-0.724809
-0.310668
0.108393
0.526035
0.935757
1.33141
1.70772
2.06059
2.38726
2.68625
2.95724
3.20077
3.41807
3.61073
3.78062
3.92965
4.05977
4.17283
4.27058
4.35466
4.42657
4.48767
4.53923
4.58236
4.61809
4.64735
4.67097
4.6897
4.70422
4.71514
4.72299
4.72827
4.73137
4.73266
4.73245
4.73102
4.7286
4.72544
4.72172
4.71761
4.71328
4.70884
4.7044
4.70003
4.6958
4.69175
4.6879
4.68424
4.68077
4.67745
4.67425
4.67112
4.66802
4.6649
4.66171
4.6584
4.65496
4.65135
4.64758
4.64363
4.63953
4.63528
4.63092
4.62646
4.62194
4.61737
4.61279
4.60822
4.60367
4.59916
4.5947
4.5903
4.58597
4.58171
4.57752
4.57342
4.56941
4.56548
4.56165
4.55791
4.55428
4.55074
4.5473
4.54393
4.54059
4.53721
4.53365
4.52965
4.52477
4.51833
4.5091
4.49573
4.4749
-1.43918
-1.46673
-1.49382
-1.51966
-1.54631
-1.57561
-1.60889
-1.64729
-1.69181
-1.74327
-1.8022
-1.86883
-1.94312
-2.02474
-2.11315
-2.20768
-2.30758
-2.41208
-2.52043
-2.6319
-2.74585
-2.86167
-2.97882
-3.09683
-3.21525
-3.3337
-3.45183
-3.56931
-3.68585
-3.80117
-3.91502
-4.02715
-4.13733
-4.24534
-4.35097
-4.454
-4.55423
-4.65146
-4.74551
-4.83618
-4.9233
-5.00667
-5.08612
-5.16149
-5.2326
-5.29928
-5.36138
-5.41873
-5.47118
-5.51856
-5.56074
-5.59755
-5.62884
-5.65447
-5.67427
-5.68809
-5.69577
-5.69715
-5.69208
-5.68039
-5.6619
-5.63641
-5.6037
-5.56353
-5.51563
-5.45969
-5.39537
-5.32228
-5.23997
-5.14793
-5.0456
-4.93231
-4.80733
-4.66983
-4.51888
-4.35343
-4.17235
-3.97439
-3.75825
-3.52256
-3.26602
-2.98744
-2.68589
-2.36086
-2.01251
-1.64191
-1.25124
-0.843988
-0.424962
-0.000105656
0.423887
0.840116
1.24208
1.62421
1.98224
2.31337
2.61616
2.89036
3.13666
3.35639
3.55125
3.72319
3.87419
4.00623
4.12119
4.22084
4.30681
4.38061
4.4436
4.49702
4.54199
4.57954
4.61057
4.63591
4.65632
4.67246
4.68494
4.69428
4.70097
4.70542
4.70801
4.70903
4.70879
4.70752
4.70546
4.70281
4.69974
4.6964
4.69292
4.68941
4.68594
4.68259
4.67938
4.67634
4.67347
4.67075
4.66816
4.66566
4.6632
4.66074
4.65821
4.65558
4.65281
4.64986
4.64671
4.64335
4.63979
4.63604
4.63211
4.62804
4.62385
4.61956
4.61522
4.61084
4.60645
4.60207
4.59771
4.59339
4.5891
4.58487
4.58068
4.57654
4.57246
4.56844
4.56446
4.56054
4.55666
4.55281
4.549
4.54518
4.54132
4.53736
4.53318
4.5286
4.52334
4.51693
4.50868
4.49746
4.48203
4.45963
-1.44449
-1.46432
-1.48348
-1.504
-1.52714
-1.55383
-1.58497
-1.62145
-1.66408
-1.71354
-1.77031
-1.83462
-1.90648
-1.98565
-2.0717
-2.16407
-2.26209
-2.36504
-2.47221
-2.58288
-2.69639
-2.81214
-2.92955
-3.04811
-3.16736
-3.28686
-3.40625
-3.52516
-3.64327
-3.76029
-3.87593
-3.98994
-4.10207
-4.21209
-4.31977
-4.42491
-4.52728
-4.6267
-4.72297
-4.8159
-4.9053
-4.991
-5.07281
-5.15058
-5.22413
-5.29329
-5.35792
-5.41784
-5.4729
-5.52294
-5.56783
-5.6074
-5.6415
-5.66998
-5.69269
-5.70947
-5.72017
-5.72462
-5.72266
-5.71414
-5.69887
-5.67664
-5.64724
-5.61041
-5.5659
-5.51338
-5.45252
-5.38292
-5.30413
-5.21565
-5.11688
-5.00718
-4.88579
-4.75187
-4.60447
-4.44253
-4.26487
-4.07023
-3.85723
-3.62446
-3.37052
-3.09411
-2.79419
-2.47012
-2.12192
-1.75057
-1.35819
-0.948304
-0.525858
-0.0970138
0.331251
0.751747
1.15773
1.54349
1.9047
2.23858
2.54377
2.82013
3.06844
3.29011
3.48691
3.66081
3.81382
3.94792
4.06498
4.16676
4.25489
4.33084
4.39597
4.4515
4.49856
4.53814
4.57116
4.59843
4.6207
4.63863
4.65281
4.66379
4.67204
4.67797
4.68197
4.68434
4.68539
4.68536
4.6845
4.68299
4.68103
4.67875
4.6763
4.67378
4.67127
4.66883
4.66651
4.66433
4.66229
4.66037
4.65854
4.65677
4.65501
4.65321
4.65131
4.64927
4.64705
4.64461
4.64193
4.63901
4.63585
4.63245
4.62886
4.62508
4.62116
4.61713
4.61301
4.60884
4.60464
4.60043
4.59622
4.59203
4.58787
4.58373
4.57962
4.57553
4.57147
4.56744
4.56341
4.5594
4.55538
4.55133
4.54724
4.54306
4.53873
4.53416
4.52922
4.52369
4.51727
4.50947
4.49961
4.48666
4.46949
4.44581
-1.43534
-1.44912
-1.4606
-1.47596
-1.49538
-1.51904
-1.54751
-1.58149
-1.62166
-1.66857
-1.72266
-1.7842
-1.85324
-1.92963
-2.01304
-2.10301
-2.19893
-2.30015
-2.40598
-2.51574
-2.62876
-2.74441
-2.86209
-2.98126
-3.10142
-3.2221
-3.3429
-3.46342
-3.58331
-3.70225
-3.81994
-3.93609
-4.05045
-4.16277
-4.27281
-4.38035
-4.48517
-4.58708
-4.68587
-4.78134
-4.87332
-4.96163
-5.04608
-5.1265
-5.20274
-5.27462
-5.34198
-5.40467
-5.46253
-5.51541
-5.56316
-5.60562
-5.64265
-5.67409
-5.6998
-5.71961
-5.73337
-5.74091
-5.74209
-5.73674
-5.72466
-5.70564
-5.67946
-5.64588
-5.60461
-5.55536
-5.49776
-5.43141
-5.35587
-5.27062
-5.17506
-5.06854
-4.95028
-4.81943
-4.67503
-4.51598
-4.3411
-4.14907
-3.9385
-3.70792
-3.45587
-3.181
-2.88217
-2.55869
-2.21052
-1.8386
-1.44511
-1.03365
-0.609326
-0.178489
0.251681
0.673844
1.08118
1.46798
1.83001
2.1646
2.47052
2.74773
2.9971
3.22005
3.41837
3.59401
3.74897
3.88516
4.00444
4.10852
4.19899
4.27731
4.3448
4.40268
4.45204
4.49387
4.52908
4.55846
4.58277
4.60265
4.6187
4.63147
4.64141
4.64896
4.65449
4.65833
4.66078
4.6621
4.66252
4.66225
4.66146
4.66033
4.65897
4.6575
4.656
4.65455
4.65317
4.65189
4.65071
4.64963
4.64861
4.6476
4.64657
4.64546
4.64421
4.64278
4.64113
4.63922
4.63703
4.63455
4.6318
4.62878
4.62552
4.62205
4.61841
4.61463
4.61074
4.60678
4.60277
4.59874
4.59469
4.59064
4.5866
4.58256
4.57852
4.57449
4.57046
4.56642
4.56235
4.55825
4.5541
4.54986
4.5455
4.54097
4.53618
4.53104
4.52538
4.51898
4.51149
4.50243
4.49116
4.4767
4.45807
4.43333
-1.41088
-1.41623
-1.42207
-1.43276
-1.44837
-1.46875
-1.49423
-1.52536
-1.5627
-1.60676
-1.65795
-1.71655
-1.78267
-1.85623
-1.937
-2.02455
-2.11838
-2.21789
-2.32241
-2.43128
-2.54383
-2.65941
-2.77741
-2.89726
-3.01841
-3.14037
-3.2627
-3.38497
-3.50679
-3.62783
-3.74774
-3.86624
-3.98303
-4.09786
-4.21048
-4.32065
-4.42815
-4.53277
-4.63431
-4.73256
-4.82735
-4.91847
-5.00577
-5.08906
-5.16818
-5.24297
-5.31325
-5.37889
-5.43971
-5.49557
-5.54632
-5.5918
-5.63187
-5.66638
-5.69516
-5.71808
-5.73496
-5.74566
-5.75
-5.74783
-5.73893
-5.72309
-5.70009
-5.66967
-5.63154
-5.5854
-5.53088
-5.46757
-5.39502
-5.31269
-5.21999
-5.11622
-5.00063
-4.87233
-4.73033
-4.57353
-4.40071
-4.21054
-4.00157
-3.77233
-3.52132
-3.24714
-2.94864
-2.62513
-2.2766
-1.90406
-1.50981
-1.09766
-0.672879
-0.242027
0.187609
0.608681
1.01448
1.39949
1.75972
2.09271
2.39743
2.67396
2.92319
3.14655
3.34579
3.52279
3.67946
3.81766
3.93915
4.0456
4.13855
4.2194
4.28945
4.34987
4.40174
4.44603
4.48363
4.51534
4.54188
4.56391
4.58201
4.59674
4.60855
4.61787
4.62509
4.63055
4.63454
4.63732
4.63915
4.64023
4.64074
4.64084
4.64067
4.64034
4.63994
4.63953
4.63916
4.63885
4.6386
4.63841
4.63823
4.63804
4.63778
4.63739
4.63683
4.63604
4.63499
4.63363
4.63195
4.62994
4.62761
4.62498
4.62207
4.61892
4.61557
4.61205
4.6084
4.60466
4.60085
4.597
4.59311
4.58921
4.58529
4.58135
4.5774
4.57343
4.56943
4.56538
4.56128
4.5571
4.55282
4.5484
4.54379
4.53892
4.53371
4.52803
4.52171
4.51448
4.50602
4.49584
4.48332
4.46757
4.44771
4.42209
-1.37071
-1.36957
-1.36974
-1.37592
-1.38775
-1.40474
-1.42708
-1.45527
-1.4898
-1.53114
-1.57967
-1.63568
-1.6993
-1.77049
-1.84906
-1.93464
-2.02678
-2.12491
-2.2284
-2.33661
-2.44885
-2.56449
-2.68288
-2.80344