/*--------------------------------*- C++ -*----------------------------------*\
  =========                 |
  \\      /  F ield         | OpenFOAM: The Open Source CFD Toolbox
   \\    /   O peration     | Website:  https://openfoam.org
    \\  /    A nd           | Version:  7
     \\/     M anipulation  |
\*---------------------------------------------------------------------------*/
FoamFile
{
    version     2.0;
    format      ascii;
    class       volVectorField;
    location    "0.05";
    object      U;
}
// * * * * * * * * * * * * * * * * * * * * * * * * * * * * * * * * * * * * * //

dimensions      [0 1 -1 0 0 0 0];

internalField   nonuniform List<vector> 
12225
(
(4.73337 -0.571203 0)
(4.31323 -0.430352 0)
(4.03113 -0.176631 0)
(3.81953 -0.0510857 0)
(3.64154 -0.00400076 0)
(3.49491 0.010771 0)
(3.37948 0.0139831 0)
(3.288 0.0135619 0)
(3.21248 0.0123658 0)
(3.14782 0.0113067 0)
(3.09094 0.0105762 0)
(3.0396 0.0101507 0)
(2.99197 0.00998814 0)
(2.94655 0.0100919 0)
(2.90178 0.0104983 0)
(2.85701 0.0114215 0)
(2.8058 0.0132973 0)
(2.76567 0.0161121 0)
(5.03 0.295178 0)
(4.84192 0.245392 0)
(4.69083 0.170432 0)
(4.58321 0.10792 0)
(4.48252 0.0716125 0)
(4.38521 0.0531433 0)
(4.29676 0.0430244 0)
(4.21777 0.0365066 0)
(4.14657 0.0319322 0)
(4.082 0.028718 0)
(4.02329 0.0265305 0)
(3.9695 0.0251384 0)
(3.91956 0.0244128 0)
(3.87248 0.0243453 0)
(3.82716 0.0249412 0)
(3.78317 0.0268006 0)
(3.73771 0.029151 0)
(3.69627 0.0387555 0)
(4.96334 0.187678 0)
(4.8296 0.104503 0)
(4.75336 0.0866316 0)
(4.70909 0.0778114 0)
(4.6619 0.0697128 0)
(4.60955 0.0631422 0)
(4.55812 0.0575513 0)
(4.50925 0.052572 0)
(4.46247 0.0483684 0)
(4.4177 0.0450947 0)
(4.37506 0.0427181 0)
(4.33444 0.0411482 0)
(4.29547 0.0403412 0)
(4.2577 0.0403532 0)
(4.22059 0.0412676 0)
(4.18376 0.0436214 0)
(4.14651 0.0473342 0)
(4.10902 0.0559464 0)
(4.96279 0.171336 0)
(4.85013 0.103273 0)
(4.78863 0.0979131 0)
(4.75821 0.0919325 0)
(4.72883 0.0829597 0)
(4.69672 0.075554 0)
(4.66561 0.0697422 0)
(4.63608 0.0648122 0)
(4.60727 0.0607082 0)
(4.5789 0.0575333 0)
(4.5511 0.0552706 0)
(4.52385 0.053866 0)
(4.49697 0.0533178 0)
(4.47023 0.0537189 0)
(4.44337 0.0552123 0)
(4.41618 0.0582535 0)
(4.38876 0.0630316 0)
(4.36037 0.0713043 0)
(4.97356 0.195493 0)
(4.88076 0.129904 0)
(4.82171 0.115965 0)
(4.79173 0.103767 0)
(4.76736 0.0919829 0)
(4.74329 0.0835898 0)
(4.72129 0.0775339 0)
(4.70122 0.0726312 0)
(4.68199 0.06866 0)
(4.6631 0.0656741 0)
(4.64449 0.0636525 0)
(4.62608 0.0625535 0)
(4.6077 0.0623934 0)
(4.58917 0.0632754 0)
(4.57035 0.0653653 0)
(4.55113 0.069014 0)
(4.53185 0.0744811 0)
(4.51182 0.0825353 0)
(4.98213 0.21897 0)
(4.90785 0.151122 0)
(4.85207 0.128604 0)
(4.82113 0.112575 0)
(4.79799 0.0994033 0)
(4.77697 0.0902811 0)
(4.75876 0.0837944 0)
(4.74296 0.0786976 0)
(4.7284 0.0746943 0)
(4.71445 0.0717802 0)
(4.7009 0.0699135 0)
(4.6876 0.0690506 0)
(4.67435 0.0692094 0)
(4.661 0.0704859 0)
(4.64746 0.0730372 0)
(4.63369 0.077119 0)
(4.62004 0.0829652 0)
(4.60602 0.090908 0)
(4.9879 0.235626 0)
(4.93001 0.168113 0)
(4.87964 0.140273 0)
(4.84864 0.121702 0)
(4.82578 0.107147 0)
(4.80593 0.0969288 0)
(4.78926 0.0896698 0)
(4.77533 0.0841248 0)
(4.76301 0.0798969 0)
(4.7516 0.0769018 0)
(4.74079 0.0750626 0)
(4.73038 0.0743215 0)
(4.72017 0.0746855 0)
(4.71 0.07623 0)
(4.69982 0.0790829 0)
(4.68962 0.0834212 0)
(4.67971 0.0894186 0)
(4.66975 0.097217 0)
(4.99186 0.247796 0)
(4.94777 0.183421 0)
(4.90404 0.152247 0)
(4.87417 0.131445 0)
(4.85177 0.115336 0)
(4.83264 0.103799 0)
(4.81673 0.0955644 0)
(4.80366 0.0893886 0)
(4.79244 0.0847749 0)
(4.78236 0.0815592 0)
(4.77309 0.0796245 0)
(4.76437 0.0788906 0)
(4.756 0.0793427 0)
(4.74786 0.0810268 0)
(4.73988 0.0840312 0)
(4.73207 0.0884663 0)
(4.72471 0.0944391 0)
(4.71752 0.101994 0)
(4.99458 0.257127 0)
(4.96166 0.197213 0)
(4.92491 0.163957 0)
(4.89728 0.141285 0)
(4.87594 0.123754 0)
(4.85773 0.110913 0)
(4.84249 0.101631 0)
(4.82998 0.0947134 0)
(4.81941 0.0895946 0)
(4.81013 0.086043 0)
(4.80178 0.0839031 0)
(4.79413 0.0830677 0)
(4.78698 0.0834941 0)
(4.78021 0.0851933 0)
(4.77376 0.0882105 0)
(4.76766 0.0925986 0)
(4.76211 0.0984032 0)
(4.75688 0.105611 0)
(4.99642 0.264255 0)
(4.9722 0.209149 0)
(4.94219 0.174851 0)
(4.91759 0.150817 0)
(4.89798 0.132159 0)
(4.88111 0.118158 0)
(4.86679 0.10785 0)
(4.85493 0.100149 0)
(4.84496 0.0944542 0)
(4.83631 0.0904831 0)
(4.82868 0.0880476 0)
(4.82182 0.0870137 0)
(4.81558 0.0873082 0)
(4.80983 0.0889062 0)
(4.80455 0.0918097 0)
(4.79973 0.0960225 0)
(4.79557 0.101539 0)
(4.7918 0.108307 0)
(4.99763 0.269613 0)
(4.98001 0.21916 0)
(4.9561 0.184675 0)
(4.93497 0.15976 0)
(4.91758 0.140272 0)
(4.90247 0.125312 0)
(4.88945 0.114075 0)
(4.87852 0.10561 0)
(4.86931 0.0993177 0)
(4.86138 0.0948802 0)
(4.85446 0.0920846 0)
(4.84835 0.0907735 0)
(4.84292 0.0908445 0)
(4.83807 0.092238 0)
(4.83377 0.0949164 0)
(4.83003 0.0988427 0)
(4.82699 0.103969 0)
(4.82439 0.110219 0)
(4.99835 0.273371 0)
(4.98526 0.226784 0)
(4.9662 0.19264 0)
(4.94832 0.167239 0)
(4.93321 0.147194 0)
(4.91999 0.131533 0)
(4.90847 0.119563 0)
(4.89869 0.110459 0)
(4.89042 0.103637 0)
(4.88334 0.0987624 0)
(4.8772 0.0956064 0)
(4.87187 0.0939927 0)
(4.86722 0.0937954 0)
(4.86319 0.094926 0)
(4.85975 0.0973159 0)
(4.85691 0.100897 0)
(4.85479 0.105593 0)
(4.85313 0.111306 0)
(4.99884 0.276237 0)
(4.98917 0.233104 0)
(4.97428 0.199632 0)
(4.95953 0.173952 0)
(4.94676 0.153481 0)
(4.93555 0.137254 0)
(4.92572 0.124659 0)
(4.91731 0.114977 0)
(4.91019 0.107659 0)
(4.90412 0.102359 0)
(4.89892 0.0988334 0)
(4.89447 0.0968918 0)
(4.8907 0.0963871 0)
(4.88753 0.0972064 0)
(4.88497 0.0992543 0)
(4.88302 0.102437 0)
(4.88178 0.10666 0)
(4.88097 0.111806 0)
(4.99921 0.278631 0)
(4.99246 0.238849 0)
(4.98152 0.206342 0)
(4.9701 0.180558 0)
(4.95998 0.159745 0)
(4.95111 0.143015 0)
(4.94334 0.129818 0)
(4.93669 0.119553 0)
(4.93109 0.111714 0)
(4.92639 0.105948 0)
(4.92246 0.101999 0)
(4.91919 0.0996628 0)
(4.91654 0.0987714 0)
(4.91448 0.0991881 0)
(4.91299 0.100793 0)
(4.91209 0.103471 0)
(4.91185 0.107109 0)
(4.91201 0.111581 0)
(4.99949 0.280539 0)
(4.99514 0.243711 0)
(4.9878 0.212301 0)
(4.97978 0.186555 0)
(4.97257 0.165467 0)
(4.96632 0.148288 0)
(4.96094 0.134525 0)
(4.95641 0.12368 0)
(4.9527 0.1153 0)
(4.94973 0.109034 0)
(4.9474 0.104613 0)
(4.94565 0.101816 0)
(4.94443 0.100458 0)
(4.94374 0.100379 0)
(4.94356 0.10144 0)
(4.9439 0.103506 0)
(4.94483 0.10645 0)
(4.9461 0.110147 0)
(4.99972 0.281922 0)
(4.99732 0.247367 0)
(4.99318 0.216954 0)
(4.98858 0.191292 0)
(4.98448 0.169939 0)
(4.98111 0.152332 0)
(4.97839 0.138027 0)
(4.97631 0.126604 0)
(4.97484 0.117662 0)
(4.97394 0.110858 0)
(4.97354 0.105911 0)
(4.9736 0.102585 0)
(4.97409 0.100679 0)
(4.97502 0.100015 0)
(4.97637 0.100434 0)
(4.97816 0.101791 0)
(4.98042 0.103948 0)
(4.98294 0.106786 0)
(4.99991 0.282683 0)
(4.99915 0.249417 0)
(4.99793 0.219564 0)
(4.99675 0.193835 0)
(4.99602 0.172134 0)
(4.99581 0.15406 0)
(4.99609 0.139212 0)
(4.99679 0.127212 0)
(4.9979 0.117692 0)
(4.99938 0.110318 0)
(5.0012 0.1048 0)
(5.00334 0.100887 0)
(5.00578 0.0983623 0)
(5.00852 0.0970343 0)
(5.01158 0.0967327 0)
(5.01494 0.0973031 0)
(5.01865 0.0986052 0)
(5.02251 0.100527 0)
(5.00009 0.282619 0)
(5.00089 0.249228 0)
(5.00255 0.21906 0)
(5.00499 0.19282 0)
(5.00801 0.17054 0)
(5.01143 0.151883 0)
(5.01512 0.136453 0)
(5.01904 0.123873 0)
(5.02313 0.113783 0)
(5.02736 0.10584 0)
(5.03172 0.0997401 0)
(5.0362 0.0952183 0)
(5.0408 0.092044 0)
(5.04553 0.0900158 0)
(5.05042 0.0889562 0)
(5.05545 0.088708 0)
(5.06067 0.0891311 0)
(5.06591 0.0901231 0)
(5.00032 0.28126 0)
(5.00303 0.245444 0)
(5.00814 0.213359 0)
(5.01494 0.18572 0)
(5.0225 0.162435 0)
(5.03029 0.143025 0)
(5.0381 0.127 0)
(5.04585 0.113924 0)
(5.05348 0.103389 0)
(5.06093 0.0950112 0)
(5.06822 0.0884553 0)
(5.07536 0.0834358 0)
(5.08237 0.0797096 0)
(5.08929 0.0770678 0)
(5.09614 0.0753303 0)
(5.10294 0.0743416 0)
(5.10973 0.0739664 0)
(5.11639 0.0741118 0)
(5.00063 0.278594 0)
(5.00579 0.237946 0)
(5.01522 0.202277 0)
(5.02718 0.172384 0)
(5.0398 0.147761 0)
(5.05223 0.127546 0)
(5.06429 0.11106 0)
(5.07591 0.0977513 0)
(5.087 0.0871025 0)
(5.09753 0.0786451 0)
(5.10755 0.071993 0)
(5.11711 0.0668344 0)
(5.12629 0.0629115 0)
(5.13513 0.0600083 0)
(5.14368 0.0579439 0)
(5.15199 0.0565666 0)
(5.1601 0.0557479 0)
(5.16793 0.0554028 0)
(5.00098 0.274877 0)
(5.0091 0.227825 0)
(5.02358 0.188052 0)
(5.04109 0.156149 0)
(5.05867 0.130649 0)
(5.07538 0.110101 0)
(5.09124 0.0936364 0)
(5.10623 0.0805755 0)
(5.12024 0.0702552 0)
(5.13328 0.0621119 0)
(5.14546 0.0557195 0)
(5.15692 0.0507519 0)
(5.16775 0.0469444 0)
(5.17803 0.0440801 0)
(5.18783 0.0419825 0)
(5.19723 0.0405077 0)
(5.20628 0.039536 0)
(5.21493 0.0389892 0)
(5.00152 0.269762 0)
(5.01403 0.214456 0)
(5.03537 0.17034 0)
(5.05949 0.136955 0)
(5.08232 0.11109 0)
(5.10333 0.0906337 0)
(5.12295 0.0746232 0)
(5.14115 0.0622156 0)
(5.1578 0.0525609 0)
(5.17303 0.0450098 0)
(5.18706 0.0391205 0)
(5.20007 0.0345638 0)
(5.2122 0.0310741 0)
(5.22358 0.0284385 0)
(5.2343 0.0264895 0)
(5.24447 0.025094 0)
(5.25416 0.0241427 0)
(5.26333 0.0235643 0)
(5.00241 0.262718 0)
(5.02164 0.197177 0)
(5.05222 0.149203 0)
(5.08399 0.115329 0)
(5.11214 0.0896745 0)
(5.13736 0.0697744 0)
(5.16056 0.0547325 0)
(5.18161 0.0434325 0)
(5.20042 0.0347883 0)
(5.21732 0.0281023 0)
(5.23266 0.0229498 0)
(5.2467 0.0190098 0)
(5.25963 0.0160203 0)
(5.2716 0.0137787 0)
(5.28277 0.0121318 0)
(5.29325 0.0109602 0)
(5.30316 0.0101671 0)
(5.31245 0.00968911 0)
(5.00399 0.252888 0)
(5.03353 0.174951 0)
(5.07616 0.12474 0)
(5.11595 0.0920193 0)
(5.1489 0.0672958 0)
(5.17787 0.0484784 0)
(5.2041 0.0349552 0)
(5.22721 0.0251989 0)
(5.24733 0.0178711 0)
(5.26507 0.0122804 0)
(5.28096 0.0080491 0)
(5.29531 0.00487474 0)
(5.30835 0.00250822 0)
(5.32028 0.000766017 0)
(5.33131 -0.000485078 0)
(5.34155 -0.00134746 0)
(5.35115 -0.00190268 0)
(5.3601 -0.00220528 0)
(5.00668 0.239587 0)
(5.05152 0.147053 0)
(5.10894 0.0969938 0)
(5.15593 0.0674569 0)
(5.19217 0.0447894 0)
(5.22384 0.0278684 0)
(5.25206 0.0164135 0)
(5.2761 0.00850144 0)
(5.29642 0.00266891 0)
(5.31402 -0.00169829 0)
(5.32958 -0.00491557 0)
(5.34341 -0.00725806 0)
(5.35579 -0.00895029 0)
(5.36698 -0.0101488 0)
(5.37719 -0.0109632 0)
(5.38657 -0.0114779 0)
(5.39527 -0.0117584 0)
(5.40331 -0.0118512 0)
(5.01055 0.222809 0)
(5.07627 0.116517 0)
(5.15066 0.0686401 0)
(5.20323 0.0425077 0)
(5.24076 0.0226205 0)
(5.27352 0.00874295 0)
(5.30228 -3.16353e-05 0)
(5.32588 -0.00592161 0)
(5.34519 -0.0102116 0)
(5.36156 -0.0133266 0)
(5.3757 -0.0155108 0)
(5.38797 -0.0170092 0)
(5.39869 -0.0180145 0)
(5.40814 -0.0186524 0)
(5.41658 -0.0190093 0)
(5.42417 -0.0191531 0)
(5.43107 -0.0191337 0)
(5.43736 -0.0189926 0)
(5.01615 0.196591 0)
(5.10874 0.0881405 0)
(5.19999 0.0473648 0)
(5.25604 0.0211791 0)
(5.29336 0.00171322 0)
(5.32549 -0.00903183 0)
(5.35267 -0.0145565 0)
(5.37381 -0.0180796 0)
(5.3902 -0.0206519 0)
(5.40341 -0.0224119 0)
(5.41421 -0.0234959 0)
(5.42299 -0.0241049 0)
(5.43012 -0.0243914 0)
(5.43596 -0.024446 0)
(5.4408 -0.0243289 0)
(5.44486 -0.0240911 0)
(5.44829 -0.0237662 0)
(5.45124 -0.0233884 0)
(5.02993 0.134691 0)
(5.16017 0.0479505 0)
(5.25894 0.0419087 0)
(5.31052 0.0227224 0)
(5.34524 -0.000414581 0)
(5.37487 -0.0139977 0)
(5.39711 -0.0201691 0)
(5.41147 -0.0233783 0)
(5.42028 -0.0252843 0)
(5.42557 -0.0262467 0)
(5.4283 -0.0265293 0)
(5.429 -0.0264061 0)
(5.42818 -0.0260591 0)
(5.4263 -0.0255831 0)
(5.42369 -0.0250335 0)
(5.4206 -0.0244565 0)
(5.4172 -0.0238853 0)
(5.41367 -0.0233455 0)
(5.08137 -0.0499692 0)
(5.26837 -0.199026 0)
(5.34778 -0.137477 0)
(5.36601 -0.0858626 0)
(5.38069 -0.0630148 0)
(5.3948 -0.0506879 0)
(5.39866 -0.0422094 0)
(5.39201 -0.0366732 0)
(5.37937 -0.0331193 0)
(5.36401 -0.0305517 0)
(5.3473 -0.0284552 0)
(5.32992 -0.0266518 0)
(5.3124 -0.0250687 0)
(5.29516 -0.0236558 0)
(5.27844 -0.0223806 0)
(5.26238 -0.0212433 0)
(5.24709 -0.0202512 0)
(5.23272 -0.019593 0)
(5.01587 0.723734 0)
(5.23616 0.467609 0)
(5.28613 0.234638 0)
(5.21013 0.104122 0)
(5.11085 0.0386291 0)
(5.02215 0.00918899 0)
(4.94298 -0.00273271 0)
(4.87116 -0.00722358 0)
(4.80728 -0.00876663 0)
(4.75121 -0.00910805 0)
(4.70171 -0.00895451 0)
(4.65756 -0.00862615 0)
(4.61795 -0.00826423 0)
(4.58231 -0.00792087 0)
(4.55013 -0.00761032 0)
(4.52097 -0.00734893 0)
(4.4943 -0.00714045 0)
(4.4699 -0.00721705 0)
(0.042586 -0.0568109 -1.65823e-20)
(0.103715 -0.0872401 1.3711e-20)
(0.169743 -0.0892445 0)
(0.23619 -0.080943 0)
(0.290706 -0.0679052 0)
(0.331506 -0.0523003 -1.06794e-20)
(0.359603 -0.0354474 0)
(0.375834 -0.0183091 0)
(0.381098 -0.00192437 0)
(0.375408 0.0116526 0)
(0.361322 0.0202333 1.02184e-20)
(0.342082 0.0218026 0)
(0.320187 0.0198635 0)
(0.294672 0.0203091 0)
(0.267175 0.0181365 0)
(0.240628 0.0135638 1.12239e-20)
(0.21124 0.0143152 0)
(0.173152 0.0187254 0)
(0.127899 0.0229119 0)
(0.079232 0.0289137 0)
(0.0143753 0.0319055 0)
(-0.0597445 0.0601514 0)
(-0.143176 0.0771554 0)
(-0.254876 0.10251 1.452e-20)
(-0.368305 0.114201 -1.38735e-20)
(-0.507612 0.119073 1.3328e-20)
(-0.645404 0.13578 1.28523e-20)
(-0.793843 0.146885 0)
(-0.94546 0.153436 0)
(-1.09747 0.155885 -1.19857e-20)
(-1.24715 0.154781 -1.18627e-20)
(-1.39236 0.150767 0)
(-1.53145 0.144521 0)
(-1.66323 0.136701 -1.1802e-20)
(-1.78697 0.127897 0)
(-1.9023 0.118606 0)
(-2.00914 0.109218 1.19682e-20)
(-2.10765 0.100022 0)
(-2.19815 0.0912183 1.21089e-20)
(-2.28106 0.0829279 2.43532e-20)
(-2.35687 0.0752137 0)
(-2.42609 0.0680929 0)
(-2.48922 0.0615513 0)
(-2.54674 0.0555541 0)
(-2.59909 0.0500544 0)
(-2.64668 0.0449995 2.48965e-20)
(-2.68987 0.0403356 2.49303e-20)
(-2.72895 0.0360105 2.49465e-20)
(-2.76422 0.0319758 0)
(-2.79589 0.0281884 -2.49251e-20)
(-2.82416 0.0246111 0)
(-2.84917 0.0212137 2.48306e-20)
(-2.87107 0.0179736 2.47552e-20)
(-2.88993 0.0148773 0)
(-2.90584 0.0119232 0)
(-2.91886 0.00911967 0)
(-2.92903 0.00649234 2.42589e-20)
(-2.93636 0.00408913 0)
(-2.9409 0.00193344 0)
(-2.9427 3.50136e-05 0)
(-2.9424 -0.00163536 0)
(-2.93992 -0.00323012 0)
(-2.93528 -0.00481771 0)
(-2.92844 -0.00643283 0)
(-2.91934 -0.0080975 0)
(-2.90788 -0.00982855 -2.15869e-20)
(-2.89394 -0.0116408 0)
(-2.87741 -0.0135482 0)
(-2.85811 -0.0155644 2.00602e-20)
(-2.83588 -0.0177029 1.94625e-20)
(-2.81051 -0.0199766 0)
(-2.78181 -0.0223979 -1.81159e-20)
(-2.74953 -0.024978 1.736e-20)
(-2.71342 -0.0277265 0)
(-2.67322 -0.0306508 -1.56636e-20)
(-2.62866 -0.0337553 0)
(-2.57945 -0.0370404 0)
(-2.52531 -0.0405019 1.25935e-20)
(-2.46596 -0.0441297 0)
(-2.40115 -0.0479071 -1.01446e-20)
(-2.33065 -0.0518099 0)
(-2.25426 -0.0558056 7.33487e-21)
(-2.17186 -0.0598537 5.78614e-21)
(-2.08339 -0.0639049 4.13832e-21)
(-1.98885 -0.0679029 4.78042e-21)
(-1.88836 -0.0717848 -1.08348e-21)
(-1.78215 -0.0754839 0)
(-1.67053 -0.0789316 0)
(-1.55395 -0.082061 0)
(-1.43296 -0.0848097 1.56219e-20)
(-1.3082 -0.0871231 2.02314e-20)
(-1.18042 -0.0889565 -2.49867e-20)
(-1.0504 -0.0902766 0)
(-0.918976 -0.0910617 3.48646e-20)
(-0.787014 -0.091298 3.99489e-20)
(-0.655362 -0.0909694 4.5104e-20)
(-0.524825 -0.0900506 0)
(-0.396195 -0.0885167 0)
(-0.270297 -0.0863136 0)
(-0.14778 -0.0832466 6.60669e-20)
(-0.0289479 -0.0792665 0)
(0.0859748 -0.0747223 0)
(0.19685 -0.0701385 -6.9099e-20)
(0.303333 -0.0656922 0)
(0.405244 -0.0614181 0)
(0.502526 -0.0573358 -6.66113e-20)
(0.595188 -0.0534574 0)
(0.683285 -0.0497901 0)
(0.766913 -0.0463367 6.37133e-20)
(0.846202 -0.043098 6.27259e-20)
(0.921304 -0.0400709 0)
(0.992396 -0.0372546 -6.07731e-20)
(1.05967 -0.0346477 0)
(1.12336 -0.0322866 5.88838e-20)
(1.18374 -0.030039 0)
(1.24086 -0.0277246 5.70807e-20)
(1.29543 -0.0278276 5.61808e-20)
(1.34933 -0.0270106 0)
(1.4038 -0.0232016 0)
(1.45547 -0.00581436 0)
(1.5004 0.0151238 0)
(1.54105 0.00402563 0)
(1.58214 0.00150271 0)
(1.62303 0.00472051 0)
(1.66035 0.000162957 4.66141e-20)
(1.69515 0.00269296 -4.59987e-20)
(1.72622 -0.00325533 0)
(1.75685 -0.0128248 0)
(1.7889 -0.0177461 0)
(1.82054 -0.0192918 0)
(1.8505 -0.0193856 -8.67722e-20)
(1.87865 -0.0189156 0)
(1.90503 -0.0182772 8.54496e-20)
(1.92971 -0.0175807 -8.48896e-20)
(1.95274 -0.0168446 0)
(1.97416 -0.0160625 0)
(1.99397 -0.0152208 0)
(2.01212 -0.0143024 8.31184e-20)
(2.02856 -0.0132821 8.27693e-20)
(2.04316 -0.0121137 0)
(2.05576 -0.0107139 8.21713e-20)
(2.06611 -0.00898481 8.19226e-20)
(2.07392 -0.00700073 -8.17134e-20)
(2.07865 -0.00518387 0)
(2.08054 -0.00383989 0)
(2.08021 -0.00294192 -8.11468e-20)
(2.07811 -0.0022646 0)
(2.0746 -0.00165922 0)
(2.06989 -0.00109886 0)
(2.06418 -0.000595962 0)
(2.05768 -0.000164486 8.03448e-20)
(2.0506 0.000190966 8.01795e-20)
(2.0431 0.000472608 0)
(2.03536 0.000686607 7.9832e-20)
(2.02751 0.00084128 0)
(2.01966 0.000945914 0)
(2.01193 0.00100988 7.92584e-20)
(2.00438 0.0010421 0)
(1.99707 0.00105075 7.884e-20)
(1.99004 0.00104315 0)
(1.9833 0.00102579 0)
(1.97686 0.00100441 7.81689e-20)
(1.97072 0.000984199 0)
(1.96483 0.000969995 7.77041e-20)
(1.95917 0.000966564 0)
(1.95368 0.000978921 0)
(1.94828 0.00101273 0)
(1.9429 0.00107484 -7.67912e-20)
(1.93742 0.00117405 0)
(1.93169 0.00132218 7.63854e-20)
(1.92553 0.00153591 0)
(1.91868 0.00183959 0)
(1.91079 0.00227054 0)
(1.90136 0.00288832 0)
(1.88965 0.00379674 0)
(1.87432 0.00517148 0)
(1.8538 0.00744866 0)
(1.82211 0.0111046 -1.53734e-19)
(1.78123 0.0197912 0)
(1.67299 0.0303547 0)
(0.0395365 -0.217621 4.78432e-20)
(0.103861 -0.249466 -3.97021e-20)
(0.15542 -0.21528 0)
(0.197317 -0.174332 2.11241e-20)
(0.2283 -0.134416 0)
(0.248842 -0.0965162 9.51983e-21)
(0.260239 -0.0612114 -1.88512e-20)
(0.263493 -0.0290211 -1.86897e-20)
(0.259116 -0.000417343 0)
(0.248372 0.0239918 -1.85629e-20)
(0.230312 0.0438744 -9.34032e-21)
(0.204 0.0596324 0)
(0.168002 0.0721996 0)
(0.121736 0.0825928 0)
(0.0654462 0.0931743 0)
(-0.00378541 0.107309 -1.0672e-20)
(-0.0884125 0.126562 0)
(-0.185784 0.14905 2.03311e-20)
(-0.295655 0.174864 0)
(-0.421624 0.206481 0)
(-0.563339 0.242206 -1.79467e-20)
(-0.71225 0.278151 0)
(-0.875852 0.318089 1.66216e-20)
(-1.03645 0.350103 -8.11953e-21)
(-1.20099 0.374742 7.89696e-21)
(-1.36046 0.388484 -7.74546e-21)
(-1.51245 0.394729 -7.65114e-21)
(-1.65523 0.392814 0)
(-1.78732 0.383783 0)
(-1.90829 0.369117 7.7124e-21)
(-2.01802 0.350279 -8.24363e-21)
(-2.11679 0.328658 0)
(-2.20523 0.305476 0)
(-2.28417 0.281748 8.27843e-21)
(-2.35454 0.258266 0)
(-2.41733 0.235608 0)
(-2.47345 0.214162 -8.78351e-21)
(-2.52377 0.194157 0)
(-2.56903 0.175701 9.29461e-21)
(-2.60989 0.158805 -1.84482e-20)
(-2.64688 0.143418 0)
(-2.68046 0.129448 0)
(-2.71099 0.116776 -3.84763e-20)
(-2.73878 0.105275 -3.88071e-20)
(-2.76406 0.0948142 -3.90995e-20)
(-2.78702 0.0852693 1.97504e-20)
(-2.80784 0.0765234 -1.9718e-20)
(-2.82663 0.0684694 -5.95597e-20)
(-2.84352 0.0610114 3.98881e-20)
(-2.85859 0.0540636 1.99366e-20)
(-2.87193 0.04755 0)
(-2.88361 0.041404 -1.99786e-20)
(-2.89371 0.0355671 2.00918e-20)
(-2.90228 0.0299888 0)
(-2.90939 0.0246291 0)
(-2.9151 0.0194596 0)
(-2.91947 0.0144728 -1.9708e-20)
(-2.92256 0.0096855 0)
(-2.92437 0.00511761 3.90269e-20)
(-2.92484 0.000761636 0)
(-2.92334 -0.00342272 3.82263e-20)
(-2.91982 -0.00754028 0)
(-2.91416 -0.0116616 -3.72192e-20)
(-2.90626 -0.0158359 0)
(-2.89603 -0.0201022 3.59789e-20)
(-2.88336 -0.0244946 -1.77637e-20)
(-2.86814 -0.0290448 0)
(-2.85025 -0.0337838 -3.3628e-20)
(-2.82952 -0.0387421 -1.61812e-20)
(-2.80579 -0.0439493 -1.56637e-20)
(-2.77889 -0.0494341 0)
(-2.74859 -0.0552233 -1.49301e-20)
(-2.7147 -0.0613409 -1.38491e-20)
(-2.67696 -0.0678066 0)
(-2.63513 -0.0746345 1.23992e-20)
(-2.58894 -0.0818311 -2.37776e-20)
(-2.53813 -0.0893932 0)
(-2.48243 -0.097306 -9.82213e-21)
(-2.42156 -0.10554 0)
(-2.35529 -0.11405 2.42232e-20)
(-2.2834 -0.122773 0)
(-2.2057 -0.131625 -1.7591e-20)
(-2.12208 -0.140504 -4.36218e-21)
(-2.03245 -0.149286 4.06378e-21)
(-1.93686 -0.157833 5.57263e-21)
(-1.83541 -0.165991 -2.90843e-21)
(-1.72831 -0.173598 0)
(-1.61589 -0.180493 0)
(-1.49858 -0.186518 0)
(-1.37693 -0.191533 -3.07724e-20)
(-1.25158 -0.19542 -1.41597e-20)
(-1.12325 -0.198093 1.73123e-20)
(-0.99271 -0.199501 0)
(-0.860793 -0.199631 2.12477e-20)
(-0.728324 -0.19851 -2.68699e-20)
(-0.596118 -0.196197 -3.00533e-20)
(-0.464942 -0.192773 0)
(-0.335502 -0.188335 0)
(-0.208412 -0.182994 0)
(-0.084134 -0.176811 -4.23991e-20)
(0.0368749 -0.169807 0)
(0.154069 -0.162181 8.76332e-20)
(0.267117 -0.154288 1.34155e-19)
(0.375829 -0.146337 -8.97583e-20)
(0.480098 -0.138445 0)
(0.579867 -0.130696 -4.47303e-20)
(0.675131 -0.123155 0)
(0.765935 -0.115872 -9.12301e-20)
(0.852365 -0.108883 4.5045e-20)
(0.934538 -0.102218 4.50121e-20)
(1.0126 -0.095895 0)
(1.0867 -0.0899313 1.36106e-19)
(1.15704 -0.0843422 -9.00551e-20)
(1.22381 -0.0791448 -4.51621e-20)
(1.28721 -0.0743394 0)
(1.34756 -0.0700459 -4.45913e-20)
(1.40497 -0.0667449 -1.32264e-19)
(1.459 -0.0645192 0)
(1.50888 -0.0631389 -8.69121e-20)
(1.55618 -0.0626288 -8.65232e-20)
(1.60344 -0.0614195 -8.5971e-20)
(1.6486 -0.0574011 0)
(1.69035 -0.0541429 0)
(1.72929 -0.0513498 0)
(1.76676 -0.0477239 3.96955e-20)
(1.80256 -0.0431938 3.91334e-20)
(1.83723 -0.0390355 0)
(1.8697 -0.0354905 7.52266e-20)
(1.89998 -0.0327222 7.41504e-20)
(1.92914 -0.0304532 0)
(1.95774 -0.0282736 7.28919e-20)
(1.98573 -0.0261483 1.44312e-19)
(2.01299 -0.0241267 -7.19671e-20)
(2.03937 -0.0221997 -7.1201e-20)
(2.06481 -0.020344 0)
(2.08921 -0.0185338 0)
(2.11252 -0.0167421 0)
(2.13467 -0.0149419 -7.07884e-20)
(2.15555 -0.0131045 7.03281e-20)
(2.17509 -0.0111969 1.40834e-19)
(2.1932 -0.00917616 -7.05099e-20)
(2.20982 -0.0069956 7.01952e-20)
(2.225 -0.00470143 7.04401e-20)
(2.23911 -0.00257972 0)
(2.25197 -0.000830732 0)
(2.26305 0.0005909 -7.01753e-20)
(2.27225 0.00197005 0)
(2.27963 0.0032011 0)
(2.28515 0.00420226 1.40276e-19)
(2.28888 0.00499817 0)
(2.29093 0.00561196 7.00039e-20)
(2.29146 0.00605787 -7.00305e-20)
(2.29063 0.00635185 0)
(2.28861 0.00651073 6.98469e-20)
(2.28557 0.00655227 0)
(2.28172 0.00649495 0)
(2.2772 0.00635727 -6.96266e-20)
(2.2722 0.00615727 1.39018e-19)
(2.26686 0.00591207 -6.93985e-20)
(2.26131 0.00563758 0)
(2.25566 0.0053484 0)
(2.25 0.00505782 6.89773e-20)
(2.24439 0.00477796 0)
(2.2389 0.00452006 6.866e-20)
(2.23354 0.00429487 0)
(2.22832 0.00411321 0)
(2.22324 0.00398673 0)
(2.21825 0.00392889 6.79748e-20)
(2.21332 0.00395642 0)
(2.20835 0.00409145 -6.76432e-20)
(2.20325 0.00436476 0)
(2.19787 0.00482117 0)
(2.19203 0.00552926 1.34479e-19)
(2.18543 0.00659709 -1.3432e-19)
(2.17774 0.00821437 0)
(2.1683 0.0106909 0)
(2.15675 0.0147909 0)
(2.14021 0.0213934 4.05097e-19)
(2.12292 0.035988 0)
(2.08646 0.0575453 -2.72466e-19)
(0.025892 -0.345336 -1.52214e-22)
(0.0640992 -0.345681 4.94937e-20)
(0.0840026 -0.285067 0)
(0.0982384 -0.223679 -3.91801e-20)
(0.106071 -0.165594 0)
(0.106873 -0.111003 0)
(0.100576 -0.0600369 2.85445e-23)
(0.0869844 -0.0128206 1.80398e-20)
(0.0656498 0.0306834 1.80058e-20)
(0.0359688 0.0708591 1.82129e-20)
(-0.00312841 0.108237 0)
(-0.0530753 0.143841 0)
(-0.115462 0.178973 -1.73389e-20)
(-0.191202 0.21475 -3.36506e-20)
(-0.280908 0.253003 3.25104e-20)
(-0.384972 0.295189 0)
(-0.502335 0.340947 3.01913e-20)
(-0.631614 0.389313 -1.45716e-20)
(-0.770694 0.438951 0)
(-0.916355 0.487835 2.72833e-20)
(-1.06433 0.533033 1.31245e-20)
(-1.20972 0.571796 -2.61283e-20)
(-1.34795 0.60074 -1.24674e-20)
(-1.47575 0.617403 0)
(-1.59284 0.622123 2.56371e-20)
(-1.69806 0.615434 2.57594e-20)
(-1.792 0.599645 0)
(-1.87481 0.576276 2.62554e-20)
(-1.94778 0.547046 0)
(-2.01241 0.513805 2.6962e-20)
(-2.07018 0.478269 1.30665e-20)
(-2.12243 0.441915 0)
(-2.17032 0.405929 0)
(-2.21477 0.371192 0)
(-2.25648 0.338303 0)
(-2.29594 0.30762 0)
(-2.3335 0.279312 0)
(-2.36937 0.253399 2.99824e-20)
(-2.40367 0.229802 -4.52697e-20)
(-2.43648 0.208377 0)
(-2.46782 0.188941 0)
(-2.4977 0.171299 0)
(-2.5261 0.155252 -1.99211e-22)
(-2.55303 0.140609 3.15089e-20)
(-2.57848 0.127196 6.36478e-20)
(-2.60244 0.114854 -6.40588e-20)
(-2.62491 0.103442 -3.22756e-20)
(-2.64588 0.0928372 3.23094e-20)
(-2.66536 0.0829321 1.17117e-22)
(-2.68334 0.0736343 3.26706e-20)
(-2.69982 0.0648643 0)
(-2.71481 0.0565537 3.28107e-20)
(-2.72828 0.0486424 1.22557e-22)
(-2.74024 0.0410769 0)
(-2.75065 0.0338065 0)
(-2.75949 0.0267797 -3.27493e-20)
(-2.76669 0.0199404 0)
(-2.77219 0.013223 0)
(-2.77589 0.00655981 3.25147e-20)
(-2.77772 -0.000111062 6.4162e-20)
(-2.77758 -0.00683721 -3.15769e-20)
(-2.77544 -0.0136256 0)
(-2.77122 -0.0205009 3.08124e-20)
(-2.76482 -0.0275003 0)
(-2.75616 -0.0346657 3.03687e-20)
(-2.74512 -0.0420413 2.92646e-20)
(-2.73158 -0.0496719 -5.78653e-20)
(-2.71543 -0.0576028 -2.85779e-20)
(-2.69649 -0.0658797 0)
(-2.67461 -0.0745474 5.3393e-20)
(-2.64961 -0.0836494 0)
(-2.62129 -0.093226 7.41259e-20)
(-2.58941 -0.103313 4.76194e-20)
(-2.55376 -0.113941 4.53767e-20)
(-2.51408 -0.125128 -4.29653e-20)
(-2.4701 -0.136883 6.0024e-20)
(-2.42156 -0.149198 0)
(-2.36818 -0.162046 0)
(-2.30969 -0.175378 -3.15388e-20)
(-2.24585 -0.189117 -4.1653e-20)
(-2.17641 -0.203158 0)
(-2.10118 -0.217364 9.77578e-21)
(-2.02003 -0.231566 0)
(-1.93288 -0.245564 -1.89332e-20)
(-1.83972 -0.259129 1.63973e-21)
(-1.74067 -0.272015 -1.67627e-21)
(-1.63591 -0.283957 1.86194e-22)
(-1.52577 -0.294695 0)
(-1.41069 -0.303978 9.03322e-21)
(-1.29119 -0.31158 1.73968e-21)
(-1.16793 -0.317317 0)
(-1.04163 -0.321056 0)
(-0.913074 -0.322724 0)
(-0.783099 -0.32231 -3.45744e-20)
(-0.652533 -0.319871 0)
(-0.522189 -0.315518 0)
(-0.392828 -0.309415 0)
(-0.265141 -0.301768 0)
(-0.139721 -0.292818 0)
(-0.0170575 -0.282797 -5.9642e-20)
(0.102328 -0.271937 0)
(0.218003 -0.260482 -6.49205e-20)
(0.329648 -0.24865 -6.63267e-20)
(0.437076 -0.236633 6.75164e-20)
(0.540165 -0.224602 0)
(0.638853 -0.212695 6.93318e-20)
(0.733136 -0.201027 0)
(0.823056 -0.18969 7.0529e-20)
(0.908694 -0.178755 -7.09408e-20)
(0.990165 -0.168275 -2.1221e-19)
(1.0676 -0.158291 0)
(1.14117 -0.148833 -2.13494e-19)
(1.21103 -0.139926 -7.04436e-20)
(1.27735 -0.131594 0)
(1.34034 -0.123861 -1.42264e-19)
(1.40021 -0.116808 -1.42189e-19)
(1.45694 -0.11069 2.13504e-19)
(1.5103 -0.10524 0)
(1.56031 -0.0997618 7.1214e-20)
(1.608 -0.0932783 7.11262e-20)
(1.65483 -0.0866304 2.12246e-19)
(1.69971 -0.0817829 0)
(1.74155 -0.0773676 0)
(1.78126 -0.0726663 0)
(1.81921 -0.0681205 6.82916e-20)
(1.85547 -0.0631212 0)
(1.89054 -0.0592876 0)
(1.92356 -0.056855 -6.63506e-20)
(1.95439 -0.0549169 -6.56138e-20)
(1.9839 -0.0528855 0)
(2.01256 -0.0506554 0)
(2.04049 -0.0483063 -1.28269e-19)
(2.06776 -0.0459134 0)
(2.09433 -0.0435094 1.27185e-19)
(2.12017 -0.0410977 1.26629e-19)
(2.14522 -0.0386647 0)
(2.16942 -0.0361871 0)
(2.19271 -0.0336374 -1.26114e-19)
(2.21501 -0.0309867 -1.39871e-22)
(2.23625 -0.0282086 -1.2713e-22)
(2.25636 -0.0252927 0)
(2.2753 -0.0222706 -2.52772e-19)
(2.29306 -0.0192074 0)
(2.30962 -0.0161435 0)
(2.32489 -0.0131379 0)
(2.33876 -0.0102286 1.27257e-19)
(2.35105 -0.00737325 0)
(2.36157 -0.00472385 -2.55182e-19)
(2.37035 -0.0023532 -1.27767e-19)
(2.37741 -0.00024389 0)
(2.38282 0.00160246 -1.27983e-19)
(2.38662 0.00317952 0)
(2.38894 0.00448988 0)
(2.3899 0.00554175 -3.84494e-19)
(2.38964 0.00634918 2.56354e-19)
(2.38832 0.00693152 0)
(2.38609 0.00731221 2.56245e-19)
(2.38313 0.00751758 -1.28052e-19)
(2.37958 0.00757557 0)
(2.37559 0.00751468 0)
(2.37128 0.00736306 0)
(2.36676 0.00714792 -3.82284e-19)
(2.36212 0.00689512 0)
(2.35743 0.00662918 -1.26954e-19)
(2.35274 0.00637348 0)
(2.34808 0.00615082 0)
(2.34346 0.00598437 0)
(2.33885 0.00589897 0)
(2.33423 0.00592314 0)
(2.32953 0.00609197 0)
(2.32464 0.00645158 -2.49869e-19)
(2.31944 0.00706608 0)
(2.31375 0.00803013 -1.24497e-19)
(2.3073 0.00948785 3.72946e-19)
(2.29975 0.0116832 0)
(2.29053 0.015002 0)
(2.27922 0.0203093 -2.48673e-19)
(2.26404 0.0287389 -2.49753e-19)
(2.24741 0.0448781 2.4988e-19)
(2.22287 0.0718316 2.5171e-19)
(0.00112775 -0.402225 -8.48459e-20)
(0.0111352 -0.358549 -6.91961e-20)
(0.00209483 -0.287666 -3.94039e-20)
(-0.00910761 -0.217129 -1.76413e-20)
(-0.0243623 -0.14855 0)
(-0.0447187 -0.0821322 3.30769e-20)
(-0.0711173 -0.0179235 -1.59855e-20)
(-0.104534 0.0441671 0)
(-0.146019 0.104449 -1.5863e-20)
(-0.196712 0.163471 0)
(-0.257642 0.221959 2.97353e-20)
(-0.329644 0.280676 0)
(-0.413243 0.340249 1.4174e-20)
(-0.508453 0.401057 2.73417e-20)
(-0.614524 0.463184 -2.63329e-20)
(-0.729692 0.52595 0)
(-0.851331 0.587579 -2.44707e-20)
(-0.976105 0.645628 0)
(-1.10035 0.697452 0)
(-1.22016 0.740348 -2.25538e-20)
(-1.33203 0.771861 0)
(-1.43334 0.790627 -1.02894e-21)
(-1.52289 0.796323 0)
(-1.60059 0.789249 0)
(-1.66751 0.770918 1.29309e-21)
(-1.72541 0.74361 -2.2033e-20)
(-1.776 0.709805 -2.3507e-20)
(-1.8209 0.671548 -2.25064e-20)
(-1.86171 0.630634 0)
(-1.89972 0.588597 -4.72452e-20)
(-1.93597 0.546671 0)
(-1.97117 0.505788 -2.46064e-20)
(-2.00578 0.466606 0)
(-2.04006 0.42955 0)
(-2.07408 0.394852 2.53349e-20)
(-2.10783 0.362601 0)
(-2.14119 0.33278 -2.58282e-20)
(-2.17406 0.305298 4.15234e-22)
(-2.20627 0.280017 5.22614e-20)
(-2.2377 0.25677 -5.31028e-20)
(-2.26821 0.235379 0)
(-2.29768 0.215664 0)
(-2.32603 0.197449 -2.74614e-20)
(-2.35318 0.18057 0)
(-2.37906 0.164871 -2.74126e-20)
(-2.40363 0.150213 2.76064e-20)
(-2.42685 0.136469 2.77842e-20)
(-2.44868 0.123526 0)
(-2.4691 0.11128 -2.80892e-20)
(-2.4881 0.0996419 -2.82149e-20)
(-2.50564 0.088529 5.69947e-20)
(-2.5217 0.0778678 -2.84081e-20)
(-2.53627 0.0675917 -2.84733e-20)
(-2.54932 0.0576397 0)
(-2.56081 0.0479551 0)
(-2.5707 0.0384848 2.85267e-20)
(-2.57896 0.0291765 0)
(-2.58554 0.0199751 0)
(-2.59039 0.0108223 -5.66393e-20)
(-2.59345 0.00166204 -5.62791e-20)
(-2.59469 -0.00756102 0)
(-2.59404 -0.0168872 0)
(-2.59143 -0.0263598 0)
(-2.58679 -0.0360275 0)
(-2.58001 -0.0459434 -5.32383e-20)
(-2.57098 -0.0561639 5.29544e-20)
(-2.5596 -0.0667476 5.13332e-20)
(-2.54571 -0.0777549 1.01098e-19)
(-2.52918 -0.0892472 0)
(-2.50983 -0.101286 7.63394e-22)
(-2.48749 -0.11393 0)
(-2.46194 -0.127238 -4.43978e-20)
(-2.43296 -0.141259 9.02442e-22)
(-2.40032 -0.156036 -4.06184e-20)
(-2.36376 -0.171599 3.84897e-20)
(-2.323 -0.187962 1.0573e-21)
(-2.27777 -0.205119 0)
(-2.22778 -0.223035 3.22576e-20)
(-2.17274 -0.241647 2.82885e-20)
(-2.11238 -0.260851 5.18735e-20)