/*--------------------------------*- C++ -*----------------------------------*\
  =========                 |
  \\      /  F ield         | OpenFOAM: The Open Source CFD Toolbox
   \\    /   O peration     | Website:  https://openfoam.org
    \\  /    A nd           | Version:  7
     \\/     M anipulation  |
\*---------------------------------------------------------------------------*/
FoamFile
{
    version     2.0;
    format      ascii;
    class       volScalarField;
    location    "32";
    object      p;
}
// * * * * * * * * * * * * * * * * * * * * * * * * * * * * * * * * * * * * * //

dimensions      [0 2 -2 0 0 0 0];

internalField   nonuniform List<scalar> 
918
(
3.89737
17.1039
0.184828
3.82331
0.147271
16.1969
1.09933
2.64685
3.36199
0.576882
0.522271
2.75479
12.2068
6.36374
1.52598
0.166499
2.6925
0.51937
3.26083
0.280642
2.10481
3.52647
3.65196
3.38225
2.70862
3.39367
8.92225
0.263129
0.0289279
0.0977586
0.135165
0.0707454
-0.000675235
13.5854
14.72
15.1732
2.90381
1.21842
1.22009
1.29236
1.00732
0.895998
2.65395
2.66707
1.72289
2.64145
2.63553
3.04501
3.34615
3.36338
3.40741
3.37235
3.41894
1.35633
0.556373
0.532004
0.574126
0.581911
0.596356
0.535394
0.527823
0.493384
0.463295
2.70395
2.76547
2.77334
2.73767
2.72821
15.375
14.4414
15.0714
13.0187
13.3715
11.4006
10.6252
6.89537
7.36612
5.87514
5.30868
1.06427
0.773022
1.87113
2.29073
0.023247
0.200481
0.235353
2.69422
2.69901
2.6957
2.69629
1.97529
0.55463
0.579169
3.18657
3.13493
3.52156
3.57237
3.45411
3.47309
0.303084
0.294846
0.254716
0.241082
0.191991
2.43125
2.53901
3.3338
3.24644
2.71922
2.70685
2.71308
2.41623
2.68467
2.69124
4.53699
4.8757
3.98145
4.45455
8.31068
7.66782
9.6791
10.3669
0.0867587
0.0377856
0.112666
0.0314627
0.0758166
2.8872
2.86194
2.91455
2.92541
2.95517
1.00092
0.742775
1.36092
1.46931
1.38825
1.46072
0.639143
0.806114
0.714358
1.96781
2.67124
2.67755
1.54607
1.67477
1.60628
1.79037
1.84186
2.9714
3.02138
2.99161
3.17255
3.07734
3.12025
3.43801
3.36949
3.40939
1.45198
1.52841
1.27317
1.18863
0.511395
0.519771
0.519102
0.586627
0.583311
0.654617
0.697252
0.535093
0.504859
0.569685
0.544403
0.557061
0.427764
0.398481
2.6704
2.64357
2.73534
2.7577
2.84677
2.82783
2.78854
2.81117
9.44443
9.97042
10.1104
9.48369
-0.361587
-1.22626
2.6362
2.94806
0.0639849
0.0487196
0.0245085
0.0494576
0.0667169
0.0122604
0.389426
0.357286
0.273427
0.331685
2.69645
2.692
2.03023
2.08631
1.93914
1.87757
3.00341
3.0216
3.09239
3.0482
0.378661
0.322918
0.349892
2.61782
2.57598
2.60369
2.35057
2.28333
2.4716
2.50443
2.69039
2.69517
2.6941
4.90242
5.27919
10.6687
11.0883
11.158
11.7211
13.3581
13.1021
12.0999
2.78417
2.83647
2.81508
2.98154
2.93408
2.96237
2.86167
2.89954
2.88148
0.527224
0.349621
1.76296
1.6978
1.53893
1.617
1.9895
2.01597
2.6918
2.68247
2.68774
1.90975
1.97183
1.09052
1.00821
2.54043
2.62119
2.58263
8.80156
7.89018
8.94601
8.38526
7.71662
8.19773
0.0426154
-0.724718
-0.278532
4.10417
3.31025
3.73201
0.473142
0.398489
0.424731
2.11313
2.09915
1.62114
1.78734
1.7031
5.65013
6.14242
7.07775
5.8668
6.48682
7.07903
6.77961
1.92452
1.8338
1.87818
2.09566
2.11716
2.20749
2.04434
2.1162
0.763577
0.929918
0.853365
2.11131
2.11078
2.10532
3.29144
3.355
0.169962
0.244365
3.40397
3.38147
0.00772202
0.0323949
3.3164
1.325
1.89789
3.11117
3.04622
3.33064
0.626028
1.38975
0.558419
0.693484
0.536952
2.77998
2.74514
2.63448
0.092418
0.243172
0.329786
0.658276
3.2577
3.17991
3.31527
3.35259
3.35788
0.136617
0.181116
0.122278
0.262146
0.205306
0.250566
2.90841
2.91657
1.29048
3.31521
3.35167
3.35406
3.16517
3.28267
3.1716
0.182316
0.107365
0.120643
2.24306
2.48656
3.16944
2.71617
3.11676
3.08785
2.81235
4.03809
3.55269
3.592
4.02376
2.67138
2.64406
1.94546
1.77935
1.99404
1.96413
3.09471
3.05061
3.02437
2.99781
3.21937
3.1617
3.26482
3.18762
3.24188
3.28033
0.60872
0.612984
0.616072
0.54368
1.391
1.54016
1.23186
1.26587
0.919657
0.498666
0.492833
0.537855
0.514681
0.601262
0.527435
0.602874
0.516486
0.476892
0.449942
0.589617
0.52861
0.527884
2.78276
2.77498
2.74438
2.74803
2.7622
2.77691
2.66034
2.70618
2.66486
2.52199
2.58833
2.53455
0.150634
0.134409
0.104354
0.253323
0.270636
0.212634
0.161453
0.238972
0.229443
0.166169
0.291544
0.279072
0.753282
0.692874
2.08406
1.90672
1.51225
3.07017
3.15568
3.06601
3.21035
3.26251
3.27595
3.22822
3.16545
2.93091
2.93122
2.88255
2.87761
1.30666
1.10295
1.42887
1.42237
1.38567
2.69721
2.44985
2.32828
2.36667
2.62562
3.17137
2.31749
2.17445
2.17911
1.66059
2.53022
1.91975
2.42702
2.2905
4.89585
5.29809
4.89199
4.39413
4.47869
0.552805
2.60957
1.62926
1.61228
1.86952
1.78122
2.56198
2.67043
2.67065
2.61271
2.62713
2.64642
2.63381
2.65371
2.65272
2.64458
2.46982
2.2422
2.11338
2.12132
2.69271
2.50667
2.56869
2.49992
2.97631
3.03968
2.99629
2.9243
2.97717
2.92036
2.91288
2.94392
3.11042
3.07677
3.05153
3.09852
0.612378
0.593459
0.724671
0.705383
0.647646
0.606295
0.720367
1.02248
0.943679
1.491
1.5649
0.968166
0.798903
0.785634
0.989483
1.17807
1.17922
0.858382
0.981415
1.05923
0.96814
1.16949
1.06816
0.54328
0.595403
0.570773
0.55648
0.703633
0.826349
0.725831
0.492486
0.517259
0.444703
0.414648
0.717725
0.593757
0.601388
0.757524
0.219535
0.252766
0.281758
0.477467
0.373492
0.414961
2.85637
2.81053
2.82895
2.72942
2.73969
2.72988
2.68302
2.86827
2.83208
2.84911
2.67871
2.69225
2.66384
2.69957
2.74896
2.78434
2.89241
2.86042
2.76271
2.78244
2.73921
2.7296
2.64236
2.58161
2.57179
0.206065
0.155824
0.184762
0.157781
0.109544
0.138832
0.433099
0.311462
0.378088
0.349872
0.392603
0.277576
0.257297
0.937755
1.05631
1.08044
0.877874
0.881223
2.06012
2.0653
1.91814
1.79815
1.86214
1.96536
1.97986
1.65021
1.78396
1.73601
1.97049
2.10898
3.15693
3.14943
3.11375
3.09244
3.11891
1.437
1.69003
1.73698
1.86216
1.31377
1.48824
1.84513
1.7166
1.92925
1.50965
2.69451
2.70258
2.64699
2.69529
2.69981
2.44362
2.55508
2.6289
2.60315
2.66883
2.67981
2.57773
2.6384
2.62579
2.54737
2.55114
2.48201
2.51862
2.46287
2.44088
2.7154
2.70237
2.73514
2.67854
2.72126
2.66087
2.69848
2.70729
2.72755
2.63165
2.56162
2.56476
2.61235
2.58233
2.62384
2.6429
1.86696
1.93405
1.43731
1.0894
1.2055
0.642222
0.583394
0.922527
1.38827
0.765679
0.49031
-0.123549
2.53876
3.06219
2.64229
2.55642
2.60441
2.62695
2.61333
2.57624
2.5864
2.6734
2.68273
2.68846
2.59946
2.5994
2.61779
2.60031
2.54144
2.29414
2.28208
2.19902
1.93616
1.99233
2.36328
2.23656
2.10256
2.10671
2.47385
2.31781
2.41359
2.45256
2.30619
2.25945
2.57054
2.65505
2.68248
2.65429
2.46273
2.48232
2.52671
2.57617
2.60106
2.6456
2.94971
3.01655
3.028
2.99525
2.97521
2.98748
2.95477
2.969
3.02809
3.04431
3.02405
0.56409
0.590412
0.57973
0.558418
0.618555
0.60032
0.820944
0.782623
0.64153
0.684751
0.651544
0.673118
0.592495
0.600481
1.03116
1.09485
1.15137
1.03564
1.33482
1.56526
1.67345
1.56378
1.22873
1.25315
1.3769
0.723582
0.725577
0.675996
0.757936
0.782507
0.516309
0.443589
0.400437
0.498995
0.528815
0.389313
0.340299
0.360842
0.445535
0.401421
0.350874
2.83748
2.80931
2.80686
2.77955
2.78805
2.83542
2.86301
2.83731
2.85561
2.86103
2.80997
2.79508
2.81678
0.3542
0.301225
0.323673
0.314241
0.325699
0.306566
0.329723
1.51901
1.29043
1.39845
1.24171
0.986989
1.04556
1.67435
1.90134
1.83347
2.06307
2.01478
2.00578
1.92134
1.95372
1.7106
1.95821
1.81671
2.08807
2.03675
2.08143
1.98138
2.01562
2.30573
2.40004
2.00809
2.11102
2.18385
1.94127
1.9889
2.07271
2.29369
1.37509
1.55266
1.77806
1.82527
1.50109
1.7239
1.47054
1.56318
1.65594
1.73932
1.77132
2.68209
2.67642
2.68983
2.68664
2.70282
2.6918
2.67699
2.7017
2.70974
2.68674
0.62062
1.01098
0.192233
1.19423
1.55511
2.67054
2.49661
2.87631
2.77041
2.67565
2.6549
2.64643
2.60365
2.66782
2.64132
2.23433
2.40064
2.35058
2.37225
2.23327
2.14141
2.59171
2.59995
2.60393
2.63524
2.63471
2.69353
2.94267
2.92581
2.93221
2.93937
2.88746
2.89221
0.879396
0.794152
0.947449
0.941333
0.83294
0.76877
0.459024
0.391264
0.349328
0.325491
0.37367
0.382433
1.57239
1.56713
1.30258
1.47802
1.3554
1.13671
1.1829
1.25189
1.41238
1.50979
1.7933
2.07888
1.92896
1.97188
1.73896
1.83263
1.78082
1.63677
1.67405
1.84612
1.82798
2.05725
1.23139
1.55415
2.94948
2.94318
2.70924
2.42995
2.1437
2.41392
2.54454
2.42563
2.49541
2.5955
2.56534
1.48762
1.40222
2.20457
2.54648
1.81308
1.68507
1.72643
2.03777
2.04098
)
;

boundaryField
{
    wall-4
    {
        type            zeroGradient;
    }
    velocity-inlet-5
    {
        type            zeroGradient;
    }
    velocity-inlet-6
    {
        type            zeroGradient;
    }
    pressure-outlet-7
    {
        type            fixedValue;
        value           uniform 0;
    }
    wall-8
    {
        type            zeroGradient;
    }
    frontAndBackPlanes
    {
        type            empty;
    }
}


// ************************************************************************* //
