/*--------------------------------*- C++ -*----------------------------------*\
  =========                 |
  \\      /  F ield         | OpenFOAM: The Open Source CFD Toolbox
   \\    /   O peration     | Website:  https://openfoam.org
    \\  /    A nd           | Version:  7
     \\/     M anipulation  |
\*---------------------------------------------------------------------------*/
FoamFile
{
    version     2.0;
    format      ascii;
    class       surfaceScalarField;
    location    "32";
    object      phi;
}
// * * * * * * * * * * * * * * * * * * * * * * * * * * * * * * * * * * * * * //

dimensions      [0 3 -1 0 0 0 0];

internalField   nonuniform List<scalar> 
1300
(
3.75095
5.62643
-2.48532
3.75095
-2.65658
5.62643
-2.03326
2.03326
-0.432719
0.432719
1.90721
1.84374
-1.22703
1.22703
-1.44987
1.44987
-0.9501
0.9501
-3.87943
3.87943
-3.16256
3.16256
2.05773
-2.05773
-1.87834
1.87834
-0.510638
0.510638
-1.58686
1.58686
1.94973
-1.94973
-1.73108
1.73108
-0.743001
0.743001
-1.50145
5.2524
2.24951
2.24951
-0.804755
0.804755
-3.57294
3.57294
4.63401
-4.63401
5.09906
-5.09906
-2.61374
-3.31038
1.01028
-7.54444
-1.6463
-1.6463
-8.391
8.391
-2.76457
2.86186
1.12963
-1.12963
-0.376024
0.376024
-1.88433
-0.148939
-1.88433
2.09664
-0.0633742
2.09664
-0.469811
0.037092
-0.469811
1.57093
-1.57093
0.41433
0.0183892
0.41433
1.25419
-1.25419
-1.90765
3.81486
1.84331
-1.7566
7.009
-1.99435
3.8381
-2.40885
2.40885
-1.23378
0.00674347
-1.23378
1.22001
0.00702313
1.22001
-2.33991
2.33991
-1.32605
-0.123813
-1.32605
1.50822
-0.0583511
1.50822
1.18445
-1.18445
-0.965955
0.015855
-0.965955
0.905343
0.0447567
0.905343
1.36026
4.26617
-6.98669
9.84855
-4.26617
0.386738
3.48672
0.392707
3.48672
-3.1486
-0.0139659
-3.1486
3.25869
-0.0961256
3.25869
1.83057
0.227158
1.83057
-2.36973
0.312002
-2.36973
-4.44877
-4.88717
-1.97018
0.0918432
-1.97018
-0.512433
0.00179548
-0.512434
0.520811
-0.0101729
0.520811
-1.57536
1.57536
-1.7853
0.198441
-1.7853
1.51735
0.432373
1.51735
1.64934
2.10162
5.40029
-5.40029
3.45056
-1.55904
-0.172033
-1.55904
-1.85501
-3.24405
1.85502
-0.123938
-0.491232
-0.251769
-0.491232
1.7775
0.472009
1.7775
0.869843
0.0354999
-0.869843
0.0650887
1.47641
-1.47641
0.488401
0.316354
0.488401
-3.51794
3.51794
3.38055
-0.121859
-3.38055
-0.192389
4.42917
0.204845
4.42917
-4.78439
0.150378
-4.78439
3.81093
-7.12131
-4.30226
1.74837
0.129964
-1.74837
0.102072
1.15882
-0.0291921
1.15882
-1.07809
1.07809
-1.16911
0.0394815
-1.16911
-0.323307
-0.0527168
-0.323307
0.440569
-0.0645457
0.440569
-1.7999
-0.0844275
-1.7999
-2.01829
0.232988
2.01829
0.0783496
0.641094
-0.641094
-0.501112
0.0313013
-0.501112
-1.66581
-0.134088
1.66581
-0.094881
-1.55765
-0.0132799
-1.55765
-1.19652
0.0274031
1.19652
0.0576728
1.45105
0.326444
-1.45105
0.196863
-1.77246
3.87407
-1.9785
3.8218
-2.20955
-0.199303
-2.20955
2.53167
-0.122824
2.53167
1.39769
0.189167
-1.39769
0.163919
1.27236
-0.0523556
1.27236
-2.37058
0.0306696
-2.37058
2.2066
0.133304
2.2066
1.29028
-0.0179139
-1.29028
-0.0357749
1.50607
0.00214564
1.50607
1.18696
-0.00251157
1.18696
-1.14914
-0.0353164
-1.14914
1.04448
-1.04448
1.01609
0.0283921
-1.01609
0.0501301
-14.4245
14.5749
-0.189899
-14.2346
3.29682
3.29682
1.08857
0.742
1.08857
-2.67563
0.305898
-2.67563
4.29058
-8.59284
4.83021
-9.27898
4.08255
-11.627
4.2607
-9.14787
2.14204
-2.14204
2.09422
0.0478208
-2.09422
0.124043
-0.501369
-0.0110643
-0.501369
-1.4037
-0.171663
-1.4037
1.82028
-0.244918
1.82028
-1.20236
1.20236
-1.31262
0.110256
1.31262
0.204732
1.53796
-0.0318901
-1.53796
-0.021081
0.411096
0.0032332
-0.411096
-0.0801355
1.54995
-0.0735456
1.54995
-1.31092
-0.165486
-1.31092
-0.502344
0.000975168
0.502344
-0.0139436
-3.84927
0.331327
-3.84927
-14.1269
-0.107678
-13.7342
-4.89207
-4.89207
3.49894
13.3475
-1.16299
0.0138518
1.16299
-0.00416278
1.14161
0.0607567
-1.14161
0.0635185
-1.06692
0.0224446
1.06692
0.0111671
-0.376836
0.0535295
-0.376836
-0.512641
0.512641
-0.460278
-0.0523633
0.460278
-0.019709
0.698531
-0.0574365
0.698531
0.515361
0.00545031
-0.515361
0.0142482
-1.60327
0.045618
-1.60327
2.52927
0.00239894
2.52927
-1.26942
-0.0415017
1.26942
-0.0824571
-0.100866
14.6758
-3.19596
0.0473586
3.19596
-14.8806
14.928
-0.543452
0.166615
0.543452
0.545121
3.11609
0.401854
-3.11609
0.440458
2.17556
0.0310414
-2.17556
0.033517
-1.1615
-0.242194
-1.1615
-2.00331
-0.206234
2.00331
-0.183033
-15.0744
-0.323354
15.3978
-15.1705
4.17262
0.256545
-4.17262
15.1845
-0.595601
-0.0454937
0.595601
-0.0829594
0.886481
-0.18795
0.886481
1.6283
-0.0783441
-1.6283
0.0250298
-2.5025
0.131923
2.5025
0.0267731
-1.0015
-0.160004
1.0015
-0.115019
-4.37057
4.84258
2.63843
-3.24862
-3.87269
-6.49267
1.42482
2.44925
4.87539
-6.44114
-5.18585
-6.33907
8.83858
-8.39812
-9.18907
9.41623
7.73248
-7.74576
-6.09896
6.30369
6.85387
-6.79619
1.90672
1.90813
7.94048
-7.93373
-12.5788
12.3795
7.8625
-7.98631
12.7203
-12.6896
-14.574
14.6051
-5.34408
5.35993
-6.68691
6.65159
-6.93056
6.8481
-4.23579
-5.04318
9.18901
-9.09716
10.5902
-10.7622
-9.25741
9.45585
3.33489
1.50769
3.66134
-2.11289
4.01961
-1.72521
4.36364
4.58201
-8.8178
4.01083
-7.88352
4.8627
5.72749
-4.73876
-1.75391
-5.92065
5.89146
-5.68463
5.6958
9.18616
-9.3351
-2.09023
3.99836
-1.73158
4.18083
-3.77019
-2.32877
3.33782
1.53757
4.94969
4.23932
-5.07965
-1.25942
-8.14691
8.06856
-8.45198
8.2865
0.0608512
7.35772
-7.41858
3.63379
-2.51996
9.87768
6.31862
6.62452
7.40215
-7.0003
0.99597
-8.41455
-8.60693
-1.85126
1.88256
1.8276
-1.80921
5.55719
2.17529
5.46231
-5.4455
-2.30027
-5.39988
3.72727
2.57643
3.83753
3.95526
2.89861
3.98266
3.50814
-3.5008
-0.00733801
-3.88718
7.39532
0.497556
-6.21595
-4.67838
4.47572
3.46476
4.48274
-4.99515
-2.93859
-4.83123
-6.77093
-5.80789
-6.97716
7.51731
4.8622
7.39449
-9.04214
9.06891
4.75162
3.11088
4.69327
-4.5626
-3.42371
-4.59838
14.7671
-3.4001
-11.367
-7.66385
-6.91016
7.53055
5.18971
8.18599
6.41906
8.21951
4.74692
10.0202
-9.93663
3.02647
-3.27936
-2.06472
-3.22923
3.07402
2.28592
3.11877
-3.85934
-2.82757
-3.84549
-3.92631
-3.00425
3.92882
2.72277
-4.10198
-4.35001
4.14348
2.70462
4.35498
-9.54083
4.79289
-9.83607
-6.19381
-2.90336
-6.06976
5.89403
3.36072
-9.25475
-2.92377
12.5612
-6.8337
10.8073
-5.70902
-5.0532
-5.7301
-6.94594
-2.31147
-6.71296
-5.18075
4.93856
-5.60069
5.35578
15.4315
-8.4181
-7.01341
-4.05613
-2.74007
3.85926
-0.197926
-4.35003
4.34269
-0.33042
4.03322
5.54091
5.34298
-3.55066
-2.13397
-3.48715
3.37104
2.32475
3.39349
6.84285
2.34331
6.77948
-6.06462
-3.27047
-6.14905
4.78287
-4.83558
1.93924
-1.93827
5.09691
3.18959
-5.02336
-3.12354
7.73025
-3.60018
-4.13007
-13.9823
11.3053
2.67707
-4.10465
-0.470865
0.272136
-5.72711
-3.46196
5.4151
1.20942
12.5147
9.05272
-7.13882
7.47015
8.25894
8.13708
-0.469853
3.21053
-3.04391
5.70001
-3.15275
-2.54726
4.73731
-4.8714
-1.41174
-6.43313
5.02139
0.590911
1.18847
-1.44024
-1.36195
-0.489307
-1.3477
1.13404
0.693555
1.13728
0.699596
1.18296
-2.78159
0.589155
2.19244
-2.082
-1.22005
-4.38296
-1.95729
6.34026
5.45473
2.61383
-5.47976
0.0798821
1.81395
-1.82412
-0.480854
-3.90211
2.85807
-3.33892
-5.09685
-2.14942
7.24627
-3.12294
-0.364203
3.06219
0.775339
-3.55116
-2.36949
3.51168
0.470981
-4.0475
8.09356
-4.04606
-6.18147
2.87651
4.51881
5.45294
-6.06683
3.16546
2.90138
-1.54802
3.75585
0.72689
3.7035
-9.57409
6.6355
5.62209
3.83376
-5.81126
0.980033
-8.59405
13.1099
-11.3325
-1.77741
6.73724
6.37262
7.81162
7.61989
-5.10065
12.9123
-1.48509
-9.84736
10.0791
-6.24539
7.51703
-13.7624
-15.1369
5.28956
-10.1347
12.1347
-1.99997
-2.92462
-6.11752
13.0593
-1.27936
-11.78
6.11512
-7.34328
-6.03042
13.3737
-10.7434
9.45414
-3.25449
-6.19965
-7.45646
-5.23312
7.32454
1.74437
-13.6908
16.7173
-3.67062
4.03073
0.662533
4.03288
5.6891
-8.41019
2.72109
5.05428
-8.30876
3.64512
-12.0553
-6.68514
13.0363
-6.35114
-9.5885
-8.75255
-0.835955
2.52982
14.1875
-8.94889
6.55498
2.3939
2.78529
0.608193
-2.81369
-0.415541
0.340115
5.40991
-5.75003
3.45889
3.49439
3.96607
1.44384
3.53245
2.35901
-3.52829
-0.317196
-4.93263
1.92838
-2.20985
-4.88171
6.81009
-5.47685
0.595138
-3.43847
-4.73637
8.17484
-5.50319
3.85736
4.2362
6.18212
-6.61967
1.8833
-3.30469
-3.31498
3.59356
-5.80341
2.50394
4.30616
5.20856
0.858553
6.94121
6.09507
-10.3019
0.465856
10.3344
-9.07497
2.25458
5.96493
-8.80956
0.0570119
-6.01275
1.27158
-8.10528
-7.98317
7.16186
-9.47332
-6.60056
6.13469
0.644782
-6.21304
-0.499913
-3.12276
-2.05799
-3.28277
-2.09541
-3.50528
-7.19606
-1.26161
-5.93445
3.67694
-4.17333
-2.80383
4.35636
0.999417
-3.32236
3.27687
-3.6699
3.48195
-0.0752281
4.41792
5.26775
2.52768
-2.8699
5.39759
-6.58361
8.92691
-10.9705
4.38685
4.86716
-8.13763
-6.1033
2.22528
2.55759
2.16073
9.49494
-12.36
2.86503
-10.4069
11.7417
-1.33483
-15.0903
4.68343
-5.5954
1.76949
0.169753
1.75843
0.493924
2.28951
-2.78343
-1.44434
-1.45829
-3.05304
-4.6309
7.68394
1.60662
-4.39339
2.78677
-4.09464
5.70126
0.0631534
-4.45654
5.72966
-3.44016
5.89942
-4.03148
1.86793
4.2901
7.50958
-3.21949
5.41751
-2.22792
2.33694
-5.55643
-2.29396
-3.80809
6.09401
-4.36675
4.96189
-0.343981
5.30587
-4.6251
1.02492
-0.659027
2.83536
2.90045
5.64559
-4.20175
4.04091
-6.26883
-1.51552
-5.41028
-1.10412
-2.42524
-6.0249
8.45013
7.48594
-9.91117
-5.13037
9.2285
-4.09814
6.70189
-5.13096
-1.57094
-1.91572
-2.91987
1.86219
1.34834
8.05023
-0.222435
-4.90852
-3.26635
-2.72123
3.65189
2.04812
-2.18725
4.86432
1.91512
-0.726644
0.192566
0.94471
1.65248
-1.45992
0.575666
1.07682
-0.864575
1.31949
0.494466
-1.32494
-0.0227658
-1.02528
3.88334
1.16716
-1.86072
0.4008
1.09574
-4.24849
6.2188
-3.4046
-2.8142
7.31454
1.2714
-4.676
5.16172
-4.57081
2.7473
-4.70459
-1.92871
-6.49952
-4.32423
-3.59725
6.38402
-4.08669
6.70052
1.28717
-6.7804
8.06757
-4.30655
2.15712
-3.19874
3.69321
-1.39471
-1.80403
3.76432
3.48195
-3.68166
-0.220447
0.0826583
2.85088
-2.76822
-0.48804
-2.57004
-5.49398
5.96496
-2.80221
5.96767
2.59537
-2.58398
8.55165
2.22472
-4.8087
-3.95675
-4.32095
-1.90733
3.54561
-0.924637
-3.67374
-7.12428
3.69165
0.0118458
-9.42366
11.0492
-1.62553
-5.9589
-0.676592
7.41383
-9.29455
0.985789
-5.64943
5.39976
6.12665
6.13849
-11.7819
0.00190895
-6.91967
1.89245
-8.81212
8.26507
-4.14119
9.43075
-9.7705
6.96667
-8.77108
7.65334
-1.15878
7.90354
-5.18245
3.46348
-8.6966
-6.95223
7.49592
-4.38504
8.15845
-5.31804
13.4765
-8.98867
7.54714
5.92936
-1.47541
-4.25469
-7.29343
5.81802
0.253704
4.28658
5.94809
-3.58908
5.63089
3.00009
-6.30478
-2.80332
-8.74818
2.4434
-4.51198
-2.46682
4.91022
3.7153
4.32349
1.59524
-3.90795
9.6487
-10.4847
-3.29756
-4.68561
7.67461
-1.85659
5.48387
-10.1695
-2.62141
7.83553
-1.05301
-6.78252
0.582569
-7.18313
2.91995
-10.1031
6.55338
-7.05329
1.14946
-6.74487
-2.1729
-2.25586
-1.50862
-2.16128
-5.74159
4.23296
-1.05815
2.21872
-8.56143
7.50841
-3.18031
7.41327
-2.55976
-0.723005
2.67478
0.807172
8.22044
-0.257728
-5.84557
-2.00461
6.03426
-4.02965
1.64728
-6.28263
-0.248363
3.01489
4.29965
-8.03627
-0.101357
-5.94693
-3.3053
5.86289
5.9232
13.4091
1.04917
6.38023
-0.517342
7.42941
1.64339
1.62368
-5.31979
8.18482
3.13034
7.51719
-0.626877
2.49481
1.13155
1.13334
0.690781
1.91802
0.982432
2.94293
0.159502
-1.29879
4.80331
-7.52453
-0.105214
-6.78253
2.63369
6.7159
-4.08221
4.68157
-2.63345
0.651924
-0.138135
-1.22648
1.36462
-2.6854
-1.95313
-0.876313
-1.94047
2.34127
1.94287
-1.46496
-1.22044
0.722453
-5.04668
3.98213
-4.20258
-0.720629
7.34695
-3.21911
0.45089
-1.06199
-2.11915
-2.60845
2.63122
8.2041
0.347555
4.15804
6.31252
3.94302
0.353944
6.57839
-8.57837
-5.47692
-8.57646
-0.311384
7.10245
3.11464
11.0728
9.04399
7.18741
-2.98208
-13.4667
10.8
-2.61518
9.46517
-2.68265
-7.42042
6.15971
2.7672
-6.80449
-0.248799
-7.66922
-10.2844
-0.587227
8.09564
-7.63322
6.91021
4.85222
1.08222
-1.69606
-0.559803
1.74842
-0.124737
7.30467
-2.17037
-8.566
10.7364
-4.54553
4.44032
2.45088
2.41344
3.8155
1.18205
-7.38395
-11.4662
-2.70709
-1.5414
-5.52129
0.818964
-2.76183
6.62402
-2.18371
5.05309
8.55266
9.20459
-3.391
-6.52017
7.48914
-2.43605
6.76854
)
;

boundaryField
{
    wall-4
    {
        type            calculated;
        value           uniform 0;
    }
    velocity-inlet-5
    {
        type            calculated;
        value           uniform -3.75095;
    }
    velocity-inlet-6
    {
        type            calculated;
        value           uniform -5.62643;
    }
    pressure-outlet-7
    {
        type            calculated;
        value           nonuniform List<scalar> 8(2.48532 2.65658 5.92412 6.53416 9.33594 8.11319 9.12079 8.34325);
    }
    wall-8
    {
        type            calculated;
        value           uniform 0;
    }
    frontAndBackPlanes
    {
        type            empty;
        value           nonuniform 0();
    }
}


// ************************************************************************* //
