/*--------------------------------*- C++ -*----------------------------------*\
  =========                 |
  \\      /  F ield         | OpenFOAM: The Open Source CFD Toolbox
   \\    /   O peration     | Website:  https://openfoam.org
    \\  /    A nd           | Version:  7
     \\/     M anipulation  |
\*---------------------------------------------------------------------------*/
FoamFile
{
    version     2.0;
    format      ascii;
    class       volVectorField;
    location    "32";
    object      U;
}
// * * * * * * * * * * * * * * * * * * * * * * * * * * * * * * * * * * * * * //

dimensions      [0 1 -1 0 0 0 0];

internalField   nonuniform List<vector> 
918
(
(0.813496 -0.0529588 0)
(0.134464 2.47694 0)
(0.0512564 0.616149 0)
(0.756262 0.0535047 0)
(-0.0165659 0.664944 -1.74954e-19)
(-0.136691 2.25728 -2.72019e-17)
(0.246767 0.420525 -9.34068e-19)
(0.1015 0.0544367 -5.22594e-20)
(1.00266 -0.0070302 0)
(-0.00345402 0.248286 0)
(-0.00982555 0.302045 0)
(0.200774 0.00192325 0)
(0.117393 1.74038 0)
(0.00851435 1.30142 0)
(-0.00593436 1.0378 -1.32325e-18)
(-0.00413617 0.424066 -1.58614e-19)
(0.110165 0.0263567 3.84334e-18)
(0.0449653 0.362693 -4.83291e-19)
(0.476387 0.0500595 0)
(-0.0158116 0.361757 0)
(0.238426 0.123089 -1.76001e-18)
(1.02784 -0.139876 0)
(0.959596 -0.177494 0)
(0.589272 -0.0666021 0)
(0.173623 0.0115793 0)
(-0.0150109 1.47514 0)
(-0.0469632 1.72795 8.39011e-18)
(-0.0239429 0.788514 0)
(0.016104 1.58867 0)
(0.0482825 0.964742 0)
(-0.0306073 1.69971 0)
(0.00977117 0.895517 1.3683e-19)
(0.0118797 0.361488 0)
(-0.320951 2.70296 -1.01885e-21)
(-0.310509 3.10884 2.35037e-17)
(-0.0130235 3.04129 0)
(0.241498 -0.000676623 0)
(0.0668103 0.0844753 5.7099e-19)
(0.430978 0.696896 2.03452e-18)
(0.275606 0.354097 -1.64778e-18)
(0.376601 0.785289 1.95306e-19)
(0.211294 0.461415 -9.67609e-19)
(0.199613 0.106461 5.265e-20)
(0.105858 0.0533509 0)
(0.318489 0.196683 0)
(0.200182 0.108646 2.35279e-19)
(0.1035 0.0591958 -2.33756e-19)
(0.275437 -0.0145449 0)
(1.01043 -0.00025242 0)
(1.00278 0.00667987 0)
(1.07491 -0.154052 0)
(1.01611 -0.0279865 0)
(1.01126 -0.0177115 0)
(0.00868848 0.555375 -2.44054e-18)
(-0.0165806 0.509292 0)
(0.00348132 0.250328 0)
(-0.0116355 0.502484 0)
(-0.00552047 0.248823 0)
(-0.00295613 0.511797 0)
(-0.0292153 0.570767 0)
(-0.0070711 0.272896 0)
(-0.0113315 0.599664 0)
(-0.00304251 0.321483 0)
(0.254932 0.00270417 0)
(0.388354 -0.000319253 0)
(0.204496 0.00333823 0)
(0.374782 0.00555684 0)
(0.190909 0.0023544 0)
(0.345185 2.93893 1.07182e-17)
(0.284413 3.23577 0)
(0.225159 3.03561 0)
(0.211121 2.70618 1.1561e-22)
(0.138778 2.12556 -1.50647e-17)
(0.17755 2.49081 0)
(0.0775989 1.54065 0)
(0.0169163 2.25861 1.59409e-23)
(0.0180295 1.30088 0)
(-0.0622092 2.29151 0)
(-0.0451516 1.32085 0)
(0.0247788 1.75937 0)
(-0.0102538 1.16761 0)
(0.0116664 1.89484 1.33848e-18)
(0.00302081 1.09149 0)
(-0.0708024 2.49182 0)
(0.000736812 0.80548 1.60505e-19)
(-0.00651117 0.43664 -2.14303e-19)
(0.222257 0.0518534 -1.36014e-18)
(0.112464 0.0223232 -1.30003e-18)
(0.224637 0.0599247 -4.09129e-18)
(0.11137 0.0335946 -2.58606e-18)
(0.0515797 0.380831 0)
(0.109329 0.701291 4.6023e-19)
(0.106036 0.414628 -7.24454e-19)
(0.656733 0.0840806 0)
(0.346243 0.0354542 0)
(1.00992 0.0417568 0)
(1.0276 0.159002 0)
(0.935565 0.139985 -1.69385e-17)
(0.850071 0.134927 1.2697e-17)
(-0.0388019 0.673199 0)
(-0.00665441 0.323588 0)
(-0.0170264 1.07258 0)
(-0.0300356 0.726799 0)
(-0.0306695 0.362333 0)
(0.398862 0.133241 6.06336e-19)
(0.171291 0.0860834 0)
(0.74264 -0.0932006 0)
(0.411973 -0.0416474 0)
(0.360444 0.00354568 0)
(0.342948 0.00740874 0)
(0.181302 0.00241655 0)
(0.324947 0.0175616 0)
(0.279619 0.021654 0)
(0.118633 0.00935816 5.9614e-18)
(-0.0215192 1.3481 4.35973e-18)
(-0.0515415 2.42627 0)
(-0.0731654 2.51363 0)
(-0.0190314 1.35899 0)
(-0.0666578 2.63612 7.70762e-18)
(-0.0345617 1.62913 0)
(-0.103458 2.69815 -2.52982e-17)
(-0.0733537 1.81721 8.47395e-18)
(-0.00370941 1.92803 0)
(-0.0192451 2.16283 0)
(-0.0121126 0.767846 -3.27044e-21)
(-0.00848073 0.730133 0)
(-0.00711262 0.40237 0)
(0.459392 0.0108238 0)
(0.246836 0.00463416 0)
(0.230548 0.00336538 0)
(0.459035 -0.0086522 0)
(0.250552 -0.00251037 0)
(0.216545 0.246792 -7.67815e-19)
(0.0556791 0.0711584 0)
(0.200567 0.277805 1.00836e-19)
(0.0728536 0.1179 0)
(0.490782 0.590663 5.38746e-19)
(0.295861 0.305866 -1.2105e-18)
(0.22786 0.763252 0)
(0.308649 0.809903 0)
(0.166021 0.462556 0)
(0.0664195 0.170409 -7.90099e-19)
(0.213046 0.0977118 0)
(0.10957 0.0468781 7.06004e-19)
(0.51397 0.510381 0)
(0.538567 0.4181 0)
(0.304982 0.249256 1.349e-18)
(0.570821 0.322452 0)
(0.344729 0.148229 2.80944e-20)
(0.477451 0.00309804 0)
(0.484084 -0.00640942 0)
(0.25676 -0.00019874 0)
(0.619382 -0.0612877 0)
(0.527011 -0.0412298 0)
(0.329244 -0.0267357 0)
(1.0256 0.0654629 0)
(1.01256 0.0271067 0)
(1.00465 0.0215257 0)
(0.0127574 1.00036 1.32298e-18)
(0.00788923 0.519494 0)
(0.00694987 1.05086 2.33676e-18)
(0.00120684 0.581511 -2.0598e-18)
(0.0407894 0.616613 4.13887e-19)
(0.0212967 0.528426 0)
(0.0198114 0.299774 0)
(-0.0133784 0.512822 0)
(-0.00313865 0.263065 0)
(-0.00340381 0.951433 -8.68825e-21)
(-0.0162678 0.524848 0)
(-0.0305902 0.922322 -4.28154e-19)
(-0.0141583 0.478225 8.12314e-19)
(9.07176e-05 0.522124 0)
(0.00231686 0.529571 0)
(0.000316359 0.270131 0)
(0.00471625 0.606506 0)
(0.000376522 0.319994 0)
(0.474295 -0.00112295 0)
(0.254802 0.00298422 0)
(0.467533 0.00893498 0)
(0.246876 0.00031621 0)
(0.222157 0.00113657 0)
(0.415817 0.00474088 0)
(0.397291 0.0137485 0)
(0.217403 0.00481257 0)
(-0.00648451 4.03788 -6.94728e-20)
(0.0602182 3.91025 0)
(0.0867558 2.35695 0)
(0.0374095 1.39791 0)
(0.241592 1.65661 0)
(0.257014 0.703783 2.0984e-19)
(0.0256236 1.98507 0)
(-0.022085 1.14585 0)
(-0.0445606 2.31183 0)
(-0.0710716 2.48549 0)
(-0.0575209 2.43326 0)
(-0.0369447 1.81859 2.02409e-20)
(-0.0629259 2.46107 0)
(-0.0453168 2.23192 0)
(0.00216135 0.456553 1.68128e-20)
(0.00859342 0.873856 3.07285e-19)
(-0.0160925 0.837001 2.23831e-19)
(-0.00279837 0.458996 0)
(0.229373 0.0364345 2.09678e-18)
(0.112688 0.0150332 -2.01559e-18)
(0.095401 0.705136 0)
(0.0656616 0.343145 -5.90753e-19)
(0.0841479 0.782394 -1.97097e-18)
(0.0356816 0.436377 1.92793e-18)
(0.258645 0.00610482 0)
(0.500514 0.0124853 0)
(0.545631 0.036564 0)
(0.289359 0.0121283 0)
(0.00293415 0.614975 0)
(0.00970132 0.622949 0)
(0.00168558 0.326393 0)
(0.204027 0.114191 2.11255e-18)
(0.24373 0.118947 -2.38423e-18)
(0.115801 0.0640782 0)
(0.617507 0.0476497 2.36972e-19)
(0.36116 0.0309804 0)
(0.552486 0.0357006 0)
(0.283472 0.00757196 0)
(0.231904 0.0287384 0)
(0.238731 0.0168397 -9.75669e-18)
(0.118155 0.011112 3.55132e-18)
(-0.0284032 2.40678 4.87473e-18)
(-0.0222649 1.43699 4.50865e-19)
(0.0206248 3.94123 -1.60434e-19)
(0.126145 3.8064 7.03025e-18)
(-0.141175 2.77487 3.10364e-19)
(-0.0946642 1.99797 -1.26626e-21)
(-0.258628 3.0954 -6.58849e-18)
(0.0494085 3.53287 4.93612e-18)
(0.0129016 3.73836 -7.3912e-18)
(0.461675 -0.00463122 0)
(0.46884 0.00550145 0)
(0.249749 -0.000370334 0)
(0.469706 0.00652006 0)
(0.442876 0.0126684 0)
(0.245933 0.00576364 0)
(0.426227 -0.000845289 0)
(0.431262 -0.00204766 0)
(0.226743 -0.000532329 0)
(0.163843 0.277013 -4.12532e-19)
(0.0529531 0.118892 0)
(0.0689467 0.134805 2.114e-19)
(0.157843 0.31011 1.65657e-18)
(0.164723 0.301837 -9.14915e-19)
(0.0662388 0.12574 1.7182e-18)
(0.133723 0.373873 4.05042e-18)
(0.0726363 0.170609 7.697e-19)
(0.222121 0.0742192 2.77787e-18)
(0.218753 0.0878701 7.22245e-19)
(0.111538 0.0405762 1.33206e-18)
(0.619247 0.237232 -1.54388e-18)
(0.371296 0.110241 -1.68068e-18)
(-0.0189297 1.05015 9.97187e-19)
(-0.00864805 0.574711 0)
(0.514784 0.00686722 0)
(0.491509 0.0191283 0)
(0.273888 0.00732963 0)
(0.0159592 4.013 0)
(0.0437164 2.26225 9.91159e-18)
(0.0580436 2.29559 0)
(0.0235512 1.33437 -9.19943e-18)
(-0.0171308 4.07976 1.95766e-18)
(-0.0298872 4.10506 0)
(0.236121 0.375983 -2.46819e-20)
(0.312498 0.684745 2.3669e-19)
(0.07301 0.21084 -3.70301e-19)
(-0.0483071 2.27088 -4.23134e-18)
(-0.0486668 2.10127 0)
(-0.0313377 1.26686 0)
(0.00695003 0.882728 -3.1558e-20)
(0.0131898 0.892118 -6.70033e-19)
(0.00765608 0.463908 -3.01391e-20)
(0.145556 0.632528 1.96073e-18)
(0.072748 0.280978 -1.26931e-18)
(0.00955704 0.933804 1.6232e-18)
(0.0317471 0.854954 -1.81216e-18)
(0.0155058 0.478692 8.75639e-20)
(-0.0254703 4.05481 -1.12971e-17)
(-0.0369821 4.13954 1.10039e-17)
(-0.0387386 2.55591 6.23418e-18)
(-0.0741894 2.45534 -5.35821e-18)
(-0.0193562 1.55225 -6.01282e-18)
(-0.0420824 4.1304 -1.4523e-17)
(-0.0441961 4.12788 1.27633e-17)
(0.158935 0.364516 0)
(0.16901 0.334698 -3.77335e-18)
(0.0744045 0.15449 1.60678e-18)
(0.179169 0.42857 2.42157e-18)
(0.0784596 0.220227 -3.62792e-18)
(0.656403 0.101739 9.01639e-19)
(0.656032 0.17587 0)
(0.384675 0.0717444 -8.94698e-19)
(-0.0426761 0.983409 -9.78483e-21)
(-0.018271 1.02956 0)
(-0.0116147 0.565903 0)
(0.137539 0.546305 -6.88764e-19)
(0.143251 0.494349 -1.48863e-18)
(0.0715738 0.252062 2.71224e-18)
(1.05426 -0.151109 0)
(1.12548 -0.152663 3.02009e-18)
(-0.000670417 1.86938 0)
(0.000630896 1.53211 0)
(1.05544 0.0995166 2.23887e-20)
(1.0398 0.174089 6.27967e-18)
(-0.00996298 1.85274 -2.64467e-20)
(-0.0107713 1.4483 0)
(-0.0724112 3.76576 2.87757e-18)
(0.0331513 3.43805 0)
(1.13212 0.548696 -8.04111e-19)
(1.04687 0.0885603 -3.58612e-20)
(1.03465 -0.0366162 0)
(1.03873 -0.000387033 -2.76048e-23)
(0.0374567 1.30748 0)
(0.0847083 2.01639 0)
(-0.0327989 1.30578 0)
(-0.039457 2.03094 6.29907e-19)
(-0.0430157 2.03599 3.90953e-19)
(0.871528 0.0147024 -1.94499e-20)
(1.00126 0.0085423 0)
(1.03504 0.0261686 0)
(-0.0714102 2.46628 0)
(-0.040278 1.72573 0)
(-0.0528641 1.56741 0)
(0.313584 1.49588 6.03464e-19)
(1.11644 -0.144011 0)
(0.99168 -0.111581 0)
(1.06512 -0.0204946 3.85713e-18)
(1.10706 -0.121392 -4.56727e-18)
(1.04037 -0.0478824 0)
(-0.0765433 2.41558 0)
(-0.0349991 2.10183 0)
(-0.0457127 2.27375 0)
(-0.0369814 1.63801 0)
(-0.0328944 1.53782 0)
(-0.0314176 1.29833 0)
(0.976075 -0.000723548 0)
(0.935074 0.0138439 -2.45139e-20)
(0.800248 1.2506 -9.83396e-19)
(1.06052 0.018297 -3.85826e-18)
(1.07212 0.107099 4.66334e-18)
(1.03328 0.0455177 0)
(1.13182 0.111784 3.57402e-18)
(1.11805 0.166586 -4.55099e-18)
(1.00788 0.135677 0)
(-0.0495986 1.85076 0)
(-0.0239962 1.79991 1.38089e-19)
(-0.0276929 1.41904 -9.76823e-20)
(1.21411 0.180949 4.76266e-18)
(1.13934 0.0660921 0)
(-0.237825 3.94956 -3.75203e-18)
(-0.155202 2.49838 -2.44035e-19)
(-0.239861 4.01191 4.40414e-18)
(-0.06027 3.90763 -1.75337e-18)
(-0.0186899 3.5466 0)
(-0.0226722 3.82444 1.42209e-18)
(-0.164969 4.15524 3.86783e-18)
(-0.0813877 4.04398 -2.64616e-18)
(-0.102868 4.05488 0)
(0.447378 0.203503 0)
(0.427298 0.232291 0)
(1.15712 0.698197 2.43947e-18)
(1.00007 0.670411 -3.1042e-18)
(1.25777 0.575119 0)
(1.09334 0.384436 0)
(1.11018 0.0915829 -6.85216e-18)
(0.943416 0.0538401 8.45759e-18)
(1.10907 -0.0480615 0)
(0.930156 -0.0232787 0)
(1.16642 0.0158482 0)
(1.21744 0.051908 0)
(1.11042 0.0427887 0)
(1.19568 0.105686 0)
(1.15024 0.107364 0)
(1.12464 0.0817984 0)
(0.0485504 1.39373 0)
(0.0198728 1.06106 0)
(0.0766225 1.5164 0)
(0.0619383 1.12201 0)
(0.0966011 2.16393 0)
(0.0890231 1.65082 -1.22382e-18)
(0.024498 2.1567 0)
(0.0121743 1.88046 8.68149e-19)
(-0.0256388 1.92644 -1.05655e-18)
(-0.0348841 1.41722 0)
(-0.0170819 1.13182 0)
(-0.0392735 1.4885 0)
(-0.0288736 1.03642 0)
(-0.0897705 2.56107 -4.69369e-19)
(-0.0732385 2.2247 5.13244e-19)
(-0.0624691 2.17259 6.06028e-19)
(-0.0402455 1.78333 0)
(-0.0711935 2.13872 -9.09093e-19)
(-0.0317903 1.86088 -5.53302e-19)
(-0.0799124 2.58002 3.64768e-19)
(-0.081791 2.46338 -6.55414e-19)
(-0.0702221 2.3905 -7.37629e-19)
(1.00676 0.0249685 6.16661e-18)
(0.754688 0.00883432 -7.74573e-18)
(0.961891 0.0394537 -6.16099e-18)
(0.731224 0.0225225 7.66941e-18)
(1.11464 0.00857412 0)
(0.859818 -0.00049939 0)
(1.14214 0.0287676 0)
(1.09603 0.00622874 0)
(0.879324 0.00362255 0)
(1.21869 0.0762455 0)
(1.13416 0.0305134 0)
(0.927669 0.0190459 0)
(-0.0483522 2.34366 -2.03495e-20)
(-0.0686487 2.48553 0)
(-0.0668558 2.43323 0)
(-0.0598889 1.95004 1.60093e-19)
(-0.0254541 1.57793 -6.51218e-21)
(-0.0827624 2.49531 2.03816e-19)
(-0.0859872 2.3801 -2.11011e-19)
(-0.07076 2.09524 0)
(-0.0625686 2.07605 0)
(-0.0549666 2.11965 0)
(-0.0525361 1.72341 0)
(-0.0297595 1.20031 0)
(0.416296 1.71449 -1.35951e-18)
(0.43443 1.37458 -4.40657e-19)
(0.304123 1.31575 -5.06745e-19)
(0.168071 1.45791 1.56382e-18)
(0.481271 2.46706 5.55202e-19)
(1.13943 -0.0543676 0)
(1.10066 -0.0857276 0)
(0.935429 -0.0569368 0)
(1.1772 -0.0230215 0)
(1.12961 -0.0540503 0)
(1.16237 -0.0955595 0)
(1.18508 -0.100815 0)
(1.20173 -0.0970661 0)
(1.06365 0.0263987 6.49735e-18)
(0.828898 0.0184991 -8.17794e-18)
(1.02234 0.0311066 -6.45606e-18)
(0.819209 0.0167442 8.01546e-18)
(0.776503 1.39678 0)
(0.688769 1.30055 -1.21211e-18)
(0.84012 1.30573 -1.13595e-18)
(0.838697 1.00328 1.52172e-18)
(0.660555 1.2575 2.9745e-18)
(0.492179 0.0701732 2.44069e-18)
(1.23053 0.0980257 0)
(1.28615 0.187256 -3.84878e-18)
(1.07062 0.079206 -1.69543e-19)
(1.2558 0.141593 0)
(-0.216777 3.3233 2.99246e-18)
(-0.260446 3.42332 -3.93995e-18)
(-0.0515795 1.66919 2.28086e-18)
(0.252809 0.511969 -1.21588e-18)
(0.0439717 3.59709 8.23966e-19)
(-0.00697449 3.64842 0)
(0.0258939 3.32315 -1.17252e-18)
(-0.147752 3.55995 -7.67331e-18)
(-0.0374546 3.62653 0)
(-0.0301987 3.96219 2.95305e-19)
(-0.0402607 4.24156 -3.28382e-18)
(-0.0499641 4.02858 4.73676e-18)
(-0.0954398 4.18169 0)
(-0.0373025 4.11286 0)
(0.657383 1.45672 0)
(0.660672 0.811458 -2.25272e-18)
(0.895326 0.801753 1.08577e-18)
(0.89471 1.06838 0)
(0.992841 1.12518 -9.55725e-19)
(1.02284 0.857069 4.46215e-20)
(0.478801 0.144451 -3.13465e-18)
(0.538097 0.234483 -1.80377e-20)
(0.426429 0.157379 1.57278e-18)
(0.476413 0.277566 1.05956e-19)
(0.373144 0.21465 -4.17336e-18)
(0.511652 0.241547 0)
(0.691275 0.36279 2.66067e-18)
(0.700994 0.338823 0)
(0.506202 0.265677 0)
(0.379651 0.189736 0)
(1.09416 0.720498 2.10565e-18)
(1.3019 0.25019 -3.97458e-18)
(1.2603 0.401521 0)
(1.14688 0.250578 0)
(0.476549 0.125441 2.42161e-18)
(1.0833 0.60371 -1.60778e-18)
(0.954931 0.543146 2.97765e-18)
(1.2572 0.462131 -3.6573e-18)
(1.0148 0.0353453 4.38594e-18)
(1.03995 0.0557996 -4.52892e-18)
(0.863975 0.0273837 0)
(1.09206 -0.0111445 0)
(1.05063 -0.0265782 -4.24232e-18)
(0.851343 -0.00921296 4.18957e-18)
(1.33841 0.0289013 0)
(1.25627 0.044794 0)
(1.25121 0.0532587 0)
(1.20549 0.0677253 0)
(1.30202 0.0199276 0)
(1.2656 0.0167681 0)
(-0.0101769 1.26783 0)
(-0.0143263 1.02144 0)
(0.158228 1.90803 -7.89325e-19)
(0.304233 1.61309 -3.42571e-19)
(0.146745 1.50851 -7.42899e-19)
(0.178433 1.27754 1.19831e-18)
(0.180782 1.92993 0)
(0.188084 2.43083 -1.05104e-18)
(0.162917 2.44667 0)
(0.401349 2.50091 -7.64493e-19)
(0.35249 2.36031 1.98819e-18)
(0.246623 2.38073 9.09083e-19)
(0.299499 1.93094 -4.07927e-19)
(0.233704 2.03558 3.27188e-19)
(0.356367 2.21233 -1.37291e-18)
(0.30058 2.44843 0)
(0.351688 2.41225 1.00812e-18)
(-0.0348528 2.51284 -3.76483e-19)
(-0.029572 2.13799 0)
(0.0155695 2.4167 1.1141e-18)
(-0.024612 2.46661 0)
(-0.0152076 2.07342 -9.63989e-19)
(-0.017377 1.78784 0)
(-0.0683235 2.23045 -5.29044e-19)
(-0.0865705 2.47291 0)
(-0.0387663 1.94349 0)
(-0.0327102 1.90269 6.20551e-19)
(-0.0575456 2.22833 1.93069e-20)
(-0.0489748 2.15952 1.28276e-18)
(-0.0403154 1.76216 8.26382e-21)
(-0.0917464 2.52858 3.30732e-19)
(-0.0887916 2.53526 1.89561e-19)
(-0.020656 1.34887 0)
(-0.00435028 1.09553 0)
(-0.0557181 2.54851 9.48875e-19)
(-0.0442772 2.20322 8.09123e-19)
(-0.0659666 2.38239 -1.05394e-18)
(-0.0235024 2.50091 0)
(-0.076701 2.4416 -5.71696e-19)
(-0.0911523 2.27724 2.41454e-19)
(-0.0763398 2.31493 -7.68639e-20)
(-0.0770338 2.53608 -4.1592e-19)
(-0.0754755 2.33322 -1.28983e-19)
(-0.0757956 2.30828 6.1845e-19)
(0.944214 0.0172057 -4.26942e-18)
(0.940499 0.0137952 4.15076e-18)
(0.769301 0.00983524 0)
(1.17684 0.0606869 5.68089e-18)
(0.901262 0.0390651 -6.12613e-18)
(0.746086 0.0199873 6.68767e-18)
(1.24068 0.103695 -7.59064e-19)
(1.0598 -0.0147737 0)
(1.04427 -0.00481723 4.08763e-18)
(0.878411 -0.00477914 -4.02113e-18)
(1.29299 0.037156 -2.35769e-19)
(1.25761 0.0326258 2.02533e-18)
(1.39789 0.0545292 0)
(1.42277 0.0564161 -6.90836e-19)
(1.35276 0.0437665 0)
(1.23389 0.0469535 0)
(1.36253 0.0290097 0)
(1.24169 0.0258551 0)
(1.41157 0.0349156 1.43677e-18)
(1.39736 0.0231039 -3.18618e-18)
(1.38993 0.034283 -1.5994e-18)
(1.40954 0.0363225 -1.69998e-18)
(1.41546 0.0719859 3.35847e-18)
(1.28641 0.0612149 0)
(1.35529 0.094137 0)
(-0.0732007 2.46793 -2.3217e-19)
(-0.0625845 2.48516 -1.9568e-20)
(-0.0732039 2.49396 0)
(-0.0642228 2.27835 2.34002e-19)
(-0.0603207 2.28296 3.84952e-20)
(-0.0635991 2.23039 -3.54803e-20)
(-0.0580635 2.0042 4.9272e-19)
(-0.0981957 2.20903 -2.77878e-20)
(-0.0774759 2.279 1.39931e-19)
(-0.0529614 1.91806 -2.54558e-19)
(-0.0227214 1.68146 3.04323e-19)
(-0.0809671 2.35024 9.85875e-21)
(-0.0880064 2.47797 3.29235e-19)
(0.463294 1.93583 7.68474e-19)
(0.431777 2.16777 1.4518e-18)
(0.662984 1.48933 1.17421e-18)
(0.536908 1.5915 4.24806e-19)
(0.565699 1.35584 0)
(0.372979 1.50534 5.91108e-19)
(0.29679 1.06817 7.02284e-19)
(0.215029 1.63843 4.88226e-20)
(0.303926 2.0662 -2.39863e-18)
(0.390231 2.05544 1.8723e-18)
(0.291455 1.54043 0)
(0.197033 1.23289 -1.23158e-18)
(0.141398 1.90056 3.045e-18)
(0.155561 1.70228 -8.52267e-20)
(0.0892602 1.41413 -3.85549e-18)
(0.356447 0.937745 2.60686e-18)
(0.384138 1.03201 0)
(1.21513 -0.0261787 1.50244e-19)
(1.21958 -0.0858088 -1.25934e-19)
(1.25179 -0.0748073 -2.20931e-18)
(1.2724 -0.0440171 2.22814e-18)
(1.24877 -0.0179094 0)
(0.748728 1.56114 0)
(0.762616 1.56135 0)
(0.899634 1.37221 0)
(0.776671 1.46949 0)
(0.666151 1.32548 -4.06701e-21)
(0.473857 0.859015 0)
(0.949965 2.68816 2.52658e-20)
(0.768661 2.4234 0)
(0.869232 2.35178 -2.08698e-18)
(0.871766 2.36719 1.35282e-18)
(0.611257 0.102144 0)
(0.486135 0.0869338 6.40372e-19)
(0.816745 0.114869 4.01891e-18)
(0.605749 0.089322 -1.42919e-18)
(0.481399 0.0390812 -4.47153e-18)
(1.42807 0.258031 -5.01868e-18)
(1.29183 0.331293 -3.9508e-20)
(1.11909 0.284333 3.83441e-18)
(1.30446 0.244393 3.41972e-18)
(1.05619 0.153111 -5.6683e-18)
(0.980773 0.152935 6.94677e-19)
(1.08479 0.227554 -1.55358e-18)
(1.00334 0.221126 0)
(1.26904 0.183445 2.90135e-18)
(1.37767 0.206074 0)
(1.37808 0.250713 0)
(1.35003 0.135671 1.60891e-18)
(1.43729 0.208617 -3.42391e-20)
(1.41526 0.232555 -8.7667e-19)
(1.39006 0.208964 0)
(1.21126 0.0400291 3.18447e-18)
(1.41089 0.0566153 3.9738e-18)
(1.37767 0.0462348 -3.12472e-18)
(1.39394 0.075012 -2.69508e-18)
(1.26158 0.0723184 -4.03233e-18)
(1.10842 0.123907 0)
(1.14358 0.0958709 0)
(0.861783 0.0584732 -2.36663e-18)
(0.707525 0.0359575 8.82045e-19)
(1.36124 0.113165 3.68433e-18)
(1.43752 0.138005 -4.53546e-18)
(1.43885 0.157963 4.02337e-18)
(1.39856 0.156259 0)
(1.42877 0.106646 0)
(1.43207 0.102773 -1.8325e-18)
(1.4171 0.100189 -3.03399e-18)
(0.71797 2.1607 1.1305e-18)
(0.819302 2.76686 -1.15153e-18)
(0.949883 2.79409 -1.29313e-18)
(0.920387 3.07004 2.64623e-19)
(0.739105 1.60861 -2.71705e-18)
(0.725892 1.50619 4.61901e-19)
(0.509432 0.861575 -4.43819e-20)
(0.899248 2.54961 -9.30488e-19)
(0.914209 2.51142 1.68742e-18)
(0.791123 2.86589 2.38652e-19)
(0.740522 2.05251 -2.43865e-19)
(0.678178 1.92261 0)
(0.597527 0.899889 -2.46962e-19)
(0.00244505 1.51753 1.74852e-18)
(0.501683 0.20718 2.03554e-18)
(0.358219 0.338132 2.17309e-18)
(0.447521 0.237714 2.33368e-18)
(0.567617 0.305292 -4.02419e-18)
(0.575688 0.26989 3.28466e-18)
(0.496132 0.206821 -1.15564e-18)
(0.389753 0.186522 2.56779e-18)
(0.554898 0.166755 -1.41344e-18)
(0.534675 0.177393 0)
(0.428609 0.139892 5.05981e-21)
(0.848044 0.489522 1.46848e-18)
(0.726722 0.409234 -5.16227e-18)
(0.626875 0.354897 -6.62987e-21)
(0.603556 0.348571 0)
(0.824773 0.85203 1.78945e-18)
(1.06972 0.942246 2.28385e-18)
(0.975941 1.01576 -2.64275e-18)
(1.11476 0.957874 -9.28598e-19)
(1.11163 0.920701 -3.27252e-19)
(1.11288 0.991367 3.34274e-19)
(1.19193 0.764408 -3.40552e-18)
(1.19613 0.845304 8.69519e-19)
(1.22467 0.835001 0)
(1.23313 0.752792 -1.26622e-18)
(1.35879 0.358911 1.16446e-18)
(1.42571 0.328325 2.10112e-18)
(1.43902 0.31811 2.00075e-18)
(1.35483 0.440629 -2.27913e-18)
(1.36043 0.448065 0)
(1.37328 0.410751 0)
(1.12702 0.413554 -2.14234e-20)
(0.816429 0.223706 0)
(0.920475 0.245215 1.71725e-18)
(1.09509 0.29827 -2.82496e-20)
(1.25958 0.516272 1.00676e-17)
(1.1843 0.586913 2.56077e-18)
(1.16374 0.515109 -2.51523e-18)
(1.02733 0.45783 2.69211e-18)
(0.936858 0.454747 1.50618e-18)
(0.794152 0.384044 -1.45788e-18)
(1.22375 -0.0262387 3.56749e-18)
(1.32223 -0.0101363 0)
(1.3063 -0.0236558 2.38896e-18)
(1.25844 -0.0178364 -5.34218e-18)
(1.35189 0.0115304 2.61755e-18)
(1.32245 0.0357191 -5.48105e-18)
(1.25582 0.0408005 0)
(1.18083 0.0525961 -1.11469e-18)
(1.29217 0.0409541 2.84975e-18)
(1.24283 0.0628345 -1.46274e-18)
(1.20067 0.0535027 1.05033e-18)
(-0.0405373 1.3251 0)
(-0.0280946 1.73266 0)
(-0.0203537 1.24898 0)
(-0.0119531 0.996992 0)
(0.0138833 1.96911 1.29466e-18)
(0.0645372 1.81528 -3.46742e-19)
(0.112448 2.36499 -4.57305e-19)
(0.0868614 2.19134 4.56755e-19)
(-0.0371743 2.19312 -9.74029e-19)
(-0.0200285 2.19912 7.33881e-19)
(0.0301162 1.93459 3.1633e-20)
(0.00744713 1.80065 -8.71712e-19)
(-0.0045111 1.65891 -1.17786e-19)
(-0.0249707 1.85934 -1.09784e-19)
(0.0376472 2.48431 -1.18474e-18)
(0.0595139 2.43617 0)
(0.0889264 2.53412 5.82024e-19)
(0.094545 2.50959 5.18638e-19)
(0.235535 2.45822 -4.7441e-19)
(0.226848 2.3143 0)
(0.235656 2.24144 -2.35678e-18)
(0.295348 2.40955 1.68904e-18)
(0.196891 2.49149 -1.23985e-18)
(0.138508 2.49644 6.76973e-19)
(0.127724 2.47958 0)
(-0.0503677 2.5598 -1.09443e-18)
(-0.0690794 2.5294 -1.26868e-18)
(-0.0758293 2.57435 0)
(-0.0498229 2.44295 -1.67279e-20)
(-0.0438983 2.54746 5.44346e-19)
(-0.0699498 2.01464 8.59849e-20)
(-0.0397332 1.80427 -1.22436e-18)
(-0.063128 2.03834 3.22697e-19)
(-0.0927329 2.35526 4.38519e-19)
(-0.0584864 2.24005 0)
(-0.0505661 2.01568 0)
(-0.0524739 1.52 3.73597e-19)
(-0.0418723 1.89771 -1.13595e-19)
(-0.0496442 1.89365 0)
(-0.0455392 1.39747 2.96072e-19)
(-0.0247832 1.13183 -5.70425e-19)
(1.25554 0.0107466 0)
(1.24469 0.00322577 -3.67191e-19)
(1.41176 0.0203402 -2.61177e-18)
(1.37677 0.0141226 0)
(1.29398 0.00377034 0)
(1.40449 0.00995865 -1.40773e-20)
(1.38702 0.0090522 4.35507e-18)
(1.3506 0.0241606 5.159e-18)
(1.26021 0.0361254 0)
(1.18453 0.0328517 0)
(1.35255 0.0270447 2.60794e-18)
(1.24164 0.0352774 0)
(1.15409 0.0383618 0)
(-0.0806586 2.53093 0)
(-0.0939453 2.50032 2.13546e-20)
(-0.0775055 2.5332 1.15342e-19)
(-0.0505988 2.00348 0)
(-0.0956579 2.41359 2.10595e-19)
(-0.0747633 2.2373 -1.20773e-19)
(-0.0564205 2.07808 0)
(0.635179 2.49982 0)
(0.458192 2.33739 -2.5707e-18)
(0.492648 2.47246 0)
(0.590366 2.16006 2.99834e-18)
(0.569352 1.74366 0)
(0.550911 1.96302 -1.25936e-18)
(0.694774 1.83948 -5.55599e-20)
(0.443111 1.17622 -3.09503e-18)
(0.390161 0.801082 3.45202e-18)
(0.470016 1.23878 7.49318e-19)
(0.687295 1.84059 0)
(0.714383 1.8821 0)
(0.44066 1.12664 0)
(0.30804 0.793844 -2.59173e-18)
(0.642306 2.47801 -1.95332e-18)
(0.711706 2.21004 -4.60579e-19)
(0.757285 2.4115 3.61137e-19)
(0.386906 1.31671 0)
(0.407015 1.24894 0)
(0.29349 0.966256 -8.08536e-19)
(0.628247 1.93895 0)
(0.725643 1.44959 0)
(0.542983 1.41225 -2.9415e-18)
(0.635858 1.12008 -1.80952e-19)
(0.660467 1.70688 0)
(0.628918 1.83607 4.4618e-18)
(0.984831 1.08232 -8.82567e-19)
(0.953016 1.22441 0)
(0.951105 1.15181 1.49913e-18)
(0.757787 1.2663 0)
(0.753592 1.18554 0)
(0.922745 2.25734 -1.09393e-18)
(0.994211 2.74709 -9.82771e-19)
(0.952366 2.75299 1.96016e-18)
(0.95573 2.69144 -5.75215e-19)
(0.790463 1.82001 0)
(0.838594 2.04193 7.80467e-19)
(0.515948 1.04242 -9.32699e-19)
(0.382224 0.745506 -2.13614e-20)
(0.840376 2.52156 0)
(0.717929 2.14185 -1.00387e-18)
(0.740282 1.98589 0)
(0.766629 0.17374 0)
(0.551931 0.115136 0)
(0.418947 0.0942561 0)
(0.747785 0.184437 -2.65707e-18)
(0.558869 0.136633 1.4684e-18)
(0.719751 0.0415149 -1.77028e-18)
(0.885804 0.0957162 0)
(0.826465 0.0958086 7.39873e-19)
(0.594713 0.0454092 2.91227e-18)
(0.514475 0.027169 -1.8471e-18)
(0.631185 3.05666 3.21708e-19)
(0.725371 3.23683 0)
(0.454733 3.07568 7.39456e-19)
(0.328839 3.54355 -6.17959e-19)
(0.400734 3.46403 -1.34886e-18)
(0.446038 1.21689 2.76202e-18)
(0.434925 1.6102 0)
(0.350781 0.520198 -5.44781e-19)
(0.505542 0.587923 3.62567e-18)
(0.532398 0.260341 -7.59791e-19)
(0.612916 0.318884 8.4604e-19)
(0.733671 0.446267 1.86235e-18)
(0.823421 0.519421 0)
(0.728646 0.502909 0)
(0.706193 0.427515 0)
(1.29559 0.70558 9.08614e-19)
(1.24638 0.629931 -2.48298e-18)
(1.25349 0.684591 2.15045e-18)
(1.29496 0.595228 -2.00791e-18)
(1.37699 0.562998 0)
(1.35741 0.623869 -6.4604e-19)
(0.968742 0.389168 -3.50797e-18)
(1.0106 0.386241 -4.54019e-18)
(0.800282 0.350585 2.67759e-18)
(0.729121 0.312235 -2.57773e-18)
(0.841974 0.283396 -2.1579e-18)
(0.74248 0.26261 2.63464e-18)
(1.35999 0.0101605 -2.76363e-18)
(1.37481 0.0122137 5.4594e-18)
(1.26364 -0.0206062 3.342e-18)
(1.26975 -0.0230477 -3.94824e-18)
(1.32871 0.00322217 0)
(1.37081 0.00664444 -6.6778e-18)
(0.00721273 2.53108 2.15237e-19)
(-0.00586217 2.48147 0)
(0.0570322 2.51321 1.88446e-18)
(0.0648965 2.5115 -1.70583e-18)
(0.0743746 2.42521 8.54303e-19)
(0.0294362 2.39376 0)
(-0.0895895 2.5562 0)
(-0.0876829 2.32376 -1.18175e-19)
(-0.0858186 2.28434 1.05739e-19)
(-0.0911785 2.37861 1.32915e-20)
(-0.0898283 2.53746 -1.8416e-19)
(-0.0798731 2.53032 9.96359e-20)
(0.760599 2.39925 -3.05659e-18)
(0.740022 2.41773 3.26229e-18)
(0.607816 2.15739 -1.70068e-18)
(0.696111 2.44589 1.44915e-19)
(0.698418 1.66581 0)
(0.634117 1.78867 -1.45065e-18)
(0.664959 1.63753 1.42529e-18)
(0.62135 1.92969 1.69318e-18)
(0.704565 2.05153 0)
(0.717583 1.9104 0)
(0.613967 2.40301 2.9213e-18)
(0.537074 1.93674 4.23514e-18)
(0.591733 2.06335 -2.96692e-18)
(0.505031 2.00671 -4.94918e-19)
(0.510589 2.43043 9.82512e-19)
(0.442696 2.23614 -2.41855e-18)
(0.523335 1.06924 -1.94485e-18)
(0.51693 0.975114 0)
(0.388984 0.738157 -1.94746e-18)
(0.798443 1.82502 0)
(0.786833 1.83611 0)
(0.402924 3.02111 -1.552e-18)
(0.660585 3.36745 -9.24702e-19)
(0.491911 3.44572 1.44737e-18)
(0.139649 1.52945 0)
(0.192844 1.11562 -1.26932e-18)
(0.357315 1.51318 -1.74563e-18)
(0.306396 2.78118 0)
(0.196738 3.32491 9.6688e-19)
(0.0413456 3.18659 0)
(0.895974 0.724155 -3.74646e-18)
(1.04199 0.816823 5.33863e-18)
(1.05189 0.71575 -5.30129e-18)
(0.830171 0.619855 -4.49543e-19)
(0.892099 0.609929 -1.88583e-18)
(0.708222 3.29115 7.60991e-19)
(0.849021 3.19151 -1.52106e-18)
(0.571485 3.01622 3.2854e-18)
(0.545677 2.67793 -2.29994e-18)
(0.835747 2.81485 -2.33948e-18)
(0.858009 3.08917 -3.29435e-19)
(0.920978 2.99134 1.77889e-18)
(0.689728 2.82592 1.4923e-19)
(0.676585 2.62956 1.00523e-18)
)
;

boundaryField
{
    wall-4
    {
        type            noSlip;
    }
    velocity-inlet-5
    {
        type            fixedValue;
        value           uniform (1 0 0);
    }
    velocity-inlet-6
    {
        type            fixedValue;
        value           uniform (0 3 0);
    }
    pressure-outlet-7
    {
        type            zeroGradient;
    }
    wall-8
    {
        type            noSlip;
    }
    frontAndBackPlanes
    {
        type            empty;
    }
}


// ************************************************************************* //
