/*--------------------------------*- C++ -*----------------------------------*\
  =========                 |
  \\      /  F ield         | OpenFOAM: The Open Source CFD Toolbox
   \\    /   O peration     | Website:  https://openfoam.org
    \\  /    A nd           | Version:  7
     \\/     M anipulation  |
\*---------------------------------------------------------------------------*/
FoamFile
{
    version     2.0;
    format      ascii;
    class       volScalarField;
    location    "0.106";
    object      k_0;
}
// * * * * * * * * * * * * * * * * * * * * * * * * * * * * * * * * * * * * * //

dimensions      [0 2 -2 0 0 0 0];

internalField   nonuniform List<scalar> 
12225
(
1.93668e-05
1.80105e-05
1.67717e-05
1.52428e-05
1.39439e-05
1.28044e-05
1.12908e-05
1.00368e-05
8.62809e-06
7.18695e-06
6.26165e-06
5.29583e-06
4.26522e-06
3.69671e-06
3.71877e-06
1.3954e-05
1.22696e-05
2.31814e-05
1.99822e-05
1.98736e-05
1.9681e-05
1.94315e-05
1.90443e-05
1.87868e-05
1.83486e-05
1.79202e-05
1.72616e-05
1.67577e-05
1.60651e-05
1.56128e-05
1.48369e-05
1.4463e-05
1.36574e-05
1.46312e-05
1.53192e-05
1.62595e-05
1.99994e-05
1.92995e-05
1.91841e-05
1.91273e-05
1.89622e-05
1.88617e-05
1.88206e-05
1.87938e-05
1.87237e-05
1.86351e-05
1.84311e-05
1.82916e-05
1.79985e-05
1.78382e-05
1.74842e-05
1.74057e-05
1.74252e-05
1.74378e-05
2.01011e-05
1.99937e-05
1.95502e-05
1.72617e-05
1.43907e-05
1.44949e-05
1.51388e-05
1.63071e-05
1.70592e-05
1.74127e-05
1.74981e-05
1.74919e-05
1.73925e-05
1.72113e-05
1.7068e-05
1.7016e-05
1.70198e-05
1.70348e-05
2.01206e-05
2.10732e-05
2.22042e-05
2.19079e-05
2.05337e-05
1.94505e-05
1.92693e-05
1.93396e-05
1.94939e-05
1.95265e-05
1.94989e-05
1.93112e-05
1.86244e-05
1.76897e-05
1.69371e-05
1.64319e-05
1.61792e-05
1.60933e-05
2.02631e-05
2.1135e-05
2.4989e-05
3.36975e-05
3.50854e-05
3.30136e-05
2.73197e-05
2.44374e-05
2.33442e-05
2.28901e-05
2.26325e-05
2.23194e-05
2.16421e-05
2.03555e-05
1.92111e-05
1.83447e-05
1.79978e-05
1.75942e-05
2.04066e-05
2.11028e-05
2.26635e-05
2.80757e-05
3.17342e-05
3.15403e-05
2.88783e-05
2.48744e-05
2.3062e-05
2.24217e-05
2.22372e-05
2.21026e-05
2.19032e-05
2.16984e-05
2.1602e-05
2.14329e-05
2.12765e-05
2.0945e-05
2.20855e-05
2.40673e-05
2.59898e-05
3.06206e-05
3.20423e-05
3.11992e-05
2.71404e-05
2.41788e-05
2.3325e-05
2.32378e-05
2.34148e-05
2.36358e-05
2.37014e-05
2.36849e-05
2.35322e-05
2.29607e-05
2.2309e-05
2.18405e-05
2.09071e-05
2.10101e-05
2.16648e-05
2.34632e-05
2.38493e-05
2.32135e-05
2.22378e-05
2.21075e-05
2.21492e-05
2.24987e-05
2.3198e-05
2.36075e-05
2.37219e-05
2.36912e-05
2.34488e-05
2.27675e-05
2.22077e-05
2.1811e-05
2.02035e-05
2.11192e-05
2.25936e-05
2.28671e-05
2.22395e-05
2.13525e-05
2.11546e-05
2.11858e-05
2.14822e-05
2.2415e-05
2.32531e-05
2.37262e-05
2.38965e-05
2.38871e-05
2.36547e-05
2.29118e-05
2.23207e-05
2.19047e-05
2.03168e-05
2.19459e-05
2.22015e-05
2.20029e-05
2.15216e-05
2.11191e-05
2.10013e-05
2.10382e-05
2.14272e-05
2.25897e-05
2.33685e-05
2.36393e-05
2.36672e-05
2.36182e-05
2.34642e-05
2.33102e-05
2.32317e-05
2.31194e-05
2.07427e-05
2.14527e-05
2.14791e-05
2.118e-05
2.08098e-05
2.06254e-05
2.05845e-05
2.06135e-05
2.07973e-05
2.15167e-05
2.23113e-05
2.27204e-05
2.29722e-05
2.32295e-05
2.34579e-05
2.36008e-05
2.36553e-05
2.36344e-05
2.11193e-05
2.20691e-05
2.18165e-05
2.11541e-05
2.09211e-05
2.08936e-05
2.09736e-05
2.10336e-05
2.10405e-05
2.10896e-05
2.12385e-05
2.15668e-05
2.22802e-05
2.39497e-05
2.59017e-05
2.75078e-05
2.86483e-05
2.89431e-05
2.05895e-05
2.11119e-05
2.10538e-05
2.07564e-05
2.06429e-05
2.06808e-05
2.07807e-05
2.07381e-05
2.05853e-05
2.05701e-05
2.06302e-05
2.0868e-05
2.14595e-05
2.28967e-05
2.53174e-05
2.76671e-05
2.9568e-05
3.07006e-05
2.02974e-05
2.19413e-05
2.24258e-05
2.22196e-05
2.11993e-05
2.05229e-05
2.024e-05
2.01592e-05
2.01641e-05
2.02033e-05
2.02844e-05
2.04502e-05
2.08563e-05
2.20274e-05
2.54623e-05
2.90431e-05
3.09153e-05
3.1463e-05
2.0757e-05
2.1193e-05
2.13286e-05
2.12006e-05
2.0716e-05
2.04351e-05
2.03649e-05
2.03614e-05
2.03692e-05
2.03725e-05
2.03773e-05
2.03986e-05
2.04873e-05
2.08371e-05
2.20743e-05
2.34613e-05
2.41692e-05
2.44843e-05
2.04047e-05
2.04297e-05
2.04049e-05
2.03569e-05
2.03498e-05
2.03925e-05
2.06404e-05
2.11032e-05
2.13158e-05
2.13487e-05
2.1315e-05
2.11132e-05
2.08395e-05
2.07456e-05
2.07426e-05
2.07659e-05
2.0789e-05
2.08246e-05
2.04382e-05
2.03012e-05
2.02085e-05
2.02337e-05
2.03342e-05
2.03935e-05
2.04531e-05
2.05968e-05
2.08533e-05
2.10344e-05
2.11119e-05
2.11241e-05
2.11141e-05
2.10488e-05
2.08909e-05
2.07691e-05
2.06692e-05
2.05958e-05
2.03672e-05
2.05475e-05
2.06618e-05
2.06718e-05
2.06432e-05
2.0617e-05
2.06235e-05
2.06421e-05
2.06803e-05
2.07815e-05
2.08434e-05
2.08634e-05
2.08714e-05
2.08933e-05
2.10438e-05
2.1743e-05
2.23918e-05
2.25233e-05
2.02006e-05
2.04844e-05
2.05935e-05
2.06259e-05
2.0675e-05
2.08499e-05
2.11378e-05
2.11681e-05
2.10386e-05
2.09972e-05
2.10476e-05
2.10829e-05
2.10944e-05
2.11233e-05
2.12983e-05
2.16943e-05
2.18474e-05
2.1839e-05
2.05379e-05
2.04967e-05
2.04037e-05
2.04398e-05
2.05728e-05
2.06281e-05
2.06343e-05
2.059e-05
2.05276e-05
2.05315e-05
2.06014e-05
2.08654e-05
2.11293e-05
2.12685e-05
2.13253e-05
2.13376e-05
2.13292e-05
2.12681e-05
2.0603e-05
2.08617e-05
2.08602e-05
2.06959e-05
2.04379e-05
2.02534e-05
2.01316e-05
2.00865e-05
2.00847e-05
2.01039e-05
2.01969e-05
2.042e-05
2.05864e-05
2.06896e-05
2.07438e-05
2.07638e-05
2.07674e-05
2.07625e-05
2.09705e-05
2.08692e-05
2.05961e-05
2.04508e-05
2.03747e-05
2.02096e-05
2.0141e-05
2.01054e-05
2.00768e-05
2.00802e-05
2.01179e-05
2.02076e-05
2.02721e-05
2.03056e-05
2.03247e-05
2.0355e-05
2.03996e-05
2.04569e-05
2.06039e-05
2.07189e-05
2.06927e-05
2.0613e-05
2.05204e-05
2.04964e-05
2.04649e-05
2.03579e-05
2.01986e-05
2.01357e-05
2.01193e-05
2.01194e-05
2.01321e-05
2.01895e-05
2.02729e-05
2.03249e-05
2.03531e-05
2.03678e-05
2.01775e-05
2.04257e-05
2.05546e-05
2.05967e-05
2.05609e-05
2.05153e-05
2.04975e-05
2.04035e-05
2.02242e-05
2.0153e-05
2.01343e-05
2.01355e-05
2.01642e-05
2.03377e-05
2.07397e-05
2.09695e-05
2.1066e-05
2.10983e-05
2.01921e-05
2.04539e-05
2.04798e-05
2.04756e-05
2.06793e-05
2.16771e-05
2.24859e-05
2.232e-05
2.13312e-05
2.06185e-05
2.0342e-05
2.02135e-05
2.01456e-05
2.0131e-05
2.01453e-05
2.01899e-05
2.0212e-05
2.02338e-05
2.04194e-05
2.04658e-05
2.0354e-05
2.00649e-05
1.99296e-05
1.99027e-05
1.98516e-05
1.97545e-05
1.9765e-05
1.98522e-05
1.98343e-05
1.94393e-05
1.78167e-05
1.62573e-05
1.57236e-05
1.56702e-05
1.57637e-05
1.61126e-05
2.03802e-05
1.81975e-05
1.44917e-05
1.51197e-05
1.66212e-05
1.96669e-05
2.28998e-05
2.64625e-05
3.34747e-05
4.49043e-05
5.50614e-05
6.10739e-05
6.33718e-05
6.37999e-05
6.38339e-05
6.40551e-05
6.521e-05
6.85305e-05
3.35033e-05
0.000144068
0.000213942
0.000242143
0.00027132
0.000301844
0.000342924
0.00039609
0.000449263
0.000490351
0.000514503
0.000525683
0.00053094
0.000535289
0.000541998
0.000554525
0.000584198
0.000638032
0.00288156
0.00286871
0.00283032
0.00265786
0.00242126
0.00230895
0.00224519
0.00213483
0.00191023
0.00168334
0.0015235
0.00144117
0.00141435
0.00141296
0.00142634
0.0014571
0.00146984
0.00147112
0.0069222
0.0102451
0.0107815
0.0106484
0.0110543
0.0111775
0.0113846
0.0120529
0.012711
0.0124859
0.0113873
0.00780669
0.00506695
0.0048059
0.00597921
0.00700218
0.00702871
0.00672473
0.00659237
0.00668393
0.00693334
0.00754667
0.00929657
0.0147667
0.0196093
0.0213647
0.02455
0.0350682
0.0420499
0.0373099
0.0212937
0.0134014
0.00976344
0.00850246
0.00830678
0.00854062
0.00862593
0.00871206
0.00875983
0.00864312
0.00843365
0.00806646
0.00770691
0.00736681
0.00699951
0.00675434
0.006559
0.00645114
0.00640937
0.00639939
0.00637171
0.00636726
0.00637754
0.0064109
0.00646018
0.00653138
0.00660171
0.00669791
0.0068046
0.00692919
0.00706986
0.00723139
0.0074729
0.00778645
0.00822357
0.00889978
0.00957461
0.00967408
0.00949522
0.00962129
0.00940939
0.0127778
0.0262878
0.0305221
0.0189122
0.015152
0.0141711
0.0136567
0.0133566
0.0132661
0.0129326
0.0127243
0.0126321
0.0126567
0.0127863
0.01308
0.0142015
0.0164782
0.0169723
0.0188892
0.0386391
0.13283
0.197796
0.208733
0.183507
0.0904893
0.0200057
0.00413552
0.0023793
0.00207684
0.00201676
0.00191961
0.00178049
0.0015892
0.00138185
0.00125698
0.00112285
0.00099599
0.000932272
0.000877282
0.000856905
0.000854994
0.000855072
0.000848188
0.000841691
0.000829322
0.000812968
0.000796979
0.000775651
0.000761564
0.000748935
0.000731721
0.000714655
0.000699911
0.000685453
0.000665785
0.000645758
0.000626781
0.000609304
0.000591362
0.000571627
0.000548375
0.000524832
0.000501628
0.000478789
0.000456361
0.000434548
0.000413336
0.000392294
0.000371084
0.000350194
0.000329413
0.000306984
0.000282667
0.000259429
0.000237875
0.000213284
0.000187523
0.000165076
0.000137762
0.000111994
9.69793e-05
7.40381e-05
4.42675e-05
2.30054e-05
1.11803e-05
6.05114e-06
4.43694e-06
4.28363e-06
4.43328e-06
4.57715e-06
4.57729e-06
4.41941e-06
4.102e-06
3.66713e-06
3.21111e-06
2.74305e-06
2.35902e-06
1.88404e-06
1.64275e-06
1.5431e-06
1.80626e-06
1.95944e-06
2.43315e-06
2.31799e-06
2.72192e-06
3.1407e-06
3.98371e-06
1.51592e-05
1.20757e-05
0.00637391
0.00967694
0.0118632
0.0129784
0.0135428
0.0127161
0.011242
0.0115297
0.0118227
0.0119967
0.0120197
0.0120104
0.0118198
0.0109246
0.00905419
0.00693006
0.00523729
0.00513374
0.00589831
0.00810971
0.00988048
0.0135095
0.0195583
0.0254967
0.0292086
0.0308477
0.03126
0.0307154
0.0239199
0.0161023
0.0113891
0.00919224
0.00765935
0.00687066
0.0064016
0.0060638
0.00551209
0.00514858
0.00471488
0.00427742
0.00389882
0.00348601
0.00314734
0.00283975
0.0025444
0.00232354
0.0021081
0.00195006
0.00183893
0.00174663
0.00170424
0.00168425
0.00167679
0.0016833
0.00172499
0.00177269
0.00186579
0.00198489
0.00214659
0.00237563
0.0026924
0.00313617
0.00374022
0.00458479
0.0057394
0.00723669
0.00862544
0.00948688
0.0102051
0.0104567
0.010437
0.0112329
0.0177325
0.024755
0.0270046
0.0284593
0.0280468
0.0213929
0.0175534
0.0172748
0.0168706
0.0157787
0.0145703
0.013705
0.0136384
0.014025
0.0159233
0.0219407
0.0227773
0.0226253
0.0285925
0.0516066
0.103303
0.14176
0.102619
0.030635
0.00701915
0.00257447
0.00183723
0.00167438
0.00161704
0.0015665
0.00152895
0.00149264
0.00146626
0.00144829
0.00142159
0.00139514
0.00138054
0.00136507
0.00134411
0.00132192
0.00130524
0.00128898
0.00127109
0.0012542
0.00123075
0.00120838
0.00118332
0.00115549
0.0011228
0.0010844
0.00104306
0.000999861
0.000957368
0.000916266
0.000886601
0.000854122
0.000833273
0.000818817
0.000806635
0.000792351
0.000778616
0.000766295
0.000754637
0.000742055
0.000728468
0.000714398
0.000700272
0.00068676
0.000673816
0.000661368
0.00064755
0.000629796
0.000608599
0.000581652
0.000543827
0.000500119
0.000453289
0.000400616
0.000346018
0.00029326
0.000254192
0.000222267
0.000179726
0.000133452
9.79937e-05
7.73494e-05
6.5112e-05
5.61463e-05
4.92433e-05
4.47861e-05
4.18287e-05
4.02167e-05
3.7324e-05
3.38447e-05
2.95619e-05
2.60536e-05
2.20697e-05
1.90425e-05
1.56122e-05
1.37193e-05
1.18275e-05
1.09689e-05
9.74083e-06
8.48511e-06
7.91161e-06
6.6207e-06
7.98615e-06
7.11548e-06
0.00470443
0.00685527
0.0104117
0.0154365
0.0163043
0.0151399
0.0118726
0.0090238
0.00832642
0.0083535
0.00857254
0.00904545
0.00937813
0.00936935
0.00922754
0.00870512
0.00729608
0.00794554
0.0112147
0.0147326
0.0175173
0.019722
0.0213757
0.0228071
0.0227512
0.0201855
0.0164427
0.0112076
0.00844589
0.0061865
0.00509215
0.00426586
0.00360751
0.00302986
0.00265502
0.00225597
0.00189776
0.00165726
0.00139225
0.00118253
0.00100925
0.00086919
0.000739876
0.000668687
0.000593457
0.000557586
0.000524661
0.000509772
0.000504129
0.000508458
0.000521867
0.000527101
0.000528326
0.000520745
0.000504922
0.000491711
0.000479232
0.000475721
0.000481469
0.00051717
0.000573275
0.000661231
0.000825309
0.00110866
0.00163121
0.00256766
0.00432221
0.00692862
0.0094288
0.011024
0.012091
0.0135693
0.0144784
0.0140688
0.0138717
0.0150382
0.0178644
0.0199066
0.0210609
0.0222462
0.0236519
0.023807
0.0218724
0.0178477
0.0151821
0.015065
0.018113
0.0278645
0.0299712
0.0288227
0.0311789
0.0539033
0.08979
0.0668224
0.0247537
0.00685846
0.00251172
0.00178235
0.00164757
0.00160233
0.00154455
0.00145448
0.00134844
0.00126683
0.00119698
0.0011174
0.00103883
0.000970984
0.000916398
0.000886812
0.000874906
0.000894562
0.000958768
0.00104242
0.00111677
0.00117318
0.00120412
0.00121995
0.00122538
0.0012158
0.00119325
0.00115813
0.00110945
0.00105161
0.000986808
0.000922877
0.000864974
0.000798787
0.00073932
0.000682002
0.000636469
0.000608102
0.000598259
0.00060034
0.000610594
0.000622844
0.000630481
0.000636172
0.000641233
0.000646034
0.000650159
0.000655517
0.000661447
0.000666644
0.000670255
0.000671402
0.000668037
0.000647872
0.000603851
0.000567269
0.00052802
0.000466022
0.000386909
0.000312285
0.000254004
0.000209131
0.000169234
0.000136369
0.0001148
0.000105475
0.000103341
0.00010233
9.87844e-05
9.20325e-05
8.50012e-05
7.83355e-05
7.19299e-05
6.55783e-05
5.96882e-05
5.38794e-05
4.8861e-05
4.37508e-05
3.98871e-05
3.52775e-05
3.2292e-05
2.74549e-05
2.49248e-05
1.9723e-05
1.75373e-05
1.27681e-05
0.00712907
0.00776998
0.012308
0.0177797
0.0167778
0.0134203
0.00908848
0.00718758
0.00716727
0.00744057
0.00800269
0.00851247
0.00891802
0.00900196
0.00901181
0.00855434
0.0080419
0.0111091
0.0130922
0.0138485
0.014834
0.0149405
0.0141592
0.0129077
0.0111669
0.0088129
0.00654566
0.00451939
0.00351175
0.00278793
0.00226391
0.00180734
0.00154455
0.00124488
0.00109523
0.000890757
0.000793666
0.000704186
0.000638151
0.000604308
0.000584925
0.000576679
0.000574531
0.000583476
0.000593504
0.00061402
0.000638374
0.000662898
0.000675597
0.000680765
0.000681676
0.00067366
0.000643834
0.000602894
0.000561517
0.000507731
0.000450456
0.000409316
0.00038246
0.000368163
0.000349055
0.000338601
0.000334954
0.000346294
0.000417571
0.000573173
0.000919858
0.00169097
0.00329994
0.00644608
0.00932007
0.0107399
0.0108893
0.00979843
0.00953592
0.00965304
0.0101782
0.0109688
0.0115591
0.0124828
0.0141355
0.0169191
0.0183713
0.0181137
0.0157102
0.0151653
0.0201202
0.0317202
0.0332425
0.0316778
0.0360836
0.0646658
0.0570002
0.0229313
0.00706237
0.00260761
0.00179724
0.0017062
0.00168628
0.00167666
0.00164577
0.00157904
0.00150578
0.0014605
0.00139683
0.00137305
0.00136741
0.00136892
0.00138532
0.00140932
0.00142628
0.00144429
0.00145468
0.00146404
0.00147016
0.00147396
0.00147533
0.00146987
0.001464
0.00145446
0.00143545
0.00140875
0.00136057
0.00129522
0.00120796
0.00110829
0.00100463
0.000887652
0.000774105
0.000671566
0.000583019
0.000509104
0.000448321
0.000400066
0.000369275
0.000356783
0.000356449
0.000361576
0.000370217
0.000380317
0.000395454
0.0004155
0.000442652
0.000473027
0.000504863
0.000543384
0.000595304
0.000648618
0.000676453
0.000677293
0.000649274
0.000569652
0.000527729
0.000488436
0.000397995
0.000301025
0.000240935
0.000206767
0.000181038
0.000160645
0.000145225
0.000133857
0.000127167
0.000124689
0.000123534
0.000121231
0.000115304
0.000105884
9.55204e-05
8.50315e-05
7.53272e-05
6.63609e-05
5.90462e-05
5.21212e-05
4.72965e-05
4.14814e-05
3.82845e-05
3.26085e-05
2.97782e-05
2.3747e-05
0.0123848
0.0208737
0.0237648
0.0198958
0.0113516
0.00668879
0.00589318
0.00617442
0.0067789
0.00804796
0.00886554
0.00928632
0.00926084
0.00912037
0.00899355
0.00811088
0.010414
0.0114154
0.0101417
0.0093277
0.00899505
0.00834996
0.00793666
0.00697485
0.0056438
0.00416782
0.00290722
0.00210684
0.00165154
0.00134955
0.00108591
0.000885633
0.000785779
0.000682162
0.000634712
0.000594297
0.000580162
0.000574973
0.000575061
0.000590442
0.000603318
0.000634568
0.000674688
0.000728831
0.00078566
0.000852151
0.000892697
0.000919671
0.000941948
0.000954675
0.000959558
0.00095836
0.000930519
0.000877164
0.000804612
0.000704229
0.000605238
0.000522056
0.000462474
0.000429449
0.000381328
0.000343688
0.00031852
0.00028832
0.000273075
0.000265254
0.00026378
0.000298647
0.000408339
0.00063113
0.00101997
0.00153179
0.00183239
0.00202283
0.00280675
0.00428004
0.00645261
0.00822138
0.00938143
0.0110845
0.0122241
0.0133702
0.0145692
0.0150342
0.0142306
0.0146976
0.0236376
0.0354206
0.0349766
0.0347232
0.0503689
0.059212
0.0256681
0.00826639
0.00292174
0.00185978
0.00176217
0.00181588
0.00186801
0.00187722
0.00182781
0.00169913
0.00160608
0.00151236
0.00146031
0.00144904
0.00144742
0.00145927
0.0014922
0.00153651
0.00158176
0.00162732
0.00167729
0.00172016
0.00174881
0.00177593
0.00179879
0.00181948
0.00183504
0.0018572
0.00187466
0.00188313
0.00188338
0.00185926
0.00180278
0.00170058
0.00155257
0.00136453
0.00114432
0.000920934
0.000723195
0.000569412
0.000460349
0.000385547
0.000331864
0.000292818
0.000271098
0.00026395
0.000262309
0.000262291
0.000262902
0.000265938
0.000275081
0.000298515
0.000342321
0.000375939
0.000398129
0.000434787
0.000520277
0.000616314
0.000659646
0.000663901
0.000660411
0.000645522
0.000599805
0.000487208
0.000378832
0.00030442
0.000259064
0.000230399
0.000206217
0.000183788
0.000165805
0.000153743
0.000147005
0.000144101
0.000142678
0.000140431
0.000135075
0.000122405
0.000107878
9.3521e-05
8.16183e-05
7.02411e-05
6.19442e-05
5.32742e-05
4.80561e-05
4.24645e-05
3.98867e-05
3.43421e-05
0.0110456
0.0155628
0.00973819
0.00541876
0.00453125
0.00479105
0.00558508
0.00738615
0.00919999
0.0109969
0.0116408
0.0113213
0.009987
0.00918092
0.00875775
0.00847987
0.0102735
0.00930176
0.00676674
0.00604215
0.00557686
0.00516433
0.00483053
0.00403217
0.0030924
0.00213355
0.00148412
0.0011782
0.000969326
0.000827136
0.000703783
0.000635251
0.000604619
0.000587989
0.000583121
0.000582544
0.000593242
0.000617457
0.000658021
0.000720817
0.000793781
0.000884267
0.000973605
0.00106277
0.0011422
0.00120697
0.00126511
0.00132846
0.00138765
0.00143989
0.00147546
0.00148792
0.00148721
0.00143294
0.0013308
0.00119859
0.00104584
0.000898414
0.000772397
0.000660305
0.000552878
0.000486879
0.000417164
0.000356172
0.000314895
0.000269673
0.000248422
0.000218639
0.00020645
0.000202619
0.000209801
0.000229105
0.000252352
0.000312028
0.000461062
0.000800252
0.00156357
0.0032114
0.00550062
0.00885015
0.0115507
0.0127802
0.0143424
0.0148685
0.0138219
0.0151137
0.0274024
0.0392986
0.0385892
0.0428747
0.0537962
0.034635
0.0109849
0.00363097
0.0019819
0.00178833
0.00191861
0.00208409
0.00211297
0.00209453
0.00195995
0.00177957
0.00164481
0.0015452
0.00152055
0.00152317
0.00157194
0.00167472
0.00181689
0.00197879
0.00214203
0.00229492
0.00240197
0.00245072
0.00247465
0.00248439
0.00248944
0.00249171
0.00248816
0.00249611
0.00251341
0.00254126
0.00257296
0.00259883
0.00261657
0.00259196
0.00247084
0.00226762
0.00196989
0.00159608
0.00120288
0.000861734
0.000611724
0.000448525
0.000348719
0.000288095
0.000249088
0.000225398
0.000216767
0.000215947
0.000218489
0.000228235
0.000248565
0.000278712
0.000333082
0.000385244
0.00040952
0.000414822
0.000418574
0.000435574
0.000516762
0.000598374
0.000646388
0.000705357
0.000721005
0.000700724
0.000598982
0.000447937
0.000357349
0.000304695
0.000268862
0.000238679
0.000212395
0.00019115
0.000175485
0.000165137
0.000159423
0.000156788
0.000155023
0.000151772
0.000144147
0.000130099
0.00011628
0.000101783
9.00665e-05
7.76491e-05
6.83743e-05
5.8837e-05
5.49487e-05
4.79856e-05
0.00727535
0.00647351
0.00415669
0.00376505
0.00427217
0.00625113
0.00816408
0.00978979
0.0109373
0.0121267
0.0125775
0.0122229
0.0102341
0.00903138
0.00852406
0.00900893
0.00930848
0.00625992
0.00461729
0.00401901
0.00361352
0.00339263
0.0030791
0.00248266
0.00184915
0.00126936
0.00100166
0.000873336
0.000788176
0.00070946
0.000647927
0.00062377
0.000614951
0.000614851
0.000641363
0.000683575
0.000757114
0.000856704
0.000986282
0.00114188
0.00130984
0.00146383
0.00160904
0.00173429
0.00184847
0.00195524
0.00206154
0.00216949
0.0022661
0.00236562
0.00244628
0.0024784
0.00248476
0.00244967
0.0023637
0.00224598
0.00205625
0.00185107
0.00163161
0.00137046
0.00111983
0.000924331
0.000743801
0.000598601
0.000496646
0.00039303
0.00034322
0.000282115
0.00024191
0.000212333
0.000194171
0.000179684
0.000158048
0.000142385
0.000142798
0.000183335
0.000314641
0.000647641
0.00133749
0.00324392
0.00883011
0.0120688
0.0138703
0.0138695
0.0127602
0.0166672
0.0343328
0.0433074
0.0440735
0.0479062
0.0478281
0.0165038
0.00513398
0.00223094
0.00175917
0.00188533
0.00222782
0.00231579
0.00232585
0.0022575
0.00206212
0.00184502
0.00167723
0.00161857
0.00162
0.0016904
0.00188693
0.00221908
0.00267891
0.00298249
0.00309679
0.00313075
0.00311065
0.00300946
0.0029223
0.00286429
0.00284544
0.00284173
0.00285356
0.00288763
0.00293165
0.00299832
0.00308316
0.00316706
0.00325892
0.00335481
0.00341161
0.00331501
0.00307297
0.00267878
0.00212288
0.00151937
0.001015
0.000666113
0.000450466
0.000324756
0.000254064
0.000217146
0.000204545
0.000204927
0.00021432
0.000252351
0.000369447
0.000461643
0.000531588
0.000616539
0.000640357
0.000623321
0.000574011
0.000499312
0.000471108
0.000478888
0.000533753
0.000646006
0.000743349
0.000778954
0.00076076
0.000658386
0.000495035
0.000393346
0.000331251
0.000288529
0.000254558
0.000226514
0.000203607
0.000185692
0.000172918
0.000164923
0.000160894
0.000158614
0.000155475
0.000147809
0.000136435
0.000122208
0.000110064
9.68929e-05
8.65957e-05
7.50757e-05
6.81211e-05
6.03921e-05
0.0025094
0.00370858
0.0033792
0.00378945
0.00626727
0.00822452
0.00932059
0.0107697
0.0126068
0.0136918
0.0135569
0.0124222
0.00994297
0.0087285
0.00848461
0.00876358
0.00760302
0.00438246
0.00324182
0.00275159
0.00246878
0.0023218
0.00208013
0.0016685
0.00125729
0.000990506
0.000884013
0.000833674
0.000783475
0.000728951
0.000707011
0.000713139
0.000757855
0.000827896
0.000956118
0.00113264
0.00137891
0.00163326
0.00188187
0.00211325
0.00228734
0.00247239
0.00262154
0.00276833
0.00291189
0.00303581
0.00317244
0.00328765
0.0033954
0.00343698
0.00344931
0.00342981
0.00334504
0.003263
0.00317508
0.00307104
0.00295271
0.00283177
0.00269412
0.00252178
0.002268
0.0019402
0.00157087
0.00120042
0.000930211
0.000681145
0.000538131
0.000437403
0.000344476
0.000279856
0.000222962
0.000188682
0.000160842
0.000135901
0.000118439
0.000109545
0.000119301
0.000175239
0.00037335
0.00113676
0.00588982
0.0109052
0.0119219
0.0112193
0.0112333
0.0191717
0.0392955
0.0450134
0.0454396
0.0465848
0.0278587
0.00802269
0.00282166
0.00179967
0.0017628
0.00220132
0.00245762
0.00250856
0.00250711
0.00239913
0.00216472
0.0019098
0.00176994
0.00175191
0.00180111
0.00204193
0.00257722
0.00337367
0.00371471
0.00381801
0.00381422
0.00349619
0.00322191
0.00309884
0.00293394
0.00284894
0.0028211
0.00281657
0.00285074
0.00291656
0.00298507
0.00307755
0.0031959
0.00332116
0.00345712
0.00361685
0.0038171
0.00396478
0.0039636
0.00376345
0.00330239
0.00254766
0.00172913
0.00109347
0.00068054
0.0004333
0.000296861
0.000234581
0.000223447
0.00023921
0.000317449
0.000574048
0.00124608
0.00176128
0.00190376
0.00191135
0.00183995
0.00163381
0.00125964
0.000924326
0.000685954
0.000580622
0.000570913
0.000593894
0.000687116
0.000786397
0.000814222
0.000790228
0.000672053
0.000515385
0.000412648
0.000345332
0.000299316
0.000263911
0.00023423
0.000208641
0.000188643
0.000173689
0.000165314
0.000160267
0.000157203
0.000151038
0.000142941
0.000131064
0.000119724
0.000107207
9.68445e-05
8.61862e-05
7.75965e-05
6.87664e-05
0.00209728
0.00359271
0.00327571
0.00497326
0.0076722
0.00889415
0.0100045
0.0123976
0.0144648
0.0149536
0.0141798
0.0121492
0.0094645
0.00849315
0.00835421
0.00830909
0.0062027
0.00326949
0.00236989
0.00197347
0.00177978
0.0016781
0.00152557
0.00127094
0.00103502
0.000930069
0.000886911
0.000866212
0.000861964
0.000904306
0.00101254
0.00118356
0.00135701
0.00159852
0.0018614
0.00211474
0.00230787
0.00250614
0.00268175
0.00283714
0.00298428
0.00313965
0.0032863
0.00346145
0.00363421
0.00380153
0.00391937
0.00396917
0.00398573
0.00398317
0.00392234
0.00381821
0.00372876
0.0036237
0.00351246
0.00339336
0.00328029
0.0031761
0.00307444
0.00297139
0.00286219
0.00273066
0.0025344
0.00224485
0.00178367
0.00129171
0.000903881
0.00067599
0.000538601
0.000400914
0.000298412
0.000223355
0.00017733
0.000144872
0.000119047
0.000105323
9.9102e-05
0.0001029
0.000142355
0.000390688
0.00236482
0.00932985
0.0111913
0.0103845
0.0105594
0.0208934
0.039681
0.0444386
0.0439619
0.0376645
0.0133855
0.00424343
0.00197731
0.0016061
0.00184881
0.00245004
0.00262981
0.00266885
0.00266081
0.00253342
0.00227925
0.00199141
0.00188508
0.00188455
0.00209588
0.00275117
0.0039165
0.00448774
0.00463064
0.00458117
0.00408166
0.00368024
0.00348698
0.00306667
0.00283454
0.00258467
0.00240407
0.00233663
0.00240258
0.00258923
0.00278977
0.00297232
0.00315694
0.00332201
0.00348112
0.00365336
0.003891
0.00415946
0.00436277
0.00440584
0.00425926
0.00374145
0.00270789
0.0017142
0.00102446
0.000603347
0.00037787
0.000300575
0.000310054
0.000424544
0.000872411
0.00219997
0.00483487
0.00687837
0.00742512
0.00733681
0.00696436
0.00604163
0.0041346
0.00243453
0.00146958
0.000977544
0.000740393
0.000681519
0.000698871
0.000764624
0.000821667
0.000826493
0.000786926
0.000647856
0.000512007
0.000421096
0.00035839
0.000310298
0.000271745
0.000237999
0.000209712
0.000186293
0.000171356
0.000161592
0.00015625
0.000149904
0.000143329
0.000134073
0.00012426
0.000113172
0.000102866
9.27257e-05
8.44899e-05
7.54688e-05
0.00290917
0.00385307
0.00314221
0.00635454
0.0082503
0.00918413
0.010592
0.0137548
0.0158942
0.0159404
0.0144121
0.0115668
0.00895372
0.00818923
0.00808001
0.00776795
0.00516801
0.00261213
0.00183741
0.00151332
0.00137332
0.0013051
0.00122601
0.00108984
0.000981019
0.000942084
0.000931558
0.000990503
0.00116086
0.0015415
0.00189811
0.00210861
0.00226386
0.00244048
0.0026003
0.00271908
0.00282361
0.00296837
0.00311392
0.00327938
0.00345914
0.00367498
0.00388547
0.00410244
0.00427027
0.00436652
0.00440893
0.00442219
0.00442039
0.00438604
0.00434776
0.00429467
0.00422294
0.00410543
0.00395914
0.00376809
0.00359765
0.00341597
0.00326709
0.00314683
0.00304646
0.00295074
0.00284988
0.00270146
0.00248546
0.00215871
0.00154899
0.00103351
0.000777307
0.000585923
0.000431964
0.000301591
0.000219678
0.000171844
0.000135693
0.000109711
9.78019e-05
9.31768e-05
9.63751e-05
0.000150558
0.000688112
0.00545469
0.0107402
0.0104237
0.00954875
0.0187137
0.0322888
0.0395643
0.0363176
0.0201684
0.00700638
0.00267104
0.00164546
0.0015385
0.0020655
0.00261452
0.00275622
0.00278948
0.00278209
0.00265741
0.002401
0.00211814
0.00204855
0.00218149
0.00274307
0.00384663
0.00515331
0.00566878
0.00579273
0.00575865
0.00512925
0.00470813
0.00443193
0.00373111
0.00318731
0.00268531
0.00229562
0.00206696
0.0019429
0.00190892
0.002103
0.00248515
0.00287486
0.00319497
0.00344343
0.00363734
0.00386566
0.00416766
0.00445545
0.00467412
0.00472083
0.00457757
0.00388532
0.00251372
0.00145285
0.000799867
0.000488197
0.000435853
0.000529083
0.00108817
0.00304067
0.00819494
0.0151277
0.0201709
0.0217033
0.0216094
0.0210537
0.019558
0.0154718
0.00862474
0.00400603
0.00207743
0.00133325
0.000996589
0.000827845
0.000808422
0.000827077
0.000838666
0.000824628
0.000741417
0.000607119
0.00050037
0.0004236
0.000363886
0.000315126
0.000272953
0.000237268
0.000205715
0.000181831
0.000164612
0.000154429
0.000146812
0.000140569
0.000133453
0.000125777
0.00011654
0.000107269
9.71318e-05
8.90439e-05
8.04242e-05
0.00315717
0.00388002
0.00292565
0.00728769
0.00849824
0.00929417
0.010905
0.0145933
0.0162817
0.0161488
0.0143905
0.0110392
0.0085054
0.00784356
0.00774945
0.00739426
0.00459756
0.00218165
0.00151313
0.00124156
0.00113703
0.00109446
0.00106309
0.00100909
0.000981392
0.000984326
0.00107953
0.00136612
0.00182329
0.00230604
0.00258788
0.00271688
0.00279654
0.0028639
0.00292501
0.00300248
0.00313966
0.00331096
0.00349462
0.00373238
0.00397784
0.00420841
0.00442872
0.00457237
0.0046456
0.00467398
0.00467694
0.00463999
0.00462238
0.00461404
0.00461767
0.00462161
0.00462138
0.00460057
0.00454557
0.00443436
0.00422499
0.00394327
0.00358502
0.00333125
0.00315653
0.00305698
0.00296869
0.00286044
0.00271411
0.00251754
0.00217904
0.001536
0.00101234
0.000745553
0.00056492
0.000396484
0.000269698
0.000197059
0.000157438
0.000125889
0.00010326
9.31244e-05
8.88687e-05
9.63922e-05
0.000206018
0.00140944
0.00861359
0.0106443
0.00934543
0.0139422
0.0235252
0.02743
0.022468
0.010896
0.0042253
0.00193449
0.00140151
0.0014963
0.00219713
0.00269093
0.00284413
0.00287932
0.00287406
0.00276178
0.00251116
0.00226586
0.00223424
0.00244659
0.00308452
0.00460959
0.00658791
0.00756552
0.0080611
0.00848676
0.00864149
0.00865649
0.0077304
0.00699817
0.00534978
0.00401283
0.00292118
0.00224762
0.00190355
0.00174623
0.00167716
0.00178688
0.00223036
0.00284378
0.00331822
0.00360437
0.0037818
0.00406351
0.00441427
0.00471691
0.00490027
0.00490277
0.00467166
0.00352077
0.00195968
0.00102045
0.000663385
0.000660558
0.00107911
0.00318184
0.00990947
0.0227496
0.0301573
0.0317933
0.0313512
0.0304542
0.0297936
0.0292719
0.0282282
0.0246173
0.0135839
0.00557554
0.00266378
0.00179265
0.00128223
0.00101151
0.000903244
0.000879361
0.000851854
0.000774204
0.000668675
0.000576244
0.000498071
0.000431298
0.000372417
0.000318723
0.000272327
0.000231693
0.000198697
0.000173117
0.000155887
0.000144225
0.000136513
0.000130082
0.000124499
0.000117584
0.000110462
0.000101204
9.27837e-05
8.41063e-05
0.00321324
0.00383842
0.00287759
0.00761741
0.00857612
0.00927235
0.011011
0.0148022
0.0162018
0.0160963
0.0143272
0.0107794
0.00818309
0.00755181
0.0075354
0.00734418
0.00464113
0.00203312
0.00130293
0.00106404
0.000992925
0.000974578
0.00096882
0.000966999
0.000986341
0.00106908
0.0012856
0.00173413
0.00239334
0.00280601
0.00295963
0.00303486
0.00308806
0.00313559
0.0032015
0.00331627
0.00348682
0.00368977
0.0039398
0.00419172
0.00443639
0.00463103
0.00474012
0.00478692
0.00479722
0.00474564
0.00469075
0.00464665
0.00462688
0.00462289
0.00464032
0.00466416
0.00469314
0.00471856
0.00473186
0.00472167
0.00467422
0.00459389
0.00441329
0.00397527
0.00344195
0.00314977
0.00301913
0.00295034
0.00282774
0.00266735
0.00244952
0.00197597
0.00127341
0.000858671
0.000641989
0.000472521
0.000330046
0.00022862
0.000169646
0.00013891
0.000115234
9.72649e-05
8.84023e-05
8.54766e-05