/*--------------------------------*- C++ -*----------------------------------*\
  =========                 |
  \\      /  F ield         | OpenFOAM: The Open Source CFD Toolbox
   \\    /   O peration     | Website:  https://openfoam.org
    \\  /    A nd           | Version:  7
     \\/     M anipulation  |
\*---------------------------------------------------------------------------*/
FoamFile
{
    version     2.0;
    format      ascii;
    class       volScalarField;
    location    "0.106";
    object      p;
}
// * * * * * * * * * * * * * * * * * * * * * * * * * * * * * * * * * * * * * //

dimensions      [0 2 -2 0 0 0 0];

internalField   nonuniform List<scalar> 
12225
(
180.19
175.329
170.748
166.701
163.246
160.266
157.65
155.306
153.168
151.204
149.405
147.753
146.223
144.78
143.394
142.039
140.664
139.165
180.336
175.305
170.71
166.677
163.224
160.244
157.631
155.289
153.154
151.194
149.398
147.75
146.223
144.783
143.4
142.051
140.696
139.264
180.363
175.195
170.608
166.618
163.175
160.2
157.589
155.254
153.127
151.177
149.389
147.747
146.222
144.784
143.407
142.068
140.739
139.38
181.085
175.114
170.489
166.532
163.106
160.137
157.534
155.207
153.09
151.151
149.373
147.736
146.215
144.782
143.414
142.09
140.79
139.5
181.463
174.924
170.299
166.394
163
160.047
157.454
155.138
153.036
151.11
149.343
147.715
146.202
144.777
143.421
142.115
140.848
139.62
180.861
174.595
170.051
166.206
162.854
159.926
157.35
155.05
152.964
151.054
149.301
147.685
146.182
144.77
143.429
142.146
140.915
139.74
179.066
174.117
169.727
165.96
162.666
159.774
157.219
154.937
152.87
150.98
149.245
147.643
146.154
144.756
143.435
142.178
140.983
139.855
178.508
173.611
169.337
165.656
162.426
159.574
157.048
154.79
152.748
150.883
149.168
147.585
146.114
144.737
143.438
142.21
141.05
139.964
177.503
172.959
168.852
165.274
162.122
159.329
156.842
154.614
152.6
150.761
149.072
147.511
146.061
144.706
143.433
142.236
141.111
140.062
177.232
172.252
168.279
164.822
161.755
159.021
156.581
154.392
152.413
150.608
148.948
147.415
145.992
144.664
143.42
142.254
141.163
140.148
175.945
171.374
167.617
164.284
161.312
158.654
156.272
154.13
152.191
150.423
148.797
147.295
145.902
144.603
143.39
142.257
141.2
140.218
173.785
170.388
166.912
163.709
160.832
158.249
155.925
153.833
151.939
150.212
148.624
147.157
145.797
144.53
143.348
142.246
141.219
140.266
171.888
169.37
166.145
163.067
160.287
157.785
155.53
153.498
151.656
149.974
148.426
146.997
145.67
144.437
143.287
142.216
141.219
140.294
171.206
168.429
165.227
162.252
159.58
157.174
155.003
153.044
151.267
149.644
148.151
146.771
145.491
144.301
143.191
142.157
141.195
140.3
171.273
167.257
164.039
161.168
158.62
156.339
154.285
152.432
150.749
149.206
147.783
146.467
145.244
144.106
143.044
142.054
141.131
140.271
169.483
165.679
162.502
159.75
157.354
155.233
153.33
151.61
150.041
148.599
147.269
146.035
144.887
143.815
142.814
141.878
141.003
140.186
165.514
163.141
160.316
157.79
155.618
153.714
152.023
150.494
149.091
147.794
146.588
145.462
144.406
143.415
142.485
141.61
140.787
140.011
168.044
160.88
157.381
155.061
153.227
151.667
150.284
149.009
147.818
146.706
145.659
144.67
143.733
142.846
142.006
141.211
140.459
139.748
152.484
152.868
151.91
150.887
149.89
148.938
148.011
147.1
146.209
145.342
144.498
143.678
142.884
142.119
141.382
140.674
139.993
139.34
147.829
146.705
146.864
146.896
146.717
146.364
145.884
145.319
144.705
144.061
143.399
142.732
142.069
141.416
140.777
140.154
139.548
138.96
135.63
140.829
143.052
144.058
144.474
144.536
144.376
144.065
143.651
143.165
142.633
142.072
141.498
140.918
140.339
139.767
139.202
138.648
135.209
138.325
140.757
142.19
142.939
143.255
143.29
143.134
142.847
142.471
142.034
141.555
141.05
140.53
140.004
139.475
138.951
138.434
130.375
136.438
139.398
141.015
141.911
142.366
142.523
142.473
142.277
141.978
141.605
141.181
140.722
140.241
139.747
139.247
138.746
138.249
131.053
136.109
138.909
140.462
141.353
141.834
142.035
142.032
141.881
141.625
141.295
140.911
140.487
140.037
139.569
139.09
138.608
138.127
132.142
136.769
138.892
140.143
140.956
141.447
141.678
141.711
141.597
141.378
141.078
140.721
140.32
139.888
139.436
138.971
138.502
138.032
135.692
137.899
139.234
140.159
140.85
141.297
141.507
141.533
141.425
141.218
140.936
140.595
140.21
139.791
139.35
138.895
138.433
137.972
139.265
139.042
139.451
140.104
140.716
141.146
141.355
141.396
141.304
141.111
140.84
140.51
140.134
139.724
139.29
138.84
138.383
137.926
141.472
140.025
139.761
140.206
140.737
141.104
141.292
141.328
141.24
141.052
140.786
140.462
140.091
139.685
139.255
138.809
138.356
137.903
144.177
140.5
139.846
140.195
140.706
141.059
141.244
141.287
141.206
141.021
140.757
140.434
140.066
139.664
139.234
138.787
138.332
137.879
145.709
140.794
139.912
140.239
140.717
141.056
141.237
141.277
141.195
141.009
140.744
140.422
140.056
139.655
139.227
138.781
138.328
137.878
125.137
125.091
125.024
124.977
124.978
125.03
125.102
125.152
125.153
125.095
124.986
124.848
124.694
124.526
124.352
124.178
123.994
123.793
123.57
123.318
123.045
122.772
122.503
122.254
122.038
121.85
121.647
121.421
121.226
121.093
120.97
120.806
120.53
120.101
119.539
118.882
118.148
117.354
116.519
115.657
114.787
113.921
113.076
112.264
111.5
110.797
110.165
109.615
109.153
108.786
108.52
108.356
108.293
108.326
108.449
108.654
108.935
109.281
109.685
110.136
110.624
111.134
111.649
112.143
112.58
112.91
113.085
113.108
113.045
113.018
113.18
113.513
113.692
113.723
113.702
113.626
113.469
113.232
112.939
112.577
112.13
111.637
111.167
110.817
110.691
110.496
110.074
109.346
108.695
108.459
108.212
107.622
107.222
106.857
106.221
105.588
105.021
104.135
102.81
101.225
99.5205
97.7832
96.0612
94.3793
92.7516
91.1883
89.7016
88.3078
87.0265
85.8788
84.8845
84.0599
83.4187
82.9672
82.7029
82.6157
82.6899
82.9052
83.239
83.6678
84.1687
84.7194
85.2984
85.8831
86.4484
86.9665
87.4075
87.7436
87.9537
88.0255
87.9574
87.7583
87.4457
87.0484
86.5887
86.0874
85.5617
85.0243
84.4833
83.9421
83.3984
82.8456
82.2738
81.6727
81.0353
80.3591
79.6451
78.8951
78.1098
77.2912
76.4368
75.5492
74.6301
73.6759
72.6745
71.6129
70.4991
69.3714
68.2736
67.2282
66.2351
65.2816
64.3572
63.4556
62.5733
61.7073
60.8547
60.0112
59.1732
58.3372
57.5002
56.6605
55.8166
54.9679
54.1134
53.2537
52.389
51.5196
50.6543
49.773
125.003
124.94
124.839
124.759
124.751
124.823
124.937
125.04
125.082
125.058
124.974
124.843
124.689
124.53
124.37
124.198
124.007
123.793
123.538
123.231
122.899
122.597
122.337
122.123
121.974
121.847
121.652
121.412
121.198
120.978
120.744
120.511
120.193
119.732
119.153
118.486
117.749
116.958
116.128
115.275
114.414
113.558
112.723
111.922
111.169
110.477
109.858
109.322
108.877
108.529
108.281
108.131
108.077
108.116
108.244
108.453
108.735
109.08
109.479
109.922
110.396
110.889
111.384
111.858
112.281
112.608
112.799
112.859
112.837
112.833
113.036
113.46
113.678
113.743
113.754
113.687
113.54
113.306
113.014
112.638
112.146
111.552
110.938
110.436
110.19
110.009
109.614
108.899
108.144
107.856
107.815
107.583
107.288
106.926
106.364
105.629
104.836
103.774
102.393
100.818
99.1546
97.471
95.8018
94.1653
92.5713
91.0294
89.5538
88.1637
86.882
85.7327
84.7384
83.9177
83.282
82.8348
82.575
82.4937
82.5748
82.7975
83.1384
83.5734
84.0792
84.6341
85.2171
85.8064
86.378
86.9043
87.3552
87.7016
87.9207
87.9997
87.9362
87.7355
87.4242
87.0256
86.5642
86.0614
85.5348
84.9973
84.4574
83.9184
83.3782
82.8294
82.2617
81.6643
81.0296
80.3556
79.6431
78.8927
78.1035
77.2734
76.4154
75.5238
74.6011
73.6421
72.6373
71.577
70.4705
69.3522
68.2627
67.223
66.2323
65.2788
64.3535
63.4512
62.5688
61.7034
60.8513
60.0087
59.1716
58.3363
57.4996
56.66
55.816
54.967
54.1124
53.2523
52.3873
51.5168
50.6492
49.7666
124.895
124.835
124.739
124.643
124.614
124.678
124.796
124.897
124.943
124.926
124.859
124.758
124.643
124.526
124.41
124.284
124.12
123.901
123.62
123.304
122.987
122.673
122.344
122.075
121.887
121.717
121.509
121.259
120.985
120.681
120.341
119.962
119.52
119.003
118.414
117.757
117.044
116.283
115.487
114.666
113.834
113.003
112.189
111.404
110.663
109.98
109.369
108.84
108.4
108.054
107.817
107.682
107.643
107.698
107.839
108.059
108.349
108.699
109.097
109.534
109.996
110.47
110.943
111.399
111.821
112.186
112.472
112.67
112.819
113.032
113.408
113.833
114.036
114.04
113.984
113.868
113.689
113.441
113.119
112.699
112.146
111.512
110.861
110.262
109.836
109.52
109.021
108.241
107.438
107.209
107.566
107.73
107.483
106.96
106.206
105.289
104.226
102.994
101.618
100.14
98.6018
97.0333
95.4556
93.8831
92.3291
90.8085
89.3392
87.9447
86.6519
85.4891
84.4822
83.6523
83.0128
82.5678
82.3154
82.2453
82.3401
82.5774
82.9322
83.3793
83.8947
84.4572
85.0468
85.6438
86.2261
86.7675
87.2375
87.6044
87.842
87.9351
87.8792
87.6823
87.3709
86.9699
86.5054
86.0002
85.4723
84.9352
84.3979
83.8639
83.3308
82.7901
82.2298
81.6384
81.0082
80.3373
79.6275
78.8799
78.0935
77.266
76.3958
75.4918
74.5545
73.5842
72.5747
71.5211
70.4321
69.3368
68.264
67.2305
66.2385
65.2812
64.352
63.447
62.5632
61.6976
60.8459
60.004
59.1673
58.3325
57.4964
56.6571
55.8133
54.9639
54.109
53.2475
52.3812
51.5077
50.6356
49.7492
125.137
125.127
125.079
124.978
124.877
124.824
124.811
124.798
124.764
124.705
124.635
124.569
124.518
124.486
124.475
124.449
124.344
124.147
123.883
123.551
123.228
122.921
122.618
122.315
122.016
121.714
121.397
121.06
120.697
120.304
119.879
119.414
118.9
118.334
117.717
117.048
116.333
115.575
114.784
113.969
113.142
112.315
111.501
110.717
109.976
109.293
108.683
108.159
107.734
107.413
107.184
107.059
107.035
107.107
107.269
107.511
107.822
108.192
108.607
109.056
109.526
110.003
110.477
110.936
111.372
111.777
112.143
112.469
112.779
113.128
113.533
113.909
114.086
114.093
114.026
113.897
113.719
113.495
113.2
112.75
112.108
111.44
110.855
110.332
109.842
109.328
108.664
107.833
107.045
106.826
107.244
107.364
107.109
106.565
105.7
104.643
103.478
102.223
100.891
99.494
98.0475
96.5659
95.0611
93.5432
92.0232
90.5165
89.0446
87.6354
86.3215
85.1361
84.1093
83.2646
82.618
82.1744
81.9319
81.8782
81.9933
82.2524
82.6278
83.0923
83.6212
84.1934
84.7909
85.3969
85.9928
86.5547
87.0521
87.4499
87.7164
87.8324
87.7874
87.5985
87.2876
86.8833
86.4143
85.905
85.3745
84.8372
84.3026
83.7753
83.2522
82.7234
82.1745
81.592
80.9679
80.3014
79.5943
78.8472
78.0585
77.229
76.3592
75.4527
74.5073
73.525
72.5081
71.458
70.3841
69.307
68.2481
67.2218
66.2316
65.2732
64.3423
63.4363
62.5526
61.6879
60.8378
59.9976
59.1625
58.3288
57.494
56.6548
55.8107
54.9608
54.1048
53.2419
52.3737
51.4972
50.6192
49.7271
125.379
125.405
125.375
125.267
125.104
124.943
124.804
124.686
124.584
124.498
124.435
124.403
124.402
124.43
124.482
124.506
124.432
124.265
124.042
123.765
123.451
123.12
122.779
122.427
122.058
121.671
121.265
120.84
120.394
119.926
119.43
118.9
118.33
117.716
117.056
116.353
115.607
114.824
114.009
113.172
112.323
111.474
110.64
109.837
109.079
108.384
107.765
107.237
106.81
106.491
106.279
106.175
106.177
106.279
106.474
106.752
107.1
107.506
107.957
108.44
108.942
109.451
109.956
110.449
110.922
111.37
111.794
112.201
112.606
113.018
113.412
113.721
113.881
113.921
113.883
113.779
113.624
113.418
113.143
112.66
111.917
111.227
110.771
110.415
109.952
109.32
108.575
107.827
107.242
106.96
107.066
106.973
106.623
105.948
104.996
103.905
102.738
101.51
100.227
98.8928
97.5155
96.1007
94.6532
93.1773
91.6803
90.1765
88.6894
87.2523
85.9043
84.685
83.6294
82.764
82.1064
81.6655
81.4369
81.4054
81.5479
81.836
82.2386
82.7258
83.2711
83.8536
84.4577
85.0712
85.6804
86.2653
86.7966
87.2351
87.5413
87.692
87.6576
87.4836
87.1751
86.7672
86.2924
85.7776
85.2429
84.7037
84.171
83.6506
83.1392
82.6247
82.0896
81.5179
80.9014
80.2403
79.5376
78.7931
78.0027
77.165
76.2839
75.3667
74.4186
73.4401
72.4283
71.384
70.3202
69.2563
68.2108
67.1946
66.2098
65.2534
64.3232
63.4181
62.5363
61.674
60.8266
59.9889
59.1559
58.3238
57.4895
56.6511
55.8072
54.9569
54.1001
53.2358
52.3651
51.4856
50.6012
49.7033
125.462
125.496
125.45
125.309
125.12
124.935
124.773
124.641
124.541
124.471
124.428
124.413
124.43
124.469
124.521
124.525
124.447
124.305
124.102
123.842
123.537
123.196
122.825
122.429
122.009
121.564
121.097
120.607
120.096
119.56
118.996
118.401
117.768
117.096
116.382
115.627
114.833
114.003
113.144
112.265
111.376
110.49
109.622
108.788
108.006
107.291
106.658
106.12
105.686
105.364
105.158
105.07
105.098
105.236
105.473
105.796
106.193
106.647
107.145
107.673
108.219
108.772
109.324
109.869
110.4
110.913
111.406
111.881
112.343
112.785
113.174
113.463
113.626
113.68
113.651
113.556
113.407
113.197
112.914
112.443
111.713
111.034
110.696
110.471
110.023
109.278
108.476
107.857
107.387
107.085
106.912
106.637
106.11
105.303
104.306
103.218
102.071
100.874
99.6325
98.3509
97.0311
95.6719
94.2701
92.8235
91.3351
89.8181
88.2991
86.8177
85.421
84.1561
83.063
82.1717
81.5021
81.0654
80.8542
80.8508
81.0278
81.3523
81.789
82.304
82.8684
83.4606
84.0677
84.6832
85.3007
85.9064
86.4741
86.9607
87.315
87.5022
87.502
87.3402
87.0354
86.624
86.1429
85.6215
85.081
84.538
84.0058
83.4918
82.9933
82.4954
81.9761
81.416
80.8067
80.1513
79.4548
78.7158
77.9266
77.0802
76.1793
75.2408
74.2803
73.3034
72.3037
71.2768
70.2313
69.1846
68.1535
67.1476
66.1692
65.2169
64.2902
63.3891
62.5117
61.6542
60.8114
59.9777
59.148
58.3182
57.4855
56.6479
55.804
54.9533
54.0954
53.2296
52.3564
51.4738
50.5835
49.6795
125.601
125.577
125.47
125.298
125.111
124.932
124.776
124.652
124.563
124.511
124.492
124.493
124.513
124.544
124.563
124.53
124.442
124.297
124.093
123.834
123.527
123.177
122.788
122.364
121.907
121.421
120.906
120.363
119.792
119.191
118.56
117.895
117.196
116.459
115.683
114.87
114.02
113.139
112.232
111.309
110.379
109.457
108.557
107.696
106.889
106.153
105.502
104.947
104.496
104.159
103.953
103.879
103.931
104.1
104.374
104.74
105.183
105.686
106.234
106.811
107.403
108.001
108.597
109.19
109.776
110.353
110.919
111.47
111.995
112.476
112.883
113.187
113.376
113.457
113.445
113.357
113.198
112.967
112.657
112.24
111.613
110.986
110.71
110.512
110.025
109.202
108.342
107.721
107.335
107.046
106.76
106.323
105.643
104.747
103.729
102.643
101.508
100.333
99.1265
97.8903
96.6194
95.3042
93.9344
92.5016
91.0049
89.4569
87.888
86.3452
84.8845
83.5612
82.4219
81.5002
80.8186
80.3876
80.1997
80.2326
80.4538
80.8245
81.3042
81.854
82.4415
83.0435
83.6491
84.2583
84.8746
85.4933
86.0941
86.6326
87.0429
87.275
87.3113
87.1679
86.8693
86.4554
85.9682
85.4396
84.8919
84.3428
83.8085
83.2996
82.8141
82.3339
81.8314
81.2825
80.679
80.0284
79.3389
78.6078
77.822
76.9697
76.0517
75.0823
74.0934
73.1041
72.1161
71.1183
70.1045
69.0837
68.071
67.0778
66.1087
65.1643
64.2447
63.3504
62.48
61.6294
60.793
59.9647
59.1391
58.3123
57.4813
56.6444
55.8007
54.9495
54.0907
53.2235
52.3478
51.462
50.5664
49.6566
125.759
125.674
125.502
125.323
125.149
124.984
124.838
124.721
124.639
124.593
124.581
124.59
124.61
124.625
124.612
124.553
124.447
124.287
124.072
123.805
123.49
123.129
122.724
122.277
121.791
121.265
120.702
120.104
119.471
118.806
118.11
117.382
116.622
115.828
115.001
114.14
113.249
112.33
111.39
110.437
109.479
108.529
107.599
106.705
105.863
105.09
104.402
103.815
103.343
102.997
102.787
102.716
102.781
102.975
103.286
103.697
104.19
104.745
105.34
105.959
106.587
107.215
107.841
108.464
109.086
109.709
110.334
110.952
111.545
112.082
112.533
112.876
113.106
113.228
113.251
113.189
113.049
112.837
112.536
112.182
111.658
111.156
110.84
110.585
110.064
109.256
108.396
107.763
107.363
107.034
106.658
106.089
105.294
104.338
103.296
102.199
101.064
99.9034
98.7254
97.5271
96.2952
95.0113
93.6582
92.2227
90.6997
89.1012
87.4626
85.8395
84.298
82.9025
81.7062
80.7479
80.0535
79.6311
79.4732
79.553
79.8311
80.2619
80.7982
81.3948
82.0142
82.6304
83.2321
83.8261
84.4282
85.0465
85.6704
86.2605
86.7326
87.0143
87.0887
86.9675
86.6774
86.2624
85.7701
85.2351
84.6793
84.1215
83.5818
83.0758
82.6024
82.1401
81.6537
81.1132
80.5117
79.8631
79.1806
78.4601
77.6804
76.8218
75.8839
74.8838
73.8639
72.8526
71.8658
70.8946
69.922
68.9409
67.9577
66.9846
66.0304
65.098
64.1887
63.3037
62.4421
61.6002
60.7716
59.9499
59.1294
58.306
57.4771
56.6412
55.7977
54.9461
54.0863
53.2175
52.3394
51.4506
50.5503
49.6352
125.833
125.728
125.564
125.412
125.264
125.119
124.991
124.891
124.821
124.784
124.774
124.771
124.768
124.752
124.705
124.619
124.489
124.308
124.077
123.798
123.471
123.095
122.672
122.199
121.677
121.107
120.49
119.833
119.14
118.419
117.671
116.899
116.1
115.274
114.418
113.532
112.616
111.673
110.708
109.726
108.735
107.743
106.763
105.807
104.895
104.045
103.281
102.627
102.107
101.738
101.522
101.46
101.555
101.798
102.173
102.657
103.225
103.85
104.51
105.185
105.858
106.515
107.152
107.774
108.395
109.03
109.686
110.356
111.015
111.623
112.141
112.543
112.826
112.996
113.065
113.044
112.942
112.771
112.506
112.225
111.813
111.44
111.073
110.781
110.281
109.569
108.776
108.144
107.685
107.266
106.741
106.019
105.113
104.095
103.013
101.89
100.745
99.5925
98.4362
97.2666
96.0621
94.7961
93.4442
91.9885
90.4195
88.7487
87.0193
85.2982
83.6601
82.1774
80.9112
79.9063
79.1938
78.7822
78.6615
78.7998
79.1497
79.6568
80.2669
80.9279
81.5957
82.239
82.8422
83.4165
83.9921
84.5934
85.2246
85.8596
86.3935
86.7255
86.8384
86.7417
86.4621
86.0474
85.5516
85.0115
84.4469
83.8772
83.3277
82.8203
82.3567
81.911
81.4389
80.9026
80.2968
79.6449
78.9672
78.2583
77.4872
76.6218
75.6602
74.6302
73.582
72.5494
71.5569
70.6058
69.6769
68.7471
67.8077
66.8667
65.9353
65.0199
64.124
63.2505
62.3997
61.5678
60.7483
59.9342
59.1195
58.3001
57.4735
56.6386
55.7951
54.943
54.0822
53.2119
52.3316
51.4397
50.5354
49.6154
125.925
125.836
125.712
125.594
125.471
125.351
125.245
125.162
125.1
125.062
125.041
125.022
124.991
124.939
124.859
124.745
124.589
124.383
124.133
123.838
123.494
123.099
122.651
122.145
121.581
120.96
120.288
119.575
118.833
118.07
117.293
116.498
115.684
114.844
113.974
113.072
112.135
111.163
110.157
109.12
108.058
106.978
105.895
104.825
103.79
102.818
101.939
101.185
100.587
100.167
99.9386
99.9069
100.066
100.399
100.883
101.486
102.174
102.917
103.684
104.452
105.201
105.914
106.583
107.207
107.802
108.401
109.035
109.718
110.43
111.117
111.719
112.201
112.552
112.781
112.901
112.927
112.874
112.752
112.559
112.328
112.044
111.72
111.415
111.102
110.691
110.135
109.482
108.91
108.38
107.798
107.063
106.148
105.112
104.014
102.875
101.714
100.551
99.3977
98.2543
97.1023
95.9127
94.6512
93.2857
91.7934
90.1604
88.3987
86.5615
84.7277
82.9776
81.3895
80.0347
78.9681
78.2288
77.8237
77.7444
77.952
78.3882
78.988
79.69
80.4361
81.1742
81.8658
82.4878
83.0486
83.5929
84.1662
84.7879
85.4547
86.0351
86.4151
86.5649
86.4937
86.2268
85.8143
85.3173
84.774
84.2002
83.6144
83.0482
82.5322
82.0724
81.6391
81.1777
80.64
80.0232
79.3621
78.685
77.9856
77.2221
76.348
75.3589
74.2963
73.2235
72.1791
71.1895
70.2592
69.3722
68.4989
67.6163
66.7214
65.8229
64.9304
64.0518
63.1927
62.3546
61.5341
60.7245
59.9185
59.11
58.2948
57.4707
56.6368
55.7934
54.9406
54.0786
53.2068
52.3244
51.4296
50.5216
49.5974
126.122
126.056
125.969
125.881
125.78
125.681
125.591
125.518
125.461
125.418
125.382
125.34
125.279
125.193
125.082
124.942
124.758
124.527
124.255
123.94
123.575
123.156
122.677
122.134
121.523
120.85
120.125
119.365
118.585
117.797
117.005
116.203
115.384
114.537
113.655
112.731
111.76
110.741
109.67
108.55
107.385
106.184
104.963
103.743
102.554
101.428
100.408
99.5356
98.8493
98.379
98.142
98.1435
98.376
98.8179
99.4357
100.188
101.029
101.918
102.817
103.7
104.549
105.35
106.088
106.752
107.347
107.906
108.483
109.127
109.847
110.593
111.284
111.857
112.29
112.588
112.767
112.847
112.846
112.777
112.654
112.489
112.292
112.023
111.824
111.506
111.218
110.839
110.382
109.863
109.252
108.485
107.521
106.416
105.252
104.064
102.86
101.653
100.465
99.3037
98.164
97.0194
95.8326
94.5636
93.1733
91.6319
89.9221
88.057
86.1014
84.1435
82.2627
80.5444
79.0777
77.9312
77.1534
76.7537
76.7225
77.011
77.5469
78.2506
79.0542
79.8984
80.7265
81.4906
82.1544
82.7191
83.238
83.783
84.387
85.0609
85.6745
86.0919
86.2728
86.2263
85.9741
85.5664
85.0712
84.5273
83.9439
83.3367
82.7442
82.2096
81.7441
81.3147
80.8567
80.3108
79.678
79.0048
78.3238
77.6254
76.8601
75.9699
74.9458
73.8467
72.7554
71.7176
70.7527
69.8567
69.0147
68.2003
67.3831
66.5465
65.6921
64.8303
63.9734
63.1316
62.3084
61.5006
60.7015
59.9039
59.1016
58.2907
57.4691
56.6362
55.7927
54.9391
54.0759
53.2025
52.3179
51.4205
50.509
49.5811
126.444
126.402
126.341
126.269
126.184
126.099
126.021
125.952
125.892
125.84
125.788
125.722
125.631
125.514
125.377
125.214
125.005
124.749
124.454
124.116
123.727
123.281
122.769
122.186
121.531
120.809
120.036
119.235
118.426
117.621
116.822
116.019
115.198
114.345
113.448
112.498
111.487
110.412
109.268
108.055
106.777
105.442
104.069
102.68
101.31
100.005
98.8149
97.7975
97.0049
96.4746
96.2271
96.263
96.5773
97.1442
97.9196
98.8478
99.8693
100.928
101.977
102.984
103.929
104.808
105.619
106.351
106.988
107.54
108.066
108.65
109.337
110.108
110.87
111.532
112.048
112.418
112.661
112.797
112.851
112.838
112.773
112.669
112.534
112.36
112.178
111.968
111.749
111.51
111.194
110.733
110.064
109.139
107.997
106.736
105.472
104.203
102.936
101.685
100.467
99.2908
98.1464
97.0003
95.807
94.5206
93.0974
91.501
89.71
87.7384
85.6574
83.564
81.5327
79.6619
78.0652
76.8283
76.0058
75.614
75.6375
76.0167
76.6627
77.4766
78.382
79.3235
80.2465
81.098
81.8229
82.4063
82.921
83.4455
84.028
84.6943
85.3242
85.7646
85.9674
85.9425
85.7066
85.3069
84.817
84.2754
83.682
83.0458
82.415
81.849
81.3662
80.93
80.4668
79.91
79.2637
78.5798
77.8885
77.1756
76.3833
75.4536
74.3797
73.2395
72.1353
71.1296
70.2232
69.3906
68.6097
67.8596
67.1122
66.3428
65.5431
64.7206
63.8909
63.0693
62.2629
61.4691
60.6811
59.8916
59.0953
58.2883
57.469
56.6371
55.7934
54.939
54.0744
53.1991
52.3123
51.4123
50.4977
49.5664
126.881
126.852
126.804
126.741
126.666
126.587
126.512
126.442
126.376
126.312
126.245
126.159
126.045
125.903
125.744
125.564
125.334
125.055
124.738
124.378
123.964
123.49
122.945
122.325
121.629
120.865
120.051
119.214
118.378
117.557
116.751
115.947
115.128
114.272
113.362
112.388
111.341
110.213
108.998
107.694
106.302
104.829
103.291
101.716
100.147
98.6394
97.26
96.0791
95.1607
94.5513
94.2771
94.3485
94.7533
95.456
96.4024
97.5233
98.7444
99.9947
101.216
102.364
103.412
104.355
105.21
105.992
106.682
107.262
107.762
108.286
108.927
109.695
110.505
111.241
111.833
112.27
112.574
112.769
112.877
112.916
112.902
112.848
112.765
112.654
112.506
112.387
112.214
112.043
111.814
111.4
110.699
109.671
108.413
107.072
105.73
104.397
103.077
101.783
100.533
99.3373
98.1813
97.0267
95.8217
94.5142
93.055
91.4028
89.5343
87.464
85.2526
83.0183
80.8281
78.7955
77.0602
75.7252
74.8571
74.4595
74.5323
75.0059
75.7751
76.7107
77.7174
78.7471
79.7552
80.6956
81.4848
82.1049
82.627
83.1428
83.71
84.3622
84.9926
85.4411
85.6549
85.6466
85.428
85.0399
84.5591
84.0225
83.4179
82.7427
82.0599
81.4483
80.9339
80.4808
80.0124
79.4565
78.8092
78.1117
77.3894
76.6381
75.7952
74.7901
73.6325
72.4266
71.3135
70.3737
69.5715
68.8458
68.1562
67.4843
66.8114
66.1142
65.3776
64.6032
63.8071
63.0089
62.2204
61.4412
60.6643
59.8829
59.0919
58.2883
57.4709
56.6396
55.7957
54.9403
54.0742
53.197
52.3079
51.4052
50.4877
49.5533
127.408
127.382
127.339
127.28
127.208
127.13
127.052
126.976
126.902
126.827
126.746
126.646
126.516
126.357
126.183
125.991
125.749
125.451
125.114
124.732
124.295
123.794
123.22
122.568
121.838
121.039
120.191
119.321
118.457
117.616
116.798
115.991
115.173
114.317
113.403
112.414
111.339
110.17
108.897
107.515
106.023
104.426
102.74
100.998
99.2507
97.5667
96.0246
94.7051
93.6816
93.0053
92.7039
92.7871
93.2458
94.0452
95.1244
96.4031
97.7928
99.2087
100.584
101.869
103.025
104.029
104.903
105.703
106.435
107.05
107.547
108.025
108.619
109.367
110.202
110.989
111.644
112.144
112.505
112.752
112.91
112.996
113.024
113.009
112.961
112.893
112.792
112.676
112.568
112.412
112.212
111.82
111.118
110.065
108.766
107.383
105.996
104.62
103.259
101.929
100.648
99.4275
98.2534
97.0845
95.865
94.5369
93.046
91.3462
89.4087
87.2447
84.9223
82.5466
80.2064
78.0113
76.1277
74.677
73.747
73.3225
73.4372
74.0025
74.9054
75.9767
77.0905
78.2045
79.2884
80.2962
81.1522
81.8153
82.3524
82.8697
83.4309
84.0685
84.6876
85.1311
85.3453
85.3474
85.1455
84.7724
84.3035
83.7734
83.1548
82.43
81.6811
81.0056
80.4414
79.963
79.5018
78.9741
78.3423
77.6157
76.8242
75.9964
75.0797
73.971
72.6967
71.3874
70.2476
69.4044
68.7658
68.2032
67.647
67.0773
66.4885
65.8674
65.1989
64.4801
63.7246
62.9537
62.1838
61.4185
60.6523
59.8784
59.0922
58.2913
57.4751
56.6441
55.7997
54.9432
54.0755
53.1962
52.3047
51.3993
50.479
49.5418
128.011
127.985
127.941
127.878
127.802
127.719
127.634
127.55
127.466
127.382
127.291
127.185
127.048
126.881
126.697
126.497
126.253
125.942
125.586
125.184
124.727
124.201
123.601
122.922
122.165
121.34
120.464
119.566
118.674
117.807
116.969
116.152
115.332
114.481
113.57
112.58
111.494
110.303
108.997
107.567
106.011
104.333
102.549
100.695
98.828
97.0265
95.377
93.9623
92.8582
92.1231
91.7851
91.8625
92.3468
93.2008
94.3584
95.7297
97.2187
98.7293
100.187
101.55
102.779
103.837
104.726
105.518
106.257
106.904
107.419
107.871
108.418
109.133
109.971
110.79
111.493
112.045
112.454
112.745
112.941
113.063
113.125
113.138
113.113
113.063
112.987
112.877
112.767
112.62
112.405
112.027
111.351
110.328
109.046
107.659
106.254
104.855
103.468
102.109
100.799
99.5502
98.352
97.1641
95.9286
94.5833
93.07
91.337
89.3503
87.1139
84.6942
82.1951
79.7163
77.3823
75.3565
73.7735
72.7107
72.3038
72.4494
73.0837
74.1108
75.3105
76.5302
77.7172
78.8613
79.9279
80.8415
81.5468
82.1022
82.6284
83.1928
83.8189
84.4195
84.8487
85.0545
85.0599
84.872
84.5147
84.0578
83.5336
82.8969
82.1148
81.2822
80.514
79.874
79.3668
78.931
78.4504
77.8401
77.0727
76.1799
75.2257
74.1856
72.9366
71.5215
70.1056
68.9218
68.1875
67.7748
67.4429
67.0719
66.6378
66.1491
65.6091
65.0114
64.3532
63.6445
62.9054
62.1552
61.4027
60.6459
59.8787
59.0965
58.2977
57.4821
56.6508
55.8054
54.9476
54.0781
53.1968
52.3027
51.3947
50.4716
49.5317
128.71
128.681
128.629
128.558
128.47
128.375
128.277
128.181
128.087
127.995
127.901
127.795
127.66
127.493
127.306
127.102
126.858
126.547
126.176
125.753
125.272
124.723
124.1
123.397
122.618
121.771
120.876
119.956
119.038
118.143
117.279
116.442
115.614
114.765
113.866
112.889
111.816
110.631
109.323
107.886
106.314
104.613
102.799
100.909
99.0021
97.1586
95.4677
94.0137
92.8716
92.0998
91.7309
91.7851
92.2516
93.0945
94.2478
95.62
97.1142
98.6364
100.103
101.467
102.706
103.782
104.67
105.437
106.161
106.829
107.373
107.817
108.322
108.991
109.813
110.649
111.388
111.98
112.424
112.745
112.969
113.113
113.195
113.224
113.211
113.162
113.088
112.98
112.833
112.668
112.431
112.056
111.429
110.482
109.262
107.905
106.504
105.097
103.697
102.319
100.982
99.7023
98.4739
97.2616
96.0086
94.6505
93.1257
91.3783
89.3686
87.0905
84.6043
82.0129
79.4228
76.9721
74.8294
73.144
72.0208
71.5402
71.6742
72.3497
73.4454
74.7475
76.061
77.309
78.4951
79.6066
80.5658
81.3071
81.8818
82.4217
82.9973
83.617
84.1969
84.6071
84.7988
84.8007
84.6208
84.276
83.8278
83.3066
82.6489
81.8051
80.8642
79.9611
79.2129
78.6773
78.2824
77.852
77.2508
76.4374
75.429
74.2985
73.0493
71.5864
69.9938
68.4911
67.2991
66.6932
66.5657
66.5418
66.4178
66.1599
65.7936
65.3432
64.8184
64.2229
63.5654
62.8629
62.1348
61.3948
60.6458
59.884
59.1051
58.3077
57.4922
56.66
55.8131
54.9536
54.0822
53.1987
52.3022
51.3915
50.4657
49.5233
129.483
129.446
129.382
129.294
129.187
129.071
128.954
128.843
128.739
128.641
128.548
128.449
128.327
128.168
127.982
127.777
127.54
127.237
126.859
126.413
125.907
125.334
124.686
123.962
123.163
122.299
121.388
120.452
119.514
118.596
117.708
116.851
116.012
115.165
114.282
113.332
112.292
111.142
109.871
108.472
106.942
105.287
103.523
101.687
99.8321
98.0335
96.3768
94.9436
93.8061
93.0188
92.6162
92.6216
93.0269
93.7931
94.8574
96.1333
97.5295
98.9643
100.357
101.653
102.839
103.886
104.746
105.466
106.154
106.828
107.401
107.849
108.318
108.938
109.729
110.568
111.328
111.946
112.412
112.75
112.985
113.139
113.225
113.256
113.241
113.184
113.093
112.97
112.795
112.575
112.31
111.933
111.361
110.516
109.397
108.102
106.729
105.33
103.931
102.544
101.187
99.8761
98.6138
97.3726
96.1006
94.7342
93.2099
91.4696
89.4686
87.1908
84.6849
82.0495
79.3967
76.8712
74.6445
72.8747
71.6786
71.1281
71.2239
71.8936
73.0113
74.3684
75.7418
77.025
78.2288
79.3633
80.3504
81.1164
81.708
82.2637
82.8557
83.474
84.0357
84.4268
84.602
84.5947
84.415
84.074
83.6275
83.1057
82.4293
81.5245
80.4524
79.3737
78.4849
77.9139
77.5647
77.1832
76.5715
75.6986
74.5654
73.2155
71.6813
69.9329
68.1068
66.5033
65.3591
64.9313
65.1448
65.5026
65.6886
65.6484
65.4283
65.0774
64.6266
64.0926
63.4874
62.8248
62.1219
61.3948
60.6523
59.8944
59.1178
58.3211
57.5052
56.6716
55.8229
54.9612
54.0877
53.2019
52.3029
51.3895
50.4611
49.5162
130.26
130.214
130.134
130.024
129.89
129.746
129.604
129.474
129.36
129.259
129.172
129.087
128.986
128.844
128.661
128.453
128.216
127.927
127.55
127.089
126.553
125.949
125.274
124.526
123.707
122.828
121.904
120.958
120.009
119.079
118.178
117.309
116.463
115.62
114.753
113.833
112.835
111.738
110.526
109.194
107.742
106.178
104.517
102.793
101.052
99.3593
97.7894
96.4173
95.311
94.5238
94.0909
94.0356
94.3529
95.0034
95.9283
97.0506
98.2897
99.5779
100.842
102.022
103.109
104.089
104.906
105.58
106.225
106.889
107.478
107.932
108.373
108.949
109.706
110.533
111.297
111.924
112.398
112.743
112.98
113.133
113.216
113.238
113.212
113.142
113.029
112.879
112.683
112.418
112.099
111.715
111.186
110.441
109.441
108.236
106.912
105.538
104.149
102.762
101.394
100.059
98.7635
97.4914
96.1992
94.8273
93.3124
91.5957
89.6298
87.3903
84.9112
82.2835
79.6216
77.0703
74.8012
72.9755
71.7148
71.0984
71.1392
71.7656