/*--------------------------------*- C++ -*----------------------------------*\
  =========                 |
  \\      /  F ield         | OpenFOAM: The Open Source CFD Toolbox
   \\    /   O peration     | Website:  https://openfoam.org
    \\  /    A nd           | Version:  7
     \\/     M anipulation  |
\*---------------------------------------------------------------------------*/
FoamFile
{
    version     2.0;
    format      ascii;
    class       volScalarField;
    location    "0.106";
    object      pPrime2Mean;
}
// * * * * * * * * * * * * * * * * * * * * * * * * * * * * * * * * * * * * * //

dimensions      [0 4 -4 0 0 0 0];

internalField   nonuniform List<scalar> 
12225
(
3.40952e+06
3.35544e+06
3.29955e+06
3.2456e+06
3.19374e+06
3.14383e+06
3.09573e+06
3.04931e+06
3.00442e+06
2.9609e+06
2.91858e+06
2.87725e+06
2.83668e+06
2.79657e+06
2.75648e+06
2.71578e+06
2.6733e+06
2.62617e+06
3.40957e+06
3.35547e+06
3.29958e+06
3.24563e+06
3.19377e+06
3.14387e+06
3.09578e+06
3.04936e+06
3.00448e+06
2.96098e+06
2.91867e+06
2.87738e+06
2.83685e+06
2.7968e+06
2.75683e+06
2.71633e+06
2.67434e+06
2.62855e+06
3.40966e+06
3.35553e+06
3.29964e+06
3.24569e+06
3.19384e+06
3.14395e+06
3.09587e+06
3.04947e+06
3.00462e+06
2.96115e+06
2.91889e+06
2.87765e+06
2.83722e+06
2.79731e+06
2.75757e+06
2.71751e+06
2.67643e+06
2.63346e+06
3.40977e+06
3.35563e+06
3.29974e+06
3.2458e+06
3.19396e+06
3.14408e+06
3.09602e+06
3.04966e+06
3.00484e+06
2.96142e+06
2.91924e+06
2.8781e+06
2.83782e+06
2.79813e+06
2.75876e+06
2.71934e+06
2.67952e+06
2.63932e+06
3.4099e+06
3.35577e+06
3.29989e+06
3.24595e+06
3.19413e+06
3.14427e+06
3.09625e+06
3.04993e+06
3.00517e+06
2.96183e+06
2.91975e+06
2.87876e+06
2.83868e+06
2.79931e+06
2.76042e+06
2.72181e+06
2.6834e+06
2.64567e+06
3.4101e+06
3.35597e+06
3.30009e+06
3.24617e+06
3.19437e+06
3.14454e+06
3.09656e+06
3.0503e+06
3.00562e+06
2.96239e+06
2.92045e+06
2.87965e+06
2.83984e+06
2.80086e+06
2.76257e+06
2.72487e+06
2.6879e+06
2.65226e+06
3.41035e+06
3.35623e+06
3.30036e+06
3.24645e+06
3.19468e+06
3.1449e+06
3.09698e+06
3.05079e+06
3.00621e+06
2.96311e+06
2.92135e+06
2.8808e+06
2.84133e+06
2.80281e+06
2.76519e+06
2.72847e+06
2.69286e+06
2.65895e+06
3.41067e+06
3.35656e+06
3.3007e+06
3.24682e+06
3.19508e+06
3.14535e+06
3.0975e+06
3.05142e+06
3.00697e+06
2.96403e+06
2.92249e+06
2.88223e+06
2.84315e+06
2.80516e+06
2.76826e+06
2.73252e+06
2.69818e+06
2.66571e+06
3.4111e+06
3.35699e+06
3.30114e+06
3.24728e+06
3.19558e+06
3.14592e+06
3.09816e+06
3.05219e+06
3.0079e+06
2.96516e+06
2.92388e+06
2.88396e+06
2.84531e+06
2.80791e+06
2.77176e+06
2.73697e+06
2.70377e+06
2.67251e+06
3.41162e+06
3.35753e+06
3.30168e+06
3.24784e+06
3.1962e+06
3.14661e+06
3.09896e+06
3.05314e+06
3.00903e+06
2.96652e+06
2.92554e+06
2.88599e+06
2.84783e+06
2.81103e+06
2.77564e+06
2.74175e+06
2.70956e+06
2.67932e+06
3.41237e+06
3.35819e+06
3.30233e+06
3.24853e+06
3.19695e+06
3.14745e+06
3.09993e+06
3.05427e+06
3.01037e+06
2.96813e+06
2.92748e+06
2.88834e+06
2.85069e+06
2.81451e+06
2.77986e+06
2.74681e+06
2.71552e+06
2.68615e+06
3.41307e+06
3.35891e+06
3.30306e+06
3.24928e+06
3.19777e+06
3.14837e+06
3.10098e+06
3.05549e+06
3.0118e+06
2.96984e+06
2.92951e+06
2.89078e+06
2.85361e+06
2.818e+06
2.784e+06
2.75166e+06
2.7211e+06
2.6924e+06
3.41402e+06
3.35976e+06
3.30388e+06
3.25014e+06
3.19869e+06
3.1494e+06
3.10216e+06
3.05686e+06
3.01341e+06
2.97173e+06
2.93175e+06
2.89343e+06
2.85675e+06
2.82169e+06
2.7883e+06
2.75661e+06
2.7267e+06
2.6986e+06
3.41528e+06
3.36089e+06
3.30498e+06
3.25127e+06
3.19991e+06
3.15076e+06
3.1037e+06
3.05863e+06
3.01547e+06
2.97414e+06
2.93458e+06
2.89674e+06
2.8606e+06
2.82616e+06
2.79341e+06
2.7624e+06
2.73314e+06
2.70564e+06
3.41692e+06
3.36237e+06
3.30642e+06
3.25276e+06
3.20151e+06
3.15253e+06
3.1057e+06
3.06092e+06
3.01811e+06
2.97719e+06
2.93811e+06
2.90081e+06
2.86527e+06
2.83148e+06
2.79941e+06
2.76908e+06
2.74046e+06
2.71355e+06
3.41896e+06
3.36427e+06
3.30829e+06
3.25469e+06
3.20358e+06
3.15481e+06
3.10826e+06
3.06383e+06
3.02142e+06
2.98098e+06
2.94243e+06
2.90573e+06
2.87083e+06
2.8377e+06
2.80631e+06
2.77664e+06
2.74864e+06
2.72228e+06
3.42155e+06
3.36667e+06
3.31065e+06
3.25713e+06
3.2062e+06
3.15768e+06
3.11146e+06
3.06743e+06
3.02549e+06
2.98557e+06
2.9476e+06
2.91151e+06
2.87726e+06
2.8448e+06
2.81406e+06
2.78502e+06
2.7576e+06
2.73175e+06
3.4245e+06
3.36951e+06
3.31351e+06
3.26011e+06
3.20939e+06
3.16118e+06
3.11533e+06
3.07174e+06
3.0303e+06
2.99093e+06
2.95355e+06
2.91809e+06
2.88447e+06
2.85263e+06
2.82251e+06
2.79404e+06
2.76714e+06
2.74176e+06
3.42772e+06
3.37267e+06
3.31675e+06
3.26353e+06
3.21308e+06
3.16521e+06
3.11977e+06
3.07664e+06
3.03571e+06
2.99689e+06
2.96009e+06
2.92521e+06
2.89218e+06
2.86091e+06
2.83133e+06
2.80336e+06
2.77693e+06
2.75196e+06
3.42998e+06
3.37509e+06
3.31933e+06
3.26632e+06
3.21612e+06
3.16854e+06
3.12343e+06
3.08066e+06
3.04011e+06
3.00169e+06
2.96529e+06
2.93081e+06
2.89818e+06
2.86729e+06
2.83807e+06
2.81043e+06
2.7843e+06
2.75959e+06
3.43121e+06
3.37657e+06
3.321e+06
3.26818e+06
3.21817e+06
3.1708e+06
3.12591e+06
3.08337e+06
3.04308e+06
3.0049e+06
2.96875e+06
2.93453e+06
2.90213e+06
2.87148e+06
2.84247e+06
2.81503e+06
2.78907e+06
2.76452e+06
3.43216e+06
3.3776e+06
3.32218e+06
3.26951e+06
3.21966e+06
3.17245e+06
3.12773e+06
3.08536e+06
3.04524e+06
3.00724e+06
2.97127e+06
2.93721e+06
2.90498e+06
2.87448e+06
2.84562e+06
2.81831e+06
2.79247e+06
2.76802e+06
3.43249e+06
3.37823e+06
3.32297e+06
3.27044e+06
3.22072e+06
3.17363e+06
3.12903e+06
3.08679e+06
3.04679e+06
3.00891e+06
2.97306e+06
2.93912e+06
2.90701e+06
2.87661e+06
2.84785e+06
2.82063e+06
2.79487e+06
2.77049e+06
3.43276e+06
3.37863e+06
3.32351e+06
3.27108e+06
3.22146e+06
3.17446e+06
3.12995e+06
3.08779e+06
3.04788e+06
3.01009e+06
2.97432e+06
2.94047e+06
2.90843e+06
2.8781e+06
2.84941e+06
2.82225e+06
2.79654e+06
2.77221e+06
3.43289e+06
3.37887e+06
3.32385e+06
3.27152e+06
3.22197e+06
3.17503e+06
3.13058e+06
3.08849e+06
3.04864e+06
3.01091e+06
2.9752e+06
2.94139e+06
2.90941e+06
2.87913e+06
2.85048e+06
2.82336e+06
2.79769e+06
2.77339e+06
3.43278e+06
3.37898e+06
3.32407e+06
3.2718e+06
3.2223e+06
3.17542e+06
3.13101e+06
3.08896e+06
3.04914e+06
3.01146e+06
2.97578e+06
2.94202e+06
2.91006e+06
2.87982e+06
2.8512e+06
2.82411e+06
2.79846e+06
2.77418e+06
3.4327e+06
3.37904e+06
3.32421e+06
3.27198e+06
3.22252e+06
3.17566e+06
3.13129e+06
3.08926e+06
3.04947e+06
3.01181e+06
2.97616e+06
2.94242e+06
2.91048e+06
2.88026e+06
2.85166e+06
2.82458e+06
2.79896e+06
2.77469e+06
3.43267e+06
3.37908e+06
3.32429e+06
3.27209e+06
3.22265e+06
3.17581e+06
3.13145e+06
3.08944e+06
3.04967e+06
3.01202e+06
2.97639e+06
2.94266e+06
2.91074e+06
2.88053e+06
2.85194e+06
2.82488e+06
2.79925e+06
2.775e+06
3.43266e+06
3.3791e+06
3.32433e+06
3.27215e+06
3.22272e+06
3.17589e+06
3.13154e+06
3.08954e+06
3.04978e+06
3.01214e+06
2.97651e+06
2.94279e+06
2.91088e+06
2.88068e+06
2.85209e+06
2.82503e+06
2.79942e+06
2.77516e+06
3.43266e+06
3.37911e+06
3.32435e+06
3.27217e+06
3.22275e+06
3.17593e+06
3.13158e+06
3.08958e+06
3.04982e+06
3.01219e+06
2.97656e+06
2.94284e+06
2.91093e+06
2.88073e+06
2.85215e+06
2.8251e+06
2.79948e+06
2.77523e+06
2.21909e+06
2.21891e+06
2.21855e+06
2.21801e+06
2.21729e+06
2.21637e+06
2.21526e+06
2.21395e+06
2.21244e+06
2.21073e+06
2.20882e+06
2.2067e+06
2.20438e+06
2.20185e+06
2.1991e+06
2.19615e+06
2.19299e+06
2.18961e+06
2.18603e+06
2.18223e+06
2.17822e+06
2.17401e+06
2.16958e+06
2.16495e+06
2.16011e+06
2.15506e+06
2.14982e+06
2.14437e+06
2.13872e+06
2.13288e+06
2.12684e+06
2.12061e+06
2.1142e+06
2.10759e+06
2.1008e+06
2.09383e+06
2.08667e+06
2.07935e+06
2.07185e+06
2.06418e+06
2.05634e+06
2.04833e+06
2.04017e+06
2.03185e+06
2.02337e+06
2.01473e+06
2.00595e+06
1.99702e+06
1.98795e+06
1.97873e+06
1.96938e+06
1.95988e+06
1.95026e+06
1.9405e+06
1.93062e+06
1.92061e+06
1.91047e+06
1.90022e+06
1.88985e+06
1.87936e+06
1.86876e+06
1.85805e+06
1.84722e+06
1.8363e+06
1.82527e+06
1.81413e+06
1.8029e+06
1.79157e+06
1.78014e+06
1.76862e+06
1.75701e+06
1.7453e+06
1.73351e+06
1.72164e+06
1.70967e+06
1.69763e+06
1.6855e+06
1.6733e+06
1.66101e+06
1.64865e+06
1.63621e+06
1.62371e+06
1.61112e+06
1.59847e+06
1.58575e+06
1.57297e+06
1.56011e+06
1.5472e+06
1.53421e+06
1.52117e+06
1.50807e+06
1.49491e+06
1.48169e+06
1.46842e+06
1.45509e+06
1.4417e+06
1.42827e+06
1.41478e+06
1.40125e+06
1.38766e+06
1.37403e+06
1.36036e+06
1.34663e+06
1.33287e+06
1.31906e+06
1.30521e+06
1.29132e+06
1.2774e+06
1.26343e+06
1.24943e+06
1.2354e+06
1.22133e+06
1.20723e+06
1.1931e+06
1.17894e+06
1.16475e+06
1.15054e+06
1.1363e+06
1.12204e+06
1.10775e+06
1.09345e+06
1.07913e+06
1.06478e+06
1.05043e+06
1.03605e+06
1.02167e+06
1.00727e+06
992866
978451
964030
949604
935174
920743
906313
891885
877461
863044
848634
834235
819848
805476
791120
776783
762466
748173
733905
719665
705455
691278
677137
663033
648969
634948
620974
607048
593174
579354
565592
551890
538252
524682
511181
497755
484407
471139
457957
444864
431865
418964
406166
393477
380902
368449
356125
343939
331904
320037
308360
296916
285795
2.21989e+06
2.21971e+06
2.21935e+06
2.21881e+06
2.21808e+06
2.21715e+06
2.21604e+06
2.21472e+06
2.2132e+06
2.21149e+06
2.20956e+06
2.20743e+06
2.2051e+06
2.20255e+06
2.19979e+06
2.19683e+06
2.19365e+06
2.19026e+06
2.18666e+06
2.18284e+06
2.17882e+06
2.17459e+06
2.17014e+06
2.16549e+06
2.16064e+06
2.15558e+06
2.15031e+06
2.14485e+06
2.13919e+06
2.13333e+06
2.12727e+06
2.12103e+06
2.11459e+06
2.10797e+06
2.10116e+06
2.09418e+06
2.08701e+06
2.07967e+06
2.07215e+06
2.06447e+06
2.05662e+06
2.0486e+06
2.04043e+06
2.03209e+06
2.0236e+06
2.01496e+06
2.00616e+06
1.99722e+06
1.98814e+06
1.97891e+06
1.96955e+06
1.96005e+06
1.95041e+06
1.94065e+06
1.93076e+06
1.92074e+06
1.9106e+06
1.90034e+06
1.88996e+06
1.87946e+06
1.86886e+06
1.85814e+06
1.84731e+06
1.83638e+06
1.82535e+06
1.81421e+06
1.80297e+06
1.79163e+06
1.7802e+06
1.76868e+06
1.75706e+06
1.74536e+06
1.73356e+06
1.72168e+06
1.70972e+06
1.69767e+06
1.68554e+06
1.67333e+06
1.66104e+06
1.64868e+06
1.63624e+06
1.62373e+06
1.61115e+06
1.5985e+06
1.58578e+06
1.57299e+06
1.56013e+06
1.54721e+06
1.53423e+06
1.52119e+06
1.50809e+06
1.49492e+06
1.4817e+06
1.46843e+06
1.4551e+06
1.44171e+06
1.42828e+06
1.41479e+06
1.40126e+06
1.38767e+06
1.37404e+06
1.36036e+06
1.34664e+06
1.33287e+06
1.31907e+06
1.30522e+06
1.29133e+06
1.2774e+06
1.26344e+06
1.24944e+06
1.2354e+06
1.22133e+06
1.20723e+06
1.1931e+06
1.17894e+06
1.16475e+06
1.15054e+06
1.1363e+06
1.12204e+06
1.10775e+06
1.09345e+06
1.07913e+06
1.06479e+06
1.05043e+06
1.03606e+06
1.02167e+06
1.00727e+06
992867
978452
964030
949604
935174
920744
906313
891885
877461
863044
848635
834235
819849
805476
791120
776783
762466
748173
733905
719665
705455
691278
677137
663033
648969
634949
620974
607048
593174
579354
565592
551890
538252
524681
511181
497755
484406
471139
457956
444863
431864
418963
406165
393475
380899
368445
356120
343932
331895
320023
308339
296878
285704
2.2215e+06
2.22132e+06
2.22095e+06
2.2204e+06
2.21966e+06
2.21873e+06
2.21759e+06
2.21626e+06
2.21473e+06
2.21299e+06
2.21105e+06
2.2089e+06
2.20653e+06
2.20396e+06
2.20118e+06
2.19818e+06
2.19497e+06
2.19155e+06
2.18792e+06
2.18407e+06
2.18002e+06
2.17575e+06
2.17127e+06
2.16659e+06
2.1617e+06
2.1566e+06
2.1513e+06
2.14581e+06
2.14011e+06
2.13422e+06
2.12813e+06
2.12185e+06
2.11538e+06
2.10873e+06
2.10189e+06
2.09488e+06
2.08768e+06
2.08031e+06
2.07277e+06
2.06506e+06
2.05718e+06
2.04914e+06
2.04094e+06
2.03258e+06
2.02406e+06
2.0154e+06
2.00658e+06
1.99762e+06
1.98852e+06
1.97928e+06
1.96989e+06
1.96037e+06
1.95072e+06
1.94094e+06
1.93104e+06
1.921e+06
1.91085e+06
1.90057e+06
1.89018e+06
1.87968e+06
1.86906e+06
1.85833e+06
1.84749e+06
1.83655e+06
1.8255e+06
1.81436e+06
1.80311e+06
1.79177e+06
1.78033e+06
1.7688e+06
1.75717e+06
1.74546e+06
1.73366e+06
1.72177e+06
1.7098e+06
1.69775e+06
1.68562e+06
1.6734e+06
1.66111e+06
1.64875e+06
1.6363e+06
1.62379e+06
1.6112e+06
1.59855e+06
1.58582e+06
1.57303e+06
1.56017e+06
1.54725e+06
1.53427e+06
1.52122e+06
1.50812e+06
1.49495e+06
1.48173e+06
1.46845e+06
1.45512e+06
1.44174e+06
1.4283e+06
1.41481e+06
1.40127e+06
1.38769e+06
1.37405e+06
1.36038e+06
1.34665e+06
1.33289e+06
1.31908e+06
1.30523e+06
1.29134e+06
1.27741e+06
1.26344e+06
1.24944e+06
1.23541e+06
1.22134e+06
1.20724e+06
1.19311e+06
1.17895e+06
1.16476e+06
1.15054e+06
1.1363e+06
1.12204e+06
1.10776e+06
1.09345e+06
1.07913e+06
1.06479e+06
1.05043e+06
1.03606e+06
1.02167e+06
1.00727e+06
992868
978453
964031
949605
935175
920744
906314
891886
877462
863044
848635
834236
819849
805476
791120
776783
762467
748173
733905
719665
705456
691279
677137
663033
648969
634949
620974
607048
593174
579354
565591
551890
538252
524681
511181
497754
484405
471138
457955
444862
431862
418960
406161
393470
380894
368438
356110
343919
331876
319996
308298
296808
285562
2.22393e+06
2.22374e+06
2.22337e+06
2.2228e+06
2.22205e+06
2.2211e+06
2.21994e+06
2.21859e+06
2.21703e+06
2.21526e+06
2.21328e+06
2.2111e+06
2.2087e+06
2.20609e+06
2.20326e+06
2.20022e+06
2.19697e+06
2.1935e+06
2.18982e+06
2.18592e+06
2.18181e+06
2.1775e+06
2.17297e+06
2.16823e+06
2.16329e+06
2.15814e+06
2.15279e+06
2.14724e+06
2.14149e+06
2.13555e+06
2.12941e+06
2.12308e+06
2.11657e+06
2.10987e+06
2.10298e+06
2.09592e+06
2.08868e+06
2.08127e+06
2.07369e+06
2.06594e+06
2.05802e+06
2.04994e+06
2.0417e+06
2.03331e+06
2.02476e+06
2.01606e+06
2.00721e+06
1.99822e+06
1.98909e+06
1.97982e+06
1.97041e+06
1.96086e+06
1.95119e+06
1.94138e+06
1.93145e+06
1.9214e+06
1.91122e+06
1.90093e+06
1.89052e+06
1.87999e+06
1.86935e+06
1.85861e+06
1.84776e+06
1.8368e+06
1.82574e+06
1.81458e+06
1.80332e+06
1.79197e+06
1.78052e+06
1.76897e+06
1.75734e+06
1.74562e+06
1.73381e+06
1.72191e+06
1.70993e+06
1.69787e+06
1.68573e+06
1.67351e+06
1.66121e+06
1.64884e+06
1.63639e+06
1.62387e+06
1.61128e+06
1.59862e+06
1.58589e+06
1.57309e+06
1.56023e+06
1.54731e+06
1.53432e+06
1.52127e+06
1.50816e+06
1.49499e+06
1.48177e+06
1.46849e+06
1.45515e+06
1.44177e+06
1.42833e+06
1.41484e+06
1.4013e+06
1.38771e+06
1.37408e+06
1.3604e+06
1.34667e+06
1.3329e+06
1.31909e+06
1.30524e+06
1.29135e+06
1.27742e+06
1.26346e+06
1.24945e+06
1.23542e+06
1.22135e+06
1.20725e+06
1.19311e+06
1.17895e+06
1.16476e+06
1.15055e+06
1.13631e+06
1.12205e+06
1.10776e+06
1.09346e+06
1.07913e+06
1.06479e+06
1.05043e+06
1.03606e+06
1.02167e+06
1.00728e+06
992870
978455
964033
949606
935176
920745
906315
891887
877463
863045
848636
834236
819849
805477
791121
776783
762467
748174
733906
719666
705456
691279
677137
663033
648969
634949
620974
607048
593174
579354
565591
551889
538251
524681
511180
497753
484404
471136
457953
444859
431859
418956
406156
393464
380885
368427
356095
343899
331849
319958
308240
296715
285397
2.22718e+06
2.22699e+06
2.22661e+06
2.22603e+06
2.22525e+06
2.22428e+06
2.22309e+06
2.22171e+06
2.22011e+06
2.2183e+06
2.21628e+06
2.21405e+06
2.2116e+06
2.20893e+06
2.20605e+06
2.20295e+06
2.19963e+06
2.1961e+06
2.19235e+06
2.18839e+06
2.18421e+06
2.17983e+06
2.17523e+06
2.17042e+06
2.16541e+06
2.16019e+06
2.15477e+06
2.14915e+06
2.14333e+06
2.13732e+06
2.13112e+06
2.12472e+06
2.11814e+06
2.11138e+06
2.10444e+06
2.09731e+06
2.09002e+06
2.08255e+06
2.07491e+06
2.0671e+06
2.05913e+06
2.051e+06
2.04272e+06
2.03428e+06
2.02568e+06
2.01694e+06
2.00805e+06
1.99902e+06
1.98985e+06
1.98053e+06
1.97109e+06
1.96151e+06
1.9518e+06
1.94196e+06
1.932e+06
1.92192e+06
1.91171e+06
1.90139e+06
1.89096e+06
1.88041e+06
1.86975e+06
1.85898e+06
1.84811e+06
1.83713e+06
1.82605e+06
1.81488e+06
1.8036e+06
1.79223e+06
1.78076e+06
1.76921e+06
1.75756e+06
1.74582e+06
1.734e+06
1.7221e+06
1.71011e+06
1.69803e+06
1.68588e+06
1.67365e+06
1.66135e+06
1.64897e+06
1.63651e+06
1.62398e+06
1.61138e+06
1.59872e+06
1.58598e+06
1.57318e+06
1.56031e+06
1.54738e+06
1.53439e+06
1.52133e+06
1.50822e+06
1.49505e+06
1.48182e+06
1.46854e+06
1.4552e+06
1.44181e+06
1.42837e+06
1.41487e+06
1.40133e+06
1.38774e+06
1.3741e+06
1.36042e+06
1.3467e+06
1.33293e+06
1.31911e+06
1.30526e+06
1.29137e+06
1.27744e+06
1.26347e+06
1.24947e+06
1.23543e+06
1.22136e+06
1.20726e+06
1.19312e+06
1.17896e+06
1.16477e+06
1.15056e+06
1.13632e+06
1.12205e+06
1.10777e+06
1.09346e+06
1.07914e+06
1.06479e+06
1.05044e+06
1.03606e+06
1.02168e+06
1.00728e+06
992872
978457
964035
949608
935178
920747
906316
891888
877464
863046
848636
834237
819850
805477
791121
776784
762467
748174
733906
719666
705456
691279
677137
663033
648969
634949
620974
607048
593173
579353
565591
551889
538251
524680
511179
497752
484403
471134
457951
444856
431855
418951
406150
393455
380874
368412
356076
343874
331815
319909
308170
296607
285223
2.2313e+06
2.23109e+06
2.2307e+06
2.2301e+06
2.22929e+06
2.22829e+06
2.22707e+06
2.22564e+06
2.22399e+06
2.22213e+06
2.22005e+06
2.21776e+06
2.21524e+06
2.2125e+06
2.20955e+06
2.20637e+06
2.20298e+06
2.19936e+06
2.19553e+06
2.19148e+06
2.18722e+06
2.18274e+06
2.17806e+06
2.17316e+06
2.16806e+06
2.16275e+06
2.15724e+06
2.15153e+06
2.14563e+06
2.13953e+06
2.13325e+06
2.12677e+06
2.12011e+06
2.11327e+06
2.10624e+06
2.09904e+06
2.09167e+06
2.08413e+06
2.07642e+06
2.06855e+06
2.06052e+06
2.05233e+06
2.04398e+06
2.03548e+06
2.02683e+06
2.01803e+06
2.00909e+06
2.00001e+06
1.99078e+06
1.98143e+06
1.97193e+06
1.96231e+06
1.95256e+06
1.94269e+06
1.93269e+06
1.92257e+06
1.91233e+06
1.90197e+06
1.89151e+06
1.88093e+06
1.87024e+06
1.85945e+06
1.84855e+06
1.83754e+06
1.82644e+06
1.81524e+06
1.80395e+06
1.79255e+06
1.78107e+06
1.7695e+06
1.75783e+06
1.74608e+06
1.73424e+06
1.72232e+06
1.71032e+06
1.69823e+06
1.68607e+06
1.67383e+06
1.66151e+06
1.64912e+06
1.63666e+06
1.62412e+06
1.61151e+06
1.59884e+06
1.58609e+06
1.57328e+06
1.56041e+06
1.54747e+06
1.53447e+06
1.52141e+06
1.50829e+06
1.49512e+06
1.48188e+06
1.4686e+06
1.45525e+06
1.44186e+06
1.42841e+06
1.41492e+06
1.40137e+06
1.38778e+06
1.37414e+06
1.36046e+06
1.34673e+06
1.33295e+06
1.31914e+06
1.30528e+06
1.29139e+06
1.27746e+06
1.26349e+06
1.24949e+06
1.23545e+06
1.22137e+06
1.20727e+06
1.19314e+06
1.17897e+06
1.16478e+06
1.15057e+06
1.13632e+06
1.12206e+06
1.10777e+06
1.09347e+06
1.07914e+06
1.0648e+06
1.05044e+06
1.03607e+06
1.02168e+06
1.00728e+06
992875
978459
964037
949610
935180
920748
906317
891889
877465
863047
848637
834238
819851
805478
791122
776785
762468
748175
733907
719667
705457
691279
677137
663033
648970
634949
620974
607048
593173
579353
565591
551889
538250
524679
511178
497751
484401
471132
457948
444852
431850
418945
406141
393445
380861
368395
356054
343844
331774
319853
308089
296489
285049
2.23629e+06
2.23607e+06
2.23566e+06
2.23503e+06
2.2342e+06
2.23315e+06
2.23188e+06
2.2304e+06
2.22869e+06
2.22677e+06
2.22462e+06
2.22224e+06
2.21964e+06
2.21682e+06
2.21377e+06
2.2105e+06
2.20701e+06
2.20329e+06
2.19936e+06
2.1952e+06
2.19083e+06
2.18625e+06
2.18145e+06
2.17645e+06
2.17124e+06
2.16582e+06
2.1602e+06
2.15439e+06
2.14838e+06
2.14218e+06
2.13579e+06
2.12921e+06
2.12245e+06
2.11552e+06
2.1084e+06
2.10111e+06
2.09365e+06
2.08602e+06
2.07823e+06
2.07028e+06
2.06217e+06
2.0539e+06
2.04548e+06
2.03691e+06
2.02819e+06
2.01933e+06
2.01032e+06
2.00118e+06
1.9919e+06
1.98249e+06
1.97294e+06
1.96327e+06
1.95347e+06
1.94355e+06
1.9335e+06
1.92334e+06
1.91306e+06
1.90266e+06
1.89216e+06
1.88154e+06
1.87082e+06
1.86e+06
1.84907e+06
1.83804e+06
1.82691e+06
1.81568e+06
1.80436e+06
1.79294e+06
1.78144e+06
1.76984e+06
1.75815e+06
1.74638e+06
1.73453e+06
1.72259e+06
1.71057e+06
1.69847e+06
1.6863e+06
1.67404e+06
1.66171e+06
1.64931e+06
1.63683e+06
1.62428e+06
1.61167e+06
1.59898e+06
1.58623e+06
1.57341e+06
1.56053e+06
1.54758e+06
1.53457e+06
1.52151e+06
1.50838e+06
1.4952e+06
1.48196e+06
1.46867e+06
1.45532e+06
1.44192e+06
1.42847e+06
1.41497e+06
1.40142e+06
1.38783e+06
1.37418e+06
1.36049e+06
1.34676e+06
1.33299e+06
1.31917e+06
1.30531e+06
1.29142e+06
1.27748e+06
1.26351e+06
1.24951e+06
1.23547e+06
1.22139e+06
1.20729e+06
1.19315e+06
1.17899e+06
1.16479e+06
1.15058e+06
1.13633e+06
1.12207e+06
1.10778e+06
1.09348e+06
1.07915e+06
1.06481e+06
1.05045e+06
1.03607e+06
1.02168e+06
1.00729e+06
992878
978462
964040
949612
935182
920750
906319
891890
877466
863048
848638
834239
819852
805479
791123
776785
762469
748175
733907
719667
705457
691280
677138
663034
648970
634949
620974
607048
593173
579353
565590
551888
538250
524678
511177
497749
484399
471129
457944
444848
431844
418937
406132
393433
380846
368375
356028
343810
331728
319791
308003
296367
284876
2.24219e+06
2.24196e+06
2.24152e+06
2.24087e+06
2.23999e+06
2.23889e+06
2.23757e+06
2.23602e+06
2.23424e+06
2.23223e+06
2.22999e+06
2.22752e+06
2.22482e+06
2.22189e+06
2.21874e+06
2.21535e+06
2.21173e+06
2.2079e+06
2.20384e+06
2.19955e+06
2.19506e+06
2.19034e+06
2.18542e+06
2.18028e+06
2.17494e+06
2.1694e+06
2.16365e+06
2.15771e+06
2.15158e+06
2.14525e+06
2.13874e+06
2.13205e+06
2.12518e+06
2.11813e+06
2.1109e+06
2.10351e+06
2.09594e+06
2.08822e+06
2.08033e+06
2.07228e+06
2.06408e+06
2.05572e+06
2.04722e+06
2.03856e+06
2.02977e+06
2.02083e+06
2.01175e+06
2.00254e+06
1.99319e+06
1.98371e+06
1.97411e+06
1.96437e+06
1.95452e+06
1.94454e+06
1.93444e+06
1.92423e+06
1.9139e+06
1.90346e+06
1.89291e+06
1.88226e+06
1.8715e+06
1.86063e+06
1.84967e+06
1.8386e+06
1.82744e+06
1.81618e+06
1.80483e+06
1.79339e+06
1.78186e+06
1.77024e+06
1.75853e+06
1.74674e+06
1.73486e+06
1.7229e+06
1.71086e+06
1.69875e+06
1.68655e+06
1.67428e+06
1.66194e+06
1.64952e+06
1.63703e+06
1.62447e+06
1.61184e+06
1.59915e+06
1.58638e+06
1.57355e+06
1.56066e+06
1.54771e+06
1.53469e+06
1.52161e+06
1.50848e+06
1.49529e+06
1.48205e+06
1.46875e+06
1.4554e+06
1.44199e+06
1.42854e+06
1.41503e+06
1.40148e+06
1.38788e+06
1.37423e+06
1.36054e+06
1.3468e+06
1.33302e+06
1.31921e+06
1.30535e+06
1.29145e+06
1.27751e+06
1.26354e+06
1.24953e+06
1.23549e+06
1.22141e+06
1.2073e+06
1.19317e+06
1.179e+06
1.16481e+06
1.15059e+06
1.13635e+06
1.12208e+06
1.10779e+06
1.09348e+06
1.07916e+06
1.06481e+06
1.05045e+06
1.03608e+06
1.02169e+06
1.00729e+06
992882
978466
964043
949615
935184
920752
906321
891892
877468
863050
848640
834240
819853
805480
791124
776786
762470
748176
733908
719668
705458
691280
677138
663034
648970
634949
620974
607048
593173
579353
565590
551888
538249
524677
511175
497747
484396
471126
457940
444843
431838
418929
406122
393420
380828
368353
355999
343772
331678
319723
307912
296243
284709
2.24905e+06
2.24881e+06
2.24834e+06
2.24764e+06
2.24672e+06
2.24556e+06
2.24417e+06
2.24253e+06
2.24067e+06
2.23856e+06
2.23621e+06
2.23363e+06
2.2308e+06
2.22775e+06
2.22445e+06
2.22093e+06
2.21717e+06
2.21319e+06
2.20898e+06
2.20454e+06
2.19989e+06
2.19503e+06
2.18995e+06
2.18466e+06
2.17917e+06
2.17347e+06
2.16758e+06
2.1615e+06
2.15522e+06
2.14875e+06
2.1421e+06
2.13527e+06
2.12827e+06
2.12109e+06
2.11374e+06
2.10622e+06
2.09854e+06
2.0907e+06
2.0827e+06
2.07454e+06
2.06624e+06
2.05778e+06
2.04918e+06
2.04044e+06
2.03155e+06
2.02253e+06
2.01337e+06
2.00408e+06
1.99465e+06
1.9851e+06
1.97542e+06
1.96562e+06
1.9557e+06
1.94566e+06
1.9355e+06
1.92523e+06
1.91485e+06
1.90436e+06
1.89376e+06
1.88306e+06
1.87226e+06
1.86135e+06
1.85034e+06
1.83924e+06
1.82804e+06
1.81675e+06
1.80537e+06
1.79389e+06
1.78233e+06
1.77068e+06
1.75895e+06
1.74713e+06
1.73523e+06
1.72325e+06
1.71119e+06
1.69906e+06
1.68685e+06
1.67456e+06
1.6622e+06
1.64976e+06
1.63726e+06
1.62469e+06
1.61204e+06
1.59933e+06
1.58656e+06
1.57372e+06
1.56081e+06
1.54785e+06
1.53482e+06
1.52174e+06
1.5086e+06
1.4954e+06
1.48215e+06
1.46884e+06
1.45548e+06
1.44207e+06
1.42861e+06
1.4151e+06
1.40154e+06
1.38794e+06
1.37429e+06
1.36059e+06
1.34685e+06
1.33307e+06
1.31925e+06
1.30538e+06
1.29148e+06
1.27754e+06
1.26357e+06
1.24956e+06
1.23551e+06
1.22143e+06
1.20733e+06
1.19319e+06
1.17902e+06
1.16482e+06
1.1506e+06
1.13636e+06
1.12209e+06
1.1078e+06
1.09349e+06
1.07917e+06
1.06482e+06
1.05046e+06
1.03608e+06
1.0217e+06
1.0073e+06
992887
978470
964046
949618
935187
920755
906323
891894
877470
863051
848641
834242
819854
805481
791125
776787
762471
748177
733909
719668
705458
691281
677139
663034
648970
634950
620975
607048
593173
579353
565590
551887
538248
524676
511174
497745
484394
471123
457936
444837
431831
418920
406110
393405
380810
368329
355968
343731
331625
319653
307819
296120
284548
2.25692e+06
2.25665e+06
2.25615e+06
2.25541e+06
2.25442e+06
2.25319e+06
2.25171e+06
2.24998e+06
2.248e+06
2.24578e+06
2.2433e+06
2.24058e+06
2.23761e+06
2.23439e+06
2.23094e+06
2.22725e+06
2.22333e+06
2.21917e+06
2.21478e+06
2.21018e+06
2.20535e+06
2.2003e+06
2.19505e+06
2.18958e+06
2.18392e+06
2.17805e+06
2.17199e+06
2.16573e+06
2.15929e+06
2.15267e+06
2.14586e+06
2.13888e+06
2.13172e+06
2.12439e+06
2.1169e+06
2.10925e+06
2.10143e+06
2.09346e+06
2.08534e+06
2.07707e+06
2.06864e+06
2.06008e+06
2.05137e+06
2.04252e+06
2.03354e+06
2.02442e+06
2.01517e+06
2.00579e+06
1.99628e+06
1.98665e+06
1.97689e+06
1.96701e+06
1.95702e+06
1.94691e+06
1.93669e+06
1.92635e+06
1.91591e+06
1.90536e+06
1.89471e+06
1.88396e+06
1.8731e+06
1.86215e+06
1.8511e+06
1.83995e+06
1.82871e+06
1.81738e+06
1.80596e+06
1.79445e+06
1.78286e+06
1.77118e+06
1.75942e+06
1.74757e+06
1.73565e+06
1.72364e+06
1.71156e+06
1.6994e+06
1.68717e+06
1.67486e+06
1.66248e+06
1.65003e+06
1.63751e+06
1.62492e+06
1.61226e+06
1.59954e+06
1.58675e+06
1.5739e+06
1.56098e+06
1.548e+06
1.53497e+06
1.52187e+06
1.50872e+06
1.49552e+06
1.48226e+06
1.46894e+06
1.45558e+06
1.44216e+06
1.42869e+06
1.41518e+06
1.40161e+06
1.388e+06
1.37435e+06
1.36065e+06
1.3469e+06
1.33312e+06
1.31929e+06
1.30542e+06
1.29152e+06
1.27758e+06
1.2636e+06
1.24959e+06
1.23554e+06
1.22146e+06
1.20735e+06
1.19321e+06
1.17904e+06
1.16484e+06
1.15062e+06
1.13637e+06
1.1221e+06
1.10781e+06
1.0935e+06
1.07917e+06
1.06483e+06
1.05047e+06
1.03609e+06
1.0217e+06
1.0073e+06
992892
978474
964050
949622
935191
920758
906326
891897
877472
863053
848643
834243
819856
805483
791126
776789
762472
748178
733910
719669
705459
691282
677139
663035
648971
634950
620975
607048
593173
579353
565589
551886
538247
524675
511172
497743
484391
471119
457931
444831
431823
418911
406098
393390
380790
368303
355935
343689
331570
319582
307725
295998
284393
2.26586e+06
2.26557e+06
2.26502e+06
2.26422e+06
2.26316e+06
2.26184e+06
2.26026e+06
2.25841e+06
2.2563e+06
2.25392e+06
2.25129e+06
2.2484e+06
2.24526e+06
2.24186e+06
2.23822e+06
2.23434e+06
2.23021e+06
2.22585e+06
2.22126e+06
2.21645e+06
2.21142e+06
2.20617e+06
2.20071e+06
2.19505e+06
2.18918e+06
2.18312e+06
2.17686e+06
2.17042e+06
2.16379e+06
2.15698e+06
2.15e+06
2.14284e+06
2.13552e+06
2.12803e+06
2.12038e+06
2.11258e+06
2.10462e+06
2.0965e+06
2.08824e+06
2.07983e+06
2.07129e+06
2.0626e+06
2.05377e+06
2.04481e+06
2.03571e+06
2.02649e+06
2.01714e+06
2.00766e+06
1.99806e+06
1.98834e+06
1.9785e+06
1.96854e+06
1.95846e+06
1.94828e+06
1.93798e+06
1.92758e+06
1.91707e+06
1.90646e+06
1.89575e+06
1.88493e+06
1.87403e+06
1.86302e+06
1.85192e+06
1.84073e+06
1.82945e+06
1.81807e+06
1.80661e+06
1.79507e+06
1.78344e+06
1.77172e+06
1.75993e+06
1.74805e+06
1.7361e+06
1.72407e+06
1.71196e+06
1.69978e+06
1.68752e+06
1.6752e+06
1.6628e+06
1.65033e+06
1.63779e+06
1.62518e+06
1.61251e+06
1.59977e+06
1.58696e+06
1.5741e+06
1.56117e+06
1.54818e+06
1.53513e+06
1.52202e+06
1.50886e+06
1.49565e+06
1.48238e+06
1.46905e+06
1.45568e+06
1.44226e+06
1.42878e+06
1.41526e+06
1.40169e+06
1.38808e+06
1.37441e+06
1.36071e+06
1.34696e+06
1.33317e+06
1.31934e+06
1.30547e+06
1.29156e+06
1.27762e+06
1.26364e+06
1.24962e+06
1.23557e+06
1.22149e+06
1.20737e+06
1.19323e+06
1.17906e+06
1.16486e+06
1.15064e+06
1.13639e+06
1.12212e+06
1.10783e+06
1.09352e+06
1.07919e+06
1.06484e+06
1.05048e+06
1.0361e+06
1.02171e+06
1.00731e+06
992897
978479
964055
949626
935194
920761
906329
891899
877474
863056
848645
834245
819858
805484
791128
776790
762473
748179
733911
719670
705460
691282
677140
663036
648971
634950
620975
607048
593173
579352
565589
551886
538246
524673
511170
497741
484388
471115
457926
444825
431815
418901
406085
393373
380769
368277
355901
343645
331514
319510
307632
295881
284246
2.27594e+06
2.27562e+06
2.27503e+06
2.27416e+06
2.27301e+06
2.27158e+06
2.26986e+06
2.26787e+06
2.2656e+06
2.26305e+06
2.26023e+06
2.25714e+06
2.25379e+06
2.25018e+06
2.24631e+06
2.2422e+06
2.23784e+06
2.23325e+06
2.22842e+06
2.22337e+06
2.2181e+06
2.21262e+06
2.20693e+06
2.20104e+06
2.19495e+06
2.18866e+06
2.18219e+06
2.17553e+06
2.1687e+06
2.16169e+06
2.15451e+06
2.14717e+06
2.13966e+06
2.13199e+06
2.12417e+06
2.1162e+06
2.10807e+06
2.0998e+06
2.09139e+06
2.08284e+06
2.07415e+06
2.06533e+06
2.05637e+06
2.04729e+06
2.03807e+06
2.02873e+06
2.01927e+06
2.00969e+06
1.99999e+06
1.99017e+06
1.98023e+06
1.97019e+06
1.96003e+06
1.94976e+06
1.93938e+06
1.92891e+06
1.91833e+06
1.90765e+06
1.89687e+06
1.88599e+06
1.87503e+06
1.86396e+06
1.85281e+06
1.84157e+06
1.83024e+06
1.81882e+06
1.80732e+06
1.79573e+06
1.78406e+06
1.77231e+06
1.76048e+06
1.74857e+06
1.73659e+06
1.72453e+06
1.71239e+06
1.70019e+06
1.68791e+06
1.67556e+06
1.66314e+06
1.65065e+06
1.63809e+06
1.62546e+06
1.61277e+06
1.60001e+06
1.58719e+06
1.57431e+06
1.56137e+06
1.54836e+06
1.5353e+06
1.52219e+06
1.50901e+06
1.49579e+06
1.48251e+06
1.46918e+06
1.45579e+06
1.44236e+06
1.42888e+06
1.41535e+06
1.40178e+06
1.38815e+06
1.37449e+06
1.36078e+06
1.34702e+06
1.33323e+06
1.31939e+06
1.30552e+06
1.29161e+06
1.27766e+06
1.26367e+06
1.24966e+06
1.2356e+06
1.22152e+06
1.2074e+06
1.19326e+06
1.17908e+06
1.16488e+06
1.15066e+06
1.13641e+06
1.12213e+06
1.10784e+06
1.09353e+06
1.0792e+06
1.06485e+06
1.05048e+06
1.03611e+06
1.02172e+06
1.00731e+06
992903
978485
964060
949630
935198
920765
906332
891902
877477
863058
848647
834247
819859
805486
791129
776791
762474
748180
733912
719671
705461
691283
677141
663036
648972
634951
620975
607049
593173
579352
565588
551885
538245
524672
511169
497738
484385
471111
457921
444819
431807
418890
406072
393356
380748
368250
355866
343601
331458
319438
307542
295767
284107
2.28728e+06
2.28693e+06
2.28627e+06
2.28531e+06
2.28405e+06
2.28248e+06
2.28061e+06
2.27844e+06
2.27597e+06
2.27321e+06
2.27016e+06
2.26683e+06
2.26323e+06
2.25936e+06
2.25523e+06
2.25085e+06
2.24622e+06
2.24136e+06
2.23626e+06
2.23094e+06
2.2254e+06
2.21965e+06
2.2137e+06
2.20755e+06
2.20121e+06