/*--------------------------------*- C++ -*----------------------------------*\
  =========                 |
  \\      /  F ield         | OpenFOAM: The Open Source CFD Toolbox
   \\    /   O peration     | Website:  https://openfoam.org
    \\  /    A nd           | Version:  7
     \\/     M anipulation  |
\*---------------------------------------------------------------------------*/
FoamFile
{
    version     2.0;
    format      ascii;
    class       volVectorField;
    location    "0.106";
    object      U_0;
}
// * * * * * * * * * * * * * * * * * * * * * * * * * * * * * * * * * * * * * //

dimensions      [0 1 -1 0 0 0 0];

internalField   nonuniform List<vector> 
12225
(
(4.75843 0.113347 0)
(4.17472 0.110558 0)
(3.66536 0.10765 0)
(3.25669 0.0813272 0)
(2.90454 0.0648195 0)
(2.57835 0.0565136 0)
(2.26251 0.0528474 0)
(1.9513 0.0499569 0)
(1.65455 0.0435245 0)
(1.38639 0.0339047 0)
(1.15371 0.0243691 0)
(0.961069 0.0165422 0)
(0.798411 0.0107306 0)
(0.666695 0.00679498 0)
(0.543893 0.00400768 0)
(0.450928 0.00365719 0)
(0.336309 0.00186461 0)
(0.261963 -0.00785653 0)
(5.11395 0.161472 0)
(4.88111 0.0825926 0)
(4.74153 0.100365 0)
(4.63636 0.102901 0)
(4.53148 0.100864 0)
(4.41391 0.10276 0)
(4.27861 0.10731 0)
(4.12837 0.112067 0)
(3.96816 0.114405 0)
(3.80508 0.112394 0)
(3.63825 0.105407 0)
(3.47544 0.0966467 0)
(3.30622 0.0892889 0)
(3.14404 0.083423 0)
(2.97084 0.079264 0)
(2.81605 0.0747499 0)
(2.64007 0.076252 0)
(2.47635 0.0728645 0)
(4.97228 0.158598 0)
(4.85613 0.137068 0)
(4.74512 0.147817 0)
(4.69075 0.131673 0)
(4.66252 0.120853 0)
(4.64282 0.120461 0)
(4.62483 0.125754 0)
(4.60568 0.133458 0)
(4.58282 0.138953 0)
(4.55341 0.139565 0)
(4.5133 0.135258 0)
(4.46399 0.130272 0)
(4.40479 0.127805 0)
(4.33725 0.128016 0)
(4.26013 0.129303 0)
(4.17204 0.129723 0)
(4.0797 0.135585 0)
(3.96899 0.143405 0)
(5.00058 0.242434 0)
(4.8605 0.147785 0)
(4.76588 0.146969 0)
(4.69994 0.138491 0)
(4.67731 0.126336 0)
(4.68148 0.12143 0)
(4.6885 0.123876 0)
(4.68852 0.130247 0)
(4.68502 0.135519 0)
(4.68146 0.136764 0)
(4.67818 0.134847 0)
(4.67297 0.133056 0)
(4.66576 0.134483 0)
(4.65217 0.138768 0)
(4.63313 0.145165 0)
(4.60168 0.151445 0)
(4.56716 0.16203 0)
(4.52224 0.175575 0)
(4.98939 0.216389 0)
(4.90597 0.162534 0)
(4.83875 0.16275 0)
(4.76493 0.148873 0)
(4.70918 0.125541 0)
(4.69238 0.11331 0)
(4.70477 0.116123 0)
(4.72472 0.126925 0)
(4.74133 0.136039 0)
(4.75251 0.138513 0)
(4.7587 0.135937 0)
(4.75845 0.132938 0)
(4.75191 0.134059 0)
(4.73802 0.13988 0)
(4.7192 0.14946 0)
(4.6955 0.16028 0)
(4.67223 0.173212 0)
(4.65178 0.188223 0)
(4.96232 0.266544 0)
(4.8652 0.189742 0)
(4.81975 0.180597 0)
(4.78744 0.177259 0)
(4.77061 0.15415 0)
(4.7708 0.127957 0)
(4.7816 0.116078 0)
(4.79369 0.119563 0)
(4.8027 0.128142 0)
(4.80701 0.133497 0)
(4.80537 0.135485 0)
(4.7966 0.138407 0)
(4.78158 0.145748 0)
(4.76191 0.156849 0)
(4.74047 0.168776 0)
(4.71919 0.179128 0)
(4.70126 0.187693 0)
(4.68858 0.196166 0)
(5.01193 0.250913 0)
(4.96597 0.191156 0)
(4.97645 0.174064 0)
(4.99456 0.164269 0)
(4.97393 0.139075 0)
(4.92035 0.115164 0)
(4.86447 0.108442 0)
(4.82562 0.117412 0)
(4.80633 0.130134 0)
(4.79918 0.137721 0)
(4.79527 0.14019 0)
(4.78907 0.142417 0)
(4.78005 0.148365 0)
(4.76936 0.158133 0)
(4.75927 0.169326 0)
(4.75017 0.179907 0)
(4.74391 0.189153 0)
(4.74003 0.198048 0)
(5.05449 0.266092 0)
(4.96058 0.212446 0)
(4.93191 0.169622 0)
(4.93927 0.172644 0)
(4.93245 0.177702 0)
(4.89387 0.166573 0)
(4.8477 0.150092 0)
(4.81961 0.139985 0)
(4.81488 0.137011 0)
(4.82189 0.137298 0)
(4.82624 0.139925 0)
(4.82033 0.14634 0)
(4.80573 0.15685 0)
(4.7876 0.169481 0)
(4.77148 0.180808 0)
(4.75945 0.189275 0)
(4.75315 0.194177 0)
(4.75149 0.19732 0)
(4.91505 0.286047 0)
(4.88898 0.215599 0)
(4.8922 0.164748 0)
(4.89511 0.15649 0)
(4.8891 0.161002 0)
(4.87634 0.157279 0)
(4.86552 0.145239 0)
(4.86315 0.134337 0)
(4.86825 0.130667 0)
(4.87305 0.134027 0)
(4.87001 0.142148 0)
(4.85719 0.153132 0)
(4.83927 0.165133 0)
(4.82197 0.176366 0)
(4.81031 0.185127 0)
(4.80409 0.191159 0)
(4.80394 0.194803 0)
(4.80593 0.197446 0)
(4.97178 0.268271 0)
(4.99596 0.221906 0)
(4.97353 0.171028 0)
(4.92867 0.173188 0)
(4.89752 0.180524 0)
(4.88592 0.170855 0)
(4.88594 0.15069 0)
(4.88807 0.134089 0)
(4.88578 0.128989 0)
(4.87668 0.135176 0)
(4.86177 0.148623 0)
(4.84384 0.164462 0)
(4.82689 0.178538 0)
(4.813 0.188306 0)
(4.8046 0.192843 0)
(4.80087 0.193586 0)
(4.80305 0.191631 0)
(4.80929 0.190004 0)
(4.97489 0.269392 0)
(4.93104 0.22401 0)
(4.91002 0.189451 0)
(4.90859 0.183866 0)
(4.91753 0.182647 0)
(4.92568 0.170836 0)
(4.92519 0.15273 0)
(4.91474 0.140447 0)
(4.89827 0.139974 0)
(4.88186 0.148566 0)
(4.8703 0.160721 0)
(4.86532 0.172361 0)
(4.86612 0.18189 0)
(4.87018 0.18856 0)
(4.87563 0.191853 0)
(4.88059 0.192109 0)
(4.88592 0.189388 0)
(4.89053 0.18565 0)
(4.96653 0.311043 0)
(4.94376 0.234261 0)
(4.91615 0.178447 0)
(4.87805 0.166728 0)
(4.86533 0.166367 0)
(4.88086 0.160624 0)
(4.90272 0.150289 0)
(4.91675 0.142653 0)
(4.92174 0.142319 0)
(4.92069 0.148704 0)
(4.91535 0.158629 0)
(4.90617 0.16906 0)
(4.89433 0.178176 0)
(4.88232 0.18465 0)
(4.8727 0.187445 0)
(4.8676 0.186906 0)
(4.86724 0.183321 0)
(4.87125 0.179326 0)
(5.01343 0.278064 0)
(5.0333 0.236212 0)
(5.00154 0.217018 0)
(4.97358 0.203421 0)
(4.96248 0.181328 0)
(4.96457 0.157742 0)
(4.96617 0.142373 0)
(4.95869 0.13817 0)
(4.94377 0.143601 0)
(4.92708 0.155565 0)
(4.91369 0.17037 0)
(4.90598 0.184564 0)
(4.9049 0.195306 0)
(4.9096 0.200929 0)
(4.91862 0.200622 0)
(4.92777 0.195541 0)
(4.93641 0.187377 0)
(4.93782 0.178927 0)
(5.02156 0.283704 0)
(4.9893 0.26747 0)
(4.97451 0.217885 0)
(4.97699 0.18633 0)
(4.98004 0.169523 0)
(4.97661 0.158004 0)
(4.9659 0.152203 0)
(4.95122 0.152186 0)
(4.93891 0.156532 0)
(4.93383 0.162956 0)
(4.93767 0.168606 0)
(4.94914 0.171696 0)
(4.96589 0.172128 0)
(4.98439 0.170922 0)
(5.00189 0.169737 0)
(5.015 0.16954 0)
(5.02314 0.171943 0)
(5.02397 0.176455 0)
(4.94695 0.237432 0)
(5.02845 0.224385 0)
(5.06206 0.212324 0)
(5.04613 0.185147 0)
(5.01772 0.168275 0)
(4.99525 0.163214 0)
(4.97878 0.162849 0)
(4.96754 0.162822 0)
(4.9661 0.162365 0)
(4.97555 0.162055 0)
(4.991 0.162639 0)
(5.00547 0.164813 0)
(5.01357 0.168219 0)
(5.01331 0.172155 0)
(5.00537 0.175438 0)
(4.99333 0.178033 0)
(4.97912 0.180176 0)
(4.9676 0.182671 0)
(5.06102 0.244228 0)
(5.03175 0.212947 0)
(5.02236 0.227573 0)
(4.99056 0.233778 0)
(4.95396 0.219958 0)
(4.94056 0.199522 0)
(4.94992 0.178136 0)
(4.96841 0.157236 0)
(4.98722 0.139407 0)
(5.00274 0.129095 0)
(5.0139 0.129746 0)
(5.0205 0.141316 0)
(5.02288 0.159337 0)
(5.02086 0.17821 0)
(5.01564 0.193172 0)
(5.0078 0.202885 0)
(4.99994 0.207769 0)
(4.99166 0.209889 0)
(4.92324 0.214231 0)
(4.89962 0.216832 0)
(4.90536 0.242198 0)
(4.92153 0.237775 0)
(4.95327 0.197592 0)
(4.99279 0.151942 0)
(5.02688 0.12593 0)
(5.04914 0.123267 0)
(5.0578 0.132926 0)
(5.0542 0.144358 0)
(5.04383 0.154484 0)
(5.03338 0.164566 0)
(5.02759 0.175118 0)
(5.0272 0.185308 0)
(5.03145 0.193023 0)
(5.03753 0.197476 0)
(5.0452 0.198065 0)
(5.05178 0.195927 0)
(4.95722 0.19961 0)
(4.93486 0.213143 0)
(4.9355 0.203158 0)
(4.95981 0.174017 0)
(5.00606 0.14183 0)
(5.03917 0.118561 0)
(5.054 0.109846 0)
(5.06063 0.114632 0)
(5.06298 0.126768 0)
(5.06323 0.139444 0)
(5.06542 0.149044 0)
(5.07218 0.155727 0)
(5.08356 0.16095 0)
(5.0977 0.166397 0)
(5.11277 0.172533 0)
(5.12605 0.178876 0)
(5.13727 0.184672 0)
(5.14403 0.188586 0)
(5.02755 0.231041 0)
(5.04952 0.248054 0)
(5.03921 0.211561 0)
(5.04708 0.152113 0)
(5.04989 0.102042 0)
(5.04475 0.0821633 0)
(5.03717 0.0935892 0)
(5.02992 0.119321 0)
(5.02311 0.140746 0)
(5.01765 0.149336 0)
(5.01644 0.146219 0)
(5.02183 0.137582 0)
(5.03479 0.129989 0)
(5.05449 0.127642 0)
(5.07991 0.131448 0)
(5.10826 0.13969 0)
(5.13802 0.149614 0)
(5.16634 0.158698 0)
(4.95712 0.256768 0)
(4.97965 0.197961 0)
(5.01937 0.178453 0)
(5.03843 0.158082 0)
(5.03132 0.138931 0)
(5.0206 0.129223 0)
(5.02565 0.128664 0)
(5.04728 0.134636 0)
(5.07657 0.141699 0)
(5.10499 0.142538 0)
(5.12767 0.132492 0)
(5.14385 0.112428 0)
(5.15591 0.0879403 0)
(5.16694 0.065806 0)
(5.17895 0.0508277 0)
(5.19252 0.0450948 0)
(5.20703 0.0473675 0)
(5.22139 0.0567353 0)
(5.03097 0.212842 0)
(5.00274 0.178323 0)
(5.02574 0.155214 0)
(5.06902 0.143521 0)
(5.1121 0.124127 0)
(5.13969 0.0965644 0)
(5.15245 0.0722844 0)
(5.16292 0.0624886 0)
(5.18038 0.0688055 0)
(5.20543 0.0828087 0)
(5.2329 0.0935668 0)
(5.25579 0.0951246 0)
(5.26894 0.0877908 0)
(5.27078 0.076748 0)
(5.26343 0.067885 0)
(5.25119 0.064779 0)
(5.2386 0.0679694 0)
(5.22955 0.075303 0)
(5.06642 0.222614 0)
(5.06453 0.182296 0)
(5.07398 0.122586 0)
(5.09531 0.0842381 0)
(5.1174 0.0795757 0)
(5.12894 0.089525 0)
(5.13022 0.0936493 0)
(5.13075 0.0867118 0)
(5.13927 0.0738294 0)
(5.1597 0.0620774 0)
(5.19014 0.0562457 0)
(5.22408 0.0580426 0)
(5.25515 0.0660736 0)
(5.2794 0.0768939 0)
(5.29712 0.0862156 0)
(5.30996 0.0915981 0)
(5.32169 0.0917284 0)
(5.33395 0.0877282 0)
(5.09286 0.261411 0)
(5.08949 0.171395 0)
(5.10169 0.116875 0)
(5.11106 0.0912007 0)
(5.11382 0.081716 0)
(5.11913 0.079214 0)
(5.13405 0.0729917 0)
(5.16049 0.0597055 0)
(5.19274 0.0432974 0)
(5.22245 0.0289085 0)
(5.2444 0.0191213 0)
(5.25833 0.0148629 0)
(5.26779 0.0158144 0)
(5.27728 0.0202163 0)
(5.29044 0.0253225 0)
(5.308 0.0291898 0)
(5.32944 0.0303752 0)
(5.35236 0.0292644 0)
(4.9763 0.222253 0)
(5.03274 0.180732 0)
(5.09487 0.120198 0)
(5.13883 0.0947403 0)
(5.15925 0.089442 0)
(5.16987 0.0809771 0)
(5.18483 0.0595763 0)
(5.20947 0.0320558 0)
(5.24072 0.0121084 0)
(5.27328 0.00723019 0)
(5.30373 0.0158005 0)
(5.33057 0.0297816 0)
(5.35351 0.041551 0)
(5.37303 0.0472609 0)
(5.39052 0.0462398 0)
(5.40633 0.0405203 0)
(5.42126 0.0322924 0)
(5.43436 0.0245776 0)
(5.05639 0.231468 0)
(5.0702 0.115163 0)
(5.14742 0.0443375 0)
(5.20767 0.0370291 0)
(5.24821 0.0472738 0)
(5.27698 0.0463034 0)
(5.29372 0.030572 0)
(5.29986 0.00796499 0)
(5.30224 -0.0124742 0)
(5.31059 -0.025812 0)
(5.331 -0.0307591 0)
(5.3629 -0.0286542 0)
(5.40188 -0.0224349 0)
(5.44158 -0.0149696 0)
(5.47654 -0.0086249 0)
(5.5034 -0.00455995 0)
(5.52177 -0.00298164 0)
(5.53216 -0.00332871 0)
(5.10969 0.252992 0)
(5.17975 0.128728 0)
(5.21189 0.0700723 0)
(5.22426 0.0612313 0)
(5.23839 0.0640444 0)
(5.27109 0.0613576 0)
(5.31483 0.0487369 0)
(5.35928 0.027508 0)
(5.39845 0.00386032 0)
(5.43033 -0.0154893 0)
(5.45604 -0.0277287 0)
(5.47721 -0.0317793 0)
(5.4949 -0.0289295 0)
(5.50977 -0.0217798 0)
(5.52216 -0.0130507 0)
(5.53254 -0.00469286 0)
(5.54158 0.00192109 0)
(5.5498 0.00573116 0)
(5.0111 0.146109 0)
(5.13985 0.0453222 0)
(5.23931 0.0258958 0)
(5.29429 0.0185121 0)
(5.34328 0.0044527 0)
(5.40293 -0.0114639 0)
(5.44949 -0.0262121 0)
(5.47047 -0.0410478 0)
(5.47484 -0.05472 0)
(5.47635 -0.0630437 0)
(5.4833 -0.0639846 0)
(5.49736 -0.058407 0)
(5.51609 -0.0488303 0)
(5.53645 -0.0379984 0)
(5.55639 -0.0283215 0)
(5.57428 -0.0213209 0)
(5.58956 -0.017709 0)
(5.60075 -0.0180456 0)
(4.98993 0.127944 0)
(5.16809 0.0665007 0)
(5.32745 0.0499405 0)
(5.3982 0.0305175 0)
(5.42263 0.0116981 0)
(5.45261 0.00546683 0)
(5.49373 0.010247 0)
(5.53505 0.0106962 0)
(5.56819 -0.00204334 0)
(5.58844 -0.0229444 0)
(5.59578 -0.0416196 0)
(5.59578 -0.0518139 0)
(5.59599 -0.0529386 0)
(5.60184 -0.0474182 0)
(5.61514 -0.0380146 0)
(5.6339 -0.0274239 0)
(5.65553 -0.0171058 0)
(5.67639 -0.00978747 0)
(4.98276 0.00911457 0)
(5.14874 -0.0603857 0)
(5.31248 -0.0345766 0)
(5.41501 -0.0274458 0)
(5.47534 -0.0333166 0)
(5.51323 -0.0461736 0)
(5.54074 -0.059565 0)
(5.56386 -0.0692618 0)
(5.58013 -0.0736989 0)
(5.58224 -0.0726895 0)
(5.56716 -0.0673172 0)
(5.54059 -0.0605555 0)
(5.51244 -0.0552658 0)
(5.49166 -0.0524033 0)
(5.48227 -0.0510162 0)
(5.4838 -0.0499635 0)
(5.49202 -0.0484625 0)
(5.50353 -0.0473927 0)
(5.03694 0.136624 0)
(5.18493 0.00578835 0)
(5.11517 -0.0197185 0)
(4.97559 -0.0312213 0)
(4.84808 -0.0291304 0)
(4.74244 -0.0180713 0)
(4.6454 -0.00969244 0)
(4.54232 -0.0101435 0)
(4.42696 -0.0168061 0)
(4.30436 -0.0231464 0)
(4.18523 -0.0260618 0)
(4.07677 -0.0272137 0)
(3.97774 -0.0289902 0)
(3.88376 -0.0314355 0)
(3.79208 -0.0326106 0)
(3.70522 -0.0311312 0)
(3.62502 -0.0265845 0)
(3.55691 -0.0207727 0)
(-0.0850347 0.188249 -3.5616e-20)
(-0.288181 0.21763 3.53508e-20)
(-0.443873 0.166997 0)
(-0.525332 0.0820488 0)
(-0.518761 -0.01421 0)
(-0.432772 -0.0996668 -3.43048e-20)
(-0.282012 -0.155627 0)
(-0.0975396 -0.177082 0)
(0.0942298 -0.169082 0)
(0.271959 -0.13269 0)
(0.404866 -0.0466022 3.29868e-20)
(0.480703 0.0320436 0)
(0.508541 0.00898424 0)
(0.507675 -0.0601625 0)
(0.512879 -0.091471 0)
(0.545423 -0.0849721 3.17622e-20)
(0.599258 -0.0640264 0)
(0.668718 -0.0545248 0)
(0.764335 -0.0611759 0)
(0.87591 -0.0535772 0)
(0.980481 -0.0327775 0)
(1.06572 -0.0198148 0)
(1.13711 0.00187321 0)
(1.17013 0.0283184 2.98388e-20)
(1.13642 0.00140338 -2.95859e-20)
(1.06784 -0.0921395 2.93322e-20)
(1.00523 -0.174562 2.90858e-20)
(0.943215 -0.137942 0)
(0.80993 -0.000501723 0)
(0.571703 0.0787346 -2.84007e-20)
(0.282652 0.16271 -2.81904e-20)
(-0.0654539 0.330163 0)
(-0.472911 0.393566 0)
(-0.864809 0.354601 -2.748e-20)
(-1.21877 0.326468 0)
(-1.56178 0.317115 0)
(-1.89066 0.303256 2.6849e-20)
(-2.20251 0.28651 0)
(-2.49663 0.268242 2.64683e-20)
(-2.77192 0.248967 5.25689e-20)
(-3.02768 0.229808 0)
(-3.2633 0.210577 0)
(-3.47767 0.190829 0)
(-3.66945 0.170221 0)
(-3.83712 0.148665 0)
(-3.97926 0.126319 5.03485e-20)
(-4.09469 0.103474 4.99515e-20)
(-4.18262 0.0805992 4.95412e-20)
(-4.24277 0.0583633 0)
(-4.27518 0.0374874 -4.86759e-20)
(-4.28027 0.0183872 0)
(-4.26046 0.000970774 4.77436e-20)
(-4.21802 -0.0149683 4.72534e-20)
(-4.15368 -0.0296814 0)
(-4.06907 -0.0434341 0)
(-3.96496 -0.0565084 0)
(-3.84192 -0.0692615 4.51635e-20)
(-3.69993 -0.0822286 0)
(-3.53821 -0.0959444 0)
(-3.35517 -0.111054 0)
(-3.14814 -0.128256 0)
(-2.91352 -0.148209 0)
(-2.64684 -0.171329 0)
(-2.34336 -0.197335 0)
(-2.00005 -0.224591 0)
(-1.62116 -0.249015 -4.02714e-20)
(-1.22507 -0.261975 0)
(-0.834602 -0.250274 0)
(-0.475852 -0.20897 3.89281e-20)
(-0.252181 -0.155843 3.84908e-20)
(-0.170408 0.0228335 0)
(-0.396424 0.233739 -3.74633e-20)
(-0.768557 0.188286 3.69617e-20)
(-0.860306 0.0469663 0)
(-0.842733 -0.0016104 -3.60551e-20)
(-0.780721 -0.036784 0)
(-0.724118 -0.0580519 0)
(-0.652685 -0.0723985 3.48175e-20)
(-0.549962 -0.0779295 0)
(-0.440299 -0.0696651 -3.40662e-20)
(-0.332792 -0.0609383 0)
(-0.231998 -0.0628771 3.33799e-20)
(-0.115995 -0.0960735 3.30443e-20)
(0.0882271 -0.173237 3.26791e-20)
(0.466424 -0.267424 6.45186e-20)
(1.01754 -0.25891 -6.36776e-20)
(1.544 -0.225385 0)
(2.00728 -0.258246 0)
(2.44218 -0.0196617 0)
(2.14037 0.411258 -6.09141e-20)
(1.29457 0.332771 -6.01923e-20)
(0.818274 0.004473 5.95596e-20)
(0.803395 -0.151782 0)
(0.953896 -0.251607 -5.80942e-20)
(1.06522 -0.269308 -5.74475e-20)
(0.904216 -0.0212584 -5.68835e-20)
(0.312012 0.296239 0)
(-0.4114 0.372542 0)
(-1.06415 0.340038 0)
(-1.625 0.291175 -5.50507e-20)
(-2.09758 0.244014 0)
(-2.49559 0.203302 0)
(-2.83289 0.169851 5.4064e-20)
(-3.121 0.142988 0)
(-3.36876 0.121226 0)
(-3.58207 0.102838 5.30298e-20)
(-3.76444 0.0867004 0)
(-3.91769 0.0718747 0)
(-4.04189 0.057323 -5.18313e-20)
(-4.1358 0.0426149 -5.13732e-20)
(-4.19802 0.028208 0)
(-4.22801 0.0141481 5.034e-20)
(-4.2247 0.000473754 0)
(-4.19033 -0.0121762 -4.9129e-20)
(-4.1251 -0.0242218 0)
(-4.03027 -0.0355913 -4.77467e-20)
(-3.90741 -0.0460284 -4.70004e-20)
(-3.75855 -0.0554677 0)
(-3.58566 -0.0639737 0)
(-3.39062 -0.0716128 0)
(-3.17493 -0.0785538 0)
(-2.9397 -0.0849533 0)
(-2.68575 -0.0908862 0)
(-2.41395 -0.0962889 0)
(-2.12567 -0.100899 -4.04725e-20)
(-1.82339 -0.104282 3.9673e-20)
(-1.51103 -0.105908 0)
(-1.19393 -0.105287 0)
(-0.878109 -0.102234 0)
(-0.570155 -0.0968735 0)
(-0.276447 -0.0894535 7.22579e-20)
(-0.00316784 -0.0822523 0)
(0.247739 -0.0742121 -6.98557e-20)
(0.477848 -0.0666693 6.87105e-20)
(0.688479 -0.0600818 0)
(0.882515 -0.054697 0)
(1.06334 -0.0505814 0)
(1.23455 -0.0477273 -6.43978e-20)
(1.39959 -0.0459337 -6.33498e-20)
(1.56143 -0.0448938 0)
(1.72237 -0.0443426 -6.12702e-20)
(1.88344 -0.0436955 -6.02424e-20)
(2.04347 -0.0419483 5.92281e-20)
(2.19886 -0.0385003 0)
(2.34474 -0.033721 0)
(2.47642 -0.0277693 5.63026e-20)
(2.58861 -0.0187459 0)
(2.67199 -0.00357188 0)
(2.7121 0.0171136 0)
(2.69806 0.0359867 0)
(2.63014 0.0496745 -5.18453e-20)
(2.51128 0.0610853 -5.1011e-20)
(2.34555 0.073861 0)
(2.13404 0.0883779 -4.93946e-20)
(1.87636 0.098439 0)
(1.58451 0.094003 0)
(1.29166 0.072892 -4.71364e-20)
(1.03672 0.0452561 0)
(0.841007 0.021532 -4.56723e-20)
(0.704824 0.00635335 0)
(0.617578 -0.000887042 0)
(0.564977 -0.00329728 -4.33346e-20)
(0.534479 -0.00367211 0)
(0.517846 -0.00356443 -4.17138e-20)
(0.50991 -0.00359323 0)
(0.508115 -0.00383204 0)
(0.510094 -0.00414234 0)
(0.515216 -0.00420231 3.84128e-20)
(0.52135 -0.00392195 0)
(0.529069 -0.00334736 -3.67574e-20)
(0.535339 -0.00250154 0)
(0.542447 -0.00163259 0)
(0.545702 -0.000566786 0)
(0.548917 0.000280866 0)
(0.546917 0.00202823 0)
(0.539655 0.00266689 0)
(0.534736 0.00651206 0)
(0.495002 0.00479653 6.0603e-20)
(0.511249 0.0163794 0)
(0.374273 0.0049522 0)
(-0.0525968 0.573176 1.06879e-19)
(-0.187018 0.510726 -1.06112e-19)
(-0.279081 0.316211 0)
(-0.326812 0.0919215 6.97801e-20)
(-0.291534 -0.169022 0)
(-0.187984 -0.40542 3.43186e-20)
(-0.0261813 -0.555714 -6.81591e-20)
(0.161174 -0.606936 -6.75825e-20)
(0.341917 -0.576231 0)
(0.50065 -0.482392 -6.64645e-20)
(0.630403 -0.348496 -3.29531e-20)
(0.729677 -0.224585 0)
(0.798476 -0.0645249 0)
(0.797464 0.0680389 0)
(0.72434 0.0263149 0)
(0.645359 -0.0875801 -3.17541e-20)
(0.624814 -0.173099 0)
(0.680276 -0.267101 6.2537e-20)
(0.779321 -0.350733 0)
(0.879965 -0.361645 0)
(0.947427 -0.325019 -6.11364e-20)
(0.935298 -0.288487 0)
(0.855395 -0.190712 6.02372e-20)
(0.737787 -0.00256429 -2.9868e-20)
(0.57099 0.183508 2.96326e-20)
(0.317794 0.293876 -2.94032e-20)
(-0.0228441 0.380856 -2.91691e-20)
(-0.377969 0.513477 0)
(-0.751767 0.674537 0)
(-1.14698 0.806817 2.83653e-20)
(-1.49717 0.885713 -2.8182e-20)
(-1.80135 0.911509 0)
(-2.0927 0.883806 0)
(-2.37126 0.839958 2.73608e-20)
(-2.63555 0.796668 0)
(-2.88454 0.751054 0)
(-3.11738 0.703574 -2.67561e-20)
(-3.33521 0.655754 0)
(-3.53825 0.607696 2.6512e-20)
(-3.72687 0.559476 -5.24301e-20)
(-3.90051 0.510723 0)
(-4.0585 0.460833 0)
(-4.19991 0.409363 -1.0296e-19)
(-4.32384 0.356061 -1.02237e-19)
(-4.42931 0.300915 -1.015e-19)
(-4.51546 0.244157 5.04616e-20)
(-4.58166 0.186339 -4.98931e-20)
(-4.62752 0.128319 -1.48641e-19)
(-4.65288 0.071172 9.83079e-20)
(-4.65781 0.0159186 4.86384e-20)
(-4.64292 -0.0367346 0)
(-4.60792 -0.0859428 -4.77075e-20)
(-4.55259 -0.1317 4.73529e-20)
(-4.47879 -0.174158 0)
(-4.38732 -0.213874 0)
(-4.27968 -0.251541 0)
(-4.1567 -0.288135 -4.51252e-20)
(-4.01912 -0.32484 0)
(-3.86716 -0.363048 8.81629e-20)
(-3.70051 -0.40434 0)
(-3.51827 -0.45044 8.59302e-20)
(-3.31879 -0.502954 0)
(-3.09961 -0.562776 -8.37091e-20)
(-2.85759 -0.62877 0)
(-2.59007 -0.695428 8.15534e-20)
(-2.29795 -0.749177 -4.03301e-20)
(-1.98784 -0.763999 0)
(-1.6676 -0.700919 -7.86264e-20)
(-1.35395 -0.52339 -3.88483e-20)
(-1.09939 -0.217695 -3.84226e-20)
(-0.932719 0.160501 0)
(-0.793641 0.415966 -3.73799e-20)
(-0.747426 0.303671 -3.69599e-20)
(-0.545227 0.0542308 0)
(-0.398961 -0.0849709 3.60787e-20)
(-0.20292 -0.116825 -7.12715e-20)
(-0.0403601 -0.100013 0)
(0.12543 -0.114528 -3.4843e-20)
(0.273713 -0.155098 0)
(0.404619 -0.175072 1.02171e-19)
(0.497524 -0.17115 0)
(0.53904 -0.183234 -1.001e-19)
(0.54979 -0.260626 -3.30142e-20)
(0.604347 -0.453253 3.27344e-20)
(0.777074 -0.768038 6.47247e-20)
(1.13054 -0.95208 -6.39215e-20)
(1.65946 -0.881219 0)
(1.98129 -0.63639 0)
(2.21881 -0.0387768 0)
(2.38588 0.64021 1.82971e-19)
(2.01876 0.887972 6.00894e-20)
(1.59752 0.560008 -5.94647e-20)
(1.44906 -0.000692048 0)
(1.09252 -0.0517323 -5.8096e-20)
(0.349617 0.383121 5.75365e-20)
(-0.476832 0.795323 5.69142e-20)
(-1.19576 0.953501 0)
(-1.75644 0.901289 0)
(-2.20015 0.782882 0)
(-2.56183 0.657714 5.49447e-20)
(-2.8611 0.54709 0)
(-3.11354 0.455887 -1.08853e-19)
(-3.33054 0.382993 -1.62197e-19)
(-3.51979 0.324876 1.07513e-19)
(-3.68668 0.277196 0)
(-3.83438 0.23617 5.31067e-20)
(-3.96381 0.198836 0)
(-4.07411 0.162857 1.04579e-19)
(-4.16341 0.126378 -5.19205e-20)
(-4.22977 0.088538 -5.14697e-20)
(-4.27117 0.0496093 0)
(-4.28526 0.0100447 -1.51125e-19)
(-4.27124 -0.0292772 9.96169e-20)
(-4.22611 -0.0674356 4.9126e-20)
(-4.15019 -0.10398 0)
(-4.04434 -0.138276 4.77415e-20)
(-3.91022 -0.169793 1.41072e-19)
(-3.74973 -0.198308 0)
(-3.56502 -0.22389 9.0914e-20)
(-3.358 -0.246853 8.92763e-20)
(-3.13013 -0.26771 8.76176e-20)
(-2.8824 -0.286975 0)
(-2.61542 -0.304966 0)
(-2.3297 -0.321597 0)
(-2.02627 -0.336178 -4.05187e-20)
(-1.70727 -0.347328 -3.96658e-20)
(-1.37647 -0.353259 0)
(-1.03926 -0.35235 -7.63266e-20)
(-0.702021 -0.343895 -7.4901e-20)
(-0.37165 -0.328147 0)
(-0.0561786 -0.306187 -7.2248e-20)
(0.238756 -0.282695 -1.42058e-19)
(0.511831 -0.25741 6.98191e-20)
(0.763289 -0.233348 6.87108e-20)
(0.994757 -0.212184 0)
(1.2092 -0.194784 0)
(1.41016 -0.181403 0)
(1.60126 -0.171936 6.43637e-20)
(1.78586 -0.166014 -6.33533e-20)
(1.9672 -0.162989 -1.24579e-19)
(2.14797 -0.161711 6.12352e-20)
(2.329 -0.160348 -6.02311e-20)
(2.50896 -0.156751 -5.91926e-20)
(2.6849 -0.149278 0)
(2.85225 -0.137287 0)
(3.00416 -0.120796 5.62775e-20)
(3.13276 -0.0992653 0)
(3.23365 -0.0707178 0)
(3.30858 -0.0335725 -1.07084e-19)
(3.35786 0.0103546 0)
(3.37437 0.0573346 -5.18244e-20)
(3.35102 0.101725 5.09671e-20)
(3.28175 0.139993 0)
(3.16567 0.173451 -4.93764e-20)
(3.00829 0.204686 0)
(2.8186 0.227027 0)
(2.60688 0.227545 4.70703e-20)
(2.38713 0.201394 -9.27053e-20)
(2.17683 0.157643 4.5611e-20)
(1.99155 0.111251 0)
(1.84109 0.0726348 0)
(1.72667 0.0448262 -4.32889e-20)
(1.64327 0.026433 0)
(1.58476 0.0147137 -4.16785e-20)
(1.54552 0.00727917 0)
(1.52096 0.00252181 0)
(1.50646 -0.000569072 0)
(1.49899 -0.00254035 -3.83825e-20)
(1.49517 -0.00370502 0)
(1.49426 -0.00448788 3.67294e-20)
(1.49389 -0.00451857 0)
(1.49508 -0.00445569 0)
(1.49554 -0.00291808 -6.8545e-20)
(1.49612 -0.00216973 6.69242e-20)
(1.49592 0.00190926 0)
(1.4899 0.00268283 0)
(1.49011 0.0117847 0)
(1.46218 0.00970181 -1.81677e-19)
(1.47571 0.0300423 0)
(1.38641 0.0205108 1.14969e-19)
(0.0568098 0.67003 3.06379e-23)
(0.105835 0.668707 1.4156e-19)
(0.112917 0.45059 0)
(0.122681 0.133694 -1.39649e-19)
(0.222003 -0.289085 0)
(0.374636 -0.655501 0)
(0.53663 -0.873928 -6.3583e-23)
(0.680865 -0.93504 6.7446e-20)
(0.792883 -0.867541 6.69785e-20)
(0.871443 -0.717518 6.637e-20)
(0.92015 -0.510665 0)
(0.93852 -0.288447 0)
(0.921024 -0.0970023 -6.4997e-20)
(0.901229 0.0882132 -1.28985e-19)
(0.84985 0.192745 1.27973e-19)
(0.734107 0.113755 0)
(0.641732 -0.114853 1.26046e-19)
(0.611248 -0.35321 -6.25478e-20)
(0.551872 -0.450384 0)
(0.421858 -0.342937 1.23331e-19)
(0.248488 -0.0813477 6.12541e-20)
(0.0121362 0.173495 -1.21605e-19)
(-0.251462 0.370392 -6.03208e-20)
(-0.507438 0.54856 0)
(-0.76006 0.716364 1.18527e-19)
(-1.03981 0.867311 1.17473e-19)
(-1.3434 1.00765 0)
(-1.63676 1.13873 1.15407e-19)
(-1.90875 1.23747 0)
(-2.14864 1.29199 1.13434e-19)
(-2.35084 1.30752 5.61274e-20)
(-2.52819 1.29142 0)
(-2.69642 1.24921 0)
(-2.86097 1.19391 0)
(-3.02394 1.13292 0)
(-3.18552 1.06937 0)
(-3.34627 1.00523 0)
(-3.50559 0.940801 1.06781e-19)
(-3.66253 0.876069 -1.5892e-19)
(-3.81579 0.810658 0)
(-3.96352 0.743865 0)
(-4.10371 0.674839 0)
(-4.23407 0.602786 -2.80557e-22)
(-4.35224 0.527181 1.02206e-19)
(-4.45578 0.447932 2.03216e-19)
(-4.5423 0.365402 -2.01705e-19)
(-4.60969 0.280418 -1.00202e-19)
(-4.6563 0.194268 9.91367e-20)
(-4.68119 0.108675 2.48208e-22)
(-4.68416 0.0254746 9.76702e-20)
(-4.66475 -0.0538152 0)
(-4.62352 -0.128429 9.577e-20)
(-4.56272 -0.197557 2.18213e-22)
(-4.48389 -0.261026 0)
(-4.38904 -0.319189 0)
(-4.27989 -0.372966 -9.1621e-20)
(-4.15829 -0.42359 0)
(-4.02597 -0.472601 0)
(-3.88467 -0.521784 8.84797e-20)
(-3.73623 -0.573164 1.74367e-19)
(-3.58266 -0.629037 -8.58893e-20)
(-3.42624 -0.691871 0)
(-3.26919 -0.763798 8.36498e-20)
(-3.11287 -0.845219 0)
(-2.9568 -0.931813 8.18048e-20)
(-2.79812 -1.00982 8.04151e-20)
(-2.63136 -1.0512 -1.59082e-19)
(-2.44638 -1.01467 -7.86261e-20)
(-2.22437 -0.861949 0)
(-1.93255 -0.581341 1.53302e-19)
(-1.5455 -0.221199 0)
(-1.11589 0.0274351 2.24162e-19)
(-0.755566 -0.0910127 1.47564e-19)
(-0.386785 -0.299129 1.45838e-19)
(-0.105014 -0.373783 -1.44142e-19)
(0.159041 -0.420318 2.13682e-19)
(0.413759 -0.41775 0)
(0.664307 -0.405447 0)
(0.921018 -0.389461 -1.37459e-19)
(1.18894 -0.333919 -2.03946e-19)
(1.4241 -0.210012 0)
(1.54563 -0.108381 6.66255e-20)
(1.52006 -0.130789 0)
(1.4351 -0.352131 -1.95902e-19)
(1.41979 -0.817936 1.15114e-22)
(1.49045 -1.23068 -2.18251e-22)
(1.71422 -1.17875 1.26274e-19)
(1.86757 -0.847832 0)
(1.91996 -0.31345 -1.24091e-19)
(1.92108 0.59243 3.15942e-22)
(1.55923 1.1407 0)
(1.40034 0.680926 0)
(1.04303 0.382439 0)
(0.149721 0.805698 1.16257e-19)
(-0.736437 1.25305 0)
(-1.37649 1.44022 0)
(-1.80046 1.40853 0)
(-2.09463 1.25677 0)
(-2.33324 1.07266 0)
(-2.54751 0.900809 1.10533e-19)
(-2.75069 0.756403 0)
(-2.94602 0.640312 1.08844e-19)
(-3.13377 0.548272 1.08187e-19)
(-3.31315 0.474451 -1.07518e-19)
(-3.48289 0.412939 0)
(-3.64146 0.358675 -1.06116e-19)
(-3.78666 0.307276 0)
(-3.91517 0.255348 -1.04586e-19)
(-4.02325 0.200818 1.03748e-19)
(-4.10724 0.142806 3.08851e-19)
(-4.1638 0.0812511 0)
(-4.19013 0.017175 3.02739e-19)
(-4.18487 -0.0478161 9.99722e-20)
(-4.14751 -0.112252 0)
(-4.07816 -0.174187 1.94342e-19)
(-3.97794 -0.232231 1.91458e-19)
(-3.84861 -0.285494 -2.82498e-19)
(-3.69239 -0.333585 0)
(-3.51162 -0.376619 -9.08974e-20)
(-3.3084 -0.415218 -8.92573e-20)
(-3.08433 -0.450314 -2.63017e-19)
(-2.8403 -0.482874 0)
(-2.5766 -0.513535 0)
(-2.29325 -0.542217 0)
(-1.99052 -0.567821 -8.11429e-20)
(-1.66985 -0.588059 0)
(-1.33474 -0.599722 0)
(-0.990975 -0.599731 7.63e-20)
(-0.645868 -0.586579 7.48761e-20)
(-0.30714 -0.560934 0)
(0.0156565 -0.525318 0)
(0.316856 -0.484649 1.41998e-19)
(0.595726 -0.441773 0)
(0.852234 -0.401052 -1.37334e-19)
(1.08887 -0.365297 -1.35191e-19)
(1.30937 -0.335885 0)
(1.51779 -0.313134 0)
(1.71806 -0.296797 1.28795e-19)
(1.91396 -0.286379 -6.84191e-23)
(2.10917 -0.280929 -6.27868e-23)
(2.30677 -0.278478 0)
(2.5083 -0.275809 2.40828e-19)
(2.71283 -0.26919 0)
(2.91652 -0.255721 0)
(3.11312 -0.233673 0)
(3.29504 -0.201736 -1.12495e-19)
(3.45333 -0.159515 0)
(3.57687 -0.109422 2.17667e-19)
(3.65511 -0.0554647 1.07042e-19)
(3.68358 0.000660424 0)
(3.66486 0.0574332 1.03599e-19)
(3.6105 0.115209 0)
(3.53506 0.177662 0)
(3.44307 0.239345 2.96125e-19)
(3.33048 0.288566 -1.94324e-19)
(3.19732 0.316222 0)
(3.04928 0.318045 -1.8829e-19)
(2.8922 0.293095 9.26448e-20)
(2.73134 0.247357 0)
(2.57231 0.193598 0)
(2.42255 0.14348 0)
(2.28885 0.102465 2.59578e-19)
(2.17533 0.0707904 0)
(2.08386 0.0465794 8.33114e-20)
(2.01442 0.0281533 0)
(1.96544 0.0145429 0)
(1.9339 0.00523136 0)
(1.91611 -0.000576964 0)
(1.90805 -0.00357557 0)
(1.90625 -0.00498939 0)
(1.90799 -0.00484325 1.4358e-19)
(1.9111 -0.00460101 0)
(1.91491 -0.00271451 6.85209e-20)
(1.91704 -0.00184368 -2.00703e-19)
(1.92047 0.00278301 0)
(1.91788 0.00392238 0)
(1.92205 0.0142911 1.24212e-19)
(1.90797 0.0140516 1.21073e-19)
(1.91896 0.035882 -1.17955e-19)
(1.87877 0.0314235 -1.14924e-19)
(0.0699072 0.279629 -2.13949e-19)
(0.157086 0.456926 -2.12328e-19)
(0.253968 0.333851 -1.40513e-19)
(0.460524 -0.102542 -6.96998e-20)
(0.712372 -0.606108 0)
(0.916829 -0.976685 1.37154e-19)
(1.04496 -1.14435 -6.80961e-20)
(1.10415 -1.13064 0)
(1.11528 -0.986521 -6.68993e-20)
(1.0981 -0.763387 0)
(1.05145 -0.504029 1.3211e-19)
(0.993305 -0.231164 0)
(0.907577 0.00832881 6.49959e-20)
(0.798778 0.21893 1.28992e-19)
(0.683917 0.361565 -1.27993e-19)
(0.540569 0.310216 0)
(0.425266 0.0503512 -1.26124e-19)
(0.278943 -0.0977111 0)
(0.016531 0.0263967 0)
(-0.280853 0.224759 -1.23371e-19)
(-0.549285 0.418721 0)
(-0.804187 0.61198 2.43804e-23)
(-1.05669 0.803755 0)
(-1.30673 0.995037 0)
(-1.54983 1.17184 3.53904e-23)
(-1.78087 1.31748 -1.17183e-19)
(-1.99047 1.42942 -1.163e-19)
(-2.17171 1.50599 -1.15189e-19)
(-2.32504 1.54577 0)
(-2.45586 1.55435 -2.26838e-19)
(-2.57378 1.54113 0)
(-2.689 1.5111 -1.11807e-19)
(-2.8093 1.46862 0)
(-2.9363 1.41866 0)
(-3.07068 1.36407 1.09369e-19)
(-3.21232 1.30638 0)
(-3.36051 1.24618 -1.0784e-19)
(-3.51354 1.18312 3.60718e-22)
(-3.6693 1.11656 2.12388e-19)
(-3.82512 1.04545 -2.11316e-19)
(-3.97803 0.968639 0)
(-4.12494 0.885042 0)
(-4.2626 0.793845 -1.03885e-19)
(-4.38785 0.694759 0)
(-4.49775 0.588153 -1.01711e-19)
(-4.58964 0.475096 1.00957e-19)
(-4.66115 0.357309 1.00179e-19)
(-4.71027 0.237115 0)
(-4.73572 0.117234 -9.85329e-20)
(-4.73742 0.000475117 -9.76581e-20)
(-4.71685 -0.110694 1.94094e-19)
(-4.67444 -0.214991 -9.57486e-20)
(-4.61069 -0.311075 -9.47478e-20)
(-4.52692 -0.398535 0)
(-4.42477 -0.477401 0)
(-4.3061 -0.548408 9.15924e-20)
(-4.17282 -0.612638 0)
(-4.02691 -0.671451 0)
(-3.8703 -0.726229 -1.76561e-19)
(-3.70515 -0.778366 -1.7432e-19)
(-3.53407 -0.829302 0)
(-3.3607 -0.88076 0)
(-3.18997 -0.934917 0)
(-3.02799 -0.994218 0)
(-2.88123 -1.06025 -1.63244e-19)
(-2.75488 -1.13054 1.61421e-19)
(-2.64903 -1.19221 1.59032e-19)
(-2.55045 -1.21561 3.14224e-19)
(-2.42324 -1.15853 0)
(-2.21087 -0.9933 1.70989e-23)
(-1.87033 -0.758854 0)
(-1.43077 -0.590732 -1.49242e-19)
(-1.01473 -0.606275 6.30307e-23)
(-0.679032 -0.696948 -1.45683e-19)
(-0.363052 -0.72316 1.44012e-19)
(-0.0661813 -0.721295 3.78236e-23)
(0.225912 -0.692238 0)
(0.509753 -0.683298 1.39053e-19)
(0.795994 -0.727707 1.37417e-19)
(1.14241 -0.734426 2.71788e-19)
(1.51734 -0.56025 0)
(1.78061 -0.291881 -1.33314e-19)
(1.85547 -0.125234 0)
(1.79696 -0.259355 2.61058e-19)
(1.74403 -0.759105 -1.2906e-19)
(1.70348 -1.25792 1.27556e-19)
(1.68477 -1.28593 -1.26263e-19)
(1.6038 -0.837349 -2.50693e-19)
(1.30142 0.0339833 1.24204e-19)
(0.964753 1.03994 -1.22595e-19)
(0.867905 1.25775 0)
(0.82185 0.95319 2.38568e-19)
(0.154918 1.17757 0)
(-0.694428 1.63522 2.33009e-19)
(-1.28779 1.84453 -2.30597e-19)