/*--------------------------------*- C++ -*----------------------------------*\
  =========                 |
  \\      /  F ield         | OpenFOAM: The Open Source CFD Toolbox
   \\    /   O peration     | Website:  https://openfoam.org
    \\  /    A nd           | Version:  7
     \\/     M anipulation  |
\*---------------------------------------------------------------------------*/
FoamFile
{
    version     2.0;
    format      ascii;
    class       volScalarField;
    location    "0.084";
    object      k;
}
// * * * * * * * * * * * * * * * * * * * * * * * * * * * * * * * * * * * * * //

dimensions      [0 2 -2 0 0 0 0];

internalField   nonuniform List<scalar> 
12225
(
1.93909e-05
1.79728e-05
1.68109e-05
1.53262e-05
1.40727e-05
1.28244e-05
1.09954e-05
9.8871e-06
9.44959e-06
8.79506e-06
7.36603e-06
6.16906e-06
5.28194e-06
4.55083e-06
3.83187e-06
4.0017e-06
3.51033e-06
7.88338e-06
1.99815e-05
1.98693e-05
1.97145e-05
1.94132e-05
1.90383e-05
1.87823e-05
1.83043e-05
1.75668e-05
1.72162e-05
1.71847e-05
1.73215e-05
1.74303e-05
1.73654e-05
1.69354e-05
1.54668e-05
1.46737e-05
1.35957e-05
1.33499e-05
2.00008e-05
1.92253e-05
1.90108e-05
1.89618e-05
1.88907e-05
1.88381e-05
1.87567e-05
1.86536e-05
1.86175e-05
1.8624e-05
1.8705e-05
1.88877e-05
1.8935e-05
1.89086e-05
1.87576e-05
1.82695e-05
1.79555e-05
1.74605e-05
2.03542e-05
2.00843e-05
1.9027e-05
1.67832e-05
1.68356e-05
1.71832e-05
1.7637e-05
1.78736e-05
1.79468e-05
1.79422e-05
1.78537e-05
1.77311e-05
1.76756e-05
1.762e-05
1.75534e-05
1.74496e-05
1.73983e-05
1.7353e-05
2.07481e-05
2.06091e-05
2.11142e-05
2.24434e-05
2.24821e-05
2.17441e-05
2.05673e-05
2.0049e-05
1.98267e-05
1.97082e-05
1.96199e-05
1.94928e-05
1.91776e-05
1.85901e-05
1.81233e-05
1.77827e-05
1.75497e-05
1.72918e-05
2.03831e-05
2.02913e-05
2.06731e-05
2.3016e-05
2.4429e-05
2.44411e-05
2.36929e-05
2.25837e-05
2.20685e-05
2.18686e-05
2.17937e-05
2.17154e-05
2.15302e-05
2.11799e-05
2.08528e-05
2.0294e-05
1.97027e-05
1.89165e-05
2.10947e-05
2.08815e-05
2.20485e-05
2.35068e-05
2.37417e-05
2.34153e-05
2.24858e-05
2.2048e-05
2.17083e-05
2.13259e-05
2.10402e-05
2.08968e-05
2.08422e-05
2.07796e-05
2.07062e-05
2.0584e-05
2.05112e-05
2.03506e-05
2.03015e-05
2.12292e-05
2.34778e-05
2.36038e-05
2.28885e-05
2.20396e-05
2.19286e-05
2.23844e-05
2.32736e-05
2.33187e-05
2.2819e-05
2.14412e-05
2.06004e-05
2.02628e-05
2.01997e-05
2.02246e-05
2.046e-05
2.1347e-05
2.01356e-05
2.11695e-05
2.417e-05
2.45651e-05
2.38268e-05
2.32531e-05
2.3649e-05
2.51781e-05
2.54745e-05
2.51741e-05
2.37885e-05
2.20443e-05
2.09405e-05
2.02856e-05
1.99995e-05
1.99638e-05
2.00536e-05
2.04594e-05
2.00905e-05
2.16965e-05
2.2996e-05
2.30818e-05
2.27428e-05
2.24516e-05
2.24814e-05
2.27713e-05
2.31447e-05
2.32506e-05
2.32123e-05
2.30186e-05
2.23422e-05
2.15506e-05
2.11763e-05
2.10735e-05
2.10765e-05
2.11892e-05
2.0137e-05
2.04201e-05
2.0988e-05
2.23437e-05
2.25502e-05
2.24e-05
2.19752e-05
2.1833e-05
2.1837e-05
2.19144e-05
2.19043e-05
2.16172e-05
2.09431e-05
2.06137e-05
2.05473e-05
2.05523e-05
2.0604e-05
2.08089e-05
2.02544e-05
2.05859e-05
2.08205e-05
2.13724e-05
2.17517e-05
2.1861e-05
2.19897e-05
2.24943e-05
2.33564e-05
2.34778e-05
2.32582e-05
2.23533e-05
2.12747e-05
2.06461e-05
2.03703e-05
2.03141e-05
2.03282e-05
2.04118e-05
2.0071e-05
2.03664e-05
2.10725e-05
2.12963e-05
2.12848e-05
2.13552e-05
2.18317e-05
2.43646e-05
2.84286e-05
2.94497e-05
2.88428e-05
2.57482e-05
2.29387e-05
2.16211e-05
2.1018e-05
2.07699e-05
2.06975e-05
2.06896e-05
2.086e-05
2.09154e-05
2.10499e-05
2.08842e-05
2.07244e-05
2.08939e-05
2.26051e-05
2.63196e-05
2.72852e-05
2.70533e-05
2.57485e-05
2.36117e-05
2.22561e-05
2.15349e-05
2.1178e-05
2.10205e-05
2.09588e-05
2.09309e-05
2.0398e-05
2.08522e-05
2.11666e-05
2.11682e-05
2.09376e-05
2.08487e-05
2.10812e-05
2.25909e-05
2.44872e-05
2.48247e-05
2.46041e-05
2.36924e-05
2.2628e-05
2.19167e-05
2.15167e-05
2.12622e-05
2.11475e-05
2.09746e-05
2.0293e-05
2.10719e-05
2.13005e-05
2.11953e-05
2.07157e-05
2.05831e-05
2.07501e-05
2.1493e-05
2.19123e-05
2.19678e-05
2.19296e-05
2.17282e-05
2.15664e-05
2.15428e-05
2.16073e-05
2.19682e-05
2.22682e-05
2.23135e-05
2.02146e-05
2.14565e-05
2.20108e-05
2.18989e-05
2.11057e-05
2.0575e-05
2.04775e-05
2.04963e-05
2.0658e-05
2.12485e-05
2.16282e-05
2.16469e-05
2.1582e-05
2.15282e-05
2.1517e-05
2.15264e-05
2.15508e-05
2.1554e-05
2.06488e-05
2.09636e-05
2.0842e-05
2.04794e-05
2.02419e-05
2.01796e-05
2.01814e-05
2.02056e-05
2.03595e-05
2.06871e-05
2.08718e-05
2.09561e-05
2.10364e-05
2.12006e-05
2.16371e-05
2.2106e-05
2.2299e-05
2.23043e-05
2.01614e-05
2.0435e-05
2.046e-05
2.04373e-05
2.03134e-05
2.02896e-05
2.03005e-05
2.03505e-05
2.06649e-05
2.10299e-05
2.11687e-05
2.11853e-05
2.11462e-05
2.10995e-05
2.11132e-05
2.12859e-05
2.15001e-05
2.15373e-05
2.03905e-05
2.13455e-05
2.1625e-05
2.14698e-05
2.07325e-05
2.03065e-05
2.02321e-05
2.03096e-05
2.06791e-05
2.08456e-05
2.08963e-05
2.09269e-05
2.093e-05
2.09166e-05
2.08424e-05
2.0732e-05
2.06669e-05
2.06485e-05
2.09182e-05
2.08088e-05
2.07894e-05
2.07621e-05
2.05994e-05
2.03683e-05
2.0322e-05
2.03734e-05
2.05271e-05
2.05994e-05
2.06124e-05
2.06044e-05
2.05537e-05
2.044e-05
2.03678e-05
2.03371e-05
2.03303e-05
2.03318e-05
2.01006e-05
2.02938e-05
2.07048e-05
2.0839e-05
2.08453e-05
2.08211e-05
2.08697e-05
2.14248e-05
2.27027e-05
2.29688e-05
2.28003e-05
2.19989e-05
2.1079e-05
2.06245e-05
2.04733e-05
2.04471e-05
2.04521e-05
2.04733e-05
2.02256e-05
2.03657e-05
2.04159e-05
2.04409e-05
2.04399e-05
2.04305e-05
2.0457e-05
2.08491e-05
2.20215e-05
2.23978e-05
2.23403e-05
2.19953e-05
2.11751e-05
2.06082e-05
2.03972e-05
2.03315e-05
2.03142e-05
2.03036e-05
2.03512e-05
2.06001e-05
2.05958e-05
2.06163e-05
2.07633e-05
2.09026e-05
2.09096e-05
2.08045e-05
2.06316e-05
2.06187e-05
2.07466e-05
2.12733e-05
2.15303e-05
2.14858e-05
2.11282e-05
2.07088e-05
2.04691e-05
2.03459e-05
2.12848e-05
2.11932e-05
2.06873e-05
2.0598e-05
2.06357e-05
2.06884e-05
2.06804e-05
2.05855e-05
2.04374e-05
2.03837e-05
2.03791e-05
2.03972e-05
2.04388e-05
2.04527e-05
2.04524e-05
2.04402e-05
2.03787e-05
2.02759e-05
2.01315e-05
2.0154e-05
2.10068e-05
2.26953e-05
2.28007e-05
2.20364e-05
2.12526e-05
2.08386e-05
2.06306e-05
2.05529e-05
2.05405e-05
2.05593e-05
2.06438e-05
2.06789e-05
2.06759e-05
2.06567e-05
2.05989e-05
2.04119e-05
2.00569e-05
2.00209e-05
2.00619e-05
2.02674e-05
2.03263e-05
2.03027e-05
2.01379e-05
1.99174e-05
1.98856e-05
1.98698e-05
1.9748e-05
1.92748e-05
1.87795e-05
1.82952e-05
1.76623e-05
1.71868e-05
1.71255e-05
1.71615e-05
2.02507e-05
1.82569e-05
1.52101e-05
1.58277e-05
1.78426e-05
2.09896e-05
2.40795e-05
2.99547e-05
3.90421e-05
4.78543e-05
5.39535e-05
5.69725e-05
5.81438e-05
5.87626e-05
5.97592e-05
6.19538e-05
6.80692e-05
8.18848e-05
3.61697e-05
0.000124991
0.000178954
0.000241492
0.000298633
0.000354463
0.00042258
0.000484243
0.000508916
0.000509746
0.000506365
0.000495821
0.000489497
0.000489048
0.000491677
0.000503765
0.00054931
0.000613688
0.00264676
0.00293803
0.00300501
0.00295569
0.00276106
0.00262854
0.00248218
0.00224505
0.00195406
0.00168805
0.00149883
0.00139218
0.00134573
0.00133125
0.00132863
0.00132829
0.00132555
0.00130931
0.00691859
0.00828657
0.00669066
0.00613319
0.00613942
0.00612834
0.00600393
0.00586814
0.00573231
0.00548205
0.00555829
0.00583062
0.00598015
0.00596161
0.00587636
0.00575823
0.00568099
0.00562717
0.00559329
0.00557068
0.00553878
0.00550605
0.00547955
0.00546013
0.00544315
0.00541556
0.00539943
0.0054018
0.00540739
0.00541601
0.00542703
0.00544104
0.0054487
0.00544887
0.00544257
0.0054248
0.005414
0.00541416
0.00542623
0.0055074
0.00642551
0.00635832
0.00544975
0.00593819
0.00679184
0.00726319
0.00785238
0.00904702
0.0112639
0.0147965
0.0189744
0.0208939
0.0210908
0.0199487
0.0193767
0.0193798
0.0195738
0.0197145
0.0197156
0.0182045
0.0171433
0.0175153
0.0211281
0.0360399
0.0753383
0.0952508
0.103775
0.123841
0.144108
0.142455
0.121247
0.0585565
0.0166595
0.00402722
0.0017811
0.00136587
0.00133385
0.00136
0.00127321
0.00110544
0.000881427
0.000688121
0.000505048
0.000355536
0.000284008
0.000239354
0.000224531
0.000231871
0.000241461
0.000245719
0.000250848
0.000253181
0.000254621
0.000255065
0.000254379
0.000250587
0.00024595
0.000241555
0.000235337
0.000228412
0.000221935
0.000214825
0.000207611
0.000201232
0.000195157
0.000188333
0.000181429
0.000175913
0.000170566
0.000164984
0.000159727
0.000154723
0.000150817
0.000146277
0.000142654
0.000139013
0.000135571
0.000132192
0.000128846
0.000125504
0.000122199
0.000118957
0.000115768
0.000112579
0.000109347
0.000106013
0.000102462
9.81568e-05
9.23902e-05
8.52981e-05
7.73731e-05
6.89577e-05
6.04335e-05
5.24973e-05
4.56337e-05
3.96845e-05
3.41673e-05
2.85346e-05
2.25914e-05
1.69598e-05
1.24056e-05
9.00661e-06
6.59305e-06
4.92419e-06
3.7706e-06
2.95498e-06
2.35681e-06
1.90023e-06
1.54103e-06
1.25583e-06
1.03056e-06
8.52497e-07
7.09771e-07
5.93644e-07
4.98181e-07
4.19249e-07
3.53735e-07
2.99154e-07
2.53425e-07
2.14865e-07
1.82088e-07
1.54072e-07
1.29972e-07
1.09248e-07
9.13374e-08
7.60369e-08
6.28147e-08
5.16201e-08
4.19366e-08
3.39505e-08
2.69911e-08
2.15449e-08
1.64259e-08
1.34318e-08
8.78389e-09
2.76548e-08
2.61162e-08
1.95335e-07
6.84648e-06
5.38437e-06
0.006376
0.00661004
0.00678782
0.00690692
0.00687192
0.00668581
0.0063972
0.00610465
0.00568656
0.00529932
0.00504172
0.00488798
0.00480066
0.00474516
0.00467089
0.0046024
0.00455268
0.00453053
0.00452846
0.00453258
0.00454673
0.00458065
0.00462597
0.00467891
0.00479868
0.00495102
0.00512987
0.00536989
0.00566572
0.00598763
0.00635044
0.0067158
0.00691931
0.00694273
0.00690797
0.00677059
0.00641125
0.00581509
0.00545468
0.00535504
0.00547962
0.00573892
0.0057334
0.00577979
0.00602134
0.0065324
0.00652
0.00669646
0.00810257
0.0101697
0.0115479
0.0109794
0.00879086
0.00669055
0.00562038
0.00533125
0.00552876
0.00572664
0.00582961
0.00586928
0.00598532
0.00654089
0.00830079
0.00980565
0.0163342
0.0277484
0.0266067
0.0350299
0.0757175
0.0751401
0.0399588
0.0158261
0.00518689
0.00198012
0.00112257
0.000857226
0.000753955
0.000666142
0.000590922
0.000539897
0.000513993
0.000503031
0.00050056
0.000514163
0.000539738
0.000557658
0.000585437
0.000612878
0.000633036
0.000658001
0.000673552
0.00068426
0.000690091
0.000691906
0.000690058
0.000676135
0.000654541
0.00063213
0.000608188
0.000585833
0.000563854
0.000538772
0.000515746
0.000495578
0.000477095
0.000458662
0.000440048
0.000424745
0.000411582
0.000397117
0.000384616
0.000369566
0.000354899
0.00033855
0.000323333
0.000308062
0.00029296
0.000277528
0.000261525
0.000244543
0.000227226
0.000210996
0.000197421
0.00018611
0.000176314
0.000168336
0.000162297
0.000158174
0.000155884
0.000154642
0.00015349
0.000151246
0.000146795
0.000139601
0.000130223
0.000119844
0.000109126
9.86955e-05
8.90617e-05
8.00841e-05
7.12753e-05
6.26982e-05
5.46431e-05
4.73536e-05
4.08672e-05
3.50733e-05
2.98787e-05
2.52188e-05
2.10094e-05
1.72438e-05
1.4053e-05
1.15231e-05
9.52503e-06
7.90374e-06
6.5619e-06
5.44244e-06
4.51105e-06
3.74332e-06
3.11657e-06
2.60811e-06
2.19494e-06
1.85707e-06
1.57664e-06
1.34198e-06
1.13962e-06
9.72021e-07
8.23674e-07
6.97836e-07
5.80585e-07
4.86079e-07
3.97597e-07
3.30715e-07
2.61352e-07
2.2288e-07
1.58984e-07
1.46075e-07
1.15682e-07
1.16619e-07
8.33332e-07
1.07834e-06
0.00543558
0.00711997
0.00756433
0.00734026
0.0067512
0.00589135
0.00528778
0.00478265
0.00454864
0.00447696
0.00448491
0.0045288
0.00462971
0.00475193
0.00484294
0.00494089
0.00506107
0.00523638
0.00545126
0.00566531
0.00601135
0.00644436
0.00703151
0.00786826
0.00884201
0.00991623
0.0110385
0.0119612
0.0126429
0.0131693
0.0135115
0.0136603
0.0136726
0.0136504
0.0135943
0.0134693
0.0132053
0.0125605
0.011015
0.00911058
0.00748237
0.00659358
0.0061826
0.00595955
0.00594762
0.00597953
0.00602788
0.00610216
0.00634305
0.00689157
0.00707217
0.0066773
0.00529152
0.00459812
0.00468941
0.00489565
0.00518094
0.00557061
0.00580269
0.0058933
0.00595244
0.00627232
0.00744722
0.010784
0.0107946
0.0108942
0.0158451
0.0395183
0.0364383
0.0181169
0.00760798
0.00300986
0.00133487
0.000822675
0.000662477
0.000605491
0.000579409
0.000558903
0.0005475
0.000543623
0.000543904
0.000559719
0.000585603
0.000635314
0.000695992
0.000773719
0.00087277
0.00097976
0.00108878
0.00118389
0.00125986
0.00131008
0.00133215
0.00133994
0.00133675
0.00129884
0.00122224
0.00113398
0.00105368
0.00098182
0.000916444
0.000850039
0.000791424
0.000732726
0.000684238
0.000641456
0.000600325
0.000566937
0.000542689
0.000518474
0.000500238
0.000485215
0.000473381
0.000463033
0.000453426
0.000443182
0.000432406
0.000421113
0.000409109
0.000396117
0.0003803
0.000359522
0.000332535
0.000300676
0.000265681
0.000229003
0.00019677
0.000175307
0.00016134
0.00015321
0.000149338
0.000148007
0.000147854
0.000148136
0.000148164
0.000146461
0.000138557
0.000125289
0.000112775
0.000102236
9.33017e-05
8.51053e-05
7.72642e-05
6.97646e-05
6.28354e-05
5.67824e-05
5.17005e-05
4.74345e-05
4.37586e-05
4.04414e-05
3.71761e-05
3.37126e-05
3.00731e-05
2.6392e-05
2.27955e-05
1.93873e-05
1.62476e-05
1.34346e-05
1.09833e-05
8.90327e-06
7.18181e-06
5.7865e-06
4.67423e-06
3.80209e-06
3.12371e-06
2.59521e-06
2.18128e-06
1.84773e-06
1.58063e-06
1.35209e-06
1.16874e-06
9.95183e-07
8.63881e-07
7.20477e-07
6.27029e-07
4.99042e-07
4.42335e-07
3.14281e-07
3.17028e-07
2.93276e-07
0.0017274
0.00326236
0.00420318
0.00425619
0.00423621
0.00413933
0.00415552
0.0042471
0.00443661
0.00474426
0.00511964
0.00571948
0.00643357
0.00708586
0.00759998
0.00815237
0.00885056
0.00975735
0.0106899
0.0116345
0.0125928
0.0134655
0.0141215
0.0145987
0.0149328
0.0150542
0.0150633
0.0149319
0.0147294
0.0144925
0.0142747
0.0140859
0.0139226
0.0138046
0.0137468
0.0137223
0.0137129
0.0137147
0.0136444
0.013279
0.0121565
0.0105748
0.00920275
0.00798584
0.00705869
0.00650201
0.00621771
0.00613581
0.00614278
0.00620397
0.00627651
0.00625394
0.00604874
0.0053681
0.00503635
0.0050982
0.00525989
0.00575588
0.00640945
0.00641199
0.00609869
0.00619865
0.0072147
0.0100118
0.0126103
0.0204135
0.0280521
0.0277594
0.0112193
0.0045765
0.00192499
0.00100169
0.000724254
0.000654961
0.000642097
0.000639565
0.000644551
0.000644094
0.00064322
0.000647853
0.000668726
0.000730708
0.00084874
0.00101375
0.0012267
0.00151001
0.0018456
0.00218714
0.00248696
0.0027423
0.00293857
0.00301818
0.0030366
0.0030126
0.0029099
0.00273742
0.00251946
0.00228881
0.00204773
0.00181217
0.00161903
0.00144052
0.00130053
0.00118558
0.00108065
0.000970454
0.000852839
0.000744361
0.000656817
0.00058977
0.000541017
0.00050322
0.000475351
0.000454013
0.000436066
0.000422646
0.000411587
0.000404277
0.000400246
0.000399247
0.000401568
0.000403942
0.000401451
0.000393775
0.000381921
0.00036407
0.000334324
0.000289231
0.000238275
0.000193672
0.000167117
0.000153983
0.000149935
0.000150332
0.000155836
0.000164548
0.000169518
0.00017091
0.000170539
0.000167003
0.000154163
0.000136584
0.000120024
0.000104511
9.05773e-05
7.85153e-05
6.85364e-05
6.05876e-05
5.42518e-05
4.90923e-05
4.4782e-05
4.11781e-05
3.81342e-05
3.52731e-05
3.22799e-05
2.90606e-05
2.56922e-05
2.23167e-05
1.90504e-05
1.59622e-05
1.31138e-05
1.05582e-05
8.34053e-06
6.49039e-06
5.0128e-06
3.87944e-06
3.0359e-06
2.41521e-06
1.96234e-06
1.62435e-06
1.37053e-06
1.16809e-06
1.00795e-06
8.68582e-07
7.55655e-07
6.47906e-07
5.62912e-07
4.73653e-07
4.05824e-07
3.35934e-07
0.00126522
0.00230964
0.00313746
0.00344854
0.00397677
0.00442074
0.00487872
0.0056791
0.00670372
0.00769473
0.00841153
0.00909041
0.00984181
0.0106544
0.0114549
0.0123411
0.0133329
0.0138492
0.0139901
0.0140127
0.0139123
0.0135594
0.0131398
0.0124907
0.0115584
0.0106696
0.0100249
0.00954722
0.00919784
0.00896352
0.00886726
0.00884021
0.00885287
0.00894916
0.00910448
0.00926735
0.00943763
0.00959571
0.00978449
0.0100514
0.0103643
0.0105054
0.010474
0.0103187
0.00982498
0.00889863
0.00796522
0.00717343
0.00664851
0.00638818
0.00627939
0.00623365
0.00616468
0.00598439
0.00579144
0.00580731
0.00591852
0.00622704
0.00674782
0.00663332
0.00615015
0.00679298
0.0118719
0.0235074
0.0261526
0.0249785
0.0234153
0.00922764
0.00345581
0.00148828
0.000854827
0.000685087
0.000655165
0.000659974
0.000680726
0.000690069
0.00069057
0.000692008
0.000709575
0.000769504
0.000893068
0.00112795
0.00150217
0.00203639
0.00273456
0.00355755
0.00440566
0.00510206
0.00534665
0.005389
0.00535272
0.00522535
0.00499236
0.00461425
0.00420166
0.00384206
0.00339488
0.00301927
0.00268587
0.00234155
0.00204408
0.00173039
0.00150459
0.00140262
0.00134625
0.00128089
0.00121034
0.00113294
0.00103289
0.000907662
0.000779134
0.000661309
0.000565578
0.000491505
0.00043628
0.000398612
0.000363437
0.000334555
0.000311672
0.000293224
0.000279021
0.000274266
0.000283356
0.000306921
0.000336852
0.000363143
0.000372749
0.000368986
0.000349618
0.000312948
0.0002578
0.000201106
0.000163437
0.000145674
0.000140052
0.000140195
0.000146941
0.000161098
0.000168517
0.000170358
0.000169812
0.00016521
0.000150683
0.00013597
0.000123742
0.000112234
0.000100499
8.88702e-05
7.84526e-05
6.99279e-05
6.31717e-05
5.76312e-05
5.29848e-05
4.93712e-05
4.67552e-05
4.46379e-05
4.23879e-05
3.96161e-05
3.61885e-05
3.20628e-05
2.72731e-05
2.2102e-05
1.70596e-05
1.26296e-05
9.05282e-06
6.37955e-06
4.49997e-06
3.23139e-06
2.39059e-06
1.83431e-06
1.46086e-06
1.19916e-06
1.00537e-06
8.50524e-07
7.2577e-07
6.19353e-07
5.3289e-07
4.56865e-07
3.93329e-07
3.35528e-07
0.00162977
0.00288981
0.00380044
0.00491725
0.00564237
0.00615209
0.00678342
0.00748546
0.00833002
0.0099604
0.0109915
0.011127
0.0111503
0.0113733
0.0117447
0.0120129
0.0121067
0.0116673
0.010841
0.0102439
0.00926196
0.00849344
0.00759425
0.00712049
0.00684028
0.00665597
0.00653589
0.00648489
0.00647114
0.00653416
0.00665216
0.00684657
0.00709358
0.00738955
0.00771415
0.00805569
0.00838238
0.00866205
0.00883669
0.00891155
0.00888172
0.00871064
0.00850542
0.00832334
0.00821197
0.00816548
0.0081546
0.00813615
0.00804686
0.00771914
0.00715455
0.00672437
0.00658468
0.00633174
0.00610649
0.00611807
0.00622603
0.00644662
0.00641645
0.0060334
0.00594735
0.00873424
0.0215032
0.026845
0.0251011
0.0204578
0.00906491
0.00309817
0.00131219
0.000784438
0.000664515
0.000656211
0.00067724
0.000704313
0.000714367
0.000714391
0.000719269
0.000752172
0.000845848
0.00105909
0.00148138
0.00221432
0.00335632
0.00503652
0.0066226
0.00714944
0.0072657
0.00709816
0.00670202
0.00634394
0.00601053
0.0057361
0.00543445
0.00497379
0.00448772
0.00409274
0.00357487
0.00313519
0.00276199
0.0023955
0.00209958
0.00175533
0.00146395
0.00132606
0.00127018
0.00124964
0.00122393
0.00119714
0.00115439
0.00109237
0.00101399
0.000928179
0.000836046
0.00074732
0.000661922
0.000581649
0.000501814
0.00042767
0.000364366
0.000314832
0.000274979
0.000241932
0.000215822
0.000197036
0.00018667
0.000190541
0.000229613
0.000289748
0.000332445
0.000344029
0.000337283
0.000305033
0.000248708
0.000190893
0.000153007
0.000136322
0.000132191
0.000133382
0.000143655
0.000158165
0.000164239
0.000165072
0.000163696
0.000155656
0.000138851
0.000125793
0.000115167
0.000105015
9.47261e-05
8.49925e-05
7.68135e-05
7.05465e-05
6.57729e-05
6.18429e-05
5.83771e-05
5.53571e-05
5.28721e-05
5.08309e-05
4.88538e-05
4.63883e-05
4.2937e-05
3.83041e-05
3.27184e-05
2.67789e-05
2.1161e-05
1.62798e-05
1.22424e-05
8.9927e-06
6.42187e-06
4.47891e-06
3.13227e-06
2.33668e-06
1.8675e-06
1.51188e-06
1.19707e-06
9.29185e-07
7.16288e-07
5.57443e-07
4.39881e-07
3.5533e-07
0.00279142
0.0041739
0.00509069
0.00565102
0.0060342
0.00655933
0.00723296
0.00788395
0.00899416
0.0100074
0.0103042
0.0102954
0.00988806
0.00945801
0.00919969
0.00858729
0.00790495
0.00745558
0.0071921
0.00680139
0.00644124
0.00608844
0.00579612
0.00547959
0.00523669
0.0049381
0.00470385
0.00455063
0.00446739
0.00444118
0.00456227
0.00479683
0.00515392
0.00565794
0.00627305
0.00696185
0.0075955
0.00824248
0.00880384
0.00923774
0.00954796
0.0097767
0.00968702
0.00927444
0.00861499
0.00784287
0.00716108
0.00667684
0.00639766
0.00636124
0.00647946
0.00654271
0.00653679
0.00649183
0.00634246
0.00619702
0.00610458
0.00604805
0.00596012
0.00567574
0.00602388
0.0133598
0.0244798
0.0249062
0.0184898
0.00863165
0.00323422
0.00128763
0.00076063
0.00064499
0.000643345
0.000687521
0.000727832
0.000735644
0.000732906
0.000735843
0.000770224
0.000883557
0.00117373
0.00180573
0.00303573
0.00514554
0.00800592
0.00919771
0.0095341
0.00946887
0.00828665
0.00707358
0.00655953
0.00597928
0.0056237
0.00536674
0.00516141
0.00480839
0.0043942
0.00400945
0.00347988
0.00293418
0.00238356
0.00196684
0.00176472
0.00142227
0.00108767
0.000932415
0.000883488
0.000869264
0.000879446
0.000931633
0.000984819
0.00101919
0.00100545
0.000951673
0.000884721
0.00081703
0.000757701
0.000707253
0.000666907
0.000627639
0.000581562
0.00052061
0.000447341
0.000370839
0.000300052
0.000237034
0.000186436
0.000151037
0.000132644
0.000129136
0.000149163
0.000223199
0.000287379
0.000310313
0.000307242
0.000277363
0.000217764
0.000166208
0.000137405
0.000126797
0.000125606
0.000129213
0.000143494
0.00015368
0.000156221
0.000155694
0.000151336
0.000136629
0.000122249
0.000112116
0.000103536
9.48058e-05
8.58361e-05
7.7709e-05
7.14484e-05
6.70901e-05
6.37884e-05
6.06265e-05
5.72909e-05
5.41156e-05
5.15706e-05
4.97004e-05
4.79832e-05
4.56906e-05
4.23445e-05
3.79317e-05
3.27958e-05
2.74237e-05
2.22571e-05
1.76119e-05
1.36456e-05
1.04141e-05
7.89446e-06
5.99556e-06
4.55661e-06
3.42758e-06
2.51338e-06
1.80111e-06
1.26119e-06
8.77776e-07
6.13345e-07
4.31007e-07
0.00319948
0.0045958
0.00540812
0.00576158
0.00610804
0.00662914
0.00704721
0.00759873
0.00813964
0.00831744
0.00831205
0.00822895
0.00799571
0.00769835
0.00731161
0.00679811
0.00640353
0.00581574
0.00514176
0.00445963
0.00381842
0.00329204
0.00278897
0.00233584
0.00209013
0.00181246
0.00167482
0.00158509
0.00150937
0.00147323
0.00145877
0.00149333
0.00159128
0.00179354
0.00213324
0.00269763
0.003593
0.004763
0.00618282
0.0077281
0.00898482
0.0099449
0.0106245
0.0109812
0.0111483
0.011016
0.0103648
0.00907962
0.00744276
0.00604856
0.00527119
0.00513996
0.00528943
0.0057313
0.00588958
0.00590565
0.00586704
0.00582562
0.00575006
0.00554991
0.00659849
0.0170613
0.0237971
0.0181062
0.00859804
0.00351163
0.00141421
0.000773825
0.000637407
0.000627123
0.000675687
0.000743335
0.000756548
0.000750191
0.000749791
0.000773213
0.000876579
0.00117562
0.00191277
0.00350146
0.00655431
0.010951
0.0126591
0.0130896
0.012811
0.0102483
0.00747155
0.00632528
0.00502562
0.00404922
0.00356243
0.00342334
0.00341612
0.00345689
0.00346353
0.00326751
0.00290162
0.00238821
0.00192112
0.00164992
0.00135274
0.00104596
0.000877905
0.000793287
0.00075272
0.000723677
0.000694578
0.0006831
0.000686076
0.000709299
0.000753992
0.000792488
0.000806375
0.00079257
0.000757623
0.000718944
0.000690977
0.00067326
0.000656434
0.00063599
0.000606346
0.00055957
0.00049599
0.000426248
0.000337957
0.000236314
0.000157111
0.000113946
9.58334e-05
9.37645e-05
0.000112547
0.000190356
0.000257685
0.000276988
0.000271661
0.000234788
0.000177285
0.000139846
0.000123173
0.000119229
0.000120172
0.000128221
0.000140116
0.000144425
0.000144463
0.000141901
0.000130911
0.000116241
0.000106496
9.92712e-05
9.22922e-05
8.47016e-05
7.71082e-05
7.07483e-05
6.62598e-05
6.31744e-05
6.04638e-05
5.74258e-05
5.40923e-05
5.0974e-05
4.85263e-05
4.67957e-05
4.52485e-05
4.31906e-05
4.02066e-05
3.62913e-05
3.17337e-05
2.69389e-05
2.22693e-05
1.79939e-05
1.42609e-05
1.11363e-05
8.59324e-06
6.55266e-06
4.89016e-06
3.54073e-06
2.47729e-06
1.67219e-06
1.11345e-06
6.96265e-07
0.00344041
0.00493246
0.00556525
0.00581989
0.0060932
0.00641011
0.00662318
0.00701565
0.00731227
0.00741933
0.00743311
0.00705602
0.00642151
0.00577187
0.00509495
0.00436536
0.00363456
0.00301194
0.00248514
0.00206012
0.00179255
0.00154294
0.0014
0.00131703
0.00125562
0.00122447
0.00119826
0.00114085
0.00109276
0.00102878
0.000958696
0.000891119
0.000844474
0.000808355
0.00078726
0.000814377
0.000916522
0.00113795
0.00158325
0.00241507
0.00401528
0.00617451
0.00853251
0.010159
0.0111608
0.0116642
0.0119153
0.0121019
0.0119511
0.0106323
0.00805771
0.00574127
0.00466121
0.00447214
0.00455711
0.00496681
0.00518733
0.00531225
0.00529709
0.00528071
0.00783154
0.0194115
0.0204079
0.00984782
0.00411877
0.00166221
0.000838078
0.000639595
0.000615594
0.000654957
0.000749889
0.000774872
0.00077074
0.000761576
0.00076997
0.000840389
0.00108039
0.00174918
0.00338922
0.00695871
0.0135074
0.0168547
0.0177545
0.0177383
0.0154593
0.0111323
0.00892427
0.00675283
0.00467469
0.00375547
0.00271016
0.00227458
0.00203965
0.00197574
0.00202186
0.00206507
0.00211604
0.00203573
0.00183139
0.00164157
0.00128908
0.000993459
0.000833987
0.000749044
0.000709904
0.000678572
0.000642515
0.000618377
0.000604998
0.000602221
0.000606561
0.000615386
0.000630968
0.000655159
0.000679407
0.000690038
0.000687268
0.000677811
0.000669366
0.000660069
0.000646719
0.000621483
0.000572534
0.000510543
0.000455466
0.000393661
0.000294501
0.000185963
0.000115949
8.20777e-05
7.19367e-05
7.44766e-05
0.000106383
0.00019262
0.000239053
0.000245764
0.000232546
0.000183095
0.000140654
0.000120103
0.00011345
0.000113122
0.000116107
0.000125637
0.000130932
0.000131632
0.000130258
0.000123446
0.00010969
0.000100155
9.38917e-05
8.83778e-05
8.22035e-05
7.55066e-05
6.93255e-05
6.4682e-05
6.16608e-05
5.93515e-05
5.6777e-05
5.36763e-05
5.04596e-05
4.75903e-05
4.53505e-05
4.37546e-05
4.23553e-05
4.05408e-05
3.79456e-05
3.45535e-05
3.05737e-05
2.63062e-05
2.20384e-05
1.80111e-05
1.43902e-05
1.12648e-05
8.63439e-06
6.43367e-06
4.64575e-06
3.20504e-06
2.1763e-06
1.33695e-06
0.00390817
0.00524308
0.00563016
0.00580855
0.0060411
0.00624565
0.00643454
0.00663459
0.00669596
0.00643903
0.00571735
0.00494995
0.00420708
0.00351231
0.00294507
0.00240892
0.00205355
0.00186383
0.00171517
0.00164823
0.0016201
0.00161134
0.00165836
0.00180846
0.0019547
0.0020605
0.00210584
0.0021091
0.00196174
0.0018094
0.00155514
0.00131472
0.0010875
0.000890604
0.000736295
0.000644318
0.000580133
0.000553999
0.000547817
0.000634287
0.0008804
0.00147645
0.00277281
0.0054194
0.00842953
0.0103849
0.0115568
0.012368
0.0131392
0.0134682
0.0131447
0.0113405
0.00733785
0.00513335
0.0044852
0.00443072
0.00453455
0.00475167
0.00477033
0.00507383
0.0103818
0.0199106
0.0137593
0.00552284
0.00217939
0.000985849
0.000662131
0.000611061
0.000631947
0.000741423
0.000793413
0.000802639
0.000779824
0.000777099
0.000823551
0.00103686
0.00168888
0.00335414
0.00704335
0.0136104
0.0205778
0.0235708
0.0247986
0.0252495
0.0244238
0.0201344
0.01581
0.0102832
0.00730653
0.00518776
0.00313536
0.00224295
0.00179786
0.00157124
0.00149988
0.00149823
0.00152238
0.00159688
0.00166113
0.00154048
0.00123164
0.000968091
0.000811259
0.000711851
0.000649588
0.000599114
0.000577182
0.000566877
0.000558267
0.000553459
0.000552054
0.000553674
0.000562599
0.000581981
0.000602102
0.00062313
0.000645269
0.00065769
0.000660837
0.000659055
0.000651629
0.000636265
0.000603641
0.000541379
0.000477992
0.000430368
0.000385629
0.000310518
0.000204407
0.00012257
7.7225e-05
6.05268e-05
5.93468e-05
7.23459e-05
0.000138213
0.000202989
0.000220456
0.000216193
0.000182854
0.000139066
0.000116727
0.000108081
0.000106595
0.000107492
0.000112702
0.000118228
0.000119678
0.000119036
0.000114949
0.00010349
9.43307e-05
8.86607e-05
8.42055e-05
7.91054e-05
7.322e-05
6.7514e-05
6.29277e-05
5.97619e-05
5.76374e-05
5.5644e-05
5.3093e-05
5.005e-05
4.70331e-05
4.43838e-05
4.22686e-05
4.07551e-05
3.95509e-05
3.80914e-05
3.59373e-05
3.29878e-05
2.93764e-05
2.53546e-05
2.1221e-05
1.7242e-05
1.36397e-05
1.04756e-05
7.82866e-06
5.57968e-06
3.92298e-06
2.49785e-06
0.00408297
0.00536934
0.00563142
0.0057824
0.00596916
0.00607673
0.00612567
0.006053
0.00553428
0.00474207
0.0039534
0.003254
0.00273209
0.00237417
0.00212488
0.00197016
0.00189717
0.0018726
0.00187236
0.00208529
0.00242432
0.00290278
0.00327059
0.00356471
0.00371327
0.00379262
0.00382386
0.0038335
0.00379883
0.00372173
0.00354875
0.00323573
0.00273678
0.00212184
0.00151266
0.00107058
0.000746668
0.000550402
0.000460885
0.000411341
0.000378639
0.000427684
0.000664027
0.00135453
0.00309661
0.00661088
0.00943549
0.0115121
0.0130939
0.0140554
0.0146171
0.0145661
0.0134908
0.00902984
0.00553351
0.00460851
0.00450848
0.00448453
0.00444096
0.00522348
0.0130431
0.0190896
0.00898088
0.0033059
0.00132941
0.000738471
0.000622027
0.000616934
0.000705442
0.000805223
0.000832721
0.000813624
0.00079146
0.000796975
0.000881572
0.00119704
0.00206026
0.00436784
0.0094578
0.0185847
0.0287268
0.0334006
0.0379858
0.040893
0.0417655
0.0386437
0.0304567
0.0232338
0.0146291
0.00963994
0.00530695
0.00297995
0.00193277
0.00147266
0.00127758
0.001236
0.00123803
0.0011993
0.00112033
0.00102641
0.00086153
0.000747946
0.000672233
0.000618728
0.000553287
0.000513313
0.00050093
0.000496456
0.000496085
0.000496621
0.000498358
0.000501138
0.000505374
0.000514439
0.000532823
0.000557688
0.000582061
0.000602165
0.000614627
0.000620115
0.000621641
0.000619594
0.000604653
0.000553662
0.000484439
0.00043166
0.000394216
0.000356418
0.00029417
0.000200388
0.000120989
7.32942e-05
5.39911e-05
5.14883e-05
5.95147e-05
0.000110805
0.000180152
0.000202428
0.000201044
0.000176574
0.000134711
0.00011247
0.000103073
0.000100762
0.00010099
0.000103733
0.000108879
0.000110708
0.000110439
0.000107556
9.79099e-05
8.92326e-05
8.40564e-05
8.01762e-05
7.57987e-05
7.06599e-05
6.54407e-05
6.09728e-05
5.76752e-05
5.55799e-05
5.40789e-05
5.21845e-05
4.95132e-05
4.65097e-05
4.3684e-05
4.12224e-05
3.92483e-05
3.79287e-05
3.70324e-05
3.59215e-05
3.40323e-05
3.11993e-05
2.75959e-05
2.35137e-05
1.93604e-05
1.53803e-05
1.18886e-05
8.7727e-06
6.38576e-06
4.23369e-06
0.00405581
0.00535073
0.00561133
0.00573222
0.0058066
0.00582074
0.00563358
0.00506593
0.00423871
0.00345477
0.00286445
0.00247769
0.00225743
0.00214874
0.00207307
0.00204266
0.0021077
0.00238865
0.0029539
0.00348374
0.00384017
0.00400463
0.00407563
0.00409796
0.00409976
0.00409785
0.0041055
0.00413285
0.00418
0.00422927
0.00424387
0.00422294
0.00417529
0.00402795
0.00356579
0.00270553
0.00179674
0.00108135
0.000641011
0.000431741
0.000337748
0.000291387
0.000271375
0.000375451
0.00081741
0.00213462
0.00567291
0.00903991