/*--------------------------------*- C++ -*----------------------------------*\
  =========                 |
  \\      /  F ield         | OpenFOAM: The Open Source CFD Toolbox
   \\    /   O peration     | Website:  https://openfoam.org
    \\  /    A nd           | Version:  7
     \\/     M anipulation  |
\*---------------------------------------------------------------------------*/
FoamFile
{
    version     2.0;
    format      ascii;
    class       volScalarField;
    location    "0.084";
    object      k_0;
}
// * * * * * * * * * * * * * * * * * * * * * * * * * * * * * * * * * * * * * //

dimensions      [0 2 -2 0 0 0 0];

internalField   nonuniform List<scalar> 
12225
(
1.93904e-05
1.79733e-05
1.68112e-05
1.53248e-05
1.40741e-05
1.28202e-05
1.09911e-05
9.89422e-06
9.45988e-06
8.79818e-06
7.36067e-06
6.16646e-06
5.28043e-06
4.54886e-06
3.83192e-06
4.00727e-06
3.50833e-06
7.89428e-06
1.99814e-05
1.98696e-05
1.97146e-05
1.94114e-05
1.90388e-05
1.87828e-05
1.82991e-05
1.75642e-05
1.72252e-05
1.71998e-05
1.73467e-05
1.74516e-05
1.73804e-05
1.6925e-05
1.54328e-05
1.46572e-05
1.35879e-05
1.3348e-05
2.00007e-05
1.92237e-05
1.90115e-05
1.89612e-05
1.88903e-05
1.88378e-05
1.87557e-05
1.86544e-05
1.86206e-05
1.86283e-05
1.8716e-05
1.88971e-05
1.89404e-05
1.89111e-05
1.87513e-05
1.82525e-05
1.7944e-05
1.74552e-05
2.0354e-05
2.00793e-05
1.9019e-05
1.68056e-05
1.68636e-05
1.7206e-05
1.765e-05
1.78792e-05
1.79474e-05
1.79402e-05
1.78445e-05
1.7723e-05
1.76684e-05
1.76123e-05
1.75447e-05
1.74426e-05
1.73939e-05
1.73517e-05
2.07686e-05
2.05985e-05
2.11547e-05
2.24919e-05
2.2508e-05
2.17171e-05
2.05536e-05
2.00509e-05
1.98364e-05
1.97211e-05
1.96324e-05
1.95003e-05
1.91673e-05
1.85735e-05
1.81084e-05
1.77709e-05
1.75377e-05
1.72833e-05
2.03686e-05
2.02789e-05
2.06971e-05
2.31074e-05
2.44523e-05
2.44396e-05
2.36413e-05
2.25519e-05
2.20568e-05
2.18677e-05
2.17962e-05
2.17162e-05
2.15224e-05
2.11704e-05
2.08384e-05
2.02716e-05
1.96731e-05
1.88896e-05
2.09642e-05
2.08403e-05
2.21157e-05
2.35393e-05
2.37463e-05
2.33855e-05
2.24513e-05
2.20306e-05
2.16921e-05
2.13116e-05
2.10317e-05
2.0893e-05
2.08391e-05
2.07758e-05
2.07014e-05
2.05805e-05
2.05078e-05
2.03508e-05
2.02943e-05
2.12727e-05
2.35041e-05
2.35941e-05
2.28435e-05
2.20202e-05
2.19278e-05
2.24287e-05
2.32993e-05
2.33254e-05
2.27764e-05
2.13862e-05
2.05746e-05
2.0255e-05
2.01997e-05
2.02298e-05
2.04923e-05
2.14257e-05
2.0136e-05
2.12333e-05
2.42224e-05
2.45545e-05
2.37847e-05
2.3246e-05
2.36923e-05
2.52247e-05
2.54724e-05
2.51441e-05
2.36958e-05
2.19779e-05
2.08994e-05
2.02644e-05
1.99955e-05
1.99678e-05
2.00681e-05
2.05075e-05
2.01e-05
2.17689e-05
2.30113e-05
2.30754e-05
2.27217e-05
2.24467e-05
2.24832e-05
2.27849e-05
2.31492e-05
2.32468e-05
2.32038e-05
2.30002e-05
2.22997e-05
2.15257e-05
2.11688e-05
2.10751e-05
2.10817e-05
2.12095e-05
2.01459e-05
2.04344e-05
2.10229e-05
2.23685e-05
2.25502e-05
2.23883e-05
2.1962e-05
2.18293e-05
2.1836e-05
2.1913e-05
2.18959e-05
2.15817e-05
2.09144e-05
2.06049e-05
2.05463e-05
2.05532e-05
2.06104e-05
2.08329e-05
2.02687e-05
2.06008e-05
2.0842e-05
2.13936e-05
2.17607e-05
2.18649e-05
2.19985e-05
2.25329e-05
2.33725e-05
2.3473e-05
2.32346e-05
2.22921e-05
2.12319e-05
2.06249e-05
2.03645e-05
2.03154e-05
2.03318e-05
2.04227e-05
2.00487e-05
2.03858e-05
2.10911e-05
2.1293e-05
2.12887e-05
2.13633e-05
2.18713e-05
2.45476e-05
2.85249e-05
2.94423e-05
2.87604e-05
2.55551e-05
2.28403e-05
2.15745e-05
2.09975e-05
2.07629e-05
2.06967e-05
2.06906e-05
2.0677e-05
2.09044e-05
2.1044e-05
2.08748e-05
2.07224e-05
2.0911e-05
2.27459e-05
2.63958e-05
2.72736e-05
2.70123e-05
2.56349e-05
2.35204e-05
2.22032e-05
2.15069e-05
2.11645e-05
2.10148e-05
2.09566e-05
2.09288e-05
2.03398e-05
2.08652e-05
2.1173e-05
2.1168e-05
2.09283e-05
2.08476e-05
2.10994e-05
2.26749e-05
2.45162e-05
2.48136e-05
2.45749e-05
2.36312e-05
2.25829e-05
2.18875e-05
2.14987e-05
2.12513e-05
2.11381e-05
2.09637e-05
2.03121e-05
2.10895e-05
2.13008e-05
2.11799e-05
2.06979e-05
2.05808e-05
2.07657e-05
2.15231e-05
2.19192e-05
2.19671e-05
2.19242e-05
2.17143e-05
2.15611e-05
2.15421e-05
2.1616e-05
2.1995e-05
2.22788e-05
2.23161e-05
2.02377e-05
2.14917e-05
2.2011e-05
2.18778e-05
2.10653e-05
2.05637e-05
2.0476e-05
2.0498e-05
2.06719e-05
2.12761e-05
2.1633e-05
2.16445e-05
2.15777e-05
2.15274e-05
2.15179e-05
2.15287e-05
2.15522e-05
2.15539e-05
2.0675e-05
2.09676e-05
2.08309e-05
2.04657e-05
2.02363e-05
2.01786e-05
2.01813e-05
2.02077e-05
2.03728e-05
2.06989e-05
2.08781e-05
2.09603e-05
2.1043e-05
2.12153e-05
2.16668e-05
2.21203e-05
2.2296e-05
2.22948e-05
2.01705e-05
2.04397e-05
2.04604e-05
2.04359e-05
2.03098e-05
2.02884e-05
2.02992e-05
2.03552e-05
2.06857e-05
2.10418e-05
2.11726e-05
2.11859e-05
2.11429e-05
2.10983e-05
2.11152e-05
2.12997e-05
2.15017e-05
2.1532e-05
2.0419e-05
2.13677e-05
2.1632e-05
2.14589e-05
2.07034e-05
2.02973e-05
2.02309e-05
2.03159e-05
2.06898e-05
2.08457e-05
2.08985e-05
2.09279e-05
2.09302e-05
2.0915e-05
2.08357e-05
2.07271e-05
2.0665e-05
2.06481e-05
2.08844e-05
2.08012e-05
2.0788e-05
2.07604e-05
2.05897e-05
2.03631e-05
2.03213e-05
2.03774e-05
2.05322e-05
2.06012e-05
2.06127e-05
2.06038e-05
2.05486e-05
2.0435e-05
2.03652e-05
2.03364e-05
2.03304e-05
2.03322e-05
2.01029e-05
2.03035e-05
2.07147e-05
2.08422e-05
2.08464e-05
2.08208e-05
2.08746e-05
2.1464e-05
2.27115e-05
2.29444e-05
2.27603e-05
2.19304e-05
2.10384e-05
2.06078e-05
2.04692e-05
2.04471e-05
2.04534e-05
2.04749e-05
2.0235e-05
2.03689e-05
2.0417e-05
2.0441e-05
2.04394e-05
2.04299e-05
2.04592e-05
2.08793e-05
2.20413e-05
2.23789e-05
2.23123e-05
2.19461e-05
2.11264e-05
2.05864e-05
2.03896e-05
2.03292e-05
2.03134e-05
2.03027e-05
2.03646e-05
2.06007e-05
2.05964e-05
2.06184e-05
2.07718e-05
2.09063e-05
2.09104e-05
2.0796e-05
2.06277e-05
2.06187e-05
2.07607e-05
2.1298e-05
2.15313e-05
2.14743e-05
2.1097e-05
2.06885e-05
2.04575e-05
2.03396e-05
2.132e-05
2.11837e-05
2.06725e-05
2.05943e-05
2.06382e-05
2.06893e-05
2.06795e-05
2.05783e-05
2.04328e-05
2.03824e-05
2.0379e-05
2.03992e-05
2.04402e-05
2.04529e-05
2.04522e-05
2.04383e-05
2.03715e-05
2.02697e-05
2.01273e-05
2.01542e-05
2.10446e-05
2.26811e-05
2.2757e-05
2.19856e-05
2.12274e-05
2.0825e-05
2.06243e-05
2.05512e-05
2.05408e-05
2.05627e-05
2.065e-05
2.0682e-05
2.06783e-05
2.06578e-05
2.05956e-05
2.03948e-05
2.00585e-05
2.00202e-05
2.00656e-05
2.0274e-05
2.0328e-05
2.03025e-05
2.01302e-05
1.9916e-05
1.98865e-05
1.98669e-05
1.97324e-05
1.92422e-05
1.87565e-05
1.82673e-05
1.76308e-05
1.71699e-05
1.71199e-05
1.71617e-05
2.02527e-05
1.82635e-05
1.52157e-05
1.5841e-05
1.78439e-05
2.09469e-05
2.40587e-05
3.00332e-05
3.91585e-05
4.7875e-05
5.38116e-05
5.67003e-05
5.78103e-05
5.84301e-05
5.94728e-05
6.1796e-05
6.8378e-05
8.25789e-05
3.63153e-05
0.000124267
0.000179061
0.000241269
0.000298175
0.000354426
0.000422937
0.000483919
0.000507524
0.000508143
0.000504596
0.000493993
0.000488097
0.000487843
0.000490799
0.00050401
0.000552629
0.000616417
0.00267657
0.00294881
0.00301101
0.00295665
0.00275785
0.0026275
0.00247868
0.00223825
0.00194615
0.00168165
0.00149521
0.00139121
0.00134652
0.0013329
0.00133056
0.00133022
0.00132723
0.00130974
0.00692165
0.00828909
0.00669214
0.0061339
0.00614
0.00612897
0.00600463
0.00586878
0.00573309
0.00548279
0.00555948
0.00583263
0.0059819
0.00596313
0.00587721
0.0057591
0.00568191
0.00562809
0.00559424
0.00557152
0.00553948
0.00550675
0.00548034
0.005461
0.00544397
0.00541635
0.00540033
0.00540273
0.00540829
0.00541682
0.00542769
0.00544151
0.00544901
0.00544913
0.00544276
0.00542522
0.00541479
0.00541519
0.00542749
0.00551047
0.00643547
0.00635843
0.00544641
0.00594182
0.00679485
0.00726568
0.00785612
0.00905326
0.011272
0.0148025
0.0189698
0.0208813
0.021074
0.0199372
0.0193681
0.0193833
0.0195847
0.0197352
0.0197427
0.0182332
0.0171706
0.0175556
0.0212041
0.0363125
0.0756532
0.0953876
0.103884
0.124128
0.144056
0.142267
0.120638
0.0576987
0.0163094
0.0039596
0.0017681
0.00136333
0.00133322
0.00135914
0.00127147
0.00110381
0.000879889
0.000686768
0.000505034
0.000355149
0.000283738
0.000239152
0.000224313
0.000231435
0.000241096
0.000245351
0.000250491
0.000252834
0.000254295
0.000254748
0.000254114
0.00025039
0.000245762
0.000241397
0.00023523
0.000228315
0.000221847
0.000214758
0.000207542
0.000201154
0.000195091
0.000188281
0.000181369
0.000175842
0.000170499
0.000164919
0.00015966
0.000154651
0.000150745
0.000146208
0.000142582
0.000138943
0.000135502
0.000132124
0.00012878
0.000125443
0.000122142
0.000118906
0.000115721
0.000112535
0.000109307
0.000105972
0.000102419
9.80923e-05
9.23023e-05
8.5194e-05
7.72609e-05
6.88425e-05
6.03236e-05
5.24023e-05
4.55556e-05
3.96185e-05
3.41065e-05
2.84741e-05
2.25336e-05
1.69118e-05
1.23698e-05
8.98143e-06
6.57587e-06
4.9125e-06
3.76243e-06
2.94898e-06
2.35218e-06
1.89652e-06
1.53801e-06
1.25338e-06
1.0286e-06
8.50907e-07
7.08468e-07
5.92567e-07
4.97288e-07
4.18509e-07
3.53122e-07
2.98645e-07
2.53001e-07
2.14509e-07
1.81787e-07
1.53816e-07
1.29753e-07
1.09061e-07
9.11776e-08
7.59001e-08
6.26984e-08
5.15212e-08
4.18539e-08
3.38812e-08
2.69343e-08
2.14975e-08
1.63893e-08
1.33996e-08
8.76209e-09
2.76121e-08
2.60825e-08
1.95393e-07
6.84682e-06
5.38178e-06
0.00637838
0.00661271
0.00678988
0.00690764
0.0068723
0.00668568
0.00639723
0.00610464
0.00568654
0.00529898
0.00504111
0.0048875
0.00480025
0.0047447
0.00467052
0.00460229
0.00455297
0.00453122
0.00452925
0.00453338
0.00454756
0.00458163
0.00462702
0.00468045
0.00480072
0.00495272
0.00513128
0.00537089
0.00566515
0.00598533
0.00634678
0.00671001
0.00691052
0.00693264
0.00689729
0.00675885
0.00639631
0.00580468
0.00545021
0.00535421
0.00548208
0.00573962
0.00573454
0.00578185
0.00602848
0.00653506
0.00651933
0.0066979
0.00810778
0.010163
0.0115229
0.0109442
0.00875646
0.00666698
0.00560666
0.00532842
0.00552789
0.00572607
0.00582886
0.00586855
0.00598553
0.00654692
0.00831337
0.0098141
0.0164746
0.0277094
0.0265937
0.0352759
0.076155
0.0748196
0.0395012
0.0155835
0.00510212
0.0019587
0.00111607
0.000854327
0.000752016
0.000664456
0.000589596
0.000538919
0.00051328
0.000502536
0.000500134
0.000513495
0.000538998
0.000556819
0.000584208
0.000611657
0.00063165
0.000656467
0.00067212
0.000682789
0.000688721
0.000690569
0.000688905
0.000675348
0.000653964
0.00063168
0.00060782
0.000585507
0.000563637
0.000538639
0.000515602
0.000495435
0.000476977
0.000458578
0.000439965
0.000424635
0.000411476
0.000397018
0.000384477
0.000369377
0.000354661
0.000338286
0.000323035
0.000307732
0.000292595
0.000277126
0.000261083
0.000244071
0.000226778
0.000210616
0.00019714
0.000185864
0.000176114
0.000168188
0.000162197
0.000158122
0.000155867
0.000154641
0.000153486
0.000151219
0.00014673
0.000139496
0.000130092
0.000119703
0.000108986
9.8566e-05
8.89453e-05
7.99762e-05
7.11736e-05
6.26048e-05
5.45602e-05
4.72815e-05
4.08044e-05
3.50178e-05
2.98291e-05
2.5174e-05
2.0969e-05
1.72086e-05
1.40243e-05
1.15005e-05
9.50678e-06
7.88863e-06
6.54922e-06
5.43182e-06
4.50224e-06
3.73611e-06
3.11073e-06
2.60341e-06
2.19116e-06
1.854e-06
1.57412e-06
1.33987e-06
1.13785e-06
9.7051e-07
8.22355e-07
6.96655e-07
5.79595e-07
4.85212e-07
3.96898e-07
3.30095e-07
2.60878e-07
2.22409e-07
1.58656e-07
1.45789e-07
1.15429e-07
1.16382e-07
8.33284e-07
1.07772e-06
0.00544035
0.00712377
0.00756608
0.0073418
0.00675282
0.00589237
0.00528817
0.00478236
0.00454797
0.00447666
0.00448471
0.00452872
0.00462972
0.00475214
0.00484343
0.00494212
0.00506247
0.00523805
0.00545311
0.00566788
0.00601522
0.00644938
0.0070374
0.00787422
0.0088463
0.00991836
0.011038
0.0119582
0.0126395
0.0131667
0.01351
0.0136595
0.0136721
0.0136501
0.0135937
0.0134672
0.0131998
0.0125448
0.0109878
0.00908236
0.00746406
0.00658402
0.00617726
0.00595851
0.0059479
0.00598019
0.0060289
0.00610402
0.0063478
0.00689091
0.00706348
0.00665959
0.00527306
0.0045922
0.00468837
0.00489532
0.00518243
0.00557177
0.0058019
0.00589164
0.00595079
0.00627281
0.00746488
0.0107881
0.0107787
0.0108885
0.0160127
0.0397832
0.0362331
0.0179276
0.0075096
0.00296902
0.00132137
0.000818249
0.000660515
0.000604314
0.000578546
0.000558385
0.000546981
0.000543094
0.000543522
0.000559186
0.0005846
0.000633536
0.000693639
0.000770413
0.000868476
0.000974612
0.00108297
0.00117787
0.00125379
0.00130459
0.00132705
0.00133508
0.0013325
0.00129609
0.00122066
0.00113279
0.00105263
0.000980985
0.000915874
0.000849682
0.000790936
0.000732473
0.00068398
0.000641277
0.000600233
0.000566866
0.000542671
0.000518493
0.000500292
0.000485317
0.000473512
0.000463179
0.000453582
0.000443303
0.000432513
0.000421197
0.00040916
0.000396104
0.000380132
0.00035915
0.000331953
0.00029998
0.000264896
0.000228194
0.000196185
0.000174958
0.00016113
0.000153115
0.000149316
0.000148025
0.000147887
0.000148176
0.000148194
0.000146436
0.000138395
0.00012512
0.000112625
0.00010211
9.31919e-05
8.50043e-05
7.71691e-05
6.96758e-05
6.27564e-05
5.67159e-05
5.1646e-05
4.73894e-05
4.37199e-05
4.04054e-05
3.71389e-05
3.36729e-05
3.0032e-05
2.6351e-05
2.2756e-05
1.93504e-05
1.6214e-05
1.34049e-05
1.09579e-05
8.882e-06
7.16443e-06
5.77258e-06
4.66327e-06
3.79358e-06
3.11714e-06
2.59012e-06
2.1773e-06
1.84456e-06
1.57806e-06
1.34997e-06
1.16694e-06
9.93657e-07
8.62547e-07
7.19323e-07
6.25997e-07
4.98175e-07
4.41541e-07
3.13655e-07
3.16465e-07
2.92763e-07
0.00172923
0.0032662
0.00420563
0.00425743
0.0042361
0.0041384
0.00415472
0.0042462
0.0044354
0.00474344
0.00511895
0.00571881
0.00643277
0.00708596
0.00760179
0.00815623
0.00885623
0.00976305
0.0106948
0.0116379
0.012594
0.013465
0.0141208
0.0145967
0.014932
0.0150553
0.0150651
0.0149368
0.0147373
0.0145035
0.0142875
0.0141002
0.0139383
0.0138211
0.0137639
0.0137399
0.0137308
0.0137321
0.0136584
0.0132836
0.0121438
0.0105583
0.00918312
0.00796759
0.00704657
0.00649509
0.00621499
0.00613566
0.00614303
0.00620478
0.00627538
0.0062515
0.00604311
0.00535754
0.00503432
0.00509797
0.00526239
0.00576677
0.00641136
0.00640878
0.00609238
0.00619682
0.00722783
0.0100162
0.01268
0.0205671
0.0281442
0.0275836
0.0111028
0.00452073
0.00190246
0.000993461
0.000721331
0.000653672
0.000641381
0.00063948
0.000644913
0.000644701
0.000643956
0.000648501
0.000668498
0.000728652
0.000844818
0.00100787
0.00121807
0.00149783
0.00183044
0.00217017
0.00246952
0.00272353
0.00292156
0.00300414
0.0030239
0.00300251
0.00290356
0.00273387
0.00251788
0.00228815
0.00204763
0.0018122
0.00161918
0.00144087
0.00130088
0.0011853
0.00108001
0.000969702
0.00085196
0.000743464
0.000656114
0.00058939
0.000540722
0.000503051
0.000475292
0.000454032
0.000436142
0.000422847
0.000411894
0.000404683
0.000400742
0.000399831
0.000402232
0.000404481
0.00040175
0.00039394
0.000381926
0.000363868
0.000333673
0.000288255
0.000237252
0.000192935
0.000166728
0.000153813
0.000149895
0.000150353
0.000155994
0.000164669
0.000169575
0.000170927
0.000170534
0.000166916
0.000153921
0.000136363
0.000119827
0.000104336
9.0425e-05
7.8386e-05
6.8431e-05
6.05033e-05
5.41837e-05
4.90362e-05
4.47355e-05
4.11401e-05
3.81013e-05
3.52405e-05
3.22452e-05
2.90235e-05
2.56541e-05
2.22792e-05
1.90142e-05
1.59283e-05
1.30828e-05
1.05308e-05
8.3173e-06
6.47148e-06
4.99807e-06
3.86836e-06
3.02776e-06
2.40929e-06
1.95802e-06
1.62114e-06
1.36808e-06
1.16616e-06
1.00637e-06
8.67265e-07
7.54515e-07
6.46924e-07
5.6203e-07
4.72878e-07
4.05137e-07
3.35324e-07
0.00126622
0.00231009
0.00313723
0.00344764
0.00397391
0.00441747
0.00487533
0.005674
0.00669864
0.00768829
0.00840622
0.00908544
0.00983744
0.0106501
0.0114498
0.0123342
0.0133263
0.0138507
0.0139944
0.0140179
0.0139204
0.0135703
0.0131488
0.0125025
0.0115746
0.0106859
0.0100402
0.00956251
0.00921345
0.00897654
0.00887842
0.00885069
0.00886223
0.00895669
0.00911097
0.00927286
0.00944236
0.00960018
0.0097921
0.0100615
0.0103751
0.0105138
0.0104816
0.0103219
0.00981635
0.00888416
0.00795003
0.00716119
0.00664157
0.00638483
0.00627743
0.00623202
0.00616239
0.00598004
0.00579027
0.00580744
0.00592054
0.0062342
0.00674784
0.00662635
0.00614436
0.00680716
0.0119739
0.0236071
0.0261717
0.0249861
0.0233557
0.00912491
0.00341516
0.0014724
0.000849178
0.000683065
0.000654158
0.000659437
0.000680871
0.000690484
0.000691062
0.000692466
0.000709536
0.000768291
0.000889636
0.00112099
0.0014904
0.00201883
0.00271037
0.00352676
0.00436828
0.00507623
0.00533416
0.00538084
0.00534816
0.00522486
0.00499595
0.00462102
0.00420849
0.00384915
0.00340271
0.00302612
0.00269248
0.0023477
0.00204949
0.00173543
0.00150755
0.00140426
0.00134749
0.00128199
0.00121114
0.00113318
0.00103259
0.000906797
0.000778022
0.000660136
0.000564482
0.000490574
0.000435645
0.000398112
0.000363017
0.000334233
0.000311453
0.000293092
0.000279038
0.000274658
0.000284266
0.000308094
0.000338114
0.000364047
0.000373162
0.000369077
0.000349247
0.00031215
0.000256683
0.000200137
0.000162932
0.00014546
0.00014
0.000140207
0.000147164
0.000161273
0.000168591
0.000170374
0.000169799
0.000165085
0.000150439
0.000135783
0.000123582
0.00011208
0.000100347
8.87311e-05
7.83371e-05
6.98385e-05
6.31027e-05
5.75761e-05
5.29421e-05
4.93418e-05
4.67354e-05
4.46202e-05
4.23657e-05
3.95861e-05
3.61498e-05
3.20155e-05
2.72192e-05
2.20461e-05
1.70077e-05
1.25856e-05
9.01838e-06
6.35443e-06
4.48258e-06
3.21973e-06
2.38288e-06
1.82921e-06
1.45741e-06
1.1967e-06
1.0035e-06
8.49015e-07
7.24528e-07
6.18317e-07
5.32022e-07
4.56123e-07
3.92683e-07
3.34966e-07
0.00162636
0.00288551
0.00379675
0.00491188
0.00563804
0.00614738
0.0067774
0.00747746
0.00831749
0.00994302
0.0109868
0.0111254
0.0111486
0.0113683
0.011737
0.0120043
0.0120977
0.0116589
0.0108328
0.0102386
0.00926052
0.00849435
0.00759796
0.00712133
0.00684171
0.00665857
0.00653886
0.00648793
0.0064742
0.00653705
0.0066544
0.00684792
0.00709401
0.00738883
0.00771212
0.00805225
0.00837827
0.00865671
0.00882797
0.00890112
0.00886849
0.00869607
0.00849426
0.0083142
0.00820597
0.00816461
0.00815644
0.00813865
0.00804668
0.00770951
0.0071441
0.00671835
0.00658025
0.0063255
0.00610412
0.00611682
0.00622761
0.00644512
0.00641263
0.00602524
0.00594603
0.00880323
0.0216307
0.0268582
0.0250851
0.020379
0.00894891
0.00306113
0.00129928
0.000779652
0.000662408
0.000655503
0.000677375
0.000704769
0.000714789
0.000714729
0.000719398
0.000751651
0.000843867
0.0010541
0.00147147
0.00219666
0.00332612
0.00498512
0.00659861
0.00714357
0.00726593
0.00710793
0.00671509
0.00635623
0.00602126
0.00574588
0.00544591
0.00498669
0.00449889
0.00410359
0.00358576
0.00314449
0.0027709
0.00240351
0.00210653
0.00176199
0.00146904
0.00132978
0.00127302
0.00125199
0.00122563
0.00119853
0.00115548
0.00109317
0.00101456
0.000928356
0.000835824
0.000746725
0.000660874
0.000580385
0.000500348
0.000426103
0.000362915
0.000313724
0.000274046
0.000241178
0.000215281
0.000196732
0.000186626
0.000191126
0.000231379
0.000291349
0.000333415
0.000344349
0.000337175
0.000304228
0.000247608
0.00018994
0.000152522
0.000136141
0.000132156
0.000133425
0.000143914
0.000158325
0.000164292
0.00016508
0.000163659
0.000155439
0.000138636
0.000125625
0.000115022
0.000104874
9.45904e-05
8.48735e-05
7.67199e-05
7.04771e-05
6.57201e-05
6.17994e-05
5.834e-05
5.53266e-05
5.2848e-05
5.08101e-05
4.88305e-05
4.63563e-05
4.28922e-05
3.82469e-05
3.26539e-05
2.67148e-05
2.11034e-05
1.62314e-05
1.22033e-05
8.96179e-06
6.39822e-06
4.46205e-06
3.12192e-06
2.33124e-06
1.86405e-06
1.50876e-06
1.19421e-06
9.2677e-07
7.14409e-07
5.56044e-07
4.38851e-07
3.54591e-07
0.00278885
0.00417205
0.00508909
0.00564852
0.00603051
0.00655444
0.00722678
0.00787312
0.0089751
0.00999698
0.0102981
0.0102913
0.00988527
0.00944849
0.00918746
0.00857818
0.00789517
0.00744435
0.0071812
0.00679387
0.00643651
0.00608569
0.00579693
0.00548263
0.0052431
0.0049482
0.00471439
0.00456323
0.00448122
0.00445537
0.00457693
0.00481235
0.00516987
0.00567375
0.00628764
0.00697213
0.00760281
0.00824685
0.00880334
0.00923213
0.00953689
0.00976201
0.00965991
0.00924044
0.00857525
0.00780677
0.00713663
0.00666018
0.0063905
0.00636003
0.00648269
0.00654294
0.00653633
0.00648983
0.00633708
0.00619186
0.00610066
0.00604494
0.00595649
0.00567127
0.00603469
0.0134877
0.0245204
0.0248857
0.0183829
0.00853323
0.00319641
0.00127512
0.000756412
0.000642925
0.000642485
0.000687613
0.000728329
0.000736139
0.000733217
0.000735954
0.000769678
0.000881394
0.00116832
0.0017942
0.00301385
0.00510518
0.007977
0.00919678
0.00954375
0.00948969
0.0083315
0.00710157
0.00658409
0.00600724
0.00564456
0.00538383
0.00517834
0.00482516
0.0044084
0.00402334
0.00349411
0.00294836
0.00239801
0.00197701
0.00177386
0.00143189
0.00109444
0.000935523
0.000885717
0.000871369
0.000881815
0.000933966
0.000987016
0.00102123
0.00100665
0.000952501
0.000885186
0.000817226
0.000757744
0.000707076
0.00066649
0.000626836
0.000580197
0.000518559
0.000444979
0.000368474
0.000297925
0.000235303
0.000185255
0.000150346
0.000132402
0.000129268
0.00015033
0.000225274
0.000288611
0.000310679
0.000307212
0.000276481
0.000216721
0.000165462
0.000137065
0.000126698
0.000125596
0.000129328
0.000143734
0.000153771
0.000156235
0.00015568
0.000151218
0.000136378
0.000122074
0.000111983
0.000103414
9.46839e-05
8.57202e-05
7.76131e-05
7.13789e-05
6.7041e-05
6.37479e-05
6.05864e-05
5.72511e-05
5.40811e-05
5.15445e-05
4.96798e-05
4.79604e-05
4.56585e-05
4.23006e-05
3.7878e-05
3.27374e-05
2.73657e-05
2.22037e-05
1.75654e-05
1.36072e-05
1.03837e-05
7.87148e-06
5.97841e-06
4.54346e-06
3.41699e-06
2.50491e-06
1.79461e-06
1.25643e-06
8.74464e-07
6.11075e-07
4.29571e-07
0.00319813
0.00459485
0.00540659
0.00575934
0.00610426
0.00662391
0.00703916
0.0075849
0.00812625
0.00830505
0.00830056
0.0082181
0.00798726
0.00769059
0.0073057
0.00679171
0.00639928
0.00581908
0.00514892
0.00446925
0.00382801
0.00330198
0.00280141
0.00234532
0.00209853
0.00182159
0.00168172
0.00159196
0.00151584
0.00147963
0.00146527
0.001501
0.00160013
0.00180546
0.00215011
0.00272248
0.00362405
0.00479973
0.00622237
0.0077641
0.00900285
0.00995414
0.0106233
0.0109729
0.0111354
0.0109886
0.0103142
0.00901927
0.00738648
0.0060139
0.0052572
0.00513702
0.00529431
0.00573626
0.00588807
0.00590249
0.00586343
0.00582239
0.0057459
0.00554663
0.00662779
0.01718
0.0238036
0.0180013
0.00852303
0.00347364
0.00140021
0.000769265
0.000635628
0.00062631
0.000675798
0.000743822
0.000757096
0.000750459
0.000749941
0.000772902
0.000874975
0.00117118
0.00190255
0.00347993
0.00650823
0.0109278
0.0126752
0.0131186
0.0128636
0.0103411
0.00752232
0.00636013
0.00506342
0.00407652
0.00358541
0.00344492
0.00343672
0.00347584
0.00348087
0.00328397
0.00291699
0.00240142
0.00192853
0.00165425
0.00135785
0.00104979
0.000880041
0.000794562
0.000753661
0.000724588
0.000695481
0.000683998
0.000687125
0.000710656
0.000755785
0.000794143
0.000807633
0.000793239
0.00075789
0.000718979
0.00069091
0.000673093
0.00065607
0.000635318
0.000605232
0.000557899
0.00049403
0.000423921
0.000335094
0.000233612
0.000155547
0.000113204
9.56061e-05
9.38362e-05
0.000113528
0.000192449
0.000258743
0.000277246
0.000271514
0.000233767
0.000176415
0.000139379
0.000123
0.000119195
0.000120197
0.000128418
0.000140232
0.000144447
0.000144457
0.000141827
0.000130683
0.000116067
0.000106376
9.91709e-05
9.2191e-05
8.45982e-05
7.70148e-05
7.06766e-05
6.62103e-05
6.31371e-05
6.04277e-05
5.73866e-05
5.4053e-05
5.09405e-05
4.85015e-05
4.67767e-05
4.52278e-05
4.31619e-05
4.01678e-05
3.62443e-05
3.16824e-05
2.68876e-05
2.22213e-05
1.79513e-05
1.42247e-05
1.11066e-05
8.56936e-06
6.5334e-06
4.87443e-06
3.52814e-06
2.46763e-06
1.66522e-06
1.10853e-06
6.93211e-07
0.00343874
0.00493143
0.00556364
0.00581753
0.00608956
0.00640532
0.00661584
0.00700393
0.0073011
0.00740875
0.00742342
0.00705213
0.00641963
0.00576896
0.00509396
0.00436764
0.00363707
0.0030147
0.00248881
0.00206273
0.00179572
0.0015465
0.00140149
0.00131846
0.00125681
0.00122567
0.00119983
0.00114181
0.00109301
0.00102894
0.000959005
0.000891216
0.000844606
0.000809382
0.000788224
0.000817365
0.000922471
0.00114862
0.00160273
0.0024494
0.00407401
0.00624049
0.00858915
0.0101889
0.0111698
0.0116628
0.0119078
0.0120866
0.0119167
0.0105555
0.00798408
0.00569793
0.0046469
0.00446858
0.00455749
0.0049707
0.00518546
0.00530932
0.00529231
0.00527851
0.00789502
0.0194862
0.0203245
0.00976383
0.00407816
0.00164564
0.000832566
0.000637881
0.000614892
0.000655023
0.000750683
0.000775576
0.000771142
0.000761791
0.00076994
0.000839665
0.00107782
0.00174233
0.003373
0.00692585
0.0134674
0.016886
0.017814
0.0178114
0.0155706
0.0112275
0.0089714
0.00680258
0.00469854
0.00377368
0.00272238
0.0022833
0.00204764
0.00198373
0.00203086
0.00207419
0.00212494
0.00204233
0.00183534
0.00164522
0.00129308
0.000995966
0.000835361
0.000749888
0.000710668
0.000679409
0.000643261
0.000619054
0.000605667
0.000602951
0.000607353
0.00061627
0.00063196
0.000656206
0.000680212
0.000690532
0.000687459
0.000677835
0.000669334
0.000659959
0.000646379
0.000620665
0.000571096
0.000509188
0.000454192
0.000391675
0.000291498
0.000183602
0.000114687
8.15693e-05
7.18291e-05
7.4652e-05
0.000107789
0.000194273
0.000239638
0.000245858
0.000232094
0.000182095
0.000140113
0.000119873
0.00011339
0.000113112
0.000116193
0.000125767
0.000130966
0.000131626
0.000130217
0.000123267
0.000109523
0.000100043
9.38082e-05
8.8296e-05
8.21157e-05
7.54205e-05
6.9254e-05
6.46318e-05
6.16262e-05
5.93205e-05
5.6742e-05
5.36381e-05
5.04236e-05
4.75601e-05
4.53279e-05
4.37373e-05
4.23369e-05
4.05159e-05
3.79124e-05
3.45133e-05
3.05293e-05
2.62606e-05
2.19944e-05
1.79707e-05
1.43548e-05
1.12347e-05
8.60916e-06
6.41283e-06
4.62895e-06
3.1923e-06
2.16678e-06
1.33074e-06
0.00390683
0.00524228
0.00562858
0.0058063
0.00603781
0.00624119
0.00642745
0.00662636
0.00668794
0.00643487
0.00571589
0.00494714
0.00420497
0.00351038
0.00294495
0.00241036
0.00205294
0.00186335
0.00171422
0.00164729
0.00161952
0.00161108
0.0016568
0.00180548
0.00195148
0.00205663
0.00210151
0.0021039
0.00195578
0.00180227
0.00154813
0.00130917
0.00108179
0.000886309
0.000733656
0.000642966
0.000579878
0.000553803
0.000549764
0.000639529
0.000892429
0.0015024
0.00282713
0.00550153
0.00849409
0.0104203
0.0115711
0.01237
0.0131366
0.0134532
0.0131135
0.0112559
0.00726987
0.00510701
0.00447709
0.00442793
0.00453553
0.00474965
0.0047658
0.00507806
0.0104746
0.0199387
0.0136564
0.00547045
0.00215787
0.000978514
0.000660098
0.000610484
0.000632016
0.000742739
0.000794233
0.000803317
0.000780109
0.000777197
0.000823135
0.00103504
0.00168326
0.00334085
0.00701602
0.0135707
0.0206025
0.0236425
0.0248876
0.0253441
0.0245435
0.0202422
0.0158936
0.0103277
0.00731525
0.00520028
0.00314472
0.00224973
0.00180301
0.00157581
0.00150467
0.00150308
0.00152722
0.00160116
0.00166668
0.00154612
0.00123635
0.000970889
0.000812845
0.000712903
0.000650679
0.000600303
0.000578219
0.000567773
0.000559024
0.00055416
0.000552754
0.000554411
0.000563479
0.000582957
0.000603039
0.000624033
0.000646023
0.00065821
0.000661185
0.000659258
0.000651635
0.000636012
0.000602817
0.00054004
0.0004769
0.000429518
0.000384354
0.000308067
0.000201912
0.000121026
7.65132e-05
6.03303e-05
5.93528e-05
7.29358e-05
0.000139987
0.000203825
0.000220638
0.000216045
0.000181969
0.000138503
0.000116466
0.000107994
0.000106577
0.000107509
0.000112801
0.00011827
0.000119676
0.000119008
0.000114837
0.000103319
9.4224e-05
8.85886e-05
8.41384e-05
7.90303e-05
7.31427e-05
6.74464e-05
6.2877e-05
5.97272e-05
5.76109e-05
5.56158e-05
5.30592e-05
5.00143e-05
4.70003e-05
4.43558e-05
4.2247e-05
4.07393e-05
3.95358e-05
3.80713e-05
3.59094e-05
3.29525e-05
2.93357e-05
2.53113e-05
2.11781e-05
1.7202e-05
1.36041e-05
1.04452e-05
7.80305e-06
5.55937e-06
3.9071e-06
2.48684e-06
0.00408238
0.00536851
0.00563001
0.0057803
0.00596616
0.00607277
0.00612125
0.00604877
0.00553247
0.00474027
0.00395217
0.00325269
0.00273024
0.00237341
0.00212515
0.00197045
0.00189682
0.00187198
0.0018715
0.00208379
0.00242249
0.00289955
0.00326768
0.00356204
0.00371083
0.00379042
0.0038216
0.00383117
0.00379529
0.00371651
0.00354101
0.00322274
0.00272155
0.00210522
0.00149661
0.00106064
0.000740855
0.00054765
0.000459733
0.000411313
0.000379324
0.000431502
0.000675215
0.00138258
0.00316773
0.00669815
0.00948515
0.0115396
0.0131046
0.0140601
0.0146139
0.0145527
0.0134465
0.00894745
0.00550432
0.00460201
0.00450707
0.00448244
0.00443801
0.00523631
0.0131183
0.019067
0.00890038
0.00327342
0.00131799
0.00073532
0.000621476
0.000616903
0.000707499
0.000806372
0.000833646
0.00081408
0.000791653
0.000796873
0.000880386
0.00119352
0.00205401
0.00435445
0.00943255
0.0185668
0.0287891
0.0334926
0.038077
0.040999
0.0418759
0.0387667
0.0305451
0.0232659
0.0146453
0.00963754
0.00531578
0.0029839
0.00193623
0.00147599
0.00128058
0.00124004
0.00124206
0.0012042
0.00112621
0.00103335
0.000866925
0.000751679
0.000674878
0.000620513
0.000554436
0.000513868
0.00050134
0.000496828
0.000496459
0.000497
0.000498733
0.00050152
0.000505835
0.000515151
0.000533919
0.000559022
0.000583464
0.000603446
0.000615659
0.00062098
0.000622409
0.00062016
0.00060453
0.00055244
0.00048329
0.000430873
0.000393543
0.000355401
0.000292187
0.000198127
0.000119456
7.25253e-05
5.37528e-05
5.14666e-05
5.9867e-05
0.000112391
0.000181041
0.000202631
0.000200988
0.000175812
0.000134172
0.000112206
0.000102972
0.000100738
0.000100987
0.000103802
0.000108922
0.000110711
0.000110421
0.000107472
9.77511e-05
8.91325e-05
8.39913e-05
8.01181e-05
7.57337e-05
7.0591e-05
6.53773e-05
6.09224e-05
5.76394e-05
5.55564e-05
5.40578e-05
5.21568e-05
4.94794e-05
4.64756e-05
4.36535e-05
4.11962e-05
3.92285e-05
3.79155e-05
3.70211e-05
3.59051e-05
3.40068e-05
3.11648e-05
2.75549e-05
2.347e-05
1.93173e-05
1.53409e-05
1.18538e-05
8.74387e-06
6.36214e-06
4.21641e-06
0.00405527
0.00534984
0.00560993
0.00573042
0.00580449
0.00581845
0.00563147
0.00506486
0.00423819
0.00345396
0.00286348
0.00247739
0.00225758
0.00214938
0.00207383
0.00204338
0.00210803
0.00238925
0.00295432
0.00348176
0.00383781
0.00400235
0.00407381
0.00409674
0.00409901
0.0040975
0.00410616
0.00413346
0.00418008
0.00422849
0.00424273
0.00422101
0.00417142
0.00401861
0.00355117
0.00268253
0.0017757
0.00106819
0.000635033
0.000429366
0.000336557
0.000291017
0.000272456
0.000381098
0.000835471
0.0021845
0.00576154
0.00909865
0.0118838
0.0138042