/*--------------------------------*- C++ -*----------------------------------*\
  =========                 |
  \\      /  F ield         | OpenFOAM: The Open Source CFD Toolbox
   \\    /   O peration     | Website:  https://openfoam.org
    \\  /    A nd           | Version:  7
     \\/     M anipulation  |
\*---------------------------------------------------------------------------*/
FoamFile
{
    version     2.0;
    format      ascii;
    class       volScalarField;
    location    "0.084";
    object      p;
}
// * * * * * * * * * * * * * * * * * * * * * * * * * * * * * * * * * * * * * //

dimensions      [0 2 -2 0 0 0 0];

internalField   nonuniform List<scalar> 
12225
(
-189.73
-190.413
-190.513
-189.979
-189.014
-187.843
-186.597
-185.317
-184.015
-182.709
-181.416
-180.137
-178.867
-177.595
-176.31
-174.986
-173.59
-171.96
-189.046
-190.466
-190.568
-190.004
-189.033
-187.859
-186.609
-185.324
-184.02
-182.713
-181.42
-180.142
-178.873
-177.602
-176.321
-175.005
-173.623
-172.081
-188.716
-190.625
-190.692
-190.066
-189.074
-187.889
-186.627
-185.333
-184.025
-182.719
-181.428
-180.151
-178.885
-177.619
-176.347
-175.047
-173.695
-172.251
-188.577
-190.895
-190.88
-190.161
-189.129
-187.925
-186.648
-185.345
-184.034
-182.729
-181.439
-180.167
-178.906
-177.65
-176.39
-175.113
-173.802
-172.454
-189.829
-191.337
-191.127
-190.295
-189.206
-187.976
-186.683
-185.369
-184.052
-182.747
-181.46
-180.192
-178.939
-177.694
-176.451
-175.203
-173.942
-172.679
-190.823
-191.942
-191.476
-190.486
-189.313
-188.042
-186.725
-185.397
-184.075
-182.77
-181.486
-180.225
-178.982
-177.751
-176.53
-175.314
-174.104
-172.918
-192.209
-192.709
-191.884
-190.714
-189.44
-188.119
-186.776
-185.435
-184.107
-182.801
-181.521
-180.267
-179.036
-177.822
-176.625
-175.445
-174.287
-173.17
-194.853
-193.666
-192.37
-190.988
-189.597
-188.214
-186.839
-185.481
-184.147
-182.841
-181.565
-180.32
-179.102
-177.908
-176.738
-175.594
-174.485
-173.427
-196.732
-194.695
-192.919
-191.3
-189.778
-188.321
-186.91
-185.535
-184.195
-182.889
-181.618
-180.383
-179.18
-178.007
-176.865
-175.759
-174.697
-173.691
-199.194
-195.795
-193.482
-191.623
-189.971
-188.441
-186.99
-185.597
-184.25
-182.945
-181.68
-180.455
-179.269
-178.119
-177.006
-175.935
-174.914
-173.954
-201.343
-196.798
-194.04
-191.951
-190.169
-188.564
-187.074
-185.665
-184.312
-183.008
-181.749
-180.538
-179.37
-178.243
-177.159
-176.123
-175.14
-174.219
-202.059
-197.515
-194.49
-192.224
-190.344
-188.68
-187.157
-185.731
-184.374
-183.072
-181.822
-180.623
-179.471
-178.365
-177.306
-176.298
-175.346
-174.456
-203.134
-198.095
-194.864
-192.456
-190.492
-188.78
-187.231
-185.794
-184.434
-183.136
-181.895
-180.71
-179.576
-178.492
-177.457
-176.476
-175.552
-174.689
-201.944
-198.264
-195.118
-192.632
-190.622
-188.879
-187.309
-185.863
-184.506
-183.217
-181.989
-180.82
-179.706
-178.643
-177.633
-176.679
-175.781
-174.944
-204.097
-198.542
-195.215
-192.712
-190.691
-188.943
-187.374
-185.933
-184.583
-183.305
-182.092
-180.941
-179.849
-178.812
-177.829
-176.903
-176.034
-175.221
-201.922
-197.655
-194.836
-192.563
-190.643
-188.949
-187.409
-185.986
-184.653
-183.395
-182.206
-181.082
-180.016
-179.005
-178.049
-177.148
-176.302
-175.51
-196.421
-195.523
-193.939
-192.161
-190.451
-188.861
-187.388
-186.01
-184.709
-183.477
-182.314
-181.216
-180.176
-179.192
-178.264
-177.389
-176.567
-175.796
-193.284
-194.112
-193.074
-191.649
-190.155
-188.696
-187.305
-185.985
-184.733
-183.546
-182.422
-181.358
-180.35
-179.394
-178.49
-177.636
-176.832
-176.074
-196.409
-194.132
-192.659
-191.224
-189.825
-188.47
-187.165
-185.912
-184.712
-183.571
-182.487
-181.458
-180.48
-179.552
-178.674
-177.842
-177.055
-176.312
-196.847
-194.462
-192.573
-191.021
-189.6
-188.265
-187.005
-185.799
-184.645
-183.547
-182.503
-181.508
-180.558
-179.653
-178.793
-177.976
-177.202
-176.467
-194.858
-193.268
-191.955
-190.632
-189.342
-188.098
-186.894
-185.727
-184.602
-183.527
-182.502
-181.523
-180.588
-179.698
-178.851
-178.046
-177.279
-176.55
-192.56
-192.643
-191.576
-190.354
-189.131
-187.923
-186.745
-185.608
-184.515
-183.471
-182.472
-181.516
-180.597
-179.722
-178.886
-178.088
-177.327
-176.602
-194.604
-192.703
-191.351
-190.162
-189
-187.845
-186.698
-185.581
-184.504
-183.471
-182.48
-181.527
-180.616
-179.74
-178.908
-178.114
-177.357
-176.636
-195.02
-192.477
-191.164
-189.996
-188.841
-187.697
-186.569
-185.476
-184.426
-183.42
-182.448
-181.507
-180.606
-179.741
-178.914
-178.125
-177.371
-176.651
-191.612
-191.875
-190.965
-189.909
-188.796
-187.668
-186.552
-185.472
-184.43
-183.426
-182.449
-181.513
-180.61
-179.746
-178.92
-178.132
-177.379
-176.66
-192.625
-191.678
-190.81
-189.786
-188.684
-187.568
-186.466
-185.411
-184.391
-183.393
-182.427
-181.496
-180.6
-179.74
-178.918
-178.131
-177.379
-176.661
-193.008
-191.619
-190.793
-189.779
-188.666
-187.54
-186.462
-185.411
-184.392
-183.395
-182.427
-181.495
-180.598
-179.738
-178.915
-178.129
-177.378
-176.66
-191.574
-191.387
-190.727
-189.712
-188.576
-187.488
-186.426
-185.386
-184.371
-183.38
-182.417
-181.486
-180.59
-179.732
-178.91
-178.124
-177.373
-176.657
-191.886
-191.45
-190.752
-189.702
-188.568
-187.482
-186.421
-185.38
-184.366
-183.378
-182.416
-181.485
-180.588
-179.728
-178.905
-178.119
-177.368
-176.651
-190.635
-191.409
-190.755
-189.661
-188.544
-187.47
-186.413
-185.374
-184.36
-183.373
-182.412
-181.481
-180.584
-179.723
-178.9
-178.113
-177.362
-176.646
-160.032
-160.051
-160.076
-160.087
-160.078
-160.047
-160
-159.941
-159.873
-159.801
-159.725
-159.645
-159.559
-159.464
-159.353
-159.219
-159.06
-158.874
-158.661
-158.422
-158.157
-157.87
-157.561
-157.234
-156.89
-156.534
-156.166
-155.789
-155.405
-155.016
-154.624
-154.228
-153.83
-153.427
-153.017
-152.596
-152.161
-151.709
-151.255
-150.79
-150.386
-150.142
-149.947
-149.639
-149.321
-149.033
-148.699
-148.365
-148.091
-147.874
-147.708
-147.589
-147.495
-147.373
-147.181
-146.893
-146.486
-145.949
-145.331
-144.698
-144.042
-143.318
-142.591
-142.027
-141.621
-141.36
-141.011
-140.393
-139.873
-139.619
-139.441
-139.131
-138.694
-138.394
-138.415
-138.761
-139.373
-140.163
-141.047
-141.952
-142.816
-143.586
-144.219
-144.676
-144.929
-144.961
-144.768
-144.353
-143.728
-142.911
-141.931
-140.817
-139.6
-138.306
-136.962
-135.588
-134.201
-132.814
-131.437
-130.076
-128.735
-127.416
-126.119
-124.844
-123.593
-122.364
-121.16
-119.978
-118.818
-117.679
-116.558
-115.453
-114.361
-113.279
-112.203
-111.133
-110.067
-109.007
-107.955
-106.917
-105.899
-104.909
-103.95
-103.029
-102.146
-101.301
-100.49
-99.7066
-98.9456
-98.2002
-97.4643
-96.7324
-95.9999
-95.2635
-94.5204
-93.7686
-93.0066
-92.2342
-91.452
-90.66
-89.8587
-89.0488
-88.2306
-87.4042
-86.5692
-85.7249
-84.871
-84.007
-83.1329
-82.249
-81.3557
-80.4534
-79.5425
-78.6233
-77.6961
-76.761
-75.818
-74.8672
-73.9087
-72.9425
-71.9685
-70.9867
-69.9972
-68.9998
-67.9946
-66.9815
-65.9605
-64.9316
-63.8947
-62.8497
-61.7967
-60.7354
-59.6661
-58.5885
-57.5035
-56.411
-55.3126
-54.2106
-53.1043
-52.03
-160.102
-160.113
-160.132
-160.141
-160.133
-160.11
-160.074
-160.028
-159.974
-159.914
-159.848
-159.776
-159.694
-159.599
-159.486
-159.349
-159.186
-158.994
-158.773
-158.52
-158.241
-157.938
-157.616
-157.277
-156.922
-156.557
-156.182
-155.801
-155.415
-155.026
-154.635
-154.243
-153.85
-153.455
-153.057
-152.653
-152.243
-151.82
-151.389
-150.972
-150.58
-150.382
-150.235
-149.727
-149.12
-148.734
-148.497
-148.283
-148.083
-147.904
-147.75
-147.645
-147.593
-147.503
-147.338
-147.073
-146.671
-146.123
-145.44
-144.784
-144.153
-143.447
-142.695
-142.087
-141.711
-141.439
-141.022
-140.447
-139.89
-139.486
-139.302
-139.141
-138.929
-138.845
-139.003
-139.426
-140.064
-140.845
-141.697
-142.56
-143.38
-144.107
-144.698
-145.115
-145.33
-145.322
-145.084
-144.622
-143.951
-143.098
-142.088
-140.95
-139.713
-138.404
-137.047
-135.662
-134.267
-132.873
-131.49
-130.124
-128.78
-127.457
-126.156
-124.878
-123.624
-122.392
-121.185
-120.001
-118.84
-117.7
-116.579
-115.474
-114.384
-113.302
-112.229
-111.16
-110.095
-109.034
-107.981
-106.941
-105.92
-104.926
-103.965
-103.04
-102.155
-101.308
-100.496
-99.7117
-98.9504
-98.2048
-97.4688
-96.7369
-96.0044
-95.2679
-94.5249
-93.7731
-93.0115
-92.2398
-91.4576
-90.6655
-89.8641
-89.0539
-88.2353
-87.4083
-86.5724
-85.7273
-84.8724
-84.0075
-83.1328
-82.2485
-81.3549
-80.4525
-79.5417
-78.6226
-77.6954
-76.7604
-75.8174
-74.8668
-73.9083
-72.9421
-71.9682
-70.9865
-69.9969
-68.9996
-67.9945
-66.9814
-65.9605
-64.9317
-63.8949
-62.85
-61.797
-60.7358
-59.6666
-58.5892
-57.5042
-56.412
-55.3133
-54.2116
-53.1045
-52.0204
-160.039
-160.035
-160.048
-160.077
-160.105
-160.126
-160.136
-160.137
-160.13
-160.115
-160.09
-160.054
-159.996
-159.902
-159.77
-159.601
-159.403
-159.18
-158.934
-158.665
-158.372
-158.057
-157.723
-157.37
-157.006
-156.631
-156.25
-155.861
-155.469
-155.075
-154.68
-154.286
-153.891
-153.495
-153.098
-152.699
-152.294
-151.886
-151.467
-151.048
-150.634
-150.229
-149.855
-149.477
-149.142
-148.941
-148.694
-148.267
-147.899
-147.728
-147.694
-147.717
-147.763
-147.754
-147.644
-147.404
-147.023
-146.461
-145.682
-144.957
-144.344
-143.674
-142.976
-142.377
-141.926
-141.54
-140.912
-140.141
-139.69
-139.549
-139.509
-139.538
-139.625
-139.818
-140.149
-140.623
-141.221
-141.911
-142.659
-143.423
-144.161
-144.823
-145.363
-145.736
-145.909
-145.856
-145.57
-145.057
-144.337
-143.436
-142.381
-141.203
-139.932
-138.594
-137.214
-135.81
-134.399
-132.992
-131.599
-130.224
-128.871
-127.541
-126.234
-124.95
-123.688
-122.451
-121.238
-120.05
-118.886
-117.744
-116.622
-115.519
-114.43
-113.352
-112.282
-111.216
-110.152
-109.092
-108.037
-106.993
-105.966
-104.966
-103.998
-103.068
-102.179
-101.328
-100.513
-99.7275
-98.9651
-98.2189
-97.4823
-96.7497
-96.0166
-95.2794
-94.5356
-93.7834
-93.0215
-92.2494
-91.4671
-90.6747
-89.8728
-89.0618
-88.2418
-87.413
-86.5752
-85.7281
-84.8717
-84.0057
-83.1303
-82.2457
-81.3521
-80.4498
-79.5392
-78.6203
-77.6934
-76.7586
-75.816
-74.8655
-73.9073
-72.9413
-71.9675
-70.9859
-69.9965
-68.9993
-67.9942
-66.9813
-65.9606
-64.9319
-63.8952
-62.8505
-61.7978
-60.737
-59.6681
-58.5913
-57.5067
-56.4156
-55.3173
-54.2168
-53.1097
-52.0166
-160.108
-160.1
-160.113
-160.148
-160.2
-160.256
-160.308
-160.349
-160.374
-160.369
-160.331
-160.278
-160.218
-160.14
-160.021
-159.862
-159.668
-159.444
-159.191
-158.911
-158.605
-158.277
-157.931
-157.57
-157.198
-156.817
-156.427
-156.033
-155.635
-155.231
-154.822
-154.409
-153.992
-153.572
-153.151
-152.726
-152.299
-151.871
-151.434
-151.004
-150.586
-150.188
-149.822
-149.48
-149.145
-148.83
-148.537
-148.264
-148.067
-147.959
-147.874
-147.814
-147.8
-147.772
-147.67
-147.452
-147.098
-146.562
-145.785
-145.033
-144.444
-143.927
-143.491
-143.271
-142.898
-142.111
-141.329
-140.713
-140.303
-140.163
-140.208
-140.36
-140.591
-140.9
-141.294
-141.775
-142.339
-142.974
-143.664
-144.378
-145.076
-145.71
-146.225
-146.568
-146.696
-146.583
-146.227
-145.646
-144.858
-143.889
-142.773
-141.541
-140.225
-138.852
-137.442
-136.015
-134.585
-133.162
-131.755
-130.368
-129.005
-127.665
-126.349
-125.055
-123.784
-122.538
-121.317
-120.122
-118.952
-117.807
-116.684
-115.581
-114.494
-113.42
-112.353
-111.291
-110.23
-109.171
-108.113
-107.064
-106.03
-105.021
-104.045
-103.108
-102.213
-101.358
-100.54
-99.753
-98.9891
-98.2415
-97.5036
-96.7698
-96.0353
-95.2967
-94.5514
-93.7977
-93.0346
-92.2614
-91.4783
-90.6853
-89.8827
-89.0706
-88.2493
-87.4189
-86.5795
-85.7309
-84.8731
-84.006
-83.1298
-82.2446
-81.3507
-80.4482
-79.5375
-78.6187
-77.692
-76.7573
-75.8148
-74.8645
-73.9064
-72.9405
-71.9668
-70.9853
-69.996
-68.9989
-67.994
-66.9812
-65.9606
-64.9321
-63.8956
-62.8512
-61.7987
-60.7382
-59.6696
-58.5934
-57.5092
-56.4187
-55.321
-54.2206
-53.1136
-52.0142
-160.193
-160.21
-160.257
-160.328
-160.403
-160.467
-160.507
-160.538
-160.583
-160.609
-160.59
-160.552
-160.496
-160.405
-160.273
-160.105
-159.91
-159.698
-159.471
-159.225
-158.959
-158.672
-158.362
-158.032
-157.681
-157.312
-156.926
-156.525
-156.108
-155.678
-155.236
-154.783
-154.322
-153.854
-153.382
-152.907
-152.431
-151.956
-151.483
-151.021
-150.575
-150.148
-149.752
-149.394
-149.065
-148.773
-148.518
-148.295
-148.102
-147.944
-147.82
-147.725
-147.647
-147.536
-147.352
-147.042
-146.582
-146.02
-145.311
-144.626
-144.076
-143.728
-143.639
-143.6
-143.373
-142.778
-141.982
-141.429
-141.142
-141.073
-141.16
-141.352
-141.621
-141.958
-142.362
-142.834
-143.379
-143.999
-144.685
-145.412
-146.133
-146.782
-147.289
-147.595
-147.659
-147.469
-147.031
-146.353
-145.467
-144.41
-143.218
-141.925
-140.561
-139.149
-137.711
-136.261
-134.811
-133.371
-131.948
-130.547
-129.172
-127.822
-126.495
-125.19
-123.908
-122.65
-121.419
-120.215
-119.039
-117.889
-116.764
-115.661
-114.576
-113.505
-112.443
-111.385
-110.328
-109.269
-108.209
-107.153
-106.11
-105.091
-104.104
-103.157
-102.254
-101.395
-100.575
-99.7869
-99.0228
-98.2746
-97.5354
-96.7996
-96.0628
-95.3218
-94.5742
-93.8185
-93.0535
-92.2788
-91.4941
-90.6996
-89.8952
-89.0816
-88.2587
-87.4266
-86.5853
-85.7349
-84.8754
-84.007
-83.1297
-82.2437
-81.3493
-80.4466
-79.5358
-78.6171
-77.6904
-76.7558
-75.8135
-74.8633
-73.9054
-72.9396
-71.9661
-70.9847
-69.9955
-68.9985
-67.9937
-66.981
-65.9605
-64.9322
-63.8959
-62.8517
-61.7995
-60.7393
-59.6711
-58.5952
-57.5116
-56.4214
-55.3242
-54.2233
-53.1167
-52.012
-160.295
-160.339
-160.404
-160.463
-160.522
-160.592
-160.644
-160.684
-160.725
-160.734
-160.712
-160.689
-160.67
-160.639
-160.576
-160.476
-160.345
-160.191
-160.016
-159.823
-159.61
-159.372
-159.108
-158.816
-158.495
-158.144
-157.764
-157.351
-156.913
-156.451
-155.966
-155.461
-154.938
-154.403
-153.859
-153.311
-152.762
-152.218
-151.684
-151.168
-150.674
-150.21
-149.783
-149.399
-149.059
-148.763
-148.511
-148.296
-148.112
-147.951
-147.807
-147.659
-147.482
-147.248
-146.926
-146.49
-145.941
-145.304
-144.613
-143.946
-143.4
-143.075
-143.104
-143.163
-142.998
-142.673
-142.306
-142.041
-141.928
-141.953
-142.088
-142.306
-142.589
-142.93
-143.33
-143.802
-144.36
-145.016
-145.764
-146.56
-147.33
-147.991
-148.467
-148.702
-148.673
-148.383
-147.833
-147.051
-146.07
-144.931
-143.669
-142.32
-140.911
-139.464
-137.998
-136.526
-135.057
-133.6
-132.16
-130.744
-129.354
-127.991
-126.654
-125.34
-124.047
-122.778
-121.535
-120.321
-119.138
-117.984
-116.857
-115.755
-114.674
-113.609
-112.555
-111.505
-110.454
-109.397
-108.334
-107.27
-106.215
-105.181
-104.18
-103.221
-102.309
-101.443
-100.618
-99.8274
-99.0629
-98.3152
-97.5761
-96.839
-96.0996
-95.3552
-94.6041
-93.8449
-93.0768
-92.2993
-91.5122
-90.7155
-89.9095
-89.0941
-88.2693
-87.4353
-86.5921
-85.7398
-84.8786
-84.0087
-83.1302
-82.2435
-81.3485
-80.4455
-79.5346
-78.6158
-77.6891
-76.7547
-75.8124
-74.8624
-73.9046
-72.939
-71.9655
-70.9842
-69.9951
-68.9981
-67.9934
-66.9809
-65.9605
-64.9323
-63.8962
-62.8523
-61.8003
-60.7404
-59.6725
-58.5969
-57.5136
-56.4236
-55.3267
-54.2252
-53.1182
-52.0097
-160.359
-160.396
-160.453
-160.506
-160.556
-160.601
-160.639
-160.683
-160.746
-160.801
-160.838
-160.869
-160.897
-160.921
-160.935
-160.934
-160.913
-160.87
-160.803
-160.708
-160.584
-160.427
-160.233
-159.998
-159.718
-159.39
-159.013
-158.595
-158.135
-157.635
-157.099
-156.529
-155.932
-155.312
-154.677
-154.032
-153.386
-152.747
-152.122
-151.521
-150.952
-150.423
-149.941
-149.513
-149.14
-148.825
-148.564
-148.352
-148.178
-148.028
-147.882
-147.711
-147.494
-147.204
-146.807
-146.303
-145.681
-144.963
-144.227
-143.519
-142.945
-142.587
-142.423
-142.512
-142.544
-142.531
-142.506
-142.513
-142.576
-142.705
-142.897
-143.144
-143.441
-143.788
-144.198
-144.697
-145.315
-146.061
-146.907
-147.78
-148.582
-149.22
-149.629
-149.778
-149.662
-149.274
-148.635
-147.768
-146.708
-145.492
-144.162
-142.751
-141.289
-139.799
-138.299
-136.799
-135.309
-133.832
-132.375
-130.941
-129.534
-128.157
-126.809
-125.487
-124.188
-122.911
-121.659
-120.435
-119.243
-118.082
-116.953
-115.853
-114.778
-113.723
-112.681
-111.645
-110.605
-109.557
-108.497
-107.428
-106.361
-105.31
-104.29
-103.313
-102.387
-101.511
-100.68
-99.885
-99.1163
-98.3654
-97.6247
-96.8867
-96.1456
-95.3979
-94.6424
-93.8786
-93.1063
-92.3251
-91.5348
-90.7352
-89.9264
-89.1085
-88.2815
-87.4454
-86.6002
-85.7459
-84.8828
-84.0113
-83.1316
-82.2439
-81.3483
-80.4449
-79.5337
-78.6148
-77.6881
-76.7537
-75.8115
-74.8616
-73.9038
-72.9383
-71.9649
-70.9837
-69.9946
-68.9978
-67.9931
-66.9806
-65.9604
-64.9324
-63.8965
-62.8527
-61.801
-60.7413
-59.6737
-58.5984
-57.5153
-56.4254
-55.3286
-54.2263
-53.1186
-52.007
-160.359
-160.382
-160.416
-160.452
-160.5
-160.561
-160.626
-160.699
-160.787
-160.885
-160.994
-161.114
-161.24
-161.368
-161.494
-161.614
-161.723
-161.815
-161.884
-161.925
-161.928
-161.886
-161.791
-161.634
-161.409
-161.114
-160.75
-160.324
-159.836
-159.289
-158.688
-158.039
-157.351
-156.631
-155.888
-155.13
-154.368
-153.611
-152.87
-152.155
-151.48
-150.853
-150.287
-149.788
-149.361
-149.006
-148.719
-148.493
-148.314
-148.164
-148.019
-147.847
-147.615
-147.295
-146.87
-146.33
-145.672
-144.94
-144.182
-143.449
-142.849
-142.45
-142.278
-142.328
-142.459
-142.613
-142.771
-142.936
-143.12
-143.332
-143.576
-143.854
-144.168
-144.532
-144.974
-145.537
-146.252
-147.114
-148.061
-148.986
-149.782
-150.384
-150.753
-150.865
-150.707
-150.271
-149.576
-148.636
-147.483
-146.166
-144.736
-143.236
-141.7
-140.151
-138.604
-137.071
-135.555
-134.059
-132.584
-131.133
-129.709
-128.317
-126.958
-125.63
-124.327
-123.047
-121.79
-120.558
-119.356
-118.187
-117.053
-115.951
-114.879
-113.833
-112.804
-111.784
-110.762
-109.729
-108.679
-107.611
-106.536
-105.47
-104.432
-103.437
-102.495
-101.606
-100.764
-99.9624
-99.1893
-98.4345
-97.6887
-96.9453
-96.1998
-95.4483
-94.6885
-93.9197
-93.1422
-92.3561
-91.5614
-90.7578
-89.9456
-89.1247
-88.2951
-87.4566
-86.6091
-85.7528
-84.8878
-84.0145
-83.1334
-82.2447
-81.3484
-80.4445
-79.5331
-78.614
-77.6873
-76.7529
-75.8107
-74.8608
-73.9032
-72.9377
-71.9644
-70.9832
-69.9942
-68.9974
-67.9928
-66.9804
-65.9603
-64.9324
-63.8967
-62.8532
-61.8017
-60.7422
-59.6749
-58.5997
-57.5168
-56.4268
-55.3299
-54.2269
-53.118
-52.004
-160.316
-160.332
-160.367
-160.416
-160.475
-160.552
-160.648
-160.769
-160.916
-161.087
-161.284
-161.508
-161.755
-162.021
-162.299
-162.581
-162.859
-163.122
-163.359
-163.559
-163.708
-163.792
-163.801
-163.725
-163.558
-163.298
-162.944
-162.497
-161.961
-161.345
-160.659
-159.912
-159.116
-158.281
-157.418
-156.537
-155.65
-154.769
-153.904
-153.069
-152.275
-151.535
-150.862
-150.268
-149.758
-149.335
-149.001
-148.74
-148.544
-148.389
-148.239
-148.055
-147.807
-147.465
-147.025
-146.483
-145.836
-145.118
-144.36
-143.647
-143.083
-142.674
-142.489
-142.544
-142.709
-142.915
-143.135
-143.365
-143.608
-143.868
-144.145
-144.446
-144.781
-145.173
-145.668
-146.319
-147.148
-148.127
-149.155
-150.111
-150.916
-151.533
-151.936
-152.085
-151.941
-151.486
-150.722
-149.676
-148.395
-146.942
-145.381
-143.767
-142.137
-140.514
-138.913
-137.34
-135.796
-134.281
-132.791
-131.326
-129.889
-128.483
-127.111
-125.773
-124.464
-123.182
-121.923
-120.69
-119.484
-118.309
-117.168
-116.062
-114.99
-113.947
-112.927
-111.92
-110.915
-109.898
-108.86
-107.799
-106.722
-105.647
-104.596
-103.587
-102.63
-101.728
-100.875
-100.063
-99.2821
-98.5209
-97.7696
-97.0206
-96.2683
-95.5094
-94.7427
-93.9677
-93.1843
-92.3926
-91.5929
-90.7846
-89.968
-89.1433
-88.3104
-87.4691
-86.6192
-85.7605
-84.8934
-84.0184
-83.1358
-82.246
-81.3489
-80.4446
-79.5328
-78.6135
-77.6867
-76.7522
-75.8101
-74.8602
-73.9026
-72.9372
-71.9639
-70.9828
-69.9938
-68.997
-67.9924
-66.9801
-65.9601
-64.9323
-63.8968
-62.8535
-61.8022
-60.743
-59.6759
-58.6008
-57.5181
-56.4279
-55.3307
-54.227
-53.1169
-52.0007
-160.326
-160.346
-160.384
-160.442
-160.524
-160.634
-160.777
-160.958
-161.18
-161.446
-161.757
-162.112
-162.508
-162.938
-163.391
-163.857
-164.319
-164.761
-165.165
-165.512
-165.786
-165.97
-166.052
-166.025
-165.89
-165.643
-165.279
-164.793
-164.198
-163.51
-162.741
-161.902
-161.004
-160.061
-159.084
-158.084
-157.074
-156.067
-155.081
-154.131
-153.23
-152.387
-151.612
-150.917
-150.312
-149.806
-149.398
-149.082
-148.849
-148.681
-148.535
-148.353
-148.084
-147.702
-147.22
-146.655
-146.029
-145.364
-144.661
-144.016
-143.495
-143.088
-142.909
-142.956
-143.113
-143.319
-143.547
-143.793
-144.054
-144.33
-144.622
-144.937
-145.291
-145.72
-146.28
-147.027
-147.97
-149.053
-150.152
-151.157
-152.02
-152.723
-153.223
-153.447
-153.333
-152.858
-152.026
-150.865
-149.436
-147.819
-146.099
-144.345
-142.602
-140.893
-139.227
-137.608
-136.034
-134.498
-132.994
-131.519
-130.072
-128.656
-127.272
-125.922
-124.605
-123.318
-122.059
-120.828
-119.624
-118.449
-117.306
-116.196
-115.12
-114.075
-113.057
-112.056
-111.062
-110.06
-109.037
-107.986
-106.913
-105.834
-104.776
-103.758
-102.791
-101.878
-101.012
-100.188
-99.3964
-98.6264
-97.8674
-97.1106
-96.3505
-95.5835
-94.8081
-94.0242
-93.2327
-92.4342
-91.6287
-90.8148
-89.9935
-89.1644
-88.3276
-87.4829
-86.63
-85.7689
-84.8996
-84.0227
-83.1386
-82.2476
-81.3497
-80.4449
-79.5327
-78.6132
-77.6862
-76.7517
-75.8095
-74.8597
-73.9021
-72.9367
-71.9635
-70.9823
-69.9934
-68.9966
-67.992
-66.9798
-65.9598
-64.9322
-63.8968
-62.8537
-61.8027
-60.7437
-59.6767
-58.6018
-57.5191
-56.4288
-55.3312
-54.2267
-53.1154
-51.9972
-160.461
-160.482
-160.529
-160.602
-160.709
-160.854
-161.048
-161.299
-161.612
-161.991
-162.436
-162.942
-163.501
-164.101
-164.725
-165.355
-165.969
-166.546
-167.067
-167.516
-167.876
-168.135
-168.28
-168.299
-168.186
-167.94
-167.531
-166.987
-166.32
-165.547
-164.684
-163.752
-162.771
-161.757
-160.718
-159.651
-158.553
-157.435
-156.321
-155.24
-154.219
-153.273
-152.407
-151.624
-150.933
-150.343
-149.86
-149.482
-149.2
-149.003
-148.858
-148.701
-148.451
-148.048
-147.492
-146.847
-146.19
-145.549
-144.928
-144.361
-143.88
-143.508
-143.359
-143.398
-143.535
-143.724
-143.943
-144.184
-144.443
-144.718
-145.013
-145.335
-145.708
-146.176
-146.801
-147.637
-148.683
-149.861
-151.037
-152.123
-153.095
-153.933
-154.564
-154.886
-154.827
-154.353
-153.47
-152.199
-150.607
-148.798
-146.885
-144.963
-143.086
-141.276
-139.54
-137.872
-136.265
-134.707
-133.19
-131.705
-130.25
-128.826
-127.433
-126.075
-124.75
-123.459
-122.2
-120.97
-119.77
-118.599
-117.458
-116.347
-115.267
-114.218
-113.196
-112.195
-111.205
-110.214
-109.205
-108.169
-107.105
-106.031
-104.972
-103.951
-102.98
-102.058
-101.181
-100.342
-99.535
-98.751
-97.9809
-97.2151
-96.4461
-95.6697
-94.8845
-94.0906
-93.2894
-92.4816
-91.6692
-90.8481
-90.0214
-89.1877
-88.3466
-87.4981
-86.6419
-85.778
-84.9064
-84.0275
-83.1417
-82.2496
-81.3509
-80.4454
-79.5329
-78.6131
-77.6859
-76.7512
-75.809
-74.8591
-73.9016
-72.9362
-71.9631
-70.982
-69.993
-68.9962
-67.9916
-66.9794
-65.9595
-64.9319
-63.8967
-62.8538
-61.803
-60.7442
-59.6774
-58.6026
-57.5198
-56.4293
-55.3313
-54.226
-53.1135
-51.9937
-160.755
-160.773
-160.823
-160.906
-161.035
-161.219
-161.47
-161.8
-162.213
-162.712
-163.293
-163.942
-164.644
-165.377
-166.121
-166.854
-167.563
-168.234
-168.855
-169.411
-169.885
-170.261
-170.514
-170.617
-170.539
-170.261
-169.83
-169.228
-168.461
-167.552
-166.532
-165.444
-164.324
-163.199
-162.084
-160.988
-159.895
-158.758
-157.568
-156.359
-155.192
-154.115
-153.144
-152.275
-151.507
-150.844
-150.293
-149.857
-149.53
-149.301
-149.148
-149.02
-148.827
-148.46
-147.893
-147.176
-146.432
-145.765
-145.182
-144.634
-144.153
-143.835
-143.735
-143.778
-143.902
-144.073
-144.277
-144.506
-144.756
-145.024
-145.315
-145.642
-146.033
-146.537
-147.219
-148.127
-149.257
-150.519
-151.782
-152.973
-154.079
-155.072
-155.852
-156.297
-156.326
-155.888
-154.977
-153.606
-151.853
-149.838
-147.709
-145.596
-143.57
-141.654
-139.844
-138.128
-136.489
-134.911
-133.381
-131.887
-130.423
-128.99
-127.59
-126.225
-124.897
-123.604
-122.346
-121.12
-119.924
-118.758
-117.62
-116.512
-115.432
-114.38
-113.353
-112.348
-111.357
-110.369
-109.371
-108.349
-107.299
-106.235
-105.181
-104.163
-103.191
-102.265
-101.38
-100.528
-99.7031
-98.8999
-98.1124
-97.3327
-96.5526
-95.7665
-94.9712
-94.1666
-93.3538
-92.5352
-91.7108
-90.8844
-90.0516
-89.2126
-88.367
-87.5143
-86.6546
-85.7877
-84.9136
-84.0327
-83.1454
-82.252
-81.3523
-80.4462
-79.5333
-78.6132
-77.6858
-76.7509
-75.8086
-74.8586
-73.9011
-72.9358
-71.9626
-70.9815
-69.9926
-68.9958
-67.9912
-66.979
-65.9591
-64.9316
-63.8965
-62.8537
-61.8031
-60.7445
-59.6779
-58.6032
-57.5204
-56.4297
-55.3312
-54.2252
-53.1115
-51.9901
-161.176
-161.193
-161.246
-161.34
-161.49
-161.712
-162.021
-162.427
-162.934
-163.539
-164.227
-164.978
-165.77
-166.58
-167.395
-168.206
-169.013
-169.815
-170.611
-171.389
-172.123
-172.77
-173.275
-173.584
-173.656
-173.46
-172.995
-172.264
-171.292
-170.123
-168.814
-167.42
-165.997
-164.594
-163.253
-162.008
-160.866
-159.764
-158.615
-157.374
-156.092
-154.865
-153.757
-152.781
-151.929
-151.195
-150.58
-150.089
-149.723
-149.474
-149.323
-149.225
-149.103
-148.832
-148.32
-147.604
-146.8
-146.089
-145.478
-144.856
-144.328
-144.058
-144.005
-144.064
-144.18
-144.338
-144.529
-144.745
-144.982
-145.241
-145.528
-145.859
-146.266
-146.797
-147.519
-148.476
-149.665
-150.995
-152.341
-153.639
-154.877
-156.018
-156.94
-157.51
-157.637
-157.269
-156.342
-154.91
-153.038
-150.849
-148.515
-146.21
-144.034
-142.014
-140.137
-138.377
-136.707
-135.109
-133.566
-132.063
-130.592
-129.152
-127.744
-126.374
-125.044
-123.752
-122.497
-121.275
-120.085
-118.923
-117.79
-116.686
-115.609
-114.559
-113.532
-112.524
-111.53
-110.542
-109.549
-108.536
-107.499
-106.449
-105.405
-104.392
-103.423
-102.496
-101.603
-100.738
-99.8973
-99.075
-98.2666
-97.4671
-96.6708
-95.8717
-95.0654
-94.25
-93.4261
-92.5961
-91.7618
-90.9251
-90.0845
-89.2391
-88.3883
-87.5313
-86.6678
-85.7978
-84.9213
-84.0385
-83.1496
-82.2549
-81.3543
-80.4474
-79.5339
-78.6135
-77.6858
-76.7507
-75.8082
-74.8581
-73.9005
-72.9352
-71.9621
-70.9811
-69.9922
-68.9954
-67.9908
-66.9785
-65.9586
-64.9312
-63.8962
-62.8535
-61.803
-60.7446
-59.6782
-58.6035
-57.5207
-56.4298
-55.3309
-54.2242
-53.1095
-51.9866
-161.674
-161.692
-161.749
-161.851
-162.021
-162.275
-162.633
-163.101
-163.681
-164.36
-165.118
-165.928
-166.771
-167.635
-168.52
-169.438
-170.402
-171.424
-172.5
-173.603
-174.682
-175.662
-176.461
-176.999
-177.217
-177.081
-176.558
-175.672
-174.473
-173.028
-171.41
-169.688
-167.919
-166.161
-164.468
-162.91
-161.556
-160.404
-159.307
-158.13
-156.82
-155.469
-154.213
-153.106
-152.149
-151.329
-150.64
-150.083
-149.661
-149.377
-149.221
-149.169
-149.139
-148.975
-148.585
-147.962
-147.168
-146.419
-145.741
-145.058
-144.513
-144.264
-144.213
-144.259
-144.362
-144.508
-144.686
-144.89
-145.117
-145.368
-145.652
-145.986
-146.405
-146.954
-147.696
-148.674
-149.886
-151.255
-152.666
-154.051
-155.388
-156.644
-157.672
-158.34
-158.549
-158.225
-157.338
-155.902
-153.983
-151.695
-149.211
-146.746
-144.444
-142.338
-140.41
-138.612
-136.916
-135.299
-133.743
-132.232
-130.755
-129.308
-127.895
-126.521
-125.19
-123.903
-122.654
-121.438
-120.252
-119.095
-117.965
-116.864
-115.791
-114.745
-113.721
-112.714
-111.719
-110.732
-109.741
-108.735
-107.711
-106.676
-105.647
-104.642
-103.675
-102.746
-101.846
-100.969
-100.112
-99.2703
-98.4412
-97.6204
-96.8037
-95.987
-95.1665
-94.3393
-93.5042
-92.6628
-91.8174
-90.9699
-90.1202
-89.2673
-88.4105
-87.5486
-86.6813
-85.8082
-84.9293
-84.0445
-83.1542
-82.2583
-81.3566
-80.4489
-79.5348
-78.6139
-77.6858
-76.7505
-75.8078
-74.8577
-73.9
-72.9346
-71.9615
-70.9805
-69.9916
-68.9949
-67.9903
-66.978
-65.9581
-64.9307
-63.8957
-62.8531
-61.8028
-60.7445
-59.6782
-58.6036
-57.5208
-56.4297
-55.3304
-54.223
-53.1074
-51.9833
-162.186
-162.206
-162.266
-162.375
-162.559
-162.835
-163.225
-163.733
-164.356
-165.079
-165.875
-166.719
-167.598
-168.511
-169.475
-170.518
-171.661
-172.914
-174.259
-175.647
-176.998
-178.216
-179.203
-179.866
-180.143
-179.999
-179.431
-178.441
-177.072
-175.402
-173.529
-171.548
-169.534
-167.543
-165.6
-163.742
-162.1
-160.764
-159.692
-158.585
-157.307
-155.875
-154.479
-153.233
-152.162
-151.245
-150.469
-149.83
-149.331
-148.977
-148.772
-148.713
-148.741
-148.745
-148.555
-148.103
-147.415
-146.675
-145.993
-145.356
-144.833
-144.513
-144.374
-144.368
-144.443
-144.574
-144.743
-144.939
-145.16
-145.408
-145.691
-146.028
-146.451
-147.004
-147.742
-148.71
-149.908
-151.278
-152.718
-154.155
-155.551
-156.856
-157.943
-158.673
-158.94
-158.668
-157.824
-156.421
-154.527
-152.235
-149.697
-147.147
-144.767
-142.609
-140.647
-138.827
-137.111
-135.476
-133.907
-132.389
-130.908
-129.459
-128.042
-126.665
-125.334
-124.051
-122.811
-121.606
-120.429
-119.277
-118.15
-117.05
-115.979
-114.935
-113.914
-112.91
-111.918
-110.932
-109.944
-108.946
-107.934
-106.916
-105.905
-104.913
-103.95
-103.016
-102.107
-101.218
-100.343
-99.4825
-98.6321
-97.7895
-96.9513
-96.1142
-95.2759
-94.434
-93.5867
-92.7336
-91.8768
-91.0182
-90.1585
-89.2974
-88.4337
-87.5664
-86.6949
-85.8185
-84.9371
-84.0506
-83.159
-82.2619
-81.3593
-80.4508
-79.5359
-78.6144
-77.6859
-76.7503
-75.8074
-74.8572
-73.8994
-72.934
-71.9608
-70.9799
-69.991
-68.9943
-67.9898
-66.9775
-65.9576
-64.9301
-63.8952
-62.8526
-61.8023
-60.7442
-59.6779
-58.6034
-57.5206
-56.4293
-55.3297
-54.2218
-53.1053
-51.9801
-162.674
-162.699
-162.764
-162.878
-163.069
-163.352
-163.752
-164.273
-164.911
-165.647
-166.457
-167.316
-168.216
-169.164
-170.185
-171.318
-172.585
-173.993
-175.516
-177.091
-178.624
-180.01
-181.143
-181.934
-182.314
-182.235
-181.659
-180.575
-179.024
-177.109
-174.958
-172.739
-170.531
-168.391
-166.328
-164.326
-162.478
-160.975
-159.843
-158.781
-157.544
-156.073
-154.546
-153.165
-151.973
-150.954
-150.081
-149.346
-148.747
-148.288
-147.978
-147.826
-147.827
-147.907
-147.904
-147.717