/*--------------------------------*- C++ -*----------------------------------*\
  =========                 |
  \\      /  F ield         | OpenFOAM: The Open Source CFD Toolbox
   \\    /   O peration     | Website:  https://openfoam.org
    \\  /    A nd           | Version:  7
     \\/     M anipulation  |
\*---------------------------------------------------------------------------*/
FoamFile
{
    version     2.0;
    format      ascii;
    class       volSymmTensorField;
    location    "0.084";
    object      UPrime2Mean;
}
// * * * * * * * * * * * * * * * * * * * * * * * * * * * * * * * * * * * * * //

dimensions      [0 2 -2 0 0 0 0];

internalField   nonuniform List<symmTensor> 
12225
(
(0.00433015 -0.000107379 0 0.000497724 0 0)
(0.0248952 -0.00108715 0 0.000214482 0 0)
(0.0359022 -0.00159157 0 0.000183196 0 0)
(0.047804 -0.00195106 0 0.000169012 0 0)
(0.0683817 -0.00243554 0 0.000162956 0 0)
(0.0989501 -0.00305765 0 0.000161802 0 0)
(0.139709 -0.00381155 0 0.000171333 0 0)
(0.190891 -0.00439798 0 0.000159376 0 0)
(0.252574 -0.00532818 0 0.000172582 0 0)
(0.324171 -0.00514441 0 0.000133231 0 0)
(0.407205 -0.00689804 0 0.000160593 0 0)
(0.495621 -0.00450671 0 9.21711e-05 0 0)
(0.603192 -0.0105119 0 0.000234623 0 0)
(0.707417 -0.00120116 0 0.000162461 0 0)
(0.863284 -0.0246884 0 0.00111218 0 0)
(1.01604 0.0109897 0 0.00130253 0 0)
(1.3146 -0.0934927 0 0.0125366 0 0)
(1.78538 0.0344567 0 0.00607988 0 0)
(0.0041883 2.85228e-05 0 0.000650056 0 0)
(0.0169708 -0.000519611 0 0.00021853 0 0)
(0.0183598 -0.000857798 0 0.000248772 0 0)
(0.0188027 -0.00106808 0 0.000329276 0 0)
(0.0221646 -0.0015008 0 0.000431104 0 0)
(0.0282425 -0.00229131 0 0.000562711 0 0)
(0.0374939 -0.003404 0 0.000698191 0 0)
(0.0513986 -0.00498936 0 0.000887754 0 0)
(0.0703294 -0.00668975 0 0.000999935 0 0)
(0.0977967 -0.00927012 0 0.00124087 0 0)
(0.131779 -0.0111605 0 0.00124584 0 0)
(0.18047 -0.015485 0 0.00161713 0 0)
(0.2348 -0.0168249 0 0.00146962 0 0)
(0.317561 -0.0261396 0 0.00241126 0 0)
(0.401331 -0.0265509 0 0.00216815 0 0)
(0.555828 -0.053845 0 0.006072 0 0)
(0.697845 -0.0650767 0 0.00678457 0 0)
(1.01611 -0.183582 0 0.0430599 0 0)
(0.00397022 8.74938e-05 0 0.000860902 0 0)
(0.0165588 -0.000770758 0 0.000410318 0 0)
(0.0173569 -0.00121384 0 0.000449014 0 0)
(0.0168127 -0.00134633 0 0.000563173 0 0)
(0.0181348 -0.00158135 0 0.000715345 0 0)
(0.0203172 -0.00203493 0 0.000906259 0 0)
(0.0232269 -0.00272801 0 0.00118443 0 0)
(0.0270459 -0.00360635 0 0.00145061 0 0)
(0.0322468 -0.00486991 0 0.00186294 0 0)
(0.0392165 -0.00620363 0 0.00213245 0 0)
(0.0492207 -0.00850899 0 0.00270248 0 0)
(0.0626017 -0.0104174 0 0.00288233 0 0)
(0.0822051 -0.0151621 0 0.00394722 0 0)
(0.108276 -0.0181142 0 0.00406392 0 0)
(0.147364 -0.0305514 0 0.00734112 0 0)
(0.200267 -0.0386919 0 0.00831445 0 0)
(0.276365 -0.079291 0 0.0241938 0 0)
(0.374516 -0.132695 0 0.0500775 0 0)
(0.00387988 -0.000229792 0 0.000965384 0 0)
(0.0164804 -0.00100429 0 0.000478971 0 0)
(0.0172403 -0.0013688 0 0.000512477 0 0)
(0.016604 -0.00150339 0 0.000668285 0 0)
(0.0176748 -0.00173598 0 0.000855118 0 0)
(0.0194376 -0.00219106 0 0.00109447 0 0)
(0.0216671 -0.00284039 0 0.00138666 0 0)
(0.0244549 -0.00368345 0 0.00178322 0 0)
(0.0278819 -0.0046665 0 0.00219411 0 0)
(0.032403 -0.00600623 0 0.00275723 0 0)
(0.0382919 -0.00758869 0 0.00328698 0 0)
(0.0465843 -0.0100931 0 0.00415024 0 0)
(0.0577479 -0.0131844 0 0.00502945 0 0)
(0.0740028 -0.0188086 0 0.00689138 0 0)
(0.0962417 -0.0267248 0 0.00949172 0 0)
(0.127692 -0.0420508 0 0.0158963 0 0)
(0.168479 -0.0687682 0 0.029791 0 0)
(0.210067 -0.111066 0 0.0606614 0 0)
(0.00437876 -0.000187368 0 0.00109215 0 0)
(0.0162008 -0.00116175 0 0.000607922 0 0)
(0.0166809 -0.00152226 0 0.000638542 0 0)
(0.0160495 -0.00166165 0 0.000833786 0 0)
(0.0171514 -0.00191406 0 0.00106966 0 0)
(0.0188553 -0.00239541 0 0.00134856 0 0)
(0.0209385 -0.00309968 0 0.00172668 0 0)
(0.0234852 -0.00398971 0 0.00217183 0 0)
(0.0266384 -0.00512706 0 0.0027643 0 0)
(0.0306638 -0.00649655 0 0.00340246 0 0)
(0.0359489 -0.00844713 0 0.00429035 0 0)
(0.0430061 -0.010948 0 0.00529807 0 0)
(0.0525506 -0.0148956 0 0.00696403 0 0)
(0.0655505 -0.0204045 0 0.00923189 0 0)
(0.0829991 -0.0297299 0 0.013669 0 0)
(0.105424 -0.0442258 0 0.0216112 0 0)
(0.131463 -0.0676063 0 0.0376377 0 0)
(0.15297 -0.102817 0 0.0730575 0 0)
(0.00424301 -0.0002455 0 0.00119697 0 0)
(0.0162606 -0.00134238 0 0.000739943 0 0)
(0.0165059 -0.00165636 0 0.000784501 0 0)
(0.0157595 -0.00175765 0 0.0010436 0 0)
(0.0167232 -0.00201325 0 0.00135217 0 0)
(0.0182268 -0.00252258 0 0.00170943 0 0)
(0.0200815 -0.00325985 0 0.00215078 0 0)
(0.0223858 -0.0042124 0 0.00271365 0 0)
(0.0252634 -0.00541189 0 0.00340141 0 0)
(0.0289292 -0.00696747 0 0.00426254 0 0)
(0.0337139 -0.00905882 0 0.00534543 0 0)
(0.0399831 -0.0119803 0 0.00681476 0 0)
(0.0483124 -0.016179 0 0.00891679 0 0)
(0.0591215 -0.0223505 0 0.0121792 0 0)
(0.0730422 -0.0317421 0 0.0176833 0 0)
(0.0892179 -0.0456518 0 0.0273138 0 0)
(0.106331 -0.0661499 0 0.0450839 0 0)
(0.118103 -0.0922096 0 0.0761821 0 0)
(0.00351817 -0.000248182 0 0.00140772 0 0)
(0.0155531 -0.00149474 0 0.00100013 0 0)
(0.0157586 -0.00180304 0 0.00101764 0 0)
(0.0150169 -0.00192385 0 0.00129073 0 0)
(0.0159769 -0.00220594 0 0.00164945 0 0)
(0.017427 -0.00275352 0 0.00206653 0 0)
(0.0191674 -0.00355088 0 0.00258932 0 0)
(0.0212861 -0.00457862 0 0.00325044 0 0)
(0.0239009 -0.00588113 0 0.00409435 0 0)
(0.0271993 -0.00755731 0 0.00515834 0 0)
(0.0314501 -0.00981872 0 0.00653666 0 0)
(0.0369124 -0.0129424 0 0.00841236 0 0)
(0.0439386 -0.0173573 0 0.011098 0 0)
(0.052661 -0.0236796 0 0.0152299 0 0)
(0.0632135 -0.0327081 0 0.0217566 0 0)
(0.0744819 -0.0454009 0 0.0327148 0 0)
(0.0851802 -0.0620884 0 0.0503543 0 0)
(0.0908876 -0.081528 0 0.0787148 0 0)
(0.00365114 -0.000236009 0 0.00131395 0 0)
(0.015384 -0.00163192 0 0.00100334 0 0)
(0.0155193 -0.00188577 0 0.00113191 0 0)
(0.0147077 -0.00195412 0 0.00147357 0 0)
(0.0155888 -0.00224708 0 0.00190786 0 0)
(0.0169375 -0.0028227 0 0.00241646 0 0)
(0.0185115 -0.00364102 0 0.0030426 0 0)
(0.020378 -0.0046991 0 0.00383929 0 0)
(0.0226531 -0.00605693 0 0.00485456 0 0)
(0.0255001 -0.00782713 0 0.00615513 0 0)
(0.02912 -0.0101992 0 0.00785336 0 0)
(0.0336625 -0.0134251 0 0.0101695 0 0)
(0.0393003 -0.0178677 0 0.013452 0 0)
(0.0459743 -0.0239822 0 0.0183417 0 0)
(0.0535364 -0.0322933 0 0.0257502 0 0)
(0.0609315 -0.0431761 0 0.0372845 0 0)
(0.0670776 -0.0564093 0 0.054536 0 0)
(0.0692139 -0.0705732 0 0.0799426 0 0)
(0.00438375 -0.000509831 0 0.00142032 0 0)
(0.0156736 -0.00202528 0 0.00120617 0 0)
(0.0154175 -0.00223978 0 0.00136673 0 0)
(0.014601 -0.00225591 0 0.00174503 0 0)
(0.015511 -0.00255354 0 0.00225219 0 0)
(0.0167457 -0.00316885 0 0.00286072 0 0)
(0.0181013 -0.00403561 0 0.00360496 0 0)
(0.019705 -0.00514122 0 0.00454331 0 0)
(0.0216617 -0.00654324 0 0.00573944 0 0)
(0.0240757 -0.00835172 0 0.00728331 0 0)
(0.0270686 -0.0107398 0 0.00930397 0 0)
(0.030712 -0.013932 0 0.0120527 0 0)
(0.0350537 -0.0182037 0 0.0158757 0 0)
(0.0399197 -0.02386 0 0.0213967 0 0)
(0.0450418 -0.0311557 0 0.0293745 0 0)
(0.0495179 -0.0401159 0 0.041068 0 0)
(0.0526154 -0.05026 0 0.0574542 0 0)
(0.0526361 -0.06026 0 0.0798915 0 0)
(0.00380367 -0.000374158 0 0.00158444 0 0)
(0.015354 -0.00201415 0 0.00131649 0 0)
(0.0151822 -0.00223438 0 0.00150657 0 0)
(0.0143453 -0.00221531 0 0.0019317 0 0)
(0.0151466 -0.00248809 0 0.0024987 0 0)
(0.0162357 -0.00309343 0 0.00318637 0 0)
(0.0174181 -0.00395506 0 0.00402949 0 0)
(0.0187931 -0.00505601 0 0.00509499 0 0)
(0.0204385 -0.00645361 0 0.00646324 0 0)
(0.0224292 -0.00825095 0 0.00824156 0 0)
(0.0248369 -0.0105915 0 0.010571 0 0)
(0.027662 -0.0136435 0 0.0137044 0 0)
(0.0308587 -0.0175945 0 0.0179759 0 0)
(0.0341923 -0.0226024 0 0.0239427 0 0)
(0.0373745 -0.0287325 0 0.032206 0 0)
(0.0397049 -0.0358014 0 0.0436966 0 0)
(0.0407836 -0.043271 0 0.0589325 0 0)
(0.0395697 -0.0500445 0 0.07871 0 0)
(0.00386147 -0.000396369 0 0.00185962 0 0)
(0.0152854 -0.00231584 0 0.00164296 0 0)
(0.0147904 -0.00258607 0 0.00182492 0 0)
(0.0137072 -0.00250693 0 0.00228461 0 0)
(0.0143581 -0.00274494 0 0.00292238 0 0)
(0.0153377 -0.00333911 0 0.00371396 0 0)
(0.0163905 -0.00418335 0 0.00468574 0 0)
(0.0175737 -0.00524585 0 0.00590536 0 0)
(0.01894 -0.0065758 0 0.0074563 0 0)
(0.0205348 -0.00826682 0 0.00946176 0 0)
(0.0223915 -0.0104387 0 0.0120725 0 0)
(0.0244707 -0.0132083 0 0.0155315 0 0)
(0.0266892 -0.0166841 0 0.0201355 0 0)
(0.0288129 -0.0209081 0 0.0263535 0 0)
(0.0306056 -0.0258304 0 0.0346293 0 0)
(0.031558 -0.0311659 0 0.045622 0 0)
(0.0315153 -0.0364349 0 0.0595398 0 0)
(0.0298281 -0.0407654 0 0.0768518 0 0)
(0.00379518 -0.000463814 0 0.00190119 0 0)
(0.0152328 -0.00236227 0 0.00172599 0 0)
(0.0147428 -0.00262888 0 0.00196025 0 0)
(0.0135975 -0.00252483 0 0.00246967 0 0)
(0.0141307 -0.00274789 0 0.00316654 0 0)
(0.0149451 -0.00334076 0 0.00404093 0 0)
(0.0158083 -0.00417516 0 0.00511799 0 0)
(0.0167723 -0.00520302 0 0.00646171 0 0)
(0.017859 -0.00646708 0 0.00816693 0 0)
(0.0190805 -0.00804875 0 0.0103608 0 0)
(0.0204362 -0.0100403 0 0.0131923 0 0)
(0.0218602 -0.0125097 0 0.0168884 0 0)
(0.023257 -0.0155 0 0.0217018 0 0)
(0.0244357 -0.0189766 0 0.0280157 0 0)
(0.025228 -0.0228247 0 0.0361354 0 0)
(0.0253028 -0.0267397 0 0.0465254 0 0)
(0.0246428 -0.0303195 0 0.0592029 0 0)
(0.0228269 -0.0328998 0 0.074478 0 0)
(0.00365014 -0.000626306 0 0.00209744 0 0)
(0.0152033 -0.00256344 0 0.00198366 0 0)
(0.0146231 -0.00276089 0 0.00220527 0 0)
(0.013384 -0.00255796 0 0.00275174 0 0)
(0.0138108 -0.00270763 0 0.00350726 0 0)
(0.0144888 -0.00324515 0 0.00446709 0 0)
(0.015174 -0.00402126 0 0.00565552 0 0)
(0.015917 -0.00496655 0 0.0071293 0 0)
(0.016733 -0.00610661 0 0.00897847 0 0)
(0.017616 -0.00750445 0 0.0113259 0 0)
(0.0185363 -0.00922287 0 0.014314 0 0)
(0.0194213 -0.0112929 0 0.0181458 0 0)
(0.0201799 -0.013712 0 0.0230301 0 0)
(0.0206678 -0.016405 0 0.0292745 0 0)
(0.0207719 -0.0192274 0 0.0370756 0 0)
(0.0202923 -0.0218979 0 0.046763 0 0)
(0.0192856 -0.0240838 0 0.0582378 0 0)
(0.0174997 -0.0252997 0 0.0717259 0 0)
(0.00381717 -0.000632137 0 0.00251983 0 0)
(0.0151552 -0.00271095 0 0.00244099 0 0)
(0.0144372 -0.00286359 0 0.00263298 0 0)
(0.0131029 -0.00258164 0 0.00319173 0 0)
(0.0133989 -0.00264471 0 0.00399942 0 0)
(0.0138998 -0.0030933 0 0.00503358 0 0)
(0.0143543 -0.0037645 0 0.00631069 0 0)
(0.0148033 -0.00456619 0 0.00788737 0 0)
(0.0152526 -0.00549976 0 0.0098483 0 0)
(0.0156989 -0.00661033 0 0.0123138 0 0)
(0.016133 -0.00794754 0 0.0154132 0 0)
(0.0165027 -0.00951669 0 0.0193199 0 0)
(0.0167288 -0.0112797 0 0.0241883 0 0)
(0.016695 -0.0131208 0 0.0302424 0 0)
(0.0163271 -0.0148904 0 0.0375778 0 0)
(0.0155211 -0.0163323 0 0.0464138 0 0)
(0.014391 -0.0172218 0 0.0565681 0 0)
(0.0127729 -0.0171922 0 0.0682269 0 0)
(0.00399899 -0.000411412 0 0.00259657 0 0)
(0.0151104 -0.00286266 0 0.00269741 0 0)
(0.0142705 -0.00307273 0 0.00296132 0 0)
(0.0128784 -0.00277553 0 0.00359412 0 0)
(0.0131086 -0.00279707 0 0.00447476 0 0)
(0.0134964 -0.00316808 0 0.00558588 0 0)
(0.01379 -0.00372345 0 0.00695294 0 0)
(0.0140281 -0.00437486 0 0.00862456 0 0)
(0.0142215 -0.00511811 0 0.0106742 0 0)
(0.0143764 -0.00597447 0 0.0132077 0 0)
(0.0144791 -0.00695519 0 0.016331 0 0)
(0.0144788 -0.00802585 0 0.0201775 0 0)
(0.0143122 -0.00912153 0 0.0248456 0 0)
(0.0139157 -0.0101183 0 0.0304868 0 0)
(0.0132779 -0.0108943 0 0.037117 0 0)
(0.0123729 -0.0112471 0 0.0448818 0 0)
(0.0113449 -0.0110502 0 0.0535614 0 0)
(0.0100808 -0.0100374 0 0.0633258 0 0)
(0.00427568 -0.000375857 0 0.00282792 0 0)
(0.0151404 -0.00290267 0 0.00272232 0 0)
(0.0139937 -0.003132 0 0.00294702 0 0)
(0.0123483 -0.00275918 0 0.00359807 0 0)
(0.0123372 -0.00268966 0 0.0045146 0 0)
(0.0124815 -0.00297081 0 0.00568219 0 0)
(0.0125753 -0.00340373 0 0.00711475 0 0)
(0.0126623 -0.00386487 0 0.00884575 0 0)
(0.012704 -0.00433145 0 0.0109266 0 0)
(0.0126547 -0.00481413 0 0.0134386 0 0)
(0.0124947 -0.00531534 0 0.0164668 0 0)
(0.0122113 -0.0057938 0 0.0201137 0 0)
(0.0118 -0.00618628 0 0.0244306 0 0)
(0.0112628 -0.00637826 0 0.0295077 0 0)
(0.0106278 -0.00628318 0 0.035305 0 0)
(0.00991765 -0.00574375 0 0.0419157 0 0)
(0.00926034 -0.00471808 0 0.0491169 0 0)
(0.00856785 -0.00300296 0 0.0570786 0 0)
(0.00427498 -0.000407448 0 0.00293731 0 0)
(0.0154469 -0.00308158 0 0.00282103 0 0)
(0.0141791 -0.00336799 0 0.00309473 0 0)
(0.0123972 -0.00294884 0 0.00379553 0 0)
(0.012264 -0.00280231 0 0.00473382 0 0)
(0.0122608 -0.00299095 0 0.00591305 0 0)
(0.0121716 -0.00329091 0 0.00734288 0 0)
(0.0120515 -0.00354661 0 0.00903865 0 0)
(0.0118857 -0.00371893 0 0.0110341 0 0)
(0.0116545 -0.00382451 0 0.0133907 0 0)
(0.011353 -0.00387713 0 0.0161657 0 0)
(0.0109815 -0.00384108 0 0.0194231 0 0)
(0.0105453 -0.00365703 0 0.023174 0 0)
(0.0100709 -0.00322645 0 0.027467 0 0)
(0.00959533 -0.00248904 0 0.0322335 0 0)
(0.00916991 -0.00133539 0 0.0375412 0 0)
(0.00889025 0.0002321 0 0.0431794 0 0)
(0.00871521 0.00235573 0 0.0493228 0 0)
(0.003918 -0.000484786 0 0.00310017 0 0)
(0.0151558 -0.00315299 0 0.00319653 0 0)
(0.0138813 -0.00335649 0 0.00324656 0 0)
(0.0119917 -0.00294599 0 0.00378346 0 0)
(0.0116715 -0.00279313 0 0.00463187 0 0)
(0.0114174 -0.00287034 0 0.00570162 0 0)
(0.0110777 -0.00296088 0 0.00696353 0 0)
(0.0107626 -0.00294914 0 0.00843558 0 0)
(0.0104779 -0.00281781 0 0.0101615 0 0)
(0.0102015 -0.00257699 0 0.012187 0 0)
(0.00992216 -0.00222122 0 0.0145316 0 0)
(0.00964275 -0.00171219 0 0.0172192 0 0)
(0.00937612 -0.00100299 0 0.0202392 0 0)
(0.00916355 -3.14516e-05 0 0.0236165 0 0)
(0.00904543 0.00123299 0 0.0272834 0 0)
(0.00908073 0.00284703 0 0.0312955 0 0)
(0.00933578 0.00479137 0 0.0354841 0 0)
(0.00978955 0.00714347 0 0.0399985 0 0)
(0.00398406 -0.000282248 0 0.00291947 0 0)
(0.0153084 -0.00279171 0 0.00288425 0 0)
(0.0136263 -0.0029482 0 0.00287369 0 0)
(0.0115064 -0.00237451 0 0.00335547 0 0)
(0.0111042 -0.00196911 0 0.00408025 0 0)
(0.0107709 -0.00179035 0 0.00496578 0 0)
(0.0103798 -0.00164866 0 0.00600573 0 0)
(0.0100721 -0.00141112 0 0.00721095 0 0)
(0.00985432 -0.00102413 0 0.00859046 0 0)
(0.00970333 -0.000475834 0 0.010155 0 0)
(0.0096161 0.000232931 0 0.0119073 0 0)
(0.00960816 0.0011134 0 0.0138597 0 0)
(0.00970457 0.00218116 0 0.0159996 0 0)
(0.00995194 0.0034681 0 0.0183418 0 0)
(0.010385 0.00498318 0 0.0208334 0 0)
(0.0110524 0.006762 0 0.0235164 0 0)
(0.0119913 0.00877538 0 0.0262696 0 0)
(0.0131898 0.0110793 0 0.0292044 0 0)
(0.00408819 -0.000447419 0 0.00334508 0 0)
(0.0147101 -0.00265941 0 0.00313341 0 0)
(0.0128732 -0.00264269 0 0.00298264 0 0)
(0.0107598 -0.00201722 0 0.0032998 0 0)
(0.0102823 -0.00154765 0 0.00381668 0 0)
(0.00991485 -0.00126721 0 0.00446526 0 0)
(0.00953948 -0.00101633 0 0.00523528 0 0)
(0.00927437 -0.0006698 0 0.00611978 0 0)
(0.00913116 -0.000169575 0 0.0071149 0 0)
(0.00910094 0.00049374 0 0.00822552 0 0)
(0.00918871 0.00131185 0 0.00945476 0 0)
(0.00941546 0.00228571 0 0.0108109 0 0)
(0.00980777 0.00342126 0 0.0122824 0 0)
(0.0104067 0.00473599 0 0.0138752 0 0)
(0.0112426 0.00622819 0 0.0155481 0 0)
(0.0123512 0.007915 0 0.0173309 0 0)
(0.0137551 0.00976778 0 0.0191445 0 0)
(0.015446 0.011822 0 0.0210579 0 0)
(0.00448212 -0.000363198 0 0.00295846 0 0)
(0.0151014 -0.00229699 0 0.00263569 0 0)
(0.0132421 -0.00215713 0 0.00238371 0 0)
(0.011133 -0.00149437 0 0.00254848 0 0)
(0.0106291 -0.00100895 0 0.00289471 0 0)
(0.0102221 -0.000696785 0 0.00335535 0 0)
(0.00984671 -0.000400889 0 0.0038997 0 0)
(0.00964125 -1.2059e-05 0 0.00450779 0 0)
(0.00960903 0.000514963 0 0.00517412 0 0)
(0.00972891 0.00118587 0 0.00590652 0 0)
(0.0100078 0.00199113 0 0.00671028 0 0)
(0.010473 0.00292509 0 0.00759123 0 0)
(0.0111535 0.00398459 0 0.00854012 0 0)
(0.0120815 0.00517801 0 0.00956232 0 0)
(0.0132748 0.0065019 0 0.010632 0 0)
(0.0147569 0.00797104 0 0.0117703 0 0)
(0.0165426 0.00956315 0 0.0129258 0 0)
(0.0186213 0.0113092 0 0.0141469 0 0)
(0.00378732 -0.000193409 0 0.00289577 0 0)
(0.0147042 -0.00201556 0 0.00220456 0 0)
(0.0129203 -0.00198763 0 0.0018978 0 0)
(0.0108097 -0.00139774 0 0.00199523 0 0)
(0.0102855 -0.000915765 0 0.00225545 0 0)
(0.00986773 -0.000592548 0 0.00261339 0 0)
(0.00949687 -0.000304405 0 0.00303243 0 0)
(0.00930601 5.98084e-05 0 0.00349874 0 0)
(0.00930654 0.000558645 0 0.00401168 0 0)
(0.00949685 0.00120025 0 0.00457364 0 0)
(0.00989487 0.00196664 0 0.00518209 0 0)
(0.0105256 0.00284166 0 0.00583714 0 0)
(0.0114087 0.003817 0 0.00653124 0 0)
(0.0125687 0.004897 0 0.0072671 0 0)
(0.014019 0.00607992 0 0.00802522 0 0)
(0.0157781 0.00737677 0 0.00882247 0 0)
(0.0178574 0.00876729 0 0.00962155 0 0)
(0.0202463 0.0102714 0 0.0104549 0 0)
(0.00418521 -0.000275496 0 0.00248078 0 0)
(0.0145103 -0.0018361 0 0.00204826 0 0)
(0.0125789 -0.00164024 0 0.00172751 0 0)
(0.0104441 -0.00101485 0 0.001678 0 0)
(0.00992627 -0.000545433 0 0.00176153 0 0)
(0.00952226 -0.000244309 0 0.0019228 0 0)
(0.00918262 1.89786e-05 0 0.00212994 0 0)
(0.0090702 0.000341953 0 0.00236391 0 0)
(0.009204 0.000767043 0 0.00262676 0 0)
(0.00956619 0.00129882 0 0.00292951 0 0)
(0.0101606 0.00192565 0 0.00327397 0 0)
(0.0110053 0.00263693 0 0.00365501 0 0)
(0.0121212 0.00342743 0 0.00406201 0 0)
(0.01353 0.00429968 0 0.00449504 0 0)
(0.0152489 0.00525016 0 0.00494249 0 0)
(0.0172879 0.00628291 0 0.00541802 0 0)
(0.0196626 0.00738463 0 0.00589957 0 0)
(0.0223443 0.00856509 0 0.00640578 0 0)
(0.00431501 -0.000578752 0 0.00216977 0 0)
(0.014348 -0.00176524 0 0.00157932 0 0)
(0.0120917 -0.00131265 0 0.00133353 0 0)
(0.0100181 -0.000619881 0 0.00135207 0 0)
(0.00974652 -0.000141928 0 0.00146308 0 0)
(0.00956383 0.000156592 0 0.00161801 0 0)
(0.00939589 0.000421406 0 0.00179254 0 0)
(0.00946007 0.000750556 0 0.00198118 0 0)
(0.00982317 0.00118084 0 0.00218641 0 0)
(0.0104781 0.0017101 0 0.00240908 0 0)
(0.0114154 0.00232241 0 0.0026458 0 0)
(0.0126407 0.00300255 0 0.00289628 0 0)
(0.014168 0.00374046 0 0.00315981 0 0)
(0.0160147 0.00453603 0 0.0034407 0 0)
(0.0181861 0.0053838 0 0.00373198 0 0)
(0.0206845 0.0062891 0 0.00404468 0 0)
(0.0235137 0.00723974 0 0.00436244 0 0)
(0.0266461 0.00825282 0 0.00469328 0 0)
(0.00449735 -0.000433393 0 0.00192243 0 0)
(0.014307 -0.00147707 0 0.00126933 0 0)
(0.0119188 -0.00112844 0 0.000928077 0 0)
(0.00979236 -0.000618473 0 0.000879139 0 0)
(0.00946223 -0.000262115 0 0.000913214 0 0)
(0.00921563 -4.18457e-05 0 0.000951475 0 0)
(0.00902335 0.000134834 0 0.000991553 0 0)
(0.00911187 0.000343069 0 0.00105639 0 0)
(0.00952321 0.000621177 0 0.00115189 0 0)
(0.0102318 0.00097355 0 0.00126865 0 0)
(0.0112333 0.00138703 0 0.00139629 0 0)
(0.0125447 0.00185117 0 0.00153175 0 0)
(0.0141876 0.00236083 0 0.0016753 0 0)
(0.0161756 0.00291594 0 0.00183015 0 0)
(0.0185093 0.00351298 0 0.00199243 0 0)
(0.0211767 0.00415299 0 0.00216771 0 0)
(0.0241784 0.00482589 0 0.00234653 0 0)
(0.0274716 0.00554295 0 0.00253427 0 0)
(0.00442236 -0.000299252 0 0.00190183 0 0)
(0.0142277 -0.00109346 0 0.00108138 0 0)
(0.0116284 -0.000895942 0 0.000737574 0 0)
(0.00952608 -0.000446485 0 0.000725644 0 0)
(0.00930106 -5.83573e-05 0 0.000758585 0 0)
(0.00920822 0.000196659 0 0.00078082 0 0)
(0.0092625 0.000391619 0 0.000796832 0 0)
(0.00967617 0.000599047 0 0.000821418 0 0)
(0.0104413 0.000855029 0 0.000861507 0 0)
(0.0114936 0.00116555 0 0.000914144 0 0)
(0.012825 0.00152102 0 0.000975044 0 0)
(0.0144708 0.00191342 0 0.00104314 0 0)
(0.016468 0.00233834 0 0.00111877 0 0)
(0.018835 0.0027957 0 0.00120435 0 0)
(0.0215727 0.00328256 0 0.00129768 0 0)
(0.0246662 0.00380174 0 0.00140263 0 0)
(0.0281186 0.00434505 0 0.00151356 0 0)
(0.0318838 0.00492281 0 0.00163367 0 0)
(0.00363029 -0.000441294 0 0.00152815 0 0)
(0.0132861 -0.00066261 0 0.000703152 0 0)
(0.0107405 -0.000401306 0 0.00039154 0 0)
(0.00890403 -0.000153406 0 0.000348588 0 0)
(0.00888912 3.71401e-05 0 0.000334696 0 0)
(0.00895906 0.000143463 0 0.000328708 0 0)
(0.00916724 0.000216799 0 0.000338028 0 0)
(0.00974137 0.000306025 0 0.000357287 0 0)
(0.010691 0.000431271 0 0.000380261 0 0)
(0.0119717 0.000591625 0 0.000404812 0 0)
(0.0135866 0.000779976 0 0.000431962 0 0)
(0.0155655 0.000990089 0 0.000463371 0 0)
(0.017928 0.00121881 0 0.000499792 0 0)
(0.02067 0.00146619 0 0.000542509 0 0)
(0.0237779 0.00173065 0 0.000590717 0 0)
(0.0272271 0.00201436 0 0.000646721 0 0)
(0.0310227 0.00231128 0 0.000707945 0 0)
(0.0351173 0.0026299 0 0.00077515 0 0)
(0.00459637 -0.000461784 0 0.00120928 0 0)
(0.013272 -0.000813086 0 0.000505018 0 0)
(0.0103962 -0.000594726 0 0.000359644 0 0)
(0.00882247 -0.000276999 0 0.000332544 0 0)
(0.00900433 -5.70047e-05 0 0.000288961 0 0)
(0.00922499 6.82967e-05 0 0.000246352 0 0)
(0.00968954 0.000165816 0 0.000222263 0 0)
(0.0106369 0.000264056 0 0.000212022 0 0)
(0.0120247 0.000362864 0 0.000210138 0 0)
(0.0137653 0.000464186 0 0.000213368 0 0)
(0.0158414 0.00057529 0 0.00022063 0 0)
(0.0182821 0.000701824 0 0.000232576 0 0)
(0.0211091 0.000846146 0 0.000250265 0 0)
(0.024324 0.0010079 0 0.000274232 0 0)
(0.0279062 0.00118369 0 0.000303951 0 0)
(0.031838 0.00137009 0 0.00034082 0 0)
(0.0361131 0.00156191 0 0.000383861 0 0)
(0.0406972 0.00176199 0 0.000432618 0 0)
(0.00361373 -0.000187602 0 0.000871264 0 0)
(0.0121943 2.9213e-05 0 0.000212171 0 0)
(0.00948069 -3.78804e-05 0 0.000132008 0 0)
(0.00812337 -4.70297e-06 0 0.000120665 0 0)
(0.00848227 -1.08783e-05 0 0.000120575 0 0)
(0.00888495 -5.18011e-05 0 0.000123014 0 0)
(0.00951771 -0.000101797 0 0.000126562 0 0)
(0.0105796 -0.000149578 0 0.000131584 0 0)
(0.0119927 -0.000191696 0 0.000138703 0 0)
(0.0136501 -0.000225469 0 0.000147565 0 0)
(0.0155195 -0.000247451 0 0.000157602 0 0)
(0.0176285 -0.000255207 0 0.000168756 0 0)
(0.0199909 -0.00024626 0 0.00018131 0 0)
(0.0226344 -0.000218834 0 0.000195886 0 0)
(0.0255323 -0.000171733 0 0.000212367 0 0)
(0.0287225 -0.000105303 0 0.000231978 0 0)
(0.0321558 -1.99569e-05 0 0.000254741 0 0)
(0.0359096 8.58965e-05 0 0.00027964 0 0)
(0.00381403 -0.000309678 0 0.000725716 0 0)
(0.0129709 -4.19838e-05 0 0.000211205 0 0)
(0.011323 2.05431e-05 0 0.000129454 0 0)
(0.0107517 8.84605e-05 0 9.54057e-05 0 0)
(0.011668 0.000107084 0 7.53762e-05 0 0)
(0.0125322 0.000118204 0 6.20422e-05 0 0)
(0.0133905 0.00013297 0 5.31802e-05 0 0)
(0.0144484 0.000149048 0 4.79879e-05 0 0)
(0.015784 0.000164466 0 4.51674e-05 0 0)
(0.0174228 0.000180553 0 4.39932e-05 0 0)
(0.0193781 0.000201207 0 4.42317e-05 0 0)
(0.0216656 0.000230805 0 4.5657e-05 0 0)
(0.0243209 0.000272739 0 4.79896e-05 0 0)
(0.0273953 0.000327924 0 5.09685e-05 0 0)
(0.0309574 0.000394726 0 5.45631e-05 0 0)
(0.0350328 0.000470732 0 5.90553e-05 0 0)
(0.0396927 0.000554042 0 6.39873e-05 0 0)
(0.0448831 0.000647626 0 6.87828e-05 0 0)
(0.00253023 -0.00671165 1.22339e-22 0.0180561 -2.68757e-22 1.11854e-37)
(0.0285685 -0.0234614 -3.49426e-22 0.019605 2.25412e-22 1.10289e-37)
(0.0757518 -0.0323896 0 0.0146621 0 0)
(0.125976 -0.0315945 0 0.0095598 0 0)
(0.165362 -0.0239737 0 0.00628062 0 0)
(0.191599 -0.0158615 8.14077e-22 0.00577212 -5.29986e-23 1.03883e-37)
(0.210701 -0.0110032 0 0.00712425 0 0)
(0.228263 -0.0106407 0 0.00936612 0 0)
(0.253685 -0.0155454 0 0.0114736 0 0)
(0.294584 -0.0243168 0 0.0129541 0 0)
(0.356858 -0.0353519 -8.82127e-22 0.0134514 5.23829e-24 9.62239e-38)
(0.443179 -0.0464613 0 0.0131921 0 0)
(0.552562 -0.0561455 0 0.0123109 0 0)
(0.681379 -0.0633896 0 0.0110288 0 0)
(0.824433 -0.0675657 0 0.00956576 0 0)
(0.975498 -0.0684379 -9.72348e-22 0.00810809 5.53387e-23 8.89392e-38)
(1.12795 -0.0661063 0 0.00680355 0 0)
(1.27573 -0.060928 0 0.00577385 0 0)
(1.41362 -0.0534628 0 0.00512182 0 0)
(1.53658 -0.0445228 0 0.00492534 0 0)
(1.64237 -0.0350836 0 0.00520937 0 0)
(1.73028 -0.0261478 0 0.00591954 0 0)
(1.80166 -0.0185189 0 0.0069149 0 0)
(1.85934 -0.0126352 -1.89936e-21 0.00798652 1.90658e-22 7.80553e-38)
(1.90646 -0.00842479 2.09709e-21 0.00892258 -2.00257e-22 7.67612e-38)
(1.9457 -0.00548846 -2.3063e-21 0.00961451 2.05782e-22 7.54819e-38)
(1.97853 -0.00315595 -2.52334e-21 0.0102658 2.08017e-22 7.42172e-38)
(2.00519 -0.000854723 0 0.0113709 0 0)
(2.02452 0.00113537 0 0.0143631 0 0)
(2.03735 0.0018752 3.17967e-21 0.0200747 -1.82765e-22 7.05113e-38)
(2.04546 -0.000920106 3.38377e-21 0.0293617 -1.5861e-22 6.93053e-38)
(2.05612 -0.0100084 0 0.0399402 0 0)
(2.07464 -0.0229653 0 0.0476422 0 0)
(2.09991 -0.0353553 3.95338e-21 0.0505127 -1.24177e-22 6.57747e-38)
(2.13425 -0.0454882 0 0.0496977 0 0)
(2.18365 -0.0585381 0 0.0503409 0 0)
(2.25607 -0.0782416 -4.52601e-21 0.0526882 1.34375e-22 6.2375e-38)
(2.34957 -0.0988512 0 0.0544478 0 0)
(2.4715 -0.113288 -4.8936e-21 0.0531897 1.24171e-22 6.01809e-38)
(2.62211 -0.128257 -1.01398e-20 0.056551 2.47951e-22 2.36422e-37)
(2.79957 -0.153955 0 0.0543183 0 0)
(3.01457 -0.170637 0 0.0480026 0 0)
(3.25366 -0.167017 0 0.0473836 0 0)
(3.4995 -0.157214 0 0.044262 0 0)
(3.74612 -0.145406 0 0.0367679 0 0)
(3.9924 -0.127581 -1.19448e-20 0.0336844 2.47816e-22 2.11805e-37)
(4.23014 -0.120067 -1.21835e-20 0.0335367 2.3224e-22 2.07899e-37)
(4.46107 -0.12139 -1.23944e-20 0.0297028 2.03449e-22 2.04049e-37)
(4.67718 -0.117126 0 0.0269393 0 0)
(4.8671 -0.108234 1.27275e-20 0.0251788 -1.66862e-22 1.96513e-37)
(5.02934 -0.0978085 0 0.0237972 0 0)
(5.1634 -0.0870704 -1.29568e-20 0.0229155 1.37244e-22 1.89194e-37)
(5.27347 -0.0757842 -1.30309e-20 0.0228824 1.26808e-22 1.85615e-37)
(5.36534 -0.0664951 0 0.023438 0 0)
(5.44728 -0.0617919 0 0.0235361 0 0)
(5.52578 -0.0608552 0 0.0229472 0 0)
(5.60159 -0.061894 -1.30732e-20 0.0219251 8.20185e-23 1.71828e-37)
(5.67089 -0.0634952 0 0.0208596 0 0)
(5.73213 -0.0637126 0 0.0203708 0 0)
(5.78806 -0.0615639 0 0.0208543 0 0)
(5.84007 -0.0570121 0 0.0222361 0 0)
(5.88395 -0.0496357 0 0.0238085 0 0)
(5.9131 -0.041819 0 0.0247569 0 0)
(5.92499 -0.0392167 0 0.0249955 0 0)
(5.9297 -0.045544 0 0.0256665 0 0)
(5.95301 -0.0576516 1.26173e-20 0.0266273 -7.28744e-23 1.43765e-37)
(6.01198 -0.0685606 0 0.026603 0 0)
(6.10003 -0.073872 0 0.0246825 0 0)
(6.20421 -0.0725428 -1.25447e-20 0.0210521 7.62006e-23 1.35275e-37)
(6.31477 -0.0656052 -1.25268e-20 0.0168815 7.67072e-23 1.32536e-37)
(6.42821 -0.0569569 0 0.0136182 0 0)
(6.54652 -0.0518483 1.24878e-20 0.0120794 -6.95008e-23 1.27192e-37)
(6.67586 -0.0518063 -1.24593e-20 0.0113144 6.294e-23 1.24586e-37)
(6.81891 -0.0537885 0 0.0103453 0 0)
(6.97195 -0.0550195 1.23717e-20 0.00917935 -4.90668e-23 1.19504e-37)
(7.12854 -0.0544022 0 0.00795427 0 0)
(7.28109 -0.0516562 0 0.0067802 0 0)
(7.42217 -0.0469193 -1.21372e-20 0.00572252 2.63633e-23 1.12196e-37)
(7.54519 -0.0405513 0 0.00480652 0 0)
(7.64498 -0.0329329 1.18865e-20 0.00402949 -1.00385e-23 1.07527e-37)
(7.71772 -0.0243614 0 0.00337508 0 0)
(7.76043 -0.015043 -1.15441e-20 0.00282429 -6.28577e-24 1.03017e-37)
(7.76965 -0.00515606 -1.13361e-20 0.00236224 -1.4279e-23 1.0082e-37)
(7.7435 0.00508267 -1.11035e-20 0.0019803 -2.20105e-23 9.86607e-38)
(7.6803 0.0154429 -2.16931e-20 0.00167435 -5.86891e-23 3.86156e-37)
(7.5796 0.0256402 2.11335e-20 0.00144311 7.22154e-23 3.77816e-37)
(7.44163 0.0353694 0 0.00128462 0 0)
(7.2678 0.0443142 0 0.00119318 0 0)
(7.06061 0.0522241 0 0.00115855 0 0)
(6.82444 0.0589618 1.85399e-20 0.00116707 1.08514e-22 3.45895e-37)
(6.56272 0.0645086 1.78397e-20 0.00120513 1.12557e-22 3.38263e-37)
(6.2798 0.0688434 -1.71352e-20 0.00126154 -1.14767e-22 3.30768e-37)
(5.97995 0.0719989 0 0.00132658 0 0)
(5.66755 0.0740393 1.57425e-20 0.00139184 1.14479e-22 3.16175e-37)
(5.34664 0.0750719 1.50667e-20 0.00145105 1.12461e-22 3.09074e-37)
(5.02092 0.075226 1.44109e-20 0.00149959 1.09529e-22 3.02101e-37)
(4.69363 0.0746442 0 0.00153499 0 0)
(4.36753 0.0734593 0 0.00155706 0 0)
(4.04491 0.0717803 0 0.00156614 0 0)
(3.72773 0.0696896 1.20394e-20 0.00156467 9.26507e-23 2.75451e-37)
(3.41772 0.0672292 0 0.00155355 0 0)
(3.11664 0.064425 0 0.00153456 0 0)
(2.82624 0.0612741 -1.05555e-20 0.00150691 -7.72783e-23 2.56714e-37)
(2.54833 0.0577863 0 0.00147004 0 0)
(2.28471 0.053979 0 0.00142203 0 0)
(2.03701 0.0499068 -9.33659e-21 0.00136211 -6.04443e-23 2.38996e-37)
(1.80657 0.0456461 0 0.00128983 0 0)
(1.59426 0.041304 0 0.00120683 0 0)
(1.40045 0.0369959 8.37354e-21 0.00111591 4.37199e-23 2.22251e-37)
(1.22502 0.0328271 8.10306e-21 0.00102038 3.858e-23 2.16877e-37)
(1.06748 0.0288886 0 0.000924221 0 0)
(0.926972 0.0252292 -7.62614e-21 0.00082957 -2.93112e-23 2.06432e-37)
(0.802338 0.0219006 0 0.000740526 0 0)
(0.692323 0.0189046 7.22112e-21 0.000658382 2.15251e-23 1.96381e-37)
(0.595611 0.016223 0 0.00058376 0 0)
(0.510982 0.0138412 6.87381e-21 0.000517657 1.51278e-23 1.86711e-37)
(0.437317 0.0117165 6.71825e-21 0.000458744 1.23751e-23 1.82014e-37)
(0.37359 0.00981034 0 0.000405789 0 0)
(0.318934 0.00809445 0 0.000357692 0 0)
(0.272598 0.00654162 0 0.000312919 0 0)
(0.233899 0.00514323 0 0.00027092 0 0)
(0.202192 0.0038969 0 0.00023142 0 0)
(0.176805 0.00280206 0 0.000194444 0 0)
(0.15704 0.00185888 0 0.000160399 0 0)
(0.142181 0.00106563 5.78367e-21 0.00012989 -2.33757e-24 1.47592e-37)
(0.131504 0.00041656 -5.69483e-21 0.00010349 3.4346e-24 1.43662e-37)
(0.12431 -9.88064e-05 0 8.15737e-05 0 0)
(0.119944 -0.00049483 0 6.42526e-05 0 0)
(0.117814 -0.000787831 0 5.13712e-05 0 0)
(0.117411 -0.000994844 0 4.26251e-05 0 0)
(0.118305 -0.0011327 -1.0611e-20 3.75598e-05 1.38931e-23 5.00653e-37)
(0.120151 -0.00121769 0 3.54966e-05 0 0)
(0.122683 -0.00126409 1.03374e-20 3.57897e-05 -1.51369e-23 4.73113e-37)
(0.125704 -0.00128351 -1.02064e-20 3.79999e-05 1.54832e-23 4.59766e-37)
(0.129071 -0.00128545 0 4.15956e-05 0 0)
(0.13269 -0.00127671 0 4.6016e-05 0 0)
(0.136502 -0.00126246 0 5.08494e-05 0 0)
(0.14048 -0.00124783 9.71058e-21 5.54625e-05 -1.51171e-23 4.09083e-37)
(0.144619 -0.00123629 9.59132e-21 5.88605e-05 -1.45301e-23 3.97068e-37)
(0.148931 -0.00122786 0 5.99518e-05 0 0)
(0.153427 -0.0012186 9.35493e-21 5.78755e-05 -1.27563e-23 3.73794e-37)
(0.158102 -0.00120148 9.23682e-21 5.24346e-05 -1.16411e-23 3.62528e-37)
(0.162924 -0.00116896 -9.11821e-21 4.43821e-05 1.045e-23 3.51503e-37)
(0.167829 -0.00111621 0 3.51296e-05 0 0)
(0.172727 -0.00104295 0 2.61285e-05 0 0)
(0.177515 -0.000953423 -8.75673e-21 1.84223e-05 7.02562e-24 3.19838e-37)