# vtk DataFile Version 2.0
sampleSurface
ASCII
DATASET POLYDATA
POINTS 502 double
-0.0206 0 -0.0005
-0.0190172 0 -0.0005
-0.0190172 0 0.0005
-0.0206 0 0.0005
-0.0174976 0 -0.0005
-0.0174976 0 0.0005
-0.0160387 0 -0.0005
-0.0160387 0 0.0005
-0.0146381 0 -0.0005
-0.0146381 0 0.0005
-0.0132934 0 -0.0005
-0.0132934 0 0.0005
-0.0120025 0 -0.0005
-0.0120025 0 0.0005
-0.0107632 0 -0.0005
-0.0107632 0 0.0005
-0.00957337 0 -0.0005
-0.00957337 0 0.0005
-0.00843108 0 -0.0005
-0.00843108 0 0.0005
-0.00733443 0 -0.0005
-0.00733443 0 0.0005
-0.0062816 0 -0.0005
-0.0062816 0 0.0005
-0.00527083 0 -0.0005
-0.00527083 0 0.0005
-0.00430044 0 -0.0005
-0.00430044 0 0.0005
-0.00336883 0 -0.0005
-0.00336883 0 0.0005
-0.00247443 0 -0.0005
-0.00247443 0 0.0005
-0.00161577 0 -0.0005
-0.00161577 0 0.0005
-0.000791418 0 -0.0005
-0.000791418 0 0.0005
0 0 -0.0005
0 0 0.0005
0 -0.0254 -0.0005
0 -0.0254 0.0005
0 -0.0242711 0.0005
0 -0.0242711 -0.0005
0 -0.0231422 0.0005
0 -0.0231422 -0.0005
0 -0.0220133 0.0005
0 -0.0220133 -0.0005
0 -0.0208844 0.0005
0 -0.0208844 -0.0005
0 -0.0197556 0.0005
0 -0.0197556 -0.0005
0 -0.0186267 0.0005
0 -0.0186267 -0.0005
0 -0.0174978 0.0005
0 -0.0174978 -0.0005
0 -0.0163689 0.0005
0 -0.0163689 -0.0005
0 -0.01524 0.0005
0 -0.01524 -0.0005
0 -0.0141111 0.0005
0 -0.0141111 -0.0005
0 -0.0129822 0.0005
0 -0.0129822 -0.0005
0 -0.0118533 0.0005
0 -0.0118533 -0.0005
0 -0.0107244 0.0005
0 -0.0107244 -0.0005
0 -0.00959556 0.0005
0 -0.00959556 -0.0005
0 -0.00846667 0.0005
0 -0.00846667 -0.0005
0 -0.00726604 0.0005
0 -0.00726604 -0.0005
0 -0.00618989 0.0005
0 -0.00618989 -0.0005
0 -0.00522531 0.0005
0 -0.00522531 -0.0005
0 -0.00436073 0.0005
0 -0.00436073 -0.0005
0 -0.00358579 0.0005
0 -0.00358579 -0.0005
0 -0.00289118 0.0005
0 -0.00289118 -0.0005
0 -0.0022686 0.0005
0 -0.0022686 -0.0005
0 -0.00171055 0.0005
0 -0.00171055 -0.0005
0 -0.00121037 0.0005
0 -0.00121037 -0.0005
0 -0.000762037 0.0005
0 -0.000762037 -0.0005
0 -0.000360188 0.0005
0 -0.000360188 -0.0005
0.000528387 -0.0254 -0.0005
0.000528387 -0.0254 0.0005
0.00106088 -0.0254 -0.0005
0.00106088 -0.0254 0.0005
0.00159752 -0.0254 -0.0005
0.00159752 -0.0254 0.0005
0.00213833 -0.0254 -0.0005
0.00213833 -0.0254 0.0005
0.00268334 -0.0254 -0.0005
0.00268334 -0.0254 0.0005
0.00323259 -0.0254 -0.0005
0.00323259 -0.0254 0.0005
0.00378611 -0.0254 -0.0005
0.00378611 -0.0254 0.0005
0.00434393 -0.0254 -0.0005
0.00434393 -0.0254 0.0005
0.00490609 -0.0254 -0.0005
0.00490609 -0.0254 0.0005
0.00547262 -0.0254 -0.0005
0.00547262 -0.0254 0.0005
0.00604356 -0.0254 -0.0005
0.00604356 -0.0254 0.0005
0.00661893 -0.0254 -0.0005
0.00661893 -0.0254 0.0005
0.00719878 -0.0254 -0.0005
0.00719878 -0.0254 0.0005
0.00778313 -0.0254 -0.0005
0.00778313 -0.0254 0.0005
0.00837203 -0.0254 -0.0005
0.00837203 -0.0254 0.0005
0.00896551 -0.0254 -0.0005
0.00896551 -0.0254 0.0005
0.0095636 -0.0254 -0.0005
0.0095636 -0.0254 0.0005
0.0101663 -0.0254 -0.0005
0.0101663 -0.0254 0.0005
0.0107738 -0.0254 -0.0005
0.0107738 -0.0254 0.0005
0.0113859 -0.0254 -0.0005
0.0113859 -0.0254 0.0005
0.0120028 -0.0254 -0.0005
0.0120028 -0.0254 0.0005
0.0126245 -0.0254 -0.0005
0.0126245 -0.0254 0.0005
0.0132511 -0.0254 -0.0005
0.0132511 -0.0254 0.0005
0.0138825 -0.0254 -0.0005
0.0138825 -0.0254 0.0005
0.0145188 -0.0254 -0.0005
0.0145188 -0.0254 0.0005
0.0151601 -0.0254 -0.0005
0.0151601 -0.0254 0.0005
0.0158063 -0.0254 -0.0005
0.0158063 -0.0254 0.0005
0.0164576 -0.0254 -0.0005
0.0164576 -0.0254 0.0005
0.0171139 -0.0254 -0.0005
0.0171139 -0.0254 0.0005
0.0177754 -0.0254 -0.0005
0.0177754 -0.0254 0.0005
0.018442 -0.0254 -0.0005
0.018442 -0.0254 0.0005
0.0191137 -0.0254 -0.0005
0.0191137 -0.0254 0.0005
0.0197907 -0.0254 -0.0005
0.0197907 -0.0254 0.0005
0.020473 -0.0254 -0.0005
0.020473 -0.0254 0.0005
0.0211606 -0.0254 -0.0005
0.0211606 -0.0254 0.0005
0.0218535 -0.0254 -0.0005
0.0218535 -0.0254 0.0005
0.0225517 -0.0254 -0.0005
0.0225517 -0.0254 0.0005
0.0232555 -0.0254 -0.0005
0.0232555 -0.0254 0.0005
0.0239647 -0.0254 -0.0005
0.0239647 -0.0254 0.0005
0.0246794 -0.0254 -0.0005
0.0246794 -0.0254 0.0005
0.0253996 -0.0254 -0.0005
0.0253996 -0.0254 0.0005
0.0261255 -0.0254 -0.0005
0.0261255 -0.0254 0.0005
0.026857 -0.0254 -0.0005
0.026857 -0.0254 0.0005
0.0275942 -0.0254 -0.0005
0.0275942 -0.0254 0.0005
0.0283371 -0.0254 -0.0005
0.0283371 -0.0254 0.0005
0.0290858 -0.0254 -0.0005
0.0290858 -0.0254 0.0005
0.0298403 -0.0254 -0.0005
0.0298403 -0.0254 0.0005
0.0306007 -0.0254 -0.0005
0.0306007 -0.0254 0.0005
0.031367 -0.0254 -0.0005
0.031367 -0.0254 0.0005
0.0321393 -0.0254 -0.0005
0.0321393 -0.0254 0.0005
0.0329175 -0.0254 -0.0005
0.0329175 -0.0254 0.0005
0.0337019 -0.0254 -0.0005
0.0337019 -0.0254 0.0005
0.0344923 -0.0254 -0.0005
0.0344923 -0.0254 0.0005
0.0352888 -0.0254 -0.0005
0.0352888 -0.0254 0.0005
0.0360916 -0.0254 -0.0005
0.0360916 -0.0254 0.0005
0.0369006 -0.0254 -0.0005
0.0369006 -0.0254 0.0005
0.0377158 -0.0254 -0.0005
0.0377158 -0.0254 0.0005
0.0385375 -0.0254 -0.0005
0.0385375 -0.0254 0.0005
0.0393655 -0.0254 -0.0005
0.0393655 -0.0254 0.0005
0.0401999 -0.0254 -0.0005
0.0401999 -0.0254 0.0005
0.0410408 -0.0254 -0.0005
0.0410408 -0.0254 0.0005
0.0418883 -0.0254 -0.0005
0.0418883 -0.0254 0.0005
0.0427424 -0.0254 -0.0005
0.0427424 -0.0254 0.0005
0.0436031 -0.0254 -0.0005
0.0436031 -0.0254 0.0005
0.0444704 -0.0254 -0.0005
0.0444704 -0.0254 0.0005
0.0453446 -0.0254 -0.0005
0.0453446 -0.0254 0.0005
0.0462255 -0.0254 -0.0005
0.0462255 -0.0254 0.0005
0.0471133 -0.0254 -0.0005
0.0471133 -0.0254 0.0005
0.048008 -0.0254 -0.0005
0.048008 -0.0254 0.0005
0.0489096 -0.0254 -0.0005
0.0489096 -0.0254 0.0005
0.0498183 -0.0254 -0.0005
0.0498183 -0.0254 0.0005
0.050734 -0.0254 -0.0005
0.050734 -0.0254 0.0005
0.0516568 -0.0254 -0.0005
0.0516568 -0.0254 0.0005
0.0525868 -0.0254 -0.0005
0.0525868 -0.0254 0.0005
0.053524 -0.0254 -0.0005
0.053524 -0.0254 0.0005
0.0544686 -0.0254 -0.0005
0.0544686 -0.0254 0.0005
0.0554204 -0.0254 -0.0005
0.0554204 -0.0254 0.0005
0.0563797 -0.0254 -0.0005
0.0563797 -0.0254 0.0005
0.0573464 -0.0254 -0.0005
0.0573464 -0.0254 0.0005
0.0583206 -0.0254 -0.0005
0.0583206 -0.0254 0.0005
0.0593025 -0.0254 -0.0005
0.0593025 -0.0254 0.0005
0.0602919 -0.0254 -0.0005
0.0602919 -0.0254 0.0005
0.0612891 -0.0254 -0.0005
0.0612891 -0.0254 0.0005
0.0622939 -0.0254 -0.0005
0.0622939 -0.0254 0.0005
0.0633067 -0.0254 -0.0005
0.0633067 -0.0254 0.0005
0.0643272 -0.0254 -0.0005
0.0643272 -0.0254 0.0005
0.0653557 -0.0254 -0.0005
0.0653557 -0.0254 0.0005
0.0663923 -0.0254 -0.0005
0.0663923 -0.0254 0.0005
0.0674368 -0.0254 -0.0005
0.0674368 -0.0254 0.0005
0.0684895 -0.0254 -0.0005
0.0684895 -0.0254 0.0005
0.0695504 -0.0254 -0.0005
0.0695504 -0.0254 0.0005
0.0706195 -0.0254 -0.0005
0.0706195 -0.0254 0.0005
0.0716969 -0.0254 -0.0005
0.0716969 -0.0254 0.0005
0.0727828 -0.0254 -0.0005
0.0727828 -0.0254 0.0005
0.073877 -0.0254 -0.0005
0.073877 -0.0254 0.0005
0.0749798 -0.0254 -0.0005
0.0749798 -0.0254 0.0005
0.0760911 -0.0254 -0.0005
0.0760911 -0.0254 0.0005
0.0772111 -0.0254 -0.0005
0.0772111 -0.0254 0.0005
0.0783398 -0.0254 -0.0005
0.0783398 -0.0254 0.0005
0.0794772 -0.0254 -0.0005
0.0794772 -0.0254 0.0005
0.0806235 -0.0254 -0.0005
0.0806235 -0.0254 0.0005
0.0817787 -0.0254 -0.0005
0.0817787 -0.0254 0.0005
0.0829429 -0.0254 -0.0005
0.0829429 -0.0254 0.0005
0.0841162 -0.0254 -0.0005
0.0841162 -0.0254 0.0005
0.0852985 -0.0254 -0.0005
0.0852985 -0.0254 0.0005
0.0864901 -0.0254 -0.0005
0.0864901 -0.0254 0.0005
0.0876909 -0.0254 -0.0005
0.0876909 -0.0254 0.0005
0.0889011 -0.0254 -0.0005
0.0889011 -0.0254 0.0005
0.0901207 -0.0254 -0.0005
0.0901207 -0.0254 0.0005
0.0913497 -0.0254 -0.0005
0.0913497 -0.0254 0.0005
0.0925883 -0.0254 -0.0005
0.0925883 -0.0254 0.0005
0.0938366 -0.0254 -0.0005
0.0938366 -0.0254 0.0005
0.0950945 -0.0254 -0.0005
0.0950945 -0.0254 0.0005
0.0963622 -0.0254 -0.0005
0.0963622 -0.0254 0.0005
0.0976398 -0.0254 -0.0005
0.0976398 -0.0254 0.0005
0.0989273 -0.0254 -0.0005
0.0989273 -0.0254 0.0005
0.100225 -0.0254 -0.0005
0.100225 -0.0254 0.0005
0.101532 -0.0254 -0.0005
0.101532 -0.0254 0.0005
0.10285 -0.0254 -0.0005
0.10285 -0.0254 0.0005
0.104178 -0.0254 -0.0005
0.104178 -0.0254 0.0005
0.105517 -0.0254 -0.0005
0.105517 -0.0254 0.0005
0.106865 -0.0254 -0.0005
0.106865 -0.0254 0.0005
0.108225 -0.0254 -0.0005
0.108225 -0.0254 0.0005
0.109594 -0.0254 -0.0005
0.109594 -0.0254 0.0005
0.110975 -0.0254 -0.0005
0.110975 -0.0254 0.0005
0.112366 -0.0254 -0.0005
0.112366 -0.0254 0.0005
0.113768 -0.0254 -0.0005
0.113768 -0.0254 0.0005
0.115181 -0.0254 -0.0005
0.115181 -0.0254 0.0005
0.116605 -0.0254 -0.0005
0.116605 -0.0254 0.0005
0.11804 -0.0254 -0.0005
0.11804 -0.0254 0.0005
0.119486 -0.0254 -0.0005
0.119486 -0.0254 0.0005
0.120943 -0.0254 -0.0005
0.120943 -0.0254 0.0005
0.122412 -0.0254 -0.0005
0.122412 -0.0254 0.0005
0.123892 -0.0254 -0.0005
0.123892 -0.0254 0.0005
0.125384 -0.0254 -0.0005
0.125384 -0.0254 0.0005
0.126887 -0.0254 -0.0005
0.126887 -0.0254 0.0005
0.128402 -0.0254 -0.0005
0.128402 -0.0254 0.0005
0.129928 -0.0254 -0.0005
0.129928 -0.0254 0.0005
0.131467 -0.0254 -0.0005
0.131467 -0.0254 0.0005
0.133017 -0.0254 -0.0005
0.133017 -0.0254 0.0005
0.13458 -0.0254 -0.0005
0.13458 -0.0254 0.0005
0.136155 -0.0254 -0.0005
0.136155 -0.0254 0.0005
0.137742 -0.0254 -0.0005
0.137742 -0.0254 0.0005
0.139341 -0.0254 -0.0005
0.139341 -0.0254 0.0005
0.140953 -0.0254 -0.0005
0.140953 -0.0254 0.0005
0.142577 -0.0254 -0.0005
0.142577 -0.0254 0.0005
0.144214 -0.0254 -0.0005
0.144214 -0.0254 0.0005
0.145863 -0.0254 -0.0005
0.145863 -0.0254 0.0005
0.147526 -0.0254 -0.0005
0.147526 -0.0254 0.0005
0.149201 -0.0254 -0.0005
0.149201 -0.0254 0.0005
0.15089 -0.0254 -0.0005
0.15089 -0.0254 0.0005
0.152591 -0.0254 -0.0005
0.152591 -0.0254 0.0005
0.154306 -0.0254 -0.0005
0.154306 -0.0254 0.0005
0.156034 -0.0254 -0.0005
0.156034 -0.0254 0.0005
0.157775 -0.0254 -0.0005
0.157775 -0.0254 0.0005
0.159531 -0.0254 -0.0005
0.159531 -0.0254 0.0005
0.161299 -0.0254 -0.0005
0.161299 -0.0254 0.0005
0.163082 -0.0254 -0.0005
0.163082 -0.0254 0.0005
0.164878 -0.0254 -0.0005
0.164878 -0.0254 0.0005
0.166688 -0.0254 -0.0005
0.166688 -0.0254 0.0005
0.168513 -0.0254 -0.0005
0.168513 -0.0254 0.0005
0.170351 -0.0254 -0.0005
0.170351 -0.0254 0.0005
0.172204 -0.0254 -0.0005
0.172204 -0.0254 0.0005
0.174071 -0.0254 -0.0005
0.174071 -0.0254 0.0005
0.175953 -0.0254 -0.0005
0.175953 -0.0254 0.0005
0.177849 -0.0254 -0.0005
0.177849 -0.0254 0.0005
0.17976 -0.0254 -0.0005
0.17976 -0.0254 0.0005
0.181686 -0.0254 -0.0005
0.181686 -0.0254 0.0005
0.183627 -0.0254 -0.0005
0.183627 -0.0254 0.0005
0.185583 -0.0254 -0.0005
0.185583 -0.0254 0.0005
0.187555 -0.0254 -0.0005
0.187555 -0.0254 0.0005
0.189541 -0.0254 -0.0005
0.189541 -0.0254 0.0005
0.191543 -0.0254 -0.0005
0.191543 -0.0254 0.0005
0.193561 -0.0254 -0.0005
0.193561 -0.0254 0.0005
0.195594 -0.0254 -0.0005
0.195594 -0.0254 0.0005
0.197643 -0.0254 -0.0005
0.197643 -0.0254 0.0005
0.199708 -0.0254 -0.0005
0.199708 -0.0254 0.0005
0.201789 -0.0254 -0.0005
0.201789 -0.0254 0.0005
0.203886 -0.0254 -0.0005
0.203886 -0.0254 0.0005
0.206 -0.0254 -0.0005
0.206 -0.0254 0.0005
0.208047 -0.0251856 -0.0005
0.208047 -0.0251856 0.0005
0.210173 -0.0249628 -0.0005
0.210173 -0.0249628 0.0005
0.212382 -0.0247314 -0.0005
0.212382 -0.0247314 0.0005
0.214677 -0.024491 -0.0005
0.214677 -0.024491 0.0005
0.217061 -0.0242412 -0.0005
0.217061 -0.0242412 0.0005
0.219538 -0.0239817 -0.0005
0.219538 -0.0239817 0.0005
0.222112 -0.0237121 -0.0005
0.222112 -0.0237121 0.0005
0.224785 -0.023432 -0.0005
0.224785 -0.023432 0.0005
0.227563 -0.023141 -0.0005
0.227563 -0.023141 0.0005
0.230449 -0.0228387 -0.0005
0.230449 -0.0228387 0.0005
0.233447 -0.0225246 -0.0005
0.233447 -0.0225246 0.0005
0.236562 -0.0221983 -0.0005
0.236562 -0.0221983 0.0005
0.239797 -0.0218593 -0.0005
0.239797 -0.0218593 0.0005
0.243159 -0.0215071 -0.0005
0.243159 -0.0215071 0.0005
0.246652 -0.0211412 -0.0005
0.246652 -0.0211412 0.0005
0.250281 -0.0207611 -0.0005
0.250281 -0.0207611 0.0005
0.254051 -0.0203661 -0.0005
0.254051 -0.0203661 0.0005
0.257967 -0.0199558 -0.0005
0.257967 -0.0199558 0.0005
0.262036 -0.0195295 -0.0005
0.262036 -0.0195295 0.0005
0.266264 -0.0190867 -0.0005
0.266264 -0.0190867 0.0005
0.270655 -0.0186266 -0.0005
0.270655 -0.0186266 0.0005
0.275218 -0.0181486 -0.0005
0.275218 -0.0181486 0.0005
0.279959 -0.017652 -0.0005
0.279959 -0.017652 0.0005
0.284883 -0.017136 -0.0005
0.284883 -0.017136 0.0005
0.29 -0.0166 -0.0005
0.29 -0.0166 0.0005

POLYGONS 250 1250
4 0 1 2 3
4 1 4 5 2
4 4 6 7 5
4 6 8 9 7
4 8 10 11 9
4 10 12 13 11
4 12 14 15 13
4 14 16 17 15
4 16 18 19 17
4 18 20 21 19
4 20 22 23 21
4 22 24 25 23
4 24 26 27 25
4 26 28 29 27
4 28 30 31 29
4 30 32 33 31
4 32 34 35 33
4 34 36 37 35
4 38 39 40 41
4 41 40 42 43
4 43 42 44 45
4 45 44 46 47
4 47 46 48 49
4 49 48 50 51
4 51 50 52 53
4 53 52 54 55
4 55 54 56 57
4 57 56 58 59
4 59 58 60 61
4 61 60 62 63
4 63 62 64 65
4 65 64 66 67
4 67 66 68 69
4 69 68 70 71
4 71 70 72 73
4 73 72 74 75
4 75 74 76 77
4 77 76 78 79
4 79 78 80 81
4 81 80 82 83
4 83 82 84 85
4 85 84 86 87
4 87 86 88 89
4 89 88 90 91
4 91 90 37 36
4 38 92 93 39
4 92 94 95 93
4 94 96 97 95
4 96 98 99 97
4 98 100 101 99
4 100 102 103 101
4 102 104 105 103
4 104 106 107 105
4 106 108 109 107
4 108 110 111 109
4 110 112 113 111
4 112 114 115 113
4 114 116 117 115
4 116 118 119 117
4 118 120 121 119
4 120 122 123 121
4 122 124 125 123
4 124 126 127 125
4 126 128 129 127
4 128 130 131 129
4 130 132 133 131
4 132 134 135 133
4 134 136 137 135
4 136 138 139 137
4 138 140 141 139
4 140 142 143 141
4 142 144 145 143
4 144 146 147 145
4 146 148 149 147
4 148 150 151 149
4 150 152 153 151
4 152 154 155 153
4 154 156 157 155
4 156 158 159 157
4 158 160 161 159
4 160 162 163 161
4 162 164 165 163
4 164 166 167 165
4 166 168 169 167
4 168 170 171 169
4 170 172 173 171
4 172 174 175 173
4 174 176 177 175
4 176 178 179 177
4 178 180 181 179
4 180 182 183 181
4 182 184 185 183
4 184 186 187 185
4 186 188 189 187
4 188 190 191 189
4 190 192 193 191
4 192 194 195 193
4 194 196 197 195
4 196 198 199 197
4 198 200 201 199
4 200 202 203 201
4 202 204 205 203
4 204 206 207 205
4 206 208 209 207
4 208 210 211 209
4 210 212 213 211
4 212 214 215 213
4 214 216 217 215
4 216 218 219 217
4 218 220 221 219
4 220 222 223 221
4 222 224 225 223
4 224 226 227 225
4 226 228 229 227
4 228 230 231 229
4 230 232 233 231
4 232 234 235 233
4 234 236 237 235
4 236 238 239 237
4 238 240 241 239
4 240 242 243 241
4 242 244 245 243
4 244 246 247 245
4 246 248 249 247
4 248 250 251 249
4 250 252 253 251
4 252 254 255 253
4 254 256 257 255
4 256 258 259 257
4 258 260 261 259
4 260 262 263 261
4 262 264 265 263
4 264 266 267 265
4 266 268 269 267
4 268 270 271 269
4 270 272 273 271
4 272 274 275 273
4 274 276 277 275
4 276 278 279 277
4 278 280 281 279
4 280 282 283 281
4 282 284 285 283
4 284 286 287 285
4 286 288 289 287
4 288 290 291 289
4 290 292 293 291
4 292 294 295 293
4 294 296 297 295
4 296 298 299 297
4 298 300 301 299
4 300 302 303 301
4 302 304 305 303
4 304 306 307 305
4 306 308 309 307
4 308 310 311 309
4 310 312 313 311
4 312 314 315 313
4 314 316 317 315
4 316 318 319 317
4 318 320 321 319
4 320 322 323 321
4 322 324 325 323
4 324 326 327 325
4 326 328 329 327
4 328 330 331 329
4 330 332 333 331
4 332 334 335 333
4 334 336 337 335
4 336 338 339 337
4 338 340 341 339
4 340 342 343 341
4 342 344 345 343
4 344 346 347 345
4 346 348 349 347
4 348 350 351 349
4 350 352 353 351
4 352 354 355 353
4 354 356 357 355
4 356 358 359 357
4 358 360 361 359
4 360 362 363 361
4 362 364 365 363
4 364 366 367 365
4 366 368 369 367
4 368 370 371 369
4 370 372 373 371
4 372 374 375 373
4 374 376 377 375
4 376 378 379 377
4 378 380 381 379
4 380 382 383 381
4 382 384 385 383
4 384 386 387 385
4 386 388 389 387
4 388 390 391 389
4 390 392 393 391
4 392 394 395 393
4 394 396 397 395
4 396 398 399 397
4 398 400 401 399
4 400 402 403 401
4 402 404 405 403
4 404 406 407 405
4 406 408 409 407
4 408 410 411 409
4 410 412 413 411
4 412 414 415 413
4 414 416 417 415
4 416 418 419 417
4 418 420 421 419
4 420 422 423 421
4 422 424 425 423
4 424 426 427 425
4 426 428 429 427
4 428 430 431 429
4 430 432 433 431
4 432 434 435 433
4 434 436 437 435
4 436 438 439 437
4 438 440 441 439
4 440 442 443 441
4 442 444 445 443
4 444 446 447 445
4 446 448 449 447
4 448 450 451 449
4 450 452 453 451
4 452 454 455 453
4 454 456 457 455
4 456 458 459 457
4 458 460 461 459
4 460 462 463 461
4 462 464 465 463
4 464 466 467 465
4 466 468 469 467
4 468 470 471 469
4 470 472 473 471
4 472 474 475 473
4 474 476 477 475
4 476 478 479 477
4 478 480 481 479
4 480 482 483 481
4 482 484 485 483
4 484 486 487 485
4 486 488 489 487
4 488 490 491 489
4 490 492 493 491
4 492 494 495 493
4 494 496 497 495
4 496 498 499 497
4 498 500 501 499
POINT_DATA 502
FIELD attributes 1
U 3 502 float
1.59779 0.124856 -0.00549283
0.800464 0.0618291 -0.00270687
0.800464 0.0618291 -0.00270687
1.59779 0.124856 -0.00549283
0.0243405 0.000586451 0
0.0243405 0.000586451 0
0.0217163 0.000532823 0
0.0217163 0.000532823 0
0.0194398 0.000450121 0
0.0194398 0.000450121 0
0.0173364 0.000403611 0
0.0173364 0.000403611 0
0.0152421 0.000380361 0
0.0152421 0.000380361 0
0.013168 0.000342469 0
0.013168 0.000342469 0
0.0112309 0.000284433 0
0.0112309 0.000284433 0
0.00950748 0.000226663 0
0.00950748 0.000226663 0
0.00800509 0.000178987 0
0.00800509 0.000178987 0
0.00670956 0.000136655 0
0.00670956 0.000136655 0
0.00559351 9.66732e-05 0
0.00559351 9.66732e-05 0
0.00465427 6.26135e-05 0
0.00465427 6.26135e-05 0
0.00384957 3.72202e-05 0
0.00384957 3.72202e-05 0
0.00318643 2.63386e-05 0
0.00318643 2.63386e-05 0
0.00254724 2.15802e-05 0
0.00254724 2.15802e-05 0
0.00200587 -2.79527e-05 0
0.00200587 -2.79527e-05 0
0.000939185 0.000163998 0
0.000939185 0.000163998 0
-0.000156992 0.000341135 -6.97787e-23
-0.000156992 0.000341135 -6.97787e-23
-0.000181234 0.00127617 1.88765e-22
-0.000181234 0.00127617 1.88765e-22
3.75313e-06 0.002393 2.23734e-22
3.75313e-06 0.002393 2.23734e-22
0.00023614 0.00193575 -4.47686e-22
0.00023614 0.00193575 -4.47686e-22
2.94065e-05 0.00112012 -1.49253e-22
2.94065e-05 0.00112012 -1.49253e-22
-0.000224583 0.00104395 2.98512e-22
-0.000224583 0.00104395 2.98512e-22
2.98696e-05 0.000460442 0
2.98696e-05 0.000460442 0
0.00041693 -0.00134722 5.99867e-22
0.00041693 -0.00134722 5.99867e-22
0.000469911 -0.00325775 3.26836e-25
0.000469911 -0.00325775 3.26836e-25
0.000392632 -0.00467763 -5.9954e-22
0.000392632 -0.00467763 -5.9954e-22
0.000337137 -0.00578035 6.03163e-22
0.000337137 -0.00578035 6.03163e-22
0.000234634 -0.00650387 5.74005e-26
0.000234634 -0.00650387 5.74005e-26
8.52979e-05 -0.00674268 -6.03105e-22
8.52979e-05 -0.00674268 -6.03105e-22
-3.54631e-05 -0.00654352 -6.07138e-22
-3.54631e-05 -0.00654352 -6.07138e-22
-7.18856e-05 -0.00616267 1.5469e-25
-7.18856e-05 -0.00616267 1.5469e-25
-5.92644e-05 -0.00578972 6.18056e-22
-5.92644e-05 -0.00578972 6.18056e-22
-5.42508e-05 -0.00542185 0
-5.42508e-05 -0.00542185 0
-7.5591e-05 -0.00503212 0
-7.5591e-05 -0.00503212 0
-0.000109668 -0.00457349 0
-0.000109668 -0.00457349 0
-0.000142475 -0.00405685 0
-0.000142475 -0.00405685 0
-0.00018194 -0.00349346 0
-0.00018194 -0.00349346 0
-0.000233477 -0.00287151 0
-0.000233477 -0.00287151 0
-0.000287119 -0.00220097 0
-0.000287119 -0.00220097 0
-0.00033608 -0.00150961 0
-0.00033608 -0.00150961 0
-0.000360488 -0.000798417 0
-0.000360488 -0.000798417 0
-0.000254435 -0.000167241 0
-0.000254435 -0.000167241 0
2.79999e-05 0.000231081 0
2.79999e-05 0.000231081 0
-0.000337036 0.000358322 -3.04625e-25
-0.000337036 0.000358322 -3.04625e-25
-0.000651637 0.000324741 3.46737e-23
-0.000651637 0.000324741 3.46737e-23
-0.000846026 0.000193077 0
-0.000846026 0.000193077 0
-0.000884466 2.70247e-05 0
-0.000884466 2.70247e-05 0
-0.000775431 -0.000127814 -3.36453e-23
-0.000775431 -0.000127814 -3.36453e-23
-0.000550214 -0.000235725 -3.37058e-23
-0.000550214 -0.000235725 -3.37058e-23
-0.000255038 -0.00027833 0
-0.000255038 -0.00027833 0
5.44254e-05 -0.000263234 0
5.44254e-05 -0.000263234 0
0.000334396 -0.000193258 0
0.000334396 -0.000193258 0
0.000540302 -5.72266e-05 3.24374e-23
0.000540302 -5.72266e-05 3.24374e-23
0.000646438 4.65212e-05 3.24992e-23
0.000646438 4.65212e-05 3.24992e-23
0.000673498 -1.05601e-05 0
0.000673498 -1.05601e-05 0
0.000670901 -0.000129707 0
0.000670901 -0.000129707 0
0.000694142 -0.000166839 0
0.000694142 -0.000166839 0
0.000764132 -0.000136922 3.12944e-23
0.000764132 -0.000136922 3.12944e-23
0.000859247 -9.62612e-05 3.13576e-23
0.000859247 -9.62612e-05 3.13576e-23
0.000973441 -8.21482e-05 0
0.000973441 -8.21482e-05 0
0.00112677 -9.76336e-05 0
0.00112677 -9.76336e-05 0
0.0013126 -0.000110685 0
0.0013126 -0.000110685 0
0.0015027 -0.000111225 0
0.0015027 -0.000111225 0
0.0016763 -0.000104125 0
0.0016763 -0.000104125 0
0.00181026 -8.31695e-05 0
0.00181026 -8.31695e-05 0
0.00186369 -8.69932e-05 2.94958e-23
0.00186369 -8.69932e-05 2.94958e-23
0.00181899 -0.000170389 2.98685e-25
0.00181899 -0.000170389 2.98685e-25
0.00171265 -0.000294796 -2.88785e-25
0.00171265 -0.000294796 -2.88785e-25
0.00158533 -0.000301863 5.79284e-23
0.00158533 -0.000301863 5.79284e-23
0.00140086 -6.63374e-05 2.88896e-23
0.00140086 -6.63374e-05 2.88896e-23
0.00105992 0.000225061 0
0.00105992 0.000225061 0
0.000589136 0.000308128 -2.82327e-23
0.000589136 0.000308128 -2.82327e-23
8.19524e-05 0.000327556 -5.63234e-23
8.19524e-05 0.000327556 -5.63234e-23
-0.000483814 0.000471559 -2.80909e-23
-0.000483814 0.000471559 -2.80909e-23
-0.00113854 0.000631046 0
-0.00113854 0.000631046 0
-0.00183204 0.000681057 -2.735e-23
-0.00183204 0.000681057 -2.735e-23
-0.00249318 0.000631485 -2.74173e-23
-0.00249318 0.000631485 -2.74173e-23
-0.00309423 0.000558817 0
-0.00309423 0.000558817 0
-0.00364562 0.000504353 2.67741e-23
-0.00364562 0.000504353 2.67741e-23
-0.00415915 0.000465491 2.68422e-23
-0.00415915 0.000465491 2.68422e-23
-0.00463959 0.000433117 2.64181e-23
-0.00463959 0.000433117 2.64181e-23
-0.00508878 0.000403179 7.89725e-23
-0.00508878 0.000403179 7.89725e-23
-0.0055073 0.00037325 5.26235e-23
-0.0055073 0.00037325 5.26235e-23
-0.00589447 0.000342137 0
-0.00589447 0.000342137 0
-0.00624913 0.000309771 0
-0.00624913 0.000309771 0
-0.00656981 0.000276565 0
-0.00656981 0.000276565 0
-0.00685496 0.000242969 0
-0.00685496 0.000242969 0
-0.00710279 0.000209156 5.03218e-23
-0.00710279 0.000209156 5.03218e-23
-0.00731126 0.000174943 1.00395e-22
-0.00731126 0.000174943 1.00395e-22
-0.00747819 0.00014009 9.96044e-23
-0.00747819 0.00014009 9.96044e-23
-0.00760133 0.00010483 4.96719e-23
-0.00760133 0.00010483 4.96719e-23
-0.00767824 6.98466e-05 -4.86873e-23
-0.00767824 6.98466e-05 -4.86873e-23
-0.00770675 3.56283e-05 -4.88284e-23
-0.00770675 3.56283e-05 -4.88284e-23
-0.00768742 2.30083e-06 4.77819e-23
-0.00768742 2.30083e-06 4.77819e-23
-0.00762122 -2.98849e-05 9.52309e-23
-0.00762122 -2.98849e-05 9.52309e-23
-0.00750884 -6.06745e-05 4.7449e-23
-0.00750884 -6.06745e-05 4.7449e-23
-0.00735182 -8.97575e-05 0
-0.00735182 -8.97575e-05 0
-0.00715215 -0.000116646 0
-0.00715215 -0.000116646 0
-0.00691264 -0.000141153 4.53048e-23
-0.00691264 -0.000141153 4.53048e-23
-0.00663597 -0.000163438 4.54452e-23
-0.00663597 -0.000163438 4.54452e-23
-0.00632454 -0.000184039 0
-0.00632454 -0.000184039 0
-0.00597973 -0.00020396 0
-0.00597973 -0.00020396 0
-0.00560122 -0.000224586 0
-0.00560122 -0.000224586 0
-0.00518634 -0.000247659 0
-0.00518634 -0.000247659 0
-0.00472979 -0.000275139 0
-0.00472979 -0.000275139 0
-0.00422373 -0.000308775 0
-0.00422373 -0.000308775 0
-0.00365827 -0.000349328 0
-0.00365827 -0.000349328 0
-0.00302415 -0.000395743 -4.07249e-23
-0.00302415 -0.000395743 -4.07249e-23
-0.0023215 -0.000443812 -4.08618e-23
-0.0023215 -0.000443812 -4.08618e-23
-0.00156648 -0.000481986 0
-0.00156648 -0.000481986 0
-0.000765095 -0.000488667 3.94869e-23
-0.000765095 -0.000488667 3.94869e-23
-4.39284e-05 -0.000482612 7.87295e-23
-4.39284e-05 -0.000482612 7.87295e-23
0.000501317 -0.000297985 3.92425e-23
0.000501317 -0.000297985 3.92425e-23
0.000625625 0.000153801 -3.82333e-23
0.000625625 0.000153801 -3.82333e-23
7.19896e-05 0.000446153 -6.03632e-25
7.19896e-05 0.000446153 -6.03632e-25
-0.000596439 0.000335622 3.78997e-23
-0.000596439 0.000335622 3.78997e-23
-0.00091816 0.000138567 -3.69304e-23
-0.00091816 0.000138567 -3.69304e-23
-0.00103885 4.38284e-05 -3.70644e-23
-0.00103885 4.38284e-05 -3.70644e-23
-0.00109087 -9.77139e-06 0
-0.00109087 -9.77139e-06 0
-0.00112949 -4.31352e-05 3.57987e-23
-0.00112949 -4.31352e-05 3.57987e-23
-0.00111033 -7.19592e-05 3.59318e-23
-0.00111033 -7.19592e-05 3.59318e-23
-0.00101802 -9.29947e-05 -3.50977e-23
-0.00101802 -9.29947e-05 -3.50977e-23
-0.000867965 -0.000121008 -3.52304e-23
-0.000867965 -0.000121008 -3.52304e-23
-0.000638238 -0.000191351 3.44163e-23
-0.000638238 -0.000191351 3.44163e-23
-0.000242798 -0.000327145 6.85931e-23
-0.000242798 -0.000327145 6.85931e-23
0.00044766 -0.000507121 6.77939e-23
0.00044766 -0.000507121 6.77939e-23
0.00147028 -0.000586907 1.00166e-22
0.00147028 -0.000586907 1.00166e-22
0.00260769 -0.000515747 9.58883e-25
0.00260769 -0.000515747 9.58883e-25
0.00359593 -0.000465381 -6.598e-23
0.00359593 -0.000465381 -6.598e-23
0.00440707 -0.000242968 0
0.00440707 -0.000242968 0
0.00450262 0.000418799 0
0.00450262 0.000418799 0
0.00342299 0.000793162 -6.31331e-23
0.00342299 0.000793162 -6.31331e-23
0.00211788 0.000405572 -1.25914e-22
0.00211788 0.000405572 -1.25914e-22
0.00157577 -9.07364e-05 -9.18358e-25
0.00157577 -9.07364e-05 -9.18358e-25
0.00166976 -0.000364836 6.21181e-23
0.00166976 -0.000364836 6.21181e-23
0.00191386 -0.000500176 -6.05039e-23
0.00191386 -0.000500176 -6.05039e-23
0.00188443 -0.000299156 -1.20721e-22
0.00188443 -0.000299156 -1.20721e-22
0.00119012 0.000243389 -1.1968e-22
0.00119012 0.000243389 -1.1968e-22
-6.94631e-05 0.000644 -5.97166e-23
-6.94631e-05 0.000644 -5.97166e-23
-0.00142138 0.000705798 0
-0.00142138 0.000705798 0
-0.00262965 0.000633434 0
-0.00262965 0.000633434 0
-0.00366478 0.000540155 -5.78668e-23
-0.00366478 0.000540155 -5.78668e-23
-0.00454062 0.000453341 -5.81201e-23
-0.00454062 0.000453341 -5.81201e-23
-0.00528411 0.000380019 0
-0.00528411 0.000380019 0
-0.00592044 0.000320143 5.69364e-23
-0.00592044 0.000320143 5.69364e-23
-0.00646868 0.000271093 5.71907e-23
-0.00646868 0.000271093 5.71907e-23
-0.00694183 0.000229829 0
-0.00694183 0.000229829 0
-0.00734803 0.000193664 5.59081e-23
-0.00734803 0.000193664 5.59081e-23
-0.00769129 0.000160166 5.61627e-23
-0.00769129 0.000160166 5.61627e-23
-0.00797187 0.000127345 0
-0.00797187 0.000127345 0
-0.00818752 9.45443e-05 -5.46656e-23
-0.00818752 9.45443e-05 -5.46656e-23
-0.00833561 6.25446e-05 -1.09098e-22
-0.00833561 6.25446e-05 -1.09098e-22
-0.00841464 3.18518e-05 -5.44321e-23
-0.00841464 3.18518e-05 -5.44321e-23
-0.00842463 2.14755e-06 5.30708e-23
-0.00842463 2.14755e-06 5.30708e-23
-0.00836763 -2.57352e-05 5.33217e-23
-0.00836763 -2.57352e-05 5.33217e-23
-0.00824645 -5.12722e-05 -5.17806e-23
-0.00824645 -5.12722e-05 -5.17806e-23
-0.00806334 -7.50044e-05 -5.20284e-23
-0.00806334 -7.50044e-05 -5.20284e-23
-0.00782196 -9.6585e-05 -5.03345e-23
-0.00782196 -9.6585e-05 -5.03345e-23
-0.00752739 -0.000115698 -1.00145e-22
-0.00752739 -0.000115698 -1.00145e-22
-0.00718469 -0.00013242 -4.98084e-23
-0.00718469 -0.00013242 -4.98084e-23
-0.00679899 -0.000146862 0
-0.00679899 -0.000146862 0
-0.00637494 -0.000159333 0
-0.00637494 -0.000159333 0
-0.00591636 -0.000170211 0
-0.00591636 -0.000170211 0
-0.0054262 -0.000179815 0
-0.0054262 -0.000179815 0
-0.00490685 -0.000188289 0
-0.00490685 -0.000188289 0
-0.00436086 -0.000195483 0
-0.00436086 -0.000195483 0
-0.00379177 -0.000200927 -4.31572e-23
-0.00379177 -0.000200927 -4.31572e-23
-0.0032048 -0.00020392 -9.76499e-25
-0.0032048 -0.00020392 -9.76499e-25
-0.002607 -0.000203817 4.26176e-23
-0.002607 -0.000203817 4.26176e-23
-0.00200707 -0.000200245 0
-0.00200707 -0.000200245 0
-0.0014146 -0.000193146 0
-0.0014146 -0.000193146 0
-0.000839299 -0.000182676 0
-0.000839299 -0.000182676 0
-0.000290503 -0.000170949 7.80945e-23
-0.000290503 -0.000170949 7.80945e-23
0.000226003 -0.000158899 7.85047e-23
0.000226003 -0.000158899 7.85047e-23
0.000710189 -0.000146475 -7.57236e-23
0.000710189 -0.000146475 -7.57236e-23
0.00116428 -0.000135081 -1.53644e-24
0.00116428 -0.000135081 -1.53644e-24
0.00159116 -0.000125229 7.49866e-23
0.00159116 -0.000125229 7.49866e-23
0.00199505 -0.000117044 0
0.00199505 -0.000117044 0
0.00238035 -0.000110395 0
0.00238035 -0.000110395 0
0.00275109 -0.000104997 -7.02649e-23
0.00275109 -0.000104997 -7.02649e-23
0.00311031 -0.000100293 -1.39868e-22
0.00311031 -0.000100293 -1.39868e-22
0.00345948 -9.56594e-05 -6.95992e-23
0.00345948 -9.56594e-05 -6.95992e-23
0.00379852 -9.05767e-05 -6.71823e-23
0.00379852 -9.05767e-05 -6.71823e-23
0.00412504 -8.40182e-05 -1.33745e-22
0.00412504 -8.40182e-05 -1.33745e-22
0.00443346 -7.47676e-05 -1.33251e-24
0.00443346 -7.47676e-05 -1.33251e-24
0.00471593 -6.28595e-05 6.55891e-23
0.00471593 -6.28595e-05 6.55891e-23
0.00496433 -4.86571e-05 0
0.00496433 -4.86571e-05 0
0.00516906 -2.99268e-05 6.24747e-23
0.00516906 -2.99268e-05 6.24747e-23
0.00531429 -3.01039e-06 6.28265e-23
0.00531429 -3.01039e-06 6.28265e-23
0.00537884 3.01583e-05 0
0.00537884 3.01583e-05 0
0.00535024 6.11796e-05 0
0.00535024 6.11796e-05 0
0.00523008 8.56294e-05 0
0.00523008 8.56294e-05 0
0.00502547 0.000106438 -5.82784e-23
0.00502547 0.000106438 -5.82784e-23
0.00474379 0.000128376 -1.16088e-22
0.00474379 0.000128376 -1.16088e-22
0.00438831 0.00015262 -5.78064e-23
0.00438831 0.00015262 -5.78064e-23
0.00395794 0.000174183 -5.5897e-23
0.00395794 0.000174183 -5.5897e-23
0.00345761 0.000183659 -5.62222e-23
0.00345761 0.000183659 -5.62222e-23
0.00291559 0.000171027 0
0.00291559 0.000171027 0
0.00238675 0.000135322 -5.36155e-23
0.00238675 0.000135322 -5.36155e-23
0.00192918 8.84308e-05 -5.39311e-23
0.00192918 8.84308e-05 -5.39311e-23
0.00157588 4.52472e-05 -5.20553e-23
0.00157588 4.52472e-05 -5.20553e-23
0.00132958 1.47029e-05 -5.2364e-23
0.00132958 1.47029e-05 -5.2364e-23
0.00117404 -2.15961e-06 0
0.00117404 -2.15961e-06 0