/*--------------------------------*- C++ -*----------------------------------*\
  =========                 |
  \\      /  F ield         | OpenFOAM: The Open Source CFD Toolbox
   \\    /   O peration     | Website:  https://openfoam.org
    \\  /    A nd           | Version:  7
     \\/     M anipulation  |
\*---------------------------------------------------------------------------*/
FoamFile
{
    version     2.0;
    format      ascii;
    class       volScalarField;
    location    "0.055";
    object      nut;
}
// * * * * * * * * * * * * * * * * * * * * * * * * * * * * * * * * * * * * * //

dimensions      [0 2 -1 0 0 0 0];

internalField   nonuniform List<scalar> 
12225
(
0
0
0
0
0
0
0
0
0
0
0
0
0
0
0
0
0
0
0
0
0
0
0
0
0
0
0
0
0
0
0
0
0
0
0
0
0
1.0676e-09
1.87765e-09
6.71022e-10
0
0
0
1.38037e-10
1.29509e-11
0
0
0
0
0
0
0
0
0
0
1.23106e-08
1.46748e-08
3.54919e-09
0
0
0
0
0
0
0
0
0
0
0
0
0
0
0
5.41505e-08
1.1201e-07
0
0
0
0
0
0
0
0
6.11106e-12
4.97618e-10
6.17669e-10
4.84823e-10
0
1.28024e-09
2.05211e-10
0
3.19609e-07
7.5355e-08
0
0
3.03349e-08
5.87682e-08
3.88156e-08
2.06141e-08
1.18121e-08
7.75293e-09
0
0
0
7.65567e-10
6.69666e-10
1.62572e-09
0
5.10107e-07
4.7989e-07
1.96992e-08
4.23545e-09
0
1.56089e-07
1.5377e-07
7.33472e-08
4.05717e-08
2.94176e-08
2.47207e-08
1.48081e-08
0
0
0
0
0
0
9.76533e-07
9.89145e-07
2.44982e-07
5.92142e-07
1.03658e-06
1.17445e-06
2.1442e-08
3.44266e-08
3.98754e-08
4.38882e-08
4.95481e-08
3.811e-08
1.5469e-08
5.57308e-09
7.08398e-09
1.19961e-08
1.91503e-08
2.54118e-08
1.22341e-06
9.143e-07
5.69141e-07
8.97415e-07
9.11726e-07
4.2636e-07
0
0
0
3.73422e-08
1.1357e-07
1.27262e-07
9.426e-08
6.74365e-08
5.45877e-08
4.84013e-08
4.59223e-08
4.65633e-08
7.11111e-07
3.16631e-07
4.54932e-07
5.4235e-07
4.00458e-07
2.32345e-07
0
0
0
0
0
0
5.87117e-08
9.13897e-08
1.16756e-07
1.21241e-07
9.87e-08
6.27485e-08
0
0
2.84619e-07
2.61212e-07
1.90166e-07
2.00483e-07
2.26348e-07
1.52663e-07
0
0
0
0
0
2.70448e-08
1.96478e-07
2.26978e-07
1.61416e-07
9.14634e-08
0
0
0
1.16475e-07
1.57511e-07
1.95043e-07
1.79211e-07
6.87397e-08
0
0
0
0
0
0
0
0
6.74302e-08
1.57537e-07
0
0
0
2.04622e-07
3.30502e-07
2.37812e-07
1.02892e-07
6.84546e-09
0
0
0
0
0
0
0
0
0
0
0
1.10003e-06
1.57394e-06
1.73717e-06
7.83097e-07
2.46655e-07
2.97754e-08
0
5.95673e-09
2.50613e-08
0
0
0
0
0
0
0
0
6.96414e-07
1.0126e-06
1.50774e-06
1.25549e-06
4.26352e-07
0
0
0
3.30756e-08
3.7871e-07
3.81529e-07
6.57703e-08
7.11771e-08
2.00726e-07
1.06817e-07
0
0
0
4.05815e-07
2.60833e-07
3.39624e-07
5.86463e-07
0
0
0
0
0
4.72836e-07
7.81008e-07
8.37712e-07
1.03639e-06
1.07702e-06
6.71867e-07
1.57109e-07
0
0
5.30168e-07
1.06273e-07
0
0
1.65734e-07
0
0
0
0
3.8312e-07
7.26393e-07
7.81161e-07
8.40481e-07
7.89439e-07
4.22748e-07
0
0
0
3.37794e-07
0
0
0
8.17896e-07
4.62205e-07
2.99861e-07
3.21028e-07
3.23578e-07
2.56276e-07
1.99476e-07
1.66406e-07
8.95397e-08
0
0
0
0
0
0
0
0
0
0
0
0
3.22797e-08
2.43502e-07
2.97005e-07
2.21686e-07
1.00246e-07
3.76607e-08
2.81313e-08
0
0
0
0
5.81337e-07
3.94418e-07
0
0
0
0
0
0
0
7.63874e-08
1.56084e-07
1.13554e-07
0
0
0
0
0
0
1.34976e-07
2.20537e-07
0
0
0
0
0
0
0
1.01374e-07
1.30985e-07
0
0
0
0
0
0
0
0
0
0
0
0
0
0
0
0
2.94891e-09
0
0
0
0
0
0
0
0
0
0
0
0
4.55846e-08
8.16353e-08
6.44231e-08
0
0
0
0
0
0
0
0
0
0
3.75107e-08
1.80004e-07
0
0
0
9.24234e-08
1.10006e-07
8.92942e-08
5.17963e-09
0
0
0
0
0
0
0
0
1.61715e-08
8.31224e-08
0
0
0
5.15078e-08
1.26418e-07
1.13633e-07
5.01469e-08
0
0
0
0
0
0
0
0
0
0
0
0
0
0
1.42336e-07
2.34008e-07
2.11959e-07
1.19162e-07
0
0
0
0
0
0
0
0
0
0
0
0
0
0
0
0
0
0
0
0
0
0
0
0
0
0
0
0
0
5.97407e-09
0
0
0
0
0
0
0
0
0
0
0
0
0
0
0
0
0
8.20827e-09
0
0
0
0
0
0
0
0
0
0
0
0
0
0
0
0
0
6.86458e-08
0
0
0
0
0
0
0
0
0
0
0
0
0
0
0
0
0
0
0
0
2.6788e-07
3.96004e-07
2.63963e-07
5.58689e-08
0
0
0
0
0
0
0
0
0
0
0
0
1.1953e-08
3.30352e-08
5.0765e-08
6.53762e-08
7.10715e-08
6.82864e-08
4.9042e-08
1.67719e-08
2.80766e-09
2.38111e-08
1.24699e-07
2.65356e-07
0
0
0
0
1.63654e-06
4.69957e-06
5.56939e-06
6.10705e-06
8.66088e-06
1.64845e-05
2.13778e-05
8.42392e-06
1.28945e-06
2.04137e-07
0
0
0
1.61914e-08
3.30722e-08
3.75305e-08
3.36e-08
2.66379e-08
1.93539e-08
1.31307e-08
8.17198e-09
4.61404e-09
1.76007e-09
0
0
0
0
0
0
0
0
0
0
0
0
0
0
0
0
0
0
0
0
0
0
0
0
0
0
0
0
0
0
0
0
0
0
0
0
0
0
0
0
0
0
0
0
0
0
0
0
0
0
0
0
0
0
0
0
0
0
0
0
0
0
0
0
0
0
0
0
0
0
0
0
0
0
0
0
0
0
0
0
0
0
0
0
0
0
0
0
0
0
0
0
0
0
0
0
0
0
0
0
0
0
0
0
0
0
0
0
0
0
0
0
0
0
0
0
0
0
0
0
1.27782e-11
1.52468e-11
7.30398e-07
3.76598e-07
1.58493e-07
3.23676e-07
5.38381e-07
6.03222e-07
4.90572e-07
2.85133e-07
6.87652e-08
0
0
0
0
0
0
0
0
0
0
2.38841e-08
6.15042e-08
8.83887e-08
1.05059e-07
1.06474e-07
9.50594e-08
7.16942e-08
3.99681e-08
6.42496e-08
1.88586e-07
4.29147e-07
6.09812e-07
7.27014e-07
8.75136e-07
0
0
0
0
0
0
0
0
5.74353e-07
1.07099e-06
5.2336e-07
1.75776e-07
2.93277e-08
0
3.71976e-09
1.81348e-08
2.69026e-08
3.00962e-08
2.98326e-08
2.73729e-08
2.34661e-08
1.86636e-08
1.36288e-08
8.46388e-09
3.54513e-09
0
0
0
0
0
0
0
0
0
0
0
0
0
0
0
0
0
0
0
0
0
0
0
0
0
0
0
0
0
0
0
0
0
0
0
0
0
0
0
0
0
0
0
0
0
0
0
0
0
0
0
0
0
0
0
0
0
0
0
0
0
0
0
0
0
0
0
0
0
0
0
0
0
0
0
0
0
0
0
0
0
0
0
0
0
0
0
0
0
0
0
0
0
0
0
0
0
0
0
0
0
0
0
0
0
0
0
0
0
0
0
0
0
0
0
0
0
0
0
0
2.96279e-11
0
9.68567e-07
6.59164e-07
2.69141e-07
2.51733e-07
4.04515e-07
5.228e-07
5.98998e-07
6.56786e-07
7.71999e-07
8.19837e-07
8.2816e-07
8.15251e-07
7.5191e-07
6.26836e-07
4.36604e-07
2.39709e-07
8.2181e-08
0
0
0
0
0
0
0
0
0
0
8.02427e-08
3.52417e-07
4.9992e-07
2.41656e-07
0
0
0
0
0
0
0
0
0
0
0
2.02678e-07
1.46629e-07
2.5757e-08
0
1.35577e-08
4.52186e-08
7.75498e-08
1.02203e-07
1.14577e-07
1.14511e-07
1.0627e-07
9.11382e-08
7.20011e-08
5.11928e-08
3.17576e-08
1.51551e-08
1.33972e-09
0
0
0
0
0
0
0
0
0
0
0
0
0
0
0
0
0
0
0
0
0
0
0
0
0
0
0
0
0
0
0
0
0
0
0
0
0
0
0
0
0
0
0
0
0
0
0
0
0
0
0
0
0
0
0
0
0
1.91731e-10
3.93385e-10
4.13295e-10
3.28758e-10
2.06275e-10
9.19078e-11
0
0
0
0
0
0
0
0
0
0
0
0
0
0
0
0
0
0
0
0
0
0
0
0
0
0
0
0
0
0
0
0
0
0
0
0
0
0
0
0
0
0
0
0
0
0
0
0
0
0
0
0
0
4.50834e-14
5.94504e-13
0
1.98031e-11
0
5.55023e-07
5.78134e-07
2.8666e-07
2.51162e-07
4.04926e-07
5.25391e-07
6.79088e-07
8.17005e-07
1.03281e-06
1.1826e-06
1.27356e-06
1.34178e-06
1.31364e-06
1.20261e-06
1.00005e-06
7.20257e-07
4.3284e-07
1.92792e-07
3.9352e-08
0
0
0
0
0
0
0
0
0
0
0
0
0
0
0
0
0
0
0
0
5.69527e-08
0
0
0
0
0
7.17651e-09
1.1061e-07
2.55806e-07
4.32512e-07
6.26685e-07
8.08961e-07
9.32789e-07
9.57241e-07
8.9317e-07
7.51278e-07
5.81451e-07
4.11909e-07
2.48595e-07
9.48412e-08
0
0
0
0
0
0
0
0
0
0
0
0
0
0
0
0
0
0
0
0
0
0
0
0
0
0
0
0
0
0
0
0
0
0
0
0
0
0
0
0
0
0
0
0
0
0
0
0
0
0
0
0
0
0
0
0
0
0
0
0
0
0
0
0
0
0
0
0
0
0
0
0
0
0
0
0
0
0
0
0
0
0
0
0
0
0
0
0
0
0
0
0
0
0
0
0
0
0
0
0
0
0
0
0
0
0
0
0
0
0
0
0
0
0
0
0
0
5.86221e-13
0
6.93602e-12
0
2.06149e-07
3.25137e-07
2.66183e-07
3.04227e-07
4.70222e-07
6.12497e-07
8.52344e-07
1.06462e-06
1.25988e-06
1.3165e-06
1.30007e-06
1.15758e-06
8.56261e-07
3.9456e-07
0
0
0
0
3.71908e-07
1.04811e-06
9.27865e-07
3.49359e-07
0
0
0
0
0
0
0
0
0
0
0
0
0
0
0
0
0
0
0
0
1.37508e-07
3.1421e-07
4.58807e-07
5.60165e-07
6.36673e-07
7.10459e-07
7.75824e-07
8.31969e-07
8.7046e-07
8.97726e-07
9.15821e-07
9.05532e-07
8.56332e-07
7.6714e-07
6.24051e-07
4.16196e-07
1.59731e-07
0
0
0
0
0
0
0
0
0
0
0
0
0
0
0
0
0
0
0
0
0
0
0
0
0
0
0
0
0
0
0
0
0
0
0
0
0
0
0
0
0
0
0
0
0
0
0
0
0
0
0
0
0
0
0
0
0
0
0
0
0
0
0
0
0
0
0
0
0
0
0
0
0
0
0
0
0
0
0
0
0
0
0
0
0
0
0
0
0
0
0
0
0
0
0
0
0
0
0
0
0
0
0
0
0
0
0
0
0
0
0
0
0
0
0
0
0
1.38492e-12
0
4.02514e-12
0
3.44411e-08
1.05343e-07
1.89113e-07
3.70204e-07
5.4872e-07
7.52126e-07
9.58699e-07
1.16349e-06
1.24802e-06
1.07548e-06
6.69597e-07
0
0
0
0
0
0
0
1.7559e-06
4.7156e-06
4.30421e-06
2.56345e-06
1.04804e-06
8.87141e-08
0
0
0
0
0
0
0
0
0
0
0
0
0
0
0
0
2.15196e-07
6.54058e-07
9.1072e-07
9.0975e-07
8.61782e-07
8.42975e-07
8.76354e-07
9.47619e-07
1.03149e-06
1.09554e-06
1.12243e-06
1.12097e-06
1.10845e-06
1.09636e-06
1.10461e-06
1.13391e-06
1.14878e-06
1.02837e-06
5.03602e-07
0
0
0
0
0
0
0
0
0
0
0
0
0
0
0
0
0
0
0
0
0
0
0
0
0
0
0
0
0
0
1.06912e-08
2.11955e-08
2.38777e-08
1.64664e-08
0
0
0
0
0
0
0
0
0
0
0
0
0
0
0
0
0
0
0
0
0
0
0
0
0
0
0
0
0
0
0
0
0
0
0
0
0
0
0
0
0
0
0
0
0
0
0
0
0
0
0
0
0
0
0
0
0
0
0
0
0
0
0
0
0
0
0
0
0
0
0
0
0
0
0
0
0
0
0
0
0
1.43641e-12
0
7.959e-12
0
8.65702e-12
0
0
1.7479e-08
9.11646e-08
4.13527e-07
5.76746e-07
7.87243e-07
9.86224e-07
1.04322e-06
8.04666e-07
8.60718e-08
0
0
0
0
0
0
0
0
7.58228e-06
1.27629e-05
1.06819e-05
6.23205e-06
2.80628e-06
8.98238e-07
0
0
0
0
0
0
0
0
0
0
0
0
0
0
0
6.53004e-07
1.44502e-06
1.39041e-06
1.15791e-06
1.01871e-06
9.2944e-07
8.51274e-07
7.4738e-07
6.05995e-07
4.51534e-07
3.13698e-07
2.08386e-07
1.4015e-07
1.0598e-07
1.01702e-07
1.24173e-07
1.70593e-07
2.27728e-07
2.21075e-07
0
0
0
0
0
3.86539e-08
4.93711e-08
3.87054e-08
2.05575e-08
3.29683e-09
0
0
0
0
0
0
0
0
0
0
0
0
0
0
0
0
0
0
0
0
0
0
0
0
0
0
0
0
0
0
0
0
0
0
0
0
0
0
0
0
0
0
0
0
0
0
0
0
0
0
0
0
0
0
0
0
0
0
0
0
0
0
0
0
0
0
0
0
0
0
0
0
0
0
0
0
0
0
0
0
0
0
0
0
0
0
0
0
0
0
0
0
0
0
0
0
0
0
0
0
0
0
0
0
0
0
0
0
0
0
0
0
0
0
3.03772e-08
3.85924e-07
5.28138e-07
7.07044e-07
7.96523e-07
6.07577e-07
0
0
0
0
0
0
0
0
0
8.28272e-06
1.63503e-05
1.87291e-05
1.66493e-05
1.12924e-05
5.67221e-06
2.14287e-06
5.00917e-07
0
0
0
0
0
0
0
0
0
0
0
0
0
0
1.46061e-06
1.73213e-06
1.30008e-06
9.31687e-07
6.1623e-07
3.68201e-07
1.73283e-07
2.75905e-08
0
0
0
0
0
0
0
0
0
3.28244e-08
0
0
0
0
0
3.79928e-08
1.41797e-07
1.93065e-07
2.12739e-07
2.0153e-07
1.77319e-07
1.37012e-07
9.39452e-08
5.36981e-08
1.73185e-08
0
0
0
0
0
0
0
0
0
0
0
0
0
0
0
0
0
0
0
0
0
0
0
0
0
0
0
0
0
0
0
0
0
0
0
0
0
0
0
0
0
0
0
0
0
0
0
0
0
0
0
0
0
0
0
0
0
0
0
0
0
0
0
0
0
0
0
0
0
0
0
0
0
0
0
0
0
0
0
0
0
0
0
0
0
0
0
0
0
0
0
0
0
0
0
0
0
0
0
0
0
0
0
0
0
0
0
0
0
0
6.41546e-09
3.08168e-07
3.80203e-07
4.6822e-07
4.29999e-07
0
0
0
0
0
0
3.60949e-06
1.53691e-05
2.15735e-05
2.02988e-05
1.96049e-05
1.98944e-05
2.05313e-05
1.94951e-05
1.48186e-05
7.83045e-06
2.89251e-06
6.11765e-07
0
0
0
0
0
0
0
0
0
0
0
0
0
0
0
1.01157e-06
5.54327e-07
1.93301e-07
0
0
0
0
0
0
0
0
0
0
0
0
4.06421e-08
9.35729e-08
5.71286e-09
0
0
0
1.0088e-07
1.91596e-07
2.30214e-07
2.28313e-07
2.23923e-07
2.11389e-07
1.99859e-07
1.93552e-07
1.80686e-07
1.65933e-07
1.37955e-07
1.03495e-07
6.23932e-08
2.20173e-08
0
0
0
0
0
0
0
0
0
0
0
0
0
0
0
0
0
0
0
0
0
0
0
0
0
0
0
0
0
0
0
0
0
0
0
0
0
0
0
0
0
0
0
0
0
0
0
0
0
0
0
0
0
0
0
0
0
0
0
0
0
0
0
0
0
0
0
0
0
0
0
0
0
0
0
0
0
0
0
0
0
0
0
0
0
0
0
0
0
0
0
0
0
0
0
0
0
0
0
0
0
0
0
0
0
0
0
0
1.08575e-07
9.52787e-08
1.12021e-07
5.43284e-08
0
1.02348e-06
9.19312e-06
1.19911e-05
1.22108e-05
1.27133e-05
1.44762e-05
1.65019e-05
1.70773e-05
1.64095e-05
1.56736e-05
1.54526e-05
1.61706e-05
1.75533e-05
1.74616e-05
9.99995e-06
1.88166e-06
0
0
0
0
0
0
0
0
0
0
0
0
0
0
0
0
2.59647e-07
1.48762e-09
0
0
0
0
0
0
0
0
0
0
0
1.11461e-07
3.18677e-07
4.46647e-07
2.83365e-07
0
0
0
0
2.66859e-07
4.18511e-07
4.61003e-07
3.88983e-07
3.01101e-07
2.19499e-07
1.39412e-07
9.40151e-08
7.63291e-08
7.98055e-08
9.27017e-08
1.08673e-07
1.17923e-07
1.15509e-07
9.81457e-08
6.78112e-08
3.23696e-08
1.32339e-11
0
0
0
0
0
0
0
0
0
0
0
0
0
0
0
0
0
0
0
0
0
0
0
0
0
0
0
0
0
0
0
0
0
0
0
0
0
0
0
0
0
0
0
0
0
0
0
0
0
0
0
0
0
0
0
0
0
0
0
0
0
0
0
0
0
0
0
0
0
0
0
0
0
0
0
0
0
0
0
0
0
0
0
0
0
0
0
0
0
0
0
0
0
0
0
0
0
0
0
0
0
0
0
0
0
0
0
0
6.35642e-07
4.22918e-06
6.27883e-06
6.14454e-06
6.1273e-06
6.30364e-06
6.8124e-06
7.8613e-06
8.34359e-06
8.17319e-06
7.68418e-06
7.09132e-06
6.46299e-06
5.37161e-06
2.77767e-06
0
0
5.49007e-07
1.20135e-06
5.78167e-07
3.01244e-07
1.02761e-07
0
0
0
0
0
0
0
0
0
0
4.95211e-09
0
0
0
0
0
0
0
0
0
0
0
2.48118e-07
7.19026e-07
1.42367e-06
2.23275e-06
2.47294e-06
6.37721e-07
0
0
0
0
0
4.1914e-07
6.62118e-07
6.87408e-07
5.92574e-07
4.65071e-07
3.05077e-07
1.57877e-07
6.94826e-08
2.50695e-08
8.73359e-09
7.19736e-09
1.52928e-08
3.08555e-08
4.90612e-08
6.09512e-08
5.84422e-08
4.19475e-08
1.69471e-08
0
0
0
0
0
0
0
0
0
0
0
0
0
0
0
0
0
0
0
0
0
0
0
0
0
0
0
0
0
0
0
0
0
0
0
0
0
0
0
0
0
0
0
0
0
0
0
0
0
0
0
0
0
0
0
0
0
0
0
0
0
0
0
0
0
0
0
0
0
0
0
0
0
0
0
0
0
0
0
0
0
0
0
0
0
0
0
0
0
0
0
0
0
0
0
0
0
0
0
0
0
0
0
0
0
0
0
1.05433e-07
2.10976e-06
3.47359e-06
3.63586e-06
3.54516e-06
3.52491e-06
3.49634e-06
3.38463e-06
3.24458e-06
2.91101e-06
2.47803e-06
1.87804e-06
1.08302e-06
5.8258e-08
0
0
1.75214e-06
3.14278e-06
2.08603e-06
1.47072e-06
1.0348e-06
7.04288e-07
4.58584e-07
2.90419e-07
2.51288e-07
0
0
0
0
0
0
0
0
0
0
0
0
0
0
0
0
0
1.25583e-07
5.7895e-07
1.45538e-06
2.9962e-06
5.52288e-06
9.29316e-06
1.17919e-05
0
0
0
0
0
0
0
4.59223e-07
6.87046e-07
7.25884e-07
6.45273e-07
5.13209e-07
3.62761e-07
2.09322e-07
9.84437e-08
3.80952e-08
4.88302e-09
0
0
0
0
1.28516e-08
4.52959e-08
6.40589e-08
5.14014e-08
6.89545e-09
0
0
0
0
0
0
0
0
0
0
0
0
0
0
0
0
0
0
0
0
0
0
0
0
0
0
0
0
0
0
0
0
0
0
0
0
0
0
0
0
0
0
0
0
0
0
0
0
0
0
0
0
0
0
0
0
0
0
0
0
0
0
0
0
0
0
0
0
0
0
0
0
0
0
0
0
0
0
0
0
0
0
0
0
0
0
0
0
0
0
0
0
0
0
0
0
0
0
0
0
0
0
0
0
0
0
5.01211e-07
1.84445e-06
2.38056e-06
2.39038e-06
2.27707e-06
2.12397e-06
1.89091e-06
1.59064e-06
1.29462e-06
1.05034e-06
8.05842e-07
6.47693e-07
7.76881e-07
1.78685e-06
3.82956e-06
4.33456e-06
3.61385e-06
2.93124e-06
2.37086e-06
1.90477e-06
1.60224e-06
1.53204e-06
9.12703e-07
2.78946e-07
0
0
0
0
0
0
0
8.56212e-09
0
0
0
0
0
0
0
0
1.18487e-07
5.78748e-07
1.46896e-06
3.16769e-06
5.99662e-06
1.0027e-05
1.35398e-05
5.59193e-06
0
0
0
0
0
0
0
1.24248e-07
5.1602e-07
6.10353e-07
5.74088e-07
4.8596e-07
4.0485e-07
3.13541e-07
2.0753e-07
1.25463e-07
7.26051e-08
2.02192e-08
0
0
0
0
0
9.49753e-09
7.6295e-08
1.01027e-07
7.61869e-08
1.81085e-08
0
0
0
0
0
0
0
0
0
0
0
0
0
0
0
0
0
0
0
0
0
0
2.65194e-09
0
0
0
0
0
0
0
0
0
0
0
0
0
0
0
0
0
0
0
0
0
0
0
0
4.45609e-09
7.19661e-09
0
0
0
0
0
0
0
0
0
0
0
0
0
0
0
0
0
0
0
0
0
0
0
0
0
0
0
0
0
0
0
0
0
0
0
0
0
0
0
0
0
0
0
0
0
0
0
1.02066e-09
0
0
0
0
0
0
0
0
4.56939e-07
1.38854e-06
1.81385e-06
1.9209e-06
1.9167e-06
1.92156e-06
1.9173e-06
1.92929e-06
1.99545e-06
2.17524e-06
2.62377e-06
3.27572e-06
3.96178e-06
4.27688e-06
4.23208e-06
3.92017e-06
3.43866e-06
2.88962e-06
2.25004e-06
1.41756e-06
8.23047e-07
4.74366e-07
2.45425e-07
6.06041e-08
0
0
0
0
0
5.51777e-08
6.88826e-08
3.46238e-08
0
0
0
0
0
0
0
2.12984e-07
6.84128e-07
1.5623e-06
2.82311e-06
4.09931e-06
4.16394e-06
8.23429e-07
0
0
0
0
0
0
0
0
0
1.10566e-07
4.1664e-07
4.53079e-07
3.8389e-07
3.20975e-07
2.86346e-07
2.19137e-07
1.26739e-07
9.16987e-08
1.04601e-07
6.13682e-08
0
0
0
0
0
0
0
0
0
0
0
3.46149e-09
2.00181e-08
1.93614e-08
1.08077e-08
4.52984e-09
0
0
0
0
0
0
0
0
0
0
0
0
0
0
0
1.04962e-09
6.40729e-10
0
0
0
0
0
0
0
0
0
0
0
0
0
0
0
0
0
0
0
0
0
0
0
0
6.17873e-09
9.80077e-09
0
0
0
0
0
0
0
0
0
0
0
0
0
0
0
0
0
0
0
0
0
0
0
0
0
0
0
0
0
0
0
0
0
0
0
0
0
0
0
0
0
0
0
0
0
0
0
0
0
0
0
0
0
0
0
0
2.01478e-07
9.00766e-07
1.36577e-06
1.66158e-06
1.8703e-06
2.03433e-06
2.17765e-06
2.33121e-06
2.52172e-06
2.77219e-06
2.97761e-06
3.11915e-06
3.01595e-06
2.68279e-06
2.22663e-06
1.77777e-06
1.37737e-06
1.03368e-06
7.39915e-07
5.42231e-07
3.8731e-07
2.45562e-07
1.02133e-07
0
0
0
0
4.37368e-08
1.36704e-07
1.48152e-07
1.204e-07
7.36813e-08
2.35343e-08
0
0
0
0
0
3.4916e-08
1.73607e-07
2.59724e-07
6.04356e-08
0
0
0
0
0
0
0
0
0
0
0
0
0
0
2.24887e-07
2.68756e-07
2.1931e-07
1.86222e-07
1.69957e-07
1.13836e-07
4.4768e-08
8.00536e-08
1.71579e-07
1.29876e-07
0
0
0
0
0
0
0
0
0
0
0
0
5.54708e-08
5.54778e-08
2.85748e-08
1.3087e-08
0
0
0
0
0
0
0
0
0
0
0
0
0
0
1.7819e-09
4.06351e-09
4.96252e-10
0
0
0
0
0
0
0
0
0
0
0
0
0
0
8.90874e-10
0
0
0
0
0
0
0
0
0
5.47963e-09
9.53653e-09
0
0
0
0
0
0
0
0
0
0
0
0
0
0
0
0
0
0
0
0
0
0
0
0
0
0
0
0
0
0
0
0
0
0
0
0
0
0
0
0
0
0
0
0
0
0
0
0
0
0
0
0
0
0
0
0
0
3.71408e-07
6.82792e-07
8.84249e-07
1.0278e-06
1.14768e-06
1.26317e-06
1.35835e-06
1.43922e-06
1.46582e-06
1.42278e-06
1.34526e-06
1.25744e-06
1.13924e-06
1.00578e-06
8.34031e-07
6.92926e-07
5.75312e-07
4.70685e-07
3.69055e-07
2.6372e-07
1.51477e-07
3.7886e-08
0
0
2.9151e-09
1.22311e-07
1.94476e-07
2.19713e-07
2.109e-07
1.80258e-07
1.38926e-07
9.67767e-08
4.75378e-08
0
0
0
0
0
0
0
0
0
0
0
0
0
0
0
0
0
0
0
0
0
6.50636e-08
1.61815e-07
1.49881e-07
9.41993e-08
6.92396e-08
6.1001e-08
2.98998e-08
7.48376e-09
1.01787e-07
2.2673e-07
1.66364e-07
0
0
0
0
0
0
0
0
0
0
0
0
2.16128e-08
2.61967e-08
0
0
0
0
0
0
0
0
0
0
0
1.45145e-08
1.62409e-08
8.15407e-09
1.57065e-09
1.55862e-10
3.79766e-09
5.75956e-09
3.08673e-09
8.04959e-10
1.47357e-09
3.45841e-09
4.18395e-09
1.73309e-09
0
0
0
0
0
0
0
0
0
3.16534e-09
2.85077e-09
0
0
0
0
0
0
0
0
6.55493e-09
1.04991e-08
0
0
0
0
0
0
0
0
0
0
0
0
0
0
0
0
0
0
0
0
0
0
0
0
0
0
0
0
0
0
0
0
0
0
0
0
0
0
0
0
0
0
0
0
0
0
0
0
0
0
0
0
0
0
0
0
0
0
1.06221e-07
2.38426e-07
3.69116e-07
5.01149e-07
6.22388e-07
7.29391e-07
7.93718e-07
8.06849e-07
7.77699e-07
7.48605e-07
7.10857e-07
6.36772e-07
5.75265e-07
5.1157e-07
4.52654e-07
3.86954e-07
3.2003e-07
2.5017e-07
1.75208e-07
1.04646e-07
5.36219e-08
4.62339e-08
9.12965e-08
1.53708e-07
2.02505e-07
2.34832e-07
2.48725e-07
2.50106e-07
2.42399e-07
2.24105e-07
1.91007e-07
1.11888e-07
0
0
0
0
0
0
0
0
0
0
0
0
0
0
0
0
0
0
6.32561e-08
1.13276e-07
1.2517e-07
1.36615e-07
1.30746e-07
8.08436e-08
2.00192e-08
0
0
0
0
5.46991e-08
1.47436e-07
1.47058e-07
3.72114e-08
0
0
0
0
0
0
0
0
0
0
0
0
0
0
0
0
0
0
0
0
0
0
0
4.19709e-08
4.71537e-08
3.65984e-08
2.48324e-08
1.37124e-08
6.02932e-09
4.24672e-09
5.11441e-09
5.55869e-09
9.4949e-09
1.65038e-08
2.03587e-08
1.76995e-08
1.04614e-08
2.54733e-09
0
0
0
0
0
0
0
5.64406e-10
3.49033e-09
1.58455e-09
0
0
0
0
0
0
0
0
9.85429e-09
1.20935e-08
0
0
0
0
0
0
0
0
0
0
0
0
0
0
0
0
0
0
0
0
0
0
0
0
0
0
0
0
0
0
0
0
0
0
0
0
0
0
0
0
0
0
0
0
0
0
0
0
0
0
0
0
0
0
0
0
0
0
1.19065e-07
2.6009e-07
3.58955e-07
4.21952e-07
4.6491e-07
4.68297e-07
4.52719e-07
4.45971e-07
4.34345e-07
4.37076e-07
4.18165e-07
4.07636e-07
3.8255e-07
3.49678e-07
3.11427e-07
2.69606e-07
2.22776e-07
1.71987e-07
1.26904e-07
9.50665e-08
8.81681e-08
1.09848e-07
1.46844e-07
1.83218e-07
2.15826e-07
2.43029e-07
2.67654e-07
2.88056e-07
3.08027e-07
3.21357e-07
2.93043e-07
1.82899e-07
0
0
0
0
0
0
0
0
0
0
0
0
0
0
2.70334e-08
3.27129e-07
3.73759e-07
2.69393e-07
1.94474e-07
1.67314e-07
1.25977e-07
9.93782e-08
9.47745e-08
5.17345e-08
0
0
0
0
2.29764e-08
3.77752e-08
2.74342e-08
6.28003e-10
0
0
0
0
0
0
0
0
0
0
0
0
0
0
2.53777e-08
2.07345e-08
0
0
0
0
0
0
4.23607e-08
8.08336e-08
7.78102e-08
6.6159e-08
5.60087e-08
4.61623e-08
3.44248e-08
2.12547e-08
8.90203e-09
1.29115e-09
2.40782e-09
1.1399e-08
2.1294e-08
2.43534e-08
1.93659e-08
1.16333e-08
5.16449e-09
8.70754e-10
0
0
0
0
0
0
1.61392e-09
1.1969e-09
0
0
0
0
0
0
0
0
0
1.68345e-08
1.34305e-08
0
0
0
0
0
0
0
0
0
0
0
0
0
0
0
0
0
0
0
0
0
0
0
0
0
0
0
0
0
0
0
0
0
0
0
0
0
0
0
0
0
0
0
0
0
0
0
0
0
0
0
0
0
0
0
0
0
1.55134e-07
2.54771e-07
3.02258e-07
3.0122e-07
2.78229e-07
2.45467e-07
2.12246e-07
2.02298e-07
2.07406e-07
2.25679e-07
2.4265e-07
2.57637e-07
2.66589e-07
2.69082e-07
2.63269e-07
2.45434e-07
2.15554e-07
1.77422e-07
1.38954e-07
1.04563e-07
8.42153e-08
8.43266e-08
1.03e-07
1.29832e-07
1.59315e-07
1.90992e-07
2.21531e-07
2.54583e-07
2.886e-07
3.31675e-07
3.46649e-07
3.01853e-07
1.92521e-07
1.31189e-09
0
0
0
0
0
0
0
0
0
0
0
3.06885e-07
4.53069e-07
4.38856e-07
4.02036e-07
2.67933e-07
1.77644e-07
1.76206e-07
1.44254e-07
8.98212e-08
9.75054e-08
1.16625e-07
2.60899e-08
0
0
0
5.12169e-08
8.56843e-08
2.02944e-08
0
0
0
0
0
0
0
0
0
0
0
0
0
0
3.52726e-08
6.25745e-08
5.85073e-08
4.31262e-08
2.60163e-08
9.99708e-09
0
3.10662e-08
8.50213e-08
1.00801e-07
1.10052e-07
1.01188e-07
8.86521e-08
8.05984e-08
7.57154e-08
7.00556e-08
6.13221e-08
4.83365e-08
3.01783e-08
1.21293e-08
5.99391e-09
1.28232e-08
2.02158e-08
2.03899e-08
1.53561e-08
1.0715e-08
8.51812e-09
8.23642e-09
8.41482e-09
5.7487e-09
0
0
0
0
1.39453e-09
0
0
0
0
0
0
0
0
0
0
2.77755e-08
1.01917e-08
0
0
0
0
0
0
0
0
0
0
0
0
0
0
0
0
0
0
0
0
0
0
0
0
0
0
0
0
0
0
0
0
0
0
0
0
0
0
0
0
0
0
0
0
0
0
0
0
0
0
0
0
0
0
0
3.44413e-08
1.77473e-07
2.3357e-07
2.49207e-07
2.30047e-07
1.87103e-07
1.40158e-07
9.95024e-08
7.60672e-08
7.01836e-08
7.69056e-08
9.32467e-08
1.1649e-07
1.39718e-07
1.59106e-07
1.75425e-07
1.84182e-07
1.83269e-07
1.70988e-07
1.49427e-07
1.1867e-07
8.6382e-08
6.40468e-08
5.77812e-08
6.48691e-08
8.128e-08
1.03164e-07
1.26864e-07
1.56156e-07
1.84739e-07
2.24594e-07
2.60621e-07
2.61037e-07
2.16649e-07
1.31894e-07
0
0
0
0
0
0
0
0
0
0
0
0
6.35278e-08
1.72088e-07
2.28744e-07
1.86268e-07
1.62176e-07
1.89841e-07
1.68953e-07
9.93273e-08
9.15699e-08
1.59805e-07
1.10797e-07
0
0
0
0
8.43015e-08
3.74776e-08
0
0
0
0
0
0
0
0
0
0
0
0
0
0
7.48347e-08
9.62968e-08
8.70629e-08
7.54404e-08
6.14133e-08
4.46349e-08
3.11511e-08
5.77736e-08
1.11556e-07
1.27761e-07
1.28097e-07
1.21917e-07
1.07644e-07
9.71165e-08
9.30064e-08
9.1486e-08
8.82748e-08
8.23207e-08
7.21375e-08
5.48332e-08
3.45314e-08
2.22994e-08
2.05033e-08
2.05564e-08
1.77072e-08
1.41119e-08
1.3182e-08
1.53074e-08
1.83794e-08
1.69992e-08
6.61078e-09
0
0
0
1.14196e-09
0
0
0
0
0
0
0
0
0
0
0
3.20269e-08
0
0
0
0
0
0
0
0
0
0
0
0
0
0
0
0
0
0
0
0
0
0
0
0
0
0
0
0
0
0
0
0
0
0
0
0
0
0
0
0
0
0
0
0
0
0
0
0
0
0
0
0
0
0
0
6.92695e-09
1.52753e-07
1.93681e-07
1.92592e-07
1.69595e-07
1.24497e-07
7.45779e-08
3.84649e-08
1.79595e-08
7.32403e-09
2.8203e-09
4.92654e-09
1.20538e-08
2.23029e-08
3.50571e-08
5.1866e-08
7.17842e-08
9.10124e-08
1.03806e-07
1.0783e-07
1.00726e-07
8.10853e-08
5.46167e-08
3.04797e-08
1.47066e-08
8.83864e-09
1.05745e-08
1.72956e-08
2.75709e-08
4.26455e-08
6.28669e-08
8.95085e-08
1.04418e-07
1.0528e-07
9.00538e-08
6.66612e-08
5.00516e-08
5.46024e-08
1.2124e-07
2.87774e-07
5.99549e-07
1.11725e-06
1.75324e-06
4.60942e-07
0
0
0
0
0
1.11784e-07
1.22479e-07
1.5957e-07
2.00519e-07
1.67103e-07
9.88484e-08
9.59118e-08
1.77881e-07
1.59977e-07
0
0
0
0
1.23239e-07
3.26465e-08
0
0
0
0
0
0
0
0
0
0
0
0
0
0
5.39179e-08
8.6078e-08
8.3759e-08
7.39384e-08
6.01077e-08
4.72854e-08
4.67787e-08
7.75925e-08
1.23155e-07
1.43902e-07
1.44092e-07
1.39788e-07
1.3294e-07
1.21251e-07
1.09783e-07
1.02573e-07
9.70747e-08
9.17979e-08
8.67535e-08
7.85405e-08
6.34064e-08
4.53754e-08
3.25211e-08
2.65033e-08
2.32068e-08
2.01371e-08
1.87643e-08
2.09147e-08
2.5575e-08
2.77258e-08
1.89191e-08
1.1223e-09
0
0
0
1.19651e-09
0
0
0
0
0
0
0
0
0
0
2.08627e-09
1.78837e-08
0
0
0
0
0
0
0
0
0
0
0
0
0
0
0
0
0
0
0
0
0
0
0
0
0
0
0
0
0
0
0
0
0
0
0
0
0
0
0
0
0
0
0
0
0
0
0
0
0
0
0
0
0
0
0
4.20569e-08
9.20713e-08
1.03263e-07
9.07573e-08
5.93802e-08
2.19548e-08
0
0
0
0
0
0
0
0
0
0
0
0
6.88781e-09
1.52839e-08
1.65865e-08
8.02293e-09
0
0
0
0
0
0
0
0
0
0
0
0
0
3.52573e-08
1.78545e-07
4.61253e-07
8.91227e-07
1.53383e-06
2.25956e-06
2.46535e-06
7.8521e-07
0
0
0
0
0
8.63108e-08
7.40017e-08
1.59677e-07
2.31138e-07
1.67911e-07
7.70974e-08
1.07437e-07
1.95957e-07
1.48299e-07
0
0
0
5.27965e-07
5.02655e-07
1.11414e-07
0
0
0
0
0
0
0
0
0
0
0
0
0
1.07563e-08
1.10745e-07
1.17599e-07
8.97256e-08
6.59923e-08
5.30578e-08
5.08336e-08
7.20252e-08
1.18336e-07
1.54409e-07
1.6826e-07
1.6106e-07
1.51172e-07
1.45384e-07
1.42289e-07
1.3409e-07
1.21602e-07
1.08185e-07
9.528e-08
8.61319e-08
8.02695e-08
7.29074e-08
6.08468e-08
4.68148e-08
3.68859e-08
3.18195e-08
2.89705e-08
2.71168e-08
2.78175e-08
3.15208e-08
3.48791e-08
3.03055e-08
1.26334e-08
0
0
0
0
0
0
0
0
0
0
0
0
0
0
0
5.75615e-09
0
0
0
0
0
0
0
0
0
0
0
0
0
0
0
0
0
0
0
0
0
0
0
0
0
0
0
0
0
0
0
0
0
0
0
0
0
0
0
0
0
0
0
0
0
0
6.82276e-09
2.84711e-08
3.10491e-08
9.61016e-09
0
0
0
0
0
0
0
0
0
0
0
0
0
0
0
0
0
0
0
0
0
0
0
0
0
0
0
0
0
0
0
0
0
0
0
0
0
0
0
0
0
2.49755e-08
2.95672e-07
6.71338e-07
1.12261e-06
1.39132e-06
1.05812e-06
9.9528e-08
0
0
0
0
4.30117e-08
7.088e-08
0
1.24646e-07
2.38321e-07
1.42139e-07
1.77787e-08
9.19099e-08
1.78445e-07
9.91079e-08
0
0
0
3.67899e-08
9.87222e-07
3.05674e-07
0
0
0
0
0
0
0
3.68738e-08
5.6254e-08
0
0
0
0
6.46243e-08
1.75149e-07
1.70381e-07
1.29636e-07
9.08227e-08
6.90064e-08
7.18538e-08
1.06525e-07
1.4813e-07
1.68251e-07
1.79233e-07
1.70013e-07
1.53395e-07
1.44038e-07
1.43808e-07
1.44916e-07
1.36663e-07
1.21152e-07
1.03031e-07
8.7123e-08
7.72728e-08
7.17747e-08
6.61298e-08
5.7647e-08
4.79692e-08
4.17622e-08
3.88982e-08
3.71507e-08
3.6538e-08
3.81288e-08
4.01208e-08
3.75208e-08
2.41141e-08
3.22842e-09
0
0
0
1.15955e-09
0
0
0
0
0
0
0
0
0
0
0
0
0
0
0
0
0
0
0
0
0
0
0
0
0
0
0
0
0
0
0
0
0
0
0
0
0
0
0
0
0
0
0
0
0
0
0
0
0
0
0
0
0
0
0
0
0
6.52216e-08
9.02206e-08
1.00524e-07
9.37862e-08
5.52462e-08
0
0
0
0
0
0
0
0
0
0
0
0
0
0
0
0
0
0
0
0
0
0
0
0
0
0
0
0
0
0
0
0
0
0
0
0
0
0
0
0
0
4.39399e-08
3.23169e-07
5.96407e-07
6.60141e-07
3.83085e-07
0
0
0
0
0
8.10749e-08
6.48873e-09
0
6.27493e-08
2.25033e-07
1.0069e-07
0
6.75662e-08
1.29291e-07
4.44963e-08
0
0
0
0
2.63308e-07
3.00147e-07
3.43624e-08
0
0
0
0
0
7.45214e-08
9.40929e-08
1.20606e-07
0
0
0
0
1.32401e-07
2.10817e-07
1.9405e-07
1.54502e-07
1.18973e-07
9.78758e-08
9.85609e-08
1.22712e-07
1.49435e-07
1.67421e-07
1.81448e-07
1.7463e-07
1.54853e-07
1.39635e-07
1.36984e-07
1.4097e-07
1.40457e-07
1.27119e-07
1.08205e-07
8.94283e-08
7.62713e-08
6.98741e-08
6.73376e-08
6.41946e-08
5.82868e-08
5.17887e-08
4.84902e-08
4.71659e-08
4.6115e-08
4.57936e-08
4.5245e-08
4.18671e-08
3.17814e-08
1.33596e-08
0
0
0
1.56445e-10
5.41108e-10
0
0
0
0
0
0
0
0
0
0
0
0
0
0
0
0
0
0
0
0
0
0
0
0
0
0
0
0
0
0
0
0
0
0
0
0
0
0
0
0
0
0
0
0
0
0
0
0
0
0
0
0
0
0
0
0
8.3804e-08
1.34975e-07
1.65602e-07
1.74012e-07
1.14504e-07
0
0
0
0
0
0
0
0
0
0
0
0
0
0
0
0
0
0
0
0
0
0
0
0
0
0
0
0
0
0
0
0
0
0
0
0
0
0
0
0
0
0
9.76707e-08
2.87277e-07
3.11974e-07
1.57128e-07
0
0
0
0
0
5.44282e-08
0
0
1.07135e-08
1.91709e-07
7.73205e-08
3.24566e-09
6.1442e-08
6.92225e-08
0
0
0
0
0
0
1.09875e-07
4.87528e-08
0
0
0
0
8.27738e-09
5.44986e-08
4.89483e-08
9.82668e-08
1.68647e-07
0
0
1.33939e-08
2.0684e-07
2.41715e-07
2.11225e-07
1.67995e-07
1.35333e-07
1.18467e-07
1.1792e-07
1.32142e-07
1.50421e-07
1.66757e-07
1.79395e-07
1.73619e-07
1.54008e-07
1.34729e-07
1.27285e-07
1.30212e-07
1.34425e-07
1.2809e-07
1.11239e-07
9.25386e-08
7.77294e-08
7.00508e-08
6.84021e-08
6.88086e-08
6.65034e-08
6.12929e-08
5.71023e-08
5.59001e-08
5.51492e-08
5.35874e-08
5.07891e-08
4.51835e-08
3.59123e-08
2.13659e-08
3.86274e-09
0
0
0
1.71731e-09
0
0
0
0
0
0
0
0
0
0
0
0
0
0
0
0
0
0
0
0
0
0
0
0
0
0
0
0
0
0
0
0
0
0
0
0
0
0
0
0
0
0
0
0
0
0
0
0
0
0
0
0
0
0
0
5.14036e-09
3.19696e-08
7.65481e-08
9.88306e-08
7.39744e-08
6.83035e-09
0
0
0
0
0
0
0
0
0
0
0
0
0
0
0
0
0
0
0
0
0
0
0
0
0
0
0
0
0
0
0
0
0
0
0
0
0
0
0
0
0
0
1.21244e-08
1.59765e-07
1.73676e-07
6.40393e-08
0
0
0
0
0
0
0
0
1.88313e-08
1.57766e-07
9.64987e-08
1.21173e-07
9.66382e-08
2.69527e-08
0
0
0
0
0
0
0
8.18719e-09
5.42708e-09
0
0
7.51206e-09
7.48152e-08
7.64131e-08
5.70995e-08
9.28728e-08
1.42692e-07
6.72395e-08
0
1.3922e-07
2.36499e-07
2.52225e-07
2.26189e-07
1.85458e-07
1.51132e-07
1.32956e-07
1.29814e-07
1.3797e-07
1.49518e-07
1.61033e-07
1.71881e-07
1.68733e-07
1.52594e-07
1.32218e-07
1.19285e-07
1.18348e-07
1.23743e-07
1.24528e-07
1.12907e-07
9.61478e-08
8.1043e-08
7.20603e-08
6.99269e-08
7.17776e-08
7.21893e-08
6.82369e-08
6.33836e-08
6.16964e-08
6.14437e-08
5.96386e-08
5.55843e-08
4.7812e-08
3.7355e-08
2.54062e-08
1.06076e-08
0
0
0
5.44931e-10
9.19688e-10
0
0
0
0
0
0
0
0
0
0
0
0
0
0
0
0
0
0
0
0
0
0
0
0
0
0
0
0
0
0
0
0
0
0
0
0
0
0
0
0
0
0
0
0
0
0
0
0
0
0
0
0
8.01586e-09
9.07893e-09
4.736e-09
1.32155e-08
4.15318e-08
5.81005e-08
3.8925e-08
4.58907e-09
0
0
0
0
0
0
0
0
0
0
0
0
0
0
0
0
0
0
0
0
0
0
0
0
0
0
0
0
0
0
0
0
0
0
0
0
0
0
0
0
0
0
2.54951e-09
1.26228e-07
1.21501e-07
2.56539e-09
0
0
0
0
0
0
0
0
6.13087e-08
1.19095e-07
1.14229e-07
3.56398e-07
2.01893e-07
1.05088e-08
0
0
0
0
0
0
0
0
1.11927e-08
7.16197e-09
4.9387e-09
4.656e-08
9.57806e-08
9.39565e-08
7.3951e-08
6.6834e-08
5.11285e-08
4.55324e-08
1.08344e-07
1.93992e-07
2.31779e-07
2.39954e-07
2.27046e-07
1.93403e-07
1.58517e-07
1.37865e-07
1.30786e-07
1.3309e-07
1.38855e-07
1.4734e-07
1.59042e-07
1.59978e-07
1.49016e-07
1.30553e-07
1.13573e-07
1.07433e-07
1.11297e-07
1.15636e-07
1.103e-07
9.66692e-08
8.23351e-08
7.25779e-08
6.94022e-08
7.10431e-08
7.29308e-08
7.04454e-08
6.50978e-08
6.2329e-08
6.21736e-08
6.10617e-08
5.67787e-08
4.81494e-08
3.59855e-08
2.46758e-08
1.36023e-08
2.33928e-09
0
0
0
9.40751e-11
0
0
0
6.57257e-10
1.60311e-08
0
0
0
0
0
0
0
0
0
0
0
0
0
0
0
0
0
0
0
0
0
0
0
0
0
0
0
0
0
0
0
0
0
0
0
0
0
0
0
0
0
0
0
0
0
0
0
3.98046e-10
3.9227e-09
0
0
2.27289e-08
4.26985e-08
4.15102e-08
3.11599e-08
1.77633e-08
5.32602e-09
0
3.95542e-10
0
0
0
0
0
0
0
0
0
0
0
0
0
0
0
0
0
0
0
0
0
0
0
0
0
0
0
0
0
0
0
0
0
0
0
0
0
0
9.99042e-08
2.00861e-07
1.36556e-07
0
0
3.45623e-09
0
0
0
0
0
0
8.60023e-08
6.47254e-08
7.23023e-08
6.50292e-07
3.95507e-07
2.72657e-08
0
0
0
0
0
0
0
0
5.02712e-08
3.92769e-08
3.0768e-08
6.6011e-08
1.03633e-07
9.92965e-08
7.44751e-08
4.69841e-08
2.60115e-08
5.52396e-08
1.86557e-07
2.17205e-07
2.28783e-07
2.27871e-07
2.15626e-07
1.94768e-07
1.63264e-07
1.40716e-07
1.29972e-07
1.27878e-07
1.30342e-07
1.38454e-07
1.52253e-07
1.56764e-07
1.49809e-07
1.33701e-07
1.14678e-07
1.03055e-07
1.03396e-07
1.09222e-07
1.09205e-07
9.88281e-08
8.51763e-08
7.45875e-08
7.01198e-08
7.08591e-08
7.34854e-08
7.29122e-08
6.78776e-08
6.3567e-08
6.2492e-08
6.1729e-08
5.79335e-08
4.93196e-08
3.57129e-08
2.31446e-08
1.41223e-08
5.81487e-09
0
0
0
0
0
0
0
0
2.22127e-08
1.86126e-08
0
0
0
0
0
0
0
0
0
0
0
0
0
0
0
0
0
0
0
0
0
0
0
0
0
0
0
0
0
0
0
0
0
0
0
0
0
0
0
0
0
0
0
0
0
0
0
0
0
0
0
0
1.26566e-08
2.59929e-08
3.06151e-08
2.5521e-08
2.3649e-08
3.58315e-08
2.78483e-08
0
0
0
0
0
0
0
0
0
0
0
0
0
0
0
0
0
0
0
0
0
0
0
0
0
0
0
0
0
0
0
0
0
0
0
0
5.36209e-08
2.14876e-07
3.04507e-07
1.62463e-07
0
0
0
0
0
0
0
0
2.65485e-07
1.08064e-07
4.24649e-08
1.86825e-08
1.94371e-07
2.51417e-07
0
0
0
3.35745e-07
1.23753e-06
0
0
0
2.22504e-08
1.06174e-07
8.42772e-08
6.10793e-08
6.95688e-08
9.28971e-08
8.97383e-08
6.69919e-08
4.24434e-08
3.81683e-08
1.24909e-07
1.94194e-07
2.05499e-07
2.1058e-07
2.03862e-07
1.90664e-07
1.75765e-07
1.56599e-07
1.35394e-07
1.2276e-07
1.18274e-07
1.19936e-07
1.28855e-07
1.44289e-07
1.50985e-07
1.46539e-07
1.32968e-07
1.14611e-07
9.94266e-08
9.48272e-08
9.8924e-08
1.02203e-07
9.59207e-08
8.36007e-08
7.25075e-08
6.68621e-08
6.65507e-08
6.94942e-08
7.11042e-08
6.76916e-08
6.23088e-08
5.97163e-08
5.84107e-08
5.51732e-08
4.76889e-08
3.47304e-08
2.13212e-08
1.31251e-08
7.77186e-09
2.14063e-09
0
0
0
0
0
0
0
1.05179e-08
3.63477e-08
0
0
0
0
0
0
0
0
0
0
0
0
0
0
0
0
0
0
0
0
0
0
0
0
0
0
0
0
0
0
0
0
0
0
0