/*--------------------------------*- C++ -*----------------------------------*\
  =========                 |
  \\      /  F ield         | OpenFOAM: The Open Source CFD Toolbox
   \\    /   O peration     | Website:  https://openfoam.org
    \\  /    A nd           | Version:  7
     \\/     M anipulation  |
\*---------------------------------------------------------------------------*/
FoamFile
{
    version     2.0;
    format      ascii;
    class       volScalarField;
    location    "0.055";
    object      p;
}
// * * * * * * * * * * * * * * * * * * * * * * * * * * * * * * * * * * * * * //

dimensions      [0 2 -2 0 0 0 0];

internalField   nonuniform List<scalar> 
12225
(
-112.73
-109.117
-106.496
-104.529
-102.901
-101.48
-100.223
-99.111
-98.1287
-97.2566
-96.4532
-95.6723
-94.8895
-94.1038
-93.3279
-92.5565
-91.7594
-90.8622
-112.239
-109.091
-106.486
-104.516
-102.892
-101.476
-100.223
-99.114
-98.1319
-97.2587
-96.4551
-95.6739
-94.8889
-94.1021
-93.3266
-92.5601
-91.7725
-90.9185
-111.963
-109.08
-106.48
-104.493
-102.873
-101.467
-100.222
-99.1172
-98.1356
-97.2575
-96.4455
-95.6595
-94.8772
-94.0986
-93.3315
-92.5748
-91.8029
-90.99
-112.522
-109.022
-106.424
-104.437
-102.829
-101.438
-100.207
-99.1109
-98.1323
-97.2501
-96.4327
-95.6465
-94.8705
-94.1018
-93.3447
-92.5986
-91.8461
-91.0782
-112.41
-108.931
-106.36
-104.376
-102.777
-101.404
-100.187
-99.0997
-98.1247
-97.2416
-96.4224
-95.6373
-94.8671
-94.1079
-93.3623
-92.6305
-91.903
-91.1808
-111.883
-108.746
-106.246
-104.277
-102.694
-101.343
-100.147
-99.075
-98.1083
-97.2282
-96.4099
-95.6276
-94.8646
-94.1168
-93.3857
-92.6719
-91.9717
-91.2902
-110.867
-108.497
-106.083
-104.152
-102.593
-101.27
-100.098
-99.043
-98.0865
-97.211
-96.3951
-95.6174
-94.8638
-94.1295
-93.4149
-92.7212
-92.0482
-91.4026
-110.944
-108.263
-105.876
-103.984
-102.46
-101.17
-100.029
-98.9957
-98.0539
-97.1876
-96.3786
-95.6092
-94.867
-94.1473
-93.45
-92.7769
-92.13
-91.5159
-111.9
-107.956
-105.584
-103.765
-102.296
-101.048
-99.9418
-98.9357
-98.0122
-97.1576
-96.3575
-95.5981
-94.8691
-94.1657
-93.4875
-92.8365
-92.2152
-91.6292
-110.235
-107.428
-105.203
-103.495
-102.098
-100.901
-99.8343
-98.8595
-97.9593
-97.1216
-96.3352
-95.5892
-94.8751
-94.1889
-93.5297
-92.8996
-92.3013
-91.7392
-110.191
-106.787
-104.718
-103.16
-101.856
-100.722
-99.7051
-98.7681
-97.8953
-97.0773
-96.3063
-95.5753
-94.8778
-94.2103
-93.5717
-92.9636
-92.3882
-91.8484
-109.016
-105.939
-104.162
-102.79
-101.597
-100.536
-99.5695
-98.6696
-97.825
-97.0292
-96.2769
-95.5627
-94.882
-94.2317
-93.6112
-93.022
-92.4655
-91.9437
-107.269
-104.91
-103.524
-102.367
-101.305
-100.328
-99.4173
-98.5598
-97.7474
-96.976
-96.2432
-95.5466
-94.8834
-94.2514
-93.6497
-93.0792
-92.5409
-92.0356
-103.282
-103.379
-102.719
-101.848
-100.948
-100.074
-99.2312
-98.4218
-97.6466
-96.9054
-96.1983
-95.5247
-94.8831
-94.2721
-93.6912
-93.1413
-92.6229
-92.1362
-100.012
-101.847
-101.782
-101.217
-100.507
-99.7562
-98.9965
-98.247
-97.5183
-96.8149
-96.1393
-95.4934
-94.8778
-94.2919
-93.7352
-93.2083
-92.711
-92.244
-101.57
-100.905
-100.872
-100.565
-100.045
-99.4197
-98.7421
-98.0519
-97.3703
-96.7067
-96.0662
-95.4526
-94.8672
-94.3095
-93.7793
-93.2769
-92.8021
-92.3539
-97.3699
-99.3119
-100.027
-99.9839
-99.6072
-99.068
-98.4551
-97.8193
-97.1859
-96.5659
-95.9654
-95.389
-94.8387
-94.3147
-93.8164
-93.344
-92.8975
-92.476
-95.3127
-98.7093
-99.7285
-99.7149
-99.3331
-98.8104
-98.2226
-97.6151
-97.0138
-96.4287
-95.8632
-95.3202
-94.8012
-94.3068
-93.8362
-93.3894
-92.9661
-92.5661
-102.612
-102.132
-101.181
-100.239
-99.4005
-98.6685
-98.0018
-97.3755
-96.7862
-96.2335
-95.711
-95.2131
-94.7381
-94.2863
-93.8569
-93.4488
-93.0613
-92.694
-114.316
-106.015
-102.428
-100.546
-99.3451
-98.4808
-97.7842
-97.1629
-96.5893
-96.0583
-95.5608
-95.0888
-94.6395
-94.2121
-93.8058
-93.4196
-93.0527
-92.7047
-109.211
-104.083
-101.432
-99.8991
-98.8614
-98.0822
-97.447
-96.885
-96.3675
-95.887
-95.4348
-95.0023
-94.587
-94.1892
-93.8089
-93.4451
-93.0974
-92.7657
-99.4809
-100.384
-99.6485
-98.8874
-98.2252
-97.6468
-97.1248
-96.6332
-96.1654
-95.7216
-95.2976
-94.8877
-94.4921
-94.1123
-93.7483
-93.4
-93.0673
-92.7505
-99.459
-98.409
-98.1977
-97.9427
-97.589
-97.1985
-96.7984
-96.395
-95.9941
-95.599
-95.211
-94.8315
-94.4589
-94.097
-93.7475
-93.4107
-93.0866
-92.7759
-93.1489
-95.8925
-96.874
-97.14
-97.0688
-96.8361
-96.5284
-96.1888
-95.8353
-95.4766
-95.1148
-94.7515
-94.3915
-94.0414
-93.703
-93.3773
-93.0646
-92.7653
-90.9228
-94.8432
-96.1907
-96.6659
-96.7247
-96.5772
-96.3377
-96.049
-95.7333
-95.4006
-95.0588
-94.7126
-94.3696
-94.0313
-93.7016
-93.3819
-93.0723
-92.7741
-92.0081
-94.3078
-95.6298
-96.246
-96.4141
-96.3487
-96.1707
-95.9278
-95.6445
-95.3342
-95.0061
-94.6697
-94.3337
-94.0022
-93.6781
-93.3635
-93.06
-92.7689
-93.0668
-94.2896
-95.5205
-96.1007
-96.2637
-96.2251
-96.0808
-95.863
-95.594
-95.2957
-94.9804
-94.6553
-94.327
-94.0007
-93.6802
-93.3683
-93.0663
-92.7748
-92.4677
-94.0801
-95.316
-95.9303
-96.129
-96.1281
-96.0127
-95.8128
-95.5549
-95.265
-94.9572
-94.6383
-94.3142
-93.9906
-93.6719
-93.3611
-93.0601
-92.77
-92.6542
-94.1115
-95.3296
-95.8706
-96.0704
-96.0889
-95.9842
-95.7884
-95.5342
-95.249
-94.9468
-94.6326
-94.312
-93.9909
-93.6746
-93.3657
-93.0661
-92.7761
-91.7169
-94.0647
-95.3047
-95.8134
-96.0327
-96.0676
-95.9672
-95.7714
-95.5191
-95.2384
-94.9412
-94.6313
-94.3129
-93.992
-93.6744
-93.364
-93.0632
-92.7727
-85.5955
-85.5937
-85.5586
-85.5023
-85.4472
-85.4222
-85.4343
-85.4855
-85.5714
-85.685
-85.8187
-85.9646
-86.1139
-86.2575
-86.3856
-86.4886
-86.5572
-86.5843
-86.5656
-86.501
-86.3934
-86.2479
-86.0719
-85.8743
-85.6668
-85.4588
-85.2644
-85.0904
-84.949
-84.86
-84.7843
-84.6953
-84.5948
-84.4759
-84.2596
-84.0582
-83.8851
-83.6864
-83.5531
-83.4668
-83.3447
-83.1135
-82.7411
-82.5174
-82.6188
-82.9313
-83.3874
-83.9381
-84.5469
-85.186
-85.831
-86.4582
-87.0441
-87.5665
-88.0057
-88.3475
-88.5847
-88.7159
-88.7422
-88.6667
-88.4951
-88.2353
-87.8949
-87.4825
-87.0068
-86.4758
-85.8977
-85.2798
-84.6291
-83.9514
-83.252
-82.5353
-81.8048
-81.0632
-80.312
-79.552
-78.7832
-78.0052
-77.2169
-76.4169
-75.604
-74.7769
-73.9353
-73.0792
-72.2099
-71.3302
-70.4438
-69.5559
-68.6726
-67.8007
-66.9471
-66.118
-65.3189
-64.5536
-63.8241
-63.1316
-62.4758
-61.856
-61.2711
-60.7197
-60.201
-59.7141
-59.2575
-58.8295
-58.4272
-58.0476
-57.687
-57.3413
-57.0069
-56.6801
-56.358
-56.0381
-55.7184
-55.3974
-55.074
-54.7474
-54.4171
-54.0826
-53.7438
-53.4005
-53.0527
-52.7002
-52.3431
-51.9816
-51.6155
-51.2449
-50.8696
-50.4897
-50.1051
-49.716
-49.3222
-48.9238
-48.5207
-48.1131
-47.7008
-47.284
-46.8626
-46.4368
-46.0065
-45.5719
-45.1331
-44.69
-44.2428
-43.7915
-43.336
-42.8766
-42.4131
-41.9457
-41.4743
-40.9989
-40.5196
-40.0363
-39.5492
-39.0581
-38.5632
-38.0643
-37.5615
-37.0548
-36.5441
-36.0296
-35.511
-34.9885
-34.462
-33.9315
-33.3968
-32.8579
-32.3147
-31.7671
-31.2151
-30.6583
-30.0968
-29.5302
-28.9584
-28.381
-27.798
-27.2088
-26.6136
-26.0133
-25.4056
-24.8145
-85.7046
-85.7018
-85.6684
-85.613
-85.5703
-85.5575
-85.5801
-85.638
-85.7269
-85.8412
-85.9749
-86.1217
-86.2735
-86.4207
-86.5533
-86.6615
-86.7364
-86.7707
-86.7591
-86.6983
-86.5899
-86.4396
-86.256
-86.0498
-85.8321
-85.6141
-85.406
-85.22
-85.0658
-84.9486
-84.8661
-84.7456
-84.5871
-84.459
-84.2992
-84.1222
-84.0576
-83.9507
-83.6291
-83.2561
-83.384
-83.4412
-83.1862
-83.0498
-83.1773
-83.5022
-83.9673
-84.521
-85.1274
-85.7571
-86.3846
-86.9855
-87.5365
-88.0168
-88.4104
-88.7062
-88.8983
-88.9857
-88.9714
-88.8606
-88.6605
-88.3769
-88.0173
-87.5888
-87.0988
-86.5551
-85.9654
-85.3372
-84.6774
-83.9921
-83.2867
-82.5654
-81.8318
-81.0884
-80.3366
-79.5771
-78.8099
-78.034
-77.2484
-76.4515
-75.6417
-74.8177
-73.9787
-73.1246
-72.2568
-71.3775
-70.4906
-69.6014
-68.716
-67.8413
-66.9845
-66.1523
-65.3502
-64.5822
-63.8506
-63.1562
-62.4989
-61.8777
-61.291
-60.7378
-60.217
-59.7281
-59.2694
-58.8393
-58.4355
-58.0547
-57.6931
-57.3469
-57.012
-56.685
-56.3626
-56.0424
-55.7224
-55.4012
-55.0775
-54.7507
-54.4201
-54.0854
-53.7464
-53.4029
-53.0549
-52.7024
-52.3453
-51.9836
-51.6173
-51.2465
-50.871
-50.4909
-50.1062
-49.7169
-49.323
-48.9245
-48.5213
-48.1136
-47.7012
-47.2844
-46.8629
-46.4371
-46.0068
-45.5722
-45.1333
-44.6902
-44.2429
-43.7916
-43.3362
-42.8767
-42.4132
-41.9458
-41.4744
-40.999
-40.5197
-40.0364
-39.5493
-39.0582
-38.5632
-38.0643
-37.5615
-37.0548
-36.5441
-36.0296
-35.5111
-34.9886
-34.4621
-33.9315
-33.3969
-32.858
-32.3149
-31.7674
-31.2154
-30.6588
-30.0974
-29.5309
-28.9594
-28.3823
-27.7996
-27.2111
-26.6163
-26.0174
-25.4102
-24.8167
-85.8433
-85.8318
-85.8071
-85.7778
-85.7685
-85.7858
-85.8315
-85.9048
-86.0042
-86.1273
-86.2703
-86.4271
-86.5898
-86.7486
-86.8922
-87.0094
-87.0898
-87.1246
-87.1083
-87.0384
-86.9161
-86.7474
-86.5427
-86.314
-86.0727
-85.83
-85.5929
-85.3653
-85.1485
-84.9411
-84.7457
-84.5569
-84.3912
-84.2508
-84.1465
-84.0737
-83.8188
-83.8645
-83.8918
-83.7251
-83.6651
-83.7442
-83.8397
-83.9925
-84.2408
-84.5891
-85.0263
-85.5307
-86.0787
-86.6452
-87.2055
-87.7361
-88.2159
-88.6275
-88.9579
-89.1979
-89.3417
-89.3871
-89.3358
-89.1917
-88.9603
-88.6469
-88.2578
-87.8005
-87.2832
-86.7141
-86.1012
-85.4523
-84.7746
-84.0744
-83.3571
-82.6271
-81.8876
-81.1409
-80.3883
-79.6301
-78.8659
-78.0946
-77.3145
-76.5238
-75.7203
-74.9025
-74.069
-73.2194
-72.3545
-71.4764
-70.5891
-69.6975
-68.8081
-67.9281
-67.065
-66.2261
-65.4177
-64.6442
-63.908
-63.2101
-62.5498
-61.9256
-61.3359
-60.779
-60.2542
-59.7608
-59.2976
-58.8634
-58.4562
-58.0727
-57.7093
-57.3616
-57.0257
-56.6977
-56.3745
-56.0535
-55.7328
-55.4108
-55.0864
-54.7588
-54.4276
-54.0923
-53.7527
-53.4087
-53.0601
-52.707
-52.3494
-51.9872
-51.6205
-51.2493
-50.8735
-50.4931
-50.1082
-49.7187
-49.3245
-48.9258
-48.5224
-48.1144
-47.7019
-47.2848
-46.8633
-46.4372
-46.0069
-45.5722
-45.1332
-44.6901
-44.2428
-43.7915
-43.336
-42.8766
-42.4131
-41.9457
-41.4743
-40.9989
-40.5196
-40.0363
-39.5492
-39.0581
-38.5632
-38.0643
-37.5615
-37.0548
-36.5442
-36.0297
-35.5112
-34.9888
-34.4623
-33.9318
-33.3972
-32.8585
-32.3155
-31.7681
-31.2163
-30.66
-30.0989
-29.5329
-28.9619
-28.3857
-27.8039
-27.2173
-26.6243
-26.0289
-25.4258
-24.8346
-85.9922
-85.9826
-85.9808
-85.9954
-86.0302
-86.0858
-86.1627
-86.2627
-86.3874
-86.5373
-86.7103
-86.9002
-87.0969
-87.2882
-87.4605
-87.5998
-87.6937
-87.7318
-87.7073
-87.6166
-87.4583
-87.2409
-86.9803
-86.6936
-86.3954
-86.0953
-85.8014
-85.518
-85.2422
-84.9781
-84.7195
-84.4575
-84.2377
-84.0677
-83.812
-83.8393
-83.9118
-83.936
-84.024
-84.1456
-84.2896
-84.4684
-84.6885
-84.9641
-85.2943
-85.6805
-86.12
-86.6028
-87.1132
-87.6313
-88.1358
-88.6058
-89.0229
-89.3717
-89.641
-89.8238
-89.9166
-89.9178
-89.8269
-89.645
-89.3764
-89.0238
-88.5943
-88.097
-87.541
-86.9354
-86.2892
-85.6107
-84.9075
-84.1864
-83.4528
-82.7108
-81.9634
-81.2126
-80.4595
-79.7038
-78.9447
-78.1804
-77.4088
-76.6273
-75.8334
-75.0248
-74.1997
-73.3569
-72.4967
-71.621
-70.7333
-69.8387
-68.9438
-68.0561
-67.1837
-66.335
-65.5171
-64.7354
-63.9927
-63.2899
-62.6259
-61.9985
-61.4049
-60.8431
-60.3128
-59.8123
-59.342
-58.9014
-58.4888
-58.1011
-57.7344
-57.3843
-57.0465
-56.7169
-56.3923
-56.0699
-55.7479
-55.4245
-55.0989
-54.7702
-54.4378
-54.1015
-53.7611
-53.4162
-53.067
-52.7132
-52.355
-51.9923
-51.6252
-51.2535
-50.8773
-50.4966
-50.1113
-49.7215
-49.3271
-48.9281
-48.5245
-48.1163
-47.7036
-47.2864
-46.8646
-46.4385
-46.008
-45.5732
-45.1341
-44.6909
-44.2436
-43.7921
-43.3366
-42.8771
-42.4136
-41.9461
-41.4747
-40.9993
-40.5199
-40.0367
-39.5495
-39.0584
-38.5634
-38.0645
-37.5617
-37.055
-36.5444
-36.0299
-35.5114
-34.989
-34.4626
-33.9322
-33.3977
-32.859
-32.3161
-31.769
-31.2174
-30.6613
-30.1006
-29.5351
-28.9647
-28.3895
-27.8088
-27.2238
-26.6329
-26.0403
-25.4417
-24.8522
-86.1427
-86.1562
-86.2012
-86.2681
-86.3501
-86.4478
-86.5659
-86.7098
-86.8842
-87.0905
-87.3253
-87.5789
-87.8376
-88.0856
-88.3064
-88.4839
-88.603
-88.65
-88.6144
-88.49
-88.2749
-87.9799
-87.6276
-87.243
-86.8484
-86.4634
-86.0967
-85.749
-85.4205
-85.1038
-84.7989
-84.5078
-84.2238
-84.0572
-83.9781
-83.9761
-84.1117
-84.3014
-84.5305
-84.7853
-85.0562
-85.3324
-85.629
-85.959
-86.3287
-86.7366
-87.1781
-87.644
-88.1212
-88.594
-89.045
-89.4582
-89.8193
-90.1167
-90.3407
-90.4846
-90.5435
-90.5133
-90.3911
-90.1762
-89.8702
-89.4737
-88.9982
-88.454
-87.8513
-87.2007
-86.5127
-85.797
-85.062
-84.3148
-83.5613
-82.8054
-82.0498
-81.2957
-80.5432
-79.7918
-79.0399
-78.2849
-77.524
-76.754
-75.9717
-75.1744
-74.3597
-73.5257
-72.6721
-71.8001
-70.9129
-70.0156
-69.1148
-68.2182
-67.3347
-66.4735
-65.6434
-64.8509
-64.0996
-63.3907
-62.7229
-62.0926
-61.496
-60.9299
-60.3928
-59.8842
-59.405
-58.9556
-58.5353
-58.1415
-57.7701
-57.4165
-57.0758
-56.7439
-56.4172
-56.0928
-55.7689
-55.4438
-55.1164
-54.7861
-54.4523
-54.1145
-53.7727
-53.4267
-53.0764
-52.7217
-52.3627
-51.9992
-51.6314
-51.2591
-50.8824
-50.5012
-50.1155
-49.7254
-49.3306
-48.9314
-48.5275
-48.1191
-47.7061
-47.2886
-46.8666
-46.4402
-46.0095
-45.5745
-45.1353
-44.692
-44.2445
-43.793
-43.3374
-42.8779
-42.4143
-41.9467
-41.4752
-40.9998
-40.5204
-40.0371
-39.5498
-39.0587
-38.5637
-38.0648
-37.5619
-37.0552
-36.5446
-36.0301
-35.5117
-34.9893
-34.4629
-33.9326
-33.3981
-32.8596
-32.3169
-31.7699
-31.2185
-30.6628
-30.1024
-29.5375
-28.9678
-28.3934
-27.814
-27.2305
-26.6419
-26.0515
-25.4573
-24.8688
-86.3595
-86.4045
-86.4985
-86.6066
-86.7277
-86.8682
-87.0367
-87.2414
-87.488
-87.776
-88.0964
-88.4331
-88.7675
-89.082
-89.3602
-89.5854
-89.7394
-89.8038
-89.7625
-89.605
-89.3276
-88.9431
-88.4809
-87.9774
-87.4672
-86.9742
-86.5159
-86.1013
-85.7197
-85.3657
-85.0349
-84.7186
-84.4764
-84.3416
-84.34
-84.4626
-84.6846
-84.9639
-85.2688
-85.5818
-85.8999
-86.2208
-86.5524
-86.9026
-87.2783
-87.6798
-88.1036
-88.5414
-88.9824
-89.4138
-89.823
-90.1981
-90.5285
-90.8043
-91.0155
-91.1513
-91.2014
-91.1572
-91.0127
-90.7654
-90.4151
-89.9743
-89.449
-88.8507
-88.1931
-87.4896
-86.7529
-85.9939
-85.2219
-84.4446
-83.668
-82.8966
-82.1324
-81.3759
-80.626
-79.881
-79.1382
-78.3944
-77.6456
-76.8882
-76.1189
-75.3344
-74.532
-73.7094
-72.8653
-72.0002
-71.1168
-70.2199
-69.3158
-68.4122
-67.5178
-66.6423
-65.7961
-64.988
-64.2236
-63.5052
-62.8315
-62.1984
-61.6002
-61.0314
-60.4893
-59.9735
-59.4851
-59.0259
-58.5964
-58.1947
-57.817
-57.4584
-57.1138
-56.7786
-56.4489
-56.1218
-55.7953
-55.4678
-55.1382
-54.8059
-54.4701
-54.1306
-53.7872
-53.4396
-53.0879
-52.7319
-52.3718
-52.0074
-51.6387
-51.2657
-50.8884
-50.5068
-50.1207
-49.7301
-49.335
-48.9354
-48.5313
-48.1226
-47.7093
-47.2915
-46.8693
-46.4427
-46.0117
-45.5765
-45.1372
-44.6937
-44.2461
-43.7944
-43.3387
-42.879
-42.4154
-41.9477
-41.4761
-41.0006
-40.5211
-40.0378
-39.5505
-39.0593
-38.5642
-38.0652
-37.5623
-37.0556
-36.5449
-36.0304
-35.512
-34.9896
-34.4633
-33.933
-33.3986
-32.8602
-32.3176
-31.7708
-31.2197
-30.6643
-30.1044
-29.54
-28.9709
-28.3975
-27.8192
-27.2371
-26.6507
-26.0622
-25.4714
-24.884
-86.6932
-86.7571
-86.8715
-86.9989
-87.1466
-87.3249
-87.5437
-87.8125
-88.1335
-88.4987
-88.8894
-89.2848
-89.6673
-90.0247
-90.3471
-90.6198
-90.8213
-90.9247
-90.9024
-90.7367
-90.4229
-89.9739
-89.4223
-88.812
-88.1917
-87.6042
-87.0712
-86.5928
-86.1712
-85.7985
-85.4597
-85.1793
-84.9931
-84.9329
-85.0124
-85.2028
-85.4625
-85.7611
-86.0739
-86.3884
-86.7028
-87.0212
-87.351
-87.6978
-88.0657
-88.4547
-88.8624
-89.2832
-89.7098
-90.1341
-90.5462
-90.9355
-91.2892
-91.5927
-91.8298
-91.9831
-92.0369
-91.9796
-91.8049
-91.511
-91.1025
-90.5897
-89.9868
-89.3105
-88.5779
-87.8051
-87.007
-86.1959
-85.3815
-84.5715
-83.7709
-82.9831
-82.2096
-81.4503
-80.7036
-79.9667
-79.2355
-78.5049
-77.7699
-77.0261
-76.2699
-75.4984
-74.7088
-73.8984
-73.0653
-72.2094
-71.3331
-70.4405
-69.5376
-68.6311
-67.7287
-66.8398
-65.9752
-65.1471
-64.3649
-63.6328
-62.9507
-62.312
-61.7103
-61.139
-60.5937
-60.0728
-59.5773
-59.1095
-58.671
-58.2608
-57.8758
-57.5111
-57.1613
-56.8215
-56.4878
-56.1571
-55.8273
-55.4968
-55.1645
-54.8296
-54.4916
-54.15
-53.8047
-53.4553
-53.1019
-52.7444
-52.3829
-52.0172
-51.6475
-51.2736
-50.8956
-50.5133
-50.1267
-49.7358
-49.3404
-48.9404
-48.536
-48.127
-47.7134
-47.2953
-46.8728
-46.4458
-46.0146
-45.5792
-45.1395
-44.6958
-44.248
-43.7962
-43.3404
-42.8805
-42.4167
-41.949
-41.4773
-41.0016
-40.5221
-40.0386
-39.5512
-39.0599
-38.5648
-38.0657
-37.5628
-37.056
-36.5453
-36.0308
-35.5123
-34.9899
-34.4637
-33.9334
-33.3991
-32.8608
-32.3184
-31.7718
-31.2209
-30.6658
-30.1063
-29.5425
-28.9741
-28.4015
-27.8244
-27.2436
-26.659
-26.0724
-25.484
-24.8976
-87.0873
-87.1539
-87.2604
-87.3904
-87.5532
-87.7576
-88.0143
-88.3301
-88.7006
-89.1071
-89.5272
-89.9432
-90.3444
-90.7265
-91.0833
-91.3976
-91.6394
-91.7757
-91.7756
-91.6164
-91.2879
-90.8078
-90.2148
-89.559
-88.8921
-88.255
-87.6802
-87.1819
-86.7569
-86.379
-86.0676
-85.8322
-85.7059
-85.7057
-85.8174
-86.0135
-86.2629
-86.5374
-86.8192
-87.1028
-87.3911
-87.6913
-88.0111
-88.3567
-88.7304
-89.1322
-89.559
-90.0063
-90.4671
-90.933
-91.3934
-91.8342
-92.2378
-92.5842
-92.8519
-93.02
-93.0715
-92.9936
-92.7782
-92.4247
-91.9374
-91.3327
-90.6316
-89.8566
-89.0293
-88.17
-87.2959
-86.4206
-85.5542
-84.7035
-83.873
-83.065
-82.2803
-81.518
-80.7751
-80.047
-79.3276
-78.6104
-77.889
-77.1578
-76.4127
-75.651
-74.8703
-74.0682
-73.2431
-72.3947
-71.5254
-70.6397
-69.7433
-68.8417
-67.9406
-67.0469
-66.1699
-65.3226
-64.5201
-63.7716
-63.0782
-62.4331
-61.8275
-61.253
-60.7039
-60.1781
-59.6766
-59.202
-58.7561
-58.3384
-57.946
-57.5745
-57.2184
-56.8729
-56.534
-56.1986
-55.8646
-55.5304
-55.1948
-54.857
-54.5163
-54.1724
-53.8248
-53.4735
-53.1182
-52.7589
-52.3958
-52.0286
-51.6576
-51.2826
-50.9036
-50.5206
-50.1334
-49.742
-49.3463
-48.9461
-48.5413
-48.132
-47.7182
-47.2998
-46.8769
-46.4496
-46.0181
-45.5823
-45.1424
-44.6985
-44.2504
-43.7984
-43.3424
-42.8824
-42.4185
-41.9506
-41.4787
-41.003
-40.5233
-40.0397
-39.5522
-39.0608
-38.5655
-38.0664
-37.5634
-37.0565
-36.5458
-36.0312
-35.5127
-34.9903
-34.4641
-33.9339
-33.3997
-32.8615
-32.3192
-31.7728
-31.2222
-30.6674
-30.1083
-29.545
-28.9773
-28.4055
-27.8295
-27.2499
-26.667
-26.0818
-25.4954
-24.9098
-87.4297
-87.4897
-87.5836
-87.7088
-87.8754
-88.0907
-88.3651
-88.7016
-89.0889
-89.5036
-89.9255
-90.3418
-90.7493
-91.1493
-91.5376
-91.8913
-92.1684
-92.3255
-92.3302
-92.1643
-91.8262
-91.3382
-90.7396
-90.0839
-89.4287
-88.7903
-88.2481
-87.7762
-87.3659
-87.0194
-86.7392
-86.543
-86.4539
-86.4717
-86.5792
-86.754
-86.9689
-87.2012
-87.4418
-87.6918
-87.9588
-88.2519
-88.5784
-88.9423
-89.3447
-89.7845
-90.2583
-90.7605
-91.2834
-91.8164
-92.3463
-92.8565
-93.3259
-93.7301
-94.0423
-94.2363
-94.2897
-94.1872
-93.9217
-93.4948
-92.9177
-92.2094
-91.3945
-90.5014
-89.5597
-88.5953
-87.6289
-86.6761
-85.7474
-84.8493
-83.9845
-83.1534
-82.355
-81.5866
-80.8443
-80.1221
-79.4122
-78.7062
-77.9955
-77.2738
-76.5369
-75.7824
-75.0087
-74.214
-73.3966
-72.5561
-71.6949
-70.8176
-69.9306
-69.0394
-68.1476
-67.2588
-66.3789
-65.518
-64.6969
-63.9267
-63.2143
-62.5579
-61.9482
-61.3726
-60.8215
-60.2911
-59.7833
-59.3021
-58.8499
-58.4258
-58.0266
-57.6479
-57.2848
-56.9327
-56.5875
-56.2464
-55.9073
-55.5686
-55.229
-54.8878
-54.5441
-54.1975
-53.8476
-53.494
-53.1366
-52.7755
-52.4105
-52.0418
-51.6692
-51.2929
-50.9128
-50.5288
-50.1409
-49.7489
-49.3527
-48.9522
-48.5472
-48.1377
-47.7235
-47.3048
-46.8816
-46.4541
-46.0222
-45.5861
-45.1459
-44.7016
-44.2533
-43.8011
-43.3448
-42.8846
-42.4205
-41.9524
-41.4804
-41.0045
-40.5247
-40.0409
-39.5533
-39.0618
-38.5664
-38.0672
-37.564
-37.0571
-36.5463
-36.0316
-35.5131
-34.9907
-34.4645
-33.9343
-33.4002
-32.8621
-32.32
-31.7738
-31.2234
-30.669
-30.1103
-29.5475
-28.9805
-28.4094
-27.8345
-27.256
-26.6744
-26.0906
-25.5056
-24.9208
-87.652
-87.7036
-87.787
-87.9032
-88.0639
-88.276
-88.5485
-88.8823
-89.2598
-89.6569
-90.0573
-90.4504
-90.8362
-91.2194
-91.5948
-91.9468
-92.2254
-92.3861
-92.3914
-92.2282
-91.9025
-91.4418
-90.8877
-90.2924
-89.7066
-89.1644
-88.6839
-88.2637
-87.899
-87.587
-87.3336
-87.1633
-87.0885
-87.1048
-87.1978
-87.3453
-87.5234
-87.718
-87.9278
-88.159
-88.422
-88.7258
-89.0756
-89.4736
-89.9197
-90.412
-90.947
-91.5194
-92.1214
-92.7422
-93.367
-93.9763
-94.545
-95.0423
-95.4329
-95.681
-95.7554
-95.635
-95.3107
-94.7925
-94.0972
-93.2502
-92.2859
-91.2431
-90.1597
-89.0686
-87.9947
-86.9548
-85.9582
-85.0091
-84.1079
-83.2527
-82.4401
-81.6655
-80.9226
-80.2038
-79.5
-78.8011
-78.0976
-77.3824
-76.6514
-75.9031
-75.1369
-74.3511
-73.5437
-72.7131
-71.8605
-70.9912
-70.1133
-69.2344
-68.3576
-67.4822
-66.6065
-65.7381
-64.896
-64.0997
-63.3633
-62.689
-62.0686
-61.4893
-60.9385
-60.4077
-59.8965
-59.4095
-58.9512
-58.5213
-58.1159
-57.7303
-57.3597
-57
-56.6477
-56.3
-55.955
-55.6111
-55.2671
-54.922
-54.5749
-54.2253
-53.8726
-53.5166
-53.1571
-52.7938
-52.427
-52.0564
-51.6822
-51.3045
-50.9231
-50.538
-50.1491
-49.7564
-49.3596
-48.9587
-48.5534
-48.1436
-47.7293
-47.3104
-46.8869
-46.459
-46.0268
-45.5903
-45.1498
-44.7052
-44.2566
-43.8041
-43.3476
-42.8872
-42.4229
-41.9546
-41.4824
-41.0063
-40.5263
-40.0424
-39.5546
-39.063
-38.5674
-38.068
-37.5648
-37.0577
-36.5468
-36.0321
-35.5136
-34.9912
-34.4649
-33.9348
-33.4007
-32.8627
-32.3207
-31.7747
-31.2247
-30.6705
-30.1123
-29.5499
-28.9836
-28.4133
-27.8392
-27.2618
-26.6813
-26.0987
-25.5148
-24.9306
-87.7358
-87.7794
-87.8521
-87.9552
-88.1021
-88.2992
-88.5544
-88.8684
-89.2188
-89.581
-89.9387
-90.28
-90.6046
-90.9173
-91.2193
-91.4951
-91.7107
-91.8256
-91.8129
-91.6743
-91.4121
-91.0476
-90.6169
-90.1618
-89.7165
-89.2991
-88.9162
-88.5665
-88.2464
-87.9602
-87.7316
-87.5832
-87.5222
-87.5424
-87.6279
-87.7565
-87.9105
-88.0835
-88.2798
-88.5093
-88.7834
-89.1096
-89.492
-89.9318
-90.4293
-90.9838
-91.5934
-92.2545
-92.9608
-93.7023
-94.4635
-95.2208
-95.9408
-96.5806
-97.0908
-97.4209
-97.5286
-97.3898
-96.9973
-96.3647
-95.5155
-94.4876
-93.3296
-92.0947
-90.8328
-89.5857
-88.3828
-87.2417
-86.1706
-85.1704
-84.2361
-83.3607
-82.5369
-81.7576
-81.0149
-80.2999
-79.6018
-78.9088
-78.2097
-77.4965
-76.7661
-76.0181
-75.2535
-74.4714
-73.6698
-72.8448
-71.9972
-71.1324
-70.2608
-69.392
-68.5301
-67.6725
-66.8136
-65.9542
-65.1059
-64.2891
-63.524
-62.8239
-62.1875
-61.6019
-61.0509
-60.5221
-60.0112
-59.5216
-59.0583
-58.6226
-58.2112
-57.8189
-57.441
-57.0735
-56.7135
-56.3588
-56.0072
-55.6576
-55.3086
-54.9592
-54.6085
-54.2556
-53.9
-53.5413
-53.1793
-52.8139
-52.445
-52.0725
-51.6966
-51.3172
-50.9344
-50.5481
-50.1582
-49.7646
-49.3671
-48.9656
-48.5599
-48.1499
-47.7353
-47.3162
-46.8925
-46.4643
-46.0318
-45.595
-45.1541
-44.7092
-44.2603
-43.8075
-43.3508
-42.8901
-42.4255
-41.9571
-41.4847
-41.0084
-40.5282
-40.0441
-39.5561
-39.0643
-38.5686
-38.0691
-37.5657
-37.0585
-36.5475
-36.0327
-35.514
-34.9916
-34.4653
-33.9352
-33.4012
-32.8633
-32.3215
-31.7757
-31.2259
-30.672
-30.1142
-29.5523
-28.9865
-28.4169
-27.8437
-27.2672
-26.6878
-26.1062
-25.5231
-24.9393
-87.6853
-87.7211
-87.7816
-87.8694
-87.9957
-88.1699
-88.3988
-88.6822
-89
-89.3272
-89.6454
-89.9395
-90.2029
-90.4364
-90.6411
-90.8099
-90.9251
-90.9713
-90.9431
-90.8356
-90.6542
-90.4137
-90.1342
-89.8344
-89.5271
-89.2189
-88.9128
-88.6099
-88.3183
-88.0624
-87.8707
-87.7588
-87.7279
-87.7681
-87.8609
-87.9865
-88.1335
-88.3017
-88.4994
-88.7396
-89.0336
-89.3883
-89.8074
-90.2935
-90.8493
-91.4772
-92.1782
-92.9518
-93.7943
-94.6967
-95.6412
-96.5969
-97.5176
-98.3428
-99.0045
-99.4375
-99.5899
-99.4335
-98.9639
-98.1938
-97.1581
-95.9118
-94.5213
-93.0565
-91.5821
-90.1505
-88.7966
-87.5386
-86.3837
-85.3291
-84.3634
-83.4713
-82.6391
-81.8571
-81.1164
-80.407
-79.7163
-79.0311
-78.3358
-77.621
-76.8839
-76.1271
-75.3542
-74.5664
-73.7613
-72.9356
-72.0886
-71.2251
-70.3552
-69.4892
-68.6328
-67.7852
-66.9416
-66.1017
-65.2717
-64.4638
-63.6948
-62.9793
-62.3233
-61.7217
-61.1629
-60.634
-60.1257
-59.6364
-59.1696
-58.7279
-58.3098
-57.9107
-57.5255
-57.1506
-56.7832
-56.4213
-56.0633
-55.7076
-55.3533
-54.9992
-54.6445
-54.2882
-53.9295
-53.568
-53.2034
-52.8356
-52.4645
-52.09
-51.7122
-51.3311
-50.9468
-50.5591
-50.168
-49.7734
-49.3751
-48.973
-48.5668
-48.1563
-47.7415
-47.3221
-46.8983
-46.4699
-46.0371
-45.6
-45.1588
-44.7136
-44.2644
-43.8113
-43.3543
-42.8933
-42.4285
-41.9598
-41.4872
-41.0107
-40.5303
-40.046
-39.5578
-39.0658
-38.5699
-38.0702
-37.5666
-37.0593
-36.5482
-36.0332
-35.5145
-34.992
-34.4658
-33.9357
-33.4017
-32.8639
-32.3222
-31.7766
-31.227
-30.6735
-30.116
-29.5546
-28.9894
-28.4204
-27.8479
-27.2723
-26.6937
-26.113
-25.5306
-24.9472
-87.531
-87.5586
-87.6036
-87.6711
-87.7704
-87.9134
-88.1072
-88.3526
-88.6346
-88.9293
-89.2186
-89.4849
-89.7155
-89.9052
-90.0534
-90.158
-90.2119
-90.2382
-90.2097
-90.1289
-90.0012
-89.8344
-89.6357
-89.4109
-89.1644
-88.9004
-88.6224
-88.343
-88.0877
-87.8849
-87.7539
-87.7004
-87.719
-87.7957
-87.911
-88.0491
-88.2039
-88.3799
-88.5893
-88.8471
-89.165
-89.5503
-90.0077
-90.5428
-91.1628
-91.8739
-92.6813
-93.5876
-94.5918
-95.6847
-96.8431
-98.0252
-99.1684
-100.194
-101.015
-101.553
-101.751
-101.576
-101.022
-100.112
-98.888
-97.4177
-95.7844
-94.0768
-92.3755
-90.7448
-89.2276
-87.8443
-86.6002
-85.4883
-84.493
-83.5889
-82.7516
-81.9657
-81.2231
-80.5176
-79.8353
-79.1631
-78.4779
-77.7653
-77.0209
-76.2506
-75.4632
-74.6636
-73.8504
-73.0195
-72.1693
-71.3037
-70.4317
-69.5632
-68.7035
-67.8523
-67.0086
-66.179
-65.3747
-64.5997
-63.8547
-63.1461
-62.4823
-61.8654
-61.2914
-60.7522
-60.2399
-59.7499
-59.2813
-58.8347
-58.4097
-58.0032
-57.6109
-57.229
-56.8547
-56.4862
-56.122
-55.7606
-55.4009
-55.042
-54.6829
-54.3229
-53.9609
-53.5965
-53.2292
-52.8589
-52.4854
-52.1088
-51.7291
-51.3462
-50.9601
-50.571
-50.1786
-49.7829
-49.3838
-48.9809
-48.574
-48.1631
-47.7478
-47.3282
-46.9041
-46.4755
-46.0425
-45.6052
-45.1637
-44.7182
-44.2688
-43.8154
-43.3581
-42.8969
-42.4318
-41.9628
-41.49
-41.0132
-40.5326
-40.0481
-39.5597
-39.0674
-38.5713
-38.0714
-37.5677
-37.0602
-36.5489
-36.0338
-35.515
-34.9925
-34.4662
-33.9361
-33.4022
-32.8645
-32.3229
-31.7775
-31.2281
-30.6749
-30.1178
-29.5568
-28.9921
-28.4237
-27.8519
-27.2769
-26.6992
-26.1192
-25.5373
-24.9543
-87.3219
-87.3384
-87.3623
-87.4032
-87.4687
-87.5721
-87.7213
-87.9192
-88.1568
-88.4133
-88.6711
-88.9141
-89.1273
-89.303
-89.4392
-89.5378
-89.6021
-89.603
-89.5635
-89.4821
-89.3602
-89.2009
-89.0089
-88.7894
-88.547
-88.2893
-88.0321
-87.7983
-87.6116
-87.4892
-87.4386
-87.4579
-87.5372
-87.6598
-87.8074
-87.968
-88.1404
-88.3323
-88.5588
-88.8368
-89.179
-89.5936
-90.0872
-90.6695
-91.3531
-92.149
-93.0652
-94.1072
-95.2744
-96.5555
-97.9211
-99.3175
-100.667
-101.875
-102.842
-103.479
-103.722
-103.538
-102.923
-101.899
-100.51
-98.8374
-96.9797
-95.045
-93.1308
-91.3114
-89.6399
-88.1397
-86.8147
-85.6507
-84.6289
-83.7171
-82.8801
-82.0928
-81.3435
-80.6291
-79.9469
-79.2844
-78.6159
-77.9178
-77.1782
-76.4037
-75.6084
-74.8014
-73.9818
-73.1434
-72.2829
-71.4049
-70.5213
-69.6449
-68.7814
-67.9271
-67.0797
-66.2504
-65.4564
-64.7043
-63.988
-63.3028
-62.6477
-62.0241
-61.4352
-60.8813
-60.3586
-59.8627
-59.3905
-58.9398
-58.5089
-58.0956
-57.6964
-57.3078
-56.927
-56.5524
-56.1825
-55.8158
-55.451
-55.0872
-54.7236
-54.3596
-53.9942
-53.6266
-53.2565
-52.8836
-52.5077
-52.1289
-51.7471
-51.3623
-50.9745
-50.5837
-50.19
-49.7931
-49.3929
-48.9892
-48.5817
-48.1702
-47.7544
-47.3344
-46.91
-46.4811
-46.0479
-45.6104
-45.1688
-44.7231
-44.2733
-43.8197
-43.3622
-42.9007
-42.4354
-41.9661
-41.493
-41.016
-40.5351
-40.0504
-39.5617
-39.0692
-38.5729
-38.0728
-37.5688
-37.0611
-36.5497
-36.0345
-35.5156
-34.9929
-34.4666
-33.9365
-33.4026
-32.865
-32.3235
-31.7783
-31.2291
-30.6762
-30.1194
-29.5588
-28.9946
-28.4267
-27.8556
-27.2813
-26.7042
-26.1248
-25.5434
-24.9606
-87.1098
-87.1115
-87.1084
-87.1178
-87.1449
-87.2027
-87.2982
-87.4371
-87.6151
-87.8156
-88.0221
-88.2209
-88.3981
-88.5441
-88.6534
-88.7232
-88.7524
-88.7371
-88.6809
-88.5862
-88.4545
-88.2888
-88.0938
-87.8776
-87.6526
-87.4343
-87.2412
-87.0911
-86.9979
-86.9687
-87.0039
-87.0976
-87.2373
-87.4065
-87.589
-87.7766
-87.9711
-88.1824
-88.4274
-88.7237
-89.0857
-89.5239
-90.0473
-90.6687
-91.4055
-92.2735
-93.2826
-94.4394
-95.7423
-97.1772
-98.7085
-100.273
-101.782
-103.127
-104.204
-104.917
-105.195
-104.991
-104.356
-103.249
-101.737
-99.9155
-97.8936
-95.7917
-93.7217
-91.7616
-89.9773
-88.3885
-87.0038
-85.8065
-84.7681
-83.8555
-83.0277
-82.2474
-81.4919
-80.7562
-80.0477
-79.369
-78.7031
-78.0204
-77.297
-76.5325
-75.7451
-74.9496
-74.1448
-73.3161
-72.4512
-71.5539
-70.6445
-69.7472
-68.8751
-68.023
-67.1805
-66.357
-65.5756
-64.8384
-64.1296
-63.4477
-62.7983
-62.1773
-61.582
-61.0162
-60.4818
-59.977
-59.4985
-59.043
-58.607
-58.1879
-57.7824
-57.3875
-57.0007
-56.6201
-56.2446
-55.8727
-55.503
-55.1344
-54.7664
-54.3981
-54.029
-53.6582
-53.2852
-52.9095
-52.5312
-52.1501
-51.7661
-51.3794
-50.9898
-50.5973
-50.2021
-49.8039
-49.4027
-48.998
-48.5898
-48.1776
-47.7612
-47.3407
-46.9159
-46.4867
-46.0533
-45.6157
-45.1738
-44.728
-44.2781
-43.8242
-43.3665
-42.9048
-42.4392
-41.9697
-41.4963
-41.019
-40.5379
-40.0528
-39.5639
-39.0712
-38.5746
-38.0742
-37.57
-37.0621
-36.5505
-36.0351
-35.5161
-34.9934
-34.467
-33.9368
-33.403
-32.8655
-32.3241
-31.779
-31.2301
-30.6774
-30.1209
-29.5607
-28.9969
-28.4296
-27.8589
-27.2852
-26.7087
-26.1298
-25.5489
-24.9663
-86.937
-86.9227
-86.8926
-86.8698
-86.859
-86.8703
-86.9082
-86.9787
-87.0812
-87.2044
-87.3324
-87.4532
-87.5562
-87.6321
-87.6754
-87.6847
-87.656
-87.5953
-87.5057
-87.3906
-87.2534
-87.0991
-86.9339
-86.7669
-86.61
-86.477
-86.3809
-86.3325
-86.3382
-86.3997
-86.5139
-86.6732
-86.8651
-87.075
-87.29
-87.5047
-87.7224
-87.9538
-88.2162
-88.5276
-88.9017
-89.3536
-89.895
-90.5414
-91.3131
-92.2287
-93.2995
-94.5318
-95.9211
-97.449
-99.075
-100.731
-102.32
-103.732
-104.858
-105.609
-105.919
-105.759
-105.054