/*--------------------------------*- C++ -*----------------------------------*\
  =========                 |
  \\      /  F ield         | OpenFOAM: The Open Source CFD Toolbox
   \\    /   O peration     | Website:  https://openfoam.org
    \\  /    A nd           | Version:  7
     \\/     M anipulation  |
\*---------------------------------------------------------------------------*/
FoamFile
{
    version     2.0;
    format      ascii;
    class       surfaceScalarField;
    location    "0.055";
    object      phi_0;
}
// * * * * * * * * * * * * * * * * * * * * * * * * * * * * * * * * * * * * * //

dimensions      [0 3 -1 0 0 0 0];

internalField   nonuniform List<scalar> 
24170
(
1.40353e-06
2.54398e-07
1.24942e-06
1.54113e-07
1.10265e-06
1.46774e-07
9.77092e-07
1.25555e-07
8.72872e-07
1.04221e-07
7.80457e-07
9.24142e-08
6.92343e-07
8.8114e-08
6.04283e-07
8.80609e-08
5.17066e-07
8.72161e-08
4.3614e-07
8.09265e-08
3.66746e-07
6.93936e-08
3.11242e-07
5.55047e-08
2.68113e-07
4.31282e-08
2.33859e-07
3.42543e-08
2.04737e-07
2.91222e-08
1.79394e-07
2.5343e-08
1.57744e-07
2.16504e-08
1.1109e-08
1.46635e-07
1.67554e-06
3.20428e-07
1.6585e-06
1.71156e-07
1.62908e-06
1.76195e-07
1.58571e-06
1.68922e-07
1.53697e-06
1.52963e-07
1.4879e-06
1.41487e-07
1.43996e-06
1.36055e-07
1.39092e-06
1.371e-07
1.33844e-06
1.3969e-07
1.28419e-06
1.35174e-07
1.23211e-06
1.21481e-07
1.18406e-06
1.03551e-07
1.13852e-06
8.86667e-08
1.09237e-06
8.04044e-08
1.04485e-06
7.66461e-08
9.98585e-07
7.16069e-08
9.5379e-07
6.64453e-08
5.33114e-08
9.11588e-07
1.82631e-06
3.80324e-07
1.79542e-06
2.02041e-07
1.7813e-06
1.90322e-07
1.76916e-06
1.81054e-07
1.75374e-06
1.68392e-07
1.73747e-06
1.57755e-07
1.72298e-06
1.50537e-07
1.70982e-06
1.50268e-07
1.695e-06
1.54504e-07
1.67658e-06
1.53597e-07
1.65562e-06
1.42437e-07
1.63427e-06
1.24907e-07
1.61366e-06
1.09269e-07
1.59388e-06
1.00193e-07
1.57365e-06
9.68728e-08
1.55247e-06
9.27837e-08
1.52999e-06
8.89297e-08
8.04601e-08
1.50284e-06
1.94243e-06
3.7055e-07
1.90816e-06
2.36312e-07
1.89727e-06
2.01214e-07
1.89622e-06
1.821e-07
1.89193e-06
1.72683e-07
1.88296e-06
1.66729e-07
1.87247e-06
1.61022e-07
1.86402e-06
1.58717e-07
1.8584e-06
1.60128e-07
1.854e-06
1.57989e-07
1.84914e-06
1.47298e-07
1.8434e-06
1.3065e-07
1.83741e-06
1.15264e-07
1.83202e-06
1.05577e-07
1.82717e-06
1.01727e-07
1.82125e-06
9.87004e-08
1.81391e-06
9.62657e-08
9.19645e-08
1.80241e-06
2.08491e-06
3.16126e-07
2.04263e-06
2.78584e-07
2.03117e-06
2.12682e-07
2.0368e-06
1.76468e-07
2.04221e-06
1.67277e-07
2.03858e-06
1.70353e-07
2.02567e-06
1.73939e-07
2.0106e-06
1.73777e-07
2.00073e-06
1.69999e-07
1.99776e-06
1.60968e-07
1.9986e-06
1.46452e-07
1.99932e-06
1.29936e-07
1.99796e-06
1.16617e-07
1.99461e-06
1.08934e-07
1.99036e-06
1.05972e-07
1.98507e-06
1.03998e-07
1.97933e-06
1.02e-07
9.92826e-08
1.97201e-06
2.22261e-06
3.68625e-07
2.19709e-06
3.04105e-07
2.20085e-06
2.08926e-07
2.21449e-06
1.62825e-07
2.21988e-06
1.61893e-07
2.21055e-06
1.79677e-07
2.19124e-06
1.9325e-07
2.17162e-06
1.93399e-07
2.15889e-06
1.82729e-07
2.15383e-06
1.66023e-07
2.15292e-06
1.47363e-07
2.15226e-06
1.30597e-07
2.15026e-06
1.18618e-07
2.14734e-06
1.11852e-07
2.14472e-06
1.08591e-07
2.14258e-06
1.06141e-07
2.14101e-06
1.0357e-07
1.01277e-07
2.13901e-06
2.38829e-06
4.01491e-07
2.36544e-06
3.26956e-07
2.35583e-06
2.18538e-07
2.35838e-06
1.60278e-07
2.36258e-06
1.5769e-07
2.36086e-06
1.814e-07
2.35454e-06
1.99561e-07
2.34858e-06
1.99367e-07
2.3453e-06
1.86005e-07
2.34299e-06
1.68336e-07
2.33871e-06
1.51639e-07
2.33118e-06
1.3813e-07
2.32171e-06
1.28088e-07
2.31279e-06
1.20767e-07
2.30648e-06
1.14909e-07
2.30298e-06
1.09635e-07
2.30162e-06
1.04934e-07
1.01923e-07
2.30097e-06
2.54767e-06
4.09501e-07
2.58578e-06
2.88845e-07
2.58304e-06
2.21284e-07
2.5621e-06
1.81208e-07
2.54511e-06
1.74684e-07
2.53843e-06
1.8808e-07
2.53966e-06
1.98334e-07
2.54437e-06
1.9466e-07
2.54819e-06
1.82176e-07
2.54766e-06
1.68868e-07
2.54143e-06
1.57875e-07
2.53071e-06
1.48847e-07
2.51835e-06
1.40446e-07
2.50713e-06
1.31985e-07
2.49862e-06
1.23421e-07
2.49283e-06
1.15428e-07
2.48892e-06
1.08839e-07
1.04771e-07
2.48608e-06
2.80642e-06
5.13978e-07
2.7635e-06
3.31768e-07
2.74089e-06
2.43897e-07
2.71511e-06
2.06989e-07
2.69861e-06
1.9118e-07
2.69715e-06
1.89545e-07
2.70459e-06
1.90892e-07
2.71236e-06
1.86886e-07
2.71633e-06
1.78205e-07
2.71676e-06
1.6844e-07
2.71554e-06
1.59099e-07
2.71425e-06
1.5013e-07
2.71355e-06
1.41151e-07
2.71315e-06
1.32385e-07
2.71243e-06
1.2414e-07
2.71078e-06
1.17075e-07
2.70795e-06
1.11676e-07
1.0786e-07
2.70486e-06
2.98786e-06
5.09275e-07
2.9618e-06
3.5782e-07
2.9282e-06
2.77501e-07
2.91074e-06
2.2445e-07
2.9122e-06
1.89718e-07
2.92031e-06
1.81438e-07
2.92472e-06
1.86479e-07
2.92415e-06
1.8746e-07
2.92356e-06
1.78787e-07
2.92761e-06
1.64394e-07
2.93687e-06
1.49839e-07
2.94833e-06
1.38668e-07
2.95773e-06
1.31754e-07
2.96148e-06
1.28635e-07
2.95814e-06
1.27476e-07
2.94844e-06
1.26777e-07
2.93464e-06
1.25473e-07
1.22756e-07
2.91975e-06
3.16319e-06
4.49776e-07
3.20122e-06
3.19795e-07
3.18951e-06
2.89211e-07
3.17079e-06
2.43164e-07
3.15636e-06
2.04151e-07
3.14855e-06
1.89251e-07
3.14756e-06
1.87471e-07
3.15101e-06
1.84003e-07
3.15581e-06
1.73985e-07
3.15963e-06
1.60575e-07
3.16148e-06
1.47992e-07
3.16155e-06
1.38602e-07
3.1604e-06
1.32903e-07
3.15847e-06
1.30563e-07
3.15563e-06
1.3032e-07
3.15197e-06
1.30437e-07
3.14763e-06
1.29813e-07
1.27006e-07
3.14338e-06
2.85602e-06
4.36199e-07
2.87821e-06
2.97601e-07
2.88397e-06
2.83457e-07
2.87157e-06
2.55562e-07
2.84496e-06
2.30764e-07
2.81797e-06
2.16239e-07
2.80191e-06
2.03535e-07
2.79815e-06
1.87761e-07
2.802e-06
1.7013e-07
2.80855e-06
1.54024e-07
2.81528e-06
1.41267e-07
2.82166e-06
1.32222e-07
2.82793e-06
1.26634e-07
2.8343e-06
1.24192e-07
2.8404e-06
1.24218e-07
2.84572e-06
1.25119e-07
2.84961e-06
1.25925e-07
1.25085e-07
2.85153e-06
3.51397e-06
3.13498e-07
3.52116e-06
2.90403e-07
3.53014e-06
2.74483e-07
3.53665e-06
2.49052e-07
3.52088e-06
2.4653e-07
3.49045e-06
2.46673e-07
3.46315e-06
2.30829e-07
3.44802e-06
2.02889e-07
3.44327e-06
1.74881e-07
3.44363e-06
1.5367e-07
3.44562e-06
1.39279e-07
3.44823e-06
1.29611e-07
3.45154e-06
1.23324e-07
3.45553e-06
1.20195e-07
3.45985e-06
1.19902e-07
3.46367e-06
1.21294e-07
3.46645e-06
1.23147e-07
1.23669e-07
3.46787e-06
4.25751e-06
4.09862e-07
4.22738e-06
3.20541e-07
4.23729e-06
2.64566e-07
4.25268e-06
2.33665e-07
4.26072e-06
2.38488e-07
4.2657e-06
2.41693e-07
4.27333e-06
2.23203e-07
4.28319e-06
1.93023e-07
4.29107e-06
1.67002e-07
4.29375e-06
1.5099e-07
4.29084e-06
1.4219e-07
4.28396e-06
1.36493e-07
4.27531e-06
1.31971e-07
4.26679e-06
1.28723e-07
4.25962e-06
1.27068e-07
4.25446e-06
1.26456e-07
4.25134e-06
1.26266e-07
1.25268e-07
4.24974e-06
5.28778e-06
4.2947e-07
5.27929e-06
3.29035e-07
5.25181e-06
2.92049e-07
5.21886e-06
2.66611e-07
5.20311e-06
2.5424e-07
5.20285e-06
2.41951e-07
5.20279e-06
2.23268e-07
5.19419e-06
2.01621e-07
5.18026e-06
1.8093e-07
5.16955e-06
1.61696e-07
5.16853e-06
1.43211e-07
5.17858e-06
1.26448e-07
5.19684e-06
1.13707e-07
5.21863e-06
1.06931e-07
5.23909e-06
1.06607e-07
5.25499e-06
1.10564e-07
5.26444e-06
1.16818e-07
1.21735e-07
5.26797e-06
6.43493e-06
4.51414e-07
6.38683e-06
3.77137e-07
6.37949e-06
2.99387e-07
6.39187e-06
2.54233e-07
6.40965e-06
2.36457e-07
6.42483e-06
2.26766e-07
6.4315e-06
2.16597e-07
6.42932e-06
2.03804e-07
6.42163e-06
1.88619e-07
6.41205e-06
1.71275e-07
6.40318e-06
1.5209e-07
6.39716e-06
1.32464e-07
6.39588e-06
1.14982e-07
6.40051e-06
1.02305e-07
6.41083e-06
9.62834e-08
6.42476e-06
9.66348e-08
6.43994e-06
1.01642e-07
1.09324e-07
6.45235e-06
7.69095e-06
4.70273e-07
7.72214e-06
3.45952e-07
7.75921e-06
2.62313e-07
7.78782e-06
2.25629e-07
7.80223e-06
2.22046e-07
7.80549e-06
2.23501e-07
7.80535e-06
2.16733e-07
7.80786e-06
2.01298e-07
7.81372e-06
1.8276e-07
7.81884e-06
1.66151e-07
7.81826e-06
1.52672e-07
7.81017e-06
1.40556e-07
7.79687e-06
1.2828e-07
7.78352e-06
1.15653e-07
7.77598e-06
1.03824e-07
7.77783e-06
9.47866e-08
7.79053e-06
8.89415e-08
8.74497e-08
7.8124e-06
9.48199e-06
5.38184e-07
9.44817e-06
3.7977e-07
9.4562e-06
2.54288e-07
9.47147e-06
2.10355e-07
9.49304e-06
2.00478e-07
9.51692e-06
1.99621e-07
9.53579e-06
1.97862e-07
9.54797e-06
1.89118e-07
9.55817e-06
1.72564e-07
9.57223e-06
1.52084e-07
9.59309e-06
1.3182e-07
9.62065e-06
1.12993e-07
9.65253e-06
9.63963e-08
9.68553e-06
8.26522e-08
9.71694e-06
7.24175e-08
9.74524e-06
6.64839e-08
9.76961e-06
6.45776e-08
6.71889e-08
9.78987e-06
1.16414e-05
4.66679e-07
1.16129e-05
4.08254e-07
1.15714e-05
2.95736e-07
1.15477e-05
2.34114e-07
1.1548e-05
2.00192e-07
1.157e-05
1.77553e-07
1.16063e-05
1.61631e-07
1.16469e-05
1.48508e-07
1.16854e-05
1.34079e-07
1.17208e-05
1.16645e-07
1.17543e-05
9.83279e-08
1.17864e-05
8.09086e-08
1.18167e-05
6.60687e-08
1.18441e-05
5.52559e-08
1.18676e-05
4.88955e-08
1.18872e-05
4.69521e-08
1.19034e-05
4.82991e-08
5.22556e-08
1.19184e-05
8.468e-06
5.00203e-07
8.47768e-06
3.98582e-07
8.46132e-06
3.12097e-07
8.4551e-06
2.40334e-07
8.45832e-06
1.96969e-07
8.46991e-06
1.65965e-07
8.49435e-06
1.37187e-07
8.53297e-06
1.09887e-07
8.58026e-06
8.67903e-08
8.62802e-06
6.88811e-08
8.66973e-06
5.66168e-08
8.70156e-06
4.90851e-08
8.72328e-06
4.43442e-08
8.7374e-06
4.11377e-08
8.74751e-06
3.87827e-08
8.75677e-06
3.76953e-08
8.76737e-06
3.77018e-08
3.96064e-08
8.78002e-06
7.38969e-06
4.86922e-07
7.42852e-06
3.5975e-07
7.45614e-06
2.84478e-07
7.4836e-06
2.12869e-07
7.50824e-06
1.72332e-07
7.5248e-06
1.49399e-07
7.53603e-06
1.25962e-07
7.54761e-06
9.83107e-08
7.56136e-06
7.30339e-08
7.57518e-06
5.50622e-08
7.58656e-06
4.52412e-08
7.59443e-06
4.12143e-08
7.59955e-06
3.92206e-08
7.60415e-06
3.65388e-08
7.61086e-06
3.2073e-08
7.62163e-06
2.69278e-08
7.63734e-06
2.19862e-08
1.90984e-08
7.65785e-06
6.38526e-06
4.01352e-07
6.43921e-06
3.05801e-07
6.47158e-06
2.52109e-07
6.50042e-06
1.84028e-07
6.53227e-06
1.40482e-07
6.55772e-06
1.23951e-07
6.5718e-06
1.11879e-07
6.58175e-06
8.83688e-08
6.59854e-06
5.62359e-08
6.62673e-06
2.68796e-08
6.66268e-06
9.28919e-09
6.69838e-06
5.51664e-09
6.72661e-06
1.0987e-08
6.74424e-06
1.89097e-08
6.75205e-06
2.42564e-08
6.75319e-06
2.57905e-08
6.7513e-06
2.38758e-08
2.07351e-08
6.74967e-06
5.63643e-06
2.98574e-07
5.66107e-06
2.81161e-07
5.68673e-06
2.26443e-07
5.6978e-06
1.72959e-07
5.69783e-06
1.4045e-07
5.70743e-06
1.14352e-07
5.73485e-06
8.4462e-08
5.77121e-06
5.20108e-08
5.80231e-06
2.51302e-08
5.82048e-06
8.71573e-09
5.82754e-06
2.23182e-09
5.8311e-06
1.9563e-09
5.83811e-06
3.97167e-09
5.85143e-06
5.59046e-09
5.87005e-06
5.63986e-09
5.89121e-06
4.62911e-09
5.91182e-06
3.26898e-09
2.77349e-09
5.92978e-06
4.8745e-06
3.93777e-07
4.86542e-06
2.90243e-07
4.90381e-06
1.88057e-07
4.94831e-06
1.28451e-07
4.9916e-06
9.71638e-08
5.04219e-06
6.37652e-08
5.09756e-06
2.90923e-08
5.14549e-06
4.07441e-09
5.17582e-06
-5.19228e-09
5.18914e-06
-4.6105e-09
5.19303e-06
-1.65367e-09
5.19563e-06
-6.48154e-10
5.20157e-06
-1.96372e-09
5.21159e-06
-4.4289e-09
5.22369e-06
-6.45888e-09
5.23551e-06
-7.19175e-09
5.2454e-06
-6.62613e-09
-4.93327e-09
5.25311e-06
4.1751e-06
3.20603e-07
4.30684e-06
1.585e-07
4.37791e-06
1.16991e-07
4.41421e-06
9.2141e-08
4.44945e-06
6.19264e-08
4.48137e-06
3.18479e-08
4.49847e-06
1.19921e-08
4.49848e-06
4.06156e-09
4.49173e-06
1.55751e-09
4.4897e-06
-2.579e-09
4.49894e-06
-1.08973e-08
4.5189e-06
-2.06049e-08
4.54415e-06
-2.72102e-08
4.5677e-06
-2.79781e-08
4.58455e-06
-2.33078e-08
4.59294e-06
-1.55894e-08
4.59367e-06
-7.34985e-09
-1.1139e-09
4.58985e-06
3.78321e-06
2.75742e-07
3.80327e-06
1.38438e-07
3.82965e-06
9.06143e-08
3.86589e-06
5.58976e-08
3.91085e-06
1.69632e-08
3.9521e-06
-9.39373e-09
3.98028e-06
-1.61928e-08
3.99566e-06
-1.1319e-08
4.00445e-06
-7.23125e-09
4.0128e-06
-1.09254e-08
4.02328e-06
-2.13856e-08
4.03551e-06
-3.28282e-08
4.04789e-06
-3.9588e-08
4.05895e-06
-3.90451e-08
4.06792e-06
-3.22717e-08
4.07484e-06
-2.25095e-08
4.08029e-06
-1.28021e-08
-5.95425e-09
4.08513e-06
3.25916e-06
2.30656e-07
3.32974e-06
6.78631e-08
3.37846e-06
4.1892e-08
3.42408e-06
1.02793e-08
3.46388e-06
-2.28388e-08
3.48696e-06
-3.24751e-08
3.49403e-06
-2.32638e-08
3.49515e-06
-1.24307e-08
3.49966e-06
-1.17492e-08
3.51018e-06
-2.14417e-08
3.52344e-06
-3.4641e-08
3.53502e-06
-4.44084e-08
3.54274e-06
-4.73134e-08
3.54717e-06
-4.34736e-08
3.55027e-06
-3.53738e-08
3.55401e-06
-2.62493e-08
3.55974e-06
-1.85323e-08
-1.40368e-08
3.56782e-06
2.87103e-06
1.25786e-07
2.95099e-06
-1.20946e-08
2.98032e-06
1.25579e-08
3.00129e-06
-1.06948e-08
3.01387e-06
-3.54164e-08
3.02137e-06
-3.99714e-08
3.03274e-06
-3.46388e-08
3.05411e-06
-3.37936e-08
3.08271e-06
-4.03526e-08
3.11019e-06
-4.89211e-08
3.12922e-06
-5.36772e-08
3.13755e-06
-5.27377e-08
3.13781e-06
-4.75709e-08
3.13508e-06
-4.07426e-08
3.13394e-06
-3.42299e-08
3.13692e-06
-2.92376e-08
3.14454e-06
-2.61489e-08
-2.49348e-08
3.15544e-06
2.55989e-06
8.87474e-08
2.57973e-06
-3.19283e-08
2.61847e-06
-2.61813e-08
2.65019e-06
-4.24143e-08
2.66134e-06
-4.65658e-08
2.66122e-06
-3.98505e-08
2.66353e-06
-3.69517e-08
2.67174e-06
-4.20084e-08
2.68078e-06
-4.93867e-08
2.68485e-06
-5.299e-08
2.68243e-06
-5.12652e-08
2.67606e-06
-4.63598e-08
2.66948e-06
-4.09947e-08
2.66536e-06
-3.6621e-08
2.66439e-06
-3.32658e-08
2.66578e-06
-3.06194e-08
2.6679e-06
-2.82744e-08
-2.6291e-08
2.66926e-06
2.16131e-06
2.12938e-06
2.1032e-06
2.06079e-06
2.01422e-06
1.97437e-06
1.93742e-06
1.89541e-06
1.84603e-06
1.79304e-06
1.74177e-06
1.69541e-06
1.65442e-06
1.61779e-06
1.58453e-06
1.55391e-06
1.52564e-06
1.49934e-06
-9.99425e-08
9.99425e-08
-1.37346e-07
3.74039e-08
-6.57403e-08
-7.16061e-08
8.21564e-08
-1.47897e-07
2.72551e-07
-1.90394e-07
4.8145e-07
-2.08899e-07
6.93613e-07
-2.12163e-07
9.0057e-07
-2.06957e-07
1.09799e-06
-1.97418e-07
1.2835e-06
-1.8551e-07
1.45539e-06
-1.71889e-07
1.61187e-06
-1.56486e-07
1.7509e-06
-1.39026e-07
1.87018e-06
-1.19284e-07
1.96708e-06
-9.68944e-08
2.0389e-06
-7.18243e-08
2.08341e-06
-4.45053e-08
2.09916e-06
-1.57584e-08
2.08494e-06
1.42266e-08
2.03958e-06
4.53569e-08
1.96405e-06
7.55306e-08
1.85942e-06
1.04628e-07
1.72856e-06
1.30865e-07
1.57332e-06
1.55236e-07
1.3967e-06
1.76617e-07
1.20209e-06
1.9461e-07
9.88808e-07
2.13286e-07
7.68424e-07
2.20384e-07
5.30455e-07
2.37969e-07
3.01406e-07
2.29048e-07
1.49838e-07
1.51568e-07
6.31418e-08
8.66966e-08
2.6535e-08
3.66069e-08
6.95987e-08
-4.30638e-08
2.01389e-07
-1.3179e-07
3.39015e-07
-1.37626e-07
4.93072e-07
-1.54056e-07
6.94495e-07
-2.01424e-07
8.15375e-07
-1.20879e-07
8.34631e-07
-1.92565e-08
7.45411e-07
8.922e-08
4.09998e-07
3.35413e-07
-1.64598e-07
5.74596e-07
-7.47746e-07
5.83147e-07
-1.2804e-06
5.32652e-07
-1.77647e-06
4.96074e-07
-2.24222e-06
4.65748e-07
-2.68219e-06
4.39969e-07
-3.09707e-06
4.14877e-07
-3.48419e-06
3.87128e-07
-3.83829e-06
3.541e-07
-4.15314e-06
3.14848e-07
-4.42343e-06
2.70286e-07
-4.64623e-06
2.22806e-07
-4.82161e-06
1.75373e-07
-4.95217e-06
1.3056e-07
-5.04231e-06
9.01387e-08
-5.0975e-06
5.51931e-08
-5.12364e-06
2.61401e-08
-5.12604e-06
2.39737e-09
-5.11094e-06
-1.50949e-08
-5.08164e-06
-2.92991e-08
-5.04094e-06
-4.07052e-08
-4.99104e-06
-4.98955e-08
-4.93362e-06
-5.74181e-08
-4.87007e-06
-6.35571e-08
-4.80125e-06
-6.8812e-08
-4.72798e-06
-7.32785e-08
-4.65081e-06
-7.71638e-08
-4.57019e-06
-8.06262e-08
-4.48642e-06
-8.37627e-08
-4.39971e-06
-8.67088e-08
-4.3102e-06
-8.95115e-08
-4.21799e-06
-9.22096e-08
-4.12315e-06
-9.48468e-08
-4.02565e-06
-9.7496e-08
-3.92537e-06
-1.00277e-07
-3.82202e-06
-1.03351e-07
-3.7151e-06
-1.06921e-07
-3.60391e-06
-1.11187e-07
-3.4876e-06
-1.16311e-07
-3.3652e-06
-1.224e-07
-3.2357e-06
-1.29499e-07
-3.09816e-06
-1.37546e-07
-2.9518e-06
-1.46364e-07
-2.79613e-06
-1.55668e-07
-2.63106e-06
-1.65064e-07
-2.45699e-06
-1.74076e-07
-2.27475e-06
-1.82237e-07
-2.08564e-06
-1.89113e-07
-1.89132e-06
-1.94319e-07
-1.69369e-06
-1.97622e-07
-1.49471e-06
-1.98986e-07
-1.29614e-06
-1.98565e-07
-1.09948e-06
-1.96666e-07
-9.05827e-07
-1.93651e-07
-7.15967e-07
-1.8986e-07
-5.30444e-07
-1.85523e-07
-3.49772e-07
-1.80672e-07
-1.74499e-07
-1.75273e-07
-5.61058e-09
-1.68889e-07
1.56555e-07
-1.62166e-07
3.10098e-07
-1.53543e-07
4.53789e-07
-1.43691e-07
5.86481e-07
-1.32691e-07
7.07327e-07
-1.20847e-07
8.15895e-07
-1.08568e-07
9.12183e-07
-9.62878e-08
9.96573e-07
-8.43893e-08
1.06974e-06
-7.31632e-08
1.13253e-06
-6.27935e-08
1.18589e-06
-5.33634e-08
1.23077e-06
-4.4877e-08
1.26805e-06
-3.72821e-08
1.29855e-06
-3.04983e-08
1.32298e-06
-2.44336e-08
1.34198e-06
-1.89947e-08
1.3561e-06
-1.41202e-08
1.36583e-06
-9.72817e-09
1.37161e-06
-5.7866e-09
1.3739e-06
-2.28711e-09
1.37302e-06
8.82302e-10
1.36927e-06
3.74769e-09
1.36314e-06
6.12766e-09
1.35512e-06
8.02153e-09
1.34563e-06
9.48978e-09
1.33503e-06
1.05966e-08
1.32365e-06
1.13875e-08
1.31174e-06
1.19083e-08
1.29953e-06
1.2213e-08
1.2872e-06
1.23284e-08
1.27493e-06
1.22705e-08
1.26287e-06
1.20541e-08
1.25117e-06
1.16982e-08
1.23995e-06
1.12274e-08
1.22928e-06
1.06702e-08
1.21922e-06
1.00559e-08
1.20981e-06
9.41238e-09
1.20104e-06
8.76437e-09
1.19291e-06
8.13292e-09
1.18538e-06
7.53517e-09
1.1784e-06
6.97913e-09
1.17193e-06
6.46831e-09
1.16592e-06
6.00536e-09
1.16034e-06
5.58803e-09
1.15512e-06
5.21405e-09
1.15024e-06
4.88193e-09
1.14565e-06
4.5915e-09
1.14131e-06
4.34299e-09
1.13717e-06
4.13547e-09
1.1332e-06
3.96559e-09
1.12938e-06
3.82795e-09
1.12566e-06
3.71944e-09
1.12203e-06
3.63015e-09
1.11846e-06
3.56719e-09
1.11493e-06
3.53014e-09
1.11141e-06
3.52354e-09
1.10785e-06
3.55536e-09
1.10422e-06
3.62853e-09
1.10048e-06
3.74357e-09
1.09658e-06
3.90272e-09
1.09247e-06
4.10513e-09
1.08811e-06
4.36327e-09
1.08344e-06
4.66952e-09
1.07838e-06
5.05898e-09
1.07287e-06
5.50679e-09
1.06677e-06
6.10437e-09
1.06001e-06
6.76253e-09
1.05228e-06
7.72503e-09
1.04358e-06
8.69989e-09
1.03322e-06
1.03574e-08
1.02144e-06
1.17786e-08
1.00656e-06
1.48819e-08
9.8977e-07
1.6792e-08
9.66539e-07
2.32313e-08
9.41434e-07
2.51053e-08
9.0124e-07
4.01934e-08
8.62214e-07
3.90268e-08
7.83525e-07
7.86888e-08
6.22848e-08
7.2124e-07
-4.63572e-08
1.463e-07
-1.24675e-09
-7.70653e-09
1.31863e-07
-2.04716e-07
3.12466e-07
-3.28499e-07
5.10176e-07
-3.88104e-07
7.09071e-07
-4.07794e-07
9.03016e-07
-4.06108e-07
1.09047e-06
-3.94412e-07
1.27119e-06
-3.78134e-07
1.44489e-06
-3.59209e-07
1.61029e-06
-3.37297e-07
1.76485e-06
-3.11043e-07
1.90547e-06
-2.79647e-07
2.02871e-06
-2.42524e-07
2.13131e-06
-1.99491e-07
2.2104e-06
-1.50914e-07
2.26354e-06
-9.76512e-08
2.28857e-06
-4.07874e-08
2.28548e-06
1.73174e-08
2.25725e-06
7.35864e-08
2.20477e-06
1.28015e-07
2.13114e-06
1.78254e-07
2.03877e-06
2.23234e-07
1.93215e-06
2.61859e-07
1.81382e-06
2.94949e-07
1.68527e-06
3.23159e-07
1.55573e-06
3.42825e-07
1.42e-06
3.56115e-07
1.30336e-06
3.54609e-07
1.19331e-06
3.39102e-07
1.03663e-06
3.08249e-07
9.25018e-07
1.98303e-07
8.38242e-07
1.23383e-07
7.32886e-07
6.22922e-08
8.094e-07
-2.08304e-07
1.03505e-06
-3.63275e-07
1.04267e-06
-1.61681e-07
7.90404e-07
5.08453e-08
2.99738e-07
3.69788e-07
-4.43909e-07
7.2439e-07
-1.21446e-06
8.59768e-07
-1.81854e-06
9.39499e-07
-2.24008e-06
9.96137e-07
-2.62447e-06
9.67535e-07
-3.01181e-06
9.19995e-07
-3.38027e-06
8.64532e-07
-3.72466e-06
8.10138e-07
-4.04026e-06
7.55565e-07
-4.32399e-06
6.98605e-07
-4.57329e-06
6.36434e-07
-4.78662e-06
5.67429e-07
-4.96395e-06
4.92176e-07
-5.10666e-06
4.12997e-07
-5.2173e-06
3.33442e-07
-5.29903e-06
2.57111e-07
-5.35536e-06
1.86887e-07
-5.38973e-06
1.24509e-07
-5.40524e-06
7.07065e-08
-5.4046e-06
2.55012e-08
-5.39e-06
-1.22116e-08
-5.36222e-06
-4.2871e-08
-5.32353e-06
-6.7991e-08
-5.27557e-06
-8.86586e-08
-5.21959e-06
-1.0588e-07
-5.1566e-06
-1.20406e-07
-5.08729e-06
-1.32867e-07
-5.01245e-06
-1.43658e-07
-4.93265e-06
-1.5307e-07
-4.84848e-06
-1.61342e-07
-4.76041e-06
-1.68688e-07
-4.66884e-06
-1.75337e-07
-4.57407e-06
-1.81483e-07
-4.47631e-06
-1.87265e-07
-4.37576e-06
-1.92765e-07
-4.27254e-06
-1.98065e-07
-4.16671e-06
-2.03323e-07
-4.05819e-06
-2.08797e-07
-3.94671e-06
-2.14835e-07
-3.83178e-06
-2.21851e-07
-3.71269e-06
-2.3027e-07
-3.58856e-06
-2.40447e-07
-3.45835e-06
-2.52611e-07
-3.32099e-06
-2.66854e-07
-3.17548e-06
-2.83063e-07
-3.02096e-06
-3.00876e-07
-2.85693e-06
-3.19705e-07
-2.68324e-06
-3.38749e-07
-2.50028e-06
-3.57038e-07
-2.30892e-06
-3.73601e-07
-2.11048e-06
-3.87553e-07
-1.90669e-06
-3.98104e-07
-1.69955e-06
-4.04764e-07
-1.49106e-06
-4.07471e-07
-1.28306e-06
-4.06567e-07
-1.07703e-06
-4.02698e-07
-8.74033e-07
-3.96649e-07
-6.7473e-07
-3.89163e-07
-4.79524e-07
-3.80729e-07
-2.88659e-07
-3.71536e-07
-1.02658e-07
-3.61274e-07
7.81028e-08
-3.4965e-07
2.51975e-07
-3.36039e-07
4.18106e-07
-3.19673e-07
5.75021e-07
-3.00606e-07
7.21497e-07
-2.79168e-07
8.56667e-07
-2.56017e-07
9.8011e-07
-2.32011e-07
1.09186e-06
-2.08033e-07
1.19232e-06
-1.84856e-07
1.28221e-06
-1.63055e-07
1.36241e-06
-1.4299e-07
1.43387e-06
-1.24824e-07
1.49756e-06
-1.08565e-07
1.55439e-06
-9.41166e-08
1.60521e-06
-8.13159e-08
1.65075e-06
-6.99683e-08
1.69163e-06
-5.98751e-08
1.72836e-06
-5.0849e-08
1.76135e-06
-4.27254e-08
1.79095e-06
-3.538e-08
1.81739e-06
-2.87312e-08
1.84099e-06
-2.27197e-08
1.86205e-06
-1.73121e-08
1.8807e-06
-1.25257e-08
1.89711e-06
-8.38424e-09
1.91149e-06
-4.88698e-09
1.92407e-06
-1.98492e-09
1.93511e-06
3.49012e-10
1.9449e-06
2.11498e-09
1.95373e-06
3.38092e-09
1.96188e-06
4.18349e-09
1.96958e-06
4.57296e-09
1.97702e-06
4.608e-09
1.98436e-06
4.35578e-09
1.9917e-06
3.89116e-09
1.99908e-06
3.28918e-09
2.00652e-06
2.61805e-09
2.014e-06
1.93567e-09
2.02147e-06
1.28766e-09
2.0289e-06
7.06761e-10
2.03622e-06
2.14707e-10
2.0434e-06
-2.0317e-10
2.05041e-06
-5.3764e-10
2.0572e-06
-7.84368e-10
2.06374e-06
-9.52052e-10
2.07e-06
-1.0504e-09
2.07597e-06
-1.08962e-09
2.08164e-06
-1.07499e-09
2.08699e-06
-1.003e-09
2.09198e-06
-8.64183e-10
2.0966e-06
-6.5113e-10
2.1008e-06
-3.65728e-10
2.10453e-06
-1.34452e-11
2.1078e-06
3.58245e-10
2.11059e-06
7.7292e-10
2.1129e-06
1.22165e-09
2.11471e-06
1.71196e-09
2.11602e-06
2.24967e-09
2.11681e-06
2.84129e-09
2.11706e-06
3.49226e-09
2.11676e-06
4.20135e-09
2.1159e-06
4.96787e-09
2.11445e-06
5.8105e-09
2.11241e-06
6.71445e-09
2.10973e-06
7.73878e-09
2.10639e-06
8.83741e-09
2.10232e-06
1.01744e-08
2.09751e-06
1.1577e-08
2.09174e-06
1.34967e-08
2.08507e-06
1.53669e-08
2.07699e-06
1.84412e-08
2.06779e-06
2.09756e-08
2.05619e-06
2.64828e-08
2.04319e-06
2.97884e-08
2.02567e-06
4.07533e-08
2.00635e-06
4.44279e-08
1.97824e-06
6.83046e-08
1.94701e-06
7.02516e-08
1.90001e-06
1.25692e-07
1.21971e-07
1.84032e-06
1.55318e-08
1.30768e-07
1.58314e-07
-1.50489e-07
3.48695e-07
-3.95098e-07
5.40698e-07
-5.20501e-07
7.19943e-07
-5.67349e-07
8.88429e-07
-5.7628e-07
1.05259e-06
-5.70265e-07
1.2173e-06
-5.59127e-07
1.38431e-06
-5.45144e-07
1.55245e-06
-5.27348e-07
1.71847e-06
-5.03318e-07
1.87799e-06
-4.70561e-07
2.0258e-06
-4.27461e-07
2.15664e-06
-3.73358e-07
2.26562e-06
-3.08471e-07
2.34841e-06
-2.33706e-07
2.40154e-06
-1.50775e-07
2.42257e-06
-6.18229e-08
2.41065e-06
2.92375e-08
2.36645e-06
1.17785e-07
2.29284e-06
2.01629e-07
2.19502e-06
2.76076e-07
2.07958e-06
3.3867e-07
1.95408e-06
3.87361e-07
1.82547e-06
4.23561e-07
1.70363e-06
4.44991e-07
1.58808e-06
4.58376e-07
1.47784e-06
4.66354e-07
1.37936e-06
4.53091e-07
1.27549e-06
4.42978e-07
1.1877e-06
3.96035e-07
1.08517e-06
3.00834e-07
1.00986e-06
1.98693e-07
1.06036e-06
1.1786e-08
9.62401e-07
-1.1034e-07
5.77237e-07
2.18885e-08
-4.24397e-08
4.57996e-07
-8.30348e-07
8.38753e-07
-1.5205e-06
1.05994e-06
-2.00839e-06
1.21229e-06
-2.42503e-06
1.27641e-06
-2.77779e-06
1.29226e-06
-3.04717e-06
1.26552e-06
-3.29312e-06
1.21349e-06
-3.53286e-06
1.15973e-06
-3.76862e-06
1.10029e-06
-3.99635e-06
1.03787e-06
-4.21073e-06
9.69945e-07
-4.40724e-06
8.95116e-07
-4.58259e-06
8.11781e-07
-4.73517e-06
7.20012e-07
-4.86483e-06
6.21833e-07
-4.97236e-06
5.20532e-07
-5.059e-06
4.20081e-07
-5.12607e-06
3.24174e-07
-5.17496e-06
2.35777e-07
-5.20714e-06
1.56692e-07
-5.22384e-06
8.74087e-08
-5.22575e-06
2.7407e-08
-5.21521e-06
-2.27514e-08
-5.19346e-06
-6.46212e-08
-5.16143e-06
-1.00019e-07
-5.12019e-06
-1.299e-07
-5.07075e-06
-1.55322e-07
-5.01389e-06
-1.77258e-07
-4.95023e-06
-1.96533e-07
-4.88025e-06
-2.1363e-07
-4.80444e-06
-2.28882e-07
-4.72332e-06
-2.42467e-07
-4.63746e-06
-2.54548e-07
-4.54745e-06
-2.65347e-07
-4.45383e-06
-2.75105e-07
-4.35705e-06
-2.84038e-07
-4.25753e-06
-2.9229e-07
-4.15559e-06
-3.00006e-07
-4.05144e-06
-3.07471e-07
-3.94507e-06
-3.15162e-07
-3.83623e-06
-3.23682e-07
-3.7244e-06
-3.33678e-07
-3.60886e-06
-3.45813e-07
-3.48862e-06
-3.60684e-07
-3.36253e-06
-3.78702e-07
-3.22936e-06
-4.00024e-07
-3.08793e-06
-4.24488e-07
-2.93728e-06
-4.51524e-07
-2.77681e-06
-4.80181e-07
-2.60635e-06
-5.0921e-07
-2.42628e-06
-5.37102e-07
-2.23756e-06
-5.62319e-07
-2.04163e-06
-5.83485e-07
-1.84037e-06
-5.9937e-07
-1.63592e-06
-6.09205e-07
-1.43046e-06
-6.12937e-07
-1.2258e-06
-6.11222e-07
-1.02334e-06
-6.05159e-07
-8.23944e-07
-5.96047e-07
-6.27987e-07
-5.8512e-07
-4.35573e-07
-5.73143e-07
-2.46741e-07
-5.60368e-07
-6.18181e-08
-5.46197e-07
1.18523e-07
-5.29991e-07
2.92664e-07
-5.10179e-07
4.59056e-07
-4.86066e-07
6.15949e-07
-4.57499e-07
7.61854e-07
-4.25072e-07
8.95799e-07
-3.89963e-07
1.01742e-06
-3.53634e-07
1.12692e-06
-3.17531e-07
1.22491e-06
-2.82849e-07
1.31229e-06
-2.50433e-07
1.39006e-06
-2.20763e-07
1.45926e-06
-1.94019e-07
1.52086e-06
-1.70162e-07
1.57576e-06
-1.49024e-07
1.62482e-06
-1.30375e-07
1.66882e-06
-1.13963e-07
1.70848e-06
-9.95381e-08
1.74448e-06
-8.68487e-08
1.7774e-06
-7.56478e-08
1.80772e-06
-6.56998e-08
1.83578e-06
-5.67863e-08
1.8618e-06
-4.87433e-08
1.88595e-06
-4.1461e-08
1.90831e-06
-3.48871e-08
1.92895e-06
-2.9023e-08
1.94795e-06
-2.38889e-08
1.96547e-06
-1.95001e-08
1.98169e-06
-1.58794e-08
1.99685e-06
-1.30354e-08
2.01116e-06
-1.09369e-08
2.02489e-06
-9.54113e-09
2.03824e-06
-8.78391e-09
2.05143e-06
-8.57402e-09
2.06458e-06
-8.79999e-09
2.07781e-06
-9.33704e-09
2.09116e-06
-1.00617e-08
2.10464e-06
-1.08624e-08
2.11822e-06
-1.16473e-08
2.13186e-06
-1.23477e-08
2.14549e-06
-1.29188e-08
2.15904e-06
-1.33387e-08
2.17245e-06
-1.36092e-08
2.18565e-06
-1.37406e-08
2.19861e-06
-1.37434e-08
2.21129e-06
-1.36345e-08
2.22367e-06
-1.34315e-08
2.23573e-06
-1.3149e-08
2.24745e-06
-1.27917e-08
2.2588e-06
-1.23537e-08
2.26976e-06
-1.18278e-08
2.28033e-06
-1.12152e-08
2.29049e-06
-1.05262e-08
2.30024e-06
-9.76707e-09
2.30955e-06
-8.94813e-09
2.31838e-06
-8.05693e-09
2.32669e-06
-7.09422e-09
2.33446e-06
-6.05611e-09
2.34165e-06
-4.93919e-09
2.34822e-06
-3.73486e-09
2.35416e-06
-2.43892e-09
2.35939e-06
-1.03562e-09
2.3639e-06
4.61095e-10
2.36765e-06
2.06433e-09
2.37062e-06
3.73562e-09
2.37281e-06
5.55414e-09
2.3742e-06
7.44573e-09
2.37475e-06
9.62361e-09
2.37447e-06
1.1854e-08
2.37328e-06
1.46952e-08
2.37118e-06
1.74633e-08
2.36801e-06
2.16105e-08
2.36378e-06
2.52069e-08
2.35822e-06
3.20373e-08
2.35118e-06
3.6829e-08
2.34256e-06
4.93768e-08
2.33125e-06
5.57351e-08
2.31875e-06
8.08064e-08
2.29986e-06
8.91456e-08
2.28397e-06
1.41582e-07
1.56244e-07
2.24969e-06
9.62354e-08
3.45324e-08
3.13802e-07
-3.68055e-07
5.20706e-07
-6.02001e-07
6.90931e-07
-6.90727e-07
8.38901e-07
-7.15319e-07
9.83227e-07
-7.20605e-07
1.13504e-06
-7.22081e-07
1.29836e-06
-7.22442e-07
1.47257e-06
-7.19355e-07
1.65358e-06
-7.08362e-07
1.83499e-06
-6.84728e-07
2.00947e-06
-6.45037e-07
2.17005e-06
-5.88042e-07
2.31076e-06
-5.14069e-07
2.42658e-06
-4.24291e-07
2.51336e-06
-3.20488e-07
2.56755e-06
-2.04959e-07
2.58678e-06
-8.10591e-08
2.56811e-06
4.79064e-08
2.50877e-06
1.77124e-07
2.41272e-06
2.97679e-07
2.28519e-06
4.03609e-07
2.13483e-06
4.89035e-07
1.97139e-06
5.50799e-07
1.80363e-06
5.91314e-07
1.63745e-06
6.11178e-07
1.48419e-06
6.11634e-07
1.34789e-06
6.02655e-07
1.21038e-06
5.906e-07
1.10118e-06
5.52173e-07
9.85394e-07
5.11824e-07
8.23244e-07
4.62985e-07
7.63008e-07
2.58929e-07
6.28546e-07
1.46248e-07
7.90455e-08
4.3916e-07
-7.48456e-07
8.4939e-07
-1.43266e-06
1.1422e-06
-1.95763e-06
1.36373e-06
-2.37759e-06
1.4799e-06
-2.6848e-06
1.51949e-06
-2.92304e-06
1.51464e-06
-3.1202e-06
1.48943e-06
-3.29902e-06
1.44433e-06
-3.47379e-06
1.38826e-06
-3.64285e-06
1.32879e-06
-3.80703e-06
1.26447e-06
-3.96395e-06
1.19479e-06
-4.11025e-06
1.11624e-06
-4.24286e-06
1.02773e-06
-4.35999e-06
9.28904e-07
-4.46139e-06
8.21411e-07
-4.54802e-06
7.0847e-07
-4.62162e-06
5.9413e-07
-4.6841e-06
4.82563e-07
-4.73709e-06
3.77163e-07
-4.78151e-06
2.80196e-07
-4.81747e-06
1.92648e-07
-4.84446e-06
1.14405e-07
-4.86183e-06
4.4775e-08
-4.86805e-06
-1.65296e-08
-4.86232e-06
-7.03541e-08
-4.84413e-06
-1.18213e-07
-4.81395e-06
-1.60074e-07
-4.77276e-06
-1.96517e-07
-4.72165e-06
-2.28363e-07
-4.66184e-06
-2.56343e-07
-4.59447e-06
-2.81002e-07
-4.52058e-06
-3.02769e-07
-4.44109e-06
-3.21965e-07
-4.35676e-06
-3.38876e-07
-4.26831e-06
-3.53792e-07
-4.17642e-06
-3.67001e-07
-4.08172e-06
-3.78735e-07
-3.98486e-06
-3.89148e-07
-3.88645e-06
-3.98421e-07
-3.78692e-06
-4.06996e-07
-3.68639e-06
-4.15697e-07
-3.58449e-06
-4.25576e-07
-3.48052e-06
-4.37651e-07
-3.3735e-06
-4.52831e-07
-3.26225e-06
-4.71933e-07
-3.14537e-06
-4.95587e-07
-3.02132e-06
-5.24069e-07
-2.88863e-06
-5.57178e-07
-2.74606e-06
-5.94093e-07
-2.59286e-06
-6.33389e-07
-2.42884e-06
-6.73222e-07
-2.25453e-06
-7.1142e-07
-2.07114e-06
-7.45708e-07
-1.88056e-06
-7.74062e-07
-1.68526e-06
-7.9467e-07
-1.48804e-06
-8.06429e-07
-1.29157e-06
-8.09404e-07
-1.09782e-06
-8.04968e-07
-9.07812e-07
-7.95171e-07
-7.21552e-07
-7.82307e-07
-5.38339e-07
-7.68333e-07
-3.57063e-07
-7.54419e-07
-1.76885e-07
-7.40546e-07
2.55778e-09
-7.2564e-07
1.80505e-07
-7.07938e-07
3.54862e-07
-6.84536e-07
5.2304e-07
-6.54244e-07
6.82212e-07
-6.16671e-07
8.29942e-07
-5.72802e-07
9.6466e-07
-5.24681e-07
1.08582e-06
-4.74798e-07
1.19379e-06
-4.25498e-07
1.28954e-06
-3.78599e-07
1.37436e-06
-3.35255e-07
1.44962e-06
-2.96021e-07
1.51658e-06
-2.60981e-07
1.57633e-06
-2.29908e-07
1.6297e-06
-2.02397e-07
1.67731e-06
-1.77986e-07
1.7196e-06
-1.56252e-07
1.75693e-06
-1.36864e-07
1.78968e-06
-1.19604e-07
1.81837e-06
-1.0434e-07
1.84364e-06
-9.09677e-08
1.86621e-06
-7.93497e-08
1.88675e-06
-6.92914e-08
1.90584e-06
-6.05518e-08
1.92385e-06
-5.28954e-08
1.94098e-06
-4.61476e-08
1.9573e-06
-4.02153e-08
1.97288e-06
-3.50745e-08
1.98775e-06
-3.07482e-08
2.00199e-06
-2.72777e-08
2.01574e-06
-2.4685e-08
2.02915e-06