/*--------------------------------*- C++ -*----------------------------------*\
  =========                 |
  \\      /  F ield         | OpenFOAM: The Open Source CFD Toolbox
   \\    /   O peration     | Website:  https://openfoam.org
    \\  /    A nd           | Version:  7
     \\/     M anipulation  |
\*---------------------------------------------------------------------------*/
FoamFile
{
    version     2.0;
    format      ascii;
    class       volVectorField;
    location    "0.055";
    object      UMean;
}
// * * * * * * * * * * * * * * * * * * * * * * * * * * * * * * * * * * * * * //

dimensions      [0 1 -1 0 0 0 0];

internalField   nonuniform List<vector> 
12225
(
(4.77417 0.16449 0)
(4.18104 0.1113 0)
(3.7219 0.0976047 0)
(3.35554 0.0808092 0)
(3.02721 0.0675039 0)
(2.72213 0.0577781 0)
(2.44102 0.0493385 0)
(2.18807 0.0413518 0)
(1.96736 0.0328296 0)
(1.77913 0.0253094 0)
(1.6254 0.0169248 0)
(1.50082 0.0118019 0)
(1.40838 0.00326951 0)
(1.3372 0.00358178 0)
(1.29127 -0.0087037 0)
(1.26165 0.00289924 0)
(1.2479 -0.0258029 0)
(1.26103 -0.000319537 0)
(5.01833 0.112558 0)
(4.8733 0.0730082 0)
(4.75647 0.0890149 0)
(4.66778 0.0882824 0)
(4.5762 0.0865113 0)
(4.47398 0.0866726 0)
(4.36266 0.086747 0)
(4.24799 0.0845997 0)
(4.13236 0.0807861 0)
(4.02145 0.0740586 0)
(3.91377 0.0672639 0)
(3.8169 0.0572978 0)
(3.72324 0.0505402 0)
(3.6466 0.0385364 0)
(3.56748 0.0351527 0)
(3.51418 0.0192534 0)
(3.44829 0.0180395 0)
(3.4152 -0.0149889 0)
(4.99676 0.172678 0)
(4.87757 0.122304 0)
(4.79888 0.129979 0)
(4.76793 0.123998 0)
(4.75239 0.11645 0)
(4.73707 0.112797 0)
(4.71971 0.110451 0)
(4.70089 0.107566 0)
(4.68078 0.102277 0)
(4.65884 0.0959803 0)
(4.63527 0.0868948 0)
(4.6098 0.079003 0)
(4.5842 0.0677831 0)
(4.5576 0.0611136 0)
(4.53375 0.0484659 0)
(4.50907 0.0429906 0)
(4.49085 0.0261691 0)
(4.46706 0.00800383 0)
(4.99612 0.188986 0)
(4.90036 0.120182 0)
(4.82357 0.118644 0)
(4.78899 0.1142 0)
(4.77565 0.106766 0)
(4.76796 0.102279 0)
(4.76281 0.10027 0)
(4.76073 0.0978927 0)
(4.76157 0.0941942 0)
(4.76399 0.088459 0)
(4.7669 0.0819463 0)
(4.76918 0.0738621 0)
(4.77126 0.0663703 0)
(4.77233 0.0573152 0)
(4.77479 0.0496137 0)
(4.77606 0.0390709 0)
(4.78144 0.027266 0)
(4.78206 0.0101365 0)
(4.99501 0.214295 0)
(4.92293 0.143918 0)
(4.85457 0.134592 0)
(4.81848 0.12974 0)
(4.80351 0.120513 0)
(4.79516 0.112842 0)
(4.78941 0.107762 0)
(4.78679 0.103427 0)
(4.7878 0.0980152 0)
(4.79142 0.0915264 0)
(4.79668 0.0837646 0)
(4.80236 0.075685 0)
(4.80863 0.06683 0)
(4.81491 0.0580618 0)
(4.82236 0.0485335 0)
(4.83001 0.0377405 0)
(4.83936 0.0252087 0)
(4.84671 0.00688221 0)
(4.9936 0.229824 0)
(4.94052 0.158415 0)
(4.88176 0.140265 0)
(4.84629 0.133376 0)
(4.83066 0.123181 0)
(4.82272 0.113468 0)
(4.8174 0.106411 0)
(4.8146 0.10065 0)
(4.81497 0.0945796 0)
(4.81793 0.0874768 0)
(4.82261 0.0795631 0)
(4.82798 0.0710006 0)
(4.83403 0.0621407 0)
(4.84027 0.0528276 0)
(4.84748 0.0429144 0)
(4.85472 0.0317684 0)
(4.86288 0.018451 0)
(4.86914 0.00200335 0)
(4.99534 0.244296 0)
(4.95635 0.174848 0)
(4.90681 0.149798 0)
(4.87307 0.140094 0)
(4.85716 0.12929 0)
(4.84982 0.11828 0)
(4.84531 0.109325 0)
(4.84274 0.102015 0)
(4.84271 0.0948819 0)
(4.84498 0.0871266 0)
(4.84897 0.0786981 0)
(4.85378 0.0697596 0)
(4.85934 0.0604829 0)
(4.86509 0.0506871 0)
(4.87161 0.040342 0)
(4.87782 0.0287007 0)
(4.88456 0.0155884 0)
(4.88903 0.00017755 0)
(5.00298 0.254301 0)
(4.97537 0.189019 0)
(4.93426 0.158964 0)
(4.90262 0.14545 0)
(4.88626 0.133577 0)
(4.87904 0.121445 0)
(4.87512 0.11084 0)
(4.8728 0.101959 0)
(4.87244 0.0937516 0)
(4.87408 0.0852922 0)
(4.87741 0.0763353 0)
(4.8816 0.0669391 0)
(4.88653 0.0572153 0)
(4.89157 0.0470517 0)
(4.89722 0.036311 0)
(4.9023 0.0245886 0)
(4.90771 0.0117424 0)
(4.91075 -0.00259989 0)
(5.0011 0.261917 0)
(4.9827 0.201605 0)
(4.95077 0.168463 0)
(4.92352 0.151241 0)
(4.90845 0.137966 0)
(4.90213 0.124915 0)
(4.89939 0.112986 0)
(4.89807 0.102701 0)
(4.89821 0.0934098 0)
(4.89997 0.0842365 0)
(4.90322 0.0747742 0)
(4.90726 0.0649361 0)
(4.91191 0.0548221 0)
(4.91648 0.0443415 0)
(4.92136 0.0334306 0)
(4.92548 0.0217966 0)
(4.92965 0.00942167 0)
(4.93167 -0.00384268 0)
(4.99753 0.268191 0)
(4.98587 0.212576 0)
(4.96136 0.177321 0)
(4.93845 0.156604 0)
(4.92478 0.141496 0)
(4.91889 0.127529 0)
(4.9167 0.114573 0)
(4.91599 0.103095 0)
(4.9165 0.0927626 0)
(4.91835 0.0828693 0)
(4.92147 0.0729476 0)
(4.92523 0.0628284 0)
(4.92941 0.0525066 0)
(4.93341 0.041909 0)
(4.93749 0.0309786 0)
(4.94084 0.0195646 0)
(4.94406 0.00769678 0)
(4.94557 -0.00460122 0)
(4.98997 0.270867 0)
(4.98271 0.220399 0)
(4.96362 0.184448 0)
(4.94411 0.161079 0)
(4.93153 0.144156 0)
(4.92588 0.129275 0)
(4.92412 0.115428 0)
(4.92397 0.102833 0)
(4.92482 0.0914535 0)
(4.92667 0.0807855 0)
(4.92959 0.0703598 0)
(4.93315 0.0599229 0)
(4.93717 0.0493984 0)
(4.941 0.0387237 0)
(4.94488 0.0278556 0)
(4.94792 0.0167188 0)
(4.95087 0.00537576 0)
(4.95207 -0.00610047 0)
(5.0018 0.274992 0)
(4.99636 0.227886 0)
(4.9807 0.19192 0)
(4.96362 0.166591 0)
(4.95179 0.147728 0)
(4.94605 0.13166 0)
(4.94424 0.116988 0)
(4.94428 0.103627 0)
(4.94534 0.0914871 0)
(4.94721 0.0801977 0)
(4.94996 0.0693284 0)
(4.9532 0.0585963 0)
(4.95685 0.0478878 0)
(4.96026 0.0371579 0)
(4.96368 0.026379 0)
(4.96618 0.0155402 0)
(4.96866 0.00469217 0)
(4.96942 -0.00605654 0)
(5.0015 0.277666 0)
(4.99919 0.232754 0)
(4.98765 0.197235 0)
(4.97392 0.170612 0)
(4.96382 0.150044 0)
(4.9586 0.132655 0)
(4.95693 0.116971 0)
(4.95712 0.102685 0)
(4.95832 0.0897028 0)
(4.9602 0.0777558 0)
(4.96284 0.0664563 0)
(4.96587 0.0555061 0)
(4.96929 0.0447431 0)
(4.97241 0.0340937 0)
(4.97558 0.0235272 0)
(4.9778 0.0130467 0)
(4.98012 0.00269443 0)
(4.98072 -0.00743488 0)
(5.01164 0.280953 0)
(5.01289 0.23862 0)
(5.00549 0.203723 0)
(4.99538 0.176168 0)
(4.98777 0.154097 0)
(4.98387 0.135395 0)
(4.98276 0.118758 0)
(4.98314 0.103688 0)
(4.98434 0.0899963 0)
(4.98602 0.0774147 0)
(4.98825 0.065621 0)
(4.99078 0.0543317 0)
(4.99367 0.0433802 0)
(4.99633 0.0326912 0)
(4.99911 0.0222415 0)
(5.00104 0.012046 0)
(5.00319 0.00212884 0)
(5.00377 -0.00740765 0)
(5.00769 0.279221 0)
(5.01138 0.240555 0)
(5.00713 0.206514 0)
(5.00049 0.178165 0)
(4.99589 0.154769 0)
(4.99417 0.134907 0)
(4.99456 0.117431 0)
(4.99614 0.101709 0)
(4.99841 0.0874065 0)
(5.00109 0.0742676 0)
(5.00417 0.0620388 0)
(5.00736 0.0504944 0)
(5.01066 0.039469 0)
(5.01358 0.028869 0)
(5.01639 0.0186423 0)
(5.01841 0.00879238 0)
(5.02046 -0.000674131 0)
(5.02126 -0.00968103 0)
(5.00868 0.281733 0)
(5.01325 0.245077 0)
(5.01159 0.211559 0)
(5.00794 0.182471 0)
(5.00578 0.157765 0)
(5.00567 0.136603 0)
(5.00702 0.118037 0)
(5.0092 0.101394 0)
(5.01186 0.0863008 0)
(5.01477 0.072534 0)
(5.0179 0.0598938 0)
(5.02105 0.0481971 0)
(5.02426 0.0372575 0)
(5.02718 0.0269587 0)
(5.03001 0.0171742 0)
(5.03219 0.00788804 0)
(5.03436 -0.000989874 0)
(5.03549 -0.00936117 0)
(5.00269 0.278867 0)
(5.00796 0.242171 0)
(5.00833 0.208787 0)
(5.00759 0.179522 0)
(5.00831 0.154208 0)
(5.01062 0.13225 0)
(5.01386 0.11298 0)
(5.01749 0.0958304 0)
(5.0213 0.0803707 0)
(5.02513 0.066297 0)
(5.02896 0.0533759 0)
(5.03263 0.0414431 0)
(5.03623 0.0303532 0)
(5.03948 0.0200214 0)
(5.04265 0.0103427 0)
(5.04522 0.00130132 0)
(5.04785 -0.00721127 0)
(5.04953 -0.0151375 0)
(5.0096 0.283246 0)
(5.01667 0.244636 0)
(5.0195 0.21027 0)
(5.02157 0.180025 0)
(5.02518 0.153589 0)
(5.03007 0.130535 0)
(5.03535 0.110343 0)
(5.04052 0.0925334 0)
(5.04546 0.076715 0)
(5.05013 0.062578 0)
(5.05458 0.0498397 0)
(5.05868 0.0382792 0)
(5.06252 0.0276866 0)
(5.06585 0.0179466 0)
(5.06897 0.00891156 0)
(5.07141 0.000564436 0)
(5.07385 -0.00724794 0)
(5.07533 -0.0144413 0)
(5.00443 0.275827 0)
(5.01465 0.235615 0)
(5.02141 0.19952 0)
(5.02754 0.167993 0)
(5.03519 0.140827 0)
(5.04387 0.117449 0)
(5.05248 0.0971036 0)
(5.06046 0.0791249 0)
(5.06775 0.063063 0)
(5.07437 0.0486554 0)
(5.08043 0.0357105 0)
(5.08586 0.0240753 0)
(5.09079 0.0135723 0)
(5.09504 0.00406604 0)
(5.09891 -0.00462277 0)
(5.10207 -0.0125719 0)
(5.10513 -0.0199601 0)
(5.10735 -0.0267637 0)
(5.00148 0.274052 0)
(5.01232 0.229459 0)
(5.02197 0.189438 0)
(5.03258 0.155457 0)
(5.04492 0.127344 0)
(5.05752 0.104095 0)
(5.06901 0.0845858 0)
(5.07907 0.067935 0)
(5.08798 0.0535289 0)
(5.09599 0.04095 0)
(5.10326 0.0298592 0)
(5.10976 0.0199876 0)
(5.11559 0.0110808 0)
(5.12065 0.00299036 0)
(5.12521 -0.0044587 0)
(5.12901 -0.0112975 0)
(5.13256 -0.0176985 0)
(5.13524 -0.0235856 0)
(4.99655 0.271304 0)
(5.00977 0.21879 0)
(5.02398 0.174306 0)
(5.03992 0.138557 0)
(5.05704 0.109923 0)
(5.07345 0.0862379 0)
(5.08794 0.0659918 0)
(5.10046 0.0484751 0)
(5.1114 0.0333848 0)
(5.12108 0.0204602 0)
(5.12966 0.0093421 0)
(5.13713 -0.00033728 0)
(5.14369 -0.00890441 0)
(5.1493 -0.0165666 0)
(5.15431 -0.0235074 0)
(5.15848 -0.0298007 0)
(5.16238 -0.0355912 0)
(5.16536 -0.0408691 0)
(5.00547 0.266006 0)
(5.0234 0.204109 0)
(5.04434 0.155943 0)
(5.06661 0.120825 0)
(5.08801 0.0950877 0)
(5.10669 0.0750048 0)
(5.1224 0.0582914 0)
(5.13603 0.0439852 0)
(5.14835 0.0317064 0)
(5.15952 0.0211531 0)
(5.16945 0.0119579 0)
(5.178 0.00380021 0)
(5.18536 -0.00357663 0)
(5.19154 -0.0102912 0)
(5.19697 -0.0164592 0)
(5.20148 -0.0220887 0)
(5.20565 -0.0273237 0)
(5.20886 -0.0321138 0)
(5.0006 0.260138 0)
(5.02784 0.186899 0)
(5.06012 0.133395 0)
(5.09196 0.096469 0)
(5.11985 0.0694532 0)
(5.14258 0.0474524 0)
(5.16094 0.0287338 0)
(5.17638 0.0132642 0)
(5.18983 0.000949731 0)
(5.20155 -0.0088087 0)
(5.21165 -0.0168029 0)
(5.2202 -0.0236611 0)
(5.22753 -0.0297604 0)
(5.23372 -0.0352761 0)
(5.23917 -0.0403203 0)
(5.24364 -0.0449422 0)
(5.24767 -0.0492292 0)
(5.25068 -0.0531808 0)
(5.00537 0.244776 0)
(5.04223 0.163942 0)
(5.0863 0.114193 0)
(5.1259 0.0860989 0)
(5.15688 0.0668836 0)
(5.1806 0.049925 0)
(5.20021 0.0346399 0)
(5.21769 0.0217986 0)
(5.23333 0.0114357 0)
(5.24678 0.00289607 0)
(5.25802 -0.0045092 0)
(5.26731 -0.0111421 0)
(5.27516 -0.0171274 0)
(5.28178 -0.0224856 0)
(5.28755 -0.0273048 0)
(5.2923 -0.031642 0)
(5.29655 -0.0356468 0)
(5.29981 -0.0393186 0)
(5.00593 0.227975 0)
(5.05958 0.125929 0)
(5.12139 0.0712678 0)
(5.17046 0.0430992 0)
(5.20383 0.0229255 0)
(5.22743 0.00524469 0)
(5.24708 -0.00886107 0)
(5.2649 -0.0188949 0)
(5.28083 -0.0260612 0)
(5.29442 -0.0318039 0)
(5.30573 -0.0368858 0)
(5.31513 -0.0414911 0)
(5.3231 -0.0456296 0)
(5.32981 -0.0493445 0)
(5.3356 -0.0527323 0)
(5.34031 -0.0558777 0)
(5.34449 -0.0588526 0)
(5.34764 -0.0616781 0)
(5.01503 0.211637 0)
(5.09024 0.112221 0)
(5.1702 0.0765829 0)
(5.22628 0.060053 0)
(5.26097 0.0417749 0)
(5.2862 0.0235497 0)
(5.30875 0.00924752 0)
(5.32925 -0.000772365 0)
(5.34661 -0.00820299 0)
(5.36056 -0.014432 0)
(5.37178 -0.0199658 0)
(5.38098 -0.0248633 0)
(5.38876 -0.0291596 0)
(5.39527 -0.0329584 0)
(5.40083 -0.0364062 0)
(5.40533 -0.0395896 0)
(5.40927 -0.0425991 0)
(5.41224 -0.0454242 0)
(5.00919 0.158919 0)
(5.12339 0.0342494 0)
(5.22192 0.00612273 0)
(5.27804 -0.00352557 0)
(5.30928 -0.0176425 0)
(5.33398 -0.0299131 0)
(5.3575 -0.0374664 0)
(5.37885 -0.0421335 0)
(5.3967 -0.0458742 0)
(5.41107 -0.0493356 0)
(5.4228 -0.0524705 0)
(5.43257 -0.0552124 0)
(5.44094 -0.0576088 0)
(5.44803 -0.0597817 0)
(5.45416 -0.0618171 0)
(5.45922 -0.0637882 0)
(5.46371 -0.0657146 0)
(5.46716 -0.0676187 0)
(5.01269 0.152323 0)
(5.17549 0.0576371 0)
(5.29846 0.0437566 0)
(5.35779 0.0272951 0)
(5.38988 0.00813026 0)
(5.41768 -0.00549017 0)
(5.44397 -0.0135881 0)
(5.46665 -0.0192334 0)
(5.48481 -0.0240875 0)
(5.49904 -0.0284626 0)
(5.5103 -0.0322822 0)
(5.51938 -0.0356074 0)
(5.52675 -0.0385297 0)
(5.53264 -0.0412111 0)
(5.53725 -0.0436827 0)
(5.54064 -0.0460604 0)
(5.54304 -0.0483046 0)
(5.54436 -0.0505162 0)
(5.01473 0.0194756 0)
(5.22691 -0.0516842 0)
(5.35273 -0.0345289 0)
(5.40556 -0.0431351 0)
(5.43461 -0.0532831 0)
(5.45742 -0.0578502 0)
(5.47466 -0.0595838 0)
(5.48473 -0.0608251 0)
(5.48762 -0.0620621 0)
(5.48457 -0.0631858 0)
(5.47685 -0.0641102 0)
(5.46564 -0.0649006 0)
(5.45142 -0.0655941 0)
(5.43497 -0.0662751 0)
(5.41617 -0.0669026 0)
(5.39603 -0.0675556 0)
(5.37374 -0.0681604 0)
(5.35115 -0.0688505 0)
(4.96747 0.0696564 0)
(5.10291 -0.00091515 0)
(5.074 -0.0010156 0)
(4.95916 -0.0112589 0)
(4.83109 -0.0188396 0)
(4.70638 -0.0218658 0)
(4.58514 -0.0231102 0)
(4.46566 -0.0239473 0)
(4.34765 -0.024552 0)
(4.23195 -0.0248954 0)
(4.11936 -0.0250161 0)
(4.01057 -0.0249915 0)
(3.9055 -0.0248728 0)
(3.8045 -0.0247068 0)
(3.7068 -0.0244982 0)
(3.6133 -0.0242947 0)
(3.52228 -0.0240747 0)
(3.43612 -0.0239352 0)
(-0.00354349 -0.00548202 1.69035e-21)
(0.0143258 -0.0358264 -1.67998e-21)
(0.0548609 -0.0550111 0)
(0.102722 -0.0631253 0)
(0.153785 -0.0653618 0)
(0.205038 -0.064569 1.62564e-21)
(0.255422 -0.0623003 0)
(0.304256 -0.0593472 0)
(0.351148 -0.0560059 0)
(0.395776 -0.0523035 0)
(0.437697 -0.0481105 -1.52867e-21)
(0.476249 -0.0432197 0)
(0.510484 -0.0374019 0)
(0.53922 -0.0304415 0)
(0.560995 -0.0221579 0)
(0.574242 -0.0124477 -1.41583e-21)
(0.57724 -0.00124817 0)
(0.568537 0.0113874 0)
(0.54674 0.0253414 0)
(0.509861 0.0402744 0)
(0.457287 0.0555289 0)
(0.389018 0.0702771 0)
(0.306005 0.08346 0)
(0.209929 0.0939082 -1.32102e-21)
(0.103629 0.10032 1.3161e-21)
(-0.00991681 0.101608 -1.31021e-21)
(-0.126344 0.0976509 -1.30271e-21)
(-0.240678 0.0874441 0)
(-0.347291 0.0714976 0)
(-0.441947 0.046324 1.26909e-21)
(-0.517572 0.0170977 1.25509e-21)
(-0.579552 0.000749196 0)
(-0.6409 5.5508e-05 0)
(-0.711635 0.0111987 1.2067e-21)
(-0.795083 0.0339674 0)
(-0.892886 0.0565687 0)
(-1.00218 0.0641968 -1.15118e-21)
(-1.12179 0.0636518 0)
(-1.25067 0.0761967 -1.10736e-21)
(-1.3907 0.100702 -2.16674e-21)
(-1.5353 0.11376 0)
(-1.67311 0.120624 0)
(-1.80451 0.118225 0)
(-1.91911 0.103566 0)
(-2.01451 0.086351 0)
(-2.09093 0.0697924 -1.84816e-21)
(-2.14934 0.0542627 -1.80333e-21)
(-2.1905 0.0398742 -1.76572e-21)
(-2.21546 0.0267186 0)
(-2.22521 0.0147609 1.71547e-21)
(-2.22073 0.00397626 0)
(-2.20302 -0.00570308 -1.70004e-21)
(-2.17331 -0.0143338 -1.70479e-21)
(-2.13245 -0.0219851 0)
(-2.08158 -0.0286819 0)
(-2.02176 -0.0344654 0)
(-1.95407 -0.0393601 -1.79049e-21)
(-1.87951 -0.0434292 0)
(-1.79926 -0.0467014 0)
(-1.71421 -0.0492439 0)
(-1.62531 -0.0511009 0)
(-1.53348 -0.052349 0)
(-1.43953 -0.0530502 0)
(-1.34418 -0.0532852 0)
(-1.24806 -0.0531237 0)
(-1.15173 -0.0526459 2.12714e-21)
(-1.05561 -0.0519159 0)
(-0.960068 -0.0510093 0)
(-0.865317 -0.0499964 -2.21919e-21)
(-0.771486 -0.0489386 -2.24531e-21)
(-0.678619 -0.0478874 0)
(-0.586697 -0.0468749 2.29101e-21)
(-0.495653 -0.0459223 -2.31078e-21)
(-0.405392 -0.0450448 0)
(-0.315821 -0.0442454 2.34478e-21)
(-0.226817 -0.0435201 0)
(-0.138257 -0.0428689 0)
(-0.0500338 -0.0422696 -2.38354e-21)
(0.0379155 -0.0416911 0)
(0.125539 -0.0410775 2.40211e-21)
(0.2127 -0.0403702 0)
(0.299143 -0.0395244 -2.41459e-21)
(0.384524 -0.0385017 -2.41828e-21)
(0.468468 -0.0372936 -2.42011e-21)
(0.550599 -0.0359122 -4.84005e-21)
(0.630587 -0.034388 4.83598e-21)
(0.708175 -0.0327573 0)
(0.783157 -0.0310535 0)
(0.855356 -0.0293067 0)
(0.924645 -0.0275442 4.78248e-21)
(0.990929 -0.0257755 4.7605e-21)
(1.05415 -0.0240121 -4.73542e-21)
(1.11425 -0.0222646 0)
(1.17123 -0.0205342 4.67677e-21)
(1.22505 -0.0188331 4.64363e-21)
(1.27574 -0.0171641 4.60824e-21)
(1.32329 -0.01553 0)
(1.36772 -0.013947 0)
(1.40905 -0.0124021 0)
(1.44734 -0.010916 4.44895e-21)
(1.48259 -0.00947784 0)
(1.51489 -0.00809703 0)
(1.5443 -0.00677811 -4.31696e-21)
(1.5709 -0.00553004 0)
(1.5948 -0.00436077 0)
(1.6161 -0.00327734 -4.18021e-21)
(1.63497 -0.00228493 0)
(1.65153 -0.00138621 0)
(1.66597 -0.000581182 4.04292e-21)
(1.67844 0.000132474 3.99754e-21)
(1.68911 0.000758918 0)
(1.69813 0.0013035 -3.90776e-21)
(1.70565 0.00177213 0)
(1.71182 0.00217095 3.81953e-21)
(1.71676 0.00250573 0)
(1.7206 0.00278223 3.73299e-21)
(1.72344 0.00300548 3.69038e-21)
(1.7254 0.00318066 0)
(1.72657 0.00331334 0)
(1.72704 0.00340854 0)
(1.72689 0.00347357 0)
(1.7262 0.00350992 0)
(1.72505 0.0035129 0)
(1.72352 0.00348261 0)
(1.72168 0.00342415 3.36474e-21)
(1.71958 0.00334305 -3.32583e-21)
(1.71729 0.00324375 0)
(1.71485 0.00313 0)
(1.71232 0.00300484 0)
(1.70972 0.00287079 0)
(1.70708 0.0027301 -6.2735e-21)
(1.70445 0.00258507 0)
(1.70183 0.00243803 6.12699e-21)
(1.69925 0.00229125 -6.05469e-21)
(1.69673 0.00214692 0)
(1.69427 0.00200702 0)
(1.69187 0.00187314 0)
(1.68954 0.0017465 5.77146e-21)
(1.68729 0.00162793 5.70208e-21)
(1.6851 0.00151794 0)
(1.68297 0.00141667 5.56492e-21)
(1.68091 0.00132396 5.49712e-21)
(1.67889 0.00123951 -5.42982e-21)
(1.67693 0.00116291 0)
(1.675 0.00109375 0)
(1.67312 0.00103161 -5.23085e-21)
(1.67126 0.000975972 0)
(1.66942 0.000926273 0)
(1.6676 0.000882016 0)
(1.6658 0.00084294 0)
(1.664 0.000808948 4.90844e-21)
(1.6622 0.000780106 4.84527e-21)
(1.66039 0.000756453 0)
(1.65857 0.000737986 4.72019e-21)
(1.65674 0.000724668 0)
(1.65487 0.000716338 0)
(1.65297 0.000712763 4.53568e-21)
(1.65102 0.00071401 0)
(1.64902 0.000720328 4.41471e-21)
(1.64694 0.000732282 0)
(1.64477 0.000750402 0)
(1.64251 0.000775747 4.23631e-21)
(1.64009 0.000809863 0)
(1.63755 0.000854418 4.11948e-21)
(1.63474 0.000913404 0)
(1.63179 0.000987459 0)
(1.62835 0.00108826 0)
(1.62476 0.00120771 -3.89138e-21)
(1.62027 0.00138479 0)
(1.61568 0.00157145 3.78064e-21)
(1.60942 0.00190478 0)
(1.60307 0.00217726 0)
(1.59386 0.00287872 0)
(1.58397 0.00319672 0)
(1.57014 0.00490316 0)
(1.55149 0.00492305 0)
(1.53205 0.00982165 0)
(1.48651 0.00804849 -6.76942e-21)
(1.46758 0.0253713 0)
(1.32357 0.0190164 0)
(-0.00127674 -0.0169357 -5.07027e-21)
(0.0128028 -0.0908216 5.03873e-21)
(0.0384376 -0.131582 0)
(0.0659035 -0.146848 -3.30602e-21)
(0.0940484 -0.149791 0)
(0.122172 -0.14718 -1.62682e-21)
(0.150395 -0.142305 3.21076e-21)
(0.17858 -0.136461 3.17375e-21)
(0.206555 -0.129877 0)
(0.233974 -0.122244 3.09201e-21)
(0.260315 -0.112991 1.52976e-21)
(0.284774 -0.101435 0)
(0.30627 -0.0868609 0)
(0.323462 -0.0686224 0)
(0.334766 -0.046231 0)
(0.338551 -0.0194679 1.41682e-21)
(0.333146 0.0115637 0)
(0.317063 0.0463066 -2.72969e-21)
(0.288926 0.0838311 0)
(0.249039 0.122768 0)
(0.196619 0.161343 2.64882e-21)
(0.13132 0.1977 0)
(0.053759 0.230301 -2.62333e-21)
(-0.0350154 0.257906 1.32208e-21)
(-0.133314 0.279109 -1.31718e-21)
(-0.238879 0.291993 1.31133e-21)
(-0.348797 0.294363 1.30386e-21)
(-0.460105 0.285012 0)
(-0.568999 0.26492 0)
(-0.674969 0.236237 -1.27028e-21)
(-0.782012 0.207123 1.23699e-21)
(-0.900342 0.197517 0)
(-1.02871 0.212069 0)
(-1.15992 0.232715 -1.20786e-21)
(-1.28765 0.249189 0)
(-1.41919 0.264875 0)
(-1.56102 0.288486 1.15238e-21)
(-1.70872 0.317379 0)
(-1.84954 0.333802 -1.04228e-21)
(-1.97682 0.329323 2.16926e-21)
(-2.08591 0.30828 0)
(-2.17496 0.279031 0)
(-2.24903 0.242659 3.87312e-21)
(-2.308 0.202334 3.76667e-21)
(-2.3536 0.162115 3.66507e-21)
(-2.38592 0.123251 -1.72189e-21)
(-2.40559 0.0864412 1.80524e-21)
(-2.41281 0.0519488 5.19168e-21)
(-2.4082 0.0198595 -3.37347e-21)
(-2.39216 -0.00981555 -1.717e-21)
(-2.36525 -0.0370987 0)
(-2.32801 -0.0620118 1.70137e-21)
(-2.28086 -0.0845855 -1.63413e-21)
(-2.22462 -0.104815 0)
(-2.16 -0.122696 0)
(-2.08778 -0.138237 0)
(-2.0088 -0.151455 1.79141e-21)
(-1.92403 -0.16244 0)
(-1.83422 -0.171275 -3.68632e-21)
(-1.74032 -0.178094 0)
(-1.64316 -0.183048 -3.85004e-21)
(-1.54351 -0.186314 0)
(-1.44206 -0.18808 4.01434e-21)
(-1.33943 -0.18854 0)
(-1.23624 -0.187883 -4.16921e-21)
(-1.13299 -0.186314 2.11329e-21)
(-1.03008 -0.184022 0)
(-0.92783 -0.181224 4.37039e-21)
(-0.82644 -0.178117 2.21957e-21)
(-0.725993 -0.174894 2.24566e-21)
(-0.626494 -0.171697 0)
(-0.52788 -0.16864 2.28069e-21)
(-0.430065 -0.165771 2.31105e-21)
(-0.332936 -0.163119 0)
(-0.236385 -0.160683 -2.345e-21)
(-0.140293 -0.158455 4.70816e-21)
(-0.0445217 -0.156438 0)
(0.0510662 -0.154583 2.3837e-21)
(0.146566 -0.152798 0)
(0.241954 -0.150917 -7.19668e-21)
(0.337087 -0.148758 0)
(0.431685 -0.146162 7.23519e-21)
(0.525372 -0.143023 2.41836e-21)
(0.617721 -0.139305 -2.41272e-21)
(0.708318 -0.135053 -4.82657e-21)
(0.796816 -0.130359 4.82371e-21)
(0.882961 -0.125336 0)
(0.966564 -0.120095 0)
(1.04746 -0.114723 0)
(1.12554 -0.109286 -1.43392e-20)
(1.20075 -0.103826 -4.76049e-21)
(1.27301 -0.0983689 4.73539e-21)
(1.3423 -0.092939 0)
(1.40859 -0.0875552 4.67137e-21)
(1.47188 -0.0822397 -4.64356e-21)
(1.53218 -0.0770109 -4.60816e-21)
(1.58949 -0.0718824 0)
(1.64382 -0.0668749 0)
(1.69521 -0.0619891 0)
(1.74369 -0.0572402 -4.44881e-21)
(1.7893 -0.0526291 0)
(1.83208 -0.0481643 8.72081e-21)
(1.8721 -0.0438644 1.29482e-20)
(1.90944 -0.0397522 -8.54105e-21)
(1.94418 -0.0358509 0)
(1.97643 -0.0321811 -4.17838e-21)
(2.00632 -0.0287586 0)
(2.034 -0.0255917 -8.17525e-21)
(2.05962 -0.0226814 4.04138e-21)
(2.08332 -0.0200218 3.99609e-21)
(2.10526 -0.0176022 0)
(2.12559 -0.0154082 1.17215e-20)
(2.14442 -0.013424 -7.72539e-21)
(2.16189 -0.0116334 -3.81926e-21)
(2.1781 -0.0100208 0)
(2.19315 -0.0085716 -3.73271e-21)
(2.20715 -0.00727248 -1.10696e-20)
(2.22016 -0.00611132 0)
(2.23227 -0.00507673 -7.21173e-21)
(2.24355 -0.00415879 -7.12913e-21)
(2.25406 -0.00334743 -7.04738e-21)
(2.26388 -0.00263568 0)
(2.27305 -0.00202039 0)
(2.28163 -0.00149579 0)
(2.28965 -0.00105276 3.36408e-21)
(2.29717 -0.000681849 3.32548e-21)
(2.30421 -0.000374843 0)
(2.31083 -0.000124043 6.49735e-21)
(2.31705 7.81071e-05 6.42175e-21)
(2.32291 0.000238158 0)
(2.32843 0.000361833 6.27276e-21)
(2.33364 0.000454553 1.23981e-20)
(2.33855 0.000521523 -6.12624e-21)
(2.34318 0.000567609 -6.05377e-21)
(2.34755 0.000597223 0)
(2.35166 0.000614231 0)
(2.35554 0.000621998 0)
(2.35918 0.000623341 -5.77071e-21)
(2.36259 0.000620533 5.70125e-21)
(2.36579 0.000615346 1.12649e-20)
(2.36878 0.000609095 -5.56416e-21)
(2.37157 0.000602762 5.49632e-21)
(2.37416 0.000596999 5.42907e-21)
(2.37656 0.000592322 0)
(2.37877 0.000589049 0)
(2.38081 0.00058742 -5.23008e-21)
(2.38268 0.000587659 0)
(2.38438 0.000590018 0)
(2.38592 0.000594623 1.00707e-20)
(2.38731 0.000601467 0)
(2.38854 0.00061042 4.9077e-21)
(2.38962 0.000621419 -4.84457e-21)
(2.39056 0.000634636 0)
(2.39136 0.000650525 4.71947e-21)
(2.39202 0.0006697 0)
(2.39255 0.000693037 0)
(2.39295 0.0007214 -4.53501e-21)
(2.39321 0.000755732 8.94861e-21)
(2.39335 0.000797454 -4.41405e-21)
(2.39334 0.000847861 0)
(2.3932 0.000910052 0)
(2.39291 0.000985283 4.23558e-21)
(2.39245 0.00108048 0)
(2.39183 0.00119412 4.11871e-21)
(2.39099 0.00134456 0)
(2.38995 0.00151781 0)
(2.38859 0.00176601 0)
(2.38697 0.00202971 3.89078e-21)
(2.38485 0.00246288 0)
(2.38233 0.00285489 -3.78004e-21)
(2.37906 0.00366781 0)
(2.37498 0.00421159 0)
(2.36996 0.00587976 7.23827e-21)
(2.36281 0.00650199 -7.13528e-21)
(2.35529 0.0102928 0)
(2.34123 0.0105913 0)
(2.33089 0.0202583 0)
(2.29927 0.0192676 2.02877e-20)
(2.28924 0.047876 0)
(2.21282 0.0473286 -1.32031e-20)
(0.00171198 -0.0275628 5.53115e-24)
(0.00884801 -0.120488 -6.71297e-21)
(0.0198908 -0.164787 0)
(0.0284191 -0.179259 6.60748e-21)
(0.0367981 -0.182053 0)
(0.0455676 -0.180369 0)
(0.0554871 -0.177063 -1.13118e-23)
(0.066561 -0.17278 -3.17562e-21)
(0.0786425 -0.167184 -3.12284e-21)
(0.0912871 -0.159445 -3.09383e-21)
(0.103851 -0.148489 0)
(0.115449 -0.133142 0)
(0.124885 -0.112197 2.93408e-21)
(0.130736 -0.0846329 5.76519e-21)
(0.13128 -0.0497412 -5.66265e-21)
(0.12479 -0.00740873 0)
(0.109329 0.0419012 -5.47092e-21)
(0.083416 0.0969364 2.73111e-21)
(0.0455311 0.15599 0)
(-0.0045671 0.216865 -5.26134e-21)
(-0.0672771 0.27708 -2.65024e-21)
(-0.141936 0.333889 5.19021e-21)
(-0.226793 0.384592 2.62479e-21)
(-0.319212 0.426665 0)
(-0.417158 0.458166 -5.14426e-21)
(-0.518907 0.476795 -5.12926e-21)
(-0.623168 0.481074 0)
(-0.729073 0.469569 -5.07829e-21)
(-0.835941 0.442441 0)
(-0.94607 0.408751 -4.98202e-21)
(-1.06792 0.397144 -2.49476e-21)
(-1.20181 0.411089 0)
(-1.33527 0.429987 0)
(-1.46681 0.442757 0)
(-1.60392 0.463905 0)
(-1.74407 0.501934 0)
(-1.87766 0.528509 0)
(-1.99433 0.52506 -4.23355e-21)
(-2.09119 0.503287 6.27395e-21)
(-2.1731 0.469218 0)
(-2.24143 0.425423 0)
(-2.29747 0.375322 0)
(-2.34299 0.320502 -2.00701e-22)
(-2.37871 0.263727 -3.76847e-21)
(-2.40545 0.207163 -7.14378e-21)
(-2.42279 0.152156 6.96645e-21)
(-2.43062 0.0994654 3.32144e-21)
(-2.42847 0.0494661 -3.42538e-21)
(-2.4162 0.00231891 1.50733e-22)
(-2.39366 -0.0418811 -3.19988e-21)
(-2.361 -0.0830668 0)
(-2.31848 -0.121157 -3.20313e-21)
(-2.26658 -0.156021 1.11644e-22)
(-2.20588 -0.187507 0)
(-2.13717 -0.215477 0)
(-2.06125 -0.23983 3.38866e-21)
(-1.97905 -0.260544 0)
(-1.8915 -0.277673 0)
(-1.79946 -0.291347 -3.57076e-21)
(-1.70384 -0.301775 -7.43363e-21)
(-1.60543 -0.309216 3.8503e-21)
(-1.50499 -0.313952 0)
(-1.4032 -0.316273 -4.01455e-21)
(-1.30064 -0.316498 0)
(-1.19787 -0.314932 -4.11681e-21)
(-1.09536 -0.311889 -4.24106e-21)
(-0.993512 -0.307697 8.57376e-21)
(-0.892626 -0.302704 4.33101e-21)
(-0.792862 -0.297256 0)
(-0.694249 -0.29169 -8.9247e-21)
(-0.596711 -0.286265 0)
(-0.500105 -0.281152 -1.36805e-20)
(-0.404259 -0.276423 -9.1875e-21)
(-0.309021 -0.272083 -9.25876e-21)
(-0.214276 -0.268122 9.32281e-21)
(-0.119919 -0.26453 -1.40883e-20)
(-0.0258032 -0.261316 0)
(0.0682796 -0.258431 0)
(0.162524 -0.25573 9.51817e-21)
(0.256989 -0.252902 1.43487e-20)
(0.351558 -0.249598 0)
(0.445903 -0.245492 -4.82046e-21)
(0.539554 -0.240394 0)
(0.631971 -0.234252 1.44726e-20)
(0.722624 -0.227159 2.35021e-23)
(0.811086 -0.219306 -2.13548e-23)
(0.89707 -0.210923 -9.62548e-21)
(0.980383 -0.202214 0)
(1.06091 -0.193339 9.57715e-21)
(1.13857 -0.184391 1.42865e-23)
(1.21334 -0.175428 0)
(1.28518 -0.166493 0)
(1.35408 -0.157605 0)
(1.42004 -0.148807 -9.34784e-21)
(1.48304 -0.140121 0)
(1.5431 -0.131588 0)
(1.60026 -0.123241 0)
(1.65451 -0.115093 0)
(1.70591 -0.107165 0)
(1.75448 -0.0994555 -8.8895e-21)
(1.80026 -0.0919797 0)
(1.8433 -0.0847438 -8.72062e-21)
(1.88366 -0.0777821 -8.63129e-21)
(1.9214 -0.0711314 8.54089e-21)
(1.95662 -0.0648313 0)
(1.98945 -0.0589174 8.35826e-21)
(2.02002 -0.0534156 0)
(2.04848 -0.0483388 8.17514e-21)
(2.07501 -0.0436866 -8.08397e-21)
(2.09974 -0.0394468 -2.39758e-20)
(2.12285 -0.0355988 0)
(2.14447 -0.032116 -2.34381e-20)
(2.16473 -0.0289692 -7.72208e-21)
(2.18377 -0.0261288 0)
(2.20167 -0.0235659 -1.50986e-20)
(2.21855 -0.021254 -1.49267e-20)
(2.2345 -0.0191691 2.2136e-20)
(2.24959 -0.0172903 0)
(2.26388 -0.0155998 7.21164e-21)
(2.27745 -0.0140823 7.12905e-21)
(2.29033 -0.0127252 2.11403e-20)
(2.30259 -0.0115159 0)
(2.31425 -0.0104416 0)
(2.32537 -0.00949085 0)
(2.33597 -0.0086526 6.72737e-21)
(2.34609 -0.00791608 0)
(2.35577 -0.00727088 0)
(2.36503 -0.00670678 -6.49724e-21)
(2.37391 -0.00621356 -6.42164e-21)
(2.38242 -0.00578151 0)
(2.39059 -0.00540141 0)
(2.39844 -0.00506478 -1.23979e-20)
(2.40597 -0.00476382 0)
(2.41321 -0.00449146 1.21074e-20)
(2.42015 -0.00424148 1.19638e-20)
(2.42682 -0.00400879 0)
(2.4332 -0.00378934 0)
(2.43931 -0.00358004 -1.15409e-20)
(2.44516 -0.00337864 -1.49597e-25)
(2.45075 -0.00318362 -1.29638e-25)
(2.45607 -0.00299411 0)
(2.46115 -0.00280957 -2.19846e-20)
(2.46599 -0.00262976 0)
(2.47058 -0.00245446 0)
(2.47494 -0.00228347 0)
(2.47908 -0.00211667 1.04599e-20)
(2.48299 -0.0019539 0)
(2.48669 -0.00179498 -2.03984e-20)
(2.49018 -0.00163969 -1.00703e-20)
(2.49346 -0.00148783 0)
(2.49654 -0.00133919 -9.81508e-21)
(2.49943 -0.00119353 0)
(2.50212 -0.00105049 0)
(2.50462 -0.000909576 -2.83158e-20)
(2.50694 -0.000770052 1.86295e-20)
(2.50907 -0.000630962 0)
(2.51103 -0.000490804 1.81391e-20)
(2.5128 -0.000348376 -8.94825e-21)
(2.5144 -0.000201113 0)
(2.51582 -4.7834e-05 0)
(2.51707 0.000116922 0)
(2.51813 0.000293261 -2.54124e-20)
(2.51901 0.000493848 0)
(2.51969 0.000713258 -8.23721e-21)
(2.52017 0.000982963 0)
(2.52042 0.00127711 0)
(2.52044 0.00167747 0)
(2.52013 0.0020932 0)
(2.51957 0.0027447 0)
(2.51846 0.00334659 0)
(2.51711 0.00450305 -1.48987e-20)
(2.51472 0.00536772 0)
(2.51223 0.00760552 -7.23793e-21)
(2.50758 0.00879967 2.14e-20)
(2.50344 0.0135324 0)
(2.49449 0.0151387 0)
(2.48808 0.0261635 -1.36788e-20)
(2.47089 0.0289988 -1.35188e-20)
(2.46245 0.0573354 1.33261e-20)
(2.43328 0.0668433 1.32028e-20)
(0.00359927 -0.0366076 1.0118e-20)
(0.00351363 -0.13141 1.00518e-20)
(0.00304169 -0.170475 6.64242e-21)
(-0.00158721 -0.180996 3.28279e-21)
(-0.00642365 -0.183541 0)
(-0.0106988 -0.183809 -6.45462e-21)
(-0.0134992 -0.183297 3.17897e-21)
(-0.0148487 -0.181772 0)
(-0.0148753 -0.178349 3.12478e-21)
(-0.0140385 -0.171736 0)
(-0.013021 -0.160356 -6.03234e-21)
(-0.0128142 -0.142492 0)
(-0.0146602 -0.116481 -2.93593e-21)
(-0.0201407 -0.0808233 -5.76881e-21)
(-0.0310916 -0.0344533 5.66617e-21)
(-0.0492187 0.0230037 0)
(-0.0764193 0.0909882 5.47418e-21)
(-0.113701 0.167527 0)
(-0.162668 0.249794 0)
(-0.222878 0.333432 5.26453e-21)
(-0.294183 0.413963 0)
(-0.375585 0.487091 -8.82621e-23)
(-0.464958 0.549358 0)
(-0.559633 0.598356 0)
(-0.657229 0.632835 8.79643e-23)
(-0.756355 0.652612 5.13235e-21)
(-0.855963 0.657442 5.01664e-21)
(-0.956219 0.647574 5.08136e-21)
(-1.05979 0.630124 0)
(-1.1755 0.623127 9.85542e-21)
(-1.30318 0.631377 0)
(-1.43271 0.640242 4.70446e-21)
(-1.55982 0.64707 0)
(-1.69066 0.668324 0)
(-1.82512 0.698041 -4.38551e-21)
(-1.94489 0.706208 0)
(-2.04441 0.691305 4.14668e-21)
(-2.12856 0.660442 2.12144e-22)
(-2.19936 0.617837 -8.02505e-21)
(-2.25879 0.56508 7.55839e-21)
(-2.30768 0.504686 0)
(-2.3471 0.439157 0)
(-2.3777 0.370414 3.19961e-21)
(-2.39972 0.30034 0)
(-2.41318 0.230378 3.47854e-21)
(-2.41778 0.161615 -3.39419e-21)
(-2.41339 0.0947842 -3.32256e-21)
(-2.39973 0.0304184 0)
(-2.3767 -0.031112 3.22455e-21)
(-2.3442 -0.0894942 3.20045e-21)
(-2.30241 -0.144415 -6.04346e-21)
(-2.25158 -0.195462 3.20342e-21)
(-2.19214 -0.242251 3.22929e-21)
(-2.12469 -0.284427 0)
(-2.05004 -0.321689 0)
(-1.96914 -0.353881 -3.38859e-21)
(-1.88297 -0.380973 0)
(-1.79253 -0.403055 0)
(-1.69873 -0.420389 7.25711e-21)
(-1.60242 -0.433314 7.43333e-21)
(-1.50429 -0.442208 0)
(-1.40498 -0.447482 0)
(-1.30499 -0.449557 0)
(-1.20479 -0.448855 0)
(-1.10481 -0.445797 8.28594e-21)
(-1.00544 -0.440776 -8.37397e-21)
(-0.907036 -0.434246 -8.57356e-21)
(-0.809907 -0.426672 -1.73509e-20)
(-0.714205 -0.418579 0)
(-0.619897 -0.410463 4.83432e-23)
(-0.526773 -0.402729 0)