/*--------------------------------*- C++ -*----------------------------------*\
  =========                 |
  \\      /  F ield         | OpenFOAM: The Open Source CFD Toolbox
   \\    /   O peration     | Website:  https://openfoam.org
    \\  /    A nd           | Version:  7
     \\/     M anipulation  |
\*---------------------------------------------------------------------------*/
FoamFile
{
    version     2.0;
    format      ascii;
    class       volScalarField;
    location    "0.076";
    object      k;
}
// * * * * * * * * * * * * * * * * * * * * * * * * * * * * * * * * * * * * * //

dimensions      [0 2 -2 0 0 0 0];

internalField   nonuniform List<scalar> 
12225
(
1.93216e-05
1.81966e-05
1.66485e-05
1.54772e-05
1.42321e-05
1.25491e-05
1.15351e-05
1.02914e-05
8.61695e-06
7.56913e-06
7.28467e-06
7.19124e-06
6.86121e-06
5.74645e-06
4.77767e-06
4.59315e-06
2.87226e-05
1.75219e-05
1.99825e-05
1.98835e-05
1.96556e-05
1.9398e-05
1.9121e-05
1.87715e-05
1.84061e-05
1.78897e-05
1.72939e-05
1.69017e-05
1.65126e-05
1.61339e-05
1.5821e-05
1.54006e-05
1.49644e-05
1.4658e-05
2.14516e-05
2.14388e-05
1.99992e-05
1.87336e-05
1.87286e-05
1.88492e-05
1.88642e-05
1.88366e-05
1.87842e-05
1.87304e-05
1.86629e-05
1.86116e-05
1.8566e-05
1.85006e-05
1.83629e-05
1.809e-05
1.7806e-05
1.75573e-05
1.8034e-05
1.84379e-05
2.01015e-05
2.00914e-05
1.98688e-05
1.81412e-05
1.56053e-05
1.54675e-05
1.56715e-05
1.6437e-05
1.7362e-05
1.78577e-05
1.8011e-05
1.80083e-05
1.78587e-05
1.72581e-05
1.67117e-05
1.64863e-05
1.64198e-05
1.64502e-05
2.07368e-05
2.13719e-05
2.42004e-05
2.50523e-05
2.45128e-05
2.25286e-05
2.09058e-05
2.0358e-05
2.06438e-05
2.14388e-05
2.18001e-05
2.18155e-05
2.14532e-05
1.97282e-05
1.73783e-05
1.58734e-05
1.51116e-05
1.48543e-05
2.20156e-05
2.38623e-05
2.40405e-05
2.5086e-05
2.66214e-05
2.66231e-05
2.63433e-05
2.61835e-05
2.61501e-05
2.61133e-05
2.59933e-05
2.5678e-05
2.49689e-05
2.3214e-05
2.09725e-05
1.91311e-05
1.8002e-05
1.73209e-05
2.1813e-05
2.15889e-05
2.19453e-05
2.35456e-05
2.43486e-05
2.55865e-05
2.90037e-05
3.18547e-05
3.28773e-05
3.29369e-05
3.248e-05
3.18475e-05
3.16394e-05
3.13624e-05
3.08206e-05
2.95567e-05
2.73222e-05
2.51067e-05
2.03071e-05
2.02456e-05
2.05401e-05
2.10119e-05
2.15703e-05
2.28852e-05
2.638e-05
2.90269e-05
2.99287e-05
2.99814e-05
2.96123e-05
2.88635e-05
2.85667e-05
2.84455e-05
2.82997e-05
2.80095e-05
2.73542e-05
2.59101e-05
2.01456e-05
2.04845e-05
2.14218e-05
2.13293e-05
2.09638e-05
2.11984e-05
2.2351e-05
2.31937e-05
2.33617e-05
2.33002e-05
2.29968e-05
2.28454e-05
2.2864e-05
2.31162e-05
2.37699e-05
2.41732e-05
2.42725e-05
2.42439e-05
2.0209e-05
2.16765e-05
2.18764e-05
2.10036e-05
2.05439e-05
2.07545e-05
2.16837e-05
2.21819e-05
2.22321e-05
2.20352e-05
2.11798e-05
2.0618e-05
2.05484e-05
2.06461e-05
2.11755e-05
2.23724e-05
2.31725e-05
2.34924e-05
2.0733e-05
2.18807e-05
2.17984e-05
2.09644e-05
2.08307e-05
2.12921e-05
2.22781e-05
2.28767e-05
2.32632e-05
2.33428e-05
2.31562e-05
2.27157e-05
2.26113e-05
2.27126e-05
2.3409e-05
2.44155e-05
2.49123e-05
2.50717e-05
2.12609e-05
2.14579e-05
2.1704e-05
2.16145e-05
2.1569e-05
2.16832e-05
2.18711e-05
2.1987e-05
2.20621e-05
2.21639e-05
2.24179e-05
2.29905e-05
2.34388e-05
2.38305e-05
2.41703e-05
2.43979e-05
2.44869e-05
2.45398e-05
2.08189e-05
2.15157e-05
2.13774e-05
2.098e-05
2.10974e-05
2.18053e-05
2.237e-05
2.25249e-05
2.252e-05
2.24963e-05
2.25428e-05
2.28479e-05
2.31019e-05
2.31385e-05
2.31286e-05
2.30421e-05
2.26691e-05
2.2445e-05
2.05253e-05
2.11038e-05
2.09371e-05
2.04553e-05
2.04264e-05
2.07816e-05
2.17815e-05
2.21968e-05
2.22277e-05
2.21928e-05
2.21911e-05
2.2233e-05
2.22537e-05
2.22465e-05
2.21989e-05
2.20346e-05
2.17615e-05
2.14089e-05
2.03686e-05
2.06651e-05
2.064e-05
2.06409e-05
2.08704e-05
2.1126e-05
2.11403e-05
2.10787e-05
2.09835e-05
2.09404e-05
2.09352e-05
2.09637e-05
2.11466e-05
2.1744e-05
2.22419e-05
2.24668e-05
2.2519e-05
2.25037e-05
2.04143e-05
2.0836e-05
2.11663e-05
2.14716e-05
2.15514e-05
2.13861e-05
2.09729e-05
2.06687e-05
2.0462e-05
2.03457e-05
2.03045e-05
2.03054e-05
2.03648e-05
2.06923e-05
2.12908e-05
2.16032e-05
2.16915e-05
2.17045e-05
2.00375e-05
2.01951e-05
2.04734e-05
2.096e-05
2.1388e-05
2.15198e-05
2.14593e-05
2.11564e-05
2.08524e-05
2.07309e-05
2.05909e-05
2.0304e-05
2.00116e-05
1.98478e-05
1.9816e-05
1.98728e-05
2.01362e-05
2.03513e-05
2.01458e-05
2.04004e-05
2.08089e-05
2.09613e-05
2.09649e-05
2.08346e-05
2.05584e-05
2.04252e-05
2.038e-05
2.03346e-05
2.02245e-05
2.01397e-05
2.01358e-05
2.01644e-05
2.02691e-05
2.05869e-05
2.08302e-05
2.08969e-05
2.01108e-05
2.02536e-05
2.03373e-05
2.03411e-05
2.0329e-05
2.03275e-05
2.03513e-05
2.04694e-05
2.0584e-05
2.06137e-05
2.06118e-05
2.05392e-05
2.04779e-05
2.04744e-05
2.05045e-05
2.07039e-05
2.13397e-05
2.17e-05
2.01888e-05
2.03484e-05
2.03842e-05
2.03594e-05
2.03116e-05
2.03155e-05
2.03792e-05
2.04545e-05
2.04924e-05
2.05446e-05
2.0532e-05
2.04721e-05
2.04558e-05
2.04541e-05
2.04551e-05
2.04599e-05
2.04726e-05
2.05061e-05
2.09435e-05
2.09825e-05
2.05839e-05
2.04769e-05
2.05096e-05
2.07369e-05
2.11313e-05
2.13291e-05
2.13743e-05
2.13572e-05
2.12152e-05
2.09417e-05
2.07909e-05
2.07265e-05
2.07067e-05
2.0696e-05
2.06857e-05
2.06839e-05
2.02218e-05
2.01898e-05
2.01805e-05
2.03686e-05
2.09678e-05
2.13034e-05
2.13615e-05
2.13035e-05
2.09923e-05
2.06735e-05
2.05378e-05
2.05061e-05
2.05144e-05
2.0593e-05
2.07048e-05
2.07525e-05
2.07732e-05
2.07829e-05
2.02845e-05
2.03113e-05
2.02966e-05
2.03402e-05
2.06404e-05
2.10668e-05
2.12397e-05
2.12696e-05
2.1246e-05
2.1091e-05
2.08517e-05
2.07198e-05
2.06577e-05
2.06294e-05
2.06178e-05
2.06148e-05
2.06138e-05
2.06094e-05
2.16366e-05
2.08531e-05
2.03305e-05
2.02334e-05
2.02469e-05
2.03028e-05
2.04004e-05
2.0734e-05
2.12336e-05
2.12827e-05
2.10949e-05
2.08356e-05
2.07435e-05
2.07166e-05
2.07092e-05
2.0706e-05
2.07019e-05
2.06918e-05
2.10265e-05
2.07096e-05
2.03631e-05
2.02901e-05
2.02671e-05
2.02196e-05
2.0212e-05
2.02691e-05
2.05437e-05
2.06448e-05
2.06244e-05
2.06151e-05
2.06095e-05
2.05952e-05
2.05448e-05
2.04774e-05
2.04372e-05
2.0419e-05
2.12064e-05
2.12804e-05
2.07449e-05
2.05716e-05
2.03782e-05
2.02577e-05
2.02564e-05
2.04019e-05
2.08131e-05
2.09236e-05
2.09322e-05
2.09129e-05
2.0812e-05
2.06038e-05
2.04729e-05
2.0432e-05
2.04342e-05
2.04504e-05
2.02316e-05
2.02139e-05
2.01078e-05
2.00092e-05
1.99953e-05
2.00249e-05
2.01283e-05
2.02143e-05
2.01995e-05
2.00649e-05
1.959e-05
1.89293e-05
1.86988e-05
1.87146e-05
1.89182e-05
1.94289e-05
2.05521e-05
2.19446e-05
2.02075e-05
1.76082e-05
1.55837e-05
1.69691e-05
2.06422e-05
2.63614e-05
3.05386e-05
3.28956e-05
3.43284e-05
3.60932e-05
3.94732e-05
4.37041e-05
5.26735e-05
6.52344e-05
8.38414e-05
0.000100758
0.000117287
0.000128803
3.18169e-05
0.000108099
0.000158585
0.00022092
0.000294243
0.000353141
0.000395853
0.000430397
0.000456712
0.000473613
0.000484853
0.000500595
0.00053272
0.000590752
0.000658508
0.000716023
0.000755987
0.000773822
0.00259375
0.00244949
0.00238803
0.00235597
0.00228321
0.00222506
0.00218878
0.00212675
0.0019733
0.00179295
0.00167274
0.00161197
0.001588
0.00157412
0.00154934
0.00148421
0.00138093
0.00130018
0.00931918
0.010864
0.0081175
0.00702336
0.00682902
0.00684455
0.00685685
0.00686233
0.00680628
0.00670395
0.0071218
0.00800362
0.00821597
0.00806859
0.00774357
0.00753279
0.00739339
0.00730422
0.00726756
0.00727335
0.00729026
0.00732469
0.0073812
0.00744383
0.0075001
0.00756802
0.00765882
0.00771089
0.00773039
0.00776801
0.00785734
0.00794904
0.00793692
0.00787825
0.00772002
0.00717189
0.00738646
0.00645963
0.00306671
0.00355304
0.00455991
0.00544855
0.00650176
0.00724474
0.00744275
0.00722329
0.00685389
0.0067034
0.00678675
0.00720049
0.00815374
0.0106018
0.0174451
0.0310313
0.0403059
0.043333
0.0466274
0.0598917
0.0845952
0.0954975
0.0960829
0.105292
0.105397
0.0395748
0.00496378
0.00184102
0.0013686
0.00128668
0.00120751
0.00106529
0.000876926
0.000670713
0.000514112
0.000423787
0.000300213
0.000244954
0.000200282
0.000173563
0.000159933
0.000154898
0.000154898
0.000154378
0.000154011
0.00015298
0.000151982
0.000151356
0.000151053
0.000150185
0.000149377
0.000148811
0.00014768
0.000146837
0.000146024
0.000144988
0.000144259
0.000143362
0.00014255
0.000141944
0.000141113
0.00014022
0.000139146
0.000138607
0.000137532
0.000136791
0.000135638
0.000134167
0.000132706
0.000131121
0.000128962
0.000126682
0.000123966
0.000120753
0.000116977
0.000112533
0.0001074
0.000101566
9.50444e-05
8.79002e-05
8.04821e-05
7.30149e-05
6.57474e-05
5.9001e-05
5.3094e-05
4.81236e-05
4.38955e-05
4.01193e-05
3.64955e-05
3.27711e-05
2.89362e-05
2.50767e-05
2.11839e-05
1.73074e-05
1.36746e-05
1.05522e-05
8.0725e-06
6.17147e-06
4.73604e-06
3.65422e-06
2.83541e-06
2.21247e-06
1.73703e-06
1.37352e-06
1.09485e-06
8.80639e-07
7.15434e-07
5.8704e-07
4.86258e-07
4.06327e-07
3.42195e-07
2.90019e-07
2.46871e-07
2.10576e-07
1.79589e-07
1.52852e-07
1.29644e-07
1.09462e-07
9.19338e-08
7.67618e-08
6.36881e-08
5.24861e-08
4.29435e-08
3.48706e-08
2.8086e-08
2.24328e-08
1.77549e-08
1.39225e-08
1.08011e-08
8.2929e-09
6.28496e-09
4.71197e-09
3.47246e-09
2.53603e-09
1.80348e-09
1.27795e-09
8.78566e-10
5.47373e-10
5.82599e-10
6.17346e-08
4.16646e-06
3.20957e-06
0.00846393
0.00965217
0.00820415
0.00702595
0.00660839
0.00667274
0.00671415
0.00663535
0.00643521
0.00607674
0.00589995
0.0056358
0.00532428
0.00508038
0.00489183
0.00474679
0.00470103
0.00467645
0.00468425
0.00470398
0.0047223
0.00474675
0.00476037
0.00477934
0.00478655
0.00478244
0.00478104
0.00479341
0.00482726
0.00490865
0.00498633
0.00514547
0.00531489
0.00550497
0.00585482
0.00600219
0.00653571
0.00652867
0.00621594
0.00588725
0.00514771
0.00464424
0.00446307
0.00398583
0.0030374
0.00245268
0.00230059
0.00233482
0.00227571
0.00217641
0.00219099
0.00243007
0.00309918
0.00433087
0.00779912
0.00811008
0.00792338
0.00935981
0.0156706
0.0560758
0.0849908
0.0602545
0.0295195
0.00817847
0.00197159
0.00100899
0.00072541
0.000591854
0.000478423
0.000386132
0.000327435
0.000291715
0.000272171
0.000262563
0.000256635
0.0002544
0.000253337
0.00025263
0.000250088
0.000246743
0.000244282
0.000241246
0.000236815
0.00023163
0.000226164
0.000221333
0.000217091
0.000212306
0.00020812
0.000204781
0.000199865
0.000196068
0.000192192
0.000189819
0.000187821
0.000184161
0.000182333
0.000181115
0.000178607
0.000176487
0.000175431
0.000173489
0.000172561
0.000170653
0.000169722
0.000168523
0.000167875
0.000167534
0.000167628
0.00016823
0.000169349
0.000170995
0.000172838
0.000173768
0.000173992
0.000173692
0.000172854
0.000171559
0.000169081
0.000165056
0.000159299
0.000151573
0.000141941
0.000131399
0.000121201
0.000111562
0.000102439
9.40308e-05
8.62897e-05
7.90033e-05
7.20382e-05
6.53973e-05
5.91461e-05
5.32793e-05
4.77144e-05
4.24224e-05
3.73778e-05
3.25714e-05
2.80275e-05
2.37994e-05
1.99553e-05
1.65602e-05
1.36315e-05
1.11593e-05
9.13422e-06
7.49437e-06
6.16011e-06
5.07629e-06
4.20201e-06
3.50267e-06
2.94585e-06
2.50033e-06
2.13736e-06
1.83564e-06
1.58014e-06
1.3604e-06
1.16931e-06
1.00207e-06
8.5525e-07
7.26373e-07
6.13408e-07
5.1474e-07
4.28847e-07
3.54578e-07
2.90758e-07
2.3645e-07
1.90368e-07
1.51797e-07
1.19519e-07
9.31833e-08
7.14136e-08
5.43545e-08
4.01929e-08
3.00052e-08
2.0826e-08
1.5869e-08
9.06461e-09
1.06353e-08
4.65383e-07
6.08994e-07
0.0063598
0.00763787
0.00760312
0.00719951
0.00706359
0.00695642
0.00672211
0.00623238
0.00540038
0.00467648
0.00429663
0.00414437
0.00410215
0.0041144
0.00416121
0.0042318
0.0043818
0.00453457
0.00470938
0.00497044
0.00514606
0.00540559
0.00558116
0.00575763
0.00587653
0.00586916
0.00581796
0.00568974
0.00548358
0.00527441
0.00512002
0.00501351
0.00489504
0.00480305
0.0047452
0.00474098
0.00478853
0.00498796
0.00535241
0.00546926
0.00536493
0.00506965
0.00485954
0.00442514
0.00404421
0.00398095
0.00389938
0.00387068
0.00381272
0.00349677
0.00287185
0.00272446
0.00290741
0.00379721
0.00381515
0.00386316
0.0049363
0.0150197
0.0377449
0.0456167
0.0305664
0.0121414
0.00461899
0.00144736
0.000655144
0.000466839
0.000391241
0.00035008
0.000328872
0.000313894
0.00030707
0.000304195
0.00030405
0.000312485
0.00031822
0.000327603
0.000334036
0.000341943
0.000345732
0.000349421
0.000350406
0.000350048
0.000343383
0.000337646
0.000331292
0.000319602
0.000303516
0.000295089
0.000285966
0.000270574
0.000260011
0.000253471
0.000239997
0.00023358
0.000229539
0.000221214
0.000215409
0.000212627
0.000207606
0.00020257
0.000199855
0.000193681
0.000190563
0.000184169
0.000179099
0.000172845
0.000167285
0.000161969
0.000157385
0.000153778
0.000151385
0.000150167
0.000150206
0.000152877
0.000157226
0.000162675
0.000168688
0.000173679
0.000176598
0.00017805
0.000178299
0.000177592
0.00017534
0.000169775
0.000160002
0.000147043
0.0001323
0.000117876
0.000105914
9.7057e-05
9.00174e-05
8.32181e-05
7.60763e-05
6.89576e-05
6.25897e-05
5.73504e-05
5.31547e-05
4.97336e-05
4.67237e-05
4.3777e-05
4.06567e-05
3.72627e-05
3.36356e-05
2.98863e-05
2.61151e-05
2.24425e-05
1.89861e-05
1.58278e-05
1.3023e-05
1.06023e-05
8.57076e-06
6.91064e-06
5.58617e-06
4.54755e-06
3.74065e-06
3.11481e-06
2.62651e-06
2.24068e-06
1.93001e-06
1.674e-06
1.4578e-06
1.27131e-06
1.10765e-06
9.6235e-07
8.32139e-07
7.15189e-07
6.10013e-07
5.1601e-07
4.32114e-07
3.58026e-07
2.93168e-07
2.36511e-07
1.8909e-07
1.46884e-07
1.15462e-07
8.35784e-08
6.74154e-08
3.99438e-08
4.84493e-08
6.56015e-08
0.00205127
0.0038376
0.00518759
0.00722401
0.00696921
0.00623274
0.00510641
0.00417335
0.0039077
0.00389116
0.00393579
0.00405072
0.00424455
0.00459516
0.00510222
0.00562058
0.00634015
0.00704614
0.00780631
0.00871727
0.00947428
0.010307
0.0110415
0.0115919
0.0121084
0.0122059
0.0121174
0.0118442
0.0112547
0.0101823
0.0088544
0.00763499
0.00659574
0.00583941
0.00528352
0.00492339
0.00476948
0.00460072
0.00452037
0.00453615
0.0046632
0.00472628
0.00469962
0.00458605
0.00445783
0.00442406
0.00439585
0.00437861
0.00434394
0.00411333
0.00355482
0.0035398
0.00375502
0.00367397
0.00367622
0.00493528
0.0166929
0.0265944
0.0298518
0.0146157
0.00699548
0.00263962
0.00106047
0.000545172
0.00041938
0.000383065
0.00036865
0.000363258
0.000363489
0.000381584
0.000412298
0.000456809
0.000510483
0.000572639
0.000634748
0.00069107
0.000737977
0.000782129
0.000820765
0.000847487
0.000857196
0.000858637
0.000838212
0.000818198
0.000807274
0.00076416
0.000717704
0.000698334
0.000665543
0.000607535
0.000581334
0.000560353
0.000517644
0.000495446
0.000483937
0.00046229
0.000445942
0.000438776
0.000426877
0.000414328
0.000406534
0.000389417
0.000374714
0.000353884
0.000331382
0.00030605
0.000278007
0.000249151
0.000220782
0.000194985
0.00017343
0.000157093
0.000145731
0.000138636
0.00013503
0.000133972
0.000134666
0.000138891
0.000147377
0.000157938
0.000168287
0.000175564
0.00017949
0.000181256
0.000181518
0.000180775
0.000177777
0.000170334
0.00015906
0.000145634
0.000133316
0.000123056
0.000114134
0.00010521
9.54328e-05
8.50809e-05
7.51412e-05
6.63852e-05
5.9172e-05
5.341e-05
4.87989e-05
4.5052e-05
4.19538e-05
3.92195e-05
3.64115e-05
3.32161e-05
2.96271e-05
2.58416e-05
2.20461e-05
1.84093e-05
1.50854e-05
1.21687e-05
9.68629e-06
7.62245e-06
5.94708e-06
4.62602e-06
3.61699e-06
2.86687e-06
2.31748e-06
1.91356e-06
1.61108e-06
1.37807e-06
1.1925e-06
1.03942e-06
9.09458e-07
7.96194e-07
6.96153e-07
6.06134e-07
5.25097e-07
4.5117e-07
3.84383e-07
3.23755e-07
2.69907e-07
2.2146e-07
1.80335e-07
1.4305e-07
1.13537e-07
8.64984e-08
6.65122e-08
5.01974e-08
0.00251601
0.004109
0.00499114
0.0044806
0.00356237
0.00341069
0.00344228
0.00355453
0.00382734
0.00416099
0.00463986
0.0051502
0.00578238
0.00640937
0.0071085
0.00790246
0.00881544
0.00983116
0.0109245
0.0120598
0.0131801
0.0142817
0.0153476
0.0162101
0.0169889
0.0177638
0.0180982
0.0180743
0.0178674
0.0173454
0.0162409
0.0144416
0.0122037
0.00982269
0.00764232
0.00619665
0.00533578
0.00482021
0.00455739
0.00430625
0.00424973
0.00425876
0.00430317
0.00436701
0.00441138
0.00454791
0.00455515
0.00453352
0.00447946
0.0040887
0.00370626
0.00379147
0.00419906
0.00494399
0.00835295
0.0162858
0.0203275
0.0212861
0.0100044
0.00423517
0.00184456
0.00084251
0.000520341
0.00043103
0.00040749
0.000399052
0.000401333
0.000431617
0.000482045
0.000569533
0.000692888
0.000856673
0.00105585
0.00128406
0.00151968
0.00168267
0.00175826
0.00179181
0.0017967
0.0017538
0.00165524
0.00156538
0.0014825
0.00142116
0.00135479
0.00128713
0.00123441
0.0012091
0.00117085
0.00111568
0.00109188
0.00107175
0.00103159
0.00100599
0.000993206
0.00096888
0.000952615
0.000944819
0.000930844
0.000920427
0.000908056
0.000891505
0.00086955
0.000839889
0.000799832
0.000748686
0.000685948
0.000613315
0.000532145
0.000445768
0.000360892
0.000289667
0.000232723
0.000188152
0.000157936
0.000140204
0.000131388
0.000127772
0.000126971
0.00012767
0.00013178
0.000141955
0.000154948
0.000166888
0.000174773
0.00017906
0.000180474
0.00018032
0.000178068
0.000169546
0.000153012
0.000137513
0.000125957
0.000117359
0.000109866
0.000102092
9.35636e-05
8.48719e-05
7.69689e-05
7.06337e-05
6.59617e-05
6.24284e-05
5.9336e-05
5.63311e-05
5.35634e-05
5.1183e-05
4.89463e-05
4.63223e-05
4.2915e-05
3.86682e-05
3.38083e-05
2.8628e-05
2.33333e-05
1.81301e-05
1.33494e-05
9.35192e-06
6.34311e-06
4.30834e-06
3.03476e-06
2.26123e-06
1.78092e-06
1.46192e-06
1.22974e-06
1.04678e-06
8.9521e-07
7.67181e-07
6.58734e-07
5.6707e-07
4.88917e-07
4.21697e-07
3.62739e-07
3.10598e-07
2.63764e-07
2.21739e-07
1.84508e-07
1.51004e-07
1.22877e-07
9.69565e-08
7.73077e-08
5.83867e-08
0.00367341
0.00278134
0.00245549
0.00259594
0.00290465
0.00341298
0.00391042
0.00445274
0.00482274
0.00514606
0.00549889
0.00591016
0.00641748
0.00700076
0.00768395
0.00853175
0.00951674
0.0106079
0.0117655
0.0129504
0.014141
0.0153203
0.016438
0.0174435
0.0183722
0.019177
0.0197244
0.0199747
0.0200131
0.0198912
0.0194208
0.0182531
0.016514
0.0143255
0.0118763
0.00937995
0.00718659
0.00569302
0.00484114
0.00439104
0.00414243
0.00402803
0.00402504
0.00404249
0.00414685
0.00425239
0.0042246
0.0041357
0.00377878
0.00358772
0.00383156
0.00503898
0.00931402
0.0124706
0.0150375
0.0166515
0.0164211
0.00772803
0.00321752
0.00141287
0.000744426
0.000518524
0.000457419
0.000443702
0.000450414
0.000485423
0.000530646
0.000624682
0.000761428
0.00098192
0.00132843
0.00184189
0.00252834
0.00291601
0.00304369
0.00306865
0.00292133
0.00242171
0.00215556
0.00203621
0.00186888
0.00167719
0.00159289
0.00151083
0.00139608
0.00133486
0.00128202
0.00125292
0.00122311
0.00118806
0.00117499
0.00116512
0.00114487
0.00113168
0.00112505
0.00111127
0.00110328
0.00109904
0.00109105
0.00108657
0.00108049
0.0010734
0.0010642
0.00105216
0.00103652
0.00101661
0.000991146
0.000956769
0.000911468
0.000851746
0.000772285
0.000664695
0.000538703
0.000410224
0.000297581
0.000221243
0.000171598
0.000143914
0.000130693
0.000125344
0.000123335
0.000122777
0.00012393
0.00013057
0.000144579
0.000158382
0.00016856
0.000174395
0.000176437
0.000176262
0.000173256
0.000161315
0.000141444
0.000125529
0.000115024
0.000107833
0.000101604
9.48406e-05
8.73028e-05
7.9615e-05
7.27896e-05
6.76197e-05
6.4178e-05
6.18223e-05
5.97059e-05
5.73533e-05
5.48493e-05
5.25284e-05
5.05082e-05
4.84914e-05
4.59584e-05
4.25067e-05
3.80452e-05
3.27865e-05
2.7157e-05
2.1695e-05
1.6857e-05
1.28404e-05
9.64533e-06
7.18094e-06
5.34486e-06
4.0352e-06
3.09657e-06
2.36826e-06
1.78854e-06
1.34056e-06
1.00619e-06
7.63144e-07
5.89208e-07
4.64953e-07
3.7516e-07
3.0844e-07
2.57124e-07
2.15635e-07
1.80601e-07
1.49776e-07
1.22875e-07
9.9188e-08
7.8975e-08
6.18318e-08
0.0013317
0.00200753
0.00237157
0.00323785
0.00405469
0.00446212
0.00467302
0.00488184
0.00511715
0.00541037
0.00569135
0.00609097
0.00654057
0.00706396
0.00763338
0.00819339
0.00879527
0.00945644
0.0101787
0.0109876
0.0119472
0.0130645
0.0142596
0.0153986
0.0164056
0.0172718
0.0180215
0.0186075
0.0189543
0.019083
0.0186449
0.0174416
0.0158268
0.0138993
0.0118855
0.00999061
0.00829795
0.00682344
0.00560019
0.00474167
0.00422146
0.00399161
0.0038929
0.0038713
0.00387109
0.00385506
0.00382288
0.0036046
0.00344442
0.00379569
0.00653978
0.0119101
0.0134295
0.0140167
0.0145065
0.0130992
0.00626204
0.00267983
0.00122223
0.000692352
0.000523576
0.000477718
0.000467951
0.000481395
0.000519617
0.000583165
0.000689843
0.000885144
0.0012104
0.00176147
0.00267408
0.0038968
0.00437519
0.00448308
0.00442321
0.00375449
0.00283035
0.00248744
0.00224922
0.00183906
0.00150278
0.00136523
0.00122602
0.00104731
0.000955152
0.00089082
0.000836064
0.000812299
0.000794386
0.000787715
0.00078997
0.000814443
0.000839362
0.000860497
0.000876152
0.000892148
0.000908012
0.000919576
0.000933369
0.000946933
0.000962277
0.000977177
0.000989362
0.00100058
0.0010088
0.0010115
0.00100643
0.000993628
0.000973356
0.000945109
0.000908862
0.000864839
0.000807346
0.000729099
0.000618768
0.000471272
0.000327989
0.000227609
0.000170551
0.000141563
0.000128223
0.000122055
0.000118839
0.000117401
0.00011791
0.00012313
0.000136984
0.000150871
0.000160884
0.000166232
0.000167632
0.000166802
0.000160673
0.000142013
0.000122995
0.00011045
0.000103102
9.804e-05
9.30054e-05
8.70497e-05
8.03053e-05
7.35619e-05
6.78134e-05
6.37547e-05
6.13317e-05
5.96956e-05
5.78357e-05
5.53215e-05
5.24824e-05
4.9956e-05
4.80455e-05
4.64479e-05
4.4507e-05
4.16666e-05
3.77664e-05
3.30435e-05
2.79457e-05
2.29285e-05
1.83353e-05
1.43643e-05
1.10875e-05
8.4841e-06
6.46276e-06
4.88264e-06
3.61982e-06
2.62103e-06
1.85853e-06
1.29867e-06
9.02048e-07
6.29671e-07
4.47101e-07
3.26258e-07
2.46107e-07
1.91848e-07
1.54132e-07
1.26476e-07
1.04603e-07
8.65306e-08
7.0433e-08
5.73268e-08
0.0012955
0.00255285
0.00340157
0.00425137
0.00450995
0.00469757
0.00484631
0.00502119
0.0052351
0.00547582
0.00554923
0.0055746
0.00566964
0.00579739
0.00590944
0.00602338
0.00614584
0.00627747
0.00642167
0.0066027
0.0068322
0.00711612
0.00745244
0.00783741
0.00828242
0.00880218
0.00937432
0.0100104
0.0106995
0.0112152
0.0114948
0.0115605
0.0112343
0.0105575
0.00962859
0.00856844
0.00743576
0.00631168
0.00533685
0.00459164
0.00413248
0.00386352
0.00374786
0.00369635
0.00367898
0.003655
0.00340713
0.00324347
0.00385301
0.00843321
0.0124647
0.0133593
0.0134573
0.0130067
0.0105785
0.00512496
0.00232261
0.00111697
0.000668278
0.00052486
0.000491122
0.000489943
0.000520193
0.000589344
0.000672118
0.000815344
0.00108529
0.00151975
0.00221709
0.00334015
0.00509174
0.0060713
0.00625535
0.00613475
0.00520488
0.00363176
0.00287613
0.00250685
0.00200465
0.00139991
0.00117115
0.00104809
0.000867504
0.000767394
0.000718658
0.000638932
0.000587681
0.000560512
0.000511215
0.000473331
0.000446323
0.000423029
0.000411628
0.000405001
0.000400822
0.000399481
0.000403173
0.000405873
0.000412619
0.000422056
0.000438413
0.000465942
0.000509439
0.000565236
0.000632406
0.000706152
0.000776897
0.0008299
0.000863638
0.000882681
0.000884831
0.000869243
0.00083795
0.000795551
0.000742911
0.000678271
0.000584272
0.000444747
0.000298948
0.000204864
0.000156852
0.000134247
0.000122851
0.000116308
0.000112563
0.000111296
0.000112326
0.000118462
0.000131247
0.000142534
0.000150061
0.000153335
0.000153633
0.000151325
0.000139352
0.000118594
0.000104307
9.67838e-05
9.28482e-05
8.95019e-05
8.50678e-05
7.93672e-05
7.32949e-05
6.77006e-05
6.31126e-05
6e-05
5.83063e-05
5.71098e-05
5.53134e-05
5.26283e-05
4.96203e-05
4.70049e-05
4.51194e-05
4.37196e-05
4.21369e-05
3.98012e-05
3.65127e-05
3.24325e-05
2.79186e-05
2.33546e-05
1.90487e-05
1.52022e-05
1.19148e-05
9.19701e-06
6.98164e-06
5.17484e-06
3.72296e-06
2.5988e-06
1.76525e-06
1.1727e-06
7.67565e-07
5.00291e-07
3.29239e-07
2.22314e-07
1.55864e-07
1.14762e-07
8.81075e-08
7.07927e-08
5.69344e-08
4.7626e-08
0.00201312
0.00333984
0.00408323
0.00451281
0.00467079
0.00480425
0.00493832
0.00507324
0.00517781
0.00526822
0.00534196
0.00540438
0.0054414
0.00546002
0.00549281
0.00552562
0.00555593
0.00558275
0.00560977
0.00564469
0.00567375
0.00570304
0.00571457
0.0057175
0.00571563
0.00571016
0.00570609
0.00571364
0.00573438
0.00578428
0.0058697
0.00597436
0.00606663
0.00612957
0.00610561
0.00590353
0.00554333
0.00506908
0.00458523
0.00416804
0.00386183
0.00367618
0.0036142
0.00358136
0.00350963
0.00316373
0.0030572
0.00388654
0.00871891
0.0122224
0.0129206
0.012958
0.0119671
0.00875562
0.00440757
0.00208449
0.00105027
0.000649174
0.000517111
0.000485892
0.000499093
0.000546231
0.000622239
0.000692512
0.000792037
0.000969302
0.001314
0.00198526
0.00323339
0.00535218
0.007748
0.00858641
0.00872298
0.00829143
0.00644212
0.00431585
0.00355889
0.00317389
0.00257474
0.00201203
0.00182575
0.00170336
0.0013872
0.00125146
0.00117865
0.000979154
0.000815737
0.000737946
0.000619256
0.000537745
0.000469582
0.000410375
0.00037685
0.000352187
0.000330603
0.000312368
0.000299591
0.000286992
0.000275439
0.000263306
0.000250503
0.000237302
0.000224711
0.000217692
0.000222107
0.000242953
0.000288427
0.000362806
0.000457718
0.000552172
0.000633024
0.000688443
0.000720688
0.000732781
0.000726042
0.000694648
0.000647283
0.000585981
0.000495766
0.00036065
0.000237269
0.000171948
0.000140767
0.000124503
0.000114483
0.000108398
0.000105547
0.000105389
0.000107488
0.000114755
0.000123858
0.000131303
0.000135734
0.000137057
0.000136555
0.000131567
0.000114851
9.90208e-05
8.99757e-05
8.58043e-05
8.39833e-05
8.18758e-05
7.77999e-05
7.22958e-05
6.67074e-05
6.20943e-05
5.87411e-05
5.65835e-05
5.54768e-05
5.44934e-05
5.24781e-05
4.95531e-05
4.65287e-05
4.3989e-05
4.21768e-05
4.09294e-05
3.96792e-05
3.78334e-05
3.51154e-05
3.1604e-05
2.75677e-05
2.33315e-05
1.91933e-05
1.53826e-05
1.20381e-05
9.19968e-06
6.83791e-06
4.91937e-06
3.42063e-06
2.30197e-06
1.50334e-06
9.56574e-07
5.96458e-07
3.6793e-07
2.27383e-07
1.43606e-07
9.40684e-08
6.59815e-08
4.80136e-08
3.85548e-08
0.00217617
0.00362953
0.00438097
0.00463551
0.00474654
0.00486679
0.00500518
0.00511804
0.00518535
0.00523057
0.00525893
0.00526651
0.00527011
0.00527712
0.00528806
0.00529673
0.00530707
0.00531734
0.00534434
0.00538354
0.00542425
0.00547217
0.0054979
0.00551931
0.00552537
0.00549976
0.00543713
0.00533863
0.00519143
0.00500202
0.00481694
0.00465329
0.00450274
0.00436756
0.0042792
0.00420042
0.00411907
0.00399579
0.00385382
0.00371713
0.00360285
0.00352099
0.00345389
0.00328405
0.00284125
0.00280286
0.00370448
0.00829788
0.0116707
0.0123578
0.0122657
0.0107346
0.00721418
0.00397158
0.00194526
0.00101397
0.000632283
0.000503386
0.000473665
0.000482701
0.0005299
0.000593305
0.000663102
0.000748637
0.000870888
0.00111855
0.00166811
0.00270249
0.00453429
0.00771407
0.0111091
0.011948
0.0120381
0.0117812
0.00989917
0.00742233
0.00692161
0.00689521
0.00688486
0.00655112
0.00614372
0.00601479
0.00536971
0.00455115
0.00422049
0.00338595
0.00249551
0.00206213
0.00155947
0.00122021
0.000959931
0.000751807
0.000610248
0.000532286
0.000473104
0.000425216
0.000395796
0.000369463
0.000346085
0.000320103
0.000289285
0.000254319
0.00021881
0.000186631
0.000160991
0.000142697
0.000131323
0.000132321
0.000150231
0.000188268
0.000245215
0.000318428
0.000389763
0.000451625
0.00050726
0.000552638
0.000576386
0.000576478
0.000544115
0.000480516
0.000383513
0.000259559
0.000181159
0.000144013
0.000124614
0.000112249
0.000104417
0.000100409
9.94781e-05
0.000100186
0.000103352
0.000108621
0.000114243
0.000118786
0.000120989
0.000121197
0.000119517
0.000110101
9.45599e-05
8.4997e-05
8.04334e-05
7.85239e-05
7.7287e-05
7.51704e-05
7.07203e-05
6.54312e-05
6.07139e-05
5.72356e-05
5.49737e-05
5.37103e-05
5.29425e-05
5.17297e-05
4.925e-05
4.62385e-05
4.33943e-05
4.09541e-05
3.91808e-05
3.81294e-05
3.7305e-05
3.5986e-05
3.37312e-05
3.05472e-05
2.66919e-05
2.25176e-05
1.83736e-05
1.45361e-05
1.11661e-05
8.31549e-06
5.98386e-06
4.155e-06
2.78621e-06
1.80758e-06
1.1371e-06
6.95822e-07
4.15849e-07
2.45103e-07
1.43405e-07
8.60933e-08
5.31235e-08
3.59454e-08
0.00243291
0.00403599
0.00452499
0.00469366
0.00479787
0.00493631
0.0050436
0.00509479
0.00511339
0.00511579
0.00509581
0.00503569
0.00496996
0.00490863
0.00483364
0.00475127
0.00468166
0.00464392
0.00462999
0.00468381
0.0048015
0.00493454
0.00509493
0.00526423
0.00541139
0.00553583
0.00562981
0.00566997
0.00566653
0.00559855
0.00541968
0.00513074
0.00476073
0.00434053
0.00401427
0.00377705
0.0036176
0.00349228
0.00341468
0.00330485
0.00317746
0.00299957
0.00282075
0.00262683
0.00260691
0.00347063
0.00765539
0.0110033
0.0117473
0.011615
0.00954741
0.00622824
0.00359407
0.00187248
0.00100416
0.000625407
0.000487938
0.000451812
0.000447824
0.000482966
0.000535244
0.000595827
0.000662913
0.000753479
0.000903186
0.00121121
0.00184112
0.00308254
0.00545599
0.00950174
0.0148711
0.0177961
0.0185969
0.0188631
0.0181765
0.0162869
0.0163085
0.0178655
0.0202938
0.0216127
0.0221342
0.0212786
0.0203993
0.0174499
0.0156059
0.0127646
0.00943211
0.00714819
0.00511387
0.00362173
0.00262313
0.00192125
0.0014493
0.00116922
0.00100883
0.00089225
0.000828826
0.000783488
0.00074729
0.000702847
0.000636228
0.000543693
0.000433139
0.000321785
0.000227553
0.000161357
0.000122312
0.00010053
8.83982e-05
8.58878e-05
9.53784e-05
0.000121228
0.000158691
0.000195473
0.000224875
0.00025763
0.00031064
0.000383503
0.000446611
0.000464432
0.000443572
0.000371014
0.000266491
0.000183602
0.000143075
0.000122225
0.000109108
0.000100491
9.5714e-05
9.41565e-05
9.44146e-05
9.62269e-05
9.87077e-05
0.00010214
0.000106053
0.000108615
0.000109217
0.000108555
0.000103759
9.06855e-05
8.10733e-05
7.61473e-05
7.42215e-05
7.3225e-05
7.18052e-05
6.8573e-05
6.36827e-05
5.9052e-05
5.54904e-05
5.31439e-05
5.18194e-05
5.10472e-05
5.02816e-05
4.86794e-05
4.57377e-05
4.26116e-05
4.00156e-05
3.80238e-05
3.65627e-05
3.56201e-05
3.49942e-05
3.40862e-05
3.20821e-05
2.8817e-05
2.4827e-05
2.05457e-05
1.63833e-05
1.26239e-05
9.40375e-06
6.76003e-06
4.68507e-06
3.13278e-06
2.02429e-06
1.2662e-06
7.67846e-07
4.52773e-07
2.60172e-07
1.4707e-07
8.2373e-08
4.67485e-08
0.00270712
0.00421249
0.00457965
0.00471286
0.00481196
0.00490854
0.00494079
0.00493353
0.00482491
0.00463935
0.00435707
0.00393103
0.00345847
0.0031471
0.00286791
0.00265002
0.00254039
0.00246022
0.00242252
0.00240935
0.0024319
0.00247693
0.00260936
0.00284968
0.0031842
0.00364964
0.00419144
0.00478954
0.00531476
0.00562165
0.00577699
0.00584825
0.00575257
0.0055404