/*--------------------------------*- C++ -*----------------------------------*\
  =========                 |
  \\      /  F ield         | OpenFOAM: The Open Source CFD Toolbox
   \\    /   O peration     | Website:  https://openfoam.org
    \\  /    A nd           | Version:  7
     \\/     M anipulation  |
\*---------------------------------------------------------------------------*/
FoamFile
{
    version     2.0;
    format      ascii;
    class       volScalarField;
    location    "0.076";
    object      k_0;
}
// * * * * * * * * * * * * * * * * * * * * * * * * * * * * * * * * * * * * * //

dimensions      [0 2 -2 0 0 0 0];

internalField   nonuniform List<scalar> 
12225
(
1.93229e-05
1.81961e-05
1.66476e-05
1.54804e-05
1.42293e-05
1.25477e-05
1.15386e-05
1.02883e-05
8.61312e-06
7.57362e-06
7.29451e-06
7.20081e-06
6.86461e-06
5.73938e-06
4.77663e-06
4.59373e-06
2.86386e-05
1.74596e-05
1.99825e-05
1.98834e-05
1.96554e-05
1.93988e-05
1.91214e-05
1.87727e-05
1.84056e-05
1.78863e-05
1.7294e-05
1.69052e-05
1.65145e-05
1.61353e-05
1.58207e-05
1.53988e-05
1.49661e-05
1.4667e-05
2.14535e-05
2.1447e-05
1.99992e-05
1.8734e-05
1.8733e-05
1.88539e-05
1.88666e-05
1.88381e-05
1.87858e-05
1.8732e-05
1.86648e-05
1.8614e-05
1.85682e-05
1.85011e-05
1.83578e-05
1.80822e-05
1.77995e-05
1.75578e-05
1.80362e-05
1.8455e-05
2.01055e-05
2.00962e-05
1.98671e-05
1.80812e-05
1.55854e-05
1.54658e-05
1.56809e-05
1.64719e-05
1.73871e-05
1.78685e-05
1.80117e-05
1.80051e-05
1.78404e-05
1.72181e-05
1.66884e-05
1.64745e-05
1.64131e-05
1.6445e-05
2.07486e-05
2.13905e-05
2.42822e-05
2.5083e-05
2.45075e-05
2.24826e-05
2.09116e-05
2.04162e-05
2.07239e-05
2.1504e-05
2.18366e-05
2.18392e-05
2.14351e-05
1.96112e-05
1.7283e-05
1.58127e-05
1.50817e-05
1.48414e-05
2.20092e-05
2.37834e-05
2.40187e-05
2.51305e-05
2.66378e-05
2.66268e-05
2.63442e-05
2.61971e-05
2.61667e-05
2.61281e-05
2.60009e-05
2.5671e-05
2.49316e-05
2.31202e-05
2.0887e-05
1.90732e-05
1.79736e-05
1.73213e-05
2.16935e-05
2.15301e-05
2.19542e-05
2.35694e-05
2.4363e-05
2.56554e-05
2.91536e-05
3.19437e-05
3.2913e-05
3.29524e-05
3.24583e-05
3.18416e-05
3.16364e-05
3.13513e-05
3.07927e-05
2.94716e-05
2.72148e-05
2.50163e-05
2.0272e-05
2.02391e-05
2.05567e-05
2.10291e-05
2.1599e-05
2.29637e-05
2.6511e-05
2.90873e-05
2.99371e-05
2.99725e-05
2.95675e-05
2.88297e-05
2.85462e-05
2.84275e-05
2.82779e-05
2.79767e-05
2.72906e-05
2.58172e-05
2.01437e-05
2.05042e-05
2.14287e-05
2.13145e-05
2.09628e-05
2.12204e-05
2.24e-05
2.32066e-05
2.3357e-05
2.3286e-05
2.29747e-05
2.28354e-05
2.28599e-05
2.31371e-05
2.37944e-05
2.41797e-05
2.42664e-05
2.4232e-05
2.02312e-05
2.17016e-05
2.1851e-05
2.09618e-05
2.05396e-05
2.07746e-05
2.17238e-05
2.2196e-05
2.22366e-05
2.20181e-05
2.11384e-05
2.06062e-05
2.05487e-05
2.06573e-05
2.12321e-05
2.24311e-05
2.32052e-05
2.35054e-05
2.07753e-05
2.18549e-05
2.17575e-05
2.09336e-05
2.08323e-05
2.13345e-05
2.23141e-05
2.29019e-05
2.32782e-05
2.33461e-05
2.31408e-05
2.27078e-05
2.26159e-05
2.2733e-05
2.34807e-05
2.44673e-05
2.49405e-05
2.50874e-05
2.13052e-05
2.14471e-05
2.16889e-05
2.16049e-05
2.15708e-05
2.16933e-05
2.18772e-05
2.19898e-05
2.20641e-05
2.21685e-05
2.24361e-05
2.30161e-05
2.34612e-05
2.38523e-05
2.41882e-05
2.44083e-05
2.44912e-05
2.45408e-05
2.08526e-05
2.15212e-05
2.1365e-05
2.09709e-05
2.11069e-05
2.18394e-05
2.23837e-05
2.25261e-05
2.25172e-05
2.24942e-05
2.25462e-05
2.28648e-05
2.31068e-05
2.31382e-05
2.31255e-05
2.30294e-05
2.26419e-05
2.2424e-05
2.055e-05
2.11114e-05
2.09239e-05
2.04446e-05
2.0426e-05
2.081e-05
2.18129e-05
2.22039e-05
2.22276e-05
2.21908e-05
2.21906e-05
2.22347e-05
2.22533e-05
2.2245e-05
2.2193e-05
2.20184e-05
2.17413e-05
2.13883e-05
2.03848e-05
2.06694e-05
2.06389e-05
2.06421e-05
2.08852e-05
2.11316e-05
2.11404e-05
2.1073e-05
2.09794e-05
2.09383e-05
2.09343e-05
2.09662e-05
2.11651e-05
2.17798e-05
2.22623e-05
2.24752e-05
2.25214e-05
2.25031e-05
2.04348e-05
2.08494e-05
2.1179e-05
2.14788e-05
2.15477e-05
2.13717e-05
2.09572e-05
2.06579e-05
2.04549e-05
2.03421e-05
2.03036e-05
2.03059e-05
2.03718e-05
2.07247e-05
2.13165e-05
2.1615e-05
2.16953e-05
2.17054e-05
2.00325e-05
2.02026e-05
2.04868e-05
2.09763e-05
2.13981e-05
2.15181e-05
2.14547e-05
2.11399e-05
2.08436e-05
2.07251e-05
2.0581e-05
2.02897e-05
2.00012e-05
1.98447e-05
1.98181e-05
1.98829e-05
2.01562e-05
2.03612e-05
2.01394e-05
2.04117e-05
2.08188e-05
2.09647e-05
2.0965e-05
2.08237e-05
2.05499e-05
2.04214e-05
2.03779e-05
2.03315e-05
2.02202e-05
2.01403e-05
2.01383e-05
2.0169e-05
2.0281e-05
2.06057e-05
2.08367e-05
2.08961e-05
2.0114e-05
2.02576e-05
2.03391e-05
2.0341e-05
2.03286e-05
2.03275e-05
2.03535e-05
2.04761e-05
2.05866e-05
2.06142e-05
2.06108e-05
2.05344e-05
2.04768e-05
2.04746e-05
2.05085e-05
2.07285e-05
2.13733e-05
2.17058e-05
2.01842e-05
2.03511e-05
2.03853e-05
2.03578e-05
2.03108e-05
2.0316e-05
2.03834e-05
2.04572e-05
2.04946e-05
2.05427e-05
2.0527e-05
2.04698e-05
2.04555e-05
2.0454e-05
2.04553e-05
2.04604e-05
2.04741e-05
2.05099e-05
2.09751e-05
2.0983e-05
2.05692e-05
2.04754e-05
2.05128e-05
2.07533e-05
2.11438e-05
2.13346e-05
2.13757e-05
2.13557e-05
2.12022e-05
2.09311e-05
2.07854e-05
2.07244e-05
2.0706e-05
2.06955e-05
2.06856e-05
2.06841e-05
2.02262e-05
2.01878e-05
2.018e-05
2.03833e-05
2.09897e-05
2.13112e-05
2.13628e-05
2.12981e-05
2.09737e-05
2.06631e-05
2.05339e-05
2.05054e-05
2.05157e-05
2.06006e-05
2.07103e-05
2.0756e-05
2.0776e-05
2.07847e-05
2.02871e-05
2.03124e-05
2.02964e-05
2.03438e-05
2.06587e-05
2.10786e-05
2.12439e-05
2.12703e-05
2.12437e-05
2.10788e-05
2.08425e-05
2.07149e-05
2.06555e-05
2.06287e-05
2.06178e-05
2.06152e-05
2.06142e-05
2.06092e-05
2.15873e-05
2.08069e-05
2.03208e-05
2.02321e-05
2.02482e-05
2.03063e-05
2.04063e-05
2.07557e-05
2.12386e-05
2.12763e-05
2.10766e-05
2.08271e-05
2.07407e-05
2.0716e-05
2.07092e-05
2.07062e-05
2.07019e-05
2.0691e-05
2.10055e-05
2.06927e-05
2.03563e-05
2.02886e-05
2.02664e-05
2.0219e-05
2.02122e-05
2.02744e-05
2.05528e-05
2.06433e-05
2.06233e-05
2.06147e-05
2.06091e-05
2.05939e-05
2.05407e-05
2.04743e-05
2.04354e-05
2.04183e-05
2.1211e-05
2.12545e-05
2.07238e-05
2.05655e-05
2.03728e-05
2.02559e-05
2.02571e-05
2.04168e-05
2.08268e-05
2.09269e-05
2.09339e-05
2.09124e-05
2.0803e-05
2.05955e-05
2.04693e-05
2.04318e-05
2.04347e-05
2.04522e-05
2.02351e-05
2.02111e-05
2.01042e-05
2.00089e-05
1.99959e-05
2.00253e-05
2.01283e-05
2.02096e-05
2.01914e-05
2.00492e-05
1.95564e-05
1.89119e-05
1.87001e-05
1.8722e-05
1.89369e-05
1.94619e-05
2.06057e-05
2.20168e-05
2.02045e-05
1.76004e-05
1.56506e-05
1.7022e-05
2.06967e-05
2.63358e-05
3.04058e-05
3.26879e-05
3.41042e-05
3.59139e-05
3.9348e-05
4.36878e-05
5.29077e-05
6.56757e-05
8.43701e-05
0.000101204
0.000117561
0.000128929
3.17884e-05
0.00010802
0.000158451
0.000221034
0.000294323
0.000352793
0.000395223
0.000429625
0.000455788
0.000472556
0.000483904
0.000500222
0.000533718
0.000592834
0.000660777
0.000717715
0.000756713
0.000773732
0.00259208
0.00244757
0.00239037
0.00235813
0.00228431
0.00222688
0.00219037
0.00212653
0.00196922
0.00178988
0.00167177
0.00161276
0.00158964
0.00157565
0.00155005
0.00148239
0.00137901
0.0012991
0.00932067
0.0108682
0.00812002
0.00702476
0.00683003
0.00684569
0.0068582
0.00686388
0.00680815
0.00670616
0.00712371
0.00800471
0.00821755
0.00807053
0.00774666
0.00753743
0.00739886
0.00731061
0.0072747
0.00728061
0.00729764
0.00733227
0.00738848
0.00745034
0.00750587
0.00757353
0.00766333
0.00771389
0.00773284
0.00777031
0.00786
0.00794974
0.00793693
0.00787681
0.00771543
0.00716486
0.00738066
0.00643766
0.0030575
0.00355698
0.00456054
0.0054473
0.00649778
0.00724296
0.00744128
0.00722341
0.0068575
0.00670763
0.00679259
0.00720774
0.00816465
0.0106258
0.0175027
0.0311069
0.0403432
0.0433592
0.0466925
0.0600879
0.0847355
0.0954553
0.0960543
0.105367
0.105104
0.0387911
0.00489824
0.00183369
0.00136905
0.00128852
0.00120805
0.00106537
0.000877356
0.000671024
0.000512948
0.000423347
0.000299965
0.000244218
0.000199882
0.000173346
0.000159865
0.00015493
0.00015493
0.000154412
0.00015405
0.00015303
0.000152019
0.000151372
0.000151071
0.000150214
0.000149397
0.000148837
0.000147711
0.000146861
0.000146051
0.000145012
0.000144279
0.000143384
0.000142565
0.000141958
0.00014113
0.000140239
0.000139157
0.000138617
0.000137541
0.000136793
0.000135635
0.000134153
0.000132681
0.000131095
0.000128932
0.000126646
0.000123924
0.000120702
0.000116915
0.000112461
0.000107317
0.000101471
9.49386e-05
8.7787e-05
8.03679e-05
7.29033e-05
6.56429e-05
5.89088e-05
5.30176e-05
4.80615e-05
4.38428e-05
4.00715e-05
3.64491e-05
3.27243e-05
2.889e-05
2.50316e-05
2.11404e-05
1.72671e-05
1.36396e-05
1.05245e-05
8.05139e-06
6.15574e-06
4.72435e-06
3.64546e-06
2.82877e-06
2.20739e-06
1.73312e-06
1.3705e-06
1.09251e-06
8.78814e-07
7.14004e-07
5.8591e-07
4.85356e-07
4.05601e-07
3.41606e-07
2.89534e-07
2.46466e-07
2.10232e-07
1.79293e-07
1.52596e-07
1.29421e-07
1.09269e-07
9.17662e-08
7.6617e-08
6.35636e-08
5.23797e-08
4.2853e-08
3.47943e-08
2.80221e-08
2.23797e-08
1.77112e-08
1.38868e-08
1.07723e-08
8.26987e-09
6.2668e-09
4.6978e-09
3.46161e-09
2.52779e-09
1.7974e-09
1.27347e-09
8.75374e-10
5.45311e-10
5.80733e-10
6.15811e-08
4.16257e-06
3.2073e-06
0.0084638
0.00965572
0.00820543
0.00702598
0.00660791
0.00667236
0.00671443
0.00663589
0.00643638
0.00607826
0.00590236
0.0056387
0.00532719
0.00508373
0.00489443
0.00474882
0.00470292
0.00467748
0.00468524
0.00470465
0.0047228
0.00474687
0.00476031
0.00477918
0.00478613
0.00478193
0.00478061
0.00479307
0.00482703
0.00490846
0.00498609
0.00514567
0.00531389
0.00550601
0.00585371
0.00600026
0.00653254
0.00652362
0.00620927
0.00587995
0.00513842
0.00463917
0.00445932
0.00397984
0.00302953
0.00244702
0.00229961
0.00233279
0.00227241
0.00217364
0.00218945
0.00243188
0.00310384
0.00434305
0.00782228
0.00810899
0.00792961
0.00939078
0.015827
0.0567114
0.0848916
0.0598495
0.0292279
0.00803733
0.00195593
0.00100692
0.000725538
0.000591227
0.000478239
0.000386137
0.000327445
0.000291837
0.000272212
0.000262633
0.000256721
0.000254498
0.000253467
0.00025279
0.000250297
0.000246923
0.000244421
0.000241407
0.000237006
0.000231824
0.000226327
0.000221448
0.000217198
0.000212402
0.000208174
0.000204853
0.000199946
0.000196122
0.000192225
0.000189815
0.000187836
0.000184176
0.000182309
0.000181097
0.000178603
0.000176461
0.000175401
0.00017346
0.000172532
0.000170637
0.000169712
0.000168528
0.000167894
0.000167564
0.000167674
0.000168288
0.000169418
0.000171072
0.000172903
0.000173809
0.000174024
0.000173714
0.000172864
0.000171552
0.000169047
0.000164994
0.000159205
0.000151445
0.000141791
0.000131248
0.000121062
0.000111433
0.000102321
9.3925e-05
8.61927e-05
7.89116e-05
7.19506e-05
6.53149e-05
5.90701e-05
5.32092e-05
4.76497e-05
4.23623e-05
3.73218e-05
3.25191e-05
2.79792e-05
2.37555e-05
1.99164e-05
1.65265e-05
1.3603e-05
1.11357e-05
9.11513e-06
7.47879e-06
6.14738e-06
5.06596e-06
4.19372e-06
3.49609e-06
2.94065e-06
2.49617e-06
2.13395e-06
1.8328e-06
1.57773e-06
1.35833e-06
1.16751e-06
1.0005e-06
8.53874e-07
7.25167e-07
6.12354e-07
5.1382e-07
4.28048e-07
3.53888e-07
2.90168e-07
2.35948e-07
1.89945e-07
1.51442e-07
1.19227e-07
9.29442e-08
7.12218e-08
5.42014e-08
4.00747e-08
2.99126e-08
2.07593e-08
1.58156e-08
9.03237e-09
1.05922e-08
4.64928e-07
6.08559e-07
0.00635533
0.0076345
0.00760141
0.00719725
0.00706316
0.00695711
0.00672377
0.00623593
0.00540313
0.00467787
0.00429685
0.00414377
0.0041013
0.00411346
0.00415992
0.00423035
0.00438042
0.00453234
0.00470803
0.00496779
0.00514291
0.00540231
0.00557679
0.00575349
0.00587078
0.00586302
0.00581131
0.00568259
0.00547627
0.00526829
0.00511542
0.00500888
0.00489027
0.0047988
0.00474111
0.00473706
0.0047851
0.0049852
0.00535025
0.00546413
0.00535942
0.00506385
0.00485385
0.00441854
0.00404261
0.00398036
0.00389808
0.00386899
0.00380912
0.00348508
0.00286306
0.00271972
0.00290917
0.00380184
0.00381121
0.0038632
0.00495588
0.0152666
0.0378427
0.0455295
0.0302767
0.0120226
0.00456617
0.00143107
0.00065286
0.000466449
0.000391292
0.000349992
0.000328854
0.000313924
0.000307109
0.000304233
0.000304078
0.000312507
0.000318256
0.000327616
0.000334014
0.000341974
0.000345792
0.000349551
0.000350565
0.000350231
0.000343563
0.000337685
0.000331333
0.000319783
0.000303562
0.000294892
0.000285872
0.000270533
0.000259765
0.000253268
0.000239807
0.000233228
0.000229203
0.000220921
0.000215008
0.0002122
0.000207198
0.000202122
0.000199402
0.000193236
0.000190126
0.000183775
0.000178739
0.000172538
0.000167032
0.000161771
0.000157241
0.000153684
0.000151337
0.000150149
0.000150245
0.000152981
0.000157362
0.000162833
0.000168842
0.000173791
0.000176667
0.000178094
0.000178324
0.000177596
0.000175305
0.000169675
0.00015985
0.000146854
0.0001321
0.000117698
0.000105781
9.69606e-05
8.99324e-05
8.31287e-05
7.59822e-05
6.88681e-05
6.25138e-05
5.72902e-05
5.31078e-05
4.96957e-05
4.66897e-05
4.37427e-05
4.06196e-05
3.72224e-05
3.35928e-05
2.98425e-05
2.60715e-05
2.24008e-05
1.89473e-05
1.57928e-05
1.29923e-05
1.05761e-05
8.54905e-06
6.89312e-06
5.57235e-06
4.53681e-06
3.73238e-06
3.10843e-06
2.62155e-06
2.23677e-06
1.92686e-06
1.67141e-06
1.45561e-06
1.26942e-06
1.10599e-06
9.60877e-07
8.30822e-07
7.14009e-07
6.08959e-07
5.1507e-07
4.31282e-07
3.57297e-07
2.92534e-07
2.3597e-07
1.8863e-07
1.46508e-07
1.15147e-07
8.33397e-08
6.72093e-08
3.98141e-08
4.83141e-08
6.54919e-08
0.00205054
0.00383674
0.00518777
0.00722557
0.00697442
0.00624143
0.00511257
0.00417505
0.00390696
0.00388989
0.00393433
0.00404905
0.0042414
0.00459147
0.00509744
0.00561562
0.00633574
0.00704036
0.00780144
0.00871195
0.00946768
0.0103013
0.0110333
0.0115839
0.0120977
0.0121913
0.0121015
0.0118262
0.0112322
0.0101553
0.00883025
0.00761515
0.00658034
0.00582813
0.00527461
0.00491722
0.00476395
0.00459491
0.00451589
0.00453214
0.00465981
0.00472234
0.0046954
0.00458131
0.00445444
0.00442146
0.00439364
0.00437652
0.00434086
0.00410361
0.00354694
0.00353644
0.00374918
0.00366866
0.0036742
0.00498088
0.0168737
0.026602
0.0297611
0.0144507
0.00691041
0.00261259
0.00105155
0.000543284
0.000419358
0.000383237
0.000368739
0.000363273
0.000363462
0.000381388
0.00041194
0.000456262
0.000509733
0.000571743
0.000633958
0.000690444
0.00073735
0.000781331
0.000819784
0.00084688
0.000856808
0.000858361
0.000838037
0.000817411
0.000806601
0.000764267
0.00071669
0.000696915
0.000664853
0.000606519
0.000579579
0.000558817
0.000516175
0.000493449
0.000481879
0.000460358
0.000443687
0.000436413
0.000424533
0.000411852
0.000404064
0.000386991
0.000372383
0.000351762
0.000329516
0.00030431
0.000276436
0.000247777
0.000219637
0.000194086
0.000172778
0.000156648
0.000145449
0.000138474
0.000134955
0.000133951
0.000134704
0.000139038
0.000147591
0.000158173
0.000168486
0.000175679
0.000179557
0.000181286
0.000181528
0.00018076
0.000177706
0.000170185
0.000158862
0.00014543
0.000133145
0.000122917
0.00011401
0.000105084
9.53e-05
8.49517e-05
7.50274e-05
6.62927e-05
5.91005e-05
5.33553e-05
4.87561e-05
4.50179e-05
4.19256e-05
3.91925e-05
3.63807e-05
3.31795e-05
2.9586e-05
2.57984e-05
2.20029e-05
1.83683e-05
1.50482e-05
1.21363e-05
9.65892e-06
7.59994e-06
5.92911e-06
4.61215e-06
3.6066e-06
2.85927e-06
2.31196e-06
1.90949e-06
1.60802e-06
1.37569e-06
1.19059e-06
1.03783e-06
9.08102e-07
7.95012e-07
6.95106e-07
6.05196e-07
5.24251e-07
4.50404e-07
3.83692e-07
3.23135e-07
2.69356e-07
2.20979e-07
1.79917e-07
1.42697e-07
1.13242e-07
8.62567e-08
6.63185e-08
5.00449e-08
0.00251693
0.0041101
0.00499942
0.00448878
0.00356615
0.00340984
0.0034411
0.00355274
0.00382502
0.00415784
0.00463599
0.00514608
0.00577894
0.00640681
0.007107
0.00790178
0.00881558
0.00983212
0.0109264
0.0120626
0.0131834
0.0142856
0.0153513
0.0162123
0.016992
0.0177656
0.0180945
0.0180688
0.0178585
0.0173316
0.016217
0.014411
0.0121698
0.00978884
0.00761623
0.00618033
0.00532457
0.00481235
0.00455024
0.00430035
0.00424589
0.0042552
0.00430076
0.00436394
0.0044103
0.00454691
0.00455261
0.00453075
0.00447532
0.00407661
0.00370158
0.00379175
0.00420531
0.00496687
0.00846652
0.0163568
0.0203333
0.021196
0.00989827
0.0041919
0.00182488
0.000836872
0.000519118
0.000431149
0.000407833
0.000399374
0.000401526
0.000431564
0.000481612
0.000568442
0.000691142
0.00085423
0.00105278
0.0012807
0.00151688
0.00168239
0.00175881
0.00179302
0.00179841
0.00175718
0.00165929
0.00156897
0.00148527
0.00142343
0.00135733
0.00128932
0.00123554
0.00120991
0.00117219
0.00111626
0.00109174
0.00107169
0.00103134
0.00100508
0.000992127
0.000967657
0.000950966
0.000943002
0.000928874
0.000918236
0.000905707
0.000888968
0.000866782
0.000836829
0.000796436
0.000745106
0.000682316
0.000609683
0.00052859
0.000442441
0.000358077
0.000287699
0.00023117
0.000187062
0.000157271
0.000139841
0.00013122
0.000127707
0.000126956
0.000127704
0.000131928
0.000142217
0.000155216
0.000167094
0.000174896
0.000179121
0.000180494
0.000180321
0.00017801
0.00016933
0.00015276
0.000137303
0.000125807
0.000117241
0.000109756
0.000101975
9.34418e-05
8.47567e-05
7.68724e-05
7.05617e-05
6.59108e-05
6.239e-05
5.93023e-05
5.63007e-05
5.35381e-05
5.11617e-05
4.89234e-05
4.62916e-05
4.28738e-05
3.86176e-05
3.37517e-05
2.85684e-05
2.32734e-05
1.80731e-05
1.32996e-05
9.3123e-06
6.31479e-06
4.28992e-06
3.02345e-06
2.25437e-06
1.77659e-06
1.45897e-06
1.22753e-06
1.04501e-06
8.93717e-07
7.65913e-07
6.57661e-07
5.66161e-07
4.88141e-07
4.21024e-07
3.62146e-07
3.10068e-07
2.63287e-07
2.21312e-07
1.84126e-07
1.5067e-07
1.22586e-07
9.67115e-08
7.71e-08
5.82189e-08
0.00368034
0.00278618
0.00245567
0.00259558
0.00290241
0.00341014
0.00390648
0.00444857
0.00482004
0.00514314
0.00549664
0.005908
0.00641609
0.007
0.00768391
0.00853225
0.00951818
0.0106106
0.0117698
0.0129562
0.0141481
0.015328
0.016446
0.0174515
0.0183803
0.0191847
0.0197304
0.0199782
0.0200148
0.0198902
0.0194141
0.0182378
0.0164929
0.014298
0.0118439
0.00934825
0.00716062
0.00567577
0.00482992
0.00438376
0.00413685
0.00402445
0.00402207
0.00403994
0.00414671
0.00424973
0.00422117
0.00413122
0.00377021
0.00358542
0.00383732
0.00507439
0.00940083
0.0125138
0.0150565
0.0166578
0.0163347
0.00763515
0.00318505
0.00139999
0.000739851
0.000517538
0.000457472
0.000443973
0.000451059
0.000486013
0.000530903
0.000624146
0.0007599
0.000978645
0.00132266
0.00183336
0.00251916
0.00291807
0.00304935
0.00307589
0.00293614
0.00243905
0.00216309
0.00204211
0.00187678
0.00168262
0.00159665
0.00151546
0.00140042
0.00133812
0.00128478
0.00125533
0.00122578
0.00119014
0.00117677
0.00116689
0.00114653
0.00113303
0.00112631
0.00111244
0.00110426
0.00109995
0.00109189
0.00108733
0.00108118
0.001074
0.00106472
0.00105258
0.00103682
0.0010168
0.000990981
0.000956189
0.000910403
0.000850071
0.000769771
0.000661176
0.000535013
0.000406722
0.000294981
0.000219574
0.000170597
0.000143401
0.000130468
0.000125259
0.000123307
0.000122779
0.000123996
0.000130811
0.000144865
0.000158625
0.000168715
0.000174476
0.000176465
0.000176263
0.000173176
0.000161035
0.000141166
0.00012533
0.000114893
0.000107735
0.00010151
9.47383e-05
8.71952e-05
7.95138e-05
7.27071e-05
6.75615e-05
6.41397e-05
6.17936e-05
5.96778e-05
5.7323e-05
5.48196e-05
5.25023e-05
5.04846e-05
4.8465e-05
4.59233e-05
4.24599e-05
3.79877e-05
3.27224e-05
2.70921e-05
2.16355e-05
1.68064e-05
1.27996e-05
9.61359e-06
7.15709e-06
5.3278e-06
4.02339e-06
3.08767e-06
2.36097e-06
1.78269e-06
1.33607e-06
1.00287e-06
7.60757e-07
5.8751e-07
4.63744e-07
3.74284e-07
3.07785e-07
2.56613e-07
2.15215e-07
1.80241e-07
1.49462e-07
1.226e-07
9.89499e-08
7.87724e-08
6.16618e-08
0.00133395
0.00200758
0.00237016
0.00323287
0.00404987
0.00445952
0.00467088
0.00487971
0.00511453
0.00540804
0.0056895
0.00608958
0.00653973
0.00706356
0.00763484
0.00819778
0.00880293
0.00946793
0.0101943
0.0110068
0.0119693
0.01309
0.014289
0.0154314
0.0164398
0.0173042
0.0180497
0.0186297
0.0189736
0.0190989
0.0186554
0.0174437
0.0158202
0.0138862
0.0118695
0.00997352
0.00828145
0.00680779
0.00558693
0.0047316
0.00421492
0.00398742
0.00388981
0.00386899
0.00386881
0.00385272
0.00382029
0.00359799
0.00344259
0.00380458
0.00662793
0.011959
0.0134426
0.0140166
0.0144945
0.0130036
0.00617642
0.00265032
0.00121141
0.000688577
0.000522557
0.000477671
0.00046812
0.000481877
0.000520063
0.000583138
0.000689025
0.000882779
0.00120565
0.00175241
0.00265605
0.00388869
0.00438386
0.00449636
0.00444316
0.00379078
0.0028497
0.00249868
0.00226173
0.00185466
0.00151091
0.00137119
0.0012334
0.00105422
0.000960067
0.000895622
0.000840181
0.000816268
0.000798433
0.000791759
0.000794052
0.00081854
0.000843598
0.00086492
0.000880689
0.000896698
0.000912614
0.000924245
0.000938002
0.00095148
0.000966541
0.000980827
0.000992619
0.00100348
0.00101125
0.00101339
0.0010078
0.000994565
0.000973927
0.000945362
0.000908856
0.000864537
0.000806439
0.000727348
0.000615705
0.000467499
0.000324751
0.000225716
0.000169508
0.000141067
0.000128008
0.000121963
0.000118799
0.000117399
0.000117956
0.000123329
0.00013728
0.000151103
0.000161032
0.000166303
0.000167655
0.000166786
0.000160508
0.000141682
0.000122753
0.000110303
0.000103011
9.79667e-05
9.29262e-05
8.69594e-05
8.02107e-05
7.34754e-05
6.77462e-05
6.37107e-05
6.13046e-05
5.96727e-05
5.78075e-05
5.52874e-05
5.24487e-05
4.99286e-05
4.80243e-05
4.64268e-05
4.44784e-05
4.16265e-05
3.77154e-05
3.2986e-05
2.7887e-05
2.28732e-05
1.82863e-05
1.4323e-05
1.10542e-05
8.45812e-06
6.44259e-06
4.86653e-06
3.6068e-06
2.61082e-06
1.85086e-06
1.29313e-06
8.98182e-07
6.27054e-07
4.45365e-07
3.25117e-07
2.45349e-07
1.91333e-07
1.53766e-07
1.26198e-07
1.04378e-07
8.63373e-08
7.0267e-08
5.7179e-08
0.00129289
0.00254875
0.00339539
0.00424804
0.00450758
0.00469571
0.00484431
0.00501888
0.00523207
0.0054749
0.00554966
0.00557488
0.00566921
0.00579754
0.00591035
0.00602495
0.00614827
0.00628106
0.00642648
0.00660883
0.00684048
0.00712757
0.00746834
0.00785853
0.00830898
0.00883438
0.00941141
0.0100504
0.0107387
0.011251
0.0115267
0.0115847
0.01125
0.0105641
0.0096274
0.00856245
0.00742664
0.0063012
0.00532707
0.00458375
0.00412702
0.00385975
0.0037455
0.00369452
0.00367757
0.00365292
0.00340067
0.00324186
0.0038735
0.00851701
0.0124897
0.0133636
0.0134565
0.0129837
0.0104907
0.00506319
0.00229553
0.00110673
0.000664721
0.000523683
0.00049065
0.000490089
0.000521019
0.000589975
0.000671977
0.00081367
0.00108162
0.00151359
0.00220698
0.00332297
0.00507295
0.00608644
0.00627962
0.00616909
0.00525656
0.0036724
0.00289608
0.00252266
0.0020274
0.00141259
0.00117774
0.00105328
0.00087211
0.000768948
0.000719582
0.000639957
0.000587991
0.000560813
0.000511892
0.000473812
0.000446777
0.000423619
0.000412478
0.000406178
0.000402292
0.000401288
0.000405374
0.000408491
0.000415752
0.000425834
0.000443058
0.00047181
0.000516146
0.00057235
0.000639699
0.000713177
0.000782877
0.000834081
0.000866917
0.000885027
0.000886362
0.000869955
0.000838238
0.000795452
0.00074248
0.000677235
0.000581992
0.000441127
0.000295923
0.00020322
0.000156049
0.000133876
0.00012267
0.000116215
0.000112522
0.000111302
0.000112386
0.000118679
0.000131481
0.000142711
0.000150168
0.000153379
0.000153646
0.000151262
0.000139057
0.000118327
0.000104145
9.66998e-05
9.27952e-05
8.94458e-05
8.49953e-05
7.92843e-05
7.3214e-05
6.76308e-05
6.306e-05
5.99669e-05
5.82869e-05
5.70906e-05
5.52851e-05
5.25928e-05
4.95856e-05
4.69772e-05
4.50996e-05
4.37017e-05
4.21135e-05
3.9768e-05
3.64696e-05
3.23828e-05
2.78665e-05
2.3304e-05
1.90023e-05
1.51617e-05
1.18809e-05
9.16914e-06
6.95878e-06
5.1561e-06
3.70805e-06
2.58746e-06
1.75701e-06
1.16695e-06
7.63703e-07
4.97787e-07
3.27661e-07
2.21336e-07
1.55261e-07
1.14383e-07
8.78615e-08
7.06174e-08
5.68025e-08
4.75128e-08
0.00201135
0.0033363
0.00407901
0.00451051
0.00466904
0.00480242
0.00493614
0.00507106
0.00517592
0.00526659
0.00534064
0.00540344
0.00544119
0.0054601
0.00549289
0.005526
0.00555674
0.00558398
0.00561108
0.00564616
0.0056753
0.00570488
0.00571665
0.00571958
0.00571759
0.00571349
0.00571015
0.00571906
0.00574166
0.00579384
0.0058813
0.0059875
0.00607973
0.00614234
0.00611436
0.00590819
0.00554433
0.00506747
0.00458222
0.00416489
0.00385907
0.00367445
0.00361304
0.00358001
0.00350724
0.00315803
0.00305615
0.00390889
0.00878455
0.0122397
0.0129215
0.0129478
0.0119323
0.00868082
0.00435959
0.00206171
0.0010405
0.000645455
0.000515714
0.000485118
0.000498805
0.000546511
0.000622263
0.000692344
0.000790919
0.000966178
0.00130735
0.00197239
0.00321058
0.00531801
0.00774921
0.00861698
0.00876321
0.00835506
0.00653224
0.00436322
0.00358557
0.00319667
0.00260243
0.00202412
0.00183153
0.00170871
0.0013878
0.00124616
0.0011721
0.000974605
0.000810767
0.000733335
0.000616428
0.000535483
0.000468134
0.000409394
0.000376059
0.000351551
0.000330102
0.000311939
0.000299182
0.000286624
0.000275105
0.000263035
0.000250329
0.000237259
0.000225017
0.000218721
0.000224069
0.000246173
0.000293257
0.000369354
0.000464398
0.000558307
0.000637981
0.000692001
0.000723325
0.000734594
0.000727014
0.00069475
0.000646959
0.000585104
0.000493505
0.000357377
0.000235107
0.000170873
0.000140261
0.00012424
0.000114335
0.000108321
0.000105529
0.000105406
0.000107576
0.000114938
0.000124015
0.000131416
0.000135794
0.000137078
0.000136546
0.000131425
0.000114556
9.88346e-05
8.98778e-05
8.57595e-05
8.39541e-05
8.18317e-05
7.7732e-05
7.22185e-05
6.66372e-05
6.20403e-05
5.87031e-05
5.65609e-05
5.5463e-05
5.44748e-05
5.24471e-05
4.95167e-05
4.64947e-05
4.39621e-05
4.21579e-05
4.09143e-05
3.96609e-05
3.78067e-05
3.50794e-05
3.15608e-05
2.75206e-05
2.32839e-05
1.91481e-05
1.53419e-05
1.20029e-05
9.17001e-06
6.8133e-06
4.89963e-06
3.4055e-06
2.29091e-06
1.4956e-06
9.51383e-07
5.93106e-07
3.65843e-07
2.26123e-07
1.42863e-07
9.36368e-08
6.57248e-08
4.78596e-08
3.84493e-08
0.00217447
0.00362547
0.0043782
0.00463377
0.00474489
0.00486461
0.0050027
0.00511602
0.00518389
0.00522919
0.00525842
0.00526618
0.00526981
0.00527677
0.00528791
0.005297
0.0053079
0.00531842
0.0053454
0.00538481
0.00542554
0.0054733
0.00549852
0.00551955
0.0055257
0.00549905
0.00543565
0.00533668
0.00518903
0.00499894
0.00481653
0.0046532
0.00450362
0.0043697
0.00428322
0.00420473
0.00412258
0.00399772
0.00385414
0.00371675
0.0036021
0.0035202
0.00345272
0.00328073
0.00283677
0.00280241
0.00372338
0.00835152
0.0116839
0.0123587
0.0122517
0.0106793
0.00714188
0.00392656
0.00192456
0.00100477
0.000628448
0.000501676
0.00047256
0.00048209
0.000529481
0.000592648
0.000662129
0.000747378
0.000868631
0.00111349
0.00165798
0.00268428
0.00450257
0.00765902
0.0111276
0.0120119
0.0121086
0.0118722
0.0100412
0.00750049
0.0069669
0.00693509
0.00692494
0.00658854
0.00615587
0.00601576
0.0053666
0.00452421
0.00418705
0.00336101
0.00247051
0.00203894
0.0015434
0.00120817
0.000951423
0.000745696
0.000605414
0.000528196
0.000469555
0.000421966
0.000392583
0.000366257
0.000342829
0.000316877
0.00028628
0.000251793
0.000216948
0.000185409
0.00016036
0.000142485
0.000131636
0.000133375
0.000152423
0.00019143
0.000249435
0.000323162
0.000394081
0.000455558
0.000510823
0.000555428
0.000578138
0.000577373
0.00054362
0.000479415
0.000380913
0.000257023
0.000179898
0.00014342
0.000124299
0.00011206
0.000104312
0.000100368
9.94828e-05
0.000100223
0.00010345
0.000108725
0.000114337
0.000118849
0.000121015
0.000121203
0.000119466
0.000109866
9.43719e-05
8.48917e-05
8.03848e-05
7.84984e-05
7.72619e-05
7.51249e-05
7.06511e-05
6.53622e-05
6.06582e-05
5.71965e-05
5.49492e-05
5.36961e-05
5.29299e-05
5.17068e-05
4.92158e-05
4.62028e-05
4.33622e-05
4.09278e-05
3.91629e-05
3.81179e-05
3.72925e-05
3.59654e-05
3.37e-05
3.05069e-05
2.6646e-05
2.24701e-05
1.8328e-05
1.44949e-05
1.11305e-05
8.28569e-06
5.95985e-06
4.13655e-06
2.77271e-06
1.79813e-06
1.13076e-06
6.91731e-07
4.1331e-07
2.43579e-07
1.42524e-07
8.55962e-08
5.28467e-08
3.57931e-08
0.00242959
0.00403255
0.00452298
0.004692
0.00479583
0.00493378
0.0050416
0.00509365
0.00511265
0.00511525
0.00509627
0.00503695
0.00497129
0.00491052
0.00483674
0.00475534
0.00468681
0.00465076
0.00463771
0.00469207
0.0048103
0.00494392
0.00510264
0.0052692
0.00541629
0.00553898
0.00563151
0.00567092
0.00566449
0.00559613
0.00541285
0.00512263
0.00475257
0.00433352
0.00401203
0.00377597
0.00361811
0.00349365
0.00341621
0.00330579
0.00317766
0.00299884
0.00281835
0.00262338
0.00260601
0.00348445
0.00769651
0.0110128
0.0117476
0.0115999
0.00949262
0.00618025
0.00355564
0.00185243
0.000995185
0.000621505
0.000486111
0.000450744
0.000447022
0.000482272
0.000534439
0.000594903
0.000661755
0.000751844
0.000900359
0.00120565
0.00182962
0.00305976
0.00541534
0.00944108
0.0148226
0.0178654
0.0187231
0.0190111
0.0183778
0.0164426
0.0164286
0.0179437
0.0203583
0.0216676
0.0221792
0.0212723
0.0203653
0.0173791
0.0155016
0.0126734
0.00934106
0.00706672
0.00505308
0.00357741
0.00259216
0.00190014
0.00143411
0.00115766
0.000999198
0.000883572
0.000820274
0.000774644
0.000737829
0.000692772
0.000625958
0.000533947
0.000424721
0.000315338
0.000223323
0.000159066
0.000121281
0.000100133
8.8372e-05
8.63927e-05
9.6667e-05
0.000123239
0.000161129
0.00019775
0.000227152
0.000260314
0.000313986
0.000386899
0.00044881
0.000465324
0.000443153
0.000369207
0.00026416
0.000182273
0.000142439
0.00012189
0.000108903
0.000100371
9.5659e-05
9.41498e-05
9.44322e-05
9.62816e-05
9.87635e-05
0.000102206
0.000106109
0.00010864
0.00010922
0.000108532
0.000103618
9.04913e-05
8.09643e-05
7.60958e-05
7.41978e-05
7.32049e-05
7.17744e-05
6.85133e-05
6.36169e-05
5.8996e-05
5.54499e-05
5.31184e-05
5.18044e-05
5.10365e-05
5.02672e-05
4.86505e-05
4.56998e-05
4.25767e-05
3.99877e-05
3.80021e-05
3.65473e-05
3.56102e-05
3.49852e-05
3.40706e-05
3.20509e-05
2.87753e-05
2.47794e-05
2.04971e-05
1.63378e-05
1.25838e-05
9.37003e-06
6.73285e-06
4.66419e-06
3.11751e-06
2.01363e-06
1.25906e-06
7.63248e-07
4.49923e-07
2.58468e-07
1.46088e-07
8.18237e-08
4.64588e-08
0.00270395
0.00420981
0.00457789
0.00471127
0.00480982
0.00490672
0.00493931
0.00493294
0.00482582
0.00464138
0.0043616
0.00393973
0.00346717
0.00315406
0.00287618
0.00265713
0.00254676
0.00246686
0.00242929
0.00241639
0.00244106
0.00248754
0.0026215
0.00286612
0.00320288
0.00367067
0.00421272
0.00480913
0.0053299
0.00562767
0.00577949
0.00584853