/*--------------------------------*- C++ -*----------------------------------*\
  =========                 |
  \\      /  F ield         | OpenFOAM: The Open Source CFD Toolbox
   \\    /   O peration     | Website:  https://openfoam.org
    \\  /    A nd           | Version:  7
     \\/     M anipulation  |
\*---------------------------------------------------------------------------*/
FoamFile
{
    version     2.0;
    format      ascii;
    class       volScalarField;
    location    "0.076";
    object      nut;
}
// * * * * * * * * * * * * * * * * * * * * * * * * * * * * * * * * * * * * * //

dimensions      [0 2 -1 0 0 0 0];

internalField   nonuniform List<scalar> 
12225
(
0
0
0
0
0
0
0
0
0
0
0
0
0
0
0
0
1.36583e-09
0
0
0
0
0
0
0
0
0
0
0
0
0
0
0
0
0
9.69205e-10
0
0
3.35502e-10
0
0
0
0
0
0
0
0
0
0
0
0
0
0
5.37529e-10
0
0
6.3599e-09
1.10112e-08
2.03947e-09
0
0
0
0
0
0
0
0
0
0
0
0
0
0
7.29786e-07
3.44894e-07
2.23386e-07
9.31071e-08
1.13132e-08
7.61439e-10
0
0
0
0
0
8.70754e-11
1.22921e-09
7.68737e-10
5.46937e-10
0
0
0
6.05703e-07
5.48333e-07
4.37936e-07
3.0267e-07
1.26525e-07
2.57534e-08
0
0
0
0
0
4.95774e-11
2.18165e-08
2.30847e-08
1.87468e-08
8.91168e-09
2.56898e-09
0
2.79182e-07
3.10404e-07
4.06646e-07
2.46781e-07
7.74027e-08
0
0
0
0
0
0
1.3881e-09
3.43333e-08
3.59558e-08
2.37e-08
7.84015e-09
0
0
8.53586e-08
2.25354e-07
3.98952e-07
2.35144e-07
4.20789e-08
0
0
0
0
0
0
0
4.0366e-09
4.58536e-09
0
0
0
0
0
7.14463e-08
5.84598e-07
3.23399e-07
0
0
0
0
0
0
0
0
0
0
0
0
0
0
0
3.34516e-07
5.93148e-07
4.13201e-07
0
0
0
0
0
5.83424e-08
5.44204e-08
1.44681e-08
0
0
0
0
0
0
0
3.90711e-07
4.77315e-07
1.95024e-07
0
0
0
0
0
8.04438e-07
8.71819e-07
3.08503e-07
0
0
0
0
0
0
0
7.555e-07
6.55679e-07
1.51091e-07
0
0
0
0
0
2.29395e-07
4.23854e-07
3.59518e-07
1.39749e-07
0
0
0
0
0
0
9.35313e-08
4.66642e-08
0
0
0
2.79871e-08
9.2946e-08
1.62056e-07
1.70549e-07
1.63422e-07
1.79473e-07
1.29893e-07
0
0
0
0
0
0
0
0
0
0
3.73514e-08
4.12333e-08
7.39727e-08
4.51173e-08
0
0
0
0
0
0
0
0
0
0
0
0
0
0
0
0
0
0
0
0
0
0
0
0
0
0
0
0
0
0
0
3.31242e-07
4.93854e-07
0
0
0
0
0
0
0
0
0
0
0
0
0
0
0
0
0
1.91092e-06
0
0
0
0
0
0
0
0
9.05799e-09
2.24172e-07
2.72831e-07
2.4273e-07
7.29268e-08
2.64544e-07
3.15562e-08
0
0
0
0
0
0
0
0
0
0
0
0
1.54479e-07
2.83756e-07
3.5697e-07
0
0
0
0
0
0
0
6.38303e-09
1.93101e-07
5.50292e-07
5.95917e-07
2.25346e-07
0
0
0
0
1.06901e-07
2.281e-07
0
8.56475e-08
0
0
0
0
0
0
0
2.34516e-07
2.12208e-07
1.2064e-09
0
0
0
0
0
0
0
0
0
0
0
0
0
0
0
0
0
0
0
0
0
0
0
0
0
0
0
0
0
0
0
0
0
0
0
0
0
0
0
0
0
0
4.9472e-07
1.17105e-07
0
0
0
0
0
0
0
0
0
0
0
0
0
0
0
0
3.68178e-07
4.50927e-07
0
0
0
0
0
0
1.54044e-07
1.70392e-07
7.10767e-08
0
0
0
0
0
0
0
0
5.74961e-08
0
0
0
0
0
1.49693e-08
2.07335e-07
2.11615e-07
0
0
0
0
0
0
0
0
1.31619e-07
9.21868e-08
0
0
0
0
0
0
1.61058e-08
2.66109e-08
0
0
0
0
0
0
0
0
1.15236e-07
2.795e-08
0
0
0
0
0
6.31326e-10
5.07626e-09
3.96497e-09
3.94262e-10
0
0
0
0
0
0
0
6.58156e-09
0
0
0
0
0
0
0
0
0
0
0
0
0
0
0
0
0
7.72943e-09
0
0
0
0
0
0
0
0
0
0
0
0
0
0
0
0
0
6.11161e-08
0
0
0
0
0
0
0
0
0
0
0
0
0
0
0
0
0
0
2.28601e-06
5.16823e-06
1.96562e-06
0
0
0
0
0
0
6.28671e-07
7.44038e-07
4.48724e-07
8.39412e-08
0
0
0
0
0
0
0
0
0
0
0
0
0
0
0
1.92498e-08
3.91682e-08
3.88548e-08
9.33159e-09
0
0
0
3.04386e-07
3.71532e-07
0
0
0
0
2.43155e-06
4.88385e-06
6.82377e-06
5.0512e-06
0
0
0
0
0
0
2.74149e-06
4.06043e-06
2.41219e-06
3.66563e-07
2.02746e-06
8.26878e-06
2.14279e-05
3.40735e-05
4.28018e-05
5.00135e-05
4.13297e-05
1.41302e-05
1.95451e-06
2.97092e-07
2.71741e-08
6.00163e-09
2.92059e-08
4.69827e-08
5.16056e-08
4.66387e-08
3.85131e-08
3.09538e-08
2.18665e-08
1.56806e-08
1.04478e-08
6.2838e-09
2.77915e-09
0
0
0
0
0
0
0
0
0
0
0
0
0
0
0
0
0
0
0
0
0
0
0
0
0
0
0
0
0
0
0
0
0
0
0
0
0
0
0
0
0
0
0
0
0
0
0
0
0
0
0
0
0
0
0
0
0
0
0
0
0
0
0
0
0
0
0
0
0
0
0
0
0
0
0
0
0
0
0
0
0
0
0
0
0
0
0
0
0
0
0
0
0
0
0
0
4.70159e-14
0
3.21169e-11
1.13376e-09
0
0
0
8.06195e-07
0
0
0
0
0
0
1.9285e-07
7.89302e-07
9.51556e-07
7.07995e-07
2.61e-07
0
0
0
0
0
0
0
0
0
0
0
0
0
0
0
2.82267e-08
5.91504e-08
7.10474e-08
4.65618e-08
7.90417e-09
0
5.16748e-08
5.95349e-07
4.1654e-07
0
0
0
0
0
0
2.91805e-07
4.68555e-07
6.21217e-08
0
0
0
0
0
9.06161e-07
1.46935e-06
1.71936e-06
1.82663e-06
9.24589e-07
8.07518e-07
1.08434e-06
2.47734e-06
4.088e-06
4.0189e-06
3.96976e-06
2.43574e-06
8.77723e-07
2.69511e-07
5.95887e-08
2.63189e-08
3.69457e-08
4.49491e-08
4.57561e-08
4.24127e-08
3.73697e-08
3.17509e-08
2.59397e-08
2.03234e-08
1.49334e-08
9.76762e-09
4.76944e-09
0
0
0
0
0
0
0
0
0
0
0
0
0
0
0
0
0
0
0
0
0
0
0
0
0
0
0
0
0
0
0
0
0
0
0
0
0
0
0
0
0
0
0
0
0
0
0
0
0
0
0
0
0
0
0
0
0
0
0
0
0
0
0
0
0
0
0
0
0
0
0
0
0
0
0
0
0
0
0
0
0
0
0
0
0
0
0
0
0
0
0
0
0
0
0
0
0
1.06193e-12
7.63284e-12
4.88787e-10
0
9.6786e-07
2.1676e-06
1.20858e-06
8.35958e-08
0
0
0
0
0
0
0
0
0
0
0
0
0
0
0
0
0
0
0
0
0
0
0
0
0
4.87424e-08
4.41724e-07
7.32076e-07
8.02983e-07
7.05783e-07
4.8994e-07
2.65405e-07
8.59096e-07
7.27754e-07
0
0
0
0
0
0
1.10703e-07
3.54434e-07
1.75181e-07
0
0
0
0
0
5.34499e-07
1.56014e-06
1.77085e-06
0
0
0
0
0
3.77182e-07
4.7317e-07
5.00624e-07
5.08108e-07
3.05664e-07
1.45579e-07
9.31152e-08
1.10986e-07
1.47688e-07
1.68041e-07
1.66883e-07
1.51451e-07
1.29882e-07
1.08342e-07
8.6965e-08
6.77493e-08
5.0055e-08
3.40811e-08
1.91368e-08
5.11171e-09
0
0
0
0
0
0
0
0
0
0
0
0
0
0
0
0
0
0
0
0
0
0
0
0
0
0
0
0
0
0
0
0
0
0
0
0
0
0
0
0
0
0
7.81945e-09
1.26955e-08
1.34924e-08
1.22352e-08
1.0181e-08
8.07053e-09
6.23726e-09
4.69042e-09
3.39111e-09
2.35095e-09
1.4664e-09
6.1688e-10
0
0
0
0
0
0
0
0
0
0
0
0
0
0
0
0
0
0
0
0
0
0
0
0
0
0
0
0
0
0
0
0
0
0
0
0
0
0
0
0
0
0
3.95304e-12
0
2.20268e-10
0
2.06011e-06
1.73393e-06
1.28781e-06
1.31507e-06
1.18923e-06
9.16748e-07
3.01985e-07
0
0
0
0
0
0
0
0
0
0
0
0
0
0
0
0
0
0
0
0
0
0
0
0
0
0
0
0
0
2.85924e-07
8.423e-07
2.12368e-07
4.91607e-07
5.9843e-07
0
0
7.54493e-07
1.5313e-06
1.89954e-06
1.73118e-06
1.34189e-06
1.03241e-06
2.77945e-07
0
9.40229e-07
2.4135e-06
9.33775e-07
1.20272e-08
0
0
0
0
0
2.2181e-07
9.98547e-08
2.14146e-08
8.81318e-08
6.87955e-08
9.27771e-08
1.97933e-07
3.30938e-07
4.13827e-07
4.35263e-07
4.23001e-07
4.07371e-07
3.96323e-07
3.85907e-07
3.64035e-07
3.23343e-07
2.64496e-07
1.94365e-07
1.16536e-07
3.2792e-08
0
0
0
0
0
0
0
0
0
0
0
0
0
0
0
0
0
0
0
0
0
0
0
0
0
0
0
0
0
0
0
0
0
0
0
0
0
0
0
0
0
0
0
0
0
0
0
0
1.26422e-08
3.04737e-08
3.67059e-08
3.47937e-08
2.89884e-08
2.2057e-08
1.53605e-08
9.43779e-09
4.49627e-09
7.14948e-10
0
0
0
0
0
0
0
0
0
0
0
0
0
0
0
0
5.90742e-12
5.59562e-11
9.19275e-11
1.06868e-10
9.70506e-11
6.41553e-11
1.06895e-11
0
0
0
0
0
0
0
0
0
0
0
0
0
0
0
0
0
3.18254e-10
0
2.81156e-07
5.59494e-07
7.04967e-07
6.47802e-07
3.48286e-07
0
0
0
0
0
0
0
0
1.02871e-08
0
0
0
0
0
0
0
0
0
0
0
0
0
0
0
0
0
0
0
0
0
0
0
0
0
7.40972e-08
7.10345e-07
1.58587e-06
2.62837e-06
3.60727e-06
3.96486e-06
3.94746e-06
3.32606e-06
3.12897e-06
3.5492e-06
5.75885e-07
0
0
1.17393e-07
4.35357e-08
0
0
0
0
0
3.25038e-10
1.62804e-08
0
0
1.30601e-07
2.78139e-07
3.6327e-07
3.73315e-07
3.41378e-07
2.92081e-07
2.52865e-07
2.30976e-07
2.28298e-07
2.41277e-07
2.61142e-07
2.72682e-07
2.58806e-07
2.19249e-07
1.63708e-07
9.26947e-08
0
0
0
0
0
0
0
0
0
0
0
0
0
0
0
0
0
0
0
0
0
0
0
0
0
0
0
0
0
0
0
0
0
0
0
0
0
0
0
0
0
0
0
0
0
0
0
0
0
0
0
0
0
0
0
0
0
0
0
0
2.99835e-09
8.98884e-09
9.02902e-09
5.33945e-09
0
0
0
0
0
0
0
0
0
0
0
1.06991e-09
1.5137e-09
1.53e-09
1.41669e-09
1.30393e-09
1.21974e-09
1.14203e-09
1.04462e-09
9.07211e-10
7.29797e-10
5.21999e-10
2.94993e-10
9.32093e-11
0
0
0
0
0
0
0
0
0
0
0
4.94542e-10
0
0
0
0
0
0
0
0
0
0
1.39377e-08
0
0
0
0
0
0
0
0
0
0
0
0
0
0
0
0
0
0
0
0
0
0
0
0
0
0
0
0
0
0
1.73067e-07
3.76147e-07
5.8427e-07
6.94275e-07
7.56463e-07
6.74601e-07
8.4476e-08
0
0
0
0
0
0
0
0
0
0
0
0
0
0
4.33764e-08
3.27669e-07
5.46743e-07
6.61458e-07
6.78433e-07
5.94389e-07
4.86209e-07
3.93301e-07
3.36067e-07
3.15437e-07
3.3168e-07
3.84427e-07
4.32953e-07
4.61643e-07
4.63365e-07
4.30904e-07
3.57884e-07
2.8118e-07
1.57926e-07
0
0
0
0
0
0
0
0
0
0
0
0
0
0
0
0
0
0
0
0
0
0
0
0
0
0
0
0
0
0
0
0
0
0
0
0
0
0
0
0
0
0
0
0
0
0
0
0
0
0
0
0
0
0
0
0
0
0
0
0
0
0
0
0
0
0
0
0
0
0
0
0
0
0
0
0
0
0
0
0
1.46797e-09
1.41103e-08
7.15137e-09
0
0
0
0
0
0
0
0
0
0
0
0
0
0
0
0
0
0
0
0
0
0
0
0
0
0
0
0
0
0
0
0
0
0
0
0
0
0
0
0
0
0
0
0
0
0
0
0
0
0
0
0
0
0
0
0
0
3.3386e-08
1.8352e-07
2.80452e-07
3.19595e-07
2.41159e-07
0
0
0
0
0
0
0
0
8.52081e-08
1.37093e-07
6.03778e-09
0
0
0
0
2.84078e-07
6.16729e-07
8.29243e-07
9.4579e-07
9.22656e-07
7.64906e-07
5.88521e-07
4.60468e-07
3.79742e-07
3.39654e-07
3.37997e-07
3.72731e-07
4.11423e-07
4.69302e-07
5.21667e-07
5.06118e-07
4.36516e-07
3.9765e-07
3.69881e-07
3.11239e-07
1.45096e-07
0
0
0
0
0
0
0
0
0
0
0
0
0
0
0
0
0
0
0
0
0
0
0
0
0
0
0
0
0
0
0
0
0
0
0
0
0
0
0
0
0
0
0
0
0
0
0
0
0
0
0
0
0
0
0
0
0
0
0
0
0
0
0
0
0
0
0
9.14591e-10
0
0
0
0
0
0
0
0
0
0
0
0
0
0
0
0
0
0
0
0
0
0
0
0
0
0
0
0
0
0
0
0
0
0
0
0
0
0
0
0
0
0
0
0
0
0
0
0
0
0
0
0
0
0
0
0
0
0
0
0
0
0
0
0
0
0
0
0
0
0
0
0
0
1.06771e-07
1.27356e-07
0
0
0
0
0
0
0
2.93567e-08
2.31396e-07
3.67551e-07
3.4396e-07
1.24847e-07
0
0
4.37231e-07
7.37314e-07
7.6745e-07
7.75304e-07
7.84608e-07
7.45574e-07
6.422e-07
5.36541e-07
4.4963e-07
3.77727e-07
3.32299e-07
3.16995e-07
3.31608e-07
3.42346e-07
3.67044e-07
4.06193e-07
3.9945e-07
3.081e-07
2.05205e-07
1.08215e-07
2.76156e-08
0
0
3.99151e-08
2.34427e-07
2.01879e-07
1.86943e-07
1.70046e-07
1.55218e-07
1.41285e-07
1.22914e-07
1.04925e-07
8.72527e-08
6.85364e-08
4.87441e-08
2.59085e-08
0
0
0
0
0
0
0
0
0
0
0
0
0
0
0
0
0
0
0
0
0
0
0
0
0
0
0
0
0
0
0
0
0
0
0
0
0
0
0
0
0
0
0
0
0
0
0
0
2.24864e-09
0
0
0
0
0
0
0
9.15598e-09
3.20971e-10
0
0
0
0
0
0
0
0
0
0
0
0
0
0
0
0
0
0
0
0
0
0
0
0
0
0
0
0
0
0
0
0
0
0
0
0
0
0
0
0
0
0
0
0
0
0
0
0
0
2.25949e-08
8.01816e-08
1.17047e-07
1.35218e-07
1.39881e-07
1.37768e-07
1.34763e-07
1.33023e-07
1.29929e-07
1.17443e-07
8.70049e-08
3.3894e-08
0
0
0
0
0
0
0
0
0
0
0
0
0
0
0
0
0
5.61245e-08
1.71298e-07
2.5307e-07
3.42578e-07
4.02428e-07
6.44274e-07
1.17754e-06
7.7262e-07
2.99074e-07
1.13912e-07
3.52868e-08
0
0
5.45087e-08
1.74907e-07
2.44049e-07
2.51528e-07
2.42329e-07
2.51769e-07
2.84953e-07
3.13532e-07
3.14443e-07
3.1435e-07
3.0592e-07
2.52882e-07
1.59968e-07
6.93461e-08
0
0
0
0
4.25773e-07
4.1468e-07
2.53245e-07
1.83371e-07
1.27808e-07
8.97171e-08
6.54388e-08
4.63384e-08
3.38555e-08
2.54966e-08
1.92236e-08
1.41334e-08
8.86415e-09
3.02192e-09
0
0
0
0
0
0
0
0
0
0
0
0
0
0
0
0
0
0
0
0
0
0
0
0
0
0
0
0
0
0
0
0
0
0
0
0
0
0
0
0
0
0
0
0
0
3.56595e-10
6.88721e-09
6.03566e-09
1.89917e-09
0
0
0
0
0
0
0
2.05102e-09
1.77768e-08
0
0
0
0
0
0
0
0
0
0
0
0
0
0
0
0
0
0
0
0
0
0
0
0
0
0
0
0
0
0
0
0
0
0
0
0
0
0
0
0
0
0
0
0
0
0
0
0
1.09333e-07
2.35219e-07
3.40838e-07
4.21909e-07
4.76259e-07
5.04576e-07
5.09558e-07
4.93119e-07
4.55732e-07
3.96002e-07
3.09736e-07
1.95288e-07
5.64349e-08
0
0
0
0
0
0
0
0
0
0
0
0
0
0
0
4.1328e-08
2.60477e-08
2.45455e-11
6.39991e-08
3.43572e-07
9.3758e-07
9.69778e-07
2.81145e-07
1.66895e-09
0
0
0
0
0
0
0
6.86547e-08
1.18575e-07
1.44609e-07
1.83911e-07
2.37016e-07
2.56862e-07
2.32676e-07
2.12853e-07
2.15586e-07
2.39822e-07
2.65646e-07
3.10343e-07
3.7738e-07
4.83009e-07
5.70242e-07
4.91161e-07
1.52012e-07
3.98827e-08
1.10659e-07
1.36649e-07
9.34141e-08
2.22952e-08
0
0
0
0
0
0
0
0
0
0
0
0
0
0
0
0
0
0
0
0
0
0
0
0
0
0
0
0
0
0
0
0
0
0
0
0
0
0
0
0
0
0
0
0
0
3.95366e-09
3.3643e-09
4.93406e-09
8.57975e-09
1.04157e-08
8.22116e-09
5.18527e-09
6.76803e-09
1.55137e-08
2.6227e-08
2.66545e-08
1.60063e-08
3.56089e-09
0
0
0
0
0
0
0
0
1.94031e-08
1.27928e-08
0
0
0
0
0
0
0
0
0
0
0
0
0
0
0
0
0
0
0
0
0
0
0
0
0
0
0
0
0
0
0
0
0
0
0
0
0
0
0
0
0
0
0
0
0
1.41761e-07
3.67073e-07
5.80764e-07
7.72093e-07
9.30245e-07
1.05071e-06
1.13366e-06
1.1814e-06
1.20126e-06
1.19546e-06
1.15655e-06
1.07648e-06
9.50848e-07
7.80343e-07
5.80245e-07
3.55821e-07
1.17838e-07
0
0
0
0
0
3.57609e-07
8.02372e-07
8.99138e-07
2.52489e-07
2.43556e-07
1.86555e-07
8.8781e-08
0
0
0
2.38313e-07
7.24679e-07
5.37613e-07
1.24314e-07
0
0
0
0
0
0
0
0
0
0
2.58508e-08
6.47375e-08
1.14382e-07
1.56344e-07
1.43548e-07
1.02716e-07
1.15294e-07
2.21879e-07
4.20347e-07
6.23026e-07
7.88376e-07
9.03942e-07
9.12243e-07
6.47696e-07
1.29333e-07
0
0
0
4.77054e-09
1.73744e-07
1.734e-07
6.04162e-08
0
0
0
0
0
0
0
0
0
0
0
0
0
0
0
0
0
0
0
0
0
0
0
0
0
0
0
0
0
0
0
0
0
0
0
0
0
0
0
0
0
0
0
0
9.67605e-09
1.86849e-08
2.57733e-08
3.50172e-08
4.34984e-08
4.70139e-08
4.40344e-08
3.63098e-08
3.1225e-08
3.34013e-08
4.03749e-08
3.79691e-08
2.11963e-08
2.23144e-09
0
0
0
0
0
0
0
0
1.54449e-08
2.33154e-08
4.02822e-09
0
0
0
0
0
0
0
0
0
0
0
0
0
0
0
0
0
0
0
0
0
0
0
0
0
0
0
0
0
0
0
0
0
0
0
0
0
0
0
0
0
2.56513e-08
1.04481e-07
1.46911e-07
1.88843e-07
2.71559e-07
4.1959e-07
6.31869e-07
8.90152e-07
1.15318e-06
1.38573e-06
1.5569e-06
1.65246e-06
1.69774e-06
1.71385e-06
1.69191e-06
1.63584e-06
1.51347e-06
1.33004e-06
1.10426e-06
8.71427e-07
6.87124e-07
6.14746e-07
7.43905e-07
1.07752e-06
1.69611e-06
2.39213e-06
9.7574e-07
6.35656e-07
4.4107e-07
2.25679e-07
5.50501e-08
0
0
2.5399e-07
5.64314e-07
3.72224e-07
9.00805e-08
0
0
0
0
0
0
0
0
0
0
0
0
1.53223e-08
4.59173e-08
4.75418e-08
0
0
0
7.04885e-08
4.09614e-07
7.5962e-07
9.18787e-07
7.9527e-07
4.25854e-07
0
0
0
0
0
0
0
3.03448e-07
4.70809e-07
3.80296e-07
1.37571e-07
0
0
0
0
0
0
0
0
0
0
0
0
0
0
0
0
0
0
0
0
0
0
0
0
0
0
0
0
3.31343e-09
4.14312e-09
0
0
0
0
0
0
0
0
0
0
0
0
1.20832e-08
3.58698e-08
5.00054e-08
6.31486e-08
7.51544e-08
8.18592e-08
8.05434e-08
7.05334e-08
5.49752e-08
4.36309e-08
4.21444e-08
4.79703e-08
4.44302e-08
2.33161e-08
0
0
0
0
0
0
0
0
0
1.43719e-08
2.5213e-08
1.03829e-08
0
0
0
0
0
0
0
0
0
0
0
0
0
0
0
0
0
0
0
0
0
0
0
0
0
0
0
0
0
0
0
0
0
0
0
2.10403e-07
5.72631e-07
8.61311e-07
1.02701e-06
9.87404e-07
6.26893e-07
0
0
0
0
0
0
0
0
0
4.56399e-07
9.5209e-07
1.31187e-06
1.55442e-06
1.67523e-06
1.69514e-06
1.65626e-06
1.54677e-06
1.39523e-06
1.20487e-06
1.03694e-06
9.96335e-07
1.13148e-06
1.65633e-06
2.33964e-06
1.19881e-06
7.56173e-07
5.70445e-07
3.43708e-07
1.52178e-07
3.8367e-08
7.27816e-08
3.00459e-07
4.88475e-07
3.3057e-07
1.11621e-07
0
0
0
0
0
0
0
0
0
0
0
0
1.40022e-08
3.05648e-08
2.71318e-08
0
0
0
0
0
0
2.97944e-07
4.38521e-07
2.00489e-07
0
0
0
0
0
0
0
0
0
0
4.1482e-07
6.20326e-07
5.16334e-07
1.9652e-07
0
0
0
0
0
0
0
0
0
0
0
0
0
0
0
0
0
0
0
0
0
0
0
0
0
0
0
6.164e-09
1.76795e-08
2.56578e-08
2.60964e-08
2.11698e-08
1.27896e-08
0
0
0
0
0
0
0
2.07931e-08
7.00183e-08
9.8361e-08
1.14142e-07
1.24824e-07
1.28797e-07
1.23079e-07
1.08041e-07
8.67138e-08
6.44133e-08
5.03067e-08
4.87338e-08
5.48217e-08
4.78126e-08
1.98161e-08
0
0
0
0
0
0
0
0
2.26606e-09
1.49661e-08
2.14498e-08
7.43655e-09
0
0
0
0
0
0
0
0
0
0
0
0
0
0
0
0
0
0
0
0
0
0
0
0
0
0
0
0
0
0
0
0
5.44962e-07
1.12751e-06
1.67116e-06
2.18803e-06
2.7065e-06
3.20927e-06
3.29109e-06
1.64487e-06
0
0
0
0
0
0
0
0
0
0
0
4.74251e-08
4.58135e-07
7.03064e-07
8.8965e-07
1.03589e-06
1.05887e-06
9.38248e-07
7.09249e-07
4.24437e-07
1.33421e-07
0
7.67543e-07
1.39242e-06
9.97151e-07
7.32117e-07
4.69399e-07
2.57382e-07
1.41169e-07
1.62274e-07
3.26996e-07
4.54346e-07
3.32895e-07
1.52643e-07
3.79687e-08
0
0
0
0
0
0
0
0
0
0
0
0
4.03071e-08
9.61384e-08
1.12559e-07
6.19288e-08
0
0
0
0
0
0
0
0
0
0
0
0
0
0
0
0
0
0
0
0
3.37781e-07
5.50458e-07
4.75725e-07
1.3922e-07
0
0
0
0
0
0
0
0
0
0
0
0
0
0
0
0
0
0
0
0
0
0
0
0
0
0
8.48283e-09
2.78729e-08
4.73367e-08
5.74346e-08
6.38916e-08
6.33975e-08
4.75311e-08
2.57856e-08
2.98218e-09
0
0
0
3.88972e-08
1.18699e-07
1.89218e-07
2.23102e-07
2.27797e-07
2.14827e-07
1.92859e-07
1.63854e-07
1.31259e-07
1.00591e-07
7.57541e-08
6.2007e-08
6.10347e-08
6.48133e-08
4.75954e-08
8.1509e-09
0
0
0
0
0
0
0
8.39266e-10
7.82327e-09
1.35203e-08
1.27875e-08
0
0
0
0
0
0
0
0
0
0
0
0
0
0
0
0
0
0
0
0
0
0
0
0
0
0
0
0
0
0
2.40205e-07
8.43094e-07
1.39784e-06
1.90634e-06
2.48436e-06
3.18177e-06
4.12978e-06
5.39761e-06
6.80631e-06
4.90615e-06
0
0
0
0
0
1.90537e-07
8.20209e-08
0
0
0
0
0
0
1.78564e-07
2.03069e-07
7.2071e-08
0
0
0
0
0
0
0
8.52825e-07
8.92371e-07
5.57721e-07
2.96332e-07
1.91425e-07
2.25399e-07
3.45277e-07
4.36716e-07
3.64053e-07
2.11311e-07
9.20619e-08
2.01965e-08
0
0
0
0
0
0
0
0
0
0
0
0
0
8.66517e-08
1.90222e-07
2.47886e-07
1.87838e-07
0
0
0
0
0
0
0
0
0
0
0
0
0
0
0
0
0
0
0
0
0
1.13038e-07
3.34535e-07
2.99136e-07
0
0
0
0
0
0
0
0
0
0
0
0
0
0
0
0
0
0
0
0
0
0
0
0
0
0
1.16388e-08
4.28681e-08
7.11844e-08
8.75589e-08
1.01089e-07
1.03587e-07
8.86864e-08
7.21281e-08
5.86782e-08
4.97437e-08
5.25153e-08
7.85854e-08
1.31587e-07
1.99048e-07
2.65552e-07
3.26734e-07
3.4893e-07
3.14259e-07
2.57443e-07
2.02282e-07
1.55897e-07
1.2226e-07
9.90946e-08
8.54311e-08
8.04809e-08
7.36052e-08
3.54762e-08
0
0
0
0
0
0
0
2.31579e-09
6.87691e-09
8.18926e-09
6.65735e-09
0
0
0
0
0
0
0
0
0
0
0
0
0
0
0
0
0
0
0
0
0
0
0
0
0
0
0
0
0
2.15163e-07
7.33233e-07
1.22498e-06
1.66578e-06
2.09557e-06
2.628e-06
3.2975e-06
4.27624e-06
5.5476e-06
7.06586e-06
5.59017e-06
0
0
0
0
0
4.95752e-08
8.41078e-07
8.60984e-07
0
0
0
0
0
8.62123e-08
3.05366e-07
1.53898e-07
0
0
0
0
0
0
0
1.37518e-07
3.91089e-07
2.61169e-07
1.69688e-07
2.31367e-07
3.46286e-07
4.15847e-07
3.92806e-07
2.82371e-07
1.64327e-07
7.59878e-08
2.15861e-08
0
0
0
0
0
0
0
0
0
0
0
0
0
0
1.15251e-07
2.65492e-07
3.75675e-07
3.38998e-07
0
0
0
0
0
0
0
0
0
0
0
0
0
0
0
0
0
0
0
0
0
0
0
0
0
0
0
0
0
0
0
0
0
0
0
0
0
0
0
0
0
0
0
0
0
0
0
0
0
0
2.2796e-08
7.55208e-08
1.14272e-07
1.36547e-07
1.52471e-07
1.49676e-07
1.36371e-07
1.28577e-07
1.26988e-07
1.31993e-07
1.47071e-07
1.74599e-07
2.11599e-07
2.51977e-07
2.94968e-07
3.47922e-07
3.9432e-07
3.71138e-07
2.99001e-07
2.33922e-07
1.86853e-07
1.54967e-07
1.29435e-07
1.06087e-07
8.37237e-08
5.63868e-08
0
0
0
0
0
0
0
1.76039e-09
7.81649e-09
6.20851e-09
1.26274e-09
0
0
0
0
0
0
0
0
0
0
0
0
0
0
0
0
0
0
0
0
0
0
0
0
0
0
0
0
0
0
1.46429e-07
2.9924e-07
4.36311e-07
5.75992e-07
7.54406e-07
9.56563e-07
1.10356e-06
1.06276e-06
6.77557e-07
0
0
0
0
0
0
0
0
1.47067e-07
4.31307e-07
0
0
0
0
0
1.46883e-07
1.89879e-07
5.78947e-08
0
0
0
0
0
0
2.52377e-08
2.45629e-07
3.27039e-07
3.77085e-07
4.22083e-07
4.32547e-07
4.03433e-07
3.30993e-07
2.26756e-07
1.32403e-07
6.56655e-08
2.57251e-08
3.83083e-09
0
0
0
0
0
0
0
0
0
0
0
0
0
0
1.14039e-07
2.58003e-07
3.91867e-07
3.94179e-07
1.56234e-07
0
0
0
0
0
0
0
0
0
0
0
0
0
0
0
0
0
0
0
0
0
0
0
0
0
0
0
0
0
0
0
0
0
0
0
0
0
0
0
0
0
0
0
1.63059e-10
0
0
0
0
0
6.62163e-08
1.42882e-07
1.85843e-07
2.06872e-07
2.13835e-07
1.98452e-07
1.90057e-07
1.9136e-07
1.978e-07
2.06715e-07
2.18871e-07
2.33447e-07
2.49956e-07
2.70547e-07
2.99976e-07
3.41948e-07
3.6897e-07
3.22342e-07
2.66029e-07
2.23013e-07
1.85083e-07
1.46931e-07
1.02239e-07
4.50043e-08
0
0
0
0
0
0
0
0
0
7.66772e-09
4.90753e-09
0
0
0
0
0
0
0
0
0
0
0
0
0
0
0
0
0
0
0
0
0
0
0
0
0
5.98461e-08
3.9713e-08
0
0
0
0
0
0
0
0
0
0
0
0
0
0
0
0
0
0
0
0
0
0
1.41178e-07
2.07948e-07
0
0
0
0
0
1.01495e-07
5.96631e-08
0
0
0
0
0
0
8.05091e-08
2.80767e-07
4.22512e-07
4.96603e-07
4.9055e-07
4.41946e-07
3.66799e-07
2.7598e-07
1.83686e-07
1.08365e-07
5.73816e-08
2.75073e-08
1.12678e-08
1.71233e-09
0
0
0
0
0
0
0
0
0
0
0
0
0
5.85887e-09
8.81029e-08
2.00954e-07
3.07697e-07
3.34722e-07
2.70394e-07
3.99852e-08
0
0
0
0
0
0
0
0
0
0
0
0
0
0
0
0
0
0
0
0
0
0
0
0
0
0
0
0
0
0
0
0
0
0
0
0
0
0
0
0
8.35435e-09
1.94623e-08
2.97761e-08
3.49494e-08
2.21089e-08
0
0
5.27907e-08
1.6781e-07
2.45659e-07
2.78515e-07
2.89916e-07
2.73706e-07
2.52629e-07
2.47967e-07
2.51399e-07
2.55277e-07
2.56838e-07
2.53549e-07
2.44433e-07
2.32867e-07
2.23548e-07
2.19555e-07
2.20498e-07
2.3095e-07
2.428e-07
2.1399e-07
1.73979e-07
1.24022e-07
5.93966e-08
0
0
0
0
0
0
0
0
0
0
4.43217e-09
2.24627e-09
0
0
0
0
0
0
0
0
0
0
0
0
0
0
0
0
0
0
0
0
0
0
0
0
1.20271e-07
4.61292e-07
4.82459e-07
3.63467e-07
1.40015e-07
0
0
0
0
0
0
0
0
0
0
0
0
0
3.72543e-07
6.10184e-07
5.07084e-07
3.03642e-07
9.95595e-08
0
0
1.02584e-07
2.66354e-07
8.04858e-08
0
0
0
4.05709e-08
8.22878e-08
4.71254e-08
1.70556e-09
0
0
0
0
0
3.59948e-08
2.52062e-07
3.80227e-07
4.23568e-07
3.97912e-07
3.46332e-07
2.79152e-07
2.0442e-07
1.34043e-07
7.94843e-08
4.35681e-08
2.26763e-08
1.15664e-08
5.7284e-09
1.63497e-09
0
0
0
0
0
0
0
0
0
0
0
0
0
1.39615e-08
5.82643e-08
1.23351e-07
1.82466e-07
2.30743e-07
2.66138e-07
2.46683e-07
2.08894e-07
1.4094e-07
7.9392e-08
0
0
0
0
0
0
0
0
0
0
0
0
0
0
0
0
0
0
0
0
0
0
0
0
0
0
3.57491e-08
4.05148e-08
5.12589e-09
0
0
0
0
0
0
0
1.20536e-08
2.80079e-08
4.42402e-08
6.0955e-08
7.33356e-08
6.20579e-08
4.12026e-08
6.04561e-08
1.74234e-07
2.95948e-07
3.51295e-07
3.69144e-07
3.59707e-07
3.24576e-07
3.06786e-07
3.00533e-07
2.96674e-07
2.88839e-07
2.71695e-07
2.42541e-07
2.05968e-07
1.71203e-07
1.44897e-07
1.3077e-07
1.36553e-07
1.6928e-07
1.71337e-07
1.26694e-07
6.61527e-08
0
0
0
0
0
3.04853e-08
1.49885e-08
0
0
0
0
0
0
0
0
0
0
0
0
0
0
0
0
0
0
0
0
0
0
0
0
0
0
0
0
0
1.58475e-08
2.52371e-07
5.65651e-07
6.48466e-07
5.82856e-07
3.96598e-07
1.37257e-07
0
0
0
0
0
0
0
0
0
0
0
0
1.03763e-06
9.57176e-07
6.4559e-07
3.83475e-07
2.08948e-07
1.29454e-07
1.41956e-07
2.05858e-07
2.8454e-07
3.33916e-07
1.38157e-07
0
1.28427e-07
1.2125e-07
7.79129e-08
2.76326e-08
0
0
0
0
0
0
0
1.47888e-07
2.63588e-07
2.83037e-07
2.49917e-07
2.12448e-07
1.65404e-07
1.15836e-07
7.34956e-08
4.25936e-08
2.26031e-08
1.13658e-08
6.18369e-09
4.63845e-09
4.53038e-09
4.23219e-09
2.82715e-09
7.6549e-11
0
0
0
0
0
0
0
0
1.25943e-08
2.22817e-08
2.70962e-08
3.2359e-08
4.63449e-08
6.85359e-08
9.83742e-08
1.45797e-07
2.04697e-07
2.75277e-07
3.77157e-07
5.68286e-07
8.42195e-07
1.15109e-06
1.12013e-06
0
0
0
0
0
0
0
0
0
0
0
0
0
0
0
0
0
0
0
0
0
0
6.68022e-09
2.96895e-08
2.90263e-08
1.55907e-08
4.57063e-09
1.21978e-09
2.55681e-09
4.74867e-09
6.59332e-09
8.00912e-09
1.13864e-08
2.0522e-08
3.53758e-08
5.25796e-08
7.24091e-08
9.98294e-08
1.16253e-07
1.08761e-07
1.0718e-07
1.75953e-07
3.23504e-07
4.10096e-07
4.38673e-07
4.39808e-07
4.0053e-07
3.66987e-07
3.48675e-07
3.367e-07
3.21393e-07
2.93922e-07
2.49629e-07
1.9449e-07
1.43351e-07
1.08044e-07
9.31463e-08
1.00206e-07
1.26895e-07
1.37277e-07
9.13208e-08
1.73459e-08
0
0
0
0
0
0
1.3322e-08
0
0
0
0
0
0
0
0
0
0
0
0
0
0
0
0
0
0
0
0
0
0
0
0
0
0
0
0
0
5.90902e-08
2.66647e-07
4.36816e-07
5.49746e-07
5.67872e-07
4.60252e-07
2.82166e-07
7.78859e-08
0
0
0
0
0
0
0
0
0
0
0
1.49268e-06
1.048e-06
6.8922e-07
4.39561e-07
2.93794e-07
2.51986e-07
2.83481e-07
3.18457e-07
4.57993e-07
1.07001e-06
1.56588e-06
8.28575e-07
3.39228e-07
1.77287e-07
9.86659e-08
3.87532e-08
6.71005e-09
0
2.20994e-09
6.31117e-09
1.17667e-09
0
0
1.2673e-08
1.12701e-07
1.29752e-07
1.02926e-07
7.52733e-08
4.89582e-08
2.47137e-08
8.49438e-09
0
0
0
0
5.53318e-10
4.77962e-09
9.04734e-09
1.28371e-08
1.59248e-08
1.7995e-08
1.8822e-08
1.82121e-08
1.60657e-08
1.4102e-08
1.44567e-08
2.00349e-08
3.23432e-08
4.97411e-08
6.67803e-08
7.92344e-08
8.39758e-08
8.34025e-08
7.92703e-08
7.91984e-08
9.49236e-08
1.32827e-07
1.88543e-07
2.64055e-07
3.70478e-07
5.36943e-07
6.67822e-07
5.89496e-07
1.78295e-08
0
0
0
0
0
0
0
0
0
0
0
0
0
3.28577e-08
1.15092e-07
0
0
0
0
0
0
1.4317e-08
2.07506e-08
2.66523e-08
2.98708e-08
2.7686e-08
2.32129e-08
1.89455e-08
1.60583e-08
1.75555e-08
2.25901e-08
2.95987e-08
4.04671e-08
5.52373e-08
6.90663e-08
8.43048e-08
1.09416e-07
1.48098e-07
1.64582e-07
1.66472e-07
2.0019e-07
3.30638e-07
4.48876e-07
4.95732e-07
5.05983e-07
4.71856e-07
4.22608e-07
3.91942e-07
3.72828e-07
3.53711e-07
3.20941e-07
2.66249e-07
1.97004e-07
1.33227e-07
9.06832e-08
7.42836e-08
8.20419e-08
1.06209e-07
1.1903e-07
7.92342e-08
0
0
0
0
0
0
0
0
0
0
0
0
0
0
0
0
0
0
0
0
0
0
0
0
0
0
0
0
0
0
0
0
0
0
0
0
0
7.10468e-08
1.74034e-07
2.26972e-07
3.12966e-07
3.6094e-07
3.41585e-07
2.45393e-07
1.15386e-07
0
0
0
0
0
0
0
0
0
0
0
8.11125e-07
6.28627e-07
4.50273e-07
3.38314e-07
3.37669e-07
4.18708e-07
4.75059e-07
5.31404e-07
9.70598e-07
1.84216e-06
1.04453e-06
7.13159e-07
3.47902e-07
1.87955e-07
1.11748e-07
5.65494e-08
2.42837e-08
1.51694e-08
1.54455e-08
1.82004e-08
1.77151e-08
1.07386e-08
0
0
0
0
0
0
0
0
0
0
0
0
0
0
3.41099e-09
1.20749e-08
2.05037e-08
2.86803e-08
3.64092e-08
4.33847e-08
4.96214e-08
5.31373e-08
5.45722e-08
5.55403e-08
5.90777e-08
7.01638e-08
8.97552e-08
1.13533e-07
1.39517e-07
1.63541e-07
1.83928e-07
1.90178e-07
1.85349e-07
1.85103e-07
2.04113e-07
2.43139e-07
2.9672e-07
3.71589e-07
4.87845e-07
5.8872e-07
5.2174e-07
3.11235e-08
0
0
0
0
0
0
0
0
0
0
0
0
0
0
9.30746e-08
6.9085e-08
0
0
0
0
5.46715e-09
4.98696e-09
1.13901e-08
3.32619e-08
5.45678e-08
5.96116e-08
5.1886e-08
4.02175e-08
2.96951e-08
2.66081e-08
3.31042e-08
4.54368e-08
6.41069e-08
8.86969e-08
1.09725e-07
1.15739e-07
1.29999e-07
1.63389e-07
2.04039e-07
2.20167e-07
2.41853e-07
3.36835e-07
4.66692e-07
5.35663e-07
5.56451e-07
5.32552e-07
4.73496e-07
4.32091e-07
4.0481e-07
3.82705e-07
3.49519e-07
2.89553e-07
2.09589e-07
1.36064e-07
8.69855e-08
6.59785e-08
7.01311e-08
9.19042e-08
1.07491e-07
7.56534e-08
0
0
0
0
0
0
0
0
0
0
0
0
0
0
0
0
0
0
0
0
0
0
0
3.15961e-09
0
0
0
0
0
0
0
0
0
0
0
0
0
5.98844e-08
5.85179e-08
4.47918e-08
7.22454e-08
1.09606e-07
1.17405e-07
8.13472e-08
1.34979e-08
0
0
0
0
0
0
0
0
0
0
0
1.29764e-07
3.00945e-07
3.74864e-07
4.40484e-07
5.38603e-07
6.11334e-07
6.62044e-07
9.45261e-07
1.72973e-06
1.09648e-06
6.46556e-07
5.67943e-07
2.98821e-07
1.81199e-07
1.1815e-07
6.33569e-08
3.63362e-08
2.9612e-08
2.98626e-08
2.99765e-08
2.86915e-08
2.44027e-08
1.78342e-08
0
0
0
0
0
0
0
0
0
0
0
0
0
5.93176e-10
1.36089e-08
2.61859e-08
3.87585e-08
5.14676e-08
6.41716e-08
7.70314e-08
8.82186e-08
9.59714e-08
1.01153e-07
1.05175e-07
1.15081e-07
1.35399e-07
1.62042e-07
1.94946e-07
2.36776e-07
2.88635e-07
3.31403e-07
3.61457e-07
3.81471e-07
4.11379e-07
4.72677e-07
5.38499e-07
6.41323e-07
7.88784e-07
9.38249e-07
9.27269e-07
3.63945e-07
0
0
0
0
0
0
0
0
0
0
0
0
0
0
1.47328e-08
2.06571e-07
3.3467e-07
2.64999e-07
1.67185e-07
9.80454e-08
4.72691e-08
1.55204e-08
1.90237e-08
5.67324e-08
9.30644e-08
9.97368e-08
8.34091e-08
6.01052e-08
3.98073e-08
3.30737e-08
4.27567e-08
6.22984e-08
9.60717e-08
1.35568e-07
1.73152e-07
1.84776e-07
1.76429e-07
1.94783e-07
2.32779e-07
2.653e-07
2.89937e-07
3.59594e-07
4.75867e-07
5.5897e-07
5.9107e-07
5.80108e-07
5.1781e-07
4.69626e-07
4.35382e-07
4.0756e-07
3.73751e-07
3.14514e-07
2.28664e-07
1.47466e-07
9.29423e-08
6.60664e-08
6.21411e-08
7.72731e-08
9.59772e-08
7.43704e-08
0
0
0
0
0
0
0
0
0
0
0
0
0
0
0
0
0
0
0
0
0
0
0
0
3.07269e-08
0
0
0
0
0
0
0
0
0
0
0
0
3.78435e-08
0
0
0
0
0
0
0
0
0
0
0
0
0
0
0
0
0
0
9.5231e-08
3.37338e-07
5.03657e-07
6.23104e-07
7.05544e-07
8.10258e-07
1.10755e-06
1.65453e-06
1.00257e-06
5.61925e-07
4.97652e-07
4.16016e-07
2.35404e-07
1.67582e-07
1.17832e-07
6.86815e-08
4.33452e-08
3.90815e-08
4.03259e-08
4.09553e-08
3.86153e-08
3.17284e-08
2.61181e-08
1.60805e-08
0
0
0
0
0
0
0
0
0
0
0
0
0
1.35919e-08
3.01477e-08
4.65547e-08
6.33722e-08
8.08956e-08
9.9261e-08
1.18277e-07
1.34285e-07
1.46514e-07
1.54213e-07
1.64215e-07
1.85085e-07
2.12488e-07
2.45503e-07
2.89048e-07
3.51654e-07
4.31084e-07
5.0715e-07
5.79893e-07
6.6182e-07
7.62576e-07
9.192e-07
1.10611e-06
1.39459e-06
1.72985e-06
2.10002e-06
1.99106e-06
0
0
0
0
0
0
0
0
0
0
2.43786e-08
0
0
0
0
2.34717e-07
4.71419e-07
4.75706e-07
3.56359e-07
2.21673e-07
1.08193e-07
4.20838e-08
4.50809e-08
9.82832e-08
1.39558e-07
1.37923e-07
1.08923e-07
7.2612e-08
4.38337e-08
3.39037e-08
4.62506e-08
7.56414e-08
1.36883e-07
2.10417e-07
2.68726e-07
3.01462e-07
2.69709e-07
2.51247e-07
2.75204e-07
3.06228e-07
3.35665e-07
3.98441e-07
4.91799e-07
5.7336e-07
6.14656e-07
6.14857e-07
5.55311e-07
5.01045e-07
4.6213e-07
4.29207e-07
3.92096e-07
3.34627e-07
2.48495e-07
1.61651e-07
1.01822e-07
6.88902e-08
5.51121e-08
5.81375e-08
7.59668e-08
7.06895e-08
0
0
0
0
0
0
0
0
0
0
0
0
0
0
0
0
0
0
0
0
0
0
0
0
2.84466e-08
2.26829e-08
0
0
0
0
0
0
0
0
0
0
0
0
0
0
0
0
0
0
0
0
0
0
0
0
0
0
0
0
0
2.17327e-08
2.69428e-07
5.09331e-07
6.67843e-07
7.86903e-07
9.68882e-07
1.36747e-06
1.56563e-06
8.33072e-07
4.95147e-07
3.96015e-07
4.56407e-07
2.82185e-07
1.92945e-07
1.48045e-07
1.02147e-07
7.03966e-08
5.3921e-08
4.81057e-08
4.57425e-08
4.48133e-08
4.42071e-08
3.64766e-08
2.7227e-08
1.93711e-08
0
0
0
0
0
0
0
0
0
0
0
0
0
1.16855e-08
3.2469e-08
5.24944e-08
7.2744e-08
9.38677e-08
1.16468e-07
1.40959e-07
1.65177e-07
1.85773e-07
2.00063e-07
2.12857e-07
2.33451e-07
2.62269e-07
2.93612e-07
3.31557e-07
3.81836e-07
4.59447e-07
5.61159e-07
6.72353e-07
7.93495e-07
9.45281e-07
1.1448e-06
1.42479e-06
1.86993e-06
2.51843e-06
3.58037e-06
5.02524e-06
7.48755e-07
0
0
0
0
0
0
0
0
0
5.65595e-08
2.18881e-08
0
0
2.26396e-08
2.81842e-07
4.80549e-07
5.01453e-07
4.18932e-07
2.91954e-07
1.56339e-07
7.79649e-08
9.14034e-08
1.4794e-07
1.72967e-07
1.54684e-07
1.13583e-07
6.81013e-08
3.57169e-08
2.83936e-08
4.47258e-08
8.2842e-08
1.7367e-07
3.14093e-07
4.09435e-07
4.71424e-07
4.41773e-07
3.59124e-07
3.38514e-07
3.60736e-07
3.85485e-07
4.38868e-07
5.17244e-07
5.86084e-07
6.30767e-07
6.38624e-07
5.84059e-07
5.23947e-07
4.81976e-07
4.45459e-07
4.02751e-07
3.43566e-07
2.60877e-07
1.72402e-07
1.071e-07
6.72113e-08
4.35386e-08
3.29327e-08
4.17933e-08
5.56393e-08
5.66214e-09
0
0
0
0
0
0
0
0
0
0
0
0
0
0
0
0
0
0
0
0
0
0
0
0
3.47687e-08
3.27838e-09
0
0
0
0
0
0
0
0
0
0
0
0
0
0
0
0
0
0
0
0
0
0
0
0
0
0
0
0
1.158e-07
3.66056e-07
5.94986e-07
8.16821e-07
1.16114e-06
1.61387e-06
1.15896e-06
5.90891e-07
3.89417e-07
3.14684e-07
3.90501e-07
3.26758e-07
2.15661e-07
1.69971e-07
1.27892e-07
1.0025e-07
8.17482e-08
6.85375e-08
5.92984e-08
5.14107e-08
4.51892e-08
4.33164e-08
3.83406e-08
2.63919e-08
1.4612e-08
0
0
0
0
0
0
0
0
0
0
0
0
0
7.65941e-09
3.30644e-08
5.65304e-08
7.96765e-08
1.03427e-07
1.28501e-07
1.55592e-07
1.8559e-07
2.1403e-07
2.36162e-07
2.54019e-07
2.75916e-07
3.0445e-07
3.35809e-07
3.69786e-07
4.09545e-07
4.66335e-07
5.4847e-07
6.53021e-07
7.81994e-07
9.42602e-07
1.15037e-06
1.42316e-06
1.81059e-06
2.38524e-06
3.17034e-06
3.31465e-06
8.74739e-07
0
0
0
0
0
0
0
0
0
5.63526e-08
3.57376e-08
0
0
1.37496e-07
3.70557e-07
4.9669e-07
4.82126e-07
3.93013e-07
2.70644e-07
1.57167e-07
1.2201e-07
1.53147e-07
1.77185e-07
1.68615e-07
1.3845e-07
9.37791e-08
4.30324e-08
1.38638e-08
1.66051e-08
3.98282e-08
8.49323e-08
1.95062e-07
4.28295e-07
5.90969e-07
6.90161e-07
6.92606e-07
5.4302e-07
4.43501e-07
4.25712e-07
4.44065e-07
4.768e-07
5.40741e-07
5.93572e-07
6.34901e-07
6.46199e-07
5.96543e-07
5.32544e-07
4.88508e-07
4.49513e-07
4.00493e-07
3.35663e-07
2.55323e-07
1.69241e-07
9.9661e-08
5.28608e-08
2.10151e-08
1.17842e-09
5.62081e-10
2.13099e-08
8.97011e-09
0
0
0
0
0
0
0
0
0
0
0
0