/*--------------------------------*- C++ -*----------------------------------*\
  =========                 |
  \\      /  F ield         | OpenFOAM: The Open Source CFD Toolbox
   \\    /   O peration     | Website:  https://openfoam.org
    \\  /    A nd           | Version:  7
     \\/     M anipulation  |
\*---------------------------------------------------------------------------*/
FoamFile
{
    version     2.0;
    format      ascii;
    class       volScalarField;
    location    "0.076";
    object      p;
}
// * * * * * * * * * * * * * * * * * * * * * * * * * * * * * * * * * * * * * //

dimensions      [0 2 -2 0 0 0 0];

internalField   nonuniform List<scalar> 
12225
(
-364.92
-361.462
-358.213
-355.076
-351.935
-348.845
-345.857
-342.988
-340.224
-337.542
-334.92
-332.34
-329.791
-327.261
-324.732
-322.159
-319.45
-316.403
-364.555
-361.493
-358.239
-355.085
-351.943
-348.853
-345.863
-342.991
-340.226
-337.545
-334.924
-332.346
-329.799
-327.273
-324.751
-322.195
-319.527
-316.627
-364.093
-361.576
-358.307
-355.106
-351.955
-348.866
-345.874
-342.997
-340.226
-337.541
-334.921
-332.349
-329.813
-327.304
-324.805
-322.287
-319.697
-316.998
-364.189
-361.717
-358.374
-355.129
-351.966
-348.877
-345.883
-342.999
-340.224
-337.539
-334.925
-332.363
-329.844
-327.358
-324.892
-322.425
-319.934
-317.431
-364.937
-361.933
-358.485
-355.174
-351.985
-348.89
-345.894
-343.007
-340.23
-337.546
-334.937
-332.389
-329.888
-327.43
-325.005
-322.602
-320.218
-317.891
-365.638
-362.16
-358.59
-355.223
-352.006
-348.904
-345.905
-343.016
-340.236
-337.555
-334.956
-332.423
-329.947
-327.523
-325.146
-322.814
-320.537
-318.357
-366.962
-362.473
-358.725
-355.288
-352.035
-348.918
-345.916
-343.026
-340.249
-337.573
-334.984
-332.47
-330.021
-327.635
-325.31
-323.051
-320.873
-318.816
-367.874
-362.712
-358.837
-355.352
-352.068
-348.936
-345.928
-343.037
-340.26
-337.592
-335.018
-332.526
-330.11
-327.766
-325.498
-323.311
-321.224
-319.27
-367.606
-362.86
-358.933
-355.417
-352.102
-348.95
-345.936
-343.047
-340.278
-337.62
-335.062
-332.595
-330.212
-327.913
-325.701
-323.584
-321.579
-319.71
-367.571
-362.889
-359.001
-355.479
-352.142
-348.971
-345.947
-343.056
-340.292
-337.646
-335.109
-332.671
-330.326
-328.074
-325.918
-323.867
-321.934
-320.136
-367.689
-362.831
-359.057
-355.543
-352.178
-348.984
-345.951
-343.063
-340.309
-337.679
-335.164
-332.756
-330.449
-328.243
-326.142
-324.151
-322.281
-320.542
-365.448
-362.604
-359.083
-355.593
-352.209
-348.995
-345.951
-343.061
-340.317
-337.704
-335.214
-332.836
-330.566
-328.403
-326.35
-324.41
-322.59
-320.897
-365.251
-362.503
-359.142
-355.656
-352.238
-348.996
-345.941
-343.054
-340.321
-337.728
-335.263
-332.915
-330.682
-328.56
-326.551
-324.658
-322.882
-321.229
-362.979
-362.555
-359.309
-355.747
-352.262
-348.98
-345.912
-343.029
-340.312
-337.745
-335.312
-333.002
-330.811
-328.737
-326.777
-324.931
-323.201
-321.587
-366.267
-363.682
-359.735
-355.878
-352.261
-348.924
-345.842
-342.968
-340.274
-337.739
-335.345
-333.081
-330.939
-328.916
-327.008
-325.212
-323.528
-321.952
-373.901
-365.753
-360.287
-355.93
-352.149
-348.768
-345.687
-342.839
-340.186
-337.699
-335.357
-333.148
-331.062
-329.094
-327.24
-325.494
-323.854
-322.315
-375.8
-366.621
-360.358
-355.677
-351.817
-348.427
-345.374
-342.579
-339.988
-337.566
-335.292
-333.149
-331.13
-329.227
-327.432
-325.74
-324.147
-322.647
-373.153
-364.373
-358.724
-354.422
-350.814
-347.623
-344.735
-342.081
-339.612
-337.3
-335.125
-333.073
-331.136
-329.305
-327.575
-325.939
-324.393
-322.933
-356.411
-357.263
-354.905
-351.957
-349.041
-346.287
-343.697
-341.264
-338.973
-336.811
-334.765
-332.827
-330.991
-329.249
-327.597
-326.027
-324.538
-323.125
-363.333
-356.592
-352.758
-349.833
-347.232
-344.804
-342.511
-340.325
-338.235
-336.239
-334.332
-332.511
-330.772
-329.112
-327.528
-326.017
-324.576
-323.204
-358.016
-353.075
-350.146
-347.834
-345.681
-343.592
-341.556
-339.57
-337.635
-335.762
-333.96
-332.226
-330.558
-328.958
-327.426
-325.96
-324.558
-323.217
-346.961
-348.257
-347.453
-346.02
-344.351
-342.567
-340.743
-338.92
-337.119
-335.353
-333.642
-331.98
-330.371
-328.82
-327.327
-325.894
-324.52
-323.204
-342.491
-345.507
-345.599
-344.676
-343.341
-341.795
-340.144
-338.449
-336.75
-335.067
-333.406
-331.79
-330.224
-328.709
-327.247
-325.84
-324.487
-323.189
-343.2
-344.479
-344.508
-343.771
-342.601
-341.188
-339.647
-338.047
-336.43
-334.815
-333.212
-331.637
-330.103
-328.616
-327.177
-325.788
-324.452
-323.167
-345.088
-344.213
-343.933
-343.244
-342.161
-340.827
-339.351
-337.804
-336.231
-334.65
-333.078
-331.53
-330.017
-328.548
-327.127
-325.753
-324.428
-323.153
-343.605
-343.638
-343.465
-342.814
-341.763
-340.491
-339.088
-337.607
-336.075
-334.525
-332.977
-331.447
-329.952
-328.497
-327.087
-325.723
-324.406
-323.137
-342.889
-343.455
-343.323
-342.643
-341.591
-340.332
-338.955
-337.497
-335.985
-334.448
-332.912
-331.394
-329.908
-328.462
-327.06
-325.704
-324.392
-323.127
-342.58
-343.07
-343.101
-342.457
-341.426
-340.204
-338.858
-337.419
-335.919
-334.393
-332.866
-331.356
-329.877
-328.438
-327.041
-325.688
-324.38
-323.117
-342.644
-343.165
-343.096
-342.385
-341.357
-340.148
-338.813
-337.381
-335.887
-334.364
-332.84
-331.333
-329.857
-328.422
-327.03
-325.682
-324.377
-323.114
-341.9
-343.128
-343.076
-342.327
-341.313
-340.12
-338.792
-337.363
-335.87
-334.35
-332.826
-331.32
-329.845
-328.41
-327.021
-325.674
-324.37
-323.109
-289.281
-289.341
-289.404
-289.43
-289.4
-289.314
-289.176
-288.998
-288.804
-288.62
-288.474
-288.373
-288.322
-288.315
-288.34
-288.383
-288.431
-288.474
-288.502
-288.507
-288.481
-288.419
-288.313
-288.158
-287.947
-287.676
-287.339
-286.936
-286.466
-285.933
-285.344
-284.705
-284.034
-283.345
-282.668
-282.03
-281.457
-281.04
-280.718
-280.344
-279.93
-279.499
-279.032
-278.549
-278.047
-277.494
-276.864
-276.151
-275.358
-274.521
-273.655
-272.765
-271.854
-271.01
-270.249
-269.532
-268.768
-267.951
-267.07
-266.273
-265.635
-265.048
-264.243
-263.234
-262.428
-262.142
-262.243
-262.597
-263.077
-263.586
-264.06
-264.46
-264.76
-264.945
-265.005
-264.937
-264.737
-264.405
-263.938
-263.338
-262.605
-261.737
-260.74
-259.617
-258.376
-257.023
-255.57
-254.027
-252.404
-250.712
-248.962
-247.162
-245.32
-243.441
-241.53
-239.591
-237.627
-235.641
-233.637
-231.621
-229.599
-227.581
-225.577
-223.596
-221.648
-219.744
-217.89
-216.091
-214.35
-212.667
-211.04
-209.466
-207.941
-206.46
-205.019
-203.612
-202.235
-200.883
-199.551
-198.234
-196.929
-195.631
-194.335
-193.038
-191.738
-190.43
-189.112
-187.784
-186.443
-185.088
-183.72
-182.338
-180.941
-179.532
-178.109
-176.672
-175.222
-173.759
-172.282
-170.791
-169.286
-167.766
-166.232
-164.682
-163.118
-161.539
-159.945
-158.336
-156.713
-155.075
-153.422
-151.755
-150.074
-148.379
-146.669
-144.945
-143.207
-141.455
-139.689
-137.908
-136.113
-134.303
-132.478
-130.639
-128.785
-126.916
-125.032
-123.134
-121.22
-119.291
-117.348
-115.39
-113.418
-111.431
-109.432
-107.42
-105.398
-103.371
-101.341
-99.3514
-289.526
-289.571
-289.626
-289.644
-289.609
-289.52
-289.389
-289.22
-289.045
-288.889
-288.769
-288.692
-288.658
-288.658
-288.681
-288.715
-288.749
-288.776
-288.787
-288.777
-288.739
-288.666
-288.554
-288.396
-288.187
-287.922
-287.597
-287.21
-286.758
-286.239
-285.66
-285.032
-284.367
-283.686
-283.005
-282.367
-281.779
-281.314
-280.97
-280.421
-279.783
-279.347
-279.008
-278.631
-278.204
-277.687
-277.065
-276.326
-275.486
-274.62
-273.745
-272.844
-271.899
-271.011
-270.267
-269.586
-268.783
-267.985
-267.356
-266.467
-265.4
-265.026
-264.483
-263.737
-263.17
-262.971
-263.089
-263.407
-263.817
-264.243
-264.632
-264.951
-265.18
-265.305
-265.318
-265.212
-264.983
-264.627
-264.141
-263.524
-262.773
-261.893
-260.885
-259.752
-258.5
-257.138
-255.675
-254.121
-252.489
-250.789
-249.032
-247.226
-245.38
-243.498
-241.586
-239.646
-237.681
-235.695
-233.69
-231.673
-229.649
-227.628
-225.619
-223.634
-221.683
-219.775
-217.918
-216.117
-214.374
-212.689
-211.061
-209.486
-207.96
-206.478
-205.036
-203.627
-202.248
-200.893
-199.56
-198.242
-196.936
-195.636
-194.34
-193.043
-191.742
-190.434
-189.117
-187.788
-186.447
-185.092
-183.724
-182.342
-180.946
-179.536
-178.113
-176.676
-175.226
-173.762
-172.285
-170.793
-169.287
-167.767
-166.233
-164.683
-163.118
-161.539
-159.945
-158.336
-156.713
-155.074
-153.422
-151.755
-150.074
-148.378
-146.669
-144.945
-143.207
-141.455
-139.689
-137.908
-136.113
-134.303
-132.479
-130.639
-128.785
-126.916
-125.033
-123.134
-121.22
-119.292
-117.348
-115.39
-113.418
-111.431
-109.432
-107.42
-105.398
-103.37
-101.338
-99.3335
-289.489
-289.504
-289.52
-289.518
-289.507
-289.481
-289.435
-289.372
-289.305
-289.252
-289.221
-289.214
-289.224
-289.243
-289.263
-289.282
-289.294
-289.295
-289.283
-289.252
-289.199
-289.116
-289
-288.842
-288.636
-288.377
-288.058
-287.675
-287.227
-286.719
-286.157
-285.549
-284.905
-284.242
-283.57
-282.911
-282.276
-281.675
-281.119
-280.563
-280.067
-279.681
-279.265
-278.777
-278.279
-277.76
-277.158
-276.443
-275.608
-274.736
-273.879
-272.982
-272.008
-271.091
-270.278
-269.471
-268.712
-267.88
-267.135
-266.656
-266.013
-265.468
-265.059
-264.714
-264.485
-264.409
-264.48
-264.658
-264.896
-265.153
-265.395
-265.596
-265.732
-265.788
-265.749
-265.604
-265.346
-264.968
-264.466
-263.836
-263.075
-262.183
-261.162
-260.014
-258.745
-257.364
-255.882
-254.309
-252.658
-250.941
-249.17
-247.353
-245.498
-243.612
-241.697
-239.756
-237.791
-235.805
-233.799
-231.778
-229.75
-227.723
-225.707
-223.714
-221.755
-219.841
-217.978
-216.172
-214.426
-212.739
-211.109
-209.532
-208.003
-206.521
-205.075
-203.662
-202.279
-200.92
-199.583
-198.261
-196.952
-195.651
-194.353
-193.056
-191.754
-190.445
-189.128
-187.798
-186.457
-185.102
-183.733
-182.35
-180.954
-179.543
-178.12
-176.682
-175.231
-173.767
-172.288
-170.796
-169.289
-167.768
-166.233
-164.683
-163.118
-161.539
-159.944
-158.335
-156.712
-155.074
-153.421
-151.754
-150.073
-148.378
-146.668
-144.944
-143.207
-141.455
-139.688
-137.908
-136.112
-134.303
-132.478
-130.639
-128.785
-126.917
-125.033
-123.134
-121.221
-119.292
-117.349
-115.391
-113.419
-111.433
-109.434
-107.423
-105.401
-103.373
-101.338
-99.3195
-289.589
-289.573
-289.541
-289.545
-289.56
-289.585
-289.615
-289.645
-289.672
-289.695
-289.716
-289.735
-289.752
-289.767
-289.777
-289.782
-289.779
-289.767
-289.742
-289.701
-289.639
-289.55
-289.428
-289.267
-289.057
-288.794
-288.473
-288.09
-287.647
-287.144
-286.585
-285.976
-285.333
-284.666
-283.986
-283.304
-282.63
-281.969
-281.336
-280.73
-280.15
-279.598
-279.067
-278.554
-278.059
-277.533
-276.938
-276.251
-275.481
-274.673
-273.871
-273.039
-272.125
-271.174
-270.353
-269.442
-268.472
-267.865
-267.355
-266.92
-266.578
-266.291
-266.055
-265.872
-265.76
-265.722
-265.754
-265.841
-265.965
-266.104
-266.237
-266.342
-266.399
-266.391
-266.301
-266.118
-265.83
-265.43
-264.911
-264.267
-263.494
-262.59
-261.553
-260.385
-259.093
-257.687
-256.176
-254.575
-252.898
-251.157
-249.364
-247.531
-245.665
-243.771
-241.853
-239.911
-237.947
-235.961
-233.953
-231.929
-229.895
-227.859
-225.832
-223.828
-221.859
-219.934
-218.064
-216.253
-214.503
-212.813
-211.182
-209.603
-208.073
-206.586
-205.136
-203.718
-202.328
-200.963
-199.62
-198.293
-196.979
-195.674
-194.374
-193.074
-191.771
-190.461
-189.143
-187.813
-186.471
-185.115
-183.745
-182.362
-180.964
-179.553
-178.128
-176.689
-175.238
-173.772
-172.293
-170.8
-169.293
-167.771
-166.235
-164.684
-163.119
-161.539
-159.945
-158.336
-156.712
-155.074
-153.421
-151.754
-150.073
-148.378
-146.668
-144.944
-143.206
-141.454
-139.688
-137.908
-136.113
-134.303
-132.479
-130.64
-128.786
-126.917
-125.033
-123.135
-121.221
-119.293
-117.35
-115.392
-113.42
-111.435
-109.435
-107.424
-105.402
-103.373
-101.336
-99.305
-289.798
-289.78
-289.768
-289.775
-289.82
-289.887
-289.95
-290.004
-290.049
-290.089
-290.124
-290.152
-290.174
-290.19
-290.199
-290.202
-290.197
-290.183
-290.157
-290.115
-290.052
-289.963
-289.839
-289.675
-289.462
-289.194
-288.864
-288.469
-288.008
-287.482
-286.902
-286.276
-285.614
-284.929
-284.231
-283.527
-282.826
-282.131
-281.446
-280.776
-280.113
-279.464
-278.84
-278.235
-277.643
-277.048
-276.438
-275.821
-275.177
-274.521
-273.86
-273.153
-272.468
-271.684
-270.649
-269.72
-268.946
-268.341
-267.94
-267.653
-267.446
-267.284
-267.142
-267.026
-266.947
-266.908
-266.904
-266.929
-266.975
-267.031
-267.085
-267.12
-267.118
-267.06
-266.93
-266.715
-266.405
-265.988
-265.458
-264.806
-264.026
-263.106
-262.05
-260.858
-259.537
-258.097
-256.551
-254.914
-253.201
-251.428
-249.608
-247.754
-245.872
-243.969
-242.047
-240.105
-238.142
-236.156
-234.148
-232.119
-230.075
-228.027
-225.986
-223.967
-221.984
-220.048
-218.169
-216.352
-214.598
-212.908
-211.275
-209.696
-208.166
-206.675
-205.22
-203.795
-202.398
-201.025
-199.673
-198.338
-197.018
-195.708
-194.403
-193.1
-191.794
-190.483
-189.163
-187.832
-186.489
-185.133
-183.762
-182.377
-180.978
-179.566
-178.14
-176.7
-175.247
-173.78
-172.3
-170.805
-169.297
-167.775
-166.238
-164.687
-163.121
-161.541
-159.946
-158.336
-156.712
-155.074
-153.421
-151.754
-150.073
-148.378
-146.668
-144.944
-143.206
-141.454
-139.688
-137.908
-136.113
-134.303
-132.479
-130.64
-128.786
-126.917
-125.034
-123.135
-121.222
-119.294
-117.351
-115.393
-113.421
-111.435
-109.436
-107.425
-105.402
-103.371
-101.331
-99.2899
-290.031
-290.032
-290.054
-290.103
-290.165
-290.226
-290.287
-290.346
-290.399
-290.443
-290.479
-290.507
-290.529
-290.546
-290.561
-290.567
-290.566
-290.553
-290.526
-290.478
-290.407
-290.305
-290.166
-289.986
-289.755
-289.466
-289.115
-288.698
-288.216
-287.671
-287.067
-286.419
-285.738
-285.036
-284.321
-283.602
-282.881
-282.163
-281.447
-280.733
-280.024
-279.322
-278.628
-277.95
-277.289
-276.64
-276.018
-275.432
-274.853
-274.31
-273.853
-273.392
-272.768
-272.081
-271.292
-270.416
-269.712
-269.21
-268.867
-268.628
-268.45
-268.312
-268.2
-268.108
-268.036
-267.98
-267.939
-267.91
-267.894
-267.89
-267.889
-267.877
-267.834
-267.744
-267.589
-267.357
-267.036
-266.614
-266.08
-265.425
-264.637
-263.708
-262.633
-261.415
-260.061
-258.581
-256.992
-255.309
-253.553
-251.74
-249.887
-248.007
-246.107
-244.194
-242.267
-240.325
-238.364
-236.379
-234.369
-232.333
-230.279
-228.214
-226.155
-224.117
-222.117
-220.167
-218.278
-216.455
-214.7
-213.01
-211.381
-209.805
-208.276
-206.785
-205.326
-203.895
-202.489
-201.106
-199.743
-198.399
-197.07
-195.752
-194.442
-193.134
-191.825
-190.51
-189.188
-187.855
-186.511
-185.153
-183.782
-182.396
-180.995
-179.581
-178.153
-176.712
-175.257
-173.789
-172.307
-170.812
-169.303
-167.78
-166.242
-164.69
-163.124
-161.543
-159.948
-158.338
-156.714
-155.075
-153.422
-151.755
-150.073
-148.378
-146.668
-144.944
-143.207
-141.455
-139.688
-137.908
-136.113
-134.304
-132.48
-130.641
-128.787
-126.918
-125.035
-123.136
-121.223
-119.294
-117.351
-115.394
-113.422
-111.436
-109.437
-107.425
-105.401
-103.367
-101.324
-99.2743
-290.304
-290.342
-290.398
-290.456
-290.522
-290.588
-290.646
-290.689
-290.724
-290.756
-290.794
-290.834
-290.873
-290.905
-290.929
-290.942
-290.94
-290.921
-290.883
-290.819
-290.725
-290.595
-290.423
-290.204
-289.932
-289.601
-289.209
-288.755
-288.239
-287.667
-287.046
-286.375
-285.687
-284.982
-284.264
-283.541
-282.818
-282.094
-281.368
-280.64
-279.908
-279.176
-278.453
-277.733
-277.033
-276.366
-275.724
-275.132
-274.629
-274.195
-273.758
-273.39
-272.977
-272.344
-271.655
-271
-270.469
-270.074
-269.784
-269.568
-269.405
-269.278
-269.177
-269.09
-269.009
-268.927
-268.845
-268.769
-268.707
-268.663
-268.631
-268.596
-268.536
-268.433
-268.271
-268.038
-267.721
-267.309
-266.785
-266.135
-265.346
-264.41
-263.319
-262.073
-260.679
-259.15
-257.507
-255.768
-253.957
-252.096
-250.202
-248.289
-246.368
-244.442
-242.51
-240.569
-238.611
-236.628
-234.616
-232.572
-230.502
-228.417
-226.333
-224.271
-222.249
-220.283
-218.383
-216.554
-214.797
-213.109
-211.485
-209.916
-208.393
-206.907
-205.449
-204.015
-202.601
-201.207
-199.832
-198.476
-197.136
-195.809
-194.49
-193.176
-191.862
-190.544
-189.218
-187.883
-186.537
-185.177
-183.804
-182.417
-181.015
-179.599
-178.169
-176.726
-175.269
-173.8
-172.317
-170.82
-169.31
-167.786
-166.247
-164.694
-163.127
-161.546
-159.95
-158.34
-156.715
-155.076
-153.423
-151.756
-150.074
-148.378
-146.669
-144.945
-143.207
-141.455
-139.689
-137.908
-136.114
-134.304
-132.48
-130.641
-128.788
-126.919
-125.035
-123.137
-121.223
-119.295
-117.352
-115.394
-113.422
-111.436
-109.436
-107.424
-105.398
-103.363
-101.316
-99.2585
-290.685
-290.723
-290.792
-290.852
-290.901
-290.936
-290.978
-291.034
-291.095
-291.151
-291.202
-291.252
-291.299
-291.342
-291.377
-291.4
-291.405
-291.388
-291.342
-291.261
-291.139
-290.971
-290.751
-290.476
-290.142
-289.748
-289.294
-288.781
-288.214
-287.598
-286.943
-286.256
-285.55
-284.832
-284.11
-283.385
-282.668
-281.949
-281.225
-280.498
-279.767
-279.033
-278.296
-277.575
-276.875
-276.189
-275.554
-274.988
-274.482
-274.059
-273.699
-273.297
-272.849
-272.36
-271.874
-271.439
-271.076
-270.785
-270.555
-270.377
-270.239
-270.129
-270.035
-269.945
-269.847
-269.736
-269.618
-269.506
-269.414
-269.353
-269.315
-269.281
-269.227
-269.132
-268.982
-268.767
-268.477
-268.094
-267.6
-266.975
-266.2
-265.263
-264.153
-262.871
-261.427
-259.837
-258.124
-256.313
-254.433
-252.509
-250.563
-248.611
-246.664
-244.724
-242.79
-240.853
-238.902
-236.925
-234.911
-232.858
-230.769
-228.656
-226.54
-224.444
-222.393
-220.404
-218.488
-216.651
-214.891
-213.205
-211.584
-210.022
-208.506
-207.028
-205.576
-204.144
-202.727
-201.325
-199.939
-198.569
-197.216
-195.878
-194.55
-193.228
-191.908
-190.584
-189.255
-187.916
-186.567
-185.205
-183.83
-182.44
-181.037
-179.619
-178.187
-176.742
-175.283
-173.812
-172.328
-170.83
-169.318
-167.793
-166.253
-164.7
-163.132
-161.55
-159.953
-158.343
-156.717
-155.078
-153.425
-151.757
-150.075
-148.379
-146.669
-144.945
-143.207
-141.455
-139.689
-137.909
-136.114
-134.305
-132.481
-130.642
-128.788
-126.92
-125.036
-123.138
-121.224
-119.296
-117.353
-115.395
-113.423
-111.436
-109.436
-107.422
-105.395
-103.357
-101.306
-99.2427
-291.131
-291.167
-291.2
-291.232
-291.278
-291.339
-291.399
-291.461
-291.53
-291.604
-291.687
-291.779
-291.873
-291.961
-292.035
-292.088
-292.111
-292.099
-292.044
-291.939
-291.779
-291.56
-291.276
-290.927
-290.513
-290.036
-289.498
-288.906
-288.266
-287.586
-286.878
-286.15
-285.412
-284.671
-283.934
-283.206
-282.475
-281.749
-281.025
-280.301
-279.576
-278.854
-278.14
-277.432
-276.738
-276.084
-275.48
-274.928
-274.436
-273.973
-273.546
-273.141
-272.751
-272.387
-272.061
-271.779
-271.539
-271.338
-271.173
-271.041
-270.934
-270.844
-270.758
-270.661
-270.544
-270.407
-270.261
-270.126
-270.023
-269.965
-269.942
-269.932
-269.905
-269.837
-269.718
-269.542
-269.3
-268.972
-268.53
-267.947
-267.198
-266.263
-265.135
-263.815
-262.312
-260.646
-258.846
-256.946
-254.979
-252.978
-250.968
-248.969
-246.991
-245.037
-243.104
-241.179
-239.246
-237.286
-235.282
-233.224
-231.115
-228.967
-226.806
-224.663
-222.567
-220.542
-218.603
-216.752
-214.986
-213.299
-211.681
-210.124
-208.615
-207.144
-205.699
-204.272
-202.857
-201.452
-200.058
-198.677
-197.311
-195.96
-194.621
-193.29
-191.963
-190.633
-189.299
-187.955
-186.602
-185.236
-183.858
-182.467
-181.061
-179.641
-178.207
-176.759
-175.299
-173.826
-172.34
-170.841
-169.328
-167.801
-166.26
-164.706
-163.137
-161.554
-159.957
-158.346
-156.72
-155.081
-153.427
-151.759
-150.076
-148.38
-146.67
-144.946
-143.208
-141.456
-139.69
-137.91
-136.115
-134.306
-132.482
-130.643
-128.789
-126.921
-125.037
-123.138
-121.225
-119.296
-117.353
-115.395
-113.423
-111.436
-109.435
-107.42
-105.391
-103.35
-101.296
-99.227
-291.557
-291.568
-291.599
-291.648
-291.709
-291.776
-291.865
-291.979
-292.113
-292.257
-292.408
-292.565
-292.724
-292.878
-293.018
-293.116
-293.173
-293.177
-293.118
-292.987
-292.779
-292.49
-292.121
-291.673
-291.151
-290.561
-289.909
-289.206
-288.461
-287.684
-286.888
-286.085
-285.283
-284.491
-283.712
-282.95
-282.203
-281.469
-280.746
-280.034
-279.325
-278.623
-277.926
-277.249
-276.604
-275.996
-275.426
-274.884
-274.355
-273.86
-273.424
-273.053
-272.739
-272.474
-272.253
-272.066
-271.907
-271.773
-271.662
-271.572
-271.496
-271.423
-271.341
-271.236
-271.104
-270.948
-270.785
-270.638
-270.537
-270.495
-270.502
-270.532
-270.549
-270.527
-270.46
-270.35
-270.189
-269.95
-269.592
-269.074
-268.361
-267.431
-266.285
-264.916
-263.336
-261.573
-259.663
-257.65
-255.576
-253.481
-251.394
-249.338
-247.325
-245.358
-243.432
-241.531
-239.632
-237.707
-235.729
-233.679
-231.555
-229.37
-227.155
-224.951
-222.796
-220.723
-218.748
-216.874
-215.095
-213.402
-211.784
-210.228
-208.723
-207.258
-205.82
-204.399
-202.988
-201.582
-200.184
-198.795
-197.418
-196.055
-194.704
-193.362
-192.026
-190.69
-189.349
-188.001
-186.643
-185.273
-183.891
-182.496
-181.088
-179.665
-178.229
-176.779
-175.316
-173.841
-172.353
-170.853
-169.338
-167.81
-166.269
-164.713
-163.143
-161.559
-159.961
-158.35
-156.724
-155.083
-153.429
-151.761
-150.078
-148.382
-146.671
-144.947
-143.209
-141.457
-139.69
-137.91
-136.116
-134.307
-132.483
-130.644
-128.791
-126.922
-125.038
-123.139
-121.226
-119.297
-117.354
-115.395
-113.422
-111.435
-109.433
-107.417
-105.387
-103.343
-101.285
-99.2116
-292.07
-292.088
-292.128
-292.19
-292.286
-292.411
-292.556
-292.734
-292.949
-293.194
-293.459
-293.735
-294.009
-294.265
-294.486
-294.668
-294.784
-294.814
-294.746
-294.573
-294.293
-293.906
-293.416
-292.83
-292.159
-291.413
-290.606
-289.749
-288.855
-287.939
-287.015
-286.095
-285.192
-284.314
-283.467
-282.654
-281.872
-281.12
-280.392
-279.683
-278.994
-278.326
-277.663
-277.037
-276.446
-275.882
-275.325
-274.763
-274.219
-273.738
-273.337
-273.021
-272.775
-272.583
-272.429
-272.303
-272.199
-272.113
-272.044
-271.987
-271.934
-271.874
-271.793
-271.683
-271.54
-271.372
-271.199
-271.049
-270.953
-270.932
-270.976
-271.058
-271.137
-271.187
-271.204
-271.195
-271.152
-271.038
-270.794
-270.363
-269.701
-268.782
-267.602
-266.162
-264.48
-262.591
-260.543
-258.39
-256.187
-253.98
-251.806
-249.688
-247.639
-245.663
-243.753
-241.892
-240.052
-238.192
-236.27
-234.254
-232.131
-229.913
-227.634
-225.349
-223.115
-220.976
-218.953
-217.048
-215.25
-213.545
-211.918
-210.356
-208.847
-207.381
-205.946
-204.528
-203.119
-201.715
-200.315
-198.921
-197.535
-196.161
-194.797
-193.444
-192.098
-190.753
-189.406
-188.053
-186.69
-185.315
-183.929
-182.53
-181.118
-179.692
-178.253
-176.801
-175.336
-173.859
-172.369
-170.866
-169.35
-167.821
-166.278
-164.721
-163.15
-161.565
-159.966
-158.354
-156.727
-155.087
-153.432
-151.763
-150.08
-148.383
-146.672
-144.948
-143.209
-141.457
-139.691
-137.911
-136.116
-134.307
-132.484
-130.645
-128.792
-126.923
-125.039
-123.14
-121.227
-119.298
-117.354
-115.396
-113.422
-111.434
-109.431
-107.414
-105.383
-103.336
-101.275
-99.1968
-292.804
-292.825
-292.882
-292.972
-293.104
-293.289
-293.526
-293.815
-294.158
-294.55
-294.98
-295.434
-295.889
-296.319
-296.693
-296.982
-297.163
-297.221
-297.147
-296.928
-296.556
-296.036
-295.377
-294.596
-293.712
-292.747
-291.722
-290.653
-289.557
-288.449
-287.347
-286.266
-285.22
-284.218
-283.269
-282.376
-281.54
-280.758
-280.021
-279.321
-278.653
-278.009
-277.399
-276.824
-276.266
-275.704
-275.13
-274.558
-274.037
-273.596
-273.249
-272.989
-272.801
-272.662
-272.558
-272.476
-272.413
-272.365
-272.329
-272.299
-272.264
-272.212
-272.133
-272.018
-271.868
-271.692
-271.514
-271.363
-271.272
-271.265
-271.343
-271.481
-271.639
-271.785
-271.913
-272.029
-272.126
-272.155
-272.041
-271.709
-271.106
-270.205
-268.99
-267.468
-265.667
-263.633
-261.427
-259.115
-256.766
-254.434
-252.163
-249.979
-247.895
-245.915
-244.031
-242.226
-240.464
-238.696
-236.861
-234.913
-232.823
-230.593
-228.257
-225.882
-223.55
-221.322
-219.231
-217.28
-215.454
-213.733
-212.097
-210.528
-209.012
-207.538
-206.095
-204.673
-203.261
-201.855
-200.452
-199.054
-197.663
-196.279
-194.904
-193.538
-192.179
-190.825
-189.47
-188.109
-186.741
-185.361
-183.97
-182.567
-181.151
-179.722
-178.28
-176.825
-175.358
-173.878
-172.386
-170.881
-169.363
-167.832
-166.288
-164.729
-163.157
-161.572
-159.972
-158.359
-156.731
-155.09
-153.435
-151.765
-150.082
-148.385
-146.674
-144.949
-143.21
-141.458
-139.692
-137.911
-136.117
-134.308
-132.485
-130.646
-128.793
-126.924
-125.04
-123.142
-121.228
-119.299
-117.355
-115.396
-113.422
-111.433
-109.43
-107.411
-105.378
-103.329
-101.264
-99.1826
-293.848
-293.874
-293.945
-294.065
-294.248
-294.507
-294.859
-295.306
-295.844
-296.458
-297.125
-297.816
-298.499
-299.138
-299.697
-300.141
-300.433
-300.542
-300.455
-300.158
-299.647
-298.932
-298.036
-296.991
-295.834
-294.598
-293.312
-291.995
-290.662
-289.325
-288.002
-286.716
-285.488
-284.331
-283.253
-282.257
-281.345
-280.512
-279.754
-279.058
-278.413
-277.799
-277.207
-276.627
-276.044
-275.449
-274.853
-274.297
-273.815
-273.425
-273.133
-272.926
-272.784
-272.688
-272.621
-272.576
-272.548
-272.533
-272.525
-272.518
-272.498
-272.455
-272.377
-272.26
-272.106
-271.926
-271.743
-271.587
-271.493
-271.489
-271.585
-271.764
-271.994
-272.237
-272.478
-272.715
-272.933
-273.083
-273.08
-272.836
-272.29
-271.413
-270.184
-268.612
-266.728
-264.581
-262.241
-259.787
-257.305
-254.859
-252.495
-250.242
-248.112
-246.116
-244.235
-242.465
-240.769
-239.088
-237.347
-235.483
-233.454
-231.253
-228.908
-226.48
-224.069
-221.754
-219.585
-217.573
-215.705
-213.956
-212.303
-210.724
-209.202
-207.722
-206.274
-204.845
-203.426
-202.012
-200.602
-199.198
-197.8
-196.408
-195.023
-193.644
-192.272
-190.905
-189.54
-188.171
-186.796
-185.411
-184.014
-182.607
-181.187
-179.754
-178.309
-176.851
-175.381
-173.899
-172.404
-170.897
-169.378
-167.845
-166.299
-164.739
-163.166
-161.579
-159.978
-158.364
-156.736
-155.094
-153.438
-151.768
-150.085
-148.387
-146.676
-144.95
-143.211
-141.459
-139.692
-137.912
-136.118
-134.309
-132.485
-130.647
-128.794
-126.925
-125.042
-123.143
-121.229
-119.299
-117.355
-115.396
-113.422
-111.432
-109.428
-107.408
-105.373
-103.322
-101.255
-99.1691
-295.205
-295.233
-295.321
-295.476
-295.729
-296.104
-296.614
-297.262
-298.031
-298.895
-299.814
-300.746
-301.65
-302.488
-303.217
-303.794
-304.175
-304.32
-304.179
-303.744
-303.029
-302.066
-300.894
-299.564
-298.13
-296.643
-295.138
-293.623
-292.09
-290.539
-288.985
-287.464
-286.02
-284.68
-283.454
-282.344
-281.35
-280.467
-279.678
-278.964
-278.305
-277.673
-277.046
-276.411
-275.771
-275.13
-274.527
-273.994
-273.553
-273.215
-272.975
-272.815
-272.714
-272.652
-272.617
-272.602
-272.607
-272.619
-272.636
-272.648
-272.644
-272.611
-272.539
-272.426
-272.273
-272.09
-271.902
-271.736
-271.627
-271.606
-271.691
-271.879
-272.145
-272.453
-272.776
-273.098
-273.391
-273.606
-273.661
-273.468
-272.959
-272.101
-270.875
-269.293
-267.385
-265.201
-262.811
-260.284
-257.742
-255.236
-252.821
-250.524
-248.355
-246.316
-244.405
-242.614
-240.914
-239.247
-237.539
-235.722
-233.759
-231.635
-229.361
-226.978
-224.567
-222.217
-219.995
-217.927
-216.009
-214.221
-212.538
-210.94
-209.405
-207.917
-206.462
-205.029
-203.607
-202.19
-200.773
-199.359
-197.951
-196.549
-195.153
-193.762
-192.376
-190.996
-189.618
-188.239
-186.855
-185.463
-184.061
-182.648
-181.224
-179.788
-178.34
-176.879
-175.406
-173.922
-172.425
-170.915
-169.393
-167.859
-166.31
-164.749
-163.174
-161.586
-159.985
-158.369
-156.74
-155.098
-153.441
-151.771
-150.087
-148.389
-146.677
-144.952
-143.213
-141.46
-139.693
-137.913
-136.118
-134.309
-132.486
-130.648
-128.795
-126.926
-125.043
-123.144
-121.229
-119.3
-117.356
-115.396
-113.421
-111.431
-109.426
-107.405
-105.368
-103.315
-101.245
-99.1566
-296.804
-296.84
-296.953
-297.155
-297.493
-297.997
-298.674
-299.515
-300.489
-301.551
-302.652
-303.749
-304.808
-305.796
-306.676
-307.397
-307.88
-308.049
-307.872
-307.341
-306.454
-305.242
-303.765
-302.092
-300.302
-298.481
-296.709
-295.034
-293.43
-291.807
-290.115
-288.378
-286.69
-285.136
-283.745
-282.511
-281.422
-280.472
-279.644
-278.905
-278.218
-277.543
-276.858
-276.156
-275.443
-274.761
-274.152
-273.644
-273.247
-272.96
-272.769
-272.654
-272.59
-272.559
-272.551
-272.558
-272.601
-272.631
-272.666
-272.694
-272.704
-272.683
-272.623
-272.519
-272.373
-272.195
-272.003
-271.825
-271.691
-271.634
-271.676
-271.826
-272.073
-272.39
-272.741
-273.093
-273.41
-273.638
-273.703
-273.523
-273.031
-272.192
-270.986
-269.424
-267.536
-265.372
-263.001
-260.505
-257.977
-255.485
-253.082
-250.791
-248.615
-246.552
-244.599
-242.754
-240.996
-239.273
-237.52
-235.688
-233.75
-231.695
-229.52
-227.246
-224.925
-222.626
-220.411
-218.317
-216.358
-214.527
-212.808
-211.181
-209.625
-208.122
-206.656
-205.216
-203.791
-202.372
-200.954
-199.535
-198.117
-196.704
-195.295
-193.89
-192.49
-191.096
-189.705
-188.314
-186.92
-185.519
-184.11
-182.691
-181.262
-179.822
-178.371
-176.907
-175.432
-173.945
-172.446
-170.934
-169.41
-167.873
-166.323
-164.76
-163.184
-161.594
-159.992
-158.375
-156.746
-155.102
-153.445
-151.774
-150.09
-148.391
-146.679
-144.953
-143.214
-141.461
-139.694
-137.913
-136.119
-134.31
-132.487
-130.649
-128.795
-126.927
-125.043
-123.144
-121.23
-119.301
-117.356
-115.396
-113.421
-111.431
-109.424
-107.402
-105.364
-103.309
-101.236
-99.1449
-298.545
-298.589
-298.725
-298.968
-299.379
-299.983
-300.784
-301.761
-302.871
-304.062
-305.289
-306.525
-307.752
-308.951
-310.086
-311.084
-311.829
-312.196
-312.096
-311.504
-310.421
-308.893
-307.005
-304.86
-302.574
-300.269
-298.07
-296.083
-294.363
-292.793
-291.143
-289.311
-287.384
-285.563
-283.948
-282.551
-281.341
-280.291
-279.378
-278.575
-277.837
-277.113
-276.387
-275.653
-274.926
-274.254
-273.68
-273.221
-272.881
-272.65
-272.508
-272.443
-272.415
-272.416