/*--------------------------------*- C++ -*----------------------------------*\
  =========                 |
  \\      /  F ield         | OpenFOAM: The Open Source CFD Toolbox
   \\    /   O peration     | Website:  https://openfoam.org
    \\  /    A nd           | Version:  7
     \\/     M anipulation  |
\*---------------------------------------------------------------------------*/
FoamFile
{
    version     2.0;
    format      ascii;
    class       surfaceScalarField;
    location    "0.076";
    object      phi;
}
// * * * * * * * * * * * * * * * * * * * * * * * * * * * * * * * * * * * * * //

dimensions      [0 3 -1 0 0 0 0];

internalField   nonuniform List<scalar> 
24170
(
1.40379e-06
1.62266e-07
1.2776e-06
1.26188e-07
1.13226e-06
1.45347e-07
1.00479e-06
1.27464e-07
8.93318e-07
1.11473e-07
7.88263e-07
1.05055e-07
6.88888e-07
9.93746e-08
5.99687e-07
8.92019e-08
5.2384e-07
7.5847e-08
4.61423e-07
6.24168e-08
4.10809e-07
5.0614e-08
3.69719e-07
4.10896e-08
3.34986e-07
3.47329e-08
3.03918e-07
3.10686e-08
2.72982e-07
3.09362e-08
2.42547e-07
3.04341e-08
2.05911e-07
3.6636e-08
3.58235e-08
1.70088e-07
1.64339e-06
2.04093e-07
1.62785e-06
1.41736e-07
1.60072e-06
1.72473e-07
1.5667e-06
1.61481e-07
1.532e-06
1.46176e-07
1.49434e-06
1.42721e-07
1.45085e-06
1.42859e-07
1.40274e-06
1.37309e-07
1.35407e-06
1.2452e-07
1.30912e-06
1.07371e-07
1.26982e-06
8.99135e-08
1.23468e-06
7.62257e-08
1.19973e-06
6.9681e-08
1.16139e-06
6.94076e-08
1.11819e-06
7.4145e-08
1.07101e-06
7.76101e-08
1.02328e-06
8.43703e-08
9.0527e-08
9.68572e-07
1.76755e-06
2.914e-07
1.74163e-06
1.67656e-07
1.7308e-06
1.83306e-07
1.72387e-06
1.68407e-07
1.72408e-06
1.45964e-07
1.72602e-06
1.40787e-07
1.72378e-06
1.45094e-07
1.71483e-06
1.46265e-07
1.70025e-06
1.39098e-07
1.6833e-06
1.24319e-07
1.66692e-06
1.06292e-07
1.65231e-06
9.08452e-08
1.63873e-06
8.32594e-08
1.62442e-06
8.37191e-08
1.60747e-06
9.10864e-08
1.58611e-06
9.89724e-08
1.56129e-06
1.09197e-07
1.20331e-07
1.53148e-06
1.94909e-06
3.14291e-07
1.89929e-06
2.1746e-07
1.87399e-06
2.08607e-07
1.86111e-06
1.81285e-07
1.85268e-06
1.54396e-07
1.84788e-06
1.45586e-07
1.84696e-06
1.46015e-07
1.84815e-06
1.45078e-07
1.84925e-06
1.37994e-07
1.84923e-06
1.2434e-07
1.84786e-06
1.07665e-07
1.8453e-06
9.34058e-08
1.84199e-06
8.65627e-08
1.83798e-06
8.77348e-08
1.83335e-06
9.57168e-08
1.82653e-06
1.05786e-07
1.81799e-06
1.17736e-07
1.30579e-07
1.80775e-06
2.06109e-06
3.01051e-07
2.05289e-06
2.25663e-07
2.03969e-06
2.21805e-07
2.01423e-06
2.06749e-07
1.98891e-06
1.7972e-07
1.97805e-06
1.56442e-07
1.98228e-06
1.41782e-07
1.99372e-06
1.33642e-07
2.00516e-06
1.26552e-07
2.01286e-06
1.16644e-07
2.0156e-06
1.04922e-07
2.01354e-06
9.54606e-08
2.00814e-06
9.19681e-08
2.001e-06
9.4871e-08
1.99411e-06
1.02612e-07
1.98761e-06
1.12282e-07
1.98252e-06
1.22828e-07
1.34094e-07
1.979e-06
2.26103e-06
3.53002e-07
2.19816e-06
2.88533e-07
2.1687e-06
2.51261e-07
2.15258e-06
2.22875e-07
2.13904e-06
1.93262e-07
2.12799e-06
1.67491e-07
2.12207e-06
1.47702e-07
2.12195e-06
1.33758e-07
2.12578e-06
1.22727e-07
2.13052e-06
1.11903e-07
2.13371e-06
1.01729e-07
2.13424e-06
9.49266e-08
2.13263e-06
9.35819e-08
2.12993e-06
9.75687e-08
2.12758e-06
1.04966e-07
2.12601e-06
1.13847e-07
2.12617e-06
1.22676e-07
1.31925e-07
2.12834e-06
2.38494e-06
4.0605e-07
2.35802e-06
3.15446e-07
2.34911e-06
2.60177e-07
2.35038e-06
2.21606e-07
2.34642e-06
1.97215e-07
2.33526e-06
1.78658e-07
2.3223e-06
1.60659e-07
2.31251e-06
1.43548e-07
2.30713e-06
1.28108e-07
2.30464e-06
1.14386e-07
2.30308e-06
1.03295e-07
2.30132e-06
9.66825e-08
2.2994e-06
9.5501e-08
2.29787e-06
9.90966e-08
2.29751e-06
1.05334e-07
2.29883e-06
1.12524e-07
2.30232e-06
1.19184e-07
1.25531e-07
2.30872e-06
2.54475e-06
4.54374e-07
2.52692e-06
3.33268e-07
2.52892e-06
2.58186e-07
2.53429e-06
2.1623e-07
2.53877e-06
1.92741e-07
2.54064e-06
1.7678e-07
2.53742e-06
1.63878e-07
2.5297e-06
1.5127e-07
2.52088e-06
1.36928e-07
2.51417e-06
1.21096e-07
2.51076e-06
1.06705e-07
2.51003e-06
9.74136e-08
2.51093e-06
9.45987e-08
2.51284e-06
9.71902e-08
2.51567e-06
1.02507e-07
2.51967e-06
1.08524e-07
2.52516e-06
1.13696e-07
1.18349e-07
2.53234e-06
2.73586e-06
3.92322e-07
2.73107e-06
3.38059e-07
2.71813e-06
2.71127e-07
2.7083e-06
2.26059e-07
2.70461e-06
1.96426e-07
2.70517e-06
1.76217e-07
2.70741e-06
1.61643e-07
2.70992e-06
1.48759e-07
2.71219e-06
1.34663e-07
2.7136e-06
1.19678e-07
2.71362e-06
1.06694e-07
2.71229e-06
9.87359e-08
2.71044e-06
9.64499e-08
2.70918e-06
9.84538e-08
2.70958e-06
1.02101e-07
2.71229e-06
1.05815e-07
2.7176e-06
1.08386e-07
1.10266e-07
2.72569e-06
2.93099e-06
3.79966e-07
2.90582e-06
3.63221e-07
2.88185e-06
2.95104e-07
2.88496e-06
2.2295e-07
2.90358e-06
1.778e-07
2.9195e-06
1.603e-07
2.92518e-06
1.55964e-07
2.9226e-06
1.51335e-07
2.91691e-06
1.40353e-07
2.91261e-06
1.2398e-07
2.91227e-06
1.07032e-07
2.91641e-06
9.45929e-08
2.92397e-06
8.88924e-08
2.93312e-06
8.93083e-08
2.94229e-06
9.29317e-08
2.95064e-06
9.7458e-08
2.95823e-06
1.00804e-07
1.02366e-07
2.96613e-06
3.15239e-06
3.97224e-07
3.12162e-06
3.93987e-07
3.10633e-06
3.10394e-07
3.10499e-06
2.24285e-07
3.11361e-06
1.69181e-07
3.12632e-06
1.47589e-07
3.13702e-06
1.45273e-07
3.14223e-06
1.46116e-07
3.14221e-06
1.40373e-07
3.13952e-06
1.26676e-07
3.13726e-06
1.09292e-07
3.13751e-06
9.43416e-08
3.14064e-06
8.57617e-08
3.14559e-06
8.43537e-08
3.15117e-06
8.73535e-08
3.15667e-06
9.19642e-08
3.16257e-06
9.49021e-08
9.53143e-08
3.16962e-06
2.88972e-06
4.45508e-07
2.86969e-06
4.14024e-07
2.84558e-06
3.34501e-07
2.81652e-06
2.53339e-07
2.79772e-06
1.87981e-07
2.7938e-06
1.51514e-07
2.7982e-06
1.40869e-07
2.80384e-06
1.40478e-07
2.80744e-06
1.36771e-07
2.8087e-06
1.25424e-07
2.80855e-06
1.09433e-07
2.80837e-06
9.45232e-08
2.80932e-06
8.48133e-08
2.81234e-06
8.13357e-08
2.81781e-06
8.18808e-08
2.82599e-06
8.37897e-08
2.8369e-06
8.39924e-08
8.18618e-08
2.85035e-06
3.46691e-06
4.08599e-07
3.4665e-06
4.14436e-07
3.46514e-06
3.35859e-07
3.46164e-06
2.56834e-07
3.45782e-06
1.91807e-07
3.45523e-06
1.54103e-07
3.45489e-06
1.41204e-07
3.45709e-06
1.38278e-07
3.46123e-06
1.32636e-07
3.46572e-06
1.20936e-07
3.46879e-06
1.06359e-07
3.4698e-06
9.35119e-08
3.46969e-06
8.49297e-08
3.47067e-06
8.03477e-08
3.47496e-06
7.75953e-08
3.48388e-06
7.4869e-08
3.49762e-06
7.0254e-08
6.47983e-08
3.51468e-06
4.13415e-06
4.09603e-07
4.16405e-06
3.84535e-07
4.18665e-06
3.13259e-07
4.21573e-06
2.27761e-07
4.23648e-06
1.7105e-07
4.24042e-06
1.50166e-07
4.23338e-06
1.48247e-07
4.22438e-06
1.4728e-07
4.21842e-06
1.38593e-07
4.2155e-06
1.23851e-07
4.21331e-06
1.08553e-07
4.21053e-06
9.62885e-08
4.20821e-06
8.72479e-08
4.20899e-06
7.95734e-08
4.21537e-06
7.12151e-08
4.22835e-06
6.18884e-08
4.2472e-06
5.14029e-08
4.19458e-08
4.27005e-06
5.13099e-06
3.94316e-07
5.19526e-06
3.20268e-07
5.21146e-06
2.97057e-07
5.2088e-06
2.3042e-07
5.20598e-06
1.73869e-07
5.20679e-06
1.49363e-07
5.20856e-06
1.46478e-07
5.2084e-06
1.47438e-07
5.20686e-06
1.40128e-07
5.20664e-06
1.24075e-07
5.20985e-06
1.05339e-07
5.2169e-06
8.9246e-08
5.22673e-06
7.74119e-08
5.23753e-06
6.87781e-08
5.24778e-06
6.09593e-08
5.25672e-06
5.29521e-08
5.26431e-06
4.38131e-08
3.44864e-08
5.27177e-06
6.38362e-06
3.3009e-07
6.34722e-06
3.56673e-07
6.30739e-06
3.36884e-07
6.26895e-06
2.68861e-07
6.24394e-06
1.98879e-07
6.23884e-06
1.54463e-07
6.24892e-06
1.36395e-07
6.26722e-06
1.29144e-07
6.28973e-06
1.17615e-07
6.31477e-06
9.90351e-08
6.34083e-06
7.92809e-08
6.36528e-06
6.47942e-08
6.3852e-06
5.74972e-08
6.3985e-06
5.54718e-08
6.4053e-06
5.41646e-08
6.40759e-06
5.06551e-08
6.40839e-06
4.30205e-08
3.18738e-08
6.411e-06
7.58427e-06
3.09472e-07
7.65806e-06
2.82884e-07
7.72056e-06
2.74386e-07
7.75205e-06
2.37368e-07
7.75851e-06
1.92423e-07
7.7529e-06
1.60069e-07
7.74954e-06
1.39754e-07
7.75625e-06
1.22431e-07
7.77084e-06
1.03033e-07
7.78668e-06
8.31944e-08
7.79916e-06
6.67931e-08
7.80736e-06
5.65951e-08
7.81263e-06
5.22308e-08
7.8169e-06
5.12011e-08
7.82113e-06
4.99402e-08
7.82577e-06
4.60091e-08
7.83039e-06
3.8403e-08
2.72279e-08
7.83503e-06
9.39582e-06
3.8686e-07
9.39236e-06
2.86349e-07
9.41537e-06
2.51368e-07
9.42154e-06
2.31206e-07
9.40759e-06
2.06374e-07
9.39256e-06
1.75093e-07
9.39474e-06
1.37576e-07
9.41632e-06
1.00846e-07
9.44513e-06
7.42303e-08
9.46823e-06
6.00936e-08
9.48051e-06
5.4512e-08
9.48562e-06
5.14823e-08
9.49105e-06
4.68066e-08
9.503e-06
3.92516e-08
9.52298e-06
2.99551e-08
9.54861e-06
2.03757e-08
9.57542e-06
1.15984e-08
3.99429e-09
9.59865e-06
1.14129e-05
3.87975e-07
1.13821e-05
3.17121e-07
1.13731e-05
2.60449e-07
1.13919e-05
2.12327e-07
1.14284e-05
1.69946e-07
1.14765e-05
1.26926e-07
1.15301e-05
8.40237e-08
1.15779e-05
5.3047e-08
1.16088e-05
4.33428e-08
1.1617e-05
5.18877e-08
1.16064e-05
6.51211e-08
1.15888e-05
6.90189e-08
1.15781e-05
5.75074e-08
1.15842e-05
3.31883e-08
1.161e-05
4.1852e-09
1.16511e-05
-2.08049e-08
1.17014e-05
-3.8621e-08
-4.68495e-08
1.17522e-05
8.33357e-06
4.45067e-07
8.37279e-06
2.77899e-07
8.3889e-06
2.44337e-07
8.39653e-06
2.04698e-07
8.41453e-06
1.51945e-07
8.43784e-06
1.03617e-07
8.45534e-06
6.65233e-08
8.46585e-06
4.25376e-08
8.47647e-06
3.2723e-08
8.49385e-06
3.45067e-08
8.51896e-06
4.00124e-08
8.54777e-06
4.02145e-08
8.57486e-06
3.04106e-08
8.59627e-06
1.17784e-08
8.61131e-06
-1.08555e-08
8.62199e-06
-3.14787e-08
8.63041e-06
-4.70467e-08
-5.55056e-08
8.63907e-06
7.27e-06
3.25614e-07
7.34319e-06
2.04709e-07
7.39526e-06
1.92269e-07
7.41857e-06
1.81392e-07
7.42998e-06
1.40528e-07
7.44173e-06
9.18734e-08
7.45435e-06
5.39004e-08
7.46705e-06
2.98336e-08
7.48277e-06
1.70077e-08
7.50579e-06
1.14891e-08
7.53704e-06
8.75849e-09
7.5727e-06
4.55783e-09
7.60625e-06
-3.14608e-09
7.63251e-06
-1.4474e-08
7.64821e-06
-2.65584e-08
7.6538e-06
-3.70671e-08
7.65104e-06
-4.42903e-08
-4.74944e-08
7.64303e-06
6.32338e-06
3.14458e-07
6.33999e-06
1.88098e-07
6.39799e-06
1.34271e-07
6.44689e-06
1.32488e-07
6.46585e-06
1.21572e-07
6.46131e-06
9.64121e-08
6.44936e-06
6.58536e-08
6.44272e-06
3.64747e-08
6.4461e-06
1.36297e-08
6.45966e-06
-2.07139e-09
6.48094e-06
-1.25307e-08
6.50822e-06
-2.27144e-08
6.53866e-06
-3.35893e-08
6.5687e-06
-4.45173e-08
6.59554e-06
-5.33941e-08
6.61708e-06
-5.86044e-08
6.63229e-06
-5.95029e-08
-5.64099e-08
6.6412e-06
5.58695e-06
3.58445e-07
5.61331e-06
1.61743e-07
5.64215e-06
1.05428e-07
5.68686e-06
8.77808e-08
5.72781e-06
8.06228e-08
5.74841e-06
7.5811e-08
5.75146e-06
6.27994e-08
5.74883e-06
3.91095e-08
5.75075e-06
1.1707e-08
5.76037e-06
-1.16911e-08
5.77418e-06
-2.63407e-08
5.78461e-06
-3.31405e-08
5.78699e-06
-3.59738e-08
5.78057e-06
-3.80914e-08
5.76816e-06
-4.09887e-08
5.75398e-06
-4.44267e-08
5.74224e-06
-4.77565e-08
-4.98978e-08
5.73572e-06
4.879e-06
4.57935e-07
4.84528e-06
1.95457e-07
4.85963e-06
9.10781e-08
4.89454e-06
5.28691e-08
4.93444e-06
4.07235e-08
4.97095e-06
3.93027e-08
5.00086e-06
3.28957e-08
5.02585e-06
1.41187e-08
5.04865e-06
-1.1096e-08
5.06994e-06
-3.29821e-08
5.08847e-06
-4.48755e-08
5.10128e-06
-4.59466e-08
5.1061e-06
-4.07969e-08
5.10296e-06
-3.49494e-08
5.0942e-06
-3.22289e-08
5.08322e-06
-3.34433e-08
5.07314e-06
-3.76744e-08
-4.26409e-08
5.06588e-06
4.24294e-06
3.25989e-07
4.27415e-06
1.64254e-07
4.29041e-06
7.48109e-08
4.31783e-06
2.54547e-08
4.35609e-06
2.4625e-09
4.39792e-06
-2.53022e-09
4.43403e-06
-3.21461e-09
4.45811e-06
-9.96001e-09
4.46865e-06
-2.16396e-08
4.46737e-06
-3.16964e-08
4.45887e-06
-3.63758e-08
4.44873e-06
-3.58045e-08
4.44132e-06
-3.33856e-08
4.43879e-06
-3.24213e-08
4.44067e-06
-3.41153e-08
4.44511e-06
-3.78821e-08
4.44978e-06
-4.23416e-08
-4.599e-08
4.45313e-06
3.70266e-06
2.223e-07
3.78938e-06
7.75362e-08
3.81276e-06
5.14336e-08
3.799e-06
3.92095e-08
3.78983e-06
1.16325e-08
3.80228e-06
-1.49784e-08
3.83281e-06
-3.37408e-08
3.86825e-06
-4.54003e-08
3.89716e-06
-5.05507e-08
3.91536e-06
-4.98969e-08
3.92448e-06
-4.54988e-08
3.92929e-06
-4.06136e-08
3.93375e-06
-3.78421e-08
3.9392e-06
-3.78761e-08
3.94488e-06
-3.97875e-08
3.94932e-06
-4.23247e-08
3.95154e-06
-4.45608e-08
-4.60938e-08
3.95164e-06
3.26701e-06
1.98903e-07
3.30959e-06
3.49505e-08
3.33439e-06
2.66329e-08
3.35061e-06
2.29942e-08
3.36502e-06
-2.77661e-09
3.38444e-06
-3.43965e-08
3.40375e-06
-5.30541e-08
3.4176e-06
-5.92498e-08
3.42435e-06
-5.73042e-08
3.42698e-06
-5.25292e-08
3.43027e-06
-4.87868e-08
3.43745e-06
-4.77926e-08
3.44866e-06
-4.90493e-08
3.46165e-06
-5.08713e-08
3.47363e-06
-5.17683e-08
3.48267e-06
-5.13593e-08
3.48824e-06
-5.01328e-08
-4.9278e-08
3.49143e-06
2.91996e-06
1.89784e-07
2.92391e-06
3.09955e-08
2.94856e-06
1.98935e-09
2.99645e-06
-2.49002e-08
3.04095e-06
-4.72751e-08
3.06485e-06
-5.82957e-08
3.06955e-06
-5.77541e-08
3.06204e-06
-5.17363e-08
3.05048e-06
-4.57507e-08
3.04077e-06
-4.28163e-08
3.03576e-06
-4.37782e-08
3.03596e-06
-4.79966e-08
3.04041e-06
-5.34973e-08
3.04757e-06
-5.80278e-08
3.05587e-06
-6.00664e-08
3.06414e-06
-5.96349e-08
3.07171e-06
-5.77028e-08
-5.57721e-08
3.07821e-06
2.47605e-06
5.73012e-08
2.56227e-06
-5.52244e-08
2.6041e-06
-3.98329e-08
2.62989e-06
-5.06901e-08
2.63836e-06
-5.57481e-08
2.63397e-06
-5.39105e-08
2.62574e-06
-4.95205e-08
2.6205e-06
-4.6497e-08
2.62057e-06
-4.58199e-08
2.62442e-06
-4.66704e-08
2.62899e-06
-4.83412e-08
2.63148e-06
-5.04915e-08
2.63033e-06
-5.23397e-08
2.62514e-06
-5.28436e-08
2.61644e-06
-5.13624e-08
2.6051e-06
-4.8299e-08
2.59208e-06
-4.46853e-08
-4.17279e-08
2.57804e-06
2.20168e-06
2.14646e-06
2.10662e-06
2.05593e-06
2.00019e-06
1.94628e-06
1.89675e-06
1.85026e-06
1.80444e-06
1.75777e-06
1.70943e-06
1.65893e-06
1.60659e-06
1.55375e-06
1.50239e-06
1.45409e-06
1.4094e-06
1.36768e-06
-2.3485e-07
2.3485e-07
-4.44338e-07
2.09488e-07
-5.77351e-07
1.33013e-07
-6.30596e-07
5.32452e-08
-6.09593e-07
-2.10033e-08
-5.29783e-07
-7.98104e-08
-3.92644e-07
-1.37138e-07
-2.01616e-07
-1.91028e-07
3.26806e-08
-2.34297e-07
2.96007e-07
-2.63327e-07
5.74249e-07
-2.78241e-07
8.55276e-07
-2.81027e-07
1.12952e-06
-2.74242e-07
1.3906e-06
-2.61083e-07
1.6348e-06
-2.44199e-07
1.86035e-06
-2.25549e-07
2.06668e-06
-2.06331e-07
2.2538e-06
-1.87119e-07
2.42186e-06
-1.68056e-07
2.57088e-06
-1.49028e-07
2.70062e-06
-1.29736e-07
2.81045e-06
-1.09827e-07
2.89937e-06
-8.89221e-08
2.96598e-06
-6.66086e-08
3.00859e-06
-4.26111e-08
3.02511e-06
-1.65215e-08
3.01345e-06
1.166e-08
2.96995e-06
4.34947e-08
2.89312e-06
7.6836e-08
2.7803e-06
1.12816e-07
2.63093e-06
1.49369e-07
2.44342e-06
1.87514e-07
2.21526e-06
2.28162e-07
1.95071e-06
2.64548e-07
1.63643e-06
3.14276e-07
1.29789e-06
3.38547e-07
8.952e-07
4.02687e-07
4.64768e-07
4.30432e-07
1.78517e-07
2.86252e-07
1.21564e-08
1.6636e-07
-1.21011e-07
1.33168e-07
-2.31535e-07
1.10524e-07
-3.16266e-07
8.47309e-08
-4.0305e-07
8.67834e-08
-4.84901e-07
8.18515e-08
-5.34575e-07
4.96737e-08
-5.30626e-07
-3.94934e-09
-4.72537e-07
-5.80881e-08
-3.69198e-07
-1.0334e-07
-2.35322e-07
-1.33876e-07
-6.97333e-08
-1.65589e-07
1.34233e-07
-2.03966e-07
3.40118e-07
-2.05885e-07
4.54158e-07
-1.14041e-07
4.5851e-07
-4.35233e-09
4.55798e-07
2.71217e-09
5.46031e-07
-9.02326e-08
7.28822e-07
-1.82791e-07
9.74849e-07
-2.46027e-07
1.17142e-06
-1.96571e-07
1.22645e-06
-5.50259e-08
1.08655e-06
1.39897e-07
6.34694e-07
4.51854e-07
-9.81693e-08
7.32863e-07
-8.8711e-07
7.88941e-07
-1.63547e-06
7.48361e-07
-2.30879e-06
6.73319e-07
-2.89778e-06
5.88986e-07
-3.40449e-06
5.06717e-07
-3.83588e-06
4.31385e-07
-4.20032e-06
3.64443e-07
-4.50601e-06
3.05692e-07
-4.7603e-06
2.54283e-07
-4.96948e-06
2.09183e-07
-5.13889e-06
1.69413e-07
-5.27298e-06
1.34091e-07
-5.37547e-06
1.02486e-07
-5.44946e-06
7.39886e-08
-5.49757e-06
4.81154e-08
-5.52197e-06
2.43918e-08
-5.52395e-06
1.98395e-09
-5.5066e-06
-1.7349e-08
-5.47099e-06
-3.56126e-08
-5.4182e-06
-5.27927e-08
-5.34958e-06
-6.86203e-08
-5.26647e-06
-8.31082e-08
-5.17026e-06
-9.62087e-08
-5.06242e-06
-1.07843e-07
-4.94436e-06
-1.18054e-07
-4.81745e-06
-1.26912e-07
-4.68284e-06
-1.34607e-07
-4.54145e-06
-1.41389e-07
-4.39388e-06
-1.47574e-07
-4.24038e-06
-1.53503e-07
-4.08086e-06
-1.59515e-07
-3.91496e-06
-1.65903e-07
-3.74208e-06
-1.72881e-07
-3.56154e-06
-1.80539e-07
-3.37271e-06
-1.88834e-07
-3.17513e-06
-1.97577e-07
-2.96868e-06
-2.06445e-07
-2.75367e-06
-2.15014e-07
-2.53085e-06
-2.22816e-07
-2.30145e-06
-2.29405e-07
-2.06703e-06
-2.34415e-07
-1.82945e-06
-2.37582e-07
-1.5907e-06
-2.38749e-07
-1.35283e-06
-2.37869e-07
-1.1178e-06
-2.35028e-07
-8.8734e-07
-2.30465e-07
-6.6297e-07
-2.24369e-07
-4.46074e-07
-2.16897e-07
-2.37854e-07
-2.08219e-07
-3.9478e-08
-1.98376e-07
1.48962e-07
-1.8844e-07
3.25825e-07
-1.76863e-07
4.90302e-07
-1.64477e-07
6.41659e-07
-1.51357e-07
7.79375e-07
-1.37715e-07
9.03214e-07
-1.2384e-07
1.01328e-06
-1.10061e-07
1.11e-06
-9.6729e-08
1.19417e-06
-8.41702e-08
1.26676e-06
-7.25887e-08
1.3288e-06
-6.20365e-08
1.38132e-06
-5.25163e-08
1.4252e-06
-4.38844e-08
1.46086e-06
-3.56647e-08
1.48838e-06
-2.75165e-08
1.50794e-06
-1.95587e-08
1.51929e-06
-1.13541e-08
1.52123e-06
-1.93408e-09
1.51299e-06
8.23818e-09
1.49522e-06
1.77653e-08
1.46931e-06
2.59173e-08
1.43687e-06
3.24401e-08
1.39963e-06
3.72336e-08
1.35925e-06
4.03883e-08
1.3172e-06
4.20417e-08
1.27484e-06
4.23631e-08
1.2333e-06
4.15401e-08
1.19351e-06
3.9794e-08
1.15612e-06
3.7386e-08
1.12154e-06
3.45833e-08
1.08992e-06
3.16184e-08
1.06126e-06
2.86635e-08
1.03543e-06
2.5827e-08
1.01226e-06
2.31672e-08
9.91549e-07
2.07119e-08
9.73075e-07
1.84738e-08
9.56616e-07
1.64597e-08
9.41943e-07
1.46731e-08
9.2883e-07
1.3113e-08
9.17058e-07
1.17715e-08
9.06425e-07
1.06328e-08
8.96751e-07
9.67418e-09
8.87882e-07
8.86962e-09
8.79689e-07
8.19241e-09
8.72067e-07
7.62169e-09
8.64927e-07
7.14013e-09
8.58186e-07
6.74158e-09
8.51768e-07
6.41799e-09
8.45584e-07
6.18359e-09
8.3955e-07
6.0339e-09
8.33541e-07
6.00929e-09
8.27457e-07
6.08435e-09
8.21087e-07
6.36962e-09
8.14313e-07
6.77434e-09
8.06763e-07
7.54976e-09
7.98361e-07
8.40158e-09
7.88372e-07
9.98976e-09
7.76985e-07
1.13865e-08
7.62502e-07
1.44828e-08
7.46124e-07
1.63781e-08
7.23366e-07
2.27579e-08
6.99095e-07
2.42707e-08
6.6024e-07
3.88558e-08
6.25182e-07
3.50579e-08
5.52118e-07
7.30633e-08
4.69349e-08
5.05184e-07
3.55648e-08
1.99286e-07
2.31311e-08
2.21921e-07
2.07734e-08
1.35371e-07
4.361e-08
3.04086e-08
1.06751e-07
-8.41443e-08
2.25905e-07
-1.98964e-07
4.00114e-07
-3.11347e-07
6.16646e-07
-4.0756e-07
8.59681e-07
-4.77332e-07
1.11135e-06
-5.14995e-07
1.35825e-06
-5.25147e-07
1.59471e-06
-5.17486e-07
1.81695e-06
-4.96475e-07
2.02375e-06
-4.67891e-07
2.21551e-06
-4.35959e-07
2.39322e-06
-4.03259e-07
2.55797e-06
-3.71082e-07
2.71064e-06
-3.39785e-07
2.85173e-06
-3.09144e-07
2.98129e-06
-2.78594e-07
3.09895e-06
-2.47393e-07
3.20389e-06
-2.14763e-07
3.29501e-06
-1.80041e-07
3.37104e-06
-1.42645e-07
3.43077e-06
-1.02333e-07
3.47318e-06
-5.89375e-08
3.49797e-06
-1.31262e-08
3.50233e-06
3.9129e-08
3.48485e-06
9.43152e-08
3.44565e-06
1.52015e-07
3.38208e-06
2.12942e-07
3.2944e-06
2.75201e-07
3.1806e-06
3.41954e-07
3.03881e-06
4.06343e-07
2.87592e-06
4.77163e-07
2.67539e-06
5.39079e-07
2.47932e-06
5.98757e-07
2.26158e-06
6.48172e-07
1.91018e-06
6.37649e-07
1.44692e-06
6.2962e-07
9.94301e-07
5.85787e-07
6.26528e-07
4.78298e-07
3.52246e-07
3.59013e-07
1.67174e-07
2.71856e-07
6.1625e-08
1.874e-07
2.30141e-08
8.82846e-08
4.20961e-08
-2.30313e-08
1.17008e-07
-1.33e-07
2.34495e-07
-2.20826e-07
3.63322e-07
-2.62703e-07
4.9241e-07
-2.94677e-07
6.48449e-07
-3.60006e-07
8.45291e-07
-4.02726e-07
1.01777e-06
-2.86521e-07
1.08536e-06
-7.19446e-08
1.1825e-06
-9.44237e-08
1.43629e-06
-3.44024e-07
1.61304e-06
-3.59537e-07
1.42632e-06
-5.93051e-08
8.752e-07
3.54545e-07
-6.33976e-09
8.26514e-07
-9.69844e-07
1.1034e-06
-1.79682e-06
1.27883e-06
-2.42954e-06
1.36558e-06
-2.9633e-06
1.3227e-06
-3.42876e-06
1.21382e-06
-3.82957e-06
1.07413e-06
-4.17173e-06
9.31146e-07
-4.46226e-06
7.97249e-07
-4.70853e-06
6.77659e-07
-4.91704e-06
5.72947e-07
-5.09297e-06
4.81629e-07
-5.24022e-06
4.01527e-07
-5.36194e-06
3.30906e-07
-5.46078e-06
2.68248e-07
-5.53851e-06
2.11822e-07
-5.59649e-06
1.60472e-07
-5.63582e-06
1.13318e-07
-5.65741e-06
6.97058e-08
-5.66139e-06
2.83749e-08
-5.64884e-06
-1.05713e-08
-5.61899e-06
-4.71986e-08
-5.57241e-06
-8.21959e-08
-5.50988e-06
-1.15319e-07
-5.43221e-06
-1.46289e-07
-5.34054e-06
-1.74785e-07
-5.23618e-06
-2.00569e-07
-5.12051e-06
-2.23506e-07
-4.99497e-06
-2.43598e-07
-4.86086e-06
-2.61025e-07
-4.71932e-06
-2.76144e-07
-4.57123e-06
-2.89473e-07
-4.41717e-06
-3.01641e-07
-4.25733e-06
-3.13344e-07
-4.09157e-06
-3.2527e-07
-3.91946e-06
-3.38016e-07
-3.74033e-06
-3.52015e-07
-3.55341e-06
-3.67456e-07
-3.358e-06
-3.84242e-07
-3.1536e-06
-4.01979e-07
-2.94005e-06
-4.19993e-07
-2.71765e-06
-4.37412e-07
-2.48719e-06
-4.53279e-07
-2.24991e-06
-4.66683e-07
-2.00744e-06
-4.76887e-07
-1.76165e-06
-4.83368e-07
-1.51458e-06
-4.85821e-07
-1.26824e-06
-4.84215e-07
-1.02452e-06
-4.78744e-07
-7.85114e-07
-4.6987e-07
-5.51532e-07
-4.57952e-07
-3.25066e-07
-4.43362e-07
-1.06939e-07
-4.26347e-07
1.02451e-07
-4.07766e-07
3.01216e-07
-3.87205e-07
4.88755e-07
-3.64402e-07
6.63964e-07
-3.39686e-07
8.25933e-07
-3.13326e-07
9.7398e-07
-2.85763e-07
1.1078e-06
-2.57657e-07
1.22758e-06
-2.29846e-07
1.33407e-06
-2.0322e-07
1.42844e-06
-1.78536e-07
1.51209e-06
-1.56238e-07
1.58651e-06
-1.3646e-07
1.6531e-06
-1.19102e-07
1.71297e-06
-1.03753e-07
1.76704e-06
-8.974e-08
1.81603e-06
-7.65011e-08
1.85999e-06
-6.35243e-08
1.89874e-06
-5.00973e-08
1.93268e-06
-3.58731e-08
1.96206e-06
-2.11507e-08
1.98619e-06
-6.36456e-09
2.00413e-06
7.97842e-09
2.01552e-06
2.1053e-08
2.02053e-06
3.22259e-08
2.01969e-06
4.12266e-08
2.01383e-06
4.7904e-08
2.00392e-06
5.22658e-08
1.99102e-06
5.44452e-08
1.97611e-06
5.47011e-08
1.96009e-06
5.34041e-08
1.9437e-06
5.09798e-08
1.92747e-06
4.78426e-08
1.9118e-06
4.43405e-08
1.89689e-06
4.07306e-08
1.88288e-06
3.71817e-08
1.8698e-06
3.3794e-08
1.85765e-06
3.06206e-08
1.84642e-06
2.76848e-08
1.83611e-06
2.4991e-08
1.82669e-06
2.25311e-08
1.81817e-06
2.02906e-08
1.81055e-06
1.82512e-08
1.80383e-06
1.63942e-08
1.798e-06
1.47015e-08
1.79303e-06
1.31567e-08
1.78891e-06
1.17503e-08
1.78557e-06
1.04779e-08
1.78296e-06
9.34798e-09
1.78101e-06
8.36767e-09
1.77962e-06
7.57334e-09
1.77868e-06
6.97224e-09
1.77805e-06
6.64211e-09
1.77759e-06
6.543e-09
1.7771e-06
6.85982e-09
1.77643e-06
7.44627e-09
1.77525e-06
8.72785e-09
1.77351e-06
1.01486e-08
1.77054e-06
1.29557e-08
1.76659e-06
1.53398e-08
1.76022e-06
2.08521e-08
1.7525e-06
2.40972e-08
1.74013e-06
3.51292e-08
1.72617e-06
3.82234e-08
1.7035e-06
6.1525e-08
1.67833e-06
6.02338e-08
1.63975e-06
1.11643e-07
9.66556e-08
1.59003e-06
1.68871e-07
3.04144e-08
2.96903e-07
9.389e-08
3.80771e-07
5.15027e-08
4.79741e-07
-6.8562e-08
6.23243e-07
-2.27646e-07
8.12802e-07
-3.88523e-07
1.02591e-06
-5.24451e-07
1.23464e-06
-6.16297e-07
1.42235e-06
-6.65044e-07
1.58472e-06
-6.77363e-07
1.72288e-06
-6.63301e-07
1.8393e-06
-6.33908e-07
1.94073e-06
-5.97912e-07
2.03366e-06
-5.60818e-07
2.12309e-06
-5.25385e-07
2.21229e-06
-4.9246e-07
2.30296e-06
-4.61755e-07
2.39556e-06
-4.32387e-07
2.48967e-06
-4.03252e-07
2.58422e-06
-3.7314e-07
2.67768e-06
-3.40858e-07
2.76827e-06
-3.05346e-07
2.85414e-06
-2.6591e-07
2.93341e-06
-2.21915e-07
3.00378e-06
-1.72706e-07
3.06295e-06
-1.18106e-07
3.10829e-06
-5.84736e-08
3.1418e-06
5.62625e-09
3.16238e-06
7.37372e-08
3.17021e-06
1.44183e-07
3.16623e-06
2.16916e-07
3.15141e-06
2.90028e-07
3.12754e-06
3.65817e-07
3.09306e-06
4.40824e-07
3.05241e-06
5.17815e-07
2.99828e-06
5.93207e-07
2.93493e-06
6.62108e-07
2.85258e-06
7.30518e-07
2.71864e-06
7.71598e-07
2.5626e-06
7.85655e-07
2.37146e-06
7.76929e-07
2.11473e-06
7.3503e-07
1.81975e-06
6.53986e-07
1.54863e-06
5.42978e-07
1.33561e-06
4.00423e-07
1.18634e-06
2.37556e-07
1.08895e-06
7.43537e-08
1.05673e-06
-1.00781e-07
1.08838e-06
-2.52472e-07
1.14793e-06
-3.22251e-07
1.22764e-06
-3.7439e-07
1.33216e-06
-4.64521e-07
1.39468e-06
-4.65252e-07
1.39683e-06
-2.88666e-07
1.49432e-06
-1.69437e-07
1.63979e-06
-2.39891e-07
1.4531e-06
-1.57341e-07
8.02666e-07
2.90899e-07
-1.74893e-07
9.18254e-07
-1.14509e-06
1.32474e-06
-1.90057e-06
1.58199e-06
-2.51382e-06
1.71665e-06
-2.98751e-06
1.75252e-06
-3.32322e-06
1.70129e-06
-3.583e-06
1.58248e-06
-3.80292e-06
1.43374e-06
-4.00406e-06
1.27527e-06
-4.19409e-06
1.12118e-06
-4.37518e-06
9.78343e-07
-4.5467e-06
8.49177e-07
-4.70686e-06
7.3311e-07
-4.85351e-06
6.28273e-07
-4.98464e-06
5.32657e-07
-5.09855e-06
4.44819e-07
-5.19413e-06
3.63822e-07
-5.2712e-06
2.88899e-07
-5.33001e-06
2.19282e-07
-5.37088e-06
1.5419e-07
-5.39393e-06
9.27528e-08
-5.39957e-06
3.4017e-08
-5.38827e-06
-2.18758e-08
-5.36004e-06
-7.54264e-08
-5.31526e-06
-1.26976e-07
-5.25456e-06
-1.76016e-07
-5.17879e-06
-2.22062e-07
-5.08905e-06
-2.64527e-07
-4.98668e-06
-3.02933e-07
-4.87319e-06
-3.36995e-07
-4.75013e-06
-3.66663e-07
-4.61896e-06
-3.9219e-07
-4.48097e-06
-4.14133e-07
-4.33713e-06
-4.33312e-07
-4.18805e-06
-4.50728e-07
-4.0339e-06
-4.6749e-07
-3.87448e-06
-4.84693e-07
-3.7092e-06
-5.0329e-07
-3.53725e-06
-5.23974e-07
-3.35765e-06
-5.47052e-07
-3.16952e-06
-5.72367e-07
-2.97223e-06
-5.99277e-07
-2.76552e-06
-6.26699e-07
-2.54968e-06
-6.5325e-07
-2.32552e-06
-6.77439e-07
-2.09435e-06
-6.9785e-07
-1.85788e-06
-7.13365e-07
-1.61801e-06
-7.23237e-07
-1.3768e-06
-7.27029e-07
-1.13621e-06
-7.24809e-07
-8.97922e-07
-7.17029e-07
-6.63486e-07
-7.04306e-07
-4.34156e-07
-6.87282e-07
-2.11024e-07
-6.66494e-07
5.01489e-09
-6.42386e-07
2.13367e-07
-6.16118e-07
4.1235e-07
-5.86188e-07
6.01e-07
-5.53052e-07
7.78028e-07
-5.16714e-07
9.42096e-07
-4.77394e-07
1.09193e-06
-4.35596e-07
1.22641e-06
-3.92135e-07
1.34475e-06
-3.48188e-07
1.44686e-06
-3.0533e-07
1.53368e-06
-2.65361e-07
1.60727e-06
-2.29822e-07
1.67033e-06
-1.9952e-07
1.72559e-06
-1.74368e-07
1.77533e-06
-1.5349e-07
1.82117e-06
-1.35583e-07
1.86408e-06
-1.19411e-07
1.90444e-06
-1.0388e-07
1.94234e-06
-8.8001e-08
1.97769e-06
-7.12195e-08
2.01005e-06
-5.35131e-08
2.03893e-06
-3.52465e-08
2.06394e-06
-1.70298e-08
2.08455e-06
4.40673e-10
2.10056e-06
1.62146e-08
2.11193e-06
2.98569e-08
2.11897e-06
4.08728e-08
2.12208e-06
4.91494e-08
2.12181e-06
5.4714e-08
2.11874e-06
5.77767e-08
2.11346e-06
5.86828e-08
2.1066e-06
5.78411e-08
2.09876e-06
5.56797e-08
2.09049e-06
5.26055e-08
2.08225e-06
4.89782e-08
2.07433e-06
4.50952e-08
2.06694e-06
4.11869e-08
2.06014e-06
3.74168e-08
2.05394e-06
3.38884e-08
2.04828e-06
3.06546e-08
2.04308e-06
2.77272e-08
2.03829e-06
2.50855e-08
2.03385e-06
2.26847e-08
2.02978e-06
2.04655e-08
2.02612e-06
1.83657e-08
2.02295e-06
1.63284e-08
2.02038e-06
1.43208e-08
2.01852e-06
1.23286e-08
2.0175e-06
1.03752e-08
2.01738e-06
8.48748e-09
2.0182e-06
6.75305e-09
2.01996e-06
5.21403e-09
2.02257e-06
4.03302e-09
2.02593e-06
3.17527e-09
2.02987e-06
2.92182e-09
2.03426e-06
3.05674e-09
2.03882e-06
4.17081e-09
2.04343e-06
5.53161e-09
2.04777e-06
8.62175e-09
2.05174e-06
1.13677e-08
2.05494e-06
1.76477e-08
2.05721e-06
2.18324e-08
2.05835e-06
3.39857e-08
2.05732e-06
3.92613e-08
2.05565e-06
6.31879e-08
2.0479e-06
6.79825e-08
2.04432e-06
1.15231e-07
1.19914e-07
2.02106e-06
4.54993e-08
-1.5085e-08
1.23698e-07
1.56912e-08
2.87289e-07
-1.12089e-07
5.2776e-07
-3.09032e-07
7.95647e-07
-4.95533e-07
1.03772e-06
-6.30595e-07
1.2194e-06
-7.06136e-07
1.33358e-06
-7.30475e-07
1.38874e-06
-7.20197e-07
1.40376e-06
-6.9239e-07
1.40021e-06
-6.59748e-07
1.39435e-06
-6.28053e-07
1.39712e-06
-6.00677e-07
1.41417e-06
-5.77864e-07
1.44713e-06
-5.58352e-07
1.49519e-06
-5.40514e-07
1.55616e-06
-5.2273e-07
1.62724e-06
-5.03463e-07
1.70609e-06
-4.82104e-07
1.79047e-06
-4.57519e-07
1.87815e-06
-4.28538e-07
1.9669e-06
-3.94099e-07
2.05442e-06
-3.53425e-07
2.13848e-06
-3.05982e-07
2.21738e-06
-2.51604e-07
2.28976e-06
-1.90482e-07
2.35473e-06
-1.23448e-07
2.41197e-06
-5.16101e-08
2.46096e-06
2.47492e-08
2.50112e-06
1.04021e-07
2.53489e-06
1.83146e-07
2.56455e-06
2.60363e-07
2.59395e-06
3.36419e-07
2.62396e-06
4.10815e-07
2.65714e-06
4.84637e-07
2.69108e-06
5.5927e-07
2.72306e-06
6.30125e-07
2.7545e-06
6.99077e-07
2.77131e-06
7.54789e-07
2.7687e-06
7.88264e-07
2.73801e-06
8.07617e-07
2.67275e-06
8.00291e-07
2.57992e-06
7.46818e-07
2.46292e-06
6.59976e-07
2.33188e-06
5.31466e-07
2.20373e-06
3.65707e-07
2.08578e-06
1.92298e-07
1.98022e-06
4.78397e-09
1.8923e-06
-1.64553e-07
1.83822e-06
-2.68171e-07
1.85449e-06
-3.9066e-07
1.88921e-06
-4.99246e-07
1.90454e-06
-4.80577e-07
1.91698e-06
-3.01105e-07
1.81709e-06
-6.95511e-08
1.3023e-06
2.749e-07
2.77668e-07
8.67291e-07
-8.30091e-07
1.39866e-06
-1.66752e-06
1.75568e-06
-2.2981e-06
1.95532e-06
-2.75282e-06
2.03671e-06
-3.07194e-06
2.03578e-06
-3.29591e-06
1.9765e-06
-3.46175e-06
1.86712e-06
-3.60453e-06
1.72527e-06
-3.74114e-06
1.57035e-06
-3.88013e-06
1.41425e-06
-4.02268e-06
1.26373e-06
-4.16728e-06
1.12294e-06
-4.31092e-06
9.92822e-07
-4.44994e-06
8.72134e-07
-4.58051e-06
7.58834e-07
-4.69918e-06
6.51329e-07
-4.80344e-06
5.49081e-07
-4.89187e-06
4.52251e-07
-4.96403e-06
3.61065e-07
-5.02005e-06
2.75301e-07
-5.06012e-06
1.94253e-07
-5.0843e-06
1.1694e-07
-5.09231e-06
4.20221e-08
-5.08418e-06
-3.00076e-08
-5.05951e-06
-1.00093e-07
-5.01801e-06
-1.68473e-07
-4.96001e-06
-2.34024e-07
-4.88625e-06
-2.95816e-07
-4.79788e-06
-3.529e-07
-4.69634e-06
-4.04468e-07
-4.58335e-06
-4.49983e-07
-4.46073e-06
-4.89291e-07
-4.33023e-06
-5.22684e-07
-4.19344e-06
-5.50926e-07
-4.05157e-06
-5.75185e-07
-3.90539e-06
-5.96907e-07
-3.75518e-06
-6.17698e-07
-3.6007e-06
-6.3917e-07
-3.44127e-06
-6.62721e-07
-3.27588e-06
-6.89364e-07
-3.10338e-06
-7.19558e-07
-2.92268e-06
-7.53064e-07
-2.73303e-06
-7.88923e-07
-2.5342e-06
-8.25535e-07
-2.32656e-06
-8.60891e-07
-2.11107e-06
-8.92923e-07
-1.88922e-06
-9.19704e-07
-1.66282e-06
-9.39764e-07
-1.43379e-06
-9.52261e-07
-1.20408e-06
-9.56745e-07
-9.75377e-07
-9.53511e-07
-7.4901e-07
-9.43396e-07
-5.26044e-07
-9.27271e-07
-3.07384e-07
-9.05941e-07
-9.36559e-08
-8.80222e-07
1.15252e-07
-8.51294e-07
3.17497e-07
-8.18363e-07
5.12521e-07
-7.81212e-07
6.99106e-07
-7.39637e-07
8.75844e-07
-6.93453e-07
1.04126e-06
-6.4281e-07
1.19412e-06
-5.88456e-07
1.33361e-06
-5.31623e-07
1.45902e-06
-4.73599e-07
1.56922e-06
-4.15532e-07
1.66274e-06
-3.58877e-07
1.73881e-06
-3.05891e-07
1.79858e-06
-2.5929e-07
1.84527e-06
-2.21058e-07
1.88317e-06
-1.91394e-07
1.91625e-06
-1.6866e-07
1.94713e-06
-1.50289e-07
1.97701e-06
-1.33761e-07
2.00617e-06
-1.17159e-07
2.03435e-06
-9.93995e-08