/*--------------------------------*- C++ -*----------------------------------*\
  =========                 |
  \\      /  F ield         | OpenFOAM: The Open Source CFD Toolbox
   \\    /   O peration     | Website:  https://openfoam.org
    \\  /    A nd           | Version:  7
     \\/     M anipulation  |
\*---------------------------------------------------------------------------*/
FoamFile
{
    version     2.0;
    format      ascii;
    class       volScalarField;
    location    "0.076";
    object      pPrime2Mean;
}
// * * * * * * * * * * * * * * * * * * * * * * * * * * * * * * * * * * * * * //

dimensions      [0 4 -4 0 0 0 0];

internalField   nonuniform List<scalar> 
12225
(
4.72649e+06
4.65133e+06
4.5737e+06
4.4988e+06
4.42683e+06
4.35758e+06
4.29087e+06
4.22649e+06
4.16424e+06
4.10389e+06
4.04521e+06
3.98792e+06
3.93168e+06
3.87607e+06
3.8205e+06
3.76408e+06
3.7052e+06
3.63989e+06
4.72655e+06
4.65137e+06
4.57374e+06
4.49884e+06
4.42687e+06
4.35763e+06
4.29092e+06
4.22655e+06
4.16432e+06
4.104e+06
4.04535e+06
3.98809e+06
3.93191e+06
3.87639e+06
3.82098e+06
3.76484e+06
3.70665e+06
3.64318e+06
4.72666e+06
4.65145e+06
4.57382e+06
4.49892e+06
4.42697e+06
4.35774e+06
4.29105e+06
4.22671e+06
4.16451e+06
4.10423e+06
4.04564e+06
3.98847e+06
3.93242e+06
3.87709e+06
3.82201e+06
3.76648e+06
3.70954e+06
3.64998e+06
4.7268e+06
4.65157e+06
4.57395e+06
4.49906e+06
4.42712e+06
4.35792e+06
4.29126e+06
4.22696e+06
4.16481e+06
4.10461e+06
4.04613e+06
3.9891e+06
3.93325e+06
3.87824e+06
3.82366e+06
3.76902e+06
3.71383e+06
3.65811e+06
4.72695e+06
4.65175e+06
4.57414e+06
4.49927e+06
4.42735e+06
4.35818e+06
4.29157e+06
4.22733e+06
4.16527e+06
4.10517e+06
4.04683e+06
3.99001e+06
3.93445e+06
3.87987e+06
3.82596e+06
3.77244e+06
3.71921e+06
3.66691e+06
4.7272e+06
4.65201e+06
4.5744e+06
4.49956e+06
4.42767e+06
4.35855e+06
4.292e+06
4.22784e+06
4.16589e+06
4.10594e+06
4.0478e+06
3.99124e+06
3.93606e+06
3.88202e+06
3.82893e+06
3.77668e+06
3.72543e+06
3.67603e+06
4.72752e+06
4.65234e+06
4.57476e+06
4.49993e+06
4.42809e+06
4.35903e+06
4.29257e+06
4.22852e+06
4.16671e+06
4.10695e+06
4.04905e+06
3.99283e+06
3.93811e+06
3.88472e+06
3.83256e+06
3.78166e+06
3.73231e+06
3.68531e+06
4.72792e+06
4.65278e+06
4.57521e+06
4.50042e+06
4.42864e+06
4.35965e+06
4.29329e+06
4.22938e+06
4.16774e+06
4.10822e+06
4.05063e+06
3.99481e+06
3.94063e+06
3.88798e+06
3.83683e+06
3.78728e+06
3.73968e+06
3.69467e+06
4.72847e+06
4.65333e+06
4.57578e+06
4.50104e+06
4.42931e+06
4.36042e+06
4.29419e+06
4.23044e+06
4.16903e+06
4.10978e+06
4.05255e+06
3.9972e+06
3.94363e+06
3.89178e+06
3.84167e+06
3.79345e+06
3.74742e+06
3.70409e+06
4.72914e+06
4.65402e+06
4.57649e+06
4.50179e+06
4.43015e+06
4.36137e+06
4.29529e+06
4.23174e+06
4.17058e+06
4.11166e+06
4.05484e+06
4.00002e+06
3.94711e+06
3.89611e+06
3.84704e+06
3.80007e+06
3.75545e+06
3.71353e+06
4.7301e+06
4.65488e+06
4.57736e+06
4.50271e+06
4.43116e+06
4.36251e+06
4.29661e+06
4.2333e+06
4.17243e+06
4.11387e+06
4.05752e+06
4.00327e+06
3.95107e+06
3.90093e+06
3.85289e+06
3.80708e+06
3.76371e+06
3.72299e+06
4.73098e+06
4.65582e+06
4.57831e+06
4.50371e+06
4.43226e+06
4.36376e+06
4.29804e+06
4.23497e+06
4.17441e+06
4.11623e+06
4.06033e+06
4.00664e+06
3.95512e+06
3.90576e+06
3.85862e+06
3.8138e+06
3.77143e+06
3.73166e+06
4.7322e+06
4.65692e+06
4.5794e+06
4.50486e+06
4.43351e+06
4.36517e+06
4.29966e+06
4.23686e+06
4.17662e+06
4.11884e+06
4.06343e+06
4.01031e+06
3.95946e+06
3.91086e+06
3.86458e+06
3.82066e+06
3.77919e+06
3.74025e+06
4.7338e+06
4.65838e+06
4.58084e+06
4.50637e+06
4.43516e+06
4.36701e+06
4.30177e+06
4.2393e+06
4.17947e+06
4.12218e+06
4.06734e+06
4.01489e+06
3.96479e+06
3.91705e+06
3.87166e+06
3.82868e+06
3.78812e+06
3.75001e+06
4.73588e+06
4.6603e+06
4.58274e+06
4.50836e+06
4.43732e+06
4.36943e+06
4.30451e+06
4.24245e+06
4.18311e+06
4.12639e+06
4.07221e+06
4.02052e+06
3.97126e+06
3.92442e+06
3.87997e+06
3.83792e+06
3.79826e+06
3.76095e+06
4.73847e+06
4.66276e+06
4.58521e+06
4.51094e+06
4.44012e+06
4.37253e+06
4.30802e+06
4.24644e+06
4.18767e+06
4.13162e+06
4.07819e+06
4.02732e+06
3.97895e+06
3.93303e+06
3.88953e+06
3.8484e+06
3.80959e+06
3.77305e+06
4.74173e+06
4.66586e+06
4.58833e+06
4.51421e+06
4.44366e+06
4.37645e+06
4.31241e+06
4.25139e+06
4.19327e+06
4.13795e+06
4.08533e+06
4.03532e+06
3.98785e+06
3.94285e+06
3.90026e+06
3.86e+06
3.822e+06
3.78618e+06
4.74545e+06
4.66957e+06
4.59213e+06
4.51823e+06
4.44801e+06
4.38124e+06
4.31772e+06
4.25733e+06
4.19991e+06
4.14536e+06
4.09356e+06
4.04441e+06
3.99782e+06
3.9537e+06
3.91195e+06
3.87249e+06
3.83522e+06
3.80004e+06
4.74975e+06
4.67383e+06
4.59653e+06
4.52291e+06
4.45307e+06
4.38678e+06
4.32384e+06
4.26409e+06
4.20739e+06
4.1536e+06
4.1026e+06
4.05426e+06
4.00849e+06
3.96516e+06
3.92417e+06
3.88541e+06
3.84877e+06
3.81416e+06
4.75308e+06
4.67727e+06
4.60015e+06
4.52679e+06
4.45729e+06
4.39139e+06
4.3289e+06
4.26965e+06
4.21347e+06
4.16023e+06
4.10979e+06
4.06202e+06
4.01679e+06
3.97399e+06
3.9335e+06
3.8952e+06
3.85898e+06
3.82473e+06
4.75502e+06
4.67947e+06
4.60255e+06
4.52941e+06
4.46016e+06
4.39454e+06
4.33235e+06
4.27342e+06
4.21758e+06
4.16469e+06
4.11459e+06
4.06717e+06
4.02227e+06
3.97979e+06
3.93959e+06
3.90157e+06
3.86559e+06
3.83156e+06
4.75655e+06
4.68103e+06
4.60427e+06
4.53131e+06
4.46225e+06
4.39685e+06
4.33488e+06
4.27618e+06
4.22058e+06
4.16793e+06
4.11808e+06
4.07088e+06
4.02622e+06
3.98395e+06
3.94395e+06
3.90611e+06
3.8703e+06
3.83641e+06
4.75717e+06
4.68202e+06
4.60545e+06
4.53265e+06
4.46376e+06
4.3985e+06
4.3367e+06
4.27816e+06
4.22273e+06
4.17025e+06
4.12057e+06
4.07354e+06
4.02903e+06
3.9869e+06
3.94704e+06
3.90932e+06
3.87362e+06
3.83983e+06
4.7577e+06
4.68267e+06
4.60625e+06
4.53359e+06
4.46481e+06
4.39967e+06
4.33799e+06
4.27957e+06
4.22425e+06
4.17189e+06
4.12232e+06
4.0754e+06
4.03099e+06
3.98897e+06
3.9492e+06
3.91156e+06
3.87594e+06
3.84222e+06
4.75799e+06
4.68308e+06
4.60678e+06
4.53422e+06
4.46553e+06
4.40048e+06
4.33888e+06
4.28054e+06
4.22531e+06
4.17302e+06
4.12353e+06
4.07668e+06
4.03235e+06
3.99039e+06
3.95069e+06
3.9131e+06
3.87753e+06
3.84385e+06
4.75793e+06
4.68329e+06
4.60713e+06
4.53464e+06
4.46602e+06
4.40102e+06
4.33947e+06
4.28119e+06
4.22601e+06
4.17378e+06
4.12434e+06
4.07755e+06
4.03326e+06
3.99135e+06
3.95168e+06
3.91414e+06
3.8786e+06
3.84495e+06
4.75788e+06
4.68342e+06
4.60734e+06
4.53491e+06
4.46633e+06
4.40137e+06
4.33986e+06
4.28161e+06
4.22647e+06
4.17427e+06
4.12486e+06
4.0781e+06
4.03385e+06
3.99196e+06
3.95232e+06
3.9148e+06
3.87928e+06
3.84565e+06
4.7579e+06
4.6835e+06
4.60747e+06
4.53507e+06
4.46652e+06
4.40159e+06
4.34009e+06
4.28187e+06
4.22675e+06
4.17457e+06
4.12518e+06
4.07844e+06
4.0342e+06
3.99234e+06
3.95271e+06
3.9152e+06
3.8797e+06
3.84608e+06
4.75791e+06
4.68354e+06
4.60753e+06
4.53516e+06
4.46662e+06
4.4017e+06
4.34022e+06
4.28201e+06
4.2269e+06
4.17473e+06
4.12535e+06
4.07862e+06
4.03439e+06
3.99254e+06
3.95292e+06
3.91542e+06
3.87992e+06
3.84631e+06
4.75791e+06
4.68355e+06
4.60756e+06
4.53519e+06
4.46666e+06
4.40175e+06
4.34027e+06
4.28206e+06
4.22696e+06
4.17479e+06
4.12542e+06
4.07869e+06
4.03447e+06
3.99262e+06
3.953e+06
3.91551e+06
3.88001e+06
3.8464e+06
3.07563e+06
3.07538e+06
3.07489e+06
3.07414e+06
3.07313e+06
3.07186e+06
3.07032e+06
3.06851e+06
3.06642e+06
3.06405e+06
3.0614e+06
3.05847e+06
3.05524e+06
3.05173e+06
3.04793e+06
3.04384e+06
3.03945e+06
3.03478e+06
3.02981e+06
3.02454e+06
3.01899e+06
3.01315e+06
3.00701e+06
3.00059e+06
2.99388e+06
2.98689e+06
2.97962e+06
2.97207e+06
2.96425e+06
2.95615e+06
2.94778e+06
2.93915e+06
2.93025e+06
2.92109e+06
2.91168e+06
2.90202e+06
2.8921e+06
2.88195e+06
2.87155e+06
2.86092e+06
2.85005e+06
2.83896e+06
2.82765e+06
2.81611e+06
2.80436e+06
2.79239e+06
2.78022e+06
2.76784e+06
2.75526e+06
2.74249e+06
2.72952e+06
2.71637e+06
2.70303e+06
2.6895e+06
2.6758e+06
2.66193e+06
2.64789e+06
2.63367e+06
2.6193e+06
2.60476e+06
2.59007e+06
2.57522e+06
2.56023e+06
2.54508e+06
2.52979e+06
2.51436e+06
2.49879e+06
2.48309e+06
2.46725e+06
2.45128e+06
2.43519e+06
2.41897e+06
2.40262e+06
2.38616e+06
2.36958e+06
2.35288e+06
2.33607e+06
2.31916e+06
2.30213e+06
2.28499e+06
2.26776e+06
2.25042e+06
2.23298e+06
2.21544e+06
2.19781e+06
2.18008e+06
2.16226e+06
2.14436e+06
2.12637e+06
2.10829e+06
2.09013e+06
2.07188e+06
2.05356e+06
2.03516e+06
2.01669e+06
1.99814e+06
1.97952e+06
1.96083e+06
1.94207e+06
1.92324e+06
1.90435e+06
1.88539e+06
1.86638e+06
1.8473e+06
1.82816e+06
1.80897e+06
1.78972e+06
1.77042e+06
1.75107e+06
1.73167e+06
1.71222e+06
1.69272e+06
1.67318e+06
1.6536e+06
1.63398e+06
1.61432e+06
1.59462e+06
1.57489e+06
1.55512e+06
1.53533e+06
1.5155e+06
1.49565e+06
1.47577e+06
1.45588e+06
1.43596e+06
1.41602e+06
1.39607e+06
1.3761e+06
1.35612e+06
1.33613e+06
1.31614e+06
1.29614e+06
1.27614e+06
1.25614e+06
1.23614e+06
1.21615e+06
1.19617e+06
1.17619e+06
1.15624e+06
1.1363e+06
1.11638e+06
1.09648e+06
1.07661e+06
1.05677e+06
1.03696e+06
1.01718e+06
997445
977750
958101
938500
918952
899461
880028
860660
841359
822129
802975
783901
764910
746009
727200
708489
689880
671379
652991
634721
616574
598557
580677
562939
545352
527924
510663
493582
476693
460013
443565
427381
411520
396106
3.07674e+06
3.07649e+06
3.076e+06
3.07524e+06
3.07423e+06
3.07295e+06
3.0714e+06
3.06958e+06
3.06747e+06
3.06509e+06
3.06243e+06
3.05948e+06
3.05624e+06
3.05271e+06
3.04889e+06
3.04478e+06
3.04037e+06
3.03567e+06
3.03068e+06
3.0254e+06
3.01982e+06
3.01395e+06
3.0078e+06
3.00135e+06
2.99462e+06
2.98761e+06
2.98031e+06
2.97274e+06
2.96489e+06
2.95677e+06
2.94837e+06
2.93972e+06
2.9308e+06
2.92162e+06
2.91219e+06
2.9025e+06
2.89257e+06
2.88239e+06
2.87198e+06
2.86133e+06
2.85044e+06
2.83933e+06
2.828e+06
2.81645e+06
2.80468e+06
2.7927e+06
2.78051e+06
2.76812e+06
2.75553e+06
2.74274e+06
2.72976e+06
2.71659e+06
2.70324e+06
2.68971e+06
2.676e+06
2.66211e+06
2.64806e+06
2.63384e+06
2.61945e+06
2.60491e+06
2.59021e+06
2.57535e+06
2.56035e+06
2.5452e+06
2.5299e+06
2.51446e+06
2.49889e+06
2.48318e+06
2.46734e+06
2.45136e+06
2.43526e+06
2.41904e+06
2.40269e+06
2.38622e+06
2.36964e+06
2.35294e+06
2.33613e+06
2.3192e+06
2.30217e+06
2.28504e+06
2.2678e+06
2.25045e+06
2.23301e+06
2.21547e+06
2.19784e+06
2.18011e+06
2.16229e+06
2.14438e+06
2.12639e+06
2.10831e+06
2.09015e+06
2.0719e+06
2.05358e+06
2.03518e+06
2.0167e+06
1.99815e+06
1.97953e+06
1.96084e+06
1.94208e+06
1.92325e+06
1.90436e+06
1.8854e+06
1.86638e+06
1.84731e+06
1.82817e+06
1.80898e+06
1.78973e+06
1.77043e+06
1.75107e+06
1.73167e+06
1.71222e+06
1.69273e+06
1.67319e+06
1.6536e+06
1.63398e+06
1.61432e+06
1.59462e+06
1.57489e+06
1.55512e+06
1.53533e+06
1.5155e+06
1.49565e+06
1.47578e+06
1.45588e+06
1.43596e+06
1.41602e+06
1.39607e+06
1.3761e+06
1.35612e+06
1.33613e+06
1.31614e+06
1.29614e+06
1.27614e+06
1.25614e+06
1.23614e+06
1.21615e+06
1.19617e+06
1.17619e+06
1.15624e+06
1.1363e+06
1.11638e+06
1.09648e+06
1.07661e+06
1.05677e+06
1.03696e+06
1.01718e+06
997445
977750
958101
938501
918953
899461
880028
860660
841359
822129
802975
783900
764910
746008
727200
708488
689880
671379
652990
634720
616573
598556
580675
562937
545349
527920
510658
493575
476684
460000
443545
427351
411467
395980
3.07897e+06
3.07872e+06
3.07822e+06
3.07745e+06
3.07642e+06
3.07513e+06
3.07356e+06
3.07171e+06
3.06959e+06
3.06718e+06
3.06449e+06
3.0615e+06
3.05823e+06
3.05467e+06
3.05081e+06
3.04666e+06
3.04221e+06
3.03747e+06
3.03243e+06
3.0271e+06
3.02148e+06
3.01556e+06
3.00936e+06
3.00287e+06
2.99609e+06
2.98903e+06
2.98168e+06
2.97406e+06
2.96617e+06
2.958e+06
2.94956e+06
2.94086e+06
2.93189e+06
2.92267e+06
2.9132e+06
2.90347e+06
2.8935e+06
2.88328e+06
2.87283e+06
2.86214e+06
2.85122e+06
2.84008e+06
2.82871e+06
2.81712e+06
2.80532e+06
2.79331e+06
2.78109e+06
2.76867e+06
2.75606e+06
2.74324e+06
2.73024e+06
2.71705e+06
2.70367e+06
2.69012e+06
2.67638e+06
2.66248e+06
2.64841e+06
2.63417e+06
2.61976e+06
2.6052e+06
2.59048e+06
2.57561e+06
2.5606e+06
2.54543e+06
2.53012e+06
2.51467e+06
2.49908e+06
2.48336e+06
2.46751e+06
2.45153e+06
2.43542e+06
2.41918e+06
2.40283e+06
2.38635e+06
2.36976e+06
2.35305e+06
2.33623e+06
2.3193e+06
2.30227e+06
2.28512e+06
2.26788e+06
2.25053e+06
2.23308e+06
2.21554e+06
2.1979e+06
2.18017e+06
2.16235e+06
2.14443e+06
2.12644e+06
2.10835e+06
2.09019e+06
2.07194e+06
2.05362e+06
2.03521e+06
2.01673e+06
1.99818e+06
1.97956e+06
1.96086e+06
1.9421e+06
1.92327e+06
1.90438e+06
1.88542e+06
1.8664e+06
1.84732e+06
1.82818e+06
1.80899e+06
1.78974e+06
1.77044e+06
1.75108e+06
1.73168e+06
1.71223e+06
1.69273e+06
1.67319e+06
1.65361e+06
1.63399e+06
1.61433e+06
1.59463e+06
1.57489e+06
1.55513e+06
1.53533e+06
1.51551e+06
1.49565e+06
1.47578e+06
1.45588e+06
1.43596e+06
1.41602e+06
1.39607e+06
1.3761e+06
1.35612e+06
1.33613e+06
1.31614e+06
1.29614e+06
1.27614e+06
1.25614e+06
1.23614e+06
1.21615e+06
1.19617e+06
1.1762e+06
1.15624e+06
1.1363e+06
1.11638e+06
1.09648e+06
1.07661e+06
1.05677e+06
1.03696e+06
1.01718e+06
997445
977750
958101
938501
918953
899461
880028
860660
841359
822129
802975
783900
764910
746008
727199
708488
689879
671378
652989
634718
616571
598553
580671
562932
545343
527912
510648
493561
476665
459974
443508
427294
411370
395783
3.08234e+06
3.08208e+06
3.08156e+06
3.08078e+06
3.07973e+06
3.07841e+06
3.07681e+06
3.07494e+06
3.07277e+06
3.07032e+06
3.06759e+06
3.06455e+06
3.06123e+06
3.05761e+06
3.05369e+06
3.04948e+06
3.04497e+06
3.04016e+06
3.03506e+06
3.02966e+06
3.02397e+06
3.01798e+06
3.01171e+06
3.00514e+06
2.99829e+06
2.99116e+06
2.98374e+06
2.97605e+06
2.96808e+06
2.95984e+06
2.95134e+06
2.94257e+06
2.93354e+06
2.92425e+06
2.91471e+06
2.90492e+06
2.89489e+06
2.88461e+06
2.8741e+06
2.86336e+06
2.85238e+06
2.84118e+06
2.82977e+06
2.81813e+06
2.80628e+06
2.79423e+06
2.78197e+06
2.7695e+06
2.75685e+06
2.74399e+06
2.73095e+06
2.71772e+06
2.70431e+06
2.69072e+06
2.67696e+06
2.66303e+06
2.64892e+06
2.63465e+06
2.62023e+06
2.60564e+06
2.5909e+06
2.576e+06
2.56096e+06
2.54578e+06
2.53045e+06
2.51498e+06
2.49938e+06
2.48364e+06
2.46777e+06
2.45177e+06
2.43565e+06
2.4194e+06
2.40303e+06
2.38654e+06
2.36994e+06
2.35322e+06
2.33639e+06
2.31945e+06
2.30241e+06
2.28525e+06
2.268e+06
2.25064e+06
2.23319e+06
2.21564e+06
2.19799e+06
2.18025e+06
2.16243e+06
2.14451e+06
2.12651e+06
2.10842e+06
2.09025e+06
2.072e+06
2.05367e+06
2.03526e+06
2.01678e+06
1.99822e+06
1.9796e+06
1.9609e+06
1.94213e+06
1.9233e+06
1.90441e+06
1.88545e+06
1.86642e+06
1.84734e+06
1.8282e+06
1.80901e+06
1.78976e+06
1.77045e+06
1.7511e+06
1.73169e+06
1.71224e+06
1.69275e+06
1.6732e+06
1.65362e+06
1.634e+06
1.61433e+06
1.59463e+06
1.5749e+06
1.55513e+06
1.53534e+06
1.51551e+06
1.49566e+06
1.47578e+06
1.45588e+06
1.43596e+06
1.41602e+06
1.39607e+06
1.3761e+06
1.35612e+06
1.33613e+06
1.31614e+06
1.29614e+06
1.27614e+06
1.25614e+06
1.23614e+06
1.21615e+06
1.19617e+06
1.1762e+06
1.15624e+06
1.1363e+06
1.11638e+06
1.09648e+06
1.07661e+06
1.05677e+06
1.03696e+06
1.01718e+06
997445
977751
958101
938501
918953
899461
880029
860660
841359
822129
802975
783900
764910
746007
727198
708487
689878
671376
652987
634715
616567
598549
580666
562925
545334
527900
510632
493541
476638
459937
443455
427215
411241
395554
3.08685e+06
3.08658e+06
3.08605e+06
3.08525e+06
3.08417e+06
3.08282e+06
3.08118e+06
3.07926e+06
3.07705e+06
3.07454e+06
3.07174e+06
3.06864e+06
3.06525e+06
3.06155e+06
3.05755e+06
3.05326e+06
3.04866e+06
3.04377e+06
3.03857e+06
3.03308e+06
3.0273e+06
3.02121e+06
3.01484e+06
3.00818e+06
3.00123e+06
2.994e+06
2.98649e+06
2.9787e+06
2.97063e+06
2.9623e+06
2.9537e+06
2.94484e+06
2.93572e+06
2.92635e+06
2.91672e+06
2.90685e+06
2.89673e+06
2.88638e+06
2.87579e+06
2.86497e+06
2.85392e+06
2.84266e+06
2.83117e+06
2.81947e+06
2.80756e+06
2.79544e+06
2.78312e+06
2.77061e+06
2.75789e+06
2.74499e+06
2.73189e+06
2.71862e+06
2.70516e+06
2.69153e+06
2.67772e+06
2.66375e+06
2.64961e+06
2.6353e+06
2.62084e+06
2.60622e+06
2.59144e+06
2.57652e+06
2.56145e+06
2.54624e+06
2.53088e+06
2.51539e+06
2.49976e+06
2.484e+06
2.46811e+06
2.45209e+06
2.43595e+06
2.41968e+06
2.4033e+06
2.38679e+06
2.37017e+06
2.35344e+06
2.3366e+06
2.31965e+06
2.30259e+06
2.28543e+06
2.26816e+06
2.25079e+06
2.23333e+06
2.21577e+06
2.19811e+06
2.18037e+06
2.16253e+06
2.14461e+06
2.1266e+06
2.1085e+06
2.09033e+06
2.07207e+06
2.05374e+06
2.03533e+06
2.01684e+06
1.99828e+06
1.97965e+06
1.96095e+06
1.94218e+06
1.92334e+06
1.90444e+06
1.88548e+06
1.86646e+06
1.84737e+06
1.82823e+06
1.80903e+06
1.78978e+06
1.77047e+06
1.75112e+06
1.73171e+06
1.71226e+06
1.69276e+06
1.67322e+06
1.65363e+06
1.63401e+06
1.61434e+06
1.59464e+06
1.57491e+06
1.55514e+06
1.53534e+06
1.51552e+06
1.49567e+06
1.47579e+06
1.45589e+06
1.43597e+06
1.41603e+06
1.39607e+06
1.37611e+06
1.35613e+06
1.33614e+06
1.31614e+06
1.29614e+06
1.27614e+06
1.25614e+06
1.23614e+06
1.21615e+06
1.19617e+06
1.1762e+06
1.15624e+06
1.1363e+06
1.11638e+06
1.09648e+06
1.07661e+06
1.05677e+06
1.03696e+06
1.01718e+06
997446
977751
958102
938501
918953
899461
880029
860660
841359
822129
802974
783900
764909
746007
727197
708486
689876
671374
652984
634712
616563
598543
580659
562916
545322
527885
510613
493515
476603
459889
443388
427117
411091
395314
3.09255e+06
3.09227e+06
3.09172e+06
3.09089e+06
3.08978e+06
3.08838e+06
3.08669e+06
3.08471e+06
3.08243e+06
3.07985e+06
3.07697e+06
3.07378e+06
3.0703e+06
3.0665e+06
3.06241e+06
3.058e+06
3.0533e+06
3.04829e+06
3.04298e+06
3.03737e+06
3.03146e+06
3.02526e+06
3.01876e+06
3.01198e+06
3.0049e+06
2.99755e+06
2.98991e+06
2.982e+06
2.97382e+06
2.96537e+06
2.95665e+06
2.94767e+06
2.93844e+06
2.92896e+06
2.91922e+06
2.90924e+06
2.89903e+06
2.88857e+06
2.87789e+06
2.86698e+06
2.85584e+06
2.84449e+06
2.83292e+06
2.82114e+06
2.80915e+06
2.79695e+06
2.78456e+06
2.77197e+06
2.75919e+06
2.74622e+06
2.73307e+06
2.71973e+06
2.70622e+06
2.69253e+06
2.67867e+06
2.66465e+06
2.65046e+06
2.63611e+06
2.6216e+06
2.60694e+06
2.59212e+06
2.57716e+06
2.56206e+06
2.54681e+06
2.53142e+06
2.5159e+06
2.50024e+06
2.48445e+06
2.46854e+06
2.45249e+06
2.43633e+06
2.42004e+06
2.40363e+06
2.38711e+06
2.37047e+06
2.35372e+06
2.33686e+06
2.31989e+06
2.30282e+06
2.28564e+06
2.26836e+06
2.25098e+06
2.2335e+06
2.21593e+06
2.19827e+06
2.18051e+06
2.16266e+06
2.14473e+06
2.12671e+06
2.10861e+06
2.09043e+06
2.07216e+06
2.05382e+06
2.03541e+06
2.01691e+06
1.99835e+06
1.97971e+06
1.96101e+06
1.94223e+06
1.92339e+06
1.90449e+06
1.88552e+06
1.8665e+06
1.84741e+06
1.82826e+06
1.80906e+06
1.78981e+06
1.7705e+06
1.75114e+06
1.73173e+06
1.71228e+06
1.69278e+06
1.67323e+06
1.65365e+06
1.63402e+06
1.61436e+06
1.59466e+06
1.57492e+06
1.55515e+06
1.53535e+06
1.51553e+06
1.49567e+06
1.47579e+06
1.45589e+06
1.43597e+06
1.41603e+06
1.39608e+06
1.37611e+06
1.35613e+06
1.33614e+06
1.31615e+06
1.29615e+06
1.27614e+06
1.25614e+06
1.23614e+06
1.21615e+06
1.19617e+06
1.1762e+06
1.15624e+06
1.1363e+06
1.11638e+06
1.09648e+06
1.07661e+06
1.05677e+06
1.03696e+06
1.01718e+06
997446
977752
958102
938502
918954
899461
880029
860660
841359
822129
802974
783899
764908
746006
727196
708484
689874
671371
652981
634708
616558
598536
580650
562905
545308
527866
510589
493484
476561
459833
443310
427006
410928
395072
3.09947e+06
3.09917e+06
3.09859e+06
3.09773e+06
3.09657e+06
3.09512e+06
3.09336e+06
3.09131e+06
3.08894e+06
3.08627e+06
3.08329e+06
3.08e+06
3.0764e+06
3.07249e+06
3.06826e+06
3.06373e+06
3.05889e+06
3.05374e+06
3.04828e+06
3.04253e+06
3.03647e+06
3.03011e+06
3.02347e+06
3.01653e+06
3.00931e+06
3.0018e+06
2.99402e+06
2.98596e+06
2.97763e+06
2.96903e+06
2.96017e+06
2.95106e+06
2.94169e+06
2.93207e+06
2.92221e+06
2.91211e+06
2.90177e+06
2.89119e+06
2.88039e+06
2.86937e+06
2.85813e+06
2.84667e+06
2.835e+06
2.82312e+06
2.81103e+06
2.79875e+06
2.78627e+06
2.7736e+06
2.76074e+06
2.74769e+06
2.73446e+06
2.72105e+06
2.70747e+06
2.69372e+06
2.6798e+06
2.66571e+06
2.65147e+06
2.63706e+06
2.6225e+06
2.60779e+06
2.59293e+06
2.57793e+06
2.56278e+06
2.54749e+06
2.53206e+06
2.5165e+06
2.50081e+06
2.48499e+06
2.46904e+06
2.45297e+06
2.43677e+06
2.42046e+06
2.40403e+06
2.38748e+06
2.37082e+06
2.35405e+06
2.33717e+06
2.32018e+06
2.30309e+06
2.28589e+06
2.2686e+06
2.2512e+06
2.23371e+06
2.21613e+06
2.19845e+06
2.18068e+06
2.16282e+06
2.14488e+06
2.12685e+06
2.10874e+06
2.09055e+06
2.07227e+06
2.05393e+06
2.0355e+06
2.017e+06
1.99843e+06
1.97979e+06
1.96108e+06
1.9423e+06
1.92345e+06
1.90454e+06
1.88557e+06
1.86654e+06
1.84745e+06
1.8283e+06
1.8091e+06
1.78984e+06
1.77053e+06
1.75117e+06
1.73176e+06
1.7123e+06
1.6928e+06
1.67325e+06
1.65367e+06
1.63404e+06
1.61437e+06
1.59467e+06
1.57493e+06
1.55516e+06
1.53536e+06
1.51554e+06
1.49568e+06
1.4758e+06
1.4559e+06
1.43598e+06
1.41604e+06
1.39608e+06
1.37611e+06
1.35613e+06
1.33614e+06
1.31615e+06
1.29615e+06
1.27615e+06
1.25614e+06
1.23615e+06
1.21616e+06
1.19617e+06
1.1762e+06
1.15624e+06
1.1363e+06
1.11638e+06
1.09648e+06
1.07661e+06
1.05677e+06
1.03696e+06
1.01718e+06
997447
977752
958103
938502
918954
899462
880029
860660
841359
822129
802974
783899
764908
746005
727195
708482
689872
671368
652977
634703
616551
598528
580640
562892
545291
527845
510561
493448
476514
459769
443224
426886
410759
394833
3.10765e+06
3.10733e+06
3.10672e+06
3.10582e+06
3.1046e+06
3.10308e+06
3.10125e+06
3.0991e+06
3.09663e+06
3.09385e+06
3.09075e+06
3.08732e+06
3.08358e+06
3.07952e+06
3.07514e+06
3.07045e+06
3.06544e+06
3.06012e+06
3.05449e+06
3.04856e+06
3.04232e+06
3.03579e+06
3.02896e+06
3.02184e+06
3.01444e+06
3.00676e+06
2.99879e+06
2.99056e+06
2.98206e+06
2.97329e+06
2.96427e+06
2.95499e+06
2.94546e+06
2.93569e+06
2.92567e+06
2.91542e+06
2.90494e+06
2.89423e+06
2.88329e+06
2.87214e+06
2.86077e+06
2.84919e+06
2.8374e+06
2.82541e+06
2.81322e+06
2.80083e+06
2.78825e+06
2.77548e+06
2.76253e+06
2.74939e+06
2.73607e+06
2.72259e+06
2.70892e+06
2.6951e+06
2.6811e+06
2.66695e+06
2.65263e+06
2.63817e+06
2.62355e+06
2.60878e+06
2.59386e+06
2.57881e+06
2.56361e+06
2.54827e+06
2.5328e+06
2.5172e+06
2.50147e+06
2.48561e+06
2.46962e+06
2.45352e+06
2.43729e+06
2.42094e+06
2.40448e+06
2.38791e+06
2.37122e+06
2.35443e+06
2.33752e+06
2.32051e+06
2.3034e+06
2.28619e+06
2.26887e+06
2.25146e+06
2.23395e+06
2.21635e+06
2.19866e+06
2.18087e+06
2.163e+06
2.14505e+06
2.12701e+06
2.10889e+06
2.09068e+06
2.0724e+06
2.05404e+06
2.03561e+06
2.0171e+06
1.99852e+06
1.97987e+06
1.96116e+06
1.94237e+06
1.92352e+06
1.90461e+06
1.88563e+06
1.8666e+06
1.8475e+06
1.82835e+06
1.80914e+06
1.78988e+06
1.77057e+06
1.7512e+06
1.73179e+06
1.71233e+06
1.69283e+06
1.67328e+06
1.65369e+06
1.63406e+06
1.61439e+06
1.59469e+06
1.57495e+06
1.55518e+06
1.53538e+06
1.51555e+06
1.49569e+06
1.47581e+06
1.45591e+06
1.43599e+06
1.41605e+06
1.39609e+06
1.37612e+06
1.35614e+06
1.33615e+06
1.31615e+06
1.29615e+06
1.27615e+06
1.25615e+06
1.23615e+06
1.21616e+06
1.19617e+06
1.1762e+06
1.15624e+06
1.1363e+06
1.11638e+06
1.09649e+06
1.07661e+06
1.05677e+06
1.03696e+06
1.01718e+06
997448
977753
958104
938503
918955
899462
880030
860660
841359
822128
802974
783898
764907
746004
727193
708480
689869
671365
652973
634697
616544
598519
580628
562877
545273
527821
510530
493408
476461
459700
443131
426760
410587
394601
3.11716e+06
3.11682e+06
3.11617e+06
3.11521e+06
3.11392e+06
3.11232e+06
3.11039e+06
3.10813e+06
3.10554e+06
3.10262e+06
3.09936e+06
3.09578e+06
3.09187e+06
3.08763e+06
3.08307e+06
3.07818e+06
3.07297e+06
3.06745e+06
3.06162e+06
3.05547e+06
3.04903e+06
3.04228e+06
3.03524e+06
3.02791e+06
3.0203e+06
3.01241e+06
3.00424e+06
2.9958e+06
2.9871e+06
2.97814e+06
2.96892e+06
2.95946e+06
2.94974e+06
2.93979e+06
2.9296e+06
2.91918e+06
2.90854e+06
2.89767e+06
2.88658e+06
2.87528e+06
2.86376e+06
2.85204e+06
2.84012e+06
2.828e+06
2.81569e+06
2.80318e+06
2.79049e+06
2.77761e+06
2.76455e+06
2.75131e+06
2.7379e+06
2.72432e+06
2.71057e+06
2.69665e+06
2.68257e+06
2.66834e+06
2.65395e+06
2.63941e+06
2.62473e+06
2.60989e+06
2.59492e+06
2.5798e+06
2.56455e+06
2.54916e+06
2.53364e+06
2.51799e+06
2.50221e+06
2.48631e+06
2.47028e+06
2.45414e+06
2.43787e+06
2.42149e+06
2.405e+06
2.38839e+06
2.37168e+06
2.35485e+06
2.33792e+06
2.32089e+06
2.30375e+06
2.28652e+06
2.26918e+06
2.25175e+06
2.23422e+06
2.2166e+06
2.19889e+06
2.18109e+06
2.16321e+06
2.14524e+06
2.12719e+06
2.10905e+06
2.09084e+06
2.07254e+06
2.05418e+06
2.03573e+06
2.01722e+06
1.99863e+06
1.97997e+06
1.96125e+06
1.94246e+06
1.9236e+06
1.90468e+06
1.8857e+06
1.86666e+06
1.84756e+06
1.8284e+06
1.80919e+06
1.78993e+06
1.77061e+06
1.75124e+06
1.73182e+06
1.71236e+06
1.69285e+06
1.6733e+06
1.65371e+06
1.63408e+06
1.61441e+06
1.5947e+06
1.57496e+06
1.55519e+06
1.53539e+06
1.51556e+06
1.4957e+06
1.47582e+06
1.45592e+06
1.436e+06
1.41605e+06
1.3961e+06
1.37613e+06
1.35614e+06
1.33615e+06
1.31616e+06
1.29616e+06
1.27615e+06
1.25615e+06
1.23615e+06
1.21616e+06
1.19618e+06
1.1762e+06
1.15625e+06
1.13631e+06
1.11638e+06
1.09649e+06
1.07662e+06
1.05677e+06
1.03696e+06
1.01719e+06
997449
977754
958104
938504
918955
899463
880030
860661
841359
822128
802973
783898
764906
746003
727192
708478
689866
671361
652968
634691
616537
598510
580616
562861
545252
527795
510497
493365
476405
459626
443033
426631
410416
394377
3.12806e+06
3.12769e+06
3.127e+06
3.12597e+06
3.1246e+06
3.1229e+06
3.12084e+06
3.11845e+06
3.11571e+06
3.11262e+06
3.10919e+06
3.10541e+06
3.1013e+06
3.09685e+06
3.09206e+06
3.08694e+06
3.0815e+06
3.07574e+06
3.06966e+06
3.06328e+06
3.05658e+06
3.04959e+06
3.04231e+06
3.03473e+06
3.02688e+06
3.01874e+06
3.01034e+06
3.00167e+06
2.99274e+06
2.98356e+06
2.97412e+06
2.96444e+06
2.95453e+06
2.94437e+06
2.93399e+06
2.92338e+06
2.91255e+06
2.9015e+06
2.89024e+06
2.87877e+06
2.86709e+06
2.85522e+06
2.84315e+06
2.83089e+06
2.81844e+06
2.8058e+06
2.79298e+06
2.77998e+06
2.7668e+06
2.75345e+06
2.73993e+06
2.72624e+06
2.71239e+06
2.69838e+06
2.68421e+06
2.66989e+06
2.65542e+06
2.6408e+06
2.62604e+06
2.61113e+06
2.59609e+06
2.58091e+06
2.56559e+06
2.55014e+06
2.53457e+06
2.51886e+06
2.50304e+06
2.48708e+06
2.47101e+06
2.45482e+06
2.43852e+06
2.4221e+06
2.40557e+06
2.38893e+06
2.37218e+06
2.35533e+06
2.33837e+06
2.32131e+06
2.30415e+06
2.28689e+06
2.26953e+06
2.25207e+06
2.23452e+06
2.21688e+06
2.19916e+06
2.18134e+06
2.16344e+06
2.14545e+06
2.12738e+06
2.10923e+06
2.09101e+06
2.0727e+06
2.05432e+06
2.03587e+06
2.01734e+06
1.99875e+06
1.98008e+06
1.96135e+06
1.94255e+06
1.92369e+06
1.90476e+06
1.88577e+06
1.86673e+06
1.84762e+06
1.82846e+06
1.80924e+06
1.78997e+06
1.77065e+06
1.75128e+06
1.73186e+06
1.7124e+06
1.69289e+06
1.67333e+06
1.65374e+06
1.6341e+06
1.61443e+06
1.59472e+06
1.57498e+06
1.55521e+06
1.53541e+06
1.51557e+06
1.49572e+06
1.47583e+06
1.45593e+06
1.436e+06
1.41606e+06
1.3961e+06
1.37613e+06
1.35615e+06
1.33616e+06
1.31616e+06
1.29616e+06
1.27616e+06
1.25615e+06
1.23616e+06
1.21616e+06
1.19618e+06
1.17621e+06
1.15625e+06
1.13631e+06
1.11639e+06
1.09649e+06
1.07662e+06
1.05677e+06
1.03696e+06
1.01719e+06
997450
977755
958105
938504
918956
899463
880030
860661
841359
822128
802973
783897
764905
746001
727190
708476
689863
671357
652963
634685
616528
598499
580603
562845
545231
527768
510462
493319
476347
459550
442934
426501
410248
394163
3.14045e+06
3.14005e+06
3.1393e+06
3.13819e+06
3.13672e+06
3.13489e+06
3.13269e+06
3.13013e+06
3.1272e+06
3.12391e+06
3.12027e+06
3.11626e+06
3.1119e+06
3.1072e+06
3.10215e+06
3.09676e+06
3.09105e+06
3.085e+06
3.07864e+06
3.07197e+06
3.065e+06
3.05772e+06
3.05015e+06
3.0423e+06
3.03417e+06
3.02576e+06
3.01709e+06
3.00816e+06
2.99897e+06
2.98954e+06
2.97986e+06
2.96994e+06
2.95979e+06
2.94941e+06
2.93881e+06
2.92799e+06
2.91695e+06
2.9057e+06
2.89425e+06
2.8826e+06
2.87075e+06
2.85871e+06
2.84647e+06
2.83405e+06
2.82145e+06
2.80867e+06
2.7957e+06
2.78257e+06
2.76926e+06
2.75579e+06
2.74215e+06
2.72835e+06
2.71439e+06
2.70027e+06
2.68601e+06
2.67159e+06
2.65702e+06
2.64232e+06
2.62747e+06
2.61249e+06
2.59737e+06
2.58212e+06
2.56673e+06
2.55122e+06
2.53558e+06
2.51982e+06
2.50394e+06
2.48793e+06
2.47181e+06
2.45558e+06
2.43923e+06
2.42277e+06
2.4062e+06
2.38952e+06
2.37274e+06
2.35585e+06
2.33886e+06
2.32177e+06
2.30458e+06
2.28729e+06
2.26991e+06
2.25243e+06
2.23485e+06
2.21719e+06
2.19944e+06
2.18161e+06
2.16369e+06
2.14568e+06
2.1276e+06
2.10944e+06
2.0912e+06
2.07288e+06
2.05449e+06
2.03602e+06
2.01748e+06
1.99888e+06
1.9802e+06
1.96146e+06
1.94265e+06
1.92378e+06
1.90485e+06
1.88586e+06
1.8668e+06
1.84769e+06
1.82852e+06
1.8093e+06
1.79003e+06
1.7707e+06
1.75133e+06
1.7319e+06
1.71244e+06
1.69292e+06
1.67337e+06
1.65377e+06
1.63413e+06
1.61446e+06
1.59475e+06
1.575e+06
1.55523e+06
1.53542e+06
1.51559e+06
1.49573e+06
1.47585e+06
1.45594e+06
1.43602e+06
1.41607e+06
1.39611e+06
1.37614e+06
1.35616e+06
1.33617e+06
1.31617e+06
1.29617e+06
1.27616e+06
1.25616e+06
1.23616e+06
1.21617e+06
1.19618e+06
1.17621e+06
1.15625e+06
1.13631e+06
1.11639e+06
1.09649e+06
1.07662e+06
1.05678e+06
1.03696e+06
1.01719e+06
997451
977756
958106
938505
918957
899464
880031
860661
841359
822128
802973
783897
764904
746000
727188
708473
689860
671353
652958
634678
616520
598488
580589
562827
545208
527739
510425
493272
476286
459472
442834
426373
410085
393960
3.15444e+06
3.15399e+06
3.15317e+06
3.15196e+06
3.15037e+06
3.14838e+06
3.14601e+06
3.14324e+06
3.1401e+06
3.13656e+06
3.13265e+06
3.12837e+06
3.12373e+06
3.11872e+06
3.11336e+06
3.10766e+06
3.10162e+06
3.09525e+06
3.08856e+06
3.08156e+06
3.07426e+06
3.06666e+06
3.05877e+06
3.0506e+06
3.04215e+06
3.03344e+06
3.02447e+06
3.01525e+06
3.00577e+06
2.99606e+06
2.98611e+06
2.97592e+06
2.96552e+06
2.95489e+06
2.94405e+06
2.93299e+06
2.92173e+06
2.91027e+06
2.89861e+06
2.88676e+06
2.87472e+06
2.86249e+06
2.85007e+06
2.83748e+06
2.82471e+06
2.81177e+06
2.79866e+06
2.78538e+06
2.77193e+06
2.75832e+06
2.74456e+06
2.73063e+06
2.71655e+06
2.70232e+06
2.68795e+06
2.67342e+06
2.65876e+06
2.64396e+06
2.62902e+06
2.61395e+06
2.59875e+06
2.58342e+06
2.56797e+06
2.55239e+06
2.53668e+06
2.52086e+06
2.50491e+06
2.48885e+06
2.47268e+06
2.45639e+06
2.43999e+06
2.42349e+06
2.40688e+06
2.39016e+06
2.37334e+06
2.35641e+06
2.33939e+06
2.32227e+06
2.30505e+06
2.28773e+06
2.27031e+06
2.25281e+06
2.23521e+06
2.21753e+06
2.19975e+06
2.1819e+06
2.16396e+06
2.14593e+06
2.12783e+06
2.10965e+06
2.0914e+06
2.07307e+06
2.05466e+06
2.03618e+06
2.01764e+06
1.99902e+06
1.98033e+06
1.96158e+06
1.94277e+06