/*--------------------------------*- C++ -*----------------------------------*\
  =========                 |
  \\      /  F ield         | OpenFOAM: The Open Source CFD Toolbox
   \\    /   O peration     | Website:  https://openfoam.org
    \\  /    A nd           | Version:  7
     \\/     M anipulation  |
\*---------------------------------------------------------------------------*/
FoamFile
{
    version     2.0;
    format      ascii;
    class       volScalarField;
    location    "0.076";
    object      s;
}
// * * * * * * * * * * * * * * * * * * * * * * * * * * * * * * * * * * * * * //

dimensions      [0 0 0 0 0 0 0];

internalField   nonuniform List<scalar> 
12225
(
1
1
1
1
1
1
1
1
1
1
1
1
1
1
1
1
1
1
1
1
1
1
1
1
1
1
1
1
1
1
1
1
1
1
1
1
1
1
1
1
1
1
1
1
1
1
1
1
1
1
1
1
1
1
1
1
1
1
1
1
1
1
1
1
1
1
1
1
1
1
1
1
1
1
1
1
1
1
1
1
1
1
1
1
1
1
1
1
1
1
1
1
1
1
1
1
1
1
1
1
1
1
1
1
1
1
1
1
1
1
1
1
1
1
1
1
1
1
1
1
1
1
1
1
1
1
1
1
1
1
1
1
1
1
1
1
1
1
1
1
1
1
1
1
1
1
1
1
1
1
1
1
1
1
1
1
1
1
1
1
1
1
1
1
1
1
1
1
1
1
1
1
1
1
1
1
1
1
1
1
1
1
1
1
1
1
1
1
1
1
1
1
1
1
1
1
1
1
1
1
1
1
1
1
1
1
1
1
1
1
1
1
1
1
1
1
1
1
1
1
1
1
1
1
1
1
1
1
1
1
1
1
1
1
1
1
1
1
1
1
1
1
1
1
1
1
1
1
1
1
1
1
1
1
1
1
1
1
1
1
1
1
1
1
1
1
1
1
1
1
1
1
1
1
1
1
1
1
1
1
1
1
1
1
1
1
1
1
1
1
1
1
1
1
1
1
1
1
1
1
1
1
1
1
1
1
1
1
1
1
1
1
1
1
1
1
1
1
1
1
1
1
1
1
1
1
1
1
1
1
1
1
1
1
1
1
1
1
1
1
1
1
1
1
1
1
1
1
1
1
1
1
1
1
1
1
1
1
1
1
1
1
1
1
1
1
1
1
1
1
1
1
1
1
1
1
1
1
1
1
1
1
1
1
1
1
1
1
1
1
1
1
1
1
1
1
1
1
1
1
1
1
1
1
1
1
1
1
1
1
1
1
1
1
1
1
1
1
1
1
1
1
1
1
1
1
1
1
1
1
1
1
1
1
1
1
1
1
1
1
1
1
1
1
1
1
1
1
1
1
1
1
1
1
1
1
1
1
1
1
1
1
1
1
1
1
1
1
1
1
1
1
1
1
1
1
1
1
1
1
1
1
1
1
1
1
1
1
1
1
1
1
1
1
1
1
1
1
1
1
1
1
1
1
1
1
1
1
1
1
1
1
1
1
1
1
1
1
1
1
1
1
1
1
1
1
1
1
1
1
1
1
1
1
1
1
1
1
1
1
0.144144
0.16855
0.161004
0.152154
0.149629
0.149774
0.170112
0.19997
0.239878
0.271701
0.298445
0.320713
0.342723
0.361414
0.376304
0.389336
0.400268
0.409136
0.417267
0.423763
0.428818
0.432617
0.436442
0.440518
0.445466
0.450441
0.454646
0.459923
0.468939
0.481618
0.494479
0.505406
0.516955
0.532489
0.550166
0.562195
0.563009
0.50497
0.166572
0.0236699
0.0187234
0.023379
0.0276657
0.0318753
0.0374629
0.0435625
0.0506257
0.0597075
0.0719118
0.0831391
0.0932522
0.0962867
0.0802897
0.0644519
0.0644467
0.0805363
0.104366
0.127583
0.154604
0.181936
0.216629
0.354273
0.698567
0.840199
0.856595
0.858565
0.859943
0.861138
0.86214
0.862858
0.863725
0.864794
0.865651
0.866431
0.866974
0.867603
0.867902
0.868476
0.869064
0.869372
0.869683
0.870074
0.870552
0.870866
0.871219
0.871539
0.871665
0.871707
0.87164
0.871425
0.871348
0.871275
0.87108
0.870813
0.870607
0.870426
0.870162
0.869917
0.869743
0.869518
0.869082
0.868611
0.868046
0.86738
0.8666
0.865643
0.864578
0.863583
0.862347
0.861015
0.85955
0.857913
0.856122
0.854127
0.851896
0.849063
0.844902
0.839232
0.832017
0.822728
0.811416
0.797872
0.780194
0.757791
0.73294
0.702987
0.662059
0.613251
0.560305
0.492185
0.398871
0.29528
0.204435
0.132789
0.0808798
0.0461513
0.0246405
0.0122934
0.00572813
0.00249623
0.00101922
0.000385698
0.000128904
3.93378e-05
1.97515e-05
1.00266e-05
4.96019e-06
2.37694e-06
1.10672e-06
5.02561e-07
2.23338e-07
9.74567e-08
4.18968e-08
1.78033e-08
7.50206e-09
3.14466e-09
1.31505e-09
5.50049e-10
2.30588e-10
9.70165e-11
4.09896e-11
1.73866e-11
7.39684e-12
3.15144e-12
1.3422e-12
5.70343e-13
2.41338e-13
1.01492e-13
4.23266e-14
1.74634e-14
7.10794e-15
2.84513e-15
1.1159e-15
4.27258e-16
1.58989e-16
5.72288e-17
1.98137e-17
6.54555e-18
2.00723e-18
-2.67791e-18
0.120559
0.162716
0.162569
0.135624
0.0648505
0.0743096
0.107972
0.167908
0.258471
0.339282
0.399987
0.43922
0.461155
0.473033
0.480103
0.481351
0.482697
0.483017
0.483187
0.483758
0.48446
0.485136
0.4857
0.486643
0.488776
0.490758
0.494922
0.499761
0.503422
0.51013
0.517989
0.52384
0.531957
0.541856
0.549861
0.563742
0.57403
0.568476
0.532172
0.461995
0.253399
0.0911729
0.0362883
0.0215526
0.0219211
0.0308576
0.0450147
0.0573504
0.0717649
0.0925877
0.123478
0.169244
0.205525
0.203065
0.166414
0.156459
0.163995
0.180044
0.194629
0.321954
0.673883
0.788044
0.838259
0.8567
0.860068
0.861497
0.863196
0.864824
0.86638
0.86811
0.870333
0.872801
0.875068
0.87691
0.87848
0.880279
0.882317
0.884679
0.886429
0.887846
0.889265
0.890958
0.892981
0.894687
0.896512
0.898661
0.90071
0.902582
0.904313
0.905991
0.907898
0.909858
0.91163
0.9134
0.915299
0.916901
0.918272
0.919531
0.920941
0.921941
0.922904
0.923646
0.924045
0.924254
0.924022
0.923303
0.922067
0.920055
0.917342
0.913914
0.910324
0.907023
0.904255
0.901491
0.899028
0.897321
0.897126
0.898752
0.90266
0.908423
0.916123
0.925647
0.936709
0.948297
0.958502
0.966102
0.971809
0.9761
0.979046
0.980869
0.98176
0.981682
0.977645
0.965095
0.933494
0.881714
0.813256
0.721785
0.606566
0.47971
0.361777
0.266076
0.19131
0.13415
0.0916209
0.0609009
0.0393822
0.0247719
0.0151581
0.0090264
0.00523418
0.0029583
0.00163154
0.000879257
0.000463724
0.000239737
0.000121688
6.07391e-05
2.98538e-05
1.44655e-05
6.91576e-06
3.264e-06
1.52114e-06
7.00045e-07
3.18113e-07
1.42732e-07
6.32201e-08
2.76401e-08
1.19193e-08
5.06698e-09
2.11878e-09
8.70651e-10
3.49997e-10
1.37641e-10
5.25005e-11
1.95082e-11
6.93394e-12
2.40857e-12
7.30744e-13
-4.07104e-12
0.0553405
0.0993271
0.110038
0.0930623
0.105311
0.15929
0.274287
0.400631
0.461993
0.491286
0.498552
0.499159
0.497459
0.493002
0.486287
0.474249
0.462023
0.448226
0.435037
0.423514
0.411871
0.404413
0.396472
0.391117
0.391044
0.39266
0.397655
0.406503
0.419932
0.440703
0.461125
0.480915
0.502885
0.520502
0.537529
0.554831
0.567045
0.580915
0.582346
0.576132
0.549352
0.480556
0.324431
0.170918
0.094605
0.0624303
0.0570272
0.0638015
0.0881177
0.10444
0.118647
0.148589
0.23074
0.28527
0.292794
0.295043
0.30209
0.364791
0.64156
0.769263
0.827587
0.848715
0.856771
0.859246
0.860157
0.861451
0.86253
0.86367
0.864969
0.866932
0.869236
0.870822
0.872806
0.874346
0.874964
0.875603
0.876792
0.878218
0.878832
0.879198
0.880103
0.882112
0.88393
0.885209
0.887535
0.890831
0.893832
0.896926
0.90028
0.903044
0.906327
0.90985
0.91271
0.915893
0.919134
0.921954
0.924654
0.927092
0.929839
0.93206
0.934427
0.9369
0.939147
0.941615
0.944017
0.946408
0.948657
0.950642
0.952154
0.953165
0.952592
0.949635
0.944038
0.93613
0.925843
0.914018
0.902041
0.891844
0.884912
0.88006
0.877417
0.876763
0.877517
0.881402
0.891705
0.907057
0.925373
0.943515
0.958334
0.969654
0.978099
0.984288
0.989513
0.993475
0.994899
0.994819
0.993706
0.989815
0.981026
0.972069
0.959126
0.931798
0.864988
0.73601
0.590998
0.452792
0.336749
0.245211
0.174179
0.120464
0.0810904
0.0531626
0.033985
0.0212174
0.0129602
0.00776091
0.00456576
0.00264463
0.00151163
0.000854647
0.000479163
0.000267097
0.000148362
8.22331e-05
4.54616e-05
2.50088e-05
1.36277e-05
7.31949e-06
3.85498e-06
1.9857e-06
9.97064e-07
4.88338e-07
2.32389e-07
1.07868e-07
4.84299e-08
2.12423e-08
8.93191e-09
3.66786e-09
1.46412e-09
4.38277e-10
0.00773121
0.023567
0.0438717
0.131113
0.30168
0.44298
0.500055
0.516638
0.515863
0.511021
0.499324
0.476062
0.448313
0.418614
0.3898
0.365957
0.34492
0.325276
0.307366
0.290679
0.275092
0.261485
0.24885
0.238885
0.23005
0.224766
0.22488
0.227239
0.234608
0.247146
0.27026
0.308134
0.349336
0.400674
0.462578
0.506268
0.540471
0.566403
0.5812
0.594974
0.594952
0.587697
0.564017
0.508563
0.42196
0.333584
0.255149
0.231246
0.233568
0.242926
0.258662
0.290161
0.352973
0.373692
0.369908
0.357849
0.47473
0.727827
0.807777
0.839849
0.852087
0.856065
0.857443
0.857968
0.857685
0.857714
0.857778
0.858317
0.860577
0.861309
0.861535
0.860749
0.858615
0.855398
0.849798
0.842998
0.836676
0.83054
0.824299
0.818918
0.814939
0.812843
0.81205
0.81284
0.816015
0.81899
0.824483
0.831361
0.838255
0.84362
0.850251
0.856998
0.86163
0.866631
0.87125
0.874728
0.878322
0.881129
0.88438
0.887123
0.890504
0.894425
0.899276
0.905284
0.912385
0.92061
0.929627
0.93899
0.948026
0.956016
0.962867
0.968395
0.972433
0.974941
0.976137
0.975288
0.970505
0.959573
0.942062
0.92156
0.902044
0.888004
0.878918
0.873845
0.871942
0.872012
0.874448
0.883777
0.903247
0.924527
0.942893
0.957579
0.969437
0.97884
0.986039
0.991428
0.995209
0.997346
0.998054
0.998074
0.997778
0.996553
0.99234
0.983395
0.974384
0.960134
0.928679
0.840313
0.666513
0.500376
0.363282
0.257425
0.1778
0.119679
0.0786168
0.0505183
0.0318488
0.0197628
0.0121097
0.00735007
0.00443054
0.00265727
0.00158681
0.000942958
0.00055636
0.000324802
0.000186599
0.000105157
5.78979e-05
3.11204e-05
1.62743e-05
8.29973e-06
4.11572e-06
1.99163e-06
9.34144e-07
4.28007e-07
1.88856e-07
8.13099e-08
3.39362e-08
1.21244e-08
0.0016936
0.0491967
0.265065
0.465056
0.524255
0.534566
0.532528
0.522132
0.500106
0.463889
0.436514
0.413294
0.391729
0.371015
0.350807
0.330584
0.310556
0.290526
0.271299
0.252801
0.235473
0.21941
0.204009
0.190614
0.180626
0.169881
0.16267
0.16218
0.163828
0.168616
0.178918
0.200578
0.218833
0.254717
0.304249
0.369209
0.452141
0.515096
0.559912
0.585118
0.602805
0.610253
0.608974
0.602338
0.584358
0.550899
0.53205
0.505636
0.457385
0.427409
0.426768
0.442975
0.468553
0.459245
0.425983
0.548863
0.748634
0.821484
0.844759
0.852664
0.854872
0.85535
0.85407
0.85036
0.847296
0.846661
0.847997
0.8502
0.85033
0.848266
0.841259
0.829268
0.810815
0.784797
0.750863
0.718359
0.69929
0.686808
0.67453
0.667765
0.6648
0.663696
0.663578
0.66574
0.668784
0.670869
0.675445
0.680905
0.686252
0.692067
0.698334
0.705213
0.710799
0.716208
0.720776
0.724169
0.726767
0.728734
0.730322
0.732017
0.734519
0.738407
0.744578
0.753474
0.765755
0.78184
0.802096
0.826522
0.854344
0.883708
0.910876
0.933672
0.95288
0.967083
0.976313
0.981894
0.984948
0.986211
0.985788
0.981591
0.969816
0.949535
0.925573
0.903812
0.888031
0.878118
0.873792
0.873233
0.875158
0.884723
0.908769
0.93292
0.951242
0.964291
0.974061
0.981744
0.987848
0.992435
0.995573
0.997582
0.998762
0.999217
0.999243
0.99913
0.99878
0.997954
0.995984
0.991203
0.980589
0.957081
0.893512
0.723954
0.537141
0.385129
0.269369
0.184416
0.123836
0.0817983
0.0533131
0.0343828
0.0219862
0.0139543
0.00878874
0.00548621
0.00338462
0.00205576
0.00122511
0.000714732
0.000407152
0.000226291
0.000122403
6.44499e-05
3.29501e-05
1.64145e-05
7.93429e-06
3.73752e-06
1.70203e-06
7.53061e-07
3.24531e-07
1.23637e-07
0.051313
0.362799
0.522902
0.551453
0.547494
0.536617
0.512103
0.48542
0.464165
0.443599
0.423858
0.404638
0.384738
0.364768
0.344466
0.323504
0.302421
0.281268
0.261138
0.241977
0.223927
0.206348
0.190153
0.175535
0.162438
0.150286
0.141539
0.137194
0.136217
0.137247
0.141978
0.15598
0.168587
0.185571
0.224537
0.278498
0.329951
0.408532
0.495678
0.556805
0.592763
0.612176
0.624165
0.626039
0.624736
0.619372
0.615582
0.60701
0.557952
0.499666
0.496752
0.514927
0.510273
0.507705
0.619093
0.762028
0.825812
0.846429
0.852299
0.8535
0.853513
0.849773
0.840447
0.833444
0.831971
0.832155
0.834136
0.834424
0.831421
0.819437
0.791373
0.739956
0.668678
0.634627
0.618853
0.611523
0.609105
0.609262
0.614162
0.616904
0.618893
0.623464
0.628289
0.631919
0.634177
0.636259
0.638629
0.640095
0.640843
0.642163
0.64314
0.644169
0.645107
0.645903
0.646656
0.647237
0.64762
0.648009
0.648299
0.648641
0.649159
0.650013
0.651402
0.653767
0.657659
0.663527
0.672005
0.68396
0.701031
0.724886
0.759973
0.805577
0.855492
0.902673
0.937459
0.961874
0.97726
0.985621
0.989564
0.991127
0.991247
0.989165
0.981719
0.965518
0.942512
0.91829
0.898685
0.886167
0.88077
0.880221
0.883191
0.897819
0.925563
0.948664
0.964445
0.974867
0.982133
0.987572
0.99178
0.994939
0.997084
0.998398
0.999157
0.999575
0.999738
0.999755
0.999715
0.999528
0.998957
0.997375
0.992998
0.981274
0.949367
0.848464
0.651844
0.477746
0.341078
0.238981
0.16513
0.112804
0.0762523
0.0510087
0.0337377
0.0220258
0.014153
0.00892566
0.00550952
0.00332222
0.00195333
0.00111903
0.0006238
0.000338435
0.000178344
9.13263e-05
4.54081e-05
2.19597e-05
1.02906e-05
4.67201e-06
2.07211e-06
8.25423e-07
0.515731
0.573509
0.569493
0.558771
0.536095
0.516984
0.498401
0.481436
0.465632
0.452263
0.440302
0.426886
0.411851
0.396955
0.379013
0.359109
0.339041
0.319121
0.301018
0.283059
0.264295
0.243011
0.22206
0.202959
0.187976
0.175252
0.165122
0.155814
0.148706
0.144877
0.144998
0.151951
0.171991
0.203612
0.244481
0.279956
0.312781
0.358811
0.422293
0.496059
0.557524
0.600001
0.622698
0.633735
0.638429
0.639121
0.636032
0.606016
0.528992
0.516825
0.544686
0.585144
0.599285
0.679991
0.778475
0.828125
0.846704
0.851822
0.852658
0.852034
0.847171
0.833363
0.818142
0.813447
0.811728
0.810964
0.810262
0.806415
0.792364
0.754617
0.679568
0.606709
0.581611
0.573488
0.572296
0.580796
0.604988
0.616343
0.622869
0.634956
0.651745
0.664018
0.675724
0.68778
0.693623
0.69751
0.699052
0.698825
0.693756
0.689574
0.683273
0.678277
0.673749
0.669735
0.666536
0.663836
0.661663
0.659908
0.658313
0.656675
0.654894
0.653013
0.651268
0.650152
0.650027
0.65124
0.654025
0.658521
0.665388
0.674068
0.685086
0.701849
0.728092
0.768202
0.825183
0.884923
0.933618
0.963732
0.981061
0.989555
0.993056
0.994199
0.994125
0.992143
0.98589
0.972991
0.953083
0.930404
0.911654
0.900511
0.896603
0.896911
0.903359
0.925719
0.949841
0.966871
0.977693
0.984588
0.989285
0.992711
0.995256
0.997102
0.998355
0.999119
0.999549
0.999779
0.999882
0.999904
0.999893
0.999823
0.999555
0.99869
0.996014
0.987929
0.964277
0.889571
0.70804
0.532558
0.391483
0.282956
0.2017
0.141895
0.0983991
0.067109
0.0448982
0.0293948
0.0187894
0.0117071
0.0071009
0.00419065
0.00240482
0.00134201
0.000727788
0.000383593
0.00019616
9.74542e-05
4.69767e-05
2.19118e-05
9.99817e-06
4.14471e-06
0.625323
0.593972
0.566259
0.547916
0.534337
0.523177
0.522377
0.522724
0.523987
0.524698
0.522983
0.519142
0.515079
0.506505
0.493181
0.483505
0.475732
0.46673
0.454658
0.437005
0.417597
0.39645
0.376907
0.357164
0.338999
0.321189
0.305713
0.289315
0.27564
0.267263
0.263403
0.266275
0.272722
0.282578
0.293824
0.310336
0.337
0.379253
0.440365
0.508686
0.566562
0.606023
0.629824
0.642695
0.645388
0.64299
0.619975
0.542338
0.530496
0.585823
0.650616
0.679585
0.726454
0.793404
0.830577
0.846364
0.851199
0.851943
0.851024
0.845342
0.829475
0.80915
0.799575
0.794827
0.790914
0.787227
0.782718
0.77119
0.735931
0.663195
0.575515
0.544324
0.537123
0.537559
0.553968
0.592703
0.63718
0.672819
0.708578
0.752204
0.780828
0.797695
0.822401
0.835926
0.844581
0.854462
0.858733
0.860576
0.861117
0.858811
0.85404
0.847254
0.838177
0.828812
0.819865
0.811689
0.804081
0.797082
0.78991
0.781669
0.771523
0.758878
0.7432
0.726044
0.710565
0.698631
0.688958
0.682209
0.67924
0.679581
0.683149
0.690776
0.703635
0.722697
0.748905
0.786116
0.83731
0.897535
0.94598
0.973625
0.987579
0.993601
0.995723
0.996208
0.995754
0.993284
0.987051
0.976364
0.960584
0.942948
0.92905
0.921905
0.920289
0.92201
0.933703
0.955533
0.971538
0.981675
0.987796
0.991647
0.994284
0.996198
0.997586
0.998552
0.999188
0.999575
0.999789
0.999899
0.999946
0.999954
0.999946
0.999894
0.99969
0.998989
0.99673
0.989698
0.968692
0.902696
0.735791
0.567355
0.428291
0.317259
0.230607
0.164247
0.114387
0.077728
0.0514394
0.0331114
0.0207141
0.0125906
0.00743489
0.00426612
0.00237851
0.00128861
0.00067797
0.000346178
0.000171626
8.23163e-05
3.86444e-05
1.66357e-05
0.616504
0.575049
0.568083
0.572649
0.57259
0.578796
0.581745
0.584815
0.588541
0.592312
0.599101
0.601959
0.604355
0.609466
0.616943
0.619575
0.620031
0.615095
0.608571
0.602647
0.596089
0.58405
0.570952
0.555479
0.539459
0.520336
0.499742
0.479311
0.462836
0.442775
0.427808
0.41289
0.40058
0.393756
0.391884
0.403964
0.42512
0.461563
0.511862
0.563084
0.60504
0.632098
0.644811
0.646765
0.643293
0.612939
0.54185
0.537938
0.60972
0.689447
0.722692
0.759484
0.802604
0.832633
0.845764
0.850348
0.851164
0.850014
0.842827
0.826526
0.803427
0.787033
0.781673
0.77876
0.775177
0.769248
0.75889
0.733015
0.679191
0.583943
0.518288
0.501924
0.499795
0.507814
0.538743
0.587273
0.639268
0.689328
0.745189
0.796345
0.822062
0.839738
0.861498
0.870933
0.879144
0.892491
0.899355
0.904151
0.910469
0.914727
0.919782
0.923374
0.925963
0.927225
0.927838
0.928118
0.928036
0.927815
0.927464
0.926782
0.925347
0.922398
0.916204
0.904656
0.884873
0.857736
0.827841
0.798178
0.772621
0.753996
0.740829
0.731192
0.726941
0.729621
0.743739
0.767341
0.797562
0.833661
0.879373
0.930428
0.966762
0.98526
0.99351
0.996602
0.997506
0.997532
0.99665
0.993301
0.987324
0.979602
0.969464
0.958294
0.949886
0.946184
0.945901
0.949051
0.962652
0.977065
0.985936
0.99109
0.994113
0.99602
0.997327
0.998262
0.998924
0.99937
0.999655
0.999824
0.999915
0.99996
0.999974
0.999975
0.999964
0.999909
0.999702
0.999005
0.996796
0.990028
0.970018
0.907762
0.750282
0.587709
0.448968
0.334416
0.242598
0.171157
0.117291
0.07801
0.0503376
0.0315151
0.0191495
0.0112973
0.00647354
0.00360327
0.00194875
0.00102292
0.000521513
0.000257286
0.000124275
5.54677e-05
0.610012
0.594967
0.610753
0.610298
0.606611
0.601882
0.602832
0.62073
0.649369
0.662286
0.67165
0.686968
0.695305
0.700812
0.708275
0.714571
0.719183
0.720941
0.720423
0.713657
0.706911
0.696549
0.688407
0.677812
0.666704
0.655281
0.642809
0.630994
0.61583
0.601491
0.59259
0.585152
0.581259
0.57849
0.577355
0.581457
0.590495
0.603058
0.617034
0.631096
0.640579
0.644332
0.64426
0.635515
0.590039
0.537491
0.539392
0.616581
0.710872
0.745561
0.778398
0.809707
0.833681
0.845186
0.849457
0.850379
0.849416
0.843176
0.831136
0.814617
0.795621
0.777036
0.766788
0.762841
0.760351
0.756274
0.740332
0.704372
0.635287
0.531233
0.479596
0.468244
0.467181
0.47286
0.499059
0.550041
0.601757
0.643932
0.688292
0.730531
0.757269
0.779627
0.800128
0.812931
0.829332
0.851614
0.867455
0.883195
0.896282
0.906923
0.917063
0.924404
0.930628
0.934613
0.93761
0.940077
0.942005
0.943707
0.94554
0.947814
0.950769
0.954486
0.958545
0.962425
0.965477
0.965164
0.960018
0.94849
0.930636
0.906658
0.880747
0.856004
0.833712
0.815253
0.802623
0.798633
0.804825
0.82658
0.855066
0.88781
0.927106
0.963427
0.984039
0.993454
0.997136
0.998325
0.99856
0.998331
0.996902
0.992891
0.988615
0.984316
0.978676
0.972398
0.968039
0.966586
0.966971
0.971321
0.982152
0.989601
0.993812
0.996125
0.997461
0.998318
0.998903
0.999308
0.999584
0.999764
0.999875
0.999938
0.999971
0.999984
0.999987
0.999984
0.999968
0.9999
0.999667
0.998919
0.996626
0.98973
0.969202
0.904259
0.744611
0.581587
0.440207
0.322776
0.229191
0.15757
0.104905
0.067665
0.0423119
0.0256667
0.0151141
0.00864247
0.00480095
0.00258991
0.00135744
0.000688747
0.000342204
0.00015813
0.613005
0.616706
0.626371
0.623292
0.631354
0.652367
0.669614
0.695329
0.735394
0.753019
0.771542
0.797324
0.80951
0.819673
0.832888
0.839718
0.845506
0.848809
0.850031
0.849092
0.844406
0.835511
0.821445
0.803606
0.781837
0.757298
0.730346
0.708178
0.686731
0.667329
0.651618
0.639666
0.630772
0.626109
0.62438
0.624647
0.628575
0.630686
0.633529
0.634752
0.633209
0.628166
0.611072
0.565984
0.53449
0.539431
0.614739
0.717483
0.759445
0.785787
0.813886
0.833809
0.844422
0.848792
0.850042
0.850124
0.847405
0.839752
0.827926
0.813282
0.795876
0.777418
0.76326
0.754123
0.750025
0.740468
0.721769
0.689079
0.62506
0.517485
0.4416
0.42295
0.415023
0.413142
0.421107
0.446508
0.463746
0.466822
0.463005
0.46161
0.477879
0.497349
0.513963
0.55291
0.594561
0.640258
0.688791
0.741675
0.781722
0.817774
0.847886
0.871815
0.89003
0.901716
0.908681
0.913143
0.915581
0.916812
0.917995
0.920339
0.925196
0.93376
0.945434
0.957909
0.968917
0.977125
0.982237
0.985054
0.984994
0.98158
0.974616
0.964954
0.9537
0.942049
0.930432
0.915835
0.897023
0.879406
0.872826
0.882425
0.907927
0.935484
0.964799
0.984584
0.993854
0.997573
0.99884
0.999174
0.999161
0.998723
0.996553
0.993508
0.991646
0.989347
0.98579
0.98236
0.980595
0.980398
0.981471
0.986653
0.992507
0.995817
0.997571
0.99849
0.999017
0.999362
0.999599
0.999757
0.99986
0.999924
0.999961
0.999982
0.999991
0.999993
0.999992
0.999987
0.999962
0.999875
0.999592
0.998714
0.996028
0.987728
0.961518
0.873974
0.697743
0.533035
0.392702
0.27934
0.192007
0.127647
0.0821635
0.0512544
0.0310161
0.0182167
0.0103918
0.00575611
0.0030996
0.00161679
0.000825847
0.000394501
0.614793
0.624705
0.666174
0.693385
0.726461
0.74521
0.774718
0.79663
0.823501
0.84344
0.85627
0.872738
0.879603
0.886421
0.891563
0.894236
0.896751
0.897749
0.898533
0.899715
0.901092
0.902548
0.903166
0.902377
0.89943
0.891304
0.874096
0.843368
0.804024
0.758267
0.713207
0.681223
0.654627
0.638063
0.628443
0.623571
0.620584
0.619061
0.616684
0.611809
0.603977
0.589324
0.557746
0.536188
0.540135
0.605965
0.714253
0.76489
0.788775
0.813791
0.832352
0.842933
0.847734
0.849497
0.849975
0.849559
0.846318
0.838907
0.828022
0.814761
0.799385
0.782301
0.765154
0.750224
0.732921
0.72014
0.711405
0.689634
0.632895
0.533745
0.432814
0.380236
0.362894
0.356199
0.341255
0.314106
0.295038
0.268931
0.248804
0.2364
0.231602
0.23633
0.243818
0.262084
0.286801
0.32305
0.370161
0.42872
0.498557
0.574093
0.64812
0.715736
0.768875
0.802603
0.822332
0.831584
0.833997
0.832655
0.829424
0.825842
0.826564
0.837104
0.86034
0.891682
0.925929
0.956369
0.976325
0.986406
0.991106
0.993364
0.994014
0.99315
0.990404
0.986583
0.982162
0.978163
0.974339
0.96791
0.952987
0.93231
0.922737
0.928363
0.949154
0.970475
0.986715
0.994744
0.998033
0.999191
0.999527
0.999568
0.999455
0.998742
0.996831
0.995736
0.994821
0.992884
0.990572
0.989082
0.988701
0.989035
0.991154
0.994897
0.99724
0.998513
0.999167
0.999499
0.999683
0.9998
0.999879
0.99993
0.999962
0.999981
0.999991
0.999995
0.999996
0.999996
0.999994
0.999983
0.999944
0.999816
0.999403
0.998092
0.993861
0.979889
0.932426
0.786777
0.602036
0.443747
0.315239
0.216149
0.143269
0.0919223
0.0571622
0.0344785
0.0201903
0.0114782
0.00634358
0.00339793
0.00178313
0.000879396
0.623072
0.664709
0.71411
0.736706
0.777379
0.813998
0.839623
0.858837
0.877253
0.886053
0.892689
0.897913
0.899987
0.901118
0.901508
0.901544
0.900926
0.899559
0.89895
0.898898
0.900899
0.904589
0.909526
0.916411
0.924143
0.931078
0.937458
0.94043
0.939743
0.925892
0.894784
0.835702
0.767706
0.701924
0.660038
0.632055
0.618133
0.610397
0.604407
0.599072
0.58763
0.564592
0.545097
0.543501
0.589609
0.701389
0.762216
0.79035
0.809131
0.829486
0.840215
0.84586
0.848309
0.849294
0.849378
0.847766
0.843271
0.836501
0.827411
0.815949
0.802956
0.787763
0.770476
0.751066
0.72915
0.70773
0.69503
0.686653
0.653555
0.575353
0.455566
0.380341
0.339226
0.309511
0.280158
0.244612
0.21633
0.196967
0.183572
0.175473
0.17241
0.173537
0.17765
0.18667
0.200833
0.222953
0.254395
0.294629
0.339128
0.384
0.430808
0.483659
0.548968
0.622113
0.682011
0.719397
0.7342
0.737062
0.73338
0.72951
0.726673
0.724568
0.728047
0.752607
0.803433
0.874276
0.933104
0.968408
0.98566
0.993029
0.995981
0.997269
0.997693
0.99745
0.996255
0.994444
0.99256
0.990911
0.988954
0.984766
0.972623
0.957311
0.954057
0.961632
0.977691
0.989666
0.995924
0.998516
0.999447
0.999728
0.999777
0.999738
0.999441
0.998606
0.998112
0.997655
0.996601
0.995128
0.994096
0.993737
0.99384
0.994766
0.996863
0.998305
0.999119
0.999544
0.999756
0.999863
0.99992
0.999952
0.999972
0.999984
0.999992
0.999996
0.999998
0.999998
0.999998
0.999997
0.999991
0.999969
0.999895
0.999648
0.99882
0.996022
0.986408
0.952826
0.837217
0.64329
0.473073
0.334876
0.228695
0.150953
0.0964629
0.0597409
0.0358987
0.0209341
0.0118656
0.00651928
0.00350851
0.00178229
0.630035
0.692344
0.747207
0.771905
0.820778
0.857452
0.87329
0.884136
0.890568
0.893383
0.894788
0.895309
0.892639
0.885448
0.879218
0.875422
0.872108
0.870678
0.870128
0.869358
0.868358
0.867239
0.866462
0.868042
0.877439
0.893776
0.917098
0.943734
0.957721
0.966514
0.969455
0.964674
0.943669
0.894131
0.807395
0.714129
0.655029
0.619891
0.600665
0.587929
0.573816
0.558424
0.54947
0.567667
0.670451
0.750713
0.787103
0.8056
0.822148
0.836063
0.842278
0.846258
0.848054
0.848548
0.848034
0.844869
0.839182
0.83139
0.822721
0.813584
0.802317
0.788288
0.773247
0.754573
0.731411
0.708129
0.691384
0.677351
0.662281
0.624653
0.53694
0.410202
0.347579
0.310034
0.276641
0.242358
0.210127
0.182849
0.166934
0.159445
0.157012
0.158261
0.161069
0.167091
0.177741
0.194882
0.221071
0.25824
0.302727
0.346285
0.384222
0.416378
0.447701
0.483379
0.526711
0.576569
0.624012
0.656815
0.676415
0.685843
0.687454
0.684022
0.676907
0.673226
0.680822
0.723457
0.830768
0.916271
0.961962
0.983824
0.993288
0.997024
0.998437
0.999002
0.999138
0.99898
0.998399
0.997599
0.996827
0.995987
0.994291
0.989291
0.978061
0.972935
0.974782
0.984269
0.992743
0.997139
0.998973
0.99964
0.999844
0.999882
0.999863
0.999705
0.999378
0.999195
0.998968
0.998412
0.997601
0.997031
0.996816
0.996837
0.997239
0.99831
0.999088
0.999533
0.999767
0.999883
0.99994
0.999968
0.999982
0.99999
0.999995
0.999997
0.999999
0.999999
0.999999
0.999999
0.999998
0.999994
0.999979
0.999926
0.99974
0.999091
0.996802
0.988664
0.959603
0.856779
0.658908
0.482489
0.339798
0.230847
0.151613
0.0963998
0.0594237
0.0355271
0.0206374
0.0116193
0.00640617
0.00334394
0.633434
0.704227
0.774677
0.805329
0.853323
0.87715
0.886231
0.890226
0.891654
0.891974
0.889448
0.880366
0.872767
0.869402
0.868249
0.867944
0.868147
0.86916
0.869603
0.869715
0.868387
0.866141
0.86139
0.854436
0.848441
0.843141
0.840003
0.857752
0.906693
0.951369
0.972999
0.982877
0.985852
0.981099
0.960671
0.909242
0.801368
0.699738
0.640417
0.601574
0.577325
0.562889
0.564352
0.630888
0.729165
0.778118
0.801289
0.815424
0.828336
0.83714
0.842258
0.845948
0.84715
0.847284
0.846091
0.842529
0.836651
0.828236
0.818251
0.807473
0.797171
0.786745
0.775352
0.760195
0.738242
0.713703
0.69419
0.677706
0.663994
0.645619
0.609388
0.525988
0.399456
0.333637
0.289653
0.25418
0.222
0.19281
0.173756
0.164122
0.158496
0.157565
0.159116
0.16393
0.173813
0.189678
0.213786
0.249074
0.29379
0.339921
0.380147
0.411662
0.438158
0.463803
0.491268
0.520555
0.550892
0.579409
0.602339
0.621582
0.640403
0.653027
0.65413
0.646412
0.644075
0.652674
0.703325
0.82836
0.916678
0.962499
0.984152
0.993647
0.997503
0.998954
0.999474
0.99966
0.999682
0.999581
0.999283
0.99898
0.99858
0.997722
0.995097
0.988259
0.984508
0.984862
0.989819
0.995387
0.998191
0.999358
0.999783
0.999912
0.999935
0.999922
0.999837
0.999735
0.99967
0.999555
0.999263
0.998886
0.998642
0.998561
0.998568
0.998722
0.999197
0.999571
0.999783
0.999894
0.999949
0.999975
0.999988
0.999994
0.999997
0.999998
0.999999
1
1
1
0.999999
0.999999
0.999995
0.999983
0.999938
0.999772
0.99917
0.996969
0.988926
0.959738
0.855538
0.654284
0.476138
0.333249
0.225063
0.146946
0.0929145
0.0569333
0.0338755
0.019529
0.01102
0.00590057
0.63314
0.703139
0.79706
0.826427
0.865249
0.885115
0.890061
0.891333
0.891031
0.887731
0.877769
0.871824
0.869732
0.869546
0.871564
0.875302
0.876963
0.878193
0.878621
0.879039
0.879659
0.880766
0.881314
0.879611
0.870668
0.852348
0.831532
0.82115
0.82004
0.850425
0.922071
0.970489
0.987561
0.992555
0.993717
0.985807
0.957043
0.87308
0.757011
0.683711
0.638227
0.616928
0.646493
0.711976
0.765139
0.793726
0.809752
0.819606
0.829212
0.836711
0.841563
0.845026
0.845999
0.846022
0.844421
0.840208
0.834055
0.825752
0.815511
0.805411
0.796159
0.787101
0.777533
0.767279
0.752972
0.731866
0.707838
0.685521
0.668045
0.652852
0.634334
0.606128
0.545071
0.451639
0.352242
0.29641
0.258113
0.225693
0.200829
0.187122
0.177563
0.175158
0.177185
0.18314
0.194138
0.213649
0.240688
0.275299
0.318319
0.3673
0.411077
0.441611
0.462736
0.480742
0.499614
0.521532
0.545185
0.566855
0.583412
0.595682
0.606321
0.616441
0.623481
0.625519
0.627502
0.634688
0.665298
0.763395
0.865287
0.932278
0.969241
0.986976
0.994753
0.997988
0.999243
0.999693
0.999849
0.999894
0.999886
0.999821
0.999717
0.999519
0.999032
0.997325
0.993275
0.991278
0.991397
0.994046
0.997356
0.998972
0.999641
0.999881
0.999952
0.999963
0.999955
0.999921
0.999896
0.99987
0.999811
0.999673
0.999542
0.999472
0.999457
0.999468
0.999539
0.999715
0.999845
0.999921
0.999961
0.999982
0.999991
0.999996
0.999998
0.999999
1
1
1
1
1
1
0.999999
0.999996
0.999984
0.99994
0.999773
0.999142
0.996768
0.987913
0.955437
0.839779
0.6357
0.459161
0.319195
0.214128
0.138911
0.0872285
0.0531421
0.0313482
0.0180902
0.00992058
0.630982
0.692376
0.796859
0.838298
0.86753
0.887404
0.891813
0.892016
0.890407
0.882772
0.873388
0.869906
0.869284
0.870053
0.873762
0.87531
0.875642
0.873904
0.871562
0.870762
0.872524
0.876176
0.881757
0.885509
0.886341
0.883765
0.871678
0.831089
0.809243
0.810464
0.833269
0.91054
0.967295
0.989793
0.996422
0.997936
0.995351
0.977934
0.906022
0.804472
0.750227
0.724292
0.726678
0.755167
0.783346
0.801775
0.812648
0.81969
0.828658
0.835158
0.839553
0.842986
0.843953
0.843781
0.841946
0.837826
0.831876
0.824414
0.815088
0.805818
0.796931
0.788704
0.781045
0.774565
0.76599
0.75346
0.738684
0.715091
0.685787
0.665913
0.647152
0.628235
0.605651
0.575168
0.5116
0.436251
0.36454
0.309431
0.269923
0.246098
0.231558
0.226759
0.230098
0.239866
0.257478
0.28551
0.325356
0.3716
0.418363
0.461611
0.491992
0.508983
0.519731
0.532356
0.548837
0.563516
0.576731
0.587332
0.594921
0.600321
0.605667
0.6116
0.615662
0.618117
0.621884
0.630784
0.658945
0.747544
0.846047
0.914185
0.956095
0.979382
0.991062
0.996363
0.998599
0.999486
0.999815
0.999926
0.999961
0.999966
0.999958
0.999922
0.999818
0.999471
0.998079
0.99596
0.995169
0.995324
0.996899
0.998669
0.999492
0.999825
0.999942
0.999975
0.999979
0.999975
0.999966
0.999959
0.999946
0.999914
0.999869
0.999839
0.999828
0.999828
0.999839
0.999884
0.999933
0.999964
0.999981
0.999991
0.999996
0.999998
0.999999
1
1
1
1
1
1
1
1
0.999999
0.999996
0.999983
0.999935
0.999745
0.99901
0.996197
0.985602
0.94661
0.811973
0.60732
0.435273
0.300381
0.200093
0.128823
0.0803725
0.048508
0.0286181
0.0160612
0.63002
0.667067
0.786085
0.836432
0.865129
0.886167
0.89176
0.892969
0.891152
0.884132
0.874223
0.870103
0.868746
0.869222
0.872355
0.874504
0.874048
0.868253
0.864535
0.864847
0.866107
0.867968
0.872111
0.881257
0.886443
0.886385
0.881812
0.857746
0.817545
0.807106
0.814031
0.862993
0.939671
0.97804
0.993476
0.998202
0.999321
0.998219
0.984023
0.897767
0.803843
0.769848
0.764233
0.777195
0.792374
0.804957
0.812579
0.818973
0.82714
0.832452
0.836669
0.839039