/*--------------------------------*- C++ -*----------------------------------*\
  =========                 |
  \\      /  F ield         | OpenFOAM: The Open Source CFD Toolbox
   \\    /   O peration     | Website:  https://openfoam.org
    \\  /    A nd           | Version:  7
     \\/     M anipulation  |
\*---------------------------------------------------------------------------*/
FoamFile
{
    version     2.0;
    format      ascii;
    class       volSymmTensorField;
    location    "0.076";
    object      UPrime2Mean;
}
// * * * * * * * * * * * * * * * * * * * * * * * * * * * * * * * * * * * * * //

dimensions      [0 2 -2 0 0 0 0];

internalField   nonuniform List<symmTensor> 
12225
(
(0.00442406 -0.000144683 0 0.000505198 0 0)
(0.027283 -0.00118331 0 0.000225503 0 0)
(0.039415 -0.0017399 0 0.000198908 0 0)
(0.0525569 -0.00214418 0 0.000185205 0 0)
(0.0752869 -0.00268069 0 0.000178941 0 0)
(0.109016 -0.0033683 0 0.000177962 0 0)
(0.153939 -0.00419594 0 0.000188091 0 0)
(0.210241 -0.00482887 0 0.000174024 0 0)
(0.277909 -0.00583247 0 0.00018748 0 0)
(0.356267 -0.0056133 0 0.000143627 0 0)
(0.446909 -0.00752039 0 0.000172674 0 0)
(0.54324 -0.00487969 0 9.82634e-05 0 0)
(0.660229 -0.0114356 0 0.000253209 0 0)
(0.77327 -0.00120357 0 0.000177241 0 0)
(0.942442 -0.0268695 0 0.00121379 0 0)
(1.1077 0.0122934 0 0.00143802 0 0)
(1.43142 -0.102121 0 0.0137822 0 0)
(1.94548 0.0379766 0 0.00671552 0 0)
(0.00417111 3.85248e-05 0 0.000661697 0 0)
(0.0184341 -0.000558705 0 0.000230724 0 0)
(0.0200664 -0.00092792 0 0.000269508 0 0)
(0.0205865 -0.00115919 0 0.000358027 0 0)
(0.0242997 -0.0016369 0 0.000469398 0 0)
(0.0310015 -0.00251053 0 0.000614029 0 0)
(0.0412135 -0.00374057 0 0.0007626 0 0)
(0.0565564 -0.00548407 0 0.000968868 0 0)
(0.0774021 -0.00734154 0 0.00108878 0 0)
(0.107572 -0.0101516 0 0.0013485 0 0)
(0.144803 -0.0121938 0 0.00134939 0 0)
(0.198067 -0.0168923 0 0.00174829 0 0)
(0.257335 -0.0183038 0 0.00158224 0 0)
(0.347613 -0.0284276 0 0.00259883 0 0)
(0.438597 -0.0287758 0 0.00232949 0 0)
(0.606947 -0.0585049 0 0.00657075 0 0)
(0.760312 -0.0706216 0 0.00733755 0 0)
(1.10733 -0.200375 0 0.04717 0 0)
(0.00409236 0.000119803 0 0.000861453 0 0)
(0.0181148 -0.000851926 0 0.000425161 0 0)
(0.0190159 -0.00133343 0 0.000483996 0 0)
(0.0184105 -0.00147234 0 0.000614124 0 0)
(0.0198638 -0.0017277 0 0.00078134 0 0)
(0.022272 -0.00222637 0 0.000992274 0 0)
(0.0254854 -0.00298964 0 0.00129909 0 0)
(0.0296961 -0.00395338 0 0.00158821 0 0)
(0.0354206 -0.00533289 0 0.00203352 0 0)
(0.0430836 -0.00678215 0 0.00231994 0 0)
(0.0540705 -0.00929196 0 0.00293247 0 0)
(0.0687461 -0.011359 0 0.0031165 0 0)
(0.0902238 -0.0165304 0 0.00426436 0 0)
(0.118757 -0.0197161 0 0.00437508 0 0)
(0.161513 -0.0332918 0 0.00793268 0 0)
(0.219328 -0.0420955 0 0.00895312 0 0)
(0.302418 -0.0865049 0 0.0262939 0 0)
(0.409392 -0.144865 0 0.0545992 0 0)
(0.00395193 -0.000254358 0 0.000981264 0 0)
(0.017906 -0.00112244 0 0.000497505 0 0)
(0.0187454 -0.00152411 0 0.000547491 0 0)
(0.0180661 -0.00167078 0 0.000722835 0 0)
(0.0192639 -0.00192675 0 0.000931032 0 0)
(0.0212171 -0.00242568 0 0.00119827 0 0)
(0.0236812 -0.00313315 0 0.0015224 0 0)
(0.0267595 -0.00404765 0 0.00195595 0 0)
(0.0305414 -0.00511243 0 0.0024007 0 0)
(0.035524 -0.00656561 0 0.00300935 0 0)
(0.0420062 -0.00828366 0 0.00357868 0 0)
(0.051123 -0.0110107 0 0.00450906 0 0)
(0.0633863 -0.0143791 0 0.00545323 0 0)
(0.0812284 -0.0205187 0 0.00746424 0 0)
(0.105627 -0.029159 0 0.0102722 0 0)
(0.140107 -0.0459069 0 0.0172214 0 0)
(0.184796 -0.0751302 0 0.0323455 0 0)
(0.2302 -0.121391 0 0.0660506 0 0)
(0.00450149 -0.000213411 0 0.00113743 0 0)
(0.0177475 -0.00128494 0 0.000643764 0 0)
(0.0183101 -0.00168823 0 0.000686281 0 0)
(0.017618 -0.00184713 0 0.000901132 0 0)
(0.0188485 -0.00212844 0 0.00116119 0 0)
(0.0207401 -0.00266249 0 0.00147087 0 0)
(0.0230406 -0.00343813 0 0.00188856 0 0)
(0.025851 -0.00441176 0 0.00237519 0 0)
(0.0293308 -0.00565371 0 0.00301895 0 0)
(0.0337677 -0.00714814 0 0.00370866 0 0)
(0.0395874 -0.00927824 0 0.00466768 0 0)
(0.0473558 -0.0120088 0 0.00575326 0 0)
(0.0578611 -0.0163267 0 0.00755379 0 0)
(0.0721625 -0.022353 0 0.0100041 0 0)
(0.0913456 -0.032563 0 0.0148147 0 0)
(0.115975 -0.0484299 0 0.0234347 0 0)
(0.14454 -0.0740289 0 0.0408715 0 0)
(0.168043 -0.112569 0 0.0795124 0 0)
(0.00437687 -0.000310637 0 0.00119068 0 0)
(0.0177359 -0.00149035 0 0.000774131 0 0)
(0.0180489 -0.00182963 0 0.000851198 0 0)
(0.0172551 -0.00194367 0 0.00113982 0 0)
(0.0183434 -0.00222734 0 0.00147842 0 0)
(0.0200186 -0.002787 0 0.00187269 0 0)
(0.022069 -0.00359587 0 0.00235844 0 0)
(0.0246058 -0.00464082 0 0.00297405 0 0)
(0.0277701 -0.00595537 0 0.00372306 0 0)
(0.0318006 -0.00765752 0 0.00465797 0 0)
(0.0370596 -0.00994352 0 0.0058314 0 0)
(0.0439464 -0.0131359 0 0.00742319 0 0)
(0.053091 -0.017724 0 0.00970119 0 0)
(0.0649516 -0.0244675 0 0.0132382 0 0)
(0.0802178 -0.0347301 0 0.0192101 0 0)
(0.0979454 -0.0499294 0 0.0296681 0 0)
(0.116675 -0.0723303 0 0.0489916 0 0)
(0.129502 -0.100785 0 0.0828311 0 0)
(0.00363753 -0.00030426 0 0.00143958 0 0)
(0.0169886 -0.00167331 0 0.00104956 0 0)
(0.0172333 -0.00201377 0 0.00107949 0 0)
(0.0164303 -0.00214619 0 0.00138047 0 0)
(0.0175034 -0.00246256 0 0.00177591 0 0)
(0.0191197 -0.00307362 0 0.00223771 0 0)
(0.0210625 -0.00395597 0 0.00281369 0 0)
(0.0234252 -0.00508728 0 0.00353664 0 0)
(0.0263305 -0.00651805 0 0.00445559 0 0)
(0.0299808 -0.0083571 0 0.00561108 0 0)
(0.0346722 -0.0108369 0 0.0071059 0 0)
(0.0406892 -0.014261 0 0.00913984 0 0)
(0.0484191 -0.0190989 0 0.012053 0 0)
(0.0580046 -0.0260231 0 0.0165362 0 0)
(0.0695933 -0.0359076 0 0.0236194 0 0)
(0.0819538 -0.0497965 0 0.0355179 0 0)
(0.0936782 -0.0680512 0 0.0546749 0 0)
(0.0998913 -0.0892888 0 0.0854769 0 0)
(0.0036832 -0.000294692 0 0.00134202 0 0)
(0.0167948 -0.00181285 0 0.00107184 0 0)
(0.0169949 -0.00207979 0 0.00122794 0 0)
(0.0161376 -0.002152 0 0.00160631 0 0)
(0.0171344 -0.00248012 0 0.00208517 0 0)
(0.0186171 -0.00312255 0 0.00264498 0 0)
(0.0203328 -0.00402981 0 0.00333022 0 0)
(0.0223779 -0.00519808 0 0.00419813 0 0)
(0.024886 -0.0066923 0 0.00530197 0 0)
(0.0280321 -0.00863544 0 0.00671466 0 0)
(0.0320327 -0.0112375 0 0.00855889 0 0)
(0.0370498 -0.0147764 0 0.0110743 0 0)
(0.0432719 -0.0196509 0 0.0146391 0 0)
(0.0506317 -0.0263595 0 0.0199485 0 0)
(0.0589667 -0.0354788 0 0.027992 0 0)
(0.0671118 -0.0474191 0 0.0405133 0 0)
(0.073878 -0.0619413 0 0.0592362 0 0)
(0.076224 -0.0774837 0 0.0867895 0 0)
(0.00429299 -0.000522652 0 0.00146621 0 0)
(0.0169218 -0.00224087 0 0.00128692 0 0)
(0.0167126 -0.00247378 0 0.00147983 0 0)
(0.0158418 -0.00249387 0 0.00190218 0 0)
(0.0168682 -0.00282588 0 0.00246255 0 0)
(0.0182509 -0.00350265 0 0.00313144 0 0)
(0.0197651 -0.00445299 0 0.00394643 0 0)
(0.0215522 -0.00566642 0 0.00497118 0 0)
(0.0237303 -0.00720744 0 0.00627501 0 0)
(0.0264156 -0.00919699 0 0.00795587 0 0)
(0.0297395 -0.0118249 0 0.0101542 0 0)
(0.0337779 -0.0153377 0 0.013143 0 0)
(0.0385828 -0.0200378 0 0.0172984 0 0)
(0.0439631 -0.026261 0 0.023298 0 0)
(0.0496241 -0.0342873 0 0.0319652 0 0)
(0.0545722 -0.0441459 0 0.0446631 0 0)
(0.0579995 -0.0553124 0 0.0624463 0 0)
(0.0580342 -0.0663362 0 0.0867648 0 0)
(0.00398502 -0.000419875 0 0.00162328 0 0)
(0.0168325 -0.00222474 0 0.00140187 0 0)
(0.0166694 -0.00246347 0 0.00163199 0 0)
(0.015747 -0.00243919 0 0.00210057 0 0)
(0.0166304 -0.00273653 0 0.00272092 0 0)
(0.0178327 -0.00340134 0 0.00347489 0 0)
(0.0191359 -0.0043514 0 0.00440077 0 0)
(0.0206522 -0.00556632 0 0.00556931 0 0)
(0.0224683 -0.00710481 0 0.00706596 0 0)
(0.024664 -0.00907816 0 0.00900686 0 0)
(0.0273167 -0.0116453 0 0.0115457 0 0)
(0.0304275 -0.0149944 0 0.0149578 0 0)
(0.033949 -0.0193345 0 0.0196071 0 0)
(0.0376261 -0.024843 0 0.0260982 0 0)
(0.0411419 -0.0315952 0 0.0350825 0 0)
(0.0437249 -0.0393945 0 0.0475642 0 0)
(0.0449266 -0.0476535 0 0.0640995 0 0)
(0.0435974 -0.0551819 0 0.0855289 0 0)
(0.00395931 -0.000493761 0 0.00189182 0 0)
(0.0166896 -0.00259363 0 0.00173582 0 0)
(0.0161816 -0.0028676 0 0.00197236 0 0)
(0.015002 -0.00276279 0 0.00248782 0 0)
(0.0157228 -0.0030143 0 0.00318853 0 0)
(0.0168011 -0.00366327 0 0.00405734 0 0)
(0.0179635 -0.00458972 0 0.00512575 0 0)
(0.0192722 -0.0057566 0 0.00646389 0 0)
(0.02078 -0.00721627 0 0.00815971 0 0)
(0.0225357 -0.00907079 0 0.0103476 0 0)
(0.0245772 -0.0114525 0 0.0131941 0 0)
(0.0268634 -0.0144924 0 0.0169658 0 0)
(0.0293038 -0.0183113 0 0.0219875 0 0)
(0.0316433 -0.0229586 0 0.0287674 0 0)
(0.0336218 -0.0283808 0 0.0377853 0 0)
(0.0346788 -0.0342717 0 0.0497466 0 0)
(0.0346396 -0.040107 0 0.064873 0 0)
(0.0327829 -0.044948 0 0.0836512 0 0)
(0.00394455 -0.000516074 0 0.00192405 0 0)
(0.0166318 -0.00265495 0 0.00182417 0 0)
(0.016088 -0.00297142 0 0.00208927 0 0)
(0.0148245 -0.00285699 0 0.00265067 0 0)
(0.0154289 -0.00309343 0 0.00342128 0 0)
(0.0163415 -0.00373858 0 0.00439092 0 0)
(0.0173012 -0.0046503 0 0.00558467 0 0)
(0.0183713 -0.00577247 0 0.00706614 0 0)
(0.0195795 -0.0071519 0 0.00893536 0 0)
(0.0209384 -0.00887978 0 0.011332 0 0)
(0.0224454 -0.0110598 0 0.0144213 0 0)
(0.024027 -0.0137689 0 0.0184526 0 0)
(0.0255775 -0.0170568 0 0.0237029 0 0)
(0.0268862 -0.0208857 0 0.0305887 0 0)
(0.0277696 -0.0251313 0 0.0394408 0 0)
(0.0278623 -0.0294609 0 0.0507553 0 0)
(0.0271449 -0.0334433 0 0.0645481 0 0)
(0.0251499 -0.0363537 0 0.081142 0 0)
(0.00370908 -0.000653674 0 0.00216911 0 0)
(0.0164604 -0.00279083 0 0.00212224 0 0)
(0.0158185 -0.00300884 0 0.00237111 0 0)
(0.0144788 -0.00279311 0 0.00296275 0 0)
(0.0149821 -0.0029655 0 0.00378635 0 0)
(0.0157577 -0.00356107 0 0.00483815 0 0)
(0.0165363 -0.00441698 0 0.00614276 0 0)
(0.0173761 -0.00545816 0 0.00776122 0 0)
(0.0182912 -0.00671215 0 0.00978957 0 0)
(0.0192759 -0.00825057 0 0.0123608 0 0)
(0.0203047 -0.010148 0 0.0156319 0 0)
(0.0213023 -0.0124426 0 0.0198253 0 0)
(0.0221642 -0.0151322 0 0.0251681 0 0)
(0.0227249 -0.0181341 0 0.0319924 0 0)
(0.0228529 -0.0212889 0 0.0405107 0 0)
(0.0223237 -0.0242919 0 0.0510743 0 0)
(0.0211959 -0.0267816 0 0.0635764 0 0)
(0.0191797 -0.0282385 0 0.0782531 0 0)
(0.0038037 -0.000709531 0 0.00263475 0 0)
(0.0163653 -0.00297046 0 0.00259914 0 0)
(0.0155949 -0.00310411 0 0.0028313 0 0)
(0.0141718 -0.00277744 0 0.00345088 0 0)
(0.0145267 -0.00283866 0 0.00433928 0 0)
(0.0150885 -0.0033252 0 0.00547527 0 0)
(0.015596 -0.00405807 0 0.00688058 0 0)
(0.0160981 -0.00493522 0 0.00861683 0 0)
(0.0166013 -0.00595807 0 0.0107749 0 0)
(0.0171069 -0.00717748 0 0.0134843 0 0)
(0.0176064 -0.00864855 0 0.0168848 0 0)
(0.0180392 -0.0103772 0 0.0211645 0 0)
(0.0183136 -0.0123223 0 0.0264921 0 0)
(0.0183004 -0.0143592 0 0.0331108 0 0)
(0.0179174 -0.0163257 0 0.041126 0 0)
(0.0170486 -0.0179461 0 0.0507728 0 0)
(0.015816 -0.0189758 0 0.0618578 0 0)
(0.0140323 -0.0190252 0 0.0745752 0 0)
(0.00407888 -0.000472901 0 0.00268324 0 0)
(0.0164415 -0.00317002 0 0.00286303 0 0)
(0.0155314 -0.00338347 0 0.00317973 0 0)
(0.0139878 -0.0030342 0 0.00388037 0 0)
(0.0142418 -0.00304326 0 0.00484192 0 0)
(0.0146755 -0.00344715 0 0.00605746 0 0)
(0.0150019 -0.00405676 0 0.00756142 0 0)
(0.0152641 -0.00476767 0 0.00940736 0 0)
(0.0154772 -0.00557521 0 0.0116721 0 0)
(0.0156504 -0.006509 0 0.0144655 0 0)
(0.0157708 -0.00758661 0 0.017901 0 0)
(0.0157827 -0.00877146 0 0.0221242 0 0)
(0.0156121 -0.00999184 0 0.0272444 0 0)
(0.0151842 -0.0111113 0 0.0334267 0 0)
(0.0144817 -0.0119962 0 0.0406896 0 0)
(0.0134733 -0.0124257 0 0.0491903 0 0)
(0.0123151 -0.012262 0 0.0586924 0 0)
(0.0108757 -0.0112176 0 0.0693785 0 0)
(0.00425812 -0.000460777 0 0.0028771 0 0)
(0.01637 -0.00320368 0 0.00280215 0 0)
(0.0151876 -0.003423 0 0.00310068 0 0)
(0.0134266 -0.0030018 0 0.00385323 0 0)
(0.0134475 -0.0029266 0 0.00488234 0 0)
(0.0136205 -0.00324051 0 0.00617025 0 0)
(0.0137243 -0.00371995 0 0.00774066 0 0)
(0.0138153 -0.00422709 0 0.00964233 0 0)
(0.0138597 -0.00473735 0 0.0119407 0 0)
(0.0138119 -0.00526525 0 0.014724 0 0)
(0.0136491 -0.00581523 0 0.0180753 0 0)
(0.013353 -0.00634139 0 0.0220965 0 0)
(0.0129146 -0.0067749 0 0.0268422 0 0)
(0.0123339 -0.00699301 0 0.0324135 0 0)
(0.0116422 -0.00690308 0 0.0387716 0 0)
(0.0108625 -0.00633415 0 0.0460194 0 0)
(0.0101328 -0.00523939 0 0.053919 0 0)
(0.00935051 -0.00339701 0 0.0626552 0 0)
(0.00415299 -0.000443524 0 0.00294176 0 0)
(0.016585 -0.00336042 0 0.0029079 0 0)
(0.0152521 -0.00365844 0 0.0032941 0 0)
(0.0133312 -0.00318661 0 0.00410994 0 0)
(0.0132161 -0.00302194 0 0.0051617 0 0)
(0.0132359 -0.00322406 0 0.00646065 0 0)
(0.0131597 -0.00354846 0 0.00802713 0 0)
(0.0130521 -0.00383119 0 0.00988845 0 0)
(0.012894 -0.00403152 0 0.0120899 0 0)
(0.0126578 -0.0041609 0 0.0146968 0 0)
(0.0123362 -0.00422683 0 0.017763 0 0)
(0.0119337 -0.00418929 0 0.0213536 0 0)
(0.0114606 -0.00398795 0 0.0254818 0 0)
(0.0109462 -0.00351857 0 0.0302026 0 0)
(0.0104285 -0.00271642 0 0.0354438 0 0)
(0.00996009 -0.0014602 0 0.0412823 0 0)
(0.00964284 0.00024724 0 0.047492 0 0)
(0.00942914 0.002566 0 0.0542667 0 0)
(0.00401118 -0.000422451 0 0.00303488 0 0)
(0.016443 -0.00340751 0 0.00316332 0 0)
(0.0150733 -0.00369895 0 0.00335542 0 0)
(0.0130286 -0.00325235 0 0.00401248 0 0)
(0.0127067 -0.00306635 0 0.0049656 0 0)
(0.0124559 -0.00313875 0 0.00615588 0 0)
(0.0121076 -0.0032385 0 0.00757092 0 0)
(0.0117816 -0.00323521 0 0.00922709 0 0)
(0.0114836 -0.00310185 0 0.0111556 0 0)
(0.0111893 -0.00284415 0 0.0133982 0 0)
(0.0108868 -0.00245664 0 0.0159817 0 0)
(0.0105808 -0.00190061 0 0.0189387 0 0)
(0.0102855 -0.00112701 0 0.0222612 0 0)
(0.0100447 -6.86098e-05 0 0.0259778 0 0)
(0.00990124 0.00130924 0 0.0300163 0 0)
(0.00991867 0.00307038 0 0.0344382 0 0)
(0.0101694 0.00519554 0 0.0390595 0 0)
(0.0106315 0.00777258 0 0.0440442 0 0)
(0.00397641 -0.000295653 0 0.00299846 0 0)
(0.0165976 -0.00309488 0 0.00303294 0 0)
(0.0148334 -0.00327555 0 0.00306207 0 0)
(0.0125165 -0.00263294 0 0.00360118 0 0)
(0.0120691 -0.00217619 0 0.00440412 0 0)
(0.0117115 -0.00197623 0 0.00538563 0 0)
(0.0112955 -0.00182052 0 0.00654235 0 0)
(0.0109683 -0.00155678 0 0.007885 0 0)
(0.0107395 -0.0011253 0 0.009421 0 0)
(0.0105859 -0.000516772 0 0.0111618 0 0)
(0.010503 0.000265308 0 0.0131084 0 0)
(0.0105057 0.00123482 0 0.0152709 0 0)
(0.0106186 0.0024118 0 0.0176344 0 0)
(0.0108918 0.003832 0 0.0202177 0 0)
(0.0113643 0.00550329 0 0.0229664 0 0)
(0.0120929 0.0074637 0 0.0259276 0 0)
(0.01312 0.00968049 0 0.0289676 0 0)
(0.014435 0.012218 0 0.0322097 0 0)
(0.00413469 -0.000498401 0 0.0034265 0 0)
(0.0159612 -0.00291782 0 0.00325685 0 0)
(0.0140138 -0.00285375 0 0.00312246 0 0)
(0.0117419 -0.00216412 0 0.00347932 0 0)
(0.0112393 -0.00166613 0 0.0040536 0 0)
(0.0108393 -0.00137816 0 0.00477072 0 0)
(0.0104255 -0.00111732 0 0.00562157 0 0)
(0.0101297 -0.000746074 0 0.00660126 0 0)
(0.00996353 -0.000202863 0 0.00770735 0 0)
(0.0099201 0.00052423 0 0.00894384 0 0)
(0.0100113 0.00142815 0 0.0103078 0 0)
(0.0102639 0.00250743 0 0.0118036 0 0)
(0.0107056 0.00376358 0 0.0134221 0 0)
(0.011377 0.00521321 0 0.0151767 0 0)
(0.0123082 0.00685493 0 0.017024 0 0)
(0.0135355 0.00870991 0 0.0189925 0 0)
(0.0150846 0.0107474 0 0.0209912 0 0)
(0.016945 0.0130081 0 0.023099 0 0)
(0.00427419 -0.000339893 0 0.00298576 0 0)
(0.0161199 -0.0025259 0 0.00269769 0 0)
(0.0141452 -0.00236208 0 0.00250837 0 0)
(0.0118979 -0.00162106 0 0.00273378 0 0)
(0.0114136 -0.00108156 0 0.00314264 0 0)
(0.0110175 -0.000739386 0 0.00366777 0 0)
(0.0106376 -0.000416675 0 0.00427636 0 0)
(0.0104326 1.00545e-05 0 0.004951 0 0)
(0.0104109 0.000591219 0 0.00568918 0 0)
(0.0105533 0.00133222 0 0.0065002 0 0)
(0.0108707 0.00222137 0 0.00738966 0 0)
(0.0113937 0.00325217 0 0.00836394 0 0)
(0.0121527 0.00442126 0 0.00941274 0 0)
(0.0131815 0.0057386 0 0.010542 0 0)
(0.0145003 0.00720134 0 0.0117234 0 0)
(0.0161358 0.0088266 0 0.0129803 0 0)
(0.0181052 0.0105894 0 0.0142555 0 0)
(0.0204002 0.0125244 0 0.0156024 0 0)
(0.00390062 -0.000275564 0 0.00291153 0 0)
(0.0160311 -0.00225642 0 0.00221228 0 0)
(0.0140731 -0.00220062 0 0.0019633 0 0)
(0.0117561 -0.00154498 0 0.0021156 0 0)
(0.0112012 -0.00101321 0 0.00242801 0 0)
(0.0107625 -0.000658172 0 0.00283755 0 0)
(0.0103657 -0.000340714 0 0.00330586 0 0)
(0.0101555 5.83977e-05 0 0.00382216 0 0)
(0.0101451 0.000600828 0 0.00439019 0 0)
(0.0103356 0.00129882 0 0.00501536 0 0)
(0.0107517 0.00213722 0 0.00569355 0 0)
(0.0114261 0.00309981 0 0.00642156 0 0)
(0.0123834 0.00417623 0 0.00718967 0 0)
(0.0136519 0.00536937 0 0.00800155 0 0)
(0.0152456 0.006676 0 0.00883655 0 0)
(0.0171845 0.00810803 0 0.00971318 0 0)
(0.0194784 0.00964234 0 0.0105907 0 0)
(0.0221159 0.0113025 0 0.0115065 0 0)
(0.00412458 -0.00030623 0 0.00244475 0 0)
(0.0155943 -0.00196591 0 0.00197775 0 0)
(0.0135607 -0.00173949 0 0.00170863 0 0)
(0.0112782 -0.00106854 0 0.00171044 0 0)
(0.0107386 -0.000565331 0 0.00184689 0 0)
(0.0103015 -0.0002385 0 0.00205407 0 0)
(0.00993639 4.88634e-05 0 0.00229232 0 0)
(0.00982993 0.000403475 0 0.00255204 0 0)
(0.00999752 0.000872402 0 0.00284459 0 0)
(0.0104132 0.00145951 0 0.0031817 0 0)
(0.0110802 0.00215186 0 0.00356305 0 0)
(0.0120219 0.00293748 0 0.00398333 0 0)
(0.0132632 0.00381031 0 0.00443201 0 0)
(0.0148285 0.00477253 0 0.00490946 0 0)
(0.016736 0.00581962 0 0.00540256 0 0)
(0.0189947 0.00695664 0 0.00592542 0 0)
(0.0216195 0.00816926 0 0.0064539 0 0)
(0.0245767 0.00947018 0 0.00700985 0 0)
(0.00433682 -0.000561754 0 0.00214095 0 0)
(0.0155373 -0.00186306 0 0.00159247 0 0)
(0.0130997 -0.00141621 0 0.00139201 0 0)
(0.0107993 -0.000685409 0 0.00144342 0 0)
(0.0104739 -0.000162936 0 0.00157741 0 0)
(0.0102673 0.000176549 0 0.00174948 0 0)
(0.0101027 0.000477502 0 0.00193812 0 0)
(0.0101989 0.000844782 0 0.00214207 0 0)
(0.0106136 0.00132222 0 0.00236654 0 0)
(0.0113387 0.00190721 0 0.00261274 0 0)
(0.0123698 0.00258088 0 0.00287661 0 0)
(0.0137161 0.00332731 0 0.00315762 0 0)
(0.0153936 0.0041377 0 0.00345397 0 0)
(0.0174227 0.00501435 0 0.00376922 0 0)
(0.0198122 0.00595276 0 0.00409468 0 0)
(0.0225652 0.00695881 0 0.00444192 0 0)
(0.0256861 0.00801707 0 0.00479302 0 0)
(0.0291456 0.0091443 0 0.00515701 0 0)
(0.00470756 -0.000421944 0 0.00197564 0 0)
(0.0156541 -0.00159199 0 0.0013015 0 0)
(0.0130471 -0.00122837 0 0.000968582 0 0)
(0.0106952 -0.000673719 0 0.000927368 0 0)
(0.0103174 -0.000281633 0 0.000966477 0 0)
(0.0100418 -4.16451e-05 0 0.00101054 0 0)
(0.00983507 0.000148511 0 0.00106008 0 0)
(0.00994116 0.000375186 0 0.00113693 0 0)
(0.0104028 0.000683026 0 0.00124617 0 0)
(0.0111903 0.00107629 0 0.00137699 0 0)
(0.0122984 0.00153687 0 0.00151767 0 0)
(0.0137454 0.00205005 0 0.00166606 0 0)
(0.0155546 0.00261027 0 0.00182398 0 0)
(0.0177406 0.00321974 0 0.00199538 0 0)
(0.0203065 0.00387641 0 0.00217561 0 0)
(0.0232415 0.00458195 0 0.00236993 0 0)
(0.0265479 0.00532479 0 0.0025677 0 0)
(0.0301798 0.00611725 0 0.00277478 0 0)
(0.00441765 -0.000395465 0 0.00196579 0 0)
(0.0152386 -0.00123 0 0.00112819 0 0)
(0.0123995 -0.00100902 0 0.000774191 0 0)
(0.0101259 -0.00051633 0 0.000774904 0 0)
(0.00989856 -9.38284e-05 0 0.000817098 0 0)
(0.00978254 0.000180297 0 0.000846019 0 0)
(0.00981947 0.000392865 0 0.000867781 0 0)
(0.0102642 0.000624295 0 0.000897506 0 0)
(0.0111162 0.000911283 0 0.000942808 0 0)
(0.0123031 0.00125811 0 0.0010013 0 0)
(0.0138092 0.00165376 0 0.00106863 0 0)
(0.015666 0.0020896 0 0.00114367 0 0)
(0.0179083 0.00256134 0 0.00122693 0 0)
(0.0205528 0.00306922 0 0.00132132 0 0)
(0.0235996 0.00360983 0 0.00142436 0 0)
(0.027033 0.00418593 0 0.00153995 0 0)
(0.0308581 0.00478809 0 0.00166141 0 0)
(0.0350274 0.00542782 0 0.00179223 0 0)
(0.00365524 -0.000415586 0 0.00152966 0 0)
(0.0143817 -0.000679214 0 0.000710494 0 0)
(0.0116381 -0.000430004 0 0.000401562 0 0)
(0.00962384 -0.000167114 0 0.000360666 0 0)
(0.00959874 4.54066e-05 0 0.000344486 0 0)
(0.0096723 0.000162283 0 0.000339054 0 0)
(0.00989936 0.000239695 0 0.000352221 0 0)
(0.0105237 0.000335834 0 0.000374422 0 0)
(0.0115585 0.000473066 0 0.000398629 0 0)
(0.0129594 0.00064829 0 0.000424234 0 0)
(0.0147308 0.000853318 0 0.000453304 0 0)
(0.0169051 0.00108265 0 0.000487704 0 0)
(0.019505 0.00133384 0 0.000527867 0 0)
(0.0225275 0.0016071 0 0.000574894 0 0)
(0.0259567 0.00190038 0 0.000627837 0 0)
(0.0297642 0.00221596 0 0.000688983 0 0)
(0.0339536 0.00254669 0 0.000755484 0 0)
(0.0384738 0.00290221 0 0.000828475 0 0)
(0.00459798 -0.000441027 0 0.00116862 0 0)
(0.014371 -0.000873643 0 0.000495575 0 0)
(0.0112566 -0.000650666 0 0.000362603 0 0)
(0.00952146 -0.000298266 0 0.000337534 0 0)
(0.00970996 -5.17119e-05 0 0.000294072 0 0)
(0.00992964 9.17261e-05 0 0.000251916 0 0)
(0.0104111 0.000204411 0 0.000229553 0 0)
(0.0114316 0.000315296 0 0.000221915 0 0)
(0.0129515 0.000424948 0 0.00022181 0 0)
(0.0148695 0.000537048 0 0.000225763 0 0)
(0.0171585 0.000660392 0 0.000233756 0 0)
(0.0198453 0.000801504 0 0.000247192 0 0)
(0.0229538 0.000962772 0 0.000267018 0 0)
(0.0264892 0.00114355 0 0.000293371 0 0)
(0.0304329 0.00134029 0 0.000325565 0 0)
(0.0347658 0.00154977 0 0.000365099 0 0)
(0.0394814 0.00176624 0 0.000411048 0 0)
(0.0445413 0.00199317 0 0.000462882 0 0)
(0.00361346 -0.000166412 0 0.000864581 0 0)
(0.0132297 5.34223e-05 0 0.000215257 0 0)
(0.0102328 -3.23913e-05 0 0.000137936 0 0)
(0.00874353 2.93206e-06 0 0.000127769 0 0)
(0.00916146 -6.03052e-06 0 0.00012938 0 0)
(0.00963071 -5.3254e-05 0 0.000133361 0 0)
(0.0103458 -0.000110127 0 0.000137789 0 0)
(0.0115206 -0.000163978 0 0.000143281 0 0)
(0.0130751 -0.000210846 0 0.000150824 0 0)
(0.0149013 -0.000248052 0 0.000160243 0 0)
(0.0169653 -0.000272089 0 0.000171042 0 0)
(0.0192953 -0.000280286 0 0.000183167 0 0)
(0.0219051 -0.000269809 0 0.000196745 0 0)
(0.0248255 -0.000238577 0 0.000212175 0 0)
(0.0280287 -0.000185428 0 0.000229229 0 0)
(0.0315566 -0.000111271 0 0.000249313 0 0)
(0.0353554 -1.72872e-05 0 0.00027267 0 0)
(0.0395117 9.79308e-05 0 0.000298474 0 0)
(0.00388494 -0.000297979 0 0.000716612 0 0)
(0.0141519 -3.62653e-05 0 0.000213353 0 0)
(0.0123444 2.23822e-05 0 0.000127911 0 0)
(0.0117083 9.23726e-05 0 9.30407e-05 0 0)
(0.0127139 0.000111257 0 7.38917e-05 0 0)
(0.013667 0.000124084 0 6.19447e-05 0 0)
(0.014619 0.000142885 0 5.39656e-05 0 0)
(0.015799 0.000163559 0 4.90731e-05 0 0)
(0.0172914 0.000182333 0 4.64916e-05 0 0)
(0.0191192 0.000200462 0 4.56931e-05 0 0)
(0.0212937 0.000222925 0 4.6351e-05 0 0)
(0.0238324 0.000255178 0 4.81455e-05 0 0)
(0.0267748 0.000300796 0 5.06913e-05 0 0)
(0.0301749 0.00035995 0 5.37231e-05 0 0)
(0.0341008 0.000430315 0 5.73586e-05 0 0)
(0.038571 0.000509657 0 6.20112e-05 0 0)
(0.0436578 0.000596743 0 6.71944e-05 0 0)
(0.0492981 0.000694779 0 7.22309e-05 0 0)
(0.00258411 -0.00675213 1.30082e-22 0.0178212 -2.79881e-22 1.23518e-37)
(0.028864 -0.0240173 -3.67188e-22 0.0203168 2.35866e-22 1.2179e-37)
(0.0765838 -0.0329644 0 0.0150795 0 0)
(0.127767 -0.032337 0 0.00998405 0 0)
(0.168639 -0.0248954 0 0.00675916 0 0)
(0.196104 -0.0169462 8.53526e-22 0.00635348 -5.65328e-23 1.14717e-37)
(0.217536 -0.012761 0 0.00783956 0 0)
(0.239112 -0.0133624 0 0.0101286 0 0)
(0.270691 -0.0192463 0 0.0121806 0 0)
(0.319837 -0.02873 0 0.0135782 0 0)
(0.391731 -0.0402613 -9.56e-22 0.0139649 1.50435e-23 1.06258e-37)
(0.488579 -0.051641 0 0.0136107 0 0)
(0.60907 -0.0613761 0 0.0126549 0 0)
(0.749106 -0.0684679 0 0.0113033 0 0)
(0.903048 -0.0722762 0 0.00976238 0 0)
(1.06416 -0.0725104 -1.10011e-21 0.0082101 6.88309e-23 9.82143e-38)
(1.22513 -0.0692107 0 0.00679692 0 0)
(1.37915 -0.0626919 0 0.005652 0 0)
(1.52016 -0.0534935 0 0.00488497 0 0)
(1.64207 -0.0424393 0 0.0045793 0 0)
(1.74182 -0.0305636 0 0.0047637 0 0)
(1.81795 -0.0189685 0 0.00538615 0 0)
(1.87135 -0.00859377 0 0.00630945 0 0)
(1.90465 -6.62515e-05 -2.20861e-21 0.00733499 2.22641e-22 8.61956e-38)
(1.92116 0.00645928 2.44155e-21 0.00826794 -2.33558e-22 8.47666e-38)
(1.92405 0.0110799 -2.68729e-21 0.00902931 2.39481e-22 8.33538e-38)
(1.91578 0.0142218 -2.94114e-21 0.00985173 2.41227e-22 8.19573e-38)
(1.89831 0.015986 0 0.0112973 0 0)
(1.8734 0.0156977 0 0.0149011 0 0)
(1.84448 0.0115564 3.69769e-21 0.0215385 -2.06901e-22 7.78649e-38)
(1.81861 0.000586873 3.92743e-21 0.031985 -1.76325e-22 7.6533e-38)
(1.80595 -0.0180524 0 0.0435256 0 0)
(1.81252 -0.0405995 0 0.0515577 0 0)
(1.83629 -0.0607902 4.54816e-21 0.0541282 -1.2866e-22 7.26342e-38)
(1.88088 -0.0780927 0 0.0524329 0 0)
(1.95795 -0.0983066 0 0.0521646 0 0)
(2.07203 -0.127843 -5.14686e-21 0.0531193 1.32781e-22 6.88799e-38)
(2.23052 -0.160716 0 0.0513489 0 0)
(2.43412 -0.170687 -5.51662e-21 0.0503371 1.17683e-22 6.64568e-38)
(2.66294 -0.167658 -1.13904e-20 0.0535853 2.61645e-22 2.61076e-37)
(2.90944 -0.169528 0 0.0490275 0 0)
(3.1705 -0.162007 0 0.0435515 0 0)
(3.43484 -0.149992 0 0.0416475 0 0)
(3.69957 -0.149766 0 0.0400476 0 0)
(3.96592 -0.154387 0 0.0367328 0 0)
(4.23484 -0.146596 -1.33495e-20 0.0359804 2.6292e-22 2.33892e-37)
(4.49749 -0.141884 -1.36094e-20 0.0363957 2.46496e-22 2.29579e-37)
(4.75823 -0.142251 -1.38367e-20 0.0322869 2.17878e-22 2.25327e-37)
(5.00604 -0.133708 0 0.029362 0 0)
(5.2232 -0.119798 1.41964e-20 0.0273851 -1.85413e-22 2.17005e-37)
(5.40459 -0.104972 0 0.0256747 0 0)
(5.54624 -0.0904244 -1.44503e-20 0.0245423 1.57456e-22 2.08923e-37)
(5.64845 -0.0764984 -1.45367e-20 0.0246083 1.46867e-22 2.04972e-37)
(5.71656 -0.0680405 0 0.0255332 0 0)
(5.76654 -0.0672737 0 0.0257515 0 0)
(5.81446 -0.0681226 0 0.025155 0 0)
(5.86175 -0.0661077 -1.46187e-20 0.0241265 9.19766e-23 1.89746e-37)
(5.89965 -0.0619392 0 0.0228521 0 0)
(5.91927 -0.0581695 0 0.0220534 0 0)
(5.91461 -0.0536759 0 0.0221053 0 0)
(5.8886 -0.0414172 0 0.0220102 0 0)
(5.8536 -0.021319 0 0.0204755 0 0)
(5.82648 -0.0104447 0 0.0206865 0 0)
(5.83654 -0.020436 0 0.0209317 0 0)
(5.90188 -0.037261 0 0.0186191 0 0)
(6.01255 -0.0507795 1.41513e-20 0.0158487 -7.69502e-23 1.58758e-37)
(6.15597 -0.05991 0 0.0131423 0 0)
(6.32024 -0.0649245 0 0.010749 0 0)
(6.49513 -0.0665464 -1.39631e-20 0.00874767 5.60421e-23 1.49382e-37)
(6.67241 -0.0655268 -1.38891e-20 0.00711726 4.86601e-23 1.46357e-37)
(6.84556 -0.0624825 0 0.00580173 0 0)
(7.0092 -0.0578503 1.37104e-20 0.00473884 -3.34841e-23 1.40457e-37)
(7.15876 -0.0519171 -1.36008e-20 0.00387346 2.56478e-23 1.37579e-37)
(7.29009 -0.0448626 0 0.00316158 0 0)
(7.39925 -0.0368007 1.33296e-20 0.00257079 -9.23205e-24 1.31967e-37)
(7.48248 -0.0278404 0 0.00208091 0 0)
(7.53635 -0.0181558 0 0.0016825 0 0)
(7.55785 -0.00800314 -1.27585e-20 0.00137163 -1.69983e-23 1.23896e-37)
(7.54481 0.002274 0 0.00114531 0 0)
(7.49645 0.0123394 1.22513e-20 0.000995515 3.35083e-23 1.18741e-37)
(7.41342 0.0219469 0 0.000909372 0 0)
(7.29731 0.0309525 -1.16481e-20 0.000872035 -4.71661e-23 1.1376e-37)
(7.14895 0.0392556 -1.13162e-20 0.00086978 -5.26741e-23 1.11334e-37)
(6.97084 0.0467673 -1.09683e-20 0.000891416 -5.72357e-23 1.08949e-37)
(6.76516 0.0534507 -2.12158e-20 0.000928856 -1.21711e-22 4.26426e-37)
(6.53471 0.0592825 2.04771e-20 0.000977148 1.27102e-22 4.17216e-37)
(6.28207 0.0642751 0 0.00103382 0 0)
(6.01005 0.0684328 0 0.00109739 0 0)
(5.72143 0.0717646 0 0.00116686 0 0)
(5.4192 0.074259 1.74809e-20 0.00124074 1.32812e-22 3.81966e-37)
(5.10645 0.0759003 1.67519e-20 0.00131624 1.30904e-22 3.73538e-37)
(4.7865 0.0766659 -1.60418e-20 0.00138988 -1.27882e-22 3.65261e-37)
(4.46284 0.0765462 0 0.00145747 0 0)
(4.13903 0.075553 1.46954e-20 0.00151419 1.18933e-22 3.49147e-37)
(3.8186 0.0737364 1.40663e-20 0.00155599 1.13286e-22 3.41305e-37)
(3.50487 0.0711822 1.34699e-20 0.00157942 1.07082e-22 3.33605e-37)
(3.20081 0.068013 0 0.00158263 0 0)
(2.90887 0.0643784 0 0.00156605 0 0)
(2.6309 0.0604223 0 0.00153063 0 0)
(2.36806 0.056296 1.14272e-20 0.00148028 8.03657e-23 3.04175e-37)
(2.12106 0.0521023 0 0.00141753 0 0)
(1.89024 0.0479381 0 0.00134695 0 0)
(1.67572 0.0438419 -1.02309e-20 0.00127058 -6.18281e-23 2.83485e-37)
(1.4775 0.0398481 0 0.00119113 0 0)
(1.29547 0.0359588 0 0.00110913 0 0)
(1.12948 0.0321832 -9.27418e-21 0.00102526 -4.55263e-23 2.63919e-37)
(0.979354 0.0285225 0 0.000938922 0 0)
(0.844775 0.0250007 0 0.000850689 0 0)
(0.725335 0.0216483 8.51517e-21 0.000761374 3.11796e-23 2.45427e-37)
(0.620442 0.0184958 8.29918e-21 0.000671956 2.68699e-23 2.39493e-37)
(0.529366 0.0155827 0 0.000584658 0 0)
(0.451199 0.0129148 -7.91383e-21 0.000499684 -1.90521e-23 2.27959e-37)
(0.384882 0.0105313 0 0.000420468 0 0)
(0.329305 0.00843535 7.58127e-21 0.000348164 1.23827e-23 2.1686e-37)
(0.283249 0.00661559 0 0.000283251 0 0)
(0.245506 0.00505994 7.29129e-21 0.000226356 6.86359e-24 2.06181e-37)
(0.214952 0.00375179 7.15951e-21 0.000177812 4.50835e-24 2.00995e-37)
(0.190532 0.00266754 0 0.000137407 0 0)
(0.171281 0.00178085 0 0.000104643 0 0)
(0.15634 0.00106428 0 7.88063e-05 0 0)
(0.144964 0.000490786 0 5.90599e-05 0 0)
(0.136517 3.58555e-05 0 4.44902e-05 0 0)
(0.130466 -0.000322436 0 3.41745e-05 0 0)
(0.126369 -0.000603154 0 2.72758e-05 0 0)
(0.123867 -0.000821619 6.32187e-21 2.31207e-05 -6.48158e-24 1.62983e-37)
(0.122665 -0.000990153 -6.23611e-21 2.11524e-05 7.10872e-24 1.58643e-37)
(0.122525 -0.00111908 0 2.08704e-05 0 0)
(0.123251 -0.00121623 0 2.19181e-05 0 0)
(0.124684 -0.00128689 0 2.40255e-05 0 0)
(0.126695 -0.00133644 0 2.68565e-05 0 0)
(0.129178 -0.00136964 -1.169e-20 3.00662e-05 1.71223e-23 5.52862e-37)
(0.132054 -0.001389 0 3.32963e-05 0 0)
(0.135253 -0.00139591 1.14025e-20 3.59196e-05 -1.68326e-23 5.22451e-37)
(0.138721 -0.00139182 -1.12621e-20 3.72414e-05 1.63243e-23 5.07711e-37)
(0.142415 -0.0013776 0 3.69687e-05 0 0)
(0.146291 -0.00135297 0 3.52111e-05 0 0)
(0.150305 -0.00131724 0 3.22893e-05 0 0)
(0.154405 -0.00126998 1.07107e-20 2.85928e-05 -1.2672e-23 4.51743e-37)
(0.158536 -0.0012115 1.05734e-20 2.45056e-05 -1.15916e-23 4.38475e-37)
(0.16264 -0.00114289 0 2.03679e-05 0 0)
(0.166658 -0.00106619 1.02975e-20 1.64627e-05 -9.4785e-24 4.12774e-37)
(0.170536 -0.000984144 1.01587e-20 1.29937e-05 -8.49592e-24 4.00333e-37)
(0.174227 -0.000899763 -1.00193e-20 1.00651e-05 7.58593e-24 3.88158e-37)
(0.177698 -0.000815835 0 7.68907e-06 0 0)
(0.180922 -0.000734611 0 5.81631e-06 0 0)
(0.183886 -0.000657731 -9.59759e-21 4.37035e-06 5.3569e-24 3.53191e-37)
(0.186585 -0.000586335 0 3.2717e-06 0 0)