/*--------------------------------*- C++ -*----------------------------------*\
  =========                 |
  \\      /  F ield         | OpenFOAM: The Open Source CFD Toolbox
   \\    /   O peration     | Website:  https://openfoam.org
    \\  /    A nd           | Version:  7
     \\/     M anipulation  |
\*---------------------------------------------------------------------------*/
FoamFile
{
    version     2.0;
    format      ascii;
    class       volScalarField;
    location    "0.077";
    object      k_0;
}
// * * * * * * * * * * * * * * * * * * * * * * * * * * * * * * * * * * * * * //

dimensions      [0 2 -2 0 0 0 0];

internalField   nonuniform List<scalar> 
12225
(
1.9318e-05
1.80808e-05
1.68746e-05
1.5321e-05
1.42368e-05
1.28563e-05
1.13558e-05
1.03115e-05
9.03786e-06
7.55677e-06
6.62182e-06
6.33876e-06
6.23553e-06
5.98027e-06
5.08214e-06
4.55147e-06
1.64691e-05
1.76024e-05
1.99804e-05
1.98692e-05
1.97116e-05
1.93894e-05
1.90779e-05
1.87659e-05
1.8268e-05
1.79125e-05
1.75361e-05
1.69317e-05
1.6365e-05
1.58918e-05
1.55455e-05
1.52644e-05
1.50672e-05
1.44915e-05
1.75144e-05
1.77404e-05
1.99985e-05
1.9274e-05
1.88794e-05
1.87025e-05
1.86863e-05
1.8672e-05
1.86328e-05
1.85881e-05
1.85276e-05
1.84176e-05
1.83102e-05
1.82244e-05
1.81681e-05
1.81348e-05
1.81071e-05
1.79631e-05
1.84618e-05
1.82848e-05
2.0055e-05
1.97299e-05
1.91678e-05
1.88529e-05
1.85448e-05
1.78413e-05
1.69537e-05
1.64979e-05
1.63386e-05
1.63053e-05
1.63668e-05
1.67224e-05
1.73457e-05
1.7762e-05
1.79914e-05
1.80392e-05
1.81066e-05
1.80481e-05
2.10941e-05
2.33237e-05
2.30288e-05
2.16066e-05
2.13856e-05
2.16757e-05
2.16981e-05
2.13521e-05
2.00897e-05
1.71357e-05
1.59738e-05
1.60438e-05
1.67285e-05
1.82413e-05
1.92241e-05
1.96777e-05
1.9762e-05
1.96769e-05
2.03085e-05
2.26233e-05
2.88084e-05
2.85248e-05
2.61396e-05
2.50867e-05
2.51575e-05
2.567e-05
2.56964e-05
2.52113e-05
2.42453e-05
2.38635e-05
2.38153e-05
2.3868e-05
2.39191e-05
2.38997e-05
2.37645e-05
2.32795e-05
2.01811e-05
2.28022e-05
2.8551e-05
2.90144e-05
2.65968e-05
2.44432e-05
2.43405e-05
2.46214e-05
2.50298e-05
2.60202e-05
2.82529e-05
2.99917e-05
3.0887e-05
3.11635e-05
3.11731e-05
3.10584e-05
3.08848e-05
3.05121e-05
2.19636e-05
2.56783e-05
2.53511e-05
2.26991e-05
2.16404e-05
2.12554e-05
2.11323e-05
2.12353e-05
2.17716e-05
2.36482e-05
2.66537e-05
2.86997e-05
2.97308e-05
3.00761e-05
3.01142e-05
3.00319e-05
2.97062e-05
2.95714e-05
2.11589e-05
2.27619e-05
2.3126e-05
2.21321e-05
2.12562e-05
2.10885e-05
2.09345e-05
2.06709e-05
2.07105e-05
2.11116e-05
2.24255e-05
2.35082e-05
2.39743e-05
2.40948e-05
2.40942e-05
2.40001e-05
2.39166e-05
2.39928e-05
2.17053e-05
2.11837e-05
2.13072e-05
2.16626e-05
2.19506e-05
2.19478e-05
2.15401e-05
2.08076e-05
2.06549e-05
2.07227e-05
2.11434e-05
2.16109e-05
2.17882e-05
2.1801e-05
2.16754e-05
2.11847e-05
2.0865e-05
2.08159e-05
2.08208e-05
2.04584e-05
2.06197e-05
2.23411e-05
2.35805e-05
2.34691e-05
2.22787e-05
2.11823e-05
2.09351e-05
2.10001e-05
2.1466e-05
2.21723e-05
2.25747e-05
2.27226e-05
2.27269e-05
2.26148e-05
2.2327e-05
2.21592e-05
2.26563e-05
2.08546e-05
2.04714e-05
2.11175e-05
2.26789e-05
2.29303e-05
2.24492e-05
2.17445e-05
2.15472e-05
2.1545e-05
2.166e-05
2.18926e-05
2.20046e-05
2.21165e-05
2.22397e-05
2.24778e-05
2.27574e-05
2.30235e-05
2.20022e-05
2.17172e-05
2.1168e-05
2.11717e-05
2.14672e-05
2.15198e-05
2.14011e-05
2.1299e-05
2.13334e-05
2.16024e-05
2.20546e-05
2.23025e-05
2.2394e-05
2.24329e-05
2.24733e-05
2.25608e-05
2.27564e-05
2.29961e-05
2.09953e-05
2.07568e-05
2.05705e-05
2.0656e-05
2.08621e-05
2.08669e-05
2.07395e-05
2.0643e-05
2.06674e-05
2.08951e-05
2.15191e-05
2.19265e-05
2.21031e-05
2.21675e-05
2.22121e-05
2.22668e-05
2.22915e-05
2.23229e-05
2.03005e-05
2.04125e-05
2.04848e-05
2.04731e-05
2.05273e-05
2.0585e-05
2.0612e-05
2.06667e-05
2.08261e-05
2.0993e-05
2.10765e-05
2.11019e-05
2.11002e-05
2.10696e-05
2.10399e-05
2.10336e-05
2.10384e-05
2.10911e-05
2.02442e-05
2.04995e-05
2.05155e-05
2.05225e-05
2.05669e-05
2.07988e-05
2.12773e-05
2.15169e-05
2.15448e-05
2.1469e-05
2.11605e-05
2.08392e-05
2.06135e-05
2.04608e-05
2.03704e-05
2.03304e-05
2.03221e-05
2.03359e-05
2.06447e-05
2.05446e-05
2.04012e-05
2.03881e-05
2.03922e-05
2.04225e-05
2.05816e-05
2.10908e-05
2.14302e-05
2.15036e-05
2.14765e-05
2.12832e-05
2.10571e-05
2.09447e-05
2.08164e-05
2.06061e-05
2.03101e-05
2.00408e-05
2.00393e-05
2.04018e-05
2.07464e-05
2.07289e-05
2.06787e-05
2.06814e-05
2.07479e-05
2.08434e-05
2.08573e-05
2.08216e-05
2.06636e-05
2.05457e-05
2.04948e-05
2.043e-05
2.02809e-05
2.00794e-05
1.99649e-05
1.99486e-05
2.01847e-05
2.04987e-05
2.06254e-05
2.05594e-05
2.04248e-05
2.03457e-05
2.03253e-05
2.03207e-05
2.03206e-05
2.03237e-05
2.0348e-05
2.04679e-05
2.05959e-05
2.06161e-05
2.06111e-05
2.05995e-05
2.05385e-05
2.0477e-05
2.0011e-05
2.01408e-05
2.03384e-05
2.04106e-05
2.03898e-05
2.03504e-05
2.03354e-05
2.03275e-05
2.03256e-05
2.03264e-05
2.03326e-05
2.03565e-05
2.04601e-05
2.07685e-05
2.09132e-05
2.09014e-05
2.0728e-05
2.05475e-05
2.00599e-05
2.03705e-05
2.07166e-05
2.08219e-05
2.08107e-05
2.06868e-05
2.05575e-05
2.05301e-05
2.05422e-05
2.06406e-05
2.09366e-05
2.11569e-05
2.12556e-05
2.12814e-05
2.12787e-05
2.12389e-05
2.10785e-05
2.09186e-05
2.01478e-05
2.02222e-05
2.03318e-05
2.03356e-05
2.0291e-05
2.0271e-05
2.02942e-05
2.0459e-05
2.08838e-05
2.11465e-05
2.12365e-05
2.12429e-05
2.11946e-05
2.09765e-05
2.07395e-05
2.06095e-05
2.055e-05
2.05318e-05
2.00161e-05
2.01088e-05
2.02902e-05
2.03404e-05
2.03367e-05
2.03233e-05
2.03289e-05
2.03816e-05
2.06123e-05
2.09318e-05
2.1113e-05
2.11886e-05
2.12054e-05
2.11995e-05
2.11502e-05
2.09871e-05
2.0829e-05
2.07286e-05
2.00074e-05
2.01033e-05
2.05108e-05
2.08014e-05
2.08235e-05
2.06811e-05
2.04003e-05
2.02915e-05
2.02745e-05
2.0283e-05
2.03363e-05
2.05819e-05
2.12411e-05
2.15696e-05
2.15936e-05
2.14597e-05
2.10885e-05
2.08764e-05
2.01234e-05
2.01575e-05
2.03601e-05
2.05783e-05
2.06158e-05
2.05781e-05
2.04261e-05
2.02824e-05
2.0207e-05
2.019e-05
2.01952e-05
2.02472e-05
2.05017e-05
2.07299e-05
2.07643e-05
2.07106e-05
2.06501e-05
2.06285e-05
2.00372e-05
2.01366e-05
2.04362e-05
2.09107e-05
2.1066e-05
2.10526e-05
2.08729e-05
2.0527e-05
2.03402e-05
2.02823e-05
2.02816e-05
2.03234e-05
2.0611e-05
2.09493e-05
2.0964e-05
2.08602e-05
2.07837e-05
2.07342e-05
2.00026e-05
2.00274e-05
2.00979e-05
2.01822e-05
2.01505e-05
1.99171e-05
1.98577e-05
1.99385e-05
2.02018e-05
2.08125e-05
2.14247e-05
2.17591e-05
2.1851e-05
2.18274e-05
2.16512e-05
2.09125e-05
2.01171e-05
1.98415e-05
2.03054e-05
1.88566e-05
1.56652e-05
1.46128e-05
1.56776e-05
1.85683e-05
2.48185e-05
3.4459e-05
4.57748e-05
5.51942e-05
6.29455e-05
6.71465e-05
7.0098e-05
7.18053e-05
7.45037e-05
7.71703e-05
8.04097e-05
8.61613e-05
3.22072e-05
0.000101399
0.000149153
0.000210644
0.000278821
0.000343511
0.000404058
0.00045832
0.00050381
0.000543109
0.000576102
0.000597933
0.000608883
0.000613692
0.000617135
0.00062146
0.000628356
0.000641448
0.00266418
0.0025866
0.00255393
0.00246739
0.00225621
0.00212524
0.00203866
0.00197688
0.00194214
0.00192005
0.00188463
0.00179877
0.00165598
0.00153331
0.0014505
0.00140637
0.00138719
0.00137419
0.00911413
0.0104479
0.00787195
0.00688403
0.00673015
0.00673294
0.00673398
0.00671327
0.00663021
0.00649898
0.00691621
0.00783767
0.00796645
0.00779739
0.00746982
0.00719449
0.0069844
0.00683996
0.00672512
0.00667828
0.00667965
0.00669109
0.00671672
0.00676072
0.00684765
0.00694786
0.00706214
0.00718501
0.00732814
0.00742631
0.00747956
0.00758737
0.00771047
0.00778284
0.0077971
0.00766664
0.00780992
0.00792957
0.00477981
0.0032974
0.00437443
0.00553084
0.00678566
0.00738526
0.00758363
0.00733554
0.00667477
0.00640948
0.00635723
0.00667482
0.00741499
0.00906197
0.0133312
0.0240386
0.035557
0.0410312
0.0421879
0.0462166
0.0640901
0.0898305
0.100408
0.101285
0.110754
0.110367
0.0381919
0.00419119
0.00155272
0.00118898
0.00112618
0.00101678
0.000901977
0.000775122
0.000616897
0.000483546
0.00041426
0.000318267
0.000260436
0.000222805
0.000184177
0.000165972
0.00015431
0.000149976
0.000150009
0.0001499
0.000149314
0.000148509
0.000147953
0.000147337
0.000146463
0.000145547
0.000145157
0.000144361
0.000143534
0.000143137
0.000142373
0.000141863
0.000141325
0.000140386
0.000139744
0.000139252
0.00013863
0.000137951
0.000137025
0.000136335
0.000135163
0.000134274
0.000133397
0.000132236
0.000130901
0.000129575
0.000127537
0.000125026
0.000122127
0.000118697
0.000114657
0.000109931
0.000104524
9.84526e-05
9.17024e-05
8.43256e-05
7.67157e-05
6.91526e-05
6.19303e-05
5.54078e-05
4.98525e-05
4.52333e-05
4.12323e-05
3.74439e-05
3.35962e-05
2.96589e-05
2.56557e-05
2.15617e-05
1.74935e-05
1.3704e-05
1.04979e-05
7.98344e-06
6.07651e-06
4.65033e-06
3.5841e-06
2.78188e-06
2.17386e-06
1.71073e-06
1.35646e-06
1.0843e-06
8.74732e-07
7.12713e-07
5.86298e-07
4.86611e-07
4.0719e-07
3.43218e-07
2.91013e-07
2.47755e-07
2.11328e-07
1.80212e-07
1.53359e-07
1.30057e-07
1.09804e-07
9.22232e-08
7.70101e-08
6.39069e-08
5.26772e-08
4.31135e-08
3.50155e-08
2.8213e-08
2.25348e-08
1.78423e-08
1.39829e-08
1.08511e-08
8.31401e-09
6.30554e-09
4.70036e-09
3.47555e-09
2.50089e-09
1.79579e-09
1.24207e-09
9.48544e-10
8.61517e-10
7.65597e-08
4.54002e-06
3.44393e-06
0.0084009
0.00925157
0.00808241
0.00702434
0.00665704
0.00669552
0.00667144
0.00655941
0.00631823
0.00593163
0.00570908
0.00537906
0.00514151
0.00488587
0.00472763
0.00464054
0.00459418
0.00459851
0.00461053
0.00463947
0.00467041
0.00470318
0.00475058
0.00477885
0.0048123
0.00482834
0.00482417
0.00482587
0.00484367
0.0048861
0.00498815
0.0050791
0.00527119
0.00542328
0.00576157
0.00597438
0.00636566
0.00717723
0.00694913
0.00655087
0.00609224
0.00531131
0.0049142
0.00454484
0.00379697
0.00319163
0.00264513
0.00246942
0.00252355
0.00250121
0.00243186
0.00246721
0.00279516
0.00363772
0.0056454
0.00772545
0.00773526
0.00782657
0.00934045
0.0148737
0.0517243
0.0908055
0.0663851
0.030564
0.00771201
0.00164437
0.000833845
0.000608624
0.000495233
0.000396309
0.000339785
0.000302132
0.000272895
0.000257371
0.000249214
0.000240974
0.000237165
0.000234443
0.000231366
0.000228694
0.000224474
0.000222607
0.000220173
0.000217469
0.000214822
0.000212012
0.000208912
0.000205635
0.000202355
0.000199859
0.000198047
0.000196097
0.000194056
0.000192142
0.000190751
0.000190069
0.000188396
0.000186651
0.000186009
0.000185371
0.000183679
0.000181984
0.000180736
0.000177889
0.000176432
0.000173441
0.000171482
0.000169171
0.000167271
0.000165872
0.000165215
0.000165385
0.000166298
0.000167733
0.000169305
0.000170564
0.000170702
0.000170502
0.000169921
0.000168637
0.00016587
0.000161394
0.000154966
0.000146271
0.00013587
0.000125186
0.000115082
0.000105476
9.65967e-05
8.8505e-05
8.10264e-05
7.39341e-05
6.71206e-05
6.06551e-05
5.45297e-05
4.87123e-05
4.32082e-05
3.79965e-05
3.30605e-05
2.84133e-05
2.40955e-05
2.01808e-05
1.67293e-05
1.37498e-05
1.1245e-05
9.20964e-06
7.56306e-06
6.22133e-06
5.12833e-06
4.24362e-06
3.53362e-06
2.96704e-06
2.51387e-06
2.14607e-06
1.84085e-06
1.58278e-06
1.36124e-06
1.169e-06
1.00108e-06
8.53977e-07
7.25012e-07
6.12169e-07
5.13607e-07
4.27935e-07
3.53762e-07
2.9022e-07
2.35908e-07
1.90083e-07
1.51297e-07
1.19346e-07
9.25389e-08
7.13458e-08
5.33898e-08
4.04377e-08
2.83945e-08
2.1933e-08
1.31843e-08
1.53294e-08
5.08581e-07
6.53904e-07
0.00670312
0.00787022
0.00776911
0.00739022
0.00711569
0.00686067
0.00654221
0.00584933
0.00511216
0.00455961
0.0042959
0.00421562
0.00420341
0.00422559
0.00429091
0.00440805
0.00451847
0.00476017
0.00492783
0.00518835
0.00547116
0.00571244
0.00601784
0.00619587
0.00639822
0.00650189
0.00648601
0.00641582
0.00623696
0.00599772
0.00572115
0.00545808
0.00532949
0.00521731
0.00512415
0.00507767
0.00509495
0.00521287
0.00548591
0.00584975
0.0058445
0.00568143
0.00536808
0.00512525
0.00450789
0.00406143
0.00395721
0.00394255
0.00398836
0.00401631
0.00389693
0.00339862
0.00324362
0.00337892
0.00404299
0.00411178
0.00414942
0.00540134
0.0143938
0.0393952
0.0495296
0.0359031
0.013487
0.00475452
0.00132005
0.000564997
0.000412183
0.000356301
0.000329092
0.000314143
0.000306554
0.000302525
0.000300663
0.000305842
0.000310929
0.000316325
0.000318997
0.000322493
0.000323966
0.000324686
0.00032507
0.000325064
0.000323552
0.000321223
0.000320945
0.000320137
0.000312841
0.000305965
0.000303673
0.000299845
0.000292911
0.000290467
0.000288327
0.000284268
0.000283473
0.000283464
0.000283024
0.000281665
0.000281482
0.000281195
0.00027739
0.000271961
0.000266812
0.000254921
0.000244901
0.000230409
0.000216365
0.000201609
0.000187927
0.000176002
0.000166476
0.000159324
0.0001544
0.000151626
0.00015058
0.000151189
0.000154633
0.000159634
0.000165457
0.000170822
0.000173911
0.000175141
0.000175234
0.000174397
0.000171145
0.000163054
0.000151206
0.000137054
0.000122276
0.000109239
9.92736e-05
9.17895e-05
8.50925e-05
7.81292e-05
7.09791e-05
6.43422e-05
5.87009e-05
5.41074e-05
5.03801e-05
4.71867e-05
4.41758e-05
4.10686e-05
3.77234e-05
3.41556e-05
3.04457e-05
2.66795e-05
2.29926e-05
1.95071e-05
1.63079e-05
1.34529e-05
1.09756e-05
8.88497e-06
7.1664e-06
5.78711e-06
4.70103e-06
3.85531e-06
3.19898e-06
2.68764e-06
2.28487e-06
1.96208e-06
1.69745e-06
1.47531e-06
1.28462e-06
1.11816e-06
9.70715e-07
8.39097e-07
7.20817e-07
6.1487e-07
5.19919e-07
4.35312e-07
3.60802e-07
2.94497e-07
2.38876e-07
1.87802e-07
1.50153e-07
1.09985e-07
9.0523e-08
5.46619e-08
6.38799e-08
7.77206e-08
0.00211897
0.00394911
0.00515566
0.00690851
0.00647789
0.00554849
0.00449082
0.00403839
0.0039816
0.00401018
0.0040921
0.00423819
0.00454531
0.00495641
0.00550968
0.00607978
0.00674155
0.00752544
0.00829326
0.00916596
0.010064
0.0108475
0.0117159
0.0124032
0.0129383
0.0134452
0.0135325
0.0134424
0.0131585
0.0125348
0.0115162
0.0100369
0.00849348
0.00723755
0.00633531
0.00569205
0.00530984
0.00514506
0.00499987
0.00493951
0.00498146
0.00512736
0.00512774
0.00506652
0.00489469
0.00472606
0.00466191
0.00459053
0.00455262
0.00454184
0.0044535
0.00403773
0.00390445
0.00417237
0.00413111
0.00406972
0.00480156
0.0154622
0.0290828
0.0333422
0.0188219
0.00821579
0.00287113
0.00103998
0.000495239
0.000389861
0.000369574
0.000364674
0.000366692
0.000396996
0.000434783
0.000486781
0.000543986
0.00060244
0.000658626
0.000716356
0.000764765
0.000803951
0.000824848
0.00084125
0.000848359
0.000850482
0.000844576
0.000830658
0.000823454
0.000816398
0.000788187
0.000769682
0.000762917
0.00074988
0.000728218
0.000720796
0.000716347
0.00070733
0.000705262
0.000706023
0.000707007
0.000705734
0.000705997
0.000705991
0.000697685
0.000685242
0.000669131
0.000641788
0.000608304
0.000564883
0.000513659
0.000456774
0.000396199
0.000336333
0.00028386
0.000241065
0.000204646
0.000176538
0.000157232
0.00014543
0.000138882
0.000136173
0.000135932
0.000138383
0.000146354
0.000157019
0.000167432
0.000174697
0.000178486
0.000180003
0.00018008
0.000178945
0.000174698
0.000165304
0.000152617
0.000139239
0.000127722
0.000117888
0.000108475
9.83808e-05
8.7587e-05
7.7016e-05
6.76274e-05
5.9906e-05
5.37976e-05
4.89974e-05
4.51297e-05
4.19622e-05
3.92306e-05
3.65032e-05
3.34307e-05
2.99712e-05
2.62938e-05
2.25755e-05
1.89732e-05
1.56414e-05
1.26825e-05
1.01349e-05
7.9945e-06
6.24169e-06
4.84979e-06
3.78074e-06
2.98368e-06
2.39981e-06
1.97155e-06
1.65233e-06
1.40816e-06
1.21489e-06
1.05677e-06
9.22937e-07
8.07337e-07
7.05022e-07
6.13888e-07
5.31377e-07
4.56853e-07
3.88837e-07
3.28143e-07
2.72579e-07
2.25059e-07
1.81248e-07
1.4576e-07
1.13095e-07
8.80681e-08
6.72152e-08
0.00242999
0.00394264
0.00429526
0.00381703
0.00337278
0.00341844
0.00353688
0.00377618
0.00407098
0.00449906
0.00500658
0.00555886
0.00609149
0.00666607
0.00729235
0.00803981
0.0088962
0.00983936
0.0108401
0.0118772
0.012929
0.0139687
0.0149913
0.0159238
0.0167103
0.0174566
0.0181382
0.018446
0.0184459
0.0182999
0.0178633
0.0169493
0.0152819
0.0131358
0.0107711
0.00840729
0.00675966
0.00578617
0.00525104
0.00499004
0.00474662
0.00465012
0.00463749
0.00467255
0.00467666
0.00465103
0.00466652
0.00472487
0.00471664
0.00468776
0.0045547
0.0041025
0.00399125
0.00409596
0.00438743
0.00570715
0.0147655
0.0223247
0.0244773
0.0126423
0.0051626
0.00209462
0.00084948
0.00048521
0.00040367
0.000393909
0.000403253
0.000449482
0.000531996
0.000663154
0.00082236
0.00101889
0.001241
0.00144296
0.00153651
0.00157588
0.00157848
0.00152144
0.00142943
0.00138865
0.00135448
0.00128902
0.00123217
0.00119273
0.00116711
0.0011437
0.00110687
0.00108273
0.00107047
0.0010593
0.00103873
0.00102642
0.00102089
0.0010128
0.00100327
0.00099966
0.000996156
0.000989416
0.000984118
0.000980543
0.000972685
0.000965728
0.000956561
0.000945561
0.000932118
0.000915231
0.000891622
0.000858725
0.000813991
0.000754005
0.000674013
0.000575803
0.000472118
0.000370708
0.000283719
0.000222567
0.000179032
0.00015181
0.000137265
0.000130736
0.000128539
0.000128494
0.000131424
0.000141471
0.000155036
0.000167036
0.000174653
0.000178326
0.000179157
0.000178524
0.000174518
0.000161687
0.000145119
0.000131581
0.000121608
0.000113466
0.000105526
9.69231e-05
8.79105e-05
7.94403e-05
7.24248e-05
6.70905e-05
6.3064e-05
5.96426e-05
5.64143e-05
5.34841e-05
5.10305e-05
4.88327e-05
4.63405e-05
4.31044e-05
3.90327e-05
3.43238e-05
2.92385e-05
2.3963e-05
1.87142e-05
1.38548e-05
9.76813e-06
6.66549e-06
4.53808e-06
3.18451e-06
2.35141e-06
1.83245e-06
1.4911e-06
1.24757e-06
1.05897e-06
9.04951e-07
7.75344e-07
6.65772e-07
5.72742e-07
4.93767e-07
4.25621e-07
3.66357e-07
3.13815e-07
2.66611e-07
2.24773e-07
1.86408e-07
1.5405e-07
1.23483e-07
9.99826e-08
7.69336e-08
0.00298334
0.00240932
0.00247179
0.0026859
0.00317717
0.0037316
0.00428973
0.00477362
0.00510069
0.0054096
0.00572463
0.00613017
0.00661467
0.00715086
0.00780522
0.00860968
0.0095099
0.010474
0.0114766
0.0125073
0.0135609
0.014612
0.0156124
0.0165321
0.017404
0.0182076
0.0188648
0.0193251
0.01959
0.0196765
0.0196023
0.0191863
0.0180949
0.016452
0.0145087
0.012379
0.01005
0.00788358
0.00634319
0.00536314
0.00485669
0.00456003
0.00439041
0.00435863
0.0043638
0.00438766
0.00448352
0.0044982
0.00444357
0.00419824
0.00384276
0.00386381
0.00422399
0.0055029
0.0094275
0.0146035
0.0180911
0.0193799
0.0102429
0.00400701
0.00163892
0.000772661
0.000491128
0.000426652
0.00041754
0.000450688
0.000536321
0.000695231
0.000946916
0.00134699
0.00190218
0.00221196
0.00232414
0.00235088
0.00222812
0.00192924
0.00182937
0.00174213
0.00157317
0.00144516
0.00138531
0.00129282
0.00117314
0.00112093
0.00107884
0.00102604
0.000996688
0.000977911
0.000965598
0.000960969
0.000959854
0.000954838
0.000951425
0.000949793
0.000944668
0.000940185
0.0009348
0.000926679
0.000920028
0.000914475
0.000910999
0.000910801
0.000913658
0.000917886
0.000922288
0.000925814
0.000926978
0.000922746
0.000911072
0.000891105
0.000863335
0.000827787
0.000777382
0.000707549
0.000611798
0.000488146
0.000363739
0.000261042
0.000196192
0.000157173
0.000136876
0.000127634
0.00012389
0.000122773
0.000123671
0.00013041
0.00014558
0.000159631
0.000169141
0.000173804
0.000174825
0.000173915
0.00016818
0.000151035
0.000132909
0.000120069
0.000111457
0.000104671
9.78366e-05
9.02522e-05
8.22989e-05
7.49847e-05
6.92378e-05
6.52903e-05
6.25952e-05
6.0302e-05
5.78722e-05
5.53212e-05
5.29537e-05
5.09044e-05
4.89112e-05
4.6469e-05
4.31496e-05
3.88071e-05
3.36037e-05
2.79478e-05
2.23948e-05
1.74358e-05
1.32953e-05
9.98523e-06
7.41539e-06
5.48545e-06
4.1093e-06
3.15388e-06
2.43298e-06
1.8533e-06
1.39623e-06
1.04962e-06
7.94951e-07
6.11469e-07
4.80202e-07
3.85402e-07
3.15572e-07
2.62128e-07
2.19554e-07
1.83406e-07
1.5228e-07
1.24733e-07
1.00891e-07
8.04198e-08
0.00118657
0.0020563
0.00262331
0.00376862
0.00441
0.0046894
0.00488655
0.00512375
0.00537497
0.00558851
0.00589043
0.00628111
0.00672991
0.00715992
0.0075006
0.00778937
0.00810217
0.00843941
0.00885288
0.00937413
0.0099785
0.0106189
0.0112695
0.0119434
0.0126725
0.0134874
0.014386
0.0152986
0.0161002
0.0165435
0.0167386
0.0163131
0.0155624
0.0144768
0.0130869
0.0114983
0.00985054
0.00834663
0.00702376
0.00593006
0.00509608
0.00457225
0.00430944
0.00418302
0.00414302
0.00412691
0.0040829
0.00403869
0.00388857
0.0036813
0.00378957
0.00457957
0.00849301
0.0121592
0.0141983
0.0155292
0.0159923
0.00916216
0.00353998
0.00147186
0.000739214
0.000509361
0.000452113
0.000442394
0.000482262
0.000597116
0.000810552
0.00119257
0.00186696
0.00280708
0.00316238
0.00324537
0.0032132
0.00278053
0.00219272
0.0019591
0.00176912
0.00147716
0.00122963
0.00111137
0.000953633
0.000815909
0.000763486
0.000727908
0.000676206
0.00064899
0.000624401
0.000579249
0.000556925
0.000541363
0.000524344
0.000516856
0.000509069
0.000502309
0.000498291
0.000494119
0.000488289
0.000481331
0.000475988
0.000469575
0.000466095
0.000465852
0.00047294
0.000492078
0.00052712
0.000579025
0.000643843
0.000714371
0.000778725
0.000817529
0.000836537
0.000836452
0.000818593
0.00078658
0.000744282
0.000691803
0.000619226
0.000515481
0.000382289
0.000264686
0.000192059
0.000152358
0.000132377
0.000122811
0.000118418
0.000116862
0.00011756
0.000123631
0.000138947
0.000152765
0.000161493
0.000165155
0.00016549
0.000163258
0.000152005
0.000131527
0.000116204
0.000106781
0.000100717
9.54683e-05
8.9577e-05
8.28085e-05
7.58029e-05
6.95896e-05
6.50337e-05
6.22262e-05
6.03793e-05
5.84514e-05
5.59241e-05
5.30521e-05
5.04576e-05
4.84852e-05
4.68806e-05
4.4997e-05
4.22473e-05
3.8427e-05
3.37423e-05
2.86323e-05
2.35608e-05
1.88862e-05
1.48219e-05
1.14525e-05
8.76725e-06
6.68483e-06
5.06877e-06
3.78153e-06
2.7556e-06
1.96413e-06
1.37713e-06
9.57682e-07
6.6755e-07
4.71991e-07
3.42266e-07
2.56166e-07
1.98448e-07
1.58762e-07
1.29746e-07
1.07595e-07
8.83057e-08
7.3331e-08
0.00157356
0.00300889
0.00395605
0.0045237
0.00471408
0.00488579
0.00506201
0.00526744
0.00545514
0.00551721
0.00554391
0.00562663
0.00572246
0.00578599
0.00584651
0.00590167
0.00595665
0.00601755
0.0060847
0.00615051
0.00621847
0.00629128
0.00636852
0.00646441
0.00658118
0.00672788
0.00692845
0.00718641
0.00749588
0.00784889
0.00826188
0.00866282
0.00894064
0.00905887
0.00892353
0.00853806
0.00791322
0.00710301
0.00624556
0.0054437
0.00479963
0.00436695
0.00407923
0.00394963
0.00386156
0.00382521
0.00380696
0.00365794
0.00346775
0.00365376
0.00570637
0.0109449
0.0129337
0.0136668
0.0141188
0.0137087
0.00822754
0.00331894
0.00141721
0.00074559
0.000534562
0.000481362
0.00047093
0.000521488
0.000688751
0.000964006
0.00141855
0.002188
0.00336406
0.00402691
0.00416961
0.00413977
0.00364515
0.00270024
0.00212997
0.00184985
0.00143371
0.00107368
0.000941934
0.000854121
0.000781335
0.000760378
0.000753258
0.00074678
0.000715416
0.000703493
0.000674374
0.000591297
0.000540419
0.000506156
0.000450718
0.000427616
0.00040538
0.000384466
0.000370201
0.000361241
0.000354625
0.000347258
0.000342331
0.000335179
0.000326198
0.000313217
0.000296487
0.000277722
0.000259325
0.000243809
0.000241641
0.000260831
0.000311606
0.000402358
0.000508406
0.000609668
0.000682001
0.0007149
0.000721341
0.000704505
0.000666712
0.00061865
0.000557697
0.000465576
0.000339341
0.0002318
0.000171852
0.000140408
0.000124129
0.000115739
0.000111776
0.00011081
0.000112197
0.000119681
0.000133495
0.000144138
0.000149993
0.000151681
0.00015116
0.000145964
0.000128147
0.000110644
0.000100474
9.51141e-05
9.13971e-05
8.70801e-05
8.15317e-05
7.5419e-05
6.94979e-05
6.45004e-05
6.1019e-05
5.90343e-05
5.76795e-05
5.58475e-05
5.31755e-05
5.01561e-05
4.74914e-05
4.55437e-05
4.41172e-05
4.25566e-05
4.02735e-05
3.7038e-05
3.29892e-05
2.84768e-05
2.38868e-05
1.95347e-05
1.56294e-05
1.22794e-05
9.50411e-06
7.24524e-06
5.40387e-06
3.91514e-06
2.75094e-06
1.87918e-06
1.25368e-06
8.22584e-07
5.36024e-07
3.51826e-07
2.3578e-07
1.64417e-07
1.19519e-07
9.21167e-08
7.21643e-08
6.02045e-08
0.00220152
0.00369568
0.00441117
0.00470941
0.00484215
0.00500814
0.00516191
0.00526261
0.00534051
0.0054053
0.0054323
0.0054438
0.00545627
0.0054631
0.00546124
0.00545868
0.00546057
0.00546477
0.00547366
0.00549064
0.00552113
0.00554932
0.00557419
0.00558805
0.00559268
0.00557601
0.00554724
0.00549658
0.00542758
0.00534227
0.00524268
0.0051466
0.00508054
0.00505383
0.00505769
0.00507099
0.00505252
0.00492652
0.00469446
0.00439624
0.0041199
0.00388179
0.00374703
0.00370343
0.00367607
0.00360803
0.00333064
0.00326094
0.00374462
0.00727776
0.0115958
0.0130624
0.0132833
0.0132105
0.0121157
0.00726302
0.00315535
0.00141248
0.000768708
0.00056026
0.000507071
0.000497273
0.000544502
0.000711324
0.00095477
0.00137716
0.00213992
0.0035046
0.00512392
0.005614
0.00564012
0.00521768
0.00404066
0.00282852
0.00231412
0.00202627
0.00160442
0.00139771
0.00136593
0.00138304
0.00147879
0.00168771
0.00188318
0.00196404
0.00198111
0.00189366
0.00183836
0.00151446
0.00123555
0.00107496
0.000827371
0.000710729
0.000618065
0.000552115
0.000505517
0.000482802
0.000473364
0.000471344
0.000475019
0.000478546
0.000474463
0.000451754
0.000408315
0.000350106
0.0002873
0.000232136
0.000190028
0.000161864
0.000144887
0.000140334
0.00015503
0.0001991
0.00027655
0.00037774
0.00046983
0.000538171
0.000574564
0.000584326
0.000571517
0.000530278
0.000471892
0.000380138
0.00026645
0.000188999
0.0001479
0.000125876
0.000113728
0.000107467
0.000105075
0.000105155
0.000107687
0.000116161
0.000125702
0.000132212
0.000135102
0.000135406
0.000133677
0.000123837
0.000105839
9.4015e-05
8.80435e-05
8.54699e-05
8.32418e-05
7.95064e-05
7.4181e-05
6.84684e-05
6.35304e-05
5.97909e-05
5.73204e-05
5.60685e-05
5.49678e-05
5.29387e-05
5.00562e-05
4.70401e-05
4.44614e-05
4.25856e-05
4.12883e-05
4.00253e-05
3.82018e-05
3.55231e-05
3.205e-05
2.80397e-05
2.38105e-05
1.96583e-05
1.58144e-05
1.24255e-05
9.54148e-06
7.13589e-06
5.16955e-06
3.61937e-06
2.45105e-06
1.60952e-06
1.02849e-06
6.43241e-07
3.96855e-07
2.44983e-07
1.53229e-07
1.00886e-07
6.85978e-08
5.16637e-08
0.00238019
0.00398468
0.00460292
0.00480715
0.00493249
0.00510355
0.00521333
0.00526335
0.00529731
0.00531296
0.00531667
0.00531416
0.00529993
0.00527452
0.00524216
0.00521304
0.00518562
0.00516243
0.00515444
0.0051728
0.00521999
0.00527757
0.0053422
0.00541095
0.00547202
0.00551296
0.0055316
0.00551678
0.00546739
0.00536433
0.00520135
0.00497016
0.00467505
0.00438103
0.00415631
0.00396389
0.00382315
0.00372552
0.00368419
0.00364567
0.00360497
0.00356244
0.00352921
0.00346462
0.0032369
0.00295922
0.00299548
0.00386396
0.00796562
0.0117261
0.0127645
0.0129591
0.0124993
0.0106703
0.00634702
0.0030144
0.00143677
0.000798985
0.000582012
0.000526482
0.00051917
0.000567425
0.00070262
0.000885757
0.00122308
0.00185967
0.00297387
0.00469365
0.00641211
0.00703127
0.00718375
0.00676216
0.00502773
0.00377327
0.00343696
0.00330786
0.00324434
0.00338013
0.00391434
0.00461782
0.00544694
0.00642597
0.00736822
0.00774856
0.00782333
0.00713218
0.00680112
0.00557821
0.00439265
0.00356632
0.00265202
0.00204763
0.00162372
0.00134643
0.00116287
0.00107453
0.00104856
0.00105164
0.0010847
0.00113235
0.0011654
0.00113923
0.00104071
0.000884649
0.000692685
0.000498127
0.000333932
0.000218762
0.000150473
0.00011522
9.71563e-05
8.92251e-05
9.316e-05
0.000115441
0.000155433
0.000207542
0.000270207
0.000340898
0.000413432
0.000460727
0.000468818
0.000443778
0.000376587
0.00028283
0.000198268
0.000151408
0.000125873
0.000111361
0.000103458
9.99402e-05
9.93349e-05
0.000100078
0.000103595
0.000110075
0.000115783
0.000119289
0.000120296
0.000119852
0.000115697
0.000101593
8.92716e-05
8.27733e-05
7.991e-05
7.84481e-05
7.64272e-05
7.23264e-05
6.70981e-05
6.21373e-05
5.83203e-05
5.57364e-05
5.4253e-05
5.34134e-05
5.21422e-05
4.97293e-05
4.67741e-05
4.38951e-05
4.14087e-05
3.95794e-05
3.84552e-05
3.75825e-05
3.62694e-05
3.40632e-05
3.09433e-05
2.7144e-05
2.30009e-05
1.88563e-05
1.49906e-05
1.15762e-05
8.67377e-06
6.28397e-06
4.39299e-06
2.96456e-06
1.93428e-06
1.22303e-06
7.51042e-07
4.50666e-07
2.64932e-07
1.55593e-07
9.21048e-08
5.72614e-08
0.00277301
0.00432073
0.00471553
0.00487488
0.00503242
0.00513202
0.00517088
0.00518182
0.00516766
0.00510891
0.00503583
0.0049367
0.00478515
0.00459601
0.00438915
0.00416896
0.00395707
0.0037987
0.00370439
0.00366632
0.00366983
0.00375978
0.00389532
0.00411039
0.00440483
0.00471483
0.00505769
0.00534764
0.00552266
0.0056523
0.00570868
0.00568297
0.00556444
0.00530973
0.00487393
0.00436369
0.00385515
0.00355821
0.00337149
0.00324772
0.00315119
0.00303226
0.00299104
0.00294216
0.00288003
0.00291214
0.00409356
0.00851766
0.0115226
0.0122768
0.0124427
0.0117441
0.00928411
0.00568315
0.00289606
0.00146404
0.000832234
0.000602188
0.000539164
0.000528944
0.000569892
0.000661386
0.000784087
0.00097647
0.00136307
0.00214948
0.0036649
0.00652769
0.00941885
0.00966829
0.00929668
0.0090243
0.00758472
0.00658456
0.00657148
0.00732864
0.00873045
0.0105818
0.0130395
0.0161041
0.019618
0.0228301
0.0252258
0.0262335
0.0263187
0.0238419
0.0218189
0.0182839
0.0147004
0.0114383
0.00858
0.00633243
0.00470535
0.00358093
0.00287371
0.00244702
0.00225147
0.00219345
0.00223144
0.00236797
0.00248674
0.002466
0.00231459
0.00205453
0.00169959
0.00128563
0.000871286
0.000537788
0.000313679
0.00018006
0.000111815
8.07312e-05
6.66788e-05
6.1624e-05
6.50511e-05
8.029e-05
0.000100827
0.000122423
0.000153097
0.000217838
0.000308592
0.000372839
0.000383606
0.000356344
0.000280017
0.000199308
0.000150247
0.000123612
0.000108244
9.94815e-05
9.53191e-05
9.42358e-05
9.44494e-05
9.58745e-05
9.94866e-05
0.000103933
0.000107445
0.000108854
0.000108784
0.000106692
9.7246e-05
8.53176e-05
7.85361e-05
7.55696e-05
7.42627e-05
7.28832e-05
6.99324e-05
6.523e-05
6.04539e-05
5.65965e-05
5.3945e-05
5.23675e-05
5.1465e-05
5.06896e-05
4.91337e-05
4.62802e-05
4.31572e-05
4.05131e-05
3.84489e-05
3.68984e-05
3.5887e-05
3.52385e-05
3.4345e-05
3.23971e-05
2.92267e-05
2.53077e-05
2.10577e-05
1.68845e-05
1.30841e-05
9.80644e-06
7.09616e-06
4.95046e-06
3.33095e-06
2.16475e-06
1.36079e-06
8.29052e-07
4.90306e-07
2.82561e-07
1.59891e-07
8.81523e-08
0.00300038
0.00443623
0.00475419
0.00489713
0.00501561
0.00505305
0.00503392
0.0049142
0.00469927
0.00432092
0.00375719
0.00331888
0.00294404
0.00255945
0.00237216
0.00218307
0.00209632
0.00204576
0.00201781
0.00199087
0.00195972
0.00192399
0.00188633
0.00186825
0.00188023
0.00196832
0.00216436
0.00254459
0.0031295
0.00381475
0.00453123
0.00518792