/*--------------------------------*- C++ -*----------------------------------*\
  =========                 |
  \\      /  F ield         | OpenFOAM: The Open Source CFD Toolbox
   \\    /   O peration     | Website:  https://openfoam.org
    \\  /    A nd           | Version:  7
     \\/     M anipulation  |
\*---------------------------------------------------------------------------*/
FoamFile
{
    version     2.0;
    format      ascii;
    class       volScalarField;
    location    "0.077";
    object      nut;
}
// * * * * * * * * * * * * * * * * * * * * * * * * * * * * * * * * * * * * * //

dimensions      [0 2 -1 0 0 0 0];

internalField   nonuniform List<scalar> 
12225
(
0
0
0
0
0
0
0
0
0
0
0
0
0
0
0
0
0
0
0
0
0
0
0
0
0
0
0
0
0
0
0
0
0
0
3.70549e-10
0
0
6.08475e-10
0
0
0
0
0
0
0
0
0
0
0
0
0
0
7.821e-10
0
0
1.58459e-08
5.74637e-09
1.02506e-09
2.30127e-10
0
0
0
0
0
0
0
0
0
0
0
9.64452e-10
0
9.12319e-09
9.76526e-08
1.81946e-07
6.66045e-08
0
0
0
2.20438e-09
3.24002e-09
1.82311e-09
1.58275e-10
0
0
0
0
0
0
0
1.08841e-07
2.9236e-07
5.16937e-07
4.44104e-07
2.33196e-07
2.68297e-08
3.72256e-08
5.87565e-08
3.12986e-08
0
0
0
0
0
0
0
0
0
2.41871e-08
5.40694e-07
1.23704e-06
1.13019e-06
7.69522e-07
1.91482e-07
6.67026e-08
4.01525e-08
6.84472e-09
0
0
0
0
0
0
0
0
0
0
5.55722e-07
1.37097e-06
1.36759e-06
1.11703e-06
5.15674e-07
5.85001e-08
8.95872e-09
0
0
0
0
0
0
0
0
0
0
0
4.32898e-07
8.72933e-07
5.7262e-07
4.39301e-07
6.59039e-07
0
0
0
0
0
0
0
0
0
0
0
0
8.20353e-08
4.94147e-07
3.92666e-07
2.1848e-07
1.76736e-07
2.18413e-07
1.07459e-07
0
0
0
0
0
0
0
0
0
0
0
0
1.18607e-08
2.51654e-07
1.28575e-07
1.2605e-07
1.40231e-07
4.27074e-08
0
0
0
0
0
0
0
0
0
0
0
0
3.29838e-07
6.81179e-07
4.44134e-08
1.63517e-07
1.92412e-07
3.52701e-08
0
0
0
0
0
0
0
0
0
0
0
0
1.41557e-07
4.15608e-07
0
0
0
0
0
0
0
0
0
0
0
0
0
0
0
1.77712e-08
5.01416e-07
4.83874e-07
0
0
0
0
0
2.05489e-09
4.17128e-09
0
0
0
0
0
0
0
0
0
2.13993e-07
4.95423e-07
0
0
0
0
0
0
0
0
0
0
0
0
0
0
0
0
0
0
0
0
0
0
4.66886e-08
2.18541e-07
0
0
0
0
0
0
0
0
0
0
0
0
0
0
0
0
0
0
2.67232e-07
0
0
0
0
0
0
0
0
4.09722e-08
9.88594e-08
0
0
0
3.72303e-08
0
0
0
0
4.20087e-08
9.9904e-08
9.34221e-08
3.94355e-08
0
0
0
0
4.23072e-07
4.47507e-07
2.93094e-07
7.47107e-08
2.24497e-07
2.87056e-07
0
0
0
0
0
1.06718e-07
2.35168e-07
4.60193e-07
7.56223e-07
7.65809e-07
4.71687e-07
4.4341e-08
0
0
0
9.8126e-08
1.59259e-07
0
0
0
0
0
0
0
0
3.38723e-07
4.81592e-07
4.41087e-07
2.51121e-07
0
0
0
0
0
0
0
0
0
0
0
0
0
0
0
0
0
0
0
3.31788e-07
3.35329e-07
0
0
0
0
0
0
0
0
0
7.97793e-08
6.25857e-08
0
0
0
0
0
0
0
0
0
0
0
0
0
0
0
0
0
0
0
1.69673e-08
2.33664e-08
1.33083e-08
0
0
0
0
0
0
0
0
0
0
0
0
0
7.5307e-08
1.44634e-07
1.50715e-07
9.97623e-08
0
0
0
0
0
0
3.01812e-09
0
0
0
0
0
0
0
9.29702e-08
2.312e-07
2.36126e-07
3.9769e-08
0
0
0
0
0
0
6.97595e-09
0
0
0
0
0
0
0
7.54773e-09
1.55571e-07
2.25052e-07
8.9116e-08
0
0
0
0
0
0
1.11626e-08
0
0
0
0
0
0
0
1.78574e-09
4.56409e-09
4.97071e-09
3.7701e-09
1.70379e-09
0
6.49163e-09
0
0
0
0
0
0
0
0
0
0
0
0
0
0
0
0
0
7.78039e-09
0
0
0
0
0
0
0
0
0
0
0
0
0
0
0
0
0
6.24273e-08
0
0
0
0
0
0
0
0
0
0
0
0
0
0
0
0
0
0
2.28784e-06
5.20624e-06
1.64914e-06
0
0
0
0
0
0
6.43479e-07
7.12109e-07
3.92844e-07
2.52731e-08
0
0
0
0
0
0
0
0
0
0
0
0
0
0
0
0
0
4.25714e-09
0
0
0
0
1.48471e-07
4.62604e-07
0
0
0
0
2.96571e-07
2.7996e-06
5.24657e-06
7.37207e-06
5.32449e-06
0
0
0
0
0
0
4.17877e-06
5.43908e-06
2.73874e-06
8.07424e-07
2.50023e-06
7.75217e-06
2.03096e-05
3.39435e-05
4.19583e-05
4.86614e-05
4.07839e-05
1.34919e-05
1.71953e-06
2.53417e-07
2.54134e-08
1.34686e-08
3.44953e-08
4.82184e-08
5.10249e-08
4.57937e-08
3.80217e-08
3.14659e-08
2.37585e-08
1.79105e-08
1.31998e-08
8.95508e-09
5.61799e-09
2.63376e-09
0
0
0
0
0
0
0
0
0
0
0
0
0
0
0
0
0
0
0
0
0
0
0
0
0
0
0
0
0
0
0
0
0
0
0
0
0
0
0
0
0
0
0
0
0
0
0
0
0
0
0
0
0
0
0
0
0
0
0
0
0
0
0
0
0
0
0
0
0
0
0
0
0
0
0
0
0
0
0
0
0
0
0
0
0
0
0
0
0
0
0
0
0
0
0
0
3.18434e-11
1.11886e-09
0
0
0
1.6409e-07
0
0
0
0
0
0
1.82997e-07
7.61252e-07
8.7519e-07
5.82914e-07
1.03447e-07
0
0
0
0
0
0
0
0
0
0
0
0
0
0
0
0
0
2.20031e-08
1.77695e-08
0
0
0
3.32363e-07
6.69134e-07
0
0
0
0
0
0
0
5.33644e-07
7.23795e-07
2.37074e-07
0
0
0
0
0
1.1821e-06
1.83322e-06
1.48653e-06
1.60638e-06
2.23217e-06
1.61955e-06
1.72211e-06
3.02053e-06
4.68423e-06
4.32254e-06
3.92944e-06
2.31623e-06
7.84326e-07
2.24374e-07
4.59422e-08
2.81579e-08
3.95296e-08
4.60194e-08
4.57772e-08
4.17467e-08
3.68136e-08
3.17058e-08
2.65058e-08
2.17137e-08
1.71648e-08
1.27814e-08
8.5556e-09
4.42028e-09
3.74925e-10
0
0
0
0
0
0
0
0
0
0
0
0
0
0
0
0
0
0
0
0
0
0
0
0
0
0
0
0
0
0
0
0
0
0
0
0
0
0
0
0
0
0
0
0
0
0
0
0
0
0
0
0
0
0
0
0
0
0
0
0
0
0
0
0
0
0
0
0
0
0
0
0
0
0
0
0
0
0
0
0
0
0
0
0
0
0
0
0
0
0
0
0
0
0
4.20565e-13
7.77053e-12
4.91096e-10
0
1.22436e-06
2.47381e-06
1.2021e-06
9.21824e-08
0
0
0
0
0
0
0
0
0
0
0
0
0
0
0
0
0
0
0
0
0
0
0
0
0
0
0
8.49685e-08
3.30536e-07
3.76403e-07
3.2803e-07
7.1291e-08
3.84741e-07
9.22383e-07
0
0
0
0
0
0
0
1.62091e-07
2.80457e-07
8.31959e-08
0
0
0
0
0
3.565e-07
1.23003e-06
2.65244e-06
0
0
0
0
0
3.61152e-07
4.30511e-07
4.12113e-07
4.38372e-07
2.66603e-07
1.12816e-07
7.45907e-08
1.11361e-07
1.54134e-07
1.72938e-07
1.68064e-07
1.50759e-07
1.30716e-07
1.10399e-07
9.15638e-08
7.42122e-08
5.86756e-08
4.43157e-08
3.09806e-08
1.8437e-08
6.3741e-09
0
0
0
0
0
0
0
0
0
0
0
0
0
0
0
0
0
0
0
0
0
0
0
0
0
0
0
0
0
0
0
0
0
0
0
0
0
0
0
0
0
7.73296e-09
1.27539e-08
1.37937e-08
1.27174e-08
1.07664e-08
8.6737e-09
6.76546e-09
5.08244e-09
3.6733e-09
2.53146e-09
1.51611e-09
5.00726e-10
0
0
0
0
0
0
0
0
0
0
0
0
0
0
0
0
0
0
0
0
0
0
0
0
0
0
0
0
0
0
0
0
0
0
0
0
0
0
0
0
0
4.09558e-12
0
2.49173e-10
0
1.99692e-06
1.61714e-06
1.30682e-06
1.32084e-06
1.13347e-06
7.55218e-07
0
0
0
0
0
0
0
0
0
0
0
0
0
0
0
0
0
0
0
0
0
0
0
0
0
0
0
0
0
0
0
0
0
0
2.95843e-07
0
0
0
6.39303e-07
9.79845e-07
1.07564e-06
9.41253e-07
6.58558e-07
5.92616e-07
4.2143e-07
0
1.24268e-07
1.79104e-06
1.80255e-06
1.32883e-07
0
0
0
0
6.29174e-08
2.40746e-07
6.99478e-08
0
3.12495e-08
2.23406e-08
4.40523e-08
1.59635e-07
2.92247e-07
3.87132e-07
4.29066e-07
4.36546e-07
4.20171e-07
3.90375e-07
3.56284e-07
3.25688e-07
2.98731e-07
2.74629e-07
2.46965e-07
2.09177e-07
1.49212e-07
6.06774e-08
0
0
0
0
0
0
0
0
0
0
0
0
0
0
0
0
0
0
0
0
0
0
0
0
0
0
0
0
0
0
0
0
0
0
0
0
0
0
0
0
0
0
0
0
0
0
0
1.8777e-08
3.95934e-08
4.84147e-08
4.63974e-08
3.77921e-08
2.70107e-08
1.70055e-08
8.90796e-09
2.93094e-09
0
0
0
0
0
0
0
0
0
0
0
0
0
1.79394e-11
4.385e-11
5.40528e-11
6.9972e-11
9.62213e-11
1.25693e-10
1.48534e-10
1.55264e-10
1.42084e-10
1.06802e-10
5.38997e-11
0
0
0
0
0
0
0
0
0
0
0
0
0
0
0
0
3.70004e-10
0
1.48429e-07
5.38992e-07
6.66171e-07
5.71408e-07
1.3256e-07
0
0
0
0
0
0
3.95893e-08
8.81067e-08
6.52955e-08
0
0
0
0
0
0
0
0
0
0
0
0
0
0
0
0
0
0
0
0
0
0
0
0
0
0
6.78115e-09
3.71265e-07
9.59218e-07
2.15211e-06
3.03202e-06
3.26226e-06
3.64034e-06
3.5954e-06
3.33311e-06
3.35191e-06
2.72629e-06
0
1.01344e-07
2.89489e-07
1.67614e-07
8.71945e-09
0
0
0
0
6.72247e-08
2.76669e-08
0
0
4.13936e-08
2.10566e-07
3.11336e-07
3.35687e-07
3.21249e-07
3.03413e-07
2.88409e-07
2.79087e-07
2.70605e-07
2.5891e-07
2.41964e-07
2.2923e-07
2.23213e-07
2.20079e-07
2.15471e-07
2.03354e-07
1.56952e-07
4.70005e-08
0
0
0
0
0
0
0
0
0
0
0
0
0
0
0
0
0
0
0
0
0
0
0
0
0
0
0
0
0
0
0
0
0
0
0
0
0
0
0
0
0
0
0
0
0
0
0
0
0
0
0
0
0
0
0
0
0
0
5.09566e-09
8.79775e-09
6.50789e-09
1.31731e-09
0
0
0
0
0
0
0
0
0
0
0
5.55794e-10
1.16611e-09
1.30126e-09
1.25477e-09
1.1777e-09
1.1097e-09
1.04759e-09
9.66356e-10
8.49195e-10
6.91543e-10
4.93785e-10
2.92493e-10
6.82597e-11
0
0
0
0
0
0
0
0
0
0
5.76689e-10
0
0
0
0
0
0
0
0
0
0
0
0
0
0
0
0
0
0
0
0
0
0
0
0
0
0
0
0
0
0
0
0
0
0
0
0
0
0
0
0
0
6.29823e-08
2.08522e-07
3.71697e-07
6.21986e-07
8.41621e-07
9.49901e-07
1.13632e-06
8.56907e-07
2.76439e-07
0
0
0
0
0
0
0
0
0
0
0
0
0
0
2.20539e-07
5.01602e-07
6.44025e-07
6.64847e-07
6.27329e-07
5.81923e-07
5.55172e-07
5.36675e-07
4.77917e-07
4.12239e-07
3.59928e-07
3.19213e-07
2.89781e-07
2.96528e-07
3.24636e-07
3.61315e-07
4.07665e-07
4.30157e-07
2.95967e-07
0
0
0
0
0
0
0
0
0
0
0
0
0
0
0
0
0
0
0
0
0
0
0
0
0
0
0
0
0
0
0
0
0
0
0
0
0
0
0
0
0
0
0
0
0
0
0
0
0
0
0
0
0
0
0
0
0
0
0
0
0
0
0
0
0
0
0
0
0
0
0
0
0
0
0
0
0
0
0
0
1.09658e-08
9.74896e-09
0
0
0
0
0
0
0
0
0
0
0
0
0
0
0
0
0
0
0
0
0
0
0
0
0
0
0
0
0
0
0
0
0
0
0
0
0
0
0
0
0
0
0
0
0
0
0
0
0
0
0
0
0
0
0
0
1.36852e-08
1.2612e-07
2.09881e-07
2.93144e-07
4.04936e-07
3.81605e-07
5.30635e-08
0
0
0
0
0
0
0
0
0
0
0
0
0
0
0
4.57573e-07
8.57531e-07
1.0781e-06
1.05871e-06
9.36971e-07
8.46062e-07
8.05198e-07
7.69039e-07
6.48123e-07
5.27538e-07
4.26247e-07
3.24555e-07
2.36297e-07
1.81928e-07
1.42283e-07
1.13439e-07
1.00991e-07
1.05855e-07
1.16785e-07
1.1528e-07
0
0
0
8.40753e-09
2.73074e-08
2.88101e-08
2.17281e-08
9.51185e-09
0
0
0
0
0
0
0
0
0
0
0
0
0
0
0
0
0
0
0
0
0
0
0
0
0
0
0
0
0
0
0
0
0
0
0
0
0
0
0
0
0
0
0
0
0
0
0
0
0
0
0
0
0
0
0
0
0
0
0
0
0
0
0
0
0
0
0
0
0
0
0
0
0
0
0
0
0
0
0
0
0
0
0
0
0
0
0
0
0
0
0
0
0
0
0
0
0
0
0
0
0
0
0
0
0
0
0
0
0
0
0
0
1.27856e-09
2.93774e-08
4.35673e-08
4.62996e-08
4.18548e-08
3.66185e-08
3.73132e-08
4.65855e-08
6.21177e-08
7.7963e-08
9.0176e-08
9.76349e-08
9.52038e-08
7.47552e-08
2.74156e-08
0
0
0
0
0
9.49327e-09
1.53302e-07
1.43236e-07
0
0
0
0
0
0
0
0
1.04385e-08
7.3258e-08
3.67378e-08
0
0
0
0
2.99669e-07
9.0777e-07
1.37672e-06
1.55225e-06
1.37057e-06
1.12725e-06
9.67242e-07
8.84753e-07
8.36258e-07
7.09123e-07
5.59933e-07
4.28157e-07
3.02103e-07
1.80313e-07
8.34223e-08
2.41097e-09
0
0
0
0
0
0
7.47274e-08
2.55377e-07
1.68395e-07
1.25238e-07
9.87473e-08
7.42832e-08
5.47897e-08
3.75025e-08
2.08254e-08
6.067e-09
0
0
0
0
0
0
0
0
0
0
0
0
0
0
0
0
0
0
0
0
0
0
0
0
0
0
0
0
0
0
0
0
0
0
0
0
0
0
0
0
0
0
0
0
0
0
0
0
0
0
3.90663e-09
6.07453e-09
1.86547e-09
0
0
0
0
0
0
2.91318e-09
3.96888e-09
0
0
0
0
0
0
0
0
0
0
0
0
0
0
0
0
0
0
0
0
0
0
0
0
0
0
0
0
0
0
0
0
0
0
0
0
0
0
0
0
0
0
0
0
0
0
0
0
6.07465e-09
1.05635e-07
1.91591e-07
2.62239e-07
3.16602e-07
3.55326e-07
3.79465e-07
3.90738e-07
3.89674e-07
3.74727e-07
3.42875e-07
2.92142e-07
2.22003e-07
1.33415e-07
3.23119e-08
0
0
0
0
0
0
0
0
0
0
0
0
0
0
0
1.0611e-07
2.20541e-07
2.87276e-07
3.11116e-07
2.29608e-07
1.25929e-07
2.55855e-07
6.71277e-07
6.28172e-07
2.34671e-07
0
0
2.06071e-07
5.79397e-07
6.83963e-07
6.97083e-07
7.12765e-07
6.95407e-07
5.80522e-07
4.43047e-07
3.02337e-07
1.74759e-07
7.88443e-08
6.89511e-09
0
0
0
0
0
8.18875e-08
1.91627e-07
0
0
0
0
0
0
0
0
0
0
0
0
0
0
0
0
0
0
0
0
0
0
0
0
0
0
0
0
0
0
0
0
0
0
0
0
0
0
0
0
0
0
0
0
0
0
0
0
0
0
0
0
0
0
0
0
0
0
0
7.62162e-09
1.49583e-08
1.27843e-08
6.44437e-09
0
0
0
0
0
0
0
0
1.88803e-08
1.93143e-09
0
0
0
0
0
0
0
0
0
0
0
0
0
0
0
0
0
0
0
0
0
0
0
0
0
0
0
0
0
0
0
0
0
0
0
0
0
0
0
0
0
0
0
0
0
0
8.64797e-08
2.5871e-07
4.18353e-07
5.59326e-07
6.76639e-07
7.67447e-07
8.30332e-07
8.65738e-07
8.7285e-07
8.49779e-07
7.92132e-07
6.96866e-07
5.68316e-07
4.13964e-07
2.37408e-07
5.07221e-08
0
0
0
0
0
0
0
0
0
0
0
0
1.68973e-07
2.79325e-07
2.9258e-07
2.92358e-07
3.35827e-07
4.4397e-07
8.3115e-07
1.50318e-06
5.43705e-07
0
0
0
0
0
0
8.73663e-08
3.12689e-07
4.04621e-07
4.53613e-07
4.5977e-07
3.85313e-07
2.69154e-07
1.48871e-07
7.18874e-08
5.60678e-08
6.36622e-08
7.71209e-08
1.15078e-07
2.0116e-07
3.44927e-07
5.09506e-07
5.36128e-07
8.87008e-08
0
0
0
0
0
0
0
0
0
0
0
0
0
0
0
0
0
0
0
0
0
0
0
0
0
0
0
0
0
0
0
0
0
0
0
0
0
0
0
0
0
0
0
0
0
0
0
0
0
0
0
2.69873e-09
4.23524e-09
5.6095e-09
1.04252e-08
1.59421e-08
1.81113e-08
1.66804e-08
1.67198e-08
2.28006e-08
3.3058e-08
3.53519e-08
2.37972e-08
8.31504e-09
0
0
0
0
0
0
0
0
1.71832e-08
1.76765e-08
0
0
0
0
0
0
0
0
0
0
0
0
0
0
0
0
0
0
0
0
0
0
0
0
0
0
0
0
0
0
0
0
0
0
0
0
0
0
0
0
0
0
0
0
5.10057e-08
2.41679e-07
4.25461e-07
6.10417e-07
8.01631e-07
9.90391e-07
1.16782e-06
1.31346e-06
1.41327e-06
1.47831e-06
1.50908e-06
1.50871e-06
1.47494e-06
1.39899e-06
1.26664e-06
1.0816e-06
8.45774e-07
5.81375e-07
2.94083e-07
4.60651e-08
0
7.73911e-08
4.02745e-07
8.1308e-07
1.31311e-06
1.12538e-06
4.35168e-07
5.14673e-07
5.02508e-07
4.19052e-07
3.22989e-07
2.34576e-07
2.22932e-07
4.46663e-07
1.08513e-06
1.12404e-06
2.72032e-07
0
0
0
0
0
0
0
0
1.03787e-07
2.0268e-07
2.56568e-07
2.55404e-07
1.7613e-07
8.26569e-08
3.52551e-08
7.7071e-08
1.92606e-07
3.31529e-07
4.75564e-07
6.42989e-07
8.20325e-07
8.93583e-07
6.63239e-07
1.21722e-07
0
0
0
0
5.47128e-08
2.02706e-07
2.34717e-07
1.61782e-07
2.62359e-08
0
0
0
0
0
0
0
0
0
0
0
0
0
0
0
0
0
0
0
0
0
0
0
0
0
0
0
0
0
0
0
0
0
0
0
0
0
0
0
0
0
0
0
0
1.41591e-08
2.29056e-08
3.31374e-08
4.40555e-08
5.16434e-08
5.34253e-08
4.84358e-08
4.18181e-08
4.05798e-08
4.54957e-08
4.5277e-08
2.90207e-08
7.17059e-09
0
0
0
0
0
0
0
0
1.23431e-08
2.57726e-08
8.28495e-09
0
0
0
0
0
0
0
0
0
0
0
0
0
0
0
0
0
0
0
0
0
0
0
0
0
0
0
0
0
0
0
0
0
0
0
0
0
0
2.71868e-09
1.09925e-07
1.32028e-07
4.72593e-08
0
0
0
0
0
0
3.26115e-08
4.49651e-07
8.79749e-07
1.2484e-06
1.5196e-06
1.694e-06
1.76824e-06
1.77254e-06
1.75143e-06
1.68649e-06
1.5727e-06
1.37799e-06
1.15953e-06
9.98111e-07
9.73562e-07
1.14214e-06
1.54883e-06
2.36747e-06
2.58333e-06
1.25619e-06
1.03066e-06
8.00783e-07
5.69215e-07
3.90984e-07
2.52508e-07
2.18509e-07
4.63493e-07
9.52712e-07
7.41333e-07
2.18219e-07
3.57196e-09
0
0
0
0
0
0
0
0
0
8.31223e-08
1.11298e-07
5.90368e-08
0
0
0
7.33929e-08
3.21862e-07
5.41177e-07
6.97986e-07
7.76686e-07
7.34893e-07
4.32388e-07
0
0
0
0
0
0
0
8.33403e-08
4.42436e-07
6.42768e-07
6.58629e-07
5.11195e-07
2.6203e-07
0
0
0
0
0
0
0
0
0
0
0
0
0
0
0
0
0
0
0
0
0
0
0
0
0
0
0
0
0
0
0
0
0
0
0
0
0
0
0
0
0
0
2.48563e-08
4.46591e-08
6.08531e-08
7.57997e-08
8.63476e-08
8.91976e-08
8.29899e-08
6.91577e-08
5.46533e-08
4.80706e-08
5.05603e-08
4.98601e-08
3.08709e-08
4.27825e-09
0
0
0
0
0
0
0
0
1.18352e-08
2.60578e-08
1.45543e-08
0
0
0
0
0
0
0
0
0
0
0
0
0
0
0
0
0
0
0
0
0
0
0
0
0
0
0
0
0
0
0
0
0
2.14875e-08
4.82466e-07
9.14041e-07
1.28949e-06
1.56378e-06
1.6173e-06
1.18197e-06
0
0
0
0
0
0
0
0
0
0
0
2.56194e-07
7.13163e-07
1.04796e-06
1.27813e-06
1.42677e-06
1.48956e-06
1.4147e-06
1.24045e-06
1.01986e-06
7.90933e-07
6.82153e-07
8.71309e-07
1.89802e-06
2.49292e-06
1.52888e-06
1.25179e-06
9.66568e-07
6.74014e-07
4.51731e-07
3.05713e-07
2.83594e-07
4.96461e-07
7.66746e-07
5.61908e-07
2.18082e-07
4.89573e-08
0
0
0
0
0
0
0
0
0
0
2.37667e-08
4.01886e-08
0
0
0
0
0
1.51128e-07
4.49345e-07
4.72186e-07
2.22112e-07
0
0
0
0
0
0
0
0
0
0
0
0
2.12132e-07
4.72882e-07
5.82552e-07
5.55409e-07
3.94332e-07
1.10275e-07
0
0
0
0
0
0
0
0
0
0
0
0
0
0
0
0
0
0
0
0
0
0
0
0
0
0
0
7.20185e-09
2.35119e-08
3.68859e-08
4.56573e-08
4.48179e-08
2.39114e-08
0
0
0
0
0
0
5.09527e-08
9.15096e-08
1.15451e-07
1.30706e-07
1.3909e-07
1.3696e-07
1.24244e-07
1.0383e-07
8.00736e-08
6.03479e-08
5.23303e-08
5.51454e-08
5.27279e-08
2.78983e-08
0
0
0
0
0
0
0
0
0
1.3486e-08
2.23828e-08
1.17571e-08
0
0
0
0
0
0
0
0
0
0
0
0
0
0
0
0
0
0
0
0
0
0
0
0
0
0
0
0
0
0
1.0695e-08
5.74498e-07
1.10156e-06
1.59218e-06
2.12037e-06
2.72735e-06
3.36372e-06
3.76037e-06
2.72872e-06
0
0
0
0
0
0
0
0
0
0
0
0
0
1.35658e-07
3.59398e-07
4.09865e-07
4.84855e-07
6.14486e-07
5.88785e-07
3.74946e-07
1.9718e-08
0
0
1.89486e-07
1.66908e-06
1.49214e-06
1.09751e-06
7.34233e-07
4.79647e-07
3.35958e-07
3.21671e-07
4.72165e-07
6.13136e-07
4.73073e-07
2.3458e-07
8.59842e-08
8.48156e-09
0
0
0
0
0
0
0
0
0
0
4.3834e-08
6.70037e-08
0
0
0
0
0
0
0
0
0
0
0
0
0
0
0
0
0
0
0
0
0
0
0
0
0
1.13891e-07
2.56674e-07
2.98598e-07
1.47607e-07
0
0
0
0
0
0
0
0
0
0
0
0
0
0
0
0
0
0
0
0
0
0
0
0
0
0
1.60263e-08
4.5475e-08
6.76418e-08
8.56317e-08
9.45197e-08
7.53026e-08
4.61864e-08
1.98093e-08
3.30717e-10
0
2.61882e-08
8.97403e-08
1.70997e-07
2.28422e-07
2.49259e-07
2.44059e-07
2.23364e-07
1.93189e-07
1.56746e-07
1.21086e-07
9.09484e-08
7.02159e-08
6.29168e-08
6.4861e-08
5.45627e-08
1.74675e-08
0
0
0
0
0
0
0
0
6.27645e-09
1.34587e-08
1.48076e-08
6.3382e-10
0
0
0
0
0
0
0
0
0
0
0
0
0
0
0
0
0
0
0
0
0
0
0
0
0
0
0
0
2.39266e-07
7.8933e-07
1.29694e-06
1.82067e-06
2.41884e-06
3.18027e-06
4.22447e-06
5.58088e-06
7.346e-06
7.06922e-06
0
0
0
0
0
1.91372e-07
7.51479e-07
7.76702e-07
1.92986e-07
0
0
0
0
0
1.5913e-07
2.37077e-07
1.49582e-08
0
0
0
0
0
0
0
8.30715e-07
9.97318e-07
6.80824e-07
4.23333e-07
3.12381e-07
3.22446e-07
4.23103e-07
5.11155e-07
4.34727e-07
2.6766e-07
1.33202e-07
5.03349e-08
0
0
0
0
0
0
0
0
0
0
0
6.75347e-08
1.55633e-07
1.84412e-07
6.17293e-08
0
0
0
0
0
0
0
0
0
0
0
0
0
0
0
0
0
0
0
0
0
0
0
0
0
0
0
0
0
0
0
0
0
0
0
0
0
0
0
0
0
0
0
0
0
0
0
0
0
0
0
0
0
0
3.32177e-08
7.42675e-08
1.01506e-07
1.24809e-07
1.3668e-07
1.17748e-07
9.45221e-08
7.90318e-08
7.49498e-08
8.81079e-08
1.24573e-07
1.82074e-07
2.49908e-07
3.21126e-07
3.75718e-07
3.72122e-07
3.17951e-07
2.50214e-07
1.8904e-07
1.43766e-07
1.13597e-07
9.42264e-08
8.48364e-08
7.79182e-08
4.68732e-08
0
0
0
0
0
0
0
0
5.23075e-09
8.26801e-09
8.16594e-09
1.94366e-09
0
0
0
0
0
0
0
0
0
0
0
0
0
0
0
0
0
0
0
0
0
0
0
0
0
0
0
1.27517e-07
5.48612e-07
9.33755e-07
1.2891e-06
1.63829e-06
2.09413e-06
2.70385e-06
3.53285e-06
4.28944e-06
4.89861e-06
3.36797e-06
0
0
0
0
0
0
0
2.94719e-07
9.07656e-07
5.07873e-07
0
0
0
0
0
2.57163e-07
2.103e-07
0
0
0
0
0
0
0
1.7157e-07
3.96511e-07
3.44057e-07
2.95076e-07
3.1933e-07
3.84532e-07
4.44759e-07
4.27404e-07
3.15148e-07
1.95207e-07
1.0678e-07
4.879e-08
1.05832e-08
0
0
0
0
0
0
0
0
0
0
0
1.1406e-07
2.46882e-07
3.206e-07
2.30803e-07
0
0
0
0
0
0
0
0
0
0
0
0
0
0
0
0
0
0
0
0
0
0
0
0
0
0
0
0
0
0
0
0
0
0
0
0
0
0
0
0
0
0
0
0
0
0
0
0
0
0
0
0
0
7.37409e-09
7.24635e-08
1.25008e-07
1.56682e-07
1.81444e-07
1.86431e-07
1.6718e-07
1.53309e-07
1.51384e-07
1.60591e-07
1.82144e-07
2.1394e-07
2.51717e-07
2.9351e-07
3.43176e-07
4.03441e-07
4.36986e-07
3.84506e-07
2.94297e-07
2.23181e-07
1.78416e-07
1.49269e-07
1.24563e-07
9.99317e-08
6.72293e-08
6.50492e-09
0
0
0
0
0
0
0
5.71851e-09
6.53429e-09
3.03938e-09
0
0
0
0
0
0
0
0
0
0
0
0
0
0
0
0
0
0
0
0
0
0
0
0
0
0
0
0
0
0
0
0
2.13137e-08
6.8513e-08
1.1571e-07
1.22025e-07
3.96497e-09
0
0
0
0
0
0
0
0
0
0
0
2.37239e-07
0
0
0
0
0
0
1.23082e-07
5.39217e-08
0
0
0
0
0
0
1.24593e-07
3.12849e-07
3.93546e-07
4.25918e-07
4.30504e-07
4.30662e-07
4.17303e-07
3.49588e-07
2.44692e-07
1.52555e-07
8.82655e-08
4.83078e-08
2.35939e-08
4.15314e-09
0
0
0
0
0
0
0
0
0
0
0
9.90232e-08
2.36535e-07
3.52123e-07
3.51578e-07
1.56894e-07
0
0
0
0
0
0
0
0
0
0
0
0
0
0
7.42872e-08
1.0127e-07
5.87479e-08
0
0
0
0
0
0
0
0
0
0
0
0
0
0
0
0
0
0
0
0
0
0
0
0
0
0
0
0
7.89976e-10
8.10427e-09
1.28559e-08
5.98333e-09
0
0
0
5.95664e-08
1.50747e-07
2.04764e-07
2.3329e-07
2.49231e-07
2.3665e-07
2.21527e-07
2.18435e-07
2.23734e-07
2.34852e-07
2.48273e-07
2.62581e-07
2.81379e-07
3.10356e-07
3.57186e-07
4.18499e-07
4.25609e-07
3.50918e-07
2.75517e-07
2.20068e-07
1.78023e-07
1.37169e-07
8.70475e-08
1.46478e-08
0
0
0
0
0
0
0
0
4.7148e-09
5.59845e-09
0
0
0
0
0
0
0
0
0
0
0
0
0
0
0
0
0
0
0
0
0
0
0
0
1.78525e-07
1.5851e-07
7.26207e-08
0
0
0
0
0
0
0
0
0
0
0
0
0
0
0
0
7.32041e-08
7.98821e-08
0
0
0
0
0
1.54876e-07
0
0
0
0
0
4.44998e-08
3.13868e-08
0
0
0
0
0
0
9.64107e-08
3.01079e-07
4.14648e-07
4.57679e-07
4.46019e-07
4.1222e-07
3.61879e-07
2.79521e-07
1.89284e-07
1.16072e-07
6.75067e-08
4.06865e-08
2.66502e-08
1.62728e-08
3.33153e-09
0
0
0
0
0
0
0
0
0
0
0
5.59389e-08
1.63976e-07
2.73951e-07
3.64425e-07
3.46987e-07
1.8966e-07
0
0
0
0
0
0
0
0
0
0
0
2.36767e-08
4.85663e-09
1.60531e-09
4.79743e-09
0
0
0
0
0
0
0
0
0
0
0
0
0
0
0
0
0
0
0
0
0
0
0
0
0
0
0
4.9533e-10
9.24133e-09
2.04256e-08
3.51294e-08
4.88521e-08
4.88185e-08
2.97033e-08
1.11112e-08
5.67686e-08
1.72891e-07
2.63686e-07
3.04697e-07
3.22602e-07
3.15788e-07
2.91755e-07
2.80874e-07
2.79608e-07
2.81187e-07
2.79375e-07
2.71417e-07
2.6026e-07
2.51579e-07
2.5163e-07
2.66909e-07
3.03274e-07
3.34109e-07
2.81262e-07
2.19885e-07
1.64838e-07
1.047e-07
2.83848e-08
0
0
0
0
0
0
0
0
0
0
3.74907e-09
0
0
0
0
0
0
0
0
0
0
0
0
0
0
0
0
0
0
0
0
0
0
0
1.55595e-07
5.3189e-07
5.73567e-07
4.61888e-07
2.54515e-07
0
0
0
0
0
0
0
0
0
0
0
0
0
0
7.32313e-07
7.57566e-07
5.69821e-07
3.89582e-07
2.04488e-07
3.01624e-08
0
9.24271e-08
1.83163e-07
4.63223e-08
0
0
0
6.94295e-08
7.0881e-08
3.47562e-08
0
0
0
0
0
0
0
2.27762e-07
3.48036e-07
3.81675e-07
3.62694e-07
3.2629e-07
2.71964e-07
2.0203e-07
1.32159e-07
7.76354e-08
4.37621e-08
2.70518e-08
1.95763e-08
1.5346e-08
1.03097e-08
2.17512e-09
0
0
0
0
0
0
0
0
0
0
0
2.48285e-08
8.72663e-08
1.68969e-07
2.60942e-07
3.15743e-07
3.67787e-07
3.58718e-07
3.51097e-07
3.26015e-07
3.07285e-07
2.9701e-07
2.42884e-07
0
0
0
0
0
0
0
0
0
0
0
0
1.99318e-08
0
0
0
0
0
0
0
0
0
0
0
0
0
0
0
4.01838e-09
2.06674e-08
2.33924e-08
2.13914e-08
1.92176e-08
1.72496e-08
1.55713e-08
1.65933e-08
2.22937e-08
3.24784e-08
4.7756e-08
6.9423e-08
9.13692e-08
9.59848e-08
8.59975e-08
9.39052e-08
1.85967e-07
3.13414e-07
3.77028e-07
4.00288e-07
4.02623e-07
3.68953e-07
3.4358e-07
3.30623e-07
3.21313e-07
3.06681e-07
2.80813e-07
2.44751e-07
2.06735e-07
1.74845e-07
1.54345e-07
1.53103e-07
1.86985e-07
2.16449e-07
1.7223e-07
1.07209e-07
3.14171e-08
0
0
0
0
0
1.84608e-08
0
0
0
0
0
0
0
0
0
0
0
0
0
0
0
0
0
0
0
0
0
0
0
0
0
0
0
8.29517e-10
7.96111e-08
3.11734e-07
5.98282e-07
6.93908e-07
6.49689e-07
4.70996e-07
2.40177e-07
0
0
0
0
0
0
0
0
0
0
0
0
1.24656e-06
1.67355e-06
1.20032e-06
8.01507e-07
5.1631e-07
2.87059e-07
1.33562e-07
1.46116e-07
2.64022e-07
3.42451e-07
4.34417e-07
5.46299e-07
1.21389e-07
2.35521e-07
1.45337e-07
8.61734e-08
3.42942e-08
3.46879e-09
0
0
0
0
0
0
7.78232e-08
2.12707e-07
2.51779e-07
2.36932e-07
2.05121e-07
1.61683e-07
1.12624e-07
6.82833e-08
3.59715e-08
1.74756e-08
9.67634e-09
7.7958e-09
8.3389e-09
9.0359e-09
8.49081e-09
6.229e-09
2.24094e-09
0
0
0
0
0
0
0
0
0
1.21333e-08
3.11597e-08
6.03296e-08
1.07833e-07
1.61033e-07
2.39536e-07
3.16762e-07
4.31263e-07
5.98441e-07
7.72542e-07
9.46854e-07
1.07766e-06
8.57817e-07
0
0
0
0
0
0
0
0
0
0
0
0
0
0
0
0
0
0
0
8.40176e-09
9.33098e-08
1.12265e-07
9.54065e-08
5.92163e-08
1.85892e-08
0
4.35404e-09
3.62315e-08
6.1483e-08
6.63574e-08
5.83852e-08
4.70344e-08
3.89975e-08
3.64877e-08
3.88499e-08
4.58254e-08
5.59862e-08
6.75383e-08
8.59115e-08
1.13611e-07
1.41096e-07
1.49232e-07
1.54761e-07
2.07259e-07
3.44537e-07
4.35996e-07
4.7024e-07
4.79223e-07
4.46461e-07
4.04315e-07
3.79395e-07
3.60839e-07
3.3651e-07
2.96931e-07
2.41459e-07
1.81957e-07
1.32949e-07
1.02442e-07
9.51766e-08
1.17379e-07
1.5007e-07
1.22936e-07
4.77696e-08
0
0
0
0
0
0
7.98839e-09
0
0
0
0
0
0
0
0
0
0
0
0
0
0
0
0
0
0
0
0
0
0
0
0
0
0
0
2.93073e-08
2.01996e-07
3.57913e-07
4.54676e-07
5.61928e-07
5.8895e-07
4.96532e-07
3.26311e-07
1.42707e-07
0
0
0
0
0
0
0
0
0
0
0
2.13585e-06
1.61824e-06
1.01053e-06
6.58364e-07
4.54611e-07
3.20005e-07
2.39985e-07
2.52732e-07
3.30058e-07
5.11343e-07
1.18953e-06
1.68308e-06
9.04901e-07
3.64843e-07
1.71237e-07
8.9962e-08
4.04741e-08
1.30545e-08
4.17157e-09
4.19691e-09
7.81974e-09
4.30375e-09
0
0
0
4.78465e-08
9.49973e-08
9.4777e-08
7.3967e-08
4.61854e-08
1.99689e-08
1.33559e-09
0
0
0
0
1.84361e-10
5.57598e-09
1.05352e-08
1.49174e-08
1.85449e-08
2.0813e-08
2.1217e-08
1.90621e-08
1.54742e-08
1.25874e-08
1.26852e-08
1.74934e-08
2.69879e-08
4.00007e-08
5.5441e-08
6.96304e-08
8.38505e-08
1.06009e-07
1.35756e-07
1.79811e-07
2.33241e-07
3.12547e-07
4.3523e-07
5.54643e-07
6.31056e-07
6.07808e-07
3.59469e-07
0
0
0
0
0
0
0
0
0
0
0
0
0
1.4648e-08
5.51472e-08
1.81939e-08
0
0
0
4.52289e-08
1.95277e-07
2.62162e-07
2.28668e-07
1.4766e-07
6.60177e-08
2.10401e-08
2.81938e-08
6.84497e-08
1.01641e-07
1.07761e-07
9.4943e-08
7.40612e-08
5.65936e-08
5.09355e-08
5.68912e-08
7.19371e-08
9.33449e-08
1.10243e-07
1.18717e-07
1.38838e-07
1.69866e-07
1.96178e-07
2.11081e-07
2.45509e-07
3.63094e-07
4.77665e-07
5.2719e-07
5.40774e-07
5.149e-07
4.59273e-07
4.22834e-07
3.97663e-07
3.68404e-07
3.20219e-07
2.50355e-07
1.74476e-07
1.13103e-07
7.67745e-08
6.77166e-08
8.59504e-08
1.16043e-07
1.00377e-07
2.23869e-08
0
0
0
0
0
0
0
0
0
0
0
0
0
0
0
0
0
0
0
0
0
0
0
0
0
0
0
0
0
0
0
0
0
0
6.30238e-08
2.18936e-07
2.4027e-07
2.3315e-07
3.06007e-07
3.60215e-07
3.48469e-07
2.61944e-07
1.36606e-07
1.41735e-08
0
0
0
0
0
0
0
0
0
0
5.64315e-07
7.25637e-07
5.34071e-07
4.27173e-07
3.97213e-07
3.94156e-07
3.96182e-07
4.21337e-07
5.90039e-07
1.232e-06
1.96738e-06
1.10097e-06
7.81494e-07
3.53412e-07
1.77555e-07
9.63012e-08
4.546e-08
2.22972e-08
1.57329e-08
1.56732e-08
1.85999e-08
2.0075e-08
1.38526e-08
0
0
0
0
0
0
0
0
0
0
0
0
0
0
1.99901e-09
1.15656e-08
2.09555e-08
3.00901e-08
3.82836e-08
4.49071e-08
4.88618e-08
4.96822e-08
4.90813e-08
4.90556e-08
5.27352e-08
6.26097e-08
7.93386e-08
1.03847e-07
1.31514e-07
1.5879e-07
1.90625e-07
2.34605e-07
2.84468e-07
3.36605e-07
4.02027e-07
4.97114e-07
6.11934e-07
6.95793e-07
6.64924e-07
3.77619e-07
0
0
0
0
0
0
0
0
0
0
0
0
0
0
6.95061e-08
5.85137e-08
9.18702e-10
0
0
9.7217e-08
2.3832e-07
3.05992e-07
2.81943e-07
1.99338e-07
1.062e-07
5.41484e-08
5.88672e-08
9.2235e-08
1.18055e-07
1.22136e-07
1.09322e-07
8.60968e-08
6.47705e-08
6.02295e-08
7.11083e-08
9.4965e-08
1.35239e-07
1.73082e-07
1.91789e-07
1.89727e-07
2.08703e-07
2.36004e-07
2.57401e-07
2.87438e-07
3.81687e-07
5.02162e-07
5.67094e-07
5.87184e-07
5.72559e-07
5.09849e-07
4.61945e-07
4.29518e-07
3.98528e-07
3.47643e-07
2.6799e-07
1.79788e-07
1.09101e-07
6.68244e-08
5.30292e-08
6.56946e-08
9.39726e-08
8.88043e-08
1.55242e-08
0
0
0
0
0
0
0
0
0
0
0
0
0
0
0
0
0
0
0
0
0
0
0
0
0
0
0
0
0
0
0
0
0
0
1.45272e-07
1.62949e-07
9.94034e-08
4.66557e-08
5.34002e-08
9.76933e-08
1.15603e-07
8.7162e-08
2.39304e-08
0
0
0
0
0
0
0
0
0
0
0
0
1.78874e-07
2.8416e-07
3.94335e-07
5.02899e-07
5.65744e-07
5.60067e-07
6.79787e-07
1.23143e-06
1.72102e-06
9.76644e-07
6.29713e-07
5.71508e-07
2.87461e-07
1.67282e-07
1.01903e-07
6.03361e-08
3.88306e-08
3.0526e-08
2.73388e-08
2.65652e-08
2.82878e-08
2.66411e-08
1.96877e-08
0
0
0
0
0
0
0
0
0
0
0
0
0
0
1.22423e-08
2.59214e-08
3.95037e-08
5.24934e-08
6.41227e-08
7.36739e-08
8.00351e-08
8.39678e-08
8.6636e-08
9.06392e-08
9.98892e-08
1.17888e-07
1.4905e-07
1.89213e-07
2.34951e-07
2.91476e-07
3.69157e-07
4.71884e-07
5.80278e-07
6.92763e-07
8.38297e-07
1.0185e-06
1.22226e-06
1.32628e-06
1.05904e-06
0
0
0
0
0
0
0
0
0
0
0
0
0
0
6.18986e-08
6.90529e-08
2.13108e-08
0
4.20598e-08
1.63419e-07
2.72293e-07
3.04635e-07
2.57903e-07
1.68279e-07
9.56587e-08
7.71175e-08
8.79043e-08
9.63295e-08
9.8086e-08
9.454e-08
8.61771e-08
7.10746e-08
5.54457e-08
5.73459e-08
7.75966e-08
1.1507e-07
1.87984e-07
2.55099e-07
2.99667e-07
2.9365e-07
2.75948e-07
2.89839e-07
3.10559e-07
3.32145e-07
4.04638e-07
5.18929e-07
5.92428e-07
6.20645e-07
6.15903e-07
5.55636e-07
4.98662e-07
4.5804e-07
4.23265e-07
3.73582e-07
2.90633e-07
1.93832e-07
1.16372e-07
6.87918e-08
4.76445e-08
4.96683e-08
7.2338e-08
7.85963e-08
1.43699e-08
0
0
0
0
0
0
0
0
0
0
0
0
0
0
0
0
0
0
0
0
0
0
0
3.40415e-08
0
0
0
0
0
0
0
0
0
0
2.3835e-07
1.23723e-07
1.28818e-08
0
0
0
0
0
0
0
0
0
0
0
0
0
0
0
0
0
0
1.7048e-07
3.65987e-07
5.43155e-07
6.61569e-07
6.96136e-07
8.12396e-07
1.28314e-06
1.35011e-06
6.93432e-07
4.45076e-07
4.69268e-07
4.40755e-07
2.50617e-07
1.70202e-07
1.11455e-07
7.36867e-08
5.80942e-08
5.02643e-08
4.22934e-08
3.49245e-08
3.14032e-08
3.06197e-08
2.68233e-08
1.70245e-08
0
0
0
0
0
0
0
0
0
0
0
0
0
1.22858e-08
3.02761e-08
4.79016e-08
6.51116e-08
8.13129e-08
9.57544e-08
1.07754e-07
1.17541e-07
1.25689e-07
1.32961e-07
1.43091e-07
1.61087e-07
1.94424e-07
2.43716e-07
3.02872e-07
3.77339e-07
4.80549e-07
6.31174e-07
8.26071e-07
1.03216e-06
1.30753e-06
1.66608e-06
2.16206e-06
2.90344e-06
3.69693e-06
1.00694e-06
0
0
0
0
0
0
0
0
0
0
0
0
0
4.53295e-08
4.76728e-08
2.58615e-08
4.09474e-08
1.34358e-07
2.62112e-07
3.44017e-07
3.37717e-07
2.4672e-07
1.36997e-07
9.75587e-08
1.09752e-07
1.12637e-07
9.49003e-08
7.47331e-08
5.81059e-08
4.43712e-08
3.39501e-08
3.10775e-08
4.45509e-08
7.54025e-08
1.26804e-07
2.42792e-07
3.65074e-07
4.45039e-07
4.65054e-07
3.99895e-07
3.68262e-07
3.74095e-07
3.90756e-07
4.35623e-07
5.37711e-07
6.10661e-07
6.45172e-07
6.47315e-07
5.92741e-07
5.29808e-07
4.83432e-07
4.43148e-07
3.92611e-07
3.11648e-07
2.11129e-07
1.2842e-07
7.59372e-08
4.6736e-08
3.46328e-08
4.33492e-08
6.03549e-08
1.4298e-08
0
0
0
0
0
0
0
0
0
0
0
0
0
0
0
0
0
0
0
0
0
0
0
1.70588e-08
3.28089e-08
0
0
0
0
0
0
0
0
0
1.53772e-07
0
0
0
0
0
0
0
0
0
0
0
0
0
0
0
0
0
0
0
1.25167e-07
3.53816e-07
5.73079e-07
7.34617e-07
8.56879e-07
1.06481e-06
1.43308e-06
9.70378e-07
4.83506e-07
3.17942e-07
3.11528e-07
4.9133e-07
3.34823e-07
2.18198e-07
1.49485e-07
1.03545e-07
8.11842e-08
7.34646e-08
6.83828e-08
5.90448e-08
4.50007e-08
3.46303e-08
2.92961e-08
2.53822e-08
1.96882e-08
0
0
0
0
0
0
0
0
0
0
0
0
0
1.08363e-08
3.38001e-08
5.55871e-08
7.68027e-08
9.72469e-08
1.164e-07
1.33741e-07
1.49294e-07
1.64626e-07
1.78652e-07
1.92691e-07
2.1186e-07
2.43984e-07
2.97254e-07
3.65397e-07
4.47671e-07
5.56309e-07
7.03047e-07
9.23172e-07
1.18609e-06
1.52111e-06
1.93476e-06
2.42807e-06
2.9491e-06
2.86846e-06
1.15615e-06
0
0
0
0
0
0
0
0
0
0
0
0
4.2029e-08
4.6913e-08
2.81471e-08
2.09451e-08
7.50303e-08
2.01871e-07
3.36475e-07
4.11303e-07
3.82244e-07
2.52625e-07
1.50629e-07
1.5471e-07
1.63902e-07
1.42332e-07
1.05147e-07
7.09916e-08
4.12733e-08
1.1632e-08
0
1.65598e-09
2.9239e-08
7.02289e-08
1.32944e-07
2.85021e-07
4.9686e-07
6.33807e-07
6.95697e-07
6.16893e-07
5.00988e-07
4.56346e-07
4.59876e-07
4.83521e-07
5.59986e-07
6.26912e-07
6.62777e-07
6.69039e-07
6.19634e-07
5.52659e-07
5.02897e-07
4.57464e-07
4.02609e-07
3.23423e-07
2.24396e-07
1.38435e-07
8.03296e-08
4.23812e-08
1.61264e-08
5.30734e-09
2.2681e-08
1.03717e-08
0
0
0
0
0
0
0
0
0
0
0
0
0
0
0
0
0
0
0
0
0
0
0
0
3.64542e-08
1.43923e-08
0
0
0
0
0
0
0
0
0
0
0
0
0
0
0
0
0
0
0
0
0
0
0
0
0
0
0
0
2.16683e-07
4.56895e-07
6.91338e-07
9.36437e-07
1.33283e-06
1.40522e-06
6.78269e-07
3.59216e-07
2.42084e-07
2.29526e-07
4.07331e-07
3.90756e-07
2.53607e-07
1.87498e-07
1.26155e-07
9.66576e-08
8.76975e-08
8.57718e-08
8.03303e-08
7.14431e-08
5.52261e-08
3.8657e-08
2.82614e-08
2.18345e-08
1.48409e-08
2.10576e-09
0
0
0
0
0
0
0
0
0
0
0
0
6.70314e-09
3.55623e-08
6.17303e-08
8.67596e-08
1.11044e-07
1.34495e-07
1.56867e-07
1.78142e-07
1.99897e-07
2.22653e-07
2.43995e-07
2.66726e-07
2.97949e-07
3.4832e-07
4.19981e-07
5.0541e-07
6.06729e-07
7.29586e-07
8.89016e-07
1.10712e-06
1.35739e-06
1.59594e-06
1.80571e-06
1.87491e-06
1.53495e-06
7.11598e-07
0
0
0
0
0
0
0
0
0
0
0
6.28056e-08
8.14655e-08
5.28277e-08
2.18727e-08
2.80157e-08
1.05098e-07
2.37868e-07
3.64805e-07
4.34209e-07
3.81609e-07
2.41014e-07
2.17314e-07
2.30679e-07
1.97384e-07
1.54642e-07
1.11812e-07
7.00896e-08