/*--------------------------------*- C++ -*----------------------------------*\
  =========                 |
  \\      /  F ield         | OpenFOAM: The Open Source CFD Toolbox
   \\    /   O peration     | Website:  https://openfoam.org
    \\  /    A nd           | Version:  7
     \\/     M anipulation  |
\*---------------------------------------------------------------------------*/
FoamFile
{
    version     2.0;
    format      ascii;
    class       surfaceScalarField;
    location    "0.077";
    object      phi_0;
}
// * * * * * * * * * * * * * * * * * * * * * * * * * * * * * * * * * * * * * //

dimensions      [0 3 -1 0 0 0 0];

internalField   nonuniform List<scalar> 
24170
(
1.41172e-06
1.53789e-07
1.27169e-06
1.40025e-07
1.13948e-06
1.32211e-07
1.02122e-06
1.18263e-07
9.07791e-07
1.1343e-07
8.01401e-07
1.06389e-07
7.03001e-07
9.83999e-08
6.12609e-07
9.03921e-08
5.32821e-07
7.97884e-08
4.65854e-07
6.69674e-08
4.11352e-07
5.45015e-08
3.67245e-07
4.41071e-08
3.30579e-07
3.66659e-08
2.99154e-07
3.14249e-08
2.69634e-07
2.95198e-08
2.41554e-07
2.80804e-08
2.0854e-07
3.30136e-08
2.97681e-08
1.78772e-07
1.66758e-06
2.01284e-07
1.644e-06
1.63606e-07
1.60793e-06
1.68276e-07
1.57061e-06
1.5559e-07
1.53381e-06
1.50222e-07
1.49496e-06
1.45245e-07
1.45367e-06
1.39688e-07
1.41014e-06
1.33926e-07
1.36486e-06
1.25066e-07
1.31868e-06
1.13144e-07
1.27294e-06
1.00247e-07
1.22942e-06
8.76267e-08
1.18945e-06
7.66308e-08
1.15308e-06
6.77967e-08
1.11831e-06
6.42956e-08
1.08058e-06
6.58071e-08
1.03871e-06
7.48837e-08
8.46515e-08
9.83825e-07
1.78578e-06
2.61725e-07
1.76443e-06
1.84957e-07
1.7505e-06
1.82205e-07
1.73277e-06
1.73323e-07
1.7196e-06
1.63395e-07
1.71151e-06
1.53334e-07
1.70749e-06
1.43703e-07
1.7059e-06
1.35524e-07
1.70334e-06
1.27621e-07
1.69689e-06
1.19592e-07
1.68514e-06
1.12004e-07
1.66863e-06
1.0413e-07
1.64899e-06
9.62699e-08
1.6281e-06
8.86891e-08
1.60724e-06
8.51555e-08
1.58636e-06
8.66869e-08
1.56481e-06
9.64338e-08
1.11029e-07
1.53843e-06
1.91089e-06
3.26798e-07
1.90128e-06
1.94568e-07
1.90519e-06
1.78296e-07
1.8931e-06
1.85414e-07
1.87502e-06
1.81473e-07
1.86215e-06
1.66201e-07
1.85691e-06
1.48942e-07
1.85655e-06
1.35886e-07
1.85756e-06
1.26609e-07
1.85786e-06
1.19293e-07
1.8565e-06
1.1337e-07
1.85314e-06
1.07489e-07
1.84796e-06
1.01444e-07
1.84136e-06
9.52959e-08
1.83429e-06
9.22262e-08
1.82708e-06
9.38939e-08
1.82075e-06
1.02766e-07
1.18088e-07
1.81369e-06
2.05983e-06
3.30461e-07
2.03899e-06
2.15412e-07
2.02737e-06
1.89916e-07
2.02755e-06
1.8523e-07
2.02965e-06
1.79369e-07
2.02484e-06
1.71017e-07
2.01297e-06
1.60804e-07
1.99995e-06
1.48914e-07
1.99155e-06
1.35001e-07
1.98984e-06
1.21012e-07
1.9934e-06
1.09802e-07
1.99922e-06
1.01676e-07
2.00475e-06
9.59133e-08
2.00815e-06
9.18907e-08
2.00922e-06
9.11614e-08
2.00803e-06
9.50838e-08
2.00607e-06
1.04722e-07
1.20302e-07
2.00386e-06
2.2315e-06
3.74036e-07
2.21594e-06
2.30974e-07
2.21344e-06
1.92418e-07
2.20501e-06
1.93654e-07
2.18898e-06
1.95401e-07
2.17158e-06
1.88416e-07
2.15694e-06
1.75444e-07
2.14585e-06
1.60011e-07
2.13794e-06
1.42904e-07
2.13317e-06
1.25786e-07
2.13167e-06
1.11305e-07
2.13275e-06
1.0059e-07
2.13529e-06
9.3374e-08
2.13778e-06
8.94011e-08
2.13976e-06
8.91785e-08
2.14105e-06
9.37946e-08
2.14259e-06
1.03188e-07
1.17855e-07
2.14503e-06
2.40543e-06
3.88023e-07
2.40211e-06
2.3429e-07
2.38728e-06
2.07253e-07
2.36589e-06
2.1504e-07
2.34835e-06
2.12942e-07
2.34027e-06
1.96491e-07
2.33948e-06
1.76235e-07
2.33999e-06
1.59503e-07
2.3374e-06
1.45491e-07
2.33134e-06
1.31848e-07
2.32404e-06
1.18607e-07
2.31762e-06
1.07014e-07
2.31297e-06
9.8018e-08
2.30988e-06
9.24953e-08
2.30803e-06
9.1027e-08
2.3073e-06
9.45234e-08
2.30819e-06
1.02303e-07
1.14782e-07
2.31126e-06
2.54668e-06
3.70643e-07
2.52151e-06
2.5946e-07
2.50728e-06
2.21484e-07
2.50736e-06
2.14962e-07
2.51076e-06
2.09541e-07
2.51667e-06
1.90583e-07
2.52521e-06
1.67692e-07
2.53459e-06
1.50126e-07
2.54178e-06
1.38299e-07
2.54443e-06
1.29199e-07
2.54216e-06
1.20877e-07
2.53638e-06
1.12794e-07
2.52931e-06
1.05091e-07
2.52302e-06
9.87834e-08
2.51892e-06
9.51221e-08
2.5178e-06
9.56496e-08
2.51989e-06
1.00212e-07
1.09166e-07
2.5255e-06
2.7458e-06
3.62796e-07
2.73244e-06
2.72825e-07
2.71675e-06
2.37168e-07
2.71454e-06
2.17173e-07
2.71596e-06
2.0812e-07
2.71506e-06
1.91486e-07
2.71316e-06
1.69594e-07
2.71312e-06
1.50161e-07
2.71547e-06
1.35949e-07
2.71883e-06
1.25839e-07
2.72183e-06
1.1788e-07
2.72394e-06
1.10683e-07
2.72537e-06
1.0366e-07
2.72653e-06
9.7619e-08
2.72786e-06
9.37925e-08
2.72988e-06
9.36348e-08
2.73329e-06
9.68019e-08
1.03612e-07
2.73884e-06
2.97329e-06
3.76292e-07
2.95369e-06
2.92427e-07
2.94329e-06
2.4757e-07
2.92468e-06
2.35785e-07
2.90401e-06
2.28792e-07
2.89022e-06
2.05275e-07
2.88955e-06
1.70258e-07
2.90027e-06
1.39447e-07
2.91528e-06
1.20939e-07
2.92782e-06
1.13295e-07
2.93476e-06
1.10939e-07
2.93642e-06
1.09028e-07
2.93497e-06
1.05108e-07
2.93318e-06
9.94035e-08
2.93342e-06
9.35615e-08
2.93717e-06
8.98778e-08
2.94516e-06
8.88172e-08
9.1463e-08
2.95731e-06
3.16815e-06
3.55673e-07
3.18245e-06
2.78129e-07
3.16575e-06
2.6427e-07
3.13931e-06
2.6223e-07
3.11651e-06
2.51593e-07
3.10394e-06
2.17842e-07
3.10341e-06
1.70793e-07
3.11255e-06
1.30307e-07
3.12691e-06
1.06573e-07
3.1418e-06
9.84031e-08
3.15362e-06
9.91266e-08
3.16069e-06
1.01951e-07
3.16356e-06
1.02244e-07
3.16412e-06
9.8838e-08
3.16492e-06
9.2764e-08
3.16798e-06
8.6821e-08
3.1747e-06
8.20935e-08
8.09259e-08
3.18524e-06
2.84455e-06
3.82386e-07
2.84085e-06
2.81832e-07
2.85595e-06
2.49173e-07
2.86509e-06
2.53085e-07
2.86214e-06
2.54547e-07
2.84824e-06
2.31742e-07
2.83019e-06
1.88837e-07
2.816e-06
1.44505e-07
2.80991e-06
1.12656e-07
2.81139e-06
9.69275e-08
2.81711e-06
9.34068e-08
2.8237e-06
9.53616e-08
2.82928e-06
9.66591e-08
2.8335e-06
9.46247e-08
2.83709e-06
8.9171e-08
2.84111e-06
8.28045e-08
2.84649e-06
7.67136e-08
7.3171e-08
2.85424e-06
3.53272e-06
3.48096e-07
3.50603e-06
3.08524e-07
3.49009e-06
2.6511e-07
3.48553e-06
2.57645e-07
3.48352e-06
2.56559e-07
3.47917e-06
2.36087e-07
3.47341e-06
1.94605e-07
3.46896e-06
1.48947e-07
3.46712e-06
1.14497e-07
3.4679e-06
9.61492e-08
3.471e-06
9.03103e-08
3.47605e-06
9.03055e-08
3.48263e-06
9.00861e-08
3.49003e-06
8.72228e-08
3.49765e-06
8.15538e-08
3.50516e-06
7.5289e-08
3.51255e-06
6.93283e-08
6.52272e-08
3.52049e-06
4.21863e-06
4.55763e-07
4.19537e-06
3.31784e-07
4.17844e-06
2.82032e-07
4.16548e-06
2.70607e-07
4.16867e-06
2.53372e-07
4.18775e-06
2.17005e-07
4.21422e-06
1.68139e-07
4.23847e-06
1.24691e-07
4.25421e-06
9.87603e-08
4.2604e-06
8.99573e-08
4.26036e-06
9.03544e-08
4.2586e-06
9.20603e-08
4.25815e-06
9.05349e-08
4.25988e-06
8.54978e-08
4.26311e-06
7.83261e-08
4.26716e-06
7.12339e-08
4.27171e-06
6.47813e-08
5.93307e-08
4.2776e-06
5.15735e-06
4.01268e-07
5.14928e-06
3.39861e-07
5.13533e-06
2.95981e-07
5.1491e-06
2.56837e-07
5.17858e-06
2.23884e-07
5.2049e-06
1.90687e-07
5.22071e-06
1.52333e-07
5.22948e-06
1.15924e-07
5.23608e-06
9.21586e-08
5.24193e-06
8.41077e-08
5.24657e-06
8.57117e-08
5.2499e-06
8.87288e-08
5.2526e-06
8.78402e-08
5.25615e-06
8.1945e-08
5.26178e-06
7.2695e-08
5.2705e-06
6.25162e-08
5.28254e-06
5.27408e-08
4.46146e-08
5.29726e-06
6.28537e-06
3.87328e-07
6.30354e-06
3.217e-07
6.33035e-06
2.69163e-07
6.35884e-06
2.28348e-07
6.36873e-06
2.14001e-07
6.35582e-06
2.03595e-07
6.3311e-06
1.77051e-07
6.30847e-06
1.38552e-07
6.29625e-06
1.04384e-07
6.29599e-06
8.43667e-08
6.30535e-06
7.63496e-08
6.32112e-06
7.29611e-08
6.34105e-06
6.79076e-08
6.36415e-06
5.88436e-08
6.38959e-06
4.72569e-08
6.41642e-06
3.56857e-08
6.44308e-06
2.60821e-08
1.9783e-08
6.46791e-06
7.72305e-06
2.70267e-07
7.70646e-06
3.38291e-07
7.68611e-06
2.89509e-07
7.69307e-06
2.21389e-07
7.72025e-06
1.86825e-07
7.75636e-06
1.67481e-07
7.7866e-06
1.46812e-07
7.80285e-06
1.22305e-07
7.80717e-06
1.0006e-07
7.80739e-06
8.41468e-08
7.81058e-06
7.3163e-08
7.82011e-06
6.34256e-08
7.83541e-06
5.26056e-08
7.85368e-06
4.05801e-08
7.87209e-06
2.88404e-08
7.88878e-06
1.89956e-08
7.90314e-06
1.17226e-08
7.4056e-09
7.91552e-06
9.43764e-06
2.70794e-07
9.41246e-06
3.63472e-07
9.39383e-06
3.08139e-07
9.40022e-06
2.15e-07
9.43091e-06
1.56129e-07
9.46787e-06
1.30524e-07
9.49292e-06
1.21763e-07
9.4993e-06
1.15923e-07
9.49376e-06
1.05596e-07
9.48908e-06
8.88333e-08
9.49455e-06
6.7694e-08
9.51168e-06
4.62881e-08
9.53568e-06
2.86138e-08
9.55943e-06
1.68302e-08
9.57804e-06
1.02301e-08
9.59001e-06
7.01956e-09
9.59696e-06
4.77655e-09
1.76902e-09
9.60259e-06
1.14732e-05
4.37433e-07
1.15242e-05
3.12493e-07
1.15661e-05
2.66266e-07
1.15564e-05
2.24685e-07
1.15301e-05
1.82445e-07
1.1513e-05
1.47599e-07
1.15135e-05
1.21284e-07
1.15291e-05
1.00271e-07
1.15567e-05
7.80648e-08
1.15939e-05
5.1562e-08
1.16373e-05
2.43716e-08
1.16798e-05
3.80133e-09
1.17138e-05
-5.47176e-09
1.17345e-05
-3.78935e-09
1.17398e-05
4.84572e-09
1.17333e-05
1.36014e-08
1.17205e-05
1.75041e-08
1.31782e-08
1.17091e-05
8.3375e-06
3.67752e-07
8.39105e-06
2.58948e-07
8.42644e-06
2.30876e-07
8.45309e-06
1.98037e-07
8.47293e-06
1.62603e-07
8.4822e-06
1.38325e-07
8.4877e-06
1.15783e-07
8.49865e-06
8.93284e-08
8.51608e-06
6.06303e-08
8.53451e-06
3.31329e-08
8.54896e-06
9.92174e-09
8.55895e-06
-6.19105e-09
8.56641e-06
-1.29277e-08
8.57524e-06
-1.2622e-08
8.58817e-06
-8.08014e-09
8.60518e-06
-3.4154e-09
8.62459e-06
-1.90654e-09
-5.83271e-09
8.6436e-06
7.31284e-06
2.98686e-07
7.30843e-06
2.6336e-07
7.30767e-06
2.31634e-07
7.35162e-06
1.54092e-07
7.41249e-06
1.01731e-07
7.46452e-06
8.62935e-08
7.49784e-06
8.24679e-08
7.51636e-06
7.08039e-08
7.5277e-06
4.92917e-08
7.53572e-06
2.51132e-08
7.54088e-06
4.75897e-09
7.54482e-06
-1.01351e-08
7.55116e-06
-1.92626e-08
7.56189e-06
-2.33555e-08
7.57853e-06
-2.47124e-08
7.60046e-06
-2.53542e-08
7.62565e-06
-2.70964e-08
-3.08345e-08
7.65066e-06
6.41722e-06
4.21557e-07
6.37229e-06
3.08289e-07
6.3848e-06
2.19124e-07
6.40771e-06
1.3118e-07
6.44102e-06
6.84184e-08
6.48293e-06
4.43882e-08
6.52227e-06
4.31232e-08
6.54785e-06
4.52272e-08
6.55631e-06
4.08326e-08
6.55199e-06
2.9429e-08
6.54228e-06
1.44693e-08
6.53332e-06
-1.16769e-09
6.52728e-06
-1.32278e-08
6.52731e-06
-2.33875e-08
6.53374e-06
-3.11392e-08
6.54579e-06
-3.7403e-08
6.56198e-06
-4.32877e-08
-4.92949e-08
6.58044e-06
5.57569e-06
4.84329e-07
5.60826e-06
2.75714e-07
5.6592e-06
1.68183e-07
5.68864e-06
1.01745e-07
5.70277e-06
5.4282e-08
5.72144e-06
2.57177e-08
5.75164e-06
1.29292e-08
5.78583e-06
1.10346e-08
5.81206e-06
1.46042e-08
5.82427e-06
1.72209e-08
5.82447e-06
1.42669e-08
5.81853e-06
4.77435e-09
5.81496e-06
-9.65795e-09
5.81651e-06
-2.49431e-08
5.82305e-06
-3.76712e-08
5.83203e-06
-4.63919e-08
5.83972e-06
-5.09689e-08
-5.2777e-08
5.8432e-06
4.90229e-06
4.29799e-07
4.9486e-06
2.29401e-07
4.96954e-06
1.47248e-07
4.96349e-06
1.07786e-07
4.95139e-06
6.63898e-08
4.95204e-06
2.50676e-08
4.9693e-06
-4.33551e-09
4.9944e-06
-1.40656e-08
5.02109e-06
-1.20854e-08
5.04486e-06
-6.5507e-09
5.06444e-06
-5.30947e-09
5.081e-06
-1.17836e-08
5.09594e-06
-2.46037e-08
5.11035e-06
-3.93482e-08
5.12413e-06
-5.14506e-08
5.13635e-06
-5.86127e-08
5.14553e-06
-6.01491e-08
-5.7416e-08
5.15017e-06
4.28882e-06
4.14392e-07
4.31491e-06
2.03312e-07
4.3412e-06
1.20962e-07
4.35431e-06
9.46796e-08
4.36056e-06
6.01339e-08
4.36705e-06
1.85806e-08
4.3796e-06
-1.68872e-08
4.40074e-06
-3.52036e-08
4.4266e-06
-3.79468e-08
4.45389e-06
-3.38358e-08
4.47926e-06
-3.0685e-08
4.49979e-06
-3.2318e-08
4.51325e-06
-3.80542e-08
4.51874e-06
-4.4841e-08
4.51704e-06
-4.97491e-08
4.5101e-06
-5.16777e-08
4.50067e-06
-5.07173e-08
-4.81941e-08
4.49145e-06
3.65732e-06
3.99969e-07
3.69614e-06
1.64491e-07
3.74467e-06
7.24374e-08
3.80489e-06
3.44578e-08
3.86078e-06
4.24459e-09
3.89104e-06
-1.16752e-08
3.89201e-06
-1.78653e-08
3.87865e-06
-2.18431e-08
3.86792e-06
-2.72098e-08
3.86903e-06
-3.49459e-08
3.88249e-06
-4.41521e-08
3.90302e-06
-5.28428e-08
3.9241e-06
-5.91322e-08
3.94124e-06
-6.19847e-08
3.95293e-06
-6.14351e-08
3.9598e-06
-5.85464e-08
3.96365e-06
-5.45763e-08
-5.07444e-08
3.96621e-06
3.28868e-06
2.75003e-07
3.3345e-06
1.18672e-07
3.34893e-06
5.80079e-08
3.37077e-06
1.26166e-08
3.39347e-06
-1.84514e-08
3.40958e-06
-2.77896e-08
3.4183e-06
-2.65818e-08
3.42419e-06
-2.77358e-08
3.43206e-06
-3.50805e-08
3.44288e-06
-4.57641e-08
3.4542e-06
-5.54689e-08
3.46292e-06
-6.1564e-08
3.46738e-06
-6.35908e-08
3.46813e-06
-6.27389e-08
3.46728e-06
-6.05859e-08
3.46711e-06
-5.83761e-08
3.46925e-06
-5.67148e-08
-5.54337e-08
3.47394e-06
2.86546e-06
2.31144e-07
2.94659e-06
3.75412e-08
2.99157e-06
1.30349e-08
3.00952e-06
-5.33547e-09
3.01372e-06
-2.26562e-08
3.02212e-06
-3.61827e-08
3.04139e-06
-4.58543e-08
3.06704e-06
-5.33913e-08
3.09057e-06
-5.86028e-08
3.10565e-06
-6.08514e-08
3.11034e-06
-6.01566e-08
3.10624e-06
-5.74648e-08
3.09687e-06
-5.4217e-08
3.08602e-06
-5.18951e-08
3.07663e-06
-5.11914e-08
3.07025e-06
-5.20007e-08
3.06709e-06
-5.3552e-08
-5.4682e-08
3.06634e-06
2.47399e-06
7.43262e-08
2.53706e-06
-2.55369e-08
2.56411e-06
-1.40105e-08
2.59596e-06
-3.71898e-08
2.6291e-06
-5.57966e-08
2.65429e-06
-6.13708e-08
2.66842e-06
-5.99828e-08
2.67127e-06
-5.62435e-08
2.66439e-06
-5.17142e-08
2.65102e-06
-4.7485e-08
2.63534e-06
-4.44728e-08
2.62088e-06
-4.30105e-08
2.60956e-06
-4.28955e-08
2.6015e-06
-4.38355e-08
2.59567e-06
-4.53573e-08
2.59058e-06
-4.69198e-08
2.58477e-06
-4.77422e-08
-4.72482e-08
2.57734e-06
2.1581e-06
2.13257e-06
2.11856e-06
2.08137e-06
2.02557e-06
1.9642e-06
1.90422e-06
1.84797e-06
1.79626e-06
1.74877e-06
1.7043e-06
1.66129e-06
1.61839e-06
1.57456e-06
1.5292e-06
1.48228e-06
1.43454e-06
1.38729e-06
-2.20073e-07
2.20073e-07
-4.16561e-07
1.96488e-07
-5.4065e-07
1.24088e-07
-5.86954e-07
4.63041e-08
-5.63665e-07
-2.32891e-08
-4.8561e-07
-7.80549e-08
-3.53423e-07
-1.32187e-07
-1.70168e-07
-1.83254e-07
5.4428e-08
-2.24596e-07
3.0669e-07
-2.52262e-07
5.7295e-07
-2.66259e-07
8.41333e-07
-2.68384e-07
1.10246e-06
-2.61129e-07
1.35027e-06
-2.47812e-07
1.58145e-06
-2.31174e-07
1.79469e-06
-2.13243e-07
1.9899e-06
-1.9521e-07
2.16754e-06
-1.77636e-07
2.32817e-06
-1.60636e-07
2.47221e-06
-1.44037e-07
2.59973e-06
-1.27517e-07
2.71034e-06
-1.10613e-07
2.80326e-06
-9.29218e-08
2.87715e-06
-7.38918e-08
2.93038e-06
-5.32227e-08
2.96079e-06
-3.04092e-08
2.96631e-06
-5.52005e-09
2.94273e-06
2.35756e-08
2.88667e-06
5.60639e-08
2.79594e-06
9.07216e-08
2.66682e-06
1.29127e-07
2.49974e-06
1.67079e-07
2.2887e-06
2.11033e-07
2.03979e-06
2.4891e-07
1.74397e-06
2.95822e-07
1.41226e-06
3.31713e-07
1.04941e-06
3.62845e-07
6.18496e-07
4.30919e-07
2.76856e-07
3.41639e-07
9.28787e-08
1.83978e-07
-2.63443e-08
1.19223e-07
-1.36085e-07
1.09741e-07
-2.27694e-07
9.16089e-08
-3.181e-07
9.04064e-08
-4.26374e-07
1.08273e-07
-5.26216e-07
9.9842e-08
-5.86562e-07
6.03468e-08
-5.87243e-07
6.8058e-10
-5.33014e-07
-5.42293e-08
-4.32375e-07
-1.00638e-07
-2.98998e-07
-1.33378e-07
-1.30678e-07
-1.68319e-07
7.78366e-08
-2.08515e-07
2.76843e-07
-1.99007e-07
3.80307e-07
-1.03464e-07
3.95049e-07
-1.47418e-08
4.3324e-07
-3.81911e-08
5.67172e-07
-1.33932e-07
7.47405e-07
-1.80233e-07
9.66207e-07
-2.18802e-07
1.1524e-06
-1.86196e-07
1.21544e-06
-6.30357e-08
1.07978e-06
1.35658e-07
6.21427e-07
4.58353e-07
-1.32793e-07
7.54221e-07
-9.32928e-07
8.00134e-07
-1.66606e-06
7.33136e-07
-2.30924e-06
6.43179e-07
-2.86111e-06
5.51872e-07
-3.32816e-06
4.67044e-07
-3.72049e-06
3.92329e-07
-4.04881e-06
3.28326e-07
-4.32321e-06
2.74397e-07
-4.55249e-06
2.29277e-07
-4.74395e-06
1.91467e-07
-4.90335e-06
1.59399e-07
-5.03496e-06
1.31609e-07
-5.14184e-06
1.06874e-07
-5.22611e-06
8.42711e-08
-5.28917e-06
6.30675e-08
-5.33181e-06
4.26337e-08
-5.35454e-06
2.27347e-08
-5.35778e-06
3.23566e-09
-5.34321e-06
-1.45639e-08
-5.31135e-06
-3.18659e-08
-5.26305e-06
-4.82972e-08
-5.1994e-06
-6.36549e-08
-5.12158e-06
-7.78149e-08
-5.03092e-06
-9.06575e-08
-4.92874e-06
-1.02187e-07
-4.81626e-06
-1.12478e-07
-4.69454e-06
-1.21722e-07
-4.56433e-06
-1.30204e-07
-4.42606e-06
-1.38269e-07
-4.27977e-06
-1.46296e-07
-4.12512e-06
-1.54647e-07
-3.96151e-06
-1.63613e-07
-3.78814e-06
-1.73364e-07
-3.60424e-06
-1.83907e-07
-3.40917e-06
-1.95063e-07
-3.20271e-06
-2.06467e-07
-2.9851e-06
-2.17607e-07
-2.75722e-06
-2.27882e-07
-2.52053e-06
-2.36689e-07
-2.27703e-06
-2.43502e-07
-2.02909e-06
-2.47936e-07
-1.7793e-06
-2.49794e-07
-1.53021e-06
-2.49082e-07
-1.28423e-06
-2.45981e-07
-1.04342e-06
-2.40812e-07
-8.09501e-07
-2.3392e-07
-5.838e-07
-2.25701e-07
-3.67323e-07
-2.16477e-07
-1.60919e-07
-2.06403e-07
3.47055e-08
-1.95625e-07
2.19687e-07
-1.84981e-07
3.92956e-07
-1.73269e-07
5.53927e-07
-1.60971e-07
7.02046e-07
-1.48119e-07
8.36863e-07
-1.34817e-07
9.58109e-07
-1.21245e-07
1.06577e-06
-1.07661e-07
1.16016e-06
-9.43866e-08
1.24189e-06
-8.17376e-08
1.31182e-06
-6.99217e-08
1.37089e-06
-5.90711e-08
1.42018e-06
-4.92884e-08
1.46058e-06
-4.04002e-08
1.49252e-06
-3.19401e-08
1.51629e-06
-2.37733e-08
1.53224e-06
-1.59531e-08
1.53982e-06
-7.58225e-09
1.53767e-06
2.15133e-09
1.5253e-06
1.23771e-08
1.50354e-06
2.17553e-08
1.4738e-06
2.97441e-08
1.43779e-06
3.60104e-08
1.39731e-06
4.04778e-08
1.35409e-06
4.32206e-08
1.3097e-06
4.43903e-08
1.26552e-06
4.41785e-08
1.22271e-06
4.2808e-08
1.18216e-06
4.05483e-08
1.14447e-06
3.76978e-08
1.10992e-06
3.45419e-08
1.07861e-06
3.13132e-08
1.05044e-06
2.81727e-08
1.02522e-06
2.52146e-08
1.00274e-06
2.24838e-08
9.82741e-07
1.99975e-08
9.64981e-07
1.77606e-08
9.49207e-07
1.57734e-08
9.35175e-07
1.40329e-08
9.22642e-07
1.25321e-08
9.11385e-07
1.12575e-08
9.01196e-07
1.01886e-08
8.91896e-07
9.3003e-09
8.83332e-07
8.56451e-09
8.75375e-07
7.95664e-09
8.67921e-07
7.45426e-09
8.60875e-07
7.04592e-09
8.54157e-07
6.71756e-09
8.47679e-07
6.47771e-09
8.41361e-07
6.31881e-09
8.35081e-07
6.27945e-09
8.28746e-07
6.33519e-09
8.22152e-07
6.59432e-09
8.15181e-07
6.97051e-09
8.0747e-07
7.71103e-09
7.98938e-07
8.53195e-09
7.88842e-07
1.00962e-08
7.77366e-07
1.14762e-08
7.62804e-07
1.45613e-08
7.46356e-07
1.64486e-08
7.23534e-07
2.28217e-08
6.99215e-07
2.43192e-08
6.60327e-07
3.8888e-08
6.25315e-07
3.50123e-08
5.52331e-07
7.29835e-08
4.67989e-08
5.05532e-07
4.0268e-08
1.79805e-07
3.32278e-08
2.03529e-07
3.63027e-08
1.21013e-07
6.21519e-08
2.04549e-08
1.26692e-07
-8.78296e-08
2.43057e-07
-1.94419e-07
4.101e-07
-2.9923e-07
6.16057e-07
-3.89211e-07
8.45698e-07
-4.54237e-07
1.08081e-06
-4.87372e-07
1.31077e-06
-4.96225e-07
1.52932e-06
-4.86929e-07
1.7332e-06
-4.65013e-07
1.92174e-06
-4.36354e-07
2.09578e-06
-4.05213e-07
2.25676e-06
-3.74218e-07
2.4062e-06
-3.44655e-07
2.54542e-06
-3.16853e-07
2.67531e-06
-2.90529e-07
2.79632e-06
-2.65045e-07
2.90842e-06
-2.39619e-07
3.01116e-06
-2.13351e-07
3.10368e-06
-1.85444e-07
3.18489e-06
-1.55093e-07
3.25341e-06
-1.2175e-07
3.30795e-06
-8.4946e-08
3.34699e-06
-4.4558e-08
3.3721e-06
-1.54259e-09
3.37735e-06
5.08171e-08
3.36295e-06
1.05127e-07
3.32763e-06
1.64448e-07
3.26826e-06
2.26446e-07
3.18585e-06
2.93447e-07
3.07319e-06
3.61562e-07
2.93796e-06
4.31056e-07
2.76753e-06
5.02147e-07
2.57243e-06
5.57944e-07
2.38443e-06
6.18919e-07
2.10131e-06
6.24751e-07
1.67552e-06
6.09768e-07
1.19751e-06
5.97235e-07
7.84037e-07
5.23215e-07
4.68296e-07
4.0735e-07
2.37582e-07
3.2112e-07
8.65289e-08
2.59326e-07
-1.0195e-09
1.8739e-07
-3.30107e-08
9.2338e-08
-1.39521e-08
-1.8378e-08
5.6854e-08
-1.25035e-07
1.67008e-07
-2.10792e-07
2.87023e-07
-2.53393e-07
4.07773e-07
-2.89069e-07
5.63216e-07
-3.63957e-07
7.71333e-07
-4.07124e-07
9.51243e-07
-2.83374e-07
1.03305e-06
-9.65478e-08
1.15063e-06
-1.55776e-07
1.41841e-06
-4.01705e-07
1.64122e-06
-4.03044e-07
1.51973e-06
-9.73142e-08
1.0109e-06
3.22637e-07
1.35201e-07
8.1266e-07
-8.60651e-07
1.13151e-06
-1.71431e-06
1.31201e-06
-2.34452e-06
1.38443e-06
-2.85724e-06
1.31285e-06
-3.30243e-06
1.17832e-06
-3.68317e-06
1.02392e-06
-4.00545e-06
8.74155e-07
-4.27769e-06
7.39284e-07
-4.50797e-06
6.22602e-07
-4.70334e-06
5.23699e-07
-4.86953e-06
4.40587e-07
-5.01101e-06
3.70759e-07
-5.13129e-06
3.11747e-07
-5.23286e-06
2.6097e-07
-5.31736e-06
2.16102e-07
-5.38576e-06
1.75273e-07
-5.43857e-06
1.37085e-07
-5.47584e-06
1.00339e-07
-5.49752e-06
6.43165e-08
-5.50336e-06
2.85713e-08
-5.49345e-06
-6.67231e-09
-5.46697e-06
-4.10445e-08
-5.42414e-06
-7.46949e-08
-5.36546e-06
-1.06982e-07
-5.29176e-06
-1.37352e-07
-5.20421e-06
-1.65367e-07
-5.10409e-06
-1.90775e-07
-4.99275e-06
-2.13527e-07
-4.87144e-06
-2.3379e-07
-4.74121e-06
-2.51948e-07
-4.60284e-06
-2.68573e-07
-4.45674e-06
-2.84376e-07
-4.3029e-06
-3.00131e-07
-4.14096e-06
-3.16584e-07
-3.97024e-06
-3.3434e-07
-3.78985e-06
-3.53755e-07
-3.5989e-06
-3.74851e-07
-3.3967e-06
-3.97267e-07
-3.18291e-06
-4.20257e-07
-2.95775e-06
-4.42769e-07
-2.72207e-06
-4.63563e-07
-2.47736e-06
-4.81396e-07
-2.22567e-06
-4.95192e-07
-1.96944e-06
-5.0417e-07
-1.71128e-06
-5.07955e-07
-1.45372e-06
-5.06633e-07
-1.19912e-06
-5.00582e-07
-9.4951e-07
-4.90426e-07
-7.0656e-07
-4.7687e-07
-4.71489e-07
-4.60772e-07
-2.45316e-07
-4.4265e-07
-2.90833e-08
-4.22637e-07
1.78128e-07
-4.02836e-07
3.74117e-07
-3.8097e-07
5.58755e-07
-3.57907e-07
7.31325e-07
-3.33541e-07
8.91103e-07
-3.07898e-07
1.03745e-06
-2.81162e-07
1.16994e-06
-2.53737e-07
1.28855e-06
-2.26273e-07
1.39375e-06
-1.99588e-07
1.48649e-06
-1.74472e-07
1.56805e-06
-1.51484e-07
1.63991e-06
-1.30932e-07
1.70347e-06
-1.12849e-07
1.75994e-06
-9.68691e-08
1.81044e-06
-8.24361e-08
1.85577e-06
-6.91074e-08
1.89606e-06
-5.62442e-08
1.93149e-06
-4.30087e-08
1.96273e-06
-2.9093e-08
1.98984e-06
-1.47309e-08
2.01191e-06
-3.18628e-10
2.0279e-06
1.37527e-08
2.03746e-06
2.64558e-08
2.04063e-06
3.73069e-08
2.0379e-06
4.59548e-08
2.03005e-06
5.22316e-08
2.01811e-06
5.612e-08
2.00316e-06
5.77565e-08
1.98628e-06
5.74358e-08
1.96841e-06
5.5568e-08
1.95033e-06
5.26134e-08
1.93264e-06
4.90088e-08
1.9157e-06
4.51127e-08
1.89973e-06
4.11833e-08
1.88483e-06
3.73844e-08
1.87102e-06
3.38085e-08
1.85828e-06
3.05004e-08
1.84658e-06
2.7476e-08
1.83588e-06
2.47323e-08
1.82615e-06
2.22549e-08
1.81739e-06
2.00228e-08
1.80956e-06
1.8013e-08
1.80266e-06
1.62032e-08
1.79665e-06
1.45724e-08
1.79151e-06
1.31041e-08
1.78718e-06
1.17855e-08
1.78361e-06
1.06159e-08
1.78073e-06
9.59212e-09
1.77847e-06
8.74123e-09
1.77672e-06
8.06569e-09
1.77536e-06
7.6396e-09
1.77426e-06
7.43075e-09
1.77323e-06
7.62508e-09
1.77212e-06
8.08339e-09
1.7706e-06
9.23237e-09
1.7686e-06
1.05281e-08
1.76547e-06
1.32261e-08
1.76142e-06
1.55253e-08
1.75502e-06
2.09707e-08
1.7473e-06
2.41668e-08
1.73496e-06
3.5159e-08
1.72106e-06
3.82167e-08
1.69848e-06
6.14711e-08
1.67339e-06
6.00981e-08
1.635e-06
1.1138e-07
9.62955e-08
1.5855e-06
1.6048e-07
1.93253e-08
2.87448e-07
7.65607e-08
3.7397e-07
3.44907e-08
4.75138e-07
-8.0713e-08
6.15776e-07
-2.28468e-07
7.97322e-07
-3.75965e-07
9.9721e-07
-4.99118e-07
1.18887e-06
-5.80868e-07
1.35746e-06
-6.22832e-07
1.49978e-06
-6.29695e-07
1.61548e-06
-6.1192e-07
1.709e-06
-5.80451e-07
1.78787e-06
-5.43879e-07
1.85914e-06
-5.07624e-07
1.92824e-06
-4.74311e-07
1.99869e-06
-4.44675e-07
2.07238e-06
-4.1834e-07
2.1499e-06
-3.94379e-07
2.23104e-06
-3.71665e-07
2.31501e-06
-3.49017e-07
2.40065e-06
-3.25259e-07
2.48653e-06
-2.9923e-07
2.5711e-06
-2.70015e-07
2.6528e-06
-2.36796e-07
2.7297e-06
-1.98649e-07
2.79994e-06
-1.55184e-07
2.86143e-06
-1.06043e-07
2.91144e-06
-5.15577e-08
2.95355e-06
8.71444e-09
2.98535e-06
7.332e-08
3.00737e-06
1.42433e-07
3.01971e-06
2.14103e-07
3.02458e-06
2.88572e-07
3.02059e-06
3.65559e-07
3.0094e-06
4.42242e-07
2.98928e-06
5.22268e-07
2.95268e-06
5.94546e-07
2.90543e-06
6.66171e-07
2.80621e-06
7.23965e-07
2.66669e-06
7.49287e-07
2.50701e-06
7.56918e-07
2.28442e-06
7.45808e-07
1.99403e-06
6.97737e-07
1.69672e-06
6.18435e-07
1.44128e-06
5.14768e-07
1.24665e-06
3.82012e-07
1.11224e-06
2.2675e-07
1.02482e-06
6.90429e-08
9.93843e-07
-9.40575e-08
1.02287e-06
-2.39822e-07
1.07761e-06
-3.0813e-07
1.1362e-06
-3.47656e-07
1.21348e-06
-4.41245e-07
1.27267e-06
-4.66314e-07
1.29052e-06
-3.01221e-07
1.4018e-06
-2.07826e-07
1.59689e-06
-3.50867e-07
1.49626e-06
-3.01079e-07
9.23265e-07
1.69956e-07
-1.18709e-08
8.37822e-07
-9.89521e-07
1.30029e-06
-1.77048e-06
1.59362e-06
-2.38819e-06
1.74922e-06
-2.85417e-06
1.77799e-06
-3.1715e-06
1.70176e-06
-3.41373e-06
1.55509e-06
-3.62231e-06
1.3869e-06
-3.81605e-06
1.21766e-06
-4.00071e-06
1.05882e-06
-4.17681e-06
9.15379e-07
-4.34276e-06
7.88554e-07
-4.49674e-06
6.77682e-07
-4.63746e-06
5.81309e-07
-4.76429e-06
4.9758e-07
-4.87694e-06
4.24398e-07
-4.97547e-06
3.595e-07
-5.05999e-06
3.00624e-07
-5.1304e-06
2.45679e-07
-5.1862e-06
1.92893e-07
-5.22684e-06
1.40976e-07
-5.25163e-06
8.91096e-08
-5.25996e-06
3.68946e-08
-5.25139e-06
-1.52418e-08
-5.22572e-06
-6.6708e-08
-5.18332e-06
-1.17103e-07
-5.12481e-06
-1.65493e-07
-5.0512e-06
-2.10956e-07
-4.96381e-06
-2.52758e-07
-4.86412e-06
-2.9047e-07
-4.75365e-06
-3.23991e-07
-4.63385e-06
-3.53588e-07
-4.50593e-06
-3.79871e-07
-4.37075e-06
-4.03754e-07
-4.22875e-06
-4.26372e-07
-4.07993e-06
-4.48955e-07
-3.92381e-06
-4.72699e-07
-3.75956e-06
-4.9859e-07
-3.5861e-06
-5.27219e-07
-3.40231e-06
-5.58638e-07
-3.20729e-06
-5.92288e-07
-3.00056e-06
-6.26994e-07
-2.78224e-06
-6.61089e-07
-2.55318e-06
-6.92617e-07
-2.31497e-06
-7.1961e-07
-2.06975e-06
-7.40413e-07
-1.82005e-06
-7.5387e-07
-1.56853e-06
-7.59472e-07
-1.31767e-06
-7.57495e-07
-1.06962e-06
-7.48628e-07
-8.26274e-07
-7.33772e-07
-5.89077e-07
-7.14067e-07
-3.58982e-07
-6.90867e-07
-1.36789e-07
-6.64843e-07
7.73167e-08
-6.36742e-07
2.82297e-07
-6.07816e-07
4.77825e-07
-5.76498e-07
6.63111e-07
-5.43193e-07
8.37259e-07
-5.07689e-07
9.99223e-07
-4.69862e-07
1.14789e-06
-4.29827e-07
1.28217e-06
-3.88015e-07
1.40112e-06
-3.45222e-07
1.50422e-06
-3.02693e-07
1.5918e-06
-2.62052e-07
1.6653e-06
-2.2498e-07
1.72709e-06
-1.92722e-07
1.77992e-06
-1.6568e-07
1.82635e-06
-1.433e-07
1.86839e-06
-1.24477e-07
1.90731e-06
-1.08023e-07
1.94375e-06
-9.26928e-08
1.9781e-06
-7.73559e-08
2.01039e-06
-6.13819e-08
2.04031e-06
-4.46461e-08
2.06739e-06
-2.74014e-08
2.09119e-06
-1.00463e-08
2.11101e-06
6.63246e-09
2.12638e-06
2.19424e-08
2.13714e-06
3.51915e-08
2.14344e-06
4.59261e-08
2.14565e-06
5.39179e-08
2.14427e-06
5.91367e-08
2.1399e-06
6.18005e-08
2.1332e-06
6.22663e-08
2.12485e-06
6.09709e-08
2.11549e-06
5.83663e-08
2.10572e-06
5.48763e-08
2.09604e-06
5.08691e-08
2.08678e-06
4.66456e-08
2.07815e-06
4.24366e-08
2.07024e-06
3.84057e-08
2.06306e-06
3.4656e-08
2.05656e-06
3.12407e-08
2.05064e-06
2.81719e-08
2.04523e-06
2.54298e-08
2.04027e-06
2.29698e-08
2.03574e-06
2.07336e-08
2.03166e-06
1.86545e-08
2.02809e-06
1.66767e-08
2.02512e-06
1.4755e-08
2.02286e-06
1.28806e-08
2.0214e-06
1.10484e-08
2.02082e-06
9.31729e-09
2.02118e-06
7.71074e-09
2.02244e-06
6.37821e-09
2.02456e-06
5.30907e-09
2.02739e-06
4.79762e-09
2.03082e-06
4.64795e-09
2.03459e-06
5.46294e-09
2.03859e-06
6.53473e-09
2.04244e-06
9.37043e-09
2.04606e-06
1.19092e-08
2.04901e-06
1.8021e-08
2.05109e-06
2.20805e-08
2.05212e-06
3.41291e-08
2.05101e-06
3.93268e-08
2.04932e-06
6.3165e-08
2.04156e-06
6.78541e-08
2.038e-06
1.14943e-07
1.19464e-07
2.01483e-06
4.03162e-08
-2.09909e-08
1.25192e-07
-8.31551e-09
2.92801e-07
-1.33117e-07
5.25103e-07
-3.13015e-07
7.74379e-07
-4.77744e-07
9.92157e-07
-5.93742e-07
1.14772e-06
-6.54681e-07
1.23553e-06
-6.68683e-07
1.26451e-06
-6.51805e-07
1.25558e-06
-6.20766e-07
1.22952e-06
-5.85864e-07
1.20298e-06
-5.53907e-07
1.18688e-06
-5.27782e-07
1.18634e-06
-5.07085e-07
1.20247e-06
-4.90437e-07
1.23416e-06
-4.76371e-07
1.27934e-06
-4.63518e-07
1.33554e-06
-4.50574e-07
1.40037e-06
-4.365e-07
1.47201e-06
-4.20652e-07
1.5489e-06
-4.02152e-07
1.62961e-06
-3.79937e-07
1.71261e-06
-3.53013e-07
1.79627e-06
-3.20458e-07
1.8792e-06
-2.8158e-07
1.96006e-06
-2.36044e-07
2.03786e-06
-1.83844e-07
2.11175e-06
-1.25453e-07
2.18165e-06
-6.1181e-08
2.2474e-06
7.57031e-09
2.30794e-06
8.18961e-08
2.36478e-06
1.57263e-07
2.42032e-06
2.33033e-07
2.47687e-06
3.09006e-07
2.53526e-06
3.83846e-07
2.59712e-06
4.60411e-07
2.65669e-06
5.34983e-07
2.71594e-06
6.06921e-07
2.76636e-06
6.73544e-07
2.79449e-06
7.21152e-07
2.79686e-06
7.54548e-07
2.76839e-06
7.74282e-07
2.70243e-06
7.63693e-07
2.61026e-06
7.10602e-07
2.49771e-06
6.27327e-07
2.3712e-06
5.08515e-07
2.24406e-06
3.5389e-07
2.12263e-06
1.90477e-07
2.01426e-06
1.43093e-08
1.92451e-06
-1.50068e-07
1.84763e-06
-2.31257e-07
1.8117e-06
-3.11717e-07
1.79364e-06
-4.23185e-07
1.75297e-06
-4.25653e-07
1.77682e-06
-3.25067e-07
1.79724e-06
-2.28244e-07
1.40837e-06
3.80008e-08
4.57252e-07
6.5004e-07
-6.45818e-07
1.27302e-06
-1.50917e-06
1.70117e-06
-2.16444e-06
1.95556e-06
-2.63494e-06
2.06412e-06
-2.94822e-06
2.0625e-06
-3.15434e-06
1.98411e-06
-3.30185e-06
1.84927e-06
-3.43217e-06
1.68541e-06
-3.56212e-06
1.51686e-06
-3.69831e-06
1.35384e-06
-3.83991e-06
1.20043e-06
-3.98286e-06
1.05833e-06
-4.12253e-06
9.2822e-07
-4.25534e-06
8.10492e-07
-4.37918e-06
7.0515e-07
-4.49312e-06
6.11521e-07
-4.59679e-06
5.28071e-07
-4.68991e-06
4.5262e-07
-4.77195e-06
3.82668e-07
-4.84206e-06
3.15784e-07
-4.89909e-06
2.49924e-07
-4.94173e-06
1.83616e-07
-4.96867e-06
1.16054e-07
-4.97856e-06
4.67771e-08
-4.97098e-06
-2.28197e-08
-4.94538e-06
-9.23109e-08
-4.90165e-06
-1.60825e-07
-4.84067e-06
-2.26477e-07
-4.76374e-06
-2.87884e-07
-4.67254e-06
-3.43961e-07
-4.56895e-06
-3.94054e-07
-4.45493e-06
-4.38013e-07
-4.33229e-06
-4.76231e-07
-4.20255e-06
-5.09609e-07
-4.06681e-06
-5.39492e-07
-3.92565e-06
-5.67531e-07
-3.77909e-06
-5.95517e-07
-3.6266e-06
-6.25191e-07
-3.46718e-06
-6.58011e-07
-3.29953e-06
-6.94869e-07
-3.12231e-06
-7.35859e-07
-2.93442e-06
-7.80177e-07
-2.73529e-06
-8.26123e-07
-2.52511e-06
-8.71266e-07
-2.30493e-06
-9.12801e-07
-2.07659e-06
-9.47949e-07
-1.84254e-06
-9.74461e-07
-1.60546e-06
-9.90949e-07
-1.36798e-06
-9.96958e-07
-1.13227e-06
-9.93202e-07
-8.99995e-07
-9.80905e-07
-6.72348e-07
-9.61419e-07
-4.50068e-07
-9.36346e-07
-2.33461e-07
-9.07474e-07
-2.29933e-08
-8.75311e-07
1.82554e-07
-8.42289e-07
3.80958e-07
-8.0622e-07
5.7215e-07
-7.67691e-07
7.55206e-07
-7.26249e-07
9.28939e-07
-6.81422e-07
1.092e-06
-6.32921e-07
1.24312e-06
-5.80945e-07
1.38139e-06
-5.26291e-07
1.50625e-06
-4.7008e-07
1.61695e-06
-4.13391e-07
1.71223e-06
-3.57334e-07
1.79085e-06
-3.03597e-07
1.85278e-06
-2.54659e-07
1.90011e-06
-2.13002e-07
1.93664e-06
-1.79833e-07
1.96662e-06
-1.54462e-07
1.99338e-06
-1.34781e-07
2.01888e-06
-1.18191e-07
2.04395e-06
-1.02424e-07