/*--------------------------------*- C++ -*----------------------------------*\
  =========                 |
  \\      /  F ield         | OpenFOAM: The Open Source CFD Toolbox
   \\    /   O peration     | Website:  https://openfoam.org
    \\  /    A nd           | Version:  7
     \\/     M anipulation  |
\*---------------------------------------------------------------------------*/
FoamFile
{
    version     2.0;
    format      ascii;
    class       volScalarField;
    location    "0.077";
    object      s;
}
// * * * * * * * * * * * * * * * * * * * * * * * * * * * * * * * * * * * * * //

dimensions      [0 0 0 0 0 0 0];

internalField   nonuniform List<scalar> 
12225
(
1
1
1
1
1
1
1
1
1
1
1
1
1
1
1
1
1
1
1
1
1
1
1
1
1
1
1
1
1
1
1
1
1
1
1
1
1
1
1
1
1
1
1
1
1
1
1
1
1
1
1
1
1
1
1
1
1
1
1
1
1
1
1
1
1
1
1
1
1
1
1
1
1
1
1
1
1
1
1
1
1
1
1
1
1
1
1
1
1
1
1
1
1
1
1
1
1
1
1
1
1
1
1
1
1
1
1
1
1
1
1
1
1
1
1
1
1
1
1
1
1
1
1
1
1
1
1
1
1
1
1
1
1
1
1
1
1
1
1
1
1
1
1
1
1
1
1
1
1
1
1
1
1
1
1
1
1
1
1
1
1
1
1
1
1
1
1
1
1
1
1
1
1
1
1
1
1
1
1
1
1
1
1
1
1
1
1
1
1
1
1
1
1
1
1
1
1
1
1
1
1
1
1
1
1
1
1
1
1
1
1
1
1
1
1
1
1
1
1
1
1
1
1
1
1
1
1
1
1
1
1
1
1
1
1
1
1
1
1
1
1
1
1
1
1
1
1
1
1
1
1
1
1
1
1
1
1
1
1
1
1
1
1
1
1
1
1
1
1
1
1
1
1
1
1
1
1
1
1
1
1
1
1
1
1
1
1
1
1
1
1
1
1
1
1
1
1
1
1
1
1
1
1
1
1
1
1
1
1
1
1
1
1
1
1
1
1
1
1
1
1
1
1
1
1
1
1
1
1
1
1
1
1
1
1
1
1
1
1
1
1
1
1
1
1
1
1
1
1
1
1
1
1
1
1
1
1
1
1
1
1
1
1
1
1
1
1
1
1
1
1
1
1
1
1
1
1
1
1
1
1
1
1
1
1
1
1
1
1
1
1
1
1
1
1
1
1
1
1
1
1
1
1
1
1
1
1
1
1
1
1
1
1
1
1
1
1
1
1
1
1
1
1
1
1
1
1
1
1
1
1
1
1
1
1
1
1
1
1
1
1
1
1
1
1
1
1
1
1
1
1
1
1
1
1
1
1
1
1
1
1
1
1
1
1
1
1
1
1
1
1
1
1
1
1
1
1
1
1
1
1
1
1
1
1
1
1
1
1
1
1
1
1
1
1
1
1
1
1
1
1
1
1
1
1
1
1
1
1
1
1
1
1
1
1
1
1
1
1
1
1
1
1
1
1
1
1
1
1
1
1
1
1
1
1
1
1
1
1
1
0.151334
0.164862
0.153134
0.148685
0.147408
0.150632
0.175785
0.206617
0.248823
0.278545
0.304582
0.324153
0.346683
0.364894
0.380419
0.391271
0.399645
0.40611
0.411544
0.416151
0.420762
0.425088
0.428894
0.4322
0.434419
0.436158
0.438095
0.441985
0.445768
0.448315
0.452095
0.461205
0.47583
0.488683
0.502987
0.528819
0.553116
0.550739
0.368528
0.0587422
0.0197157
0.0240909
0.0289347
0.0339704
0.0406226
0.0478486
0.0562996
0.0665246
0.0781813
0.0884802
0.0995062
0.107531
0.107033
0.0852249
0.0697249
0.0719794
0.0929728
0.117816
0.14005
0.162173
0.184667
0.216473
0.338853
0.68829
0.843509
0.860397
0.862373
0.863865
0.865113
0.866412
0.867308
0.867757
0.86833
0.868849
0.869318
0.869816
0.870123
0.870486
0.871023
0.87172
0.872147
0.872642
0.873169
0.873578
0.873878
0.874167
0.874527
0.874831
0.875135
0.875331
0.875472
0.875646
0.875833
0.875986
0.876113
0.876303
0.876502
0.876614
0.87665
0.876518
0.87637
0.876056
0.8755
0.874723
0.87365
0.872299
0.870803
0.869114
0.867222
0.865357
0.863476
0.861651
0.859736
0.857684
0.855497
0.853019
0.850247
0.846954
0.842146
0.835204
0.826461
0.816248
0.803345
0.785627
0.76475
0.741889
0.711102
0.669451
0.623475
0.57239
0.500404
0.401708
0.297321
0.205965
0.133509
0.0808914
0.045753
0.0241271
0.0118506
0.005423
0.00231701
0.000924315
0.000338156
0.000107763
3.58252e-05
1.88184e-05
9.61387e-06
4.72546e-06
2.24847e-06
1.04075e-06
4.70349e-07
2.08287e-07
9.07053e-08
3.89833e-08
1.65925e-08
7.01743e-09
2.95816e-09
1.24633e-09
5.26008e-10
2.22738e-10
9.47111e-11
4.04413e-11
1.73277e-11
7.43971e-12
3.19516e-12
1.36991e-12
5.85174e-13
2.48548e-13
1.0476e-13
4.37242e-14
1.80267e-14
7.32113e-15
2.91906e-15
1.1385e-15
4.32385e-16
1.59135e-16
5.63959e-17
1.91178e-17
6.03818e-18
-8.49542e-18
0.134629
0.163132
0.161545
0.140328
0.071996
0.082807
0.120246
0.182607
0.274129
0.350639
0.406101
0.441389
0.459856
0.468958
0.472562
0.474271
0.474705
0.474484
0.473791
0.472684
0.471398
0.470702
0.470709
0.470933
0.471609
0.473457
0.476225
0.478855
0.482807
0.486168
0.487708
0.490788
0.495208
0.501503
0.510178
0.518898
0.538105
0.552214
0.539066
0.502318
0.42691
0.200563
0.0694309
0.0293471
0.0240741
0.0313978
0.0452178
0.0570948
0.0706937
0.0893293
0.111802
0.142249
0.185728
0.218449
0.214169
0.17989
0.175793
0.189427
0.210227
0.21558
0.286247
0.625866
0.781054
0.839239
0.860517
0.864548
0.867102
0.869686
0.872765
0.875345
0.877417
0.879459
0.881958
0.884474
0.88664
0.888345
0.889978
0.892
0.894295
0.896353
0.89802
0.899923
0.901739
0.903573
0.904928
0.906293
0.908087
0.909772
0.911544
0.913297
0.914844
0.916456
0.918177
0.919521
0.920659
0.921973
0.923287
0.924387
0.925377
0.926275
0.927387
0.928095
0.928983
0.929809
0.930555
0.931089
0.931344
0.930994
0.929979
0.92813
0.925336
0.921472
0.916738
0.911938
0.908098
0.904844
0.901941
0.899851
0.899405
0.900885
0.905138
0.911419
0.919667
0.929778
0.941285
0.952662
0.962101
0.968991
0.974118
0.977741
0.980201
0.981448
0.980899
0.976097
0.963184
0.932019
0.882693
0.818143
0.730905
0.618086
0.490805
0.370673
0.273003
0.196931
0.138686
0.0951624
0.0635471
0.0412709
0.0260613
0.0160022
0.00955756
0.00555615
0.00314669
0.00173816
0.000937739
0.000494878
0.000255889
0.000129856
6.4777e-05
3.18089e-05
1.53945e-05
7.34967e-06
3.4635e-06
1.61155e-06
7.4042e-07
3.359e-07
1.5043e-07
6.64984e-08
2.89982e-08
1.24713e-08
5.28034e-09
2.20001e-09
8.98217e-10
3.59498e-10
1.39811e-10
5.30867e-11
1.92912e-11
6.8765e-12
2.17398e-12
-1.23205e-11
0.0707283
0.110257
0.119799
0.106299
0.121543
0.178361
0.292923
0.412073
0.466298
0.489704
0.492472
0.491472
0.488501
0.483047
0.47443
0.462137
0.447876
0.434606
0.419585
0.406922
0.394882
0.382452
0.374694
0.367381
0.361748
0.361444
0.362709
0.366436
0.375648
0.38894
0.406694
0.42856
0.448926
0.469334
0.490177
0.50294
0.521246
0.540015
0.554004
0.556093
0.549887
0.521912
0.452313
0.298384
0.157268
0.0901844
0.0647099
0.0613417
0.0717109
0.105866
0.126194
0.140684
0.170748
0.24606
0.290633
0.298732
0.308394
0.329569
0.388804
0.619083
0.748572
0.822912
0.850253
0.86097
0.864906
0.866641
0.869187
0.871643
0.874154
0.876003
0.877361
0.878616
0.879947
0.881321
0.882022
0.88237
0.882824
0.883761
0.884945
0.88556
0.885971
0.887084
0.888997
0.890679
0.89172
0.89351
0.895745
0.897602
0.900051
0.902726
0.904726
0.90654
0.909097
0.910677
0.911785
0.91332
0.914445
0.915464
0.916527
0.917581
0.919431
0.921228
0.92386
0.927107
0.930734
0.934904
0.939242
0.943543
0.947463
0.950771
0.953392
0.955081
0.955947
0.954324
0.949258
0.94132
0.930987
0.918467
0.905375
0.894
0.88638
0.881373
0.878836
0.878396
0.879558
0.884996
0.897903
0.915004
0.933667
0.950966
0.964461
0.974172
0.981411
0.987702
0.992334
0.993948
0.993869
0.992703
0.988629
0.978494
0.968569
0.956733
0.932879
0.878063
0.75768
0.613277
0.472261
0.352274
0.257671
0.184147
0.128233
0.0869254
0.0573722
0.0369042
0.0231677
0.0142193
0.0085489
0.00504537
0.00292944
0.00167718
0.000949124
0.00053226
0.000296547
0.000164534
9.10345e-05
5.02287e-05
2.7575e-05
1.50086e-05
8.056e-06
4.24813e-06
2.18993e-06
1.10297e-06
5.40038e-07
2.57973e-07
1.19134e-07
5.37447e-08
2.32208e-08
9.79302e-09
4.02327e-09
1.22199e-09
0.00866285
0.0255302
0.0558554
0.153893
0.329616
0.452235
0.501301
0.513876
0.512599
0.506279
0.492445
0.470905
0.44569
0.416271
0.390977
0.368515
0.348098
0.328663
0.310278
0.293234
0.277036
0.262539
0.24952
0.23673
0.228149
0.220048
0.213835
0.213705
0.215652
0.221367
0.233714
0.250725
0.28635
0.324778
0.369661
0.426551
0.468458
0.506119
0.536804
0.551609
0.566643
0.567409
0.561111
0.540192
0.48872
0.411036
0.344136
0.280801
0.267925
0.274256
0.288959
0.304605
0.337771
0.384905
0.392013
0.38591
0.377364
0.461167
0.717749
0.800284
0.837361
0.853998
0.860282
0.862943
0.864804
0.866416
0.868499
0.869937
0.870483
0.870249
0.867683
0.863446
0.857907
0.851486
0.844572
0.836423
0.828139
0.820865
0.814232
0.807836
0.802596
0.798639
0.796051
0.794822
0.794401
0.795686
0.796161
0.796789
0.800194
0.802288
0.803906
0.805189
0.806385
0.806239
0.805584
0.804465
0.802851
0.801151
0.79988
0.799041
0.800017
0.802754
0.808157
0.816171
0.8273
0.841446
0.858418
0.877569
0.897586
0.91628
0.932232
0.946365
0.95769
0.966038
0.971757
0.975264
0.976914
0.976879
0.973088
0.962441
0.944477
0.923182
0.902699
0.888055
0.879111
0.87458
0.873316
0.873882
0.878021
0.891835
0.913155
0.933739
0.950614
0.964148
0.974826
0.983079
0.989385
0.993898
0.996535
0.997468
0.997528
0.997271
0.996146
0.992287
0.98241
0.972691
0.959957
0.933382
0.863179
0.698696
0.528202
0.385158
0.274143
0.19036
0.128846
0.0850841
0.0549264
0.0347587
0.0216302
0.0132803
0.00807003
0.00486723
0.00291938
0.00174323
0.00103576
0.000611359
0.000357166
0.000205752
0.00011621
6.42009e-05
3.45783e-05
1.81664e-05
9.2762e-06
4.62057e-06
2.22912e-06
1.05019e-06
4.76086e-07
2.10476e-07
9.0306e-08
3.29256e-08
0.00289206
0.0806205
0.314732
0.478394
0.527526
0.533857
0.529883
0.519022
0.499715
0.467956
0.443679
0.422262
0.40133
0.380756
0.35997
0.339013
0.318402
0.298055
0.278859
0.260462
0.243004
0.226167
0.210714
0.196194
0.184481
0.174331
0.164217
0.158126
0.157551
0.158878
0.163258
0.173597
0.191932
0.212455
0.244943
0.283172
0.335739
0.412631
0.478658
0.525831
0.553686
0.571652
0.584173
0.584179
0.579874
0.569366
0.542269
0.521736
0.523248
0.524577
0.507167
0.483166
0.481303
0.479739
0.473466
0.438251
0.501751
0.734901
0.816915
0.843446
0.8542
0.858555
0.860509
0.862134
0.863187
0.86388
0.864097
0.862335
0.85668
0.846635
0.829106
0.802517
0.765728
0.731789
0.714993
0.697796
0.680835
0.673315
0.668142
0.664927
0.663533
0.663123
0.664202
0.666051
0.668172
0.671102
0.672312
0.673945
0.675998
0.677019
0.677881
0.678548
0.678803
0.678781
0.678569
0.678279
0.67801
0.677827
0.677772
0.677857
0.678423
0.679438
0.681112
0.683809
0.688028
0.694368
0.703677
0.716931
0.735651
0.761453
0.795728
0.834483
0.874787
0.911829
0.939304
0.959471
0.972975
0.980744
0.984853
0.986478
0.986414
0.98296
0.971606
0.950289
0.924899
0.902164
0.886734
0.878153
0.875269
0.875444
0.879359
0.895017
0.920587
0.942191
0.957937
0.969493
0.97837
0.985393
0.990716
0.994425
0.996857
0.998345
0.998969
0.99903
0.998913
0.998547
0.997733
0.995903
0.991583
0.981972
0.961407
0.909328
0.759766
0.568105
0.409172
0.28719
0.197277
0.132878
0.0879954
0.0574684
0.0371207
0.0237685
0.0151045
0.00952746
0.00595794
0.00368613
0.00224736
0.0013455
0.000788246
0.000451176
0.000251472
0.000136462
7.19244e-05
3.69215e-05
1.83764e-05
8.90845e-06
4.17185e-06
1.89666e-06
8.40698e-07
3.27546e-07
0.129146
0.434343
0.538807
0.553753
0.548426
0.536901
0.513445
0.493949
0.473965
0.454457
0.435579
0.416272
0.395991
0.375325
0.353743
0.332232
0.311304
0.291081
0.272224
0.253767
0.235832
0.218093
0.202189
0.187804
0.175098
0.162864
0.152934
0.145686
0.141436
0.139689
0.140051
0.144976
0.157947
0.16909
0.183772
0.216815
0.258488
0.302837
0.371692
0.454018
0.517944
0.559377
0.582205
0.599378
0.607211
0.607991
0.605075
0.603427
0.605656
0.604131
0.575799
0.540059
0.532183
0.517042
0.492681
0.552602
0.735965
0.819943
0.84495
0.853005
0.856076
0.857727
0.858406
0.858544
0.8582
0.857012
0.852916
0.84224
0.819133
0.777332
0.710696
0.666999
0.645924
0.633343
0.627644
0.625564
0.625128
0.626811
0.629377
0.6343
0.640698
0.644399
0.649934
0.656306
0.661407
0.665447
0.66787
0.670032
0.671127
0.67158
0.67171
0.671479
0.671339
0.671374
0.67149
0.671901
0.672699
0.673692
0.674733
0.675731
0.676317
0.676502
0.676035
0.675236
0.674499
0.674286
0.675362
0.67816
0.683259
0.690367
0.699841
0.714673
0.737735
0.772147
0.820475
0.872508
0.919019
0.951548
0.972106
0.983653
0.989052
0.991139
0.991471
0.989889
0.983061
0.965672
0.940073
0.914685
0.896225
0.886026
0.882784
0.883267
0.889347
0.911079
0.937349
0.956775
0.969818
0.978721
0.985159
0.990059
0.993771
0.996338
0.997939
0.998882
0.999421
0.999651
0.999687
0.999655
0.999486
0.998962
0.997537
0.993693
0.983504
0.956615
0.874849
0.684554
0.504246
0.361066
0.253473
0.175404
0.120013
0.0812785
0.0544939
0.036144
0.023676
0.0152794
0.00968228
0.00600863
0.00364196
0.00215292
0.00123878
0.000693698
0.000377107
0.000199175
0.000102067
5.0839e-05
2.45217e-05
1.14484e-05
5.22622e-06
2.13239e-06
0.574398
0.583298
0.573889
0.559515
0.54082
0.524018
0.509077
0.494922
0.48339
0.474022
0.463253
0.449395
0.434346
0.417867
0.400561
0.385924
0.371668
0.357445
0.342271
0.324594
0.306215
0.287886
0.272112
0.25679
0.242973
0.228043
0.213683
0.198735
0.186905
0.177785
0.17304
0.171472
0.178985
0.193184
0.216154
0.245617
0.273802
0.304774
0.347748
0.405267
0.469493
0.527173
0.571489
0.599021
0.613927
0.623153
0.628807
0.631419
0.629469
0.603449
0.555433
0.546593
0.546185
0.544195
0.603883
0.745651
0.818726
0.844508
0.851389
0.853245
0.85421
0.853125
0.851357
0.849622
0.847295
0.842079
0.828891
0.79632
0.731694
0.652385
0.620726
0.608215
0.604991
0.607232
0.622142
0.628131
0.633705
0.648582
0.667691
0.687504
0.710094
0.734722
0.755121
0.768915
0.783458
0.791945
0.797287
0.800082
0.801294
0.800458
0.796675
0.794331
0.790193
0.787703
0.786518
0.786795
0.78811
0.790231
0.792706
0.794599
0.795187
0.792895
0.78684
0.776884
0.762874
0.74576
0.728052
0.714266
0.704583
0.698706
0.697436
0.700751
0.709271
0.722996
0.742344
0.770825
0.810851
0.863335
0.91566
0.954449
0.976466
0.987789
0.992561
0.994117
0.994223
0.992757
0.987096
0.972368
0.949181
0.925969
0.909436
0.901258
0.899456
0.901198
0.912836
0.938315
0.958701
0.97245
0.981261
0.987104
0.991219
0.99422
0.996406
0.997921
0.998864
0.999404
0.9997
0.999842
0.999879
0.999872
0.999812
0.999575
0.998812
0.996492
0.989547
0.969434
0.907632
0.739076
0.557533
0.410872
0.297565
0.212556
0.149924
0.104329
0.0714598
0.0480494
0.0316305
0.0203379
0.0127463
0.00777682
0.00461371
0.00266079
0.00149041
0.000810762
0.000427684
0.000219018
0.000108759
5.22068e-05
2.4536e-05
1.04319e-05
0.618576
0.589675
0.570006
0.555464
0.546901
0.547744
0.550048
0.554102
0.556215
0.556325
0.55337
0.548482
0.541335
0.538407
0.538417
0.537657
0.531178
0.521821
0.511471
0.501709
0.492322
0.481304
0.468554
0.452087
0.435651
0.416764
0.398759
0.380376
0.365114
0.35112
0.339862
0.328438
0.320024
0.314621
0.312213
0.31545
0.325214
0.345857
0.382854
0.434605
0.491989
0.543794
0.582716
0.609256
0.628929
0.638622
0.640336
0.636022
0.599588
0.559298
0.564313
0.602649
0.613839
0.662483
0.760517
0.819345
0.843147
0.85013
0.851321
0.850787
0.846115
0.837369
0.833379
0.831078
0.82636
0.813966
0.782486
0.721491
0.633424
0.59394
0.583274
0.582114
0.593368
0.624444
0.658582
0.686339
0.718391
0.763361
0.80351
0.826331
0.849501
0.865205
0.87256
0.881238
0.886611
0.889369
0.894413
0.899781
0.902705
0.906947
0.909626
0.911405
0.912609
0.913141
0.913769
0.914197
0.914761
0.915479
0.916268
0.917126
0.918054
0.918996
0.919709
0.919679
0.917593
0.911455
0.898206
0.873689
0.842534
0.80927
0.77827
0.754409
0.740725
0.735685
0.739774
0.755123
0.777832
0.806036
0.841263
0.88632
0.934006
0.967281
0.984635
0.992526
0.995415
0.996131
0.995883
0.993928
0.987904
0.974653
0.95662
0.939383
0.928071
0.923571
0.923338
0.927288
0.944316
0.963841
0.976785
0.984805
0.989788
0.993072
0.99538
0.997032
0.998188
0.998964
0.999447
0.99972
0.999863
0.999928
0.999943
0.999937
0.999894
0.999715
0.999103
0.997141
0.991063
0.972976
0.917363
0.762667
0.589786
0.446604
0.331959
0.242264
0.173369
0.121397
0.0829814
0.0552617
0.0357969
0.0225342
0.0137769
0.00817944
0.00471492
0.00263894
0.00143322
0.000754906
0.000385846
0.00019059
9.22185e-05
4.07625e-05
0.608554
0.583176
0.588559
0.591557
0.591848
0.596201
0.602218
0.606373
0.609972
0.617647
0.625613
0.636768
0.64888
0.653669
0.657243
0.66156
0.66678
0.670356
0.671461
0.668883
0.6637
0.657919
0.648541
0.635762
0.622958
0.607491
0.593161
0.576205
0.559124
0.544264
0.529956
0.51415
0.502031
0.489897
0.481822
0.476662
0.474581
0.48255
0.502962
0.533377
0.568097
0.599427
0.622907
0.63816
0.64315
0.64235
0.63029
0.579068
0.55956
0.585685
0.652028
0.68331
0.716777
0.776811
0.822109
0.842271
0.848944
0.850104
0.84914
0.842764
0.827129
0.818399
0.813794
0.807842
0.797548
0.777363
0.735841
0.652814
0.573967
0.552851
0.550047
0.558112
0.589017
0.637992
0.694012
0.745354
0.792786
0.831341
0.849316
0.861283
0.87202
0.87617
0.878619
0.881765
0.883113
0.883749
0.88881
0.896128
0.901185
0.908872
0.915112
0.919745
0.923992
0.92621
0.928056
0.928806
0.929049
0.928935
0.928534
0.928246
0.928536
0.929969
0.933173
0.938254
0.944667
0.951537
0.957782
0.962188
0.961406
0.953646
0.937226
0.911343
0.877561
0.843953
0.816092
0.799288
0.796424
0.805451
0.827806
0.854305
0.885337
0.9237
0.960183
0.981785
0.992041
0.996114
0.997343
0.997449
0.996731
0.99375
0.987302
0.978113
0.966536
0.955951
0.949654
0.947798
0.948413
0.954603
0.970243
0.981655
0.988554
0.992616
0.995102
0.996735
0.997868
0.998663
0.999204
0.999555
0.999768
0.999886
0.999945
0.999968
0.99997
0.999961
0.999914
0.999732
0.999119
0.997179
0.991254
0.973825
0.920741
0.774479
0.609022
0.467434
0.350019
0.255407
0.18133
0.125081
0.0837436
0.0543898
0.0342639
0.0209396
0.0124178
0.00714661
0.00399299
0.00216363
0.00113802
0.00057861
0.000288228
0.000132231
0.609871
0.612014
0.617126
0.610877
0.608019
0.615816
0.643305
0.662345
0.669814
0.680877
0.69635
0.70695
0.723298
0.740699
0.749812
0.75999
0.767774
0.773151
0.777076
0.778642
0.777747
0.772507
0.765615
0.755513
0.74405
0.729168
0.712783
0.694543
0.677495
0.661817
0.645145
0.631178
0.620859
0.614902
0.612493
0.612738
0.614967
0.618199
0.623577
0.630211
0.636353
0.640657
0.642905
0.642097
0.634048
0.597642
0.556501
0.55601
0.606289
0.685973
0.72171
0.752067
0.790779
0.825478
0.84208
0.848013
0.849117
0.847927
0.840016
0.820602
0.8075
0.80157
0.795066
0.78502
0.771828
0.748209
0.690625
0.592781
0.538702
0.525573
0.524347
0.536364
0.573217
0.629127
0.686735
0.737302
0.783889
0.808256
0.813863
0.813511
0.804967
0.78712
0.771267
0.762032
0.757384
0.757457
0.767233
0.782704
0.799304
0.822881
0.843096
0.863243
0.878878
0.889634
0.89491
0.896345
0.896028
0.892861
0.887449
0.881342
0.876016
0.873219
0.876321
0.886745
0.903769
0.925847
0.948636
0.965744
0.976036
0.98144
0.983746
0.982473
0.976496
0.96594
0.951059
0.931878
0.90833
0.88516
0.868357
0.865299
0.877338
0.901258
0.927863
0.958323
0.980747
0.991881
0.996554
0.99813
0.998446
0.998226
0.996724
0.992833
0.988654
0.983298
0.976627
0.970925
0.968046
0.96762
0.968961
0.97633
0.985982
0.991729
0.994949
0.996784
0.997907
0.998643
0.999141
0.999477
0.999698
0.999837
0.999918
0.999961
0.99998
0.999984
0.999982
0.999968
0.999909
0.999701
0.999037
0.997006
0.99094
0.973084
0.917842
0.769062
0.60379
0.459879
0.339439
0.242669
0.167981
0.112588
0.0730915
0.0459811
0.0280493
0.0165976
0.00953245
0.0053119
0.00287437
0.00150405
0.000771115
0.000366601
0.615279
0.623756
0.626245
0.630156
0.647852
0.675041
0.712815
0.744627
0.759992
0.787483
0.807578
0.822329
0.844038
0.853779
0.863229
0.871722
0.875595
0.878907
0.881112
0.88249
0.883139
0.882288
0.878843
0.873051
0.863467
0.849444
0.828306
0.801526
0.769884
0.735914
0.707276
0.681266
0.659152
0.643004
0.632477
0.627154
0.624784
0.624814
0.626977
0.628363
0.628443
0.626229
0.616707
0.591365
0.555674
0.542481
0.554077
0.624031
0.708923
0.744384
0.77318
0.800982
0.827764
0.841809
0.847253
0.848516
0.847451
0.838819
0.819245
0.797495
0.78645
0.782481
0.779855
0.774593
0.760372
0.728621
0.67113
0.575936
0.503776
0.494352
0.495571
0.500544
0.529826
0.590255
0.641264
0.66765
0.678956
0.670844
0.627807
0.582214
0.527003
0.486396
0.457892
0.438218
0.43088
0.443735
0.463511
0.493497
0.529702
0.572294
0.618486
0.668901
0.717181
0.757612
0.781806
0.792292
0.795606
0.791774
0.781292
0.767912
0.752996
0.741482
0.73654
0.742014
0.760289
0.796993
0.855606
0.914534
0.95574
0.977274
0.986861
0.991065
0.992874
0.992853
0.990773
0.986658
0.981574
0.975321
0.964818
0.945138
0.923659
0.914525
0.920007
0.940242
0.962589
0.981929
0.99244
0.996992
0.998644
0.99908
0.999059
0.998446
0.996069
0.993829
0.99162
0.988154
0.984226
0.981563
0.980716
0.980989
0.983487
0.989815
0.994228
0.996688
0.998009
0.998742
0.999196
0.999496
0.999694
0.999821
0.999901
0.999949
0.999975
0.999988
0.999991
0.999991
0.999987
0.999965
0.999887
0.999635
0.998858
0.996502
0.98931
0.966959
0.893518
0.723407
0.556494
0.412907
0.295786
0.204711
0.137002
0.0887376
0.0556842
0.033874
0.0199941
0.0114483
0.00636846
0.00342824
0.00180819
0.000889335
0.617508
0.639348
0.677915
0.696981
0.72397
0.75264
0.790478
0.817619
0.840068
0.858027
0.874858
0.88348
0.892443
0.896028
0.899225
0.901778
0.903203
0.904457
0.905052
0.906778
0.909165
0.911691
0.914537
0.918146
0.922779
0.927139
0.929347
0.92843
0.921213
0.902313
0.865832
0.815804
0.758343
0.70355
0.665706
0.63746
0.622159
0.612925
0.606392
0.600588
0.593641
0.581346
0.559301
0.540897
0.539706
0.556986
0.637766
0.72081
0.758937
0.782927
0.808697
0.828849
0.841735
0.847033
0.848445
0.847667
0.841696
0.828733
0.81136
0.792387
0.777145
0.768572
0.763579
0.759487
0.752136
0.726676
0.675497
0.590154
0.49414
0.446895
0.43838
0.443687
0.456269
0.47815
0.489012
0.465273
0.420554
0.37075
0.328344
0.287743
0.254576
0.237387
0.230451
0.230518
0.237465
0.25298
0.275637
0.30644
0.342648
0.380986
0.418854
0.455138
0.493272
0.535807
0.581208
0.622046
0.650302
0.665983
0.669218
0.665127
0.660911
0.661582
0.661774
0.66044
0.659366
0.664895
0.689479
0.765985
0.871737
0.93784
0.971943
0.987354
0.993555
0.996012
0.99699
0.997023
0.996106
0.994249
0.992242
0.989542
0.983855
0.969229
0.951878
0.946845
0.952881
0.969923
0.9848
0.993638
0.99754
0.999013
0.999454
0.999503
0.999327
0.998229
0.996888
0.995938
0.994128
0.991653
0.989632
0.988739
0.988742
0.989708
0.993077
0.99614
0.997892
0.998834
0.999322
0.999584
0.999741
0.999843
0.999909
0.99995
0.999974
0.999987
0.999994
0.999996
0.999996
0.999994
0.999985
0.99995
0.999837
0.999478
0.998345
0.994733
0.982947
0.943377
0.814706
0.628769
0.466785
0.333943
0.230544
0.1538
0.09929
0.0620891
0.0376523
0.0221438
0.0126514
0.00699741
0.00379314
0.00192831
0.626368
0.671052
0.722741
0.750607
0.788638
0.817124
0.848113
0.868489
0.88301
0.890752
0.895374
0.897025
0.897608
0.897381
0.896278
0.894766
0.891353
0.887912
0.886019
0.885059
0.884838
0.887141
0.890302
0.896595
0.906526
0.920383
0.934685
0.945397
0.955011
0.96031
0.962663
0.956652
0.936477
0.891295
0.816041
0.731686
0.670093
0.629634
0.608261
0.595622
0.583249
0.566849
0.54995
0.546247
0.562388
0.644237
0.725496
0.766338
0.788204
0.810476
0.829393
0.841176
0.846877
0.848764
0.84897
0.846866
0.839609
0.827363
0.811453
0.793297
0.777255
0.766281
0.757301
0.747126
0.734978
0.720683
0.691202
0.627954
0.519252
0.445129
0.406885
0.383445
0.371153
0.360555
0.338131
0.304516
0.273057
0.238645
0.212119
0.192314
0.180548
0.175673
0.17449
0.178914
0.187595
0.202417
0.224579
0.255302
0.293581
0.335802
0.376187
0.409197
0.436155
0.460511
0.48546
0.512012
0.539525
0.565661
0.587317
0.603281
0.615192
0.624333
0.631109
0.632735
0.632142
0.632441
0.636207
0.654715
0.724247
0.845614
0.926047
0.967138
0.986267
0.994269
0.997287
0.998396
0.998767
0.998709
0.99814
0.997288
0.996314
0.994398
0.989139
0.976031
0.967916
0.968369
0.977141
0.988458
0.995147
0.998151
0.999308
0.999672
0.999731
0.999664
0.9992
0.998587
0.998152
0.997253
0.99571
0.994366
0.993689
0.993604
0.994026
0.995761
0.99762
0.998727
0.999333
0.999647
0.999807
0.99989
0.999936
0.999963
0.999979
0.999989
0.999995
0.999997
0.999998
0.999998
0.999997
0.999992
0.999973
0.99991
0.999698
0.998996
0.996646
0.988638
0.960866
0.863624
0.67191
0.497993
0.355022
0.244076
0.162142
0.104222
0.0649179
0.0391956
0.0229838
0.013048
0.00725735
0.00380162
0.636506
0.699983
0.750786
0.787154
0.834135
0.855171
0.877113
0.888294
0.893125
0.89479
0.895188
0.894179
0.889448
0.882012
0.875848
0.870391
0.867784
0.866154
0.86542
0.865139
0.864536
0.863038
0.861673
0.860472
0.859609
0.858412
0.864431
0.886852
0.920825
0.953361
0.968626
0.978359
0.98131
0.978728
0.963017
0.92242
0.832335
0.722359
0.65172
0.610876
0.586138
0.567634
0.556364
0.563467
0.631266
0.721003
0.767204
0.790384
0.808223
0.82789
0.839684
0.845961
0.848621
0.849325
0.84919
0.846919
0.840021
0.828615
0.814499
0.798869
0.782748
0.768993
0.75792
0.746026
0.729531
0.712424
0.697198
0.668127
0.600412
0.481998
0.414115
0.377939
0.348556
0.32173
0.289635
0.253181
0.221969
0.194191
0.175454
0.16482
0.160003
0.158747
0.160766
0.165184
0.17411
0.188802
0.210468
0.24085
0.279795
0.324467
0.368853
0.405311
0.433027
0.455072
0.475712
0.49686
0.519072
0.542009
0.563575
0.581186
0.593998
0.603941
0.613112
0.619448
0.621854
0.623303
0.626339
0.635551
0.667964
0.761497
0.858881
0.927696
0.967327
0.98639
0.994619
0.997861
0.999011
0.999407
0.999493
0.999395
0.999087
0.998674
0.997825
0.995457
0.987891
0.981207
0.980398
0.984161
0.991994
0.996635
0.998732
0.999545
0.999804
0.999849
0.999815
0.999601
0.999365
0.999159
0.998709
0.997851
0.997108
0.996726
0.996654
0.996833
0.997693
0.998708
0.999317
0.999651
0.999824
0.999911
0.999954
0.999975
0.999986
0.999993
0.999996
0.999998
0.999999
0.999999
0.999999
0.999998
0.999995
0.999982
0.999937
0.999781
0.999238
0.997339
0.990626
0.966723
0.881965
0.689061
0.508459
0.360611
0.246627
0.162975
0.104254
0.0645967
0.0388535
0.0226196
0.0128964
0.00694586
0.642277
0.721634
0.771664
0.816164
0.857538
0.875156
0.887366
0.892131
0.893413
0.893585
0.889982
0.879662
0.874319
0.871841
0.870746
0.87039
0.870527
0.872139
0.873119
0.873442
0.873498
0.872997
0.871404
0.868019
0.861716
0.851799
0.841664
0.837449
0.835158
0.859035
0.914774
0.961884
0.982186
0.989454
0.99175
0.986796
0.965868
0.909021
0.781846
0.681838
0.627333
0.596928
0.585051
0.625924
0.711035
0.762639
0.789351
0.805677
0.822022
0.83647
0.843423
0.847285
0.848913
0.849392
0.849201
0.846851
0.840813
0.831907
0.821079
0.808938
0.79552
0.780213
0.764393
0.748884
0.731144
0.712786
0.698675
0.682493
0.654464
0.59481
0.484106
0.401997
0.358019
0.325783
0.292861
0.256819
0.225318
0.19757
0.178137
0.167169
0.16123
0.158976
0.160318
0.164516
0.173908
0.189747
0.213688
0.24716
0.288436
0.335997
0.387548
0.4321
0.463478
0.481816
0.495871
0.511224
0.528333
0.546866
0.565279
0.581234
0.593279
0.60247
0.610612
0.616722
0.619755
0.621643
0.625179
0.633922
0.66083
0.741603
0.832499
0.899726
0.945192
0.973384
0.988489
0.99545
0.998284
0.999335
0.999686
0.999789
0.999788
0.999718
0.999531
0.999093
0.99772
0.99303
0.988852
0.988192
0.990019
0.994927
0.99789
0.999216
0.999725
0.999886
0.999912
0.999892
0.999801
0.999723
0.999623
0.999381
0.998957
0.998624
0.998472
0.998452
0.998519
0.998887
0.999378
0.999676
0.999837
0.999921
0.999962
0.999981
0.999991
0.999995
0.999998
0.999999
0.999999
1
1
0.999999
0.999999
0.999996
0.999986
0.999948
0.99981
0.999313
0.997504
0.990916
0.967006
0.88141
0.685233
0.502462
0.354166
0.240737
0.158184
0.100572
0.0620254
0.0370056
0.0216092
0.0119463
0.641461
0.726017
0.795173
0.832482
0.870493
0.881999
0.889414
0.892019
0.892462
0.888681
0.878658
0.873788
0.872226
0.872035
0.873465
0.875809
0.877167
0.877532
0.877162
0.876172
0.875977
0.87732
0.879177
0.88135
0.882304
0.880466
0.869576
0.845104
0.822457
0.815384
0.826783
0.87613
0.949414
0.982491
0.993495
0.996191
0.995312
0.98438
0.944743
0.825822
0.732163
0.694171
0.685802
0.717617
0.757381
0.785336
0.802621
0.815599
0.828484
0.838364
0.843706
0.847245
0.848768
0.849183
0.848699
0.845815
0.840625
0.833135
0.823981
0.813582
0.802437
0.789757
0.776805
0.761014
0.739844
0.71834
0.702186
0.688216
0.671458
0.648342
0.606738
0.525721
0.435261
0.36771
0.322628
0.283524
0.250646
0.22253
0.200465
0.187859
0.179419
0.179715
0.182947
0.191153
0.208365
0.233633
0.270962
0.319759
0.37094
0.424801
0.474175
0.509634
0.52905
0.53708
0.543645
0.556428
0.571743
0.58428
0.593831
0.601786
0.607869
0.612297
0.61625
0.620865
0.624554
0.626535
0.631811
0.644309
0.672957
0.744582
0.828888
0.89355
0.937708
0.965746
0.982559
0.991954
0.996676
0.998752
0.999551
0.999824
0.999908
0.999923
0.999908
0.999836
0.999586
0.998612
0.995517
0.993355
0.99308
0.994169
0.9971
0.998811
0.999565
0.999849
0.999936
0.999949
0.999939
0.99991
0.999884
0.999834
0.999705
0.999539
0.999432
0.999396
0.999397
0.999435
0.999592
0.99977
0.999879
0.999939
0.999971
0.999986
0.999994
0.999997
0.999999
0.999999
1
1
1
1
1
0.999999
0.999997
0.999987
0.99995
0.999813
0.999296
0.997359
0.990142
0.963617
0.868053
0.666521
0.485349
0.339719
0.229431
0.149711
0.0946591
0.05785
0.0345761
0.0195918
0.637563
0.720579
0.797058
0.833388
0.871711
0.885057
0.889842
0.891336
0.890416
0.88408
0.874788
0.871705
0.871474
0.872056
0.874781
0.875869
0.876006
0.872381
0.868486
0.867541
0.8676
0.868564
0.8705
0.875583
0.882631
0.885667
0.885045
0.878411
0.846803
0.814388
0.809862
0.82288
0.880995
0.953597
0.985119
0.99593
0.99848
0.998618
0.992752
0.960739
0.84832
0.778882
0.75349
0.757294
0.778357
0.796256
0.80945
0.818401
0.828827
0.837942
0.843197
0.846756
0.848199
0.848406
0.847832
0.845506
0.840725
0.833948
0.825539
0.815927
0.805961
0.79529
0.784433
0.772669
0.759032
0.737824
0.715802
0.698815
0.682596
0.665801
0.644413
0.619249
0.570768
0.509487
0.443312
0.380649
0.327666
0.291815
0.263689
0.247936
0.236159
0.238184
0.24645
0.263715
0.292886
0.330687
0.385347
0.442824
0.490972
0.524743
0.541959
0.551193
0.555749
0.558494
0.562897
0.575275
0.59695
0.611443
0.619217
0.62227
0.622922
0.622615
0.623009
0.625161
0.632094
0.643859
0.658749
0.688995
0.739905
0.797443
0.851865
0.900093
0.937839
0.964282
0.980807
0.990263
0.995385
0.997997
0.99922
0.999723
0.999902
0.999958
0.99997
0.999965
0.999925
0.999734
0.998838
0.99694
0.996077
0.996058
0.996884
0.998541
0.999415
0.999789
0.999926
0.999966
0.999972
0.999969
0.999962
0.99995
0.999922
0.999867
0.999822
0.999801
0.999798
0.999804
0.999836
0.9999
0.999944
0.999971
0.999985
0.999993
0.999997
0.999998
0.999999
1
1
1
1
1
1
1
0.999999
0.999997
0.999986
0.999946
0.999792
0.999194
0.99691
0.988302
0.956533
0.842769
0.638271
0.460939
0.320364
0.214734
0.139264
0.087193
0.0533355
0.0309558
0.632917
0.704245
0.792041
0.829954
0.868684
0.884361
0.889588
0.890959
0.890407
0.885195
0.875572
0.871808
0.870473
0.871149
0.873782
0.875416
0.875628
0.874556
0.870069
0.867396
0.867327
0.8677
0.868609
0.870964
0.87785
0.884849
0.88572
0.882493
0.863433
0.823932
0.809852
0.814721
0.857416
0.937
0.977367
0.99271
0.997975
0.999449
0.999614
0.995341
0.952156
0.832063
0.783302
0.777539
0.787633
0.800986
0.810269
0.817965
0.827917
0.836488
0.841708
0.845552
0.847173