/*--------------------------------*- C++ -*----------------------------------*\
  =========                 |
  \\      /  F ield         | OpenFOAM: The Open Source CFD Toolbox
   \\    /   O peration     | Website:  https://openfoam.org
    \\  /    A nd           | Version:  7
     \\/     M anipulation  |
\*---------------------------------------------------------------------------*/
FoamFile
{
    version     2.0;
    format      ascii;
    class       volVectorField;
    location    "0.077";
    object      U;
}
// * * * * * * * * * * * * * * * * * * * * * * * * * * * * * * * * * * * * * //

dimensions      [0 1 -1 0 0 0 0];

internalField   nonuniform List<vector> 
12225
(
(4.84244 0.140355 0)
(4.21015 0.112831 0)
(3.74144 0.0915491 0)
(3.38402 0.0780729 0)
(3.03046 0.0709963 0)
(2.68637 0.0623613 0)
(2.36383 0.0539863 0)
(2.06256 0.0464558 0)
(1.79169 0.0371898 0)
(1.5623 0.0270577 0)
(1.37387 0.0187663 0)
(1.22227 0.0132894 0)
(1.09719 0.010222 0)
(0.993252 0.00846395 0)
(0.900432 0.00889343 0)
(0.80888 0.00723945 0)
(0.728184 0.0132797 0)
(0.60112 0.000799026 0)
(5.04851 0.0791577 0)
(4.8777 0.0792279 0)
(4.74295 0.093353 0)
(4.64432 0.0944279 0)
(4.54913 0.0979403 0)
(4.44333 0.101017 0)
(4.32451 0.103316 0)
(4.1969 0.104778 0)
(4.06541 0.102739 0)
(3.9328 0.0956961 0)
(3.79834 0.0854034 0)
(3.66747 0.0744882 0)
(3.54412 0.0656212 0)
(3.43405 0.0592785 0)
(3.3317 0.0587014 0)
(3.23082 0.0612026 0)
(3.1145 0.0713006 0)
(2.97742 0.0788091 0)
(5.02356 0.161062 0)
(4.87125 0.129975 0)
(4.79546 0.134142 0)
(4.74572 0.125191 0)
(4.7133 0.121859 0)
(4.68993 0.121733 0)
(4.67229 0.121298 0)
(4.66299 0.120161 0)
(4.65892 0.117487 0)
(4.64968 0.113217 0)
(4.62698 0.108306 0)
(4.58829 0.102418 0)
(4.53895 0.0958566 0)
(4.4822 0.0893962 0)
(4.42665 0.0871634 0)
(4.3677 0.0906418 0)
(4.31476 0.10545 0)
(4.24607 0.125742 0)
(4.97576 0.212945 0)
(4.87432 0.12616 0)
(4.8554 0.121844 0)
(4.83928 0.128038 0)
(4.80129 0.127318 0)
(4.76363 0.12052 0)
(4.74088 0.113182 0)
(4.73315 0.109084 0)
(4.73485 0.107364 0)
(4.73818 0.106414 0)
(4.73859 0.105902 0)
(4.7331 0.104581 0)
(4.72309 0.102449 0)
(4.70752 0.0996962 0)
(4.69106 0.100268 0)
(4.67143 0.106342 0)
(4.65636 0.121055 0)
(4.63763 0.143593 0)
(4.97388 0.196761 0)
(4.91303 0.137636 0)
(4.82815 0.127309 0)
(4.8071 0.135702 0)
(4.82364 0.139169 0)
(4.83073 0.133939 0)
(4.81053 0.125513 0)
(4.77483 0.118508 0)
(4.74522 0.113254 0)
(4.73295 0.109231 0)
(4.73713 0.106809 0)
(4.75037 0.105227 0)
(4.76566 0.10398 0)
(4.77737 0.102771 0)
(4.7836 0.104207 0)
(4.7836 0.11047 0)
(4.78015 0.124372 0)
(4.77467 0.147216 0)
(5.02211 0.249607 0)
(4.95245 0.158948 0)
(4.92228 0.134683 0)
(4.90333 0.130606 0)
(4.87494 0.132118 0)
(4.84092 0.135667 0)
(4.80664 0.137059 0)
(4.77665 0.133144 0)
(4.75417 0.123553 0)
(4.73987 0.111727 0)
(4.73354 0.102172 0)
(4.73404 0.0965619 0)
(4.73916 0.094331 0)
(4.74578 0.0947463 0)
(4.75132 0.0987209 0)
(4.7555 0.108131 0)
(4.75843 0.124321 0)
(4.76311 0.148521 0)
(5.00842 0.241526 0)
(5.00368 0.154852 0)
(4.97744 0.137812 0)
(4.92119 0.148764 0)
(4.87316 0.157017 0)
(4.85014 0.154031 0)
(4.8462 0.144968 0)
(4.84851 0.135809 0)
(4.84682 0.12704 0)
(4.83737 0.117639 0)
(4.82312 0.108246 0)
(4.80866 0.100411 0)
(4.79761 0.0953307 0)
(4.78988 0.094039 0)
(4.78542 0.097417 0)
(4.78267 0.106929 0)
(4.78326 0.122388 0)
(4.7864 0.144984 0)
(4.9843 0.239138 0)
(4.91211 0.16446 0)
(4.85983 0.148668 0)
(4.84242 0.15855 0)
(4.84205 0.161867 0)
(4.85389 0.1529 0)
(4.87124 0.140368 0)
(4.89009 0.131585 0)
(4.90705 0.126588 0)
(4.91749 0.122428 0)
(4.9186 0.117683 0)
(4.91073 0.112599 0)
(4.89805 0.107934 0)
(4.88435 0.10505 0)
(4.87429 0.105393 0)
(4.86854 0.110937 0)
(4.87015 0.121849 0)
(4.87613 0.139511 0)
(4.98242 0.241003 0)
(4.95689 0.189435 0)
(4.91636 0.164651 0)
(4.89304 0.152616 0)
(4.89191 0.149817 0)
(4.89562 0.142254 0)
(4.89449 0.131088 0)
(4.89246 0.121964 0)
(4.89439 0.116221 0)
(4.89995 0.112662 0)
(4.90648 0.110122 0)
(4.91167 0.107864 0)
(4.91534 0.105492 0)
(4.91774 0.103721 0)
(4.92023 0.103931 0)
(4.92291 0.108236 0)
(4.92797 0.117144 0)
(4.93498 0.131699 0)
(5.03507 0.274421 0)
(4.98282 0.194207 0)
(4.97379 0.166076 0)
(4.94111 0.16036 0)
(4.90076 0.162249 0)
(4.86835 0.156434 0)
(4.85625 0.142987 0)
(4.86726 0.129202 0)
(4.89195 0.119913 0)
(4.91728 0.115458 0)
(4.93478 0.113512 0)
(4.94218 0.111664 0)
(4.94209 0.108886 0)
(4.93848 0.106052 0)
(4.93658 0.104887 0)
(4.9391 0.107542 0)
(4.94886 0.114106 0)
(4.96519 0.12551 0)
(4.96002 0.253082 0)
(4.99806 0.197128 0)
(4.99167 0.182138 0)
(4.95102 0.17768 0)
(4.90685 0.175836 0)
(4.8768 0.15971 0)
(4.86733 0.131448 0)
(4.87598 0.105479 0)
(4.89619 0.0912689 0)
(4.92075 0.089088 0)
(4.94311 0.0940316 0)
(4.95891 0.100442 0)
(4.96685 0.104244 0)
(4.96921 0.104233 0)
(4.9693 0.101512 0)
(4.97184 0.0990972 0)
(4.97847 0.0983419 0)
(4.99226 0.102447 0)
(4.99683 0.239658 0)
(4.93346 0.182901 0)
(4.96254 0.180033 0)
(4.99078 0.194509 0)
(4.99836 0.198182 0)
(4.98225 0.179232 0)
(4.95167 0.145452 0)
(4.92136 0.113658 0)
(4.90284 0.0944726 0)
(4.89929 0.0891402 0)
(4.90697 0.0931173 0)
(4.91904 0.100349 0)
(4.9305 0.105654 0)
(4.93924 0.10693 0)
(4.94577 0.104452 0)
(4.95202 0.101024 0)
(4.95974 0.0980803 0)
(4.97052 0.0985687 0)
(5.06866 0.256237 0)
(5.02796 0.199537 0)
(4.99502 0.167058 0)
(4.98449 0.166549 0)
(4.98512 0.177823 0)
(4.98107 0.178753 0)
(4.97257 0.160525 0)
(4.96519 0.131011 0)
(4.96101 0.103165 0)
(4.96015 0.0857436 0)
(4.96294 0.0804809 0)
(4.96895 0.0836409 0)
(4.97757 0.0891112 0)
(4.98786 0.0926383 0)
(4.99887 0.0922221 0)
(5.00976 0.0895489 0)
(5.02051 0.0856573 0)
(5.03066 0.0836429 0)
(4.92939 0.22114 0)
(4.93517 0.204218 0)
(4.9158 0.187889 0)
(4.88867 0.197176 0)
(4.88438 0.202607 0)
(4.89901 0.18777 0)
(4.92713 0.155029 0)
(4.96004 0.120404 0)
(4.98589 0.0975413 0)
(4.9989 0.0892239 0)
(5.00157 0.0901687 0)
(4.9996 0.0935753 0)
(4.99789 0.0944921 0)
(4.99851 0.09199 0)
(5.00177 0.0870236 0)
(5.00598 0.0822212 0)
(5.01135 0.0785618 0)
(5.01635 0.0766338 0)
(4.94432 0.259992 0)
(4.97149 0.221092 0)
(4.94764 0.199626 0)
(4.93981 0.186424 0)
(4.96825 0.167835 0)
(5.00027 0.140615 0)
(5.01974 0.109203 0)
(5.03054 0.0834012 0)
(5.03794 0.0706765 0)
(5.04407 0.0710246 0)
(5.04938 0.0785329 0)
(5.05334 0.0866194 0)
(5.05618 0.0911203 0)
(5.05854 0.0913115 0)
(5.06281 0.0882769 0)
(5.06896 0.0838307 0)
(5.07934 0.0783936 0)
(5.09116 0.0727007 0)
(4.96525 0.238527 0)
(4.96565 0.198479 0)
(4.98632 0.185848 0)
(5.00992 0.16742 0)
(5.03027 0.161595 0)
(5.02989 0.158584 0)
(5.01164 0.143804 0)
(4.99043 0.118159 0)
(4.97584 0.0944961 0)
(4.97081 0.0827431 0)
(4.97467 0.082191 0)
(4.98494 0.0856701 0)
(4.99914 0.0861768 0)
(5.01588 0.080473 0)
(5.03504 0.0694974 0)
(5.05561 0.0561367 0)
(5.07724 0.0430513 0)
(5.09743 0.0330104 0)
(5.04468 0.174968 0)
(4.99814 0.187464 0)
(4.98391 0.171139 0)
(4.97632 0.154226 0)
(4.9881 0.151812 0)
(5.01384 0.150316 0)
(5.03751 0.135972 0)
(5.05217 0.110099 0)
(5.05805 0.0841558 0)
(5.05854 0.0669243 0)
(5.05868 0.0587349 0)
(5.06224 0.0547305 0)
(5.07036 0.0501367 0)
(5.08146 0.0426833 0)
(5.09367 0.0334692 0)
(5.10523 0.0245826 0)
(5.1154 0.0179406 0)
(5.12374 0.0148089 0)
(5.02885 0.159216 0)
(5.03446 0.264693 0)
(5.00487 0.231383 0)
(4.99048 0.160365 0)
(5.00185 0.119753 0)
(5.0248 0.104859 0)
(5.04256 0.10044 0)
(5.04953 0.0982714 0)
(5.04821 0.0955425 0)
(5.04407 0.0909965 0)
(5.04329 0.0834065 0)
(5.04904 0.0721736 0)
(5.06053 0.0581184 0)
(5.07395 0.0431136 0)
(5.08568 0.0288181 0)
(5.094 0.0167342 0)
(5.09867 0.00682614 0)
(5.10146 -0.000546935 0)
(4.96902 0.225914 0)
(5.03741 0.222044 0)
(5.04494 0.194401 0)
(5.04908 0.147911 0)
(5.03652 0.114406 0)
(5.02238 0.0975973 0)
(5.019 0.0932221 0)
(5.02279 0.092554 0)
(5.03136 0.0854408 0)
(5.04499 0.066991 0)
(5.06296 0.0404043 0)
(5.08242 0.0139233 0)
(5.0999 -0.00487023 0)
(5.11242 -0.0121889 0)
(5.11834 -0.00998664 0)
(5.11787 -0.00292803 0)
(5.11306 0.00360741 0)
(5.10667 0.00440606 0)
(4.93813 0.309483 0)
(4.98779 0.196695 0)
(5.00522 0.180083 0)
(5.02351 0.175243 0)
(5.04182 0.15407 0)
(5.05071 0.129004 0)
(5.05307 0.104823 0)
(5.05691 0.0822718 0)
(5.06575 0.0600213 0)
(5.07713 0.0364602 0)
(5.08727 0.013793 0)
(5.09434 -0.00211326 0)
(5.09911 -0.00674146 0)
(5.10317 0.00043762 0)
(5.10937 0.0140739 0)
(5.11783 0.0265829 0)
(5.1293 0.0316891 0)
(5.14039 0.0242948 0)
(4.9842 0.210536 0)
(4.99864 0.160525 0)
(4.98296 0.151662 0)
(5.00092 0.123269 0)
(5.04631 0.099925 0)
(5.09055 0.0908993 0)
(5.11971 0.0831619 0)
(5.13643 0.0672233 0)
(5.14637 0.0451597 0)
(5.15266 0.0231959 0)
(5.15676 0.00466643 0)
(5.15948 -0.00990093 0)
(5.16251 -0.0204909 0)
(5.16755 -0.0273704 0)
(5.17649 -0.030806 0)
(5.18934 -0.0321457 0)
(5.20577 -0.0329231 0)
(5.22333 -0.0350762 0)
(5.02097 0.211771 0)
(5.0057 0.214178 0)
(5.00273 0.174282 0)
(5.01621 0.105247 0)
(5.04312 0.061554 0)
(5.07594 0.0523206 0)
(5.11037 0.058499 0)
(5.13757 0.0594929 0)
(5.15135 0.0478467 0)
(5.15215 0.0278815 0)
(5.14519 0.00746377 0)
(5.13684 -0.00802734 0)
(5.13068 -0.0177938 0)
(5.12791 -0.0226243 0)
(5.12986 -0.0251343 0)
(5.13682 -0.0278735 0)
(5.14794 -0.0333374 0)
(5.16161 -0.042347 0)
(4.96518 0.331922 0)
(5.01929 0.203497 0)
(5.07571 0.140354 0)
(5.11804 0.0869984 0)
(5.14031 0.0406799 0)
(5.15363 0.0150772 0)
(5.17511 0.00878267 0)
(5.20573 0.0137287 0)
(5.23519 0.0203628 0)
(5.25385 0.0221936 0)
(5.25932 0.0169551 0)
(5.25537 0.00521431 0)
(5.24923 -0.0108827 0)
(5.24733 -0.0281649 0)
(5.25138 -0.0443097 0)
(5.25871 -0.0583199 0)
(5.26744 -0.0701934 0)
(5.27254 -0.0807325 0)
(5.00859 0.252543 0)
(5.0875 0.149668 0)
(5.13513 0.0922299 0)
(5.14816 0.0660424 0)
(5.14097 0.0473425 0)
(5.13245 0.0299835 0)
(5.13933 0.0160212 0)
(5.16189 0.00852866 0)
(5.19044 0.00919474 0)
(5.21762 0.013255 0)
(5.24047 0.0136844 0)
(5.25909 0.00656007 0)
(5.27512 -0.00683041 0)
(5.28989 -0.0230861 0)
(5.30455 -0.0379637 0)
(5.31819 -0.0485871 0)
(5.33007 -0.0534875 0)
(5.33737 -0.0536977 0)
(5.06009 0.240172 0)
(5.10105 0.141156 0)
(5.13983 0.101683 0)
(5.17839 0.0784414 0)
(5.19727 0.0446276 0)
(5.2001 0.00673019 0)
(5.20561 -0.0209124 0)
(5.22358 -0.0318254 0)
(5.25281 -0.030188 0)
(5.28641 -0.0243597 0)
(5.3191 -0.0224264 0)
(5.3472 -0.0285753 0)
(5.36817 -0.0422499 0)
(5.37993 -0.0594761 0)
(5.38227 -0.0752887 0)
(5.37678 -0.0864484 0)
(5.36645 -0.0913822 0)
(5.35453 -0.0907817 0)
(4.95174 0.243724 0)
(5.00275 0.111829 0)
(5.07036 0.0637406 0)
(5.16248 0.0626427 0)
(5.25555 0.0515623 0)
(5.3139 0.0260297 0)
(5.33003 -0.00278236 0)
(5.31689 -0.0232437 0)
(5.29635 -0.0324742 0)
(5.2878 -0.0337879 0)
(5.29806 -0.0326033 0)
(5.32268 -0.0325412 0)
(5.35278 -0.0342071 0)
(5.37997 -0.0361996 0)
(5.40017 -0.0370703 0)
(5.41264 -0.0366378 0)
(5.41963 -0.0354901 0)
(5.4234 -0.0351402 0)
(5.09641 0.172273 0)
(5.18383 0.0733754 0)
(5.24749 0.0257771 0)
(5.29368 -0.0151165 0)
(5.32488 -0.0415833 0)
(5.34789 -0.0421363 0)
(5.36377 -0.0274019 0)
(5.3744 -0.0166234 0)
(5.38539 -0.0186711 0)
(5.40067 -0.0325043 0)
(5.4191 -0.0521191 0)
(5.4358 -0.0712857 0)
(5.44661 -0.0859396 0)
(5.45022 -0.0946834 0)
(5.44927 -0.0979217 0)
(5.44743 -0.0971668 0)
(5.44827 -0.0941404 0)
(5.45344 -0.0903203 0)
(5.02987 0.200426 0)
(5.20855 0.0895039 0)
(5.38727 0.0532965 0)
(5.45045 0.0307581 0)
(5.44546 0.0126429 0)
(5.43978 -0.00118114 0)
(5.46315 -0.0137283 0)
(5.50913 -0.0262382 0)
(5.55849 -0.0377086 0)
(5.59593 -0.0461061 0)
(5.61446 -0.0499643 0)
(5.61443 -0.0494181 0)
(5.60098 -0.0461117 0)
(5.58119 -0.0426519 0)
(5.5616 -0.0413144 0)
(5.54654 -0.0429896 0)
(5.53764 -0.0472938 0)
(5.53428 -0.0525997 0)
(4.9321 0.0232882 0)
(5.20642 -0.0496742 0)
(5.31832 -0.0355808 0)
(5.36684 -0.0366922 0)
(5.4205 -0.0455368 0)
(5.47712 -0.05441 0)
(5.52018 -0.0603518 0)
(5.54054 -0.0639401 0)
(5.5369 -0.0655676 0)
(5.51444 -0.0656813 0)
(5.48206 -0.0650667 0)
(5.44901 -0.0646842 0)
(5.42114 -0.0652508 0)
(5.4008 -0.0672365 0)
(5.38634 -0.0706846 0)
(5.37557 -0.0752303 0)
(5.36451 -0.080118 0)
(5.35176 -0.084164 0)
(4.96595 0.0797411 0)
(5.12482 0.0122051 0)
(5.12805 0.0117828 0)
(5.03299 -0.0142365 0)
(4.89879 -0.0341265 0)
(4.75105 -0.0383954 0)
(4.6055 -0.0350155 0)
(4.46782 -0.0301596 0)
(4.3397 -0.025607 0)
(4.2219 -0.0223127 0)
(4.11291 -0.0210811 0)
(4.00958 -0.021958 0)
(3.90796 -0.0243817 0)
(3.80547 -0.0277882 0)
(3.69932 -0.0315063 0)
(3.58987 -0.0348157 0)
(3.47597 -0.0366056 0)
(3.36341 -0.036157 0)
(-0.0974756 0.26206 2.71048e-20)
(-0.304061 0.202594 -2.6887e-20)
(-0.447131 0.140674 0)
(-0.519128 0.0684482 0)
(-0.521112 -0.00574039 0)
(-0.473719 -0.0673836 2.60773e-20)
(-0.379958 -0.124438 0)
(-0.237193 -0.175761 0)
(-0.0567043 -0.212334 0)
(0.15917 -0.233972 0)
(0.393512 -0.243232 -2.51366e-20)
(0.63047 -0.242402 0)
(0.864945 -0.233216 0)
(1.09229 -0.218451 0)
(1.30703 -0.200539 0)
(1.50646 -0.181506 -2.40129e-20)
(1.68991 -0.162489 0)
(1.85759 -0.14406 0)
(2.00992 -0.126367 0)
(2.14732 -0.10928 0)
(2.27006 -0.0925507 0)
(2.37797 -0.0757325 0)
(2.47072 -0.0585894 0)
(2.54712 -0.04049 -2.22636e-20)
(2.60639 -0.0213929 2.20644e-20)
(2.64602 -0.000472307 -2.18714e-20)
(2.66546 0.0221381 -2.16849e-20)
(2.66114 0.0475208 0)
(2.62692 0.0758642 0)
(2.56603 0.106179 2.11647e-20)
(2.46778 0.140809 2.10056e-20)
(2.34107 0.171729 0)
(2.17078 0.212814 0)
(1.96713 0.23688 2.05597e-20)
(1.72881 0.284344 0)
(1.42817 0.298838 0)
(1.15018 0.321171 -2.01161e-20)
(0.742484 0.427578 0)
(0.350246 0.161889 -1.97757e-20)
(0.151573 -0.212611 -3.92026e-20)
(0.0283818 -0.256781 0)
(-0.0736402 -0.0736626 0)
(-0.162132 0.0963803 0)
(-0.240881 0.16622 0)
(-0.33783 0.170729 0)
(-0.440546 0.138268 -3.69445e-20)
(-0.516437 0.0881573 -3.65847e-20)
(-0.541893 0.0312242 -3.62517e-20)
(-0.513958 -0.0227971 0)
(-0.442245 -0.0640173 3.56403e-20)
(-0.338516 -0.091391 0)
(-0.205824 -0.104878 -3.5077e-20)
(-0.0279373 -0.0898993 -3.47992e-20)
(0.178338 -0.020606 0)
(0.326143 0.0667717 0)
(0.354763 0.0757966 0)
(0.358373 0.00473145 -3.35726e-20)
(0.445417 -0.0583316 0)
(0.598446 -0.0245625 0)
(0.792842 0.0423758 0)
(0.986998 -0.0830587 0)
(1.09682 -0.414288 0)
(1.10229 -0.490204 0)
(0.907594 -0.090316 0)
(0.290519 0.40733 0)
(-0.504002 0.549081 3.06893e-20)
(-1.22741 0.511923 0)
(-1.86267 0.448132 0)
(-2.41068 0.381688 -2.91793e-20)
(-2.87535 0.319631 -2.86355e-20)
(-3.26765 0.265386 0)
(-3.59749 0.219462 2.75817e-20)
(-3.87479 0.181473 -2.70835e-20)
(-4.10788 0.150411 0)
(-4.30394 0.125078 2.61539e-20)
(-4.46872 0.104173 0)
(-4.60655 0.0865105 0)
(-4.72058 0.071192 -2.49278e-20)
(-4.81305 0.0576233 0)
(-4.88547 0.0453046 2.42208e-20)
(-4.93874 0.0337546 0)
(-4.97328 0.0228958 -2.36022e-20)
(-4.98952 0.0127791 -2.33259e-20)
(-4.98802 0.00324452 -2.30703e-20)
(-4.97055 -0.00547943 -4.56699e-20)
(-4.93724 -0.0135209 4.52379e-20)
(-4.88913 -0.0208948 0)
(-4.82718 -0.0275675 0)
(-4.75257 -0.0334844 0)
(-4.66653 -0.0386826 4.3826e-20)
(-4.5702 -0.0432078 4.35324e-20)
(-4.46466 -0.0471674 -4.3255e-20)
(-4.35067 -0.0507083 0)
(-4.22876 -0.0539968 4.27374e-20)
(-4.09906 -0.0572143 4.2493e-20)
(-3.96138 -0.0605235 4.22563e-20)
(-3.8152 -0.0640534 0)
(-3.65981 -0.0678733 0)
(-3.49439 -0.0719796 0)
(-3.31827 -0.076287 4.13687e-20)
(-3.13103 -0.0806339 0)
(-2.93268 -0.0847989 0)
(-2.72379 -0.0885298 -4.07261e-20)
(-2.50547 -0.0915806 0)
(-2.27938 -0.0937456 0)
(-2.04762 -0.0948823 -4.00226e-20)
(-1.8126 -0.0949279 0)
(-1.57674 -0.0939063 0)
(-1.34222 -0.0919223 3.91793e-20)
(-1.111 -0.0891246 3.88607e-20)
(-0.884906 -0.0856519 0)
(-0.665391 -0.0816798 -3.81689e-20)
(-0.453564 -0.0773642 0)
(-0.250304 -0.0727318 3.74137e-20)
(-0.0568296 -0.0678996 0)
(0.126062 -0.0632521 3.65968e-20)
(0.298528 -0.0581914 3.61639e-20)
(0.460103 -0.0529557 0)
(0.610002 -0.0475633 0)
(0.747661 -0.0420556 0)
(0.87266 -0.0365028 0)
(0.984792 -0.0310107 0)
(1.08413 -0.0257255 0)
(1.17109 -0.020781 0)
(1.24633 -0.0162186 3.25844e-20)
(1.3107 -0.012049 -3.21379e-20)
(1.36514 -0.00831831 0)
(1.41068 -0.00489531 0)
(1.44793 -0.00147241 0)
(1.4771 0.00187783 0)
(1.49858 0.00490218 -5.99093e-20)
(1.51257 0.00822661 0)
(1.51746 0.0124935 5.82171e-20)
(1.51218 0.0169473 -5.73822e-20)
(1.49717 0.0204844 0)
(1.4734 0.0227452 0)
(1.44248 0.0237699 0)
(1.40618 0.0237753 5.41148e-20)
(1.36625 0.0230092 5.33147e-20)
(1.32432 0.0216856 0)
(1.28188 0.0199603 5.17333e-20)
(1.24018 0.0179679 5.09518e-20)
(1.20027 0.0158541 -5.01763e-20)
(1.16287 0.0137619 0)
(1.12843 0.0118046 0)
(1.09714 0.0100483 -4.78851e-20)
(1.06899 0.00851221 0)
(1.04383 0.00718598 0)
(1.02148 0.00604962 0)
(1.0017 0.00508694 0)
(0.984259 0.00428892 4.41769e-20)
(0.968904 0.00364963 4.34506e-20)
(0.955397 0.00315979 0)
(0.943498 0.00280263 4.20125e-20)
(0.932976 0.00255447 0)
(0.92362 0.00238746 0)
(0.915234 0.00227538 3.98896e-20)
(0.907661 0.00219568 0)
(0.90075 0.00213327 3.84962e-20)
(0.894406 0.00207746 0)
(0.888496 0.00202552 0)
(0.882988 0.00197331 3.64378e-20)
(0.877717 0.00192714 0)
(0.872718 0.00188674 3.50862e-20)
(0.867708 0.0018697 0)
(0.862854 0.0018756 0)
(0.857591 0.0019414 0)
(0.852358 0.00206811 -3.24318e-20)
(0.846029 0.00229823 0)
(0.839625 0.00256443 3.1129e-20)
(0.830979 0.00298497 0)
(0.822112 0.00343125 0)
(0.809381 0.00423089 0)
(0.795544 0.00491476 0)
(0.776905 0.00658307 0)
(0.751478 0.00725252 0)
(0.729013 0.011416 0)
(0.668776 0.00980417 -5.21883e-20)
(0.667709 0.0230902 0)
(0.496404 0.00941974 0)
(0.0420148 0.536187 -8.13302e-20)
(0.0257479 0.503004 8.07308e-20)
(0.0297392 0.295874 0)
(0.0329566 0.086935 -5.30314e-20)
(0.0790284 -0.0904151 0)
(0.150989 -0.234895 -2.60951e-20)
(0.285394 -0.374685 5.17826e-20)
(0.455017 -0.503635 5.13627e-20)
(0.653023 -0.608415 0)
(0.861645 -0.67721 5.0514e-20)
(1.06761 -0.708663 2.5072e-20)
(1.26552 -0.708521 0)
(1.4529 -0.684968 0)
(1.62814 -0.646942 0)
(1.79069 -0.601542 0)
(1.94113 -0.553675 2.39734e-20)
(2.08072 -0.506215 0)
(2.21068 -0.460483 -4.69857e-20)
(2.33203 -0.416741 0)
(2.44536 -0.374574 0)
(2.55088 -0.333209 4.56864e-20)
(2.64851 -0.29161 0)
(2.73747 -0.248802 -4.48485e-20)
(2.81738 -0.203706 2.22447e-20)
(2.88619 -0.155517 -2.20461e-20)
(2.94425 -0.103367 2.18532e-20)
(2.98752 -0.0467073 2.16667e-20)
(3.01871 0.0148351 0)
(3.03542 0.0817927 0)
(3.03571 0.152161 -2.11379e-20)
(3.01619 0.228589 2.09051e-20)
(2.9767 0.306106 0)
(2.91666 0.390023 0)
(2.82992 0.471638 -2.05088e-20)
(2.72663 0.554751 0)
(2.58063 0.637798 0)
(2.43386 0.693994 2.00425e-20)
(2.2294 0.772403 0)
(2.01794 0.773038 -1.96512e-20)
(1.78076 0.710868 3.90381e-20)
(1.31893 0.607356 0)
(0.846251 0.401747 0)
(0.546 0.173735 7.60979e-20)
(0.299469 0.0898597 7.538e-20)
(0.130309 0.111191 7.46544e-20)
(0.0266664 0.115811 -3.69423e-20)
(-0.024691 0.0621116 3.66278e-20)
(-0.0326543 -0.028089 1.0883e-19)
(0.0107766 -0.126266 -7.18862e-20)
(0.100819 -0.204012 -3.56603e-20)
(0.205315 -0.257444 0)
(0.31138 -0.328177 3.50597e-20)
(0.439041 -0.434467 -3.47294e-20)
(0.610159 -0.472857 0)
(0.802744 -0.320847 0)
(0.90485 -0.115278 0)
(0.967798 -0.105121 3.35269e-20)
(1.17138 -0.2746 0)
(1.41899 -0.423183 -6.57384e-20)
(1.52017 -0.601866 0)
(1.31259 -0.377618 -6.44136e-20)
(0.624013 0.278244 0)
(-0.366544 0.829035 6.32025e-20)
(-1.19755 1.16088 0)
(-1.86706 1.31199 -6.15531e-20)
(-2.41129 1.25817 3.01813e-20)
(-2.86098 1.12697 0)
(-3.23944 0.973994 5.88616e-20)
(-3.55997 0.825679 2.90973e-20)
(-3.83047 0.692404 2.85691e-20)
(-4.06057 0.577781 0)
(-4.2567 0.481393 2.73357e-20)
(-4.42476 0.401172 2.70485e-20)
(-4.56908 0.334524 0)
(-4.69306 0.278789 -2.61309e-20)
(-4.79916 0.231487 5.13012e-20)
(-4.8891 0.190472 0)
(-4.96402 0.153982 2.49153e-20)
(-5.02444 0.120655 0)
(-5.07052 0.0894624 -7.25601e-20)
(-5.10212 0.0596542 0)
(-5.11923 0.030908 7.07208e-20)
(-5.12166 0.00321946 2.3322e-20)
(-5.10931 -0.0234032 -2.30026e-20)
(-5.08115 -0.0486152 -4.55431e-20)
(-5.03799 -0.0722294 4.51201e-20)
(-4.98033 -0.0940158 0)
(-4.90918 -0.113775 0)
(-4.82564 -0.131381 0)
(-4.73092 -0.146863 -1.31381e-19)
(-4.62622 -0.16038 -4.35237e-20)
(-4.51258 -0.172235 4.32465e-20)
(-4.39082 -0.182855 0)
(-4.26143 -0.19274 4.26802e-20)
(-4.12455 -0.20242 -4.24848e-20)
(-3.97991 -0.212386 -4.22482e-20)
(-3.82697 -0.223021 0)
(-3.66491 -0.234538 0)
(-3.49285 -0.246927 0)
(-3.31001 -0.259936 -4.13603e-20)
(-3.11589 -0.273077 0)
(-2.91046 -0.28568 8.18209e-20)
(-2.69424 -0.296979 1.22108e-19)
(-2.46837 -0.306223 -8.09483e-20)
(-2.23453 -0.312785 0)
(-1.99487 -0.316229 -3.99825e-20)
(-1.75184 -0.316369 0)
(-1.50787 -0.313299 -7.89188e-20)
(-1.26512 -0.307322 3.91504e-20)
(-1.02551 -0.298898 3.88345e-20)
(-0.790771 -0.288517 0)
(-0.562287 -0.276704 1.14477e-19)
(-0.341083 -0.263843 -7.55744e-20)
(-0.127997 -0.250098 -3.7412e-20)
(0.0753735 -0.236426 0)
(0.268764 -0.222337 -3.65835e-20)
(0.452483 -0.207592 -1.0844e-19)
(0.625431 -0.192415 0)
(0.786852 -0.176863 -7.05283e-20)
(0.936011 -0.161064 -6.96361e-20)
(1.07231 -0.145225 -6.87393e-20)
(1.19544 -0.129611 0)
(1.30556 -0.114521 0)
(1.4033 -0.100238 0)
(1.48971 -0.0869918 3.25697e-20)
(1.56615 -0.0749538 3.21276e-20)
(1.63404 -0.0642149 0)
(1.69461 -0.0546366 6.2483e-20)
(1.74888 -0.0458565 6.16091e-20)
(1.79801 -0.0376144 0)
(1.84251 -0.0297111 5.98872e-20)
(1.88187 -0.0215761 1.18066e-19)
(1.91687 -0.0127878 -5.81931e-20)
(1.94834 -0.00371342 -5.73507e-20)
(1.97547 0.00509679 0)
(1.99707 0.0131717 0)
(2.01246 0.02011 0)
(2.02147 0.0256223 -5.40806e-20)
(2.02435 0.0296046 5.32751e-20)
(2.02172 0.0320705 1.04964e-19)
(2.01451 0.0331516 -5.16944e-20)
(2.00375 0.0330323 5.09106e-20)
(1.99054 0.0319422 5.01361e-20)
(1.97588 0.030142 0)
(1.96065 0.0278898 0)
(1.94552 0.0254113 -4.78452e-20)
(1.93098 0.0228826 0)
(1.91731 0.020423 0)
(1.90467 0.018101 9.12122e-20)
(1.89312 0.0159474 0)
(1.88265 0.01397 4.41402e-20)
(1.87323 0.0121668 -4.34142e-20)
(1.86484 0.0105341 0)
(1.85745 0.00907019 4.19779e-20)
(1.85103 0.00777429 0)
(1.84558 0.00664433 0)
(1.84109 0.00567466 -3.9857e-20)
(1.83754 0.00485484 7.83179e-20)
(1.8349 0.00417123 -3.8465e-20)
(1.83315 0.00360806 0)
(1.83221 0.00315325 0)
(1.83206 0.00279358 3.64085e-20)
(1.83259 0.00252964 0)
(1.83377 0.00235233 3.5058e-20)
(1.83538 0.00228297 0)
(1.83748 0.0022961 0)
(1.83962 0.00246313 0)
(1.84201 0.00270418 3.2406e-20)
(1.84391 0.00322322 0)
(1.84573 0.00377705 -3.11041e-20)
(1.84638 0.00491105 0)
(1.84635 0.00582333 0)
(1.84453 0.00806995 5.83624e-20)
(1.84031 0.00921863 -5.70978e-20)
(1.83516 0.0137962 0)
(1.82134 0.0145288 0)
(1.81469 0.0245124 0)
(1.77607 0.0222591 1.56419e-19)
(1.78102 0.0453553 0)
(1.67546 0.034349 -9.94647e-20)
(0.0775791 0.170797 -5.18145e-23)
(0.203073 0.289795 -1.07662e-19)
(0.299875 0.177218 0)
(0.369659 -0.00272803 1.06016e-19)
(0.469538 -0.213514 0)
(0.620588 -0.448199 0)
(0.800639 -0.680275 2.45236e-23)
(0.980843 -0.869614 -5.1256e-20)
(1.14267 -0.99469 -5.08155e-20)
(1.27866 -1.05276 -5.04279e-20)
(1.38996 -1.05444 0)
(1.48085 -1.01622 0)
(1.55685 -0.954661 4.90919e-20)
(1.62364 -0.88311 9.73278e-20)
(1.68634 -0.810454 -9.64715e-20)
(1.74889 -0.741629 0)
(1.81371 -0.6786 -9.47583e-20)
(1.88197 -0.62134 4.70158e-20)
(1.95373 -0.568669 0)
(2.02855 -0.518871 -9.2198e-20)
(2.10548 -0.470123 -4.57304e-20)
(2.18354 -0.420501 9.05162e-20)
(2.26128 -0.368368 4.48958e-20)
(2.33736 -0.312236 0)
(2.41018 -0.251108 -8.80784e-20)
(2.47818 -0.184293 -8.72997e-20)
(2.53994 -0.111451 0)
(2.59277 -0.0329308 -8.58089e-20)
(2.63685 0.0514129 0)
(2.67175 0.140204 -8.43807e-20)
(2.69853 0.235722 -4.19112e-20)
(2.71564 0.335364 0)
(2.72624 0.440128 0)
(2.7274 0.547993 0)
(2.72435 0.655095 0)
(2.70958 0.765748 0)
(2.68783 0.859229 0)
(2.64915 0.947399 -7.91502e-20)
(2.58539 0.997818 1.17764e-19)
(2.50144 0.998183 0)
(2.35217 0.999611 0)
(2.15741 0.97546 0)
(1.95297 0.884923 -1.32689e-23)
(1.6871 0.742102 -7.51083e-20)
(1.40156 0.564012 -1.48854e-19)
(1.19173 0.370142 1.47454e-19)
(1.05823 0.172699 7.3062e-20)
(0.962619 -0.0250682 -7.23791e-20)
(0.914792 -0.215384 -2.07373e-23)
(0.918008 -0.363275 -7.11524e-20)
(0.948235 -0.416664 0)
(0.996006 -0.432861 -6.99639e-20)
(1.08409 -0.510378 1.46654e-23)
(1.16409 -0.570381 0)
(1.14917 -0.409474 0)
(1.18039 -0.137327 6.76905e-20)
(1.38831 -0.273625 0)
(1.51284 -0.732116 0)
(1.26148 -0.555425 -6.58641e-20)
(0.462235 0.376172 -1.30414e-19)
(-0.470231 1.11743 6.44504e-20)
(-1.27933 1.56181 0)
(-1.94624 1.78116 -6.29499e-20)
(-2.43095 1.87436 0)
(-2.78202 1.83791 -6.06284e-20)
(-3.0345 1.68987 -6.06193e-20)
(-3.24314 1.49494 1.18557e-19)
(-3.42853 1.29031 5.79221e-20)
(-3.60397 1.09947 0)
(-3.77172 0.93134 -1.12983e-19)
(-3.9315 0.787443 0)
(-4.08159 0.665915 -1.6413e-19)
(-4.22034 0.563617 -1.07444e-19)
(-4.34692 0.477181 -1.05683e-19)
(-4.46083 0.403428 1.03979e-19)
(-4.56205 0.339448 -1.53652e-19)
(-4.65057 0.282697 0)
(-4.72635 0.230995 0)
(-4.78902 0.182548 9.78404e-20)
(-4.83796 0.136062 1.4486e-19)
(-4.87251 0.0907627 0)
(-4.89202 0.0462453 -4.71407e-20)
(-4.89596 0.00241831 0)
(-4.884 -0.0403966 1.38051e-19)
(-4.85622 -0.0817002 1.89001e-22)
(-4.81304 -0.120739 -1.75085e-22)
(-4.75527 -0.15686 -8.94283e-20)
(-4.68397 -0.189584 0)
(-4.60046 -0.218678 8.80719e-20)
(-4.50612 -0.244137 1.12767e-22)
(-4.40233 -0.266237 0)
(-4.2903 -0.2855 0)
(-4.17095 -0.30266 0)
(-4.04484 -0.318597 -8.54195e-20)
(-3.9121 -0.334234 0)
(-3.77242 -0.350442 0)
(-3.62511 -0.367908 0)
(-3.4692 -0.387022 0)
(-3.3036 -0.407786 0)
(-3.12734 -0.429768 -8.25882e-20)
(-2.93974 -0.452115 0)
(-2.74068 -0.473653 -8.1816e-20)
(-2.53065 -0.493029 -8.13841e-20)
(-2.31084 -0.508921 8.09399e-20)
(-2.08301 -0.520227 0)
(-1.84941 -0.526197 7.99863e-20)
(-1.61256 -0.526552 0)
(-1.37484 -0.52153 7.89067e-20)
(-1.13832 -0.511653 -7.83112e-20)
(-0.904754 -0.497644 -2.32962e-19)
(-0.675669 -0.48034 0)
(-0.452191 -0.460659 -2.2884e-19)
(-0.235059 -0.439327 -7.55038e-20)
(-0.0255077 -0.416844 0)
(0.175596 -0.394429 -1.47894e-19)
(0.36838 -0.37066 -1.46202e-19)
(0.552378 -0.346017 2.16745e-19)
(0.72661 -0.320402 0)
(0.89007 -0.293801 7.05051e-20)
(1.04166 -0.266371 6.96144e-20)
(1.18026 -0.238541 2.06131e-19)
(1.30481 -0.211044 0)
(1.41445 -0.184805 0)
(1.5089 -0.160647 0)
(1.58892 -0.139051 6.51148e-20)
(1.65639 -0.120173 0)
(1.71392 -0.10389 0)
(1.76414 -0.0897773 -6.24742e-20)
(1.80934 -0.077364 -6.16014e-20)
(1.85114 -0.0662375 0)
(1.89042 -0.0557172 0)
(1.92758 -0.045157 -1.18055e-19)
(1.96287 -0.0344611 0)
(1.99612 -0.0237028 1.14699e-19)
(2.02694 -0.0129407 1.13035e-19)
(2.05496 -0.00254819 0)
(2.07945 0.00708647 0)
(2.09981 0.015604 -1.08143e-19)
(2.11569 0.022641 -4.71433e-24)
(2.12708 0.027968 -3.82459e-24)
(2.13423 0.0314971 0)
(2.13757 0.0332889 -2.03612e-19)
(2.13765 0.0335344 0)
(2.13509 0.03253 0)
(2.13054 0.0306345 0)
(2.12466 0.0281966 9.56712e-20)
(2.1181 0.0255044 0)
(2.11141 0.0227661 -1.85349e-19)
(2.105 0.0201151 -9.11926e-20)
(2.09917 0.0176285 0)
(2.09405 0.0153456 -8.82604e-20)
(2.08968 0.0132813 0)
(2.08605 0.0114308 0)
(2.08307 0.00977418 -2.5181e-19)
(2.08067 0.00828274 1.65028e-19)
(2.07877 0.00692593 0)
(2.07732 0.00567757 1.59392e-19)
(2.07634 0.00451703 -7.82999e-20)
(2.07586 0.00343252 0)
(2.07596 0.00241896 0)
(2.07677 0.00148228 0)
(2.07838 0.000626942 -2.18401e-19)
(2.08091 -0.000122142 0)
(2.08441 -0.000759431 -7.01003e-20)
(2.08893 -0.0012309 0)
(2.09439 -0.00155698 0)
(2.10077 -0.00161506 0)
(2.10781 -0.00151663 0)
(2.11554 -0.000975854 0)
(2.12338 -0.000347019 0)
(2.13176 0.00111398 -1.21802e-19)
(2.13929 0.0023367 0)
(2.14761 0.00533715 -5.83475e-20)
(2.15321 0.00709384 1.71241e-19)
(2.16124 0.0130288 0)
(2.16206 0.0148796 0)
(2.17084 0.0269122 -1.06674e-19)
(2.16092 0.027254 -1.04241e-19)
(2.17461 0.0520854 1.01791e-19)
(2.14198 0.0483621 9.94278e-20)
(0.00443709 -0.101837 1.62967e-19)
(0.0688703 -0.00529732 1.61784e-19)
(0.160953 -0.0470668 1.07041e-19)
(0.352098 -0.294408 5.31127e-20)
(0.577822 -0.620523 0)
(0.794006 -0.914947 -1.04248e-19)
(0.964547 -1.12353 5.16769e-20)
(1.07309 -1.23004 0)
(1.12217 -1.24634 5.08055e-20)
(1.1268 -1.19828 0)
(1.10672 -1.11574 -9.99027e-20)
(1.08008 -1.02386 0)
(1.05958 -0.938685 -4.91581e-20)
(1.05193 -0.86734 -9.74777e-20)
(1.05937 -0.810514 9.66325e-20)
(1.08146 -0.765563 0)
(1.11648 -0.728672 9.49291e-20)
(1.1625 -0.696142 0)
(1.21737 -0.664808 0)
(1.27906 -0.632006 9.23696e-20)
(1.34608 -0.595592 0)
(1.41736 -0.553783 -6.42895e-23)
(1.49162 -0.505216 0)
(1.56747 -0.448735 0)
(1.64379 -0.383708 6.28294e-23)
(1.71895 -0.310014 8.74574e-20)
(1.79232 -0.227538 8.66338e-20)
(1.86257 -0.137528 8.59576e-20)
(1.9286 -0.0397949 0)
(1.99143 0.0634882 1.69006e-19)
(2.0512 0.17092 0)
(2.10541 0.28016 8.30946e-20)
(2.1567 0.390406 0)
(2.20765 0.502172 0)
(2.26041 0.611048 -8.11238e-20)
(2.31623 0.722026 0)
(2.37281 0.824984 7.98177e-20)
(2.42948 0.920511 3.6867e-23)
(2.47898 1.00485 -1.56997e-19)
(2.51938 1.05663 1.55633e-19)
(2.53733 1.09168 0)
(2.52531 1.10046 0)
(2.48672 1.05355 7.58734e-20)
(2.41221 0.959268 0)
(2.31061 0.828802 7.42655e-20)
(2.20274 0.646494 -7.35579e-20)
(2.09541 0.423147 -7.28746e-20)
(1.98402 0.202415 0)
(1.88806 -0.028674 7.16191e-20)
(1.80448 -0.249739 7.10198e-20)
(1.70426 -0.36381 -1.41031e-19)
(1.64482 -0.436757 6.98637e-20)
(1.65572 -0.588346 6.92817e-20)
(1.64345 -0.590089 0)
(1.57055 -0.329251 0)
(1.63882 -0.363632 -6.76279e-20)
(1.67282 -0.571054 0)
(0.966655 0.0221999 0)
(-0.128622 0.974208 1.31704e-19)
(-1.02493 1.6358 1.30083e-19)
(-1.72366 2.03222 0)
(-2.2334 2.24385 0)
(-2.58345 2.29034 0)
(-2.81133 2.22543 0)
(-2.96721 2.07757 1.21937e-19)
(-3.09285 1.88249 -1.19419e-19)
(-3.21362 1.67333 -1.18527e-19)
(-3.33898 1.46904 -2.32627e-19)
(-3.47028 1.27995 0)
(-3.60513 1.10971 6.69182e-22)
(-3.73872 0.958564 0)
(-3.86757 0.825626 1.0927e-19)
(-3.98893 0.70953 4.68768e-22)
(-4.10177 0.608452 1.05707e-19)
(-4.20554 0.520063 -1.04007e-19)
(-4.30005 0.441706 3.50359e-22)
(-4.38488 0.370678 0)
(-4.4593 0.304519 -9.8983e-20)
(-4.52226 0.241194 -9.78755e-20)
(-4.57256 0.179228 -1.92766e-19)
(-4.60881 0.117726 0)
(-4.6298 0.0562747 9.38151e-20)
(-4.63469 -0.00490131 0)
(-4.62283 -0.0650456 -1.83737e-19)
(-4.59403 -0.123042 9.10757e-20)
(-4.54872 -0.177765 -9.02291e-20)
(-4.48787 -0.228253 8.94562e-20)
(-4.41288 -0.273756 1.77117e-19)
(-4.32542 -0.313872 -8.80965e-20)
(-4.22728 -0.348605 8.74906e-20)