# vtk DataFile Version 2.0
sampleSurface
ASCII
DATASET POLYDATA
POINTS 502 double
-0.0206 0 -0.0005
-0.0190172 0 -0.0005
-0.0190172 0 0.0005
-0.0206 0 0.0005
-0.0174976 0 -0.0005
-0.0174976 0 0.0005
-0.0160387 0 -0.0005
-0.0160387 0 0.0005
-0.0146381 0 -0.0005
-0.0146381 0 0.0005
-0.0132934 0 -0.0005
-0.0132934 0 0.0005
-0.0120025 0 -0.0005
-0.0120025 0 0.0005
-0.0107632 0 -0.0005
-0.0107632 0 0.0005
-0.00957337 0 -0.0005
-0.00957337 0 0.0005
-0.00843108 0 -0.0005
-0.00843108 0 0.0005
-0.00733443 0 -0.0005
-0.00733443 0 0.0005
-0.0062816 0 -0.0005
-0.0062816 0 0.0005
-0.00527083 0 -0.0005
-0.00527083 0 0.0005
-0.00430044 0 -0.0005
-0.00430044 0 0.0005
-0.00336883 0 -0.0005
-0.00336883 0 0.0005
-0.00247443 0 -0.0005
-0.00247443 0 0.0005
-0.00161577 0 -0.0005
-0.00161577 0 0.0005
-0.000791418 0 -0.0005
-0.000791418 0 0.0005
0 0 -0.0005
0 0 0.0005
0 -0.0254 -0.0005
0 -0.0254 0.0005
0 -0.0242711 0.0005
0 -0.0242711 -0.0005
0 -0.0231422 0.0005
0 -0.0231422 -0.0005
0 -0.0220133 0.0005
0 -0.0220133 -0.0005
0 -0.0208844 0.0005
0 -0.0208844 -0.0005
0 -0.0197556 0.0005
0 -0.0197556 -0.0005
0 -0.0186267 0.0005
0 -0.0186267 -0.0005
0 -0.0174978 0.0005
0 -0.0174978 -0.0005
0 -0.0163689 0.0005
0 -0.0163689 -0.0005
0 -0.01524 0.0005
0 -0.01524 -0.0005
0 -0.0141111 0.0005
0 -0.0141111 -0.0005
0 -0.0129822 0.0005
0 -0.0129822 -0.0005
0 -0.0118533 0.0005
0 -0.0118533 -0.0005
0 -0.0107244 0.0005
0 -0.0107244 -0.0005
0 -0.00959556 0.0005
0 -0.00959556 -0.0005
0 -0.00846667 0.0005
0 -0.00846667 -0.0005
0 -0.00726604 0.0005
0 -0.00726604 -0.0005
0 -0.00618989 0.0005
0 -0.00618989 -0.0005
0 -0.00522531 0.0005
0 -0.00522531 -0.0005
0 -0.00436073 0.0005
0 -0.00436073 -0.0005
0 -0.00358579 0.0005
0 -0.00358579 -0.0005
0 -0.00289118 0.0005
0 -0.00289118 -0.0005
0 -0.0022686 0.0005
0 -0.0022686 -0.0005
0 -0.00171055 0.0005
0 -0.00171055 -0.0005
0 -0.00121037 0.0005
0 -0.00121037 -0.0005
0 -0.000762037 0.0005
0 -0.000762037 -0.0005
0 -0.000360188 0.0005
0 -0.000360188 -0.0005
0.000528387 -0.0254 -0.0005
0.000528387 -0.0254 0.0005
0.00106088 -0.0254 -0.0005
0.00106088 -0.0254 0.0005
0.00159752 -0.0254 -0.0005
0.00159752 -0.0254 0.0005
0.00213833 -0.0254 -0.0005
0.00213833 -0.0254 0.0005
0.00268334 -0.0254 -0.0005
0.00268334 -0.0254 0.0005
0.00323259 -0.0254 -0.0005
0.00323259 -0.0254 0.0005
0.00378611 -0.0254 -0.0005
0.00378611 -0.0254 0.0005
0.00434393 -0.0254 -0.0005
0.00434393 -0.0254 0.0005
0.00490609 -0.0254 -0.0005
0.00490609 -0.0254 0.0005
0.00547262 -0.0254 -0.0005
0.00547262 -0.0254 0.0005
0.00604356 -0.0254 -0.0005
0.00604356 -0.0254 0.0005
0.00661893 -0.0254 -0.0005
0.00661893 -0.0254 0.0005
0.00719878 -0.0254 -0.0005
0.00719878 -0.0254 0.0005
0.00778313 -0.0254 -0.0005
0.00778313 -0.0254 0.0005
0.00837203 -0.0254 -0.0005
0.00837203 -0.0254 0.0005
0.00896551 -0.0254 -0.0005
0.00896551 -0.0254 0.0005
0.0095636 -0.0254 -0.0005
0.0095636 -0.0254 0.0005
0.0101663 -0.0254 -0.0005
0.0101663 -0.0254 0.0005
0.0107738 -0.0254 -0.0005
0.0107738 -0.0254 0.0005
0.0113859 -0.0254 -0.0005
0.0113859 -0.0254 0.0005
0.0120028 -0.0254 -0.0005
0.0120028 -0.0254 0.0005
0.0126245 -0.0254 -0.0005
0.0126245 -0.0254 0.0005
0.0132511 -0.0254 -0.0005
0.0132511 -0.0254 0.0005
0.0138825 -0.0254 -0.0005
0.0138825 -0.0254 0.0005
0.0145188 -0.0254 -0.0005
0.0145188 -0.0254 0.0005
0.0151601 -0.0254 -0.0005
0.0151601 -0.0254 0.0005
0.0158063 -0.0254 -0.0005
0.0158063 -0.0254 0.0005
0.0164576 -0.0254 -0.0005
0.0164576 -0.0254 0.0005
0.0171139 -0.0254 -0.0005
0.0171139 -0.0254 0.0005
0.0177754 -0.0254 -0.0005
0.0177754 -0.0254 0.0005
0.018442 -0.0254 -0.0005
0.018442 -0.0254 0.0005
0.0191137 -0.0254 -0.0005
0.0191137 -0.0254 0.0005
0.0197907 -0.0254 -0.0005
0.0197907 -0.0254 0.0005
0.020473 -0.0254 -0.0005
0.020473 -0.0254 0.0005
0.0211606 -0.0254 -0.0005
0.0211606 -0.0254 0.0005
0.0218535 -0.0254 -0.0005
0.0218535 -0.0254 0.0005
0.0225517 -0.0254 -0.0005
0.0225517 -0.0254 0.0005
0.0232555 -0.0254 -0.0005
0.0232555 -0.0254 0.0005
0.0239647 -0.0254 -0.0005
0.0239647 -0.0254 0.0005
0.0246794 -0.0254 -0.0005
0.0246794 -0.0254 0.0005
0.0253996 -0.0254 -0.0005
0.0253996 -0.0254 0.0005
0.0261255 -0.0254 -0.0005
0.0261255 -0.0254 0.0005
0.026857 -0.0254 -0.0005
0.026857 -0.0254 0.0005
0.0275942 -0.0254 -0.0005
0.0275942 -0.0254 0.0005
0.0283371 -0.0254 -0.0005
0.0283371 -0.0254 0.0005
0.0290858 -0.0254 -0.0005
0.0290858 -0.0254 0.0005
0.0298403 -0.0254 -0.0005
0.0298403 -0.0254 0.0005
0.0306007 -0.0254 -0.0005
0.0306007 -0.0254 0.0005
0.031367 -0.0254 -0.0005
0.031367 -0.0254 0.0005
0.0321393 -0.0254 -0.0005
0.0321393 -0.0254 0.0005
0.0329175 -0.0254 -0.0005
0.0329175 -0.0254 0.0005
0.0337019 -0.0254 -0.0005
0.0337019 -0.0254 0.0005
0.0344923 -0.0254 -0.0005
0.0344923 -0.0254 0.0005
0.0352888 -0.0254 -0.0005
0.0352888 -0.0254 0.0005
0.0360916 -0.0254 -0.0005
0.0360916 -0.0254 0.0005
0.0369006 -0.0254 -0.0005
0.0369006 -0.0254 0.0005
0.0377158 -0.0254 -0.0005
0.0377158 -0.0254 0.0005
0.0385375 -0.0254 -0.0005
0.0385375 -0.0254 0.0005
0.0393655 -0.0254 -0.0005
0.0393655 -0.0254 0.0005
0.0401999 -0.0254 -0.0005
0.0401999 -0.0254 0.0005
0.0410408 -0.0254 -0.0005
0.0410408 -0.0254 0.0005
0.0418883 -0.0254 -0.0005
0.0418883 -0.0254 0.0005
0.0427424 -0.0254 -0.0005
0.0427424 -0.0254 0.0005
0.0436031 -0.0254 -0.0005
0.0436031 -0.0254 0.0005
0.0444704 -0.0254 -0.0005
0.0444704 -0.0254 0.0005
0.0453446 -0.0254 -0.0005
0.0453446 -0.0254 0.0005
0.0462255 -0.0254 -0.0005
0.0462255 -0.0254 0.0005
0.0471133 -0.0254 -0.0005
0.0471133 -0.0254 0.0005
0.048008 -0.0254 -0.0005
0.048008 -0.0254 0.0005
0.0489096 -0.0254 -0.0005
0.0489096 -0.0254 0.0005
0.0498183 -0.0254 -0.0005
0.0498183 -0.0254 0.0005
0.050734 -0.0254 -0.0005
0.050734 -0.0254 0.0005
0.0516568 -0.0254 -0.0005
0.0516568 -0.0254 0.0005
0.0525868 -0.0254 -0.0005
0.0525868 -0.0254 0.0005
0.053524 -0.0254 -0.0005
0.053524 -0.0254 0.0005
0.0544686 -0.0254 -0.0005
0.0544686 -0.0254 0.0005
0.0554204 -0.0254 -0.0005
0.0554204 -0.0254 0.0005
0.0563797 -0.0254 -0.0005
0.0563797 -0.0254 0.0005
0.0573464 -0.0254 -0.0005
0.0573464 -0.0254 0.0005
0.0583206 -0.0254 -0.0005
0.0583206 -0.0254 0.0005
0.0593025 -0.0254 -0.0005
0.0593025 -0.0254 0.0005
0.0602919 -0.0254 -0.0005
0.0602919 -0.0254 0.0005
0.0612891 -0.0254 -0.0005
0.0612891 -0.0254 0.0005
0.0622939 -0.0254 -0.0005
0.0622939 -0.0254 0.0005
0.0633067 -0.0254 -0.0005
0.0633067 -0.0254 0.0005
0.0643272 -0.0254 -0.0005
0.0643272 -0.0254 0.0005
0.0653557 -0.0254 -0.0005
0.0653557 -0.0254 0.0005
0.0663923 -0.0254 -0.0005
0.0663923 -0.0254 0.0005
0.0674368 -0.0254 -0.0005
0.0674368 -0.0254 0.0005
0.0684895 -0.0254 -0.0005
0.0684895 -0.0254 0.0005
0.0695504 -0.0254 -0.0005
0.0695504 -0.0254 0.0005
0.0706195 -0.0254 -0.0005
0.0706195 -0.0254 0.0005
0.0716969 -0.0254 -0.0005
0.0716969 -0.0254 0.0005
0.0727828 -0.0254 -0.0005
0.0727828 -0.0254 0.0005
0.073877 -0.0254 -0.0005
0.073877 -0.0254 0.0005
0.0749798 -0.0254 -0.0005
0.0749798 -0.0254 0.0005
0.0760911 -0.0254 -0.0005
0.0760911 -0.0254 0.0005
0.0772111 -0.0254 -0.0005
0.0772111 -0.0254 0.0005
0.0783398 -0.0254 -0.0005
0.0783398 -0.0254 0.0005
0.0794772 -0.0254 -0.0005
0.0794772 -0.0254 0.0005
0.0806235 -0.0254 -0.0005
0.0806235 -0.0254 0.0005
0.0817787 -0.0254 -0.0005
0.0817787 -0.0254 0.0005
0.0829429 -0.0254 -0.0005
0.0829429 -0.0254 0.0005
0.0841162 -0.0254 -0.0005
0.0841162 -0.0254 0.0005
0.0852985 -0.0254 -0.0005
0.0852985 -0.0254 0.0005
0.0864901 -0.0254 -0.0005
0.0864901 -0.0254 0.0005
0.0876909 -0.0254 -0.0005
0.0876909 -0.0254 0.0005
0.0889011 -0.0254 -0.0005
0.0889011 -0.0254 0.0005
0.0901207 -0.0254 -0.0005
0.0901207 -0.0254 0.0005
0.0913497 -0.0254 -0.0005
0.0913497 -0.0254 0.0005
0.0925883 -0.0254 -0.0005
0.0925883 -0.0254 0.0005
0.0938366 -0.0254 -0.0005
0.0938366 -0.0254 0.0005
0.0950945 -0.0254 -0.0005
0.0950945 -0.0254 0.0005
0.0963622 -0.0254 -0.0005
0.0963622 -0.0254 0.0005
0.0976398 -0.0254 -0.0005
0.0976398 -0.0254 0.0005
0.0989273 -0.0254 -0.0005
0.0989273 -0.0254 0.0005
0.100225 -0.0254 -0.0005
0.100225 -0.0254 0.0005
0.101532 -0.0254 -0.0005
0.101532 -0.0254 0.0005
0.10285 -0.0254 -0.0005
0.10285 -0.0254 0.0005
0.104178 -0.0254 -0.0005
0.104178 -0.0254 0.0005
0.105517 -0.0254 -0.0005
0.105517 -0.0254 0.0005
0.106865 -0.0254 -0.0005
0.106865 -0.0254 0.0005
0.108225 -0.0254 -0.0005
0.108225 -0.0254 0.0005
0.109594 -0.0254 -0.0005
0.109594 -0.0254 0.0005
0.110975 -0.0254 -0.0005
0.110975 -0.0254 0.0005
0.112366 -0.0254 -0.0005
0.112366 -0.0254 0.0005
0.113768 -0.0254 -0.0005
0.113768 -0.0254 0.0005
0.115181 -0.0254 -0.0005
0.115181 -0.0254 0.0005
0.116605 -0.0254 -0.0005
0.116605 -0.0254 0.0005
0.11804 -0.0254 -0.0005
0.11804 -0.0254 0.0005
0.119486 -0.0254 -0.0005
0.119486 -0.0254 0.0005
0.120943 -0.0254 -0.0005
0.120943 -0.0254 0.0005
0.122412 -0.0254 -0.0005
0.122412 -0.0254 0.0005
0.123892 -0.0254 -0.0005
0.123892 -0.0254 0.0005
0.125384 -0.0254 -0.0005
0.125384 -0.0254 0.0005
0.126887 -0.0254 -0.0005
0.126887 -0.0254 0.0005
0.128402 -0.0254 -0.0005
0.128402 -0.0254 0.0005
0.129928 -0.0254 -0.0005
0.129928 -0.0254 0.0005
0.131467 -0.0254 -0.0005
0.131467 -0.0254 0.0005
0.133017 -0.0254 -0.0005
0.133017 -0.0254 0.0005
0.13458 -0.0254 -0.0005
0.13458 -0.0254 0.0005
0.136155 -0.0254 -0.0005
0.136155 -0.0254 0.0005
0.137742 -0.0254 -0.0005
0.137742 -0.0254 0.0005
0.139341 -0.0254 -0.0005
0.139341 -0.0254 0.0005
0.140953 -0.0254 -0.0005
0.140953 -0.0254 0.0005
0.142577 -0.0254 -0.0005
0.142577 -0.0254 0.0005
0.144214 -0.0254 -0.0005
0.144214 -0.0254 0.0005
0.145863 -0.0254 -0.0005
0.145863 -0.0254 0.0005
0.147526 -0.0254 -0.0005
0.147526 -0.0254 0.0005
0.149201 -0.0254 -0.0005
0.149201 -0.0254 0.0005
0.15089 -0.0254 -0.0005
0.15089 -0.0254 0.0005
0.152591 -0.0254 -0.0005
0.152591 -0.0254 0.0005
0.154306 -0.0254 -0.0005
0.154306 -0.0254 0.0005
0.156034 -0.0254 -0.0005
0.156034 -0.0254 0.0005
0.157775 -0.0254 -0.0005
0.157775 -0.0254 0.0005
0.159531 -0.0254 -0.0005
0.159531 -0.0254 0.0005
0.161299 -0.0254 -0.0005
0.161299 -0.0254 0.0005
0.163082 -0.0254 -0.0005
0.163082 -0.0254 0.0005
0.164878 -0.0254 -0.0005
0.164878 -0.0254 0.0005
0.166688 -0.0254 -0.0005
0.166688 -0.0254 0.0005
0.168513 -0.0254 -0.0005
0.168513 -0.0254 0.0005
0.170351 -0.0254 -0.0005
0.170351 -0.0254 0.0005
0.172204 -0.0254 -0.0005
0.172204 -0.0254 0.0005
0.174071 -0.0254 -0.0005
0.174071 -0.0254 0.0005
0.175953 -0.0254 -0.0005
0.175953 -0.0254 0.0005
0.177849 -0.0254 -0.0005
0.177849 -0.0254 0.0005
0.17976 -0.0254 -0.0005
0.17976 -0.0254 0.0005
0.181686 -0.0254 -0.0005
0.181686 -0.0254 0.0005
0.183627 -0.0254 -0.0005
0.183627 -0.0254 0.0005
0.185583 -0.0254 -0.0005
0.185583 -0.0254 0.0005
0.187555 -0.0254 -0.0005
0.187555 -0.0254 0.0005
0.189541 -0.0254 -0.0005
0.189541 -0.0254 0.0005
0.191543 -0.0254 -0.0005
0.191543 -0.0254 0.0005
0.193561 -0.0254 -0.0005
0.193561 -0.0254 0.0005
0.195594 -0.0254 -0.0005
0.195594 -0.0254 0.0005
0.197643 -0.0254 -0.0005
0.197643 -0.0254 0.0005
0.199708 -0.0254 -0.0005
0.199708 -0.0254 0.0005
0.201789 -0.0254 -0.0005
0.201789 -0.0254 0.0005
0.203886 -0.0254 -0.0005
0.203886 -0.0254 0.0005
0.206 -0.0254 -0.0005
0.206 -0.0254 0.0005
0.208047 -0.0251856 -0.0005
0.208047 -0.0251856 0.0005
0.210173 -0.0249628 -0.0005
0.210173 -0.0249628 0.0005
0.212382 -0.0247314 -0.0005
0.212382 -0.0247314 0.0005
0.214677 -0.024491 -0.0005
0.214677 -0.024491 0.0005
0.217061 -0.0242412 -0.0005
0.217061 -0.0242412 0.0005
0.219538 -0.0239817 -0.0005
0.219538 -0.0239817 0.0005
0.222112 -0.0237121 -0.0005
0.222112 -0.0237121 0.0005
0.224785 -0.023432 -0.0005
0.224785 -0.023432 0.0005
0.227563 -0.023141 -0.0005
0.227563 -0.023141 0.0005
0.230449 -0.0228387 -0.0005
0.230449 -0.0228387 0.0005
0.233447 -0.0225246 -0.0005
0.233447 -0.0225246 0.0005
0.236562 -0.0221983 -0.0005
0.236562 -0.0221983 0.0005
0.239797 -0.0218593 -0.0005
0.239797 -0.0218593 0.0005
0.243159 -0.0215071 -0.0005
0.243159 -0.0215071 0.0005
0.246652 -0.0211412 -0.0005
0.246652 -0.0211412 0.0005
0.250281 -0.0207611 -0.0005
0.250281 -0.0207611 0.0005
0.254051 -0.0203661 -0.0005
0.254051 -0.0203661 0.0005
0.257967 -0.0199558 -0.0005
0.257967 -0.0199558 0.0005
0.262036 -0.0195295 -0.0005
0.262036 -0.0195295 0.0005
0.266264 -0.0190867 -0.0005
0.266264 -0.0190867 0.0005
0.270655 -0.0186266 -0.0005
0.270655 -0.0186266 0.0005
0.275218 -0.0181486 -0.0005
0.275218 -0.0181486 0.0005
0.279959 -0.017652 -0.0005
0.279959 -0.017652 0.0005
0.284883 -0.017136 -0.0005
0.284883 -0.017136 0.0005
0.29 -0.0166 -0.0005
0.29 -0.0166 0.0005

POLYGONS 250 1250
4 0 1 2 3
4 1 4 5 2
4 4 6 7 5
4 6 8 9 7
4 8 10 11 9
4 10 12 13 11
4 12 14 15 13
4 14 16 17 15
4 16 18 19 17
4 18 20 21 19
4 20 22 23 21
4 22 24 25 23
4 24 26 27 25
4 26 28 29 27
4 28 30 31 29
4 30 32 33 31
4 32 34 35 33
4 34 36 37 35
4 38 39 40 41
4 41 40 42 43
4 43 42 44 45
4 45 44 46 47
4 47 46 48 49
4 49 48 50 51
4 51 50 52 53
4 53 52 54 55
4 55 54 56 57
4 57 56 58 59
4 59 58 60 61
4 61 60 62 63
4 63 62 64 65
4 65 64 66 67
4 67 66 68 69
4 69 68 70 71
4 71 70 72 73
4 73 72 74 75
4 75 74 76 77
4 77 76 78 79
4 79 78 80 81
4 81 80 82 83
4 83 82 84 85
4 85 84 86 87
4 87 86 88 89
4 89 88 90 91
4 91 90 37 36
4 38 92 93 39
4 92 94 95 93
4 94 96 97 95
4 96 98 99 97
4 98 100 101 99
4 100 102 103 101
4 102 104 105 103
4 104 106 107 105
4 106 108 109 107
4 108 110 111 109
4 110 112 113 111
4 112 114 115 113
4 114 116 117 115
4 116 118 119 117
4 118 120 121 119
4 120 122 123 121
4 122 124 125 123
4 124 126 127 125
4 126 128 129 127
4 128 130 131 129
4 130 132 133 131
4 132 134 135 133
4 134 136 137 135
4 136 138 139 137
4 138 140 141 139
4 140 142 143 141
4 142 144 145 143
4 144 146 147 145
4 146 148 149 147
4 148 150 151 149
4 150 152 153 151
4 152 154 155 153
4 154 156 157 155
4 156 158 159 157
4 158 160 161 159
4 160 162 163 161
4 162 164 165 163
4 164 166 167 165
4 166 168 169 167
4 168 170 171 169
4 170 172 173 171
4 172 174 175 173
4 174 176 177 175
4 176 178 179 177
4 178 180 181 179
4 180 182 183 181
4 182 184 185 183
4 184 186 187 185
4 186 188 189 187
4 188 190 191 189
4 190 192 193 191
4 192 194 195 193
4 194 196 197 195
4 196 198 199 197
4 198 200 201 199
4 200 202 203 201
4 202 204 205 203
4 204 206 207 205
4 206 208 209 207
4 208 210 211 209
4 210 212 213 211
4 212 214 215 213
4 214 216 217 215
4 216 218 219 217
4 218 220 221 219
4 220 222 223 221
4 222 224 225 223
4 224 226 227 225
4 226 228 229 227
4 228 230 231 229
4 230 232 233 231
4 232 234 235 233
4 234 236 237 235
4 236 238 239 237
4 238 240 241 239
4 240 242 243 241
4 242 244 245 243
4 244 246 247 245
4 246 248 249 247
4 248 250 251 249
4 250 252 253 251
4 252 254 255 253
4 254 256 257 255
4 256 258 259 257
4 258 260 261 259
4 260 262 263 261
4 262 264 265 263
4 264 266 267 265
4 266 268 269 267
4 268 270 271 269
4 270 272 273 271
4 272 274 275 273
4 274 276 277 275
4 276 278 279 277
4 278 280 281 279
4 280 282 283 281
4 282 284 285 283
4 284 286 287 285
4 286 288 289 287
4 288 290 291 289
4 290 292 293 291
4 292 294 295 293
4 294 296 297 295
4 296 298 299 297
4 298 300 301 299
4 300 302 303 301
4 302 304 305 303
4 304 306 307 305
4 306 308 309 307
4 308 310 311 309
4 310 312 313 311
4 312 314 315 313
4 314 316 317 315
4 316 318 319 317
4 318 320 321 319
4 320 322 323 321
4 322 324 325 323
4 324 326 327 325
4 326 328 329 327
4 328 330 331 329
4 330 332 333 331
4 332 334 335 333
4 334 336 337 335
4 336 338 339 337
4 338 340 341 339
4 340 342 343 341
4 342 344 345 343
4 344 346 347 345
4 346 348 349 347
4 348 350 351 349
4 350 352 353 351
4 352 354 355 353
4 354 356 357 355
4 356 358 359 357
4 358 360 361 359
4 360 362 363 361
4 362 364 365 363
4 364 366 367 365
4 366 368 369 367
4 368 370 371 369
4 370 372 373 371
4 372 374 375 373
4 374 376 377 375
4 376 378 379 377
4 378 380 381 379
4 380 382 383 381
4 382 384 385 383
4 384 386 387 385
4 386 388 389 387
4 388 390 391 389
4 390 392 393 391
4 392 394 395 393
4 394 396 397 395
4 396 398 399 397
4 398 400 401 399
4 400 402 403 401
4 402 404 405 403
4 404 406 407 405
4 406 408 409 407
4 408 410 411 409
4 410 412 413 411
4 412 414 415 413
4 414 416 417 415
4 416 418 419 417
4 418 420 421 419
4 420 422 423 421
4 422 424 425 423
4 424 426 427 425
4 426 428 429 427
4 428 430 431 429
4 430 432 433 431
4 432 434 435 433
4 434 436 437 435
4 436 438 439 437
4 438 440 441 439
4 440 442 443 441
4 442 444 445 443
4 444 446 447 445
4 446 448 449 447
4 448 450 451 449
4 450 452 453 451
4 452 454 455 453
4 454 456 457 455
4 456 458 459 457
4 458 460 461 459
4 460 462 463 461
4 462 464 465 463
4 464 466 467 465
4 466 468 469 467
4 468 470 471 469
4 470 472 473 471
4 472 474 475 473
4 474 476 477 475
4 476 478 479 477
4 478 480 481 479
4 480 482 483 481
4 482 484 485 483
4 484 486 487 485
4 486 488 489 487
4 488 490 491 489
4 490 492 493 491
4 492 494 495 493
4 494 496 497 495
4 496 498 499 497
4 498 500 501 499
POINT_DATA 502
FIELD attributes 1
U 3 502 float
1.68036 0.119731 0.0204599
0.84129 0.0594612 0.0100826
0.84129 0.0594612 0.0100826
1.68036 0.119731 0.0204599
0.0244174 0.000836793 0
0.0244174 0.000836793 0
0.0215271 0.000669995 0
0.0215271 0.000669995 0
0.0191683 0.000494382 0
0.0191683 0.000494382 0
0.01717 0.0003849 0
0.01717 0.0003849 0
0.0153618 0.000336827 0
0.0153618 0.000336827 0
0.0136199 0.000319887 0
0.0136199 0.000319887 0
0.0118663 0.00030667 0
0.0118663 0.00030667 0
0.0101382 0.000270319 0
0.0101382 0.000270319 0
0.00855608 0.000206208 0
0.00855608 0.000206208 0
0.0072151 0.000133328 0
0.0072151 0.000133328 0
0.00613145 7.22323e-05 0
0.00613145 7.22323e-05 0
0.0052824 3.4188e-05 0
0.0052824 3.4188e-05 0
0.00459152 1.41874e-05 0
0.00459152 1.41874e-05 0
0.00403148 4.64068e-06 0
0.00403148 4.64068e-06 0
0.00351841 -6.82116e-06 0
0.00351841 -6.82116e-06 0
0.00308106 -5.817e-05 0
0.00308106 -5.817e-05 0
0.00143915 2.06858e-05 0
0.00143915 2.06858e-05 0
-9.46239e-05 0.000196745 -2.19037e-23
-9.46239e-05 0.000196745 -2.19037e-23
-0.000119888 0.000588052 5.92919e-23
-0.000119888 0.000588052 5.92919e-23
-0.00013038 0.00104201 7.03223e-23
-0.00013038 0.00104201 7.03223e-23
-6.77175e-05 0.00093853 -1.40883e-22
-6.77175e-05 0.00093853 -1.40883e-22
0.000100919 0.000260514 -4.69465e-23
0.000100919 0.000260514 -4.69465e-23
0.000320966 -0.00111617 9.40149e-23
0.000320966 -0.00111617 9.40149e-23
0.000434228 -0.00289243 0
0.000434228 -0.00289243 0
0.000403717 -0.00452133 1.90316e-22
0.000403717 -0.00452133 1.90316e-22
0.000303325 -0.00573237 5.90313e-26
0.000303325 -0.00573237 5.90313e-26
0.000193329 -0.00650879 -1.90257e-22
0.000193329 -0.00650879 -1.90257e-22
8.89759e-05 -0.00688784 1.91209e-22
8.89759e-05 -0.00688784 1.91209e-22
-4.68643e-06 -0.00691844 -1.20652e-28
-4.68643e-06 -0.00691844 -1.20652e-28
-8.23033e-05 -0.00667289 -1.91209e-22
-8.23033e-05 -0.00667289 -1.91209e-22
-0.000140672 -0.0062284 -1.90182e-22
-0.000140672 -0.0062284 -1.90182e-22
-0.00016677 -0.0056781 5.91123e-26
-0.00016677 -0.0056781 5.91123e-26
-0.000133185 -0.00516396 1.93612e-22
-0.000133185 -0.00516396 1.93612e-22
-2.38868e-05 -0.00485164 0
-2.38868e-05 -0.00485164 0
5.94712e-05 -0.00480667 0
5.94712e-05 -0.00480667 0
-5.9312e-06 -0.00466872 0
-5.9312e-06 -0.00466872 0
-0.000143628 -0.00416207 0
-0.000143628 -0.00416207 0
-0.000207886 -0.00349906 0
-0.000207886 -0.00349906 0
-0.000233634 -0.00286388 0
-0.000233634 -0.00286388 0
-0.000286278 -0.00220962 0
-0.000286278 -0.00220962 0
-0.000337314 -0.001544 0
-0.000337314 -0.001544 0
-0.000356344 -0.000880392 0
-0.000356344 -0.000880392 0
-0.000221143 -0.000284834 0
-0.000221143 -0.000284834 0
5.97587e-05 4.77304e-05 0
5.97587e-05 4.77304e-05 0
-0.000162486 0.000149638 -9.24189e-26
-0.000162486 0.000149638 -9.24189e-26
-0.00021261 6.1873e-06 1.08874e-23
-0.00021261 6.1873e-06 1.08874e-23
-0.000100675 -0.000157465 0
-0.000100675 -0.000157465 0
0.000133178 -0.000263904 0
0.000133178 -0.000263904 0
0.000432435 -0.000321261 -1.05446e-23
0.000432435 -0.000321261 -1.05446e-23
0.000758014 -0.000343326 -1.05635e-23
0.000758014 -0.000343326 -1.05635e-23
0.00109032 -0.000342512 0
0.00109032 -0.000342512 0
0.00141748 -0.000328672 0
0.00141748 -0.000328672 0
0.00173102 -0.000307943 0
0.00173102 -0.000307943 0
0.00202632 -0.000283353 1.02131e-23
0.00202632 -0.000283353 1.02131e-23
0.00230054 -0.00025598 1.02326e-23
0.00230054 -0.00025598 1.02326e-23
0.00255085 -0.0002259 0
0.00255085 -0.0002259 0
0.00277411 -0.000192912 0
0.00277411 -0.000192912 0
0.00296655 -0.000156912 0
0.00296655 -0.000156912 0
0.00312423 -0.000117836 9.93626e-24
0.00312423 -0.000117836 9.93626e-24
0.00324295 -7.58719e-05 9.95633e-24
0.00324295 -7.58719e-05 9.95633e-24
0.00331922 -3.10867e-05 0
0.00331922 -3.10867e-05 0
0.00335069 1.62128e-05 0
0.00335069 1.62128e-05 0
0.00333326 6.52893e-05 0
0.00333326 6.52893e-05 0
0.00326555 0.000114869 0
0.00326555 0.000114869 0
0.00314889 0.000162892 0
0.00314889 0.000162892 0
0.00298557 0.000208531 0
0.00298557 0.000208531 0
0.00277934 0.000250085 9.35676e-24
0.00277934 0.000250085 9.35676e-24
0.00253264 0.000287797 1.02595e-25
0.00253264 0.000287797 1.02595e-25
0.00225264 0.00032109 -1.01538e-25
0.00225264 0.00032109 -1.01538e-25
0.00193885 0.000350031 1.83303e-23
0.00193885 0.000350031 1.83303e-23
0.00160048 0.000371884 9.13635e-24
0.00160048 0.000371884 9.13635e-24
0.00124202 0.000393109 0
0.00124202 0.000393109 0
0.000844336 0.000386843 -8.90368e-24
0.000844336 0.000386843 -8.90368e-24
0.000480671 0.000243814 -1.77656e-23
0.000480671 0.000243814 -1.77656e-23
0.0002412 -5.89964e-07 -8.86204e-24
0.0002412 -5.89964e-07 -8.86204e-24
0.000100034 -0.000154256 0
0.000100034 -0.000154256 0
3.86886e-05 -0.000176657 -8.63455e-24
3.86886e-05 -0.000176657 -8.63455e-24
0.000119515 -0.000150794 -8.65582e-24
0.000119515 -0.000150794 -8.65582e-24
0.000320443 -0.00011459 0
0.000320443 -0.00011459 0
0.000547906 -7.45446e-05 8.40593e-24
0.000547906 -7.45446e-05 8.40593e-24
0.000818055 -1.89935e-05 8.42729e-24
0.000818055 -1.89935e-05 8.42729e-24
0.00111828 -0.000122959 8.25198e-24
0.00111828 -0.000122959 8.25198e-24
0.00130932 -0.00062406 2.46216e-23
0.00130932 -0.00062406 2.46216e-23
0.00134516 -0.00105218 1.63911e-23
0.00134516 -0.00105218 1.63911e-23
0.00122731 -0.000705678 0
0.00122731 -0.000705678 0
0.000703625 0.000223169 0
0.000703625 0.000223169 0
-0.00025155 0.000815611 0
-0.00025155 0.000815611 0
-0.00124455 0.000828255 0
-0.00124455 0.000828255 0
-0.00212139 0.000730877 1.56696e-23
-0.00212139 0.000730877 1.56696e-23
-0.00293859 0.000671514 3.13534e-23
-0.00293859 0.000671514 3.13534e-23
-0.0037072 0.000627515 3.13125e-23
-0.0037072 0.000627515 3.13125e-23
-0.00443526 0.000595093 1.56728e-23
-0.00443526 0.000595093 1.56728e-23
-0.00512477 0.000565386 -1.56315e-23
-0.00512477 0.000565386 -1.56315e-23
-0.0057709 0.000531151 -1.56768e-23
-0.0057709 0.000531151 -1.56768e-23
-0.00636443 0.000487059 1.56381e-23
-0.00636443 0.000487059 1.56381e-23
-0.00689426 0.000431631 3.13167e-23
-0.00689426 0.000431631 3.13167e-23
-0.00735115 0.000367361 1.5679e-23
-0.00735115 0.000367361 1.5679e-23
-0.00772985 0.000299218 0
-0.00772985 0.000299218 0
-0.00803 0.000232525 0
-0.00803 0.000232525 0
-0.00825606 0.000171402 1.54756e-23
-0.00825606 0.000171402 1.54756e-23
-0.00841599 0.000118511 1.55235e-23
-0.00841599 0.000118511 1.55235e-23
-0.008519 7.50767e-05 0
-0.008519 7.50767e-05 0
-0.00857392 4.07924e-05 0
-0.00857392 4.07924e-05 0
-0.00858937 1.44051e-05 0
-0.00858937 1.44051e-05 0
-0.00857571 -5.50588e-06 0
-0.00857571 -5.50588e-06 0
-0.00853907 -2.03656e-05 0
-0.00853907 -2.03656e-05 0
-0.00848322 -3.16005e-05 0
-0.00848322 -3.16005e-05 0
-0.00841229 -4.03019e-05 0
-0.00841229 -4.03019e-05 0
-0.00832843 -4.70449e-05 -1.42609e-23
-0.00832843 -4.70449e-05 -1.42609e-23
-0.00823407 -5.2446e-05 -1.43088e-23
-0.00823407 -5.2446e-05 -1.43088e-23
-0.00813056 -5.6874e-05 0
-0.00813056 -5.6874e-05 0
-0.00801919 -6.04714e-05 1.37011e-23
-0.00801919 -6.04714e-05 1.37011e-23
-0.00790094 -6.35166e-05 2.7257e-23
-0.00790094 -6.35166e-05 2.7257e-23
-0.00777641 -6.61269e-05 1.35556e-23
-0.00777641 -6.61269e-05 1.35556e-23
-0.00764615 -6.84275e-05 -1.31206e-23
-0.00764615 -6.84275e-05 -1.31206e-23
-0.00751047 -7.05399e-05 -2.40732e-25
-0.00751047 -7.05399e-05 -2.40732e-25
-0.00736962 -7.2521e-05 1.29724e-23
-0.00736962 -7.2521e-05 1.29724e-23
-0.00722373 -7.44278e-05 -1.25392e-23
-0.00722373 -7.44278e-05 -1.25392e-23
-0.00707286 -7.63138e-05 -1.25847e-23
-0.00707286 -7.63138e-05 -1.25847e-23
-0.00691697 -7.82627e-05 0
-0.00691697 -7.82627e-05 0
-0.00675581 -8.04023e-05 1.19639e-23
-0.00675581 -8.04023e-05 1.19639e-23
-0.00658885 -8.28997e-05 1.20083e-23
-0.00658885 -8.28997e-05 1.20083e-23
-0.00641516 -8.59378e-05 -1.1583e-23
-0.00641516 -8.59378e-05 -1.1583e-23
-0.0062335 -8.96758e-05 -1.16268e-23
-0.0062335 -8.96758e-05 -1.16268e-23
-0.00604231 -9.42269e-05 1.12025e-23
-0.00604231 -9.42269e-05 1.12025e-23
-0.00583984 -9.96433e-05 2.22577e-23
-0.00583984 -9.96433e-05 2.22577e-23
-0.00562426 -0.000105892 2.18764e-23
-0.00562426 -0.000105892 2.18764e-23
-0.0053939 -0.000112841 3.21263e-23
-0.0053939 -0.000112841 3.21263e-23
-0.00514737 -0.000120258 4.63327e-25
-0.00514737 -0.000120258 4.63327e-25
-0.0048838 -0.00012782 -2.09654e-23
-0.0048838 -0.00012782 -2.09654e-23
-0.00460306 -0.000135129 0
-0.00460306 -0.000135129 0
-0.00430581 -0.000141773 0
-0.00430581 -0.000141773 0
-0.00399351 -0.000147373 -1.94007e-23
-0.00399351 -0.000147373 -1.94007e-23
-0.00366838 -0.000151601 -3.85279e-23
-0.00366838 -0.000151601 -3.85279e-23
-0.00333332 -0.000154219 -4.20179e-25
-0.00333332 -0.000154219 -4.20179e-25
-0.00299155 -0.00015514 1.87836e-23
-0.00299155 -0.00015514 1.87836e-23
-0.0026463 -0.000154437 -1.80592e-23
-0.0026463 -0.000154437 -1.80592e-23
-0.00230045 -0.000152323 -3.58904e-23
-0.00230045 -0.000152323 -3.58904e-23
-0.00195637 -0.000149091 -3.52953e-23
-0.00195637 -0.000149091 -3.52953e-23
-0.00161599 -0.000145053 -1.75392e-23
-0.00161599 -0.000145053 -1.75392e-23
-0.00128078 -0.000140455 0
-0.00128078 -0.000140455 0
-0.000951766 -0.000135361 0
-0.000951766 -0.000135361 0
-0.00062986 -0.000129862 -1.64274e-23
-0.00062986 -0.000129862 -1.64274e-23
-0.00031625 -0.000123746 -1.64994e-23
-0.00031625 -0.000123746 -1.64994e-23
-1.30524e-05 -0.000117158 0
-1.30524e-05 -0.000117158 0
0.000277566 -0.000109784 1.5757e-23
0.000277566 -0.000109784 1.5757e-23
0.000554227 -0.00010118 1.58274e-23
0.000554227 -0.00010118 1.58274e-23
0.000814777 -9.17418e-05 0
0.000814777 -9.17418e-05 0
0.0010567 -8.16462e-05 1.51644e-23
0.0010567 -8.16462e-05 1.51644e-23
0.00127836 -7.1198e-05 1.52335e-23
0.00127836 -7.1198e-05 1.52335e-23
0.00147881 -6.07459e-05 0
0.00147881 -6.07459e-05 0
0.00165787 -5.0618e-05 -1.46363e-23
0.00165787 -5.0618e-05 -1.46363e-23
0.00181604 -4.10773e-05 -2.91738e-23
0.00181604 -4.10773e-05 -2.91738e-23
0.00195437 -3.23015e-05 -1.45371e-23
0.00195437 -3.23015e-05 -1.45371e-23
0.00207427 -2.43822e-05 1.41446e-23
0.00207427 -2.43822e-05 1.41446e-23
0.00217732 -1.73385e-05 1.42115e-23
0.00217732 -1.73385e-05 1.42115e-23
0.00226515 -1.11368e-05 -1.38272e-23
0.00226515 -1.11368e-05 -1.38272e-23
0.00233932 -5.71195e-06 -1.38934e-23
0.00233932 -5.71195e-06 -1.38934e-23
0.00240123 -9.86188e-07 -1.35144e-23
0.00240123 -9.86188e-07 -1.35144e-23
0.00245216 3.12349e-06 -2.6939e-23
0.00245216 3.12349e-06 -2.6939e-23
0.00249321 6.6763e-06 -1.34242e-23
0.00249321 6.6763e-06 -1.34242e-23
0.00252537 9.73311e-06 0
0.00252537 9.73311e-06 0
0.00254947 1.23409e-05 0
0.00254947 1.23409e-05 0
0.0025664 1.4495e-05 0
0.0025664 1.4495e-05 0
0.00257686 1.63059e-05 0
0.00257686 1.63059e-05 0
0.00258128 1.78833e-05 0
0.00258128 1.78833e-05 0
0.00258042 1.91177e-05 0
0.00258042 1.91177e-05 0
0.00257517 1.98997e-05 -1.21371e-23
0.00257517 1.98997e-05 -1.21371e-23
0.00256633 2.02684e-05 -2.1237e-25
0.00256633 2.02684e-05 -2.1237e-25
0.00255467 2.03237e-05 1.20479e-23
0.00255467 2.03237e-05 1.20479e-23
0.00254089 2.01547e-05 0
0.00254089 2.01547e-05 0
0.00252556 1.98231e-05 0
0.00252556 1.98231e-05 0
0.00250919 1.93742e-05 0
0.00250919 1.93742e-05 0
0.0024922 1.88342e-05 2.2481e-23
0.0024922 1.88342e-05 2.2481e-23
0.00247493 1.82063e-05 2.25991e-23
0.00247493 1.82063e-05 2.25991e-23
0.00245773 1.74876e-05 -2.18902e-23
0.00245773 1.74876e-05 -2.18902e-23
0.0024409 1.66779e-05 -4.102e-25
0.0024409 1.66779e-05 -4.102e-25
0.00242471 1.57825e-05 2.17113e-23
0.00242471 1.57825e-05 2.17113e-23
0.00240939 1.48158e-05 0
0.00240939 1.48158e-05 0
0.00239512 1.38004e-05 0
0.00239512 1.38004e-05 0
0.002382 1.27621e-05 -2.04287e-23
0.002382 1.27621e-05 -2.04287e-23
0.00237012 1.17251e-05 -4.06789e-23
0.00237012 1.17251e-05 -4.06789e-23
0.00235948 1.07119e-05 -2.02491e-23
0.00235948 1.07119e-05 -2.02491e-23
0.00235007 9.74272e-06 -1.9563e-23
0.00235007 9.74272e-06 -1.9563e-23
0.00234184 8.83114e-06 -3.89471e-23
0.00234184 8.83114e-06 -3.89471e-23
0.0023347 7.98644e-06 -3.92242e-25
0.0023347 7.98644e-06 -3.92242e-25
0.00232858 7.21278e-06 1.90964e-23
0.00232858 7.21278e-06 1.90964e-23
0.0023234 6.50576e-06 0
0.0023234 6.50576e-06 0
0.00231906 5.86298e-06 1.81405e-23
0.00231906 5.86298e-06 1.81405e-23
0.00231549 5.28754e-06 1.82426e-23
0.00231549 5.28754e-06 1.82426e-23
0.00231261 4.78005e-06 0
0.00231261 4.78005e-06 0
0.00231034 4.33111e-06 0
0.00231034 4.33111e-06 0
0.00230861 3.92234e-06 0
0.00230861 3.92234e-06 0
0.00230733 3.53567e-06 -1.67446e-23
0.00230733 3.53567e-06 -1.67446e-23
0.00230644 3.1634e-06 -3.33095e-23
0.00230644 3.1634e-06 -3.33095e-23
0.00230586 2.81109e-06 -1.65637e-23
0.00230586 2.81109e-06 -1.65637e-23
0.00230556 2.48671e-06 -1.59198e-23
0.00230556 2.48671e-06 -1.59198e-23
0.00230547 2.20286e-06 -1.60124e-23
0.00230547 2.20286e-06 -1.60124e-23
0.00230557 1.97205e-06 0
0.00230557 1.97205e-06 0
0.00230579 1.79531e-06 -1.51044e-23
0.00230579 1.79531e-06 -1.51044e-23
0.00230606 1.66671e-06 -1.51933e-23
0.00230606 1.66671e-06 -1.51933e-23
0.00230632 1.58288e-06 -1.45658e-23
0.00230632 1.58288e-06 -1.45658e-23
0.00230647 1.54716e-06 -1.46521e-23
0.00230647 1.54716e-06 -1.46521e-23
0.00230643 1.56005e-06 0
0.00230643 1.56005e-06 0
0.00230611 1.61549e-06 -1.37651e-23
0.00230611 1.61549e-06 -1.37651e-23
0.00230538 1.71037e-06 -1.38476e-23
0.00230538 1.71037e-06 -1.38476e-23