/*--------------------------------*- C++ -*----------------------------------*\
  =========                 |
  \\      /  F ield         | OpenFOAM: The Open Source CFD Toolbox
   \\    /   O peration     | Website:  https://openfoam.org
    \\  /    A nd           | Version:  7
     \\/     M anipulation  |
\*---------------------------------------------------------------------------*/
FoamFile
{
    version     2.0;
    format      ascii;
    class       volScalarField;
    location    "0.01";
    object      nut;
}
// * * * * * * * * * * * * * * * * * * * * * * * * * * * * * * * * * * * * * //

dimensions      [0 2 -1 0 0 0 0];

internalField   nonuniform List<scalar> 
12225
(
3.79362e-05
3.31555e-05
2.9209e-05
2.61462e-05
2.39379e-05
2.24444e-05
2.14832e-05
2.08876e-05
2.05283e-05
2.03135e-05
2.01822e-05
2.0096e-05
2.00322e-05
1.99783e-05
1.99294e-05
1.98804e-05
1.98595e-05
2.02086e-05
0.000206081
0.00015113
0.000126937
0.000114242
0.000107446
0.000103527
0.000101013
9.92124e-05
9.78066e-05
9.66423e-05
9.56449e-05
9.47771e-05
9.40174e-05
9.33464e-05
9.27541e-05
9.21636e-05
9.18138e-05
9.04481e-05
0.000421073
0.000299194
0.00024387
0.000211841
0.000191212
0.000176884
0.000166454
0.000158633
0.000152639
0.000147954
0.000144233
0.000141237
0.000138795
0.000136775
0.000135085
0.00013358
0.000132338
0.000130663
0.000617537
0.000476296
0.000395435
0.000344049
0.000308774
0.000282943
0.00026319
0.000247682
0.000235286
0.00022524
0.000217007
0.000210199
0.000204522
0.00019974
0.000195667
0.000192094
0.000188932
0.000185719
0.000740839
0.000629563
0.000546589
0.000486366
0.000441791
0.000407574
0.000380482
0.00035856
0.00034054
0.00032554
0.000312931
0.000302246
0.000293128
0.000285284
0.000278469
0.000272433
0.000266985
0.000261822
0.000803804
0.000734277
0.000668566
0.00061322
0.000568171
0.000531404
0.000501044
0.000475698
0.000454327
0.00043615
0.000420572
0.000407135
0.000395478
0.000385299
0.000376342
0.000368353
0.000361116
0.000354478
0.000832508
0.000795216
0.000752081
0.000710023
0.000672056
0.000638736
0.000609758
0.000584612
0.000562771
0.000543747
0.000527122
0.000512544
0.000499716
0.000488384
0.000478321
0.000469313
0.000461176
0.000453883
0.000844603
0.000826645
0.000802066
0.000774656
0.000747216
0.000721184
0.000697164
0.000675349
0.00065571
0.000638111
0.000622374
0.000608313
0.00059575
0.000584516
0.000574455
0.000565419
0.000557289
0.000550127
0.00084935
0.000841315
0.000828735
0.00081297
0.000795587
0.00077776
0.000760254
0.000743535
0.00072786
0.000713342
0.000700005
0.000687821
0.000676738
0.000666687
0.000657594
0.000649389
0.000642025
0.000635613
0.000851066
0.000847559
0.000841562
0.00083333
0.000823464
0.00081259
0.000801239
0.000789826
0.000778655
0.000767928
0.000757772
0.000748258
0.000739422
0.000731276
0.000723817
0.000717043
0.000710972
0.000705725
0.000851616
0.000849971
0.000847147
0.000843083
0.000837916
0.000831878
0.000825225
0.000818206
0.00081104
0.000803901
0.000796927
0.000790217
0.000783843
0.000777859
0.000772307
0.000767227
0.000762636
0.000758631
0.000851743
0.000850737
0.000849174
0.000846972
0.000844133
0.000840721
0.000836837
0.000832601
0.000828137
0.00082356
0.000818972
0.000814457
0.000810086
0.000805916
0.000802004
0.000798376
0.000795069
0.000792198
0.000851757
0.000850986
0.000849975
0.000848673
0.00084706
0.000845138
0.000842934
0.00084049
0.000837861
0.000835106
0.000832286
0.000829455
0.000826667
0.000823968
0.000821405
0.000818998
0.000816798
0.000814897
0.000851731
0.000851027
0.000850232
0.00084933
0.000848313
0.000847178
0.000845925
0.000844563
0.000843109
0.000841583
0.000840011
0.00083842
0.000836841
0.000835302
0.000833822
0.00083243
0.000831166
0.000830094
0.0008517
0.000850999
0.000850267
0.000849503
0.000848715
0.000847904
0.000847073
0.000846221
0.000845354
0.000844476
0.000843595
0.000842721
0.000841866
0.000841043
0.000840262
0.000839543
0.000838915
0.000838415
0.000851676
0.000850965
0.000850247
0.000849525
0.000848809
0.000848105
0.000847419
0.000846753
0.000846109
0.000845489
0.000844895
0.00084433
0.0008438
0.000843307
0.000842862
0.000842474
0.000842163
0.000841954
0.000851664
0.000850948
0.000850239
0.000849535
0.000848845
0.000848177
0.000847537
0.000846929
0.000846354
0.000845813
0.000845308
0.000844839
0.000844411
0.000844024
0.000843685
0.000843402
0.000843188
0.000843063
0.000851667
0.000850957
0.000850261
0.000849574
0.000848904
0.000848257
0.000847638
0.000847051
0.000846497
0.000845977
0.000845491
0.00084504
0.000844626
0.000844251
0.000843918
0.000843634
0.000843411
0.000843266
0.000851691
0.000851007
0.000850335
0.000849672
0.000849023
0.000848395
0.000847792
0.000847217
0.000846671
0.000846153
0.000845664
0.000845204
0.000844774
0.000844374
0.000844008
0.00084368
0.000843402
0.000843189
0.000851744
0.000851117
0.000850493
0.00084987
0.000849256
0.000848658
0.000848079
0.000847522
0.000846984
0.000846465
0.000845964
0.000845476
0.000845003
0.000844541
0.000844093
0.00084366
0.000843253
0.000842889
0.000851829
0.000851289
0.000850738
0.000850175
0.000849606
0.000849038
0.00084847
0.000847897
0.000847312
0.00084671
0.00084608
0.000845416
0.000844715
0.000843974
0.000843193
0.000842376
0.000841533
0.00084069
0.000851967
0.00085156
0.000851098
0.000850564
0.000849951
0.000849249
0.000848445
0.000847523
0.000846469
0.000845268
0.000843907
0.000842392
0.00084073
0.00083893
0.000837004
0.000834968
0.000832845
0.000830689
0.000852165
0.000851851
0.000851251
0.000850275
0.000848889
0.000847087
0.000844873
0.000842256
0.000839241
0.000835845
0.000832131
0.000828152
0.000823959
0.000819596
0.000815102
0.000810513
0.000805873
0.000801273
0.000852239
0.000851249
0.000848969
0.000845312
0.000840424
0.000834531
0.000827831
0.000820467
0.000812575
0.00080438
0.000796026
0.000787621
0.000779242
0.000770944
0.000762763
0.000754724
0.000746859
0.000739272
0.000850812
0.000845041
0.000835367
0.000822831
0.000808567
0.000793446
0.000777959
0.000762486
0.000747419
0.000732918
0.000719059
0.000705857
0.000693294
0.000681336
0.00066994
0.000659059
0.000648664
0.000638825
0.000841211
0.000816826
0.000787195
0.000756839
0.000727678
0.0007003
0.00067515
0.000652375
0.000631759
0.000613046
0.000595983
0.000580339
0.000565906
0.000552508
0.000539995
0.000528243
0.000517157
0.000506753
0.000798976
0.000729253
0.000669701
0.000621286
0.000580938
0.00054722
0.000519047
0.000495142
0.00047453
0.000456498
0.000440513
0.000426169
0.000413155
0.000401229
0.000390205
0.000379933
0.000370303
0.000361293
0.000663756
0.000546785
0.000475291
0.000425309
0.00038799
0.000359609
0.000337401
0.000319452
0.00030453
0.000291847
0.000280867
0.00027121
0.0002626
0.000254834
0.00024776
0.000241259
0.000235244
0.000229673
0.000377343
0.0002849
0.000241427
0.000213837
0.000194633
0.00018128
0.000171866
0.000165019
0.000159861
0.000155852
0.000152651
0.000150029
0.00014783
0.000145946
0.0001443
0.000142836
0.000141514
0.000140295
6.97006e-05
6.47481e-05
6.0258e-05
5.61946e-05
5.2576e-05
4.94049e-05
4.66712e-05
4.43481e-05
4.23962e-05
4.07715e-05
3.94312e-05
3.83361e-05
3.74514e-05
3.67468e-05
3.61962e-05
3.57775e-05
3.54722e-05
3.52639e-05
2.03476e-05
0.000145094
0.000169091
0.000184537
0.000193352
0.000195941
4.44101e-05
4.49185e-05
0.00020082
0.000201266
4.58075e-05
4.63786e-05
0.000205561
0.000205264
4.68472e-05
4.67337e-05
0.000205482
4.80244e-05
4.89027e-05
4.97061e-05
5.0494e-05
5.12854e-05
5.21715e-05
5.30025e-05
5.37689e-05
5.44657e-05
5.50876e-05
5.56292e-05
5.60852e-05
5.64505e-05
5.67209e-05
5.68926e-05
5.6963e-05
5.69303e-05
5.67943e-05
5.6556e-05
5.62188e-05
5.57909e-05
5.5298e-05
5.48192e-05
5.44971e-05
5.42324e-05
5.39475e-05
5.36307e-05
5.32842e-05
5.29139e-05
5.25263e-05
5.21283e-05
5.17264e-05
5.13263e-05
5.09335e-05
5.05525e-05
5.01871e-05
4.98405e-05
4.9515e-05
4.92123e-05
4.89333e-05
4.86785e-05
4.84479e-05
4.8241e-05
4.8057e-05
4.78948e-05
4.7753e-05
4.76304e-05
4.75254e-05
4.74363e-05
4.73618e-05
4.73002e-05
4.72501e-05
4.72101e-05
4.71788e-05
4.71551e-05
4.71378e-05
4.71258e-05
4.71182e-05
4.71142e-05
4.7113e-05
4.71139e-05
4.71162e-05
4.71196e-05
4.71234e-05
4.71273e-05
4.7131e-05
4.71341e-05
4.71364e-05
4.71377e-05
4.71378e-05
4.71365e-05
4.71337e-05
4.71294e-05
4.71235e-05
4.71159e-05
4.71065e-05
4.70954e-05
4.70825e-05
4.70679e-05
4.70515e-05
4.70333e-05
4.70135e-05
4.69919e-05
4.69687e-05
4.69438e-05
4.69174e-05
4.68893e-05
4.68597e-05
4.68286e-05
4.67958e-05
4.67614e-05
4.67254e-05
4.66875e-05
4.6648e-05
4.66068e-05
4.6564e-05
4.65198e-05
4.64743e-05
4.64277e-05
4.638e-05
4.63313e-05
4.62817e-05
4.62313e-05
4.61774e-05
0.000192596
0.000191516
0.000190852
0.000190315
0.00018982
0.000189313
0.000189048
0.000188251
0.000187535
0.000186923
0.000186341
0.000185701
0.00018496
0.000184239
0.000183583
0.00018296
0.000182314
0.000181608
0.000180898
0.000180219
0.000179568
0.000178911
0.000178223
0.000177523
0.000176831
0.000176146
0.000175458
0.000174768
0.000174081
0.000173397
0.000172717
0.000172037
0.000171356
0.00017067
0.000169977
0.000169283
0.000168595
0.00016791
0.000167219
0.000166524
0.000165835
0.000165154
0.00016447
0.000163769
0.000163055
0.000162345
0.000161645
0.000160941
0.000160226
0.000159511
0.0001588
0.000158078
0.000157336
0.000156582
0.00015582
0.00015505
0.000154291
0.000153576
0.000153369
2.42859e-05
0.000120289
0.000192297
0.00023454
0.000257693
0.000264764
0.000247954
0.00025358
0.000275567
0.000278017
0.000266102
0.000273926
0.000296588
0.000298766
0.000287383
0.00029655
0.000317169
0.000319301
0.000332342
0.00034555
0.000358146
0.000370117
0.00038138
0.000392397
0.000403148
0.000413535
0.000423448
0.000432772
0.000441387
0.000449179
0.000456034
0.000461844
0.00046651
0.00046994
0.000472058
0.0004728
0.000472122
0.000470011
0.000466494
0.000461663
0.000455828
0.000449076
0.000441483
0.000433142
0.000424158
0.00041464
0.0004047
0.000394449
0.000383993
0.000373436
0.000362873
0.000352392
0.00034207
0.000331975
0.000322164
0.000312683
0.00030357
0.00029485
0.000286542
0.000278656
0.000271194
0.000264154
0.000257529
0.000251307
0.000245474
0.000240014
0.00023491
0.000230142
0.000225692
0.000221541
0.000217669
0.00021406
0.000210695
0.000207558
0.000204633
0.000201904
0.000199357
0.000196979
0.000194758
0.000192682
0.00019074
0.000188923
0.00018722
0.000185623
0.000184124
0.000182716
0.000181391
0.000180145
0.00017897
0.000177861
0.000176814
0.000175823
0.000174885
0.000173996
0.000173151
0.000172349
0.000171585
0.000170856
0.000170161
0.000169497
0.000168861
0.000168251
0.000167666
0.000167103
0.00016656
0.000166035
0.000165506
0.000164971
0.000164446
0.000163933
0.000163436
0.000162957
0.000162497
0.000162054
0.000161627
0.000161217
0.000160819
0.000160435
0.00016006
0.000159697
0.000159414
0.000164805
0.000166496
0.000166847
0.000166737
0.000166469
0.00016626
0.000169913
0.000172244
0.000173228
0.000173456
0.00017345
0.000175988
0.000178378
0.000179781
0.00018035
0.000180526
0.000182366
0.000184575
0.000186191
0.000187039
0.000187398
0.000188806
0.000190761
0.000192432
0.000193526
0.000195042
0.000196954
0.000198705
0.000199917
0.000200594
0.000201575
0.000203037
0.000204569
0.00020576
0.000206492
0.000207351
0.000208603
0.000210003
0.000211196
0.000212382
0.000213764
0.000215211
0.00021644
0.000217279
0.000218006
0.000218916
0.000219987
0.000220981
0.000221912
0.000222914
0.000223966
0.000224877
0.000225622
0.000226306
0.000226912
0.000227368
0.000227613
0.000227329
0.000227682
2.91774e-05
0.000140391
0.000235561
0.000301725
0.000347865
0.000380322
0.000403097
0.00042296
0.000441177
0.000456266
0.000469217
0.000483093
0.000497549
0.000510201
0.000522065
0.000536134
0.000551676
0.000566547
0.000582197
0.000597649
0.000612641
0.000627105
0.000641184
0.00065515
0.000668976
0.000682565
0.000695792
0.000708516
0.000720593
0.000731872
0.000742206
0.000751449
0.000759465
0.00076613
0.000771332
0.000774978
0.000776992
0.000777323
0.00077594
0.000772843
0.000768143
0.00076197
0.000754406
0.000745545
0.000735488
0.000724352
0.000712263
0.000699355
0.000685766
0.000671641
0.000657121
0.000642345
0.000627449
0.000612558
0.000597788
0.000583245
0.000569019
0.000555189
0.000541817
0.000528954
0.000516636
0.000504888
0.000493723
0.000483146
0.000473153
0.000463734
0.000454873
0.000446551
0.000438746
0.000431433
0.000424588
0.000418183
0.000412195
0.000406596
0.000401363
0.000396471
0.000391897
0.000387621
0.000383622
0.000379879
0.000376376
0.000373095
0.00037002
0.000367137
0.000364432
0.000361892
0.000359504
0.000357259
0.000355146
0.000353154
0.000351276
0.000349503
0.000347827
0.000346242
0.00034474
0.000343316
0.000341965
0.00034068
0.000339458
0.000338293
0.000337181
0.000336118
0.000335101
0.000334126
0.000333189
0.000332286
0.000331408
0.000330538
0.000329679
0.000328831
0.000327997
0.000327178
0.000326379
0.0003256
0.000324842
0.000324105
0.000323391
0.000322698
0.000322024
0.00032137
0.000320754
0.000320679
0.000320443
0.00032004
0.000319551
0.000319029
0.000318456
0.000318482
0.000318606
0.000318515
0.000318235
0.000317793
0.000317823
0.000318103
0.000318255
0.000318181
0.000317888
0.000317919
0.000318256
0.000318575
0.000318686
0.000318552
0.00031861
0.000318968
0.000319404
0.000319654
0.000319941
0.000320417
0.000320957
0.000321357
0.000321506
0.000321643
0.000321982
0.000322462
0.000322888
0.00032311
0.000323283
0.000323612
0.000324106
0.000324582
0.000325028
0.000325551
0.000326156
0.000326718
0.000327093
0.000327333
0.00032761
0.000328001
0.000328402
0.000328751
0.000329093
0.000329448
0.000329706
0.000329776
0.000329658
0.000329297
0.000328518
0.000327057
0.000324123
0.000319515
3.42347e-05
0.000163724
0.000281426
0.000369048
0.000434523
0.000484362
0.00052303
0.000553915
0.000579124
0.00060002
0.000617712
0.000633218
0.000647192
0.000660038
0.000672262
0.000684374
0.000696513
0.000708627
0.000720774
0.000732898
0.000744982
0.000756996
0.000769219
0.000781896
0.000794963
0.000808284
0.000821692
0.000835011
0.000848064
0.00086067
0.000872655
0.000883851
0.000894102
0.000903261
0.000911199
0.000917799
0.000922962
0.000926604
0.000928655
0.000929029
0.000927731
0.000924917
0.000920647
0.000914975
0.000907958
0.000899663
0.000890173
0.000879578
0.000867982
0.000855501
0.000842257
0.000828382
0.000814011
0.000799282
0.000784333
0.000769296
0.000754298
0.000739456
0.000724873
0.00071064
0.000696835
0.000683519
0.000670739
0.000658528
0.000646908
0.000635889
0.000625469
0.000615643
0.000606396
0.000597709
0.000589559
0.000581923
0.000574773
0.000568083
0.000561825
0.000555974
0.000550502
0.000545385
0.0005406
0.000536122
0.000531932
0.000528008
0.000524332
0.000520886
0.000517654
0.000514621
0.000511771
0.000509093
0.000506573
0.000504199
0.000501963
0.000499852
0.000497859
0.000495975
0.000494191
0.000492501
0.000490898
0.000489375
0.000487927
0.000486548
0.000485232
0.000483976
0.000482773
0.000481621
0.000480515
0.000479451
0.000478421
0.000477416
0.000476428
0.000475454
0.000474496
0.000473552
0.000472626
0.000471717
0.000470828
0.000469959
0.000469111
0.000468283
0.000467477
0.000466691
0.000465928
0.000465228
0.000464546
0.000463864
0.000463182
0.000462502
0.000461811
0.000461205
0.000460667
0.000460123
0.000459544
0.000458919
0.000458361
0.000457901
0.000457458
0.000456973
0.000456419
0.000455903
0.000455493
0.000455132
0.000454736
0.00045426
0.000453791
0.00045342
0.000453123
0.000452792
0.000452438
0.000452143
0.000451909
0.000451662
0.000451328
0.000450946
0.000450617
0.00045037
0.000450142
0.000449848
0.0004495
0.000449188
0.000448963
0.000448766
0.00044855
0.00044835
0.000448197
0.000448054
0.000447841
0.000447538
0.000447209
0.000446919
0.000446639
0.000446313
0.000445935
0.000445514
0.000444995
0.000444286
0.000443319
0.000442
0.000440114
0.0004373
0.000432721
0.000425875
3.95171e-05
0.000187492
0.000325731
0.00043075
0.000510023
0.000570257
0.000616151
0.000651108
0.000677688
0.000697903
0.000713389
0.000725511
0.000735387
0.000743901
0.000751742
0.000759421
0.000767271
0.000775487
0.000784176
0.000793383
0.0008031
0.000813267
0.000824151
0.000835928
0.000848444
0.000861482
0.000874821
0.000888247
0.000901555
0.000914552
0.000927059
0.00093891
0.000949955
0.000960061
0.000969115
0.000977021
0.0009837
0.000989087
0.000993133
0.000995684
0.0009968
0.000996653
0.0009953
0.000992769
0.000989083
0.000984268
0.00097835
0.000971361
0.000963342
0.000954344
0.000944429
0.000933673
0.000922165
0.000910006
0.000897309
0.000884195
0.000870792
0.000857226
0.000843622
0.0008301
0.000816768
0.000803722
0.000791046
0.000778807
0.000767056
0.000755832
0.000745159
0.000735049
0.000725504
0.000716518
0.000708076
0.000700162
0.000692753
0.000685824
0.000679349
0.000673302
0.000667656
0.000662385
0.000657463
0.000652867
0.000648573
0.00064456
0.000640807
0.000637295
0.000634007
0.000630925
0.000628035
0.000625323
0.000622775
0.000620378
0.000618123
0.000615997
0.000613992
0.000612098
0.000610307
0.000608612
0.000607005
0.00060548
0.00060403
0.00060265
0.000601334
0.000600078
0.000598877
0.000597726
0.000596621
0.000595558
0.000594532
0.000593533
0.000592553
0.000591589
0.000590639
0.000589705
0.000588786
0.000587882
0.000586995
0.000586126
0.000585275
0.000584442
0.000583628
0.000582832
0.000582054
0.000581297
0.000580557
0.000579831
0.000579117
0.000578412
0.000577711
0.000577029
0.000576373
0.000575727
0.00057508
0.000574421
0.000573773
0.000573155
0.000572556
0.000571952
0.000571327
0.000570702
0.000570108
0.000569541
0.000568974
0.000568381
0.000567777
0.000567198
0.000566653
0.000566103
0.000565536
0.000564981
0.000564456
0.000563936
0.000563388
0.000562808
0.000562234
0.000561693
0.000561169
0.000560624
0.000560047
0.000559469
0.000558923
0.000558396
0.000557858
0.000557314
0.000556786
0.000556268
0.000555721
0.000555121
0.000554481
0.000553836
0.000553179
0.000552475
0.0005517
0.000550851
0.000549891
0.000548743
0.000547323
0.00054552
0.000543123
0.000539776
0.000534782
0.000527771
4.51534e-05
0.000210844
0.000366255
0.000483476
0.000570316
0.000634299
0.000680875
0.000714147
0.000737382
0.000753266
0.000764021
0.000771457
0.000777006
0.00078175
0.000786461
0.000791657
0.00079765
0.000804596
0.000812541
0.000821455
0.000831245
0.000841774
0.000853182
0.000865507
0.000878514
0.000891946
0.000905564
0.00091915
0.000932501
0.000945431
0.000957764
0.000969344
0.000980032
0.000989711
0.000998291
0.00100571
0.00101191
0.0010169
0.00102067
0.00102306
0.0010243
0.00102459
0.00102401
0.00102262
0.00102046
0.00101755
0.0010139
0.00100951
0.00100437
0.000998477
0.000991817
0.00098439
0.00097621
0.000967302
0.000957714
0.000947509
0.000936771
0.000925598
0.000914103
0.000902402
0.000890615
0.000878858
0.000867239
0.000855857
0.000844795
0.000834122
0.000823889
0.000814136
0.000804886
0.000796151
0.000787932
0.000780223
0.000773008
0.000766271
0.000759987
0.000754134
0.000748685
0.000743615
0.000738898
0.000734509
0.000730424
0.00072662
0.000723077
0.000719774
0.000716692
0.000713814
0.000711125
0.000708609
0.000706253
0.000704044
0.000701971
0.000700023
0.00069819
0.000696463
0.000694833
0.000693294
0.000691838
0.000690458
0.000689149
0.000687905
0.00068672
0.00068559
0.000684511
0.000683477
0.000682486
0.000681533
0.000680613
0.000679719
0.000678841
0.000677978
0.000677128
0.000676291
0.000675467
0.000674657
0.000673861
0.00067308
0.000672313
0.000671561
0.000670825
0.000670103
0.000669397
0.000668704
0.000668026
0.000667359
0.000666704
0.000666058
0.000665419
0.000664791
0.000664174
0.000663565
0.00066296
0.000662354
0.000661752
0.00066116
0.000660578
0.000659996
0.000659409
0.00065882
0.000658239
0.00065767
0.000657103
0.000656527
0.000655944
0.000655365
0.000654798
0.000654229
0.000653651
0.000653073
0.000652504
0.000651938
0.00065136
0.000650764
0.000650163
0.000649571
0.000648985
0.000648391
0.000647777
0.000647155
0.000646539
0.000645929
0.000645309
0.000644678
0.000644048
0.000643416
0.000642768
0.000642085
0.000641366
0.000640623
0.000639854
0.000639036
0.000638148
0.000637176
0.000636092
0.000634834
0.000633327
0.000631466
0.000629071
0.000625848
0.000621286
0.000615204
5.13239e-05
0.000233224
0.000401495
0.000525351
0.000613962
0.000676396
0.000719368
0.000748008
0.000766409
0.000777867
0.000785003
0.00078982
0.000793779
0.00079788
0.000802751
0.000808739
0.000815989
0.000824505
0.000834196
0.000844916
0.000856475
0.000868663
0.000881499
0.000894932
0.000908749
0.000922738
0.000936709
0.00095048
0.000963871
0.000976699
0.000988784
0.000999948
0.00101003
0.0010189
0.00102644
0.00103259
0.00103732
0.00104064
0.00104258
0.00104306
0.00104251
0.00104112
0.00103906
0.00103644
0.00103338
0.00102996
0.00102624
0.00102225
0.00101797
0.0010134
0.00100848
0.00100316
0.000997376
0.000991074
0.000984214
0.000976774
0.000968757
0.000960192
0.000951134
0.000941661
0.000931869
0.000921865
0.000911762
0.000901672
0.000891701
0.000881943
0.000872478
0.000863371
0.000854672
0.000846415
0.00083862
0.000831297
0.000824442
0.000818046
0.000812095
0.000806568
0.000801442
0.000796694
0.000792298
0.000788229
0.000784463
0.000780976
0.000777747
0.000774754
0.000771979
0.000769402
0.000767008
0.000764781
0.000762706
0.000760772
0.000758966
0.000757277
0.000755696
0.000754213
0.00075282
0.00075151
0.000750275
0.00074911
0.000748007
0.000746963
0.000745972
0.000745029
0.000744131
0.000743272
0.000742451
0.000741662
0.000740901
0.000740163
0.000739438
0.000738725
0.000738023
0.000737333
0.000736653
0.000735985
0.000735327
0.000734682
0.000734048
0.000733425
0.000732815
0.000732216
0.000731629
0.000731053
0.000730487
0.000729931
0.000729383
0.000728844
0.000728311
0.000727785
0.000727266
0.000726752
0.000726243
0.000725735
0.000725229
0.000724728
0.000724232
0.000723736
0.00072324
0.000722742
0.000722246
0.000721755
0.000721265
0.00072077
0.000720272
0.000719773
0.000719277
0.000718779
0.000718275
0.000717768
0.000717262
0.000716756
0.000716243
0.000715719
0.000715188
0.000714658
0.000714127
0.00071359
0.000713041
0.000712482
0.000711922
0.000711359
0.000710787
0.000710204
0.000709615
0.000709019
0.000708409
0.000707773
0.000707109
0.000706417
0.000705696
0.000704929
0.0007041
0.000703193
0.000702185
0.000701032
0.00069967
0.000698017
0.000695933
0.000693203
0.000689485
0.000684734
5.821e-05
0.000254196
0.000430639
0.000556133
0.000642282
0.00070025
0.000738251
0.000762426
0.000777472
0.000786963
0.000793526
0.000798998
0.000804578
0.000810972
0.000818532
0.000827368
0.000837431
0.000848576
0.000860603
0.000873286
0.000886392
0.000899692
0.00091321
0.000926988
0.000940954
0.000955024
0.000969097
0.000983045
0.000996705
0.00100988
0.00102233
0.00103383
0.00104413
0.00105301
0.00106029
0.00106584
0.00106957
0.00107149
0.00107153
0.00106992
0.00106703
0.00106311
0.00105839
0.00105307
0.00104737
0.00104148
0.00103556
0.00102973
0.00102407
0.00101859
0.00101329
0.0010081
0.00100296
0.000997743
0.00099235
0.000986672
0.000980622
0.000974137
0.000967184
0.000959767
0.00095192
0.000943706
0.000935212
0.000926536
0.000917787
0.000909069
0.000900482
0.000892114
0.000884036
0.000876308
0.000868969
0.000862047
0.000855556
0.000849499
0.000843868
0.000838651
0.000833831
0.000829385
0.000825291
0.000821524
0.00081806
0.000814875
0.000811947
0.000809254
0.000806775
0.000804492
0.000802388
0.000800445
0.000798651
0.00079699
0.000795452
0.000794025
0.000792698
0.000791463
0.000790311
0.000789235
0.000788228
0.000787283
0.000786395
0.000785558
0.000784769
0.000784022
0.000783313
0.00078264
0.000781997
0.000781383
0.000780792
0.00078022
0.000779659
0.000779107
0.000778566
0.000778033
0.00077751
0.000776996
0.00077649
0.000775994
0.000775507
0.000775029
0.00077456
0.000774099
0.000773647
0.000773203
0.000772767
0.000772337
0.000771915
0.000771498
0.000771086
0.000770679
0.000770277
0.000769878
0.000769483
0.000769089
0.000768697
0.000768307
0.000767919
0.000767532
0.000767145
0.000766757
0.00076637
0.000765983
0.000765597
0.000765208
0.000764817
0.000764424
0.000764031
0.000763636
0.000763236
0.000762834
0.00076243
0.000762024
0.000761613
0.000761195
0.000760771
0.000760344
0.000759914
0.000759479
0.000759036
0.000758585
0.00075813
0.000757669
0.000757201
0.000756723
0.000756237
0.000755743
0.000755237
0.000754711
0.000754163
0.000753591
0.000752992
0.000752355
0.000751667
0.000750916
0.000750083
0.000749137
0.000748032
0.000746706
0.000745065
0.000742962
0.000740185
0.000736766
6.5966e-05
0.00027347
0.000453757
0.000577366
0.000659089
0.000712297
0.000746487
0.000768406
0.000782884
0.000793308
0.000801957
0.00081026
0.000819029
0.000828644
0.000839209
0.000850651
0.0008628
0.000875436
0.00088833
0.00090126
0.000914029
0.000926472
0.000938857
0.000951476
0.000964477
0.000977931
0.000991839
0.00100612
0.00102059
0.00103501
0.00104905
0.00106234
0.0010745
0.00108517
0.00109402
0.00110078
0.00110527
0.00110739
0.00110701
0.00110456
0.00110032
0.00109452
0.00108744
0.00107938
0.00107064
0.00106153
0.00105233
0.00104329
0.00103462
0.00102645
0.00101887
0.0010119
0.00100549
0.000999551
0.000993962
0.00098857
0.000983221
0.000977768
0.00097209
0.000966095
0.000959733
0.000952993
0.000945902
0.000938516
0.000930919
0.000923204
0.000915473
0.000907824
0.000900344
0.000893111
0.000886185
0.000879612
0.000873422
0.000867631
0.000862246
0.00085726
0.000852664
0.000848439
0.000844566
0.000841021
0.000837783
0.000834826
0.000832127
0.000829665
0.000827419
0.000825367
0.000823494
0.000821781
0.000820213
0.000818777
0.000817459
0.000816249
0.000815135
0.000814108
0.00081316
0.000812282
0.000811469
0.000810713
0.00081001
0.000809353
0.000808738
0.000808162
0.00080762
0.000807108
0.000806623
0.000806163
0.000805723
0.000805299
0.000804885
0.000804479
0.000804083
0.000803694
0.000803314
0.000802941
0.000802575
0.000802217
0.000801865
0.00080152
0.000801182
0.00080085
0.000800525
0.000800205
0.000799891
0.000799582
0.000799277
0.000798976
0.00079868
0.000798386
0.000798096
0.000797808
0.000797522
0.000797237
0.000796954
0.000796672
0.00079639
0.000796109
0.000795828
0.000795546
0.000795265
0.000794983
0.0007947
0.000794416
0.00079413
0.000793843
0.000793554
0.000793264
0.00079297
0.000792674
0.000792376
0.000792075
0.00079177
0.000791461
0.000791148
0.000790831
0.00079051
0.000790185
0.000789855
0.000789518
0.000789177
0.000788831
0.000788478
0.000788118
0.000787751
0.000787376
0.00078699
0.000786591
0.000786175
0.000785741
0.000785284
0.000784799
0.000784276
0.000783705
0.000783074
0.000782361
0.000781536
0.000780558
0.000779368
0.000777874
0.000775956
0.000773674
7.46793e-05
0.000290884
0.000471712
0.000591826
0.00066928
0.000719216
0.000751822
0.000773879
0.00078988
0.000802732
0.000814222
0.000825358
0.000836631
0.000848198
0.000860013
0.000871927
0.000883743
0.000895263
0.000906317
0.000916782
0.000926588
0.000935723
0.000944983
0.000954941
0.000965968
0.000978287
0.000991981
0.00100699
0.00102311
0.00104
0.0010572
0.00107414
0.00109027
0.00110499
0.00111778
0.0011282
0.00113589
0.00114044
0.00114209
0.00114104
0.00113746
0.00113157
0.00112365
0.00111405
0.00110315
0.00109133
0.00107901
0.00106657
0.00105436
0.00104265
0.00103168
0.0010216
0.00101246
0.00100425
0.000996911
0.000990294
0.000984234
0.000978543
0.000973032
0.000967531
0.000961901
0.000956044
0.000949908
0.000943485
0.000936803
0.000929923
0.000922927
0.000915903
0.000908945
0.000902137
0.000895554
0.000889257
0.000883291
0.000877687
0.00087246
0.000867617
0.000863153
0.000859058
0.000855314
0.000851901
0.000848798
0.00084598
0.000843426
0.000841112
0.000839017
0.00083712
0.000835403
0.000833847
0.000832437
0.000831158
0.000829998
0.000828943
0.000827983
0.000827108
0.000826309
0.000825579
0.00082491
0.000824296
0.000823731
0.00082321
0.000822729
0.000822282
0.000821867
0.00082148
0.000821118
0.000820777
0.000820455
0.000820146
0.000819848
0.000819559
0.000819278
0.000819005
0.000818739
0.00081848
0.000818227
0.00081798
0.000817739
0.000817503
0.000817272
0.000817046
0.000816824
0.000816607
0.000816394
0.000816184
0.000815977
0.000815773
0.000815572
0.000815373
0.000815176
0.000814981
0.000814787
0.000814594
0.000814402
0.00081421
0.000814019
0.000813827
0.000813636
0.000813444
0.000813252
0.000813059
0.000812866
0.000812672
0.000812476
0.000812279
0.000812081
0.000811881
0.000811679
0.000811475
0.000811269
0.000811061
0.00081085
0.000810635
0.000810418
0.000810198
0.000809975
0.000809748
0.000809517
0.000809282
0.000809044
0.000808801
0.000808553
0.0008083
0.00080804
0.000807775
0.000807502
0.00080722
0.000806925
0.000806617
0.000806293
0.000805948
0.000805578
0.000805175
0.00080473
0.000804231
0.000803659
0.000802991
0.000802192
0.000801211
0.000799988
0.000798583
8.42902e-05
0.000306218
0.000485569
0.000602179
0.000676671
0.000725168
0.000757909
0.000781272
0.000799201
0.000814081
0.000827283
0.000839517
0.000851077
0.000862009
0.000872221
0.000881573
0.000889933
0.00089722
0.000903422
0.000908612
0.000912944
0.000916696
0.000921322
0.000927598
0.000936061
0.000947051
0.000960722
0.000977031
0.000995734
0.00101638
0.00103832
0.00106082
0.00108302
0.0011041
0.00112325
0.00113986
0.00115301
0.00116276
0.0011691
0.00117201
0.00117155
0.00116788
0.00116127
0.00115206
0.00114067
0.00112757
0.00111324
0.00109819
0.0010829
0.00106779
0.00105325
0.00103957
0.00102697
0.00101555
0.00100536
0.000996332
0.000988343
0.000981217
0.000974747
0.000968718
0.000962927
0.000957201
0.000951406
0.000945457
0.000939316
0.000932989
0.000926516
0.000919961
0.000913404
0.000906925
0.000900604
0.000894508
0.000888695
0.000883205
0.000878065
0.000873291
0.000868885
0.000864842
0.000861151
0.000857793
0.000854748
0.000851995
0.00084951
0.000847271
0.000845256
0.000843444
0.000841814
0.00084035
0.000839034
0.000837851
0.000836787
0.000835829
0.000834967
0.00083419
0.000833488
0.000832854
0.000832281
0.000831761
0.000831289
0.00083086
0.000830468
0.000830111
0.000829783
0.000829482
0.000829204
0.000828946
0.000828706
0.000828479
0.000828263
0.000828057
0.000827859
0.000827669
0.000827486
0.00082731
0.000827139
0.000826973
0.000826813
0.000826657
0.000826505
0.000826357
0.000826212
0.000826071
0.000825932
0.000825796
0.000825663
0.000825531
0.000825402
0.000825274
0.000825147
0.000825022
0.000824897
0.000824773
0.00082465
0.000824527
0.000824404
0.000824281
0.000824158