/*--------------------------------*- C++ -*----------------------------------*\
  =========                 |
  \\      /  F ield         | OpenFOAM: The Open Source CFD Toolbox
   \\    /   O peration     | Website:  https://openfoam.org
    \\  /    A nd           | Version:  7
     \\/     M anipulation  |
\*---------------------------------------------------------------------------*/
FoamFile
{
    version     2.0;
    format      ascii;
    class       surfaceScalarField;
    location    "0.01";
    object      phi;
}
// * * * * * * * * * * * * * * * * * * * * * * * * * * * * * * * * * * * * * //

dimensions      [0 3 -1 0 0 0 0];

internalField   nonuniform List<scalar> 
24170
(
1.43132e-06
1.62883e-07
1.33697e-06
9.43491e-08
1.25739e-06
7.95848e-08
1.19215e-06
6.52376e-08
1.14283e-06
4.93198e-08
1.10527e-06
3.75566e-08
1.07645e-06
2.88178e-08
1.05421e-06
2.22451e-08
1.03689e-06
1.73173e-08
1.02322e-06
1.36687e-08
1.01226e-06
1.09611e-08
1.00332e-06
8.9462e-09
9.95812e-07
7.50379e-09
9.89146e-07
6.66603e-09
9.82666e-07
6.47959e-09
9.74686e-07
7.98001e-09
9.66706e-07
7.97991e-09
2.40255e-08
9.42681e-07
1.67023e-06
2.01275e-07
1.62944e-06
1.35143e-07
1.58822e-06
1.20801e-07
1.55118e-06
1.02279e-07
1.51856e-06
8.1944e-08
1.48967e-06
6.6441e-08
1.46408e-06
5.44109e-08
1.44177e-06
4.45554e-08
1.4226e-06
3.64904e-08
1.40625e-06
3.0012e-08
1.39237e-06
2.48439e-08
1.38057e-06
2.07487e-08
1.37047e-06
1.75986e-08
1.36167e-06
1.54666e-08
1.35381e-06
1.43409e-08
1.34625e-06
1.55362e-08
1.33775e-06
1.64853e-08
3.17164e-08
1.33006e-06
1.78051e-06
2.52027e-07
1.75663e-06
1.59018e-07
1.73654e-06
1.4089e-07
1.71848e-06
1.20337e-07
1.70124e-06
9.9184e-08
1.68474e-06
8.29446e-08
1.6691e-06
7.00454e-08
1.65465e-06
5.90064e-08
1.64159e-06
4.95584e-08
1.62995e-06
4.16448e-08
1.61971e-06
3.50883e-08
1.61074e-06
2.9721e-08
1.60286e-06
2.5473e-08
1.59586e-06
2.24698e-08
1.58939e-06
2.08064e-08
1.58333e-06
2.15952e-08
1.57584e-06
2.39823e-08
3.53413e-08
1.57221e-06
1.91829e-06
2.96432e-07
1.89301e-06
1.84301e-07
1.87706e-06
1.5684e-07
1.86471e-06
1.32689e-07
1.85372e-06
1.10165e-07
1.84368e-06
9.29879e-08
1.83441e-06
7.93185e-08
1.82589e-06
6.75281e-08
1.81815e-06
5.72922e-08
1.81123e-06
4.85654e-08
1.80511e-06
4.1205e-08
1.79975e-06
3.50821e-08
1.79506e-06
3.01692e-08
1.79091e-06
2.66163e-08
1.78711e-06
2.46109e-08
1.7837e-06
2.5004e-08
1.77992e-06
2.77589e-08
3.64616e-08
1.7788e-06
2.06832e-06
3.3168e-07
2.0413e-06
2.1132e-07
2.02516e-06
1.72982e-07
2.01385e-06
1.43998e-07
2.00488e-06
1.19134e-07
1.99751e-06
1.00355e-07
1.9913e-06
8.55254e-08
1.98598e-06
7.28513e-08
1.98141e-06
6.18608e-08
1.97754e-06
5.24397e-08
1.97431e-06
4.44329e-08
1.97167e-06
3.77191e-08
1.96956e-06
3.22834e-08
1.96791e-06
2.82667e-08
1.96664e-06
2.58827e-08
1.9659e-06
2.5737e-08
1.96561e-06
2.80548e-08
3.46021e-08
1.96747e-06
2.22674e-06
3.59479e-07
2.20023e-06
2.3783e-07
2.18358e-06
1.89634e-07
2.17205e-06
1.55529e-07
2.16343e-06
1.27756e-07
2.15693e-06
1.06852e-07
2.152e-06
9.04615e-08
2.1482e-06
7.66454e-08
2.14531e-06
6.47543e-08
2.14318e-06
5.45661e-08
2.14173e-06
4.58828e-08
2.14089e-06
3.8565e-08
2.14059e-06
3.25837e-08
2.14081e-06
2.8043e-08
2.14157e-06
2.51243e-08
2.14308e-06
2.42212e-08
2.14559e-06
2.55527e-08
2.99106e-08
2.15028e-06
2.39451e-06
3.81328e-07
2.37001e-06
2.62333e-07
2.3533e-06
2.06341e-07
2.34136e-06
1.67474e-07
2.3325e-06
1.36612e-07
2.32609e-06
1.13262e-07
2.32155e-06
9.49996e-08
2.31841e-06
7.97901e-08
2.31635e-06
6.68121e-08
2.31519e-06
5.57212e-08
2.31482e-06
4.62579e-08
2.31514e-06
3.8245e-08
2.3161e-06
3.16172e-08
2.31773e-06
2.64214e-08
2.32008e-06
2.27696e-08
2.32343e-06
2.08723e-08
2.32815e-06
2.08321e-08
2.28884e-08
2.33517e-06
2.57287e-06
3.98246e-07
2.55105e-06
2.84156e-07
2.53483e-06
2.22561e-07
2.52271e-06
1.79593e-07
2.51357e-06
1.45755e-07
2.50699e-06
1.19843e-07
2.50247e-06
9.95169e-08
2.49954e-06
8.27197e-08
2.49787e-06
6.84829e-08
2.49725e-06
5.63434e-08
2.49753e-06
4.59719e-08
2.49864e-06
3.71403e-08
2.50052e-06
2.97316e-08
2.50322e-06
2.37223e-08
2.50685e-06
1.91369e-08
2.5117e-06
1.60299e-08
2.51816e-06
1.43661e-08
1.40712e-08
2.52698e-06
2.76281e-06
4.11106e-07
2.7439e-06
3.03069e-07
2.72866e-06
2.37799e-07
2.71678e-06
1.91475e-07
2.70757e-06
1.54962e-07
2.70085e-06
1.26558e-07
2.69626e-06
1.04106e-07
2.69338e-06
8.56053e-08
2.69188e-06
6.99799e-08
2.69156e-06
5.66634e-08
2.69227e-06
4.52581e-08
2.69394e-06
3.54791e-08
2.69652e-06
2.71488e-08
2.70007e-06
2.01687e-08
2.70474e-06
1.44723e-08
2.71078e-06
9.98761e-09
2.71858e-06
6.56211e-09
3.95173e-09
2.7287e-06
2.96526e-06
4.20738e-07
2.94926e-06
3.19068e-07
2.93539e-06
2.51668e-07
2.92416e-06
2.02702e-07
2.91522e-06
1.63901e-07
2.90858e-06
1.33205e-07
2.904e-06
1.0868e-07
2.90116e-06
8.84441e-08
2.89978e-06
7.13579e-08
2.89968e-06
5.67726e-08
2.9007e-06
4.42302e-08
2.90279e-06
3.33902e-08
2.90593e-06
2.40132e-08
2.91017e-06
1.5928e-08
2.91566e-06
8.98554e-09
2.92262e-06
3.01835e-09
2.93139e-06
-2.20757e-09
-7.01411e-09
2.94236e-06
3.18127e-06
4.2787e-07
3.16805e-06
3.32291e-07
3.15578e-06
2.63944e-07
3.14553e-06
2.12943e-07
3.13721e-06
1.72226e-07
3.13091e-06
1.39508e-07
3.12654e-06
1.13047e-07
3.12387e-06
9.11177e-08
3.12267e-06
7.25591e-08
3.12278e-06
5.66612e-08
3.12409e-06
4.29162e-08
3.12655e-06
3.09341e-08
3.13014e-06
2.04191e-08
3.13493e-06
1.1136e-08
3.14105e-06
2.86935e-09
3.14868e-06
-4.61301e-09
3.15806e-06
-1.15885e-08
-1.83928e-08
3.16944e-06
2.86585e-06
4.32439e-07
2.85668e-06
3.41458e-07
2.84759e-06
2.73039e-07
2.83983e-06
2.20695e-07
2.83349e-06
1.78569e-07
2.82864e-06
1.44354e-07
2.82529e-06
1.16403e-07
2.82329e-06
9.31145e-08
2.82251e-06
7.33412e-08
2.82283e-06
5.63383e-08
2.82419e-06
4.15623e-08
2.82653e-06
2.85872e-08
2.82988e-06
1.70767e-08
2.83426e-06
6.75235e-09
2.83977e-06
-2.64274e-09
2.84653e-06
-1.13736e-08
2.85467e-06
-1.97278e-08
-2.80372e-08
2.86432e-06
3.49512e-06
4.36397e-07
3.48659e-06
3.49987e-07
3.47776e-06
2.81866e-07
3.47008e-06
2.28376e-07
3.46375e-06
1.84904e-07
3.45891e-06
1.49188e-07
3.45562e-06
1.19692e-07
3.45378e-06
9.49579e-08
3.45326e-06
7.38628e-08
3.45396e-06
5.56339e-08
3.45583e-06
3.9696e-08
3.45883e-06
2.55904e-08
3.46296e-06
1.29443e-08
3.46827e-06
1.4423e-09
3.47483e-06
-9.20241e-09
3.48273e-06
-1.92707e-08
3.49204e-06
-2.90441e-08
-3.88275e-08
3.50283e-06
4.26219e-06
4.39634e-07
4.25476e-06
3.57416e-07
4.24672e-06
2.89905e-07
4.23963e-06
2.35468e-07
4.2338e-06
1.90727e-07
4.22944e-06
1.53556e-07
4.22661e-06
1.22519e-07
4.22527e-06
9.63018e-08
4.2253e-06
7.38256e-08
4.22664e-06
5.4297e-08
4.22922e-06
3.71136e-08
4.23302e-06
2.17894e-08
4.23804e-06
7.92323e-09
4.24431e-06
-4.82534e-09
4.25187e-06
-1.67576e-08
4.26075e-06
-2.81513e-08
4.27097e-06
-3.92633e-08
-5.03537e-08
4.28249e-06
5.19717e-06
4.42069e-07
5.19131e-06
3.63282e-07
5.1847e-06
2.96513e-07
5.17886e-06
2.41304e-07
5.17422e-06
1.95376e-07
5.17093e-06
1.56839e-07
5.16912e-06
1.24335e-07
5.16875e-06
9.66719e-08
5.16974e-06
7.283e-08
5.17203e-06
5.20083e-08
5.17556e-06
3.35826e-08
5.1803e-06
1.70478e-08
5.18624e-06
1.98527e-09
5.19337e-06
-1.19552e-08
5.20169e-06
-2.50727e-08
5.21116e-06
-3.76255e-08
5.22173e-06
-4.98331e-08
-6.19044e-08
5.23328e-06
6.33684e-06
4.43625e-07
6.333e-06
3.67118e-07
6.32863e-06
3.00887e-07
6.32494e-06
2.44993e-07
6.32235e-06
1.97971e-07
6.32098e-06
1.58208e-07
6.32091e-06
1.24405e-07
6.32212e-06
9.54542e-08
6.32456e-06
7.03903e-08
6.32815e-06
4.84183e-08
6.33284e-06
2.89009e-08
6.33856e-06
1.13228e-08
6.34529e-06
-4.74048e-09
6.35297e-06
-1.96337e-08
6.36153e-06
-3.36409e-08
6.3709e-06
-4.69923e-08
6.38093e-06
-5.98671e-08
-7.24288e-08
6.39146e-06
7.72605e-06
4.44166e-07
7.72485e-06
3.6832e-07
7.72379e-06
3.01946e-07
7.72352e-06
2.45264e-07
7.72424e-06
1.9725e-07
7.72596e-06
1.56489e-07
7.72866e-06
1.21705e-07
7.73229e-06
9.18173e-08
7.73679e-06
6.58929e-08
7.74207e-06
4.31422e-08
7.74805e-06
2.29203e-08
7.75466e-06
4.70913e-09
7.76183e-06
-1.19141e-08
7.76948e-06
-2.72775e-08
7.77748e-06
-4.16463e-08
7.78571e-06
-5.52229e-08
7.794e-06
-6.81533e-08
-8.05701e-08
7.80214e-06
9.41963e-06
4.43358e-07
9.42215e-06
3.65792e-07
9.42615e-06
2.97949e-07
9.43134e-06
2.40077e-07
9.4374e-06
1.91194e-07
9.44405e-06
1.49832e-07
9.45112e-06
1.14635e-07
9.45846e-06
8.44779e-08
9.46595e-06
5.84055e-08
9.47348e-06
3.56085e-08
9.48097e-06
1.54284e-08
9.48835e-06
-2.66571e-09
9.49552e-06
-1.90814e-08
9.50238e-06
-3.41401e-08
9.50882e-06
-4.80885e-08
9.51471e-06
-6.11093e-08
9.51988e-06
-7.33295e-08
-8.48654e-08
9.52418e-06
1.14849e-05
4.40133e-07
1.14938e-05
3.56895e-07
1.15064e-05
2.85302e-07
1.15209e-05
2.25572e-07
1.1536e-05
1.76128e-07
1.15509e-05
1.34944e-07
1.15652e-05
1.00378e-07
1.15785e-05
7.11592e-08
1.15907e-05
4.62146e-08
1.16016e-05
2.46467e-08
1.16113e-05
5.75288e-09
1.16197e-05
-1.10177e-08
1.16266e-05
-2.60668e-08
1.16322e-05
-3.97143e-08
1.16363e-05
-5.21973e-08
1.16389e-05
-6.36893e-08
1.16399e-05
-7.43105e-08
-8.41721e-08
1.16392e-05
8.40999e-06
4.35501e-07
8.42219e-06
3.44695e-07
8.43867e-06
2.68818e-07
8.4565e-06
2.07738e-07
8.47408e-06
1.58548e-07
8.49068e-06
1.18345e-07
8.50586e-06
8.51988e-08
8.51934e-06
5.76785e-08
8.53102e-06
3.45419e-08
8.54088e-06
1.47831e-08
8.54898e-06
-2.34387e-09
8.55535e-06
-1.73881e-08
8.56004e-06
-3.07633e-08
8.56311e-06
-4.27826e-08
8.56459e-06
-5.36772e-08
8.56452e-06
-6.36143e-08
8.56292e-06
-7.27096e-08
-8.10688e-08
8.55981e-06
7.32377e-06
4.29011e-07
7.34059e-06
3.27879e-07
7.36218e-06
2.47228e-07
7.38436e-06
1.85558e-07
7.40545e-06
1.37458e-07
7.42484e-06
9.89514e-08
7.4421e-06
6.7937e-08
7.457e-06
4.27835e-08
7.46953e-06
2.20131e-08
7.4798e-06
4.51235e-09
7.48794e-06
-1.0481e-08
7.49406e-06
-2.35095e-08
7.49828e-06
-3.49841e-08
7.50071e-06
-4.52098e-08
7.50144e-06
-5.44076e-08
7.50056e-06
-6.27352e-08
7.49815e-06
-7.03017e-08
-7.72048e-08
7.49428e-06
6.37911e-06
4.19967e-07
6.40151e-06
3.05477e-07
6.42829e-06
2.2045e-07
6.45421e-06
1.59642e-07
6.47809e-06
1.13574e-07
6.4996e-06
7.74428e-08
6.5183e-06
4.92332e-08
6.53407e-06
2.7013e-08
6.54707e-06
9.01445e-09
6.55752e-06
-5.94031e-09
6.56563e-06
-1.85863e-08
6.57157e-06
-2.9449e-08
6.57551e-06
-3.89267e-08
6.57761e-06
-4.7309e-08
6.578e-06
-5.47996e-08
6.57681e-06
-6.1542e-08
6.57414e-06
-6.76353e-08
-7.31659e-08
6.5701e-06
5.55817e-06
4.07262e-07
5.58729e-06
2.76357e-07
5.61908e-06
1.88659e-07
5.64798e-06
1.30739e-07
5.67391e-06
8.76472e-08
5.69674e-06
5.46093e-08
5.71608e-06
2.98926e-08
5.73201e-06
1.1086e-08
5.74488e-06
-3.85696e-09
5.75503e-06
-1.60896e-08
5.76273e-06
-2.62817e-08
5.76821e-06
-3.49285e-08
5.77169e-06
-4.2405e-08
5.77335e-06
-4.89734e-08
5.77336e-06
-5.48125e-08
5.77187e-06
-6.0047e-08
5.76899e-06
-6.4761e-08
-6.90275e-08
5.76486e-06
4.8457e-06
3.8917e-07
4.88253e-06
2.39522e-07
4.91848e-06
1.5271e-07
4.94927e-06
9.99543e-08
4.97624e-06
6.06726e-08
4.99931e-06
3.15419e-08
5.01822e-06
1.09855e-08
5.03337e-06
-4.06739e-09
5.04533e-06
-1.58176e-08
5.05452e-06
-2.52816e-08
5.06127e-06
-3.30314e-08
5.06586e-06
-3.95173e-08
5.06853e-06
-4.5076e-08
5.06949e-06
-4.99312e-08
5.06891e-06
-5.42308e-08
5.06694e-06
-5.80764e-08
5.06371e-06
-6.15349e-08
-6.46639e-08
5.05935e-06
4.22818e-06
3.63664e-07
4.27344e-06
1.94261e-07
4.31177e-06
1.14387e-07
4.3428e-06
6.89222e-08
4.36947e-06
3.39999e-08
4.39147e-06
9.53863e-09
4.40885e-06
-6.38797e-09
4.42235e-06
-1.75725e-08
4.4327e-06
-2.61634e-08
4.44036e-06
-3.29454e-08
4.4457e-06
-3.83711e-08
4.44902e-06
-4.28322e-08
4.45055e-06
-4.66147e-08
4.45052e-06
-4.98986e-08
4.44909e-06
-5.27984e-08
4.44641e-06
-5.53926e-08
4.4426e-06
-5.77294e-08
-5.98545e-08
4.43779e-06
3.69255e-06
3.29756e-07
3.74661e-06
1.40202e-07
3.78531e-06
7.56844e-08
3.81493e-06
3.93015e-08
3.83986e-06
9.07631e-09
3.85959e-06
-1.01961e-08
3.87456e-06
-2.13576e-08
3.88577e-06
-2.87838e-08
3.89397e-06
-3.43607e-08
3.89963e-06
-3.86094e-08
3.90313e-06
-4.18669e-08
3.90476e-06
-4.44598e-08
3.90476e-06
-4.66182e-08
3.90334e-06
-4.84769e-08
3.90066e-06
-5.01182e-08
3.89686e-06
-5.15978e-08
3.89208e-06
-5.2944e-08
-5.41896e-08
3.88641e-06
3.22777e-06
2.87015e-07
3.28912e-06
7.88545e-08
3.32688e-06
3.79296e-08
3.35435e-06
1.18237e-08
3.3763e-06
-1.28682e-08
3.39271e-06
-2.66024e-08
3.40442e-06
-3.30691e-08
3.41257e-06
-3.6937e-08
3.41786e-06
-3.96478e-08
3.42074e-06
-4.14918e-08
3.42159e-06
-4.27171e-08
3.42072e-06
-4.35854e-08
3.41836e-06
-4.42668e-08
3.41474e-06
-4.48487e-08
3.41e-06
-4.53784e-08
3.40429e-06
-4.58883e-08
3.39773e-06
-4.63876e-08
-4.69039e-08
3.39044e-06
2.83188e-06
2.27872e-07
2.89142e-06
1.93057e-08
2.92558e-06
3.77697e-09
2.95049e-06
-1.30919e-08
2.96837e-06
-3.07493e-08
2.98012e-06
-3.83531e-08
2.98705e-06
-3.99942e-08
2.99031e-06
-4.01976e-08
2.9907e-06
-4.00328e-08
2.98877e-06
-3.95633e-08
2.98497e-06
-3.89235e-08
2.97966e-06
-3.8277e-08
2.97311e-06
-3.77102e-08
2.96551e-06
-3.72484e-08
2.95702e-06
-3.68933e-08
2.94779e-06
-3.6651e-08
2.93791e-06
-3.6509e-08
-3.64953e-08
2.9275e-06
2.52406e-06
1.17615e-07
2.5571e-06
-1.37383e-08
2.57606e-06
-1.51811e-08
2.59025e-06
-2.72792e-08
2.5988e-06
-3.92965e-08
2.60045e-06
-4.00084e-08
2.59682e-06
-3.6365e-08
2.58941e-06
-3.27875e-08
2.57944e-06
-3.00626e-08
2.5678e-06
-2.79201e-08
2.55506e-06
-2.61829e-08
2.54157e-06
-2.47918e-08
2.52756e-06
-2.36953e-08
2.51315e-06
-2.28365e-08
2.49842e-06
-2.21667e-08
2.48344e-06
-2.16669e-08
2.46825e-06
-2.1327e-08
-2.13693e-08
2.45313e-06
2.21895e-06
2.20522e-06
2.19003e-06
2.16275e-06
2.12346e-06
2.08345e-06
2.04708e-06
2.0143e-06
1.98423e-06
1.95631e-06
1.93013e-06
1.90534e-06
1.88164e-06
1.85881e-06
1.83664e-06
1.81497e-06
1.79365e-06
1.77228e-06
-4.29543e-08
4.29543e-08
-9.77888e-08
5.48344e-08
-1.61143e-07
6.33543e-08
-2.30205e-07
6.90616e-08
-3.02314e-07
7.21094e-08
-3.75423e-07
7.31085e-08
-4.4901e-07
7.35877e-08
-5.23893e-07
7.48823e-08
-5.9708e-07
7.31874e-08
-6.65455e-07
6.83747e-08
-7.32527e-07
6.70722e-08
-7.99837e-07
6.73102e-08
-8.62702e-07
6.28649e-08
-9.18431e-07
5.5729e-08
-9.73078e-07
5.46467e-08
-1.02611e-06
5.30313e-08
-1.06989e-06
4.37815e-08
-1.10275e-06
3.28561e-08
-1.12591e-06
2.31628e-08
-1.14065e-06
1.47453e-08
-1.14679e-06
6.13921e-09
-1.14487e-06
-1.92291e-09
-1.13456e-06
-1.03106e-08
-1.11586e-06
-1.86977e-08
-1.08886e-06
-2.70003e-08
-1.05371e-06
-3.51545e-08
-1.01062e-06
-4.30877e-08
-9.59897e-07
-5.07237e-08
-9.01911e-07
-5.79852e-08
-8.37112e-07
-6.4799e-08
-7.66014e-07
-7.10989e-08
-6.89187e-07
-7.68264e-08
-6.07255e-07
-8.19324e-08
-5.20876e-07
-8.63788e-08
-4.30736e-07
-9.014e-08
-3.37534e-07
-9.3202e-08
-2.41965e-07
-9.55694e-08
-1.44679e-07
-9.72855e-08
-4.62004e-08
-9.84788e-08
5.29741e-08
-9.91745e-08
1.52258e-07
-9.92841e-08
2.51076e-07
-9.88173e-08
3.48919e-07
-9.78437e-08
4.4534e-07
-9.6421e-08
5.39943e-07
-9.46024e-08
6.32381e-07
-9.24387e-08
7.2236e-07
-8.99787e-08
8.0963e-07
-8.72697e-08
8.93987e-07
-8.43568e-08
9.75269e-07
-8.12825e-08
1.05336e-06
-7.80869e-08
1.12816e-06
-7.48068e-08
1.19964e-06
-7.14761e-08
1.26776e-06
-6.8125e-08
1.33254e-06
-6.47808e-08
1.39401e-06
-6.14671e-08
1.45222e-06
-5.82047e-08
1.50723e-06
-5.50109e-08
1.55913e-06
-5.19004e-08
1.60801e-06
-4.88849e-08
1.65399e-06
-4.5974e-08
1.69716e-06
-4.31746e-08
1.73765e-06
-4.04918e-08
1.77558e-06
-3.79287e-08
1.81107e-06
-3.54872e-08
1.84424e-06
-3.31674e-08
1.8752e-06
-3.09684e-08
1.90409e-06
-2.88884e-08
1.93102e-06
-2.69246e-08
1.95609e-06
-2.50736e-08
1.97942e-06
-2.33318e-08
2.00112e-06
-2.16947e-08
2.02128e-06
-2.01579e-08
2.03999e-06
-1.87166e-08
2.05736e-06
-1.73661e-08
2.07346e-06
-1.61017e-08
2.08838e-06
-1.49184e-08
2.10219e-06
-1.38116e-08
2.11497e-06
-1.27766e-08
2.12678e-06
-1.18092e-08
2.13768e-06
-1.0905e-08
2.14774e-06
-1.00599e-08
2.15701e-06
-9.27009e-09
2.16554e-06
-8.53189e-09
2.17338e-06
-7.84183e-09
2.18058e-06
-7.19662e-09
2.18717e-06
-6.59323e-09
2.1932e-06
-6.02871e-09
2.1987e-06
-5.50035e-09
2.20371e-06
-5.00558e-09
2.20825e-06
-4.54196e-09
2.21236e-06
-4.10734e-09
2.21606e-06
-3.69971e-09
2.21938e-06
-3.31733e-09
2.22233e-06
-2.95848e-09
2.22496e-06
-2.62171e-09
2.22726e-06
-2.30557e-09
2.22927e-06
-2.00862e-09
2.231e-06
-1.72961e-09
2.23247e-06
-1.4672e-09
2.23369e-06
-1.22001e-09
2.23467e-06
-9.86443e-10
2.23544e-06
-7.64293e-10
2.23599e-06
-5.49659e-10
2.23633e-06
-3.41433e-10
2.23646e-06
-1.28762e-10
2.23631e-06
1.44889e-10
2.23588e-06
4.31383e-10
2.2352e-06
6.84504e-10
2.23429e-06
9.03491e-10
2.2332e-06
1.08808e-09
2.23196e-06
1.24251e-09
2.23059e-06
1.37181e-09
2.22911e-06
1.48095e-09
2.22754e-06
1.57443e-09
2.22588e-06
1.65603e-09
2.22415e-06
1.72853e-09
2.22236e-06
1.79399e-09
2.2205e-06
1.85329e-09
2.2186e-06
1.90655e-09
2.21664e-06
1.95189e-09
2.21466e-06
1.98333e-09
2.21268e-06
1.97792e-09
2.21083e-06
1.85781e-09
2.20951e-06
1.32064e-09
2.21056e-06
-1.0546e-09
2.20698e-06
3.58399e-09
2.2021e-06
4.87279e-09
2.20193e-06
1.75705e-10
2.20155e-06
3.80037e-10
2.20284e-06
-1.2958e-09
2.19999e-06
2.85485e-09
2.1947e-06
5.28786e-09
2.19334e-06
1.35651e-09
2.19273e-06
6.1754e-10
2.19348e-06
-7.4984e-10
2.19138e-06
2.09567e-09
2.18663e-06
4.75489e-09
2.1842e-06
2.42675e-09
2.1831e-06
1.10243e-09
2.18314e-06
-4.78203e-11
2.18151e-06
1.63631e-09
2.17745e-06
4.06146e-09
2.17455e-06
2.89887e-09
2.17396e-06
5.91307e-10
2.1727e-06
1.26083e-09
2.16933e-06
3.36115e-09
2.1662e-06
3.13594e-09
2.16405e-06
2.15145e-09
2.16283e-06
1.21543e-09
2.16114e-06
1.69531e-09
2.15772e-06
3.42065e-09
2.15418e-06
3.53567e-09
2.15144e-06
2.74435e-09
2.14957e-06
1.86611e-09
2.14758e-06
1.99342e-09
2.14428e-06
3.29889e-09
2.14062e-06
3.65316e-09
2.13793e-06
2.69057e-09
2.13552e-06
2.41583e-09
2.13232e-06
3.19754e-09
2.12861e-06
3.7118e-09
2.12499e-06
3.6162e-09
2.12182e-06
3.17279e-09
2.11871e-06
3.10864e-09
2.11475e-06
3.9585e-09
2.11011e-06
4.64583e-09
2.10557e-06
4.5322e-09
2.10101e-06
4.5594e-09
2.09573e-06
5.28451e-09
2.08942e-06
6.31402e-09
2.08232e-06
7.10039e-09
2.07416e-06
8.1522e-09
2.06405e-06
1.01148e-08
2.05104e-06
1.30053e-08
2.03368e-06
1.73639e-08
2.00888e-06
2.47993e-08
1.97117e-06
3.77128e-08
1.90298e-06
6.81917e-08
1.11887e-07
1.79109e-06
-7.15977e-08
1.14552e-07
-1.46094e-07
1.29331e-07
-2.21481e-07
1.38741e-07
-2.98042e-07
1.45623e-07
-3.75783e-07
1.4985e-07
-4.54254e-07
1.51579e-07
-5.32072e-07
1.51406e-07
-6.0709e-07
1.499e-07
-6.8038e-07
1.46477e-07
-7.52646e-07
1.40641e-07
-8.19623e-07
1.34049e-07
-8.79405e-07
1.27092e-07
-9.3493e-07
1.18391e-07
-9.87131e-07
1.0793e-07
-1.02982e-06
9.73401e-08
-1.06281e-06
8.60126e-08
-1.09133e-06
7.23087e-08
-1.11542e-06
5.69465e-08
-1.13343e-06
4.11661e-08
-1.14413e-06
2.54533e-08
-1.14762e-06
9.62595e-09
-1.14305e-06
-6.49802e-09
-1.13047e-06
-2.28887e-08
-1.10976e-06
-3.94107e-08
-1.08087e-06
-5.58807e-08
-1.04391e-06
-7.21197e-08
-9.99046e-07
-8.79511e-08
-9.46565e-07
-1.03204e-07
-8.86832e-07
-1.17719e-07
-8.20285e-07
-1.31346e-07
-7.47427e-07
-1.43956e-07
-6.68815e-07
-1.55439e-07
-5.8504e-07
-1.65707e-07
-4.96725e-07
-1.74694e-07
-4.04503e-07
-1.82362e-07
-3.09011e-07
-1.88693e-07
-2.10881e-07
-1.937e-07
-1.10741e-07
-1.97426e-07
-9.28017e-09
-1.99939e-07
9.28228e-08
-2.01277e-07
1.95028e-07
-2.0149e-07
2.96858e-07
-2.00647e-07
3.97853e-07
-1.98839e-07
4.97591e-07
-1.96158e-07
5.95689e-07
-1.927e-07
6.91808e-07
-1.88558e-07
7.85654e-07
-1.83825e-07
8.76976e-07
-1.78591e-07
9.65562e-07
-1.72943e-07
1.05124e-06
-1.66962e-07
1.13388e-06
-1.60726e-07
1.21338e-06
-1.54306e-07
1.28967e-06
-1.47766e-07
1.36271e-06
-1.41167e-07
1.43249e-06
-1.34562e-07
1.49903e-06
-1.27998e-07
1.56234e-06
-1.21515e-07
1.62247e-06
-1.15149e-07
1.6795e-06
-1.0893e-07
1.7335e-06
-1.02882e-07
1.78455e-06
-9.70253e-08
1.83275e-06
-9.13751e-08
1.8782e-06
-8.59429e-08
1.92101e-06
-8.07364e-08
1.96128e-06
-7.57603e-08
1.99913e-06
-7.10165e-08
2.03467e-06
-6.65045e-08
2.068e-06
-6.2222e-08
2.09924e-06
-5.81645e-08
2.1285e-06
-5.43268e-08
2.15587e-06
-5.07022e-08
2.18145e-06
-4.72834e-08
2.20536e-06
-4.40621e-08
2.22767e-06
-4.103e-08
2.24848e-06
-3.81785e-08
2.26788e-06
-3.54986e-08
2.28594e-06
-3.29816e-08
2.30275e-06
-3.06186e-08
2.31838e-06
-2.84012e-08
2.33289e-06
-2.6321e-08
2.34635e-06
-2.437e-08
2.35883e-06
-2.25404e-08
2.37039e-06
-2.08249e-08
2.38107e-06
-1.92162e-08
2.39094e-06
-1.77079e-08
2.40004e-06
-1.62934e-08
2.40841e-06
-1.49669e-08
2.4161e-06
-1.37225e-08
2.42316e-06
-1.2555e-08
2.42961e-06
-1.14592e-08
2.4355e-06
-1.04304e-08
2.44086e-06
-9.46433e-09
2.44571e-06
-8.55683e-09
2.4501e-06
-7.70422e-09
2.45405e-06
-6.90305e-09
2.45757e-06
-6.15008e-09
2.46071e-06
-5.44221e-09
2.46348e-06
-4.7766e-09
2.4659e-06
-4.15035e-09
2.46799e-06
-3.56082e-09
2.46978e-06
-3.00516e-09
2.47127e-06
-2.48057e-09
2.47249e-06
-1.98382e-09
2.47345e-06
-1.51164e-09
2.47417e-06
-1.06166e-09
2.47468e-06
-6.34035e-10
2.47504e-06
-2.11885e-10
2.47527e-06
2.01927e-10
2.47535e-06
6.04508e-10
2.47526e-06
9.89132e-10
2.475e-06
1.35131e-09
2.47455e-06
1.68836e-09
2.47392e-06
1.99918e-09
2.47312e-06
2.28415e-09
2.47215e-06
2.54437e-09
2.47102e-06
2.78169e-09
2.46976e-06
2.998e-09
2.46835e-06
3.19507e-09
2.46683e-06
3.37428e-09
2.4652e-06
3.53597e-09
2.46348e-06
3.67832e-09
2.46167e-06
3.79473e-09
2.45978e-06
3.86652e-09
2.45779e-06
3.84947e-09
2.45545e-06
3.65971e-09
2.45099e-06
3.39694e-09
2.44874e-06
5.84273e-09
2.44707e-06
6.53559e-09
2.44305e-06
4.20099e-09
2.43962e-06
3.80922e-09
2.43458e-06
3.73888e-09
2.43204e-06
5.4033e-09
2.43078e-06
6.54358e-09
2.42681e-06
5.3236e-09
2.42297e-06
4.4595e-09
2.41797e-06
4.25334e-09
2.41479e-06
5.2715e-09
2.41314e-06
6.41173e-09
2.40952e-06
6.04418e-09
2.40548e-06
5.13857e-09
2.40069e-06
4.74617e-09
2.39703e-06
5.29279e-09
2.39477e-06
6.32184e-09
2.39127e-06
6.39919e-09
2.38644e-06
5.42331e-09
2.38232e-06
5.38086e-09
2.37941e-06
6.27387e-09
2.37593e-06
6.61501e-09
2.37189e-06
6.19058e-09
2.36743e-06
5.67555e-09
2.36341e-06
5.71241e-09
2.36031e-06
6.52495e-09
2.35682e-06
7.02621e-09
2.35277e-06
6.79096e-09
2.34834e-06
6.29658e-09
2.34416e-06
6.17096e-09
2.34065e-06
6.81124e-09
2.3369e-06
7.40316e-09
2.33242e-06
7.16977e-09
2.32799e-06
6.84219e-09
2.32398e-06
7.21205e-09
2.3199e-06
7.79505e-09
2.31549e-06
8.01744e-09
2.31079e-06
7.88006e-09
2.30609e-06
7.80037e-09
2.30168e-06
8.37474e-09
2.29706e-06
9.26665e-09
2.29184e-06
9.74945e-09
2.28635e-06
1.00513e-08
2.28075e-06
1.08791e-08
2.27475e-06
1.23198e-08
2.26796e-06
1.38891e-08
2.26039e-06
1.57183e-08
2.25192e-06
1.85923e-08
2.24191e-06
2.30158e-08
2.22976e-06
2.951e-08
2.21441e-06
4.01437e-08
2.19453e-06
5.76024e-08
2.16731e-06
9.54078e-08
1.59281e-07
2.11992e-06
-7.30906e-08
1.87643e-07
-1.51893e-07
2.08133e-07
-2.30993e-07
2.17842e-07
-3.09655e-07
2.24284e-07
-3.87786e-07
2.27981e-07
-4.65177e-07
2.2897e-07
-5.41179e-07
2.27408e-07
-6.14797e-07
2.23518e-07
-6.85694e-07
2.17374e-07
-7.54019e-07
2.08967e-07
-8.18673e-07
1.98703e-07
-8.78456e-07
1.86875e-07
-9.33452e-07
1.73386e-07
-9.83764e-07
1.58242e-07
-1.02807e-06
1.41648e-07
-1.06563e-06
1.23568e-07
-1.09716e-06
1.03842e-07
-1.12285e-06
8.26337e-08
-1.14201e-06
6.03247e-08
-1.15374e-06
3.71861e-08
-1.15745e-06
1.33413e-08
-1.15285e-06
-1.1106e-08
-1.13976e-06
-3.59756e-08
-1.11814e-06
-6.10323e-08
-1.08801e-06
-8.60122e-08
-1.04949e-06
-1.10638e-07
-1.00281e-06
-1.34631e-07
-9.48289e-07
-1.57724e-07
-8.86344e-07
-1.79664e-07
-8.17465e-07
-2.00225e-07
-7.4221e-07
-2.19211e-07
-6.61188e-07
-2.36461e-07
-5.75044e-07
-2.51851e-07
-4.84442e-07
-2.65296e-07
-3.90058e-07
-2.76746e-07
-2.92561e-07
-2.86191e-07
-1.92609e-07
-2.93653e-07
-9.08497e-08
-2.99184e-07
1.20576e-08
-3.02847e-07
1.15496e-07
-3.04716e-07
2.18922e-07
-3.04916e-07
3.21842e-07
-3.03567e-07
4.23804e-07
-3.00801e-07
5.24401e-07
-2.96756e-07
6.23273e-07
-2.91572e-07
7.20101e-07
-2.85387e-07
8.14614e-07
-2.78337e-07
9.06578e-07
-2.70556e-07
9.95803e-07
-2.62168e-07
1.08213e-06
-2.53293e-07
1.16545e-06
-2.44042e-07
1.24566e-06
-2.34518e-07
1.32271e-06
-2.24815e-07
1.39656e-06
-2.15018e-07
1.46721e-06
-2.05205e-07
1.53465e-06
-1.95442e-07
1.59892e-06
-1.8579e-07
1.66008e-06
-1.763e-07
1.71816e-06
-1.67016e-07
1.77325e-06
-1.57974e-07
1.82543e-06
-1.49205e-07
1.87479e-06
-1.40731e-07
1.92142e-06
-1.3257e-07
1.96541e-06
-1.24735e-07
2.00689e-06
-1.17234e-07
2.04594e-06
-1.1007e-07
2.08268e-06
-1.03243e-07
2.11721e-06
-9.67514e-08
2.14963e-06
-9.05894e-08
2.18006e-06
-8.47497e-08
2.20858e-06
-7.92233e-08
2.23529e-06
-7.4e-08
2.2603e-06
-6.90685e-08
2.28369e-06
-6.44171e-08
2.30554e-06
-6.00332e-08
2.32595e-06
-5.59046e-08
2.34499e-06
-5.20186e-08
2.36273e-06
-4.83627e-08
2.37925e-06
-4.49248e-08
2.39462e-06
-4.16928e-08
2.40891e-06
-3.86553e-08
2.42217e-06
-3.5801e-08
2.43447e-06
-3.31193e-08
2.44585e-06
-3.06e-08
2.45637e-06
-2.82333e-08
2.46609e-06
-2.601e-08
2.47505e-06
-2.39213e-08
2.48328e-06
-2.19589e-08
2.49084e-06
-2.01148e-08
2.49776e-06
-1.83818e-08
2.50409e-06
-1.67528e-08
2.50984e-06
-1.52213e-08
2.51507e-06
-1.37813e-08
2.51979e-06
-1.24271e-08
2.52404e-06
-1.11536e-08
2.52785e-06
-9.95558e-09
2.53123e-06
-8.8285e-09
2.53422e-06
-7.7678e-09
2.53684e-06
-6.76926e-09
2.53911e-06
-5.82866e-09
2.54105e-06
-4.94197e-09
2.54267e-06
-4.1051e-09
2.544e-06
-3.31396e-09
2.54506e-06
-2.56451e-09
2.54585e-06
-1.85261e-09
2.54639e-06
-1.17616e-09
2.54671e-06
-5.32021e-10
2.54683e-06
8.41995e-11
2.54676e-06
6.74157e-10
2.54651e-06
1.23677e-09
2.54609e-06
1.77122e-09
2.5455e-06
2.27611e-09
2.54475e-06
2.75037e-09
2.54384e-06
3.19362e-09
2.54278e-06
3.60603e-09
2.54157e-06
3.98838e-09
2.54023e-06
4.34186e-09
2.53876e-06
4.66793e-09
2.53716e-06
4.96772e-09
2.53546e-06
5.24185e-09
2.53365e-06
5.48947e-09
2.53173e-06
5.70703e-09
2.52971e-06
5.88671e-09
2.52754e-06
6.01937e-09
2.52508e-06
6.12099e-09
2.5221e-06
6.38185e-09
2.52048e-06
7.46123e-09
2.51906e-06
7.95039e-09
2.51607e-06
7.1944e-09
2.513e-06
6.87557e-09
2.50973e-06
7.01156e-09
2.50732e-06
7.8139e-09
2.50528e-06
8.58333e-09
2.50232e-06
8.28591e-09
2.49899e-06
7.78927e-09
2.49553e-06
7.7094e-09
2.4926e-06
8.20162e-09
2.48999e-06
9.02156e-09
2.48693e-06
9.1042e-09
2.48344e-06
8.62649e-09
2.47981e-06
8.37594e-09
2.4765e-06
8.60435e-09
2.47347e-06
9.35403e-09
2.47018e-06
9.68725e-09
2.46638e-06
9.22652e-09
2.46271e-06
9.05129e-09
2.45935e-06
9.63567e-09
2.45589e-06
1.00714e-08
2.45217e-06
9.91215e-09
2.44825e-06
9.593e-09
2.44443e-06
9.535e-09
2.44088e-06
1.00794e-08
2.43727e-06
1.06344e-08
2.43341e-06
1.06505e-08
2.42932e-06
1.03801e-08
2.42525e-06
1.02497e-08
2.42139e-06
1.06695e-08
2.41751e-06
1.12807e-08
2.4133e-06
1.13823e-08
2.40893e-06
1.12123e-08
2.40467e-06
1.14681e-08
2.40043e-06
1.2036e-08
2.39603e-06
1.24175e-08
2.39139e-06
1.25147e-08
2.38661e-06
1.2589e-08
2.38186e-06
1.31187e-08
2.37705e-06
1.4083e-08
2.37185e-06
1.49468e-08
2.36624e-06
1.56581e-08
2.36036e-06
1.67633e-08
2.35413e-06
1.85509e-08
2.34723e-06
2.07903e-08
2.33944e-06
2.35082e-08
2.33063e-06
2.74025e-08
2.32039e-06
3.32558e-08
2.30803e-06
4.18613e-08
2.29282e-06
5.53574e-08
2.27353e-06
7.68949e-08
2.25195e-06
1.16987e-07
1.82123e-07
2.22911e-06
-7.47488e-08
2.62391e-07
-1.55207e-07
2.88591e-07
-2.36471e-07
2.99105e-07
-3.17162e-07
3.04976e-07
-3.96724e-07
3.07543e-07
-4.74836e-07
3.07082e-07
-5.51167e-07
3.03739e-07
-6.25307e-07
2.97658e-07
-6.96896e-07
2.88963e-07
-7.65718e-07
2.77788e-07
-8.31337e-07
2.64322e-07
-8.93151e-07
2.48689e-07
-9.50681e-07
2.30916e-07
-1.00347e-06
2.11035e-07
-1.05093e-06
1.89101e-07
-1.09247e-06
1.6511e-07
-1.1277e-06
1.39071e-07
-1.15617e-06
1.1111e-07
-1.17729e-06
8.14386e-08
-1.19039e-06
5.02905e-08
-1.19497e-06
1.79195e-08
-1.1906e-06
-1.54734e-08
-1.17708e-06
-4.95015e-08
-1.15429e-06
-8.38143e-08
-1.12229e-06
-1.18016e-07
-1.08123e-06
-1.51698e-07
-1.03141e-06
-1.84455e-07
-9.73229e-07
-2.159e-07
-9.07215e-07
-2.45678e-07
-8.33966e-07
-2.73474e-07
-7.54154e-07
-2.99023e-07
-6.68499e-07
-3.22116e-07
-5.77751e-07
-3.42599e-07
-4.82673e-07
-3.60373e-07
-3.84025e-07
-3.75394e-07
-2.82549e-07
-3.87667e-07
-1.78962e-07
-3.9724e-07
-7.39475e-08
-4.04199e-07
3.18412e-08
-4.08635e-07
1.37803e-07
-4.10677e-07
2.43388e-07
-4.10501e-07
3.48102e-07
-4.08281e-07
4.51507e-07
-4.04206e-07
5.53218e-07
-3.98467e-07
6.52902e-07
-3.91256e-07
7.50275e-07
-3.8276e-07
8.451e-07
-3.73162e-07
9.3718e-07
-3.62637e-07
1.02636e-06
-3.51349e-07
1.11252e-06
-3.39455e-07
1.19558e-06
-3.27096e-07
1.27546e-06
-3.14405e-07
1.35215e-06
-3.015e-07
1.42562e-06
-2.8849e-07
1.49589e-06
-2.75471e-07
1.56297e-06
-2.62528e-07
1.62692e-06
-2.49735e-07
1.68777e-06
-2.37158e-07
1.74561e-06
-2.24851e-07
1.8005e-06
-2.1286e-07
1.85251e-06
-2.01223e-07
1.90175e-06
-1.89971e-07
1.94831e-06
-1.79125e-07
1.99228e-06
-1.68702e-07
2.03376e-06
-1.58714e-07
2.07285e-06
-1.49164e-07
2.10966e-06
-1.40055e-07
2.14429e-06
-1.31383e-07
2.17685e-06
-1.23141e-07
2.20742e-06
-1.15321e-07
2.2361e-06
-1.07911e-07
2.263e-06
-1.00899e-07
2.2882e-06
-9.42694e-08
2.3118e-06
-8.8008e-08
2.33386e-06
-8.20988e-08
2.35448e-06
-7.65259e-08
2.37374e-06
-7.12731e-08
2.3917e-06
-6.63244e-08
2.40844e-06
-6.16642e-08
2.42402e-06
-5.72769e-08
2.43851e-06
-5.31479e-08
2.45198e-06
-4.92625e-08
2.46446e-06
-4.56072e-08
2.47603e-06
-4.21687e-08
2.48673e-06
-3.89343e-08
2.49662e-06
-3.58922e-08
2.50572e-06
-3.30308e-08
2.51411e-06
-3.03395e-08
2.5218e-06
-2.78079e-08
2.52884e-06
-2.54264e-08
2.53528e-06
-2.3186e-08
2.54113e-06
-2.1078e-08
2.54645e-06
-1.90946e-08
2.55125e-06
-1.72281e-08
2.55557e-06
-1.54716e-08
2.55943e-06
-1.38184e-08
2.56286e-06
-1.22621e-08
2.56589e-06
-1.07967e-08
2.56854e-06
-9.4166e-09
2.57083e-06
-8.11613e-09
2.57277e-06
-6.89003e-09
2.5744e-06
-5.73298e-09
2.57573e-06
-4.63984e-09
2.57677e-06
-3.60569e-09
2.57754e-06
-2.62569e-09
2.57806e-06
-1.69645e-09
2.57834e-06
-8.14858e-10
2.57841e-06
2.27671e-11
2.57826e-06
8.18758e-10
2.57792e-06
1.5744e-09
2.5774e-06
2.29047e-09
2.57671e-06
2.96726e-09
2.57586e-06
3.6048e-09
2.57485e-06
4.20331e-09
2.57369e-06
4.76347e-09
2.57239e-06
5.28623e-09
2.57096e-06
5.77282e-09
2.56941e-06
6.22478e-09
2.56773e-06
6.64362e-09
2.56594e-06
7.03046e-09
2.56405e-06
7.38584e-09
2.56204e-06
7.70967e-09
2.55993e-06
8.0019e-09
2.55768e-06
8.26854e-09
2.55526e-06
8.54013e-09
2.55272e-06
8.9189e-09
2.55061e-06
9.57441e-09
2.54858e-06
9.9784e-09
2.54595e-06
9.83008e-09
2.54306e-06
9.75686e-09
2.54013e-06
9.94802e-09
2.53746e-06
1.04812e-08
2.535e-06
1.10399e-08