/*--------------------------------*- C++ -*----------------------------------*\
  =========                 |
  \\      /  F ield         | OpenFOAM: The Open Source CFD Toolbox
   \\    /   O peration     | Website:  https://openfoam.org
    \\  /    A nd           | Version:  7
     \\/     M anipulation  |
\*---------------------------------------------------------------------------*/
FoamFile
{
    version     2.0;
    format      ascii;
    class       volScalarField;
    location    "0.27";
    object      k;
}
// * * * * * * * * * * * * * * * * * * * * * * * * * * * * * * * * * * * * * //

dimensions      [0 2 -2 0 0 0 0];

internalField   nonuniform List<scalar> 
12225
(
0.332317
0.291425
0.257358
0.230626
0.211153
0.197862
0.189254
0.183916
0.180733
0.178896
0.177856
0.17726
0.176892
0.176626
0.176396
0.176156
0.17595
0.177127
0.412401
0.405339
0.384442
0.372419
0.369842
0.372731
0.377784
0.383145
0.387982
0.391991
0.395132
0.397487
0.399186
0.40036
0.401145
0.401561
0.402034
0.401632
0.385493
0.382621
0.37238
0.362671
0.356086
0.352602
0.351409
0.351688
0.352821
0.354373
0.356057
0.357701
0.359216
0.360563
0.361742
0.362742
0.363659
0.364282
0.377227
0.374576
0.368311
0.360828
0.353906
0.348226
0.343847
0.340598
0.338264
0.336631
0.335512
0.334757
0.334256
0.333928
0.333717
0.33358
0.333502
0.333424
0.374686
0.371972
0.367006
0.360935
0.354801
0.349104
0.34402
0.339588
0.335779
0.332529
0.329758
0.32739
0.325353
0.323591
0.322055
0.320705
0.319507
0.318441
0.373367
0.37041
0.366182
0.361149
0.355897
0.350752
0.345873
0.341341
0.337193
0.333429
0.330026
0.326952
0.324174
0.321659
0.319374
0.317293
0.31539
0.313664
0.372514
0.36931
0.365485
0.361142
0.356592
0.352038
0.347593
0.343335
0.339311
0.335545
0.332037
0.328782
0.325764
0.322967
0.320375
0.317968
0.315733
0.313683
0.371961
0.368516
0.364845
0.360912
0.356855
0.352786
0.348773
0.344871
0.341122
0.33755
0.334167
0.330975
0.327971
0.325147
0.322495
0.320004
0.317668
0.315509
0.371601
0.367939
0.364273
0.360546
0.356798
0.353078
0.349415
0.34584
0.34238
0.339054
0.335874
0.332844
0.329965
0.327234
0.324648
0.322199
0.319887
0.317739
0.371367
0.367529
0.3638
0.360143
0.356559
0.353057
0.349641
0.34632
0.343106
0.34001
0.337038
0.334193
0.331474
0.328882
0.326414
0.324065
0.321837
0.31976
0.371217
0.367247
0.36344
0.35978
0.356258
0.352867
0.349599
0.34645
0.343417
0.340502
0.337706
0.335027
0.332463
0.330013
0.327674
0.325442
0.32332
0.321336
0.371127
0.367076
0.363208
0.359518
0.356
0.352646
0.349443
0.346381
0.343451
0.34065
0.33797
0.335408
0.33296
0.330621
0.328388
0.326256
0.324227
0.32233
0.371065
0.366958
0.363043
0.359321
0.355788
0.352438
0.34926
0.346241
0.34337
0.340638
0.338037
0.335559
0.333196
0.330944
0.328795
0.326747
0.324799
0.322977
0.371019
0.366871
0.362922
0.359171
0.355617
0.352255
0.349077
0.346071
0.343226
0.340531
0.337976
0.335552
0.333249
0.33106
0.328978
0.326997
0.325117
0.323361
0.370987
0.366811
0.362842
0.359073
0.355503
0.352127
0.348938
0.345928
0.343086
0.340402
0.337864
0.335464
0.333192
0.331038
0.328995
0.327056
0.32522
0.323509
0.370966
0.366774
0.362796
0.359021
0.355444
0.352061
0.348866
0.345851
0.343005
0.34032
0.337785
0.335391
0.333127
0.330986
0.328959
0.327039
0.325224
0.323536
0.370955
0.366757
0.362779
0.359007
0.355434
0.352056
0.348864
0.345851
0.343008
0.340325
0.337793
0.335401
0.333142
0.331006
0.328985
0.327073
0.325267
0.323589
0.370956
0.366761
0.362791
0.359031
0.355472
0.352108
0.348931
0.345932
0.343103
0.340433
0.337914
0.335535
0.333288
0.331163
0.329154
0.327253
0.325458
0.323791
0.370974
0.366798
0.362849
0.359113
0.35558
0.352245
0.349098
0.346131
0.343333
0.340695
0.338207
0.335859
0.333642
0.331547
0.329567
0.327693
0.325925
0.324284
0.371015
0.366882
0.362976
0.359284
0.355798
0.352513
0.349419
0.346508
0.343768
0.341188
0.338758
0.336467
0.334306
0.332265
0.330337
0.328514
0.326793
0.325196
0.371081
0.367016
0.363177
0.359553
0.35614
0.352932
0.34992
0.347093
0.344436
0.341938
0.339586
0.337368
0.335275
0.333297
0.331425
0.329652
0.327975
0.326416
0.371191
0.367242
0.36352
0.360017
0.356729
0.35365
0.350767
0.348061
0.345514
0.343112
0.34084
0.338687
0.336643
0.334699
0.332847
0.331082
0.329401
0.327826
0.371381
0.367644
0.364139
0.360846
0.357754
0.354851
0.352116
0.34952
0.347043
0.344671
0.342395
0.340207
0.338101
0.336073
0.334117
0.332233
0.330423
0.328712
0.371731
0.368398
0.36528
0.362293
0.35941
0.35663
0.353929
0.351281
0.348678
0.346123
0.343619
0.341172
0.338785
0.336463
0.33421
0.332029
0.329926
0.327934
0.372421
0.369829
0.36729
0.364585
0.361716
0.358752
0.355717
0.352625
0.349507
0.346401
0.343336
0.340334
0.337412
0.334582
0.331851
0.329226
0.326713
0.324346
0.373942
0.372661
0.370661
0.367779
0.364273
0.360414
0.356349
0.352189
0.348034
0.34396
0.340013
0.336223
0.332607
0.329173
0.325926
0.322864
0.319984
0.317314
0.377771
0.378982
0.376507
0.371673
0.365879
0.359788
0.353689
0.347764
0.342138
0.336875
0.332003
0.327523
0.323424
0.319685
0.316284
0.313194
0.310391
0.307873
0.3876
0.394032
0.38662
0.374838
0.363294
0.352969
0.343933
0.336122
0.329443
0.323783
0.319023
0.315047
0.311749
0.309032
0.30681
0.305009
0.303564
0.302425
0.402384
0.394874
0.37547
0.356343
0.340872
0.32932
0.321123
0.315595
0.312091
0.310096
0.309228
0.309201
0.309798
0.310851
0.312231
0.313842
0.315616
0.317474
0.351309
0.326982
0.304715
0.284406
0.26623
0.25025
0.236434
0.224657
0.214723
0.206408
0.199495
0.19378
0.189081
0.185241
0.18212
0.179603
0.17759
0.175997
0.000204049
0.0013428
0.00228918
0.0030607
0.00376948
0.00457681
0.00544979
0.00640535
0.00747341
0.00867851
0.00993099
0.011261
0.0126768
0.0141814
0.0157769
0.0174644
0.0192451
0.0211194
0.0230871
0.0251477
0.0273
0.0295426
0.0318735
0.0342906
0.0367918
0.0393745
0.042036
0.0447736
0.0475844
0.0504652
0.0534129
0.0564239
0.0594947
0.0626215
0.0658003
0.069027
0.072297
0.0756056
0.078948
0.0823187
0.0857123
0.0891226
0.0925433
0.0959675
0.0993878
0.102796
0.106182
0.109537
0.112849
0.116106
0.119298
0.122412
0.12544
0.128372
0.1312
0.133912
0.136491
0.13891
0.141131
0.143107
0.144795
0.146171
0.147239
0.148045
0.14866
0.149133
0.149397
0.149194
0.148462
0.148917
0.148239
0.148108
0.149323
0.151556
0.153274
0.150883
0.151239
0.150336
0.151782
0.152905
0.1536
0.154273
0.157115
0.16003
0.162974
0.165913
0.168836
0.171733
0.174597
0.177423
0.18021
0.182956
0.185664
0.188342
0.190991
0.193576
0.196096
0.19855
0.200936
0.203251
0.205493
0.207658
0.209743
0.211745
0.213661
0.215489
0.217226
0.21887
0.220418
0.221869
0.22322
0.22447
0.225618
0.226661
0.2276
0.228432
0.229158
0.229777
0.230289
0.230692
0.230989
0.231178
0.231261
0.231238
0.23111
0.230878
0.230544
0.230109
0.229574
0.228942
0.228215
0.227394
0.226482
0.225481
0.224395
0.223225
0.221974
0.220646
0.219243
0.217768
0.216225
0.214616
0.212945
0.211215
0.209429
0.207592
0.205705
0.203772
0.201797
0.199783
0.197733
0.195652
0.193541
0.191411
0.189269
0.187161
0.185546
0.192595
0.184028
0.184539
0.201279
0.202388
0.201943
0.193891
0.194062
0.200956
0.19245
0.186108
0.198393
0.196942
0.19083
0.20079
0.199865
0.198491
0.195267
0.202954
0.189621
0.199248
0.197632
0.200408
0.00085421
0.00462416
0.00727137
0.0092829
0.0110592
0.0126558
0.0142092
0.0157932
0.0174401
0.0191579
0.0209413
0.0227894
0.0247028
0.0266829
0.0287317
0.0308515
0.033044
0.0353109
0.0376532
0.0400714
0.0425656
0.0451357
0.0477811
0.0505011
0.0532946
0.0561605
0.0590975
0.0621042
0.0651789
0.0683199
0.0715253
0.0747928
0.0781203
0.0815054
0.0849453
0.0884373
0.0919783
0.0955652
0.0991943
0.102862
0.106564
0.110297
0.114056
0.117836
0.121632
0.125438
0.129248
0.133055
0.136852
0.140632
0.144389
0.148116
0.15181
0.155466
0.159082
0.162654
0.166173
0.169628
0.172998
0.176261
0.179405
0.182438
0.1854
0.188362
0.191406
0.194584
0.197856
0.201219
0.205005
0.208981
0.213243
0.216695
0.221262
0.226968
0.231358
0.235945
0.241249
0.247568
0.253276
0.259054
0.265334
0.272192
0.278296
0.284007
0.289775
0.295578
0.301398
0.307216
0.31302
0.318799
0.324545
0.330252
0.335912
0.341512
0.34698
0.352366
0.357672
0.362895
0.36803
0.37307
0.378009
0.382841
0.387559
0.392158
0.396631
0.400972
0.405176
0.409237
0.413149
0.416909
0.42051
0.423948
0.42722
0.430321
0.433249
0.435998
0.438568
0.440954
0.443155
0.445169
0.446995
0.448631
0.450076
0.451331
0.452394
0.453268
0.453951
0.454446
0.454753
0.454875
0.454813
0.454571
0.454149
0.453553
0.452784
0.451847
0.450746
0.449484
0.448066
0.446496
0.444779
0.44292
0.440924
0.438796
0.436541
0.434166
0.431674
0.429071
0.426366
0.423561
0.420662
0.417678
0.414606
0.411468
0.408254
0.404975
0.401674
0.398393
0.395433
0.392464
0.391644
0.388637
0.380606
0.378791
0.375694
0.371021
0.369357
0.36678
0.365778
0.358728
0.356888
0.356324
0.353366
0.350073
0.343453
0.34335
0.338697
0.337933
0.33149
0.329799
0.0017571
0.00794827
0.0116578
0.0143226
0.0165243
0.018531
0.0204721
0.0224177
0.0244029
0.0264419
0.0285382
0.0306922
0.0329042
0.0351753
0.0375077
0.0399037
0.0423662
0.0448974
0.0474995
0.0501741
0.0529226
0.0557458
0.0586443
0.0616185
0.0646683
0.0677936
0.0709941
0.0742692
0.0776183
0.0810404
0.0845347
0.0880997
0.0917343
0.095437
0.0992061
0.10304
0.106937
0.110894
0.11491
0.118982
0.123108
0.127285
0.131511
0.135783
0.140097
0.144452
0.148843
0.153267
0.157722
0.162204
0.166713
0.171246
0.175805
0.180393
0.185013
0.189669
0.194366
0.199106
0.203892
0.208725
0.213617
0.218591
0.223686
0.228949
0.234418
0.240106
0.245983
0.252041
0.258338
0.26473
0.271265
0.27784
0.284709
0.291838
0.298899
0.306081
0.313428
0.320958
0.328463
0.336022
0.343704
0.351464
0.35907
0.366539
0.373956
0.381353
0.388735
0.396096
0.403428
0.410725
0.41798
0.425186
0.43234
0.439392
0.446348
0.453211
0.459975
0.466635
0.473183
0.47961
0.485909
0.492072
0.498089
0.503954
0.509658
0.515194
0.520555
0.525733
0.530721
0.535513
0.540103
0.544485
0.548653
0.552603
0.556329
0.559829
0.563098
0.566132
0.568929
0.571486
0.573802
0.575874
0.577703
0.579287
0.580626
0.581722
0.582574
0.583184
0.583555
0.583687
0.583585
0.58325
0.582687
0.5819
0.580892
0.579669
0.578234
0.576594
0.574754
0.57272
0.570498
0.568093
0.565513
0.562764
0.559853
0.556787
0.553572
0.550215
0.546726
0.543109
0.539371
0.535527
0.531562
0.52752
0.523401
0.519212
0.514956
0.510714
0.506779
0.50269
0.498905
0.494646
0.489014
0.484892
0.480612
0.475936
0.471968
0.467917
0.464133
0.458897
0.454866
0.451218
0.447052
0.442749
0.437728
0.434207
0.42988
0.426398
0.421856
0.418545
0.00281488
0.0109777
0.0154996
0.0185965
0.0211412
0.0234382
0.0256339
0.027808
0.030004
0.0322437
0.0345366
0.0368861
0.039294
0.0417616
0.0442909
0.0468842
0.0495443
0.0522738
0.0550754
0.0579514
0.0609038
0.0639342
0.067044
0.0702342
0.0735056
0.0768589
0.0802945
0.0838124
0.0874128
0.0910956
0.0948604
0.098707
0.102635
0.106643
0.110731
0.114898
0.119144
0.123467
0.127866
0.13234
0.136889
0.141511
0.146206
0.150973
0.15581
0.160717
0.165693
0.170739
0.175854
0.181039
0.186295
0.191625
0.197033
0.202526
0.208109
0.213792
0.219583
0.225489
0.231518
0.237677
0.243978
0.250434
0.257067
0.263895
0.270928
0.278165
0.285583
0.293165
0.300917
0.308812
0.316841
0.324992
0.333269
0.341662
0.350143
0.358714
0.367363
0.376082
0.384838
0.393629
0.402456
0.411301
0.420105
0.428845
0.437536
0.446192
0.454819
0.463414
0.471972
0.480487
0.488953
0.497361
0.505697
0.513926
0.522053
0.530071
0.537974
0.545754
0.553401
0.560906
0.56826
0.575451
0.582472
0.589311
0.595961
0.602412
0.608654
0.614681
0.620483
0.626054
0.631385
0.63647
0.641302
0.645877
0.650187
0.65423
0.657999
0.661492
0.664705
0.667636
0.670281
0.67264
0.674711
0.676494
0.67799
0.679198
0.680121
0.680759
0.681115
0.681191
0.680992
0.680521
0.679781
0.678779
0.677519
0.676005
0.674246
0.672245
0.670011
0.667551
0.66487
0.661976
0.658879
0.655584
0.652099
0.648436
0.6446
0.640595
0.636441
0.632137
0.627687
0.623127
0.618448
0.613669
0.608801
0.603859
0.598847
0.593805
0.588935
0.583936
0.578951
0.573799
0.568252
0.563012
0.557809
0.552542
0.547373
0.542253
0.537229
0.53184
0.52669
0.521722
0.516665
0.511598
0.506436
0.501689
0.496897
0.492483
0.488108
0.484351
0.00381985
0.0136011
0.018752
0.0222498
0.0250915
0.0276238
0.0300125
0.0323501
0.0346896
0.0370611
0.0394809
0.0419569
0.0444933
0.0470929
0.0497579
0.0524908
0.0552943
0.058171
0.0611239
0.0641554
0.0672681
0.0704639
0.0737448
0.0771125
0.0805683
0.0841135
0.087749
0.0914756
0.0952941
0.0992051
0.103209
0.107306
0.111496
0.115781
0.120159
0.124631
0.129198
0.133858
0.138614
0.143464
0.148409
0.15345
0.158587
0.16382
0.169152
0.174582
0.180113
0.185746
0.191483
0.197328
0.203283
0.209353
0.215544
0.221863
0.228317
0.234915
0.241664
0.248574
0.25565
0.262898
0.270324
0.277934
0.285736
0.293736
0.301936
0.310329
0.318901
0.327639
0.336537
0.345583
0.354763
0.364066
0.373479
0.382995
0.392606
0.402302
0.412069
0.421896
0.431765
0.441666
0.451593
0.461531
0.471453
0.481343
0.491195
0.501014
0.510798
0.520544
0.530247
0.5399
0.549496
0.559027
0.568455
0.577773
0.586976
0.596056
0.605005
0.613812
0.622466
0.630957
0.639273
0.647403
0.655337
0.663062
0.670569
0.677848
0.684888
0.69168
0.698214
0.704481
0.710474
0.716185
0.721606
0.726731
0.731555
0.736071
0.740275
0.744162
0.74773
0.750974
0.753893
0.756485
0.75875
0.760685
0.762294
0.763575
0.764531
0.765163
0.765475
0.765471
0.765153
0.764526
0.763596
0.762368
0.760848
0.759042
0.756958
0.754601
0.751982
0.749107
0.745983
0.74262
0.739029
0.735215
0.731186
0.726959
0.72254
0.717922
0.713148
0.708216
0.703131
0.697913
0.692567
0.687108
0.681549
0.675908
0.670195
0.66443
0.658711
0.652902
0.647051
0.641113
0.63504
0.629006
0.622995
0.616975
0.610957
0.604977
0.599053
0.593048
0.587096
0.581244
0.575424
0.569662
0.563971
0.558493
0.553175
0.548191
0.543526
0.539371
0.00468694
0.0157403
0.0214493
0.025302
0.0284047
0.0311391
0.0336882
0.0361553
0.0386024
0.0410673
0.0435727
0.0461318
0.0487523
0.0514391
0.0541955
0.0570247
0.0599295
0.0629128
0.0659774
0.0691261
0.0723615
0.0756862
0.0791024
0.0826121
0.0862172
0.0899194
0.0937204
0.0976214
0.101624
0.105729
0.109937
0.114251
0.11867
0.123196
0.12783
0.132573
0.137425
0.142389
0.147466
0.152656
0.157961
0.163383
0.168925
0.174587
0.180372
0.186283
0.192323
0.198495
0.204802
0.211249
0.21784
0.224581
0.231477
0.238535
0.245762
0.253166
0.260753
0.26853
0.276501
0.28467
0.293038
0.301609
0.310382
0.31936
0.32854
0.337915
0.347477
0.357213
0.367116
0.377173
0.387374
0.397705
0.408156
0.418716
0.429378
0.440131
0.450963
0.461859
0.472807
0.483794
0.49481
0.505842
0.516871
0.527884
0.538869
0.549824
0.560743
0.57162
0.582448
0.593219
0.603923
0.614548
0.625052
0.635435
0.645688
0.655802
0.665768
0.675572
0.685203
0.694648
0.703896
0.712932
0.721746
0.730324
0.738655
0.746727
0.75453
0.762051
0.769282
0.776211
0.782831
0.789131
0.795106
0.800746
0.806047
0.811002
0.815606
0.819854
0.823744
0.82727
0.830432
0.833227
0.835655
0.837715
0.839409
0.840738
0.841704
0.842309
0.842556
0.842451
0.841997
0.8412
0.840065
0.8386
0.836811
0.834705
0.83229
0.829574
0.826568
0.823279
0.819715
0.815886
0.811807
0.807485
0.802917
0.79814
0.793158
0.787972
0.782605
0.777066
0.771363
0.765511
0.75952
0.753405
0.74718
0.740864
0.734469
0.728006
0.721517
0.714955
0.708335
0.701655
0.694907
0.688142
0.681376
0.674606
0.667833
0.661086
0.65438
0.647674
0.641002
0.634406
0.627884
0.621461
0.615168
0.609077
0.603228
0.597735
0.592637
0.588015
0.00538548
0.0174684
0.0236311
0.027781
0.0311061
0.0340139
0.0366998
0.0392748
0.0418081
0.0443435
0.0469096
0.0495243
0.0521992
0.0549418
0.0577572
0.0606496
0.0636225
0.0666791
0.0698224
0.0730554
0.0763811
0.079802
0.0833208
0.0869399
0.0906616
0.0944881
0.0984213
0.102463
0.106616
0.11088
0.115259
0.119754
0.124367
0.129099
0.133952
0.138929
0.144031
0.14926
0.154619
0.160109
0.165735
0.171498
0.177401
0.183447
0.189641
0.195986
0.202486
0.209144
0.215966
0.222957
0.230121
0.237464
0.244993
0.252712
0.260629
0.26875
0.277079
0.285623
0.294383
0.303363
0.312562
0.321981
0.331617
0.34147
0.351536
0.361809
0.372282
0.382944
0.393786
0.404798
0.415968
0.427284
0.438736
0.450311
0.462001
0.473794
0.485678
0.497638
0.509661
0.521734
0.533843
0.545977
0.558119
0.570254
0.58237
0.594459
0.606511
0.618519
0.630473
0.642363
0.65418
0.665885
0.677462
0.688903
0.700199
0.71134
0.722311
0.733102
0.743697
0.754084
0.764247
0.774173
0.783849
0.793261
0.802396
0.811241
0.819784
0.828013
0.835916
0.843484
0.850705
0.85757
0.864071
0.870201
0.875953
0.88132
0.886298
0.890881
0.895066
0.898849
0.902227
0.905201
0.907768
0.90993
0.911687
0.913042
0.913997
0.914555
0.91472
0.914497
0.913891
0.912909
0.911557
0.909843
0.907775
0.905361
0.902608
0.899526
0.896129
0.892425
0.88842
0.884122
0.879561
0.874738
0.869661
0.864351
0.858817
0.853068
0.847122
0.840988
0.834679
0.828208
0.821588
0.814833
0.807958
0.800982
0.793917
0.786771
0.779565
0.772286
0.764945
0.757547
0.7501
0.742624
0.735136
0.727642
0.720151
0.712682
0.705249
0.697843
0.690481
0.683195
0.676007
0.668944
0.662046
0.655371
0.648982
0.642974
0.637374
0.632227
0.00593101
0.0188212
0.0253372
0.0297249
0.0332318
0.0362839
0.0390844
0.0417498
0.0443534
0.0469439
0.049554
0.052206
0.0549148
0.0576906
0.0605409
0.063471
0.0664854
0.0695879
0.072782
0.0760709
0.0794579
0.0829458
0.0865376
0.090236
0.0940437
0.0979632
0.101997
0.106148
0.110417
0.114809
0.119324
0.123966
0.128736
0.133639
0.138675
0.143848
0.149161
0.154617
0.16022
0.165971
0.171876
0.177938
0.18416
0.190548
0.197106
0.203838
0.210749
0.217845
0.22513
0.23261
0.240292
0.248179
0.256278
0.264596
0.273136
0.281906
0.290909
0.300149
0.309628
0.319349
0.32931
0.339511
0.349949
0.360621
0.371524
0.382652
0.393997
0.405551
0.417305
0.429248
0.441368
0.453655
0.466095
0.478678
0.491392
0.504224
0.517161
0.530189
0.543292
0.556457
0.569669
0.582913
0.596174
0.609436
0.622686
0.635911
0.649099
0.66224
0.675321
0.688331
0.701253
0.71404
0.726685
0.73918
0.751513
0.763671
0.775639
0.787404
0.798949
0.810261
0.821323
0.832121
0.842639
0.852863
0.862779
0.872373
0.881631
0.890542
0.899092
0.90727
0.915065
0.922466
0.929466
0.936056
0.94223
0.94798
0.953302
0.958192
0.962645
0.966657
0.970226
0.973352
0.976033
0.978272
0.980069
0.981428
0.982352
0.982843
0.982908
0.98255
0.981778
0.980598
0.979015
0.977041
0.974686
0.971957
0.96886
0.965406
0.961616
0.957499
0.953062
0.948317
0.943283
0.937969
0.932387
0.926553
0.92048
0.914179
0.907665
0.900952
0.894051
0.886977
0.879743
0.872365
0.864858
0.857238
0.849519
0.84171
0.833823
0.82586
0.817829
0.809741
0.801607
0.793441
0.785257
0.777068
0.768885
0.760725
0.752599
0.744514
0.736485
0.728541
0.720711
0.713026
0.705531
0.698282
0.691346
0.684802
0.678661
0.67295
0.00633154
0.0198343
0.0266115
0.0311797
0.0348278
0.0379942
0.0408868
0.0436249
0.0462844
0.0489169
0.0515582
0.0542336
0.0569611
0.0597534
0.0626198
0.0655673
0.0686015
0.0717271
0.074948
0.0782681
0.0816908
0.0852194
0.0888571
0.092607
0.0964722
0.100456
0.10456
0.108789
0.113145
0.117631
0.12225
0.127005
0.1319
0.136938
0.142122
0.147457
0.152945
0.158591
0.1644
0.170374
0.17652
0.182842
0.189345
0.196034
0.202914
0.209992
0.217273
0.224763
0.232467
0.240392
0.248545
0.256929
0.265553
0.27442
0.283536
0.292907
0.302536
0.312426
0.32258
0.332999
0.343681
0.354626
0.365832
0.377294
0.389009
0.400971
0.413172
0.425605
0.43826
0.451126
0.464192
0.477446
0.490874
0.504465
0.518205
0.532079
0.546073
0.560173
0.574361
0.588622
0.602939
0.617298
0.63168
0.646069
0.66045
0.674807
0.689128
0.703397
0.717601
0.731727
0.74573
0.759585
0.773285
0.786818
0.80017
0.813325
0.826268
0.838983
0.851453
0.863662
0.875593
0.887231
0.898558
0.909561
0.920222
0.930529
0.940466
0.950021
0.95918
0.96793
0.97626
0.98416
0.991619
0.998631
1.00519
1.01129
1.01692
1.02208
1.02676
1.03097
1.0347
1.03795
1.04071
1.043
1.04481
1.04615
1.04702
1.04743
1.04737
1.04686
1.04591
1.04452
1.04269
1.04045
1.0378
1.03475
1.03132
1.0275
1.02333
1.01881
1.01394
1.00876
1.00326
0.997471
0.991396
0.985053
0.978457
0.97162
0.964557
0.957282
0.94981
0.942154
0.934329
0.92635
0.918233
0.909994
0.901646
0.8932
0.884665
0.876049
0.867362
0.858615
0.84982
0.840992
0.832144
0.823291
0.814446
0.805623
0.796838
0.788101
0.779431
0.770856
0.762406
0.75412
0.74604
0.738225
0.730736
0.723641
0.716937
0.710644
0.006599
0.0205448
0.0275009
0.0321963
0.0359464
0.039197
0.0421584
0.0449507
0.0476512
0.0503129
0.0529736
0.0556606
0.0583942
0.0611891
0.0640564
0.0670047
0.0700407
0.0731699
0.0763971
0.0797266
0.0831623
0.0867079
0.090367
0.0941431
0.0980396
0.10206
0.106208
0.110486
0.114899
0.11945
0.124143
0.128982
0.13397
0.139112
0.144413
0.149876
0.155508
0.161312
0.167293
0.173458
0.179812
0.186361
0.193111
0.200068
0.207238
0.214629
0.222246
0.230097
0.238188
0.246525
0.255116
0.263966
0.273081
0.282467
0.29213
0.302073
0.3123
0.322815
0.333619
0.344713
0.356098
0.367771
0.379729
0.391969
0.404487
0.417276
0.43033
0.443639
0.457194
0.470984
0.484997
0.49922
0.513638
0.528239
0.543005
0.557923
0.572975
0.588144
0.603414
0.618767
0.634185
0.649649
0.665142
0.680647
0.696144
0.711618
0.727051
0.742428
0.757732
0.772939
0.787993
0.802887
0.817609
0.832145
0.846478
0.860591
0.874466
0.888087
0.901435
0.914493
0.927244
0.93967
0.951754
0.963481
0.974834
0.985798
0.996359
1.0065
1.01622
1.02549
1.0343
1.04264
1.05051
1.05789
1.06478
1.07117
1.07707
1.08245
1.08733
1.09169
1.09554
1.09887
1.10169
1.10399
1.10579
1.10708
1.10787
1.10816
1.10797
1.10729
1.10615
1.10453
1.10247
1.09996
1.09701
1.09365
1.08988
1.08571
1.08116
1.07625
1.07097
1.06536
1.05942
1.05317
1.04662
1.03979
1.0327
1.02535
1.01776
1.00995
1.00194
0.99373
0.985343
0.976795
0.9681
0.959274
0.950332
0.941283
0.932139
0.922909
0.913603
0.904235
0.894818
0.885365
0.87589
0.86641
0.856937
0.847489
0.83808
0.828725
0.819445
0.810268
0.801227
0.79236
0.783714
0.775343
0.767305
0.759656
0.75238
0.745502
0.00674778
0.0209903
0.0280526
0.0328273
0.0366427
0.0399483
0.0429548
0.0457823
0.048508
0.0511855
0.0538535
0.0565408
0.059269
0.0620544
0.0649097
0.0678445
0.0708668
0.073983
0.0771987
0.0805186
0.0839473
0.087489
0.0911477
0.0949273
0.0988319
0.102865
0.107032
0.111335
0.11578
0.12037
0.125111
0.130006
0.135062
0.140282
0.145673
0.151239
0.156988
0.162924
0.169054
0.175385
0.181923
0.188676
0.19565
0.202852
0.210291
0.217974
0.225908
0.234101
0.24256
0.251293
0.260306
0.269606
0.2792
0.289093
0.29929
0.309796
0.320614
0.331748
0.343198
0.354965
0.36705
0.379451
0.392163
0.405185
0.418509
0.432131
0.446041
0.460232
0.474692
0.48941
0.504373
0.519567
0.534976
0.550584
0.566373
0.582327
0.598427
0.614655
0.630992
0.647418
0.663914
0.68046
0.697037
0.713624
0.730204
0.746757
0.763264
0.779708
0.796071
0.812283
0.828334
0.844208
0.859892
0.87537
0.89062
0.905624
0.920362
0.934817
0.948969
0.962801
0.976295
0.989432
1.00219
1.01457
1.02653
1.03808
1.04918
1.05984
1.07003
1.07975
1.08897
1.09768
1.10588
1.11357
1.12073
1.12735
1.13345
1.139
1.14401
1.14848
1.1524
1.15577
1.15859
1.16088
1.16262
1.16384
1.16452
1.16469
1.16434
1.16348
1.16213
1.16029
1.15798
1.1552
1.15197
1.1483
1.14421
1.1397
1.13479
1.12949
1.12383
1.11781
1.11145
1.10477
1.09778
1.09049
1.08293
1.0751
1.06703
1.05872
1.0502
1.04148
1.03258
1.0235
1.01427
1.0049
0.995408
0.985803
0.976096
0.966299
0.956424
0.946482
0.936489
0.926457
0.916402
0.90634
0.896285
0.886254
0.876264
0.866333
0.856481
0.846738
0.837139
0.827722
0.818534
0.809625
0.801049
0.792853
0.785014
0.777559
0.0067937
0.0212073
0.028313
0.0331244
0.0369719
0.0403049
0.0433335
0.0461768
0.0489113
0.0515905
0.0542535
0.0569296
0.0596413
0.0624061
0.0652376
0.0681466
0.071142
0.0742309
0.0774197
0.0807139
0.0841185
0.0876385
0.0912783
0.0950425
0.0989357
0.102963
0.107128
0.111436
0.115892
0.120502
0.12527
0.130204
0.135307
0.140587
0.146051
0.151704
0.157554
0.163608
0.169873
0.176358
0.18307
0.190017
0.197208
0.20465
0.212353
0.220325
0.228575
0.23711
0.24594
0.255072
0.264513
0.274272
0.284353
0.294764
0.305508
0.31659
0.328014
0.339781
0.351893
0.364351
0.377154
0.390299
0.403783
0.417601
0.431747
0.446214
0.460994
0.476075
0.491448
0.507098
0.523012
0.539175
0.555569
0.572174
0.588972
0.605942
0.623065
0.640322
0.65769
0.67515
0.692679
0.710258
0.727864
0.745477
0.763077
0.780643
0.798156
0.815597
0.832901
0.850038
0.866996
0.883759
0.900311
0.916634
0.932704
0.948496
0.963992
0.979174
0.994023
1.00852
1.02265
1.03639
1.04972
1.06263
1.0751
1.08711
1.09866
1.10972
1.1203
1.13037
1.1399
1.14889
1.15734
1.16524
1.17258
1.17937
1.18558
1.19123
1.19631
1.20082
1.20475
1.20811
1.2109
1.21313
1.21479
1.2159
1.21645
1.21647
1.21595
1.2149
1.21334
1.21127
1.20871
1.20567
1.20216
1.1982
1.19379
1.18896
1.18371
1.17807
1.17204
1.16565
1.15891
1.15183
1.14443
1.13673
1.12874
1.12048
1.11197
1.10322
1.09424
1.08506
1.07569
1.06614
1.05642
1.04657
1.03658
1.02648
1.01626
1.00596
0.995571
0.985114
0.974602
0.964049
0.95347
0.942881
0.932299
0.921739
0.91122
0.900761
0.890386
0.880122
0.870006
0.860076
0.850377
0.840959
0.831868
0.823145
0.81476
0.80675
0.00675334
0.0212307
0.0283259
0.033137
0.0369868
0.0403222
0.043351
0.0461912
0.0489182
0.0515849
0.0542302
0.0568837
0.0595684
0.0623022
0.0650995
0.067972
0.0709291
0.0739789
0.0771284
0.0803839
0.0837511
0.0872355
0.0908424
0.094577
0.0984447
0.102451
0.106601
0.110901
0.115357
0.119975
0.124762
0.129724
0.134868
0.140202
0.145735
0.151472
0.157425
0.163599
0.170005
0.176652
0.183547
0.190702
0.198124
0.205824
0.213812
0.222096
0.230687
0.239593
0.248824
0.258388
0.268292
0.278546
0.289154
0.300122
0.311455
0.323155
0.335225
0.347667
0.360481
0.373668
0.387226
0.40115
0.415437
0.43008
0.445073
0.460406
0.47607
0.492053
0.508342
0.524923
0.541781
0.558899
0.57626
0.593836
0.611606
0.629549
0.647645
0.665872
0.684207
0.702629
0.721114
0.73964
0.758186
0.776729
0.795249
0.813724
0.832136
0.850418
0.868534
0.886466
0.904197
0.92171
0.938989
0.95602
0.97277
0.989204
1.00531
1.02107
1.03647
1.05148
1.06609
1.08029
1.09405
1.10735
1.12018
1.13253
1.14438
1.15572
1.16654
1.17682
1.18654
1.1957
1.20429
1.21231
1.21975
1.2266
1.23286
1.23853
1.2436
1.24808
1.25197
1.25527
1.25797
1.26009
1.26164
1.2626
1.26301
1.26285
1.26214
1.2609
1.25912
1.25683
1.25403
1.25073
1.24696
1.24272
1.23803
1.2329
1.22734
1.22139
1.21504
1.20831
1.20123
1.1938
1.18605
1.17798
1.16963
1.161
1.1521
1.14296
1.1336
1.12402
1.11424
1.10428
1.09415
1.08388
1.07347
1.06293
1.05229
1.04154
1.03071
1.01981
1.00885
0.997843
0.986808
0.975759
0.964714
0.95369
0.942704
0.931778
0.920936
0.910206
0.899623
0.889227
0.87906
0.86917
0.859598
0.850379
0.841481
0.832948
0.0066436
0.0210932
0.0281321
0.0329109
0.036737
0.0400522
0.0430614
0.0458807
0.0485846
0.0512251
0.0538408
0.0564609
0.0591087
0.0618023
0.0645566
0.0673838
0.0702941
0.0732962
0.0763978
0.079606
0.0829273
0.0863681
0.0899345
0.0936327
0.0974691
0.10145
0.105583
0.109873
0.114329
0.118958
0.123768
0.128767
0.133963
0.139366
0.144985
0.150829
0.156908
0.163233
0.169814
0.17666
0.183782
0.19119
0.198895
0.206907
0.215237
0.223896
0.232893
0.242238
0.25194
0.262009
0.272452
0.283277
0.294491
0.306098
0.318098
0.330492
0.343282
0.35647
0.370054
0.384032
0.398402
0.413157
0.428291
0.443797
0.459665
0.475885
0.492444
0.509329
0.526525
0.544017
0.561789
0.579824
0.598113
0.616603
0.635275
0.654109
0.673086
0.692182
0.711374
0.730638
0.749952
0.769292
0.788637
0.807964
0.82725
0.84648
0.865577
0.884507
0.903252
0.921791
0.940104
0.958173
0.975976
0.993495
1.0107
1.02758
1.0441
1.06024
1.07599
1.09134
1.10625
1.12072
1.13472
1.14824
1.16127
1.17379
1.18578
1.19724
1.20816
1.21851
1.22829
1.23748
1.24609
1.25411
1.26153
1.26834
1.27455
1.28015
1.28514
1.28953
1.2933
1.29647
1.29904
1.30102
1.3024
1.3032
1.30342
1.30307
1.30217
1.30072
1.29873
1.29621
1.29318
1.28966
1.28564
1.28115
1.27621
1.27082
1.265
1.25877
1.25215
1.24515
1.23778
1.23006
1.22202
1.21366
1.20501
1.19607
1.18687
1.17742
1.16774
1.15784
1.14774
1.13745
1.12699
1.11638
1.10563
1.09475
1.08375
1.07265
1.06146
1.0502
1.03887
1.02749
1.01608
1.00465
0.993219
0.981805
0.970426
0.959103
0.947861
0.93673
0.925742
0.914936
0.904354
0.894041
0.884032
0.874362
0.864995
0.855982
0.00648157
0.0208245
0.0277682
0.0324875
0.0362677
0.0395429
0.0425149
0.0452978
0.0479647
0.0505668
0.0531421
0.0557196
0.0583224
0.0609688
0.0636741
0.0664507
0.0693096
0.0722603
0.0753112
0.0784704
0.0817454
0.0851437
0.0886727
0.0923398
0.0961528
0.10012
0.104248
0.108548
0.113026
0.117692
0.122557
0.127629
0.132918
0.138437
0.144196
0.150207
0.156481
0.163031
0.169868
0.177003
0.184446
0.192209
0.200303
0.208739
0.217529
0.226683
0.236212
0.246124
0.256429
0.267134
0.278247
0.289775
0.301726
0.314112
0.326905
0.340111
0.353732
0.367767
0.382213
0.397065
0.412318
0.427963
0.443991
0.460391
0.477153
0.494262
0.511704
0.529464
0.547524
0.565867
0.584474
0.603326
0.6224
0.641667
0.661101
0.680679
0.700378
0.720174
0.740043
0.759963
0.779909
0.799859
0.819793
0.839692
0.85952
0.879204
0.898725
0.918057
0.937179
0.95607
0.974709
0.993074
1.01115
1.0289
1.04632
1.06339
1.08007
1.09636
1.11222
1.12766
1.14264
1.15716
1.17119
1.18472
1.19774
1.21023
1.22218
1.23358
1.24442
1.25468
1.26436
1.27345
1.28194
1.28982
1.2971
1.30376
1.30981
1.31525
1.32007
1.32428
1.32787
1.33086
1.33324
1.33502
1.33621
1.33681
1.33683
1.33629
1.33518
1.33352
1.33133
1.3286
1.32537
1.32163
1.31741
1.31271
1.30756
1.30196
1.29594
1.2895
1.28267
1.27545
1.26787
1.25995
1.25169
1.24312
1.23425
1.22509
1.21567
1.206
1.1961
1.18597
1.17564
1.16513
1.15443
1.14358
1.13258
1.12145
1.1102
1.09885
1.08739
1.07586
1.06426
1.0526
1.04091
1.02919
1.01746
1.00575
0.994062
0.982425
0.970863
0.959405
0.948084
0.936937
0.926005
0.915327
0.90494
0.894873
0.885091
0.875652
0.00627588
0.0204378
0.0272498
0.0318847
0.0355984
0.0388158
0.0417347
0.0444668
0.0470841
0.049637
0.0521627
0.05469
0.0572419
0.0598369
0.0624905
0.0652159
0.0680249
0.0709278
0.0739345
0.0770543
0.0802963
0.0836695
0.0871829
0.0908461
0.0946687
0.0986609
0.102834
0.107197
0.111763
0.116541
0.121543
0.126781
0.132269
0.13802
0.144046
0.150362
0.156983
0.163923
0.171199
0.178819
0.186785
0.195112
0.203813
0.2129
0.222382
0.232269
0.242569
0.253289
0.264435