/*--------------------------------*- C++ -*----------------------------------*\
  =========                 |
  \\      /  F ield         | OpenFOAM: The Open Source CFD Toolbox
   \\    /   O peration     | Website:  https://openfoam.org
    \\  /    A nd           | Version:  7
     \\/     M anipulation  |
\*---------------------------------------------------------------------------*/
FoamFile
{
    version     2.0;
    format      ascii;
    class       volScalarField;
    location    "0.27";
    object      nut;
}
// * * * * * * * * * * * * * * * * * * * * * * * * * * * * * * * * * * * * * //

dimensions      [0 2 -1 0 0 0 0];

internalField   nonuniform List<scalar> 
12225
(
3.8006e-05
3.33294e-05
2.94332e-05
2.6376e-05
2.41489e-05
2.26289e-05
2.16443e-05
2.10339e-05
2.06698e-05
2.04597e-05
2.03408e-05
2.02727e-05
2.02306e-05
2.02002e-05
2.01738e-05
2.01464e-05
2.01229e-05
2.02574e-05
0.000205724
0.000151533
0.000127319
0.000114411
0.000107381
0.000103279
0.000100626
9.87151e-05
9.72149e-05
9.59628e-05
9.48787e-05
9.39234e-05
9.30766e-05
9.23244e-05
9.16592e-05
9.10595e-05
9.05602e-05
8.99919e-05
0.000418643
0.000297003
0.000242054
0.000210272
0.000189717
0.000175351
0.000164799
0.0001568
0.000150587
0.000145658
0.000141674
0.000138403
0.000135683
0.000133397
0.000131461
0.000129802
0.000128386
0.000127109
0.000615537
0.000473548
0.000392597
0.000341291
0.000306026
0.000280098
0.000260142
0.000244333
0.000231554
0.00022106
0.00021233
0.000204991
0.000198767
0.000193448
0.000188874
0.000184911
0.000181467
0.000178467
0.000739725
0.000627508
0.000543988
0.000483439
0.00043858
0.000404039
0.000376542
0.000354122
0.000335505
0.000319817
0.000306441
0.000294927
0.000284943
0.000276228
0.000268581
0.000261836
0.000255868
0.000250645
0.000803284
0.000733062
0.000666706
0.000610804
0.000565233
0.000527919
0.00049695
0.000470905
0.000448734
0.000429651
0.000413067
0.000398537
0.000385722
0.000374355
0.000364223
0.000355156
0.000347024
0.000339848
0.000832284
0.000794591
0.000750954
0.000708347
0.00066979
0.000635825
0.000606123
0.000580158
0.000557388
0.000537319
0.000519532
0.000503685
0.000489496
0.000476738
0.000465221
0.000454793
0.000445339
0.000436938
0.000844509
0.000826357
0.000801471
0.000773648
0.0007457
0.000719063
0.000694334
0.000671696
0.000651112
0.00063244
0.0006155
0.000600111
0.000586103
0.000573324
0.000561641
0.00055094
0.000541144
0.000532378
0.000849308
0.000841192
0.000828458
0.000812442
0.000794701
0.000776404
0.000758306
0.000740871
0.000724347
0.000708843
0.000694381
0.000680932
0.000668448
0.000656865
0.00064612
0.000636151
0.000626925
0.000618599
0.000851043
0.000847506
0.000841448
0.000833092
0.000823016
0.000811834
0.000800062
0.000788105
0.00077626
0.000764724
0.000753616
0.000743007
0.000732929
0.000723391
0.000714389
0.000705911
0.000697963
0.000690715
0.000851597
0.000849941
0.000847101
0.000842991
0.000837726
0.000831519
0.000824611
0.000817235
0.000809599
0.000801869
0.000794173
0.000786604
0.000779227
0.000772088
0.000765216
0.000758631
0.000752365
0.000746576
0.000851725
0.000850709
0.000849144
0.00084693
0.000844053
0.00084056
0.000836537
0.000832087
0.000827322
0.000822347
0.00081725
0.000812107
0.000806977
0.000801909
0.000796938
0.000792095
0.00078742
0.000783057
0.000851737
0.000850954
0.00084994
0.000848639
0.000847018
0.00084507
0.000842806
0.000840258
0.000837466
0.000834478
0.000831342
0.000828102
0.0008248
0.000821468
0.000818138
0.000814837
0.000811604
0.000808546
0.00085171
0.000850987
0.000850182
0.000849278
0.000848261
0.000847121
0.000845852
0.000844453
0.00084293
0.000841294
0.000839561
0.000837746
0.000835866
0.000833939
0.000831981
0.000830009
0.000828049
0.000826174
0.000851677
0.00085095
0.000850198
0.00084942
0.000848622
0.000847804
0.000846965
0.0008461
0.000845208
0.000844287
0.000843336
0.000842357
0.000841351
0.000840324
0.000839279
0.000838222
0.00083717
0.000836162
0.000851651
0.000850908
0.00085016
0.000849409
0.000848667
0.00084794
0.000847234
0.000846549
0.000845883
0.000845236
0.000844605
0.000843986
0.000843377
0.000842778
0.000842185
0.000841602
0.000841035
0.000840508
0.000851638
0.000850886
0.000850137
0.000849392
0.000848662
0.000847955
0.000847279
0.000846636
0.000846028
0.000845454
0.000844912
0.000844401
0.000843917
0.000843459
0.000843023
0.000842611
0.000842226
0.000841888
0.000851639
0.00085089
0.00085015
0.000849417
0.000848701
0.000848009
0.000847348
0.000846722
0.000846133
0.000845581
0.000845065
0.000844583
0.000844133
0.000843713
0.00084332
0.000842955
0.000842623
0.00084234
0.000851662
0.000850939
0.000850226
0.000849522
0.000848836
0.000848176
0.000847548
0.000846956
0.000846402
0.000845885
0.000845404
0.000844957
0.000844541
0.000844155
0.000843796
0.000843464
0.000843164
0.000842911
0.000851715
0.000851053
0.000850399
0.000849754
0.000849128
0.000848532
0.00084797
0.000847444
0.000846954
0.000846499
0.000846074
0.000845676
0.000845304
0.000844952
0.000844618
0.000844302
0.000844009
0.000843752
0.000851801
0.000851234
0.000850669
0.000850109
0.000849564
0.000849039
0.000848536
0.00084805
0.000847576
0.000847107
0.000846637
0.000846163
0.000845681
0.000845187
0.000844681
0.000844163
0.000843639
0.000843128
0.000851941
0.000851518
0.000851065
0.000850568
0.000850017
0.000849406
0.000848722
0.000847952
0.000847087
0.000846124
0.000845064
0.000843913
0.000842676
0.000841362
0.000839975
0.000838529
0.000837045
0.000835564
0.000852143
0.000851828
0.000851264
0.00085036
0.000849078
0.000847418
0.000845389
0.000843013
0.000840326
0.000837374
0.000834205
0.000830855
0.000827364
0.000823782
0.000820157
0.000816525
0.000812923
0.000809421
0.00085222
0.000851245
0.000849025
0.000845468
0.000840719
0.000835022
0.000828605
0.000821662
0.000814374
0.000806862
0.000799263
0.00079171
0.000784296
0.000777075
0.000770084
0.000763348
0.000756892
0.000750791
0.000850791
0.000845027
0.000835399
0.000822957
0.000808859
0.000794026
0.000779049
0.000764237
0.000749851
0.000736133
0.000723181
0.00071101
0.000699604
0.000688928
0.000678939
0.000669592
0.000660852
0.000652759
0.000841138
0.000816681
0.000786996
0.000756693
0.000727768
0.000700938
0.000676352
0.000654198
0.000634322
0.000616468
0.000600383
0.000585837
0.000572625
0.000560572
0.000549531
0.000539378
0.000530016
0.000521435
0.000798628
0.000728721
0.00066909
0.000620804
0.00058093
0.000547656
0.000520033
0.000496765
0.000476878
0.000459661
0.000444587
0.000431254
0.000419354
0.000408648
0.000398949
0.00039011
0.000382017
0.000374631
0.000662426
0.000545577
0.000474636
0.00042519
0.000388257
0.000360251
0.000338445
0.000320946
0.000306529
0.00029441
0.000284053
0.000275082
0.000267218
0.000260257
0.000254044
0.000248459
0.000243408
0.000238837
0.000377505
0.000286123
0.00024263
0.000214904
0.00019564
0.000182229
0.000172792
0.000165954
0.000160834
0.000156886
0.000153764
0.000151238
0.000149148
0.000147384
0.000145868
0.000144543
0.000143367
0.000142297
6.98062e-05
6.49723e-05
6.05478e-05
5.65122e-05
5.29007e-05
4.97254e-05
4.69802e-05
4.464e-05
4.2666e-05
4.1014e-05
3.96403e-05
3.85046e-05
3.7571e-05
3.68078e-05
3.61879e-05
3.56877e-05
3.52877e-05
3.49711e-05
6.3746e-08
1.91393e-06
3.26092e-06
4.35618e-06
5.35828e-06
6.49915e-06
7.73091e-06
9.07702e-06
1.05792e-05
1.22756e-05
1.40358e-05
1.59029e-05
1.78883e-05
1.99962e-05
2.22288e-05
2.45877e-05
2.70739e-05
2.96877e-05
3.24283e-05
3.52945e-05
3.82841e-05
4.13947e-05
4.4623e-05
4.79658e-05
5.14192e-05
5.49794e-05
5.86422e-05
6.24032e-05
6.62579e-05
7.02014e-05
7.42288e-05
7.83349e-05
8.25143e-05
8.67613e-05
9.10701e-05
9.54343e-05
9.98476e-05
0.000104303
0.000108794
0.000113311
0.000117849
0.000122397
0.000126948
0.00013149
0.000136015
0.000140509
0.000144962
0.000149357
0.000153682
0.00015792
0.000162057
0.000166081
0.00016998
0.000173743
0.000177357
0.000180804
0.000184056
0.00018707
0.000189793
0.000192169
0.000194158
0.000195751
0.000196987
0.000197942
0.000198691
0.000199204
0.000199242
0.000198648
0.000198896
0.000198513
0.000195769
4.531e-05
4.57811e-05
0.000201315
0.000203683
4.63517e-05
4.61569e-05
4.56207e-05
4.58182e-05
4.60342e-05
4.63622e-05
4.73436e-05
4.77593e-05
4.81586e-05
4.85576e-05
4.89512e-05
4.93376e-05
4.97155e-05
5.00841e-05
5.0443e-05
5.07919e-05
5.11311e-05
5.1461e-05
5.1783e-05
5.20975e-05
5.23996e-05
5.26897e-05
5.29677e-05
5.32337e-05
5.34875e-05
5.37289e-05
5.39577e-05
5.41738e-05
5.43769e-05
5.45669e-05
5.47437e-05
5.4907e-05
5.50569e-05
5.51931e-05
5.53156e-05
5.54243e-05
5.55192e-05
5.56002e-05
5.56673e-05
5.57205e-05
5.57597e-05
5.57851e-05
5.57967e-05
5.57944e-05
5.57784e-05
5.57488e-05
5.57057e-05
5.56492e-05
5.55794e-05
5.54965e-05
5.54007e-05
5.5292e-05
5.51709e-05
5.50373e-05
5.48916e-05
5.4734e-05
5.45647e-05
5.4384e-05
5.41922e-05
5.39895e-05
5.37763e-05
5.35527e-05
5.33192e-05
5.30761e-05
5.28236e-05
5.25621e-05
5.22919e-05
5.20133e-05
5.17267e-05
5.14325e-05
5.11309e-05
5.08224e-05
5.05072e-05
5.01858e-05
4.98584e-05
4.95254e-05
4.91875e-05
4.88446e-05
4.84981e-05
4.81492e-05
4.7804e-05
4.74672e-05
4.64033e-05
4.64786e-05
4.62054e-05
0.000235787
0.000235545
4.93356e-05
4.55151e-05
4.51381e-05
4.83203e-05
4.49821e-05
4.4744e-05
0.000220088
4.75078e-05
4.42501e-05
0.000217612
0.000216539
0.000213989
4.645e-05
0.000213792
4.35289e-05
0.00020737
4.51291e-05
0.000205472
2.66984e-07
1.229e-05
2.92647e-05
4.17249e-05
5.04669e-05
5.61759e-05
6.04365e-05
6.41314e-05
6.76859e-05
7.12885e-05
7.50179e-05
7.88794e-05
8.28678e-05
8.69799e-05
9.12163e-05
9.55798e-05
0.000100074
0.000104703
0.000109469
0.000114373
0.000119417
0.0001246
0.000129921
0.000135377
0.000140966
0.000146686
0.000152533
0.000158504
0.000164595
0.000170801
0.00017712
0.000183545
0.000190072
0.000196696
0.000203412
0.000210214
0.000217096
0.00022405
0.000231071
0.00023815
0.000245278
0.000252447
0.000259645
0.000266861
0.000274081
0.000281289
0.000288468
0.000295597
0.000302656
0.00030962
0.000316465
0.000323163
0.000329684
0.000335989
0.000342027
0.000347722
0.000352965
0.000357603
0.000361435
0.00036423
0.000365762
0.000365868
0.000364492
0.000361687
0.000357535
0.00035193
0.000344221
0.000333807
0.000322867
0.000317043
0.000304994
0.000286049
0.000290881
0.000315756
0.000317231
0.000291683
0.000293068
0.000299051
0.000304111
0.00030901
0.000315166
0.000323501
0.000329412
0.000333941
0.000338802
0.000343805
0.000348889
0.000354003
0.000359117
0.000364211
0.000369268
0.000374264
0.000379169
0.000383925
0.000388306
0.000392589
0.000396808
0.000400965
0.000405056
0.000409079
0.000413031
0.000416908
0.000420707
0.000424425
0.000428058
0.000431603
0.000435058
0.000438419
0.000441684
0.00044485
0.000447914
0.000450875
0.000453729
0.000456476
0.000459112
0.000461637
0.000464049
0.000466347
0.000468529
0.000470594
0.000472541
0.000474371
0.000476081
0.000477672
0.000479144
0.000480497
0.000481731
0.000482846
0.000483843
0.000484723
0.000485486
0.000486133
0.000486666
0.000487086
0.000487395
0.000487593
0.000487683
0.000487668
0.000487547
0.000487325
0.000487002
0.000486583
0.000486067
0.00048546
0.000484762
0.000483977
0.000483107
0.000482155
0.000481125
0.000480019
0.000478839
0.000477592
0.000476274
0.000474891
0.000473434
0.000471804
0.00046882
0.00045244
0.000454687
0.000449847
0.00050612
0.000502321
0.000436552
0.000427516
0.000420193
0.000417833
0.000413172
0.000410971
0.000459153
0.00040467
0.000395111
0.000443514
0.000443701
0.0004391
0.000384535
0.000427215
0.000372179
0.000412995
0.00036036
0.000395087
5.49202e-07
2.12987e-05
4.98515e-05
7.14301e-05
8.66837e-05
9.76286e-05
0.000105879
0.000112594
0.000118528
0.000124136
0.000129664
0.000135235
0.000140904
0.000146698
0.000152629
0.000158708
0.00016494
0.000171331
0.000177885
0.000184606
0.000191497
0.000198557
0.000205787
0.000213186
0.000220753
0.000228485
0.00023638
0.000244433
0.000252643
0.000261003
0.000269511
0.000278162
0.00028695
0.00029587
0.000304916
0.000314081
0.000323358
0.00033274
0.000342218
0.000351782
0.000361422
0.000371126
0.00038088
0.000390669
0.000400473
0.000410273
0.000420046
0.000429764
0.000439402
0.000448927
0.000458311
0.000467518
0.000476513
0.000485253
0.000493683
0.000501728
0.000509288
0.000516239
0.000522438
0.000527752
0.000532102
0.000535509
0.000538125
0.000540209
0.000542044
0.000543791
0.000545369
0.000546838
0.000549178
0.000553346
0.000557414
0.00056188
0.000569748
0.000580036
0.000587612
0.000592077
0.000600378
0.000609862
0.000619736
0.000629714
0.000640107
0.000651044
0.000661727
0.000672022
0.000682307
0.00069259
0.000702847
0.000713049
0.00072317
0.000733185
0.00074307
0.000752798
0.000762343
0.000771514
0.00078043
0.000789183
0.000797797
0.000806275
0.000814612
0.000822801
0.000830837
0.000838712
0.00084642
0.000853953
0.000861306
0.000868472
0.000875446
0.00088222
0.000888791
0.000895151
0.000901297
0.000907223
0.000912926
0.000918401
0.000923645
0.000928654
0.000933425
0.000937956
0.000942244
0.000946286
0.000950083
0.000953631
0.00095693
0.000959981
0.000962781
0.000965333
0.000967636
0.000969691
0.000971499
0.000973061
0.000974381
0.00097546
0.0009763
0.000976904
0.000977276
0.000977419
0.000977337
0.000977033
0.000976512
0.000975778
0.000974837
0.000973693
0.000972351
0.000970817
0.000969095
0.000967193
0.000965116
0.000962868
0.000960459
0.000957894
0.000955178
0.000952322
0.00094933
0.000946192
0.000942889
0.000939292
0.000934499
0.000923723
0.000917465
0.000910584
0.000922619
0.000917148
0.000896853
0.000885759
0.000876869
0.000872555
0.000863355
0.000855378
0.00086281
0.00084505
0.000833702
0.00084118
0.000836558
0.000829588
0.000811144
0.000815089
0.000793043
0.000797376
0.000777177
0.000771419
8.80145e-07
2.7829e-05
6.4622e-05
9.31794e-05
0.000114249
0.000129924
0.000141971
0.00015172
0.000160116
0.000167787
0.000175124
0.000182359
0.000189622
0.000196981
0.000204476
0.000212127
0.000219949
0.000227949
0.000236134
0.000244509
0.000253075
0.000261835
0.000270789
0.000279937
0.000289277
0.000298808
0.000308526
0.00031843
0.000328515
0.000338776
0.00034921
0.000359811
0.000370574
0.000381492
0.000392558
0.000403765
0.000415105
0.000426569
0.000438147
0.000449827
0.000461598
0.000473446
0.000485355
0.000497308
0.000509284
0.000521262
0.000533219
0.000545127
0.00055696
0.000568692
0.000580295
0.000591746
0.000603019
0.000614088
0.000624922
0.000635485
0.000645727
0.000655594
0.000665031
0.00067401
0.000682549
0.00069074
0.000698754
0.000706811
0.000715122
0.000723813
0.000732901
0.000742447
0.000752663
0.000763681
0.000775099
0.000786992
0.00079968
0.000812967
0.000826216
0.000839358
0.000853152
0.00086728
0.000881588
0.000895985
0.000910527
0.000925211
0.000939857
0.000954357
0.000968746
0.000983027
0.000997189
0.00101121
0.00102509
0.00103878
0.00105229
0.00106557
0.00107859
0.00109126
0.00110368
0.00111589
0.00112791
0.00113974
0.00115136
0.00116278
0.00117398
0.00118496
0.0011957
0.00120621
0.00121646
0.00122645
0.00123618
0.00124563
0.00125481
0.00126369
0.00127227
0.00128056
0.00128853
0.00129619
0.00130354
0.00131056
0.00131725
0.00132362
0.00132965
0.00133534
0.00134069
0.00134571
0.00135038
0.0013547
0.00135869
0.00136232
0.00136562
0.00136857
0.00137118
0.00137346
0.00137539
0.00137699
0.00137827
0.00137921
0.00137983
0.00138013
0.00138012
0.0013798
0.00137917
0.00137825
0.00137704
0.00137554
0.00137377
0.00137172
0.00136941
0.00136685
0.00136403
0.00136098
0.0013577
0.0013542
0.00135049
0.00134657
0.00134245
0.00133812
0.00133355
0.00132862
0.00132288
0.00131474
0.00130643
0.00129845
0.00129578
0.00128873
0.00127858
0.00126907
0.00126009
0.00125276
0.00124334
0.00123404
0.00122873
0.00121815
0.00120795
0.00120278
0.00119511
0.00118662
0.00117584
0.00116943
0.00115681
0.00115019
0.00113648
0.00112111
1.1948e-06
3.29066e-05
7.60675e-05
0.000110579
0.00013672
0.000156615
0.000172135
0.000184735
0.000195483
0.00020513
0.000214183
0.000222962
0.000231669
0.000240419
0.000249284
0.000258301
0.000267496
0.00027688
0.000286465
0.000296255
0.000306253
0.000316462
0.000326882
0.000337513
0.000348354
0.000359402
0.000370656
0.000382112
0.000393767
0.000405614
0.000417651
0.000429871
0.000442268
0.000454835
0.000467565
0.000480449
0.00049348
0.000506648
0.000519941
0.000533349
0.000546859
0.000560458
0.00057413
0.000587859
0.000601627
0.000615414
0.000629201
0.000642967
0.000656691
0.000670355
0.000683943
0.000697442
0.000710845
0.000724144
0.000737336
0.000750414
0.000763372
0.000776204
0.000788907
0.000801499
0.000814024
0.000826565
0.000839238
0.000852178
0.000865496
0.000879256
0.000893462
0.000908118
0.000923242
0.000938832
0.000954788
0.000971082
0.000987733
0.0010047
0.00102185
0.00103915
0.00105665
0.00107425
0.00109191
0.00110959
0.00112729
0.00114496
0.00116255
0.00118
0.0011973
0.00121442
0.00123137
0.00124813
0.00126468
0.00128102
0.00129713
0.001313
0.00132852
0.00134374
0.0013587
0.00137343
0.00138793
0.00140219
0.00141622
0.00143001
0.00144354
0.00145681
0.0014698
0.00148251
0.00149492
0.00150704
0.00151884
0.00153032
0.00154147
0.00155228
0.00156275
0.00157286
0.00158261
0.001592
0.00160102
0.00160966
0.00161791
0.00162578
0.00163326
0.00164034
0.00164702
0.00165331
0.00165919
0.00166467
0.00166974
0.00167441
0.00167867
0.00168253
0.00168598
0.00168903
0.00169169
0.00169394
0.00169581
0.00169728
0.00169837
0.00169908
0.00169941
0.00169937
0.00169897
0.00169821
0.0016971
0.00169564
0.00169385
0.00169174
0.0016893
0.00168655
0.0016835
0.00168016
0.00167654
0.00167264
0.00166848
0.00166406
0.00165939
0.00165446
0.00164924
0.00164364
0.00163745
0.00163011
0.00162193
0.00161375
0.00160691
0.001599
0.00159037
0.00158146
0.00157246
0.00156381
0.00155445
0.00154494
0.00153628
0.00152652
0.00151665
0.00150804
0.00149895
0.00148961
0.0014798
0.00147074
0.00146012
0.00145046
0.00143777
0.00142158
1.46646e-06
3.68767e-05
8.52397e-05
0.000124761
0.00015532
0.000178997
0.00019771
0.000212982
0.000225963
0.000237494
0.000248166
0.000258377
0.000268391
0.000278373
0.000288424
0.000298609
0.000308963
0.00031951
0.000330262
0.000341228
0.000352412
0.000363817
0.000375445
0.000387294
0.000399365
0.000411653
0.000424158
0.000436876
0.000449802
0.000462932
0.000476261
0.000489783
0.000503493
0.000517382
0.000531444
0.00054567
0.000560053
0.000574581
0.000589247
0.000604038
0.000618945
0.000633954
0.000649052
0.000664228
0.000679466
0.000694751
0.000710071
0.00072541
0.000740757
0.000756102
0.000771439
0.000786767
0.000802088
0.000817412
0.000832747
0.000848108
0.000863507
0.000878961
0.000894488
0.000910115
0.00092588
0.000941839
0.000958055
0.000974595
0.000991509
0.00100882
0.00102652
0.00104459
0.00106302
0.00108176
0.00110079
0.00112006
0.00113955
0.00115922
0.00117904
0.00119896
0.00121894
0.00123896
0.00125896
0.00127892
0.00129881
0.00131861
0.00133828
0.00135778
0.00137709
0.00139621
0.00141511
0.00143379
0.00145224
0.00147045
0.0014884
0.00150608
0.00152342
0.00154047
0.00155725
0.00157379
0.00159007
0.00160611
0.00162189
0.00163741
0.00165265
0.00166761
0.00168227
0.00169662
0.00171066
0.00172438
0.00173776
0.00175079
0.00176347
0.00177578
0.00178772
0.00179928
0.00181045
0.00182123
0.0018316
0.00184156
0.00185111
0.00186024
0.00186895
0.00187723
0.00188507
0.00189248
0.00189945
0.00190598
0.00191206
0.00191771
0.00192291
0.00192767
0.00193198
0.00193585
0.00193929
0.00194228
0.00194485
0.00194698
0.00194868
0.00194997
0.00195083
0.00195129
0.00195134
0.00195098
0.00195024
0.00194911
0.00194761
0.00194573
0.0019435
0.00194091
0.00193798
0.00193471
0.00193113
0.00192723
0.00192303
0.00191853
0.00191374
0.00190866
0.00190325
0.00189747
0.00189121
0.00188424
0.00187657
0.00186865
0.00186092
0.00185279
0.00184437
0.00183568
0.00182676
0.0018178
0.00180853
0.00179909
0.00178971
0.00178002
0.00177024
0.00176075
0.00175116
0.00174149
0.00173169
0.00172199
0.00171179
0.00170144
0.00168931
0.00167439
1.6854e-06
4.00087e-05
9.25155e-05
0.000136221
0.000170613
0.000197672
0.000219309
0.000237076
0.000252173
0.000265497
0.000277702
0.00028925
0.000300458
0.000311535
0.000322619
0.000333797
0.000345122
0.000356628
0.000368336
0.000380258
0.0003924
0.000404768
0.000417362
0.000430183
0.00044323
0.000456501
0.000469993
0.000483703
0.000497627
0.00051176
0.000526098
0.000540635
0.000555365
0.000570281
0.000585376
0.000600643
0.000616074
0.000631661
0.000647394
0.000663264
0.000679264
0.000695382
0.00071161
0.000727938
0.000744355
0.000760853
0.000777424
0.000794059
0.000810755
0.000827508
0.000844319
0.000861195
0.000878144
0.00089518
0.000912322
0.000929587
0.000946996
0.000964569
0.000982329
0.0010003
0.0010185
0.00103697
0.00105573
0.00107481
0.00109424
0.00111399
0.00113408
0.00115446
0.00117512
0.00119602
0.00121712
0.0012384
0.00125982
0.00128135
0.00130296
0.00132462
0.00134628
0.00136792
0.00138951
0.00141101
0.0014324
0.00145366
0.00147476
0.00149567
0.00151638
0.00153687
0.00155713
0.00157716
0.00159694
0.00161647
0.00163574
0.0016547
0.00167334
0.00169171
0.00170982
0.00172768
0.00174529
0.00176264
0.00177972
0.00179654
0.00181307
0.00182931
0.00184525
0.00186088
0.00187618
0.00189115
0.00190577
0.00192004
0.00193394
0.00194747
0.00196061
0.00197335
0.0019857
0.00199763
0.00200914
0.00202024
0.0020309
0.00204112
0.00205091
0.00206024
0.00206913
0.00207755
0.00208552
0.00209303
0.00210007
0.00210665
0.00211276
0.00211841
0.00212358
0.00212829
0.00213254
0.00213632
0.00213965
0.00214252
0.00214493
0.00214689
0.00214841
0.00214949
0.00215013
0.00215035
0.00215014
0.00214953
0.0021485
0.00214707
0.00214525
0.00214305
0.00214047
0.00213754
0.00213425
0.00213062
0.00212666
0.00212238
0.00211777
0.00211285
0.00210758
0.00210195
0.00209589
0.00208931
0.00208219
0.00207473
0.0020671
0.00205917
0.002051
0.00204257
0.00203391
0.00202509
0.00201605
0.00200684
0.00199751
0.001988
0.0019784
0.00196883
0.00195923
0.00194958
0.00193991
0.00193022
0.00192033
0.00191013
0.00189879
0.0018855
1.85646e-06
4.23884e-05
9.81202e-05
0.000145275
0.000182959
0.000213013
0.000237304
0.00025738
0.00027446
0.000289479
0.000303133
0.000315931
0.000328235
0.000340294
0.000352277
0.000364298
0.000376429
0.000388716
0.000401189
0.000413867
0.00042676
0.000439874
0.000453213
0.000466777
0.000480567
0.000494581
0.000508816
0.00052327
0.000537939
0.000552818
0.000567903
0.000583189
0.000598671
0.000614341
0.000630195
0.000646226
0.000662426
0.000678789
0.000695308
0.000711976
0.000728786
0.000745731
0.000762805
0.000780001
0.000797314
0.000814739
0.000832273
0.000849914
0.000867661
0.000885516
0.000903485
0.000921577
0.000939803
0.000958179
0.000976723
0.000995452
0.00101439
0.00103354
0.00105294
0.0010726
0.00109252
0.00111273
0.00113323
0.00115404
0.00117514
0.00119652
0.00121818
0.00124009
0.00126221
0.00128452
0.00130699
0.00132958
0.00135226
0.00137501
0.0013978
0.00142059
0.00144336
0.00146607
0.00148871
0.00151124
0.00153363
0.00155588
0.00157795
0.00159983
0.0016215
0.00164294
0.00166416
0.00168513
0.00170586
0.00172633
0.00174653
0.00176643
0.00178604
0.0018054
0.00182451
0.00184338
0.001862
0.00188037
0.00189847
0.00191631
0.00193387
0.00195114
0.00196812
0.00198477
0.00200111
0.00201711
0.00203277
0.00204807
0.002063
0.00207756
0.00209172
0.00210549
0.00211886
0.0021318
0.00214432
0.00215642
0.00216807
0.00217929
0.00219005
0.00220036
0.0022102
0.00221957
0.00222848
0.00223691
0.00224487
0.00225235
0.00225935
0.00226587
0.00227191
0.00227746
0.00228253
0.00228713
0.00229126
0.00229491
0.00229808
0.00230079
0.00230303
0.00230483
0.00230616
0.00230704
0.00230747
0.00230748
0.00230705
0.0023062
0.00230495
0.00230329
0.00230123
0.0022988
0.00229599
0.00229282
0.00228929
0.00228541
0.0022812
0.00227664
0.00227174
0.00226648
0.00226081
0.00225471
0.00224817
0.00224126
0.00223407
0.00222658
0.00221882
0.0022108
0.00220255
0.00219408
0.00218542
0.00217657
0.00216756
0.00215839
0.00214911
0.00213979
0.00213043
0.00212106
0.00211169
0.00210231
0.00209286
0.00208318
0.00207275
0.00206102
1.98212e-06
4.41124e-05
0.000102256
0.000152186
0.000192649
0.000225316
0.000251979
0.00027416
0.000293076
0.000309676
0.000324684
0.000338643
0.000351948
0.000364884
0.000377649
0.000390379
0.000403167
0.000416073
0.000429139
0.000442388
0.000455837
0.000469497
0.000483372
0.000497465
0.000511777
0.000526307
0.000541053
0.000556014
0.000571185
0.000586564
0.000602145
0.000617926
0.000633901
0.000650064
0.000666411
0.000682937
0.000699636
0.000716503
0.000733532
0.000750719
0.000768059
0.000785547
0.00080318
0.000820956
0.00083887
0.000856924
0.000875116
0.000893448
0.000911923
0.000930546
0.000949325
0.000968269
0.00098739
0.0010067
0.00102622
0.00104596
0.00106594
0.00108617
0.00110666
0.00112742
0.00114846
0.00116978
0.00119138
0.00121326
0.0012354
0.0012578
0.00128042
0.00130326
0.00132628
0.00134945
0.00137275
0.00139614
0.00141961
0.00144312
0.00146664
0.00149015
0.00151362
0.00153703
0.00156034
0.00158354
0.00160661
0.00162952
0.00165225
0.0016748
0.00169713
0.00171925
0.00174114
0.0017628
0.00178421
0.00180537
0.00182627
0.00184689
0.00186727
0.00188742
0.00190733
0.00192702
0.00194647
0.00196568
0.00198464
0.00200334
0.00202178
0.00203993
0.00205778
0.00207534
0.00209257
0.00210948
0.00212605
0.00214226
0.00215812
0.0021736
0.00218869
0.00220339
0.00221768
0.00223155
0.002245
0.00225801
0.00227059
0.00228273
0.00229441
0.00230564
0.00231639
0.00232667
0.00233648
0.0023458
0.00235465
0.00236301
0.0023709
0.00237829
0.00238518
0.00239158
0.0023975
0.00240293
0.00240789
0.00241234
0.00241631
0.0024198
0.00242281
0.00242536
0.00242743
0.00242904
0.0024302
0.00243091
0.00243117
0.00243101
0.00243041
0.0024294
0.00242799
0.00242617
0.00242396
0.00242137
0.00241841
0.00241509
0.00241141
0.00240737
0.00240299
0.00239823
0.0023931
0.00238757
0.00238164
0.00237535
0.00236874
0.00236181
0.00235459
0.0023471
0.00233936
0.00233139
0.0023232
0.00231483
0.00230627
0.00229756
0.00228872
0.0022798
0.00227085
0.00226189
0.00225296
0.00224406
0.00223516
0.00222613
0.00221664
0.0022063
2.06611e-06
4.52704e-05
0.000105107
0.000157192
0.000199941
0.000234841
0.000263586
0.00028765
0.00030823
0.000326277
0.000342527
0.000357545
0.000371752
0.000385459
0.000398888
0.000412199
0.000425503
0.000438874
0.000452364
0.000466008
0.000479827
0.000493835
0.000508042
0.000522451
0.000537066
0.000551887
0.000566913
0.000582143
0.000597575
0.000613205
0.00062903
0.000645047
0.000661253
0.000677643
0.000694213
0.000710959
0.000727877
0.000744965
0.000762218
0.000779633
0.000797208
0.00081494
0.00083283
0.000850875
0.000869078
0.000887439
0.000905961
0.000924648
0.000943505
0.000962539
0.000981758
0.00100117
0.00102079
0.00104063
0.0010607
0.00108101
0.00110157
0.0011224
0.00114349
0.00116486
0.00118651
0.00120843
0.00123062
0.00125307
0.00127577
0.00129869
0.00132183
0.00134516
0.00136865
0.00139229
0.00141604
0.00143988
0.00146378
0.00148773
0.00151168
0.00153562
0.00155952
0.00158336
0.00160712
0.00163076
0.00165428
0.00167765
0.00170085
0.00172387
0.00174669
0.0017693
0.00179169
0.00181386
0.0018358
0.0018575
0.00187897
0.00190021
0.00192125
0.00194208
0.0019627
0.00198311
0.0020033
0.00202326
0.00204299
0.00206247
0.00208169
0.00210065
0.00211932
0.00213769
0.00215576
0.00217351
0.00219093
0.002208
0.00222472
0.00224106
0.00225703
0.0022726
0.00228777
0.00230252
0.00231685
0.00233075
0.00234422
0.00235724
0.00236981
0.00238193
0.00239357
0.00240474
0.00241542
0.00242563
0.00243535
0.00244459
0.00245335
0.00246161
0.00246937
0.00247662
0.00248338
0.00248965
0.00249544
0.00250072
0.00250552
0.00250982
0.00251364
0.00251699
0.00251986
0.00252226
0.00252419
0.00252567
0.0025267
0.00252729
0.00252743
0.00252716
0.00252646
0.00252535
0.00252383
0.00252193
0.00251963
0.00251696
0.00251393
0.00251052
0.00250676
0.00250263
0.00249812
0.00249324
0.00248798
0.00248236
0.0024764
0.00247011
0.00246352
0.00245664
0.0024495
0.00244211
0.00243449
0.00242666
0.00241865
0.00241046
0.00240215
0.00239374
0.00238529
0.00237684
0.00236843
0.00236008
0.00235179
0.00234348
0.00233488
0.00232573
2.11292e-06
4.59436e-05
0.000106837
0.000160505
0.000205071
0.000241825
0.00027235
0.000298055
0.000320106
0.00033944
0.000356797
0.000372751
0.000387742
0.000402098
0.000416066
0.000429821
0.000443492
0.000457168
0.000470911
0.000484766
0.000498759
0.000512912
0.000527236
0.000541739
0.000556426
0.000571299
0.000586359
0.000601606
0.000617038
0.000632654
0.00064845
0.000664427
0.000680579
0.000696906
0.000713404
0.00073007
0.000746904
0.000763903
0.000781065
0.00079839
0.000815877
0.000833526
0.00085134
0.000869319
0.000887467
0.000905788
0.000924287
0.000942969
0.000961842
0.000980914
0.00100019
0.00101969
0.00103941
0.00105938
0.00107959
0.00110005
0.00112079
0.00114179
0.00116308
0.00118464
0.00120648
0.00122859
0.00125097
0.00127361
0.00129649
0.0013196
0.00134291
0.00136642
0.0013901
0.00141392
0.00143787
0.00146191
0.00148603
0.0015102
0.0015344
0.0015586
0.00158277
0.00160689
0.00163095
0.00165491
0.00167875
0.00170247
0.00172602
0.00174941
0.00177261
0.00179562
0.00181842
0.00184102
0.00186339
0.00188558
0.0019076
0.00192943
0.00195108
0.00197256
0.00199385
0.00201495
0.00203585
0.00205654
0.002077
0.00209724
0.00211722
0.00213695
0.00215641
0.00217558
0.00219445
0.00221302
0.00223126
0.00224916
0.00226672
0.00228391
0.00230073
0.00231715
0.00233317
0.00234879
0.00236398
0.00237875
0.00239308
0.00240697
0.00242042
0.00243343
0.00244594
0.00245798
0.00246954
0.00248062
0.00249121
0.00250132
0.00251094
0.00252007
0.00252869
0.00253682
0.00254444
0.00255157
0.00255821
0.00256435
0.00257
0.00257516
0.00257983
0.00258402
0.00258773
0.00259096
0.00259373
0.00259603
0.00259788
0.00259928
0.00260023
0.00260075
0.00260084
0.00260051
0.00259977
0.00259862
0.00259708
0.00259515
0.00259284
0.00259016
0.0025871
0.00258368
0.00257989
0.00257572
0.00257118
0.00256628
0.00256104
0.00255546
0.00254956
0.00254336
0.00253688
0.00253014
0.00252315
0.00251594
0.00250853
0.00250095
0.00249321
0.00248538
0.0024775
0.00246961
0.00246178
0.00245403
0.00244637
0.00243876
0.002431
0.00242287
2.1275e-06
4.62053e-05
0.0001076
0.000162325
0.000208255
0.000246485
0.000278474
0.000305556
0.000328855
0.000349284
0.000367577
0.000384311
0.000399935
0.000414793
0.000429144
0.000443181
0.000457046
0.000470842
0.000484643
0.000498498
0.000512446
0.000526511
0.00054071
0.000555054