/*--------------------------------*- C++ -*----------------------------------*\
  =========                 |
  \\      /  F ield         | OpenFOAM: The Open Source CFD Toolbox
   \\    /   O peration     | Website:  https://openfoam.org
    \\  /    A nd           | Version:  7
     \\/     M anipulation  |
\*---------------------------------------------------------------------------*/
FoamFile
{
    version     2.0;
    format      ascii;
    class       volVectorField;
    location    "0.27";
    object      U;
}
// * * * * * * * * * * * * * * * * * * * * * * * * * * * * * * * * * * * * * //

dimensions      [0 1 -1 0 0 0 0];

internalField   nonuniform List<vector> 
12225
(
(4.73347 -0.571241 0)
(4.31415 -0.430539 0)
(4.03362 -0.176988 0)
(3.82438 -0.0515563 0)
(3.64947 -0.00460911 0)
(3.50664 0.0100132 0)
(3.39574 0.0130646 0)
(3.30959 0.012454 0)
(3.24032 0.0110271 0)
(3.18295 0.00968618 0)
(3.13459 0.00861019 0)
(3.09323 0.00775661 0)
(3.05734 0.00705427 0)
(3.02587 0.00645723 0)
(2.99791 0.00593708 0)
(2.97356 0.00543654 0)
(2.94915 0.00568977 0)
(2.9376 0.0023192 0)
(5.02997 0.295073 0)
(4.8422 0.245056 0)
(4.69196 0.169879 0)
(4.58579 0.107137 0)
(4.48719 0.0705193 0)
(4.39264 0.0517014 0)
(4.30767 0.0412037 0)
(4.23292 0.0342554 0)
(4.16677 0.0291761 0)
(4.10816 0.0253584 0)
(4.05642 0.0224379 0)
(4.01078 0.0201408 0)
(3.97035 0.0182786 0)
(3.93439 0.0167465 0)
(3.90221 0.0154102 0)
(3.87357 0.0144857 0)
(3.84735 0.013016 0)
(3.82581 0.0149237 0)
(4.96336 0.187521 0)
(4.82997 0.10397 0)
(4.75456 0.0857278 0)
(4.7116 0.0765124 0)
(4.66623 0.0679677 0)
(4.61626 0.0608897 0)
(4.56785 0.0547167 0)
(4.52269 0.0490587 0)
(4.4804 0.044054 0)
(4.44097 0.0398247 0)
(4.40463 0.0362948 0)
(4.37141 0.0333138 0)
(4.34109 0.0307546 0)
(4.31345 0.0285399 0)
(4.28825 0.0265728 0)
(4.2653 0.0249365 0)
(4.24459 0.0232608 0)
(4.22536 0.0226566 0)
(4.96282 0.171149 0)
(4.85057 0.102653 0)
(4.78993 0.0968059 0)
(4.7608 0.0902686 0)
(4.73316 0.0806668 0)
(4.70326 0.0725451 0)
(4.67491 0.0659116 0)
(4.64873 0.0600276 0)
(4.62394 0.0548027 0)
(4.60034 0.0502965 0)
(4.57815 0.0464355 0)
(4.55747 0.0430882 0)
(4.53826 0.040147 0)
(4.52044 0.0375433 0)
(4.50396 0.0351995 0)
(4.48872 0.0331306 0)
(4.47499 0.0311207 0)
(4.4616 0.0294465 0)
(4.9736 0.195248 0)
(4.88122 0.129106 0)
(4.82305 0.114548 0)
(4.79436 0.101658 0)
(4.77168 0.0890955 0)
(4.74975 0.0798131 0)
(4.73036 0.0727315 0)
(4.71342 0.0666344 0)
(4.6979 0.0612585 0)
(4.68337 0.0566056 0)
(4.66984 0.0525879 0)
(4.65732 0.049074 0)
(4.64573 0.0459589 0)
(4.635 0.0431711 0)
(4.6251 0.0406406 0)
(4.61594 0.0383312 0)
(4.60777 0.0361175 0)
(4.59956 0.0339669 0)
(4.98217 0.218656 0)
(4.90833 0.150126 0)
(4.85343 0.12686 0)
(4.82377 0.110005 0)
(4.80229 0.0959035 0)
(4.78334 0.0857199 0)
(4.76764 0.078009 0)
(4.75482 0.0714876 0)
(4.74376 0.0658113 0)
(4.73387 0.0609174 0)
(4.72501 0.056689 0)
(4.71707 0.0529849 0)
(4.70993 0.0496942 0)
(4.70348 0.046737 0)
(4.69767 0.0440421 0)
(4.69239 0.0415454 0)
(4.68781 0.0391666 0)
(4.68312 0.0367863 0)
(4.98795 0.235238 0)
(4.93048 0.166907 0)
(4.88099 0.138186 0)
(4.85125 0.118647 0)
(4.83002 0.103006 0)
(4.81219 0.0915518 0)
(4.79794 0.0828706 0)
(4.78686 0.0756743 0)
(4.77786 0.0695137 0)
(4.77027 0.0642407 0)
(4.76382 0.0596983 0)
(4.75834 0.0557279 0)
(4.75366 0.0522068 0)
(4.74963 0.0490433 0)
(4.74618 0.0461596 0)
(4.74319 0.0434784 0)
(4.74075 0.0409361 0)
(4.73821 0.0384098 0)
(4.9919 0.24733 0)
(4.94824 0.181994 0)
(4.90536 0.149797 0)
(4.87673 0.127879 0)
(4.85591 0.110524 0)
(4.83874 0.097575 0)
(4.82515 0.0877203 0)
(4.81481 0.0796698 0)
(4.80673 0.0728711 0)
(4.80024 0.0670929 0)
(4.79501 0.0621365 0)
(4.79081 0.0578212 0)
(4.78745 0.0540083 0)
(4.78476 0.0505924 0)
(4.78263 0.0474866 0)
(4.78094 0.0446066 0)
(4.77973 0.0418917 0)
(4.77844 0.0392371 0)
(4.99462 0.256579 0)
(4.96211 0.195555 0)
(4.92618 0.161128 0)
(4.89974 0.137187 0)
(4.87993 0.118248 0)
(4.86359 0.103816 0)
(4.85057 0.0927169 0)
(4.84065 0.0837056 0)
(4.83303 0.0761581 0)
(4.82709 0.0697748 0)
(4.82247 0.0643192 0)
(4.81894 0.0595881 0)
(4.81627 0.0554252 0)
(4.8143 0.0517108 0)
(4.81289 0.0483479 0)
(4.81191 0.0452475 0)
(4.81137 0.0423464 0)
(4.81078 0.0395571 0)
(4.99646 0.263626 0)
(4.97262 0.207255 0)
(4.94338 0.171634 0)
(4.91992 0.146173 0)
(4.90176 0.125941 0)
(4.88666 0.110172 0)
(4.87443 0.0978528 0)
(4.86499 0.0878448 0)
(4.85775 0.0794891 0)
(4.85218 0.0724357 0)
(4.84794 0.066419 0)
(4.84478 0.0612165 0)
(4.84249 0.0566554 0)
(4.8409 0.0526026 0)
(4.83988 0.0489512 0)
(4.83928 0.0456079 0)
(4.83909 0.0425051 0)
(4.83888 0.0395671 0)
(4.99767 0.268904 0)
(4.9804 0.21703 0)
(4.95721 0.181067 0)
(4.93713 0.154567 0)
(4.92109 0.13334 0)
(4.90762 0.116434 0)
(4.89653 0.102996 0)
(4.88782 0.0920218 0)
(4.88111 0.0828517 0)
(4.87595 0.0751044 0)
(4.87205 0.0684954 0)
(4.86919 0.0627885 0)
(4.86717 0.0577978 0)
(4.86583 0.0533788 0)
(4.86503 0.0494159 0)
(4.86465 0.045812 0)
(4.86466 0.042494 0)
(4.86465 0.0393937 0)
(4.99839 0.27259 0)
(4.98561 0.224439 0)
(4.96721 0.188678 0)
(4.9503 0.161548 0)
(4.93642 0.139614 0)
(4.9247 0.12185 0)
(4.91493 0.107514 0)
(4.90716 0.0957251 0)
(4.90114 0.0858446 0)
(4.89651 0.0774773 0)
(4.89303 0.0703288 0)
(4.8905 0.064156 0)
(4.88875 0.0587645 0)
(4.88763 0.0540018 0)
(4.88702 0.0497461 0)
(4.88679 0.0458965 0)
(4.88693 0.0423773 0)
(4.88704 0.0391181 0)
(4.99887 0.275386 0)
(4.98949 0.230555 0)
(4.97518 0.195331 0)
(4.9613 0.167785 0)
(4.94963 0.145281 0)
(4.93976 0.126805 0)
(4.93149 0.111689 0)
(4.92485 0.0991658 0)
(4.91968 0.08863 0)
(4.91574 0.0796815 0)
(4.9128 0.0720208 0)
(4.9107 0.0654006 0)
(4.90929 0.0596211 0)
(4.90844 0.054524 0)
(4.90804 0.0499826 0)
(4.90799 0.0458925 0)
(4.90827 0.0421756 0)
(4.9085 0.0387556 0)
(4.99923 0.277708 0)
(4.99273 0.236083 0)
(4.98229 0.20168 0)
(4.9716 0.173884 0)
(4.96242 0.150889 0)
(4.95468 0.131757 0)
(4.94822 0.115884 0)
(4.94303 0.102622 0)
(4.93903 0.091415 0)
(4.93604 0.0818634 0)
(4.93388 0.0736646 0)
(4.93241 0.0665702 0)
(4.93152 0.0603769 0)
(4.93108 0.0549216 0)
(4.93102 0.050073 0)
(4.93125 0.0457236 0)
(4.93173 0.0417914 0)
(4.93216 0.0381984 0)
(4.99952 0.279545 0)
(4.99536 0.240728 0)
(4.9884 0.207279 0)
(4.98096 0.179377 0)
(4.97447 0.155962 0)
(4.96909 0.136235 0)
(4.96469 0.119654 0)
(4.96125 0.105678 0)
(4.95871 0.0938097 0)
(4.95695 0.0836609 0)
(4.95582 0.0749276 0)
(4.95522 0.0673608 0)
(4.95505 0.060755 0)
(4.95523 0.0549429 0)
(4.95567 0.0497891 0)
(4.95632 0.0451829 0)
(4.95715 0.0410372 0)
(4.95788 0.037275 0)
(4.99973 0.280863 0)
(4.99746 0.24419 0)
(4.99359 0.211611 0)
(4.98936 0.183668 0)
(4.98574 0.159866 0)
(4.98291 0.139596 0)
(4.9808 0.12237 0)
(4.97936 0.107729 0)
(4.97854 0.095238 0)
(4.97826 0.0845266 0)
(4.97841 0.0752923 0)
(4.97891 0.0672853 0)
(4.97968 0.0602982 0)
(4.98066 0.05416 0)
(4.98179 0.0487309 0)
(4.98303 0.043896 0)
(4.98437 0.0395636 0)
(4.98556 0.0356571 0)
(4.99991 0.281582 0)
(4.99922 0.246109 0)
(4.9981 0.214003 0)
(4.99706 0.185915 0)
(4.9965 0.161696 0)
(4.99648 0.140905 0)
(4.99692 0.123104 0)
(4.99775 0.107883 0)
(4.99893 0.0948525 0)
(5.00039 0.0836592 0)
(5.00206 0.0740033 0)
(5.00388 0.0656329 0)
(5.0058 0.0583377 0)
(5.00777 0.051943 0)
(5.00978 0.0463043 0)
(5.01177 0.0413023 0)
(5.01376 0.0368401 0)
(5.01556 0.0328415 0)
(5.00008 0.281514 0)
(5.00085 0.245906 0)
(5.00244 0.213477 0)
(5.00477 0.184883 0)
(5.00762 0.160108 0)
(5.0108 0.138782 0)
(5.01419 0.12048 0)
(5.01769 0.104804 0)
(5.02124 0.0913767 0)
(5.02478 0.079851 0)
(5.02827 0.0699217 0)
(5.03168 0.0613309 0)
(5.03499 0.0538631 0)
(5.03818 0.0473384 0)
(5.04124 0.0416075 0)
(5.04416 0.0365468 0)
(5.04697 0.0320548 0)
(5.0495 0.028056 0)
(5.00031 0.280218 0)
(5.00288 0.242309 0)
(5.00773 0.208094 0)
(5.01413 0.178246 0)
(5.02117 0.152637 0)
(5.02829 0.130764 0)
(5.0353 0.112114 0)
(5.04208 0.0962406 0)
(5.04857 0.0827268 0)
(5.05469 0.0711902 0)
(5.06044 0.0613013 0)
(5.06582 0.0527865 0)
(5.07085 0.0454201 0)
(5.07554 0.0390149 0)
(5.07993 0.0334162 0)
(5.08401 0.0284971 0)
(5.08785 0.0241529 0)
(5.09131 0.0203091 0)
(5.00061 0.277665 0)
(5.00556 0.235153 0)
(5.01458 0.197593 0)
(5.02594 0.165748 0)
(5.03777 0.139083 0)
(5.04922 0.116718 0)
(5.06011 0.0979577 0)
(5.07037 0.0822451 0)
(5.07989 0.0690591 0)
(5.08865 0.0579349 0)
(5.09668 0.0484943 0)
(5.10405 0.0404378 0)
(5.1108 0.0335234 0)
(5.11699 0.0275541 0)
(5.12269 0.0223696 0)
(5.12792 0.0178409 0)
(5.13277 0.0138628 0)
(5.13714 0.0103623 0)
(5.00095 0.274073 0)
(5.00882 0.225404 0)
(5.02281 0.183991 0)
(5.03958 0.150397 0)
(5.05619 0.123133 0)
(5.07172 0.100734 0)
(5.0862 0.0823204 0)
(5.09958 0.0672076 0)
(5.11177 0.0547327 0)
(5.12277 0.0443361 0)
(5.13271 0.0356002 0)
(5.1417 0.0282097 0)
(5.14985 0.0219143 0)
(5.15726 0.0165131 0)
(5.16399 0.0118472 0)
(5.17013 0.00779068 0)
(5.17577 0.00424263 0)
(5.18082 0.00113399 0)
(5.00149 0.269084 0)
(5.01372 0.212412 0)
(5.03449 0.166908 0)
(5.05778 0.132092 0)
(5.07953 0.104734 0)
(5.09924 0.0827155 0)
(5.11732 0.0650635 0)
(5.13375 0.0509324 0)
(5.14842 0.0394733 0)
(5.16144 0.0300414 0)
(5.17304 0.0222023 0)
(5.18343 0.015637 0)
(5.19273 0.0100919 0)
(5.20109 0.00536752 0)
(5.20863 0.00131074 0)
(5.21543 -0.00219692 0)
(5.22163 -0.00524957 0)
(5.22715 -0.00791139 0)
(5.00238 0.262161 0)
(5.0213 0.195494 0)
(5.05127 0.146372 0)
(5.08214 0.111313 0)
(5.10914 0.0844204 0)
(5.13297 0.0632256 0)
(5.15453 0.046823 0)
(5.17371 0.0340959 0)
(5.19044 0.0239605 0)
(5.20502 0.0157232 0)
(5.21784 0.00896524 0)
(5.22916 0.00337429 0)
(5.23917 -0.00130155 0)
(5.24805 -0.00525363 0)
(5.25596 -0.00862326 0)
(5.26303 -0.0115179 0)
(5.26939 -0.014022 0)
(5.27502 -0.0161933 0)
(5.00395 0.252443 0)
(5.03317 0.173602 0)
(5.07517 0.122465 0)
(5.11403 0.0887819 0)
(5.14578 0.0630487 0)
(5.1733 0.0431828 0)
(5.19784 0.0285487 0)
(5.21903 0.0176262 0)
(5.23699 0.0090823 0)
(5.25237 0.00222723 0)
(5.26568 -0.00331182 0)
(5.27726 -0.00782969 0)
(5.28733 -0.0115668 0)
(5.29614 -0.0146976 0)
(5.30387 -0.0173455 0)
(5.31068 -0.0196034 0)
(5.31672 -0.0215427 0)
(5.32199 -0.0232133 0)
(5.00664 0.239244 0)
(5.05115 0.146006 0)
(5.10793 0.0952197 0)
(5.15397 0.064921 0)
(5.189 0.0414351 0)
(5.21919 0.0236861 0)
(5.2457 0.0113447 0)
(5.26779 0.00249684 0)
(5.28593 -0.00431378 0)
(5.30115 -0.00969687 0)
(5.3141 -0.0139635 0)
(5.32514 -0.0173834 0)
(5.33454 -0.0201741 0)
(5.34258 -0.0224845 0)
(5.34947 -0.0244167 0)
(5.3554 -0.0260469 0)
(5.36053 -0.0274329 0)
(5.3649 -0.0286173 0)
(5.01051 0.222556 0)
(5.07591 0.115734 0)
(5.14966 0.0673027 0)
(5.20127 0.0405887 0)
(5.23759 0.0200541 0)
(5.26891 0.00548643 0)
(5.29594 -0.00396938 0)
(5.3176 -0.0105763 0)
(5.33474 -0.015627 0)
(5.3487 -0.0195375 0)
(5.36024 -0.0225443 0)
(5.36971 -0.0248869 0)
(5.37744 -0.0267526 0)
(5.38372 -0.0282611 0)
(5.38883 -0.0294924 0)
(5.39296 -0.0305084 0)
(5.39628 -0.0313524 0)
(5.39886 -0.0320629 0)
(5.01612 0.196417 0)
(5.1084 0.0875787 0)
(5.19903 0.0463716 0)
(5.25413 0.0197303 0)
(5.29026 -0.000110249 0)
(5.32098 -0.0113898 0)
(5.3465 -0.0174584 0)
(5.36571 -0.0215371 0)
(5.37994 -0.0246916 0)
(5.39077 -0.0270582 0)
(5.39896 -0.0287683 0)
(5.40492 -0.0300184 0)
(5.40905 -0.0309572 0)
(5.4117 -0.0316708 0)
(5.41318 -0.0322148 0)
(5.41372 -0.0326356 0)
(5.41352 -0.0329617 0)
(5.4127 -0.0332259 0)
(5.02989 0.134583 0)
(5.15986 0.047569 0)
(5.25805 0.0412232 0)
(5.30881 0.0216987 0)
(5.34242 -0.001749 0)
(5.37065 -0.0156713 0)
(5.39128 -0.0222314 0)
(5.40376 -0.0258381 0)
(5.41044 -0.0281531 0)
(5.41335 -0.0295402 0)
(5.41345 -0.0302604 0)
(5.4113 -0.0305844 0)
(5.4074 -0.0306909 0)
(5.40224 -0.030672 0)
(5.39616 -0.0305798 0)
(5.38942 -0.0304574 0)
(5.38223 -0.0303345 0)
(5.37477 -0.0302393 0)
(5.08133 -0.0500382 0)
(5.26819 -0.199284 0)
(5.34721 -0.137931 0)
(5.36473 -0.0864904 0)
(5.37841 -0.0639068 0)
(5.3912 -0.0517942 0)
(5.39344 -0.0435553 0)
(5.38486 -0.0382672 0)
(5.37 -0.0349641 0)
(5.35212 -0.0326531 0)
(5.33261 -0.0308184 0)
(5.31217 -0.0292792 0)
(5.29134 -0.0279608 0)
(5.27056 -0.0268113 0)
(5.25008 -0.0257963 0)
(5.23008 -0.0249141 0)
(5.21067 -0.024169 0)
(5.19203 -0.0237491 0)
(5.01586 0.723718 0)
(5.23568 0.467498 0)
(5.2847 0.234421 0)
(5.2073 0.103784 0)
(5.10614 0.038214 0)
(5.01515 0.00867822 0)
(4.93331 -0.00336552 0)
(4.85844 -0.00798446 0)
(4.79117 -0.00965385 0)
(4.73137 -0.0101213 0)
(4.67785 -0.0100941 0)
(4.62942 -0.00989181 0)
(4.58528 -0.00965489 0)
(4.54488 -0.00943458 0)
(4.50777 -0.00924375 0)
(4.47352 -0.00909767 0)
(4.44165 -0.00899864 0)
(4.41194 -0.00917272 0)
(0.00232061 -0.00596279 -1.47674e-20)
(0.00871802 -0.0097582 1.4725e-20)
(0.0146678 -0.0087734 0)
(0.0184919 -0.00561173 0)
(0.0196509 -0.00190772 0)
(0.0181282 0.00139628 -1.39516e-20)
(0.0145833 0.00386461 0)
(0.00949487 0.00552326 0)
(0.00324906 0.00660394 0)
(-0.00385962 0.00735331 0)
(-0.0116585 0.00794137 1.32333e-20)
(-0.020064 0.00845896 0)
(-0.0290232 0.00895056 0)
(-0.0385107 0.00943243 0)
(-0.0485129 0.00990722 0)
(-0.0590195 0.0103721 1.20717e-20)
(-0.0700208 0.0108228 0)
(-0.0815054 0.0112554 0)
(-0.0934605 0.0116668 0)
(-0.105872 0.0120549 0)
(-0.118724 0.0124184 0)
(-0.132 0.0127568 0)
(-0.145683 0.0130702 0)
(-0.159757 0.0133588 1.03681e-20)
(-0.174203 0.0136235 -1.01761e-20)
(-0.189006 0.0138653 9.98946e-21)
(-0.20415 0.0140852 9.80822e-21)
(-0.219617 0.0142846 0)
(-0.235393 0.0144648 0)
(-0.251463 0.0146271 -9.29727e-21)
(-0.267813 0.0147729 -9.13784e-21)
(-0.28443 0.0149037 0)
(-0.3013 0.0150206 0)
(-0.318412 0.015125 -8.69136e-21)
(-0.335754 0.0152179 0)
(-0.353314 0.0153004 0)
(-0.371082 0.0153734 8.29063e-21)
(-0.389046 0.0154378 0)
(-0.407197 0.0154944 8.04736e-21)
(-0.425523 0.0155439 1.5865e-20)
(-0.444015 0.0155869 0)
(-0.462662 0.015624 0)
(-0.481454 0.0156556 0)
(-0.500379 0.0156821 0)
(-0.519426 0.0157037 0)
(-0.538584 0.0157208 1.46603e-20)
(-0.55784 0.0157337 1.44861e-20)
(-0.57718 0.015743 1.43189e-20)
(-0.596591 0.0157494 0)
(-0.61606 0.0157537 -1.40048e-20)
(-0.635573 0.0157569 0)
(-0.655117 0.0157597 1.37162e-20)
(-0.674682 0.0157617 1.35809e-20)
(-0.694254 0.0157602 0)
(-0.713818 0.0157477 0)
(-0.733348 0.0157104 0)
(-0.752805 0.0156332 1.30933e-20)
(-0.772134 0.0155196 0)
(-0.791281 0.0154282 0)
(-0.810231 0.0154999 0)
(-0.829053 0.0159186 0)
(-0.847862 0.016734 0)
(-0.866795 0.0177741 0)
(-0.885974 0.0189169 0)
(-0.904953 0.0195006 0)
(-0.923142 0.0183605 -1.23178e-20)
(-0.941413 0.0208524 0)
(-0.960231 0.0300671 0)
(-0.97945 0.0241197 1.21493e-20)
(-0.998219 0.0211902 1.23743e-20)
(-1.01391 0.0118041 0)
(-1.02839 0.00523477 -1.21011e-20)
(-1.0453 0.033559 1.20158e-20)
(-1.06431 0.025869 0)
(-1.08014 0.00961436 -1.17864e-20)
(-1.09402 0.0186782 0)
(-1.10974 0.0303741 0)
(-1.126 0.0286341 1.22075e-20)
(-1.14005 0.0181809 0)
(-1.15398 0.0248561 -1.21425e-20)
(-1.16912 0.0275352 0)
(-1.18184 0.0142386 1.17781e-20)
(-1.19022 0.00321909 1.16153e-20)
(-1.1975 0.00575774 1.14315e-20)
(-1.20588 0.00548746 2.24775e-20)
(-1.21377 0.00522619 -2.208e-20)
(-1.22123 0.00478184 0)
(-1.22804 0.00426605 0)
(-1.23411 0.00369781 0)
(-1.23939 0.00308938 -2.03719e-20)
(-1.24382 0.00244792 -1.9915e-20)
(-1.24735 0.00178605 1.94461e-20)
(-1.24992 0.00112609 0)
(-1.25145 0.000491148 -1.8471e-20)
(-1.25196 -8.79918e-05 -1.79601e-20)
(-1.25173 -0.000579899 -1.74354e-20)
(-1.25068 -0.0010486 0)
(-1.24885 -0.00150643 0)
(-1.24621 -0.00195893 0)
(-1.24278 -0.00240729 -1.51953e-20)
(-1.23855 -0.00285168 0)
(-1.23351 -0.00329179 0)
(-1.22767 -0.00372715 1.33654e-20)
(-1.22102 -0.0041572 0)
(-1.21356 -0.00458141 0)
(-1.20529 -0.00499921 1.14091e-20)
(-1.19622 -0.00541006 0)
(-1.18636 -0.00581342 0)
(-1.17569 -0.00620878 -9.3314e-21)
(-1.16424 -0.00659563 -8.61308e-21)
(-1.15201 -0.00697349 0)
(-1.139 -0.00734191 7.13993e-21)
(-1.12523 -0.00770046 0)
(-1.11071 -0.00804875 -5.6208e-21)
(-1.09545 -0.0083864 0)
(-1.07946 -0.00871307 -4.05935e-21)
(-1.06276 -0.00902844 -3.26403e-21)
(-1.04537 -0.00933222 0)
(-1.02729 -0.00962413 0)
(-1.00854 -0.00990391 0)
(-0.989149 -0.0101714 0)
(-0.969128 -0.0104263 0)
(-0.948497 -0.0106685 0)
(-0.927278 -0.0108979 0)
(-0.905489 -0.0111145 3.37234e-21)
(-0.883153 -0.0113182 -4.22653e-21)
(-0.860292 -0.0115089 0)
(-0.836926 -0.0116866 0)
(-0.813079 -0.0118513 0)
(-0.788774 -0.0120031 0)
(-0.764034 -0.0121422 -1.70619e-20)
(-0.738882 -0.0122685 0)
(-0.713342 -0.0123823 2.05094e-20)
(-0.687437 -0.0124836 -2.22282e-20)
(-0.66119 -0.0125728 0)
(-0.634627 -0.0126499 0)
(-0.607769 -0.0127153 0)
(-0.58064 -0.0127692 2.90372e-20)
(-0.553262 -0.0128119 3.0716e-20)
(-0.52566 -0.0128436 0)
(-0.497854 -0.0128648 3.40361e-20)
(-0.469866 -0.0128757 3.5675e-20)
(-0.441719 -0.0128767 -3.72981e-20)
(-0.413433 -0.0128681 0)
(-0.385028 -0.0128504 0)
(-0.356523 -0.0128238 -4.20618e-20)
(-0.327939 -0.0127886 0)
(-0.299294 -0.0127454 0)
(-0.270605 -0.0126943 0)
(-0.241891 -0.0126359 0)
(-0.213167 -0.0125711 4.9589e-20)
(-0.184448 -0.0125014 5.10245e-20)
(-0.155742 -0.0124306 0)
(-0.127035 -0.0123697 5.38202e-20)
(-0.0983005 -0.0123596 0)
(-0.0696115 -0.0124705 0)
(-0.0405964 -0.0122075 5.7842e-20)
(-0.0101029 -0.0123369 0)
(0.0160782 -0.0113853 6.00778e-20)
(0.0449775 -0.0113816 0)
(0.0724867 -0.0111388 0)
(0.10089 -0.00878847 6.06626e-20)
(0.131225 -0.0103696 0)
(0.157316 -0.0113121 6.12516e-20)
(0.185284 -0.00856822 0)
(0.213269 -0.010536 0)
(0.238887 -0.0124976 0)
(0.265913 -0.0117008 -6.30683e-20)
(0.292388 -0.00639955 0)
(0.32107 -0.00723872 5.95449e-20)
(0.346181 -0.0117913 0)
(0.372334 -0.0107863 0)
(0.399177 -0.00940018 0)
(0.425201 -0.00434271 0)
(0.453127 -0.00663345 0)
(0.476699 -0.00947813 0)
(0.502041 -0.00778854 0)
(0.521746 -0.00125982 -1.27149e-19)
(0.543327 -0.000429666 0)
(0.531737 0.00264852 0)
(0.00208825 -0.016974 4.3924e-20)
(0.00503907 -0.0189645 -4.24918e-20)
(0.00483394 -0.0121154 0)
(0.00271999 -0.00419992 2.55984e-20)
(-0.000888442 0.00325651 0)
(-0.00577193 0.0096623 1.20287e-20)
(-0.0119119 0.0148091 -2.34758e-20)
(-0.0192018 0.0187699 -2.29725e-20)
(-0.0275332 0.0217705 0)
(-0.0367802 0.0240784 -2.20345e-20)
(-0.0468129 0.0259303 -1.0802e-20)
(-0.0575164 0.0274965 0)
(-0.0687997 0.028884 0)
(-0.0805936 0.0301545 0)
(-0.0928456 0.03134 0)
(-0.105515 0.0324554 -9.73434e-21)
(-0.118571 0.0335065 0)
(-0.131986 0.034495 1.86567e-20)
(-0.145737 0.0354211 0)
(-0.159806 0.0362848 0)
(-0.174174 0.0370865 -1.75619e-20)
(-0.188824 0.0378269 0)
(-0.203742 0.0385077 1.68856e-20)
(-0.218913 0.0391306 -8.29649e-21)
(-0.234325 0.0396979 8.14054e-21)
(-0.249965 0.0402122 -7.98971e-21)
(-0.265823 0.0406759 -7.84391e-21)
(-0.281888 0.0410918 0)
(-0.298151 0.0414625 0)
(-0.314602 0.0417906 7.43567e-21)
(-0.331235 0.0420786 -7.27849e-21)
(-0.348041 0.0423287 0)
(-0.365013 0.0425432 0)
(-0.382143 0.0427237 6.95509e-21)
(-0.399425 0.0428721 0)
(-0.416852 0.0429897 0)
(-0.434419 0.0430776 -6.63813e-21)
(-0.452117 0.0431369 0)
(-0.46994 0.0431682 6.41369e-21)
(-0.487882 0.0431721 -1.27095e-20)
(-0.505935 0.0431491 0)
(-0.524092 0.0430993 0)
(-0.542346 0.0430225 -2.43417e-20)
(-0.560687 0.0429183 -2.40292e-20)
(-0.579109 0.0427861 -2.37287e-20)
(-0.597602 0.042625 1.16864e-20)
(-0.616157 0.0424341 -1.16152e-20)
(-0.634765 0.0422128 -3.43789e-20)
(-0.653416 0.0419613 2.26414e-20)
(-0.6721 0.0416806 1.1233e-20)
(-0.69081 0.0413726 0)
(-0.709535 0.0410395 -1.10049e-20)
(-0.728266 0.0406822 1.08283e-20)
(-0.746993 0.0402975 0)
(-0.765703 0.0398758 0)
(-0.784384 0.0394001 0)
(-0.803028 0.0388515 -1.05254e-20)
(-0.821638 0.0382223 0)
(-0.840228 0.0375351 2.06829e-20)
(-0.858809 0.0368463 0)
(-0.877367 0.0362163 2.04596e-20)
(-0.89586 0.0356414 0)
(-0.914192 0.0350077 -2.0329e-20)
(-0.9322 0.0341948 0)
(-0.950018 0.0331403 2.02911e-20)
(-0.967976 0.0316377 -1.01102e-20)
(-0.985359 0.030018 0)
(-1.00168 0.0293979 -2.03822e-20)
(-1.01763 0.0288328 -1.03078e-20)
(-1.03271 0.0279141 -1.0309e-20)
(-1.04937 0.0278823 0)
(-1.06614 0.0263134 -1.00424e-20)
(-1.07928 0.0244749 -1.00239e-20)
(-1.09131 0.0239098 0)
(-1.10482 0.0229766 9.87864e-21)
(-1.11808 0.0211234 -1.9447e-20)
(-1.12885 0.0188459 0)
(-1.1383 0.0172276 -9.81183e-21)
(-1.1485 0.0166052 0)
(-1.15747 0.0155941 2.8586e-20)
(-1.16397 0.0142713 0)
(-1.17049 0.013224 -2.77792e-20)
(-1.17863 0.0129339 -9.1287e-21)
(-1.18666 0.0127812 8.94156e-21)
(-1.19282 0.0121192 1.75752e-20)
(-1.19806 0.0111761 -1.72584e-20)
(-1.20251 0.0100807 0)
(-1.20624 0.0088926 0)
(-1.20927 0.00764978 0)
(-1.2116 0.00636892 4.76781e-20)
(-1.21325 0.00505858 1.55175e-20)
(-1.21425 0.00372828 -1.51355e-20)
(-1.21465 0.00240309 0)
(-1.21449 0.00112149 -1.43766e-20)
(-1.21378 -0.000110817 1.39212e-20)
(-1.21231 -0.00128335 1.34953e-20)
(-1.21011 -0.00242961 0)
(-1.20713 -0.00355791 0)
(-1.20338 -0.00467291 0)
(-1.19884 -0.00577519 1.16934e-20)
(-1.1935 -0.00686413 0)
(-1.18738 -0.00793853 -2.1576e-20)
(-1.18046 -0.00899699 -3.08368e-20)
(-1.17273 -0.010038 1.95991e-20)
(-1.16422 -0.0110602 0)
(-1.1549 -0.0120621 8.8462e-21)
(-1.14479 -0.0130423 0)
(-1.13389 -0.0139995 1.54271e-20)
(-1.12221 -0.0149325 -7.25536e-21)
(-1.10974 -0.01584 -6.70844e-21)
(-1.0965 -0.0167209 0)
(-1.08251 -0.0175742 -1.63868e-20)
(-1.06775 -0.0183988 9.84245e-21)
(-1.05226 -0.0191939 4.23684e-21)
(-1.03603 -0.0199587 0)
(-1.01909 -0.0206924 3.051e-21)
(-1.00144 -0.0213945 7.57856e-21)
(-0.983108 -0.0220645 0)
(-0.964099 -0.0227017 2.70702e-21)
(-0.944434 -0.0233058 1.48283e-21)
(-0.92413 -0.0238764 2.50996e-22)
(-0.903206 -0.0244133 0)
(-0.881681 -0.0249163 0)
(-0.859575 -0.0253854 0)
(-0.836907 -0.0258207 2.23097e-21)
(-0.8137 -0.0262222 3.13325e-21)
(-0.789974 -0.0265901 0)
(-0.765752 -0.0269247 8.50697e-21)
(-0.741056 -0.0272261 9.76574e-21)
(-0.715909 -0.0274949 0)
(-0.690334 -0.0277315 1.25703e-20)
(-0.664353 -0.0279365 2.70636e-20)
(-0.637991 -0.0281105 -1.50753e-20)
(-0.611271 -0.0282541 -1.57281e-20)
(-0.584216 -0.028368 0)
(-0.55685 -0.028453 0)
(-0.529195 -0.02851 0)
(-0.501276 -0.0285399 -2.12304e-20)
(-0.473114 -0.0285436 2.18391e-20)
(-0.444732 -0.028522 4.66659e-20)
(-0.416153 -0.0284761 -2.48147e-20)
(-0.387398 -0.0284071 2.53939e-20)
(-0.358489 -0.0283159 2.71456e-20)
(-0.329445 -0.0282035 0)
(-0.300288 -0.0280712 0)
(-0.271037 -0.0279199 -2.99599e-20)
(-0.241711 -0.0277506 0)
(-0.212328 -0.0275645 0)
(-0.182906 -0.0273627 6.70292e-20)
(-0.153462 -0.0271461 0)
(-0.124011 -0.0269165 3.53308e-20)
(-0.0945696 -0.0266767 -3.69045e-20)
(-0.065149 -0.0264323 0)
(-0.0357576 -0.0261953 3.83476e-20)
(-0.00641877 -0.0259932 0)
(0.0227642 -0.025877 0)
(0.0518499 -0.0257331 -4.10616e-20)
(0.080264 -0.0249453 8.32107e-20)
(0.109557 -0.0244445 -4.2366e-20)
(0.138528 -0.0241761 0)
(0.167079 -0.0241203 0)
(0.195709 -0.0241298 4.3391e-20)
(0.221925 -0.0230285 0)
(0.250857 -0.0227058 4.40008e-20)
(0.2791 -0.0224552 0)
(0.306244 -0.0215008 0)
(0.335372 -0.0210761 0)
(0.363699 -0.0212327 4.61945e-20)
(0.392117 -0.0217689 0)
(0.418109 -0.0207199 -4.46353e-20)
(0.446548 -0.0198643 0)
(0.474566 -0.0197825 0)
(0.501866 -0.0200306 9.4957e-20)
(0.52918 -0.0204364 -9.52401e-20)
(0.554076 -0.0190096 0)
(0.581122 -0.0177782 0)
(0.605604 -0.0166721 0)
(0.628892 -0.014865 2.90868e-19)
(0.64827 -0.00855657 0)
(0.658873 0.00505968 -1.97068e-19)
(0.000562303 -0.0199798 -3.93804e-23)
(-0.00194469 -0.0146732 5.48114e-20)
(-0.00660534 -0.00387322 0)
(-0.0121276 0.00634234 -4.62848e-20)
(-0.0184867 0.0154841 0)
(-0.0255419 0.0234302 0)
(-0.0332647 0.0301498 1.27504e-23)
(-0.0416765 0.0356959 1.979e-20)
(-0.05079 0.040208 1.9303e-20)
(-0.0605842 0.0438766 1.88811e-20)
(-0.0710078 0.0468981 0)
(-0.0819944 0.0494419 0)
(-0.0934762 0.0516379 -1.76796e-20)
(-0.105392 0.0535774 -3.46197e-20)
(-0.117689 0.0553204 3.39027e-20)
(-0.130324 0.0569049 0)
(-0.143263 0.0583545 3.25338e-20)
(-0.156478 0.0596839 -1.59544e-20)
(-0.169946 0.0609031 0)
(-0.183649 0.0620192 3.06352e-20)
(-0.19757 0.0630381 1.50347e-20)
(-0.211698 0.0639651 -2.9467e-20)
(-0.22602 0.0648053 -1.44693e-20)
(-0.240528 0.0655638 0)
(-0.255213 0.0662452 2.78524e-20)
(-0.270068 0.0668544 2.73492e-20)
(-0.285087 0.0673959 0)
(-0.300263 0.067874 2.63927e-20)
(-0.315591 0.0682928 0)
(-0.331068 0.0686562 2.54999e-20)
(-0.346688 0.0689677 1.25531e-20)
(-0.362446 0.0692303 0)
(-0.378339 0.0694468 0)
(-0.394363 0.0696197 0)
(-0.410512 0.069751 0)
(-0.426783 0.0698423 0)
(-0.443172 0.0698951 0)
(-0.459672 0.0699102 2.2497e-20)
(-0.476279 0.0698884 -3.32854e-20)
(-0.492988 0.0698303 0)
(-0.509792 0.0697361 0)
(-0.526686 0.0696057 0)
(-0.543662 0.0694388 3.56184e-23)
(-0.560713 0.069235 2.07905e-20)
(-0.577831 0.0689935 4.10381e-20)
(-0.595009 0.0687136 -4.05508e-20)
(-0.612238 0.0683949 -2.00233e-20)
(-0.629509 0.0680371 1.98351e-20)
(-0.646813 0.0676409 -3.6149e-23)
(-0.66414 0.0672077 1.93783e-20)
(-0.68148 0.0667389 0)
(-0.698821 0.0662354 1.89944e-20)
(-0.716151 0.0656962 -3.47873e-23)
(-0.733454 0.0651166 0)
(-0.750715 0.0644885 0)
(-0.76792 0.0638023 -1.83341e-20)
(-0.78506 0.0630546 0)
(-0.802129 0.0622578 0)
(-0.819117 0.0614473 1.79127e-20)
(-0.835999 0.0606707 3.56718e-20)
(-0.852714 0.0599536 -1.77684e-20)
(-0.869185 0.0592596 0)
(-0.885349 0.0584928 1.7614e-20)
(-0.901132 0.0575452 0)
(-0.916578 0.0563299 1.74581e-20)
(-0.931927 0.0549444 1.74288e-20)
(-0.946942 0.0537486 -3.46912e-20)
(-0.961004 0.0526078 -1.72778e-20)
(-0.974551 0.050796 0)
(-0.987974 0.0487212 3.4165e-20)
(-1.00123 0.0465572 0)
(-1.01459 0.0447632 5.03874e-20)
(-1.02665 0.0439431 3.32495e-20)
(-1.03729 0.0419853 3.30166e-20)
(-1.04818 0.0392343 -3.26183e-20)
(-1.05886 0.0373218 4.83005e-20)
(-1.06842 0.0356784 0)
(-1.0771 0.0334744 0)
(-1.08554 0.031104 -3.10027e-20)
(-1.09327 0.0289731 -4.5845e-20)
(-1.1 0.0264266 0)
(-1.1067 0.0233967 1.48292e-20)
(-1.11366 0.0208507 0)
(-1.12004 0.0190274 -4.29474e-20)
(-1.12543 0.0172039 -1.95346e-23)
(-1.13006 0.0153596 1.33247e-23)
(-1.134 0.0134741 2.69934e-20)
(-1.13727 0.0115559 0)
(-1.13989 0.0096175 -2.58439e-20)
(-1.14186 0.00767055 1.07591e-23)
(-1.1432 0.00572648 0)
(-1.14389 0.00379682 0)
(-1.14394 0.00189423 0)
(-1.14335 3.18807e-05 2.26841e-20)
(-1.14207 -0.00180314 0)
(-1.14006 -0.00363123 0)
(-1.13731 -0.00544689 0)
(-1.13382 -0.00724754 0)
(-1.12958 -0.00903085 0)
(-1.12457 -0.0107945 1.84876e-20)
(-1.1188 -0.0125361 0)
(-1.11225 -0.0142531 1.68788e-20)
(-1.10494 -0.0159432 1.60932e-20)
(-1.09685 -0.0176037 -1.52949e-20)
(-1.08798 -0.0192325 0)
(-1.07834 -0.0208271 -1.36613e-20)
(-1.06794 -0.0223853 0)
(-1.05676 -0.0239051 -1.19809e-20)
(-1.04483 -0.0253845 1.11242e-20)
(-1.03213 -0.0268215 3.10533e-20)
(-1.01869 -0.0282143 0)
(-1.00451 -0.0295613 2.57863e-20)
(-0.989589 -0.0308609 7.91466e-21)
(-0.973952 -0.0321118 0)
(-0.957605 -0.0333126 1.19053e-20)
(-0.94056 -0.0344623 1.0079e-20)
(-0.922831 -0.03556 -1.21809e-20)
(-0.904432 -0.0366048 0)
(-0.885379 -0.037596 -2.07554e-21)
(-0.865688 -0.0385331 -1.13566e-21)
(-0.845375 -0.0394154 -9.67678e-22)
(-0.82446 -0.0402426 0)
(-0.802959 -0.0410146 0)
(-0.780893 -0.0417313 0)
(-0.758281 -0.042393 3.1872e-21)
(-0.735143 -0.0429998 0)
(-0.711502 -0.0435522 0)
(-0.687377 -0.0440505 -6.46054e-21)
(-0.662791 -0.0444953 -7.40918e-21)
(-0.637766 -0.0448873 0)
(-0.612324 -0.0452274 0)
(-0.586488 -0.0455165 -2.04743e-20)
(-0.56028 -0.0457557 0)
(-0.533724 -0.0459462 2.42016e-20)
(-0.506842 -0.046089 2.55932e-20)
(-0.479657 -0.0461856 0)
(-0.452192 -0.0462374 0)
(-0.424469 -0.0462459 -3.10496e-20)
(-0.396511 -0.0462127 -4.56765e-22)
(-0.368339 -0.0461393 -4.56109e-22)
(-0.339974 -0.0460275 0)
(-0.311439 -0.0458791 -7.66479e-20)
(-0.282754 -0.0456956 0)
(-0.253939 -0.0454789 0)
(-0.225014 -0.0452309 0)
(-0.195998 -0.0449532 4.5271e-20)
(-0.166909 -0.0446477 0)
(-0.137765 -0.044316 -9.61102e-20)
(-0.108583 -0.0439601 -5.00671e-20)
(-0.0793793 -0.0435815 0)
(-0.0501695 -0.0431828 -5.3138e-20)
(-0.0209682 -0.0427673 0)
(0.00821051 -0.0423412 0)
(0.0373517 -0.0419139 -1.70227e-19)
(0.0664291 -0.0414986 1.15205e-19)
(0.0953691 -0.0410962 0)
(0.124199 -0.0405594 1.19028e-19)
(0.152807 -0.039938 -6.10121e-20)
(0.181781 -0.0393699 0)
(0.210572 -0.0388575 0)
(0.239056 -0.0384305 0)
(0.267584 -0.0378629 -1.93161e-19)
(0.295376 -0.0372046 0)
(0.323717 -0.0368051 -6.58817e-20)
(0.351908 -0.0362275 0)
(0.37996 -0.0356671 0)
(0.408262 -0.0353835 0)
(0.43614 -0.0350816 0)
(0.464219 -0.0344695 0)
(0.491811 -0.0337587 0)
(0.51975 -0.0334898 -1.40354e-19)
(0.547315 -0.0331059 0)
(0.574567 -0.0326329 -7.16589e-20)
(0.601823 -0.0318841 2.15814e-19)
(0.628306 -0.0308927 0)
(0.654707 -0.0297359 0)
(0.679739 -0.0276873 -1.46116e-19)
(0.703576 -0.0239396 -1.47709e-19)
(0.726639 -0.0171709 1.472e-19)
(0.743595 -0.00398745 1.50789e-19)
(-0.00155357 -0.0143935 -8.65122e-20)
(-0.0077941 -0.00285287 -7.99169e-20)
(-0.0150156 0.0100016 -4.72635e-20)
(-0.0226829 0.0212865 -2.14467e-20)
(-0.0308285 0.031269 0)
(-0.0392823 0.0400382 3.81325e-20)
(-0.048043 0.0476367 -1.83329e-20)
(-0.0571694 0.0541225 0)
(-0.0667117 0.059595 -1.73003e-20)
(-0.0766933 0.0641892 0)
(-0.0871108 0.0680555 3.29655e-20)
(-0.0979405 0.0713377 0)
(-0.109147 0.0741596 1.57765e-20)
(-0.120692 0.0766189 3.08865e-20)
(-0.132536 0.0787892 -3.02444e-20)
(-0.144647 0.0807233 0)
(-0.156995 0.0824587 -2.90258e-20)
(-0.169558 0.0840224 0)
(-0.182315 0.0854339 0)
(-0.195251 0.0867084 -2.73461e-20)
(-0.208354 0.0878578 0)
(-0.221615 0.0888924 4.97204e-24)
(-0.235024 0.089821 0)
(-0.248576 0.0906516 0)
(-0.262266 0.0913913 -4.77601e-24)
(-0.276089 0.0920468 -2.44548e-20)
(-0.290042 0.092624 -2.40226e-20)
(-0.304121 0.0931285 -2.36148e-20)
(-0.318324 0.0935652 0)
(-0.332649 0.0939383 -4.56556e-20)
(-0.347093 0.0942519 0)
(-0.361654 0.0945093 -2.20927e-20)
(-0.376328 0.0947132 0)
(-0.391114 0.0948661 0)
(-0.406009 0.0949699 2.10862e-20)
(-0.421009 0.095026 0)
(-0.43611 0.0950353 -2.04725e-20)
(-0.45131 0.0949987 -9.24508e-24)
(-0.466602 0.0949163 3.98124e-20)
(-0.481984 0.0947882 -3.92622e-20)
(-0.497448 0.0946141 0)
(-0.512989 0.0943935 0)
(-0.528601 0.0941256 -1.88671e-20)
(-0.544276 0.0938093 0)
(-0.560007 0.0934435 -1.84335e-20)
(-0.575786 0.0930271 1.82188e-20)
(-0.591603 0.0925591 1.80125e-20)
(-0.60745 0.0920391 0)
(-0.623316 0.0914669 -1.76249e-20)
(-0.63919 0.0908428 -1.74431e-20)
(-0.65506 0.0901669 3.45152e-20)
(-0.670911 0.0894383 -1.71028e-20)