/*--------------------------------*- C++ -*----------------------------------*\
  =========                 |
  \\      /  F ield         | OpenFOAM: The Open Source CFD Toolbox
   \\    /   O peration     | Website:  https://openfoam.org
    \\  /    A nd           | Version:  7
     \\/     M anipulation  |
\*---------------------------------------------------------------------------*/
FoamFile
{
    version     2.0;
    format      ascii;
    class       volScalarField;
    location    "0.089";
    object      p;
}
// * * * * * * * * * * * * * * * * * * * * * * * * * * * * * * * * * * * * * //

dimensions      [0 2 -2 0 0 0 0];

internalField   nonuniform List<scalar> 
12225
(
396.918
396.831
394.469
391.46
388.361
385.276
382.226
379.209
376.237
373.332
370.501
367.735
365.014
362.318
359.619
356.884
354.002
350.782
397.756
396.904
394.482
391.473
388.365
385.276
382.224
379.208
376.237
373.334
370.505
367.742
365.025
362.333
359.641
356.919
354.083
351.02
398.737
397.01
394.496
391.493
388.378
385.281
382.226
379.21
376.243
373.344
370.517
367.757
365.044
362.359
359.681
356.986
354.223
351.332
399.628
397.214
394.557
391.535
388.408
385.3
382.238
379.222
376.258
373.361
370.537
367.78
365.073
362.4
359.746
357.09
354.407
351.692
399.915
397.441
394.635
391.587
388.449
385.328
382.256
379.238
376.276
373.383
370.563
367.812
365.116
362.46
359.835
357.227
354.632
352.076
400.673
397.737
394.744
391.652
388.504
385.371
382.288
379.265
376.305
373.415
370.601
367.857
365.175
362.542
359.951
357.399
354.893
352.472
402.581
398.078
394.873
391.739
388.578
385.428
382.332
379.302
376.341
373.456
370.648
367.915
365.25
362.643
360.092
357.599
355.178
352.865
403.267
398.308
395.003
391.84
388.668
385.504
382.391
379.351
376.389
373.506
370.707
367.987
365.342
362.765
360.256
357.822
355.478
353.253
403.001
398.386
395.16
391.975
388.777
385.593
382.463
379.412
376.447
373.569
370.779
368.075
365.452
362.907
360.442
358.065
355.789
353.636
400.177
398.287
395.302
392.128
388.914
385.708
382.556
379.49
376.518
373.643
370.862
368.175
365.577
363.066
360.645
358.321
356.105
354.011
400.431
398.38
395.519
392.334
389.077
385.838
382.662
379.58
376.603
373.73
370.96
368.29
365.717
363.24
360.862
358.587
356.424
354.381
400.47
398.607
395.799
392.577
389.267
385.985
382.777
379.674
376.688
373.817
371.057
368.405
365.857
363.411
361.069
358.836
356.716
354.713
400.66
398.995
396.159
392.864
389.482
386.149
382.905
379.779
376.783
373.913
371.163
368.527
366.002
363.587
361.281
359.087
357.006
355.039
402.022
399.802
396.761
393.3
389.785
386.36
383.06
379.902
376.893
374.024
371.287
368.674
366.18
363.8
361.533
359.378
357.336
355.405
403.68
401.105
397.648
393.882
390.168
386.619
383.246
380.048
377.022
374.153
371.427
368.837
366.374
364.032
361.807
359.696
357.696
355.804
406.224
403.211
398.969
394.681
390.65
386.908
383.426
380.179
377.137
374.274
371.571
369.014
366.59
364.291
362.111
360.044
358.087
356.235
414.875
407.013
400.748
395.563
391.091
387.129
383.547
380.26
377.21
374.361
371.686
369.166
366.788
364.538
362.409
360.394
358.487
356.68
421.778
409.733
401.883
395.988
391.181
387.063
383.421
380.135
377.121
374.324
371.71
369.256
366.944
364.759
362.692
360.735
358.882
357.125
416.418
407.41
400.284
394.716
390.112
386.18
382.712
379.58
376.706
374.034
371.531
369.178
366.96
364.862
362.874
360.991
359.204
357.509
407.602
401.079
395.956
391.661
387.913
384.558
381.498
378.671
376.03
373.545
371.196
368.972
366.861
364.855
362.947
361.133
359.407
357.765
400.185
395.583
391.932
388.748
385.757
382.933
380.266
377.733
375.316
373.004
370.793
368.682
366.666
364.739
362.899
361.143
359.469
357.872
389.466
389.516
388.108
386.087
383.851
381.551
379.253
376.985
374.764
372.6
370.502
368.48
366.536
364.67
362.88
361.165
359.525
357.957
383.907
385.58
385.29
384.016
382.301
380.372
378.345
376.283
374.219
372.181
370.18
368.243
366.366
364.555
362.81
361.134
359.528
357.99
380.506
383.019
383.302
382.525
381.199
379.562
377.752
375.844
373.888
371.929
370.003
368.111
366.275
364.498
362.782
361.13
359.543
358.021
379.094
381.554
382.01
381.456
380.354
378.907
377.24
375.443
373.57
371.694
369.822
367.979
366.179
364.43
362.739
361.108
359.538
358.032
380.26
380.844
381.194
380.788
379.851
378.537
376.968
375.237
373.427
371.572
369.728
367.91
366.131
364.4
362.723
361.104
359.544
358.046
378.714
380.224
380.619
380.305
379.477
378.243
376.73
375.05
373.281
371.466
369.648
367.85
366.088
364.37
362.705
361.095
359.543
358.051
378.008
379.885
380.298
380.053
379.3
378.105
376.622
374.965
373.214
371.416
369.61
367.822
366.069
364.361
362.702
361.096
359.547
358.057
378.521
379.682
380.068
379.909
379.184
378.004
376.54
374.905
373.171
371.384
369.584
367.801
366.055
364.353
362.701
361.1
359.553
358.063
379.139
379.621
379.99
379.873
379.149
377.972
376.517
374.889
373.159
371.376
369.579
367.799
366.054
364.353
362.701
361.1
359.552
358.063
317.754
317.738
317.699
317.639
317.558
317.459
317.344
317.217
317.081
316.94
316.798
316.656
316.513
316.371
316.227
316.08
315.926
315.763
315.588
315.399
315.196
314.979
314.746
314.498
314.236
313.962
313.676
313.382
313.082
312.782
312.484
312.192
311.909
311.637
311.378
311.132
310.9
310.68
310.475
310.278
310.081
309.865
309.623
309.381
309.146
308.851
308.486
308.039
307.508
306.932
306.332
305.671
304.919
304.067
303.137
302.151
301.107
300.004
298.834
297.583
296.255
294.892
293.612
292.507
291.629
290.987
290.534
290.17
289.623
288.87
287.969
287.069
286.255
285.427
284.591
283.641
282.625
281.753
280.569
278.686
276.387
273.923
271.446
269.026
266.698
264.477
262.369
260.377
258.507
256.761
255.145
253.662
252.313
251.097
250.013
249.051
248.203
247.454
246.792
246.199
245.662
245.165
244.695
244.239
243.785
243.321
242.838
242.324
241.77
241.169
240.512
239.793
239.008
238.152
237.223
236.222
235.149
234.008
232.802
231.537
230.217
228.85
227.44
225.994
224.517
223.013
221.485
219.934
218.361
216.764
215.144
213.499
211.83
210.138
208.425
206.696
204.953
203.201
201.441
199.676
197.907
196.132
194.352
192.565
190.77
188.966
187.149
185.322
183.485
181.639
179.785
177.922
176.05
174.167
172.27
170.359
168.432
166.488
164.528
162.551
160.556
158.543
156.513
154.465
152.399
150.316
148.216
146.099
143.964
141.813
139.646
137.462
135.263
133.049
130.822
128.584
126.337
124.084
121.839
119.595
317.832
317.825
317.786
317.717
317.621
317.504
317.372
317.229
317.08
316.93
316.781
316.637
316.497
316.361
316.224
316.085
315.94
315.784
315.616
315.434
315.236
315.019
314.78
314.519
314.244
313.959
313.669
313.372
313.072
312.77
312.469
312.173
311.886
311.61
311.348
311.104
310.875
310.664
310.474
310.298
310.124
309.936
309.671
309.385
309.156
308.816
308.453
308.057
307.584
307.04
306.44
305.78
305.022
304.151
303.174
302.142
301.072
299.959
298.772
297.479
296.083
294.659
293.32
292.172
291.275
290.608
290.168
289.938
289.544
288.836
287.928
287.071
286.271
285.336
284.426
283.716
282.648
281.44
279.963
277.978
275.698
273.306
270.92
268.588
266.335
264.171
262.105
260.143
258.293
256.562
254.957
253.485
252.149
250.949
249.878
248.93
248.095
247.358
246.706
246.124
245.596
245.107
244.645
244.195
243.747
243.289
242.81
242.301
241.753
241.156
240.503
239.788
239.006
238.152
237.224
236.223
235.15
234.007
232.798
231.53
230.208
228.837
227.424
225.976
224.496
222.99
221.461
219.91
218.338
216.744
215.126
213.484
211.817
210.127
208.416
206.688
204.946
203.194
201.434
199.668
197.898
196.123
194.344
192.558
190.763
188.959
187.144
185.318
183.482
181.637
179.784
177.923
176.052
174.168
172.272
170.361
168.433
166.49
164.529
162.552
160.557
158.544
156.513
154.465
152.4
150.317
148.216
146.099
143.964
141.813
139.645
137.461
135.262
133.048
130.82
128.581
126.332
124.077
121.828
119.575
317.97
317.968
317.922
317.825
317.687
317.522
317.346
317.169
316.997
316.833
316.677
316.534
316.402
316.277
316.158
316.043
315.925
315.791
315.638
315.47
315.287
315.081
314.851
314.597
314.321
314.021
313.7
313.364
313.022
312.684
312.355
312.038
311.738
311.456
311.195
310.952
310.735
310.546
310.378
310.212
310.067
309.949
309.781
309.534
309.238
308.898
308.523
308.242
307.77
307.188
306.516
305.79
305.044
304.246
303.365
302.364
301.26
300.059
298.755
297.344
295.843
294.347
292.964
291.781
290.866
290.208
289.768
289.587
289.378
288.807
287.976
287.146
286.281
285.308
284.25
283.203
281.976
280.467
278.689
276.68
274.543
272.346
270.141
267.957
265.814
263.728
261.714
259.787
257.959
256.243
254.652
253.192
251.869
250.684
249.631
248.704
247.889
247.173
246.542
245.978
245.467
244.993
244.544
244.107
243.67
243.222
242.753
242.255
241.716
241.128
240.483
239.775
238.998
238.148
237.223
236.222
235.147
234.001
232.789
231.515
230.187
228.81
227.391
225.936
224.452
222.943
221.412
219.861
218.29
216.7
215.087
213.449
211.787
210.1
208.393
206.667
204.927
203.176
201.417
199.653
197.883
196.11
194.33
192.545
190.752
188.949
187.137
185.314
183.482
181.64
179.79
177.929
176.057
174.174
172.276
170.365
168.437
166.493
164.532
162.554
160.559
158.546
156.515
154.467
152.401
150.317
148.217
146.099
143.964
141.812
139.644
137.459
135.259
133.044
130.815
128.573
126.322
124.061
121.803
119.537
318.082
318.04
317.936
317.774
317.576
317.36
317.145
316.943
316.759
316.598
316.446
316.335
316.237
316.135
316.036
315.943
315.838
315.717
315.591
315.462
315.311
315.105
314.835
314.517
314.176
313.824
313.464
313.095
312.723
312.355
311.999
311.661
311.346
311.057
310.798
310.571
310.372
310.196
310.039
309.904
309.788
309.662
309.486
309.264
309.013
308.733
308.431
308.107
307.693
307.175
306.562
305.878
305.134
304.289
303.292
302.143
300.934
299.725
298.469
297.107
295.616
294.119
292.762
291.616
290.744
290.149
289.718
289.483
289.326
288.866
288.105
287.342
286.496
285.381
284.094
282.648
281.044
279.294
277.423
275.462
273.443
271.391
269.323
267.254
265.201
263.179
261.209
259.309
257.5
255.798
254.219
252.774
251.47
250.307
249.28
248.381
247.596
246.911
246.308
245.771
245.284
244.831
244.401
243.98
243.558
243.126
242.672
242.187
241.662
241.087
240.455
239.757
238.989
238.145
237.223
236.222
235.145
233.995
232.776
231.494
230.157
228.77
227.342
225.88
224.388
222.873
221.338
219.786
218.218
216.633
215.027
213.397
211.742
210.062
208.359
206.636
204.898
203.15
201.393
199.631
197.863
196.091
194.313
192.53
190.738
188.938
187.129
185.309
183.48
181.64
179.791
177.931
176.06
174.177
172.28
170.368
168.441
166.497
164.536
162.557
160.561
158.548
156.517
154.468
152.402
150.318
148.217
146.099
143.964
141.811
139.642
137.457
135.256
133.039
130.808
128.563
126.308
124.042
121.773
119.491
318.209
318.103
317.914
317.703
317.475
317.236
317.005
316.788
316.58
316.389
316.261
316.165
316.073
315.979
315.897
315.832
315.744
315.623
315.472
315.295
315.086
314.831
314.525
314.17
313.779
313.365
312.939
312.51
312.086
311.675
311.286
310.926
310.6
310.31
310.059
309.844
309.667
309.52
309.396
309.295
309.206
309.111
308.986
308.826
308.632
308.405
308.138
307.82
307.429
306.953
306.392
305.749
305.022
304.172
303.143
301.911
300.584
299.254
297.968
296.692
295.388
294.119
292.951
291.908
291.088
290.488
289.999
289.583
289.186
288.64
288.004
287.376
286.442
285.124
283.562
281.819
279.99
278.135
276.26
274.362
272.442
270.496
268.524
266.533
264.535
262.551
260.604
258.718
256.917
255.224
253.657
252.229
250.948
249.814
248.822
247.962
247.218
246.573
246.009
245.506
245.05
244.624
244.217
243.817
243.415
243
242.564
242.098
241.59
241.033
240.416
239.733
238.975
238.138
237.221
236.221
235.141
233.985
232.757
231.465
230.116
228.718
227.278
225.804
224.302
222.778
221.238
219.684
218.118
216.539
214.941
213.321
211.676
210.006
208.311
206.594
204.86
203.114
201.36
199.6
197.835
196.065
194.291
192.51
190.722
188.925
187.118
185.302
183.475
181.639
179.792
177.934
176.064
174.182
172.285
170.373
168.445
166.501
164.54
162.561
160.565
158.551
156.52
154.471
152.404
150.32
148.218
146.1
143.964
141.811
139.641
137.454
135.252
133.033
130.8
128.553
126.293
124.021
121.74
119.443
318.377
318.259
318.083
317.88
317.651
317.402
317.154
316.915
316.686
316.479
316.326
316.211
316.094
315.976
315.862
315.741
315.601
315.432
315.227
314.98
314.685
314.342
313.952
313.52
313.054
312.566
312.068
311.573
311.093
310.639
310.22
309.843
309.513
309.233
309.001
308.815
308.67
308.559
308.478
308.419
308.368
308.311
308.236
308.135
308
307.824
307.599
307.312
306.952
306.51
305.984
305.366
304.652
303.786
302.694
301.326
299.867
298.489
297.268
296.186
295.19
294.237
293.32
292.458
291.67
290.976
290.327
289.652
288.937
288.221
287.571
286.89
285.819
284.352
282.626
280.776
278.906
277.055
275.224
273.396
271.552
269.674
267.755
265.798
263.82
261.843
259.896
258.009
256.21
254.524
252.97
251.564
250.314
249.219
248.273
247.464
246.772
246.178
245.66
245.199
244.778
244.383
244.002
243.624
243.243
242.848
242.432
241.986
241.5
240.962
240.364
239.697
238.952
238.125
237.212
236.213
235.129
233.966
232.729
231.426
230.064
228.653
227.199
225.712
224.198
222.664
221.116
219.558
217.993
216.418
214.83
213.221
211.588
209.927
208.241
206.533
204.808
203.069
201.319
199.562
197.801
196.035
194.264
192.486
190.702
188.909
187.106
185.294
183.471
181.637
179.792
177.936
176.067
174.186
172.289
170.378
168.45
166.506
164.544
162.565
160.569
158.555
156.523
154.473
152.406
150.322
148.219
146.1
143.963
141.81
139.639
137.451
135.247
133.027
130.791
128.541
126.276
123.997
121.706
119.396
318.824
318.721
318.568
318.376
318.147
317.891
317.631
317.372
317.118
316.884
316.677
316.492
316.314
316.134
315.943
315.733
315.495
315.222
314.906
314.54
314.123
313.655
313.143
312.595
312.025
311.443
310.865
310.302
309.769
309.277
308.836
308.454
308.135
307.879
307.678
307.532
307.433
307.373
307.346
307.34
307.345
307.348
307.34
307.308
307.239
307.12
306.935
306.675
306.331
305.898
305.372
304.743
304.002
303.084
301.908
300.419
298.901
297.575
296.496
295.634
294.877
294.143
293.401
292.645
291.881
291.135
290.358
289.485
288.555
287.688
286.899
286.139
284.877
283.311
281.548
279.71
277.881
276.086
274.318
272.55
270.747
268.888
266.974
265.013
263.025
261.037
259.079
257.185
255.385
253.705
252.17
250.792
249.581
248.535
247.649
246.902
246.273
245.739
245.276
244.863
244.481
244.117
243.761
243.405
243.044
242.669
242.274
241.849
241.384
240.869
240.292
239.643
238.913
238.096
237.188
236.189
235.103
233.932
232.686
231.371
229.997
228.572
227.106
225.607
224.081
222.537
220.98
219.416
217.848
216.276
214.695
213.098
211.477
209.829
208.153
206.453
204.735
203.005
201.264
199.514
197.758
195.997
194.231
192.458
190.679
188.89
187.092
185.284
183.464
181.634
179.791
177.937
176.07
174.189
172.294
170.383
168.456
166.511
164.55
162.57
160.573
158.559
156.526
154.476
152.409
150.324
148.221
146.101
143.964
141.809
139.637
137.448
135.243
133.021
130.782
128.528
126.259
123.973
121.672
119.349
319.638
319.555
319.414
319.226
318.996
318.734
318.455
318.173
317.893
317.618
317.346
317.073
316.793
316.499
316.182
315.834
315.447
315.017
314.54
314.013
313.437
312.818
312.163
311.484
310.794
310.107
309.44
308.806
308.221
307.695
307.237
306.852
306.543
306.306
306.137
306.032
305.983
305.977
306.004
306.052
306.112
306.177
306.24
306.289
306.307
306.27
306.154
305.944
305.631
305.211
304.68
304.03
303.232
302.247
300.969
299.379
297.865
296.67
295.799
295.146
294.576
293.984
293.329
292.614
291.872
291.086
290.188
289.173
288.163
287.218
286.302
285.251
283.898
282.289
280.536
278.741
276.97
275.236
273.52
271.777
269.975
268.104
266.168
264.185
262.177
260.171
258.197
256.288
254.478
252.799
251.276
249.927
248.759
247.772
246.952
246.279
245.727
245.265
244.866
244.505
244.164
243.832
243.501
243.166
242.822
242.466
242.09
241.687
241.245
240.753
240.197
239.567
238.852
238.046
237.143
236.145
235.055
233.877
232.621
231.294
229.908
228.471
226.993
225.482
223.947
222.394
220.829
219.259
217.688
216.116
214.54
212.95
211.341
209.706
208.044
206.356
204.647
202.924
201.192
199.452
197.705
195.952
194.192
192.426
190.652
188.869
187.076
185.272
183.457
181.63
179.79
177.938
176.073
174.194
172.299
170.389
168.462
166.517
164.555
162.576
160.578
158.563
156.53
154.48
152.412
150.326
148.223
146.102
143.964
141.808
139.635
137.445
135.238
133.014
130.773
128.515
126.241
123.949
121.639
119.305
320.748
320.682
320.559
320.389
320.177
319.925
319.644
319.335
319.002
318.648
318.277
317.886
317.469
317.023
316.541
316.017
315.447
314.83
314.166
313.455
312.703
311.917
311.108
310.288
309.471
308.673
307.914
307.211
306.577
306.022
305.552
305.169
304.875
304.678
304.573
304.539
304.555
304.604
304.668
304.738
304.813
304.899
305
305.11
305.212
305.275
305.26
305.133
304.88
304.499
303.989
303.345
302.535
301.56
300.265
298.705
297.288
296.279
295.558
295.007
294.508
293.94
293.286
292.572
291.808
290.946
289.951
288.895
287.855
286.84
285.781
284.548
283.082
281.428
279.678
277.915
276.19
274.502
272.809
271.06
269.236
267.338
265.376
263.365
261.326
259.285
257.273
255.328
253.49
251.796
250.278
248.956
247.838
246.92
246.184
245.603
245.142
244.765
244.439
244.136
243.84
243.538
243.228
242.909
242.579
242.238
241.881
241.498
241.08
240.612
240.08
239.47
238.77
237.974
237.077
236.078
234.983
233.797
232.53
231.191
229.792
228.343
226.853
225.333
223.789
222.229
220.659
219.085
217.51
215.938
214.365
212.783
211.183
209.558
207.908
206.234
204.54
202.83
201.107
199.376
197.639
195.896
194.147
192.388
190.621
188.845
187.058
185.26
183.449
181.625
179.789
177.939
176.076
174.198
172.305
170.395
168.468
166.524
164.562
162.582
160.584
158.568
156.535
154.484
152.415
150.329
148.225
146.103
143.964
141.808
139.634
137.442
135.233
133.007
130.763
128.502
126.223
123.925
121.606
119.263
321.964
321.912
321.81
321.657
321.455
321.207
320.912
320.573
320.19
319.764
319.295
318.781
318.22
317.611
316.951
316.24
315.48
314.67
313.817
312.924
311.999
311.053
310.098
309.145
308.21
307.309
306.459
305.679
304.987
304.398
303.923
303.57
303.342
303.221
303.192
303.234
303.326
303.443
303.566
303.676
303.764
303.827
303.883
303.963
304.083
304.22
304.314
304.302
304.147
303.843
303.399
302.811
302.072
301.174
300.035
298.616
297.371
296.523
295.864
295.33
294.744
294.108
293.406
292.658
291.831
290.889
289.859
288.803
287.744
286.657
285.45
284.06
282.48
280.767
278.997
277.244
275.543
273.877
272.18
270.407
268.551
266.62
264.621
262.565
260.472
258.367
256.289
254.284
252.399
250.682
249.168
247.879
246.822
245.988
245.353
244.882
244.531
244.254
244.011
243.773
243.52
243.246
242.952
242.641
242.32
241.989
241.646
241.282
240.887
240.443
239.934
239.344
238.661
237.875
236.982
235.982
234.881
233.686
232.408
231.057
229.645
228.183
226.683
225.153
223.603
222.038
220.465
218.888
217.312
215.74
214.17
212.594
211.003
209.39
207.751
206.09
204.41
202.715
201.007
199.289
197.563
195.831
194.093
192.345
190.587
188.818
187.038
185.245
183.44
181.62
179.787
177.94
176.079
174.203
172.311
170.402
168.476
166.531
164.569
162.589
160.59
158.574
156.54
154.488
152.419
150.332
148.227
146.105
143.965
141.807
139.632
137.439
135.229
133
130.753
128.488
126.205
123.901
121.575
119.224
323.24
323.193
323.099
322.957
322.763
322.511
322.198
321.822
321.383
320.879
320.308
319.672
318.969
318.201
317.372
316.488
315.554
314.577
313.564
312.521
311.455
310.371
309.278
308.189
307.114
306.067
305.066
304.136
303.304
302.599
302.051
301.672
301.465
301.389
301.446
301.619
301.873
302.172
302.473
302.74
302.939
303.052
303.093
303.11
303.163
303.287
303.446
303.547
303.513
303.32
302.976
302.489
301.865
301.096
300.166
299.011
298.016
297.226
296.553
295.906
295.223
294.489
293.733
292.922
292.023
291.042
290.016
288.964
287.866
286.667
285.312
283.774
282.087
280.304
278.492
276.724
275.023
273.357
271.638
269.83
267.936
265.961
263.908
261.785
259.61
257.415
255.246
253.158
251.21
249.457
247.941
246.689
245.704
244.966
244.45
244.109
243.889
243.731
243.586
243.419
243.213
242.963
242.677
242.368
242.048
241.722
241.389
241.042
240.667
240.245
239.758
239.188
238.52
237.742
236.852
235.851
234.743
233.539
232.249
230.885
229.461
227.988
226.477
224.94
223.384
221.816
220.241
218.665
217.09
215.52
213.953
212.381
210.799
209.197
207.572
205.925
204.26
202.582
200.891
199.189
197.477
195.758
194.031
192.295
190.548
188.789
187.016
185.23
183.43
181.615
179.786
177.942
176.083
174.208
172.317
170.409
168.484
166.539
164.577
162.596
160.597
158.581
156.546
154.493
152.423
150.335
148.229
146.106
143.966
141.807
139.631
137.436
135.224
132.993
130.744
128.475
126.187
123.878
121.546
119.187
324.503
324.462
324.374
324.237
324.04
323.778
323.442
323.027
322.53
321.947
321.279
320.526
319.693
318.786
317.816
316.794
315.729
314.628
313.494
312.328
311.128
309.892
308.621
307.32
306.002
304.689
303.415
302.217
301.146
300.247
299.556
299.098
298.86
298.866
299.081
299.46
299.953
300.507
301.069
301.594
302.038
302.361
302.529
302.564
302.564
302.624
302.78
302.959
303.045
302.979
302.752
302.383
301.883
301.261
300.526
299.628
298.853
298.034
297.368
296.618
295.851
295.039
294.242
293.37
292.432
291.452
290.435
289.356
288.171
286.837
285.33
283.665
281.88
280.022
278.152
276.348
274.626
272.941
271.188
269.339
267.399
265.369
263.244
261.032
258.753
256.443
254.155
251.957
249.922
248.119
246.596
245.385
244.475
243.85
243.473
243.285
243.218
243.199
243.167
243.082
242.926
242.696
242.413
242.097
241.771
241.443
241.116
240.78
240.422
240.021
239.554
239
238.344
237.572
236.682
235.677
234.562
233.348
232.047
230.673
229.237
227.754
226.236
224.691
223.132
221.562
219.988
218.413
216.841
215.275
213.712
212.147
210.572
208.982
207.371
205.74
204.092
202.432
200.76
199.077
197.382
195.677
193.963
192.24
190.505
188.756
186.992
185.213
183.419
181.61
179.785
177.945
176.088
174.215
172.325
170.418
168.492
166.548
164.585
162.604
160.605
158.587
156.552
154.499
152.428
150.339
148.232
146.108
143.967
141.807
139.63
137.434
135.22
132.986
130.734
128.462
126.17
123.856
121.518
119.152
325.734
325.695
325.611
325.475
325.275
324.999
324.637
324.18
323.625
322.968
322.212
321.358
320.418
319.404
318.331
317.211
316.053
314.858
313.62
312.33
310.974
309.545
308.037
306.458
304.831
303.197
301.61
300.132
298.83
297.764
296.978
296.492
296.316
296.432
296.804
297.376
298.083
298.855
299.63
300.368
301.048
301.63
302.039
302.225
302.24
302.256
302.378
302.599
302.79
302.843
302.735
302.481
302.099
301.61
301.012
300.328
299.618
298.878
298.18
297.408
296.628
295.834
294.938
294.018
293.072
292.097
291.061
289.908
288.604
287.125
285.481
283.708
281.84
279.909
277.972
276.111
274.349
272.629
270.837
268.942
266.95
264.854
262.644
260.324
257.918
255.466
253.031
250.699
248.565
246.709
245.188
244.053
243.201
242.699
242.476
242.453
242.548
242.678
242.769
242.772
242.665
242.455
242.169
241.842
241.501
241.165
240.836
240.506
240.16
239.774
239.322
238.781
238.131
237.361
236.467
235.455
234.332
233.108
231.798
230.413
228.969
227.478
225.953
224.404
222.843
221.274
219.702
218.131
216.564
215.003
213.447
211.89
210.325
208.746
207.15
205.537
203.909
202.267
200.614
198.952
197.277
195.59
193.89
192.18
190.457
188.72
186.967
185.196
183.409
181.605
179.785
177.948
176.094
174.223
172.334
170.427
168.502
166.558
164.595
162.613
160.613
158.595
156.559
154.505
152.433
150.343
148.236
146.111
143.968
141.808
139.629
137.431
135.215
132.98
130.725
128.45
126.154
123.835
121.491
119.12
326.953
326.916
326.832
326.694
326.486
326.195
325.805
325.309
324.701
323.981
323.151
322.22
321.2
320.11
318.966
317.779
316.552
315.279
313.946
312.53
311.012
309.381
307.634
305.788
303.879
301.962
300.104
298.381
296.871
295.645
294.756
294.233
294.08
294.285
294.809
295.585
296.526
297.535
298.527
299.438
300.258
301.011
301.645
302.029
302.121
302.125
302.226
302.465
302.755
302.912
302.911
302.763
302.488
302.11
301.623
301.065
300.394
299.775
299.012
298.267
297.465
296.632
295.752
294.838
293.898
292.906
291.805
290.551
289.117
287.507
285.738
283.882
281.943
279.947
277.946
276.017
274.19
272.418
270.587
268.644
266.595
264.43
262.126
259.688
257.144
254.54
251.957
249.505
247.292
245.403
243.884
242.742
242.041
241.673
241.587
241.709
241.95
242.217
242.419
242.501
242.437
242.243
241.952
241.609
241.25
240.899
240.562
240.233
239.892
239.515
239.071
238.534
237.883
237.107
236.205
235.183
234.049
232.817
231.498
230.106
228.654
227.157
225.628
224.077
222.515
220.948
219.381
217.816
216.256
214.703
213.155
211.607
210.054
208.49
206.912
205.318
203.711
202.09
200.458
198.816
197.163
195.495
193.813
192.117
190.407
188.682
186.94
185.179
183.399
181.601
179.785
177.952
176.101
174.232
172.344
170.438
168.513
166.568
164.605
162.623
160.622
158.603
156.566
154.511
152.439
150.348
148.24
146.114
143.97
141.808
139.628
137.429
135.212
132.974
130.717
128.439
126.139
123.815
121.467
119.09
328.207
328.169
328.082
327.938
327.719
327.41
326.996
326.464
325.813
325.043
324.158
323.17
322.096
320.955
319.763
318.528
317.25
315.918
314.506
312.987
311.335
309.538
307.598
305.536
303.399
301.252
299.172
297.242
295.547
294.162
293.156
292.572
292.44
292.736
293.405
294.363
295.506
296.722
297.92
298.973
299.876
300.694
301.454
301.987
302.193
302.209
302.3
302.554
302.899
303.148
303.245
303.188
303.003
302.708
302.312
301.838
301.254
300.656
299.916
299.17
298.349
297.51
296.642
295.753
294.815
293.781
292.595
291.227
289.674
287.976
286.055
284.156
282.172
280.126
278.064
276.057
274.149
272.31
270.437
268.449
266.344
264.116
261.727
259.183
256.518
253.79
251.097
248.566
246.311
244.416
242.924
241.85
241.203
240.924
240.937
241.158
241.5
241.867
242.152
242.292
242.258
242.069
241.767
241.406
241.027
240.659
240.311
239.975
239.632
239.254
238.808
238.265
237.603
236.814
235.898
234.862
233.717
232.476
231.149
229.751
228.295
226.795
225.263
223.711
222.151
220.587
219.026
217.469
215.918
214.373
212.835
211.299
209.759
208.213
206.655
205.084
203.499
201.903
200.294
198.673
197.041
195.394
193.731
192.052
190.356
188.643
186.912
185.161
183.389
181.598
179.787
177.958
176.109
174.242
172.355
170.449
168.524
166.579
164.616
162.633
160.632
158.612
156.574
154.519
152.445
150.354
148.244
146.117
143.972
141.809
139.628
137.428
135.208
132.969
130.709
128.428
126.124
123.797
121.445
119.063
329.59
329.547
329.45
329.293
329.058
328.73
328.293
327.735
327.051
326.243
325.32
324.294
323.183
322.007
320.78
319.511
318.193
316.82
315.354
313.767
312.032
310.137
308.083
305.898
303.635
301.367
299.177
297.158
295.391
293.95
292.903
292.301
292.171
292.49
293.193
294.196
295.388
296.655
297.896
299.009
299.946
300.769
301.549
302.155
302.445
302.48
302.564
302.827
303.215
303.539
303.715
303.731
303.613
303.381
303.052
302.633
302.142
301.512
300.895
300.104
299.285
298.452
297.595
296.721
295.767
294.67
293.389
291.905
290.235
288.421
286.498
284.527
282.504
280.428
278.319
276.236
274.237
272.312
270.386
268.363
266.215
263.93
261.482
258.867
256.126
253.326
250.579
248.018
245.757
243.874
242.412
241.385
240.784
240.556
240.62
240.885
241.266
241.674
242.001
242.168
242.14
241.941
241.621
241.238
240.838
240.452
240.089
239.742
239.39
239.001
238.541
237.979
237.295
236.484
235.548
234.496
233.339
232.089
230.755
229.352
227.891
226.388
224.855
223.304
221.746
220.188
218.633
217.085
215.544
214.011
212.484
210.961
209.437
207.909
206.374
204.828
203.271
201.701
200.118
198.522
196.912
195.288
193.645
191.984
190.303
188.604
186.884
185.144
183.38
181.596
179.79
177.965
176.119
174.253
172.368
170.462
168.537
166.592
164.627
162.644
160.642
158.622
156.583
154.527
152.452
150.36
148.249
146.121
143.975
141.811
139.628
137.427
135.205
132.964
130.702
128.418
126.112
123.781
121.424
119.039
331.069
331.018
330.904
330.727
330.471
330.125
329.671
329.097
328.396
327.569
326.625
325.577
324.444
323.245
321.995
320.701
319.36
317.958
316.469
314.865
313.12
311.219
309.165
306.988
304.738
302.49
300.328
298.336
296.594
295.162
294.075
293.478
293.314
293.579
294.211
295.128
296.229
297.395
298.533
299.567
300.445
301.215
301.953
302.551
302.85
302.888
302.969
303.245
303.668
304.04
304.263
304.321
304.243
304.048
303.754
303.366
302.91
302.341
301.74
300.997
300.188
299.362
298.53
297.65
296.658
295.49
294.115
292.534
290.775
288.889
286.925
284.921
282.884
280.802
278.678
276.546
274.46
272.443
270.452
268.4
266.23
263.921
261.455
258.825
256.073
253.273
250.538
247.997
245.761
243.904
242.47
241.468
240.884
240.662
240.723
240.97
241.321
241.701
242.01
242.157
242.103
241.876
241.529
241.122
240.702
240.298
239.919
239.556
239.186
238.777
238.29
237.697
236.982
236.142
235.182
234.112
232.943
231.682
230.341
228.931
227.465
225.958
224.422
222.871
221.316
219.762
218.214
216.675
215.145
213.623
212.109
210.6
209.094
207.587
206.076
204.558
203.03
201.489
199.934
198.365
196.779
195.178
193.557
191.915
190.25
188.565
186.857
185.127
183.373
181.595
179.795
177.973
176.13
174.266
172.382
170.476
168.55
166.605
164.64
162.656
160.653
158.632
156.592
154.535
152.459
150.366
148.254
146.125
143.978
141.813
139.629
137.426
135.203
132.96
130.696
128.409
126.1
123.766
121.406
119.017
332.495
332.444
332.317
332.12
331.844
331.481
331.017
330.438
329.736
328.907
327.958
326.901
325.754
324.537
323.266
321.952
320.594
319.183
317.699
316.118
314.417
312.582
310.616
308.542
306.407
304.273
302.217
300.316
298.648
297.281
296.276
295.588
295.337
295.491
295.981
296.727
297.636
298.607
299.559
300.434
301.196
301.878
302.535
303.061
303.309
303.336
303.427
303.73
304.176
304.567
304.801
304.869
304.802
304.621
304.339
303.968
303.514
302.993
302.375
301.716
300.921
300.115
299.317
298.425
297.392
296.162
294.713
293.06
291.24
289.306
287.309
285.285
283.243
281.173
279.063
276.922
274.786
272.691
270.629
268.545
266.372
264.075
261.633
259.045
256.344
253.604
250.932
248.448
246.257
244.433
243.017
242.02
241.414
241.152
241.161
241.344
241.62
241.922
242.16
242.247
242.142
241.872
241.494
241.065
240.628
240.208
239.813
239.432
239.039
238.599
238.076
237.444
236.692
235.821
234.837
233.748
232.564