/*--------------------------------*- C++ -*----------------------------------*\
  =========                 |
  \\      /  F ield         | OpenFOAM: The Open Source CFD Toolbox
   \\    /   O peration     | Website:  https://openfoam.org
    \\  /    A nd           | Version:  7
     \\/     M anipulation  |
\*---------------------------------------------------------------------------*/
FoamFile
{
    version     2.0;
    format      ascii;
    class       surfaceScalarField;
    location    "0.089";
    object      phi_0;
}
// * * * * * * * * * * * * * * * * * * * * * * * * * * * * * * * * * * * * * //

dimensions      [0 3 -1 0 0 0 0];

internalField   nonuniform List<scalar> 
24170
(
1.37908e-06
2.01279e-07
1.24089e-06
1.38192e-07
1.09782e-06
1.43065e-07
9.73727e-07
1.24097e-07
8.6502e-07
1.08707e-07
7.64955e-07
1.00065e-07
6.69695e-07
9.52603e-08
5.79858e-07
8.98366e-08
4.98019e-07
8.18391e-08
4.25571e-07
7.24481e-08
3.62386e-07
6.31849e-08
3.07499e-07
5.48877e-08
2.58982e-07
4.85169e-08
2.15627e-07
4.33551e-08
1.76688e-07
3.89383e-08
1.40035e-07
3.66532e-08
1.06107e-07
3.39285e-08
2.35688e-08
8.25377e-08
1.65438e-06
2.50812e-07
1.63166e-06
1.60912e-07
1.59977e-06
1.74953e-07
1.56286e-06
1.6101e-07
1.52301e-06
1.48549e-07
1.48067e-06
1.42411e-07
1.43464e-06
1.41284e-07
1.38511e-06
1.39374e-07
1.33471e-06
1.3224e-07
1.28467e-06
1.22482e-07
1.23432e-06
1.13539e-07
1.18048e-06
1.08725e-07
1.12315e-06
1.05847e-07
1.06404e-06
1.02461e-07
1.00623e-06
9.67518e-08
9.52335e-07
9.05497e-08
8.96235e-07
9.0028e-08
8.81768e-08
8.31627e-07
1.78149e-06
3.59702e-07
1.75429e-06
1.8811e-07
1.73954e-06
1.89705e-07
1.72566e-06
1.74885e-07
1.71504e-06
1.59176e-07
1.70641e-06
1.51037e-07
1.69834e-06
1.49358e-07
1.68953e-06
1.4818e-07
1.67898e-06
1.42792e-07
1.66567e-06
1.35796e-07
1.64881e-06
1.3039e-07
1.62812e-06
1.29417e-07
1.60333e-06
1.3064e-07
1.5758e-06
1.29991e-07
1.54564e-06
1.26908e-07
1.514e-06
1.22189e-07
1.48041e-06
1.2362e-07
1.27251e-07
1.44134e-06
1.89666e-06
3.73898e-07
1.85638e-06
2.28387e-07
1.8555e-06
1.90588e-07
1.85887e-06
1.71509e-07
1.86084e-06
1.57212e-07
1.85902e-06
1.52857e-07
1.85372e-06
1.54656e-07
1.84695e-06
1.54948e-07
1.83965e-06
1.50098e-07
1.8319e-06
1.43542e-07
1.82361e-06
1.38684e-07
1.81583e-06
1.3719e-07
1.80867e-06
1.37804e-07
1.8017e-06
1.36962e-07
1.79352e-06
1.35086e-07
1.78287e-06
1.3284e-07
1.77066e-06
1.35832e-07
1.42677e-07
1.75523e-06
2.03171e-06
3.67727e-07
2.01141e-06
2.48689e-07
1.99692e-06
2.05081e-07
1.98708e-06
1.81345e-07
1.98111e-06
1.63187e-07
1.97679e-06
1.5717e-07
1.97299e-06
1.58461e-07
1.96943e-06
1.58509e-07
1.96584e-06
1.53691e-07
1.96219e-06
1.47192e-07
1.95837e-06
1.42497e-07
1.95497e-06
1.40597e-07
1.95213e-06
1.40638e-07
1.94903e-06
1.40067e-07
1.945e-06
1.39109e-07
1.93888e-06
1.38963e-07
1.93243e-06
1.42286e-07
1.49915e-07
1.92519e-06
2.18961e-06
4.38714e-07
2.15999e-06
2.78309e-07
2.14961e-06
2.15465e-07
2.14474e-06
1.8622e-07
2.13955e-06
1.6837e-07
2.13435e-06
1.62369e-07
2.13092e-06
1.61892e-07
2.13013e-06
1.59304e-07
2.13109e-06
1.52733e-07
2.13208e-06
1.46198e-07
2.13131e-06
1.43263e-07
2.12789e-06
1.44021e-07
2.12189e-06
1.46636e-07
2.11336e-06
1.48595e-07
2.10311e-06
1.49361e-07
2.09173e-06
1.50349e-07
2.08113e-06
1.52877e-07
1.58715e-07
2.07233e-06
2.37855e-06
4.51101e-07
2.34223e-06
3.14634e-07
2.32298e-06
2.3471e-07
2.32091e-06
1.88289e-07
2.31898e-06
1.70306e-07
2.31147e-06
1.6988e-07
2.30103e-06
1.72329e-07
2.2921e-06
1.68231e-07
2.28707e-06
1.5777e-07
2.28581e-06
1.47458e-07
2.28666e-06
1.42408e-07
2.28776e-06
1.42918e-07
2.28791e-06
1.46489e-07
2.28622e-06
1.50284e-07
2.28241e-06
1.53176e-07
2.27684e-06
1.55912e-07
2.27015e-06
1.59572e-07
1.65024e-07
2.26384e-06
2.56408e-06
4.17453e-07
2.55516e-06
3.23561e-07
2.5416e-06
2.48265e-07
2.52052e-06
2.09373e-07
2.49115e-06
1.99676e-07
2.4639e-06
1.97127e-07
2.44529e-06
1.90944e-07
2.43561e-06
1.77905e-07
2.43293e-06
1.60452e-07
2.43538e-06
1.45005e-07
2.44161e-06
1.36178e-07
2.45043e-06
1.34105e-07
2.46058e-06
1.3633e-07
2.47055e-06
1.40317e-07
2.47875e-06
1.44976e-07
2.48427e-06
1.50394e-07
2.48662e-06
1.57219e-07
1.65243e-07
2.4864e-06
2.722e-06
4.02006e-07
2.7071e-06
3.38461e-07
2.69467e-06
2.60702e-07
2.69136e-06
2.12682e-07
2.68704e-06
2.0399e-07
2.68029e-06
2.03885e-07
2.6749e-06
1.96329e-07
2.67232e-06
1.80482e-07
2.67133e-06
1.61445e-07
2.67078e-06
1.45557e-07
2.67061e-06
1.3635e-07
2.67108e-06
1.33631e-07
2.67214e-06
1.35273e-07
2.67317e-06
1.39291e-07
2.67372e-06
1.44422e-07
2.67356e-06
1.50551e-07
2.6734e-06
1.5738e-07
1.65052e-07
2.67359e-06
2.89568e-06
4.3034e-07
2.90605e-06
3.28086e-07
2.90041e-06
2.66344e-07
2.88738e-06
2.25715e-07
2.87761e-06
2.13758e-07
2.87569e-06
2.05808e-07
2.88009e-06
1.9192e-07
2.88668e-06
1.73898e-07
2.89282e-06
1.55307e-07
2.89792e-06
1.40458e-07
2.90162e-06
1.32651e-07
2.90292e-06
1.32331e-07
2.90086e-06
1.37327e-07
2.89549e-06
1.44665e-07
2.88823e-06
1.51683e-07
2.88117e-06
1.57609e-07
2.87652e-06
1.62026e-07
1.65986e-07
2.87559e-06
3.11973e-06
3.60179e-07
3.12075e-06
3.27066e-07
3.10353e-06
2.83568e-07
3.08934e-06
2.39903e-07
3.08514e-06
2.17959e-07
3.08901e-06
2.01936e-07
3.09726e-06
1.83672e-07
3.10789e-06
1.63266e-07
3.12005e-06
1.43152e-07
3.13277e-06
1.27736e-07
3.14446e-06
1.20963e-07
3.1532e-06
1.23588e-07
3.15768e-06
1.3285e-07
3.15772e-06
1.44626e-07
3.15434e-06
1.5506e-07
3.14951e-06
1.62435e-07
3.14494e-06
1.66602e-07
1.6834e-07
3.14258e-06
2.85124e-06
3.49744e-07
2.84579e-06
3.32512e-07
2.83188e-06
2.97479e-07
2.81744e-06
2.54345e-07
2.80787e-06
2.2753e-07
2.80217e-06
2.07634e-07
2.80012e-06
1.85723e-07
2.80169e-06
1.61697e-07
2.80542e-06
1.39419e-07
2.80989e-06
1.23262e-07
2.815e-06
1.15853e-07
2.82117e-06
1.17419e-07
2.82848e-06
1.25547e-07
2.83598e-06
1.37126e-07
2.84247e-06
1.48567e-07
2.84692e-06
1.57985e-07
2.84912e-06
1.644e-07
1.67748e-07
2.84971e-06
3.44544e-06
3.53128e-07
3.4776e-06
3.00352e-07
3.50223e-06
2.72845e-07
3.50204e-06
2.54537e-07
3.48668e-06
2.42887e-07
3.46987e-06
2.24445e-07
3.45842e-06
1.97176e-07
3.45109e-06
1.69028e-07
3.44334e-06
1.47161e-07
3.43276e-06
1.33846e-07
3.42064e-06
1.27977e-07
3.41009e-06
1.27961e-07
3.40366e-06
1.3198e-07
3.40198e-06
1.3881e-07
3.40419e-06
1.46357e-07
3.40869e-06
1.53484e-07
3.41469e-06
1.58399e-07
1.61261e-07
3.42118e-06
4.23989e-06
4.08056e-07
4.2261e-06
3.14142e-07
4.22396e-06
2.7499e-07
4.2194e-06
2.59096e-07
4.21669e-06
2.45592e-07
4.21926e-06
2.21875e-07
4.22596e-06
1.90481e-07
4.23214e-06
1.62841e-07
4.23308e-06
1.46223e-07
4.22682e-06
1.40108e-07
4.21469e-06
1.40104e-07
4.2003e-06
1.42349e-07
4.18764e-06
1.44648e-07
4.18008e-06
1.46366e-07
4.17911e-06
1.47329e-07
4.18491e-06
1.47685e-07
4.19635e-06
1.46953e-07
1.45585e-07
4.21203e-06
5.1147e-06
4.26618e-07
5.10808e-06
3.20764e-07
5.13312e-06
2.49952e-07
5.1448e-06
2.47417e-07
5.14727e-06
2.43124e-07
5.14685e-06
2.22295e-07
5.14329e-06
1.94038e-07
5.13503e-06
1.71104e-07
5.12334e-06
1.57907e-07
5.11247e-06
1.50982e-07
5.10735e-06
1.45227e-07
5.11134e-06
1.3835e-07
5.12511e-06
1.30887e-07
5.14685e-06
1.24623e-07
5.17338e-06
1.208e-07
5.2013e-06
1.1976e-07
5.22781e-06
1.20442e-07
1.22372e-07
5.25103e-06
6.34183e-06
4.03203e-07
6.3686e-06
2.93994e-07
6.35398e-06
2.64566e-07
6.35131e-06
2.50095e-07
6.35675e-06
2.37679e-07
6.3593e-06
2.19745e-07
6.35402e-06
1.99322e-07
6.34458e-06
1.80541e-07
6.33602e-06
1.66462e-07
6.33002e-06
1.56989e-07
6.32492e-06
1.5032e-07
6.31853e-06
1.44749e-07
6.31034e-06
1.3907e-07
6.30165e-06
1.33315e-07
6.29527e-06
1.2718e-07
6.29341e-06
1.21619e-07
6.29788e-06
1.15978e-07
1.11315e-07
6.30893e-06
7.76279e-06
4.2739e-07
7.69081e-06
3.65968e-07
7.65651e-06
2.9887e-07
7.66328e-06
2.43327e-07
7.68995e-06
2.11008e-07
7.71356e-06
1.96129e-07
7.72506e-06
1.87823e-07
7.72768e-06
1.77921e-07
7.7298e-06
1.64347e-07
7.7376e-06
1.49185e-07
7.75249e-06
1.35428e-07
7.77157e-06
1.25668e-07
7.79022e-06
1.20423e-07
7.80517e-06
1.18366e-07
7.81608e-06
1.16272e-07
7.82529e-06
1.12404e-07
7.83608e-06
1.05191e-07
9.57288e-08
7.85167e-06
9.30097e-06
3.69022e-07
9.3579e-06
3.09042e-07
9.3707e-06
2.86068e-07
9.37117e-06
2.42853e-07
9.38584e-06
1.9634e-07
9.41897e-06
1.62999e-07
9.4553e-06
1.51488e-07
9.47779e-06
1.55438e-07
9.48161e-06
1.6052e-07
9.47398e-06
1.56823e-07
9.46639e-06
1.43014e-07
9.46834e-06
1.23717e-07
9.48421e-06
1.04556e-07
9.51353e-06
8.90435e-08
9.55206e-06
7.77406e-08
9.59462e-06
6.98458e-08
9.63605e-06
6.37583e-08
5.91323e-08
9.67265e-06
1.13715e-05
4.42059e-07
1.13876e-05
2.92992e-07
1.14308e-05
2.42853e-07
1.14512e-05
2.22431e-07
1.14598e-05
1.8778e-07
1.14749e-05
1.47855e-07
1.15054e-05
1.20981e-07
1.15491e-05
1.11744e-07
1.15982e-05
1.1147e-07
1.1645e-05
1.09946e-07
1.16851e-05
1.0299e-07
1.17168e-05
9.19842e-08
1.17415e-05
7.99056e-08
1.17614e-05
6.91186e-08
1.17788e-05
6.03613e-08
1.17949e-05
5.36662e-08
1.18104e-05
4.8307e-08
4.38886e-08
1.18256e-05
8.47491e-06
4.0792e-07
8.51511e-06
2.52791e-07
8.52371e-06
2.34255e-07
8.51919e-06
2.26946e-07
8.50833e-06
1.98648e-07
8.50308e-06
1.53097e-07
8.51326e-06
1.10808e-07
8.53942e-06
8.55799e-08
8.5749e-06
7.59883e-08
8.61171e-06
7.31381e-08
8.64453e-06
7.01672e-08
8.67126e-06
6.52553e-08
8.69191e-06
5.92628e-08
8.70722e-06
5.38055e-08
8.7183e-06
4.92805e-08
8.72652e-06
4.54497e-08
8.73339e-06
4.14349e-08
3.65324e-08
8.74075e-06
7.40097e-06
5.48348e-07
7.29678e-06
3.56987e-07
7.29118e-06
2.3985e-07
7.32318e-06
1.94947e-07
7.36043e-06
1.61404e-07
7.38838e-06
1.25142e-07
7.40553e-06
9.36587e-08
7.41787e-06
7.32391e-08
7.43164e-06
6.22227e-08
7.44995e-06
5.48296e-08
7.47318e-06
4.69342e-08
7.49995e-06
3.84827e-08
7.52812e-06
3.10921e-08
7.55558e-06
2.6343e-08
7.58071e-06
2.41514e-08
7.60285e-06
2.33083e-08
7.6219e-06
2.23868e-08
1.974e-08
7.63869e-06
6.39308e-06
4.96121e-07
6.43385e-06
3.16213e-07
6.47244e-06
2.01257e-07
6.50726e-06
1.60129e-07
6.52231e-06
1.46354e-07
6.51844e-06
1.29016e-07
6.51043e-06
1.01667e-07
6.51139e-06
7.22806e-08
6.5252e-06
4.84095e-08
6.54797e-06
3.20579e-08
6.5731e-06
2.18102e-08
6.5961e-06
1.54782e-08
6.61594e-06
1.1254e-08
6.63378e-06
8.50296e-09
6.65078e-06
7.153e-09
6.66744e-06
6.64437e-09
6.68307e-06
6.75405e-09
6.26256e-09
6.69655e-06
5.58184e-06
4.41909e-07
5.63794e-06
2.60108e-07
5.64936e-06
1.89842e-07
5.64287e-06
1.66618e-07
5.64011e-06
1.49115e-07
5.65323e-06
1.15888e-07
5.68118e-06
7.37237e-08
5.71593e-06
3.75251e-08
5.74977e-06
1.45773e-08
5.77828e-06
3.54174e-09
5.80117e-06
-1.07662e-09
5.81963e-06
-2.9858e-09
5.83541e-06
-4.52264e-09
5.8501e-06
-6.18876e-09
5.86421e-06
-6.95423e-09
5.87732e-06
-6.46764e-09
5.88852e-06
-4.45012e-09
-2.13793e-09
5.89692e-06
4.88949e-06
4.18904e-07
4.93662e-06
2.12985e-07
4.95788e-06
1.68577e-07
4.9721e-06
1.52399e-07
5.00002e-06
1.21192e-07
5.03158e-06
8.43276e-08
5.05105e-06
5.42578e-08
5.05541e-06
3.31666e-08
5.05239e-06
1.75995e-08
5.05146e-06
4.46618e-09
5.05633e-06
-5.94713e-09
5.06851e-06
-1.51667e-08
5.08647e-06
-2.2477e-08
5.10746e-06
-2.71765e-08
5.12909e-06
-2.85868e-08
5.14963e-06
-2.70082e-08
5.16836e-06
-2.31768e-08
-1.88764e-08
5.18509e-06
4.24022e-06
3.36765e-07
4.26603e-06
1.87175e-07
4.29647e-06
1.3814e-07
4.34098e-06
1.07889e-07
4.38998e-06
7.21887e-08
4.43141e-06
4.28939e-08
4.46182e-06
2.38483e-08
4.48436e-06
1.06332e-08
4.50205e-06
-9.55774e-11
4.51588e-06
-9.3596e-09
4.52494e-06
-1.50071e-08
4.52916e-06
-1.93914e-08
4.53046e-06
-2.37742e-08
4.53148e-06
-2.8195e-08
4.53473e-06
-3.18347e-08
4.54166e-06
-3.39399e-08
4.55269e-06
-3.42127e-08
-3.29543e-08
4.56677e-06
3.64902e-06
2.63759e-07
3.73061e-06
1.0559e-07
3.79132e-06
7.74321e-08
3.83459e-06
6.46197e-08
3.86661e-06
4.01651e-08
3.89226e-06
1.72391e-08
3.91556e-06
5.51581e-10
3.93623e-06
-1.00332e-08
3.95536e-06
-1.9223e-08
3.97134e-06
-2.53402e-08
3.98427e-06
-2.79446e-08
3.99399e-06
-2.91059e-08
4.00099e-06
-3.07741e-08
4.00626e-06
-3.34683e-08
4.01086e-06
-3.64365e-08
4.01559e-06
-3.86655e-08
4.02096e-06
-3.95848e-08
-3.88943e-08
4.0269e-06
3.19932e-06
2.18495e-07
3.25729e-06
4.76202e-08
3.30502e-06
2.97058e-08
3.3557e-06
1.39394e-08
3.4003e-06
-4.43613e-09
3.43236e-06
-1.48234e-08
3.4528e-06
-1.98861e-08
3.4661e-06
-2.33379e-08
3.47339e-06
-2.65072e-08
3.47665e-06
-2.85981e-08
3.47831e-06
-2.96113e-08
3.48071e-06
-3.15063e-08
3.48543e-06
-3.54906e-08
3.49274e-06
-4.07839e-08
3.50167e-06
-4.53646e-08
3.51086e-06
-4.78482e-08
3.51905e-06
-4.77788e-08
-4.56477e-08
3.5258e-06
2.82919e-06
1.46657e-07
2.896e-06
-1.91896e-08
2.93829e-06
-1.25789e-08
2.97486e-06
-2.26359e-08
2.99991e-06
-2.94834e-08
3.01622e-06
-3.11343e-08
3.03025e-06
-3.39174e-08
3.04446e-06
-3.75487e-08
3.05793e-06
-3.99718e-08
3.06965e-06
-4.03224e-08
3.07963e-06
-3.95879e-08
3.08822e-06
-4.0094e-08
3.09582e-06
-4.30932e-08
3.10281e-06
-4.7779e-08
3.10917e-06
-5.17232e-08
3.11479e-06
-5.34685e-08
3.11942e-06
-5.24073e-08
-4.91421e-08
3.12292e-06
2.54336e-06
7.43115e-08
2.56541e-06
-4.12407e-08
2.58789e-06
-3.50494e-08
2.61549e-06
-5.02372e-08
2.63737e-06
-5.13713e-08
2.64933e-06
-4.30867e-08
2.65348e-06
-3.80666e-08
2.65513e-06
-3.92041e-08
2.65821e-06
-4.30523e-08
2.66319e-06
-4.53001e-08
2.66774e-06
-4.41425e-08
2.66867e-06
-4.10245e-08
2.66392e-06
-3.83412e-08
2.6535e-06
-3.73517e-08
2.63946e-06
-3.76874e-08
2.62435e-06
-3.83551e-08
2.61029e-06
-3.835e-08
-3.72615e-08
2.59841e-06
2.13993e-06
2.09869e-06
2.06364e-06
2.01341e-06
1.96203e-06
1.91895e-06
1.88088e-06
1.84168e-06
1.79863e-06
1.75333e-06
1.70918e-06
1.66816e-06
1.62982e-06
1.59247e-06
1.55478e-06
1.51642e-06
1.47807e-06
1.44081e-06
-1.06937e-08
1.06937e-08
-9.60769e-09
-1.08604e-09
1.06845e-08
-2.02922e-08
4.92067e-08
-3.85222e-08
9.87069e-08
-4.95002e-08
1.50869e-07
-5.21623e-08
1.98931e-07
-4.8062e-08
2.37231e-07
-3.83e-08
2.62846e-07
-2.56152e-08
2.74438e-07
-1.1592e-08
2.7177e-07
2.66825e-09
2.57136e-07
1.46346e-08
2.3181e-07
2.53254e-08
1.9629e-07
3.55204e-08
1.50497e-07
4.57923e-08
9.57687e-08
5.47287e-08
3.41398e-08
6.16289e-08
-3.24185e-08
6.65583e-08
-1.0115e-07
6.87314e-08
-1.67417e-07
6.62666e-08
-2.27413e-07
5.9997e-08
-2.79855e-07
5.24413e-08
-3.25269e-07
4.54139e-08
-3.65334e-07
4.00656e-08
-3.99842e-07
3.45077e-08
-4.29907e-07
3.00648e-08
-4.58035e-07
2.81286e-08
-4.86776e-07
2.87407e-08
-5.16822e-07
3.00458e-08
-5.48244e-07
3.14225e-08
-5.79528e-07
3.12833e-08
-6.08383e-07
2.88551e-08
-6.32854e-07
2.44713e-08
-6.52168e-07
1.93136e-08
-6.63995e-07
1.18274e-08
-6.71139e-07
7.14419e-09
-6.73538e-07
2.39827e-09
-6.69463e-07
-4.07479e-09
-6.79277e-07
9.81381e-09
-6.89663e-07
1.03866e-08
-7.20347e-07
3.06842e-08
-8.35949e-07
1.15601e-07
-8.53924e-07
1.79752e-08
-7.15055e-07
-1.38869e-07
-5.27876e-07
-1.87179e-07
-3.29594e-07
-1.98282e-07
-1.62597e-07
-1.66997e-07
-5.06429e-08
-1.11954e-07
4.43252e-08
-9.4968e-08
1.77126e-07
-1.328e-07
3.63454e-07
-1.86329e-07
5.6518e-07
-2.01726e-07
7.25172e-07
-1.59992e-07
8.08749e-07
-8.35773e-08
8.18011e-07
-9.26111e-09
7.63608e-07
5.44024e-08
6.55143e-07
1.08465e-07
4.9408e-07
1.61062e-07
2.8169e-07
2.12391e-07
2.81085e-08
2.53581e-07
-2.33659e-07
2.61767e-07
-4.64598e-07
2.30939e-07
-6.24328e-07
1.5973e-07
-6.76915e-07
5.25868e-08
-6.01409e-07
-7.55059e-08
-3.82209e-07
-2.192e-07
-1.12965e-08
-3.70912e-07
4.18777e-07
-4.30074e-07
6.83568e-07
-2.64791e-07
7.06445e-07
-2.28773e-08
6.45858e-07
6.05873e-08
6.94376e-07
-4.85178e-08
8.51196e-07
-1.56821e-07
9.97902e-07
-1.46706e-07
1.12172e-06
-1.2382e-07
1.12196e-06
-2.36042e-10
8.05255e-07
3.16704e-07
6.14494e-08
7.43805e-07
-8.1137e-07
8.7282e-07
-1.55939e-06
7.4802e-07
-2.17507e-06
6.15678e-07
-2.67359e-06
4.98521e-07
-3.07792e-06
4.04335e-07
-3.40872e-06
3.30797e-07
-3.68283e-06
2.74105e-07
-3.91265e-06
2.29827e-07
-4.10657e-06
1.93922e-07
-4.26967e-06
1.63094e-07
-4.40475e-06
1.3508e-07
-4.51312e-06
1.08372e-07
-4.59516e-06
8.20359e-08
-4.65084e-06
5.56853e-08
-4.68028e-06
2.94389e-08
-4.68356e-06
3.28267e-09
-4.66299e-06
-2.05703e-08
-4.61956e-06
-4.34335e-08
-4.55467e-06
-6.48858e-08
-4.47006e-06
-8.46184e-08
-4.36756e-06
-1.02498e-07
-4.24907e-06
-1.18489e-07
-4.11645e-06
-1.32616e-07
-3.97149e-06
-1.44963e-07
-3.81584e-06
-1.55646e-07
-3.65107e-06
-1.64769e-07
-3.47864e-06
-1.72439e-07
-3.29988e-06
-1.78756e-07
-3.1161e-06
-1.83776e-07
-2.92858e-06
-1.87526e-07
-2.73855e-06
-1.90025e-07
-2.54724e-06
-1.91309e-07
-2.35581e-06
-1.91435e-07
-2.16531e-06
-1.90496e-07
-1.9767e-06
-1.88609e-07
-1.79078e-06
-1.8592e-07
-1.60815e-06
-1.82633e-07
-1.42915e-06
-1.79006e-07
-1.25387e-06
-1.75272e-07
-1.0822e-06
-1.7167e-07
-9.13734e-07
-1.6847e-07
-7.47907e-07
-1.65827e-07
-5.84042e-07
-1.63864e-07
-4.21385e-07
-1.62657e-07
-2.59129e-07
-1.62256e-07
-9.67003e-08
-1.62429e-07
6.61886e-08
-1.62889e-07
2.29871e-07
-1.63682e-07
3.93876e-07
-1.64005e-07
5.57118e-07
-1.63242e-07
7.17776e-07
-1.60658e-07
8.7331e-07
-1.55534e-07
1.02064e-06
-1.47327e-07
1.15641e-06
-1.3577e-07
1.27739e-06
-1.20985e-07
1.38103e-06
-1.03634e-07
1.46579e-06
-8.47614e-08
1.53092e-06
-6.51367e-08
1.57639e-06
-4.54644e-08
1.60348e-06
-2.70932e-08
1.6138e-06
-1.03206e-08
1.60824e-06
5.56006e-09
1.58805e-06
2.01939e-08
1.55474e-06
3.33118e-08
1.5091e-06
4.56378e-08
1.45159e-06
5.75063e-08
1.38342e-06
6.81741e-08
1.3073e-06
7.61146e-08
1.22757e-06
7.97311e-08
1.14929e-06
7.82882e-08
1.0771e-06
7.21848e-08
1.01416e-06
6.29403e-08
9.61708e-07
5.24522e-08
9.1941e-07
4.22972e-08
8.85968e-07
3.34427e-08
8.59709e-07
2.62585e-08
8.39017e-07
2.06921e-08
8.22535e-07
1.64824e-08
8.09213e-07
1.33221e-08
7.98265e-07
1.09473e-08
7.89095e-07
9.1702e-09
7.81237e-07
7.8583e-09
7.74319e-07
6.91771e-09
7.68055e-07
6.26426e-09
7.62214e-07
5.84107e-09
7.56616e-07
5.59803e-09
7.51082e-07
5.53368e-09
7.45491e-07
5.59132e-09
7.3964e-07
5.85094e-09
7.33415e-07
6.22528e-09
7.2646e-07
6.95479e-09
7.18707e-07
7.75302e-09
7.09426e-07
9.28065e-09
6.988e-07
1.06267e-08
6.85174e-07
1.36252e-08
6.6974e-07
1.54343e-08
6.48129e-07
2.16114e-08
6.25249e-07
2.28801e-08
5.88283e-07
3.69658e-08
5.5579e-07
3.24928e-08
4.86937e-07
6.88526e-08
4.24453e-08
4.44492e-07
6.35083e-08
-5.28145e-08
1.75347e-07
-1.12925e-07
3.10164e-07
-1.55109e-07
4.45198e-07
-1.73556e-07
5.68432e-07
-1.72734e-07
6.73243e-07
-1.56973e-07
7.5472e-07
-1.29539e-07
8.11113e-07
-9.46928e-08
8.42597e-07
-5.70993e-08
8.49878e-07
-1.88735e-08
8.34561e-07
1.79853e-08
7.99677e-07
4.95188e-08
7.50474e-07
7.45282e-08
6.90592e-07
9.54024e-08
6.23232e-07
1.13153e-07
5.54199e-07
1.23762e-07
4.84092e-07
1.31736e-07
4.04803e-07
1.45847e-07
3.13272e-07
1.60263e-07
2.15821e-07
1.63718e-07
1.24853e-07
1.50965e-07
4.90914e-08
1.28203e-07
-1.52371e-08
1.09742e-07
-8.12308e-08
1.06059e-07
-1.60845e-07
1.14122e-07
-2.56186e-07
1.25406e-07
-3.63153e-07
1.35096e-07
-4.76381e-07
1.41969e-07
-5.91155e-07
1.4482e-07
-7.01523e-07
1.41791e-07
-8.02045e-07
1.31806e-07
-8.88271e-07
1.15081e-07
-9.56741e-07
9.29406e-08
-1.00401e-06
6.65814e-08
-1.02946e-06
3.72753e-08
-1.03119e-06
8.88252e-09
-1.00737e-06
-2.14289e-08
-9.60027e-07
-5.1415e-08
-8.76923e-07
-7.32899e-08
-7.70227e-07
-9.63094e-08
-6.20342e-07
-1.19201e-07
-3.83899e-07
-1.20841e-07
-1.67027e-07
-1.98898e-07
-7.36857e-09
-2.98527e-07
1.42459e-07
-3.37006e-07
2.9598e-07
-3.51803e-07
4.33752e-07
-3.04769e-07
5.55853e-07
-2.34056e-07
6.789e-07
-2.18015e-07
8.08425e-07
-2.62325e-07
9.19548e-07
-2.97452e-07
9.91847e-07
-2.74025e-07
1.02309e-06
-1.91233e-07
1.03009e-06
-9.05766e-08
1.01881e-06
2.01099e-09
1.00988e-06
6.33325e-08
9.98925e-07
1.19425e-07
9.57323e-07
2.02664e-07
8.43555e-07
3.26159e-07
6.47966e-07
4.4917e-07
4.18085e-07
4.91648e-07
2.1783e-07
4.31194e-07
8.18646e-08
2.95696e-07
1.88674e-08
1.15584e-07
3.20129e-08
-8.86515e-08
1.21752e-07
-3.08939e-07
3.16502e-07
-5.65662e-07
6.79737e-07
-7.93309e-07
1.11549e-06
-7.00544e-07
1.34104e-06
-2.48427e-07
1.33994e-06
6.16867e-08
1.39619e-06
-1.0477e-07
1.55812e-06
-3.1875e-07
1.57136e-06
-1.59944e-07
1.14098e-06
3.06561e-07
2.14578e-07
9.26165e-07
-8.76551e-07
1.40783e-06
-1.70696e-06
1.57421e-06
-2.28303e-06
1.44889e-06
-2.756e-06
1.22099e-06
-3.14052e-06
1.0002e-06
-3.4537e-06
8.11701e-07
-3.71231e-06
6.62939e-07
-3.92955e-06
5.48045e-07
-4.11508e-06
4.59629e-07
-4.27485e-06
3.89595e-07
-4.4122e-06
3.31276e-07
-4.52864e-06
2.79537e-07
-4.62452e-06
2.30955e-07
-4.69962e-06
1.83469e-07
-4.75351e-06
1.35931e-07
-4.78579e-06
8.79593e-08
-4.79608e-06
3.97341e-08
-4.78471e-06
-8.09119e-09
-4.7507e-06
-5.45735e-08
-4.69485e-06
-9.9286e-08
-4.6184e-06
-1.41336e-07
-4.52292e-06
-1.80095e-07
-4.41022e-06
-2.15206e-07
-4.28214e-06
-2.46562e-07
-4.14053e-06
-2.74234e-07
-3.98708e-06
-2.98406e-07
-3.82342e-06
-3.19312e-07
-3.651e-06
-3.37187e-07
-3.47119e-06
-3.52246e-07
-3.28527e-06
-3.64673e-07
-3.09447e-06
-3.74579e-07
-2.89999e-06
-3.82004e-07
-2.70305e-06
-3.86968e-07
-2.50483e-06
-3.8953e-07
-2.30647e-06
-3.89795e-07
-2.10903e-06
-3.87932e-07
-1.91346e-06
-3.84177e-07
-1.72056e-06
-3.78826e-07
-1.53091e-06
-3.7228e-07
-1.34486e-06
-3.65059e-07
-1.1625e-06
-3.57627e-07
-9.83745e-07
-3.50428e-07
-8.08158e-07
-3.44057e-07
-6.35164e-07
-3.38821e-07
-4.64108e-07
-3.3492e-07
-2.94178e-07
-3.32587e-07
-1.24663e-07
-3.31771e-07
4.50346e-08
-3.32126e-07
2.15741e-07
-3.33595e-07
3.87597e-07
-3.35539e-07
5.60421e-07
-3.36829e-07
7.33429e-07
-3.3625e-07
9.05153e-07
-3.32382e-07
1.07346e-06
-3.23843e-07
1.23574e-06
-3.09609e-07
1.38919e-06
-2.89221e-07
1.53113e-06
-2.62926e-07
1.65919e-06
-2.31689e-07
1.77127e-06
-1.96845e-07
1.86597e-06
-1.59835e-07
1.94293e-06
-1.2242e-07
2.00215e-06
-8.63195e-08
2.04459e-06
-5.27618e-08
2.07268e-06
-2.25206e-08
2.08887e-06
3.99424e-09
2.09537e-06
2.68201e-08
2.09449e-06
4.65159e-08
2.08814e-06
6.38556e-08
2.07739e-06
7.8921e-08
2.06265e-06
9.08561e-08
2.04419e-06
9.81965e-08
2.02221e-06
1.00263e-07
1.99742e-06
9.69736e-08
1.97076e-06
8.96054e-08
1.94316e-06
8.00525e-08
1.91539e-06
7.00628e-08
1.88803e-06
6.07996e-08
1.86155e-06
5.27453e-08
1.83636e-06
4.588e-08
1.81287e-06
3.99724e-08
1.79138e-06
3.48098e-08
1.77204e-06
3.0291e-08
1.75481e-06
2.64031e-08
1.73951e-06
2.31502e-08
1.72592e-06
2.05101e-08
1.71377e-06
1.8411e-08
1.70284e-06
1.67753e-08
1.69294e-06
1.55009e-08
1.68391e-06
1.45587e-08
1.67565e-06
1.38507e-08
1.66801e-06
1.34907e-08
1.66089e-06
1.33477e-08
1.65399e-06
1.38519e-08
1.64725e-06
1.45006e-08
1.64003e-06
1.64956e-08
1.63252e-06
1.81364e-08
1.62333e-06
2.28214e-08
1.61345e-06
2.53095e-08
1.5997e-06
3.53571e-08
1.58507e-06
3.75166e-08
1.56274e-06
5.92951e-08
1.53865e-06
5.65838e-08
1.50272e-06
1.04783e-07
8.76857e-08
1.45748e-06
6.67822e-08
-1.19597e-07
2.65444e-07
-3.11587e-07
4.92761e-07
-3.82426e-07
6.9867e-07
-3.79465e-07
8.7014e-07
-3.44204e-07
1.00452e-06
-2.91352e-07
1.10163e-06
-2.26645e-07
1.1651e-06
-1.5817e-07
1.19914e-06
-9.11407e-08
1.20549e-06
-2.52211e-08
1.18507e-06
3.84047e-08
1.14401e-06
9.05826e-08
1.08598e-06
1.32561e-07
1.00786e-06
1.73514e-07
9.05786e-07
2.15231e-07
7.82849e-07
2.46699e-07
6.53777e-07
2.60808e-07
5.26347e-07
2.73277e-07
3.91966e-07
2.94643e-07
2.47901e-07
3.07783e-07
9.12277e-08
3.07638e-07
-8.17082e-08
3.01138e-07
-2.75383e-07
3.03417e-07
-4.90286e-07
3.20962e-07
-7.20698e-07
3.44534e-07
-9.56329e-07
3.61037e-07
-1.18361e-06
3.62373e-07
-1.39097e-06
3.49329e-07
-1.57187e-06
3.25721e-07
-1.72333e-06
2.93251e-07
-1.84437e-06
2.5285e-07
-1.93495e-06
2.05656e-07
-1.99522e-06
1.53211e-07
-2.02567e-06
9.7036e-08
-2.02713e-06
3.87313e-08
-1.99708e-06
-2.11637e-08
-1.93694e-06
-8.15718e-08
-1.84935e-06
-1.39001e-07
-1.72959e-06
-1.93054e-07
-1.58117e-06
-2.44723e-07
-1.40821e-06
-2.92167e-07
-1.1836e-06
-3.45444e-07
-9.5669e-07
-4.25813e-07
-7.44085e-07
-5.11132e-07
-5.22433e-07
-5.58658e-07
-2.8601e-07
-5.88226e-07
-4.538e-09
-5.86241e-07
3.30738e-07
-5.69332e-07
6.89034e-07
-5.76311e-07
1.02107e-06
-5.94365e-07
1.30611e-06
-5.82493e-07
1.53431e-06
-5.02217e-07
1.70648e-06
-3.63406e-07
1.82595e-06
-2.10043e-07
1.89633e-06
-6.83681e-08
1.882e-06
7.7661e-08
1.77416e-06
2.2726e-07
1.60832e-06
3.68506e-07
1.4389e-06
4.95582e-07
1.28936e-06
5.98702e-07
1.16122e-06
6.19797e-07
1.06124e-06
5.31166e-07
9.92214e-07
3.64725e-07
9.7093e-07
1.36868e-07
1.00164e-06
-1.19362e-07
1.05332e-06
-3.60618e-07
1.10281e-06
-6.15149e-07
1.17072e-06
-8.61225e-07
1.27786e-06
-8.07684e-07
1.36622e-06
-3.36779e-07
1.47952e-06
-5.16221e-08
1.57611e-06
-2.01358e-07
1.35674e-06
-9.93827e-08
6.60007e-07
5.36793e-07
-3.54243e-07
1.32081e-06
-1.30384e-06
1.87576e-06
-1.98142e-06
2.08541e-06
-2.39589e-06
1.98868e-06
-2.67723e-06
1.73024e-06
-2.91114e-06
1.4549e-06
-3.11962e-06
1.20868e-06
-3.31351e-06
1.0056e-06
-3.49654e-06
8.45969e-07
-3.66998e-06
7.21482e-07
-3.83332e-06
6.22967e-07
-3.98506e-06
5.41337e-07
-4.12328e-06
4.69493e-07
-4.2459e-06
4.02163e-07
-4.35076e-06
3.3581e-07
-4.43571e-06
2.68419e-07
-4.49897e-06
1.99188e-07
-4.53914e-06
1.28131e-07
-4.55539e-06
5.59823e-08
-4.5473e-06
-1.61766e-08
-4.51526e-06
-8.66121e-08
-4.46045e-06
-1.54094e-07
-4.38443e-06
-2.1736e-07
-4.28906e-06
-2.75464e-07
-4.17638e-06
-3.2789e-07
-4.04841e-06
-3.74524e-07
-3.9071e-06
-4.15553e-07
-3.75417e-06
-4.51328e-07
-3.59123e-06
-4.82255e-07
-3.4197e-06
-5.08722e-07
-3.24089e-06
-5.31054e-07
-3.05605e-06
-5.4951e-07
-2.86638e-06
-5.64251e-07
-2.67307e-06
-5.75313e-07
-2.47735e-06
-5.82686e-07
-2.28046e-06
-5.8642e-07
-2.0836e-06
-5.86655e-07
-1.88792e-06
-5.83614e-07
-1.69444e-06
-5.77657e-07
-1.50401e-06
-5.69256e-07
-1.31728e-06
-5.59013e-07
-1.13457e-06
-5.47762e-07
-9.55974e-07
-5.36226e-07
-7.81437e-07
-5.24965e-07
-6.10434e-07
-5.15059e-07
-4.42361e-07
-5.06894e-07
-2.76543e-07
-5.00738e-07
-1.12254e-07
-4.96877e-07
5.13924e-08
-4.95418e-07
2.15173e-07
-4.95907e-07
3.79651e-07
-4.98073e-07
5.45044e-07
-5.00932e-07
7.11124e-07
-5.02908e-07
8.76874e-07
-5.02e-07
1.0404e-06
-4.95904e-07
1.19897e-06
-4.82419e-07
1.34953e-06
-4.6017e-07
1.48949e-06
-4.29174e-07
1.61745e-06
-3.90888e-07
1.73329e-06
-3.4753e-07
1.83746e-06
-3.01013e-07
1.93004e-06
-2.52413e-07
2.01027e-06
-2.02656e-07
2.07702e-06
-1.53064e-07
2.1293e-06
-1.05041e-07
2.16678e-06
-6.001e-08
2.19021e-06
-1.94298e-08
2.20176e-06
1.52714e-08
2.20463e-06
4.364e-08
2.20274e-06
6.57511e-08
2.19941e-06
8.22511e-08
2.1966e-06
9.36639e-08
2.19466e-06
1.00135e-07
2.19308e-06
1.01844e-07
2.19102e-06
9.90299e-08
2.18772e-06
9.29035e-08
2.18269e-06
8.50832e-08
2.17569e-06
7.70666e-08
2.16664e-06
6.98545e-08
2.15556e-06
6.38189e-08
2.1426e-06
5.8841e-08
2.128e-06
5.45717e-08
2.11215e-06
5.0665e-08
2.09554e-06
4.68987e-08
2.07875e-06
4.3196e-08
2.06232e-06
3.95741e-08
2.04673e-06
3.61061e-08
2.03228e-06
3.28539e-08
2.01916e-06
2.98943e-08
2.00743e-06
2.72381e-08
1.99701e-06
2.49733e-08
1.98783e-06
2.30328e-08
1.97969e-06
2.16309e-08
1.97246e-06
2.05813e-08
1.96587e-06
2.04385e-08
1.95982e-06
2.05498e-08
1.954e-06
2.23127e-08
1.94838e-06
2.37631e-08
1.94263e-06
2.85699e-08
1.93667e-06
3.12692e-08
1.93046e-06
4.15616e-08
1.92307e-06
4.49121e-08
1.91615e-06
6.62121e-08
1.9045e-06
6.82402e-08
1.89797e-06
1.11309e-07
1.11553e-07
1.8741e-06
2.03905e-07
-3.23502e-07
4.66501e-07
-5.74183e-07
6.80065e-07
-5.9599e-07
8.39621e-07
-5.39021e-07
9.60361e-07
-4.64945e-07
1.04688e-06
-3.77871e-07
1.10126e-06
-2.81028e-07
1.13155e-06
-1.8846e-07
1.13873e-06
-9.83193e-08
1.11409e-06
-5.7628e-10
1.0458e-06
1.06693e-07
9.52478e-07
1.83903e-07
8.49471e-07
2.35568e-07
7.28399e-07
2.94586e-07
5.86651e-07
3.56979e-07
4.31985e-07
4.01365e-07
2.64107e-07
4.28685e-07
8.15951e-08
4.55789e-07
-1.20546e-07
4.96784e-07
-3.53822e-07
5.41059e-07
-6.20837e-07
5.74653e-07
-9.17085e-07
5.97387e-07
-1.22672e-06
6.13049e-07
-1.52394e-06
6.1819e-07
-1.79272e-06
6.13305e-07
-2.02986e-06
5.98181e-07
-2.23851e-06
5.7102e-07
-2.42105e-06
5.31869e-07
-2.57705e-06
4.81719e-07
-2.70523e-06
4.21439e-07
-2.80444e-06
3.52053e-07
-2.87374e-06
2.7496e-07
-2.91236e-06
1.91831e-07
-2.91979e-06
1.04462e-07
-2.89511e-06
1.40565e-08
-2.8407e-06
-7.55764e-08
-2.75802e-06
-1.64255e-07
-2.6462e-06
-2.5082e-07
-2.50368e-06
-3.35569e-07
-2.33199e-06
-4.16417e-07
-2.13341e-06
-4.90743e-07
-1.91448e-06
-5.64377e-07
-1.69687e-06
-6.43423e-07
-1.4878e-06
-7.20198e-07
-1.25973e-06
-7.86733e-07
-1.01019e-06
-8.37764e-07
-7.25551e-07
-8.7088e-07
-4.03319e-07
-8.91564e-07
-6.85061e-08
-9.11124e-07
2.65448e-07
-9.28319e-07
6.11036e-07
-9.2808e-07
9.95357e-07
-8.86538e-07
1.42471e-06
-7.92764e-07
1.87651e-06
-6.6184e-07
2.29025e-06
-4.82101e-07
2.59377e-06
-2.25861e-07
2.74773e-06
7.33022e-08
2.7614e-06
3.54833e-07
2.67435e-06
5.82627e-07
2.55301e-06
7.20044e-07
2.433e-06
7.39811e-07
2.31828e-06
6.45883e-07
2.20436e-06
4.7865e-07
2.10568e-06
2.35544e-07
2.05729e-06
-7.09699e-08
2.03342e-06
-3.36749e-07
1.98092e-06
-5.62651e-07
1.88114e-06
-7.61442e-07
1.76848e-06
-6.95029e-07
1.74877e-06
-3.17063e-07
1.73681e-06
-3.96664e-08
1.37031e-06
1.65146e-07
5.19313e-07
7.51613e-07
-5.19637e-07
1.57574e-06
-1.41183e-06
2.213e-06
-2.01031e-06
2.47425e-06
-2.33735e-06
2.41245e-06
-2.51727e-06
2.1686e-06
-2.65495e-06
1.86793e-06
-2.78483e-06
1.58478e-06
-2.91984e-06
1.34368e-06
-3.06552e-06
1.15128e-06
-3.22135e-06
1.0018e-06
-3.38422e-06
8.84354e-07
-3.54894e-06
7.87689e-07
-3.7102e-06
7.02593e-07
-3.86278e-06
6.2207e-07
-4.00173e-06
5.41122e-07
-4.12278e-06
4.56855e-07
-4.22236e-06
3.68004e-07
-4.29769e-06
2.74516e-07
-4.34691e-06
1.77354e-07
-4.36889e-06
7.79596e-08
-4.36364e-06
-2.14279e-08
-4.33235e-06
-1.179e-07
-4.27652e-06
-2.0993e-07
-4.19824e-06
-2.9564e-07
-4.09993e-06
-3.73773e-07
-3.98407e-06
-4.43741e-07
-3.85305e-06
-5.05553e-07
-3.70896e-06
-5.59642e-07
-3.55363e-06
-6.0665e-07
-3.38863e-06
-6.47258e-07
-3.21528e-06
-6.82074e-07
-3.03477e-06
-7.1156e-07
-2.84824e-06
-7.36041e-07
-2.6568e-06
-7.55688e-07
-2.46162e-06
-7.70495e-07
-2.26392e-06
-7.8039e-07
-2.06496e-06
-7.85382e-07
-1.86599e-06
-7.85623e-07
-1.66826e-06
-7.81344e-07
-1.47291e-06
-7.73003e-07
-1.28091e-06
-7.6126e-07
-1.09303e-06
-7.46895e-07
-9.0968e-07
-7.31109e-07
-7.31023e-07
-7.14884e-07
-5.57116e-07
-6.98872e-07
-3.87356e-07
-6.84819e-07
-2.21378e-07
-6.72872e-07
-5.85366e-08
-6.63579e-07
1.02658e-07
-6.58071e-07
2.62583e-07
-6.55342e-07
4.22403e-07
-6.55727e-07
5.83113e-07
-6.58783e-07
7.45581e-07
-6.634e-07
9.10308e-07
-6.67636e-07
1.0769e-06
-6.68595e-07
1.24352e-06
-6.62525e-07
1.40646e-06
-6.45355e-07
1.5601e-06
-6.13814e-07
1.69784e-06