/*--------------------------------*- C++ -*----------------------------------*\
  =========                 |
  \\      /  F ield         | OpenFOAM: The Open Source CFD Toolbox
   \\    /   O peration     | Website:  https://openfoam.org
    \\  /    A nd           | Version:  7
     \\/     M anipulation  |
\*---------------------------------------------------------------------------*/
FoamFile
{
    version     2.0;
    format      ascii;
    class       volScalarField;
    location    "0.089";
    object      s;
}
// * * * * * * * * * * * * * * * * * * * * * * * * * * * * * * * * * * * * * //

dimensions      [0 0 0 0 0 0 0];

internalField   nonuniform List<scalar> 
12225
(
1
1
1
1
1
1
1
1
1
1
1
1
1
1
1
1
1
1
1
1
1
1
1
1
1
1
1
1
1
1
1
1
1
1
1
1
1
1
1
1
1
1
1
1
1
1
1
1
1
1
1
1
1
1
1
1
1
1
1
1
1
1
1
1
1
1
1
1
1
1
1
1
1
1
1
1
1
1
1
1
1
1
1
1
1
1
1
1
1
1
1
1
1
1
1
1
1
1
1
1
1
1
1
1
1
1
1
1
1
1
1
1
1
1
1
1
1
1
1
1
1
1
1
1
1
1
1
1
1
1
1
1
1
1
1
1
1
1
1
1
1
1
1
1
1
1
1
1
1
1
1
1
1
1
1
1
1
1
1
1
1
1
1
1
1
1
1
1
1
1
1
1
1
1
1
1
1
1
1
1
1
1
1
1
1
1
1
1
1
1
1
1
1
1
1
1
1
1
1
1
1
1
1
1
1
1
1
1
1
1
1
1
1
1
1
1
1
1
1
1
1
1
1
1
1
1
1
1
1
1
1
1
1
1
1
1
1
1
1
1
1
1
1
1
1
1
1
1
1
1
1
1
1
1
1
1
1
1
1
1
1
1
1
1
1
1
1
1
1
1
1
1
1
1
1
1
1
1
1
1
1
1
1
1
1
1
1
1
1
1
1
1
1
1
1
1
1
1
1
1
1
1
1
1
1
1
1
1
1
1
1
1
1
1
1
1
1
1
1
1
1
1
1
1
1
1
1
1
1
1
1
1
1
1
1
1
1
1
1
1
1
1
1
1
1
1
1
1
1
1
1
1
1
1
1
1
1
1
1
1
1
1
1
1
1
1
1
1
1
1
1
1
1
1
1
1
1
1
1
1
1
1
1
1
1
1
1
1
1
1
1
1
1
1
1
1
1
1
1
1
1
1
1
1
1
1
1
1
1
1
1
1
1
1
1
1
1
1
1
1
1
1
1
1
1
1
1
1
1
1
1
1
1
1
1
1
1
1
1
1
1
1
1
1
1
1
1
1
1
1
1
1
1
1
1
1
1
1
1
1
1
1
1
1
1
1
1
1
1
1
1
1
1
1
1
1
1
1
1
1
1
1
1
1
1
1
1
1
1
1
1
1
1
1
1
1
1
1
1
1
1
1
1
1
1
1
1
1
1
1
1
1
1
1
1
1
1
1
1
1
1
1
1
1
1
1
1
1
1
1
1
1
1
1
1
1
1
1
1
1
0.151916
0.154121
0.165191
0.175502
0.180364
0.189932
0.200828
0.213937
0.241993
0.264189
0.287104
0.310146
0.328016
0.340303
0.351365
0.36386
0.376108
0.386992
0.395979
0.402681
0.407517
0.41101
0.413761
0.416394
0.418591
0.420714
0.422687
0.42316
0.422768
0.421461
0.419597
0.4173
0.414247
0.411582
0.409904
0.409651
0.410557
0.412416
0.420635
0.422283
0.416923
0.358461
0.188249
0.146318
0.166412
0.16823
0.142716
0.13109
0.142478
0.145688
0.13793
0.134536
0.137691
0.150296
0.167039
0.179597
0.196916
0.230621
0.298516
0.375336
0.415211
0.432132
0.439524
0.441102
0.43949
0.437402
0.434858
0.417591
0.328561
0.246575
0.240887
0.269691
0.304255
0.327055
0.372207
0.504393
0.747956
0.859772
0.871897
0.871249
0.871341
0.87186
0.872748
0.873734
0.874563
0.875185
0.875792
0.876537
0.87729
0.87786
0.878364
0.878923
0.879315
0.879628
0.880246
0.880855
0.881128
0.881601
0.882568
0.883437
0.884202
0.885193
0.886119
0.886785
0.887621
0.888555
0.889343
0.890252
0.890896
0.891456
0.892122
0.892827
0.893403
0.893908
0.894578
0.895223
0.895765
0.896295
0.896713
0.897037
0.897199
0.897217
0.897016
0.896635
0.896159
0.895543
0.894667
0.893543
0.891122
0.88673
0.880742
0.873477
0.866476
0.861252
0.853706
0.836257
0.816051
0.800541
0.783823
0.758614
0.71365
0.637986
0.530089
0.401424
0.272774
0.164566
0.0877178
0.0413522
0.01735
0.00653876
0.00222832
0.000682439
0.000189104
7.86321e-05
4.07616e-05
2.02528e-05
9.85629e-06
4.71576e-06
2.2292e-06
1.04734e-06
4.919e-07
2.32027e-07
1.10227e-07
5.27665e-08
2.54124e-08
1.22746e-08
5.92393e-09
2.84597e-09
1.35652e-09
6.39791e-10
2.97911e-10
1.36719e-10
6.17192e-11
2.73656e-11
1.18825e-11
5.04018e-12
2.0797e-12
8.20691e-13
3.35258e-13
-2.3557e-13
0.149223
0.157875
0.175555
0.193412
0.20992
0.226734
0.237859
0.243594
0.251215
0.259081
0.269159
0.289753
0.319045
0.349814
0.377201
0.400649
0.420551
0.434966
0.444291
0.450957
0.455763
0.458541
0.459275
0.459529
0.459751
0.457701
0.451813
0.437513
0.413796
0.390502
0.366003
0.340186
0.327236
0.323379
0.322605
0.32305
0.325328
0.329667
0.339743
0.355189
0.374496
0.394747
0.384914
0.402901
0.406435
0.406429
0.403839
0.400439
0.397325
0.386618
0.333857
0.233228
0.173269
0.153537
0.158803
0.19435
0.239277
0.271192
0.31078
0.365836
0.405802
0.421486
0.409935
0.378378
0.352828
0.346866
0.369761
0.438357
0.496947
0.494121
0.447517
0.446393
0.460063
0.48294
0.560913
0.771429
0.854855
0.867379
0.864001
0.856472
0.847789
0.839907
0.833527
0.828256
0.82412
0.820523
0.817995
0.816238
0.815126
0.81411
0.813462
0.813337
0.814487
0.815703
0.816737
0.819286
0.821122
0.823683
0.827521
0.831326
0.835118
0.839873
0.844718
0.849159
0.854095
0.859116
0.863841
0.86886
0.873154
0.877016
0.880749
0.884309
0.887639
0.890571
0.893429
0.896218
0.89869
0.901318
0.903838
0.906354
0.908837
0.91131
0.913777
0.916237
0.918684
0.921122
0.923546
0.926011
0.928623
0.931236
0.933778
0.936044
0.937627
0.938181
0.937735
0.934225
0.926523
0.920092
0.917452
0.917532
0.922221
0.925194
0.923294
0.915588
0.897786
0.858343
0.795652
0.729528
0.685983
0.665841
0.643389
0.59207
0.4973
0.389748
0.29394
0.217347
0.157182
0.110747
0.0757598
0.0501966
0.0321733
0.0199439
0.011963
0.00695089
0.00391721
0.00214453
0.00114214
0.000592763
0.000300102
0.00014848
7.17973e-05
3.40087e-05
1.57446e-05
7.154e-06
3.16521e-06
1.37617e-06
5.79231e-07
2.30289e-07
1.14641e-07
-2.58687e-07
0.166592
0.291588
0.40106
0.452871
0.476145
0.48318
0.485375
0.485563
0.48398
0.482373
0.480477
0.478932
0.479797
0.483041
0.488011
0.491938
0.492717
0.491564
0.486459
0.476112
0.466862
0.459554
0.446021
0.391326
0.308086
0.292616
0.288479
0.287117
0.286916
0.292083
0.30291
0.312654
0.325877
0.338231
0.353342
0.370366
0.385429
0.398994
0.410711
0.422213
0.433335
0.448696
0.473785
0.485684
0.488009
0.483428
0.471924
0.461525
0.45598
0.455503
0.456799
0.454031
0.44142
0.41759
0.36398
0.269625
0.227807
0.225972
0.250633
0.322783
0.351637
0.343864
0.290533
0.239157
0.223216
0.223833
0.240238
0.298844
0.421366
0.50116
0.522263
0.540208
0.591081
0.730303
0.815676
0.852869
0.860082
0.856289
0.831461
0.800492
0.762957
0.743615
0.724831
0.716235
0.70985
0.70579
0.702753
0.69981
0.698353
0.697595
0.696972
0.696084
0.695765
0.696643
0.698668
0.699797
0.702861
0.707123
0.712021
0.718077
0.725339
0.733664
0.743481
0.754723
0.766608
0.779507
0.793354
0.80699
0.819989
0.831281
0.841469
0.850208
0.857823
0.864583
0.870565
0.87583
0.880169
0.884427
0.888263
0.8919
0.895421
0.898887
0.902351
0.905834
0.90932
0.912763
0.916108
0.91925
0.922007
0.924446
0.926827
0.929833
0.933738
0.938719
0.944103
0.948291
0.949568
0.948344
0.93895
0.918164
0.90309
0.897078
0.896354
0.897785
0.906437
0.92854
0.942494
0.947127
0.947961
0.947929
0.946824
0.942435
0.927005
0.900137
0.87843
0.861785
0.83789
0.783687
0.66159
0.519627
0.390554
0.287072
0.207431
0.146851
0.10152
0.0683894
0.0448239
0.0285849
0.0177289
0.0107145
0.00630553
0.00362893
0.0020363
0.00112383
0.000604109
0.000321727
0.000166169
8.43473e-05
4.38068e-05
1.61177e-05
0.500633
0.567279
0.582586
0.577099
0.563464
0.548498
0.538545
0.53256
0.525655
0.524406
0.523771
0.52277
0.520983
0.515982
0.503117
0.493551
0.488545
0.482588
0.465633
0.421615
0.375379
0.351322
0.326771
0.313506
0.311506
0.323597
0.35603
0.394699
0.447764
0.511544
0.568275
0.625172
0.673024
0.711579
0.748985
0.769117
0.7877
0.797948
0.804397
0.80842
0.811263
0.815857
0.819211
0.819722
0.807085
0.788351
0.7631
0.74226
0.724818
0.706761
0.682911
0.645144
0.597593
0.557952
0.502822
0.448031
0.372663
0.295747
0.268863
0.268523
0.268709
0.26355
0.234935
0.201599
0.19614
0.201087
0.220103
0.270067
0.386339
0.475022
0.507552
0.548594
0.699173
0.831261
0.851736
0.8548
0.847435
0.811526
0.738232
0.689508
0.665007
0.648193
0.640383
0.63696
0.635659
0.635027
0.634379
0.634909
0.635564
0.635491
0.635949
0.637774
0.639603
0.64115
0.643213
0.64451
0.645999
0.647854
0.649718
0.652099
0.654632
0.657346
0.660969
0.665564
0.671092
0.678082
0.687088
0.698306
0.712385
0.729943
0.748692
0.767387
0.784826
0.800527
0.814622
0.827058
0.837103
0.845997
0.853582
0.860444
0.867071
0.873749
0.880695
0.887878
0.895409
0.903222
0.910942
0.918149
0.924425
0.929402
0.93267
0.933773
0.933091
0.931577
0.932045
0.937113
0.947852
0.957804
0.963839
0.964702
0.961592
0.942478
0.912199
0.896698
0.892913
0.893453
0.898101
0.91562
0.936052
0.952787
0.966644
0.975586
0.979329
0.980019
0.979906
0.979162
0.976552
0.96657
0.946509
0.932599
0.916864
0.883552
0.792818
0.621613
0.460517
0.330523
0.231889
0.158922
0.106178
0.069205
0.0439481
0.0273027
0.0165573
0.00988414
0.00576677
0.00333361
0.00188077
0.00104143
0.000584137
0.000262395
0.617678
0.609616
0.586819
0.545431
0.480499
0.442353
0.423519
0.406566
0.403767
0.417774
0.451126
0.45384
0.460881
0.468552
0.447579
0.424686
0.405361
0.38076
0.362209
0.353399
0.355156
0.361758
0.379744
0.431345
0.519827
0.620445
0.70462
0.775238
0.834479
0.869397
0.896764
0.921282
0.933602
0.946426
0.952492
0.957162
0.959703
0.961698
0.962592
0.962968
0.962093
0.96055
0.957527
0.952908
0.945893
0.936006
0.922974
0.907645
0.891489
0.872594
0.851326
0.829781
0.808171
0.782816
0.758574
0.712972
0.6264
0.500348
0.382947
0.316356
0.293379
0.278782
0.250575
0.23984
0.24209
0.253358
0.275411
0.307809
0.395102
0.477586
0.517537
0.609533
0.811564
0.851377
0.851707
0.842366
0.79929
0.704355
0.647641
0.620854
0.608288
0.603196
0.602095
0.606837
0.611352
0.614325
0.620301
0.622758
0.62503
0.62808
0.629594
0.631854
0.635025
0.63789
0.640343
0.642347
0.643666
0.64534
0.64657
0.647961
0.64919
0.650103
0.651202
0.652609
0.654213
0.656015
0.658369
0.661055
0.664151
0.667909
0.672371
0.678219
0.68528
0.69326
0.701834
0.71071
0.719371
0.728043
0.736175
0.743924
0.751674
0.760227
0.770603
0.783928
0.800968
0.821181
0.843294
0.866234
0.889009
0.910412
0.928572
0.941009
0.948061
0.950503
0.948152
0.939663
0.936151
0.937506
0.947612
0.963296
0.971624
0.972967
0.969863
0.950998
0.918367
0.90106
0.895388
0.895195
0.898525
0.914857
0.941812
0.960147
0.971997
0.980746
0.987352
0.991274
0.992622
0.992639
0.991996
0.990549
0.988773
0.985269
0.977943
0.963067
0.930436
0.839611
0.652384
0.477175
0.336624
0.231416
0.155363
0.102217
0.0658633
0.0418192
0.0260758
0.0160768
0.00974804
0.00575412
0.00346003
0.00172249
0.618072
0.585077
0.492797
0.395703
0.346825
0.325666
0.309855
0.300301
0.294735
0.305727
0.322732
0.327459
0.343
0.351396
0.35228
0.356097
0.359661
0.365645
0.373867
0.402246
0.460476
0.560271
0.673902
0.774994
0.837654
0.887326
0.915722
0.942801
0.955838
0.967119
0.972704
0.977576
0.979693
0.981377
0.982211
0.983353
0.984091
0.985497
0.986288
0.987479
0.988407
0.988807
0.988699
0.987764
0.985605
0.981787
0.975415
0.964587
0.948622
0.927221
0.902325
0.877479
0.858167
0.820396
0.783271
0.778454
0.774128
0.757393
0.683757
0.512598
0.408462
0.34775
0.314707
0.310685
0.312956
0.319334
0.332255
0.364761
0.461168
0.51169
0.563306
0.750036
0.847173
0.851207
0.840832
0.79671
0.700679
0.627612
0.598273
0.586621
0.583142
0.583021
0.591322
0.598267
0.606986
0.613879
0.620762
0.626149
0.631121
0.637127
0.642153
0.646829
0.651602
0.656954
0.662171
0.665551
0.668698
0.671044
0.672904
0.673797
0.674234
0.674354
0.673499
0.672539
0.671864
0.670689
0.669808
0.669108
0.668726
0.668931
0.670018
0.671868
0.674477
0.677869
0.681932
0.686474
0.69135
0.696934
0.702586
0.707977
0.712914
0.717893
0.723777
0.731133
0.74082
0.755267
0.775374
0.79934
0.824898
0.850508
0.876045
0.902802
0.929185
0.950262
0.961253
0.964274
0.961934
0.94977
0.943574
0.94436
0.954201
0.970759
0.977301
0.977409
0.972221
0.947154
0.917528
0.90448
0.90173
0.902416
0.907879
0.92782
0.951362
0.968443
0.979984
0.98729
0.991917
0.994926
0.996608
0.997272
0.997379
0.997307
0.996914
0.995703
0.992517
0.984437
0.964312
0.909198
0.751299
0.556923
0.397384
0.275954
0.187645
0.125885
0.0833182
0.0544454
0.0351808
0.0219889
0.0140505
0.00756197
0.611311
0.529366
0.408685
0.349024
0.317628
0.302226
0.291317
0.284973
0.284559
0.290472
0.302722
0.316698
0.332523
0.34395
0.355021
0.371238
0.397229
0.445242
0.52966
0.66095
0.768734
0.844399
0.895874
0.928285
0.950057
0.963515
0.970323
0.97563
0.978011
0.979324
0.979758
0.979865
0.979592
0.979035
0.978807
0.979437
0.980751
0.982919
0.985159
0.987635
0.990276
0.992163
0.993703
0.994841
0.99544
0.995665
0.994949
0.993049
0.988996
0.980499
0.961725
0.924741
0.885468
0.837003
0.766181
0.74679
0.753
0.765493
0.763329
0.737967
0.644506
0.51511
0.431848
0.388091
0.370831
0.368592
0.373853
0.417419
0.506776
0.562077
0.694076
0.828415
0.850567
0.843794
0.805521
0.718836
0.62663
0.588189
0.5753
0.57217
0.573466
0.581011
0.589527
0.598286
0.608014
0.617095
0.62707
0.639677
0.650692
0.659792
0.669076
0.67732
0.685888
0.693853
0.701071
0.70673
0.710554
0.714394
0.717085
0.7183
0.718741
0.718676
0.717467
0.716167
0.714807
0.712712
0.710279
0.707842
0.704928
0.701842
0.698962
0.696462
0.694597
0.693566
0.693638
0.694969
0.697498
0.701969
0.707732
0.714081
0.719807
0.724529
0.729202
0.734279
0.740099
0.749911
0.766689
0.78916
0.814082
0.838743
0.86126
0.881071
0.899105
0.91885
0.942921
0.963186
0.972406
0.973759
0.969428
0.956425
0.952507
0.954316
0.966492
0.978464
0.981131
0.979721
0.969282
0.938881
0.919142
0.913004
0.912963
0.915958
0.929279
0.951064
0.967483
0.979331
0.987457
0.992546
0.995575
0.997406
0.998476
0.998965
0.999082
0.999061
0.998869
0.998157
0.996008
0.989859
0.972514
0.921632
0.770403
0.57905
0.421956
0.300448
0.210249
0.144658
0.0987978
0.0650658
0.0438807
0.0252893
0.603555
0.502583
0.385679
0.337216
0.309878
0.296165
0.290358
0.289179
0.290517
0.299627
0.314707
0.333064
0.355483
0.381937
0.423446
0.490441
0.605493
0.721915
0.818683
0.877333
0.920322
0.941956
0.957133
0.964136
0.967952
0.969575
0.970099
0.970164
0.965974
0.961306
0.954237
0.94782
0.941792
0.938859
0.93775
0.938532
0.942142
0.948418
0.95641
0.965865
0.974356
0.982306
0.988735
0.9933
0.995766
0.997178
0.997906
0.998298
0.998172
0.997046
0.993472
0.98214
0.939717
0.870676
0.767263
0.710669
0.712408
0.734734
0.753727
0.752697
0.730575
0.642292
0.529234
0.449569
0.40689
0.399637
0.418221
0.521277
0.598105
0.686802
0.800503
0.845901
0.847256
0.818437
0.748895
0.655027
0.5896
0.570689
0.566603
0.567585
0.573548
0.582304
0.591634
0.602035
0.61379
0.626024
0.6384
0.650681
0.66231
0.675028
0.688619
0.702152
0.716102
0.726934
0.736346
0.741472
0.747366
0.750207
0.753894
0.755811
0.756917
0.756741
0.75501
0.752875
0.74995
0.747265
0.74456
0.742269
0.739775
0.73714
0.73459
0.732025
0.729801
0.727707
0.725923
0.72485
0.724902
0.726026
0.728609
0.733242
0.7397
0.746474
0.753215
0.759865
0.765262
0.770771
0.780358
0.797782
0.821141
0.846774
0.869835
0.886985
0.89949
0.91187
0.925315
0.942675
0.962947
0.976361
0.9804
0.979592
0.971214
0.962975
0.96237
0.966632
0.978741
0.983805
0.983771
0.979732
0.961134
0.939047
0.929843
0.928668
0.930411
0.938722
0.957002
0.971567
0.981793
0.988737
0.993345
0.996224
0.997898
0.998841
0.999354
0.999568
0.999607
0.99958
0.999403
0.998744
0.996647
0.990283
0.971461
0.914431
0.756395
0.578534
0.433099
0.316643
0.228891
0.158421
0.111898
0.0684465
0.601245
0.494464
0.383448
0.343331
0.323708
0.312124
0.308571
0.308658
0.319662
0.339709
0.370144
0.412347
0.472946
0.560289
0.666647
0.764475
0.835749
0.893461
0.926637
0.944588
0.95423
0.958523
0.960531
0.961093
0.957861
0.95004
0.93701
0.922926
0.909981
0.901097
0.893711
0.890309
0.888588
0.887895
0.887675
0.888343
0.889736
0.892562
0.897697
0.907008
0.922478
0.942013
0.96306
0.97769
0.988436
0.994284
0.997188
0.998506
0.999015
0.999205
0.998692
0.995693
0.980548
0.910681
0.774334
0.698456
0.695655
0.71384
0.735806
0.73883
0.725627
0.661735
0.546805
0.46114
0.428003
0.432832
0.515844
0.64329
0.708995
0.785751
0.836497
0.846812
0.836068
0.778623
0.705376
0.610217
0.573045
0.565147
0.564841
0.569202
0.579093
0.592956
0.605281
0.620765
0.636327
0.651019
0.665931
0.677291
0.689831
0.701976
0.711128
0.721015
0.728932
0.736652
0.744978
0.749197
0.756535
0.759806
0.764949
0.768151
0.771661
0.774651
0.77693
0.778311
0.778628
0.777435
0.77504
0.772295
0.769141
0.765374
0.761386
0.756985
0.752832
0.748908
0.745628
0.742856
0.74058
0.739054
0.738729
0.740147
0.744725
0.750855
0.757569
0.764125
0.769979
0.776637
0.786887
0.803115
0.825596
0.852701
0.881198
0.906967
0.924035
0.928922
0.931177
0.937408
0.949611
0.965727
0.979283
0.984749
0.984941
0.981095
0.972403
0.970708
0.972203
0.979988
0.986175
0.986999
0.985422
0.976545
0.959004
0.949613
0.947178
0.947864
0.952386
0.965301
0.977284
0.985629
0.99116
0.994713
0.996958
0.998328
0.999108
0.999528
0.999734
0.999799
0.9998
0.999752
0.999526
0.998738
0.996249
0.988712
0.966758
0.90039
0.739991
0.574661
0.440092
0.321417
0.239138
0.156018
0.604743
0.514684
0.426953
0.383693
0.362486
0.355358
0.355629
0.377326
0.41817
0.478954
0.553251
0.630437
0.71725
0.784825
0.850784
0.898243
0.924329
0.941972
0.949448
0.952389
0.95328
0.951774
0.943996
0.928075
0.912831
0.897609
0.889663
0.883745
0.880851
0.879497
0.879041
0.879007
0.879499
0.879682
0.879816
0.87985
0.879808
0.87975
0.879703
0.880337
0.883162
0.89015
0.905626
0.934591
0.965126
0.983134
0.992267
0.996815
0.998779
0.999388
0.99955
0.998901
0.993615
0.952784
0.806294
0.696997
0.68613
0.70385
0.715011
0.713917
0.693126
0.613347
0.511797
0.457048
0.451685
0.504241
0.659914
0.737869
0.787057
0.82844
0.844642
0.843017
0.805687
0.746825
0.666915
0.589815
0.567644
0.564594
0.56735
0.580071
0.60306
0.619961
0.633106
0.647609
0.658965
0.669691
0.68097
0.688426
0.697178
0.704616
0.708938
0.713491
0.714908
0.717647
0.724123
0.727863
0.738883
0.747129
0.756309
0.763752
0.770275
0.775553
0.779841
0.783575
0.78698
0.789468
0.790211
0.789712
0.788984
0.788008
0.786756
0.785082
0.783127
0.780837
0.778261
0.775425
0.772347
0.769138
0.765769
0.762378
0.759863
0.759391
0.762115
0.766729
0.771306
0.776908
0.785747
0.799914
0.820204
0.846021
0.875282
0.905273
0.932125
0.950574
0.956502
0.955509
0.954549
0.957375
0.96988
0.982519
0.987858
0.988405
0.986508
0.979687
0.977439
0.978142
0.982923
0.988605
0.989952
0.989397
0.98561
0.9745
0.966673
0.963922
0.963914
0.966061
0.973946
0.983089
0.989436
0.993593
0.996211
0.997818
0.998789
0.999358
0.999668
0.999825
0.999886
0.999895
0.999881
0.999797
0.999483
0.998464
0.995373
0.98631
0.960905
0.88329
0.725368
0.557687
0.433923
0.300151
0.614534
0.545313
0.491845
0.466937
0.456798
0.456656
0.485913
0.547145
0.612164
0.68194
0.742304
0.802329
0.853039
0.895079
0.922082
0.937387
0.944457
0.947414
0.94819
0.94557
0.93644
0.916658
0.901133
0.890147
0.883671
0.880322
0.878977
0.878586
0.87876
0.879174
0.879559
0.879751
0.879945
0.880122
0.880313
0.880448
0.880567
0.880251
0.879483
0.87827
0.877649
0.877919
0.880843
0.890995
0.915794
0.958367
0.980955
0.991998
0.997155
0.999141
0.999644
0.999697
0.998239
0.98482
0.882175
0.716096
0.676801
0.687174
0.687188
0.672592
0.62305
0.54538
0.487908
0.471411
0.498704
0.644825
0.754629
0.797298
0.826572
0.84224
0.844465
0.830473
0.779074
0.731838
0.647905
0.581906
0.566813
0.565753
0.57741
0.602829
0.621747
0.631873
0.643212
0.654736
0.662028
0.670175
0.676351
0.678063
0.675686
0.667608
0.652372
0.638666
0.631972
0.630415
0.633744
0.643546
0.654985
0.677652
0.700475
0.723829
0.74452
0.760099
0.772237
0.780948
0.78724
0.79223
0.796546
0.797969
0.797286
0.796768
0.796088
0.795171
0.79405
0.792864
0.791647
0.790489
0.789516
0.788875
0.788613
0.788834
0.789938
0.790894
0.78929
0.786497
0.786036
0.787102
0.791104
0.80108
0.819456
0.844032
0.871909
0.900394
0.92768
0.951461
0.967622
0.973622
0.973379
0.970628
0.970415
0.974762
0.985426
0.990291
0.990921
0.989676
0.984676
0.982603
0.983046
0.986322
0.991044
0.992573
0.992467
0.990921
0.984901
0.978821
0.976274
0.975921
0.976924
0.98152
0.988094
0.992676
0.995635
0.997462
0.998558
0.999204
0.999577
0.999784
0.99989
0.999934
0.999944
0.999939
0.999907
0.999775
0.999339
0.998013
0.994118
0.982785
0.951152
0.847007
0.691381
0.503854
0.621914
0.567074
0.540344
0.534773
0.548891
0.582328
0.623553
0.689596
0.75731
0.804396
0.851384
0.886945
0.916454
0.932585
0.940554
0.943687
0.944389
0.943357
0.935554
0.915355
0.899029
0.888875
0.882861
0.879952
0.87878
0.878498
0.8788
0.879047
0.879194
0.879225
0.879048
0.878594
0.878417
0.878453
0.878969
0.879861
0.880985
0.881872
0.882364
0.882577
0.880249
0.877734
0.877263
0.879937
0.888741
0.915339
0.961716
0.983583
0.993919
0.998119
0.999545
0.999827
0.999633
0.995776
0.960756
0.775967
0.677355
0.666826
0.653698
0.618037
0.57111
0.523225
0.498533
0.506354
0.605432
0.751733
0.806839
0.829008
0.841682
0.845878
0.84146
0.808454
0.774985
0.731912
0.648722
0.581546
0.566241
0.565846
0.580101
0.60979
0.625449
0.633367
0.643775
0.653074
0.656736
0.65727
0.646518
0.620875
0.573777
0.528275
0.498322
0.486858
0.487495
0.500901
0.526169
0.558549
0.583758
0.603918
0.623092
0.643737
0.669211
0.702086
0.735518
0.761019
0.778244
0.789792
0.797918
0.804511
0.808774
0.80908
0.808118
0.806464
0.804391
0.802169
0.800107
0.798394
0.797201
0.796573
0.796511
0.797149
0.799626
0.805545
0.813711
0.820272
0.822189
0.821838
0.821727
0.824125
0.836016
0.858781
0.882914
0.906427
0.928751
0.950153
0.968501
0.980068
0.984028
0.98391
0.981399
0.98051
0.982103
0.988509
0.992339
0.992797
0.991756
0.987961
0.98648
0.986867
0.989475
0.993284
0.994768
0.994854
0.994222
0.991089
0.986621
0.984513
0.98409
0.984606
0.987441
0.991989
0.995159
0.997174
0.998394
0.999109
0.999518
0.999748
0.999873
0.999937
0.999964
0.999971
0.999969
0.999955
0.999896
0.999696
0.999075
0.997201
0.991575
0.974231
0.924887
0.761357
0.626578
0.597187
0.588146
0.596448
0.633219
0.664544
0.725267
0.78835
0.839251
0.875467
0.902959
0.92546
0.936735
0.941615
0.943039
0.942808
0.938762
0.925104
0.90472
0.891356
0.883769
0.880098
0.878501
0.877992
0.877902
0.878085
0.87814
0.877594
0.876102
0.875151
0.874327
0.873991
0.8739
0.873868
0.87401
0.874413
0.875453
0.877928
0.881315
0.883542
0.884307
0.882991
0.879246
0.878514
0.881887
0.893653
0.935252
0.971827
0.989367
0.996526
0.999083
0.999815
0.999913
0.99922
0.988712
0.891183
0.704687
0.659109
0.636904
0.596501
0.560777
0.533206
0.531798
0.575516
0.719205
0.807876
0.833698
0.843468
0.848053
0.845665
0.831752
0.799464
0.776456
0.736198
0.656867
0.583452
0.564125
0.564793
0.578844
0.609259
0.624611
0.632021
0.639383
0.642168
0.632578
0.602856
0.536541
0.462997
0.410596
0.381775
0.36977
0.370282
0.388765
0.423702
0.472795
0.524701
0.569706
0.595964
0.610907
0.62398
0.636057
0.648676
0.669211
0.705379
0.746267
0.773908
0.792179
0.804274
0.812781
0.818775
0.821771
0.822851
0.822469
0.820087
0.816808
0.813786
0.811111
0.809031
0.807707
0.807277
0.80779
0.811243
0.82091
0.833887
0.84599
0.85489
0.860748
0.867331
0.881413
0.90108
0.921955
0.939226
0.950762
0.960392
0.971652
0.982266
0.988661
0.990427
0.990086
0.987772
0.986969
0.987948
0.991855
0.994119
0.994261
0.993161
0.990275
0.989447
0.989869
0.992221
0.995208
0.996458
0.996616
0.9963
0.994495
0.991404
0.989889
0.989576
0.989893
0.991807
0.994858
0.99695
0.998261
0.99904
0.999484
0.99973
0.999863
0.999933
0.999967
0.999982
0.999985
0.999985
0.999978
0.999947
0.999843
0.999506
0.998439
0.995018
0.984151
0.938469
0.63452
0.618809
0.614951
0.643943
0.682096
0.735025
0.780193
0.84051
0.885252
0.910486
0.926998
0.937895
0.941926
0.942979
0.942361
0.937705
0.921829
0.901874
0.889047
0.882297
0.879022
0.877742
0.877369
0.877318
0.877352
0.877062
0.875754
0.87452
0.873857
0.873539
0.873395
0.873347
0.873334
0.873315
0.873258
0.873228
0.873271
0.873663
0.875131
0.880182
0.884496
0.885562
0.884167
0.880227
0.88089
0.886218
0.911881
0.958029
0.98376
0.994655
0.998453
0.999655
0.999934
0.999908
0.997998
0.972392
0.796039
0.663735
0.633566
0.59346
0.573385
0.559224
0.56519
0.652949
0.786837
0.836002
0.846943
0.851144
0.850187
0.844489
0.820965
0.799325
0.780906
0.747352
0.677343
0.591906
0.563116
0.558209
0.57437
0.605553
0.620484
0.62532
0.62488
0.609811
0.553956
0.47003
0.392788
0.332483
0.29454
0.269586
0.255941
0.250272
0.259869
0.290936
0.353977
0.458939
0.555169
0.62041
0.640581
0.643632
0.644287
0.645074
0.652353
0.665782
0.693275
0.739169
0.774118
0.797326
0.811785
0.820981
0.826475
0.829626
0.831798
0.833491
0.834529
0.834109
0.832872
0.831753
0.830782
0.830687
0.831287
0.833434
0.838839
0.847462
0.858534
0.870542
0.88469
0.902474
0.922642
0.943994
0.961029
0.973224
0.980735
0.983404
0.984579
0.987543
0.991665
0.993947
0.994299
0.9937
0.991652
0.99116
0.991988
0.994514
0.995519
0.995426
0.994059
0.992137
0.991782
0.992293
0.994544
0.996763
0.997675
0.997803
0.997588
0.996321
0.994351
0.993459
0.99331
0.993547
0.994922
0.996907
0.998214
0.999011
0.999471
0.999726
0.999862
0.999933
0.999968
0.999985
0.999992
0.999993
0.999993
0.999988
0.99997
0.999904
0.999681
0.998936
0.996426
0.984253
0.638859
0.636202
0.638546
0.67438
0.71749
0.760554
0.816809
0.87024
0.909648
0.926828
0.936545
0.941511
0.942913
0.942939
0.940088
0.927472
0.90637
0.890416
0.882525
0.878896
0.877379
0.876865
0.876755
0.876729
0.876433
0.875615
0.874421
0.873805
0.873491
0.873304
0.87321
0.873164
0.873237
0.873328
0.873318
0.87322
0.873127
0.873178
0.873624
0.875769
0.882225
0.885882
0.885839
0.882996
0.881546
0.883898
0.900118
0.94552
0.977517
0.992325
0.997791
0.999431
0.999891
0.999972
0.999802
0.99467
0.938069
0.714009
0.637778
0.60069
0.592222
0.594191
0.611815
0.712482
0.818466
0.851112
0.855561
0.855276
0.850442
0.841701
0.816701
0.801113
0.790983
0.76866
0.718341
0.616315
0.567023
0.549247
0.558305
0.594575
0.610137
0.607644
0.58268
0.526795
0.447422
0.364216
0.299382
0.252216
0.221218
0.201187
0.1909
0.190246
0.197407
0.212536
0.243802
0.319534
0.483923
0.623216
0.699969
0.717077
0.709659
0.681728
0.663482
0.663477
0.675343
0.703965
0.750092
0.78526
0.807866
0.821301
0.828639
0.83289
0.836021
0.839098
0.843567
0.847555
0.851639
0.855584
0.859351
0.863315
0.869846
0.878518
0.886517
0.891251
0.896793
0.904386
0.915694
0.932634
0.952013
0.968222
0.979316
0.986362
0.990913
0.993515
0.994449
0.994752
0.995455
0.996484
0.996795
0.996676
0.995628
0.994196
0.994017
0.994791
0.996255
0.996565
0.99628
0.994769
0.993718
0.99366
0.994326
0.996433
0.997931
0.998505
0.998567
0.998373
0.997396
0.996324
0.995928
0.995898
0.996091
0.997053
0.998255
0.999019
0.999472
0.999727
0.999864
0.999934
0.999969
0.999986
0.999994
0.999996
0.999997
0.999996
0.999993
0.999979
0.999929
0.999751
0.999127
0.995897
0.640051
0.653511
0.652105
0.687834
0.741184
0.780671
0.828347
0.875827
0.911434
0.929518
0.937758
0.941788
0.942959
0.942094
0.933086
0.915259
0.898379
0.886482
0.88062
0.877882
0.876646
0.876311
0.876254
0.876214
0.875877
0.875015
0.874072
0.873468
0.873082
0.872817
0.872676
0.872694
0.872857
0.873226
0.87334
0.873305
0.873156
0.873159
0.873438
0.874978
0.880933
0.885946
0.886602
0.884229
0.881808
0.883072
0.895136
0.937814
0.973768
0.990667
0.997165
0.999257
0.999832
0.999972
0.999975
0.999451
0.988985
0.865467
0.6712
0.614475
0.605608
0.619174
0.673977
0.766317
0.837883
0.859489
0.861453
0.857885
0.850061
0.831586
0.815347
0.803771
0.798019
0.786815
0.759897
0.689226
0.588049
0.552415
0.539767
0.556399
0.574289
0.557711
0.493312
0.424007
0.357991
0.292901
0.24493
0.212436
0.192491
0.181956
0.178841
0.180172
0.186448
0.199116
0.222935
0.27599
0.41817
0.596293
0.713623
0.759454
0.763085
0.743993
0.698972
0.681143
0.679608
0.69284
0.736662
0.779298
0.805732
0.821266
0.830356
0.837069
0.842048
0.847073
0.854851
0.862922
0.872898
0.88324
0.894333
0.906254
0.919296
0.931195
0.942063
0.952826
0.960134
0.965245
0.970528
0.976289
0.982046
0.987148
0.991067
0.993779
0.995661
0.996932
0.99761
0.997938
0.998221
0.998411
0.998437
0.998377
0.997965
0.996624
0.995948
0.995979
0.99669
0.997338
0.99735
0.996804
0.995512
0.995117
0.995216
0.996139
0.997819
0.998742
0.999052
0.999062
0.998865
0.998197
0.997763
0.997652
0.997667
0.997839
0.99847
0.999108
0.999508
0.999742
0.999871
0.999938
0.999971
0.999987
0.999994
0.999997
0.999998
0.999998
0.999998
0.999995
0.999983
0.999938
0.999773
0.998893
0.641054
0.655731
0.662472
0.685455
0.738885
0.780208
0.824649
0.871393
0.90738
0.927647
0.936779
0.941221
0.942535
0.940754
0.932831
0.915147
0.899035
0.887317
0.881139
0.878094
0.876688
0.876206
0.876064
0.876003
0.87583
0.875263
0.874365
0.873714
0.873307
0.872984
0.872804
0.872819
0.872922
0.873243
0.873375
0.873312
0.873163
0.873192
0.873558
0.875267
0.881312
0.887432
0.88812
0.884796
0.881741
0.882639
0.893601
0.935013
0.972325
0.990036
0.996926
0.999178
0.999808
0.99996
0.999992
0.999955
0.998814
0.979752
0.794418
0.642722
0.612949
0.622101
0.691009
0.787807
0.847539
0.866741
0.867313
0.862625
0.851373
0.826333
0.811311
0.803958
0.799723
0.795676
0.784857
0.754211
0.663679
0.575156
0.542622
0.533103
0.528556
0.51115
0.460186
0.391594
0.331434
0.278606
0.238727
0.21085
0.192391
0.182762
0.181228
0.182504
0.18723
0.198721
0.222242
0.273313
0.410422
0.593914
0.720825
0.775253
0.783027
0.765548
0.712647
0.689186
0.686732
0.694021
0.731701
0.777677
0.806048
0.822069
0.831248
0.840078
0.84983
0.861912
0.877256
0.893586
0.910375
0.929231
0.947793
0.962072
0.971569
0.977953
0.982476
0.985738
0.988191
0.990097
0.991615
0.992929
0.994203
0.995447
0.996543
0.997422
0.998093
0.998565
0.998879
0.999114
0.999267
0.99932
0.999319
0.999285
0.999111
0.998332
0.997421
0.997213
0.997349
0.997875
0.998032
0.997891
0.997061
0.996371
0.99629
0.996535
0.997651
0.998755
0.999266
0.999403
0.999386
0.999192
0.998888
0.998775
0.998767
0.998808
0.999015
0.999377
0.999638
0.999803
0.999899
0.999951
0.999977
0.99999
0.999996
0.999998
0.999999
0.999999
0.999999
0.999999
0.999995
0.999983
0.999938
0.999689
0.641216
0.653936
0.663526
0.680205
0.728095
0.775248
0.814376
0.860981
0.897917
0.921959
0.933792
0.939548
0.940804
0.93962
0.934022
0.918276
0.90204
0.890036
0.882857
0.878917
0.877016
0.876157
0.875929
0.875865
0.875763
0.875567
0.875155
0.874603
0.874266
0.87386
0.873712
0.873751
0.87378
0.873719
0.873573
0.873229
0.873164
0.873347
0.874362
0.878081
0.887126
0.890599
0.889332
0.883706
0.880572
0.882142
0.895748
0.940159
0.974987
0.991059
0.997213
0.999228
0.999806
0.999957
0.999993
0.999995
0.999875
0.99724
0.958938
0.742656
0.632158
0.620188
0.668613
0.782369
0.845879
0.870509
0.871991
0.868404
0.855516
0.827473
0.807549
0.802617
0.799358
0.797278
0.794121
0.783516
0.748188
0.656153
0.568738
0.537433
0.519946
0.502385
0.460965
0.395189
0.335902
0.284654
0.245431
0.218283