/*--------------------------------*- C++ -*----------------------------------*\
  =========                 |
  \\      /  F ield         | OpenFOAM: The Open Source CFD Toolbox
   \\    /   O peration     | Website:  https://openfoam.org
    \\  /    A nd           | Version:  7
     \\/     M anipulation  |
\*---------------------------------------------------------------------------*/
FoamFile
{
    version     2.0;
    format      ascii;
    class       volVectorField;
    location    "0.089";
    object      U;
}
// * * * * * * * * * * * * * * * * * * * * * * * * * * * * * * * * * * * * * //

dimensions      [0 1 -1 0 0 0 0];

internalField   nonuniform List<vector> 
12225
(
(4.72794 0.15743 0)
(4.10979 0.102706 0)
(3.62552 0.0983776 0)
(3.23253 0.0834904 0)
(2.88573 0.0678944 0)
(2.56609 0.0580446 0)
(2.25748 0.0521761 0)
(1.96335 0.0458129 0)
(1.69298 0.0382863 0)
(1.4513 0.0309884 0)
(1.23762 0.0244134 0)
(1.05484 0.017879 0)
(0.891006 0.0126623 0)
(0.75483 0.00924309 0)
(0.616034 0.00766182 0)
(0.523169 0.0105973 0)
(0.36921 0.00492954 0)
(0.338823 -0.00993197 0)
(5.01259 0.108125 0)
(4.82458 0.0829238 0)
(4.70604 0.100515 0)
(4.62333 0.0965759 0)
(4.52527 0.0939763 0)
(4.40948 0.0962016 0)
(4.27808 0.10116 0)
(4.13577 0.104943 0)
(3.98776 0.104784 0)
(3.84277 0.101347 0)
(3.69477 0.0969592 0)
(3.54879 0.093899 0)
(3.37843 0.0910301 0)
(3.21739 0.0875878 0)
(3.03102 0.0826356 0)
(2.88924 0.0778239 0)
(2.70066 0.0817084 0)
(2.58778 0.0698099 0)
(5.0105 0.186145 0)
(4.84996 0.113002 0)
(4.75518 0.130218 0)
(4.71825 0.129559 0)
(4.70122 0.124031 0)
(4.68129 0.121368 0)
(4.65681 0.123763 0)
(4.63295 0.127264 0)
(4.60764 0.126627 0)
(4.57741 0.12311 0)
(4.53578 0.119885 0)
(4.48615 0.121725 0)
(4.42192 0.12762 0)
(4.35287 0.132784 0)
(4.27268 0.134849 0)
(4.19281 0.132898 0)
(4.10365 0.135494 0)
(4.01185 0.14019 0)
(4.9856 0.24188 0)
(4.7859 0.142796 0)
(4.7153 0.133277 0)
(4.71922 0.122777 0)
(4.74238 0.115069 0)
(4.75115 0.114837 0)
(4.74019 0.119697 0)
(4.72204 0.124495 0)
(4.70448 0.125965 0)
(4.68638 0.126413 0)
(4.66575 0.128494 0)
(4.64425 0.134243 0)
(4.62512 0.141849 0)
(4.60814 0.147009 0)
(4.59165 0.149632 0)
(4.56871 0.150025 0)
(4.54264 0.157118 0)
(4.505 0.17124 0)
(4.90841 0.217682 0)
(4.84284 0.14476 0)
(4.76302 0.124055 0)
(4.72373 0.11882 0)
(4.7161 0.115496 0)
(4.71282 0.118292 0)
(4.70391 0.126098 0)
(4.69348 0.132502 0)
(4.68506 0.133796 0)
(4.6771 0.132592 0)
(4.66843 0.132419 0)
(4.6591 0.13489 0)
(4.6518 0.139721 0)
(4.64603 0.144296 0)
(4.63954 0.148805 0)
(4.62864 0.154611 0)
(4.61403 0.165675 0)
(4.59639 0.183003 0)
(4.95426 0.244981 0)
(4.8424 0.184649 0)
(4.78212 0.152912 0)
(4.75732 0.136235 0)
(4.75163 0.126601 0)
(4.74668 0.125692 0)
(4.73794 0.130595 0)
(4.73171 0.135316 0)
(4.73212 0.136868 0)
(4.73583 0.137327 0)
(4.73743 0.139459 0)
(4.73314 0.144031 0)
(4.72293 0.150349 0)
(4.70767 0.156263 0)
(4.68773 0.161551 0)
(4.66389 0.167916 0)
(4.639 0.17726 0)
(4.61591 0.191968 0)
(5.0101 0.275789 0)
(4.91133 0.179234 0)
(4.82775 0.14233 0)
(4.80137 0.127374 0)
(4.80338 0.121017 0)
(4.80044 0.122893 0)
(4.78275 0.127951 0)
(4.75998 0.130306 0)
(4.74401 0.128862 0)
(4.73801 0.127655 0)
(4.73872 0.130728 0)
(4.74145 0.138675 0)
(4.74346 0.14945 0)
(4.7427 0.160295 0)
(4.73839 0.169842 0)
(4.72834 0.179174 0)
(4.71655 0.189698 0)
(4.70033 0.203078 0)
(5.00828 0.274201 0)
(4.96711 0.222092 0)
(4.93566 0.173023 0)
(4.89903 0.139444 0)
(4.84283 0.131996 0)
(4.78755 0.139808 0)
(4.74499 0.149261 0)
(4.71772 0.151551 0)
(4.7055 0.146413 0)
(4.7056 0.140012 0)
(4.7144 0.138118 0)
(4.7291 0.14212 0)
(4.74805 0.150206 0)
(4.76843 0.159804 0)
(4.78777 0.169724 0)
(4.80129 0.180293 0)
(4.81031 0.192892 0)
(4.81063 0.207975 0)
(4.9718 0.25148 0)
(4.91091 0.211482 0)
(4.87121 0.172481 0)
(4.85749 0.155889 0)
(4.84963 0.158066 0)
(4.84017 0.160325 0)
(4.83064 0.156407 0)
(4.82411 0.146949 0)
(4.82112 0.134997 0)
(4.81989 0.125153 0)
(4.81926 0.120878 0)
(4.81929 0.122739 0)
(4.821 0.129367 0)
(4.82345 0.13921 0)
(4.82577 0.151537 0)
(4.82635 0.166347 0)
(4.82575 0.183906 0)
(4.82548 0.20392 0)
(4.89494 0.304412 0)
(4.89148 0.224399 0)
(4.89577 0.173762 0)
(4.87405 0.144058 0)
(4.84738 0.144547 0)
(4.83688 0.155405 0)
(4.84278 0.160099 0)
(4.85458 0.155593 0)
(4.86567 0.146411 0)
(4.87506 0.138583 0)
(4.88297 0.136001 0)
(4.88775 0.139295 0)
(4.88789 0.146894 0)
(4.8818 0.15698 0)
(4.87117 0.168042 0)
(4.85814 0.180174 0)
(4.84749 0.192986 0)
(4.84147 0.20751 0)
(4.90301 0.242689 0)
(4.91536 0.212845 0)
(4.89182 0.190551 0)
(4.86282 0.172007 0)
(4.84503 0.165679 0)
(4.84455 0.158076 0)
(4.85653 0.147521 0)
(4.87284 0.136692 0)
(4.89088 0.126415 0)
(4.91066 0.118425 0)
(4.93065 0.116075 0)
(4.94747 0.12161 0)
(4.95861 0.134369 0)
(4.96249 0.151382 0)
(4.96003 0.168824 0)
(4.95272 0.184532 0)
(4.94515 0.197486 0)
(4.93772 0.208567 0)
(4.99027 0.227168 0)
(4.97578 0.210353 0)
(4.95431 0.194617 0)
(4.929 0.168444 0)
(4.90734 0.156189 0)
(4.89186 0.151705 0)
(4.88544 0.145699 0)
(4.88649 0.135016 0)
(4.89195 0.122076 0)
(4.89928 0.11261 0)
(4.90733 0.111581 0)
(4.91678 0.120285 0)
(4.92844 0.136147 0)
(4.94216 0.155256 0)
(4.95498 0.173659 0)
(4.96538 0.189346 0)
(4.97089 0.202051 0)
(4.97345 0.212188 0)
(4.93358 0.204924 0)
(4.94753 0.201488 0)
(4.99739 0.195321 0)
(5.02299 0.185421 0)
(5.00773 0.179282 0)
(4.97746 0.170281 0)
(4.95644 0.15553 0)
(4.94571 0.138576 0)
(4.93675 0.123444 0)
(4.92392 0.112313 0)
(4.90679 0.10659 0)
(4.88924 0.107989 0)
(4.87612 0.116884 0)
(4.87021 0.132705 0)
(4.87086 0.152442 0)
(4.8762 0.173478 0)
(4.88327 0.192824 0)
(4.89293 0.208893 0)
(5.00407 0.220426 0)
(4.96649 0.181065 0)
(4.95899 0.173086 0)
(4.96107 0.173088 0)
(4.95569 0.175745 0)
(4.95139 0.172097 0)
(4.9573 0.159288 0)
(4.96743 0.144099 0)
(4.97308 0.1346 0)
(4.9703 0.134103 0)
(4.95907 0.140641 0)
(4.94224 0.150413 0)
(4.92511 0.160227 0)
(4.91189 0.168967 0)
(4.90672 0.176294 0)
(4.90853 0.183 0)
(4.91944 0.188428 0)
(4.93392 0.193738 0)
(4.95779 0.242068 0)
(4.91403 0.206184 0)
(4.933 0.179759 0)
(4.9568 0.182947 0)
(4.96236 0.184841 0)
(4.95986 0.171602 0)
(4.95804 0.149222 0)
(4.95324 0.129898 0)
(4.94297 0.119905 0)
(4.93064 0.117904 0)
(4.92154 0.120132 0)
(4.91978 0.124462 0)
(4.92773 0.130427 0)
(4.94478 0.137918 0)
(4.9686 0.146578 0)
(4.99516 0.155497 0)
(5.02209 0.163561 0)
(5.04588 0.170689 0)
(5.02158 0.253189 0)
(5.04029 0.171341 0)
(5.02753 0.14823 0)
(5.02386 0.162213 0)
(5.02481 0.170459 0)
(5.02833 0.1676 0)
(5.02675 0.161066 0)
(5.01933 0.157835 0)
(5.01103 0.159608 0)
(5.00505 0.162681 0)
(5.00107 0.16194 0)
(4.99664 0.15503 0)
(4.99067 0.143257 0)
(4.98348 0.130774 0)
(4.97683 0.121668 0)
(4.97306 0.119171 0)
(4.97315 0.123013 0)
(4.97937 0.132906 0)
(5.06333 0.206275 0)
(5.0317 0.209208 0)
(4.98255 0.20041 0)
(4.96866 0.184079 0)
(4.98021 0.178605 0)
(4.99783 0.175037 0)
(5.0084 0.165394 0)
(5.01082 0.148977 0)
(5.01044 0.131236 0)
(5.01261 0.119453 0)
(5.01978 0.117955 0)
(5.03094 0.126405 0)
(5.04365 0.140617 0)
(5.05468 0.155516 0)
(5.0631 0.165211 0)
(5.06873 0.167709 0)
(5.07487 0.161539 0)
(5.0819 0.149535 0)
(4.97143 0.265104 0)
(4.99531 0.245855 0)
(4.99472 0.215475 0)
(4.99181 0.172479 0)
(4.98907 0.140088 0)
(5.00135 0.128086 0)
(5.02233 0.135521 0)
(5.03826 0.151399 0)
(5.04396 0.162388 0)
(5.04156 0.160564 0)
(5.03594 0.146385 0)
(5.03284 0.126421 0)
(5.03649 0.108139 0)
(5.04817 0.0960453 0)
(5.06651 0.0903943 0)
(5.08829 0.0891736 0)
(5.11125 0.0893068 0)
(5.13199 0.0894182 0)
(4.93088 0.275458 0)
(4.98388 0.212922 0)
(4.98967 0.194818 0)
(4.99971 0.181719 0)
(5.00262 0.156242 0)
(5.00356 0.126758 0)
(5.01237 0.108299 0)
(5.02799 0.106322 0)
(5.04763 0.114162 0)
(5.06873 0.121752 0)
(5.08824 0.123077 0)
(5.10388 0.117373 0)
(5.11574 0.106745 0)
(5.12501 0.0939678 0)
(5.13299 0.0811349 0)
(5.14012 0.0698999 0)
(5.14697 0.06069 0)
(5.15333 0.0544815 0)
(5.04059 0.290219 0)
(5.07892 0.180778 0)
(5.08193 0.162226 0)
(5.08207 0.163577 0)
(5.07414 0.148821 0)
(5.06702 0.123809 0)
(5.06748 0.10437 0)
(5.07781 0.0965604 0)
(5.0963 0.095396 0)
(5.11852 0.093529 0)
(5.13998 0.0877748 0)
(5.15781 0.0795195 0)
(5.17174 0.0714915 0)
(5.18233 0.0658275 0)
(5.19025 0.062753 0)
(5.19579 0.0615773 0)
(5.20005 0.0608971 0)
(5.20366 0.0595253 0)
(5.07142 0.330284 0)
(5.01732 0.235495 0)
(4.98665 0.196824 0)
(4.99144 0.18035 0)
(5.0215 0.158013 0)
(5.04819 0.121183 0)
(5.0635 0.0808868 0)
(5.0716 0.0525757 0)
(5.07884 0.0414666 0)
(5.0893 0.042128 0)
(5.10379 0.0464485 0)
(5.12114 0.0494967 0)
(5.14 0.0498128 0)
(5.15922 0.0483638 0)
(5.17755 0.0459346 0)
(5.19383 0.0428916 0)
(5.20802 0.0387147 0)
(5.21996 0.0325786 0)
(5.01777 0.402019 0)
(5.02945 0.260125 0)
(5.05218 0.165311 0)
(5.09259 0.130416 0)
(5.12056 0.111825 0)
(5.12632 0.0979957 0)
(5.11934 0.0896483 0)
(5.11405 0.0848227 0)
(5.11893 0.0787883 0)
(5.13416 0.0680557 0)
(5.15456 0.0526325 0)
(5.17446 0.0362981 0)
(5.19129 0.0233294 0)
(5.20569 0.0163316 0)
(5.21935 0.0151147 0)
(5.23251 0.0173304 0)
(5.24562 0.0204863 0)
(5.25686 0.0213125 0)
(5.00618 0.313586 0)
(5.04897 0.226669 0)
(5.08221 0.151064 0)
(5.08737 0.118713 0)
(5.08445 0.115629 0)
(5.09163 0.106116 0)
(5.11175 0.0775632 0)
(5.14069 0.0409853 0)
(5.17261 0.0114636 0)
(5.20203 -0.00399389 0)
(5.22605 -0.0066743 0)
(5.24473 -0.00266374 0)
(5.25991 0.00152087 0)
(5.27327 0.0027797 0)
(5.28643 0.00145362 0)
(5.29881 -0.00122465 0)
(5.31047 -0.00329673 0)
(5.31933 -0.00439734 0)
(5.01705 0.292189 0)
(5.06689 0.154661 0)
(5.11863 0.137794 0)
(5.13142 0.144826 0)
(5.16047 0.13057 0)
(5.20067 0.0970605 0)
(5.22928 0.0620383 0)
(5.23986 0.0373102 0)
(5.23856 0.0235886 0)
(5.23543 0.0154547 0)
(5.23768 0.00826129 0)
(5.24681 0.000627113 0)
(5.2625 -0.00655315 0)
(5.28285 -0.0116772 0)
(5.30562 -0.0131661 0)
(5.32779 -0.0110636 0)
(5.34858 -0.00604351 0)
(5.36663 -0.000640944 0)
(5.0144 0.233984 0)
(5.02425 0.152453 0)
(5.06953 0.111229 0)
(5.12785 0.0843062 0)
(5.19672 0.058369 0)
(5.25415 0.0395955 0)
(5.29408 0.0288434 0)
(5.32396 0.0205487 0)
(5.34908 0.00953603 0)
(5.36953 -0.00312317 0)
(5.38405 -0.0161196 0)
(5.39225 -0.028113 0)
(5.39539 -0.0379776 0)
(5.39586 -0.0454016 0)
(5.3977 -0.0497777 0)
(5.40317 -0.0509539 0)
(5.41377 -0.0491541 0)
(5.42884 -0.0456726 0)
(4.91198 0.217047 0)
(5.00609 0.116464 0)
(5.12367 0.102405 0)
(5.21366 0.0915028 0)
(5.27106 0.0672714 0)
(5.30565 0.0417292 0)
(5.33454 0.0219689 0)
(5.36513 0.00668724 0)
(5.3951 -0.0036427 0)
(5.4211 -0.00784326 0)
(5.44171 -0.00774529 0)
(5.45732 -0.00701078 0)
(5.46875 -0.00857485 0)
(5.47691 -0.0131421 0)
(5.4835 -0.0197079 0)
(5.4897 -0.0265815 0)
(5.4966 -0.0324806 0)
(5.50432 -0.0362889 0)
(4.93789 0.138513 0)
(5.01715 0.0374776 0)
(5.13764 0.0142315 0)
(5.23571 0.00909266 0)
(5.31122 -0.000507791 0)
(5.36692 -0.00880462 0)
(5.4063 -0.01414 0)
(5.43345 -0.0204123 0)
(5.45134 -0.0284784 0)
(5.46083 -0.0369789 0)
(5.46444 -0.0437141 0)
(5.46671 -0.048673 0)
(5.47174 -0.0528483 0)
(5.48115 -0.0568263 0)
(5.49438 -0.0601547 0)
(5.50909 -0.0621796 0)
(5.52348 -0.0625566 0)
(5.53524 -0.0613838 0)
(4.97289 0.153007 0)
(5.10839 0.042039 0)
(5.26335 0.0378377 0)
(5.35189 0.0194467 0)
(5.39526 0.00104692 0)
(5.42329 -0.00688163 0)
(5.45 -0.0109676 0)
(5.47796 -0.0133469 0)
(5.50493 -0.0139521 0)
(5.52891 -0.0126682 0)
(5.54916 -0.0110349 0)
(5.56608 -0.0124954 0)
(5.58063 -0.0189981 0)
(5.59372 -0.0292616 0)
(5.60591 -0.0401348 0)
(5.61691 -0.0487662 0)
(5.62652 -0.0534153 0)
(5.634 -0.0542228 0)
(5.12098 0.0423061 0)
(5.25752 -0.0576627 0)
(5.35717 -0.0477096 0)
(5.40278 -0.0463042 0)
(5.44308 -0.0424206 0)
(5.47677 -0.0402683 0)
(5.49434 -0.0431111 0)
(5.49983 -0.0486999 0)
(5.50403 -0.0544406 0)
(5.51341 -0.0590839 0)
(5.52571 -0.0623112 0)
(5.53385 -0.0648338 0)
(5.53115 -0.067254 0)
(5.51559 -0.0696475 0)
(5.48909 -0.0714021 0)
(5.45811 -0.0719834 0)
(5.42638 -0.0709342 0)
(5.39998 -0.068387 0)
(4.92843 0.0651712 0)
(5.03942 0.00616987 0)
(5.01096 0.00195045 0)
(4.86514 -0.0206804 0)
(4.7215 -0.0302094 0)
(4.60987 -0.0240348 0)
(4.5196 -0.0165422 0)
(4.43266 -0.0158808 0)
(4.33637 -0.0200445 0)
(4.23045 -0.0230906 0)
(4.123 -0.0216476 0)
(4.02164 -0.0171755 0)
(3.92788 -0.013598 0)
(3.83899 -0.0136508 0)
(3.75009 -0.0169673 0)
(3.66019 -0.0217131 0)
(3.5679 -0.0260817 0)
(3.47874 -0.0288205 0)
(-0.00476811 0.0633442 4.58641e-20)
(-0.0131318 0.0265638 -4.55436e-20)
(-0.0031008 -0.00755638 0)
(0.0232278 -0.034793 0)
(0.0656769 -0.0483219 0)
(0.110796 -0.0503006 4.41803e-20)
(0.157805 -0.0465642 0)
(0.196172 -0.0375958 0)
(0.225222 -0.0268919 0)
(0.241967 -0.0157103 0)
(0.245803 -0.00553295 -4.24943e-20)
(0.238 0.00254899 0)
(0.22041 0.00844633 0)
(0.193687 0.0135453 0)
(0.157526 0.0194524 0)
(0.112426 0.027615 -4.09002e-20)
(0.0599628 0.0395327 0)
(0.00170259 0.053647 0)
(-0.0598997 0.0641338 0)
(-0.12127 0.0651558 0)
(-0.178261 0.0572075 0)
(-0.228537 0.0465336 0)
(-0.272394 0.0398664 0)
(-0.31082 0.0392656 -3.83801e-20)
(-0.344347 0.041616 3.80729e-20)
(-0.373134 0.0415821 -3.77658e-20)
(-0.399133 0.0373339 -3.7459e-20)
(-0.424669 0.0295926 0)
(-0.451304 0.0205472 0)
(-0.479516 0.0112642 3.65472e-20)
(-0.508079 0.00409597 3.62483e-20)
(-0.536199 -0.00118183 0)
(-0.560682 -0.00430805 0)
(-0.580258 -0.00320467 3.53739e-20)
(-0.596642 -0.00365218 0)
(-0.602618 0.0025739 0)
(-0.609282 0.00853373 -3.45386e-20)
(-0.61008 0.0120436 0)
(-0.599872 0.0556172 -3.40026e-20)
(-0.628846 0.0713461 -6.7479e-20)
(-0.615473 0.144411 0)
(-0.687962 0.30081 0)
(-0.841543 0.0512106 0)
(-0.716973 -0.274394 0)
(-0.56272 -0.333698 0)
(-0.384209 -0.338867 -6.43722e-20)
(-0.207626 -0.32614 -6.38659e-20)
(-0.0857848 -0.290716 -6.33477e-20)
(-0.00676296 -0.239714 0)
(0.0899853 -0.19935 6.22367e-20)
(0.244433 -0.170554 0)
(0.429312 -0.120762 -6.10619e-20)
(0.601063 -0.0476161 -6.04627e-20)
(0.718272 0.0179246 0)
(0.760849 0.0596107 0)
(0.739621 0.0867606 0)
(0.668353 0.110375 -5.80261e-20)
(0.547199 0.123659 0)
(0.375013 0.119917 0)
(0.157534 0.109852 0)
(-0.0920234 0.0946706 0)
(-0.334013 0.071518 0)
(-0.519065 0.0327029 0)
(-0.619669 -0.0241076 0)
(-0.608217 -0.0921313 0)
(-0.478133 -0.158522 5.2625e-20)
(-0.210645 -0.199429 0)
(0.192023 -0.110954 0)
(0.566073 0.113791 -5.1306e-20)
(0.676462 0.191435 -5.08212e-20)
(0.603945 0.0417464 0)
(0.594114 -0.102547 4.98097e-20)
(0.71364 -0.0873958 -4.93067e-20)
(0.871415 0.041082 0)
(0.995522 -0.00693995 4.82599e-20)
(1.05326 -0.295717 0)
(1.02525 -0.27723 0)
(0.527336 0.273507 -4.68326e-20)
(-0.385208 0.549001 0)
(-1.14627 0.469935 4.56256e-20)
(-1.77933 0.380876 0)
(-2.28541 0.303254 -4.41629e-20)
(-2.69594 0.2423 -4.34438e-20)
(-3.03163 0.195503 -4.27474e-20)
(-3.31132 0.160245 -8.4153e-20)
(-3.54702 0.13349 8.28635e-20)
(-3.74737 0.112473 0)
(-3.91766 0.0949819 0)
(-4.06107 0.0795765 0)
(-4.17919 0.0653174 7.82284e-20)
(-4.27261 0.051591 7.72022e-20)
(-4.3414 0.038176 -7.62299e-20)
(-4.38542 0.0252105 0)
(-4.4048 0.0127746 7.44444e-20)
(-4.40011 0.000903139 7.36253e-20)
(-4.37391 -0.00981941 7.28526e-20)
(-4.32671 -0.0196322 0)
(-4.26004 -0.0284685 0)
(-4.17552 -0.0362983 0)
(-4.07487 -0.0431389 7.01388e-20)
(-3.9598 -0.0490203 0)
(-3.83202 -0.0540047 0)
(-3.6931 -0.0581671 -6.83611e-20)
(-3.54455 -0.0615874 0)
(-3.38775 -0.0643361 0)
(-3.22401 -0.0664659 -6.66729e-20)
(-3.05459 -0.0680139 0)
(-2.88068 -0.0690034 0)
(-2.70347 -0.0694566 6.49846e-20)
(-2.52413 -0.0693986 6.44095e-20)
(-2.34377 -0.068867 0)
(-2.16341 -0.0679113 -6.32291e-20)
(-1.98399 -0.0665868 0)
(-1.80634 -0.0649582 6.19999e-20)
(-1.63115 -0.0631144 0)
(-1.45886 -0.0611585 6.0718e-20)
(-1.28971 -0.0591803 6.00581e-20)
(-1.12371 -0.0572696 0)
(-0.960613 -0.055521 0)
(-0.799975 -0.0539886 0)
(-0.641229 -0.0527127 0)
(-0.483731 -0.0517223 0)
(-0.326745 -0.0510756 0)
(-0.169548 -0.0506064 0)
(-0.0114535 -0.0500812 5.44929e-20)
(0.147591 -0.0497445 -5.3772e-20)
(0.307379 -0.0491668 0)
(0.467469 -0.0481414 0)
(0.626487 -0.0464275 0)
(0.782297 -0.0438145 0)
(0.932145 -0.0401731 -1.00354e-19)
(1.07284 -0.0354557 0)
(1.20107 -0.0297251 9.75181e-20)
(1.31379 -0.0232875 -9.61101e-20)
(1.40889 -0.0166379 0)
(1.48525 -0.00992455 0)
(1.54219 -0.00321823 0)
(1.58018 0.00272784 9.05743e-20)
(1.60129 0.0079582 8.92208e-20)
(1.60577 0.0132795 0)
(1.59491 0.0184239 8.65531e-20)
(1.57053 0.0231458 8.52392e-20)
(1.53341 0.0278497 -8.39385e-20)
(1.4839 0.0325589 0)
(1.42259 0.0364478 0)
(1.35131 0.0382158 -8.01059e-20)
(1.27381 0.0369416 0)
(1.19515 0.0327829 0)
(1.1205 0.0266857 0)
(1.05387 0.0199301 0)
(0.997369 0.0136436 7.39101e-20)
(0.951346 0.00851893 7.26981e-20)
(0.914876 0.00479221 0)
(0.886409 0.0023581 7.02985e-20)
(0.864276 0.000925301 0)
(0.846995 0.000159126 0)
(0.833368 -0.000217086 6.67514e-20)
(0.8225 -0.000385498 0)
(0.813692 -0.000442649 6.44177e-20)
(0.806441 -0.000430165 0)
(0.800294 -0.000356464 0)
(0.794976 -0.000225655 6.09609e-20)
(0.790146 -3.50903e-05 0)
(0.785722 0.000191083 5.8685e-20)
(0.781334 0.000450975 0)
(0.777119 0.00072929 0)
(0.772474 0.0010408 0)
(0.767892 0.00136452 -5.4202e-20)
(0.762167 0.00174738 0)
(0.756467 0.0021443 5.19957e-20)
(0.748435 0.00268194 0)
(0.740412 0.00321657 0)
(0.728279 0.00406888 0)
(0.715607 0.00478024 0)
(0.697546 0.00643522 0)
(0.673946 0.00703098 0)
(0.652278 0.0110911 0)
(0.595006 0.00919145 -8.6868e-20)
(0.59564 0.0220027 0)
(0.432335 0.00841026 0)
(0.0191087 -0.0226456 -1.37626e-19)
(0.0977825 -0.0313095 1.36609e-19)
(0.212077 -0.0667686 0)
(0.335475 -0.104853 -8.96534e-20)
(0.452531 -0.129082 0)
(0.555321 -0.134423 -4.41125e-20)
(0.639071 -0.121547 8.75351e-20)
(0.700626 -0.0945389 8.68467e-20)
(0.739901 -0.0599219 0)
(0.757719 -0.0222962 8.55053e-20)
(0.754548 0.0158702 4.24319e-20)
(0.732259 0.0511465 0)
(0.694349 0.0826187 0)
(0.645171 0.112421 0)
(0.587669 0.140956 0)
(0.526173 0.161799 4.08452e-20)
(0.464646 0.171239 0)
(0.399886 0.171638 -8.04624e-20)
(0.324442 0.166522 0)
(0.23796 0.155616 0)
(0.15057 0.141138 7.86573e-20)
(0.074795 0.125207 0)
(0.0139409 0.106388 -7.74557e-20)
(-0.0411831 0.0842011 3.84117e-20)
(-0.104741 0.062719 -3.80969e-20)
(-0.18369 0.0484055 3.77819e-20)
(-0.275574 0.0470168 3.74672e-20)
(-0.37617 0.0579604 0)
(-0.4803 0.0748358 0)
(-0.583425 0.0893119 -3.65342e-20)
(-0.67973 0.0962497 3.6215e-20)
(-0.7654 0.0938726 0)
(-0.836286 0.083249 0)
(-0.887751 0.0659733 -3.53473e-20)
(-0.924552 0.0433181 0)
(-0.935097 0.0226797 0)
(-0.923619 0.00176336 3.45142e-20)
(-0.902571 -0.0192612 0)
(-0.834785 -0.0232932 -3.39737e-20)
(-0.744973 -0.0373446 6.74563e-20)
(-0.656257 -0.0507825 0)
(-0.453092 0.0286615 0)
(-0.2538 -0.00754935 1.3195e-19)
(-0.0618521 -0.11723 1.3092e-19)
(0.0467446 -0.182234 1.29872e-19)
(0.19811 -0.206827 -6.43888e-20)
(0.341158 -0.131588 6.38338e-20)
(0.449888 -0.0157282 1.89902e-19)
(0.550471 -0.00896179 -1.255e-19)
(0.679969 -0.136813 -6.21462e-20)
(0.804805 -0.295007 0)
(0.885171 -0.378522 6.09906e-20)
(0.924282 -0.347496 -6.04373e-20)
(0.940022 -0.230729 0)
(0.93973 -0.0894056 0)
(0.93423 0.0336535 0)
(0.931055 0.138079 5.79906e-20)
(0.915879 0.25124 0)
(0.849627 0.379084 -1.13466e-19)
(0.698094 0.484054 0)
(0.486544 0.515278 -1.10883e-19)
(0.278849 0.460247 0)
(0.122519 0.329804 1.0839e-19)
(0.0334579 0.142116 0)
(0.0105211 -0.0898351 -1.06186e-19)
(0.0525934 -0.361362 5.25103e-20)
(0.180498 -0.665566 0)
(0.431283 -0.873554 1.03328e-19)
(0.828954 -0.711366 5.12484e-20)
(1.18713 -0.250479 5.07663e-20)
(1.25044 0.0819216 0)
(1.24966 -0.00727347 4.97616e-20)
(1.35432 -0.256571 4.92382e-20)
(1.48543 -0.371237 0)
(1.44566 -0.265968 -4.82664e-20)
(0.744908 0.290469 9.55779e-20)
(-0.33928 0.971761 0)
(-1.22671 1.30262 4.67336e-20)
(-1.89776 1.24471 0)
(-2.37703 1.04397 -1.3614e-19)
(-2.77281 0.850138 0)
(-3.08482 0.683204 1.3198e-19)
(-3.34557 0.551305 4.33769e-20)
(-3.56425 0.449722 -4.25244e-20)
(-3.75296 0.372021 -8.37887e-20)
(-3.91673 0.311343 8.256e-20)
(-4.05917 0.26191 0)
(-4.18187 0.219246 0)
(-4.28541 0.180356 0)
(-4.36967 0.143311 -2.3444e-19)
(-4.43425 0.107045 -7.71798e-20)
(-4.47869 0.0711869 7.62134e-20)
(-4.50272 0.0359092 0)
(-4.50618 0.00160119 7.43143e-20)
(-4.48926 -0.0312825 -7.3617e-20)
(-4.45082 -0.0619848 -7.28434e-20)
(-4.39239 -0.0902614 0)
(-4.31517 -0.11584 0)
(-4.22074 -0.138582 0)
(-4.11076 -0.158486 -7.01274e-20)
(-3.98695 -0.175649 0)
(-3.85091 -0.190242 1.37806e-19)
(-3.70418 -0.202473 2.05006e-19)
(-3.54819 -0.212561 -1.35527e-19)
(-3.38425 -0.220706 0)
(-3.21358 -0.227068 -6.66345e-20)
(-3.03737 -0.231755 0)
(-2.85676 -0.234831 -1.31065e-19)
(-2.67288 -0.236353 6.49602e-20)
(-2.48689 -0.236392 6.43895e-20)
(-2.29986 -0.235048 0)
(-2.11281 -0.232454 1.8966e-19)
(-1.92667 -0.228772 -1.25226e-19)
(-1.74226 -0.224192 -6.19941e-20)
(-1.56028 -0.218973 0)
(-1.38116 -0.213427 -6.0714e-20)
(-1.20512 -0.207829 -1.80164e-19)
(-1.03221 -0.202455 0)
(-0.862163 -0.19761 -1.17404e-19)
(-0.69452 -0.193455 -1.16024e-19)
(-0.528733 -0.190128 -1.14629e-19)
(-0.364179 -0.187692 0)
(-0.200037 -0.186131 0)
(-0.0353778 -0.185144 0)
(0.130313 -0.18467 5.44667e-20)
(0.29715 -0.1845 5.37552e-20)
(0.465352 -0.183922 0)
(0.63463 -0.182298 1.04599e-19)
(0.803931 -0.178881 1.03161e-19)
(0.971502 -0.172937 0)
(1.13502 -0.163909 1.00319e-19)
(1.29182 -0.15155 1.97773e-19)
(1.43914 -0.136066 -9.74834e-20)
(1.57448 -0.118161 -9.60584e-20)
(1.69565 -0.0988113 0)
(1.80052 -0.0789043 0)
(1.88812 -0.0593098 0)
(1.95865 -0.0410222 -9.05383e-20)
(2.01152 -0.0245045 8.91734e-20)
(2.04896 -0.00963511 1.75675e-19)
(2.07362 0.00360316 -8.65139e-20)
(2.08738 0.0152329 8.51869e-20)
(2.09263 0.0256955 8.38921e-20)
(2.09156 0.0353795 0)
(2.08568 0.0441809 0)
(2.0757 0.0514992 -8.00406e-20)
(2.06194 0.0564333 0)
(2.04466 0.0580387 0)
(2.02424 0.0560797 1.52585e-19)
(2.00141 0.0512657 0)
(1.97707 0.0447811 7.38422e-20)
(1.95208 0.0377708 -7.26289e-20)
(1.9271 0.031068 0)
(1.9027 0.0251319 7.02348e-20)
(1.87933 0.0201218 0)
(1.85748 0.0160194 0)
(1.83751 0.0127316 -6.66912e-20)
(1.81968 0.0101482 1.31049e-19)
(1.80403 0.00815769 -6.43617e-20)
(1.79047 0.00664734 0)
(1.77875 0.00551055 0)
(1.76865 0.00465012 6.09114e-20)
(1.75987 0.00400133 0)
(1.75229 0.0035059 5.86383e-20)
(1.74559 0.00315047 0)
(1.73987 0.00290145 0)
(1.73469 0.00282691 0)
(1.73037 0.00286258 5.416e-20)
(1.7261 0.00319675 0)
(1.72252 0.00359179 -5.19559e-20)
(1.71822 0.00457309 0)
(1.71417 0.00536769 0)
(1.7086 0.00748093 9.7388e-20)
(1.70187 0.00852857 -9.52389e-20)
(1.69408 0.0129314 0)
(1.67951 0.0135157 0)
(1.67137 0.0231288 0)
(1.63429 0.0205948 2.60383e-19)
(1.63898 0.0425942 0)
(1.53921 0.0313416 -1.65384e-19)
(-0.00968876 -0.170649 -3.60322e-23)
(0.134394 -0.382723 -1.82102e-19)
(0.338173 -0.498279 0)
(0.532007 -0.522584 1.79116e-19)
(0.700719 -0.491141 0)
(0.837741 -0.425527 0)
(0.941864 -0.337489 -3.11983e-23)
(1.01372 -0.238612 -8.67497e-20)
(1.05717 -0.139287 -8.60351e-20)
(1.07588 -0.043087 -8.54171e-20)
(1.07007 0.047219 0)
(1.04177 0.119464 0)
(0.996943 0.169996 8.3422e-20)
(0.938737 0.20871 1.65599e-19)
(0.862577 0.238217 -1.64379e-19)
(0.762465 0.253681 0)
(0.643267 0.274428 -1.62003e-19)
(0.52463 0.319738 8.04188e-20)
(0.412996 0.36878 0)
(0.29181 0.385604 -1.58468e-19)
(0.157193 0.353786 -7.86433e-20)
(0.00993271 0.294463 1.56109e-19)
(-0.153938 0.25436 7.74095e-20)
(-0.337509 0.266366 0)
(-0.539698 0.314298 -1.52167e-19)
(-0.752944 0.363512 -1.50833e-19)
(-0.965293 0.392801 0)
(-1.1634 0.399423 -1.48199e-19)
(-1.33899 0.386828 0)
(-1.48869 0.358496 -1.45648e-19)
(-1.61124 0.317101 -7.22616e-20)
(-1.70719 0.265582 0)
(-1.77626 0.207041 0)
(-1.81752 0.14366 0)
(-1.83198 0.0777461 0)
(-1.82121 0.0122317 0)
(-1.78422 -0.0519127 0)
(-1.71501 -0.113 -1.3657e-19)
(-1.6177 -0.168175 2.03368e-19)
(-1.50773 -0.217629 0)
(-1.3656 -0.265205 0)
(-1.1654 -0.345331 0)
(-0.964282 -0.510906 -3.94651e-23)
(-0.781657 -0.657465 -1.30665e-19)
(-0.579757 -0.693242 -2.59321e-19)
(-0.381435 -0.702263 2.57322e-19)
(-0.148249 -0.651298 1.27674e-19)
(0.136816 -0.578636 -1.2664e-19)
(0.456536 -0.542939 -2.23345e-23)
(0.773119 -0.535455 -1.24288e-19)
(1.06669 -0.487743 0)
(1.31463 -0.347989 -1.21879e-19)
(1.49616 -0.156523 -2.2048e-23)
(1.62243 -0.000184121 0)
(1.71192 0.0883541 0)
(1.74921 0.133206 1.17066e-19)
(1.69663 0.172896 0)
(1.5586 0.262661 0)
(1.39215 0.423942 -1.1319e-19)
(1.23922 0.584122 -2.23886e-19)
(1.10989 0.636366 1.10709e-19)
(1.00734 0.540535 0)
(0.933236 0.349281 -1.08208e-19)
(0.898082 0.119888 0)
(0.905205 -0.123447 -1.05806e-19)
(0.943362 -0.367281 -1.04972e-19)
(1.00674 -0.651408 2.07893e-19)
(1.07371 -0.951286 1.03016e-19)
(1.1205 -0.890013 0)
(1.19591 -0.324292 -2.02966e-19)
(1.29683 0.048361 0)
(1.46244 -0.228576 -2.9851e-19)
(1.46357 -0.457359 -1.97071e-19)
(1.04284 0.017334 -1.951e-19)
(0.188926 0.889745 1.92968e-19)
(-0.795417 1.59737 -2.85952e-19)
(-1.58338 1.92967 0)
(-2.07125 1.92083 0)
(-2.3771 1.68987 1.82851e-19)
(-2.60879 1.40901 2.70863e-19)
(-2.81154 1.14942 0)
(-2.99574 0.935 -8.78774e-20)
(-3.17105 0.768353 0)
(-3.33878 0.640475 2.55246e-19)
(-3.49877 0.541848 3.57732e-22)
(-3.64952 0.462914 -3.10806e-22)
(-3.78895 0.396279 -1.62693e-19)
(-3.91501 0.336451 0)
(-4.02555 0.279762 1.58172e-19)
(-4.11845 0.223979 2.32778e-22)
(-4.19184 0.168088 0)
(-4.2442 0.111903 0)
(-4.27443 0.0557923 0)
(-4.28197 0.000557256 -1.488e-19)
(-4.26681 -0.0526817 0)
(-4.22959 -0.10313 0)
(-4.17158 -0.149776 0)
(-4.09437 -0.192009 0)
(-3.99976 -0.229534 0)
(-3.88963 -0.262329 -1.40111e-19)
(-3.76579 -0.290587 0)
(-3.62992 -0.314615 -1.3782e-19)
(-3.48355 -0.334767 -1.36669e-19)
(-3.3281 -0.351395 1.35537e-19)
(-3.16481 -0.36482 0)
(-2.9949 -0.375309 1.33304e-19)
(-2.81949 -0.38304 0)
(-2.63972 -0.388115 1.3107e-19)
(-2.45675 -0.390603 -1.2994e-19)
(-2.27173 -0.390607 -3.86346e-19)
(-2.0858 -0.388278 0)
(-1.90006 -0.383826 -3.7931e-19)
(-1.71551 -0.377529 -1.25221e-19)
(-1.53305 -0.369725 0)
(-1.35344 -0.36083 -2.45449e-19)
(-1.1771 -0.351369 -2.42864e-19)
(-1.00425 -0.341801 3.60338e-19)
(-0.834971 -0.332553 0)
(-0.668977 -0.324197 1.17408e-19)
(-0.505714 -0.316996 1.16027e-19)
(-0.344653 -0.311102 3.43871e-19)
(-0.185081 -0.306686 0)
(-0.0260703 -0.303737 0)
(0.133095 -0.301897 0)
(0.292971 -0.301131 1.08854e-19)
(0.453898 -0.300749 0)
(0.615953 -0.299856 0)
(0.778689 -0.297421 -1.0456e-19)
(0.940764 -0.292294 -1.03125e-19)
(1.09989 -0.283407 0)
(1.25312 -0.270034 0)
(1.3975 -0.251897 -1.97717e-19)
(1.53097 -0.229177 0)
(1.65287 -0.202547 1.92091e-19)
(1.76352 -0.173025 1.89273e-19)
(1.8633 -0.141882 0)
(1.95182 -0.110632 0)
(2.02788 -0.0805195 -1.8102e-19)
(2.09027 -0.0524999 -1.79031e-23)
(2.13802 -0.0275657 -1.65433e-23)
(2.17117 -0.00648804 0)
(2.19113 0.0106197 -3.40718e-19)
(2.20056 0.0245275 0)
(2.2032 0.0358796 0)
(2.20294 0.0450727 0)
(2.20266 0.0519813 1.60065e-19)
(2.20353 0.0561013 0)
(2.20528 0.0568505 -3.1007e-19)
(2.20707 0.054442 -1.52554e-19)
(2.20802 0.0497973 0)
(2.20742 0.0441338 -1.47646e-19)
(2.20486 0.0385071 0)
(2.2002 0.0335395 0)
(2.19345 0.0293806 -4.21281e-19)
(2.18468 0.02586 2.76106e-19)
(2.1741 0.0227151 0)
(2.16201 0.0197618 2.66688e-19)
(2.14887 0.0169533 -1.31006e-19)
(2.13523 0.0143473 0)
(2.12169 0.0120311 0)
(2.10877 0.0100665 0)
(2.09689 0.00845774 -3.65354e-19)
(2.08631 0.00717586 0)
(2.07715 0.00615226 -1.1724e-19)
(2.06941 0.00535565 0)
(2.06299 0.00471175 0)
(2.05778 0.00429357 0)
(2.05355 0.00399433 0)
(2.05023 0.00407454 0)
(2.04739 0.00421644 0)
(2.04524 0.00513266 -2.03389e-19)
(2.04283 0.00582127 0)
(2.04138 0.00821456 -9.73601e-20)
(2.03819 0.00938916 2.85628e-19)
(2.03761 0.014602 0)
(2.03142 0.0157569 0)
(2.03332 0.0267934 -1.77683e-19)
(2.01884 0.0261878 -1.73528e-19)
(2.02793 0.0493111 1.69361e-19)
(1.99348 0.0441641 1.65324e-19)
(0.0605869 -0.291043 2.75286e-19)
(0.30916 -0.805162 2.72945e-19)
(0.517772 -0.948514 1.80419e-19)
(0.679989 -0.907502 8.94453e-20)
(0.801983 -0.801337 0)
(0.894582 -0.665025 -1.76057e-19)
(0.959437 -0.509472 8.72865e-20)
(0.997287 -0.353044 0)
(1.0118 -0.204496 8.60212e-20)
(1.00819 -0.0582959 0)
(0.97733 0.075285 -1.69315e-19)
(0.90249 0.181977 0)
(0.802423 0.275611 -8.34588e-20)
(0.707167 0.374418 -1.65686e-19)
(0.598615 0.481414 1.64472e-19)
(0.460891 0.564695 0)
(0.313332 0.582627 1.62106e-19)
(0.157949 0.572021 0)
(-0.00761352 0.594388 0)
(-0.197962 0.635881 1.58433e-19)
(-0.420075 0.667607 0)
(-0.679966 0.700957 -6.17736e-23)
(-0.963715 0.739492 0)
(-1.24136 0.770912 0)
(-1.49462 0.782916 1.30717e-22)
(-1.71964 0.772298 1.5038e-19)
(-1.9202 0.741294 1.48891e-19)
(-2.09752 0.692811 1.47785e-19)
(-2.25124 0.630003 0)
(-2.38045 0.554884 2.90327e-19)
(-2.48414 0.468763 0)
(-2.56114 0.373321 1.42633e-19)
(-2.6107 0.270831 0)
(-2.63267 0.16384 0)
(-2.62661 0.0547867 -1.39269e-19)
(-2.59205 -0.053697 0)
(-2.52998 -0.158532 1.3712e-19)
(-2.44335 -0.258225 2.25478e-22)
(-2.33281 -0.353844 -2.70358e-19)
(-2.19247 -0.443844 2.68176e-19)
(-2.01843 -0.522628 0)
(-1.82476 -0.593558 0)
(-1.63522 -0.670381 1.31045e-19)
(-1.45185 -0.754937 0)
(-1.256 -0.832719 1.29396e-19)
(-1.03996 -0.887836 -1.28404e-19)
(-0.794982 -0.917442 -1.27419e-19)
(-0.516407 -0.933563 0)
(-0.216331 -0.961905 1.25472e-19)
(0.0838912 -0.993306 1.24375e-19)
(0.388327 -0.991627 -2.463e-19)
(0.722192 -0.916896 1.21953e-19)
(1.09303 -0.759177 1.20731e-19)
(1.49616 -0.545961 0)
(1.90582 -0.286238 0)
(2.25701 0.023149 -1.16926e-19)
(2.48197 0.339398 0)
(2.55972 0.596067 0)
(2.50536 0.763977 2.25942e-19)
(2.3817 0.845863 2.23317e-19)
(2.26726 0.820713 0)
(2.17294 0.689489 0)
(2.07469 0.484073 0)
(1.98058 0.189866 0)
(1.91891 -0.160731 2.11394e-19)
(1.88323 -0.46353 -2.09491e-19)
(1.862 -0.73316 -2.07551e-19)
(1.8353 -0.970857 -4.11822e-19)
(1.68805 -0.897131 0)
(1.54148 -0.417919 5.85893e-23)
(1.64839 -0.16434 0)
(1.60636 -0.199517 1.99018e-19)
(0.964554 0.239142 -5.53551e-23)
(0.00559167 1.15486 1.95036e-19)
(-0.941407 1.97005 -1.9253e-19)
(-1.65277 2.39334 4.64878e-22)
(-2.05842 2.41944 0)
(-2.26698 2.20144 -1.84438e-19)
(-2.40323 1.88964 -1.82778e-19)
(-2.52675 1.58331 -3.59786e-19)
(-2.64754 1.31762 0)
(-2.77953 1.10278 1.74555e-19)
(-2.92238 0.935188 0)
(-3.07504 0.804813 -3.39649e-19)
(-3.23214 0.701056 1.67551e-19)
(-3.38889 0.613919 -1.65104e-19)
(-3.53999 0.535747 1.62722e-19)
(-3.68051 0.461199 3.20174e-19)