/*--------------------------------*- C++ -*----------------------------------*\
  =========                 |
  \\      /  F ield         | OpenFOAM: The Open Source CFD Toolbox
   \\    /   O peration     | Website:  https://openfoam.org
    \\  /    A nd           | Version:  7
     \\/     M anipulation  |
\*---------------------------------------------------------------------------*/
FoamFile
{
    version     2.0;
    format      ascii;
    class       volVectorField;
    location    "0.089";
    object      UMean;
}
// * * * * * * * * * * * * * * * * * * * * * * * * * * * * * * * * * * * * * //

dimensions      [0 1 -1 0 0 0 0];

internalField   nonuniform List<vector> 
12225
(
(4.77053 0.164206 0)
(4.17275 0.111441 0)
(3.70904 0.0983 0)
(3.33711 0.0819091 0)
(3.00117 0.068892 0)
(2.6865 0.0593695 0)
(2.39419 0.0511797 0)
(2.12886 0.043362 0)
(1.89416 0.0352199 0)
(1.69098 0.0277079 0)
(1.52037 0.0197571 0)
(1.37941 0.0140576 0)
(1.26783 0.00669486 0)
(1.17941 0.00538423 0)
(1.11079 -0.00303174 0)
(1.06023 0.00382214 0)
(1.01567 -0.0128753 0)
(0.990881 -0.000921269 0)
(5.02168 0.113577 0)
(4.87361 0.0742624 0)
(4.75509 0.0905735 0)
(4.66469 0.0904116 0)
(4.57011 0.0892826 0)
(4.46313 0.0901621 0)
(4.34565 0.090903 0)
(4.22329 0.0896051 0)
(4.09879 0.08651 0)
(3.97719 0.0809325 0)
(3.85772 0.0747284 0)
(3.74699 0.0662016 0)
(3.63894 0.0595992 0)
(3.5449 0.0499746 0)
(3.44818 0.0465383 0)
(3.3714 0.0357186 0)
(3.2816 0.036433 0)
(3.21446 0.015549 0)
(4.9956 0.172213 0)
(4.87445 0.122798 0)
(4.79534 0.131396 0)
(4.76458 0.126405 0)
(4.74867 0.119871 0)
(4.73216 0.117201 0)
(4.71286 0.115965 0)
(4.6915 0.114138 0)
(4.66815 0.110233 0)
(4.64226 0.105144 0)
(4.61376 0.0978033 0)
(4.58243 0.0909091 0)
(4.54961 0.0819542 0)
(4.51458 0.076191 0)
(4.48043 0.0677489 0)
(4.44349 0.0645965 0)
(4.41084 0.0567444 0)
(4.36937 0.048538 0)
(4.98982 0.189943 0)
(4.89159 0.121285 0)
(4.81416 0.120343 0)
(4.7796 0.11672 0)
(4.766 0.110226 0)
(4.75754 0.106802 0)
(4.7513 0.1059 0)
(4.74787 0.104795 0)
(4.74715 0.102435 0)
(4.74768 0.0983382 0)
(4.74841 0.0933994 0)
(4.74785 0.0872609 0)
(4.7465 0.0816341 0)
(4.74298 0.0753792 0)
(4.73993 0.0710186 0)
(4.73428 0.0658297 0)
(4.73178 0.0619108 0)
(4.72386 0.05607 0)
(4.99559 0.214344 0)
(4.92057 0.144553 0)
(4.85078 0.136334 0)
(4.81397 0.132538 0)
(4.79817 0.124347 0)
(4.78873 0.117757 0)
(4.7817 0.113905 0)
(4.77756 0.110877 0)
(4.7768 0.106979 0)
(4.77842 0.102083 0)
(4.78148 0.0962027 0)
(4.78466 0.0900629 0)
(4.78798 0.0837086 0)
(4.79067 0.0778603 0)
(4.79386 0.0725162 0)
(4.79656 0.0674564 0)
(4.80067 0.0629657 0)
(4.80337 0.0565665 0)
(4.99022 0.230401 0)
(4.93474 0.159579 0)
(4.87519 0.142461 0)
(4.83958 0.13657 0)
(4.82367 0.127374 0)
(4.81515 0.118794 0)
(4.80894 0.113032 0)
(4.80495 0.108739 0)
(4.80378 0.104288 0)
(4.8049 0.0989864 0)
(4.80747 0.0930471 0)
(4.81047 0.0867268 0)
(4.81377 0.0805077 0)
(4.81686 0.0745333 0)
(4.82049 0.0690463 0)
(4.824 0.0639003 0)
(4.82859 0.0587323 0)
(4.83238 0.0532303 0)
(4.99979 0.244648 0)
(4.95791 0.17605 0)
(4.90727 0.15204 0)
(4.87293 0.143288 0)
(4.85611 0.133452 0)
(4.84761 0.123597 0)
(4.84182 0.116048 0)
(4.83789 0.110346 0)
(4.83638 0.104999 0)
(4.83704 0.0991956 0)
(4.83922 0.0929115 0)
(4.84194 0.0864051 0)
(4.84506 0.0799932 0)
(4.84804 0.0738076 0)
(4.85154 0.0680364 0)
(4.85479 0.0624843 0)
(4.85906 0.0570894 0)
(4.86231 0.0516286 0)
(5.00088 0.255165 0)
(4.97119 0.190785 0)
(4.93014 0.161792 0)
(4.89885 0.149392 0)
(4.88227 0.138623 0)
(4.87443 0.127703 0)
(4.8698 0.118496 0)
(4.86678 0.111211 0)
(4.8657 0.104787 0)
(4.86651 0.0983326 0)
(4.8688 0.0916335 0)
(4.8717 0.0848519 0)
(4.87503 0.0782093 0)
(4.87821 0.0718523 0)
(4.88187 0.0658052 0)
(4.88517 0.0600532 0)
(4.8894 0.0544434 0)
(4.89257 0.0490021 0)
(5.0026 0.26173 0)
(4.98191 0.202767 0)
(4.94958 0.170746 0)
(4.92224 0.15467 0)
(4.90645 0.142571 0)
(4.89896 0.130792 0)
(4.89499 0.120318 0)
(4.89253 0.111703 0)
(4.89158 0.104297 0)
(4.89225 0.0972658 0)
(4.89434 0.0902344 0)
(4.89715 0.0832243 0)
(4.9005 0.0763933 0)
(4.90383 0.0698613 0)
(4.9076 0.06363 0)
(4.9111 0.0577067 0)
(4.91539 0.0519467 0)
(4.91884 0.0464722 0)
(4.99868 0.268757 0)
(4.98505 0.214475 0)
(4.96016 0.180453 0)
(4.93707 0.161004 0)
(4.92276 0.147207 0)
(4.91598 0.134568 0)
(4.91289 0.123029 0)
(4.91126 0.113148 0)
(4.9108 0.104643 0)
(4.91162 0.0968479 0)
(4.91369 0.0893112 0)
(4.91647 0.0819494 0)
(4.9198 0.0748106 0)
(4.92319 0.0679992 0)
(4.927 0.0614811 0)
(4.93064 0.0553124 0)
(4.93496 0.0493241 0)
(4.93868 0.0437105 0)
(4.99531 0.271164 0)
(4.98612 0.22215 0)
(4.96696 0.187499 0)
(4.9478 0.165415 0)
(4.93505 0.149741 0)
(4.92876 0.136178 0)
(4.92619 0.123843 0)
(4.92521 0.113015 0)
(4.92525 0.103626 0)
(4.92628 0.0951819 0)
(4.92839 0.0872211 0)
(4.93117 0.0795669 0)
(4.93451 0.0721795 0)
(4.93792 0.0651342 0)
(4.94175 0.0583746 0)
(4.94537 0.0519724 0)
(4.9497 0.045754 0)
(4.95341 0.0399173 0)
(5.00233 0.274513 0)
(4.99508 0.229503 0)
(4.97961 0.194957 0)
(4.96341 0.171046 0)
(4.95195 0.153648 0)
(4.94595 0.139079 0)
(4.94355 0.125976 0)
(4.94289 0.114323 0)
(4.94326 0.104094 0)
(4.94449 0.0949683 0)
(4.94669 0.0865248 0)
(4.94952 0.078527 0)
(4.95294 0.0708551 0)
(4.95643 0.0635507 0)
(4.96031 0.0565307 0)
(4.96393 0.0498853 0)
(4.96821 0.04341 0)
(4.97183 0.0373246 0)
(4.9999 0.277372 0)
(4.99562 0.23422 0)
(4.98407 0.200065 0)
(4.97108 0.174822 0)
(4.96141 0.155732 0)
(4.95618 0.139954 0)
(4.95422 0.126017 0)
(4.95401 0.113609 0)
(4.95479 0.102639 0)
(4.95634 0.0928748 0)
(4.95875 0.0839498 0)
(4.96176 0.0756183 0)
(4.96539 0.0677105 0)
(4.96912 0.0602174 0)
(4.97327 0.0530276 0)
(4.97712 0.0462139 0)
(4.98163 0.0395585 0)
(4.98538 0.0332667 0)
(5.0053 0.280375 0)
(5.00372 0.240066 0)
(4.99578 0.206775 0)
(4.98612 0.18059 0)
(4.97874 0.159963 0)
(4.97477 0.142906 0)
(4.9735 0.128056 0)
(4.97381 0.114857 0)
(4.97504 0.103106 0)
(4.9769 0.0925885 0)
(4.97944 0.0830073 0)
(4.98247 0.0741296 0)
(4.98607 0.0657614 0)
(4.98978 0.0578714 0)
(4.99393 0.0503316 0)
(4.99778 0.0432086 0)
(5.00226 0.0362709 0)
(5.00596 0.0297271 0)
(5.00372 0.279042 0)
(5.00467 0.2419 0)
(5.0001 0.209476 0)
(4.99385 0.182589 0)
(4.98922 0.160627 0)
(4.98712 0.142324 0)
(4.98713 0.12654 0)
(4.98848 0.11261 0)
(4.99065 0.100188 0)
(4.99337 0.089047 0)
(4.99662 0.078937 0)
(5.00019 0.0696531 0)
(5.00416 0.0609859 0)
(5.00811 0.0528576 0)
(5.01236 0.0451136 0)
(5.01622 0.0377862 0)
(5.0206 0.0306599 0)
(5.02415 0.0239002 0)
(5.00952 0.281746 0)
(5.01128 0.246676 0)
(5.00903 0.214794 0)
(5.00569 0.187257 0)
(5.00371 0.164069 0)
(5.00356 0.14447 0)
(5.00488 0.127547 0)
(5.00717 0.112636 0)
(5.01012 0.0993298 0)
(5.01346 0.0873789 0)
(5.01715 0.0765541 0)
(5.02104 0.0666813 0)
(5.0252 0.0575596 0)
(5.02934 0.049103 0)
(5.03371 0.0411238 0)
(5.03778 0.0336382 0)
(5.0422 0.0263837 0)
(5.04593 0.0195434 0)
(5.00068 0.279038 0)
(5.00298 0.244433 0)
(5.00283 0.212624 0)
(5.00274 0.184647 0)
(5.00409 0.160598 0)
(5.00674 0.139996 0)
(5.01021 0.122173 0)
(5.01417 0.106549 0)
(5.01846 0.0926916 0)
(5.02293 0.0802961 0)
(5.02754 0.0690936 0)
(5.03214 0.0588763 0)
(5.03678 0.0494243 0)
(5.04124 0.0406255 0)
(5.04573 0.0323087 0)
(5.04985 0.0244902 0)
(5.05414 0.0169696 0)
(5.05778 0.00990085 0)
(5.00161 0.284045 0)
(5.00557 0.246569 0)
(5.00778 0.213201 0)
(5.01035 0.184069 0)
(5.01448 0.158917 0)
(5.01973 0.137287 0)
(5.02536 0.118587 0)
(5.03097 0.102259 0)
(5.03651 0.087852 0)
(5.04194 0.075056 0)
(5.04731 0.0636149 0)
(5.0525 0.0533411 0)
(5.05761 0.0440017 0)
(5.06239 0.0354613 0)
(5.0671 0.0274921 0)
(5.07127 0.0200787 0)
(5.07553 0.0129754 0)
(5.07892 0.00634249 0)
(5.00092 0.278493 0)
(5.0086 0.23896 0)
(5.01511 0.203631 0)
(5.0219 0.172879 0)
(5.02998 0.146565 0)
(5.03887 0.124141 0)
(5.04776 0.104866 0)
(5.05619 0.088043 0)
(5.06411 0.073146 0)
(5.07151 0.0598435 0)
(5.07848 0.0478982 0)
(5.08492 0.037146 0)
(5.09094 0.0274017 0)
(5.09637 0.0185474 0)
(5.10149 0.0103976 0)
(5.10594 0.00290674 0)
(5.11035 -0.00413301 0)
(5.11389 -0.0106433 0)
(5.00367 0.275019 0)
(5.01286 0.231554 0)
(5.02278 0.192793 0)
(5.03409 0.159883 0)
(5.04667 0.132726 0)
(5.05927 0.110387 0)
(5.0709 0.0917544 0)
(5.0813 0.0759442 0)
(5.09072 0.0623414 0)
(5.09937 0.0505313 0)
(5.10744 0.040167 0)
(5.11486 0.0309742 0)
(5.12176 0.0226797 0)
(5.12796 0.0151331 0)
(5.13372 0.00813975 0)
(5.13874 0.0016853 0)
(5.14354 -0.00442696 0)
(5.14742 -0.0100767 0)
(5.00092 0.271466 0)
(5.01239 0.220801 0)
(5.02712 0.17757 0)
(5.04452 0.142636 0)
(5.0628 0.114719 0)
(5.08001 0.0918346 0)
(5.09527 0.0724387 0)
(5.10867 0.0557159 0)
(5.12063 0.041294 0)
(5.13138 0.0289145 0)
(5.14107 0.0182609 0)
(5.14963 0.00900138 0)
(5.15726 0.000819543 0)
(5.1639 -0.00649468 0)
(5.16993 -0.0131413 0)
(5.1751 -0.0191955 0)
(5.18 -0.0248132 0)
(5.18395 -0.0299606 0)
(5.00411 0.266263 0)
(5.01973 0.205604 0)
(5.04078 0.158502 0)
(5.06414 0.124196 0)
(5.08646 0.0991265 0)
(5.1058 0.0797012 0)
(5.12218 0.0636476 0)
(5.13658 0.0499691 0)
(5.14978 0.038252 0)
(5.16195 0.0281841 0)
(5.173 0.0194156 0)
(5.18278 0.0116606 0)
(5.19143 0.00467628 0)
(5.19896 -0.00165446 0)
(5.20572 -0.00747641 0)
(5.21153 -0.0128043 0)
(5.21692 -0.017813 0)
(5.22131 -0.0224227 0)
(4.9998 0.260667 0)
(5.02449 0.188169 0)
(5.0566 0.135526 0)
(5.08957 0.099383 0)
(5.11857 0.0729506 0)
(5.1421 0.0514312 0)
(5.1612 0.0331959 0)
(5.1775 0.0182113 0)
(5.19193 0.0063553 0)
(5.2047 -0.00300985 0)
(5.21586 -0.0107061 0)
(5.22547 -0.0173482 0)
(5.23385 -0.0232765 0)
(5.2411 -0.0286241 0)
(5.24762 -0.0334916 0)
(5.25318 -0.0379254 0)
(5.25834 -0.0420321 0)
(5.26245 -0.0458168 0)
(5.00606 0.245143 0)
(5.04004 0.164989 0)
(5.08339 0.116121 0)
(5.12366 0.0887074 0)
(5.15543 0.0700818 0)
(5.17971 0.053653 0)
(5.19993 0.0387961 0)
(5.21833 0.0262729 0)
(5.23525 0.016133 0)
(5.2502 0.00778781 0)
(5.263 0.000612813 0)
(5.27379 -0.00573663 0)
(5.2831 -0.0114211 0)
(5.29113 -0.0164986 0)
(5.29828 -0.0210934 0)
(5.30437 -0.0252602 0)
(5.30994 -0.0291556 0)
(5.31446 -0.032743 0)
(5.00467 0.228915 0)
(5.05548 0.12747 0)
(5.11757 0.0731786 0)
(5.16822 0.0452975 0)
(5.20297 0.0254103 0)
(5.2276 0.00792912 0)
(5.24822 -0.00603392 0)
(5.26707 -0.0159221 0)
(5.28403 -0.0229311 0)
(5.29861 -0.0285237 0)
(5.31094 -0.0334798 0)
(5.32138 -0.0379782 0)
(5.3305 -0.0420182 0)
(5.33843 -0.0456288 0)
(5.34554 -0.0489002 0)
(5.3516 -0.0519109 0)
(5.35714 -0.0547426 0)
(5.36158 -0.0574145 0)
(5.01404 0.212475 0)
(5.08715 0.11316 0)
(5.16734 0.078061 0)
(5.22479 0.0621179 0)
(5.26075 0.0442209 0)
(5.28707 0.0261993 0)
(5.31084 0.0119936 0)
(5.33274 0.00206433 0)
(5.35161 -0.00519309 0)
(5.36708 -0.0111918 0)
(5.3798 -0.0165184 0)
(5.3905 -0.0212825 0)
(5.3998 -0.0255156 0)
(5.40786 -0.029286 0)
(5.41499 -0.0327087 0)
(5.42104 -0.0358451 0)
(5.42653 -0.0387833 0)
(5.431 -0.041502 0)
(5.01032 0.160295 0)
(5.12291 0.0349007 0)
(5.22222 0.00696234 0)
(5.28008 -0.0023924 0)
(5.31288 -0.0164433 0)
(5.3389 -0.0287414 0)
(5.3637 -0.0363063 0)
(5.38641 -0.0409309 0)
(5.40567 -0.0445918 0)
(5.42147 -0.047979 0)
(5.43468 -0.0510762 0)
(5.44601 -0.0538236 0)
(5.45599 -0.0562517 0)
(5.4647 -0.0584523 0)
(5.47246 -0.060487 0)
(5.47908 -0.0624162 0)
(5.48511 -0.0642644 0)
(5.49004 -0.0660571 0)
(5.01849 0.152754 0)
(5.17973 0.0584258 0)
(5.30354 0.0446755 0)
(5.36451 0.0284742 0)
(5.39794 0.00937097 0)
(5.42675 -0.00430985 0)
(5.45401 -0.012378 0)
(5.47779 -0.0178943 0)
(5.49724 -0.0226162 0)
(5.51293 -0.0269168 0)
(5.52581 -0.030733 0)
(5.53659 -0.0341094 0)
(5.54566 -0.0371046 0)
(5.55321 -0.0398473 0)
(5.55944 -0.0423469 0)
(5.56438 -0.0447141 0)
(5.56831 -0.0469184 0)
(5.57114 -0.049073 0)
(5.01959 0.0195321 0)
(5.22957 -0.0518334 0)
(5.35596 -0.0343846 0)
(5.41057 -0.0428769 0)
(5.44119 -0.05304 0)
(5.46524 -0.0576753 0)
(5.48364 -0.0594707 0)
(5.49498 -0.0607731 0)
(5.49929 -0.0621027 0)
(5.49775 -0.0633545 0)
(5.49153 -0.0644176 0)
(5.48176 -0.0653284 0)
(5.4689 -0.0661054 0)
(5.45376 -0.06683 0)
(5.43624 -0.06747 0)
(5.4174 -0.0681163 0)
(5.39642 -0.0687081 0)
(5.3752 -0.0693854 0)
(4.96798 0.0706721 0)
(5.10286 -0.000529899 0)
(5.07491 -0.000478238 0)
(4.96151 -0.0108894 0)
(4.8344 -0.0185892 0)
(4.71019 -0.0216328 0)
(4.58935 -0.0228563 0)
(4.47027 -0.0236823 0)
(4.35258 -0.024301 0)
(4.23702 -0.0246804 0)
(4.12432 -0.0248549 0)
(4.01519 -0.0248997 0)
(3.9096 -0.0248619 0)
(3.80794 -0.0247786 0)
(3.70951 -0.0246428 0)
(3.61523 -0.0244936 0)
(3.52342 -0.0243074 0)
(3.43649 -0.0241813 0)
(-0.0347579 0.0845347 9.14856e-22)
(-0.0950648 0.0529469 -9.0674e-22)
(-0.120544 0.0152176 0)
(-0.113279 -0.0206034 0)
(-0.0747566 -0.052061 0)
(-0.0130673 -0.0762735 8.73449e-22)
(0.065815 -0.0940892 0)
(0.158104 -0.106564 0)
(0.259192 -0.113173 0)
(0.365346 -0.114847 0)
(0.472355 -0.112104 -8.29772e-22)
(0.576242 -0.106163 0)
(0.673966 -0.0974307 0)
(0.763296 -0.0863569 0)
(0.841972 -0.0733575 0)
(0.908102 -0.0588113 -7.31591e-22)
(0.960177 -0.0430099 0)
(0.99708 -0.0262784 0)
(1.01798 -0.00895012 0)
(1.02166 0.0085682 0)
(1.00792 0.0258345 0)
(0.976896 0.0424288 0)
(0.92932 0.057863 0)
(0.866415 0.0715141 -6.44668e-22)
(0.789971 0.0826308 6.44783e-22)
(0.701954 0.0904921 -6.45565e-22)
(0.605084 0.0950253 -6.46388e-22)
(0.502434 0.0954278 0)
(0.397937 0.0920117 0)
(0.293783 0.0826526 6.45234e-22)
(0.195098 0.067218 6.43083e-22)
(0.101956 0.0537639 0)
(0.0084408 0.0477225 0)
(-0.090705 0.0498487 6.30176e-22)
(-0.195897 0.0590061 0)
(-0.305764 0.067141 0)
(-0.417893 0.0650131 -6.07515e-22)
(-0.52986 0.058108 0)
(-0.640412 0.0610682 -5.85054e-22)
(-0.75195 0.0635292 -1.14457e-21)
(-0.858328 0.0583174 0)
(-0.959204 0.0624846 0)
(-1.0582 0.0574875 0)
(-1.14045 0.0402712 0)
(-1.21061 0.0320796 0)
(-1.27297 0.0366496 -9.68608e-22)
(-1.3327 0.0412083 -9.40483e-22)
(-1.38649 0.0381417 -9.13465e-22)
(-1.43232 0.0344531 0)
(-1.47259 0.0308107 8.67618e-22)
(-1.50793 0.0271038 0)
(-1.53997 0.0241972 -8.36074e-22)
(-1.56861 0.022549 -8.25808e-22)
(-1.59289 0.0211027 0)
(-1.6112 0.0183517 0)
(-1.62278 0.0143739 0)
(-1.6286 0.00949192 -8.13469e-22)
(-1.63046 0.00368766 0)
(-1.62962 -0.00200462 0)
(-1.62543 -0.00609783 0)
(-1.61746 -0.00784241 0)
(-1.60747 -0.00691399 0)
(-1.59797 -0.00448485 0)
(-1.59046 -0.00214607 0)
(-1.58568 0.000802858 0)
(-1.58456 0.00487485 8.63932e-22)
(-1.58652 0.00841493 0)
(-1.59018 0.0099561 0)
(-1.59436 0.00802935 -8.59559e-22)
(-1.59673 0.00350817 -8.53539e-22)
(-1.59522 -3.19739e-05 0)
(-1.59058 -0.000509694 8.41015e-22)
(-1.58597 0.0011725 -8.35689e-22)
(-1.58393 0.00262546 0)
(-1.58538 0.00323694 8.28589e-22)
(-1.59052 0.00614055 0)
(-1.59971 0.0130429 0)
(-1.61082 0.0169932 -8.23499e-22)
(-1.61441 0.012497 0)
(-1.60554 0.00496819 8.19475e-22)
(-1.58478 -0.00235514 0)
(-1.5528 -0.00905458 -8.24633e-22)
(-1.51062 -0.0149682 -8.33378e-22)
(-1.45928 -0.0201066 -8.46594e-22)
(-1.39979 -0.0245263 -1.7283e-21)
(-1.33305 -0.0282917 1.77149e-21)
(-1.25987 -0.0314605 0)
(-1.18102 -0.0340772 0)
(-1.09725 -0.0361938 0)
(-1.00951 -0.0378757 2.00561e-21)
(-0.918266 -0.039182 2.07365e-21)
(-0.824219 -0.040145 -2.143e-21)
(-0.727889 -0.0407967 0)
(-0.629873 -0.0411512 2.28095e-21)
(-0.530685 -0.041239 2.34748e-21)
(-0.430833 -0.041082 2.41123e-21)
(-0.330764 -0.0407099 0)
(-0.230906 -0.0401567 0)
(-0.131615 -0.0394387 0)
(-0.0332054 -0.0385882 2.62737e-21)
(0.0640307 -0.0376054 0)
(0.159806 -0.0365073 0)
(0.253814 -0.0352818 -2.74047e-21)
(0.345724 -0.0339298 0)
(0.435182 -0.0324421 0)
(0.521829 -0.030824 -2.80801e-21)
(0.605308 -0.0290826 0)
(0.685316 -0.0272423 0)
(0.761597 -0.0253334 2.83106e-21)
(0.833969 -0.0233883 2.82989e-21)
(0.902306 -0.0214475 0)
(0.966566 -0.019535 -2.81641e-21)
(1.02679 -0.0176937 0)
(1.08308 -0.0159426 2.79081e-21)
(1.13558 -0.0142944 0)
(1.18447 -0.0127643 2.75605e-21)
(1.22995 -0.0113456 2.73601e-21)
(1.27221 -0.0100287 0)
(1.31144 -0.00880283 0)
(1.34778 -0.00764787 0)
(1.38135 -0.00655211 0)
(1.41222 -0.00549864 0)
(1.44043 -0.00448186 0)
(1.46599 -0.00348312 0)
(1.4889 -0.00250107 2.53604e-21)
(1.50913 -0.00153759 -2.5078e-21)
(1.52667 -0.000589686 0)
(1.54151 0.000337846 0)
(1.55363 0.00123671 0)
(1.56307 0.00209703 0)
(1.56986 0.002908 -4.7253e-21)
(1.57409 0.00365831 0)
(1.57586 0.00433695 4.60936e-21)
(1.57532 0.00493501 -4.55217e-21)
(1.57264 0.00544776 0)
(1.56802 0.00587283 0)
(1.56165 0.00620433 0)
(1.55378 0.0064427 4.33126e-21)
(1.5446 0.00659864 4.27822e-21)
(1.53433 0.00666828 0)
(1.52321 0.00663832 4.17477e-21)
(1.51147 0.00650567 4.12429e-21)
(1.49937 0.00626883 -4.07458e-21)
(1.48714 0.00592204 0)
(1.47506 0.00546458 0)
(1.46338 0.00491201 -3.92975e-21)
(1.45236 0.00430065 0)
(1.44219 0.0036793 0)
(1.43298 0.00309516 0)
(1.42476 0.00258308 0)
(1.4175 0.0021602 3.70143e-21)
(1.4111 0.00182736 3.65753e-21)
(1.40545 0.00157433 0)
(1.40043 0.00138587 3.57115e-21)
(1.39593 0.0012467 0)
(1.39186 0.00114413 0)
(1.38813 0.00106921 3.44465e-21)
(1.38467 0.00101587 0)
(1.38141 0.000980715 3.3621e-21)
(1.3783 0.000961099 0)
(1.37526 0.000956358 0)
(1.37229 0.000965196 3.24076e-21)
(1.36925 0.000989493 0)
(1.3662 0.0010281 3.16152e-21)
(1.36291 0.00108762 0)
(1.35954 0.00116577 0)
(1.35565 0.00127934 0)
(1.35162 0.00141758 -3.00738e-21)
(1.34658 0.00162459 0)
(1.3414 0.00185363 2.93291e-21)
(1.33433 0.00223378 0)
(1.32708 0.00258487 0)
(1.31662 0.00333718 0)
(1.30525 0.00380462 0)
(1.2897 0.00551281 0)
(1.26842 0.00579609 0)
(1.24788 0.0104418 0)
(1.19669 0.0088442 -5.34221e-21)
(1.18393 0.0246234 0)
(1.02934 0.0159429 0)
(0.00114534 0.175178 -2.73421e-21)
(-0.00841712 0.114472 2.71061e-21)
(0.00288199 0.0166758 0)
(0.0297576 -0.0775664 -1.76378e-21)
(0.0764077 -0.157528 0)
(0.136579 -0.218668 -8.74227e-22)
(0.211992 -0.263845 1.71561e-21)
(0.296445 -0.29498 1.69894e-21)
(0.386445 -0.312836 0)
(0.477156 -0.317933 1.65372e-21)
(0.565449 -0.311647 8.30635e-22)
(0.649007 -0.295702 0)
(0.726126 -0.271699 0)
(0.795198 -0.241255 0)
(0.854668 -0.205882 0)
(0.90324 -0.166863 7.3237e-22)
(0.93971 -0.125054 0)
(0.963028 -0.0811788 -1.3407e-21)
(0.972172 -0.0360636 0)
(0.967519 0.00926344 0)
(0.94897 0.0536023 1.26734e-21)
(0.916883 0.0957985 0)
(0.872039 0.134849 -1.25119e-21)
(0.815267 0.169974 6.4546e-22)
(0.747753 0.200431 -6.45596e-22)
(0.671054 0.225025 6.4641e-22)
(0.587229 0.242677 6.47268e-22)
(0.498542 0.252466 0)
(0.407788 0.254762 0)
(0.315926 0.251062 -6.46197e-22)
(0.221329 0.244489 6.14418e-22)
(0.117287 0.246408 0)
(0.00477349 0.260043 0)
(-0.111159 0.272727 -6.31152e-22)
(-0.226365 0.276586 0)
(-0.341719 0.275686 0)
(-0.459543 0.278354 6.08511e-22)
(-0.581813 0.279601 0)
(-0.703271 0.274209 -5.39015e-22)
(-0.823415 0.264522 1.14647e-21)
(-0.943672 0.250613 0)
(-1.05629 0.233607 0)
(-1.16181 0.208783 2.019e-21)
(-1.26053 0.18234 1.95848e-21)
(-1.35472 0.158137 1.89866e-21)
(-1.43547 0.136709 -8.69671e-22)
(-1.50391 0.11849 9.41938e-22)
(-1.56211 0.101475 2.64506e-21)
(-1.61138 0.085725 -1.6829e-21)
(-1.65417 0.0731036 -8.68905e-22)
(-1.69208 0.0647924 0)
(-1.72555 0.0578348 8.37316e-22)
(-1.75356 0.0483803 -7.41678e-22)
(-1.77581 0.0351293 0)
(-1.79206 0.0202383 0)
(-1.80212 0.00708465 0)
(-1.80667 -0.00107795 8.14526e-22)
(-1.8068 -0.00435223 0)
(-1.80393 -0.00649419 -1.57102e-21)
(-1.7989 -0.0111482 0)
(-1.79189 -0.0166411 -1.59294e-21)
(-1.78385 -0.0198797 0)
(-1.7759 -0.0195469 1.62373e-21)
(-1.76956 -0.0158658 0)
(-1.76536 -0.0109145 -1.65517e-21)
(-1.76243 -0.00707564 8.0213e-22)
(-1.75947 -0.00487445 0)
(-1.75602 -0.00319244 1.67471e-21)
(-1.75263 -0.00228434 8.60265e-22)
(-1.75023 -0.0042175 8.54209e-22)
(-1.7476 -0.00880987 0)
(-1.74362 -0.0121019 7.97018e-22)
(-1.74038 -0.0102332 8.36284e-22)
(-1.73992 -0.00432004 0)
(-1.74314 0.00344005 -8.29091e-22)
(-1.74634 0.00927414 1.60443e-21)
(-1.74091 0.00719409 0)
(-1.72375 -0.00422372 8.2391e-22)
(-1.6952 -0.0214658 0)
(-1.65675 -0.0396767 -2.41087e-21)
(-1.60952 -0.0569766 0)
(-1.55408 -0.0727184 2.43445e-21)
(-1.49131 -0.0867122 8.33697e-22)
(-1.42191 -0.0989907 -8.137e-22)
(-1.34656 -0.109666 -1.66864e-21)
(-1.26586 -0.118874 1.71732e-21)
(-1.18032 -0.12674 0)
(-1.09045 -0.133376 0)
(-0.996691 -0.138883 0)
(-0.899264 -0.143335 -5.98046e-21)
(-0.798788 -0.146805 -2.07381e-21)
(-0.695699 -0.149335 2.14313e-21)
(-0.59056 -0.150974 0)
(-0.483843 -0.151767 2.25585e-21)
(-0.376066 -0.151778 -2.34753e-21)
(-0.267671 -0.151079 -2.41126e-21)
(-0.159111 -0.149753 0)
(-0.0507723 -0.147888 0)
(0.0570028 -0.145555 0)
(0.163932 -0.142824 -2.62731e-21)
(0.269746 -0.13973 0)
(0.37418 -0.136288 5.4017e-21)
(0.476955 -0.132485 8.20852e-21)
(0.577754 -0.128308 -5.52443e-21)
(0.676237 -0.12373 0)
(0.772058 -0.118768 -2.79833e-21)
(0.864865 -0.113447 0)
(0.954365 -0.107829 -5.64781e-21)
(1.04032 -0.10199 2.82371e-21)
(1.12256 -0.0960313 2.82312e-21)
(1.20099 -0.0900614 0)
(1.27557 -0.0841825 8.44292e-21)
(1.34636 -0.0784921 -5.60415e-21)
(1.41346 -0.0730589 -2.79054e-21)
(1.47704 -0.0679274 0)
(1.53725 -0.0631271 -2.75576e-21)
(1.59432 -0.0586469 -8.20319e-21)
(1.64843 -0.0544558 0)
(1.69976 -0.0505203 -5.37949e-21)
(1.74845 -0.0467908 -5.33201e-21)
(1.79461 -0.0432254 -5.28258e-21)
(1.8383 -0.03978 0)
(1.87957 -0.0364169 0)
(1.91842 -0.0331048 0)
(1.95484 -0.029834 2.53359e-21)
(1.9888 -0.0265938 2.50741e-21)
(2.02028 -0.0233808 0)
(2.04925 -0.0202052 4.89807e-21)
(2.0757 -0.017084 4.83993e-21)
(2.09962 -0.0140414 0)
(2.12104 -0.0111067 4.72444e-21)
(2.14001 -0.00831197 9.33038e-21)
(2.15661 -0.0056892 -4.60847e-21)
(2.17095 -0.00326546 -4.54949e-21)
(2.18317 -0.00105999 0)
(2.19341 0.000914485 0)
(2.20184 0.00265021 0)
(2.20865 0.00414822 -4.3303e-21)
(2.21401 0.00541745 4.27608e-21)
(2.21812 0.00646346 8.44912e-21)
(2.22113 0.00728696 -4.17378e-21)
(2.22317 0.00789292 4.12248e-21)
(2.22439 0.00828769 4.07357e-21)
(2.2249 0.00847137 0)
(2.2248 0.00844196 0)
(2.2242 0.00820315 -3.92846e-21)
(2.22321 0.00777148 0)
(2.22193 0.00718277 0)
(2.22049 0.00649129 7.57983e-21)
(2.21898 0.00575769 0)
(2.2175 0.00503515 3.70059e-21)
(2.21613 0.00436188 -3.65652e-21)
(2.21491 0.00375977 0)
(2.21389 0.00323733 3.57031e-21)
(2.21308 0.00279416 0)
(2.21248 0.00242518 0)
(2.21209 0.00212354 -3.44369e-21)
(2.21188 0.00188216 6.80456e-21)
(2.21181 0.00169499 -3.36116e-21)
(2.21188 0.00155652 0)
(2.21202 0.00146448 0)
(2.21223 0.00141517 3.2398e-21)
(2.21242 0.00141338 0)
(2.2126 0.00145421 3.16051e-21)
(2.21266 0.00155727 0)
(2.21263 0.00170487 0)
(2.21229 0.00195514 0)
(2.21177 0.00224134 3.00652e-21)
(2.21067 0.00273199 0)
(2.20921 0.00320102 -2.93206e-21)
(2.20681 0.00414051 0)
(2.2036 0.00482246 0)
(2.19915 0.00670159 5.64864e-21)
(2.19242 0.00752124 -5.58021e-21)
(2.1852 0.0116012 0)
(2.17054 0.012094 0)
(2.16102 0.0218937 0)
(2.12602 0.020579 1.60071e-20)
(2.12094 0.0471997 0)
(2.03249 0.0431197 -1.04579e-20)
(0.0196314 0.110974 4.33916e-25)
(0.0545617 0.0590765 -3.61047e-21)
(0.100209 -0.0502823 0)
(0.148302 -0.16241 3.53325e-21)
(0.206101 -0.263124 0)
(0.272588 -0.345805 0)
(0.343889 -0.408574 -1.72263e-23)
(0.415055 -0.449575 -1.70054e-21)
(0.482766 -0.469161 -1.64519e-21)
(0.54528 -0.46929 -1.65519e-21)
(0.601948 -0.453295 0)
(0.652507 -0.4244 0)
(0.696654 -0.384943 1.49038e-21)
(0.733592 -0.336727 2.88885e-21)
(0.762242 -0.281537 -2.79674e-21)
(0.781957 -0.220683 0)
(0.792312 -0.154936 -2.62468e-21)
(0.792843 -0.0855789 1.34162e-21)
(0.782316 -0.0147408 0)
(0.759904 0.0552144 -2.4425e-21)
(0.725016 0.122347 -1.26817e-21)
(0.677979 0.185193 2.3923e-21)
(0.61986 0.242759 1.25203e-21)
(0.552565 0.294068 0)
(0.477885 0.337783 -2.3998e-21)
(0.397684 0.372146 -2.41284e-21)
(0.313816 0.395622 0)
(0.227902 0.407256 -2.43667e-21)
(0.141208 0.407001 0)
(0.0532022 0.399485 -2.44074e-21)
(-0.0411061 0.403313 -1.25949e-21)
(-0.14122 0.418235 0)
(-0.239837 0.429573 0)
(-0.335778 0.436044 0)
(-0.430859 0.442543 0)
(-0.526305 0.449775 0)
(-0.620571 0.452708 0)
(-0.713578 0.451153 -2.1939e-21)
(-0.80506 0.447584 3.26478e-21)
(-0.895017 0.436527 0)
(-0.983191 0.417436 0)
(-1.06885 0.396132 0)
(-1.15266 0.366655 -1.28862e-22)
(-1.23379 0.328318 -1.96042e-21)
(-1.31041 0.289656 -3.66583e-21)
(-1.38147 0.254721 3.54521e-21)
(-1.4471 0.223432 1.64547e-21)
(-1.507 0.19426 -1.73161e-21)
(-1.56193 0.168002 1.39056e-22)
(-1.61217 0.145819 -1.50627e-21)
(-1.65685 0.127104 0)
(-1.6951 0.109435 -1.45578e-21)
(-1.72701 0.0907583 1.2599e-22)
(-1.75352 0.0706374 0)
(-1.77588 0.0500028 0)
(-1.79413 0.0298835 1.44536e-21)
(-1.80764 0.0111892 0)
(-1.81437 -0.00473668 0)
(-1.81324 -0.0176029 -1.3787e-21)
(-1.80568 -0.0277775 -2.97186e-21)
(-1.79481 -0.0340185 1.59322e-21)
(-1.7834 -0.0346051 0)
(-1.77327 -0.0295707 -1.62392e-21)
(-1.7649 -0.0213167 0)
(-1.75781 -0.0130181 -1.46384e-21)
(-1.7517 -0.00691404 -1.66686e-21)
(-1.7466 -0.00372953 3.17453e-21)
(-1.74284 -0.00207755 1.51418e-21)
(-1.7401 -0.00103813 0)
(-1.73816 -0.00313783 -3.18268e-21)
(-1.73707 -0.00841684 0)
(-1.7374 -0.0099729 -4.78574e-21)
(-1.73919 -0.00390258 -3.12441e-21)
(-1.7399 0.00421757 -3.10164e-21)
(-1.73522 0.00669173 3.08129e-21)
(-1.72109 -5.04141e-05 -4.66805e-21)
(-1.69575 -0.0158265 0)
(-1.66083 -0.0383547 0)
(-1.61868 -0.0640591 3.03855e-21)
(-1.57071 -0.0898607 4.63696e-21)
(-1.51704 -0.114265 0)
(-1.45766 -0.13659 -1.60912e-21)
(-1.39256 -0.15661 0)
(-1.32192 -0.174331 4.88293e-21)
(-1.24601 -0.189865 8.98454e-23)
(-1.16518 -0.203388 -8.26342e-23)
(-1.07979 -0.215084 -3.51816e-21)
(-0.990264 -0.225109 0)
(-0.897002 -0.233564 3.7753e-21)
(-0.800431 -0.240501 5.8597e-23)
(-0.701025 -0.245941 0)
(-0.599255 -0.249919 0)
(-0.495616 -0.252467 0)
(-0.390595 -0.253658 -4.53648e-21)
(-0.284674 -0.253575 0)
(-0.178293 -0.252338 0)
(-0.0718636 -0.250084 0)
(0.0342496 -0.24695 0)
(0.139751 -0.243068 0)
(0.244398 -0.238538 -5.21272e-21)
(0.347968 -0.233433 0)
(0.450228 -0.227767 -5.40152e-21)
(0.550909 -0.221526 -5.46798e-21)
(0.649692 -0.214673 5.52426e-21)
(0.746216 -0.207175 0)
(0.840101 -0.199056 5.60601e-21)
(0.930986 -0.190349 0)
(1.01857 -0.18116 5.6476e-21)
(1.1026 -0.171631 -5.65434e-21)
(1.18294 -0.161926 -1.69352e-20)
(1.25949 -0.152225 0)
(1.33228 -0.142702 -1.68604e-20)
(1.40138 -0.133507 -5.58619e-21)
(1.46696 -0.124755 0)
(1.5292 -0.116523 -1.10717e-20)
(1.58831 -0.108838 -1.09998e-20)
(1.6445 -0.101682 1.63885e-20)
(1.698 -0.094999 0)
(1.74898 -0.0887314 5.37927e-21)
(1.79756 -0.0828044 5.3318e-21)
(1.84385 -0.0771452 1.58372e-20)
(1.8879 -0.0716807 0)
(1.92974 -0.0663504 0)
(1.96935 -0.0611119 0)
(2.00673 -0.0559394 5.06196e-21)
(2.04182 -0.0508119 0)
(2.07462 -0.0457297 0)
(2.10509 -0.0407093 -4.89788e-21)
(2.13322 -0.0357786 -4.83975e-21)
(2.15903 -0.0309763 0)
(2.18256 -0.0263477 0)
(2.20389 -0.0219409 -9.33005e-21)
(2.22312 -0.017801 0)
(2.24038 -0.0139684 9.10043e-21)
(2.25579 -0.0104743 8.98489e-21)
(2.26949 -0.00734215 0)
(2.28162 -0.00458495 0)
(2.29232 -0.00220309 -8.65698e-21)
(2.30174 -0.0001903 -1.78513e-24)
(2.31005 0.0014705 -1.58389e-24)
(2.31741 0.00280276 0)
(2.32398 0.00383392 -1.64896e-20)
(2.32991 0.00458566 0)
(2.33531 0.00507424 0)
(2.34024 0.00531285 0)
(2.34475 0.00531651 7.85673e-21)
(2.34885 0.00510947 0)
(2.35254 0.00473193 -1.53409e-20)
(2.35585 0.00423777 -7.57935e-21)
(2.35883 0.00368271 0)
(2.36151 0.00311378 -7.40051e-21)
(2.36396 0.00256355 0)
(2.36624 0.00205033 0)
(2.36842 0.00158224 -2.14202e-20)
(2.37054 0.00116244 1.411e-20)
(2.37265 0.000792747 0)
(2.37478 0.000475418 1.3774e-20)
(2.37698 0.000212228 -6.80404e-21)
(2.37924 5.34025e-06 0)
(2.38159 -0.00014594 0)
(2.38401 -0.00023901 0)
(2.3865 -0.000277713 -1.94372e-20)
(2.38903 -0.000251973 0)
(2.39158 -0.000170998 -6.32062e-21)
(2.39412 -2.45313e-06 0)
(2.39659 0.000223744 0)
(2.39899 0.000596931 0)
(2.40118 0.00101697 0)
(2.40324 0.00172511 0)
(2.40482 0.00240942 0)
(2.40629 0.00372723 -1.15779e-20)
(2.40669 0.00475528 0)
(2.40723 0.00728923 -5.64811e-21)
(2.40536 0.00870178 1.6734e-20)
(2.40465 0.0138831 0)
(2.39822 0.0156056 0)
(2.39629 0.027036 -1.07665e-20)
(2.38057 0.0290674 -1.06655e-20)
(2.37914 0.0562635 1.05352e-20)
(2.34717 0.061228 1.04568e-20)
(0.010366 0.0177763 5.46219e-21)
(0.05135 -0.0596849 5.42461e-21)
(0.10761 -0.174814 3.5823e-21)
(0.178383 -0.297453 1.76752e-21)
(0.254385 -0.409896 0)
(0.325082 -0.496569 -3.42342e-21)
(0.384792 -0.551781 1.65765e-21)
(0.431587 -0.577352 0)
(0.467025 -0.577404 1.64656e-21)
(0.493651 -0.557296 0)
(0.513301 -0.522857 -3.04724e-21)
(0.528197 -0.477685 0)
(0.541156 -0.423203 -1.49146e-21)
(0.552088 -0.360813 -2.89089e-21)
(0.558155 -0.292334 2.79866e-21)
(0.55819 -0.219262 0)
(0.551147 -0.141582 2.62634e-21)
(0.535839 -0.0582891 0)
(0.510634 0.0301198 0)
(0.474971 0.120238 2.44419e-21)
(0.428255 0.208051 0)
(0.370867 0.290135 -1.46571e-22)
(0.304299 0.363694 0)
(0.231013 0.426421 0)
(0.15342 0.47692 1.34879e-22)
(0.0733463 0.514517 2.41475e-21)
(-0.00774305 0.538968 2.29904e-21)
(-0.0890792 0.550559 2.43853e-21)
(-0.171302 0.553488 0)
(-0.259549 0.559738 4.76197e-21)
(-0.352793 0.571189 0)
(-0.444044 0.578578 2.29571e-21)
(-0.53258 0.582391 0)
(-0.619472 0.584951 0)
(-0.704459 0.586433 -2.2085e-21)
(-0.786188 0.5848 0)
(-0.864534 0.581346 2.11803e-21)
(-0.939734 0.57653 1.318e-22)
(-1.01019 0.566147 -4.14529e-21)
(-1.07669 0.549624 3.88488e-21)
(-1.13974 0.528749 0)
(-1.19814 0.50222 0)
(-1.2518 0.467731 1.59694e-21)
(-1.30218 0.426989 0)
(-1.35002 0.384433 1.76685e-21)
(-1.39464 0.343188 -1.70516e-21)
(-1.43547 0.304357 -1.6467e-21)
(-1.47261 0.268512 0)
(-1.50662 0.236188 1.5461e-21)
(-1.53715 0.207411 1.50709e-21)
(-1.5639 0.181231 -2.63565e-21)
(-1.58696 0.156089 1.45624e-21)
(-1.60712 0.130523 1.44387e-21)
(-1.62529 0.104102 0)
(-1.64222 0.0775229 0)
(-1.65809 0.0516914 -1.44542e-21)
(-1.67221 0.0270705 0)
(-1.68328 0.00405054 0)
(-1.69054 -0.0165009 2.94989e-21)
(-1.69356 -0.0329688 2.9716e-21)
(-1.69344 -0.0427672 0)
(-1.69134 -0.0450625 0)
(-1.68777 -0.041477 0)
(-1.68253 -0.0347124 0)
(-1.67596 -0.0270294 3.1184e-21)
(-1.66906 -0.020171 -2.94214e-21)
(-1.66314 -0.0148562 -3.17369e-21)
(-1.65939 -0.0104866 -6.18004e-21)
(-1.65756 -0.00727464 0)
(-1.65633 -0.00748924 1.76114e-22)
(-1.65681 -0.0100458 0)
(-1.65995 -0.00931986 3.14628e-21)
(-1.66075 -0.00589752 1.63608e-22)
(-1.65359 -0.00662746 3.10061e-21)
(-1.63646 -0.0159365 -3.08028e-21)
(-1.60944 -0.0340992 1.7064e-22)