/*--------------------------------*- C++ -*----------------------------------*\
  =========                 |
  \\      /  F ield         | OpenFOAM: The Open Source CFD Toolbox
   \\    /   O peration     | Website:  https://openfoam.org
    \\  /    A nd           | Version:  7
     \\/     M anipulation  |
\*---------------------------------------------------------------------------*/
FoamFile
{
    version     2.0;
    format      ascii;
    class       volScalarField;
    location    "0.11";
    object      epsilon;
}
// * * * * * * * * * * * * * * * * * * * * * * * * * * * * * * * * * * * * * //

dimensions      [0 2 -3 0 0 0 0];

internalField   nonuniform List<scalar> 
12225
(
261.514
229.335
202.526
181.49
166.166
155.708
148.934
144.736
142.233
140.79
139.975
139.509
139.222
139.016
138.839
138.655
138.503
139.426
74.4046
97.5838
104.478
109.11
114.653
121.082
127.673
133.872
139.399
144.161
148.165
151.472
154.174
156.361
158.135
159.532
160.847
161.513
31.9472
44.3634
51.5604
56.3001
60.1564
63.8203
67.4509
71.0089
74.4205
77.6231
80.5731
83.2485
85.6472
87.7804
89.6707
91.3374
92.8401
94.1205
20.8063
26.6664
31.0985
34.3353
36.8377
38.9676
40.91
42.7402
44.4856
46.152
47.7348
49.2267
50.6223
51.9192
53.1189
54.2246
55.2436
56.1647
17.0808
19.8449
22.285
24.2538
25.8341
27.1501
28.2915
29.3139
30.252
31.1266
31.9488
32.7239
33.4544
34.1416
34.787
35.3916
35.9559
36.4712
15.6188
16.8451
18.1014
19.2189
20.1692
20.9755
21.6677
22.2717
22.8086
23.2941
23.7389
24.1502
24.5327
24.8898
25.2236
25.5359
25.8269
26.0904
15.0057
15.4484
16.0094
16.5717
17.0871
17.5434
17.9418
18.289
18.5933
18.8628
19.1039
19.3218
19.5201
19.7018
19.8689
20.0231
20.1649
20.2901
14.7446
14.7908
14.9478
15.1535
15.3702
15.5784
15.7687
15.9379
16.0867
16.2172
16.332
16.4332
16.523
16.603
16.6745
16.7386
16.7958
16.8434
14.6329
14.4844
14.4155
14.4005
14.4178
14.4516
14.4914
14.5307
14.5667
14.598
14.6244
14.646
14.6633
14.6768
14.687
14.6942
14.6986
14.6986
14.5847
14.3444
14.1561
14.0122
13.9029
13.8191
13.7526
13.6975
13.65
13.6073
13.5679
13.5307
13.4951
13.4607
13.4272
13.3945
13.3624
13.33
14.5634
14.2814
14.0338
13.8196
13.6356
13.4773
13.3398
13.2189
13.1112
13.0141
12.9256
12.8441
12.7685
12.6978
12.6314
12.5687
12.5093
12.4529
14.5542
14.2552
13.9821
13.7353
13.5138
13.3155
13.1377
12.9776
12.8327
12.7008
12.58
12.4687
12.3658
12.2701
12.1808
12.0972
12.0187
11.9452
14.5491
14.2419
13.9563
13.6925
13.4504
13.2288
13.0262
12.8409
12.6711
12.5151
12.3713
12.2385
12.1153
12.0008
11.894
11.7942
11.7009
11.6142
14.546
14.2346
13.943
13.6708
13.4177
13.183
12.9656
12.7644
12.5782
12.4056
12.2455
12.0968
11.9583
11.8292
11.7086
11.5958
11.4902
11.3926
14.544
14.2306
13.9366
13.661
13.4033
13.1626
12.9382
12.7289
12.5339
12.3521
12.1824
12.024
11.876
11.7374
11.6076
11.4858
11.3717
11.2662
14.5428
14.2284
13.9336
13.6572
13.3981
13.1556
12.9287
12.7164
12.5179
12.3322
12.1583
11.9954
11.8426
11.6993
11.5647
11.4381
11.3193
11.2093
14.5422
14.2274
13.9327
13.6564
13.3975
13.1549
12.9278
12.7151
12.5159
12.3293
12.1543
11.9901
11.836
11.6911
11.5549
11.4266
11.306
11.1943
14.5422
14.2276
13.9334
13.6578
13.3997
13.158
12.9317
12.7198
12.5213
12.3353
12.1608
11.9971
11.8433
11.6987
11.5626
11.4345
11.314
11.2022
14.5433
14.2297
13.9366
13.6624
13.4058
13.1657
12.9411
12.7309
12.5342
12.3499
12.1772
12.0151
11.8629
11.7198
11.5852
11.4585
11.3393
11.2289
14.5456
14.2343
13.9436
13.6717
13.4176
13.1802
12.9585
12.7514
12.5579
12.3768
12.2073
12.0485
11.8996
11.7597
11.6283
11.5047
11.3886
11.281
14.5493
14.2418
13.9546
13.6865
13.4365
13.2038
12.9871
12.7855
12.5976
12.4225
12.2591
12.1063
11.9635
11.8297
11.7043
11.5866
11.4763
11.3744
14.5555
14.2545
13.9745
13.7145
13.4739
13.2519
13.0473
12.8585
12.684
12.5226
12.3729
12.2338
12.1044
11.9837
11.8711
11.7659
11.6674
11.5767
14.567
14.2806
14.0189
13.7812
13.5665
13.3734
13.1997
13.0426
12.8995
12.7687
12.6486
12.5378
12.4354
12.34
12.2508
12.1669
12.088
12.015
14.5931
14.349
14.1441
13.9723
13.8286
13.7084
13.6062
13.5166
13.4363
13.3633
13.2959
13.2322
13.171
13.1118
13.0542
12.998
12.9433
12.8914
14.6719
14.5671
14.5334
14.5367
14.5583
14.5882
14.6182
14.6434
14.6616
14.6705
14.6701
14.6614
14.6455
14.6239
14.5977
14.5681
14.5361
14.5038
14.9618
15.3045
15.7118
16.0879
16.4099
16.6789
16.8973
17.064
17.1858
17.2718
17.3296
17.366
17.3864
17.3952
17.3961
17.3917
17.3844
17.3764
16.0826
17.7386
19.068
20.0268
20.7391
21.2726
21.6493
21.9102
22.0911
22.2187
22.312
22.3848
22.4469
22.5051
22.5637
22.6257
22.6927
22.7655
20.4114
25.6123
28.3433
29.7401
30.5937
31.1244
31.4547
31.6797
31.8639
32.0449
32.243
32.469
32.7273
33.0182
33.3398
33.6887
34.0612
34.4515
38.6011
49.0459
52.2929
53.1772
53.4513
53.5604
53.708
54.0106
54.498
55.1557
55.9586
56.8809
57.8978
58.9865
60.1269
61.3025
62.5022
63.7122
159.121
148.102
138.017
128.818
120.586
113.348
107.091
101.757
97.2571
93.4912
90.3597
87.7707
85.642
83.9017
82.4877
81.3467
80.4338
79.7109
0.735881
0.681688
1.02054
1.29088
1.5269
1.76728
2.05193
2.40173
2.84334
3.40093
4.04394
4.70036
5.33785
5.93267
6.47079
6.9461
7.35816
7.71015
8.00728
8.25589
8.46303
8.63615
8.78197
8.90281
8.98772
8.99104
8.77629
8.89217
9.22167
39.1391
39.3813
39.4628
39.6972
9.32047
39.4819
9.29744
39.8453
40.4873
40.8838
40.5672
41.9783
43.4422
44.907
46.3709
47.8344
49.2988
50.7655
52.2364
53.7133
55.1979
56.6918
58.1964
59.7131
61.2431
62.7872
64.3463
65.921
67.5117
69.1187
70.7421
72.3817
74.0372
75.7083
77.3942
79.0942
80.8074
82.5325
84.2685
86.0138
87.767
89.5263
91.2902
93.0566
94.8236
96.5893
98.3515
100.108
101.857
103.598
105.332
107.041
108.712
110.345
111.938
113.491
115
116.463
117.875
119.234
120.538
121.782
122.966
124.086
125.14
126.128
127.047
127.896
128.675
129.382
130.019
130.583
131.076
131.498
131.849
132.132
132.346
132.495
132.578
132.599
132.56
132.462
132.308
132.101
131.842
131.536
131.184
130.789
130.353
129.878
129.368
128.823
128.245
127.636
126.997
126.328
125.629
124.902
124.143
123.353
122.529
121.669
120.769
119.826
118.835
117.791
116.686
115.515
114.27
112.943
111.523
110.003
108.37
106.615
104.727
102.698
100.52
98.2173
95.9179
94.2188
93.7036
93.3419
92.8605
92.2173
91.3939
90.3797
89.1695
87.7636
86.1655
84.3796
82.4378
80.3383
78.119
75.8245
73.488
71.5288
69.7482
71.268
70.6916
16.5312
16.5839
16.7136
16.9032
16.708
16.2837
15.7156
15.0678
14.3965
13.7303
13.0921
12.5499
1.75255
1.19913
1.20342
1.30271
1.45721
1.67003
1.95078
2.30983
2.74856
3.26382
3.83461
4.42751
5.01241
5.56693
6.07754
6.53855
6.95042
7.31798
7.64925
7.95475
8.24773
8.54566
8.87378
9.2723
9.80866
10.5822
11.6211
12.0303
12.3932
14.2421
14.9632
15.5198
15.8867
15.7055
17.3744
17.4722
18.898
19.6661
20.4313
21.1538
21.7951
22.4143
23.0229
23.6292
24.2359
24.8445
25.4559
26.0708
26.6898
27.3133
27.9417
28.5754
29.2146
29.8595
30.5104
31.1672
31.8301
32.4991
33.1741
33.8551
34.5419
35.2343
35.932
36.6349
37.3425
38.0545
38.7704
39.4898
40.2122
40.9369
41.6634
42.3909
43.1188
43.8461
44.572
45.2955
46.0156
46.7314
47.4439
48.16
48.871
49.5705
50.2566
50.9283
51.5845
52.2239
52.8455
53.4478
54.0298
54.5901
55.1277
55.6415
56.1305
56.5938
57.0306
57.4402
57.8218
58.175
58.4993
58.7942
59.0595
59.2951
59.5007
59.6765
59.8226
59.9392
60.0267
60.0855
60.1161
60.1191
60.0953
60.0454
59.9703
59.8708
59.7481
59.603
59.4367
59.2501
59.0443
58.8203
58.5792
58.3218
58.0491
57.7619
57.4608
57.1465
56.8194
56.4797
56.1275
55.7627
55.3848
54.9934
54.5874
54.1658
53.7271
53.2694
52.7906
52.2883
51.7596
51.2013
50.6103
49.9828
49.3155
48.6052
47.8507
47.054
46.2315
45.4233
44.7531
44.2137
43.6596
43.0446
42.3571
41.5927
40.7498
39.8291
38.833
37.7653
36.6316
35.4404
34.1992
32.921
31.6197
30.3245
29.0874
27.9101
26.8179
25.4569
20.9936
19.1033
18.5788
15.9009
13.9887
12.7172
11.7967
11.0722
10.4874
10.0237
9.70477
9.76793
3.22704
1.88486
1.73459
1.78896
1.93456
2.14245
2.41651
2.76211
3.17931
3.65957
4.18432
4.72856
5.26774
5.78273
6.26185
6.7008
7.10123
7.4692
7.81363
8.1452
8.47565
8.81755
9.18426
9.58992
10.0477
10.562
11.1052
11.5939
12.0981
12.7063
13.2618
13.7979
14.3207
14.8428
15.4421
15.9749
16.5435
17.0832
17.616
18.1373
18.6329
19.1172
19.5973
20.0768
20.5574
21.0398
21.5246
22.0122
22.503
22.9971
23.4949
23.9966
24.5023
25.0123
25.5266
26.0454
26.5687
27.0965
27.6289
28.1658
28.7072
29.253
29.8029
30.357
30.9149
31.4765
32.0414
32.6094
33.1802
33.7533
34.3283
34.9048
35.4823
36.0603
36.6382
37.2156
37.7921
38.3678
38.9432
39.5161
40.0841
40.6449
41.1971
41.7397
42.2716
42.7917
43.2991
43.7927
44.2715
44.7345
45.1807
45.6093
46.0192
46.4098
46.7803
47.1299
47.458
47.764
48.0474
48.3077
48.5446
48.7577
48.9468
49.1117
49.2525
49.369
49.4614
49.5299
49.5746
49.596
49.5944
49.5702
49.5241
49.4566
49.3683
49.26
49.1325
48.9865
48.8228
48.6424
48.4459
48.2343
48.0084
47.7689
47.5168
47.2527
46.9772
46.6908
46.3941
46.0873
45.7705
45.4439
45.1072
44.76
44.4018
44.0316
43.6483
43.2506
42.8368
42.4047
41.9525
41.4776
40.9777
40.4509
39.8956
39.3129
38.7144
38.1224
37.5556
36.9958
36.4029
35.7585
35.0557
34.2916
33.4654
32.5779
31.6311
30.6286
29.5754
28.4778
27.3435
26.1821
25.0049
23.8261
22.6617
21.5102
20.3418
19.1246
17.6655
16.398
15.2847
13.8914
12.6137
11.553
10.6783
9.9445
9.32414
8.81029
8.41489
8.22915
5.10984
2.69836
2.37535
2.3763
2.48879
2.67712
2.9333
3.25528
3.63903
4.07492
4.54711
5.03594
5.52208
5.99026
6.43121
6.84186
7.22439
7.58469
7.93084
8.27177
8.61627
8.97225
9.34619
9.74268
10.1637
10.6074
11.0665
11.5311
12.0056
12.4932
12.9804
13.4664
13.9516
14.4375
14.9258
15.4071
15.8855
16.3579
16.8253
17.2876
17.7439
18.1968
18.6482
19.0998
19.5525
20.0067
20.463
20.9218
21.3832
21.8477
22.3154
22.7866
23.2615
23.7403
24.2232
24.7103
25.2016
25.6974
26.1976
26.7024
27.2116
27.7253
28.2434
28.7659
29.2925
29.8232
30.3577
30.8959
31.4373
31.9819
32.5292
33.0788
33.6304
34.1836
34.7379
35.2929
35.8484
36.4037
36.9578
37.5093
38.0567
38.5987
39.134
39.6617
40.1805
40.6895
41.1877
41.6741
42.1475
42.607
43.0516
43.4804
43.8923
44.2866
44.6625
45.019
45.3556
45.6716
45.9662
46.2391
46.4897
46.7177
46.9226
47.1042
47.2623
47.3969
47.5079
47.5953
47.6592
47.6999
47.7176
47.7126
47.6854
47.6363
47.566
47.4751
47.3641
47.2338
47.0849
46.9182
46.7344
46.5344
46.319
46.089
45.8454
45.5887
45.3199
45.0397
44.7485
44.4469
44.1354
43.8143
43.4838
43.1438
42.794
42.4339
42.0631
41.6805
41.2848
40.8743
40.448
40.0033
39.5379
39.0512
38.5383
38.0085
37.4625
36.9054
36.338
35.7484
35.1198
34.4423
33.7107
32.9226
32.0771
31.1748
30.2175
29.2084
28.1522
27.0547
25.9234
24.7672
23.596
22.4204
21.2496
20.087
18.924
17.7648
16.5996
15.4736
14.3816
13.2696
12.2159
11.2665
10.4263
9.68606
9.03748
8.48131
8.0242
7.69978
7.11662
3.58453
3.05379
2.96435
3.03087
3.18774
3.41441
3.70206
4.04331
4.42823
4.84355
5.27403
5.70499
6.12491
6.52683
6.90869
7.27251
7.62318
7.96713
8.31106
8.66113
9.02226
9.39785
9.78958
10.1975
10.6202
11.055
11.499
11.9507
12.4083
12.8692
13.332
13.7958
14.26
14.7239
15.1864
15.647
16.1057
16.5625
17.0176
17.4713
17.9244
18.3777
18.8316
19.2869
19.7438
20.2027
20.6641
21.1281
21.5951
22.0653
22.5391
23.0166
23.4982
23.9839
24.4741
24.9688
25.4683
25.9726
26.4819
26.9961
27.5154
28.0397
28.569
29.1033
29.6423
30.186
30.7342
31.2866
31.843
32.4032
32.9667
33.5332
34.1023
34.6736
35.2467
35.8207
36.3946
36.9676
37.5384
38.106
38.6691
39.2267
39.7776
40.3207
40.8549
41.3792
41.8924
42.3934
42.8811
43.3545
43.8124
44.254
44.6782
45.084
45.4707
45.8373
46.1832
46.5076
46.8099
47.0894
47.3458
47.5785
47.7872
47.9717
48.1317
48.2671
48.3779
48.4642
48.526
48.5634
48.5769
48.5666
48.533
48.4765
48.3978
48.2973
48.1757
48.0337
47.872
47.6914
47.4926
47.2766
47.0441
46.7961
46.5334
46.2567
45.9669
45.6647
45.3507
45.0254
44.6893
44.343
43.9864
43.6196
43.2421
42.8536
42.4539
42.0415
41.6144
41.1729
40.7142
40.2345
39.7381
39.2206
38.6832
38.1255
37.547
36.9444
36.3096
35.6335
34.9097
34.134
33.3041
32.4193
31.4797
30.4871
29.4445
28.3563
27.228
26.0669
24.8814
23.6808
22.4742
21.2697
20.073
18.8858
17.7161
16.5711
15.4589
14.3788
13.3278
12.3303
11.4071
10.5649
9.80336
9.12107
8.52137
8.00772
7.59261
8.92366
4.42786
3.67014
3.4935
3.51193
3.63266
3.82429
4.07266
4.36812
4.70108
5.06068
5.43534
5.8143
6.18916
6.5549
6.91005
7.25613
7.59672
7.93642
8.27989
8.63123
8.99351
9.36862
9.75729
10.1592
10.5735
10.9985
11.4327
11.8745
12.3225
12.7754
13.232
13.6915
14.1532
14.6163
15.0805
15.5452
16.0104
16.476
16.9421
17.4087
17.8763
18.3449
18.8151
19.2869
19.7609
20.2371
20.716
21.1979
21.683
22.1716
22.6641
23.1607
23.6617
24.1674
24.6779
25.1936
25.7146
26.241
26.7731
27.311
27.8546
28.4042
28.9596
29.5208
30.0878
30.6605
31.2387
31.8221
32.4106
33.0039
33.6016
34.2034
34.8088
35.4175
36.0284
36.6405
37.2531
37.8651
38.4756
39.0835
39.6875
40.2866
40.8796
41.4653
42.0426
42.6102
43.167
43.7116
44.243
44.7599
45.2612
45.7457
46.2124
46.6602
47.088
47.4951
47.8805
48.2434
48.583
48.8987
49.1899
49.4561
49.6968
49.9117
50.1005
50.263
50.3992
50.509
50.5924
50.6497
50.6808
50.6863
50.6663
50.6214
50.5519
50.4585
50.3418
50.2024
50.041
49.8583
49.6551
49.4323
49.1907
48.9312
48.6547
48.3619
48.0539
47.7311
47.3943
47.0441
46.6812
46.3062
45.9193
45.5204
45.109
44.6853
44.2495
43.8
43.3336
42.8534
42.3568
41.8414
41.3071
40.7516
40.1738
39.572
38.944
38.2858
37.5918
36.856
36.0736
35.2412
34.3569
33.4199
32.4303
31.3899
30.3013
29.1688
27.9978
26.7953
25.5691
24.3279
23.0804
21.8343
20.5964
19.3723
18.1704
16.9993
15.8641
14.7667
13.711
12.7091
11.7724
10.9062
10.1123
9.39127
8.74645
8.17932
7.69394
10.433
5.11263
4.17659
3.9278
3.90343
3.98971
4.14687
4.35692
4.60897
4.89409
5.20354
5.52875
5.86201
6.19735
6.53117
6.86231
7.19169
7.52163
7.85515
8.1953
8.54468
8.90523
9.27806
9.66357
10.0615
10.4712
10.8916
11.3218
11.7606
12.2071
12.6601
13.1189
13.5827
14.0508
14.5226
14.9976
15.4754
15.9558
16.4385
16.9234
17.4105
17.8998
18.3913
18.8853
19.3817
19.881
20.3832
20.8886
21.3975
21.9103
22.4271
22.9484
23.4744
24.0054
24.5418
25.0837
25.6315
26.1855
26.7457
27.3125
27.8858
28.466
29.053
29.6469
30.2477
30.8554
31.4697
32.0907
32.7181
33.3516
33.9909
34.6358
35.2858
35.9404
36.5989
37.26
37.9228
38.5865
39.2501
39.9127
40.5729
41.2298
41.882
42.5283
43.1675
43.7982
44.4191
45.029
45.6264
46.2101
46.7787
47.3309
47.8655
48.3813
48.8771
49.3518
49.8044
50.2339
50.6394
51.02
51.3749
51.7036
52.0053
52.2796
52.526
52.7444
52.9343
53.0956
53.2284
53.3325
53.4081
53.4553
53.4744
53.4656
53.4294
53.3663
53.2766
53.1611
53.0203
52.8549
52.6656
52.4531
52.2183
51.9621
51.6853
51.3887
51.0734
50.7399
50.3891
50.0215
49.6376
49.2385
48.825
48.3971
47.9547
47.4968
47.0244
46.5384
46.0372
45.5192
44.9848
44.4325
43.8604
43.2676
42.652
42.012
41.3453
40.6493
39.9206
39.1549
38.348
37.4962
36.597
35.6486
34.6504
33.6029
32.5076
31.3673
30.1859
28.9688
27.7224
26.4542
25.1722
23.8846
22.5988
21.322
20.061
18.824
17.6193
16.4521
15.3255
14.2446
13.2174
12.2518
11.3523
10.5212
9.7596
9.06988
8.45242
7.90771
11.4961
5.62401
4.55844
4.25409
4.19482
4.25163
4.37869
4.55536
4.77007
5.0146
5.28194
5.56582
5.86079
6.16267
6.46889
6.77844
7.09173
7.4101
7.73537
8.06945
8.41397
8.77015
9.13873
9.51997
9.91377
10.3197
10.7372
11.1656
11.6041
12.0519
12.5084
12.9728
13.4444
13.9226
14.4068
14.8966
15.3913
15.8908
16.3945
16.9022
17.4139
17.9292
18.4482
18.9708
19.4971
20.0272
20.5613
21.0996
21.6422
22.1896
22.7419
23.2995
23.8627
24.4317
25.0071
25.5889
26.1775
26.7732
27.3762
27.9867
28.605
29.231
29.865
30.507
31.157
31.815
32.4808
33.1544
33.8355
34.5238
35.219
35.9208
36.6287
37.3421
38.0593
38.7796
39.502
40.2257
40.9496
41.6726
42.3935
43.111
43.8238
44.5306
45.2299
45.9204
46.6006
47.269
47.9243
48.5649
49.1894
49.7963
50.3843
50.9521
51.4984
52.0219
52.5217
52.9964
53.4453
53.8673
54.2616
54.6274
54.964
55.2708
55.5475
55.7937
56.009
56.1933
56.3465
56.4686
56.5596
56.6196
56.6488
56.6476
56.6163
56.5553
56.4651
56.3464
56.1996
56.0254
55.8245
55.5975
55.3452
55.0686
54.7686
54.4459
54.1014
53.7358
53.3498
52.9439
52.5179
52.0743
51.6133
51.135
50.6394
50.1263
49.5959
49.0485
48.4834
47.8997
47.2968
46.6737
46.029
45.3613
44.669
43.9502
43.2029
42.4247
41.613
40.7645
39.8763
38.9457
37.9709
36.9507
35.8849
34.7741
33.6202
32.4259
31.1952
29.9331
28.6455
27.3395
26.0222
24.7013
23.3838
22.0765
20.7861
19.5205
18.2871
17.091
15.9361
14.8274
13.7715
12.7747
11.8412
10.9735
10.1729
9.441
8.77734
8.18117
12.1996
5.97731
4.82101
4.47534
4.38895
4.42228
4.52513
4.67503
4.85994
5.07221
5.3061
5.55692
5.82085
6.09498
6.37744
6.6674
6.96491
7.27067
7.58573
7.91125
8.24827
8.59762
8.95984
9.33521
9.72377
10.1254
10.5397
10.9663
11.4048
11.8547
12.3153
12.7861
13.2666
13.756
14.254
14.7598
15.2731
15.7932
16.3199
16.8527
17.3914
17.9356
18.4852
19.0401
19.6003
20.1657
20.7365
21.3127
21.8946
22.4825
23.0765
23.6769
24.2841
24.8984
25.5199
26.1492
26.7864
27.4317
28.0856
28.7481
29.4195
30.0998
30.7893
31.4879
32.1957
32.9125
33.6384
34.3731
35.1164
35.868
36.6275
37.3945
38.1685
38.9478
39.7312
40.518
41.3071
42.0975
42.8881
43.6776
44.4647
45.2481
46.0264
46.7979
47.5613
48.315
49.0575
49.7871
50.5023
51.2015
51.883
52.5453
53.1869
53.8065
54.4026
54.974
55.5194
56.0378
56.5279
56.989
57.4199
57.8199
58.1881
58.524
58.8272
59.0972
59.3338
59.5367
59.7059
59.8412
59.9428
60.0107
60.045
60.0461
60.0144
59.9502
59.854
59.7264
59.568
59.3792
59.1608
58.9131
58.6372
58.334
58.0042
57.6488
57.2683
56.8635
56.4351
55.9836
55.5095
55.0139
54.4973
53.9601
53.4023
52.8239
52.225
51.6058
50.9656
50.304
49.6203
48.9136
48.1828
47.4268
46.6441
45.8333
44.9926
44.1205
43.2148
42.2736
41.295
40.2772
39.2194
38.121
36.9825
35.805
34.5907
33.3425
32.0642
30.7608
29.4378
28.1013
26.758
25.4144
24.0768
22.7513
21.444
20.1618
18.9108
17.6961
16.5216
15.3919
14.3129
13.2903
12.328
11.4287
10.5941
9.82496
9.12064
8.48023
12.5928
6.19113
4.97748
4.60296
4.49661
4.5123
4.59693
4.72671
4.88927
5.07726
5.28574
5.51106
5.75045
6.00186
6.26397
6.53609
6.81816
7.11051
7.41377
7.72868
8.05598
8.3963
8.75015
9.11789
9.49972
9.89571
10.3058
10.7299
11.1677
11.6189
12.0831
12.56
13.049
13.5496
14.0613
14.5836
15.1158
15.6576
16.2084
16.7678
17.3353
17.9107
18.4937
19.0841
19.6817
20.2864
20.8984
21.5176
22.1442
22.7782
23.42
24.0698
24.7278
25.3942
26.0694
26.7537
27.4471
28.1502
28.8629
29.5856
30.3185
31.0615
31.8148
32.5785
33.3525
34.1367
34.931
35.7351
36.5487
37.3716
38.2032
39.0431
39.8899
40.7418
41.5979
42.4572
43.3186
44.1809
45.0429
45.9032
46.7603
47.6128
48.459
49.2975
50.1265
50.9443
51.7494
52.5401
53.3145
54.0711
54.8079
55.5234
56.216
56.8842
57.5266
58.1418
58.7287
59.2859
59.8125
60.3073
60.7696
61.198
61.592
61.9509
62.2743
62.5619
62.8133
63.0283
63.2068
63.3488
63.4543
63.5232
63.5559
63.5525
63.5135
63.4392
63.3302
63.1869
63.0099
62.7997
62.5569
62.2821
61.976
61.6394
61.2732
60.8779
60.4543
60.0031
59.525
59.0204
58.4899
57.9343
57.3539
56.7492
56.1204
55.4674
54.7904
54.0894
53.364
52.6138
51.8382
51.0368
50.2085
49.3526
48.4682
47.5541
46.6094
45.633
44.624
43.5813
42.5042
41.392
40.2449
39.0632
37.8482
36.6018
35.3265
34.0257
32.7033
31.364
30.0128
28.6554
27.2971
25.9436
24.6
23.2713
21.9626
20.6791
19.426
18.2072
17.0266
15.8882
14.7974
13.7591
12.7773
11.8551
10.9941
10.195
9.45707
8.78004
12.7166
6.28454
5.04387
4.65201
4.53227
4.53562
4.60738
4.72293
4.86962
5.04021
5.23018
5.43646
5.65691
5.89005
6.13491
6.39101
6.65828
6.93694
7.22744
7.53037
7.84634
8.17597
8.51982
8.87838
9.25203
9.64108
10.0457
10.466
10.902
11.3536
11.8206
12.3028
12.7997
13.3111
13.8363
14.3751
14.9267
15.4908
16.0668
16.6542
17.2527
17.8617
18.4809
19.1102
19.7491
20.3977
21.0557
21.7233
22.4003
23.0869
23.7832
24.4894
25.2056
25.932
26.6689
27.4164
28.1747
28.944
29.7245
30.5164
31.3196
32.1343
32.9606
33.7983
34.6473
35.5077
36.379
37.261
38.1534
39.0556
39.9671
40.8872
41.8129
42.7434
43.6777
44.6146
45.5528
46.4908
47.4274
48.3608
49.2897
50.2124
51.127
52.032
52.9256
53.8059
54.6713
55.5199
56.3501
57.16
57.9476
58.7109
59.4486
60.1591
60.8411
61.4931
62.1139
62.7023
63.2572
63.7777
64.2632
64.7117
65.1226
65.4958
65.8306
66.1269
66.3843
66.6025
66.7816
66.9215
67.0221
67.0837
67.1063
67.0902
67.0359
66.9436
66.8137
66.6469
66.4434
66.204
65.9291
65.6194
65.2753
64.8977
64.4872
64.0445
63.5702
63.0648
62.5291
61.9635
61.3684
60.7445
60.0921
59.4115
58.703
57.9667
57.2025
56.4105
55.5904
54.742
53.865
52.9589
52.0234
51.0578
50.0619
49.0351
47.9772
46.8881
45.7676
44.616
43.4336
42.221
40.9794
39.7104
38.4163
37.0998
35.7641
34.413
33.0508
31.6819
30.311
28.9428
27.5819
26.2324
24.8982
23.5829
22.2898
21.0227
19.7849
18.5795
17.4093
16.278
15.1898
14.1493
13.1605
12.2265
11.3491
10.529
9.76619
9.06097
12.6129
6.27713
5.03683
4.63833
4.51125
4.50693
4.57032
4.67649
4.81259
4.97139
5.14851
5.34116
5.54752
5.7664
5.99711
6.23933
6.49306
6.75855
7.03627
7.32679
7.63077
7.94889
8.28185
8.63032
8.9949
9.37613
9.77446
10.1902
10.6237
11.0751
11.5443
12.0313
12.5359
13.058
13.5971
14.1528
14.7247
15.3124
15.9153
16.533
17.165
17.8109
18.4702
19.1426
19.8279
20.5257
21.2358
21.9582
22.6928
23.4395
24.1983
24.9693
25.7525
26.548
27.3559
28.1763
29.0093
29.8549
30.7133
31.5844
32.4682
33.3647
34.2739
35.1956
36.1296
37.0756
38.0333
39.0023
39.9822
40.9722
41.9717
42.9773
43.9878
45.0023
46.0194
47.0379
48.0557
49.0716
50.0838
51.0908
52.0909
53.0822
54.063
55.0313
55.9854
56.9233
57.8433
58.7435
59.6223
60.4784
61.3085
62.1108
62.8841
63.6271
64.3383
65.0165
65.6604
66.2688
66.8406
67.3751
67.8712
68.328
68.7447
69.1208
69.456
69.7499
70.0024
70.2131
70.3822
70.5094
70.595
70.639
70.6416
70.6031
70.5237
70.4038
70.2439
70.0443
69.8055
69.528
69.2124
68.859
68.4685
68.0415
67.5784
67.08
66.5467
65.9791
65.3776
64.7428
64.075
63.3746
62.642
61.8773
61.0809
60.2528
59.3929
58.5015
57.5783
56.6232
55.6362
54.617
53.5657
52.4822
51.3667
50.2195
49.041
47.832
46.5936
45.327
44.0339
42.7163
41.3766
40.0177
38.6431
37.2564
35.8618
34.4638
33.0667
31.6751
30.2933
28.9252
27.5741
26.243
24.9339
23.6488
22.3892
21.1568
19.9531
18.7797
17.6383
16.5314
15.4625
14.4355
13.454
12.5211
11.6392
10.8089
10.031
9.3069
12.3237
6.18788
4.97209
4.57685
4.448
4.44012
4.49893
4.59965
4.72943
4.88098
5.04997
5.23366
5.43034
5.63895
5.85891
6.09004
6.33244
6.58647
6.85267
7.13175
7.42445
7.73158
8.05404
8.39272
8.74848
9.12214
9.51442
9.92595
10.3573
10.8087
11.2807
11.7733
12.2866
12.8205
13.3749
13.9495
14.544
15.1579
15.791
16.4427
17.1125
17.8001
18.505
19.2267
19.9649
20.7193
21.4895
22.2753
23.0764
23.8927
24.724
25.5703
26.4313
27.3071
28.1975
29.1024
30.0218
30.9556
31.9036
32.8659
33.842
34.832
35.8356
36.8524
37.8821
38.9243
39.9786
41.0443
42.1207
43.2072
44.2997
45.3966
46.4967
47.5988
48.7016
49.8039
50.9021
51.9951
53.0814
54.1592
55.2265
56.2816
57.3224
58.3471
59.3537
60.3403
61.3051
62.2461
63.1617
64.0502
64.9093
65.7373
66.5329
67.2946
68.0211
68.7112
69.3637
69.9776
70.5519
71.0858
71.5784
72.029
72.4371
72.8021
73.1236
73.4016
73.6357
73.8258
73.9719
74.0741
74.1323
74.1468
74.1178
74.0454
73.93
73.7718
73.5713
73.3288
73.0448
72.7195
72.3536
71.9474
71.5013
71.0159
70.4916
69.9289
69.3282
68.69
68.0146
67.3024
66.5537
65.7688
64.948
64.0915
63.1993
62.2716
61.3085
60.31
59.2761
58.207
57.1026
55.9633
54.7893
53.5811
52.3396
51.0657
49.7609
48.4268
47.0657
45.6799
44.2726
42.8471
41.4073
39.9575
38.5024
37.0469
35.5962
34.1553
32.7293
31.3225
29.9388
28.5815
27.2527
25.9538
24.6852
23.4469
22.2382
21.0586
19.9078
18.7852
17.6912
16.627
15.5948
14.5977
13.6391
12.7217
11.8482
11.0194
10.2374
9.50451
11.8891
6.03421
4.86359
4.48062
4.35524
4.34765
4.40531
4.50405
4.63122
4.77959
4.94477
5.12402
5.31561
5.5184
5.73185
5.95583
6.19053
6.43642
6.69423
6.96489
7.24922
7.54794
7.86228
8.19348
8.54268
8.91101
9.29948
9.70906
10.1406
10.5947
11.0721
11.5732
12.0983
12.6475
13.221
13.8187
14.4405
15.086
15.755
16.4471
17.1618
17.8988
18.6576
19.4376
20.2385
21.0597
21.9009
22.7616
23.6414
24.5399
25.4568
26.3918
27.3444
28.3143
29.3013
30.305
31.3251
32.3612
33.413
34.4802
35.5623
36.6589
37.7696
38.8939
40.0311
41.1808
42.3421
43.5142
44.6965
45.8836
47.0736
48.2653
49.457
50.6472
51.8342
53.0161
54.1906
55.3558
56.5099
57.6508
58.7768
59.8856
60.9755
62.0443
63.0903
64.1114
65.106
66.0721
67.0082
67.9125
68.7834
69.6192
70.4187
71.1806
71.9037
72.5869
73.2293
73.8299
74.3881
74.903
75.3741
75.8008
76.1826
76.5193
76.8105
77.0561
77.2559
77.4099
77.5182
77.5808
77.5977
77.5692
77.4954
77.3765
77.2129
77.0047
76.7522
76.4558
76.1159
75.7326
75.3064
74.8376
74.3266
73.7737
73.1793
72.5437
71.8671
71.15
70.3926
69.5952
68.7579
67.881
66.9646
66.0088
65.0139
63.9797
62.9065
61.7943
60.6434
59.454
58.2263
56.9611
55.6591
54.3212
52.949
51.5443
50.1093
48.6468
47.1602
45.6532
44.1302
42.5962
41.0564
39.5167
37.9831
36.4619
34.9593
33.4812
32.0328
30.6188
29.2427
27.9068
26.6123
25.3588
24.145
22.9687
21.8272
20.7176
19.6371
18.5833
17.5547
16.5509
15.5727
14.6223
13.7022
12.815
11.9632
11.1485
10.374
9.64307
11.3472
5.83132
4.72296
4.36058
4.24394
4.2407
4.30093
4.40147
4.53009
4.6797
4.84593
5.02606
5.21845
5.4213
5.63412
5.85682
6.08962
6.33307
6.58795
6.85527
7.13611
7.43168
7.74336
8.07259
8.42082
8.78948
9.17993
9.59347
10.0313
10.4944
10.9838
11.5002
12.0443
12.6166
13.2173
13.8467
14.5048
15.1916
15.9068
16.6503
17.4215
18.2202
19.0459
19.8978
20.7756
21.6786
22.6062
23.5577
24.5325
25.53
26.5494
27.5902
28.6517
29.7332
30.834
31.9535
33.091
34.2459
35.4174
36.6049
37.8077
39.025
40.2561
41.5002
42.7565
44.0241
45.3021
46.5889
47.8779
49.1673
50.4554
51.7406
53.0209
54.2944
55.5592
56.8131
58.0541
59.28
60.4889
61.6787
62.8473
63.9928
65.1134
66.207
67.2719
68.3064
69.3088
70.2774
71.2109
72.1077
72.9665
73.7861
74.5653
75.3031
75.9987
76.6511
77.2597
77.8238
78.3429
78.8164
79.2441
79.6255
79.9603
80.2485
80.4898
80.6842
80.8316
80.9321
80.9857
80.9926
80.9528
80.8665
80.7338
80.5549
80.33
80.0593
79.743
79.3814
78.9746
78.5228
78.0263
77.4854
76.9001
76.2708
75.5975
74.8806
74.1202
73.3164
72.4695
71.5795
70.6465
69.6707
68.6521
67.5907
66.4868
65.3402
64.1513
62.9201
61.6471
60.3326
58.9773
57.5822
56.1485
54.6778
53.1723
51.6346
50.0678
48.476
46.8636
45.2357
43.5982
41.9575
40.3205
38.6945
37.087
35.5055
33.9573
32.449
30.9864
29.5741
28.2152
26.9114
25.6623
24.4664
23.3203
22.2198
21.1598
20.135
19.1404
18.1714
17.2245
16.2973
15.3894
14.5013
13.6349
12.7923
11.9755
11.1876
10.4325
9.71442
10.7079
5.58418
4.55484
4.22211
4.12063
4.12729
4.19552
4.30351
4.4396
4.59693
4.77112
4.9593
5.1595
5.37034
5.59109
5.82151
6.06178
6.31243
6.57432
6.84853
7.13638
7.43936
7.7591
8.09732
8.4558
8.8363
9.24058
9.6703
10.1271
10.6123
11.1273
11.6734
12.2514
12.8621
13.5064
14.1846
14.8969
15.6437
16.4247
17.2399
18.0889
18.9713
19.8865
20.8339
21.8126
22.8219
23.8609
24.9286
26.0239
27.146
28.2936
29.4656
30.661
31.8786
33.1173
34.3759
35.6534
36.9484
38.26
39.5871
40.9284
42.283
43.6496
45.0272
46.4144
47.8109
49.2111
50.6088
52.0024
53.3899
54.7694
56.1388
57.496
58.8389
60.1654
61.4733
62.7605
64.025
65.2647
66.4777
67.6621
68.816
69.9378
71.0258
72.0785
73.0943
74.0721
75.0104
75.9082
76.7644
77.5781
78.3484
79.0746
79.7561
80.3922
80.9825
81.5266
82.0243
82.4752
82.8791
83.2359
83.5456
83.8079
84.023
84.1908
84.3113
84.3846
84.4108
84.39
84.3222
84.2076
84.0463
83.8382
83.5837
83.2827
82.9353
82.5416
82.1017
81.6157
81.0835
80.5054
79.8813
79.2113
78.4954
77.7336
76.926
76.0727
75.1735
74.2286
73.2379
72.2014
71.1191
69.991
68.8171
67.5975
66.3323
65.0217
63.6661
62.2658
60.8217
59.3348
57.8062
56.2379
54.6322
52.9917
51.3202
49.6218
47.9014
46.165
44.4189
42.6706
40.9278
39.1991
37.4933
35.8192
34.1856
32.6007
31.0718
29.605
28.2049
26.874
25.6131
24.4209
23.2939
22.2272
21.2143
20.2481
19.321
18.4255
17.5549
16.7036
15.8674
15.044
14.2327
13.4341
12.6494
11.8803
11.1316
10.4076
9.7132
10.1377
5.35438
4.39455
4.0928
4.01131
4.03426
4.11783
4.24154
4.3943
4.56945
4.76266
4.97095
5.19224
5.42509
5.66864
5.92252
6.18683
6.46206
6.74907
7.04904
7.36342
7.69392
8.0424
8.41088
8.80145
9.21624
9.6574
10.127
10.627
11.1593
11.7257
12.3276
12.9666
13.6436
14.3598
15.1158
15.9121
16.7491
17.6267
18.5448
19.503
20.5008
21.5374
22.6119
23.7232
24.87
26.0511
27.2649
28.51
29.7847
31.0873
32.4162
33.7696
35.1457
36.5428
37.9593
39.3933
40.8432
42.3074
43.7843
45.2723
46.77
48.2756
49.7882
51.3041
52.8139
54.3147
55.8044
57.2809
58.7421
60.1858
61.6098
63.0119
64.3901
65.7422
67.0663
68.3604
69.6226
70.8512
72.0445
73.201
74.3192
75.3977
76.4354
77.4311
78.3839
79.2929
80.1574
80.9766
81.7501
82.4774
83.1582
83.7921
84.3791
84.9189
85.4116
85.8571
86.2555
86.6068
86.9112
87.1687
87.3794
87.5436
87.6613
87.7327
87.7578
87.7368
87.6697
87.5567
87.3977
87.1928
86.942
86.6454
86.3027
85.914
85.4793
84.9983
84.471
83.8973
83.277
82.61
81.8961
81.1352
80.327
79.4715
78.5684
77.6176
76.6189
75.5723
74.4774
73.3343
72.1427
70.9027
69.6141
68.2772
66.8919
65.4586
63.9778
62.4502
60.8767
59.2587
57.5981
55.8971
54.1587
52.3865
50.5851
48.7596
46.9163
45.0622
43.2053
41.3542
39.5185
37.708
35.9331
34.2037
32.5299
30.9205
29.3833
27.9246
26.5487
25.2575
24.0508
22.9258
21.8778
20.9
19.984
19.1206
18.3003
17.5134
16.7511
16.0057
15.2713
14.5437
13.8207
13.1016
12.3862
11.6768
10.9788
10.2968
9.63639
9.62251
5.13373
4.24698
3.98386
3.93219
3.98291
4.09472
4.24823
4.43285
4.64214
4.87181
5.11886
5.38112
5.65708
5.94576
6.24668
6.55984
6.88565
7.22498
7.57902
7.94933
8.33774
8.74633
9.17733
9.63313
10.1162
10.6289
11.1738
11.7531
12.3692
13.0239
13.7193
14.457
15.2383
16.0643
16.936
17.8537
18.8179
19.8283
20.8847
21.9864
23.1324
24.3217
25.5528
26.8241
28.1338
29.4799
30.8602
32.2726
33.7148
35.1845
36.6791
38.1963
39.7338
41.2892
42.8602
44.4446
46.0402
47.6448
49.2569
50.8739
52.4949
54.1163
55.7276
57.3233
58.9016
60.4602
61.9969
63.5094
64.9958
66.4537
67.8813
69.2765
70.6375
71.9625
73.2499
74.498
75.7055
76.8711
77.9935
79.0716
80.1047
81.0918
82.0323
82.9256
83.7714
84.5693
85.3191
86.0208
86.6743
87.2798
87.8373
88.3472
88.8096
89.2249
89.5934
89.9155
90.1915
90.4218
90.6067
90.7467
90.8418
90.8925
90.8989
90.8612
90.7795
90.654
90.4846
90.2714
90.0142
89.7131
89.3678
88.9781