/*--------------------------------*- C++ -*----------------------------------*\
  =========                 |
  \\      /  F ield         | OpenFOAM: The Open Source CFD Toolbox
   \\    /   O peration     | Website:  https://openfoam.org
    \\  /    A nd           | Version:  7
     \\/     M anipulation  |
\*---------------------------------------------------------------------------*/
FoamFile
{
    version     2.0;
    format      ascii;
    class       volScalarField;
    location    "0.11";
    object      nut;
}
// * * * * * * * * * * * * * * * * * * * * * * * * * * * * * * * * * * * * * //

dimensions      [0 2 -1 0 0 0 0];

internalField   nonuniform List<scalar> 
12225
(
3.8006e-05
3.33294e-05
2.94332e-05
2.6376e-05
2.4149e-05
2.26291e-05
2.16447e-05
2.10346e-05
2.06708e-05
2.0461e-05
2.03425e-05
2.02748e-05
2.02332e-05
2.02032e-05
2.01774e-05
2.01506e-05
2.01285e-05
2.02626e-05
0.000205723
0.000151532
0.000127317
0.000114408
0.000107378
0.000103275
0.000100621
9.87091e-05
9.72078e-05
9.59543e-05
9.48687e-05
9.39118e-05
9.3063e-05
9.23085e-05
9.16408e-05
9.10361e-05
9.05376e-05
8.99238e-05
0.000418641
0.000296999
0.000242048
0.000210263
0.000189705
0.000175336
0.000164781
0.000156778
0.000150561
0.000145627
0.000141639
0.000138363
0.000135637
0.000133345
0.000131402
0.000129732
0.000128308
0.000127
0.000615535
0.000473543
0.000392588
0.000341277
0.000306007
0.000280073
0.00026011
0.000244293
0.000231506
0.000221004
0.000212264
0.000204914
0.000198678
0.000193347
0.000188757
0.000184776
0.000181311
0.000178276
0.000739724
0.000627504
0.000543979
0.000483424
0.000438556
0.000404007
0.000376501
0.000354069
0.00033544
0.000319738
0.000306346
0.000294816
0.000284812
0.000276076
0.000268404
0.00026163
0.000255629
0.000250362
0.000803283
0.000733058
0.000666698
0.000610789
0.000565209
0.000527886
0.000496905
0.000470847
0.00044866
0.00042956
0.000412956
0.000398404
0.000385563
0.000374168
0.000364004
0.000354899
0.000346723
0.000339497
0.000832284
0.000794589
0.000750948
0.000708335
0.00066977
0.000635795
0.000606081
0.000580102
0.000557315
0.000537227
0.000519419
0.000503547
0.00048933
0.00047654
0.000464987
0.000454516
0.000445014
0.000436561
0.000844509
0.000826356
0.000801468
0.000773641
0.000745686
0.00071904
0.0006943
0.000671648
0.000651049
0.000632358
0.000615397
0.000599984
0.000585947
0.000573136
0.000561417
0.000550675
0.000540832
0.000532014
0.000849308
0.000841191
0.000828457
0.000812438
0.000794692
0.000776388
0.000758282
0.000740835
0.000724298
0.000708778
0.000694297
0.000680827
0.000668317
0.000656705
0.000645927
0.00063592
0.000626652
0.000618281
0.000851042
0.000847505
0.000841448
0.00083309
0.000823012
0.000811825
0.000800047
0.000788082
0.000776227
0.000764678
0.000753555
0.000742928
0.000732829
0.000723268
0.000714238
0.000705729
0.000697746
0.000690461
0.000851597
0.000849941
0.000847101
0.000842991
0.000837724
0.000831515
0.000824604
0.000817223
0.00080958
0.000801841
0.000794134
0.000786552
0.000779161
0.000772004
0.000765111
0.000758502
0.00075221
0.000746393
0.000851725
0.000850708
0.000849144
0.00084693
0.000844052
0.000840559
0.000836534
0.000832081
0.000827313
0.000822332
0.000817228
0.000812076
0.000806936
0.000801856
0.000796871
0.000792011
0.000787318
0.000782935
0.000851737
0.000850953
0.00084994
0.000848639
0.000847018
0.00084507
0.000842806
0.000840256
0.000837462
0.000834472
0.000831333
0.000828089
0.00082478
0.000821442
0.000818103
0.000814793
0.000811548
0.000808478
0.000851709
0.000850986
0.000850181
0.000849277
0.000848261
0.000847121
0.000845852
0.000844453
0.00084293
0.000841294
0.000839559
0.000837743
0.000835862
0.000833932
0.00083197
0.000829994
0.00082803
0.000826149
0.000851676
0.000850949
0.000850196
0.000849419
0.000848621
0.000847803
0.000846964
0.0008461
0.000845209
0.000844288
0.000843337
0.000842359
0.000841354
0.000840327
0.000839282
0.000838225
0.000837173
0.000836164
0.000851651
0.000850907
0.000850158
0.000849407
0.000848665
0.000847938
0.000847232
0.000846547
0.000845883
0.000845236
0.000844606
0.000843988
0.000843382
0.000842783
0.000842193
0.000841611
0.000841046
0.000840522
0.000851637
0.000850884
0.000850135
0.00084939
0.000848659
0.000847953
0.000847276
0.000846633
0.000846026
0.000845453
0.000844912
0.000844402
0.00084392
0.000843464
0.000843031
0.000842621
0.000842239
0.000841904
0.000851638
0.000850889
0.000850148
0.000849415
0.000848698
0.000848006
0.000847345
0.000846719
0.00084613
0.000845579
0.000845064
0.000844584
0.000844136
0.000843717
0.000843327
0.000842965
0.000842636
0.000842356
0.000851661
0.000850938
0.000850224
0.00084952
0.000848833
0.000848173
0.000847546
0.000846955
0.000846401
0.000845885
0.000845406
0.00084496
0.000844546
0.000844162
0.000843806
0.000843476
0.000843179
0.000842929
0.000851715
0.000851052
0.000850397
0.000849752
0.000849127
0.000848531
0.00084797
0.000847445
0.000846957
0.000846502
0.000846079
0.000845684
0.000845314
0.000844964
0.000844633
0.00084432
0.00084403
0.000843776
0.000851801
0.000851233
0.000850668
0.000850109
0.000849564
0.00084904
0.000848538
0.000848054
0.000847582
0.000847115
0.000846648
0.000846176
0.000845696
0.000845206
0.000844703
0.000844189
0.000843669
0.000843162
0.00085194
0.000851517
0.000851065
0.000850568
0.000850019
0.000849409
0.000848727
0.00084796
0.000847097
0.000846136
0.00084508
0.000843932
0.0008427
0.000841392
0.000840011
0.000838572
0.000837094
0.00083562
0.000852142
0.000851828
0.000851265
0.000850362
0.000849082
0.000847423
0.000845397
0.000843025
0.000840341
0.000837394
0.00083423
0.000830888
0.000827406
0.000823832
0.000820216
0.000816593
0.000813001
0.000809508
0.00085222
0.000851245
0.000849027
0.000845471
0.000840725
0.000835031
0.000828618
0.00082168
0.000814399
0.000806897
0.000799308
0.000791764
0.000784359
0.000777149
0.00077017
0.000763445
0.000757
0.000750911
0.000850791
0.000845028
0.000835402
0.000822962
0.000808868
0.00079404
0.000779069
0.000764268
0.000749892
0.000736183
0.000723241
0.00071108
0.000699685
0.000689021
0.000679045
0.00066971
0.000660982
0.000652902
0.000841138
0.000816682
0.000787
0.0007567
0.00072778
0.00070096
0.000676383
0.000654236
0.000634369
0.000616524
0.00060045
0.000585913
0.000572712
0.000560671
0.000549642
0.0005395
0.00053015
0.000521582
0.000798628
0.000728723
0.000669095
0.000620813
0.000580947
0.000547679
0.000520063
0.000496802
0.000476921
0.000459713
0.000444647
0.000431323
0.000419432
0.000408735
0.000399046
0.000390217
0.000382134
0.000374757
0.000662426
0.000545581
0.000474641
0.0004252
0.000388271
0.000360269
0.000338467
0.000320972
0.000306561
0.000294446
0.000284096
0.000275129
0.000267272
0.000260317
0.00025411
0.00024853
0.000243485
0.000238919
0.000377505
0.000286125
0.000242634
0.000214909
0.000195646
0.000182237
0.000172801
0.000165964
0.000160845
0.000156898
0.000153777
0.000151252
0.000149163
0.0001474
0.000145885
0.000144561
0.000143386
0.000142317
6.98062e-05
6.49724e-05
6.05479e-05
5.65124e-05
5.2901e-05
4.97258e-05
4.69806e-05
4.46405e-05
4.26665e-05
4.10145e-05
3.96407e-05
3.85049e-05
3.7571e-05
3.68076e-05
3.61873e-05
3.56867e-05
3.52863e-05
3.49692e-05
7.78568e-07
1.51383e-05
2.27e-05
2.8735e-05
3.40302e-05
3.95082e-05
4.6005e-05
5.39985e-05
6.40782e-05
7.67433e-05
9.09202e-05
0.000105244
0.000119029
0.000131796
0.000143272
0.000153348
0.000162033
0.000169411
0.00017561
0.000180787
0.000185102
0.000188681
0.000191542
0.000193486
0.000194024
0.000192771
0.000191261
0.000194466
0.00019517
4.38143e-05
4.39388e-05
4.456e-05
4.54524e-05
0.000202413
4.62113e-05
0.000201955
4.68415e-05
4.69588e-05
4.69528e-05
4.68325e-05
4.72671e-05
4.77607e-05
4.8249e-05
4.87278e-05
4.91966e-05
4.96557e-05
5.01057e-05
5.05475e-05
5.09818e-05
5.14095e-05
5.18312e-05
5.22476e-05
5.26591e-05
5.30662e-05
5.34693e-05
5.38688e-05
5.42648e-05
5.46575e-05
5.5047e-05
5.54334e-05
5.58167e-05
5.6197e-05
5.6574e-05
5.69478e-05
5.73181e-05
5.76848e-05
5.80477e-05
5.84066e-05
5.87612e-05
5.91114e-05
5.94567e-05
5.9797e-05
6.01319e-05
6.04611e-05
6.07844e-05
6.11013e-05
6.14116e-05
6.17149e-05
6.20113e-05
6.23025e-05
6.25807e-05
6.28474e-05
6.31033e-05
6.33482e-05
6.35818e-05
6.38038e-05
6.40138e-05
6.42115e-05
6.43965e-05
6.45686e-05
6.47276e-05
6.48733e-05
6.50054e-05
6.51239e-05
6.52286e-05
6.53194e-05
6.53964e-05
6.54595e-05
6.55088e-05
6.55443e-05
6.55661e-05
6.55744e-05
6.55694e-05
6.55513e-05
6.55204e-05
6.54769e-05
6.54211e-05
6.53535e-05
6.52743e-05
6.51839e-05
6.50828e-05
6.49714e-05
6.48501e-05
6.47193e-05
6.45795e-05
6.44312e-05
6.42747e-05
6.41105e-05
6.3939e-05
6.37607e-05
6.35757e-05
6.33846e-05
6.31875e-05
6.29848e-05
6.27765e-05
6.2563e-05
6.23441e-05
6.212e-05
6.18905e-05
6.16555e-05
6.14146e-05
6.11675e-05
6.09138e-05
6.06528e-05
6.03837e-05
6.01058e-05
5.98179e-05
5.9519e-05
5.92077e-05
5.88825e-05
5.85418e-05
5.81837e-05
5.78062e-05
5.7407e-05
5.69835e-05
5.65323e-05
5.60494e-05
5.5518e-05
5.49199e-05
5.45665e-05
5.44175e-05
5.42654e-05
5.40899e-05
5.38847e-05
5.36459e-05
5.33705e-05
5.30561e-05
5.27011e-05
5.23037e-05
5.18638e-05
5.13832e-05
5.08585e-05
5.02959e-05
4.9682e-05
4.89829e-05
4.82582e-05
4.70786e-05
4.81702e-05
0.000210059
0.000207536
0.000200058
0.000201179
0.000199399
0.000194434
0.000187268
0.000178746
0.000169738
0.000160716
0.000152004
0.00014441
1.88009e-06
3.09777e-05
6.49094e-05
9.19247e-05
0.000112948
0.000129218
0.000141862
0.000153036
0.000164354
0.000176677
0.000190053
0.000204045
0.000218057
0.000231562
0.000244188
0.000255715
0.000266038
0.000275131
0.000283011
0.00028972
0.000295266
0.000299528
0.000302058
0.000301808
0.000297054
0.000286467
0.000273587
0.000278164
0.000282341
0.000257232
0.000258262
0.00026341
0.000272575
0.000292504
0.000279242
0.000295668
0.00028715
0.000290993
0.000295624
0.000303313
0.000309392
0.000314765
0.000320104
0.000325393
0.000330594
0.000335688
0.000340673
0.000345556
0.000350346
0.000355055
0.000359696
0.000364281
0.00036882
0.000373324
0.000377803
0.000382265
0.000386718
0.000391167
0.00039562
0.00040008
0.000404552
0.000409039
0.000413542
0.000418064
0.000422606
0.000427167
0.000431746
0.000436344
0.000440958
0.000445586
0.000450226
0.000454874
0.000459529
0.000464186
0.000468845
0.000473501
0.00047815
0.000482782
0.000487332
0.000491582
0.00049565
0.000499636
0.000503553
0.000507399
0.00051117
0.000514859
0.000518458
0.00052196
0.00052536
0.000528649
0.000531821
0.000534869
0.000537788
0.000540571
0.000543213
0.00054571
0.000548056
0.000550248
0.000552282
0.000554157
0.000555869
0.000557417
0.0005588
0.000560017
0.00056107
0.000561959
0.000562686
0.000563253
0.000563664
0.000563922
0.000564031
0.000563996
0.000563824
0.00056352
0.000563092
0.000562547
0.000561894
0.00056114
0.000560297
0.000559372
0.000558377
0.000557321
0.000556217
0.000555073
0.000553903
0.000552716
0.000551524
0.000550337
0.000549165
0.000548017
0.000546902
0.000545828
0.000544801
0.000543825
0.000542904
0.000542039
0.000541228
0.000540468
0.000539751
0.000539067
0.000538403
0.000537737
0.000537043
0.000536286
0.000535406
0.000534308
0.000532801
0.000530382
0.000526137
0.000520045
0.00051322
0.000505888
0.000498065
0.000489735
0.000480874
0.000471464
0.000461491
0.000450948
0.00043984
0.000428164
0.000415944
0.000403155
0.00038979
0.000375727
0.00036052
0.000344765
0.000326963
0.000313027
0.000350614
0.000355557
0.000340332
0.000370475
0.00039414
0.000402907
0.000400438
0.000391009
0.000377345
0.000361862
0.000344915
0.000328613
3.47289e-06
4.756e-05
9.91252e-05
0.000140509
0.00017174
0.000194837
0.000212392
0.000226725
0.00023974
0.000252715
0.000266236
0.000280341
0.000294754
0.000309112
0.000323096
0.000336484
0.000349152
0.00036106
0.000372229
0.000382727
0.000392629
0.000401973
0.000410692
0.000418582
0.000425434
0.000431536
0.000438532
0.000449056
0.000459798
0.000467893
0.000479053
0.000491579
0.000504909
0.000518441
0.000529138
0.000542253
0.000553461
0.000565438
0.000577335
0.0005894
0.00060142
0.000613145
0.000624562
0.000635678
0.000646513
0.000657091
0.000667436
0.000677575
0.000687533
0.000697336
0.000707008
0.00071657
0.000726044
0.000735448
0.000744801
0.000754116
0.000763409
0.000772691
0.000781972
0.000791262
0.000800567
0.000809893
0.000819244
0.000828624
0.000838034
0.000847474
0.000856943
0.000866439
0.000875958
0.000885497
0.00089505
0.00090461
0.00091417
0.00092372
0.000933252
0.000942752
0.000952202
0.000961513
0.000970539
0.00097934
0.000987969
0.000996457
0.00100481
0.00101302
0.00102108
0.00102897
0.00103669
0.0010442
0.00105151
0.0010586
0.00106544
0.00107204
0.00107836
0.00108441
0.00109018
0.00109564
0.00110079
0.00110562
0.00111012
0.00111429
0.00111812
0.0011216
0.00112474
0.00112752
0.00112996
0.00113204
0.00113378
0.00113517
0.00113622
0.00113693
0.00113731
0.00113737
0.00113712
0.00113656
0.00113571
0.00113458
0.00113319
0.00113154
0.00112965
0.00112754
0.00112523
0.00112272
0.00112004
0.0011172
0.00111422
0.00111113
0.00110792
0.00110463
0.00110126
0.00109784
0.00109436
0.00109084
0.0010873
0.00108374
0.00108015
0.00107655
0.00107292
0.00106925
0.00106554
0.00106176
0.00105788
0.00105386
0.00104965
0.00104519
0.00104036
0.00103503
0.00102888
0.0010215
0.00101231
0.00100146
0.00098957
0.000976826
0.000963242
0.000948783
0.000933407
0.000917073
0.000899752
0.000881428
0.000862097
0.000841767
0.000820456
0.000798163
0.000774904
0.000750622
0.000725263
0.000699267
0.000673713
0.000651225
0.000641155
0.000627464
0.000611672
0.000611401
0.000613692
0.000611036
0.000602087
0.000587821
0.000569334
0.000548176
0.000524502
0.000498784
5.50896e-06
6.43526e-05
0.000128833
0.00017912
0.000216889
0.000245284
0.00026703
0.000284517
0.000299733
0.000314146
0.000328642
0.000343596
0.000359032
0.000374801
0.000390713
0.000406612
0.00042241
0.00043808
0.000453657
0.000469216
0.000484851
0.000500651
0.000516667
0.000532911
0.000549408
0.000566306
0.000583946
0.000602587
0.00062167
0.000640795
0.000660404
0.000680263
0.000700124
0.000719744
0.000738892
0.000757964
0.000776617
0.000794959
0.00081291
0.000830497
0.000847718
0.000864509
0.00088085
0.000896763
0.000912279
0.000927438
0.000942277
0.000956833
0.000971141
0.000985234
0.000999143
0.0010129
0.00102652
0.00104005
0.00105349
0.00106687
0.0010802
0.00109351
0.00110681
0.0011201
0.0011334
0.00114672
0.00116006
0.00117342
0.00118682
0.00120024
0.00121369
0.00122716
0.00124066
0.00125417
0.00126769
0.00128121
0.00129472
0.0013082
0.00132164
0.00133502
0.00134829
0.0013613
0.00137409
0.00138668
0.00139909
0.00141132
0.00142337
0.00143523
0.00144688
0.0014583
0.00146947
0.00148038
0.001491
0.00150131
0.00151129
0.00152093
0.00153019
0.00153907
0.00154755
0.00155561
0.00156323
0.0015704
0.0015771
0.00158333
0.00158908
0.00159433
0.00159909
0.00160333
0.00160707
0.00161029
0.001613
0.0016152
0.00161689
0.00161807
0.00161876
0.00161895
0.00161866
0.0016179
0.00161668
0.00161501
0.00161291
0.00161039
0.00160747
0.00160417
0.0016005
0.00159648
0.00159214
0.00158748
0.00158254
0.00157732
0.00157186
0.00156616
0.00156024
0.00155411
0.0015478
0.00154131
0.00153465
0.00152784
0.00152086
0.00151372
0.00150641
0.00149893
0.00149126
0.00148336
0.00147522
0.00146679
0.00145799
0.00144879
0.00143902
0.00142861
0.00141729
0.00140476
0.00139079
0.00137548
0.00135909
0.00134172
0.00132335
0.00130395
0.00128347
0.00126187
0.00123911
0.00121518
0.00119008
0.00116382
0.00113642
0.00110791
0.00107834
0.00104774
0.00101624
0.000984202
0.00095246
0.000922096
0.000895025
0.000869111
0.000845062
0.000826945
0.00081169
0.000795886
0.000777879
0.000757303
0.000734167
0.00070908
0.000681977
0.000653038
7.65522e-06
7.66866e-05
0.000151513
0.000209669
0.000253698
0.000287068
0.000312786
0.000333403
0.000351023
0.000367257
0.000383201
0.000399486
0.000416383
0.000433946
0.000452124
0.00047084
0.000490041
0.000509706
0.000529847
0.000550503
0.000571723
0.000593548
0.000615998
0.000639062
0.000662715
0.000686934
0.000711698
0.000736937
0.000762458
0.000788087
0.00081374
0.000839276
0.000864554
0.00088946
0.000913923
0.000937941
0.000961455
0.000984439
0.00100687
0.00102875
0.00105008
0.00107087
0.00109112
0.00111086
0.00113014
0.00114899
0.00116746
0.00118559
0.00120341
0.00122097
0.0012383
0.00125543
0.00127239
0.00128921
0.00130591
0.00132253
0.00133908
0.00135557
0.00137203
0.00138847
0.00140491
0.00142134
0.00143778
0.00145424
0.00147072
0.00148722
0.00150373
0.00152027
0.00153682
0.00155338
0.00156994
0.00158649
0.00160302
0.00161951
0.00163595
0.00165231
0.00166846
0.0016844
0.00170016
0.00171573
0.00173111
0.0017463
0.00176129
0.00177606
0.00179059
0.00180486
0.00181885
0.00183252
0.00184586
0.00185884
0.00187143
0.00188362
0.00189537
0.00190666
0.00191748
0.00192778
0.00193757
0.00194681
0.00195549
0.00196359
0.00197109
0.00197798
0.00198425
0.00198989
0.00199489
0.00199924
0.00200294
0.00200599
0.00200838
0.00201011
0.00201119
0.00201163
0.00201142
0.00201058
0.00200912
0.00200705
0.00200437
0.00200112
0.00199729
0.00199292
0.001988
0.00198257
0.00197664
0.00197024
0.00196337
0.00195606
0.00194834
0.00194021
0.00193169
0.0019228
0.00191355
0.00190396
0.00189404
0.0018838
0.00187323
0.00186234
0.00185112
0.00183958
0.00182769
0.00181541
0.00180275
0.00178967
0.00177607
0.00176198
0.00174725
0.00173178
0.00171542
0.00169798
0.00167938
0.00165966
0.0016389
0.00161714
0.00159436
0.00157053
0.0015456
0.00151955
0.00149234
0.00146397
0.00143443
0.00140376
0.00137198
0.00133913
0.00130529
0.00127055
0.00123504
0.00119905
0.00116307
0.00112765
0.00109346
0.00106055
0.00102946
0.00100124
0.000975183
0.000949992
0.000924647
0.00089861
0.000871535
0.000843516
0.000814385
0.000784338
9.58273e-06
8.6334e-05
0.000169021
0.000234233
0.000284108
0.000322289
0.000351976
0.000375853
0.000396121
0.000414508
0.000432271
0.000450237
0.000468879
0.000488422
0.00050894
0.000530431
0.000552864
0.000576209
0.000600442
0.000625543
0.000651494
0.000678267
0.000705813
0.000734066
0.000762936
0.00079232
0.000822101
0.000852146
0.000882304
0.000912426
0.000942384
0.000972055
0.00100133
0.00103013
0.00105839
0.00108608
0.00111315
0.00113959
0.0011654
0.00119056
0.00121509
0.00123901
0.00126235
0.00128513
0.00130739
0.00132919
0.00135054
0.00137151
0.00139213
0.00141244
0.00143247
0.00145227
0.00147185
0.00149126
0.00151052
0.00152966
0.0015487
0.00156766
0.00158656
0.00160541
0.00162424
0.00164305
0.00166185
0.00168065
0.00169946
0.00171828
0.00173711
0.00175594
0.00177479
0.00179364
0.00181248
0.00183131
0.00185011
0.00186887
0.00188758
0.00190615
0.00192453
0.00194276
0.00196082
0.00197871
0.00199644
0.00201397
0.0020313
0.00204841
0.00206528
0.00208187
0.00209817
0.00211415
0.00212977
0.00214501
0.00215984
0.00217423
0.00218815
0.00220158
0.00221447
0.00222682
0.00223858
0.00224973
0.00226026
0.00227013
0.00227933
0.00228783
0.00229561
0.00230266
0.00230897
0.00231452
0.00231929
0.00232329
0.00232651
0.00232894
0.00233057
0.00233142
0.00233148
0.00233075
0.00232924
0.00232696
0.00232392
0.00232013
0.00231561
0.00231036
0.00230439
0.00229774
0.00229041
0.00228242
0.0022738
0.00226455
0.00225471
0.00224428
0.00223328
0.00222173
0.00220963
0.00219702
0.0021839
0.00217029
0.00215618
0.00214157
0.00212647
0.0021109
0.00209482
0.0020782
0.00206108
0.00204343
0.0020252
0.00200635
0.00198681
0.00196651
0.00194535
0.00192325
0.00190016
0.00187608
0.00185105
0.00182507
0.00179813
0.0017702
0.00174126
0.00171128
0.00168025
0.00164818
0.00161507
0.00158096
0.00154588
0.0015099
0.00147308
0.00143553
0.00139738
0.00135883
0.00132018
0.00128178
0.00124402
0.00120719
0.00117164
0.00113779
0.00110556
0.00107455
0.00104426
0.0010143
0.000984357
0.000954259
0.000923869
0.000893405
1.11783e-05
9.34099e-05
0.000182544
0.000253794
0.000308965
0.000351738
0.000385395
0.000412678
0.000435841
0.000456684
0.000476574
0.000496481
0.000517031
0.000538589
0.000561333
0.000585323
0.000610553
0.000636981
0.000664548
0.000693182
0.000722808
0.000753336
0.000784667
0.000816685
0.000849264
0.000882266
0.000915549
0.000948967
0.000982376
0.00101564
0.00104863
0.00108125
0.0011134
0.001145
0.00117601
0.00120638
0.00123609
0.00126511
0.00129345
0.00132111
0.00134811
0.00137445
0.00140018
0.00142532
0.00144992
0.001474
0.00149761
0.00152079
0.00154359
0.00156603
0.00158816
0.00161001
0.00163161
0.00165301
0.00167422
0.00169527
0.0017162
0.00173701
0.00175774
0.00177841
0.00179902
0.00181959
0.00184014
0.00186067
0.00188119
0.00190172
0.00192224
0.00194277
0.00196329
0.00198382
0.00200435
0.00202486
0.00204535
0.0020658
0.00208618
0.00210643
0.00212654
0.00214653
0.00216639
0.00218612
0.0022057
0.00222512
0.00224435
0.00226338
0.00228219
0.00230074
0.002319
0.00233695
0.00235456
0.00237179
0.00238861
0.00240499
0.00242089
0.00243628
0.00245113
0.00246539
0.00247905
0.00249206
0.00250441
0.00251605
0.00252696
0.0025371
0.00254647
0.00255502
0.00256274
0.00256962
0.00257562
0.00258074
0.00258497
0.00258828
0.00259068
0.00259216
0.00259271
0.00259233
0.00259102
0.00258879
0.00258563
0.00258156
0.00257659
0.00257071
0.00256396
0.00255633
0.00254784
0.00253852
0.00252837
0.00251742
0.00250568
0.00249316
0.00247989
0.00246588
0.00245113
0.00243568
0.00241955
0.00240274
0.00238526
0.00236709
0.00234827
0.00232883
0.00230875
0.00228802
0.00226664
0.00224462
0.00222192
0.00219853
0.0021744
0.0021495
0.00212379
0.00209721
0.00206976
0.00204143
0.00201224
0.0019822
0.0019513
0.00191953
0.00188688
0.00185336
0.00181897
0.00178373
0.00174765
0.00171078
0.00167316
0.00163487
0.00159596
0.00155654
0.0015167
0.00147661
0.00143644
0.00139644
0.00135689
0.00131802
0.00128006
0.00124327
0.00120776
0.00117347
0.00114022
0.00110782
0.00107604
0.00104464
0.00101353
0.000982946
1.22967e-05
9.86095e-05
0.000192691
0.000268919
0.000328763
0.000375826
0.000413373
0.000444137
0.000470369
0.000493894
0.000516136
0.000538153
0.000560679
0.000584183
0.00060893
0.000635035
0.000662519
0.00069134
0.000721417
0.00075265
0.000784921
0.000818107
0.000852071
0.000886672
0.000921766
0.000957201
0.000992832
0.00102851
0.00106411
0.00109949
0.00113455
0.00116918
0.00120331
0.00123687
0.00126981
0.00130208
0.00133368
0.00136457
0.00139477
0.00142427
0.00145308
0.00148124
0.00150875
0.00153566
0.001562
0.0015878
0.0016131
0.00163794
0.00166236
0.0016864
0.00171009
0.00173346
0.00175656
0.00177941
0.00180205
0.0018245
0.00184679
0.00186895
0.001891
0.00191295
0.00193483
0.00195666
0.00197844
0.0020002
0.00202193
0.00204366
0.00206538
0.0020871
0.00210882
0.00213055
0.00215228
0.002174
0.00219571
0.0022174
0.002239
0.00226052
0.00228196
0.00230333
0.00232461
0.00234581
0.00236689
0.00238786
0.00240868
0.00242933
0.0024498
0.00247004
0.00249004
0.00250976
0.00252916
0.00254821
0.00256688
0.00258512
0.0026029
0.00262017
0.00263691
0.00265307
0.00266861
0.0026835
0.00269769
0.00271115
0.00272385
0.00273575
0.00274681
0.002757
0.00276629
0.00277466
0.00278208
0.00278852
0.00279397
0.0027984
0.0028018
0.00280416
0.00280546
0.00280569
0.00280485
0.00280294
0.00279995
0.00279589
0.00279075
0.00278455
0.00277729
0.00276898
0.00275962
0.00274924
0.00273785
0.00272547
0.0027121
0.00269777
0.00268249
0.00266627
0.00264912
0.00263108
0.00261218
0.00259241
0.0025718
0.00255034
0.00252807
0.002505
0.00248114
0.0024565
0.00243109
0.00240491
0.00237797
0.00235026
0.00232177
0.00229249
0.00226241
0.00223153
0.00219985
0.00216739
0.00213417
0.0021002
0.00206551
0.00203011
0.00199402
0.00195725
0.00191984
0.00188182
0.00184322
0.00180409
0.0017645
0.00172449
0.00168415
0.00164354
0.00160275
0.00156188
0.00152106
0.00148045
0.00144024
0.00140059
0.00136167
0.00132364
0.00128667
0.00125083
0.00121611
0.00118245
0.00114971
0.00111768
0.0010863
0.0010558
1.30399e-05
0.000102093
0.000199787
0.000280013
0.000343891
0.000394871
0.000436133
0.000470344
0.00049971
0.000526033
0.000550745
0.000574948
0.000599439
0.000624758
0.000651238
0.000679046
0.000708235
0.000738778
0.000770594
0.000803571
0.000837576
0.000872465
0.000908091
0.000944299
0.000980938
0.00101786
0.00105491
0.00109197
0.00112889
0.00116556
0.00120189
0.00123778
0.00127315
0.00130795
0.00134213
0.00137564
0.00140848
0.00144062
0.00147206
0.0015028
0.00153286
0.00156225
0.001591
0.00161913
0.00164668
0.00167367
0.00170014
0.00172613
0.00175167
0.00177681
0.00180157
0.00182599
0.0018501
0.00187395
0.00189755
0.00192094
0.00194415
0.0019672
0.00199011
0.00201292
0.00203564
0.00205828
0.00208088
0.00210343
0.00212595
0.00214847
0.00217097
0.00219348
0.002216
0.00223853
0.00226107
0.00228363
0.00230619
0.00232874
0.00235125
0.00237374
0.00239621
0.00241866
0.00244108
0.00246347
0.00248581
0.00250808
0.00253027
0.00255234
0.00257428
0.00259605
0.00261763
0.00263897
0.00266005
0.00268083
0.00270126
0.0027213
0.00274092
0.00276006
0.00277869
0.00279676
0.00281422
0.00283103
0.00284715
0.00286253
0.00287713
0.0028909
0.0029038
0.00291579
0.00292683
0.00293689
0.00294592
0.00295391
0.00296081
0.0029666
0.00297126
0.00297477
0.00297709
0.00297822
0.00297814
0.00297684
0.00297432
0.00297057
0.00296558
0.00295935
0.0029519
0.0029432
0.00293329
0.00292216
0.00290984
0.00289632
0.00288164
0.00286579
0.00284879
0.00283067
0.00281143
0.0027911
0.0027697
0.00274726
0.00272379
0.00269931
0.00267383
0.00264739
0.00262001
0.0025917
0.00256249
0.00253239
0.00250143
0.00246961
0.00243697
0.00240351
0.00236925
0.00233422
0.00229845
0.00226198
0.00222485
0.0021871
0.00214878
0.00210993
0.00207059
0.00203081
0.00199064
0.00195014
0.00190936
0.00186837
0.00182722
0.00178598
0.0017447
0.00170345
0.00166228
0.00162126
0.00158046
0.00153998
0.00149994
0.00146043
0.00142156
0.00138344
0.00134624
0.00131006
0.00127497
0.00124097
0.00120801
0.00117592
0.00114465
0.00111444
1.34543e-05
0.000104045
0.000204151
0.000287461
0.000354731
0.000409201
0.00045391
0.000491424
0.000523867
0.000552982
0.000580176
0.000606547
0.000632924
0.00065989
0.000687824
0.000716942
0.000747335
0.000779
0.000811875
0.000845854
0.000880807
0.000916591
0.000953055
0.000990048
0.00102742
0.00106503
0.00110273
0.0011404
0.00117791
0.00121517
0.00125207
0.00128853
0.00132449
0.00135988
0.00139467
0.00142881
0.00146228
0.00149508
0.00152718
0.00155861
0.00158935
0.00161944
0.00164889
0.00167772
0.00170595
0.00173363
0.00176078
0.00178743
0.00181363
0.0018394
0.00186477
0.00188979
0.00191449
0.0019389
0.00196304
0.00198696
0.00201068
0.00203422
0.00205762
0.0020809
0.00210407
0.00212717
0.0021502
0.00217319
0.00219616
0.00221911
0.00224207
0.00226503
0.00228802
0.00231103
0.00233408
0.00235717
0.00238029
0.00240343
0.00242661
0.00244984
0.00247312
0.00249644
0.0025198
0.00254319
0.00256661
0.00259002
0.00261342
0.00263677
0.00266006
0.00268325
0.00270631
0.00272921
0.0027519
0.00277435
0.00279652
0.00281835
0.0028398
0.00286083
0.00288137
0.0029014
0.00292085
0.00293966
0.00295781
0.00297522
0.00299185
0.00300764
0.00302254
0.0030365
0.00304947
0.00306141
0.00307228
0.00308203
0.00309063
0.00309803
0.00310421
0.00310912
0.00311275
0.00311506
0.00311603
0.00311565
0.0031139
0.00311076
0.00310623
0.0031003
0.00309297
0.00308422
0.00307408
0.00306253
0.0030496
0.00303528
0.00301959
0.00300255
0.00298416
0.00296444
0.00294341
0.0029211
0.00289752
0.00287269
0.00284665
0.00281942
0.00279101
0.00276147
0.00273082
0.00269909
0.00266632
0.00263254
0.00259778
0.00256208
0.00252549
0.00248803
0.00244977
0.00241075
0.00237104
0.00233069
0.00228978
0.00224839
0.00220657
0.00216442
0.002122
0.0020794
0.0020367
0.00199397
0.00195129
0.00190873
0.00186637
0.00182426
0.00178247
0.00174101
0.00169994
0.00165928
0.00161905
0.00157929
0.00154007
0.00150142
0.00146337
0.00142602
0.00138947
0.00135384
0.0013192
0.0012856
0.00125303
0.00122135
0.00119055
0.00116086
1.35831e-05
0.000104695
0.000206143
0.000291675
0.000361689
0.000419171
0.000466983
0.000507555
0.000542904
0.000574693
0.00060427
0.000632708
0.000660832
0.000689245
0.000718358
0.000748427
0.000779579
0.000811846
0.000845194
0.000879537
0.000914763
0.000950742
0.000987332
0.00102439
0.00106178
0.00109937
0.00113702
0.00117461
0.00121205
0.00124922
0.00128604
0.00132244
0.00135834
0.00139371
0.00142849
0.00146265
0.00149617
0.00152903
0.00156123
0.00159277
0.00162365
0.00165389
0.00168351
0.00171251
0.00174093
0.0017688
0.00179615
0.001823
0.00184939
0.00187534
0.00190091
0.00192611
0.00195098
0.00197555
0.00199986
0.00202393
0.0020478
0.00207149
0.00209503
0.00211844
0.00214175
0.00216498
0.00218816
0.00221129
0.00223441
0.00225752
0.00228065
0.0023038
0.002327
0.00235025
0.00237356
0.00239694
0.00242041
0.00244398
0.00246767
0.00249147
0.0025154
0.00253946
0.00256362
0.0025879
0.00261227
0.00263673
0.00266124
0.00268579
0.00271035
0.0027349
0.00275939
0.0027838
0.00280809
0.0028322
0.0028561
0.00287973
0.00290304
0.00292598
0.0029485
0.00297054
0.00299205
0.00301297
0.00303323
0.00305279
0.00307159
0.00308954
0.0031066
0.0031227
0.00313779
0.00315181
0.00316472
0.00317646
0.00318699
0.00319624
0.00320419
0.00321078
0.00321599
0.00321976
0.00322208
0.00322292
0.00322224
0.00322004
0.00321629
0.00321098
0.00320409
0.00319563
0.00318558
0.00317394
0.00316073
0.00314593
0.00312958
0.00311166
0.0030922
0.00307121
0.00304871
0.00302471
0.00299925
0.00297235
0.00294404
0.00291434
0.00288329
0.00285092
0.00281727
0.00278238
0.0027463
0.00270907
0.00267074
0.00263138
0.00259104
0.00254979
0.0025077
0.00246486
0.00242135
0.00237727
0.00233272
0.00228781
0.00224264
0.00219734
0.002152
0.00210675
0.0020617
0.00201694
0.00197259
0.00192873
0.00188544
0.00184279
0.00180081
0.00175953
0.00171895
0.00167908
0.00163988
0.00160136
0.0015635
0.00152628
0.00148969
0.00145376
0.00141855
0.00138415
0.00135063
0.00131804
0.00128638
0.00125554
0.00122555
0.00119662
1.3471e-05
0.000104275
0.000206131
0.000293077
0.000365185
0.000425159
0.000475658
0.000518954
0.000556939
0.000591177
0.000622942
0.000653259
0.00068293
0.000712556
0.000742568
0.000773246
0.000804754
0.000837161
0.000870463
0.000904607
0.000939505
0.000975047
0.00101111
0.00104758
0.00108432
0.00112121
0.00115813
0.00119499
0.00123167
0.0012681
0.00130418
0.00133986
0.00137508
0.00140978
0.00144392
0.00147748
0.00151043
0.00154277
0.00157447
0.00160555
0.001636
0.00166584
0.00169508
0.00172374
0.00175185
0.00177942
0.00180648
0.00183307
0.00185921
0.00188494
0.00191028
0.00193528
0.00195995
0.00198434