/*--------------------------------*- C++ -*----------------------------------*\
  =========                 |
  \\      /  F ield         | OpenFOAM: The Open Source CFD Toolbox
   \\    /   O peration     | Website:  https://openfoam.org
    \\  /    A nd           | Version:  7
     \\/     M anipulation  |
\*---------------------------------------------------------------------------*/
FoamFile
{
    version     2.0;
    format      ascii;
    class       volScalarField;
    location    "0.11";
    object      p;
}
// * * * * * * * * * * * * * * * * * * * * * * * * * * * * * * * * * * * * * //

dimensions      [0 2 -2 0 0 0 0];

internalField   nonuniform List<scalar> 
12225
(
-2.44852
-1.8523
-1.78764
-1.83786
-1.77297
-1.67095
-1.59532
-1.54473
-1.50516
-1.47257
-1.44743
-1.4292
-1.41639
-1.40775
-1.40256
-1.39979
-1.40073
-1.39634
-3.80133
-2.56477
-2.03355
-1.8935
-1.77944
-1.66514
-1.58585
-1.53446
-1.49537
-1.46368
-1.43944
-1.42197
-1.40981
-1.40173
-1.39705
-1.39493
-1.39589
-1.39807
-3.55825
-2.37643
-1.92023
-1.83115
-1.74745
-1.64749
-1.57356
-1.52445
-1.48699
-1.45667
-1.43348
-1.41679
-1.40521
-1.3976
-1.39333
-1.39172
-1.39326
-1.39747
-3.11324
-2.26602
-1.89864
-1.81521
-1.73349
-1.63742
-1.56529
-1.51691
-1.4803
-1.45093
-1.42852
-1.4124
-1.40126
-1.39403
-1.39007
-1.38891
-1.39058
-1.39556
-2.81853
-2.24247
-1.90901
-1.80372
-1.71761
-1.6254
-1.55549
-1.50795
-1.47223
-1.44389
-1.42236
-1.40691
-1.39632
-1.38955
-1.38598
-1.3852
-1.3869
-1.39183
-2.61187
-2.20677
-1.90039
-1.78173
-1.69671
-1.61063
-1.54383
-1.49753
-1.46294
-1.43578
-1.41526
-1.40059
-1.39061
-1.38436
-1.38121
-1.38075
-1.38247
-1.3871
-2.43447
-2.14433
-1.87572
-1.75433
-1.67276
-1.59328
-1.53007
-1.48543
-1.45225
-1.42648
-1.4071
-1.39331
-1.38404
-1.37837
-1.37566
-1.3755
-1.37729
-1.38162
-2.2741
-2.06822
-1.84213
-1.72345
-1.64556
-1.5727
-1.5136
-1.47112
-1.43968
-1.41551
-1.39747
-1.38472
-1.37628
-1.37128
-1.36908
-1.36926
-1.37119
-1.37533
-2.12947
-1.98541
-1.80032
-1.68804
-1.61436
-1.54829
-1.49391
-1.4541
-1.42476
-1.40246
-1.38596
-1.37445
-1.36699
-1.36278
-1.36119
-1.36178
-1.36395
-1.36805
-1.99798
-1.89792
-1.74976
-1.64721
-1.57874
-1.51966
-1.47053
-1.43396
-1.40708
-1.38695
-1.37224
-1.36216
-1.35586
-1.35258
-1.35172
-1.35284
-1.35538
-1.35962
-1.87625
-1.80697
-1.69088
-1.60058
-1.53843
-1.48646
-1.44306
-1.41028
-1.38629
-1.36862
-1.35597
-1.34755
-1.34261
-1.34043
-1.34045
-1.34225
-1.34529
-1.34985
-1.77075
-1.7211
-1.62998
-1.55226
-1.49688
-1.45157
-1.4138
-1.38501
-1.36407
-1.34897
-1.33847
-1.33182
-1.32831
-1.32732
-1.3283
-1.33087
-1.33451
-1.33955
-1.67037
-1.63455
-1.56456
-1.4996
-1.45149
-1.41293
-1.38105
-1.35664
-1.33908
-1.32681
-1.31869
-1.31401
-1.31213
-1.31248
-1.31457
-1.31804
-1.32244
-1.32804
-1.55887
-1.53423
-1.4839
-1.4332
-1.3941
-1.36345
-1.33859
-1.31968
-1.30646
-1.29782
-1.29277
-1.29064
-1.29089
-1.29301
-1.29659
-1.30129
-1.30674
-1.31315
-1.43409
-1.41839
-1.3854
-1.34989
-1.32165
-1.30023
-1.28363
-1.27157
-1.2639
-1.2599
-1.25879
-1.25999
-1.26302
-1.2675
-1.27306
-1.27944
-1.28632
-1.2939
-1.29262
-1.28406
-1.26599
-1.24599
-1.23038
-1.21975
-1.21284
-1.20914
-1.20848
-1.21042
-1.21438
-1.2199
-1.2266
-1.23419
-1.24242
-1.25106
-1.2599
-1.26911
-1.12872
-1.12612
-1.1212
-1.11688
-1.11566
-1.11772
-1.12224
-1.12871
-1.13685
-1.14634
-1.15679
-1.16789
-1.17938
-1.19108
-1.20283
-1.21452
-1.22599
-1.23743
-0.932658
-0.935682
-0.943544
-0.955906
-0.97138
-0.988713
-1.0071
-1.02606
-1.04525
-1.06436
-1.08314
-1.10144
-1.11915
-1.13623
-1.15262
-1.16831
-1.18326
-1.19769
-0.686436
-0.696657
-0.720185
-0.753156
-0.789628
-0.826265
-0.862128
-0.89689
-0.930128
-0.961495
-0.990892
-1.01837
-1.04404
-1.068
-1.09035
-1.11121
-1.13067
-1.14902
-0.426059
-0.445805
-0.48992
-0.548543
-0.609348
-0.667195
-0.721841
-0.773361
-0.8212
-0.865036
-0.905058
-0.941639
-0.975112
-1.00576
-1.03385
-1.05966
-1.0834
-1.10544
-0.190781
-0.221949
-0.290944
-0.37805
-0.462881
-0.540172
-0.611778
-0.678182
-0.738513
-0.792638
-0.841243
-0.885074
-0.924675
-0.960502
-0.992992
-1.02256
-1.04951
-1.07434
0.0494562
0.000755116
-0.10358
-0.225606
-0.335324
-0.431369
-0.51952
-0.6001
-0.671674
-0.734687
-0.790591
-0.840513
-0.88518
-0.925221
-0.961252
-0.993817
-1.02333
-1.05035
0.300223
0.223649
0.0694941
-0.0929865
-0.226295
-0.339909
-0.444229
-0.537925
-0.61911
-0.68949
-0.751442
-0.806355
-0.855083
-0.898453
-0.937256
-0.972159
-1.00366
-1.03236
0.568019
0.445454
0.222284
0.0178577
-0.134273
-0.264273
-0.384684
-0.490048
-0.578897
-0.655112
-0.721948
-0.78083
-0.832705
-0.878617
-0.919529
-0.956201
-0.989194
-1.01916
0.861399
0.665289
0.34712
0.104428
-0.0578501
-0.20257
-0.338787
-0.454093
-0.54874
-0.629477
-0.700195
-0.76216
-0.816411
-0.864223
-0.906707
-0.944693
-0.978793
-1.00967
1.1853
0.888874
0.446904
0.169378
0.00325506
-0.154482
-0.304652
-0.42758
-0.526464
-0.610753
-0.684542
-0.748866
-0.804896
-0.854124
-0.897774
-0.936719
-0.971621
-1.00314
1.52004
1.09934
0.536849
0.233284
0.0559853
-0.119288
-0.281171
-0.408892
-0.510666
-0.597797
-0.674014
-0.740124
-0.797486
-0.847788
-0.892325
-0.93199
-0.9675
-0.999516
1.85708
1.17037
0.574967
0.314475
0.123012
-0.0841682
-0.261197
-0.393782
-0.498517
-0.588507
-0.666926
-0.73447
-0.792801
-0.84383
-0.888927
-0.929003
-0.964846
-0.997155
2.48997
0.95113
0.30866
0.21611
0.098154
-0.0981973
-0.272488
-0.400498
-0.502647
-0.592067
-0.67049
-0.737986
-0.796197
-0.847088
-0.892007
-0.931813
-0.967268
-0.999334
4.89219
1.96665
0.675774
0.401046
0.197697
-0.0509146
-0.250044
-0.388223
-0.495276
-0.587852
-0.668468
-0.737492
-0.796833
-0.848627
-0.894284
-0.934627
-0.970232
-1.0012
-1.59882
-1.59816
-1.598
-1.5984
-1.59905
-1.59968
-1.60028
-1.60095
-1.60187
-1.60326
-1.60527
-1.608
-1.61151
-1.61588
-1.62117
-1.62745
-1.63475
-1.6431
-1.65254
-1.66309
-1.67478
-1.68772
-1.70207
-1.71824
-1.73633
-1.75132
-1.75373
-1.75515
-1.7742
-1.79865
-1.81731
-1.83503
-1.85247
-1.86884
-1.88388
-1.88679
-1.89463
-1.91781
-1.93789
-1.9433
-1.94042
-1.94314
-1.94733
-1.95172
-1.95584
-1.95943
-1.96237
-1.9646
-1.96608
-1.96678
-1.9667
-1.96581
-1.9641
-1.96155
-1.95815
-1.95386
-1.94867
-1.94256
-1.93548
-1.92741
-1.91833
-1.9082
-1.89698
-1.88465
-1.87117
-1.85651
-1.84063
-1.82351
-1.80512
-1.78542
-1.7644
-1.74203
-1.71829
-1.69317
-1.66665
-1.63873
-1.60941
-1.57873
-1.5467
-1.51333
-1.47852
-1.44231
-1.40478
-1.36596
-1.32591
-1.28468
-1.24233
-1.19891
-1.15448
-1.10912
-1.0629
-1.01588
-0.968133
-0.919741
-0.870776
-0.821314
-0.771429
-0.721197
-0.670689
-0.619974
-0.569117
-0.518177
-0.46721
-0.416261
-0.365371
-0.314571
-0.263883
-0.21332
-0.162882
-0.112559
-0.0623276
-0.0121514
0.0380196
0.0882496
0.138617
0.189217
0.240157
0.291562
0.343571
0.396339
0.450035
0.504841
0.560955
0.618584
0.67795
0.739281
0.802814
0.868792
0.937459
1.00906
1.08383
1.16201
1.24381
1.32944
1.41906
1.51282
1.61083
1.71315
1.81978
1.93068
2.04571
2.16468
2.28732
2.41323
2.54196
2.67292
2.80543
2.93867
3.07172
3.20372
3.33374
3.46071
3.58353
3.70111
3.8124
3.91642
4.01227
4.0992
4.17663
4.24414
4.30155
4.34873
4.38596
4.41307
4.4301
4.43356
4.41454
4.41592
4.43441
4.43808
4.40439
4.37596
4.38894
4.38937
4.3869
4.38834
4.39477
4.41198
4.4524
4.51409
-1.59888
-1.59853
-1.59842
-1.59873
-1.59899
-1.5988
-1.59809
-1.59709
-1.59623
-1.59591
-1.59634
-1.59763
-1.59977
-1.60279
-1.60671
-1.6116
-1.61752
-1.62453
-1.63269
-1.64201
-1.65244
-1.66391
-1.67618
-1.6887
-1.69981
-1.70851
-1.72658
-1.75632
-1.77553
-1.78599
-1.79851
-1.81178
-1.82449
-1.83689
-1.84629
-1.86633
-1.88575
-1.88964
-1.8901
-1.90065
-1.91903
-1.93
-1.93763
-1.94369
-1.94863
-1.95266
-1.95585
-1.95824
-1.95985
-1.96067
-1.9607
-1.95994
-1.95837
-1.95597
-1.95273
-1.94862
-1.94362
-1.9377
-1.93084
-1.92301
-1.91417
-1.9043
-1.89335
-1.8813
-1.86812
-1.85377
-1.83821
-1.82142
-1.80336
-1.78402
-1.76335
-1.74135
-1.71798
-1.69324
-1.66711
-1.63958
-1.61065
-1.58032
-1.54857
-1.51536
-1.48078
-1.44487
-1.40766
-1.36916
-1.32943
-1.2885
-1.24643
-1.20328
-1.1591
-1.11397
-1.06795
-1.02112
-0.973542
-0.925295
-0.876455
-0.827097
-0.777297
-0.727132
-0.676675
-0.625996
-0.575162
-0.524237
-0.473275
-0.422328
-0.371438
-0.320641
-0.269962
-0.219417
-0.16901
-0.118735
-0.0685736
-0.0184927
0.0315533
0.0816246
0.131796
0.182157
0.232814
0.283885
0.335509
0.387834
0.441028
0.495271
0.550756
0.607689
0.666289
0.726783
0.789407
0.854402
0.922013
0.992485
1.06606
1.14296
1.22342
1.30764
1.39579
1.48803
1.58446
1.68516
1.79013
1.89935
2.0127
2.12999
2.25097
2.37527
2.50246
2.632
2.76324
2.89543
3.02763
3.15887
3.2882
3.41469
3.53727
3.65487
3.76645
3.87104
3.96773
4.05579
4.13463
4.20375
4.26299
4.3123
4.35176
4.38222
4.40365
4.41962
4.43823
4.43735
4.42427
4.41124
4.41195
4.40771
4.38598
4.37556
4.37042
4.36989
4.37817
4.39515
4.43134
4.48087
-1.59666
-1.59728
-1.59801
-1.59879
-1.59906
-1.59872
-1.59788
-1.59682
-1.59591
-1.59548
-1.59576
-1.59688
-1.59893
-1.60195
-1.60599
-1.61111
-1.61734
-1.62474
-1.63331
-1.64305
-1.65392
-1.66584
-1.67865
-1.69203
-1.70549
-1.71903
-1.73495
-1.75426
-1.77259
-1.78832
-1.80329
-1.81772
-1.83118
-1.8438
-1.85578
-1.8689
-1.88156
-1.89027
-1.89708
-1.9051
-1.91461
-1.92288
-1.92994
-1.93595
-1.94101
-1.94519
-1.94852
-1.95105
-1.95279
-1.95374
-1.95391
-1.95329
-1.95187
-1.94963
-1.94656
-1.94264
-1.93784
-1.93214
-1.9255
-1.91791
-1.90933
-1.89972
-1.88905
-1.8773
-1.86442
-1.85039
-1.83517
-1.81873
-1.80103
-1.78205
-1.76177
-1.74015
-1.71718
-1.69284
-1.66712
-1.64
-1.61147
-1.58154
-1.55021
-1.51747
-1.48333
-1.44783
-1.41101
-1.37289
-1.33353
-1.29295
-1.25121
-1.20837
-1.16449
-1.11964
-1.07388
-1.02727
-0.979907
-0.931848
-0.883173
-0.833958
-0.784281
-0.734218
-0.683845
-0.633234
-0.582455
-0.531573
-0.480647
-0.429731
-0.378872
-0.328108
-0.277468
-0.226975
-0.176636
-0.12645
-0.0764025
-0.0264662
0.0234001
0.0732517
0.123159
0.173206
0.223495
0.274141
0.325276
0.377046
0.429615
0.483159
0.537868
0.593947
0.651611
0.711085
0.772604
0.836409
0.902744
0.971853
1.04398
1.11935
1.19821
1.28074
1.36713
1.45755
1.55211
1.65088
1.7539
1.86113
1.97248
2.08778
2.20679
2.32917
2.4545
2.58226
2.7118
2.84238
2.97321
3.10343
3.23211
3.35823
3.48073
3.59856
3.71069
3.81614
3.91403
4.00359
4.08421
4.15541
4.21697
4.26886
4.3112
4.34479
4.36972
4.38843
4.40539
4.41026
4.40369
4.39382
4.39237
4.39038
4.37541
4.36743
4.36381
4.36459
4.37145
4.38572
4.41382
4.44317
-1.59131
-1.59343
-1.59555
-1.59716
-1.59797
-1.59807
-1.5977
-1.59715
-1.59672
-1.59669
-1.59729
-1.5987
-1.60103
-1.60437
-1.60877
-1.61428
-1.62093
-1.62874
-1.6377
-1.64778
-1.65891
-1.67098
-1.68385
-1.69732
-1.7112
-1.72552
-1.7406
-1.75654
-1.77257
-1.78798
-1.80273
-1.81687
-1.8303
-1.84298
-1.85518
-1.86695
-1.87799
-1.88774
-1.89643
-1.90463
-1.91249
-1.91975
-1.92624
-1.93193
-1.93683
-1.94094
-1.94427
-1.94682
-1.94862
-1.94964
-1.9499
-1.94939
-1.94809
-1.94599
-1.94307
-1.93931
-1.93469
-1.92917
-1.92274
-1.91535
-1.90699
-1.89762
-1.8872
-1.8757
-1.86308
-1.84932
-1.83437
-1.81821
-1.80081
-1.78213
-1.76215
-1.74083
-1.71817
-1.69414
-1.66871
-1.64189
-1.61366
-1.58402
-1.55297
-1.52052
-1.48667
-1.45146
-1.41491
-1.37705
-1.33793
-1.29758
-1.25607
-1.21343
-1.16974
-1.12506
-1.07945
-1.03299
-0.98575
-0.937802
-0.889223
-0.840089
-0.790481
-0.740475
-0.690149
-0.639578
-0.588832
-0.537981
-0.487086
-0.436203
-0.385382
-0.334666
-0.284089
-0.233673
-0.183432
-0.133369
-0.0834717
-0.033718
0.0159297
0.0655229
0.115128
0.164826
0.214714
0.264906
0.315528
0.366727
0.41866
0.471503
0.525445
0.580686
0.637442
0.695937
0.756406
0.81909
0.884234
0.952084
1.02288
1.09687
1.17428
1.25531
1.34016
1.42899
1.52193
1.61907
1.72043
1.82602
1.93573
2.04943
2.16687
2.28774
2.41162
2.538
2.66627
2.79573
2.92562
3.05513
3.18332
3.30919
3.43167
3.54973
3.66235
3.76853
3.8674
3.95817
4.04024
4.11311
4.17655
4.23051
4.27515
4.31105
4.33841
4.35903
4.37516
4.38316
4.38225
4.3774
4.3755
4.37355
4.36482
4.35842
4.35523
4.35562
4.36103
4.37211
4.39191
4.40641
-1.5838
-1.58738
-1.59132
-1.5943
-1.59609
-1.59701
-1.59744
-1.59766
-1.59797
-1.59865
-1.59992
-1.60198
-1.60494
-1.6089
-1.61393
-1.62005
-1.62729
-1.63564
-1.64507
-1.65551
-1.6669
-1.67911
-1.69202
-1.70548
-1.71935
-1.73359
-1.74818
-1.76303
-1.77781
-1.79224
-1.80623
-1.81969
-1.83257
-1.84485
-1.85653
-1.86763
-1.87801
-1.88752
-1.89624
-1.90434
-1.91188
-1.91876
-1.92493
-1.93037
-1.93509
-1.93909
-1.94235
-1.94489
-1.94669
-1.94776
-1.94808
-1.94765
-1.94645
-1.94446
-1.94166
-1.93804
-1.93357
-1.92821
-1.92195
-1.91474
-1.90656
-1.89738
-1.88715
-1.87585
-1.86344
-1.84989
-1.83516
-1.81921
-1.80202
-1.78355
-1.76378
-1.74268
-1.72023
-1.6964
-1.67118
-1.64455
-1.61651
-1.58706
-1.55619
-1.52391
-1.49023
-1.45517
-1.41876
-1.38104
-1.34204
-1.3018
-1.26038
-1.21782
-1.1742
-1.12958
-1.08403
-1.03761
-0.990402
-0.94248
-0.893921
-0.844802
-0.795204
-0.745207
-0.694889
-0.644328
-0.593597
-0.542766
-0.4919
-0.441057
-0.390291
-0.339646
-0.289159
-0.238856
-0.188754
-0.138857
-0.089158
-0.0396357
0.00974396
0.0590299
0.108286
0.157591
0.207039
0.256742
0.306826
0.357433
0.408722
0.460865
0.51405
0.568479
0.624366
0.681936
0.741425
0.803075
0.867133
0.933848
1.00347
1.07623
1.15238
1.23212
1.31566
1.40316
1.49476
1.59055
1.6906
1.79488
1.90332
2.01579
2.13206
2.25182
2.37468
2.50013
2.62758
2.75635
2.88569
3.01479
3.14274
3.26852
3.39112
3.50948
3.62257
3.72942
3.82913
3.92092
4.00416
4.07836
4.14328
4.19885
4.24523
4.2829
4.31217
4.33446
4.35142
4.36097
4.36317
4.36173
4.36084
4.35902
4.35291
4.34757
4.34451
4.34432
4.3481
4.35563
4.36814
4.37208
-1.57632
-1.58109
-1.58672
-1.59114
-1.59406
-1.596
-1.59739
-1.59858
-1.59983
-1.60143
-1.6036
-1.60652
-1.61032
-1.61509
-1.62089
-1.62774
-1.63564
-1.64456
-1.65445
-1.66524
-1.67684
-1.68913
-1.70201
-1.71533
-1.72899
-1.74289
-1.75694
-1.77103
-1.78497
-1.7986
-1.81184
-1.82461
-1.83686
-1.84855
-1.85966
-1.87016
-1.88
-1.88913
-1.89758
-1.90541
-1.91264
-1.91923
-1.92516
-1.93041
-1.93499
-1.93888
-1.94208
-1.94458
-1.94639
-1.94748
-1.94786
-1.9475
-1.94638
-1.94449
-1.94181
-1.93832
-1.93397
-1.92876
-1.92264
-1.91559
-1.90756
-1.89854
-1.88848
-1.87734
-1.86509
-1.8517
-1.83713
-1.82134
-1.8043
-1.78598
-1.76636
-1.74539
-1.72307
-1.69936
-1.67426
-1.64774
-1.6198
-1.59044
-1.55965
-1.52744
-1.49382
-1.45882
-1.42245
-1.38475
-1.34576
-1.30553
-1.2641
-1.22153
-1.17789
-1.13323
-1.08764
-1.04119
-0.993939
-0.945975
-0.897374
-0.848217
-0.798585
-0.748559
-0.698221
-0.64765
-0.596921
-0.546106
-0.495274
-0.444484
-0.393792
-0.343246
-0.292884
-0.242734
-0.192815
-0.143135
-0.0936868
-0.0444523
0.00460113
0.0535206
0.102368
0.151221
0.200174
0.249335
0.29883
0.348801
0.399405
0.450815
0.503219
0.556819
0.611829
0.668477
0.726998
0.787637
0.850645
0.916273
0.984773
1.05639
1.13136
1.20992
1.29226
1.37855
1.46896
1.56357
1.66246
1.76561
1.87297
1.98441
2.09972
2.21859
2.34065
2.46541
2.59228
2.72059
2.84961
2.97852
3.10641
3.2323
3.35514
3.4739
3.58755
3.6951
3.79564
3.88839
3.97271
4.0481
4.11429
4.17123
4.21906
4.2582
4.28904
4.31277
4.33042
4.34125
4.34579
4.34656
4.3463
4.34458
4.33997
4.33543
4.33243
4.33157
4.33356
4.33762
4.34404
4.34007
-1.57001
-1.57595
-1.58298
-1.58864
-1.59263
-1.59557
-1.59796
-1.60012
-1.60235
-1.6049
-1.608
-1.61181
-1.61647
-1.62204
-1.62859
-1.63611
-1.6446
-1.654
-1.66427
-1.67531
-1.68703
-1.69933
-1.71209
-1.7252
-1.73854
-1.75203
-1.76555
-1.779
-1.79227
-1.80525
-1.81785
-1.83001
-1.84168
-1.85283
-1.86343
-1.87345
-1.88287
-1.89166
-1.89983
-1.90739
-1.91436
-1.92073
-1.92646
-1.93157
-1.93603
-1.93985
-1.943
-1.9455
-1.94732
-1.94845
-1.94888
-1.94859
-1.94756
-1.94578
-1.94321
-1.93983
-1.93561
-1.93052
-1.92454
-1.91762
-1.90973
-1.90084
-1.89091
-1.8799
-1.86778
-1.85451
-1.84005
-1.82437
-1.80743
-1.78921
-1.76967
-1.74877
-1.72651
-1.70286
-1.67779
-1.65131
-1.62339
-1.59403
-1.56324
-1.531
-1.49735
-1.4623
-1.42588
-1.38811
-1.34905
-1.30873
-1.2672
-1.22453
-1.18078
-1.13602
-1.09032
-1.04376
-0.996409
-0.948346
-0.899653
-0.850414
-0.80071
-0.750627
-0.700247
-0.649652
-0.598919
-0.548123
-0.497333
-0.446612
-0.396018
-0.345601
-0.295399
-0.245444
-0.195757
-0.146344
-0.0972028
-0.0483147
0.000351515
0.0488419
0.0972177
0.145556
0.193949
0.242507
0.291354
0.340632
0.390499
0.441128
0.492707
0.54544
0.599541
0.655241
0.712776
0.772395
0.83435
0.898898
0.966292
1.03678
1.11062
1.18803
1.26922
1.35437
1.44365
1.53715
1.63496
1.73708
1.84346
1.95398
2.06843
2.18654
2.30792
2.4321
2.55852
2.68651
2.81535
2.94421
3.07218
3.19829
3.32149
3.44074
3.55501
3.66329
3.76468
3.85837
3.94371
4.0202
4.08757
4.14573
4.19482
4.23521
4.26735
4.29222
4.31065
4.3226
4.32877
4.33103
4.33133
4.32985
4.32619
4.32222
4.31915
4.31751
4.31769
4.3186
4.32001
4.31005
-1.56713
-1.57348
-1.58122
-1.58765
-1.59243
-1.59618
-1.59941
-1.60243
-1.60552
-1.60893
-1.61286
-1.61747
-1.62287
-1.62913
-1.6363
-1.64437
-1.65331
-1.66307
-1.67359
-1.68479
-1.69655
-1.70879
-1.72139
-1.73426
-1.74728
-1.76037
-1.77342
-1.78636
-1.79908
-1.81151
-1.82358
-1.83524
-1.84644
-1.85714
-1.86733
-1.87697
-1.88605
-1.89456
-1.90249
-1.90985
-1.91663
-1.92283
-1.92844
-1.93345
-1.93785
-1.94163
-1.94478
-1.94729
-1.94915
-1.95034
-1.95084
-1.95064
-1.94971
-1.94803
-1.94558
-1.94232
-1.93822
-1.93326
-1.9274
-1.9206
-1.91283
-1.90405
-1.89423
-1.88332
-1.87129
-1.8581
-1.84372
-1.8281
-1.81121
-1.79303
-1.77351
-1.75264
-1.73037
-1.70671
-1.68161
-1.65509
-1.62711
-1.59767
-1.56679
-1.53445
-1.50068
-1.4655
-1.42894
-1.39102
-1.35179
-1.3113
-1.2696
-1.22676
-1.18283
-1.13789
-1.09202
-1.04529
-0.997781
-0.94957
-0.900743
-0.851384
-0.80158
-0.751416
-0.700979
-0.650351
-0.599612
-0.548839
-0.498104
-0.447472
-0.397002
-0.346744
-0.29674
-0.247024
-0.197614
-0.148522
-0.099742
-0.0512586
-0.00304008
0.044959
0.0927998
0.140559
0.18833
0.236222
0.28436
0.332888
0.381963
0.431758
0.482465
0.534287
0.587442
0.642161
0.698684
0.757261
0.818149
0.881608
0.947897
1.01727
1.08998
1.16626
1.24632
1.33037
1.41856
1.511
1.60778
1.70892
1.81437
1.92403
2.0377
2.15511
2.27589
2.39959
2.52564
2.6534
2.78214
2.91103
3.03916
3.16555
3.28917
3.40895
3.52385
3.63288
3.7351
3.8297
3.91601
3.99353
4.06197
4.12123
4.17143
4.21292
4.24616
4.272
4.29121
4.3041
4.31149
4.31483
4.31568
4.31451
4.31147
4.30784
4.3046
4.30215
4.30063
4.29878
4.29615
4.2817
-1.56725
-1.57366
-1.58158
-1.58834
-1.59358
-1.59789
-1.60173
-1.60541
-1.60919
-1.61328
-1.61787
-1.6231
-1.62908
-1.63586
-1.64348
-1.65192
-1.66116
-1.67114
-1.6818
-1.69304
-1.70477
-1.7169
-1.72932
-1.74194
-1.75467
-1.76741
-1.78007
-1.79259
-1.80489
-1.81689
-1.82855
-1.83981
-1.85064
-1.86101
-1.87089
-1.88026
-1.8891
-1.89741
-1.90518
-1.9124
-1.91908
-1.92519
-1.93075
-1.93572
-1.94012
-1.94391
-1.9471
-1.94967
-1.9516
-1.95288
-1.95348
-1.95339
-1.95257
-1.95102
-1.94868
-1.94554
-1.94157
-1.93673
-1.93098
-1.92429
-1.91662
-1.90794
-1.8982
-1.88736
-1.8754
-1.86226
-1.8479
-1.83231
-1.81543
-1.79723
-1.77769
-1.75677
-1.73445
-1.7107
-1.68552
-1.65888
-1.63077
-1.60118
-1.57013
-1.53761
-1.50365
-1.46826
-1.43147
-1.39332
-1.35386
-1.31313
-1.27118
-1.22809
-1.18392
-1.13875
-1.09265
-1.0457
-0.99798
-0.949581
-0.900583
-0.851076
-0.801147
-0.750886
-0.700381
-0.649716
-0.598975
-0.548235
-0.49757
-0.447049
-0.39673
-0.346666
-0.296899
-0.247464
-0.19838
-0.149659
-0.101296
-0.0532739
-0.005562
0.0418856
0.0891305
0.13625
0.183338
0.230505
0.277877
0.325598
0.373827
0.422741
0.47253
0.5234
0.575571
0.629276
0.684758
0.742271
0.802073
0.86443
0.929606
0.99786
1.06945
1.14461
1.22356
1.30651
1.39363
1.48504
1.58083
1.68102
1.78559
1.89443
2.00736
2.12412
2.24436
2.36761
2.49335
2.62092
2.74959
2.87855
3.00687
3.13357
3.25761
3.37792
3.49346
3.6032
3.70621
3.80167
3.88888
3.96734
4.03675
4.09699
4.14817
4.19062
4.22481
4.2515
4.27143
4.28514
4.29348
4.29769
4.29905
4.2982
4.29559
4.29218
4.28872
4.2855
4.28248
4.2783
4.27247
4.25474
-1.57012
-1.57623
-1.58385
-1.59052
-1.59588
-1.60047
-1.60468
-1.60879
-1.61304
-1.6176
-1.62264
-1.6283
-1.63465
-1.64176
-1.64964
-1.65829
-1.66767
-1.67774
-1.68841
-1.69961
-1.71124
-1.72322
-1.73545
-1.74784
-1.76031
-1.77276
-1.78512
-1.79732
-1.8093
-1.82099
-1.83235
-1.84335
-1.85393
-1.86407
-1.87376
-1.88296
-1.89168
-1.89989
-1.90759
-1.91476
-1.92141
-1.92753
-1.9331
-1.93812
-1.94257
-1.94644
-1.94972
-1.95239
-1.95444
-1.95584
-1.95657
-1.95661
-1.95593
-1.9545
-1.9523
-1.94929
-1.94544
-1.94071
-1.93507
-1.92847
-1.92089
-1.91228
-1.9026
-1.89181
-1.87987
-1.86674
-1.85238
-1.83676
-1.81984
-1.80159
-1.78197
-1.76095
-1.73851
-1.71463
-1.68928
-1.66246
-1.63414
-1.60434
-1.57304
-1.54027
-1.50604
-1.47037
-1.43329
-1.39484
-1.35507
-1.31403
-1.27178
-1.22838
-1.18392
-1.13845
-1.09207
-1.04486
-0.996896
-0.948273
-0.899078
-0.8494
-0.799331
-0.748962
-0.698385
-0.647686
-0.596951
-0.546258
-0.495684
-0.445299
-0.395162
-0.345327
-0.295838
-0.246728
-0.198018
-0.149719
-0.101825
-0.0543198
-0.00717107
0.0396676
0.086259
0.132682
0.179031
0.225417
0.27197
0.318834
0.366169
0.414155
0.462985
0.512865
0.564018
0.61668
0.671097
0.727525
0.786227
0.84747
0.911525
0.978655
1.04912
1.12317
1.20102
1.2829
1.36896
1.45936
1.55417
1.65344
1.75715
1.8652
1.97742
2.09355
2.21326
2.3361
2.46154
2.58893
2.71755
2.84657
2.97507
3.10206
3.22649
3.3473
3.46342
3.57383
3.67756
3.77379
3.86181
3.94112
4.01137
4.07247
4.12451
4.16778
4.20278
4.23022
4.25081
4.26523
4.27435
4.27927
4.28112
4.28062
4.27836
4.2751
4.27145
4.26756
4.26328
4.25721
4.24892
4.22887
-1.57507
-1.58058
-1.58752
-1.59374
-1.59894
-1.60352
-1.60785
-1.61216
-1.61664
-1.62146
-1.62675
-1.63263
-1.63917
-1.64642
-1.6544
-1.6631
-1.67249
-1.68251
-1.6931
-1.70418
-1.71567
-1.72748
-1.73952
-1.7517
-1.76394
-1.77616
-1.7883
-1.80028
-1.81204
-1.82354
-1.83473
-1.84557
-1.85602
-1.86606
-1.87567
-1.88483
-1.89352
-1.90174
-1.90946
-1.91669
-1.9234
-1.9296
-1.93528
-1.94041
-1.94499
-1.949
-1.95242
-1.95525
-1.95745
-1.959
-1.95989
-1.96008
-1.95955
-1.95827
-1.95621
-1.95333
-1.9496
-1.94497
-1.93942
-1.93291
-1.92539
-1.91683
-1.90718
-1.8964
-1.88445
-1.8713
-1.8569
-1.84121
-1.82421
-1.80584
-1.78609
-1.76492
-1.74231
-1.71823
-1.69265
-1.66558
-1.63699
-1.6069
-1.57529
-1.5422
-1.50762
-1.4716
-1.43417
-1.39536
-1.35522
-1.31381
-1.2712
-1.22744
-1.18263
-1.13683
-1.09013
-1.04262
-0.994383
-0.945513
-0.8961
-0.846237
-0.79602
-0.745541
-0.694895
-0.644171
-0.593456
-0.542831
-0.492374
-0.442155
-0.392235
-0.342668
-0.293499
-0.244759
-0.196471
-0.148643
-0.10127
-0.0543339
-0.0078019
0.0383744
0.0842592
0.129933
0.175492
0.221049
0.266735
0.312697
0.359098
0.406118
0.453952
0.502812
0.55292
0.604516
0.657849
0.713178
0.77077
0.830895
0.893827
0.959836
1.02919
1.10213
1.1789
1.25971
1.34473
1.43413
1.52799
1.62635
1.72921
1.83648
1.948
2.06352
2.18271
2.30513
2.43026
2.55746
2.686
2.81504
2.94368
3.07091
3.19568
3.31692
3.43354
3.5445
3.64886
3.74575
3.83446
3.91448
3.98545
4.04727
4.10002
4.14399
4.17967
4.20774
4.22892
4.24396
4.25373
4.25928
4.26161
4.26149
4.25955
4.25646
4.25269
4.24829
4.24302
4.2355
4.22541
4.20382
-1.58124
-1.58595
-1.59192
-1.59743
-1.6022
-1.60656
-1.61078
-1.61507
-1.61958
-1.62445
-1.62979
-1.63571
-1.64227
-1.64951
-1.65744
-1.66606
-1.67534
-1.68523
-1.69566
-1.70657
-1.71788
-1.7295
-1.74135
-1.75335
-1.76542
-1.77748
-1.78947
-1.80132
-1.81297
-1.82438
-1.83551
-1.84631
-1.85675
-1.8668
-1.87645
-1.88568
-1.89445
-1.90278
-1.91063
-1.918
-1.92487
-1.93124
-1.93709
-1.94241
-1.94718
-1.95138
-1.95501
-1.95802
-1.96042
-1.96216
-1.96323
-1.9636
-1.96323
-1.9621
-1.96017
-1.95742
-1.95379
-1.94926
-1.94379
-1.93734
-1.92986
-1.92131
-1.91166
-1.90086
-1.88887
-1.87565
-1.86116
-1.84536
-1.82822
-1.8097
-1.78976
-1.76838
-1.74553
-1.72118
-1.69532
-1.66793
-1.639
-1.60855
-1.57658
-1.54309
-1.50812
-1.47169
-1.43384
-1.3946
-1.35405
-1.31222
-1.2692
-1.22504
-1.17984
-1.13367
-1.08663
-1.0388
-0.990271
-0.94114
-0.891501
-0.84145
-0.791086
-0.740504
-0.6898
-0.639067
-0.588393
-0.537862
-0.487551
-0.437531
-0.387866
-0.338608
-0.289801
-0.241477
-0.193658
-0.146351
-0.0995494
-0.0532339
-0.00736954
0.038094
0.0832228
0.128099
0.172822
0.217507
0.262287
0.30731
0.352742
0.398766
0.445579
0.493395
0.542441
0.592958
0.645198
0.699423
0.755903
0.814913
0.876729
0.941627
1.00987
1.08173
1.15743
1.23719
1.3212
1.40961
1.50253
1.6
1.70203
1.80853
1.91935
2.03425
2.15291
2.27489
2.39968
2.52664
2.65505
2.78406
2.91276
3.04014
3.16515
3.2867
3.4037
3.5151
3.61993
3.71733
3.80658
3.88714
3.95868
4.02105
4.07436
4.11888
4.15511
4.18369
4.20538
4.22096
4.2313
4.23741
4.24023
4.24053
4.23896
4.23611
4.23233
4.22762
4.22167
4.21313
4.20182
4.17937
-1.58779
-1.59156
-1.59639
-1.60099
-1.60515
-1.60909
-1.61302
-1.6171
-1.62145
-1.6262
-1.63144
-1.63724
-1.64368
-1.65077
-1.65854
-1.66697
-1.67605
-1.68573
-1.69596
-1.70666
-1.71777
-1.7292
-1.74088
-1.75273
-1.76467
-1.77664
-1.78855
-1.80035
-1.81199
-1.82342
-1.83459
-1.84546
-1.856
-1.86618
-1.87598
-1.88537
-1.89434
-1.90287
-1.91095
-1.91855
-1.92567
-1.93228
-1.93838
-1.94395
-1.94897
-1.95342
-1.95728
-1.96052
-1.96314
-1.96509
-1.96635
-1.9669
-1.96669
-1.96571
-1.96392
-1.96127
-1.95774
-1.95328
-1.94785
-1.94143
-1.93395
-1.92539
-1.9157
-1.90484
-1.89276
-1.87943
-1.8648
-1.84885
-1.83152
-1.81279
-1.79261
-1.77096
-1.7478
-1.72312
-1.6969
-1.66914
-1.63982
-1.60895
-1.57655
-1.54262
-1.50719
-1.4703
-1.43199
-1.39229
-1.35127
-1.30899
-1.26553
-1.22094
-1.17533
-1.12877
-1.08137
-1.0332
-0.984372
-0.934977
-0.885112
-0.834879
-0.784378
-0.733708
-0.682967
-0.632249
-0.581645
-0.531239
-0.481111
-0.431331
-0.381962
-0.333057
-0.28466
-0.236801
-0.1895
-0.142763
-0.0965827
-0.0509365
-0.00578754
0.0389169
0.0832455
0.127283
0.171131
0.214908
0.258748
0.302804
0.347243
0.392251
0.438028
0.484789
0.532766
0.582201
0.63335
0.686478
0.741857
0.799766
0.860485
0.924291
0.991458
1.06225
1.1369
1.21564
1.29865
1.38611
1.4781
1.5747
1.6759
1.78163
1.89175
2.00602
2.12412
2.24564
2.37004
2.4967
2.6249
2.75379
2.88244
3.00986
3.13497
3.25668
3.37389
3.48555
3.59068
3.6884
3.77799
3.8589
3.9308
3.99355
4.04723
4.09214
4.12876
4.15775
4.17986
4.19589
4.20675
4.2134
4.21672
4.21751
4.21638
4.21387
4.21026
4.20547
4.19916
4.19004
4.17805
4.15532
-1.59394
-1.59674
-1.60033
-1.60393
-1.60734
-1.61071
-1.6142
-1.61792
-1.62197
-1.62645
-1.63144
-1.637
-1.64319
-1.65003
-1.65754
-1.66572
-1.67454
-1.68396
-1.69394
-1.70442
-1.71532
-1.72658
-1.73811
-1.74984
-1.76171
-1.77363
-1.78554
-1.79738
-1.80909
-1.82062
-1.83193
-1.84297
-1.85372
-1.86412
-1.87417
-1.88384
-1.89309
-1.90192
-1.91029
-1.91821
-1.92564
-1.93256
-1.93897
-1.94483
-1.95014
-1.95487
-1.95899
-1.96248
-1.96533
-1.96749
-1.96895
-1.96967
-1.96961
-1.96876
-1.96707
-1.96451
-1.96104
-1.95662
-1.95121
-1.94478
-1.93727
-1.92865
-1.91888
-1.90791
-1.8957
-1.88221
-1.8674
-1.85124
-1.83368
-1.81468
-1.79419
-1.77221
-1.74869
-1.72362
-1.697
-1.6688
-1.63903
-1.6077
-1.57482
-1.5404
-1.50448
-1.46709
-1.42828
-1.38809
-1.34658
-1.30382
-1.25989
-1.21486
-1.16883
-1.12187
-1.0741
-1.0256
-0.97648
-0.92683
-0.876755
-0.826359
-0.775745
-0.725014
-0.674267
-0.623599
-0.573102
-0.522863
-0.47296
-0.423465
-0.374439
-0.325936
-0.277998
-0.230653
-0.18392
-0.137802
-0.0922902
-0.0473591
-0.00296907
0.0409352
0.0844254
0.127589
0.170531
0.213372
0.25625
0.29932
0.342752
0.386735
0.431471
0.477179
0.524092
0.572455
0.622528
0.674577
0.728878
0.785712
0.845362
0.908109
0.974229
1.04398
1.11762
1.19537
1.27743
1.36394
1.45504
1.55078
1.65116
1.75613
1.86553
1.97915
2.09667
2.21766
2.34161
2.4679
2.59578
2.72443
2.8529
2.98019
3.10523
3.22691
3.34414
3.45584
3.56103
3.65884
3.74853
3.82956
3.90159
3.96449
4.01835
4.06346
4.10032
4.12958
4.15201
4.16843
4.17976
4.18693
4.19081
4.19216
4.1916
4.18959
4.18634
4.18174
4.17542
4.16616
4.15398
4.13149
-1.59913
-1.60097
-1.60334
-1.60588
-1.60846
-1.61116
-1.61409
-1.61732
-1.62094
-1.62502
-1.62964
-1.63485
-1.6407
-1.6472
-1.65439
-1.66224
-1.67076
-1.67989
-1.6896
-1.69984
-1.71054
-1.72163
-1.73304
-1.74469
-1.75652
-1.76846
-1.78043
-1.79238
-1.80424
-1.81596
-1.8275
-1.8388
-1.84983
-1.86055
-1.87093
-1.88094
-1.89056
-1.89975
-1.9085
-1.91678
-1.92457
-1.93185
-1.93859
-1.94478
-1.9504
-1.95541
-1.9598
-1.96354
-1.9666
-1.96897
-1.97059
-1.97146
-1.97153
-1.97078
-1.96916
-1.96665
-1.9632
-1.95878
-1.95334
-1.94685
-1.93927
-1.93054
-1.92064
-1.90952
-1.89714
-1.88345
-1.86842
-1.852
-1.83414
-1.81481
-1.79396
-1.77159
-1.74766
-1.72216
-1.69508
-1.66641
-1.63616
-1.60433
-1.57094
-1.53601
-1.49957
-1.46166
-1.42233
-1.38163
-1.33962
-1.29638
-1.25199
-1.20652
-1.16007
-1.11273
-1.06461
-1.0158
-0.966402
-0.916524
-0.866269
-0.815744
-0.765053
-0.714302
-0.663591
-0.613018
-0.562677
-0.512653
-0.463026
-0.413866
-0.365236
-0.317187
-0.269758
-0.222977
-0.176861
-0.131409
-0.0866102
-0.042436
0.0011562
0.0442251
0.0868454
0.129108
0.171121
0.213009
0.254912
0.296988
0.339411
0.382371
0.426074
0.470741
0.516609
0.563924
0.612948
0.66395
0.717209
0.773008
0.831632
0.893363
0.958481
1.02725
1.09992
1.17672
1.25785
1.34347
1.4337
1.52859
1.62817
1.73237
1.84105
1.95399
2.07088
2.19129
2.31471
2.44051
2.56796
2.69621
2.82433
2.95131
3.07606
3.19749
3.31447
3.42595
3.53094
3.62855
3.71806
3.79894
3.87084
3.93364
3.98743
4.03254
4.06946
4.09885
4.12149
4.13824
4.15001
4.15772
4.16222
4.16425
4.1644
4.16307
4.16044
4.15633
4.15037
4.14139
4.1295
4.10776
-1.60317
-1.60417
-1.60534
-1.60681
-1.6085
-1.61043
-1.61267
-1.61527
-1.61831
-1.62186
-1.62598
-1.6307
-1.63609
-1.64215
-1.64892
-1.65637
-1.66451
-1.6733
-1.68271
-1.69268
-1.70316
-1.71408
-1.72538
-1.73698
-1.74881
-1.7608
-1.77289
-1.785
-1.79708
-1.80906
-1.82089
-1.83253
-1.84393
-1.85504
-1.86582
-1.87625
-1.88629
-1.8959
-1.90507
-1.91375
-1.92193
-1.92959
-1.93669
-1.94321
-1.94913
-1.95443
-1.95907
-1.96303
-1.96629
-1.96882
-1.97059
-1.97156
-1.97172
-1.97102
-1.96943
-1.96692
-1.96345
-1.95898
-1.95347
-1.94689
-1.93918
-1.93031
-1.92025
-1.90893
-1.89634
-1.88241
-1.8671
-1.85036
-1.83214
-1.81242
-1.79117
-1.76836
-1.74398
-1.71801
-1.69044
-1.66127
-1.63051
-1.59815
-1.56423
-1.52877
-1.4918
-1.45337