/*--------------------------------*- C++ -*----------------------------------*\
  =========                 |
  \\      /  F ield         | OpenFOAM: The Open Source CFD Toolbox
   \\    /   O peration     | Website:  https://openfoam.org
    \\  /    A nd           | Version:  7
     \\/     M anipulation  |
\*---------------------------------------------------------------------------*/
FoamFile
{
    version     2.0;
    format      ascii;
    class       volScalarField;
    location    "0.26";
    object      epsilon;
}
// * * * * * * * * * * * * * * * * * * * * * * * * * * * * * * * * * * * * * //

dimensions      [0 2 -3 0 0 0 0];

internalField   nonuniform List<scalar> 
12225
(
261.514
229.335
202.526
181.49
166.165
155.706
148.932
144.732
142.227
140.781
139.963
139.494
139.205
138.995
138.814
138.626
138.464
139.39
74.4042
97.5821
104.475
109.104
114.643
121.067
127.651
133.841
139.359
144.111
148.103
151.398
154.085
156.256
158.008
159.38
160.638
161.329
31.9471
44.3628
51.5588
56.2972
60.1515
63.8126
67.4396
70.9931
74.3993
77.5954
80.5378
83.2045
85.5929
87.7141
89.5895
91.2377
92.7115
93.9641
20.8062
26.666
31.0976
34.3336
36.835
38.9634
40.9038
42.7316
44.4739
46.1365
47.7147
49.2012
50.5902
51.8792
53.069
54.1624
55.1649
56.0664
17.0807
19.8447
22.2844
24.2527
25.8324
27.1475
28.2878
29.3087
30.245
31.1174
31.9369
32.7087
33.4352
34.1176
34.7569
35.3541
35.9091
36.4136
15.6187
16.8449
18.101
19.2182
20.1681
20.9738
21.6653
22.2684
22.8041
23.2882
23.7313
24.1406
24.5207
24.8748
25.205
25.5128
25.7985
26.056
15.0057
15.4483
16.0092
16.5712
17.0863
17.5422
17.9401
18.2866
18.5902
18.8588
19.0989
19.3154
19.5121
19.6919
19.8568
20.0082
20.1468
20.2685
14.7446
14.7907
14.9476
15.1531
15.3696
15.5775
15.7674
15.9362
16.0845
16.2144
16.3284
16.4288
16.5175
16.5962
16.6662
16.7285
16.7837
16.8291
14.6329
14.4844
14.4154
14.4003
14.4173
14.451
14.4905
14.5295
14.5651
14.596
14.6218
14.6428
14.6594
14.672
14.6811
14.6872
14.6902
14.6887
14.5847
14.3444
14.156
14.012
13.9026
13.8186
13.752
13.6967
13.6488
13.6058
13.566
13.5284
13.4922
13.4572
13.423
13.3894
13.3564
13.3229
14.5634
14.2814
14.0337
13.8195
13.6354
13.477
13.3394
13.2183
13.1104
13.0131
12.9243
12.8424
12.7664
12.6952
12.6283
12.565
12.505
12.4478
14.5542
14.2552
13.9821
13.7352
13.5136
13.3153
13.1374
12.9772
12.8321
12.7
12.579
12.4675
12.3642
12.2682
12.1785
12.0944
12.0154
11.9414
14.5491
14.242
13.9563
13.6925
13.4503
13.2287
13.026
12.8406
12.6707
12.5145
12.3706
12.2376
12.1142
11.9994
11.8924
11.7923
11.6985
11.6114
14.546
14.2346
13.943
13.6709
13.4177
13.1829
12.9655
12.7643
12.578
12.4053
12.2451
12.0962
11.9576
11.8283
11.7075
11.5944
11.4886
11.3906
14.544
14.2306
13.9366
13.6611
13.4034
13.1627
12.9382
12.7289
12.5339
12.352
12.1822
12.0237
11.8755
11.7368
11.6069
11.4849
11.3707
11.2649
14.5428
14.2284
13.9337
13.6573
13.3982
13.1557
12.9288
12.7165
12.518
12.3322
12.1582
11.9953
11.8424
11.699
11.5643
11.4376
11.3187
11.2085
14.5422
14.2274
13.9328
13.6565
13.3976
13.155
12.9279
12.7152
12.516
12.3293
12.1543
11.9901
11.8359
11.691
11.5546
11.4263
11.3056
11.1938
14.5423
14.2277
13.9335
13.6579
13.3998
13.1581
12.9318
12.7199
12.5214
12.3354
12.1609
11.9971
11.8432
11.6985
11.5624
11.4342
11.3136
11.2017
14.5433
14.2298
13.9367
13.6625
13.4058
13.1658
12.9411
12.731
12.5342
12.3499
12.1771
12.015
11.8627
11.7196
11.5849
11.4581
11.3388
11.2282
14.5456
14.2344
13.9436
13.6718
13.4176
13.1803
12.9585
12.7514
12.5578
12.3767
12.2071
12.0483
11.8992
11.7593
11.6278
11.5041
11.3879
11.2802
14.5493
14.2418
13.9546
13.6865
13.4365
13.2037
12.987
12.7853
12.5974
12.4222
12.2587
12.1059
11.963
11.8291
11.7036
11.5858
11.4754
11.3734
14.5555
14.2546
13.9745
13.7145
13.4739
13.2518
13.0471
12.8583
12.6837
12.5222
12.3724
12.2333
12.1038
11.9831
11.8704
11.7651
11.6666
11.5758
14.567
14.2806
14.0189
13.7811
13.5664
13.3733
13.1995
13.0422
12.8991
12.7683
12.6481
12.5373
12.4349
12.3395
12.2502
12.1663
12.0874
12.0144
14.5931
14.349
14.1441
13.9722
13.8284
13.7082
13.6059
13.5163
13.4359
13.363
13.2956
13.2319
13.1708
13.1116
13.054
12.9978
12.9432
12.8913
14.6719
14.5671
14.5334
14.5366
14.5581
14.5881
14.618
14.6433
14.6615
14.6704
14.6701
14.6615
14.6457
14.6242
14.5981
14.5686
14.5368
14.5046
14.9618
15.3045
15.7117
16.0878
16.4098
16.6789
16.8975
17.0642
17.1861
17.2722
17.3302
17.3668
17.3873
17.3964
17.3975
17.3935
17.3864
17.3788
16.0826
17.7385
19.0679
20.0268
20.7393
21.2729
21.6498
21.9109
22.0921
22.2199
22.3136
22.3868
22.4494
22.508
22.5672
22.6297
22.6974
22.7709
20.4114
25.6123
28.3433
29.7404
30.5942
31.1251
31.4559
31.6813
31.8661
32.0478
32.2467
32.4736
32.733
33.0252
33.348
33.6984
34.0725
34.4644
38.6012
49.0463
52.2935
53.1781
53.4526
53.5624
53.711
54.0148
54.5037
55.1634
55.9686
56.8935
57.9134
59.0053
60.1493
61.3286
62.5323
63.7465
159.121
148.102
138.017
128.818
120.586
113.347
107.09
101.756
97.2559
93.4901
90.3588
87.7701
85.642
83.9023
82.4891
81.349
80.4372
79.7155
0.06593
0.093679
0.158856
0.212628
0.264276
0.322336
0.385314
0.454642
0.532783
0.61712
0.70484
0.797421
0.895216
0.998344
1.10689
1.22095
1.34058
1.46584
1.59675
1.73331
1.8755
2.02326
2.17653
2.33523
2.49925
2.66849
2.84282
3.0221
3.20621
3.395
3.5883
3.78597
3.98781
4.19363
4.40323
4.61636
4.83277
5.05217
5.27426
5.49872
5.72521
5.95335
6.18277
6.41303
6.64367
6.87417
7.10393
7.33227
7.55842
7.78152
8.00064
8.21479
8.42297
8.6242
8.81758
9.00219
9.17707
9.34092
9.49189
9.62752
9.74525
9.84365
9.92403
9.99091
10.0486
10.0939
10.1119
10.0866
10.0085
10.0294
10.1415
43.8953
43.985
10.249
10.3748
10.3741
44.2508
44.84
45.0843
44.822
46.033
45.5397
46.8413
48.1889
49.5603
50.9423
52.3304
53.7199
55.1077
56.4914
57.8695
59.2411
60.6075
61.9727
63.3334
64.6736
65.9926
67.2893
68.5618
69.808
71.0255
72.212
73.3653
74.483
75.5629
76.603
77.6012
78.5554
79.4639
80.3248
81.1365
81.8974
82.6062
83.2616
83.8624
84.4076
84.8963
85.3279
85.7018
86.0175
86.2747
86.4734
86.6137
86.6956
86.7196
86.6861
86.5958
86.4495
86.2479
85.9923
85.6836
85.3233
84.9127
84.4533
83.9466
83.3943
82.7983
82.1602
81.482
80.7657
80.0131
79.2263
78.4073
77.5583
76.6811
75.7781
74.8511
73.9021
72.9337
71.9473
70.9456
69.9308
68.9035
67.8707
66.8338
65.8084
64.8437
65.0132
65.5198
75.3996
71.1181
68.0681
15.6821
73.7908
75.168
16.029
74.2614
73.4734
16.4948
74.5227
74.5671
16.6728
16.5893
16.5545
73.7995
74.5018
77.7144
77.1244
17.7127
76.1266
0.273086
0.173616
0.180629
0.207127
0.243514
0.286593
0.335789
0.390643
0.4506
0.514773
0.582491
0.653585
0.728031
0.805868
0.887166
0.972001
1.06045
1.15256
1.24837
1.34793
1.45124
1.5583
1.66911
1.78365
1.90189
2.0238
2.14935
2.27847
2.41112
2.54725
2.68678
2.82964
2.97574
3.12499
3.27727
3.43248
3.59046
3.75108
3.91418
4.07961
4.2472
4.41677
4.58816
4.76121
4.93572
5.11153
5.28846
5.46633
5.64498
5.82427
6.00415
6.18464
6.36592
6.54842
6.73287
6.92045
7.1129
7.31254
7.52237
7.74604
7.98793
8.25353
8.55009
8.88787
9.28211
9.75712
10.3498
11.1004
12.012
12.9463
13.6045
14.9089
15.2445
14.6464
14.7534
15.7116
17.7691
18.5051
19.1085
19.5523
20.1232
20.745
21.3075
21.8858
22.4522
23.016
23.5783
24.1393
24.6989
25.2569
25.8134
26.3687
26.9239
27.4821
28.0451
28.6026
29.1529
29.6952
30.2288
30.7526
31.266
31.7679
32.2575
32.734
33.1965
33.6442
34.0763
34.492
34.8906
35.2713
35.6335
35.9766
36.3
36.6031
36.8855
37.1466
37.3862
37.6038
37.7992
37.972
38.1222
38.2496
38.3541
38.4358
38.4945
38.5305
38.5439
38.5348
38.5036
38.4505
38.3758
38.28
38.1635
38.0268
37.8704
37.6949
37.5008
37.2888
37.0595
36.8136
36.5518
36.2748
35.9834
35.6783
35.3601
35.0299
34.6882
34.3358
33.9736
33.6023
33.2227
32.8358
32.4411
32.0424
31.6386
31.2436
30.9213
30.9643
30.8975
31.1599
30.9475
30.5776
27.066
29.566
29.6363
26.5313
29.119
29.305
26.0935
29.1158
29.1381
25.736
25.2801
25.0722
27.6133
27.7426
27.8389
27.5894
24.6391
27.5307
0.561069
0.295221
0.271591
0.285896
0.313521
0.34996
0.393513
0.443084
0.497686
0.556401
0.618502
0.683524
0.75122
0.821496
0.894354
0.96985
1.04806
1.12907
1.21296
1.29979
1.38964
1.48255
1.57856
1.67771
1.78002
1.88552
1.99421
2.1061
2.22119
2.3395
2.46099
2.58567
2.71352
2.84451
2.97861
3.11578
3.256
3.39922
3.5454
3.69451
3.84652
4.00141
4.15918
4.31984
4.48343
4.65
4.81966
4.99252
5.16878
5.34869
5.53258
5.72091
5.91431
6.11359
6.31985
6.53456
6.75955
6.99711
7.24979
7.52027
7.81103
8.12422
8.46174
8.82549
9.2175
9.64024
10.0956
10.5796
11.0738
11.5489
11.9969
12.4676
12.8976
13.2875
13.7145
14.2329
14.8083
15.3058
15.7874
16.2457
16.7092
17.1938
17.6557
18.1123
18.5648
19.0165
19.4682
19.92
20.372
20.8241
21.2764
21.729
22.1823
22.6365
23.0887
23.5367
23.9793
24.4158
24.8455
25.2676
25.6814
26.0861
26.4812
26.8659
27.2395
27.6014
27.9508
28.2873
28.61
28.9186
29.2124
29.491
29.7538
30.0004
30.2304
30.4434
30.6391
30.8172
30.9775
31.1197
31.2438
31.3495
31.4369
31.5058
31.5564
31.5887
31.6027
31.5987
31.5769
31.5374
31.4806
31.4067
31.3161
31.2093
31.0865
30.9482
30.795
30.6273
30.4456
30.2504
30.0423
29.822
29.5899
29.3466
29.0928
28.8291
28.556
28.274
27.9842
27.6867
27.3824
27.0722
26.7542
26.4346
26.1134
25.7998
25.5276
25.379
25.1673
24.8788
24.6787
24.46
23.7953
23.7142
23.5182
23.0557
23.0336
22.8971
22.3559
22.4954
22.3212
21.7377
21.4522
21.2194
21.2296
21.0778
20.8948
20.7092
20.3485
20.6556
0.891394
0.428783
0.367643
0.366733
0.38627
0.417109
0.45601
0.501303
0.551803
0.606552
0.664784
0.725945
0.789681
0.855802
0.924243
0.995018
1.06819
1.14384
1.22206
1.30294
1.38658
1.47306
1.56245
1.65481
1.75021
1.84871
1.95035
2.05517
2.16324
2.27457
2.38921
2.5072
2.62857
2.75334
2.88157
3.01327
3.14849
3.28727
3.42964
3.57568
3.72545
3.87904
4.03656
4.19814
4.36395
4.53418
4.70908
4.88892
5.07405
5.26486
5.46181
5.66548
5.87651
6.0957
6.32396
6.5624
6.81228
7.075
7.35195
7.6443
7.95284
8.2778
8.61895
8.97569
9.34705
9.73177
10.1282
10.5336
10.9434
11.3537
11.7662
12.1846
12.6039
13.0244
13.4528
13.8957
14.346
14.792
15.2364
15.6797
16.1243
16.5719
17.0158
17.4581
17.8995
18.341
18.7833
19.2263
19.6701
20.1145
20.5593
21.0043
21.4492
21.8926
22.3329
22.7689
23.1997
23.6245
24.0426
24.4533
24.8558
25.2494
25.6334
26.0071
26.3698
26.7208
27.0594
27.3852
27.6973
27.9953
28.2786
28.5467
28.7991
29.0354
29.2552
29.4581
29.6439
29.8121
29.9627
30.0953
30.21
30.3065
30.3848
30.445
30.487
30.5109
30.517
30.5053
30.476
30.4295
30.366
30.2858
30.1892
30.0768
29.949
29.8061
29.6486
29.4771
29.2922
29.0942
28.8838
28.6616
28.4283
28.1842
27.9299
27.6665
27.3941
27.1131
26.825
26.5294
26.2273
25.9208
25.6091
25.2947
24.9792
24.6687
24.38
24.1372
23.8687
23.5551
23.2901
23.0354
22.6944
22.4193
22.1548
21.8681
21.6167
21.3677
21.0642
20.8639
20.6221
20.3168
20.0532
19.8031
19.588
19.3688
19.1498
18.9655
18.8099
18.8306
1.20005
0.552401
0.454203
0.4396
0.451756
0.477429
0.512004
0.553296
0.599959
0.651013
0.7057
0.763456
0.823891
0.886769
0.951976
1.01949
1.08934
1.16161
1.23638
1.31376
1.39386
1.47676
1.56257
1.65138
1.74328
1.83834
1.93666
2.0383
2.14334
2.25186
2.36394
2.47964
2.59905
2.72225
2.84932
2.98036
3.11545
3.25469
3.39822
3.54614
3.6986
3.85577
4.01784
4.185
4.35751
4.53564
4.71969
4.91001
5.10698
5.31104
5.52267
5.74237
5.97073
6.20836
6.45594
6.71418
6.98385
7.26566
7.56024
7.868
8.18902
8.52304
8.86949
9.2276
9.59643
9.97493
10.3621
10.7569
11.1582
11.5654
11.9786
12.398
12.8229
13.2532
13.6895
14.1323
14.5802
15.0313
15.4852
15.9418
16.4011
16.8627
17.3254
17.789
18.2536
18.7194
19.1865
19.6548
20.1241
20.5941
21.0646
21.535
22.004
22.4704
22.933
23.391
23.8434
24.2894
24.7281
25.1589
25.5809
25.9933
26.3952
26.7861
27.165
27.5313
27.8842
28.2231
28.5473
28.8561
29.1491
29.4256
29.6852
29.9273
30.1517
30.3578
30.5455
30.7143
30.8642
30.9948
31.1062
31.1981
31.2706
31.3237
31.3575
31.3721
31.3677
31.3445
31.3027
31.2427
31.1647
31.0693
30.9567
30.8275
30.6822
30.5212
30.345
30.1543
29.9497
29.7318
29.501
29.2581
29.0039
28.7388
28.4632
28.1785
27.885
27.5821
27.2733
26.9578
26.6363
26.3101
25.9794
25.6458
25.3109
24.9788
24.6578
24.3555
24.0447
23.7166
23.4059
23.1045
22.7853
22.4725
22.1673
21.8636
21.5619
21.265
20.964
20.6841
20.4011
20.1103
19.8295
19.5565
19.2957
19.0452
18.8075
18.6055
18.4491
18.382
1.46229
0.656664
0.527652
0.501317
0.506975
0.528002
0.558627
0.596226
0.639308
0.686877
0.738203
0.792745
0.850118
0.910075
0.972478
1.03728
1.10449
1.17418
1.24643
1.32133
1.39901
1.47957
1.56312
1.64978
1.73964
1.83283
1.92943
2.02957
2.13333
2.24083
2.35217
2.46748
2.58685
2.71043
2.83832
2.97068
3.10764
3.24936
3.396
3.54775
3.70481
3.86739
4.03574
4.21011
4.39079
4.5781
4.77239
4.97401
5.18337
5.40089
5.62701
5.86219
6.1069
6.36164
6.62689
6.90311
7.19076
7.49023
7.80178
8.12555
8.46146
8.80923
9.16845
9.53862
9.91915
10.3094
10.709
11.1173
11.534
11.9588
12.3915
12.8318
13.2796
13.7345
14.1966
14.6654
15.1405
15.6211
16.1067
16.5971
17.0916
17.59
18.0915
18.5956
19.102
19.6105
20.121
20.6331
21.1464
21.6605
22.1749
22.6888
23.2002
23.7082
24.2118
24.71
25.202
25.6868
26.1634
26.6311
27.0888
27.5357
27.971
28.3936
28.8029
29.1979
29.5779
29.9421
30.2898
30.6203
30.9329
31.2271
31.5024
31.7582
31.994
32.2096
32.4046
32.5787
32.7316
32.8633
32.9736
33.0625
33.1299
33.176
33.2008
33.2046
33.1875
33.1499
33.092
33.0143
32.9171
32.801
32.6663
32.5137
32.3438
32.1571
31.9541
31.7356
31.5024
31.255
30.994
30.7202
30.4348
30.138
29.8294
29.5126
29.1869
28.8527
28.5117
28.1641
27.8108
27.4525
27.09
26.7246
26.3576
25.992
25.6319
25.2802
24.9268
24.568
24.2153
23.8682
23.5188
23.1703
22.8258
22.4846
22.1453
21.81
21.4783
21.1544
20.8343
20.5176
20.2079
19.9063
19.6152
19.3371
19.0765
18.8488
18.663
18.5376
1.67198
0.742405
0.58771
0.551258
0.551186
0.568061
0.595128
0.629376
0.66918
0.713524
0.761704
0.813213
0.867692
0.9249
0.984699
1.04703
1.1119
1.17935
1.24946
1.32234
1.3981
1.47685
1.55872
1.64384
1.73232
1.8243
1.91989
2.01924
2.12246
2.22969
2.34108
2.45676
2.57689
2.70162
2.83113
2.96558
3.10517
3.2501
3.40059
3.55685
3.71913
3.88771
4.06286
4.24489
4.43412
4.63089
4.83558
5.04856
5.27024
5.50104
5.74136
5.99164
6.25229
6.52372
6.80632
7.10044
7.4064
7.72446
8.05478
8.39745
8.7524
9.11949
9.49851
9.88917
10.2912
10.7042
11.1281
11.5624
12.007
12.4616
12.926
13.4
13.8832
14.3755
14.8765
15.3858
15.9031
16.4278
16.9594
17.4974
18.0412
18.5904
19.1441
19.7019
20.2631
20.8274
21.3942
21.9631
22.5334
23.1047
23.6763
24.2459
24.8124
25.3747
25.9317
26.4826
27.0261
27.5613
28.0871
28.6026
29.1066
29.5982
30.0763
30.54
30.9883
31.4203
31.8351
32.2319
32.6098
32.9681
33.306
33.6229
33.9183
34.1917
34.4425
34.6703
34.8749
35.056
35.2133
35.3468
35.4562
35.5417
35.6032
35.6409
35.655
35.6457
35.6132
35.5581
35.4807
35.3814
35.2608
35.1192
34.9575
34.7762
34.5761
34.3578
34.1218
33.8691
33.6007
33.3172
33.0188
32.7068
32.3829
32.0474
31.7006
31.3442
30.9788
30.605
30.2239
29.8362
29.4427
29.0443
28.6418
28.2363
27.8292
27.4224
27.0184
26.6187
26.2197
25.8197
25.4226
25.0292
24.6374
24.2473
23.8605
23.4774
23.0977
22.7226
22.3526
21.9885
21.6303
21.2786
20.9348
20.6005
20.2778
19.9697
19.6811
19.4226
19.2008
19.0251
1.83402
0.810705
0.634918
0.589781
0.584649
0.597807
0.621674
0.6529
0.689733
0.731128
0.776401
0.825077
0.876824
0.931424
0.988747
1.04873
1.11139
1.17675
1.2449
1.31594
1.38998
1.46714
1.54757
1.63138
1.71873
1.80976
1.90461
2.00343
2.10638
2.21362
2.32531
2.44163
2.56277
2.68891
2.82027
2.95706
3.09951
3.24786
3.40238
3.56332
3.731
3.90571
4.08778
4.27755
4.47539
4.68168
4.89681
5.12119
5.35524
5.59938
5.85404
6.11962
6.39654
6.68519
6.98592
7.29907
7.62493
7.96374
8.31569
8.68088
9.05935
9.4511
9.85604
10.2741
10.7051
11.149
11.6056
12.0747
12.5562
13.0498
13.5554
14.0726
14.6012
15.1408
15.6911
16.2517
16.8221
17.4017
17.9901
18.5865
19.1903
19.8009
20.4176
21.0395
21.6661
22.2965
22.9301
23.5662
24.204
24.8427
25.4813
26.1167
26.748
27.3742
27.994
28.6065
29.2103
29.8043
30.3873
30.9581
31.5156
32.0586
32.5859
33.0965
33.5894
34.0634
34.5176
34.951
35.3628
35.7521
36.1181
36.4601
36.7775
37.0698
37.3364
37.5771
37.7915
37.9793
38.1404
38.2745
38.3817
38.4619
38.5154
38.5424
38.5429
38.5175
38.4664
38.3902
38.2893
38.1644
38.0159
37.8445
37.6508
37.4361
37.2008
36.9458
36.6714
36.3788
36.0697
35.7447
35.4043
35.0495
34.6818
34.3019
33.9104
33.5088
33.0977
32.6781
32.2509
31.8171
31.3774
30.9328
30.4843
30.0329
29.5797
29.1263
28.6745
28.2252
27.7773
27.3303
26.8856
26.444
26.0052
25.5693
25.1371
24.7092
24.286
23.8681
23.4563
23.0508
22.6523
22.262
21.881
21.5108
21.1536
20.8124
20.4916
20.1989
19.9384
19.7157
1.95143
0.862658
0.670185
0.61773
0.608159
0.617985
0.638959
0.667447
0.701583
0.740288
0.782887
0.828929
0.878112
0.930239
0.985195
1.04293
1.10345
1.1668
1.23306
1.30233
1.37472
1.45037
1.52942
1.61201
1.6983
1.78845
1.88262
1.98098
2.08372
2.19102
2.30308
2.4201
2.54231
2.66993
2.8032
2.94239
3.08776
3.23961
3.39823
3.56396
3.73712
3.91809
4.10722
4.30492
4.5116
4.72767
4.95357
5.18976
5.43669
5.6948
5.96456
6.2464
6.54077
6.84807
7.1687
7.503
7.85132
8.21392
8.59106
8.98293
9.38965
9.81134
10.248
10.6998
11.1665
11.6483
12.145
12.6566
13.1828
13.7235
14.2785
14.8475
15.43
16.0258
16.6344
17.2553
17.888
18.5319
19.1862
19.8503
20.5234
21.2048
21.8935
22.5887
23.2895
23.995
24.7043
25.4166
26.1308
26.8461
27.5588
28.2675
28.9712
29.6685
30.3581
31.0387
31.7089
32.3675
33.0129
33.644
34.2595
34.8579
35.4381
35.9988
36.5389
37.0573
37.5527
38.0244
38.4711
38.8921
39.2864
39.6533
39.9923
40.3027
40.5841
40.8361
41.0584
41.2509
41.4132
41.5454
41.6474
41.7193
41.7614
41.774
41.7573
41.7118
41.6379
41.5363
41.4076
41.2526
41.0719
40.866
40.6354
40.3823
40.1071
39.8107
39.4938
39.1576
38.8034
38.4321
38.0447
37.6422
37.2259
36.7968
36.3557
35.9039
35.4424
34.9722
34.4943
34.0096
33.5191
33.0238
32.5247
32.0228
31.5192
31.0152
30.5123
30.0111
29.5117
29.0141
28.5189
28.0271
27.5388
27.0543
26.5743
26.0994
25.6301
25.1671
24.711
24.2622
23.8216
23.3904
22.9697
22.5613
22.1672
21.7901
21.4341
21.1045
20.8038
20.5358
2.02819
0.899679
0.694678
0.636225
0.622803
0.629641
0.647983
0.673972
0.705641
0.74188
0.782015
0.825614
0.872397
0.922188
0.97489
1.03047
1.08893
1.15033
1.21474
1.28228
1.35306
1.42723
1.50493
1.58633
1.67158
1.76088
1.85441
1.95235
2.05492
2.16233
2.27481
2.3926
2.51596
2.64515
2.78046
2.9222
3.07068
3.22624
3.38925
3.56007
3.7391
3.92676
4.12348
4.32971
4.54592
4.77259
5.01023
5.25932
5.52039
5.79394
6.08049
6.38053
6.69456
7.02303
7.36639
7.72507
8.09945
8.4899
8.89672
9.32019
9.76054
10.218
10.6926
11.1846
11.694
12.2208
12.7651
13.3266
13.9054
14.5012
15.1138
15.7427
16.3877
17.0481
17.7236
18.4134
19.117
19.8336
20.5625
21.3027
22.0536
22.814
23.5829
24.3595
25.1425
25.9309
26.7236
27.5195
28.3175
29.115
29.9081
30.696
31.4774
32.2508
33.0147
33.7675
34.5077
35.2338
35.9444
36.6379
37.3129
37.968
38.6018
39.213
39.8002
40.3624
40.8982
41.4068
41.8869
42.3377
42.758
43.1473
43.5048
43.8302
44.1229
44.3826
44.609
44.802
44.9616
45.0874
45.1797
45.2387
45.2648
45.2582
45.2195
45.1491
45.0473
44.9154
44.754
44.564
44.3461
44.1012
43.8301
43.5343
43.2149
42.8727
42.5088
42.1244
41.7207
41.299
40.8604
40.4059
39.9369
39.4545
38.9598
38.4541
37.9383
37.4137
36.8813
36.3422
35.7974
35.2479
34.6948
34.1391
33.582
33.0245
32.4679
31.913
31.3602
30.8097
30.2622
29.7185
29.179
28.6442
28.1147
27.5911
27.0741
26.5643
26.0623
25.5688
25.0846
24.6109
24.149
23.7005
23.2676
22.8527
22.4591
22.0909
21.7491
21.4369
2.06888
0.923376
0.709697
0.646505
0.629798
0.633971
0.649914
0.673605
0.703004
0.736973
0.774836
0.816175
0.860725
0.908332
0.958913
1.01244
1.06895
1.12848
1.19114
1.25703
1.32628
1.39904
1.47548
1.55577
1.64009
1.72865
1.82165
1.91932
2.02189
2.12961
2.24274
2.36157
2.4864
2.61753
2.75531
2.90009
3.05226
3.2122
3.38033
3.5571
3.74298
3.93844
4.14398
4.36015
4.58747
4.8265
5.07783
5.34203
5.61968
5.91138
6.21771
6.53925
6.87656
7.23017
7.60062
7.98839
8.39394
8.81771
9.2601
9.72146
10.2021
10.7023
11.2222
11.762
12.3219
12.9018
13.5019
14.1219
14.7618
15.4213
16.1001
16.7978
17.5139
18.2477
18.9986
19.7659
20.5489
21.3466
22.1581
22.9825
23.8187
24.6657
25.5222
26.3871
27.2592
28.1371
29.0195
29.9051
30.7923
31.675
32.5521
33.4222
34.2839
35.1356
35.9753
36.8013
37.612
38.4056
39.1806
39.9354
40.6683
41.378
42.0628
42.7214
43.3524
43.9546
44.5267
45.0678
45.5768
46.0523
46.4935
46.8997
47.2702
47.6047
47.9029
48.1642
48.3887
48.5762
48.7268
48.8403
48.9167
48.9566
48.9605
48.9288
48.8621
48.761
48.6263
48.4589
48.2597
48.0297
47.7698
47.4811
47.1646
46.8216
46.4534
46.0612
45.6461
45.2094
44.7524
44.2765
43.7829
43.273
42.7479
42.209
41.6576
41.0948
40.5219
39.9402
39.3507
38.7546
38.153
37.547
36.9377
36.3261
35.7133
35.1005
34.4888
33.8789
33.2714
32.6669
32.0661
31.4696
30.8781
30.2921
29.7122
29.1391
28.5736
28.0161
27.4675
26.9284
26.3997
25.8827
25.3786
24.8891
24.4161
23.962
23.5294
23.1216
22.7384
22.3829
2.07841
0.935442
0.71657
0.649831
0.630395
0.632221
0.64599
0.667577
0.694891
0.72678
0.762565
0.801838
0.84435
0.889962
0.938607
0.990275
1.045
1.10285
1.16392
1.22835
1.29626
1.36784
1.44325
1.52269
1.60637
1.69452
1.78737
1.88518
1.98823
2.09681
2.21122
2.33179
2.45889
2.59288
2.73415
2.88315
3.0403
3.20608
3.38098
3.56553
3.76026
3.96576
4.18261
4.41142
4.65284
4.90752
5.17612
5.45932
5.75779
6.07224
6.40333
6.75172
7.11807
7.50299
7.90707
8.33087
8.77494
9.23977
9.72582
10.2335
10.7632
11.3151
11.8896
12.4868
13.1068
13.7497
14.4153
15.1037
15.8146
16.5476
17.3024
18.0785
18.8752
19.6917
20.5271
21.3806
22.2512
23.1379
24.0397
24.9555
25.8839
26.8239
27.774
28.7329
29.6992
30.6714
31.6481
32.6277
33.6029
34.5718
35.5331
36.4851
37.4261
38.3545
39.2679
40.1641
41.0416
41.8985
42.7331
43.5438
44.329
45.0869
45.8161
46.5151
47.1825
47.817
48.4175
48.983
49.5127
50.0049
50.4583
50.8726
51.2475
51.5826
51.8774
52.1319
52.346
52.5196
52.6528
52.7457
52.7987
52.8123
52.7868
52.7231
52.6219
52.4838
52.3098
52.101
51.8582
51.5827
51.2756
50.938
50.5712
50.1765
49.7554
49.309
48.8388
48.3462
47.8325
47.2993
46.7478
46.1796
45.5959
44.9981
44.3877
43.7659
43.1341
42.4934
41.8453
41.1908
40.5311
39.8673
39.2007
38.5323
37.8631
37.1943
36.5268
35.8617
35.1995
34.5409
33.8866
33.2374
32.5939
31.9567
31.3266
30.7041
30.0899
29.4849
28.8897
28.305
27.7318
27.1712
26.6247
26.0938
25.5804
25.0865
24.6143
24.1664
23.742
23.3443
2.06185
0.937567
0.716591
0.647428
0.625817
0.625633
0.637477
0.657176
0.68262
0.71265
0.746593
0.784052
0.824791
0.868686
0.915684
0.96579
1.01905
1.07556
1.13542
1.19877
1.26579
1.33665
1.41156
1.49075
1.57445
1.66293
1.75647
1.85538
1.95997
2.07059
2.18761
2.31143
2.44248
2.5812
2.72807
2.88359
3.04832
3.22279
3.40761
3.6034
3.81079
4.03046
4.26312
4.50949
4.77032
5.04636
5.3384
5.64723
5.97362
6.31838
6.68229
7.0661
7.47055
7.8963
8.34398
8.81419
9.30754
9.82455
10.3657
10.9315
11.5221
12.138
12.7793
13.4461
14.1386
14.8566
15.6
16.3686
17.1621
17.98
18.8219
19.6871
20.5748
21.4836
22.4125
23.3605
24.3266
25.3095
26.3081
27.321
28.3468
29.3842
30.4317
31.4878
32.5509
33.6195
34.6921
35.76
36.8205
37.8719
38.9127
39.9411
40.9552
41.9539
42.9335
43.8916
44.8268
45.7373
46.6215
47.4775
48.3038
49.0986
49.8605
50.5879
51.2796
51.9341
52.5505
53.1277
53.6647
54.1604
54.6139
55.0246
55.3922
55.7164
55.9969
56.2337
56.4267
56.576
56.682
56.7449
56.7652
56.7433
56.6801
56.5762
56.4326
56.2502
56.0299
55.7729
55.4804
55.1536
54.7938
54.4023
53.9804
53.5297
53.0516
52.5475
52.0189
51.4674
50.8943
50.3014
49.6899
49.0615
48.4177
47.7597
47.0892
46.4075
45.716
45.0159
44.3087
43.5956
42.8778
42.1564
41.4326
40.7076
39.9824
39.2581
38.5357
37.8161
37.1001
36.3884
35.6818
34.9809
34.2865
33.5993
32.9199
32.249
31.5874
30.9357
30.2948
29.6653
29.0484
28.445
27.8567
27.2849
26.7313
26.1978
25.6862
25.1986
24.7337
24.2953
2.02433
0.931388
0.710979
0.640451
0.617243
0.61544
0.625673
0.643777
0.667651
0.696143
0.728593
0.764618
0.803998
0.846627
0.892469
0.941548
0.993933
1.04973
1.10908
1.17214
1.23911
1.31022
1.38571
1.46583
1.5509
1.64122
1.73713
1.83901
1.94725
2.06226
2.18452
2.31451
2.45274
2.59978
2.75621
2.92265
3.09977
3.28825
3.48879
3.70212
3.92901
4.17028
4.42675
4.69927
4.98872
5.29599
5.62196
5.96754
6.33362
6.72109
7.13084
7.56372
8.02056
8.502
9.00853
9.54077
10.0993
10.6847
11.2973
11.9376
12.6058
13.302
14.0264
14.7789
15.5595
16.3679
17.2037
18.0666
18.9561
19.8715
20.8121
21.7775
22.7671
23.7774
24.8079
25.8574
26.9248
28.0088
29.1079
30.2207
31.3456
32.4813
33.6261
34.7786
35.9367
37.099
38.2548
39.4017
40.5378
41.6611
42.7696
43.8616
44.9349
45.9875
47.0171
48.0213
48.9982
49.9461
50.8631
51.7476
52.5979
53.4123
54.1895
54.928
55.6266
56.284
56.8991
57.4711
57.9991
58.4822
58.9197
59.3112
59.6563
59.9548
60.2066
60.4118
60.5705
60.683
60.7497
60.7709
60.7473
60.6797
60.5688
60.4155
60.2208
59.9858
59.7117
59.3996
59.0509
58.6669
58.2491
57.7988
57.3176
56.807
56.2685
55.7037
55.1143
54.5017
53.8676
53.2136
52.5412
51.852
51.1475
50.4293
49.6989
48.9577
48.2071
47.4486
46.6834
45.9128
45.1382
44.3606
43.5813
42.8015
42.0221
41.2442
40.4689
39.697
38.9294
38.1669
37.4101
36.6598
35.9168
35.1817
34.4553
33.7381
33.0311
32.3348
31.6501
30.9777
30.3187
29.6742
29.0455
28.434
27.8415
27.2694
26.7196
26.1934
25.6895
25.2119
1.97097
0.918418
0.700842
0.629983
0.605833
0.602917
0.611998
0.628966
0.651754
0.679236
0.710775
0.746009
0.784745
0.826896
0.872455
0.921474
0.974053
1.03033
1.09049
1.15475
1.22334
1.29655
1.37468
1.45808
1.54712
1.6422
1.74377
1.85228
1.96824
2.09219
2.22471
2.36643
2.51801
2.68016
2.85362
3.03919
3.23771
3.45003
3.67701
3.91945
4.1783
4.45451
4.74906
5.06296
5.39719
5.75275
6.13063
6.5318
6.95721
7.4078
7.8845
8.38825
8.92012
9.48066
10.0693
10.6869
11.3341
12.0111
12.7184
13.4559
14.2239
15.0221
15.8504
16.7086
17.5962
18.5128
19.4576
20.4301
21.4293
22.4543
23.5042
24.5778
25.674
26.7906
27.9264
29.0798
30.2495
31.4339
32.6315
33.8407
35.0601
36.2882
37.5232
38.7644
40.0061
41.2383
42.4594
43.667
44.8591
46.0337
47.1887
48.322
49.4316
50.5154
51.5714
52.5974
53.5915
54.5519
55.477
56.3651
57.2146
58.0241
58.7923
59.5179
60.1997
60.8367
61.4279
61.9727
62.4701
62.9197
63.321
63.6736
63.9772
64.232
64.4378
64.5949
64.7036
64.7643
64.7775
64.7438
64.664
64.539
64.3695
64.1568
63.9019
63.6059
63.2702
62.8961
62.485
62.0383
61.5576
61.0444
60.5002
59.9267
59.3255
58.6983
58.0466
57.3722
56.6766
55.9615
55.2286
54.4794
53.7156
52.9386
52.1501
51.3514
50.5441
49.7295
48.9089
48.0838
47.2553
46.4247
45.5931
44.7617
43.9315
43.1035
42.2788
41.4583
40.6427
39.8329
39.0296
38.2335
37.4454
36.666
35.8959
35.1358
34.3866
33.6488
32.9233
32.2109
31.5126
30.8295
30.1628
29.514
28.8846
28.276
27.6896
27.1269
26.5862
26.0718
1.90423
0.899297
0.686729
0.616696
0.592447
0.589164
0.597829
0.614441
0.636993
0.66441
0.696093
0.73172
0.771136
0.814298
0.861245
0.912081
0.966966
1.02611
1.08976
1.15823
1.23184
1.31098
1.39608
1.48761
1.58609
1.69208
1.8062
1.92907
2.06135
2.20377
2.35714
2.52229
2.70011
2.89154
3.09756
3.3192
3.55758
3.81392
4.08934
4.38425
4.69993
5.03754
5.3982
5.783
6.19298
6.62917
7.09252
7.58394
8.10428
8.65433
9.23479
9.84633
10.4895
11.1645
11.8714
12.6103
13.3813
14.1843
15.0193
15.8858
16.7836
17.7122
18.6708
19.6589
20.6756
21.72
22.791
23.8876
25.0087
26.1529
27.319
28.5055
29.7109
30.9334
32.1716
33.4237
34.6883
35.9637
37.2485
38.5414
39.8406
41.1454
42.4529
43.7523
45.0386
46.3099
47.5642
48.7994
50.0134
51.2042
52.3698
53.5083
54.6177
55.6962
56.7418
57.7528
58.7274
59.6639
60.561
61.417
62.2307
63.0008
63.7262
64.4058
65.0387
65.624
66.161
66.6491
67.0877
67.4766
67.8153
68.1038
68.342
68.53
68.6681
68.7565
68.7957
68.7863
68.7289
68.6242
68.4733
68.2769
68.0362
67.7522
67.4263
67.0596
66.6536
66.2097
65.7292
65.2139
64.6651
64.0845
63.4738
62.8345
62.1684
61.477
60.7622
60.0254
59.2685
58.4931
57.7008
56.8932
56.0719
55.2385
54.3944
53.5412
52.6802
51.813
50.9408
50.0649
49.1865
48.3069
47.4272
46.5485
45.6718
44.7982
43.9286
43.0638
42.2047
41.3521
40.5067
39.6692
38.8404
38.0208
37.2113
36.4124
35.6248
34.8494
34.0868
33.3379
32.6037
31.8852
31.1836
30.5002
29.8366
29.1939
28.5736
27.9767
27.4017
26.8531
1.83857
0.878244
0.671597
0.603508
0.580341
0.577961
0.587606
0.605404
0.629442
0.658714
0.692694
0.731128
0.773938
0.821165
0.872945
0.929489
0.991078
1.05806
1.13085
1.20993
1.2958
1.38904
1.49032
1.60036
1.71997
1.85005
1.99161
2.14553
2.31256
2.49389
2.69065
2.90405
3.13531
3.38568
3.65644
3.94887
4.26428
4.60394
4.96904
5.36059
5.7797
6.22743
6.70478
7.21266
7.75185
8.32307
8.92688
9.56376
10.234
10.938
11.6756
12.447
13.252
14.0902
14.9611
15.8643
16.799
17.7645
18.7601
19.7849
20.8378
21.9179
23.024
24.1549
25.3095
26.4863
27.6842
28.9018
30.1375
31.39
32.6579
33.9396
35.2337
36.5385
37.8526
39.1745
40.5027
41.8364
43.1736
44.5146
45.856
47.1872
48.5017
49.799
51.0769
52.3335
53.567
54.7756
55.9573
57.1105
58.2333
59.3241
60.3812
61.403
62.3879
63.3345
64.2413
65.1069
65.93
66.7096
67.4444
68.1336
68.7761
69.3712
69.9182
70.4165
70.8655
71.2648
71.6142
71.9135
72.1624
72.3612
72.5099
72.6088
72.6582
72.6585
72.6105
72.5146
72.3717
72.1827
71.9485
71.6701
71.3487
70.9854
70.5816
70.1385
69.6575
69.1401
68.5878
68.0021
67.3845
66.7368
66.0604
65.3571
64.6285
63.8762
63.1019
62.3073
61.4939
60.6634
59.8174
58.9575
58.0852
57.2021
56.3096
55.4091
54.502
53.5898
52.6736
51.7547
50.8344
49.9138
48.994
48.076
47.1608
46.2494
45.3427
44.4415
43.5467
42.6589
41.7789
40.9073
40.0449
39.1923
38.35
37.5189
36.6996
35.8927
35.099
34.3194
33.5547
32.806
32.0745
31.3614
30.668
29.9956
29.3454
28.7184
28.113
27.5343
1.78096
0.857221
0.657341
0.592804
0.572582
0.573193
0.586146
0.607739
0.636188
0.670616
0.710625
0.756106
0.807136
0.863939
0.926855
0.996336
1.07289
1.15716
1.24993
1.35214
1.46457
1.58812
1.72395
1.87331
2.03751
2.21795
2.41608
2.63337
2.87127
3.13137
3.41525
3.7245
4.06066
4.42525
4.81967
5.24526
5.70323
6.19464
6.72036
7.28108
7.87734
8.50953
9.17786
9.88236
10.6229
11.3992
12.2107
13.0569
13.9371
14.8503
15.7957
16.7721
17.7785
18.8136
19.8762
20.9649
22.0784
23.2153
24.3743
25.5539
26.7529
27.9698
29.2034
30.4521
31.7148
32.99
34.2765
35.573
36.8782
38.1908
39.5097
40.8338
42.1617
43.4922
44.825
46.1583
47.4903
48.825
50.154
51.4677
52.7612