/*--------------------------------*- C++ -*----------------------------------*\
  =========                 |
  \\      /  F ield         | OpenFOAM: The Open Source CFD Toolbox
   \\    /   O peration     | Website:  https://openfoam.org
    \\  /    A nd           | Version:  7
     \\/     M anipulation  |
\*---------------------------------------------------------------------------*/
FoamFile
{
    version     2.0;
    format      ascii;
    class       volScalarField;
    location    "0.26";
    object      k;
}
// * * * * * * * * * * * * * * * * * * * * * * * * * * * * * * * * * * * * * //

dimensions      [0 2 -2 0 0 0 0];

internalField   nonuniform List<scalar> 
12225
(
0.332317
0.291425
0.257358
0.230626
0.211153
0.197862
0.189254
0.183917
0.180733
0.178896
0.177857
0.177261
0.176893
0.176627
0.176397
0.176157
0.175952
0.177128
0.412401
0.405339
0.384442
0.37242
0.369842
0.372732
0.377785
0.383146
0.387983
0.391993
0.395134
0.397489
0.399189
0.400363
0.401149
0.401566
0.402041
0.401637
0.385493
0.382621
0.37238
0.362671
0.356086
0.352602
0.351409
0.351689
0.352822
0.354374
0.356059
0.357703
0.359218
0.360566
0.361745
0.362746
0.363663
0.364287
0.377227
0.374576
0.368311
0.360828
0.353906
0.348226
0.343847
0.340598
0.338264
0.336631
0.335513
0.334758
0.334257
0.333929
0.333719
0.333583
0.333506
0.333428
0.374686
0.371972
0.367006
0.360935
0.354801
0.349104
0.34402
0.339588
0.335779
0.332529
0.329759
0.32739
0.325354
0.323592
0.322057
0.320706
0.319509
0.318444
0.373367
0.37041
0.366183
0.361149
0.355897
0.350752
0.345873
0.341341
0.337193
0.333429
0.330026
0.326953
0.324175
0.321659
0.319375
0.317294
0.315391
0.313666
0.372514
0.36931
0.365485
0.361142
0.356592
0.352038
0.347593
0.343335
0.339311
0.335545
0.332038
0.328782
0.325764
0.322968
0.320375
0.317969
0.315734
0.313685
0.371961
0.368516
0.364845
0.360912
0.356855
0.352786
0.348773
0.344871
0.341122
0.33755
0.334167
0.330975
0.327971
0.325147
0.322495
0.320005
0.317669
0.315511
0.371601
0.367939
0.364273
0.360546
0.356798
0.353078
0.349415
0.34584
0.34238
0.339055
0.335874
0.332845
0.329966
0.327235
0.324648
0.3222
0.319888
0.31774
0.371367
0.367529
0.3638
0.360143
0.356559
0.353057
0.349641
0.34632
0.343107
0.340011
0.337038
0.334193
0.331475
0.328883
0.326414
0.324066
0.321838
0.319761
0.371217
0.367247
0.36344
0.35978
0.356258
0.352867
0.3496
0.34645
0.343417
0.340502
0.337706
0.335027
0.332464
0.330014
0.327674
0.325443
0.32332
0.321337
0.371127
0.367076
0.363208
0.359518
0.356
0.352646
0.349443
0.346381
0.343452
0.34065
0.33797
0.335409
0.332961
0.330622
0.328388
0.326257
0.324228
0.322331
0.371065
0.366958
0.363043
0.359321
0.355788
0.352438
0.34926
0.346241
0.34337
0.340638
0.338037
0.335559
0.333196
0.330944
0.328796
0.326747
0.324799
0.322978
0.371019
0.366871
0.362922
0.359171
0.355617
0.352255
0.349077
0.346071
0.343226
0.340531
0.337976
0.335552
0.33325
0.331061
0.328979
0.326998
0.325117
0.323362
0.370987
0.366811
0.362842
0.359073
0.355503
0.352127
0.348938
0.345928
0.343086
0.340402
0.337864
0.335464
0.333192
0.331038
0.328995
0.327057
0.325221
0.32351
0.370966
0.366774
0.362796
0.35902
0.355444
0.352061
0.348866
0.345851
0.343005
0.34032
0.337785
0.335391
0.333127
0.330986
0.328959
0.327039
0.325225
0.323537
0.370955
0.366756
0.362778
0.359007
0.355434
0.352055
0.348864
0.345851
0.343008
0.340325
0.337793
0.335401
0.333142
0.331006
0.328985
0.327073
0.325267
0.323589
0.370956
0.366761
0.362791
0.359031
0.355472
0.352108
0.348931
0.345932
0.343103
0.340433
0.337914
0.335535
0.333288
0.331163
0.329154
0.327253
0.325458
0.323791
0.370974
0.366798
0.362849
0.359113
0.35558
0.352245
0.349098
0.346131
0.343333
0.340695
0.338207
0.335859
0.333642
0.331548
0.329567
0.327694
0.325926
0.324284
0.371015
0.366882
0.362976
0.359284
0.355798
0.352513
0.349419
0.346508
0.343768
0.341188
0.338758
0.336467
0.334306
0.332266
0.330337
0.328514
0.326794
0.325196
0.371081
0.367016
0.363177
0.359553
0.35614
0.352932
0.34992
0.347093
0.344436
0.341938
0.339586
0.337369
0.335276
0.333297
0.331425
0.329652
0.327976
0.326416
0.371191
0.367242
0.36352
0.360017
0.356729
0.35365
0.350767
0.348061
0.345515
0.343112
0.34084
0.338687
0.336643
0.334699
0.332847
0.331082
0.329402
0.327827
0.371381
0.367644
0.364139
0.360846
0.357754
0.354851
0.352116
0.34952
0.347043
0.344671
0.342395
0.340208
0.338102
0.336073
0.334118
0.332234
0.330424
0.328713
0.371731
0.368398
0.36528
0.362293
0.35941
0.35663
0.353929
0.351281
0.348678
0.346123
0.34362
0.341172
0.338785
0.336463
0.33421
0.332029
0.329927
0.327935
0.372421
0.369829
0.36729
0.364585
0.361716
0.358753
0.355717
0.352625
0.349507
0.346401
0.343336
0.340335
0.337413
0.334582
0.331852
0.329226
0.326713
0.324346
0.373942
0.372661
0.370661
0.367779
0.364273
0.360414
0.35635
0.352189
0.348035
0.34396
0.340013
0.336223
0.332607
0.329174
0.325927
0.322864
0.319985
0.317315
0.377771
0.378982
0.376507
0.371673
0.365879
0.359788
0.353689
0.347764
0.342138
0.336876
0.332004
0.327524
0.323424
0.319686
0.316284
0.313194
0.310392
0.307874
0.3876
0.394032
0.38662
0.374838
0.363294
0.35297
0.343933
0.336122
0.329443
0.323783
0.319023
0.315048
0.31175
0.309032
0.30681
0.305009
0.303564
0.302425
0.402384
0.394874
0.37547
0.356343
0.340872
0.32932
0.321123
0.315594
0.312091
0.310096
0.309228
0.309201
0.309797
0.31085
0.31223
0.313841
0.315614
0.317472
0.351309
0.326982
0.304715
0.284406
0.26623
0.25025
0.236434
0.224657
0.214723
0.206408
0.199495
0.19378
0.189081
0.18524
0.18212
0.179603
0.17759
0.175997
0.000228758
0.00148308
0.00251344
0.00336119
0.00417234
0.00508353
0.00607043
0.00715524
0.0083762
0.0096949
0.0110643
0.0125079
0.0140311
0.0156356
0.0173227
0.0190932
0.0209481
0.0228879
0.0249125
0.0270217
0.0292148
0.0314906
0.0338478
0.0362847
0.0387994
0.0413898
0.0440537
0.0467887
0.0495924
0.0524623
0.0553955
0.0583893
0.0614405
0.0645458
0.0677016
0.070904
0.0741487
0.0774312
0.0807465
0.0840896
0.0874549
0.0908367
0.0942289
0.0976248
0.101017
0.104397
0.107756
0.111084
0.114368
0.117596
0.120754
0.123829
0.126806
0.129672
0.132413
0.135017
0.137467
0.139742
0.141814
0.143654
0.145236
0.146559
0.14765
0.148554
0.149278
0.149737
0.149771
0.149293
0.148441
0.147814
0.148829
0.148762
0.149759
0.151924
0.154496
0.154046
0.151898
0.152525
0.151735
0.152927
0.156302
0.155035
0.157839
0.160757
0.163698
0.166631
0.169546
0.172434
0.175288
0.178105
0.180881
0.183618
0.186317
0.188988
0.191626
0.194198
0.196706
0.199147
0.201521
0.203823
0.206052
0.208203
0.210274
0.212262
0.214164
0.215977
0.217699
0.219327
0.22086
0.222295
0.22363
0.224864
0.225995
0.227022
0.227944
0.22876
0.229469
0.230071
0.230565
0.230952
0.231232
0.231404
0.23147
0.23143
0.231285
0.231037
0.230686
0.230234
0.229683
0.229035
0.228291
0.227454
0.226527
0.22551
0.224408
0.223223
0.221958
0.220615
0.219197
0.217708
0.216151
0.214529
0.212844
0.211101
0.209303
0.207453
0.205554
0.203609
0.201623
0.199598
0.197537
0.195446
0.193324
0.191185
0.189028
0.186876
0.18476
0.183906
0.184018
0.196046
0.190311
0.186084
0.201115
0.200753
0.201859
0.201843
0.199591
0.19143
0.202339
0.191822
0.190973
0.200725
0.199678
0.198283
0.195062
0.195263
0.198427
0.197604
0.202784
0.19464
0.000948003
0.00501499
0.00784467
0.0100029
0.0118936
0.0135987
0.0152684
0.0169727
0.0187388
0.0205684
0.022456
0.0244004
0.0264015
0.0284608
0.0305803
0.0327623
0.0350089
0.037322
0.039703
0.042153
0.0446725
0.0472619
0.0499209
0.0526494
0.0554467
0.0583122
0.0612449
0.0642437
0.0673075
0.0704349
0.0736244
0.0768743
0.0801827
0.0835475
0.0869663
0.0904365
0.0939553
0.0975195
0.101126
0.10477
0.10845
0.11216
0.115896
0.119654
0.123429
0.127214
0.131004
0.134791
0.138568
0.142326
0.146058
0.149755
0.15341
0.157016
0.160568
0.16406
0.167488
0.170843
0.174116
0.177298
0.180388
0.183411
0.18642
0.189477
0.192594
0.195741
0.198952
0.202398
0.206315
0.21073
0.214872
0.218316
0.222935
0.228872
0.233413
0.238295
0.243093
0.248481
0.254905
0.261116
0.266247
0.273658
0.279781
0.285496
0.291263
0.297061
0.302873
0.30868
0.314471
0.320236
0.325968
0.33166
0.337305
0.342877
0.348326
0.353693
0.35898
0.364184
0.369298
0.374318
0.379235
0.384045
0.388741
0.393316
0.397764
0.402081
0.406259
0.410293
0.414179
0.417911
0.421484
0.424895
0.428138
0.43121
0.434107
0.436827
0.439366
0.441722
0.443892
0.445875
0.447669
0.449274
0.450688
0.451911
0.452943
0.453784
0.454436
0.454899
0.455175
0.455265
0.455172
0.454898
0.454445
0.453818
0.453019
0.452052
0.45092
0.449629
0.448181
0.446583
0.444837
0.44295
0.440927
0.438772
0.43649
0.434088
0.431571
0.428944
0.426213
0.423384
0.420462
0.417456
0.414359
0.411201
0.40796
0.40466
0.401346
0.398266
0.395089
0.390913
0.38854
0.385774
0.384787
0.37708
0.373975
0.375191
0.36773
0.365806
0.365232
0.359734
0.356418
0.355832
0.352842
0.349529
0.342852
0.339696
0.33686
0.333878
0.333477
0.326443
0.00194786
0.00856744
0.0125007
0.0153113
0.0176399
0.0197659
0.0218241
0.0238845
0.0259803
0.0281233
0.0303157
0.0325572
0.0348479
0.0371893
0.0395836
0.0420337
0.0445427
0.0471135
0.0497487
0.0524504
0.0552203
0.0580598
0.0609699
0.0639513
0.0670045
0.0701296
0.0733267
0.0765955
0.0799357
0.0833468
0.0868281
0.0903788
0.0939978
0.097684
0.101436
0.105252
0.109131
0.11307
0.117067
0.121121
0.125229
0.129389
0.133598
0.137854
0.142153
0.146493
0.15087
0.155281
0.159723
0.164192
0.168685
0.1732
0.177736
0.182294
0.186876
0.191486
0.196132
0.200819
0.205557
0.210356
0.215235
0.22022
0.225353
0.230672
0.23619
0.241893
0.247793
0.253933
0.260303
0.266803
0.273365
0.279942
0.286817
0.293984
0.301047
0.30825
0.315528
0.322949
0.330531
0.338133
0.34566
0.353433
0.361007
0.368455
0.375857
0.38324
0.390607
0.397951
0.405266
0.412545
0.41978
0.426967
0.434098
0.441126
0.448059
0.454897
0.461637
0.468272
0.474794
0.481194
0.487466
0.493599
0.499587
0.505422
0.511095
0.516599
0.521926
0.52707
0.532024
0.536781
0.541335
0.54568
0.549811
0.553723
0.557412
0.560873
0.564102
0.567097
0.569854
0.572372
0.574647
0.576679
0.578467
0.58001
0.581309
0.582364
0.583175
0.583745
0.584075
0.584167
0.584024
0.58365
0.583047
0.58222
0.581173
0.579911
0.578438
0.57676
0.574883
0.572812
0.570553
0.568113
0.565498
0.562714
0.559769
0.55667
0.553423
0.550033
0.546514
0.542866
0.539099
0.535227
0.531229
0.527165
0.52302
0.518815
0.514615
0.510593
0.506344
0.501525
0.49752
0.493525
0.489676
0.484164
0.479832
0.476595
0.471178
0.467059
0.463335
0.458518
0.454174
0.450526
0.446345
0.442026
0.436969
0.43279
0.428744
0.42489
0.421714
0.417172
0.00309587
0.0117704
0.0165257
0.0197855
0.0224652
0.0248843
0.0271949
0.0294786
0.0317787
0.0341158
0.0364984
0.0389298
0.0414114
0.0439447
0.046532
0.0491761
0.0518802
0.0546476
0.0574812
0.0603838
0.0633579
0.0664055
0.0695284
0.0727279
0.0760052
0.0793613
0.0827967
0.086312
0.0899076
0.0935835
0.0973398
0.101177
0.105093
0.10909
0.113166
0.11732
0.121553
0.125862
0.130249
0.13471
0.139247
0.143857
0.148541
0.153297
0.158125
0.163024
0.167993
0.173033
0.178142
0.18332
0.18857
0.193893
0.199291
0.20477
0.210336
0.215998
0.221764
0.227647
0.233658
0.239808
0.246113
0.252587
0.259251
0.266119
0.273189
0.280448
0.287888
0.295509
0.3033
0.31123
0.319277
0.327424
0.335688
0.344078
0.352552
0.361119
0.369755
0.378457
0.387207
0.39599
0.404786
0.413601
0.422368
0.431082
0.43975
0.448386
0.456993
0.465567
0.474104
0.482598
0.491042
0.499429
0.507735
0.515937
0.524035
0.532025
0.539899
0.547649
0.555266
0.562739
0.570059
0.577217
0.584202
0.591006
0.597618
0.604031
0.610235
0.616221
0.621983
0.627511
0.6328
0.637842
0.642631
0.647161
0.651426
0.655423
0.659147
0.662593
0.665759
0.668643
0.67124
0.673552
0.675575
0.677311
0.678758
0.679919
0.680793
0.681384
0.681692
0.681721
0.681475
0.680957
0.680171
0.679122
0.677816
0.676258
0.674453
0.672409
0.670131
0.667628
0.664905
0.66197
0.658832
0.655497
0.651973
0.648271
0.644397
0.640355
0.636166
0.631824
0.627344
0.622752
0.618041
0.613233
0.608337
0.603375
0.598402
0.593496
0.588421
0.583062
0.577973
0.572949
0.567904
0.562392
0.557153
0.55218
0.546669
0.54143
0.536367
0.531038
0.525847
0.520887
0.515821
0.51074
0.50556
0.500669
0.495931
0.491489
0.487411
0.483354
0.00416939
0.0144984
0.0199084
0.023582
0.0265654
0.0292213
0.0317232
0.0341664
0.0366048
0.0390687
0.0415736
0.0441275
0.0467345
0.0493974
0.0521188
0.0549017
0.057749
0.060664
0.0636499
0.0667098
0.0698464
0.0730621
0.0763594
0.0797399
0.0832056
0.0867578
0.0903977
0.0941266
0.0979453
0.101855
0.105855
0.109948
0.114133
0.118411
0.122783
0.127248
0.131807
0.13646
0.141208
0.146051
0.15099
0.156025
0.161157
0.166386
0.171715
0.177143
0.182673
0.188305
0.194043
0.199889
0.205845
0.211916
0.218107
0.224424
0.230874
0.237466
0.244209
0.251112
0.258184
0.265434
0.272869
0.280497
0.288324
0.296353
0.30458
0.312993
0.321581
0.330339
0.339255
0.348314
0.3575
0.366796
0.376197
0.385701
0.395301
0.404986
0.414741
0.424553
0.434407
0.444293
0.454197
0.464106
0.473997
0.483857
0.493684
0.503478
0.513238
0.52296
0.532638
0.542266
0.551835
0.561339
0.570736
0.580023
0.589194
0.598242
0.607157
0.61593
0.624549
0.633003
0.641281
0.649373
0.657266
0.66495
0.672415
0.67965
0.686645
0.693391
0.699878
0.706098
0.712043
0.717704
0.723076
0.72815
0.732922
0.737386
0.741538
0.745372
0.748886
0.752077
0.754942
0.75748
0.75969
0.761572
0.763126
0.764353
0.765254
0.765833
0.766091
0.766033
0.765661
0.764982
0.763999
0.762719
0.761148
0.759291
0.757156
0.75475
0.752082
0.749159
0.745988
0.742578
0.738941
0.735083
0.731009
0.72674
0.722279
0.71762
0.712808
0.707837
0.702717
0.697464
0.692083
0.686591
0.681
0.675333
0.669629
0.663921
0.658097
0.652118
0.64619
0.640286
0.634356
0.628272
0.622232
0.616254
0.610145
0.604097
0.598127
0.592103
0.586143
0.580291
0.574461
0.568687
0.562982
0.557463
0.552151
0.547189
0.542594
0.538357
0.00508213
0.0167138
0.0226956
0.0267328
0.0299818
0.0328416
0.0355031
0.0380733
0.0406159
0.0431696
0.045757
0.0483914
0.0510805
0.0538295
0.056642
0.0595215
0.0624711
0.0654942
0.068594
0.0717737
0.0750363
0.0783845
0.081821
0.085348
0.0889676
0.0926819
0.0964926
0.100401
0.10441
0.108519
0.11273
0.117045
0.121465
0.125991
0.130624
0.135366
0.140217
0.14518
0.150255
0.155444
0.160749
0.166171
0.171713
0.177377
0.183164
0.189079
0.195124
0.201301
0.207615
0.214069
0.220667
0.227415
0.234319
0.241383
0.248615
0.256023
0.263613
0.271392
0.279367
0.287543
0.295922
0.304508
0.313301
0.3223
0.331499
0.340891
0.350464
0.360212
0.370123
0.380186
0.390387
0.400712
0.411152
0.4217
0.432348
0.443086
0.453902
0.464781
0.47571
0.486677
0.49767
0.508674
0.519674
0.530656
0.541614
0.552541
0.563432
0.574281
0.585081
0.595823
0.606497
0.617089
0.627559
0.637907
0.648124
0.658202
0.66813
0.677895
0.687486
0.69689
0.706095
0.715088
0.723856
0.732388
0.740671
0.748695
0.756447
0.763917
0.771095
0.777971
0.784536
0.790782
0.7967
0.802284
0.807527
0.812424
0.816969
0.821158
0.824988
0.828455
0.831556
0.834291
0.836658
0.838658
0.840292
0.84156
0.842466
0.84301
0.843198
0.843034
0.842521
0.841665
0.840472
0.838949
0.837103
0.834941
0.83247
0.8297
0.82664
0.823298
0.819681
0.815801
0.811673
0.807302
0.802685
0.797863
0.792835
0.787606
0.782197
0.776617
0.770874
0.764984
0.758956
0.752804
0.746544
0.740196
0.733788
0.727337
0.720794
0.714145
0.707468
0.700779
0.694062
0.687279
0.680487
0.673707
0.666899
0.660112
0.65337
0.646634
0.639948
0.633345
0.626812
0.620375
0.61407
0.607957
0.602099
0.596623
0.591547
0.5869
0.00581219
0.0184909
0.0249347
0.0292748
0.0327496
0.0357844
0.0385825
0.0412595
0.0438864
0.0465084
0.0491545
0.051843
0.0545857
0.0573901
0.060262
0.0632057
0.066225
0.0693236
0.0725048
0.075772
0.0791284
0.0825769
0.0861204
0.0897616
0.0935029
0.0973466
0.101295
0.10535
0.109515
0.11379
0.118178
0.12268
0.1273
0.132038
0.136897
0.141878
0.146985
0.152219
0.157582
0.163078
0.168709
0.174478
0.180387
0.186441
0.192644
0.198997
0.205507
0.212176
0.21901
0.226013
0.23319
0.240546
0.248087
0.255819
0.263747
0.271878
0.280217
0.288769
0.297538
0.306528
0.315738
0.32517
0.334822
0.344691
0.354773
0.365058
0.375541
0.38621
0.397057
0.408071
0.41924
0.43055
0.441992
0.453556
0.465232
0.477008
0.488874
0.500814
0.512816
0.524866
0.536951
0.549057
0.561169
0.573273
0.585358
0.597416
0.609438
0.621415
0.633337
0.645195
0.656979
0.668645
0.680183
0.691586
0.702842
0.713942
0.724872
0.735619
0.74617
0.75651
0.766626
0.776504
0.786129
0.79549
0.804572
0.813362
0.82185
0.830022
0.837867
0.845375
0.852536
0.85934
0.865779
0.871846
0.877534
0.882837
0.88775
0.892268
0.896387
0.900104
0.903416
0.906323
0.908824
0.910919
0.91261
0.913899
0.914787
0.91528
0.915379
0.915091
0.914421
0.913374
0.911959
0.910182
0.908052
0.905576
0.902762
0.899621
0.896166
0.892404
0.888341
0.88399
0.879375
0.8745
0.869371
0.864011
0.858428
0.852633
0.846641
0.840464
0.834113
0.827601
0.820941
0.814147
0.807234
0.800222
0.793132
0.785975
0.778732
0.7714
0.764014
0.756593
0.749139
0.741645
0.734132
0.726617
0.719102
0.711605
0.704142
0.696708
0.689328
0.68203
0.674829
0.667753
0.660842
0.654149
0.647747
0.641744
0.636154
0.630997
0.00637666
0.0198709
0.0266723
0.0312536
0.0349125
0.0380928
0.041006
0.0437728
0.0464692
0.0491453
0.0518345
0.0545596
0.057336
0.0601741
0.0630817
0.0660644
0.0691272
0.0722741
0.075509
0.0788355
0.0822569
0.0857766
0.0893975
0.0931228
0.0969552
0.100897
0.104952
0.109122
0.113409
0.117817
0.122347
0.127003
0.131787
0.136701
0.14175
0.146934
0.152258
0.157725
0.163338
0.169101
0.175017
0.18109
0.187325
0.193726
0.200297
0.207043
0.21397
0.221081
0.228383
0.23588
0.243579
0.251484
0.259601
0.267935
0.276492
0.285277
0.294294
0.303548
0.31304
0.322773
0.332747
0.34296
0.353412
0.364098
0.375014
0.386152
0.397506
0.409066
0.420823
0.432767
0.444885
0.457167
0.469599
0.48217
0.49487
0.507685
0.520603
0.53361
0.546691
0.559831
0.573017
0.586232
0.599462
0.612692
0.625909
0.639101
0.652256
0.665363
0.678409
0.691382
0.704265
0.71701
0.729613
0.742065
0.754354
0.766467
0.778389
0.790106
0.801602
0.812863
0.823873
0.834617
0.84508
0.855247
0.865104
0.874639
0.883836
0.892684
0.90117
0.909283
0.917012
0.924346
0.931278
0.937799
0.943903
0.949583
0.954835
0.959653
0.964034
0.967974
0.971471
0.974524
0.977133
0.9793
0.981025
0.982312
0.983164
0.983583
0.983577
0.983149
0.982307
0.981056
0.979405
0.977364
0.974941
0.972146
0.968983
0.965465
0.961613
0.957434
0.952936
0.948132
0.943041
0.937671
0.932034
0.926147
0.920022
0.913671
0.907109
0.900349
0.893403
0.886286
0.87901
0.871591
0.864044
0.856386
0.848636
0.840803
0.832884
0.824879
0.816809
0.808693
0.800539
0.792352
0.784144
0.775932
0.767726
0.759541
0.751391
0.74328
0.735232
0.727274
0.71943
0.711732
0.704224
0.69696
0.690008
0.683462
0.677325
0.67161
0.00678591
0.0208942
0.0279582
0.0327214
0.0365228
0.0398183
0.042824
0.0456636
0.0484157
0.0511335
0.0538537
0.0566023
0.0593977
0.0622529
0.0651778
0.0681796
0.0712642
0.0744367
0.0777014
0.0810623
0.0845232
0.0880876
0.0917589
0.0955403
0.0994352
0.103446
0.107577
0.111831
0.11621
0.120718
0.125359
0.130134
0.135049
0.140105
0.145307
0.150659
0.156164
0.161828
0.167653
0.173644
0.179807
0.186147
0.192667
0.199374
0.206274
0.213371
0.220672
0.228183
0.235908
0.243855
0.25203
0.260436
0.269082
0.27797
0.287108
0.296498
0.306146
0.316054
0.326224
0.336658
0.347355
0.358315
0.369534
0.381009
0.392736
0.404708
0.416917
0.429356
0.442014
0.45488
0.467944
0.481193
0.494614
0.508194
0.52192
0.535777
0.549753
0.56383
0.577995
0.59223
0.606519
0.620848
0.635198
0.649554
0.6639
0.678222
0.692506
0.706738
0.720905
0.734992
0.748948
0.762758
0.776411
0.789897
0.803201
0.816306
0.829198
0.841861
0.854277
0.86643
0.878304
0.889883
0.90115
0.91209
0.922688
0.93293
0.942801
0.952287
0.961377
0.970057
0.978315
0.986141
0.993527
1.00046
1.00695
1.01297
1.01852
1.0236
1.02821
1.03234
1.03599
1.03916
1.04185
1.04406
1.04579
1.04705
1.04785
1.04817
1.04804
1.04746
1.04643
1.04496
1.04306
1.04075
1.03803
1.03491
1.0314
1.02752
1.02328
1.01869
1.01377
1.00852
1.00296
0.99711
0.990977
0.984578
0.977927
0.971037
0.963923
0.956599
0.949079
0.941377
0.933508
0.925486
0.917328
0.909049
0.900666
0.892189
0.883622
0.874968
0.866245
0.857468
0.848649
0.839797
0.830925
0.822048
0.81318
0.804335
0.795527
0.786767
0.778077
0.769487
0.761024
0.752724
0.744632
0.736803
0.729299
0.722199
0.715495
0.709199
0.00705374
0.0216017
0.0288435
0.0337341
0.0376378
0.0410179
0.0440927
0.0469868
0.0497802
0.0525273
0.0552671
0.0580277
0.0608298
0.0636887
0.0666159
0.0696202
0.0727087
0.0758873
0.0791611
0.0825346
0.086012
0.0895972
0.093294
0.0971061
0.101037
0.10509
0.10927
0.113578
0.118021
0.1226
0.127319
0.132184
0.137197
0.142364
0.147689
0.153176
0.15883
0.164657
0.170662
0.17685
0.183226
0.189799
0.196572
0.203553
0.210747
0.218163
0.225805
0.233682
0.241799
0.250162
0.25878
0.267656
0.276798
0.28621
0.295897
0.305864
0.316115
0.326651
0.337476
0.348589
0.359991
0.37168
0.383654
0.395908
0.408438
0.421238
0.4343
0.447615
0.461173
0.474964
0.488975
0.503194
0.517605
0.532194
0.546947
0.561848
0.57688
0.592028
0.607273
0.622599
0.637987
0.653421
0.66888
0.684349
0.69981
0.715246
0.73064
0.745978
0.761243
0.776401
0.791406
0.806251
0.820923
0.835407
0.849688
0.863747
0.877567
0.89113
0.90442
0.917418
0.930106
0.942468
0.954487
0.966147
0.977431
0.988325
0.998814
1.00888
1.01852
1.02772
1.03645
1.04471
1.0525
1.0598
1.06661
1.07292
1.07873
1.08404
1.08883
1.09311
1.09687
1.10012
1.10285
1.10507
1.10679
1.10799
1.1087
1.10892
1.10864
1.10788
1.10665
1.10496
1.10282
1.10023
1.09721
1.09377
1.08993
1.08569
1.08107
1.07608
1.07074
1.06506
1.05906
1.05274
1.04614
1.03925
1.03209
1.02469
1.01705
1.00919
1.00112
0.992866
0.984433
0.97584
0.967102
0.958236
0.949255
0.940172
0.930993
0.921727
0.912387
0.902988
0.893544
0.884066
0.874567
0.865062
0.855567
0.846097
0.836666
0.82729
0.817991
0.808798
0.799744
0.790865
0.782207
0.773823
0.765772
0.758116
0.750838
0.743956
0.00719606
0.0220337
0.0293791
0.0343479
0.0383166
0.0417517
0.0448718
0.0478013
0.0506201
0.0533834
0.0561311
0.0588926
0.0616902
0.0645408
0.0674572
0.0704498
0.0735266
0.0766945
0.0799594
0.0833263
0.0868
0.0903849
0.0940851
0.097905
0.101848
0.105919
0.110122
0.114461
0.11894
0.123564
0.128337
0.133264
0.138351
0.143602
0.149022
0.154618
0.160396
0.166361
0.17252
0.178879
0.185446
0.192228
0.199231
0.206463
0.213932
0.221645
0.229609
0.237833
0.246323
0.255087
0.264132
0.273463
0.283088
0.293011
0.303238
0.313772
0.324617
0.335776
0.34725
0.35904
0.371146
0.383565
0.396296
0.409333
0.422671
0.436304
0.450223
0.464421
0.478885
0.493604
0.508566
0.523755
0.539157
0.554754
0.57053
0.586467
0.602547
0.618752
0.635063
0.651461
0.667926
0.68444
0.700981
0.717532
0.734073
0.750585
0.767051
0.783452
0.799767
0.81593
0.831928
0.84775
0.863381
0.878803
0.893997
0.908942
0.92362
0.938013
0.952102
0.965869
0.979295
0.992363
1.00506
1.01736
1.02925
1.04072
1.05174
1.06232
1.07244
1.08207
1.0912
1.09984
1.10795
1.11555
1.12262
1.12916
1.13517
1.14063
1.14556
1.14994
1.15377
1.15705
1.15978
1.16198
1.16363
1.16476
1.16536
1.16543
1.165
1.16406
1.16262
1.1607
1.15831
1.15545
1.15214
1.14839
1.14421
1.13963
1.13464
1.12928
1.12354
1.11745
1.11103
1.10428
1.09722
1.08987
1.08225
1.07436
1.06624
1.05788
1.0493
1.04053
1.03158
1.02246
1.01318
1.00377
0.994236
0.984594
0.974851
0.965018
0.955107
0.945135
0.935113
0.925056
0.914976
0.904889
0.894812
0.88476
0.874749
0.864797
0.854927
0.84517
0.835557
0.826129
0.816929
0.80801
0.799422
0.791219
0.783375
0.775917
0.00722996
0.0222289
0.0296137
0.0346174
0.0386173
0.0420796
0.0452217
0.0481672
0.0509952
0.0537607
0.0565038
0.0592549
0.062037
0.064868
0.0677621
0.0707304
0.0737821
0.0769249
0.0801653
0.0835092
0.0869618
0.0905282
0.0942132
0.0980213
0.101957
0.106026
0.110232
0.11458
0.119076
0.123725
0.128531
0.133501
0.138642
0.143958
0.149457
0.155146
0.161031
0.16712
0.17342
0.179939
0.186686
0.193668
0.200893
0.208371
0.21611
0.224117
0.232403
0.240974
0.24984
0.259009
0.268486
0.278281
0.288397
0.298842
0.30962
0.320735
0.332189
0.343986
0.356126
0.36861
0.381436
0.394603
0.408107
0.421943
0.436104
0.450584
0.465374
0.480463
0.49584
0.511492
0.527405
0.543564
0.55995
0.576544
0.593327
0.61028
0.627382
0.644614
0.661956
0.679386
0.696884
0.714428
0.731998
0.749572
0.767131
0.784655
0.802124
0.81952
0.836769
0.853852
0.870755
0.887462
0.903957
0.920221
0.93623
0.951959
0.967391
0.982506
0.997287
1.01171
1.02577
1.03943
1.05269
1.06552
1.07792
1.08985
1.10132
1.1123
1.12279
1.13277
1.14221
1.15111
1.15947
1.16728
1.17453
1.18122
1.18735
1.1929
1.19789
1.20231
1.20614
1.20941
1.2121
1.21424
1.2158
1.21682
1.21728
1.21721
1.21659
1.21546
1.21381
1.21166
1.20901
1.20588
1.20229
1.19824
1.19376
1.18884
1.18352
1.1778
1.1717
1.16523
1.15842
1.15127
1.14381
1.13604
1.12799
1.11967
1.1111
1.10229
1.09326
1.08402
1.0746
1.065
1.05524
1.04534
1.03532
1.02517
1.01492
1.00458
0.994157
0.983668
0.973127
0.962548
0.951944
0.941331
0.930726
0.920145
0.909606
0.899128
0.888735
0.878457
0.868328
0.858387
0.848679
0.839251
0.83015
0.821419
0.81303
0.805017
0.00717305
0.0222238
0.0295932
0.0345943
0.0385953
0.0420593
0.0452016
0.048144
0.0509647
0.0537182
0.0564443
0.0591735
0.0619293
0.0647304
0.0675915
0.0705247
0.0735399
0.0766455
0.0798488
0.0831564
0.0865742
0.090108
0.0937632
0.0975453
0.10146
0.105512
0.109707
0.114052
0.118552
0.123213
0.128043
0.133047
0.138234
0.14361
0.149184
0.154964
0.160957
0.167173
0.173619
0.180306
0.187243
0.194438
0.201901
0.209642
0.217671
0.225997
0.234629
0.243577
0.252849
0.262454
0.2724
0.282693
0.293341
0.304348
0.315718
0.327453
0.339558
0.352032
0.364878
0.378093
0.391677
0.405626
0.419935
0.434597
0.449607
0.464954
0.480628
0.496619
0.512913
0.529496
0.546353
0.563467
0.58082
0.598383
0.616137
0.634062
0.652136
0.670337
0.688644
0.707035
0.725487
0.743977
0.762485
0.780988
0.799466
0.817897
0.836263
0.854489
0.872548
0.890423
0.908096
0.925551
0.942769
0.95974
0.976423
0.992789
1.00883
1.02452
1.03984
1.05478
1.06932
1.08343
1.09711
1.11034
1.12309
1.13535
1.14712
1.15837
1.1691
1.17928
1.18891
1.19798
1.20648
1.2144
1.22174
1.22849
1.23465
1.24022
1.2452
1.24959
1.25338
1.25657
1.25918
1.2612
1.26265
1.26352
1.26383
1.26358
1.26277
1.26144
1.25957
1.25718
1.25429
1.25091
1.24705
1.24272
1.23795
1.23273
1.2271
1.22106
1.21463
1.20783
1.20068
1.19318
1.18535
1.17722
1.1688
1.16011
1.15115
1.14195
1.13253
1.1229
1.11307
1.10306
1.09289
1.08257
1.07211
1.06154
1.05085
1.04007
1.02921
1.01827
1.00728
0.996246
0.985186
0.974114
0.963046
0.952001
0.940995
0.930051
0.919192
0.908448
0.897853
0.887447
0.877271
0.867372
0.857791
0.848566
0.839664
0.831127
0.00704315
0.0220521
0.0293599
0.034326
0.038302
0.041745
0.0448673
0.047789
0.0505868
0.0533144
0.0560113
0.0587078
0.0614275
0.0641893
0.0670085
0.0698978
0.0728676
0.0759272
0.0790845
0.082347
0.0857213
0.0892142
0.0928319
0.0965808
0.100467
0.104498
0.10868
0.113019
0.117524
0.122201
0.127059
0.132106
0.13735
0.1428
0.148466
0.154358
0.160485
0.166857
0.173485
0.180378
0.187546
0.195
0.202752
0.210811
0.219188
0.227893
0.236937
0.246328
0.256077
0.266192
0.27668
0.287551
0.298808
0.310457
0.322496
0.334928
0.347755
0.360977
0.374594
0.388603
0.403
0.41778
0.432938
0.448463
0.464349
0.480582
0.497152
0.514045
0.531246
0.54874
0.566509
0.584541
0.602823
0.621296
0.63995
0.658764
0.677717
0.696786
0.715949
0.735181
0.75446
0.773763
0.793068
0.812354
0.831599
0.850781
0.869821
0.888695
0.907381
0.925861
0.944113
0.962119
0.979859
0.997313
1.01445
1.03126
1.0477
1.06378
1.07945
1.09472
1.10955
1.12394
1.13786
1.1513
1.16424
1.17667
1.18857
1.19994
1.21076
1.22102
1.2307
1.2398
1.24831
1.25623
1.26355
1.27026
1.27637
1.28187
1.28676
1.29104
1.29471
1.29778
1.30025
1.30212
1.30341
1.3041
1.30423
1.30378
1.30278
1.30123
1.29915
1.29654
1.29342
1.2898
1.28569
1.28111
1.27608
1.27061
1.26471
1.2584
1.25169
1.24461
1.23717
1.22938
1.22126
1.21284
1.20411
1.19511
1.18585
1.17634
1.1666
1.15664
1.14649
1.13615
1.12564
1.11499
1.10419
1.09326
1.08223
1.07109
1.05987
1.04857
1.03721
1.0258
1.01437
1.00291
0.99146
0.980025
0.968627
0.957287
0.94603
0.934884
0.923885
0.913069
0.902479
0.892158
0.882142
0.872466
0.863094
0.854078
0.00685814
0.0217448
0.0289514
0.0338553
0.0377838
0.0411861
0.0442709
0.0471561
0.049917
0.0526065
0.0552635
0.0579179
0.0605933
0.0633088
0.0660799
0.0689198
0.0718396
0.0748493
0.0779578
0.0811732
0.0845036
0.0879565
0.0915396
0.0952605
0.099127
0.103147
0.107329
0.111682
0.116213
0.120932
0.125849
0.130974
0.136318
0.14189
0.147703
0.153767
0.160096
0.1667
0.17359
0.180777
0.188272
0.196086
0.204232
0.21272
0.221562
0.230767
0.240347
0.25031
0.260665
0.271419
0.282581
0.294158
0.306159
0.318585
0.331417
0.344661
0.358318
0.372388
0.386866
0.401749
0.417029
0.432698
0.448749
0.465168
0.481946
0.499068
0.51652
0.534286
0.55235
0.570693
0.589297
0.608142
0.627206
0.646458
0.665873
0.68543
0.705104
0.724872
0.744711
0.764597
0.784508
0.804421
0.824314
0.844172
0.86395
0.883581
0.903045
0.92232
0.941383
0.960213
0.978788
0.997089
1.0151
1.03279
1.05014
1.06713
1.08374
1.09994
1.11574
1.13109
1.14599
1.16043
1.17437
1.18782
1.20075
1.21315
1.225
1.23631
1.24705
1.25721
1.26679
1.27578
1.28417
1.29195
1.29913
1.30569
1.31163
1.31697
1.32168
1.32579
1.32928
1.33216
1.33444
1.33612
1.3372
1.3377
1.33762
1.33697
1.33576
1.33401
1.33172
1.3289
1.32557
1.32174
1.31742
1.31263
1.30739
1.30171
1.29559
1.28907
1.28216
1.27486
1.26721
1.2592
1.25087
1.24223
1.23329
1.22407
1.21458
1.20485
1.19489
1.1847
1.17432
1.16375
1.15301
1.14211
1.13106
1.11989
1.1086
1.0972
1.08572
1.07415
1.06252
1.05084
1.03911
1.02737
1.01562
1.00389
0.99218
0.980527
0.96895
0.957479
0.946147
0.93499
0.92405
0.913365
0.902972
0.892899
0.883114
0.873672
0.00662637
0.0213139
0.0283826
0.0331991
0.0370597
0.0404035
0.043435
0.0462694
0.048981
0.0516216
0.0542294
0.0568342
0.0594594
0.0621243
0.0648448
0.0676347
0.070506
0.0734696
0.0765358
0.079714
0.0830137
0.0864441
0.0900146
0.0937348
0.0976149
0.101665
0.105896
0.110317
0.11494
0.119775
0.124835
0.130132
0.135678
0.141488
0.147575
0.153952
0.160634
0.167637
0.174976
0.182647
0.190667
0.19905
0.207807
0.216948
0.226485
0.236426
0.246779
0.257551
0.268749
0.280376
0.292437
0.304934
0.317869
0.331238