/*--------------------------------*- C++ -*----------------------------------*\
  =========                 |
  \\      /  F ield         | OpenFOAM: The Open Source CFD Toolbox
   \\    /   O peration     | Website:  https://openfoam.org
    \\  /    A nd           | Version:  7
     \\/     M anipulation  |
\*---------------------------------------------------------------------------*/
FoamFile
{
    version     2.0;
    format      ascii;
    class       volScalarField;
    location    "0.26";
    object      nut;
}
// * * * * * * * * * * * * * * * * * * * * * * * * * * * * * * * * * * * * * //

dimensions      [0 2 -1 0 0 0 0];

internalField   nonuniform List<scalar> 
12225
(
3.8006e-05
3.33294e-05
2.94332e-05
2.6376e-05
2.41489e-05
2.26289e-05
2.16443e-05
2.10339e-05
2.06699e-05
2.04598e-05
2.03409e-05
2.02728e-05
2.02307e-05
2.02003e-05
2.01739e-05
2.01465e-05
2.0123e-05
2.02576e-05
0.000205724
0.000151533
0.000127319
0.000114411
0.000107381
0.000103279
0.000100625
9.87149e-05
9.72147e-05
9.59625e-05
9.48784e-05
9.3923e-05
9.30762e-05
9.23239e-05
9.16587e-05
9.10589e-05
9.05595e-05
8.99905e-05
0.000418643
0.000297003
0.000242054
0.000210272
0.000189717
0.00017535
0.000164798
0.000156799
0.000150586
0.000145657
0.000141673
0.000138401
0.000135682
0.000133396
0.000131459
0.000129799
0.000128383
0.000127106
0.000615537
0.000473548
0.000392596
0.00034129
0.000306026
0.000280098
0.000260141
0.000244331
0.000231553
0.000221059
0.000212328
0.000204989
0.000198764
0.000193445
0.00018887
0.000184907
0.000181462
0.000178461
0.000739725
0.000627508
0.000543988
0.000483439
0.000438579
0.000404038
0.000376541
0.00035412
0.000335503
0.000319815
0.000306438
0.000294924
0.000284939
0.000276223
0.000268575
0.000261829
0.000255861
0.000250637
0.000803284
0.000733061
0.000666706
0.000610803
0.000565232
0.000527918
0.000496949
0.000470903
0.000448732
0.000429648
0.000413063
0.000398533
0.000385717
0.000374349
0.000364216
0.000355148
0.000347014
0.000339837
0.000832284
0.000794591
0.000750954
0.000708346
0.000669789
0.000635824
0.000606122
0.000580156
0.000557385
0.000537316
0.000519529
0.00050368
0.000489491
0.000476731
0.000465214
0.000454784
0.000445329
0.000436926
0.000844509
0.000826357
0.000801471
0.000773648
0.0007457
0.000719062
0.000694333
0.000671694
0.00065111
0.000632437
0.000615497
0.000600107
0.000586098
0.000573318
0.000561634
0.000550932
0.000541134
0.000532366
0.000849308
0.000841192
0.000828458
0.000812442
0.0007947
0.000776403
0.000758306
0.000740869
0.000724346
0.000708841
0.000694378
0.000680929
0.000668444
0.00065686
0.000646113
0.000636143
0.000626916
0.000618589
0.000851043
0.000847506
0.000841448
0.000833092
0.000823016
0.000811834
0.000800061
0.000788105
0.000776259
0.000764722
0.000753614
0.000743004
0.000732925
0.000723387
0.000714384
0.000705905
0.000697956
0.000690706
0.000851597
0.000849941
0.000847101
0.000842991
0.000837726
0.000831519
0.000824611
0.000817235
0.000809598
0.000801868
0.000794172
0.000786602
0.000779225
0.000772086
0.000765213
0.000758627
0.00075236
0.00074657
0.000851725
0.000850709
0.000849144
0.00084693
0.000844053
0.00084056
0.000836536
0.000832087
0.000827322
0.000822346
0.000817249
0.000812106
0.000806976
0.000801907
0.000796936
0.000792092
0.000787417
0.000783053
0.000851737
0.000850954
0.00084994
0.000848639
0.000847018
0.00084507
0.000842806
0.000840258
0.000837465
0.000834478
0.000831342
0.000828102
0.000824799
0.000821467
0.000818137
0.000814836
0.000811602
0.000808544
0.00085171
0.000850987
0.000850182
0.000849278
0.000848261
0.000847121
0.000845852
0.000844453
0.00084293
0.000841294
0.000839561
0.000837746
0.000835866
0.000833939
0.000831981
0.000830008
0.000828049
0.000826173
0.000851677
0.00085095
0.000850198
0.00084942
0.000848622
0.000847804
0.000846965
0.0008461
0.000845208
0.000844287
0.000843336
0.000842357
0.000841352
0.000840324
0.000839279
0.000838222
0.00083717
0.000836162
0.000851651
0.000850908
0.00085016
0.000849409
0.000848667
0.00084794
0.000847234
0.000846548
0.000845883
0.000845236
0.000844605
0.000843986
0.000843378
0.000842778
0.000842185
0.000841602
0.000841035
0.000840508
0.000851638
0.000850886
0.000850137
0.000849392
0.000848662
0.000847955
0.000847279
0.000846636
0.000846028
0.000845454
0.000844912
0.000844401
0.000843918
0.000843459
0.000843024
0.000842611
0.000842227
0.000841888
0.000851639
0.00085089
0.00085015
0.000849417
0.000848701
0.000848008
0.000847348
0.000846722
0.000846133
0.000845581
0.000845065
0.000844583
0.000844133
0.000843713
0.000843321
0.000842956
0.000842624
0.000842341
0.000851662
0.000850939
0.000850226
0.000849522
0.000848836
0.000848175
0.000847548
0.000846956
0.000846402
0.000845885
0.000845404
0.000844957
0.000844541
0.000844155
0.000843796
0.000843464
0.000843164
0.000842912
0.000851715
0.000851053
0.000850399
0.000849754
0.000849128
0.000848532
0.00084797
0.000847444
0.000846954
0.000846499
0.000846074
0.000845677
0.000845304
0.000844952
0.000844619
0.000844303
0.000844009
0.000843752
0.000851801
0.000851234
0.000850669
0.000850109
0.000849564
0.000849039
0.000848536
0.00084805
0.000847576
0.000847107
0.000846638
0.000846164
0.000845681
0.000845188
0.000844682
0.000844164
0.00084364
0.000843129
0.000851941
0.000851518
0.000851065
0.000850568
0.000850017
0.000849406
0.000848722
0.000847953
0.000847088
0.000846124
0.000845065
0.000843914
0.000842677
0.000841363
0.000839976
0.00083853
0.000837047
0.000835565
0.000852143
0.000851828
0.000851264
0.000850361
0.000849078
0.000847418
0.000845389
0.000843013
0.000840327
0.000837375
0.000834206
0.000830856
0.000827365
0.000823783
0.000820159
0.000816527
0.000812925
0.000809424
0.00085222
0.000851245
0.000849025
0.000845468
0.000840719
0.000835023
0.000828606
0.000821663
0.000814375
0.000806864
0.000799264
0.000791711
0.000784297
0.000777077
0.000770087
0.000763351
0.000756895
0.000750795
0.000850791
0.000845027
0.000835399
0.000822957
0.000808859
0.000794027
0.00077905
0.000764238
0.000749852
0.000736134
0.000723183
0.000711012
0.000699606
0.000688931
0.000678943
0.000669596
0.000660856
0.000652763
0.000841138
0.000816681
0.000786996
0.000756693
0.000727768
0.000700939
0.000676353
0.000654199
0.000634324
0.00061647
0.000600385
0.000585839
0.000572627
0.000560575
0.000549535
0.000539382
0.00053002
0.00052144
0.000798628
0.000728721
0.00066909
0.000620804
0.00058093
0.000547657
0.000520034
0.000496766
0.000476879
0.000459662
0.000444589
0.000431256
0.000419357
0.000408651
0.000398952
0.000390113
0.000382021
0.000374634
0.000662426
0.000545578
0.000474636
0.00042519
0.000388257
0.000360251
0.000338446
0.000320946
0.00030653
0.000294411
0.000284055
0.000275083
0.00026722
0.000260259
0.000254046
0.000248461
0.00024341
0.000238839
0.000377505
0.000286123
0.00024263
0.000214904
0.00019564
0.000182229
0.000172792
0.000165954
0.000160834
0.000156886
0.000153764
0.000151238
0.000149148
0.000147385
0.000145869
0.000144543
0.000143367
0.000142298
6.98062e-05
6.49723e-05
6.05478e-05
5.65122e-05
5.29007e-05
4.97254e-05
4.69802e-05
4.464e-05
4.2666e-05
4.1014e-05
3.96403e-05
3.85046e-05
3.7571e-05
3.68078e-05
3.61878e-05
3.56877e-05
3.52877e-05
3.49711e-05
7.14349e-08
2.11313e-06
3.57912e-06
4.78199e-06
5.92848e-06
7.21546e-06
8.6073e-06
1.01349e-05
1.18519e-05
1.37075e-05
1.56314e-05
1.76571e-05
1.97923e-05
2.2039e-05
2.43986e-05
2.68721e-05
2.94604e-05
3.21637e-05
3.49817e-05
3.79134e-05
4.09574e-05
4.41117e-05
4.73738e-05
5.07411e-05
5.42103e-05
5.77781e-05
6.1441e-05
6.51952e-05
6.90369e-05
7.29622e-05
7.69667e-05
8.10461e-05
8.51957e-05
8.94104e-05
9.36849e-05
9.80132e-05
0.000102389
0.000106806
0.000111257
0.000115735
0.000120232
0.000124739
0.000129249
0.000133752
0.000138237
0.000142693
0.000147106
0.000151463
0.000155747
0.000159942
0.00016403
0.000167992
0.000171813
0.000175474
0.00017896
0.000182251
0.000185325
0.00018815
0.00019069
0.000192913
0.000194805
0.000196387
0.000197708
0.000198796
0.000199585
0.000199913
0.000199648
0.000198873
0.000198146
0.000196065
0.000196568
4.53742e-05
4.58907e-05
0.000202683
0.000207061
0.00020587
4.69275e-05
4.66939e-05
4.59608e-05
4.69591e-05
4.77645e-05
4.75022e-05
4.78676e-05
4.82651e-05
4.86623e-05
4.9054e-05
4.94384e-05
4.98141e-05
5.01805e-05
5.05371e-05
5.08839e-05
5.1221e-05
5.1549e-05
5.18694e-05
5.21816e-05
5.24815e-05
5.27693e-05
5.30452e-05
5.3309e-05
5.35607e-05
5.37999e-05
5.40265e-05
5.42404e-05
5.44414e-05
5.46292e-05
5.48037e-05
5.49649e-05
5.51126e-05
5.52466e-05
5.53669e-05
5.54735e-05
5.55662e-05
5.5645e-05
5.571e-05
5.5761e-05
5.57981e-05
5.58214e-05
5.58308e-05
5.58265e-05
5.58085e-05
5.57768e-05
5.57316e-05
5.56731e-05
5.56013e-05
5.55164e-05
5.54186e-05
5.5308e-05
5.51848e-05
5.50494e-05
5.49018e-05
5.47423e-05
5.45711e-05
5.43886e-05
5.4195e-05
5.39905e-05
5.37755e-05
5.35502e-05
5.3315e-05
5.30701e-05
5.2816e-05
5.25528e-05
5.2281e-05
5.20008e-05
5.17127e-05
5.14169e-05
5.11138e-05
5.08038e-05
5.04871e-05
5.01642e-05
4.98354e-05
4.95011e-05
4.91617e-05
4.88173e-05
4.84692e-05
4.81172e-05
4.77603e-05
4.73795e-05
4.68201e-05
4.65147e-05
4.58766e-05
4.58341e-05
4.57843e-05
0.000232127
4.91547e-05
4.8787e-05
0.000228752
4.82794e-05
4.4888e-05
0.000223385
4.44375e-05
4.40191e-05
0.00021749
0.000216309
0.000213747
4.64018e-05
4.60593e-05
4.55975e-05
4.55662e-05
0.000208942
4.47889e-05
2.96185e-07
1.30374e-05
3.06623e-05
4.34768e-05
5.22813e-05
5.80725e-05
6.2483e-05
6.63686e-05
7.01351e-05
7.39651e-05
7.79147e-05
8.19849e-05
8.61691e-05
9.04636e-05
9.48684e-05
9.93856e-05
0.000104018
0.00010877
0.000113644
0.00011864
0.000123761
0.000129007
0.000134376
0.000139868
0.000145482
0.000151214
0.000157064
0.000163027
0.000169103
0.000175286
0.000181574
0.000187964
0.000194451
0.00020103
0.000207698
0.000214449
0.000221276
0.000228175
0.000235139
0.000242159
0.000249228
0.000256338
0.000263477
0.000270634
0.000277795
0.000284946
0.000292066
0.000299135
0.000306128
0.000313018
0.000319771
0.000326354
0.000332726
0.000338839
0.000344635
0.000350038
0.000354947
0.000359228
0.000362715
0.000365232
0.000366625
0.000366819
0.000365812
0.000363545
0.000359651
0.000353415
0.000344197
0.000332136
0.000318923
0.000308709
0.000305435
0.000287718
0.000293417
0.00032188
0.000332353
0.000325275
0.00029931
0.000300287
0.000306036
0.000313841
0.000317041
0.000324896
0.000330633
0.000335182
0.000340059
0.000345067
0.000350146
0.00035525
0.00036035
0.000365428
0.000370466
0.000375441
0.000380321
0.000385008
0.000389366
0.000393632
0.000397834
0.000401973
0.000406048
0.000410054
0.000413989
0.000417848
0.00042163
0.00042533
0.000428945
0.000432472
0.000435909
0.000439251
0.000442498
0.000445645
0.00044869
0.000451632
0.000454468
0.000457195
0.000459813
0.000462319
0.000464712
0.000466991
0.000469154
0.0004712
0.000473128
0.000474939
0.00047663
0.000478203
0.000479656
0.00048099
0.000482206
0.000483302
0.000484281
0.000485142
0.000485887
0.000486517
0.000487032
0.000487434
0.000487725
0.000487906
0.00048798
0.000487947
0.00048781
0.000487571
0.000487232
0.000486796
0.000486265
0.000485642
0.000484928
0.000484128
0.000483244
0.000482277
0.000481232
0.000480112
0.000478918
0.000477657
0.000476323
0.000474925
0.000473436
0.000471695
0.000468839
0.000461029
0.000454683
0.000441374
0.000439025
0.000438031
0.000492333
0.000432829
0.00042472
0.000477516
0.000417949
0.000410963
0.000460095
0.000400014
0.000392374
0.000442784
0.000443224
0.000438547
0.000383123
0.000374348
0.00036685
0.000363643
0.000406208
0.000348368
6.08614e-07
2.23768e-05
5.17841e-05
7.38004e-05
8.93238e-05
0.000100475
0.000108932
0.000115875
0.000122061
0.000127935
0.000133733
0.000139567
0.000145489
0.000151521
0.000157675
0.000163958
0.000170377
0.000176935
0.000183637
0.000190487
0.000197486
0.000204637
0.000211939
0.000219394
0.000226999
0.000234755
0.000242659
0.000250709
0.000258903
0.000267238
0.00027571
0.000284317
0.000293052
0.000301913
0.000310894
0.000319989
0.000329193
0.000338497
0.000347895
0.000357377
0.000366933
0.000376552
0.00038622
0.000395923
0.000405643
0.000415357
0.000425043
0.000434672
0.000444212
0.000453627
0.000462879
0.000471924
0.000480716
0.000489203
0.000497325
0.000505011
0.000512176
0.00051872
0.000524543
0.000529566
0.000533774
0.000537246
0.000540143
0.000542619
0.000544691
0.000546261
0.00054738
0.000548544
0.000550687
0.000554733
0.000560608
0.000565711
0.00057404
0.000585395
0.000594748
0.000600836
0.00060508
0.000613274
0.000622813
0.0006334
0.000643556
0.000653861
0.000664337
0.00067459
0.000684852
0.00069511
0.000705336
0.000715503
0.000725585
0.000735559
0.000745399
0.000755076
0.00076456
0.000773677
0.000782551
0.000791268
0.000799847
0.00080829
0.000816592
0.000824746
0.000832746
0.000840585
0.000848257
0.000855753
0.000863069
0.000870198
0.000877134
0.00088387
0.000890402
0.000896724
0.000902831
0.000908719
0.000914382
0.000919818
0.000925022
0.000929991
0.000934722
0.000939213
0.000943461
0.000947464
0.000951221
0.000954729
0.000957989
0.000961
0.000963761
0.000966274
0.000968537
0.000970553
0.000972322
0.000973846
0.000975127
0.000976168
0.00097697
0.000977537
0.000977871
0.000977977
0.000977858
0.000977518
0.000976961
0.000976192
0.000975215
0.000974037
0.000972661
0.000971092
0.000969338
0.000967403
0.000965293
0.000963014
0.000960574
0.000957978
0.000955232
0.000952347
0.000949326
0.000946155
0.000942793
0.000938972
0.000933679
0.000924523
0.000916846
0.000909909
0.000902696
0.000896199
0.000906919
0.000889647
0.000881083
0.000886672
0.000867464
0.000857442
0.00086425
0.000841129
0.000831703
0.000840364
0.000835819
0.000828715
0.000809471
0.000799781
0.000791773
0.000784574
0.000786587
0.000758289
9.67691e-07
2.90798e-05
6.68554e-05
9.60693e-05
0.000117591
0.000133612
0.000145963
0.000156012
0.000164714
0.000172697
0.000180348
0.00018789
0.000195448
0.000203087
0.000210843
0.000218736
0.000226777
0.000234975
0.000243334
0.000251859
0.000260554
0.00026942
0.000278459
0.000287671
0.000297056
0.000306614
0.000316342
0.000326239
0.000336303
0.000346531
0.000356919
0.000367463
0.000378159
0.000389001
0.000399984
0.000411101
0.000422346
0.00043371
0.000445184
0.000456757
0.000468419
0.000480157
0.000491955
0.000503797
0.000515662
0.00052753
0.000539375
0.000551169
0.000562883
0.000574483
0.000585937
0.000597211
0.000608272
0.000619087
0.000629623
0.000639849
0.00064973
0.000659235
0.000668345
0.00067707
0.00068547
0.000693666
0.000701826
0.000710109
0.000718611
0.000727371
0.000736474
0.00074612
0.000756543
0.000767834
0.000779725
0.000791863
0.000804659
0.000818084
0.00083153
0.000844622
0.000857704
0.000871463
0.000885618
0.000900064
0.000914559
0.000929041
0.000943564
0.000957997
0.000972331
0.000986559
0.00100067
0.00101464
0.00102845
0.00104209
0.00105553
0.00106876
0.00108169
0.0010943
0.00110667
0.00111883
0.0011308
0.00114258
0.00115415
0.00116552
0.00117667
0.0011876
0.00119829
0.00120874
0.00121895
0.00122889
0.00123856
0.00124796
0.00125708
0.0012659
0.00127444
0.00128266
0.00129058
0.00129819
0.00130548
0.00131244
0.00131908
0.00132539
0.00133136
0.001337
0.0013423
0.00134725
0.00135187
0.00135613
0.00136006
0.00136364
0.00136688
0.00136978
0.00137234
0.00137455
0.00137643
0.00137798
0.0013792
0.00138009
0.00138065
0.0013809
0.00138083
0.00138046
0.00137978
0.00137881
0.00137755
0.001376
0.00137417
0.00137208
0.00136972
0.00136711
0.00136425
0.00136115
0.00135782
0.00135428
0.00135052
0.00134656
0.0013424
0.00133802
0.00133338
0.00132822
0.00132189
0.00131338
0.00130554
0.00129893
0.00129088
0.00128256
0.00127901
0.00126969
0.00126103
0.00125485
0.00124423
0.00123472
0.0012292
0.00121646
0.00120678
0.00120191
0.00119415
0.00118552
0.00117435
0.00116477
0.0011559
0.00114632
0.0011367
0.00111663
1.30373e-06
3.42475e-05
7.85351e-05
0.000113854
0.000140595
0.000160966
0.000176899
0.000189882
0.000201001
0.000211014
0.000220424
0.00022955
0.000238588
0.000247651
0.000256806
0.000266092
0.000275529
0.000285131
0.000294907
0.000304863
0.000315001
0.000325325
0.000335836
0.000346535
0.000357422
0.000368496
0.000379756
0.0003912
0.000402827
0.000414631
0.000426611
0.000438761
0.000451077
0.000463553
0.000476183
0.00048896
0.000501877
0.000514925
0.000528095
0.000541376
0.000554756
0.000568224
0.000581765
0.000595364
0.000609002
0.000622661
0.000636321
0.000649959
0.000663552
0.000677079
0.000690517
0.000703849
0.000717059
0.000730137
0.000743078
0.00075588
0.000768547
0.000781092
0.000793535
0.00080592
0.000818315
0.000830817
0.00084354
0.000856589
0.00087003
0.000883895
0.00089821
0.000913011
0.000928322
0.000944112
0.000960258
0.000976653
0.000993318
0.00101024
0.00102733
0.0010445
0.00106178
0.00107922
0.00109678
0.00111441
0.00113203
0.00114961
0.0011671
0.00118447
0.00120169
0.00121874
0.00123562
0.00125231
0.00126879
0.00128506
0.00130109
0.00131689
0.00133233
0.00134748
0.00136238
0.00137704
0.00139148
0.00140569
0.00141966
0.00143338
0.00144685
0.00146006
0.00147299
0.00148563
0.00149799
0.00151003
0.00152177
0.00153319
0.00154427
0.00155502
0.00156542
0.00157546
0.00158515
0.00159447
0.00160342
0.00161199
0.00162017
0.00162797
0.00163538
0.0016424
0.00164901
0.00165523
0.00166104
0.00166644
0.00167145
0.00167605
0.00168024
0.00168403
0.00168741
0.0016904
0.00169298
0.00169517
0.00169697
0.00169837
0.00169939
0.00170004
0.0017003
0.0017002
0.00169973
0.0016989
0.00169773
0.00169621
0.00169436
0.00169218
0.00168968
0.00168687
0.00168376
0.00168037
0.00167668
0.00167273
0.00166851
0.00166404
0.00165932
0.00165433
0.00164903
0.00164326
0.00163665
0.00162884
0.00162107
0.00161378
0.0016056
0.00159696
0.00158947
0.00158084
0.00157193
0.00156329
0.0015539
0.00154451
0.00153587
0.00152546
0.00151564
0.00150701
0.00149779
0.00148833
0.00147833
0.00146855
0.0014589
0.00144835
0.00143621
0.00141903
1.58965e-06
3.82869e-05
8.78572e-05
0.000128298
0.000159577
0.000183846
0.000203073
0.000218812
0.000232234
0.000244185
0.000255259
0.000265855
0.000276232
0.000286554
0.00029692
0.000307393
0.000318007
0.000328786
0.000339741
0.000350882
0.000362213
0.000373738
0.00038546
0.000397378
0.000409493
0.000421804
0.000434311
0.000447011
0.000459902
0.00047298
0.000486242
0.000499684
0.000513301
0.000527087
0.000541035
0.00055514
0.000569394
0.000583789
0.000598315
0.000612965
0.000627727
0.000642591
0.000657545
0.000672577
0.000687673
0.00070282
0.000718003
0.000733208
0.000748421
0.000763631
0.000778827
0.000794004
0.000809161
0.000824302
0.000839438
0.000854585
0.000869763
0.000884999
0.000900327
0.000915788
0.000931436
0.000947332
0.00096354
0.000980115
0.000997087
0.00101447
0.00103224
0.00105041
0.00106894
0.00108779
0.0011069
0.00112621
0.00114568
0.00116529
0.00118502
0.00120483
0.00122469
0.0012446
0.0012645
0.00128438
0.00130419
0.0013239
0.00134348
0.00136289
0.00138211
0.00140114
0.00141996
0.00143856
0.00145693
0.00147505
0.00149293
0.00151052
0.00152778
0.00154475
0.00156146
0.00157793
0.00159415
0.00161012
0.00162583
0.00164128
0.00165645
0.00167134
0.00168593
0.00170022
0.00171419
0.00172783
0.00174113
0.00175409
0.0017667
0.00177894
0.0017908
0.00180229
0.00181338
0.00182408
0.00183437
0.00184426
0.00185373
0.00186279
0.00187141
0.00187961
0.00188738
0.00189471
0.0019016
0.00190805
0.00191405
0.00191962
0.00192474
0.00192942
0.00193365
0.00193745
0.0019408
0.00194372
0.00194621
0.00194826
0.00194989
0.00195109
0.00195188
0.00195226
0.00195223
0.00195181
0.00195099
0.00194979
0.00194821
0.00194626
0.00194396
0.0019413
0.0019383
0.00193496
0.00193131
0.00192734
0.00192308
0.00191852
0.00191367
0.00190852
0.00190304
0.00189713
0.00189062
0.00188336
0.00187585
0.0018683
0.00186023
0.00185176
0.00184342
0.00183475
0.00182581
0.00181677
0.00180751
0.00179813
0.00178879
0.00177893
0.0017691
0.00175953
0.00174983
0.00174005
0.00173016
0.00172027
0.00171032
0.00169965
0.00168749
0.0016723
1.81841e-06
4.14494e-05
9.52111e-05
0.000139918
0.000175128
0.000202878
0.000225119
0.000243433
0.000259035
0.000272833
0.000285485
0.000297453
0.000309054
0.000320496
0.000331915
0.000343397
0.000354996
0.000366744
0.000378664
0.000390766
0.00040306
0.00041555
0.000428239
0.000441128
0.000454218
0.000467508
0.000480998
0.000494685
0.000508567
0.000522642
0.000536905
0.000551353
0.000565981
0.000580784
0.000595756
0.000610892
0.000626184
0.000641625
0.000657209
0.000672928
0.000688774
0.000704739
0.000720813
0.00073699
0.000753259
0.000769613
0.000786042
0.000802541
0.000819104
0.000835725
0.000852405
0.000869145
0.000885954
0.000902841
0.000919825
0.000936924
0.000954164
0.000971572
0.000989178
0.00100701
0.00102511
0.0010435
0.00106222
0.00108129
0.00110072
0.0011205
0.00114061
0.00116103
0.00118172
0.00120266
0.00122378
0.00124505
0.00126643
0.0012879
0.00130943
0.00133098
0.00135255
0.00137409
0.00139558
0.00141699
0.00143829
0.00145945
0.00148045
0.00150127
0.00152188
0.00154228
0.00156245
0.00158239
0.00160208
0.00162153
0.00164071
0.00165957
0.00167813
0.00169642
0.00171446
0.00173224
0.00174977
0.00176705
0.00178406
0.0018008
0.00181726
0.00183343
0.00184929
0.00186484
0.00188007
0.00189496
0.0019095
0.00192369
0.00193751
0.00195096
0.00196402
0.00197668
0.00198894
0.00200079
0.00201223
0.00202323
0.00203381
0.00204395
0.00205365
0.0020629
0.0020717
0.00208004
0.00208792
0.00209534
0.00210229
0.00210878
0.00211481
0.00212037
0.00212546
0.00213008
0.00213424
0.00213794
0.00214118
0.00214396
0.00214628
0.00214816
0.0021496
0.00215059
0.00215115
0.00215128
0.002151
0.0021503
0.00214919
0.00214768
0.00214578
0.0021435
0.00214085
0.00213784
0.00213447
0.00213077
0.00212674
0.00212238
0.00211771
0.00211271
0.00210737
0.00210164
0.00209543
0.00208868
0.00208157
0.0020742
0.00206645
0.00205835
0.00205009
0.0020416
0.00203288
0.00202397
0.0020149
0.00200568
0.00199634
0.00198677
0.00197711
0.00196747
0.00195776
0.00194803
0.00193828
0.00192853
0.00191869
0.00190835
0.00189692
0.00188352
1.99538e-06
4.38346e-05
0.000100843
0.000149057
0.000187633
0.000218458
0.00024343
0.000264123
0.000281769
0.000297312
0.000311454
0.000324707
0.000337431
0.000349876
0.000362213
0.000374552
0.000386967
0.000399505
0.000412196
0.000425059
0.000438105
0.000451343
0.000464776
0.000478408
0.000492238
0.000506269
0.000520498
0.000534924
0.000549546
0.00056436
0.000579364
0.000594555
0.000609928
0.000625478
0.000641202
0.000657093
0.000673148
0.00068936
0.000705724
0.000722234
0.000738884
0.00075567
0.000772586
0.000789627
0.000806789
0.000824067
0.000841459
0.000858962
0.000876577
0.000894305
0.00091215
0.000930118
0.00094822
0.00096647
0.000984884
0.00100348
0.00102228
0.00104131
0.00106058
0.00108012
0.00109995
0.00112008
0.00114052
0.00116128
0.00118235
0.00120371
0.00122536
0.00124725
0.00126936
0.00129166
0.0013141
0.00133665
0.00135928
0.00138195
0.00140466
0.00142736
0.00145003
0.00147265
0.00149518
0.00151761
0.00153991
0.00156205
0.00158402
0.0016058
0.00162737
0.00164872
0.00166983
0.00169071
0.00171135
0.00173173
0.00175184
0.00177164
0.00179117
0.00181045
0.00182948
0.00184827
0.00186681
0.0018851
0.00190313
0.00192089
0.00193838
0.00195557
0.00197246
0.00198904
0.00200529
0.00202121
0.00203679
0.002052
0.00206685
0.00208132
0.00209541
0.00210909
0.00212236
0.00213522
0.00214765
0.00215966
0.00217122
0.00218235
0.00219302
0.00220323
0.00221299
0.00222227
0.00223108
0.00223942
0.00224728
0.00225467
0.00226158
0.00226801
0.00227395
0.00227941
0.00228439
0.0022889
0.00229294
0.00229649
0.00229957
0.00230218
0.00230434
0.00230604
0.00230728
0.00230807
0.00230842
0.00230833
0.00230782
0.00230688
0.00230554
0.0023038
0.00230166
0.00229914
0.00229625
0.002293
0.00228939
0.00228544
0.00228115
0.00227652
0.00227154
0.00226619
0.00226042
0.00225421
0.00224761
0.00224068
0.00223339
0.00222579
0.00221793
0.00220983
0.0022015
0.00219296
0.00218423
0.00217534
0.00216628
0.00215706
0.00214772
0.00213833
0.00212889
0.00211943
0.00210999
0.00210056
0.0020911
0.00208134
0.00207084
0.00205904
2.12376e-06
4.55466e-05
0.00010497
0.000155994
0.000197403
0.000230903
0.000258312
0.000281168
0.000300702
0.000317872
0.000333407
0.000347851
0.000361602
0.000374945
0.000388078
0.000401139
0.000414221
0.000427385
0.000440672
0.000454109
0.000467713
0.000481496
0.000495464
0.000509622
0.000523972
0.000538515
0.000553251
0.00056818
0.0005833
0.000598609
0.000614104
0.000629784
0.000645645
0.000661683
0.000677895
0.000694277
0.000710826
0.000727537
0.000744408
0.000761433
0.00077861
0.000795937
0.000813411
0.000831029
0.000848791
0.000866697
0.000884747
0.000902943
0.000921288
0.000939786
0.000958445
0.000977273
0.00099628
0.00101548
0.00103489
0.00105451
0.00107438
0.00109449
0.00111488
0.00113554
0.00115649
0.00117772
0.00119925
0.00122107
0.00124316
0.0012655
0.00128808
0.00131087
0.00133385
0.00135697
0.00138022
0.00140355
0.00142695
0.00145038
0.00147381
0.00149723
0.0015206
0.0015439
0.00156712
0.00159022
0.00161318
0.00163598
0.00165861
0.00168105
0.00170329
0.0017253
0.00174709
0.00176865
0.00178997
0.00181104
0.00183183
0.00185237
0.00187267
0.00189273
0.00191256
0.00193217
0.00195154
0.00197067
0.00198955
0.00200817
0.00202653
0.00204459
0.00206237
0.00207984
0.00209699
0.00211382
0.0021303
0.00214643
0.0021622
0.00217759
0.00219259
0.0022072
0.00222139
0.00223517
0.00224853
0.00226146
0.00227394
0.00228598
0.00229757
0.0023087
0.00231936
0.00232954
0.00233925
0.00234848
0.00235723
0.00236549
0.00237328
0.00238057
0.00238737
0.00239367
0.00239949
0.00240482
0.00240968
0.00241404
0.00241791
0.0024213
0.00242422
0.00242666
0.00242864
0.00243016
0.00243122
0.00243184
0.00243201
0.00243175
0.00243107
0.00242997
0.00242846
0.00242656
0.00242426
0.00242159
0.00241855
0.00241514
0.00241138
0.00240726
0.00240279
0.00239796
0.00239274
0.00238712
0.00238112
0.00237476
0.00236805
0.00236102
0.00235372
0.00234614
0.00233832
0.00233027
0.00232202
0.00231357
0.00230495
0.00229617
0.00228727
0.00227828
0.00226925
0.00226022
0.00225121
0.00224225
0.00223331
0.00222424
0.00221469
0.00220428
2.20787e-06
4.668e-05
0.000107784
0.000160979
0.000204711
0.00024049
0.00027003
0.000294818
0.000316061
0.000334718
0.000351528
0.000367059
0.000381735
0.000395866
0.000409678
0.00042333
0.000436934
0.000450568
0.000464283
0.000478115
0.000492088
0.000506218
0.000520515
0.000534987
0.000549636
0.000564466
0.000579477
0.000594671
0.000610046
0.000625601
0.000641336
0.000657248
0.000673335
0.000689595
0.000706026
0.000722625
0.000739391
0.00075632
0.000773412
0.000790664
0.000808075
0.000825646
0.000843375
0.000861264
0.000879315
0.000897529
0.00091591
0.000934462
0.000953191
0.000972103
0.000991206
0.00101051
0.00103002
0.00104975
0.00106972
0.00108993
0.00111039
0.00113112
0.00115212
0.0011734
0.00119496
0.00121679
0.0012389
0.00126128
0.0012839
0.00130676
0.00132984
0.0013531
0.00137653
0.0014001
0.00142378
0.00144755
0.00147137
0.00149522
0.00151909
0.00154293
0.00156673
0.00159047
0.00161412
0.00163766
0.00166107
0.00168433
0.00170742
0.00173034
0.00175305
0.00177556
0.00179785
0.00181992
0.00184176
0.00186337
0.00188474
0.0019059
0.00192685
0.0019476
0.00196813
0.00198846
0.00200857
0.00202845
0.0020481
0.0020675
0.00208664
0.00210551
0.0021241
0.00214239
0.00216037
0.00217804
0.00219537
0.00221235
0.00222898
0.00224524
0.00226111
0.00227659
0.00229166
0.00230632
0.00232055
0.00233436
0.00234773
0.00236065
0.00237313
0.00238515
0.00239669
0.00240775
0.00241834
0.00242844
0.00243806
0.0024472
0.00245587
0.00246402
0.00247167
0.00247883
0.00248548
0.00249165
0.00249733
0.00250252
0.00250721
0.00251141
0.00251513
0.00251838
0.00252115
0.00252345
0.00252528
0.00252667
0.0025276
0.00252809
0.00252814
0.00252777
0.00252697
0.00252577
0.00252417
0.00252217
0.00251979
0.00251704
0.00251391
0.00251043
0.00250658
0.00250236
0.00249778
0.00249281
0.00248747
0.00248176
0.00247571
0.00246933
0.00246266
0.0024557
0.00244847
0.002441
0.00243331
0.00242541
0.00241732
0.00240906
0.00240067
0.00239219
0.00238367
0.00237514
0.00236665
0.00235824
0.0023499
0.00234153
0.00233288
0.00232367
2.25267e-06
4.73195e-05
0.000109458
0.000164237
0.000209805
0.000247469
0.000278826
0.000305293
0.000328044
0.00034802
0.000365965
0.000382456
0.000397934
0.00041273
0.000427091
0.000441195
0.000455171
0.000469111
0.00048308
0.000497121
0.000511266
0.000525537
0.000539947
0.000554507
0.000569223
0.000584099
0.000599138
0.000614343
0.000629712
0.000645248
0.000660949
0.000676815
0.000692845
0.000709038
0.000725394
0.000741911
0.00075859
0.000775429
0.00079243
0.000809592
0.000826916
0.000844405
0.00086206
0.000879885
0.000897883
0.00091606
0.000934421
0.000952971
0.000971719
0.000990673
0.00100984
0.00102923
0.00104885
0.00106871
0.00108883
0.0011092
0.00112985
0.00115076
0.00117196
0.00119343
0.00121519
0.00123722
0.00125952
0.00128207
0.00130488
0.00132791
0.00135115
0.00137459
0.00139819
0.00142193
0.0014458
0.00146976
0.00149379
0.00151787
0.00154197
0.00156607
0.00159014
0.00161417
0.00163811
0.00166197
0.0016857
0.00170931
0.00173275
0.00175603
0.00177913
0.00180204
0.00182474
0.00184723
0.00186951
0.00189161
0.00191353
0.00193528
0.00195685
0.00197824
0.00199945
0.00202047
0.00204128
0.00206189
0.00208228
0.00210243
0.00212233
0.00214198
0.00216135
0.00218044
0.00219922
0.0022177
0.00223585
0.00225367
0.00227113
0.00228823
0.00230496
0.00232128
0.00233721
0.00235273
0.00236782
0.00238249
0.00239672
0.00241052
0.00242387
0.00243677
0.00244918
0.00246112
0.00247258
0.00248355
0.00249404
0.00250404
0.00251356
0.00252258
0.0025311
0.00253911
0.00254664
0.00255366
0.00256019
0.00256623
0.00257177
0.00257682
0.00258139
0.00258548
0.00258908
0.00259221
0.00259488
0.00259708
0.00259883
0.00260013
0.00260098
0.0026014
0.0026014
0.00260097
0.00260014
0.0025989
0.00259727
0.00259525
0.00259285
0.00259008
0.00258694
0.00258343
0.00257955
0.0025753
0.00257068
0.00256569
0.00256036
0.00255469
0.00254871
0.00254243
0.00253587
0.00252905
0.00252198
0.00251469
0.0025072
0.00249954
0.00249173
0.00248383
0.00247587
0.00246791
0.00246
0.00245218
0.00244446
0.00243679
0.00242897
0.00242078
2.26351e-06
4.75404e-05
0.000110146
0.00016597
0.000212909
0.000252067
0.000284912
0.000312784
0.000336809
0.000357906
0.000376809
0.000394099
0.000410224
0.000425532
0.000440283
0.000454673
0.000468845
0.000482904
0.000496925
0.000510963
0.000525056
0.000539232
0.000553509
0.000567901