/*--------------------------------*- C++ -*----------------------------------*\
  =========                 |
  \\      /  F ield         | OpenFOAM: The Open Source CFD Toolbox
   \\    /   O peration     | Website:  https://openfoam.org
    \\  /    A nd           | Version:  7
     \\/     M anipulation  |
\*---------------------------------------------------------------------------*/
FoamFile
{
    version     2.0;
    format      ascii;
    class       surfaceScalarField;
    location    "0.26";
    object      phi;
}
// * * * * * * * * * * * * * * * * * * * * * * * * * * * * * * * * * * * * * //

dimensions      [0 3 -1 0 0 0 0];

internalField   nonuniform List<scalar> 
24170
(
1.42871e-06
1.65495e-07
1.33476e-06
9.39446e-08
1.25537e-06
7.93979e-08
1.18987e-06
6.54982e-08
1.13934e-06
5.05292e-08
1.09999e-06
3.93505e-08
1.06889e-06
3.10953e-08
1.04401e-06
2.4881e-08
1.02378e-06
2.02326e-08
1.00697e-06
1.68096e-08
9.92707e-07
1.42622e-08
9.80405e-07
1.23017e-08
9.69668e-07
1.0737e-08
9.60207e-07
9.46149e-09
9.5183e-07
8.37718e-09
9.44262e-07
7.56808e-09
9.37529e-07
6.7325e-09
7.11292e-09
9.30416e-07
1.67172e-06
2.02402e-07
1.63059e-06
1.35076e-07
1.58829e-06
1.21688e-07
1.55016e-06
1.03632e-07
1.51646e-06
8.42276e-08
1.4863e-06
6.95128e-08
1.45917e-06
5.82245e-08
1.43501e-06
4.90469e-08
1.41365e-06
4.15875e-08
1.39483e-06
3.56315e-08
1.37822e-06
3.08685e-08
1.36353e-06
2.69944e-08
1.35048e-06
2.37831e-08
1.33885e-06
2.10929e-08
1.32845e-06
1.87761e-08
1.3191e-06
1.69219e-08
1.31079e-06
1.50442e-08
1.45926e-08
1.30331e-06
1.78132e-06
2.52338e-07
1.75687e-06
1.59531e-07
1.73622e-06
1.42332e-07
1.71737e-06
1.22488e-07
1.69924e-06
1.02352e-07
1.68164e-06
8.71116e-08
1.66466e-06
7.52054e-08
1.64858e-06
6.51349e-08
1.63357e-06
5.65944e-08
1.61971e-06
4.94898e-08
1.60699e-06
4.35866e-08
1.59536e-06
3.86225e-08
1.58475e-06
3.4394e-08
1.57508e-06
3.07652e-08
1.56626e-06
2.76012e-08
1.55827e-06
2.49106e-08
1.55094e-06
2.23741e-08
2.0551e-08
1.54498e-06
1.91834e-06
2.96689e-07
1.89273e-06
1.85144e-07
1.87641e-06
1.58648e-07
1.86341e-06
1.35492e-07
1.8516e-06
1.14162e-07
1.8405e-06
9.82083e-08
1.82994e-06
8.57701e-08
1.81987e-06
7.52004e-08
1.81034e-06
6.61319e-08
1.80136e-06
5.8467e-08
1.79296e-06
5.1988e-08
1.78513e-06
4.64504e-08
1.77786e-06
4.16644e-08
1.77113e-06
3.74974e-08
1.7649e-06
3.38286e-08
1.75921e-06
3.06047e-08
1.75394e-06
2.76429e-08
2.50147e-08
1.74947e-06
2.0682e-06
3.32049e-07
2.04092e-06
2.1243e-07
2.02436e-06
1.75207e-07
2.01238e-06
1.47472e-07
2.00254e-06
1.24e-07
1.99409e-06
1.06663e-07
1.98657e-06
9.32914e-08
1.97969e-06
8.20727e-08
1.97334e-06
7.24892e-08
1.96744e-06
6.4365e-08
1.96197e-06
5.74589e-08
1.9569e-06
5.15214e-08
1.9522e-06
4.63609e-08
1.94786e-06
4.18388e-08
1.94385e-06
3.78366e-08
1.94019e-06
3.42664e-08
1.93682e-06
3.10113e-08
2.79805e-08
1.93385e-06
2.22664e-06
3.59952e-07
2.19981e-06
2.39258e-07
2.18266e-06
1.92363e-07
2.1704e-06
1.59728e-07
2.16085e-06
1.33552e-07
2.1532e-06
1.14309e-07
2.14688e-06
9.96084e-08
2.14147e-06
8.74846e-08
2.13672e-06
7.72411e-08
2.1325e-06
6.85892e-08
2.12872e-06
6.12389e-08
2.12532e-06
5.49199e-08
2.12225e-06
4.94265e-08
2.11948e-06
4.46065e-08
2.11699e-06
4.03355e-08
2.11475e-06
3.65064e-08
2.11273e-06
3.30272e-08
2.97725e-08
2.11094e-06
2.39441e-06
3.81901e-07
2.36954e-06
2.64126e-07
2.35227e-06
2.09641e-07
2.33954e-06
1.72459e-07
2.32968e-06
1.4341e-07
2.32204e-06
1.21949e-07
2.31603e-06
1.05618e-07
2.31116e-06
9.23502e-08
2.30713e-06
8.12751e-08
2.30374e-06
7.19804e-08
2.30086e-06
6.41142e-08
2.29841e-06
5.7374e-08
2.2963e-06
5.15312e-08
2.29449e-06
4.64152e-08
2.29294e-06
4.18897e-08
2.29161e-06
3.78356e-08
2.29047e-06
3.41655e-08
3.07587e-08
2.28949e-06
2.57276e-06
3.9893e-07
2.55055e-06
2.8634e-07
2.53371e-06
2.2648e-07
2.52074e-06
1.85424e-07
2.51052e-06
1.53628e-07
2.50262e-06
1.29849e-07
2.49653e-06
1.11711e-07
2.49176e-06
9.71229e-08
2.48797e-06
8.50672e-08
2.48493e-06
7.50146e-08
2.4825e-06
6.65488e-08
2.48054e-06
5.93288e-08
2.47897e-06
5.30983e-08
2.47773e-06
4.76646e-08
2.47674e-06
4.2876e-08
2.47597e-06
3.86039e-08
2.47538e-06
3.47557e-08
3.1222e-08
2.47492e-06
2.76268e-06
4.11914e-07
2.74337e-06
3.05657e-07
2.72747e-06
2.42374e-07
2.71469e-06
1.98208e-07
2.70433e-06
1.63987e-07
2.6962e-06
1.37975e-07
2.68993e-06
1.17986e-07
2.68507e-06
1.01983e-07
2.68129e-06
8.88445e-08
2.67836e-06
7.79434e-08
2.67611e-06
6.8804e-08
2.67439e-06
6.10468e-08
2.6731e-06
5.43859e-08
2.67216e-06
4.8605e-08
2.6715e-06
4.35358e-08
2.67107e-06
3.90392e-08
2.67081e-06
3.50142e-08
3.13583e-08
2.67067e-06
2.96513e-06
4.21677e-07
2.94871e-06
3.22069e-07
2.93416e-06
2.56927e-07
2.92199e-06
2.10383e-07
2.91183e-06
1.74141e-07
2.90369e-06
1.46117e-07
2.89733e-06
1.24349e-07
2.89238e-06
1.06925e-07
2.88856e-06
9.26636e-08
2.88564e-06
8.08629e-08
2.88345e-06
7.10007e-08
2.88183e-06
6.26638e-08
2.88068e-06
5.55377e-08
2.8799e-06
4.93835e-08
2.87942e-06
4.40157e-08
2.87918e-06
3.92844e-08
2.87911e-06
3.50782e-08
3.12967e-08
2.87917e-06
3.18114e-06
4.28942e-07
3.1675e-06
3.35712e-07
3.15452e-06
2.69902e-07
3.1433e-06
2.21604e-07
3.13371e-06
1.83732e-07
3.12585e-06
1.53983e-07
3.1196e-06
1.30596e-07
3.11471e-06
1.11818e-07
3.11092e-06
9.64534e-08
3.10803e-06
8.37497e-08
3.10588e-06
7.31505e-08
3.10433e-06
6.4216e-08
3.10326e-06
5.66074e-08
3.10258e-06
5.00654e-08
3.1022e-06
4.43884e-08
3.10207e-06
3.94155e-08
3.10213e-06
3.50243e-08
3.11136e-08
3.10231e-06
2.86573e-06
4.33625e-07
2.85621e-06
3.45231e-07
2.84652e-06
2.79593e-07
2.83793e-06
2.30195e-07
2.8305e-06
1.91166e-07
2.8243e-06
1.60184e-07
2.81931e-06
1.35588e-07
2.81537e-06
1.15756e-07
2.81231e-06
9.95109e-08
2.80998e-06
8.60756e-08
2.80826e-06
7.48716e-08
2.80704e-06
6.54414e-08
2.80622e-06
5.74299e-08
2.80572e-06
5.0563e-08
2.80548e-06
4.46268e-08
2.80544e-06
3.94511e-08
2.80556e-06
3.49071e-08
3.08811e-08
2.80579e-06
3.49499e-06
4.37715e-07
3.48606e-06
3.54159e-07
3.47656e-06
2.89095e-07
3.46792e-06
2.38834e-07
3.46033e-06
1.98751e-07
3.45394e-06
1.66579e-07
3.44875e-06
1.40773e-07
3.44465e-06
1.19859e-07
3.44147e-06
1.02694e-07
3.43906e-06
8.84835e-08
3.4373e-06
7.66316e-08
3.43607e-06
6.66666e-08
3.43529e-06
5.82182e-08
3.43485e-06
5.09981e-08
3.4347e-06
4.47801e-08
3.43476e-06
3.93843e-08
3.435e-06
3.46728e-08
3.05246e-08
3.43536e-06
4.26204e-06
4.41101e-07
4.25417e-06
3.62027e-07
4.24539e-06
2.97874e-07
4.23725e-06
2.4698e-07
4.23004e-06
2.05959e-07
4.22393e-06
1.72686e-07
4.21898e-06
1.45723e-07
4.21509e-06
1.23747e-07
4.21212e-06
1.05667e-07
4.20992e-06
9.06804e-08
4.20838e-06
7.81767e-08
4.20737e-06
6.76722e-08
4.20681e-06
5.87832e-08
4.2066e-06
5.12077e-08
4.20667e-06
4.47077e-08
4.20696e-06
3.90931e-08
4.20742e-06
3.42162e-08
2.9951e-08
4.20799e-06
5.19701e-06
4.43696e-07
5.19069e-06
3.68353e-07
5.1833e-06
3.05259e-07
5.17636e-06
2.53922e-07
5.17025e-06
2.12068e-07
5.16513e-06
1.7781e-07
5.16106e-06
1.49794e-07
5.15797e-06
1.2683e-07
5.15575e-06
1.07893e-07
5.15425e-06
9.21813e-08
5.15335e-06
7.90718e-08
5.15295e-06
6.80699e-08
5.15296e-06
5.87794e-08
5.15328e-06
5.08855e-08
5.15385e-06
4.4138e-08
5.15461e-06
3.83369e-08
5.1555e-06
3.33243e-08
2.89697e-08
5.15648e-06
6.33668e-06
4.45413e-07
6.3324e-06
3.72636e-07
6.32727e-06
3.1038e-07
6.32252e-06
2.58677e-07
6.31852e-06
2.16069e-07
6.31537e-06
1.80956e-07
6.31312e-06
1.52049e-07
6.3117e-06
1.28243e-07
6.31102e-06
1.08579e-07
6.31094e-06
9.22618e-08
6.31135e-06
7.86593e-08
6.31216e-06
6.72642e-08
6.31327e-06
5.76684e-08
6.31461e-06
4.95447e-08
6.31612e-06
4.26313e-08
6.31773e-06
3.67181e-08
6.31942e-06
3.16374e-08
2.72548e-08
6.32114e-06
7.72591e-06
4.46091e-07
7.72435e-06
3.74197e-07
7.7227e-06
3.12034e-07
7.72158e-06
2.59791e-07
7.72119e-06
2.1646e-07
7.72151e-06
1.8064e-07
7.72249e-06
1.5107e-07
7.72405e-06
1.26676e-07
7.7261e-06
1.0653e-07
7.72852e-06
8.98418e-08
7.73122e-06
7.59645e-08
7.7341e-06
6.43766e-08
7.73712e-06
5.4658e-08
7.74019e-06
4.647e-08
7.74328e-06
3.95402e-08
7.74635e-06
3.36494e-08
7.74937e-06
2.86214e-08
2.43186e-08
7.7523e-06
9.41956e-06
4.45349e-07
9.42195e-06
3.71811e-07
9.42572e-06
3.08257e-07
9.43061e-06
2.54905e-07
9.43628e-06
2.10792e-07
9.44245e-06
1.74467e-07
9.44893e-06
1.44588e-07
9.45557e-06
1.20035e-07
9.46225e-06
9.98517e-08
9.46887e-06
8.32211e-08
9.47537e-06
6.94691e-08
9.48169e-06
5.8054e-08
9.48781e-06
4.8542e-08
9.49369e-06
4.05841e-08
9.49933e-06
3.38998e-08
9.50472e-06
2.82638e-08
9.50985e-06
2.3495e-08
1.94552e-08
9.51471e-06
1.1485e-05
4.42021e-07
1.14942e-05
3.62615e-07
1.15074e-05
2.9509e-07
1.15226e-05
2.39641e-07
1.15387e-05
1.9471e-07
1.15549e-05
1.58289e-07
1.15707e-05
1.28746e-07
1.15859e-05
1.04811e-07
1.16004e-05
8.54036e-08
1.1614e-05
6.96097e-08
1.16268e-05
5.67002e-08
1.16387e-05
4.61062e-08
1.16499e-05
3.73792e-08
1.16603e-05
3.01626e-08
1.167e-05
2.41726e-08
1.16791e-05
1.91839e-08
1.16876e-05
1.50169e-08
1.15374e-08
1.16955e-05
8.41017e-06
4.37201e-07
8.4229e-06
3.49889e-07
8.44028e-06
2.77713e-07
8.4594e-06
2.20517e-07
8.47869e-06
1.75419e-07
8.49745e-06
1.39535e-07
8.51525e-06
1.10941e-07
8.53186e-06
8.82041e-08
8.54719e-06
7.00714e-08
8.56128e-06
5.55175e-08
8.57421e-06
4.37707e-08
8.58607e-06
3.42498e-08
8.59695e-06
2.65025e-08
8.60693e-06
2.01735e-08
8.61612e-06
1.49851e-08
8.62459e-06
1.07199e-08
8.6324e-06
7.20621e-09
4.31759e-09
8.63962e-06
7.32399e-06
4.3049e-07
7.34145e-06
3.32436e-07
7.36413e-06
2.55034e-07
7.38788e-06
1.96765e-07
7.41105e-06
1.52247e-07
7.43306e-06
1.17526e-07
7.4535e-06
9.05032e-08
7.47216e-06
6.95433e-08
7.48907e-06
5.31578e-08
7.50438e-06
4.02133e-08
7.51822e-06
2.9923e-08
7.53076e-06
2.17108e-08
7.54213e-06
1.51302e-08
7.55247e-06
9.83639e-09
7.56189e-06
5.56578e-09
7.57049e-06
2.11572e-09
7.57837e-06
-6.72466e-10
-2.91449e-09
7.58561e-06
6.37934e-06
4.21214e-07
6.40241e-06
3.09371e-07
6.43033e-06
2.2711e-07
6.45792e-06
1.6918e-07
6.484e-06
1.26162e-07
6.50826e-06
9.32641e-08
6.5303e-06
6.84633e-08
6.55002e-06
4.98284e-08
6.56759e-06
3.55836e-08
6.58327e-06
2.45327e-08
6.59728e-06
1.59153e-08
6.60981e-06
9.17653e-09
6.62106e-06
3.88556e-09
6.63118e-06
-2.82019e-10
6.64031e-06
-3.56737e-09
6.64858e-06
-6.15269e-09
6.65609e-06
-8.17941e-09
-9.75001e-09
6.66292e-06
5.55841e-06
4.0827e-07
5.58816e-06
2.79623e-07
5.62106e-06
1.9421e-07
5.6516e-06
1.38634e-07
5.67969e-06
9.80747e-08
5.70521e-06
6.77393e-08
5.72781e-06
4.58685e-08
5.74757e-06
3.00634e-08
5.76489e-06
1.82729e-08
5.78009e-06
9.32578e-09
5.79348e-06
2.52854e-09
5.80529e-06
-2.63958e-09
5.81576e-06
-6.58129e-09
5.82507e-06
-9.58879e-09
5.83337e-06
-1.18726e-08
5.84081e-06
-1.35898e-08
5.84749e-06
-1.4861e-08
-1.5773e-08
5.85352e-06
4.84593e-06
3.89943e-07
4.88334e-06
2.42218e-07
4.92031e-06
1.57245e-07
4.95262e-06
1.06315e-07
4.98161e-06
6.90843e-08
5.0072e-06
4.21535e-08
5.02914e-06
2.39248e-08
5.04787e-06
1.13404e-08
5.06395e-06
2.19326e-09
5.07782e-06
-4.55053e-09
5.08983e-06
-9.4825e-09
5.10027e-06
-1.30745e-08
5.10937e-06
-1.56863e-08
5.11735e-06
-1.75668e-08
5.12437e-06
-1.889e-08
5.13056e-06
-1.97847e-08
5.13605e-06
-2.03479e-08
-2.06501e-08
5.14093e-06
4.22832e-06
3.64294e-07
4.27411e-06
1.96433e-07
4.31341e-06
1.17948e-07
4.34584e-06
7.38795e-08
4.37431e-06
4.06191e-08
4.39859e-06
1.78681e-08
4.41871e-06
3.81025e-09
4.43543e-06
-5.38064e-09
4.44948e-06
-1.18599e-08
4.46136e-06
-1.64275e-08
4.47143e-06
-1.95524e-08
4.48e-06
-2.16436e-08
4.48732e-06
-2.3006e-08
4.49359e-06
-2.38394e-08
4.49898e-06
-2.42796e-08
4.50362e-06
-2.44269e-08
4.50763e-06
-2.43545e-08
-2.4119e-08
4.5111e-06
3.69254e-06
3.30394e-07
3.74698e-06
1.41998e-07
3.78676e-06
7.81702e-08
3.81773e-06
4.29078e-08
3.84418e-06
1.4164e-08
3.86591e-06
-3.85964e-09
3.88327e-06
-1.35452e-08
3.89729e-06
-1.94044e-08
3.90874e-06
-2.3311e-08
3.91811e-06
-2.57991e-08
3.92578e-06
-2.722e-08
3.93205e-06
-2.79142e-08
3.93717e-06
-2.81267e-08
3.94134e-06
-2.80079e-08
3.94472e-06
-2.76563e-08
3.94743e-06
-2.71451e-08
3.9496e-06
-2.65234e-08
-2.58347e-08
3.95132e-06
3.22816e-06
2.87262e-07
3.28932e-06
8.08436e-08
3.32809e-06
3.94016e-08
3.35682e-06
1.41738e-08
3.38011e-06
-9.12048e-09
3.39818e-06
-2.19351e-08
3.41191e-06
-2.72762e-08
3.42246e-06
-2.99502e-08
3.43054e-06
-3.13898e-08
3.43663e-06
-3.1889e-08
3.44111e-06
-3.17037e-08
3.4443e-06
-3.11071e-08
3.44646e-06
-3.02812e-08
3.44778e-06
-2.93253e-08
3.44842e-06
-2.82995e-08
3.44852e-06
-2.72492e-08
3.4482e-06
-2.61994e-08
-2.51853e-08
3.44755e-06
2.8341e-06
2.2589e-07
2.8927e-06
2.22516e-08
2.92688e-06
5.21728e-09
2.9523e-06
-1.12445e-08
2.97131e-06
-2.81281e-08
2.9844e-06
-3.50268e-08
2.99304e-06
-3.59217e-08
2.99835e-06
-3.52569e-08
3.00114e-06
-3.41767e-08
3.002e-06
-3.27484e-08
3.0014e-06
-3.11041e-08
2.9997e-06
-2.94131e-08
2.99719e-06
-2.77706e-08
2.99408e-06
-2.62101e-08
2.99052e-06
-2.47439e-08
2.98666e-06
-2.33875e-08
2.9826e-06
-2.21411e-08
-2.10195e-08
2.97844e-06
2.52607e-06
1.13625e-07
2.5595e-06
-1.11787e-08
2.57814e-06
-1.34285e-08
2.59238e-06
-2.54846e-08
2.60109e-06
-3.68382e-08
2.60364e-06
-3.75727e-08
2.60136e-06
-3.36458e-08
2.59576e-06
-2.96514e-08
2.58801e-06
-2.64301e-08
2.57901e-06
-2.37442e-08
2.56934e-06
-2.14308e-08
2.55936e-06
-1.9442e-08
2.54933e-06
-1.77355e-08
2.53938e-06
-1.62606e-08
2.52961e-06
-1.49772e-08
2.5201e-06
-1.38747e-08
2.51092e-06
-1.29597e-08
-1.24905e-08
2.50239e-06
2.21496e-06
2.20378e-06
2.19036e-06
2.16487e-06
2.12803e-06
2.09046e-06
2.05681e-06
2.02716e-06
2.00073e-06
1.97699e-06
1.95556e-06
1.93612e-06
1.91838e-06
1.90212e-06
1.88714e-06
1.87327e-06
1.86031e-06
1.84782e-06
6.14505e-09
-6.14505e-09
1.3723e-08
-7.57795e-09
1.91222e-08
-5.39918e-09
2.14435e-08
-2.32128e-09
2.06311e-08
8.12376e-10
1.71938e-08
3.43732e-09
1.17115e-08
5.48229e-09
4.72428e-09
6.98719e-09
-3.37018e-09
8.09445e-09
-1.23217e-08
8.95151e-09
-2.19843e-08
9.66267e-09
-3.22751e-08
1.02907e-08
-4.3148e-08
1.08729e-08
-5.45756e-08
1.14276e-08
-6.65385e-08
1.19629e-08
-7.90198e-08
1.24813e-08
-9.20025e-08
1.29827e-08
-1.05469e-07
1.34665e-08
-1.19401e-07
1.39318e-08
-1.33779e-07
1.43779e-08
-1.48583e-07
1.48045e-08
-1.63795e-07
1.52116e-08
-1.79394e-07
1.55996e-08
-1.95363e-07
1.59689e-08
-2.11683e-07
1.63201e-08
-2.28338e-07
1.66542e-08
-2.4531e-07
1.6972e-08
-2.62584e-07
1.72743e-08
-2.80146e-07
1.75621e-08
-2.97982e-07
1.7836e-08
-3.16079e-07
1.80968e-08
-3.34424e-07
1.8345e-08
-3.53005e-07
1.85812e-08
-3.71811e-07
1.88058e-08
-3.9083e-07
1.90191e-08
-4.10051e-07
1.92213e-08
-4.29464e-07
1.94126e-08
-4.49057e-07
1.95933e-08
-4.68821e-07
1.97634e-08
-4.88743e-07
1.99229e-08
-5.08815e-07
2.00718e-08
-5.29025e-07
2.02096e-08
-5.49361e-07
2.03359e-08
-5.69811e-07
2.04501e-08
-5.90362e-07
2.05512e-08
-6.11e-07
2.06385e-08
-6.31711e-07
2.07109e-08
-6.52479e-07
2.07678e-08
-6.73288e-07
2.08086e-08
-6.94121e-07
2.08331e-08
-7.14962e-07
2.08412e-08
-7.35795e-07
2.08332e-08
-7.56604e-07
2.08091e-08
-7.77373e-07
2.07687e-08
-7.98083e-07
2.07101e-08
-8.18711e-07
2.06278e-08
-8.39222e-07
2.05113e-08
-8.59572e-07
2.03499e-08
-8.79725e-07
2.0153e-08
-8.99702e-07
1.99774e-08
-9.19616e-07
1.99137e-08
-9.39601e-07
1.9985e-08
-9.59564e-07
1.99633e-08
-9.7901e-07
1.94453e-08
-9.97751e-07
1.8741e-08
-1.01652e-06
1.87723e-08
-1.03634e-06
1.98212e-08
-1.05681e-06
2.04611e-08
-1.0772e-06
2.03933e-08
-1.09582e-06
1.86218e-08
-1.10794e-06
1.21202e-08
-1.1216e-06
1.36625e-08
-1.14469e-06
2.30917e-08
-1.16301e-06
1.83162e-08
-1.1767e-06
1.36862e-08
-1.19272e-06
1.60181e-08
-1.20594e-06
1.3225e-08
-1.22191e-06
1.59679e-08
-1.2401e-06
1.81889e-08
-1.24989e-06
9.7948e-09
-1.26233e-06
1.24355e-08
-1.27567e-06
1.33474e-08
-1.28164e-06
5.96573e-09
-1.28915e-06
7.51289e-09
-1.29659e-06
7.43504e-09
-1.30361e-06
7.01969e-09
-1.30998e-06
6.37336e-09
-1.31559e-06
5.60723e-09
-1.32035e-06
4.76354e-09
-1.32421e-06
3.85912e-09
-1.32711e-06
2.89716e-09
-1.32899e-06
1.87816e-09
-1.32979e-06
8.0503e-10
-1.32951e-06
-2.82491e-10
-1.32832e-06
-1.18526e-09
-1.32627e-06
-2.05517e-09
-1.32336e-06
-2.90677e-09
-1.31961e-06
-3.75239e-09
-1.31501e-06
-4.59833e-09
-1.30957e-06
-5.44578e-09
-1.30327e-06
-6.29445e-09
-1.29613e-06
-7.1434e-09
-1.28814e-06
-7.99137e-09
-1.2793e-06
-8.83713e-09
-1.26962e-06
-9.67929e-09
-1.2591e-06
-1.05166e-08
-1.24776e-06
-1.13476e-08
-1.23558e-06
-1.21711e-08
-1.2226e-06
-1.29858e-08
-1.20881e-06
-1.37903e-08
-1.19422e-06
-1.45836e-08
-1.17886e-06
-1.53642e-08
-1.16273e-06
-1.61311e-08
-1.14585e-06
-1.68832e-08
-1.12823e-06
-1.76192e-08
-1.10989e-06
-1.83383e-08
-1.09085e-06
-1.90394e-08
-1.07113e-06
-1.97216e-08
-1.05074e-06
-2.0384e-08
-1.02972e-06
-2.10255e-08
-1.00807e-06
-2.16455e-08
-9.85829e-07
-2.22432e-08
-9.63012e-07
-2.28177e-08
-9.39643e-07
-2.33686e-08
-9.15748e-07
-2.38953e-08
-8.9135e-07
-2.43973e-08
-8.66476e-07
-2.48742e-08
-8.41151e-07
-2.53256e-08
-8.154e-07
-2.57511e-08
-7.89249e-07
-2.61506e-08
-7.62725e-07
-2.6524e-08
-7.35854e-07
-2.68712e-08
-7.08661e-07
-2.71923e-08
-6.81174e-07
-2.74871e-08
-6.53418e-07
-2.77559e-08
-6.2542e-07
-2.79988e-08
-5.97203e-07
-2.82162e-08
-5.68795e-07
-2.84084e-08
-5.40219e-07
-2.85758e-08
-5.115e-07
-2.87187e-08
-4.82663e-07
-2.88377e-08
-4.53729e-07
-2.89333e-08
-4.24723e-07
-2.90062e-08
-3.95666e-07
-2.90568e-08
-3.66581e-07
-2.90858e-08
-3.37487e-07
-2.90939e-08
-3.08405e-07
-2.90817e-08
-2.79355e-07
-2.90499e-08
-2.50356e-07
-2.8999e-08
-2.21426e-07
-2.893e-08
-1.92582e-07
-2.88441e-08
-1.63838e-07
-2.87439e-08
-1.35203e-07
-2.86348e-08
-1.06676e-07
-2.85275e-08
-7.82127e-08
-2.8463e-08
-4.96943e-08
-2.85184e-08
-2.11411e-08
-2.85532e-08
7.39578e-09
-2.85369e-08
3.55384e-08
-2.81426e-08
6.29706e-08
-2.74322e-08
8.96367e-08
-2.66661e-08
1.16769e-07
-2.7132e-08
1.44214e-07
-2.74456e-08
1.70623e-07
-2.6409e-08
1.96965e-07
-2.6342e-08
2.22755e-07
-2.57902e-08
2.48184e-07
-2.54282e-08
2.74266e-07
-2.60819e-08
2.99225e-07
-2.49597e-08
3.23666e-07
-2.44409e-08
3.48509e-07
-2.4843e-08
3.73194e-07
-2.46849e-08
3.98169e-07
-2.49747e-08
4.22867e-07
-2.46979e-08
4.46985e-07
-2.41186e-08
4.69761e-07
-2.27753e-08
4.90255e-07
-2.04946e-08
5.0804e-07
-1.77845e-08
5.16391e-07
-8.35134e-09
1.46678e-08
5.01723e-07
4.01981e-09
-1.01649e-08
5.17459e-09
-8.73273e-09
3.46264e-09
-3.68724e-09
-2.7303e-10
1.4144e-09
-5.54843e-09
6.08777e-09
-1.22601e-08
1.0149e-08
-2.03166e-08
1.35388e-08
-2.96172e-08
1.62878e-08
-4.00185e-08
1.84958e-08
-5.13568e-08
2.02897e-08
-6.34816e-08
2.17875e-08
-7.6271e-08
2.30802e-08
-8.963e-08
2.42319e-08
-1.03486e-07
2.52837e-08
-1.17784e-07
2.62609e-08
-1.32481e-07
2.71781e-08
-1.47542e-07
2.8044e-08
-1.62939e-07
2.88636e-08
-1.78648e-07
2.96402e-08
-1.94646e-07
3.03764e-08
-2.10916e-07
3.10742e-08
-2.2744e-07
3.17357e-08
-2.44203e-07
3.2363e-08
-2.61193e-07
3.29581e-08
-2.78396e-07
3.35231e-08
-2.95801e-07
3.406e-08
-3.134e-07
3.45708e-08
-3.31183e-07
3.50571e-08
-3.49142e-07
3.55207e-08
-3.67268e-07
3.59629e-08
-3.85556e-07
3.63848e-08
-4.03999e-07
3.67874e-08
-4.22589e-07
3.71714e-08
-4.41321e-07
3.75373e-08
-4.60187e-07
3.78856e-08
-4.79182e-07
3.82163e-08
-4.98299e-07
3.85295e-08
-5.17531e-07
3.88253e-08
-5.36871e-07
3.91036e-08
-5.56312e-07
3.93639e-08
-5.75846e-07
3.96057e-08
-5.95465e-07
3.98284e-08
-6.1516e-07
4.00309e-08
-6.34922e-07
4.02119e-08
-6.5474e-07
4.03701e-08
-6.74606e-07
4.05041e-08
-6.94508e-07
4.06127e-08
-7.14435e-07
4.06949e-08
-7.34377e-07
4.07504e-08
-7.54323e-07
4.07789e-08
-7.74262e-07
4.07808e-08
-7.94186e-07
4.07568e-08
-8.14084e-07
4.07073e-08
-8.33947e-07
4.06318e-08
-8.53765e-07
4.05282e-08
-8.73529e-07
4.03915e-08
-8.93233e-07
4.02149e-08
-9.12879e-07
3.99962e-08
-9.32475e-07
3.97495e-08
-9.5201e-07
3.95119e-08
-9.71419e-07
3.93226e-08
-9.90593e-07
3.91588e-08
-1.00949e-06
3.8864e-08
-1.02831e-06
3.82659e-08
-1.04713e-06
3.75589e-08
-1.06554e-06
3.71829e-08
-1.08281e-06
3.70868e-08
-1.099e-06
3.6657e-08
-1.11426e-06
3.56515e-08
-1.12959e-06
3.395e-08
-1.14883e-06
3.13579e-08
-1.16586e-06
3.06962e-08
-1.1751e-06
3.23312e-08
-1.1874e-06
3.0611e-08
-1.20169e-06
2.79777e-08
-1.21269e-06
2.70226e-08
-1.22481e-06
2.5344e-08
-1.23355e-06
2.47113e-08
-1.23923e-06
2.3864e-08
-1.24992e-06
2.04818e-08
-1.2565e-06
1.90214e-08
-1.26088e-06
1.77255e-08
-1.26971e-06
1.47912e-08
-1.27577e-06
1.35807e-08
-1.28067e-06
1.2331e-08
-1.28462e-06
1.0973e-08
-1.28776e-06
9.51218e-09
-1.29013e-06
7.97194e-09
-1.29174e-06
6.37244e-09
-1.2926e-06
4.72726e-09
-1.29275e-06
3.04844e-09
-1.29223e-06
1.35211e-09
-1.29109e-06
-3.34248e-10
-1.28935e-06
-2.02115e-09
-1.28687e-06
-3.66424e-09
-1.28361e-06
-5.31724e-09
-1.27954e-06
-6.97944e-09
-1.27464e-06
-8.649e-09
-1.26891e-06
-1.03254e-08
-1.26235e-06
-1.20068e-08
-1.25496e-06
-1.36914e-08
-1.24672e-06
-1.53767e-08
-1.23765e-06
-1.70601e-08
-1.22775e-06
-1.87389e-08
-1.21702e-06
-2.04106e-08
-1.20546e-06
-2.20724e-08
-1.19309e-06
-2.37218e-08
-1.17991e-06
-2.53562e-08
-1.16592e-06
-2.69728e-08
-1.15114e-06
-2.85694e-08
-1.13558e-06
-3.01433e-08
-1.11925e-06
-3.16921e-08
-1.10217e-06
-3.32135e-08
-1.08435e-06
-3.47052e-08
-1.0658e-06
-3.61651e-08
-1.04655e-06
-3.75911e-08
-1.02661e-06
-3.89813e-08
-1.00599e-06
-4.03337e-08
-9.84732e-07
-4.16465e-08
-9.6284e-07
-4.2918e-08
-9.40339e-07
-4.41465e-08
-9.17252e-07
-4.53304e-08
-8.93601e-07
-4.64684e-08
-8.6941e-07
-4.75592e-08
-8.44704e-07
-4.86017e-08
-8.19506e-07
-4.95951e-08
-7.93842e-07
-5.05384e-08
-7.67737e-07
-5.14309e-08
-7.41216e-07
-5.22719e-08
-7.14305e-07
-5.3061e-08
-6.87031e-07
-5.3798e-08
-6.5942e-07
-5.44827e-08
-6.31497e-07
-5.51152e-08
-6.03289e-07
-5.56955e-08
-5.74821e-07
-5.62238e-08
-5.46119e-07
-5.67004e-08
-5.17209e-07
-5.71261e-08
-4.88116e-07
-5.75015e-08
-4.58865e-07
-5.78272e-08
-4.29479e-07
-5.81042e-08
-3.99983e-07
-5.83334e-08
-3.70401e-07
-5.8516e-08
-3.40754e-07
-5.8653e-08
-3.11065e-07
-5.87458e-08
-2.81355e-07
-5.87955e-08
-2.51646e-07
-5.88036e-08
-2.21956e-07
-5.87713e-08
-1.92306e-07
-5.87e-08
-1.62714e-07
-5.85912e-08
-1.33197e-07
-5.84465e-08
-1.03773e-07
-5.82683e-08
-7.44568e-08
-5.80599e-08
-4.52624e-08
-5.78293e-08
-1.62019e-08
-5.7588e-08
1.2697e-08
-5.73619e-08
4.13686e-08
-5.719e-08
6.98583e-08
-5.70429e-08
9.79879e-08
-5.66665e-08
1.25557e-07
-5.57117e-08
1.52999e-07
-5.48746e-08
1.81012e-07
-5.46783e-08
2.08471e-07
-5.45914e-08
2.34888e-07
-5.38627e-08
2.61181e-07
-5.27022e-08
2.88204e-07
-5.33644e-08
3.15125e-07
-5.27109e-08
3.41429e-07
-5.17324e-08
3.67791e-07
-5.24444e-08
3.94045e-07
-5.12137e-08
4.19843e-07
-5.0239e-08
4.45508e-07
-5.05072e-08
4.71133e-07
-5.03105e-08
4.96018e-07
-4.98593e-08
5.19981e-07
-4.86607e-08
5.43003e-07
-4.71412e-08
5.65671e-07
-4.54434e-08
5.8714e-07
-4.19635e-08
6.06194e-07
-3.68379e-08
6.21061e-07
-2.32184e-08
5.07621e-09
6.30652e-07
-9.54511e-10
-9.21035e-09
-5.59137e-09
-4.09587e-09
-1.18665e-08
2.58789e-09
-1.90927e-08
8.64062e-09
-2.7072e-08
1.4067e-08
-3.57794e-08
1.88564e-08
-4.52442e-08
2.30036e-08
-5.54903e-08
2.65338e-08
-6.65043e-08
2.95099e-08
-7.82343e-08
3.20197e-08
-9.06042e-08
3.41574e-08
-1.03532e-07
3.6008e-08
-1.16941e-07
3.76405e-08
-1.30763e-07
3.91064e-08
-1.44945e-07
4.04426e-08
-1.59441e-07
4.16744e-08
-1.74217e-07
4.28193e-08
-1.89243e-07
4.38896e-08
-2.04496e-07
4.48941e-08
-2.1996e-07
4.58396e-08
-2.35617e-07
4.67318e-08
-2.51457e-07
4.75752e-08
-2.67468e-07
4.8374e-08
-2.83642e-07
4.9132e-08
-2.99971e-07
4.98525e-08
-3.1645e-07
5.05387e-08
-3.33072e-07
5.11932e-08
-3.49834e-07
5.18185e-08
-3.6673e-07
5.24166e-08
-3.83756e-07
5.29892e-08
-4.00909e-07
5.35377e-08
-4.18184e-07
5.40629e-08
-4.35579e-07
5.45657e-08
-4.53088e-07
5.50464e-08
-4.70707e-07
5.55052e-08
-4.88433e-07
5.59419e-08
-5.0626e-07
5.63564e-08
-5.24183e-07
5.67481e-08
-5.42196e-07
5.71166e-08
-5.60293e-07
5.74608e-08
-5.78467e-07
5.77798e-08
-5.9671e-07
5.80722e-08
-6.15016e-07
5.83364e-08
-6.33375e-07
5.85708e-08
-6.51778e-07
5.87733e-08
-6.70216e-07
5.89423e-08
-6.8868e-07
5.90759e-08
-7.07158e-07
5.9173e-08
-7.2564e-07
5.92326e-08
-7.44115e-07
5.92541e-08
-7.62572e-07
5.92373e-08
-7.80996e-07
5.91818e-08
-7.99376e-07
5.90869e-08
-8.17695e-07
5.89507e-08
-8.35937e-07
5.87699e-08
-8.54084e-07
5.85391e-08
-8.72122e-07
5.8253e-08
-8.90036e-07
5.79103e-08
-9.07805e-07
5.75181e-08
-9.25384e-07
5.70906e-08
-9.42695e-07
5.66334e-08
-9.59652e-07
5.6116e-08
-9.7625e-07
5.54622e-08
-9.92604e-07
5.46195e-08
-1.00871e-06
5.36674e-08
-1.02428e-06
5.27482e-08
-1.03899e-06
5.17953e-08
-1.05296e-06
5.0634e-08
-1.06646e-06
4.91454e-08
-1.07983e-06
4.73273e-08
-1.0939e-06
4.54234e-08
-1.10715e-06
4.39462e-08
-1.11762e-06
4.27983e-08
-1.12801e-06
4.09993e-08
-1.13882e-06
3.87957e-08
-1.14855e-06
3.67489e-08
-1.15793e-06
3.47203e-08
-1.166e-06
3.2782e-08
-1.17276e-06
3.06269e-08
-1.18033e-06
2.80527e-08
-1.18695e-06
2.56413e-08
-1.19256e-06
2.33306e-08
-1.19866e-06
2.08956e-08
-1.20378e-06
1.87041e-08
-1.20802e-06
1.65704e-08
-1.21146e-06
1.44153e-08
-1.21416e-06
1.22097e-08
-1.21614e-06
9.95208e-09
-1.21742e-06
7.64861e-09
-1.218e-06
5.30756e-09
-1.21789e-06
2.93863e-09
-1.21709e-06
5.52416e-10
-1.21558e-06
-1.8391e-09
-1.21337e-06
-4.24013e-09
-1.21038e-06
-6.65103e-09
-1.20661e-06
-9.08215e-09
-1.20206e-06
-1.15323e-08
-1.19671e-06
-1.39986e-08
-1.19056e-06
-1.64776e-08
-1.1836e-06
-1.89656e-08
-1.17583e-06
-2.14588e-08
-1.16726e-06
-2.39533e-08
-1.15787e-06
-2.64453e-08
-1.14768e-06
-2.89306e-08
-1.13668e-06
-3.14054e-08
-1.12489e-06
-3.38658e-08
-1.11231e-06
-3.63078e-08
-1.09893e-06
-3.87276e-08
-1.08479e-06
-4.11213e-08
-1.06987e-06
-4.34853e-08
-1.0542e-06
-4.58157e-08
-1.03778e-06
-4.81091e-08
-1.02063e-06
-5.03618e-08
-1.00277e-06
-5.25707e-08
-9.84199e-07
-5.47323e-08
-9.64947e-07
-5.68437e-08
-9.45026e-07
-5.89019e-08
-9.24456e-07
-6.09041e-08
-9.03254e-07
-6.28477e-08
-8.81443e-07
-6.47299e-08
-8.59041e-07
-6.65484e-08
-8.3607e-07
-6.83008e-08
-8.12553e-07
-6.99851e-08
-7.88513e-07
-7.15993e-08
-7.63973e-07
-7.31419e-08
-7.38957e-07
-7.46115e-08
-7.13488e-07
-7.60068e-08
-6.87592e-07
-7.73267e-08
-6.61294e-07
-7.85702e-08
-6.34619e-07
-7.97366e-08
-6.07591e-07
-8.08254e-08
-5.80237e-07
-8.18366e-08
-5.52582e-07
-8.27703e-08
-5.24652e-07
-8.36263e-08
-4.9647e-07
-8.44049e-08
-4.68064e-07
-8.51069e-08
-4.39457e-07
-8.5733e-08
-4.10674e-07
-8.62842e-08
-3.8174e-07
-8.67617e-08
-3.52678e-07
-8.71665e-08
-3.23511e-07
-8.75004e-08
-2.94262e-07
-8.77649e-08
-2.64953e-07
-8.79618e-08
-2.35606e-07
-8.80927e-08
-2.06242e-07
-8.81598e-08
-1.7688e-07
-8.81651e-08
-1.47541e-07
-8.81105e-08
-1.18243e-07
-8.79983e-08
-8.90034e-08
-8.78306e-08
-5.984e-08
-8.76099e-08
-3.07687e-08
-8.73396e-08
-1.80443e-09
-8.70241e-08
2.70367e-08
-8.66704e-08
5.57372e-08
-8.62885e-08
8.42719e-08
-8.58967e-08
1.12605e-07
-8.55227e-08
1.40714e-07
-8.51522e-08
1.68592e-07
-8.45447e-08
1.96315e-07
-8.34348e-08
2.2393e-07
-8.24897e-08
2.51414e-07
-8.21622e-08
2.78556e-07
-8.17329e-08
3.05479e-07
-8.07863e-08
3.32489e-07
-7.97117e-08
3.58972e-07
-7.98481e-08
3.85498e-07
-7.92364e-08
4.11998e-07
-7.82323e-08
4.37837e-07
-7.82837e-08
4.63875e-07
-7.72514e-08
4.89843e-07
-7.62075e-08
5.15329e-07
-7.59929e-08
5.40553e-07
-7.55344e-08
5.65341e-07
-7.46475e-08
5.89784e-07
-7.31037e-08
6.13701e-07
-7.10585e-08
6.36748e-07
-6.84898e-08
6.58813e-07
-6.40292e-08
6.78865e-07
-5.6889e-08
6.97484e-07
-4.18378e-08
-1.37604e-08
7.16321e-07
-5.19681e-09
-4.01354e-09
-1.35297e-08
4.23707e-09
-2.26355e-08
1.16936e-08
-3.20827e-08
1.80878e-08
-4.17965e-08
2.37808e-08
-5.18076e-08
2.88676e-08
-6.21803e-08
3.33763e-08
-7.29761e-08
3.73296e-08
-8.42328e-08
4.07666e-08
-9.59573e-08
4.37442e-08
-1.0813e-07
4.63296e-08
-1.20712e-07
4.85908e-08
-1.33661e-07
5.05892e-08
-1.46931e-07
5.2376e-08
-1.6048e-07
5.39921e-08
-1.74274e-07
5.54684e-08
-1.88284e-07
5.68288e-08
-2.02485e-07
5.80908e-08
-2.16859e-07
5.92683e-08
-2.31391e-07
6.0372e-08
-2.4607e-07
6.14106e-08
-2.60887e-07
6.23914e-08
-2.75833e-07
6.33205e-08
-2.90904e-07
6.42031e-08
-3.06096e-07
6.50439e-08
-3.21404e-07
6.58467e-08
-3.36825e-07
6.6615e-08
-3.52358e-07
6.73515e-08
-3.68e-07
6.80585e-08
-3.83749e-07
6.87379e-08
-3.99602e-07
6.9391e-08
-4.15558e-07
7.00187e-08
-4.31614e-07
7.06214e-08
-4.47766e-07
7.11993e-08
-4.64014e-07
7.17522e-08
-4.80351e-07
7.22796e-08
-4.96776e-07
7.27808e-08
-5.13282e-07
7.32546e-08
-5.29866e-07
7.37e-08
-5.4652e-07
7.41154e-08
-5.6324e-07
7.44992e-08
-5.80017e-07
7.48492e-08
-5.96844e-07
7.51633e-08
-6.13712e-07
7.54392e-08
-6.30613e-07
7.56742e-08
-6.47537e-07
7.5866e-08
-6.64473e-07
7.60122e-08
-6.81411e-07
7.61108e-08
-6.98338e-07
7.61599e-08
-7.15242e-07
7.61579e-08
-7.32108e-07
7.61032e-08
-7.4892e-07
7.59942e-08
-7.65662e-07
7.58284e-08
-7.82313e-07
7.56024e-08
-7.98855e-07
7.53113e-08
-8.15265e-07
7.49493e-08
-8.31523e-07
7.45106e-08
-8.47604e-07
7.39916e-08
-8.63479e-07
7.33928e-08
-8.79104e-07
7.27162e-08
-8.94429e-07
7.1958e-08
-9.0941e-07
7.10974e-08
-9.24046e-07
7.00975e-08
-9.38364e-07
6.89383e-08
-9.52347e-07
6.765e-08
-9.65873e-07
6.62745e-08
-9.78864e-07
6.4786e-08
-9.91332e-07
6.31023e-08
-1.0034e-06
6.12141e-08
-1.01523e-06
5.91522e-08
-1.0268e-06
5.69936e-08
-1.03775e-06
5.49049e-08
-1.0478e-06
5.2841e-08
-1.05732e-06
5.05245e-08
-1.06653e-06
4.79996e-08
-1.07521e-06
4.5432e-08
-1.0833e-06
4.28137e-08
-1.09071e-06
4.0193e-08
-1.09755e-06
3.74636e-08
-1.10405e-06
3.45502e-08
-1.11005e-06
3.16442e-08
-1.11548e-06
2.87628e-08
-1.12045e-06
2.58638e-08
-1.12477e-06
2.30233e-08
-1.12839e-06
2.01901e-08
-1.13131e-06
1.7335e-08
-1.13354e-06
1.44399e-08
-1.13509e-06
1.14999e-08
-1.13596e-06
8.51621e-09
-1.13614e-06
5.49332e-09
-1.13564e-06
2.43698e-09
-1.13444e-06
-6.47006e-10
-1.13253e-06
-3.75415e-09
-1.12988e-06
-6.88516e-09
-1.12649e-06
-1.0043e-08
-1.12234e-06
-1.323e-08
-1.11743e-06
-1.64434e-08
-1.11175e-06
-1.96791e-08
-1.10529e-06
-2.29322e-08
-1.09806e-06
-2.61978e-08
-1.09005e-06
-2.94706e-08
-1.08126e-06
-3.27454e-08
-1.07169e-06
-3.6017e-08
-1.06134e-06
-3.928e-08
-1.05021e-06
-4.25293e-08
-1.03832e-06
-4.57597e-08
-1.02566e-06
-4.89661e-08
-1.01225e-06
-5.21434e-08
-9.9808e-07
-5.52866e-08
-9.83175e-07
-5.83909e-08
-9.67539e-07
-6.14512e-08
-9.51185e-07
-6.44628e-08
-9.34126e-07
-6.74211e-08
-9.16375e-07
-7.03217e-08
-8.97947e-07
-7.31604e-08
-8.78858e-07
-7.5933e-08
-8.59124e-07
-7.86356e-08
-8.38763e-07
-8.12647e-08
-8.17794e-07
-8.38166e-08
-7.96236e-07
-8.6288e-08
-7.74109e-07
-8.86756e-08
-7.51434e-07
-9.09762e-08