/*--------------------------------*- C++ -*----------------------------------*\
  =========                 |
  \\      /  F ield         | OpenFOAM: The Open Source CFD Toolbox
   \\    /   O peration     | Website:  https://openfoam.org
    \\  /    A nd           | Version:  7
     \\/     M anipulation  |
\*---------------------------------------------------------------------------*/
FoamFile
{
    version     2.0;
    format      ascii;
    class       volScalarField;
    location    "0.021";
    object      k_0;
}
// * * * * * * * * * * * * * * * * * * * * * * * * * * * * * * * * * * * * * //

dimensions      [0 2 -2 0 0 0 0];

internalField   nonuniform List<scalar> 
12225
(
1.94112e-05
1.79751e-05
1.67626e-05
1.53317e-05
1.43038e-05
1.21363e-05
1.138e-05
1.28931e-05
1.58715e-05
1.24186e-05
8.11969e-06
6.46801e-06
5.69581e-06
5.42883e-06
5.38706e-06
5.40997e-06
5.35723e-06
9.18252e-06
1.99832e-05
1.98861e-05
1.96928e-05
1.93824e-05
1.91627e-05
1.86476e-05
1.81059e-05
1.82024e-05
1.98392e-05
2.02178e-05
1.97726e-05
1.81314e-05
1.65666e-05
1.57657e-05
1.51309e-05
1.49007e-05
1.45285e-05
1.44368e-05
2.00026e-05
1.93596e-05
1.90165e-05
1.89463e-05
1.89151e-05
1.88384e-05
1.87829e-05
1.88074e-05
1.91781e-05
1.95775e-05
1.95833e-05
1.94577e-05
1.90645e-05
1.86149e-05
1.83049e-05
1.80307e-05
1.79187e-05
1.77055e-05
2.02666e-05
2.04865e-05
2.00498e-05
1.76582e-05
1.62102e-05
1.62186e-05
1.64418e-05
1.68091e-05
1.70278e-05
1.74174e-05
1.79079e-05
1.81831e-05
1.82439e-05
1.82393e-05
1.82207e-05
1.81673e-05
1.81025e-05
1.79128e-05
2.06892e-05
2.53744e-05
2.68972e-05
2.46392e-05
2.14488e-05
2.02251e-05
1.96861e-05
1.8629e-05
1.7578e-05
1.72063e-05
1.72015e-05
1.72942e-05
1.76246e-05
1.79902e-05
1.81875e-05
1.8253e-05
1.82547e-05
1.8192e-05
2.3104e-05
2.42738e-05
2.32737e-05
2.24568e-05
2.16522e-05
2.12128e-05
2.10329e-05
2.08674e-05
2.048e-05
1.98777e-05
1.9369e-05
1.91408e-05
1.91393e-05
1.93107e-05
1.98827e-05
2.03846e-05
2.06689e-05
2.0671e-05
2.24166e-05
2.2187e-05
2.16285e-05
2.11665e-05
2.10609e-05
2.10134e-05
2.09909e-05
2.09708e-05
2.08855e-05
2.06167e-05
2.0412e-05
2.03344e-05
2.03285e-05
2.04998e-05
2.14398e-05
2.33736e-05
2.48562e-05
2.55824e-05
2.27046e-05
2.27866e-05
2.21335e-05
2.13286e-05
2.1219e-05
2.12354e-05
2.14634e-05
2.17862e-05
2.18774e-05
2.18621e-05
2.17081e-05
2.1334e-05
2.1087e-05
2.10112e-05
2.10944e-05
2.16625e-05
2.31824e-05
2.4419e-05
2.14843e-05
2.29127e-05
2.42335e-05
2.36603e-05
2.18748e-05
2.12813e-05
2.13478e-05
2.17059e-05
2.18954e-05
2.19423e-05
2.19312e-05
2.18206e-05
2.1389e-05
2.09826e-05
2.09053e-05
2.10198e-05
2.1625e-05
2.25975e-05
2.08088e-05
2.24417e-05
2.33524e-05
2.32327e-05
2.24128e-05
2.18368e-05
2.1687e-05
2.15675e-05
2.13262e-05
2.12195e-05
2.12226e-05
2.12622e-05
2.12619e-05
2.12121e-05
2.10478e-05
2.09392e-05
2.09228e-05
2.0943e-05
2.12869e-05
2.24879e-05
2.23797e-05
2.16275e-05
2.22998e-05
2.42285e-05
2.46312e-05
2.44437e-05
2.34398e-05
2.26279e-05
2.24404e-05
2.24456e-05
2.24839e-05
2.24794e-05
2.23976e-05
2.20733e-05
2.17465e-05
2.15331e-05
2.24668e-05
2.13524e-05
2.04292e-05
2.04808e-05
2.14483e-05
2.29151e-05
2.33182e-05
2.32711e-05
2.29603e-05
2.28528e-05
2.29347e-05
2.32577e-05
2.33973e-05
2.33996e-05
2.33474e-05
2.31628e-05
2.27443e-05
2.23511e-05
2.06342e-05
2.04823e-05
2.04503e-05
2.09821e-05
2.40458e-05
2.60713e-05
2.59492e-05
2.44954e-05
2.30925e-05
2.26358e-05
2.25716e-05
2.26337e-05
2.28416e-05
2.29487e-05
2.29532e-05
2.28618e-05
2.24774e-05
2.21074e-05
2.04849e-05
2.08482e-05
2.10856e-05
2.18604e-05
2.26747e-05
2.26728e-05
2.22545e-05
2.16733e-05
2.13897e-05
2.12785e-05
2.12452e-05
2.12529e-05
2.1336e-05
2.14398e-05
2.14991e-05
2.15411e-05
2.15512e-05
2.15631e-05
2.02239e-05
2.02951e-05
2.04901e-05
2.10124e-05
2.14128e-05
2.1513e-05
2.14238e-05
2.10501e-05
2.08261e-05
2.07768e-05
2.07779e-05
2.07928e-05
2.08039e-05
2.08082e-05
2.08142e-05
2.08352e-05
2.08756e-05
2.09149e-05
2.01165e-05
2.02772e-05
2.05966e-05
2.08178e-05
2.08744e-05
2.08355e-05
2.06701e-05
2.06619e-05
2.07854e-05
2.0804e-05
2.0654e-05
2.0561e-05
2.05629e-05
2.06136e-05
2.06648e-05
2.06902e-05
2.07045e-05
2.07113e-05
2.06111e-05
2.04892e-05
2.04465e-05
2.04679e-05
2.05742e-05
2.06244e-05
2.06237e-05
2.0628e-05
2.06743e-05
2.06956e-05
2.06767e-05
2.05929e-05
2.05356e-05
2.05298e-05
2.05606e-05
2.06548e-05
2.07301e-05
2.07772e-05
2.01091e-05
2.02504e-05
2.04213e-05
2.04931e-05
2.05303e-05
2.06008e-05
2.07572e-05
2.09312e-05
2.10862e-05
2.1099e-05
2.09611e-05
2.08208e-05
2.07934e-05
2.07972e-05
2.08143e-05
2.08263e-05
2.08353e-05
2.08368e-05
2.05159e-05
2.03832e-05
2.05384e-05
2.05761e-05
2.05652e-05
2.0532e-05
2.05284e-05
2.05482e-05
2.05677e-05
2.05806e-05
2.06033e-05
2.06312e-05
2.06515e-05
2.06594e-05
2.06596e-05
2.06527e-05
2.06178e-05
2.05179e-05
2.00222e-05
2.02529e-05
2.03619e-05
2.05737e-05
2.07604e-05
2.08624e-05
2.09271e-05
2.09732e-05
2.09977e-05
2.10029e-05
2.09963e-05
2.0952e-05
2.07778e-05
2.05438e-05
2.03902e-05
2.03093e-05
2.02803e-05
2.02776e-05
2.02728e-05
2.05038e-05
2.04468e-05
2.04755e-05
2.07713e-05
2.12842e-05
2.14668e-05
2.14755e-05
2.13789e-05
2.10589e-05
2.08051e-05
2.06669e-05
2.06091e-05
2.05756e-05
2.0524e-05
2.04525e-05
2.03685e-05
2.03049e-05
2.0468e-05
2.06267e-05
2.0496e-05
2.05077e-05
2.06478e-05
2.07122e-05
2.07051e-05
2.06209e-05
2.04733e-05
2.03992e-05
2.03786e-05
2.03801e-05
2.03967e-05
2.04078e-05
2.04086e-05
2.04034e-05
2.03755e-05
2.03012e-05
2.17133e-05
2.13075e-05
2.10562e-05
2.10707e-05
2.10059e-05
2.06497e-05
2.03137e-05
2.0196e-05
2.01771e-05
2.01862e-05
2.02286e-05
2.02565e-05
2.02639e-05
2.02635e-05
2.0254e-05
2.02104e-05
2.01564e-05
2.01346e-05
2.05751e-05
2.08761e-05
2.08895e-05
2.07838e-05
2.04672e-05
2.05235e-05
2.07129e-05
2.05267e-05
2.02284e-05
2.01134e-05
2.0084e-05
2.00883e-05
2.01546e-05
2.04076e-05
2.05419e-05
2.05477e-05
2.04878e-05
2.03174e-05
2.00708e-05
2.04938e-05
2.06759e-05
2.06536e-05
2.04988e-05
2.04852e-05
2.05308e-05
2.04851e-05
2.03067e-05
2.01787e-05
2.015e-05
2.01696e-05
2.02854e-05
2.0365e-05
2.03639e-05
2.03094e-05
2.02648e-05
2.02428e-05
2.10086e-05
2.05775e-05
2.03483e-05
2.0535e-05
2.08083e-05
2.09205e-05
2.10064e-05
2.11582e-05
2.12862e-05
2.13159e-05
2.12442e-05
2.08999e-05
2.06206e-05
2.052e-05
2.04964e-05
2.04964e-05
2.05086e-05
2.05254e-05
2.01288e-05
2.00496e-05
1.99978e-05
2.00072e-05
2.00269e-05
2.00904e-05
2.00965e-05
2.00157e-05
1.9783e-05
1.92724e-05
1.84363e-05
1.77148e-05
1.74639e-05
1.74801e-05
1.76443e-05
1.80841e-05
1.91991e-05
2.00271e-05
2.01849e-05
1.75597e-05
1.41774e-05
1.49368e-05
1.87097e-05
2.77205e-05
3.37654e-05
3.60148e-05
3.718e-05
3.93303e-05
4.42492e-05
4.8483e-05
5.20071e-05
5.47455e-05
5.98061e-05
6.78494e-05
8.17129e-05
9.35201e-05
3.23314e-05
9.81559e-05
0.000119193
0.000172059
0.000298495
0.000387839
0.000417132
0.000419612
0.000419513
0.000425334
0.000449276
0.000470918
0.000482518
0.000491053
0.000505064
0.000535294
0.000582649
0.000623054
0.00262838
0.00257704
0.0025071
0.00228187
0.00211813
0.00201707
0.00191833
0.00180589
0.00169005
0.00158894
0.00151482
0.00146934
0.00144629
0.00143627
0.00142981
0.00141904
0.00139412
0.00132571
7.26049e-07
4.30335e-06
1.46249e-05
3.44912e-05
6.0756e-05
8.79416e-05
0.000113546
0.000137166
0.000159183
0.000180383
0.000201403
0.000222391
0.000243347
0.000264304
0.000285638
0.000307083
0.000328564
0.000349894
0.000370913
0.000390077
0.000401104
0.000405862
0.000399231
0.000382778
0.000358143
0.000325893
0.000286549
0.00024196
0.000198516
0.000161466
0.00012295
8.50504e-05
6.41266e-05
4.44482e-05
2.91782e-05
2.15077e-05
1.66686e-05
1.50019e-05
1.57106e-05
1.60683e-05
1.64144e-05
1.65522e-05
1.65893e-05
1.64313e-05
1.62464e-05
1.5921e-05
1.53741e-05
1.47508e-05
1.41905e-05
1.33753e-05
1.24878e-05
1.19062e-05
1.09163e-05
1.01172e-05
9.1751e-06
8.28081e-06
7.3491e-06
6.45082e-06
5.59128e-06
4.7405e-06
3.97831e-06
3.2397e-06
2.55858e-06
1.97509e-06
1.54357e-06
1.24009e-06
1.01317e-06
8.36582e-07
6.93296e-07
5.7265e-07
4.70266e-07
3.83792e-07
3.11206e-07
2.50527e-07
2.00077e-07
1.58545e-07
1.24684e-07
9.72194e-08
7.50479e-08
5.73096e-08
4.32943e-08
3.23718e-08
2.39741e-08
1.75982e-08
1.28113e-08
9.25318e-09
6.6322e-09
4.71777e-09
3.33072e-09
2.33375e-09
1.62284e-09
1.11994e-09
7.67009e-10
5.21313e-10
3.5164e-10
2.35406e-10
1.56417e-10
1.03164e-10
6.75459e-11
4.39083e-11
2.83436e-11
1.81734e-11
1.15784e-11
7.33354e-12
4.62049e-12
2.89779e-12
1.81003e-12
1.12676e-12
6.98748e-13
4.32414e-13
2.67393e-13
1.65059e-13
1.0162e-13
6.23605e-14
3.81313e-14
2.32367e-14
1.41329e-14
8.59921e-15
5.24907e-15
3.2263e-15
2.00729e-15
1.27407e-15
8.34343e-16
5.719e-16
4.16499e-16
3.25638e-16
2.7361e-16
2.44908e-16
2.30207e-16
2.23843e-16
2.2208e-16
2.22045e-16
2.22045e-16
2.22045e-16
2.22045e-16
2.22045e-16
2.22045e-16
2.22045e-16
2.22045e-16
2.22045e-16
2.22045e-16
2.22045e-16
2.22045e-16
2.22045e-16
2.22045e-16
2.22045e-16
2.22045e-16
2.22045e-16
2.22045e-16
2.22045e-16
2.22045e-16
2.22045e-16
2.22045e-16
2.22045e-16
2.22045e-16
2.22045e-16
2.22045e-16
2.22045e-16
2.22045e-16
2.22045e-16
2.22045e-16
2.22045e-16
2.22045e-16
2.22045e-16
2.22045e-16
2.22045e-16
2.22045e-16
2.22045e-16
2.22045e-16
2.22045e-16
2.22045e-16
2.22045e-16
2.22045e-16
2.24147e-16
2.6497e-16
5.37395e-16
2.44822e-15
2.60061e-13
1.46818e-10
8.40928e-08
1.73707e-06
9.05181e-06
2.58369e-05
4.93467e-05
7.41502e-05
0.0001006
0.000124773
0.000143825
0.000157716
0.000168166
0.000175502
0.000179381
0.000180727
0.000180861
0.000179245
0.000176651
0.000172802
0.000167584
0.000160799
0.00015247
0.000142442
0.000131063
0.000118756
0.000106747
9.55722e-05
8.54132e-05
7.68319e-05
7.0001e-05
6.5474e-05
6.24924e-05
6.08155e-05
6.02871e-05
6.17628e-05
6.38556e-05
6.58702e-05
6.98569e-05
7.18524e-05
7.4367e-05
7.61795e-05
7.74355e-05
7.79983e-05
7.81512e-05
7.7388e-05
7.63813e-05
7.53525e-05
7.3499e-05
7.04164e-05
6.83519e-05
6.62479e-05
6.23637e-05
5.94913e-05
5.74489e-05
5.34247e-05
5.11049e-05
4.77872e-05
4.48706e-05
4.18485e-05
3.86421e-05
3.52558e-05
3.16594e-05
2.83186e-05
2.49006e-05
2.14085e-05
1.67449e-05
1.22864e-05
9.20062e-06
7.27318e-06
5.89429e-06
4.92258e-06
4.15486e-06
3.4958e-06
2.92646e-06
2.43733e-06
2.01836e-06
1.65991e-06
1.35595e-06
1.10131e-06
8.88305e-07
7.09715e-07
5.61335e-07
4.39952e-07
3.42045e-07
2.64003e-07
2.02413e-07
1.54219e-07
1.1678e-07
8.78859e-08
6.57221e-08
4.88242e-08
3.60223e-08
2.63873e-08
1.91866e-08
1.38443e-08
9.91091e-09
7.03788e-09
4.95668e-09
3.46188e-09
2.39753e-09
1.64631e-09
1.12077e-09
7.56429e-10
5.06158e-10
3.3584e-10
2.21026e-10
1.44356e-10
9.36275e-11
6.03521e-11
3.86908e-11
2.46831e-11
1.5674e-11
9.90706e-12
6.23204e-12
3.90024e-12
2.42763e-12
1.50221e-12
9.23578e-13
5.64901e-13
3.44297e-13
2.09253e-13
1.26902e-13
7.68279e-14
4.64456e-14
2.80477e-14
1.69326e-14
1.02365e-14
6.21556e-15
3.80843e-15
2.3708e-15
1.513e-15
1.00075e-15
6.94273e-16
5.10293e-16
3.99309e-16
3.31961e-16
2.90828e-16
2.65533e-16
2.49867e-16
2.40084e-16
2.33914e-16
2.29979e-16
2.27436e-16
2.25768e-16
2.24656e-16
2.23899e-16
2.23375e-16
2.23008e-16
2.22749e-16
2.22563e-16
2.22428e-16
2.22328e-16
2.22251e-16
2.22193e-16
2.22149e-16
2.22118e-16
2.22095e-16
2.22079e-16
2.22069e-16
2.22062e-16
2.22057e-16
2.22054e-16
2.22052e-16
2.22051e-16
2.22049e-16
2.22049e-16
2.22048e-16
2.22048e-16
2.22047e-16
2.22047e-16
2.22047e-16
2.22046e-16
2.22046e-16
2.22046e-16
2.22052e-16
2.22179e-16
2.23572e-16
2.33156e-16
3.28456e-16
1.92979e-14
1.25509e-11
7.28069e-09
1.73745e-06
8.49013e-06
2.21729e-05
3.75568e-05
4.8605e-05
5.67623e-05
6.42221e-05
6.81256e-05
6.97751e-05
7.02678e-05
7.04347e-05
7.04465e-05
7.08161e-05
7.10017e-05
7.07976e-05
7.03681e-05
6.98863e-05
6.9555e-05
6.93991e-05
6.97282e-05
7.02074e-05
7.08904e-05
7.193e-05
7.34724e-05
7.54745e-05
7.77827e-05
8.01559e-05
8.44355e-05
9.03305e-05
9.73344e-05
0.000105136
0.000113453
0.000122067
0.000130502
0.000137875
0.000144015
0.000150003
0.000155593
0.000160574
0.000163995
0.000165523
0.000165791
0.00016242
0.000159719
0.000156737
0.000148378
0.000140645
0.000136808
0.000128727
0.000118505
0.000114177
0.000106359
9.82075e-05
9.28388e-05
8.63676e-05
8.07412e-05
7.46337e-05
6.85566e-05
6.25792e-05
5.66713e-05
5.08554e-05
4.51183e-05
3.95362e-05
3.41691e-05
2.9127e-05
2.44908e-05
2.03185e-05
1.67633e-05
1.39921e-05
1.19344e-05
1.01788e-05
8.63483e-06
7.27872e-06
6.09821e-06
5.07316e-06
4.19017e-06
3.44365e-06
2.81077e-06
2.26365e-06
1.80095e-06
1.42578e-06
1.1264e-06
8.88312e-07
6.98997e-07
5.48399e-07
4.28637e-07
3.33517e-07
2.58164e-07
1.98679e-07
1.51945e-07
1.15424e-07
8.70707e-08
6.51943e-08
4.84339e-08
3.56936e-08
2.60914e-08
1.89194e-08
1.36117e-08
9.71852e-09
6.88232e-09
4.83177e-09
3.3624e-09
2.31937e-09
1.58618e-09
1.07601e-09
7.24622e-10
4.84924e-10
3.22801e-10
2.13897e-10
1.41126e-10
9.2699e-11
6.05895e-11
3.93808e-11
2.54338e-11
1.63107e-11
1.03827e-11
6.56152e-12
4.11941e-12
2.57037e-12
1.59514e-12
9.85486e-13
6.0611e-13
3.71133e-13
2.2633e-13
1.37569e-13
8.34444e-14
5.059e-14
3.07154e-14
1.87158e-14
1.14725e-14
7.09399e-15
4.43994e-15
2.82536e-15
1.83901e-15
1.23369e-15
8.60483e-16
6.29257e-16
4.85145e-16
3.94598e-16
3.37101e-16
3.00122e-16
2.7598e-16
2.59934e-16
2.4906e-16
2.41554e-16
2.36294e-16
2.32568e-16
2.29897e-16
2.27947e-16
2.26497e-16
2.25401e-16
2.24567e-16
2.23934e-16
2.23465e-16
2.23125e-16
2.22883e-16
2.22708e-16
2.2259e-16
2.22504e-16
2.22448e-16
2.22403e-16
2.22372e-16
2.22343e-16
2.22323e-16
2.22305e-16
2.2229e-16
2.22275e-16
2.2226e-16
2.22238e-16
2.22196e-16
2.22146e-16
2.22134e-16
2.22148e-16
2.22237e-16
2.22649e-16
2.24123e-16
2.44829e-16
1.17755e-15
5.72657e-13
3.00373e-10
1.36157e-06
5.73931e-06
1.32687e-05
2.08632e-05
2.49757e-05
2.74155e-05
2.95967e-05
3.12866e-05
3.29468e-05
3.49583e-05
3.73305e-05
4.01074e-05
4.32566e-05
4.66736e-05
5.04807e-05
5.4533e-05
5.87452e-05
6.30789e-05
6.76224e-05
7.23231e-05
7.8387e-05
8.62662e-05
9.67078e-05
0.00011026
0.000127799
0.000145293
0.000163889
0.000181125
0.000198195
0.000212676
0.000228553
0.000242354
0.000254831
0.000268089
0.000278773
0.000290417
0.000298201
0.000307228
0.000313192
0.000316267
0.000317024
0.000311826
0.000305163
0.000297761
0.000285056
0.00026461
0.000249517
0.000236144
0.000212772
0.000194079
0.000181499
0.000158748
0.000145899
0.000129105
0.000115229
0.000101994
9.00693e-05
7.92628e-05
6.96047e-05
6.10187e-05
5.34932e-05
4.69318e-05
4.11702e-05
3.61136e-05
3.17453e-05
2.79272e-05
2.44415e-05
2.13181e-05
1.85319e-05
1.60424e-05
1.38265e-05
1.18692e-05
1.01523e-05
8.64236e-06
7.31232e-06
6.14671e-06
5.13683e-06
4.26755e-06
3.5085e-06
2.85612e-06
2.33272e-06
1.90998e-06
1.56254e-06
1.27503e-06
1.03668e-06
8.39208e-07
6.75991e-07
5.41588e-07
4.31391e-07
3.41518e-07
2.68612e-07
2.09832e-07
1.62774e-07
1.25369e-07
9.58472e-08
7.27172e-08
5.47302e-08
4.08517e-08
3.02322e-08
2.21821e-08
1.61358e-08
1.16349e-08
8.3149e-09
5.88929e-09
4.13533e-09
2.88085e-09
1.99337e-09
1.37181e-09
9.39962e-10
6.41602e-10
4.36212e-10
2.95188e-10
1.98628e-10
1.32766e-10
8.80826e-11
5.79757e-11
3.78433e-11
2.44923e-11
1.57196e-11
1.00079e-11
6.3229e-12
3.96797e-12
2.47603e-12
1.53798e-12
9.52045e-13
5.88039e-13
3.62853e-13
2.23958e-13
1.38432e-13
8.57811e-14
5.33373e-14
3.33109e-14
2.09235e-14
1.32421e-14
8.46422e-15
5.48288e-15
3.6177e-15
2.44721e-15
1.70687e-15
1.23204e-15
9.22643e-16
7.1747e-16
5.78708e-16
4.83044e-16
4.15881e-16
3.67975e-16
3.33457e-16
3.08299e-16
2.89654e-16
2.75674e-16
2.65099e-16
2.57021e-16
2.50827e-16
2.46221e-16
2.42775e-16
2.40291e-16
2.38348e-16
2.37109e-16
2.36016e-16
2.35494e-16
2.34774e-16
2.34495e-16
2.33871e-16
2.33638e-16
2.32972e-16
2.32686e-16
2.31586e-16
2.30979e-16
2.28814e-16
2.2583e-16
2.24901e-16
2.25484e-16
2.29112e-16
2.42088e-16
2.99896e-16
4.4347e-16
3.87118e-15
8.32108e-15
8.53256e-14
1.3303e-11
1.04878e-06
3.71955e-06
7.90669e-06
1.19871e-05
1.40113e-05
1.53571e-05
1.71116e-05
1.93633e-05
2.22732e-05
2.58934e-05
3.00967e-05
3.48241e-05
3.98838e-05
4.52187e-05
5.08437e-05
5.71799e-05
6.48085e-05
7.44718e-05
8.77879e-05
0.000107573
0.000132515
0.00015333
0.000172617
0.000186763
0.00020188
0.000215045
0.000228476
0.000242204
0.000258148
0.000280005
0.000299642
0.000319415
0.000339733
0.000360713
0.000382723
0.00040105
0.000416867
0.00042548
0.000430582
0.000432902
0.000431849
0.000428355
0.000420514
0.000399183
0.000375293
0.00034624
0.00032716
0.000293297
0.000257129
0.000234676
0.000211539
0.000183415
0.000166675
0.000145187
0.000128274
0.000112069
9.76729e-05
8.47356e-05
7.32161e-05
6.3021e-05
5.41328e-05
4.64266e-05
3.97196e-05
3.39365e-05
2.90155e-05
2.49627e-05
2.17884e-05
1.92282e-05
1.71106e-05
1.52192e-05
1.34207e-05
1.17252e-05
1.0176e-05
8.77435e-06
7.52094e-06
6.41186e-06
5.43851e-06
4.59027e-06
3.85555e-06
3.22315e-06
2.6823e-06
2.2223e-06
1.83305e-06
1.50513e-06
1.22979e-06
9.9969e-07
8.08443e-07
6.50255e-07
5.20148e-07
4.13649e-07
3.26975e-07
2.56856e-07
2.00783e-07
1.56134e-07
1.20745e-07
9.2836e-08
7.0943e-08
5.38672e-08
4.06294e-08
3.04326e-08
2.26311e-08
1.67042e-08
1.22346e-08
8.88976e-09
6.40657e-09
4.57828e-09
3.24359e-09
2.27771e-09
1.58494e-09
1.09255e-09
7.45827e-10
5.04013e-10
3.37041e-10
2.22925e-10
1.45768e-10
9.41963e-11
6.01117e-11
3.78533e-11
2.3532e-11
1.44197e-11
8.67475e-12
5.16283e-12
3.06555e-12
1.81824e-12
1.07935e-12
6.43179e-13
3.86307e-13
2.35029e-13
1.45661e-13
9.25109e-14
6.052e-14
4.08904e-14
2.85109e-14
2.04369e-14
1.49777e-14
1.11573e-14
8.40319e-15
6.3718e-15
4.85422e-15
3.71323e-15
2.85381e-15
2.20669e-15
1.71918e-15
1.35286e-15
1.07769e-15
8.70469e-16
7.14891e-16
5.97862e-16
5.09007e-16
4.41709e-16
3.90874e-16
3.51842e-16
3.21657e-16
2.98781e-16
2.81509e-16
2.6797e-16
2.57123e-16
2.48838e-16
2.42787e-16
2.38212e-16
2.34372e-16
2.3109e-16
2.2823e-16
2.26146e-16
2.25113e-16
2.24385e-16
2.24159e-16
2.2453e-16
2.27032e-16
2.38579e-16
2.87001e-16
4.65871e-16
1.06981e-15
2.86474e-15
1.25819e-14
2.56204e-14
5.56504e-13
6.63562e-13
9.73057e-12
1.09935e-11
9.01172e-07
2.67195e-06
5.0479e-06
7.45362e-06
8.86397e-06
1.02452e-05
1.24213e-05
1.54449e-05
1.93559e-05
2.41172e-05
2.94603e-05
3.51695e-05
4.16804e-05
4.96441e-05
6.03122e-05
7.53199e-05
9.63869e-05
0.000120296
0.000144881
0.000164206
0.000176563
0.000189396
0.000206122
0.000225764
0.000245026
0.000267684
0.000295919
0.000334648
0.000386416
0.000429074
0.000462712
0.000497099
0.000519541
0.000536162
0.000552353
0.000563953
0.000572951
0.000577322
0.000578671
0.000574912
0.000556176
0.000544975
0.00053655
0.000507833
0.000474478
0.000454491
0.000427325
0.00039289
0.000356961
0.000323326
0.000282534
0.000246942
0.000214421
0.000185876
0.000161364
0.000139466
0.000120099
0.000103126
8.81643e-05
7.48997e-05
6.31018e-05
5.26191e-05
4.33936e-05
3.55549e-05
2.91893e-05
2.41253e-05
2.00381e-05
1.67206e-05
1.40271e-05
1.19834e-05
1.05191e-05
9.44887e-06
8.54418e-06
7.67871e-06
6.79144e-06
5.93347e-06
5.13476e-06
4.40424e-06
3.74776e-06
3.16573e-06
2.65559e-06
2.21304e-06
1.83277e-06
1.50888e-06
1.23526e-06
1.0056e-06
8.14166e-07
6.554e-07
5.24693e-07
4.17445e-07
3.30295e-07
2.59445e-07
2.02825e-07
1.57761e-07
1.22056e-07
9.39008e-08
7.18141e-08
5.45827e-08
4.12178e-08
3.09159e-08
2.30266e-08
1.7026e-08
1.24945e-08
9.09783e-09
6.57132e-09
4.70705e-09
3.34277e-09
2.35288e-09
1.64095e-09
1.13357e-09
7.75357e-10
5.2492e-10
3.51591e-10
2.32885e-10
1.52471e-10
9.86153e-11
6.29721e-11
3.96742e-11
2.46443e-11
1.50802e-11
9.08187e-12
5.3779e-12
3.1284e-12
1.78623e-12
1.00038e-12
5.49298e-13
2.95686e-13
1.56161e-13
8.11162e-14
4.16584e-14
2.13582e-14
1.11138e-14
6.0164e-15
3.49072e-15
2.2226e-15
1.55978e-15
1.18695e-15
9.55318e-16
7.96386e-16
6.78379e-16
5.86579e-16
5.13541e-16
4.54773e-16
4.07587e-16
3.69755e-16
3.3939e-16
3.15226e-16
2.96025e-16
2.80652e-16
2.68435e-16
2.58802e-16
2.51113e-16
2.44918e-16
2.40065e-16
2.36322e-16
2.33267e-16
2.30777e-16
2.28853e-16
2.27314e-16
2.26204e-16
2.25335e-16
2.24319e-16
2.23717e-16
2.23719e-16
2.24089e-16
2.26738e-16
2.47847e-16
3.39647e-16
7.37976e-16
2.44748e-15
9.70143e-15
3.55154e-14
1.2106e-13
3.5367e-13
1.04171e-12
2.29537e-12
9.70011e-12
1.00761e-11
2.04064e-11
2.02496e-11
8.40838e-07
2.16566e-06
3.60223e-06
5.19509e-06
6.45613e-06
8.07798e-06
1.06459e-05
1.42065e-05
1.88212e-05
2.43741e-05
3.13444e-05
4.15429e-05
5.49233e-05
7.17598e-05
9.67661e-05
0.000125768
0.000149339
0.000169189
0.000186698
0.000200515
0.000216115
0.000237258
0.000266983
0.00030527
0.000348176
0.000401153
0.000452471
0.000496721
0.000522598
0.000542399
0.000561497
0.000577382
0.000596578
0.000616148
0.000628055
0.000638088
0.000650545
0.000665489
0.000671221
0.000668922
0.000629058
0.000602281
0.000584396
0.000535382
0.000494135
0.000474178
0.000440392
0.000414538
0.000385892
0.000358674
0.000327411
0.000295573
0.000261495
0.000228367
0.000198601
0.000171956
0.000147581
0.000126266
0.000108522
9.35016e-05
8.04167e-05
6.86724e-05
5.76762e-05
4.68292e-05
3.65838e-05
2.83584e-05
2.20265e-05
1.72994e-05
1.37869e-05
1.11157e-05
9.04096e-06
7.41088e-06
6.20349e-06
5.38053e-06
4.86101e-06
4.45848e-06
4.06379e-06
3.63298e-06
3.19432e-06
2.77451e-06
2.38265e-06
2.02471e-06
1.70374e-06
1.42049e-06
1.17423e-06
9.62853e-07
7.83653e-07
6.33158e-07
5.08159e-07
4.04937e-07
3.20732e-07
2.52067e-07
1.97098e-07
1.53308e-07
1.18598e-07
9.12276e-08
6.97611e-08
5.30189e-08
4.00375e-08
3.00339e-08
2.23743e-08
1.65489e-08
1.21495e-08
8.85117e-09
6.39708e-09
4.58548e-09
3.25902e-09
2.29594e-09
1.60277e-09
1.10833e-09
7.58935e-10
5.14404e-10
3.44974e-10
2.28799e-10
1.5e-10
9.71544e-11
6.21313e-11
3.92055e-11
2.43924e-11
1.49513e-11
9.02047e-12
5.35157e-12
3.11877e-12
1.78346e-12
9.99629e-13
5.48596e-13
2.94494e-13
1.54511e-13
7.91921e-14
3.96553e-14
1.94269e-14
9.34746e-15
4.45886e-15
2.15163e-15
1.09155e-15
6.16519e-16
4.07998e-16
3.174e-16
2.77592e-16
2.59153e-16
2.49628e-16
2.43887e-16
2.39857e-16
2.3674e-16
2.342e-16
2.32079e-16
2.30308e-16
2.28835e-16
2.27598e-16
2.26566e-16
2.25732e-16
2.25021e-16
2.24455e-16
2.2397e-16
2.23606e-16
2.23306e-16
2.23006e-16
2.22874e-16
2.22626e-16
2.22554e-16
2.24828e-16
2.32617e-16
2.50956e-16
2.8887e-16
3.65848e-16
5.23804e-16
8.66551e-16
1.64192e-15
3.52515e-15
8.17978e-15
2.03355e-14
5.07942e-14
1.31199e-13
3.18264e-13
9.05272e-13
1.71296e-12
6.05201e-12
6.34678e-12
7.16482e-12
9.57785e-12
8.22744e-07
1.94965e-06
2.91576e-06
4.10362e-06
5.31768e-06
7.12105e-06
9.9502e-06
1.39216e-05
1.90245e-05
2.58045e-05
3.56685e-05
5.10928e-05
7.43174e-05
9.98744e-05
0.000124121
0.000146061
0.000168688
0.000190406
0.000211648
0.00023445
0.000268017
0.000321153
0.000371511
0.000423957
0.00046967
0.000509459
0.000547185
0.000573497
0.000592329
0.000625686
0.000662546
0.000707924
0.000767752
0.000840342
0.000926064
0.00102941
0.00115256
0.00128666
0.00137082
0.0013951
0.00127293
0.00107421
0.000970793
0.000778578
0.000620535
0.00051908
0.000445662
0.000401962
0.000375417
0.000352678
0.00033115
0.000306867
0.000278236
0.000247404
0.00021617
0.000189138
0.00016545
0.000143843
0.000123321
0.000104914
9.01611e-05
7.8343e-05
6.86523e-05
6.05198e-05
5.24897e-05
4.25332e-05
3.19562e-05
2.33663e-05
1.71162e-05
1.26586e-05
9.53548e-06
7.35047e-06
5.77355e-06
4.5926e-06
3.6988e-06
3.06978e-06
2.66549e-06
2.42198e-06
2.23763e-06
2.05223e-06
1.84911e-06
1.63653e-06
1.42767e-06
1.22802e-06
1.04214e-06
8.73324e-07
7.23378e-07
5.92713e-07
4.80879e-07
3.8647e-07
3.07994e-07
2.43283e-07
1.9081e-07
1.48728e-07
1.15215e-07
8.87041e-08
6.78677e-08
5.15953e-08
3.89682e-08
2.92335e-08
2.17785e-08
1.61084e-08
1.18265e-08
8.61644e-09
6.22819e-09
4.46523e-09
3.17437e-09
2.23706e-09
1.56232e-09
1.08092e-09
7.40625e-10
5.02357e-10
3.37177e-10
2.23842e-10
1.46909e-10
9.52691e-11
6.10092e-11
3.85566e-11
2.40298e-11
1.47572e-11
8.92236e-12
5.3059e-12
3.10025e-12
1.77798e-12
9.99702e-13
5.50498e-13
2.96574e-13
1.56176e-13
8.0338e-14
4.03627e-14
1.98218e-14
9.54256e-15
4.53708e-15
2.16652e-15
1.07488e-15
5.86321e-16
3.73874e-16
2.84099e-16
2.47209e-16
2.32436e-16
2.26636e-16
2.24371e-16
2.23459e-16
2.23057e-16
2.22845e-16
2.22707e-16
2.22602e-16
2.22515e-16
2.2244e-16
2.22375e-16
2.22321e-16
2.22272e-16
2.22234e-16
2.22198e-16
2.22171e-16
2.22148e-16
2.22125e-16
2.22115e-16
2.22095e-16
2.22089e-16
2.23317e-16
2.29199e-16
2.44433e-16
2.76774e-16
3.43036e-16
4.77207e-16
7.62685e-16
1.3878e-15
2.86272e-15
6.35681e-15
1.51792e-14
3.62045e-14
8.91836e-14
2.02619e-13
5.83913e-13
9.53103e-13
2.38372e-12
2.66454e-12
2.88253e-12
3.63382e-12
8.1363e-07
1.87683e-06
2.61256e-06
3.60607e-06
4.80086e-06
6.70699e-06
9.78682e-06
1.41742e-05
2.06054e-05
3.06513e-05
4.55321e-05
6.37e-05
8.46703e-05
0.000112154
0.000142208
0.000177713
0.000212488
0.000241467
0.000273359
0.000317776
0.00036296
0.000401598
0.000441513
0.00048457
0.000534673
0.000584393
0.000622199
0.000664025
0.000726344
0.000816774
0.000956061
0.00117488
0.00151062
0.00198787
0.00259888
0.00329413
0.00398378
0.00448514
0.00473067
0.00479195
0.00432306
0.00358043
0.00290842
0.00222168
0.00166702
0.0010851
0.000786698
0.000524888
0.000408593
0.000345739
0.000316143
0.000297763
0.000279251
0.000253612
0.000222929
0.000193833
0.000170405
0.00015026
0.000132616
0.000116039
9.93146e-05
8.39859e-05
7.25175e-05
6.42628e-05
5.79819e-05
5.28384e-05
4.67562e-05
3.76449e-05
2.72416e-05
1.90307e-05
1.31862e-05
9.18176e-06
6.52396e-06
4.77948e-06
3.61419e-06
2.79305e-06
2.19013e-06
1.76092e-06
1.4758e-06
1.29006e-06
1.16607e-06
1.07229e-06
9.86033e-07
8.95665e-07
7.9737e-07
6.97185e-07
5.99095e-07
5.06366e-07
4.21502e-07
3.45974e-07
2.80371e-07
2.24513e-07
1.77885e-07
1.39741e-07
1.08899e-07
8.422e-08
6.46571e-08
4.92824e-08
3.72964e-08
2.80239e-08
2.09047e-08
1.54794e-08
1.13759e-08
8.29582e-09
6.00174e-09
4.30666e-09
3.06436e-09
2.16152e-09
1.51103e-09
1.0465e-09
7.17819e-10
4.87455e-10
3.27586e-10
2.17769e-10
1.43134e-10
9.29694e-11
5.96407e-11
3.77641e-11
2.35856e-11
1.45181e-11
8.80024e-12
5.24805e-12
3.07599e-12
1.77009e-12
9.98999e-13
5.52369e-13
2.98915e-13
1.58173e-13
8.17906e-14
4.13211e-14
2.04105e-14
9.88309e-15
4.7229e-15
2.26221e-15
1.12157e-15
6.07731e-16
3.82853e-16
2.87266e-16
2.47798e-16
2.31954e-16
2.25771e-16
2.23426e-16
2.22561e-16
2.22248e-16
2.22137e-16
2.22097e-16
2.22081e-16
2.22073e-16
2.22068e-16
2.22065e-16
2.22062e-16
2.22059e-16
2.22057e-16
2.22054e-16
2.22053e-16
2.22051e-16
2.2205e-16
2.22049e-16
2.22048e-16
2.22048e-16
2.22155e-16
2.25558e-16
2.3657e-16
2.61283e-16
3.1332e-16
4.14747e-16
6.25917e-16
1.07269e-15
2.08822e-15
4.38956e-15
9.93759e-15
2.24259e-14
5.31025e-14
1.10101e-13
2.75286e-13
4.71602e-13
6.18858e-13
7.5145e-13
8.46265e-13
1.15341e-12
8.02729e-07
1.8714e-06
2.48935e-06
3.36232e-06
4.58835e-06
6.66404e-06
1.01812e-05
1.61861e-05
2.61776e-05
4.11628e-05
6.09057e-05
8.48664e-05
0.000110675
0.000139114
0.000172756
0.000209496
0.000241065
0.000273855
0.00031774
0.000361777
0.000411447
0.000469644
0.00052284
0.000571557
0.000622176
0.000675187
0.000745039
0.00084921
0.00103074
0.00133231
0.00185291
0.00270765
0.00402887
0.00587681
0.00813949
0.0105769
0.0127952
0.0138899
0.0142778
0.0135425
0.0122279
0.0102264
0.00792002
0.00611401
0.00480016
0.00316407
0.00224354
0.00126384
0.000793677
0.000513771
0.000369979
0.000301366
0.00027393
0.000254407
0.000226057
0.000193857
0.000165808
0.000146173
0.000132531
0.000118736
0.000105172
9.20037e-05
7.8469e-05
6.68591e-05
5.9181e-05
5.41316e-05
5.05292e-05
4.70251e-05
4.15344e-05
3.2157e-05
2.21667e-05
1.47975e-05
9.69073e-06
6.3636e-06
4.28173e-06
2.9966e-06
2.18769e-06
1.64832e-06
1.26677e-06
1.00232e-06
8.2439e-07
6.96884e-07
6.02605e-07
5.37727e-07
4.9417e-07
4.57212e-07
4.18125e-07
3.73595e-07
3.2633e-07
2.79261e-07
2.34319e-07
1.93231e-07
1.56694e-07
1.25413e-07
9.91913e-08
7.76068e-08
6.01174e-08
4.61397e-08
3.51032e-08
2.64835e-08
1.9818e-08
1.47113e-08
1.08333e-08
7.9136e-09
5.73377e-09
4.11998e-09
2.93534e-09
2.07316e-09
1.45113e-09
1.00636e-09
6.91244e-10
4.70099e-10
3.16414e-10
2.10692e-10
1.38729e-10
9.02817e-11
5.80369e-11
3.68316e-11
2.306e-11
1.4233e-11
8.65312e-12
5.17726e-12
3.04547e-12
1.7595e-12
9.97359e-13
5.54099e-13
3.01415e-13
1.604e-13
8.34489e-14
4.24346e-14
2.11048e-14
1.02911e-14
4.9512e-15
2.38449e-15
1.1843e-15
6.38614e-16
3.97439e-16
2.93844e-16
2.5061e-16
2.33094e-16
2.26202e-16
2.23567e-16
2.22589e-16
2.22235e-16
2.2211e-16
2.22067e-16
2.22053e-16
2.22048e-16
2.22046e-16
2.22046e-16
2.22045e-16
2.22045e-16
2.22045e-16
2.22045e-16
2.22045e-16
2.22045e-16
2.22045e-16
2.22045e-16
2.22045e-16
2.22045e-16
2.22048e-16
2.23058e-16
2.29226e-16
2.45377e-16
2.81025e-16
3.5091e-16
4.9315e-16
7.82543e-16
1.40815e-15
2.74788e-15
5.76897e-15
1.20618e-14
2.93506e-14
5.06685e-14
1.19022e-13
1.3664e-13
1.51915e-13
1.86013e-13
2.13006e-13
3.04645e-13
7.79597e-07
1.87295e-06
2.46079e-06
3.207e-06
4.38954e-06
6.58043e-06
1.06054e-05
1.76779e-05
2.88824e-05
4.50071e-05
6.67939e-05
9.4899e-05
0.000130296
0.000173084
0.000216951
0.000249447
0.000279283
0.000318312
0.000360312
0.000411574
0.000450963
0.000494729
0.000555797
0.000620088
0.000693095
0.000787469
0.000941614
0.00120569
0.00167871
0.00255109
0.00417266
0.00710985
0.0108863
0.0157844
0.0207695
0.0256483
0.0299968
0.0320405
0.0326766
0.0295264
0.025545
0.0202042
0.0146682
0.0111262
0.0083314
0.00603593
0.00444701
0.00317339
0.00189837
0.00113127
0.000687764
0.000445468
0.000322617
0.000268218
0.000237864
0.000199642
0.000164005
0.000136259
0.000117642
0.000109468
0.000102956
9.33491e-05
8.24296e-05
7.15039e-05
6.13414e-05
5.4404e-05
5.04975e-05
4.78826e-05
4.56146e-05
4.25558e-05
3.61337e-05
2.59544e-05
1.69528e-05
1.06665e-05
6.5842e-06
4.09055e-06
2.62537e-06
1.77224e-06
1.26102e-06
9.32337e-07
7.08468e-07
5.59444e-07
4.53629e-07
3.72448e-07
3.11048e-07
2.66471e-07
2.3674e-07
2.17951e-07
2.02607e-07
1.85912e-07
1.66088e-07
1.44597e-07
1.22833e-07
1.02199e-07
8.34793e-08
6.70636e-08
5.30742e-08
4.14377e-08
3.19565e-08
2.43678e-08
1.83872e-08
1.37382e-08
1.01683e-08
7.45769e-09
5.42094e-09
3.90562e-09
2.78897e-09
1.9738e-09
1.3842e-09
9.61711e-10
6.6179e-10
4.50906e-10
3.04077e-10
2.02881e-10
1.33867e-10
8.73124e-11
5.62622e-11
3.57967e-11
2.24746e-11
1.39146e-11
8.48901e-12
5.09896e-12
3.01255e-12
1.74892e-12
9.96646e-13
5.56951e-13
3.0492e-13
1.63413e-13
8.56753e-14
4.39335e-14