/*--------------------------------*- C++ -*----------------------------------*\
  =========                 |
  \\      /  F ield         | OpenFOAM: The Open Source CFD Toolbox
   \\    /   O peration     | Website:  https://openfoam.org
    \\  /    A nd           | Version:  7
     \\/     M anipulation  |
\*---------------------------------------------------------------------------*/
FoamFile
{
    version     2.0;
    format      ascii;
    class       volScalarField;
    location    "0.021";
    object      nut;
}
// * * * * * * * * * * * * * * * * * * * * * * * * * * * * * * * * * * * * * //

dimensions      [0 2 -1 0 0 0 0];

internalField   nonuniform List<scalar> 
12225
(
0
0
0
0
0
0
0
0
0
0
0
0
0
0
0
0
0
0
0
0
0
0
0
0
0
0
2.67218e-11
0
0
0
0
0
0
0
0
0
0
5.23334e-10
3.52271e-11
0
0
0
0
0
2.15308e-11
0
0
0
0
0
0
0
0
0
0
1.93704e-08
1.06859e-08
3.65705e-09
1.94509e-09
1.36838e-10
0
0
0
0
0
0
0
0
0
0
0
0
4.83308e-07
6.73651e-07
4.25152e-07
1.13029e-07
0
0
0
0
0
0
0
0
0
0
1.42723e-10
0
6.38914e-10
0
6.02707e-07
6.90692e-07
4.52248e-07
1.92579e-07
0
0
7.46149e-11
5.12092e-08
6.44794e-08
4.82413e-08
2.63839e-08
8.54461e-09
0
0
0
0
2.55276e-09
2.2778e-09
5.52425e-07
2.13438e-07
2.35221e-07
3.47515e-07
3.33633e-07
1.0702e-07
0
1.34244e-08
3.65971e-08
0
0
0
0
0
0
5.0849e-10
2.00125e-08
2.41553e-08
2.21787e-07
6.56655e-08
2.89906e-07
4.31714e-07
5.45648e-07
4.06074e-07
1.46545e-07
6.08125e-08
0
0
0
0
0
1.43429e-07
7.96697e-08
2.58907e-08
1.62069e-08
1.73378e-08
3.1695e-07
3.04613e-07
4.24926e-07
3.856e-07
3.7061e-07
5.46581e-07
6.24715e-07
3.07824e-07
2.73866e-08
0
0
0
1.43205e-07
4.14122e-07
5.70545e-07
2.5979e-07
8.28617e-08
4.99244e-08
3.25956e-07
6.02418e-07
6.69029e-07
4.87999e-07
2.98558e-07
3.16476e-07
3.07343e-07
1.33784e-07
0
0
8.10177e-10
1.04571e-07
1.69121e-07
1.92209e-07
2.00587e-07
1.77139e-07
9.87794e-08
2.15505e-08
3.02151e-07
4.33498e-07
5.20194e-07
4.81476e-07
2.76692e-07
1.53523e-07
6.67356e-08
0
0
0
3.18327e-08
1.01657e-07
1.28411e-07
1.17102e-07
8.34724e-08
3.79985e-08
0
0
2.60395e-07
3.63089e-07
3.79481e-07
4.06065e-07
2.97067e-07
2.38556e-07
1.24795e-07
0
0
0
1.07642e-08
6.14058e-08
7.80983e-08
6.64278e-08
3.55842e-08
0
0
0
0
0
2.88721e-07
6.17667e-08
5.86103e-07
7.8246e-07
5.06506e-07
1.61718e-07
0
0
0
4.17253e-08
4.5595e-08
2.26862e-08
0
0
0
0
0
0
0
1.32192e-07
4.35521e-07
7.52656e-07
6.69619e-07
4.01609e-07
0
0
0
0
0
0
0
0
0
0
0
0
0
0
3.49366e-07
6.05629e-07
8.17618e-07
4.01258e-07
0
0
0
0
0
0
0
0
0
0
8.06212e-08
0
0
0
0
1.20964e-07
1.60953e-08
0
2.21862e-07
2.09669e-07
7.79498e-08
0
0
0
0
0
0
0
3.90694e-07
7.40697e-08
0
0
0
0
0
0
3.47093e-07
8.15142e-07
7.7733e-07
5.70959e-07
2.74613e-07
0
0
0
0
0
1.31143e-06
9.97784e-07
0
0
0
0
0
0
1.26325e-07
5.08288e-07
1.08136e-09
0
0
0
0
0
1.82423e-08
5.75506e-08
1.1938e-06
9.61378e-07
0
0
0
0
0
0
0
0
0
0
0
0
0
0
0
4.85689e-08
8.54978e-07
3.38721e-07
3.27385e-08
0
0
0
0
0
0
0
0
0
0
0
0
0
0
0
3.17887e-07
7.41856e-07
3.57663e-07
0
0
0
0
0
0
0
0
0
0
0
0
0
0
0
0
1.13657e-08
0
0
0
0
0
0
0
0
0
0
0
0
0
0
0
0
0
0
0
0
0
0
3.13194e-08
0
0
0
0
0
0
0
0
0
0
2.46146e-08
0
0
0
0
0
0
8.83415e-08
4.85633e-08
0
0
0
0
0
2.52752e-08
6.85616e-08
7.52555e-08
5.48109e-08
2.2861e-08
7.07835e-09
3.74788e-08
0
0
0
0
4.14912e-08
2.95515e-08
0
0
0
2.4584e-09
1.7723e-08
2.65823e-08
2.63644e-08
4.03141e-09
0
0
2.32124e-07
1.09154e-08
0
5.65039e-08
0
0
0
0
0
2.59288e-08
3.60667e-08
2.87895e-08
0
0
0
0
0
0
1.20499e-07
0
0
0
0
0
0
0
0
0
0
0
0
0
0
0
0
0
6.24774e-09
0
0
0
0
0
0
0
0
0
0
0
0
0
0
0
0
0
6.95942e-09
0
0
0
0
0
0
0
0
0
0
0
0
0
0
0
0
0
5.45464e-08
0
0
0
0
0
0
0
0
0
0
0
0
0
0
0
0
0
0
0
0
0
0
1.13053e-08
3.7406e-08
3.94995e-08
2.585e-08
5.12244e-09
0
0
0
0
0
0
0
0
0
1.3362e-08
2.88499e-08
4.25592e-08
5.34611e-08
6.11446e-08
6.55311e-08
6.66464e-08
6.46239e-08
5.98298e-08
5.33204e-08
4.62027e-08
3.77691e-08
2.86558e-08
2.19712e-08
1.54447e-08
9.94946e-09
6.12839e-09
3.10049e-09
6.20531e-10
0
0
0
0
0
0
0
0
0
0
0
0
0
0
0
0
0
0
0
0
0
0
0
0
0
0
0
0
0
0
0
0
0
0
0
0
0
0
0
0
0
0
0
0
0
0
0
0
0
0
0
0
0
0
0
0
0
0
0
0
0
0
0
0
0
0
0
0
0
0
0
0
0
0
0
0
0
0
0
0
0
0
0
0
0
0
0
0
0
0
0
0
0
0
0
0
0
0
0
0
0
0
0
0
0
0
0
0
0
0
0
0
0
0
0
0
0
0
0
0
0
0
0
0
0
0
0
0
0
0
0
0
0
0
0
0
0
0
0
0
0
0
0
0
0
0
4.0061e-08
1.06633e-07
1.57684e-07
1.89642e-07
2.04419e-07
2.05989e-07
1.97199e-07
1.80284e-07
1.58093e-07
1.33464e-07
1.08441e-07
8.55041e-08
6.64183e-08
5.23217e-08
4.34382e-08
3.91345e-08
3.80699e-08
3.87283e-08
3.98224e-08
4.06262e-08
4.07388e-08
4.00139e-08
3.8602e-08
3.6679e-08
3.45389e-08
3.21021e-08
2.93956e-08
2.64216e-08
2.33494e-08
1.98519e-08
1.58787e-08
1.16528e-08
6.79074e-09
1.53762e-09
0
0
0
0
0
0
0
0
0
0
0
0
0
0
0
0
0
0
0
0
0
0
0
0
1.37181e-08
3.39305e-08
2.49571e-08
2.84174e-09
0
0
0
0
0
0
0
0
0
0
0
0
0
0
0
0
0
0
0
0
0
0
0
0
0
0
0
0
0
0
0
0
0
0
0
0
0
0
0
0
0
0
0
0
0
0
0
0
0
0
0
0
0
0
0
0
0
0
0
0
0
0
0
0
0
0
0
0
0
0
0
0
0
0
0
0
0
0
0
0
0
0
0
0
0
0
0
0
0
0
0
0
0
0
0
0
0
0
0
0
0
0
0
0
0
0
0
0
0
0
0
0
0
0
0
0
0
0
0
0
0
0
0
3.37108e-09
1.89468e-08
2.91854e-08
3.48772e-08
3.65904e-08
3.49308e-08
3.06326e-08
2.4435e-08
1.70523e-08
9.15964e-09
1.48638e-09
0
0
0
0
0
0
0
5.94304e-09
1.34345e-08
2.05039e-08
2.62036e-08
2.96919e-08
3.04339e-08
2.83075e-08
2.36433e-08
1.72036e-08
9.81127e-09
1.88611e-09
0
0
0
0
0
0
0
0
0
0
0
0
0
0
0
0
1.7541e-10
2.12124e-08
4.01753e-08
5.61721e-08
6.87234e-08
7.7427e-08
8.24631e-08
8.43508e-08
8.27069e-08
7.60925e-08
6.49611e-08
5.10715e-08
3.55948e-08
1.95647e-08
4.33113e-09
0
0
0
0
0
0
0
0
0
0
0
0
0
0
0
0
0
0
0
0
0
0
0
0
0
0
0
0
0
0
0
0
0
0
0
0
0
0
0
0
0
0
0
0
0
0
0
0
0
0
0
0
0
0
0
0
0
0
0
0
0
0
0
0
0
0
0
0
0
0
0
0
0
0
0
0
0
0
0
0
0
0
0
0
0
0
0
0
0
0
0
0
0
0
0
0
0
0
0
0
0
0
0
0
0
0
0
0
0
0
0
0
0
0
0
0
0
0
0
0
0
0
0
0
0
0
0
0
0
0
0
0
0
0
0
0
0
0
0
0
0
0
0
0
0
0
0
0
0
0
9.66841e-08
1.8173e-07
2.45481e-07
2.89201e-07
3.16459e-07
3.28464e-07
3.26768e-07
3.21953e-07
3.13879e-07
2.96358e-07
2.80339e-07
2.67454e-07
2.46233e-07
2.319e-07
2.13644e-07
1.97125e-07
1.8062e-07
1.6491e-07
1.50027e-07
1.36069e-07
1.22894e-07
1.1106e-07
1.01457e-07
9.34362e-08
8.47535e-08
7.5841e-08
6.78318e-08
6.05745e-08
5.39149e-08
4.7752e-08
4.20063e-08
3.66342e-08
3.16112e-08
2.69137e-08
2.25001e-08
1.83392e-08
1.44189e-08
1.07385e-08
7.29309e-09
4.07401e-09
1.10992e-09
0
0
0
0
0
0
0
0
0
0
0
0
0
0
0
0
0
0
0
0
0
0
0
0
0
0
0
0
0
0
0
0
0
0
1.96567e-13
3.32391e-13
3.6372e-13
3.30265e-13
2.83082e-13
2.38847e-13
2.00984e-13
1.66865e-13
1.36415e-13
1.09898e-13
8.73187e-14
6.87534e-14
5.40552e-14
4.26624e-14
3.38289e-14
2.6865e-14
2.12722e-14
1.67394e-14
1.30824e-14
1.01716e-14
7.89411e-15
6.14151e-15
4.81293e-15
3.81813e-15
3.07861e-15
2.52925e-15
2.12055e-15
1.81531e-15
1.58585e-15
1.41197e-15
1.27898e-15
1.17628e-15
1.09638e-15
1.03353e-15
9.83225e-16
9.42266e-16
9.08272e-16
8.79439e-16
8.54295e-16
8.32235e-16
8.11602e-16
7.92739e-16
7.72295e-16
7.53977e-16
7.29158e-16
7.09554e-16
6.73971e-16
6.51477e-16
5.9586e-16
5.69929e-16
4.79105e-16
4.53198e-16
2.99893e-16
2.86508e-16
3.14309e-17
3.83008e-17
0
0
0
0
0
0
1.23787e-15
0
3.38132e-14
0
0
0
0
0
0
0
0
0
0
0
0
0
0
0
0
0
0
0
0
0
0
0
0
0
0
0
0
0
0
0
0
0
0
0
0
0
0
0
0
9.72669e-08
1.93885e-07
2.72846e-07
3.30324e-07
3.62534e-07
3.7632e-07
3.743e-07
3.68192e-07
3.47401e-07
3.21568e-07
3.0232e-07
2.81793e-07
2.57701e-07
2.40999e-07
2.20143e-07
2.01978e-07
1.83762e-07
1.66653e-07
1.50605e-07
1.35597e-07
1.21599e-07
1.09325e-07
9.93568e-08
9.04991e-08
8.09326e-08
7.15253e-08
6.35062e-08
5.69301e-08
5.13247e-08
4.64329e-08
4.19538e-08
3.76862e-08
3.36243e-08
2.98287e-08
2.63019e-08
2.3049e-08
2.00702e-08
1.73591e-08
1.49057e-08
1.26976e-08
1.07219e-08
8.96467e-09
7.41113e-09
6.04588e-09
4.85348e-09
3.8184e-09
2.92654e-09
2.16455e-09
1.51946e-09
9.79148e-10
5.31954e-10
1.67018e-10
0
0
0
0
0
0
0
0
0
0
0
0
0
0
0
0
0
0
0
0
0
0
0
0
0
0
0
0
0
0
3.94911e-13
1.49111e-12
1.83428e-12
1.79464e-12
1.58776e-12
1.33153e-12
1.08356e-12
8.67914e-13
6.9084e-13
5.50112e-13
4.39958e-13
3.53967e-13
2.86412e-13
2.32815e-13
1.89835e-13
1.55078e-13
1.26794e-13
1.03756e-13
8.5008e-14
6.97972e-14
5.74944e-14
4.75646e-14
3.95796e-14
3.31704e-14
2.80245e-14
2.39039e-14
2.06009e-14
1.79354e-14
1.57822e-14
1.40368e-14
1.26002e-14
1.14005e-14
1.03952e-14
9.53277e-15
8.77171e-15
8.06623e-15
7.41795e-15
6.77357e-15
6.14838e-15
5.45222e-15
4.74057e-15
3.89985e-15
2.99148e-15
1.93677e-15
6.40227e-16
0
0
0
0
0
0
0
0
1.39744e-13
0
4.19629e-12
0
2.39804e-11
0
0
0
0
0
0
0
0
0
0
0
0
0
0
0
0
0
0
0
0
0
0
0
0
0
0
0
0
0
0
0
0
0
0
0
0
0
0
0
0
1.06666e-07
2.06716e-07
2.9164e-07
3.58904e-07
4.00341e-07
4.22189e-07
4.35082e-07
4.32062e-07
4.15235e-07
3.90013e-07
3.61669e-07
3.27816e-07
2.97158e-07
2.68616e-07
2.42445e-07
2.1851e-07
1.95977e-07
1.75079e-07
1.56097e-07
1.38938e-07
1.23822e-07
1.11397e-07
1.01132e-07
9.07736e-08
7.98282e-08
6.97378e-08
6.11631e-08
5.37595e-08
4.72896e-08
4.16377e-08
3.69282e-08
3.31384e-08
3.00302e-08
2.72486e-08
2.45881e-08
2.1946e-08
1.93992e-08
1.69998e-08
1.47648e-08
1.27071e-08
1.08312e-08
9.13588e-09
7.61666e-09
6.26645e-09
5.07624e-09
4.03571e-09
3.13325e-09
2.35736e-09
1.69628e-09
1.13914e-09
6.749e-10
2.93695e-10
0
0
0
0
0
0
0
0
0
0
0
0
0
0
0
0
0
0
0
0
0
0
0
0
0
0
0
0
0
0
0
0
0
0
0
0
0
0
0
0
0
0
0
0
0
0
0
0
0
0
0
0
0
0
0
0
0
0
0
0
0
0
0
0
0
0
0
0
0
0
0
0
0
0
3.15435e-15
5.36754e-14
1.4082e-13
4.12411e-13
1.05964e-12
3.04075e-12
6.01598e-12
1.32572e-11
1.84097e-11
3.48304e-11
3.00818e-11
6.78891e-11
3.70684e-12
3.16174e-11
0
0
0
0
0
0
0
0
0
0
0
0
0
0
0
0
0
0
0
0
0
0
0
0
0
0
0
0
0
0
0
0
0
0
0
0
0
0
0
0
0
8.51563e-09
6.0827e-08
1.17593e-07
1.71132e-07
2.24146e-07
2.80945e-07
3.28995e-07
3.6727e-07
3.85081e-07
3.83383e-07
3.64462e-07
3.37259e-07
3.057e-07
2.73788e-07
2.43526e-07
2.14966e-07
1.8776e-07
1.63017e-07
1.41622e-07
1.24465e-07
1.11857e-07
1.01949e-07
9.19032e-08
8.13211e-08
7.09523e-08
6.17046e-08
5.34286e-08
4.61682e-08
3.99201e-08
3.45443e-08
2.99131e-08
2.59254e-08
2.26379e-08
2.0062e-08
1.80925e-08
1.63915e-08
1.475e-08
1.30878e-08
1.1456e-08
9.90717e-09
8.45973e-09
7.12628e-09
5.9138e-09
4.82469e-09
3.85805e-09
3.00987e-09
2.27431e-09
1.64358e-09
1.10965e-09
6.63308e-10
2.96007e-10
0
0
0
0
0
0
0
0
0
0
0
0
0
0
0
0
0
0
0
0
0
0
0
0
0
0
0
0
0
0
0
0
0
0
0
0
0
0
0
0
0
0
0
0
0
0
0
0
0
0
0
0
0
0
0
0
0
0
0
0
0
0
0
0
0
0
0
0
0
1.34468e-13
2.74053e-13
3.94509e-13
4.9063e-13
6.23846e-13
7.7512e-13
1.07139e-12
1.4569e-12
2.26086e-12
3.25429e-12
5.40018e-12
7.561e-12
1.26189e-11
1.53942e-11
2.60794e-11
2.04446e-11
3.64166e-11
0
1.79114e-13
0
0
0
0
0
0
0
0
0
0
0
0
0
0
0
0
0
0
0
0
0
0
0
0
0
0
0
0
0
0
0
0
0
0
0
5.13702e-09
0
0
0
0
0
0
0
0
0
0
0
0
3.74292e-09
1.36759e-07
2.48356e-07
3.12421e-07
3.31974e-07
3.21961e-07
2.96798e-07
2.651e-07
2.33756e-07
2.03941e-07
1.7622e-07
1.50847e-07
1.28909e-07
1.1064e-07
9.51219e-08
8.2695e-08
7.43261e-08
6.89113e-08
6.33904e-08
5.643e-08
4.90035e-08
4.18827e-08
3.53851e-08
2.9802e-08
2.51842e-08
2.13703e-08
1.81786e-08
1.55048e-08
1.3374e-08
1.1753e-08
1.05231e-08
9.45863e-09
8.42413e-09
7.38736e-09
6.3689e-09
5.39943e-09
4.4923e-09
3.65805e-09
2.9039e-09
2.23342e-09
1.64678e-09
1.14183e-09
7.14081e-10
3.58047e-10
6.71258e-11
0
0
0
0
0
0
0
0
0
0
0
0
0
0
0
0
0
0
0
0
0
0
0
0
0
0
0
0
0
0
0
0
0
0
0
0
0
0
0
0
0
0
0
0
0
0
0
0
0
0
0
0
0
0
0
0
0
0
0
0
0
0
0
0
0
0
0
0
5.07009e-14
1.73972e-13
2.83744e-13
3.71459e-13
4.83242e-13
6.04873e-13
8.28952e-13
1.11542e-12
1.68776e-12
2.38584e-12
3.80713e-12
5.20285e-12
8.16452e-12
9.51464e-12
1.50537e-11
1.00734e-11
1.18809e-11
0
0
0
0
0
0
0
0
0
0
0
0
0
0
0
0
0
0
0
0
0
0
0
0
0
0
0
0
0
0
0
0
0
0
0
0
0
0
0
0
0
0
0
1.2549e-07
2.61482e-07
2.65552e-07
1.37877e-07
0
0
0
0
0
0
2.6552e-08
1.9245e-07
2.71702e-07
2.87788e-07
2.69178e-07
2.38868e-07
2.09305e-07
1.83778e-07
1.62941e-07
1.42862e-07
1.20049e-07
9.67785e-08
7.7441e-08
6.33612e-08
5.45941e-08
5.08237e-08
5.00792e-08
4.87576e-08
4.46454e-08
3.89354e-08
3.27307e-08
2.68856e-08
2.19379e-08
1.79952e-08
1.4906e-08
1.24288e-08
1.03981e-08
8.76944e-09
7.51449e-09
6.54128e-09
5.75384e-09
5.06774e-09
4.42329e-09
3.79496e-09
3.17847e-09
2.59105e-09
2.04416e-09
1.54635e-09
1.10335e-09
7.17734e-10
3.89354e-10
1.15987e-10
0
0
0
0
0
0
0
0
0
0
0
0
0
0
0
0
0
0
0
0
0
0
0
0
0
0
0
0
0
0
0
0
0
0
0
0
0
0
0
0
0
0
0
0
0
0
0
0
0
0
0
0
0
0
0
0
0
0
0
0
0
0
0
0
0
0
0
0
0
9.10802e-14
1.85679e-13
2.61036e-13
3.48468e-13
4.37186e-13
5.87883e-13
7.75798e-13
1.13208e-12
1.55869e-12
2.36478e-12
3.11148e-12
4.55654e-12
4.86922e-12
6.37678e-12
3.22409e-12
7.1039e-13
0
0
0
0
0
0
0
0
0
0
0
0
0
0
0
0
0
0
0
0
0
0
0
0
0
0
0
0
0
0
0
0
0
0
0
0
0
0
1.33132e-07
3.05226e-07
3.26257e-07
4.40429e-07
8.52403e-07
1.44094e-06
1.87857e-06
1.98113e-06
1.81583e-06
1.44934e-06
8.39681e-07
2.0561e-07
0
0
0
0
0
8.70997e-08
2.14513e-07
2.43266e-07
2.24924e-07
1.95966e-07
1.72853e-07
1.57393e-07
1.42331e-07
1.25332e-07
1.06681e-07
8.61666e-08
6.61233e-08
4.98797e-08
3.88508e-08
3.36432e-08
3.37679e-08
3.68296e-08
3.81795e-08
3.55981e-08
3.07709e-08
2.51315e-08
1.99345e-08
1.57252e-08
1.25266e-08
1.01304e-08
8.28586e-09
6.81403e-09
5.65565e-09
4.75802e-09
4.03029e-09
3.42313e-09
2.92227e-09
2.4994e-09
2.11024e-09
1.73335e-09
1.36565e-09
1.01782e-09
6.99228e-10
4.15651e-10
1.70714e-10
0
0
0
0
0
0
0
0
0
0
0
0
0
0
0
0
0
0
0
0
0
0
0
0
0
0
0
0
0
0
0
0
0
0
0
0
0
0
0
0
0
0
0
0
0
0
0
0
0
0
0
0
0
0
0
0
0
0
0
0
0
0
0
0
0
0
0
0
0
1.96273e-14
9.90234e-14
1.61489e-13
2.26055e-13
2.86158e-13
3.77019e-13
4.83741e-13
6.73071e-13
8.87144e-13
1.2562e-12
1.54144e-12
2.12136e-12
1.82677e-12
1.727e-12
0
0
0
0
0
0
0
0
0
0
0
0
0
0
0
0
0
0
0
0
0
0
0
0
0
0
0
0
0
0
0
0
0
0
0
0
0
5.20334e-08
1.11136e-06
2.76492e-06
4.30247e-06
4.12482e-06
1.35361e-06
0
0
0
2.79264e-07
1.4362e-06
2.03405e-06
2.14728e-06
1.89559e-06
1.41261e-06
6.83883e-07
0
0
0
0
0
4.09179e-08
1.74209e-07
1.94472e-07
1.74199e-07
1.49064e-07
1.29467e-07
1.17766e-07
1.09785e-07
1.01811e-07
9.13677e-08
7.65385e-08
5.81483e-08
4.05929e-08
2.73673e-08
2.00382e-08
1.89353e-08
2.31297e-08
2.89422e-08
3.0916e-08
2.83791e-08
2.35896e-08
1.84572e-08
1.40799e-08
1.07509e-08
8.34663e-09
6.61506e-09
5.31851e-09
4.31132e-09
3.53956e-09
2.92317e-09
2.40607e-09
1.97342e-09
1.61434e-09
1.31829e-09
1.0671e-09
8.35722e-10
6.13019e-10
3.99646e-10
2.02814e-10
2.81489e-11
0
0
0
0
0
0
0
0
0
0
0
0
0
0
0
0
0
0
0
0
0
0
0
0
0
0
0
0
0
0
0
0
0
0
0
0
0
0
0
0
0
0
0
0
0
0
0
0
0
0
0
0
0
0
0
0
0
0
0
0
0
0
0
0
0
0
0
0
0
1.83217e-14
6.94754e-14
1.1585e-13
1.53283e-13
2.00974e-13
2.46923e-13
3.23315e-13
3.90553e-13
4.91919e-13
5.38922e-13
5.02673e-13
2.01596e-13
0
0
0
0
0
0
0
0
0
0
0
0
0
0
0
0
0
0
0
0
0
0
0
0
0
0
0
0
0
0
0
0
0
0
0
0
0
1.54891e-07
1.63486e-06
4.90947e-06
1.06927e-05
1.86072e-05
2.08849e-05
0
0
0
0
0
0
0
6.77998e-07
1.02595e-06
1.16186e-06
1.06681e-06
6.30273e-07
0
0
0
0
0
6.21798e-08
1.52914e-07
1.49282e-07
1.24769e-07
1.03906e-07
8.95749e-08
8.15109e-08
7.85205e-08
7.70823e-08
7.36798e-08
6.53689e-08
5.10716e-08
3.39058e-08
1.89745e-08
9.84715e-09
7.36584e-09
1.10402e-08
1.88574e-08
2.49885e-08
2.5345e-08
2.18944e-08
1.71551e-08
1.279e-08
9.39729e-09
6.97698e-09
5.3088e-09
4.1436e-09
3.28585e-09
2.64527e-09
2.14759e-09
1.72855e-09
1.3783e-09
1.08691e-09
8.45646e-10
6.46374e-10
4.80093e-10
3.35339e-10
2.00623e-10
7.27701e-11
0
0
0
0
0
0
0
0
0
0
0
0
0
0
0
0
0
0
0
0
0
0
0
0
0
0
0
0
0
0
0
0
0
0
0
0
0
0
0
0
0
0
0
0
0
0
0
0
0
0
0
0
0
0
0
0
0
0
0
0
0
0
0
0
0
0
0
0
0
0
0
2.32799e-14
4.62093e-14
6.62824e-14
7.82317e-14
8.9895e-14
8.96232e-14
7.4854e-14
1.84184e-14
0
0
0
0
0
0
0
0
0
0
2.78979e-10
5.48239e-10
0
0
0
0
0
0
0
0
0
0
0
0
0
0
0
0
0
0
0
0
0
0
0
0
0
0
0
7.583e-07
3.30549e-06
8.80508e-06
1.87461e-05
3.33783e-05
3.76674e-05
0
0
0
0
0
0
0
0
9.9457e-08
2.51553e-07
4.9226e-07
6.06451e-07
3.88361e-07
0
0
0
0
0
1.25096e-07
1.35231e-07
1.04519e-07
8.06599e-08
6.79215e-08
6.07991e-08
5.60451e-08
5.3333e-08
5.31468e-08
5.42336e-08
5.25008e-08
4.38486e-08
2.89033e-08
1.29988e-08
2.27312e-09
0
1.70529e-09
9.86799e-09
1.87916e-08
2.18863e-08
1.99331e-08
1.58126e-08
1.16451e-08
8.30334e-09
5.90906e-09
4.29297e-09
3.2206e-09
2.48363e-09
1.95576e-09
1.57077e-09
1.25159e-09
9.77859e-10
7.48637e-10
5.6055e-10
4.07128e-10
2.81761e-10
1.77854e-10
8.91469e-11
9.47211e-12
0
0
0
0
0
0
0
0
0
0
0
0
0
0
0
0
0
0
0
0
0
0
0
0
0
0
0
0
0
0
0
0
0
0
0
0
0
0
0
0
0
0
0
0
0
0
0
0
0
0
0
0
0
0
0
0
0
0
0
0
0
0
0
0
0
0
0
0
0
0
0
0
0
0
0
0
0
0
0
0
0
0
0
0
0
0
8.64316e-10
2.33804e-09
4.45311e-09
7.59547e-09
1.34326e-08
1.34471e-08
1.28219e-08
1.3015e-08
1.38836e-08
1.55558e-08
1.76807e-08
1.99247e-08
2.14339e-08
2.07308e-08
1.73312e-08
1.22786e-08
5.46549e-09
0
0
0
0
0
0
0
0
0
0
0
0
0
0
2.35495e-07
1.41121e-06
3.26945e-06
4.4553e-06
2.21477e-07
0
0
0
0
0
0
0
0
0
0
0
7.2466e-08
2.95147e-07
3.5949e-07
1.7984e-07
0
0
0
0
1.21635e-07
1.27699e-07
9.06962e-08
6.28229e-08
4.97835e-08
4.46161e-08
4.15413e-08
3.80786e-08
3.43783e-08
3.25606e-08
3.46129e-08
3.79561e-08
3.60399e-08
2.52984e-08
9.48355e-09
0
0
0
2.61526e-09
1.29475e-08
1.83264e-08
1.78113e-08
1.44087e-08
1.05762e-08
7.40115e-09
5.09991e-09
3.54998e-09
2.54594e-09
1.89258e-09
1.44561e-09
1.13945e-09
9.08582e-10
7.0871e-10
5.36054e-10
3.9197e-10
2.75141e-10
1.82156e-10
1.07877e-10
4.77653e-11
0
0
0
0
0
0
0
0
0
0
0
0
0
0
0
0
0
0
0
0
0
0
0
0
0
0
0
0
0
0
0
0
0
0
0
0
0
0
0
0
0
0
0
0
0
0
0
0
0
0
0
0
0
0
0
0
0
0
0
0
0
0
0
0
0
0
0
0
0
0
0
0
0
0
0
0
0
0
0
0
0
0
0
0
0
0
4.40737e-08
3.03649e-08
1.66864e-08
1.49127e-08
2.02949e-08
2.55055e-08
2.91232e-08
3.50712e-08
4.46457e-08
5.62446e-08
7.03725e-08
8.60548e-08
1.00885e-07
1.13848e-07
1.24691e-07
1.29095e-07
1.29936e-07
1.30224e-07
1.29918e-07
1.31653e-07
1.36595e-07
1.29068e-07
9.67371e-08
4.11131e-08
0
0
0
0
1.76131e-08
0
0
0
0
0
0
0
0
0
0
0
0
0
0
0
0
0
0
0
9.43523e-08
1.97276e-07
2.06592e-07
1.53775e-07
0
0
2.44942e-08
1.42009e-07
1.13279e-07
7.01381e-08
4.41922e-08
3.36971e-08
3.14078e-08
3.10451e-08
2.93111e-08
2.54137e-08
1.99974e-08
1.5817e-08
1.70875e-08
2.38901e-08
2.85531e-08
2.29543e-08
7.97277e-09
0
0
0
0
8.5767e-09
1.55426e-08
1.60658e-08
1.32177e-08
9.69168e-09
6.70536e-09
4.52452e-09
3.05169e-09
2.10321e-09
1.50315e-09
1.11034e-09
8.45459e-10
6.65943e-10
5.2466e-10
4.02419e-10
2.96839e-10
2.0902e-10
1.3864e-10
8.4067e-11
4.22984e-11
9.85154e-12
0
0
0
0
0
0
0
0
0
0
0
0
0
0
0
0
0
0
0
0
0
0
0
0
0
0
0
0
0
0
0
0
0
0
0
0
0
0
0
0
0
0
0
0
0
0
0
0
0
0
0
0
0
0
0
0
0
0
0
0
0
0
0
0
0
0
0
0
0
0
0
0
0
0
0
0
0
0
0
0
0
0
0
0
8.54609e-07
3.22277e-07
8.15675e-08
2.70692e-08
2.09294e-08
3.03778e-08
3.96484e-08
5.19862e-08
6.71567e-08
8.76097e-08
1.13255e-07
1.42514e-07
1.70116e-07
1.97439e-07
2.22806e-07
2.4232e-07
2.54627e-07
2.6761e-07
2.77254e-07
2.8868e-07
2.99334e-07
2.85823e-07
2.37012e-07
1.5557e-07
7.56036e-08
5.45361e-08
1.28438e-07
2.83183e-07
4.64583e-07
5.26324e-07
1.18239e-07
0
0
0
0
0
0
0
0
0
8.61187e-06
8.39294e-06
4.94478e-06
2.16579e-06
6.64338e-07
0
0
0
0
8.0238e-08
1.90143e-07
3.86055e-07
0
0
1.76938e-07
1.67017e-07
8.41122e-08
3.87747e-08
2.0668e-08
1.62181e-08
1.86867e-08
2.29075e-08
2.46759e-08
2.30111e-08
1.82776e-08
1.13792e-08
5.67576e-09
6.2924e-09
1.4582e-08
2.27493e-08
1.98605e-08
5.30594e-09
0
0
0
0
8.1904e-09
1.47605e-08
1.49476e-08
1.20168e-08
8.61483e-09
5.82588e-09
3.82967e-09
2.49898e-09
1.65184e-09
1.12651e-09
7.96801e-10
5.78943e-10
4.32207e-10
3.27056e-10
2.44315e-10
1.76223e-10
1.20892e-10
7.70289e-11
4.31965e-11
1.78295e-11
0
0
0
0
0
0
0
0
0
0
0
0
0
0
0
0
0
0
0
0
0
0
0
0
0
0
0
0
0
0
0
0
0
0
0
0
0
0
0
0
0
0
0
0
0
0
0
0
0
0
0
0
0
0
0
0
0
0
0
0
0
0
0
0
0
0
0
0
0
0
0
0
0
0
0
0
0
0
0
0
0
0
0
0
4.05761e-06
9.04011e-07
1.91319e-07
5.25569e-08
2.27984e-08
2.25213e-08
4.03021e-08
5.41349e-08
7.12663e-08
9.30214e-08
1.18455e-07
1.5605e-07
1.87679e-07
2.22485e-07
2.58903e-07
2.89325e-07
3.16727e-07
3.4035e-07
3.635e-07
3.84413e-07
3.98722e-07
3.97267e-07
3.59584e-07
2.82997e-07
1.98127e-07
1.6514e-07
2.51425e-07
4.9147e-07
7.91452e-07
1.03165e-06
1.0639e-06
4.49867e-07
0
0
0
0
0
0
0
4.05916e-05
3.04397e-05
1.58111e-05
6.562e-06
2.33648e-06
6.63046e-07
1.77165e-08
0
0
0
5.38789e-08
3.20361e-07
5.56662e-07
0
6.6244e-08
2.85784e-07
1.32179e-07
3.46535e-08
4.33803e-09
0
0
4.37289e-09
1.117e-08
1.66737e-08
1.84682e-08
1.7096e-08
1.2553e-08
5.86038e-09
1.01256e-09
2.02004e-09
9.33973e-09
1.65238e-08
1.36567e-08
8.66774e-10
0
0
0
0
7.68614e-09
1.15162e-08
1.07169e-08
8.09364e-09
5.50627e-09
3.54625e-09
2.21396e-09
1.36004e-09
8.35499e-10
5.23363e-10
3.38375e-10
2.23386e-10
1.47388e-10
9.42446e-11
5.46194e-11
2.41895e-11
1.14849e-12
0
0
0
0
0
0
0
0
0
0
0
0
0
0
0
0
0
0
0
0
0
0
0
0
0
0
0
0
0
0
0
0
0
0
0
0
0
0
0
0
0
0
0
0
0
0
0
0
0
0
0
0
0
0
0
0
0
0
0
0
0
0
0
0
0
0
0
0
0
0
0
0
0
0
0
0
0
0
0
0
0
0
0
0
0
0
5.34603e-06
1.71389e-06
4.89951e-07
1.31636e-07
4.21031e-08
2.4218e-08
4.61827e-08
6.04354e-08
6.70713e-08
8.14793e-08
1.08744e-07
1.3791e-07
1.61278e-07
1.9868e-07
2.40436e-07
2.79512e-07
3.14903e-07
3.44502e-07
3.7408e-07
4.04262e-07
4.32913e-07
4.42648e-07
4.22483e-07
3.74606e-07
3.04586e-07
2.51067e-07
2.74428e-07
4.37265e-07
7.45436e-07
1.06827e-06
1.27074e-06
1.33869e-06
7.90344e-07
0
0
0
0
0
0
1.20521e-05
1.16836e-05
6.40758e-06
2.69201e-06
8.7971e-07
1.28468e-07
0
0
0
0
1.46114e-07
6.66897e-07
4.70717e-07
9.64511e-08
3.59151e-07
2.61914e-07
6.6659e-08
2.19919e-09
0
0
0
0
4.07402e-09
9.45604e-09
1.29362e-08
1.4169e-08
1.32939e-08
9.03729e-09
3.33432e-09
6.45013e-10
2.63377e-09
8.40145e-09
1.29526e-08
8.90954e-09
0
0
0
0
6.27518e-10
4.85731e-09
6.10974e-09
5.01863e-09
3.34142e-09
1.98266e-09
1.08913e-09
5.54594e-10
2.53451e-10
9.26479e-11
1.03076e-11
0
0
0
0
0
0
0
0
0
0
0
0
0
0
0
0
0
0
0
0
0
0
0
0
0
0
0
0
0
0
0
0
0
0
0
0
0
0
0
0
0
0
0
0
0
0
0
0
0
0
0
0
0
0
0
0
0
0
0
0
0
0
0
0
0
0
0
0
0
0
0
0
0
0
0
0
0
0
0
0
0
0
0
0
0
0
0
0
0
0
0
0
3.39092e-06
3.39633e-06
1.24809e-06
3.395e-07
8.15428e-08
3.71391e-08
6.08722e-08
5.52759e-08
5.54953e-08
6.2027e-08
7.71582e-08
1.06407e-07
1.23592e-07
1.48943e-07
1.78571e-07
2.24308e-07
2.61462e-07
2.9369e-07
3.22696e-07
3.51783e-07
3.78431e-07
4.0085e-07
4.05225e-07
3.79575e-07
3.32812e-07
2.76303e-07
2.42999e-07
2.77869e-07
4.16432e-07
6.68648e-07
8.56773e-07
1.05672e-06
1.0149e-06
7.34348e-07
8.85796e-08
0
0
0
4.1304e-07
2.13942e-06
2.2905e-06
1.38606e-06
5.32032e-07
8.49483e-08
0
0
0
1.37966e-08
1.05887e-07
4.89371e-07
9.27333e-07
3.46463e-07
3.33059e-07
4.14678e-07
1.35662e-07
2.66512e-08
9.42228e-10
0
2.11133e-09
5.23313e-09
6.39739e-09
7.6595e-09
9.85732e-09
1.18483e-08
1.28338e-08
1.32354e-08
1.20659e-08
8.04433e-09
4.48047e-09
4.58218e-09
7.01573e-09
1.06928e-08
1.18167e-08
6.12718e-09
0
0
0
5.18233e-10
1.65887e-09
2.30284e-09
1.74202e-09
7.07111e-10
0
0
0
0
0
0
0
0
0
0
0
0
0
0
0
0
0
0
0
0
0
0
0
0
0
0
0
0
0
0
0
0
0
0
0
0
0
0
0
0
0
0
0
0
0
0
0
0
0
0
0
0
0
0
0
0
0
0
0
0
0
0
0
0
0
0
0
0
0
0
0
0
0
0
0
0
0
0
0
0
0
0
0
0
0
0
0
0
0
0
0
0
0
0
0
0
0
0
1.04643e-06
3.26364e-06
1.5737e-06
5.09065e-07
1.53497e-07
8.80963e-08
7.32987e-08
7.80804e-09
3.25484e-08
4.26285e-08
5.04379e-08
6.53452e-08
8.16438e-08
1.01005e-07
1.16289e-07
1.43546e-07
1.79193e-07
2.09207e-07
2.34588e-07
2.58433e-07
2.79704e-07
3.0101e-07
3.10731e-07
3.04049e-07
2.78926e-07
2.38794e-07
1.92922e-07
1.64781e-07
1.79808e-07
2.60241e-07
3.5168e-07
4.74039e-07
5.21887e-07
5.2215e-07
3.89038e-07
1.70465e-07
0
0
4.4294e-08
2.50595e-07
2.66889e-07
1.23969e-07
0
0
0
1.6515e-08
9.2777e-08
1.60325e-07
3.96732e-07
1.08774e-06
6.13406e-07
3.92482e-07
5.28907e-07
2.65798e-07
7.27179e-08
2.49702e-08
1.57223e-08
1.58389e-08
1.74879e-08
1.79935e-08
1.72641e-08
1.67735e-08
1.68493e-08
1.6505e-08
1.56107e-08
1.47185e-08
1.39152e-08
1.19434e-08
9.02248e-09
8.94203e-09
1.09454e-08
1.20892e-08
1.29932e-08
1.07032e-08
4.8416e-09
2.05038e-09
3.66858e-09
5.12873e-09
4.4241e-09
2.54221e-09
4.83822e-10
0
0
0
0
0
0
0
0
0
0
0
0
0
0
0
0
0
0
0
0
0
0
0
0
0
0
0
0
0
0
0
0
0
0
0
0
0
0
0
0
0
0
0
0
0
0
0
0
0
0
0
0
0
0
0
0
0
0
0
0
0
0
0
0
0
0
0
0
0
0
0
0
0
0
0
0
0
0
0
0
0
0
0
0
0
0
0
0
0
0
0
0
0
0
0
0
0
0
0
3.88015e-07
1.67412e-06
1.3802e-06
2.27966e-07
0
0
0
0
1.00184e-08
2.00962e-08
2.71394e-08
3.3436e-08
4.28611e-08
5.30584e-08
6.37697e-08
7.58365e-08
9.13548e-08
1.15619e-07
1.35075e-07
1.50804e-07
1.65159e-07
1.8075e-07
1.90587e-07
1.89955e-07
1.77161e-07
1.53395e-07
1.2095e-07
8.52838e-08
5.95716e-08
5.38183e-08
6.39409e-08
9.04877e-08
1.08493e-07
1.12401e-07
7.76109e-08
1.35997e-08
0
0
0
0
0
0
6.61566e-09
5.45285e-08
1.05066e-07
1.75659e-07
2.38107e-07
3.81564e-07
9.67156e-07
7.19544e-07
4.36435e-07
4.76818e-07
4.16327e-07
1.33289e-07
5.51791e-08
3.66329e-08
3.35178e-08
3.40271e-08
3.34932e-08
3.1353e-08
2.9146e-08
2.81711e-08
2.79037e-08
2.64563e-08
2.35117e-08
2.02242e-08
1.74459e-08
1.53626e-08
1.3324e-08
1.30939e-08
1.60695e-08
1.67121e-08
1.51984e-08
1.36032e-08
9.70338e-09
6.87712e-09
8.87497e-09
1.14908e-08
1.09455e-08
7.33487e-09
2.57339e-09
0
0
0
0
0
0
0
0
0
0
0
0
0
0
0
0
0
0
0
0
0
0
0
0
0
0
0
0
0
0
0
0
0
0
0
0
0
0
0
0
0
0
0
0
0
0
0
0
0
0
0
0
0
0
0
0
0
0
0
0
0
0
0
0
0
0
0
0
0
0
0
0
0
0
0
0
0
0
0
0
0
0
0
0
0
0
0
0
0
0
0
0
0
0
0
0
0
0
0
0
0
0
0
0
0
0
0
0
6.06627e-09
1.03625e-08
1.3521e-08
1.61743e-08
1.91288e-08
2.32247e-08
2.73605e-08
3.04611e-08
3.41163e-08
4.21822e-08
4.77743e-08
5.31298e-08
5.97238e-08
6.48562e-08
6.52383e-08
5.86718e-08
4.50692e-08
2.54108e-08
4.65501e-10
0
0
0
0
0
0
0
0
0
0
0
0
0
5.47318e-08
1.33548e-07
1.83614e-07
2.36594e-07
2.96944e-07
4.10609e-07
8.56876e-07
7.46528e-07
4.95785e-07
4.50977e-07
5.48002e-07
2.28613e-07
9.75171e-08
6.18408e-08
5.271e-08
5.17686e-08
5.08451e-08
4.78167e-08
4.40686e-08
4.14207e-08
4.05916e-08
4.0554e-08
3.92008e-08
3.53829e-08
2.99603e-08
2.45663e-08
2.04052e-08
1.80434e-08
1.74891e-08
2.06118e-08
2.25628e-08
1.91334e-08
1.589e-08
1.32907e-08
1.11709e-08
1.37184e-08
1.8031e-08
1.87621e-08
1.48909e-08
7.94039e-09
1.35779e-09
0
0
0
0
0
0
0
0
0
0
0
0
0
0
0
0
0
0
0
0
0
0
0
0
0
0
0
0
0
0
0
0
0
0
0
0
0
0
0
0
0
0
0
0
0
0
0
0
0
0
0
0
0
0
0
0
0
0
0
0
0
0
0
0
0
0
0
0
0
0
0
0
0
0
0
0
0
0
0
0
0
0
0
0
0
0
0
0
0
0
0
0
0
0
0
0
0
0
0
0
0
0
0
2.79472e-08
0
0
0
0
0
0
0
0
0
0
0
0
0
0
0
0
0
0
0
0
0
0
0
0
0
0
0
0
0
0
0
0
0
0
7.83098e-08
1.62948e-07
2.27476e-07
2.77481e-07
3.34332e-07
4.39202e-07
7.70769e-07
6.49284e-07
4.84685e-07
4.08881e-07
4.86887e-07
3.05891e-07
1.33003e-07
8.66051e-08
7.26409e-08
7.03534e-08
7.04096e-08
6.76406e-08
6.21653e-08
5.62995e-08
5.358e-08
5.30171e-08
5.30871e-08
5.20231e-08
4.85061e-08
4.22291e-08
3.49914e-08
2.82525e-08
2.40587e-08
2.25792e-08
2.46675e-08
2.79444e-08
2.44898e-08
1.86755e-08
1.60635e-08
1.49125e-08
1.79978e-08
2.42316e-08
2.67768e-08
2.36096e-08
1.55765e-08
5.84651e-09
0
0
0
0
0
0
0
0
0
0
0
0
0
0
0
0
0
0
0
0
0
0
0
0
0
0
0
0
0
0
0
0
0
0
0
0
0
0
0
0
0
0
0
0
0
0
0
0
0
0
0
0
0
0
0
0
0
0
0
0
0
0
0
0
0
0
0
0
0
0
0
0
0
0
0
0
0
0
0
0
0
0
0
0
0
0
0
0
0
0
0
0
0
0
0
0
0
0
0
0
0
0
7.98896e-08
1.96689e-08
0
0
0
0
0
0
0
0
0
0
0
0
0
0
0
0
0
0
0
0
0
0
0
0
0
0
0
0
0
0
0
0
0
6.46948e-08
1.43786e-07
2.17095e-07
2.77572e-07
3.36807e-07
4.31984e-07
6.66947e-07
5.13058e-07
4.27818e-07
3.91712e-07
4.20949e-07
4.04973e-07
1.79115e-07
1.14842e-07
9.39033e-08
8.8993e-08
8.90911e-08
8.72422e-08
8.22516e-08
7.44089e-08
6.84723e-08
6.57173e-08
6.4832e-08
6.44927e-08
6.33568e-08
6.00417e-08
5.43676e-08
4.69606e-08
3.85601e-08
3.17332e-08
2.83439e-08
2.8677e-08
3.21934e-08
3.01607e-08
2.24807e-08
1.87032e-08
1.82168e-08
2.1731e-08
2.97603e-08
3.44173e-08
3.2433e-08
2.43275e-08
1.22253e-08
2.48573e-09
0
0
0
0
0
0
0
0
0
0
0
0
0
0
0
0
0
0
0
0
0
0
0
0
0
0
0
0
0
0
0
0
0
0
0
0
0
0
0
0
0
0
0
0
0
0
0
0
0
0
0
0
0
0
0
0
0
0
0
0
0
0
0
0
0
0
0
0
0
0
0
0
0
0
0
0
0
0
0
0
0
0
0
0
0
0
0
0
0
0
0
0
0
0
0
0
0
0
6.81155e-08
0
0
0
0
0
0
0
0
0
0
0
0
0
0
0
0
0
0
0
0
0
0
0
0
0
0
0
0
0
0
0
0
0
0
0
0
9.76635e-09
9.29933e-08
1.71089e-07
2.37399e-07
2.90068e-07
3.92327e-07
4.89645e-07
3.84555e-07
3.60977e-07
3.57784e-07
3.53065e-07
4.27642e-07
2.05632e-07
1.33755e-07
1.11694e-07
1.05602e-07
1.0564e-07
1.05041e-07
1.01839e-07
9.54644e-08
8.69961e-08
8.03432e-08
7.63859e-08
7.45693e-08
7.38195e-08
7.27151e-08
6.95418e-08
6.47085e-08
5.85457e-08
4.99741e-08
4.06494e-08
3.47052e-08
3.29738e-08
3.54676e-08
3.50778e-08
2.71274e-08
2.18119e-08
2.1397e-08
2.5141e-08
3.44913e-08
4.13132e-08
4.06588e-08
3.31854e-08
1.99162e-08
6.66261e-09
0
0
0
0
0
0
0
0
0
0
0
0
0
0
0
0
0
0
0
0
0
0
0
0
0
0
0
0
0
0
0
0
0
0
0
0
0
0
0
0
0
0
0
0
0
0
0
0
0
0
0
0
0
0
0
0
0
0
0
0
0
0
0
0
0
0
0
0
0
0
0
0
0
0
0
0
0
0
0
0
0
0
0
0
0
0
0
0
0
0
0
0
0
0
0
0
0
2.39473e-07
1.59379e-07
1.66245e-08
0
0
0
0
0
0
0
0
0
0
0
0
0
0
0
0
0
0
0
0
0
0
0
0
0
0
0
0
0
0
0
0
0
0
0
2.58911e-08
9.24396e-08
1.44657e-07
1.92667e-07
3.07378e-07
2.99791e-07
2.77898e-07
2.90766e-07
3.03995e-07
2.93406e-07
3.86408e-07
2.29446e-07
1.51217e-07
1.25464e-07
1.19262e-07
1.20125e-07
1.20332e-07
1.18111e-07
1.13425e-07
1.0473e-07
9.51841e-08
8.7835e-08
8.30038e-08
8.02508e-08
7.90504e-08
7.80205e-08
7.58517e-08
7.24118e-08
6.79021e-08
6.01464e-08
4.93984e-08
4.09346e-08
3.69914e-08
3.77025e-08
3.83525e-08
3.16128e-08
2.52951e-08
2.44875e-08
2.81128e-08
3.79188e-08
4.66218e-08
4.72179e-08
4.07128e-08
2.75625e-08
1.16432e-08
1.63013e-09
0
0
0
0
0
0
0
0
0
0
0
0
0
0
0
0
0
0
0
0
0
0
0
0
0
0
0
0
0
0
0
0
0
0
0
0
0
0
0
0
0
0
0
0
0
0
0
0
0
0
0
0
0
0
0
0
0
0
0
0
0
0
0
0
0
0
0
0
0
0
0
0
0
0
0
0
0
0
0
0
0
0
0
0
0
0
0
0
0
0
0
0
0
0
0
0
1.29888e-07
8.92445e-08
1.84946e-08
0
0
0
0
0
0
0
0
0
0
0
0
0
0
0
0
0
0
0
0
0
0
0
0
0
0
0
0
0
0
0
0
0
0
0
0
6.78128e-09
9.57084e-08
1.80285e-07
1.8791e-07
2.01873e-07
2.25336e-07
2.44344e-07
2.3323e-07
3.2022e-07
2.37844e-07
1.62063e-07
1.32631e-07
1.24774e-07
1.26665e-07
1.28393e-07
1.26513e-07
1.22872e-07
1.17036e-07
1.08552e-07
9.9381e-08
9.18417e-08
8.65956e-08
8.31726e-08
8.15518e-08
8.02604e-08
7.79782e-08
7.51941e-08
7.20415e-08
6.61375e-08
5.54966e-08
4.53239e-08
3.94176e-08
3.80375e-08
3.88014e-08
3.41305e-08
2.79817e-08
2.67908e-08
2.98533e-08
3.88078e-08
4.8403e-08
4.99599e-08
4.44434e-08
3.26905e-08
1.6179e-08
3.95375e-09
0
0
0
0
0
0
0
0
0
0
0
0
0
0
0
0
0
0
0
0
0
0
0
0
0
0
0
0
0
0
0
0
0
0
0
0
0
0
0
0
0
0
0
0
0
0
0
0
0
0
0
0
0
0
0
0
0
0
0
0
0
0
0
0
0
0
0
0
0
0
0
0
0
0
0
0
0
0
0
0
0
0
0
0
0
0
0
0
0
0
0
0
0
0
0
0
1.09023e-08
1.99021e-08
8.1095e-09
0
0
0
0
0
0
0
0
0
0
0
0
0
0
0
0
0
0
0
0
0
0
0
0
0
0
0
0
0
0
0
0
0
0
0
0
1.06478e-08
8.44881e-08
1.19831e-07
1.44107e-07
1.67923e-07
1.82832e-07
1.80044e-07
2.57036e-07
2.19209e-07
1.59415e-07
1.33046e-07
1.22694e-07