/*--------------------------------*- C++ -*----------------------------------*\
  =========                 |
  \\      /  F ield         | OpenFOAM: The Open Source CFD Toolbox
   \\    /   O peration     | Website:  https://openfoam.org
    \\  /    A nd           | Version:  7
     \\/     M anipulation  |
\*---------------------------------------------------------------------------*/
FoamFile
{
    version     2.0;
    format      ascii;
    class       volScalarField;
    location    "0.021";
    object      s_0;
}
// * * * * * * * * * * * * * * * * * * * * * * * * * * * * * * * * * * * * * //

dimensions      [0 0 0 0 0 0 0];

internalField   nonuniform List<scalar> 
12225
(
1
1
1
1
1
1
1
1
1
1
1
1
1
1
1
1
1
1
1
1
1
1
1
1
1
1
1
1
1
1
1
1
1
1
1
1
1
1
1
1
1
1
1
1
1
1
1
1
1
1
1
1
1
1
1
1
1
1
1
1
1
1
1
1
1
1
1
1
1
1
1
1
1
1
1
1
1
1
1
1
1
1
1
1
1
1
1
1
1
1
1
1
1
1
1
1
1
1
1
1
1
1
1
1
1
1
1
1
1
1
1
1
1
1
1
1
1
1
1
1
1
1
1
1
1
1
1
1
1
1
1
1
1
1
1
1
1
1
1
1
1
1
1
1
1
1
1
1
1
1
1
1
1
1
1
1
1
1
1
1
1
1
1
1
1
1
1
1
1
1
1
1
1
1
1
1
1
1
1
1
1
1
1
1
1
1
1
1
1
1
1
1
1
1
1
1
1
1
1
1
1
1
1
1
1
1
1
1
1
1
1
1
1
1
1
1
1
1
1
1
1
1
1
1
1
1
1
1
1
1
1
1
1
1
1
1
1
1
1
1
1
1
1
1
1
1
1
1
1
1
1
1
1
1
1
1
1
1
1
1
1
1
1
1
1
1
1
1
1
1
1
1
1
1
1
1
1
1
1
1
1
1
1
1
1
1
1
1
1
1
1
1
1
1
1
1
1
1
1
1
1
1
1
1
1
1
1
1
1
1
1
1
1
1
1
1
1
1
1
1
1
1
1
1
1
1
1
1
1
1
1
1
1
1
1
1
1
1
1
1
1
1
1
1
1
1
1
1
1
1
1
1
1
1
1
1
1
1
1
1
1
1
1
1
1
1
1
1
1
1
1
1
1
1
1
1
1
1
1
1
1
1
1
1
1
1
1
1
1
1
1
1
1
1
1
1
1
1
1
1
1
1
1
1
1
1
1
1
1
1
1
1
1
1
1
1
1
1
1
1
1
1
1
1
1
1
1
1
1
1
1
1
1
1
1
1
1
1
1
1
1
1
1
1
1
1
1
1
1
1
1
1
1
1
1
1
1
1
1
1
1
1
1
1
1
1
1
1
1
1
1
1
1
1
1
1
1
1
1
1
1
1
1
1
1
1
1
1
1
1
1
1
1
1
1
1
1
1
1
1
1
1
1
1
1
1
1
1
1
1
1
1
1
1
1
1
1
1
1
1
1
1
1
1
1
1
1
1
1
1
1
1
1
1
1
1
1
1
1
1
4.4763e-21
5.98319e-20
1.50721e-19
3.30047e-19
7.20028e-18
1.19944e-16
1.56716e-15
1.63986e-14
1.40138e-13
9.95443e-13
5.96997e-12
3.06443e-11
1.36245e-10
5.30202e-10
1.82327e-09
5.59059e-09
1.54212e-08
3.86143e-08
8.85741e-08
1.87812e-07
3.71336e-07
6.90177e-07
1.21481e-06
2.03793e-06
3.27568e-06
5.06726e-06
7.57462e-06
1.09838e-05
1.55066e-05
2.13802e-05
2.88678e-05
3.82668e-05
4.99251e-05
6.42497e-05
8.17044e-05
0.000102888
0.000128631
0.000159454
0.000195048
0.000238619
0.000272778
0.000296423
0.000309277
0.000313023
0.000299351
0.000276744
0.000247841
0.00021283
0.00017531
0.000140793
0.000108094
8.0157e-05
5.73094e-05
3.92538e-05
2.59276e-05
1.64164e-05
9.98897e-06
5.82781e-06
3.26162e-06
1.75193e-06
9.02662e-07
4.46945e-07
2.12498e-07
9.70491e-08
4.26171e-08
1.80266e-08
7.34783e-09
2.8888e-09
1.09647e-09
4.02148e-10
1.42651e-10
4.89813e-11
1.62933e-11
5.25466e-12
1.64419e-12
4.99485e-13
1.47412e-13
4.22902e-14
1.17998e-14
3.20377e-15
8.46836e-16
2.1801e-16
5.46846e-17
1.33698e-17
3.18715e-18
7.41023e-19
1.68087e-19
3.72067e-20
8.03882e-21
1.69564e-21
3.49236e-22
7.02438e-23
1.37989e-23
2.64762e-24
4.96199e-25
9.08316e-26
1.62389e-26
2.8349e-27
4.83118e-28
8.03379e-29
1.30283e-29
2.05874e-30
3.16637e-31
4.73269e-32
6.85848e-33
9.60608e-34
1.29393e-34
1.66269e-35
2.01057e-36
2.31058e-37
2.61944e-38
2.92885e-39
3.22955e-40
3.51516e-41
3.44253e-42
6.05167e-43
1.05144e-43
1.80551e-44
3.2169e-45
4.21701e-46
4.06953e-47
3.86823e-48
3.34804e-49
5.30765e-50
8.4951e-51
1.38282e-51
2.39578e-52
2.31853e-53
1.83444e-54
1.37818e-55
1.99609e-56
3.01284e-57
4.68361e-58
6.31072e-59
4.2022e-60
2.79636e-61
2.95089e-62
4.34385e-63
5.72367e-64
7.73084e-65
5.5131e-66
3.87736e-67
2.526e-68
3.0349e-69
3.58912e-70
4.18167e-71
5.08518e-72
3.26688e-73
2.07371e-74
1.22512e-75
1.34145e-76
1.44918e-77
1.55163e-78
1.7327e-79
1.0051e-80
5.6163e-82
2.95792e-83
3.05995e-84
3.31797e-85
3.59076e-86
2.25718e-87
9.32044e-89
7.04031e-90
8.53313e-91
8.17618e-92
3.40805e-93
1.36678e-94
1.16666e-95
1.07869e-96
1.02834e-97
6.68507e-99
2.42994e-100
9.55921e-102
7.75977e-103
6.59064e-104
5.66095e-105
3.87824e-106
1.22991e-107
3.99317e-109
1.58385e-110
1.50159e-18
6.92987e-17
1.41751e-15
1.8318e-14
1.71756e-13
1.25802e-12
7.54185e-12
3.82205e-11
1.67652e-10
6.48156e-10
2.24059e-09
7.0081e-09
2.00333e-08
5.28012e-08
1.29339e-07
2.96613e-07
6.41173e-07
1.31456e-06
2.57065e-06
4.81861e-06
8.69591e-06
1.51635e-05
2.56194e-05
4.20305e-05
6.70712e-05
0.000104267
0.00015813
0.000234256
0.00033934
0.000481084
0.000668006
0.000909172
0.00121384
0.00159066
0.00204588
0.0025822
0.00320263
0.0039102
0.00467884
0.00542406
0.0060446
0.00641128
0.0065835
0.00663159
0.0063438
0.00589873
0.00533351
0.00465064
0.00392546
0.00322122
0.00254838
0.00195301
0.00144491
0.00103029
0.000708034
0.000468046
0.000297558
0.000181598
0.000106422
5.98483e-05
3.23101e-05
1.67456e-05
8.3355e-06
3.98765e-06
1.83454e-06
8.12404e-07
3.46627e-07
1.42635e-07
5.66626e-08
2.17529e-08
8.07833e-09
2.90498e-09
1.01251e-09
3.42372e-10
1.12415e-10
3.58711e-11
1.1133e-11
3.36326e-12
9.89691e-13
2.83873e-13
7.94165e-14
2.16831e-14
5.78093e-15
1.50581e-15
3.83401e-16
9.54659e-17
2.32565e-17
5.54518e-18
1.29458e-18
2.96029e-19
6.63253e-20
1.45645e-20
3.13549e-21
6.61953e-22
1.37077e-22
2.78498e-23
5.55246e-24
1.08653e-24
2.08721e-25
3.9367e-26
7.29127e-27
1.3263e-27
2.36973e-28
4.15936e-29
7.1725e-30
1.21526e-30
2.02332e-31
3.31043e-32
5.32309e-33
8.41248e-34
1.3067e-34
1.995e-35
2.994e-36
4.41698e-37
6.4059e-38
9.13307e-39
1.28166e-39
1.77352e-40
2.41978e-41
3.25502e-42
4.31659e-43
5.64298e-44
7.27167e-45
9.23626e-46
1.15633e-46
1.42685e-47
1.73533e-48
2.08013e-49
2.45758e-50
2.86175e-51
3.28448e-52
3.7155e-53
4.14273e-54
4.55282e-55
4.93175e-56
5.26569e-57
5.54178e-58
5.74897e-59
5.87875e-60
5.92575e-61
5.88809e-62
5.76753e-63
5.5693e-64
5.30173e-65
4.9757e-66
4.60387e-67
4.1999e-68
3.77759e-69
3.35016e-70
2.92958e-71
2.5261e-72
2.1479e-73
1.801e-74
1.48923e-75
1.21443e-76
9.76701e-78
7.74716e-79
6.06078e-80
4.6766e-81
3.55926e-82
2.67193e-83
1.97849e-84
1.44507e-85
1.0411e-86
7.39852e-88
5.18601e-89
3.58544e-90
2.44483e-91
1.64404e-92
1.09014e-93
7.12641e-95
4.59186e-96
2.91506e-97
1.82261e-98
1.12123e-99
6.78295e-101
4.02451e-102
2.33993e-103
1.32243e-104
6.91326e-106
6.73787e-17
2.60276e-15
4.59974e-14
5.16681e-13
4.24456e-12
2.74769e-11
1.46904e-10
6.69998e-10
2.66941e-09
9.46149e-09
3.02661e-08
8.84121e-08
2.382e-07
5.97049e-07
1.4031e-06
3.11345e-06
6.56506e-06
1.32295e-05
2.56034e-05
4.77858e-05
8.6301e-05
0.000151212
0.000257537
0.000426925
0.000689498
0.00108569
0.00166776
0.00250055
0.00366086
0.00523502
0.00731423
0.00998703
0.0133286
0.0173853
0.0221509
0.0275479
0.0334571
0.0397478
0.0461006
0.0516591
0.0562639
0.0588024
0.0598334
0.05975
0.0574442
0.0538223
0.0492605
0.0438277
0.0379588
0.0319802
0.026134
0.020728
0.0159242
0.0118408
0.00850289
0.00588042
0.00391394
0.00250402
0.00153861
0.000906726
0.000512662
0.000278091
0.00014469
7.22764e-05
3.46772e-05
1.59944e-05
7.09842e-06
3.03422e-06
1.25043e-06
4.97341e-07
1.91111e-07
7.10246e-08
2.5555e-08
8.91097e-09
3.01426e-09
9.90029e-10
3.16021e-10
9.81187e-11
2.96554e-11
8.73169e-12
2.50637e-12
7.01835e-13
1.9184e-13
5.12169e-14
1.33628e-14
3.40892e-15
8.50704e-16
2.07769e-16
4.9683e-17
1.16367e-17
2.67058e-18
6.00739e-19
1.32498e-19
2.86618e-20
6.08262e-21
1.26672e-21
2.58929e-22
5.19618e-23
1.02396e-23
1.98177e-24
3.76774e-25
7.03771e-26
1.29173e-26
2.33005e-27
4.1311e-28
7.19993e-29
1.23368e-29
2.0784e-30
3.44316e-31
5.60949e-32
8.98797e-33
1.41647e-33
2.19582e-34
3.34861e-35
5.02388e-36
7.41574e-37
1.07705e-37
1.53925e-38
2.16471e-39
2.9965e-40
4.08952e-41
5.50237e-42
7.29829e-43
9.54253e-44
1.22987e-44
1.5624e-45
1.95635e-46
2.41441e-47
2.93681e-48
3.52072e-49
4.15984e-50
4.84403e-51
5.55934e-52
6.28821e-53
7.01009e-54
7.70221e-55
8.34085e-56
8.90256e-57
9.36567e-58
9.71161e-59
9.92621e-60
1.00006e-60
9.93198e-62
9.72348e-63
9.38426e-64
8.92863e-65
8.37513e-66
7.74525e-67
7.06207e-68
6.3489e-69
5.62795e-70
4.91932e-71
4.24012e-72
3.60402e-73
3.02098e-74
2.49734e-75
2.03606e-76
1.6372e-77
1.29846e-78
1.01573e-79
7.83736e-81
5.96498e-82
4.47821e-83
3.31637e-84
2.42261e-85
1.74568e-86
1.24079e-87
8.69894e-89
6.01501e-90
4.10186e-91
2.75812e-92
1.8285e-93
1.19459e-94
7.69067e-96
4.87321e-97
3.04002e-98
1.86116e-99
1.11982e-100
6.566e-102
3.7751e-103
3.67948e-16
1.43828e-14
2.58061e-13
2.93156e-12
2.42922e-11
1.5825e-10
8.49766e-10
3.88632e-09
1.5508e-08
5.50104e-08
1.76065e-07
5.14686e-07
1.38843e-06
3.48731e-06
8.22017e-06
1.83145e-05
3.88167e-05
7.87062e-05
0.000153413
0.000288608
0.000525663
0.000929115
0.00159621
0.00266811
0.00434178
0.00688103
0.0106242
0.0159861
0.0234499
0.0335429
0.0467834
0.0635891
0.0841554
0.108333
0.135523
0.164642
0.194361
0.22358
0.251348
0.275122
0.293492
0.302877
0.306502
0.30298
0.292371
0.275372
0.254385
0.231292
0.207007
0.180705
0.153554
0.126789
0.101565
0.0789823
0.0597042
0.0435544
0.0305459
0.020609
0.0133743
0.00831379
0.00495362
0.00282853
0.00154723
0.000811057
0.0004077
0.000196686
9.11444e-05
4.061e-05
1.7415e-05
7.19562e-06
2.86776e-06
1.10365e-06
4.10599e-07
1.47835e-07
5.1567e-08
1.74441e-08
5.72835e-09
1.82777e-09
5.67161e-10
1.71294e-10
5.03926e-11
1.4451e-11
4.04231e-12
1.10367e-12
2.943e-13
7.66865e-14
1.95368e-14
4.86858e-15
1.18731e-15
2.83478e-16
6.62889e-17
1.51874e-17
3.41033e-18
7.50789e-19
1.62096e-19
3.43307e-20
7.13438e-21
1.45511e-21
2.91339e-22
5.72732e-23
1.1057e-23
2.09669e-24
3.90583e-25
7.14892e-26
1.28582e-26
2.27293e-27
3.94927e-28
6.7456e-29
1.13278e-29
1.87042e-30
3.03696e-31
4.8494e-32
7.61597e-33
1.17649e-33
1.78777e-34
2.67258e-35
3.93079e-36
5.68842e-37
8.10022e-38
1.13508e-38
1.56525e-39
2.12572e-40
2.84564e-41
3.75481e-42
4.88326e-43
6.25931e-44
7.90719e-45
9.84426e-46
1.20781e-46
1.46038e-47
1.74012e-48
2.04333e-49
2.36451e-50
2.69644e-51
3.03036e-52
3.35627e-53
3.66342e-54
3.94088e-55
4.17817e-56
4.36594e-57
4.49656e-58
4.56465e-59
4.56743e-60
4.50494e-61
4.38e-62
4.198e-63
3.96652e-64
3.69483e-65
3.39321e-66
3.07239e-67
2.7429e-68
2.4145e-69
2.09577e-70
1.79383e-71
1.51409e-72
1.26031e-73
1.03459e-74
8.37614e-76
6.68833e-77
5.2675e-78
4.09181e-79
3.13518e-80
2.36948e-81
1.76642e-82
1.29893e-83
9.4217e-85
6.74078e-86
4.75686e-87
3.31071e-88
2.27245e-89
1.53795e-90
1.02624e-91
6.74829e-93
4.37302e-94
2.78932e-95
1.75177e-96
1.08017e-97
6.54803e-99
3.87708e-100
2.25454e-101
1.10867e-15
4.5419e-14
8.50696e-13
1.00256e-11
8.58143e-11
5.75378e-10
3.17062e-09
1.4843e-08
6.0486e-08
2.18616e-07
7.11356e-07
2.10962e-06
5.7617e-06
1.46245e-05
3.47813e-05
7.80862e-05
0.000166601
0.000339789
0.00066576
0.00125816
0.00230027
0.00407725
0.00701555
0.0117261
0.0190466
0.0300805
0.0462329
0.069244
0.101202
0.144514
0.201832
0.276072
0.37018
0.463145
0.536226
0.609627
0.668933
0.713185
0.749154
0.770732
0.785789
0.794434
0.797834
0.796889
0.788767
0.773372
0.749561
0.716285
0.672239
0.619509
0.557746
0.488162
0.412885
0.336129
0.265815
0.208032
0.155576
0.111358
0.076826
0.0508988
0.0321834
0.0194885
0.011282
0.00624388
0.00330659
0.00167666
0.000814834
0.000379911
0.000170118
7.3242e-05
3.03546e-05
1.21245e-05
4.6731e-06
1.7401e-06
6.26731e-07
2.18587e-07
7.39055e-08
2.42487e-08
7.72835e-09
2.3948e-09
7.22121e-10
2.1206e-10
6.06937e-11
1.69421e-11
4.61542e-12
1.22784e-12
3.19157e-13
8.11005e-14
2.01564e-14
4.90196e-15
1.16701e-15
2.72083e-16
6.21446e-17
1.39101e-17
3.05221e-18
6.56731e-19
1.38601e-19
2.86984e-20
5.83132e-21
1.16302e-21
2.27725e-22
4.37841e-23
8.26769e-24
1.53351e-24
2.79439e-25
5.00328e-26
8.80329e-27
1.52235e-27
2.58771e-28
4.32413e-29
7.10411e-30
1.14761e-30
1.82302e-31
2.84804e-32
4.37619e-33
6.61419e-34
9.83393e-35
1.43841e-35
2.07002e-36
2.93116e-37
4.08422e-38
5.60022e-39
7.5627e-40
1.00651e-40
1.32013e-41
1.7063e-42
2.17329e-43
2.7277e-44
3.37353e-45
4.11128e-46
4.93712e-47
5.84217e-48
6.81212e-49
7.82711e-50
8.86216e-51
9.88789e-52
1.08718e-52
1.17801e-53
1.25792e-54
1.32381e-55
1.37304e-56
1.40358e-57
1.41417e-58
1.40442e-59
1.37479e-60
1.32659e-61
1.26186e-62
1.18327e-63
1.09387e-64
9.96951e-66
8.95839e-67
7.93688e-68
6.93347e-69
5.97243e-70
5.07303e-71
4.24929e-72
3.51006e-73
2.85943e-74
2.29734e-75
1.82039e-76
1.42269e-77
1.09667e-78
8.33812e-80
6.25308e-81
4.62545e-82
3.37481e-83
2.42867e-84
1.72386e-85
1.20673e-86
8.33068e-88
5.67045e-89
3.80541e-90
2.51668e-91
1.64017e-92
1.0523e-93
6.64724e-95
4.12516e-96
2.51688e-97
1.50324e-98
8.8223e-100
2.46798e-15
1.07673e-13
2.11946e-12
2.61107e-11
2.32701e-10
1.61846e-09
9.21609e-09
4.44108e-08
1.85584e-07
6.85328e-07
2.27043e-06
6.83254e-06
1.8878e-05
4.83427e-05
0.000115727
0.000261022
0.000558675
0.0011419
0.00224109
0.00424292
0.00777907
0.0138552
0.0240325
0.0406771
0.0673054
0.109066
0.173313
0.26986
0.41033
0.533781
0.647379
0.748585
0.797952
0.849698
0.879184
0.897752
0.911393
0.917898
0.923011
0.926804
0.929243
0.934445
0.938794
0.943902
0.948069
0.95182
0.954049
0.953398
0.949259
0.940423
0.925758
0.902817
0.868877
0.819168
0.746287
0.647361
0.53473
0.414856
0.30285
0.217588
0.147808
0.0956026
0.0592035
0.0348653
0.0196026
0.0105175
0.00539288
0.0026453
0.00124278
0.000559907
0.000242214
0.000100744
4.03425e-05
1.55747e-05
5.80455e-06
2.09108e-06
7.29059e-07
2.46294e-07
8.07098e-08
2.5682e-08
7.94292e-09
2.38986e-09
7.00119e-10
1.99854e-10
5.56303e-11
1.51097e-11
4.00699e-12
1.03812e-12
2.62889e-13
6.51042e-14
1.57746e-14
3.74112e-15
8.68782e-16
1.97627e-16
4.40509e-17
9.62439e-18
2.06172e-18
4.33156e-19
8.92742e-20
1.80543e-20
3.58345e-21
6.98201e-22
1.33568e-22
2.50925e-23
4.63002e-24
8.39237e-25
1.49457e-25
2.61539e-26
4.49786e-27
7.60286e-28
1.26328e-28
2.06361e-29
3.31437e-30
5.23441e-31
8.12959e-32
1.24178e-32
1.86567e-33
2.75727e-34
4.00879e-35
5.7342e-36
8.07035e-37
1.11765e-37
1.52326e-38
2.04556e-39
2.70663e-40
3.52872e-41
4.53286e-42
5.73707e-43
7.15433e-44
8.79037e-45
1.06415e-45
1.2693e-46
1.49173e-47
1.7274e-48
1.97095e-49
2.21591e-50
2.45489e-51
2.67995e-52
2.88303e-53
3.05643e-54
3.19327e-55
3.28796e-56
3.33661e-57
3.33724e-58
3.28995e-59
3.19688e-60
3.06209e-61
2.89121e-62
2.69111e-63
2.46939e-64
2.23394e-65
1.9925e-66
1.7522e-67
1.51932e-68
1.299e-69
1.09518e-70
9.1052e-72
7.46519e-73
6.03606e-74
4.81329e-75
3.78548e-76
2.93629e-77
2.2464e-78
1.69509e-79
1.26158e-80
9.26099e-82
6.70515e-83
4.78807e-84
3.37193e-85
2.34176e-86
1.60353e-87
1.08254e-88
7.20244e-90
4.72217e-91
3.04849e-92
1.93768e-93
1.21077e-94
7.43935e-96
4.48322e-97
2.65644e-98
4.79473e-15
2.23491e-13
4.59479e-12
5.85782e-11
5.37143e-10
3.82253e-09
2.24486e-08
1.11092e-07
4.74843e-07
1.7869e-06
6.01195e-06
1.83166e-05
5.10942e-05
0.000131793
0.000317235
0.000718695
0.00154459
0.00317163
0.00626193
0.0119552
0.0221882
0.040241
0.0716902
0.126026
0.219135
0.376465
0.5438
0.672251
0.768166
0.824678
0.870504
0.891091
0.901929
0.907012
0.908395
0.907662
0.902169
0.894287
0.886993
0.883932
0.883968
0.891114
0.904456
0.920135
0.936726
0.951
0.963953
0.972706
0.979469
0.983305
0.985158
0.98614
0.983912
0.97828
0.967562
0.948881
0.917437
0.864844
0.777452
0.643577
0.489502
0.3396
0.228351
0.144691
0.0872088
0.0499458
0.0272305
0.0141487
0.00701651
0.00332569
0.00150881
0.0006562
0.000274005
0.000110022
4.25464e-05
1.58693e-05
5.71718e-06
1.99216e-06
6.72251e-07
2.19948e-07
6.98501e-08
2.15534e-08
6.46805e-09
1.88939e-09
5.37664e-10
1.49164e-10
4.03717e-11
1.06667e-11
2.75281e-12
6.94305e-13
1.71227e-13
4.13088e-14
9.75324e-15
2.25457e-15
5.10447e-16
1.13229e-16
2.46162e-17
5.24658e-18
1.09658e-18
2.24817e-19
4.52216e-20
8.92667e-21
1.72963e-21
3.29021e-22
6.14583e-23
1.12746e-23
2.03168e-24
3.59677e-25
6.25655e-26
1.0695e-26
1.79684e-27
2.96736e-28
4.81743e-29
7.68941e-30
1.20684e-30
1.86264e-31
2.82731e-32
4.22108e-33
6.19893e-34
8.95552e-35
1.27287e-35
1.78003e-36
2.44941e-37
3.31921e-38
4.43135e-39
5.82849e-40
7.55243e-41
9.64106e-42
1.21247e-42
1.5022e-43
1.83357e-44
2.2049e-45
2.61221e-46
3.04904e-47
3.50644e-48
3.97307e-49
4.43564e-50
4.87945e-51
5.28911e-52
5.64945e-53
5.94646e-54
6.16814e-55
6.30536e-56
6.35247e-57
6.30768e-58
6.17318e-59
5.95495e-60
5.66234e-61
5.30737e-62
4.90397e-63
4.46704e-64
4.01155e-65
3.55177e-66
3.10053e-67
2.66871e-68
2.26496e-69
1.89553e-70
1.56433e-71
1.27312e-72
1.0218e-73
8.08791e-75
6.31376e-76
4.86107e-77
3.69128e-78
2.76455e-79
2.04209e-80
1.48773e-81
1.06895e-82
7.5745e-84
5.29281e-85
3.64662e-86
2.47701e-87
1.65829e-88
1.09403e-89
7.10841e-91
4.54792e-92
2.8622e-93
1.77182e-94
1.07742e-95
6.44668e-97
7.13786e-15
3.64625e-13
8.05287e-12
1.08812e-10
1.06033e-09
8.27888e-09
5.14707e-08
2.60826e-07
1.12788e-06
4.27919e-06
1.44818e-05
4.42889e-05
0.000123792
0.000319413
0.000767561
0.00173097
0.00369107
0.00754689
0.0151585
0.0295737
0.0564977
0.106383
0.198644
0.369316
0.558066
0.691662
0.77837
0.831558
0.857489
0.869698
0.874611
0.87523
0.857536
0.825382
0.781368
0.725202
0.665715
0.622722
0.600688
0.590502
0.587997
0.608644
0.642515
0.693553
0.754901
0.819975
0.871676
0.916846
0.949471
0.971187
0.983552
0.98997
0.993324
0.994907
0.995643
0.994891
0.992017
0.985567
0.972613
0.947174
0.897622
0.802327
0.640288
0.452809
0.29373
0.182273
0.106656
0.0592184
0.0312373
0.0156816
0.00750538
0.00343077
0.00150049
0.000629068
0.00025326
9.8086e-05
3.66055e-05
1.31847e-05
4.59007e-06
1.54664e-06
5.05043e-07
1.60009e-07
4.92385e-08
1.47312e-08
4.28883e-09
1.2161e-09
3.361e-10
9.0602e-11
2.38376e-11
6.12497e-12
1.53781e-12
3.77467e-13
9.06235e-14
2.129e-14
4.89624e-15
1.10272e-15
2.43295e-16
5.26031e-17
1.11489e-17
2.31695e-18
4.72262e-19
9.44363e-20
1.85304e-20
3.56877e-21
6.74725e-22
1.25255e-22
2.28348e-23
4.08896e-24
7.19298e-25
1.24323e-25
2.11155e-26
3.52468e-27
5.78306e-28
9.32762e-29
1.47914e-29
2.30631e-30
3.53625e-31
5.33246e-32
7.90886e-33
1.15383e-33
1.65596e-34
2.33817e-35
3.24829e-36
4.44253e-37
5.98491e-38
7.94216e-39
1.03818e-39
1.33679e-40
1.69555e-41
2.11846e-42
2.60735e-43
3.16122e-44
3.77571e-45
4.44264e-46
5.14985e-47
5.88127e-48
6.61737e-49
7.33588e-50
8.01283e-51
8.62389e-52
9.14576e-53
9.55769e-54
9.84282e-55
9.98937e-56
9.99139e-57
9.84922e-58
9.56938e-59
9.16412e-60
8.6505e-61
8.04923e-62
7.38327e-63
6.67642e-64
5.95192e-65
5.23128e-66
4.5333e-67
3.87342e-68
3.26337e-69
2.71111e-70
2.22101e-71
1.7943e-72
1.42952e-73
1.12319e-74
8.70346e-76
6.65143e-77
5.01333e-78
3.72674e-79
2.73222e-80
1.97552e-81
1.40864e-82
9.90494e-84
6.86724e-85
4.69406e-86
3.16262e-87
2.09992e-88
1.3735e-89
8.84751e-91
5.60915e-92
3.49939e-93
2.14707e-94
1.29729e-95
1.2862e-14
7.71598e-13
1.76757e-11
2.34948e-10
2.08987e-09
1.39781e-08
8.37348e-08
4.31508e-07
1.91258e-06
7.42752e-06
2.56789e-05
8.00923e-05
0.000228013
0.000598944
0.00146759
0.00339642
0.00754934
0.016513
0.0343152
0.0653753
0.130984
0.261861
0.482827
0.637094
0.750444
0.804937
0.831666
0.843326
0.847268
0.83657
0.796561
0.718145
0.587721
0.501657
0.412174
0.368692
0.341037
0.327955
0.322922
0.321874
0.326109
0.330053
0.340503
0.358575
0.390943
0.454046
0.563155
0.691505
0.805818
0.885453
0.937124
0.967143
0.983748
0.992267
0.996186
0.997856
0.998485
0.998627
0.997864
0.995542
0.989856
0.97646
0.94553
0.875251
0.725016
0.514922
0.325171
0.195638
0.110808
0.0594094
0.0302153
0.0146087
0.00672906
0.00295943
0.00124543
0.000502583
0.000194871
7.27372e-05
2.61816e-05
9.10258e-06
3.06128e-06
9.97233e-07
3.15053e-07
9.66397e-08
2.88111e-08
8.35621e-09
2.35982e-09
6.49401e-10
1.74272e-10
4.56366e-11
1.16691e-11
2.91504e-12
7.11804e-13
1.69979e-13
3.97142e-14
9.08212e-15
2.03371e-15
4.46074e-16
9.58707e-17
2.01958e-17
4.1712e-18
8.44896e-19
1.6788e-19
3.27306e-20
6.26274e-21
1.17631e-21
2.16929e-22
3.92852e-23
6.98767e-24
1.22096e-24
2.09606e-25
3.53593e-26
5.86222e-27
9.5529e-28
1.5303e-28
2.41013e-29
3.73228e-30
5.68362e-31
8.51209e-32
1.25387e-32
1.81681e-33
2.58972e-34
3.63175e-35
5.0129e-36
6.81465e-37
9.12404e-38
1.20317e-38
1.56267e-39
1.999e-40
2.5187e-41
3.12581e-42
3.82109e-43
4.60107e-44
5.45748e-45
6.37678e-46
7.34007e-47
8.32349e-48
9.29891e-49
1.02352e-49
1.10998e-50
1.18606e-51
1.24879e-52
1.29562e-53
1.32463e-54
1.33461e-55
1.3252e-56
1.29685e-57
1.25084e-58
1.18915e-59
1.11432e-60
1.02931e-61
9.37256e-63
8.41338e-64
7.44562e-65
6.49632e-66
5.58841e-67
4.74003e-68
3.96428e-69
3.26929e-70
2.65867e-71
2.13212e-72
1.6862e-73
1.31512e-74
1.01156e-75
7.67354e-77
5.74086e-78
4.23578e-79
3.08219e-80
2.21176e-81
1.56512e-82
1.09205e-83
7.51259e-85
5.0945e-86
3.40493e-87
2.24221e-88
1.45448e-89
9.29026e-91
5.84214e-92
3.61638e-93
2.2063e-94
1.01701e-14
7.57558e-13
1.91674e-11
2.88241e-10
3.27168e-09
2.80942e-08
1.79909e-07
9.56731e-07
4.36528e-06
1.74033e-05
6.1259e-05
0.000191473
0.000537198
0.00138207
0.00334741
0.00767126
0.0162099
0.0318631
0.0623298
0.134572
0.289888
0.515577
0.672842
0.760561
0.802998
0.819103
0.824771
0.817764
0.774916
0.675629
0.522521
0.406486
0.348414
0.302745
0.281717
0.27257
0.269181
0.268686
0.273394
0.277581
0.285711
0.291111
0.293549
0.292074
0.287021
0.282889
0.290226
0.333293
0.454721
0.636062
0.794918
0.889254
0.941986
0.971908
0.987376
0.994777
0.997944
0.999081
0.999466
0.999559
0.999311
0.998279
0.995199
0.98653
0.962941
0.900588
0.745134
0.513162
0.314427
0.181958
0.099231
0.0511372
0.0249719
0.0115868
0.00512173
0.00216241
0.000874159
0.000339133
0.00012653
4.54876e-05
1.57844e-05
5.29525e-06
1.71986e-06
5.41516e-07
1.65485e-07
4.91365e-08
1.41896e-08
3.98887e-09
1.09243e-09
2.91695e-10
7.59891e-11
1.93256e-11
4.80094e-12
1.16563e-12
2.76727e-13
6.42681e-14
1.46075e-14
3.25061e-15
7.08469e-16
1.51284e-16
3.16606e-17
6.49576e-18
1.30692e-18
2.57923e-19
4.99415e-20
9.48994e-21
1.77008e-21
3.24143e-22
5.82883e-23
1.02945e-23
1.78602e-24
3.04431e-25
5.099e-26
8.39335e-27
1.358e-27
2.1599e-28
3.37746e-29
5.19302e-30
7.85184e-31
1.16759e-31
1.70773e-32
2.45697e-33
3.47754e-34
4.84396e-35
6.64421e-36
8.97455e-37
1.19377e-37
1.56378e-38
2.01739e-39
2.56315e-40
3.20731e-41
3.95279e-42
4.79818e-43
5.73689e-44
6.75645e-45
7.83826e-46
8.95768e-47
1.00847e-47
1.11852e-48
1.22222e-49
1.31584e-50
1.39579e-51
1.45889e-52
1.50254e-53
1.52495e-54
1.52519e-55
1.50334e-56
1.46039e-57
1.39824e-58
1.31952e-59
1.22741e-60
1.12545e-61
1.01728e-62
9.06464e-64
7.96306e-65
6.89677e-66
5.88934e-67
4.9586e-68
4.11662e-69
3.36999e-70
2.72042e-71
2.1656e-72
1.70007e-73
1.31617e-74
1.00489e-75
7.5665e-77
5.61874e-78
4.11479e-79
2.97171e-80
2.11641e-81
1.48626e-82
1.02909e-83
7.02453e-85
4.72633e-86
3.13387e-87
2.04741e-88
1.31766e-89
8.35281e-91
5.21601e-92
3.2126e-93
7.30644e-15
5.94683e-13
1.98428e-11
3.30419e-10
3.41837e-09
2.80391e-08
1.90701e-07
1.05966e-06
5.01631e-06
2.08939e-05
7.81836e-05
0.000263857
0.000799865
0.00217267
0.00522094
0.0111955
0.0233167
0.0513451
0.120473
0.264449
0.474086
0.662099
0.750567
0.790733
0.805485
0.810544
0.793042
0.729031
0.563802
0.427502
0.339535
0.294395
0.272734
0.261069
0.255077
0.248754
0.24588
0.24495
0.247305
0.256017
0.268935
0.286739
0.302626
0.309236
0.305244
0.282492
0.255498
0.244163
0.248002
0.306267
0.473399
0.70739
0.842702
0.919926
0.96215
0.98334
0.993251
0.997492
0.99912
0.999655
0.999815
0.999842
0.999697
0.999031
0.996698
0.989036
0.965044
0.893053
0.701126
0.451499
0.266884
0.147972
0.0772157
0.0380533
0.0177692
0.0078871
0.00333772
0.00135048
0.000523775
0.000195179
7.00264e-05
2.42352e-05
8.10437e-06
2.62266e-06
8.22447e-07
2.50239e-07
7.39553e-08
2.12516e-08
5.9432e-09
1.6189e-09
4.29858e-10
1.11336e-10
2.81471e-11
6.94979e-12
1.67682e-12
3.95546e-13
9.12648e-14
2.06061e-14
4.55454e-15
9.85865e-16
2.09057e-16
4.34438e-17
8.84997e-18
1.7678e-18
3.46353e-19
6.65748e-20
1.25577e-20
2.32499e-21
4.22602e-22
7.54278e-23
1.32221e-23
2.27677e-24
3.85176e-25
6.40308e-26
1.0461e-26
1.67987e-27
2.65187e-28
4.11583e-29
6.28121e-30
9.42673e-31
1.39141e-31
2.0201e-32
2.88505e-33
4.05467e-34
5.61059e-35
7.64416e-36
1.0255e-36
1.35468e-37
1.76218e-38
2.2573e-39
2.84756e-40
3.53765e-41
4.32845e-42
5.21607e-43
6.19108e-44
7.238e-45
8.33524e-46
9.45548e-47
1.05666e-47
1.16329e-48
1.26172e-49
1.34829e-50
1.4196e-51
1.47275e-52
1.50554e-53
1.51663e-54
1.50559e-55
1.47298e-56
1.42026e-57
1.34972e-58
1.26427e-59
1.16728e-60
1.06237e-61
9.53136e-63
8.43015e-64
7.35081e-65
6.31936e-66
5.35633e-67
4.47646e-68
3.68887e-69
2.99748e-70
2.40182e-71
1.89783e-72
1.47884e-73
1.13641e-74
8.61216e-76
6.4365e-77
4.74404e-78
3.44825e-79
2.47167e-80
1.74702e-81
1.21757e-82
8.36634e-84
5.66725e-85
3.78396e-86
2.48999e-87
1.6147e-88
1.03184e-89
6.4994e-91
4.04049e-92
6.7621e-15
5.21489e-13
1.79069e-11
2.96168e-10
3.2342e-09
2.79068e-08
2.01976e-07
1.20475e-06
5.99929e-06
2.54422e-05
9.43205e-05
0.000312579
0.000926204
0.00245885
0.00610588
0.0145607
0.0353672
0.0835497
0.190572
0.365421
0.598021
0.721829
0.773113
0.792065
0.798801
0.780731
0.704932
0.537997
0.397107
0.317589
0.278408
0.260501
0.249479
0.230612
0.209837
0.182303
0.162468
0.148932
0.144757
0.154773
0.176163
0.214613
0.269167
0.314117
0.335385
0.343615
0.308484
0.249941
0.224778
0.224798
0.260477
0.394427
0.656376
0.82097
0.913122
0.960609
0.983191
0.993268
0.997489
0.999139
0.999725
0.999897
0.999942
0.999929
0.999778
0.999106
0.996456
0.986702
0.952903
0.841604
0.588574
0.355007
0.199857
0.105449
0.0523638
0.0245707
0.0109356
0.00463253
0.00187379
0.000725741
0.000269834
9.65257e-05
3.32881e-05
1.10869e-05
3.57188e-06
1.11474e-06
3.37439e-07
9.91894e-08
2.83424e-08
7.87987e-09
2.13346e-09
5.62956e-10
1.44876e-10
3.6386e-11
8.92377e-12
2.13835e-12
5.00899e-13
1.14754e-13
2.57229e-14
5.644e-15
1.21265e-15
2.55225e-16
5.26375e-17
1.06411e-17
2.10926e-18
4.10058e-19
7.82071e-20
1.46366e-20
2.68862e-21
4.84852e-22
8.58558e-23
1.49312e-23
2.55075e-24
4.28116e-25
7.06069e-26
1.14444e-26
1.82331e-27
2.85571e-28
4.3975e-29
6.65872e-30
9.91562e-31
1.45225e-31
2.09218e-32
2.96591e-33
4.1391e-34
5.68676e-35
7.69228e-36
1.02446e-36
1.34339e-37
1.73458e-38
2.20543e-39
2.76132e-40
3.40476e-41
4.13446e-42
4.94465e-43
5.82445e-44
6.75769e-45
7.72296e-46
8.69425e-47
9.64191e-48
1.05341e-48
1.13384e-49
1.20241e-50
1.25636e-51
1.29348e-52
1.31224e-53
1.31186e-54
1.29243e-55
1.25485e-56
1.20078e-57
1.13251e-58
1.05279e-59
9.64699e-61
8.71377e-62
7.759e-63
6.81099e-64
5.89437e-65
5.0293e-66
4.23094e-67
3.50948e-68
2.8704e-69
2.31499e-70
1.84111e-71
1.44393e-72
1.11675e-73
8.51765e-75
6.40682e-76
4.75254e-77
3.47669e-78
2.50816e-79
1.78435e-80
1.25175e-81
8.65857e-83
5.90509e-84
3.97036e-85
2.63161e-86
1.71951e-87
1.10765e-88
7.03659e-90
4.41441e-91
7.09881e-15
4.42959e-13
1.40429e-11
2.44951e-10
2.94536e-09
2.63173e-08
1.88314e-07
1.12532e-06
5.69888e-06
2.51153e-05
9.88119e-05
0.000346755
0.00109364
0.0031329
0.00832417
0.0214182
0.052197
0.120919
0.245526
0.455247
0.655248
0.739598
0.774628
0.788739
0.787374
0.742739
0.588979
0.415722
0.32118
0.274491
0.252859
0.235142
0.207069
0.167975
0.1253
0.0966725
0.0809776
0.07408
0.0725332
0.0797668
0.0923774
0.111466
0.146452
0.229235
0.319916
0.354625
0.362736
0.330648
0.246267
0.219688
0.225263
0.268669
0.439132
0.68934
0.845275
0.928413
0.968917
0.987282
0.995075
0.998192
0.999375
0.999803
0.999941
0.999976
0.999977
0.999936
0.999705
0.998642
0.994139
0.976429
0.911271
0.702235
0.433936
0.247654
0.131816
0.0658061
0.030963
0.0137916
0.00583849
0.00235729
0.000910517
0.000337361
0.000120189
4.12587e-05
1.36726e-05
4.38125e-06
1.35955e-06
4.09088e-07
1.19504e-07
3.39276e-08
9.37018e-09
2.5197e-09
6.60234e-10
1.68699e-10
4.20612e-11
1.02393e-11
2.43513e-12
5.66061e-13
1.28678e-13
2.86182e-14
6.22956e-15
1.32776e-15
2.77199e-16
5.67046e-17
1.13696e-17
2.2351e-18
4.3093e-19
8.15053e-20
1.51268e-20
2.75546e-21
4.92749e-22
8.65236e-23
1.49213e-23
2.52771e-24
4.207e-25
6.88043e-26
1.10593e-26
1.74732e-27
2.71401e-28
4.14481e-29
6.22453e-30
9.19325e-31
1.3355e-31
1.90896e-32
2.68586e-33
3.71985e-34
5.07164e-35
6.80729e-36
8.99553e-37
1.17038e-37
1.49935e-38
1.89134e-39
2.34939e-40
2.87394e-41
3.46227e-42
4.10796e-43
4.80057e-44
5.52566e-45
6.26498e-46
6.99715e-47
7.69854e-48
8.34455e-49
8.91098e-50
9.37556e-51
9.71936e-52
9.92816e-53
9.99334e-54
9.91251e-55
9.68967e-56
9.33484e-57
8.86334e-58
8.2947e-59
7.65134e-60
6.95709e-61
6.23578e-62
5.50992e-63
4.79968e-64
4.12201e-65
3.49023e-66
2.91383e-67
2.39861e-68
1.94694e-69
1.55833e-70
1.22996e-71
9.5734e-73
7.34835e-74
5.56251e-75
4.15255e-76
3.05719e-77
2.21969e-78
1.58935e-79
1.12225e-80
7.81438e-82
5.36552e-83
3.63275e-84
2.42524e-85
1.59665e-86
1.03668e-87
6.64107e-89
4.20339e-90
8.50885e-15
3.2555e-13
1.07052e-11
1.82823e-10
2.3598e-09
2.20604e-08
1.5849e-07
9.52896e-07
4.95871e-06
2.25849e-05
9.01398e-05
0.000320223
0.00102288
0.00298405
0.00807247
0.0207527
0.0506347
0.118101
0.257596
0.482519
0.653822
0.736437
0.771269
0.782162
0.761547
0.660512
0.481343
0.349161
0.285421
0.252227
0.229659
0.200041
0.160506
0.117564
0.082951
0.0650721
0.0551359
0.0508078
0.0518636
0.0587315
0.0720227
0.0887944
0.109602
0.15159
0.249936
0.344814
0.373937
0.367642
0.307692
0.235862
0.224686
0.244785
0.35499
0.619092
0.80846
0.912056
0.962106
0.984511
0.993988
0.99778
0.999216
0.999734
0.999914
0.999974
0.999991
0.999992
0.999976
0.999875
0.999349
0.996866
0.98606
0.942544
0.779091
0.493999
0.284816
0.152432
0.076273
0.0358896
0.0159614
0.00673869
0.00271094
0.00104259
0.000384404
0.000136212
4.64881e-05
1.53111e-05
4.87466e-06
1.50252e-06
4.48974e-07
1.30218e-07
3.66983e-08
1.00594e-08
2.68428e-09
6.97867e-10
1.76898e-10
4.37495e-11
1.05631e-11
2.49132e-12
5.74271e-13
1.2944e-13
2.85417e-14
6.15943e-15
1.30144e-15
2.69333e-16
5.46127e-17
1.08537e-17
2.11484e-18
4.04129e-19
7.57572e-20
1.39349e-20
2.51573e-21
4.45869e-22
7.7594e-23
1.32622e-23
2.22667e-24
3.67305e-25
5.95395e-26
9.48554e-27
1.48547e-27
2.28706e-28
3.46227e-29
5.15431e-30
7.5468e-31
1.08722e-31
1.5415e-32
2.15115e-33
2.9548e-34
3.99526e-35
5.31801e-36
6.96897e-37
8.99144e-38
1.14224e-38
1.42882e-39
1.76e-40
2.13496e-41
2.55053e-42
3.00095e-43
3.47772e-44
3.96974e-45
4.46357e-46
4.94399e-47
5.39473e-48
5.79934e-49
6.14223e-50
6.40964e-51
6.59056e-52
6.67747e-53
6.6669e-54
6.55962e-55
6.36059e-56
6.07854e-57
5.7254e-58
5.3154e-59
4.86419e-60
4.38783e-61
3.90186e-62
3.42055e-63
2.95626e-64
2.51901e-65
2.11629e-66
1.75305e-67
1.43188e-68
1.15326e-69
9.15951e-71
7.17386e-72
5.54093e-73
4.22059e-74
3.17052e-75
2.34889e-76
1.71622e-77
1.2367e-78
8.78885e-80
6.15999e-81
4.25798e-82
2.90279e-83
1.95177e-84
1.29451e-85
8.47075e-87
5.47099e-88
3.49277e-89
6.2949e-11
5.48492e-12