/*--------------------------------*- C++ -*----------------------------------*\
  =========                 |
  \\      /  F ield         | OpenFOAM: The Open Source CFD Toolbox
   \\    /   O peration     | Website:  https://openfoam.org
    \\  /    A nd           | Version:  7
     \\/     M anipulation  |
\*---------------------------------------------------------------------------*/
FoamFile
{
    version     2.0;
    format      ascii;
    class       volVectorField;
    location    "0.021";
    object      U;
}
// * * * * * * * * * * * * * * * * * * * * * * * * * * * * * * * * * * * * * //

dimensions      [0 1 -1 0 0 0 0];

internalField   nonuniform List<vector> 
12225
(
(4.75363 0.18705 0)
(4.18948 0.112975 0)
(3.73826 0.0940073 0)
(3.36864 0.0853971 0)
(2.98959 0.0793432 0)
(2.62133 0.0656585 0)
(2.3133 0.0497891 0)
(2.06271 0.0411702 0)
(1.84387 0.038094 0)
(1.64521 0.0335747 0)
(1.46536 0.0255521 0)
(1.3165 0.0162542 0)
(1.19414 0.00849601 0)
(1.10867 0.00419052 0)
(1.03042 0.0023764 0)
(0.982591 0.00117536 0)
(0.924171 0.00565062 0)
(0.863654 -0.00193289 0)
(4.93223 0.0896985 0)
(4.89286 0.0648505 0)
(4.78693 0.0905693 0)
(4.68145 0.0963849 0)
(4.57221 0.102697 0)
(4.45163 0.103641 0)
(4.32284 0.0951141 0)
(4.18819 0.0843264 0)
(4.0508 0.0779648 0)
(3.9209 0.0763601 0)
(3.79786 0.0745083 0)
(3.68636 0.068727 0)
(3.5791 0.0599399 0)
(3.48526 0.0502446 0)
(3.39544 0.0444655 0)
(3.31984 0.0378737 0)
(3.24576 0.0408729 0)
(3.18352 0.0431614 0)
(5.12459 0.196997 0)
(4.88065 0.118528 0)
(4.78336 0.129798 0)
(4.75872 0.133297 0)
(4.73419 0.133425 0)
(4.70574 0.130068 0)
(4.68132 0.121896 0)
(4.65854 0.114923 0)
(4.6352 0.112771 0)
(4.6114 0.112402 0)
(4.58317 0.107888 0)
(4.54783 0.0976332 0)
(4.50678 0.0854141 0)
(4.46384 0.0745496 0)
(4.42504 0.0675955 0)
(4.38819 0.062983 0)
(4.3584 0.0630952 0)
(4.32202 0.0662699 0)
(4.96401 0.235891 0)
(4.87886 0.139453 0)
(4.83278 0.119527 0)
(4.80719 0.126219 0)
(4.7892 0.13284 0)
(4.77419 0.128178 0)
(4.76227 0.113978 0)
(4.75169 0.100776 0)
(4.746 0.0953501 0)
(4.74742 0.095416 0)
(4.75121 0.095723 0)
(4.74945 0.0926923 0)
(4.74037 0.086749 0)
(4.72523 0.0787751 0)
(4.70985 0.0722933 0)
(4.69361 0.067176 0)
(4.68086 0.0668695 0)
(4.6649 0.0718646 0)
(5.10367 0.254234 0)
(5.06783 0.148956 0)
(4.94187 0.127317 0)
(4.84225 0.134656 0)
(4.79627 0.13562 0)
(4.77974 0.131408 0)
(4.77333 0.122943 0)
(4.76839 0.113496 0)
(4.76721 0.107386 0)
(4.77366 0.104998 0)
(4.78569 0.103664 0)
(4.79669 0.100343 0)
(4.80276 0.0944115 0)
(4.80232 0.086664 0)
(4.79696 0.0800876 0)
(4.78734 0.0760071 0)
(4.77534 0.0765486 0)
(4.76139 0.0810314 0)
(4.98266 0.265284 0)
(4.94584 0.186591 0)
(4.9072 0.17607 0)
(4.85634 0.178381 0)
(4.8203 0.16638 0)
(4.80652 0.146865 0)
(4.80731 0.124985 0)
(4.80928 0.106759 0)
(4.80883 0.0964016 0)
(4.81015 0.0927609 0)
(4.81539 0.0918623 0)
(4.82099 0.0902871 0)
(4.82265 0.0872404 0)
(4.81682 0.0835174 0)
(4.80388 0.080943 0)
(4.78569 0.0804315 0)
(4.76616 0.0822075 0)
(4.74914 0.0861825 0)
(5.03842 0.287098 0)
(4.97366 0.164254 0)
(4.89851 0.144538 0)
(4.85936 0.154604 0)
(4.84601 0.149437 0)
(4.83662 0.13458 0)
(4.82574 0.119128 0)
(4.81573 0.107667 0)
(4.81124 0.101101 0)
(4.81519 0.0978042 0)
(4.82551 0.0958621 0)
(4.83553 0.09435 0)
(4.8402 0.0933826 0)
(4.83658 0.0931373 0)
(4.82701 0.0934013 0)
(4.81343 0.0939189 0)
(4.80163 0.094277 0)
(4.79132 0.0948385 0)
(5.07509 0.312664 0)
(4.99582 0.246796 0)
(4.87443 0.202379 0)
(4.82903 0.186372 0)
(4.83705 0.174771 0)
(4.85151 0.157818 0)
(4.85584 0.135911 0)
(4.85016 0.114215 0)
(4.83928 0.098165 0)
(4.82919 0.0893518 0)
(4.82365 0.0863391 0)
(4.82297 0.0870706 0)
(4.82626 0.089854 0)
(4.83206 0.0931144 0)
(4.83937 0.0955946 0)
(4.84622 0.096706 0)
(4.85265 0.096467 0)
(4.85584 0.0957609 0)
(4.99566 0.24526 0)
(5.00438 0.243319 0)
(4.96053 0.204215 0)
(4.91693 0.16534 0)
(4.90029 0.144285 0)
(4.89885 0.132868 0)
(4.90125 0.122884 0)
(4.9009 0.11385 0)
(4.89528 0.107479 0)
(4.88579 0.10272 0)
(4.87517 0.0974971 0)
(4.8659 0.0915867 0)
(4.85958 0.0863384 0)
(4.85716 0.0832431 0)
(4.85747 0.0827271 0)
(4.85946 0.0842115 0)
(4.86041 0.0870156 0)
(4.86062 0.0900657 0)
(5.05746 0.259989 0)
(5.0689 0.269814 0)
(5.03409 0.227804 0)
(4.97384 0.198093 0)
(4.9185 0.178694 0)
(4.88017 0.158484 0)
(4.86081 0.136629 0)
(4.85748 0.117732 0)
(4.86403 0.105476 0)
(4.87299 0.0996929 0)
(4.87769 0.0976478 0)
(4.87451 0.0970508 0)
(4.86462 0.0965648 0)
(4.8518 0.0961953 0)
(4.84017 0.0958133 0)
(4.8317 0.0958687 0)
(4.82686 0.096241 0)
(4.82518 0.0971766 0)
(4.99864 0.284819 0)
(4.96112 0.275341 0)
(4.95309 0.246917 0)
(4.93761 0.213012 0)
(4.92005 0.185888 0)
(4.9052 0.159934 0)
(4.89479 0.13277 0)
(4.88752 0.10985 0)
(4.88204 0.0971919 0)
(4.87775 0.0949732 0)
(4.87367 0.0980627 0)
(4.86798 0.101028 0)
(4.86091 0.101148 0)
(4.85302 0.0988755 0)
(4.84752 0.0956877 0)
(4.844 0.0931868 0)
(4.84555 0.0917316 0)
(4.84852 0.0917163 0)
(5.0416 0.331255 0)
(4.93435 0.296851 0)
(4.91805 0.23291 0)
(4.93878 0.201085 0)
(4.96903 0.186966 0)
(4.98661 0.17097 0)
(4.98477 0.149608 0)
(4.96958 0.127948 0)
(4.95212 0.111425 0)
(4.94043 0.102675 0)
(4.9354 0.100705 0)
(4.93278 0.102173 0)
(4.92896 0.103715 0)
(4.92243 0.10334 0)
(4.91573 0.100654 0)
(4.91076 0.0966555 0)
(4.9108 0.0920179 0)
(4.91483 0.0887357 0)
(4.97438 0.38457 0)
(4.97517 0.316433 0)
(4.98206 0.24371 0)
(4.96482 0.194994 0)
(4.94316 0.169166 0)
(4.93026 0.153886 0)
(4.93341 0.139115 0)
(4.94757 0.123503 0)
(4.96183 0.111212 0)
(4.9686 0.105655 0)
(4.96614 0.106325 0)
(4.95666 0.109866 0)
(4.94435 0.112334 0)
(4.93293 0.111286 0)
(4.92501 0.106135 0)
(4.92113 0.0983473 0)
(4.9217 0.0894112 0)
(4.92457 0.0818755 0)
(5.02189 0.329506 0)
(5.02974 0.300376 0)
(5.01037 0.248014 0)
(4.97922 0.221179 0)
(4.94455 0.202799 0)
(4.91797 0.175977 0)
(4.90698 0.142158 0)
(4.90806 0.112729 0)
(4.91465 0.0971214 0)
(4.92291 0.0963096 0)
(4.93178 0.104098 0)
(4.94112 0.112625 0)
(4.95147 0.116501 0)
(4.9622 0.114213 0)
(4.97258 0.107045 0)
(4.98083 0.0976133 0)
(4.98717 0.0883019 0)
(4.99011 0.0808336 0)
(4.98208 0.279377 0)
(4.96544 0.309502 0)
(4.97995 0.26728 0)
(4.99425 0.23015 0)
(4.99141 0.202538 0)
(4.97761 0.175324 0)
(4.96453 0.146817 0)
(4.95402 0.121361 0)
(4.9446 0.104075 0)
(4.93753 0.0961293 0)
(4.93587 0.0945027 0)
(4.94091 0.0950407 0)
(4.95164 0.0945136 0)
(4.96464 0.0921735 0)
(4.97677 0.0881502 0)
(4.98546 0.0837642 0)
(4.99098 0.0794886 0)
(4.99343 0.0758345 0)
(4.95551 0.33177 0)
(4.98812 0.281681 0)
(5.00217 0.230014 0)
(5.01026 0.222442 0)
(4.99527 0.223367 0)
(4.97201 0.201652 0)
(4.95816 0.163166 0)
(4.95908 0.128258 0)
(4.97185 0.108503 0)
(4.99098 0.101336 0)
(5.01099 0.0986156 0)
(5.02757 0.0954117 0)
(5.03857 0.0910537 0)
(5.04347 0.0870308 0)
(5.04431 0.0841179 0)
(5.04251 0.0820245 0)
(5.04149 0.0797017 0)
(5.0409 0.0757862 0)
(5.0356 0.273648 0)
(5.03278 0.296223 0)
(4.99047 0.260681 0)
(4.95887 0.237899 0)
(4.96499 0.22825 0)
(4.99371 0.204752 0)
(5.02207 0.1604 0)
(5.04193 0.109101 0)
(5.05437 0.0689789 0)
(5.06038 0.0491375 0)
(5.06128 0.0481235 0)
(5.05951 0.0588151 0)
(5.05783 0.0729708 0)
(5.0578 0.0841474 0)
(5.06105 0.0889355 0)
(5.0672 0.0870922 0)
(5.0764 0.0800134 0)
(5.08596 0.0707994 0)
(4.9263 0.301597 0)
(4.95788 0.306596 0)
(4.94373 0.289327 0)
(4.95461 0.235791 0)
(4.99042 0.174221 0)
(5.03294 0.122962 0)
(5.06533 0.0902402 0)
(5.07934 0.0787825 0)
(5.07657 0.0841342 0)
(5.0632 0.0967452 0)
(5.04707 0.106653 0)
(5.0349 0.107775 0)
(5.03065 0.099195 0)
(5.03474 0.0841449 0)
(5.04561 0.0675468 0)
(5.06002 0.053394 0)
(5.07569 0.0436531 0)
(5.08958 0.038979 0)
(5.03281 0.299515 0)
(5.02361 0.323285 0)
(5.03128 0.266406 0)
(5.05775 0.190513 0)
(5.06331 0.136441 0)
(5.05019 0.112294 0)
(5.03602 0.105672 0)
(5.02459 0.10475 0)
(5.01689 0.104032 0)
(5.01621 0.101184 0)
(5.02443 0.0942954 0)
(5.03977 0.0821659 0)
(5.05856 0.0656111 0)
(5.07705 0.0472682 0)
(5.09374 0.0305418 0)
(5.10776 0.0177953 0)
(5.11993 0.00983959 0)
(5.12998 0.00679618 0)
(4.92927 0.408411 0)
(4.95102 0.29593 0)
(4.98447 0.204821 0)
(5.01453 0.184005 0)
(5.02503 0.169959 0)
(5.02675 0.146952 0)
(5.02865 0.124208 0)
(5.03212 0.107024 0)
(5.03701 0.0928355 0)
(5.04414 0.0777349 0)
(5.05428 0.0603709 0)
(5.06651 0.0418423 0)
(5.07932 0.0244042 0)
(5.09143 0.00983607 0)
(5.10242 -0.00101881 0)
(5.11244 -0.00741183 0)
(5.12246 -0.00979546 0)
(5.1333 -0.00806626 0)
(4.98129 0.382201 0)
(4.99061 0.262674 0)
(4.98883 0.189542 0)
(5.00827 0.160859 0)
(5.03936 0.139812 0)
(5.06747 0.122582 0)
(5.08776 0.110828 0)
(5.10498 0.101011 0)
(5.12187 0.0877753 0)
(5.137 0.0697398 0)
(5.14771 0.0497193 0)
(5.15279 0.0308324 0)
(5.15278 0.0140621 0)
(5.14882 -0.000871738 0)
(5.14376 -0.0145233 0)
(5.1404 -0.0263682 0)
(5.14007 -0.0366026 0)
(5.14276 -0.0437949 0)
(4.98932 0.328757 0)
(4.95333 0.220588 0)
(4.98509 0.174985 0)
(5.03946 0.136386 0)
(5.08243 0.111218 0)
(5.10629 0.0955659 0)
(5.11957 0.0817275 0)
(5.13396 0.0689144 0)
(5.15463 0.0586681 0)
(5.18131 0.0511358 0)
(5.21059 0.0450205 0)
(5.23755 0.039029 0)
(5.25855 0.0318989 0)
(5.27245 0.0228278 0)
(5.27947 0.0118237 0)
(5.2799 -0.000453725 0)
(5.27566 -0.0131941 0)
(5.26836 -0.0250018 0)
(4.96591 0.268295 0)
(4.88476 0.186768 0)
(4.93418 0.115625 0)
(5.00578 0.0803914 0)
(5.06478 0.0744573 0)
(5.10315 0.077086 0)
(5.1274 0.0713146 0)
(5.14543 0.0525363 0)
(5.16072 0.0260203 0)
(5.17492 4.35914e-05 0)
(5.18926 -0.0187306 0)
(5.20405 -0.027769 0)
(5.2184 -0.0290464 0)
(5.23099 -0.0260599 0)
(5.24141 -0.0224558 0)
(5.24921 -0.0204338 0)
(5.25462 -0.0206799 0)
(5.25729 -0.0231093 0)
(5.02774 0.203851 0)
(5.00254 0.200958 0)
(5.05354 0.103567 0)
(5.06175 0.0520476 0)
(5.06099 0.048631 0)
(5.09163 0.056381 0)
(5.14978 0.0560143 0)
(5.21161 0.0467551 0)
(5.25537 0.0340196 0)
(5.27385 0.0217297 0)
(5.27357 0.0117977 0)
(5.26487 0.00403606 0)
(5.25651 -0.00206014 0)
(5.25342 -0.00695879 0)
(5.2562 -0.0114431 0)
(5.2626 -0.0160225 0)
(5.27058 -0.0210724 0)
(5.278 -0.0263294 0)
(4.96634 0.152586 0)
(5.07149 0.0917123 0)
(5.13554 0.072462 0)
(5.15309 0.0605504 0)
(5.1632 0.0371181 0)
(5.18712 0.000389753 0)
(5.21622 -0.0279632 0)
(5.24113 -0.0349467 0)
(5.26112 -0.0260292 0)
(5.28033 -0.0139104 0)
(5.30155 -0.00827209 0)
(5.32377 -0.0112839 0)
(5.34407 -0.0191437 0)
(5.35877 -0.0274402 0)
(5.36642 -0.0338441 0)
(5.36761 -0.0380204 0)
(5.36506 -0.0407543 0)
(5.36123 -0.0437621 0)
(5.02086 0.13451 0)
(5.04395 0.0910672 0)
(5.11176 0.100485 0)
(5.17272 0.0721563 0)
(5.22552 0.0403257 0)
(5.26735 0.0196935 0)
(5.29172 0.0127292 0)
(5.30332 0.0102161 0)
(5.31375 0.00358454 0)
(5.3302 -0.0079149 0)
(5.35182 -0.0200901 0)
(5.37382 -0.0277286 0)
(5.39227 -0.0288003 0)
(5.40561 -0.0245231 0)
(5.41539 -0.01855 0)
(5.42362 -0.0143509 0)
(5.43284 -0.014361 0)
(5.44343 -0.0197103 0)
(4.98517 0.111787 0)
(5.05468 -0.00248772 0)
(5.18169 0.00315973 0)
(5.25069 -0.00133409 0)
(5.26574 -0.0244744 0)
(5.27845 -0.0437371 0)
(5.31122 -0.0498602 0)
(5.35485 -0.0464755 0)
(5.39512 -0.0422729 0)
(5.42231 -0.0417228 0)
(5.43326 -0.0439221 0)
(5.43176 -0.0463161 0)
(5.42592 -0.0475398 0)
(5.42342 -0.0480212 0)
(5.42925 -0.0491427 0)
(5.44314 -0.0519203 0)
(5.46321 -0.0567571 0)
(5.48419 -0.062973 0)
(5.13835 0.144547 0)
(5.20961 0.0485572 0)
(5.28004 0.0523931 0)
(5.33421 0.0460248 0)
(5.37947 0.0170797 0)
(5.41509 -0.00915312 0)
(5.43905 -0.0253147 0)
(5.45554 -0.0313699 0)
(5.46959 -0.0306952 0)
(5.48261 -0.0270528 0)
(5.49297 -0.0231019 0)
(5.50015 -0.0209396 0)
(5.50627 -0.0218281 0)
(5.51428 -0.0260215 0)
(5.52607 -0.0324669 0)
(5.5407 -0.0398448 0)
(5.55645 -0.04708 0)
(5.56967 -0.0530536 0)
(4.98819 -0.0224881 0)
(5.19254 -0.0422996 0)
(5.3277 -0.0214664 0)
(5.40265 -0.0428674 0)
(5.45322 -0.067555 0)
(5.48472 -0.0752749 0)
(5.49411 -0.0699301 0)
(5.48784 -0.0626508 0)
(5.47709 -0.0581761 0)
(5.4699 -0.0560009 0)
(5.46761 -0.0547201 0)
(5.46757 -0.0544137 0)
(5.46613 -0.0559448 0)
(5.4611 -0.059751 0)
(5.45043 -0.0648385 0)
(5.43451 -0.0700209 0)
(5.4124 -0.0741963 0)
(5.38723 -0.0764041 0)
(4.96058 0.0425781 0)
(5.04518 -0.0132583 0)
(5.03864 0.00254668 0)
(4.95385 -0.00675606 0)
(4.81017 -0.0209828 0)
(4.64512 -0.0270838 0)
(4.49532 -0.0255237 0)
(4.36865 -0.0231637 0)
(4.25582 -0.0228124 0)
(4.15001 -0.023059 0)
(4.0505 -0.0223052 0)
(3.95796 -0.0207313 0)
(3.8704 -0.0195172 0)
(3.78429 -0.0195261 0)
(3.69574 -0.0206896 0)
(3.60476 -0.0224817 0)
(3.5103 -0.0242648 0)
(3.41725 -0.0256277 0)
(0.00698338 -0.0368794 -2.24195e-20)
(0.0117365 -0.0385982 2.2261e-20)
(0.0156945 -0.0355381 0)
(0.0151155 -0.030831 0)
(0.00993613 -0.0246419 0)
(-0.00101889 -0.0171894 -2.16178e-20)
(-0.0181138 -0.00885415 0)
(-0.0418102 5.84496e-06 0)
(-0.0724748 0.00918121 0)
(-0.110349 0.0185853 0)
(-0.155655 0.0281938 2.08253e-20)
(-0.208586 0.0379795 0)
(-0.269283 0.0478958 0)
(-0.337826 0.0578621 0)
(-0.414217 0.0677571 0)
(-0.498368 0.0774302 2.00504e-20)
(-0.590091 0.0867164 0)
(-0.6891 0.0954425 0)
(-0.795016 0.103439 0)
(-0.907385 0.110571 0)
(-1.02568 0.116763 0)
(-1.14913 0.12196 0)
(-1.27679 0.126036 0)
(-1.4077 0.128885 1.88813e-20)
(-1.5408 0.130427 -1.87432e-20)
(-1.67491 0.130603 1.86068e-20)
(-1.8088 0.129361 1.84718e-20)
(-1.94111 0.126662 0)
(-2.07039 0.122484 0)
(-2.19511 0.116822 -1.80714e-20)
(-2.31366 0.109685 -1.79379e-20)
(-2.42437 0.101108 0)
(-2.52556 0.0911677 0)
(-2.61554 0.0799872 -1.75282e-20)
(-2.69275 0.0677206 0)
(-2.75577 0.054581 0)
(-2.80332 0.0408837 1.709e-20)
(-2.83437 0.026949 0)
(-2.84827 0.013046 1.67748e-20)
(-2.8441 -0.000445137 3.32176e-20)
(-2.82343 -0.0132507 0)
(-2.78597 -0.025458 0)
(-2.73249 -0.0369036 0)
(-2.66382 -0.0474695 0)
(-2.58099 -0.0570503 0)
(-2.4852 -0.0655537 3.10436e-20)
(-2.37776 -0.0729262 3.06635e-20)
(-2.26007 -0.0791465 3.02827e-20)
(-2.13356 -0.0842233 0)
(-1.99968 -0.0881887 -2.95251e-20)
(-1.85983 -0.0910926 0)
(-1.71538 -0.0929941 2.87819e-20)
(-1.56764 -0.0939559 2.84185e-20)
(-1.41787 -0.0940529 0)
(-1.26722 -0.0933625 0)
(-1.1167 -0.0919479 0)
(-0.967263 -0.089944 2.70358e-20)
(-0.819836 -0.0874792 0)
(-0.675185 -0.0845165 0)
(-0.533911 -0.08125 0)
(-0.396539 -0.0776266 0)
(-0.26358 -0.0738999 0)
(-0.135447 -0.0700093 0)
(-0.012704 -0.0661973 0)
(0.104705 -0.0622834 0)
(0.217146 -0.0583916 -2.43397e-20)
(0.324359 -0.0545608 0)
(0.426325 -0.0508212 0)
(0.523083 -0.047196 2.3528e-20)
(0.614714 -0.0437014 2.32674e-20)
(0.701326 -0.0403491 0)
(0.783051 -0.0371467 -2.27588e-20)
(0.860036 -0.0340986 2.25102e-20)
(0.932437 -0.0312069 0)
(1.00042 -0.0284719 -2.20231e-20)
(1.06415 -0.0258925 0)
(1.1238 -0.0234665 0)
(1.17954 -0.0211909 2.13144e-20)
(1.23154 -0.0190624 0)
(1.27997 -0.0170769 -2.08545e-20)
(1.325 -0.0152302 0)
(1.3668 -0.0135179 2.04034e-20)
(1.40553 -0.0119352 2.01809e-20)
(1.44134 -0.0104771 1.99602e-20)
(1.4744 -0.00913847 3.94829e-20)
(1.50486 -0.00791415 -3.90488e-20)
(1.53287 -0.00679871 0)
(1.55858 -0.00578667 0)
(1.58213 -0.00487243 0)
(1.60365 -0.00405036 -3.73455e-20)
(1.62329 -0.00331469 -3.69275e-20)
(1.64116 -0.0026596 3.65125e-20)
(1.65739 -0.00207918 0)
(1.67211 -0.0015673 -3.5691e-20)
(1.68541 -0.00111763 -3.52845e-20)
(1.69741 -0.000724211 -3.48808e-20)
(1.70821 -0.000381675 0)
(1.71791 -8.54444e-05 0)
(1.72659 0.000168699 0)
(1.73434 0.000385336 -3.32928e-20)
(1.74125 0.000567878 0)
(1.74737 0.000720536 0)
(1.75278 0.000847037 3.21292e-20)
(1.75755 0.000949373 0)
(1.76172 0.00103313 0)
(1.76536 0.00109832 3.09883e-20)
(1.76851 0.00114929 0)
(1.77122 0.00119041 0)
(1.77353 0.00121984 -2.98696e-20)
(1.77546 0.00124752 -2.95015e-20)
(1.77703 0.00127688 0)
(1.77827 0.00130431 2.87725e-20)
(1.77921 0.00132549 0)
(1.77987 0.00134038 -2.8053e-20)
(1.78028 0.00135459 0)
(1.78046 0.001369 -2.73427e-20)
(1.78044 0.00137453 -2.69911e-20)
(1.78022 0.00137004 0)
(1.77984 0.00136327 0)
(1.7793 0.00135697 0)
(1.77862 0.00135134 0)
(1.7778 0.00134483 0)
(1.77685 0.00133536 0)
(1.77581 0.00131964 0)
(1.77467 0.00129531 -2.42586e-20)
(1.77347 0.00126268 2.39269e-20)
(1.77222 0.00122437 0)
(1.77093 0.00118397 0)
(1.76961 0.00114462 0)
(1.76827 0.00110808 0)
(1.76691 0.00107481 4.45999e-20)
(1.76553 0.00104439 0)
(1.76413 0.00101621 -4.33272e-20)
(1.7627 0.00098978 4.26969e-20)
(1.76124 0.000964875 0)
(1.75976 0.000941445 0)
(1.75826 0.000919547 0)
(1.75674 0.000899217 -4.02153e-20)
(1.7552 0.000880484 -3.96046e-20)
(1.75363 0.000863316 0)
(1.75204 0.000847677 -3.83947e-20)
(1.75043 0.000833499 -3.77953e-20)
(1.7488 0.000820703 3.71997e-20)
(1.74715 0.000809201 0)
(1.74548 0.000798904 0)
(1.74379 0.000789745 3.54347e-20)
(1.74207 0.000781681 0)
(1.74034 0.000774694 0)
(1.73858 0.000768776 0)
(1.73679 0.000763931 0)
(1.73498 0.000760171 -3.25637e-20)
(1.73314 0.00075754 -3.19998e-20)
(1.73128 0.000756097 0)
(1.72938 0.000755986 -3.08819e-20)
(1.72745 0.0007573 0)
(1.72548 0.000760382 0)
(1.72346 0.000765279 -2.92294e-20)
(1.7214 0.000772789 0)
(1.71928 0.000782713 -2.81435e-20)
(1.7171 0.000796729 0)
(1.71482 0.000814208 0)
(1.71248 0.000838012 -2.65376e-20)
(1.70998 0.000867638 0)
(1.7074 0.000906346 -2.54818e-20)
(1.70455 0.000956618 0)
(1.70163 0.00101833 0)
(1.69822 0.00110572 0)
(1.69477 0.00120235 2.3404e-20)
(1.69041 0.00136318 0)
(1.68614 0.00150742 -2.23812e-20)
(1.68013 0.00182959 0)
(1.67442 0.00201845 0)
(1.66559 0.00273628 0)
(1.65687 0.0028844 0)
(1.64349 0.00471368 0)
(1.62688 0.00438538 0)
(1.60743 0.00975423 0)
(1.56549 0.00726946 3.67574e-20)
(1.54309 0.0263691 0)
(1.40517 0.0199985 0)
(-0.0114004 -0.000473868 6.72605e-20)
(-0.0607463 0.0199742 -6.6776e-20)
(-0.108646 0.0299423 0)
(-0.159649 0.0439503 4.38575e-20)
(-0.213313 0.060028 0)
(-0.269895 0.0773301 2.15994e-20)
(-0.329524 0.0952451 -4.2878e-20)
(-0.392443 0.113541 -4.25551e-20)
(-0.458875 0.132139 0)
(-0.528981 0.150942 -4.19146e-20)
(-0.602883 0.169832 -2.07957e-20)
(-0.680642 0.188656 0)
(-0.762258 0.207226 0)
(-0.847669 0.225341 0)
(-0.936756 0.242791 0)
(-1.02935 0.259355 -2.00169e-20)
(-1.12525 0.274801 0)
(-1.22418 0.288891 3.94448e-20)
(-1.32586 0.301401 0)
(-1.42992 0.312128 0)
(-1.536 0.320909 -3.85719e-20)
(-1.64375 0.327606 0)
(-1.75279 0.332062 3.80103e-20)
(-1.86263 0.334135 -1.88542e-20)
(-1.97266 0.333662 1.87176e-20)
(-2.08221 0.330459 -1.85827e-20)
(-2.1905 0.324328 -1.84493e-20)
(-2.29669 0.315086 0)
(-2.39981 0.302571 0)
(-2.49875 0.28665 1.8054e-20)
(-2.59229 0.267231 -1.79679e-20)
(-2.67909 0.244281 0)
(-2.75775 0.217857 0)
(-2.82685 0.188122 1.75172e-20)
(-2.88498 0.155354 0)
(-2.93085 0.119968 0)
(-2.96334 0.0825385 -1.70833e-20)
(-2.98144 0.0437388 0)
(-2.9844 0.00430098 1.68249e-20)
(-2.97203 -0.0349315 -3.32083e-20)
(-2.94232 -0.0731918 0)
(-2.89614 -0.109912 0)
(-2.83379 -0.144502 -6.4394e-20)
(-2.75609 -0.176486 -6.36515e-20)
(-2.66414 -0.205488 -6.28976e-20)
(-2.55917 -0.231235 3.11028e-20)
(-2.44256 -0.253574 -3.06529e-20)
(-2.31575 -0.272453 -9.08739e-20)
(-2.18021 -0.287908 5.98362e-20)
(-2.03741 -0.300033 2.95153e-20)
(-1.88876 -0.308971 0)
(-1.73562 -0.3149 -2.8773e-20)
(-1.5793 -0.318026 2.84409e-20)
(-1.42105 -0.318573 0)
(-1.26197 -0.316772 0)
(-1.10308 -0.312854 0)
(-0.945398 -0.307127 -2.703e-20)
(-0.789732 -0.299857 0)
(-0.636751 -0.291227 5.27867e-20)
(-0.487076 -0.281579 0)
(-0.341257 -0.2711 5.15587e-20)
(-0.199823 -0.260006 0)
(-0.063201 -0.248522 -5.03876e-20)
(0.0682799 -0.237023 0)
(0.194837 -0.225344 4.92331e-20)
(0.31657 -0.213709 -2.43378e-20)
(0.433304 -0.202229 0)
(0.54505 -0.19099 -4.75753e-20)
(0.651863 -0.180057 -2.35193e-20)
(0.753834 -0.169474 -2.32586e-20)
(0.851078 -0.159272 0)
(0.943726 -0.14947 -2.27545e-20)
(1.03192 -0.14008 -2.25012e-20)
(1.11581 -0.131106 0)
(1.19555 -0.122547 2.20139e-20)
(1.27129 -0.114398 -4.35532e-20)
(1.34319 -0.106653 0)
(1.4114 -0.0993033 -2.13048e-20)
(1.47607 -0.092338 0)
(1.53733 -0.0857465 6.25365e-20)
(1.59535 -0.0795176 0)
(1.65024 -0.0736397 -6.11819e-20)
(1.70215 -0.0681013 -2.01705e-20)
(1.7512 -0.0628904 1.99518e-20)
(1.79752 -0.0579954 3.94655e-20)
(1.84123 -0.0534046 -3.90309e-20)
(1.88245 -0.0491061 0)
(1.92128 -0.0450883 0)
(1.95785 -0.0413395 0)
(1.99226 -0.037848 1.11972e-19)
(2.0246 -0.0346021 3.69049e-20)
(2.05498 -0.0315902 -3.64896e-20)
(2.08349 -0.0288007 0)
(2.11022 -0.0262216 -3.567e-20)
(2.13528 -0.023841 3.52614e-20)
(2.15873 -0.0216466 3.48576e-20)
(2.18067 -0.019627 0)
(2.20117 -0.0177713 0)
(2.22031 -0.0160691 0)
(2.23817 -0.0145101 3.32695e-20)
(2.25482 -0.0130845 0)
(2.27032 -0.0117827 -6.49838e-20)
(2.28474 -0.010595 -9.63194e-20)
(2.29815 -0.00951379 6.34478e-20)
(2.31061 -0.0085289 0)
(2.32217 -0.00763361 3.09664e-20)
(2.33288 -0.0068199 0)
(2.34281 -0.00607835 6.04361e-20)
(2.352 -0.00540467 -2.98481e-20)
(2.3605 -0.00478801 -2.94802e-20)
(2.36838 -0.00422174 0)
(2.37568 -0.00370753 -8.62537e-20)
(2.38243 -0.00324566 5.67811e-20)
(2.38868 -0.00282882 2.8032e-20)
(2.39445 -0.00245221 0)
(2.39978 -0.00211541 2.73223e-20)
(2.40468 -0.00180863 8.09131e-20)
(2.4092 -0.0015241 0)
(2.41335 -0.0012662 5.25502e-20)
(2.41716 -0.00103509 5.1861e-20)
(2.42065 -0.000824134 5.11763e-20)
(2.42386 -0.000635824 0)
(2.4268 -0.000468968 0)
(2.4295 -0.0003233 0)
(2.43197 -0.00019965 -2.42408e-20)
(2.43423 -9.77154e-05 -2.39093e-20)
(2.4363 -1.53601e-05 0)
(2.4382 5.11397e-05 -4.65057e-20)
(2.43993 0.000106428 -4.58555e-20)
(2.44153 0.000154794 0)
(2.44299 0.000199463 -4.45676e-20)
(2.44432 0.00024217 -8.78597e-20)
(2.44554 0.000283498 4.32961e-20)
(2.44663 0.000323212 4.26664e-20)
(2.44762 0.000360878 0)
(2.44849 0.000396048 0)
(2.44926 0.000428539 0)
(2.44993 0.000458291 4.01871e-20)
(2.4505 0.000485454 -3.9577e-20)
(2.45099 0.000510195 -7.79414e-20)
(2.4514 0.000532773 3.83682e-20)
(2.45173 0.000553415 -3.77694e-20)
(2.452 0.000572356 -3.71743e-20)
(2.4522 0.000589813 0)
(2.45233 0.000605989 0)
(2.45242 0.000621096 3.5411e-20)
(2.45245 0.00063535 0)
(2.45243 0.000648987 0)
(2.45236 0.000662251 -6.73591e-20)
(2.45225 0.000675408 0)
(2.4521 0.000688738 -3.25426e-20)
(2.45191 0.000702568 3.19791e-20)
(2.45168 0.000717258 0)
(2.45141 0.000733278 -3.08622e-20)
(2.4511 0.00075112 0)
(2.45076 0.000771509 0)
(2.45037 0.000795136 2.92111e-20)
(2.44994 0.000823148 -5.73342e-20)
(2.44946 0.000856642 2.81261e-20)
(2.44892 0.000897242 0)
(2.44833 0.000947274 0)
(2.44767 0.00100803 -2.65216e-20)
(2.44691 0.00108606 0)
(2.44607 0.0011784 -2.54666e-20)
(2.44508 0.00130523 0)
(2.44396 0.00144584 0)
(2.44261 0.00166185 0)
(2.44106 0.00187246 -2.33903e-20)
(2.43912 0.00226351 0)
(2.43685 0.00256475 2.23682e-20)
(2.43396 0.00333141 0)
(2.43039 0.00371421 0)
(2.42594 0.00536088 -4.17078e-20)
(2.41974 0.00568742 4.07073e-20)
(2.41289 0.00957897 0)
(2.40066 0.00933844 0)
(2.39057 0.019563 0)
(2.36259 0.0177646 -1.10221e-19)
(2.35092 0.0485719 0)
(2.28095 0.0480253 6.95838e-20)
(-0.0193605 0.118325 1.45495e-23)
(-0.0916141 0.165639 8.90286e-20)
(-0.159286 0.174347 0)
(-0.228477 0.188318 -8.76948e-20)
(-0.297227 0.204071 0)
(-0.366354 0.221392 0)
(-0.435941 0.240026 -1.43383e-23)
(-0.506261 0.259755 4.25327e-20)
(-0.577523 0.280244 4.22259e-20)
(-0.649958 0.301299 4.18915e-20)
(-0.723734 0.322704 0)
(-0.798987 0.344202 0)
(-0.875835 0.365523 -4.09645e-20)
(-0.95441 0.386395 -8.13115e-20)
(-1.03486 0.40657 8.07002e-20)
(-1.11736 0.425807 0)
(-1.20209 0.443874 7.94973e-20)
(-1.28925 0.460544 -3.94278e-20)
(-1.37898 0.4756 0)
(-1.47141 0.488813 7.77483e-20)
(-1.56658 0.499922 3.85584e-20)
(-1.66453 0.508631 -7.6623e-20)
(-1.76521 0.514653 -3.79985e-20)
(-1.86851 0.517675 0)
(-1.97416 0.517345 7.4998e-20)
(-2.08172 0.513267 7.44717e-20)
(-2.19051 0.505009 0)
(-2.29958 0.492133 7.34371e-20)
(-2.40774 0.47422 0)
(-2.51359 0.450892 7.24149e-20)
(-2.61551 0.421848 3.58797e-20)
(-2.71167 0.386906 0)
(-2.80015 0.346038 0)
(-2.87893 0.299414 0)
(-2.94602 0.247434 0)
(-2.99958 0.190732 0)
(-3.03796 0.130156 0)
(-3.05976 0.0667636 6.80011e-20)
(-3.06401 0.00181363 -1.00951e-19)
(-3.04998 -0.0633713 0)
(-3.0175 -0.127567 0)
(-2.96708 -0.189355 0)
(-2.89956 -0.247608 -1.54785e-22)
(-2.81602 -0.301369 6.36302e-20)
(-2.71781 -0.349931 1.25884e-19)
(-2.60642 -0.39284 -1.24347e-19)
(-2.48343 -0.429866 -6.1456e-20)
(-2.35047 -0.460973 6.05791e-20)
(-2.2091 -0.486272 8.81082e-23)
(-2.06087 -0.505968 5.91323e-20)
(-1.90723 -0.520327 0)
(-1.74959 -0.529666 5.76211e-20)
(-1.58926 -0.534339 5.31918e-23)
(-1.4275 -0.534714 0)
(-1.26542 -0.531197 0)
(-1.10407 -0.524253 -5.47637e-20)
(-0.944426 -0.514318 0)
(-0.78729 -0.501758 0)
(-0.633367 -0.487104 5.28167e-20)
(-0.483286 -0.470773 1.04341e-19)
(-0.337401 -0.453197 -5.15444e-20)
(-0.196207 -0.434723 0)
(-0.0602882 -0.415549 5.03744e-20)
(0.0702794 -0.396357 0)
(0.195807 -0.377006 4.92465e-20)
(0.316332 -0.357812 4.86579e-20)
(0.431771 -0.338941 -9.62349e-20)
(0.542178 -0.320523 -4.75867e-20)
(0.647651 -0.302654 0)
(0.748316 -0.285402 9.30474e-20)
(0.844318 -0.268812 0)
(0.935814 -0.252909 1.36509e-19)
(1.02297 -0.237705 9.00165e-20)
(1.10595 -0.223201 8.9035e-20)
(1.18492 -0.20939 -8.80664e-20)
(1.26004 -0.19626 1.30658e-19)
(1.33149 -0.183794 0)
(1.39941 -0.171974 0)
(1.46397 -0.160777 -8.4303e-20)
(1.52531 -0.150183 -1.25075e-19)
(1.58357 -0.14017 0)
(1.63889 -0.130713 4.07859e-20)
(1.6914 -0.121792 0)
(1.74123 -0.113384 -1.19705e-19)
(1.78851 -0.105467 6.61503e-24)
(1.83334 -0.0980189 -6.1344e-24)
(1.87583 -0.0910198 7.71977e-20)
(1.9161 -0.0844488 0)
(1.95424 -0.078286 -7.54928e-20)
(1.99034 -0.0725117 4.5066e-24)
(2.0245 -0.067107 0)
(2.05681 -0.0620534 0)
(2.08734 -0.0573329 0)
(2.11618 -0.0529283 7.13345e-20)
(2.14341 -0.048823 0)
(2.16909 -0.0450007 0)
(2.1933 -0.0414457 0)
(2.2161 -0.0381424 0)
(2.23757 -0.0350761 0)
(2.25776 -0.0322321 6.65388e-20)
(2.27673 -0.0295969 0)
(2.29454 -0.027157 6.49802e-20)
(2.31126 -0.0249001 6.42097e-20)
(2.32693 -0.0228139 -6.34442e-20)
(2.3416 -0.0208868 0)
(2.35534 -0.0191078 -6.19283e-20)
(2.36818 -0.0174666 0)
(2.38018 -0.0159531 -6.04323e-20)
(2.39138 -0.0145568 5.96917e-20)
(2.40183 -0.0132718 1.76869e-19)
(2.41157 -0.0120901 0)
(2.42063 -0.0110043 1.72498e-19)
(2.42907 -0.010008 5.67786e-20)
(2.43691 -0.00909293 0)
(2.4442 -0.00825236 1.10698e-19)
(2.45097 -0.00748103 1.09283e-19)
(2.45726 -0.00676823 -1.61816e-19)
(2.4631 -0.0061082 0)
(2.46851 -0.00550216 -5.25465e-20)
(2.47355 -0.00494677 -5.18574e-20)
(2.47821 -0.00444342 -1.53518e-19)
(2.48254 -0.00398586 0)
(2.48654 -0.00357176 0)
(2.49025 -0.00319994 0)
(2.49368 -0.00286921 -4.84782e-20)
(2.49685 -0.00257776 0)
(2.49978 -0.00232277 0)
(2.50247 -0.00209968 4.65021e-20)
(2.50495 -0.00190236 4.5852e-20)
(2.50723 -0.0017241 0)
(2.50933 -0.00155891 0)
(2.51126 -0.00140251 8.78528e-20)
(2.51303 -0.00125268 0)
(2.51466 -0.00110896 -8.5326e-20)
(2.51616 -0.000971911 -8.40748e-20)
(2.51753 -0.000842484 0)
(2.51879 -0.000721422 0)
(2.51994 -0.000609135 8.03679e-20)
(2.52098 -0.00050561 -4.18164e-26)
(2.52194 -0.000410555 -3.625e-26)
(2.52281 -0.000323473 0)
(2.5236 -0.000243782 1.51066e-19)
(2.52432 -0.000170864 0)
(2.52497 -0.000104109 0)
(2.52555 -4.29192e-05 0)
(2.52608 1.32978e-05 -7.08163e-20)
(2.52656 6.51315e-05 0)
(2.52699 0.000113175 1.37002e-19)
(2.52737 0.000158027 6.73538e-20)
(2.5277 0.000200282 0)
(2.528 0.000240568 6.508e-20)
(2.52826 0.000279523 0)
(2.52849 0.000317894 0)
(2.52868 0.00035644 1.85159e-19)
(2.52883 0.00039619 -1.21225e-19)
(2.52895 0.000438061 0)
(2.52904 0.000483669 -1.16835e-19)
(2.52909 0.000534016 5.73297e-20)
(2.5291 0.000592064 0)
(2.52906 0.000658364 0)
(2.52898 0.000739179 0)
(2.52884 0.000832567 1.59117e-19)
(2.52865 0.000953355 0)
(2.52836 0.00109058 5.09291e-20)
(2.52798 0.00128172 0)
(2.52747 0.00148783 0)
(2.52684 0.00180607 0)
(2.52595 0.00211683 0)
(2.52492 0.00267659 0)
(2.5234 0.00313828 0)
(2.52173 0.00419139 8.74386e-20)
(2.51912 0.00485165 0)
(2.51641 0.00698522 4.17043e-20)
(2.51176 0.00786763 -1.22114e-19)
(2.50736 0.012549 0)
(2.49883 0.0136997 0)
(2.49168 0.0249905 7.54582e-20)
(2.47605 0.0274838 7.34773e-20)
(2.4655 0.057484 -7.15337e-20)
(2.44203 0.0681799 -6.95733e-20)
(-0.0189381 0.23812 -1.34581e-19)
(-0.0922998 0.312818 -1.33591e-19)
(-0.160066 0.318909 -8.84095e-20)
(-0.229343 0.330984 -4.38993e-20)
(-0.297273 0.345051 0)
(-0.365023 0.361346 8.64287e-20)
(-0.432485 0.379216 -4.29153e-20)
(-0.500012 0.398507 0)
(-0.567832 0.419111 -4.22185e-20)
(-0.636234 0.440765 0)
(-0.705457 0.463132 8.32211e-20)
(-0.775819 0.485957 0)
(-0.847677 0.509044 4.0959e-20)
(-0.921433 0.532206 8.13015e-20)
(-0.997495 0.555225 -8.06908e-20)
(-1.07626 0.57786 0)
(-1.15808 0.599857 -7.94884e-20)
(-1.24331 0.62094 0)
(-1.33225 0.640795 0)
(-1.42519 0.659065 -7.77382e-20)
(-1.5224 0.675354 0)
(-1.62407 0.689224 -9.05301e-23)
(-1.73026 0.700168 0)
(-1.84082 0.707596 0)
(-1.95535 0.71083 1.18029e-22)
(-2.07322 0.709107 -7.44517e-20)
(-2.19347 0.7016 -7.40725e-20)
(-2.31488 0.687461 -7.34131e-20)
(-2.43595 0.665865 0)
(-2.55494 0.63607 -1.44964e-19)
(-2.66985 0.597477 0)
(-2.77851 0.549685 -7.15781e-20)
(-2.87861 0.492568 0)
(-2.96777 0.42634 0)
(-3.04359 0.351599 7.00092e-20)
(-3.10388 0.269356 0)
(-3.14671 0.181018 -6.88679e-20)
(-3.17054 0.0883253 2.77092e-22)
(-3.17425 -0.0067108 1.34961e-19)
(-3.15738 -0.101951 -1.33866e-19)
(-3.12005 -0.195212 0)
(-3.06276 -0.284499 0)
(-2.9867 -0.368104 -6.49585e-20)
(-2.89343 -0.444682 0)
(-2.78479 -0.513294 -6.29823e-20)
(-2.66277 -0.573385 6.22086e-20)
(-2.52934 -0.624749 6.14311e-20)
(-2.38639 -0.667474 0)
(-2.23567 -0.70185 -5.98785e-20)
(-2.07879 -0.728262 -5.91097e-20)
(-1.91725 -0.747143 1.16899e-19)
(-1.75242 -0.758975 -5.76004e-20)
(-1.58561 -0.764268 -5.68642e-20)
(-1.41801 -0.763545 0)
(-1.25073 -0.757389 0)
(-1.08481 -0.746428 5.47472e-20)
(-0.921194 -0.731293 0)
(-0.760694 -0.712584 0)
(-0.604068 -0.691032 -1.05561e-19)
(-0.451864 -0.667236 -1.04316e-19)
(-0.304488 -0.641714 0)
(-0.162206 -0.615147 0)
(-0.0258418 -0.587854 0)
(0.104693 -0.560487 0)
(0.230081 -0.533085 -9.8438e-20)
(0.350073 -0.506006 9.73449e-20)
(0.464742 -0.479473 9.62085e-20)
(0.574205 -0.453653 1.90285e-19)
(0.678606 -0.428662 0)
(0.77811 -0.404583 2.61961e-23)
(0.872892 -0.381467 0)
(0.963133 -0.359338 -9.09925e-20)
(1.04901 -0.338206 2.16945e-23)
(1.13071 -0.318064 -8.90184e-20)
(1.20841 -0.298898 8.80508e-20)
(1.28227 -0.280685 1.77608e-23)
(1.35247 -0.263398 0)