/*--------------------------------*- C++ -*----------------------------------*\
  =========                 |
  \\      /  F ield         | OpenFOAM: The Open Source CFD Toolbox
   \\    /   O peration     | Website:  https://openfoam.org
    \\  /    A nd           | Version:  7
     \\/     M anipulation  |
\*---------------------------------------------------------------------------*/
FoamFile
{
    version     2.0;
    format      ascii;
    class       volVectorField;
    location    "0.021";
    object      U_0;
}
// * * * * * * * * * * * * * * * * * * * * * * * * * * * * * * * * * * * * * //

dimensions      [0 1 -1 0 0 0 0];

internalField   nonuniform List<vector> 
12225
(
(4.75016 0.189569 0)
(4.18731 0.112047 0)
(3.73885 0.0936946 0)
(3.37079 0.0854101 0)
(2.9923 0.0792916 0)
(2.62514 0.065482 0)
(2.31843 0.0496587 0)
(2.06873 0.0411698 0)
(1.85028 0.0381353 0)
(1.6518 0.0335573 0)
(1.47219 0.025461 0)
(1.32374 0.0161284 0)
(1.2019 0.00838546 0)
(1.11703 0.00409873 0)
(1.03943 0.00226287 0)
(0.992548 0.000985337 0)
(0.935661 0.00520495 0)
(0.87851 -0.00297705 0)
(4.92803 0.0914429 0)
(4.89183 0.0639505 0)
(4.78708 0.0900726 0)
(4.68324 0.0959893 0)
(4.57537 0.102383 0)
(4.45579 0.103257 0)
(4.32764 0.0946709 0)
(4.19343 0.0839553 0)
(4.05652 0.0777412 0)
(3.92717 0.0762498 0)
(3.80463 0.0743951 0)
(3.6936 0.0685458 0)
(3.5868 0.0596834 0)
(3.49351 0.0499251 0)
(3.4044 0.044046 0)
(3.32972 0.0372311 0)
(3.25717 0.0397735 0)
(3.19657 0.0405514 0)
(5.11633 0.190744 0)
(4.87538 0.115787 0)
(4.78374 0.128715 0)
(4.76111 0.132586 0)
(4.73726 0.132831 0)
(4.70971 0.129501 0)
(4.6863 0.121406 0)
(4.66432 0.114584 0)
(4.64154 0.112551 0)
(4.61808 0.112188 0)
(4.59003 0.107567 0)
(4.55489 0.0972019 0)
(4.51417 0.0849159 0)
(4.4718 0.0739771 0)
(4.43376 0.0668807 0)
(4.3978 0.0619311 0)
(4.369 0.0613372 0)
(4.33341 0.0629344 0)
(4.95816 0.223249 0)
(4.87754 0.135083 0)
(4.83441 0.117507 0)
(4.80987 0.125363 0)
(4.79263 0.132128 0)
(4.77842 0.127242 0)
(4.76725 0.11299 0)
(4.75733 0.0999978 0)
(4.75227 0.094859 0)
(4.7542 0.095103 0)
(4.75827 0.0954298 0)
(4.75667 0.0922909 0)
(4.74781 0.0861694 0)
(4.73307 0.0779799 0)
(4.71824 0.0712398 0)
(4.70266 0.0657207 0)
(4.69052 0.0647399 0)
(4.67477 0.0684326 0)
(5.10733 0.2442 0)
(5.06734 0.144105 0)
(4.94085 0.125032 0)
(4.8432 0.133381 0)
(4.79924 0.13457 0)
(4.78405 0.13043 0)
(4.77847 0.122021 0)
(4.77414 0.112694 0)
(4.77356 0.106762 0)
(4.78058 0.104521 0)
(4.79303 0.103218 0)
(4.80432 0.0997937 0)
(4.81061 0.0936627 0)
(4.81038 0.0856743 0)
(4.80527 0.0788228 0)
(4.79592 0.0743589 0)
(4.78413 0.0742682 0)
(4.7701 0.0777048 0)
(4.97616 0.257864 0)
(4.94618 0.181944 0)
(4.9085 0.173596 0)
(4.85844 0.176535 0)
(4.82362 0.164672 0)
(4.81113 0.145225 0)
(4.81283 0.123486 0)
(4.81526 0.105539 0)
(4.81514 0.0955108 0)
(4.81683 0.0921129 0)
(4.82245 0.0912998 0)
(4.82833 0.0896599 0)
(4.83012 0.0864513 0)
(4.82431 0.0825095 0)
(4.8114 0.0796509 0)
(4.79334 0.0787174 0)
(4.77401 0.0798598 0)
(4.75705 0.0829789 0)
(5.04097 0.279282 0)
(4.97449 0.15834 0)
(4.89967 0.14171 0)
(4.86231 0.152594 0)
(4.84999 0.147548 0)
(4.84115 0.132871 0)
(4.83078 0.117701 0)
(4.82134 0.106522 0)
(4.81747 0.100176 0)
(4.82201 0.0970203 0)
(4.83276 0.0951438 0)
(4.84299 0.0936242 0)
(4.84769 0.0925677 0)
(4.84406 0.0921237 0)
(4.83455 0.0920489 0)
(4.82113 0.0920645 0)
(4.80955 0.091761 0)
(4.79931 0.0915756 0)
(5.07899 0.314496 0)
(4.99443 0.24222 0)
(4.87475 0.198463 0)
(4.83257 0.183601 0)
(4.84209 0.172576 0)
(4.8569 0.155825 0)
(4.86136 0.134033 0)
(4.85582 0.112537 0)
(4.84516 0.0967916 0)
(4.8354 0.0882911 0)
(4.83028 0.0855074 0)
(4.83008 0.0863336 0)
(4.83384 0.0890508 0)
(4.84006 0.0920732 0)
(4.84768 0.094155 0)
(4.85471 0.0947378 0)
(4.86111 0.0938908 0)
(4.86404 0.0925843 0)
(4.99522 0.245075 0)
(5.00508 0.23927 0)
(4.96262 0.199452 0)
(4.92045 0.161611 0)
(4.90488 0.141713 0)
(4.90407 0.13097 0)
(4.9069 0.121308 0)
(4.9068 0.112494 0)
(4.9013 0.106286 0)
(4.89193 0.101586 0)
(4.88152 0.0963304 0)
(4.87259 0.0903485 0)
(4.86666 0.0850178 0)
(4.86464 0.0818086 0)
(4.86523 0.0810974 0)
(4.86733 0.0822797 0)
(4.86819 0.0846782 0)
(4.86812 0.0872749 0)
(5.05618 0.25854 0)
(5.06875 0.26384 0)
(5.03616 0.222794 0)
(4.97643 0.194481 0)
(4.92177 0.175891 0)
(4.88435 0.15606 0)
(4.866 0.134473 0)
(4.86354 0.115891 0)
(4.87065 0.103977 0)
(4.87982 0.0984599 0)
(4.88445 0.096546 0)
(4.88113 0.0959416 0)
(4.87119 0.0953355 0)
(4.85847 0.0947623 0)
(4.84706 0.0941069 0)
(4.8388 0.0938386 0)
(4.8341 0.0938502 0)
(4.83238 0.0944307 0)
(4.99434 0.261457 0)
(4.96139 0.267872 0)
(4.95686 0.241762 0)
(4.94193 0.20889 0)
(4.92474 0.182546 0)
(4.91032 0.157065 0)
(4.90035 0.130255 0)
(4.89345 0.107794 0)
(4.88824 0.0956622 0)
(4.88416 0.0938383 0)
(4.8802 0.0970495 0)
(4.87458 0.0998883 0)
(4.86761 0.0997518 0)
(4.85987 0.0972011 0)
(4.85457 0.093756 0)
(4.85125 0.0910124 0)
(4.85295 0.0893128 0)
(4.85595 0.0890396 0)
(5.03977 0.304332 0)
(4.93939 0.287088 0)
(4.9237 0.226938 0)
(4.94516 0.197107 0)
(4.97554 0.183916 0)
(4.99271 0.16827 0)
(4.99045 0.147126 0)
(4.97515 0.125746 0)
(4.95796 0.109581 0)
(4.94671 0.101187 0)
(4.94204 0.0994492 0)
(4.93957 0.100953 0)
(4.93575 0.102342 0)
(4.92922 0.101692 0)
(4.92259 0.0986891 0)
(4.91778 0.0943839 0)
(4.91802 0.0894922 0)
(4.92217 0.086018 0)
(4.98239 0.373772 0)
(4.98679 0.308323 0)
(4.98851 0.237828 0)
(4.9699 0.19059 0)
(4.94823 0.165879 0)
(4.93585 0.151231 0)
(4.93973 0.136746 0)
(4.95438 0.121361 0)
(4.96872 0.109397 0)
(4.97529 0.104194 0)
(4.97257 0.105097 0)
(4.96293 0.108654 0)
(4.95063 0.110916 0)
(4.93937 0.109522 0)
(4.93166 0.103992 0)
(4.92798 0.0958775 0)
(4.92867 0.0867134 0)
(4.93155 0.079053 0)
(5.03244 0.340909 0)
(5.03902 0.296938 0)
(5.01597 0.243374 0)
(4.98404 0.217394 0)
(4.94948 0.199385 0)
(4.92341 0.172612 0)
(4.91305 0.139005 0)
(4.91459 0.110143 0)
(4.92145 0.0952808 0)
(4.92987 0.0950663 0)
(4.93886 0.103092 0)
(4.94834 0.111494 0)
(4.95882 0.115018 0)
(4.96961 0.112318 0)
(4.97995 0.1048 0)
(4.98805 0.095135 0)
(4.99416 0.0857025 0)
(4.99682 0.0781842 0)
(4.98278 0.288889 0)
(4.96837 0.307653 0)
(4.98603 0.262339 0)
(5.0006 0.22582 0)
(4.99748 0.198862 0)
(4.98356 0.172014 0)
(4.97058 0.143811 0)
(4.96019 0.118767 0)
(4.95088 0.101974 0)
(4.94402 0.0944431 0)
(4.94267 0.0930302 0)
(4.94804 0.0935676 0)
(4.959 0.0929022 0)
(4.97204 0.0903823 0)
(4.98403 0.0861933 0)
(4.99247 0.0816825 0)
(4.99771 0.0773011 0)
(4.99992 0.0735599 0)
(4.95482 0.323728 0)
(4.99107 0.274511 0)
(5.00815 0.22461 0)
(5.0167 0.21907 0)
(5.00127 0.220364 0)
(4.97802 0.198223 0)
(4.96462 0.159715 0)
(4.9661 0.125391 0)
(4.97931 0.106364 0)
(4.99865 0.0996418 0)
(5.01863 0.0970261 0)
(5.03499 0.0937595 0)
(5.04568 0.0893333 0)
(5.05027 0.0852873 0)
(5.05086 0.0823538 0)
(5.04891 0.0801931 0)
(5.04782 0.0777249 0)
(5.04719 0.073604 0)
(5.0387 0.254312 0)
(5.03842 0.287205 0)
(4.99657 0.254437 0)
(4.96592 0.233884 0)
(4.97303 0.224977 0)
(5.00207 0.20118 0)
(5.03016 0.156499 0)
(5.0496 0.105441 0)
(5.06166 0.0661022 0)
(5.06735 0.0472138 0)
(5.06799 0.0469663 0)
(5.06608 0.0580558 0)
(5.06437 0.0722267 0)
(5.06441 0.0831339 0)
(5.06776 0.0875199 0)
(5.07401 0.0852786 0)
(5.08325 0.0779094 0)
(5.0927 0.0685585 0)
(4.93696 0.292171 0)
(4.97546 0.301864 0)
(4.9552 0.285031 0)
(4.96484 0.231266 0)
(5.00018 0.170021 0)
(5.04215 0.119542 0)
(5.07367 0.0877828 0)
(5.08671 0.077243 0)
(5.08317 0.0832187 0)
(5.06937 0.0960004 0)
(5.05315 0.10566 0)
(5.04117 0.106315 0)
(5.03725 0.0972825 0)
(5.04166 0.0819695 0)
(5.05274 0.0653461 0)
(5.06721 0.0513462 0)
(5.08279 0.0418504 0)
(5.09646 0.0373811 0)
(5.03646 0.311871 0)
(5.03581 0.324511 0)
(5.04179 0.263827 0)
(5.06726 0.18716 0)
(5.07136 0.133831 0)
(5.05744 0.110565 0)
(5.04295 0.104398 0)
(5.0314 0.103603 0)
(5.02375 0.10286 0)
(5.0233 0.0998875 0)
(5.03178 0.0927756 0)
(5.04729 0.0803838 0)
(5.06609 0.0636312 0)
(5.08448 0.0452381 0)
(5.10098 0.0286305 0)
(5.1148 0.0161075 0)
(5.12677 0.00842372 0)
(5.13663 0.0056132 0)
(4.93148 0.417867 0)
(4.95761 0.29398 0)
(4.99312 0.203153 0)
(5.02307 0.183109 0)
(5.03302 0.168628 0)
(5.03447 0.145245 0)
(5.03623 0.122551 0)
(5.03959 0.105531 0)
(5.04442 0.0913518 0)
(5.05154 0.0761235 0)
(5.06167 0.0586265 0)
(5.07385 0.0400581 0)
(5.08654 0.0226977 0)
(5.09852 0.00828874 0)
(5.10937 -0.00236618 0)
(5.11928 -0.00851979 0)
(5.12926 -0.0106594 0)
(5.14007 -0.0087281 0)
(4.98235 0.378212 0)
(4.99348 0.256006 0)
(4.99584 0.186994 0)
(5.01672 0.159503 0)
(5.0482 0.138641 0)
(5.07605 0.121558 0)
(5.09598 0.109926 0)
(5.11297 0.100036 0)
(5.12967 0.0865539 0)
(5.14453 0.0682837 0)
(5.15489 0.0481696 0)
(5.1596 0.029306 0)
(5.15925 0.0125956 0)
(5.15502 -0.00229109 0)
(5.14985 -0.0158949 0)
(5.14654 -0.0276729 0)
(5.1463 -0.0377932 0)
(5.14912 -0.0448108 0)
(5.00001 0.306307 0)
(4.9633 0.212034 0)
(4.99601 0.172016 0)
(5.0495 0.13463 0)
(5.09159 0.110137 0)
(5.11465 0.0946996 0)
(5.12753 0.0808311 0)
(5.14192 0.0680079 0)
(5.16274 0.0578271 0)
(5.18953 0.0503649 0)
(5.21875 0.0442504 0)
(5.24546 0.0382169 0)
(5.26605 0.0309785 0)
(5.27949 0.0217717 0)
(5.28603 0.0106589 0)
(5.28601 -0.00169989 0)
(5.28144 -0.0144568 0)
(5.27393 -0.0261954 0)
(4.98255 0.257514 0)
(4.90173 0.18299 0)
(4.94779 0.113965 0)
(5.01686 0.0800128 0)
(5.07454 0.0747194 0)
(5.11192 0.0771884 0)
(5.13558 0.0707892 0)
(5.15328 0.0513967 0)
(5.16837 0.0245717 0)
(5.18242 -0.00133464 0)
(5.19669 -0.0197351 0)
(5.21143 -0.0283563 0)
(5.22567 -0.0293379 0)
(5.23809 -0.026224 0)
(5.24831 -0.0226524 0)
(5.25588 -0.0207405 0)
(5.26105 -0.0211256 0)
(5.2635 -0.0236649 0)
(5.04363 0.216283 0)
(5.02047 0.204574 0)
(5.0656 0.102908 0)
(5.07015 0.0520716 0)
(5.06922 0.0492908 0)
(5.10081 0.0568694 0)
(5.15951 0.0559466 0)
(5.22097 0.0462584 0)
(5.26367 0.0333211 0)
(5.28104 0.0210031 0)
(5.28001 0.0111448 0)
(5.271 0.00344164 0)
(5.2627 -0.00259279 0)
(5.25982 -0.00746351 0)
(5.2628 -0.0119565 0)
(5.26928 -0.0165632 0)
(5.27722 -0.0216439 0)
(5.28457 -0.0269206 0)
(4.97485 0.166032 0)
(5.0863 0.10033 0)
(5.14565 0.0761023 0)
(5.1611 0.0618184 0)
(5.17132 0.0368661 0)
(5.19553 -0.0004768 0)
(5.22445 -0.0284823 0)
(5.24902 -0.0348315 0)
(5.26882 -0.0255744 0)
(5.28804 -0.0135806 0)
(5.30933 -0.008367 0)
(5.33151 -0.0117609 0)
(5.35157 -0.019779 0)
(5.36585 -0.0280452 0)
(5.37302 -0.0343349 0)
(5.37381 -0.0384037 0)
(5.37101 -0.0411035 0)
(5.36711 -0.0441596 0)
(5.02825 0.150085 0)
(5.05439 0.101732 0)
(5.12039 0.10433 0)
(5.18125 0.072845 0)
(5.23426 0.0403701 0)
(5.27569 0.01977 0)
(5.29933 0.0128683 0)
(5.31054 0.0101244 0)
(5.32108 0.00315102 0)
(5.33782 -0.00855781 0)
(5.35958 -0.0206802 0)
(5.38147 -0.0280398 0)
(5.39966 -0.0287861 0)
(5.4127 -0.0242895 0)
(5.42228 -0.018301 0)
(5.43043 -0.0142773 0)
(5.43967 -0.0145956 0)
(5.45031 -0.0202623 0)
(4.98389 0.139321 0)
(5.06127 0.00713641 0)
(5.18973 0.00697068 0)
(5.2582 -0.00019889 0)
(5.27288 -0.0243262 0)
(5.28612 -0.0437694 0)
(5.31957 -0.0497489 0)
(5.36343 -0.0462952 0)
(5.4034 -0.0422229 0)
(5.42992 -0.0418572 0)
(5.44011 -0.0441525 0)
(5.4381 -0.0465154 0)
(5.43215 -0.0476683 0)
(5.42991 -0.0481244 0)
(5.43617 -0.0493006 0)
(5.45045 -0.0521913 0)
(5.47072 -0.0571511 0)
(5.49162 -0.0634432 0)
(5.13865 0.170948 0)
(5.20766 0.0567528 0)
(5.28458 0.0557217 0)
(5.34138 0.0469811 0)
(5.3874 0.0169887 0)
(5.4228 -0.00951206 0)
(5.44641 -0.025588 0)
(5.46279 -0.031404 0)
(5.47686 -0.0305428 0)
(5.48983 -0.0268346 0)
(5.50004 -0.0229349 0)
(5.50707 -0.0209031 0)
(5.51317 -0.0219547 0)
(5.52129 -0.0262906 0)
(5.53323 -0.0328211 0)
(5.54795 -0.0402256 0)
(5.56364 -0.0474306 0)
(5.57662 -0.0533329 0)
(4.98547 -0.00435618 0)
(5.19011 -0.0361578 0)
(5.3328 -0.0200832 0)
(5.41011 -0.0428705 0)
(5.46125 -0.0677333 0)
(5.49239 -0.0751298 0)
(5.50125 -0.0696358 0)
(5.49474 -0.0624292 0)
(5.48413 -0.0580786 0)
(5.47725 -0.0559782 0)
(5.47521 -0.0547416 0)
(5.47524 -0.0544977 0)
(5.47369 -0.0561193 0)
(5.46842 -0.0600057 0)
(5.45743 -0.0651223 0)
(5.44118 -0.0702795 0)
(5.41877 -0.0743738 0)
(5.39339 -0.0764743 0)
(4.95227 0.0485323 0)
(5.04093 -0.0109048 0)
(5.04349 0.00348044 0)
(4.96068 -0.00649696 0)
(4.81668 -0.0210477 0)
(4.65166 -0.0270849 0)
(4.50244 -0.0254476 0)
(4.37627 -0.0231329 0)
(4.26362 -0.0228404 0)
(4.15781 -0.0230817 0)
(4.05829 -0.0222862 0)
(3.96574 -0.0206897 0)
(3.87808 -0.0194915 0)
(3.79173 -0.0195388 0)
(3.70287 -0.0207393 0)
(3.61156 -0.0225543 0)
(3.51684 -0.0243449 0)
(3.42363 -0.0257045 0)
(0.00698694 -0.0368776 8.99102e-21)
(0.0117295 -0.0385717 -8.92654e-21)
(0.0156689 -0.0355071 0)
(0.0150766 -0.0307938 0)
(0.00988683 -0.0245994 0)
(-0.00107959 -0.0171424 8.65461e-21)
(-0.0181857 -0.00880369 0)
(-0.0418923 5.86319e-05 0)
(-0.0725657 0.00923491 0)
(-0.110446 0.0186383 0)
(-0.155755 0.0282442 -8.29955e-21)
(-0.208683 0.0380252 0)
(-0.26937 0.0479345 0)
(-0.337896 0.0578912 0)
(-0.41426 0.0677743 0)
(-0.498373 0.0774333 -7.92568e-21)
(-0.590047 0.0867034 0)
(-0.688994 0.0954119 0)
(-0.794836 0.10339 0)
(-0.907119 0.110504 0)
(-1.02531 0.116679 0)
(-1.14865 0.121859 0)
(-1.27619 0.125919 0)
(-1.40696 0.128753 -7.26804e-21)
(-1.53991 0.130281 7.18034e-21)
(-1.67386 0.130444 -7.09189e-21)
(-1.80758 0.12919 -7.00302e-21)
(-1.9397 0.126481 0)
(-2.06878 0.122292 0)
(-2.19329 0.116621 6.73845e-21)
(-2.31162 0.109476 6.65292e-21)
(-2.4221 0.100892 0)
(-2.52304 0.0909464 0)
(-2.61278 0.0797625 6.41463e-21)
(-2.68974 0.0674949 0)
(-2.7525 0.0543563 0)
(-2.79979 0.0406616 -6.21985e-21)
(-2.83057 0.0267353 0)
(-2.84422 0.0128443 -6.12199e-21)
(-2.8398 -0.000634524 -1.21667e-20)
(-2.8189 -0.0134285 0)
(-2.78122 -0.0256228 0)
(-2.72753 -0.0370563 0)
(-2.65867 -0.0476091 0)
(-2.57566 -0.0571761 0)
(-2.47971 -0.0656651 -1.19524e-20)
(-2.37214 -0.0730228 -1.19448e-20)
(-2.25432 -0.0792277 -1.19406e-20)
(-2.12772 -0.0842889 0)
(-1.99376 -0.0882386 1.19353e-20)
(-1.85385 -0.0911269 0)
(-1.70936 -0.0930135 -1.19242e-20)
(-1.5616 -0.0939611 -1.19134e-20)
(-1.41184 -0.094045 0)
(-1.26121 -0.0933429 0)
(-1.11072 -0.0919179 0)
(-0.96134 -0.0899049 -1.18174e-20)
(-0.813976 -0.0874335 0)
(-0.669399 -0.0844655 0)
(-0.528207 -0.0811953 0)
(-0.390922 -0.0775691 0)
(-0.258055 -0.0738404 0)
(-0.13002 -0.0699471 0)
(-0.00737531 -0.0661455 0)
(0.109943 -0.0622292 0)
(0.222297 -0.0583384 1.12488e-20)
(0.329423 -0.0545095 0)
(0.431304 -0.0507724 0)
(0.52798 -0.0471498 -1.09728e-20)
(0.619531 -0.043658 -1.08764e-20)
(0.706068 -0.0403084 0)
(0.787721 -0.0371087 1.06791e-20)
(0.864637 -0.0340632 -1.05787e-20)
(0.936972 -0.0311742 0)
(1.00489 -0.0284417 1.03757e-20)
(1.06856 -0.0258646 0)
(1.12816 -0.0234409 0)
(1.18385 -0.0211676 -1.00684e-20)
(1.2358 -0.0190412 0)
(1.28418 -0.0170578 9.86333e-21)
(1.32917 -0.0152131 0)
(1.37093 -0.0135027 -9.65916e-21)
(1.40962 -0.0119217 -9.5576e-21)
(1.4454 -0.0104653 -9.45647e-21)
(1.47842 -0.00912835 -1.87116e-20)
(1.50885 -0.00790555 1.85114e-20)
(1.53684 -0.00679153 0)
(1.56252 -0.00578082 0)
(1.58605 -0.0048678 0)
(1.60755 -0.00404685 1.77222e-20)
(1.62716 -0.00331221 1.75281e-20)
(1.64502 -0.00265803 -1.73354e-20)
(1.66124 -0.00207843 0)
(1.67594 -0.00156724 1.69539e-20)
(1.68923 -0.00111817 1.67652e-20)
(1.70122 -0.000725252 1.65779e-20)
(1.71201 -0.00038314 0)
(1.7217 -8.72683e-05 0)
(1.73038 0.00016658 0)
(1.73812 0.000382981 1.58425e-20)
(1.74502 0.000565338 0)
(1.75114 0.000717866 0)
(1.75655 0.000844275 -1.53053e-20)
(1.76131 0.000946561 0)
(1.76548 0.00103031 0)
(1.76912 0.0010955 -1.47801e-20)
(1.77227 0.00114652 0)
(1.77498 0.0011877 0)
(1.77729 0.00121721 1.42666e-20)
(1.77922 0.001245 1.40979e-20)
(1.78079 0.00127449 0)
(1.78203 0.00130204 -1.37643e-20)
(1.78297 0.00132333 0)
(1.78363 0.00133835 1.34356e-20)
(1.78404 0.00135273 0)
(1.78422 0.00136727 1.31116e-20)
(1.7842 0.00137284 1.29513e-20)
(1.78399 0.00136846 0)
(1.78361 0.00136183 0)
(1.78307 0.00135566 0)
(1.78238 0.00135016 0)
(1.78157 0.00134374 0)
(1.78063 0.00133433 0)
(1.77958 0.00131862 0)
(1.77845 0.00129427 1.17098e-20)
(1.77725 0.00126163 -1.15594e-20)
(1.77599 0.00122335 0)
(1.77471 0.00118301 0)
(1.77339 0.00114373 0)
(1.77205 0.00110727 0)
(1.7707 0.00107407 -2.16458e-20)
(1.76931 0.00104371 0)
(1.76791 0.00101558 2.10705e-20)
(1.76648 0.000989195 -2.07858e-20)
(1.76503 0.00096433 0)
(1.76355 0.000940938 0)
(1.76205 0.000919077 0)
(1.76053 0.000898784 1.96656e-20)
(1.75898 0.000880085 1.93901e-20)
(1.75742 0.000862949 0)
(1.75583 0.000847341 1.88446e-20)
(1.75422 0.00083319 1.85745e-20)
(1.7526 0.00082042 -1.83062e-20)
(1.75095 0.00080894 0)
(1.74927 0.000798664 0)
(1.74758 0.000789524 -1.75114e-20)
(1.74587 0.000781477 0)
(1.74413 0.000774506 0)
(1.74237 0.000768603 0)
(1.74059 0.000763772 0)
(1.73878 0.000760024 1.622e-20)
(1.73694 0.000757404 1.59665e-20)
(1.73508 0.000755971 0)
(1.73318 0.000755871 1.54642e-20)
(1.73125 0.000757194 0)
(1.72928 0.000760285 0)
(1.72726 0.000765191 1.47221e-20)
(1.7252 0.000772709 0)
(1.72308 0.000782642 1.42348e-20)
(1.7209 0.000796669 0)
(1.71863 0.000814157 0)
(1.71628 0.000837974 1.35149e-20)
(1.71378 0.000867611 0)
(1.7112 0.000906338 1.30422e-20)
(1.70835 0.000956627 0)
(1.70543 0.00101836 0)
(1.70202 0.00110579 0)
(1.69857 0.00120245 -1.21142e-20)
(1.69421 0.00136333 0)
(1.68994 0.00150763 1.16594e-20)
(1.68393 0.00182991 0)
(1.67821 0.00201886 0)
(1.66939 0.00273692 0)
(1.66066 0.00288522 0)
(1.64728 0.00471502 0)
(1.63066 0.00438714 0)
(1.6112 0.0097575 0)
(1.56923 0.00727458 -1.98615e-20)
(1.54679 0.0263822 0)
(1.40877 0.0200329 0)
(-0.0113897 -0.000477285 -2.69854e-20)
(-0.0607243 0.0200055 2.67883e-20)
(-0.108608 0.0299662 0)
(-0.159594 0.0439692 -1.75877e-20)
(-0.213239 0.0600413 0)
(-0.269798 0.0773377 -8.64725e-21)
(-0.329399 0.095246 1.71647e-20)
(-0.392285 0.113533 1.70214e-20)
(-0.458677 0.132121 0)
(-0.528737 0.150909 1.67314e-20)
(-0.602587 0.169783 8.28777e-21)
(-0.680286 0.188587 0)
(-0.761835 0.207135 0)
(-0.847172 0.225226 0)
(-0.936179 0.242648 0)
(-1.02869 0.259184 7.91247e-21)
(-1.12449 0.274601 0)
(-1.22333 0.288663 -1.55095e-20)
(-1.3249 0.301144 0)
(-1.42885 0.311844 0)
(-1.53482 0.3206 1.50153e-20)
(-1.64246 0.327272 0)
(-1.75138 0.331705 -1.46728e-20)
(-1.86109 0.333755 7.2576e-21)
(-1.971 0.33326 -7.17053e-21)
(-2.08041 0.330035 7.08273e-21)
(-2.18855 0.323882 6.99452e-21)
(-2.29459 0.314618 0)
(-2.39756 0.30208 0)
(-2.49634 0.286138 -6.73196e-21)
(-2.5897 0.266698 6.60868e-21)
(-2.67631 0.243729 0)
(-2.75478 0.217288 0)
(-2.82367 0.18754 -6.41061e-21)
(-2.8816 0.154764 0)
(-2.92724 0.119375 0)
(-2.95951 0.0819477 6.2174e-21)
(-2.9774 0.0431584 0)
(-2.98014 0.00373841 -6.07084e-21)
(-2.96753 -0.0354733 1.21633e-20)
(-2.9376 -0.0737074 0)
(-2.8912 -0.110396 0)
(-2.82865 -0.144952 2.39375e-20)
(-2.75077 -0.176899 2.38862e-20)
(-2.65863 -0.20586 2.38528e-20)
(-2.5535 -0.231566 -1.18853e-20)
(-2.43675 -0.25386 1.19407e-20)
(-2.30982 -0.272694 3.57586e-20)
(-2.17419 -0.288103 -2.38226e-20)
(-2.03131 -0.300181 -1.19313e-20)
(-1.8826 -0.309073 0)
(-1.72943 -0.314957 1.19205e-20)
(-1.57309 -0.31804 -1.1884e-20)
(-1.41484 -0.318548 0)
(-1.25579 -0.316711 0)
(-1.09694 -0.312761 0)
(-0.93931 -0.307007 1.18149e-20)
(-0.78371 -0.299717 0)
(-0.630803 -0.291071 -2.34513e-20)
(-0.48121 -0.281411 0)
(-0.335477 -0.270924 -2.32362e-20)
(-0.194131 -0.259825 0)
(-0.0576199 -0.248339 2.29752e-20)
(0.0737652 -0.23685 0)
(0.200247 -0.225172 -2.26574e-20)
(0.321891 -0.213541 1.12402e-20)
(0.438539 -0.202066 0)
(0.550202 -0.190834 2.21223e-20)
(0.656935 -0.179908 1.09687e-20)
(0.758829 -0.169333 1.08723e-20)
(0.855999 -0.159138 0)
(0.948577 -0.149343 1.06717e-20)
(1.0367 -0.13996 1.05745e-20)
(1.12053 -0.130992 0)
(1.20021 -0.12244 -1.03713e-20)
(1.27589 -0.114297 2.05356e-20)
(1.34774 -0.106558 0)
(1.41589 -0.099214 1.00638e-20)
(1.48051 -0.0922541 0)
(1.54172 -0.0856678 -2.9574e-20)
(1.59969 -0.0794439 0)
(1.65454 -0.0735709 2.89613e-20)
(1.7064 -0.0680371 9.55269e-21)
(1.75541 -0.0628307 -9.45001e-21)
(1.8017 -0.05794 -1.86988e-20)
(1.84537 -0.0533533 1.84986e-20)
(1.88655 -0.0490588 0)
(1.92536 -0.0450448 0)
(1.96189 -0.0412996 0)
(1.99627 -0.0378115 -5.31328e-20)
(2.02858 -0.0345689 -1.75174e-20)
(2.05893 -0.0315601 1.73245e-20)
(2.08742 -0.0287735 0)
(2.11413 -0.0261971 1.69415e-20)
(2.13916 -0.023819 -1.67542e-20)
(2.16259 -0.0216269 -1.65669e-20)
(2.18451 -0.0196095 0)
(2.20499 -0.0177558 0)
(2.22411 -0.0160554 0)
(2.24196 -0.014498 -1.58315e-20)
(2.25859 -0.0130739 0)
(2.27407 -0.0117734 3.09432e-20)
(2.28848 -0.0105871 4.58823e-20)
(2.30188 -0.00950691 -3.02353e-20)
(2.31432 -0.008523 0)
(2.32587 -0.00762859 -1.47687e-20)
(2.33658 -0.00681565 0)
(2.3465 -0.00607477 -2.88511e-20)
(2.35568 -0.00540169 1.42555e-20)
(2.36417 -0.00478553 1.4087e-20)
(2.37204 -0.00421969 0)
(2.37933 -0.00370589 4.12618e-20)
(2.38608 -0.00324438 -2.7178e-20)
(2.39232 -0.00282782 -1.34255e-20)
(2.39809 -0.00245146 0)
(2.40341 -0.00211487 -1.31018e-20)
(2.40831 -0.00180819 -3.88248e-20)
(2.41282 -0.00152377 0)
(2.41697 -0.00126601 -2.52496e-20)
(2.42078 -0.00103502 -2.49362e-20)
(2.42427 -0.000824118 -2.4625e-20)
(2.42747 -0.000635911 0)
(2.43041 -0.000469144 0)
(2.4331 -0.00032358 0)
(2.43557 -0.000200049 1.1701e-20)
(2.43783 -9.82248e-05 1.15509e-20)
(2.4399 -1.59538e-05 0)
(2.4418 5.05073e-05 2.2507e-20)
(2.44353 0.000105804 2.22127e-20)
(2.44513 0.000154219 0)
(2.44659 0.000198959 2.16302e-20)
(2.44792 0.000241741 4.26835e-20)
(2.44914 0.000283135 -2.10554e-20)
(2.45023 0.000322901 -2.07708e-20)
(2.45121 0.000360607 0)
(2.45209 0.000395805 0)
(2.45285 0.000428316 0)
(2.45352 0.000458083 -1.96518e-20)
(2.4541 0.000485258 1.93765e-20)
(2.45459 0.00051001 3.82063e-20)
(2.45499 0.000532598 -1.88316e-20)
(2.45533 0.000553249 1.85617e-20)
(2.45559 0.000572198 1.82937e-20)
(2.45579 0.000589663 0)
(2.45593 0.000605846 0)
(2.45601 0.00062096 -1.74996e-20)
(2.45604 0.000635222 0)
(2.45602 0.000648866 0)
(2.45595 0.000662137 3.34413e-20)
(2.45584 0.000675301 0)
(2.45569 0.000688637 1.62094e-20)
(2.4555 0.000702475 -1.59562e-20)
(2.45527 0.000717173 0)
(2.455 0.000733202 1.54542e-20)
(2.4547 0.000751053 0)
(2.45435 0.000771452 0)
(2.45396 0.000795091 -1.47129e-20)
(2.45353 0.000823117 2.89374e-20)
(2.45305 0.000856628 -1.4226e-20)
(2.45252 0.00089725 0)
(2.45192 0.000947307 0)
(2.45126 0.0010081 1.35066e-20)
(2.45051 0.00108617 0)
(2.44966 0.00117857 1.30342e-20)
(2.44867 0.00130546 0)
(2.44755 0.00144615 0)
(2.4462 0.00166228 0)
(2.44465 0.00187304 1.21071e-20)
(2.44271 0.00226427 0)
(2.44044 0.00256576 -1.16526e-20)
(2.43755 0.00333276 0)
(2.43397 0.00371603 0)
(2.42952 0.00536331 2.19668e-20)
(2.42332 0.00569079 -2.15292e-20)
(2.41647 0.00958371 0)
(2.40422 0.00934534 0)
(2.39413 0.0195739 0)
(2.36613 0.0177823 5.95296e-20)
(2.35441 0.0486085 0)
(2.2844 0.048108 -3.8095e-20)
(-0.0193333 0.11825 -1.44461e-23)
(-0.0915346 0.165599 -3.57315e-20)
(-0.159152 0.174294 0)
(-0.228285 0.188251 3.51754e-20)
(-0.296976 0.203991 0)
(-0.366041 0.221297 0)
(-0.435561 0.239914 1.25061e-23)
(-0.505812 0.259624 -1.70125e-20)
(-0.577001 0.280094 -1.68789e-20)
(-0.64936 0.301126 -1.67222e-20)
(-0.723058 0.322506 0)
(-0.798232 0.343978 0)
(-0.875001 0.365271 1.62835e-20)
(-0.953496 0.386115 3.22613e-20)
(-1.03387 0.406261 -3.19517e-20)
(-1.11629 0.425469 0)
(-1.20094 0.443506 -3.13193e-20)
(-1.28802 0.460148 1.55029e-20)
(-1.37769 0.475175 0)
(-1.47004 0.48836 -3.03326e-20)
(-1.56514 0.499442 -1.501e-20)
(-1.66301 0.508125 2.96466e-20)
(-1.76363 0.51412 1.46683e-20)
(-1.86685 0.517114 0)
(-1.97241 0.516755 -2.85764e-20)
(-2.07988 0.512646 -2.82108e-20)
(-2.18856 0.504354 0)
(-2.29752 0.491442 -2.74735e-20)
(-2.40555 0.473491 0)
(-2.51126 0.450124 -2.67419e-20)
(-2.61301 0.421041 -1.32519e-20)
(-2.709 0.38606 0)
(-2.79728 0.345158 0)
(-2.87586 0.298504 0)
(-2.94272 0.2465 0)
(-2.99604 0.189785 0)
(-3.03418 0.129206 0)
(-3.05574 0.0658213 -2.43879e-20)
(-3.05974 0.000889478 3.63996e-20)
(-3.04547 -0.0642685 0)
(-3.01276 -0.128426 0)
(-2.96211 -0.190166 0)
(-2.89438 -0.248362 -1.41087e-22)
(-2.81065 -0.30206 -2.38782e-20)
(-2.71226 -0.350555 -4.7569e-20)
(-2.60071 -0.393393 4.75409e-20)
(-2.47758 -0.430345 2.37175e-20)
(-2.34449 -0.461377 -2.38132e-20)
(-2.20302 -0.486598 7.8222e-23)
(-2.05471 -0.506216 -2.3745e-20)
(-1.90102 -0.520497 0)
(-1.74334 -0.52976 -2.37497e-20)
(-1.583 -0.534361 4.53436e-23)
(-1.42125 -0.534668 0)
(-1.2592 -0.53109 0)
(-1.0979 -0.524094 2.36429e-20)
(-0.938317 -0.514115 0)
(-0.781256 -0.501521 0)
(-0.627414 -0.486841 -2.34092e-20)
(-0.477423 -0.470492 -4.66557e-20)
(-0.331631 -0.452906 2.32297e-20)
(-0.190531 -0.434428 0)
(-0.0547248 -0.415257 -2.29692e-20)
(0.0757446 -0.396062 0)
(0.201194 -0.376721 -2.26341e-20)
(0.32163 -0.357537 -2.24799e-20)
(0.436983 -0.338677 4.45877e-20)
(0.547308 -0.320272 2.21033e-20)
(0.652703 -0.302415 0)
(0.753293 -0.285176 -4.34615e-20)
(0.849224 -0.268598 0)
(0.940652 -0.252707 -6.40187e-20)
(1.02774 -0.237514 -4.22751e-20)
(1.11066 -0.223021 -4.18716e-20)
(1.18957 -0.20922 4.14655e-20)
(1.26464 -0.1961 -6.15911e-20)
(1.33603 -0.183643 0)
(1.40391 -0.171832 0)
(1.46842 -0.160644 3.98298e-20)
(1.52971 -0.150058 5.91345e-20)
(1.58792 -0.140051 0)
(1.6432 -0.130602 -1.93056e-20)
(1.69568 -0.121688 0)
(1.74547 -0.113286 5.6696e-20)
(1.79271 -0.105375 4.7352e-24)
(1.8375 -0.0979335 -4.39024e-24)
(1.87996 -0.0909401 -3.65955e-20)
(1.9202 -0.0843745 0)
(1.9583 -0.0782168 3.58069e-20)
(1.99438 -0.0724474 3.22484e-24)
(2.02851 -0.0670473 0)
(2.06079 -0.061998 0)
(2.0913 -0.0572817 0)
(2.12011 -0.052881 -3.38828e-20)
(2.14732 -0.0487793 0)
(2.17297 -0.0449605 0)
(2.19716 -0.0414087 0)
(2.21995 -0.0381085 0)
(2.24139 -0.0350449 0)
(2.26156 -0.0322036 -3.16589e-20)
(2.28052 -0.0295708 0)
(2.29831 -0.0271332 -3.09415e-20)
(2.31501 -0.0248784 -3.05862e-20)
(2.33067 -0.0227941 3.02336e-20)
(2.34533 -0.0208689 0)
(2.35905 -0.0190914 2.95362e-20)
(2.37188 -0.0174518 0)
(2.38387 -0.0159396 2.88493e-20)
(2.39506 -0.0145447 -2.85097e-20)
(2.40549 -0.0132608 -8.45165e-20)
(2.41522 -0.0120802 0)
(2.42427 -0.0109953 -8.25166e-20)
(2.4327 -0.0099999 -2.71752e-20)
(2.44054 -0.0090856 0)
(2.44782 -0.00824576 -5.30473e-20)
(2.45458 -0.00747507 -5.24023e-20)
(2.46086 -0.00676278 7.76433e-20)
(2.4667 -0.00610328 0)
(2.47211 -0.00549772 2.52478e-20)
(2.47714 -0.00494276 2.49344e-20)
(2.4818 -0.0044399 7.38693e-20)
(2.48612 -0.00398275 0)
(2.49012 -0.00356904 0)
(2.49383 -0.00319758 0)
(2.49725 -0.00286722 2.33999e-20)
(2.50042 -0.0025761 0)
(2.50334 -0.00232142 0)
(2.50603 -0.00209858 -2.25052e-20)
(2.50851 -0.00190141 -2.22109e-20)
(2.51078 -0.00172324 0)
(2.51288 -0.00155806 0)
(2.51481 -0.00140163 -4.26801e-20)
(2.51658 -0.00125177 0)
(2.51821 -0.00110802 4.15384e-20)
(2.51971 -0.00097098 4.09731e-20)
(2.52108 -0.000841579 0)
(2.52233 -0.000720562 0)
(2.52348 -0.000608331 -3.93001e-20)
(2.52452 -0.000504868 -1.42053e-25)
(2.52548 -0.000409875 -1.30432e-25)
(2.52635 -0.000322852 0)
(2.52714 -0.000243217 -7.42409e-20)
(2.52785 -0.000170351 0)
(2.5285 -0.000103643 0)
(2.52909 -4.24953e-05 0)
(2.52962 1.36835e-05 3.49965e-20)
(2.53009 6.54831e-05 0)
(2.53052 0.000113497 -6.79093e-20)
(2.5309 0.000158322 -3.34387e-20)
(2.53124 0.000200555 0)
(2.53154 0.000240821 -3.24163e-20)
(2.5318 0.000279759 0)
(2.53202 0.000318118 0)
(2.53221 0.000356655 -9.27182e-20)
(2.53236 0.0003964 6.08176e-20)
(2.53248 0.00043827 0)
(2.53257 0.000483882 5.88466e-20)
(2.53262 0.000534239 -2.89351e-20)
(2.53263 0.000592304 0)
(2.53259 0.000658628 0)
(2.53251 0.000739479 0)
(2.53237 0.000832915 -8.10332e-20)
(2.53218 0.000953767 0)
(2.53189 0.00109108 -2.60665e-20)
(2.53151 0.00128233 0)
(2.53099 0.00148859 0)
(2.53036 0.00180702 0)
(2.52947 0.00211804 0)
(2.52844 0.00267813 0)
(2.52693 0.00314028 0)
(2.52525 0.00419396 -4.57043e-20)
(2.52264 0.00485506 0)
(2.51993 0.00698971 -2.1965e-20)
(2.51527 0.00787378 6.4577e-20)
(2.51086 0.0125574 0)
(2.50232 0.013712 0)
(2.49516 0.0250087 -4.0482e-20)
(2.47951 0.0275135 -3.96755e-20)
(2.46893 0.0575368 3.88351e-20)
(2.44543 0.0682848 3.80892e-20)
(-0.0189008 0.237897 5.40359e-20)
(-0.0921853 0.312634 5.36327e-20)
(-0.159875 0.318712 3.54865e-20)
(-0.229074 0.330772 1.76158e-20)
(-0.296927 0.344821 0)
(-0.364597 0.361099 -3.46401e-20)
(-0.43198 0.378953 1.7188e-20)
(-0.499428 0.398224 0)
(-0.56717 0.418808 1.68759e-20)
(-0.635495 0.44044 0)
(-0.704645 0.462786 -3.31795e-20)
(-0.774935 0.48559 0)
(-0.846724 0.508654 -1.62814e-20)
(-0.920416 0.531793 -3.22573e-20)
(-0.996416 0.554789 3.1948e-20)
(-1.07512 0.577401 0)
(-1.15689 0.599375 3.13158e-20)
(-1.24207 0.620435 0)
(-1.33096 0.640266 0)
(-1.42386 0.658511 3.03286e-20)
(-1.52102 0.674774 0)
(-1.62263 0.688613 -4.04695e-23)
(-1.72876 0.699522 0)
(-1.83925 0.706911 0)
(-1.95372 0.7101 7.34932e-23)
(-2.0715 0.708325 2.82032e-20)
(-2.19165 0.700763 2.77326e-20)
(-2.31295 0.686563 2.74645e-20)
(-2.43389 0.664901 0)
(-2.55273 0.635039 5.33118e-20)
(-2.66748 0.596378 0)
(-2.77596 0.54852 2.58407e-20)
(-2.87585 0.491342 0)
(-2.96478 0.425061 0)
(-3.04037 0.35028 -2.48581e-20)
(-3.1004 0.26801 0)
(-3.14297 0.179663 2.4338e-20)
(-3.16654 0.0869788 2.52485e-22)
(-3.16999 -0.00803113 -4.81575e-20)
(-3.15286 -0.103227 4.76173e-20)
(-3.11527 -0.196429 0)
(-3.05776 -0.285644 0)
(-2.98148 -0.369166 2.33626e-20)
(-2.888 -0.445654 0)
(-2.77918 -0.514171 2.37149e-20)
(-2.657 -0.574162 -2.37062e-20)
(-2.52342 -0.625423 -2.37079e-20)
(-2.38035 -0.668041 0)
(-2.22952 -0.702307 2.37262e-20)
(-2.07256 -0.728607 2.37359e-20)
(-1.91096 -0.747375 -4.73079e-20)
(-1.7461 -0.759097 2.37411e-20)
(-1.57928 -0.764284 2.37318e-20)
(-1.4117 -0.763463 0)
(-1.24445 -0.757219 0)
(-1.07859 -0.746184 -2.36358e-20)
(-0.915037 -0.730988 0)
(-0.754619 -0.712231 0)
(-0.598086 -0.690644 4.68417e-20)
(-0.445981 -0.666825 4.66447e-20)
(-0.298707 -0.641291 0)
(-0.15653 -0.614722 0)
(-0.0202767 -0.587437 0)
(0.110155 -0.560071 0)
(0.235453 -0.532683 4.52724e-20)
(0.355354 -0.505619 -4.49063e-20)
(0.469936 -0.479104 -4.45755e-20)
(0.579316 -0.453301 -8.83982e-20)
(0.683638 -0.428329 0)
(0.783067 -0.404267 1.87016e-23)
(0.877778 -0.381168 0)
(0.967951 -0.359056 4.26663e-20)
(1.05377 -0.33794 1.55609e-23)
(1.13541 -0.317813 4.18637e-20)
(1.21304 -0.298661 -4.14582e-20)
(1.28685 -0.280461 1.2764e-23)
(1.357 -0.263187 0)