/*--------------------------------*- C++ -*----------------------------------*\
  =========                 |
  \\      /  F ield         | OpenFOAM: The Open Source CFD Toolbox
   \\    /   O peration     | Website:  https://openfoam.org
    \\  /    A nd           | Version:  7
     \\/     M anipulation  |
\*---------------------------------------------------------------------------*/
FoamFile
{
    version     2.0;
    format      ascii;
    class       volSymmTensorField;
    location    "0.021";
    object      UPrime2Mean;
}
// * * * * * * * * * * * * * * * * * * * * * * * * * * * * * * * * * * * * * //

dimensions      [0 2 -2 0 0 0 0];

internalField   nonuniform List<symmTensor> 
12225
(
(0.0064141 -0.000568791 0 0.000680791 0 0)
(0.0888537 -0.0039853 0 0.000476998 0 0)
(0.130189 -0.00580155 0 0.000530377 0 0)
(0.172381 -0.00696797 0 0.000527318 0 0)
(0.242681 -0.00834602 0 0.000504548 0 0)
(0.341161 -0.00986341 0 0.000471181 0 0)
(0.462588 -0.0113122 0 0.000455754 0 0)
(0.603045 -0.0118887 0 0.00036979 0 0)
(0.756696 -0.0131102 0 0.000364354 0 0)
(0.922326 -0.0109406 0 0.000231323 0 0)
(1.09615 -0.0147862 0 0.000289208 0 0)
(1.27483 -0.00685283 0 0.000158549 0 0)
(1.48105 -0.0238956 0 0.000554277 0 0)
(1.68267 0.00359494 0 0.000566526 0 0)
(1.99993 -0.0644307 0 0.00357282 0 0)
(2.32802 0.0430343 0 0.00516913 0 0)
(3.04454 -0.274008 0 0.0453172 0 0)
(4.32947 0.124764 0 0.0240689 0 0)
(0.00636732 -0.000482146 0 0.0005943 0 0)
(0.0598492 -0.00227871 0 0.000328751 0 0)
(0.0660449 -0.00351728 0 0.000582201 0 0)
(0.0677019 -0.00413474 0 0.000849123 0 0)
(0.0794358 -0.0052828 0 0.00112588 0 0)
(0.0989988 -0.00723857 0 0.00142328 0 0)
(0.126294 -0.00970575 0 0.00166331 0 0)
(0.163903 -0.0128729 0 0.00197764 0 0)
(0.209989 -0.0156322 0 0.00201132 0 0)
(0.272755 -0.0200285 0 0.0023336 0 0)
(0.341679 -0.0217945 0 0.00204854 0 0)
(0.44105 -0.0297987 0 0.00269153 0 0)
(0.537318 -0.0291739 0 0.00217736 0 0)
(0.70283 -0.0506078 0 0.00440539 0 0)
(0.842387 -0.0465675 0 0.0038825 0 0)
(1.18081 -0.120075 0 0.0152931 0 0)
(1.42543 -0.143532 0 0.0166883 0 0)
(2.20536 -0.507239 0 0.143151 0 0)
(0.00544257 -0.000306935 0 0.000959702 0 0)
(0.058273 -0.00341189 0 0.000690564 0 0)
(0.0620344 -0.00473423 0 0.00111241 0 0)
(0.0597502 -0.00489327 0 0.00155434 0 0)
(0.0643003 -0.0053432 0 0.00198809 0 0)
(0.0715128 -0.00637946 0 0.00241644 0 0)
(0.0805523 -0.00788274 0 0.00296119 0 0)
(0.0918599 -0.009609 0 0.0032917 0 0)
(0.106607 -0.0120214 0 0.00388215 0 0)
(0.12552 -0.0141363 0 0.00393279 0 0)
(0.151806 -0.0186394 0 0.00469707 0 0)
(0.185418 -0.0213617 0 0.00448726 0 0)
(0.234201 -0.03211 0 0.00653852 0 0)
(0.297121 -0.0366065 0 0.00625266 0 0)
(0.394302 -0.0697624 0 0.014624 0 0)
(0.524108 -0.0872147 0 0.0160777 0 0)
(0.718629 -0.208889 0 0.0651609 0 0)
(0.95996 -0.364728 0 0.146701 0 0)
(0.00598186 -0.00101609 0 0.00121259 0 0)
(0.0587638 -0.00392167 0 0.000897365 0 0)
(0.0623095 -0.00502768 0 0.00127637 0 0)
(0.060055 -0.00525583 0 0.00178164 0 0)
(0.0642019 -0.00575194 0 0.0022545 0 0)
(0.0704978 -0.0068311 0 0.00275924 0 0)
(0.0779434 -0.00832145 0 0.00328665 0 0)
(0.0868958 -0.0101551 0 0.0039506 0 0)
(0.0977602 -0.0122133 0 0.00447583 0 0)
(0.112028 -0.015127 0 0.00526188 0 0)
(0.130524 -0.0185906 0 0.00584545 0 0)
(0.156258 -0.0246312 0 0.00724366 0 0)
(0.190514 -0.0321832 0 0.00864687 0 0)
(0.239907 -0.0473103 0 0.0126514 0 0)
(0.307209 -0.0691726 0 0.0186215 0 0)
(0.401692 -0.11445 0 0.0358577 0 0)
(0.524179 -0.196531 0 0.0762109 0 0)
(0.64003 -0.327559 0 0.171667 0 0)
(0.00659287 -0.00081434 0 0.001508 0 0)
(0.0573738 -0.00461172 0 0.00123161 0 0)
(0.0599564 -0.00562876 0 0.00165071 0 0)
(0.0577859 -0.0058609 0 0.00231908 0 0)
(0.0620992 -0.00644282 0 0.00296229 0 0)
(0.0683258 -0.00767315 0 0.00359126 0 0)
(0.0755114 -0.00941779 0 0.00434946 0 0)
(0.0839606 -0.0115257 0 0.00510182 0 0)
(0.0942468 -0.014215 0 0.00609369 0 0)
(0.107311 -0.0174456 0 0.00702617 0 0)
(0.124487 -0.0223698 0 0.00850399 0 0)
(0.147316 -0.0287993 0 0.0101972 0 0)
(0.178076 -0.0396682 0 0.0136037 0 0)
(0.219614 -0.0551415 0 0.0185499 0 0)
(0.275152 -0.0828356 0 0.0297025 0 0)
(0.345697 -0.126826 0 0.0510088 0 0)
(0.426421 -0.200079 0 0.0975039 0 0)
(0.487446 -0.311354 0 0.206706 0 0)
(0.00498358 -0.00117704 0 0.00159985 0 0)
(0.0562767 -0.0053416 0 0.00155699 0 0)
(0.0585946 -0.0062092 0 0.00209524 0 0)
(0.0563634 -0.00635744 0 0.0029079 0 0)
(0.0604977 -0.00695954 0 0.00366727 0 0)
(0.0663386 -0.00826264 0 0.00441738 0 0)
(0.0730232 -0.0101491 0 0.00526761 0 0)
(0.0809161 -0.0125552 0 0.00630467 0 0)
(0.0905164 -0.0155752 0 0.00751012 0 0)
(0.102614 -0.0195443 0 0.00901475 0 0)
(0.118327 -0.0250235 0 0.0109577 0 0)
(0.138792 -0.032939 0 0.0138296 0 0)
(0.16579 -0.044696 0 0.0183321 0 0)
(0.200505 -0.0625444 0 0.0259843 0 0)
(0.244781 -0.090548 0 0.0400037 0 0)
(0.295235 -0.132955 0 0.066178 0 0)
(0.346972 -0.196703 0 0.117485 0 0)
(0.377805 -0.277607 0 0.210444 0 0)
(0.00555322 -0.00110124 0 0.00179745 0 0)
(0.0553946 -0.005938 0 0.00203855 0 0)
(0.056523 -0.00670031 0 0.0026081 0 0)
(0.0537525 -0.00670192 0 0.00355584 0 0)
(0.0573508 -0.00727546 0 0.00453028 0 0)
(0.0624064 -0.00862474 0 0.00549483 0 0)
(0.0681401 -0.0105945 0 0.0065932 0 0)
(0.0749644 -0.0131213 0 0.00789414 0 0)
(0.0833306 -0.0163685 0 0.00950886 0 0)
(0.0938659 -0.0206513 0 0.0115382 0 0)
(0.107405 -0.0266271 0 0.0142575 0 0)
(0.124715 -0.0351492 0 0.0182083 0 0)
(0.146808 -0.047541 0 0.0242791 0 0)
(0.173965 -0.0657719 0 0.0343054 0 0)
(0.206352 -0.0924008 0 0.0511463 0 0)
(0.239933 -0.130555 0 0.0810413 0 0)
(0.270017 -0.18116 0 0.131117 0 0)
(0.281407 -0.239728 0 0.214232 0 0)
(0.00456922 -0.00126429 0 0.00197719 0 0)
(0.0540327 -0.00669299 0 0.00226754 0 0)
(0.0551429 -0.00720823 0 0.00310571 0 0)
(0.0523808 -0.00697848 0 0.00419219 0 0)
(0.0557633 -0.00750677 0 0.00533053 0 0)
(0.0603225 -0.0088793 0 0.00648675 0 0)
(0.0653489 -0.0108986 0 0.00779848 0 0)
(0.0713084 -0.013539 0 0.00941495 0 0)
(0.0785964 -0.0169765 0 0.0114612 0 0)
(0.0876439 -0.0215358 0 0.0141052 0 0)
(0.0989956 -0.0277957 0 0.0176629 0 0)
(0.113058 -0.0365389 0 0.0227656 0 0)
(0.130295 -0.0489032 0 0.0304133 0 0)
(0.150377 -0.0663293 0 0.0424574 0 0)
(0.172647 -0.0904908 0 0.0616268 0 0)
(0.193293 -0.122542 0 0.0927974 0 0)
(0.208631 -0.161665 0 0.140945 0 0)
(0.209129 -0.202864 0 0.213587 0 0)
(0.00602036 -0.00156713 0 0.00207232 0 0)
(0.0546498 -0.00758579 0 0.00274246 0 0)
(0.0547044 -0.00805206 0 0.0036678 0 0)
(0.0516125 -0.00767421 0 0.00484707 0 0)
(0.0548547 -0.00828209 0 0.00618465 0 0)
(0.0592101 -0.00987672 0 0.00760862 0 0)
(0.0639048 -0.0121554 0 0.00922512 0 0)
(0.0693278 -0.0150523 0 0.0111982 0 0)
(0.0757712 -0.0187433 0 0.0136917 0 0)
(0.0835409 -0.0235601 0 0.016945 0 0)
(0.0929971 -0.0300317 0 0.0213157 0 0)
(0.104294 -0.0388394 0 0.0275199 0 0)
(0.117509 -0.0508478 0 0.0365601 0 0)
(0.131922 -0.0670087 0 0.0502556 0 0)
(0.146569 -0.0881357 0 0.0708563 0 0)
(0.158159 -0.114206 0 0.102139 0 0)
(0.164382 -0.143629 0 0.147039 0 0)
(0.159171 -0.171741 0 0.209583 0 0)
(0.00560797 -0.00156596 0 0.00249421 0 0)
(0.0543835 -0.0082258 0 0.00324821 0 0)
(0.0544 -0.00862173 0 0.0043985 0 0)
(0.051307 -0.00811144 0 0.00573759 0 0)
(0.0544187 -0.00871471 0 0.00724757 0 0)
(0.0584075 -0.0103906 0 0.00889344 0 0)
(0.0625167 -0.0127498 0 0.0107851 0 0)
(0.0671492 -0.0157011 0 0.0131099 0 0)
(0.0725638 -0.0194337 0 0.0160724 0 0)
(0.0789644 -0.024277 0 0.0199569 0 0)
(0.0865514 -0.0306931 0 0.0251468 0 0)
(0.0952659 -0.0392009 0 0.032362 0 0)
(0.104907 -0.0503821 0 0.0425512 0 0)
(0.114574 -0.0647004 0 0.0573322 0 0)
(0.123273 -0.0823531 0 0.0784475 0 0)
(0.128442 -0.102649 0 0.108661 0 0)
(0.12889 -0.123854 0 0.149413 0 0)
(0.120817 -0.14215 0 0.203003 0 0)
(0.00646009 -0.00186723 0 0.00271906 0 0)
(0.0546808 -0.00932337 0 0.00363986 0 0)
(0.0535617 -0.00977635 0 0.00481916 0 0)
(0.0497743 -0.00901424 0 0.00625598 0 0)
(0.0525075 -0.00951661 0 0.00793313 0 0)
(0.0562279 -0.0112324 0 0.00983416 0 0)
(0.0599985 -0.0136636 0 0.0120424 0 0)
(0.0640976 -0.016653 0 0.0147441 0 0)
(0.0687097 -0.0203573 0 0.0181643 0 0)
(0.0739579 -0.0250748 0 0.022622 0 0)
(0.0799011 -0.0311812 0 0.0285154 0 0)
(0.0863423 -0.0390368 0 0.0365227 0 0)
(0.0929369 -0.0489702 0 0.0474837 0 0)
(0.0988295 -0.0610993 0 0.0627522 0 0)
(0.103176 -0.0752224 0 0.0835925 0 0)
(0.104184 -0.0903827 0 0.111895 0 0)
(0.101386 -0.104974 0 0.148152 0 0)
(0.0924876 -0.116147 0 0.193624 0 0)
(0.00503327 -0.00163554 0 0.00313504 0 0)
(0.0528987 -0.00909961 0 0.00416762 0 0)
(0.0516791 -0.00952288 0 0.00543687 0 0)
(0.0477657 -0.00852589 0 0.00708031 0 0)
(0.0501064 -0.00881071 0 0.00897383 0 0)
(0.0531648 -0.0103868 0 0.0111291 0 0)
(0.0561535 -0.0126866 0 0.0136378 0 0)
(0.0594064 -0.0154836 0 0.0166828 0 0)
(0.0630328 -0.0188944 0 0.0205128 0 0)
(0.0670358 -0.0231787 0 0.0254625 0 0)
(0.0713507 -0.0286369 0 0.0319254 0 0)
(0.0756984 -0.0354832 0 0.0405225 0 0)
(0.0797043 -0.0438473 0 0.0519527 0 0)
(0.0826556 -0.0535897 0 0.0673018 0 0)
(0.0839708 -0.0643169 0 0.0874149 0 0)
(0.0824495 -0.0749914 0 0.113586 0 0)
(0.0781566 -0.0843401 0 0.145741 0 0)
(0.0695199 -0.0901261 0 0.184671 0 0)
(0.00566659 -0.00245986 0 0.00339546 0 0)
(0.0540724 -0.0101994 0 0.00454683 0 0)
(0.0524855 -0.0105399 0 0.00588913 0 0)
(0.048122 -0.00943983 0 0.00762576 0 0)
(0.0500395 -0.00967402 0 0.00967351 0 0)
(0.0526835 -0.0112192 0 0.0120687 0 0)
(0.0551878 -0.0134621 0 0.0148789 0 0)
(0.0578144 -0.0161397 0 0.0182589 0 0)
(0.0606272 -0.0193332 0 0.0224477 0 0)
(0.0635918 -0.0232531 0 0.0277723 0 0)
(0.0665995 -0.0281176 0 0.0345995 0 0)
(0.0693689 -0.0340215 0 0.0434725 0 0)
(0.0715363 -0.0409441 0 0.0549474 0 0)
(0.0725441 -0.0486096 0 0.0698681 0 0)
(0.0719811 -0.0565426 0 0.0887566 0 0)
(0.0691092 -0.063789 0 0.112505 0 0)
(0.0642206 -0.0693437 0 0.140712 0 0)
(0.0562903 -0.0715405 0 0.173926 0 0)
(0.00539286 -0.00217357 0 0.00357148 0 0)
(0.0528923 -0.0100559 0 0.00504554 0 0)
(0.0511159 -0.0103515 0 0.00681005 0 0)
(0.0467181 -0.00907068 0 0.00881983 0 0)
(0.0483405 -0.00908079 0 0.0110502 0 0)
(0.0503878 -0.0103794 0 0.0136265 0 0)
(0.0520718 -0.0123331 0 0.0166832 0 0)
(0.0537103 -0.0146175 0 0.0203876 0 0)
(0.0553757 -0.0172387 0 0.0249491 0 0)
(0.0570257 -0.0203386 0 0.0306506 0 0)
(0.0585502 -0.0240746 0 0.0377981 0 0)
(0.059704 -0.0284614 0 0.0468252 0 0)
(0.0601849 -0.0333851 0 0.0581277 0 0)
(0.0595991 -0.0384839 0 0.0723121 0 0)
(0.0577297 -0.0432882 0 0.0896099 0 0)
(0.0542109 -0.0469685 0 0.110585 0 0)
(0.0494948 -0.0488463 0 0.134612 0 0)
(0.0429073 -0.0477009 0 0.162116 0 0)
(0.00608535 -0.00192955 0 0.00376111 0 0)
(0.0528371 -0.0110015 0 0.00555018 0 0)
(0.0504261 -0.011457 0 0.00752681 0 0)
(0.0454877 -0.0099986 0 0.00971474 0 0)
(0.0467113 -0.00982839 0 0.0120889 0 0)
(0.0483709 -0.0109873 0 0.0148147 0 0)
(0.0495814 -0.0127761 0 0.0180541 0 0)
(0.0505798 -0.0147883 0 0.0219601 0 0)
(0.0514093 -0.016958 0 0.0267026 0 0)
(0.0520413 -0.0193609 0 0.0325116 0 0)
(0.0523969 -0.0220759 0 0.0396261 0 0)
(0.0523047 -0.025041 0 0.0483759 0 0)
(0.0515659 -0.0280926 0 0.0590026 0 0)
(0.0499778 -0.0308614 0 0.0718861 0 0)
(0.0474965 -0.0329682 0 0.0870197 0 0)
(0.044021 -0.0337591 0 0.104719 0 0)
(0.0400604 -0.0328664 0 0.124282 0 0)
(0.0351427 -0.0294265 0 0.146083 0 0)
(0.00572732 -0.00173688 0 0.00425105 0 0)
(0.0518457 -0.010877 0 0.00613251 0 0)
(0.0487676 -0.011308 0 0.00799295 0 0)
(0.0433932 -0.00957494 0 0.010273 0 0)
(0.0441248 -0.00904665 0 0.0128065 0 0)
(0.0451781 -0.00978506 0 0.0156598 0 0)
(0.0457525 -0.0110458 0 0.019003 0 0)
(0.0461054 -0.012384 0 0.0229884 0 0)
(0.0462391 -0.0136981 0 0.0277465 0 0)
(0.0460965 -0.0150308 0 0.0334407 0 0)
(0.0456255 -0.0164319 0 0.0402334 0 0)
(0.044742 -0.0178068 0 0.0483437 0 0)
(0.0433616 -0.0189744 0 0.0578768 0 0)
(0.0414449 -0.0195821 0 0.0690321 0 0)
(0.0390676 -0.0193611 0 0.081654 0 0)
(0.0363046 -0.0178302 0 0.0959057 0 0)
(0.0336059 -0.0148841 0 0.111122 0 0)
(0.030641 -0.00991258 0 0.127651 0 0)
(0.00721935 -0.00194421 0 0.00429826 0 0)
(0.0535789 -0.0113872 0 0.00616657 0 0)
(0.0496839 -0.0119578 0 0.00828191 0 0)
(0.043478 -0.010091 0 0.010768 0 0)
(0.0434325 -0.00929715 0 0.0133837 0 0)
(0.0437757 -0.00974869 0 0.016254 0 0)
(0.0437099 -0.0106665 0 0.0195659 0 0)
(0.0434603 -0.0115142 0 0.0234576 0 0)
(0.0430017 -0.012142 0 0.0280191 0 0)
(0.0422866 -0.0125821 0 0.0333475 0 0)
(0.0413032 -0.0128751 0 0.039514 0 0)
(0.0400481 -0.0129327 0 0.0466061 0 0)
(0.0385164 -0.0126066 0 0.0545962 0 0)
(0.0367741 -0.0116375 0 0.0635476 0 0)
(0.0349314 -0.00987474 0 0.0732651 0 0)
(0.0331395 -0.00702402 0 0.0838729 0 0)
(0.0317357 -0.0031324 0 0.0948399 0 0)
(0.0304848 0.00220007 0 0.106526 0 0)
(0.00607272 -0.00186555 0 0.0041107 0 0)
(0.0514869 -0.0115054 0 0.00608733 0 0)
(0.0477802 -0.0120098 0 0.00770325 0 0)
(0.0415641 -0.0100948 0 0.00979531 0 0)
(0.0411567 -0.0092547 0 0.0122482 0 0)
(0.0408261 -0.00944048 0 0.0150173 0 0)
(0.0400067 -0.00983888 0 0.018133 0 0)
(0.0391112 -0.00999981 0 0.021648 0 0)
(0.0381801 -0.00983989 0 0.0256083 0 0)
(0.0371704 -0.00939509 0 0.0300495 0 0)
(0.0360798 -0.00866619 0 0.0349774 0 0)
(0.0349417 -0.00756169 0 0.0404319 0 0)
(0.0337993 -0.00597491 0 0.0463911 0 0)
(0.0327727 -0.00376246 0 0.0529112 0 0)
(0.0319743 -0.000873266 0 0.0598268 0 0)
(0.0315599 0.00283129 0 0.0672141 0 0)
(0.0317328 0.00725969 0 0.0746472 0 0)
(0.0323354 0.012621 0 0.0824002 0 0)
(0.00627569 -0.00144655 0 0.00409249 0 0)
(0.0520018 -0.0110784 0 0.00534377 0 0)
(0.0471783 -0.0111196 0 0.00681076 0 0)
(0.0402094 -0.00876796 0 0.00876582 0 0)
(0.0393185 -0.00735321 0 0.0108646 0 0)
(0.0384773 -0.00686577 0 0.0131269 0 0)
(0.0372509 -0.00657236 0 0.0156222 0 0)
(0.0361469 -0.00603569 0 0.0183598 0 0)
(0.0352061 -0.0051228 0 0.0213213 0 0)
(0.0343742 -0.00384139 0 0.024503 0 0)
(0.0336606 -0.00223208 0 0.0279055 0 0)
(0.0331239 -0.000293328 0 0.0315593 0 0)
(0.0328272 0.00199882 0 0.0354481 0 0)
(0.0328854 0.00471455 0 0.0395936 0 0)
(0.0333801 0.00786496 0 0.0438748 0 0)
(0.034426 0.0115258 0 0.0483349 0 0)
(0.0361278 0.0155954 0 0.052701 0 0)
(0.0383799 0.0202027 0 0.0571484 0 0)
(0.00568491 -0.00179265 0 0.00419216 0 0)
(0.0508737 -0.0103038 0 0.00531359 0 0)
(0.0454689 -0.00989706 0 0.00647399 0 0)
(0.0383754 -0.00751814 0 0.00803121 0 0)
(0.0371967 -0.00600832 0 0.00962049 0 0)
(0.0361166 -0.00535046 0 0.0112808 0 0)
(0.0347557 -0.00487676 0 0.0130983 0 0)
(0.0336033 -0.00415214 0 0.0150795 0 0)
(0.0327052 -0.00302854 0 0.0171938 0 0)
(0.0320361 -0.0015269 0 0.0194246 0 0)
(0.0316406 0.000285795 0 0.0217624 0 0)
(0.0315998 0.0023743 0 0.0242123 0 0)
(0.031977 0.00473047 0 0.0267456 0 0)
(0.032857 0.00738177 0 0.0293668 0 0)
(0.0342926 0.0103187 0 0.031991 0 0)
(0.0363494 0.0135752 0 0.0346572 0 0)
(0.0390864 0.0170688 0 0.0371962 0 0)
(0.0424173 0.0208779 0 0.0397242 0 0)
(0.00648137 -0.00182132 0 0.00362315 0 0)
(0.051484 -0.00928754 0 0.004424 0 0)
(0.0455389 -0.00862987 0 0.00524488 0 0)
(0.0380794 -0.00621557 0 0.0063568 0 0)
(0.0366504 -0.00459587 0 0.00751147 0 0)
(0.035399 -0.00369779 0 0.00868 0 0)
(0.0340183 -0.00294371 0 0.00986215 0 0)
(0.033014 -0.00201059 0 0.0110544 0 0)
(0.0323824 -0.000815622 0 0.0122779 0 0)
(0.0320403 0.000622236 0 0.0135695 0 0)
(0.0320229 0.00226809 0 0.0149446 0 0)
(0.0324337 0.00410831 0 0.0163995 0 0)
(0.0333591 0.0061452 0 0.0179018 0 0)
(0.0348762 0.00839674 0 0.019444 0 0)
(0.0370212 0.0108536 0 0.0209701 0 0)
(0.039822 0.0135263 0 0.0225025 0 0)
(0.0433097 0.0163526 0 0.023946 0 0)
(0.0473906 0.0193723 0 0.0253724 0 0)
(0.00534318 -0.00127357 0 0.00318621 0 0)
(0.0499572 -0.00771089 0 0.00333971 0 0)
(0.0437056 -0.00718825 0 0.00407822 0 0)
(0.0363039 -0.00491086 0 0.00495755 0 0)
(0.0349211 -0.00325465 0 0.00584537 0 0)
(0.0337168 -0.00228368 0 0.00678647 0 0)
(0.0324949 -0.00148879 0 0.00777484 0 0)
(0.0317878 -0.000516177 0 0.00878256 0 0)
(0.0316069 0.000749679 0 0.00978777 0 0)
(0.0318823 0.00226591 0 0.0107837 0 0)
(0.0326091 0.00394255 0 0.0117664 0 0)
(0.0338145 0.00571945 0 0.0127397 0 0)
(0.0355335 0.00757918 0 0.0136929 0 0)
(0.0378126 0.00953629 0 0.014634 0 0)
(0.0406839 0.0115991 0 0.015533 0 0)
(0.0441764 0.0137937 0 0.0164214 0 0)
(0.0483492 0.0160812 0 0.0172332 0 0)
(0.0531274 0.0184967 0 0.0180255 0 0)
(0.00652397 -0.00128224 0 0.00294141 0 0)
(0.04935 -0.00667972 0 0.00318491 0 0)
(0.0428157 -0.00583312 0 0.00352161 0 0)
(0.0354974 -0.00361013 0 0.0039386 0 0)
(0.0341362 -0.00203539 0 0.00439005 0 0)
(0.0328337 -0.00110614 0 0.00483557 0 0)
(0.0315293 -0.000372503 0 0.00525197 0 0)
(0.030935 0.000455749 0 0.00567531 0 0)
(0.0311175 0.00148051 0 0.00615085 0 0)
(0.0319443 0.0026898 0 0.00668855 0 0)
(0.0333443 0.00403407 0 0.00726483 0 0)
(0.0352985 0.00547085 0 0.00784835 0 0)
(0.0378034 0.00698058 0 0.00841108 0 0)
(0.0408886 0.0085618 0 0.00894697 0 0)
(0.0445954 0.0102 0 0.00943349 0 0)
(0.048941 0.0118934 0 0.00988767 0 0)
(0.0539695 0.0136003 0 0.0102761 0 0)
(0.0595937 0.0153347 0 0.010625 0 0)
(0.00631342 -0.00148096 0 0.00279208 0 0)
(0.0497932 -0.00641408 0 0.0028935 0 0)
(0.0424037 -0.00510761 0 0.00300775 0 0)
(0.0347651 -0.00282517 0 0.00338649 0 0)
(0.0335847 -0.00123246 0 0.00380751 0 0)
(0.0325885 -0.000285798 0 0.00419202 0 0)
(0.0316222 0.000417985 0 0.00451659 0 0)
(0.0313653 0.00115691 0 0.00481261 0 0)
(0.0318663 0.00205456 0 0.0051154 0 0)
(0.0330061 0.00312076 0 0.00543209 0 0)
(0.0347447 0.00430843 0 0.00574284 0 0)
(0.0371042 0.00556897 0 0.00603467 0 0)
(0.0401321 0.00687546 0 0.00630335 0 0)
(0.0438674 0.00821558 0 0.00655592 0 0)
(0.0483324 0.00956639 0 0.00677889 0 0)
(0.0534865 0.0109189 0 0.006991 0 0)
(0.0593514 0.0122411 0 0.00716354 0 0)
(0.0657893 0.0135593 0 0.00730773 0 0)
(0.0060838 -0.00158984 0 0.00232772 0 0)
(0.0479981 -0.00534821 0 0.00212044 0 0)
(0.0397149 -0.00386949 0 0.00204346 0 0)
(0.0321903 -0.00194863 0 0.00215195 0 0)
(0.0313927 -0.000672233 0 0.00226757 0 0)
(0.0308311 3.17041e-05 0 0.00234058 0 0)
(0.030422 0.000488479 0 0.00243082 0 0)
(0.0308659 0.000975183 0 0.00257377 0 0)
(0.0321536 0.00161421 0 0.00275529 0 0)
(0.0340974 0.00238814 0 0.00293051 0 0)
(0.0366486 0.00322209 0 0.00306985 0 0)
(0.0398659 0.00406123 0 0.0031778 0 0)
(0.0438188 0.00488547 0 0.00326839 0 0)
(0.04853 0.00569395 0 0.00335233 0 0)
(0.054004 0.00648407 0 0.00342194 0 0)
(0.0601731 0.0072567 0 0.00348356 0 0)
(0.0670553 0.00799062 0 0.00352067 0 0)
(0.0744905 0.00871107 0 0.00353476 0 0)
(0.00632938 -0.00136 0 0.00190018 0 0)
(0.047601 -0.0041775 0 0.00141621 0 0)
(0.0384267 -0.0032651 0 0.00140601 0 0)
(0.0310573 -0.00158972 0 0.00163663 0 0)
(0.0306171 -0.000326543 0 0.00176452 0 0)
(0.0303317 0.000384232 0 0.00176481 0 0)
(0.0303395 0.000857322 0 0.00173932 0 0)
(0.0314281 0.00134201 0 0.00175301 0 0)
(0.0335292 0.00192666 0 0.00179607 0 0)
(0.0363805 0.00258913 0 0.00184349 0 0)
(0.0399024 0.00328038 0 0.00188451 0 0)
(0.0441484 0.00396452 0 0.00191744 0 0)
(0.0491806 0.00462074 0 0.00194254 0 0)
(0.0550037 0.00523698 0 0.00196072 0 0)
(0.0615908 0.0057984 0 0.00196418 0 0)
(0.0688468 0.00630428 0 0.00195569 0 0)
(0.0767749 0.00673525 0 0.00192853 0 0)
(0.0852008 0.00711635 0 0.00188992 0 0)
(0.0047286 -0.000765475 0 0.00164268 0 0)
(0.0453831 -0.00200791 0 0.000801193 0 0)
(0.03644 -0.00124799 0 0.000625394 0 0)
(0.0299616 -0.000349021 0 0.000680536 0 0)
(0.0301362 0.000285079 0 0.000691024 0 0)
(0.0302599 0.000558014 0 0.000681019 0 0)
(0.0306944 0.000675955 0 0.000689198 0 0)
(0.0322998 0.000804396 0 0.000712504 0 0)
(0.0349795 0.000987978 0 0.000734306 0 0)
(0.0384584 0.00119762 0 0.000746238 0 0)
(0.042695 0.00139653 0 0.000748602 0 0)
(0.0477779 0.00156289 0 0.000745577 0 0)
(0.0537619 0.00168905 0 0.000739824 0 0)
(0.0606065 0.00177339 0 0.000733274 0 0)
(0.068231 0.00181096 0 0.000724881 0 0)
(0.0764981 0.00180035 0 0.000716546 0 0)
(0.0853969 0.00172538 0 0.000706902 0 0)
(0.0947399 0.00160074 0 0.000695535 0 0)
(0.00642271 -0.000943503 0 0.00123191 0 0)
(0.0451017 -0.00222968 0 0.000594133 0 0)
(0.034824 -0.00161371 0 0.000589619 0 0)
(0.028941 -0.000503509 0 0.000580079 0 0)
(0.0296705 0.000138923 0 0.000485751 0 0)
(0.0302459 0.000396538 0 0.000406808 0 0)
(0.0313967 0.000552536 0 0.000366441 0 0)
(0.034003 0.00069907 0 0.000344347 0 0)
(0.0378569 0.000817608 0 0.000328374 0 0)
(0.0425906 0.000886513 0 0.000313639 0 0)
(0.0480966 0.000905499 0 0.000298575 0 0)
(0.0544219 0.000882103 0 0.000283543 0 0)
(0.0615789 0.000823245 0 0.00027011 0 0)
(0.0695147 0.000727198 0 0.000260581 0 0)
(0.0781053 0.000583588 0 0.000256788 0 0)
(0.0872317 0.000376442 0 0.000260461 0 0)
(0.0968282 9.11089e-05 0 0.000271716 0 0)
(0.10676 -0.00027423 0 0.000287562 0 0)
(0.00465777 -0.000158984 0 0.000773701 0 0)
(0.0423758 0.000400682 0 0.000227181 0 0)
(0.0326005 6.26303e-05 0 0.000185943 0 0)
(0.0278115 0.000128767 0 0.000195982 0 0)
(0.0293997 4.10157e-05 0 0.000220895 0 0)
(0.0307472 -0.000156477 0 0.000240687 0 0)
(0.032557 -0.000390882 0 0.000257886 0 0)
(0.0355821 -0.000649914 0 0.000278354 0 0)
(0.0394776 -0.000934057 0 0.00030357 0 0)
(0.0437622 -0.00123795 0 0.000332073 0 0)
(0.0482093 -0.00155277 0 0.000361712 0 0)
(0.0527835 -0.00187446 0 0.000391586 0 0)
(0.0574115 -0.00219664 0 0.000422055 0 0)
(0.0620593 -0.00251538 0 0.000455051 0 0)
(0.0665558 -0.00282518 0 0.000491297 0 0)
(0.0709042 -0.00313541 0 0.000532937 0 0)
(0.0749069 -0.00344657 0 0.000580675 0 0)
(0.0786955 -0.00377551 0 0.000631393 0 0)
(0.00622981 -0.000454013 0 0.000705854 0 0)
(0.0456769 -0.000232493 0 0.000207691 0 0)
(0.0403114 -2.79633e-05 0 0.000132868 0 0)
(0.0388257 0.000202734 0 9.09105e-05 0 0)
(0.0427424 0.000253943 0 7.19368e-05 0 0)
(0.0461619 0.000278704 0 6.48602e-05 0 0)
(0.049368 0.000333245 0 6.33927e-05 0 0)
(0.0532329 0.000409227 0 6.61045e-05 0 0)
(0.0580518 0.000485536 0 7.18156e-05 0 0)
(0.0638378 0.000555036 0 7.9956e-05 0 0)
(0.0705286 0.000625785 0 9.02058e-05 0 0)
(0.0780474 0.000709668 0 0.000102029 0 0)
(0.0863996 0.000815157 0 0.000114566 0 0)
(0.0956213 0.000942281 0 0.000127198 0 0)
(0.105874 0.00108463 0 0.000140139 0 0)
(0.117062 0.00123219 0 0.000154207 0 0)
(0.129429 0.00138062 0 0.00016852 0 0)
(0.142532 0.00153196 0 0.000181638 0 0)
(0.000203114 -0.000470386 3.52607e-22 0.00112349 -7.23042e-22 4.44284e-37)
(0.00224903 -0.00170841 -1.0685e-21 0.00136553 7.14897e-22 4.3807e-37)
(0.00685182 -0.00295945 0 0.00134577 0 0)
(0.0139937 -0.00423275 0 0.00133355 0 0)
(0.0238007 -0.00555071 0 0.00132802 0 0)
(0.0364376 -0.00693863 3.88057e-21 0.00133741 -7.13267e-22 4.1263e-37)
(0.0520671 -0.0084166 0 0.00136802 0 0)
(0.0709186 -0.0100045 0 0.00142205 0 0)
(0.093226 -0.0117163 0 0.00149926 0 0)
(0.119271 -0.0135626 0 0.00159783 0 0)
(0.149346 -0.0155515 -7.31378e-21 0.00171596 7.01396e-22 3.8221e-37)
(0.183774 -0.017689 0 0.00185156 0 0)
(0.222891 -0.0199807 0 0.00200318 0 0)
(0.267044 -0.0224296 0 0.0021683 0 0)
(0.316579 -0.0250305 0 0.00234337 0 0)
(0.37182 -0.0277723 -1.0494e-20 0.00252418 6.45664e-22 3.53281e-37)
(0.433062 -0.0306306 0 0.00270413 0 0)
(0.500558 -0.0335714 0 0.00287707 0 0)
(0.57448 -0.0365528 0 0.00303702 0 0)
(0.654906 -0.039514 0 0.0031758 0 0)
(0.741785 -0.0423898 0 0.00328828 0 0)
(0.83488 -0.0450939 0 0.0033664 0 0)
(0.933821 -0.0475381 0 0.00340535 0 0)
(1.03801 -0.0496234 -1.45344e-20 0.0033997 4.69298e-22 3.10049e-37)
(1.14661 -0.0512445 1.49144e-20 0.00334586 -4.41193e-22 3.04908e-37)
(1.2586 -0.0523029 -1.52615e-20 0.00324297 4.12117e-22 2.99825e-37)
(1.37266 -0.0527016 -1.55745e-20 0.00309168 3.82247e-22 2.948e-37)
(1.4873 -0.0523566 0 0.00289545 0 0)
(1.60079 -0.0512051 0 0.00266077 0 0)
(1.71122 -0.0491957 1.62981e-20 0.00239357 -2.89664e-22 2.80077e-37)
(1.81657 -0.0463199 1.64646e-20 0.00210588 -2.58526e-22 2.75286e-37)
(1.91474 -0.0425954 0 0.00180793 0 0)
(2.00368 -0.0380741 0 0.00151158 0 0)
(2.08141 -0.0328538 1.6735e-20 0.0012301 -1.67942e-22 2.61261e-37)
(2.14616 -0.0270606 0 0.000973845 0 0)
(2.19644 -0.0208533 0 0.000752584 0 0)
(2.23112 -0.0144106 -1.6671e-20 0.000572478 8.72542e-23 2.47757e-37)
(2.2495 -0.00791882 0 0.000437328 0 0)
(2.25135 -0.00155513 -1.64607e-20 0.00034665 4.21809e-23 2.39043e-37)
(2.23702 0.00452787 -3.2624e-20 0.000297316 4.54226e-23 9.39084e-37)
(2.20715 0.0102009 0 0.000284085 0 0)
(2.16274 0.0153512 0 0.000300781 0 0)
(2.10513 0.0198827 0 0.000340517 0 0)
(2.0359 0.0237235 0 0.000395953 0 0)
(1.95684 0.0268368 0 0.00046012 0 0)
(1.86983 0.0292093 -2.99985e-20 0.000526006 -1.00418e-22 8.41312e-37)
(1.77679 0.0308699 -2.94784e-20 0.000588598 -1.11318e-22 8.25799e-37)
(1.67953 0.0318501 -2.89496e-20 0.00064278 -1.19016e-22 8.10505e-37)
(1.57985 0.0322236 0 0.000686193 0 0)
(1.47934 0.032044 2.78847e-20 0.000715915 1.26414e-22 7.80573e-37)
(1.37938 0.0314063 0 0.000732079 0 0)
(1.28123 0.0303945 -2.68337e-20 0.000735083 -1.25406e-22 7.51503e-37)
(1.18587 0.0290862 -2.63204e-20 0.00072581 -1.22588e-22 7.37288e-37)
(1.09411 0.0275575 0 0.000705871 0 0)
(1.00662 0.0258674 0 0.000676502 0 0)
(0.92384 0.0240898 0 0.000640387 0 0)
(0.845983 0.0222424 -2.4388e-20 0.000597594 -1.02121e-22 6.82523e-37)
(0.773266 0.0204371 0 0.0005537 0 0)
(0.705779 0.0186485 0 0.000506959 0 0)
(0.643408 0.0169284 0 0.00046019 0 0)
(0.586028 0.0152748 0 0.000413278 0 0)
(0.53348 0.0137329 0 0.000368907 0 0)
(0.485542 0.0122925 0 0.000326653 0 0)
(0.441906 0.0109609 0 0.000287197 0 0)
(0.402287 0.00973382 0 0.000250526 0 0)
(0.366403 0.00861408 2.08632e-20 0.000217049 4.72845e-23 5.71052e-37)
(0.333989 0.00759833 0 0.000186793 0 0)
(0.304769 0.00668171 0 0.000159702 0 0)
(0.278476 0.00585835 -1.99169e-20 0.000135651 -3.32141e-23 5.37324e-37)
(0.254854 0.00512183 -1.96224e-20 0.000114469 -2.91546e-23 5.26445e-37)
(0.23366 0.00446545 0 9.59525e-05 0 0)
(0.214667 0.0038825 1.90616e-20 7.98845e-05 2.19499e-23 5.05219e-37)
(0.197664 0.00336637 -1.87943e-20 6.60393e-05 -1.87848e-23 4.94868e-37)
(0.182458 0.00291073 0 5.41932e-05 0 0)
(0.168868 0.00250958 1.82833e-20 4.4129e-05 1.32677e-23 4.7468e-37)
(0.156731 0.0021573 0 3.56403e-05 0 0)
(0.145898 0.00184867 0 2.85335e-05 0 0)
(0.136233 0.00157892 -1.75695e-20 2.26298e-05 -6.81858e-24 4.45649e-37)
(0.127613 0.00134364 0 1.77654e-05 0 0)
(0.119929 0.00113889 1.7124e-20 1.37921e-05 3.57179e-24 4.27105e-37)
(0.11308 0.00096105 0 1.05767e-05 0 0)
(0.106977 0.000806904 -1.66995e-20 8.00081e-06 -1.03684e-24 4.09189e-37)
(0.10154 0.00067355 -1.64942e-20 5.9597e-06 -3.4852e-27 4.00462e-37)
(0.0966963 0.000558417 -1.62933e-20 4.36196e-06 8.91569e-25 3.91885e-37)
(0.092382 0.000459202 -3.21929e-20 3.12812e-06 3.31808e-24 1.53383e-36)
(0.0885396 0.000373881 3.18068e-20 2.18994e-06 -4.62206e-24 1.5007e-36)
(0.0851181 0.000300651 0 1.48916e-06 0 0)
(0.0820719 0.000237945 0 9.76767e-07 0 0)
(0.0793603 0.000184361 0 6.11685e-07 0 0)
(0.076947 0.00013869 3.0329e-20 3.60081e-07 -7.94552e-24 1.37391e-36)
(0.0748002 9.98725e-05 2.99742e-20 1.94326e-07 -8.39926e-24 1.3436e-36)
(0.0728913 6.7e-05 -2.96246e-20 9.22135e-08 8.73611e-24 1.31383e-36)
(0.0711947 3.92908e-05 0 3.60846e-08 0 0)
(0.0696878 1.61146e-05 2.89398e-20 1.21564e-08 -9.1299e-24 1.25586e-36)
(0.0683502 -3.08617e-06 2.8604e-20 9.69558e-09 -9.20865e-24 1.22766e-36)
(0.0671638 -1.885e-05 2.82722e-20 2.04753e-08 -9.22427e-24 1.19996e-36)
(0.0661125 -3.16877e-05 0 3.83726e-08 0 0)
(0.0651817 -4.20341e-05 0 5.89983e-08 0 0)
(0.0643586 -5.03109e-05 0 7.94157e-08 0 0)
(0.0636319 -5.68733e-05 2.69816e-20 9.77718e-08 -8.86517e-24 1.0941e-36)
(0.0629917 -6.20292e-05 0 1.1304e-07 0 0)
(0.0624292 -6.6081e-05 0 1.24916e-07 0 0)
(0.0619368 -6.92755e-05 -2.60475e-20 1.33365e-07 8.35822e-24 1.01968e-36)
(0.0615077 -7.18648e-05 0 1.38904e-07 0 0)
(0.0611363 -7.40514e-05 0 1.42173e-07 0 0)
(0.0608175 -7.60097e-05 -2.51387e-20 1.43781e-07 7.79515e-24 9.49303e-37)
(0.0605473 -7.79885e-05 0 1.45167e-07 0 0)
(0.0603223 -8.00666e-05 0 1.46852e-07 0 0)
(0.0601395 -8.24425e-05 2.42529e-20 1.50248e-07 -7.26807e-24 8.82789e-37)
(0.0599986 -8.51834e-05 2.39624e-20 1.56429e-07 -7.10458e-24 8.61445e-37)
(0.0598966 -8.80026e-05 0 1.64389e-07 0 0)
(0.0598301 -9.06022e-05 -2.33882e-20 1.72624e-07 6.77452e-24 8.19959e-37)
(0.0597963 -9.28508e-05 0 1.80371e-07 0 0)
(0.0597925 -9.47335e-05 2.28225e-20 1.87443e-07 -6.41397e-24 7.80035e-37)
(0.0598158 -9.61846e-05 0 1.93383e-07 0 0)
(0.0598635 -9.70748e-05 2.22649e-20 1.97274e-07 -6.02412e-24 7.41624e-37)
(0.059933 -9.73781e-05 2.1989e-20 1.9874e-07 -5.82011e-24 7.2297e-37)
(0.060022 -9.72442e-05 0 1.98452e-07 0 0)
(0.0601285 -9.67525e-05 0 1.96763e-07 0 0)
(0.0602502 -9.58799e-05 0 1.93507e-07 0 0)
(0.0603851 -9.46025e-05 0 1.88519e-07 0 0)
(0.0605311 -9.29053e-05 0 1.81719e-07 0 0)
(0.0606863 -9.0808e-05 0 1.73208e-07 0 0)
(0.0608487 -8.83733e-05 0 1.63321e-07 0 0)
(0.0610168 -8.57138e-05 1.98459e-20 1.52644e-07 -4.17971e-24 5.86244e-37)
(0.0611892 -8.29696e-05 -1.95856e-20 1.41868e-07 3.99021e-24 5.70634e-37)
(0.0613652 -8.02637e-05 0 1.31574e-07 0 0)
(0.0615442 -7.76866e-05 0 1.22122e-07 0 0)
(0.0617261 -7.52783e-05 0 1.13633e-07 0 0)
(0.0619107 -7.30479e-05 0 1.06069e-07 0 0)
(0.0620983 -7.09811e-05 -3.66152e-20 9.93185e-08 6.44043e-24 1.98862e-36)
(0.0622887 -6.90634e-05 0 9.32677e-08 0 0)
(0.062482 -6.7279e-05 3.56145e-20 8.78245e-08 -5.97114e-24 1.87923e-36)
(0.0626783 -6.56226e-05 -3.51187e-20 8.29259e-08 5.76043e-24 1.82622e-36)
(0.0628773 -6.40871e-05 0 7.85226e-08 0 0)
(0.0630792 -6.26719e-05 0 7.45762e-08 0 0)
(0.0632839 -6.13715e-05 0 7.10482e-08 0 0)
(0.0634912 -6.01843e-05 3.31651e-20 6.79025e-08 -5.07396e-24 1.6249e-36)
(0.0637013 -5.91075e-05 3.2684e-20 6.51107e-08 -4.93676e-24 1.57717e-36)
(0.0639142 -5.81343e-05 0 6.26328e-08 0 0)
(0.0641297 -5.72613e-05 3.17304e-20 6.04435e-08 -4.69273e-24 1.48473e-36)
(0.0643481 -5.64756e-05 3.12579e-20 5.84998e-08 -4.58414e-24 1.43998e-36)
(0.0645692 -5.57731e-05 -3.07882e-20 5.67779e-08 4.48115e-24 1.39619e-36)
(0.0647933 -5.51434e-05 0 5.52465e-08 0 0)
(0.0650202 -5.45853e-05 0 5.38919e-08 0 0)
(0.0652501 -5.40919e-05 -2.93959e-20 5.26933e-08 4.19967e-24 1.27041e-36)
(0.065483 -5.36637e-05 0 5.16433e-08 0 0)
(0.065719 -5.32952e-05 0 5.07264e-08 0 0)
(0.0659581 -5.29868e-05 0 4.9937e-08 0 0)