/*--------------------------------*- C++ -*----------------------------------*\
  =========                 |
  \\      /  F ield         | OpenFOAM: The Open Source CFD Toolbox
   \\    /   O peration     | Website:  https://openfoam.org
    \\  /    A nd           | Version:  7
     \\/     M anipulation  |
\*---------------------------------------------------------------------------*/
FoamFile
{
    version     2.0;
    format      ascii;
    class       volScalarField;
    location    "0.03";
    object      nut;
}
// * * * * * * * * * * * * * * * * * * * * * * * * * * * * * * * * * * * * * //

dimensions      [0 2 -1 0 0 0 0];

internalField   nonuniform List<scalar> 
12225
(
0
0
0
0
0
0
0
0
0
0
0
0
0
0
0
0
0
0
0
0
0
0
0
0
0
0
0
0
0
0
0
0
0
0
0
0
0
1.11557e-09
1.72918e-10
0
0
0
0
0
0
0
0
0
0
0
0
0
0
0
0
2.32319e-08
1.00842e-08
8.86053e-10
0
0
0
0
0
0
0
0
0
0
0
0
0
0
0
1.52364e-07
3.02434e-07
5.66704e-08
0
0
1.22219e-09
4.58946e-10
0
0
0
0
0
0
0
0
2.62668e-10
0
1.41272e-07
3.28634e-07
4.58869e-07
4.71683e-07
2.63513e-07
1.13348e-07
1.42339e-07
8.45274e-08
0
0
0
0
0
0
0
0
4.78968e-09
8.76149e-09
1.31559e-07
3.75503e-07
5.1249e-07
3.6931e-07
1.19259e-07
0
1.42886e-09
2.50025e-09
0
0
2.12837e-08
1.75463e-08
0
0
0
3.1192e-08
7.31926e-08
9.79101e-08
2.21402e-07
3.80704e-07
5.93697e-07
2.5813e-07
2.96163e-08
0
0
0
0
0
2.72462e-08
4.9537e-08
3.36876e-08
0
7.45568e-09
7.95638e-08
1.25124e-07
1.14935e-07
4.31245e-07
4.94567e-07
8.2681e-07
3.07463e-07
8.60239e-08
0
1.42015e-08
4.82396e-09
0
0
2.56738e-08
7.37121e-08
1.25388e-07
1.33204e-07
9.63394e-08
5.3482e-08
3.70948e-08
3.33636e-08
3.67804e-07
4.67413e-07
1.35386e-06
7.24036e-07
4.07244e-07
2.04541e-07
9.27478e-08
2.04473e-08
0
7.41293e-09
5.2418e-08
1.11969e-07
1.49024e-07
1.40298e-07
9.5246e-08
4.28951e-08
1.34391e-08
5.87829e-09
0
0
6.18093e-07
9.70489e-07
6.22944e-07
3.43863e-07
2.57824e-07
1.30528e-07
0
0
0
5.78799e-08
1.05745e-07
1.14534e-07
8.77495e-08
4.5883e-08
1.3232e-08
0
0
0
3.22621e-07
9.1373e-07
6.56112e-07
4.36577e-07
4.94938e-07
2.06256e-07
0
0
0
0
2.15047e-08
5.51498e-08
5.94268e-08
3.73005e-08
8.65837e-09
0
0
0
0
8.49739e-07
5.13396e-07
3.23076e-07
5.67332e-07
3.08217e-07
0
0
0
0
0
0
0
0
0
0
0
0
0
0
2.50389e-07
3.34078e-07
8.67472e-07
5.95634e-07
3.23049e-08
0
0
0
0
0
0
0
0
0
0
0
0
0
0
0
5.38206e-07
1.26414e-06
1.09284e-06
9.01924e-07
0
0
0
0
0
0
0
0
0
0
0
0
0
0
1.63976e-07
7.77891e-07
8.81302e-07
1.23596e-06
0
0
0
0
0
0
0
0
0
0
0
0
0
0
1.09165e-07
2.03733e-07
4.01258e-07
3.59413e-07
1.54054e-09
0
0
0
0
0
0
0
7.12521e-07
7.75308e-07
6.52511e-07
0
0
0
1.06711e-07
8.4741e-08
0
0
0
0
0
0
0
0
0
0
0
0
8.30452e-08
0
0
0
9.36801e-08
8.80858e-08
0
0
0
0
0
0
0
0
0
0
0
0
0
0
0
0
0
1.81337e-08
0
2.93031e-09
5.54006e-08
4.33896e-08
0
0
0
0
0
0
5.57847e-08
0
0
0
0
0
0
0
3.04006e-08
9.24333e-08
8.25256e-08
2.91659e-08
0
0
0
0
0
3.55113e-08
0
0
0
0
0
0
0
0
0
0
0
0
0
0
0
0
0
4.07334e-08
7.36555e-07
0
0
0
0
3.67955e-08
0
0
0
0
0
0
0
0
0
0
0
0
1.02375e-06
3.17543e-07
0
0
5.65171e-08
1.09981e-07
1.83252e-08
0
0
0
0
0
0
0
0
0
0
0
4.64877e-07
0
0
0
2.25979e-07
6.87021e-08
0
0
0
0
0
0
0
0
0
0
0
0
4.85988e-09
0
0
0
2.1988e-07
1.76159e-07
3.00185e-08
0
0
0
0
0
0
0
0
0
0
0
0
0
0
0
0
0
0
0
0
0
0
0
0
0
0
0
0
0
6.19288e-09
0
0
0
0
0
0
0
0
0
0
0
0
0
0
0
0
0
7.77437e-09
0
0
0
0
0
0
0
0
0
0
0
0
0
0
0
0
0
6.0604e-08
0
0
0
0
0
0
0
0
0
0
0
0
0
0
0
0
0
5.46131e-09
0
0
0
0
0
0
0
0
0
0
0
0
1.24773e-07
8.6012e-07
2.12768e-06
4.11107e-06
6.88563e-06
1.01036e-05
1.23655e-05
1.20955e-05
9.55266e-06
6.30626e-06
3.43314e-06
1.62448e-06
6.86836e-07
2.46761e-07
4.83287e-08
0
0
0
0
2.26037e-08
4.27779e-08
5.45591e-08
5.87352e-08
5.68298e-08
5.21589e-08
4.26527e-08
3.4554e-08
2.59974e-08
1.76761e-08
1.20997e-08
7.1661e-09
3.67124e-09
7.19782e-10
0
0
0
0
0
0
0
0
0
0
0
0
0
0
0
0
0
0
0
0
0
0
0
0
0
0
0
0
0
0
0
0
0
0
0
0
0
0
0
0
0
0
0
0
0
0
0
0
0
0
0
0
0
0
0
0
0
0
0
0
0
0
0
0
0
0
0
0
0
0
0
0
0
0
0
0
0
0
0
0
0
0
0
0
0
0
0
0
0
0
0
0
0
0
0
0
0
0
0
0
0
0
0
0
0
0
0
0
0
0
0
0
0
0
0
0
0
0
0
0
0
0
0
0
0
0
0
0
0
0
0
0
0
0
2.3571e-09
1.2556e-10
0
0
0
0
0
0
0
0
0
5.24965e-08
4.09967e-07
7.7414e-07
1.09083e-06
1.31195e-06
1.41632e-06
1.41574e-06
1.34993e-06
1.25349e-06
1.15555e-06
1.02577e-06
8.81055e-07
7.20727e-07
5.59939e-07
4.13039e-07
2.83427e-07
1.72388e-07
8.85018e-08
3.68096e-08
1.5471e-08
1.42904e-08
2.17481e-08
2.99171e-08
3.49873e-08
3.76146e-08
3.76641e-08
3.65698e-08
3.41803e-08
3.11022e-08
2.72928e-08
2.29142e-08
1.81599e-08
1.29038e-08
7.40179e-09
1.63614e-09
0
0
0
0
0
0
0
0
0
0
0
0
0
0
0
0
0
0
0
0
0
0
0
0
0
0
0
0
0
0
1.4884e-08
2.32329e-09
0
0
0
0
0
0
0
0
0
0
0
0
0
0
0
0
0
0
0
0
0
0
0
0
0
0
0
0
0
0
0
0
0
0
0
0
0
0
0
0
0
0
0
0
0
0
0
0
0
0
0
0
0
0
0
0
0
0
0
0
0
0
0
0
0
0
0
0
0
0
0
0
0
0
0
0
0
0
0
0
0
0
0
0
0
0
0
0
0
0
0
0
0
0
0
0
0
0
0
0
0
0
0
0
0
0
6.70638e-08
1.26135e-07
1.78468e-07
2.2707e-07
2.73601e-07
3.18119e-07
3.62056e-07
4.08199e-07
4.57752e-07
5.08545e-07
5.52089e-07
5.78676e-07
5.89073e-07
5.76341e-07
5.44805e-07
4.97364e-07
4.374e-07
4.02294e-07
3.62783e-07
3.22322e-07
2.77042e-07
2.29479e-07
1.83312e-07
1.41868e-07
1.0463e-07
7.38517e-08
4.99038e-08
3.38284e-08
2.62802e-08
2.64401e-08
3.21794e-08
4.05817e-08
4.90188e-08
5.56739e-08
5.85614e-08
5.77737e-08
5.2795e-08
4.47139e-08
3.46287e-08
2.40749e-08
1.36684e-08
3.59224e-09
0
0
0
0
0
0
0
0
0
0
0
0
0
0
0
0
0
0
0
0
0
0
0
0
0
7.59304e-09
2.18555e-08
3.19165e-08
3.87575e-08
4.1728e-08
3.78277e-08
2.80099e-08
1.51328e-08
8.10224e-10
0
0
0
0
0
0
0
0
0
0
0
0
0
0
0
0
0
0
0
0
0
0
0
0
0
0
0
0
0
0
0
0
0
0
0
0
0
0
0
0
0
0
0
0
0
0
0
0
0
0
0
0
0
0
0
0
0
0
0
0
0
0
0
0
0
0
0
0
0
0
0
0
0
0
0
0
0
0
0
0
0
0
0
0
0
0
0
0
0
0
0
0
0
0
0
0
0
0
0
0
0
0
0
0
0
0
0
0
3.90935e-08
9.75624e-08
1.5477e-07
2.07173e-07
2.54712e-07
2.94972e-07
3.25961e-07
3.44394e-07
3.48209e-07
3.39134e-07
3.19784e-07
2.91495e-07
2.5783e-07
2.23272e-07
1.85216e-07
1.43279e-07
9.7599e-08
4.47427e-08
0
0
0
0
0
0
0
0
0
0
0
0
0
0
0
0
0
2.84488e-08
6.77459e-08
0
0
0
0
0
0
7.20935e-08
1.26615e-07
1.69629e-07
2.04557e-07
2.32254e-07
2.53731e-07
2.6856e-07
2.74746e-07
2.70463e-07
2.59094e-07
2.42404e-07
2.24253e-07
2.07251e-07
1.93391e-07
1.80094e-07
1.67068e-07
1.53573e-07
1.38723e-07
1.23522e-07
1.08183e-07
9.28984e-08
7.84898e-08
6.63213e-08
5.79353e-08
5.18805e-08
4.47699e-08
3.74126e-08
3.11892e-08
2.60009e-08
2.15035e-08
1.74787e-08
1.37709e-08
1.02843e-08
6.9594e-09
3.74322e-09
6.2478e-10
0
0
0
0
0
0
0
0
0
0
0
0
0
0
0
0
0
0
0
0
0
0
0
0
0
0
0
0
0
0
0
0
0
0
0
0
0
0
0
0
0
0
0
0
0
0
0
0
0
0
0
0
0
0
0
0
0
0
0
9.04026e-16
1.48521e-15
1.65736e-15
1.63068e-15
1.51778e-15
1.37988e-15
1.24401e-15
1.12635e-15
1.02652e-15
9.50349e-16
8.87223e-16
8.46139e-16
8.07748e-16
7.92636e-16
7.65074e-16
7.70812e-16
7.40496e-16
7.71377e-16
7.24153e-16
7.95183e-16
7.03915e-16
8.38301e-16
6.43417e-16
8.72187e-16
5.47899e-16
7.98964e-16
6.22861e-16
1.3678e-16
2.15388e-15
0
2.57605e-14
0
2.97977e-13
0
0
0
0
0
0
0
0
0
0
0
0
0
0
0
0
0
0
0
0
0
0
0
0
0
0
0
0
0
0
0
0
0
0
0
0
0
0
0
0
1.22674e-07
2.68983e-07
4.4897e-07
6.84605e-07
9.57827e-07
9.87088e-07
0
0
0
0
0
0
0
0
0
0
0
0
3.04588e-09
7.98105e-08
1.5268e-07
2.06379e-07
2.3423e-07
2.38499e-07
2.28293e-07
2.13829e-07
1.99414e-07
1.84489e-07
1.6938e-07
1.52728e-07
1.35769e-07
1.19325e-07
1.03824e-07
8.9777e-08
7.83433e-08
6.90412e-08
5.90433e-08
4.79452e-08
3.78694e-08
2.98979e-08
2.37391e-08
1.90357e-08
1.55329e-08
1.29344e-08
1.08921e-08
9.07449e-09
7.35037e-09
5.69051e-09
4.1168e-09
2.66727e-09
1.3591e-09
1.94278e-10
0
0
0
0
0
0
0
0
0
0
0
0
0
0
0
0
0
0
0
0
0
0
0
0
0
0
0
0
0
0
0
0
0
0
0
0
0
0
0
0
2.94224e-12
6.15626e-12
6.94045e-12
6.52162e-12
5.59029e-12
4.52901e-12
3.53017e-12
2.67671e-12
1.99162e-12
1.46442e-12
1.07027e-12
7.80696e-13
5.69955e-13
4.17266e-13
3.06876e-13
2.27138e-13
1.69499e-13
1.2768e-13
9.71266e-14
7.45723e-14
5.7737e-14
4.50167e-14
3.53253e-14
2.78689e-14
2.21144e-14
1.76215e-14
1.41232e-14
1.13432e-14
9.1465e-15
7.33826e-15
5.84906e-15
4.5487e-15
3.37329e-15
2.28392e-15
1.07e-15
7.04254e-17
0
0
0
0
0
0
0
1.41398e-14
0
7.08224e-13
0
3.87067e-12
0
0
0
0
0
0
0
0
0
0
0
0
0
0
0
0
0
0
0
0
0
0
0
0
0
0
0
0
0
0
0
0
0
0
0
0
1.08183e-07
2.47473e-07
3.61448e-07
4.60099e-07
5.64025e-07
7.03862e-07
9.11016e-07
1.22339e-06
1.5843e-06
1.36376e-06
0
0
0
0
0
0
0
0
0
0
0
0
0
0
0
0
7.61581e-09
1.34315e-07
2.04164e-07
2.27761e-07
2.24262e-07
2.07496e-07
1.86818e-07
1.64784e-07
1.43327e-07
1.23995e-07
1.07508e-07
9.52477e-08
8.70665e-08
7.91163e-08
6.87066e-08
5.71976e-08
4.6131e-08
3.59991e-08
2.70786e-08
1.95434e-08
1.35908e-08
9.36433e-09
6.81702e-09
5.59442e-09
5.04095e-09
4.57988e-09
3.85688e-09
2.87392e-09
1.7863e-09
7.41277e-10
0
0
0
0
0
0
0
0
0
0
0
0
0
0
0
0
0
0
0
0
0
0
0
0
0
0
0
0
0
0
0
0
0
0
0
0
0
0
0
0
0
0
0
0
0
0
0
0
0
0
0
0
0
0
0
0
0
0
0
0
0
0
5.4642e-15
8.65409e-15
8.49858e-15
6.5597e-15
3.64106e-15
3.23824e-16
0
0
0
0
0
0
0
0
0
1.05671e-14
3.1666e-14
1.79428e-13
4.62557e-13
2.32329e-12
4.41404e-12
1.50603e-11
1.30189e-11
4.99725e-11
0
2.53259e-11
0
0
0
0
0
0
0
0
0
0
0
0
0
0
0
0
0
0
0
0
0
0
0
0
0
0
0
0
0
0
0
0
0
0
1.58177e-07
2.92463e-07
3.4854e-07
3.422e-07
3.07479e-07
2.82044e-07
2.92665e-07
3.60181e-07
4.81762e-07
6.1663e-07
6.616e-07
4.48528e-07
0
0
0
0
0
0
0
0
0
0
0
0
0
0
0
0
0
0
0
1.33329e-07
2.18302e-07
2.38267e-07
2.16682e-07
1.83681e-07
1.51246e-07
1.24423e-07
1.05207e-07
9.33019e-08
8.57789e-08
7.82032e-08
6.95062e-08
6.12391e-08
5.30214e-08
4.41235e-08
3.46295e-08
2.52542e-08
1.65113e-08
8.76557e-09
2.4913e-09
0
0
0
0
0
0
0
0
0
0
0
0
0
0
0
0
0
0
0
0
0
0
0
0
0
0
0
0
0
0
0
0
0
0
0
0
0
0
0
0
0
0
0
0
0
0
0
0
0
0
0
0
0
0
0
0
0
0
0
0
0
0
0
0
0
0
0
0
0
0
0
0
0
0
0
0
0
0
0
5.70056e-14
2.17663e-13
3.64621e-13
6.01714e-13
8.98824e-13
1.5302e-12
2.30171e-12
4.02133e-12
5.6468e-12
9.69611e-12
1.14576e-11
2.05543e-11
1.4401e-11
2.60762e-11
0
0
0
0
0
0
0
0
0
0
0
0
0
0
0
0
0
0
0
0
0
0
0
0
0
0
0
0
0
0
0
0
0
0
4.16313e-08
1.94128e-07
2.72895e-07
2.57156e-07
1.66096e-07
2.52911e-08
0
0
0
0
0
0
8.5589e-08
1.87601e-07
2.70335e-07
4.09726e-07
6.08973e-07
8.04663e-07
9.44109e-07
9.46635e-07
8.97714e-07
7.1871e-07
5.07258e-07
2.27252e-07
0
0
0
0
0
0
0
0
0
0
5.48329e-08
1.99849e-07
2.36512e-07
2.07133e-07
1.64554e-07
1.29619e-07
1.07145e-07
9.28763e-08
8.13571e-08
7.12427e-08
6.32578e-08
5.72329e-08
5.23286e-08
4.74935e-08
4.17176e-08
3.4288e-08
2.54349e-08
1.62036e-08
7.40616e-09
0
0
0
0
0
0
0
0
0
0
0
0
0
0
0
0
0
0
0
0
0
0
0
0
0
0
0
0
0
0
0
0
0
0
0
0
0
0
0
0
0
0
0
0
0
0
0
0
0
0
0
0
0
0
0
0
0
0
0
0
0
0
0
0
0
0
0
0
0
0
0
0
0
0
0
0
0
0
0
0
1.18231e-13
2.41563e-13
4.18323e-13
6.36728e-13
1.07174e-12
1.60828e-12
2.71624e-12
3.76275e-12
6.04716e-12
6.86595e-12
1.11768e-11
6.51592e-12
6.86664e-12
0
0
0
0
0
0
0
0
0
0
0
0
0
0
0
0
0
0
0
0
0
0
0
0
0
0
0
0
0
0
0
0
0
3.84968e-08
1.69269e-07
2.20702e-07
1.58084e-07
0
0
0
0
0
0
0
2.84732e-07
8.68935e-07
1.32197e-06
1.13817e-06
1.1512e-07
0
0
0
2.17389e-07
5.41035e-07
7.15951e-07
7.28904e-07
7.32708e-07
7.2246e-07
6.45497e-07
4.59649e-07
9.40953e-08
0
0
0
0
0
0
0
0
1.46897e-08
1.71142e-07
1.96512e-07
1.63253e-07
1.28856e-07
1.05381e-07
8.93424e-08
7.62042e-08
6.55433e-08
5.79393e-08
5.22157e-08
4.73832e-08
4.31935e-08
3.96146e-08
3.62008e-08
3.1819e-08
2.52572e-08
1.66891e-08
7.32214e-09
0
0
0
0
0
0
0
0
0
0
0
0
0
0
0
0
0
0
0
0
0
0
0
0
0
0
0
0
0
0
0
0
0
0
0
0
0
0
0
0
0
0
0
0
0
0
0
0
0
0
0
0
0
0
0
0
0
0
0
0
0
0
0
0
0
0
0
0
0
0
0
0
0
0
0
0
0
0
0
3.39197e-14
1.29094e-13
2.47417e-13
3.83572e-13
6.3739e-13
9.43661e-13
1.5295e-12
2.04604e-12
3.06564e-12
3.12591e-12
3.67791e-12
1.23432e-12
0
0
0
0
0
0
0
0
0
0
0
0
0
0
0
0
0
0
0
0
0
0
0
0
0
0
0
0
0
0
0
0
0
0
8.72041e-08
1.2339e-07
6.74838e-08
0
0
0
0
0
0
2.97251e-08
9.44308e-07
2.42499e-06
4.55982e-06
7.04877e-06
7.06828e-06
0
0
0
0
0
1.36307e-07
6.08262e-07
6.1628e-07
4.79442e-07
3.36952e-07
2.96255e-07
3.54745e-07
4.10405e-07
3.15778e-07
0
0
0
0
0
0
0
0
3.78902e-08
1.42903e-07
1.46544e-07
1.19492e-07
9.44777e-08
7.72794e-08
6.6131e-08
5.83644e-08
5.2649e-08
4.84535e-08
4.47783e-08
4.08725e-08
3.67866e-08
3.30815e-08
3.01641e-08
2.76232e-08
2.38865e-08
1.7478e-08
8.61153e-09
0
0
0
0
0
0
0
0
0
0
0
0
0
0
0
0
0
0
0
0
0
0
0
0
0
0
0
0
0
0
0
0
0
0
0
0
0
0
0
0
0
0
0
0
0
0
0
0
0
0
0
0
0
0
0
0
0
0
0
0
0
0
0
0
0
0
0
0
0
0
0
0
0
0
0
0
0
0
0
3.75268e-14
1.13731e-13
1.87523e-13
3.0955e-13
4.44846e-13
6.79925e-13
8.39657e-13
1.18912e-12
8.61079e-13
5.27437e-13
0
0
0
0
0
0
0
0
0
0
0
0
0
0
0
0
0
0
0
0
0
0
0
0
0
0
0
0
0
0
0
0
0
0
9.30958e-09
3.69533e-08
1.55311e-08
0
0
0
0
0
0
1.37008e-07
1.16061e-06
3.08892e-06
6.42632e-06
1.17653e-05
1.98525e-05
2.74064e-05
0
0
0
0
0
0
4.96433e-07
9.61356e-07
8.41411e-07
5.16863e-07
2.52247e-07
1.1969e-07
1.14866e-07
1.88305e-07
2.18967e-07
8.40103e-08
0
0
0
0
0
0
0
9.2066e-08
1.30773e-07
1.11501e-07
8.48082e-08
6.5941e-08
5.51318e-08
4.87558e-08
4.44516e-08
4.16233e-08
3.98518e-08
3.79552e-08
3.50691e-08
3.15237e-08
2.80308e-08
2.51527e-08
2.30877e-08
2.10611e-08
1.71581e-08
1.00149e-08
7.00047e-11
0
0
0
0
0
0
0
0
0
0
0
0
0
0
0
0
0
0
0
0
0
0
0
0
0
0
0
0
0
0
0
0
0
0
0
0
0
0
0
0
0
0
0
0
0
0
0
0
0
0
0
0
0
0
0
0
0
0
0
0
0
0
0
0
0
0
0
0
0
0
0
0
0
0
0
0
0
0
1.37235e-14
5.02494e-14
9.2616e-14
1.24305e-13
1.78785e-13
1.58435e-13
1.27814e-13
0
0
0
0
0
0
0
1.66256e-12
7.35536e-11
0
0
0
0
0
0
0
0
0
0
0
0
0
0
0
0
0
0
0
0
0
0
0
0
0
0
0
0
0
0
0
0
0
0
0
0
4.95828e-07
1.76843e-06
4.12639e-06
7.50289e-06
1.14719e-05
1.39629e-05
8.3189e-06
0
0
0
0
0
0
0
3.90674e-08
5.4184e-07
5.13312e-07
3.35322e-07
1.8997e-07
1.03815e-07
8.13755e-08
1.11205e-07
1.51216e-07
1.09193e-07
0
0
0
0
0
0
9.18404e-08
1.27178e-07
1.01456e-07
7.38663e-08
5.67416e-08
4.67096e-08
4.06892e-08
3.65525e-08
3.36934e-08
3.25278e-08
3.24434e-08
3.16144e-08
2.91963e-08
2.62638e-08
2.36968e-08
2.15078e-08
1.97192e-08
1.83139e-08
1.61521e-08
1.11147e-08
1.97815e-09
0
0
0
0
0
0
0
0
0
0
0
0
0
0
0
0
0
0
0
0
0
0
0
0
0
0
0
0
0
0
0
0
0
0
0
0
0
0
0
0
0
0
0
0
0
0
0
0
0
0
0
0
0
0
0
0
0
0
0
0
0
0
0
0
0
0
0
0
0
0
0
0
0
0
0
0
0
0
0
0
0
0
0
0
0
0
0
0
0
0
0
7.98946e-09
6.69014e-09
5.8088e-09
0
0
0
0
0
0
0
0
0
0
0
0
0
0
0
0
0
0
0
0
1.97048e-09
1.17765e-08
1.88286e-08
1.86579e-08
8.02736e-09
0
0
0
0
0
0
0
0
0
0
5.28056e-08
7.1701e-07
1.72951e-06
2.75775e-06
3.02426e-06
1.17496e-06
0
0
0
0
0
0
0
0
0
0
1.4705e-07
1.24889e-07
5.81335e-08
2.55479e-08
6.83705e-08
1.27431e-07
1.50844e-07
1.53466e-07
1.2292e-07
3.79814e-08
0
0
0
9.40429e-09
1.51236e-07
1.30244e-07
8.07324e-08
5.22465e-08
4.11802e-08
3.66424e-08
3.34941e-08
3.04472e-08
2.72885e-08
2.51883e-08
2.55668e-08
2.72002e-08
2.69879e-08
2.41105e-08
2.09378e-08
1.92381e-08
1.82876e-08
1.7123e-08
1.59164e-08
1.47139e-08
1.15972e-08
3.85124e-09
0
0
0
0
0
0
0
0
0
0
0
0
0
0
0
0
0
0
0
0
0
0
0
0
0
0
0
0
0
0
0
0
0
0
0
0
0
0
0
0
0
0
0
0
0
0
0
0
0
0
0
0
0
0
0
0
0
0
0
0
0
0
0
0
0
0
0
0
0
0
0
0
0
0
0
0
0
0
0
0
0
0
0
0
0
0
0
0
0
0
1.36319e-07
5.77677e-08
1.99266e-08
1.10323e-08
2.70227e-09
1.23218e-09
8.85668e-10
3.4856e-10
1.10138e-09
3.84294e-09
8.94745e-09
1.6419e-08
2.61018e-08
3.59843e-08
4.4121e-08
4.9434e-08
5.31703e-08
5.69874e-08
6.24643e-08
6.99995e-08
7.77747e-08
8.20697e-08
8.73408e-08
9.44838e-08
1.00531e-07
1.00156e-07
8.71686e-08
5.55155e-08
3.33744e-09
0
0
0
0
1.81836e-08
5.89035e-08
3.84158e-08
0
0
0
0
0
0
0
0
0
0
0
0
0
0
0
0
0
0
0
0
0
0
0
1.03753e-07
1.79201e-07
1.79327e-07
1.77045e-07
2.92624e-07
4.90996e-09
0
0
7.81361e-08
2.06374e-07
1.19342e-07
5.04129e-08
2.38687e-08
1.93516e-08
2.16078e-08
2.37289e-08
2.44193e-08
2.35216e-08
2.11655e-08
1.94823e-08
2.08443e-08
2.36916e-08
2.37783e-08
2.02698e-08
1.65092e-08
1.51095e-08
1.51611e-08
1.46776e-08
1.34757e-08
1.27724e-08
1.15175e-08
5.84667e-09
0
0
0
0
0
0
0
0
0
0
0
0
0
0
0
0
0
0
0
0
0
0
0
0
0
0
0
0
0
0
0
0
0
0
0
0
0
0
0
0
0
0
0
0
0
0
0
0
0
0
0
0
0
0
0
0
0
0
0
0
0
0
0
0
0
0
0
0
0
0
0
0
0
0
0
0
0
0
0
0
0
0
0
0
0
0
0
0
0
8.93946e-07
2.0474e-07
5.52844e-08
2.33537e-08
1.40373e-08
9.22422e-09
1.23254e-08
1.79275e-08
2.68316e-08
3.75814e-08
4.96445e-08
6.72226e-08
8.44322e-08
1.0089e-07
1.14518e-07
1.25354e-07
1.32422e-07
1.39025e-07
1.49128e-07
1.62314e-07
1.78405e-07
1.93391e-07
2.00256e-07
2.05831e-07
2.06499e-07
1.95727e-07
1.68702e-07
1.20803e-07
5.00157e-08
0
0
0
5.57542e-08
2.05802e-07
3.74844e-07
4.83254e-07
3.74211e-07
0
0
0
0
0
0
0
0
0
0
0
3.87529e-07
1.02047e-06
7.14487e-07
3.35358e-07
1.34361e-07
2.34077e-08
0
0
0
0
0
3.51197e-08
1.47896e-07
1.80143e-07
2.05497e-07
4.07026e-07
0
0
0
9.76695e-08
2.06857e-07
8.75715e-08
2.53375e-08
6.35586e-09
6.38352e-09
1.14415e-08
1.51661e-08
1.72476e-08
1.92036e-08
2.02862e-08
1.90039e-08
1.72777e-08
1.85443e-08
2.16144e-08
2.15499e-08
1.7568e-08
1.36328e-08
1.24953e-08
1.28885e-08
1.21851e-08
1.024e-08
9.77572e-09
1.09385e-08
8.50543e-09
0
0
0
0
0
0
0
0
0
0
0
0
0
0
0
0
0
0
0
0
0
0
0
0
0
0
0
0
0
0
0
0
0
0
0
0
0
0
0
0
0
0
0
0
0
0
0
0
0
0
0
0
0
0
0
0
0
0
0
0
0
0
0
0
0
0
0
0
0
0
0
0
0
0
0
0
0
0
0
0
0
0
0
0
0
0
0
0
1.62573e-06
4.17625e-07
1.69402e-07
8.3671e-08
3.70866e-08
8.59446e-09
8.88048e-09
1.97219e-08
3.35848e-08
5.36947e-08
7.99011e-08
1.0238e-07
1.32037e-07
1.58796e-07
1.79645e-07
1.96611e-07
2.09523e-07
2.19503e-07
2.3088e-07
2.48971e-07
2.71597e-07
2.97137e-07
3.20358e-07
3.32539e-07
3.24745e-07
3.00166e-07
2.57802e-07
1.93627e-07
1.10837e-07
2.78665e-08
0
1.65743e-09
1.04988e-07
2.9591e-07
5.56909e-07
8.30372e-07
9.40622e-07
6.92274e-07
0
0
0
0
0
0
0
0
0
1.50789e-05
1.43724e-05
9.44e-06
5.08845e-06
2.23201e-06
8.51476e-07
2.12422e-07
0
0
0
0
0
1.41863e-08
1.04967e-07
1.4755e-07
2.47416e-07
6.27449e-07
0
0
0
2.13689e-07
1.75907e-07
5.51282e-08
1.46339e-08
4.76091e-09
7.44889e-09
1.32878e-08
1.6728e-08
1.67432e-08
1.61739e-08
1.77907e-08
2.01796e-08
2.00355e-08
1.86028e-08
1.94447e-08
2.12751e-08
1.99742e-08
1.60357e-08
1.32409e-08
1.2846e-08
1.24515e-08
9.74269e-09
6.19366e-09
6.01415e-09
9.70131e-09
1.01757e-08
8.44042e-10
0
0
0
0
0
0
0
0
0
0
0
0
0
0
0
0
0
0
0
0
0
0
0
0
0
0
0
0
0
0
0
0
0
0
0
0
0
0
0
0
0
0
0
0
0
0
0
0
0
0
0
0
0
0
0
0
0
0
0
0
0
0
0
0
0
0
0
0
0
0
0
0
0
0
0
0
0
0
0
0
0
0
0
0
0
0
2.98992e-06
1.34293e-06
7.31933e-07
3.21029e-07
1.28448e-07
3.42866e-08
0
1.90127e-08
4.12353e-08
5.5609e-08
7.7204e-08
1.11196e-07
1.36566e-07
1.68424e-07
1.97269e-07
2.198e-07
2.37688e-07
2.51315e-07
2.6246e-07
2.77814e-07
3.01025e-07
3.28043e-07
3.56816e-07
3.80428e-07
3.97964e-07
3.77252e-07
3.29595e-07
2.57006e-07
1.70177e-07
8.06158e-08
1.73852e-08
1.39837e-08
9.21986e-08
2.68114e-07
5.16626e-07
8.09456e-07
1.1108e-06
1.1568e-06
8.96889e-07
2.06323e-07
0
0
0
0
0
0
1.43017e-05
2.44791e-05
1.59067e-05
8.82857e-06
4.29735e-06
1.89143e-06
6.69174e-07
1.05689e-07
0
0
0
0
0
3.60667e-08
1.12867e-07
1.58677e-07
4.08602e-07
7.98555e-07
0
0
0
3.15781e-07
1.06608e-07
3.11027e-08
1.23354e-08
9.64492e-09
1.37051e-08
1.90201e-08
2.1639e-08
2.04458e-08
1.69915e-08
1.4742e-08
1.58474e-08
1.82974e-08
1.87958e-08
1.81778e-08
1.84355e-08
1.82738e-08
1.61147e-08
1.36731e-08
1.26929e-08
1.21288e-08
9.55639e-09
4.65294e-09
6.56713e-10
1.27511e-09
6.19e-09
7.89214e-09
4.31915e-11
0
0
0
0
0
0
0
0
0
0
0
0
0
0
0
0
0
0
0
0
0
0
0
0
0
0
0
0
0
0
0
0
0
0
0
0
0
0
0
0
0
0
0
0
0
0
0
0
0
0
0
0
0
0
0
0
0
0
0
0
0
0
0
0
0
0
0
0
0
0
0
0
0
0
0
0
0
0
0
0
0
0
0
0
0
2.03816e-06
2.98792e-06
1.49321e-06
7.24373e-07
3.02692e-07
9.80197e-08
1.22467e-08
0
3.74806e-08
5.42488e-08
6.34822e-08
8.36688e-08
1.16891e-07
1.4469e-07
1.72852e-07
2.02056e-07
2.2472e-07
2.41248e-07
2.54238e-07
2.64408e-07
2.79718e-07
3.02392e-07
3.2945e-07
3.54557e-07
3.78678e-07
3.89701e-07
3.70528e-07
3.18519e-07
2.37692e-07
1.46524e-07
6.30899e-08
1.52013e-08
3.20498e-08
1.28928e-07
3.10712e-07
5.68719e-07
8.36719e-07
1.09471e-06
1.10818e-06
9.66583e-07
5.64468e-07
0
0
0
0
0
2.68134e-06
5.51116e-06
4.85047e-06
3.12547e-06
1.63079e-06
6.39372e-07
1.42584e-07
0
0
0
0
0
0
8.1987e-08
1.57513e-07
2.50365e-07
8.78946e-07
5.80998e-07
0
0
1.52809e-07
2.18061e-07
5.58631e-08
2.20639e-08
1.44983e-08
1.38899e-08
1.65949e-08
1.96747e-08
2.09582e-08
2.01271e-08
1.75032e-08
1.43281e-08
1.30279e-08
1.42566e-08
1.60967e-08
1.69204e-08
1.68606e-08
1.63451e-08
1.50736e-08
1.3306e-08
1.20715e-08
1.08276e-08
8.37658e-09
3.72093e-09
0
0
0
3.87714e-09
5.42953e-09
0
0
0
0
0
0
0
0
0
0
0
0
0
0
0
0
0
0
0
0
0
0
0
0
0
0
0
0
0
0
0
0
0
0
0
0
0
0
0
0
0
0
0
0
0
0
0
0
0
0
0
0
0
0
0
0
0
0
0
0
0
0
0
0
0
0
0
0
0
0
0
0
0
0
0
0
0
0
0
0
0
0
0
0
0
6.87262e-07
2.58893e-06
2.17243e-06
1.13504e-06
7.73406e-07
4.64059e-07
2.22535e-07
1.43534e-07
8.89643e-08
1.80982e-08
4.65059e-08
5.94806e-08
7.51579e-08
1.0105e-07
1.25534e-07
1.49688e-07
1.78349e-07
1.97616e-07
2.12297e-07
2.21487e-07
2.31959e-07
2.40738e-07
2.60581e-07
2.81577e-07
3.04088e-07
3.23801e-07
3.27701e-07
3.14037e-07
2.70203e-07
2.01822e-07
1.18227e-07
4.28777e-08
0
4.84287e-09
7.46832e-08
2.1603e-07
3.93663e-07
6.19746e-07
7.45084e-07
8.22694e-07
8.31974e-07
6.29003e-07
3.44644e-07
2.20573e-09
0
0
4.72822e-07
9.07209e-07
9.20401e-07
6.33222e-07
2.6755e-07
2.42014e-08
0
0
3.73827e-08
1.04827e-07
1.00425e-07
3.2167e-08
1.60137e-08
1.1988e-07
2.35584e-07
5.65609e-07
1.41821e-06
4.36745e-07
1.24881e-07
1.38676e-07
3.68948e-07
1.22063e-07
4.48827e-08
2.88906e-08
2.40069e-08
2.09853e-08
1.91863e-08
1.85468e-08
1.8423e-08
1.84363e-08
1.8253e-08
1.74687e-08
1.68396e-08
1.74123e-08
1.81533e-08
1.85688e-08
1.87069e-08
1.82761e-08
1.71646e-08
1.52354e-08
1.28781e-08
9.94189e-09
6.72455e-09
2.5922e-09
0
0
0
5.82502e-10
4.88881e-09
4.94584e-09
0
0
0
0
0
0
0
0
0
0
0
0
0
0
0
0
0
0
0
0
0
0
0
0
0
0
0
0
0
0
0
0
0
0
0
0
0
0
0
0
0
0
0
0
0
0
0
0
0
0
0
0
0
0
0
0
0
0
0
0
0
0
0
0
0
0
0
0
0
0
0
0
0
0
0
0
0
0
0
0
0
0
0
0
2.06269e-07
9.61061e-07
1.91392e-06
5.51273e-07
4.09715e-07
2.47551e-07
0
0
0
0
2.30159e-08
3.89162e-08
4.65022e-08
5.67827e-08
7.38654e-08
9.21989e-08
1.12299e-07
1.33149e-07
1.48798e-07
1.59179e-07
1.64343e-07
1.70844e-07
1.75269e-07
1.88338e-07
2.00969e-07
2.19433e-07
2.31752e-07
2.34863e-07
2.23336e-07
1.92297e-07
1.42094e-07
7.73202e-08
1.4277e-08
0
0
0
5.09403e-08
1.50928e-07
2.47482e-07
3.42104e-07
4.18457e-07
4.02623e-07
3.53501e-07
2.56598e-07
1.39623e-07
3.57811e-08
5.76712e-09
2.27889e-08
1.38317e-08
0
0
0
1.44593e-09
8.52945e-08
1.69237e-07
2.02931e-07
1.55719e-07
4.24858e-08
1.1556e-08
1.66605e-07
4.42131e-07
1.30137e-06
9.57063e-07
4.22564e-07
2.97769e-07
3.96831e-07
2.97101e-07
9.84948e-08
5.81155e-08
4.69264e-08
4.16346e-08
3.62082e-08
3.14511e-08
2.86105e-08
2.72965e-08
2.66854e-08
2.62432e-08
2.56281e-08
2.52806e-08
2.59569e-08
2.61015e-08
2.47963e-08
2.37608e-08
2.30542e-08
2.21208e-08
2.00227e-08
1.62589e-08
1.0585e-08
4.98829e-09
8.36308e-10
0
0
0
1.22014e-09
5.05191e-09
7.81436e-09
6.12919e-09
2.20053e-09
0
0
0
0
0
0
0
0
0
0
0
0
0
0
0
0
0
0
0
0
0
0
0
0
0
0
0
0
0
0
0
0
0
0
0
0
0
0
0
0
0
0
0
0
0
0
0
0
0
0
0
0
0
0
0
0
0
0
0
0
0
0
0
0
0
0
0
0
0
0
0
0
0
0
0
0
0
0
0
0
0
0
0
1.7627e-07
3.37961e-07
0
0
0
0
0
0
0
9.2393e-09
1.97014e-08
2.56861e-08
2.97577e-08
3.55681e-08
4.53273e-08
5.44409e-08
6.84577e-08
7.94451e-08
9.06584e-08
9.39693e-08
9.78852e-08
9.80511e-08
9.9906e-08
1.04706e-07
1.09293e-07
1.18182e-07
1.24673e-07
1.25303e-07
1.15282e-07
9.40862e-08
6.00141e-08
1.61987e-08
0
0
0
0
0
0
0
1.42825e-08
2.72761e-08
2.36253e-08
7.51901e-10
0
0
0
0
0
0
0
5.20759e-08
1.43922e-07
2.04664e-07
2.38622e-07
2.28224e-07
1.55052e-07
2.4164e-08
7.84996e-08
3.63778e-07
8.75545e-07
9.46024e-07
5.5165e-07
4.04817e-07
4.00404e-07
5.01882e-07
1.98928e-07
1.06026e-07
7.90874e-08
6.87567e-08
6.15231e-08
5.39646e-08
4.8174e-08
4.53382e-08
4.39717e-08
4.24394e-08
4.02978e-08
3.74199e-08
3.50209e-08
3.44761e-08
3.45408e-08
3.23689e-08
2.97276e-08
2.81226e-08
2.71352e-08
2.53692e-08
2.13245e-08
1.35543e-08
4.45124e-09
0
0
0
0
2.99392e-09
7.10687e-09
1.05668e-08
1.15096e-08
8.9123e-09
5.79541e-09
3.039e-09
0
0
0
0
0
0
0
0
0
0
0
0
0
0
0
0
0
0
0
0
0
0
0
0
0
0
0
0
0
0
0
0
0
0
0
0
0
0
0
0
0
0
0
0
0
0
0
0
0
0
0
0
0
0
0
0
0
0
0
0
0
0
0
0
0
0
0
0
0
0
0
0
0
0
0
0
0
0
0
0
0
0
0
0
0
0
0
0
0
0
3.81456e-09
7.42282e-09
8.78345e-09
9.77166e-09
1.0699e-08
1.20872e-08
1.40484e-08
1.74083e-08
2.133e-08
2.46765e-08
2.62404e-08
2.67593e-08
2.58573e-08
2.40748e-08
2.22988e-08
2.0459e-08
1.93881e-08
1.90618e-08
1.88512e-08
1.54817e-08
7.18534e-09
0
0
0
0
0
0
0
0
0
0
0
0
0
0
0
0
0
0
0
1.02934e-07
2.0181e-07
2.51978e-07
2.66993e-07
2.69557e-07
2.50212e-07
1.78379e-07
1.11924e-07
2.44401e-07
4.0151e-07
4.76519e-07
3.99638e-07
3.46994e-07
3.47493e-07
4.07621e-07
3.74145e-07
1.85309e-07
1.2672e-07
1.01967e-07
8.91071e-08
7.79365e-08
6.7368e-08
6.1142e-08
5.96417e-08
5.91109e-08
5.69222e-08
5.3278e-08
4.83948e-08
4.32738e-08
4.07082e-08
4.05101e-08
3.8861e-08
3.53873e-08
3.2681e-08
3.11295e-08
2.9605e-08
2.62514e-08
1.82178e-08
6.37145e-09
0
0
0
0
4.30201e-09
1.01289e-08
1.38192e-08
1.63535e-08
1.55506e-08
1.23715e-08
7.8504e-09
2.33806e-09
0
0
0
0
0
0
0
0
0
0
0
0
0
0
0
0
0
0
0
0
0
0
0
0
0
0
0
0
0
0
0
0
0
0
0
0
0
0
0
0
0
0
0
0
0
0
0
0
0
0
0
0
0
0
0
0
0
0
0
0
0
0
0
0
0
0
0
0
0
0
0
0
0
0
0
0
0
0
0
0
0
0
0
0
0
9.84946e-09
5.55645e-10
0
0
0
0
0
0
0
0
0
0
0
0
0
0
0
0
0
0
0
0
0
0
0
0
0
0
0
0
0
0
0
0
0
0
0
0
0
0
0
0
5.05338e-08
1.41244e-07
2.34809e-07
2.95401e-07
3.09481e-07
3.02885e-07
3.09928e-07
3.0005e-07
1.46903e-07
8.61243e-08
1.02886e-07
1.2651e-07
1.67593e-07
2.0477e-07
2.31524e-07
2.60216e-07
4.19033e-07
2.89318e-07
1.92829e-07
1.44262e-07
1.17967e-07
1.02178e-07
8.92039e-08
7.83115e-08
7.27781e-08
7.25282e-08
7.24267e-08
6.97043e-08
6.48785e-08
5.80738e-08
5.03282e-08
4.56419e-08
4.45952e-08
4.35784e-08
4.02866e-08
3.70026e-08
3.49739e-08
3.33663e-08
3.05732e-08
2.34428e-08
1.09464e-08
0
0
0
0
4.8071e-09
1.33212e-08
1.75505e-08
2.07882e-08
2.16755e-08
1.91468e-08
1.34183e-08
4.73533e-09
0
0
0
0
0
0
0
0
0
0
0
0
0
0
0
0
0
0
0
0
0
0
0
0
0
0
0
0
0
0
0
0
0
0
0
0
0
0
0
0
0
0
0
0
0
0
0
0
0
0
0
0
0
0
0
0
0
0
0
0
0
0
0
0
0
0
0
0
0
0
0
0
0
0
0
0
0
0
0
0
0
0
0
0
0
0
0
0
0
0
0
0
0
0
0
0
0
0
0
0
0
0
0
0
0
0
0
0
0
0
0
0
0
0
0
0
0
0
0
0
0
0
0
0
0
1.34804e-08
9.60038e-08
1.75378e-07
2.55799e-07
3.22944e-07
3.48823e-07
3.29879e-07
3.07526e-07
3.23181e-07
1.57627e-07
7.19522e-08
4.08063e-08
3.41244e-08
4.6021e-08
8.20302e-08
1.15926e-07
1.47503e-07
2.73196e-07
3.8597e-07
2.58675e-07
1.97481e-07
1.50492e-07
1.23818e-07
1.0813e-07
9.70134e-08
8.88203e-08
8.5345e-08
8.57326e-08
8.56792e-08
8.24898e-08
7.66509e-08
6.75941e-08
5.74902e-08
5.09539e-08
4.84135e-08
4.72349e-08
4.43054e-08
4.08581e-08
3.86426e-08
3.71929e-08
3.44182e-08
2.82816e-08
1.7044e-08
3.85538e-09
0
0
0
4.70408e-09
1.62362e-08
2.15433e-08
2.48056e-08
2.68976e-08
2.55058e-08
1.93736e-08
7.77313e-09
0
0
0
0
0
0
0
0
0
0
0
0
0
0
0
0
0
0
0
0
0
0
0
0
0
0
0
0
0
0
0
0
0
0
0
0
0
0
0
0
0
0
0
0
0
0
0
0
0
0
0
0
0
0
0
0
0
0
0
0
0
0
0
0
0
0
0
0
0
0
0
0
0
0
0
0
0
0
0
0
1.40302e-07
1.97268e-07
0
0
0
0
0
0
0
0
0
0
0
0
0
0
0
0
0
0
0
0
0
0
0
0
0
0
0
0
0
0
0
0
0
0
0
0
0
0
0
0
0
0
0
7.4938e-08
1.69575e-07
2.53561e-07
3.29942e-07
3.66196e-07
3.29233e-07
2.70035e-07
3.09583e-07
1.69746e-07
9.52439e-08
5.251e-08
2.71872e-08
1.8159e-08
2.57191e-08
4.53499e-08
7.18471e-08
1.61508e-07
4.27588e-07
3.04041e-07
2.35341e-07
1.87945e-07
1.47256e-07
1.24791e-07
1.13885e-07
1.0626e-07
9.93756e-08
9.61328e-08
9.60195e-08
9.58448e-08
9.24761e-08
8.64199e-08
7.65685e-08
6.52507e-08
5.73416e-08
5.33841e-08
5.14909e-08
4.85336e-08
4.49331e-08
4.24529e-08
4.09516e-08
3.80832e-08
3.25299e-08
2.33165e-08
1.11983e-08
6.82353e-10
0
0
4.62984e-09
1.85583e-08
2.55607e-08
2.83703e-08
3.09746e-08
3.09053e-08
2.51595e-08
1.14437e-08
0
0
0
0
0
0
0
0
0
0
0
0
0
0
0
0
0
0
0
0
0
0
0
0
0
0
0
0
0
0
0
0
0
0
0
0
0
0
0
0
0
0
0
0
0
0
0
0
0
0
0
0
0
0
0
0
0
0
0
0
0
0
0
0
0
0
0
0
0
0
0
0
0
0
0
0
0
0
0
6.87366e-08
7.6458e-08
3.79806e-08
0
0
0
0
0
0
0
0
0
0
0
0
0
0
0
0
0
0
0
0
0
0
0
0
0
0
0
0
0
0
0
0
0
0
0
0
0
0
0
0
0
0
0
1.26993e-07
2.4437e-07
3.39934e-07
3.86507e-07
3.27654e-07
2.59206e-07
3.3364e-07
2.11744e-07
1.30034e-07
7.90003e-08
4.48969e-08
2.33234e-08
1.57177e-08
2.24343e-08
4.2618e-08
1.09758e-07
3.72075e-07
3.1066e-07
2.47795e-07
2.04433e-07
1.59572e-07
1.36464e-07
1.24404e-07
1.18704e-07
1.13628e-07
1.07341e-07
1.03217e-07
1.01807e-07
1.00786e-07
9.73638e-08
9.17146e-08
8.26995e-08
7.15017e-08
6.32486e-08
5.85444e-08
5.5926e-08
5.27182e-08
4.89879e-08
4.63291e-08
4.45736e-08
4.1411e-08
3.59829e-08
2.85955e-08
1.94414e-08
8.66085e-09
1.24944e-09
0
5.41437e-09
1.99459e-08
2.9019e-08
3.11688e-08
3.34994e-08
3.45388e-08
2.97549e-08
1.49268e-08
0
0
0
0
0
0
0
0
0
0
0
0
0
0
0
0
0
0
0
0
0
0
0
0
0
0
0
0
0
0
0
0
0
0
0
0
0
0
0
0
0
0
0
0
0
0
0
0
0
0
0
0
0
0
0
0
0
0
0
0
0
0
0
0
0
0
0
0
0
0
0
0
0
0
0
0
0
0
0
1.37049e-08
3.45634e-08
3.01267e-08
6.36899e-09
0
0
0
0
0
0
0
0
0
0
0
0
0
0
0
0
0
0
0
0
0
0
0
0
0
0
0
0
0
0
0
0
0
0
0
0
0
0
0
0
0
2.12559e-09
1.72283e-07
3.07575e-07
3.80447e-07
3.23712e-07
2.69907e-07
3.13212e-07
2.46697e-07
1.7817e-07
1.16966e-07
7.05195e-08
4.10291e-08
2.87018e-08
3.00206e-08
4.91198e-08
1.17976e-07
2.73479e-07
2.49993e-07
2.16661e-07
1.9492e-07
1.6171e-07
1.4154e-07
1.29407e-07
1.24592e-07
1.2079e-07
1.15629e-07
1.09067e-07
1.04414e-07
1.01876e-07
1.00256e-07
9.70792e-08
9.22134e-08
8.4512e-08
7.44367e-08
6.66327e-08
6.16706e-08
5.84191e-08
5.47888e-08
5.09113e-08
4.82213e-08
4.64842e-08
4.30816e-08
3.74795e-08
3.14516e-08
2.58457e-08
1.73994e-08
8.62871e-09
4.55722e-09
7.41211e-09
1.99271e-08
3.05312e-08
3.2142e-08
3.35774e-08
3.51145e-08
3.13531e-08
1.65845e-08
0
0
0
0
0
0
0
0
0
0
0
0
0
0
0
0
0
0
0
0
0
0
0
0
0
0
0
0
0
0
0
0
0
0
0
0
0
0
0
0
0
0
0
0
0
0
0
0
0
0
0
0
0
0
0
0
0
0
0
0
0
0
0
0
0
0
0
0
0
0
0
0
0
0
0
0
0
0
0
0
4.73657e-09
1.32758e-08
1.61216e-08
5.81775e-09
0
0
0
0
0
0
0
0
0
0
0
0
0
0
0
0
0
0
0
0
0
0
0
0
0
0
0
0
0
0
0
0
0
0
0
0
0
0
0
0
0
1.56623e-07
3.14388e-07
2.68725e-07
2.3774e-07
2.5342e-07
2.41645e-07
2.15952e-07
1.71479e-07
1.07533e-07
6.73039e-08
6.30833e-08
9.02364e-08
1.48276e-07
2.41228e-07
2.14126e-07
1.89312e-07
1.76757e-07
1.69806e-07
1.57779e-07
1.41781e-07
1.2845e-07
1.24722e-07
1.23666e-07
1.20431e-07
1.15203e-07
1.08425e-07
1.0292e-07
9.96677e-08
9.78514e-08
9.53935e-08
9.16839e-08
8.56327e-08
7.69986e-08
6.99827e-08
6.51069e-08
6.13367e-08
5.70564e-08
5.27926e-08
4.98601e-08
4.7813e-08
4.40815e-08
3.83657e-08
3.33354e-08
3.07493e-08
2.58993e-08
1.76759e-08
1.15896e-08
1.12597e-08
1.99329e-08
3.09025e-08
3.25605e-08
3.28686e-08
3.41532e-08
3.07008e-08
1.63313e-08
0
0
0
0
0
0
0
0
0
0
0
0
0
0
0
0
0
0
0
0
0
0
0
0
0
0
0
0
0
0
0
0
0
0
0
0
0
0
0
0
0
0