/*--------------------------------*- C++ -*----------------------------------*\
  =========                 |
  \\      /  F ield         | OpenFOAM: The Open Source CFD Toolbox
   \\    /   O peration     | Website:  https://openfoam.org
    \\  /    A nd           | Version:  7
     \\/     M anipulation  |
\*---------------------------------------------------------------------------*/
FoamFile
{
    version     2.0;
    format      ascii;
    class       volVectorField;
    location    "0.03";
    object      UMean;
}
// * * * * * * * * * * * * * * * * * * * * * * * * * * * * * * * * * * * * * //

dimensions      [0 1 -1 0 0 0 0];

internalField   nonuniform List<vector> 
12225
(
(4.78248 0.164001 0)
(4.19933 0.110065 0)
(3.7504 0.095726 0)
(3.39687 0.0782593 0)
(3.08755 0.064066 0)
(2.80882 0.053346 0)
(2.56134 0.0437857 0)
(2.34798 0.0351485 0)
(2.17197 0.0259021 0)
(2.0307 0.018637 0)
(1.92757 0.00959982 0)
(1.85115 0.00612753 0)
(1.81122 -0.00435544 0)
(1.78539 0.000241188 0)
(1.795 -0.0194385 0)
(1.81096 0.00315131 0)
(1.86603 -0.0499743 0)
(1.94663 0.0042534 0)
(5.0199 0.111919 0)
(4.88169 0.0712032 0)
(4.76955 0.085602 0)
(4.68651 0.083043 0)
(4.60407 0.0790905 0)
(4.51542 0.0764996 0)
(4.42214 0.0737031 0)
(4.33076 0.0683436 0)
(4.24316 0.0619948 0)
(4.16583 0.0522688 0)
(4.09573 0.0440854 0)
(4.04179 0.0311165 0)
(3.99354 0.0244586 0)
(3.9683 0.00804177 0)
(3.94174 0.00607162 0)
(3.95043 -0.0190802 0)
(3.94839 -0.0223174 0)
(3.99394 -0.0793522 0)
(5.00167 0.171656 0)
(4.88933 0.120293 0)
(4.81426 0.125833 0)
(4.78633 0.117619 0)
(4.77532 0.107242 0)
(4.76613 0.100318 0)
(4.7563 0.0941008 0)
(4.74637 0.0873225 0)
(4.7372 0.0776874 0)
(4.72847 0.0678197 0)
(4.7213 0.0543114 0)
(4.71512 0.0436958 0)
(4.71286 0.0272579 0)
(4.713 0.0186765 0)
(4.72089 -0.00221937 0)
(4.73253 -0.0112327 0)
(4.75544 -0.0451588 0)
(4.77906 -0.0824864 0)
(4.99675 0.185988 0)
(4.90716 0.116639 0)
(4.83434 0.113022 0)
(4.8033 0.10595 0)
(4.79439 0.0955053 0)
(4.79209 0.0875427 0)
(4.79277 0.0816763 0)
(4.79689 0.0749109 0)
(4.80428 0.0668818 0)
(4.81427 0.0565074 0)
(4.82582 0.0457633 0)
(4.83872 0.0327535 0)
(4.85314 0.0207141 0)
(4.86954 0.00543073 0)
(4.88977 -0.00900955 0)
(4.91274 -0.0299567 0)
(4.94192 -0.0569041 0)
(4.96834 -0.0956591 0)
(4.99304 0.214029 0)
(4.92641 0.140706 0)
(4.86165 0.128909 0)
(4.82864 0.121067 0)
(4.81771 0.1085 0)
(4.81461 0.0972391 0)
(4.81481 0.0880573 0)
(4.81837 0.0792658 0)
(4.82568 0.0689897 0)
(4.83601 0.0576731 0)
(4.8487 0.0446658 0)
(4.86299 0.0313852 0)
(4.87919 0.0163105 0)
(4.89726 0.00077489 0)
(4.91829 -0.0177362 0)
(4.94161 -0.0401734 0)
(4.96752 -0.0685606 0)
(4.99082 -0.109822 0)
(4.98764 0.228149 0)
(4.93925 0.153324 0)
(4.88311 0.132779 0)
(4.85023 0.122645 0)
(4.83863 0.108777 0)
(4.83609 0.0951173 0)
(4.83687 0.0837961 0)
(4.84041 0.0734013 0)
(4.84721 0.0624511 0)
(4.85687 0.0502065 0)
(4.86887 0.0368395 0)
(4.88242 0.0222898 0)
(4.89775 0.00667431 0)
(4.91443 -0.0105794 0)
(4.93341 -0.0303275 0)
(4.95333 -0.0539707 0)
(4.97451 -0.083641 0)
(4.99239 -0.120996 0)
(4.99432 0.243527 0)
(4.96108 0.170171 0)
(4.91403 0.141839 0)
(4.88238 0.128248 0)
(4.86989 0.113361 0)
(4.86721 0.0982029 0)
(4.868 0.0848405 0)
(4.87104 0.0727663 0)
(4.8769 0.0604836 0)
(4.88548 0.0472298 0)
(4.89639 0.0328581 0)
(4.90883 0.0173726 0)
(4.9229 0.000682425 0)
(4.93798 -0.017854 0)
(4.95475 -0.0386913 0)
(4.97155 -0.0634622 0)
(4.98886 -0.0926198 0)
(5.00227 -0.127592 0)
(5.00045 0.253084 0)
(4.9786 0.18474 0)
(4.94019 0.150917 0)
(4.91045 0.133247 0)
(4.89706 0.116973 0)
(4.89396 0.100263 0)
(4.89489 0.0848314 0)
(4.8979 0.0707815 0)
(4.90336 0.0570589 0)
(4.91133 0.0426964 0)
(4.92156 0.0273462 0)
(4.93317 0.0108635 0)
(4.94612 -0.0068914 0)
(4.95969 -0.0264334 0)
(4.97437 -0.0482659 0)
(4.98853 -0.0733335 0)
(5.0026 -0.101877 0)
(5.01281 -0.134507 0)
(5.00139 0.258677 0)
(4.98959 0.194643 0)
(4.96023 0.157295 0)
(4.93423 0.135833 0)
(4.92133 0.118222 0)
(4.91828 0.100625 0)
(4.91947 0.0837953 0)
(4.92252 0.0681665 0)
(4.92746 0.0531001 0)
(4.93449 0.0377299 0)
(4.94358 0.0215731 0)
(4.95407 0.0043107 0)
(4.96575 -0.0141934 0)
(4.97783 -0.0343981 0)
(4.99046 -0.056627 0)
(5.00217 -0.081527 0)
(5.01328 -0.109087 0)
(5.02089 -0.139451 0)
(4.99977 0.268504 0)
(4.99412 0.207955 0)
(4.97142 0.168349 0)
(4.94868 0.143011 0)
(4.93638 0.122938 0)
(4.93347 0.103735 0)
(4.93516 0.0852705 0)
(4.93865 0.067959 0)
(4.94355 0.0513967 0)
(4.95007 0.0347946 0)
(4.95828 0.0175715 0)
(4.96766 -0.000623527 0)
(4.97793 -0.0199737 0)
(4.98838 -0.0407954 0)
(4.99894 -0.0632976 0)
(5.00841 -0.0878415 0)
(5.01692 -0.114301 0)
(5.02245 -0.142606 0)
(4.99059 0.267375 0)
(4.98929 0.212287 0)
(4.97223 0.172215 0)
(4.9534 0.144312 0)
(4.94242 0.122313 0)
(4.93946 0.102032 0)
(4.941 0.0826009 0)
(4.94448 0.0641583 0)
(4.9492 0.0465365 0)
(4.95516 0.0290644 0)
(4.96244 0.0111525 0)
(4.97055 -0.00759043 0)
(4.97931 -0.0273515 0)
(4.98789 -0.0483537 0)
(4.99644 -0.0707051 0)
(5.00368 -0.0946041 0)
(5.01024 -0.119834 0)
(5.01386 -0.146282 0)
(5.01218 0.273513 0)
(5.01226 0.221427 0)
(4.99851 0.180773 0)
(4.9822 0.150607 0)
(4.972 0.126435 0)
(4.96874 0.104646 0)
(4.96973 0.0839568 0)
(4.97261 0.0642975 0)
(4.97659 0.0454984 0)
(4.98156 0.0270646 0)
(4.98763 0.00844538 0)
(4.99439 -0.01081 0)
(5.00171 -0.0309197 0)
(5.00876 -0.0520666 0)
(5.01564 -0.0742766 0)
(5.02115 -0.0976231 0)
(5.02599 -0.121853 0)
(5.02814 -0.146828 0)
(4.99702 0.275552 0)
(5.00207 0.225176 0)
(4.9934 0.184296 0)
(4.98092 0.15248 0)
(4.9728 0.126544 0)
(4.97044 0.10356 0)
(4.97189 0.08203 0)
(4.9751 0.0615559 0)
(4.97916 0.0419071 0)
(4.98387 0.0226921 0)
(4.98934 0.00343415 0)
(4.99527 -0.0162508 0)
(5.00158 -0.0365515 0)
(5.00753 -0.0576184 0)
(5.01319 -0.0794335 0)
(5.01751 -0.102039 0)
(5.02116 -0.125185 0)
(5.02238 -0.148801 0)
(5.01196 0.276783 0)
(5.01864 0.230212 0)
(5.01218 0.190375 0)
(5.00141 0.157515 0)
(4.9941 0.129767 0)
(4.99182 0.10505 0)
(4.99304 0.0821501 0)
(4.99602 0.0605974 0)
(4.99979 0.040138 0)
(5.00391 0.0203171 0)
(5.00839 0.000643788 0)
(5.01298 -0.0193113 0)
(5.01777 -0.0397344 0)
(5.0221 -0.0607161 0)
(5.02623 -0.0821536 0)
(5.02905 -0.104032 0)
(5.03146 -0.126089 0)
(5.03156 -0.148294 0)
(5.01021 0.275698 0)
(5.01845 0.231919 0)
(5.01563 0.192564 0)
(5.00933 0.15855 0)
(5.00543 0.129235 0)
(5.00481 0.103255 0)
(5.00635 0.0794861 0)
(5.00895 0.0572865 0)
(5.01214 0.0362248 0)
(5.01572 0.0158582 0)
(5.01968 -0.00422537 0)
(5.02366 -0.0243686 0)
(5.02756 -0.0447125 0)
(5.03076 -0.0653362 0)
(5.0335 -0.0861264 0)
(5.0349 -0.107079 0)
(5.03589 -0.127925 0)
(5.03492 -0.148717 0)
(5.01225 0.279945 0)
(5.02293 0.236862 0)
(5.02297 0.197279 0)
(5.01908 0.16242 0)
(5.01689 0.131984 0)
(5.01721 0.104852 0)
(5.01915 0.0799744 0)
(5.02197 0.0566914 0)
(5.02531 0.0346495 0)
(5.02885 0.01355 0)
(5.03248 -0.0068954 0)
(5.03584 -0.0269768 0)
(5.03889 -0.0468639 0)
(5.04113 -0.0666928 0)
(5.04284 -0.0864359 0)
(5.04332 -0.106131 0)
(5.04342 -0.125608 0)
(5.04183 -0.144915 0)
(5.00844 0.272015 0)
(5.01942 0.231321 0)
(5.02072 0.193008 0)
(5.01886 0.158264 0)
(5.01891 0.127347 0)
(5.0212 0.0996006 0)
(5.02451 0.0741409 0)
(5.02801 0.0503477 0)
(5.03142 0.0279073 0)
(5.03462 0.0066115 0)
(5.03759 -0.0137417 0)
(5.04011 -0.0334304 0)
(5.0422 -0.0526608 0)
(5.04352 -0.0716439 0)
(5.04435 -0.0903646 0)
(5.04411 -0.108881 0)
(5.04352 -0.126967 0)
(5.04148 -0.144737 0)
(5.01383 0.27927 0)
(5.0248 0.235397 0)
(5.02729 0.195545 0)
(5.02764 0.159634 0)
(5.0302 0.127527 0)
(5.03455 0.0987904 0)
(5.03916 0.0727532 0)
(5.0432 0.0488314 0)
(5.0465 0.0266408 0)
(5.04908 0.00588617 0)
(5.05119 -0.0137049 0)
(5.05275 -0.0324247 0)
(5.05384 -0.050497 0)
(5.05416 -0.0681076 0)
(5.05396 -0.0852924 0)
(5.05272 -0.10211 0)
(5.05114 -0.118441 0)
(5.04821 -0.134366 0)
(5.0056 0.273323 0)
(5.02008 0.227813 0)
(5.0262 0.185809 0)
(5.02959 0.148548 0)
(5.03487 0.116045 0)
(5.04178 0.0875236 0)
(5.04856 0.0620109 0)
(5.05423 0.0386728 0)
(5.05866 0.0169695 0)
(5.06199 -0.00340997 0)
(5.0645 -0.0226309 0)
(5.06617 -0.040837 0)
(5.06715 -0.0581107 0)
(5.06719 -0.0745849 0)
(5.06657 -0.0902903 0)
(5.06488 -0.105376 0)
(5.06275 -0.119775 0)
(5.05936 -0.133699 0)
(4.99988 0.271376 0)
(5.01536 0.221907 0)
(5.02498 0.177191 0)
(5.03339 0.138515 0)
(5.04332 0.105762 0)
(5.05362 0.0780353 0)
(5.06259 0.0541914 0)
(5.06967 0.0331619 0)
(5.07513 0.0141146 0)
(5.07931 -0.00350551 0)
(5.08246 -0.0200274 0)
(5.08454 -0.0356627 0)
(5.08566 -0.0505222 0)
(5.08566 -0.0646841 0)
(5.08486 -0.0781604 0)
(5.08297 -0.0910153 0)
(5.08059 -0.103233 0)
(5.07705 -0.11494 0)
(5.0017 0.269329 0)
(5.01924 0.211959 0)
(5.03266 0.16313 0)
(5.04557 0.123261 0)
(5.0597 0.0907447 0)
(5.07349 0.0633635 0)
(5.08534 0.0394474 0)
(5.09478 0.0181332 0)
(5.10208 -0.000964499 0)
(5.10754 -0.0181523 0)
(5.11141 -0.0337645 0)
(5.11368 -0.048142 0)
(5.11459 -0.0615139 0)
(5.11411 -0.0740689 0)
(5.11271 -0.0858759 0)
(5.1101 -0.0970834 0)
(5.10707 -0.107664 0)
(5.10279 -0.117828 0)
(5.01786 0.264019 0)
(5.04106 0.199075 0)
(5.06167 0.146906 0)
(5.08068 0.107892 0)
(5.09836 0.0785249 0)
(5.11356 0.055015 0)
(5.12592 0.0350079 0)
(5.13598 0.0174124 0)
(5.14434 0.00174416 0)
(5.15108 -0.0123756 0)
(5.15615 -0.0253164 0)
(5.15942 -0.0373801 0)
(5.16114 -0.0487544 0)
(5.16137 -0.0595528 0)
(5.16057 -0.0698167 0)
(5.15858 -0.0796094 0)
(5.15608 -0.0889469 0)
(5.15236 -0.0979108 0)
(5.00735 0.257375 0)
(5.03888 0.181096 0)
(5.07027 0.1249 0)
(5.0986 0.0856478 0)
(5.12264 0.0560917 0)
(5.14164 0.0313433 0)
(5.15608 0.00992636 0)
(5.16721 -0.00808592 0)
(5.17602 -0.0229171 0)
(5.18284 -0.0353737 0)
(5.18777 -0.0463328 0)
(5.19081 -0.0564214 0)
(5.19223 -0.0659165 0)
(5.19216 -0.0749359 0)
(5.191 -0.083471 0)
(5.18865 -0.0915924 0)
(5.18561 -0.0992609 0)
(5.18141 -0.10662 0)
(5.00204 0.243743 0)
(5.04339 0.159262 0)
(5.0861 0.107342 0)
(5.12168 0.0772205 0)
(5.14857 0.0557599 0)
(5.16871 0.0362701 0)
(5.18485 0.0182181 0)
(5.19853 0.00254776 0)
(5.20978 -0.0105231 0)
(5.21828 -0.0215897 0)
(5.22406 -0.0314046 0)
(5.22742 -0.0404358 0)
(5.22893 -0.0488677 0)
(5.22882 -0.0567883 0)
(5.22756 -0.0642689 0)
(5.22501 -0.0713882 0)
(5.22181 -0.0781874 0)
(5.21742 -0.0847195 0)
(5.01984 0.227099 0)
(5.07677 0.123182 0)
(5.13653 0.0667802 0)
(5.18132 0.0367911 0)
(5.21063 0.0148027 0)
(5.23061 -0.00460474 0)
(5.24646 -0.0203977 0)
(5.25986 -0.0321985 0)
(5.27066 -0.0412303 0)
(5.27851 -0.0489025 0)
(5.28364 -0.0559667 0)
(5.28654 -0.0626474 0)
(5.2878 -0.068965 0)
(5.28756 -0.0749677 0)
(5.28622 -0.0806895 0)
(5.2836 -0.0862161 0)
(5.2803 -0.0915234 0)
(5.27576 -0.0966998 0)
(5.01658 0.209706 0)
(5.09689 0.109553 0)
(5.17582 0.0723592 0)
(5.22821 0.0541708 0)
(5.25927 0.0341871 0)
(5.28113 0.0141407 0)
(5.29974 -0.00189551 0)
(5.31535 -0.0133751 0)
(5.32705 -0.0220392 0)
(5.33493 -0.0294537 0)
(5.33988 -0.0362464 0)
(5.34268 -0.042557 0)
(5.34388 -0.0484277 0)
(5.34357 -0.0539445 0)
(5.34205 -0.0591817 0)
(5.33919 -0.0642151 0)
(5.33552 -0.0690572 0)
(5.33065 -0.0737497 0)
(5.01237 0.158435 0)
(5.13013 0.0332274 0)
(5.22739 0.0039448 0)
(5.27975 -0.00694003 0)
(5.30714 -0.021941 0)
(5.32809 -0.0350522 0)
(5.34737 -0.0436276 0)
(5.36364 -0.0493871 0)
(5.37564 -0.054208 0)
(5.3837 -0.0588038 0)
(5.38888 -0.0631967 0)
(5.39193 -0.0673175 0)
(5.39335 -0.0711513 0)
(5.3932 -0.0747828 0)
(5.39182 -0.0782521 0)
(5.38911 -0.0816512 0)
(5.38565 -0.0849675 0)
(5.38103 -0.0882876 0)
(5.01055 0.151027 0)
(5.17723 0.0552928 0)
(5.29796 0.0409387 0)
(5.35278 0.0237063 0)
(5.38073 0.00382233 0)
(5.40456 -0.0103651 0)
(5.42638 -0.0190034 0)
(5.44384 -0.0252251 0)
(5.45614 -0.0306815 0)
(5.46404 -0.0357111 0)
(5.46869 -0.0402807 0)
(5.47091 -0.0444593 0)
(5.47113 -0.0483108 0)
(5.46959 -0.0519761 0)
(5.46648 -0.0554672 0)
(5.46187 -0.0589125 0)
(5.45605 -0.0622568 0)
(5.44895 -0.065637 0)
(5.0151 0.0205906 0)
(5.23214 -0.0512789 0)
(5.35624 -0.0349936 0)
(5.40464 -0.0440111 0)
(5.42927 -0.0545681 0)
(5.44755 -0.0595192 0)
(5.45957 -0.0615383 0)
(5.46359 -0.0630476 0)
(5.45977 -0.0646286 0)
(5.4495 -0.0662177 0)
(5.43413 -0.0677326 0)
(5.41482 -0.0692019 0)
(5.39204 -0.0706063 0)
(5.36656 -0.0719883 0)
(5.33829 -0.0732847 0)
(5.30823 -0.0745872 0)
(5.2757 -0.0758251 0)
(5.24246 -0.0771717 0)
(4.9688 0.0674058 0)
(5.10638 -0.00212139 0)
(5.07489 -0.00223404 0)
(4.95602 -0.0122617 0)
(4.82431 -0.0197611 0)
(4.69613 -0.0227709 0)
(4.57125 -0.0239414 0)
(4.44795 -0.0246749 0)
(4.32592 -0.0252195 0)
(4.20582 -0.025581 0)
(4.08828 -0.0257952 0)
(3.97381 -0.0259181 0)
(3.86232 -0.0259781 0)
(3.75412 -0.0260094 0)
(3.64863 -0.0260121 0)
(3.5467 -0.0260372 0)
(3.44681 -0.0260589 0)
(3.35119 -0.0261784 0)
(-0.00103061 -0.00792234 3.41491e-21)
(-0.00479701 -0.0122521 -3.39339e-21)
(-0.00690514 -0.0116946 0)
(-0.0113313 -0.00983542 0)
(-0.017474 -0.00753071 0)
(-0.0258122 -0.00491433 3.29701e-21)
(-0.0363541 -0.00206119 0)
(-0.0492339 0.000918331 0)
(-0.064486 0.00394335 0)
(-0.0821786 0.00695171 0)
(-0.102381 0.00992534 -3.17296e-21)
(-0.125162 0.0128656 0)
(-0.1506 0.0157782 0)
(-0.178786 0.0186835 0)
(-0.209817 0.0216061 0)
(-0.243793 0.0245708 -3.04703e-21)
(-0.280788 0.0276449 0)
(-0.320839 0.0309153 0)
(-0.363972 0.0344622 0)
(-0.410161 0.0383162 0)
(-0.459297 0.0423569 0)
(-0.51111 0.0463378 0)
(-0.565122 0.0498896 0)
(-0.620687 0.0526549 -2.84521e-21)
(-0.676993 0.0543883 2.81963e-21)
(-0.733245 0.0550812 -2.79384e-21)
(-0.788635 0.0548211 -2.76786e-21)
(-0.84235 0.0536764 0)
(-0.893641 0.0516886 0)
(-0.941768 0.0489166 2.68958e-21)
(-0.986009 0.0453925 2.66377e-21)
(-1.0257 0.0411914 0)
(-1.06017 0.0363931 0)
(-1.08884 0.0310729 2.58973e-21)
(-1.11118 0.025332 0)
(-1.12671 0.0192594 0)
(-1.13503 0.0129544 -2.5255e-21)
(-1.13581 0.00650268 0)
(-1.12881 -2.96142e-06 -2.49114e-21)
(-1.11387 -0.00647636 -4.95407e-21)
(-1.09093 -0.0128295 0)
(-1.06004 -0.0189753 0)
(-1.02136 -0.0248247 0)
(-0.975122 -0.0302878 0)
(-0.921676 -0.0352908 0)
(-0.86147 -0.0397698 -4.87723e-21)
(-0.795112 -0.0437104 -4.87798e-21)
(-0.723243 -0.0471043 -4.88142e-21)
(-0.646501 -0.0499756 0)
(-0.565535 -0.0523198 4.89379e-21)
(-0.480978 -0.0541554 0)
(-0.393519 -0.0555013 -4.90906e-21)
(-0.303791 -0.0563759 -4.91621e-21)
(-0.212423 -0.0568086 0)
(-0.120023 -0.0568266 0)
(-0.0271556 -0.0564766 0)
(0.0656906 -0.0557824 -4.92959e-21)
(0.158033 -0.0548192 0)
(0.249444 -0.0535952 0)
(0.339571 -0.0521619 0)
(0.428088 -0.0505372 0)
(0.514695 -0.0487738 0)
(0.599134 -0.046879 0)
(0.681195 -0.0448838 0)
(0.760664 -0.042798 0)
(0.837371 -0.0406598 4.81078e-21)
(0.911181 -0.0384755 0)
(0.981975 -0.0362713 0)
(1.04967 -0.0340686 -4.72524e-21)
(1.11422 -0.0318829 -4.69273e-21)
(1.1756 -0.0297361 0)
(1.23382 -0.0276394 4.6228e-21)
(1.28891 -0.0256051 -4.58577e-21)
(1.34095 -0.0236506 0)
(1.38997 -0.0217844 4.50845e-21)
(1.43608 -0.0200055 0)
(1.47939 -0.0183224 0)
(1.52002 -0.0167298 -4.38671e-21)
(1.55809 -0.015232 0)
(1.5937 -0.0138275 4.30329e-21)
(1.62696 -0.0125141 0)
(1.65799 -0.0112888 -4.21903e-21)
(1.6869 -0.0101481 -4.17677e-21)
(1.7138 -0.0090884 -4.13452e-21)
(1.7388 -0.00810578 -8.18465e-21)
(1.76199 -0.00719638 8.10044e-21)
(1.78348 -0.00635639 0)
(1.80336 -0.00558204 0)
(1.82172 -0.00486974 0)
(1.83864 -0.00421597 7.76695e-21)
(1.85422 -0.00361741 7.68465e-21)
(1.86853 -0.00307084 -7.60286e-21)
(1.88164 -0.00257318 0)
(1.89363 -0.00212139 7.44087e-21)
(1.90457 -0.00171259 7.36072e-21)
(1.91452 -0.00134405 7.28114e-21)
(1.92354 -0.00101323 0)
(1.93171 -0.000717674 0)
(1.93907 -0.00045502 0)
(1.94569 -0.000222916 6.96873e-21)
(1.95161 -1.90762e-05 0)
(1.9569 0.000158766 0)
(1.96159 0.000312834 -6.74071e-21)
(1.96573 0.000445288 0)
(1.96937 0.000558304 0)
(1.97254 0.000653912 -6.51803e-21)
(1.97529 0.000734174 0)
(1.97766 0.00080108 0)
(1.97966 0.000856412 6.30059e-21)
(1.98135 0.000902096 6.22925e-21)
(1.98273 0.000939421 0)
(1.98383 0.000969519 -6.08825e-21)
(1.98469 0.000993817 0)
(1.98532 0.00101194 5.94943e-21)
(1.98574 0.00102301 0)
(1.98598 0.00102738 5.81275e-21)
(1.98605 0.00102609 5.74519e-21)
(1.98597 0.00102011 0)
(1.98576 0.00101019 0)
(1.98544 0.000997056 0)
(1.98502 0.000981417 0)
(1.9845 0.000963775 0)
(1.9839 0.000944345 0)
(1.98323 0.000923491 0)
(1.98249 0.000901993 5.22277e-21)
(1.9817 0.000880507 -5.15962e-21)
(1.98085 0.000859221 0)
(1.97996 0.000838188 0)
(1.97903 0.000817431 0)
(1.97806 0.000796979 0)
(1.97707 0.000776889 -9.70137e-21)
(1.97604 0.000757235 0)
(1.975 0.000738139 9.46035e-21)
(1.97393 0.0007198 -9.34111e-21)
(1.97284 0.000702468 0)
(1.97174 0.000686386 0)
(1.97062 0.000671712 0)
(1.96948 0.000658478 8.87241e-21)
(1.96833 0.000646589 8.75725e-21)
(1.96716 0.000635887 0)
(1.96598 0.000626185 8.52929e-21)
(1.96478 0.000617351 8.41646e-21)
(1.96356 0.000609284 -8.30439e-21)
(1.96233 0.000601947 0)
(1.96108 0.000595322 0)
(1.95981 0.000589421 -7.97267e-21)
(1.95853 0.000584251 0)
(1.95723 0.000579831 0)
(1.95591 0.000576173 0)
(1.95457 0.000573301 0)
(1.95321 0.000571239 7.43424e-21)
(1.95182 0.000570045 7.32865e-21)
(1.95042 0.000569777 0)
(1.94899 0.00057056 7.11953e-21)
(1.94753 0.000572496 0)
(1.94604 0.000575832 0)
(1.94451 0.000580717 6.81086e-21)
(1.94294 0.000587628 0)
(1.94133 0.000596735 6.60838e-21)
(1.93966 0.000608959 0)
(1.93792 0.000624436 0)
(1.9361 0.000644899 6.30957e-21)
(1.93418 0.000670415 0)
(1.93216 0.000703977 6.11366e-21)
(1.92994 0.000746102 0)
(1.92761 0.000800646 0)
(1.92492 0.000872242 0)
(1.92212 0.000959454 -5.7302e-21)
(1.91863 0.00108873 0)
(1.91507 0.00122171 5.54317e-21)
(1.91019 0.00148003 0)
(1.90531 0.00165678 0)
(1.89801 0.00225091 0)
(1.89044 0.00237951 0)
(1.87905 0.00397632 0)
(1.86457 0.00358176 0)
(1.84722 0.00858445 0)
(1.8102 0.00588411 -9.71308e-21)
(1.78725 0.0253567 0)
(1.6601 0.0198638 0)
(-0.00918178 0.0220111 -1.025e-20)
(-0.0391966 0.0240909 1.01854e-20)
(-0.0671538 0.0269361 0)
(-0.0970495 0.0326342 -6.69432e-21)
(-0.127624 0.0386539 0)
(-0.159312 0.0447891 -3.29908e-21)
(-0.191947 0.0509195 6.54788e-21)
(-0.225662 0.0570571 6.49838e-21)
(-0.260499 0.0632373 0)
(-0.296574 0.0695009 6.39851e-21)
(-0.333975 0.0759028 3.17495e-21)
(-0.372815 0.0824724 0)
(-0.413169 0.0892209 0)
(-0.455086 0.0961422 0)
(-0.498614 0.103195 0)
(-0.543712 0.11031 3.04895e-21)
(-0.5903 0.117362 0)
(-0.638218 0.124164 -5.99121e-21)
(-0.687151 0.130441 0)
(-0.736699 0.135894 0)
(-0.786384 0.140179 5.8363e-21)
(-0.835716 0.143019 0)
(-0.884202 0.144201 -5.73203e-21)
(-0.93139 0.143602 2.84702e-21)
(-0.97686 0.141177 -2.8214e-21)
(-1.02017 0.136964 2.79556e-21)
(-1.06088 0.131034 2.76955e-21)
(-1.09856 0.123467 0)
(-1.13275 0.114348 0)
(-1.16306 0.103788 -2.69112e-21)
(-1.1891 0.091888 2.64095e-21)
(-1.21045 0.0787731 0)
(-1.22678 0.0645736 0)
(-1.23772 0.0494244 -2.59107e-21)
(-1.24294 0.033466 0)
(-1.24211 0.0168463 0)
(-1.23496 -0.000278973 2.52668e-21)
(-1.22125 -0.0177367 0)
(-1.20077 -0.035341 -2.46541e-21)
(-1.17336 -0.0528942 4.95611e-21)
(-1.13893 -0.0701909 0)
(-1.09748 -0.0870204 0)
(-1.0491 -0.103167 9.74821e-21)
(-0.993965 -0.118418 9.72966e-21)
(-0.932362 -0.13258 9.71965e-21)
(-0.864647 -0.145473 -4.83867e-21)
(-0.791173 -0.156969 4.87939e-21)
(-0.712353 -0.166971 1.46143e-20)
(-0.628761 -0.175454 -9.74542e-21)
(-0.541021 -0.182387 -4.89502e-21)
(-0.449785 -0.187809 0)
(-0.355717 -0.191747 4.91019e-21)
(-0.259457 -0.19428 -4.89689e-21)
(-0.161618 -0.195482 0)
(-0.0628224 -0.195453 0)
(0.0363813 -0.194316 0)
(0.135491 -0.192175 4.93044e-21)
(0.234044 -0.189186 0)
(0.331661 -0.18544 -9.83591e-21)
(0.427989 -0.18106 0)
(0.522709 -0.176136 -9.80149e-21)
(0.615534 -0.170757 0)
(0.706242 -0.164994 9.74428e-21)
(0.794631 -0.158915 0)
(0.880482 -0.152569 -9.66513e-21)
(0.963623 -0.146035 4.80648e-21)
(1.04394 -0.139349 0)
(1.12131 -0.132593 9.50888e-21)
(1.19565 -0.125811 4.72569e-21)
(1.26692 -0.119073 4.69316e-21)
(1.33509 -0.112417 0)
(1.40018 -0.105906 4.62065e-21)
(1.46221 -0.0995694 4.58613e-21)
(1.52126 -0.0934488 0)
(1.57738 -0.0875695 -4.50877e-21)
(1.63067 -0.0819403 8.9357e-21)
(1.68123 -0.0765777 0)
(1.7292 -0.0714771 4.38698e-21)
(1.77465 -0.0666436 0)
(1.81771 -0.0620734 -1.29091e-20)
(1.85847 -0.05776 0)
(1.89705 -0.053695 1.26564e-20)
(1.93354 -0.0498686 4.17698e-21)
(1.96806 -0.0462703 -4.13358e-21)
(2.00068 -0.0428893 -8.18288e-21)
(2.03152 -0.0397148 8.0988e-21)
(2.06064 -0.0367362 0)
(2.08815 -0.0339431 0)
(2.11411 -0.0313256 0)
(2.13861 -0.0288742 -2.33001e-20)
(2.16172 -0.0265799 -7.68489e-21)
(2.18349 -0.0244343 7.60308e-21)
(2.20401 -0.0224294 0)
(2.22332 -0.0205577 7.43995e-21)
(2.24149 -0.0188125 -7.36091e-21)
(2.25858 -0.0171869 -7.28132e-21)
(2.27463 -0.0156749 0)
(2.2897 -0.0142706 0)
(2.30385 -0.0129683 0)
(2.3171 -0.0117628 -6.96889e-21)
(2.32952 -0.0106488 0)
(2.34115 -0.00962114 1.36319e-20)
(2.35202 -0.00867494 2.0222e-20)
(2.36218 -0.0078053 -1.33315e-20)
(2.37166 -0.0070074 0)
(2.38051 -0.00627653 -6.51771e-21)
(2.38876 -0.00560808 0)
(2.39645 -0.00499753 -1.27448e-20)
(2.4036 -0.00444062 6.30035e-21)
(2.41025 -0.00393308 6.22904e-21)
(2.41644 -0.00347111 0)
(2.42218 -0.00305143 1.82648e-20)
(2.42752 -0.00267075 -1.20371e-20)
(2.43247 -0.00232675 -5.94952e-21)
(2.43705 -0.00201748 0)
(2.4413 -0.00174024 -5.81284e-21)
(2.44523 -0.00149188 -1.72357e-20)
(2.44886 -0.00126955 0)
(2.4522 -0.00107069 -1.12233e-20)
(2.45528 -0.000892835 -1.10912e-20)
(2.45812 -0.000733767 -1.09602e-20)
(2.46072 -0.000591569 0)
(2.46311 -0.000464428 0)
(2.46529 -0.000350616 0)
(2.46729 -0.000249082 5.22275e-21)
(2.46911 -0.000159117 5.15969e-21)
(2.47077 -7.97329e-05 0)
(2.47228 -9.89628e-06 1.00695e-20)
(2.47366 5.13758e-05 9.94591e-21)
(2.4749 0.000104966 0)
(2.47603 0.000151647 9.70149e-21)
(2.47705 0.000192207 1.9161e-20)
(2.47797 0.000227425 -9.46047e-21)
(2.47879 0.000258048 -9.34115e-21)
(2.47953 0.000284812 0)
(2.48019 0.000308425 0)
(2.48077 0.000329535 0)
(2.48129 0.000348684 -8.87253e-21)
(2.48174 0.00036628 8.75731e-21)
(2.48214 0.00038263 1.72859e-20)
(2.48248 0.000397923 -8.52939e-21)
(2.48277 0.000412311 8.41651e-21)
(2.48301 0.000425876 8.3045e-21)
(2.4832 0.000438701 0)
(2.48335 0.000450845 0)
(2.48346 0.0004624 -7.97272e-21)
(2.48354 0.000473464 0)
(2.48357 0.000484183 0)
(2.48357 0.000494717 1.52951e-20)
(2.48354 0.000505272 0)
(2.48347 0.00051607 7.43429e-21)
(2.48338 0.000527391 -7.32874e-21)
(2.48325 0.00053954 0)
(2.48309 0.000552918 7.11956e-21)
(2.48291 0.000567959 0)
(2.48269 0.000585268 0)
(2.48244 0.000605499 -6.81094e-21)
(2.48215 0.000629571 1.34187e-20)
(2.48182 0.000658554 -6.60846e-21)
(2.48145 0.00069379 0)
(2.48103 0.000737283 0)
(2.48054 0.000790621 6.30954e-21)
(2.47998 0.000858327 0)
(2.47933 0.00094067 6.11358e-21)
(2.47857 0.00104988 0)
(2.47767 0.00117795 0)
(2.47659 0.00136195 0)
(2.4753 0.00155978 5.73025e-21)
(2.4737 0.00188927 0)
(2.47172 0.00218481 -5.54322e-21)
(2.46928 0.00282569 0)
(2.46607 0.0032274 0)
(2.46224 0.00460889 1.05397e-20)
(2.45656 0.00501837 -1.03629e-20)
(2.45048 0.00836087 0)
(2.43926 0.0083273 0)
(2.42963 0.0175613 0)
(2.40473 0.0162148 2.91205e-20)
(2.39097 0.0469834 0)
(2.33511 0.048982 -1.88323e-20)
(-0.0138906 0.0946499 4.76122e-24)
(-0.058013 0.108037 -1.35821e-20)
(-0.0985145 0.109625 0)
(-0.14045 0.115043 1.33911e-20)
(-0.181999 0.120508 0)
(-0.223844 0.126308 0)
(-0.265841 0.132413 -4.36746e-24)
(-0.308198 0.13885 -6.50185e-21)
(-0.350963 0.145612 -6.44761e-21)
(-0.394214 0.1527 -6.40194e-21)
(-0.43798 0.160107 0)
(-0.482285 0.167782 0)
(-0.527107 0.175648 6.24474e-21)
(-0.572386 0.183583 1.23864e-20)
(-0.618005 0.191433 -1.22828e-20)
(-0.663802 0.199004 0)
(-0.709583 0.206035 -1.20736e-20)
(-0.755124 0.212249 5.99425e-21)
(-0.800154 0.217341 0)
(-0.844413 0.221001 -1.17549e-20)
(-0.887652 0.222969 -5.83909e-21)
(-0.929644 0.223007 1.15387e-20)
(-0.97019 0.220958 5.73464e-21)
(-1.00915 0.2167 0)
(-1.0464 0.210199 -1.12087e-20)
(-1.08175 0.201479 -1.10973e-20)
(-1.11501 0.190597 0)
(-1.14596 0.177625 -1.08738e-20)
(-1.1743 0.162657 0)
(-1.19973 0.145774 -1.0652e-20)
(-1.22191 0.127094 -5.30811e-21)
(-1.24043 0.106728 0)
(-1.25488 0.0847949 0)
(-1.26479 0.0614372 0)
(-1.26969 0.0368006 0)
(-1.26907 0.0110577 0)
(-1.26246 -0.0155981 0)
(-1.24938 -0.042926 -9.89647e-21)
(-1.22944 -0.0706552 1.47907e-20)
(-1.20234 -0.0984813 0)
(-1.16785 -0.126073 0)
(-1.1259 -0.153076 0)
(-1.07652 -0.179126 -7.94063e-23)
(-1.01989 -0.203847 -9.73156e-21)
(-0.956294 -0.226892 -1.93708e-20)
(-0.88615 -0.247951 1.93705e-20)
(-0.809971 -0.266777 9.66049e-21)
(-0.728374 -0.283194 -9.73307e-21)
(-0.642041 -0.297102 5.29734e-23)
(-0.551668 -0.308454 -9.71517e-21)
(-0.457946 -0.317269 0)
(-0.361582 -0.323602 -9.75976e-21)
(-0.263253 -0.327569 3.48911e-23)
(-0.163586 -0.329309 0)
(-0.0632269 -0.329009 0)
(0.0372669 -0.32686 9.82173e-21)
(0.137397 -0.323082 0)
(0.236714 -0.317887 0)
(0.334865 -0.311487 -9.80021e-21)
(0.431516 -0.304069 -1.96114e-20)
(0.526403 -0.295801 9.80194e-21)
(0.61927 -0.286804 0)
(0.7099 -0.277188 -9.74462e-21)
(0.798121 -0.26707 0)
(0.883728 -0.25654 -9.64651e-21)
(0.966567 -0.245686 -9.618e-21)
(1.04652 -0.234603 1.91167e-20)
(1.12346 -0.223401 9.49584e-21)
(1.19733 -0.212165 0)
(1.2681 -0.201006 -1.87561e-20)
(1.33577 -0.190004 0)
(1.40034 -0.179249 -2.7723e-20)
(1.46188 -0.168804 -1.83319e-20)
(1.52046 -0.158721 -1.818e-20)
(1.57617 -0.149049 1.80241e-20)
(1.62909 -0.139807 -2.68006e-20)
(1.67937 -0.131007 0)
(1.72711 -0.122654 0)
(1.77242 -0.114747 1.73731e-20)
(1.81541 -0.107277 2.58118e-20)
(1.85618 -0.100233 0)
(1.89485 -0.0935988 -8.4372e-21)
(1.93152 -0.0873557 0)
(1.96628 -0.0814857 2.4801e-20)
(1.99924 -0.0759696 3.59804e-24)
(2.03048 -0.0707886 -3.35094e-24)
(2.0601 -0.0659242 -1.60287e-20)
(2.08817 -0.0613586 0)
(2.11477 -0.0570745 1.56956e-20)
(2.13998 -0.0530558 2.49234e-24)
(2.16386 -0.0492869 0)
(2.18648 -0.0457536 0)
(2.2079 -0.0424422 0)
(2.22818 -0.0393404 -1.48809e-20)
(2.24737 -0.0364363 0)
(2.26552 -0.0337191 0)
(2.28269 -0.0311784 0)
(2.29892 -0.0288046 0)
(2.31425 -0.0265886 0)
(2.32872 -0.0245219 -1.39359e-20)
(2.34238 -0.0225962 0)
(2.35527 -0.0208037 -1.36319e-20)
(2.36741 -0.0191367 -1.34811e-20)
(2.37885 -0.017588 1.33315e-20)
(2.38962 -0.0161505 0)
(2.39975 -0.0148176 1.30358e-20)
(2.40927 -0.0135825 0)
(2.41821 -0.0124392 1.27448e-20)
(2.42661 -0.0113816 -1.2601e-20)
(2.43448 -0.0104043 -3.73742e-20)
(2.44185 -0.00950186 0)
(2.44876 -0.00866955 -3.65284e-20)
(2.45521 -0.00790277 -1.20364e-20)
(2.46125 -0.00719706 0)
(2.46689 -0.00654797 -2.35226e-20)
(2.47215 -0.00595127 -2.32504e-20)
(2.47705 -0.00540295 3.44706e-20)
(2.48162 -0.00489931 0)
(2.48587 -0.00443704 1.12232e-20)
(2.48982 -0.00401298 1.10912e-20)
(2.49349 -0.00362416 3.288e-20)
(2.49689 -0.00326789 0)
(2.50005 -0.0029417 0)
(2.50298 -0.00264323 0)
(2.5057 -0.00237059 1.04453e-20)
(2.50821 -0.00212219 0)
(2.51053 -0.00189631 0)
(2.51267 -0.00169119 -1.00694e-20)
(2.51465 -0.00150523 -9.94588e-21)
(2.51647 -0.00133682 0)
(2.51815 -0.00118436 0)
(2.51969 -0.00104649 -1.91609e-20)
(2.52111 -0.000921833 0)
(2.52241 -0.000809008 1.86823e-20)
(2.5236 -0.000706694 1.84454e-20)
(2.5247 -0.000613632 0)
(2.5257 -0.000528691 0)
(2.52662 -0.000450905 -1.77448e-20)
(2.52746 -0.000379471 -5.96105e-26)
(2.52822 -0.000313705 -5.56303e-26)
(2.52892 -0.000253 0)
(2.52956 -0.000196787 -3.36659e-20)
(2.53014 -0.000144565 0)
(2.53067 -9.58988e-05 0)
(2.53115 -5.04367e-05 0)
(2.53158 -7.87905e-06 1.59454e-20)
(2.53197 3.20351e-05 0)
(2.53232 6.9582e-05 -3.10207e-20)
(2.53264 0.000105064 -1.5295e-20)
(2.53292 0.000138841 0)
(2.53316 0.000171338 -1.48685e-20)
(2.53338 0.000203048 0)
(2.53357 0.00023456 0)
(2.53372 0.000266532 -4.27172e-20)
(2.53385 0.000299804 2.80639e-20)
(2.53395 0.000335243 0)
(2.53402 0.00037414 2.72434e-20)
(2.53406 0.000417609 -1.34186e-20)
(2.53406 0.000467878 0)
(2.53403 0.000526164 0)
(2.53395 0.00059684 0)
(2.53381 0.000680338 -3.7857e-20)
(2.53362 0.000786388 0)
(2.53334 0.000911195 -1.22272e-20)
(2.53298 0.00107881 0)
(2.53248 0.00126972 0)
(2.53187 0.00154785 0)
(2.53101 0.00184214 0)
(2.52999 0.00232961 0)
(2.52853 0.00277975 0)
(2.52686 0.00369209 -2.18013e-20)
(2.5243 0.00436167 0)
(2.52154 0.00620817 -1.05396e-20)
(2.51696 0.0071595 3.10843e-20)
(2.51234 0.0112558 0)
(2.50384 0.0126326 0)
(2.49597 0.0228133 -1.97041e-20)
(2.48024 0.0260102 -1.94075e-20)
(2.46773 0.054673 1.90789e-20)
(2.44416 0.0676139 1.88334e-20)
(-0.0151888 0.176946 2.04859e-20)
(-0.0633634 0.202134 2.03574e-20)
(-0.107396 0.202173 1.34704e-20)
(-0.153098 0.207211 6.678e-21)
(-0.198211 0.212157 0)
(-0.243542 0.21754 -1.3181e-20)
(-0.288795 0.223306 6.53214e-21)
(-0.33413 0.229445 0)
(-0.379518 0.235914 6.45115e-21)
(-0.424988 0.24268 0)
(-0.470502 0.249685 -1.26811e-20)
(-0.516018 0.256828 0)
(-0.561456 0.263974 -6.24813e-21)
(-0.606731 0.270968 -1.23931e-20)
(-0.651733 0.277602 1.22893e-20)
(-0.696343 0.283656 0)
(-0.740422 0.288878 1.20799e-20)
(-0.783843 0.293001 0)
(-0.82652 0.29577 0)
(-0.868353 0.296928 1.17607e-20)
(-0.909288 0.296262 0)
(-0.949299 0.293578 -4.8877e-23)
(-0.988344 0.288721 0)
(-1.02638 0.281567 0)
(-1.06328 0.272026 6.49379e-23)
(-1.09888 0.260035 1.11021e-20)
(-1.13298 0.245559 1.09139e-20)
(-1.16526 0.228577 1.08783e-20)
(-1.19538 0.209084 0)
(-1.22294 0.187105 2.12192e-20)
(-1.2475 0.162674 0)
(-1.26857 0.135852 1.03367e-20)
(-1.2856 0.106716 0)
(-1.29797 0.075359 0)
(-1.30505 0.0419275 -1.00261e-20)
(-1.30619 0.00661567 0)
(-1.30077 -0.0303087 9.85041e-21)
(-1.28823 -0.0685041 1.24306e-22)
(-1.2681 -0.10755 -1.95444e-20)
(-1.24006 -0.146956 1.93096e-20)
(-1.20391 -0.186176 0)
(-1.1596 -0.224619 0)
(-1.10721 -0.261677 9.44081e-21)
(-1.047 -0.29676 0)
(-0.979405 -0.329332 9.6513e-21)
(-0.905017 -0.358976 -9.65326e-21)
(-0.824522 -0.385364 -9.66224e-21)
(-0.738651 -0.408259 0)
(-0.648154 -0.427501 9.69539e-21)
(-0.553768 -0.443037 9.7166e-21)
(-0.456226 -0.454907 -1.9353e-20)
(-0.356267 -0.463214 9.76098e-21)
(-0.254596 -0.468135 9.78141e-21)
(-0.151888 -0.469897 0)
(-0.0488099 -0.46878 0)
(0.0540497 -0.465069 -9.82256e-21)
(0.156165 -0.459116 0)
(0.25709 -0.451233 0)
(0.356489 -0.441746 1.96379e-20)
(0.454082 -0.430924 1.96125e-20)
(0.54965 -0.418984 0)
(0.64299 -0.40611 0)
(0.733905 -0.392434 0)
(0.822226 -0.37808 0)
(0.907784 -0.363187 1.93124e-20)