/*--------------------------------*- C++ -*----------------------------------*\
  =========                 |
  \\      /  F ield         | OpenFOAM: The Open Source CFD Toolbox
   \\    /   O peration     | Website:  https://openfoam.org
    \\  /    A nd           | Version:  7
     \\/     M anipulation  |
\*---------------------------------------------------------------------------*/
FoamFile
{
    version     2.0;
    format      ascii;
    class       volScalarField;
    location    "0.041";
    object      k_0;
}
// * * * * * * * * * * * * * * * * * * * * * * * * * * * * * * * * * * * * * //

dimensions      [0 2 -2 0 0 0 0];

internalField   nonuniform List<scalar> 
12225
(
1.93411e-05
1.80728e-05
1.67001e-05
1.52815e-05
1.40699e-05
1.28737e-05
1.0847e-05
9.94404e-06
9.76244e-06
9.34161e-06
7.66551e-06
5.94327e-06
4.82122e-06
4.25452e-06
4.08686e-06
3.99756e-06
3.68958e-06
4.96869e-06
1.99768e-05
1.9881e-05
1.97084e-05
1.93827e-05
1.90736e-05
1.88418e-05
1.83679e-05
1.75866e-05
1.73461e-05
1.74308e-05
1.76157e-05
1.75667e-05
1.71304e-05
1.58838e-05
1.49295e-05
1.42257e-05
1.35159e-05
1.27371e-05
1.99984e-05
1.9449e-05
1.91675e-05
1.91163e-05
1.90753e-05
1.90259e-05
1.89225e-05
1.86909e-05
1.85979e-05
1.8604e-05
1.87057e-05
1.88105e-05
1.8806e-05
1.86982e-05
1.84455e-05
1.8095e-05
1.78954e-05
1.74297e-05
2.01021e-05
1.98598e-05
1.97762e-05
1.94354e-05
1.8147e-05
1.67753e-05
1.65193e-05
1.65233e-05
1.65938e-05
1.6712e-05
1.68212e-05
1.70042e-05
1.73047e-05
1.75604e-05
1.78072e-05
1.79842e-05
1.80857e-05
1.80831e-05
2.00872e-05
2.04885e-05
2.1555e-05
2.18462e-05
2.17523e-05
2.14313e-05
2.05987e-05
1.92757e-05
1.80172e-05
1.68897e-05
1.6229e-05
1.61219e-05
1.6163e-05
1.63305e-05
1.68786e-05
1.756e-05
1.81479e-05
1.84946e-05
2.07305e-05
2.13771e-05
2.16592e-05
2.19004e-05
2.19092e-05
2.18242e-05
2.16371e-05
2.17227e-05
2.18047e-05
2.16796e-05
2.12401e-05
2.06487e-05
1.97929e-05
1.88934e-05
1.8484e-05
1.84595e-05
1.85068e-05
1.8628e-05
2.14169e-05
2.09565e-05
2.11676e-05
2.17026e-05
2.17573e-05
2.17297e-05
2.16283e-05
2.16127e-05
2.16146e-05
2.16476e-05
2.18255e-05
2.19918e-05
2.20063e-05
2.19829e-05
2.19164e-05
2.16927e-05
2.14067e-05
2.12058e-05
2.21248e-05
2.18265e-05
2.09804e-05
2.12766e-05
2.32375e-05
2.48413e-05
2.49742e-05
2.44846e-05
2.29649e-05
2.20413e-05
2.1759e-05
2.17539e-05
2.19137e-05
2.21072e-05
2.21304e-05
2.20739e-05
2.19299e-05
2.18506e-05
2.20556e-05
2.16427e-05
2.08076e-05
2.05157e-05
2.09918e-05
2.34817e-05
2.61786e-05
2.67562e-05
2.65022e-05
2.51346e-05
2.38469e-05
2.33904e-05
2.32741e-05
2.31995e-05
2.30157e-05
2.26856e-05
2.24282e-05
2.23194e-05
2.19139e-05
2.15738e-05
2.07776e-05
2.05173e-05
2.09175e-05
2.33517e-05
2.59908e-05
2.67226e-05
2.66639e-05
2.58628e-05
2.4514e-05
2.37781e-05
2.34589e-05
2.33276e-05
2.32077e-05
2.29752e-05
2.23608e-05
2.16162e-05
2.07514e-05
2.09195e-05
2.09599e-05
2.11516e-05
2.22359e-05
2.30774e-05
2.33764e-05
2.3419e-05
2.34002e-05
2.33885e-05
2.33418e-05
2.31802e-05
2.30947e-05
2.30866e-05
2.30794e-05
2.30328e-05
2.28386e-05
2.23377e-05
2.09529e-05
2.10954e-05
2.09091e-05
2.09127e-05
2.15419e-05
2.19175e-05
2.19204e-05
2.18825e-05
2.17231e-05
2.16229e-05
2.15772e-05
2.15706e-05
2.15804e-05
2.16173e-05
2.1726e-05
2.1998e-05
2.23021e-05
2.25495e-05
2.05113e-05
2.02284e-05
2.02793e-05
2.04123e-05
2.07249e-05
2.088e-05
2.09895e-05
2.10967e-05
2.11169e-05
2.11071e-05
2.10689e-05
2.09312e-05
2.06153e-05
2.04801e-05
2.04777e-05
2.0536e-05
2.07635e-05
2.13805e-05
2.04311e-05
2.03593e-05
2.03247e-05
2.02731e-05
2.03383e-05
2.08372e-05
2.22559e-05
2.29325e-05
2.29659e-05
2.28153e-05
2.22105e-05
2.13936e-05
2.08175e-05
2.04588e-05
2.02833e-05
2.02426e-05
2.02516e-05
2.03287e-05
2.01442e-05
2.02691e-05
2.02692e-05
2.02751e-05
2.04387e-05
2.15048e-05
2.30953e-05
2.34527e-05
2.31558e-05
2.20544e-05
2.13153e-05
2.09735e-05
2.07561e-05
2.05717e-05
2.04485e-05
2.04156e-05
2.04276e-05
2.04983e-05
2.00365e-05
2.03659e-05
2.09865e-05
2.14455e-05
2.17912e-05
2.19424e-05
2.19358e-05
2.16775e-05
2.09657e-05
2.05792e-05
2.04814e-05
2.04805e-05
2.05189e-05
2.05943e-05
2.06508e-05
2.06802e-05
2.06876e-05
2.06868e-05
2.0293e-05
2.03282e-05
2.04187e-05
2.08466e-05
2.21209e-05
2.24509e-05
2.21929e-05
2.12382e-05
2.06244e-05
2.03929e-05
2.03456e-05
2.03511e-05
2.03741e-05
2.04211e-05
2.0458e-05
2.04794e-05
2.04944e-05
2.05203e-05
2.01526e-05
2.04996e-05
2.06167e-05
2.06572e-05
2.07125e-05
2.0669e-05
2.05137e-05
2.03977e-05
2.03537e-05
2.03422e-05
2.03417e-05
2.03455e-05
2.03597e-05
2.0412e-05
2.04566e-05
2.04866e-05
2.05034e-05
2.05268e-05
2.02354e-05
2.15045e-05
2.1966e-05
2.18143e-05
2.1139e-05
2.08484e-05
2.0851e-05
2.1033e-05
2.12223e-05
2.12577e-05
2.12296e-05
2.10412e-05
2.07345e-05
2.0564e-05
2.04929e-05
2.04727e-05
2.04601e-05
2.04305e-05
2.01809e-05
2.04653e-05
2.07071e-05
2.08142e-05
2.08493e-05
2.08519e-05
2.08579e-05
2.08609e-05
2.08567e-05
2.08273e-05
2.0713e-05
2.05767e-05
2.049e-05
2.04452e-05
2.04297e-05
2.0428e-05
2.04291e-05
2.04286e-05
2.01678e-05
2.02176e-05
2.04068e-05
2.05102e-05
2.05196e-05
2.0485e-05
2.04624e-05
2.04879e-05
2.05799e-05
2.06271e-05
2.06352e-05
2.06284e-05
2.0587e-05
2.0518e-05
2.04662e-05
2.0431e-05
2.04137e-05
2.0408e-05
2.17433e-05
2.05699e-05
2.02145e-05
2.0244e-05
2.02832e-05
2.02903e-05
2.02993e-05
2.03431e-05
2.05331e-05
2.07632e-05
2.08667e-05
2.0889e-05
2.08788e-05
2.07942e-05
2.07076e-05
2.0706e-05
2.07541e-05
2.07856e-05
2.02086e-05
2.02393e-05
2.02882e-05
2.02777e-05
2.02421e-05
2.02432e-05
2.02877e-05
2.0449e-05
2.05929e-05
2.06627e-05
2.06831e-05
2.06832e-05
2.06681e-05
2.05897e-05
2.04685e-05
2.04249e-05
2.04319e-05
2.05188e-05
2.01925e-05
2.01828e-05
2.00915e-05
2.00913e-05
2.03796e-05
2.04636e-05
2.04525e-05
2.04925e-05
2.0504e-05
2.04972e-05
2.04539e-05
2.03843e-05
2.03289e-05
2.02789e-05
2.02316e-05
2.01896e-05
2.01575e-05
2.01426e-05
2.07752e-05
2.07285e-05
2.02463e-05
2.01282e-05
2.03407e-05
2.07681e-05
2.07677e-05
2.07481e-05
2.07222e-05
2.06878e-05
2.06011e-05
2.04804e-05
2.03913e-05
2.03267e-05
2.02793e-05
2.02472e-05
2.02301e-05
2.02227e-05
2.20974e-05
2.21485e-05
2.08911e-05
2.02507e-05
2.01558e-05
2.01629e-05
2.0221e-05
2.04079e-05
2.10433e-05
2.15167e-05
2.1564e-05
2.14448e-05
2.11536e-05
2.09405e-05
2.07867e-05
2.06574e-05
2.05623e-05
2.04924e-05
2.02157e-05
2.02142e-05
2.00857e-05
1.99928e-05
1.99179e-05
1.98583e-05
1.98575e-05
1.98512e-05
1.97972e-05
1.97077e-05
1.97034e-05
1.97838e-05
2.01202e-05
2.04278e-05
2.07993e-05
2.10306e-05
2.1513e-05
2.16942e-05
2.02497e-05
1.88094e-05
1.50826e-05
1.49512e-05
1.61064e-05
1.95961e-05
2.4665e-05
2.77818e-05
2.96573e-05
3.21344e-05
3.71225e-05
4.96855e-05
6.73552e-05
8.17442e-05
9.34409e-05
0.000102094
0.000109228
0.000111698
3.31682e-05
0.000132002
0.000164891
0.000193569
0.000259259
0.000338001
0.000382033
0.000398639
0.000408262
0.000424718
0.000461285
0.000554834
0.000654737
0.000714003
0.000731504
0.00073197
0.000729041
0.000718717
0.0026713
0.0028777
0.00276918
0.00259191
0.00241273
0.00216765
0.00196617
0.00186717
0.00184413
0.00184866
0.0018805
0.00189984
0.00189763
0.0018642
0.00171722
0.00148765
0.00131541
0.00120276
9.90664e-06
3.80206e-05
3.95215e-05
3.75297e-05
3.88304e-05
4.33816e-05
5.33583e-05
6.601e-05
7.83832e-05
0.000100573
0.00011342
0.000139435
0.000156936
0.00018738
0.000214355
0.000238509
0.000249004
0.000275146
0.000283317
0.000308637
0.00037738
0.00054362
0.000778439
0.00128072
0.00204215
0.00227943
0.00242405
0.00305355
0.00498221
0.00694177
0.00936879
0.0183067
0.0323867
0.025532
0.00504737
0.00144751
0.00088548
0.000834335
0.000833446
0.000835598
0.000759393
0.000667261
0.000512757
0.00041935
0.000299442
0.00023905
0.000154065
0.000117553
8.56032e-05
6.34854e-05
5.3298e-05
4.90606e-05
4.85946e-05
4.74394e-05
4.68724e-05
4.5527e-05
4.40929e-05
4.34377e-05
4.27028e-05
4.23214e-05
4.15613e-05
4.10652e-05
4.0744e-05
4.06743e-05
4.06623e-05
4.06849e-05
4.07432e-05
4.07759e-05
4.0551e-05
4.01438e-05
3.89149e-05
3.69212e-05
3.47683e-05
3.3224e-05
3.15518e-05
2.93865e-05
2.68785e-05
2.52826e-05
2.38206e-05
2.14776e-05
2.00756e-05
1.81651e-05
1.65058e-05
1.48334e-05
1.32235e-05
1.16932e-05
1.02827e-05
9.01549e-06
7.90931e-06
6.94818e-06
6.10438e-06
5.35917e-06
4.70139e-06
4.12121e-06
3.60935e-06
3.15735e-06
2.75787e-06
2.40471e-06
2.09246e-06
1.81631e-06
1.57196e-06
1.35557e-06
1.16369e-06
9.9296e-07
8.38686e-07
6.99331e-07
5.75884e-07
4.68719e-07
3.7742e-07
3.0104e-07
2.38316e-07
1.87571e-07
1.46671e-07
1.13668e-07
8.724e-08
6.63356e-08
5.00188e-08
3.73273e-08
2.76833e-08
2.04954e-08
1.51471e-08
1.11684e-08
8.20778e-09
6.00525e-09
4.3688e-09
3.15629e-09
2.26202e-09
1.60676e-09
1.13047e-09
7.8741e-10
5.42752e-10
3.70109e-10
2.49626e-10
1.66517e-10
1.09889e-10
7.17698e-11
4.64043e-11
2.97105e-11
1.88408e-11
1.18363e-11
7.36819e-12
4.54603e-12
2.78058e-12
1.68645e-12
1.01445e-12
6.05316e-13
3.58327e-13
2.1046e-13
1.22661e-13
7.09551e-14
4.07533e-14
2.32567e-14
1.32035e-14
7.47422e-15
4.23567e-15
2.41981e-15
1.40991e-15
8.52989e-16
5.48781e-16
3.84648e-16
2.97738e-16
2.53277e-16
2.32143e-16
2.23832e-16
2.22045e-16
2.22045e-16
2.22045e-16
2.22045e-16
2.22045e-16
2.22045e-16
2.22045e-16
2.22045e-16
2.22045e-16
2.22045e-16
2.22045e-16
2.22294e-16
2.18468e-15
8.92192e-13
3.93172e-10
1.66438e-07
1.38387e-05
4.60103e-05
7.98208e-05
9.24442e-05
0.000108592
0.000136495
0.000168588
0.000208519
0.000258925
0.000318598
0.000390958
0.000481232
0.000581624
0.000679377
0.000837571
0.000960871
0.00101391
0.00113273
0.00122991
0.00122537
0.00119068
0.00110976
0.00111758
0.0012115
0.00147302
0.00165239
0.00193026
0.00303085
0.00914558
0.0143194
0.0142456
0.0140746
0.0100175
0.00463968
0.00146941
0.000747076
0.00055154
0.000479215
0.000402575
0.000353776
0.000287966
0.000255428
0.000219553
0.000203733
0.000188089
0.000180643
0.000173531
0.000171045
0.00016788
0.000164874
0.000160967
0.000156986
0.000155131
0.000151406
0.000147945
0.000144808
0.000142706
0.000140098
0.000139262
0.000138564
0.000137482
0.000137308
0.000137623
0.000138676
0.000140614
0.000143377
0.000146863
0.000149996
0.000150946
0.000150134
0.000144386
0.00013602
0.000126818
0.000119607
0.000111655
0.000101957
9.27297e-05
8.70612e-05
8.2938e-05
7.59387e-05
7.10796e-05
6.6434e-05
6.14646e-05
5.68805e-05
5.22803e-05
4.73343e-05
4.20871e-05
3.66723e-05
3.16417e-05
2.74099e-05
2.39448e-05
2.09234e-05
1.82566e-05
1.59213e-05
1.38923e-05
1.2134e-05
1.0605e-05
9.27504e-06
8.12276e-06
7.12864e-06
6.27335e-06
5.53754e-06
4.90269e-06
4.35242e-06
3.87452e-06
3.45623e-06
3.08455e-06
2.74928e-06
2.4423e-06
2.1552e-06
1.88207e-06
1.62458e-06
1.38638e-06
1.17052e-06
9.78397e-07
8.09969e-07
6.64088e-07
5.39306e-07
4.33754e-07
3.45447e-07
2.72514e-07
2.13053e-07
1.65141e-07
1.26932e-07
9.67414e-08
7.30755e-08
5.46504e-08
4.04324e-08
2.95782e-08
2.13874e-08
1.52815e-08
1.07873e-08
7.52164e-09
5.17886e-09
3.52143e-09
2.36629e-09
1.572e-09
1.03265e-09
6.70908e-10
4.31201e-10
2.74223e-10
1.72601e-10
1.07555e-10
6.63737e-11
4.05767e-11
2.45802e-11
1.47576e-11
8.78268e-12
5.18157e-12
3.03071e-12
1.75753e-12
1.01057e-12
5.76243e-13
3.2593e-13
1.82936e-13
1.01956e-13
5.64796e-14
3.11448e-14
1.7135e-14
9.43929e-15
5.23513e-15
2.94849e-15
1.70767e-15
1.03516e-15
6.70265e-16
4.72291e-16
3.63831e-16
3.04943e-16
2.70728e-16
2.54115e-16
2.39904e-16
2.45874e-16
2.45376e-16
3.89651e-16
4.50341e-16
4.43772e-16
4.92961e-16
5.43595e-14
3.10326e-11
1.59583e-08
9.95683e-06
3.55082e-05
6.45112e-05
0.000123921
0.000179383
0.000234139
0.000288806
0.000350183
0.000431438
0.000552262
0.000728142
0.000961786
0.00128392
0.00162922
0.00208644
0.00254305
0.00277966
0.00313518
0.00353391
0.003518
0.00336539
0.00296828
0.00259802
0.00238376
0.00246246
0.00329811
0.00717316
0.0108581
0.0116593
0.010299
0.00663605
0.00333775
0.00186585
0.000837091
0.000468062
0.000357746
0.000314292
0.00028903
0.000267493
0.000254569
0.000239577
0.000232663
0.000222338
0.000216963
0.000210211
0.000206455
0.000201864
0.000199427
0.000198168
0.000197725
0.000199711
0.00020354
0.000207165
0.000210724
0.000211804
0.00021119
0.000210569
0.000211285
0.00021269
0.000214071
0.000215732
0.000218455
0.000223201
0.000230762
0.000240857
0.000252417
0.000264161
0.000273554
0.000279735
0.000283676
0.000284975
0.000282025
0.000266936
0.000248401
0.000222414
0.000191663
0.000167052
0.00014894
0.000135528
0.000121994
0.00011349
0.000104576
9.73276e-05
9.0578e-05
8.44868e-05
7.91168e-05
7.40815e-05
6.86046e-05
6.24707e-05
5.63277e-05
5.03137e-05
4.44556e-05
3.87461e-05
3.33075e-05
2.83265e-05
2.40267e-05
2.04138e-05
1.7246e-05
1.4479e-05
1.20958e-05
1.00857e-05
8.42781e-06
7.08701e-06
6.02098e-06
5.18101e-06
4.51696e-06
3.98387e-06
3.54539e-06
3.17483e-06
2.85585e-06
2.57761e-06
2.32811e-06
2.09811e-06
1.88164e-06
1.67521e-06
1.47813e-06
1.2917e-06
1.11766e-06
9.57285e-07
8.11269e-07
6.79904e-07
5.6342e-07
4.61901e-07
3.7469e-07
3.0074e-07
2.38824e-07
1.87646e-07
1.45852e-07
1.12117e-07
8.52073e-08
6.39981e-08
4.74887e-08
3.48029e-08
2.51847e-08
1.7991e-08
1.26849e-08
8.82749e-09
6.06461e-09
4.1145e-09
2.75734e-09
1.82534e-09
1.19373e-09
7.71398e-10
4.9275e-10
3.11262e-10
1.94503e-10
1.20268e-10
7.36014e-11
4.45851e-11
2.6736e-11
1.58717e-11
9.32822e-12
5.42821e-12
3.12802e-12
1.78548e-12
1.00995e-12
5.66444e-13
3.15281e-13
1.74336e-13
9.59163e-14
5.25991e-14
2.88347e-14
1.58476e-14
8.79043e-15
4.94963e-15
2.87589e-15
1.73505e-15
1.12419e-15
7.6783e-16
5.94063e-16
4.6208e-16
2.67313e-15
1.58929e-15
3.06823e-14
1.9143e-14
2.48213e-14
1.18426e-14
1.81986e-14
1.10669e-11
7.65936e-10
1.46995e-05
4.89642e-05
7.90584e-05
0.000148919
0.000213389
0.000278649
0.000349207
0.000440338
0.000591574
0.000855576
0.00126092
0.00184954
0.00265655
0.00368954
0.00485344
0.00601882
0.00701092
0.00767086
0.00860308
0.00925913
0.00921545
0.00884933
0.00827622
0.00794203
0.00818449
0.00902347
0.00941752
0.00929336
0.00615235
0.00306073
0.00174101
0.000878109
0.00053151
0.000371569
0.00032024
0.000304164
0.000296981
0.000292031
0.000289731
0.00029653
0.000303981
0.000317089
0.000331313
0.000341164
0.000346643
0.000350855
0.000355099
0.000359488
0.000365962
0.000369711
0.000370175
0.000365131
0.000356043
0.000353848
0.000352663
0.000347779
0.000337154
0.000331298
0.000328916
0.000327814
0.000327383
0.000327286
0.000327632
0.000328893
0.000328493
0.000325787
0.000321754
0.000320558
0.000320594
0.000326173
0.000334521
0.000341547
0.000343538
0.000339682
0.000321543
0.000293914
0.000262889
0.000237177
0.000206152
0.000176665
0.00015385
0.000135405
0.000120317
0.000108156
9.86436e-05
9.09823e-05
8.44896e-05
7.87616e-05
7.36911e-05
6.91894e-05
6.51197e-05
6.15075e-05
5.78908e-05
5.40298e-05
4.97444e-05
4.48906e-05
3.96643e-05
3.45549e-05
2.97164e-05
2.5115e-05
2.07846e-05
1.69064e-05
1.35285e-05
1.0672e-05
8.3768e-06
6.61046e-06
5.28674e-06
4.31114e-06
3.59569e-06
3.06647e-06
2.66639e-06
2.35428e-06
2.10365e-06
1.8967e-06
1.71619e-06
1.54647e-06
1.3789e-06
1.2176e-06
1.06495e-06
9.22979e-07
7.93262e-07
6.7617e-07
5.71126e-07
4.77922e-07
3.96282e-07
3.25657e-07
2.65256e-07
2.14131e-07
1.71274e-07
1.3568e-07
1.06398e-07
8.25548e-08
6.33484e-08
4.80473e-08
3.59981e-08
2.66262e-08
1.94318e-08
1.39857e-08
9.92388e-09
6.94165e-09
4.78717e-09
3.25555e-09
2.18373e-09
1.44515e-09
9.43882e-10
6.0868e-10
3.87715e-10
2.44009e-10
1.51744e-10
9.32504e-11
5.66288e-11
3.39854e-11
2.01586e-11
1.18203e-11
6.85392e-12
3.93209e-12
2.23349e-12
1.25743e-12
7.02423e-13
3.90134e-13
2.15698e-13
1.19262e-13
6.58525e-14
3.68417e-14
2.07263e-14
1.26346e-14
7.82564e-15
5.78999e-15
4.17915e-15
3.83543e-15
3.67447e-15
3.93006e-15
4.61273e-15
5.50224e-15
1.25844e-14
1.0658e-14
9.04477e-14
7.64308e-14
1.13711e-12
3.61413e-11
1.68801e-05
5.5973e-05
9.6518e-05
0.00017224
0.000238137
0.000310848
0.000406416
0.000545866
0.000759288
0.00110501
0.001667
0.00250145
0.00361744
0.00504773
0.00674975
0.00853419
0.0101478
0.0110653
0.0113043
0.0112743
0.0109661
0.0103092
0.00956167
0.00891225
0.00838511
0.00783522
0.00584542
0.00333189
0.00183091
0.000950419
0.000581514
0.000408311
0.000346772
0.000327364
0.000323273
0.000326815
0.000343515
0.000366751
0.000397497
0.000431493
0.000466123
0.000498848
0.000530474
0.000562805
0.000594302
0.0006133
0.000623863
0.000632567
0.000640482
0.000648679
0.000651127
0.000646602
0.000618464
0.000593417
0.00058575
0.000579516
0.000561356
0.000531206
0.000506934
0.000495275
0.000486019
0.000471694
0.0004532
0.000439419
0.00041856
0.000399072
0.00037284
0.000350222
0.000334347
0.000327809
0.00032656
0.000330494
0.000332493
0.000331973
0.000326457
0.000305679
0.000284497
0.000269715
0.000252638
0.000231927
0.000202114
0.000171767
0.000145257
0.000124023
0.000108859
9.77329e-05
8.92869e-05
8.25401e-05
7.7056e-05
7.2555e-05
6.87225e-05
6.54738e-05
6.26993e-05
6.01071e-05
5.75231e-05
5.4792e-05
5.17173e-05
4.82346e-05
4.45513e-05
4.08749e-05
3.70657e-05
3.27826e-05
2.7933e-05
2.27129e-05
1.76346e-05
1.33577e-05
9.95172e-06
7.33667e-06
5.41134e-06
4.03829e-06
3.08344e-06
2.42974e-06
1.98131e-06
1.66607e-06
1.43929e-06
1.27698e-06
1.16244e-06
1.07052e-06
9.82585e-07
8.86919e-07
7.86453e-07
6.86816e-07
5.91804e-07
5.03759e-07
4.23974e-07
3.53005e-07
2.90891e-07
2.37307e-07
1.91691e-07
1.53334e-07
1.21454e-07
9.52423e-08
7.39098e-08
5.67373e-08
4.30717e-08
3.23246e-08
2.3974e-08
1.75651e-08
1.27096e-08
9.07983e-09
6.40284e-09
4.45465e-09
3.05624e-09
2.06769e-09
1.38044e-09
9.10071e-10
5.92213e-10
3.80224e-10
2.40793e-10
1.50378e-10
9.25936e-11
5.62071e-11
3.36365e-11
1.9847e-11
1.15497e-11
6.63272e-12
3.76253e-12
2.11136e-12
1.17438e-12
6.493e-13
3.58163e-13
1.98088e-13
1.1046e-13
6.2529e-14
3.61627e-14
2.14641e-14
1.31685e-14
8.29237e-15
5.40601e-15
3.63627e-15
2.55335e-15
1.88545e-15
1.47017e-15
1.17701e-15
1.70321e-15
2.37244e-15
4.25944e-14
5.49293e-14
3.94938e-13
2.38673e-12
1.77769e-05
5.95721e-05
0.000111696
0.000182405
0.000249648
0.000326764
0.000434073
0.000592324
0.000826655
0.0011955
0.00180517
0.0026923
0.00383571
0.00523232
0.00676965
0.00825363
0.00946583
0.0100315
0.0102429
0.0102514
0.00976435
0.00896732
0.0079492
0.00668953
0.00507285
0.00319423
0.00183452
0.00103297
0.000644794
0.000447876
0.000373852
0.000350051
0.000345527
0.000348352
0.000374042
0.000417906
0.000480765
0.000569887
0.000661746
0.000745553
0.000827347
0.000890695
0.000953999
0.00101227
0.0010656
0.0011007
0.00111528
0.0011208
0.00112287
0.00112746
0.00114044
0.00114198
0.00111145
0.00103645
0.000988017
0.000964319
0.000929001
0.000886327
0.000854735
0.000812532
0.000787563
0.000768521
0.000743069
0.000729227
0.000696494
0.000664458
0.000611998
0.000543817
0.000450066
0.000380505
0.000352089
0.000342494
0.000339493
0.000336132
0.000320958
0.00029521
0.000279427
0.000271644
0.000261636
0.000253276
0.000238537
0.000212498
0.000181602
0.000152962
0.000129123
0.000111437
9.8382e-05
8.88276e-05
8.1618e-05
7.57693e-05
7.08577e-05
6.7167e-05
6.43418e-05
6.19632e-05
5.97633e-05
5.7619e-05
5.54493e-05
5.30569e-05
5.02082e-05
4.70926e-05
4.40568e-05
4.12856e-05
3.87413e-05
3.60683e-05
3.25243e-05
2.75504e-05
2.17602e-05
1.62852e-05
1.18738e-05
8.45729e-06
5.9216e-06
4.11373e-06
2.87176e-06
2.04643e-06
1.51218e-06
1.16949e-06
9.4528e-07
7.95397e-07
6.96615e-07
6.36109e-07
5.93181e-07
5.49909e-07
4.98665e-07
4.42404e-07
3.85007e-07
3.29277e-07
2.77184e-07
2.2995e-07
1.88187e-07
1.52047e-07
1.21351e-07
9.5718e-08
7.46387e-08
5.75449e-08
4.38643e-08
3.3054e-08
2.46185e-08
1.81182e-08
1.31723e-08
9.45756e-09
6.70386e-09
4.68978e-09
3.23676e-09
2.2032e-09
1.47859e-09
9.78035e-10
6.37416e-10
4.09155e-10
2.5857e-10
1.60823e-10
9.84138e-11
5.92347e-11
3.50588e-11
2.04004e-11
1.16701e-11
6.56314e-12
3.62932e-12
1.97445e-12
1.0576e-12
5.58532e-13
2.91864e-13
1.51763e-13
7.898e-14
4.14473e-14
2.21649e-14
1.22181e-14
7.09648e-15
4.23433e-15
2.83792e-15
1.81193e-15
1.3475e-15
1.14217e-15
2.13757e-15
4.35522e-15
6.55547e-14
1.01277e-13
1.71032e-12
1.77848e-12
6.49992e-12
6.42985e-12
1.73794e-05
6.04716e-05
0.000117297
0.000182734
0.00024375
0.000312954
0.000414726
0.000560277
0.000736662
0.000935912
0.0011995
0.00161374
0.00220994
0.0030265
0.00396068
0.00486886
0.00567348
0.00612829
0.00630275
0.00622379
0.00549671
0.00469831
0.00363082
0.00268645
0.00175089
0.00108855
0.000687854
0.00049112
0.0004041
0.000370735
0.000364117
0.000369288
0.000406824
0.000473773
0.000561479
0.000661077
0.000763842
0.000861288
0.000962107
0.00105771
0.00115453
0.00124904
0.00133708
0.00141748
0.00154055
0.00163735
0.00170622
0.00174563
0.00178396
0.00182292
0.0018577
0.00186461
0.00178784
0.00163183
0.0015279
0.00142628
0.00129473
0.00115956
0.00108936
0.000987416
0.00094735
0.000904379
0.000876723
0.000861404
0.000842871
0.000834672
0.000824234
0.000803976
0.000754903
0.000640294
0.000487194
0.000441328
0.000437555
0.000439848
0.000407611
0.000340345
0.000304953
0.000286004
0.000269376
0.00026245
0.000257982
0.000240767
0.000205665
0.000170879
0.00014227
0.00012082
0.00010494
9.36148e-05
8.56321e-05
7.98703e-05
7.50636e-05
7.03124e-05
6.62968e-05
6.33195e-05
6.09462e-05
5.88346e-05
5.68693e-05
5.4969e-05
5.29398e-05
5.03967e-05
4.73529e-05
4.44161e-05
4.18808e-05
3.97621e-05
3.80147e-05
3.63235e-05
3.38919e-05
2.98093e-05
2.41418e-05
1.82296e-05
1.32181e-05
9.27566e-06
6.31889e-06
4.2047e-06
2.75951e-06
1.81251e-06
1.21541e-06
8.5076e-07
6.31387e-07
4.97098e-07
4.13519e-07
3.64313e-07
3.37629e-07
3.1777e-07
2.939e-07
2.64605e-07
2.32463e-07
1.99713e-07
1.68135e-07
1.38963e-07
1.12927e-07
9.03448e-08
7.12263e-08
5.53782e-08
4.2485e-08
3.21727e-08
2.40536e-08
1.77561e-08
1.2941e-08
9.311e-09
6.6122e-09
4.63355e-09
3.20317e-09
2.18379e-09
1.4678e-09
9.72286e-10
6.34511e-10
4.07791e-10
2.57998e-10
1.60618e-10
9.83519e-11
5.9211e-11
3.50323e-11
2.03605e-11
1.16188e-11
6.50706e-12
3.57524e-12
1.92659e-12
1.01801e-12
5.27467e-13
2.68115e-13
1.33796e-13
6.57194e-14
3.19015e-14
1.53317e-14
7.4926e-15
3.81508e-15
1.74084e-15
1.342e-15
1.68249e-15
3.97934e-15
1.14479e-14
3.74598e-14
9.70587e-14
3.74094e-13
5.93193e-13
1.92083e-12
2.01393e-12
2.31696e-12
3.19572e-12
1.54292e-05
5.57478e-05
0.00011064
0.000170833
0.000227571
0.000287134
0.0003671
0.000472748
0.000595873
0.000735456
0.000911199
0.0011383
0.00141556
0.00173925
0.00209004
0.00241902
0.0026898
0.00283915
0.00288447
0.00268875
0.00233255
0.00189697
0.0014273
0.00104145
0.000689397
0.000509804
0.000416036
0.000377546
0.000366857
0.000370446
0.000380805
0.000423577
0.000494032
0.000584897
0.000696551
0.000817543
0.000949612
0.00108873
0.00124613
0.00142099
0.00161433
0.00180896
0.00198883
0.00224769
0.00254251
0.00288485
0.00323068
0.0035471
0.00385631
0.00411647
0.00428043
0.00433528
0.0041146
0.00372419
0.00308891
0.00261479
0.0022671
0.00173457
0.00150226
0.00121841
0.00111203
0.00101565
0.000955033
0.000921761
0.000884551
0.000866694
0.000859588
0.000850535
0.000840485
0.000809391
0.00071622
0.000611872
0.00058844
0.000602334
0.000621951
0.000568165
0.000464102
0.00038902
0.000330341
0.000303561
0.000294004
0.00029219
0.000268999
0.00022095
0.000169583
0.000134381
0.000111383
9.65855e-05
8.71056e-05
8.08719e-05
7.64969e-05
7.29818e-05
6.94031e-05
6.57428e-05
6.27046e-05
6.02471e-05
5.79633e-05
5.58497e-05
5.40413e-05
5.23347e-05
5.03337e-05
4.75129e-05
4.42982e-05
4.15061e-05
3.93505e-05
3.77769e-05
3.66174e-05
3.5514e-05
3.36721e-05
3.01687e-05
2.47758e-05
1.87542e-05
1.35003e-05
9.33195e-06
6.21124e-06
4.00016e-06
2.51142e-06
1.55531e-06
9.67419e-07
6.19731e-07
4.20305e-07
3.06741e-07
2.40858e-07
2.03465e-07
1.85364e-07
1.76097e-07
1.66068e-07
1.51909e-07
1.34757e-07
1.1629e-07
9.78914e-08
8.05751e-08
6.49828e-08
5.14378e-08
4.0018e-08
3.06331e-08
2.30915e-08
1.71517e-08
1.25585e-08
9.06698e-09
6.45552e-09
4.5326e-09
3.13814e-09
2.14209e-09
1.44127e-09
9.55611e-10
6.24181e-10
4.015e-10
2.54244e-10
1.58429e-10
9.71089e-11
5.8523e-11
3.46603e-11
2.01634e-11
1.15164e-11
6.45467e-12
3.54834e-12
1.91233e-12
1.00994e-12
5.22479e-13
2.6472e-13
1.31347e-13
6.38569e-14
3.04728e-14
1.42858e-14
6.63856e-15
3.17616e-15
1.41879e-15
7.60006e-16
8.95271e-16
2.1548e-15
6.52489e-15
2.13188e-14
5.44131e-14
2.05765e-13
2.94053e-13
5.31379e-13
7.7194e-13
8.84869e-13
1.23207e-12
1.26491e-05
4.82608e-05
9.77157e-05
0.000153361
0.000204872
0.000253222
0.000314653
0.000393851
0.000478682
0.000558539
0.000644996
0.000758344
0.000894815
0.00103808
0.00117366
0.00128711
0.00135313
0.00137705
0.00132766
0.00119452
0.00102202
0.000821541
0.000638458
0.00050052
0.000408619
0.000369707
0.000356633
0.000357905
0.000370479
0.000395809
0.000454712
0.000562787
0.000677443
0.000809309
0.000970701
0.00116206
0.00140498
0.00166842
0.00193376
0.00221246
0.00248969
0.00283346
0.00333732
0.00407502
0.00504793
0.00634734
0.00785661
0.00945033
0.0110353
0.0123657
0.013014
0.0132116
0.0122306
0.0111412
0.00886176
0.00707302
0.00579855
0.00398696
0.00315352
0.00200875
0.00153329
0.00120267
0.0010469
0.000966059
0.000927232
0.000896443
0.000880686
0.000869368
0.00086379
0.0008593
0.00080817
0.00070798
0.000647129
0.000638834
0.000690095
0.000719353
0.000703043
0.000625067
0.000470559
0.00036312
0.000319666
0.000305599
0.000304729
0.000283783
0.000238228
0.000182597
0.0001373
0.000108232
9.15741e-05
8.20107e-05
7.66106e-05
7.32272e-05
7.03432e-05
6.73798e-05
6.42612e-05
6.15179e-05
5.92349e-05
5.7052e-05
5.48101e-05
5.28959e-05
5.13013e-05
4.96382e-05
4.73174e-05
4.41671e-05
4.10727e-05
3.8643e-05
3.69582e-05
3.58702e-05
3.51228e-05
3.43154e-05
3.28225e-05
2.95045e-05
2.40156e-05
1.79282e-05
1.26737e-05
8.55134e-06
5.52754e-06
3.43984e-06
2.07476e-06
1.22493e-06
7.18819e-07
4.29136e-07
2.68793e-07
1.81748e-07
1.33948e-07
1.08147e-07
9.65455e-08
9.21707e-08
8.83812e-08
8.22453e-08
7.38182e-08
6.40839e-08
5.39417e-08
4.41927e-08
3.53571e-08
2.76847e-08
2.12502e-08
1.60116e-08
1.18557e-08
8.63415e-09
6.18857e-09
4.36756e-09
3.03591e-09
2.07875e-09
1.40212e-09
9.3154e-10
6.0951e-10
3.92665e-10
2.49002e-10
1.55373e-10
9.53635e-11
5.75497e-11
3.41327e-11
1.98867e-11
1.13766e-11
6.38716e-12
3.51748e-12
1.89922e-12
1.00493e-12
5.2087e-13
2.64371e-13
1.31384e-13
6.39404e-14
3.0505e-14
1.42991e-14
6.60488e-15
3.08346e-15
1.47195e-15
6.82347e-16
4.87503e-16
8.0137e-16
2.15085e-15
7.23949e-15
1.74491e-14
5.9518e-14
8.16231e-14
1.01543e-13
1.46919e-13
1.82868e-13
3.03849e-13
9.19871e-06
3.84183e-05
8.15834e-05
0.000132201
0.00017995
0.000221603
0.000266065
0.000325556
0.000392075
0.000444089
0.000482937
0.000529989
0.000592259
0.000654059
0.000707813
0.000738975
0.000751349
0.000740617
0.000690233
0.000617116
0.000534082
0.000455305
0.000389017
0.000353924
0.000337757
0.00033471
0.000350708
0.000365838
0.000404272
0.000480254
0.000571091
0.000679114
0.000799985
0.000970126
0.00118998
0.00144912
0.00174801
0.00211539
0.00252651
0.00299944
0.00361928
0.00455565
0.0059717
0.00798862
0.0108282
0.0146643
0.0192874
0.0243463
0.0293213
0.0330743
0.0347506
0.0350991
0.0318531
0.0286311
0.0228742
0.0175191
0.0136907
0.00961917
0.00749559
0.00478846
0.00319611
0.00201508
0.00141983
0.00112839
0.000987684
0.000921685
0.000890627
0.000888194
0.000898332
0.000908734
0.000879936
0.000786996
0.000686782
0.000651255
0.000664662
0.000726883
0.000750818
0.000725919
0.000598624
0.000416832
0.000334107
0.000306482
0.000295398
0.000286195
0.000257381
0.000215049
0.000172838
0.000135578
0.000107178
8.85304e-05
7.79101e-05
7.29022e-05
7.02249e-05
6.77296e-05
6.49972e-05
6.21091e-05
5.96141e-05
5.75677e-05
5.56765e-05
5.36567e-05
5.17019e-05
5.00622e-05
4.84617e-05
4.64107e-05
4.35376e-05
4.04012e-05
3.78132e-05
3.60207e-05
3.49442e-05
3.43214e-05
3.37891e-05
3.30255e-05
3.15104e-05
2.79188e-05
2.19822e-05
1.59128e-05
1.08994e-05
7.09958e-06
4.42041e-06
2.64536e-06
1.53163e-06
8.6558e-07
4.83844e-07
2.73132e-07
1.60502e-07
1.01631e-07
7.06883e-08
5.43636e-08
4.69082e-08
4.46759e-08
4.41505e-08
4.32017e-08
4.00387e-08
3.42602e-08
2.85835e-08
2.32157e-08
1.83769e-08
1.42071e-08
1.07436e-08
7.95808e-09
5.7812e-09
4.12324e-09
2.8896e-09
1.99112e-09
1.34963e-09
9.0013e-10
5.90782e-10
3.81574e-10
2.42499e-10
1.51614e-10
9.32278e-11
5.63623e-11
3.3489e-11
1.95482e-11
1.12049e-11
6.30378e-12
3.47922e-12
1.88297e-12
9.9883e-13
5.19097e-13
2.64226e-13
1.31708e-13
6.42955e-14
3.07607e-14
1.44569e-14
6.70484e-15
3.10818e-15
1.48659e-15
7.58283e-16
4.20634e-16
3.31255e-16
3.63308e-16
7.39928e-16
1.54861e-15
3.47443e-15
8.58245e-15
1.30092e-14
2.29655e-14
3.11507e-14
6.03865e-14
6.02713e-06
2.92167e-05
6.20145e-05
0.000106876
0.000154361
0.00019188
0.000226905
0.000271699
0.000323597
0.000370938
0.000395358
0.000410181
0.000428826
0.000449844
0.000470457
0.000480625
0.000483157
0.000464847
0.000435894
0.00040016
0.000360759
0.000333266
0.000317456
0.000312181
0.000316717
0.000332197
0.000354991
0.000387153
0.00045164
0.000529493
0.000622664
0.000749208
0.000907957
0.00113345
0.00143433
0.00184151
0.00242648
0.00318116
0.00409769
0.00510948
0.00652979
0.00867517
0.0118976
0.0169242
0.0249579
0.0356194
0.0472537
0.0581497
0.0668112
0.0712862
0.0731877
0.0733515
0.0670415
0.0593419
0.0488489
0.0365186
0.0256106
0.0183231
0.0130111
0.0097774
0.00678752
0.00418813
0.00243461
0.0015813
0.00116576
0.000954717
0.000849362
0.00079791
0.000828788
0.000868533
0.000886394
0.000836722
0.000703982
0.000659031
0.000653203
0.000668752
0.000735077
0.000735502
0.000636733
0.000455376
0.000364884
0.000321726
0.00027296
0.000225724
0.000212801
0.000203636
0.000176528
0.000144396
0.000116978
9.68371e-05
8.25319e-05
7.3423e-05
6.9204e-05
6.71999e-05
6.51597e-05
6.26355e-05
5.99264e-05
5.75701e-05
5.57498e-05
5.40683e-05
5.22777e-05
5.04052e-05
4.86534e-05
4.69482e-05
4.49307e-05
4.22689e-05
3.92236e-05
3.65847e-05
3.47475e-05
3.37016e-05
3.32343e-05
3.29109e-05
3.24468e-05
3.15711e-05
2.97107e-05
2.51281e-05
1.87264e-05
1.29757e-05
8.50131e-06
5.29751e-06
3.1577e-06
1.81063e-06
1.00498e-06
5.44285e-07
2.91038e-07
1.5657e-07
8.72676e-08
5.23221e-08
3.46568e-08
2.56488e-08
2.15433e-08
2.02127e-08
2.00455e-08
2.00417e-08
1.96774e-08
1.77473e-08
1.44765e-08
1.15958e-08
9.06542e-09
6.91317e-09
5.1474e-09
3.74658e-09
2.66911e-09
1.86335e-09
1.27604e-09
8.57894e-10
5.66589e-10
3.67749e-10
2.34634e-10
1.47172e-10
9.07484e-11
5.50005e-11
3.2757e-11
1.91653e-11
1.10114e-11