/*--------------------------------*- C++ -*----------------------------------*\
  =========                 |
  \\      /  F ield         | OpenFOAM: The Open Source CFD Toolbox
   \\    /   O peration     | Website:  https://openfoam.org
    \\  /    A nd           | Version:  7
     \\/     M anipulation  |
\*---------------------------------------------------------------------------*/
FoamFile
{
    version     2.0;
    format      ascii;
    class       volScalarField;
    location    "0.041";
    object      nut;
}
// * * * * * * * * * * * * * * * * * * * * * * * * * * * * * * * * * * * * * //

dimensions      [0 2 -1 0 0 0 0];

internalField   nonuniform List<scalar> 
12225
(
0
0
0
0
0
0
0
0
0
0
0
0
0
0
0
0
0
0
0
0
0
0
0
0
0
0
0
0
0
0
0
0
0
0
0
0
0
0
2.3894e-10
0
0
0
0
0
0
0
0
0
0
0
0
0
0
0
4.00581e-08
1.4052e-08
9.18607e-09
2.93512e-09
4.44372e-10
0
0
0
0
0
0
0
0
0
0
0
0
0
0
2.10406e-07
7.66606e-08
0
0
3.6382e-09
1.48388e-09
0
0
0
0
0
0
0
0
0
0
0
0
4.71086e-07
2.50521e-07
9.87097e-08
5.43006e-08
6.47175e-08
7.51608e-08
5.4982e-08
2.87479e-08
1.19791e-08
6.46798e-09
3.38546e-09
0
0
0
0
0
0
0
4.83113e-07
4.94034e-07
2.6914e-07
6.86412e-08
1.04058e-07
1.17163e-07
5.99198e-08
6.57296e-09
0
0
0
0
0
3.55869e-09
6.18899e-09
2.40503e-09
0
1.68241e-07
5.25847e-07
5.08523e-07
2.53057e-07
4.33312e-08
9.12716e-08
1.05589e-07
8.42272e-08
6.337e-08
3.54213e-08
6.6986e-09
5.54159e-09
2.11674e-08
3.3437e-08
3.34762e-08
2.03543e-08
2.60325e-09
0
5.53921e-07
4.54548e-07
3.61765e-07
3.88426e-08
0
4.80947e-08
9.62248e-08
1.25707e-07
1.70371e-07
2.25373e-07
2.40064e-07
2.17633e-07
2.01398e-07
1.8123e-07
1.45105e-07
9.465e-08
4.43427e-08
8.56403e-09
6.45375e-07
3.55869e-07
2.70403e-07
0
0
5.51816e-08
1.06713e-07
1.65874e-07
2.60514e-07
3.78077e-07
3.36251e-07
2.11166e-07
1.28654e-07
1.00695e-07
1.01686e-07
1.03883e-07
8.59833e-08
4.59058e-08
4.86988e-07
2.55534e-07
2.03064e-07
5.29782e-08
4.82186e-07
8.95118e-07
3.53686e-07
0
0
9.71283e-08
1.16187e-07
7.62388e-08
4.5311e-08
3.61108e-08
3.84088e-08
3.47134e-08
1.76206e-08
1.21527e-09
5.34554e-07
3.00721e-07
2.6429e-07
4.64632e-07
1.25472e-06
1.05977e-06
0
0
0
2.06264e-08
7.9253e-08
7.46504e-08
5.48413e-08
3.36515e-08
7.01637e-09
0
0
0
5.62843e-07
5.07489e-07
3.06753e-07
3.74677e-07
2.77203e-07
0
0
0
0
7.15504e-09
4.23493e-08
0
0
0
0
0
0
0
4.86302e-07
3.74094e-07
1.9324e-07
0
0
0
2.3271e-08
1.84734e-07
1.14394e-07
0
0
0
0
0
0
0
0
0
3.70331e-07
2.01796e-07
1.82985e-08
0
0
0
1.06278e-06
1.33582e-06
7.56455e-07
1.33906e-07
0
0
0
0
0
0
0
0
0
0
0
7.71333e-08
7.3392e-07
1.32808e-06
1.87693e-06
1.81851e-06
6.91543e-07
0
0
2.30676e-08
3.88075e-08
2.24958e-08
2.75573e-08
5.06508e-08
5.50073e-08
4.39031e-08
0
0
0
2.98284e-07
1.21576e-06
1.30135e-06
1.32136e-06
2.51181e-07
0
0
0
8.42806e-08
1.25809e-07
1.17625e-07
8.10982e-08
4.31766e-08
2.35052e-08
2.67484e-08
0
0
1.48552e-07
2.06113e-07
1.00875e-06
5.69118e-07
0
0
0
0
0
0
0
9.31142e-09
3.61432e-08
4.68058e-08
5.23352e-08
7.10025e-08
0
0
1.37299e-07
1.31775e-07
0
0
0
0
0
0
0
0
0
0
0
0
0
0
0
0
0
0
4.88957e-08
9.06988e-08
5.65147e-08
1.46115e-08
0
0
0
0
0
0
0
0
0
0
4.7303e-07
2.1015e-07
0
0
0
6.28854e-08
4.06035e-08
0
0
0
0
0
0
0
0
0
0
0
7.34825e-07
6.56156e-07
8.77534e-08
0
0
0
0
0
0
0
0
0
0
0
0
0
5.60779e-08
9.30426e-08
0
0
0
0
0
0
0
0
0
0
0
0
0
0
0
0
0
3.55346e-08
0
0
0
0
1.01189e-07
1.29287e-07
0
0
0
0
0
0
0
0
0
0
0
0
0
0
0
0
0
2.53591e-07
1.81732e-07
6.98467e-08
9.11817e-08
1.19134e-07
7.71815e-08
0
0
0
0
0
0
0
0
0
0
0
0
0
0
0
5.68351e-09
4.57977e-08
5.4837e-08
1.50827e-08
0
0
0
0
0
0
8.70949e-09
0
0
0
0
0
0
0
0
0
0
0
0
0
0
0
0
0
6.7498e-09
0
0
0
0
0
0
0
0
0
0
0
0
0
0
0
0
0
7.79025e-09
0
0
0
0
0
0
0
0
0
0
0
0
0
0
0
0
0
6.10075e-08
0
0
0
0
0
0
0
0
0
0
0
0
0
0
0
0
0
2.91402e-08
7.59185e-08
2.08115e-09
0
0
0
0
0
0
0
0
0
0
0
0
0
0
0
0
4.09278e-08
1.19353e-07
2.31015e-07
3.71436e-07
5.65695e-07
7.49752e-07
7.00842e-07
5.86492e-07
8.73643e-07
1.12892e-07
2.54679e-07
3.44347e-06
1.00634e-05
1.6229e-05
1.01785e-05
2.23964e-06
4.16976e-07
4.75175e-08
0
0
1.76041e-08
4.13453e-08
5.30344e-08
5.23031e-08
4.80931e-08
3.86927e-08
3.12685e-08
2.16774e-08
1.55251e-08
1.00811e-08
5.87455e-09
2.77611e-09
1.85752e-10
0
0
0
0
0
0
0
0
0
0
0
0
0
0
0
0
0
0
0
0
0
0
0
0
0
0
0
0
0
0
0
0
0
0
0
0
0
0
0
0
0
0
0
0
0
0
0
0
0
0
0
0
0
0
0
0
0
0
0
0
0
0
0
0
0
0
0
0
0
0
0
0
0
0
0
0
0
0
0
0
0
0
0
0
0
0
0
0
0
0
0
0
0
0
0
0
0
0
0
0
0
0
0
0
0
0
0
0
0
0
0
0
0
0
0
0
0
0
0
0
0
0
0
0
0
0
0
0
1.04471e-08
1.02772e-07
1.95667e-07
7.54297e-08
0
0
0
0
0
0
0
0
0
0
0
0
0
0
0
1.88841e-07
4.62226e-07
7.08448e-07
9.3911e-07
1.12649e-06
1.22435e-06
9.41694e-07
1.86138e-07
0
0
0
0
0
3.46108e-08
6.20663e-07
4.99446e-07
2.31224e-07
4.65441e-08
0
0
3.42204e-09
2.31656e-08
3.39756e-08
3.6862e-08
3.65356e-08
3.34612e-08
2.9568e-08
2.48697e-08
2.00777e-08
1.50575e-08
1.00309e-08
5.09349e-09
3.62905e-10
0
0
0
0
0
0
0
0
0
0
0
0
0
0
0
0
0
0
0
0
0
0
0
0
0
0
0
0
0
0
0
0
0
0
0
0
0
0
0
0
0
0
0
0
0
0
0
0
0
0
0
0
0
0
0
0
0
0
0
0
0
0
0
0
0
0
0
0
0
0
0
0
0
0
0
0
0
0
0
0
0
0
0
0
0
0
0
0
0
0
0
0
0
0
0
0
0
0
0
0
0
0
0
0
0
0
0
0
0
0
0
0
0
0
0
0
0
0
0
0
0
0
0
0
0
0
0
0
0
2.09281e-08
1.54904e-07
2.56216e-07
2.28828e-07
2.00885e-07
1.65933e-07
1.23071e-07
6.94878e-08
0
0
0
0
0
0
0
0
0
5.52304e-07
1.69176e-06
2.03633e-06
1.756e-06
1.27737e-06
7.83719e-07
2.88503e-07
0
0
0
0
0
0
0
0
1.97926e-08
9.72325e-08
3.5351e-08
0
0
0
0
5.13439e-09
3.58371e-08
5.42846e-08
6.18202e-08
6.07213e-08
5.47403e-08
4.5779e-08
3.59106e-08
2.60587e-08
1.67781e-08
8.35542e-09
6.20039e-10
0
0
0
0
0
0
0
0
0
0
0
0
0
0
0
0
0
0
0
0
0
0
0
0
0
0
0
0
0
0
0
0
0
0
0
8.58729e-09
7.58833e-09
0
0
0
0
0
0
0
0
0
0
0
0
0
0
0
0
0
0
0
0
0
0
0
0
0
0
0
0
0
0
0
0
0
0
0
0
0
0
0
0
0
0
0
0
0
0
0
0
0
0
0
0
0
0
0
0
0
0
0
0
0
0
0
0
0
0
0
0
0
0
0
0
0
0
0
0
0
0
0
0
0
0
2.24036e-16
0
2.60706e-15
0
1.11215e-15
0
0
7.94604e-13
0
0
1.77437e-09
5.38635e-08
2.04218e-07
1.83573e-07
1.60585e-07
1.28704e-07
8.99144e-08
4.36997e-08
0
0
0
0
0
0
0
0
7.34604e-07
1.49574e-06
1.87852e-06
1.8131e-06
1.47421e-06
1.0259e-06
5.98855e-07
1.72442e-07
0
0
0
0
0
0
0
0
0
0
0
0
0
0
0
6.84335e-08
1.52208e-07
2.29891e-07
3.0307e-07
3.81514e-07
4.82712e-07
6.30606e-07
8.61249e-07
1.24075e-06
1.85785e-06
2.25729e-06
0
0
0
0
0
0
0
0
0
0
0
0
0
0
0
0
0
0
0
0
5.12827e-08
1.25652e-07
1.66931e-07
1.71193e-07
1.50911e-07
1.23012e-07
9.92629e-08
8.32716e-08
7.49122e-08
6.92123e-08
6.25188e-08
5.34681e-08
4.32188e-08
3.32153e-08
2.58913e-08
2.23568e-08
1.86335e-08
1.27003e-08
6.42271e-09
8.04488e-10
0
0
0
0
0
0
0
0
0
0
0
0
0
0
0
0
0
0
0
0
0
0
0
0
0
0
0
0
0
0
0
0
0
0
0
0
0
0
0
0
0
0
0
0
0
0
0
0
0
0
0
0
0
0
0
0
0
0
0
0
0
0
0
0
0
0
0
0
0
0
0
0
0
0
6.53822e-16
7.36879e-16
1.59403e-15
1.31176e-15
2.32901e-15
2.07556e-15
3.34661e-15
4.06831e-15
3.51108e-15
1.53631e-14
0
1.17365e-13
0
1.17465e-12
0
0
0
0
0
0
0
0
0
0
0
0
2.52543e-08
1.58275e-07
4.05499e-07
8.3009e-07
1.46131e-06
2.21677e-06
2.82699e-06
3.04737e-06
2.89216e-06
2.47858e-06
1.90751e-06
1.28467e-06
7.14355e-07
2.78591e-07
0
0
0
0
0
0
0
0
0
0
1.03689e-07
3.09804e-07
5.00416e-07
6.25627e-07
6.58184e-07
6.20403e-07
5.55601e-07
4.99847e-07
4.75901e-07
4.9817e-07
5.77931e-07
7.38917e-07
1.02183e-06
1.49537e-06
2.2096e-06
1.84502e-06
0
0
0
0
0
0
0
0
0
0
0
0
0
0
0
0
0
0
0
0
0
0
0
5.86105e-08
1.03921e-07
1.09014e-07
9.99134e-08
9.33386e-08
9.15591e-08
8.7253e-08
7.76203e-08
6.28124e-08
4.72472e-08
3.47196e-08
2.75427e-08
2.35205e-08
1.79886e-08
1.14798e-08
5.91695e-09
1.48705e-09
0
0
0
0
0
0
0
0
0
0
0
0
0
0
0
0
0
0
0
0
0
0
0
0
0
0
0
0
0
0
0
0
0
0
0
0
0
0
0
0
0
0
0
0
0
0
0
0
0
0
0
0
0
0
4.18787e-12
7.49435e-12
8.15621e-12
7.53268e-12
6.39226e-12
5.14381e-12
3.9922e-12
3.01594e-12
2.23293e-12
1.62813e-12
1.17453e-12
8.3944e-13
5.95304e-13
4.17429e-13
2.89327e-13
1.96869e-13
1.31494e-13
8.55472e-14
5.38976e-14
3.2724e-14
1.75112e-14
8.75571e-15
9.61417e-17
0
0
0
0
0
0
6.30705e-15
0
2.29601e-13
0
1.68226e-12
0
0
0
0
0
0
0
0
0
0
0
4.27552e-08
2.71678e-07
6.51316e-07
1.22836e-06
2.00438e-06
2.90877e-06
3.80286e-06
4.47494e-06
4.85034e-06
4.88537e-06
4.49121e-06
3.77194e-06
2.86445e-06
1.91124e-06
1.07342e-06
4.72168e-07
1.20113e-07
0
0
0
0
0
8.23768e-08
4.52166e-07
9.05961e-07
1.23567e-06
1.28327e-06
1.13911e-06
9.26542e-07
7.23794e-07
5.65395e-07
4.54336e-07
3.96213e-07
3.88365e-07
4.33692e-07
5.36223e-07
7.045e-07
9.49813e-07
1.25574e-06
1.44844e-06
8.88878e-07
0
0
0
0
0
0
0
0
0
0
0
0
0
0
0
0
0
0
0
0
0
0
0
0
0
0
0
3.55581e-08
8.18492e-08
1.01223e-07
9.68477e-08
7.6364e-08
5.39171e-08
3.86475e-08
3.16457e-08
2.60699e-08
1.90246e-08
1.2404e-08
6.87058e-09
2.09473e-09
0
0
0
0
0
0
0
0
0
0
0
0
0
0
0
0
0
0
0
0
0
0
0
0
0
0
0
0
0
0
0
0
0
0
0
0
0
0
0
0
0
0
0
0
0
0
0
0
0
0
0
0
0
0
0
0
0
0
0
0
0
0
0
0
0
0
0
0
0
0
4.34889e-14
5.55123e-14
2.59235e-14
8.23416e-15
0
0
0
0
0
2.39065e-14
0
1.82942e-13
1.1727e-13
2.65333e-12
7.07352e-13
1.87437e-11
0
1.98671e-11
0
0
0
0
0
0
0
0
0
0
0
0
0
4.86536e-08
3.73818e-07
8.20625e-07
1.35801e-06
1.95965e-06
2.5595e-06
3.10296e-06
3.52424e-06
3.61115e-06
3.45437e-06
2.96009e-06
2.32219e-06
1.60864e-06
1.04057e-06
6.83039e-07
5.11332e-07
4.64533e-07
5.47978e-07
6.85047e-07
7.33705e-07
6.409e-07
5.60512e-07
6.67373e-07
8.61502e-07
9.19648e-07
7.68724e-07
5.05685e-07
2.37029e-07
2.24866e-08
0
0
0
0
0
0
0
1.22387e-07
1.99949e-07
1.44772e-07
4.63314e-08
8.0472e-08
2.05052e-07
3.23382e-07
3.94404e-07
4.09229e-07
3.78673e-07
3.21092e-07
2.26716e-07
1.11717e-07
0
0
0
0
0
0
0
0
0
0
0
0
0
0
0
0
0
0
0
6.74844e-08
9.21013e-08
7.52494e-08
5.03319e-08
3.4682e-08
2.82014e-08
2.24989e-08
1.64208e-08
1.18105e-08
8.10625e-09
4.23199e-09
0
0
0
0
0
0
0
0
0
0
0
0
0
0
0
0
0
0
0
0
0
0
0
0
0
0
0
0
0
0
0
0
0
0
0
0
0
0
0
0
0
0
0
0
0
0
0
0
0
0
0
0
0
0
0
0
0
0
0
0
0
0
0
0
0
0
0
0
0
0
0
0
0
0
0
0
0
1.39386e-13
3.79017e-13
1.0719e-12
1.79204e-12
4.15435e-12
4.96326e-12
1.14335e-11
6.2489e-12
1.35139e-11
0
0
0
0
0
0
0
0
0
0
0
0
0
0
0
0
0
0
0
2.39798e-08
2.08201e-07
3.66831e-07
4.66478e-07
4.96755e-07
4.64256e-07
3.84689e-07
2.93255e-07
2.04655e-07
1.56823e-07
1.48037e-07
1.76119e-07
2.15399e-07
1.99812e-07
6.9949e-08
0
0
0
1.57112e-07
4.06667e-07
3.66746e-07
1.22177e-07
0
0
0
0
0
0
0
0
0
1.03879e-07
3.09951e-07
2.3086e-07
0
0
0
0
0
1.72452e-07
2.4631e-07
2.38788e-07
2.15704e-07
1.80692e-07
1.6666e-07
1.64049e-07
1.65276e-07
1.49499e-07
8.94252e-08
0
0
0
0
0
0
0
0
0
0
0
0
0
0
0
0
6.40057e-08
7.29368e-08
5.29702e-08
3.42719e-08
2.37718e-08
1.64147e-08
1.1133e-08
8.01602e-09
6.24667e-09
4.87411e-09
2.89154e-09
0
0
0
0
0
0
0
0
0
0
0
0
0
0
0
0
0
0
0
0
0
0
0
0
0
0
0
0
0
0
0
0
0
0
0
0
0
0
0
0
0
0
0
0
0
0
0
0
0
0
0
0
0
0
0
0
0
0
0
0
0
0
0
0
0
0
0
0
0
0
0
0
0
0
0
0
0
1.38667e-13
4.953e-13
9.26703e-13
2.06938e-12
2.46854e-12
4.96474e-12
1.88346e-12
1.60392e-12
0
0
0
0
0
0
0
0
0
0
0
0
0
0
0
0
0
0
0
0
0
0
0
0
0
0
0
0
1.46273e-08
5.10103e-08
8.47447e-08
8.39668e-08
1.1441e-08
0
0
0
0
1.24642e-07
1.15193e-07
0
0
0
0
0
0
0
0
0
3.43233e-07
1.08011e-06
2.08271e-06
2.98954e-06
2.1126e-06
0
0
0
0
1.86239e-08
4.61737e-07
6.26968e-07
5.69949e-07
4.6592e-07
2.89542e-07
1.62105e-07
7.12395e-08
2.353e-08
8.39011e-09
1.52379e-08
3.12299e-08
4.97656e-08
5.46401e-08
3.95828e-09
0
0
0
0
0
0
0
0
0
0
0
0
1.67408e-08
7.4338e-08
7.73751e-08
5.87909e-08
3.88037e-08
2.3887e-08
1.44174e-08
8.38641e-09
4.23813e-09
1.74231e-09
7.30641e-10
9.45716e-11
0
0
0
0
0
0
0
0
0
0
0
0
0
0
0
0
0
0
0
0
0
0
0
0
0
0
0
0
0
0
0
0
0
0
0
0
0
0
0
0
0
0
0
0
0
0
0
0
0
0
0
0
0
0
0
0
0
0
0
0
0
0
0
0
0
0
0
0
0
0
0
0
0
0
0
0
0
1.16042e-13
2.45161e-13
5.96078e-13
5.94093e-13
9.09149e-13
0
0
0
0
0
0
0
0
0
0
0
0
0
0
0
0
0
0
0
0
0
0
0
0
0
0
0
0
0
0
2.84576e-08
5.75816e-08
6.51879e-08
2.67948e-08
0
0
0
0
0
2.27639e-08
0
0
0
0
0
0
0
0
2.7867e-07
1.03148e-06
2.40284e-06
4.74985e-06
8.56038e-06
1.39741e-05
1.04586e-05
0
0
0
0
0
0
6.31757e-07
9.21978e-07
9.66414e-07
7.52226e-07
5.06689e-07
2.85314e-07
1.54324e-07
9.73805e-08
8.90532e-08
1.01412e-07
1.23737e-07
1.59761e-07
2.08117e-07
2.49831e-07
1.91349e-07
0
0
0
0
0
0
0
0
0
0
0
8.68227e-08
1.04077e-07
8.50545e-08
6.13789e-08
4.22182e-08
2.79265e-08
1.75848e-08
9.8113e-09
3.86073e-09
0
0
0
0
0
0
0
0
0
0
0
0
0
0
0
0
0
0
0
0
0
0
0
0
0
0
0
0
0
0
0
0
0
0
0
0
0
0
0
0
0
0
0
0
0
0
0
0
0
0
0
0
0
0
0
0
0
0
0
0
0
0
0
0
0
0
0
0
0
0
0
0
0
0
0
0
0
0
0
0
0
1.00472e-14
0
0
0
0
0
0
0
0
0
0
0
0
0
0
0
0
0
0
0
0
0
0
0
0
0
0
0
0
0
0
0
2.43605e-08
4.99001e-08
6.21838e-08
4.40023e-08
0
0
0
0
0
0
0
0
0
0
0
0
0
0
2.45372e-07
9.45571e-07
2.27182e-06
4.5258e-06
7.78386e-06
1.13031e-05
1.10735e-05
0
0
0
0
0
0
0
0
2.76153e-07
6.46952e-07
7.23719e-07
5.79508e-07
3.52319e-07
1.78324e-07
1.2589e-07
1.62458e-07
2.02454e-07
1.9954e-07
1.82755e-07
2.00333e-07
2.65578e-07
3.59202e-07
3.37553e-07
2.46359e-08
0
0
0
0
0
0
0
0
1.2526e-07
1.41151e-07
9.95074e-08
6.36457e-08
4.34914e-08
3.23201e-08
2.51263e-08
1.92792e-08
1.36073e-08
7.98845e-09
3.02622e-09
0
0
0
0
0
0
0
0
0
0
0
0
0
0
0
0
0
0
0
0
0
0
0
0
0
0
0
0
0
0
0
0
0
0
0
0
0
0
0
0
0
0
0
0
0
0
0
0
0
0
0
0
0
0
0
0
0
0
0
0
0
0
0
0
0
0
0
0
0
0
0
0
0
0
0
0
0
0
0
0
0
0
0
0
0
0
0
0
0
0
0
0
0
0
0
0
0
0
0
0
0
0
0
0
0
0
0
0
0
0
5.70003e-09
3.05157e-08
5.19744e-08
6.46213e-08
5.87273e-08
2.16773e-08
0
0
0
0
0
0
0
0
0
0
0
0
0
1.66762e-08
3.70576e-07
1.06896e-06
2.17802e-06
3.53997e-06
4.52531e-06
3.82668e-06
0
0
0
0
0
0
0
0
0
0
2.05875e-07
3.90159e-07
3.84608e-07
2.69718e-07
8.45783e-08
0
0
8.73706e-08
1.53233e-07
1.30921e-07
1.04807e-07
1.28531e-07
2.00128e-07
2.90968e-07
2.21529e-07
0
0
0
0
0
0
0
5.02674e-07
2.55751e-07
1.20689e-07
3.29282e-08
0
0
0
0
0
4.71573e-09
5.41056e-09
3.7488e-09
1.63513e-09
0
0
0
0
0
0
0
0
0
0
0
0
0
0
0
0
0
0
0
0
0
0
0
0
0
0
0
0
0
0
0
0
0
0
0
0
0
0
0
0
0
0
0
0
0
0
0
0
0
0
0
0
0
0
0
0
0
0
0
0
0
0
0
0
0
0
0
0
0
0
0
0
0
0
0
0
0
0
0
0
0
0
0
0
0
0
0
0
0
0
0
0
0
0
0
0
0
0
0
0
0
0
0
0
0
0
0
0
2.27881e-08
4.40096e-08
6.17692e-08
7.32679e-08
7.34116e-08
5.41274e-08
5.83558e-09
0
0
0
0
0
3.44511e-08
3.6011e-08
1.32298e-08
0
0
0
0
0
0
0
1.72516e-08
4.10838e-08
0
0
0
0
0
0
0
0
0
0
0
0
0
0
1.54812e-07
2.04075e-07
1.97733e-07
1.01406e-07
0
0
0
3.12373e-08
6.87177e-08
0
0
0
0
0
0
0
0
1.38683e-07
7.73779e-08
0
0
0
0
1.82233e-08
0
0
0
0
0
0
0
0
0
9.58143e-10
1.22559e-09
1.15571e-09
5.94343e-10
0
0
0
0
0
0
0
0
0
0
0
0
0
0
0
0
0
0
0
0
0
0
0
0
0
0
0
0
0
0
0
0
0
0
0
0
0
0
0
0
0
0
0
0
0
0
0
0
0
0
0
0
0
0
0
0
0
0
0
0
0
0
0
0
0
0
0
0
0
0
0
0
0
0
0
0
0
0
0
0
0
0
0
0
2.96827e-07
0
0
0
0
0
0
0
0
0
0
0
0
0
0
0
0
0
1.17034e-08
2.94076e-08
4.6563e-08
6.28889e-08
7.63702e-08
8.55017e-08
8.80551e-08
7.9932e-08
5.25e-08
2.34351e-09
0
0
0
0
2.32077e-08
7.78277e-08
1.19906e-07
1.49246e-07
1.53087e-07
1.24516e-07
7.42731e-08
8.76881e-09
0
0
0
0
0
0
0
0
0
0
0
0
0
0
0
0
0
0
0
4.61562e-08
4.30944e-08
3.77454e-08
5.23084e-08
0
0
0
0
2.80848e-08
0
0
0
0
0
0
5.0127e-08
1.09002e-07
7.04813e-08
0
0
0
0
0
0
8.05801e-09
0
0
0
0
0
0
0
0
0
1.71345e-09
2.66687e-09
3.53357e-09
3.57442e-09
1.09444e-09
0
0
0
0
0
0
0
0
0
0
0
0
0
0
6.84671e-10
0
0
0
0
0
0
0
0
0
0
0
0
0
0
0
0
0
0
0
0
0
0
0
0
0
0
0
0
0
0
0
0
0
0
0
0
0
0
0
0
0
0
0
0
0
0
0
0
0
0
0
0
0
0
0
0
0
0
0
0
0
0
0
0
0
0
0
7.26472e-07
0
0
0
0
0
0
0
0
0
0
0
0
0
0
1.52887e-08
4.84567e-08
7.24043e-08
8.8476e-08
9.91869e-08
1.06603e-07
1.12155e-07
1.14759e-07
1.12909e-07
1.04881e-07
8.56291e-08
5.04596e-08
2.49324e-10
0
0
0
0
3.49909e-08
1.11743e-07
1.96852e-07
2.82108e-07
3.62355e-07
4.00136e-07
3.8806e-07
3.21038e-07
1.75995e-07
0
0
0
0
0
0
0
0
0
0
0
0
0
6.06943e-08
2.30973e-07
1.88178e-07
1.28395e-07
8.34387e-08
4.4663e-08
0
0
0
0
0
0
0
2.82538e-08
6.81881e-08
0
0
0
0
0
1.64841e-07
2.19417e-07
1.26289e-07
0
0
0
0
0
2.02203e-08
5.5621e-08
4.5115e-08
3.20483e-08
2.6081e-08
2.2005e-08
1.50401e-08
6.34329e-09
9.02722e-10
1.26716e-09
4.59506e-09
6.2386e-09
5.47909e-09
5.20727e-09
6.6962e-09
7.05236e-09
2.98814e-09
0
0
0
0
0
0
0
0
0
0
0
0
0
2.20006e-09
6.57624e-09
0
0
0
0
0
0
0
0
0
0
0
0
0
0
0
0
0
0
0
0
0
0
0
0
0
0
0
0
0
0
0
0
0
0
0
0
0
0
0
0
0
0
0
0
0
0
0
0
0
0
0
0
0
0
0
0
0
0
0
0
0
0
0
0
0
0
2.39244e-07
0
0
0
0
0
0
0
0
0
0
0
0
3.97565e-09
3.51347e-08
7.56722e-08
1.16379e-07
1.51253e-07
1.74806e-07
1.85107e-07
1.85526e-07
1.81739e-07
1.7367e-07
1.59213e-07
1.37377e-07
1.04335e-07
5.74759e-08
0
0
0
0
0
6.09572e-09
1.03797e-07
2.21313e-07
3.55079e-07
4.86648e-07
6.06352e-07
6.79479e-07
6.95764e-07
5.82595e-07
3.43518e-07
0
0
0
0
0
0
0
0
0
0
4.34271e-06
5.92941e-06
4.71872e-06
2.94499e-06
1.52818e-06
6.69216e-07
2.17215e-07
1.58418e-08
0
0
0
3.68005e-08
2.54463e-08
0
0
9.37989e-09
1.51442e-07
0
0
0
0
0
0
1.96155e-07
2.42619e-07
1.45024e-07
0
0
0
0
1.18638e-07
1.30592e-07
1.08261e-07
8.23091e-08
6.55956e-08
5.55396e-08
4.60696e-08
3.54599e-08
2.64514e-08
2.12942e-08
1.92819e-08
1.74916e-08
1.33923e-08
8.8592e-09
7.69337e-09
9.44882e-09
8.2995e-09
1.7362e-09
0
0
2.49449e-09
4.51533e-09
1.58042e-09
0
0
0
1.80351e-09
0
0
0
0
4.33736e-09
6.3942e-09
0
0
0
0
0
0
0
0
0
0
0
0
0
0
0
0
0
0
0
0
0
0
0
0
0
0
0
0
0
0
0
0
0
0
0
0
0
0
0
0
0
0
0
0
0
0
0
0
0
0
0
0
0
0
0
0
0
0
0
0
0
0
0
0
0
0
1.52695e-07
2.57069e-07
2.17209e-07
1.05255e-07
1.37682e-09
0
0
0
0
1.03526e-08
2.5927e-08
4.15926e-08
5.7871e-08
7.78223e-08
1.0554e-07
1.43741e-07
1.81836e-07
2.14947e-07
2.40093e-07
2.54442e-07
2.52079e-07
2.36946e-07
2.10556e-07
1.77718e-07
1.35216e-07
8.01699e-08
1.56208e-08
0
0
0
0
0
2.64333e-08
1.46322e-07
2.96624e-07
4.4335e-07
6.12053e-07
7.28448e-07
8.11794e-07
8.24114e-07
7.00725e-07
4.42647e-07
0
0
0
0
0
0
0
0
8.64683e-06
1.29202e-05
8.92226e-06
5.20341e-06
2.66849e-06
1.26289e-06
5.35183e-07
1.35764e-07
0
0
0
0
5.31094e-08
8.66899e-08
0
0
0
1.28224e-07
8.107e-08
0
0
0
0
0
0
1.29783e-07
1.5345e-07
1.02771e-07
4.79369e-08
0
2.2336e-07
2.04441e-07
1.55615e-07
1.11586e-07
7.83236e-08
5.57549e-08
4.03404e-08
3.07853e-08
2.36424e-08
1.93377e-08
1.90032e-08
2.01379e-08
1.9848e-08
1.6792e-08
1.15723e-08
7.49875e-09
6.513e-09
6.6114e-09
2.77384e-09
0
0
3.55966e-09
8.40723e-09
7.95479e-09
2.59153e-09
0
0
2.45173e-09
6.51906e-09
2.39369e-09
0
0
0
4.5062e-09
2.14661e-09
0
0
0
0
0
0
0
0
0
0
0
0
0
0
0
0
0
0
0
0
0
0
0
0
0
0
0
0
0
0
0
0
0
0
0
0
0
0
0
0
0
0
0
0
0
0
0
0
0
0
0
0
0
0
0
0
0
0
0
0
0
0
0
0
2.77403e-06
1.64191e-06
9.07103e-07
5.63685e-07
3.46131e-07
1.42345e-07
2.21438e-08
0
0
0
2.26926e-08
4.73758e-08
7.2796e-08
9.31909e-08
1.09987e-07
1.2629e-07
1.46359e-07
1.75003e-07
2.06935e-07
2.35544e-07
2.58639e-07
2.73456e-07
2.7572e-07
2.58346e-07
2.24274e-07
1.78108e-07
1.23217e-07
5.86036e-08
0
0
0
0
0
0
2.01316e-08
1.43408e-07
2.92589e-07
4.47315e-07
6.07617e-07
7.06293e-07
8.04356e-07
7.80372e-07
7.24769e-07
4.82924e-07
5.04128e-08
0
0
0
0
0
0
8.67549e-06
7.50601e-06
4.40482e-06
2.36177e-06
1.15401e-06
5.15075e-07
1.82764e-07
0
0
0
4.72499e-08
4.72587e-08
6.43068e-08
1.14824e-07
5.01006e-08
0
0
3.35814e-09
5.72869e-08
0
0
0
0
0
0
0
7.14414e-08
5.87254e-08
4.82072e-08
1.48263e-07
3.28806e-07
2.40121e-07
1.67635e-07
1.08701e-07
6.33803e-08
3.2369e-08
1.3543e-08
4.02749e-09
1.49485e-09
2.19024e-09
4.39843e-09
7.98321e-09
1.08576e-08
1.16076e-08
1.04549e-08
8.02603e-09
5.50178e-09
3.04768e-09
6.21426e-10
0
0
1.48798e-09
8.23951e-09
9.52167e-09
5.72042e-09
2.63867e-11
0
1.40539e-10
5.25203e-09
8.65928e-09
4.32071e-09
0
0
1.38339e-09
3.01338e-09
0
0
0
0
0
0
0
0
0
0
0
0
0
0
0
0
0
0
0
0
0
0
0
0
0
0
0
0
0
0
0
0
0
0
0
0
0
0
0
0
0
0
0
0
0
0
0
0
0
0
0
0
0
0
0
0
0
0
0
0
0
0
0
0
1.18514e-06
1.91712e-06
1.55793e-06
9.8524e-07
7.79638e-07
6.8541e-07
4.68876e-07
1.877e-07
4.74371e-08
2.02723e-08
2.82128e-08
4.39633e-08
6.42138e-08
8.87948e-08
1.12299e-07
1.28143e-07
1.4072e-07
1.53251e-07
1.70026e-07
1.91757e-07
2.1439e-07
2.32535e-07
2.43284e-07
2.45497e-07
2.34958e-07
2.05527e-07
1.61361e-07
1.06677e-07
4.37668e-08
0
0
0
0
0
0
0
7.36914e-08
1.95394e-07
3.36301e-07
4.46099e-07
5.62234e-07
6.02543e-07
6.42362e-07
5.80843e-07
4.80865e-07
2.49572e-07
0
0
0
0
0
1.46508e-06
1.65498e-06
1.14102e-06
6.40816e-07
3.14296e-07
1.32123e-07
2.83474e-08
0
0
7.68286e-08
1.54516e-07
1.18318e-07
2.7278e-08
4.22821e-08
6.48143e-08
0
0
0
9.9062e-09
0
0
0
0
0
0
0
9.74495e-08
4.21896e-08
4.44823e-08
1.39959e-07
2.12741e-07
2.09888e-07
1.61139e-07
1.09807e-07
7.54986e-08
5.32593e-08
3.75032e-08
2.51289e-08
1.79178e-08
1.59872e-08
1.47465e-08
1.35145e-08
1.32446e-08
1.29174e-08
1.28188e-08
1.25828e-08
1.13954e-08
7.81005e-09
2.63062e-09
0
0
9.00186e-10
8.60045e-09
1.00678e-08
6.92152e-09
1.46952e-09
0
0
2.55413e-09
7.23196e-09
9.35303e-09
4.99774e-09
5.12464e-10
8.38597e-10
2.70096e-09
3.1932e-10
0
0
0
0
0
0
0
0
0
0
0
0
0
0
0
0
0
0
0
0
0
0
0
0
0
0
0
0
0
0
0
0
0
0
0
0
0
0
0
0
0
0
0
0
0
0
0
0
0
0
0
0
0
0
0
0
0
0
0
0
0
0
0
2.99255e-07
8.54624e-07
1.27601e-06
4.80437e-07
2.62725e-07
4.8589e-07
6.61831e-07
5.17569e-07
2.34265e-07
7.84265e-08
0
0
3.37522e-08
5.49541e-08
7.40772e-08
9.5529e-08
1.09399e-07
1.1835e-07
1.2512e-07
1.32474e-07
1.43242e-07
1.56354e-07
1.68422e-07
1.76097e-07
1.77616e-07
1.70599e-07
1.54055e-07
1.23711e-07
8.03147e-08
2.81636e-08
0
0
0
0
0
0
0
0
6.23439e-08
1.42994e-07
2.29123e-07
2.88313e-07
3.49648e-07
3.66338e-07
3.80237e-07
3.45253e-07
2.82936e-07
2.00834e-07
1.13559e-07
7.84421e-08
1.31513e-07
2.18916e-07
2.23256e-07
1.55841e-07
9.98944e-08
5.94626e-08
2.83989e-08
4.00647e-10
0
7.22355e-08
1.98103e-07
1.85868e-07
2.86829e-08
0
0
1.08473e-07
0
0
0
0
0
0
0
0
0
0
0
0
4.4485e-08
4.57103e-08
7.09721e-08
1.0356e-07
1.09669e-07
9.90511e-08
9.10861e-08
8.80427e-08
7.98435e-08
6.8996e-08
5.63113e-08
4.41592e-08
3.67591e-08
3.19226e-08
2.76384e-08
2.52266e-08
2.38036e-08
2.22534e-08
2.14869e-08
2.10894e-08
1.9312e-08
1.33465e-08
6.46166e-09
2.70339e-09
4.02775e-09
1.10329e-08
1.28381e-08
8.15125e-09
2.6425e-09
0
0
1.31982e-09
4.28241e-09
8.35261e-09
8.62753e-09
4.47213e-09
1.8077e-09
1.94123e-09
1.11648e-09
0
0
0
0
0
0
0
0
0
0
0
0
0
0
0
0
0
0
0
0
0
0
0
0
0
0
0
0
0
0
0
0
0
0
0
0
0
0
0
0
0
0
0
0
0
0
0
0
0
0
0
0
0
0
0
0
0
0
0
0
0
0
0
4.54972e-08
2.77877e-07
6.51527e-07
0
0
0
0
0
0
0
0
0
0
1.91096e-08
3.49736e-08
4.70344e-08
5.93243e-08
6.90521e-08
7.40708e-08
7.76729e-08
8.05131e-08
8.33963e-08
8.75678e-08
9.30672e-08
9.81039e-08
9.96121e-08
9.69082e-08
8.7483e-08
6.98676e-08
4.13314e-08
2.85057e-09
0
0
0
0
0
0
0
0
0
0
1.40921e-08
4.39587e-08
6.84083e-08
9.20259e-08
1.08172e-07
1.18581e-07
1.2431e-07
1.13775e-07
8.57424e-08
2.6674e-08
0
0
0
0
1.75453e-08
1.69077e-08
3.31803e-08
1.19932e-07
2.58248e-07
2.94169e-07
1.70923e-07
0
0
1.11622e-07
6.46866e-08
0
0
0
0
0
0
0
0
0
0
0
0
0
5.17779e-08
6.95409e-08
8.95955e-08
1.0508e-07
1.12979e-07
1.15667e-07
1.16307e-07
1.05849e-07
9.08089e-08
7.30992e-08
5.7573e-08
4.82946e-08
4.23483e-08
3.73753e-08
3.42501e-08
3.30122e-08
3.1849e-08
3.11512e-08
3.13573e-08
3.16185e-08
2.80204e-08
1.97611e-08
1.27602e-08
1.0813e-08
1.52476e-08
1.8018e-08
1.1642e-08
4.40006e-09
0
0
1.71438e-10
2.07833e-09
5.30289e-09
8.28677e-09
6.50569e-09
2.77584e-09
4.38809e-10
0
0
0
0
0
0
0
0
0
0
0
0
0
0
0
0
0
0
0
0
0
0
0
0
0
0
0
0
0
0
0
0
0
0
0
0
0
0
0
0
0
0
0
0
0
0
0
0
0
0
0
0
0
0
0
0
0
0
0
0
0
0
0
0
0
0
0
0
0
0
0
0
0
0
0
0
0
0
1.84578e-10
1.01773e-08
1.54462e-08
1.85229e-08
2.13617e-08
2.41499e-08
2.56395e-08
2.51229e-08
2.31827e-08
2.14157e-08
2.05827e-08
2.04959e-08
2.00951e-08
1.83068e-08
1.46454e-08
7.38687e-09
0
0
0
0
0
0
0
0
0
0
0
0
0
0
0
0
0
0
0
0
0
0
0
0
0
0
1.32669e-08
1.42682e-07
3.3073e-07
4.05524e-07
3.28122e-07
1.33374e-07
5.22242e-08
1.97311e-07
9.7979e-08
3.21325e-08
0
0
0
0
0
0
0
0
0
0
0
0
0
6.40124e-08
7.874e-08
9.01722e-08
1.08435e-07
1.19971e-07
1.15936e-07
1.05369e-07
9.7358e-08
8.69615e-08
7.24667e-08
5.82038e-08
5.04437e-08
4.71507e-08
4.51737e-08
4.32131e-08
4.1742e-08
4.01269e-08
3.90598e-08
3.97734e-08
4.20046e-08
4.19211e-08
3.53086e-08
2.59899e-08
2.04686e-08
2.13881e-08
2.41942e-08
1.79594e-08
8.07017e-09
1.44385e-09
0
0
8.41021e-10
2.7162e-09
6.38047e-09
6.5136e-09
2.95414e-09
0
0
0
0
0
0
0
0
0
0
0
0
0
0
0
0
0
0
0
0
0
0
0
0
0
0
0
0
0
0
0
0
0
0
0
0
0
0
0
0
0
0
0
0
0
0
0
0
0
0
0
0
0
0
0
0
0
0
0
0
0
0
0
0
0
0
0
0
0
0
0
0
0
0
0
0
0
0
0
0
0
0
0
0
0
0
0
0
0
0
0
0
0
0
0
0
0
0
0
0
0
0
0
0
0
0
0
0
0
0
0
0
0
0
2.27014e-08
0
0
0
0
0
0
6.41583e-08
3.34511e-07
4.95277e-07
4.57489e-07
2.75342e-07
9.62182e-08
5.1693e-07
2.62089e-07
9.49468e-08
2.24759e-08
0
0
0
0
0
0
0
0
0
0
0
0
0
9.68797e-08
1.01784e-07
9.72925e-08
1.01215e-07
1.03405e-07
9.64732e-08
8.53737e-08
7.81946e-08
7.63333e-08
7.33399e-08
6.48184e-08
5.59772e-08
5.12597e-08
5.01801e-08
5.14273e-08
5.18593e-08
4.97149e-08
4.67396e-08
4.62732e-08
4.92792e-08
5.24363e-08
4.94158e-08
4.05726e-08
3.23104e-08
2.96495e-08
3.08559e-08
2.55108e-08
1.38503e-08
5.32006e-09
4.60772e-10
0
7.82016e-10
1.4881e-09
5.04465e-09
6.20067e-09
2.75174e-09
0
0
0
0
0
0
0
0
0
0
0
0
0
0
0
0
0
0
0
0
0
0
0
0
0
0
0
0
0
0
0
0
0
0
0
0
0
0
0
0
0
0
0
0
0
0
0
0
0
0
0
0
0
0
0
0
0
0
0
0
0
0
0
0
0
0
0
3.9531e-07
9.21165e-07
0
0
0
0
0
0
0
0
0
0
0
0
0
0
0
0
0
0
0
0
0
0
0
0
0
0
0
0
0
0
0
0
0
0
0
0
0
0
0
0
0
0
0
0
3.34269e-08
1.73526e-07
3.45699e-07
0
0
0
0
0
2.0599e-07
5.18039e-07
5.71192e-07
4.13563e-07
7.99075e-08
5.11624e-07
6.59829e-07
3.62693e-07
1.20802e-07
1.90061e-08
0
0
0
0
0
0
0
2.04269e-07
1.19526e-06
0
0
0
1.03753e-08
1.46055e-07
1.40844e-07
1.25651e-07
1.19759e-07
1.15288e-07
1.05255e-07
9.16479e-08
8.1393e-08
7.82237e-08
7.96441e-08
7.87567e-08
7.22553e-08
6.43361e-08
5.88527e-08
5.7816e-08
5.95713e-08
5.85878e-08
5.42042e-08
5.15162e-08
5.34884e-08
5.84766e-08
5.91887e-08
5.31857e-08
4.48575e-08
3.95263e-08
3.81984e-08
3.2812e-08
2.03986e-08
9.96806e-09
4.08494e-09
1.72788e-09
1.86411e-09
1.74093e-09
5.01687e-09
6.90091e-09
3.25987e-09
0
0
0
0
0
0
0
0
0
0
0
0
0
0
0
0
0
0
0
0
0
0
0
0
0
0
0
0
0
0
0
0
0
0
0
0
0
0
0
0
0
0
0
0
0
0
0
0
0
0
0
0
0
0
0
0
0
0
0
0
0
0
0
0
0
0
2.18073e-07
2.81286e-07
1.50244e-07
0
0
0
0
0
0
0
0
0
0
0
0
0
0
0
0
0
0
0
0
0
0
0
0
0
0
0
0
0
0
0
0
0
0
0
0
0
0
0
0
0
0
0
0
0
6.94186e-08
2.25716e-07
1.47147e-07
0
0
0
0
3.90703e-07
6.26659e-07
5.63185e-07
2.43145e-07
0
1.01301e-06
8.39777e-07
5.12827e-07
1.73667e-07
2.12289e-08
0
0
0
0
0
0
0
6.68594e-07
2.3822e-06
3.81738e-07
0
0
8.41793e-08
1.75997e-07
1.62079e-07
1.4254e-07
1.33667e-07
1.27855e-07
1.19217e-07
1.07502e-07
9.63867e-08
9.01508e-08
9.00841e-08
9.09024e-08
8.78966e-08
8.10943e-08
7.38424e-08
6.83087e-08
6.72611e-08
6.59584e-08
6.08089e-08
5.57936e-08
5.547e-08
6.03252e-08
6.38769e-08
6.13263e-08
5.55838e-08
4.98375e-08
4.6301e-08
3.96067e-08
2.6314e-08
1.44319e-08
7.61096e-09
4.42932e-09
3.72672e-09
3.19253e-09
6.29973e-09
8.98768e-09
5.15596e-09
0
0
0
0
0
0
0
0
0
0
0
0
0
0
0
0
0
0
0
0
0
0
0
0
0
0
0
0
0
0
0
0
0
0
0
0
0
0
0
0
0
0
0
0
0
0
0
0
0
0
0
0
0
0
0
0
0
0
0
0
0
0
0
0
0
0
5.06902e-09
5.48432e-10
0
0
0
0
0
0
0
0
0
0
0
0
0
0
0
0
0
0
0
0
0
0
0
0
0
0
0
0
0
0
0
0
0
0
0
0
0
0
0
0
0
0
0
0
0
0
0
0
4.81377e-08
0
0
0
1.42061e-07
5.47629e-07
6.50496e-07
4.7674e-07
0
7.53197e-09
1.27065e-06
1.06617e-06
6.69238e-07
2.33007e-07
3.20525e-08
0
0
0
3.9319e-11
3.64017e-08
4.41365e-08
1.11766e-07
9.76464e-07
1.90072e-06
1.30622e-06
0
0
1.65915e-07
2.00815e-07
1.74968e-07
1.50379e-07
1.36463e-07
1.30725e-07
1.25767e-07
1.18641e-07
1.10403e-07
1.04773e-07
1.03384e-07
1.02779e-07
9.9604e-08
9.3701e-08
8.68437e-08
7.94027e-08
7.52657e-08
7.24776e-08
6.68599e-08
6.0067e-08
5.68651e-08
5.94655e-08
6.38525e-08
6.40976e-08
6.15238e-08
5.81757e-08
5.39968e-08
4.5866e-08
3.09751e-08
1.77106e-08
1.01321e-08
6.59192e-09
5.49519e-09
4.99193e-09
8.23618e-09
1.19657e-08
8.20455e-09
5.01779e-10
0
0
0
0
0
0
0
0
0
0
0
0
0
0
0
0
0
0
0
0
0
0
0
0
0
0
0
0
0
0
0
0
0
0
0
0
0
0
0
0
0
0
0
0
0
0
0
0
0
0
0
0
0
0
0
0
0
0
0
0
0
0
0
0
0
0
1.08568e-08
2.11746e-08
1.07891e-08
0
0
0
0
0
0
0
0
0
0
0
0
0
0
0
0
0
0
0
0
0
0
0
0
0
0
0
0
0
0
0
0
0
0
0
0
0
0
0
0
0
0
0
0
0
0
0
0
1.05494e-07
0
4.53742e-07
6.19843e-07
5.93553e-07
3.13282e-07
0
9.78571e-07
1.44753e-06
1.33591e-06
7.43816e-07
1.79063e-07
5.07193e-08
0
0
0
2.53136e-08
7.21709e-08
1.12916e-07
2.99816e-07
8.64047e-07
1.21578e-06
1.37282e-06
0
5.09328e-08
2.0598e-07
2.1362e-07
1.87947e-07
1.61797e-07
1.42868e-07
1.30862e-07
1.2439e-07
1.20489e-07
1.1697e-07
1.14101e-07
1.13084e-07
1.10897e-07
1.068e-07
1.01161e-07
9.46576e-08
8.6018e-08
7.91139e-08
7.45665e-08
6.92602e-08
6.24112e-08
5.72034e-08
5.6782e-08
5.95995e-08
6.09673e-08
6.07806e-08
6.0376e-08
5.78823e-08
4.95731e-08
3.34544e-08
1.8923e-08
1.08603e-08
7.07338e-09
5.86034e-09
5.90403e-09
9.75845e-09
1.47442e-08
1.14491e-08
2.29027e-09
0
0
0
0
0
0
0
0
0
0
0
0
0
0
0
0
0
0
0
0
0
0
0
0
0
0
0
0
0
0
0
0
0
0
0
0
0
0
0
0
0
0
0
0
0
0
0
0
0
0
0
0
0
0
0
0
0
0
0
0
0
0
0
0
0
0
2.52748e-09
1.80385e-08
2.78746e-08
1.19049e-08
0
0
0
0
0
0
0
0
0
0
0
0
0
0
0
0
0
0
0
0
0
0
0
0
0
0
1.11684e-07
0
0
0
0
0
0
0
0
0
0
0
0
0
0
0
0
0
0
0
0
0
6.7694e-07
6.8447e-07
5.80061e-07
4.80361e-07
7.34225e-08
0
1.28723e-06
1.62127e-06
1.53133e-06
5.61956e-07
1.13489e-07
6.83592e-08
3.97195e-08
0
0
0
3.34995e-08
9.39025e-08
2.991e-07
4.67649e-07
6.4634e-07
6.01585e-07
0
1.66761e-07
2.20796e-07
2.14929e-07
1.91148e-07
1.68389e-07
1.50226e-07
1.36001e-07
1.26304e-07
1.21592e-07
1.20272e-07
1.19992e-07
1.18942e-07
1.14713e-07
1.09394e-07
1.04689e-07
1.00042e-07
9.24871e-08
8.30244e-08
7.58838e-08
7.0348e-08
6.44903e-08
5.88678e-08
5.57363e-08
5.58005e-08
5.64247e-08
5.74517e-08
5.92668e-08
5.96738e-08
5.26642e-08
3.58271e-08
1.95136e-08
1.06087e-08
6.18496e-09
4.53894e-09
5.39368e-09
1.0644e-08
1.75219e-08
1.52682e-08
4.81503e-09
0
0
0
0
0
0
0
0
0
0
0
0
0
0
0
0
0
0
0
0
0
0
0
0
0
0
0
0
0
0
0
0
0
0
0
0
0
0
0
0
0
0
0
0
0
0
0
0
0
0
0
0
0
0
0
0
0
0
0
0
0
0
0
0
3.76541e-10
0
0
2.62608e-09
6.23462e-09
4.40715e-09
0
0
0
0
0
0
0
0
0
0
0
0
0
0
0
0
0
0
0
0
0
0
0
0
4.58054e-08
3.04665e-07
3.55231e-07
7.16781e-08
0
0
0
0
0
0
0
0
0
0
0
0
0
0
0
0
0
0
0
0
7.62487e-07
7.78921e-07
5.08234e-07
3.6907e-07
0
7.69761e-07
1.31767e-06
1.73122e-06
1.461e-06
2.96476e-07
9.13122e-08
7.21837e-08
5.09671e-08
2.35777e-08
1.14746e-08
0
0
2.2673e-08
9.63323e-08
1.13367e-07
1.76843e-07
3.06544e-08
1.26575e-07
2.00885e-07
2.13686e-07
2.01258e-07
1.77441e-07
1.59565e-07
1.46704e-07
1.34209e-07
1.2281e-07
1.15976e-07
1.14679e-07
1.16411e-07
1.16155e-07
1.09898e-07
1.02173e-07
9.78879e-08
9.54312e-08
9.15864e-08
8.27629e-08
7.42745e-08
6.83703e-08
6.35097e-08
5.85018e-08
5.39985e-08
5.087e-08
4.912e-08
4.96436e-08
5.25218e-08
5.53641e-08
5.19654e-08
3.65463e-08
1.904e-08
9.34009e-09
4.3139e-09
2.14402e-09
3.35442e-09
9.55046e-09
1.85663e-08
1.86907e-08
8.33664e-09
0
0
0
0
0
0
0
0
0
0
0
0
0
0
0
0
0
0
0
0
0
0