/*--------------------------------*- C++ -*----------------------------------*\
  =========                 |
  \\      /  F ield         | OpenFOAM: The Open Source CFD Toolbox
   \\    /   O peration     | Website:  https://openfoam.org
    \\  /    A nd           | Version:  7
     \\/     M anipulation  |
\*---------------------------------------------------------------------------*/
FoamFile
{
    version     2.0;
    format      ascii;
    class       volScalarField;
    location    "0.041";
    object      p;
}
// * * * * * * * * * * * * * * * * * * * * * * * * * * * * * * * * * * * * * //

dimensions      [0 2 -2 0 0 0 0];

internalField   nonuniform List<scalar> 
12225
(
-30.6185
-26.6757
-24.8958
-23.9195
-23.2347
-22.6918
-22.2582
-21.9046
-21.5973
-21.322
-21.0776
-20.8563
-20.6427
-20.4208
-20.1875
-19.9451
-19.7056
-19.4356
-30.1285
-26.5909
-24.878
-23.9086
-23.232
-22.6929
-22.2592
-21.9049
-21.5971
-21.3214
-21.077
-20.8564
-20.6437
-20.4222
-20.1884
-19.9469
-19.7063
-19.4318
-28.8675
-26.4585
-24.852
-23.8876
-23.2215
-22.6919
-22.2602
-21.9038
-21.595
-21.3199
-21.0749
-20.8517
-20.6363
-20.4161
-20.1871
-19.9547
-19.7226
-19.4886
-27.8902
-26.2363
-24.7804
-23.8436
-23.1946
-22.678
-22.2511
-21.8951
-21.5875
-21.3139
-21.0688
-20.8449
-20.6305
-20.4154
-20.1951
-19.9739
-19.7567
-19.547
-27.6825
-25.9976
-24.6837
-23.7883
-23.1574
-22.657
-22.2391
-21.8859
-21.5796
-21.3075
-21.0637
-20.841
-20.6288
-20.4181
-20.2056
-19.9955
-19.7922
-19.6005
-26.7747
-25.71
-24.553
-23.7119
-23.1065
-22.6243
-22.2171
-21.8689
-21.5659
-21.2969
-21.0556
-20.835
-20.6257
-20.4207
-20.2173
-20.0189
-19.8293
-19.6527
-26.8834
-25.4125
-24.3931
-23.6167
-23.0386
-22.5775
-22.1855
-21.846
-21.5485
-21.2839
-21.0461
-20.8287
-20.6239
-20.4254
-20.2313
-20.0441
-19.8668
-19.7029
-26.4053
-25.0518
-24.1916
-23.4962
-22.96
-22.5232
-22.1467
-21.8172
-21.5265
-21.2672
-21.0338
-20.8209
-20.6219
-20.4312
-20.247
-20.071
-19.9053
-19.7528
-25.9751
-24.6136
-23.9681
-23.3605
-22.8643
-22.4525
-22.0944
-21.7785
-21.4977
-21.246
-21.0191
-20.8127
-20.6207
-20.4379
-20.2629
-20.0971
-19.9425
-19.8008
-23.6238
-24.0413
-23.6968
-23.201
-22.756
-22.3709
-22.03
-21.7285
-21.46
-21.2182
-20.9996
-20.8008
-20.617
-20.4434
-20.2789
-20.1241
-19.9806
-19.8502
-22.212
-23.5518
-23.4419
-23.0356
-22.6334
-22.2752
-21.9561
-21.673
-21.4191
-21.1882
-20.9785
-20.788
-20.6129
-20.4489
-20.2946
-20.1503
-20.017
-19.8947
-23.1623
-23.3003
-23.2154
-22.8714
-22.5107
-22.1775
-21.8769
-21.6092
-21.3688
-21.1502
-20.9517
-20.7717
-20.6062
-20.4517
-20.3069
-20.1726
-20.0494
-19.9388
-21.9578
-23.0193
-23.0345
-22.7136
-22.3804
-22.0684
-21.7885
-21.5404
-21.3161
-21.1105
-20.9232
-20.7532
-20.5974
-20.4528
-20.3182
-20.1942
-20.0808
-19.9785
-21.897
-22.958
-22.861
-22.527
-22.2181
-21.9318
-21.6761
-21.4494
-21.244
-21.056
-20.885
-20.7292
-20.5856
-20.452
-20.3281
-20.2149
-20.1125
-20.0211
-24.5777
-23.2585
-22.7106
-22.3226
-22.0212
-21.7559
-21.5271
-21.3273
-21.1457
-20.979
-20.8272
-20.6891
-20.562
-20.4441
-20.3354
-20.2362
-20.1462
-20.0651
-25.0818
-23.2822
-22.4462
-22.0277
-21.7436
-21.5181
-21.3374
-21.1793
-21.0304
-20.8914
-20.7634
-20.645
-20.5345
-20.4317
-20.3371
-20.2512
-20.174
-20.105
-24.5794
-22.5015
-21.811
-21.5374
-21.3596
-21.2096
-21.0856
-20.9735
-20.863
-20.757
-20.6586
-20.5668
-20.4804
-20.4001
-20.3263
-20.2592
-20.1982
-20.1433
-18.0577
-20.1434
-20.6579
-20.815
-20.8466
-20.8199
-20.7844
-20.7396
-20.6805
-20.6159
-20.5517
-20.4877
-20.4243
-20.3638
-20.3075
-20.2558
-20.2086
-20.166
-20.6319
-19.7339
-19.8498
-20.1004
-20.2856
-20.3875
-20.4414
-20.4582
-20.4487
-20.4275
-20.4004
-20.3687
-20.3349
-20.3016
-20.2701
-20.2406
-20.2135
-20.1893
-13.4619
-17.5053
-18.9562
-19.6078
-19.9503
-20.1249
-20.2172
-20.2681
-20.2925
-20.298
-20.2916
-20.2783
-20.2611
-20.2419
-20.2222
-20.2029
-20.1844
-20.167
-17.1781
-18.5707
-19.2206
-19.6102
-19.8672
-20.0222
-20.1142
-20.1703
-20.2034
-20.2211
-20.2287
-20.2291
-20.224
-20.2156
-20.206
-20.197
-20.1891
-20.1829
-22.0812
-19.9048
-19.6819
-19.7623
-19.8863
-19.9812
-20.0466
-20.0936
-20.1265
-20.1484
-20.162
-20.1693
-20.1716
-20.1702
-20.1665
-20.1629
-20.1574
-20.1521
-19.6071
-20.2106
-19.9571
-19.9113
-19.9512
-20.0064
-20.0525
-20.0892
-20.119
-20.1406
-20.1543
-20.1624
-20.1672
-20.169
-20.1666
-20.1711
-20.1636
-20.1609
-22.8127
-20.4261
-19.9745
-19.9005
-19.914
-19.9463
-19.9815
-20.0185
-20.0552
-20.085
-20.106
-20.1198
-20.1283
-20.1315
-20.1343
-20.1292
-20.1388
-20.145
-21.4155
-20.2703
-19.9951
-19.9739
-19.9758
-19.9872
-20.013
-20.0426
-20.0726
-20.0954
-20.1101
-20.1205
-20.1261
-20.1305
-20.1343
-20.1363
-20.1417
-20.1472
-19.8227
-19.7686
-19.8099
-19.8696
-19.8904
-19.9045
-19.937
-19.991
-20.0328
-20.0612
-20.0817
-20.095
-20.1057
-20.1134
-20.1194
-20.1253
-20.1331
-20.1418
-18.6339
-19.3896
-19.7818
-19.9016
-19.9144
-19.9287
-19.9597
-19.996
-20.0332
-20.0621
-20.081
-20.0949
-20.1048
-20.1121
-20.1182
-20.1249
-20.1336
-20.1439
-18.0968
-19.086
-19.665
-19.8282
-19.854
-19.883
-19.931
-19.978
-20.0172
-20.0466
-20.0677
-20.0834
-20.0946
-20.1025
-20.1094
-20.1181
-20.13
-20.1439
-17.2732
-18.9592
-19.663
-19.8165
-19.8487
-19.8858
-19.9375
-19.9852
-20.021
-20.0463
-20.0657
-20.0815
-20.0927
-20.0992
-20.1044
-20.1123
-20.1261
-20.1448
-16.2297
-18.8865
-19.6591
-19.7819
-19.8275
-19.8762
-19.9314
-19.98
-20.0154
-20.0399
-20.0592
-20.0755
-20.0874
-20.0946
-20.1003
-20.1089
-20.1239
-20.1437
-19.0834
-19.0799
-19.0932
-19.1243
-19.1753
-19.2469
-19.3397
-19.4546
-19.5928
-19.7549
-19.9408
-20.1487
-20.3747
-20.6116
-20.8492
-21.0739
-21.2696
-21.4194
-21.5076
-21.526
-21.4686
-21.3392
-21.1518
-20.9297
-20.7016
-20.4918
-20.3264
-20.2143
-20.0809
-19.9464
-19.8927
-19.8917
-19.8177
-19.6318
-19.3976
-19.36
-19.5601
-19.971
-20.5356
-21.2021
-21.9254
-22.6695
-23.406
-24.1128
-24.7725
-25.3709
-25.8963
-26.339
-26.6913
-26.9474
-27.1036
-27.1588
-27.1142
-26.9715
-26.7359
-26.4158
-26.0216
-25.5645
-25.0555
-24.505
-23.9229
-23.3174
-22.6953
-22.0619
-21.4209
-20.7749
-20.1261
-19.4765
-18.8289
-18.1869
-17.5542
-16.9336
-16.3257
-15.7287
-15.1395
-14.5555
-13.976
-13.4027
-12.84
-12.2945
-11.7738
-11.2854
-10.8352
-10.4271
-10.0629
-9.74187
-9.46177
-9.21905
-9.01366
-8.83514
-8.6824
-8.55131
-8.43843
-8.34068
-8.25537
-8.18015
-8.11303
-8.05228
-7.99645
-7.94428
-7.89475
-7.84697
-7.80019
-7.7538
-7.70728
-7.66021
-7.61226
-7.56314
-7.51267
-7.46069
-7.40713
-7.35192
-7.29506
-7.23657
-7.17647
-7.11481
-7.05165
-6.98705
-6.92102
-6.85366
-6.78508
-6.71527
-6.64422
-6.57196
-6.49851
-6.42387
-6.34809
-6.27117
-6.19317
-6.1141
-6.034
-5.95291
-5.87087
-5.7879
-5.70403
-5.61929
-5.53372
-5.44736
-5.36022
-5.27233
-5.18369
-5.09431
-5.00422
-4.91339
-4.82184
-4.72956
-4.63654
-4.54277
-4.44827
-4.35302
-4.25702
-4.16026
-4.06275
-3.96446
-3.86538
-3.7655
-3.66481
-3.56328
-3.46091
-3.35765
-3.2535
-3.14841
-3.04235
-2.93527
-2.82711
-2.71779
-2.60725
-2.49532
-2.38192
-2.26679
-2.1498
-2.03047
-1.90865
-1.78346
-1.65468
-1.5208
-1.38132
-1.23482
-1.07863
-0.921461
-19.1023
-19.106
-19.1261
-19.1629
-19.2171
-19.2902
-19.3842
-19.501
-19.6426
-19.8104
-20.0051
-20.2257
-20.469
-20.7283
-20.9935
-21.2507
-21.4831
-21.6713
-21.7967
-21.8407
-21.7947
-21.6587
-21.4455
-21.1795
-20.8906
-20.6158
-20.3774
-20.1848
-20.0222
-19.8147
-19.5948
-19.6767
-19.8911
-19.9319
-19.8639
-19.9261
-20.1759
-20.6001
-21.1542
-21.7942
-22.4811
-23.1841
-23.8788
-24.5457
-25.1697
-25.7376
-26.2375
-26.6584
-26.9911
-27.2281
-27.3642
-27.3969
-27.3269
-27.1586
-26.8998
-26.5589
-26.1453
-25.6697
-25.1436
-24.578
-23.9832
-23.3678
-22.739
-22.1019
-21.4598
-20.815
-20.1685
-19.5219
-18.8771
-18.2377
-17.6076
-16.9899
-16.3855
-15.7922
-15.206
-14.6232
-14.0424
-13.4652
-12.8962
-12.3428
-11.8138
-11.3175
-10.8605
-10.447
-10.0787
-9.75487
-9.47292
-9.22948
-9.02197
-8.84326
-8.69002
-8.55847
-8.44515
-8.34697
-8.26124
-8.18562
-8.11811
-8.057
-8.00083
-7.94837
-7.89856
-7.85053
-7.80353
-7.75694
-7.71023
-7.66298
-7.61485
-7.56557
-7.51493
-7.4628
-7.40909
-7.35374
-7.29675
-7.23813
-7.17792
-7.11616
-7.05291
-6.98823
-6.92216
-6.85478
-6.78611
-6.71621
-6.64507
-6.57272
-6.49918
-6.42447
-6.34862
-6.27164
-6.19357
-6.11445
-6.0343
-5.95317
-5.8711
-5.7881
-5.7042
-5.61943
-5.53384
-5.44745
-5.3603
-5.27238
-5.18373
-5.09434
-5.00424
-4.9134
-4.82185
-4.72956
-4.63654
-4.54278
-4.44827
-4.35302
-4.25702
-4.16027
-4.06276
-3.96447
-3.8654
-3.76553
-3.66484
-3.56333
-3.46096
-3.35772
-3.25358
-3.14851
-3.04247
-2.93541
-2.82729
-2.71802
-2.60752
-2.49567
-2.38236
-2.26735
-2.1505
-2.0314
-1.90982
-1.78509
-1.65672
-1.52391
-1.38527
-1.24142
-1.08712
-0.93703
-19.1246
-19.1356
-19.162
-19.2034
-19.261
-19.3374
-19.4353
-19.5578
-19.7077
-19.8876
-20.0992
-20.3426
-20.6153
-20.9105
-21.2175
-21.5204
-21.7996
-22.0327
-22.1979
-22.2751
-22.2475
-22.1137
-21.8848
-21.5758
-21.1952
-20.8067
-20.408
-19.9835
-19.8241
-19.8979
-19.9434
-20.0119
-20.1766
-20.3719
-20.5785
-20.8406
-21.1818
-21.6096
-22.1146
-22.68
-23.2859
-23.9129
-24.5427
-25.1579
-25.7421
-26.2793
-26.7552
-27.1565
-27.4717
-27.6908
-27.8064
-27.8149
-27.7173
-27.5189
-27.226
-26.848
-26.3962
-25.8832
-25.322
-24.7253
-24.1043
-23.4688
-22.8263
-22.1819
-21.5383
-20.8963
-20.2557
-19.6159
-18.9781
-18.3451
-17.7211
-17.1098
-16.5125
-15.9267
-15.3464
-14.766
-14.1827
-13.5975
-13.0156
-12.4458
-11.8993
-11.3864
-10.9153
-10.4907
-10.1141
-9.78449
-9.49857
-9.25298
-9.04302
-8.86295
-8.70855
-8.57596
-8.46166
-8.36255
-8.27592
-8.19942
-8.13106
-8.06913
-8.01218
-7.95898
-7.9085
-7.85984
-7.81226
-7.76513
-7.71793
-7.67021
-7.62164
-7.57194
-7.52089
-7.46837
-7.41427
-7.35855
-7.30119
-7.24222
-7.18167
-7.11959
-7.05603
-6.99106
-6.92472
-6.85705
-6.78811
-6.71794
-6.64656
-6.57398
-6.50023
-6.42534
-6.34931
-6.27219
-6.194
-6.11478
-6.03454
-5.95334
-5.8712
-5.78815
-5.70423
-5.61945
-5.53386
-5.44746
-5.36029
-5.27237
-5.1837
-5.09431
-5.0042
-4.91336
-4.8218
-4.72951
-4.63649
-4.54273
-4.44824
-4.353
-4.25701
-4.16027
-4.06276
-3.96448
-3.86542
-3.76556
-3.66489
-3.56339
-3.46104
-3.35782
-3.25371
-3.14868
-3.04269
-2.93569
-2.82764
-2.71846
-2.60808
-2.49639
-2.38326
-2.26854
-2.152
-2.03342
-1.91239
-1.78869
-1.66144
-1.53084
-1.39483
-1.25609
-1.10916
-0.970547
-19.1221
-19.1363
-19.1643
-19.2065
-19.2653
-19.3434
-19.4441
-19.5708
-19.7276
-19.9186
-20.1472
-20.4157
-20.7236
-21.0659
-21.432
-21.8038
-22.1569
-22.4594
-22.682
-22.8012
-22.7997
-22.6765
-22.4453
-22.1398
-21.5625
-21.1955
-20.894
-20.6687
-20.5151
-20.4748
-20.5404
-20.6794
-20.8741
-21.1129
-21.399
-21.7383
-22.1311
-22.5774
-23.0725
-23.6093
-24.1771
-24.7636
-25.3552
-25.9375
-26.4954
-27.0126
-27.4729
-27.8604
-28.161
-28.362
-28.4542
-28.4335
-28.2998
-28.0584
-27.7148
-27.2799
-26.7682
-26.196
-25.5793
-24.9333
-24.2712
-23.604
-22.9403
-22.2853
-21.6409
-21.0062
-20.3777
-19.7521
-19.1278
-18.5067
-17.8932
-17.2922
-16.7058
-16.1312
-15.5604
-14.9842
-14.3975
-13.8007
-13.1992
-12.6042
-12.0302
-11.4915
-10.9985
-10.5569
-10.168
-9.82969
-9.53788
-9.28931
-9.07596
-8.89342
-8.73695
-8.60249
-8.48644
-8.38567
-8.29747
-8.21951
-8.14978
-8.08658
-8.02844
-7.97414
-7.92262
-7.87302
-7.82457
-7.77665
-7.72872
-7.68033
-7.63113
-7.58083
-7.52922
-7.47615
-7.42152
-7.36528
-7.30744
-7.24799
-7.18699
-7.12448
-7.06052
-6.99516
-6.92846
-6.86046
-6.79121
-6.72074
-6.64909
-6.57626
-6.50228
-6.42716
-6.35094
-6.27363
-6.19527
-6.11589
-6.03552
-5.9542
-5.87195
-5.7888
-5.70478
-5.61992
-5.53425
-5.44778
-5.36056
-5.27259
-5.18389
-5.09447
-5.00432
-4.91347
-4.82189
-4.72958
-4.63655
-4.54278
-4.44828
-4.35303
-4.25705
-4.16031
-4.06281
-3.96453
-3.86548
-3.76563
-3.66497
-3.56349
-3.46117
-3.35798
-3.2539
-3.14891
-3.04298
-2.93605
-2.82809
-2.71902
-2.60878
-2.49727
-2.38437
-2.26996
-2.15381
-2.03579
-1.91546
-1.79281
-1.66695
-1.53846
-1.40549
-1.2712
-1.13166
-1.00114
-19.0744
-19.088
-19.1143
-19.1541
-19.2099
-19.2843
-19.3806
-19.5011
-19.6508
-19.8345
-20.0572
-20.3218
-20.6294
-20.9764
-21.3537
-21.7447
-22.1249
-22.464
-22.7306
-22.8876
-22.9236
-22.84
-22.6504
-22.377
-22.039
-21.7184
-21.4519
-21.2706
-21.1822
-21.1856
-21.2752
-21.4401
-21.6638
-21.9378
-22.2616
-22.6358
-23.0569
-23.5201
-24.0198
-24.5506
-25.106
-25.6774
-26.2549
-26.8267
-27.3788
-27.8943
-28.355
-28.742
-29.0372
-29.2261
-29.3008
-29.2532
-29.076
-28.7679
-28.3456
-27.8273
-27.2323
-26.5799
-25.8892
-25.1778
-24.4611
-23.7518
-23.0596
-22.3904
-21.7455
-21.1219
-20.5124
-19.9093
-19.3077
-18.7074
-18.1129
-17.5296
-16.9604
-16.403
-15.8479
-15.2816
-14.6949
-14.0853
-13.4584
-12.8281
-12.2144
-11.638
-11.1136
-10.6478
-10.2417
-9.89182
-9.593
-9.33891
-9.12171
-8.93592
-8.77662
-8.63952
-8.52094
-8.41772
-8.32717
-8.24697
-8.17515
-8.11003
-8.05019
-7.99438
-7.94154
-7.89075
-7.84122
-7.7923
-7.74345
-7.6942
-7.64418
-7.59311
-7.54075
-7.48696
-7.43162
-7.3747
-7.31617
-7.25608
-7.19445
-7.13135
-7.06682
-7.00093
-6.93374
-6.86527
-6.79559
-6.72471
-6.65266
-6.57947
-6.50514
-6.4297
-6.35317
-6.27559
-6.19699
-6.11738
-6.03681
-5.9553
-5.87288
-5.78959
-5.70544
-5.62047
-5.53471
-5.44817
-5.36088
-5.27285
-5.18411
-5.09464
-5.00446
-4.91358
-4.82197
-4.72965
-4.6366
-4.54282
-4.44831
-4.35306
-4.25707
-4.16034
-4.06284
-3.96458
-3.86553
-3.7657
-3.66506
-3.5636
-3.4613
-3.35814
-3.25411
-3.14917
-3.0433
-2.93645
-2.82859
-2.71965
-2.60957
-2.49827
-2.38563
-2.27157
-2.15587
-2.03845
-1.91895
-1.79739
-1.6731
-1.54668
-1.41699
-1.28666
-1.15407
-1.02932
-18.9761
-18.987
-19.0091
-19.0428
-19.0905
-19.1541
-19.2364
-19.3402
-19.4694
-19.6281
-19.8205
-20.0492
-20.3154
-20.6168
-20.9468
-21.2936
-21.6389
-21.9329
-22.1698
-22.3338
-22.4124
-22.404
-22.3188
-22.1769
-22.0069
-21.8455
-21.7224
-21.6615
-21.6743
-21.7592
-21.913
-22.1299
-22.4018
-22.7212
-23.0828
-23.4823
-23.9156
-24.38
-24.8738
-25.3957
-25.9433
-26.5126
-27.0965
-27.6834
-28.2577
-28.8001
-29.2884
-29.699
-30.0086
-30.1963
-30.2467
-30.1528
-29.9105
-29.5342
-29.0348
-28.4305
-27.7439
-27
-26.2228
-25.4337
-24.6505
-23.8874
-23.155
-22.4597
-21.8024
-21.1794
-20.5834
-20.0044
-19.4345
-18.8711
-18.3169
-17.7738
-17.2418
-16.7181
-16.1938
-15.6516
-15.0766
-14.4622
-13.8099
-13.1354
-12.467
-11.8369
-11.2676
-10.7678
-10.3379
-9.97262
-9.665
-9.40348
-9.1809
-8.99076
-8.82767
-8.68711
-8.56526
-8.45887
-8.36524
-8.28205
-8.20737
-8.13957
-8.07726
-8.01925
-7.96449
-7.91206
-7.86116
-7.81106
-7.76116
-7.71094
-7.66001
-7.60806
-7.55484
-7.50019
-7.44401
-7.38626
-7.32692
-7.26603
-7.20364
-7.1398
-7.07459
-7.00805
-6.94025
-6.87123
-6.80101
-6.72963
-6.65712
-6.58348
-6.50874
-6.43292
-6.35605
-6.27815
-6.19925
-6.11937
-6.03855
-5.95682
-5.87421
-5.79073
-5.70643
-5.62132
-5.53543
-5.44878
-5.3614
-5.27329
-5.18446
-5.09494
-5.00471
-4.91378
-4.82214
-4.72978
-4.63671
-4.54291
-4.44838
-4.35312
-4.25713
-4.16039
-4.0629
-3.96464
-3.86561
-3.76578
-3.66516
-3.56372
-3.46145
-3.35833
-3.25435
-3.14947
-3.04366
-2.93691
-2.82915
-2.72036
-2.61045
-2.49938
-2.38704
-2.27335
-2.15815
-2.04137
-1.92274
-1.80231
-1.67965
-1.55529
-1.42871
-1.30205
-1.17516
-1.05507
-18.8394
-18.8472
-18.8638
-18.8896
-18.9263
-18.9754
-19.0389
-19.1189
-19.2181
-19.3391
-19.4847
-19.657
-19.8565
-20.0816
-20.3266
-20.5799
-20.822
-21.0628
-21.2705
-21.4346
-21.5502
-21.6192
-21.6505
-21.6586
-21.6621
-21.6806
-21.7301
-21.8218
-21.9626
-22.154
-22.3946
-22.6798
-23.0037
-23.3598
-23.7429
-24.1511
-24.5852
-25.048
-25.5427
-26.0725
-26.6393
-27.2424
-27.8758
-28.527
-29.1772
-29.8018
-30.371
-30.8514
-31.2109
-31.4227
-31.4657
-31.3297
-31.0264
-30.5596
-29.9481
-29.2195
-28.4057
-27.539
-26.6488
-25.7595
-24.8899
-24.0536
-23.2603
-22.5167
-21.8245
-21.1807
-20.5786
-20.0097
-19.4651
-18.9404
-18.4378
-17.9587
-17.4955
-17.0361
-16.5693
-16.0778
-15.54
-14.942
-14.2781
-13.5576
-12.8176
-12.1108
-11.4754
-10.9257
-10.4621
-10.0774
-9.75541
-9.48454
-9.25487
-9.05891
-8.89074
-8.74563
-8.61961
-8.50933
-8.41196
-8.32515
-8.24698
-8.17583
-8.11038
-8.04947
-7.99211
-7.93742
-7.88459
-7.8329
-7.7817
-7.7304
-7.67851
-7.62564
-7.57151
-7.51595
-7.45884
-7.40014
-7.33986
-7.27804
-7.21474
-7.15003
-7.08399
-7.01668
-6.94815
-6.87845
-6.8076
-6.73563
-6.66256
-6.5884
-6.51318
-6.43691
-6.35962
-6.28133
-6.20206
-6.12186
-6.04074
-5.95873
-5.87587
-5.79217
-5.70766
-5.62237
-5.53632
-5.44953
-5.36202
-5.27381
-5.1849
-5.0953
-5.005
-4.91402
-4.82233
-4.72993
-4.63683
-4.54301
-4.44846
-4.35318
-4.25718
-4.16044
-4.06295
-3.9647
-3.86568
-3.76587
-3.66526
-3.56385
-3.46161
-3.35854
-3.2546
-3.14978
-3.04406
-2.9374
-2.82976
-2.72112
-2.61141
-2.50058
-2.38856
-2.27527
-2.16059
-2.04449
-1.92676
-1.80749
-1.68645
-1.5641
-1.44041
-1.31707
-1.19486
-1.07853
-18.6886
-18.6933
-18.7041
-18.7214
-18.7464
-18.78
-18.8239
-18.8795
-18.9485
-19.0329
-19.1341
-19.2532
-19.39
-19.5435
-19.7103
-19.8866
-20.07
-20.2537
-20.43
-20.5936
-20.7423
-20.8782
-21.0067
-21.1363
-21.2767
-21.4378
-21.6271
-21.8497
-22.1077
-22.3997
-22.7218
-23.0679
-23.4326
-23.8123
-24.2076
-24.623
-25.0667
-25.549
-26.0799
-26.6663
-27.3106
-28.0102
-28.7566
-29.5341
-30.3185
-31.0777
-31.7727
-32.3612
-32.8008
-33.0555
-33.1011
-32.9261
-32.5288
-31.9317
-31.1667
-30.2721
-29.2903
-28.2637
-27.2293
-26.2155
-25.2411
-24.3172
-23.45
-22.6424
-21.8956
-21.2081
-20.5763
-19.9942
-19.4538
-18.9508
-18.4894
-18.0756
-17.6979
-17.3263
-16.9389
-16.5191
-16.0454
-15.4954
-14.8495
-14.0976
-13.2799
-12.4749
-11.7491
-11.1307
-10.6223
-10.2091
-9.8679
-9.58379
-9.34448
-9.14084
-8.9661
-8.81512
-8.68381
-8.56873
-8.46693
-8.37592
-8.29368
-8.21863
-8.14946
-8.08508
-8.02454
-7.96699
-7.91166
-7.85783
-7.80485
-7.75211
-7.69905
-7.64521
-7.59019
-7.53373
-7.47569
-7.41602
-7.35472
-7.29187
-7.22755
-7.16186
-7.09487
-7.02666
-6.9573
-6.88682
-6.81524
-6.74259
-6.66888
-6.59413
-6.51835
-6.44156
-6.36379
-6.28505
-6.20538
-6.12479
-6.04332
-5.96099
-5.87783
-5.79387
-5.70913
-5.62362
-5.53739
-5.45044
-5.36279
-5.27446
-5.18544
-5.09574
-5.00537
-4.91431
-4.82257
-4.73013
-4.63699
-4.54314
-4.44857
-4.35328
-4.25724
-4.16051
-4.06302
-3.96478
-3.86576
-3.76596
-3.66538
-3.56399
-3.46179
-3.35875
-3.25487
-3.15012
-3.04448
-2.93792
-2.83042
-2.72194
-2.61244
-2.50187
-2.39017
-2.2773
-2.16317
-2.04775
-1.93095
-1.81283
-1.69337
-1.57296
-1.4519
-1.33157
-1.21315
-1.09999
-18.5473
-18.5493
-18.555
-18.5646
-18.5791
-18.5994
-18.6264
-18.6611
-18.7049
-18.7588
-18.8241
-18.9014
-18.9912
-19.0932
-19.2076
-19.3332
-19.4699
-19.6165
-19.7721
-19.9361
-20.1091
-20.2931
-20.4911
-20.7072
-20.9455
-21.21
-21.503
-21.8249
-22.1729
-22.5414
-22.9231
-23.3113
-23.7028
-24.0995
-24.5091
-24.9441
-25.4198
-25.9518
-26.5528
-27.231
-27.9887
-28.8222
-29.7201
-30.6626
-31.6206
-32.5556
-33.4199
-34.1571
-34.7072
-35.0185
-35.0614
-34.8278
-34.3284
-33.5838
-32.6337
-31.5325
-30.3411
-29.1183
-27.9133
-26.7595
-25.674
-24.6616
-23.7208
-22.848
-22.0413
-21.3004
-20.624
-20.0098
-19.4555
-18.9587
-18.5207
-18.1444
-17.8257
-17.5325
-17.2234
-16.8748
-16.4714
-15.9953
-15.417
-14.6779
-13.8065
-12.9055
-12.0818
-11.386
-10.8244
-10.3726
-10.0057
-9.70332
-9.45059
-9.23666
-9.05359
-8.89541
-8.75762
-8.63668
-8.52961
-8.4338
-8.34707
-8.26767
-8.19431
-8.12596
-8.06176
-8.00088
-7.94256
-7.88611
-7.83087
-7.77624
-7.72164
-7.66655
-7.61051
-7.55316
-7.49424
-7.43364
-7.37136
-7.30745
-7.24205
-7.17527
-7.10723
-7.03802
-6.96771
-6.89635
-6.82395
-6.75053
-6.6761
-6.60068
-6.52428
-6.44691
-6.36859
-6.28935
-6.20921
-6.12819
-6.04631
-5.96362
-5.88013
-5.79586
-5.71084
-5.6251
-5.53864
-5.4515
-5.36369
-5.27521
-5.18607
-5.09626
-5.0058
-4.91466
-4.82285
-4.73035
-4.63716
-4.54328
-4.44868
-4.35336
-4.25731
-4.16058
-4.06309
-3.96485
-3.86584
-3.76606
-3.6655
-3.56414
-3.46197
-3.35898
-3.25515
-3.15047
-3.04492
-2.93847
-2.83111
-2.7228
-2.61351
-2.50321
-2.39185
-2.27941
-2.16583
-2.05112
-1.93523
-1.81826
-1.7003
-1.58175
-1.46306
-1.34541
-1.23011
-1.11965
-18.4308
-18.4305
-18.4317
-18.4347
-18.4411
-18.4509
-18.4648
-18.4837
-18.5085
-18.5402
-18.5796
-18.6276
-18.6851
-18.7534
-18.8339
-18.9279
-19.037
-19.1629
-19.3073
-19.4722
-19.6598
-19.8727
-20.1135
-20.3845
-20.6875
-21.0227
-21.3884
-21.7799
-22.1898
-22.6086
-23.0272
-23.44
-23.8478
-24.2584
-24.6864
-25.1512
-25.6733
-26.2716
-26.9602
-27.7478
-28.6379
-29.6282
-30.7084
-31.8574
-33.0412
-34.2113
-35.3051
-36.2479
-36.9572
-37.3608
-37.4202
-37.1291
-36.4967
-35.5565
-34.3674
-33.0044
-31.5502
-30.083
-28.6671
-27.3443
-26.1314
-25.0281
-24.0216
-23.0957
-22.24
-21.4527
-20.7352
-20.0885
-19.512
-19.0033
-18.5611
-18.1873
-17.8832
-17.6193
-17.3485
-17.0388
-16.6798
-16.2619
-15.8083
-15.1306
-14.2734
-13.3264
-12.44
-11.6813
-11.0641
-10.569
-10.1698
-9.84372
-9.57322
-9.34582
-9.15231
-8.98563
-8.84042
-8.71268
-8.59937
-8.49794
-8.40614
-8.32208
-8.24427
-8.17165
-8.10339
-8.03876
-7.97708
-7.91764
-7.85977
-7.80285
-7.7463
-7.6896
-7.63225
-7.57383
-7.51399
-7.45252
-7.38933
-7.32443
-7.25796
-7.19008
-7.12092
-7.05063
-6.97929
-6.90696
-6.83365
-6.75938
-6.68417
-6.60801
-6.53091
-6.4529
-6.37398
-6.29417
-6.21351
-6.132
-6.04969
-5.96658
-5.88271
-5.79811
-5.71278
-5.62676
-5.54007
-5.45271
-5.36471
-5.27606
-5.18678
-5.09685
-5.00628
-4.91505
-4.82316
-4.7306
-4.63736
-4.54344
-4.44881
-4.35347
-4.25736
-4.16066
-4.06317
-3.96493
-3.86593
-3.76616
-3.66562
-3.56429
-3.46216
-3.35921
-3.25545
-3.15084
-3.04538
-2.93904
-2.83182
-2.72368
-2.61461
-2.50459
-2.39358
-2.28158
-2.16856
-2.05454
-1.93954
-1.8237
-1.70716
-1.59034
-1.47378
-1.35851
-1.24582
-1.13767
-18.3438
-18.342
-18.3405
-18.3398
-18.3396
-18.3414
-18.3457
-18.3534
-18.3652
-18.382
-18.4046
-18.4338
-18.4711
-18.5182
-18.5774
-18.6516
-18.7436
-18.8566
-18.9937
-19.1583
-19.3537
-19.583
-19.8488
-20.1529
-20.4956
-20.8752
-21.2866
-21.7215
-22.1687
-22.6162
-23.0546
-23.4807
-23.8988
-24.3219
-24.7703
-25.2684
-25.8415
-26.511
-27.293
-28.1986
-29.2345
-30.4023
-31.6944
-33.0886
-34.5429
-35.9933
-37.3564
-38.5358
-39.4301
-39.9495
-40.0413
-39.6884
-38.9081
-37.7495
-36.2932
-34.6369
-32.8858
-31.1389
-29.4786
-27.9585
-26.5986
-25.3959
-24.3282
-23.3618
-22.4703
-21.6475
-20.899
-20.2291
-19.6371
-19.1208
-18.6752
-18.2885
-17.9558
-17.6626
-17.3815
-17.081
-16.7486
-16.3938
-16.002
-15.4327
-14.6413
-13.7025
-12.7865
-11.9816
-11.3172
-10.782
-10.3505
-9.99889
-9.70863
-9.46589
-9.2604
-9.08414
-8.93084
-8.79579
-8.67562
-8.56782
-8.47026
-8.38102
-8.29846
-8.22136
-8.14886
-8.08026
-8.01491
-7.95218
-7.8914
-7.83192
-7.77313
-7.71449
-7.65549
-7.5957
-7.53474
-7.47231
-7.40823
-7.34244
-7.275
-7.20606
-7.13581
-7.0644
-6.99198
-6.9186
-6.84431
-6.76912
-6.69305
-6.61608
-6.53824
-6.45952
-6.37994
-6.29952
-6.21828
-6.13624
-6.05343
-5.96988
-5.88559
-5.80061
-5.71494
-5.62862
-5.54165
-5.45406
-5.36584
-5.27702
-5.18757
-5.0975
-5.00681
-4.91548
-4.82351
-4.73088
-4.63758
-4.54361
-4.44895
-4.3536
-4.25761
-4.16076
-4.06325
-3.96501
-3.86602
-3.76626
-3.66574
-3.56444
-3.46235
-3.35945
-3.25574
-3.15121
-3.04584
-2.93962
-2.83254
-2.72459
-2.61574
-2.50599
-2.39533
-2.28377
-2.1713
-2.05797
-1.94384
-1.82907
-1.71387
-1.59866
-1.48401
-1.37084
-1.26037
-1.15419
-18.2862
-18.2836
-18.2801
-18.2762
-18.2724
-18.2693
-18.2677
-18.2682
-18.2718
-18.2792
-18.2912
-18.3089
-18.3338
-18.3679
-18.4138
-18.475
-18.5552
-18.6585
-18.7891
-18.9512
-19.1489
-19.3857
-19.6644
-19.9862
-20.3508
-20.7546
-21.1905
-21.6478
-22.1135
-22.5746
-23.0225
-23.4559
-23.8817
-24.3162
-24.7837
-25.3128
-25.9316
-26.6646
-27.531
-28.545
-29.7172
-31.0525
-32.5452
-34.17
-35.8744
-37.5779
-39.1783
-40.5617
-41.6109
-42.22
-42.3307
-41.9253
-41.0301
-39.6936
-38.0123
-36.1047
-34.0969
-32.1061
-30.2291
-28.5306
-27.0344
-25.7385
-24.6147
-23.6207
-22.7081
-21.857
-21.0751
-20.3822
-19.7833
-19.2683
-18.8265
-18.4396
-18.0905
-17.7673
-17.4546
-17.1393
-16.8184
-16.5087
-16.1988
-15.7272
-14.9961
-14.053
-13.0945
-12.2419
-11.5378
-10.974
-10.5208
-10.1515
-9.84608
-9.5903
-9.37376
-9.18822
-9.0269
-8.8845
-8.75725
-8.64261
-8.53872
-8.44382
-8.35619
-8.27442
-8.19751
-8.12475
-8.05556
-7.98934
-7.92544
-7.8632
-7.80199
-7.7412
-7.6803
-7.61885
-7.55648
-7.49287
-7.42779
-7.36109
-7.29275
-7.22287
-7.1516
-7.07912
-7.00561
-6.93116
-6.85584
-6.77968
-6.70269
-6.62486
-6.54621
-6.46673
-6.38644
-6.30535
-6.22349
-6.14088
-6.05753
-5.97348
-5.88874
-5.80335
-5.71731
-5.63065
-5.54339
-5.45553
-5.36709
-5.27805
-5.18843
-5.09821
-5.00738
-4.91594
-4.82388
-4.73117
-4.63781
-4.54379
-4.4491
-4.35372
-4.25766
-4.16085
-4.06333
-3.96509
-3.8661
-3.76636
-3.66586
-3.56459
-3.46253
-3.35969
-3.25604
-3.15158
-3.04631
-2.94021
-2.83327
-2.72549
-2.61687
-2.5074
-2.39709
-2.28595
-2.17402
-2.06136
-1.94807
-1.83431
-1.72036
-1.60662
-1.49368
-1.38239
-1.27382
-1.16934
-18.255
-18.2516
-18.2469
-18.2415
-18.2357
-18.2298
-18.2246
-18.2209
-18.2195
-18.2214
-18.2275
-18.2386
-18.2563
-18.2824
-18.3197
-18.3719
-18.443
-18.5379
-18.6613
-18.818
-19.0129
-19.25
-19.532
-19.8599
-20.2325
-20.6452
-21.0899
-21.555
-22.0271
-22.4934
-22.9462
-23.3852
-23.8182
-24.2631
-24.7456
-25.2964
-25.9462
-26.7222
-27.6463
-28.736
-30.0044
-31.4592
-33.0954
-34.8841
-36.7643
-38.6423
-40.4017
-41.9183
-43.07
-43.748
-43.8802
-43.458
-42.4835
-41.0196
-39.1811
-37.1034
-34.9257
-32.7763
-30.76
-28.9476
-27.3652
-26.0134
-24.8492
-23.8368
-22.9203
-22.0582
-21.246
-20.5194
-19.9016
-19.385
-18.9506
-18.5741
-18.2278
-17.8895
-17.5476
-17.2082
-16.894
-16.6402
-16.4227
-16.0312
-15.3321
-14.3622
-13.3453
-12.4401
-11.7032
-11.123
-10.6609
-10.2851
-9.97337
-9.71067
-9.48678
-9.29399
-9.12586
-8.97693
-8.84307
-8.72161
-8.61098
-8.5099
-8.41686
-8.33027
-8.24887
-8.17185
-8.09866
-8.02877
-7.96159
-7.89645
-7.83267
-7.76961
-7.70667
-7.64338
-7.57934
-7.51428
-7.44797
-7.38022
-7.31096
-7.24018
-7.16799
-7.09454
-7.02
-6.94451
-6.86816
-6.79099
-6.71304
-6.63431
-6.5548
-6.47451
-6.39346
-6.31166
-6.22913
-6.14589
-6.06197
-5.97738
-5.89216
-5.80631
-5.71987
-5.63285
-5.54527
-5.45712
-5.36842
-5.27917
-5.18935
-5.09897
-5.008
-4.91644
-4.82427
-4.73148
-4.63806
-4.54398
-4.44924
-4.35383
-4.25773
-4.16092
-4.0634
-3.96516
-3.86618
-3.76646
-3.66598
-3.56473
-3.46272
-3.35992
-3.25633
-3.15195
-3.04677
-2.94079
-2.834
-2.7264
-2.618
-2.5088
-2.39883
-2.28811
-2.1767
-2.06468
-1.95218
-1.83938
-1.72658
-1.61419
-1.50278
-1.39313
-1.28622
-1.18321
-18.2482
-18.2441
-18.2381
-18.232
-18.2249
-18.2177
-18.2111
-18.2056
-18.2018
-18.2007
-18.2032
-18.2105
-18.2239
-18.245
-18.2764
-18.3215
-18.3847
-18.4709
-18.5856
-18.734
-18.9214
-19.1521
-19.4292
-19.7536
-20.1238
-20.5347
-20.9778
-21.4417
-21.9134
-22.3811
-22.8374
-23.2821
-23.7228
-24.1779
-24.6724
-25.2324
-25.8917
-26.6806
-27.6227
-28.7376
-30.039
-31.5349
-33.2203
-35.0633
-36.9993
-38.9298
-40.734
-42.2847
-43.4625
-44.1637
-44.3168
-43.8885
-42.8951
-41.4041
-39.5326
-37.4208
-35.2099
-33.0308
-30.9915
-29.1625
-27.5687
-26.205
-25.0293
-24.0027
-23.0816
-22.2205
-21.3926
-20.6276
-19.976
-19.4555
-19.0407
-18.6906
-18.3602
-18.0151
-17.641
-17.2583
-16.9221
-16.6915
-16.52
-16.1712
-15.5008
-14.538
-13.507
-12.5844
-11.8382
-11.2546
-10.7899
-10.4104
-10.0944
-9.82708
-9.59812
-9.39976
-9.22586
-9.07121
-8.93155
-8.80391
-8.6867
-8.5791
-8.48018
-8.38853
-8.3026
-8.22128
-8.14398
-8.07028
-7.99965
-7.93147
-7.86499
-7.79954
-7.73447
-7.66924
-7.6034
-7.53668
-7.46887
-7.39985
-7.32951
-7.25779
-7.18472
-7.11038
-7.03491
-6.95845
-6.88111
-6.80295
-6.72403
-6.64436
-6.56395
-6.48281
-6.40096
-6.3184
-6.23516
-6.15126
-6.06672
-5.98157
-5.89582
-5.80949
-5.72262
-5.63521
-5.54727
-5.45882
-5.36985
-5.28036
-5.19033
-5.09976
-5.00864
-4.91695
-4.82468
-4.7318
-4.6383
-4.54417
-4.44939
-4.35394
-4.2578
-4.16099
-4.06347
-3.96523
-3.86626
-3.76655
-3.66609
-3.56487
-3.46289
-3.36014
-3.25662
-3.15232
-3.04723
-2.94136
-2.83471
-2.72729
-2.6191
-2.51017
-2.40052
-2.29021
-2.1793
-2.06789
-1.95613
-1.84423
-1.73249
-1.62132
-1.51128
-1.40308
-1.29761
-1.19588
-18.2588
-18.254
-18.2474
-18.2403
-18.2336
-18.2267
-18.2197
-18.2137
-18.2093
-18.2072
-18.2083
-18.2135
-18.224
-18.2415
-18.2682
-18.3072
-18.3626
-18.4393
-18.543
-18.6797
-18.855
-19.0736
-19.3388
-19.6523
-20.0123
-20.414
-20.8493
-21.3073
-21.776
-22.2444
-22.7057
-23.1591
-23.6104
-24.0741
-24.5714
-25.1289
-25.7773
-26.5469
-27.4628
-28.5449
-29.8067
-31.2548
-32.882
-34.657
-36.5178
-38.3718
-40.1042
-41.5931
-42.7242
-43.4004
-43.5589
-43.1668
-42.2279
-40.8107
-39.0308
-37.0226
-34.9195
-32.8451
-30.9027
-29.1567
-27.6289
-26.3115
-25.1606
-24.1332
-23.2057
-22.3485
-21.5214
-20.7244
-20.0225
-19.4779
-19.0919
-18.8029
-18.5251
-18.1936
-17.784
-17.3357
-16.9226
-16.6174
-16.3818
-16.022
-15.4018
-14.524
-13.5676
-12.6946
-11.9766
-11.4048
-10.9402
-10.5538
-10.2282
-9.95153
-9.7145
-9.50907
-9.3286
-9.16772
-9.02218
-8.88872
-8.76538
-8.65136
-8.54625
-8.44914
-8.35853
-8.27296
-8.19151
-8.11382
-8.03956
-7.96817
-7.89889
-7.83094
-7.76361
-7.69633
-7.6286
-7.56011
-7.49063
-7.42009
-7.34844
-7.27562
-7.20161
-7.12643
-7.05012
-6.97279
-6.89454
-6.81545
-6.73558
-6.65496
-6.57363
-6.49161
-6.40891
-6.32556
-6.24157
-6.15697
-6.07178
-5.98601
-5.89971
-5.81287
-5.72554
-5.63771
-5.5494
-5.46062
-5.37135
-5.2816
-5.19135
-5.10059
-5.00931
-4.91748
-4.82509
-4.73212
-4.63855
-4.54436
-4.44953
-4.35404
-4.25786
-4.16105
-4.06353
-3.96529
-3.86632
-3.76662
-3.66619
-3.565
-3.46306
-3.36036
-3.25689
-3.15266
-3.04767
-2.94191
-2.8354
-2.72814
-2.62017
-2.51149
-2.40216
-2.29224
-2.1818
-2.07096
-1.95989
-1.84882
-1.73804
-1.62797
-1.51915
-1.41224
-1.30804
-1.20744
-18.2859
-18.2832
-18.275
-18.2651
-18.2577
-18.2524
-18.248
-18.2439
-18.2404
-18.2381
-18.2382
-18.2415
-18.2492
-18.2628
-18.2845
-18.3168
-18.3636
-18.4295
-18.5201
-18.6414
-18.7997
-19.0004
-19.2475
-19.5428
-19.8858
-20.2726
-20.696
-21.146
-21.6119
-22.0832
-22.5527
-23.0179
-23.4818
-23.9546
-24.4529
-24.9984
-25.6174
-26.3374
-27.183
-28.1738
-29.3222
-30.6327
-32.0964
-33.6848
-35.3451
-36.9987
-38.5468
-39.8817
-40.902
-41.5223
-41.6857
-41.3632
-40.5511
-39.3079
-37.739
-35.9648
-34.1017
-32.2573
-30.5241
-28.9555