/*--------------------------------*- C++ -*----------------------------------*\
  =========                 |
  \\      /  F ield         | OpenFOAM: The Open Source CFD Toolbox
   \\    /   O peration     | Website:  https://openfoam.org
    \\  /    A nd           | Version:  7
     \\/     M anipulation  |
\*---------------------------------------------------------------------------*/
FoamFile
{
    version     2.0;
    format      ascii;
    class       surfaceScalarField;
    location    "0.041";
    object      phi_0;
}
// * * * * * * * * * * * * * * * * * * * * * * * * * * * * * * * * * * * * * //

dimensions      [0 3 -1 0 0 0 0];

internalField   nonuniform List<scalar> 
24170
(
1.41808e-06
2.79739e-07
1.26111e-06
1.56969e-07
1.12169e-06
1.39418e-07
9.97092e-07
1.24601e-07
8.84876e-07
1.12216e-07
7.78688e-07
1.06188e-07
6.79185e-07
9.95035e-08
5.89956e-07
8.92289e-08
5.11432e-07
7.85238e-08
4.41883e-07
6.95488e-08
3.80032e-07
6.1851e-08
3.25946e-07
5.40864e-08
2.80127e-07
4.58195e-08
2.4217e-07
3.79568e-08
2.09867e-07
3.23031e-08
1.81162e-07
2.87041e-08
1.51702e-07
2.94607e-08
2.03912e-08
1.31311e-07
1.70938e-06
3.35851e-07
1.66693e-06
1.99419e-07
1.62076e-06
1.85593e-07
1.57999e-06
1.65364e-07
1.54212e-06
1.50084e-07
1.49893e-06
1.49387e-07
1.4491e-06
1.49325e-07
1.39655e-06
1.41788e-07
1.34383e-06
1.31239e-07
1.29102e-06
1.22359e-07
1.23855e-06
1.14317e-07
1.18755e-06
1.05091e-07
1.13952e-06
9.38497e-08
1.09439e-06
8.30812e-08
1.04994e-06
7.6759e-08
1.00478e-06
7.38654e-08
9.57513e-07
7.67254e-08
7.76911e-08
9.00213e-07
1.79443e-06
3.36935e-07
1.77553e-06
2.18321e-07
1.74997e-06
2.11148e-07
1.72876e-06
1.8657e-07
1.71662e-06
1.62225e-07
1.71041e-06
1.55602e-07
1.70457e-06
1.55158e-07
1.69665e-06
1.49712e-07
1.6866e-06
1.41288e-07
1.67413e-06
1.34833e-07
1.65802e-06
1.30426e-07
1.63753e-06
1.25579e-07
1.61282e-06
1.18558e-07
1.58563e-06
1.10267e-07
1.55744e-06
1.04955e-07
1.5294e-06
1.01903e-07
1.50275e-06
1.03374e-07
1.05427e-07
1.47502e-06
1.93099e-06
3.2192e-07
1.91868e-06
2.30635e-07
1.89654e-06
2.33288e-07
1.87445e-06
2.08663e-07
1.86216e-06
1.7451e-07
1.85951e-06
1.58256e-07
1.86062e-06
1.54043e-07
1.86082e-06
1.49518e-07
1.85885e-06
1.4326e-07
1.8553e-06
1.38382e-07
1.85041e-06
1.35319e-07
1.84388e-06
1.32104e-07
1.83513e-06
1.27313e-07
1.82453e-06
1.20862e-07
1.81341e-06
1.16079e-07
1.80247e-06
1.12837e-07
1.79305e-06
1.12796e-07
1.143e-07
1.78418e-06
2.09009e-06
3.46202e-07
2.07691e-06
2.43815e-07
2.0681e-06
2.4209e-07
2.04972e-06
2.27047e-07
2.03179e-06
1.92445e-07
2.0195e-06
1.70543e-07
2.01093e-06
1.62609e-07
2.00318e-06
1.57267e-07
1.99618e-06
1.50259e-07
1.9914e-06
1.4316e-07
1.98934e-06
1.37382e-07
1.98886e-06
1.32585e-07
1.98814e-06
1.2803e-07
1.9859e-06
1.23103e-07
1.98255e-06
1.19428e-07
1.97833e-06
1.17056e-07
1.97455e-06
1.16583e-07
1.17703e-07
1.97114e-06
2.24333e-06
3.47034e-07
2.22241e-06
2.64728e-07
2.2056e-06
2.58899e-07
2.19233e-06
2.40318e-07
2.17902e-06
2.05753e-07
2.16642e-06
1.83144e-07
2.15606e-06
1.72968e-07
2.14881e-06
1.64527e-07
2.14472e-06
1.54349e-07
2.14313e-06
1.44741e-07
2.14283e-06
1.37691e-07
2.14244e-06
1.32968e-07
2.14105e-06
1.29424e-07
2.13822e-06
1.25937e-07
2.1348e-06
1.2284e-07
2.13133e-06
1.20529e-07
2.12882e-06
1.19091e-07
1.19419e-07
2.12711e-06
2.38689e-06
3.65867e-07
2.37413e-06
2.77487e-07
2.36412e-06
2.68911e-07
2.34971e-06
2.54719e-07
2.33233e-06
2.23133e-07
2.32044e-06
1.95042e-07
2.31772e-06
1.75684e-07
2.32175e-06
1.60495e-07
2.32762e-06
1.48481e-07
2.33106e-06
1.41297e-07
2.32999e-06
1.3877e-07
2.32458e-06
1.38369e-07
2.31648e-06
1.37528e-07
2.30743e-06
1.34987e-07
2.29914e-06
1.31125e-07
2.29249e-06
1.27187e-07
2.28789e-06
1.23686e-07
1.22021e-07
2.28529e-06
2.61619e-06
3.39446e-07
2.58249e-06
3.1119e-07
2.55698e-06
2.94418e-07
2.53358e-06
2.78122e-07
2.50604e-06
2.5067e-07
2.48574e-06
2.15342e-07
2.48082e-06
1.806e-07
2.4886e-06
1.52718e-07
2.50075e-06
1.36332e-07
2.50991e-06
1.32137e-07
2.51269e-06
1.35991e-07
2.50951e-06
1.4155e-07
2.50295e-06
1.4409e-07
2.49587e-06
1.42059e-07
2.49021e-06
1.36791e-07
2.48681e-06
1.30582e-07
2.48528e-06
1.2522e-07
1.22033e-07
2.48527e-06
2.77458e-06
4.22329e-07
2.745e-06
3.40768e-07
2.7285e-06
3.10919e-07
2.72573e-06
2.8089e-07
2.72953e-06
2.4687e-07
2.73169e-06
2.13188e-07
2.72946e-06
1.8283e-07
2.72385e-06
1.58325e-07
2.71756e-06
1.4262e-07
2.71256e-06
1.37141e-07
2.70875e-06
1.39801e-07
2.70477e-06
1.45526e-07
2.69973e-06
1.49126e-07
2.69396e-06
1.47836e-07
2.68858e-06
1.42165e-07
2.68472e-06
1.34441e-07
2.68287e-06
1.27077e-07
1.22844e-07
2.68206e-06
3.00012e-06
4.53072e-07
2.9375e-06
4.03393e-07
2.91502e-06
3.33394e-07
2.91975e-06
2.76162e-07
2.92938e-06
2.37237e-07
2.93329e-06
2.09284e-07
2.9294e-06
1.86714e-07
2.91936e-06
1.68363e-07
2.9064e-06
1.55582e-07
2.89364e-06
1.49907e-07
2.88297e-06
1.5047e-07
2.87494e-06
1.53557e-07
2.86954e-06
1.54526e-07
2.86646e-06
1.50913e-07
2.86559e-06
1.43035e-07
2.86645e-06
1.33583e-07
2.86857e-06
1.24953e-07
1.19173e-07
2.87224e-06
3.20962e-06
4.18839e-07
3.18944e-06
4.2357e-07
3.16714e-06
3.55701e-07
3.14681e-06
2.96489e-07
3.13053e-06
2.5352e-07
3.12033e-06
2.19475e-07
3.11539e-06
1.91661e-07
3.11369e-06
1.70061e-07
3.11321e-06
1.5606e-07
3.11269e-06
1.50429e-07
3.1121e-06
1.51059e-07
3.11197e-06
1.53689e-07
3.11244e-06
1.54059e-07
3.11257e-06
1.5078e-07
3.11117e-06
1.44432e-07
3.10738e-06
1.37376e-07
3.10107e-06
1.31263e-07
1.27598e-07
3.09264e-06
2.88334e-06
3.73651e-07
2.86917e-06
4.37743e-07
2.86455e-06
3.60318e-07
2.86121e-06
2.99829e-07
2.85267e-06
2.62062e-07
2.84356e-06
2.28588e-07
2.83709e-06
1.98133e-07
2.83301e-06
1.74137e-07
2.83041e-06
1.58665e-07
2.82931e-06
1.5153e-07
2.83009e-06
1.50271e-07
2.83235e-06
1.51429e-07
2.83443e-06
1.51979e-07
2.83423e-06
1.50978e-07
2.83032e-06
1.48344e-07
2.8228e-06
1.44896e-07
2.81313e-06
1.40939e-07
1.36186e-07
2.80454e-06
3.49327e-06
4.90005e-07
3.47874e-06
4.52274e-07
3.46389e-06
3.75172e-07
3.44785e-06
3.15862e-07
3.44224e-06
2.6768e-07
3.44695e-06
2.23878e-07
3.45608e-06
1.88996e-07
3.46332e-06
1.669e-07
3.4653e-06
1.56681e-07
3.46285e-06
1.5398e-07
3.45939e-06
1.53737e-07
3.45817e-06
1.52646e-07
3.46024e-06
1.49906e-07
3.46483e-06
1.46393e-07
3.46995e-06
1.43227e-07
3.47429e-06
1.40552e-07
3.47697e-06
1.38262e-07
1.35999e-07
3.47715e-06
4.30733e-06
5.90001e-07
4.25401e-06
5.0559e-07
4.22543e-06
4.03755e-07
4.22801e-06
3.13278e-07
4.25099e-06
2.44706e-07
4.27099e-06
2.03871e-07
4.274e-06
1.85995e-07
4.25978e-06
1.8111e-07
4.2368e-06
1.79665e-07
4.2151e-06
1.75683e-07
4.20177e-06
1.67067e-07
4.19955e-06
1.54865e-07
4.20742e-06
1.42032e-07
4.22221e-06
1.31603e-07
4.24029e-06
1.25146e-07
4.25837e-06
1.22478e-07
4.27448e-06
1.22153e-07
1.22747e-07
4.28773e-06
5.23478e-06
5.79767e-07
5.21745e-06
5.22918e-07
5.21448e-06
4.06722e-07
5.22818e-06
2.99583e-07
5.2447e-06
2.28183e-07
5.24957e-06
1.99005e-07
5.23856e-06
1.97007e-07
5.21761e-06
2.02058e-07
5.19613e-06
2.0114e-07
5.18068e-06
1.91133e-07
5.17313e-06
1.74622e-07
5.17196e-06
1.56037e-07
5.17454e-06
1.39452e-07
5.17843e-06
1.2771e-07
5.18273e-06
1.20843e-07
5.18733e-06
1.17884e-07
5.19318e-06
1.16298e-07
1.15215e-07
5.20071e-06
6.29344e-06
5.0922e-07
6.33524e-06
4.81122e-07
6.33461e-06
4.07353e-07
6.31647e-06
3.17722e-07
6.30046e-06
2.44192e-07
6.2878e-06
2.11662e-07
6.27806e-06
2.06744e-07
6.27554e-06
2.04586e-07
6.28421e-06
1.92466e-07
6.30244e-06
1.729e-07
6.3234e-06
1.53667e-07
6.33976e-06
1.39673e-07
6.34796e-06
1.31251e-07
6.34952e-06
1.26151e-07
6.34894e-06
1.2143e-07
6.3509e-06
1.1592e-07
6.35829e-06
1.08908e-07
1.01989e-07
6.37152e-06
7.75202e-06
5.2601e-07
7.77373e-06
4.59408e-07
7.80016e-06
3.80919e-07
7.80317e-06
3.14714e-07
7.77564e-06
2.71722e-07
7.74058e-06
2.46728e-07
7.71742e-06
2.29897e-07
7.71126e-06
2.10748e-07
7.71791e-06
1.85819e-07
7.73138e-06
1.59426e-07
7.74746e-06
1.37585e-07
7.76398e-06
1.2316e-07
7.78011e-06
1.15119e-07
7.79568e-06
1.10578e-07
7.81062e-06
1.06489e-07
7.82503e-06
1.01513e-07
7.83876e-06
9.51786e-08
8.89814e-08
7.85177e-06
9.35254e-06
4.7581e-07
9.40355e-06
4.08397e-07
9.44035e-06
3.44124e-07
9.44953e-06
3.05534e-07
9.43938e-06
2.81867e-07
9.42896e-06
2.57154e-07
9.43466e-06
2.24189e-07
9.45941e-06
1.86005e-07
9.49565e-06
1.49574e-07
9.53399e-06
1.21086e-07
9.56813e-06
1.03447e-07
9.59531e-06
9.59783e-08
9.61541e-06
9.50213e-08
9.63001e-06
9.59826e-08
9.64118e-06
9.53158e-08
9.65046e-06
9.22299e-08
9.65875e-06
8.68892e-08
8.12271e-08
9.6665e-06
1.15675e-05
4.7259e-07
1.16181e-05
3.57886e-07
1.16252e-05
3.36937e-07
1.1608e-05
3.2275e-07
1.16073e-05
2.82633e-07
1.16399e-05
2.24513e-07
1.16976e-05
1.66488e-07
1.17625e-05
1.21095e-07
1.18198e-05
9.22381e-08
1.18624e-05
7.85067e-08
1.1889e-05
7.68655e-08
1.19015e-05
8.34388e-08
1.19039e-05
9.26557e-08
1.19001e-05
9.976e-08
1.18938e-05
1.01676e-07
1.18877e-05
9.82796e-08
1.18839e-05
9.0691e-08
8.12489e-08
1.18839e-05
8.21241e-06
3.9385e-07
8.30883e-06
2.61465e-07
8.39387e-06
2.51894e-07
8.46334e-06
2.53284e-07
8.5197e-06
2.26275e-07
8.56216e-06
1.82054e-07
8.59233e-06
1.3631e-07
8.61446e-06
9.89704e-08
8.63376e-06
7.29372e-08
8.65434e-06
5.7926e-08
8.67769e-06
5.35206e-08
8.70309e-06
5.80383e-08
8.72798e-06
6.77595e-08
8.74949e-06
7.82547e-08
8.76552e-06
8.56476e-08
8.7754e-06
8.83926e-08
8.77962e-06
8.64722e-08
8.13385e-08
8.77953e-06
7.22469e-06
3.95459e-07
7.26173e-06
2.24429e-07
7.31353e-06
2.00094e-07
7.37073e-06
1.96083e-07
7.41965e-06
1.7735e-07
7.45297e-06
1.48741e-07
7.46936e-06
1.19919e-07
7.47412e-06
9.42016e-08
7.47579e-06
7.12731e-08
7.48198e-06
5.17336e-08
7.49741e-06
3.80933e-08
7.52271e-06
3.27372e-08
7.55499e-06
3.54749e-08
7.58956e-06
4.36903e-08
7.62207e-06
5.31319e-08
7.64994e-06
6.0525e-08
7.67251e-06
6.39042e-08
6.27217e-08
7.69113e-06
6.51865e-06
5.36555e-07
6.46266e-06
2.80425e-07
6.46079e-06
2.0196e-07
6.47172e-06
1.85154e-07
6.49146e-06
1.57608e-07
6.51853e-06
1.2167e-07
6.54673e-06
9.17278e-08
6.56925e-06
7.16803e-08
6.58356e-06
5.69591e-08
6.59272e-06
4.25758e-08
6.60248e-06
2.83368e-08
6.61735e-06
1.78619e-08
6.63855e-06
1.42706e-08
6.66454e-06
1.7706e-08
6.69243e-06
2.5243e-08
6.71958e-06
3.33704e-08
6.74403e-06
3.94612e-08
4.19864e-08
6.76476e-06
5.48841e-06
3.43915e-07
5.56538e-06
2.03455e-07
5.61993e-06
1.47404e-07
5.65922e-06
1.45864e-07
5.68621e-06
1.30623e-07
5.71026e-06
9.76137e-08
5.73547e-06
6.65222e-08
5.7593e-06
4.78449e-08
5.77696e-06
3.93054e-08
5.78585e-06
3.36827e-08
5.78791e-06
2.62788e-08
5.78892e-06
1.6853e-08
5.79546e-06
7.72794e-09
5.81154e-06
1.62217e-09
5.83737e-06
-5.79633e-10
5.87056e-06
1.73062e-10
5.9072e-06
2.82032e-09
6.26701e-09
5.94292e-06
4.89682e-06
4.15102e-07
4.91347e-06
1.86807e-07
4.93377e-06
1.27099e-07
4.96793e-06
1.11709e-07
5.01586e-06
8.26945e-08
5.0645e-06
4.89657e-08
5.10077e-06
3.02506e-08
5.12049e-06
2.81318e-08
5.12847e-06
3.1324e-08
5.13199e-06
3.01608e-08
5.13637e-06
2.19019e-08
5.14373e-06
9.4891e-09
5.15412e-06
-2.66219e-09
5.16632e-06
-1.05753e-08
5.17992e-06
-1.41805e-08
5.19408e-06
-1.39874e-08
5.20834e-06
-1.14386e-08
-7.7831e-09
5.22239e-06
4.22893e-06
3.1687e-07
4.26629e-06
1.49447e-07
4.30065e-06
9.27344e-08
4.34709e-06
6.52684e-08
4.39671e-06
3.30773e-08
4.43695e-06
8.73037e-09
4.46184e-06
5.36007e-09
4.47386e-06
1.61121e-08
4.47992e-06
2.52605e-08
4.48674e-06
2.33428e-08
4.49677e-06
1.18671e-08
4.50888e-06
-2.62102e-09
4.52105e-06
-1.48265e-08
4.53143e-06
-2.09586e-08
4.53928e-06
-2.20299e-08
4.54513e-06
-1.98381e-08
4.55005e-06
-1.63588e-08
-1.28392e-08
4.55511e-06
3.75599e-06
2.48491e-07
3.80525e-06
1.0019e-07
3.83362e-06
6.43614e-08
3.84462e-06
5.42706e-08
3.84396e-06
3.37323e-08
3.8415e-06
1.1195e-08
3.84726e-06
-4.00202e-10
3.86424e-06
-8.69089e-10
3.89006e-06
-5.60506e-10
3.9184e-06
-4.99467e-09
3.9442e-06
-1.39383e-08
3.96488e-06
-2.32942e-08
3.98018e-06
-3.01337e-08
3.99228e-06
-3.30603e-08
4.00306e-06
-3.28041e-08
4.0137e-06
-3.04758e-08
4.02459e-06
-2.72567e-08
-2.37175e-08
4.03547e-06
3.25872e-06
1.89274e-07
3.27854e-06
8.03695e-08
3.30467e-06
3.82329e-08
3.33122e-06
2.77208e-08
3.35476e-06
1.01889e-08
3.37725e-06
-1.12948e-08
3.39931e-06
-2.24603e-08
3.42173e-06
-2.32921e-08
3.44297e-06
-2.17976e-08
3.46107e-06
-2.30903e-08
3.47444e-06
-2.73159e-08
3.48353e-06
-3.23772e-08
3.48984e-06
-3.6446e-08
3.49562e-06
-3.88392e-08
3.50256e-06
-3.97469e-08
3.51147e-06
-3.93885e-08
3.52232e-06
-3.81049e-08
-3.56666e-08
3.53427e-06
2.82036e-06
1.21248e-07
2.89678e-06
3.94541e-09
2.93892e-06
-3.90748e-09
2.97882e-06
-1.21802e-08
3.01175e-06
-2.27412e-08
3.03353e-06
-3.30708e-08
3.04796e-06
-3.68875e-08
3.05912e-06
-3.44611e-08
3.06893e-06
-3.16017e-08
3.07784e-06
-3.2002e-08
3.08567e-06
-3.51506e-08
3.09221e-06
-3.89079e-08
3.09769e-06
-4.19323e-08
3.10324e-06
-4.43887e-08
3.10999e-06
-4.64993e-08
3.11853e-06
-4.79296e-08
3.12858e-06
-4.81504e-08
-4.61588e-08
3.13907e-06
2.48922e-06
5.29163e-08
2.54332e-06
-5.01505e-08
2.56697e-06
-2.75616e-08
2.58836e-06
-3.35679e-08
2.6098e-06
-4.418e-08
2.62726e-06
-5.05379e-08
2.6405e-06
-5.01263e-08
2.65153e-06
-4.54914e-08
2.66182e-06
-4.18846e-08
2.67097e-06
-4.11568e-08
2.67732e-06
-4.15016e-08
2.67937e-06
-4.09573e-08
2.67696e-06
-3.95217e-08
2.67119e-06
-3.86222e-08
2.6636e-06
-3.891e-08
2.6555e-06
-3.98293e-08
2.64736e-06
-4.00062e-08
-3.81462e-08
2.63935e-06
2.16277e-06
2.11262e-06
2.08506e-06
2.05149e-06
2.00731e-06
1.95677e-06
1.90665e-06
1.86116e-06
1.81927e-06
1.77811e-06
1.73661e-06
1.69566e-06
1.65613e-06
1.61751e-06
1.5786e-06
1.53877e-06
1.49877e-06
1.46062e-06
4.98925e-08
-4.98925e-08
1.56602e-07
-1.06709e-07
2.83035e-07
-1.26433e-07
4.15013e-07
-1.31979e-07
5.4885e-07
-1.33837e-07
6.84437e-07
-1.35587e-07
8.22462e-07
-1.38025e-07
9.63424e-07
-1.40962e-07
1.10731e-06
-1.43882e-07
1.25342e-06
-1.46118e-07
1.40029e-06
-1.46862e-07
1.54552e-06
-1.45234e-07
1.68575e-06
-1.40234e-07
1.81666e-06
-1.30908e-07
1.93297e-06
-1.16309e-07
2.02885e-06
-9.58807e-08
2.09787e-06
-6.90217e-08
2.13395e-06
-3.60746e-08
2.13212e-06
1.83088e-09
2.08361e-06
4.85033e-08
1.98744e-06
9.6176e-08
1.8447e-06
1.42735e-07
1.66014e-06
1.84558e-07
1.44204e-06
2.18102e-07
1.20284e-06
2.39204e-07
9.58175e-07
2.44664e-07
7.19715e-07
2.38461e-07
5.52564e-07
1.67151e-07
5.50032e-07
2.53115e-09
6.44121e-07
-9.40886e-08
7.03356e-07
-5.92349e-08
6.69631e-07
3.37252e-08
4.71342e-07
1.98289e-07
5.47331e-08
4.16609e-07
-4.87564e-07
5.42297e-07
-1.04221e-06
5.54643e-07
-1.56989e-06
5.27687e-07
-2.05674e-06
4.86846e-07
-2.49864e-06
4.41905e-07
-2.89553e-06
3.9689e-07
-3.24939e-06
3.53857e-07
-3.56308e-06
3.13693e-07
-3.83962e-06
2.76533e-07
-4.08179e-06
2.42174e-07
-4.29202e-06
2.10225e-07
-4.47227e-06
1.80249e-07
-4.62407e-06
1.51806e-07
-4.74863e-06
1.24553e-07
-4.84693e-06
9.83006e-08
-4.91994e-06
7.30115e-08
-4.96869e-06
4.87502e-08
-4.99431e-06
2.56245e-08
-4.99815e-06
3.83914e-09
-4.98303e-06
-1.51192e-08
-4.95042e-06
-3.26095e-08
-4.90254e-06
-4.78799e-08
-4.84168e-06
-6.08596e-08
-4.7699e-06
-7.17851e-08
-4.68912e-06
-8.07757e-08
-4.60101e-06
-8.81102e-08
-4.50681e-06
-9.42006e-08
-4.40725e-06
-9.95568e-08
-4.30245e-06
-1.0481e-07
-4.19183e-06
-1.1061e-07
-4.07428e-06
-1.17553e-07
-3.94826e-06
-1.26023e-07
-3.8122e-06
-1.36054e-07
-3.66498e-06
-1.47228e-07
-3.5063e-06
-1.58678e-07
-3.33707e-06
-1.69226e-07
-3.15939e-06
-1.77682e-07
-2.9761e-06
-1.83291e-07
-2.78997e-06
-1.86128e-07
-2.60286e-06
-1.87117e-07
-2.41527e-06
-1.87582e-07
-2.22678e-06
-1.88496e-07
-2.03659e-06
-1.90186e-07
-1.84404e-06
-1.92554e-07
-1.64889e-06
-1.95151e-07
-1.45169e-06
-1.97201e-07
-1.25377e-06
-1.9792e-07
-1.05698e-06
-1.9679e-07
-8.63355e-07
-1.93623e-07
-6.74935e-07
-1.88419e-07
-4.93468e-07
-1.81467e-07
-3.20326e-07
-1.73143e-07
-1.56512e-07
-1.63814e-07
-2.71709e-09
-1.53795e-07
1.41585e-07
-1.44302e-07
2.75816e-07
-1.34232e-07
4.0021e-07
-1.24393e-07
5.15065e-07
-1.14856e-07
6.20751e-07
-1.05686e-07
7.17674e-07
-9.69228e-08
8.06261e-07
-8.85869e-08
8.86946e-07
-8.06853e-08
9.60165e-07
-7.32191e-08
1.02635e-06
-6.61864e-08
1.08594e-06
-5.95854e-08
1.13935e-06
-5.34152e-08
1.18703e-06
-4.76757e-08
1.22939e-06
-4.23666e-08
1.26688e-06
-3.74859e-08
1.29991e-06
-3.30276e-08
1.32889e-06
-2.89801e-08
1.35421e-06
-2.53253e-08
1.37625e-06
-2.20381e-08
1.39534e-06
-1.90866e-08
1.41177e-06
-1.64356e-08
1.42582e-06
-1.40455e-08
1.4377e-06
-1.18777e-08
1.4476e-06
-9.89999e-09
1.45567e-06
-8.07773e-09
1.46206e-06
-6.38979e-09
1.46689e-06
-4.82868e-09
1.47026e-06
-3.36731e-09
1.47227e-06
-2.01241e-09
1.47305e-06
-7.79174e-10
1.47268e-06
3.71943e-10
1.47123e-06
1.45491e-09
1.46882e-06
2.40533e-09
1.46562e-06
3.20397e-09
1.46176e-06
3.85887e-09
1.45738e-06
4.37516e-09
1.45262e-06
4.76339e-09
1.44758e-06
5.04109e-09
1.44235e-06
5.22802e-09
1.43701e-06
5.3404e-09
1.43162e-06
5.39096e-09
1.42622e-06
5.39579e-09
1.42085e-06
5.37444e-09
1.41551e-06
5.33725e-09
1.41023e-06
5.28102e-09
1.40502e-06
5.20466e-09
1.3999e-06
5.12092e-09
1.39485e-06
5.04997e-09
1.38986e-06
4.99356e-09
1.38491e-06
4.94779e-09
1.38001e-06
4.90585e-09
1.37514e-06
4.86638e-09
1.37031e-06
4.82886e-09
1.36552e-06
4.79221e-09
1.36076e-06
4.75451e-09
1.35605e-06
4.71486e-09
1.35138e-06
4.67332e-09
1.34675e-06
4.63047e-09
1.34216e-06
4.58984e-09
1.3376e-06
4.55542e-09
1.33307e-06
4.53068e-09
1.32855e-06
4.51697e-09
1.32404e-06
4.51455e-09
1.31952e-06
4.52254e-09
1.31498e-06
4.53949e-09
1.31041e-06
4.56431e-09
1.30582e-06
4.59684e-09
1.30118e-06
4.63766e-09
1.29649e-06
4.68837e-09
1.29174e-06
4.75084e-09
1.28691e-06
4.82825e-09
1.28199e-06
4.92291e-09
1.27695e-06
5.04086e-09
1.27176e-06
5.18377e-09
1.2664e-06
5.3643e-09
1.26082e-06
5.57924e-09
1.25496e-06
5.86186e-09
1.24877e-06
6.18861e-09
1.24212e-06
6.64937e-09
1.23497e-06
7.14819e-09
1.22703e-06
7.93784e-09
1.21834e-06
8.69526e-09
1.2082e-06
1.01401e-08
1.19694e-06
1.12557e-08
1.18282e-06
1.41201e-08
1.16722e-06
1.56044e-08
1.14535e-06
2.18665e-08
1.12209e-06
2.32657e-08
1.08344e-06
3.86426e-08
1.04542e-06
3.80222e-08
9.65251e-07
8.01704e-08
7.10639e-08
8.94187e-07
7.73411e-08
-1.27234e-07
1.79998e-07
-2.09367e-07
2.82837e-07
-2.29271e-07
3.86258e-07
-2.354e-07
4.93058e-07
-2.40638e-07
6.04914e-07
-2.47442e-07
7.22556e-07
-2.55668e-07
8.46134e-07
-2.6454e-07
9.75341e-07
-2.73089e-07
1.10933e-06
-2.8011e-07
1.24657e-06
-2.84097e-07
1.38468e-06
-2.83347e-07
1.52043e-06
-2.7598e-07
1.64964e-06
-2.60116e-07
1.76725e-06
-2.33921e-07
1.86757e-06
-1.96199e-07
1.9442e-06
-1.4566e-07
1.99058e-06
-8.24492e-08
2.00072e-06
-8.31159e-09
1.97257e-06
7.66544e-08
1.90428e-06
1.64465e-07
1.79846e-06
2.48558e-07
1.65879e-06
3.24223e-07
1.49326e-06
3.83634e-07
1.32341e-06
4.0905e-07
1.17179e-06
3.96293e-07
1.06029e-06
3.49954e-07
9.59756e-07
2.67688e-07
7.43007e-07
2.19279e-07
3.21387e-07
3.27531e-07
-3.03658e-07
5.6581e-07
-1.00076e-06
7.30827e-07
-1.62597e-06
8.23499e-07
-2.1102e-06
9.00841e-07
-2.49851e-06
9.30605e-07
-2.84696e-06
9.03094e-07
-3.16837e-06
8.49098e-07
-3.46244e-06
7.80914e-07
-3.72912e-06
7.08585e-07
-3.96969e-06
6.37463e-07
-4.18584e-06
5.70008e-07
-4.37942e-06
5.07263e-07
-4.55193e-06
4.4905e-07
-4.70447e-06
3.94712e-07
-4.83812e-06
3.43875e-07
-4.95351e-06
2.95642e-07
-5.05073e-06
2.49018e-07
-5.12963e-06
2.03455e-07
-5.19002e-06
1.58697e-07
-5.23176e-06
1.14748e-07
-5.2549e-06
7.18894e-08
-5.25998e-06
3.07e-08
-5.24763e-06
-8.50973e-09
-5.21752e-06
-4.52214e-08
-5.17172e-06
-7.84093e-08
-5.11173e-06
-1.07875e-07
-5.03926e-06
-1.33326e-07
-4.95639e-06
-1.54662e-07
-4.86505e-06
-1.72112e-07
-4.76695e-06
-1.86208e-07
-4.66338e-06
-1.97769e-07
-4.55506e-06
-2.07879e-07
-4.44204e-06
-2.17831e-07
-4.32363e-06
-2.29018e-07
-4.19846e-06
-2.42721e-07
-4.06468e-06
-2.59806e-07
-3.92034e-06
-2.80395e-07
-3.76398e-06
-3.03591e-07
-3.59522e-06
-3.27431e-07
-3.41521e-06
-3.49242e-07
-3.22648e-06
-3.66406e-07
-3.03272e-06
-3.77057e-07
-2.83739e-06
-3.81453e-07
-2.64264e-06
-3.81868e-07
-2.44867e-06
-3.81554e-07
-2.25432e-06
-3.82848e-07
-2.05817e-06
-3.86327e-07
-1.85911e-06
-3.91619e-07
-1.65655e-06
-3.97711e-07
-1.451e-06
-4.02747e-07
-1.24404e-06
-4.04884e-07
-1.0378e-06
-4.03026e-07
-8.34618e-07
-3.96807e-07
-6.36726e-07
-3.86312e-07
-4.45956e-07
-3.72237e-07
-2.63642e-07
-3.55457e-07
-9.06663e-08
-3.36789e-07
7.29733e-08
-3.17434e-07
2.2659e-07
-2.97918e-07
3.70723e-07
-2.78365e-07
5.0558e-07
-2.5925e-07
6.31538e-07
-2.40814e-07
7.49036e-07
-2.23183e-07
8.5853e-07
-2.06417e-07
9.60474e-07
-1.90531e-07
1.0553e-06
-1.75513e-07
1.14343e-06
-1.61342e-07
1.22523e-06
-1.47995e-07
1.3011e-06
-1.35453e-07
1.37139e-06
-1.23705e-07
1.43647e-06
-1.1275e-07
1.49669e-06
-1.0259e-07
1.55243e-06
-9.32259e-08
1.60406e-06
-8.46554e-08
1.65194e-06
-7.68653e-08
1.69645e-06
-6.98306e-08
1.73792e-06
-6.35118e-08
1.77669e-06
-5.78552e-08
1.81305e-06
-5.27967e-08
1.84727e-06
-4.82621e-08
1.87956e-06
-4.41743e-08
1.91012e-06
-4.04597e-08
1.93909e-06
-3.70458e-08
1.96658e-06
-3.38758e-08
1.99266e-06
-3.09063e-08
2.01739e-06
-2.80977e-08
2.04081e-06
-2.54332e-08
2.06294e-06
-2.29149e-08
2.08386e-06
-2.05411e-08
2.10361e-06
-1.82948e-08
2.1222e-06
-1.61878e-08
2.13965e-06
-1.42458e-08
2.15598e-06
-1.24708e-08
2.17122e-06
-1.08615e-08
2.18539e-06
-9.4131e-09
2.19855e-06
-8.11281e-09
2.21072e-06
-6.9414e-09
2.22194e-06
-5.88175e-09
2.23225e-06
-4.9215e-09
2.24169e-06
-4.04322e-09
2.25029e-06
-3.22375e-09
2.25808e-06
-2.45318e-09
2.26509e-06
-1.7364e-09
2.27136e-06
-1.06472e-09
2.27689e-06
-4.07567e-10
2.2817e-06
2.45435e-10
2.28581e-06
8.81724e-10
2.28926e-06
1.50155e-09
2.29207e-06
2.09563e-09
2.29427e-06
2.66052e-09
2.29591e-06
3.19423e-09
2.297e-06
3.69667e-09
2.29759e-06
4.16635e-09
2.2977e-06
4.60156e-09
2.29737e-06
5.00446e-09
2.29663e-06
5.37516e-09
2.2955e-06
5.71781e-09
2.29402e-06
6.03761e-09
2.29221e-06
6.34043e-09
2.29009e-06
6.62918e-09
2.2877e-06
6.90663e-09
2.28505e-06
7.17425e-09
2.28216e-06
7.43215e-09
2.27904e-06
7.68082e-09
2.27572e-06
7.92148e-09
2.2722e-06
8.15718e-09
2.26849e-06
8.39315e-09
2.26461e-06
8.63605e-09
2.26054e-06
8.89473e-09
2.25629e-06
9.17606e-09
2.25184e-06
9.49221e-09
2.24717e-06
9.84698e-09
2.24228e-06
1.02618e-08
2.23713e-06
1.07292e-08
2.23168e-06
1.13075e-08
2.22592e-06
1.1951e-08
2.21975e-06
1.28199e-08
2.21316e-06
1.37384e-08
2.20594e-06
1.51541e-08
2.19815e-06
1.64894e-08
2.18929e-06
1.8999e-08
2.17963e-06
2.0914e-08
2.16799e-06
2.57621e-08
2.15524e-06
2.83506e-08
2.13853e-06
3.85802e-08
2.12013e-06
4.16592e-08
2.09359e-06
6.51821e-08
2.06342e-06
6.81924e-08
2.01718e-06
1.26415e-07
1.3094e-07
1.9573e-06
7.66755e-08
-2.03909e-07
1.47962e-07
-2.80653e-07
2.13328e-07
-2.94637e-07
2.81489e-07
-3.0356e-07
3.55623e-07
-3.14772e-07
4.36414e-07
-3.28233e-07
5.23833e-07
-3.43087e-07
6.1772e-07
-3.58427e-07
7.17768e-07
-3.73137e-07
8.23271e-07
-3.85613e-07
9.32844e-07
-3.9367e-07
1.04439e-06
-3.94893e-07
1.15495e-06
-3.86538e-07
1.26067e-06
-3.65842e-07
1.35694e-06
-3.30192e-07
1.43833e-06
-2.77586e-07
1.4991e-06
-2.06425e-07
1.53395e-06
-1.173e-07
1.54009e-06
-1.44522e-08
1.50941e-06
1.07329e-07
1.44468e-06
2.29199e-07
1.35063e-06
3.42604e-07
1.23295e-06
4.4191e-07
1.09455e-06
5.22031e-07
9.27655e-07
5.75945e-07
7.13404e-07
6.10543e-07
4.16376e-07
6.46983e-07
-5.40395e-08
7.38103e-07
-7.17237e-07
8.82477e-07
-1.3988e-06
1.0091e-06
-1.93438e-06
1.10138e-06
-2.36293e-06
1.15938e-06
-2.72743e-06
1.18799e-06
-3.01157e-06
1.18499e-06
-3.23244e-06
1.15148e-06
-3.42359e-06
1.09424e-06
-3.60151e-06
1.02702e-06
-3.77467e-06
9.54074e-07
-3.94555e-06
8.7947e-07
-4.11354e-06
8.05451e-07
-4.27699e-06
7.33458e-07
-4.43399e-06
6.64265e-07
-4.58261e-06
5.97672e-07
-4.72108e-06
5.33177e-07
-4.84726e-06
4.70056e-07
-4.95921e-06
4.07596e-07
-5.05534e-06
3.45147e-07
-5.13419e-06
2.82304e-07
-5.19451e-06
2.19015e-07
-5.2354e-06
1.55637e-07
-5.25621e-06
9.2702e-08
-5.2565e-06
3.09842e-08
-5.23742e-06
-2.75825e-08
-5.20059e-06
-8.20489e-08
-5.14728e-06
-1.31725e-07
-5.07949e-06
-1.75667e-07
-4.99947e-06
-2.13343e-07
-4.90962e-06
-2.44516e-07
-4.81223e-06
-2.69496e-07
-4.70934e-06
-2.89098e-07
-4.60249e-06
-3.04622e-07
-4.49255e-06
-3.17816e-07
-4.3796e-06
-3.30784e-07
-4.26278e-06
-3.45839e-07
-4.14032e-06
-3.65176e-07
-4.00977e-06
-3.90362e-07
-3.86842e-06
-4.21743e-07
-3.71408e-06
-4.5793e-07
-3.54588e-06
-4.95635e-07
-3.36488e-06
-5.30233e-07
-3.17429e-06
-5.56999e-07
-2.97866e-06
-5.72685e-07
-2.78271e-06
-5.77411e-07
-2.58941e-06
-5.75164e-07
-2.39874e-06
-5.72222e-07
-2.20831e-06
-5.73283e-07
-2.01551e-06
-5.79125e-07
-1.81848e-06
-5.88654e-07
-1.6161e-06
-6.00086e-07
-1.4089e-06
-6.09948e-07
-1.19916e-06
-6.14622e-07
-9.89967e-07
-6.12219e-07
-7.84435e-07
-6.02339e-07
-5.85267e-07
-5.85479e-07
-3.94494e-07
-5.63011e-07
-2.13451e-07
-5.365e-07
-4.29456e-08
-5.07294e-07
1.17402e-07
-4.77782e-07
2.67099e-07
-4.47615e-07
4.06631e-07
-4.17897e-07
5.36443e-07
-3.89062e-07
6.57064e-07
-3.61435e-07
7.69086e-07
-3.35206e-07
8.73137e-07
-3.10468e-07
9.6985e-07
-2.87244e-07
1.05984e-06
-2.65503e-07
1.14367e-06
-2.45177e-07
1.22186e-06
-2.26178e-07
1.29482e-06
-2.08416e-07
1.36293e-06
-1.91815e-07
1.4265e-06
-1.76326e-07
1.48584e-06
-1.61925e-07
1.54123e-06
-1.48611e-07
1.59296e-06
-1.36389e-07
1.64135e-06
-1.2526e-07
1.68673e-06
-1.1521e-07
1.72942e-06
-1.06202e-07
1.76974e-06
-9.8171e-08
1.80798e-06
-9.10333e-08
1.8444e-06
-8.46842e-08
1.87923e-06
-7.90088e-08
1.91266e-06
-7.38915e-08
1.94484e-06
-6.92197e-08
1.97586e-06
-6.48965e-08
2.0058e-06
-6.08431e-08
2.0347e-06
-5.69973e-08
2.06258e-06
-5.3321e-08
2.08946e-06
-4.97956e-08
2.11534e-06
-4.64125e-08
2.14021e-06
-4.31645e-08
2.16407e-06
-4.00575e-08
2.18694e-06
-3.71117e-08
2.20881e-06
-3.434e-08
2.22969e-06
-3.17413e-08
2.24959e-06
-2.9312e-08
2.26852e-06
-2.70417e-08
2.28649e-06
-2.49143e-08
2.30352e-06
-2.29146e-08
2.31963e-06
-2.10278e-08
2.33482e-06
-1.92367e-08
2.34912e-06
-1.75236e-08
2.36255e-06
-1.58765e-08
2.3751e-06
-1.42892e-08
2.38679e-06
-1.27552e-08
2.39765e-06
-1.1266e-08
2.4077e-06
-9.81035e-09
2.41697e-06
-8.38665e-09
2.42547e-06
-6.99399e-09
2.4332e-06
-5.63996e-09
2.44019e-06
-4.33056e-09
2.44646e-06
-3.06954e-09
2.45201e-06
-1.85713e-09
2.45687e-06
-6.94847e-10
2.46105e-06
4.20814e-10
2.46458e-06
1.4802e-09
2.46748e-06
2.4762e-09
2.46978e-06
3.4137e-09
2.47152e-06
4.29669e-09
2.47273e-06
5.13112e-09
2.47344e-06
5.91848e-09
2.47369e-06
6.6625e-09
2.47349e-06
7.36612e-09
2.47289e-06
8.03175e-09
2.47191e-06
8.66157e-09
2.47058e-06
9.25873e-09
2.46891e-06
9.82711e-09
2.46693e-06
1.03743e-08
2.46465e-06
1.0908e-08
2.46211e-06
1.14422e-08
2.4593e-06
1.19851e-08
2.45623e-06
1.25576e-08
2.45292e-06
1.3161e-08
2.44935e-06
1.38322e-08
2.44552e-06
1.45532e-08
2.44142e-06
1.54102e-08
2.43704e-06
1.63316e-08
2.43233e-06
1.75322e-08
2.42728e-06
1.87832e-08
2.4218e-06
2.06339e-08
2.41588e-06
2.24109e-08
2.40935e-06
2.5535e-08
2.40214e-06
2.8119e-08
2.39405e-06
3.38567e-08
2.38475e-06
3.76472e-08
2.37429e-06
4.9043e-08
2.36121e-06
5.47348e-08
2.34739e-06
7.90068e-08
2.32699e-06
8.85877e-08
2.3103e-06
1.43105e-07
1.64597e-07
2.27664e-06
5.02062e-08
-2.54115e-07
8.46391e-08
-3.15086e-07
1.17036e-07
-3.27035e-07
1.52828e-07
-3.39352e-07
1.92514e-07
-3.54457e-07
2.35857e-07
-3.71576e-07
2.82574e-07
-3.89804e-07
3.32507e-07
-4.0836e-07
3.85376e-07
-4.26006e-07
4.40818e-07
-4.41055e-07
4.98283e-07
-4.51135e-07
5.56738e-07
-4.53349e-07
6.14313e-07
-4.44113e-07
6.68069e-07
-4.19598e-07
7.14077e-07
-3.76199e-07
7.47051e-07
-3.1056e-07
7.61244e-07
-2.20619e-07
7.50908e-07
-1.06963e-07
7.10343e-07
2.61129e-08
6.41587e-07
1.76085e-07
5.41917e-07
3.28869e-07
4.06325e-07
4.78196e-07
2.28186e-07
6.20049e-07
-2.38428e-09
7.52602e-07
-3.04988e-07
8.78549e-07
-6.92685e-07
9.9824e-07
-1.16105e-06
1.11535e-06
-1.6463e-06
1.22335e-06
-2.07473e-06
1.31091e-06
-2.43335e-06
1.36772e-06
-2.72515e-06
1.39319e-06
-2.96071e-06
1.39494e-06
-3.15311e-06
1.38039e-06
-3.31604e-06
1.34792e-06
-3.46373e-06
1.29916e-06
-3.60727e-06
1.23778e-06
-3.74933e-06
1.16908e-06
-3.89139e-06
1.09613e-06
-4.03301e-06
1.02109e-06
-4.17342e-06
9.45865e-07
-4.31143e-06
8.71468e-07
-4.44562e-06
7.98455e-07
-4.57447e-06
7.26525e-07
-4.69634e-06
6.5504e-07
-4.8093e-06
5.83021e-07
-4.91117e-06
5.09465e-07
-4.99963e-06
4.33605e-07
-5.0724e-06
3.5507e-07
-5.12735e-06
2.73974e-07
-5.16281e-06
1.91098e-07
-5.17781e-06
1.07696e-07
-5.17114e-06
2.43136e-08
-5.14509e-06
-5.36352e-08
-5.1002e-06
-1.26935e-07
-5.03759e-06
-1.94338e-07
-4.95957e-06
-2.53682e-07
-4.86904e-06
-3.03876e-07
-4.76895e-06
-3.44599e-07
-4.66209e-06
-3.76366e-07
-4.55085e-06
-4.00335e-07
-4.43717e-06
-4.18302e-07
-4.32234e-06
-4.32641e-07
-4.2069e-06
-4.46225e-07
-4.09048e-06
-4.62261e-07
-3.97175e-06
-4.83903e-07
-3.84845e-06
-5.13661e-07
-3.7177e-06
-5.52496e-07
-3.57666e-06
-5.98973e-07
-3.42339e-06
-6.48905e-07
-3.25774e-06
-6.9588e-07
-3.08177e-06
-7.32966e-07
-2.89936e-06
-7.55093e-07
-2.71533e-06
-7.61444e-07
-2.53336e-06
-7.57131e-07
-2.35348e-06
-7.52102e-07
-2.17179e-06
-7.5498e-07
-1.98398e-06
-7.66929e-07
-1.78752e-06
-7.85117e-07
-1.58125e-06
-8.06357e-07
-1.36641e-06
-8.2479e-07
-1.147e-06
-8.34029e-07
-9.27907e-07
-8.31313e-07
-7.13848e-07
-8.16398e-07
-5.08284e-07
-7.91043e-07
-3.13387e-07
-7.57907e-07
-1.30246e-07
-7.1964e-07
4.12493e-08
-6.7879e-07
2.01145e-07
-6.37678e-07
3.49929e-07
-5.96398e-07
4.88077e-07
-5.56045e-07
6.16086e-07
-5.17072e-07
7.34398e-07
-4.79747e-07
8.43438e-07
-4.44246e-07
9.43675e-07
-4.10705e-07
1.03566e-06
-3.79231e-07
1.12006e-06
-3.49903e-07
1.19764e-06
-3.2275e-07
1.2692e-06
-2.97741e-07
1.33556e-06
-2.74779e-07
1.39745e-06
-2.53706e-07
1.45547e-06
-2.34341e-07
1.51005e-06
-2.1651e-07
1.56152e-06
-2.0008e-07
1.6101e-06
-1.84969e-07
1.65598e-06
-1.7114e-07
1.69935e-06
-1.58576e-07
1.7404e-06
-1.47255e-07
1.77936e-06
-1.37134e-07
1.81646e-06
-1.28132e-07
1.85192e-06
-1.20138e-07
1.88592e-06
-1.13014e-07
1.91864e-06
-1.06612e-07
1.95021e-06
-1.00783e-07
1.9807e-06
-9.53925e-08
2.01019e-06
-9.03301e-08
2.0387e-06
-8.55106e-08
2.06626e-06
-8.08762e-08
2.09286e-06
-7.63957e-08
2.1185e-06
-7.20589e-08
2.1432e-06
-6.78635e-08
2.16696e-06
-6.38161e-08
2.18979e-06
-5.9935e-08
2.21168e-06
-5.62344e-08
2.23266e-06
-5.27168e-08
2.25272e-06
-4.938e-08
2.2719e-06
-4.62154e-08
2.29019e-06
-4.32085e-08
2.30762e-06
-4.03443e-08
2.3242e-06
-3.76064e-08
2.33994e-06
-3.49765e-08
2.35485e-06
-3.24377e-08
2.36895e-06