/*--------------------------------*- C++ -*----------------------------------*\
  =========                 |
  \\      /  F ield         | OpenFOAM: The Open Source CFD Toolbox
   \\    /   O peration     | Website:  https://openfoam.org
    \\  /    A nd           | Version:  7
     \\/     M anipulation  |
\*---------------------------------------------------------------------------*/
FoamFile
{
    version     2.0;
    format      ascii;
    class       volVectorField;
    location    "0.041";
    object      U;
}
// * * * * * * * * * * * * * * * * * * * * * * * * * * * * * * * * * * * * * //

dimensions      [0 1 -1 0 0 0 0];

internalField   nonuniform List<vector> 
12225
(
(4.85256 0.210174 0)
(4.16882 0.11389 0)
(3.69647 0.0977361 0)
(3.30388 0.0822316 0)
(2.95204 0.0678469 0)
(2.61247 0.0605842 0)
(2.28602 0.0538787 0)
(1.98927 0.0463192 0)
(1.72622 0.0401124 0)
(1.49407 0.0346328 0)
(1.28735 0.0284655 0)
(1.10665 0.0215199 0)
(0.950006 0.0145931 0)
(0.823634 0.00875226 0)
(0.710918 0.00495253 0)
(0.62539 0.00347813 0)
(0.526565 0.00462611 0)
(0.456208 -0.00600744 0)
(5.13638 0.168998 0)
(4.95723 0.0997389 0)
(4.78118 0.0948178 0)
(4.66697 0.0970901 0)
(4.57337 0.0994478 0)
(4.46083 0.104965 0)
(4.32215 0.107606 0)
(4.1712 0.104304 0)
(4.01614 0.0982488 0)
(3.86109 0.0931884 0)
(3.70484 0.0894764 0)
(3.55462 0.0851625 0)
(3.40836 0.0791014 0)
(3.2772 0.072359 0)
(3.14448 0.0686701 0)
(3.01884 0.0663536 0)
(2.88131 0.0712229 0)
(2.75318 0.0647934 0)
(4.96268 0.201981 0)
(4.91087 0.147623 0)
(4.79507 0.151856 0)
(4.73033 0.135486 0)
(4.6986 0.120081 0)
(4.68102 0.121836 0)
(4.66723 0.129515 0)
(4.6497 0.131966 0)
(4.62495 0.130307 0)
(4.59395 0.129433 0)
(4.55581 0.129358 0)
(4.50749 0.126604 0)
(4.44704 0.119435 0)
(4.37588 0.11091 0)
(4.3007 0.106719 0)
(4.22193 0.106387 0)
(4.15182 0.111804 0)
(4.07683 0.120355 0)
(4.9534 0.209699 0)
(4.94264 0.143033 0)
(4.85484 0.140372 0)
(4.78587 0.133941 0)
(4.75099 0.124016 0)
(4.73992 0.12188 0)
(4.74223 0.12348 0)
(4.74613 0.121931 0)
(4.74404 0.118682 0)
(4.73596 0.117768 0)
(4.72545 0.119631 0)
(4.71192 0.122042 0)
(4.69447 0.123371 0)
(4.66971 0.123219 0)
(4.64272 0.124509 0)
(4.61305 0.12673 0)
(4.59014 0.132551 0)
(4.56457 0.140028 0)
(5.00765 0.196144 0)
(4.96702 0.154238 0)
(4.93173 0.171378 0)
(4.88576 0.159597 0)
(4.84562 0.132347 0)
(4.81575 0.119118 0)
(4.79461 0.120549 0)
(4.77632 0.125552 0)
(4.7578 0.12923 0)
(4.74208 0.132026 0)
(4.73382 0.134583 0)
(4.73223 0.136322 0)
(4.7332 0.136508 0)
(4.73074 0.134715 0)
(4.72467 0.13373 0)
(4.71535 0.134237 0)
(4.70677 0.137826 0)
(4.69728 0.144029 0)
(5.01534 0.202523 0)
(4.9734 0.157138 0)
(4.90974 0.155962 0)
(4.86865 0.160579 0)
(4.84473 0.152995 0)
(4.82142 0.145834 0)
(4.79739 0.142871 0)
(4.77754 0.139658 0)
(4.76451 0.134442 0)
(4.7579 0.129237 0)
(4.75645 0.126157 0)
(4.75698 0.125565 0)
(4.75674 0.126719 0)
(4.75273 0.128539 0)
(4.74596 0.131596 0)
(4.73808 0.135882 0)
(4.7315 0.141549 0)
(4.72657 0.149196 0)
(4.96759 0.229408 0)
(4.93651 0.178687 0)
(4.91051 0.19232 0)
(4.87667 0.181306 0)
(4.841 0.153595 0)
(4.81198 0.137196 0)
(4.7989 0.134324 0)
(4.80243 0.134764 0)
(4.81485 0.133893 0)
(4.82594 0.133009 0)
(4.82932 0.133793 0)
(4.82306 0.135983 0)
(4.80951 0.138454 0)
(4.79152 0.140197 0)
(4.77331 0.141259 0)
(4.75731 0.14262 0)
(4.74579 0.144594 0)
(4.7376 0.148808 0)
(5.06394 0.233892 0)
(5.03477 0.182344 0)
(4.96742 0.17091 0)
(4.91772 0.175098 0)
(4.86454 0.172402 0)
(4.8151 0.16101 0)
(4.79105 0.146253 0)
(4.7971 0.132461 0)
(4.82022 0.123809 0)
(4.84341 0.122647 0)
(4.85603 0.127757 0)
(4.85582 0.135462 0)
(4.84618 0.142303 0)
(4.83232 0.146626 0)
(4.81965 0.148739 0)
(4.81021 0.150101 0)
(4.80621 0.151621 0)
(4.80371 0.15476 0)
(4.98775 0.205379 0)
(4.98614 0.206381 0)
(4.93657 0.220775 0)
(4.90722 0.219064 0)
(4.91128 0.200032 0)
(4.92177 0.172202 0)
(4.92464 0.144073 0)
(4.91805 0.122397 0)
(4.90644 0.112279 0)
(4.89544 0.115065 0)
(4.88772 0.127074 0)
(4.88181 0.141554 0)
(4.87476 0.152536 0)
(4.86515 0.157112 0)
(4.85472 0.156381 0)
(4.84574 0.153155 0)
(4.84037 0.150476 0)
(4.83825 0.151234 0)
(5.08001 0.269239 0)
(4.99213 0.235554 0)
(4.91485 0.201347 0)
(4.89926 0.174943 0)
(4.91676 0.161463 0)
(4.93201 0.155896 0)
(4.93391 0.151253 0)
(4.92279 0.144756 0)
(4.90297 0.137878 0)
(4.88001 0.134332 0)
(4.85939 0.136602 0)
(4.84366 0.143639 0)
(4.83289 0.151652 0)
(4.82612 0.157002 0)
(4.82266 0.158155 0)
(4.82283 0.156302 0)
(4.82522 0.153442 0)
(4.82995 0.153021 0)
(5.03813 0.250497 0)
(5.03045 0.267758 0)
(4.99534 0.244575 0)
(4.95452 0.215087 0)
(4.92305 0.187679 0)
(4.90248 0.163427 0)
(4.89152 0.144238 0)
(4.88814 0.132231 0)
(4.888 0.128901 0)
(4.88731 0.134153 0)
(4.88583 0.145119 0)
(4.88512 0.156849 0)
(4.88599 0.164198 0)
(4.88741 0.165026 0)
(4.8871 0.160269 0)
(4.88346 0.153638 0)
(4.87561 0.148461 0)
(4.86369 0.147691 0)
(5.02161 0.256025 0)
(5.01444 0.283789 0)
(4.99844 0.240814 0)
(4.99432 0.203788 0)
(4.98248 0.184685 0)
(4.96459 0.173111 0)
(4.95038 0.162979 0)
(4.94254 0.152519 0)
(4.93781 0.143408 0)
(4.93416 0.138702 0)
(4.93336 0.13965 0)
(4.93636 0.14479 0)
(4.9417 0.150938 0)
(4.94453 0.156222 0)
(4.94209 0.159743 0)
(4.93165 0.162418 0)
(4.91687 0.164866 0)
(4.89837 0.167192 0)
(4.97007 0.24867 0)
(4.99666 0.277132 0)
(4.97357 0.241484 0)
(4.94131 0.218751 0)
(4.9237 0.201779 0)
(4.92305 0.176835 0)
(4.93488 0.150625 0)
(4.94964 0.133169 0)
(4.95794 0.128206 0)
(4.95691 0.133196 0)
(4.95113 0.142788 0)
(4.94678 0.152528 0)
(4.94774 0.160197 0)
(4.95268 0.165858 0)
(4.96086 0.170165 0)
(4.96703 0.173523 0)
(4.97366 0.175906 0)
(4.97383 0.176977 0)
(5.03871 0.356521 0)
(5.03654 0.317582 0)
(4.9698 0.274271 0)
(4.95004 0.229032 0)
(4.97181 0.189505 0)
(5.00211 0.163487 0)
(5.01815 0.149947 0)
(5.01178 0.144401 0)
(4.98814 0.143097 0)
(4.95908 0.143707 0)
(4.93652 0.144493 0)
(4.92658 0.144357 0)
(4.93036 0.143602 0)
(4.94408 0.14325 0)
(4.96431 0.144721 0)
(4.9859 0.148209 0)
(5.00686 0.153611 0)
(5.0239 0.160389 0)
(5.01581 0.373208 0)
(5.03677 0.340937 0)
(5.01268 0.267046 0)
(5.02357 0.206563 0)
(5.04293 0.166697 0)
(5.05431 0.147563 0)
(5.05149 0.147682 0)
(5.03524 0.159731 0)
(5.01311 0.173227 0)
(4.99382 0.179664 0)
(4.98234 0.17562 0)
(4.97859 0.16316 0)
(4.97996 0.147822 0)
(4.98348 0.135852 0)
(4.98737 0.130324 0)
(4.99165 0.131843 0)
(4.99608 0.137735 0)
(5.00272 0.145679 0)
(4.94929 0.321591 0)
(4.99009 0.323004 0)
(5.00292 0.282564 0)
(4.99795 0.219465 0)
(4.98299 0.169086 0)
(4.96979 0.153691 0)
(4.96127 0.161844 0)
(4.95592 0.171154 0)
(4.95725 0.169775 0)
(4.9681 0.159524 0)
(4.98508 0.147451 0)
(5.00141 0.138833 0)
(5.01177 0.135246 0)
(5.01511 0.135945 0)
(5.01453 0.13849 0)
(5.014 0.141202 0)
(5.0172 0.142048 0)
(5.02496 0.141572 0)
(5.03104 0.309702 0)
(5.01952 0.294812 0)
(5.04235 0.267658 0)
(5.06563 0.226374 0)
(5.05369 0.189263 0)
(5.02566 0.171485 0)
(5.00506 0.170305 0)
(4.99642 0.172555 0)
(4.99676 0.168281 0)
(5.00343 0.157507 0)
(5.01356 0.145876 0)
(5.02448 0.137831 0)
(5.03513 0.133956 0)
(5.04522 0.131954 0)
(5.05513 0.128909 0)
(5.06445 0.123819 0)
(5.07385 0.116624 0)
(5.08211 0.110231 0)
(4.99581 0.306383 0)
(4.99834 0.27354 0)
(5.0063 0.227535 0)
(5.02764 0.207779 0)
(5.02461 0.206865 0)
(5.01205 0.205241 0)
(5.01016 0.194224 0)
(5.01959 0.17354 0)
(5.03599 0.147808 0)
(5.05617 0.1235 0)
(5.07634 0.105644 0)
(5.09308 0.0964716 0)
(5.10558 0.0951724 0)
(5.11446 0.0992152 0)
(5.12116 0.105053 0)
(5.12636 0.110423 0)
(5.13109 0.113785 0)
(5.13502 0.115499 0)
(5.03963 0.295958 0)
(5.06866 0.271396 0)
(5.0712 0.251505 0)
(5.06949 0.230848 0)
(5.06057 0.21101 0)
(5.06443 0.189957 0)
(5.08612 0.164751 0)
(5.11444 0.137309 0)
(5.1414 0.112854 0)
(5.16372 0.0963141 0)
(5.1793 0.0899411 0)
(5.18774 0.0922196 0)
(5.19061 0.0985306 0)
(5.18995 0.103653 0)
(5.18749 0.103851 0)
(5.18445 0.0989916 0)
(5.18207 0.0903134 0)
(5.18081 0.0815042 0)
(4.89651 0.278429 0)
(4.94078 0.195663 0)
(4.97121 0.205926 0)
(5.01982 0.223444 0)
(5.06092 0.205936 0)
(5.08956 0.161583 0)
(5.1101 0.111912 0)
(5.12514 0.0742572 0)
(5.13683 0.054659 0)
(5.14796 0.0509087 0)
(5.16061 0.0586773 0)
(5.17511 0.0738704 0)
(5.19047 0.0921597 0)
(5.20464 0.109322 0)
(5.21614 0.121604 0)
(5.22385 0.127455 0)
(5.22826 0.126916 0)
(5.22915 0.12141 0)
(4.95031 0.249029 0)
(4.96302 0.161104 0)
(4.97638 0.149687 0)
(5.01789 0.148181 0)
(5.06118 0.138175 0)
(5.09169 0.123193 0)
(5.10835 0.107295 0)
(5.11431 0.0895561 0)
(5.11467 0.0696537 0)
(5.1156 0.051314 0)
(5.12209 0.0397225 0)
(5.13587 0.0377445 0)
(5.15601 0.0442762 0)
(5.17934 0.055525 0)
(5.20282 0.0668989 0)
(5.22364 0.0755167 0)
(5.24121 0.0799118 0)
(5.25469 0.0805181 0)
(5.12404 0.327127 0)
(5.08428 0.170106 0)
(5.0712 0.136214 0)
(5.07633 0.137139 0)
(5.09207 0.131013 0)
(5.11203 0.113494 0)
(5.13525 0.0925218 0)
(5.15616 0.0744567 0)
(5.17015 0.0598551 0)
(5.17795 0.0467143 0)
(5.18406 0.0354299 0)
(5.19298 0.0292808 0)
(5.20704 0.0308974 0)
(5.2256 0.0403518 0)
(5.24705 0.0541196 0)
(5.2687 0.0679072 0)
(5.28954 0.0780046 0)
(5.30715 0.0818213 0)
(4.93013 0.278955 0)
(4.98069 0.17767 0)
(5.04108 0.132176 0)
(5.08959 0.121001 0)
(5.12203 0.0988688 0)
(5.14568 0.0711189 0)
(5.16708 0.0515679 0)
(5.18915 0.0418537 0)
(5.20882 0.0358117 0)
(5.22123 0.0275745 0)
(5.22539 0.0160314 0)
(5.22524 0.0044847 0)
(5.22718 -0.00285974 0)
(5.23606 -0.00388604 0)
(5.25453 0.000618766 0)
(5.28097 0.00827421 0)
(5.31329 0.0165046 0)
(5.34648 0.0230945 0)
(5.04752 0.249305 0)
(5.07148 0.121816 0)
(5.09495 0.0862038 0)
(5.12634 0.0999608 0)
(5.17476 0.105889 0)
(5.23019 0.0888391 0)
(5.27501 0.063002 0)
(5.30257 0.0443976 0)
(5.31569 0.0375827 0)
(5.32058 0.0371269 0)
(5.32364 0.0357934 0)
(5.32919 0.029612 0)
(5.33838 0.0189053 0)
(5.35003 0.00713519 0)
(5.36317 -0.00218965 0)
(5.37744 -0.00730369 0)
(5.39222 -0.00825712 0)
(5.40678 -0.00530779 0)
(5.02222 0.206477 0)
(5.03654 0.102855 0)
(5.08324 0.0732956 0)
(5.14795 0.049831 0)
(5.21321 0.0137882 0)
(5.26788 -0.0130648 0)
(5.30413 -0.0150987 0)
(5.3237 -0.000389907 0)
(5.33307 0.0128228 0)
(5.33991 0.0144864 0)
(5.34962 0.00479571 0)
(5.36284 -0.00970434 0)
(5.37764 -0.0221542 0)
(5.39148 -0.0291955 0)
(5.40244 -0.0301161 0)
(5.41024 -0.0266534 0)
(5.41638 -0.0212284 0)
(5.42195 -0.0159463 0)
(5.0926 0.180166 0)
(5.14938 0.0978581 0)
(5.21778 0.0645581 0)
(5.2666 0.0532734 0)
(5.27398 0.0408274 0)
(5.26129 0.0271583 0)
(5.25558 0.0227564 0)
(5.26971 0.0279942 0)
(5.30152 0.0332663 0)
(5.34137 0.0303896 0)
(5.37971 0.019417 0)
(5.41163 0.00529361 0)
(5.43593 -0.00677571 0)
(5.45398 -0.0145711 0)
(5.46908 -0.0183268 0)
(5.48316 -0.0190091 0)
(5.49783 -0.0180777 0)
(5.51259 -0.0161697 0)
(5.06817 0.113456 0)
(5.09432 0.0258098 0)
(5.17653 0.0135217 0)
(5.23211 0.0160357 0)
(5.26422 0.00484037 0)
(5.29123 -0.0109261 0)
(5.32207 -0.0214003 0)
(5.35807 -0.0268298 0)
(5.39474 -0.0306353 0)
(5.42695 -0.0362753 0)
(5.45196 -0.0433113 0)
(5.46912 -0.0498279 0)
(5.48043 -0.0544631 0)
(5.48894 -0.0561723 0)
(5.49821 -0.0552363 0)
(5.50997 -0.0523312 0)
(5.52538 -0.0483411 0)
(5.54336 -0.0439522 0)
(4.93449 0.122453 0)
(5.13548 0.0802894 0)
(5.27911 0.0430624 0)
(5.3665 0.027518 0)
(5.41958 0.0128553 0)
(5.45876 -0.00357887 0)
(5.48926 -0.0115587 0)
(5.51312 -0.0103359 0)
(5.53256 -0.00655644 0)
(5.54936 -0.00545356 0)
(5.56435 -0.00842129 0)
(5.57719 -0.0140407 0)
(5.58764 -0.0205342 0)
(5.59674 -0.0271554 0)
(5.60701 -0.0336418 0)
(5.62015 -0.0394015 0)
(5.63688 -0.043786 0)
(5.65573 -0.0452576 0)
(4.9512 0.00982344 0)
(5.21541 -0.07044 0)
(5.3322 -0.0452252 0)
(5.36739 -0.0438545 0)
(5.39518 -0.0466053 0)
(5.4294 -0.0486452 0)
(5.46138 -0.0493578 0)
(5.48734 -0.0486109 0)
(5.5095 -0.0489512 0)
(5.52986 -0.0521196 0)
(5.54666 -0.0570461 0)
(5.55624 -0.0615978 0)
(5.5559 -0.0645541 0)
(5.54696 -0.0664258 0)
(5.53195 -0.0681578 0)
(5.51514 -0.0701832 0)
(5.49744 -0.0719584 0)
(5.48146 -0.0717466 0)
(4.96831 0.066873 0)
(5.11041 0.000798425 0)
(5.05428 0.00482399 0)
(4.95002 -0.00295899 0)
(4.84238 -0.0169764 0)
(4.72346 -0.0277237 0)
(4.60032 -0.0300947 0)
(4.48706 -0.0268862 0)
(4.38523 -0.0237412 0)
(4.28753 -0.0226115 0)
(4.18877 -0.0219217 0)
(4.08986 -0.0202031 0)
(3.99381 -0.0182752 0)
(3.90157 -0.0182754 0)
(3.80944 -0.0208311 0)
(3.71621 -0.0246338 0)
(3.61933 -0.0271252 0)
(3.52664 -0.0264247 0)
(0.00832081 -0.0309698 -2.75581e-21)
(0.0837603 -0.0942395 2.73559e-21)
(0.194421 -0.121763 0)
(0.31005 -0.130484 0)
(0.428165 -0.132259 0)
(0.548193 -0.1323 -2.6775e-21)
(0.670157 -0.13235 0)
(0.794409 -0.132686 0)
(0.921184 -0.133004 0)
(1.05026 -0.132788 0)
(1.18088 -0.131349 2.67129e-21)
(1.31134 -0.127969 0)
(1.43929 -0.121786 0)
(1.56104 -0.112023 0)
(1.67289 -0.0978625 0)
(1.76903 -0.0788567 2.72542e-21)
(1.84563 -0.0543447 0)
(1.8947 -0.0246483 0)
(1.91512 0.0100925 0)
(1.89685 0.0485423 0)
(1.83619 0.0869884 0)
(1.73193 0.12412 0)
(1.58628 0.152809 0)
(1.4042 0.170361 2.56189e-21)
(1.19572 0.179591 -2.51358e-21)
(0.974322 0.158972 2.46788e-21)
(0.740064 0.158226 2.42752e-21)
(0.536512 0.212363 0)
(0.469808 0.146273 0)
(0.53347 -0.120446 -2.32236e-21)
(0.611401 -0.448754 -2.28924e-21)
(0.63046 -0.555787 0)
(0.570623 -0.313324 0)
(0.298431 0.127143 -2.24545e-21)
(-0.183362 0.417458 0)
(-0.693337 0.479418 0)
(-1.19393 0.463396 2.20306e-21)
(-1.65426 0.426588 0)
(-2.07426 0.384128 2.27421e-21)
(-2.45246 0.341236 4.65388e-21)
(-2.79093 0.300612 0)
(-3.09224 0.263216 0)
(-3.35929 0.229324 0)
(-3.59467 0.198767 0)
(-3.80069 0.171172 0)
(-3.97919 0.146037 5.28488e-21)
(-4.1316 0.122888 5.35141e-21)
(-4.25901 0.101354 5.40055e-21)
(-4.36238 0.0812514 0)
(-4.44254 0.0625211 -5.44162e-21)
(-4.50027 0.0451162 0)
(-4.53652 0.0290014 5.40257e-21)
(-4.5524 0.0143883 5.35347e-21)
(-4.5489 0.00167876 0)
(-4.52979 -0.00915833 0)
(-4.49559 -0.0185445 0)
(-4.44869 -0.0263614 4.98892e-21)
(-4.39094 -0.03283 0)
(-4.32409 -0.0380112 0)
(-4.2499 -0.0420984 0)
(-4.16959 -0.0453672 0)
(-4.08411 -0.0481307 0)
(-3.99379 -0.0507776 0)
(-3.89838 -0.0536817 0)
(-3.79699 -0.0571802 0)
(-3.68826 -0.06148 -3.74073e-21)
(-3.57063 -0.0665937 0)
(-3.44264 -0.0722782 0)
(-3.30356 -0.0780375 3.32371e-21)
(-3.1538 -0.0832177 3.18939e-21)
(-2.99503 -0.0872 0)
(-2.82982 -0.0896331 -2.93115e-21)
(-2.66095 -0.0905876 2.80772e-21)
(-2.49049 -0.0905411 0)
(-2.31932 -0.0901552 -2.5704e-21)
(-2.14732 -0.0899146 0)
(-1.97389 -0.0900007 0)
(-1.79829 -0.0903753 2.23114e-21)
(-1.62002 -0.0908208 0)
(-1.4392 -0.0909767 -2.01909e-21)
(-1.25672 -0.0904819 0)
(-1.07407 -0.0890943 1.82813e-21)
(-0.893025 -0.0867241 1.74324e-21)
(-0.715467 -0.0833817 1.66622e-21)
(-0.543162 -0.079215 3.19438e-21)
(-0.377593 -0.0744263 -3.07179e-21)
(-0.219753 -0.0692266 0)
(-0.0706338 -0.0637441 0)
(0.0686266 -0.0586419 0)
(0.198651 -0.0532943 -2.71084e-21)
(0.320097 -0.0481344 -2.64529e-21)
(0.43274 -0.0431943 2.58713e-21)
(0.536845 -0.0385043 0)
(0.632733 -0.034081 -2.48842e-21)
(0.72076 -0.0299307 -2.44591e-21)
(0.801303 -0.0260533 -2.40689e-21)
(0.874745 -0.0224456 0)
(0.941475 -0.0191033 0)
(1.00188 -0.0160222 0)
(1.05636 -0.013198 -2.27407e-21)
(1.10529 -0.0106262 0)
(1.14908 -0.0083012 0)
(1.18811 -0.0062157 2.18768e-21)
(1.22279 -0.00435967 0)
(1.25349 -0.00271999 0)
(1.2806 -0.00128097 2.10529e-21)
(1.30446 -2.37348e-05 0)
(1.3254 0.00107206 0)
(1.34373 0.00202595 -2.02355e-21)
(1.3597 0.00285876 -1.99615e-21)
(1.37353 0.0035873 0)
(1.38543 0.00422226 1.94097e-21)
(1.39554 0.00477896 0)
(1.404 0.00526024 -1.88529e-21)
(1.41094 0.00566133 0)
(1.41645 0.00600123 -1.82918e-21)
(1.42062 0.00626728 -1.80102e-21)
(1.42359 0.00644481 0)
(1.42541 0.00658345 0)
(1.42613 0.00668645 0)
(1.42592 0.00671428 0)
(1.42486 0.00666095 0)
(1.42311 0.00653443 0)
(1.42079 0.00634305 0)
(1.41805 0.00609874 -1.57499e-21)
(1.415 0.00581617 1.54682e-21)
(1.41173 0.0055083 0)
(1.40832 0.00518509 0)
(1.40484 0.00485519 0)
(1.40134 0.0045278 0)
(1.39786 0.00421271 2.81343e-21)
(1.39441 0.00391653 0)
(1.39102 0.00363743 -2.70243e-21)
(1.38769 0.00336722 2.64722e-21)
(1.38446 0.00310192 0)
(1.38131 0.00284567 0)
(1.37822 0.00260975 0)
(1.37519 0.00239921 -2.42872e-21)
(1.37222 0.00221068 -2.37476e-21)
(1.36929 0.00204183 0)
(1.3664 0.00189116 -2.26767e-21)
(1.36356 0.00175644 -2.21456e-21)
(1.36076 0.00163427 2.16175e-21)
(1.358 0.00152132 0)
(1.3553 0.00141661 0)
(1.35264 0.00132051 2.00505e-21)
(1.35004 0.0012344 0)
(1.34748 0.00115994 0)
(1.34496 0.00109814 0)
(1.34247 0.00104854 0)
(1.33999 0.00100973 -1.74952e-21)
(1.33752 0.000979807 -1.69925e-21)
(1.33505 0.000956898 0)
(1.33256 0.000939507 -1.59948e-21)
(1.33005 0.000926619 0)
(1.32751 0.00091759 0)
(1.32494 0.000912338 -1.45173e-21)
(1.32232 0.000911097 0)
(1.31962 0.000914827 -1.35441e-21)
(1.31686 0.000924507 0)
(1.31398 0.000942209 0)
(1.31101 0.000969257 -1.21003e-21)
(1.30783 0.00100937 0)
(1.30453 0.00106275 -1.11468e-21)
(1.30086 0.00113739 0)
(1.29706 0.00123015 0)
(1.2926 0.00136119 0)
(1.28801 0.00151512 9.25396e-22)
(1.28226 0.0017468 0)
(1.2764 0.00199351 -8.30847e-22)
(1.26847 0.00241605 0)
(1.26038 0.00279829 0)
(1.24892 0.00362743 0)
(1.2363 0.00417121 0)
(1.21963 0.00601226 0)
(1.19602 0.00654656 0)
(1.17411 0.0113369 0)
(1.11848 0.0108632 8.66433e-22)
(1.10375 0.0254834 0)
(0.93966 0.0185556 0)
(0.0273601 -0.160984 8.27202e-21)
(0.113384 -0.312093 -8.21218e-21)
(0.205869 -0.356434 0)
(0.297455 -0.365516 5.41224e-21)
(0.390851 -0.367226 0)
(0.488096 -0.369884 2.67724e-21)
(0.590297 -0.374831 -5.35288e-21)
(0.697771 -0.381167 -5.34505e-21)
(0.810336 -0.38737 0)
(0.927512 -0.391628 -5.35042e-21)
(1.04824 -0.391898 -2.67149e-21)
(1.17122 -0.38599 0)
(1.29365 -0.371516 0)
(1.41283 -0.346226 0)
(1.52379 -0.307997 0)
(1.62307 -0.255612 -2.72602e-21)
(1.70342 -0.18784 0)
(1.76227 -0.105166 5.54819e-21)
(1.78877 -0.00931779 0)
(1.78531 0.0976136 0)
(1.74737 0.209112 -5.47088e-21)
(1.67261 0.317696 0)
(1.56394 0.419214 5.30657e-21)
(1.42573 0.505428 -2.56067e-21)
(1.26861 0.560339 2.51198e-21)
(1.11699 0.593538 -2.46591e-21)
(0.988074 0.568108 -2.42514e-21)
(0.904997 0.289179 0)
(0.803729 -0.138948 0)
(0.554815 -0.149707 2.32205e-21)
(0.0590704 0.289785 -2.29607e-21)
(-0.620904 0.668642 0)
(-1.21649 0.910018 0)
(-1.67177 1.07241 2.23643e-21)
(-2.07117 1.13229 0)
(-2.41326 1.0959 0)
(-2.72454 1.02374 -2.19327e-21)
(-3.00421 0.933347 0)
(-3.25823 0.838945 2.43809e-21)
(-3.48746 0.747337 -4.63997e-21)
(-3.6942 0.661691 0)
(-3.88019 0.583221 0)
(-4.04699 0.511648 -1.02217e-20)
(-4.19584 0.446173 -1.04161e-20)
(-4.32763 0.385684 -1.05921e-20)
(-4.44296 0.329149 5.46589e-21)
(-4.54197 0.275695 -5.34562e-21)
(-4.62452 0.224708 -1.6353e-20)
(-4.69038 0.175859 1.10109e-20)
(-4.73937 0.129077 5.43789e-21)
(-4.77142 0.0845153 0)
(-4.78669 0.0425198 -5.39988e-21)
(-4.78582 0.00362111 5.46969e-21)
(-4.76983 -0.0315403 0)
(-4.73774 -0.0627939 0)
(-4.69229 -0.0900975 0)
(-4.63457 -0.113259 -4.98672e-21)
(-4.56648 -0.132464 0)
(-4.48988 -0.147977 9.51656e-21)
(-4.40633 -0.160349 0)
(-4.31729 -0.170353 8.94517e-21)
(-4.22361 -0.178947 0)
(-4.12565 -0.187233 -8.36158e-21)
(-4.02304 -0.196321 0)
(-3.91475 -0.207176 7.7843e-21)
(-3.79914 -0.220382 -3.76116e-21)
(-3.67429 -0.235924 0)
(-3.53839 -0.25302 -6.94358e-21)
(-3.39046 -0.27014 -3.32245e-21)
(-3.23094 -0.285305 -3.18818e-21)
(-3.06189 -0.296668 0)
(-2.88661 -0.303207 -2.96054e-21)
(-2.70866 -0.305225 -2.80675e-21)
(-2.53061 -0.304361 0)
(-2.35321 -0.302827 2.56959e-21)
(-2.1757 -0.302196 -4.94447e-21)
(-1.99685 -0.302946 0)
(-1.81547 -0.304874 -2.23051e-21)
(-1.63069 -0.307247 0)
(-1.44249 -0.30881 6.08046e-21)
(-1.25188 -0.308298 0)
(-1.06061 -0.304894 -5.49943e-21)
(-0.870698 -0.298361 -1.74287e-21)
(-0.684241 -0.288788 1.67605e-21)
(-0.503129 -0.276702 3.21012e-21)
(-0.328866 -0.262747 -3.0848e-21)
(-0.162312 -0.247507 0)
(-0.00486667 -0.231776 0)
(0.143141 -0.216424 0)
(0.282677 -0.200908 8.13876e-21)
(0.413774 -0.185867 2.64454e-21)
(0.536644 -0.17144 -2.58641e-21)
(0.651622 -0.157712 0)
(0.75909 -0.144725 -2.49423e-21)
(0.859446 -0.132491 2.4452e-21)
(0.953082 -0.121004 2.40618e-21)
(1.04038 -0.110251 0)
(1.12169 -0.100211 0)
(1.19735 -0.0908648 0)
(1.26772 -0.0821949 2.2733e-21)
(1.3331 -0.0741851 0)
(1.39384 -0.0668213 -4.4336e-21)
(1.45026 -0.0600886 -6.5639e-21)
(1.50272 -0.0539688 4.3214e-21)
(1.55154 -0.0484381 0)
(1.59709 -0.0434657 2.10712e-21)
(1.63968 -0.039013 0)
(1.67963 -0.0350338 4.10215e-21)
(1.71724 -0.0314772 -2.02477e-21)
(1.75277 -0.0282883 -1.99719e-21)
(1.78645 -0.0254118 0)
(1.81848 -0.0227987 -5.82148e-21)
(1.84899 -0.0204016 3.82582e-21)
(1.87812 -0.018184 1.88418e-21)
(1.90596 -0.016124 0)
(1.93253 -0.0141943 1.82803e-21)
(1.95793 -0.0123876 5.40065e-21)
(1.98213 -0.0107114 0)
(2.00519 -0.00913404 3.48758e-21)
(2.02718 -0.00765591 3.4309e-21)
(2.04812 -0.00632273 3.37423e-21)
(2.06802 -0.00514571 0)
(2.08689 -0.00411989 0)
(2.10474 -0.00324176 0)
(2.12161 -0.00250403 -1.57415e-21)
(2.13753 -0.00189221 -1.54556e-21)
(2.15253 -0.00138765 0)
(2.16664 -0.000974558 -2.97892e-21)
(2.1799 -0.000641658 -2.92283e-21)
(2.19235 -0.000373936 0)
(2.20401 -0.000152367 -2.81097e-21)
(2.21491 3.09851e-05 -5.511e-21)
(2.22509 0.000172852 2.70002e-21)
(2.23457 0.000281226 2.64496e-21)
(2.24337 0.000380485 0)
(2.25149 0.000489807 0)
(2.25895 0.000603897 0)
(2.26579 0.000705433 2.4265e-21)
(2.27202 0.000791694 -2.37261e-21)
(2.27769 0.000863144 -4.63789e-21)
(2.2828 0.000920269 2.26558e-21)
(2.28741 0.000963172 -2.21252e-21)
(2.29153 0.00099153 -2.15976e-21)
(2.2952 0.00100975 0)
(2.29844 0.00101892 0)
(2.3013 0.00101899 2.00319e-21)
(2.30378 0.00101366 0)
(2.30594 0.00100602 0)
(2.30778 0.000998648 -3.69842e-21)
(2.30934 0.000993088 0)
(2.31064 0.000990503 -1.74794e-21)
(2.31169 0.000991218 1.69772e-21)
(2.31253 0.000994977 0)
(2.31316 0.00100188 -1.59807e-21)
(2.31361 0.00101264 0)
(2.31388 0.00102867 0)
(2.31398 0.00105188 1.45046e-21)
(2.31393 0.00108418 -2.80352e-21)
(2.31373 0.00112785 1.35324e-21)
(2.31337 0.0011842 0)
(2.31284 0.0012569 0)
(2.31214 0.00134615 -1.20911e-21)
(2.31121 0.00146166 0)
(2.3101 0.00159975 -1.11391e-21)
(2.30868 0.00178611 0)
(2.30705 0.00199953 0)
(2.30497 0.00231042 0)
(2.30262 0.00263828 -9.24638e-22)
(2.29958 0.00318076 0)
(2.29615 0.00367167 8.30173e-22)
(2.29168 0.0046736 0)
(2.28638 0.0053685 0)
(2.27982 0.00736039 -1.37534e-21)
(2.27082 0.00822471 1.27851e-21)
(2.26155 0.0125305 0)
(2.24407 0.0132537 0)
(2.23289 0.0234325 0)
(2.19334 0.0230733 -2.61204e-21)
(2.18746 0.0490917 0)
(2.08675 0.0460424 1.31881e-21)
(0.0366454 -0.32729 2.85681e-24)
(0.10149 -0.483639 1.09571e-20)
(0.160891 -0.508569 0)
(0.219778 -0.5162 -1.08306e-20)
(0.283169 -0.527581 0)
(0.352282 -0.543611 0)
(0.427445 -0.562286 -8.2611e-24)
(0.508369 -0.581609 5.34654e-21)
(0.594874 -0.599596 5.35747e-21)
(0.686349 -0.613797 5.35258e-21)
(0.781856 -0.620993 0)
(0.880215 -0.61762 0)
(0.979394 -0.599772 -5.44925e-21)
(1.07642 -0.563592 -1.09843e-20)
(1.16718 -0.505393 1.1078e-20)
(1.24782 -0.423077 0)
(1.31261 -0.314334 1.12521e-20)
(1.35811 -0.180383 -5.55382e-21)
(1.37759 -0.0254929 0)
(1.37136 0.142302 1.12916e-20)
(1.33297 0.31163 5.47583e-21)
(1.26371 0.467894 -1.10573e-20)
(1.16894 0.600368 -5.31044e-21)
(1.05547 0.695036 0)
(0.923356 0.722913 1.03354e-20)
(0.752465 0.662278 1.00844e-20)
(0.545352 0.551602 0)
(0.242892 0.580802 9.63411e-21)
(-0.335492 0.84758 0)
(-0.976319 1.14102 9.41055e-21)
(-1.50546 1.36029 4.56728e-21)
(-1.95527 1.48054 0)
(-2.31125 1.55518 0)
(-2.59069 1.58231 0)
(-2.81409 1.55521 0)
(-2.99952 1.47685 0)
(-3.16874 1.37217 0)
(-3.32964 1.25459 9.66925e-21)
(-3.48746 1.13562 -1.4516e-20)
(-3.64284 1.02158 0)
(-3.7949 0.914884 0)
(-3.94227 0.816287 0)
(-4.08317 0.724952 -3.11553e-22)
(-4.21588 0.639658 1.04125e-20)
(-4.33853 0.558914 2.14538e-20)
(-4.44937 0.481436 -2.17463e-20)
(-4.5467 0.406241 -1.11185e-20)
(-4.629 0.332716 1.09557e-20)
(-4.69499 0.260579 2.36492e-22)
(-4.74359 0.189959 1.12516e-20)
(-4.77401 0.121502 0)
(-4.78606 0.0561373 1.11348e-20)
(-4.78017 -0.00547556 1.91246e-22)
(-4.75725 -0.0625417 0)
(-4.71869 -0.114041 0)
(-4.66602 -0.159066 -1.04194e-20)
(-4.60123 -0.197151 0)
(-4.52644 -0.228249 0)
(-4.44377 -0.252864 9.68009e-21)
(-4.35523 -0.271947 1.85996e-20)
(-4.26242 -0.286869 -8.94442e-21)
(-4.1665 -0.299375 0)
(-4.06788 -0.311461 8.36082e-21)
(-3.96617 -0.325224 0)
(-3.86004 -0.34253 7.84898e-21)
(-3.74737 -0.36459 7.49949e-21)
(-3.62553 -0.391467 -1.45129e-20)
(-3.49199 -0.421696 -7.02403e-21)
(-3.34517 -0.452271 0)
(-3.18524 -0.479206 1.28994e-20)
(-3.01451 -0.498703 0)
(-2.83707 -0.508645 1.77721e-20)
(-2.65775 -0.509701 1.13984e-20)
(-2.48025 -0.50534 1.09278e-20)
(-2.30543 -0.500353 -1.04661e-20)
(-2.13151 -0.498089 1.49513e-20)
(-1.95606 -0.499227 0)
(-1.77711 -0.503137 0)
(-1.59319 -0.508392 -8.64569e-21)
(-1.40408 -0.512386 -1.22682e-20)
(-1.21125 -0.512496 0)
(-1.01721 -0.507173 3.67081e-21)
(-0.824778 -0.496073 0)
(-0.636575 -0.479509 -1.00586e-20)
(-0.454806 -0.458581 2.83179e-23)
(-0.281007 -0.434552 -2.35681e-23)
(-0.116191 -0.408542 5.95731e-21)
(0.0384089 -0.382419 0)
(0.183021 -0.356232 -5.59287e-21)
(0.31864 -0.330619 1.53751e-23)
(0.44525 -0.305993 0)
(0.563261 -0.282588 0)
(0.673154 -0.260507 0)
(0.775465 -0.23977 4.98104e-21)
(0.870761 -0.220348 0)
(0.959613 -0.202187 0)
(1.04256 -0.185224 0)
(1.1201 -0.169402 0)
(1.19266 -0.154677 0)
(1.26061 -0.141017 4.55779e-21)
(1.32425 -0.128399 0)
(1.38385 -0.116805 4.4333e-21)
(1.43969 -0.10622 4.3768e-21)
(1.49203 -0.0966213 -4.32116e-21)
(1.54115 -0.0879784 0)
(1.58734 -0.080248 -4.21131e-21)
(1.63092 -0.0733728 0)
(1.67218 -0.0672823 -4.10198e-21)
(1.71142 -0.0618959 4.04717e-21)
(1.74889 -0.0571245 1.19836e-20)
(1.78483 -0.0528779 0)
(1.81944 -0.0490694 1.16503e-20)
(1.85287 -0.0456162 3.83125e-21)
(1.88524 -0.0424518 0)
(1.91663 -0.0395207 7.43162e-21)
(1.94709 -0.0367794 7.31848e-21)
(1.97665 -0.0342025 -1.08057e-20)
(2.00533 -0.0317732 0)
(2.03313 -0.0294839 -3.48736e-21)
(2.06003 -0.0273366 -3.43067e-21)
(2.08604 -0.0253426 -1.01245e-20)
(2.11117 -0.0235061 0)
(2.13541 -0.0218177 0)
(2.15876 -0.0202688 0)
(2.18123 -0.0188528 -3.14911e-21)
(2.20282 -0.0175589 0)
(2.22355 -0.0163717 0)
(2.24343 -0.0152773 2.97862e-21)
(2.26247 -0.014265 2.92252e-21)
(2.28068 -0.013322 0)
(2.29807 -0.0124325 0)
(2.31466 -0.0115881 5.51033e-21)
(2.33047 -0.0107896 0)
(2.34548 -0.010033 -5.28912e-21)
(2.35972 -0.00930442 -5.17944e-21)
(2.37322 -0.00858828 0)
(2.38599 -0.00788586 0)
(2.39806 -0.00721122 4.85248e-21)
(2.40942 -0.00656838 -1.16596e-25)
(2.4201 -0.00596008 -9.13941e-26)
(2.4301 -0.00538769 0)
(2.43944 -0.00484994 8.84872e-21)
(2.44814 -0.00434528 0)
(2.4562 -0.00387923 0)
(2.46365 -0.00345347 0)
(2.4705 -0.00306315 -4.0057e-21)
(2.47679 -0.00270805 0)
(2.48254 -0.00238408 7.59968e-21)
(2.48779 -0.00208558 3.69775e-21)
(2.49257 -0.00180984 0)
(2.4969 -0.00155398 3.49524e-21)
(2.50082 -0.00131605 0)
(2.50436 -0.00109501 0)
(2.50754 -0.000890192 9.58661e-21)
(2.51039 -0.000700652 -6.19337e-21)
(2.51293 -0.0005246 0)
(2.51518 -0.000358217 -5.80089e-21)
(2.51716 -0.000196692 2.80298e-21)
(2.51889 -3.27333e-05 0)
(2.52039 0.000138698 0)
(2.52166 0.000327117 0)
(2.52271 0.000533383 7.25321e-21)
(2.52354 0.000773926 0)
(2.52414 0.00104048 2.22722e-21)
(2.52451 0.0013721 0)
(2.52461 0.00173366 0)
(2.52447 0.00222753 0)
(2.52395 0.00273715 0)
(2.52318 0.00353535 0)
(2.5218 0.00426915 0)
(2.52022 0.00566964 3.13441e-21)
(2.51748 0.00671948 0)
(2.51482 0.00937964 1.37506e-21)
(2.50968 0.0108226 -3.84026e-21)
(2.50572 0.0162787 0)
(2.49596 0.0181594 0)
(2.49091 0.0301807 1.96881e-21)
(2.47198 0.0327436 1.74589e-21)
(2.4678 0.0607985 -1.55748e-21)
(2.43251 0.0668319 -1.31842e-21)
(0.0280037 -0.451661 -1.65382e-20)
(0.0609482 -0.578866 -1.64282e-20)
(0.0899837 -0.597905 -1.0882e-20)
(0.120069 -0.614853 -5.4054e-21)
(0.154191 -0.636587 0)
(0.191394 -0.661827 1.07393e-20)
(0.231908 -0.689166 -5.34942e-21)
(0.275269 -0.717224 0)
(0.321377 -0.743939 -5.3608e-21)
(0.369752 -0.766232 0)
(0.4196 -0.779823 1.07693e-20)
(0.470626 -0.780156 0)
(0.522211 -0.762094 5.45531e-21)
(0.572138 -0.720512 1.0998e-20)
(0.616853 -0.65071 -1.10934e-20)
(0.653612 -0.548396 0)
(0.674756 -0.410784 -1.12711e-20)
(0.680703 -0.238197 0)
(0.658958 -0.0363078 0)
(0.613254 0.180059 -1.13136e-20)
(0.542864 0.394258 0)
(0.441971 0.592724 -1.79659e-22)
(0.302805 0.768264 0)
(0.120573 0.919786 0)
(-0.107667 1.0575 2.0427e-22)
(-0.414125 1.20854 -1.00853e-20)
(-0.809725 1.39736 -1.00834e-20)
(-1.25118 1.6042 -9.59829e-21)
(-1.68381 1.76525 0)
(-2.04462 1.87254 -1.90481e-20)
(-2.33361 1.9304 0)
(-2.56754 1.94345 -9.62726e-21)
(-2.75621 1.92432 0)
(-2.91366 1.87481 0)
(-3.05297 1.79978 9.75835e-21)
(-3.18533 1.70319 0)
(-3.31616 1.5939 -9.95399e-21)
(-3.44682 1.47806 4.17794e-22)
(-3.57753 1.36058 2.00355e-20)
(-3.70764 1.24502 -2.07624e-20)
(-3.83613 1.13286 0)
(-3.96197 1.02497 0)
(-4.08383 0.921074 -1.12483e-20)
(-4.20038 0.820513 0)
(-4.30991 0.722186 -1.08627e-20)
(-4.41048 0.62504 1.10033e-20)
(-4.49989 0.52825 1.11174e-20)
(-4.57603 0.431344 0)
(-4.63691 0.334373 -1.12457e-20)
(-4.68061 0.238065 -1.12517e-20)
(-4.70565 0.143375 2.30267e-20)
(-4.71184 0.0511223 -1.11365e-20)
(-4.69953 -0.0368389 -1.10133e-20)
(-4.6693 -0.117909 0)
(-4.62231 -0.190386 0)
(-4.56045 -0.252752 1.04202e-20)
(-4.48595 -0.304603 0)
(-4.40151 -0.345957 0)
(-4.30967 -0.377631 -1.91973e-20)
(-4.21276 -0.401077 -1.86012e-20)
(-4.1128 -0.41839 0)
(-4.0113 -0.432235 0)
(-3.90916 -0.445695 0)
(-3.80646 -0.462052 0)
(-3.7023 -0.484319 -1.56337e-20)
(-3.59479 -0.514556 1.51498e-20)
(-3.48131 -0.553042 1.45133e-20)
(-3.35895 -0.597597 2.80366e-20)
(-3.22535 -0.643463 0)
(-3.07955 -0.684111 1.26796e-22)
(-2.92262 -0.713091 0)
(-2.75781 -0.726464 -1.18808e-20)
(-2.58992 -0.724915 1.53647e-22)
(-2.42339 -0.714282 -1.09255e-20)
(-2.25938 -0.703358 1.04637e-20)
(-2.09486 -0.698632 1.7341e-22)
(-1.92576 -0.700946 0)
(-1.74913 -0.708604 9.25528e-21)
(-1.56324 -0.719182 8.64331e-21)
(-1.36833 -0.727998 1.65353e-20)
(-1.16707 -0.730201 0)
(-0.963683 -0.723382 -7.47738e-21)
(-0.762578 -0.707134 0)
(-0.567347 -0.682403 1.34824e-20)
(-0.380567 -0.651154 -6.4298e-21)
(-0.203652 -0.615479 6.17756e-21)
(-0.0378025 -0.577534 -5.95614e-21)