/*--------------------------------*- C++ -*----------------------------------*\
  =========                 |
  \\      /  F ield         | OpenFOAM: The Open Source CFD Toolbox
   \\    /   O peration     | Website:  https://openfoam.org
    \\  /    A nd           | Version:  7
     \\/     M anipulation  |
\*---------------------------------------------------------------------------*/
FoamFile
{
    version     2.0;
    format      ascii;
    class       volVectorField;
    location    "0.041";
    object      U_0;
}
// * * * * * * * * * * * * * * * * * * * * * * * * * * * * * * * * * * * * * //

dimensions      [0 1 -1 0 0 0 0];

internalField   nonuniform List<vector> 
12225
(
(4.84793 0.212385 0)
(4.17326 0.113727 0)
(3.69734 0.0980411 0)
(3.30262 0.0823468 0)
(2.94961 0.0679207 0)
(2.60909 0.0607015 0)
(2.28199 0.0539803 0)
(1.98485 0.0464128 0)
(1.72149 0.0402175 0)
(1.48899 0.0347313 0)
(1.28186 0.0285402 0)
(1.10077 0.0215667 0)
(0.943791 0.0146214 0)
(0.817076 0.00878896 0)
(0.703891 0.00503409 0)
(0.617614 0.00362993 0)
(0.517573 0.00495931 0)
(0.443919 -0.00481473 0)
(5.13901 0.180799 0)
(4.96037 0.100722 0)
(4.78057 0.095397 0)
(4.66564 0.0977006 0)
(4.57122 0.0998985 0)
(4.45756 0.105296 0)
(4.31796 0.107784 0)
(4.16648 0.104373 0)
(4.01107 0.0983082 0)
(3.85569 0.0933015 0)
(3.69913 0.0896309 0)
(3.54867 0.0853243 0)
(3.40223 0.0792685 0)
(3.27085 0.0725851 0)
(3.13762 0.0690221 0)
(3.01123 0.0668987 0)
(2.8729 0.0721585 0)
(2.74247 0.0669413 0)
(4.96684 0.218307 0)
(4.91394 0.150007 0)
(4.79412 0.153073 0)
(4.72818 0.135926 0)
(4.69582 0.12049 0)
(4.6778 0.12241 0)
(4.66356 0.130025 0)
(4.64557 0.132312 0)
(4.62039 0.130595 0)
(4.58901 0.129762 0)
(4.55039 0.129695 0)
(4.50146 0.126867 0)
(4.44035 0.119634 0)
(4.36862 0.111174 0)
(4.29301 0.107177 0)
(4.21388 0.10712 0)
(4.14346 0.11315 0)
(4.06793 0.122895 0)
(4.95769 0.214507 0)
(4.94577 0.146299 0)
(4.85432 0.142211 0)
(4.7837 0.135012 0)
(4.74827 0.124784 0)
(4.73693 0.12252 0)
(4.73881 0.123947 0)
(4.74205 0.122239 0)
(4.73927 0.118974 0)
(4.73064 0.118159 0)
(4.71971 0.120129 0)
(4.70577 0.12259 0)
(4.68791 0.123925 0)
(4.66275 0.123798 0)
(4.63544 0.125188 0)
(4.6055 0.127641 0)
(4.58232 0.134016 0)
(4.55662 0.142549 0)
(5.01125 0.20211 0)
(4.97036 0.158935 0)
(4.93216 0.174184 0)
(4.88371 0.160646 0)
(4.84235 0.13289 0)
(4.81187 0.119829 0)
(4.7902 0.121391 0)
(4.77132 0.126347 0)
(4.75233 0.12994 0)
(4.73642 0.13269 0)
(4.72813 0.135229 0)
(4.72648 0.136943 0)
(4.72723 0.137088 0)
(4.7244 0.135301 0)
(4.71791 0.134441 0)
(4.70818 0.135236 0)
(4.69926 0.1394 0)
(4.68967 0.146535 0)
(5.01682 0.213047 0)
(4.97446 0.161888 0)
(4.90887 0.159208 0)
(4.8665 0.162701 0)
(4.84151 0.154396 0)
(4.81731 0.146924 0)
(4.79269 0.14375 0)
(4.77254 0.140312 0)
(4.75938 0.134937 0)
(4.75267 0.129702 0)
(4.75106 0.126701 0)
(4.75133 0.12623 0)
(4.75074 0.127493 0)
(4.74631 0.129424 0)
(4.73918 0.132645 0)
(4.731 0.137207 0)
(4.72426 0.143362 0)
(4.7194 0.151739 0)
(4.96885 0.231941 0)
(4.93801 0.184846 0)
(4.91008 0.19635 0)
(4.87428 0.183212 0)
(4.8373 0.154706 0)
(4.8078 0.138321 0)
(4.79479 0.135445 0)
(4.79842 0.135709 0)
(4.81066 0.134689 0)
(4.82125 0.133787 0)
(4.82394 0.134639 0)
(4.81699 0.136899 0)
(4.80289 0.139403 0)
(4.78453 0.141168 0)
(4.76613 0.142315 0)
(4.75007 0.143893 0)
(4.73861 0.146277 0)
(4.73068 0.151084 0)
(5.06735 0.236614 0)
(5.0347 0.188803 0)
(4.96525 0.175104 0)
(4.91445 0.178159 0)
(4.86002 0.174446 0)
(4.8103 0.162311 0)
(4.78676 0.147106 0)
(4.79332 0.133146 0)
(4.81643 0.124583 0)
(4.83908 0.123638 0)
(4.85088 0.128932 0)
(4.84989 0.1367 0)
(4.83972 0.143503 0)
(4.82561 0.147774 0)
(4.8129 0.149919 0)
(4.80356 0.151453 0)
(4.79971 0.153299 0)
(4.79744 0.156879 0)
(4.98501 0.217079 0)
(4.987 0.215319 0)
(4.93397 0.226003 0)
(4.90474 0.222078 0)
(4.90872 0.201688 0)
(4.9186 0.173132 0)
(4.92065 0.144725 0)
(4.9133 0.123119 0)
(4.90116 0.113319 0)
(4.88986 0.116485 0)
(4.88193 0.128723 0)
(4.87578 0.143182 0)
(4.86844 0.153952 0)
(4.85857 0.158283 0)
(4.84803 0.157439 0)
(4.83908 0.154307 0)
(4.83388 0.151946 0)
(4.83201 0.153155 0)
(5.07657 0.29001 0)
(4.98715 0.243286 0)
(4.91125 0.205584 0)
(4.89688 0.177813 0)
(4.91413 0.163839 0)
(4.92843 0.157928 0)
(4.92934 0.152898 0)
(4.9174 0.146057 0)
(4.897 0.139016 0)
(4.87372 0.135527 0)
(4.85298 0.137967 0)
(4.83725 0.145118 0)
(4.82651 0.153101 0)
(4.81979 0.158318 0)
(4.81643 0.159357 0)
(4.81672 0.157514 0)
(4.81923 0.15485 0)
(4.82415 0.15477 0)
(5.0343 0.258284 0)
(5.02435 0.275688 0)
(4.9912 0.249065 0)
(4.95034 0.218046 0)
(4.91855 0.189803 0)
(4.89777 0.165079 0)
(4.8867 0.145662 0)
(4.88322 0.133631 0)
(4.88289 0.130431 0)
(4.88197 0.135861 0)
(4.88031 0.146905 0)
(4.8795 0.158521 0)
(4.88031 0.165597 0)
(4.88162 0.166135 0)
(4.8811 0.161228 0)
(4.87719 0.154672 0)
(4.86907 0.149776 0)
(4.85705 0.149405 0)
(5.02392 0.26583 0)
(5.00992 0.291276 0)
(4.99437 0.244554 0)
(4.99054 0.206827 0)
(4.97803 0.18735 0)
(4.9597 0.175365 0)
(4.94536 0.164807 0)
(4.93742 0.154009 0)
(4.93252 0.144751 0)
(4.92873 0.140082 0)
(4.9279 0.141136 0)
(4.93089 0.146337 0)
(4.93612 0.152474 0)
(4.93867 0.157722 0)
(4.93582 0.161236 0)
(4.92498 0.163969 0)
(4.90996 0.166501 0)
(4.89152 0.168944 0)
(4.95749 0.263373 0)
(4.99011 0.283903 0)
(4.96796 0.245417 0)
(4.9363 0.222278 0)
(4.919 0.204426 0)
(4.91866 0.178634 0)
(4.93055 0.152061 0)
(4.94503 0.13467 0)
(4.9528 0.129937 0)
(4.95126 0.135082 0)
(4.94523 0.144671 0)
(4.94089 0.1543 0)
(4.942 0.161846 0)
(4.94708 0.167432 0)
(4.9553 0.171711 0)
(4.96146 0.175063 0)
(4.96803 0.177431 0)
(4.96815 0.178462 0)
(5.0276 0.356957 0)
(5.02829 0.319733 0)
(4.96341 0.277624 0)
(4.94583 0.231705 0)
(4.96832 0.191745 0)
(4.99829 0.165654 0)
(5.01333 0.152077 0)
(5.00587 0.14644 0)
(4.98151 0.145005 0)
(4.95229 0.145454 0)
(4.93002 0.146054 0)
(4.9206 0.145758 0)
(4.92492 0.144922 0)
(4.93906 0.144592 0)
(4.95953 0.146166 0)
(4.98119 0.149787 0)
(5.00209 0.155323 0)
(5.01902 0.16219 0)
(5.01503 0.367133 0)
(5.03374 0.341945 0)
(5.00815 0.269459 0)
(5.01952 0.209064 0)
(5.03851 0.169286 0)
(5.04922 0.15033 0)
(5.04561 0.150587 0)
(5.02878 0.162546 0)
(5.00649 0.175647 0)
(4.98736 0.181469 0)
(4.97618 0.176804 0)
(4.97268 0.163935 0)
(4.9742 0.148515 0)
(4.97775 0.136749 0)
(4.98164 0.131562 0)
(4.98594 0.133406 0)
(4.99046 0.139493 0)
(4.99728 0.147483 0)
(4.95371 0.330259 0)
(4.99143 0.328608 0)
(4.99912 0.286735 0)
(4.99233 0.222215 0)
(4.9768 0.171797 0)
(4.96352 0.156864 0)
(4.95501 0.164972 0)
(4.94982 0.17365 0)
(4.95153 0.171511 0)
(4.96275 0.160766 0)
(4.97989 0.148552 0)
(4.99608 0.140026 0)
(5.00613 0.136604 0)
(5.00919 0.137422 0)
(5.00852 0.139986 0)
(5.00813 0.142623 0)
(5.01162 0.14334 0)
(5.01975 0.142744 0)
(5.03069 0.332127 0)
(5.01599 0.305329 0)
(5.03714 0.273618 0)
(5.05924 0.23005 0)
(5.04636 0.192185 0)
(5.01824 0.174355 0)
(4.99809 0.173038 0)
(4.98997 0.174806 0)
(4.99072 0.169928 0)
(4.99765 0.158749 0)
(5.0079 0.147007 0)
(5.01887 0.139027 0)
(5.02955 0.135213 0)
(5.03967 0.133156 0)
(5.04962 0.129955 0)
(5.059 0.12469 0)
(5.06844 0.117402 0)
(5.07673 0.111068 0)
(4.98669 0.318527 0)
(4.98257 0.280738 0)
(4.9961 0.232259 0)
(5.01913 0.211893 0)
(5.0164 0.21037 0)
(5.00441 0.207873 0)
(5.00328 0.195981 0)
(5.01337 0.174618 0)
(5.03022 0.148516 0)
(5.05065 0.124161 0)
(5.07086 0.106493 0)
(5.08752 0.0976093 0)
(5.09992 0.0965652 0)
(5.10872 0.10074 0)
(5.11538 0.106566 0)
(5.12058 0.111829 0)
(5.12533 0.115046 0)
(5.12933 0.116654 0)
(5.03481 0.301936 0)
(5.05805 0.274565 0)
(5.06029 0.253995 0)
(5.05947 0.232822 0)
(5.05168 0.212564 0)
(5.05693 0.191074 0)
(5.07965 0.165489 0)
(5.10849 0.13786 0)
(5.1356 0.113468 0)
(5.15785 0.0972077 0)
(5.17325 0.0911928 0)
(5.1815 0.09372 0)
(5.18423 0.100045 0)
(5.1835 0.104944 0)
(5.18104 0.104798 0)
(5.17806 0.0996219 0)
(5.1758 0.0907624 0)
(5.17468 0.0819651 0)
(4.88506 0.273134 0)
(4.9224 0.192623 0)
(4.95989 0.20638 0)
(5.01129 0.224149 0)
(5.05336 0.205746 0)
(5.08244 0.160832 0)
(5.10319 0.111293 0)
(5.11836 0.0742315 0)
(5.13023 0.0553138 0)
(5.14159 0.0521286 0)
(5.1545 0.0603053 0)
(5.16923 0.075735 0)
(5.18472 0.0940623 0)
(5.19891 0.111055 0)
(5.21033 0.123005 0)
(5.21793 0.128457 0)
(5.22222 0.127536 0)
(5.22304 0.121771 0)
(4.9455 0.221504 0)
(4.954 0.152476 0)
(4.96858 0.147181 0)
(5.01091 0.147494 0)
(5.05435 0.138025 0)
(5.08477 0.123295 0)
(5.10126 0.107506 0)
(5.10712 0.0897249 0)
(5.10756 0.0697814 0)
(5.10879 0.0515779 0)
(5.11574 0.0403236 0)
(5.13002 0.038755 0)
(5.15057 0.0456009 0)
(5.17414 0.0569609 0)
(5.19767 0.0682419 0)
(5.21844 0.0766365 0)
(5.23589 0.080767 0)
(5.24927 0.0811494 0)
(5.12414 0.313709 0)
(5.08414 0.162536 0)
(5.06532 0.134003 0)
(5.06953 0.13651 0)
(5.08521 0.130618 0)
(5.10541 0.113093 0)
(5.12881 0.0922539 0)
(5.14969 0.0743943 0)
(5.16353 0.0599122 0)
(5.1713 0.0468249 0)
(5.17756 0.0356829 0)
(5.18682 0.0298439 0)
(5.20129 0.0318637 0)
(5.2202 0.0416573 0)
(5.24187 0.055561 0)
(5.26363 0.0692362 0)
(5.28448 0.0790462 0)
(5.30205 0.0824753 0)
(4.93251 0.279239 0)
(4.97798 0.175497 0)
(5.03771 0.13141 0)
(5.08429 0.120673 0)
(5.11584 0.0982961 0)
(5.13925 0.0707046 0)
(5.16072 0.0516039 0)
(5.18289 0.0421977 0)
(5.20248 0.0361493 0)
(5.21465 0.0277245 0)
(5.21863 0.0160479 0)
(5.21852 0.00456954 0)
(5.22081 -0.00251846 0)
(5.23027 -0.00322573 0)
(5.24938 0.00152296 0)
(5.27639 0.00930662 0)
(5.30911 0.0174639 0)
(5.34239 0.0238793 0)
(5.04722 0.248199 0)
(5.07106 0.12204 0)
(5.08999 0.0871344 0)
(5.12082 0.100838 0)
(5.16957 0.106017 0)
(5.225 0.0883678 0)
(5.26931 0.0625111 0)
(5.29625 0.0443258 0)
(5.30895 0.0379189 0)
(5.31373 0.0375846 0)
(5.31696 0.0360966 0)
(5.32281 0.029647 0)
(5.3323 0.0187671 0)
(5.34418 0.00700984 0)
(5.35751 -0.00215211 0)
(5.37191 -0.00701891 0)
(5.38676 -0.00776272 0)
(5.40143 -0.00463453 0)
(5.0243 0.217172 0)
(5.03191 0.105585 0)
(5.07826 0.074538 0)
(5.14302 0.0496288 0)
(5.20829 0.0131134 0)
(5.2625 -0.0130981 0)
(5.29808 -0.0142603 0)
(5.31712 0.000690836 0)
(5.32631 0.013551 0)
(5.33332 0.0146406 0)
(5.34334 0.00452025 0)
(5.35683 -0.0100618 0)
(5.37177 -0.0223334 0)
(5.3856 -0.0290726 0)
(5.39648 -0.0296968 0)
(5.4042 -0.0260717 0)
(5.41034 -0.0205735 0)
(5.41601 -0.0153441 0)
(5.091 0.192315 0)
(5.14307 0.102018 0)
(5.21174 0.0657866 0)
(5.25991 0.0537834 0)
(5.26641 0.0410342 0)
(5.25352 0.0273808 0)
(5.24834 0.0232942 0)
(5.26337 0.028703 0)
(5.296 0.0337422 0)
(5.33624 0.0304268 0)
(5.37459 0.0191283 0)
(5.40632 0.00493842 0)
(5.43039 -0.00699242 0)
(5.44831 -0.0145767 0)
(5.46342 -0.018143 0)
(5.47759 -0.0187078 0)
(5.49238 -0.0177168 0)
(5.50725 -0.0157922 0)
(5.06282 0.119552 0)
(5.08419 0.0299412 0)
(5.16951 0.0149917 0)
(5.22563 0.0166123 0)
(5.25785 0.00484545 0)
(5.28499 -0.0111039 0)
(5.31611 -0.0215351 0)
(5.35239 -0.026831 0)
(5.38917 -0.0306475 0)
(5.42131 -0.0363864 0)
(5.44611 -0.0434613 0)
(5.46303 -0.0499399 0)
(5.47422 -0.0544461 0)
(5.48277 -0.0559896 0)
(5.49224 -0.0549119 0)
(5.50427 -0.0519175 0)
(5.51998 -0.0478964 0)
(5.53819 -0.0435316 0)
(4.92831 0.128525 0)
(5.12842 0.083251 0)
(5.2729 0.0432702 0)
(5.3609 0.027971 0)
(5.41386 0.0129869 0)
(5.45274 -0.00360241 0)
(5.483 -0.0113895 0)
(5.50678 -0.00998897 0)
(5.52625 -0.00620745 0)
(5.54311 -0.00525297 0)
(5.55815 -0.00840588 0)
(5.57099 -0.0141446 0)
(5.58145 -0.0206849 0)
(5.59065 -0.0273115 0)
(5.60116 -0.0337788 0)
(5.6146 -0.0394943 0)
(5.63163 -0.0437945 0)
(5.6507 -0.0451524 0)
(4.94335 0.0142319 0)
(5.20717 -0.0686187 0)
(5.32403 -0.0444442 0)
(5.36021 -0.0433828 0)
(5.38883 -0.0463789 0)
(5.42347 -0.0485809 0)
(5.45556 -0.0493137 0)
(5.48164 -0.0485767 0)
(5.50401 -0.0489875 0)
(5.52456 -0.0522433 0)
(5.54137 -0.0572037 0)
(5.55075 -0.061719 0)
(5.5501 -0.0646117 0)
(5.54093 -0.0664451 0)
(5.52583 -0.068175 0)
(5.50906 -0.0702062 0)
(5.49148 -0.0719449 0)
(5.47562 -0.0716487 0)
(4.96088 0.0706891 0)
(5.10023 0.00103605 0)
(5.04634 0.00503858 0)
(4.94386 -0.00294737 0)
(4.83644 -0.0172131 0)
(4.7172 -0.0278974 0)
(4.59405 -0.030044 0)
(4.48111 -0.0267333 0)
(4.37953 -0.0236258 0)
(4.28183 -0.0225414 0)
(4.18297 -0.0218364 0)
(4.08403 -0.0200895 0)
(3.98805 -0.0181979 0)
(3.89582 -0.0183022 0)
(3.80359 -0.0209547 0)
(3.71016 -0.0247758 0)
(3.61313 -0.0271861 0)
(3.52048 -0.0263692 0)
(0.00831613 -0.0309432 4.34274e-20)
(0.0836861 -0.0941679 -4.31068e-20)
(0.194238 -0.121653 0)
(0.309743 -0.130355 0)
(0.427727 -0.132124 0)
(0.547621 -0.132164 4.17573e-20)
(0.669451 -0.132216 0)
(0.793569 -0.132554 0)
(0.920211 -0.132874 0)
(1.04915 -0.132661 0)
(1.17965 -0.131228 -4.00245e-20)
(1.30998 -0.127854 0)
(1.4378 -0.121682 0)
(1.55944 -0.111933 0)
(1.67118 -0.0977923 0)
(1.76725 -0.0788115 -3.82698e-20)
(1.84379 -0.0543317 0)
(1.89281 -0.0246757 0)
(1.91321 0.0100223 0)
(1.89493 0.0484212 0)
(1.83431 0.0868176 0)
(1.7301 0.123906 0)
(1.58452 0.15253 0)
(1.40252 0.170145 -3.58935e-20)
(1.19413 0.179413 3.56424e-20)
(0.972705 0.15898 -3.53914e-20)
(0.738423 0.158961 -3.51359e-20)
(0.535631 0.212874 0)
(0.469772 0.145471 0)
(0.533297 -0.122179 3.43207e-20)
(0.610438 -0.449979 3.40302e-20)
(0.62884 -0.554549 0)
(0.568024 -0.310125 0)
(0.293985 0.129817 3.31496e-20)
(-0.188244 0.417977 0)
(-0.697943 0.479306 0)
(-1.19839 0.463307 -3.21995e-20)
(-1.65866 0.426527 0)
(-2.0786 0.384083 -3.14545e-20)
(-2.45675 0.341195 -6.21462e-20)
(-2.79516 0.300566 0)
(-3.0964 0.26316 0)
(-3.36337 0.229254 0)
(-3.59865 0.198683 0)
(-3.80455 0.171073 0)
(-3.98291 0.145924 -5.7763e-20)
(-4.13516 0.122761 -5.70981e-20)
(-4.2624 0.101211 -5.64572e-20)
(-4.36556 0.0810931 0)
(-4.44551 0.0623504 5.52517e-20)
(-4.50302 0.0449432 0)
(-4.53903 0.0288361 -5.41498e-20)
(-4.55468 0.0142287 -5.36367e-20)
(-4.55096 0.00151953 0)
(-4.53163 -0.0093082 0)
(-4.49722 -0.0186865 0)
(-4.45012 -0.0264948 -5.17933e-20)
(-4.39219 -0.0329499 0)
(-4.32518 -0.0381152 0)
(-4.25085 -0.0421813 0)
(-4.17045 -0.0454244 0)
(-4.08492 -0.0481568 0)
(-3.9946 -0.050768 0)
(-3.89924 -0.0536333 0)
(-3.79798 -0.0570928 0)
(-3.68944 -0.0613583 4.82998e-20)
(-3.57204 -0.0664486 0)
(-3.44431 -0.0721268 0)
(-3.30548 -0.0779016 -4.71982e-20)
(-3.15592 -0.0831194 -4.68338e-20)
(-2.99726 -0.0871558 0)
(-2.83206 -0.089649 4.61052e-20)
(-2.66309 -0.0906574 -4.574e-20)
(-2.49245 -0.0906485 0)
(-2.32106 -0.0902805 4.50086e-20)
(-2.14883 -0.0900403 0)
(-1.97518 -0.0901132 0)
(-1.7994 -0.0904646 -4.39151e-20)
(-1.62099 -0.090881 0)
(-1.44009 -0.0910067 4.3186e-20)
(-1.25759 -0.0904838 0)
(-1.07495 -0.0890725 -4.24469e-20)
(-0.893959 -0.086684 -4.20707e-20)
(-0.716485 -0.0833292 -4.1689e-20)
(-0.544284 -0.0791549 -8.26035e-20)
(-0.378829 -0.0743628 8.18179e-20)
(-0.221107 -0.069163 0)
(-0.0721172 -0.063684 0)
(0.0670229 -0.0585813 0)
(0.196945 -0.0532386 7.85415e-20)
(0.318287 -0.0480827 7.76907e-20)
(0.430833 -0.0431465 -7.68402e-20)
(0.534849 -0.0384603 0)
(0.630653 -0.0340407 7.51444e-20)
(0.718602 -0.0298938 7.43006e-20)
(0.799072 -0.0260196 7.34605e-20)
(0.872447 -0.0224149 0)
(0.939115 -0.0190756 0)
(0.999465 -0.0159972 0)
(1.05389 -0.0131757 7.01455e-20)
(1.10277 -0.0106066 0)
(1.14652 -0.00828414 0)
(1.18551 -0.0062011 -6.77148e-20)
(1.22016 -0.00434737 0)
(1.25083 -0.00270981 0)
(1.27791 -0.00127267 -6.53357e-20)
(1.30175 -1.70568e-05 0)
(1.32268 0.00107739 0)
(1.34099 0.00203019 6.30087e-20)
(1.35695 0.00286214 6.22446e-20)
(1.37078 0.00359 0)
(1.38266 0.00422442 -6.07333e-20)
(1.39277 0.00478069 0)
(1.40123 0.0052615 5.92443e-20)
(1.40816 0.00566215 0)
(1.41366 0.00600163 5.77769e-20)
(1.41782 0.00626707 5.70511e-20)
(1.42079 0.00644406 0)
(1.4226 0.00658236 0)
(1.42333 0.00668486 0)
(1.42311 0.00671212 0)
(1.42205 0.00665829 0)
(1.42029 0.00653135 0)
(1.41798 0.00633966 0)
(1.41524 0.00609516 5.14263e-20)
(1.41219 0.00581253 -5.07449e-20)
(1.40892 0.00550468 0)
(1.40551 0.00518156 0)
(1.40203 0.00485181 0)
(1.39854 0.00452465 0)
(1.39505 0.00420983 -9.48131e-20)
(1.39161 0.00391395 0)
(1.38821 0.00363508 9.22043e-20)
(1.38489 0.003365 -9.09128e-20)
(1.38166 0.00309981 0)
(1.3785 0.00284372 0)
(1.37542 0.00260808 0)
(1.37239 0.00239782 8.58302e-20)
(1.36942 0.00220951 8.45799e-20)
(1.36649 0.00204086 0)
(1.3636 0.00189036 8.21032e-20)
(1.36076 0.00175579 8.08766e-20)
(1.35796 0.00163372 -7.96577e-20)
(1.3552 0.00152084 0)
(1.3525 0.00141619 0)
(1.34984 0.00132016 -7.60464e-20)
(1.34724 0.00123412 0)
(1.34468 0.00115975 0)
(1.34216 0.00109803 0)
(1.33967 0.00104849 0)
(1.33719 0.00100975 7.01746e-20)
(1.33472 0.00097986 6.90216e-20)
(1.33225 0.000956973 0)
(1.32976 0.00093959 6.67363e-20)
(1.32725 0.000926699 0)
(1.32471 0.000917658 0)
(1.32214 0.000912387 6.33592e-20)
(1.31951 0.000911125 0)
(1.31682 0.000914834 6.11408e-20)
(1.31406 0.000924493 0)
(1.31118 0.000942173 0)
(1.30821 0.000969198 5.78616e-20)
(1.30503 0.00100928 0)
(1.30173 0.00106262 5.5707e-20)
(1.29806 0.00113722 0)
(1.29426 0.00122992 0)
(1.28981 0.00136088 0)
(1.28522 0.00151471 -5.14725e-20)
(1.27947 0.00174625 0)
(1.27361 0.00199279 4.93926e-20)
(1.26569 0.00241513 0)
(1.25759 0.00279707 0)
(1.24614 0.00362589 0)
(1.23353 0.00416909 0)
(1.21687 0.00600962 0)
(1.19327 0.00654271 0)
(1.17138 0.0113321 0)
(1.11578 0.0108554 -8.27253e-20)
(1.10108 0.0254724 0)
(0.937081 0.0185312 0)
(0.0273327 -0.160847 -1.3028e-19)
(0.113233 -0.3118 1.29297e-19)
(0.205577 -0.356053 0)
(0.297021 -0.365104 -8.48648e-20)
(0.390275 -0.366809 0)
(0.487377 -0.369468 -4.17533e-20)
(0.589433 -0.374419 8.28367e-20)
(0.696759 -0.380759 8.21502e-20)
(0.809171 -0.386965 0)
(0.926191 -0.391228 8.07594e-20)
(1.04676 -0.391505 4.00276e-20)
(1.16958 -0.385611 0)
(1.29186 -0.371157 0)
(1.41088 -0.345897 0)
(1.52171 -0.30771 0)
(1.62086 -0.255373 3.82783e-20)
(1.70111 -0.187651 0)
(1.75988 -0.10503 -7.51706e-20)
(1.78632 -0.00922206 0)
(1.78284 0.0976818 0)
(1.7449 0.209137 7.33052e-20)
(1.67021 0.317707 0)
(1.56168 0.41926 -7.22034e-20)
(1.42369 0.505435 3.58765e-20)
(1.26691 0.560369 -3.56197e-20)
(1.11566 0.593533 3.53631e-20)
(0.987101 0.566682 3.51015e-20)
(0.903912 0.285947 0)
(0.801346 -0.139844 0)
(0.550875 -0.146096 -3.43162e-20)
(0.0531082 0.293549 3.40483e-20)
(-0.62675 0.670486 0)
(-1.22127 0.911099 0)
(-1.67612 1.0729 -3.30147e-20)
(-2.07532 1.13228 0)
(-2.41734 1.0958 0)
(-2.72853 1.02357 3.20564e-20)
(-3.00817 0.933195 0)
(-3.26212 0.838793 -3.11823e-20)
(-3.49129 0.747185 6.19605e-20)
(-3.69796 0.661528 0)
(-3.88387 0.583038 0)
(-4.05058 0.511438 1.19311e-19)
(-4.19933 0.445928 1.17911e-19)
(-4.33102 0.385402 1.1654e-19)
(-4.44622 0.328831 -5.75132e-20)
(-4.54508 0.27534 5.70363e-20)
(-4.62748 0.224318 1.69057e-19)
(-4.69318 0.175437 -1.11445e-19)
(-4.74199 0.128631 -5.52138e-20)
(-4.77385 0.0840576 0)
(-4.78894 0.0420636 5.4123e-20)
(-4.78787 0.00317054 -5.35017e-20)
(-4.77168 -0.0319853 0)
(-4.73938 -0.0632209 0)
(-4.69373 -0.0905018 0)
(-4.63582 -0.113633 5.17705e-20)
(-4.56755 -0.132797 0)
(-4.4908 -0.148259 -1.01849e-19)
(-4.40713 -0.160565 0)
(-4.318 -0.17049 -1.00296e-19)
(-4.22428 -0.17899 0)
(-4.12633 -0.187168 9.87821e-20)
(-4.0238 -0.196142 0)
(-3.91565 -0.206883 -9.72872e-20)
(-3.80027 -0.21999 4.8263e-20)
(-3.67569 -0.235468 0)
(-3.54009 -0.252552 9.50694e-20)
(-3.39245 -0.269728 4.71803e-20)
(-3.23315 -0.285016 4.68161e-20)
(-3.06422 -0.296553 0)
(-2.88893 -0.303283 4.60602e-20)
(-2.71085 -0.305469 4.57242e-20)
(-2.53258 -0.304718 0)
(-2.3549 -0.303232 -4.49944e-20)
(-2.17712 -0.302595 8.9226e-20)
(-1.99804 -0.303299 0)
(-1.81646 -0.305152 4.39026e-20)
(-1.63154 -0.307433 0)
(-1.44326 -0.308902 -1.295e-19)
(-1.25263 -0.308304 0)
(-1.06139 -0.30483 1.27296e-19)
(-0.871541 -0.298243 4.20617e-20)
(-0.685178 -0.288633 -4.1672e-20)
(-0.504177 -0.276526 -8.25757e-20)
(-0.330033 -0.262562 8.17953e-20)
(-0.163599 -0.247321 0)
(-0.00627961 -0.2316 0)
(0.141611 -0.216252 0)
(0.281046 -0.200748 -2.3555e-19)
(0.412046 -0.185718 -7.76688e-20)
(0.534827 -0.171301 7.68186e-20)
(0.649723 -0.157584 0)
(0.757115 -0.144607 7.51173e-20)
(0.857401 -0.132382 -7.4279e-20)
(0.950972 -0.120904 -7.34386e-20)
(1.03821 -0.110158 0)
(1.11946 -0.100126 0)
(1.19508 -0.0907876 0)
(1.26539 -0.0821248 -7.01218e-20)
(1.33073 -0.074122 0)
(1.39143 -0.0667651 1.36985e-19)
(1.44782 -0.0600391 2.03064e-19)
(1.50024 -0.0539259 -1.33776e-19)
(1.54904 -0.0484014 0)
(1.59456 -0.0434347 -6.5305e-20)
(1.63713 -0.0389872 0)
(1.67707 -0.0350125 -1.27495e-19)
(1.71467 -0.0314597 6.2976e-20)
(1.75019 -0.0282737 6.22112e-20)
(1.78386 -0.0253995 0)
(1.81588 -0.0227879 1.82099e-19)
(1.84639 -0.0203918 -1.19902e-19)
(1.87551 -0.0181748 -5.92094e-20)
(1.90334 -0.0161152 0)
(1.92991 -0.0141856 -5.77405e-20)
(1.9553 -0.0123792 -1.71041e-19)
(1.9795 -0.0107033 0)
(2.00255 -0.00912614 -1.11153e-19)
(2.02453 -0.00764854 -1.09731e-19)
(2.04547 -0.00631611 -1.08319e-19)
(2.06536 -0.0051399 0)
(2.08422 -0.00411492 0)
(2.10207 -0.0032376 0)
(2.11893 -0.00250062 5.13848e-20)
(2.13484 -0.00188941 5.07036e-20)
(2.14983 -0.00138534 0)
(2.16393 -0.000972628 9.87087e-20)
(2.17719 -0.000640037 9.73735e-20)
(2.18962 -0.000372484 0)
(2.20127 -0.000150978 9.47302e-20)
(2.21217 3.22696e-05 1.86844e-19)
(2.22234 0.000173979 -9.21222e-20)
(2.23181 0.000282354 -9.08312e-20)
(2.24061 0.00038183 0)
(2.24872 0.000491419 0)
(2.25617 0.000605544 0)
(2.263 0.000706989 -8.57516e-20)
(2.26923 0.000793145 8.45022e-20)
(2.27488 0.000864479 1.66522e-19)
(2.27999 0.000921475 -8.20275e-20)
(2.28459 0.000964227 8.0802e-20)
(2.2887 0.00099244 7.95842e-20)
(2.29237 0.00101059 0)
(2.29561 0.00101963 0)
(2.29846 0.0010196 -7.59767e-20)
(2.30094 0.00101419 0)
(2.30309 0.00100649 0)
(2.30493 0.000999074 1.44872e-19)
(2.30648 0.000993473 0)
(2.30778 0.000990849 7.01113e-20)
(2.30883 0.00099152 -6.89596e-20)
(2.30967 0.00099523 0)
(2.3103 0.00100209 6.6677e-20)
(2.31074 0.0010128 0)
(2.31101 0.0010288 0)
(2.31111 0.00105198 -6.33037e-20)
(2.31106 0.00108426 1.24385e-19)
(2.31086 0.0011279 -6.10879e-20)
(2.3105 0.00118421 0)
(2.30996 0.00125685 0)
(2.30926 0.00134603 5.78123e-20)
(2.30834 0.00146143 0)
(2.30723 0.0015994 5.566e-20)
(2.30581 0.00178561 0)
(2.30418 0.00199884 0)
(2.30209 0.0023095 0)
(2.29975 0.00263706 5.14303e-20)
(2.29671 0.00317918 0)
(2.29328 0.00366961 -4.93525e-20)
(2.28881 0.00467095 0)
(2.28352 0.00536504 0)
(2.27696 0.00735592 9.25667e-20)
(2.26797 0.00821878 -9.05487e-20)
(2.25871 0.0125227 0)
(2.24124 0.0132431 0)
(2.23008 0.023418 0)
(2.19056 0.023052 2.47949e-19)
(2.18471 0.0490591 0)
(2.08405 0.0459797 -1.5767e-19)
(0.036581 -0.326888 -3.89875e-23)
(0.10126 -0.483 -1.72412e-19)
(0.160503 -0.507856 0)
(0.219236 -0.515475 1.69764e-19)
(0.282471 -0.526856 0)
(0.351422 -0.542882 0)
(0.426414 -0.561552 3.05095e-23)
(0.50716 -0.580868 -8.21732e-20)
(0.593478 -0.598849 -8.15117e-20)
(0.68476 -0.613048 -8.07922e-20)
(0.780065 -0.620249 0)
(0.878217 -0.616893 0)
(0.977185 -0.599082 7.86835e-20)
(1.074 -0.562962 1.55932e-19)
(1.16456 -0.504853 -1.54501e-19)
(1.24501 -0.422651 0)
(1.30965 -0.314028 -1.51698e-19)
(1.35502 -0.180209 7.5247e-20)
(1.37443 -0.0254601 0)
(1.36818 0.142157 -1.47772e-19)
(1.32982 0.311229 -7.33717e-20)
(1.26065 0.467168 1.45404e-19)
(1.16604 0.599294 7.22562e-20)
(1.05276 0.693478 0)
(0.920439 0.72159 -1.42338e-19)
(0.748851 0.661047 -1.41387e-19)
(0.54109 0.552039 0)
(0.236269 0.584123 -1.39504e-19)
(-0.343408 0.851318 0)
(-0.982794 1.14348 -1.36875e-19)
(-1.51094 1.36166 -6.78081e-20)
(-1.95989 1.48117 0)
(-2.31531 1.55563 0)
(-2.5944 1.58247 0)
(-2.81761 1.55513 0)
(-3.003 1.47672 0)
(-3.17222 1.37197 0)
(-3.33316 1.2544 -1.25917e-19)
(-3.49101 1.13542 1.87005e-19)
(-3.64641 1.02138 0)
(-3.79847 0.914657 0)
(-3.94583 0.816021 0)
(-4.08669 0.724636 -2.91518e-22)
(-4.21934 0.639282 -1.17871e-19)
(-4.34191 0.558475 -2.32756e-19)
(-4.45264 0.480934 2.30105e-19)
(-4.54984 0.40568 1.13646e-19)
(-4.632 0.332102 -1.12633e-19)
(-4.69782 0.259923 2.21972e-22)
(-4.74624 0.189268 -1.10063e-19)
(-4.77648 0.120779 0)
(-4.78833 0.0553933 -1.0793e-19)
(-4.78224 -0.00621765 1.79638e-22)
(-4.75913 -0.0632754 0)
(-4.72038 -0.114755 0)
(-4.66752 -0.159744 1.04193e-19)
(-4.60255 -0.197777 0)
(-4.52759 -0.228808 0)
(-4.44478 -0.253335 -1.01692e-19)
(-4.35611 -0.272309 -2.01997e-19)
(-4.26323 -0.287096 1.00287e-19)
(-4.16727 -0.29944 0)
(-4.06867 -0.311339 -9.87731e-20)
(-3.96706 -0.324895 0)
(-3.8611 -0.341992 -9.72221e-20)
(-3.74868 -0.363867 -9.65318e-20)
(-3.62715 -0.390617 1.91516e-19)
(-3.49396 -0.420818 9.49799e-20)
(-3.34747 -0.451495 0)
(-3.18779 -0.478663 -1.87086e-19)
(-3.01717 -0.498494 0)
(-2.83968 -0.508804 -2.76283e-19)
(-2.66014 -0.510176 -1.8269e-19)
(-2.48232 -0.506017 -1.81222e-19)
(-2.30715 -0.501102 1.79755e-19)
(-2.13289 -0.49881 -2.67499e-19)
(-1.95715 -0.499853 0)
(-1.77797 -0.50362 0)
(-1.59391 -0.508704 1.73961e-19)
(-1.40473 -0.512529 2.58827e-19)
(-1.2119 -0.512488 0)
(-1.01793 -0.507042 -8.48372e-20)
(-0.825588 -0.495852 0)
(-0.637506 -0.479229 2.49971e-19)
(-0.455871 -0.458271 2.52243e-23)
(-0.282208 -0.434231 -2.06564e-23)
(-0.117528 -0.408224 -1.6197e-19)
(0.0369372 -0.382122 0)
(0.181427 -0.35595 1.58669e-19)
(0.316937 -0.330357 1.33498e-23)
(0.443445 -0.305753 0)
(0.561363 -0.282369 0)
(0.671171 -0.260307 0)
(0.773406 -0.239587 -1.50213e-19)
(0.868636 -0.220181 0)
(0.957429 -0.202033 0)
(1.04033 -0.185082 0)
(1.11782 -0.169271 0)
(1.19034 -0.154557 0)
(1.25825 -0.140908 -1.40222e-19)
(1.32185 -0.1283 0)
(1.38142 -0.116717 -1.36976e-19)
(1.43723 -0.106142 -1.35367e-19)
(1.48954 -0.0965542 1.33769e-19)
(1.53864 -0.0879214 0)
(1.58481 -0.0802006 1.30606e-19)
(1.62837 -0.0733342 0)
(1.66962 -0.0672513 1.2749e-19)
(1.70885 -0.0618716 -1.25949e-19)
(1.74631 -0.0571054 -3.73251e-19)
(1.78225 -0.0528628 0)
(1.81686 -0.049057 -3.64175e-19)
(1.85029 -0.0456056 -1.19892e-19)
(1.88265 -0.042442 0)
(1.91404 -0.0395112 -2.33871e-19)
(1.9445 -0.0367698 -2.30944e-19)
(1.97406 -0.0341927 3.42059e-19)
(2.00273 -0.031763 0)
(2.03052 -0.0294735 1.11146e-19)
(2.05742 -0.0273261 1.09723e-19)
(2.08342 -0.0253323 3.24932e-19)
(2.10854 -0.023496 0)
(2.13277 -0.0218079 0)
(2.15612 -0.0202593 0)
(2.17858 -0.0188435 1.0276e-19)
(2.20016 -0.0175498 0)
(2.22088 -0.0163628 0)
(2.24075 -0.0152685 -9.86987e-20)
(2.25978 -0.0142562 -9.73631e-20)
(2.27798 -0.0133132 0)
(2.29536 -0.0124236 0)
(2.31194 -0.0115792 -1.86821e-19)
(2.32774 -0.0107806 0)
(2.34274 -0.0100241 1.81639e-19)
(2.35697 -0.00929534 1.79073e-19)
(2.37046 -0.00857903 0)
(2.38323 -0.00787666 0)
(2.39528 -0.00720222 -1.71478e-19)
(2.40663 -0.00655965 -4.4696e-26)
(2.4173 -0.0059517 -2.52949e-26)
(2.42729 -0.0053797 0)
(2.43662 -0.00484234 -3.23156e-19)
(2.44531 -0.00433811 0)
(2.45336 -0.00387262 0)
(2.4608 -0.00344735 0)
(2.46764 -0.00305751 1.51927e-19)
(2.47392 -0.00270292 0)
(2.47967 -0.00237939 -2.94383e-19)
(2.48491 -0.00208128 -1.44845e-19)
(2.48968 -0.00180593 0)
(2.49401 -0.00155043 -1.40197e-19)
(2.49793 -0.00131285 0)
(2.50146 -0.00109215 0)
(2.50464 -0.000887671 -3.99985e-19)
(2.50748 -0.000698464 2.62133e-19)
(2.51001 -0.000522728 0)
(2.51226 -0.000356629 2.53166e-19)
(2.51424 -0.000195345 -1.24361e-19)
(2.51597 -3.15848e-05 0)
(2.51747 0.000139677 0)
(2.51874 0.000327937 0)
(2.51978 0.00053403 -3.46806e-19)
(2.52061 0.000774372 0)
(2.52121 0.00104068 -1.11298e-19)
(2.52158 0.001372 0)
(2.52168 0.00173321 0)
(2.52153 0.00222665 0)
(2.52102 0.00273575 0)
(2.52025 0.00353332 0)
(2.51887 0.00426633 0)
(2.51729 0.00566582 -1.93247e-19)
(2.51455 0.00671436 0)
(2.5119 0.00937282 -9.25477e-20)
(2.50676 0.0108135 2.71581e-19)
(2.5028 0.0162665 0)
(2.49306 0.0181429 0)
(2.48802 0.0301577 -1.69121e-19)
(2.46911 0.0327106 -1.65251e-19)
(2.46496 0.0607478 1.61353e-19)
(2.4297 0.0667458 1.57625e-19)
(0.0279194 -0.450889 2.60738e-19)
(0.0606881 -0.577859 2.58799e-19)
(0.089561 -0.596855 1.71268e-19)
(0.119481 -0.613782 8.50417e-20)
(0.153429 -0.635492 0)
(0.19045 -0.660707 -1.67305e-19)
(0.230774 -0.688024 8.30435e-20)
(0.273933 -0.71605 0)
(0.319825 -0.742741 8.15624e-20)
(0.367968 -0.765011 0)
(0.417562 -0.778584 -1.60469e-19)
(0.46831 -0.778909 0)
(0.519587 -0.760861 -7.87712e-20)
(0.569177 -0.71933 -1.56127e-19)
(0.613543 -0.649625 1.54716e-19)
(0.649946 -0.547451 0)
(0.670747 -0.410007 1.51955e-19)
(0.676368 -0.237616 0)
(0.654253 -0.0359685 0)
(0.608211 0.180146 1.48061e-19)
(0.537489 0.394129 0)
(0.436182 0.592514 -1.05687e-22)
(0.296414 0.768207 0)
(0.114763 0.920191 0)
(-0.114142 1.05872 1.38235e-22)
(-0.422277 1.21061 1.41392e-19)
(-0.817626 1.39979 1.40013e-19)
(-1.25829 1.60605 1.38981e-19)
(-1.68968 1.76621 0)
(-2.04935 1.87302 2.7246e-19)
(-2.33767 1.93052 0)
(-2.57109 1.94341 1.33454e-19)
(-2.75951 1.92424 0)
(-2.91682 1.87471 0)
(-3.05612 1.79967 -1.29487e-19)
(-3.18852 1.70309 0)
(-3.31939 1.5938 1.26813e-19)
(-3.45012 1.47796 3.81843e-22)
(-3.58087 1.36045 -2.48565e-19)
(-3.711 1.24484 2.4544e-19)
(-3.83948 1.13261 0)
(-3.96528 1.02464 0)
(-4.08709 0.920658 1.18268e-19)
(-4.20356 0.820005 0)
(-4.313 0.721586 1.16227e-19)
(-4.41346 0.62435 -1.14913e-19)
(-4.50276 0.527477 -1.13635e-19)
(-4.57877 0.4305 0)
(-4.63952 0.333469 1.11206e-19)
(-4.6831 0.237111 1.10064e-19)
(-4.70802 0.142394 -2.17393e-19)
(-4.71406 0.0501277 1.07946e-19)
(-4.70163 -0.0378563 1.06947e-19)
(-4.67129 -0.118911 0)
(-4.62419 -0.191355 0)
(-4.56222 -0.253668 -1.042e-19)
(-4.48764 -0.305447 0)
(-4.40313 -0.346708 0)
(-4.31122 -0.378261 2.03548e-19)
(-4.21428 -0.401554 2.02013e-19)
(-4.11431 -0.418675 0)
(-4.01283 -0.432285 0)
(-3.91076 -0.44547 0)
(-3.80817 -0.461522 0)
(-3.70417 -0.483478 1.94514e-19)
(-3.59688 -0.513442 -1.92951e-19)
(-3.48365 -0.551747 -1.91522e-19)
(-3.36155 -0.596275 -3.7997e-19)
(-3.22818 -0.642313 0)
(-3.08251 -0.683339 1.15662e-22)
(-2.92558 -0.712853 0)
(-2.76061 -0.726808 1.84124e-19)
(-2.59239 -0.725753 1.44601e-22)
(-2.42542 -0.715416 1.81184e-19)
(-2.26094 -0.704565 -1.79715e-19)
(-2.09601 -0.699753 1.65822e-22)
(-1.92656 -0.701895 0)
(-1.74968 -0.709316 -1.75196e-19)
(-1.56366 -0.719621 -1.73913e-19)
(-1.3687 -0.728172 -3.44835e-19)
(-1.16749 -0.730146 0)
(-0.964226 -0.723148 1.69504e-19)
(-0.763276 -0.706776 0)
(-0.568216 -0.681971 -3.33161e-19)
(-0.381606 -0.650686 1.65076e-19)
(-0.20485 -0.615005 -1.63524e-19)
(-0.0391551 -0.577074 1.61941e-19)
(0.115253 -0.539154 3.2055e-19)
(0.259415 -0.501252 -1.58614e-19)