/*--------------------------------*- C++ -*----------------------------------*\
  =========                 |
  \\      /  F ield         | OpenFOAM: The Open Source CFD Toolbox
   \\    /   O peration     | Website:  https://openfoam.org
    \\  /    A nd           | Version:  7
     \\/     M anipulation  |
\*---------------------------------------------------------------------------*/
FoamFile
{
    version     2.0;
    format      ascii;
    class       volVectorField;
    location    "0.041";
    object      UMean;
}
// * * * * * * * * * * * * * * * * * * * * * * * * * * * * * * * * * * * * * //

dimensions      [0 1 -1 0 0 0 0];

internalField   nonuniform List<vector> 
12225
(
(4.77701 0.163952 0)
(4.18766 0.11058 0)
(3.73287 0.0967882 0)
(3.37207 0.0797672 0)
(3.05176 0.0661039 0)
(2.75792 0.0559059 0)
(2.49171 0.0468702 0)
(2.257 0.038491 0)
(2.05724 0.0296141 0)
(1.89116 0.0222019 0)
(1.76113 0.0135687 0)
(1.65924 0.00915619 0)
(1.59114 -0.000130025 0)
(1.54116 0.00201088 0)
(1.52036 -0.0131897 0)
(1.5112 0.00291645 0)
(1.52835 -0.0353058 0)
(1.5679 0.00253774 0)
(5.02247 0.113048 0)
(4.87916 0.0724373 0)
(4.7641 0.0875544 0)
(4.67799 0.0860151 0)
(4.59035 0.0833036 0)
(4.49383 0.0821814 0)
(4.39032 0.0807876 0)
(4.28612 0.0770056 0)
(4.18347 0.0719029 0)
(4.08827 0.0637803 0)
(3.99843 0.0563103 0)
(3.92192 0.0450258 0)
(3.85012 0.0382638 0)
(3.79783 0.0244231 0)
(3.74401 0.0216791 0)
(3.71944 0.00202539 0)
(3.68418 0.00017698 0)
(3.6862 -0.042235 0)
(4.99543 0.172532 0)
(4.87944 0.12159 0)
(4.80284 0.128267 0)
(4.77411 0.121317 0)
(4.76151 0.112623 0)
(4.74972 0.10752 0)
(4.73634 0.103274 0)
(4.72197 0.0983793 0)
(4.70716 0.0909184 0)
(4.69149 0.0828213 0)
(4.67564 0.0716231 0)
(4.65919 0.0623197 0)
(4.64455 0.0487111 0)
(4.63049 0.0410641 0)
(4.62162 0.0249293 0)
(4.61398 0.0179482 0)
(4.61521 -0.00588058 0)
(4.61373 -0.0317128 0)
(4.99599 0.187907 0)
(4.90243 0.118359 0)
(4.82678 0.115721 0)
(4.79362 0.110062 0)
(4.78262 0.101331 0)
(4.7779 0.0952799 0)
(4.77583 0.0914164 0)
(4.77677 0.0868985 0)
(4.78059 0.0811228 0)
(4.78632 0.073244 0)
(4.79295 0.0647836 0)
(4.79983 0.05445 0)
(4.80727 0.0448529 0)
(4.81505 0.0330005 0)
(4.82532 0.0223151 0)
(4.83627 0.00731094 0)
(4.85225 -0.0108848 0)
(4.86471 -0.0370202 0)
(4.99503 0.21473 0)
(4.92523 0.143244 0)
(4.8576 0.132616 0)
(4.82217 0.126162 0)
(4.80878 0.115292 0)
(4.80288 0.105925 0)
(4.79995 0.0989063 0)
(4.80016 0.0924403 0)
(4.80394 0.0847214 0)
(4.81048 0.0759474 0)
(4.81895 0.0657277 0)
(4.82835 0.0551969 0)
(4.83885 0.0434633 0)
(4.85013 0.0316095 0)
(4.86327 0.0181087 0)
(4.87751 0.00228757 0)
(4.89381 -0.0170014 0)
(4.90796 -0.0449793 0)
(4.98965 0.228394 0)
(4.93875 0.155827 0)
(4.88112 0.136701 0)
(4.84685 0.128286 0)
(4.8332 0.116329 0)
(4.82794 0.104741 0)
(4.82556 0.0956693 0)
(4.82571 0.0877355 0)
(4.82895 0.0794024 0)
(4.83482 0.0699496 0)
(4.84266 0.0595692 0)
(4.85156 0.0483201 0)
(4.86161 0.036448 0)
(4.87234 0.0236371 0)
(4.88461 0.00945165 0)
(4.89732 -0.00705238 0)
(4.91109 -0.0273169 0)
(4.92239 -0.0525887 0)
(4.9924 0.244949 0)
(4.95603 0.173669 0)
(4.90741 0.146943 0)
(4.87431 0.135121 0)
(4.8598 0.12218 0)
(4.8547 0.109138 0)
(4.85281 0.0981247 0)
(4.85292 0.0886254 0)
(4.85551 0.0791296 0)
(4.86046 0.0688459 0)
(4.86731 0.0576805 0)
(4.87529 0.0457325 0)
(4.88441 0.0330716 0)
(4.89413 0.019346 0)
(4.90505 0.00436967 0)
(4.91585 -0.0129556 0)
(4.92718 -0.0329194 0)
(4.9356 -0.0565936 0)
(5.00236 0.253276 0)
(4.9768 0.186771 0)
(4.93686 0.15521 0)
(4.90607 0.139798 0)
(4.89105 0.125768 0)
(4.88586 0.111408 0)
(4.88443 0.0985633 0)
(4.88476 0.0873834 0)
(4.88706 0.0767601 0)
(4.89138 0.0657 0)
(4.89749 0.0538905 0)
(4.90465 0.0413097 0)
(4.91282 0.0279815 0)
(4.92134 0.0136537 0)
(4.9307 -0.00194368 0)
(4.93951 -0.0194277 0)
(4.94848 -0.0389811 0)
(4.95445 -0.0610749 0)
(5.00031 0.261146 0)
(4.98455 0.19949 0)
(4.95393 0.164249 0)
(4.92761 0.144687 0)
(4.91356 0.128985 0)
(4.90848 0.113529 0)
(4.90723 0.0992509 0)
(4.90763 0.0866158 0)
(4.90975 0.0748725 0)
(4.91371 0.0630469 0)
(4.91942 0.0506416 0)
(4.92616 0.0374705 0)
(4.93374 0.0235636 0)
(4.94144 0.00872579 0)
(4.94958 -0.00717433 0)
(4.95693 -0.0245557 0)
(4.96408 -0.0434184 0)
(4.96853 -0.0639219 0)
(4.99624 0.268084 0)
(4.98708 0.21026 0)
(4.96404 0.173065 0)
(4.94203 0.150353 0)
(4.92933 0.133081 0)
(4.92469 0.116762 0)
(4.92398 0.10129 0)
(4.92488 0.0871567 0)
(4.92716 0.0740145 0)
(4.931 0.0611193 0)
(4.93638 0.047939 0)
(4.94271 0.0342124 0)
(4.94972 0.0198549 0)
(4.95671 0.00470958 0)
(4.96382 -0.0113169 0)
(4.97002 -0.028438 0)
(4.97575 -0.0465756 0)
(4.97917 -0.0656811 0)
(4.98783 0.270241 0)
(4.98271 0.217033 0)
(4.96434 0.178844 0)
(4.94517 0.153191 0)
(4.93338 0.133798 0)
(4.92899 0.116392 0)
(4.92873 0.100049 0)
(4.93021 0.084924 0)
(4.93279 0.0708578 0)
(4.93647 0.0572157 0)
(4.94136 0.0434456 0)
(4.94702 0.0292437 0)
(4.95324 0.0145215 0)
(4.95927 -0.000795251 0)
(4.96532 -0.0167377 0)
(4.97033 -0.0334006 0)
(4.97503 -0.0506754 0)
(4.97753 -0.0684689 0)
(5.01281 0.275114 0)
(5.0097 0.22557 0)
(4.99463 0.187171 0)
(4.97747 0.159532 0)
(4.96581 0.138248 0)
(4.96051 0.119598 0)
(4.95925 0.102191 0)
(4.95988 0.0859415 0)
(4.96163 0.0707409 0)
(4.96436 0.0561813 0)
(4.96815 0.0417843 0)
(4.97256 0.0271958 0)
(4.97748 0.0122608 0)
(4.98215 -0.00310911 0)
(4.98683 -0.0189359 0)
(4.99045 -0.0352408 0)
(4.99394 -0.0519073 0)
(4.99534 -0.0687958 0)
(4.99969 0.276158 0)
(5.00146 0.229355 0)
(4.99181 0.191339 0)
(4.97948 0.162285 0)
(4.97114 0.139271 0)
(4.96783 0.11942 0)
(4.96784 0.101232 0)
(4.96938 0.0843092 0)
(4.97172 0.0684468 0)
(4.9747 0.0532952 0)
(4.97847 0.0384232 0)
(4.9827 0.0235076 0)
(4.98729 0.00840187 0)
(4.99152 -0.00697327 0)
(4.99564 -0.0226033 0)
(4.99862 -0.03849 0)
(5.00144 -0.0544969 0)
(5.00222 -0.0705339 0)
(5.01443 0.279716 0)
(5.01687 0.235303 0)
(5.00972 0.1975 0)
(4.99988 0.167086 0)
(4.99291 0.142435 0)
(4.98986 0.121309 0)
(4.9896 0.102175 0)
(4.99088 0.0843559 0)
(4.99313 0.0676114 0)
(4.99605 0.0516756 0)
(4.99966 0.0362487 0)
(5.00358 0.0210392 0)
(5.00778 0.00588242 0)
(5.01154 -0.00932271 0)
(5.01516 -0.0245709 0)
(5.01761 -0.0398733 0)
(5.01992 -0.0551081 0)
(5.0203 -0.0702166 0)
(5.01043 0.278637 0)
(5.01562 0.236772 0)
(5.01205 0.199916 0)
(5.00559 0.169006 0)
(5.00108 0.143179 0)
(4.99955 0.120918 0)
(5.00023 0.100892 0)
(5.00215 0.0823018 0)
(5.00483 0.0647656 0)
(5.00796 0.0480633 0)
(5.01149 0.0320151 0)
(5.01513 0.0164402 0)
(5.01885 0.00121651 0)
(5.02212 -0.0137694 0)
(5.02519 -0.0285494 0)
(5.0273 -0.0431702 0)
(5.02926 -0.0575532 0)
(5.02971 -0.0716784 0)
(5.00634 0.281904 0)
(5.01366 0.241105 0)
(5.01273 0.204394 0)
(5.00903 0.172593 0)
(5.00713 0.1454 0)
(5.00773 0.121759 0)
(5.00995 0.100542 0)
(5.01298 0.0809952 0)
(5.01638 0.0627588 0)
(5.01986 0.0456239 0)
(5.02336 0.0293852 0)
(5.02665 0.0138242 0)
(5.02981 -0.00123581 0)
(5.03251 -0.0159115 0)
(5.03497 -0.0302519 0)
(5.03661 -0.0442594 0)
(5.0381 -0.0579074 0)
(5.03834 -0.0711349 0)
(5.00306 0.276744 0)
(5.01127 0.237953 0)
(5.01237 0.202033 0)
(5.01092 0.170022 0)
(5.01103 0.142008 0)
(5.01325 0.117402 0)
(5.01666 0.0953949 0)
(5.02047 0.0753069 0)
(5.02437 0.0567098 0)
(5.02817 0.039348 0)
(5.03183 0.0230244 0)
(5.03516 0.00754796 0)
(5.03822 -0.00724178 0)
(5.04069 -0.0214741 0)
(5.04285 -0.0351996 0)
(5.04417 -0.0484519 0)
(5.04535 -0.0611986 0)
(5.04536 -0.0734677 0)
(5.01 0.279929 0)
(5.0185 0.239365 0)
(5.02124 0.20253 0)
(5.02235 0.169736 0)
(5.0252 0.140697 0)
(5.02977 0.114961 0)
(5.03489 0.092019 0)
(5.03977 0.0714006 0)
(5.04421 0.052706 0)
(5.04816 0.0355985 0)
(5.0517 0.0197862 0)
(5.0547 0.00502301 0)
(5.05731 -0.0089007 0)
(5.05928 -0.0221346 0)
(5.06091 -0.0347924 0)
(5.06176 -0.0469203 0)
(5.06249 -0.0585664 0)
(5.06215 -0.0697155 0)
(5.00589 0.276612 0)
(5.01796 0.234027 0)
(5.02453 0.195024 0)
(5.02938 0.160516 0)
(5.03575 0.130482 0)
(5.04339 0.104315 0)
(5.05094 0.0812694 0)
(5.05766 0.0606962 0)
(5.06344 0.0421111 0)
(5.06835 0.025162 0)
(5.07255 0.00957638 0)
(5.07599 -0.00487594 0)
(5.07883 -0.0183779 0)
(5.08089 -0.0310713 0)
(5.08249 -0.0430389 0)
(5.08327 -0.0543492 0)
(5.08385 -0.0650324 0)
(5.08347 -0.0751533 0)
(5.00038 0.270715 0)
(5.01351 0.224996 0)
(5.02351 0.183494 0)
(5.03327 0.147488 0)
(5.04428 0.117126 0)
(5.05543 0.0916456 0)
(5.06539 0.0700215 0)
(5.07375 0.0513571 0)
(5.08079 0.0349474 0)
(5.08681 0.0202722 0)
(5.09203 0.00693414 0)
(5.09639 -0.00537004 0)
(5.09996 -0.0168791 0)
(5.1026 -0.0277308 0)
(5.10461 -0.0380298 0)
(5.10572 -0.0477965 0)
(5.10651 -0.0570991 0)
(5.10632 -0.0659166 0)
(5.00175 0.269524 0)
(5.01696 0.215727 0)
(5.0312 0.170041 0)
(5.04622 0.13273 0)
(5.06217 0.102357 0)
(5.07734 0.0769111 0)
(5.09049 0.0548602 0)
(5.10146 0.0354624 0)
(5.11069 0.01844 0)
(5.11848 0.00355819 0)
(5.12504 -0.00953348 0)
(5.13034 -0.0212409 0)
(5.13454 -0.0319083 0)
(5.13757 -0.0417861 0)
(5.13981 -0.0510215 0)
(5.14098 -0.0597184 0)
(5.14177 -0.067913 0)
(5.14143 -0.0756753 0)
(5.0131 0.263453 0)
(5.03252 0.200517 0)
(5.05293 0.151391 0)
(5.07379 0.114911 0)
(5.09376 0.0875597 0)
(5.11108 0.0658572 0)
(5.12534 0.0475781 0)
(5.13727 0.0316863 0)
(5.14764 0.0177559 0)
(5.15666 0.00549149 0)
(5.16434 -0.00543297 0)
(5.17057 -0.0153244 0)
(5.1755 -0.0244439 0)
(5.17914 -0.0329604 0)
(5.18186 -0.0409972 0)
(5.18348 -0.0486006 0)
(5.18462 -0.05585 0)
(5.18464 -0.0627331 0)
(5.0052 0.258471 0)
(5.03457 0.184018 0)
(5.06658 0.12979 0)
(5.09708 0.091879 0)
(5.12352 0.0636349 0)
(5.14471 0.0404752 0)
(5.16132 0.0207418 0)
(5.17474 0.0042725 0)
(5.18596 -0.00918274 0)
(5.1953 -0.0202854 0)
(5.20293 -0.0297712 0)
(5.20892 -0.0381886 0)
(5.21357 -0.0458405 0)
(5.21697 -0.052899 0)
(5.21949 -0.0594636 0)
(5.2209 -0.0656437 0)
(5.22172 -0.071489 0)
(5.22136 -0.0770914 0)
(5.00801 0.242884 0)
(5.04661 0.161235 0)
(5.08975 0.111058 0)
(5.12741 0.0821804 0)
(5.15649 0.061887 0)
(5.17837 0.0437557 0)
(5.19604 0.0272701 0)
(5.21143 0.0131874 0)
(5.22483 0.0015551 0)
(5.2359 -0.00825642 0)
(5.24463 -0.0169143 0)
(5.25126 -0.0247727 0)
(5.2563 -0.0319513 0)
(5.25997 -0.0385008 0)
(5.26266 -0.0445203 0)
(5.26423 -0.0501044 0)
(5.26521 -0.0553694 0)
(5.26509 -0.0603538 0)
(5.01081 0.225785 0)
(5.0656 0.124274 0)
(5.12695 0.0692281 0)
(5.17462 0.0403635 0)
(5.20642 0.0195912 0)
(5.22837 0.00146566 0)
(5.24615 -0.013115 0)
(5.2618 -0.0238606 0)
(5.27529 -0.0320012 0)
(5.2862 -0.0388732 0)
(5.29467 -0.0451162 0)
(5.30109 -0.0508561 0)
(5.30601 -0.056086 0)
(5.30958 -0.0608685 0)
(5.31218 -0.0653023 0)
(5.31364 -0.0695067 0)
(5.3145 -0.0735308 0)
(5.31426 -0.0774465 0)
(5.01313 0.21004 0)
(5.08942 0.110211 0)
(5.16817 0.0740503 0)
(5.22213 0.057036 0)
(5.25497 0.0382666 0)
(5.27881 0.0194748 0)
(5.30012 0.00456484 0)
(5.31917 -0.00607467 0)
(5.33474 -0.0141752 0)
(5.34654 -0.0211346 0)
(5.3553 -0.0274315 0)
(5.3618 -0.0331192 0)
(5.36668 -0.0382289 0)
(5.37013 -0.0428688 0)
(5.37252 -0.0471645 0)
(5.37373 -0.0512113 0)
(5.37428 -0.055073 0)
(5.37377 -0.0587743 0)
(5.00274 0.158615 0)
(5.11802 0.0340265 0)
(5.21599 0.00570751 0)
(5.27077 -0.00446427 0)
(5.30079 -0.0191321 0)
(5.32443 -0.031928 0)
(5.34674 -0.0400626 0)
(5.36646 -0.0453281 0)
(5.3822 -0.04964 0)
(5.3941 -0.0536649 0)
(5.40314 -0.0573917 0)
(5.41009 -0.0607677 0)
(5.41553 -0.0638231 0)
(5.41956 -0.0666679 0)
(5.42254 -0.0693651 0)
(5.42431 -0.071997 0)
(5.42542 -0.0745685 0)
(5.42538 -0.0771387 0)
(5.01541 0.150715 0)
(5.17905 0.0556299 0)
(5.30074 0.0416871 0)
(5.35795 0.0250344 0)
(5.38796 0.00560503 0)
(5.41358 -0.00818236 0)
(5.4374 -0.0163865 0)
(5.45735 -0.0221903 0)
(5.47264 -0.0272942 0)
(5.48395 -0.0320115 0)
(5.49228 -0.0362548 0)
(5.49837 -0.040065 0)
(5.50261 -0.0435047 0)
(5.50519 -0.0467132 0)
(5.50633 -0.0496944 0)
(5.50607 -0.0525673 0)
(5.50468 -0.0552852 0)
(5.50208 -0.0579879 0)
(5.01503 0.0206567 0)
(5.22892 -0.0509268 0)
(5.35368 -0.0340931 0)
(5.4048 -0.0428448 0)
(5.43231 -0.0532066 0)
(5.45344 -0.0580361 0)
(5.46853 -0.0600101 0)
(5.47602 -0.0615235 0)
(5.47601 -0.0631049 0)
(5.46979 -0.0646174 0)
(5.45862 -0.0659283 0)
(5.44364 -0.0670757 0)
(5.42536 -0.0680907 0)
(5.40459 -0.0690675 0)
(5.38126 -0.0699703 0)
(5.3564 -0.0708928 0)
(5.32927 -0.0717599 0)
(5.30169 -0.0727318 0)
(4.97077 0.067594 0)
(5.10613 -0.00225309 0)
(5.07572 -0.00231593 0)
(4.95888 -0.0124794 0)
(4.82889 -0.0199901 0)
(4.70241 -0.0228713 0)
(4.5795 -0.0239142 0)
(4.4583 -0.0245999 0)
(4.33831 -0.0251508 0)
(4.22023 -0.0255098 0)
(4.10482 -0.0256804 0)
(3.99282 -0.0257296 0)
(3.8842 -0.025711 0)
(3.7793 -0.025665 0)
(3.67746 -0.0255756 0)
(3.57954 -0.0254774 0)
(3.48396 -0.0253416 0)
(3.39305 -0.0252889 0)
(0.0038195 -0.0185062 2.42023e-21)
(0.0191967 -0.0331564 -2.40492e-21)
(0.0410099 -0.0361935 0)
(0.0610216 -0.0353843 0)
(0.0797314 -0.0334319 0)
(0.0968498 -0.0311534 2.33163e-21)
(0.112413 -0.0287748 0)
(0.126378 -0.026355 0)
(0.138733 -0.0238683 0)
(0.149346 -0.0212569 0)
(0.157976 -0.0184235 -2.22667e-21)
(0.164254 -0.0152564 0)
(0.167702 -0.0116386 0)
(0.16768 -0.00746632 0)
(0.163491 -0.00264207 0)
(0.15424 0.00287034 -2.11091e-21)
(0.139183 0.00911265 0)
(0.117252 0.0160348 0)
(0.0880704 0.0236062 0)
(0.0504316 0.0317106 0)
(0.00392964 0.040004 0)
(-0.0514028 0.0480114 0)
(-0.114992 0.0550036 0)
(-0.185806 0.0602907 -1.95532e-21)
(-0.262232 0.0629592 1.93956e-21)
(-0.342671 0.0630029 -1.92362e-21)
(-0.425516 0.0619368 -1.90722e-21)
(-0.508954 0.0594991 0)
(-0.593131 0.0550093 0)
(-0.681552 0.0528059 1.85353e-21)
(-0.776972 0.0594698 1.83317e-21)
(-0.879727 0.0766822 0)
(-0.989923 0.0961138 0)
(-1.10479 0.107194 1.76545e-21)
(-1.2172 0.107319 0)
(-1.32226 0.101134 0)
(-1.41769 0.092107 -1.68635e-21)
(-1.50223 0.0817548 0)
(-1.57522 0.0708213 -1.63079e-21)
(-1.6363 0.0597068 -3.20871e-21)
(-1.68531 0.0486577 0)
(-1.72221 0.0378277 0)
(-1.74704 0.0273236 0)
(-1.7599 0.0172233 0)
(-1.76096 0.00758245 0)
(-1.75047 -0.00154604 -2.99769e-21)
(-1.72881 -0.0101312 -2.98591e-21)
(-1.69643 -0.0181261 -2.9813e-21)
(-1.65384 -0.0254857 0)
(-1.60169 -0.0321312 2.9924e-21)
(-1.54066 -0.0380066 0)
(-1.47155 -0.0430801 -3.02684e-21)
(-1.39555 -0.0473643 -3.05087e-21)
(-1.31337 -0.0509135 0)
(-1.22605 -0.0537571 0)
(-1.13441 -0.0559462 0)
(-1.03937 -0.0575059 -3.17042e-21)
(-0.941737 -0.0585144 0)
(-0.842285 -0.0590052 0)
(-0.741672 -0.0590546 0)
(-0.640507 -0.0587157 0)
(-0.539306 -0.05807 0)
(-0.438515 -0.0571622 0)
(-0.338486 -0.0560522 0)
(-0.239532 -0.0547804 0)
(-0.141884 -0.0534069 3.38293e-21)
(-0.045699 -0.0519667 0)
(0.0489289 -0.0505065 0)
(0.141976 -0.049061 -3.40699e-21)
(0.233463 -0.0476448 -3.40985e-21)
(0.323406 -0.0462543 0)
(0.411785 -0.0448582 3.40847e-21)
(0.498509 -0.0434143 -3.40436e-21)
(0.583408 -0.0418853 0)
(0.66622 -0.0402378 3.38935e-21)
(0.746661 -0.038453 0)
(0.824444 -0.036543 0)
(0.899308 -0.0345215 -3.34994e-21)
(0.97105 -0.0324259 0)
(1.03949 -0.030285 3.31311e-21)
(1.10452 -0.0281261 0)
(1.16607 -0.0259847 -3.269e-21)
(1.22411 -0.0238788 -3.24461e-21)
(1.27864 -0.0218332 -3.21891e-21)
(1.32972 -0.0198636 -6.38412e-21)
(1.37744 -0.0179836 6.32847e-21)
(1.4219 -0.0161996 0)
(1.46323 -0.0145169 0)
(1.50156 -0.0129341 0)
(1.53704 -0.0114525 6.09252e-21)
(1.56982 -0.010072 6.03152e-21)
(1.60001 -0.00879028 -5.97013e-21)
(1.62777 -0.00760453 0)
(1.65323 -0.00651121 5.84683e-21)
(1.67653 -0.00550656 5.78518e-21)
(1.69779 -0.0045867 5.72367e-21)
(1.71714 -0.00374771 0)
(1.73471 -0.00298557 0)
(1.75061 -0.00229622 0)
(1.76497 -0.00167548 5.4804e-21)
(1.77788 -0.00111914 0)
(1.78946 -0.000622915 0)
(1.79981 -0.000182516 -5.30215e-21)
(1.80901 0.000206303 0)
(1.81716 0.000547696 0)
(1.82433 0.000845657 -5.12819e-21)
(1.83061 0.00110398 0)
(1.83607 0.00132616 0)
(1.84076 0.00151548 4.9587e-21)
(1.84475 0.00167483 4.9032e-21)
(1.8481 0.00180672 0)
(1.85086 0.00191347 -4.79364e-21)
(1.85308 0.00199709 0)
(1.8548 0.00205925 4.68597e-21)
(1.85607 0.00210195 0)
(1.85693 0.00212689 4.58015e-21)
(1.85743 0.00213533 4.52791e-21)
(1.8576 0.00212985 0)
(1.85747 0.00211199 0)
(1.85709 0.00208071 0)
(1.85648 0.00203659 0)
(1.8557 0.00198184 0)
(1.85475 0.00191885 0)
(1.85368 0.00184985 0)
(1.8525 0.001777 4.12518e-21)
(1.85124 0.00170217 -4.07664e-21)
(1.84991 0.00162689 0)
(1.84852 0.00155236 0)
(1.84709 0.0014796 0)
(1.84562 0.00140935 0)
(1.84413 0.00134204 -7.67895e-21)
(1.84262 0.00127786 0)
(1.84109 0.00121691 7.49418e-21)
(1.83955 0.0011594 -7.40281e-21)
(1.838 0.00110562 0)
(1.83644 0.00105584 0)
(1.83488 0.00101004 0)
(1.83331 0.00096795 7.0439e-21)
(1.83174 0.000929291 6.95577e-21)
(1.83017 0.000893854 0)
(1.82859 0.000861439 6.78135e-21)
(1.82702 0.000831882 6.69505e-21)
(1.82544 0.000805062 -6.60934e-21)
(1.82386 0.00078093 0)
(1.82228 0.000759445 0)
(1.8207 0.000740566 -6.35573e-21)
(1.81911 0.000724194 0)
(1.81751 0.000710176 0)
(1.8159 0.000698295 0)
(1.81428 0.000688329 0)
(1.81264 0.000680079 5.94432e-21)
(1.81099 0.000673428 5.86368e-21)
(1.80932 0.000668317 0)
(1.80762 0.000664805 5.70398e-21)
(1.8059 0.000662981 0)
(1.80415 0.000663091 0)
(1.80236 0.00066535 5.46835e-21)
(1.80052 0.000670255 0)
(1.79864 0.00067813 5.31385e-21)
(1.7967 0.00068987 0)
(1.79467 0.000705942 0)
(1.79257 0.000727911 5.08595e-21)
(1.79034 0.000756595 0)
(1.78801 0.000794367 4.93664e-21)
(1.78544 0.000843446 0)
(1.78276 0.000905936 0)
(1.77966 0.000990281 0)
(1.77644 0.00109098 -4.64478e-21)
(1.77243 0.00124235 0)
(1.76835 0.0013981 4.50276e-21)
(1.76277 0.00169373 0)
(1.75719 0.00191087 0)
(1.74893 0.0025641 0)
(1.74028 0.00277349 0)
(1.72766 0.00444572 0)
(1.71122 0.00423713 0)
(1.69275 0.00923826 0)
(1.65164 0.00698976 -7.97707e-21)
(1.63023 0.0254741 0)
(1.49482 0.0196742 0)
(-0.000415259 -0.0288898 -7.26469e-21)
(-0.0080067 -0.0499551 7.21844e-21)
(-0.0136721 -0.0513884 0)
(-0.021108 -0.0467008 -4.74077e-21)
(-0.0287606 -0.0414675 0)
(-0.0368186 -0.0365835 -2.33312e-21)
(-0.0450807 -0.0320879 4.62543e-21)
(-0.0536908 -0.0277279 4.58456e-21)
(-0.0627814 -0.0231888 0)
(-0.0726118 -0.018133 4.49897e-21)
(-0.0834972 -0.0122151 2.22807e-21)
(-0.0958709 -0.00508499 0)
(-0.110281 0.00360656 0)
(-0.127327 0.0141939 0)
(-0.147845 0.0269504 0)
(-0.172475 0.0420343 2.11219e-21)
(-0.202211 0.0594515 0)
(-0.237407 0.0789227 -4.12392e-21)
(-0.279285 0.0999473 0)
(-0.327458 0.121725 0)
(-0.382672 0.143177 3.9983e-21)
(-0.445571 0.163346 0)
(-0.516254 0.181519 -3.92726e-21)
(-0.594725 0.197271 1.95657e-21)
(-0.680439 0.210241 -1.94081e-21)
(-0.772379 0.219712 1.9249e-21)
(-0.86966 0.224387 1.90853e-21)
(-0.971709 0.226351 0)
(-1.07914 0.234875 0)
(-1.19185 0.253015 -1.85492e-21)
(-1.30512 0.268416 1.79849e-21)
(-1.40979 0.272919 0)
(-1.50184 0.268087 0)
(-1.58283 0.255369 -1.76689e-21)
(-1.65429 0.236163 0)
(-1.71659 0.212774 0)
(-1.76997 0.187037 1.68766e-21)
(-1.81446 0.160153 0)
(-1.85003 0.132841 -1.58242e-21)
(-1.87662 0.105566 3.21103e-21)
(-1.89415 0.0785904 0)
(-1.90255 0.0520779 0)
(-1.90176 0.0261406 6.07042e-21)
(-1.89179 0.000883385 6.00804e-21)
(-1.87265 -0.0235791 5.95919e-21)
(-1.8444 -0.0471059 -2.92535e-21)
(-1.80711 -0.0695496 2.98738e-21)
(-1.76093 -0.090733 8.88194e-21)
(-1.70616 -0.110477 -5.908e-21)
(-1.64319 -0.128559 -2.99358e-21)
(-1.57253 -0.144807 0)
(-1.49479 -0.159079 3.0279e-21)
(-1.41038 -0.171334 -3.00886e-21)
(-1.32024 -0.181555 0)
(-1.22512 -0.189769 0)
(-1.12596 -0.19605 0)
(-1.02357 -0.200493 3.17123e-21)
(-0.918793 -0.203272 0)
(-0.812339 -0.204541 -6.44419e-21)
(-0.704888 -0.204505 0)
(-0.597013 -0.203357 -6.55929e-21)
(-0.48922 -0.201288 0)
(-0.381901 -0.198475 6.65472e-21)
(-0.27539 -0.195075 0)
(-0.169983 -0.191227 -6.72759e-21)
(-0.0659052 -0.187076 3.37189e-21)
(0.0367166 -0.182732 0)
(0.137794 -0.178331 6.79345e-21)
(0.237338 -0.173958 3.40734e-21)
(0.335415 -0.169674 3.41017e-21)
(0.432089 -0.165457 0)
(0.52738 -0.161236 3.39967e-21)
(0.621205 -0.156873 3.40462e-21)
(0.713383 -0.152234 0)
(0.803629 -0.14721 -3.38957e-21)
(0.891619 -0.14175 6.75095e-21)
(0.977031 -0.135892 0)
(1.05959 -0.129686 3.35011e-21)
(1.13907 -0.123238 0)
(1.21533 -0.116638 -9.93593e-21)
(1.28824 -0.109981 0)
(1.35776 -0.10335 9.80437e-21)
(1.42386 -0.0968213 3.24472e-21)
(1.48656 -0.0904531 -3.21664e-21)
(1.54592 -0.0842986 -6.38002e-21)
(1.60203 -0.0783928 6.32472e-21)
(1.655 -0.0727535 0)
(1.70496 -0.0674022 0)
(1.75205 -0.0623322 0)
(1.79642 -0.0575483 -1.82749e-20)
(1.83818 -0.053048 -6.03156e-21)
(1.87746 -0.0488246 5.97016e-21)
(1.91441 -0.0448696 0)
(1.94913 -0.0411732 5.84468e-21)
(1.98176 -0.0377249 -5.78518e-21)
(2.01241 -0.0345139 -5.72365e-21)
(2.0412 -0.0315291 0)
(2.06824 -0.0287594 0)
(2.09363 -0.0261938 0)
(2.11747 -0.023821 -5.48034e-21)
(2.13985 -0.0216301 0)
(2.16088 -0.0196099 1.07209e-20)
(2.18063 -0.0177494 1.59051e-20)
(2.19919 -0.0160374 -1.04861e-20)
(2.21663 -0.0144633 0)
(2.23302 -0.0130166 -5.12719e-21)
(2.24843 -0.0116872 0)
(2.26292 -0.0104657 -1.00284e-20)
(2.27654 -0.00934325 4.95788e-21)
(2.28934 -0.00831203 4.90242e-21)
(2.30136 -0.00736505 0)
(2.31266 -0.00649627 1.43799e-20)
(2.32326 -0.00570043 -9.47834e-21)
(2.3332 -0.00497309 -4.68581e-21)
(2.34252 -0.00431012 0)
(2.35125 -0.00370779 -4.57998e-21)
(2.35942 -0.00316298 -1.35829e-20)
(2.36705 -0.00267214 0)
(2.37418 -0.00223236 -8.84883e-21)
(2.38082 -0.00184247 -8.74695e-21)
(2.38701 -0.00149987 -8.64591e-21)
(2.39276 -0.00120041 0)
(2.3981 -0.000939918 0)
(2.40305 -0.000714272 0)
(2.40763 -0.000519393 4.12484e-21)
(2.41185 -0.000351353 4.07643e-21)
(2.41575 -0.000206627 0)
(2.41934 -8.20871e-05 7.96084e-21)
(2.42263 2.50754e-05 7.866e-21)
(2.42565 0.000117395 0)
(2.42841 0.000196906 7.67852e-21)
(2.43092 0.000265299 1.51715e-20)
(2.43321 0.000324164 -7.49376e-21)
(2.43528 0.000375081 -7.4023e-21)
(2.43716 0.000419187 0)
(2.43884 0.000456985 0)
(2.44035 0.00048869 0)
(2.4417 0.000514832 -7.04349e-21)
(2.4429 0.000536094 6.9553e-21)
(2.44396 0.000553173 1.37356e-20)
(2.44489 0.00056674 -6.78095e-21)
(2.44571 0.000577454 6.6946e-21)
(2.44641 0.000585964 6.60895e-21)
(2.44701 0.000592908 0)
(2.44752 0.000598786 0)
(2.44794 0.000604107 -6.35531e-21)
(2.44828 0.000609309 0)
(2.44854 0.000614758 0)
(2.44874 0.000620718 1.22137e-20)
(2.44887 0.000627427 0)
(2.44894 0.000635087 5.94392e-21)
(2.44895 0.000643952 -5.86332e-21)
(2.44891 0.000654304 0)
(2.44881 0.000666562 5.70358e-21)
(2.44866 0.000681192 0)
(2.44845 0.000698845 0)
(2.44819 0.000720248 -5.46801e-21)
(2.44788 0.000746354 1.07809e-20)
(2.4475 0.0007784 -5.31351e-21)
(2.44706 0.000817692 0)
(2.44655 0.000866707 0)
(2.44595 0.000926742 5.08552e-21)
(2.44526 0.00100363 0)
(2.44446 0.00109653 4.93617e-21)
(2.44351 0.00122108 0)
(2.44242 0.00136563 0)
(2.44108 0.00157584 0)
(2.43954 0.00179887 4.64446e-21)
(2.43761 0.002174 0)
(2.43531 0.00250707 -4.50245e-21)
(2.43241 0.00322862 0)
(2.42877 0.00368528 0)
(2.42433 0.00520927 8.591e-21)
(2.41797 0.00570089 -8.45788e-21)
(2.41118 0.00928062 0)
(2.39867 0.00938393 0)
(2.38867 0.0188828 0)
(2.36065 0.0177263 2.39112e-20)
(2.34858 0.0475186 0)
(2.28252 0.0484248 -1.55161e-20)
(-0.00541512 0.000692479 1.41923e-24)
(-0.0334223 -0.00739208 -9.6275e-21)
(-0.0592636 -0.00725297 0)
(-0.0863546 -0.00342142 9.48523e-21)
(-0.112588 -0.000206621 0)
(-0.13867 0.00285422 0)
(-0.164509 0.00604564 -7.5456e-25)
(-0.190462 0.00973594 -4.587e-21)
(-0.216734 0.0142798 -4.5444e-21)
(-0.243633 0.0200865 -4.50134e-21)
(-0.271439 0.0275997 0)
(-0.300495 0.0372924 0)
(-0.331207 0.0496619 4.36252e-21)
(-0.364038 0.0651535 8.62804e-21)
(-0.39949 0.0840558 -8.52961e-21)
(-0.438098 0.106449 0)
(-0.480577 0.132153 -8.33246e-21)
(-0.527477 0.160715 4.12592e-21)
(-0.579668 0.191596 0)
(-0.637114 0.224124 -8.0546e-21)
(-0.700181 0.257508 -4.00026e-21)
(-0.768968 0.290514 7.89192e-21)
(-0.84329 0.321549 3.92927e-21)
(-0.922502 0.348778 0)
(-1.00628 0.370919 -7.67341e-21)
(-1.09398 0.388008 -7.60015e-21)
(-1.18458 0.402091 0)
(-1.27782 0.414953 -7.44067e-21)
(-1.36991 0.423829 0)
(-1.45422 0.424482 -7.25788e-21)
(-1.52923 0.41642 -3.63499e-21)
(-1.59552 0.40103 0)
(-1.65407 0.379758 0)
(-1.70595 0.352962 0)
(-1.7521 0.32155 0)
(-1.79326 0.286852 0)
(-1.8297 0.25004 0)
(-1.86126 0.212022 -6.39783e-21)
(-1.8874 0.173369 9.5076e-21)
(-1.90747 0.134457 0)
(-1.92073 0.0955077 0)
(-1.92648 0.05669 0)
(-1.92411 0.0181619 -1.27389e-22)
(-1.91308 -0.0198753 -6.0097e-21)
(-1.89303 -0.0571772 -1.18013e-20)
(-1.86371 -0.0934544 1.17362e-20)
(-1.82504 -0.128376 5.79489e-21)
(-1.7771 -0.161591 -5.90051e-21)
(-1.72012 -0.192749 9.98322e-23)
(-1.65452 -0.221518 -5.83759e-21)
(-1.58087 -0.247605 0)
(-1.49994 -0.270767 -5.92949e-21)
(-1.41254 -0.290786 7.23467e-23)
(-1.31952 -0.307505 0)
(-1.22184 -0.320883 0)
(-1.12039 -0.330983 6.19835e-21)
(-1.01606 -0.337991 0)
(-0.90968 -0.342165 0)
(-0.801968 -0.343831 -6.37384e-21)
(-0.693568 -0.343337 -1.29456e-20)
(-0.585013 -0.341032 6.55975e-21)
(-0.476763 -0.337238 0)
(-0.369198 -0.332247 -6.65508e-21)
(-0.262619 -0.326336 0)
(-0.157316 -0.319734 -6.68685e-21)
(-0.0535045 -0.312653 -6.75548e-21)
(0.0486678 -0.305302 1.35175e-20)
(0.149118 -0.297894 6.75775e-21)
(0.247899 -0.290601 0)
(0.345149 -0.283545 -1.35871e-20)
(0.441041 -0.276707 0)
(0.53569 -0.269936 -2.0394e-20)
(0.6291 -0.262964 -1.35721e-20)
(0.721084 -0.25549 -1.35501e-20)
(0.81129 -0.247303 1.35195e-20)
(0.899278 -0.23832 -2.02307e-20)
(0.984636 -0.228609 0)
(1.06703 -0.218299 0)
(1.14624 -0.207586 1.33066e-20)
(1.22209 -0.19663 1.98545e-20)
(1.29451 -0.185608 0)
(1.36346 -0.174646 -6.53518e-21)
(1.42893 -0.163879 0)
(1.49099 -0.153414 1.92985e-20)
(1.54971 -0.143322 7.41443e-24)
(1.60521 -0.133661 -6.76102e-24)
(1.65763 -0.124461 -1.25327e-20)
(1.70711 -0.11575 0)
(1.75382 -0.107516 1.22975e-20)
(1.79789 -0.0997652 4.92846e-24)
(1.83947 -0.0924855 0)
(1.8787 -0.0856629 0)
(1.91571 -0.0792799 0)
(1.95063 -0.073318 -1.16914e-20)
(1.9836 -0.0677582 0)
(2.01472 -0.0625812 0)
(2.04411 -0.057768 0)
(2.07188 -0.0533 0)
(2.09812 -0.0491585 0)
(2.12293 -0.0453253 -1.09568e-20)
(2.1464 -0.0417817 0)
(2.1686 -0.0385095 -1.07208e-20)
(2.18962 -0.0354903 -1.06029e-20)
(2.20954 -0.0327058 1.04861e-20)
(2.22842 -0.0301381 0)
(2.24633 -0.0277698 1.02552e-20)
(2.26332 -0.0255841 0)
(2.27946 -0.0235652 1.00283e-20)
(2.29478 -0.0216985 -9.91639e-21)
(2.30934 -0.0199708 -2.94142e-20)
(2.32317 -0.0183703 0)
(2.33631 -0.0168866 -2.87574e-20)
(2.34878 -0.0155108 -9.47671e-21)
(2.36063 -0.0142353 0)
(2.37187 -0.0130531 -1.85284e-20)
(2.38253 -0.0119584 -1.83179e-20)
(2.39263 -0.0109461 2.71641e-20)
(2.4022 -0.0100114 0)
(2.41125 -0.00915022 8.84875e-21)
(2.4198 -0.00835802 8.74688e-21)
(2.42788 -0.00763026 2.59368e-20)
(2.43551 -0.00696202 0)
(2.4427 -0.00634854 0)
(2.44947 -0.0057854 0)
(2.45584 -0.00526828 8.2493e-21)
(2.46182 -0.0047931 0)
(2.46744 -0.00435613 0)
(2.47271 -0.00395401 -7.96075e-21)
(2.47764 -0.00358367 -7.8659e-21)
(2.48226 -0.00324226 0)
(2.48657 -0.0029273 0)
(2.4906 -0.00263678 -1.51713e-20)
(2.49435 -0.00236881 0)
(2.49783 -0.00212159 1.48045e-20)
(2.50108 -0.00189355 1.4623e-20)
(2.50409 -0.00168361 0)
(2.50687 -0.00149103 0)
(2.50945 -0.00131478 -1.40866e-20)
(2.51183 -0.00115376 -7.51121e-26)
(2.51401 -0.00100681 -6.70517e-26)
(2.51603 -0.000872875 0)
(2.51787 -0.000750846 -2.6778e-20)
(2.51957 -0.000639694 0)
(2.52111 -0.000538381 0)
(2.52252 -0.000445766 0)
(2.5238 -0.000360848 1.27104e-20)
(2.52496 -0.000282658 0)
(2.52601 -0.000210261 -2.47559e-20)
(2.52696 -0.000142858 -1.22135e-20)
(2.52782 -7.97085e-05 0)
(2.52859 -2.0085e-05 -1.18877e-20)
(2.52928 3.67543e-05 0)
(2.52988 9.16373e-05 0)
(2.53042 0.000145476 -3.42209e-20)
(2.53089 0.000199407 2.24976e-20)
(2.53129 0.000254607 0)
(2.53163 0.000312736 2.18714e-20)
(2.5319 0.000375174 -1.07807e-20)
(2.53211 0.000444569 0)
(2.53226 0.000522214 0)
(2.53233 0.000613143 0)
(2.53233 0.000717481 -3.05125e-20)
(2.53225 0.000846519 0)
(2.53206 0.000995246 -9.87227e-21)
(2.53177 0.00119167 0)
(2.53132 0.00141225 0)
(2.53074 0.00173079 0)
(2.5299 0.00206423 0)
(2.52888 0.00261413 0)
(2.52739 0.00311722 0)
(2.5257 0.00413322 -1.7727e-20)
(2.52309 0.00487378 0)
(2.52033 0.00690062 -8.59082e-21)
(2.51562 0.00794133 2.53686e-20)
(2.51113 0.0123513 0)
(2.50239 0.0138116 0)
(2.49513 0.0244481 -1.61493e-20)
(2.47881 0.0274886 -1.59345e-20)
(2.46808 0.0561426 1.56869e-20)
(2.44233 0.067657 1.55164e-20)
(-0.00971315 0.0559248 1.45342e-20)
(-0.0490999 0.0634552 1.44416e-20)
(-0.0853281 0.0628581 9.55634e-21)
(-0.12322 0.0661353 4.74029e-21)
(-0.160633 0.06893 0)
(-0.198523 0.0719068 -9.33556e-21)
(-0.236712 0.0753204 4.6278e-21)
(-0.275536 0.0795688 0)
(-0.315126 0.085008 4.54698e-21)
(-0.355736 0.0920866 0)
(-0.397582 0.101328 -8.9195e-21)
(-0.44091 0.113253 0)
(-0.485985 0.128378 -4.365e-21)
(-0.533113 0.14721 -8.63291e-21)
(-0.582585 0.17023 8.53441e-21)
(-0.634669 0.197823 0)
(-0.689695 0.230038 8.33713e-21)
(-0.747714 0.266395 0)
(-0.809278 0.305867 0)
(-0.873571 0.346779 8.05922e-21)
(-0.940272 0.387488 0)
(-1.00912 0.426281 -2.5187e-23)
(-1.07967 0.461532 0)
(-1.15127 0.49181 0)
(-1.22351 0.516129 5.83668e-23)
(-1.29569 0.533994 7.60463e-21)
(-1.36645 0.54485 7.44301e-21)
(-1.43404 0.547881 7.44482e-21)
(-1.49681 0.542784 0)
(-1.55439 0.530317 1.44048e-20)
(-1.60766 0.511371 0)
(-1.6575 0.486858 6.92175e-21)
(-1.70463 0.457547 0)
(-1.74939 0.423973 0)
(-1.79181 0.386645 -6.57172e-21)
(-1.83141 0.346062 0)
(-1.86734 0.302662 6.33814e-21)
(-1.89852 0.256856 1.74935e-22)
(-1.92386 0.209008 -1.24123e-20)
(-1.94236 0.159502 1.20339e-20)
(-1.9532 0.108731 0)
(-1.9557 0.0571359 0)
(-1.94934 0.00518346 5.59975e-21)
(-1.93374 -0.0466315 0)
(-1.9087 -0.0977963 5.84226e-21)
(-1.87414 -0.147801 -5.8117e-21)
(-1.83012 -0.196107 -5.79629e-21)
(-1.77684 -0.242169 0)
(-1.71466 -0.285463 5.81043e-21)
(-1.64407 -0.325513 5.83858e-21)
(-1.56576 -0.361854 -1.15137e-20)
(-1.48053 -0.393971 5.93036e-21)
(-1.38922 -0.421471 5.99013e-21)
(-1.29279 -0.444129 0)
(-1.19226 -0.461938 0)
(-1.08867 -0.475054 -6.19903e-21)
(-0.982929 -0.483816 0)
(-0.875857 -0.488645 0)
(-0.768083 -0.490047 1.28197e-20)
(-0.660091 -0.488534 1.29466e-20)
(-0.552233 -0.484593 0)
(-0.44478 -0.478682 0)
(-0.337964 -0.471189 0)
(-0.232001 -0.462455 0)
(-0.127134 -0.452797 1.34152e-20)
(-0.0236447 -0.442472 -1.34184e-20)
(0.0782047 -0.431797 -1.35179e-20)