/*--------------------------------*- C++ -*----------------------------------*\
  =========                 |
  \\      /  F ield         | OpenFOAM: The Open Source CFD Toolbox
   \\    /   O peration     | Website:  https://openfoam.org
    \\  /    A nd           | Version:  7
     \\/     M anipulation  |
\*---------------------------------------------------------------------------*/
FoamFile
{
    version     2.0;
    format      ascii;
    class       volVectorField;
    location    "40";
    object      U;
}
// * * * * * * * * * * * * * * * * * * * * * * * * * * * * * * * * * * * * * //

dimensions      [0 1 -1 0 0 0 0];

internalField   nonuniform List<vector> 
918
(
(0.813496 -0.0529589 0)
(0.134464 2.47694 0)
(0.0514547 0.58089 0)
(0.756261 0.0535048 0)
(-0.0174154 0.694726 -1.79304e-19)
(-0.136691 2.25728 -2.72142e-17)
(0.246975 0.420949 -9.42976e-19)
(0.0999962 0.0535632 -5.24314e-20)
(1.00266 -0.00702814 0)
(-0.00337526 0.247848 0)
(-0.00939318 0.29933 0)
(0.200352 0.0019885 0)
(0.117393 1.74038 0)
(0.00851194 1.30144 0)
(-0.00602939 1.03692 -1.33121e-18)
(-0.00307596 0.438142 -1.60676e-19)
(0.108524 0.0260229 3.85734e-18)
(0.0449753 0.362491 -4.94572e-19)
(0.476376 0.0500636 0)
(-0.0142131 0.352269 0)
(0.238455 0.122899 -1.76576e-18)
(1.02785 -0.139874 0)
(0.959598 -0.177491 0)
(0.589276 -0.0666 0)
(0.172673 0.0116275 0)
(-0.0150311 1.47533 0)
(-0.0469635 1.72795 8.39606e-18)
(-0.0209582 0.754785 0)
(0.0213635 1.53306 0)
(0.0496351 0.921759 0)
(-0.0279644 1.75833 0)
(0.0103449 0.933661 1.40313e-19)
(0.0129107 0.377249 0)
(-0.320951 2.70296 -1.01938e-21)
(-0.310509 3.10884 2.35144e-17)
(-0.0130235 3.04129 0)
(0.241601 -0.000664323 0)
(0.0667004 0.0843359 5.78708e-19)
(0.43147 0.697972 2.05201e-18)
(0.275964 0.354428 -1.66035e-18)
(0.377048 0.786292 1.97525e-19)
(0.211491 0.46172 -9.79271e-19)
(0.196508 0.10473 5.28232e-20)
(0.10419 0.0525132 0)
(0.319973 0.197401 0)
(0.197302 0.106913 2.36043e-19)
(0.102149 0.0582919 -2.34515e-19)
(0.275469 -0.0145394 0)
(1.01043 -0.000248179 0)
(1.00278 0.00668187 0)
(1.07491 -0.154048 0)
(1.01611 -0.027982 0)
(1.01126 -0.0177087 0)
(0.00886673 0.557426 -2.45859e-18)
(-0.0165357 0.508483 0)
(0.00350661 0.250051 0)
(-0.0114726 0.50127 0)
(-0.00535757 0.248214 0)
(-0.0023513 0.517887 0)
(-0.0285667 0.565691 0)
(-0.00685377 0.271123 0)
(-0.0105718 0.592573 0)
(-0.00262462 0.317623 0)
(0.255335 0.00275346 0)
(0.387604 -0.000238413 0)
(0.204183 0.00336795 0)
(0.373757 0.0056256 0)
(0.190368 0.00242011 0)
(0.345185 2.93893 1.07235e-17)
(0.284413 3.23577 0)
(0.225159 3.03561 0)
(0.211121 2.70618 1.15675e-22)
(0.138778 2.12556 -1.50722e-17)
(0.177549 2.49081 0)
(0.0775988 1.54065 0)
(0.0169045 2.25863 1.59574e-23)
(0.0180266 1.30089 0)
(-0.0622408 2.29156 0)
(-0.0451705 1.32091 0)
(0.0244628 1.75772 0)
(-0.0103364 1.16624 0)
(0.011451 1.8936 1.34654e-18)
(0.00290283 1.09089 0)
(-0.0569258 2.50869 0)
(0.00208652 0.829775 1.62594e-19)
(-0.00635102 0.448927 -2.17559e-19)
(0.219119 0.0512528 -1.36517e-18)
(0.111007 0.0221346 -1.30499e-18)
(0.22118 0.0590859 -4.10608e-18)
(0.109574 0.0330868 -2.59513e-18)
(0.0517193 0.381313 0)
(0.109348 0.701267 4.69776e-19)
(0.106064 0.414596 -7.39362e-19)
(0.656708 0.0840893 0)
(0.346224 0.0354588 0)
(1.00992 0.0417583 0)
(1.0276 0.159004 0)
(0.935557 0.139992 -1.70049e-17)
(0.850069 0.134929 1.27466e-17)
(-0.0365002 0.65604 0)
(-0.00613537 0.316664 0)
(-0.0119846 1.02952 0)
(-0.0273943 0.703101 0)
(-0.0283744 0.351368 0)
(0.398467 0.132248 6.08399e-19)
(0.170912 0.0854276 0)
(0.742652 -0.0931938 0)
(0.411984 -0.0416433 0)
(0.359109 0.00369526 0)
(0.341177 0.00756032 0)
(0.180575 0.00252801 0)
(0.326229 0.0176908 0)
(0.277813 0.02163 0)
(0.117857 0.00936565 5.98728e-18)
(-0.0215523 1.34801 4.3673e-18)
(-0.0515825 2.42638 0)
(-0.0732476 2.51384 0)
(-0.0190479 1.35907 0)
(-0.0666632 2.63611 7.71397e-18)
(-0.0345624 1.62912 0)
(-0.10346 2.69815 -2.5317e-17)
(-0.0733537 1.81721 8.47994e-18)
(0.00735761 1.8763 0)
(-0.00646148 2.11942 0)
(-0.0110727 0.795861 -3.3e-21)
(-0.0068726 0.759759 0)
(-0.00672555 0.4174 0)
(0.459622 0.0108573 0)
(0.246987 0.00466009 0)
(0.230451 0.00337664 0)
(0.459199 -0.00863277 0)
(0.250627 -0.00249636 0)
(0.216186 0.24633 -7.7791e-19)
(0.0555674 0.0709846 0)
(0.20021 0.277329 1.01945e-19)
(0.0727388 0.117705 0)
(0.491798 0.591712 5.42719e-19)
(0.29652 0.30638 -1.21835e-18)
(0.227939 0.763505 0)
(0.308962 0.810461 0)
(0.166134 0.462644 0)
(0.0664334 0.170355 -7.95196e-19)
(0.209695 0.0961853 0)
(0.107875 0.0461458 7.08397e-19)
(0.515542 0.511718 0)
(0.540846 0.419598 0)
(0.306027 0.249894 1.35665e-18)
(0.57379 0.323869 0)
(0.34671 0.148905 2.82496e-20)
(0.477566 0.00312101 0)
(0.484157 -0.00639457 0)
(0.256811 -0.000188636 0)
(0.619409 -0.0612791 0)
(0.527058 -0.0412204 0)
(0.329263 -0.0267304 0)
(1.0256 0.0654671 0)
(1.01256 0.0271112 0)
(1.00465 0.0215284 0)
(0.0129408 1.00364 1.33259e-18)
(0.00803404 0.521207 0)
(0.00750034 1.05531 2.35471e-18)
(0.00159057 0.584288 -2.07624e-18)
(0.0407485 0.616331 4.23559e-19)
(0.0212685 0.527914 0)
(0.0198431 0.299482 0)
(-0.0130215 0.510898 0)
(-0.00291888 0.262083 0)
(-0.00287428 0.961663 -8.77312e-21)
(-0.0161291 0.53017 0)
(-0.0295102 0.935259 -4.33392e-19)
(-0.0139474 0.485882 8.22164e-19)
(0.000459508 0.519296 0)
(0.0025542 0.525878 0)
(0.000517073 0.268685 0)
(0.00536079 0.597648 0)
(0.000928118 0.31505 0)
(0.475153 -0.00101003 0)
(0.255316 0.00304695 0)
(0.468169 0.00900254 0)
(0.247167 0.000341937 0)
(0.221965 0.00116325 0)
(0.415379 0.00478729 0)
(0.396726 0.0137715 0)
(0.217149 0.00484146 0)
(-0.00648637 4.03788 -6.95241e-20)
(0.0602174 3.91025 0)
(0.0867547 2.35695 0)
(0.0374091 1.39791 0)
(0.241108 1.65452 0)
(0.256435 0.702565 2.06197e-19)
(0.0253739 1.98425 0)
(-0.0221635 1.14552 0)
(-0.0274466 2.2834 0)
(-0.0554378 2.49047 0)
(-0.0408708 2.42041 0)
(-0.0326574 1.87064 2.10214e-20)
(-0.0489006 2.48558 0)
(-0.0364553 2.274 0)
(0.0030458 0.466104 1.70353e-20)
(0.00988555 0.893849 3.10797e-19)
(-0.0156807 0.859019 2.27209e-19)
(-0.00210676 0.470173 0)
(0.226613 0.0361105 2.10504e-18)
(0.11148 0.0149812 -2.02349e-18)
(0.0956195 0.705891 0)
(0.0657836 0.343495 -5.94074e-19)
(0.0845099 0.783553 -1.98299e-18)
(0.0359244 0.437138 1.93966e-18)
(0.258594 0.0061161 0)
(0.50044 0.0125033 0)
(0.545586 0.0365741 0)
(0.289327 0.0121353 0)
(0.00439203 0.603808 0)
(0.0102885 0.609315 0)
(0.00247884 0.320335 0)
(0.20159 0.112317 2.1194e-18)
(0.242179 0.117254 -2.39174e-18)
(0.114764 0.0631446 0)
(0.620213 0.0480423 2.38224e-19)
(0.362865 0.0312 0)
(0.554532 0.0359238 0)
(0.284419 0.00766007 0)
(0.229583 0.0287091 0)
(0.236842 0.0168347 -9.79877e-18)
(0.117181 0.0111246 3.56634e-18)
(-0.0284742 2.40665 4.88173e-18)
(-0.0222805 1.43694 4.50818e-19)
(0.0206241 3.94123 -1.60538e-19)
(0.126144 3.8064 7.03453e-18)
(-0.141175 2.77487 3.10563e-19)
(-0.0946642 1.99797 -1.26703e-21)
(-0.258628 3.0954 -6.592e-18)
(0.0494082 3.53287 4.93875e-18)
(0.0129014 3.73836 -7.3957e-18)
(0.462154 -0.00459397 0)
(0.469189 0.00555105 0)
(0.249973 -0.000338778 0)
(0.46959 0.00654037 0)
(0.442716 0.0126811 0)
(0.245859 0.00577518 0)
(0.425902 -0.000807234 0)
(0.431037 -0.00201356 0)
(0.226601 -0.000509274 0)
(0.163521 0.276451 -4.23929e-19)
(0.0528102 0.118609 0)
(0.0689194 0.134673 2.12955e-19)
(0.157724 0.3097 1.66974e-18)
(0.164474 0.301344 -9.22676e-19)
(0.0661683 0.125547 1.73295e-18)
(0.133791 0.373773 4.07641e-18)
(0.0726824 0.170654 7.74312e-19)
(0.218604 0.0730036 2.78754e-18)
(0.215357 0.0864362 7.2481e-19)
(0.109767 0.0399134 1.33663e-18)
(0.62288 0.23847 -1.55169e-18)
(0.373541 0.110886 -1.68922e-18)
(-0.0182696 1.05622 1.00532e-18)
(-0.00833929 0.578492 0)
(0.516367 0.00706636 0)
(0.492657 0.0192943 0)
(0.274599 0.00743476 0)
(0.0159573 4.013 0)
(0.0437112 2.26226 9.9202e-18)
(0.058041 2.29559 0)
(0.0235498 1.33437 -9.20741e-18)
(-0.0171341 4.07977 1.95953e-18)
(-0.0298921 4.10505 0)
(0.235676 0.375232 -2.13718e-20)
(0.311918 0.683541 2.25603e-19)
(0.0728011 0.210369 -3.60575e-19)
(-0.0484223 2.27061 -4.23864e-18)
(-0.0488233 2.10081 0)
(-0.0313917 1.26666 0)
(0.00634823 0.89674 -3.24017e-20)
(0.0145576 0.908892 -6.7759e-19)
(0.00773341 0.471853 -3.03756e-20)
(0.145698 0.633022 1.9718e-18)
(0.0728385 0.28128 -1.2765e-18)
(0.00987108 0.936452 1.63419e-18)
(0.0322337 0.856888 -1.82407e-18)
(0.0157355 0.479961 8.78315e-20)
(-0.025494 4.0548 -1.13108e-17)
(-0.0370103 4.13954 1.10172e-17)
(-0.0387547 2.55589 6.24078e-18)
(-0.0742205 2.45529 -5.36522e-18)
(-0.0193617 1.55222 -6.01918e-18)
(-0.0420964 4.1304 -1.45378e-17)
(-0.0442128 4.12788 1.27764e-17)
(0.158842 0.364295 0)
(0.168912 0.334405 -3.80022e-18)
(0.0743807 0.15441 1.61812e-18)
(0.179204 0.428605 2.43571e-18)
(0.0785274 0.220325 -3.6493e-18)
(0.659777 0.102484 9.06391e-19)
(0.659814 0.17699 0)
(0.386817 0.0722022 -8.99356e-19)
(-0.0422332 0.992319 -9.88194e-21)
(-0.0178097 1.03691 0)
(-0.0112484 0.570424 0)
(0.137694 0.546678 -6.92753e-19)
(0.143404 0.494539 -1.49725e-18)
(0.0716743 0.252261 2.72804e-18)
(1.05427 -0.151099 0)
(1.12549 -0.152652 3.03222e-18)
(0.011106 1.82681 0)
(0.00888791 1.48295 0)
(1.05543 0.0995267 2.23932e-20)
(1.0398 0.1741 6.30478e-18)
(-0.00529504 1.90138 -2.74484e-20)
(-0.00850608 1.50022 0)
(-0.0725952 3.76547 2.8848e-18)
(0.0324928 3.43658 0)
(1.13858 0.551257 -8.08287e-19)
(1.04682 0.0885912 -3.58584e-20)
(1.03473 -0.0365696 0)
(1.03873 -0.000371395 -2.35776e-23)
(0.0382596 1.30615 0)
(0.0860895 2.01899 0)
(-0.0302686 1.29537 0)
(-0.0363152 2.04387 6.34816e-19)
(-0.0386464 2.05569 3.91687e-19)
(0.870113 0.0150716 -1.95044e-20)
(1.00224 0.00886182 0)
(1.03686 0.0267176 0)
(-0.0546771 2.46654 0)
(-0.0351128 1.76478 0)
(-0.0459603 1.53712 0)
(0.314399 1.49746 6.13979e-19)
(1.11645 -0.143992 0)
(0.991708 -0.111566 0)
(1.06512 -0.0204762 3.8728e-18)
(1.10706 -0.121379 -4.58562e-18)
(1.04037 -0.0478725 0)
(-0.0587075 2.40352 0)
(-0.0196254 2.06536 0)
(-0.0286335 2.24845 0)
(-0.0291702 1.6049 0)
(-0.0210275 1.49533 0)
(-0.0265768 1.25976 0)
(0.976389 -0.000614511 0)
(0.934723 0.0139714 -2.45113e-20)
(0.802909 1.25359 -9.91765e-19)
(1.06052 0.0183146 -3.87394e-18)
(1.07212 0.107112 4.68199e-18)
(1.03328 0.0455275 0)
(1.13179 0.111824 3.58945e-18)
(1.11804 0.166604 -4.56952e-18)
(1.00785 0.13569 0)
(-0.0449282 1.89173 0)
(-0.019741 1.84773 1.39575e-19)
(-0.0253116 1.4683 -9.87383e-20)
(1.2191 0.182503 4.78475e-18)
(1.14246 0.0670944 0)
(-0.238034 3.94984 -3.75956e-18)
(-0.155362 2.4987 -2.44565e-19)
(-0.240428 4.01196 4.4127e-18)
(-0.0607787 3.90743 -1.75797e-18)
(-0.019121 3.54589 0)
(-0.022789 3.82426 1.42497e-18)
(-0.16522 4.15535 3.87562e-18)
(-0.0816484 4.04393 -2.65164e-18)
(-0.102975 4.05498 0)
(0.440581 0.20056 0)
(0.421188 0.228689 0)
(1.16351 0.701071 2.45292e-18)
(1.00569 0.673154 -3.12157e-18)
(1.26414 0.577798 0)
(1.09976 0.38645 0)
(1.11013 0.091631 -6.88222e-18)
(0.943329 0.0538746 8.49506e-18)
(1.10916 -0.0479947 0)
(0.930304 -0.0232323 0)
(1.16642 0.0159084 0)
(1.21743 0.051969 0)
(1.11042 0.0428185 0)
(1.19567 0.105735 0)
(1.15023 0.107394 0)
(1.12464 0.0818288 0)
(0.0496784 1.3915 0)
(0.0204637 1.05898 0)
(0.0778602 1.51524 0)
(0.0621864 1.12161 0)
(0.0983817 2.1651 0)
(0.0896412 1.65341 -1.2321e-18)
(0.0264304 2.15924 0)
(0.0136122 1.88524 8.74631e-19)
(-0.0235856 1.93487 -1.0649e-18)
(-0.0320577 1.40391 0)
(-0.0151738 1.11896 0)
(-0.0360374 1.47762 0)
(-0.0278986 1.0293 0)
(-0.0829854 2.56246 -4.75362e-19)
(-0.0662211 2.23812 5.15862e-19)
(-0.0578761 2.18516 6.13604e-19)
(-0.0384237 1.80303 0)
(-0.0651782 2.15784 -9.13468e-19)
(-0.0278228 1.88647 -5.5777e-19)
(-0.0726411 2.58129 3.69404e-19)
(-0.0740907 2.47008 -6.59799e-19)
(-0.0644935 2.39992 -7.46701e-19)
(1.00544 0.0254821 6.19685e-18)
(0.753707 0.00897345 -7.78356e-18)
(0.960222 0.0400169 -6.1914e-18)
(0.729289 0.0228257 7.70725e-18)
(1.11539 0.00900007 0)
(0.860542 -0.000382034 0)
(1.14358 0.0294571 0)
(1.09709 0.00665804 0)
(0.880647 0.00385953 0)
(1.2211 0.0774592 0)
(1.13606 0.0312393 0)
(0.930183 0.0194248 0)
(-0.0367771 2.38051 -2.04691e-20)
(-0.0532291 2.49626 0)
(-0.0523843 2.4571 0)
(-0.0535803 1.98625 1.61618e-19)
(-0.0230003 1.61367 -6.58434e-21)
(-0.0682519 2.49462 2.09055e-19)
(-0.0701885 2.36642 -2.13004e-19)
(-0.0573616 2.06988 0)
(-0.049808 2.04506 0)
(-0.0389397 2.09177 0)
(-0.0447064 1.69402 0)
(-0.0268379 1.17579 0)
(0.417594 1.7166 -1.38134e-18)
(0.435286 1.37644 -4.47432e-19)
(0.304362 1.31582 -5.09587e-19)
(0.168766 1.459 1.57354e-18)
(0.482157 2.4648 5.59614e-19)
(1.13949 -0.0543074 0)
(1.10069 -0.0856927 0)
(0.935489 -0.0569169 0)
(1.1772 -0.0229641 0)
(1.12961 -0.0540222 0)
(1.16237 -0.0955305 0)
(1.18508 -0.100784 0)
(1.20175 -0.0970212 0)
(1.06335 0.0265718 6.5275e-18)
(0.828657 0.0185484 -8.21571e-18)
(1.02193 0.0312902 -6.48649e-18)
(0.818698 0.016857 8.05344e-18)
(0.77917 1.3999 0)
(0.690936 1.30357 -1.22484e-18)
(0.843286 1.30887 -1.14463e-18)
(0.842221 1.00602 1.53335e-18)
(0.659469 1.25527 3.00703e-18)
(0.487426 0.070231 2.45105e-18)
(1.23379 0.0992184 0)
(1.29025 0.188935 -3.86623e-18)
(1.0746 0.079957 -1.70409e-19)
(1.25363 0.14371 0)
(-0.217747 3.32374 3.00285e-18)
(-0.260989 3.42373 -3.94847e-18)
(-0.0516764 1.66971 2.28663e-18)
(0.252433 0.511985 -1.2181e-18)
(0.0431838 3.59593 8.28675e-19)
(-0.00753626 3.64777 0)
(0.0254905 3.32191 -1.17943e-18)
(-0.148828 3.55968 -7.69606e-18)
(-0.0386161 3.62591 0)
(-0.0302567 3.96214 2.95745e-19)
(-0.0403208 4.24157 -3.28836e-18)
(-0.0500101 4.02862 4.7433e-18)
(-0.0955687 4.18175 0)
(-0.0374382 4.11285 0)
(0.656253 1.45429 0)
(0.659078 0.804263 -2.26323e-18)
(0.899641 0.804327 1.09248e-18)
(0.898938 1.07149 0)
(0.998216 1.12839 -9.62216e-19)
(1.02849 0.860137 4.45668e-20)
(0.477071 0.14137 -3.14268e-18)
(0.530423 0.231457 -1.78588e-20)
(0.420144 0.155016 1.57837e-18)
(0.470055 0.273181 1.063e-19)
(0.368329 0.210945 -4.18694e-18)
(0.504287 0.237875 0)
(0.683197 0.358377 2.66891e-18)
(0.69294 0.334752 0)
(0.499135 0.261679 0)
(0.373815 0.186657 0)
(1.09538 0.720584 2.11704e-18)
(1.30697 0.251982 -3.99474e-18)
(1.26624 0.403707 0)
(1.15285 0.252135 0)
(0.470005 0.124064 2.43039e-18)
(1.08171 0.602312 -1.61458e-18)
(0.950113 0.540189 2.99128e-18)
(1.25714 0.463284 -3.67536e-18)
(1.01463 0.0354418 4.40611e-18)
(1.03985 0.0558606 -4.54907e-18)
(0.863821 0.0274247 0)
(1.09232 -0.0109954 0)
(1.05081 -0.0264932 -4.26159e-18)
(0.851585 -0.00916817 4.20861e-18)
(1.3383 0.0291974 0)
(1.25608 0.0450292 0)
(1.2512 0.0533403 0)
(1.20545 0.0678026 0)
(1.30201 0.0200578 0)
(1.26561 0.0168665 0)
(-0.00894652 1.26421 0)
(-0.0134229 1.01797 0)
(0.160224 1.90775 -8.01689e-19)
(0.30525 1.61434 -3.49178e-19)
(0.147663 1.50859 -7.57745e-19)
(0.178887 1.27842 1.22196e-18)
(0.182391 1.92976 0)
(0.190603 2.42938 -1.06414e-18)
(0.165775 2.44507 0)
(0.402613 2.49861 -7.706e-19)
(0.35366 2.35876 2.00185e-18)
(0.248812 2.37948 9.20051e-19)
(0.300908 1.93172 -4.14404e-19)
(0.235623 2.03597 3.32384e-19)
(0.358338 2.21275 -1.38975e-18)
(0.302583 2.44688 0)
(0.353297 2.41074 1.02024e-18)
(-0.0304376 2.51484 -3.80949e-19)
(-0.0266808 2.14356 0)
(0.0187764 2.41838 1.12352e-18)
(-0.0206163 2.46905 0)
(-0.0131648 2.07777 -9.7114e-19)
(-0.0161513 1.79517 0)
(-0.0614156 2.22312 -5.3627e-19)
(-0.079663 2.46922 0)
(-0.0343233 1.93655 0)
(-0.0278095 1.89268 6.30666e-19)
(-0.0530705 2.2387 2.06963e-20)
(-0.0457116 2.16762 1.29338e-18)
(-0.0390391 1.7742 8.34336e-21)
(-0.0831034 2.52841 3.34717e-19)
(-0.0801175 2.53364 1.91873e-19)
(-0.0182014 1.33264 0)
(-0.00288806 1.08111 0)
(-0.0497823 2.54757 9.61428e-19)
(-0.0387761 2.19768 8.21881e-19)
(-0.0600087 2.37874 -1.06986e-18)
(-0.0185189 2.49934 0)
(-0.0647958 2.45589 -5.81588e-19)
(-0.0809419 2.30396 2.46756e-19)
(-0.0673316 2.33265 -7.77457e-20)
(-0.067835 2.53654 -4.21106e-19)
(-0.0662655 2.34764 -1.3085e-19)
(-0.0685787 2.32081 6.23413e-19)
(0.94356 0.0174054 -4.28962e-18)
(0.939555 0.0140818 4.17095e-18)
(0.768607 0.00996504 0)
(1.1748 0.061926 5.70898e-18)
(0.898787 0.0397055 -6.15584e-18)
(0.743579 0.0204528 6.71987e-18)
(1.23846 0.105425 -7.62851e-19)
(1.06016 -0.0146064 0)
(1.04479 -0.00456999 4.10677e-18)
(0.878887 -0.00467716 -4.03997e-18)
(1.2943 0.0380881 -2.36931e-19)
(1.25855 0.0333297 2.03518e-18)
(1.39877 0.0558331 0)
(1.42331 0.0577501 -6.94248e-19)
(1.3522 0.0447269 0)
(1.23283 0.0477113 0)
(1.36242 0.0293926 0)
(1.24135 0.0261859 0)
(1.41164 0.0358499 1.44406e-18)
(1.39723 0.023839 -3.20154e-18)
(1.39048 0.035124 -1.60718e-18)
(1.40992 0.0372445 -1.70825e-18)
(1.41644 0.0734106 3.37523e-18)
(1.2879 0.0621962 0)
(1.35729 0.0958603 0)
(-0.0601 2.4831 -2.33304e-19)
(-0.0470679 2.49679 -1.99564e-20)
(-0.0585368 2.50302 0)
(-0.053465 2.30321 2.338e-19)
(-0.0493508 2.31213 3.89514e-20)
(-0.0535829 2.26396 -3.56957e-20)
(-0.0529283 2.02904 4.96926e-19)
(-0.0897903 2.23296 -2.80564e-20)
(-0.0687641 2.29585 1.41095e-19)
(-0.047505 1.94858 -2.56615e-19)
(-0.0198252 1.71307 3.06825e-19)
(-0.0660187 2.33064 1.06719e-20)
(-0.0723764 2.47318 3.34513e-19)
(0.465121 1.93808 7.80044e-19)
(0.433258 2.16769 1.4687e-18)
(0.665026 1.49244 1.18662e-18)
(0.538353 1.59423 4.31338e-19)
(0.56716 1.35808 0)
(0.37325 1.50501 5.94563e-19)
(0.296959 1.06829 7.06352e-19)
(0.215788 1.63893 4.88158e-20)
(0.304813 2.06572 -2.41603e-18)
(0.391058 2.05442 1.88446e-18)
(0.291851 1.54044 0)
(0.197409 1.23368 -1.2388e-18)
(0.142469 1.90156 3.06533e-18)
(0.156385 1.70316 -8.52114e-20)
(0.089967 1.41632 -3.88049e-18)
(0.35625 0.936749 2.62405e-18)
(0.384194 1.03147 0)
(1.21514 -0.0261164 1.50886e-19)
(1.21959 -0.0857568 -1.26472e-19)
(1.25182 -0.0747305 -2.21889e-18)
(1.27242 -0.043925 2.2378e-18)
(1.24878 -0.0178179 0)
(0.752344 1.56336 0)
(0.762363 1.5632 0)
(0.903299 1.37535 0)
(0.780132 1.46958 0)
(0.665141 1.32328 -3.92273e-21)
(0.472997 0.857424 0)
(0.9495 2.68538 2.5459e-20)
(0.768614 2.42075 0)
(0.868882 2.34912 -2.10298e-18)
(0.871442 2.36456 1.36318e-18)
(0.605518 0.10197 0)
(0.480798 0.0864925 6.42867e-19)
(0.811347 0.115471 4.03679e-18)
(0.600623 0.0896594 -1.43511e-18)
(0.47757 0.0392703 -4.49113e-18)
(1.43076 0.26075 -5.04401e-18)
(1.29032 0.333327 -3.99231e-20)
(1.11444 0.285439 3.85202e-18)
(1.30267 0.246472 3.4358e-18)
(1.05154 0.154393 -5.69466e-18)
(0.975585 0.153918 6.97836e-19)
(1.07923 0.228337 -1.56084e-18)
(0.997417 0.22249 0)
(1.26603 0.185678 2.91512e-18)
(1.37718 0.208441 0)
(1.37765 0.253492 0)
(1.3529 0.137499 1.61666e-18)
(1.43919 0.211146 -3.41734e-20)
(1.41916 0.235104 -8.81325e-19)
(1.39387 0.21145 0)
(1.20986 0.0409694 3.20055e-18)
(1.41086 0.0580252 3.99517e-18)
(1.37713 0.0473719 -3.14047e-18)
(1.39332 0.076681 -2.70938e-18)
(1.26014 0.0737135 -4.05232e-18)
(1.10433 0.125374 0)
(1.14086 0.0974205 0)
(0.858386 0.0591806 -2.37794e-18)
(0.703959 0.0363636 8.86111e-19)
(1.36034 0.115195 3.70388e-18)
(1.43919 0.140319 -4.55719e-18)
(1.43972 0.16047 4.04379e-18)
(1.39825 0.158829 0)
(1.43 0.108822 0)
(1.43329 0.104352 -1.854e-18)
(1.41736 0.102063 -3.05003e-18)
(0.717369 2.15814 1.13993e-18)
(0.818428 2.76451 -1.16102e-18)
(0.948746 2.79122 -1.30607e-18)
(0.918885 3.06736 2.67851e-19)
(0.737933 1.606 -2.74758e-18)
(0.724732 1.50363 4.73388e-19)
(0.50855 0.859981 -4.42549e-20)
(0.897856 2.5465 -9.43261e-19)
(0.912769 2.50812 1.70724e-18)
(0.789699 2.86286 2.44473e-19)
(0.739256 2.04961 -2.49782e-19)
(0.677108 1.91992 0)
(0.594778 0.892699 -2.48495e-19)
(0.000423885 1.51766 1.75163e-18)
(0.500263 0.202906 2.04121e-18)
(0.357088 0.335942 2.17806e-18)
(0.442839 0.233231 2.34121e-18)
(0.562093 0.299145 -4.03724e-18)
(0.571238 0.263332 3.29526e-18)
(0.493197 0.202199 -1.15903e-18)
(0.386693 0.183187 2.57622e-18)
(0.547657 0.164757 -1.41869e-18)
(0.527431 0.174804 0)
(0.422341 0.137873 4.93466e-21)
(0.84187 0.485322 1.47282e-18)
(0.719145 0.404245 -5.18099e-18)
(0.620597 0.348508 -7.21303e-21)
(0.596509 0.343346 0)
(0.824318 0.847843 1.79874e-18)
(1.07396 0.943543 2.2986e-18)
(0.979551 1.0149 -2.65966e-18)
(1.12 0.960114 -9.34148e-19)
(1.11763 0.923684 -3.29281e-19)
(1.11881 0.99398 3.36368e-19)
(1.19548 0.76578 -3.42356e-18)
(1.20118 0.84713 8.74659e-19)
(1.23078 0.837611 0)
(1.23919 0.755435 -1.27331e-18)
(1.35991 0.361126 1.16985e-18)
(1.42972 0.330812 2.11203e-18)
(1.44226 0.321007 2.01005e-18)
(1.35725 0.443055 -2.29025e-18)
(1.36539 0.450631 0)
(1.37845 0.413391 0)
(1.1226 0.41367 -2.19433e-20)
(0.808818 0.222074 0)
(0.913491 0.244441 1.72414e-18)
(1.08991 0.298951 -2.85177e-20)
(1.25983 0.517549 1.01169e-17)
(1.18432 0.587447 2.57352e-18)
(1.16239 0.515089 -2.52645e-18)
(1.02246 0.45621 2.70432e-18)
(0.930667 0.452029 1.51236e-18)
(0.786086 0.380292 -1.46378e-18)
(1.22388 -0.0260965 3.58349e-18)
(1.32226 -0.00997441 0)
(1.30633 -0.0235066 2.39962e-18)
(1.2585 -0.0176921 -5.36598e-18)
(1.3519 0.0117513 2.62939e-18)
(1.32239 0.0359331 -5.50581e-18)
(1.25568 0.0410023 0)
(1.18069 0.0527235 -1.11973e-18)
(1.29214 0.0410921 2.86248e-18)
(1.24277 0.0629529 -1.46925e-18)
(1.20058 0.0536129 1.05507e-18)
(-0.0384497 1.31708 0)
(-0.0249305 1.72493 0)
(-0.0188064 1.24341 0)
(-0.0109424 0.991934 0)
(0.0168111 1.96596 1.31924e-18)
(0.0665963 1.81285 -3.54424e-19)
(0.115452 2.36261 -4.63633e-19)
(0.0898316 2.18947 4.63485e-19)
(-0.0326675 2.18905 -9.8968e-19)
(-0.0153826 2.19516 7.45762e-19)
(0.0332065 1.93097 3.14329e-20)
(0.0101621 1.79628 -8.86809e-19)
(-0.00211122 1.65325 -1.1987e-19)
(-0.0215283 1.85373 -1.11669e-19)
(0.0409208 2.4847 -1.19473e-18)
(0.0623735 2.43715 0)
(0.0918945 2.53344 5.86604e-19)
(0.0977861 2.50863 5.23798e-19)
(0.237371 2.45687 -4.78623e-19)
(0.228186 2.31385 0)
(0.23704 2.24067 -2.37296e-18)
(0.296737 2.40811 1.70062e-18)
(0.199389 2.49024 -1.25133e-18)
(0.141101 2.49588 6.83014e-19)
(0.129911 2.47931 0)
(-0.044159 2.55941 -1.10978e-18)
(-0.0630004 2.53438 -1.28032e-18)
(-0.0694117 2.57661 0)
(-0.0455325 2.4488 -1.66016e-20)
(-0.0393485 2.54945 5.50014e-19)
(-0.0637537 2.00381 8.74688e-20)
(-0.0353259 1.78997 -1.2487e-18)
(-0.0559903 2.02362 3.30303e-19)
(-0.0829849 2.34605 4.46111e-19)
(-0.0518191 2.23211 0)
(-0.042869 1.99904 0)
(-0.0472201 1.49693 3.81273e-19)
(-0.0348608 1.8738 -1.15886e-19)
(-0.0429591 1.87215 0)
(-0.0426088 1.37779 3.01179e-19)
(-0.022643 1.11333 -5.81058e-19)
(1.2559 0.0111081 0)
(1.2451 0.00360035 -3.68924e-19)
(1.41192 0.0209951 -2.62416e-18)
(1.37716 0.01477 0)
(1.2946 0.00434388 0)
(1.40454 0.0104598 -1.41633e-20)
(1.38706 0.00947703 4.37544e-18)
(1.3504 0.0246777 5.18391e-18)
(1.2598 0.0365449 0)
(1.18399 0.0332313 0)
(1.35223 0.0277517 2.6205e-18)
(1.241 0.0358647 0)
(1.15334 0.0387795 0)
(-0.0692624 2.53561 0)
(-0.080688 2.50181 2.15275e-20)
(-0.0645288 2.53848 1.17565e-19)
(-0.0420398 1.98146 0)
(-0.0832053 2.40456 2.14366e-19)
(-0.062522 2.21692 -1.2342e-19)
(-0.0454918 2.05005 0)
(0.635533 2.49702 0)
(0.459449 2.33605 -2.59841e-18)
(0.493554 2.46999 0)
(0.591375 2.15999 3.03135e-18)
(0.571342 1.74667 0)
(0.552607 1.96445 -1.27385e-18)
(0.69427 1.83706 -5.59662e-20)
(0.442875 1.17486 -3.1154e-18)
(0.389861 0.800181 3.47699e-18)
(0.470071 1.23785 7.5404e-19)
(0.68716 1.8387 0)
(0.714207 1.88001 0)
(0.440589 1.12559 0)
(0.308049 0.793351 -2.60835e-18)
(0.642602 2.47524 -1.96712e-18)
(0.711711 2.20768 -4.63655e-19)
(0.757263 2.40889 3.63691e-19)
(0.387072 1.31631 0)
(0.407159 1.24838 0)
(0.293656 0.966147 -8.13285e-19)
(0.628285 1.93719 0)
(0.727222 1.44761 0)
(0.541233 1.4073 -2.96371e-18)
(0.63449 1.11467 -1.82362e-19)
(0.659858 1.70355 0)
(0.627093 1.83207 4.4958e-18)
(0.988235 1.082 -8.88609e-19)
(0.957343 1.22609 0)
(0.955483 1.15427 1.50954e-18)
(0.759587 1.26473 0)
(0.755249 1.18264 0)
(0.92173 2.25426 -1.10552e-18)
(0.993174 2.74412 -9.91535e-19)
(0.951656 2.75032 1.9767e-18)
(0.955227 2.68877 -5.7971e-19)
(0.789562 1.81728 0)
(0.837893 2.03922 7.86525e-19)
(0.515207 1.04067 -9.41052e-19)
(0.381681 0.744239 -2.13519e-20)
(0.839926 2.51869 0)
(0.717651 2.13946 -1.01232e-18)
(0.739238 1.98415 0)
(0.759537 0.173734 0)
(0.545666 0.114554 0)
(0.413385 0.0934081 0)
(0.740178 0.183785 -2.66787e-18)
(0.551819 0.135484 1.47391e-18)
(0.715866 0.0419746 -1.77856e-18)
(0.881286 0.096613 0)
(0.821655 0.0965356 7.43161e-19)
(0.590526 0.0457556 2.92527e-18)
(0.511096 0.0273615 -1.85553e-18)
(0.629982 3.05378 3.32098e-19)
(0.723895 3.23433 0)
(0.453716 3.07317 7.55305e-19)
(0.327632 3.54192 -6.32484e-19)
(0.399139 3.46271 -1.35802e-18)
(0.443342 1.21159 2.77659e-18)
(0.432298 1.60618 0)
(0.346554 0.513234 -5.46397e-19)
(0.501716 0.578959 3.64296e-18)
(0.528712 0.252848 -7.62014e-19)
(0.608838 0.311155 8.48353e-19)
(0.727674 0.439552 1.86913e-18)
(0.817708 0.513655 0)
(0.723793 0.495143 0)
(0.701168 0.419502 0)
(1.30128 0.707968 9.14224e-19)
(1.24841 0.631346 -2.49537e-18)
(1.25679 0.686236 2.16255e-18)
(1.2976 0.59715 -2.01804e-18)
(1.38237 0.56537 0)
(1.36337 0.626592 -6.49464e-19)
(0.9621 0.387279 -3.52218e-18)
(1.00471 0.385229 -4.55987e-18)
(0.792101 0.347601 2.68831e-18)
(0.720631 0.309278 -2.58698e-18)
(0.834049 0.281602 -2.16625e-18)
(0.734245 0.260173 2.64486e-18)
(1.36001 0.0104074 -2.77632e-18)
(1.37483 0.0125102 5.48487e-18)
(1.26379 -0.0203988 3.35724e-18)
(1.26992 -0.0228259 -3.96632e-18)
(1.32892 0.00358519 0)
(1.37093 0.00702522 -6.70896e-18)
(0.011793 2.53079 2.17897e-19)
(-0.00141075 2.48033 0)
(0.0607488 2.51227 1.90564e-18)
(0.0685387 2.51037 -1.72517e-18)
(0.0777945 2.42355 8.66117e-19)
(0.0332743 2.39113 0)
(-0.0792253 2.5557 0)
(-0.0781566 2.31508 -1.20325e-19)
(-0.0746432 2.27016 1.07609e-19)
(-0.0798292 2.37024 1.28803e-20)
(-0.0785514 2.54035 -1.8719e-19)
(-0.0693633 2.53271 1.01068e-19)
(0.760629 2.39682 -3.08331e-18)
(0.740133 2.41532 3.29073e-18)
(0.608784 2.15688 -1.71932e-18)
(0.696435 2.44337 1.46204e-19)
(0.701632 1.66795 0)
(0.636161 1.79082 -1.4671e-18)
(0.667682 1.64025 1.44163e-18)
(0.622411 1.93078 1.71173e-18)
(0.705122 2.05096 0)
(0.717673 1.91038 0)
(0.614422 2.40046 2.94184e-18)
(0.537317 1.93525 4.26055e-18)
(0.59193 2.06156 -2.98453e-18)
(0.505286 2.00537 -4.97849e-19)
(0.511222 2.42814 9.891e-19)
(0.443284 2.2346 -2.43432e-18)
(0.522922 1.06782 -1.95905e-18)
(0.516399 0.973623 0)
(0.388621 0.737115 -1.96298e-18)
(0.797815 1.8225 0)
(0.786239 1.83361 0)
(0.400877 3.01989 -1.56336e-18)
(0.659029 3.36541 -9.34601e-19)
(0.490366 3.44412 1.45875e-18)
(0.137574 1.52884 0)
(0.189535 1.11217 -1.2748e-18)
(0.354691 1.50995 -1.75656e-18)
(0.304205 2.78027 0)
(0.194793 3.32416 9.735e-19)
(0.0396609 3.18639 0)
(0.894797 0.719904 -3.76688e-18)
(1.04399 0.815706 5.36752e-18)
(1.0526 0.714407 -5.32953e-18)
(0.826751 0.614114 -4.51661e-19)
(0.88881 0.605344 -1.89452e-18)
(0.706755 3.28913 7.69141e-19)
(0.847555 3.18927 -1.53649e-18)
(0.569719 3.01464 3.3072e-18)
(0.543678 2.67611 -2.3151e-18)
(0.834647 2.8126 -2.35936e-18)
(0.856552 3.08709 -3.31156e-19)
(0.919849 2.98904 1.79545e-18)
(0.688162 2.82409 1.50472e-19)
(0.675067 2.62752 1.01413e-18)
)
;

boundaryField
{
    wall-4
    {
        type            noSlip;
    }
    velocity-inlet-5
    {
        type            fixedValue;
        value           uniform (1 0 0);
    }
    velocity-inlet-6
    {
        type            fixedValue;
        value           uniform (0 3 0);
    }
    pressure-outlet-7
    {
        type            zeroGradient;
    }
    wall-8
    {
        type            noSlip;
    }
    frontAndBackPlanes
    {
        type            empty;
    }
}


// ************************************************************************* //
