/*--------------------------------*- C++ -*----------------------------------*\
  =========                 |
  \\      /  F ield         | OpenFOAM: The Open Source CFD Toolbox
   \\    /   O peration     | Website:  https://openfoam.org
    \\  /    A nd           | Version:  7
     \\/     M anipulation  |
\*---------------------------------------------------------------------------*/
FoamFile
{
    version     2.0;
    format      ascii;
    class       surfaceScalarField;
    location    "0.049";
    object      phi;
}
// * * * * * * * * * * * * * * * * * * * * * * * * * * * * * * * * * * * * * //

dimensions      [0 3 -1 0 0 0 0];

internalField   nonuniform List<scalar> 
24170
(
1.36861e-06
2.10546e-07
1.23669e-06
1.31914e-07
1.09714e-06
1.3955e-07
9.72258e-07
1.24886e-07
8.66046e-07
1.06212e-07
7.72495e-07
9.3551e-08
6.82328e-07
9.01664e-08
5.90391e-07
9.1937e-08
4.99643e-07
9.07489e-08
4.1648e-07
8.31621e-08
3.45335e-07
7.11451e-08
2.86923e-07
5.84124e-08
2.38968e-07
4.79547e-08
1.98222e-07
4.0746e-08
1.62281e-07
3.59413e-08
1.30455e-07
3.1826e-08
9.90633e-08
3.13917e-08
2.48161e-08
7.42473e-08
1.66742e-06
2.41579e-07
1.63865e-06
1.60684e-07
1.59262e-06
1.85576e-07
1.54399e-06
1.73518e-07
1.49871e-06
1.51495e-07
1.45541e-06
1.36848e-07
1.41072e-06
1.34855e-07
1.36188e-06
1.40779e-07
1.30977e-06
1.42863e-07
1.25766e-06
1.35267e-07
1.20728e-06
1.21529e-07
1.15721e-06
1.08476e-07
1.10529e-06
9.98762e-08
1.05088e-06
9.51629e-08
9.95947e-07
9.08692e-08
9.41116e-07
8.66573e-08
8.84537e-07
8.79702e-08
8.96808e-08
8.19673e-07
1.76409e-06
2.98903e-07
1.7348e-06
1.89973e-07
1.71354e-06
2.06837e-07
1.69588e-06
1.91172e-07
1.6834e-06
1.6398e-07
1.67639e-06
1.43854e-07
1.6729e-06
1.3835e-07
1.66912e-06
1.44555e-07
1.6618e-06
1.50184e-07
1.65051e-06
1.46552e-07
1.63633e-06
1.35709e-07
1.6198e-06
1.25007e-07
1.60016e-06
1.19518e-07
1.57637e-06
1.18956e-07
1.54735e-06
1.19886e-07
1.51374e-06
1.20273e-07
1.47664e-06
1.25063e-07
1.30626e-07
1.4357e-06
1.93516e-06
3.47987e-07
1.89686e-06
2.28279e-07
1.87442e-06
2.29271e-07
1.85644e-06
2.09154e-07
1.84411e-06
1.76309e-07
1.83687e-06
1.51101e-07
1.83346e-06
1.41755e-07
1.83214e-06
1.45876e-07
1.83037e-06
1.51958e-07
1.82677e-06
1.5015e-07
1.82188e-06
1.40599e-07
1.81731e-06
1.29578e-07
1.81376e-06
1.23068e-07
1.8105e-06
1.22215e-07
1.80515e-06
1.25234e-07
1.79614e-06
1.29285e-07
1.7842e-06
1.36996e-07
1.45286e-07
1.76954e-06
2.034e-06
3.70876e-07
2.01525e-06
2.47032e-07
2.00435e-06
2.40169e-07
1.99457e-06
2.18933e-07
1.98768e-06
1.832e-07
1.98253e-06
1.56252e-07
1.9773e-06
1.46978e-07
1.97131e-06
1.51874e-07
1.96473e-06
1.58539e-07
1.95855e-06
1.5633e-07
1.95439e-06
1.44753e-07
1.95366e-06
1.30313e-07
1.95676e-06
1.19962e-07
1.96252e-06
1.16457e-07
1.9684e-06
1.19356e-07
1.9718e-06
1.25888e-07
1.9724e-06
1.36389e-07
1.4773e-07
1.96996e-06
2.24085e-06
3.87445e-07
2.20989e-06
2.77985e-07
2.19356e-06
2.56499e-07
2.17698e-06
2.3551e-07
2.15788e-06
2.02305e-07
2.14069e-06
1.73439e-07
2.12998e-06
1.57687e-07
2.12722e-06
1.54634e-07
2.13036e-06
1.55402e-07
2.13549e-06
1.51197e-07
2.13933e-06
1.40921e-07
2.14035e-06
1.29286e-07
2.13906e-06
1.21252e-07
2.13652e-06
1.18995e-07
2.13341e-06
1.22467e-07
2.12953e-06
1.29771e-07
2.12529e-06
1.40632e-07
1.52374e-07
2.12064e-06
2.39366e-06
3.98629e-07
2.37326e-06
2.98382e-07
2.35927e-06
2.70493e-07
2.34512e-06
2.49654e-07
2.32996e-06
2.17472e-07
2.31676e-06
1.86631e-07
2.30796e-06
1.66489e-07
2.30498e-06
1.5762e-07
2.30711e-06
1.53267e-07
2.31165e-06
1.46662e-07
2.31578e-06
1.36781e-07
2.31788e-06
1.27193e-07
2.31755e-06
1.21582e-07
2.31499e-06
1.21554e-07
2.3106e-06
1.26853e-07
2.30472e-06
1.35656e-07
2.29819e-06
1.47163e-07
1.58762e-07
2.2918e-06
2.58678e-06
4.02554e-07
2.54316e-06
3.42007e-07
2.51052e-06
3.03128e-07
2.48901e-06
2.71169e-07
2.47133e-06
2.35151e-07
2.46107e-06
1.96893e-07
2.46001e-06
1.67543e-07
2.46597e-06
1.51664e-07
2.47485e-06
1.44391e-07
2.48274e-06
1.38772e-07
2.48737e-06
1.32153e-07
2.4883e-06
1.26257e-07
2.4862e-06
1.23684e-07
2.48196e-06
1.25796e-07
2.47636e-06
1.3245e-07
2.46984e-06
1.42181e-07
2.46341e-06
1.53588e-07
1.64587e-07
2.45759e-06
2.76333e-06
4.20742e-07
2.72644e-06
3.78902e-07
2.68954e-06
3.40025e-07
2.67037e-06
2.90337e-07
2.66229e-06
2.43231e-07
2.659e-06
2.00182e-07
2.65935e-06
1.67203e-07
2.66358e-06
1.47433e-07
2.6694e-06
1.38569e-07
2.67237e-06
1.35804e-07
2.66923e-06
1.3529e-07
2.66024e-06
1.35248e-07
2.64837e-06
1.35549e-07
2.6375e-06
1.36668e-07
2.63037e-06
1.39578e-07
2.62806e-06
1.44496e-07
2.63055e-06
1.51094e-07
1.58407e-07
2.63673e-06
2.95485e-06
4.63186e-07
2.91833e-06
4.15418e-07
2.89887e-06
3.59489e-07
2.9006e-06
2.88601e-07
2.91228e-06
2.31556e-07
2.9177e-06
1.94766e-07
2.90889e-06
1.76012e-07
2.88907e-06
1.67249e-07
2.86693e-06
1.60713e-07
2.84984e-06
1.52888e-07
2.84102e-06
1.44108e-07
2.84003e-06
1.36246e-07
2.84444e-06
1.31136e-07
2.85144e-06
1.29668e-07
2.85889e-06
1.32127e-07
2.8659e-06
1.37483e-07
2.87236e-06
1.44635e-07
1.5208e-07
2.87869e-06
3.15948e-06
4.11569e-07
3.1332e-06
4.41704e-07
3.12136e-06
3.71325e-07
3.12128e-06
2.88685e-07
3.12135e-06
2.31482e-07
3.1156e-06
2.0051e-07
3.10561e-06
1.8601e-07
3.09575e-06
1.77102e-07
3.08908e-06
1.67387e-07
3.08625e-06
1.55713e-07
3.08657e-06
1.43791e-07
3.08874e-06
1.34076e-07
3.09135e-06
1.28526e-07
3.09332e-06
1.27701e-07
3.0945e-06
1.30946e-07
3.09508e-06
1.36907e-07
3.09566e-06
1.44056e-07
1.50933e-07
3.0968e-06
2.77907e-06
4.68824e-07
2.79008e-06
4.307e-07
2.80675e-06
3.54647e-07
2.80981e-06
2.85628e-07
2.80035e-06
2.40945e-07
2.78549e-06
2.15368e-07
2.77388e-06
1.97624e-07
2.771e-06
1.79977e-07
2.77668e-06
1.61708e-07
2.78649e-06
1.45903e-07
2.79519e-06
1.35095e-07
2.79931e-06
1.29953e-07
2.79816e-06
1.29674e-07
2.79347e-06
1.32392e-07
2.78798e-06
1.36435e-07
2.78402e-06
1.40871e-07
2.78316e-06
1.44909e-07
1.49435e-07
2.78466e-06
3.45848e-06
5.09392e-07
3.45216e-06
4.37022e-07
3.45492e-06
3.51883e-07
3.45191e-06
2.88639e-07
3.43548e-06
2.57376e-07
3.41312e-06
2.37729e-07
3.39994e-06
2.10809e-07
3.40383e-06
1.76082e-07
3.4204e-06
1.45136e-07
3.43828e-06
1.28025e-07
3.44751e-06
1.25868e-07
3.44486e-06
1.32606e-07
3.43371e-06
1.40817e-07
3.42071e-06
1.45393e-07
3.41162e-06
1.45523e-07
3.40945e-06
1.43042e-07
3.41416e-06
1.40206e-07
1.39526e-07
3.42407e-06
4.19852e-06
4.14139e-07
4.22009e-06
4.15452e-07
4.22346e-06
3.48508e-07
4.2142e-06
2.979e-07
4.19451e-06
2.77065e-07
4.17469e-06
2.57547e-07
4.16505e-06
2.20446e-07
4.16677e-06
1.74369e-07
4.17314e-06
1.38759e-07
4.17749e-06
1.23677e-07
4.17789e-06
1.2547e-07
4.17668e-06
1.33819e-07
4.1776e-06
1.3989e-07
4.18329e-06
1.39703e-07
4.19405e-06
1.34767e-07
4.20822e-06
1.28873e-07
4.22313e-06
1.25295e-07
1.26932e-07
4.23572e-06
5.14946e-06
3.7768e-07
5.16396e-06
4.00956e-07
5.16074e-06
3.51733e-07
5.14444e-06
3.14191e-07
5.13298e-06
2.88533e-07
5.13538e-06
2.55141e-07
5.14591e-06
2.09919e-07
5.15374e-06
1.66536e-07
5.15391e-06
1.38589e-07
5.14937e-06
1.28218e-07
5.14576e-06
1.2908e-07
5.14644e-06
1.33141e-07
5.1513e-06
1.35026e-07
5.15785e-06
1.33155e-07
5.1639e-06
1.2872e-07
5.16826e-06
1.2451e-07
5.17151e-06
1.2205e-07
1.22943e-07
5.1755e-06
6.17519e-06
4.59797e-07
6.20585e-06
3.70297e-07
6.23487e-06
3.22717e-07
6.25216e-06
2.96897e-07
6.27247e-06
2.68229e-07
6.29762e-06
2.29991e-07
6.32039e-06
1.87144e-07
6.33601e-06
1.50921e-07
6.34539e-06
1.29203e-07
6.35158e-06
1.22035e-07
6.356e-06
1.24655e-07
6.35804e-06
1.31098e-07
6.35669e-06
1.36376e-07
6.35182e-06
1.38031e-07
6.345e-06
1.35536e-07
6.3385e-06
1.31006e-07
6.33474e-06
1.25817e-07
1.22902e-07
6.33478e-06
7.69617e-06
3.36764e-07
7.70801e-06
3.58453e-07
7.68371e-06
3.47016e-07
7.67374e-06
3.06869e-07
7.67849e-06
2.63484e-07
7.68989e-06
2.18591e-07
7.69917e-06
1.7786e-07
7.7031e-06
1.4699e-07
7.70593e-06
1.2637e-07
7.71226e-06
1.1571e-07
7.72273e-06
1.14184e-07
7.7345e-06
1.19326e-07
7.74414e-06
1.26737e-07
7.74937e-06
1.32806e-07
7.75009e-06
1.34816e-07
7.748e-06
1.33088e-07
7.74569e-06
1.28126e-07
1.2185e-07
7.74675e-06
9.24598e-06
4.05755e-07
9.29957e-06
3.04857e-07
9.37559e-06
2.70997e-07
9.44578e-06
2.36681e-07
9.50259e-06
2.06674e-07
9.53356e-06
1.87617e-07
9.53669e-06
1.74739e-07
9.52387e-06
1.59806e-07
9.50976e-06
1.40483e-07
9.50393e-06
1.21536e-07
9.50857e-06
1.09545e-07
9.52038e-06
1.07511e-07
9.53408e-06
1.13041e-07
9.54535e-06
1.21534e-07
9.55212e-06
1.2805e-07
9.55492e-06
1.30289e-07
9.5556e-06
1.27437e-07
1.20883e-07
9.55657e-06
1.15897e-05
4.81173e-07
1.15154e-05
3.79114e-07
1.14932e-05
2.93184e-07
1.15307e-05
1.99234e-07
1.15986e-05
1.38706e-07
1.16534e-05
1.32823e-07
1.16754e-05
1.52801e-07
1.16695e-05
1.65731e-07
1.1649e-05
1.60966e-07
1.16252e-05
1.45308e-07
1.16063e-05
1.28441e-07
1.15986e-05
1.15169e-07
1.16061e-05
1.05565e-07
1.16296e-05
9.8082e-08
1.16667e-05
9.09406e-08
1.17131e-05
8.38549e-08
1.1764e-05
7.65548e-08
7.03141e-08
1.18146e-05
8.38331e-06
4.9002e-07
8.43349e-06
3.28933e-07
8.47337e-06
2.53312e-07
8.50344e-06
1.69159e-07
8.52094e-06
1.21211e-07
8.52929e-06
1.24472e-07
8.53509e-06
1.47e-07
8.543e-06
1.57821e-07
8.55433e-06
1.49639e-07
8.56937e-06
1.30261e-07
8.58941e-06
1.08407e-07
8.61571e-06
8.8871e-08
8.64798e-06
7.32857e-08
8.68355e-06
6.25197e-08
8.71839e-06
5.6096e-08
8.74927e-06
5.29801e-08
8.77432e-06
5.15033e-08
5.04674e-08
8.79416e-06
7.33467e-06
4.35966e-07
7.37307e-06
2.90531e-07
7.41346e-06
2.12928e-07
7.41822e-06
1.64393e-07
7.39951e-06
1.39921e-07
7.38447e-06
1.39513e-07
7.38576e-06
1.45711e-07
7.399e-06
1.44585e-07
7.41614e-06
1.32493e-07
7.43489e-06
1.11518e-07
7.45785e-06
8.54423e-08
7.48779e-06
5.89378e-08
7.52429e-06
3.6782e-08
7.56448e-06
2.23267e-08
7.60439e-06
1.61882e-08
7.64066e-06
1.67068e-08
7.67089e-06
2.12747e-08
2.71023e-08
7.69426e-06
6.22358e-06
4.03645e-07
6.29635e-06
2.17755e-07
6.36113e-06
1.48153e-07
6.40462e-06
1.20903e-07
6.43296e-06
1.1158e-07
6.45905e-06
1.13422e-07
6.4915e-06
1.13266e-07
6.53065e-06
1.05431e-07
6.57209e-06
9.10561e-08
6.61023e-06
7.33705e-08
6.64054e-06
5.51386e-08
6.66134e-06
3.81339e-08
6.67444e-06
2.36843e-08
6.68368e-06
1.30806e-08
6.69281e-06
7.06683e-09
6.70394e-06
5.57658e-09
6.71754e-06
7.66767e-09
1.2222e-08
6.73242e-06
5.65058e-06
3.65552e-07
5.64638e-06
2.21954e-07
5.6475e-06
1.47036e-07
5.65502e-06
1.13375e-07
5.66898e-06
9.76244e-08
5.69126e-06
9.11445e-08
5.71946e-06
8.5062e-08
5.75123e-06
7.36609e-08
5.78498e-06
5.73046e-08
5.81848e-06
3.98705e-08
5.84869e-06
2.49266e-08
5.87297e-06
1.38562e-08
5.89012e-06
6.53227e-09
5.90071e-06
2.49458e-09
5.90643e-06
1.34682e-09
5.90942e-06
2.59042e-09
5.91144e-06
5.6483e-09
9.82211e-09
5.91384e-06
4.87343e-06
3.93024e-07
4.88987e-06
2.05504e-07
4.89507e-06
1.41837e-07
4.90456e-06
1.03894e-07
4.92929e-06
7.28897e-08
4.96827e-06
5.2162e-08
5.01127e-06
4.20669e-08
5.04816e-06
3.67654e-08
5.07413e-06
3.13403e-08
5.09041e-06
2.35878e-08
5.10165e-06
1.36918e-08
5.11251e-06
2.99183e-09
5.12534e-06
-6.29275e-09
5.1409e-06
-1.30671e-08
5.15835e-06
-1.61087e-08
5.17633e-06
-1.5382e-08
5.19365e-06
-1.16736e-08
-6.11572e-09
5.20958e-06
4.227e-06
3.4709e-07
4.25703e-06
1.75469e-07
4.29777e-06
1.01097e-07
4.33427e-06
6.73979e-08
4.37055e-06
3.66094e-08
4.41033e-06
1.23818e-08
4.44966e-06
2.73429e-09
4.48245e-06
3.97439e-09
4.50457e-06
9.2188e-09
4.51645e-06
1.17127e-08
4.5214e-06
8.73664e-09
4.52319e-06
1.20413e-09
4.52585e-06
-8.94654e-09
4.53051e-06
-1.77314e-08
4.53758e-06
-2.31832e-08
4.5467e-06
-2.45008e-08
4.55729e-06
-2.22617e-08
-1.77912e-08
4.56897e-06
3.71799e-06
3.41252e-07
3.78482e-06
1.08642e-07
3.82363e-06
6.22868e-08
3.83622e-06
5.48066e-08
3.84773e-06
2.51034e-08
3.86631e-06
-6.19762e-09
3.88972e-06
-2.06755e-08
3.91444e-06
-2.075e-08
3.93877e-06
-1.51158e-08
3.96224e-06
-1.17523e-08
3.98429e-06
-1.33149e-08
4.00412e-06
-1.86299e-08
4.02046e-06
-2.52798e-08
4.03325e-06
-3.05251e-08
4.04298e-06
-3.29066e-08
4.05067e-06
-3.21936e-08
4.05745e-06
-2.90455e-08
-2.4579e-08
4.06424e-06
3.27144e-06
2.89275e-07
3.32321e-06
5.68654e-08
3.34873e-06
3.67667e-08
3.37609e-06
2.74478e-08
3.39968e-06
1.51803e-09
3.41793e-06
-2.4451e-08
3.43412e-06
-3.68653e-08
3.45358e-06
-4.02093e-08
3.47711e-06
-3.86415e-08
3.50131e-06
-3.59602e-08
3.52216e-06
-3.41648e-08
3.53745e-06
-3.39153e-08
3.54714e-06
-3.49667e-08
3.55298e-06
-3.63644e-08
3.55713e-06
-3.70589e-08
3.56136e-06
-3.64278e-08
3.56673e-06
-3.44189e-08
-3.13805e-08
3.57354e-06
2.83955e-06
1.58833e-07
2.91171e-06
-1.52891e-08
2.94449e-06
3.98228e-09
2.98337e-06
-1.14278e-08
3.0212e-06
-3.63149e-08
3.04511e-06
-4.83651e-08
3.05819e-06
-4.99365e-08
3.06756e-06
-4.95881e-08
3.07826e-06
-4.93358e-08
3.09052e-06
-4.82222e-08
3.10211e-06
-4.5759e-08
3.11091e-06
-4.27123e-08
3.11605e-06
-4.0101e-08
3.11806e-06
-3.8383e-08
3.11826e-06
-3.72574e-08
3.11806e-06
-3.6228e-08
3.11857e-06
-3.49214e-08
-3.32097e-08
3.12039e-06
2.53076e-06
4.80084e-08
2.56168e-06
-4.62164e-08
2.59091e-06
-2.52442e-08
2.62609e-06
-4.66086e-08
2.65086e-06
-6.1086e-08
2.66219e-06
-5.96916e-08
2.66578e-06
-5.35222e-08
2.66577e-06
-4.95807e-08
2.66372e-06
-4.72913e-08
2.66035e-06
-4.48502e-08
2.65663e-06
-4.20399e-08
2.65345e-06
-3.95287e-08
2.65096e-06
-3.76115e-08
2.6486e-06
-3.60227e-08
2.64566e-06
-3.43154e-08
2.64176e-06
-3.23273e-08
2.63702e-06
-3.01856e-08
-2.82393e-08
2.63205e-06
2.18729e-06
2.14107e-06
2.11583e-06
2.06922e-06
2.00813e-06
1.94844e-06
1.89492e-06
1.84534e-06
1.79804e-06
1.75319e-06
1.71115e-06
1.67163e-06
1.63401e-06
1.59799e-06
1.56368e-06
1.53135e-06
1.50116e-06
1.47292e-06
-2.40498e-08
2.40498e-08
4.58425e-08
-6.98923e-08
1.79595e-07
-1.33752e-07
3.42264e-07
-1.62669e-07
5.1426e-07
-1.71996e-07
6.86461e-07
-1.72201e-07
8.5527e-07
-1.68809e-07
1.01936e-06
-1.64086e-07
1.17801e-06
-1.58658e-07
1.33037e-06
-1.52355e-07
1.47504e-06
-1.44676e-07
1.61002e-06
-1.34974e-07
1.73266e-06
-1.22643e-07
1.83967e-06
-1.07011e-07
1.92725e-06
-8.75797e-08
1.99146e-06
-6.42074e-08
2.0287e-06
-3.72449e-08
2.0363e-06
-7.59863e-09
2.0104e-06
2.59063e-08
1.94923e-06
6.11713e-08
1.85182e-06
9.74059e-08
1.7193e-06
1.32521e-07
1.5536e-06
1.657e-07
1.35673e-06
1.96867e-07
1.13988e-06
2.16852e-07
8.98501e-07
2.41379e-07
6.66263e-07
2.32239e-07
4.60088e-07
2.06174e-07
2.98599e-07
1.61489e-07
2.59457e-07
3.9142e-08
2.92934e-07
-3.34767e-08
3.28478e-07
-3.55443e-08
4.6984e-07
-1.41361e-07
7.0479e-07
-2.34951e-07
8.32628e-07
-1.27838e-07
8.36854e-07
-4.22588e-09
7.39198e-07
9.76568e-08
4.27359e-07
3.11838e-07
-1.62819e-07
5.90179e-07
-8.28577e-07
6.65758e-07
-1.4149e-06
5.86319e-07
-1.93057e-06
5.15671e-07
-2.38951e-06
4.58945e-07
-2.79806e-06
4.08549e-07
-3.16424e-06
3.66178e-07
-3.49277e-06
3.28531e-07
-3.78768e-06
2.94909e-07
-4.0516e-06
2.63924e-07
-4.28634e-06
2.34738e-07
-4.49296e-06
2.06618e-07
-4.67197e-06
1.79014e-07
-4.82353e-06
1.51559e-07
-4.94758e-06
1.24046e-07
-5.04401e-06
9.64364e-08
-5.11284e-06
6.88268e-08
-5.1543e-06
4.14581e-08
-5.16908e-06
1.47815e-08
-5.15912e-06
-9.96297e-09
-5.12657e-06
-3.25447e-08
-5.07304e-06
-5.3531e-08
-5.00084e-06
-7.21967e-08
-4.91277e-06
-8.80732e-08
-4.81178e-06
-1.00995e-07
-4.70119e-06
-1.10584e-07
-4.58461e-06
-1.1658e-07
-4.46576e-06
-1.18849e-07
-4.34828e-06
-1.17478e-07
-4.23543e-06
-1.12856e-07
-4.12971e-06
-1.05714e-07
-4.03257e-06
-9.71448e-08
-3.94401e-06
-8.85624e-08
-3.8624e-06
-8.16059e-08
-3.78439e-06
-7.80072e-08
-3.70506e-06
-7.93389e-08
-3.61844e-06
-8.66165e-08
-3.51851e-06
-9.99291e-08
-3.40037e-06
-1.18137e-07
-3.26167e-06
-1.38703e-07
-3.10333e-06
-1.58343e-07
-2.92873e-06
-1.74597e-07
-2.74227e-06
-1.8646e-07
-2.54811e-06
-1.94157e-07
-2.34962e-06
-1.98487e-07
-2.14944e-06
-2.00188e-07
-1.94944e-06
-1.99999e-07
-1.75078e-06
-1.98657e-07
-1.55417e-06
-1.96608e-07
-1.36015e-06
-1.94026e-07
-1.16908e-06
-1.91067e-07
-9.81407e-07
-1.87672e-07
-7.97626e-07
-1.83781e-07
-6.18343e-07
-1.79283e-07
-4.44295e-07
-1.74048e-07
-2.76336e-07
-1.67959e-07
-1.15314e-07
-1.61022e-07
3.79088e-08
-1.53223e-07
1.82697e-07
-1.44788e-07
3.18302e-07
-1.35605e-07
4.44249e-07
-1.25947e-07
5.60299e-07
-1.1605e-07
6.66432e-07
-1.06133e-07
7.62823e-07
-9.63912e-08
8.49803e-07
-8.69801e-08
9.27816e-07
-7.80121e-08
9.97371e-07
-6.95559e-08
1.05901e-06
-6.16426e-08
1.11329e-06
-5.42748e-08
1.16072e-06
-4.74355e-08
1.20182e-06
-4.10992e-08
1.23706e-06
-3.52391e-08
1.26689e-06
-2.98313e-08
1.29175e-06
-2.48608e-08
1.31207e-06
-2.03178e-08
1.32827e-06
-1.61964e-08
1.34077e-06
-1.24966e-08
1.34997e-06
-9.20943e-09
1.3563e-06
-6.32462e-09
1.36012e-06
-3.82191e-09
1.36179e-06
-1.66482e-09
1.3616e-06
1.89639e-10
1.35984e-06
1.75623e-09
1.35674e-06
3.09963e-09
1.35254e-06
4.20513e-09
1.34743e-06
5.10538e-09
1.34158e-06
5.84784e-09
1.33512e-06
6.46154e-09
1.32818e-06
6.94448e-09
1.32088e-06
7.2985e-09
1.31335e-06
7.52737e-09
1.30571e-06
7.6387e-09
1.29807e-06
7.64349e-09
1.29051e-06
7.55614e-09
1.28312e-06
7.39328e-09
1.27595e-06
7.17204e-09
1.26904e-06
6.90867e-09
1.26242e-06
6.61876e-09
1.2561e-06
6.31827e-09
1.25008e-06
6.02222e-09
1.24434e-06
5.73926e-09
1.23887e-06
5.46983e-09
1.23366e-06
5.21261e-09
1.22868e-06
4.9724e-09
1.22392e-06
4.76025e-09
1.21934e-06
4.58456e-09
1.2149e-06
4.44454e-09
1.21056e-06
4.33511e-09
1.20632e-06
4.2418e-09
1.20215e-06
4.16357e-09
1.19806e-06
4.09716e-09
1.19402e-06
4.04269e-09
1.19001e-06
4.00049e-09
1.18604e-06
3.97155e-09
1.18208e-06
3.95849e-09
1.17812e-06
3.96404e-09
1.17413e-06
3.99031e-09
1.17009e-06
4.03852e-09
1.16598e-06
4.1083e-09
1.16179e-06
4.19816e-09
1.15748e-06
4.30854e-09
1.15304e-06
4.43894e-09
1.14844e-06
4.5943e-09
1.14367e-06
4.77574e-09
1.13867e-06
4.99818e-09
1.13341e-06
5.25756e-09
1.12782e-06
5.59053e-09
1.12185e-06
5.97268e-09
1.11535e-06
6.4978e-09
1.10828e-06
7.0738e-09
1.10033e-06
7.94845e-09
1.09151e-06
8.8201e-09
1.08113e-06
1.03736e-08
1.06947e-06
1.16612e-08
1.05482e-06
1.46491e-08
1.03843e-06
1.63913e-08
1.0157e-06
2.27288e-08
9.91243e-07
2.44615e-08
9.51658e-07
3.9585e-08
9.12823e-07
3.8835e-08
8.33755e-07
7.90681e-08
6.51933e-08
7.68562e-07
3.89674e-08
-1.49176e-08
1.60831e-07
-1.91756e-07
3.10461e-07
-2.83382e-07
4.64705e-07
-3.16912e-07
6.17419e-07
-3.2471e-07
7.68573e-07
-3.23355e-07
9.19066e-07
-3.19301e-07
1.06928e-06
-3.14302e-07
1.21885e-06
-3.08231e-07
1.36665e-06
-3.00146e-07
1.51073e-06
-2.88761e-07
1.64844e-06
-2.72688e-07
1.77647e-06
-2.50666e-07
1.89087e-06
-2.21413e-07
1.98745e-06
-1.84165e-07
2.06226e-06
-1.39008e-07
2.11149e-06
-8.64801e-08
2.13186e-06
-2.79672e-08
2.12363e-06
3.41361e-08
2.08839e-06
9.64101e-08
2.02625e-06
1.59545e-07
1.94045e-06
2.18319e-07
1.83329e-06
2.72861e-07
1.7071e-06
3.23063e-07
1.56997e-06
3.53978e-07
1.4336e-06
3.77748e-07
1.28913e-06
3.76706e-07
1.15547e-06
3.39834e-07
1.039e-06
2.77959e-07
9.10736e-07
1.6741e-07
9.62466e-07
-8.52072e-08
1.10785e-06
-1.80926e-07
1.01917e-06
-5.26874e-08
7.12248e-07
7.19755e-08
2.22831e-07
3.61579e-07
-4.87353e-07
7.05958e-07
-1.26884e-06
8.79145e-07
-1.93133e-06
9.74325e-07
-2.36692e-06
1.02577e-06
-2.70315e-06
1.00199e-06
-3.03866e-06
9.21823e-07
-3.35927e-06
8.36279e-07
-3.65478e-06
7.54462e-07
-3.92551e-06
6.79274e-07
-4.17205e-06
6.12722e-07
-4.39584e-06
5.52321e-07
-4.59814e-06
4.97208e-07
-4.77955e-06
4.45333e-07
-4.94031e-06
3.95494e-07
-5.08039e-06
3.46704e-07
-5.19954e-06
2.98163e-07
-5.29728e-06
2.49295e-07
-5.37318e-06
1.99943e-07
-5.427e-06
1.50265e-07
-5.4588e-06
1.00623e-07
-5.46889e-06
5.15433e-08
-5.45792e-06
3.81785e-09
-5.42617e-06
-4.17128e-08
-5.37416e-06
-8.45567e-08
-5.30363e-06
-1.24059e-07
-5.21649e-06
-1.59343e-07
-5.11496e-06
-1.89594e-07
-5.00194e-06
-2.14017e-07
-4.88058e-06
-2.31944e-07
-4.75433e-06
-2.42832e-07
-4.62678e-06
-2.46406e-07
-4.50147e-06
-2.42785e-07
-4.38166e-06
-2.32663e-07
-4.26992e-06
-2.1745e-07
-4.16773e-06
-1.9934e-07
-4.07504e-06
-1.81249e-07
-3.99006e-06
-1.66587e-07
-3.90908e-06
-1.58985e-07
-3.82659e-06
-1.61828e-07
-3.73583e-06
-1.77384e-07
-3.62991e-06
-2.05848e-07
-3.50338e-06
-2.44665e-07
-3.35373e-06
-2.88354e-07
-3.18253e-06
-3.29545e-07
-2.99455e-06
-3.62576e-07
-2.79533e-06
-3.85678e-07
-2.58954e-06
-3.99949e-07
-2.38049e-06
-4.07534e-07
-2.17064e-06
-4.10042e-07
-1.96172e-06
-4.08917e-07
-1.75468e-06
-4.05697e-07
-1.54992e-06
-4.01373e-07
-1.34774e-06
-3.96202e-07
-1.14841e-06
-3.90401e-07
-9.52237e-07
-3.83841e-07
-7.59663e-07
-3.76354e-07
-5.71241e-07
-3.67705e-07
-3.87716e-07
-3.57573e-07
-2.09893e-07
-3.45782e-07
-3.86602e-08
-3.32255e-07
1.2547e-07
-3.17352e-07
2.81304e-07
-3.00622e-07
4.28308e-07
-2.82609e-07
5.66058e-07
-2.63698e-07
6.94358e-07
-2.44349e-07
8.13236e-07
-2.25012e-07
9.22927e-07
-2.06082e-07
1.02382e-06
-1.87877e-07
1.11644e-06
-1.70624e-07
1.20134e-06
-1.54459e-07
1.27913e-06
-1.39438e-07
1.35041e-06
-1.25551e-07
1.41571e-06
-1.12738e-07
1.47553e-06
-1.00918e-07
1.53029e-06
-9.00006e-08
1.58037e-06
-7.99036e-08
1.62607e-06
-7.05665e-08
1.6677e-06
-6.19506e-08
1.70555e-06
-5.40373e-08
1.73987e-06
-4.68255e-08
1.77098e-06
-4.03182e-08
1.79918e-06
-3.45169e-08
1.82477e-06
-2.9417e-08
1.8481e-06
-2.49954e-08
1.86951e-06
-2.1221e-08
1.88932e-06
-1.80475e-08
1.90781e-06
-1.53948e-08
1.92521e-06
-1.3199e-08
1.94172e-06
-1.14015e-08
1.95749e-06
-9.91941e-09
1.97263e-06
-8.67986e-09
1.98721e-06
-7.63836e-09
2.00127e-06
-6.75913e-09
2.01481e-06
-6.0139e-09
2.02783e-06
-5.37835e-09
2.04031e-06
-4.83367e-09
2.05223e-06
-4.3655e-09
2.06358e-06
-3.96214e-09
2.07437e-06
-3.612e-09
2.08458e-06
-3.30382e-09
2.09423e-06
-3.02811e-09
2.10332e-06
-2.77372e-09
2.11187e-06
-2.52564e-09
2.11988e-06
-2.27092e-09
2.12735e-06
-2.00754e-09
2.13431e-06
-1.73992e-09
2.14074e-06
-1.46371e-09
2.14666e-06
-1.15833e-09
2.15205e-06
-7.99932e-10
2.15687e-06
-3.80563e-10
2.16112e-06
8.26042e-11
2.16481e-06
5.51243e-10
2.16794e-06
1.0326e-09
2.17052e-06
1.5168e-09
2.17257e-06
2.00192e-09
2.17408e-06
2.48693e-09
2.17508e-06
2.97298e-09
2.17557e-06
3.46266e-09
2.17558e-06
3.95729e-09
2.17511e-06
4.45686e-09
2.17419e-06
4.96217e-09
2.17283e-06
5.4721e-09
2.17104e-06
5.98611e-09
2.16884e-06
6.50708e-09
2.16624e-06
7.03663e-09
2.16325e-06
7.58338e-09
2.15988e-06
8.15088e-09
2.15611e-06
8.76421e-09
2.15195e-06
9.41733e-09
2.14737e-06
1.01746e-08
2.14235e-06
1.09939e-08
2.1368e-06
1.20441e-08
2.13072e-06
1.31567e-08
2.12388e-06
1.47844e-08
2.11634e-06
1.63622e-08
2.10757e-06
1.91396e-08
2.09786e-06
2.13726e-08
2.08595e-06
2.65585e-08
2.07279e-06
2.95505e-08
2.05536e-06
4.01599e-08
2.03622e-06
4.36064e-08
2.00856e-06
6.72463e-08
1.97773e-06
6.96608e-08
1.93097e-06
1.2583e-07
1.24971e-07
1.87119e-06
1.02548e-07
-1.17465e-07
2.48913e-07
-3.38122e-07
3.86713e-07
-4.21182e-07
5.14316e-07
-4.44515e-07
6.39933e-07
-4.50327e-07
7.69034e-07
-4.52456e-07
9.03726e-07
-4.53994e-07
1.04419e-06
-4.54762e-07
1.18942e-06
-4.53467e-07
1.33748e-06
-4.482e-07
1.48548e-06
-4.3676e-07
1.62955e-06
-4.16767e-07
1.76484e-06
-3.85951e-07
1.88565e-06
-3.42221e-07
1.98614e-06
-2.84662e-07
2.06092e-06
-2.13787e-07
2.10554e-06
-1.31099e-07
2.11741e-06
-3.98409e-08
2.09534e-06
5.62112e-08
2.03954e-06
1.5221e-07
1.95517e-06
2.43911e-07
1.8469e-06
3.26595e-07
1.72407e-06
3.95689e-07
1.59467e-06
4.52465e-07
1.45061e-06
4.98034e-07
1.30488e-06
5.23482e-07
1.15786e-06
5.23719e-07
1.01849e-06
4.79204e-07
8.81166e-07
4.15287e-07
8.1269e-07
2.35886e-07
6.80196e-07
4.72869e-08
3.69236e-07
1.30033e-07
-2.0273e-07
5.1928e-07
-9.76743e-07
8.45988e-07
-1.67478e-06
1.05962e-06
-2.18926e-06
1.22043e-06
-2.60284e-06
1.29273e-06
-2.93062e-06
1.30211e-06
-3.16407e-06
1.25922e-06
-3.34445e-06
1.18237e-06
-3.52362e-06
1.10099e-06
-3.70725e-06
1.01991e-06
-3.89597e-06
9.43185e-07
-4.08646e-06
8.69763e-07
-4.2746e-06
8.0086e-07
-4.45693e-06
7.34646e-07
-4.62995e-06
6.70228e-07
-4.79057e-06
6.0596e-07
-4.93598e-06
5.40901e-07
-5.06357e-06
4.74292e-07
-5.17122e-06
4.05818e-07
-5.25743e-06
3.35501e-07
-5.32117e-06
2.63687e-07
-5.36191e-06
1.91007e-07
-5.37959e-06
1.18297e-07
-5.37448e-06
4.6432e-08
-5.34762e-06
-2.30339e-08
-5.30182e-06
-8.75143e-08
-5.23838e-06
-1.47995e-07
-5.15938e-06
-2.03061e-07
-5.06713e-06
-2.516e-07
-4.96402e-06
-2.92699e-07
-4.85251e-06
-3.25527e-07
-4.7351e-06
-3.49358e-07
-4.61437e-06
-3.63555e-07
-4.49309e-06
-3.67687e-07
-4.37418e-06
-3.61701e-07
-4.26064e-06
-3.46202e-07
-4.1553e-06
-3.22786e-07
-4.0603e-06
-2.94339e-07
-3.97638e-06
-2.65173e-07
-3.90214e-06
-2.40827e-07
-3.83362e-06
-2.27505e-07
-3.76415e-06
-2.31297e-07
-3.68512e-06
-2.56413e-07
-3.58786e-06
-3.03108e-07
-3.46585e-06
-3.66681e-07
-3.31667e-06
-4.37529e-07
-3.14287e-06
-5.03347e-07
-2.95113e-06
-5.54318e-07
-2.74889e-06
-5.87912e-07
-2.54141e-06
-6.07436e-07
-2.33148e-06
-6.17463e-07
-2.12107e-06
-6.20454e-07
-1.9118e-06
-6.18185e-07
-1.70464e-06
-6.12851e-07
-1.49992e-06
-6.06098e-07
-1.29782e-06
-5.98296e-07
-1.09862e-06
-5.89604e-07
-9.02627e-07
-5.79834e-07
-7.10332e-07
-5.68649e-07
-5.22288e-07
-5.55749e-07
-3.39261e-07
-5.406e-07
-1.62022e-07
-5.23021e-07
8.43596e-09
-5.02713e-07
1.71336e-07
-4.80252e-07
3.25655e-07
-4.54942e-07
4.70742e-07
-4.27696e-07
6.0618e-07
-3.99136e-07
7.31804e-07
-3.69973e-07
8.47689e-07
-3.40898e-07
9.54122e-07
-3.12515e-07
1.05154e-06
-2.85299e-07
1.14051e-06
-2.59588e-07
1.22164e-06
-2.35591e-07
1.29562e-06
-2.13414e-07
1.36314e-06
-1.93071e-07
1.4249e-06
-1.74507e-07
1.4816e-06
-1.5761e-07
1.53383e-06
-1.42231e-07
1.58212e-06
-1.28199e-07
1.6269e-06
-1.15347e-07
1.66849e-06
-1.03536e-07
1.70712e-06
-9.26681e-08
1.74299e-06
-8.26946e-08
1.77627e-06
-7.36058e-08
1.80717e-06
-6.54147e-08
1.8359e-06
-5.81421e-08
1.8627e-06
-5.17955e-08
1.88784e-06
-4.63591e-08
1.91159e-06
-4.17971e-08
1.93423e-06
-3.80369e-08
1.95601e-06
-3.49805e-08
1.97713e-06
-3.25217e-08
1.99775e-06
-3.0543e-08
2.018e-06
-2.89244e-08
2.03792e-06
-2.7564e-08
2.05755e-06
-2.63846e-08
2.07686e-06
-2.53273e-08
2.09583e-06
-2.43441e-08
2.1144e-06
-2.34048e-08
2.13252e-06
-2.24918e-08
2.15016e-06
-2.15983e-08
2.16727e-06
-2.07218e-08
2.18383e-06
-1.98622e-08
2.19982e-06
-1.90192e-08
2.21523e-06
-1.81885e-08
2.23007e-06
-1.73607e-08
2.24433e-06
-1.65277e-08
2.25801e-06
-1.56879e-08
2.27111e-06
-1.48385e-08
2.28361e-06
-1.39677e-08
2.29551e-06
-1.30581e-08
2.30681e-06
-1.21001e-08
2.31753e-06
-1.10964e-08
2.32766e-06
-1.00516e-08
2.33719e-06
-8.9774e-09
2.34609e-06
-7.87314e-09
2.35436e-06
-6.74746e-09
2.36197e-06
-5.60654e-09
2.36891e-06
-4.45451e-09
2.37517e-06
-3.29097e-09
2.38075e-06
-2.11285e-09
2.38563e-06
-9.23009e-10
2.38981e-06
2.75579e-10
2.3933e-06
1.468e-09
2.39613e-06
2.64644e-09
2.39831e-06
3.80874e-09
2.39986e-06
4.95832e-09
2.4008e-06
6.09531e-09
2.40115e-06
7.23167e-09
2.40093e-06
8.36597e-09
2.40016e-06
9.53528e-09
2.39886e-06
1.07228e-08
2.39701e-06
1.20189e-08
2.39465e-06
1.33567e-08
2.39173e-06
1.49591e-08
2.38829e-06
1.66055e-08
2.38421e-06
1.88555e-08
2.37953e-06
2.10429e-08
2.37407e-06
2.46021e-08
2.3678e-06
2.76393e-08
2.36049e-06
3.38759e-08
2.35189e-06
3.81498e-08
2.34196e-06
5.00862e-08
2.32948e-06
5.60899e-08
2.31606e-06
8.0667e-08
2.29635e-06
8.93661e-08
2.27993e-06
1.42249e-07
1.59122e-07
2.24578e-06
1.3539e-07
-2.52855e-07
2.73911e-07
-4.76643e-07
3.8928e-07
-5.36551e-07
4.98335e-07
-5.53571e-07
6.12217e-07
-5.64209e-07
7.34766e-07
-5.75005e-07
8.66992e-07
-5.8622e-07
1.00876e-06
-5.96527e-07
1.15882e-06
-6.03527e-07
1.31474e-06
-6.04127e-07
1.47276e-06
-5.9478e-07
1.62759e-06
-5.71593e-07
1.77235e-06
-5.30707e-07
1.89935e-06
-4.6922e-07
2.00111e-06
-3.86422e-07
2.07106e-06
-2.83738e-07
2.10432e-06
-1.64364e-07
2.098e-06
-3.35177e-08
2.04973e-06
1.04483e-07
1.96126e-06
2.4068e-07
1.83849e-06
3.6668e-07
1.68763e-06
4.77455e-07
1.51289e-06
5.70429e-07
1.32451e-06
6.40844e-07
1.13928e-06
6.83261e-07
9.63227e-07
6.99538e-07
7.95182e-07
6.91764e-07
6.13906e-07
6.6048e-07
4.88889e-07
5.40304e-07
2.91998e-07
4.32777e-07
-2.77147e-07
6.16431e-07
-1.05133e-06
9.0422e-07
-1.68961e-06
1.15755e-06
-2.2061e-06
1.36248e-06
-2.62784e-06
1.48136e-06
-2.92827e-06
1.52087e-06
-3.13926e-06
1.50372e-06
-3.29631e-06
1.45916e-06
-3.43003e-06
1.39293e-06
-3.5639e-06
1.31625e-06
-3.70207e-06
1.23916e-06
-3.84705e-06
1.16489e-06
-3.99805e-06
1.09419e-06
-4.15298e-06
1.02468e-06
-4.3076e-06
9.55479e-07
-4.45762e-06
8.84666e-07
-4.59866e-06
8.1127e-07
-4.72687e-06
7.34175e-07
-4.83889e-06
6.52917e-07
-4.93198e-06
5.67382e-07
-5.00408e-06
4.77916e-07
-5.05389e-06
3.85316e-07
-5.08105e-06
2.90848e-07
-5.08609e-06
1.96041e-07
-5.06998e-06
1.02187e-07
-5.03339e-06
9.84578e-09
-4.98123e-06
-7.51982e-08
-4.9135e-06
-1.55241e-07
-4.8332e-06
-2.28292e-07
-4.74354e-06
-2.92727e-07
-4.64758e-06
-3.4756e-07
-4.54805e-06
-3.92223e-07
-4.44718e-06
-4.26402e-07
-4.34672e-06
-4.49812e-07
-4.24802e-06
-4.62254e-07
-4.15211e-06
-4.63603e-07
-4.05987e-06
-4.53939e-07
-3.97229e-06
-4.33782e-07
-3.89058e-06
-4.04501e-07
-3.81606e-06
-3.68858e-07
-3.74964e-06
-3.31593e-07
-3.69074e-06
-2.99729e-07
-3.63633e-06
-2.81911e-07
-3.58016e-06
-2.87468e-07
-3.51336e-06
-3.23214e-07
-3.42697e-06
-3.89493e-07
-3.31474e-06
-4.7891e-07
-3.17501e-06
-5.77258e-07
-3.01132e-06
-6.67038e-07
-2.83137e-06
-7.3427e-07
-2.64333e-06
-7.75956e-07
-2.45158e-06
-7.9918e-07
-2.25642e-06
-8.12627e-07
-2.05759e-06
-8.19283e-07
-1.85594e-06
-8.19832e-07
-1.65289e-06
-8.15905e-07
-1.44963e-06
-8.09357e-07
-1.2471e-06
-8.00831e-07
-1.04621e-06
-7.90493e-07
-8.47713e-07
-7.78328e-07
-6.52475e-07
-7.63886e-07
-4.61286e-07
-7.46939e-07
-2.75083e-07
-7.26803e-07
-9.49363e-08
-7.03168e-07
7.8149e-08
-6.75798e-07
2.42675e-07
-6.44778e-07
3.97967e-07
-6.10233e-07
5.43304e-07
-5.73033e-07
6.78338e-07
-5.3417e-07
8.0304e-07
-4.94675e-07
9.17654e-07
-4.55512e-07
1.02263e-06
-4.17492e-07
1.11855e-06
-3.81214e-07
1.206e-06
-3.4704e-07
1.28555e-06
-3.15139e-07
1.35767e-06
-2.85538e-07
1.4228e-06
-2.58204e-07
1.48139e-06
-2.3309e-07
1.53393e-06
-2.10158e-07
1.58108e-06
-1.89375e-07
1.62356e-06
-1.70683e-07
1.66218e-06
-1.53966e-07
1.69769e-06
-1.39046e-07
1.73072e-06
-1.25696e-07
1.76172e-06
-1.13696e-07
1.79099e-06
-1.02872e-07
1.8187e-06
-9.31232e-08
1.84497e-06
-8.44117e-08
1.86991e-06
-7.67398e-08
1.89367e-06
-7.0115e-08
1.91639e-06
-6.45266e-08
1.93828e-06
-5.99239e-08
1.95951e-06
-5.62115e-08
1.98025e-06
-5.32628e-08
2.00064e-06
-5.09287e-08
2.02077e-06
-4.90509e-08
2.04069e-06
-4.74829e-08
2.0604e-06
-4.61037e-08
2.0799e-06
-4.48191e-08
2.09911e-06
-4.35626e-08
2.11801e-06