/*--------------------------------*- C++ -*----------------------------------*\
  =========                 |
  \\      /  F ield         | OpenFOAM: The Open Source CFD Toolbox
   \\    /   O peration     | Website:  https://openfoam.org
    \\  /    A nd           | Version:  7
     \\/     M anipulation  |
\*---------------------------------------------------------------------------*/
FoamFile
{
    version     2.0;
    format      ascii;
    class       volScalarField;
    location    "0.049";
    object      pPrime2Mean;
}
// * * * * * * * * * * * * * * * * * * * * * * * * * * * * * * * * * * * * * //

dimensions      [0 4 -4 0 0 0 0];

internalField   nonuniform List<scalar> 
12225
(
7.29058e+06
7.17441e+06
7.05446e+06
6.93878e+06
6.82766e+06
6.72077e+06
6.61781e+06
6.51846e+06
6.42242e+06
6.32932e+06
6.2388e+06
6.15042e+06
6.06367e+06
5.97789e+06
5.89218e+06
5.80515e+06
5.71435e+06
5.61363e+06
7.29067e+06
7.17446e+06
7.05452e+06
6.93883e+06
6.82772e+06
6.72085e+06
6.61789e+06
6.51857e+06
6.42254e+06
6.32948e+06
6.239e+06
6.15068e+06
6.06402e+06
5.97838e+06
5.89292e+06
5.80633e+06
5.71658e+06
5.61868e+06
7.29084e+06
7.17458e+06
7.05463e+06
6.93896e+06
6.82787e+06
6.72101e+06
6.61809e+06
6.5188e+06
6.42283e+06
6.32984e+06
6.23945e+06
6.15127e+06
6.0648e+06
5.97947e+06
5.8945e+06
5.80886e+06
5.72104e+06
5.62916e+06
7.29103e+06
7.17476e+06
7.05482e+06
6.93917e+06
6.8281e+06
6.72128e+06
6.61841e+06
6.51919e+06
6.42331e+06
6.33043e+06
6.2402e+06
6.15223e+06
6.06608e+06
5.98123e+06
5.89704e+06
5.81277e+06
5.72764e+06
5.6417e+06
7.29125e+06
7.17502e+06
7.05511e+06
6.93948e+06
6.82845e+06
6.72168e+06
6.61889e+06
6.51976e+06
6.424e+06
6.33129e+06
6.24129e+06
6.15363e+06
6.06793e+06
5.98374e+06
5.90059e+06
5.81804e+06
5.73593e+06
5.65527e+06
7.29159e+06
7.17539e+06
7.0555e+06
6.93991e+06
6.82893e+06
6.72224e+06
6.61954e+06
6.52054e+06
6.42496e+06
6.33247e+06
6.24277e+06
6.15553e+06
6.07041e+06
5.98706e+06
5.90517e+06
5.82459e+06
5.74554e+06
5.66933e+06
7.29203e+06
7.17587e+06
7.05602e+06
6.94047e+06
6.82957e+06
6.72297e+06
6.6204e+06
6.52158e+06
6.42621e+06
6.33402e+06
6.2447e+06
6.15798e+06
6.07357e+06
5.99122e+06
5.91077e+06
5.83226e+06
5.75614e+06
5.68364e+06
7.29259e+06
7.1765e+06
7.05668e+06
6.9412e+06
6.83038e+06
6.72391e+06
6.6215e+06
6.52289e+06
6.4278e+06
6.33597e+06
6.24713e+06
6.16103e+06
6.07745e+06
5.99624e+06
5.91734e+06
5.84092e+06
5.7675e+06
5.69809e+06
7.29338e+06
7.1773e+06
7.05753e+06
6.94211e+06
6.8314e+06
6.72508e+06
6.62288e+06
6.52453e+06
6.42977e+06
6.33837e+06
6.25008e+06
6.16471e+06
6.08208e+06
6.0021e+06
5.92481e+06
5.85043e+06
5.77944e+06
5.71261e+06
7.29432e+06
7.1783e+06
7.05857e+06
6.94324e+06
6.83266e+06
6.72652e+06
6.62456e+06
6.52652e+06
6.43216e+06
6.34126e+06
6.25361e+06
6.16905e+06
6.08744e+06
6.00877e+06
5.93309e+06
5.86065e+06
5.79182e+06
5.72717e+06
7.2957e+06
7.17955e+06
7.05984e+06
6.94461e+06
6.83418e+06
6.72825e+06
6.62657e+06
6.5289e+06
6.435e+06
6.34467e+06
6.25773e+06
6.17405e+06
6.09354e+06
6.01619e+06
5.9421e+06
5.87145e+06
5.80455e+06
5.74175e+06
7.29695e+06
7.18091e+06
7.06124e+06
6.9461e+06
6.83584e+06
6.73014e+06
6.62876e+06
6.53146e+06
6.43803e+06
6.34829e+06
6.26207e+06
6.17925e+06
6.09977e+06
6.02364e+06
5.95094e+06
5.88181e+06
5.81646e+06
5.75512e+06
7.2987e+06
7.1825e+06
7.06285e+06
6.94781e+06
6.83773e+06
6.73228e+06
6.63123e+06
6.53434e+06
6.44143e+06
6.3523e+06
6.26683e+06
6.1849e+06
6.10646e+06
6.03151e+06
5.96012e+06
5.89238e+06
5.82842e+06
5.76836e+06
7.30097e+06
7.18461e+06
7.06497e+06
6.95007e+06
6.84021e+06
6.73509e+06
6.63445e+06
6.53809e+06
6.4458e+06
6.35743e+06
6.27284e+06
6.19194e+06
6.11468e+06
6.04104e+06
5.97104e+06
5.90474e+06
5.84219e+06
5.7834e+06
7.30394e+06
7.18739e+06
7.06777e+06
6.95304e+06
6.84347e+06
6.73875e+06
6.63863e+06
6.5429e+06
6.45138e+06
6.3639e+06
6.28035e+06
6.20061e+06
6.12464e+06
6.05239e+06
5.98384e+06
5.919e+06
5.85782e+06
5.80028e+06
7.30759e+06
7.19096e+06
7.07141e+06
6.9569e+06
6.8477e+06
6.74348e+06
6.64399e+06
6.54902e+06
6.45839e+06
6.37194e+06
6.28954e+06
6.21108e+06
6.13648e+06
6.06566e+06
5.99857e+06
5.93514e+06
5.87529e+06
5.81894e+06
7.31218e+06
7.19546e+06
7.07602e+06
6.96181e+06
6.85306e+06
6.74944e+06
6.6507e+06
6.55661e+06
6.46699e+06
6.38167e+06
6.30052e+06
6.2234e+06
6.15019e+06
6.08079e+06
6.0151e+06
5.95302e+06
5.89441e+06
5.83916e+06
7.31755e+06
7.20091e+06
7.0817e+06
6.96787e+06
6.85966e+06
6.75674e+06
6.65883e+06
6.56571e+06
6.47718e+06
6.39306e+06
6.31318e+06
6.23739e+06
6.16555e+06
6.0975e+06
6.03312e+06
5.97227e+06
5.91479e+06
5.86054e+06
7.32389e+06
7.20731e+06
7.08837e+06
6.97498e+06
6.86738e+06
6.76522e+06
6.66821e+06
6.5761e+06
6.48868e+06
6.40574e+06
6.3271e+06
6.25256e+06
6.18197e+06
6.11516e+06
6.05194e+06
5.99217e+06
5.93568e+06
5.8823e+06
7.3293e+06
7.21272e+06
7.09398e+06
6.98098e+06
6.87388e+06
6.77233e+06
6.676e+06
6.58465e+06
6.49804e+06
6.41595e+06
6.33818e+06
6.26451e+06
6.19477e+06
6.12877e+06
6.06632e+06
6.00726e+06
5.9514e+06
5.89859e+06
7.33252e+06
7.21626e+06
7.09778e+06
6.98507e+06
6.87834e+06
6.77719e+06
6.68132e+06
6.59046e+06
6.50437e+06
6.42281e+06
6.34557e+06
6.27244e+06
6.20322e+06
6.1377e+06
6.07572e+06
6.01707e+06
5.9616e+06
5.90912e+06
7.33511e+06
7.21883e+06
7.10053e+06
6.98806e+06
6.88161e+06
6.78077e+06
6.68523e+06
6.59473e+06
6.509e+06
6.42781e+06
6.35094e+06
6.27817e+06
6.20929e+06
6.14411e+06
6.08243e+06
6.02407e+06
5.96885e+06
5.91659e+06
7.33631e+06
7.22049e+06
7.10244e+06
6.9902e+06
6.88397e+06
6.78335e+06
6.68806e+06
6.5978e+06
6.51232e+06
6.4314e+06
6.35478e+06
6.28226e+06
6.21362e+06
6.14867e+06
6.0872e+06
6.02902e+06
5.97397e+06
5.92187e+06
7.33732e+06
7.22163e+06
7.10376e+06
6.99169e+06
6.88562e+06
6.78518e+06
6.69005e+06
6.59997e+06
6.51468e+06
6.43392e+06
6.35748e+06
6.28513e+06
6.21666e+06
6.15185e+06
6.09053e+06
6.03249e+06
5.97755e+06
5.92554e+06
7.33793e+06
7.22235e+06
7.10465e+06
6.99271e+06
6.88677e+06
6.78644e+06
6.69144e+06
6.60147e+06
6.5163e+06
6.43567e+06
6.35935e+06
6.28711e+06
6.21875e+06
6.15405e+06
6.09282e+06
6.03486e+06
5.98e+06
5.92807e+06
7.33794e+06
7.22276e+06
7.10522e+06
6.99339e+06
6.88753e+06
6.78729e+06
6.69237e+06
6.60249e+06
6.51739e+06
6.43685e+06
6.3606e+06
6.28844e+06
6.22015e+06
6.15552e+06
6.09435e+06
6.03645e+06
5.98164e+06
5.92975e+06
7.33795e+06
7.223e+06
7.10558e+06
6.99382e+06
6.88803e+06
6.78784e+06
6.69297e+06
6.60314e+06
6.5181e+06
6.4376e+06
6.36141e+06
6.2893e+06
6.22106e+06
6.15647e+06
6.09534e+06
6.03748e+06
5.9827e+06
5.93084e+06
7.33803e+06
7.22315e+06
7.10579e+06
6.99408e+06
6.88833e+06
6.78817e+06
6.69333e+06
6.60354e+06
6.51853e+06
6.43806e+06
6.3619e+06
6.28982e+06
6.2216e+06
6.15704e+06
6.09594e+06
6.0381e+06
5.98334e+06
5.9315e+06
7.33808e+06
7.22323e+06
7.10591e+06
6.99423e+06
6.88849e+06
6.78835e+06
6.69353e+06
6.60375e+06
6.51876e+06
6.43831e+06
6.36217e+06
6.2901e+06
6.2219e+06
6.15735e+06
6.09626e+06
6.03843e+06
5.98369e+06
5.93185e+06
7.3381e+06
7.22327e+06
7.10595e+06
6.99428e+06
6.88855e+06
6.78842e+06
6.69361e+06
6.60384e+06
6.51885e+06
6.43841e+06
6.36227e+06
6.29022e+06
6.22202e+06
6.15748e+06
6.09639e+06
6.03857e+06
5.98383e+06
5.93199e+06
4.74334e+06
4.74296e+06
4.7422e+06
4.74105e+06
4.73949e+06
4.73753e+06
4.73515e+06
4.73236e+06
4.72914e+06
4.72548e+06
4.7214e+06
4.71687e+06
4.7119e+06
4.70648e+06
4.70062e+06
4.69431e+06
4.68755e+06
4.68033e+06
4.67267e+06
4.66455e+06
4.65599e+06
4.64697e+06
4.63751e+06
4.62761e+06
4.61727e+06
4.60649e+06
4.59527e+06
4.58363e+06
4.57156e+06
4.55907e+06
4.54616e+06
4.53285e+06
4.51912e+06
4.505e+06
4.49049e+06
4.47558e+06
4.4603e+06
4.44463e+06
4.4286e+06
4.4122e+06
4.39545e+06
4.37834e+06
4.36089e+06
4.3431e+06
4.32497e+06
4.30652e+06
4.28774e+06
4.26865e+06
4.24925e+06
4.22955e+06
4.20955e+06
4.18926e+06
4.16869e+06
4.14783e+06
4.1267e+06
4.1053e+06
4.08363e+06
4.06171e+06
4.03954e+06
4.01711e+06
3.99445e+06
3.97155e+06
3.94842e+06
3.92505e+06
3.90147e+06
3.87767e+06
3.85365e+06
3.82943e+06
3.805e+06
3.78037e+06
3.75554e+06
3.73052e+06
3.70531e+06
3.67992e+06
3.65435e+06
3.6286e+06
3.60267e+06
3.57658e+06
3.55032e+06
3.5239e+06
3.49731e+06
3.47057e+06
3.44368e+06
3.41664e+06
3.38945e+06
3.36212e+06
3.33465e+06
3.30704e+06
3.2793e+06
3.25142e+06
3.22342e+06
3.19529e+06
3.16704e+06
3.13867e+06
3.11018e+06
3.08158e+06
3.05286e+06
3.02404e+06
2.99511e+06
2.96608e+06
2.93694e+06
2.90771e+06
2.87838e+06
2.84896e+06
2.81945e+06
2.78985e+06
2.76016e+06
2.7304e+06
2.70055e+06
2.67063e+06
2.64064e+06
2.61057e+06
2.58043e+06
2.55023e+06
2.51997e+06
2.48965e+06
2.45927e+06
2.42884e+06
2.39836e+06
2.36783e+06
2.33725e+06
2.30664e+06
2.27598e+06
2.2453e+06
2.21458e+06
2.18383e+06
2.15305e+06
2.12226e+06
2.09145e+06
2.06062e+06
2.02979e+06
1.99894e+06
1.9681e+06
1.93725e+06
1.90641e+06
1.87558e+06
1.84476e+06
1.81396e+06
1.78318e+06
1.75243e+06
1.72171e+06
1.69102e+06
1.66038e+06
1.62978e+06
1.59922e+06
1.56873e+06
1.53829e+06
1.50792e+06
1.47761e+06
1.44738e+06
1.41724e+06
1.38717e+06
1.35721e+06
1.32733e+06
1.29757e+06
1.26791e+06
1.23837e+06
1.20895e+06
1.17967e+06
1.15052e+06
1.12151e+06
1.09265e+06
1.06395e+06
1.03542e+06
1.00706e+06
978884
950898
923112
895536
868180
841057
814178
787558
761215
735168
709444
684077
659118
634657
610884
4.74505e+06
4.74467e+06
4.74391e+06
4.74274e+06
4.74118e+06
4.73921e+06
4.73682e+06
4.734e+06
4.73076e+06
4.72709e+06
4.72298e+06
4.71843e+06
4.71343e+06
4.70799e+06
4.7021e+06
4.69576e+06
4.68896e+06
4.68171e+06
4.67402e+06
4.66587e+06
4.65726e+06
4.64822e+06
4.63872e+06
4.62878e+06
4.6184e+06
4.60758e+06
4.59633e+06
4.58465e+06
4.57255e+06
4.56002e+06
4.54708e+06
4.53373e+06
4.51997e+06
4.50582e+06
4.49127e+06
4.47633e+06
4.46101e+06
4.44532e+06
4.42926e+06
4.41283e+06
4.39605e+06
4.37891e+06
4.36143e+06
4.34362e+06
4.32547e+06
4.30699e+06
4.28819e+06
4.26908e+06
4.24966e+06
4.22994e+06
4.20992e+06
4.18961e+06
4.16902e+06
4.14814e+06
4.12699e+06
4.10558e+06
4.0839e+06
4.06196e+06
4.03977e+06
4.01734e+06
3.99466e+06
3.97175e+06
3.9486e+06
3.92523e+06
3.90164e+06
3.87783e+06
3.8538e+06
3.82957e+06
3.80513e+06
3.78049e+06
3.75566e+06
3.73063e+06
3.70542e+06
3.68002e+06
3.65444e+06
3.62868e+06
3.60275e+06
3.57665e+06
3.55039e+06
3.52396e+06
3.49737e+06
3.47063e+06
3.44374e+06
3.41669e+06
3.3895e+06
3.36217e+06
3.33469e+06
3.30708e+06
3.27933e+06
3.25146e+06
3.22345e+06
3.19532e+06
3.16707e+06
3.13869e+06
3.1102e+06
3.0816e+06
3.05288e+06
3.02406e+06
2.99513e+06
2.96609e+06
2.93696e+06
2.90772e+06
2.87839e+06
2.84897e+06
2.81946e+06
2.78986e+06
2.76017e+06
2.73041e+06
2.70056e+06
2.67064e+06
2.64064e+06
2.61058e+06
2.58044e+06
2.55024e+06
2.51998e+06
2.48965e+06
2.45928e+06
2.42884e+06
2.39836e+06
2.36783e+06
2.33726e+06
2.30664e+06
2.27599e+06
2.2453e+06
2.21458e+06
2.18383e+06
2.15306e+06
2.12226e+06
2.09145e+06
2.06062e+06
2.02979e+06
1.99894e+06
1.9681e+06
1.93725e+06
1.90641e+06
1.87558e+06
1.84476e+06
1.81396e+06
1.78318e+06
1.75243e+06
1.72171e+06
1.69102e+06
1.66038e+06
1.62978e+06
1.59922e+06
1.56873e+06
1.53829e+06
1.50792e+06
1.47761e+06
1.44738e+06
1.41724e+06
1.38717e+06
1.35721e+06
1.32733e+06
1.29757e+06
1.26791e+06
1.23837e+06
1.20895e+06
1.17967e+06
1.15052e+06
1.12151e+06
1.09265e+06
1.06395e+06
1.03542e+06
1.00706e+06
978882
950896
923109
895533
868176
841052
814172
787550
761204
735154
709424
684047
659072
634575
610690
4.74849e+06
4.74811e+06
4.74733e+06
4.74615e+06
4.74457e+06
4.74257e+06
4.74015e+06
4.7373e+06
4.73402e+06
4.73031e+06
4.72615e+06
4.72155e+06
4.7165e+06
4.71101e+06
4.70506e+06
4.69865e+06
4.69179e+06
4.68448e+06
4.67671e+06
4.66849e+06
4.65982e+06
4.6507e+06
4.64113e+06
4.63112e+06
4.62067e+06
4.60977e+06
4.59845e+06
4.5867e+06
4.57452e+06
4.56192e+06
4.54891e+06
4.53549e+06
4.52166e+06
4.50744e+06
4.49283e+06
4.47783e+06
4.46245e+06
4.44669e+06
4.43057e+06
4.41409e+06
4.39725e+06
4.38006e+06
4.36253e+06
4.34466e+06
4.32646e+06
4.30794e+06
4.28909e+06
4.26994e+06
4.25048e+06
4.23071e+06
4.21066e+06
4.19031e+06
4.16968e+06
4.14877e+06
4.12759e+06
4.10614e+06
4.08443e+06
4.06247e+06
4.04025e+06
4.01779e+06
3.99509e+06
3.97215e+06
3.94898e+06
3.92559e+06
3.90198e+06
3.87814e+06
3.8541e+06
3.82985e+06
3.8054e+06
3.78074e+06
3.75589e+06
3.73085e+06
3.70562e+06
3.68021e+06
3.65462e+06
3.62885e+06
3.60291e+06
3.57681e+06
3.55053e+06
3.52409e+06
3.4975e+06
3.47075e+06
3.44384e+06
3.41679e+06
3.38959e+06
3.36225e+06
3.33477e+06
3.30716e+06
3.27941e+06
3.25152e+06
3.22351e+06
3.19538e+06
3.16712e+06
3.13874e+06
3.11025e+06
3.08164e+06
3.05292e+06
3.02409e+06
2.99516e+06
2.96612e+06
2.93698e+06
2.90775e+06
2.87842e+06
2.84899e+06
2.81948e+06
2.78988e+06
2.76019e+06
2.73042e+06
2.70058e+06
2.67065e+06
2.64065e+06
2.61059e+06
2.58045e+06
2.55025e+06
2.51999e+06
2.48966e+06
2.45928e+06
2.42885e+06
2.39837e+06
2.36784e+06
2.33726e+06
2.30664e+06
2.27599e+06
2.2453e+06
2.21458e+06
2.18383e+06
2.15306e+06
2.12226e+06
2.09145e+06
2.06063e+06
2.02979e+06
1.99894e+06
1.9681e+06
1.93725e+06
1.90641e+06
1.87558e+06
1.84476e+06
1.81396e+06
1.78319e+06
1.75243e+06
1.72171e+06
1.69103e+06
1.66038e+06
1.62978e+06
1.59923e+06
1.56873e+06
1.53829e+06
1.50792e+06
1.47761e+06
1.44738e+06
1.41724e+06
1.38717e+06
1.35721e+06
1.32733e+06
1.29757e+06
1.26791e+06
1.23837e+06
1.20895e+06
1.17967e+06
1.15051e+06
1.12151e+06
1.09265e+06
1.06395e+06
1.03542e+06
1.00706e+06
978880
950892
923105
895527
868169
841042
814160
787534
761183
735125
709384
683990
658984
634425
610386
4.75368e+06
4.75328e+06
4.75249e+06
4.75128e+06
4.74967e+06
4.74763e+06
4.74517e+06
4.74227e+06
4.73893e+06
4.73516e+06
4.73093e+06
4.72626e+06
4.72113e+06
4.71554e+06
4.70951e+06
4.70301e+06
4.69605e+06
4.68864e+06
4.68077e+06
4.67244e+06
4.66366e+06
4.65443e+06
4.64475e+06
4.63463e+06
4.62406e+06
4.61306e+06
4.60162e+06
4.58976e+06
4.57747e+06
4.56477e+06
4.55165e+06
4.53812e+06
4.5242e+06
4.50987e+06
4.49516e+06
4.48006e+06
4.46459e+06
4.44874e+06
4.43253e+06
4.41596e+06
4.39904e+06
4.38177e+06
4.36416e+06
4.34621e+06
4.32794e+06
4.30935e+06
4.29044e+06
4.27122e+06
4.25169e+06
4.23187e+06
4.21175e+06
4.19135e+06
4.17066e+06
4.1497e+06
4.12847e+06
4.10698e+06
4.08523e+06
4.06322e+06
4.04096e+06
4.01846e+06
3.99572e+06
3.97275e+06
3.94955e+06
3.92612e+06
3.90248e+06
3.87862e+06
3.85455e+06
3.83027e+06
3.80579e+06
3.78111e+06
3.75624e+06
3.73118e+06
3.70593e+06
3.6805e+06
3.65489e+06
3.62911e+06
3.60315e+06
3.57703e+06
3.55074e+06
3.52429e+06
3.49768e+06
3.47092e+06
3.44401e+06
3.41694e+06
3.38974e+06
3.36239e+06
3.3349e+06
3.30727e+06
3.27951e+06
3.25162e+06
3.22361e+06
3.19546e+06
3.1672e+06
3.13882e+06
3.11032e+06
3.08171e+06
3.05298e+06
3.02415e+06
2.99521e+06
2.96617e+06
2.93703e+06
2.90779e+06
2.87845e+06
2.84903e+06
2.81951e+06
2.78991e+06
2.76022e+06
2.73045e+06
2.7006e+06
2.67067e+06
2.64067e+06
2.6106e+06
2.58047e+06
2.55026e+06
2.52e+06
2.48967e+06
2.45929e+06
2.42886e+06
2.39838e+06
2.36784e+06
2.33727e+06
2.30665e+06
2.276e+06
2.24531e+06
2.21459e+06
2.18384e+06
2.15306e+06
2.12227e+06
2.09145e+06
2.06063e+06
2.02979e+06
1.99895e+06
1.9681e+06
1.93725e+06
1.90641e+06
1.87558e+06
1.84477e+06
1.81396e+06
1.78319e+06
1.75243e+06
1.72171e+06
1.69103e+06
1.66038e+06
1.62978e+06
1.59923e+06
1.56873e+06
1.53829e+06
1.50792e+06
1.47761e+06
1.44738e+06
1.41724e+06
1.38717e+06
1.35721e+06
1.32733e+06
1.29757e+06
1.26791e+06
1.23837e+06
1.20895e+06
1.17967e+06
1.15051e+06
1.12151e+06
1.09265e+06
1.06395e+06
1.03541e+06
1.00705e+06
978875
950887
923098
895519
868158
841029
814142
787511
761152
735084
709327
683908
658861
634226
610034
4.76065e+06
4.76023e+06
4.75941e+06
4.75818e+06
4.75652e+06
4.75443e+06
4.7519e+06
4.74894e+06
4.74552e+06
4.74166e+06
4.73734e+06
4.73256e+06
4.72732e+06
4.72162e+06
4.71546e+06
4.70883e+06
4.70175e+06
4.6942e+06
4.68619e+06
4.67772e+06
4.66879e+06
4.65941e+06
4.64958e+06
4.63931e+06
4.62859e+06
4.61744e+06
4.60586e+06
4.59384e+06
4.58141e+06
4.56856e+06
4.5553e+06
4.54163e+06
4.52756e+06
4.51311e+06
4.49826e+06
4.48304e+06
4.46743e+06
4.45147e+06
4.43514e+06
4.41845e+06
4.40142e+06
4.38404e+06
4.36632e+06
4.34828e+06
4.32991e+06
4.31122e+06
4.29222e+06
4.27291e+06
4.2533e+06
4.2334e+06
4.21321e+06
4.19273e+06
4.17197e+06
4.15095e+06
4.12965e+06
4.10809e+06
4.08628e+06
4.06421e+06
4.0419e+06
4.01935e+06
3.99656e+06
3.97354e+06
3.9503e+06
3.92683e+06
3.90314e+06
3.87925e+06
3.85514e+06
3.83083e+06
3.80632e+06
3.78161e+06
3.75671e+06
3.73162e+06
3.70634e+06
3.68089e+06
3.65526e+06
3.62945e+06
3.60347e+06
3.57733e+06
3.55102e+06
3.52455e+06
3.49793e+06
3.47115e+06
3.44422e+06
3.41714e+06
3.38992e+06
3.36256e+06
3.33506e+06
3.30742e+06
3.27965e+06
3.25175e+06
3.22373e+06
3.19558e+06
3.16731e+06
3.13892e+06
3.11041e+06
3.08179e+06
3.05306e+06
3.02422e+06
2.99528e+06
2.96623e+06
2.93708e+06
2.90784e+06
2.8785e+06
2.84907e+06
2.81955e+06
2.78994e+06
2.76025e+06
2.73048e+06
2.70063e+06
2.6707e+06
2.6407e+06
2.61063e+06
2.58049e+06
2.55028e+06
2.52002e+06
2.48969e+06
2.45931e+06
2.42887e+06
2.39839e+06
2.36786e+06
2.33728e+06
2.30666e+06
2.27601e+06
2.24531e+06
2.21459e+06
2.18384e+06
2.15307e+06
2.12227e+06
2.09146e+06
2.06063e+06
2.02979e+06
1.99895e+06
1.9681e+06
1.93726e+06
1.90642e+06
1.87559e+06
1.84477e+06
1.81397e+06
1.78319e+06
1.75244e+06
1.72171e+06
1.69103e+06
1.66038e+06
1.62978e+06
1.59923e+06
1.56873e+06
1.53829e+06
1.50792e+06
1.47761e+06
1.44738e+06
1.41724e+06
1.38718e+06
1.35721e+06
1.32733e+06
1.29757e+06
1.26791e+06
1.23837e+06
1.20895e+06
1.17966e+06
1.15051e+06
1.1215e+06
1.09265e+06
1.06395e+06
1.03541e+06
1.00705e+06
978870
950880
923090
895508
868144
841010
814118
787481
761112
735030
709253
683805
658711
633995
609663
4.76944e+06
4.769e+06
4.76815e+06
4.76687e+06
4.76515e+06
4.763e+06
4.76039e+06
4.75733e+06
4.75382e+06
4.74984e+06
4.7454e+06
4.74049e+06
4.73511e+06
4.72926e+06
4.72294e+06
4.71615e+06
4.70889e+06
4.70117e+06
4.69298e+06
4.68432e+06
4.67521e+06
4.66565e+06
4.65563e+06
4.64516e+06
4.63426e+06
4.62291e+06
4.61114e+06
4.59894e+06
4.58632e+06
4.57328e+06
4.55984e+06
4.546e+06
4.53176e+06
4.51713e+06
4.50212e+06
4.48673e+06
4.47098e+06
4.45486e+06
4.43838e+06
4.42155e+06
4.40437e+06
4.38686e+06
4.36902e+06
4.35084e+06
4.33235e+06
4.31355e+06
4.29443e+06
4.27502e+06
4.25531e+06
4.2353e+06
4.21501e+06
4.19444e+06
4.1736e+06
4.15249e+06
4.13111e+06
4.10947e+06
4.08759e+06
4.06545e+06
4.04307e+06
4.02046e+06
3.99761e+06
3.97453e+06
3.95123e+06
3.92771e+06
3.90397e+06
3.88003e+06
3.85587e+06
3.83152e+06
3.80697e+06
3.78222e+06
3.75728e+06
3.73216e+06
3.70685e+06
3.68137e+06
3.65571e+06
3.62987e+06
3.60387e+06
3.5777e+06
3.55137e+06
3.52488e+06
3.49823e+06
3.47143e+06
3.44449e+06
3.41739e+06
3.39015e+06
3.36278e+06
3.33526e+06
3.30761e+06
3.27983e+06
3.25192e+06
3.22388e+06
3.19572e+06
3.16744e+06
3.13904e+06
3.11052e+06
3.0819e+06
3.05316e+06
3.02431e+06
2.99536e+06
2.96631e+06
2.93716e+06
2.90791e+06
2.87856e+06
2.84913e+06
2.8196e+06
2.78999e+06
2.7603e+06
2.73052e+06
2.70066e+06
2.67073e+06
2.64073e+06
2.61066e+06
2.58051e+06
2.55031e+06
2.52004e+06
2.48971e+06
2.45933e+06
2.42889e+06
2.3984e+06
2.36787e+06
2.33729e+06
2.30667e+06
2.27602e+06
2.24532e+06
2.2146e+06
2.18385e+06
2.15308e+06
2.12228e+06
2.09146e+06
2.06064e+06
2.0298e+06
1.99895e+06
1.96811e+06
1.93726e+06
1.90642e+06
1.87559e+06
1.84477e+06
1.81397e+06
1.78319e+06
1.75244e+06
1.72172e+06
1.69103e+06
1.66038e+06
1.62978e+06
1.59923e+06
1.56873e+06
1.53829e+06
1.50792e+06
1.47761e+06
1.44739e+06
1.41724e+06
1.38718e+06
1.35721e+06
1.32733e+06
1.29757e+06
1.26791e+06
1.23837e+06
1.20895e+06
1.17966e+06
1.15051e+06
1.1215e+06
1.09264e+06
1.06394e+06
1.03541e+06
1.00705e+06
978864
950872
923079
895494
868127
840988
814090
787444
761064
734966
709166
683685
658540
633744
609289
4.7801e+06
4.77965e+06
4.77875e+06
4.77742e+06
4.77563e+06
4.77339e+06
4.77069e+06
4.76751e+06
4.76387e+06
4.75975e+06
4.75515e+06
4.75008e+06
4.74452e+06
4.73848e+06
4.73197e+06
4.72498e+06
4.71751e+06
4.70956e+06
4.70115e+06
4.69227e+06
4.68293e+06
4.67313e+06
4.66288e+06
4.65219e+06
4.64105e+06
4.62947e+06
4.61747e+06
4.60504e+06
4.59219e+06
4.57894e+06
4.56528e+06
4.55122e+06
4.53677e+06
4.52194e+06
4.50673e+06
4.49115e+06
4.4752e+06
4.4589e+06
4.44224e+06
4.42524e+06
4.4079e+06
4.39022e+06
4.37222e+06
4.3539e+06
4.33526e+06
4.31632e+06
4.29707e+06
4.27753e+06
4.25769e+06
4.23757e+06
4.21716e+06
4.19648e+06
4.17553e+06
4.15432e+06
4.13285e+06
4.11112e+06
4.08914e+06
4.06692e+06
4.04446e+06
4.02177e+06
3.99885e+06
3.9757e+06
3.95233e+06
3.92875e+06
3.90496e+06
3.88095e+06
3.85675e+06
3.83234e+06
3.80774e+06
3.78295e+06
3.75797e+06
3.73281e+06
3.70746e+06
3.68194e+06
3.65624e+06
3.63037e+06
3.60434e+06
3.57814e+06
3.55178e+06
3.52527e+06
3.49859e+06
3.47177e+06
3.4448e+06
3.41769e+06
3.39043e+06
3.36303e+06
3.3355e+06
3.30783e+06
3.28004e+06
3.25211e+06
3.22406e+06
3.19589e+06
3.16759e+06
3.13918e+06
3.11066e+06
3.08202e+06
3.05327e+06
3.02442e+06
2.99546e+06
2.9664e+06
2.93724e+06
2.90799e+06
2.87864e+06
2.84919e+06
2.81966e+06
2.79005e+06
2.76035e+06
2.73057e+06
2.70071e+06
2.67077e+06
2.64077e+06
2.61069e+06
2.58054e+06
2.55034e+06
2.52006e+06
2.48973e+06
2.45935e+06
2.42891e+06
2.39842e+06
2.36789e+06
2.33731e+06
2.30669e+06
2.27603e+06
2.24534e+06
2.21461e+06
2.18386e+06
2.15308e+06
2.12229e+06
2.09147e+06
2.06064e+06
2.0298e+06
1.99896e+06
1.96811e+06
1.93726e+06
1.90642e+06
1.87559e+06
1.84477e+06
1.81397e+06
1.78319e+06
1.75244e+06
1.72172e+06
1.69103e+06
1.66038e+06
1.62978e+06
1.59923e+06
1.56873e+06
1.53829e+06
1.50792e+06
1.47761e+06
1.44739e+06
1.41724e+06
1.38718e+06
1.35721e+06
1.32734e+06
1.29757e+06
1.26791e+06
1.23837e+06
1.20895e+06
1.17966e+06
1.15051e+06
1.1215e+06
1.09264e+06
1.06394e+06
1.0354e+06
1.00704e+06
978856
950863
923067
895479
868107
840963
814057
787401
761008
734892
709068
683551
658354
633483
608921
4.79272e+06
4.79224e+06
4.7913e+06
4.78989e+06
4.78802e+06
4.78567e+06
4.78284e+06
4.77953e+06
4.77573e+06
4.77143e+06
4.76665e+06
4.76137e+06
4.75559e+06
4.74933e+06
4.74258e+06
4.73534e+06
4.72761e+06
4.71941e+06
4.71073e+06
4.70157e+06
4.69196e+06
4.68188e+06
4.67135e+06
4.66038e+06
4.64896e+06
4.63711e+06
4.62483e+06
4.61214e+06
4.59903e+06
4.58551e+06
4.57159e+06
4.55728e+06
4.54259e+06
4.52752e+06
4.51207e+06
4.49626e+06
4.4801e+06
4.46358e+06
4.44671e+06
4.42951e+06
4.41197e+06
4.39411e+06
4.37593e+06
4.35743e+06
4.33863e+06
4.31952e+06
4.30012e+06
4.28043e+06
4.26045e+06
4.24019e+06
4.21965e+06
4.19884e+06
4.17777e+06
4.15644e+06
4.13485e+06
4.11302e+06
4.09094e+06
4.06862e+06
4.04607e+06
4.02329e+06
4.00028e+06
3.97705e+06
3.95361e+06
3.92996e+06
3.90609e+06
3.88203e+06
3.85776e+06
3.83329e+06
3.80864e+06
3.78379e+06
3.75876e+06
3.73355e+06
3.70816e+06
3.68259e+06
3.65686e+06
3.63095e+06
3.60488e+06
3.57865e+06
3.55226e+06
3.52571e+06
3.49901e+06
3.47216e+06
3.44517e+06
3.41803e+06
3.39075e+06
3.36333e+06
3.33578e+06
3.30809e+06
3.28028e+06
3.25234e+06
3.22427e+06
3.19608e+06
3.16777e+06
3.13935e+06
3.11081e+06
3.08216e+06
3.05341e+06
3.02454e+06
2.99558e+06
2.96651e+06
2.93734e+06
2.90808e+06
2.87872e+06
2.84927e+06
2.81974e+06
2.79011e+06
2.76041e+06
2.73062e+06
2.70076e+06
2.67082e+06
2.64081e+06
2.61073e+06
2.58058e+06
2.55037e+06
2.52009e+06
2.48976e+06
2.45937e+06
2.42893e+06
2.39844e+06
2.36791e+06
2.33732e+06
2.3067e+06
2.27604e+06
2.24535e+06
2.21462e+06
2.18387e+06
2.15309e+06
2.12229e+06
2.09148e+06
2.06065e+06
2.02981e+06
1.99896e+06
1.96812e+06
1.93727e+06
1.90643e+06
1.87559e+06
1.84478e+06
1.81397e+06
1.78319e+06
1.75244e+06
1.72172e+06
1.69103e+06
1.66039e+06
1.62978e+06
1.59923e+06
1.56873e+06
1.53829e+06
1.50792e+06
1.47762e+06
1.44739e+06
1.41724e+06
1.38718e+06
1.35721e+06
1.32734e+06
1.29757e+06
1.26791e+06
1.23837e+06
1.20895e+06
1.17966e+06
1.15051e+06
1.1215e+06
1.09264e+06
1.06394e+06
1.0354e+06
1.00703e+06
978848
950852
923053
895461
868085
840934
814020
787354
760947
734811
708961
683407
658160
633218
608563
4.80739e+06
4.80686e+06
4.80586e+06
4.80438e+06
4.8024e+06
4.79992e+06
4.79694e+06
4.79346e+06
4.78946e+06
4.78495e+06
4.77994e+06
4.77441e+06
4.76838e+06
4.76184e+06
4.7548e+06
4.74726e+06
4.73923e+06
4.73071e+06
4.72171e+06
4.71224e+06
4.7023e+06
4.69189e+06
4.68104e+06
4.66974e+06
4.658e+06
4.64583e+06
4.63323e+06
4.62022e+06
4.6068e+06
4.59298e+06
4.57877e+06
4.56417e+06
4.5492e+06
4.53385e+06
4.51813e+06
4.50206e+06
4.48564e+06
4.46888e+06
4.45178e+06
4.43434e+06
4.41659e+06
4.39851e+06
4.38012e+06
4.36143e+06
4.34244e+06
4.32315e+06
4.30357e+06
4.28371e+06
4.26357e+06
4.24315e+06
4.22246e+06
4.20151e+06
4.1803e+06
4.15884e+06
4.13712e+06
4.11517e+06
4.09297e+06
4.07054e+06
4.04789e+06
4.025e+06
4.0019e+06
3.97858e+06
3.95506e+06
3.93132e+06
3.90738e+06
3.88324e+06
3.8589e+06
3.83437e+06
3.80965e+06
3.78474e+06
3.75966e+06
3.73439e+06
3.70895e+06
3.68334e+06
3.65755e+06
3.63161e+06
3.60549e+06
3.57922e+06
3.5528e+06
3.52622e+06
3.49948e+06
3.47261e+06
3.44558e+06
3.41841e+06
3.39111e+06
3.36367e+06
3.33609e+06
3.30839e+06
3.28055e+06
3.25259e+06
3.22451e+06
3.1963e+06
3.16798e+06
3.13954e+06
3.11099e+06
3.08233e+06
3.05356e+06
3.02468e+06
2.99571e+06
2.96663e+06
2.93745e+06
2.90818e+06
2.87881e+06
2.84936e+06
2.81982e+06
2.79019e+06
2.76048e+06
2.73069e+06
2.70082e+06
2.67087e+06
2.64086e+06
2.61077e+06
2.58062e+06
2.55041e+06
2.52013e+06
2.48979e+06
2.4594e+06
2.42896e+06
2.39847e+06
2.36793e+06
2.33734e+06
2.30672e+06
2.27606e+06
2.24536e+06
2.21464e+06
2.18388e+06
2.1531e+06
2.1223e+06
2.09149e+06
2.06066e+06
2.02982e+06
1.99897e+06
1.96812e+06
1.93727e+06
1.90643e+06
1.8756e+06
1.84478e+06
1.81398e+06
1.7832e+06
1.75244e+06
1.72172e+06
1.69104e+06
1.66039e+06
1.62979e+06
1.59923e+06
1.56873e+06
1.5383e+06
1.50792e+06
1.47762e+06
1.44739e+06
1.41724e+06
1.38718e+06
1.35721e+06
1.32734e+06
1.29757e+06
1.26791e+06
1.23837e+06
1.20895e+06
1.17966e+06
1.15051e+06
1.1215e+06
1.09264e+06
1.06393e+06
1.03539e+06
1.00703e+06
978838
950840
923038
895442
868060
840903
813980
787302
760880
734725
708848
683258
657961
632954
608218
4.8242e+06
4.82364e+06
4.82256e+06
4.82098e+06
4.81887e+06
4.81623e+06
4.81307e+06
4.80937e+06
4.80514e+06
4.80038e+06
4.79509e+06
4.78926e+06
4.78292e+06
4.77605e+06
4.76867e+06
4.76077e+06
4.75238e+06
4.7435e+06
4.73412e+06
4.72427e+06
4.71395e+06
4.70317e+06
4.69194e+06
4.68026e+06
4.66814e+06
4.6556e+06
4.64264e+06
4.62928e+06
4.61551e+06
4.60134e+06
4.58679e+06
4.57187e+06
4.55657e+06
4.54091e+06
4.52489e+06
4.50853e+06
4.49182e+06
4.47478e+06
4.45742e+06
4.43973e+06
4.42172e+06
4.40341e+06
4.38479e+06
4.36588e+06
4.34667e+06
4.32718e+06
4.30741e+06
4.28736e+06
4.26703e+06
4.24644e+06
4.22559e+06
4.20448e+06
4.18311e+06
4.1615e+06
4.13964e+06
4.11755e+06
4.09523e+06
4.07268e+06
4.0499e+06
4.02691e+06
4.0037e+06
3.98028e+06
3.95666e+06
3.93283e+06
3.9088e+06
3.88458e+06
3.86016e+06
3.83556e+06
3.81077e+06
3.7858e+06
3.76065e+06
3.73533e+06
3.70983e+06
3.68416e+06
3.65833e+06
3.63233e+06
3.60618e+06
3.57986e+06
3.55339e+06
3.52678e+06
3.50001e+06
3.4731e+06
3.44604e+06
3.41884e+06
3.39151e+06
3.36404e+06
3.33644e+06
3.30871e+06
3.28085e+06
3.25287e+06
3.22477e+06
3.19655e+06
3.16821e+06
3.13975e+06
3.11119e+06
3.08251e+06
3.05373e+06
3.02484e+06
2.99585e+06
2.96676e+06
2.93757e+06
2.90829e+06
2.87892e+06
2.84946e+06
2.81991e+06
2.79027e+06
2.76055e+06
2.73076e+06
2.70088e+06
2.67093e+06
2.64091e+06
2.61082e+06
2.58067e+06
2.55045e+06
2.52017e+06
2.48983e+06
2.45943e+06
2.42899e+06
2.39849e+06
2.36795e+06
2.33737e+06
2.30674e+06
2.27608e+06
2.24538e+06
2.21465e+06
2.1839e+06
2.15312e+06
2.12232e+06
2.0915e+06
2.06067e+06
2.02983e+06
1.99898e+06
1.96813e+06
1.93728e+06
1.90644e+06
1.8756e+06
1.84478e+06
1.81398e+06
1.7832e+06
1.75245e+06
1.72173e+06
1.69104e+06
1.66039e+06
1.62979e+06
1.59924e+06
1.56874e+06
1.5383e+06
1.50792e+06
1.47762e+06
1.44739e+06
1.41724e+06
1.38718e+06
1.35721e+06
1.32734e+06
1.29757e+06
1.26791e+06
1.23837e+06
1.20895e+06
1.17966e+06
1.1505e+06
1.12149e+06
1.09263e+06
1.06393e+06
1.03539e+06
1.00702e+06
978829
950827
923022
895421
868034
840870
813938
787248
760810
734634
708730
683104
657761
632695
607889
4.84331e+06
4.84269e+06
4.84153e+06
4.83982e+06
4.83755e+06
4.83473e+06
4.83134e+06
4.82739e+06
4.82287e+06
4.8178e+06
4.81217e+06
4.80599e+06
4.79927e+06
4.79201e+06
4.78423e+06
4.77592e+06
4.7671e+06
4.75778e+06
4.74797e+06
4.73769e+06
4.72693e+06
4.71571e+06
4.70404e+06
4.69193e+06
4.67939e+06
4.66643e+06
4.65306e+06
4.63928e+06
4.62511e+06
4.61056e+06
4.59564e+06
4.58034e+06
4.56468e+06
4.54868e+06
4.53232e+06
4.51563e+06
4.49861e+06
4.48127e+06
4.46361e+06
4.44564e+06
4.42736e+06
4.40878e+06
4.38992e+06
4.37076e+06
4.35132e+06
4.3316e+06
4.31161e+06
4.29136e+06
4.27083e+06
4.25005e+06
4.22902e+06
4.20773e+06
4.18619e+06
4.16442e+06
4.14241e+06
4.12017e+06
4.0977e+06
4.07501e+06
4.05211e+06
4.02899e+06
4.00567e+06
3.98214e+06
3.95841e+06
3.93448e+06
3.91036e+06
3.88605e+06
3.86155e+06
3.83687e+06
3.812e+06
3.78696e+06
3.76174e+06
3.73635e+06
3.71079e+06
3.68506e+06
3.65917e+06
3.63313e+06
3.60692e+06
3.58056e+06
3.55405e+06
3.52739e+06
3.50058e+06
3.47363e+06
3.44654e+06
3.41931e+06
3.39195e+06
3.36445e+06
3.33682e+06
3.30907e+06
3.28118e+06
3.25318e+06
3.22506e+06
3.19681e+06
3.16845e+06
3.13998e+06
3.1114e+06
3.08271e+06
3.05391e+06
3.02501e+06
2.99601e+06
2.96691e+06
2.93771e+06
2.90842e+06
2.87903e+06
2.84956e+06
2.82e+06
2.79036e+06
2.76064e+06
2.73083e+06
2.70095e+06
2.671e+06
2.64097e+06
2.61088e+06
2.58072e+06
2.55049e+06
2.52021e+06
2.48987e+06
2.45947e+06
2.42902e+06
2.39852e+06
2.36798e+06
2.33739e+06
2.30676e+06
2.2761e+06
2.2454e+06
2.21467e+06
2.18391e+06
2.15313e+06
2.12233e+06
2.09151e+06
2.06068e+06
2.02983e+06
1.99899e+06
1.96814e+06
1.93729e+06
1.90644e+06
1.87561e+06
1.84479e+06
1.81399e+06
1.78321e+06
1.75245e+06
1.72173e+06
1.69104e+06
1.66039e+06
1.62979e+06
1.59924e+06
1.56874e+06
1.5383e+06
1.50792e+06
1.47762e+06
1.44739e+06
1.41724e+06
1.38718e+06
1.35721e+06
1.32734e+06
1.29757e+06
1.26791e+06
1.23837e+06
1.20895e+06
1.17966e+06
1.1505e+06
1.12149e+06
1.09263e+06
1.06392e+06
1.03538e+06
1.00701e+06
978818
950814
923005
895400
868007
840835
813893
787191
760737
734541
708610
682950
657563
632443
607575
4.86488e+06
4.8642e+06
4.86293e+06
4.86106e+06
4.8586e+06
4.85554e+06
4.85188e+06
4.84762e+06
4.84276e+06