/*--------------------------------*- C++ -*----------------------------------*\
  =========                 |
  \\      /  F ield         | OpenFOAM: The Open Source CFD Toolbox
   \\    /   O peration     | Website:  https://openfoam.org
    \\  /    A nd           | Version:  7
     \\/     M anipulation  |
\*---------------------------------------------------------------------------*/
FoamFile
{
    version     2.0;
    format      ascii;
    class       volVectorField;
    location    "0.049";
    object      UMean;
}
// * * * * * * * * * * * * * * * * * * * * * * * * * * * * * * * * * * * * * //

dimensions      [0 1 -1 0 0 0 0];

internalField   nonuniform List<vector> 
12225
(
(4.77773 0.164182 0)
(4.18647 0.110969 0)
(3.72903 0.0972525 0)
(3.36452 0.0804433 0)
(3.0389 0.0670477 0)
(2.73754 0.0572135 0)
(2.46111 0.0486078 0)
(2.21397 0.0404524 0)
(2.00025 0.0317262 0)
(1.81979 0.0241701 0)
(1.67475 0.0156335 0)
(1.55882 0.0107335 0)
(1.4757 0.00194496 0)
(1.41271 0.00296901 0)
(1.3762 -0.0102671 0)
(1.35415 0.00302408 0)
(1.35158 -0.0289218 0)
(1.37353 0.0011294 0)
(5.01864 0.112403 0)
(4.87426 0.0728052 0)
(4.75851 0.0885608 0)
(4.67127 0.0875466 0)
(4.58168 0.0854348 0)
(4.48202 0.0851831 0)
(4.37382 0.0847999 0)
(4.26308 0.082073 0)
(4.15226 0.0777264 0)
(4.04714 0.0703781 0)
(3.94604 0.0632164 0)
(3.85671 0.0526756 0)
(3.77121 0.0458515 0)
(3.70372 0.0331551 0)
(3.63423 0.0300225 0)
(3.59175 0.0128477 0)
(3.53743 0.0115597 0)
(3.51738 -0.024591 0)
(4.9957 0.17247 0)
(4.8778 0.121731 0)
(4.80024 0.129035 0)
(4.77054 0.122739 0)
(4.75655 0.114826 0)
(4.74297 0.110756 0)
(4.72744 0.107864 0)
(4.71054 0.104316 0)
(4.69255 0.0981997 0)
(4.67297 0.0911615 0)
(4.65219 0.0812386 0)
(4.6299 0.0727804 0)
(4.60814 0.0606502 0)
(4.58592 0.0535746 0)
(4.56735 0.0396469 0)
(4.54873 0.0336849 0)
(4.53753 0.0144615 0)
(4.52196 -0.0062338 0)
(4.99763 0.188691 0)
(4.90237 0.119498 0)
(4.82579 0.117516 0)
(4.79164 0.112559 0)
(4.77921 0.104632 0)
(4.77275 0.0996472 0)
(4.7689 0.097086 0)
(4.76812 0.093999 0)
(4.77019 0.0895218 0)
(4.77388 0.0829441 0)
(4.77815 0.0756672 0)
(4.78207 0.066726 0)
(4.78602 0.0584386 0)
(4.78936 0.0483424 0)
(4.7944 0.0395545 0)
(4.79889 0.0274467 0)
(4.80782 0.0134306 0)
(4.81254 -0.00681127 0)
(4.9951 0.213977 0)
(4.92449 0.14334 0)
(4.85671 0.133621 0)
(4.82116 0.128184 0)
(4.80711 0.118363 0)
(4.8 0.110144 0)
(4.79558 0.104474 0)
(4.79421 0.099438 0)
(4.79637 0.0931752 0)
(4.80112 0.0857956 0)
(4.80758 0.0770899 0)
(4.81467 0.0681047 0)
(4.8225 0.0582263 0)
(4.83056 0.0483854 0)
(4.8399 0.037484 0)
(4.84966 0.0249632 0)
(4.86116 0.0100998 0)
(4.87061 -0.0115988 0)
(4.99234 0.228946 0)
(4.9396 0.157129 0)
(4.88085 0.138604 0)
(4.84562 0.131042 0)
(4.83084 0.120158 0)
(4.82426 0.109849 0)
(4.82046 0.102239 0)
(4.81913 0.095849 0)
(4.82078 0.0890183 0)
(4.82486 0.0810408 0)
(4.83061 0.0721878 0)
(4.83713 0.062631 0)
(4.84447 0.052701 0)
(4.85216 0.0421864 0)
(4.86101 0.0308262 0)
(4.87004 0.0178725 0)
(4.88003 0.00218669 0)
(4.888 -0.0173162 0)
(4.99653 0.24472 0)
(4.95835 0.174624 0)
(4.90871 0.148988 0)
(4.87475 0.138327 0)
(4.85905 0.126528 0)
(4.85239 0.114687 0)
(4.84879 0.105041 0)
(4.84724 0.0970473 0)
(4.84823 0.0891321 0)
(4.85151 0.0804892 0)
(4.85648 0.071081 0)
(4.8623 0.0610736 0)
(4.8689 0.0506078 0)
(4.87576 0.039448 0)
(4.88349 0.0274998 0)
(4.89095 0.0138924 0)
(4.89898 -0.00160675 0)
(4.90459 -0.0199258 0)
(4.99893 0.253304 0)
(4.97219 0.187803 0)
(4.93202 0.157199 0)
(4.90123 0.142882 0)
(4.88585 0.130125 0)
(4.87977 0.117205 0)
(4.87709 0.105924 0)
(4.87604 0.096364 0)
(4.87694 0.0873784 0)
(4.87981 0.0780273 0)
(4.88432 0.0680914 0)
(4.88966 0.0576359 0)
(4.89574 0.0467408 0)
(4.90192 0.035229 0)
(4.90874 0.0228883 0)
(4.91496 0.00922156 0)
(4.92148 -0.00594117 0)
(4.9254 -0.0230163 0)
(5.00122 0.261829 0)
(4.98322 0.20104 0)
(4.95149 0.166904 0)
(4.92451 0.148637 0)
(4.9098 0.134334 0)
(4.90398 0.120359 0)
(4.9019 0.107634 0)
(4.90138 0.0965953 0)
(4.9024 0.0864969 0)
(4.90505 0.0764255 0)
(4.90921 0.0659695 0)
(4.91424 0.0550242 0)
(4.92 0.0436605 0)
(4.9258 0.0317329 0)
(4.93201 0.0191361 0)
(4.93743 0.00551701 0)
(4.94284 -0.0091374 0)
(4.94582 -0.0249793 0)
(4.99668 0.267822 0)
(4.98606 0.211692 0)
(4.96205 0.175527 0)
(4.93932 0.153838 0)
(4.92578 0.137789 0)
(4.92009 0.122924 0)
(4.91821 0.109119 0)
(4.91797 0.0968079 0)
(4.91916 0.0856011 0)
(4.9219 0.0747454 0)
(4.92609 0.063745 0)
(4.93108 0.052411 0)
(4.93656 0.0407247 0)
(4.94192 0.0285913 0)
(4.94729 0.0159429 0)
(4.95183 0.00259236 0)
(4.95602 -0.0114147 0)
(4.95828 -0.0260646 0)
(4.98846 0.270832 0)
(4.9818 0.219391 0)
(4.96315 0.182361 0)
(4.94389 0.158039 0)
(4.93151 0.140177 0)
(4.92608 0.124365 0)
(4.92463 0.109605 0)
(4.92492 0.0960715 0)
(4.92635 0.0836708 0)
(4.9289 0.0718749 0)
(4.93261 0.0602235 0)
(4.93699 0.0484764 0)
(4.94187 0.0365494 0)
(4.94655 0.0243575 0)
(4.95126 0.0118306 0)
(4.95504 -0.00113352 0)
(4.95865 -0.0144703 0)
(4.96035 -0.0281031 0)
(5.00634 0.274757 0)
(5.00194 0.226838 0)
(4.98675 0.18988 0)
(4.96986 0.163655 0)
(4.95818 0.143902 0)
(4.95258 0.126902 0)
(4.95092 0.11125 0)
(4.95114 0.0968611 0)
(4.95242 0.0836431 0)
(4.95453 0.0712134 0)
(4.95753 0.0591322 0)
(4.96104 0.0470984 0)
(4.965 0.0349814 0)
(4.96877 0.0227103 0)
(4.97264 0.0102502 0)
(4.97558 -0.00242571 0)
(4.97853 -0.0152461 0)
(4.97959 -0.0280975 0)
(5.00179 0.277799 0)
(5.00073 0.231555 0)
(4.9899 0.194837 0)
(4.97676 0.167245 0)
(4.96736 0.1458 0)
(4.96294 0.127547 0)
(4.96207 0.110961 0)
(4.96295 0.0957092 0)
(4.96468 0.0816868 0)
(4.96693 0.0686104 0)
(4.9698 0.0560716 0)
(4.97302 0.0437504 0)
(4.97666 0.0314803 0)
(4.98008 0.0191825 0)
(4.9836 0.00685502 0)
(4.98618 -0.00549282 0)
(4.98883 -0.0177776 0)
(4.98964 -0.0299092 0)
(5.01289 0.280398 0)
(5.01441 0.237245 0)
(5.00681 0.201258 0)
(4.99648 0.172602 0)
(4.98893 0.149516 0)
(4.98543 0.129849 0)
(4.98493 0.112255 0)
(4.98606 0.0962342 0)
(4.98803 0.0815921 0)
(4.99046 0.0680074 0)
(4.99341 0.0550907 0)
(4.9966 0.0425064 0)
(5.0001 0.0300825 0)
(5.00329 0.0177631 0)
(5.00648 0.0055812 0)
(5.00869 -0.00643075 0)
(5.01097 -0.0181972 0)
(5.01153 -0.0296487 0)
(5.00883 0.27894 0)
(5.01297 0.239207 0)
(5.00889 0.203975 0)
(5.00229 0.174455 0)
(4.99773 0.149912 0)
(4.99615 0.128929 0)
(4.99675 0.110363 0)
(4.99852 0.0935787 0)
(5.00091 0.0782105 0)
(5.00366 0.0639517 0)
(5.00679 0.050509 0)
(5.01005 0.0376391 0)
(5.01345 0.0251928 0)
(5.01649 0.0130946 0)
(5.01943 0.0013264 0)
(5.02157 -0.0101113 0)
(5.02369 -0.0211949 0)
(5.02455 -0.0318774 0)
(5.00712 0.282012 0)
(5.01316 0.243839 0)
(5.01206 0.209265 0)
(5.00857 0.179152 0)
(5.00661 0.153325 0)
(5.0068 0.131037 0)
(5.00845 0.111439 0)
(5.01085 0.0938651 0)
(5.01365 0.077865 0)
(5.01661 0.0631087 0)
(5.01971 0.0493124 0)
(5.02276 0.0362495 0)
(5.02583 0.0237508 0)
(5.02857 0.0117394 0)
(5.0312 0.000164111 0)
(5.03318 -0.0109462 0)
(5.03516 -0.0216268 0)
(5.03611 -0.0317806 0)
(5.00327 0.276799 0)
(5.009 0.239874 0)
(5.00935 0.205544 0)
(5.00835 0.175018 0)
(5.00903 0.148473 0)
(5.01144 0.125449 0)
(5.01477 0.105259 0)
(5.01846 0.0872518 0)
(5.02228 0.0709233 0)
(5.0261 0.0559256 0)
(5.02989 0.0420015 0)
(5.03345 0.0289568 0)
(5.03685 0.0166364 0)
(5.0398 0.00495007 0)
(5.04258 -0.00617082 0)
(5.0447 -0.0167263 0)
(5.04682 -0.0267712 0)
(5.04798 -0.036265 0)
(5.01011 0.283315 0)
(5.01688 0.243793 0)
(5.0192 0.2081 0)
(5.02069 0.176565 0)
(5.02372 0.148974 0)
(5.02808 0.124878 0)
(5.03288 0.103736 0)
(5.0376 0.0850222 0)
(5.04213 0.0682824 0)
(5.04641 0.0531617 0)
(5.0505 0.0393602 0)
(5.05423 0.0266379 0)
(5.05769 0.0147712 0)
(5.06062 0.00363105 0)
(5.06332 -0.00691867 0)
(5.06534 -0.0168731 0)
(5.06737 -0.0263388 0)
(5.06842 -0.0352038 0)
(5.0064 0.276836 0)
(5.01739 0.235244 0)
(5.02432 0.197828 0)
(5.03017 0.165038 0)
(5.03723 0.136769 0)
(5.04517 0.112379 0)
(5.05303 0.0910499 0)
(5.06026 0.072109 0)
(5.06681 0.0551178 0)
(5.07277 0.0398036 0)
(5.07825 0.0259397 0)
(5.08316 0.0133152 0)
(5.08759 0.00171865 0)
(5.09131 -0.00900613 0)
(5.09461 -0.0190019 0)
(5.09711 -0.028328 0)
(5.09943 -0.0370872 0)
(5.10078 -0.0452689 0)
(5.0018 0.273372 0)
(5.01374 0.228171 0)
(5.0236 0.18739 0)
(5.03381 0.152797 0)
(5.04541 0.124306 0)
(5.05723 0.100633 0)
(5.06802 0.0804274 0)
(5.07738 0.0628134 0)
(5.08556 0.0472932 0)
(5.09283 0.0335416 0)
(5.09939 0.021263 0)
(5.10519 0.0102006 0)
(5.11028 0.000117519 0)
(5.11453 -0.00913098 0)
(5.11818 -0.0176996 0)
(5.12099 -0.0256323 0)
(5.12348 -0.0330775 0)
(5.12505 -0.039998 0)
(4.99777 0.270298 0)
(5.01156 0.217614 0)
(5.0255 0.172754 0)
(5.04086 0.136508 0)
(5.05744 0.107405 0)
(5.07349 0.0832251 0)
(5.08772 0.0623278 0)
(5.09994 0.0439817 0)
(5.11048 0.0279591 0)
(5.11965 0.0140813 0)
(5.12765 0.00204501 0)
(5.13446 -0.00850321 0)
(5.14026 -0.0178924 0)
(5.14495 -0.0263651 0)
(5.14893 -0.0341247 0)
(5.15193 -0.0412848 0)
(5.15459 -0.0479656 0)
(5.15621 -0.0541927 0)
(5.00934 0.266059 0)
(5.02848 0.203511 0)
(5.04975 0.154975 0)
(5.07186 0.119334 0)
(5.09298 0.0929615 0)
(5.11134 0.0722087 0)
(5.12668 0.0547779 0)
(5.13978 0.0396721 0)
(5.15138 0.0265203 0)
(5.16165 0.0150639 0)
(5.17059 0.00499444 0)
(5.17811 -0.00396186 0)
(5.18444 -0.0120388 0)
(5.18959 -0.0193767 0)
(5.19397 -0.0261218 0)
(5.1974 -0.0323414 0)
(5.20043 -0.0381888 0)
(5.20245 -0.0436654 0)
(5.0022 0.258364 0)
(5.03 0.184893 0)
(5.06206 0.131601 0)
(5.09346 0.0948023 0)
(5.12096 0.0676341 0)
(5.14319 0.0453069 0)
(5.16093 0.0262063 0)
(5.17564 0.0103136 0)
(5.18828 -0.0025049 0)
(5.19909 -0.0128722 0)
(5.20817 -0.0215595 0)
(5.21556 -0.0291495 0)
(5.22162 -0.0359652 0)
(5.22647 -0.0421557 0)
(5.23054 -0.0478189 0)
(5.23366 -0.0530333 0)
(5.23636 -0.0578877 0)
(5.23805 -0.0624331 0)
(5.00482 0.244461 0)
(5.04219 0.163028 0)
(5.08578 0.113004 0)
(5.12475 0.0845804 0)
(5.15524 0.0650515 0)
(5.17856 0.0477692 0)
(5.19777 0.032056 0)
(5.21479 0.0186601 0)
(5.22989 0.00769341 0)
(5.2427 -0.00141097 0)
(5.25321 -0.00929799 0)
(5.26166 -0.0163384 0)
(5.26859 -0.0226923 0)
(5.27421 -0.0284287 0)
(5.27891 -0.0336643 0)
(5.28253 -0.0384784 0)
(5.28562 -0.0430052 0)
(5.28763 -0.0472509 0)
(5.0067 0.227199 0)
(5.06101 0.125623 0)
(5.123 0.0708867 0)
(5.17182 0.0424305 0)
(5.20485 0.02199 0)
(5.2281 0.0040827 0)
(5.24728 -0.0102837 0)
(5.2644 -0.0206772 0)
(5.27937 -0.0282978 0)
(5.29176 -0.0345481 0)
(5.30178 -0.0401489 0)
(5.30986 -0.0452633 0)
(5.31657 -0.049884 0)
(5.32207 -0.0540477 0)
(5.32668 -0.0578414 0)
(5.33021 -0.0613676 0)
(5.33317 -0.0646979 0)
(5.33506 -0.0678917 0)
(5.01284 0.210167 0)
(5.08871 0.110559 0)
(5.16814 0.0748124 0)
(5.22337 0.0582447 0)
(5.25749 0.0399417 0)
(5.2824 0.0216642 0)
(5.30466 0.00728839 0)
(5.32472 -0.00282526 0)
(5.34145 -0.0104 0)
(5.35459 -0.0168358 0)
(5.36485 -0.0226331 0)
(5.37296 -0.027845 0)
(5.37957 -0.0324894 0)
(5.38483 -0.0366495 0)
(5.38911 -0.0404465 0)
(5.39228 -0.0439675 0)
(5.39485 -0.0472962 0)
(5.39644 -0.0504463 0)
(5.00695 0.159387 0)
(5.12128 0.0346857 0)
(5.21943 0.006504 0)
(5.27496 -0.00346621 0)
(5.30572 -0.0179446 0)
(5.33006 -0.0305285 0)
(5.35321 -0.0383694 0)
(5.374 -0.0432871 0)
(5.39103 -0.0472482 0)
(5.40435 -0.0509377 0)
(5.41488 -0.0543366 0)
(5.42338 -0.0573772 0)
(5.43041 -0.0600833 0)
(5.43611 -0.062556 0)
(5.44084 -0.0648619 0)
(5.44444 -0.067078 0)
(5.44747 -0.0692229 0)
(5.44944 -0.0713436 0)
(5.01291 0.150878 0)
(5.17616 0.0561976 0)
(5.29868 0.0423244 0)
(5.35736 0.0258287 0)
(5.38871 0.00663944 0)
(5.41555 -0.00693756 0)
(5.44066 -0.0149378 0)
(5.46206 -0.0204705 0)
(5.47896 -0.0252399 0)
(5.49199 -0.0296012 0)
(5.50211 -0.0334978 0)
(5.51004 -0.0369793 0)
(5.5162 -0.0401052 0)
(5.5208 -0.0430056 0)
(5.52405 -0.0456877 0)
(5.52602 -0.048265 0)
(5.527 -0.0506987 0)
(5.52688 -0.0531092 0)
(5.01455 0.0200461 0)
(5.22709 -0.0509556 0)
(5.35246 -0.0340094 0)
(5.4047 -0.0427357 0)
(5.43308 -0.0529753 0)
(5.45502 -0.0576309 0)
(5.47117 -0.0594545 0)
(5.48005 -0.0608168 0)
(5.48173 -0.0622191 0)
(5.4775 -0.0635391 0)
(5.46858 -0.0646692 0)
(5.4561 -0.0656561 0)
(5.44049 -0.066525 0)
(5.42253 -0.067359 0)
(5.40211 -0.0681221 0)
(5.38026 -0.0689044 0)
(5.35621 -0.0696389 0)
(5.33181 -0.0704693 0)
(4.96813 0.0681924 0)
(5.1028 -0.00203207 0)
(5.07285 -0.00209372 0)
(4.95683 -0.0122001 0)
(4.82778 -0.0196187 0)
(4.70239 -0.0224613 0)
(4.58072 -0.0235117 0)
(4.46094 -0.0241907 0)
(4.34261 -0.0247041 0)
(4.22644 -0.0250193 0)
(4.11315 -0.0251523 0)
(4.00342 -0.0251571 0)
(3.8972 -0.0250721 0)
(3.79486 -0.0249428 0)
(3.6957 -0.0247753 0)
(3.6006 -0.0246199 0)
(3.50788 -0.024453 0)
(3.41989 -0.02437 0)
(0.00148915 -0.0154422 1.93811e-21)
(0.0243389 -0.0406484 -1.92607e-21)
(0.0614996 -0.0509609 0)
(0.099657 -0.053482 0)
(0.137875 -0.052781 0)
(0.175147 -0.0508765 1.86382e-21)
(0.211202 -0.0485704 0)
(0.245902 -0.0461305 0)
(0.279204 -0.0435632 0)
(0.310936 -0.0407664 0)
(0.34074 -0.0375627 -1.7634e-21)
(0.368021 -0.0337427 0)
(0.391949 -0.0290816 0)
(0.411426 -0.0233685 0)
(0.425154 -0.0164153 0)
(0.431621 -0.00811316 -1.64805e-21)
(0.42929 0.00161624 0)
(0.416606 0.0127184 0)
(0.392359 0.0251047 0)
(0.354619 0.0384547 0)
(0.302611 0.0521445 0)
(0.236398 0.065338 0)
(0.156738 0.0768824 0)
(0.0655574 0.0856831 -1.53506e-21)
(-0.0343872 0.090043 1.52722e-21)
(-0.140109 0.0894792 -1.51849e-21)
(-0.246423 0.0836142 -1.50834e-21)
(-0.350322 0.0720006 0)
(-0.444307 0.0584054 0)
(-0.529337 0.0415216 1.46859e-21)
(-0.602603 0.0228547 1.45258e-21)
(-0.667976 0.0120391 0)
(-0.738954 0.0131768 0)
(-0.827212 0.0254568 1.39626e-21)
(-0.934886 0.0492443 0)
(-1.06038 0.0794082 0)
(-1.19725 0.105064 -1.3306e-21)
(-1.33862 0.122157 0)
(-1.47906 0.12864 -1.28137e-21)
(-1.61029 0.122093 -2.50816e-21)
(-1.72691 0.108005 0)
(-1.82623 0.0923031 0)
(-1.90891 0.0769135 0)
(-1.97498 0.0620531 0)
(-2.02499 0.0479997 0)
(-2.05948 0.0348296 -2.19805e-21)
(-2.07913 0.0225607 -2.16664e-21)
(-2.08461 0.0111935 -2.14364e-21)
(-2.07659 0.000715221 0)
(-2.05584 -0.00885788 2.12345e-21)
(-2.02312 -0.0175147 0)
(-1.97928 -0.0252412 -2.13613e-21)
(-1.92548 -0.0320361 -2.15341e-21)
(-1.86251 -0.0379211 0)
(-1.79152 -0.0429036 0)
(-1.71357 -0.0470303 0)
(-1.62974 -0.050345 -2.27441e-21)
(-1.54096 -0.0529326 0)
(-1.44826 -0.0548346 0)
(-1.35249 -0.0561324 0)
(-1.25446 -0.0568857 0)
(-1.15489 -0.0571779 0)
(-1.05443 -0.0570626 0)
(-0.953634 -0.0566071 0)
(-0.852992 -0.0558613 0)
(-0.752917 -0.0548915 2.59883e-21)
(-0.653741 -0.0537429 0)
(-0.55572 -0.0524721 0)
(-0.459026 -0.0511304 -2.66915e-21)
(-0.363759 -0.0497587 -2.68719e-21)
(-0.269967 -0.0483913 0)
(-0.177658 -0.0470467 2.71591e-21)
(-0.0868158 -0.0457385 -2.72687e-21)
(0.00259931 -0.0444834 0)
(0.0906299 -0.0432939 2.74266e-21)
(0.177375 -0.0421815 0)
(0.262981 -0.0411656 0)
(0.347612 -0.0402362 -2.75283e-21)
(0.431392 -0.0393615 0)
(0.514304 -0.0384688 2.75167e-21)
(0.596205 -0.0374781 0)
(0.676792 -0.0363256 -2.74387e-21)
(0.755649 -0.0349605 -2.73718e-21)
(0.832314 -0.0333711 -2.72849e-21)
(0.906323 -0.0315744 -5.43551e-21)
(0.977274 -0.0296146 5.41001e-21)
(1.04488 -0.027548 0)
(1.10893 -0.0254301 0)
(1.1693 -0.0233121 0)
(1.22595 -0.0212411 5.2728e-21)
(1.27893 -0.0192375 5.23142e-21)
(1.3283 -0.0173204 -5.18792e-21)
(1.37417 -0.0155009 0)
(1.41668 -0.0137764 5.09585e-21)
(1.45595 -0.0121514 5.04784e-21)
(1.49212 -0.0106234 4.99883e-21)
(1.52533 -0.00918858 0)
(1.55572 -0.00784942 0)
(1.58342 -0.00660542 0)
(1.60858 -0.00545586 4.79699e-21)
(1.63133 -0.00439939 0)
(1.65183 -0.00343395 0)
(1.67021 -0.0025567 -4.6439e-21)
(1.68662 -0.00176413 0)
(1.7012 -0.00105222 0)
(1.71408 -0.000416578 -4.49244e-21)
(1.72539 0.000147342 0)
(1.73526 0.000644132 0)
(1.74379 0.00107834 4.3441e-21)
(1.7511 0.00145438 4.29547e-21)
(1.75729 0.00177654 0)
(1.76246 0.00204896 -4.19954e-21)
(1.76671 0.00227578 0)
(1.77013 0.00246088 4.10538e-21)
(1.77279 0.00260821 0)
(1.77477 0.00272159 4.01301e-21)
(1.77615 0.00280456 3.96748e-21)
(1.77699 0.00286097 0)
(1.77735 0.00289407 0)
(1.77728 0.00290802 0)
(1.77684 0.00290444 0)
(1.77607 0.00288066 0)
(1.77503 0.00283616 0)
(1.77375 0.00277333 0)
(1.77228 0.00269517 3.61813e-21)
(1.77065 0.00260424 -3.5762e-21)
(1.7689 0.00250286 0)
(1.76706 0.00239353 0)
(1.76514 0.00227889 0)
(1.76319 0.00216147 0)
(1.76121 0.00204362 -6.74361e-21)
(1.75923 0.00192738 0)
(1.75724 0.00181444 6.58471e-21)
(1.75527 0.00170608 -6.5062e-21)
(1.75332 0.00160326 0)
(1.75139 0.0015066 0)
(1.74948 0.00141638 0)
(1.74759 0.00133259 6.19812e-21)
(1.74573 0.00125512 6.12253e-21)
(1.7439 0.00118385 0)
(1.74208 0.00111861 5.97299e-21)
(1.74028 0.00105911 5.89902e-21)
(1.7385 0.00100503 -5.82558e-21)
(1.73673 0.000956087 0)
(1.73497 0.000912093 0)
(1.73322 0.000872897 -5.6083e-21)
(1.73147 0.000838321 0)
(1.72973 0.000808101 0)
(1.72798 0.000781983 0)
(1.72624 0.000759773 0)
(1.72448 0.000741288 5.25592e-21)
(1.72272 0.000726377 5.18685e-21)
(1.72094 0.000714859 0)
(1.71914 0.000706557 5.05009e-21)
(1.71731 0.000701311 0)
(1.71545 0.000699081 0)
(1.71355 0.000699873 4.84832e-21)
(1.71161 0.000703983 0)
(1.70961 0.000711731 4.71603e-21)
(1.70755 0.000723899 0)
(1.7054 0.000741153 0)
(1.70317 0.000764912 4.52095e-21)
(1.70078 0.000796483 0)
(1.6983 0.00083786 4.39318e-21)
(1.69555 0.000892297 0)
(1.69268 0.000961086 0)
(1.68935 0.00105462 0)
(1.68589 0.00116576 -4.14364e-21)
(1.68158 0.00133199 0)
(1.67718 0.00150531 4.02241e-21)
(1.67118 0.00182341 0)
(1.66513 0.00207261 0)
(1.65629 0.00275573 0)
(1.6469 0.00302917 0)
(1.63355 0.00472533 0)
(1.61578 0.0046553 0)
(1.59671 0.00960138 0)
(1.55294 0.00766282 -7.17421e-21)
(1.5329 0.0254351 0)
(1.39229 0.0193766 0)
(0.00204836 -0.037704 -5.81596e-21)
(0.0116936 -0.0906578 5.77927e-21)
(0.0259476 -0.107759 0)
(0.038842 -0.108997 -3.79229e-21)
(0.0516718 -0.10562 0)
(0.0645333 -0.101317 -1.8651e-21)
(0.0777511 -0.0971521 3.68869e-21)
(0.0912619 -0.0931233 3.65009e-21)
(0.104921 -0.088837 0)
(0.118411 -0.08375 3.56646e-21)
(0.131259 -0.0772434 1.76459e-21)
(0.142801 -0.0686656 0)
(0.152112 -0.0573358 0)
(0.158093 -0.0426201 0)
(0.159305 -0.0240014 0)
(0.15436 -0.00118795 1.64913e-21)
(0.141587 0.0258053 0)
(0.119752 0.0565346 -3.19282e-21)
(0.0872237 0.0901346 0)
(0.044287 0.125312 0)
(-0.0101175 0.160327 3.09735e-21)
(-0.0764613 0.193254 0)
(-0.154526 0.222724 -3.05986e-21)
(-0.243294 0.246971 1.5362e-21)
(-0.341416 0.265404 -1.52838e-21)
(-0.446432 0.274906 1.51967e-21)
(-0.55573 0.274277 1.50956e-21)
(-0.666676 0.264144 0)
(-0.774663 0.242931 0)
(-0.881564 0.220624 -1.46984e-21)
(-0.988371 0.203532 1.42987e-21)
(-1.11172 0.208581 0)
(-1.25499 0.243031 0)
(-1.40323 0.287842 -1.3975e-21)
(-1.54557 0.319812 0)
(-1.67804 0.33093 0)
(-1.795 0.326014 1.33196e-21)
(-1.89578 0.309839 0)
(-1.98234 0.284206 -1.21405e-21)
(-2.05602 0.250992 2.51083e-21)
(-2.11743 0.214572 0)
(-2.16667 0.177553 0)
(-2.20425 0.14125 4.55257e-21)
(-2.23018 0.106201 4.45519e-21)
(-2.24479 0.0727541 4.36942e-21)
(-2.24828 0.0410024 -2.09756e-21)
(-2.24087 0.0109849 2.16839e-21)
(-2.22278 -0.0172813 6.34638e-21)
(-2.19434 -0.043764 -4.17825e-21)
(-2.15588 -0.0683651 -2.12482e-21)
(-2.10786 -0.090986 0)
(-2.05079 -0.111511 2.13731e-21)
(-1.98505 -0.129866 -2.09524e-21)
(-1.91152 -0.145976 0)
(-1.8309 -0.159812 0)
(-1.74402 -0.171394 0)
(-1.6517 -0.180773 2.27528e-21)
(-1.55491 -0.188077 0)
(-1.45446 -0.193438 -4.67621e-21)
(-1.35121 -0.197041 0)
(-1.2459 -0.199077 -4.83983e-21)
(-1.13925 -0.199746 0)
(-1.03184 -0.19924 4.99261e-21)
(-0.924213 -0.197743 0)
(-0.816827 -0.195417 -5.12714e-21)
(-0.710084 -0.192431 2.5869e-21)
(-0.604284 -0.188922 0)
(-0.499677 -0.185057 5.28683e-21)
(-0.396411 -0.180973 2.6695e-21)
(-0.294551 -0.176811 2.68752e-21)
(-0.194113 -0.172665 0)
(-0.0950765 -0.168611 2.70619e-21)
(0.00258828 -0.164679 2.72712e-21)
(0.0989231 -0.1609 0)
(0.193976 -0.157302 -2.74287e-21)
(0.287838 -0.153921 5.48615e-21)
(0.380669 -0.150818 0)
(0.472681 -0.147978 2.75299e-21)
(0.564055 -0.145309 0)
(0.654812 -0.142593 -8.24685e-21)
(0.744802 -0.13958 0)
(0.83369 -0.136045 8.22483e-21)
(0.921008 -0.13185 2.73727e-21)
(1.00623 -0.126947 -2.72307e-21)
(1.08885 -0.121398 -5.42604e-21)
(1.16842 -0.115337 5.4017e-21)
(1.24467 -0.108938 0)
(1.3174 -0.102387 0)
(1.38649 -0.0958328 0)
(1.45196 -0.0894014 -1.58132e-20)
(1.51386 -0.0831709 -5.23142e-21)
(1.57228 -0.0771875 5.18791e-21)
(1.62734 -0.0714735 0)
(1.67919 -0.0660337 5.0924e-21)
(1.72794 -0.0608691 -5.04778e-21)
(1.77373 -0.0559742 -4.99875e-21)
(1.8167 -0.0513419 0)
(1.85698 -0.0469749 0)
(1.89469 -0.0428716 0)
(1.92996 -0.0390294 -4.79688e-21)
(1.96294 -0.0354443 0)
(1.99375 -0.0321101 9.38778e-21)
(2.02252 -0.0290186 1.39297e-20)
(2.0494 -0.0261602 -9.18455e-21)
(2.07449 -0.0235236 0)
(2.09793 -0.0210969 -4.49104e-21)
(2.11982 -0.0188681 0)
(2.14026 -0.0168251 -8.78487e-21)
(2.15936 -0.0149563 4.34292e-21)
(2.17721 -0.0132505 4.29436e-21)
(2.19389 -0.0116972 0)
(2.20949 -0.0102866 1.25972e-20)
(2.22407 -0.00900896 -8.30331e-21)
(2.23772 -0.00785523 -4.10515e-21)
(2.25049 -0.00681631 0)
(2.26246 -0.00588318 -4.01276e-21)
(2.27368 -0.00504703 -1.19012e-20)
(2.28421 -0.00429907 0)
(2.2941 -0.0036311 -7.75446e-21)
(2.30339 -0.00303506 -7.66597e-21)
(2.31214 -0.00250463 -7.5783e-21)
(2.32036 -0.00203623 0)
(2.3281 -0.00162572 0)
(2.33538 -0.00126771 0)
(2.34222 -0.000957162 3.61762e-21)
(2.34864 -0.000689709 3.5759e-21)
(2.35466 -0.000461377 0)
(2.3603 -0.000268337 6.98608e-21)
(2.36558 -0.000106686 6.90435e-21)
(2.37051 2.7473e-05 0)
(2.3751 0.000137857 6.74299e-21)
(2.37938 0.000228014 1.33263e-20)
(2.38337 0.000301228 -6.58409e-21)
(2.38706 0.00036048 -6.50546e-21)
(2.39048 0.000408413 0)
(2.39365 0.000447308 0)
(2.39657 0.000479122 0)
(2.39926 0.000505409 -6.1975e-21)
(2.40173 0.000527329 6.12185e-21)
(2.40399 0.000545812 1.20937e-20)
(2.40606 0.000561756 -5.97238e-21)
(2.40793 0.000576013 5.89837e-21)
(2.40962 0.000589113 5.82498e-21)
(2.41114 0.000601173 0)
(2.4125 0.000612004 0)
(2.4137 0.000621495 -5.60768e-21)
(2.41475 0.000629744 0)
(2.41567 0.000637211 0)
(2.41646 0.00064442 1.07897e-20)
(2.41713 0.000651933 0)
(2.41768 0.000660236 5.25533e-21)
(2.41812 0.000669862 -5.1863e-21)
(2.41845 0.000681347 0)
(2.41868 0.000695235 5.04951e-21)
(2.41882 0.000712034 0)
(2.41887 0.000732327 0)
(2.41882 0.000756794 -4.84779e-21)
(2.41868 0.00078637 9.5628e-21)
(2.41845 0.000822414 -4.71551e-21)
(2.41812 0.000866316 0)
(2.41769 0.000920928 0)
(2.41715 0.00098758 4.52034e-21)
(2.41649 0.00107289 0)
(2.4157 0.00117569 4.39254e-21)
(2.41472 0.00131336 0)
(2.41358 0.00147276 0)
(2.41216 0.00170361 0)
(2.41051 0.00194863 4.14316e-21)
(2.4084 0.00235652 0)
(2.40593 0.00272206 -4.02193e-21)
(2.40276 0.00349647 0)
(2.39882 0.00400177 0)
(2.39401 0.00561102 7.69121e-21)
(2.38716 0.00617724 -7.57815e-21)
(2.37992 0.00988471 0)
(2.36647 0.0101053 0)
(2.35626 0.0197117 0)
(2.32608 0.0186786 2.15023e-20)
(2.3152 0.0477611 0)
(2.24287 0.0478561 -1.39796e-20)
(0.0020964 -0.0425944 3.35492e-24)
(-0.00478955 -0.0939678 -7.70424e-21)
(-0.0108325 -0.107201 0)
(-0.0188399 -0.107165 7.58408e-21)
(-0.0258908 -0.105577 0)
(-0.0319484 -0.104174 0)
(-0.0367362 -0.102921 -5.70033e-24)
(-0.0405742 -0.101248 -3.65214e-21)
(-0.0437103 -0.0984863 -3.60466e-21)
(-0.0465195 -0.0938562 -3.56845e-21)
(-0.0494348 -0.0864658 0)
(-0.053029 -0.0753283 0)
(-0.0581332 -0.0593562 3.41556e-21)
(-0.0657802 -0.0375436 6.7274e-21)
(-0.0773313 -0.00910213 -6.62289e-21)
(-0.0941852 0.0262684 0)
(-0.118087 0.0683606 -6.42203e-21)
(-0.150372 0.116217 3.19438e-21)
(-0.192626 0.168442 0)
(-0.245172 0.223087 -6.18387e-21)
(-0.308678 0.277947 -3.09892e-21)
(-0.382889 0.330291 6.08586e-21)
(-0.466554 0.377432 3.06148e-21)
(-0.557483 0.416549 0)
(-0.65428 0.4452 -5.99635e-21)
(-0.755413 0.46181 -5.96695e-21)
(-0.859825 0.464144 0)
(-0.966164 0.450813 -5.88713e-21)
(-1.07461 0.427963 0)
(-1.18646 0.397927 -5.76127e-21)
(-1.31429 0.405432 -2.88534e-21)
(-1.45507 0.455113 0)
(-1.59209 0.493238 0)
(-1.71239 0.504997 0)
(-1.81482 0.501273 0)
(-1.90372 0.485724 0)
(-1.97999 0.459413 0)
(-2.04498 0.424025 -4.9294e-21)
(-2.10014 0.381028 7.3126e-21)
(-2.14699 0.332728 0)
(-2.18649 0.281957 0)
(-2.21869 0.230535 0)
(-2.24325 0.179718 -1.72344e-22)
(-2.25955 0.130128 -4.4569e-21)
(-2.26707 0.0821333 -8.5843e-21)
(-2.26527 0.0359003 8.44766e-21)
(-2.25378 -0.00843525 4.09956e-21)
(-2.23233 -0.0507425 -4.20229e-21)
(-2.20084 -0.0908538 1.27874e-22)
(-2.15936 -0.128555 -4.05321e-21)
(-2.10818 -0.163615 0)
(-2.04779 -0.195798 -4.10611e-21)
(-1.9788 -0.224859 9.57145e-23)
(-1.90198 -0.250573 0)
(-1.81821 -0.272777 0)
(-1.72842 -0.291383 4.36666e-21)
(-1.63356 -0.306417 0)
(-1.53461 -0.318017 0)
(-1.43244 -0.326406 -4.58147e-21)
(-1.32789 -0.331879 -9.43532e-21)
(-1.2217 -0.334771 4.84023e-21)
(-1.11452 -0.33542 0)
(-1.00692 -0.334154 -4.99293e-21)
(-0.899385 -0.331293 0)
(-0.792348 -0.32711 -5.08227e-21)
(-0.68618 -0.321856 -5.18641e-21)
(-0.581178 -0.315776 1.04408e-20)
(-0.477579 -0.309124 5.25058e-21)
(-0.375497 -0.302149 0)
(-0.274947 -0.295097 -1.06953e-20)
(-0.175872 -0.288144 0)
(-0.0781832 -0.2814 -1.62333e-20)
(0.0182076 -0.274902 -1.0855e-20)
(0.113351 -0.268661 -1.08908e-20)
(0.207272 -0.262722 1.09187e-20)
(0.300023 -0.257168 -1.64254e-20)
(0.391768 -0.252119 0)
(0.482805 -0.247604 0)
(0.573446 -0.243481 1.09631e-20)
(0.663816 -0.239342 1.64553e-20)
(0.753779 -0.234694 0)
(0.842926 -0.229086 -5.4808e-21)
(0.93067 -0.222264 0)
(1.01635 -0.214162 1.63354e-20)
(1.09933 -0.2049 1.68106e-23)
(1.17908 -0.194742 -1.47059e-23)
(1.25528 -0.184029 -1.07409e-20)
(1.32775 -0.1731 0)
(1.39643 -0.162232 1.06072e-20)
(1.46139 -0.15162 9.15204e-24)
(1.52275 -0.141387 0)
(1.58065 -0.131606 0)
(1.63524 -0.122288 0)
(1.6867 -0.113443 -1.0188e-20)
(1.73514 -0.105056 0)
(1.78073 -0.0971178 0)
(1.82359 -0.0896223 0)
(1.86386 -0.0825685 0)
(1.90166 -0.0759532 0)
(1.93713 -0.0697719 -9.58831e-21)
(1.97042 -0.0640166 0)
(2.00167 -0.0586758 -9.38767e-21)
(2.031 -0.053734 -9.28588e-21)
(2.05856 -0.0491724 9.18446e-21)
(2.08448 -0.0449699 0)
(2.10887 -0.0411038 8.98324e-21)
(2.13185 -0.0375516 0)
(2.15353 -0.0342912 8.7848e-21)
(2.174 -0.0313017 -8.68676e-21)
(2.19336 -0.0285639 -2.57657e-20)
(2.21167 -0.0260602 0)
(2.22901 -0.0237744 -2.51908e-20)
(2.24545 -0.0216914 -8.30089e-21)
(2.26104 -0.0197966 0)
(2.27584 -0.0180761 -1.62316e-20)
(2.28991 -0.0165163 -1.6048e-20)
(2.30328 -0.0151036 2.38e-20)
(2.31602 -0.0138252 0)
(2.32815 -0.0126685 7.75438e-21)
(2.33973 -0.0116222 7.66589e-21)
(2.35077 -0.0106753 2.27335e-20)
(2.36132 -0.00981629 0)
(2.3714 -0.0090355 0)
(2.38103 -0.00832471 0)
(2.39023 -0.00767652 7.23464e-21)
(2.39901 -0.00708443 0)
(2.40739 -0.00654264 0)
(2.41538 -0.00604595 -6.98597e-21)
(2.42299 -0.00558967 -6.90424e-21)
(2.43023 -0.0051696 0)
(2.43712 -0.00478187 0)
(2.44365 -0.00442306 -1.33261e-20)
(2.44985 -0.0040901 0)
(2.45572 -0.00378022 1.30108e-20)
(2.46128 -0.00349095 1.28548e-20)
(2.46654 -0.00322013 0)
(2.47151 -0.00296589 0)
(2.47619 -0.00272661 -1.23945e-20)
(2.48061 -0.00250094 -1.05171e-25)
(2.48476 -0.00228776 -9.16854e-26)
(2.48867 -0.00208611 0)
(2.49233 -0.00189507 -2.35929e-20)
(2.49576 -0.00171395 0)
(2.49897 -0.00154233 0)
(2.50196 -0.00137997 0)
(2.50475 -0.0012267 1.12151e-20)
(2.50734 -0.00108229 0)
(2.50973 -0.000946221 -2.18606e-20)
(2.51195 -0.000817833 -1.07894e-20)
(2.51398 -0.000696412 0)
(2.51585 -0.000581151 -1.05104e-20)
(2.51755 -0.000471239 0)
(2.5191 -0.000365867 0)
(2.5205 -0.000264238 -3.02962e-20)
(2.52176 -0.000165329 1.99266e-20)
(2.52288 -6.79788e-05 0)
(2.52388 2.94804e-05 1.93903e-20)
(2.52475 0.000128515 -9.5625e-21)
(2.5255 0.000232084 0)
(2.52612 0.000341782 0)
(2.52663 0.000463318 0)
(2.52701 0.000597129 -2.71212e-20)
(2.52727 0.000755704 0)
(2.52738 0.000933936 -8.78493e-21)
(2.52735 0.00116217 0)
(2.52714 0.00141539 0)
(2.52675 0.00177254 0)
(2.52607 0.00214539 0)
(2.52519 0.00274749 0)
(2.5238 0.00330108 0)
(2.5222 0.00439407 -1.58458e-20)
(2.51962 0.00520081 0)
(2.51694 0.00734837 -7.69094e-21)
(2.51219 0.00847341 2.27289e-20)
(2.50784 0.0130739 0)
(2.49893 0.0146186 0)
(2.49211 0.025493 -1.45065e-20)
(2.47528 0.0284265 -1.43286e-20)
(2.46584 0.0569155 1.41177e-20)
(2.43814 0.0672975 1.39796e-20)
(-0.000337405 -0.0297268 1.16245e-20)
(-0.0201547 -0.066006 1.15487e-20)
(-0.039167 -0.0754039 7.63705e-21)
(-0.0599964 -0.0758446 3.78273e-21)
(-0.0797457 -0.0765752 0)
(-0.0989833 -0.0774802 -7.43864e-21)
(-0.117472 -0.0781063 3.67729e-21)
(-0.135475 -0.0778829 0)
(-0.153045 -0.0761766 3.60679e-21)
(-0.170408 -0.0720838 0)
(-0.18789 -0.0644353 -7.01784e-21)
(-0.205973 -0.0518504 0)
(-0.225333 -0.0328411 -3.41756e-21)
(-0.246967 -0.00588662 -6.73129e-21)
(-0.272222 0.0303018 6.62668e-21)
(-0.302375 0.0765108 0)
(-0.339071 0.132692 6.42558e-21)
(-0.383096 0.197434 0)
(-0.436089 0.268462 0)
(-0.497467 0.341893 6.18737e-21)
(-0.567234 0.413716 0)
(-0.644931 0.479948 -6.96029e-23)
(-0.729162 0.537118 0)
(-0.817927 0.58277 0)
(-0.909454 0.615327 8.22087e-23)
(-1.00297 0.633413 5.97045e-21)
(-1.09785 0.637571 5.83842e-21)
(-1.19581 0.629992 5.89062e-21)
(-1.2959 0.614019 0)
(-1.41332 0.621706 1.14025e-20)
(-1.54541 0.653398 0)
(-1.66222 0.668682 5.4388e-21)
(-1.76211 0.666575 0)
(-1.84983 0.653066 0)
(-1.92725 0.629622 -5.09103e-21)
(-1.99572 0.596594 0)
(-2.05586 0.554928 4.84576e-21)
(-2.10838 0.50601 2.08752e-22)
(-2.15376 0.451328 -9.41929e-21)
(-2.19226 0.392464 8.96982e-21)
(-2.22375 0.331015 0)
(-2.2478 0.268224 0)
(-2.26397 0.2051 3.95658e-21)
(-2.27177 0.142354 0)
(-2.27081 0.0805401 4.21483e-21)
(-2.26075 0.0200708 -4.15009e-21)
(-2.2413 -0.0386768 -4.10075e-21)
(-2.21229 -0.095332 0)
(-2.17365 -0.14951 4.05229e-21)
(-2.12548 -0.200813 4.0539e-21)
(-2.06809 -0.248793 -7.83848e-21)
(-2.00194 -0.292903 4.10658e-21)
(-1.92765 -0.33266 4.1551e-21)
(-1.846 -0.367657 0)
(-1.75795 -0.397592 0)
(-1.66458 -0.422369 -4.36691e-21)
(-1.56698 -0.442078 0)
(-1.46618 -0.456952 0)
(-1.36309 -0.46738 9.25858e-21)
(-1.2585 -0.473821 9.43571e-21)
(-1.15304 -0.476768 0)
(-1.04722 -0.476721 0)
(-0.941444 -0.474135 0)
(-0.83606 -0.469423 0)
(-0.731386 -0.462962 1.02099e-20)
(-0.627746 -0.455062 -1.02766e-20)
(-0.525445 -0.446073 -1.0441e-20)
(-0.424745 -0.436338 -2.10262e-20)
(-0.325774 -0.426252 0)