# vtk DataFile Version 2.0
sampleSurface
ASCII
DATASET POLYDATA
POINTS 502 double
-0.0206 0 -0.0005
-0.0190172 0 -0.0005
-0.0190172 0 0.0005
-0.0206 0 0.0005
-0.0174976 0 -0.0005
-0.0174976 0 0.0005
-0.0160387 0 -0.0005
-0.0160387 0 0.0005
-0.0146381 0 -0.0005
-0.0146381 0 0.0005
-0.0132934 0 -0.0005
-0.0132934 0 0.0005
-0.0120025 0 -0.0005
-0.0120025 0 0.0005
-0.0107632 0 -0.0005
-0.0107632 0 0.0005
-0.00957337 0 -0.0005
-0.00957337 0 0.0005
-0.00843108 0 -0.0005
-0.00843108 0 0.0005
-0.00733443 0 -0.0005
-0.00733443 0 0.0005
-0.0062816 0 -0.0005
-0.0062816 0 0.0005
-0.00527083 0 -0.0005
-0.00527083 0 0.0005
-0.00430044 0 -0.0005
-0.00430044 0 0.0005
-0.00336883 0 -0.0005
-0.00336883 0 0.0005
-0.00247443 0 -0.0005
-0.00247443 0 0.0005
-0.00161577 0 -0.0005
-0.00161577 0 0.0005
-0.000791418 0 -0.0005
-0.000791418 0 0.0005
0 0 -0.0005
0 0 0.0005
0 -0.0254 -0.0005
0 -0.0254 0.0005
0 -0.0242711 0.0005
0 -0.0242711 -0.0005
0 -0.0231422 0.0005
0 -0.0231422 -0.0005
0 -0.0220133 0.0005
0 -0.0220133 -0.0005
0 -0.0208844 0.0005
0 -0.0208844 -0.0005
0 -0.0197556 0.0005
0 -0.0197556 -0.0005
0 -0.0186267 0.0005
0 -0.0186267 -0.0005
0 -0.0174978 0.0005
0 -0.0174978 -0.0005
0 -0.0163689 0.0005
0 -0.0163689 -0.0005
0 -0.01524 0.0005
0 -0.01524 -0.0005
0 -0.0141111 0.0005
0 -0.0141111 -0.0005
0 -0.0129822 0.0005
0 -0.0129822 -0.0005
0 -0.0118533 0.0005
0 -0.0118533 -0.0005
0 -0.0107244 0.0005
0 -0.0107244 -0.0005
0 -0.00959556 0.0005
0 -0.00959556 -0.0005
0 -0.00846667 0.0005
0 -0.00846667 -0.0005
0 -0.00726604 0.0005
0 -0.00726604 -0.0005
0 -0.00618989 0.0005
0 -0.00618989 -0.0005
0 -0.00522531 0.0005
0 -0.00522531 -0.0005
0 -0.00436073 0.0005
0 -0.00436073 -0.0005
0 -0.00358579 0.0005
0 -0.00358579 -0.0005
0 -0.00289118 0.0005
0 -0.00289118 -0.0005
0 -0.0022686 0.0005
0 -0.0022686 -0.0005
0 -0.00171055 0.0005
0 -0.00171055 -0.0005
0 -0.00121037 0.0005
0 -0.00121037 -0.0005
0 -0.000762037 0.0005
0 -0.000762037 -0.0005
0 -0.000360188 0.0005
0 -0.000360188 -0.0005
0.000528387 -0.0254 -0.0005
0.000528387 -0.0254 0.0005
0.00106088 -0.0254 -0.0005
0.00106088 -0.0254 0.0005
0.00159752 -0.0254 -0.0005
0.00159752 -0.0254 0.0005
0.00213833 -0.0254 -0.0005
0.00213833 -0.0254 0.0005
0.00268334 -0.0254 -0.0005
0.00268334 -0.0254 0.0005
0.00323259 -0.0254 -0.0005
0.00323259 -0.0254 0.0005
0.00378611 -0.0254 -0.0005
0.00378611 -0.0254 0.0005
0.00434393 -0.0254 -0.0005
0.00434393 -0.0254 0.0005
0.00490609 -0.0254 -0.0005
0.00490609 -0.0254 0.0005
0.00547262 -0.0254 -0.0005
0.00547262 -0.0254 0.0005
0.00604356 -0.0254 -0.0005
0.00604356 -0.0254 0.0005
0.00661893 -0.0254 -0.0005
0.00661893 -0.0254 0.0005
0.00719878 -0.0254 -0.0005
0.00719878 -0.0254 0.0005
0.00778313 -0.0254 -0.0005
0.00778313 -0.0254 0.0005
0.00837203 -0.0254 -0.0005
0.00837203 -0.0254 0.0005
0.00896551 -0.0254 -0.0005
0.00896551 -0.0254 0.0005
0.0095636 -0.0254 -0.0005
0.0095636 -0.0254 0.0005
0.0101663 -0.0254 -0.0005
0.0101663 -0.0254 0.0005
0.0107738 -0.0254 -0.0005
0.0107738 -0.0254 0.0005
0.0113859 -0.0254 -0.0005
0.0113859 -0.0254 0.0005
0.0120028 -0.0254 -0.0005
0.0120028 -0.0254 0.0005
0.0126245 -0.0254 -0.0005
0.0126245 -0.0254 0.0005
0.0132511 -0.0254 -0.0005
0.0132511 -0.0254 0.0005
0.0138825 -0.0254 -0.0005
0.0138825 -0.0254 0.0005
0.0145188 -0.0254 -0.0005
0.0145188 -0.0254 0.0005
0.0151601 -0.0254 -0.0005
0.0151601 -0.0254 0.0005
0.0158063 -0.0254 -0.0005
0.0158063 -0.0254 0.0005
0.0164576 -0.0254 -0.0005
0.0164576 -0.0254 0.0005
0.0171139 -0.0254 -0.0005
0.0171139 -0.0254 0.0005
0.0177754 -0.0254 -0.0005
0.0177754 -0.0254 0.0005
0.018442 -0.0254 -0.0005
0.018442 -0.0254 0.0005
0.0191137 -0.0254 -0.0005
0.0191137 -0.0254 0.0005
0.0197907 -0.0254 -0.0005
0.0197907 -0.0254 0.0005
0.020473 -0.0254 -0.0005
0.020473 -0.0254 0.0005
0.0211606 -0.0254 -0.0005
0.0211606 -0.0254 0.0005
0.0218535 -0.0254 -0.0005
0.0218535 -0.0254 0.0005
0.0225517 -0.0254 -0.0005
0.0225517 -0.0254 0.0005
0.0232555 -0.0254 -0.0005
0.0232555 -0.0254 0.0005
0.0239647 -0.0254 -0.0005
0.0239647 -0.0254 0.0005
0.0246794 -0.0254 -0.0005
0.0246794 -0.0254 0.0005
0.0253996 -0.0254 -0.0005
0.0253996 -0.0254 0.0005
0.0261255 -0.0254 -0.0005
0.0261255 -0.0254 0.0005
0.026857 -0.0254 -0.0005
0.026857 -0.0254 0.0005
0.0275942 -0.0254 -0.0005
0.0275942 -0.0254 0.0005
0.0283371 -0.0254 -0.0005
0.0283371 -0.0254 0.0005
0.0290858 -0.0254 -0.0005
0.0290858 -0.0254 0.0005
0.0298403 -0.0254 -0.0005
0.0298403 -0.0254 0.0005
0.0306007 -0.0254 -0.0005
0.0306007 -0.0254 0.0005
0.031367 -0.0254 -0.0005
0.031367 -0.0254 0.0005
0.0321393 -0.0254 -0.0005
0.0321393 -0.0254 0.0005
0.0329175 -0.0254 -0.0005
0.0329175 -0.0254 0.0005
0.0337019 -0.0254 -0.0005
0.0337019 -0.0254 0.0005
0.0344923 -0.0254 -0.0005
0.0344923 -0.0254 0.0005
0.0352888 -0.0254 -0.0005
0.0352888 -0.0254 0.0005
0.0360916 -0.0254 -0.0005
0.0360916 -0.0254 0.0005
0.0369006 -0.0254 -0.0005
0.0369006 -0.0254 0.0005
0.0377158 -0.0254 -0.0005
0.0377158 -0.0254 0.0005
0.0385375 -0.0254 -0.0005
0.0385375 -0.0254 0.0005
0.0393655 -0.0254 -0.0005
0.0393655 -0.0254 0.0005
0.0401999 -0.0254 -0.0005
0.0401999 -0.0254 0.0005
0.0410408 -0.0254 -0.0005
0.0410408 -0.0254 0.0005
0.0418883 -0.0254 -0.0005
0.0418883 -0.0254 0.0005
0.0427424 -0.0254 -0.0005
0.0427424 -0.0254 0.0005
0.0436031 -0.0254 -0.0005
0.0436031 -0.0254 0.0005
0.0444704 -0.0254 -0.0005
0.0444704 -0.0254 0.0005
0.0453446 -0.0254 -0.0005
0.0453446 -0.0254 0.0005
0.0462255 -0.0254 -0.0005
0.0462255 -0.0254 0.0005
0.0471133 -0.0254 -0.0005
0.0471133 -0.0254 0.0005
0.048008 -0.0254 -0.0005
0.048008 -0.0254 0.0005
0.0489096 -0.0254 -0.0005
0.0489096 -0.0254 0.0005
0.0498183 -0.0254 -0.0005
0.0498183 -0.0254 0.0005
0.050734 -0.0254 -0.0005
0.050734 -0.0254 0.0005
0.0516568 -0.0254 -0.0005
0.0516568 -0.0254 0.0005
0.0525868 -0.0254 -0.0005
0.0525868 -0.0254 0.0005
0.053524 -0.0254 -0.0005
0.053524 -0.0254 0.0005
0.0544686 -0.0254 -0.0005
0.0544686 -0.0254 0.0005
0.0554204 -0.0254 -0.0005
0.0554204 -0.0254 0.0005
0.0563797 -0.0254 -0.0005
0.0563797 -0.0254 0.0005
0.0573464 -0.0254 -0.0005
0.0573464 -0.0254 0.0005
0.0583206 -0.0254 -0.0005
0.0583206 -0.0254 0.0005
0.0593025 -0.0254 -0.0005
0.0593025 -0.0254 0.0005
0.0602919 -0.0254 -0.0005
0.0602919 -0.0254 0.0005
0.0612891 -0.0254 -0.0005
0.0612891 -0.0254 0.0005
0.0622939 -0.0254 -0.0005
0.0622939 -0.0254 0.0005
0.0633067 -0.0254 -0.0005
0.0633067 -0.0254 0.0005
0.0643272 -0.0254 -0.0005
0.0643272 -0.0254 0.0005
0.0653557 -0.0254 -0.0005
0.0653557 -0.0254 0.0005
0.0663923 -0.0254 -0.0005
0.0663923 -0.0254 0.0005
0.0674368 -0.0254 -0.0005
0.0674368 -0.0254 0.0005
0.0684895 -0.0254 -0.0005
0.0684895 -0.0254 0.0005
0.0695504 -0.0254 -0.0005
0.0695504 -0.0254 0.0005
0.0706195 -0.0254 -0.0005
0.0706195 -0.0254 0.0005
0.0716969 -0.0254 -0.0005
0.0716969 -0.0254 0.0005
0.0727828 -0.0254 -0.0005
0.0727828 -0.0254 0.0005
0.073877 -0.0254 -0.0005
0.073877 -0.0254 0.0005
0.0749798 -0.0254 -0.0005
0.0749798 -0.0254 0.0005
0.0760911 -0.0254 -0.0005
0.0760911 -0.0254 0.0005
0.0772111 -0.0254 -0.0005
0.0772111 -0.0254 0.0005
0.0783398 -0.0254 -0.0005
0.0783398 -0.0254 0.0005
0.0794772 -0.0254 -0.0005
0.0794772 -0.0254 0.0005
0.0806235 -0.0254 -0.0005
0.0806235 -0.0254 0.0005
0.0817787 -0.0254 -0.0005
0.0817787 -0.0254 0.0005
0.0829429 -0.0254 -0.0005
0.0829429 -0.0254 0.0005
0.0841162 -0.0254 -0.0005
0.0841162 -0.0254 0.0005
0.0852985 -0.0254 -0.0005
0.0852985 -0.0254 0.0005
0.0864901 -0.0254 -0.0005
0.0864901 -0.0254 0.0005
0.0876909 -0.0254 -0.0005
0.0876909 -0.0254 0.0005
0.0889011 -0.0254 -0.0005
0.0889011 -0.0254 0.0005
0.0901207 -0.0254 -0.0005
0.0901207 -0.0254 0.0005
0.0913497 -0.0254 -0.0005
0.0913497 -0.0254 0.0005
0.0925883 -0.0254 -0.0005
0.0925883 -0.0254 0.0005
0.0938366 -0.0254 -0.0005
0.0938366 -0.0254 0.0005
0.0950945 -0.0254 -0.0005
0.0950945 -0.0254 0.0005
0.0963622 -0.0254 -0.0005
0.0963622 -0.0254 0.0005
0.0976398 -0.0254 -0.0005
0.0976398 -0.0254 0.0005
0.0989273 -0.0254 -0.0005
0.0989273 -0.0254 0.0005
0.100225 -0.0254 -0.0005
0.100225 -0.0254 0.0005
0.101532 -0.0254 -0.0005
0.101532 -0.0254 0.0005
0.10285 -0.0254 -0.0005
0.10285 -0.0254 0.0005
0.104178 -0.0254 -0.0005
0.104178 -0.0254 0.0005
0.105517 -0.0254 -0.0005
0.105517 -0.0254 0.0005
0.106865 -0.0254 -0.0005
0.106865 -0.0254 0.0005
0.108225 -0.0254 -0.0005
0.108225 -0.0254 0.0005
0.109594 -0.0254 -0.0005
0.109594 -0.0254 0.0005
0.110975 -0.0254 -0.0005
0.110975 -0.0254 0.0005
0.112366 -0.0254 -0.0005
0.112366 -0.0254 0.0005
0.113768 -0.0254 -0.0005
0.113768 -0.0254 0.0005
0.115181 -0.0254 -0.0005
0.115181 -0.0254 0.0005
0.116605 -0.0254 -0.0005
0.116605 -0.0254 0.0005
0.11804 -0.0254 -0.0005
0.11804 -0.0254 0.0005
0.119486 -0.0254 -0.0005
0.119486 -0.0254 0.0005
0.120943 -0.0254 -0.0005
0.120943 -0.0254 0.0005
0.122412 -0.0254 -0.0005
0.122412 -0.0254 0.0005
0.123892 -0.0254 -0.0005
0.123892 -0.0254 0.0005
0.125384 -0.0254 -0.0005
0.125384 -0.0254 0.0005
0.126887 -0.0254 -0.0005
0.126887 -0.0254 0.0005
0.128402 -0.0254 -0.0005
0.128402 -0.0254 0.0005
0.129928 -0.0254 -0.0005
0.129928 -0.0254 0.0005
0.131467 -0.0254 -0.0005
0.131467 -0.0254 0.0005
0.133017 -0.0254 -0.0005
0.133017 -0.0254 0.0005
0.13458 -0.0254 -0.0005
0.13458 -0.0254 0.0005
0.136155 -0.0254 -0.0005
0.136155 -0.0254 0.0005
0.137742 -0.0254 -0.0005
0.137742 -0.0254 0.0005
0.139341 -0.0254 -0.0005
0.139341 -0.0254 0.0005
0.140953 -0.0254 -0.0005
0.140953 -0.0254 0.0005
0.142577 -0.0254 -0.0005
0.142577 -0.0254 0.0005
0.144214 -0.0254 -0.0005
0.144214 -0.0254 0.0005
0.145863 -0.0254 -0.0005
0.145863 -0.0254 0.0005
0.147526 -0.0254 -0.0005
0.147526 -0.0254 0.0005
0.149201 -0.0254 -0.0005
0.149201 -0.0254 0.0005
0.15089 -0.0254 -0.0005
0.15089 -0.0254 0.0005
0.152591 -0.0254 -0.0005
0.152591 -0.0254 0.0005
0.154306 -0.0254 -0.0005
0.154306 -0.0254 0.0005
0.156034 -0.0254 -0.0005
0.156034 -0.0254 0.0005
0.157775 -0.0254 -0.0005
0.157775 -0.0254 0.0005
0.159531 -0.0254 -0.0005
0.159531 -0.0254 0.0005
0.161299 -0.0254 -0.0005
0.161299 -0.0254 0.0005
0.163082 -0.0254 -0.0005
0.163082 -0.0254 0.0005
0.164878 -0.0254 -0.0005
0.164878 -0.0254 0.0005
0.166688 -0.0254 -0.0005
0.166688 -0.0254 0.0005
0.168513 -0.0254 -0.0005
0.168513 -0.0254 0.0005
0.170351 -0.0254 -0.0005
0.170351 -0.0254 0.0005
0.172204 -0.0254 -0.0005
0.172204 -0.0254 0.0005
0.174071 -0.0254 -0.0005
0.174071 -0.0254 0.0005
0.175953 -0.0254 -0.0005
0.175953 -0.0254 0.0005
0.177849 -0.0254 -0.0005
0.177849 -0.0254 0.0005
0.17976 -0.0254 -0.0005
0.17976 -0.0254 0.0005
0.181686 -0.0254 -0.0005
0.181686 -0.0254 0.0005
0.183627 -0.0254 -0.0005
0.183627 -0.0254 0.0005
0.185583 -0.0254 -0.0005
0.185583 -0.0254 0.0005
0.187555 -0.0254 -0.0005
0.187555 -0.0254 0.0005
0.189541 -0.0254 -0.0005
0.189541 -0.0254 0.0005
0.191543 -0.0254 -0.0005
0.191543 -0.0254 0.0005
0.193561 -0.0254 -0.0005
0.193561 -0.0254 0.0005
0.195594 -0.0254 -0.0005
0.195594 -0.0254 0.0005
0.197643 -0.0254 -0.0005
0.197643 -0.0254 0.0005
0.199708 -0.0254 -0.0005
0.199708 -0.0254 0.0005
0.201789 -0.0254 -0.0005
0.201789 -0.0254 0.0005
0.203886 -0.0254 -0.0005
0.203886 -0.0254 0.0005
0.206 -0.0254 -0.0005
0.206 -0.0254 0.0005
0.208047 -0.0251856 -0.0005
0.208047 -0.0251856 0.0005
0.210173 -0.0249628 -0.0005
0.210173 -0.0249628 0.0005
0.212382 -0.0247314 -0.0005
0.212382 -0.0247314 0.0005
0.214677 -0.024491 -0.0005
0.214677 -0.024491 0.0005
0.217061 -0.0242412 -0.0005
0.217061 -0.0242412 0.0005
0.219538 -0.0239817 -0.0005
0.219538 -0.0239817 0.0005
0.222112 -0.0237121 -0.0005
0.222112 -0.0237121 0.0005
0.224785 -0.023432 -0.0005
0.224785 -0.023432 0.0005
0.227563 -0.023141 -0.0005
0.227563 -0.023141 0.0005
0.230449 -0.0228387 -0.0005
0.230449 -0.0228387 0.0005
0.233447 -0.0225246 -0.0005
0.233447 -0.0225246 0.0005
0.236562 -0.0221983 -0.0005
0.236562 -0.0221983 0.0005
0.239797 -0.0218593 -0.0005
0.239797 -0.0218593 0.0005
0.243159 -0.0215071 -0.0005
0.243159 -0.0215071 0.0005
0.246652 -0.0211412 -0.0005
0.246652 -0.0211412 0.0005
0.250281 -0.0207611 -0.0005
0.250281 -0.0207611 0.0005
0.254051 -0.0203661 -0.0005
0.254051 -0.0203661 0.0005
0.257967 -0.0199558 -0.0005
0.257967 -0.0199558 0.0005
0.262036 -0.0195295 -0.0005
0.262036 -0.0195295 0.0005
0.266264 -0.0190867 -0.0005
0.266264 -0.0190867 0.0005
0.270655 -0.0186266 -0.0005
0.270655 -0.0186266 0.0005
0.275218 -0.0181486 -0.0005
0.275218 -0.0181486 0.0005
0.279959 -0.017652 -0.0005
0.279959 -0.017652 0.0005
0.284883 -0.017136 -0.0005
0.284883 -0.017136 0.0005
0.29 -0.0166 -0.0005
0.29 -0.0166 0.0005

POLYGONS 250 1250
4 0 1 2 3
4 1 4 5 2
4 4 6 7 5
4 6 8 9 7
4 8 10 11 9
4 10 12 13 11
4 12 14 15 13
4 14 16 17 15
4 16 18 19 17
4 18 20 21 19
4 20 22 23 21
4 22 24 25 23
4 24 26 27 25
4 26 28 29 27
4 28 30 31 29
4 30 32 33 31
4 32 34 35 33
4 34 36 37 35
4 38 39 40 41
4 41 40 42 43
4 43 42 44 45
4 45 44 46 47
4 47 46 48 49
4 49 48 50 51
4 51 50 52 53
4 53 52 54 55
4 55 54 56 57
4 57 56 58 59
4 59 58 60 61
4 61 60 62 63
4 63 62 64 65
4 65 64 66 67
4 67 66 68 69
4 69 68 70 71
4 71 70 72 73
4 73 72 74 75
4 75 74 76 77
4 77 76 78 79
4 79 78 80 81
4 81 80 82 83
4 83 82 84 85
4 85 84 86 87
4 87 86 88 89
4 89 88 90 91
4 91 90 37 36
4 38 92 93 39
4 92 94 95 93
4 94 96 97 95
4 96 98 99 97
4 98 100 101 99
4 100 102 103 101
4 102 104 105 103
4 104 106 107 105
4 106 108 109 107
4 108 110 111 109
4 110 112 113 111
4 112 114 115 113
4 114 116 117 115
4 116 118 119 117
4 118 120 121 119
4 120 122 123 121
4 122 124 125 123
4 124 126 127 125
4 126 128 129 127
4 128 130 131 129
4 130 132 133 131
4 132 134 135 133
4 134 136 137 135
4 136 138 139 137
4 138 140 141 139
4 140 142 143 141
4 142 144 145 143
4 144 146 147 145
4 146 148 149 147
4 148 150 151 149
4 150 152 153 151
4 152 154 155 153
4 154 156 157 155
4 156 158 159 157
4 158 160 161 159
4 160 162 163 161
4 162 164 165 163
4 164 166 167 165
4 166 168 169 167
4 168 170 171 169
4 170 172 173 171
4 172 174 175 173
4 174 176 177 175
4 176 178 179 177
4 178 180 181 179
4 180 182 183 181
4 182 184 185 183
4 184 186 187 185
4 186 188 189 187
4 188 190 191 189
4 190 192 193 191
4 192 194 195 193
4 194 196 197 195
4 196 198 199 197
4 198 200 201 199
4 200 202 203 201
4 202 204 205 203
4 204 206 207 205
4 206 208 209 207
4 208 210 211 209
4 210 212 213 211
4 212 214 215 213
4 214 216 217 215
4 216 218 219 217
4 218 220 221 219
4 220 222 223 221
4 222 224 225 223
4 224 226 227 225
4 226 228 229 227
4 228 230 231 229
4 230 232 233 231
4 232 234 235 233
4 234 236 237 235
4 236 238 239 237
4 238 240 241 239
4 240 242 243 241
4 242 244 245 243
4 244 246 247 245
4 246 248 249 247
4 248 250 251 249
4 250 252 253 251
4 252 254 255 253
4 254 256 257 255
4 256 258 259 257
4 258 260 261 259
4 260 262 263 261
4 262 264 265 263
4 264 266 267 265
4 266 268 269 267
4 268 270 271 269
4 270 272 273 271
4 272 274 275 273
4 274 276 277 275
4 276 278 279 277
4 278 280 281 279
4 280 282 283 281
4 282 284 285 283
4 284 286 287 285
4 286 288 289 287
4 288 290 291 289
4 290 292 293 291
4 292 294 295 293
4 294 296 297 295
4 296 298 299 297
4 298 300 301 299
4 300 302 303 301
4 302 304 305 303
4 304 306 307 305
4 306 308 309 307
4 308 310 311 309
4 310 312 313 311
4 312 314 315 313
4 314 316 317 315
4 316 318 319 317
4 318 320 321 319
4 320 322 323 321
4 322 324 325 323
4 324 326 327 325
4 326 328 329 327
4 328 330 331 329
4 330 332 333 331
4 332 334 335 333
4 334 336 337 335
4 336 338 339 337
4 338 340 341 339
4 340 342 343 341
4 342 344 345 343
4 344 346 347 345
4 346 348 349 347
4 348 350 351 349
4 350 352 353 351
4 352 354 355 353
4 354 356 357 355
4 356 358 359 357
4 358 360 361 359
4 360 362 363 361
4 362 364 365 363
4 364 366 367 365
4 366 368 369 367
4 368 370 371 369
4 370 372 373 371
4 372 374 375 373
4 374 376 377 375
4 376 378 379 377
4 378 380 381 379
4 380 382 383 381
4 382 384 385 383
4 384 386 387 385
4 386 388 389 387
4 388 390 391 389
4 390 392 393 391
4 392 394 395 393
4 394 396 397 395
4 396 398 399 397
4 398 400 401 399
4 400 402 403 401
4 402 404 405 403
4 404 406 407 405
4 406 408 409 407
4 408 410 411 409
4 410 412 413 411
4 412 414 415 413
4 414 416 417 415
4 416 418 419 417
4 418 420 421 419
4 420 422 423 421
4 422 424 425 423
4 424 426 427 425
4 426 428 429 427
4 428 430 431 429
4 430 432 433 431
4 432 434 435 433
4 434 436 437 435
4 436 438 439 437
4 438 440 441 439
4 440 442 443 441
4 442 444 445 443
4 444 446 447 445
4 446 448 449 447
4 448 450 451 449
4 450 452 453 451
4 452 454 455 453
4 454 456 457 455
4 456 458 459 457
4 458 460 461 459
4 460 462 463 461
4 462 464 465 463
4 464 466 467 465
4 466 468 469 467
4 468 470 471 469
4 470 472 473 471
4 472 474 475 473
4 474 476 477 475
4 476 478 479 477
4 478 480 481 479
4 480 482 483 481
4 482 484 485 483
4 484 486 487 485
4 486 488 489 487
4 488 490 491 489
4 490 492 493 491
4 492 494 495 493
4 494 496 497 495
4 496 498 499 497
4 498 500 501 499
POINT_DATA 502
FIELD attributes 1
U 3 502 float
1.57122 0.102332 -0.011192
0.78748 0.0507781 -0.00551541
0.78748 0.0507781 -0.00551541
1.57122 0.102332 -0.011192
0.0244578 0.000643345 0
0.0244578 0.000643345 0
0.0217574 0.000547932 0
0.0217574 0.000547932 0
0.0194539 0.000463938 0
0.0194539 0.000463938 0
0.0173166 0.000396303 0
0.0173166 0.000396303 0
0.0154025 0.000332586 0
0.0154025 0.000332586 0
0.0137204 0.000293328 0
0.0137204 0.000293328 0
0.0121862 0.000274711 0
0.0121862 0.000274711 0
0.0107705 0.000243636 0
0.0107705 0.000243636 0
0.00951413 0.000186911 0
0.00951413 0.000186911 0
0.00845994 0.000120377 0
0.00845994 0.000120377 0
0.00760744 6.64578e-05 0
0.00760744 6.64578e-05 0
0.00692326 3.97147e-05 0
0.00692326 3.97147e-05 0
0.006346 3.80539e-05 0
0.006346 3.80539e-05 0
0.00579379 4.39896e-05 0
0.00579379 4.39896e-05 0
0.00529963 7.14034e-05 0
0.00529963 7.14034e-05 0
0.00459928 5.61595e-05 0
0.00459928 5.61595e-05 0
0.00192421 -0.000106379 0
0.00192421 -0.000106379 0
-0.00021355 0.000575944 2.88301e-23
-0.00021355 0.000575944 2.88301e-23
-5.28086e-05 0.00154414 -7.7958e-23
-5.28086e-05 0.00154414 -7.7958e-23
0.00024014 0.00191392 -9.2468e-23
0.00024014 0.00191392 -9.2468e-23
0.000229798 0.000496738 1.85139e-22
0.000229798 0.000496738 1.85139e-22
-3.25807e-05 -6.44187e-05 6.1675e-23
-3.25807e-05 -6.44187e-05 6.1675e-23
-0.000249631 0.000218828 -1.23559e-22
-0.000249631 0.000218828 -1.23559e-22
-0.000185051 0.000152369 0
-0.000185051 0.000152369 0
0.000363908 -0.00141177 -2.48117e-22
0.000363908 -0.00141177 -2.48117e-22
0.000603978 -0.00393277 -7.91064e-26
0.000603978 -0.00393277 -7.91064e-26
0.000216738 -0.00473442 2.48038e-22
0.000216738 -0.00473442 2.48038e-22
-8.62631e-05 -0.00416448 -2.495e-22
-8.62631e-05 -0.00416448 -2.495e-22
-0.000196872 -0.00320423 9.44216e-26
-0.000196872 -0.00320423 9.44216e-26
-0.000276184 -0.00183617 2.49594e-22
-0.000276184 -0.00183617 2.49594e-22
-0.000318177 -0.000231327 2.50298e-22
-0.000318177 -0.000231327 2.50298e-22
-0.000309352 0.00146306 1.40778e-25
-0.000309352 0.00146306 1.40778e-25
-0.000249929 0.00300287 -2.54591e-22
-0.000249929 0.00300287 -2.54591e-22
-0.000135809 0.00424444 0
-0.000135809 0.00424444 0
1.65771e-05 0.0048274 0
1.65771e-05 0.0048274 0
0.000167058 0.00472769 0
0.000167058 0.00472769 0
0.00027239 0.00412998 0
0.00027239 0.00412998 0
0.000316389 0.00329658 0
0.000316389 0.00329658 0
0.000316397 0.00246499 0
0.000316397 0.00246499 0
0.000304832 0.00175593 0
0.000304832 0.00175593 0
0.000302838 0.00117514 0
0.000302838 0.00117514 0
0.000251415 0.000624573 0
0.000251415 0.000624573 0
8.95464e-05 0.000215665 0
8.95464e-05 0.000215665 0
3.83938e-05 -5.75828e-05 0
3.83938e-05 -5.75828e-05 0
-0.000440722 0.000553789 1.42189e-25
-0.000440722 0.000553789 1.42189e-25
-0.000835375 0.00044999 -1.43096e-23
-0.000835375 0.00044999 -1.43096e-23
-0.00110556 0.000288826 0
-0.00110556 0.000288826 0
-0.00123449 0.000124541 0
-0.00123449 0.000124541 0
-0.00122022 -3.43778e-05 1.38556e-23
-0.00122022 -3.43778e-05 1.38556e-23
-0.00109633 -0.000166135 1.38805e-23
-0.00109633 -0.000166135 1.38805e-23
-0.000877506 -0.000276563 0
-0.000877506 -0.000276563 0
-0.000570914 -0.000366788 0
-0.000570914 -0.000366788 0
-0.00019635 -0.00043078 0
-0.00019635 -0.00043078 0
0.000231603 -0.000470255 -1.34263e-23
0.000231603 -0.000470255 -1.34263e-23
0.000693752 -0.000488099 -1.34519e-23
0.000693752 -0.000488099 -1.34519e-23
0.00116949 -0.00049112 0
0.00116949 -0.00049112 0
0.00164329 -0.000481412 0
0.00164329 -0.000481412 0
0.00210834 -0.00046153 0
0.00210834 -0.00046153 0
0.00255755 -0.000434221 -1.27947e-23
0.00255755 -0.000434221 -1.27947e-23
0.00298297 -0.000401287 -1.28205e-23
0.00298297 -0.000401287 -1.28205e-23
0.0033783 -0.000363997 0
0.0033783 -0.000363997 0
0.00373945 -0.000323419 0
0.00373945 -0.000323419 0
0.00406325 -0.000280222 0
0.00406325 -0.000280222 0
0.00434694 -0.00023498 0
0.00434694 -0.00023498 0
0.00458808 -0.000188126 0
0.00458808 -0.000188126 0
0.00478436 -0.000139935 0
0.00478436 -0.000139935 0
0.00493376 -9.08705e-05 -1.17614e-23
0.00493376 -9.08705e-05 -1.17614e-23
0.00503357 -4.07718e-05 -1.28341e-25
0.00503357 -4.07718e-05 -1.28341e-25
0.00508227 1.07421e-05 1.20482e-25
0.00508227 1.07421e-05 1.20482e-25
0.00507522 6.53179e-05 -2.30684e-23
0.00507522 6.53179e-05 -2.30684e-23
0.0050086 0.000123848 -1.15039e-23
0.0050086 0.000123848 -1.15039e-23
0.00488168 0.000186398 0
0.00488168 0.000186398 0
0.00469315 0.000251398 1.12612e-23
0.00469315 0.000251398 1.12612e-23
0.00444068 0.000320436 2.24883e-23
0.00444068 0.000320436 2.24883e-23
0.00411844 0.000390098 1.12272e-23
0.00411844 0.000390098 1.12272e-23
0.00372875 0.000466773 0
0.00372875 0.000466773 0
0.00325288 0.000544891 1.10268e-23
0.00325288 0.000544891 1.10268e-23
0.00271357 0.000613878 1.1054e-23
0.00271357 0.000613878 1.1054e-23
0.00207268 0.000750752 0
0.00207268 0.000750752 0
0.00129357 0.000702092 -1.07965e-23
0.00129357 0.000702092 -1.07965e-23
0.000615268 0.000224343 -1.0824e-23
0.000615268 0.000224343 -1.0824e-23
0.000171986 -0.000188902 -1.06068e-23
0.000171986 -0.000188902 -1.06068e-23
-0.000135216 -0.000202954 -3.16541e-23
-0.000135216 -0.000202954 -3.16541e-23
-0.000353432 -5.28656e-05 -2.10749e-23
-0.000353432 -5.28656e-05 -2.10749e-23
-0.000493101 5.31737e-05 0
-0.000493101 5.31737e-05 0
-0.000569528 8.14817e-05 0
-0.000569528 8.14817e-05 0
-0.000592535 6.40269e-05 0
-0.000592535 6.40269e-05 0
-0.000556022 2.04189e-05 0
-0.000556022 2.04189e-05 0
-0.000455614 -3.11619e-05 -1.997e-23
-0.000455614 -3.11619e-05 -1.997e-23
-0.000300257 -7.62214e-05 -3.9856e-23
-0.000300257 -7.62214e-05 -3.9856e-23
-9.85339e-05 -0.00011501 -3.95745e-23
-9.85339e-05 -0.00011501 -3.95745e-23
0.000158048 -0.000151149 -1.97442e-23
0.000158048 -0.000151149 -1.97442e-23
0.000471042 -0.000163874 1.93952e-23
0.000471042 -0.000163874 1.93952e-23
0.00079323 -0.000103422 1.94514e-23
0.00079323 -0.000103422 1.94514e-23
0.00101942 2.90816e-05 -1.90775e-23
0.00101942 2.90816e-05 -1.90775e-23
0.0010377 0.000128774 -3.80386e-23
0.0010377 0.000128774 -3.80386e-23
0.0009389 0.000121551 -1.89611e-23
0.0009389 0.000121551 -1.89611e-23
0.00100803 2.22098e-05 0
0.00100803 2.22098e-05 0
0.00132645 -0.000166274 0
0.00132645 -0.000166274 0
0.00171152 -0.000480641 -1.82399e-23
0.00171152 -0.000480641 -1.82399e-23
0.00197598 -0.000806119 -1.82964e-23
0.00197598 -0.000806119 -1.82964e-23
0.00202338 -0.000802377 0
0.00202338 -0.000802377 0
0.0017452 -0.000304194 0
0.0017452 -0.000304194 0
0.000980344 0.000376152 0
0.000980344 0.000376152 0
-0.000174354 0.00079471 0
-0.000174354 0.00079471 0
-0.00141932 0.000897341 0
-0.00141932 0.000897341 0
-0.00260163 0.000865307 0
-0.00260163 0.000865307 0
-0.00368195 0.00078746 0
-0.00368195 0.00078746 0
-0.00464695 0.00069617 1.61233e-23
-0.00464695 0.00069617 1.61233e-23
-0.0055007 0.000608421 1.61775e-23
-0.0055007 0.000608421 1.61775e-23
-0.00625587 0.000531462 0
-0.00625587 0.000531462 0
-0.00692714 0.000466874 -1.50642e-23
-0.00692714 0.000466874 -1.50642e-23
-0.00752795 0.000413415 -2.98456e-23
-0.00752795 0.000413415 -2.98456e-23
-0.00806899 0.000368512 -1.47806e-23
-0.00806899 0.000368512 -1.47806e-23
-0.0085575 0.00032915 1.40993e-23
-0.0085575 0.00032915 1.40993e-23
-0.00899727 0.000292593 3.42506e-25
-0.00899727 0.000292593 3.42506e-25
-0.00938912 0.000256815 -1.38559e-23
-0.00938912 0.000256815 -1.38559e-23
-0.0097317 0.000220571 1.32742e-23
-0.0097317 0.000220571 1.32742e-23
-0.0100223 0.000183284 1.33224e-23
-0.0100223 0.000183284 1.33224e-23
-0.0102577 0.000144896 0
-0.0102577 0.000144896 0
-0.0104349 0.000105891 -1.26389e-23
-0.0104349 0.000105891 -1.26389e-23
-0.0105513 6.73128e-05 -1.26859e-23
-0.0105513 6.73128e-05 -1.26859e-23
-0.0106054 3.04327e-05 1.23441e-23
-0.0106054 3.04327e-05 1.23441e-23
-0.0105988 -3.83081e-06 1.23907e-23
-0.0105988 -3.83081e-06 1.23907e-23
-0.0105365 -3.51967e-05 -1.21536e-23
-0.0105365 -3.51967e-05 -1.21536e-23
-0.0104213 -6.36171e-05 -2.42943e-23
-0.0104213 -6.36171e-05 -2.42943e-23
-0.0102567 -8.89339e-05 -2.41954e-23
-0.0102567 -8.89339e-05 -2.41954e-23
-0.0100477 -0.000111 -3.61653e-23
-0.0100477 -0.000111 -3.61653e-23
-0.00979933 -0.000129709 -1.1347e-25
-0.00979933 -0.000129709 -1.1347e-25
-0.00951729 -0.000145066 2.414e-23
-0.00951729 -0.000145066 2.414e-23
-0.00920694 -0.000157203 0
-0.00920694 -0.000157203 0
-0.00887365 -0.000166351 0
-0.00887365 -0.000166351 0
-0.00852231 -0.000172787 2.41093e-23
-0.00852231 -0.000172787 2.41093e-23
-0.00815762 -0.000176799 4.8343e-23
-0.00815762 -0.000176799 4.8343e-23
-0.00778377 -0.000178687 7.67659e-26
-0.00778377 -0.000178687 7.67659e-26
-0.00740458 -0.000178738 -2.42577e-23
-0.00740458 -0.000178738 -2.42577e-23
-0.00702336 -0.000177272 2.41822e-23
-0.00702336 -0.000177272 2.41822e-23
-0.00664283 -0.000174624 4.84646e-23
-0.00664283 -0.000174624 4.84646e-23
-0.00626501 -0.000171164 4.84523e-23
-0.00626501 -0.000171164 4.84523e-23
-0.00589115 -0.000167287 2.42721e-23
-0.00589115 -0.000167287 2.42721e-23
-0.00552172 -0.000163388 0
-0.00552172 -0.000163388 0
-0.00515639 -0.000159836 0
-0.00515639 -0.000159836 0
-0.00479408 -0.000156943 2.40136e-23
-0.00479408 -0.000156943 2.40136e-23
-0.00443312 -0.000154931 2.41187e-23
-0.00443312 -0.000154931 2.41187e-23
-0.00407145 -0.000153896 0
-0.00407145 -0.000153896 0
-0.00370698 -0.000153778 -2.37915e-23
-0.00370698 -0.000153778 -2.37915e-23
-0.00333799 -0.000154365 -2.38977e-23
-0.00333799 -0.000154365 -2.38977e-23
-0.00296336 -0.000155314 0
-0.00296336 -0.000155314 0
-0.00258281 -0.000156189 -2.34855e-23
-0.00258281 -0.000156189 -2.34855e-23
-0.002197 -0.000156497 -2.35925e-23
-0.002197 -0.000156497 -2.35925e-23
-0.00180761 -0.000155749 0
-0.00180761 -0.000155749 0
-0.00141724 -0.000153527 2.30845e-23
-0.00141724 -0.000153527 2.30845e-23
-0.00102923 -0.000149571 4.61186e-23
-0.00102923 -0.000149571 4.61186e-23
-0.000647639 -0.000143865 2.3034e-23
-0.000647639 -0.000143865 2.3034e-23
-0.000277371 -0.000136406 -2.25728e-23
-0.000277371 -0.000136406 -2.25728e-23
7.66916e-05 -0.000127503 -2.26795e-23
7.66916e-05 -0.000127503 -2.26795e-23
0.000411123 -0.000117347 2.21559e-23
0.000411123 -0.000117347 2.21559e-23
0.000723459 -0.0001061 2.2262e-23
0.000723459 -0.0001061 2.2262e-23
0.00101159 -9.43561e-05 2.16997e-23
0.00101159 -9.43561e-05 2.16997e-23
0.00127432 -8.25842e-05 4.32665e-23
0.00127432 -8.25842e-05 4.32665e-23
0.00151156 -7.12154e-05 2.15663e-23
0.00151156 -7.12154e-05 2.15663e-23
0.00172414 -6.05839e-05 0
0.00172414 -6.05839e-05 0
0.00191363 -5.0875e-05 0
0.00191363 -5.0875e-05 0
0.00208203 -4.21406e-05 0
0.00208203 -4.21406e-05 0
0.00223153 -3.43198e-05 0
0.00223153 -3.43198e-05 0
0.00236416 -2.72011e-05 0
0.00236416 -2.72011e-05 0
0.00248145 -2.05171e-05 0
0.00248145 -2.05171e-05 0
0.00258431 -1.40915e-05 1.94825e-23
0.00258431 -1.40915e-05 1.94825e-23
0.0026731 -7.68095e-06 3.44646e-25
0.0026731 -7.68095e-06 3.44646e-25
0.00274737 -1.03613e-06 -1.93355e-23
0.00274737 -1.03613e-06 -1.93355e-23
0.00280632 5.57271e-06 0
0.00280632 5.57271e-06 0
0.00284964 1.18671e-05 0
0.00284964 1.18671e-05 0
0.00287666 1.83941e-05 0
0.00287666 1.83941e-05 0
0.00288589 2.53078e-05 -3.60735e-23
0.00288589 2.53078e-05 -3.60735e-23
0.00287752 3.14898e-05 -3.6263e-23
0.00287752 3.14898e-05 -3.6263e-23
0.00285356 3.59568e-05 3.51388e-23
0.00285356 3.59568e-05 3.51388e-23
0.00281656 3.86428e-05 6.48124e-25
0.00281656 3.86428e-05 6.48124e-25
0.00276934 3.98575e-05 -3.4862e-23
0.00276934 3.98575e-05 -3.4862e-23
0.0027146 3.99182e-05 0
0.0027146 3.99182e-05 0
0.00265472 3.90584e-05 0
0.00265472 3.90584e-05 0
0.00259184 3.74316e-05 3.28671e-23
0.00259184 3.74316e-05 3.28671e-23
0.0025279 3.51626e-05 6.54693e-23
0.0025279 3.51626e-05 6.54693e-23
0.00246459 3.24043e-05 3.26006e-23
0.00246459 3.24043e-05 3.26006e-23
0.00240335 2.93588e-05 3.15473e-23
0.00240335 2.93588e-05 3.15473e-23
0.00234524 2.62376e-05 6.28354e-23
0.00234524 2.62376e-05 6.28354e-23
0.00229098 2.3211e-05 6.01775e-25
0.00229098 2.3211e-05 6.01775e-25
0.00224094 2.0385e-05 -3.08553e-23
0.00224094 2.0385e-05 -3.08553e-23
0.00219524 1.78075e-05 0
0.00219524 1.78075e-05 0
0.00215385 1.54921e-05 -2.94152e-23
0.00215385 1.54921e-05 -2.94152e-23
0.00211663 1.34412e-05 -2.95808e-23
0.00211663 1.34412e-05 -2.95808e-23
0.00208339 1.16573e-05 0
0.00208339 1.16573e-05 0
0.00205388 1.01417e-05 0
0.00205388 1.01417e-05 0
0.00202783 8.88867e-06 0
0.00202783 8.88867e-06 0
0.00200493 7.88087e-06 2.73562e-23
0.00200493 7.88087e-06 2.73562e-23
0.00198487 7.08851e-06 5.44654e-23
0.00198487 7.08851e-06 5.44654e-23
0.00196732 6.47222e-06 2.71075e-23
0.00196732 6.47222e-06 2.71075e-23
0.00195198 5.98805e-06 2.61502e-23
0.00195198 5.98805e-06 2.61502e-23
0.00193858 5.59385e-06 2.63023e-23
0.00193858 5.59385e-06 2.63023e-23
0.00192686 5.25482e-06 0
0.00192686 5.25482e-06 0
0.00191662 4.94672e-06 2.49635e-23
0.00191662 4.94672e-06 2.49635e-23
0.0019077 4.65501e-06 2.51104e-23
0.0019077 4.65501e-06 2.51104e-23
0.00189992 4.37351e-06 2.41824e-23
0.00189992 4.37351e-06 2.41824e-23
0.00189316 4.10194e-06 2.43258e-23
0.00189316 4.10194e-06 2.43258e-23
0.00188722 3.8467e-06 0
0.00188722 3.8467e-06 0
0.00188198 3.61815e-06 2.30249e-23
0.00188198 3.61815e-06 2.30249e-23
0.00187723 3.43488e-06 2.3163e-23
0.00187723 3.43488e-06 2.3163e-23
0.00187282 3.31097e-06 2.22623e-23