/*--------------------------------*- C++ -*----------------------------------*\
  =========                 |
  \\      /  F ield         | OpenFOAM: The Open Source CFD Toolbox
   \\    /   O peration     | Website:  https://openfoam.org
    \\  /    A nd           | Version:  7
     \\/     M anipulation  |
\*---------------------------------------------------------------------------*/
FoamFile
{
    version     2.0;
    format      ascii;
    class       volScalarField;
    location    "21";
    object      p;
}
// * * * * * * * * * * * * * * * * * * * * * * * * * * * * * * * * * * * * * //

dimensions      [0 2 -2 0 0 0 0];

internalField   nonuniform List<scalar> 
918
(
3.86539
17.0811
0.189731
3.7911
0.155098
16.1741
1.06412
2.62082
3.32991
0.537158
0.567191
2.72559
12.184
6.34116
1.49225
0.16821
2.66776
0.47766
3.22855
0.288033
2.08187
3.49449
3.62
3.35031
2.68149
3.37306
8.89942
0.278002
0.0282923
0.105789
0.138662
0.0803944
0.00708239
13.5626
14.6972
15.1504
2.87234
1.17397
1.18744
1.26195
0.970727
0.857776
2.62777
2.64127
1.69743
2.61523
2.6091
3.01317
3.31406
3.33127
3.37542
3.3403
3.38691
1.32709
0.516095
0.490898
0.535755
0.546893
0.577231
0.573679
0.552182
0.547111
0.520203
2.67471
2.73634
2.74387
2.70943
2.70051
15.3522
14.4186
15.0486
12.9959
13.3487
11.3778
10.6024
6.8727
7.34344
5.85274
5.28652
1.02786
0.732593
1.83979
2.2614
0.0262904
0.200101
0.228076
2.66951
2.67416
2.67089
2.67121
1.93435
0.514306
0.538587
3.1543
3.10264
3.48937
3.54015
3.42189
3.44087
0.319822
0.324151
0.2619
0.250166
0.200843
2.40454
2.51222
3.30186
3.21451
2.69179
2.67944
2.68542
2.38941
2.65771
2.66485
4.5132
4.85371
3.96012
4.43288
8.28784
7.64494
9.65629
10.3441
0.0910827
0.0371974
0.118859
0.0403807
0.0819495
2.85578
2.83076
2.88229
2.89384
2.92354
0.955195
0.696478
1.31698
1.42593
1.35957
1.4328
0.599205
0.76757
0.674602
1.92493
2.64548
2.65168
1.519
1.64889
1.57959
1.76587
1.81826
2.93968
2.98956
2.95985
3.14064
3.04547
3.08837
3.40582
3.33736
3.37723
1.41944
1.4929
1.24274
1.15944
0.470053
0.478884
0.477381
0.556803
0.562441
0.628359
0.67123
0.515145
0.483133
0.55856
0.556703
0.556862
0.486316
0.454779
2.64186
2.61571
2.70574
2.72797
2.81533
2.79688
2.75864
2.78062
9.42164
9.94763
10.0876
9.46091
-0.408113
-1.27826
2.60878
2.92149
0.0647082
0.0492723
0.0247218
0.0515236
0.0713683
0.0201017
0.377434
0.34406
0.263689
0.317766
2.67172
2.66751
1.98935
2.04564
1.89748
1.83614
2.97103
2.98926
3.06008
3.01587
0.428955
0.360638
0.393758
2.59121
2.54846
2.57685
2.32466
2.25786
2.4448
2.47829
2.6661
2.66956
2.66892
4.87898
5.2558
10.6459
11.0655
11.1352
11.6982
13.3353
13.0793
12.0771
2.75404
2.80555
2.78458
2.94916
2.90173
2.92997
2.8299
2.86742
2.84947
0.480109
0.302038
1.72002
1.65468
1.49555
1.57395
1.94672
1.97349
2.66625
2.65643
2.66211
1.88606
1.94754
1.06018
0.977873
2.51377
2.59321
2.55495
8.77877
7.86746
8.92325
8.36252
7.69385
8.17493
-0.00612133
-0.775579
-0.328137
4.08008
3.28481
3.70726
0.453648
0.387731
0.414416
2.07222
2.05802
1.58389
1.7467
1.66317
5.62722
6.11965
7.05483
5.84365
6.46379
7.05623
6.75692
1.88113
1.7907
1.83512
2.05331
2.07508
2.18163
2.01946
2.09046
0.738005
0.901183
0.827855
2.06995
2.06877
2.06368
3.25948
3.32302
0.175569
0.258006
3.37178
3.34926
0.00676145
0.0318254
3.29158
1.28831
1.87253
3.07882
3.01447
3.29855
0.583674
1.36741
0.583399
0.679173
0.522894
2.74931
2.71562
2.60597
0.0938195
0.233101
0.351247
0.617273
3.22575
3.148
3.2832
3.32057
3.32582
0.13806
0.187165
0.122289
0.28413
0.220593
0.267141
2.87712
2.88401
1.25737
3.28309
3.31951
3.32193
3.13288
3.25044
3.13934
0.177962
0.106934
0.122266
2.21706
2.45927
3.14839
2.69656
3.09604
3.06321
2.78506
4.01448
3.53083
3.56827
4.00215
2.64503
2.61764
1.91823
1.75245
1.96972
1.94129
3.06238
3.01825
2.99258
2.96611
3.18725
3.12955
3.2327
3.15542
3.20968
3.24816
0.56886
0.573062
0.575012
0.503415
1.36698
1.50593
1.20957
1.24064
0.898738
0.538153
0.542228
0.547379
0.521123
0.596999
0.517252
0.589307
0.502528
0.460271
0.441164
0.586412
0.523556
0.516311
2.75131
2.74435
2.71417
2.71845
2.73209
2.74677
2.63132
2.67678
2.6365
2.49452
2.5604
2.50819
0.143986
0.127353
0.106345
0.240626
0.255015
0.224413
0.172078
0.254259
0.235394
0.178479
0.318939
0.316168
0.714152
0.65336
2.04487
1.86774
1.47844
3.03838
3.12379
3.03416
3.1783
3.23045
3.24393
3.19624
3.13347
2.89825
2.89866
2.85005
2.84535
1.2705
1.06586
1.3972
1.39452
1.34304
2.67199
2.42282
2.30186
2.34096
2.59558
3.15113
2.30058
2.15631
2.15888
1.62626
2.50089
1.88798
2.39666
2.25619
4.87276
5.27549
4.86991
4.37198
4.45549
0.506238
2.56048
1.60085
1.58297
1.83504
1.75315
2.53843
2.64329
2.64385
2.58596
2.60061
2.61977
2.60557
2.62381
2.62558
2.61806
2.43151
2.21656
2.08844
2.09621
2.66727
2.47083
2.53415
2.46611
2.94378
3.0073
2.96384
2.89285
2.9455
2.88883
2.88069
2.91154
3.07826
3.04449
3.01942
3.06644
0.574171
0.558461
0.688397
0.666601
0.610861
0.565093
0.684642
0.990462
0.912013
1.46025
1.52951
0.935682
0.762826
0.749739
0.953229
1.14627
1.14568
0.834927
0.961104
1.03906
0.946066
1.1464
1.04208
0.552894
0.599047
0.559173
0.562355
0.689394
0.80702
0.705058
0.499794
0.525261
0.501446
0.474269
0.707059
0.581466
0.599747
0.735937
0.215845
0.241802
0.273963
0.494433
0.3582
0.397394
2.82442
2.77905
2.79736
2.6993
2.71045
2.70159
2.65338
2.83705
2.80107
2.81808
2.64915
2.66289
2.63469
2.66983
2.71857
2.75328
2.86028
2.828
2.73206
2.75223
2.70902
2.69953
2.6134
2.55416
2.54364
0.203376
0.154959
0.188494
0.16761
0.115184
0.145268
0.416542
0.302306
0.366865
0.3275
0.374432
0.302916
0.270823
0.898954
1.01896
1.04385
0.840752
0.843523
2.02173
2.02486
1.88069
1.76055
1.82607
1.92617
1.94055
1.61656
1.74731
1.69711
1.92897
2.06824
3.12491
3.11744
3.08184
3.06051
3.0869
1.3986
1.64604
1.69737
1.81864
1.27059
1.44551
1.8032
1.67672
1.8903
1.46577
2.66839
2.67701
2.62204
2.66877
2.67327
2.4164
2.52289
2.59608
2.5695
2.6383
2.64938
2.55127
2.60983
2.5954
2.51869
2.52047
2.45493
2.48881
2.43442
2.41354
2.68591
2.67255
2.70528
2.64916
2.69077
2.63204
2.66842
2.67966
2.69946
2.60243
2.53226
2.53458
2.5818
2.55404
2.59456
2.61325
1.81458
1.8844
1.39094
1.04271
1.16155
0.59613
0.537045
0.875619
1.34341
0.718698
0.443434
-0.173015
2.4866
3.04585
2.62264
2.5424
2.57787
2.59972
2.58643
2.55177
2.55985
2.64716
2.65601
2.66249
2.56636
2.57142
2.58923
2.57228
2.49593
2.25307
2.2372
2.16141
1.90573
1.95824
2.32643
2.20094
2.07032
2.07671
2.44551
2.29118
2.38647
2.42088
2.27682
2.23218
2.53807
2.62542
2.65178
2.62061
2.42907
2.44742
2.49208
2.54242
2.56734
2.61444
2.91808
2.98455
2.9961
2.96347
2.94335
2.95526
2.92233
2.93663
2.99587
3.01199
2.99166
0.555719
0.575324
0.549573
0.540097
0.577879
0.56089
0.788776
0.750004
0.614536
0.653016
0.611574
0.634545
0.563993
0.574995
1.00617
1.06805
1.12625
1.00869
1.30536
1.5346
1.64271
1.53441
1.20114
1.22542
1.34749
0.70928
0.711389
0.661298
0.745197
0.762888
0.547627
0.491163
0.441054
0.518804
0.540521
0.435254
0.386806
0.407794
0.489086
0.459473
0.405578
2.80637
2.77869
2.77597
2.7488
2.75716
2.80418
2.8314
2.80536
2.8233
2.82886
2.77863
2.76353
2.78537
0.365154
0.307552
0.338577
0.352725
0.335812
0.330533
0.359356
1.48151
1.25454
1.36157
1.20455
0.949524
1.00744
1.63078
1.85997
1.79132
2.02241
1.97459
1.96583
1.87931
1.91135
1.67412
1.91996
1.77876
2.04771
1.99597
2.04007
1.9434
1.96487
2.25133
2.34747
1.95515
2.05803
2.13827
1.89996
1.94964
2.02523
2.24216
1.33095
1.50817
1.73421
1.78366
1.45822
1.68253
1.42758
1.52051
1.61256
1.69133
1.72516
2.65412
2.65113
2.66436
2.65902
2.6765
2.66447
2.6485
2.67396
2.68274
2.6592
0.573716
0.964853
0.14543
1.15322
1.51276
2.61541
2.44225
2.84167
2.72882
2.65049
2.62702
2.61308
2.5705
2.63064
2.60949
2.20201
2.36743
2.31667
2.34041
2.20367
2.11302
2.56052
2.56818
2.57444
2.60713
2.60471
2.66371
2.91098
2.89394
2.90056
2.90782
2.85566
2.8603
0.858137
0.770065
0.924716
0.915688
0.802464
0.73803
0.48422
0.417821
0.380267
0.351162
0.391478
0.390451
1.5309
1.52744
1.26339
1.43982
1.31578
1.09928
1.14542
1.21305
1.37202
1.46842
1.75803
2.04292
1.8926
1.93571
1.70286
1.79689
1.73855
1.59396
1.63137
1.80473
1.78623
2.00833
1.18495
1.50832
2.9189
2.90506
2.66026
2.38282
2.10185
2.37962
2.50327
2.38508
2.4561
2.55814
2.52976
1.43981
1.35474
2.15177
2.49083
1.76216
1.63617
1.67772
1.98484
1.98729
)
;

boundaryField
{
    wall-4
    {
        type            zeroGradient;
    }
    velocity-inlet-5
    {
        type            zeroGradient;
    }
    velocity-inlet-6
    {
        type            zeroGradient;
    }
    pressure-outlet-7
    {
        type            fixedValue;
        value           uniform 0;
    }
    wall-8
    {
        type            zeroGradient;
    }
    frontAndBackPlanes
    {
        type            empty;
    }
}


// ************************************************************************* //
