/*--------------------------------*- C++ -*----------------------------------*\
  =========                 |
  \\      /  F ield         | OpenFOAM: The Open Source CFD Toolbox
   \\    /   O peration     | Website:  https://openfoam.org
    \\  /    A nd           | Version:  7
     \\/     M anipulation  |
\*---------------------------------------------------------------------------*/
FoamFile
{
    version     2.0;
    format      ascii;
    class       volScalarField;
    location    "0.046";
    object      k;
}
// * * * * * * * * * * * * * * * * * * * * * * * * * * * * * * * * * * * * * //

dimensions      [0 2 -2 0 0 0 0];

internalField   nonuniform List<scalar> 
12225
(
1.94163e-05
1.80479e-05
1.67391e-05
1.55444e-05
1.39602e-05
1.2632e-05
1.15333e-05
1.01252e-05
8.81583e-06
7.62704e-06
6.25489e-06
5.17654e-06
4.71456e-06
4.4814e-06
3.823e-06
3.73719e-06
3.71477e-06
5.3143e-06
1.99845e-05
1.98849e-05
1.96636e-05
1.94293e-05
1.91045e-05
1.86857e-05
1.81973e-05
1.78655e-05
1.73903e-05
1.69383e-05
1.60791e-05
1.55742e-05
1.49626e-05
1.4623e-05
1.42742e-05
1.3675e-05
1.30743e-05
1.28722e-05
1.99991e-05
1.89715e-05
1.87791e-05
1.88316e-05
1.88525e-05
1.88289e-05
1.87451e-05
1.86581e-05
1.85875e-05
1.85409e-05
1.84446e-05
1.83753e-05
1.82985e-05
1.818e-05
1.80549e-05
1.779e-05
1.74291e-05
1.69334e-05
2.01202e-05
1.98981e-05
1.90284e-05
1.63525e-05
1.63688e-05
1.67763e-05
1.69946e-05
1.70676e-05
1.7154e-05
1.73514e-05
1.7769e-05
1.80835e-05
1.82254e-05
1.8248e-05
1.82389e-05
1.81521e-05
1.78274e-05
1.70916e-05
2.43823e-05
2.4217e-05
2.3876e-05
2.34981e-05
2.31588e-05
2.21547e-05
1.98414e-05
1.86203e-05
1.83776e-05
1.84228e-05
1.86235e-05
1.87996e-05
1.88725e-05
1.889e-05
1.88504e-05
1.86016e-05
1.77089e-05
1.67072e-05
2.10406e-05
2.4176e-05
2.90542e-05
2.96328e-05
2.86897e-05
2.55189e-05
2.25813e-05
2.10908e-05
2.04493e-05
2.01754e-05
2.00462e-05
2.00212e-05
2.01999e-05
2.10678e-05
2.17481e-05
2.187e-05
2.17745e-05
2.12785e-05
2.23882e-05
2.37443e-05
2.53602e-05
2.66751e-05
2.66627e-05
2.53842e-05
2.28482e-05
2.15013e-05
2.09726e-05
2.08387e-05
2.08712e-05
2.12198e-05
2.27498e-05
2.49972e-05
2.64298e-05
2.70503e-05
2.71699e-05
2.70655e-05
2.07113e-05
2.46707e-05
2.7826e-05
2.68612e-05
2.46042e-05
2.38125e-05
2.33274e-05
2.3172e-05
2.29328e-05
2.2552e-05
2.24209e-05
2.2502e-05
2.307e-05
2.44795e-05
2.56256e-05
2.63536e-05
2.6741e-05
2.68538e-05
2.06195e-05
2.30428e-05
3.22898e-05
3.72952e-05
3.49692e-05
2.84968e-05
2.67759e-05
2.69909e-05
2.76414e-05
2.74857e-05
2.60036e-05
2.4285e-05
2.37864e-05
2.37807e-05
2.3925e-05
2.45576e-05
2.56419e-05
2.63855e-05
2.00899e-05
2.08748e-05
2.33896e-05
2.92304e-05
3.36907e-05
3.44358e-05
3.4793e-05
3.4682e-05
3.21158e-05
2.71062e-05
2.43737e-05
2.32343e-05
2.28017e-05
2.26337e-05
2.26096e-05
2.26723e-05
2.30008e-05
2.40671e-05
2.01051e-05
2.10192e-05
2.71611e-05
3.24112e-05
3.10502e-05
2.90592e-05
2.8905e-05
2.87275e-05
2.73727e-05
2.40537e-05
2.21779e-05
2.15918e-05
2.15581e-05
2.17083e-05
2.22191e-05
2.26838e-05
2.29213e-05
2.31786e-05
2.04061e-05
2.1399e-05
2.32172e-05
2.34917e-05
2.38979e-05
2.44913e-05
2.44558e-05
2.42097e-05
2.38677e-05
2.31035e-05
2.21442e-05
2.1624e-05
2.15296e-05
2.16149e-05
2.19835e-05
2.22422e-05
2.22919e-05
2.22915e-05
2.15756e-05
2.25457e-05
2.19027e-05
2.18086e-05
2.19383e-05
2.1971e-05
2.21898e-05
2.25381e-05
2.25994e-05
2.24567e-05
2.2228e-05
2.21031e-05
2.19274e-05
2.17895e-05
2.17525e-05
2.17235e-05
2.16897e-05
2.16729e-05
2.13322e-05
2.10193e-05
2.07836e-05
2.09609e-05
2.14349e-05
2.15934e-05
2.14312e-05
2.12458e-05
2.12619e-05
2.14759e-05
2.1938e-05
2.21007e-05
2.20933e-05
2.1959e-05
2.15899e-05
2.13225e-05
2.11912e-05
2.11543e-05
2.00724e-05
2.05457e-05
2.14566e-05
2.17268e-05
2.17096e-05
2.10968e-05
2.06378e-05
2.06402e-05
2.09269e-05
2.20524e-05
2.30484e-05
2.33665e-05
2.33319e-05
2.28921e-05
2.20777e-05
2.15746e-05
2.1313e-05
2.11765e-05
2.02433e-05
2.0584e-05
2.06668e-05
2.06078e-05
2.03161e-05
2.00676e-05
2.00325e-05
2.00937e-05
2.03095e-05
2.06608e-05
2.13863e-05
2.24191e-05
2.32981e-05
2.3888e-05
2.42131e-05
2.43228e-05
2.43271e-05
2.42617e-05
2.01715e-05
2.0484e-05
2.0502e-05
2.03672e-05
2.01775e-05
2.01451e-05
2.01701e-05
2.02707e-05
2.03883e-05
2.05905e-05
2.10665e-05
2.23838e-05
2.3596e-05
2.41586e-05
2.43061e-05
2.42994e-05
2.41457e-05
2.34801e-05
2.01926e-05
2.03645e-05
2.05061e-05
2.04958e-05
2.04434e-05
2.03248e-05
2.02612e-05
2.02498e-05
2.0259e-05
2.03244e-05
2.06355e-05
2.10734e-05
2.1306e-05
2.14167e-05
2.14604e-05
2.14691e-05
2.14557e-05
2.13762e-05
2.02179e-05
2.02132e-05
2.01557e-05
2.01602e-05
2.02564e-05
2.05203e-05
2.06742e-05
2.07265e-05
2.07431e-05
2.07668e-05
2.08464e-05
2.12073e-05
2.1615e-05
2.17151e-05
2.16798e-05
2.14366e-05
2.09902e-05
2.07169e-05
2.012e-05
2.02213e-05
2.02633e-05
2.04718e-05
2.07195e-05
2.08428e-05
2.08909e-05
2.09132e-05
2.09437e-05
2.1022e-05
2.11179e-05
2.11785e-05
2.12037e-05
2.1208e-05
2.11782e-05
2.10037e-05
2.07084e-05
2.05199e-05
2.0072e-05
2.03384e-05
2.0389e-05
2.04325e-05
2.05492e-05
2.06593e-05
2.07018e-05
2.07054e-05
2.0699e-05
2.06939e-05
2.06927e-05
2.06893e-05
2.06814e-05
2.06652e-05
2.06219e-05
2.05349e-05
2.0454e-05
2.03967e-05
2.084e-05
2.15257e-05
2.12936e-05
2.07883e-05
2.05711e-05
2.04842e-05
2.04756e-05
2.05014e-05
2.06052e-05
2.06881e-05
2.07026e-05
2.06921e-05
2.06258e-05
2.05217e-05
2.04816e-05
2.04811e-05
2.05069e-05
2.05599e-05
2.0234e-05
2.08072e-05
2.09093e-05
2.08489e-05
2.06244e-05
2.05025e-05
2.04782e-05
2.04945e-05
2.05464e-05
2.05484e-05
2.05172e-05
2.0439e-05
2.03822e-05
2.03448e-05
2.03225e-05
2.03154e-05
2.03164e-05
2.03242e-05
2.00393e-05
2.01477e-05
2.02179e-05
2.02941e-05
2.0316e-05
2.03317e-05
2.04164e-05
2.07112e-05
2.10098e-05
2.10529e-05
2.10324e-05
2.09673e-05
2.08431e-05
2.07024e-05
2.05758e-05
2.04835e-05
2.04145e-05
2.03708e-05
2.02115e-05
2.02354e-05
2.01555e-05
2.0122e-05
2.01365e-05
2.02693e-05
2.06857e-05
2.09408e-05
2.11191e-05
2.11802e-05
2.11749e-05
2.11298e-05
2.09617e-05
2.06581e-05
2.04728e-05
2.03811e-05
2.03454e-05
2.03366e-05
2.0069e-05
2.00704e-05
2.00306e-05
2.00235e-05
2.00508e-05
2.03131e-05
2.06973e-05
2.1145e-05
2.16419e-05
2.19069e-05
2.19318e-05
2.1841e-05
2.14057e-05
2.09036e-05
2.06654e-05
2.05793e-05
2.05644e-05
2.05704e-05
2.03528e-05
2.02731e-05
2.00264e-05
1.99097e-05
1.98413e-05
1.97292e-05
1.94867e-05
1.9212e-05
1.91252e-05
1.91352e-05
1.9179e-05
1.92619e-05
1.94056e-05
1.96553e-05
2.00576e-05
2.03072e-05
2.06827e-05
2.10058e-05
2.03494e-05
1.61995e-05
1.21138e-05
1.28594e-05
1.55035e-05
2.11129e-05
2.78875e-05
3.25084e-05
3.60867e-05
3.84569e-05
4.3028e-05
4.92508e-05
5.85569e-05
6.58437e-05
7.35971e-05
7.78167e-05
8.25638e-05
8.69769e-05
3.08901e-05
9.50634e-05
0.000129479
0.000200561
0.000301032
0.000398475
0.000472157
0.000504735
0.000507182
0.000502265
0.000498161
0.000501697
0.000526247
0.000566051
0.000595303
0.000610033
0.000623498
0.000637641
0.00243459
0.00235858
0.00245314
0.00250114
0.00249764
0.00248378
0.00246543
0.00241581
0.00222967
0.00192537
0.00173286
0.00163725
0.00160084
0.00157968
0.00153977
0.00148173
0.00142352
0.00138169
1.29169e-05
9.10717e-05
0.000127558
0.00011999
0.000107883
9.96553e-05
0.000100072
0.000102489
0.000107905
0.000112552
0.000122927
0.000138867
0.000147027
0.000151789
0.000160344
0.000177497
0.000185084
0.000185986
0.000182003
0.000194204
0.000230461
0.000324381
0.000455553
0.000641957
0.000951315
0.00112082
0.00145303
0.00237757
0.00274745
0.00315594
0.0040446
0.00577626
0.00830771
0.00914118
0.0131878
0.0336692
0.031634
0.00587411
0.00163061
0.00107507
0.00102751
0.000965357
0.000863366
0.000732335
0.000574385
0.000398638
0.00031207
0.000206623
0.000158822
0.000115858
9.67146e-05
8.74058e-05
8.43405e-05
8.35111e-05
7.90887e-05
7.40941e-05
7.05185e-05
6.75014e-05
6.36206e-05
5.91918e-05
5.52554e-05
5.21505e-05
4.97756e-05
4.81242e-05
4.71413e-05
4.64813e-05
4.58131e-05
4.50121e-05
4.40849e-05
4.31303e-05
4.27762e-05
4.27018e-05
4.26696e-05
4.24892e-05
4.18185e-05
4.05267e-05
3.89798e-05
3.76513e-05
3.65836e-05
3.55097e-05
3.41797e-05
3.23988e-05
3.04241e-05
2.93776e-05
2.75269e-05
2.53268e-05
2.37744e-05
2.17636e-05
1.99516e-05
1.81351e-05
1.64008e-05
1.47779e-05
1.32185e-05
1.17421e-05
1.03658e-05
9.09999e-06
7.95239e-06
6.92649e-06
6.01895e-06
5.21871e-06
4.51345e-06
3.89516e-06
3.35597e-06
2.88735e-06
2.48077e-06
2.12828e-06
1.82277e-06
1.55783e-06
1.32772e-06
1.12742e-06
9.52721e-07
8.00172e-07
6.6707e-07
5.51033e-07
4.50241e-07
3.64209e-07
2.91865e-07
2.32187e-07
1.83391e-07
1.43821e-07
1.122e-07
8.71003e-08
6.73322e-08
5.18578e-08
3.97961e-08
3.04226e-08
2.31571e-08
1.75414e-08
1.32155e-08
9.89613e-09
7.36085e-09
5.43471e-09
3.98021e-09
2.88932e-09
2.07739e-09
1.47841e-09
1.04093e-09
7.24824e-10
4.98998e-10
3.39601e-10
2.28501e-10
1.52036e-10
1.00047e-10
6.51193e-11
4.19287e-11
2.67095e-11
1.68358e-11
1.05024e-11
6.48498e-12
3.96436e-12
2.39973e-12
1.43864e-12
8.54289e-13
5.0255e-13
2.92905e-13
1.69164e-13
9.68291e-14
5.49496e-14
3.09337e-14
1.72925e-14
9.61729e-15
5.33952e-15
2.97735e-15
1.68532e-15
9.85108e-16
6.09933e-16
4.10958e-16
3.08181e-16
2.55775e-16
2.32642e-16
2.23083e-16
2.22045e-16
2.22045e-16
2.3238e-16
2.39975e-16
2.63711e-16
3.07298e-15
1.20726e-12
5.02149e-10
1.98988e-07
1.22941e-05
8.53919e-05
0.000148162
0.000185761
0.00020716
0.000219063
0.00024879
0.000278349
0.000323866
0.000352265
0.000407838
0.000486386
0.000523602
0.000573056
0.000648068
0.000736011
0.00076449
0.000816453
0.000825133
0.000813378
0.000785534
0.000728028
0.000703503
0.000725837
0.000813806
0.00093094
0.00111933
0.00178419
0.0021069
0.00229163
0.00256861
0.00393191
0.00977866
0.0127588
0.0134843
0.0129552
0.00587586
0.00176435
0.000906739
0.000670189
0.000568189
0.000438595
0.000366782
0.000301374
0.000270547
0.000255739
0.000251613
0.00025134
0.000261073
0.00026439
0.000266498
0.000266859
0.00026532
0.000257906
0.000245676
0.00023358
0.000222618
0.000210196
0.000195791
0.000181678
0.000169439
0.00015944
0.000151912
0.000147498
0.000145347
0.00014354
0.000141143
0.000137985
0.000135418
0.000134847
0.000134936
0.000135502
0.000135976
0.000136016
0.000134693
0.00013137
0.000127221
0.000122605
0.000117288
0.00011171
0.000105976
0.000100492
9.48025e-05
8.99935e-05
8.38116e-05
7.87366e-05
7.38544e-05
6.91106e-05
6.46516e-05
6.03365e-05
5.62052e-05
5.24993e-05
4.8639e-05
4.46531e-05
4.05994e-05
3.65238e-05
3.24743e-05
2.8557e-05
2.49386e-05
2.17818e-05
1.89613e-05
1.64134e-05
1.41533e-05
1.21849e-05
1.04917e-05
9.04279e-06
7.80678e-06
6.7587e-06
5.8752e-06
5.13252e-06
4.50722e-06
3.97773e-06
3.52517e-06
3.13399e-06
2.79153e-06
2.4862e-06
2.20937e-06
1.95422e-06
1.71478e-06
1.48851e-06
1.27725e-06
1.0838e-06
9.09803e-07
7.55669e-07
6.21123e-07
5.05314e-07
4.06936e-07
3.24457e-07
2.56214e-07
2.00465e-07
1.55446e-07
1.19471e-07
9.1002e-08
6.86789e-08
5.13229e-08
3.7941e-08
2.77281e-08
2.00231e-08
1.42799e-08
1.00534e-08
6.98641e-09
4.79423e-09
3.24957e-09
2.17562e-09
1.4389e-09
9.40221e-10
6.07084e-10
3.87402e-10
2.44373e-10
1.52411e-10
9.40062e-11
5.7357e-11
3.46266e-11
2.0688e-11
1.22344e-11
7.16246e-12
4.15144e-12
2.38249e-12
1.35394e-12
7.62013e-13
4.24825e-13
2.34691e-13
1.28541e-13
6.98634e-14
3.77214e-14
2.0289e-14
1.08843e-14
5.89595e-15
3.17969e-15
1.86292e-15
9.80552e-16
7.51624e-16
6.53455e-16
2.38075e-15
3.08695e-15
4.91095e-15
1.44208e-14
1.3045e-13
1.12055e-10
1.87419e-08
6.69402e-06
4.44604e-05
8.02375e-05
0.000144374
0.000231189
0.000311848
0.000396523
0.000486992
0.000607517
0.000708166
0.000850324
0.00104018
0.00115178
0.00140387
0.00168102
0.00194299
0.00218331
0.00260181
0.00268616
0.00262739
0.00246165
0.00209653
0.00169507
0.00134759
0.00107812
0.00102515
0.0010823
0.00132835
0.00178237
0.00320586
0.00757701
0.00844737
0.00875784
0.00693798
0.00476288
0.00218154
0.000999616
0.000525307
0.000385331
0.000329103
0.000301639
0.00028824
0.000284069
0.000283454
0.000289678
0.000300043
0.000319248
0.00033206
0.000340704
0.000343955
0.000344841
0.00034463
0.000341955
0.000335589
0.000328946
0.000324896
0.000318414
0.000306521
0.000291887
0.00027424
0.000255335
0.00023824
0.000223486
0.000217257
0.00021475
0.000213948
0.00021389
0.000214354
0.000215851
0.000218691
0.000222828
0.000227842
0.000233041
0.00023775
0.0002403
0.000241134
0.000240441
0.000233516
0.00022116
0.000206592
0.000190566
0.000177743
0.000163114
0.000148123
0.000130801
0.000117033
0.000105979
9.70862e-05
8.96701e-05
8.34562e-05
7.78822e-05
7.29022e-05
6.92015e-05
6.59777e-05
6.29578e-05
6.00037e-05
5.69484e-05
5.3597e-05
4.97907e-05
4.5407e-05
4.06472e-05
3.57029e-05
3.07709e-05
2.61064e-05
2.19504e-05
1.84245e-05
1.53919e-05
1.27622e-05
1.0524e-05
8.66906e-06
7.1694e-06
5.98005e-06
5.05016e-06
4.3269e-06
3.76061e-06
3.30905e-06
2.93923e-06
2.62759e-06
2.3595e-06
2.12432e-06
1.91214e-06
1.71588e-06
1.53102e-06
1.35597e-06
1.19051e-06
1.03521e-06
8.90929e-07
7.58348e-07
6.38093e-07
5.3091e-07
4.37009e-07
3.55919e-07
2.86795e-07
2.28602e-07
1.80212e-07
1.40476e-07
1.08243e-07
8.24163e-08
6.19832e-08
4.60264e-08
3.37309e-08
2.43865e-08
1.73879e-08
1.22258e-08
8.47731e-09
5.79748e-09
3.91111e-09
2.60318e-09
1.70953e-09
1.10781e-09
7.08574e-10
4.47484e-10
2.79117e-10
1.72003e-10
1.04745e-10
6.30453e-11
3.7511e-11
2.20646e-11
1.28322e-11
7.37946e-12
4.19681e-12
2.361e-12
1.31422e-12
7.24272e-13
3.95322e-13
2.14075e-13
1.14913e-13
6.16573e-14
3.23681e-14
1.81494e-14
8.00421e-15
1.79714e-14
1.50066e-14
2.79965e-13
2.17821e-13
5.05704e-13
2.55567e-12
1.73572e-12
7.13556e-11
9.99959e-10
1.25288e-05
5.02915e-05
7.80341e-05
0.000164004
0.000256822
0.000340484
0.000445758
0.000586569
0.000741385
0.00096112
0.00121468
0.00157502
0.00197568
0.00280626
0.00357709
0.00442951
0.00542441
0.00663845
0.00704932
0.00694034
0.00650791
0.00540966
0.00384347
0.00249753
0.0018293
0.00138582
0.00119171
0.00146546
0.0037213
0.00659174
0.00699334
0.00568536
0.00354013
0.00182815
0.00107093
0.000560237
0.000362968
0.000301183
0.000287547
0.00028716
0.000302786
0.000315806
0.00034673
0.000383436
0.000425066
0.000459719
0.000497512
0.000516564
0.000526784
0.000531327
0.00053249
0.000529327
0.000517165
0.000504846
0.000489672
0.000477022
0.000453478
0.000441046
0.000431068
0.000407796
0.000383288
0.000368863
0.000350514
0.000340394
0.000337139
0.000336201
0.000336145
0.000336571
0.000338173
0.000340973
0.000342157
0.000342131
0.000340306
0.000336107
0.000330515
0.000323996
0.000319249
0.000313231
0.000303332
0.000288237
0.00026776
0.00024896
0.000232958
0.000218528
0.000197878
0.000173897
0.000150645
0.000129075
0.000111797
9.85954e-05
8.9357e-05
8.18844e-05
7.69968e-05
7.33468e-05
7.03153e-05
6.76038e-05
6.5104e-05
6.27542e-05
6.04646e-05
5.81701e-05
5.5799e-05
5.32163e-05
5.02177e-05
4.6684e-05
4.26022e-05
3.8086e-05
3.33907e-05
2.86321e-05
2.38985e-05
1.94109e-05
1.54721e-05
1.21427e-05
9.42117e-06
7.2921e-06
5.68122e-06
4.48967e-06
3.62027e-06
2.98796e-06
2.52418e-06
2.177e-06
1.90872e-06
1.69293e-06
1.51275e-06
1.35544e-06
1.21075e-06
1.07279e-06
9.42979e-07
8.22695e-07
7.12639e-07
6.12421e-07
5.21605e-07
4.40116e-07
3.67829e-07
3.0445e-07
2.49513e-07
2.02426e-07
1.62514e-07
1.29058e-07
1.01328e-07
7.8618e-08
6.02551e-08
4.55976e-08
3.40511e-08
2.50797e-08
1.82097e-08
1.30284e-08
9.1825e-09
6.37444e-09
4.3585e-09
2.93558e-09
1.94802e-09
1.27394e-09
8.21301e-10
5.22187e-10
3.27521e-10
2.02675e-10
1.23753e-10
7.4568e-11
4.43428e-11
2.60276e-11
1.50816e-11
8.63035e-12
4.87828e-12
2.72654e-12
1.50657e-12
8.25615e-13
4.47571e-13
2.42696e-13
1.28046e-13
7.07668e-14
3.90641e-14
2.47855e-14
1.93527e-14
2.11414e-14
4.08113e-14
4.47585e-14
3.42409e-13
3.249e-13
4.83024e-12
5.25546e-11
1.64976e-05
6.06462e-05
9.14303e-05
0.00019419
0.000285094
0.000390507
0.000540923
0.00074031
0.000977162
0.00127667
0.00169851
0.00227253
0.00331766
0.00479792
0.00682453
0.00865365
0.010103
0.0112167
0.0117005
0.0116292
0.0113055
0.0106115
0.00895678
0.00557544
0.0026295
0.00145338
0.0015209
0.0034764
0.00544189
0.00580411
0.00378407
0.00191936
0.00107009
0.000588594
0.00038713
0.000299977
0.000276385
0.000275793
0.00029732
0.000320927
0.000370574
0.000438512
0.000511282
0.000572007
0.000646253
0.000701977
0.000766699
0.000805867
0.000834947
0.000848119
0.000853846
0.000854953
0.000848276
0.000828739
0.000805329
0.000771991
0.000708964
0.000669369
0.000647371
0.00060883
0.000559783
0.000537195
0.000514685
0.000486724
0.000472024
0.00046577
0.000463701
0.000462767
0.000461159
0.000460214
0.000455039
0.000443014
0.000422442
0.000394825
0.00037309
0.000354137
0.000340077
0.000331116
0.000319586
0.00030347
0.000278534
0.000254344
0.000237296
0.000226407
0.000212587
0.000194537
0.000175206
0.000157605
0.000141505
0.000125603
0.000109304
9.52294e-05
8.55085e-05
7.92465e-05
7.48119e-05
7.14253e-05
6.86542e-05
6.62437e-05
6.40353e-05
6.1952e-05
5.99525e-05
5.79952e-05
5.60218e-05
5.38829e-05
5.14223e-05
4.85995e-05
4.55743e-05
4.24509e-05
3.91885e-05
3.55173e-05
3.10528e-05
2.59086e-05
2.05956e-05
1.58077e-05
1.19101e-05
8.83291e-06
6.49572e-06
4.77828e-06
3.55075e-06
2.69275e-06
2.1021e-06
1.69738e-06
1.41673e-06
1.21723e-06
1.07235e-06
9.65423e-07
8.78438e-07
7.97959e-07
7.15085e-07
6.30414e-07
5.47845e-07
4.69787e-07
3.97823e-07
3.32881e-07
2.75359e-07
2.25252e-07
1.82263e-07
1.459e-07
1.15547e-07
9.05237e-08
7.01272e-08
5.36959e-08
4.06218e-08
3.03518e-08
2.23911e-08
1.63042e-08
1.17139e-08
8.30047e-09
5.79846e-09
3.9924e-09
2.70965e-09
1.81339e-09
1.19692e-09
7.78934e-10
4.99589e-10
3.15711e-10
1.96528e-10
1.20486e-10
7.27409e-11
4.32465e-11
2.53221e-11
1.46061e-11
8.30314e-12
4.65492e-12
2.57651e-12
1.41009e-12
7.65006e-13
4.12283e-13
2.21744e-13
1.19401e-13
6.55291e-14
3.56654e-14
2.13642e-14
1.15638e-14
8.96555e-15
7.30502e-15
4.23594e-14
5.08461e-14
4.82534e-13
3.15084e-12
1.88947e-05
6.84108e-05
0.000102648
0.000223291
0.00031944
0.000440247
0.000604668
0.000818505
0.00111901
0.00155004
0.0021629
0.00319365
0.00497217
0.00738916
0.00981951
0.0116074
0.0127015
0.0138888
0.0147575
0.0146918
0.0138814
0.0120047
0.00902911
0.00528829
0.00242344
0.00183055
0.00337105
0.00451346
0.0047857
0.00295435
0.00133873
0.000703388
0.000427278
0.000310124
0.000273056
0.000265967
0.000278901
0.000305331
0.000363524
0.000448257
0.00053551
0.000604961
0.000679261
0.000766525
0.000853148
0.000955149
0.00104741
0.00113822
0.00120717
0.00126213
0.00129682
0.00131522
0.00132193
0.00131903
0.0012985
0.00125627
0.00116531
0.00111007
0.00103775
0.00098228
0.000885424
0.000842807
0.000800837
0.000761388
0.000732394
0.0006868
0.000664105
0.000646719
0.000626371
0.00061907
0.000615231
0.000608961
0.000596201
0.000567965
0.000511891
0.000445786
0.000385786
0.000357073
0.000341737
0.000323466
0.000295692
0.000260639
0.00023239
0.000212089
0.000192668
0.000185587
0.000175094
0.000161382
0.00014875
0.000137476
0.000125722
0.000112971
9.99825e-05
8.90368e-05
8.16254e-05
7.6421e-05
7.25645e-05
6.95344e-05
6.69546e-05
6.45008e-05
6.21791e-05
6.00976e-05
5.82679e-05
5.65302e-05
5.47276e-05
5.26717e-05
5.01769e-05
4.7443e-05
4.47192e-05
4.21642e-05
3.98495e-05
3.75147e-05
3.45337e-05
3.02364e-05
2.48065e-05
1.92435e-05
1.44272e-05
1.05533e-05
7.55115e-06
5.31288e-06
3.70354e-06
2.58559e-06
1.83338e-06
1.34091e-06
1.0238e-06
8.17953e-07
6.81314e-07
5.89017e-07
5.27887e-07
4.83312e-07
4.42143e-07
3.97466e-07
3.50152e-07
3.02755e-07
2.57247e-07
2.15054e-07
1.77063e-07
1.43698e-07
1.15028e-07
9.08671e-08
7.08688e-08
5.45823e-08
4.15164e-08
3.11838e-08
2.31265e-08
1.69304e-08
1.22315e-08
8.7179e-09
6.12789e-09
4.2465e-09
2.9002e-09
1.95147e-09
1.29326e-09
8.43818e-10
5.41851e-10
3.42305e-10
2.12675e-10
1.29916e-10
7.80091e-11
4.6032e-11
2.66894e-11
1.52039e-11
8.51081e-12
4.68246e-12
2.53348e-12
1.34904e-12
7.08507e-13
3.67283e-13
1.89877e-13
9.6277e-14
5.15895e-14
2.45394e-14
1.68704e-14
9.33046e-15
4.30155e-14
4.54121e-14
8.3041e-13
8.73385e-13
4.59177e-12
4.76125e-12
1.96801e-05
7.18888e-05
0.00011513
0.000241662
0.000337916
0.000461854
0.000625361
0.000852235
0.00121256
0.00171635
0.00241491
0.00362503
0.00569979
0.00841762
0.0109375
0.0127378
0.0140993
0.0147452
0.014807
0.0143648
0.013237
0.0110981
0.00771942
0.00416071
0.00291845
0.00327396
0.00384281
0.00397288
0.00246016
0.00106403
0.000549349
0.000355848
0.000286422
0.000268124
0.000267568
0.000286157
0.000334444
0.000423799
0.000514823
0.000593952
0.000672951
0.000758794
0.000867795
0.00102018
0.00120373
0.00141293
0.00162511
0.00184899
0.00205731
0.00224147
0.00236487
0.00242351
0.00244032
0.00238036
0.00222035
0.00204701
0.00181252
0.00169451
0.00146123
0.00133645
0.00116389
0.00105169
0.000980127
0.000880804
0.000836479
0.000772565
0.000726904
0.000690276
0.000658404
0.000644483
0.000640442
0.000639319
0.000640584
0.00064148
0.000637224
0.000619221
0.000572578
0.000475413
0.000426371
0.000395244
0.000373545
0.000320955
0.000262877
0.000219067
0.000185506
0.000165184
0.000154752
0.000152733
0.00014692
0.000138396
0.000128763
0.000118585
0.000108624
9.90276e-05
8.90138e-05
8.13069e-05
7.58761e-05
7.19152e-05
6.88936e-05
6.64878e-05
6.42846e-05
6.2101e-05
5.99253e-05
5.79325e-05
5.61868e-05
5.45717e-05
5.28471e-05
5.06023e-05
4.77923e-05
4.49378e-05
4.24232e-05
4.03463e-05
3.86675e-05
3.71577e-05
3.51697e-05
3.18611e-05
2.69691e-05
2.13465e-05
1.61153e-05
1.17717e-05
8.33018e-06
5.72773e-06
3.84498e-06
2.53962e-06
1.67073e-06
1.11414e-06
7.69532e-07
5.61053e-07
4.34375e-07
3.55745e-07
3.06862e-07
2.77268e-07
2.55444e-07
2.32844e-07
2.07357e-07
1.80459e-07
1.53669e-07
1.28226e-07
1.04996e-07
8.44762e-08
6.68536e-08
5.20858e-08
3.99763e-08
3.02397e-08
2.25514e-08
1.65826e-08
1.20234e-08
8.59536e-09
6.05752e-09
4.20751e-09
2.87964e-09
1.94135e-09
1.28879e-09
8.42223e-10
5.41599e-10
3.42588e-10
2.13079e-10
1.30261e-10
7.82407e-11
4.61576e-11
2.67358e-11
1.51996e-11
8.47836e-12
4.63832e-12
2.48803e-12
1.30896e-12
6.75711e-13
3.40537e-13
1.71157e-13
8.38027e-14
3.70928e-14
2.06472e-14
2.55244e-14
4.03083e-14
1.76817e-13
2.54117e-13
9.01618e-13
1.00842e-12
1.28412e-12
2.04868e-12
1.89573e-05
7.29003e-05
0.000132626
0.00024845
0.000345408
0.000469402
0.000621021
0.00085181
0.00124511
0.00178187
0.00249304
0.00368738
0.00570431
0.00818687
0.0102426
0.0116258
0.012561
0.0129942
0.01307
0.0121132
0.0104537
0.00770405
0.00495968
0.00378315
0.00340236
0.0033859
0.00330899
0.00197455
0.0008947
0.000474227
0.000326605
0.000279588
0.000269462
0.00027063
0.000292338
0.000349531
0.00043854
0.000507654
0.000597902
0.000697381
0.000816528
0.000983474
0.001219
0.00153887
0.00194768
0.00244753
0.00302985
0.00369679
0.00438674
0.00503182
0.00555335
0.00582521
0.00592623
0.0058064
0.00521246
0.00450713
0.00374923
0.00322433
0.00258033
0.00195292
0.00163996
0.00125969
0.00111943
0.000992844
0.000884644
0.00081237
0.000749747
0.000691886
0.000655282
0.000613904
0.000587862
0.000576748
0.000576736
0.000592381
0.000618162
0.000638749
0.000646128
0.000626344
0.000578378
0.000522152
0.000485315
0.00043095
0.000354432
0.000270182
0.000203222
0.000165444
0.000145962
0.000136166
0.000134824
0.000134158
0.000128271
0.000119645
0.000110915
0.000103329
9.5833e-05
8.7039e-05
7.9134e-05
7.35277e-05
6.96441e-05
6.68891e-05
6.47775e-05
6.28592e-05
6.09824e-05
5.9085e-05
5.71896e-05
5.54116e-05
5.38625e-05
5.24454e-05
5.07205e-05
4.81556e-05
4.50362e-05
4.21354e-05
3.982e-05
3.81436e-05
3.6966e-05
3.59873e-05
3.45782e-05
3.19219e-05
2.75353e-05
2.20221e-05
1.66417e-05
1.20795e-05
8.43315e-06
5.67695e-06
3.69858e-06
2.34587e-06
1.46229e-06
9.09321e-07
5.76645e-07
3.83299e-07
2.73271e-07
2.10153e-07
1.73605e-07
1.53528e-07
1.41632e-07
1.30668e-07
1.17654e-07
1.03059e-07
8.79293e-08
7.31956e-08
5.95586e-08
4.74536e-08
3.70778e-08
2.84456e-08
2.14484e-08
1.59066e-08
1.16091e-08
8.34079e-09
5.90063e-09
4.1106e-09
2.81978e-09
1.90448e-09
1.26623e-09
8.28548e-10
5.3342e-10
3.37781e-10
2.10314e-10
1.28711e-10
7.73926e-11
4.57032e-11
2.64957e-11
1.5073e-11
8.41115e-12
4.60236e-12
2.46819e-12
1.29694e-12
6.68061e-13
3.36115e-13
1.66065e-13
8.15373e-14
3.75476e-14
1.51784e-14
1.36483e-14
1.65145e-14
6.61952e-14
8.70807e-14
1.35334e-13
2.58586e-13
3.43333e-13
6.14238e-13
1.58695e-05
6.68526e-05
0.000139911
0.000237283
0.000326739
0.000431748
0.000557096
0.000732853
0.00105011
0.00160643
0.00228487
0.00315559
0.00455304
0.00639814
0.00794228
0.00877286
0.00919223
0.00931769
0.00891074
0.00795602
0.00669916
0.00519776
0.00411984
0.00343865
0.00312893
0.00267674
0.00151419
0.000736333
0.00042699
0.000316752
0.000284185
0.000277131
0.000277529
0.000301509
0.000363826
0.000473877
0.000558539
0.000664275
0.000766933
0.00091918
0.00113831
0.00148173
0.00196695
0.00263115
0.00354345
0.00474825
0.00627114
0.00806961
0.00997461
0.0117843
0.0132568
0.0140076
0.0142903
0.0139019
0.0124959
0.0107604
0.00876991
0.00721098
0.00597894
0.00419899
0.0033355
0.00214938
0.0016262
0.0011948
0.000989034
0.000856299
0.000785022
0.00070934
0.000656719
0.000611234
0.000563433
0.000520222
0.000494393
0.000482989
0.000488393
0.000521234
0.000591236
0.00063128
0.000620377
0.000583876
0.000531104
0.000480583
0.000422535
0.0003417
0.000253687
0.000191007
0.000152568
0.000132096
0.000122615
0.000119506
0.000120016
0.000117938
0.000111094
0.000104077
9.78253e-05
9.17247e-05
8.43513e-05
7.65717e-05
7.07888e-05
6.69459e-05
6.44815e-05
6.27663e-05
6.10784e-05
5.93595e-05
5.76484e-05
5.59685e-05
5.43267e-05
5.28222e-05
5.14849e-05
5.00327e-05
4.79103e-05
4.49525e-05
4.18251e-05
3.91914e-05
3.72795e-05
3.60502e-05
3.52806e-05
3.46141e-05
3.35456e-05
3.12546e-05
2.69317e-05
2.13913e-05
1.59672e-05
1.13812e-05
7.76272e-06
5.08173e-06
3.20533e-06
1.95821e-06
1.16742e-06
6.87296e-07
4.07463e-07
2.50473e-07
1.65034e-07
1.18708e-07
9.3327e-08
8.02027e-08
7.38193e-08
6.90541e-08
6.31029e-08
5.57558e-08
4.76785e-08
3.95695e-08
3.19659e-08
2.51986e-08
1.94222e-08
1.46607e-08
1.08516e-08
7.88392e-09
5.62638e-09
3.94636e-09
2.72152e-09
1.84576e-09
1.23121e-09
8.07756e-10
5.21165e-10
3.30631e-10
2.06198e-10
1.26378e-10
7.60975e-11
4.50013e-11
2.6126e-11
1.48848e-11
8.31882e-12
4.55888e-12
2.44884e-12
1.28875e-12
6.64474e-13
3.35394e-13
1.65592e-13
8.02303e-14
3.84717e-14
1.72885e-14
7.53287e-15
4.3381e-15
4.72724e-15
6.99889e-15
1.34207e-14
3.38537e-14
5.60297e-14
1.30945e-13
1.48318e-05
5.68541e-05
0.000129377
0.000220497
0.00030691
0.000409137
0.000530086
0.000676929
0.000905515
0.00124396
0.00172978
0.00232994
0.00300407
0.00401546
0.00521294
0.0057821
0.00602654
0.00606904
0.00561546
0.00501164
0.00429005
0.00348345
0.00303177
0.00241705
0.00189761
0.00103805
0.000616183
0.000405088
0.000325476
0.00029919
0.000291418
0.000301225
0.000334189
0.000407417
0.000519668
0.000602209
0.000695426
0.000806659
0.000927867
0.00113204
0.00150344
0.00209499
0.00300607
0.00436078
0.0063396
0.00907153
0.012609
0.0168517
0.0214889
0.0261185
0.0298572
0.031614
0.0321965
0.0304728
0.0267996
0.0226641
0.0178684
0.0134159
0.010946
0.00814488
0.00632933
0.00470267
0.00338662
0.00217051
0.00143313
0.00107833
0.000883183
0.000781836
0.00070325
0.000650651
0.000609144
0.000551549
0.000496168
0.000464739
0.000454736
0.000453397
0.000477092
0.00054019
0.000600251
0.000595558
0.00054326
0.000503584
0.000460713
0.000398685
0.000336812
0.000272295
0.000208526
0.000157737
0.000127607
0.000113693
0.000107598
0.000105083
0.000104704
0.000102393
9.74225e-05
9.24346e-05
8.71563e-05
8.10136e-05
7.37071e-05
6.76609e-05
6.37099e-05
6.13441e-05
6.01742e-05
5.89835e-05
5.75785e-05
5.60703e-05
5.45473e-05
5.30412e-05
5.15947e-05
5.02374e-05
4.87996e-05
4.68771e-05
4.41966e-05
4.11263e-05
3.83787e-05
3.63255e-05
3.50136e-05
3.42814e-05
3.37994e-05
3.32343e-05
3.21996e-05
2.99181e-05
2.52267e-05
1.95017e-05
1.41744e-05
9.79577e-06
6.45932e-06
4.08036e-06
2.48011e-06
1.45776e-06
8.34033e-07
4.6908e-07
2.63612e-07
1.51997e-07
9.32127e-08
6.26617e-08
4.68194e-08
3.93359e-08
3.67233e-08
3.53607e-08
3.28682e-08
2.91855e-08
2.49203e-08
2.05474e-08
1.64152e-08
1.27596e-08
9.67603e-09
7.17119e-09
5.20124e-09
3.69589e-09
2.57523e-09
1.7608e-09
1.18206e-09
7.79406e-10
5.0488e-10
3.21332e-10
2.00935e-10
1.23437e-10
7.44801e-11
4.413e-11
2.56682e-11
1.46515e-11
8.20419e-12
4.50502e-12
2.42497e-12
1.27908e-12
6.60913e-13
3.34448e-13
1.65708e-13
8.0379e-14
3.826e-14
1.78734e-14
8.18687e-15
3.62374e-15
1.76623e-15
1.45004e-15
1.65879e-15
2.91446e-15
5.96061e-15
1.93927e-14
1.66574e-05
4.15756e-05
0.000108668
0.000191873
0.000270284
0.000350197
0.000434474
0.000534367
0.000709242
0.000987175
0.00131497
0.00171001
0.0021763
0.00260801
0.0030279
0.00338526
0.00354653
0.00358317
0.00331537
0.00294211
0.00253045
0.00202918
0.00173367
0.00116887
0.000881566
0.000533647
0.000408042
0.000350562
0.000326278
0.000316835
0.000332913
0.000390783
0.000503445
0.000583595
0.000661264
0.000717007
0.000800519
0.000913754
0.00113942
0.00156925
0.00248511
0.00374491
0.00558922
0.00816226
0.0118908
0.0179365
0.0262454
0.036106
0.0463888
0.0550855
0.0607021
0.0633578
0.0640733
0.0603565
0.0538524
0.0442802
0.0347988
0.0238401
0.0163937
0.0119948
0.0086334
0.00646109
0.00496674
0.00371479
0.00255606
0.00171676
0.00116625
0.000883985
0.000735246
0.000656529
0.000619296
0.000594401
0.000551329
0.000502979
0.000465284
0.000448674
0.000448701
0.000463532
0.000498277
0.000527733
0.000523963
0.00050917
0.000506827
0.000505962
0.00049815
0.000462824
0.000384922
0.000279129
0.00019351
0.000138701
0.000111614
9.9829e-05
9.39724e-05
9.12373e-05
9.09566e-05
8.99976e-05
8.67995e-05
8.25232e-05
7.73648e-05
7.09667e-05
6.46913e-05
6.04444e-05
5.79112e-05
5.70389e-05
5.64651e-05
5.5533e-05
5.43575e-05
5.30391e-05
5.16464e-05
5.02396e-05
4.88198e-05
4.72564e-05
4.53127e-05
4.27889e-05
3.98647e-05
3.71312e-05
3.50409e-05
3.3698e-05
3.30128e-05
3.2678e-05
3.23497e-05
3.17564e-05
3.05519e-05
2.7712e-05
2.23117e-05
1.65072e-05
1.15214e-05
7.63526e-06
4.82855e-06
2.92743e-06
1.70904e-06
9.65208e-07
5.30341e-07
2.85894e-07
1.53384e-07
8.39481e-08
4.86448e-08
3.09718e-08
2.20791e-08
1.7856e-08
1.63163e-08
1.596e-08
1.56806e-08
1.48816e-08
1.26761e-08
1.02182e-08
8.02141e-09
6.12687e-09
4.56176e-09
3.31478e-09
2.35326e-09
1.63388e-09
1.1105e-09
7.39472e-10
4.82761e-10
3.09155e-10
1.94272e-10
1.1982e-10
7.25383e-11
4.31031e-11
2.51361e-11