/*--------------------------------*- C++ -*----------------------------------*\
  =========                 |
  \\      /  F ield         | OpenFOAM: The Open Source CFD Toolbox
   \\    /   O peration     | Website:  https://openfoam.org
    \\  /    A nd           | Version:  7
     \\/     M anipulation  |
\*---------------------------------------------------------------------------*/
FoamFile
{
    version     2.0;
    format      ascii;
    class       volScalarField;
    location    "0.046";
    object      nut;
}
// * * * * * * * * * * * * * * * * * * * * * * * * * * * * * * * * * * * * * //

dimensions      [0 2 -1 0 0 0 0];

internalField   nonuniform List<scalar> 
12225
(
0
0
0
0
0
0
0
0
0
0
0
0
0
0
0
0
0
0
0
0
0
0
0
0
0
0
0
0
0
0
0
0
0
0
0
0
0
4.61258e-10
4.6451e-10
6.89306e-11
0
0
0
0
0
0
0
0
0
0
0
0
0
0
1.57708e-08
1.12292e-08
1.24096e-08
4.83938e-09
2.55695e-10
0
0
0
0
0
0
0
0
0
1.26926e-10
2.64493e-10
2.4485e-10
0
3.17632e-07
2.23533e-07
1.5538e-07
1.39664e-07
2.15411e-08
0
0
0
0
0
0
4.36537e-10
9.23029e-10
1.38936e-09
1.89758e-09
1.13627e-09
1.21197e-09
0
4.51161e-07
3.74385e-07
3.50461e-07
5.06711e-07
6.51902e-07
4.59012e-07
1.25675e-07
0
0
2.89078e-09
1.10466e-08
1.27333e-08
1.22682e-08
1.26631e-08
1.40369e-08
1.06352e-08
6.91726e-09
1.7294e-09
4.57258e-07
4.98042e-07
4.95741e-07
7.61249e-07
6.84055e-07
2.82998e-07
5.12445e-08
6.06466e-09
4.90124e-09
0
0
0
2.66266e-08
1.00518e-07
1.1637e-07
9.9187e-08
8.0463e-08
6.03144e-08
0
2.62764e-07
6.53852e-07
8.81995e-07
4.10976e-07
1.33028e-07
4.72105e-08
5.95966e-08
7.55588e-08
6.30584e-08
3.61726e-08
2.6379e-08
4.70775e-08
6.49397e-08
6.64179e-08
6.20989e-08
5.83881e-08
5.53936e-08
0
2.34003e-08
1.06703e-06
9.03553e-07
4.05417e-07
1.22632e-07
6.07775e-08
2.06815e-07
3.31624e-07
2.85847e-07
1.65832e-07
8.92898e-08
7.47588e-08
6.33524e-08
4.55131e-08
3.28003e-08
2.73932e-08
2.47851e-08
0
2.67593e-07
1.10102e-06
1.14646e-06
1.00968e-06
5.91904e-07
2.86523e-07
8.76943e-07
1.02077e-06
5.61009e-07
2.06748e-07
8.89032e-08
8.11962e-08
4.96798e-08
1.9679e-08
2.48913e-09
0
0
0
3.33883e-07
9.22202e-07
1.81392e-06
2.05179e-06
9.76774e-07
6.42848e-07
9.71785e-07
7.55022e-07
3.85871e-07
1.60845e-07
1.27577e-07
1.02662e-07
2.67595e-10
0
0
0
0
0
3.88522e-07
3.41397e-07
1.0787e-06
5.27949e-07
2.44233e-07
2.48876e-07
2.27702e-07
2.33114e-07
2.66103e-07
2.91768e-07
2.84344e-07
1.82494e-07
2.3872e-08
0
0
0
0
3.09562e-08
3.02369e-07
3.41397e-07
5.93729e-07
2.26399e-07
1.95305e-07
2.25407e-07
1.25503e-07
1.86987e-07
2.92551e-07
3.20599e-07
2.9746e-07
2.21979e-07
7.41813e-08
0
0
0
0
5.82237e-08
1.57016e-07
2.78007e-08
4.52807e-07
3.98559e-07
4.46749e-07
2.83766e-07
9.85449e-08
1.76521e-07
1.66434e-07
1.45921e-07
1.85738e-07
2.25368e-07
1.02646e-07
0
0
0
0
2.90514e-08
0
0
0
3.99542e-07
7.42404e-07
1.7089e-07
2.48658e-07
2.54755e-07
1.32681e-07
1.33003e-07
2.27259e-07
2.47156e-07
7.61802e-08
0
0
0
0
2.64019e-07
2.65152e-07
2.86855e-08
7.86446e-08
2.83839e-07
4.53693e-07
8.56171e-08
9.09452e-08
3.72984e-08
8.64282e-08
2.33326e-07
2.4709e-07
1.67046e-07
4.55702e-08
0
0
0
0
3.30359e-07
7.25637e-07
4.27166e-07
3.16197e-07
4.5792e-07
3.55365e-07
5.207e-09
0
0
0
3.65937e-08
7.52067e-07
6.19921e-07
3.0135e-07
1.60794e-07
1.11696e-07
5.93624e-08
1.26892e-08
2.01294e-07
6.11578e-07
7.67936e-07
4.76563e-07
4.18338e-07
1.92893e-07
0
0
0
0
2.14578e-07
9.8238e-07
1.28125e-06
1.12593e-06
8.11582e-07
5.09639e-07
3.15543e-07
2.20698e-07
7.4625e-07
4.63196e-07
0
0
0
0
0
0
0
0
0
1.35406e-07
3.06031e-07
3.27916e-07
2.75544e-07
1.99423e-07
1.34133e-07
9.50885e-08
5.74393e-07
1.25529e-07
0
0
0
0
0
0
0
0
0
0
0
5.71249e-08
1.17579e-07
1.39642e-07
1.33795e-07
1.14874e-07
9.60591e-07
5.39515e-08
0
0
0
0
1.73598e-07
0
0
0
0
0
0
0
0
3.82331e-09
4.06665e-09
1.43427e-09
7.79633e-07
1.65437e-07
2.28991e-07
0
0
0
0
1.14253e-07
1.17716e-07
7.91348e-08
5.99398e-08
5.49001e-08
4.68619e-08
3.12676e-08
1.94071e-08
2.48094e-08
4.64063e-08
7.48012e-08
0
0
0
0
0
0
0
0
3.26168e-08
3.47382e-08
2.85276e-08
2.91854e-08
3.10139e-08
2.71634e-08
1.91727e-08
1.37535e-08
1.79376e-08
3.19511e-08
0
0
0
0
0
0
3.76353e-08
9.69788e-08
1.12197e-07
1.0347e-07
8.89732e-08
7.52317e-08
6.06412e-08
4.19995e-08
1.71322e-08
0
0
0
0
0
0
0
0
0
9.82724e-08
1.55219e-07
1.86293e-07
2.02336e-07
1.92294e-07
1.4612e-07
8.05597e-08
2.13652e-08
0
0
0
0
0
1.45788e-08
0
0
0
3.65421e-08
1.0136e-07
1.32996e-07
1.64061e-07
1.89036e-07
1.76471e-07
1.21172e-07
4.73353e-08
0
0
0
0
0
0
0
0
0
0
0
0
0
0
0
0
0
0
0
0
0
0
0
7.72794e-09
0
0
0
0
0
0
0
0
0
0
0
0
0
0
0
0
0
8.71719e-09
0
0
0
0
0
0
0
0
0
0
0
0
0
0
0
0
0
6.80362e-08
0
0
0
0
0
0
0
0
0
0
0
0
0
0
0
0
0
4.59039e-08
1.78718e-07
1.2907e-07
1.29212e-08
0
0
0
0
0
0
0
0
0
0
0
0
0
0
4.49782e-10
3.2027e-08
6.59205e-08
1.07131e-07
1.4662e-07
1.75073e-07
1.85242e-07
1.48604e-07
9.12294e-08
3.7581e-07
6.82666e-07
0
0
0
3.37794e-06
7.90807e-06
1.38181e-05
2.22973e-05
1.367e-05
2.7363e-06
4.57478e-07
4.04376e-08
0
0
8.79235e-09
3.15483e-08
4.02735e-08
3.73903e-08
3.21953e-08
2.31637e-08
1.64735e-08
1.02965e-08
5.75707e-09
1.94679e-09
0
0
0
0
0
0
0
0
0
0
0
0
0
0
0
0
0
0
0
0
0
0
0
0
0
0
0
0
0
0
0
0
0
0
0
0
0
0
0
0
0
0
0
0
0
0
0
0
0
0
0
0
0
0
0
0
0
0
0
0
0
0
0
0
0
0
0
0
0
0
0
0
0
0
0
0
0
0
0
0
0
0
0
0
0
0
0
0
0
0
0
0
0
0
0
0
0
0
0
0
0
0
0
0
0
0
0
0
0
0
0
0
0
0
0
0
0
0
0
0
0
0
0
0
0
0
0
0
1.69773e-08
1.79633e-07
3.34269e-07
3.07246e-07
1.60569e-07
0
0
0
0
0
0
0
0
0
0
0
0
0
1.00741e-08
1.12752e-07
2.10379e-07
2.88139e-07
3.44506e-07
3.79337e-07
4.03069e-07
4.48371e-07
5.83607e-07
1.03718e-06
1.06475e-07
0
0
0
0
0
0
3.56951e-07
1.21398e-06
7.26906e-07
2.80659e-07
6.30732e-08
0
0
3.31498e-09
2.15916e-08
3.17643e-08
3.51447e-08
3.39852e-08
2.98477e-08
2.44518e-08
1.78606e-08
1.09489e-08
4.00837e-09
0
0
0
0
0
0
0
0
0
0
0
0
0
0
0
0
0
0
0
0
0
0
0
0
0
0
0
0
0
0
0
0
0
0
0
0
0
0
0
0
0
0
0
0
0
0
0
0
0
0
0
0
0
0
0
0
0
0
0
0
0
0
0
0
0
0
0
0
0
0
0
0
0
0
0
0
0
0
0
0
0
0
0
0
0
0
0
0
0
0
0
0
0
0
0
0
0
0
0
0
0
0
0
0
0
0
0
0
0
0
0
0
0
0
0
0
0
0
0
0
0
0
0
0
0
0
4.02235e-13
0
6.07729e-10
4.74732e-08
2.0758e-07
3.77848e-07
4.50017e-07
4.81645e-07
4.97777e-07
5.01791e-07
5.02063e-07
4.69673e-07
4.15011e-07
3.11478e-07
1.13412e-07
0
0
0
0
0
5.49024e-07
1.33642e-06
1.31885e-06
8.88548e-07
4.6761e-07
1.70473e-07
0
0
0
0
0
0
0
0
0
1.52065e-07
1.56107e-07
3.10852e-08
2.54757e-07
2.17886e-07
7.90563e-08
5.77962e-09
0
0
2.16808e-08
5.92033e-08
8.95e-08
1.04015e-07
1.03601e-07
9.05584e-08
7.12212e-08
5.0102e-08
3.0156e-08
1.25186e-08
0
0
0
0
0
0
0
0
0
0
0
0
0
0
0
0
0
0
0
0
0
0
0
0
0
0
0
0
0
0
0
0
0
0
0
0
0
0
0
0
0
0
0
0
0
0
0
0
0
0
0
0
0
0
0
0
0
0
0
0
0
0
0
0
0
0
0
0
0
0
0
0
0
0
0
0
0
0
0
0
0
0
0
0
0
0
0
0
0
0
0
0
0
0
0
0
0
0
0
0
0
0
0
0
0
0
0
0
0
0
0
0
0
0
0
0
0
0
0
6.00824e-16
0
1.38888e-14
0
2.52692e-14
1.00802e-13
0
4.03531e-12
0
0
1.03119e-08
1.1245e-07
3.93376e-07
4.80108e-07
5.34167e-07
5.91535e-07
6.61779e-07
7.28147e-07
8.03569e-07
8.48477e-07
8.45554e-07
6.99546e-07
3.12755e-07
0
0
0
2.87892e-06
6.78076e-06
4.61951e-06
2.60877e-06
1.18252e-06
2.96996e-07
0
0
0
0
0
0
0
0
0
0
0
0
0
0
0
0
0
2.22532e-08
1.5144e-07
3.5155e-07
5.99392e-07
8.4e-07
1.00652e-06
1.10618e-06
1.15447e-06
1.20348e-06
1.26939e-06
1.30977e-06
1.1347e-06
3.56917e-07
0
0
0
0
0
0
0
0
0
0
0
0
0
0
0
0
0
0
0
0
0
0
0
0
0
0
0
1.93602e-08
5.27625e-08
6.87174e-08
7.25587e-08
6.73849e-08
5.50556e-08
3.8757e-08
2.33903e-08
1.14992e-08
3.58801e-09
1.38209e-10
0
0
0
0
0
0
0
0
0
0
0
0
0
0
0
0
0
0
0
0
0
0
0
0
0
0
0
0
0
0
0
0
0
0
0
0
0
0
0
0
0
0
0
0
0
0
0
0
0
0
0
0
0
0
0
0
0
0
0
0
0
0
0
0
0
0
0
0
0
0
0
0
0
0
0
0
0
0
1.03324e-15
1.01119e-15
4.35503e-15
5.34074e-15
4.01816e-15
2.44171e-14
0
2.28313e-13
0
2.69064e-12
0
0
0
4.31152e-08
3.60999e-07
4.08485e-07
4.47581e-07
5.05507e-07
5.76321e-07
6.39951e-07
6.80385e-07
6.62335e-07
4.88153e-07
0
0
0
0
1.88359e-06
1.49326e-05
1.09281e-05
7.08214e-06
4.2979e-06
2.24042e-06
7.15991e-07
0
0
0
0
0
0
0
0
0
0
0
0
0
0
0
1.06068e-07
3.47041e-07
6.44636e-07
9.41104e-07
1.1277e-06
1.14802e-06
1.09902e-06
1.0395e-06
1.04847e-06
1.13233e-06
1.32677e-06
1.65652e-06
2.16565e-06
2.77204e-06
1.92296e-06
0
0
0
0
0
0
0
0
0
0
0
0
0
0
0
0
0
0
0
0
0
0
0
0
0
0
0
0
0
0
3.94307e-08
5.96217e-08
6.10279e-08
4.85351e-08
3.22526e-08
1.84834e-08
9.79982e-09
5.87042e-09
2.94516e-09
0
0
0
0
0
0
0
0
0
0
0
0
0
0
0
0
0
0
0
0
0
0
0
0
0
0
0
0
0
0
0
0
0
0
0
0
0
0
0
0
0
0
0
0
0
0
0
0
0
0
0
0
0
0
0
0
0
0
0
0
6.95884e-13
3.28785e-12
4.09049e-12
4.00463e-12
3.50226e-12
2.85752e-12
2.21494e-12
1.65471e-12
1.19402e-12
8.394e-13
5.71477e-13
3.7489e-13
2.3653e-13
1.31708e-13
7.0864e-14
1.11981e-14
0
0
0
0
0
0
1.24448e-14
0
2.0199e-13
0
1.8248e-12
0
0
0
8.17918e-09
2.41509e-07
2.51481e-07
2.69959e-07
2.99281e-07
3.23122e-07
3.27489e-07
2.84704e-07
1.22694e-07
0
0
0
0
1.0923e-05
2.19083e-05
1.67553e-05
1.24872e-05
8.94001e-06
5.90214e-06
3.24871e-06
1.22258e-06
1.31313e-07
0
0
0
0
0
0
0
0
0
0
0
0
1.00718e-08
3.29951e-07
7.39199e-07
1.15227e-06
1.36812e-06
1.27606e-06
1.01419e-06
7.32358e-07
5.02354e-07
3.51604e-07
2.71621e-07
2.56453e-07
2.97337e-07
3.90546e-07
5.25228e-07
6.34621e-07
4.76284e-07
0
0
0
0
0
0
0
0
0
0
0
0
0
0
0
0
0
0
0
0
0
0
0
0
0
0
0
0
0
0
0
0
2.5787e-08
3.34948e-08
2.78377e-08
2.10362e-08
1.72695e-08
1.44976e-08
8.85692e-09
1.05933e-09
0
0
0
0
0
0
0
0
0
0
0
0
0
0
0
0
0
0
0
0
0
0
0
0
0
0
0
0
0
0
0
0
0
0
0
0
0
0
0
0
0
0
0
0
0
0
0
0
0
0
0
0
0
0
0
0
0
0
0
0
0
0
0
0
0
0
0
0
0
0
0
0
0
0
0
0
0
1.25084e-14
0
2.35976e-13
0
1.25612e-12
0
9.59808e-12
0
1.64112e-11
0
0
0
0
0
0
0
0
0
0
0
0
0
4.02585e-08
2.66971e-06
1.14588e-05
1.84032e-05
1.81079e-05
1.58986e-05
1.35227e-05
1.09715e-05
8.01251e-06
4.88499e-06
2.30673e-06
7.3186e-07
0
0
0
0
0
0
0
0
0
0
0
2.84013e-07
6.48004e-07
1.05273e-06
1.33553e-06
1.27722e-06
9.01828e-07
4.67176e-07
1.35483e-07
0
0
0
0
0
0
0
4.09988e-08
8.89598e-08
0
0
0
7.2254e-08
2.3154e-07
3.33435e-07
3.65509e-07
3.6436e-07
3.18628e-07
2.45837e-07
1.43369e-07
1.2033e-08
0
0
0
0
0
0
0
0
0
0
0
0
0
0
0
0
0
0
0
0
0
0
0
6.6757e-09
1.12202e-08
1.44869e-08
1.41789e-08
9.3349e-09
2.57941e-09
0
0
0
0
0
0
0
0
0
0
0
0
0
0
0
0
0
0
0
0
0
0
0
0
0
0
0
0
0
0
0
0
0
0
0
0
0
0
0
0
0
0
0
0
0
0
0
0
0
0
0
0
0
0
0
0
0
0
0
0
0
0
0
0
0
0
0
0
0
0
0
0
0
0
0
0
0
0
1.98106e-13
1.58654e-12
1.45332e-12
5.2736e-12
1.63887e-12
6.40273e-12
0
0
0
0
0
0
0
0
0
0
0
0
0
2.05555e-08
7.11846e-07
2.44018e-06
5.71569e-06
9.48477e-06
1.18948e-05
1.28166e-05
1.30145e-05
1.30631e-05
1.22365e-05
9.63257e-06
5.59031e-06
2.51235e-06
1.00809e-06
2.20048e-07
0
0
0
0
0
0
0
1.46409e-08
3.0281e-07
4.26969e-07
5.22795e-07
7.11617e-07
8.92048e-07
8.33925e-07
5.03671e-07
1.4162e-07
0
0
0
0
0
0
0
0
9.26619e-08
2.70961e-07
1.34412e-07
0
0
0
0
2.23549e-07
3.35886e-07
3.36103e-07
2.74416e-07
2.08584e-07
1.39246e-07
9.91331e-08
7.81398e-08
6.80518e-08
5.22941e-08
1.21697e-08
0
0
0
0
0
0
0
0
0
0
0
0
0
0
0
0
0
0
0
0
0
9.74455e-10
7.34038e-09
7.50956e-09
3.85753e-09
0
0
0
0
0
0
0
0
0
0
0
0
0
0
0
0
0
0
0
0
0
0
0
0
0
0
0
0
0
0
0
0
0
0
0
0
0
0
0
0
0
0
0
0
0
0
0
0
0
0
0
0
0
0
0
0
0
0
0
0
0
0
0
0
0
0
0
0
0
0
0
0
0
0
0
0
0
0
0
0
3.45586e-13
3.07557e-13
1.23756e-12
0
0
0
0
0
0
0
0
0
0
0
0
0
0
0
0
3.80788e-07
1.45664e-06
3.06786e-06
4.76324e-06
6.01025e-06
6.81864e-06
7.48229e-06
8.25455e-06
9.11845e-06
9.1697e-06
7.00371e-06
4.22998e-06
2.26559e-06
1.04955e-06
2.61263e-07
0
0
0
0
2.81912e-08
1.30314e-08
0
0
0
4.16192e-08
2.57103e-07
3.69011e-07
2.24642e-07
0
0
0
0
0
0
0
0
4.53415e-07
1.15014e-06
1.95059e-06
2.31005e-06
9.8903e-07
0
0
0
0
6.11565e-07
8.69113e-07
8.93415e-07
7.15654e-07
5.28918e-07
2.93698e-07
1.26448e-07
8.68978e-09
0
0
0
0
0
0
0
0
0
0
0
0
0
0
0
0
0
0
0
0
0
0
0
0
0
0
0
0
0
0
0
0
0
0
0
0
0
0
0
0
0
0
0
0
0
0
0
0
0
0
0
0
0
0
0
0
0
0
0
0
0
0
0
0
0
0
0
0
0
0
0
0
0
0
0
0
0
0
0
0
0
0
0
0
0
0
0
0
0
0
0
0
0
0
0
0
0
0
0
0
0
0
0
0
0
0
0
0
0
0
0
0
0
0
0
0
0
0
0
0
0
0
0
0
0
0
0
0
9.5979e-08
7.09012e-07
1.42909e-06
2.02255e-06
2.46542e-06
2.82745e-06
3.1256e-06
3.51438e-06
4.04767e-06
4.56881e-06
4.73595e-06
3.61146e-06
2.08919e-06
8.64567e-07
3.95208e-07
2.46277e-07
1.72822e-07
1.05166e-07
3.69691e-08
0
0
0
0
0
5.12169e-08
2.97066e-08
0
0
0
0
0
0
0
4.24925e-07
1.27833e-06
2.76823e-06
5.13955e-06
8.53786e-06
1.15733e-05
3.22689e-06
0
0
0
0
0
4.75277e-07
9.8923e-07
1.10837e-06
1.03242e-06
8.09376e-07
5.33892e-07
2.70469e-07
1.001e-07
1.77759e-08
0
0
0
0
0
0
0
0
0
0
0
0
9.08042e-08
2.57201e-07
1.96456e-07
0
0
0
0
0
0
0
0
0
0
0
0
0
0
0
0
0
0
0
0
0
0
0
0
0
0
0
0
0
0
0
0
0
0
0
0
0
0
0
0
0
0
0
0
0
0
0
0
0
0
0
0
0
0
0
0
0
0
0
0
0
0
0
0
0
0
0
0
0
0
0
0
0
0
0
0
0
0
0
0
0
0
0
0
0
0
0
0
0
0
0
0
0
0
0
0
0
0
0
0
0
0
0
0
0
0
0
0
0
0
0
0
0
0
1.09383e-07
3.54432e-07
5.60243e-07
6.98339e-07
7.88946e-07
8.57646e-07
8.98993e-07
9.4956e-07
8.19409e-07
6.7072e-07
4.59942e-07
3.40853e-07
2.57032e-07
1.93427e-07
1.40772e-07
9.68172e-08
5.90748e-08
2.52609e-08
0
0
0
0
0
0
0
0
0
0
4.07585e-08
5.03309e-07
1.45688e-06
3.24973e-06
6.29346e-06
1.10252e-05
1.7499e-05
2.10517e-05
0
0
0
0
0
0
0
3.0075e-07
7.55928e-07
8.6688e-07
7.95551e-07
6.40532e-07
4.47283e-07
2.52577e-07
1.29724e-07
9.83268e-08
1.22667e-07
1.41425e-07
1.22208e-07
7.86637e-08
3.10647e-08
0
0
0
0
0
0
0
0
0
0
0
0
0
0
0
0
0
0
0
0
0
0
0
0
0
0
0
0
0
0
0
0
0
0
0
0
0
0
0
0
0
0
0
0
0
0
0
0
0
0
0
0
0
0
0
0
0
0
0
0
0
0
0
0
0
0
0
0
0
0
0
0
0
0
0
0
0
0
0
0
0
0
0
0
0
0
0
0
0
0
0
0
0
0
0
0
0
0
0
0
0
0
0
0
0
0
0
0
0
0
0
0
0
0
0
0
0
0
0
0
0
0
0
0
0
0
4.71785e-08
1.8414e-07
3.06478e-07
3.99868e-07
4.60467e-07
4.29507e-07
3.87456e-07
3.16528e-07
2.65537e-07
2.22895e-07
1.89334e-07
1.68173e-07
1.48614e-07
1.28138e-07
1.03967e-07
8.05498e-08
5.26183e-08
1.35464e-08
0
0
0
0
0
0
0
2.21585e-07
8.37037e-07
2.01756e-06
3.91333e-06
6.44542e-06
8.83757e-06
8.65794e-06
1.8202e-06
0
0
0
0
0
0
0
0
3.83862e-07
5.95169e-07
5.62473e-07
4.55694e-07
3.53099e-07
2.2448e-07
8.00541e-08
1.56845e-09
3.42469e-08
1.13431e-07
1.51903e-07
1.34102e-07
9.92968e-08
7.49246e-08
3.51808e-08
0
0
0
0
0
0
0
0
0
0
0
0
0
0
0
0
0
0
0
0
0
0
0
0
0
0
0
0
0
0
0
0
0
0
0
0
0
0
0
0
0
0
0
0
0
0
0
0
0
0
0
0
0
0
0
0
0
0
0
0
0
0
0
0
0
0
0
0
0
0
0
0
0
0
0
0
0
0
0
0
0
0
0
0
0
0
0
0
0
0
0
0
0
0
0
0
0
0
0
0
0
0
0
0
0
0
0
0
0
0
0
0
0
0
0
0
0
0
0
0
0
0
0
0
0
6.98305e-08
1.65835e-07
2.31584e-07
2.66677e-07
2.62801e-07
2.4957e-07
2.23714e-07
2.02311e-07
1.8956e-07
1.86351e-07
1.89598e-07
1.91632e-07
1.90438e-07
1.75597e-07
1.48628e-07
1.1035e-07
6.57231e-08
2.04936e-08
0
0
0
0
0
0
7.53253e-08
3.73602e-07
8.34742e-07
1.31953e-06
1.48912e-06
7.03612e-07
0
0
0
0
0
0
0
0
0
0
0
3.03663e-07
3.5014e-07
2.72145e-07
2.19382e-07
1.87072e-07
9.28101e-08
0
0
0
3.50833e-08
7.9951e-08
4.63585e-08
0
0
0
0
0
0
0
0
0
0
0
0
0
0
0
0
0
0
0
0
0
0
0
0
0
0
0
0
0
0
0
0
0
0
0
0
0
0
0
0
0
0
0
0
0
0
0
4.44509e-10
0
0
0
0
0
0
0
0
0
0
0
0
0
0
0
0
0
0
0
0
0
0
0
0
0
0
0
0
0
0
0
0
0
0
0
0
0
0
0
0
0
0
0
0
0
0
0
0
0
0
0
0
0
0
0
0
0
0
0
0
0
0
0
0
0
0
0
0
0
0
0
0
0
0
0
0
0
0
0
4.23289e-08
1.01665e-07
1.42018e-07
1.63935e-07
1.68561e-07
1.64852e-07
1.56947e-07
1.5861e-07
1.72665e-07
1.95965e-07
2.16148e-07
2.28652e-07
2.34844e-07
2.30715e-07
2.14329e-07
1.87267e-07
1.57286e-07
1.27814e-07
9.90351e-08
6.93336e-08
3.87967e-08
4.79529e-09
0
0
0
0
0
0
0
0
0
0
0
0
0
0
0
0
0
0
0
4.20403e-08
1.55112e-07
1.16998e-07
6.53478e-08
6.72109e-08
8.55288e-08
9.2912e-09
0
0
0
5.94253e-08
6.36297e-08
0
0
0
0
0
0
1.89789e-08
6.70156e-08
7.50931e-08
5.56677e-08
0
0
0
0
0
0
0
0
0
0
4.64417e-09
2.01609e-08
1.17873e-08
0
0
0
0
0
0
0
0
0
0
0
0
0
0
0
0
0
0
0
0
0
0
0
0
3.65799e-09
1.02246e-08
1.09079e-10
0
0
0
0
0
0
0
0
0
0
0
0
0
0
0
0
0
0
0
0
0
0
0
0
0
0
0
0
0
0
0
0
0
0
0
0
0
0
0
0
0
0
0
0
0
0
0
0
0
0
0
0
0
0
0
0
0
0
0
0
0
0
0
0
0
0
0
0
0
0
0
0
0
0
0
0
1.07784e-08
5.07228e-08
7.51049e-08
8.77991e-08
9.08434e-08
8.66054e-08
8.10585e-08
8.22622e-08
9.76063e-08
1.33873e-07
1.88672e-07
2.47563e-07
2.96076e-07
3.18106e-07
3.15142e-07
2.961e-07
2.71732e-07
2.57205e-07
2.52268e-07
2.51977e-07
2.4779e-07
2.3863e-07
2.16692e-07
1.46334e-07
0
0
0
0
0
0
0
0
0
0
0
0
0
0
0
0
0
0
1.39333e-08
3.20937e-08
1.36905e-08
0
0
3.40571e-08
7.74371e-08
7.10014e-09
0
0
7.91918e-08
1.51106e-07
5.04962e-08
0
0
0
0
0
0
0
0
0
7.2518e-10
0
0
0
0
0
0
0
0
0
0
9.48246e-09
2.39275e-08
1.87607e-08
9.60535e-09
2.72706e-09
0
0
0
0
0
0
0
0
0
0
0
0
0
0
0
0
0
0
0
0
0
0
6.57549e-09
1.1757e-08
1.36085e-09
0
0
0
0
0
0
0
0
0
0
0
0
0
0
0
0
0
0
0
0
0
0
0
0
0
0
0
0
0
0
0
0
0
0
0
0
0
0
0
0
0
0
0
0
0
0
0
0
0
0
0
0
0
0
0
0
0
0
0
0
0
0
0
0
0
0
0
0
0
0
0
0
0
7.17943e-09
4.3149e-08
6.74049e-08
7.67987e-08
7.07109e-08
5.45485e-08
3.29311e-08
8.41356e-09
0
0
0
2.13731e-08
9.87433e-08
1.9802e-07
3.01069e-07
3.83716e-07
4.29029e-07
4.3425e-07
4.07167e-07
3.79223e-07
3.66248e-07
3.74346e-07
3.94451e-07
4.27883e-07
4.49954e-07
4.31928e-07
2.7839e-07
0
0
0
0
0
0
0
0
0
0
0
1.03416e-06
2.51391e-06
2.18981e-06
1.32665e-06
5.96743e-07
2.68409e-07
1.37412e-07
4.63339e-09
0
0
0
0
6.14689e-08
9.4e-08
0
0
3.70619e-08
1.81869e-07
1.12297e-07
0
0
0
0
0
0
0
0
0
0
0
0
0
0
0
0
0
0
0
0
0
0
9.3255e-09
1.39217e-08
1.39979e-08
1.34553e-08
1.23579e-08
1.01557e-08
7.80498e-09
6.19376e-09
3.36556e-09
0
0
0
0
0
0
0
7.12004e-10
0
0
0
0
1.62939e-09
3.26886e-09
0
0
9.45458e-10
8.87726e-09
8.87152e-09
0
0
0
0
0
0
0
0
0
0
0
0
0
0
0
0
0
0
0
0
0
0
0
0
0
0
0
0
0
0
0
0
0
0
0
0
0
0
0
0
0
0
0
0
0
0
0
0
0
0
0
0
0
0
0
0
0
0
0
0
0
0
0
0
0
0
0
0
0
0
0
8.08052e-09
4.97234e-08
8.59068e-08
1.13075e-07
1.25703e-07
1.20079e-07
9.62558e-08
5.94496e-08
1.73491e-08
0
0
0
0
0
0
6.96151e-09
1.22597e-07
2.52404e-07
3.66892e-07
4.45189e-07
4.79421e-07
4.80915e-07
4.65234e-07
4.45276e-07
4.49238e-07
4.77902e-07
5.30749e-07
5.57256e-07
5.40998e-07
3.51257e-07
0
0
0
0
0
0
0
0
0
1.07554e-06
6.62117e-06
5.67972e-06
3.614e-06
1.91954e-06
8.56233e-07
3.56185e-07
1.5685e-07
2.30594e-09
0
0
2.53232e-08
4.40957e-09
1.59297e-08
7.85719e-08
1.46839e-08
0
0
1.96396e-08
3.28895e-08
0
0
0
0
0
0
0
0
0
1.53152e-07
7.53661e-08
0
0
0
0
0
0
0
0
0
5.04212e-11
5.70037e-09
7.7955e-09
1.09286e-08
1.39211e-08
1.66902e-08
1.82228e-08
1.74239e-08
1.49672e-08
1.31692e-08
1.1373e-08
6.99666e-09
1.35804e-09
0
0
1.09312e-09
1.7946e-09
2.13434e-09
3.58782e-09
2.72691e-09
0
0
0
1.29833e-09
6.09866e-09
7.67224e-09
4.87021e-09
3.17801e-09
6.74743e-09
9.64274e-09
2.82849e-09
0
0
0
0
0
0
0
0
0
0
0
0
0
0
0
0
0
0
0
0
0
0
0
0
0
0
0
0
0
0
0
0
0
0
0
0
0
0
0
0
0
0
0
0
0
0
0
0
0
0
0
0
0
0
0
0
0
5.7145e-07
4.88158e-07
1.32067e-07
0
0
0
0
0
0
0
0
0
2.30228e-08
6.73268e-08
1.04179e-07
1.34448e-07
1.57536e-07
1.69932e-07
1.6996e-07
1.54358e-07
1.19508e-07
7.12759e-08
1.76548e-08
0
0
0
0
0
0
0
9.57842e-09
1.27283e-07
2.57511e-07
3.73969e-07
4.55109e-07
4.9581e-07
5.00127e-07
4.93639e-07
4.86916e-07
5.08529e-07
5.18852e-07
5.25138e-07
4.71125e-07
3.04446e-07
0
0
0
0
0
0
0
0
8.84484e-06
7.89797e-06
4.45581e-06
2.28414e-06
1.0766e-06
4.56416e-07
1.85591e-07
8.40845e-08
0
0
0
6.48372e-08
5.6606e-08
0
0
0
0
0
0
0
0
0
0
0
0
0
0
0
0
0
2.84901e-08
5.13386e-08
4.37648e-10
0
0
0
0
3.58056e-08
6.21865e-08
8.02607e-08
8.16189e-08
6.70435e-08
4.97559e-08
3.72938e-08
2.81484e-08
2.25507e-08
1.96011e-08
1.78466e-08
1.63343e-08
1.54882e-08
1.54472e-08
1.33591e-08
9.226e-09
6.57572e-09
5.68679e-09
5.94432e-09
6.17341e-09
5.58185e-09
5.50531e-09
4.1814e-09
1.36106e-10
0
0
0
2.68949e-09
6.17408e-09
6.89392e-09
5.88087e-09
7.59784e-09
1.09875e-08
7.96306e-09
0
0
0
0
0
0
0
0
0
0
0
0
0
0
0
0
0
0
0
0
0
0
0
0
0
0
0
0
0
0
0
0
0
0
0
0
0
0
0
0
0
0
0
0
0
0
0
0
0
0
0
0
0
0
0
0
2.56163e-08
1.10155e-06
1.32245e-06
5.93989e-07
3.56681e-07
2.54824e-07
6.31679e-08
0
0
0
0
0
1.34785e-08
4.91613e-08
8.49178e-08
1.16564e-07
1.44333e-07
1.66843e-07
1.8174e-07
1.89415e-07
1.86236e-07
1.68929e-07
1.33459e-07
8.68993e-08
3.45058e-08
0
0
0
0
0
0
0
0
1.47486e-08
1.12367e-07
2.27428e-07
3.35454e-07
4.1186e-07
4.55841e-07
4.63922e-07
4.60805e-07
4.54577e-07
4.25581e-07
3.86337e-07
3.1723e-07
1.68984e-07
0
0
0
0
0
0
0
4.44699e-06
3.59341e-06
1.9298e-06
9.46381e-07
4.27122e-07
1.98503e-07
1.14193e-07
7.36785e-08
2.23962e-08
0
3.93873e-08
1.08682e-07
7.20045e-08
0
0
0
0
0
0
0
0
0
0
0
0
0
0
0
0
0
0
1.14306e-08
2.67731e-08
1.23944e-08
2.2328e-09
2.88042e-09
3.28519e-08
1.39288e-07
1.53595e-07
1.17868e-07
1.04689e-07
8.98024e-08
7.10463e-08
5.53459e-08
4.44677e-08
3.84685e-08
3.33449e-08
2.70857e-08
2.18015e-08
1.89046e-08
1.8188e-08
1.70088e-08
1.37162e-08
1.24699e-08
1.43321e-08
1.53949e-08
1.48028e-08
1.30335e-08
1.11592e-08
7.73726e-09
1.68708e-09
0
0
0
0
1.15376e-09
1.02026e-09
0
2.31342e-09
9.24142e-09
1.13736e-08
2.52378e-09
0
0
0
0
0
0
0
0
0
0
0
0
0
0
0
0
0
0
0
0
0
0
0
0
0
0
0
0
0
0
0
0
0
0
0
0
0
0
0
0
0
0
0
0
0
0
0
0
0
0
0
0
0
0
0
3.38978e-08
4.76356e-07
1.31882e-06
3.6157e-07
1.36974e-07
3.75497e-07
5.74382e-07
3.67685e-07
9.22286e-08
0
0
3.87959e-09
2.78775e-08
5.05089e-08
7.30759e-08
9.53957e-08
1.17049e-07
1.36845e-07
1.53232e-07
1.65249e-07
1.69883e-07
1.64202e-07
1.46344e-07
1.15485e-07
7.68161e-08
3.47565e-08
0
0
0
0
0
0
0
0
0
7.7979e-10
7.10871e-08
1.62705e-07
2.54012e-07
3.22316e-07
3.54235e-07
3.6931e-07
3.46401e-07
3.14641e-07
2.71673e-07
2.00011e-07
1.20238e-07
1.11582e-08
0
0
0
0
1.88204e-07
8.64133e-07
8.12059e-07
4.78609e-07
2.16649e-07
9.0265e-08
8.6462e-08
9.73757e-08
7.3459e-08
4.92591e-08
7.07157e-08
1.49765e-07
1.69244e-07
7.33007e-08
0
0
0
0
0
0
0
0
0
0
0
0
0
0
0
0
0
0
3.95556e-09
5.40845e-08
4.62788e-08
3.46958e-08
3.63687e-08
7.46715e-08
1.46362e-07
1.36442e-07
1.14105e-07
1.01641e-07
8.26622e-08
5.86831e-08
4.26676e-08
3.74458e-08
3.93107e-08
4.40454e-08
4.42306e-08
3.96277e-08
3.35179e-08
2.81844e-08
2.34561e-08
1.8321e-08
1.5503e-08
1.84459e-08
2.24108e-08
2.31262e-08
2.16091e-08
1.94421e-08
1.54912e-08
6.60907e-09
0
0
0
0
0
0
0
0
0
7.18562e-09
5.17203e-09
0
0
0
0
0
0
0
0
0
0
0
0
0
0
0
0
0
0
0
0
0
0
0
0
0
0
0
0
0
0
0
0
0
0
0
0
0
0
0
0
0
0
0
0
0
0
0
0
0
0
0
0
0
0
0
0
8.92871e-08
6.86226e-07
0
0
0
0
0
0
0
0
0
2.05832e-08
3.72642e-08
4.91793e-08
6.15524e-08
7.34313e-08
8.41733e-08
9.39733e-08
1.02073e-07
1.07444e-07
1.07411e-07
1.00671e-07
8.55446e-08
6.37362e-08
3.81597e-08
1.13506e-08
0
0
0
0
0
0
0
0
0
0
0
7.00942e-09
6.8127e-08
1.28065e-07
1.78456e-07
1.94898e-07
1.94033e-07
1.78046e-07
1.50157e-07
1.28976e-07
1.07747e-07
9.57345e-08
9.76586e-08
1.23323e-07
1.74873e-07
2.42418e-07
1.85005e-07
0
0
0
0
7.43453e-08
1.10027e-07
7.06931e-08
8.4148e-08
2.01882e-07
2.89925e-07
2.27747e-07
9.66309e-08
0
2.89154e-08
1.07202e-09
0
0
0
0
0
0
0
0
0
0
0
0
0
0
0
4.28513e-09
7.34841e-08
6.93144e-08
5.93315e-08
6.49688e-08
9.15234e-08
1.11392e-07
1.15735e-07
1.11657e-07
1.03242e-07
8.85494e-08
7.03821e-08
5.29437e-08
4.18582e-08
3.94205e-08
4.55337e-08
5.16976e-08
5.24821e-08
4.95185e-08
4.45018e-08
3.72907e-08
2.78838e-08
2.06345e-08
2.00635e-08
2.43087e-08
2.70124e-08
2.70721e-08
2.65821e-08
2.46242e-08
1.58476e-08
2.54098e-09
0
0
0
0
0
0
0
0
0
0
0
0
0
0
0
0
0
0
0
0
0
0
0
0
0
0
0
0
0
0
0
0
0
0
0
0
0
0
0
0
0
0
0
0
0
0
0
0
0
0
0
0
0
0
0
0
0
0
0
0
0
0
0
0
0
0
0
0
0
0
0
0
0
0
0
0
0
0
8.52669e-09
1.59587e-08
2.09786e-08
2.58855e-08
3.09205e-08
3.60732e-08
4.07408e-08
4.36393e-08
4.31369e-08
3.8399e-08
2.91297e-08
1.62067e-08
1.30202e-09
0
0
0
0
0
0
0
0
0
0
0
0
0
0
0
0
1.17924e-08
1.79638e-08
1.1942e-08
1.43193e-09
0
0
5.50671e-09
3.30702e-08
7.51129e-08
1.24851e-07
1.3754e-07
0
0
0
0
0
8.80401e-08
9.11367e-08
3.74059e-08
1.25107e-07
3.31517e-07
3.78553e-07
2.47582e-07
6.37232e-08
1.09408e-07
3.27352e-07
8.7487e-08
0
0
0
0
0
0
0
0
0
0
0
0
0
0
0
4.77233e-08
1.18414e-07
1.0798e-07
9.26574e-08
8.71004e-08
8.96796e-08
9.92214e-08
1.05892e-07
1.01124e-07
9.56093e-08
9.01427e-08
8.5918e-08
7.93576e-08
7.13933e-08
6.37622e-08
5.8547e-08
5.72822e-08
5.71656e-08
5.7141e-08
5.64601e-08
5.19604e-08
4.18224e-08
3.00305e-08
2.34811e-08
2.36079e-08
2.61633e-08
2.80294e-08
2.99509e-08
3.17399e-08
2.64465e-08
1.15395e-08
0
0
0
0
0
0
0
0
0
0
0
0
0
0
0
0
0
0
0
0
0
0
0
0
0
0
0
0
0
0
0
0
0
0
0
0
0
0
0
0
0
0
0
0
0
0
0
0
0
0
0
0
0
0
0
0
0
0
0
0
0
0
0
0
0
0
0
0
0
0
0
0
0
0
0
0
0
0
0
0
0
0
0
0
0
0
0
0
0
0
0
0
0
0
0
0
0
0
0
0
0
0
0
0
0
0
0
0
0
0
0
0
0
0
0
0
4.92664e-08
9.9131e-08
0
0
0
0
0
7.90685e-08
5.15115e-08
7.83404e-09
1.87177e-07
4.27637e-07
4.11604e-07
1.95327e-07
0
2.06086e-07
7.50888e-07
2.80264e-07
1.31751e-08
0
0
0
0
0
0
0
0
0
0
0
0
0
0
1.24041e-07
1.79733e-07
1.59983e-07
1.31035e-07
1.08698e-07
9.63304e-08
9.45765e-08
9.37453e-08
9.22285e-08
9.83083e-08
1.01606e-07
9.96683e-08
9.48915e-08
9.03927e-08
8.64481e-08
7.91371e-08
6.96832e-08
6.28926e-08
6.10588e-08
6.24736e-08
6.2876e-08
5.55158e-08
4.25222e-08
3.0718e-08
2.44854e-08
2.3387e-08
2.53669e-08
2.94936e-08
3.50381e-08
3.534e-08
2.23011e-08
5.32588e-09
0
0
0
0
0
0
0
0
0
0
0
0
0
0
0
0
0
0
0
0
0
0
0
0
0
0
0
0
0
0
0
0
0
0
0
0
0
0
0
0
0
0
0
0
0
0
0
0
0
0
0
0
0
0
0
0
0
0
0
0
0
0
0
0
0
0
3.41268e-07
9.35205e-07
0
4.5588e-08
7.90441e-08
0
0
0
0
0
0
0
0
0
0
0
0
0
0
0
0
0
0
0
0
0
0
0
0
0
0
0
0
0
0
0
0
0
0
1.90393e-09
0
0
0
0
0
0
0
0
0
9.32819e-08
2.56278e-07
2.3274e-07
0
0
0
0
6.99284e-08
2.02414e-08
1.01591e-09
2.58566e-07
4.83972e-07
4.03586e-07
7.81792e-08
0
0
1.49126e-06
6.39278e-07
1.00489e-07
0
0
0
0
0
0
0
1.71899e-08
3.09368e-08
1.70734e-07
1.02132e-06
0
0
0
1.79613e-07
2.04577e-07
1.87463e-07
1.587e-07
1.29553e-07
1.07203e-07
9.54999e-08
9.40434e-08
1.00986e-07
1.18751e-07
1.28814e-07
1.24562e-07
1.13104e-07
1.03609e-07
9.89853e-08
9.38082e-08
8.31226e-08
7.08328e-08
6.47515e-08
6.52066e-08
6.8068e-08
6.54961e-08
5.47939e-08
4.13129e-08
2.94594e-08
2.23648e-08
2.14581e-08
2.62159e-08
3.47563e-08
4.08041e-08
3.2465e-08
1.39503e-08
3.14963e-10
0
0
0
0
0
0
0
0
0
0
0
0
0
0
0
0
0
0
0
0
0
0
0
0
0
0
0
0
0
0
0
0
0
0
0
0
0
0
0
0
0
0
0
0
0
0
0
0
0
0
0
0
0
0
0
0
0
0
0
0
0
0
0
0
2.32597e-07
3.44658e-07
2.69881e-07
0
0
0
0
0
0
0
0
0
0
0
0
0
0
0
0
0
0
0
0
0
0
0
0
0
0
0
0
0
0
0
0
0
0
0
3.14032e-08
7.45288e-08
9.05309e-08
4.73942e-08
0
0
0
0
0
0
0
0
9.14125e-08
2.95584e-07
6.48237e-07
0
0
0
0
8.54011e-08
3.46513e-09
1.93112e-08
3.32123e-07
5.06754e-07
3.72937e-07
0
0
0
2.47628e-06
1.11738e-06
1.93486e-07
0
0
0
0
0
0
6.5346e-08
6.84258e-08
9.94003e-08
3.42097e-07
1.06007e-06
0
0
1.48847e-07
2.29723e-07
2.282e-07
2.04824e-07
1.77235e-07
1.48249e-07
1.22446e-07
1.07668e-07
1.07807e-07
1.17482e-07
1.37276e-07
1.5227e-07
1.48835e-07
1.32665e-07
1.16378e-07
1.08408e-07
1.05019e-07
9.66217e-08
8.21995e-08
7.12351e-08
6.81303e-08
7.02282e-08
7.01374e-08
6.34663e-08
5.21186e-08
3.81618e-08
2.50699e-08
1.88708e-08
2.17182e-08
3.17077e-08
4.25589e-08
4.05311e-08
2.2745e-08
5.9988e-09
0
0
0
0
0
0
0
0
0
0
0
0
0
0
0
0
0
0
0
0
0
0
0
0
0
0
0
0
0
0
0
0
0
0
0
0
0
0
0
0
0
0
0
0
0
0
0
0
0
0
0
0
0
0
0
0
0
0
0
0
0
0
0
0
0
0
0
0
0
0
0
0
0
0
0
0
0
0
0
0
0
0
0
0
0
0
0
0
0
0
0
0
0
0
0
0
0
0
0
0
0
1.70767e-08
9.409e-08
1.62683e-07
1.18393e-07
1.80555e-09
0
0
0
0
0
0
0
0
0
1.14832e-07
3.36275e-07
3.44695e-08
0
0
3.85714e-08
1.35071e-07
0
7.40057e-08
3.92036e-07
4.95386e-07
3.22612e-07
0
0
0
3.00592e-06
1.45214e-06
2.1316e-07
0
0
0
0
0
2.03358e-07
1.13764e-07
0
1.90518e-08
1.6548e-07
3.39322e-07
0
9.82243e-08
2.18875e-07
2.50579e-07
2.39481e-07
2.17455e-07
1.88569e-07
1.61978e-07
1.39575e-07
1.25283e-07
1.21522e-07
1.25674e-07
1.39234e-07
1.56641e-07
1.56974e-07
1.4018e-07
1.19719e-07
1.10554e-07
1.09948e-07
1.06365e-07
9.37946e-08
8.03307e-08
7.28751e-08
7.16431e-08
7.14978e-08
6.74099e-08
5.95501e-08
4.73125e-08
3.10066e-08
1.86605e-08
1.74256e-08
2.65026e-08
4.04234e-08
4.47959e-08
3.03628e-08
1.1683e-08
6.37102e-10
0
2.8699e-10
1.81096e-09
0
0
0
0
0
0
0
0
0
0
0
0
0
0
0
0
0
0
0
0
0
0
0
0
0
0
0
0
0
0
0
0
0
0
0
0
0
0
0
0
0
0
0
0
0
0
0
0
0
0
0
0
0
0
0
0
0
0
0
0
0
1.35708e-08
3.59202e-08
3.0544e-08
6.06486e-09
0
0
0
0
0
0
0
0
0
0
0
0
0
0
0
0
0
0
0
0
0
0
0
0
0
0
0
0
0
0
0
0
2.91224e-08
1.62517e-07
1.91793e-07
0
0
0
0
0
0
0
0
0
0
0
0
0
1.21799e-07
0
0
1.57523e-07
2.30331e-07
0
2.25216e-07
4.24411e-07
4.45247e-07
2.47733e-07
0
0
0
3.03031e-06
1.41613e-06
2.17484e-07
1.03764e-08
0
0
0
0
8.95572e-08
7.53622e-08
0
0
0
0
5.32814e-08
1.77235e-07
2.32868e-07
2.35853e-07
2.19036e-07
2.00682e-07
1.82045e-07
1.62679e-07
1.47555e-07
1.36961e-07
1.29544e-07
1.25256e-07
1.28855e-07
1.43929e-07
1.49184e-07
1.35297e-07
1.13729e-07
1.03055e-07
1.0429e-07
1.06258e-07
9.85858e-08
8.56066e-08
7.56648e-08
7.12544e-08
6.93424e-08
6.60028e-08
6.10949e-08
5.25882e-08
3.72531e-08
2.03979e-08
1.39818e-08
1.96483e-08
3.35715e-08
4.29147e-08
3.41644e-08
1.60766e-08
3.64336e-09
0
0
3.97762e-09
2.99663e-09
0
0
0
0
0
0
0
0
0
0
0
0
0
0
0
0
0
0
0
0
0
0
0
0
0
0
0
0
0
0
0
0
0
0
0
0
0
0
0
0
0
0
0
0
0
0
0
0
0
0
0
0
0
0
0
0
0
0
0
0
5.34203e-09
3.10629e-08
4.991e-08
4.03322e-08
4.94162e-09
0
0
0
0
0
0
0
0
0
0
0
0
0
0
0
0
0
0
0
0
0
0
0
0
0
0
0
0
0
0
0
5.50555e-08
3.15941e-07
0
0
0
0
0
0
0
0
0
0
0
0
0
0
3.3768e-09
0
0
2.70694e-07
3.2472e-07
3.80024e-07
5.0632e-07
4.23815e-07
3.66529e-07
1.44242e-07
0
0
0
2.71929e-06
1.1238e-06
1.61558e-07
3.41767e-08
1.4635e-08
4.36676e-09
0
5.56278e-09
6.47143e-08
7.27465e-08
2.13208e-08
0
0
0
9.33728e-08
1.7773e-07
2.14819e-07
2.12419e-07
1.96941e-07
1.77668e-07
1.65151e-07
1.56784e-07
1.50056e-07
1.43706e-07
1.36998e-07
1.29653e-07
1.2553e-07
1.30724e-07
1.37281e-07
1.28623e-07
1.10185e-07
9.77335e-08
9.77771e-08
1.02497e-07
1.00085e-07
9.0081e-08
7.91968e-08
7.22469e-08
6.79799e-08
6.39571e-08
6.07267e-08
5.60801e-08
4.43185e-08
2.53141e-08
1.29889e-08
1.36675e-08
2.47972e-08
3.73625e-08
3.51821e-08
2.00056e-08
6.97269e-09
0
0
2.34214e-09
8.84283e-09
0
0
0
0
0
0
0
0
0
0
0
0
0
0
0
0
0
0
0
0
0
0
0
0
0
0
0
0
0
0
0
0
0
0
0
0
0
0
0
0
0
0
0
0
0
0
0
0
0
0
0
0
0
0
0
0
0
0
0
0
7.5626e-11
4.06145e-09
9.07709e-09
1.2008e-08
2.1615e-09
0
0
0
0
0
0
0
0
0
0
0
0
0
0
0
0
0
0
0
0
0
0
0
0
0
0
0
0
0
0
0
1.39004e-07
0
0
0
0
0
0
0
0
0
0
0
0
0
0
0
0
0
0
6.13055e-08
0
7.71858e-07
7.06671e-07
3.99143e-07
2.74392e-07
2.94408e-08
0
0
0
1.83189e-06
5.67792e-07
6.77582e-08
3.49773e-08
2.87155e-08
2.33633e-08
1.71607e-08
2.12359e-08
5.37727e-08
6.7012e-08
4.60997e-08
0
0
6.30129e-08
1.50316e-07
1.75809e-07
1.88953e-07
1.82751e-07
1.65296e-07
1.51294e-07
1.46114e-07
1.45177e-07
1.43962e-07
1.40503e-07
1.35181e-07
1.27948e-07
1.20471e-07
1.16839e-07
1.17554e-07
1.13413e-07
1.01145e-07
9.08786e-08
8.88591e-08
9.31689e-08
9.3652e-08
8.7783e-08
7.90208e-08
7.04996e-08
6.41687e-08
5.88359e-08
5.61051e-08
5.43343e-08
4.80927e-08
3.13999e-08
1.40048e-08
8.90906e-09
1.48777e-08
2.75267e-08
3.14793e-08
2.15765e-08
9.83276e-09
1.7573e-09
0
0
7.66107e-09
9.76696e-09