/*--------------------------------*- C++ -*----------------------------------*\
  =========                 |
  \\      /  F ield         | OpenFOAM: The Open Source CFD Toolbox
   \\    /   O peration     | Website:  https://openfoam.org
    \\  /    A nd           | Version:  7
     \\/     M anipulation  |
\*---------------------------------------------------------------------------*/
FoamFile
{
    version     2.0;
    format      ascii;
    class       surfaceScalarField;
    location    "0.046";
    object      phi;
}
// * * * * * * * * * * * * * * * * * * * * * * * * * * * * * * * * * * * * * //

dimensions      [0 3 -1 0 0 0 0];

internalField   nonuniform List<scalar> 
24170
(
1.41926e-06
1.72075e-07
1.2934e-06
1.25863e-07
1.15574e-06
1.37659e-07
1.02442e-06
1.31326e-07
9.00549e-07
1.23867e-07
7.8771e-07
1.1284e-07
6.87011e-07
1.00698e-07
5.95184e-07
9.1827e-08
5.09378e-07
8.58067e-08
4.30115e-07
7.92629e-08
3.59984e-07
7.01311e-08
3.01229e-07
5.87545e-08
2.54178e-07
4.70513e-08
2.16829e-07
3.73491e-08
1.85772e-07
3.10569e-08
1.57688e-07
2.8084e-08
1.29925e-07
2.77627e-08
1.71655e-08
1.1276e-07
1.66121e-06
2.09104e-07
1.64685e-06
1.40227e-07
1.628e-06
1.56507e-07
1.59534e-06
1.63988e-07
1.5469e-06
1.72306e-07
1.49085e-06
1.68891e-07
1.4361e-06
1.55442e-07
1.38425e-06
1.43683e-07
1.3319e-06
1.38154e-07
1.27677e-06
1.34393e-07
1.22091e-06
1.2599e-07
1.16774e-06
1.11929e-07
1.11939e-06
9.53941e-08
1.07463e-06
8.21084e-08
1.02957e-06
7.61198e-08
9.82752e-07
7.49022e-08
9.32873e-07
7.76417e-08
7.58299e-08
8.74209e-07
1.81236e-06
2.28988e-07
1.78905e-06
1.63537e-07
1.77531e-06
1.70249e-07
1.76189e-06
1.77408e-07
1.74605e-06
1.8815e-07
1.72585e-06
1.89086e-07
1.70474e-06
1.76554e-07
1.68702e-06
1.61404e-07
1.67319e-06
1.51987e-07
1.66033e-06
1.47244e-07
1.64542e-06
1.40902e-07
1.62764e-06
1.29707e-07
1.6074e-06
1.1564e-07
1.58606e-06
1.03443e-07
1.56347e-06
9.87141e-08
1.53923e-06
9.91419e-08
1.51257e-06
1.043e-07
1.08102e-07
1.4803e-06
1.91696e-06
2.96952e-07
1.89705e-06
1.83445e-07
1.89603e-06
1.71273e-07
1.894e-06
1.79441e-07
1.88866e-06
1.93491e-07
1.8768e-06
2.00938e-07
1.85991e-06
1.93453e-07
1.84451e-06
1.76796e-07
1.83639e-06
1.6011e-07
1.83625e-06
1.47386e-07
1.84006e-06
1.3709e-07
1.84301e-06
1.26762e-07
1.8418e-06
1.16847e-07
1.83599e-06
1.09253e-07
1.82715e-06
1.07553e-07
1.81645e-06
1.09841e-07
1.80536e-06
1.15389e-07
1.20699e-07
1.79276e-06
2.0811e-06
3.51183e-07
2.05733e-06
2.07216e-07
2.05704e-06
1.71561e-07
2.05216e-06
1.84325e-07
2.03796e-06
2.0769e-07
2.01909e-06
2.19803e-07
2.00203e-06
2.10515e-07
1.99262e-06
1.862e-07
1.99307e-06
1.59662e-07
2.00091e-06
1.39547e-07
2.01057e-06
1.27427e-07
2.01652e-06
1.2082e-07
2.0156e-06
1.17761e-07
2.00787e-06
1.16985e-07
1.99659e-06
1.18838e-07
1.98451e-06
1.21917e-07
1.97465e-06
1.25254e-07
1.28319e-07
1.96703e-06
2.30364e-06
3.87117e-07
2.25566e-06
2.55196e-07
2.21438e-06
2.12837e-07
2.18316e-06
2.15543e-07
2.16344e-06
2.27415e-07
2.15062e-06
2.32623e-07
2.14211e-06
2.19025e-07
2.13891e-06
1.89399e-07
2.1418e-06
1.56776e-07
2.14878e-06
1.32565e-07
2.15571e-06
1.20496e-07
2.15855e-06
1.17984e-07
2.15552e-06
1.20783e-07
2.14745e-06
1.25059e-07
2.13741e-06
1.28878e-07
2.12795e-06
1.31372e-07
2.12108e-06
1.32126e-07
1.32372e-07
2.11703e-06
2.42419e-06
4.6254e-07
2.40066e-06
2.78721e-07
2.38771e-06
2.2579e-07
2.37167e-06
2.31584e-07
2.35403e-06
2.45058e-07
2.33968e-06
2.46968e-07
2.32994e-06
2.28767e-07
2.32385e-06
1.95489e-07
2.3202e-06
1.60428e-07
2.31825e-06
1.34521e-07
2.31753e-06
1.21213e-07
2.31735e-06
1.18158e-07
2.31696e-06
1.21176e-07
2.31559e-06
1.26435e-07
2.3131e-06
1.31367e-07
2.30952e-06
1.34949e-07
2.30506e-06
1.36588e-07
1.37136e-07
2.30029e-06
2.59986e-06
4.14777e-07
2.56518e-06
3.13407e-07
2.52998e-06
2.60985e-07
2.51169e-06
2.49872e-07
2.50548e-06
2.51266e-07
2.50653e-06
2.45917e-07
2.51094e-06
2.24365e-07
2.51572e-06
1.90705e-07
2.51875e-06
1.57402e-07
2.51874e-06
1.34526e-07
2.51548e-06
1.24474e-07
2.50966e-06
1.23978e-07
2.50244e-06
1.28398e-07
2.49472e-06
1.34154e-07
2.48726e-06
1.38824e-07
2.48044e-06
1.41773e-07
2.47447e-06
1.42554e-07
1.42099e-07
2.46951e-06
2.75278e-06
3.62288e-07
2.7301e-06
3.3609e-07
2.70192e-06
2.89162e-07
2.70422e-06
2.47575e-07
2.72474e-06
2.30744e-07
2.74547e-06
2.25182e-07
2.75498e-06
2.14859e-07
2.75033e-06
1.95355e-07
2.73576e-06
1.71968e-07
2.7181e-06
1.52192e-07
2.70265e-06
1.39924e-07
2.69159e-06
1.3504e-07
2.68467e-06
1.35316e-07
2.68074e-06
1.38083e-07
2.67857e-06
1.40992e-07
2.67745e-06
1.42896e-07
2.67668e-06
1.43325e-07
1.42691e-07
2.67609e-06
2.93263e-06
3.79631e-07
2.95833e-06
3.1039e-07
2.97802e-06
2.69474e-07
2.97535e-06
2.50243e-07
2.95645e-06
2.49648e-07
2.93615e-06
2.45478e-07
2.92254e-06
2.28476e-07
2.91489e-06
2.03004e-07
2.9094e-06
1.77452e-07
2.90389e-06
1.57704e-07
2.89836e-06
1.45458e-07
2.89385e-06
1.39547e-07
2.89133e-06
1.37833e-07
2.8911e-06
1.38311e-07
2.89261e-06
1.39485e-07
2.8951e-06
1.40403e-07
2.89747e-06
1.40956e-07
1.41254e-07
2.89891e-06
3.21468e-06
3.73018e-07
3.18897e-06
3.361e-07
3.15449e-06
3.03962e-07
3.12968e-06
2.75054e-07
3.12289e-06
2.56431e-07
3.12629e-06
2.42077e-07
3.12929e-06
2.25484e-07
3.12745e-06
2.04845e-07
3.12237e-06
1.82526e-07
3.11741e-06
1.62671e-07
3.11474e-06
1.48123e-07
3.11479e-06
1.39497e-07
3.11675e-06
1.35876e-07
3.11957e-06
1.3549e-07
3.12264e-06
1.36415e-07
3.12551e-06
1.37528e-07
3.12825e-06
1.38217e-07
1.39091e-07
3.13041e-06
2.89188e-06
3.61968e-07
2.86618e-06
3.61806e-07
2.83908e-06
3.31064e-07
2.82674e-06
2.87385e-07
2.83232e-06
2.50854e-07
2.84344e-06
2.30955e-07
2.84772e-06
2.2121e-07
2.8425e-06
2.10059e-07
2.83177e-06
1.93257e-07
2.82039e-06
1.74051e-07
2.81096e-06
1.57551e-07
2.8039e-06
1.46563e-07
2.79885e-06
1.40923e-07
2.79547e-06
1.38868e-07
2.7939e-06
1.37987e-07
2.79403e-06
1.37394e-07
2.79603e-06
1.36224e-07
1.36012e-07
2.79911e-06
3.55628e-06
3.76918e-07
3.51099e-06
4.0709e-07
3.46916e-06
3.72899e-07
3.46824e-06
2.88305e-07
3.48689e-06
2.32197e-07
3.49689e-06
2.2096e-07
3.48798e-06
2.30122e-07
3.46699e-06
2.31044e-07
3.44601e-06
2.14233e-07
3.4322e-06
1.87861e-07
3.4262e-06
1.63552e-07
3.42545e-06
1.47321e-07
3.4272e-06
1.39168e-07
3.42993e-06
1.36143e-07
3.43285e-06
1.35059e-07
3.43581e-06
1.34443e-07
3.43843e-06
1.336e-07
1.33255e-07
3.44119e-06
4.27291e-06
4.6344e-07
4.24672e-06
4.33278e-07
4.27025e-06
3.49364e-07
4.29064e-06
2.67915e-07
4.28931e-06
2.33533e-07
4.2725e-06
2.37768e-07
4.25384e-06
2.48784e-07
4.24184e-06
2.43042e-07
4.23585e-06
2.2022e-07
4.23104e-06
1.92677e-07
4.22441e-06
1.70184e-07
4.217e-06
1.54729e-07
4.21214e-06
1.44026e-07
4.213e-06
1.35282e-07
4.22038e-06
1.27675e-07
4.23307e-06
1.2176e-07
4.24849e-06
1.18175e-07
1.18831e-07
4.26292e-06
5.22601e-06
4.93356e-07
5.22007e-06
4.39222e-07
5.21337e-06
3.56061e-07
5.18842e-06
2.92867e-07
5.17102e-06
2.50932e-07
5.17577e-06
2.33014e-07
5.19395e-06
2.30603e-07
5.20849e-06
2.28504e-07
5.20872e-06
2.1999e-07
5.19482e-06
2.06576e-07
5.17427e-06
1.90738e-07
5.15561e-06
1.73392e-07
5.1443e-06
1.55326e-07
5.14187e-06
1.37714e-07
5.14734e-06
1.22212e-07
5.15839e-06
1.10701e-07
5.17296e-06
1.03607e-07
1.02385e-07
5.18941e-06
6.37592e-06
5.1273e-07
6.37074e-06
4.444e-07
6.3422e-06
3.84601e-07
6.32096e-06
3.14116e-07
6.31474e-06
2.57144e-07
6.3213e-06
2.26454e-07
6.33392e-06
2.1799e-07
6.34581e-06
2.16611e-07
6.35522e-06
2.10577e-07
6.36535e-06
1.96448e-07
6.37883e-06
1.77258e-07
6.39433e-06
1.57892e-07
6.40799e-06
1.41667e-07
6.41615e-06
1.29552e-07
6.41776e-06
1.20607e-07
6.414e-06
1.14454e-07
6.4073e-06
1.10307e-07
1.09405e-07
6.40028e-06
7.74428e-06
4.6693e-07
7.72424e-06
4.64447e-07
7.70271e-06
4.06122e-07
7.68329e-06
3.3354e-07
7.67706e-06
2.63378e-07
7.69406e-06
2.09454e-07
7.73378e-06
1.78264e-07
7.78305e-06
1.67346e-07
7.82634e-06
1.67285e-07
7.85312e-06
1.69664e-07
7.86057e-06
1.69814e-07
7.85223e-06
1.66226e-07
7.83517e-06
1.58728e-07
7.81633e-06
1.48398e-07
7.80043e-06
1.36508e-07
7.78943e-06
1.25444e-07
7.78368e-06
1.16057e-07
1.09923e-07
7.78317e-06
9.37829e-06
4.24576e-07
9.42729e-06
4.15444e-07
9.43424e-06
3.99177e-07
9.42364e-06
3.44143e-07
9.41202e-06
2.74993e-07
9.41086e-06
2.10616e-07
9.42475e-06
1.64368e-07
9.44999e-06
1.42106e-07
9.4783e-06
1.38984e-07
9.50291e-06
1.45053e-07
9.5211e-06
1.51623e-07
9.53374e-06
1.53579e-07
9.54336e-06
1.49116e-07
9.55221e-06
1.39541e-07
9.56132e-06
1.27401e-07
9.57088e-06
1.15889e-07
9.58037e-06
1.06562e-07
1.00999e-07
9.58929e-06
1.13338e-05
4.60523e-07
1.13438e-05
4.05437e-07
1.14203e-05
3.22715e-07
1.15148e-05
2.49604e-07
1.1594e-05
1.95838e-07
1.16411e-05
1.63518e-07
1.16569e-05
1.48556e-07
1.16541e-05
1.44858e-07
1.16483e-05
1.44788e-07
1.16512e-05
1.42124e-07
1.16687e-05
1.3415e-07
1.1701e-05
1.2128e-07
1.17441e-05
1.06072e-07
1.17915e-05
9.20629e-08
1.18373e-05
8.16045e-08
1.18777e-05
7.54988e-08
1.19113e-05
7.29981e-08
7.25756e-08
1.19397e-05
8.39744e-06
4.25203e-07
8.45349e-06
3.49388e-07
8.51545e-06
2.60752e-07
8.54365e-06
2.21401e-07
8.54763e-06
1.91865e-07
8.55381e-06
1.57337e-07
8.57377e-06
1.28599e-07
8.60267e-06
1.15949e-07
8.63018e-06
1.17287e-07
8.65038e-06
1.21923e-07
8.66478e-06
1.19745e-07
8.67835e-06
1.07708e-07
8.69486e-06
8.9571e-08
8.71499e-06
7.19273e-08
8.73652e-06
6.00772e-08
8.75645e-06
5.557e-08
8.77199e-06
5.74584e-08
6.257e-08
8.78199e-06
7.22049e-06
4.61396e-07
7.28465e-06
2.85229e-07
7.34945e-06
1.9595e-07
7.38928e-06
1.81565e-07
7.40918e-06
1.71965e-07
7.41688e-06
1.49641e-07
7.422e-06
1.23481e-07
7.43448e-06
1.03468e-07
7.45916e-06
9.26115e-08
7.49437e-06
8.671e-08
7.53459e-06
7.95219e-08
7.57384e-06
6.84631e-08
7.60798e-06
5.5427e-08
7.6355e-06
4.44055e-08
7.65683e-06
3.87483e-08
7.67338e-06
3.90237e-08
7.68671e-06
4.41286e-08
5.11491e-08
7.69813e-06
6.43437e-06
4.54607e-07
6.41983e-06
2.99765e-07
6.41996e-06
1.95824e-07
6.44513e-06
1.56394e-07
6.47481e-06
1.42282e-07
6.4954e-06
1.29056e-07
6.50876e-06
1.10121e-07
6.52415e-06
8.8074e-08
6.54884e-06
6.79195e-08
6.58349e-06
5.20665e-08
6.62317e-06
3.98403e-08
6.6614e-06
3.02372e-08
6.69323e-06
2.35952e-08
6.71665e-06
2.09809e-08
6.73264e-06
2.27593e-08
6.74363e-06
2.8032e-08
6.75243e-06
3.53337e-08
4.25922e-08
6.76098e-06
5.60438e-06
4.25785e-07
5.6097e-06
2.94441e-07
5.61034e-06
1.95183e-07
5.61901e-06
1.4773e-07
5.63454e-06
1.26749e-07
5.65718e-06
1.06414e-07
5.68496e-06
8.23471e-08
5.71513e-06
5.78967e-08
5.74577e-06
3.72871e-08
5.77601e-06
2.18259e-08
5.80511e-06
1.074e-08
5.83197e-06
3.36926e-09
5.85583e-06
-2.55746e-10
5.87662e-06
1.82577e-10
5.8947e-06
4.68713e-09
5.9104e-06
1.23238e-08
5.92429e-06
2.14462e-08
2.96043e-08
5.93728e-06
4.78158e-06
4.71098e-07
4.85772e-06
2.18305e-07
4.92629e-06
1.26609e-07
4.96605e-06
1.07977e-07
4.99198e-06
1.00812e-07
5.01175e-06
8.66449e-08
5.02969e-06
6.44076e-08
5.04737e-06
4.02147e-08
5.06508e-06
1.95789e-08
5.08336e-06
3.54246e-09
5.1012e-06
-7.09879e-09
5.11869e-06
-1.41158e-08
5.13551e-06
-1.70745e-08
5.15124e-06
-1.5549e-08
5.16567e-06
-9.74471e-09
5.1791e-06
-1.10106e-09
5.19123e-06
9.30817e-09
1.82316e-08
5.20261e-06
4.2208e-06
4.32727e-07
4.25024e-06
1.88862e-07
4.28867e-06
8.81835e-08
4.33017e-06
6.64794e-08
4.37149e-06
5.94843e-08
4.4128e-06
4.53411e-08
4.45149e-06
2.57171e-08
4.48195e-06
9.75137e-09
4.50043e-06
1.103e-09
4.50865e-06
-4.67509e-09
4.51136e-06
-9.81215e-09
4.51275e-06
-1.55082e-08
4.51496e-06
-1.92865e-08
4.51808e-06
-1.8663e-08
4.52168e-06
-1.33432e-08
4.52561e-06
-5.03789e-09
4.53115e-06
3.76571e-09
1.06188e-08
4.53877e-06
3.73768e-06
3.72978e-07
3.79465e-06
1.31898e-07
3.82389e-06
5.89438e-08
3.84364e-06
4.67232e-08
3.86504e-06
3.80822e-08
3.88696e-06
2.34269e-08
3.9042e-06
8.47765e-09
3.91576e-06
-1.81318e-09
3.92519e-06
-8.32154e-09
3.93479e-06
-1.42821e-08
3.94494e-06
-1.99636e-08
3.95421e-06
-2.47722e-08
3.9618e-06
-2.68762e-08
3.96827e-06
-2.5139e-08
3.97519e-06
-2.02578e-08
3.98414e-06
-1.39835e-08
3.99604e-06
-8.14335e-09
-4.38316e-09
4.01105e-06
3.25429e-06
2.58301e-07
3.32121e-06
6.49786e-08
3.34741e-06
3.27419e-08
3.37839e-06
1.57452e-08
3.41111e-06
5.36058e-09
3.43624e-06
-1.70826e-09
3.45183e-06
-7.11113e-09
3.46102e-06
-1.09972e-08
3.46847e-06
-1.57807e-08
3.47582e-06
-2.16297e-08
3.48242e-06
-2.65604e-08
3.48715e-06
-2.95016e-08
3.49055e-06
-3.02787e-08
3.49476e-06
-2.93453e-08
3.50206e-06
-2.75647e-08
3.51383e-06
-2.57499e-08
3.53014e-06
-2.44503e-08
-2.3864e-08
3.54962e-06
2.84156e-06
9.59749e-08
2.89683e-06
9.71304e-09
2.90695e-06
2.26155e-08
2.93116e-06
-8.46195e-09
2.96315e-06
-2.66246e-08
2.99168e-06
-3.02456e-08
3.01433e-06
-2.97569e-08
3.03378e-06
-3.04439e-08
3.05066e-06
-3.26604e-08
3.06449e-06
-3.54595e-08
3.07535e-06
-3.74246e-08
3.08417e-06
-3.83185e-08
3.09256e-06
-3.86684e-08
3.10223e-06
-3.90229e-08
3.11401e-06
-3.93411e-08
3.12769e-06
-3.94264e-08
3.14218e-06
-3.89407e-08
-3.76752e-08
3.15599e-06
2.47855e-06
6.06146e-08
2.52762e-06
-3.93578e-08
2.56448e-06
-1.42438e-08
2.58869e-06
-3.26701e-08
2.60971e-06
-4.76476e-08
2.62928e-06
-4.98145e-08
2.64629e-06
-4.67685e-08
2.66009e-06
-4.42412e-08
2.67054e-06
-4.31068e-08
2.67735e-06
-4.22712e-08
2.68049e-06
-4.05659e-08
2.68038e-06
-3.82075e-08
2.67797e-06
-3.62615e-08
2.67438e-06
-3.5427e-08
2.67041e-06
-3.53747e-08
2.66633e-06
-3.53504e-08
2.66194e-06
-3.45428e-08
-3.27959e-08
2.65706e-06
2.12691e-06
2.08756e-06
2.07331e-06
2.04064e-06
1.993e-06
1.94318e-06
1.89641e-06
1.85217e-06
1.80906e-06
1.76679e-06
1.72623e-06
1.68802e-06
1.65176e-06
1.61633e-06
1.58096e-06
1.54561e-06
1.51106e-06
1.47827e-06
1.52749e-08
-1.52749e-08
1.15345e-07
-1.0007e-07
2.59117e-07
-1.43772e-07
4.19016e-07
-1.59899e-07
5.83226e-07
-1.6421e-07
7.47715e-07
-1.64489e-07
9.11482e-07
-1.63767e-07
1.07432e-06
-1.6284e-07
1.23585e-06
-1.6153e-07
1.39511e-06
-1.59256e-07
1.55033e-06
-1.55225e-07
1.69892e-06
-1.48584e-07
1.83733e-06
-1.38417e-07
1.96109e-06
-1.23752e-07
2.06491e-06
-1.0382e-07
2.143e-06
-7.80925e-08
2.18954e-06
-4.65375e-08
2.19933e-06
-9.79628e-09
2.16658e-06
3.27537e-08
2.0877e-06
7.88825e-08
1.96231e-06
1.2539e-07
1.7924e-06
1.69905e-07
1.58362e-06
2.08778e-07
1.34454e-06
2.39085e-07
1.08609e-06
2.58444e-07
8.32423e-07
2.5367e-07
5.70094e-07
2.62328e-07
3.87987e-07
1.82108e-07
3.13413e-07
7.45733e-08
2.17421e-07
9.59921e-08
2.5455e-07
-3.71292e-08
5.18676e-07
-2.64125e-07
7.07939e-07
-1.89263e-07
7.60488e-07
-5.25488e-08
7.40128e-07
2.03595e-08
5.29071e-07
2.11057e-07
6.7864e-08
4.61207e-07
-4.88413e-07
5.56277e-07
-1.0528e-06
5.64387e-07
-1.61362e-06
5.60821e-07
-2.15744e-06
5.43819e-07
-2.67092e-06
5.13478e-07
-3.14291e-06
4.7199e-07
-3.56496e-06
4.2205e-07
-3.93253e-06
3.67568e-07
-4.24433e-06
3.11805e-07
-4.50185e-06
2.57516e-07
-4.70824e-06
2.0639e-07
-4.86764e-06
1.59403e-07
-4.98457e-06
1.16936e-07
-5.06363e-06
7.90547e-08
-5.10931e-06
4.56814e-08
-5.12593e-06
1.6616e-08
-5.11815e-06
-7.77537e-09
-5.09022e-06
-2.79307e-08
-5.04507e-06
-4.5147e-08
-4.9857e-06
-5.93711e-08
-4.91519e-06
-7.05086e-08
-4.83615e-06
-7.90422e-08
-4.7508e-06
-8.53474e-08
-4.66114e-06
-8.96621e-08
-4.56882e-06
-9.23266e-08
-4.47513e-06
-9.3688e-08
-4.38098e-06
-9.41444e-08
-4.28679e-06
-9.41982e-08
-4.19244e-06
-9.43481e-08
-4.09732e-06
-9.5115e-08
-4.00042e-06
-9.69063e-08
-3.90045e-06
-9.99616e-08
-3.79617e-06
-1.04279e-07
-3.68657e-06
-1.09601e-07
-3.57111e-06
-1.15467e-07
-3.44979e-06
-1.21314e-07
-3.32317e-06
-1.26624e-07
-3.19202e-06
-1.3115e-07
-3.05688e-06
-1.35142e-07
-2.91744e-06
-1.39435e-07
-2.77222e-06
-1.45223e-07
-2.61871e-06
-1.53509e-07
-2.45421e-06
-1.64496e-07
-2.27685e-06
-1.77361e-07
-2.08638e-06
-1.90471e-07
-1.88444e-06
-2.01943e-07
-1.67419e-06
-2.1025e-07
-1.45965e-06
-2.14537e-07
-1.24505e-06
-2.14601e-07
-1.03409e-06
-2.10961e-07
-8.29688e-07
-2.04401e-07
-6.33911e-07
-1.95777e-07
-4.48026e-07
-1.85884e-07
-2.72722e-07
-1.75304e-07
-1.0832e-07
-1.64402e-07
4.52504e-08
-1.5357e-07
1.88372e-07
-1.43122e-07
3.21105e-07
-1.32733e-07
4.43711e-07
-1.22606e-07
5.56515e-07
-1.12804e-07
6.59889e-07
-1.03374e-07
7.54238e-07
-9.4349e-08
8.39994e-07
-8.57565e-08
9.17605e-07
-7.76109e-08
9.87522e-07
-6.99165e-08
1.05019e-06
-6.26685e-08
1.10605e-06
-5.58564e-08
1.15551e-06
-4.9468e-08
1.19901e-06
-4.34925e-08
1.23693e-06
-3.79226e-08
1.26969e-06
-3.27555e-08
1.29768e-06
-2.79921e-08
1.32131e-06
-2.36342e-08
1.341e-06
-1.96838e-08
1.35713e-06
-1.61372e-08
1.37012e-06
-1.29827e-08
1.38032e-06
-1.02061e-08
1.3881e-06
-7.77658e-09
1.39376e-06
-5.66066e-09
1.39759e-06
-3.82653e-09
1.3998e-06
-2.21839e-09
1.4006e-06
-8.00433e-10
1.40015e-06
4.50263e-10
1.39857e-06
1.58646e-09
1.39594e-06
2.62461e-09
1.39241e-06
3.53467e-09
1.38808e-06
4.33261e-09
1.38307e-06
5.01034e-09
1.37751e-06
5.5584e-09
1.37153e-06
5.97316e-09
1.36527e-06
6.26016e-09
1.35884e-06
6.43032e-09
1.35235e-06
6.49797e-09
1.34586e-06
6.48074e-09
1.33947e-06
6.3963e-09
1.33321e-06
6.26017e-09
1.32712e-06
6.08869e-09
1.32122e-06
5.90079e-09
1.31551e-06
5.71115e-09
1.30998e-06
5.52305e-09
1.30465e-06
5.33327e-09
1.29951e-06
5.14526e-09
1.29453e-06
4.97295e-09
1.2897e-06
4.82893e-09
1.28498e-06
4.71895e-09
1.28036e-06
4.6279e-09
1.2758e-06
4.55289e-09
1.27132e-06
4.48695e-09
1.26689e-06
4.42922e-09
1.26251e-06
4.37879e-09
1.25817e-06
4.33429e-09
1.25388e-06
4.29529e-09
1.24962e-06
4.26332e-09
1.24537e-06
4.24165e-09
1.24114e-06
4.23334e-09
1.2369e-06
4.24009e-09
1.23264e-06
4.26279e-09
1.22834e-06
4.30102e-09
1.22398e-06
4.35388e-09
1.21956e-06
4.42008e-09
1.21506e-06
4.49946e-09
1.21047e-06
4.59436e-09
1.20576e-06
4.70648e-09
1.20092e-06
4.84211e-09
1.19592e-06
5.00297e-09
1.19071e-06
5.20385e-09
1.18527e-06
5.44157e-09
1.17952e-06
5.75163e-09
1.17341e-06
6.10909e-09
1.1668e-06
6.60772e-09
1.15965e-06
7.15285e-09
1.15166e-06
7.99494e-09
1.14283e-06
8.82431e-09
1.1325e-06
1.03366e-08
1.12093e-06
1.1564e-08
1.10642e-06
1.45072e-08
1.09026e-06
1.61649e-08
1.06778e-06
2.24774e-08
1.04366e-06
2.41253e-08
1.00432e-06
3.93342e-08
9.65542e-07
3.878e-08
8.85931e-07
7.96115e-08
6.76364e-08
8.18294e-07
7.00266e-08
-8.53015e-08
1.98793e-07
-2.28836e-07
3.38922e-07
-2.83902e-07
4.79441e-07
-3.00417e-07
6.20558e-07
-3.05327e-07
7.64102e-07
-3.08033e-07
9.1109e-07
-3.10755e-07
1.06164e-06
-3.13395e-07
1.21517e-06
-3.15052e-07
1.37038e-06
-3.14472e-07
1.52523e-06
-3.10075e-07
1.67683e-06
-3.00177e-07
1.8213e-06
-2.82889e-07
1.9538e-06
-2.56259e-07
2.0687e-06
-2.18718e-07
2.16012e-06
-1.69514e-07
2.22205e-06
-1.0846e-07
2.24941e-06
-3.71559e-08
2.23985e-06
4.23048e-08
2.19265e-06
1.26083e-07
2.10878e-06
2.09266e-07
1.99033e-06
2.88349e-07
1.84345e-06
3.55668e-07
1.67109e-06
4.11442e-07
1.48232e-06
4.47212e-07
1.29501e-06
4.40986e-07
1.13866e-06
4.18673e-07
9.73537e-07
3.47233e-07
8.07025e-07
2.41086e-07
8.30991e-07
7.20259e-08
8.14844e-07
-2.09829e-08
5.35457e-07
1.52617e-08
1.06666e-07
2.39528e-07
-5.10792e-07
5.6491e-07
-1.18573e-06
6.95299e-07
-1.77975e-06
8.05076e-07
-2.2267e-06
9.08156e-07
-2.6355e-06
9.65076e-07
-3.04285e-06
9.71735e-07
-3.42772e-06
9.45689e-07
-3.78083e-06
8.96931e-07
-4.09617e-06
8.28826e-07
-4.37231e-06
7.48122e-07
-4.60944e-06
6.59183e-07
-4.80959e-06
5.67715e-07
-4.97539e-06
4.77604e-07
-5.1098e-06
3.9193e-07
-5.21568e-06
3.12272e-07
-5.29568e-06
2.39404e-07
-5.35224e-06
1.73492e-07
-5.38703e-06
1.13844e-07
-5.40127e-06
5.99257e-08
-5.39619e-06
1.15327e-08
-5.37261e-06
-3.13555e-08
-5.33173e-06
-6.8808e-08
-5.27586e-06
-1.01015e-07
-5.20731e-06
-1.27925e-07
-5.12824e-06
-1.49582e-07
-5.04101e-06
-1.66269e-07
-4.9479e-06
-1.78456e-07
-4.85082e-06
-1.86742e-07
-4.75135e-06
-1.91798e-07
-4.65071e-06
-1.94329e-07
-4.54971e-06
-1.95143e-07
-4.44874e-06
-1.95171e-07
-4.34761e-06
-1.95472e-07
-4.24563e-06
-1.97095e-07
-4.14163e-06
-2.00908e-07
-4.03419e-06
-2.07407e-07
-3.92189e-06
-2.16573e-07
-3.80366e-06
-2.27829e-07
-3.67901e-06
-2.40125e-07
-3.54815e-06
-2.52172e-07
-3.412e-06
-2.62769e-07
-3.27185e-06
-2.713e-07
-3.12871e-06
-2.78289e-07
-2.98249e-06
-2.85651e-07
-2.83146e-06
-2.9625e-07
-2.67232e-06
-3.12652e-07
-2.50138e-06
-3.35432e-07
-2.31603e-06
-3.62713e-07
-2.11578e-06
-3.90728e-07
-1.90258e-06
-4.15143e-07
-1.68032e-06
-4.32505e-07
-1.45375e-06
-4.41104e-07
-1.22767e-06
-4.40683e-07
-1.00603e-06
-4.32603e-07
-7.91734e-07
-4.18697e-07
-5.86636e-07
-4.00875e-07
-3.91766e-07
-3.80755e-07
-2.07555e-07
-3.59515e-07
-3.40331e-08
-3.37924e-07
1.29249e-07
-3.16853e-07
2.82218e-07
-2.9609e-07
4.25266e-07
-2.75781e-07
5.58717e-07
-2.56057e-07
6.82941e-07
-2.37028e-07
7.98353e-07
-2.18785e-07
9.05407e-07
-2.01403e-07
1.00459e-06
-1.8494e-07
1.0964e-06
-1.69423e-07
1.18134e-06
-1.54852e-07
1.25987e-06
-1.412e-07
1.33243e-06
-1.2842e-07
1.39943e-06
-1.16459e-07
1.4612e-06
-1.05266e-07
1.51808e-06
-9.48e-08
1.57036e-06
-8.50391e-08
1.61834e-06
-7.59756e-08
1.66232e-06
-6.76131e-08
1.7026e-06
-5.99631e-08
1.7395e-06
-5.3033e-08
1.77334e-06
-4.68223e-08
1.80445e-06
-4.13193e-08
1.83317e-06
-3.64919e-08
1.8598e-06
-3.22929e-08
1.88464e-06
-2.86643e-08
1.90795e-06
-2.55298e-08
1.92996e-06
-2.28136e-08
1.95086e-06
-2.04482e-08
1.9708e-06
-1.83554e-08
1.98989e-06
-1.64686e-08
2.00818e-06
-1.4751e-08
2.02568e-06
-1.31709e-08
2.04241e-06
-1.17162e-08
2.05835e-06
-1.03824e-08
2.07349e-06
-9.17201e-09
2.08784e-06
-8.0834e-09
2.10138e-06
-7.11226e-09
2.11413e-06
-6.25241e-09
2.12611e-06
-5.49333e-09
2.13732e-06
-4.82118e-09
2.14781e-06
-4.22309e-09
2.15758e-06
-3.68524e-09
2.16667e-06
-3.18749e-09
2.17509e-06
-2.71019e-09
2.18286e-06
-2.24749e-09
2.19e-06
-1.80483e-09
2.19652e-06
-1.37602e-09
2.20243e-06
-9.33482e-10
2.20771e-06
-4.50911e-10
2.21235e-06
7.51928e-11
2.21638e-06
5.9903e-10
2.2198e-06
1.13143e-09
2.22263e-06
1.65678e-09
2.22489e-06
2.17159e-09
2.22659e-06
2.67272e-09
2.22777e-06
3.15862e-09
2.22844e-06
3.62972e-09
2.22861e-06
4.08584e-09
2.22833e-06
4.52849e-09
2.2276e-06
4.96134e-09
2.22645e-06
5.38525e-09
2.22491e-06
5.80173e-09
2.223e-06
6.21156e-09
2.22074e-06
6.61665e-09
2.21814e-06
7.01691e-09
2.21523e-06
7.41469e-09
2.21201e-06
7.81505e-09
2.20849e-06
8.22227e-09
2.20469e-06
8.64758e-09
2.20059e-06
9.0959e-09
2.1962e-06
9.59466e-09
2.1915e-06
1.01416e-08
2.18645e-06
1.08019e-08
2.18103e-06
1.15336e-08
2.17513e-06
1.2503e-08
2.16875e-06
1.35363e-08
2.16166e-06
1.50826e-08
2.15392e-06
1.65692e-08
2.14501e-06
1.92457e-08
2.13521e-06
2.13623e-08
2.12329e-06
2.6422e-08
2.11018e-06
2.9275e-08
2.09291e-06
3.97485e-08
2.07393e-06
4.31038e-08
2.04656e-06
6.67049e-08
2.01587e-06
6.94719e-08
1.96909e-06
1.26389e-07
1.27724e-07
1.90901e-06
1.1005e-07
-1.95351e-07
2.35585e-07
-3.54372e-07
3.48681e-07
-3.96998e-07
4.58417e-07
-4.10153e-07
5.72426e-07
-4.19336e-07
6.93497e-07
-4.29104e-07
8.22065e-07
-4.39323e-07
9.57835e-07
-4.49166e-07
1.10018e-06
-4.57399e-07
1.24792e-06
-4.62213e-07
1.3991e-06
-4.61249e-07
1.55059e-06
-4.51665e-07
1.69793e-06
-4.30231e-07
1.8351e-06
-3.93429e-07
1.9549e-06
-3.38516e-07
2.04939e-06
-2.64005e-07
2.11078e-06
-1.6985e-07
2.13295e-06
-5.93284e-08
2.1113e-06
6.39551e-08
2.04401e-06
1.9337e-07
1.93465e-06
3.18627e-07
1.79096e-06
4.32041e-07
1.62263e-06
5.23996e-07
1.44452e-06
5.89549e-07
1.26481e-06
6.26921e-07
1.06674e-06
6.39056e-07
8.53263e-07
6.32154e-07
6.19658e-07
5.80837e-07
4.72606e-07
3.88137e-07
3.07883e-07
2.36749e-07
-1.37826e-07
4.24726e-07
-8.70075e-07
7.47511e-07
-1.53201e-06
9.01468e-07
-2.01081e-06
1.0437e-06
-2.44485e-06
1.12934e-06
-2.84194e-06
1.20217e-06
-3.17088e-06
1.2371e-06
-3.44559e-06
1.23978e-06
-3.69284e-06
1.21899e-06
-3.92095e-06
1.1738e-06
-4.13165e-06
1.10763e-06
-4.32503e-06
1.02221e-06
-4.50086e-06
9.23951e-07
-4.65948e-06
8.17797e-07
-4.80125e-06
7.09487e-07
-4.92658e-06
6.02938e-07
-5.03565e-06
5.00997e-07
-5.12834e-06
4.04958e-07
-5.20412e-06
3.15184e-07
-5.2621e-06
2.31478e-07
-5.30164e-06
1.53379e-07
-5.32207e-06
8.03605e-08
-5.32217e-06
1.16265e-08
-5.30427e-06
-4.92525e-08
-5.26842e-06
-1.04657e-07
-5.21584e-06
-1.53593e-07
-5.14861e-06
-1.95155e-07
-5.06927e-06
-2.28926e-07
-4.98064e-06
-2.54897e-07
-4.88553e-06
-2.73568e-07
-4.78644e-06
-2.85831e-07
-4.6854e-06
-2.92844e-07
-4.58383e-06
-2.95891e-07
-4.48262e-06
-2.9636e-07
-4.38207e-06
-2.95721e-07
-4.28198e-06
-2.95563e-07
-4.18159e-06
-2.97484e-07
-4.07961e-06
-3.02884e-07
-3.97436e-06
-3.12655e-07
-3.86409e-06
-3.26843e-07
-3.74745e-06
-3.44471e-07
-3.6239e-06
-3.63682e-07
-3.4939e-06
-3.82163e-07
-3.35891e-06
-3.97762e-07
-3.22091e-06
-4.09298e-07
-3.0817e-06
-4.17506e-07
-2.94164e-06
-4.2571e-07
-2.79859e-06
-4.393e-07
-2.64763e-06
-4.63609e-07
-2.48264e-06
-5.0042e-07
-2.299e-06
-5.46356e-07
-2.09564e-06
-5.94087e-07
-1.87541e-06
-6.35377e-07
-1.64414e-06
-6.63771e-07
-1.40859e-06
-6.76649e-07
-1.17514e-06
-6.74136e-07
-9.48563e-07
-6.59182e-07
-7.31907e-07
-6.35352e-07
-5.26607e-07
-6.06176e-07
-3.33102e-07
-5.74259e-07
-1.51302e-07
-5.41315e-07
1.91684e-08
-5.08395e-07
1.79216e-07
-4.769e-07
3.28702e-07
-4.45577e-07
4.68079e-07
-4.15158e-07
5.97724e-07
-3.85703e-07
7.1801e-07
-3.57314e-07
8.29335e-07
-3.3011e-07
9.32143e-07
-3.04211e-07
1.02693e-06
-2.79728e-07
1.11425e-06
-2.56742e-07
1.19469e-06
-2.35297e-07
1.26888e-06
-2.1539e-07
1.33744e-06
-1.96973e-07
1.40093e-06
-1.79954e-07
1.45988e-06
-1.64218e-07
1.51472e-06
-1.49639e-07
1.56579e-06
-1.36109e-07
1.61336e-06
-1.23548e-07
1.65767e-06
-1.11916e-07
1.69891e-06
-1.01207e-07
1.73732e-06
-9.14372e-08
1.77312e-06
-8.26265e-08
1.80659e-06
-7.47859e-08
1.838e-06
-6.79022e-08
1.86764e-06
-6.19345e-08
1.89579e-06
-5.68148e-08
1.92271e-06
-5.24493e-08
1.94862e-06
-4.87247e-08
1.9737e-06
-4.55257e-08
1.99808e-06
-4.27392e-08
2.02187e-06
-4.02538e-08
2.0451e-06
-3.79817e-08
2.06779e-06
-3.58609e-08
2.08992e-06
-3.38511e-08
2.11147e-06
-3.19318e-08
2.1324e-06
-3.01014e-08
2.15268e-06
-2.83583e-08
2.17227e-06
-2.67033e-08
2.19115e-06
-2.51364e-08
2.20931e-06
-2.36559e-08
2.22675e-06
-2.22568e-08
2.24346e-06
-2.09321e-08
2.25944e-06
-1.96705e-08
2.27471e-06
-1.84546e-08
2.28927e-06
-1.72689e-08
2.30313e-06
-1.61058e-08
2.31628e-06
-1.49597e-08
2.32872e-06
-1.38183e-08
2.34046e-06
-1.26659e-08
2.3515e-06
-1.14946e-08
2.36188e-06
-1.03004e-08
2.37157e-06
-9.09598e-09
2.38058e-06
-7.87957e-09
2.3889e-06
-6.66148e-09
2.39652e-06
-5.44984e-09
2.40345e-06
-4.25075e-09
2.40967e-06
-3.06688e-09
2.4152e-06
-1.89773e-09
2.42003e-06
-7.44599e-10
2.42417e-06
3.88896e-10
2.42764e-06
1.49474e-09
2.43045e-06
2.56531e-09
2.43265e-06
3.60197e-09
2.43426e-06
4.60505e-09
2.4353e-06
5.57656e-09
2.4358e-06
6.51556e-09
2.43579e-06
7.42454e-09
2.4353e-06
8.31208e-09
2.43434e-06
9.18155e-09
2.43293e-06
1.00508e-08
2.43111e-06
1.09208e-08
2.42887e-06
1.18324e-08
2.42624e-06
1.27736e-08
2.4232e-06
1.38385e-08
2.41977e-06
1.49629e-08
2.41591e-06
1.63693e-08
2.41161e-06
1.78333e-08
2.40678e-06
1.99087e-08
2.40143e-06
2.19237e-08
2.39537e-06
2.53042e-08
2.38857e-06
2.81616e-08
2.38079e-06
3.4199e-08
2.37178e-06
3.82939e-08
2.3615e-06
5.00238e-08
2.34866e-06
5.59426e-08
2.33495e-06
8.04138e-08
2.31489e-06
8.9538e-08
2.2982e-06
1.43075e-07
1.61849e-07
2.26407e-06
1.12851e-07
-3.08202e-07
2.11977e-07
-4.53498e-07
2.97866e-07
-4.82888e-07
3.85731e-07
-4.98017e-07
4.8035e-07
-5.13955e-07
5.82369e-07
-5.31123e-07
6.92298e-07
-5.49252e-07
8.11083e-07
-5.67951e-07
9.39325e-07
-5.85641e-07
1.07652e-06
-5.99409e-07
1.22072e-06
-6.05447e-07
1.36831e-06
-5.99259e-07
1.51383e-06
-5.75747e-07
1.64961e-06
-5.29215e-07
1.76638e-06
-4.55279e-07
1.85416e-06
-3.51786e-07
1.90407e-06
-2.19761e-07
1.90968e-06
-6.49367e-08
1.86603e-06
1.076e-07
1.77303e-06
2.86373e-07
1.63495e-06
4.56707e-07
1.46072e-06
6.06268e-07
1.25994e-06
7.24777e-07
1.03846e-06
8.11028e-07
7.96216e-07
8.69166e-07
5.37135e-07
8.98137e-07
3.10579e-07
8.58711e-07
1.626e-07
7.28816e-07
-1.22398e-07
6.73135e-07
-7.48339e-07
8.6269e-07
-1.40437e-06
1.08076e-06
-1.88597e-06
1.22911e-06
-2.30555e-06
1.32105e-06
-2.64767e-06
1.38583e-06
-2.94366e-06
1.42532e-06
-3.19689e-06
1.45541e-06
-3.42052e-06
1.46073e-06
-3.62478e-06
1.44405e-06
-3.8093e-06
1.4035e-06
-3.97691e-06
1.34141e-06
-4.12768e-06
1.2584e-06
-4.26308e-06
1.15761e-06
-4.38402e-06
1.0449e-06
-4.49264e-06
9.26414e-07
-4.59138e-06
8.08224e-07
-4.68262e-06
6.94177e-07
-4.76772e-06
5.86102e-07
-4.84669e-06
4.83923e-07
-4.91808e-06
3.8658e-07
-4.97941e-06
2.9281e-07
-5.02786e-06
2.01827e-07
-5.06112e-06
1.13621e-07
-5.07849e-06
2.8989e-08
-5.07638e-06
-5.13555e-08
-5.05494e-06
-1.26099e-07
-5.0152e-06
-1.93331e-07
-4.95881e-06
-2.51551e-07
-4.88807e-06
-2.99659e-07
-4.80568e-06
-3.37286e-07
-4.71456e-06
-3.64689e-07
-4.6176e-06
-3.82797e-07
-4.51738e-06
-3.93058e-07
-4.41591e-06
-3.97364e-07
-4.3144e-06
-3.97863e-07
-4.21338e-06
-3.96748e-07
-4.11281e-06
-3.96129e-07
-4.0123e-06
-3.97994e-07
-3.91109e-06
-4.04099e-07
-3.80808e-06
-4.15659e-07
-3.70204e-06
-4.3288e-07
-3.59195e-06
-4.54565e-07
-3.47746e-06
-4.78178e-07
-3.35912e-06
-5.00498e-07
-3.23834e-06
-5.18546e-07
-3.11701e-06
-5.30623e-07
-2.99684e-06
-5.37673e-07
-2.878e-06
-5.44558e-07
-2.75743e-06
-5.59861e-07
-2.62797e-06
-5.93073e-07
-2.47917e-06
-6.49221e-07
-2.3025e-06
-7.2303e-07
-2.0963e-06
-8.00281e-07
-1.865e-06
-8.66683e-07
-1.61783e-06
-9.10939e-07
-1.36518e-06
-9.29297e-07
-1.11641e-06
-9.2291e-07
-8.78127e-07
-8.97462e-07
-6.53882e-07
-8.59596e-07
-4.4458e-07
-8.15478e-07
-2.4971e-07
-7.69129e-07
-6.82484e-08
-7.22777e-07
1.01575e-07
-6.78218e-07
2.59723e-07
-6.35047e-07
4.07348e-07
-5.93202e-07
5.44883e-07
-5.52692e-07
6.72737e-07
-5.13557e-07
7.91315e-07
-4.75893e-07
9.01031e-07
-4.39825e-07
1.00228e-06
-4.05463e-07
1.09543e-06
-3.72881e-07
1.18082e-06
-3.42125e-07
1.25876e-06
-3.13235e-07
1.32963e-06
-2.86259e-07
1.3939e-06
-2.61248e-07
1.45219e-06
-2.3824e-07
1.50521e-06
-2.17238e-07
1.55375e-06
-1.98179e-07
1.59857e-06
-1.8093e-07
1.64032e-06
-1.65305e-07
1.67951e-06
-1.51106e-07
1.71647e-06
-1.38168e-07
1.75142e-06
-1.26385e-07
1.78451e-06
-1.15713e-07
1.81587e-06
-1.06144e-07
1.84565e-06
-9.76815e-08
1.87402e-06
-9.03079e-08
1.90118e-06
-8.39741e-08
1.92732e-06
-7.85898e-08
1.95262e-06
-7.40286e-08
1.97724e-06
-7.0144e-08
2.00129e-06
-6.67839e-08
2.02483e-06
-6.37995e-08
2.04791e-06
-6.1063e-08
2.07053e-06
-5.84802e-08
2.09267e-06
-5.59899e-08
2.1143e-06
-5.3558e-08
2.13537e-06
-5.11729e-08
2.15585e-06
-4.88374e-08
2.17571e-06
-4.65597e-08
2.19492e-06
-4.43482e-08
2.21347e-06
-4.22112e-08
2.23137e-06
-4.01519e-08