/*--------------------------------*- C++ -*----------------------------------*\
  =========                 |
  \\      /  F ield         | OpenFOAM: The Open Source CFD Toolbox
   \\    /   O peration     | Website:  https://openfoam.org
    \\  /    A nd           | Version:  7
     \\/     M anipulation  |
\*---------------------------------------------------------------------------*/
FoamFile
{
    version     2.0;
    format      ascii;
    class       volScalarField;
    location    "0.046";
    object      pPrime2Mean;
}
// * * * * * * * * * * * * * * * * * * * * * * * * * * * * * * * * * * * * * //

dimensions      [0 4 -4 0 0 0 0];

internalField   nonuniform List<scalar> 
12225
(
7.76142e+06
7.63772e+06
7.51e+06
7.38683e+06
7.26852e+06
7.15472e+06
7.0451e+06
6.93933e+06
6.83708e+06
6.73797e+06
6.6416e+06
6.54751e+06
6.45515e+06
6.36383e+06
6.27259e+06
6.17995e+06
6.08328e+06
5.97606e+06
7.76152e+06
7.63778e+06
7.51006e+06
7.38689e+06
7.26859e+06
7.1548e+06
7.04519e+06
6.93944e+06
6.83722e+06
6.73814e+06
6.64182e+06
6.54779e+06
6.45553e+06
6.36436e+06
6.27338e+06
6.1812e+06
6.08565e+06
5.98143e+06
7.76169e+06
7.6379e+06
7.51018e+06
7.38702e+06
7.26874e+06
7.15497e+06
7.0454e+06
6.93969e+06
6.83752e+06
6.73852e+06
6.6423e+06
6.54841e+06
6.45636e+06
6.36552e+06
6.27506e+06
6.18389e+06
6.0904e+06
5.99259e+06
7.7619e+06
7.63809e+06
7.51039e+06
7.38724e+06
7.26899e+06
7.15526e+06
7.04574e+06
6.9401e+06
6.83802e+06
6.73915e+06
6.64309e+06
6.54944e+06
6.45773e+06
6.36739e+06
6.27777e+06
6.18805e+06
6.09743e+06
6.00594e+06
7.76213e+06
7.63837e+06
7.51068e+06
7.38757e+06
7.26936e+06
7.15569e+06
7.04624e+06
6.94071e+06
6.83877e+06
6.74006e+06
6.64425e+06
6.55093e+06
6.45969e+06
6.37006e+06
6.28155e+06
6.19367e+06
6.10626e+06
6.02038e+06
7.76249e+06
7.63875e+06
7.5111e+06
7.38802e+06
7.26987e+06
7.15628e+06
7.04694e+06
6.94155e+06
6.83978e+06
6.74132e+06
6.64583e+06
6.55295e+06
6.46233e+06
6.3736e+06
6.28642e+06
6.20063e+06
6.11648e+06
6.03536e+06
7.76295e+06
7.63927e+06
7.51165e+06
7.38862e+06
7.27054e+06
7.15706e+06
7.04786e+06
6.94264e+06
6.84112e+06
6.74297e+06
6.64788e+06
6.55556e+06
6.4657e+06
6.37803e+06
6.29239e+06
6.2088e+06
6.12777e+06
6.05059e+06
7.76355e+06
7.63993e+06
7.51235e+06
7.38939e+06
7.27141e+06
7.15805e+06
7.04903e+06
6.94404e+06
6.84281e+06
6.74504e+06
6.65046e+06
6.5588e+06
6.46983e+06
6.38337e+06
6.29938e+06
6.21802e+06
6.13986e+06
6.06597e+06
7.76437e+06
7.64078e+06
7.51325e+06
7.39036e+06
7.27249e+06
7.1593e+06
7.05049e+06
6.94578e+06
6.84491e+06
6.7476e+06
6.65361e+06
6.56272e+06
6.47475e+06
6.38961e+06
6.30733e+06
6.22814e+06
6.15257e+06
6.08142e+06
7.76536e+06
7.64184e+06
7.51435e+06
7.39156e+06
7.27383e+06
7.16083e+06
7.05227e+06
6.9479e+06
6.84744e+06
6.75067e+06
6.65736e+06
6.56734e+06
6.48046e+06
6.39671e+06
6.31614e+06
6.23902e+06
6.16575e+06
6.09692e+06
7.76682e+06
7.64315e+06
7.5157e+06
7.39301e+06
7.27544e+06
7.16267e+06
7.05442e+06
6.95043e+06
6.85046e+06
6.7543e+06
6.66175e+06
6.57266e+06
6.48695e+06
6.40461e+06
6.32573e+06
6.25052e+06
6.1793e+06
6.11245e+06
7.76814e+06
7.64459e+06
7.51718e+06
7.3946e+06
7.2772e+06
7.16468e+06
7.05674e+06
6.95316e+06
6.85369e+06
6.75815e+06
6.66636e+06
6.5782e+06
6.49359e+06
6.41254e+06
6.33514e+06
6.26155e+06
6.19198e+06
6.12668e+06
7.76998e+06
7.64627e+06
7.51888e+06
7.39641e+06
7.27921e+06
7.16695e+06
7.05937e+06
6.95622e+06
6.8573e+06
6.76242e+06
6.67143e+06
6.58421e+06
6.5007e+06
6.42092e+06
6.34491e+06
6.2728e+06
6.20471e+06
6.14078e+06
7.77239e+06
7.6485e+06
7.52113e+06
7.3988e+06
7.28185e+06
7.16993e+06
7.06279e+06
6.9602e+06
6.86196e+06
6.76788e+06
6.67783e+06
6.59171e+06
6.50945e+06
6.43106e+06
6.35654e+06
6.28596e+06
6.21937e+06
6.15679e+06
7.77551e+06
7.65144e+06
7.52409e+06
7.40195e+06
7.28531e+06
7.17383e+06
7.06724e+06
6.96533e+06
6.86789e+06
6.77477e+06
6.68581e+06
6.60093e+06
6.52006e+06
6.44314e+06
6.37017e+06
6.30113e+06
6.23601e+06
6.17476e+06
7.77936e+06
7.65521e+06
7.52794e+06
7.40604e+06
7.28979e+06
7.17884e+06
7.07293e+06
6.97183e+06
6.87535e+06
6.78332e+06
6.6956e+06
6.61208e+06
6.53266e+06
6.45727e+06
6.38584e+06
6.31831e+06
6.2546e+06
6.19461e+06
7.7842e+06
7.65997e+06
7.53283e+06
7.41125e+06
7.29549e+06
7.18518e+06
7.08006e+06
6.9799e+06
6.8845e+06
6.79368e+06
6.70729e+06
6.62518e+06
6.54725e+06
6.47337e+06
6.40344e+06
6.33735e+06
6.27496e+06
6.21614e+06
7.78984e+06
7.66573e+06
7.53885e+06
7.41768e+06
7.3025e+06
7.19294e+06
7.08871e+06
6.98959e+06
6.89535e+06
6.8058e+06
6.72076e+06
6.64008e+06
6.56359e+06
6.49116e+06
6.42262e+06
6.35784e+06
6.29665e+06
6.2389e+06
7.79657e+06
7.67252e+06
7.54592e+06
7.42524e+06
7.31071e+06
7.20196e+06
7.09869e+06
7.00064e+06
6.90758e+06
6.81929e+06
6.73557e+06
6.65623e+06
6.58108e+06
6.50995e+06
6.44265e+06
6.37903e+06
6.31889e+06
6.26206e+06
7.80233e+06
7.67827e+06
7.5519e+06
7.43162e+06
7.31763e+06
7.20952e+06
7.10698e+06
7.00974e+06
6.91754e+06
6.83016e+06
6.74736e+06
6.66894e+06
6.5947e+06
6.52444e+06
6.45796e+06
6.39509e+06
6.33563e+06
6.2794e+06
7.80578e+06
7.68206e+06
7.55595e+06
7.43598e+06
7.32237e+06
7.2147e+06
7.11265e+06
7.01593e+06
6.92428e+06
6.83746e+06
6.75524e+06
6.67738e+06
6.60369e+06
6.53395e+06
6.46796e+06
6.40553e+06
6.34648e+06
6.29061e+06
7.80858e+06
7.68481e+06
7.55889e+06
7.43918e+06
7.32586e+06
7.21851e+06
7.11681e+06
7.02047e+06
6.92921e+06
6.84278e+06
6.76095e+06
6.68348e+06
6.61016e+06
6.54077e+06
6.47511e+06
6.41298e+06
6.3542e+06
6.29857e+06
7.8099e+06
7.68661e+06
7.56094e+06
7.44146e+06
7.32837e+06
7.22127e+06
7.11982e+06
7.02374e+06
6.93275e+06
6.8466e+06
6.76504e+06
6.68783e+06
6.61477e+06
6.54562e+06
6.48018e+06
6.41825e+06
6.35965e+06
6.30418e+06
7.811e+06
7.68784e+06
7.56236e+06
7.44305e+06
7.33014e+06
7.22321e+06
7.12195e+06
7.02605e+06
6.93525e+06
6.84929e+06
6.76791e+06
6.69089e+06
6.618e+06
6.54901e+06
6.48373e+06
6.42194e+06
6.36346e+06
6.30809e+06
7.81167e+06
7.68862e+06
7.56331e+06
7.44414e+06
7.33136e+06
7.22456e+06
7.12342e+06
7.02765e+06
6.93698e+06
6.85115e+06
6.7699e+06
6.693e+06
6.62022e+06
6.55135e+06
6.48616e+06
6.42447e+06
6.36607e+06
6.31078e+06
7.8117e+06
7.68907e+06
7.56392e+06
7.44487e+06
7.33218e+06
7.22547e+06
7.12441e+06
7.02873e+06
6.93815e+06
6.8524e+06
6.77123e+06
6.69442e+06
6.62172e+06
6.55291e+06
6.4878e+06
6.42616e+06
6.36782e+06
6.31257e+06
7.81172e+06
7.68933e+06
7.56431e+06
7.44533e+06
7.33271e+06
7.22605e+06
7.12505e+06
7.02943e+06
6.9389e+06
6.8532e+06
6.7721e+06
6.69533e+06
6.62268e+06
6.55392e+06
6.48885e+06
6.42725e+06
6.36894e+06
6.31373e+06
7.8118e+06
7.68949e+06
7.56454e+06
7.44562e+06
7.33303e+06
7.22641e+06
7.12544e+06
7.02985e+06
6.93935e+06
6.85369e+06
6.77262e+06
6.69588e+06
6.62326e+06
6.55453e+06
6.48948e+06
6.42791e+06
6.36962e+06
6.31443e+06
7.81186e+06
7.68958e+06
7.56467e+06
7.44577e+06
7.3332e+06
7.2266e+06
7.12565e+06
7.03008e+06
6.9396e+06
6.85396e+06
6.7729e+06
6.69618e+06
6.62358e+06
6.55486e+06
6.48983e+06
6.42827e+06
6.36999e+06
6.31481e+06
7.81189e+06
7.68962e+06
7.56472e+06
7.44583e+06
7.33327e+06
7.22667e+06
7.12574e+06
7.03017e+06
6.9397e+06
6.85407e+06
6.77301e+06
6.6963e+06
6.62371e+06
6.555e+06
6.48997e+06
6.42841e+06
6.37014e+06
6.31496e+06
5.04957e+06
5.04917e+06
5.04836e+06
5.04713e+06
5.04548e+06
5.04339e+06
5.04086e+06
5.03788e+06
5.03445e+06
5.03056e+06
5.02621e+06
5.02139e+06
5.0161e+06
5.01034e+06
5.0041e+06
4.99738e+06
4.99018e+06
4.9825e+06
4.97434e+06
4.9657e+06
4.95658e+06
4.94698e+06
4.93691e+06
4.92637e+06
4.91536e+06
4.90388e+06
4.89194e+06
4.87955e+06
4.8667e+06
4.8534e+06
4.83967e+06
4.82549e+06
4.81088e+06
4.79585e+06
4.7804e+06
4.76453e+06
4.74826e+06
4.73158e+06
4.71451e+06
4.69706e+06
4.67922e+06
4.66101e+06
4.64243e+06
4.62349e+06
4.60419e+06
4.58455e+06
4.56456e+06
4.54424e+06
4.52358e+06
4.50261e+06
4.48132e+06
4.45972e+06
4.43781e+06
4.41561e+06
4.39311e+06
4.37033e+06
4.34727e+06
4.32393e+06
4.30032e+06
4.27645e+06
4.25232e+06
4.22794e+06
4.20332e+06
4.17845e+06
4.15334e+06
4.128e+06
4.10244e+06
4.07665e+06
4.05064e+06
4.02442e+06
3.99799e+06
3.97136e+06
3.94452e+06
3.91749e+06
3.89027e+06
3.86286e+06
3.83526e+06
3.80748e+06
3.77953e+06
3.7514e+06
3.7231e+06
3.69463e+06
3.66601e+06
3.63722e+06
3.60828e+06
3.57918e+06
3.54994e+06
3.52055e+06
3.49101e+06
3.46134e+06
3.43153e+06
3.40158e+06
3.37151e+06
3.3413e+06
3.31098e+06
3.28053e+06
3.24996e+06
3.21927e+06
3.18847e+06
3.15757e+06
3.12655e+06
3.09543e+06
3.06421e+06
3.03289e+06
3.00147e+06
2.96996e+06
2.93836e+06
2.90667e+06
2.8749e+06
2.84305e+06
2.81112e+06
2.77911e+06
2.74703e+06
2.71488e+06
2.68266e+06
2.65038e+06
2.61804e+06
2.58565e+06
2.5532e+06
2.5207e+06
2.48815e+06
2.45556e+06
2.42292e+06
2.39025e+06
2.35755e+06
2.32482e+06
2.29206e+06
2.25927e+06
2.22647e+06
2.19366e+06
2.16083e+06
2.12799e+06
2.09516e+06
2.06232e+06
2.02949e+06
1.99667e+06
1.96386e+06
1.93107e+06
1.89831e+06
1.86557e+06
1.83286e+06
1.8002e+06
1.76757e+06
1.735e+06
1.70247e+06
1.67e+06
1.6376e+06
1.60527e+06
1.57301e+06
1.54083e+06
1.50873e+06
1.47673e+06
1.44483e+06
1.41303e+06
1.38134e+06
1.34977e+06
1.31832e+06
1.287e+06
1.25583e+06
1.22479e+06
1.19391e+06
1.16319e+06
1.13264e+06
1.10227e+06
1.07208e+06
1.04208e+06
1.01229e+06
982708
953352
924230
895355
866741
838403
810359
782631
755246
728241
701671
675630
650322
5.0514e+06
5.05099e+06
5.05018e+06
5.04894e+06
5.04727e+06
5.04517e+06
5.04263e+06
5.03963e+06
5.03618e+06
5.03227e+06
5.0279e+06
5.02305e+06
5.01773e+06
5.01194e+06
5.00567e+06
4.99892e+06
4.99168e+06
4.98397e+06
4.97577e+06
4.9671e+06
4.95794e+06
4.94831e+06
4.9382e+06
4.92762e+06
4.91657e+06
4.90505e+06
4.89307e+06
4.88064e+06
4.86775e+06
4.85442e+06
4.84064e+06
4.82643e+06
4.81178e+06
4.79671e+06
4.78123e+06
4.76533e+06
4.74902e+06
4.73231e+06
4.71521e+06
4.69773e+06
4.67986e+06
4.66162e+06
4.64301e+06
4.62404e+06
4.60472e+06
4.58505e+06
4.56504e+06
4.54469e+06
4.52402e+06
4.50302e+06
4.48171e+06
4.46009e+06
4.43816e+06
4.41594e+06
4.39343e+06
4.37063e+06
4.34755e+06
4.3242e+06
4.30057e+06
4.27669e+06
4.25255e+06
4.22816e+06
4.20352e+06
4.17864e+06
4.15352e+06
4.12817e+06
4.1026e+06
4.0768e+06
4.05079e+06
4.02456e+06
3.99812e+06
3.97148e+06
3.94464e+06
3.9176e+06
3.89037e+06
3.86295e+06
3.83534e+06
3.80756e+06
3.7796e+06
3.75147e+06
3.72316e+06
3.6947e+06
3.66606e+06
3.63727e+06
3.60833e+06
3.57923e+06
3.54998e+06
3.52059e+06
3.49105e+06
3.46137e+06
3.43156e+06
3.40161e+06
3.37154e+06
3.34133e+06
3.311e+06
3.28055e+06
3.24998e+06
3.21929e+06
3.18849e+06
3.15758e+06
3.12657e+06
3.09544e+06
3.06422e+06
3.0329e+06
3.00148e+06
2.96997e+06
2.93837e+06
2.90668e+06
2.87491e+06
2.84306e+06
2.81112e+06
2.77912e+06
2.74703e+06
2.71488e+06
2.68267e+06
2.65039e+06
2.61805e+06
2.58565e+06
2.5532e+06
2.5207e+06
2.48815e+06
2.45556e+06
2.42292e+06
2.39025e+06
2.35755e+06
2.32482e+06
2.29206e+06
2.25928e+06
2.22647e+06
2.19366e+06
2.16083e+06
2.128e+06
2.09516e+06
2.06232e+06
2.02949e+06
1.99667e+06
1.96386e+06
1.93107e+06
1.89831e+06
1.86557e+06
1.83287e+06
1.8002e+06
1.76757e+06
1.735e+06
1.70247e+06
1.67e+06
1.6376e+06
1.60527e+06
1.57301e+06
1.54083e+06
1.50873e+06
1.47673e+06
1.44483e+06
1.41303e+06
1.38134e+06
1.34977e+06
1.31832e+06
1.287e+06
1.25583e+06
1.22479e+06
1.19391e+06
1.16319e+06
1.13264e+06
1.10227e+06
1.07208e+06
1.04208e+06
1.01229e+06
982706
953349
924226
895350
866735
838395
810348
782616
755224
728209
701622
675543
650116
5.05506e+06
5.05465e+06
5.05382e+06
5.05256e+06
5.05088e+06
5.04875e+06
5.04617e+06
5.04314e+06
5.03965e+06
5.0357e+06
5.03128e+06
5.02638e+06
5.021e+06
5.01515e+06
5.00882e+06
5.002e+06
4.9947e+06
4.98691e+06
4.97864e+06
4.96989e+06
4.96066e+06
4.95095e+06
4.94077e+06
4.93011e+06
4.91898e+06
4.90738e+06
4.89533e+06
4.88282e+06
4.86985e+06
4.85644e+06
4.84259e+06
4.8283e+06
4.81358e+06
4.79844e+06
4.78289e+06
4.76692e+06
4.75054e+06
4.73377e+06
4.71661e+06
4.69906e+06
4.68113e+06
4.66284e+06
4.64417e+06
4.62515e+06
4.60578e+06
4.58606e+06
4.566e+06
4.5456e+06
4.52488e+06
4.50384e+06
4.48249e+06
4.46083e+06
4.43887e+06
4.41661e+06
4.39406e+06
4.37123e+06
4.34811e+06
4.32473e+06
4.30108e+06
4.27717e+06
4.253e+06
4.22859e+06
4.20392e+06
4.17902e+06
4.15388e+06
4.12851e+06
4.10292e+06
4.0771e+06
4.05107e+06
4.02482e+06
3.99837e+06
3.97171e+06
3.94486e+06
3.9178e+06
3.89056e+06
3.86313e+06
3.83552e+06
3.80772e+06
3.77975e+06
3.75161e+06
3.7233e+06
3.69482e+06
3.66618e+06
3.63738e+06
3.60843e+06
3.57932e+06
3.55007e+06
3.52067e+06
3.49113e+06
3.46144e+06
3.43163e+06
3.40167e+06
3.37159e+06
3.34138e+06
3.31105e+06
3.28059e+06
3.25002e+06
3.21933e+06
3.18853e+06
3.15762e+06
3.1266e+06
3.09547e+06
3.06425e+06
3.03292e+06
3.00151e+06
2.96999e+06
2.93839e+06
2.9067e+06
2.87493e+06
2.84307e+06
2.81114e+06
2.77913e+06
2.74705e+06
2.71489e+06
2.68268e+06
2.6504e+06
2.61806e+06
2.58566e+06
2.55321e+06
2.5207e+06
2.48816e+06
2.45556e+06
2.42293e+06
2.39026e+06
2.35756e+06
2.32482e+06
2.29206e+06
2.25928e+06
2.22648e+06
2.19366e+06
2.16083e+06
2.128e+06
2.09516e+06
2.06232e+06
2.02949e+06
1.99667e+06
1.96386e+06
1.93107e+06
1.89831e+06
1.86557e+06
1.83287e+06
1.8002e+06
1.76757e+06
1.735e+06
1.70247e+06
1.67001e+06
1.6376e+06
1.60527e+06
1.57301e+06
1.54083e+06
1.50873e+06
1.47673e+06
1.44483e+06
1.41303e+06
1.38134e+06
1.34977e+06
1.31832e+06
1.287e+06
1.25583e+06
1.22479e+06
1.19391e+06
1.16319e+06
1.13264e+06
1.10226e+06
1.07207e+06
1.04208e+06
1.01228e+06
982701
953342
924218
895340
866722
838378
810325
782585
755182
728149
701529
675383
649793
5.06058e+06
5.06016e+06
5.05931e+06
5.05803e+06
5.05631e+06
5.05414e+06
5.05152e+06
5.04843e+06
5.04488e+06
5.04086e+06
5.03636e+06
5.03139e+06
5.02593e+06
5.01998e+06
5.01355e+06
5.00663e+06
4.99923e+06
4.99134e+06
4.98296e+06
4.9741e+06
4.96475e+06
4.95492e+06
4.94462e+06
4.93384e+06
4.9226e+06
4.91088e+06
4.89871e+06
4.88608e+06
4.873e+06
4.85947e+06
4.84551e+06
4.83111e+06
4.81628e+06
4.80103e+06
4.78537e+06
4.7693e+06
4.75282e+06
4.73596e+06
4.7187e+06
4.70106e+06
4.68304e+06
4.66466e+06
4.64591e+06
4.62681e+06
4.60735e+06
4.58756e+06
4.56743e+06
4.54696e+06
4.52618e+06
4.50507e+06
4.48366e+06
4.46194e+06
4.43992e+06
4.4176e+06
4.395e+06
4.37212e+06
4.34896e+06
4.32553e+06
4.30184e+06
4.27788e+06
4.25368e+06
4.22922e+06
4.20452e+06
4.17959e+06
4.15442e+06
4.12902e+06
4.10339e+06
4.07755e+06
4.05149e+06
4.02522e+06
3.99874e+06
3.97206e+06
3.94518e+06
3.91811e+06
3.89085e+06
3.8634e+06
3.83577e+06
3.80796e+06
3.77997e+06
3.75182e+06
3.72349e+06
3.695e+06
3.66635e+06
3.63754e+06
3.60858e+06
3.57946e+06
3.5502e+06
3.52079e+06
3.49124e+06
3.46155e+06
3.43172e+06
3.40177e+06
3.37168e+06
3.34146e+06
3.31112e+06
3.28066e+06
3.25008e+06
3.21939e+06
3.18858e+06
3.15767e+06
3.12664e+06
3.09552e+06
3.06429e+06
3.03296e+06
3.00154e+06
2.97002e+06
2.93842e+06
2.90673e+06
2.87495e+06
2.84309e+06
2.81116e+06
2.77915e+06
2.74706e+06
2.71491e+06
2.68269e+06
2.65041e+06
2.61807e+06
2.58567e+06
2.55322e+06
2.52071e+06
2.48816e+06
2.45557e+06
2.42294e+06
2.39027e+06
2.35756e+06
2.32483e+06
2.29207e+06
2.25928e+06
2.22648e+06
2.19366e+06
2.16083e+06
2.128e+06
2.09516e+06
2.06232e+06
2.02949e+06
1.99667e+06
1.96386e+06
1.93108e+06
1.89831e+06
1.86557e+06
1.83287e+06
1.8002e+06
1.76757e+06
1.735e+06
1.70247e+06
1.67001e+06
1.6376e+06
1.60527e+06
1.57301e+06
1.54083e+06
1.50873e+06
1.47673e+06
1.44483e+06
1.41303e+06
1.38134e+06
1.34977e+06
1.31832e+06
1.287e+06
1.25582e+06
1.22479e+06
1.19391e+06
1.16319e+06
1.13264e+06
1.10226e+06
1.07207e+06
1.04207e+06
1.01228e+06
982694
953333
924207
895326
866703
838353
810292
782541
755121
728061
701398
675172
649418
5.068e+06
5.06756e+06
5.06668e+06
5.06537e+06
5.0636e+06
5.06138e+06
5.05869e+06
5.05553e+06
5.05189e+06
5.04778e+06
5.04318e+06
5.03809e+06
5.03252e+06
5.02645e+06
5.01989e+06
5.01284e+06
5.00529e+06
4.99725e+06
4.98873e+06
4.97971e+06
4.97021e+06
4.96023e+06
4.94976e+06
4.93883e+06
4.92742e+06
4.91555e+06
4.90321e+06
4.89042e+06
4.87719e+06
4.86351e+06
4.84939e+06
4.83484e+06
4.81987e+06
4.80447e+06
4.78867e+06
4.77246e+06
4.75585e+06
4.73886e+06
4.72147e+06
4.70371e+06
4.68557e+06
4.66707e+06
4.64821e+06
4.629e+06
4.60945e+06
4.58955e+06
4.56932e+06
4.54877e+06
4.52789e+06
4.5067e+06
4.48521e+06
4.46341e+06
4.44131e+06
4.41892e+06
4.39625e+06
4.3733e+06
4.35008e+06
4.32659e+06
4.30284e+06
4.27883e+06
4.25457e+06
4.23007e+06
4.20532e+06
4.18034e+06
4.15513e+06
4.12968e+06
4.10402e+06
4.07814e+06
4.05205e+06
4.02574e+06
3.99924e+06
3.97253e+06
3.94562e+06
3.91852e+06
3.89124e+06
3.86376e+06
3.83611e+06
3.80828e+06
3.78027e+06
3.7521e+06
3.72375e+06
3.69525e+06
3.66658e+06
3.63775e+06
3.60878e+06
3.57965e+06
3.55037e+06
3.52095e+06
3.49139e+06
3.46169e+06
3.43185e+06
3.40189e+06
3.37179e+06
3.34157e+06
3.31122e+06
3.28075e+06
3.25017e+06
3.21947e+06
3.18865e+06
3.15773e+06
3.1267e+06
3.09557e+06
3.06434e+06
3.03301e+06
3.00158e+06
2.97006e+06
2.93846e+06
2.90676e+06
2.87498e+06
2.84312e+06
2.81118e+06
2.77917e+06
2.74708e+06
2.71493e+06
2.68271e+06
2.65043e+06
2.61808e+06
2.58568e+06
2.55323e+06
2.52073e+06
2.48817e+06
2.45558e+06
2.42295e+06
2.39027e+06
2.35757e+06
2.32483e+06
2.29207e+06
2.25929e+06
2.22648e+06
2.19367e+06
2.16084e+06
2.128e+06
2.09516e+06
2.06233e+06
2.0295e+06
1.99667e+06
1.96387e+06
1.93108e+06
1.89831e+06
1.86557e+06
1.83287e+06
1.8002e+06
1.76758e+06
1.735e+06
1.70247e+06
1.67001e+06
1.6376e+06
1.60527e+06
1.57301e+06
1.54083e+06
1.50873e+06
1.47673e+06
1.44483e+06
1.41303e+06
1.38134e+06
1.34977e+06
1.31832e+06
1.287e+06
1.25582e+06
1.22479e+06
1.19391e+06
1.16319e+06
1.13263e+06
1.10226e+06
1.07207e+06
1.04207e+06
1.01227e+06
982685
953322
924192
895306
866678
838320
810250
782484
755043
727952
701237
674926
649023
5.07735e+06
5.07689e+06
5.07598e+06
5.07462e+06
5.0728e+06
5.0705e+06
5.06773e+06
5.06447e+06
5.06073e+06
5.05649e+06
5.05176e+06
5.04653e+06
5.04081e+06
5.03458e+06
5.02785e+06
5.02062e+06
5.0129e+06
5.00467e+06
4.99596e+06
4.98674e+06
4.97704e+06
4.96686e+06
4.9562e+06
4.94506e+06
4.93344e+06
4.92137e+06
4.90884e+06
4.89585e+06
4.88241e+06
4.86854e+06
4.85423e+06
4.83949e+06
4.82433e+06
4.80876e+06
4.79278e+06
4.7764e+06
4.75962e+06
4.74246e+06
4.72492e+06
4.707e+06
4.68872e+06
4.67008e+06
4.65108e+06
4.63173e+06
4.61205e+06
4.59203e+06
4.57168e+06
4.55101e+06
4.53002e+06
4.50873e+06
4.48713e+06
4.46523e+06
4.44304e+06
4.42056e+06
4.3978e+06
4.37477e+06
4.35147e+06
4.32791e+06
4.30408e+06
4.28001e+06
4.25568e+06
4.23112e+06
4.20631e+06
4.18127e+06
4.15601e+06
4.13051e+06
4.1048e+06
4.07888e+06
4.05274e+06
4.0264e+06
3.99985e+06
3.9731e+06
3.94616e+06
3.91903e+06
3.89171e+06
3.86421e+06
3.83653e+06
3.80867e+06
3.78064e+06
3.75244e+06
3.72408e+06
3.69555e+06
3.66686e+06
3.63802e+06
3.60902e+06
3.57988e+06
3.55059e+06
3.52115e+06
3.49158e+06
3.46186e+06
3.43202e+06
3.40204e+06
3.37193e+06
3.3417e+06
3.31134e+06
3.28086e+06
3.25027e+06
3.21956e+06
3.18874e+06
3.15781e+06
3.12678e+06
3.09564e+06
3.0644e+06
3.03307e+06
3.00164e+06
2.97011e+06
2.9385e+06
2.9068e+06
2.87502e+06
2.84316e+06
2.81122e+06
2.7792e+06
2.74711e+06
2.71496e+06
2.68273e+06
2.65045e+06
2.6181e+06
2.5857e+06
2.55325e+06
2.52074e+06
2.48819e+06
2.45559e+06
2.42296e+06
2.39028e+06
2.35758e+06
2.32484e+06
2.29208e+06
2.25929e+06
2.22649e+06
2.19367e+06
2.16084e+06
2.12801e+06
2.09517e+06
2.06233e+06
2.0295e+06
1.99668e+06
1.96387e+06
1.93108e+06
1.89831e+06
1.86558e+06
1.83287e+06
1.8002e+06
1.76758e+06
1.735e+06
1.70247e+06
1.67001e+06
1.6376e+06
1.60527e+06
1.57301e+06
1.54083e+06
1.50873e+06
1.47673e+06
1.44483e+06
1.41303e+06
1.38134e+06
1.34977e+06
1.31832e+06
1.287e+06
1.25582e+06
1.22479e+06
1.19391e+06
1.16319e+06
1.13263e+06
1.10225e+06
1.07206e+06
1.04206e+06
1.01226e+06
982673
953307
924174
895283
866648
838281
810198
782415
754950
727823
701055
674659
648625
5.08871e+06
5.08822e+06
5.08727e+06
5.08585e+06
5.08395e+06
5.08156e+06
5.07868e+06
5.07531e+06
5.07143e+06
5.06704e+06
5.06215e+06
5.05674e+06
5.05083e+06
5.0444e+06
5.03746e+06
5.03002e+06
5.02207e+06
5.01361e+06
5.00466e+06
4.99521e+06
4.98526e+06
4.97483e+06
4.96392e+06
4.95253e+06
4.94067e+06
4.92835e+06
4.91557e+06
4.90234e+06
4.88867e+06
4.87456e+06
4.86002e+06
4.84505e+06
4.82967e+06
4.81388e+06
4.79769e+06
4.7811e+06
4.76412e+06
4.74676e+06
4.72903e+06
4.71093e+06
4.69247e+06
4.67365e+06
4.65449e+06
4.63499e+06
4.61515e+06
4.59498e+06
4.57449e+06
4.55368e+06
4.53256e+06
4.51114e+06
4.48942e+06
4.4674e+06
4.4451e+06
4.42251e+06
4.39965e+06
4.37652e+06
4.35313e+06
4.32947e+06
4.30556e+06
4.28141e+06
4.257e+06
4.23236e+06
4.20749e+06
4.18238e+06
4.15705e+06
4.1315e+06
4.10573e+06
4.07975e+06
4.05357e+06
4.02717e+06
4.00058e+06
3.97379e+06
3.94681e+06
3.91964e+06
3.89228e+06
3.86475e+06
3.83703e+06
3.80914e+06
3.78108e+06
3.75285e+06
3.72446e+06
3.69591e+06
3.6672e+06
3.63833e+06
3.60932e+06
3.58015e+06
3.55084e+06
3.52139e+06
3.4918e+06
3.46207e+06
3.43221e+06
3.40222e+06
3.3721e+06
3.34185e+06
3.31148e+06
3.281e+06
3.25039e+06
3.21968e+06
3.18885e+06
3.15791e+06
3.12687e+06
3.09573e+06
3.06448e+06
3.03314e+06
3.0017e+06
2.97017e+06
2.93856e+06
2.90685e+06
2.87507e+06
2.8432e+06
2.81126e+06
2.77924e+06
2.74715e+06
2.71499e+06
2.68276e+06
2.65047e+06
2.61813e+06
2.58572e+06
2.55326e+06
2.52076e+06
2.4882e+06
2.45561e+06
2.42297e+06
2.3903e+06
2.35759e+06
2.32485e+06
2.29209e+06
2.2593e+06
2.2265e+06
2.19368e+06
2.16085e+06
2.12801e+06
2.09517e+06
2.06234e+06
2.0295e+06
1.99668e+06
1.96387e+06
1.93108e+06
1.89832e+06
1.86558e+06
1.83287e+06
1.8002e+06
1.76758e+06
1.735e+06
1.70248e+06
1.67001e+06
1.63761e+06
1.60527e+06
1.57301e+06
1.54083e+06
1.50874e+06
1.47673e+06
1.44483e+06
1.41303e+06
1.38134e+06
1.34977e+06
1.31832e+06
1.287e+06
1.25582e+06
1.22479e+06
1.19391e+06
1.16318e+06
1.13263e+06
1.10225e+06
1.07205e+06
1.04205e+06
1.01225e+06
982660
953291
924152
895256
866613
838236
810139
782337
754846
727681
700857
674381
648233
5.10214e+06
5.10163e+06
5.10062e+06
5.09913e+06
5.09714e+06
5.09464e+06
5.09163e+06
5.0881e+06
5.08405e+06
5.07948e+06
5.07438e+06
5.06876e+06
5.06262e+06
5.05595e+06
5.04876e+06
5.04105e+06
5.03282e+06
5.02409e+06
5.01485e+06
5.00511e+06
4.99487e+06
4.98415e+06
4.97294e+06
4.96125e+06
4.9491e+06
4.93649e+06
4.92342e+06
4.9099e+06
4.89594e+06
4.88155e+06
4.86674e+06
4.85151e+06
4.83586e+06
4.81982e+06
4.80337e+06
4.78654e+06
4.76933e+06
4.75175e+06
4.73379e+06
4.71548e+06
4.69681e+06
4.67779e+06
4.65844e+06
4.63875e+06
4.61873e+06
4.59839e+06
4.57773e+06
4.55677e+06
4.5355e+06
4.51393e+06
4.49206e+06
4.46991e+06
4.44748e+06
4.42477e+06
4.40179e+06
4.37854e+06
4.35504e+06
4.33128e+06
4.30727e+06
4.28302e+06
4.25853e+06
4.2338e+06
4.20885e+06
4.18367e+06
4.15826e+06
4.13264e+06
4.10681e+06
4.08077e+06
4.05452e+06
4.02807e+06
4.00142e+06
3.97458e+06
3.94755e+06
3.92034e+06
3.89294e+06
3.86536e+06
3.83761e+06
3.80968e+06
3.78159e+06
3.75333e+06
3.72491e+06
3.69632e+06
3.66759e+06
3.6387e+06
3.60966e+06
3.58047e+06
3.55114e+06
3.52166e+06
3.49205e+06
3.46231e+06
3.43243e+06
3.40242e+06
3.37229e+06
3.34203e+06
3.31165e+06
3.28115e+06
3.25054e+06
3.21981e+06
3.18897e+06
3.15803e+06
3.12698e+06
3.09582e+06
3.06457e+06
3.03322e+06
3.00178e+06
2.97024e+06
2.93862e+06
2.90691e+06
2.87512e+06
2.84325e+06
2.8113e+06
2.77928e+06
2.74718e+06
2.71502e+06
2.68279e+06
2.6505e+06
2.61815e+06
2.58575e+06
2.55329e+06
2.52078e+06
2.48822e+06
2.45562e+06
2.42298e+06
2.39031e+06
2.3576e+06
2.32486e+06
2.2921e+06
2.25931e+06
2.22651e+06
2.19369e+06
2.16086e+06
2.12802e+06
2.09518e+06
2.06234e+06
2.02951e+06
1.99668e+06
1.96388e+06
1.93109e+06
1.89832e+06
1.86558e+06
1.83287e+06
1.80021e+06
1.76758e+06
1.735e+06
1.70248e+06
1.67001e+06
1.63761e+06
1.60527e+06
1.57301e+06
1.54083e+06
1.50874e+06
1.47673e+06
1.44483e+06
1.41303e+06
1.38134e+06
1.34977e+06
1.31832e+06
1.287e+06
1.25582e+06
1.22479e+06
1.1939e+06
1.16318e+06
1.13262e+06
1.10224e+06
1.07205e+06
1.04204e+06
1.01224e+06
982646
953272
924129
895225
866574
838185
810073
782251
754732
727528
700650
674098
647852
5.11775e+06
5.1172e+06
5.11613e+06
5.11455e+06
5.11244e+06
5.10981e+06
5.10663e+06
5.10292e+06
5.09867e+06
5.09387e+06
5.08853e+06
5.08265e+06
5.07622e+06
5.06926e+06
5.06177e+06
5.05374e+06
5.04519e+06
5.03612e+06
5.02654e+06
5.01646e+06
5.00588e+06
4.9948e+06
4.98325e+06
4.97122e+06
4.95872e+06
4.94576e+06
4.93236e+06
4.9185e+06
4.90422e+06
4.88951e+06
4.87438e+06
4.85884e+06
4.84289e+06
4.82655e+06
4.80983e+06
4.79272e+06
4.77524e+06
4.75739e+06
4.73918e+06
4.72063e+06
4.70172e+06
4.68248e+06
4.66291e+06
4.64301e+06
4.62278e+06
4.60225e+06
4.58141e+06
4.56026e+06
4.53882e+06
4.51708e+06
4.49505e+06
4.47275e+06
4.45017e+06
4.42732e+06
4.4042e+06
4.38083e+06
4.3572e+06
4.33332e+06
4.3092e+06
4.28485e+06
4.26025e+06
4.23543e+06
4.21039e+06
4.18512e+06
4.15963e+06
4.13393e+06
4.10802e+06
4.08191e+06
4.0556e+06
4.02908e+06
4.00238e+06
3.97548e+06
3.9484e+06
3.92113e+06
3.89368e+06
3.86606e+06
3.83826e+06
3.8103e+06
3.78216e+06
3.75387e+06
3.72541e+06
3.69679e+06
3.66803e+06
3.63911e+06
3.61004e+06
3.58083e+06
3.55147e+06
3.52198e+06
3.49234e+06
3.46258e+06
3.43268e+06
3.40266e+06
3.3725e+06
3.34223e+06
3.31184e+06
3.28132e+06
3.2507e+06
3.21996e+06
3.18911e+06
3.15815e+06
3.12709e+06
3.09593e+06
3.06467e+06
3.03331e+06
3.00186e+06
2.97032e+06
2.93869e+06
2.90698e+06
2.87518e+06
2.84331e+06
2.81135e+06
2.77933e+06
2.74723e+06
2.71506e+06
2.68283e+06
2.65054e+06
2.61818e+06
2.58577e+06
2.55331e+06
2.5208e+06
2.48824e+06
2.45564e+06
2.423e+06
2.39032e+06
2.35761e+06
2.32487e+06
2.29211e+06
2.25932e+06
2.22652e+06
2.19369e+06
2.16086e+06
2.12803e+06
2.09518e+06
2.06235e+06
2.02951e+06
1.99669e+06
1.96388e+06
1.93109e+06
1.89832e+06
1.86558e+06
1.83288e+06
1.80021e+06
1.76758e+06
1.73501e+06
1.70248e+06
1.67001e+06
1.63761e+06
1.60527e+06
1.57301e+06
1.54083e+06
1.50874e+06
1.47673e+06
1.44483e+06
1.41303e+06
1.38134e+06
1.34977e+06
1.31832e+06
1.287e+06
1.25582e+06
1.22478e+06
1.1939e+06
1.16318e+06
1.13262e+06
1.10224e+06
1.07204e+06
1.04203e+06
1.01223e+06
982630
953252
924102
895192
866531
838131
810003
782159
754611
727369
700439
673817
647485
5.13566e+06
5.13505e+06
5.13391e+06
5.13222e+06
5.12998e+06
5.12717e+06
5.1238e+06
5.11987e+06
5.11537e+06
5.1103e+06
5.10466e+06
5.09846e+06
5.0917e+06
5.08439e+06
5.07653e+06
5.06813e+06
5.0592e+06
5.04974e+06
5.03976e+06
5.02927e+06
5.01829e+06
5.00681e+06
4.99485e+06
4.98242e+06
4.96952e+06
4.95617e+06
4.94238e+06
4.92814e+06
4.91349e+06
4.89841e+06
4.88292e+06
4.86703e+06
4.85074e+06
4.83407e+06
4.81702e+06
4.7996e+06
4.78182e+06
4.76368e+06
4.74519e+06
4.72636e+06
4.70719e+06
4.68769e+06
4.66788e+06
4.64774e+06
4.6273e+06
4.60654e+06
4.58549e+06
4.56414e+06
4.54251e+06
4.52058e+06
4.49838e+06
4.4759e+06
4.45316e+06
4.43015e+06
4.40688e+06
4.38337e+06
4.3596e+06
4.33559e+06
4.31135e+06
4.28687e+06
4.26217e+06
4.23724e+06
4.21209e+06
4.18673e+06
4.16115e+06
4.13536e+06
4.10937e+06
4.08318e+06
4.05679e+06
4.03021e+06
4.00343e+06
3.97647e+06
3.94933e+06
3.92201e+06
3.89451e+06
3.86683e+06
3.83899e+06
3.81098e+06
3.7828e+06
3.75446e+06
3.72597e+06
3.69732e+06
3.66851e+06
3.63956e+06
3.61046e+06
3.58122e+06
3.55184e+06
3.52232e+06
3.49267e+06
3.46288e+06
3.43296e+06
3.40292e+06
3.37275e+06
3.34245e+06
3.31204e+06
3.28152e+06
3.25088e+06
3.22012e+06
3.18926e+06
3.1583e+06
3.12723e+06
3.09605e+06
3.06478e+06
3.03342e+06
3.00196e+06
2.97041e+06
2.93877e+06
2.90705e+06
2.87525e+06
2.84337e+06
2.81141e+06
2.77938e+06
2.74728e+06
2.7151e+06
2.68287e+06
2.65057e+06
2.61822e+06
2.5858e+06
2.55334e+06
2.52083e+06
2.48827e+06
2.45566e+06
2.42302e+06
2.39034e+06
2.35763e+06
2.32489e+06
2.29212e+06
2.25933e+06
2.22653e+06
2.1937e+06
2.16087e+06
2.12803e+06
2.09519e+06
2.06235e+06
2.02952e+06
1.99669e+06
1.96388e+06
1.93109e+06
1.89833e+06
1.86559e+06
1.83288e+06
1.80021e+06
1.76759e+06
1.73501e+06
1.70248e+06
1.67001e+06
1.63761e+06
1.60527e+06
1.57301e+06
1.54083e+06
1.50874e+06
1.47674e+06
1.44483e+06
1.41303e+06
1.38134e+06
1.34977e+06
1.31832e+06
1.287e+06
1.25582e+06
1.22478e+06
1.1939e+06
1.16317e+06
1.13261e+06
1.10223e+06
1.07203e+06
1.04202e+06
1.01221e+06
982613
953230
924075
895156
866486
838073
809928
782062
754486
727206
700226
673541
647134
5.156e+06
5.15534e+06
5.1541e+06
5.15228e+06
5.14987e+06
5.14686e+06
5.14325e+06
5.13905e+06
5.13424e+06
5.12884e+06
5.12285e+06
5.11627e+06
5.10912e+06
5.10139e+06
5.0931e+06
5.08425e+06
5.07487e+06
5.06495e+06
5.05451e+06
5.04355e+06
5.0321e+06
5.02015e+06
5.00773e+06
4.99484e+06
4.98149e+06
4.96769e+06
4.95346e+06
4.9388e+06
4.92371e+06
4.90822e+06
4.89233e+06
4.87605e+06
4.85938e+06
4.84234e+06
4.82493e+06
4.80717e+06
4.78905e+06
4.77058e+06
4.75178e+06
4.73265e+06
4.71319e+06
4.69342e+06
4.67333e+06
4.65294e+06
4.63224e+06
4.61125e+06
4.58997e+06
4.5684e+06
4.54655e+06
4.52443e+06
4.50203e+06
4.47936e+06
4.45644e+06
4.43325e+06
4.40982e+06
4.38614e+06
4.36223e+06
4.33808e+06
4.3137e+06
4.28909e+06
4.26426e+06
4.23922e+06
4.21396e+06
4.18849e+06
4.16281e+06
4.13693e+06
4.11085e+06
4.08457e+06
4.0581e+06
4.03144e+06
4.00459e+06
3.97756e+06
3.95035e+06
3.92297e+06
3.89541e+06
3.86768e+06
3.83978e+06
3.81172e+06
3.7835e+06
3.75511e+06
3.72658e+06
3.69789e+06
3.66905e+06
3.64006e+06
3.61093e+06
3.58166e+06
3.55225e+06
3.5227e+06
3.49302e+06
3.46321e+06
3.43327e+06
3.4032e+06
3.37301e+06
3.3427e+06
3.31227e+06
3.28173e+06
3.25107e+06
3.22031e+06
3.18943e+06
3.15845e+06
3.12737e+06
3.09619e+06
3.06491e+06
3.03353e+06
3.00206e+06
2.97051e+06
2.93886e+06
2.90714e+06
2.87533e+06
2.84344e+06
2.81147e+06
2.77944e+06
2.74733e+06
2.71515e+06
2.68291e+06
2.65061e+06
2.61825e+06
2.58584e+06
2.55337e+06
2.52085e+06
2.48829e+06
2.45569e+06
2.42304e+06
2.39036e+06
2.35765e+06
2.3249e+06
2.29214e+06
2.25935e+06
2.22654e+06
2.19371e+06
2.16088e+06
2.12804e+06
2.0952e+06
2.06236e+06
2.02952e+06
1.9967e+06
1.96389e+06
1.9311e+06
1.89833e+06
1.86559e+06
1.83288e+06
1.80022e+06
1.76759e+06
1.73501e+06
1.70248e+06
1.67002e+06
1.63761e+06
1.60528e+06
1.57302e+06
1.54083e+06
1.50874e+06
1.47674e+06
1.44483e+06
1.41303e+06
1.38134e+06
1.34977e+06
1.31832e+06
1.287e+06
1.25582e+06
1.22478e+06
1.19389e+06
1.16317e+06
1.13261e+06
1.10222e+06
1.07202e+06
1.04201e+06
1.0122e+06
982594
953207
924045
895119
866438
838012
809851
781963
754358
727042
700015
673273
646800
5.17896e+06
5.17823e+06
5.17688e+06
5.1749e+06
5.17228e+06
5.16902e+06