/*--------------------------------*- C++ -*----------------------------------*\
  =========                 |
  \\      /  F ield         | OpenFOAM: The Open Source CFD Toolbox
   \\    /   O peration     | Website:  https://openfoam.org
    \\  /    A nd           | Version:  7
     \\/     M anipulation  |
\*---------------------------------------------------------------------------*/
FoamFile
{
    version     2.0;
    format      ascii;
    class       volScalarField;
    location    "0.046";
    object      s;
}
// * * * * * * * * * * * * * * * * * * * * * * * * * * * * * * * * * * * * * //

dimensions      [0 0 0 0 0 0 0];

internalField   nonuniform List<scalar> 
12225
(
1
1
1
1
1
1
1
1
1
1
1
1
1
1
1
1
1
1
1
1
1
1
1
1
1
1
1
1
1
1
1
1
1
1
1
1
1
1
1
1
1
1
1
1
1
1
1
1
1
1
1
1
1
1
1
1
1
1
1
1
1
1
1
1
1
1
1
1
1
1
1
1
1
1
1
1
1
1
1
1
1
1
1
1
1
1
1
1
1
1
1
1
1
1
1
1
1
1
1
1
1
1
1
1
1
1
1
1
1
1
1
1
1
1
1
1
1
1
1
1
1
1
1
1
1
1
1
1
1
1
1
1
1
1
1
1
1
1
1
1
1
1
1
1
1
1
1
1
1
1
1
1
1
1
1
1
1
1
1
1
1
1
1
1
1
1
1
1
1
1
1
1
1
1
1
1
1
1
1
1
1
1
1
1
1
1
1
1
1
1
1
1
1
1
1
1
1
1
1
1
1
1
1
1
1
1
1
1
1
1
1
1
1
1
1
1
1
1
1
1
1
1
1
1
1
1
1
1
1
1
1
1
1
1
1
1
1
1
1
1
1
1
1
1
1
1
1
1
1
1
1
1
1
1
1
1
1
1
1
1
1
1
1
1
1
1
1
1
1
1
1
1
1
1
1
1
1
1
1
1
1
1
1
1
1
1
1
1
1
1
1
1
1
1
1
1
1
1
1
1
1
1
1
1
1
1
1
1
1
1
1
1
1
1
1
1
1
1
1
1
1
1
1
1
1
1
1
1
1
1
1
1
1
1
1
1
1
1
1
1
1
1
1
1
1
1
1
1
1
1
1
1
1
1
1
1
1
1
1
1
1
1
1
1
1
1
1
1
1
1
1
1
1
1
1
1
1
1
1
1
1
1
1
1
1
1
1
1
1
1
1
1
1
1
1
1
1
1
1
1
1
1
1
1
1
1
1
1
1
1
1
1
1
1
1
1
1
1
1
1
1
1
1
1
1
1
1
1
1
1
1
1
1
1
1
1
1
1
1
1
1
1
1
1
1
1
1
1
1
1
1
1
1
1
1
1
1
1
1
1
1
1
1
1
1
1
1
1
1
1
1
1
1
1
1
1
1
1
1
1
1
1
1
1
1
1
1
1
1
1
1
1
1
1
1
1
1
1
1
1
1
1
1
1
1
1
1
1
1
1
1
1
1
1
1
1
1
1
1
1
1
1
1
1
1
1
1
1
1
1
1
1
1
1
1
1
1
1
1
1
7.09679e-09
4.22543e-07
2.89319e-06
1.0716e-05
2.986e-05
7.05262e-05
0.000151998
0.000302828
0.000599607
0.00104218
0.00160194
0.00240137
0.00316443
0.00365072
0.0042672
0.00447705
0.00438401
0.00409306
0.00356712
0.00307859
0.00262967
0.0022113
0.00181967
0.0014453
0.00109296
0.00076645
0.00046652
0.000233913
8.17466e-05
3.77585e-05
0.000133514
0.00123906
0.00878028
0.0115104
0.0115118
0.0627289
0.32105
0.396941
0.399317
0.417564
0.450757
0.487647
0.519567
0.548134
0.574532
0.594531
0.608206
0.619868
0.629877
0.636728
0.641401
0.64343
0.643897
0.643676
0.640208
0.629751
0.618128
0.609784
0.60085
0.588119
0.573812
0.56105
0.550581
0.541959
0.53453
0.527992
0.525169
0.52456
0.524649
0.525192
0.525851
0.526172
0.525658
0.523954
0.52179
0.517572
0.510813
0.503579
0.495921
0.486674
0.475477
0.462449
0.446263
0.427248
0.404972
0.379172
0.35074
0.319619
0.286651
0.252654
0.218459
0.185239
0.154296
0.126916
0.104569
0.08506
0.0674746
0.0520847
0.0390864
0.0285418
0.0203291
0.0141295
0.00953305
0.00622098
0.00392576
0.00239612
0.00141349
0.00080511
0.000442619
0.000234855
0.000120283
5.94657e-05
2.83744e-05
1.30604e-05
5.78972e-06
2.46435e-06
1.00165e-06
3.84885e-07
1.36432e-07
4.43735e-08
1.39231e-08
4.20928e-09
1.22569e-09
3.47174e-10
8.69589e-11
2.25044e-11
8.91997e-12
3.34719e-12
1.20502e-12
4.23365e-13
1.46467e-13
4.99495e-14
1.6752e-14
5.5133e-15
1.77924e-15
5.63234e-16
1.75027e-16
5.34281e-17
1.60267e-17
4.72485e-18
1.36904e-18
3.89907e-19
1.09163e-19
3.00485e-20
8.13325e-21
2.16498e-21
5.66811e-22
1.45969e-22
3.69789e-23
9.21636e-24
2.26001e-24
5.4531e-25
1.29476e-25
3.02531e-26
6.95681e-27
1.5744e-27
3.50657e-28
7.68583e-29
1.65767e-29
3.5175e-30
7.34161e-31
1.50669e-31
3.03908e-32
6.02155e-33
1.17123e-33
2.23471e-34
4.17922e-35
7.65372e-36
1.3714e-36
2.40168e-37
4.10698e-38
6.84889e-39
1.11273e-39
1.75758e-40
2.69625e-41
3.99899e-42
5.7291e-43
7.83103e-44
1.02169e-44
1.20514e-45
1.97935e-07
4.59862e-06
2.98382e-05
0.000116552
0.000347871
0.000872024
0.00195532
0.0043845
0.00772566
0.0146244
0.0195281
0.0277576
0.0329916
0.0380822
0.0426259
0.0429943
0.0423383
0.0400586
0.0351812
0.0287491
0.0220063
0.0157442
0.0105781
0.00664127
0.00391705
0.00223633
0.00117841
0.000624851
0.000335105
0.000129198
0.000303127
0.00185207
0.0387924
0.199789
0.305009
0.34725
0.417211
0.452752
0.492668
0.561594
0.649598
0.707891
0.774727
0.8162
0.858237
0.882068
0.902884
0.919388
0.931431
0.941287
0.947351
0.953262
0.956237
0.95887
0.961248
0.963203
0.96574
0.967352
0.968204
0.968809
0.969113
0.969267
0.969326
0.969097
0.968842
0.968845
0.968498
0.968504
0.968806
0.96929
0.969688
0.970009
0.970231
0.970345
0.970113
0.969819
0.969708
0.969102
0.968168
0.966671
0.964724
0.962724
0.959416
0.954871
0.948918
0.941124
0.930763
0.917618
0.900929
0.880051
0.85404
0.821874
0.78231
0.733778
0.675185
0.609267
0.537906
0.462346
0.38475
0.308648
0.239251
0.182445
0.137882
0.100947
0.0714634
0.0491296
0.0328976
0.0214202
0.013555
0.00834472
0.00500263
0.00292365
0.0016677
0.000929623
0.000506955
0.000270703
0.000141629
7.26204e-05
3.64927e-05
1.79652e-05
8.65833e-06
4.0826e-06
1.88217e-06
8.47898e-07
3.73079e-07
1.60296e-07
6.72484e-08
2.75494e-08
1.10228e-08
4.30836e-09
1.6454e-09
6.141e-10
2.24007e-10
7.98625e-11
2.78228e-11
9.46821e-12
3.14606e-12
1.02033e-12
3.22802e-13
9.94975e-14
2.98371e-14
8.73532e-15
2.51146e-15
7.09001e-16
1.96512e-16
5.34702e-17
1.42818e-17
3.74429e-18
9.6349e-19
2.43331e-19
6.03122e-20
1.46712e-20
3.50245e-21
8.20596e-22
1.88689e-22
4.25826e-23
9.43206e-24
2.05063e-24
4.37621e-25
9.16771e-26
1.88539e-26
3.80665e-27
7.54583e-28
1.46862e-28
2.80645e-29
5.26567e-30
9.70005e-31
1.75428e-31
3.11418e-32
5.42578e-33
9.27378e-34
1.55471e-34
2.55388e-35
4.10998e-36
6.46452e-37
9.94011e-38
1.48541e-38
2.16043e-39
3.09002e-40
-2.04465e-41
1.64147e-06
2.63706e-05
0.000172611
0.000713751
0.00224915
0.00586851
0.0137083
0.0307758
0.0526886
0.0857856
0.105463
0.13179
0.14669
0.172282
0.172536
0.167927
0.155975
0.138451
0.120076
0.10084
0.0814159
0.0623357
0.0449874
0.0301075
0.0188727
0.0109228
0.00539061
0.00207835
0.000536634
0.00155933
0.0447674
0.174463
0.326828
0.40967
0.470623
0.541795
0.613072
0.690624
0.769491
0.832073
0.861468
0.884641
0.894551
0.898748
0.899886
0.897031
0.891559
0.886824
0.878482
0.875849
0.875034
0.876247
0.885231
0.899643
0.909061
0.91613
0.931271
0.944013
0.950064
0.958123
0.965858
0.968916
0.971805
0.975363
0.977001
0.977949
0.978966
0.97943
0.9798
0.9804
0.981101
0.982411
0.983464
0.984492
0.985177
0.986467
0.988337
0.990195
0.991398
0.99224
0.992895
0.994378
0.995544
0.99613
0.996718
0.997137
0.997287
0.997362
0.996942
0.996128
0.994792
0.992759
0.989725
0.985247
0.978694
0.969138
0.955218
0.935
0.905745
0.863587
0.803544
0.720902
0.618658
0.506331
0.392481
0.289334
0.208386
0.146924
0.100254
0.0664064
0.0428039
0.026865
0.0164396
0.00982249
0.00573785
0.00328066
0.00183752
0.00100876
0.000542884
0.000286378
0.000148025
7.49323e-05
3.71274e-05
1.79962e-05
8.53002e-06
3.95262e-06
1.79038e-06
7.92758e-07
3.43187e-07
1.45277e-07
6.01496e-08
2.4363e-08
9.65559e-09
3.74492e-09
1.42155e-09
5.28152e-10
1.92062e-10
6.83621e-11
2.38155e-11
8.11964e-12
2.70892e-12
8.8426e-13
2.82385e-13
8.82204e-14
2.69625e-14
8.06166e-15
2.35819e-15
6.74892e-16
1.88971e-16
5.17868e-17
1.39244e-17
3.67974e-18
9.5559e-19
2.43831e-19
6.11266e-20
1.50543e-20
3.64214e-21
8.6555e-22
2.02047e-22
4.63265e-23
1.04331e-23
2.30779e-24
5.01393e-25
1.06993e-25
2.2424e-26
4.61587e-27
9.33133e-28
1.85259e-28
3.61142e-29
6.91264e-30
1.29862e-30
2.39462e-31
4.32957e-32
7.67911e-33
1.33268e-33
2.26672e-34
3.75496e-35
6.08824e-36
9.51846e-37
1.42646e-37
6.84371e-06
0.00010472
0.000714968
0.00309602
0.0100655
0.0266836
0.0642742
0.132246
0.202795
0.268755
0.298806
0.3287
0.323288
0.301792
0.263037
0.226662
0.191376
0.162133
0.138257
0.114661
0.0919896
0.0714519
0.0529811
0.0361266
0.0216183
0.0110865
0.00443505
0.00151023
0.0122304
0.101226
0.314098
0.472852
0.548861
0.633549
0.691385
0.771646
0.817273
0.860123
0.879327
0.88715
0.888346
0.883228
0.87002
0.841289
0.794558
0.734256
0.688968
0.662911
0.643567
0.636315
0.634119
0.635545
0.649292
0.668329
0.683682
0.707978
0.738269
0.765907
0.792034
0.821205
0.84577
0.863582
0.879628
0.890084
0.897448
0.902568
0.907107
0.909028
0.910805
0.912982
0.916499
0.922985
0.930544
0.937624
0.942782
0.948617
0.954358
0.96072
0.965458
0.969866
0.972576
0.979162
0.985787
0.989412
0.992514
0.995786
0.997148
0.9983
0.998897
0.999268
0.999475
0.999586
0.999639
0.999633
0.999522
0.999263
0.998787
0.99794
0.996461
0.993863
0.989311
0.981247
0.966785
0.940696
0.894424
0.817004
0.701755
0.561904
0.419785
0.298294
0.207354
0.139861
0.0916237
0.0584495
0.0363585
0.0220824
0.0131083
0.00761046
0.00432293
0.00240242
0.00130591
0.000694029
0.000360434
0.000182832
9.05507e-05
4.37776e-05
2.06586e-05
9.51639e-06
4.27997e-06
1.87983e-06
8.06548e-07
3.38149e-07
1.38572e-07
5.55192e-08
2.1752e-08
8.33507e-09
3.12415e-09
1.14554e-09
4.10923e-10
1.4421e-10
4.95126e-11
1.66313e-11
5.46558e-12
1.75734e-12
5.52843e-13
1.70176e-13
5.12593e-14
1.51098e-14
4.35914e-15
1.23095e-15
3.40238e-16
9.20573e-17
2.43878e-17
6.3352e-18
1.61662e-18
4.05229e-19
9.97748e-20
2.41299e-20
5.73188e-21
1.33732e-21
3.06455e-22
6.89744e-23
1.52473e-23
3.31043e-24
7.0591e-25
1.47838e-25
3.04064e-26
6.14165e-27
1.21807e-27
2.3721e-28
4.5341e-29
8.50746e-30
1.56546e-30
2.82627e-31
4.9952e-32
8.65499e-33
1.46269e-33
2.42023e-34
3.87798e-35
6.02834e-36
1.85457e-05
0.000308151
0.00222134
0.00999451
0.0330832
0.0878298
0.209157
0.346403
0.417171
0.439706
0.437446
0.421532
0.374486
0.310634
0.244168
0.182282
0.132706
0.0967815
0.0753839
0.0681642
0.0657851
0.0601878
0.0475502
0.0321439
0.0172245
0.00736349
0.00505145
0.0232138
0.127789
0.411222
0.581783
0.663604
0.739457
0.797022
0.840119
0.87057
0.883007
0.887435
0.886523
0.875886
0.851724
0.799496
0.707343
0.634722
0.590241
0.569709
0.559639
0.555137
0.55367
0.553718
0.55712
0.561717
0.564762
0.570577
0.576366
0.581326
0.584632
0.589193
0.596716
0.607248
0.61878
0.63396
0.650736
0.670738
0.68908
0.705373
0.713367
0.723139
0.729514
0.73403
0.74344
0.757386
0.784495
0.816281
0.839627
0.864392
0.875078
0.88264
0.889637
0.899154
0.907908
0.926028
0.946494
0.960506
0.972527
0.983793
0.989465
0.993889
0.996402
0.99793
0.998827
0.999343
0.999627
0.999779
0.999864
0.999909
0.999932
0.999941
0.999936
0.999902
0.99981
0.999602
0.999149
0.998148
0.995916
0.99088
0.979377
0.952719
0.890924
0.779647
0.628269
0.466959
0.328265
0.224994
0.149726
0.0969244
0.0611301
0.0375987
0.0225643
0.013215
0.00755192
0.00420967
0.00228805
0.00121212
0.000625709
0.000314692
0.000154205
7.36354e-05
3.42746e-05
1.55565e-05
6.88775e-06
2.97606e-06
1.25537e-06
5.17144e-07
2.08108e-07
8.18287e-08
3.14446e-08
1.18108e-08
4.33658e-09
1.55665e-09
5.46309e-10
1.87461e-10
6.2898e-11
2.06366e-11
6.62129e-12
2.07771e-12
6.37678e-13
1.91442e-13
5.62263e-14
1.61573e-14
4.54343e-15
1.25041e-15
3.36853e-16
8.88345e-17
2.29414e-17
5.81217e-18
1.44574e-18
3.53076e-19
8.46606e-20
1.99315e-20
4.60734e-21
1.04574e-21
2.33063e-22
5.10036e-23
1.096e-23
2.31263e-24
4.79148e-25
9.7478e-26
1.94695e-26
3.81785e-27
7.34773e-28
1.38798e-28
2.57143e-29
4.67336e-30
8.31809e-31
1.45098e-31
2.47192e-32
4.12039e-33
6.67595e-34
1.05088e-34
3.79063e-05
0.000701405
0.0053089
0.0245206
0.0812443
0.212361
0.418704
0.488744
0.50342
0.501555
0.487049
0.440719
0.355096
0.253657
0.158512
0.0908292
0.0553573
0.0359879
0.0262829
0.0270073
0.0311223
0.0348134
0.0299179
0.0177338
0.0112078
0.0107046
0.0359364
0.151792
0.470819
0.657987
0.742903
0.803306
0.849146
0.872203
0.883572
0.887223
0.886569
0.878174
0.854597
0.800423
0.702995
0.62592
0.589554
0.573386
0.56768
0.566618
0.569089
0.580314
0.58714
0.590691
0.592855
0.593425
0.592772
0.589233
0.586658
0.583532
0.580233
0.577659
0.573241
0.566911
0.558347
0.553902
0.54795
0.540638
0.534507
0.531844
0.530509
0.529265
0.528809
0.52816
0.528981
0.531547
0.541288
0.57076
0.62705
0.705677
0.745279
0.75383
0.753042
0.748202
0.760345
0.80435
0.85503
0.894029
0.93031
0.95535
0.972685
0.983932
0.990684
0.994608
0.996861
0.998169
0.998939
0.999397
0.999667
0.999822
0.999906
0.999949
0.999971
0.999981
0.999986
0.999987
0.999984
0.999967
0.999916
0.999775
0.99939
0.998339
0.995459
0.98756
0.965927
0.906709
0.773846
0.604574
0.437408
0.30363
0.204698
0.134003
0.0852838
0.052794
0.0317918
0.0186209
0.0106056
0.00587254
0.00316095
0.00165396
0.000841451
0.000416366
0.000200473
9.39698e-05
4.29048e-05
1.90913e-05
8.28308e-06
3.50561e-06
1.44782e-06
5.83687e-07
2.2976e-07
8.83264e-08
3.31665e-08
1.21663e-08
4.3603e-09
1.52691e-09
5.22497e-10
1.74731e-10
5.71094e-11
1.82449e-11
5.69793e-12
1.73975e-12
5.19411e-13
1.51653e-13
4.33092e-14
1.20996e-14
3.3075e-15
8.84821e-16
2.31688e-16
5.93994e-17
1.4934e-17
3.68451e-18
8.9209e-19
2.11977e-19
4.94366e-20
1.13165e-20
2.54275e-21
5.60845e-22
1.21435e-22
2.58121e-23
5.38611e-24
1.10333e-24
2.21859e-25
4.37912e-26
8.48249e-27
1.61243e-27
3.00617e-28
5.497e-29
9.84709e-30
1.72831e-30
2.96544e-31
4.97654e-32
8.13862e-33
1.29455e-33
6.41589e-05
0.00127658
0.00986893
0.0456503
0.147515
0.354243
0.513119
0.543145
0.5431
0.542919
0.511381
0.43557
0.33544
0.220599
0.115458
0.0549555
0.0277657
0.0178723
0.0163706
0.0169828
0.0188269
0.0197983
0.0184223
0.0170789
0.0226385
0.0602136
0.189624
0.526602
0.71272
0.795207
0.838288
0.868411
0.881255
0.88516
0.885697
0.881306
0.864432
0.821064
0.733335
0.652083
0.608603
0.588095
0.581013
0.579347
0.585785
0.596693
0.60176
0.603964
0.60411
0.60256
0.601049
0.600338
0.598951
0.598409
0.599143
0.601565
0.603122
0.604708
0.6053
0.604806
0.600979
0.590175
0.573989
0.556341
0.52905
0.514666
0.503132
0.491208
0.482442
0.472071
0.466172
0.461695
0.458177
0.457476
0.462749
0.487547
0.543412
0.58546
0.592345
0.591212
0.604712
0.656366
0.725153
0.79306
0.860062
0.907199
0.942399
0.966087
0.980757
0.989324
0.994089
0.996675
0.99808
0.998869
0.999332
0.999608
0.999777
0.99988
0.999938
0.999969
0.999985
0.999992
0.999995
0.999996
0.999996
0.999994
0.999986
0.999955
0.999854
0.999526
0.998484
0.995217
0.98514
0.954597
0.863667
0.692934
0.513155
0.360109
0.24463
0.160886
0.102518
0.0633107
0.0378937
0.0219827
0.0123613
0.00673952
0.00356414
0.00182927
0.000911763
0.00044164
0.000208038
9.53672e-05
4.25705e-05
1.85144e-05
7.84891e-06
3.24475e-06
1.30849e-06
5.14869e-07
1.97723e-07
7.41189e-08
2.71256e-08
9.69324e-09
3.38258e-09
1.15283e-09
3.83776e-10
1.24805e-10
3.96541e-11
1.23114e-11
3.73553e-12
1.1079e-12
3.21239e-13
9.10793e-14
2.5256e-14
6.85102e-15
1.81838e-15
4.72328e-16
1.20144e-16
2.997e-17
7.33284e-18
1.75997e-18
4.14411e-19
9.57396e-20
2.17032e-20
4.82796e-21
1.05399e-21
2.25825e-22
4.74871e-23
9.80085e-24
1.98524e-24
3.94659e-25
7.69858e-26
1.47352e-26
2.76616e-27
5.09241e-28
9.18635e-29
1.6235e-29
2.80698e-30
4.74697e-31
7.83721e-32
1.2603e-32
8.79795e-05
0.00177131
0.0135429
0.0613766
0.190615
0.42559
0.560191
0.589454
0.594452
0.578149
0.533391
0.455812
0.349232
0.222615
0.10317
0.0508315
0.0289438
0.0210303
0.0187178
0.0185396
0.020383
0.0235499
0.0303281
0.0525305
0.123265
0.304752
0.591465
0.752178
0.822723
0.856358
0.872966
0.880191
0.882048
0.88114
0.870178
0.840747
0.774825
0.692037
0.636492
0.604372
0.59169
0.587579
0.586894
0.590626
0.592812
0.593667
0.590016
0.577338
0.56087
0.542407
0.527053
0.519941
0.517348
0.520097
0.531702
0.540993
0.559646
0.574189
0.592036
0.605442
0.613822
0.620635
0.622659
0.621771
0.608097
0.581963
0.544975
0.512543
0.486611
0.466908
0.454139
0.447257
0.444039
0.442091
0.441639
0.442038
0.447878
0.470615
0.508884
0.539543
0.563826
0.612809
0.679792
0.74619
0.803683
0.860469
0.908783
0.943841
0.967238
0.981649
0.990064
0.994727
0.99719
0.998451
0.999115
0.999483
0.999697
0.999824
0.9999
0.999946
0.999972
0.999986
0.999993
0.999996
0.999998
0.999999
0.999999
0.999998
0.999995
0.999983
0.999939
0.999775
0.9992
0.997234
0.990707
0.969602
0.902968
0.737891
0.549391
0.386685
0.262301
0.171598
0.108346
0.0660557
0.0389058
0.0221501
0.0121983
0.0065035
0.00335982
0.00168349
0.000818901
0.000387035
0.000177871
7.95416e-05
3.46316e-05
1.46877e-05
6.07043e-06
2.44578e-06
9.60886e-07
3.68201e-07
1.3764e-07
5.02026e-08
1.78689e-08
6.20761e-09
2.10508e-09
6.96941e-10
2.25305e-10
7.11325e-11
2.19362e-11
6.60902e-12
1.94572e-12
5.59868e-13
1.57489e-13
4.33191e-14
1.1654e-14
3.06716e-15
7.89981e-16
1.99344e-16
4.93151e-17
1.19619e-17
2.84528e-18
6.6376e-19
1.51883e-19
3.40935e-20
7.50818e-21
1.62233e-21
3.43959e-22
7.15585e-23
1.46082e-23
2.92627e-24
5.75126e-25
1.10895e-25
2.09717e-26
3.88912e-27
7.06846e-28
1.25866e-28
2.19394e-29
3.74171e-30
6.23803e-31
1.0145e-31
9.70187e-05
0.00194532
0.0149248
0.0676457
0.208616
0.460379
0.601953
0.624541
0.625159
0.614977
0.581666
0.524727
0.436376
0.312698
0.178963
0.100739
0.0662943
0.0509005
0.0454165
0.0448395
0.0570551
0.0813913
0.137711
0.262169
0.474636
0.681404
0.784475
0.836112
0.859112
0.86942
0.874329
0.876274
0.869744
0.849588
0.800851
0.730452
0.669351
0.625335
0.603552
0.592943
0.588819
0.587105
0.586156
0.584584
0.574509
0.54955
0.502854
0.471124
0.44258
0.421127
0.41072
0.403249
0.400737
0.40168
0.410807
0.422014
0.443886
0.469518
0.494586
0.524813
0.554517
0.589649
0.615556
0.628
0.632452
0.632658
0.624954
0.604642
0.563439
0.515063
0.473948
0.454307
0.447919
0.446703
0.448099
0.449115
0.448431
0.454148
0.481291
0.526781
0.559507
0.609522
0.673576
0.728063
0.77694
0.833023
0.886538
0.92961
0.958504
0.976209
0.986665
0.992708
0.996111
0.997972
0.998931
0.999415
0.99967
0.999809
0.99989
0.999937
0.999966
0.999982
0.999991
0.999995
0.999998
0.999999
0.999999
1
1
0.999999
0.999997
0.999989
0.999956
0.999829
0.999358
0.997675
0.991871
0.972442
0.908972
0.740301
0.544256
0.379606
0.25415
0.163507
0.101199
0.0603243
0.0346717
0.0192376
0.0103172
0.00535481
0.00269282
0.00131347
0.000622021
0.000286235
0.000128081
5.57638e-05
2.36343e-05
9.7553e-06
3.9228e-06
1.53722e-06
5.87182e-07
2.18675e-07
7.94144e-08
2.8129e-08
9.71947e-09
3.27672e-09
1.07801e-09
3.4616e-10
1.08515e-10
3.32164e-11
9.93034e-12
2.90021e-12
8.27665e-13
2.30863e-13
6.29566e-14
1.67892e-14
4.37973e-15
1.1185e-15
2.79884e-16
6.86368e-17
1.64986e-17
3.88794e-18
8.98348e-19
2.03556e-19
4.52368e-20
9.86094e-21
2.10863e-21
4.42355e-22
9.10419e-23
1.83831e-23
3.64148e-24
7.07602e-25
1.34855e-25
2.52019e-26
4.61661e-27
8.28679e-28
1.45675e-28
2.50676e-29
4.22082e-30
6.94286e-31
7.26365e-05
0.0014207
0.0127599
0.0638486
0.208754
0.466882
0.621682
0.663666
0.668351
0.661771
0.635665
0.594112
0.546343
0.476597
0.383487
0.289347
0.222861
0.192016
0.181971
0.199102
0.263673
0.350643
0.488481
0.632607
0.74337
0.809512
0.840433
0.854999
0.861897
0.865128
0.862807
0.848672
0.811052
0.751471
0.694356
0.648629
0.619004
0.601611
0.593349
0.589278
0.587264
0.584307
0.578048
0.561493
0.523897
0.466294
0.439061
0.401862
0.371542
0.349596
0.330432
0.321731
0.318583
0.322334
0.33843
0.355034
0.377447
0.401741
0.426279
0.453362
0.47667
0.499345
0.527921
0.578969
0.61477
0.630535
0.63449
0.631261
0.620762
0.602199
0.570875
0.52504
0.501376
0.495135
0.498564
0.510941
0.515215
0.51455
0.522476
0.559413
0.610736
0.665722
0.697612
0.720177
0.745454
0.780305
0.832886
0.892868
0.939615
0.968056
0.983345
0.991311
0.995465
0.997643
0.99879
0.999378
0.999666
0.99981
0.99989
0.999937
0.999965
0.999981
0.99999
0.999995
0.999997
0.999999
0.999999
1
1
1
1
0.999999
0.999997
0.999989
0.999952
0.999809
0.999269
0.997307
0.990411
0.966822
0.887769
0.695257
0.498136
0.340063
0.222075
0.139041
0.0836151
0.0483824
0.0269829
0.0145273
0.0075619
0.00381072
0.00186136
0.000882146
0.000405987
0.000181576
7.89666e-05
3.34105e-05
1.37581e-05
5.51605e-06
2.15389e-06
8.19328e-07
3.03695e-07
1.09713e-07
3.86379e-08
1.32675e-08
4.44306e-09
1.45139e-09
4.62586e-10
1.43884e-10
4.36875e-11
1.2952e-11
3.75037e-12
1.06093e-12
2.93297e-13
7.926e-14
2.0944e-14
5.41467e-15
1.37088e-15
3.39977e-16
8.26071e-17
1.96694e-17
4.59042e-18
1.05022e-18
2.35582e-19
5.18202e-20
1.1179e-20
2.36537e-21
4.90921e-22
9.99449e-23
1.9959e-23
3.90958e-24
7.51071e-25
1.41489e-25
2.61306e-26
4.72966e-27
8.38735e-28
1.45666e-28
2.47738e-29
4.12144e-30
7.39606e-05
0.000665182
0.0073957
0.0425157
0.158308
0.408947
0.623477
0.683179
0.69704
0.697377
0.688135
0.665725
0.640088
0.609677
0.567102
0.524758
0.497221
0.487206
0.491857
0.532151
0.583266
0.657103
0.727003
0.784489
0.821195
0.839069
0.847563
0.851363
0.851366
0.839414
0.809164
0.759608
0.705518
0.660283
0.628321
0.606423
0.595684
0.590662
0.588527
0.587142
0.583819
0.575534
0.553734
0.500964
0.431988
0.385483
0.343592
0.293047
0.255845
0.228471
0.209256
0.200982
0.198625
0.207415
0.224761
0.25607
0.293722
0.339953
0.389225
0.421867
0.450615
0.47194
0.489918
0.507213
0.537822
0.585428
0.613738
0.622141
0.621934
0.613808
0.600889
0.584654
0.568162
0.562736
0.565745
0.578429
0.594468
0.611481
0.628938
0.650089
0.675361
0.692015
0.701856
0.705662
0.683348
0.660494
0.688445
0.771036
0.866102
0.932809
0.968972
0.98612
0.993798
0.99716
0.998655
0.999355
0.999691
0.999849
0.99992
0.999954
0.999972
0.999984
0.999991
0.999995
0.999997
0.999999
0.999999
1
1
1
1
1
1
0.999999
0.999996
0.999983
0.999927
0.999709
0.998881
0.995845
0.98502
0.947283
0.819756
0.603548
0.41792
0.27588
0.174094
0.105294
0.0611768
0.0342181
0.01846
0.00962148
0.00485188
0.00237012
0.00112271
0.000516152
0.000230467
0.000100004
4.21913e-05
1.73144e-05
6.91402e-06
2.68739e-06
1.01702e-06
3.74836e-07
1.34578e-07
4.70795e-08
1.60517e-08
5.33516e-09
1.72911e-09
5.46595e-10
1.68576e-10
5.07384e-11
1.49081e-11
4.27744e-12
1.19884e-12
3.28312e-13
8.78821e-14
2.30045e-14
5.89377e-15
1.47839e-15
3.6317e-16
8.73896e-17
2.06032e-17
4.76022e-18
1.078e-18
2.39321e-19
5.20934e-20
1.11193e-20
2.32761e-21
4.77868e-22
9.62244e-23
1.90037e-23
3.6808e-24
6.99117e-25
1.30196e-25
2.37678e-26
4.25257e-27
7.45523e-28
1.28073e-28
2.1546e-29
0.000264747
0.000236182
0.00320311
0.0228517
0.100495
0.299268
0.58408
0.69049
0.719407
0.725419
0.724238
0.719121
0.711751
0.700808
0.682369
0.672058
0.667974
0.670517
0.681976
0.713171
0.744347
0.778146
0.806949
0.823888
0.832734
0.837213
0.838921
0.82862
0.802053
0.755022
0.702931
0.664232
0.63413
0.610972
0.59689
0.589194
0.585921
0.585322
0.584828
0.582013
0.574342
0.554633
0.507119
0.43513
0.367125
0.320214
0.26637
0.216559
0.185165
0.162298
0.150989
0.146057
0.145066
0.154275
0.167108
0.190544
0.222021
0.262423
0.315084
0.380056
0.428537
0.46083
0.484789
0.49653
0.511375
0.534256
0.573333
0.603339
0.612666
0.605775
0.593059
0.586318
0.577897
0.575489
0.581581
0.593783
0.609022
0.630577
0.653604
0.675514
0.691382
0.698606
0.701123
0.695548
0.665639
0.600425
0.561032
0.571167
0.660921
0.811344
0.9139
0.963895
0.985888
0.994724
0.998027
0.999229
0.999682
0.999865
0.999942
0.999974
0.999987
0.999993
0.999995
0.999997
0.999998
0.999999
1
1
1
1
1
1
1
1
1
0.999998
0.999992
0.999965
0.999854
0.999417
0.997756
0.991603
0.969348
0.890369
0.684435
0.478321
0.317812
0.201407
0.12214
0.0710789
0.03979
0.021471
0.0111877
0.00563726
0.00275024
0.00130042
0.000596451
0.000265548
0.000114827
4.82498e-05
1.97097e-05
7.83002e-06
3.02612e-06
1.13811e-06
4.16655e-07
1.48521e-07
5.15628e-08
1.74398e-08
5.74819e-09
1.84684e-09
5.78593e-10
1.76807e-10
5.27171e-11
1.53417e-11
4.3593e-12
1.20983e-12
3.28057e-13
8.69523e-14
2.2545e-14
5.72045e-15
1.42084e-15
3.45549e-16
8.23078e-17
1.92061e-17
4.3914e-18
9.84052e-19
2.16154e-19
4.65484e-20
9.82884e-21
2.03516e-21
4.1326e-22
8.22983e-23
1.60732e-23
3.07845e-24
5.78171e-25
1.06466e-25
1.92211e-26
3.40161e-27
5.90235e-28
1.00394e-28
0.00129025
8.20453e-05
0.000970341
0.00843779
0.0452823
0.167844
0.434812
0.66655
0.732004
0.750299
0.753846
0.751339
0.749493
0.753194
0.757197
0.754752
0.753212
0.759977
0.771391
0.78411
0.801283
0.812276
0.820842
0.825065
0.827467
0.822091
0.804768
0.759558
0.702974
0.665076
0.635594
0.608501
0.59098
0.580486
0.575736
0.574542
0.577686
0.580912
0.581469
0.578806
0.567064
0.529316
0.461277
0.38081
0.317747
0.268063
0.21393
0.169034
0.146293
0.130023
0.122058
0.118167
0.117262
0.126255
0.138859
0.159282
0.189985
0.229327
0.277439
0.342964
0.404461
0.447445
0.483212
0.504175
0.511731
0.525781
0.551922
0.591639
0.614439
0.611326
0.592284
0.576791
0.574188
0.576574
0.586551
0.605719
0.622905
0.644958
0.670063
0.695935
0.716721
0.725832
0.726027
0.720169
0.69642
0.620425
0.548363
0.521955
0.527745
0.590918
0.769169
0.899597
0.959583
0.985228
0.995026
0.998412
0.999496
0.999832
0.99994
0.999977
0.999991
0.999996
0.999998
0.999999
0.999999
1
1
1
1
1
1
1
1
1
1
1
0.999999
0.999995
0.999979
0.999909
0.999624
0.998505
0.994213
0.978174
0.919569
0.736385
0.516146
0.343586
0.217895
0.132116
0.0768265
0.0429567
0.0231439
0.0120361
0.00605068
0.00294375
0.00138739
0.000633946
0.000281032
0.000120937
5.05453e-05
2.05261e-05
8.10225e-06
3.10977e-06
1.16096e-06
4.21702e-07
1.49084e-07
5.13128e-08
1.72001e-08
5.61673e-09
1.78745e-09
5.54541e-10
1.67778e-10
4.9522e-11
1.42653e-11
4.01187e-12
1.10192e-12
2.95722e-13
7.75959e-14
1.9916e-14
5.00163e-15
1.22943e-15
2.95868e-16
6.97294e-17
1.60978e-17
3.64122e-18
8.07146e-19
1.75372e-19
3.73546e-20
7.80116e-21
1.59756e-21
3.20822e-22
6.31842e-23
1.22036e-23
2.31158e-24
4.29384e-25
7.82211e-26
1.39738e-26
2.44882e-27
4.21025e-28
0.00518044
0.000156572
0.000181446
0.00220775
0.0153306
0.0705761
0.230797
0.531011
0.70238
0.750944
0.773288
0.783777
0.784515
0.782767
0.784703
0.794
0.799375
0.802256
0.807676
0.812334
0.816411
0.817811
0.817067
0.810937
0.79448
0.762186
0.714118
0.66607
0.63264
0.608149
0.58884
0.576137
0.569547
0.566081
0.564588
0.564491
0.568772
0.572584
0.573416
0.570736
0.552937
0.511268
0.440791
0.360402
0.296562
0.245696
0.197479
0.157834
0.134074
0.119803
0.10972
0.103394
0.106303
0.115233
0.126803
0.145699
0.175179
0.215054
0.260656
0.322196
0.392139
0.442239
0.479037
0.519639
0.542217
0.546034
0.554109
0.58452
0.620927
0.638769
0.633126
0.603973
0.585799
0.586838
0.605251
0.655801
0.699873
0.73563
0.766739
0.796583
0.823107
0.840382
0.846609
0.840559
0.814143
0.731463
0.604248
0.530062
0.51505
0.530045
0.612616
0.792432
0.907408
0.963271
0.986837
0.995719
0.998725
0.999639
0.999898
0.99997
0.999991
0.999997
0.999999
1
1
1
1
1
1
1
1
1
1
1
1
1
1
0.999999
0.999997
0.999984
0.999931
0.999706
0.998794
0.995191
0.981349
0.92958
0.756872
0.530319
0.352303
0.222861
0.134746
0.0781197
0.0435405
0.0233786
0.0121134
0.00606502
0.00293765
0.00137776
0.00062618
0.000275971
0.000118008
4.89855e-05
1.97477e-05
7.73452e-06
2.94427e-06
1.08969e-06
3.92246e-07
1.37371e-07
4.6823e-08
1.55386e-08
5.02239e-09
1.58168e-09
4.85521e-10
1.45327e-10
4.24332e-11
1.20909e-11
3.36338e-12
9.13795e-13
2.42628e-13
6.29864e-14
1.59926e-14
3.97284e-15
9.65907e-16
2.29906e-16
5.35881e-17
1.22349e-17
2.73687e-18
5.99954e-19
1.28908e-19
2.71525e-20
5.60756e-21
1.13559e-21
2.25525e-22
4.39259e-23
8.39141e-24
1.57233e-24
2.89007e-25
5.21127e-26
9.22175e-27
1.60221e-27
0.0145333
0.00109886
5.37851e-05
0.000294476
0.00303084
0.0187845
0.0804073
0.249836
0.556998
0.718547
0.764942
0.785428
0.800476
0.810984
0.815282
0.82025
0.824049
0.824008
0.82383
0.823923
0.823742
0.821544
0.815783
0.801998
0.77293
0.728223
0.674334
0.622972
0.591064
0.574268
0.560554
0.551534
0.548962
0.549557
0.552062
0.555934
0.56166
0.566956
0.568041
0.565649
0.551968
0.515926
0.449038
0.369961
0.304621
0.252867
0.205764
0.166441
0.140382
0.125406
0.114737
0.109478
0.110694
0.114934
0.124875
0.143986
0.172688
0.212337
0.258383
0.316772
0.386492
0.445029
0.476138
0.520189
0.575046
0.60621
0.612498
0.613787
0.635715
0.66687
0.676116
0.671752
0.653698
0.649594
0.66453
0.708142
0.752351
0.785192
0.812749
0.839769
0.868014
0.896449
0.921285
0.93711
0.937215
0.905879
0.765123
0.605268
0.539455
0.535912
0.581535
0.738181
0.876229
0.947165
0.979169
0.99235
0.99739
0.999183
0.999764
0.999936
0.999983
0.999996
0.999999
1
1
1
1
1
1
1
1
1
1
1
1
1
1
1
0.999999
0.999997
0.999986
0.999938
0.999727
0.998849
0.995289
0.98133
0.928275
0.751015
0.523376
0.34585
0.217615
0.130883
0.0754857
0.0418525
0.0223518
0.0115167
0.00573218
0.00275903
0.00128535
0.000580033
0.000253705
0.000107622
4.42978e-05
1.77e-05
6.86832e-06
2.58932e-06
9.48736e-07
3.37981e-07
1.1711e-07
3.94836e-08
1.2958e-08
4.14127e-09
1.28939e-09
3.91271e-10
1.1577e-10
3.34133e-11
9.41099e-12
2.58784e-12
6.95137e-13
1.82485e-13
4.68358e-14
1.17566e-14
2.88726e-15
6.93963e-16
1.63292e-16
3.76269e-17
8.49278e-18
1.87813e-18
4.07029e-19
8.64634e-20
1.80065e-20
3.67688e-21
7.36293e-22
1.44607e-22
2.78584e-23
5.26492e-24
9.76307e-25
1.7766e-25
3.1739e-26
5.57073e-27
0.0257836
0.00525228
0.000312164
6.2126e-05
0.00035077
0.00318683
0.0184558
0.0746659
0.225302
0.511095
0.709304
0.770326
0.796339
0.812274
0.823944
0.833479
0.841976
0.84493
0.843992
0.840562
0.836244
0.830887
0.821033
0.806681
0.778741
0.734546
0.68026
0.625576
0.58826
0.568343
0.554658
0.543916
0.537825
0.535092
0.535881
0.538879
0.544943
0.554598
0.560666
0.560265
0.552765
0.532424
0.48287
0.402381
0.333966
0.27969
0.232798
0.194135
0.163877
0.146943
0.133908
0.129591
0.131421
0.13768
0.151239
0.180259
0.213059
0.246037
0.298545
0.352737
0.400424
0.446535
0.486213
0.529119
0.592054
0.639409
0.64755
0.646239
0.651613
0.672207
0.684975
0.687334
0.686133
0.686594
0.691037
0.711552
0.750235
0.775614
0.789848
0.805953
0.831907
0.870818
0.913522
0.944843
0.960191
0.961126
0.927744
0.76686
0.633811
0.603384
0.617412
0.725282
0.868306
0.943115
0.977192
0.991385
0.996914
0.998949
0.99966
0.999896
0.99997
0.999992
0.999998
0.999999
1
1
1
1
1
1
1
1
1
1
1
1
1
1
1
0.999999
0.999997
0.999987
0.999937
0.999716
0.998769
0.994849
0.979224
0.919155
0.727259
0.502399
0.32939
0.205686
0.122804
0.0703191
0.0387087
0.020522
0.0104941
0.00518224
0.00247385
0.00114259
0.00051097
0.000221396
9.29954e-05
3.78872e-05
1.49784e-05
5.74869e-06
2.14283e-06
7.76074e-07
2.7321e-07
9.35303e-08
3.11502e-08
1.00975e-08
3.18721e-09
9.80039e-10
2.93706e-10
8.58252e-11
2.4465e-11
6.80644e-12
1.84914e-12
4.90766e-13
1.27296e-13
3.22822e-14
8.00717e-15
1.94319e-15
4.61547e-16
1.07329e-16
2.44423e-17
5.45271e-18
1.19189e-18
2.55334e-19
5.36203e-20
1.10402e-20
2.22914e-21
4.41447e-22
8.57599e-23
1.63463e-23
3.05775e-24
5.61451e-25
1.01241e-25
1.79456e-26
0.0322306
0.0140431
0.00434836
0.000484454
0.000134145
0.000375171
0.00254679
0.0146899
0.0591009
0.17862