/*--------------------------------*- C++ -*----------------------------------*\
  =========                 |
  \\      /  F ield         | OpenFOAM: The Open Source CFD Toolbox
   \\    /   O peration     | Website:  https://openfoam.org
    \\  /    A nd           | Version:  7
     \\/     M anipulation  |
\*---------------------------------------------------------------------------*/
FoamFile
{
    version     2.0;
    format      ascii;
    class       volVectorField;
    location    "0.046";
    object      U;
}
// * * * * * * * * * * * * * * * * * * * * * * * * * * * * * * * * * * * * * //

dimensions      [0 1 -1 0 0 0 0];

internalField   nonuniform List<vector> 
12225
(
(4.80268 0.114991 0)
(4.26 0.107849 0)
(3.80683 0.110579 0)
(3.40713 0.093887 0)
(3.01321 0.0773128 0)
(2.64225 0.0638997 0)
(2.31047 0.0544572 0)
(2.00974 0.0493609 0)
(1.72797 0.0456598 0)
(1.46544 0.0391978 0)
(1.22877 0.0299942 0)
(1.02881 0.0203238 0)
(0.863954 0.0119593 0)
(0.737261 0.0058823 0)
(0.626799 0.00256952 0)
(0.543471 0.00188415 0)
(0.444146 0.00209702 0)
(0.377693 -0.00883237 0)
(5.00712 0.12253 0)
(4.84327 0.0635699 0)
(4.77045 0.081851 0)
(4.71752 0.0962236 0)
(4.6064 0.107976 0)
(4.44877 0.110833 0)
(4.28395 0.107674 0)
(4.12879 0.105206 0)
(3.97547 0.105581 0)
(3.81694 0.106181 0)
(3.65125 0.103289 0)
(3.4935 0.0952013 0)
(3.34396 0.0842289 0)
(3.21401 0.0748807 0)
(3.08056 0.0703794 0)
(2.94921 0.068207 0)
(2.80459 0.0713837 0)
(2.66146 0.0612727 0)
(5.05935 0.133803 0)
(4.9347 0.111414 0)
(4.84676 0.12431 0)
(4.81429 0.132901 0)
(4.78878 0.14476 0)
(4.74396 0.148539 0)
(4.6853 0.141882 0)
(4.6289 0.134726 0)
(4.584 0.134167 0)
(4.54865 0.138216 0)
(4.51274 0.13909 0)
(4.47013 0.1316 0)
(4.41913 0.118294 0)
(4.36201 0.106367 0)
(4.30284 0.103132 0)
(4.23656 0.106653 0)
(4.17287 0.116026 0)
(4.09032 0.124761 0)
(4.96416 0.17599 0)
(4.87221 0.114881 0)
(4.82183 0.118269 0)
(4.8137 0.127421 0)
(4.81629 0.139839 0)
(4.80215 0.147515 0)
(4.76431 0.145378 0)
(4.71668 0.138767 0)
(4.68172 0.134316 0)
(4.67095 0.133041 0)
(4.67966 0.131388 0)
(4.69237 0.126645 0)
(4.69775 0.11984 0)
(4.68812 0.114392 0)
(4.66918 0.115683 0)
(4.64147 0.122076 0)
(4.61666 0.133891 0)
(4.58438 0.14639 0)
(5.01392 0.190042 0)
(4.92733 0.119422 0)
(4.88794 0.107762 0)
(4.87748 0.122901 0)
(4.85899 0.146181 0)
(4.82302 0.163527 0)
(4.77859 0.16642 0)
(4.74301 0.157654 0)
(4.73008 0.14484 0)
(4.74106 0.133864 0)
(4.76614 0.126402 0)
(4.78883 0.121395 0)
(4.79731 0.118709 0)
(4.78616 0.118862 0)
(4.76157 0.124024 0)
(4.73146 0.133034 0)
(4.70513 0.145006 0)
(4.68412 0.157947 0)
(5.16629 0.248498 0)
(5.08186 0.161633 0)
(4.96038 0.134839 0)
(4.86 0.14337 0)
(4.80735 0.162281 0)
(4.78066 0.175553 0)
(4.7599 0.172503 0)
(4.74502 0.155369 0)
(4.74273 0.135036 0)
(4.75417 0.121078 0)
(4.77266 0.116505 0)
(4.78656 0.119129 0)
(4.78774 0.12586 0)
(4.77448 0.134076 0)
(4.7526 0.142881 0)
(4.72936 0.151528 0)
(4.71087 0.159209 0)
(4.69849 0.167057 0)
(5.05407 0.259668 0)
(4.9993 0.172749 0)
(4.96578 0.153184 0)
(4.92162 0.162891 0)
(4.88135 0.177943 0)
(4.85193 0.18772 0)
(4.83057 0.183283 0)
(4.81487 0.164612 0)
(4.80355 0.140536 0)
(4.79663 0.12117 0)
(4.79432 0.112079 0)
(4.7948 0.113253 0)
(4.79548 0.121541 0)
(4.79414 0.132906 0)
(4.7902 0.144325 0)
(4.78356 0.154207 0)
(4.77537 0.161914 0)
(4.76489 0.168765 0)
(5.07117 0.28016 0)
(5.0024 0.190154 0)
(4.91975 0.160204 0)
(4.85817 0.170993 0)
(4.8323 0.188739 0)
(4.83298 0.195557 0)
(4.84326 0.185024 0)
(4.85397 0.162016 0)
(4.86115 0.138023 0)
(4.86322 0.122277 0)
(4.86006 0.11721 0)
(4.85159 0.120539 0)
(4.83925 0.128911 0)
(4.82452 0.139525 0)
(4.80969 0.150347 0)
(4.79545 0.160669 0)
(4.78321 0.169771 0)
(4.77221 0.178034 0)
(4.98552 0.258506 0)
(4.96108 0.22782 0)
(4.88615 0.199206 0)
(4.85684 0.18253 0)
(4.88109 0.179205 0)
(4.92694 0.18076 0)
(4.96072 0.175632 0)
(4.96574 0.159892 0)
(4.94468 0.140353 0)
(4.91144 0.125858 0)
(4.87982 0.120928 0)
(4.85623 0.125079 0)
(4.8411 0.135156 0)
(4.83187 0.147656 0)
(4.82703 0.15948 0)
(4.82381 0.169419 0)
(4.82298 0.176527 0)
(4.82068 0.181747 0)
(4.91865 0.216473 0)
(4.94975 0.208966 0)
(5.00402 0.192543 0)
(5.01555 0.172692 0)
(4.98578 0.169593 0)
(4.94704 0.174547 0)
(4.91973 0.175346 0)
(4.90469 0.169212 0)
(4.89477 0.159223 0)
(4.88507 0.149688 0)
(4.87522 0.143593 0)
(4.8667 0.141977 0)
(4.86096 0.144395 0)
(4.85867 0.149641 0)
(4.86023 0.156435 0)
(4.86355 0.163658 0)
(4.86866 0.171088 0)
(4.87123 0.17852 0)
(5.04551 0.257919 0)
(5.03322 0.208469 0)
(4.98077 0.185967 0)
(4.9223 0.186403 0)
(4.89495 0.196977 0)
(4.89633 0.19938 0)
(4.9058 0.189024 0)
(4.9082 0.171116 0)
(4.90141 0.15299 0)
(4.89158 0.140049 0)
(4.88492 0.134025 0)
(4.88327 0.134114 0)
(4.8857 0.1387 0)
(4.88978 0.145941 0)
(4.8947 0.15431 0)
(4.8993 0.162643 0)
(4.90376 0.170626 0)
(4.90779 0.178651 0)
(5.04726 0.219482 0)
(5.02173 0.225971 0)
(4.97158 0.21895 0)
(4.92811 0.202849 0)
(4.92217 0.189436 0)
(4.94253 0.183046 0)
(4.9603 0.179849 0)
(4.95973 0.174181 0)
(4.94362 0.164594 0)
(4.9222 0.153726 0)
(4.90343 0.145138 0)
(4.88929 0.141028 0)
(4.87917 0.141657 0)
(4.87187 0.145891 0)
(4.86745 0.15181 0)
(4.86628 0.15857 0)
(4.86788 0.165186 0)
(4.87298 0.173128 0)
(5.099 0.233171 0)
(5.06226 0.254519 0)
(4.97533 0.248059 0)
(4.94653 0.212529 0)
(4.96832 0.179688 0)
(4.99527 0.16773 0)
(4.99653 0.172425 0)
(4.97147 0.178486 0)
(4.93759 0.176295 0)
(4.9112 0.166983 0)
(4.89763 0.156674 0)
(4.89392 0.150234 0)
(4.89561 0.148985 0)
(4.89902 0.151793 0)
(4.90355 0.156116 0)
(4.90731 0.160867 0)
(4.91229 0.165057 0)
(4.91467 0.169866 0)
(5.02489 0.257138 0)
(4.96995 0.291627 0)
(4.99079 0.257029 0)
(5.02796 0.193563 0)
(5.03644 0.166885 0)
(5.01941 0.181153 0)
(4.99541 0.206265 0)
(4.97699 0.214375 0)
(4.96768 0.199731 0)
(4.96288 0.174068 0)
(4.95661 0.151589 0)
(4.94748 0.139229 0)
(4.93926 0.136734 0)
(4.93597 0.140172 0)
(4.94125 0.146093 0)
(4.95305 0.152664 0)
(4.97101 0.159514 0)
(4.98861 0.168124 0)
(5.00689 0.322918 0)
(5.01741 0.276942 0)
(5.02761 0.223083 0)
(5.00703 0.190987 0)
(4.976 0.179185 0)
(4.96824 0.182236 0)
(4.98449 0.18944 0)
(5.00442 0.190778 0)
(5.01243 0.186058 0)
(5.00474 0.180629 0)
(4.98627 0.176608 0)
(4.96556 0.171528 0)
(4.95021 0.162895 0)
(4.94357 0.150594 0)
(4.9455 0.137306 0)
(4.95409 0.126914 0)
(4.96682 0.121763 0)
(4.98215 0.125515 0)
(5.0061 0.306622 0)
(5.03856 0.297786 0)
(5.01624 0.2691 0)
(4.99572 0.23314 0)
(4.98017 0.200742 0)
(4.98025 0.184338 0)
(4.99155 0.185971 0)
(5.0021 0.194536 0)
(5.00924 0.198881 0)
(5.0163 0.194611 0)
(5.02597 0.183139 0)
(5.03802 0.168475 0)
(5.05024 0.154555 0)
(5.05941 0.143583 0)
(5.0633 0.136035 0)
(5.06212 0.132338 0)
(5.05733 0.132126 0)
(5.05153 0.136911 0)
(5.02382 0.306758 0)
(5.00998 0.284222 0)
(4.98826 0.251365 0)
(4.97788 0.208328 0)
(4.966 0.173577 0)
(4.96785 0.158604 0)
(4.98936 0.159833 0)
(5.02059 0.16632 0)
(5.05185 0.168539 0)
(5.07584 0.163468 0)
(5.08748 0.15404 0)
(5.08632 0.144887 0)
(5.0767 0.138598 0)
(5.06406 0.135516 0)
(5.05238 0.134038 0)
(5.04363 0.133878 0)
(5.03818 0.134189 0)
(5.0361 0.136673 0)
(4.98974 0.291958 0)
(5.00383 0.317839 0)
(5.00015 0.310821 0)
(5.00548 0.277729 0)
(4.99889 0.228058 0)
(4.9928 0.17199 0)
(4.99712 0.127728 0)
(5.00911 0.1096 0)
(5.0241 0.11775 0)
(5.03856 0.14129 0)
(5.05021 0.166891 0)
(5.05826 0.184896 0)
(5.06388 0.190981 0)
(5.06839 0.186254 0)
(5.07322 0.174706 0)
(5.07797 0.161794 0)
(5.0835 0.150899 0)
(5.08795 0.145259 0)
(4.92966 0.251101 0)
(4.93748 0.238822 0)
(4.94733 0.233625 0)
(4.99069 0.205116 0)
(5.03576 0.171191 0)
(5.0626 0.147494 0)
(5.07475 0.135706 0)
(5.07711 0.130976 0)
(5.07399 0.127737 0)
(5.07171 0.123648 0)
(5.07557 0.119054 0)
(5.08681 0.114624 0)
(5.104 0.110304 0)
(5.12434 0.106256 0)
(5.14526 0.102782 0)
(5.1642 0.100813 0)
(5.18062 0.100334 0)
(5.19333 0.102056 0)
(4.97801 0.305289 0)
(5.00933 0.275696 0)
(5.04633 0.212042 0)
(5.07821 0.162011 0)
(5.0861 0.132264 0)
(5.08341 0.117188 0)
(5.09079 0.11303 0)
(5.10872 0.117675 0)
(5.12705 0.126695 0)
(5.14065 0.133478 0)
(5.15021 0.132714 0)
(5.15821 0.123538 0)
(5.16683 0.108972 0)
(5.17766 0.0943877 0)
(5.19041 0.0843212 0)
(5.20321 0.0805803 0)
(5.21429 0.0827018 0)
(5.22189 0.0879301 0)
(4.89705 0.266279 0)
(4.96215 0.19628 0)
(4.99716 0.148908 0)
(5.03375 0.151548 0)
(5.05756 0.146323 0)
(5.06686 0.119588 0)
(5.06988 0.0897481 0)
(5.07478 0.0751607 0)
(5.08647 0.0787437 0)
(5.10685 0.0898905 0)
(5.13386 0.0956789 0)
(5.16239 0.0902665 0)
(5.18811 0.0761449 0)
(5.20905 0.0604005 0)
(5.22563 0.0501067 0)
(5.23828 0.0483024 0)
(5.24846 0.0550142 0)
(5.25619 0.0666996 0)
(5.02715 0.306913 0)
(5.04841 0.179966 0)
(5.02996 0.121847 0)
(5.04199 0.113886 0)
(5.07001 0.117971 0)
(5.09314 0.119928 0)
(5.10547 0.115403 0)
(5.11417 0.103779 0)
(5.12815 0.0888172 0)
(5.15148 0.0744706 0)
(5.18225 0.061909 0)
(5.21448 0.0512884 0)
(5.24281 0.0432319 0)
(5.26437 0.0390119 0)
(5.27944 0.0398754 0)
(5.28939 0.0457807 0)
(5.2968 0.0558119 0)
(5.30344 0.0677101 0)
(5.01808 0.264552 0)
(5.05389 0.217649 0)
(5.05247 0.150738 0)
(5.05819 0.107912 0)
(5.07054 0.089081 0)
(5.09057 0.0745363 0)
(5.11425 0.057511 0)
(5.13958 0.0407811 0)
(5.16627 0.0278485 0)
(5.19378 0.0191534 0)
(5.22112 0.0131815 0)
(5.24685 0.00841866 0)
(5.26981 0.00543836 0)
(5.28974 0.00594173 0)
(5.30719 0.0106675 0)
(5.32233 0.0186247 0)
(5.33572 0.0283527 0)
(5.3472 0.0372897 0)
(4.90292 0.285548 0)
(4.98046 0.162248 0)
(5.06311 0.11283 0)
(5.12687 0.106479 0)
(5.16127 0.105375 0)
(5.18327 0.0974537 0)
(5.20137 0.0820672 0)
(5.21813 0.0621115 0)
(5.23559 0.0418317 0)
(5.25475 0.0239875 0)
(5.2744 0.00971213 0)
(5.29292 -2.16481e-05 0)
(5.31053 -0.00486532 0)
(5.32722 -0.00445231 0)
(5.3428 0.00176055 0)
(5.35717 0.0125505 0)
(5.37041 0.0264478 0)
(5.38257 0.0409659 0)
(5.00906 0.275564 0)
(5.01145 0.129676 0)
(5.0645 0.0621127 0)
(5.13074 0.0450345 0)
(5.18213 0.0402601 0)
(5.22781 0.0321138 0)
(5.27426 0.0182259 0)
(5.3167 0.00329501 0)
(5.34672 -0.00818627 0)
(5.36155 -0.0160144 0)
(5.36657 -0.0227414 0)
(5.36823 -0.0281441 0)
(5.37013 -0.0307216 0)
(5.37319 -0.0290569 0)
(5.37721 -0.0229519 0)
(5.38154 -0.0137635 0)
(5.38693 -0.00341436 0)
(5.39455 0.00518756 0)
(5.08349 0.267973 0)
(5.12344 0.118542 0)
(5.19693 0.0641641 0)
(5.24721 0.0555749 0)
(5.27528 0.054358 0)
(5.30057 0.0440714 0)
(5.32417 0.0278013 0)
(5.34282 0.0152589 0)
(5.35768 0.00939849 0)
(5.3712 0.00740707 0)
(5.38494 0.00408641 0)
(5.39827 -0.00224277 0)
(5.40978 -0.00849722 0)
(5.41882 -0.0105832 0)
(5.42738 -0.00686177 0)
(5.43759 0.00152548 0)
(5.45168 0.0123539 0)
(5.47007 0.0218069 0)
(5.03196 0.204925 0)
(5.1457 0.0490635 0)
(5.23097 0.0134876 0)
(5.29254 0.00781985 0)
(5.33837 -5.45717e-06 0)
(5.37875 -0.00872872 0)
(5.40826 -0.0138916 0)
(5.42608 -0.0175533 0)
(5.43892 -0.0239886 0)
(5.45137 -0.0330385 0)
(5.46288 -0.0412919 0)
(5.47152 -0.0460439 0)
(5.47723 -0.0463224 0)
(5.48203 -0.042815 0)
(5.49028 -0.0375537 0)
(5.50471 -0.0326412 0)
(5.52703 -0.0297216 0)
(5.55577 -0.0296711 0)
(5.00789 0.124433 0)
(5.1584 0.0456787 0)
(5.23999 0.0345237 0)
(5.2809 0.0171708 0)
(5.32132 0.00926445 0)
(5.36874 0.00643513 0)
(5.41438 0.00350305 0)
(5.4538 0.00030131 0)
(5.48741 -0.00255428 0)
(5.51551 -0.00569785 0)
(5.53755 -0.00897918 0)
(5.55441 -0.0125492 0)
(5.56892 -0.0164171 0)
(5.5844 -0.0204047 0)
(5.60358 -0.0240701 0)
(5.62665 -0.0270313 0)
(5.6528 -0.0290171 0)
(5.67887 -0.029884 0)
(4.97851 -0.00815022 0)
(5.15806 -0.0304373 0)
(5.31092 -0.00455342 0)
(5.36153 -0.0288859 0)
(5.38732 -0.0490544 0)
(5.42348 -0.0532273 0)
(5.46354 -0.0514323 0)
(5.49745 -0.0513009 0)
(5.52308 -0.0540983 0)
(5.5412 -0.0580483 0)
(5.55148 -0.0608491 0)
(5.55423 -0.0617412 0)
(5.5508 -0.0614657 0)
(5.54404 -0.0612838 0)
(5.5356 -0.0618056 0)
(5.52742 -0.0629872 0)
(5.51847 -0.0641353 0)
(5.50969 -0.0645299 0)
(4.91475 0.0932565 0)
(5.01313 -0.016752 0)
(5.00806 -0.012621 0)
(4.92357 -0.0138968 0)
(4.80416 -0.0192135 0)
(4.68032 -0.0223956 0)
(4.56606 -0.0227726 0)
(4.46003 -0.0220364 0)
(4.35713 -0.0209253 0)
(4.25526 -0.0193531 0)
(4.15591 -0.0172884 0)
(4.06196 -0.015565 0)
(3.9736 -0.0153178 0)
(3.88898 -0.0168618 0)
(3.80455 -0.0192573 0)
(3.72045 -0.0211493 0)
(3.63596 -0.0213495 0)
(3.55669 -0.0198835 0)
(-0.0153459 0.00752363 -1.00919e-20)
(0.0445204 -0.0772235 1.00165e-20)
(0.163875 -0.129695 0)
(0.29999 -0.151505 0)
(0.44405 -0.15774 0)
(0.59037 -0.157444 -9.72754e-21)
(0.736663 -0.154823 0)
(0.88213 -0.151418 0)
(1.02648 -0.147484 0)
(1.1693 -0.142699 0)
(1.30951 -0.136474 9.4423e-21)
(1.44533 -0.12813 0)
(1.57395 -0.116956 0)
(1.69209 -0.102168 0)
(1.79509 -0.0832654 0)
(1.87875 -0.0596766 9.1946e-21)
(1.93691 -0.0313933 0)
(1.96661 0.00188697 0)
(1.96101 0.0393922 0)
(1.91511 0.0801828 0)
(1.82684 0.12223 0)
(1.69683 0.161895 0)
(1.52555 0.199267 0)
(1.32591 0.223215 8.54487e-21)
(1.09163 0.244517 -8.45183e-21)
(0.867695 0.232292 8.36412e-21)
(0.620731 0.201751 8.28376e-21)
(0.377144 0.16414 0)
(0.339361 0.0271036 0)
(0.214935 -0.0641634 -8.07088e-21)
(0.153712 -0.120081 -8.01257e-21)
(0.332858 -0.232979 0)
(0.577619 -0.291726 0)
(0.67933 -0.548132 -7.79602e-21)
(0.672789 -0.651088 0)
(0.642679 -0.322482 0)
(0.330828 0.218759 7.62478e-21)
(-0.199671 0.424929 0)
(-0.699122 0.440963 7.47577e-21)
(-1.21623 0.451856 1.48574e-20)
(-1.71951 0.448049 0)
(-2.20233 0.43061 0)
(-2.65166 0.399736 0)
(-3.059 0.359037 0)
(-3.41815 0.312518 0)
(-3.7269 0.264241 1.48929e-20)
(-3.98555 0.217347 1.49155e-20)
(-4.19638 0.173758 1.49237e-20)
(-4.36273 0.134472 0)
(-4.48877 0.0998748 -1.48838e-20)
(-4.57891 0.070029 0)
(-4.63713 0.0447501 1.47593e-20)
(-4.66703 0.0236677 1.4665e-20)
(-4.67226 0.0063893 0)
(-4.65759 -0.0074689 0)
(-4.62624 -0.0184522 0)
(-4.58078 -0.0272198 1.40971e-20)
(-4.524 -0.0339861 0)
(-4.45825 -0.0389729 0)
(-4.38591 -0.0424774 0)
(-4.30864 -0.0446171 0)
(-4.22831 -0.0456814 0)
(-4.14609 -0.0458906 0)
(-4.06313 -0.0455119 0)
(-3.97993 -0.0448868 0)
(-3.89666 -0.0443064 -1.22755e-20)
(-3.81296 -0.0440964 0)
(-3.72798 -0.0444855 0)
(-3.64061 -0.0456072 1.16599e-20)
(-3.5496 -0.047458 1.14594e-20)
(-3.45386 -0.0498883 0)
(-3.35261 -0.0526388 -1.10657e-20)
(-3.24563 -0.0553928 1.08725e-20)
(-3.13326 -0.0578683 0)
(-3.01622 -0.0599318 -1.04929e-20)
(-2.89522 -0.0617062 0)
(-2.77032 -0.0635917 0)
(-2.64054 -0.0661479 9.93435e-21)
(-2.50387 -0.0698288 0)
(-2.35776 -0.0747103 -9.55936e-21)
(-2.2001 -0.0803921 0)
(-2.03004 -0.0860941 9.18167e-21)
(-1.84839 -0.0909263 8.99546e-21)
(-1.65752 -0.0941809 8.81389e-21)
(-1.46082 -0.0954688 1.72779e-20)
(-1.26201 -0.0947236 -1.6944e-20)
(-1.06451 -0.092213 0)
(-0.871205 -0.0883252 0)
(-0.684465 -0.0834895 0)
(-0.50592 -0.078099 -1.5781e-20)
(-0.336515 -0.0724158 -1.55299e-20)
(-0.176727 -0.0666269 1.5292e-20)
(-0.0274052 -0.0610319 0)
(0.111637 -0.0556375 -1.48464e-20)
(0.241301 -0.0503411 -1.46353e-20)
(0.361715 -0.0452351 -1.44332e-20)
(0.47304 -0.0403493 0)
(0.575547 -0.0357047 0)
(0.669558 -0.0313164 0)
(0.755432 -0.0271946 -1.3695e-20)
(0.833555 -0.0233441 0)
(0.904326 -0.019764 0)
(0.968148 -0.0164492 1.31918e-20)
(1.02542 -0.0133918 0)
(1.07653 -0.0105839 0)
(1.12185 -0.00801831 1.27142e-20)
(1.16177 -0.0056897 0)
(1.19665 -0.00359421 0)
(1.22687 -0.00172765 -1.22531e-20)
(1.25279 -8.40364e-05 -1.2102e-20)
(1.2748 0.00134359 0)
(1.29327 0.00256749 1.1803e-20)
(1.30859 0.00360426 0)
(1.3211 0.00446799 -1.15075e-20)
(1.33115 0.00518501 0)
(1.33905 0.00577534 -1.12151e-20)
(1.3451 0.00625219 -1.10699e-20)
(1.34951 0.0066496 0)
(1.3525 0.00697312 0)
(1.35424 0.00723816 0)
(1.35479 0.00748293 0)
(1.35432 0.00767571 0)
(1.35293 0.00777959 0)
(1.35073 0.00779625 0)
(1.3478 0.00773709 -9.93117e-21)
(1.34427 0.0076 9.7918e-21)
(1.34029 0.00738503 0)
(1.33597 0.00710248 0)
(1.33143 0.00676629 0)
(1.32678 0.00639174 0)
(1.32211 0.00599355 1.8211e-20)
(1.3175 0.00558373 0)
(1.313 0.0051731 -1.76719e-20)
(1.30866 0.00477279 1.74046e-20)
(1.3045 0.00439179 0)
(1.30053 0.00403396 0)
(1.29675 0.0036996 0)
(1.29317 0.0033882 -1.63499e-20)
(1.28977 0.00309799 -1.609e-20)
(1.28656 0.00282575 0)
(1.28351 0.00256995 -1.55747e-20)
(1.2806 0.00233101 -1.53193e-20)
(1.27779 0.00211112 1.50654e-20)
(1.27506 0.00191613 0)
(1.27242 0.00174345 0)
(1.26984 0.00159062 1.4313e-20)
(1.26732 0.00145543 0)
(1.26486 0.00133588 0)
(1.26244 0.0012309 0)
(1.26007 0.00113964 0)
(1.25774 0.00106187 -1.30888e-20)
(1.25543 0.00099841 -1.28483e-20)
(1.25313 0.000949395 0)
(1.25082 0.000913606 -1.23716e-20)
(1.24849 0.000889199 0)
(1.24612 0.000874341 0)
(1.2437 0.00086763 -1.1667e-20)
(1.24121 0.00086832 0)
(1.23863 0.000876661 -1.1204e-20)
(1.23597 0.000892785 0)
(1.23318 0.000918246 0)
(1.23026 0.000953338 -1.05191e-20)
(1.22712 0.00100171 0)
(1.22384 0.00106327 -1.00686e-20)
(1.22017 0.00114675 0)
(1.21632 0.00124974 0)
(1.2118 0.00139234 0)
(1.20708 0.001559 9.18111e-21)
(1.20117 0.00180362 0)
(1.19506 0.00207111 -8.74342e-21)
(1.18685 0.00250696 0)
(1.17831 0.00292858 0)
(1.16643 0.0037668 0)
(1.15306 0.00438379 0)
(1.13585 0.00619745 0)
(1.11099 0.00686519 0)
(1.08881 0.0114976 0)
(1.0309 0.0111886 1.40341e-20)
(1.01831 0.0251748 0)
(0.850224 0.0176858 0)
(0.0124694 -0.0669851 3.02892e-20)
(0.115898 -0.302872 -3.00558e-20)
(0.239778 -0.412212 0)
(0.363836 -0.447451 1.97476e-20)
(0.48825 -0.453346 0)
(0.614579 -0.450345 9.72329e-21)
(0.743705 -0.445702 -1.93563e-20)
(0.875981 -0.440982 -1.92391e-20)
(1.01117 -0.435426 0)
(1.14857 -0.427413 -1.90247e-20)
(1.28679 -0.414833 -9.43962e-21)
(1.42366 -0.395562 0)
(1.55639 -0.367355 0)
(1.68091 -0.328043 0)
(1.79314 -0.275964 0)
(1.887 -0.210418 -9.1929e-21)
(1.95874 -0.131369 0)
(2.00083 -0.0402727 1.82397e-20)
(2.01245 0.059762 0)
(1.99183 0.165143 0)
(1.93679 0.268965 -1.77508e-20)
(1.84901 0.367388 0)
(1.72834 0.449189 1.73464e-20)
(1.58862 0.516739 -8.53518e-21)
(1.41772 0.552345 8.4406e-21)
(1.25088 0.544988 -8.35178e-21)
(1.07049 0.594844 -8.27012e-21)
(0.958317 0.381331 0)
(0.803564 0.187752 0)
(0.654811 0.343514 8.06049e-21)
(0.808329 -0.00350288 -7.93927e-21)
(0.64333 -0.589813 0)
(0.34031 -0.259914 0)
(-0.134315 0.408875 7.80153e-21)
(-0.827871 0.709888 0)
(-1.36478 0.900576 0)
(-1.78248 1.06462 -7.59388e-21)
(-2.19226 1.12221 0)
(-2.57283 1.12496 7.60777e-21)
(-2.93816 1.09443 -1.47852e-20)
(-3.27509 1.03806 0)
(-3.57996 0.958758 0)
(-3.84961 0.864541 -2.98893e-20)
(-4.08335 0.760393 -2.9933e-20)
(-4.2826 0.653336 -2.99833e-20)
(-4.44935 0.548074 1.51631e-20)
(-4.58649 0.448476 -1.48909e-20)
(-4.69672 0.356528 -4.49501e-20)
(-4.78281 0.273161 3.00092e-20)
(-4.84679 0.198486 1.48707e-20)
(-4.8902 0.132313 0)
(-4.91432 0.0743325 -1.47507e-20)
(-4.9206 0.0241548 1.47997e-20)
(-4.91028 -0.0187649 0)
(-4.88358 -0.0549508 0)
(-4.8419 -0.0848779 0)
(-4.7876 -0.109194 -1.40904e-20)
(-4.72266 -0.128305 0)
(-4.64939 -0.142754 2.75055e-20)
(-4.56973 -0.153095 0)
(-4.48577 -0.159856 2.66797e-20)
(-4.39882 -0.163652 0)
(-4.31035 -0.165139 -2.58273e-20)
(-4.22115 -0.165079 0)
(-4.13185 -0.164346 2.49746e-20)
(-4.04249 -0.163825 -1.22826e-20)
(-3.95264 -0.164344 0)
(-3.8614 -0.166528 -2.37265e-20)
(-3.76746 -0.170708 -1.16558e-20)
(-3.66943 -0.176825 -1.14555e-20)
(-3.56608 -0.184419 0)
(-3.45663 -0.192718 -1.10752e-20)
(-3.34095 -0.200804 -1.0869e-20)
(-3.21968 -0.207859 0)
(-3.09405 -0.213513 1.04898e-20)
(-2.96527 -0.218184 -2.06286e-20)
(-2.83376 -0.223184 0)
(-2.69843 -0.230372 -9.93157e-21)
(-2.55666 -0.24134 0)
(-2.40504 -0.256439 2.87058e-20)
(-2.24063 -0.274355 0)
(-2.06216 -0.292507 -2.75702e-20)
(-1.87055 -0.307996 -8.99276e-21)
(-1.66871 -0.318543 8.83715e-21)
(-1.4607 -0.322958 1.73169e-20)
(-1.2509 -0.321055 -1.69767e-20)
(-1.04307 -0.313734 0)
(-0.840146 -0.302265 0)
(-0.644405 -0.287992 0)
(-0.457243 -0.272122 4.73564e-20)
(-0.279321 -0.255517 1.55281e-20)
(-0.111065 -0.238723 -1.52907e-20)
(0.0468013 -0.222472 0)
(0.194955 -0.206693 -1.48532e-20)
(0.334312 -0.191329 1.46312e-20)
(0.464832 -0.176535 1.44292e-20)
(0.586786 -0.162378 0)
(0.700494 -0.148903 0)
(0.806327 -0.136141 0)
(0.904698 -0.124108 1.3691e-20)
(0.996048 -0.112807 0)
(1.08083 -0.102228 -2.67082e-20)
(1.15948 -0.0923492 -3.95669e-20)
(1.23241 -0.0831437 2.60558e-20)
(1.30002 -0.074581 0)
(1.36263 -0.066632 1.27129e-20)
(1.42056 -0.0592716 0)
(1.4741 -0.0524813 2.48039e-20)
(1.5235 -0.0462489 -1.22507e-20)
(1.56904 -0.0405661 -1.20993e-20)
(1.611 -0.0354265 0)
(1.64967 -0.0308203 -3.5395e-20)
(1.68534 -0.0267301 2.33006e-20)
(1.71833 -0.0231331 1.15019e-20)
(1.74893 -0.0199937 0)
(1.77748 -0.017268 1.12091e-20)
(1.80423 -0.0149104 3.31928e-20)
(1.82947 -0.0128618 0)
(1.85342 -0.011069 2.15513e-20)
(1.87629 -0.00948225 2.12643e-20)
(1.89824 -0.00804606 2.09786e-20)
(1.91939 -0.00673768 0)
(1.93981 -0.00555444 0)
(1.95954 -0.00449436 0)
(1.97857 -0.00354668 -9.92476e-21)
(1.99692 -0.00271086 -9.78464e-21)
(2.01455 -0.00199381 0)
(2.03147 -0.00139479 -1.90161e-20)
(2.04767 -0.000907727 -1.87414e-20)
(2.06315 -0.000524451 0)
(2.07792 -0.000232795 -1.81961e-20)
(2.092 -1.83217e-05 -3.58519e-20)
(2.1054 0.000131281 1.7657e-20)
(2.11814 0.000228105 1.73899e-20)
(2.13026 0.000289119 0)
(2.14176 0.000330224 0)
(2.15267 0.000355287 0)
(2.163 0.000359641 1.63353e-20)
(2.17276 0.000348867 -1.60756e-20)
(2.18196 0.000345087 -3.16346e-20)
(2.1906 0.000367484 1.55605e-20)
(2.19865 0.000416367 -1.53053e-20)
(2.20613 0.000481907 -1.50516e-20)
(2.21304 0.000541368 0)
(2.2194 0.000591405 0)
(2.22522 0.000633614 1.42997e-20)
(2.23052 0.000668654 0)
(2.23532 0.000696331 0)
(2.23964 0.000716126 -2.7123e-20)
(2.24349 0.000730292 0)
(2.2469 0.000744905 -1.30767e-20)
(2.24989 0.000762436 1.28365e-20)
(2.25249 0.000783803 0)
(2.25471 0.0008113 -1.23603e-20)
(2.25658 0.000845332 0)
(2.25811 0.00088567 0)
(2.25933 0.000931449 1.16565e-20)
(2.26025 0.000983087 -2.28492e-20)
(2.26089 0.00104241 1.1194e-20)
(2.26125 0.00111122 0)
(2.26133 0.00119487 0)
(2.26117 0.00129569 -1.05099e-20)
(2.26071 0.00142517 0)
(2.26001 0.0015811 -1.006e-20)
(2.25895 0.00179004 0)
(2.25761 0.00203121 0)
(2.25576 0.00237477 0)
(2.25359 0.00274013 -9.17332e-21)
(2.25064 0.00332433 0)
(2.24722 0.00386643 8.73608e-21)
(2.24268 0.00492228 0)
(2.23718 0.00569162 0)
(2.23038 0.00775183 -1.61737e-20)
(2.22089 0.00872158 1.57433e-20)
(2.21125 0.013098 0)
(2.19278 0.013949 0)
(2.18142 0.0241007 0)
(2.13981 0.0236949 -4.20793e-20)
(2.13521 0.0490178 0)
(2.02977 0.0447198 2.63649e-20)
(0.0436871 -0.258433 2.60508e-23)
(0.155659 -0.562205 4.00989e-20)
(0.260658 -0.654059 0)
(0.358555 -0.673377 -3.95193e-20)
(0.457315 -0.677843 0)
(0.561565 -0.682597 0)
(0.672584 -0.688862 -4.69913e-23)
(0.790179 -0.694771 1.92363e-20)
(0.913778 -0.697848 1.91825e-20)
(1.04269 -0.695328 1.90227e-20)
(1.1756 -0.684013 0)
(1.31058 -0.66048 0)
(1.4442 -0.620859 -1.8837e-20)
(1.5722 -0.561145 -3.75256e-20)
(1.68853 -0.47835 3.73739e-20)
(1.78649 -0.371346 0)
(1.85918 -0.240292 3.7018e-20)
(1.89995 -0.0893364 -1.82436e-20)
(1.90419 0.0749751 0)
(1.86956 0.244697 3.61726e-20)
(1.79388 0.408858 1.77529e-20)
(1.68152 0.559778 -3.53672e-20)
(1.53908 0.684091 -1.73486e-20)
(1.38001 0.783146 0)
(1.21908 0.855588 3.40131e-20)
(1.05049 0.841233 3.35742e-20)
(0.875601 0.725629 0)
(0.672024 0.719975 3.27777e-20)
(0.445313 0.579232 0)
(0.368905 -0.109269 3.21629e-20)
(0.217929 -0.046331 1.59562e-20)
(-0.48412 0.647942 0)
(-1.12369 0.994469 0)
(-1.59034 1.24256 0)
(-2.03902 1.36825 0)
(-2.4003 1.49972 0)
(-2.71691 1.58579 0)
(-2.98631 1.60851 3.05511e-20)
(-3.22636 1.58263 -4.54587e-20)
(-3.44593 1.51449 0)
(-3.64858 1.41755 0)
(-3.83415 1.29614 0)
(-4.00406 1.16019 -4.74709e-22)
(-4.15748 1.01605 2.99156e-20)
(-4.29578 0.871683 6.03523e-20)
(-4.41875 0.732203 -6.04106e-20)
(-4.52726 0.601325 -3.03853e-20)
(-4.62115 0.480609 3.00451e-20)
(-4.70026 0.370424 2.84682e-22)
(-4.76358 0.270376 3.01994e-20)
(-4.81022 0.179696 0)
(-4.83946 0.097523 2.98931e-20)
(-4.85131 0.0233018 2.16366e-22)
(-4.84602 -0.0428952 0)
(-4.82381 -0.100736 0)
(-4.78578 -0.14989 -2.87813e-20)
(-4.73347 -0.190018 0)
(-4.66899 -0.22142 0)
(-4.5948 -0.244678 2.77142e-20)
(-4.51349 -0.260715 5.43647e-20)
(-4.42749 -0.270674 -2.6678e-20)
(-4.33888 -0.275719 0)
(-4.24922 -0.277039 2.58256e-20)
(-4.15953 -0.275868 0)
(-4.07032 -0.273541 2.50186e-20)
(-3.98162 -0.271584 2.45519e-20)
(-3.89301 -0.271528 -4.8301e-20)
(-3.8035 -0.274653 -2.37529e-20)
(-3.7116 -0.281655 0)
(-3.61556 -0.292433 4.58719e-20)
(-3.51383 -0.306063 0)
(-3.40547 -0.320955 6.6447e-20)
(-3.29044 -0.335208 4.35484e-20)
(-3.1698 -0.347097 4.27955e-20)
(-3.04547 -0.355748 -4.20544e-20)
(-2.91953 -0.361855 6.19502e-20)
(-2.79302 -0.367989 0)
(-2.66477 -0.378037 0)
(-2.53092 -0.395618 -3.91552e-20)
(-2.38598 -0.421902 -5.75579e-20)
(-2.22497 -0.454306 0)
(-2.04548 -0.487548 1.8386e-20)
(-1.84867 -0.515785 0)
(-1.6389 -0.534524 -5.30204e-20)
(-1.4222 -0.541779 7.73699e-23)
(-1.2047 -0.537485 -6.55407e-23)
(-0.991098 -0.523652 3.33261e-20)
(-0.784785 -0.502869 0)
(-0.587849 -0.47772 -3.2146e-20)
(-0.401228 -0.450297 3.59636e-23)
(-0.225042 -0.422014 0)
(-0.0594501 -0.3939 0)
(0.095306 -0.366938 0)
(0.240319 -0.34052 2.96868e-20)
(0.376368 -0.315062 0)
(0.503422 -0.290663 0)
(0.621771 -0.267421 0)
(0.731729 -0.245426 0)
(0.833653 -0.224748 0)
(0.927953 -0.20543 2.73913e-20)
(1.0151 -0.187472 0)
(1.0956 -0.170839 2.67046e-20)
(1.17004 -0.155456 2.63761e-20)
(1.23897 -0.141232 -2.60531e-20)
(1.30297 -0.128069 0)
(1.36254 -0.11588 -2.54206e-20)
(1.41814 -0.104595 0)
(1.47012 -0.0941696 -2.48024e-20)
(1.51875 -0.0845756 2.44975e-20)
(1.56427 -0.0758004 7.25931e-20)
(1.60687 -0.0678397 0)
(1.64674 -0.0606876 7.07957e-20)
(1.68409 -0.0543324 2.3306e-20)
(1.71916 -0.0487517 0)
(1.75221 -0.0439048 4.54276e-20)
(1.7835 -0.0397372 4.48429e-20)
(1.81332 -0.036181 -6.63889e-20)
(1.8419 -0.0331575 0)
(1.8695 -0.0305823 -2.15502e-20)
(1.89629 -0.028378 -2.12632e-20)
(1.92244 -0.0264726 -6.29357e-20)
(1.94805 -0.0247885 0)
(1.97318 -0.0232728 0)
(1.99787 -0.0218967 0)
(2.02211 -0.0206392 -1.98498e-20)
(2.04588 -0.0194841 0)
(2.06914 -0.0184198 0)
(2.09185 -0.0174408 1.90145e-20)
(2.11399 -0.0165424 1.87397e-20)
(2.13552 -0.0157185 0)
(2.15643 -0.0149618 0)
(2.1767 -0.0142635 3.58481e-20)
(2.19633 -0.013615 0)
(2.21532 -0.0130071 -3.47754e-20)
(2.23367 -0.0124275 -3.4244e-20)
(2.25139 -0.0118643 0)
(2.26849 -0.0113128 0)
(2.28497 -0.0107745 3.26664e-20)
(2.30082 -0.0102462 -2.07377e-25)
(2.31602 -0.00971529 -1.67858e-25)
(2.33059 -0.00917034 0)
(2.34456 -0.00860819 6.12117e-20)
(2.35794 -0.0080307 0)
(2.37069 -0.00745783 0)
(2.38282 -0.00689645 0)
(2.39431 -0.0063507 -2.85945e-20)
(2.40517 -0.00582378 0)
(2.41539 -0.00531639 5.52143e-20)
(2.42497 -0.00482671 2.71179e-20)
(2.4339 -0.00435412 0)
(2.44219 -0.00390367 2.61484e-20)
(2.44984 -0.00347657 0)
(2.45687 -0.00306924 0)
(2.46332 -0.00268363 7.4147e-20)
(2.4692 -0.00231866 -4.84875e-20)
(2.47455 -0.00197086 0)
(2.47938 -0.00163914 -4.66163e-20)
(2.48372 -0.00132139 2.28444e-20)
(2.4876 -0.00101349 0)
(2.49104 -0.000713484 0)
(2.49406 -0.000413425 0)
(2.49667 -0.00011199 6.30459e-20)
(2.49891 0.000209818 0)
(2.50076 0.000547851 2.01154e-20)
(2.50226 0.000946661 0)
(2.50336 0.00137554 0)
(2.50412 0.00194153 0)
(2.50439 0.00253046 0)
(2.50432 0.00341737 0)
(2.50355 0.00424972 0)
(2.50249 0.00575938 3.40711e-20)
(2.50017 0.00693023 0)
(2.49792 0.00972272 1.61699e-20)
(2.49298 0.0113091 -4.72238e-20)
(2.48942 0.0169183 0)
(2.47958 0.0189204 0)
(2.4752 0.0310349 2.89167e-20)
(2.45552 0.03339 2.80495e-20)
(2.453 0.0609361 -2.72167e-20)
(2.41474 0.0651983 -2.63565e-20)
(0.0545019 -0.488759 -6.06965e-20)
(0.147367 -0.779969 -6.02396e-20)
(0.226665 -0.837699 -3.98964e-20)
(0.303117 -0.856042 -1.98504e-20)
(0.384169 -0.874146 0)
(0.471586 -0.893939 3.91255e-20)
(0.565812 -0.913511 -1.94966e-20)
(0.667383 -0.931603 0)
(0.777044 -0.946283 -1.91833e-20)
(0.894828 -0.954045 0)
(1.01964 -0.950041 3.81626e-20)
(1.14939 -0.928316 0)
(1.28014 -0.882281 1.88385e-20)
(1.40663 -0.804841 3.753e-20)
(1.52107 -0.690797 -3.73805e-20)
(1.61482 -0.537404 0)
(1.67931 -0.345563 -3.70304e-20)
(1.7081 -0.122507 0)
(1.69496 0.120366 0)
(1.63988 0.368292 -3.6183e-20)
(1.54098 0.603761 0)
(1.40093 0.810132 -3.32857e-22)
(1.23032 0.971111 0)
(1.03871 1.07356 0)
(0.834162 1.12018 2.07945e-22)
(0.60627 1.16546 -3.35958e-20)
(0.359095 1.22042 -3.33383e-20)
(0.183283 1.03322 -3.28014e-20)
(0.126675 0.61298 0)
(-0.36204 0.818925 -6.43868e-20)
(-0.997611 1.27202 0)
(-1.50576 1.53709 -3.17063e-20)
(-1.91296 1.69418 0)
(-2.24538 1.81829 0)
(-2.53045 1.88591 3.12071e-20)
(-2.7739 1.93762 0)
(-2.98913 1.9501 -3.099e-20)
(-3.18316 1.93231 3.91215e-22)
(-3.36034 1.87727 6.12824e-20)
(-3.52261 1.78919 -6.1646e-20)
(-3.66996 1.67158 0)
(-3.80229 1.52974 0)
(-3.92083 1.37213 -3.12759e-20)
(-4.02644 1.20673 0)
(-4.12214 1.04169 -3.0384e-20)
(-4.21003 0.882423 3.0398e-20)
(-4.29235 0.732388 3.03939e-20)
(-4.36932 0.592862 0)
(-4.44023 0.463703 -3.03058e-20)
(-4.50323 0.343877 -3.02115e-20)
(-4.55622 0.232052 6.07671e-20)
(-4.5968 0.127368 -2.99058e-20)
(-4.62235 0.0298047 -2.96916e-20)
(-4.63099 -0.0598774 0)
(-4.6224 -0.140786 0)
(-4.59676 -0.211326 2.87899e-20)
(-4.5552 -0.270467 0)
(-4.49956 -0.317558 0)
(-4.43206 -0.35258 -5.52273e-20)
(-4.35531 -0.376326 -5.43723e-20)
(-4.27195 -0.390252 0)
(-4.18455 -0.396356 0)
(-4.09516 -0.396774 0)
(-4.00525 -0.393679 0)
(-3.91558 -0.389212 -4.99974e-20)
(-3.82636 -0.385571 4.91842e-20)
(-3.73739 -0.384925 4.83065e-20)
(-3.64806 -0.389107 9.4997e-20)
(-3.5574 -0.399198 0)
(-3.46416 -0.415114 3.95505e-23)
(-3.36715 -0.435375 0)
(-3.26572 -0.457314 -4.43145e-20)
(-3.15998 -0.477734 6.20544e-23)
(-3.051 -0.493758 -4.27953e-20)
(-2.94077 -0.503856 4.20531e-20)
(-2.83154 -0.509036 9.61603e-23)
(-2.72436 -0.513609 0)
(-2.61744 -0.524527 4.00176e-20)
(-2.50491 -0.548745 3.91484e-20)
(-2.37762 -0.589116 7.6988e-20)
(-2.22702 -0.641305 0)
(-2.04887 -0.69578 -3.70526e-20)
(-1.8448 -0.741829 0)
(-1.6217 -0.771229 7.08683e-20)
(-1.38906 -0.78114 -3.46461e-20)
(-1.15624 -0.772328 3.39627e-20)
(-0.929889 -0.748974 -3.33176e-20)
(-0.714528 -0.715804 -6.55643e-20)
(-0.512179 -0.677342 3.21398e-20)
(-0.323021 -0.63665 -3.16021e-20)
(-0.14633 -0.595736 0)