/*--------------------------------*- C++ -*----------------------------------*\
  =========                 |
  \\      /  F ield         | OpenFOAM: The Open Source CFD Toolbox
   \\    /   O peration     | Website:  https://openfoam.org
    \\  /    A nd           | Version:  7
     \\/     M anipulation  |
\*---------------------------------------------------------------------------*/
FoamFile
{
    version     2.0;
    format      ascii;
    class       volVectorField;
    location    "0.046";
    object      UMean;
}
// * * * * * * * * * * * * * * * * * * * * * * * * * * * * * * * * * * * * * //

dimensions      [0 1 -1 0 0 0 0];

internalField   nonuniform List<vector> 
12225
(
(4.78018 0.164375 0)
(4.18938 0.111281 0)
(3.73189 0.0975131 0)
(3.36724 0.0805343 0)
(3.04228 0.066895 0)
(2.74298 0.0567998 0)
(2.47006 0.0479744 0)
(2.22738 0.039722 0)
(2.01872 0.0309267 0)
(1.8436 0.0233859 0)
(1.70423 0.0148087 0)
(1.59367 0.0101061 0)
(1.51613 0.00121186 0)
(1.45789 0.00267426 0)
(1.4268 -0.0111705 0)
(1.40908 0.00306127 0)
(1.41301 -0.0309431 0)
(1.44051 0.00177444 0)
(5.02055 0.112305 0)
(4.87801 0.0725858 0)
(4.76302 0.0883065 0)
(4.67575 0.0872662 0)
(4.58611 0.0849308 0)
(4.487 0.0842498 0)
(4.38019 0.0834009 0)
(4.27163 0.0802581 0)
(4.16361 0.075626 0)
(4.06196 0.0679734 0)
(3.96494 0.0606468 0)
(3.88034 0.0498158 0)
(3.79991 0.0430347 0)
(3.73792 0.0300347 0)
(3.67389 0.0271424 0)
(3.63747 0.00922631 0)
(3.58954 0.00781121 0)
(3.57662 -0.0303387 0)
(4.9973 0.172006 0)
(4.88005 0.121708 0)
(4.80258 0.129113 0)
(4.77276 0.122811 0)
(4.7587 0.114578 0)
(4.74523 0.109917 0)
(4.73014 0.106341 0)
(4.71405 0.102227 0)
(4.69729 0.0956186 0)
(4.67924 0.0881687 0)
(4.66035 0.0777149 0)
(4.64024 0.0688812 0)
(4.62109 0.0562502 0)
(4.60182 0.049084 0)
(4.58669 0.0345911 0)
(4.57186 0.0284381 0)
(4.56487 0.00779472 0)
(4.55393 -0.0145443 0)
(4.99669 0.188435 0)
(4.90304 0.119281 0)
(4.82734 0.117232 0)
(4.79357 0.112214 0)
(4.78136 0.10401 0)
(4.7751 0.0984604 0)
(4.77152 0.0952015 0)
(4.77119 0.0914422 0)
(4.77392 0.0864195 0)
(4.77848 0.0793231 0)
(4.78366 0.0715702 0)
(4.78854 0.0621134 0)
(4.79351 0.0534086 0)
(4.79819 0.0428325 0)
(4.80489 0.0335765 0)
(4.81153 0.0206649 0)
(4.82285 0.00538781 0)
(4.83019 -0.0167265 0)
(4.99671 0.213366 0)
(4.92659 0.14293 0)
(4.85903 0.133434 0)
(4.82341 0.128092 0)
(4.80933 0.118022 0)
(4.80242 0.109204 0)
(4.7984 0.102753 0)
(4.79754 0.0969736 0)
(4.80024 0.0900853 0)
(4.80549 0.0821919 0)
(4.81236 0.0729737 0)
(4.81978 0.0634886 0)
(4.828 0.0530369 0)
(4.83668 0.0426056 0)
(4.84701 0.0309436 0)
(4.85818 0.0174251 0)
(4.87135 0.00116631 0)
(4.88251 -0.022558 0)
(4.98998 0.228664 0)
(4.9375 0.156727 0)
(4.87905 0.138216 0)
(4.84446 0.130629 0)
(4.83056 0.119453 0)
(4.82488 0.108528 0)
(4.82189 0.100131 0)
(4.82129 0.0929948 0)
(4.82367 0.0855795 0)
(4.82849 0.0771347 0)
(4.83499 0.0678285 0)
(4.84225 0.0577471 0)
(4.85037 0.047187 0)
(4.85895 0.0359116 0)
(4.86889 0.0236161 0)
(4.87918 0.00948611 0)
(4.89055 -0.00771315 0)
(4.89976 -0.0291016 0)
(4.99555 0.244342 0)
(4.95762 0.174179 0)
(4.90804 0.14845 0)
(4.87412 0.137632 0)
(4.85867 0.125468 0)
(4.85243 0.113017 0)
(4.84934 0.102614 0)
(4.84831 0.0938807 0)
(4.84985 0.0853413 0)
(4.8538 0.0761752 0)
(4.85956 0.0662665 0)
(4.86626 0.055709 0)
(4.87382 0.0445954 0)
(4.88173 0.0326428 0)
(4.89058 0.0197291 0)
(4.89922 0.0049112 0)
(4.9084 -0.0120513 0)
(4.915 -0.032114 0)
(5.00124 0.253372 0)
(4.9748 0.187699 0)
(4.93479 0.156998 0)
(4.90418 0.142513 0)
(4.889 0.129341 0)
(4.88308 0.115734 0)
(4.88048 0.10362 0)
(4.87948 0.0932537 0)
(4.88048 0.0835818 0)
(4.88356 0.0736313 0)
(4.88844 0.0630945 0)
(4.89429 0.0519628 0)
(4.90101 0.0402807 0)
(4.90796 0.0278434 0)
(4.91565 0.0144259 0)
(4.92279 -0.000502179 0)
(4.93021 -0.0171109 0)
(4.93491 -0.0358176 0)
(5.00262 0.261395 0)
(4.98545 0.200336 0)
(4.95446 0.165965 0)
(4.92806 0.147507 0)
(4.91372 0.132926 0)
(4.90799 0.118461 0)
(4.90576 0.105047 0)
(4.90499 0.0932512 0)
(4.90588 0.0824364 0)
(4.90864 0.0717059 0)
(4.91316 0.0606022 0)
(4.91869 0.0489572 0)
(4.92501 0.0367986 0)
(4.93138 0.0239418 0)
(4.93814 0.0102655 0)
(4.94411 -0.00460047 0)
(4.95 -0.020657 0)
(4.95341 -0.0380357 0)
(4.99652 0.267802 0)
(4.98709 0.211354 0)
(4.96338 0.175095 0)
(4.94045 0.153305 0)
(4.92687 0.136982 0)
(4.92155 0.121599 0)
(4.9203 0.107076 0)
(4.92064 0.0939483 0)
(4.92225 0.0819026 0)
(4.92527 0.0702209 0)
(4.92966 0.0584044 0)
(4.93488 0.0462358 0)
(4.94066 0.0336588 0)
(4.94641 0.0205402 0)
(4.95223 0.00678168 0)
(4.95724 -0.00781619 0)
(4.96187 -0.0232042 0)
(4.96449 -0.0393433 0)
(4.98834 0.26979 0)
(4.98202 0.217989 0)
(4.96342 0.181178 0)
(4.94435 0.156796 0)
(4.93243 0.138466 0)
(4.92755 0.121941 0)
(4.92655 0.106428 0)
(4.92719 0.0922122 0)
(4.92893 0.07921 0)
(4.93178 0.0668311 0)
(4.93584 0.0545394 0)
(4.9406 0.0420405 0)
(4.94587 0.0292306 0)
(4.95095 0.0160218 0)
(4.95604 0.00235854 0)
(4.96014 -0.011854 0)
(4.96403 -0.0265228 0)
(4.96586 -0.0415632 0)
(5.00955 0.274826 0)
(5.00499 0.22648 0)
(4.98963 0.18938 0)
(4.97286 0.162861 0)
(4.9615 0.142635 0)
(4.9561 0.125046 0)
(4.9544 0.108715 0)
(4.95444 0.0935775 0)
(4.95559 0.0795662 0)
(4.95774 0.0663178 0)
(4.96099 0.0533931 0)
(4.96489 0.0404718 0)
(4.96934 0.0274072 0)
(4.9736 0.0141087 0)
(4.97793 0.000541351 0)
(4.98123 -0.0133272 0)
(4.98448 -0.027405 0)
(4.98569 -0.0415756 0)
(5.00123 0.277107 0)
(5.00084 0.230634 0)
(4.99047 0.193615 0)
(4.97784 0.165628 0)
(4.9689 0.143779 0)
(4.96466 0.125116 0)
(4.96367 0.108029 0)
(4.9644 0.0921295 0)
(4.96617 0.0773294 0)
(4.96875 0.0634005 0)
(4.97216 0.0499753 0)
(4.97601 0.0367414 0)
(4.98022 0.0235279 0)
(4.9841 0.0102351 0)
(4.98796 -0.00315014 0)
(4.99078 -0.0166297 0)
(4.99357 -0.0301126 0)
(4.99448 -0.0435001 0)
(5.01368 0.280236 0)
(5.01653 0.236979 0)
(5.0096 0.200427 0)
(4.99929 0.171346 0)
(4.99157 0.147999 0)
(4.9879 0.128021 0)
(4.98725 0.109852 0)
(4.98825 0.092939 0)
(4.99017 0.0772095 0)
(4.99262 0.0625125 0)
(4.99565 0.0485668 0)
(4.99896 0.0350492 0)
(5.00261 0.0217453 0)
(5.00596 0.00852919 0)
(5.00931 -0.00461573 0)
(5.01166 -0.0176899 0)
(5.014 -0.0306051 0)
(5.01457 -0.0432858 0)
(5.00759 0.277361 0)
(5.01275 0.237548 0)
(5.00915 0.202263 0)
(5.00269 0.172648 0)
(4.99835 0.147989 0)
(4.99708 0.126794 0)
(4.99792 0.107787 0)
(4.99982 0.0903009 0)
(5.00228 0.074051 0)
(5.00509 0.0588262 0)
(5.00831 0.0443875 0)
(5.01171 0.030509 0)
(5.0153 0.0170487 0)
(5.01858 0.0039243 0)
(5.02173 -0.00887819 0)
(5.02404 -0.0213728 0)
(5.02624 -0.0335189 0)
(5.02707 -0.0452901 0)
(5.00734 0.282002 0)
(5.01334 0.243286 0)
(5.012 0.208022 0)
(5.00829 0.177362 0)
(5.00633 0.151167 0)
(5.00671 0.128526 0)
(5.00857 0.108391 0)
(5.01117 0.0900177 0)
(5.01414 0.0730177 0)
(5.01725 0.0571763 0)
(5.02044 0.0423067 0)
(5.02354 0.0282308 0)
(5.02657 0.0147877 0)
(5.02921 0.00187604 0)
(5.03167 -0.0105794 0)
(5.03341 -0.0225845 0)
(5.0351 -0.0341754 0)
(5.03574 -0.0452849 0)
(5.00274 0.275787 0)
(5.00943 0.238703 0)
(5.01022 0.204188 0)
(5.00936 0.173505 0)
(5.01015 0.146805 0)
(5.01278 0.123508 0)
(5.01629 0.102825 0)
(5.02001 0.0840958 0)
(5.02369 0.0668836 0)
(5.02721 0.0509348 0)
(5.03062 0.0360692 0)
(5.03379 0.0221238 0)
(5.03684 0.00894118 0)
(5.03949 -0.00360103 0)
(5.042 -0.0155897 0)
(5.04383 -0.0270533 0)
(5.04567 -0.0380276 0)
(5.04648 -0.0484958 0)
(5.00916 0.28223 0)
(5.01607 0.242482 0)
(5.01831 0.206217 0)
(5.01964 0.173978 0)
(5.02281 0.145751 0)
(5.02758 0.121194 0)
(5.03285 0.0997429 0)
(5.03792 0.0807376 0)
(5.04263 0.0635727 0)
(5.04693 0.0478097 0)
(5.05091 0.0331625 0)
(5.05446 0.0194682 0)
(5.0577 0.00660399 0)
(5.06038 -0.00548807 0)
(5.06281 -0.0168979 0)
(5.06452 -0.0276403 0)
(5.06618 -0.0378296 0)
(5.06681 -0.0474234 0)
(5.00628 0.276412 0)
(5.01807 0.234822 0)
(5.02525 0.19692 0)
(5.03098 0.163537 0)
(5.03786 0.134705 0)
(5.04571 0.109815 0)
(5.05349 0.0880502 0)
(5.06061 0.0686838 0)
(5.06704 0.0512129 0)
(5.07282 0.0353279 0)
(5.07805 0.0208117 0)
(5.08261 0.00748292 0)
(5.08656 -0.00482542 0)
(5.08973 -0.0162499 0)
(5.09239 -0.0269125 0)
(5.09421 -0.0368966 0)
(5.09583 -0.0462928 0)
(5.09648 -0.0551414 0)
(5.00182 0.271722 0)
(5.01391 0.226286 0)
(5.0235 0.185323 0)
(5.03324 0.150426 0)
(5.04448 0.121422 0)
(5.05607 0.0972225 0)
(5.06661 0.0766394 0)
(5.07561 0.0587673 0)
(5.08333 0.0429888 0)
(5.09009 0.0288962 0)
(5.09612 0.0161915 0)
(5.10136 0.00465459 0)
(5.10591 -0.00591535 0)
(5.10962 -0.0156505 0)
(5.11275 -0.0247111 0)
(5.11503 -0.0331646 0)
(5.117 -0.0411627 0)
(5.11803 -0.0486938 0)
(4.99961 0.270084 0)
(5.01388 0.216871 0)
(5.02784 0.171906 0)
(5.04311 0.135361 0)
(5.05951 0.105723 0)
(5.07523 0.0810616 0)
(5.08905 0.0598964 0)
(5.1008 0.0414291 0)
(5.11087 0.0252623 0)
(5.11952 0.0110928 0)
(5.12692 -0.00140087 0)
(5.13304 -0.0125182 0)
(5.13809 -0.0225134 0)
(5.14204 -0.031578 0)
(5.14528 -0.0398861 0)
(5.14756 -0.0475682 0)
(5.14953 -0.0547456 0)
(5.15048 -0.061494 0)
(5.01209 0.26487 0)
(5.03082 0.202032 0)
(5.05147 0.153449 0)
(5.07305 0.117759 0)
(5.09371 0.0912 0)
(5.11162 0.0701787 0)
(5.12653 0.0524702 0)
(5.13925 0.0371184 0)
(5.15054 0.0237595 0)
(5.16052 0.0121053 0)
(5.16913 0.00180962 0)
(5.17625 -0.00743246 0)
(5.18206 -0.0158661 0)
(5.18661 -0.0236316 0)
(5.19032 -0.0308574 0)
(5.19303 -0.0375995 0)
(5.19534 -0.0439845 0)
(5.19663 -0.0500155 0)
(5.00188 0.258466 0)
(5.03016 0.184583 0)
(5.0622 0.130752 0)
(5.09344 0.0935123 0)
(5.12077 0.0659659 0)
(5.14286 0.04338 0)
(5.16038 0.0241464 0)
(5.1748 0.00818357 0)
(5.18711 -0.00471736 0)
(5.19757 -0.0152256 0)
(5.20629 -0.0241158 0)
(5.2133 -0.0319542 0)
(5.21893 -0.0390419 0)
(5.22329 -0.0455273 0)
(5.22682 -0.0515101 0)
(5.22932 -0.0570838 0)
(5.23134 -0.0623254 0)
(5.23231 -0.0673004 0)
(5.00652 0.243649 0)
(5.04478 0.162293 0)
(5.08823 0.112411 0)
(5.12642 0.0839671 0)
(5.15607 0.0642075 0)
(5.17868 0.0465841 0)
(5.19732 0.0305285 0)
(5.21386 0.0168467 0)
(5.22853 0.00565521 0)
(5.24091 -0.0036352 0)
(5.25092 -0.0116957 0)
(5.25881 -0.0189166 0)
(5.26513 -0.0254727 0)
(5.27009 -0.0314412 0)
(5.27412 -0.0369401 0)
(5.27706 -0.0420516 0)
(5.27945 -0.0469001 0)
(5.28077 -0.0514984 0)
(5.00683 0.226147 0)
(5.06136 0.124573 0)
(5.12317 0.0698943 0)
(5.17157 0.0414893 0)
(5.20418 0.0210097 0)
(5.22702 0.00295961 0)
(5.24574 -0.0115674 0)
(5.26233 -0.0220758 0)
(5.27675 -0.0297761 0)
(5.28861 -0.0361036 0)
(5.29809 -0.0417916 0)
(5.30562 -0.0470097 0)
(5.31176 -0.051763 0)
(5.31666 -0.0561039 0)
(5.32066 -0.0601261 0)
(5.32358 -0.0639305 0)
(5.32594 -0.0675739 0)
(5.32721 -0.0711072 0)
(5.01334 0.209569 0)
(5.0887 0.110389 0)
(5.16764 0.0747727 0)
(5.22234 0.0582018 0)
(5.2559 0.0397371 0)
(5.28024 0.0211677 0)
(5.30192 0.00647792 0)
(5.3214 -0.00387215 0)
(5.33758 -0.0115919 0)
(5.35022 -0.0181344 0)
(5.36002 -0.0240408 0)
(5.36773 -0.0293754 0)
(5.37394 -0.0341568 0)
(5.37883 -0.0384792 0)
(5.38271 -0.0424766 0)
(5.38548 -0.0462416 0)
(5.38762 -0.0498496 0)
(5.38872 -0.0533068 0)
(5.00605 0.159072 0)
(5.12006 0.0341038 0)
(5.21768 0.00589788 0)
(5.27263 -0.00398437 0)
(5.30286 -0.0184044 0)
(5.32665 -0.03102 0)
(5.34916 -0.0389718 0)
(5.36931 -0.0440552 0)
(5.38576 -0.0481756 0)
(5.39858 -0.051986 0)
(5.4087 -0.0554806 0)
(5.41685 -0.0586178 0)
(5.42356 -0.061441 0)
(5.42895 -0.0640635 0)
(5.43333 -0.0665511 0)
(5.43654 -0.0689722 0)
(5.4391 -0.0713305 0)
(5.44053 -0.0736609 0)
(5.01244 0.151051 0)
(5.17533 0.0565267 0)
(5.29755 0.0426949 0)
(5.356 0.026224 0)
(5.38733 0.00695465 0)
(5.41423 -0.00680385 0)
(5.43933 -0.0150128 0)
(5.46056 -0.0207636 0)
(5.47713 -0.0257537 0)
(5.48974 -0.0303181 0)
(5.4994 -0.0343918 0)
(5.50684 -0.0380309 0)
(5.51248 -0.0413025 0)
(5.51651 -0.0443432 0)
(5.51911 -0.0471614 0)
(5.52033 -0.0498731 0)
(5.52044 -0.0524369 0)
(5.51936 -0.0549788 0)
(5.01495 0.0200504 0)
(5.22793 -0.0511827 0)
(5.35298 -0.0344132 0)
(5.4048 -0.0431872 0)
(5.43303 -0.0534274 0)
(5.45492 -0.0580912 0)
(5.47088 -0.0599447 0)
(5.47936 -0.0613467 0)
(5.48044 -0.0627966 0)
(5.47545 -0.0641657 0)
(5.46563 -0.0653394 0)
(5.45216 -0.0663653 0)
(5.4355 -0.0672722 0)
(5.41645 -0.0681452 0)
(5.39491 -0.0689462 0)
(5.37191 -0.0697646 0)
(5.34667 -0.07053 0)
(5.32104 -0.0713926 0)
(4.96846 0.0685453 0)
(5.10394 -0.00162686 0)
(5.07428 -0.00159957 0)
(4.95827 -0.0117702 0)
(4.82909 -0.0193066 0)
(4.70346 -0.0222465 0)
(4.58142 -0.0233696 0)
(4.46113 -0.0241081 0)
(4.34215 -0.0246739 0)
(4.22522 -0.0250329 0)
(4.11111 -0.025206 0)
(4.00048 -0.0252582 0)
(3.8933 -0.0252316 0)
(3.78993 -0.0251631 0)
(3.68967 -0.0250467 0)
(3.59342 -0.0249265 0)
(3.49955 -0.0247813 0)
(3.4104 -0.0247195 0)
(0.00320313 -0.0181142 2.10414e-21)
(0.0246768 -0.039281 -2.09093e-21)
(0.0569533 -0.0462484 0)
(0.0886847 -0.0471092 0)
(0.119803 -0.0457741 0)
(0.14974 -0.043741 2.02446e-21)
(0.178427 -0.0415187 0)
(0.205817 -0.0392454 0)
(0.231908 -0.0368851 0)
(0.256546 -0.0343355 0)
(0.279418 -0.0314353 -1.92176e-21)
(0.299992 -0.0280008 0)
(0.317549 -0.0238284 0)
(0.331099 -0.0187331 0)
(0.339537 -0.012539 0)
(0.341459 -0.0051524 -1.80437e-21)
(0.335596 0.00349987 0)
(0.320376 0.0133655 0)
(0.294948 0.0243536 0)
(0.257439 0.0362134 0)
(0.207226 0.0483394 0)
(0.144244 0.0599996 0)
(0.0693833 0.0701082 0)
(-0.0157513 0.0775725 -1.67612e-21)
(-0.108622 0.0811486 1.66593e-21)
(-0.205997 0.0799779 -1.65512e-21)
(-0.305811 0.0751882 -1.64318e-21)
(-0.400904 0.0665243 0)
(-0.492042 0.0580915 0)
(-0.580566 0.0473025 1.59936e-21)
(-0.65504 0.0319025 1.58229e-21)
(-0.729305 0.0259116 0)
(-0.817608 0.0297504 0)
(-0.924286 0.047422 1.52177e-21)
(-1.04403 0.0844631 0)
(-1.17747 0.120168 0)
(-1.31633 0.129532 -1.45266e-21)
(-1.44403 0.119858 0)
(-1.55845 0.107262 -1.39754e-21)
(-1.65905 0.0942687 -2.73685e-21)
(-1.74576 0.0812976 0)
(-1.81846 0.0685094 0)
(-1.87725 0.0560594 0)
(-1.92223 0.0440106 0)
(-1.95357 0.0324239 0)
(-1.97147 0.0213443 -2.45883e-21)
(-1.97627 0.0108063 -2.43509e-21)
(-1.96835 0.00085685 -2.41937e-21)
(-1.94816 -0.00845505 0)
(-1.91628 -0.0170509 2.41204e-21)
(-1.87335 -0.0248656 0)
(-1.82015 -0.0318428 -2.43465e-21)
(-1.75781 -0.0379512 -2.45561e-21)
(-1.68709 -0.0431949 0)
(-1.60912 -0.0475721 0)
(-1.52493 -0.0511294 0)
(-1.43559 -0.0539121 -2.58198e-21)
(-1.34202 -0.0560109 0)
(-1.24517 -0.0574641 0)
(-1.14587 -0.058347 0)
(-1.0449 -0.0587133 0)
(-0.942941 -0.0586459 0)
(-0.840621 -0.058197 0)
(-0.738446 -0.0574342 0)
(-0.636881 -0.0564086 0)
(-0.536296 -0.0551906 2.87626e-21)
(-0.436974 -0.0538297 0)
(-0.33911 -0.0523895 0)
(-0.242805 -0.0509271 -2.93136e-21)
(-0.148076 -0.0494861 -2.94433e-21)
(-0.054888 -0.0480976 0)
(0.0368236 -0.0467677 2.96305e-21)
(0.127122 -0.0454875 -2.96907e-21)
(0.216044 -0.044241 0)
(0.303557 -0.0430002 2.97493e-21)
(0.389601 -0.0417353 0)
(0.474081 -0.0404355 0)
(0.556889 -0.0390854 -2.96895e-21)
(0.637917 -0.0376841 0)
(0.717004 -0.0362167 2.95554e-21)
(0.79398 -0.0346648 0)
(0.868618 -0.0330195 -2.93469e-21)
(0.940657 -0.031265 -2.92146e-21)
(1.00984 -0.0294051 -2.90636e-21)
(1.07593 -0.027455 -5.77891e-21)
(1.13871 -0.0254427 5.74162e-21)
(1.19803 -0.0234003 0)
(1.25381 -0.0213627 0)
(1.306 -0.0193611 0)
(1.35464 -0.0174303 5.56389e-21)
(1.39978 -0.0155837 5.51406e-21)
(1.44155 -0.0138368 -5.46277e-21)
(1.48008 -0.0121979 0)
(1.51554 -0.0106624 5.35699e-21)
(1.5481 -0.00923477 5.30303e-21)
(1.57789 -0.00791333 5.24863e-21)
(1.60509 -0.00669535 0)
(1.62983 -0.00557723 0)
(1.65228 -0.00455486 0)
(1.67258 -0.00362378 5.02975e-21)
(1.69088 -0.00277937 0)
(1.7073 -0.00201694 0)
(1.72199 -0.00133179 -4.86716e-21)
(1.73507 -0.000719288 0)
(1.74665 -0.000174895 0)
(1.75686 0.000305844 -4.70772e-21)
(1.7658 0.000727322 0)
(1.77357 0.00109389 0)
(1.78028 0.00140989 4.55217e-21)
(1.78601 0.00167954 4.50124e-21)
(1.79086 0.00190697 0)
(1.79489 0.00209616 -4.40077e-21)
(1.79819 0.00225074 0)
(1.80082 0.00237417 4.30216e-21)
(1.80285 0.00246963 0)
(1.80434 0.0025397 4.20536e-21)
(1.80533 0.00258722 4.15762e-21)
(1.80589 0.00261443 0)
(1.80605 0.00262318 0)
(1.80586 0.00261657 0)
(1.80535 0.00259394 0)
(1.80458 0.00255327 0)
(1.80358 0.0024959 0)
(1.80238 0.0024247 0)
(1.80102 0.00234221 3.79058e-21)
(1.79954 0.00225086 -3.74644e-21)
(1.79796 0.00215328 0)
(1.79631 0.00205206 0)
(1.7946 0.00194946 0)
(1.79286 0.00184742 0)
(1.79109 0.00174752 -7.06205e-21)
(1.78931 0.00165098 0)
(1.78753 0.00155875 6.89441e-21)
(1.78575 0.00147145 -6.81155e-21)
(1.78397 0.00138936 0)
(1.7822 0.00131257 0)
(1.78044 0.00124104 0)
(1.77869 0.00117472 6.48623e-21)
(1.77695 0.00111353 6.40637e-21)
(1.77522 0.00105738 0)
(1.7735 0.00100615 6.24836e-21)
(1.77179 0.00095969 6.17019e-21)
(1.77008 0.00091782 -6.09257e-21)
(1.76837 0.000880265 0)
(1.76667 0.000846722 0)
(1.76498 0.00081694 -5.86289e-21)
(1.76328 0.000790699 0)
(1.76158 0.000767837 0)
(1.75987 0.000748208 0)
(1.75816 0.000731677 0)
(1.75644 0.000718081 5.49036e-21)
(1.75471 0.000707251 5.41733e-21)
(1.75295 0.000698994 0)
(1.75118 0.00069317 5.27274e-21)
(1.74938 0.000689692 0)
(1.74755 0.00068864 0)
(1.74568 0.000690139 5.05942e-21)
(1.74376 0.000694596 0)
(1.74179 0.00070235 4.91955e-21)
(1.73977 0.000714242 0)
(1.73765 0.000730886 0)
(1.73546 0.000753767 4.71328e-21)
(1.73312 0.000784037 0)
(1.73068 0.000823836 4.57817e-21)
(1.728 0.000876079 0)
(1.72519 0.000942354 0)
(1.72194 0.00103239 0)
(1.71856 0.00113963 -4.31422e-21)
(1.71435 0.0013005 0)
(1.71006 0.00146729 4.18591e-21)
(1.70422 0.00177743 0)
(1.69834 0.00201472 0)
(1.6897 0.00268754 0)
(1.68058 0.00293739 0)
(1.6675 0.00462634 0)
(1.6502 0.00450627 0)
(1.63135 0.00947538 0)
(1.58853 0.00743077 -7.44763e-21)
(1.56796 0.025457 0)
(1.42922 0.0195138 0)
(0.00205698 -0.0393592 -6.31507e-21)
(0.00588376 -0.0791557 6.27494e-21)
(0.0127854 -0.0884175 0)
(0.0180348 -0.0864239 -4.11871e-21)
(0.0232312 -0.0821307 0)
(0.0284303 -0.0778369 -2.02581e-21)
(0.0339318 -0.0739913 4.01061e-21)
(0.0396519 -0.0703709 3.97102e-21)
(0.0454446 -0.0665468 0)
(0.0510169 -0.0620165 3.88608e-21)
(0.0559481 -0.0562363 1.92301e-21)
(0.0596765 -0.0486396 0)
(0.0613874 -0.0386243 0)
(0.0601674 -0.0256229 0)
(0.0547125 -0.00915149 0)
(0.0438848 0.0110721 1.80552e-21)
(0.026103 0.0350745 0)
(0.000427411 0.0624641 -3.50485e-21)
(-0.034826 0.092472 0)
(-0.0793765 0.123924 0)
(-0.134167 0.155187 3.39753e-21)
(-0.199916 0.184619 0)
(-0.276373 0.210744 -3.34939e-21)
(-0.362931 0.232667 1.67728e-21)
(-0.458384 0.248836 -1.66712e-21)
(-0.56033 0.258656 1.65633e-21)
(-0.667042 0.259301 1.64441e-21)
(-0.775105 0.250212 0)
(-0.884485 0.242651 0)
(-0.989016 0.225572 -1.60065e-21)
(-1.10454 0.210325 1.55531e-21)
(-1.24157 0.237779 0)
(-1.38199 0.290032 0)
(-1.51937 0.315293 -1.52311e-21)
(-1.63755 0.316397 0)
(-1.73605 0.304418 0)
(-1.82178 0.281362 1.45406e-21)
(-1.89638 0.252186 0)
(-1.96118 0.220993 -1.33649e-21)
(-2.01561 0.189028 2.73936e-21)
(-2.05984 0.157256 0)
(-2.09361 0.125996 0)
(-2.11704 0.0954714 5.04596e-21)
(-2.13008 0.0657599 4.9607e-21)
(-2.13281 0.0369374 4.88823e-21)
(-2.12524 0.00908775 -2.36948e-21)
(-2.10746 -0.0176869 2.43674e-21)
(-2.07955 -0.0432428 7.18167e-21)
(-2.04178 -0.0674172 -4.75047e-21)
(-1.99446 -0.0899922 -2.41333e-21)
(-1.93804 -0.110774 0)
(-1.87306 -0.129575 2.43577e-21)
(-1.79992 -0.146277 -2.40278e-21)
(-1.71953 -0.160776 0)
(-1.63263 -0.173039 0)
(-1.54007 -0.183093 0)
(-1.44267 -0.190998 2.58282e-21)
(-1.3414 -0.196898 0)
(-1.23709 -0.200926 -5.28867e-21)
(-1.13056 -0.203276 0)
(-1.02256 -0.204138 -5.44021e-21)
(-0.91375 -0.203715 0)
(-0.804688 -0.202203 5.5767e-21)
(-0.69587 -0.199785 0)
(-0.587732 -0.196628 -5.6923e-21)
(-0.480636 -0.192913 2.8646e-21)
(-0.374832 -0.188789 0)
(-0.270515 -0.184441 5.82138e-21)
(-0.167757 -0.18002 2.9317e-21)
(-0.0665348 -0.175675 2.94465e-21)
(0.0332272 -0.171486 0)
(0.131637 -0.167491 2.95316e-21)
(0.228782 -0.163653 2.96932e-21)
(0.324712 -0.159901 0)
(0.419404 -0.156143 -2.97514e-21)
(0.512775 -0.152292 5.94127e-21)
(0.60471 -0.148319 0)
(0.695094 -0.144191 2.96911e-21)
(0.783821 -0.139902 0)
(0.870749 -0.135413 -8.8602e-21)
(0.95571 -0.130671 0)
(1.03847 -0.125623 8.79894e-21)
(1.11877 -0.120238 2.92155e-21)
(1.19632 -0.114507 -2.90234e-21)
(1.27086 -0.108484 -5.77195e-21)
(1.34217 -0.102249 5.73558e-21)
(1.41009 -0.0958985 0)
(1.47455 -0.0895551 0)
(1.5355 -0.0833108 0)
(1.59299 -0.077254 -1.66878e-20)
(1.64711 -0.0714428 -5.51407e-21)
(1.69797 -0.0659155 5.46276e-21)
(1.74573 -0.0606893 0)
(1.79055 -0.0557613 5.35413e-21)
(1.83259 -0.0511372 -5.30298e-21)
(1.87199 -0.0468113 -5.24857e-21)
(1.9089 -0.0427744 0)
(1.94347 -0.0390153 0)
(1.97583 -0.035522 0)
(2.00614 -0.0322814 -5.02966e-21)
(2.0345 -0.0292806 0)
(2.06106 -0.0265064 9.84039e-21)
(2.08591 -0.0239461 1.45997e-20)
(2.10918 -0.0215872 -9.62567e-21)
(2.13096 -0.0194177 0)
(2.15136 -0.017426 -4.70646e-21)
(2.17045 -0.015601 0)
(2.18834 -0.0139321 -9.20584e-21)
(2.20509 -0.0124088 4.55112e-21)
(2.22079 -0.011021 4.50025e-21)
(2.23552 -0.0097588 0)
(2.24933 -0.00861265 1.3201e-20)
(2.2623 -0.00757327 -8.70143e-21)
(2.27447 -0.00663168 -4.30194e-21)
(2.28591 -0.00577933 0)
(2.29667 -0.00500832 -4.20513e-21)
(2.30677 -0.00431124 -1.24717e-20)
(2.31628 -0.00368147 0)
(2.32521 -0.00311351 -8.12601e-21)
(2.33361 -0.00260209 -8.0331e-21)
(2.3415 -0.00214429 -7.94101e-21)
(2.3489 -0.00173856 0)
(2.35584 -0.00138215 0)
(2.36234 -0.0010712 0)
(2.36841 -0.000801949 3.79013e-21)
(2.37407 -0.000570804 3.74616e-21)
(2.37935 -0.00037395 0)
(2.38426 -0.000207381 7.31779e-21)
(2.38882 -6.72145e-05 7.23165e-21)
(2.39305 5.02456e-05 0)
(2.39696 0.000148407 7.06149e-21)
(2.40058 0.000230362 1.39546e-20)
(2.40392 0.000298819 -6.89385e-21)
(2.40699 0.000356181 -6.81089e-21)
(2.40981 0.000404468 0)
(2.41239 0.000445217 0)
(2.41475 0.000479668 0)
(2.4169 0.000509016 -6.48567e-21)
(2.41884 0.000534413 6.40576e-21)
(2.4206 0.000556625 1.2653e-20)
(2.42218 0.000575872 -6.24782e-21)
(2.42359 0.000592134 6.16961e-21)
(2.42484 0.000605415 6.09203e-21)
(2.42595 0.000616085 0)
(2.42692 0.000624697 0)
(2.42775 0.000631812 -5.86233e-21)
(2.42847 0.000637944 0)
(2.42907 0.000643638 0)
(2.42957 0.000649403 1.12747e-20)
(2.42997 0.000655792 0)
(2.43028 0.000663219 5.48982e-21)
(2.4305 0.000672064 -5.41684e-21)
(2.43063 0.000682684 0)
(2.43069 0.000695478 5.27222e-21)
(2.43067 0.000710863 0)
(2.43057 0.00072944 0)
(2.4304 0.000751951 -5.05895e-21)
(2.43016 0.000779406 9.97751e-21)
(2.42984 0.00081319 -4.91909e-21)
(2.42944 0.000854701 0)
(2.42895 0.000906674 0)
(2.42837 0.000970416 4.71273e-21)
(2.42767 0.00105225 0)
(2.42686 0.00115108 4.57759e-21)
(2.42588 0.00128362 0)
(2.42474 0.00143719 0)
(2.42334 0.00166011 0)
(2.42171 0.00189654 4.3138e-21)
(2.41966 0.00229206 0)
(2.41724 0.00264499 -4.18549e-21)
(2.41416 0.00339985 0)
(2.41033 0.00388642 0)
(2.40564 0.00546483 7.9975e-21)
(2.39897 0.00600278 -7.87762e-21)
(2.39189 0.00966516 0)
(2.37878 0.00984302 0)
(2.36865 0.0194137 0)
(2.33926 0.0183431 2.23227e-20)
(2.32794 0.0476818 0)
(2.25785 0.0480883 -1.45031e-20)
(-0.00023455 -0.0333163 2.25801e-24)
(-0.0154816 -0.065097 -8.36719e-21)
(-0.0295218 -0.0707154 0)
(-0.045027 -0.0686152 8.23897e-21)
(-0.059385 -0.0667557 0)
(-0.072915 -0.0654227 0)
(-0.0854667 -0.0642411 -3.14191e-24)
(-0.0973967 -0.0626427 -3.97318e-21)
(-0.108934 -0.0600526 -3.92803e-21)
(-0.120414 -0.0558189 -3.88818e-21)
(-0.13219 -0.0491934 0)
(-0.14471 -0.0393442 0)
(-0.158615 -0.0253292 3.73911e-21)
(-0.17471 -0.00625989 7.37467e-21)
(-0.194078 0.0185857 -7.26968e-21)
(-0.217826 0.0495201 0)
(-0.247432 0.0864373 -7.06419e-21)
(-0.284021 0.128562 3.50652e-21)
(-0.329081 0.174767 0)
(-0.382876 0.223404 -6.80551e-21)
(-0.446109 0.272575 -3.3992e-21)
(-0.518734 0.319903 6.68495e-21)
(-0.599862 0.36276 3.35112e-21)
(-0.687708 0.398719 0)
(-0.781082 0.425292 -6.55658e-21)
(-0.879103 0.440675 -6.51451e-21)
(-0.980191 0.445487 0)
(-1.08401 0.440358 -6.41109e-21)
(-1.1883 0.420006 0)
(-1.29888 0.414992 -6.2661e-21)
(-1.42892 0.452974 -3.14069e-21)
(-1.55585 0.480424 0)
(-1.66019 0.482658 0)
(-1.74874 0.470292 0)
(-1.82337 0.448028 0)
(-1.88748 0.418467 0)
(-1.94329 0.381628 0)
(-1.99257 0.340229 -5.41818e-21)
(-2.03614 0.296452 8.04093e-21)
(-2.0738 0.251743 0)
(-2.10516 0.206923 0)
(-2.12941 0.162369 0)
(-2.14586 0.118267 -1.53319e-22)
(-2.15378 0.0747487 -4.96237e-21)
(-2.15261 0.0319602 -9.63677e-21)
(-2.14186 -0.00989745 9.52583e-21)
(-2.12126 -0.0505653 4.65737e-21)
(-2.09066 -0.0897336 -4.76196e-21)
(-2.05008 -0.127064 1.18391e-22)
(-1.99974 -0.162198 -4.64586e-21)
(-1.94006 -0.194795 0)
(-1.87162 -0.224549 -4.71694e-21)
(-1.79513 -0.251179 8.79395e-23)
(-1.71145 -0.274447 0)
(-1.62152 -0.2942 0)
(-1.52627 -0.310375 4.99253e-21)
(-1.42667 -0.323024 0)
(-1.32364 -0.332309 0)
(-1.21803 -0.338491 -5.20278e-21)
(-1.11064 -0.341888 -1.06568e-20)
(-1.00213 -0.342849 5.44064e-21)
(-0.893121 -0.341714 0)
(-0.784121 -0.338811 -5.57704e-21)
(-0.675569 -0.334457 0)
(-0.567875 -0.328928 -5.64887e-21)
(-0.461378 -0.322487 -5.74153e-21)
(-0.356343 -0.315402 1.15307e-20)
(-0.252969 -0.307961 5.78484e-21)
(-0.15131 -0.300446 0)
(-0.0512972 -0.293128 -1.17226e-20)
(0.0472311 -0.286172 0)
(0.144473 -0.27963 -1.77149e-20)
(0.240611 -0.273419 -1.18234e-20)
(0.335733 -0.267372 -1.18407e-20)
(0.429806 -0.261303 1.18502e-20)
(0.522687 -0.25506 -1.77933e-20)
(0.6142 -0.24858 0)
(0.704209 -0.241842 0)
(0.792621 -0.234853 1.18128e-20)
(0.879327 -0.227549 1.76898e-20)
(0.964176 -0.219839 0)
(1.04692 -0.211599 -5.86408e-21)
(1.12724 -0.202765 0)
(1.2048 -0.193325 1.74118e-20)
(1.27928 -0.183358 1.23738e-23)
(1.35041 -0.173022 -1.07533e-23)
(1.41805 -0.162497 -1.13874e-20)
(1.4821 -0.152002 0)
(1.54259 -0.141711 1.12118e-20)
(1.59958 -0.131764 6.89432e-24)
(1.6532 -0.122253 0)
(1.70361 -0.113239 0)
(1.75099 -0.104733 0)
(1.79553 -0.0967426 -1.07109e-20)
(1.83738 -0.0892649 0)
(1.8767 -0.0822864 0)
(1.91366 -0.0757888 0)
(1.94839 -0.0697511 0)
(1.98105 -0.0641501 0)
(2.01177 -0.0589619 -1.00544e-20)
(2.0407 -0.054162 0)
(2.06795 -0.0497263 -9.8403e-21)
(2.09365 -0.0456314 -9.7326e-21)
(2.1179 -0.041855 9.62559e-21)
(2.1408 -0.0383762 0)
(2.16245 -0.0351755 9.41396e-21)
(2.18292 -0.0322346 0)
(2.20231 -0.0295362 9.20578e-21)
(2.22066 -0.0270639 -9.10305e-21)
(2.23806 -0.0248015 -2.7001e-20)
(2.25457 -0.0227336 0)
(2.27024 -0.0208449 -2.63989e-20)
(2.28513 -0.0191205 -8.69931e-21)
(2.29929 -0.0175459 0)
(2.31276 -0.0161073 -1.70103e-20)
(2.32559 -0.0147916 -1.68178e-20)
(2.33781 -0.0135867 2.49414e-20)
(2.34946 -0.0124818 0)
(2.36057 -0.0114674 8.12593e-21)
(2.37115 -0.0105358 8.03302e-21)
(2.38124 -0.00967942 2.38218e-20)
(2.39084 -0.00889167 0)
(2.39999 -0.00816741 0)
(2.40869 -0.00750181 0)
(2.41695 -0.00689023 7.57976e-21)
(2.42479 -0.00632832 0)
(2.43223 -0.00581203 0)
(2.43928 -0.00533746 -7.31769e-21)
(2.44594 -0.00490077 -7.23155e-21)
(2.45225 -0.00449831 0)
(2.4582 -0.0041266 0)
(2.46381 -0.00378256 -1.39543e-20)
(2.4691 -0.00346341 0)
(2.47409 -0.00316667 1.36216e-20)
(2.47877 -0.0028902 1.3457e-20)
(2.48317 -0.00263228 0)
(2.48729 -0.00239143 0)
(2.49115 -0.00216627 -1.29709e-20)
(2.49476 -0.00195547 -8.98871e-26)
(2.49813 -0.001758 -7.8961e-26)
(2.50128 -0.00157324 0)
(2.5042 -0.00140076 -2.46779e-20)
(2.50691 -0.00124024 0)
(2.50942 -0.00109113 0)
(2.51174 -0.000952719 0)
(2.51388 -0.00082424 1.17244e-20)
(2.51584 -0.000704875 0)
(2.51764 -0.000593753 -2.28467e-20)
(2.51929 -0.000490018 -1.12744e-20)
(2.52078 -0.000392895 0)
(2.52214 -0.000301541 -1.09794e-20)
(2.52336 -0.000215037 0)
(2.52446 -0.000132469 0)
(2.52545 -5.2886e-05 -3.16325e-20)
(2.52633 2.49252e-05 2.0802e-20)
(2.5271 0.000102154 0)
(2.52777 0.000180519 2.0235e-20)
(2.52834 0.000261521 -9.97724e-21)
(2.52882 0.000348059 0)
(2.5292 0.000441687 0)
(2.52949 0.000547958 0)
(2.52968 0.000667294 -2.82756e-20)
(2.52976 0.000811852 0)
(2.52971 0.000976581 -9.15505e-21)
(2.52955 0.00119097 0)
(2.52921 0.00143039 0)
(2.52872 0.00177187 0)
(2.52795 0.00212871 0)
(2.52699 0.00271035 0)
(2.52555 0.0032437 0)
(2.52389 0.00430726 -1.64861e-20)
(2.52128 0.00508775 0)
(2.51855 0.0071904 -7.99725e-21)
(2.51381 0.0082825 2.36275e-20)
(2.5094 0.012814 0)
(2.50054 0.0143268 0)
(2.49355 0.0251182 -1.50659e-20)
(2.47691 0.0280947 -1.48755e-20)
(2.46699 0.056653 1.46522e-20)
(2.44003 0.0674681 1.45032e-20)
(-0.00413147 -0.00375229 1.26302e-20)
(-0.0324645 -0.0189344 1.25484e-20)
(-0.058878 -0.0232188 8.30105e-21)
(-0.0867632 -0.0223872 4.11521e-21)
(-0.11368 -0.0224131 0)
(-0.140483 -0.0225956 -8.09513e-21)
(-0.166991 -0.0224998 4.00771e-21)
(-0.193508 -0.0216189 0)
(-0.220096 -0.0194352 3.93028e-21)
(-0.246944 -0.015238 0)
(-0.274289 -0.00809458 -7.67469e-21)
(-0.302434 0.00309707 0)
(-0.331806 0.0195579 -3.74122e-21)
(-0.363049 0.0425836 -7.37878e-21)
(-0.397129 0.0733618 7.2737e-21)
(-0.434894 0.112712 0)
(-0.477651 0.160806 7.06799e-21)
(-0.525905 0.216587 0)
(-0.581186 0.278246 0)
(-0.64278 0.342435 6.80926e-21)
(-0.710756 0.405683 0)
(-0.784887 0.464498 -5.60663e-23)
(-0.864209 0.515773 0)
(-0.9473 0.557187 0)
(-1.03295 0.587556 7.72435e-23)
(-1.12065 0.606537 6.51831e-21)
(-1.20974 0.61218 6.3741e-21)
(-1.29954 0.606103 6.4149e-21)
(-1.39937 0.609089 0)
(-1.51107 0.629974 1.24083e-20)
(-1.61201 0.638847 0)
(-1.69697 0.62911 5.93203e-21)
(-1.77009 0.608389 0)
(-1.83525 0.579376 0)
(-1.89377 0.54383 -5.58342e-21)
(-1.94752 0.502844 0)
(-1.99658 0.457213 5.34219e-21)
(-2.04108 0.408005 1.98229e-22)
(-2.08023 0.35605 -1.0412e-20)
(-2.11333 0.302058 9.98469e-21)
(-2.13951 0.246554 0)
(-2.15797 0.189986 0)
(-2.16799 0.132766 4.49994e-21)
(-2.16899 0.0753243 0)
(-2.16053 0.0181211 4.74857e-21)
(-2.14235 -0.0383643 -4.69573e-21)
(-2.11431 -0.0936172 -4.65863e-21)
(-2.07642 -0.147092 0)
(-2.02883 -0.198238 4.63408e-21)
(-1.97186 -0.246517 4.64664e-21)
(-1.906 -0.291387 -9.06391e-21)
(-1.83194 -0.332254 4.7175e-21)
(-1.7504 -0.368633 4.77272e-21)
(-1.66228 -0.400141 0)
(-1.56861 -0.426514 0)
(-1.47047 -0.447728 -4.99294e-21)
(-1.36892 -0.463968 0)
(-1.26494 -0.475554 0)
(-1.15935 -0.482924 1.04926e-20)
(-1.05285 -0.486562 1.06574e-20)
(-0.945923 -0.486962 0)
(-0.838985 -0.484611 0)
(-0.732351 -0.479941 0)
(-0.626281 -0.473346 0)
(-0.521042 -0.465189 1.13418e-20)
(-0.41692 -0.455783 -1.1388e-20)
(-0.314202 -0.445504 -1.15311e-20)