/*--------------------------------*- C++ -*----------------------------------*\
  =========                 |
  \\      /  F ield         | OpenFOAM: The Open Source CFD Toolbox
   \\    /   O peration     | Website:  https://openfoam.org
    \\  /    A nd           | Version:  7
     \\/     M anipulation  |
\*---------------------------------------------------------------------------*/
FoamFile
{
    version     2.0;
    format      ascii;
    class       volScalarField;
    location    "0.088";
    object      p;
}
// * * * * * * * * * * * * * * * * * * * * * * * * * * * * * * * * * * * * * //

dimensions      [0 2 -2 0 0 0 0];

internalField   nonuniform List<scalar> 
12225
(
-175.842
-177.099
-177.483
-177.26
-176.591
-175.674
-174.64
-173.541
-172.404
-171.255
-170.11
-168.966
-167.806
-166.607
-165.367
-164.07
-162.714
-161.147
-175.538
-177.166
-177.533
-177.283
-176.61
-175.691
-174.653
-173.552
-172.413
-171.261
-170.115
-168.971
-167.812
-166.615
-165.379
-164.088
-162.741
-161.265
-175.637
-177.362
-177.657
-177.345
-176.653
-175.726
-174.679
-173.571
-172.429
-171.276
-170.128
-168.981
-167.821
-166.629
-165.403
-164.136
-162.825
-161.461
-175.722
-177.6
-177.821
-177.43
-176.706
-175.767
-174.71
-173.595
-172.451
-171.297
-170.146
-168.996
-167.838
-166.656
-165.449
-164.215
-162.955
-161.688
-175.801
-177.981
-178.065
-177.566
-176.793
-175.832
-174.761
-173.635
-172.485
-171.327
-170.174
-169.024
-167.87
-166.701
-165.515
-164.317
-163.112
-161.927
-176.922
-178.553
-178.385
-177.746
-176.901
-175.909
-174.82
-173.683
-172.526
-171.365
-170.21
-169.062
-167.914
-166.76
-165.599
-164.438
-163.288
-162.175
-179.861
-179.328
-178.771
-177.97
-177.042
-176.009
-174.897
-173.745
-172.58
-171.415
-170.259
-169.113
-167.974
-166.836
-165.702
-164.579
-163.481
-162.43
-181.434
-180.117
-179.208
-178.24
-177.218
-176.134
-174.992
-173.823
-172.647
-171.477
-170.32
-169.177
-168.048
-166.928
-165.822
-164.736
-163.686
-162.689
-183.157
-180.954
-179.697
-178.552
-177.426
-176.28
-175.104
-173.913
-172.726
-171.551
-170.392
-169.255
-168.136
-167.036
-165.957
-164.909
-163.902
-162.953
-184.419
-181.716
-180.181
-178.888
-177.663
-176.453
-175.237
-174.024
-172.823
-171.64
-170.481
-169.348
-168.242
-167.161
-166.11
-165.095
-164.127
-163.217
-184.713
-182.343
-180.684
-179.258
-177.928
-176.646
-175.386
-174.147
-172.932
-171.742
-170.582
-169.454
-168.36
-167.298
-166.273
-165.29
-164.357
-163.484
-184.848
-182.862
-181.129
-179.609
-178.195
-176.85
-175.546
-174.279
-173.047
-171.849
-170.687
-169.565
-168.481
-167.437
-166.434
-165.477
-164.572
-163.726
-186.158
-183.391
-181.57
-179.965
-178.471
-177.062
-175.715
-174.419
-173.171
-171.965
-170.802
-169.684
-168.61
-167.581
-166.598
-165.665
-164.786
-163.964
-185.405
-183.774
-182.074
-180.388
-178.808
-177.325
-175.923
-174.59
-173.318
-172.102
-170.938
-169.827
-168.767
-167.756
-166.794
-165.884
-165.029
-164.23
-185.822
-184.368
-182.644
-180.868
-179.198
-177.636
-176.175
-174.802
-173.506
-172.276
-171.109
-170.002
-168.952
-167.956
-167.015
-166.128
-165.296
-164.519
-185.784
-185.276
-183.432
-181.485
-179.667
-177.994
-176.454
-175.029
-173.703
-172.461
-171.293
-170.195
-169.159
-168.182
-167.261
-166.395
-165.584
-164.827
-192.769
-187.434
-184.446
-182.131
-180.128
-178.344
-176.734
-175.267
-173.918
-172.665
-171.495
-170.402
-169.377
-168.416
-167.514
-166.669
-165.879
-165.14
-188.595
-187.44
-185.053
-182.657
-180.524
-178.634
-176.947
-175.438
-174.071
-172.815
-171.654
-170.576
-169.572
-168.632
-167.752
-166.927
-166.155
-165.431
-195.395
-189.805
-185.909
-182.944
-180.583
-178.623
-176.928
-175.432
-174.09
-172.866
-171.738
-170.692
-169.719
-168.808
-167.954
-167.153
-166.4
-165.692
-195.612
-189.048
-184.983
-182.104
-179.885
-178.064
-176.495
-175.106
-173.852
-172.7
-171.631
-170.636
-169.706
-168.832
-168.009
-167.233
-166.502
-165.813
-189.852
-185.804
-182.934
-180.709
-178.905
-177.358
-175.978
-174.726
-173.579
-172.512
-171.51
-170.568
-169.679
-168.837
-168.039
-167.283
-166.564
-165.884
-181.902
-182.042
-180.633
-179.146
-177.793
-176.551
-175.387
-174.289
-173.253
-172.27
-171.331
-170.437
-169.586
-168.776
-168.005
-167.267
-166.568
-165.902
-182.904
-179.867
-178.687
-177.762
-176.834
-175.877
-174.905
-173.944
-173.004
-172.093
-171.209
-170.355
-169.535
-168.747
-167.991
-167.271
-166.58
-165.92
-176.707
-177.027
-176.896
-176.542
-175.967
-175.241
-174.437
-173.604
-172.753
-171.908
-171.071
-170.251
-169.456
-168.69
-167.955
-167.246
-166.566
-165.914
-172.944
-174.758
-175.482
-175.635
-175.362
-174.819
-174.136
-173.388
-172.604
-171.798
-170.991
-170.195
-169.417
-168.665
-167.937
-167.236
-166.562
-165.913
-171.11
-173.061
-174.37
-174.892
-174.828
-174.436
-173.858
-173.186
-172.461
-171.695
-170.914
-170.135
-169.373
-168.631
-167.913
-167.218
-166.547
-165.903
-168.47
-171.827
-173.692
-174.461
-174.522
-174.221
-173.715
-173.088
-172.387
-171.639
-170.871
-170.104
-169.35
-168.615
-167.902
-167.212
-166.544
-165.9
-166.755
-170.888
-173.187
-174.12
-174.271
-174.033
-173.595
-173.007
-172.327
-171.593
-170.835
-170.077
-169.33
-168.601
-167.892
-167.203
-166.536
-165.892
-165.555
-170.458
-172.959
-173.948
-174.158
-173.961
-173.544
-172.972
-172.302
-171.572
-170.817
-170.061
-169.318
-168.593
-167.887
-167.201
-166.536
-165.891
-164.195
-170.204
-172.852
-173.847
-174.092
-173.921
-173.514
-172.95
-172.286
-171.561
-170.809
-170.055
-169.314
-168.59
-167.884
-167.198
-166.531
-165.884
-152.042
-152.044
-152.051
-152.06
-152.064
-152.063
-152.055
-152.039
-152.012
-151.971
-151.912
-151.833
-151.731
-151.605
-151.458
-151.29
-151.102
-150.897
-150.677
-150.443
-150.198
-149.942
-149.676
-149.399
-149.111
-148.811
-148.497
-148.167
-147.819
-147.451
-147.06
-146.644
-146.201
-145.729
-145.23
-144.704
-144.153
-143.58
-142.985
-142.374
-141.757
-141.152
-140.591
-140.043
-139.462
-138.867
-138.342
-137.909
-137.535
-137.129
-136.719
-136.378
-136.121
-135.918
-135.764
-135.657
-135.594
-135.573
-135.599
-135.661
-135.678
-135.554
-135.235
-134.701
-133.953
-133.039
-132.083
-131.351
-130.834
-130.462
-130.051
-129.496
-128.919
-128.384
-127.965
-127.518
-126.833
-126.305
-126.513
-127.331
-128.397
-129.487
-130.479
-131.324
-132.004
-132.518
-132.87
-133.064
-133.105
-132.994
-132.733
-132.324
-131.783
-131.104
-130.296
-129.372
-128.343
-127.222
-126.024
-124.762
-123.449
-122.099
-120.723
-119.334
-117.942
-116.556
-115.187
-113.841
-112.526
-111.246
-110.007
-108.811
-107.659
-106.551
-105.487
-104.464
-103.479
-102.529
-101.608
-100.712
-99.8376
-98.9804
-98.137
-97.3051
-96.4832
-95.6715
-94.8714
-94.0847
-93.314
-92.5607
-91.8249
-91.105
-90.3974
-89.6975
-89.0001
-88.3004
-87.5942
-86.878
-86.1489
-85.406
-84.6493
-83.879
-83.0956
-82.3005
-81.4954
-80.6813
-79.8583
-79.0256
-78.1821
-77.3268
-76.4596
-75.581
-74.6924
-73.795
-72.89
-71.9783
-71.0605
-70.137
-69.208
-68.2735
-67.3335
-66.3881
-65.437
-64.4801
-63.5172
-62.5483
-61.5731
-60.5914
-59.6033
-58.6085
-57.6071
-56.5989
-55.584
-54.5621
-53.5338
-52.4991
-51.459
-50.416
-49.3688
-48.354
-152.05
-152.046
-152.052
-152.067
-152.084
-152.098
-152.106
-152.105
-152.09
-152.056
-152.001
-151.922
-151.818
-151.69
-151.537
-151.363
-151.169
-150.958
-150.73
-150.486
-150.23
-149.968
-149.702
-149.432
-149.155
-148.865
-148.555
-148.226
-147.876
-147.504
-147.109
-146.689
-146.244
-145.773
-145.273
-144.745
-144.188
-143.61
-143.007
-142.373
-141.763
-141.111
-140.564
-140.069
-139.471
-138.882
-138.322
-137.822
-137.394
-136.988
-136.603
-136.296
-136.09
-135.927
-135.786
-135.676
-135.614
-135.627
-135.722
-135.86
-135.94
-135.863
-135.562
-135.028
-134.304
-133.38
-132.313
-131.447
-130.908
-130.548
-130.09
-129.527
-129.084
-128.598
-127.92
-127.546
-127.242
-127.056
-127.423
-128.233
-129.208
-130.173
-131.04
-131.775
-132.367
-132.816
-133.122
-133.284
-133.302
-133.175
-132.901
-132.485
-131.923
-131.229
-130.41
-129.474
-128.435
-127.305
-126.097
-124.826
-123.505
-122.148
-120.765
-119.37
-117.972
-116.581
-115.207
-113.856
-112.537
-111.254
-110.012
-108.814
-107.66
-106.553
-105.489
-104.468
-103.485
-102.537
-101.619
-100.726
-99.8545
-99
-98.159
-97.3286
-96.5075
-95.6957
-94.8943
-94.1057
-93.3323
-92.5763
-91.8379
-91.1158
-90.4065
-89.7055
-89.0074
-88.3073
-87.6008
-86.8845
-86.1559
-85.4137
-84.6571
-83.8865
-83.1028
-82.3073
-81.5017
-80.6868
-79.8628
-79.0291
-78.1843
-77.3278
-76.4595
-75.5801
-74.6909
-73.7933
-72.8882
-71.9767
-71.0591
-70.1357
-69.2068
-68.2725
-67.3326
-66.3873
-65.4363
-64.4795
-63.5167
-62.5479
-61.5728
-60.5912
-59.6032
-58.6085
-57.6072
-56.5991
-55.5843
-54.5626
-53.5344
-52.5
-51.4598
-50.4169
-49.3688
-48.3435
-152.047
-152.032
-152.045
-152.085
-152.144
-152.206
-152.258
-152.293
-152.305
-152.291
-152.248
-152.175
-152.071
-151.935
-151.766
-151.564
-151.344
-151.114
-150.872
-150.613
-150.339
-150.058
-149.775
-149.491
-149.207
-148.919
-148.625
-148.321
-147.999
-147.654
-147.28
-146.873
-146.434
-145.96
-145.45
-144.906
-144.336
-143.735
-143.098
-142.442
-141.788
-141.105
-140.409
-139.774
-139.227
-138.698
-138.175
-137.684
-137.29
-136.959
-136.605
-136.214
-135.869
-135.658
-135.551
-135.529
-135.581
-135.697
-135.889
-136.105
-136.241
-136.206
-135.93
-135.393
-134.67
-133.78
-132.661
-131.647
-131.003
-130.537
-129.989
-129.46
-129.04
-128.751
-128.426
-128.219
-128.239
-128.486
-128.992
-129.666
-130.408
-131.136
-131.804
-132.386
-132.868
-133.241
-133.496
-133.624
-133.619
-133.473
-133.185
-132.753
-132.177
-131.465
-130.626
-129.671
-128.612
-127.464
-126.239
-124.952
-123.616
-122.245
-120.85
-119.442
-118.033
-116.632
-115.248
-113.889
-112.561
-111.272
-110.024
-108.822
-107.667
-106.559
-105.497
-104.478
-103.499
-102.555
-101.642
-100.756
-99.8899
-99.0408
-98.2044
-97.3775
-96.5583
-95.7466
-94.9434
-94.1511
-93.373
-92.6118
-91.8687
-91.1425
-90.4301
-89.7265
-89.0266
-88.3252
-87.6177
-86.9005
-86.171
-85.4277
-84.6703
-83.8992
-83.1149
-82.3186
-81.5115
-80.6944
-79.8674
-79.0303
-78.1825
-77.3239
-76.4545
-75.5749
-74.6859
-73.7887
-72.8842
-71.973
-71.0558
-70.1328
-69.2043
-68.2702
-67.3307
-66.3857
-65.4349
-64.4783
-63.5158
-62.5472
-61.5722
-60.5909
-59.6031
-58.6087
-57.6076
-56.5999
-55.5855
-54.5645
-53.5367
-52.5034
-51.4635
-50.4219
-49.3736
-48.3387
-152.164
-152.176
-152.227
-152.316
-152.424
-152.533
-152.625
-152.689
-152.723
-152.718
-152.662
-152.553
-152.423
-152.276
-152.095
-151.884
-151.662
-151.423
-151.154
-150.857
-150.551
-150.261
-149.999
-149.761
-149.526
-149.282
-149.02
-148.738
-148.433
-148.099
-147.732
-147.328
-146.883
-146.396
-145.873
-145.311
-144.709
-144.07
-143.404
-142.722
-142.019
-141.297
-140.596
-139.954
-139.361
-138.794
-138.238
-137.693
-137.223
-136.827
-136.478
-136.175
-135.969
-135.851
-135.787
-135.749
-135.765
-135.857
-136.053
-136.303
-136.45
-136.399
-136.104
-135.505
-134.748
-133.893
-132.858
-131.815
-131.074
-130.513
-129.826
-129.234
-128.988
-128.935
-129.015
-129.205
-129.513
-129.93
-130.443
-131.005
-131.576
-132.125
-132.632
-133.086
-133.472
-133.776
-133.985
-134.082
-134.054
-133.891
-133.584
-133.132
-132.534
-131.797
-130.932
-129.949
-128.863
-127.688
-126.439
-125.129
-123.773
-122.383
-120.97
-119.546
-118.122
-116.706
-115.308
-113.935
-112.597
-111.297
-110.042
-108.834
-107.676
-106.567
-105.506
-104.49
-103.516
-102.58
-101.675
-100.797
-99.9394
-99.0985
-98.2692
-97.448
-96.6324
-95.8215
-95.016
-94.2188
-93.4337
-92.6647
-91.914
-91.1816
-90.4645
-89.7578
-89.0554
-88.3517
-87.6422
-86.9232
-86.192
-85.4472
-84.6885
-83.9157
-83.1297
-82.3315
-81.5224
-80.7028
-79.8733
-79.0337
-78.1838
-77.3234
-76.4527
-75.5721
-74.6826
-73.7851
-72.8805
-71.9694
-71.0523
-70.1296
-69.2013
-68.2676
-67.3283
-66.3835
-65.433
-64.4767
-63.5144
-62.546
-61.5713
-60.5902
-59.6027
-58.6086
-57.6079
-56.6006
-55.5866
-54.5662
-53.539
-52.5063
-51.4671
-50.4256
-49.3776
-48.336
-152.327
-152.399
-152.529
-152.665
-152.798
-152.923
-153.021
-153.091
-153.14
-153.141
-153.078
-152.968
-152.837
-152.675
-152.465
-152.231
-151.996
-151.767
-151.537
-151.296
-151.05
-150.809
-150.583
-150.372
-150.169
-149.963
-149.743
-149.5
-149.227
-148.917
-148.564
-148.163
-147.713
-147.212
-146.663
-146.068
-145.429
-144.751
-144.04
-143.305
-142.551
-141.79
-141.047
-140.339
-139.669
-139.029
-138.418
-137.847
-137.34
-136.905
-136.538
-136.235
-136.016
-135.906
-135.904
-135.977
-136.065
-136.145
-136.229
-136.284
-136.236
-136.058
-135.707
-135.142
-134.443
-133.717
-132.958
-132.256
-131.614
-130.876
-130.098
-129.604
-129.485
-129.632
-129.956
-130.368
-130.813
-131.277
-131.745
-132.201
-132.635
-133.047
-133.438
-133.801
-134.123
-134.386
-134.568
-134.647
-134.605
-134.425
-134.097
-133.616
-132.992
-132.225
-131.325
-130.306
-129.184
-127.974
-126.693
-125.355
-123.973
-122.559
-121.125
-119.68
-118.236
-116.801
-115.385
-113.996
-112.642
-111.33
-110.064
-108.849
-107.686
-106.576
-105.517
-104.506
-103.54
-102.612
-101.718
-100.851
-100.005
-99.1751
-98.3559
-97.5433
-96.7335
-95.9246
-95.1171
-94.3139
-93.52
-92.7409
-91.9802
-91.2384
-90.5132
-89.8005
-89.0946
-88.3886
-87.6768
-86.9552
-86.2216
-85.4744
-84.7132
-83.938
-83.1489
-82.348
-81.5361
-80.7137
-79.8812
-79.0387
-78.1861
-77.3234
-76.4509
-75.5691
-74.6788
-73.7809
-72.8761
-71.965
-71.0481
-70.1256
-69.1976
-68.2642
-67.3253
-66.3808
-65.4306
-64.4746
-63.5126
-62.5445
-61.5701
-60.5893
-59.602
-58.6083
-57.6079
-56.601
-55.5874
-54.5675
-53.541
-52.5088
-51.4703
-50.4285
-49.3808
-48.3341
-152.52
-152.604
-152.725
-152.852
-152.983
-153.116
-153.223
-153.303
-153.394
-153.4
-153.339
-153.241
-153.128
-152.99
-152.826
-152.647
-152.464
-152.28
-152.101
-151.929
-151.765
-151.61
-151.464
-151.324
-151.185
-151.036
-150.868
-150.669
-150.431
-150.144
-149.802
-149.399
-148.932
-148.409
-147.828
-147.191
-146.502
-145.77
-145.002
-144.207
-143.396
-142.585
-141.789
-141.019
-140.278
-139.568
-138.897
-138.272
-137.705
-137.208
-136.784
-136.453
-136.24
-136.176
-136.269
-136.429
-136.539
-136.538
-136.421
-136.217
-135.941
-135.583
-135.135
-134.592
-134.007
-133.469
-133.05
-132.699
-132.251
-131.565
-130.878
-130.506
-130.49
-130.732
-131.125
-131.584
-132.049
-132.487
-132.878
-133.229
-133.558
-133.882
-134.207
-134.527
-134.827
-135.08
-135.259
-135.335
-135.284
-135.089
-134.737
-134.219
-133.56
-132.748
-131.799
-130.731
-129.562
-128.31
-126.991
-125.619
-124.207
-122.767
-121.308
-119.841
-118.374
-116.917
-115.48
-114.071
-112.699
-111.371
-110.093
-108.869
-107.701
-106.59
-105.533
-104.528
-103.569
-102.653
-101.77
-100.916
-100.084
-99.2671
-98.4607
-97.6592
-96.8581
-96.054
-95.2464
-94.4379
-93.6345
-92.8434
-92.0706
-91.3182
-90.5841
-89.863
-89.1485
-88.4359
-87.7203
-86.996
-86.2591
-85.5082
-84.7429
-83.9636
-83.1718
-82.3674
-81.5519
-80.726
-79.8902
-79.0446
-78.1892
-77.3242
-76.4498
-75.5667
-74.6754
-73.7768
-72.8716
-71.9604
-71.0435
-70.1212
-69.1935
-68.2604
-67.3218
-66.3777
-65.4279
-64.4722
-63.5105
-62.5427
-61.5686
-60.588
-59.6011
-58.6076
-57.6076
-56.6011
-55.588
-54.5686
-53.5425
-52.5108
-51.4728
-50.4305
-49.3827
-48.3324
-152.552
-152.622
-152.718
-152.827
-152.949
-153.075
-153.186
-153.286
-153.368
-153.412
-153.413
-153.377
-153.317
-153.241
-153.155
-153.066
-152.98
-152.898
-152.825
-152.765
-152.718
-152.681
-152.65
-152.616
-152.57
-152.501
-152.398
-152.25
-152.046
-151.779
-151.441
-151.029
-150.543
-149.98
-149.347
-148.649
-147.894
-147.09
-146.246
-145.375
-144.488
-143.603
-142.732
-141.889
-141.079
-140.31
-139.586
-138.916
-138.307
-137.766
-137.306
-136.943
-136.721
-136.677
-136.834
-137.058
-137.156
-137.054
-136.777
-136.389
-135.943
-135.446
-134.911
-134.351
-133.813
-133.398
-133.179
-132.995
-132.649
-132.13
-131.685
-131.498
-131.586
-131.874
-132.279
-132.729
-133.163
-133.536
-133.843
-134.111
-134.381
-134.674
-134.992
-135.318
-135.629
-135.893
-136.08
-136.157
-136.098
-135.885
-135.508
-134.969
-134.239
-133.359
-132.344
-131.213
-129.986
-128.682
-127.318
-125.909
-124.465
-122.998
-121.514
-120.024
-118.534
-117.054
-115.595
-114.165
-112.773
-111.428
-110.136
-108.902
-107.728
-106.614
-105.56
-104.56
-103.61
-102.703
-101.832
-100.99
-100.171
-99.3675
-98.574
-97.7848
-96.9946
-96.1985
-95.3944
-94.5839
-93.7731
-92.9706
-92.1847
-91.4199
-90.6753
-89.9458
-89.2244
-88.5041
-87.7791
-87.047
-86.3053
-85.5501
-84.7801
-83.9962
-83.1994
-82.3904
-81.5705
-80.7404
-79.9007
-79.0517
-78.1934
-77.3259
-76.4495
-75.5647
-74.6722
-73.7727
-72.8669
-71.9555
-71.0385
-70.1163
-69.1889
-68.2561
-67.3179
-66.3742
-65.4247
-64.4694
-63.508
-62.5405
-61.5667
-60.5865
-59.5999
-58.6067
-57.6071
-56.601
-55.5883
-54.5692
-53.5437
-52.5122
-51.4746
-50.4319
-49.3836
-48.3309
-152.358
-152.408
-152.486
-152.584
-152.7
-152.827
-152.951
-153.062
-153.159
-153.236
-153.297
-153.344
-153.382
-153.417
-153.455
-153.501
-153.558
-153.628
-153.71
-153.803
-153.906
-154.012
-154.113
-154.198
-154.254
-154.268
-154.228
-154.124
-153.945
-153.685
-153.339
-152.906
-152.383
-151.779
-151.095
-150.338
-149.517
-148.643
-147.724
-146.771
-145.798
-144.82
-143.855
-142.92
-142.028
-141.19
-140.412
-139.7
-139.058
-138.494
-138.016
-137.646
-137.422
-137.392
-137.593
-137.863
-137.912
-137.671
-137.208
-136.66
-136.091
-135.518
-134.93
-134.328
-133.818
-133.491
-133.297
-133.119
-132.856
-132.547
-132.352
-132.351
-132.542
-132.874
-133.291
-133.729
-134.121
-134.428
-134.671
-134.904
-135.17
-135.477
-135.816
-136.168
-136.503
-136.787
-136.988
-137.07
-137.006
-136.772
-136.357
-135.757
-134.978
-134.033
-132.945
-131.741
-130.446
-129.082
-127.668
-126.218
-124.742
-123.247
-121.739
-120.226
-118.713
-117.211
-115.728
-114.277
-112.865
-111.503
-110.197
-108.953
-107.773
-106.659
-105.606
-104.612
-103.67
-102.772
-101.912
-101.081
-100.273
-99.4807
-98.6982
-97.9198
-97.1397
-96.3524
-95.5541
-94.7452
-93.931
-93.1209
-92.3242
-91.5463
-90.7884
-90.0476
-89.317
-88.5887
-87.8566
-87.1158
-86.3635
-85.5999
-84.8237
-84.0341
-83.2315
-82.417
-81.5918
-80.7568
-79.9127
-79.0598
-78.1982
-77.3281
-76.4494
-75.5628
-74.6688
-73.7683
-72.8619
-71.9501
-71.033
-70.1109
-69.1837
-68.2513
-67.3135
-66.3701
-65.4211
-64.4662
-63.5052
-62.538
-61.5646
-60.5847
-59.5983
-58.6055
-57.6062
-56.6005
-55.5882
-54.5696
-53.5445
-52.5132
-51.4758
-50.4328
-49.3838
-48.3292
-151.993
-152.029
-152.095
-152.179
-152.278
-152.391
-152.516
-152.653
-152.798
-152.947
-153.1
-153.258
-153.424
-153.602
-153.795
-154.005
-154.233
-154.477
-154.733
-154.997
-155.26
-155.514
-155.747
-155.947
-156.1
-156.195
-156.215
-156.15
-155.992
-155.737
-155.382
-154.927
-154.367
-153.705
-152.955
-152.135
-151.255
-150.324
-149.348
-148.332
-147.286
-146.221
-145.154
-144.107
-143.105
-142.168
-141.311
-140.54
-139.859
-139.271
-138.783
-138.411
-138.185
-138.161
-138.364
-138.624
-138.57
-138.161
-137.549
-136.888
-136.247
-135.634
-135.013
-134.411
-133.932
-133.603
-133.369
-133.169
-132.979
-132.853
-132.857
-133.011
-133.297
-133.681
-134.123
-134.562
-134.922
-135.187
-135.403
-135.642
-135.934
-136.275
-136.651
-137.04
-137.414
-137.737
-137.971
-138.075
-138.017
-137.768
-137.315
-136.659
-135.808
-134.779
-133.603
-132.311
-130.936
-129.504
-128.035
-126.543
-125.034
-123.512
-121.982
-120.447
-118.912
-117.387
-115.881
-114.407
-112.974
-111.594
-110.275
-109.021
-107.837
-106.722
-105.673
-104.686
-103.752
-102.865
-102.015
-101.195
-100.397
-99.6142
-98.8406
-98.0707
-97.2991
-96.5197
-95.7278
-94.922
-94.1065
-93.291
-92.4862
-91.6992
-90.9302
-90.1755
-89.4306
-88.6902
-87.948
-87.1982
-86.4372
-85.6632
-84.8766
-84.0781
-83.2684
-82.4474
-81.6161
-80.7755
-79.9263
-79.069
-78.2037
-77.3306
-76.4496
-75.561
-74.6654
-73.7637
-72.8564
-71.9442
-71.0271
-70.1051
-69.1781
-68.246
-67.3086
-66.3657
-65.4171
-64.4626
-63.502
-62.5352
-61.5621
-60.5826
-59.5966
-58.6041
-57.6051
-56.5997
-55.5878
-54.5696
-53.5448
-52.5138
-51.4765
-50.4332
-49.3835
-48.3275
-151.661
-151.685
-151.732
-151.804
-151.891
-152.003
-152.143
-152.309
-152.502
-152.722
-152.968
-153.242
-153.543
-153.871
-154.226
-154.606
-155.007
-155.423
-155.847
-156.27
-156.681
-157.07
-157.423
-157.73
-157.977
-158.15
-158.234
-158.215
-158.079
-157.819
-157.431
-156.914
-156.272
-155.523
-154.684
-153.775
-152.813
-151.816
-150.799
-149.771
-148.729
-147.657
-146.546
-145.413
-144.293
-143.231
-142.261
-141.4
-140.649
-140.009
-139.483
-139.079
-138.823
-138.746
-138.895
-139.066
-138.893
-138.356
-137.659
-136.95
-136.292
-135.663
-135.03
-134.454
-133.993
-133.632
-133.358
-133.166
-133.067
-133.084
-133.234
-133.499
-133.861
-134.297
-134.778
-135.232
-135.582
-135.832
-136.053
-136.325
-136.661
-137.051
-137.481
-137.932
-138.376
-138.768
-139.062
-139.208
-139.165
-138.9
-138.398
-137.675
-136.732
-135.597
-134.31
-132.912
-131.442
-129.932
-128.404
-126.868
-125.328
-123.785
-122.237
-120.684
-119.13
-117.584
-116.056
-114.559
-113.104
-111.706
-110.372
-109.109
-107.92
-106.806
-105.761
-104.782
-103.858
-102.982
-102.143
-101.334
-100.546
-99.7722
-99.006
-98.2427
-97.4772
-96.7038
-95.9171
-95.115
-94.3006
-93.4819
-92.6698
-91.8733
-91.0944
-90.3286
-89.5698
-88.8136
-88.0562
-87.2936
-86.5215
-85.737
-84.9397
-84.1304
-83.3106
-82.4814
-81.6431
-80.7963
-79.9415
-79.0792
-78.2097
-77.3331
-76.4495
-75.5588
-74.6615
-73.7585
-72.8504
-71.9377
-71.0205
-70.0987
-69.172
-68.2402
-67.3032
-66.3607
-65.4126
-64.4586
-63.4985
-62.5321
-61.5594
-60.5802
-59.5945
-58.6023
-57.6037
-56.5987
-55.5871
-54.5692
-53.5448
-52.514
-51.4768
-50.4331
-49.3828
-48.3256
-151.429
-151.442
-151.475
-151.526
-151.615
-151.734
-151.89
-152.09
-152.336
-152.629
-152.97
-153.356
-153.786
-154.257
-154.762
-155.294
-155.844
-156.403
-156.959
-157.505
-158.034
-158.538
-159.01
-159.436
-159.803
-160.093
-160.287
-160.36
-160.286
-160.04
-159.611
-159.03
-158.308
-157.451
-156.474
-155.408
-154.286
-153.145
-152.019
-150.924
-149.864
-148.823
-147.761
-146.641
-145.468
-144.296
-143.196
-142.214
-141.362
-140.634
-140.03
-139.548
-139.205
-138.986
-139.021
-139.018
-138.759
-138.153
-137.464
-136.786
-136.151
-135.53
-134.923
-134.385
-133.925
-133.545
-133.275
-133.135
-133.132
-133.261
-133.507
-133.844
-134.26
-134.744
-135.267
-135.751
-136.115
-136.377
-136.627
-136.949
-137.342
-137.797
-138.305
-138.85
-139.393
-139.884
-140.262
-140.466
-140.446
-140.165
-139.588
-138.801
-137.751
-136.489
-135.067
-133.541
-131.96
-130.362
-128.768
-127.188
-125.621
-124.061
-122.499
-120.933
-119.364
-117.799
-116.25
-114.732
-113.258
-111.842
-110.493
-109.221
-108.028
-106.914
-105.875
-104.904
-103.991
-103.126
-102.3
-101.502
-100.724
-99.9584
-99.1989
-98.4409
-97.6797
-96.9099
-96.1263
-95.3266
-94.5135
-93.6938
-92.877
-92.0716
-91.2811
-90.5028
-89.7303
-88.9582
-88.1834
-87.4039
-86.6174
-85.8206
-85.0115
-84.1904
-83.3592
-82.5197
-81.6728
-80.8188
-79.9578
-79.0901
-78.216
-77.3356
-76.449
-75.556
-74.6571
-73.7528
-72.8438
-71.9307
-71.0134
-70.0917
-69.1653
-68.2339
-67.2973
-66.3553
-65.4077
-64.4542
-63.4945
-62.5286
-61.5563
-60.5775
-59.5921
-58.6003
-57.602
-56.5973
-55.5861
-54.5685
-53.5445
-52.5139
-51.4767
-50.4328
-49.3819
-48.3237
-151.335
-151.342
-151.367
-151.415
-151.496
-151.619
-151.792
-152.026
-152.325
-152.69
-153.119
-153.609
-154.152
-154.739
-155.36
-156.001
-156.653
-157.307
-157.959
-158.609
-159.258
-159.908
-160.554
-161.187
-161.785
-162.316
-162.74
-163.014
-163.099
-162.964
-162.596
-161.983
-161.138
-160.089
-158.877
-157.551
-156.161
-154.753
-153.367
-152.043
-150.82
-149.715
-148.676
-147.614
-146.472
-145.251
-144.034
-142.915
-141.934
-141.092
-140.377
-139.783
-139.306
-138.937
-138.755
-138.546
-138.223
-137.609
-136.997
-136.395
-135.805
-135.222
-134.669
-134.163
-133.709
-133.348
-133.126
-133.063
-133.152
-133.368
-133.677
-134.059
-134.513
-135.037
-135.603
-136.129
-136.529
-136.824
-137.119
-137.502
-137.967
-138.505
-139.117
-139.782
-140.454
-141.07
-141.557
-141.838
-141.858
-141.579
-140.997
-140.064
-138.873
-137.459
-135.879
-134.202
-132.491
-130.789
-129.123
-127.499
-125.909
-124.337
-122.768
-121.193
-119.612
-118.031
-116.464
-114.926
-113.433
-112
-110.64
-109.36
-108.164
-107.052
-106.019
-105.056
-104.154
-103.302
-102.487
-101.7
-100.931
-100.174
-99.4201
-98.6662
-97.908
-97.1406
-96.3587
-95.5601
-94.7472
-93.9266
-93.1061
-92.2929
-91.4906
-90.6979
-89.9099
-89.1212
-88.3283
-87.5297
-86.7249
-85.9126
-85.0905
-84.2572
-83.4137
-82.5626
-81.7055
-80.843
-79.9751
-79.1016
-78.2225
-77.3379
-76.4479
-75.5524
-74.6518
-73.7463
-72.8365
-71.923
-71.0056
-70.0841
-69.158
-68.227
-67.2909
-66.3494
-65.4023
-64.4493
-63.4902
-62.5248
-61.5529
-60.5745
-59.5895
-58.598
-57.6
-56.5956
-55.5848
-54.5675
-53.5437
-52.5133
-51.4761
-50.4321
-49.3807
-48.3217
-151.395
-151.398
-151.417
-151.458
-151.535
-151.662
-151.852
-152.117
-152.463
-152.89
-153.393
-153.963
-154.588
-155.253
-155.945
-156.652
-157.367
-158.092
-158.834
-159.605
-160.415
-161.272
-162.171
-163.089
-163.99
-164.819
-165.515
-166.012
-166.257
-166.207
-165.844
-165.153
-164.164
-162.92
-161.479
-159.903
-158.252
-156.578
-154.915
-153.301
-151.798
-150.474
-149.346
-148.309
-147.216
-146.002
-144.7
-143.447
-142.328
-141.359
-140.524
-139.809
-139.196
-138.684
-138.27
-137.919
-137.458
-136.916
-136.361
-135.817
-135.279
-134.749
-134.247
-133.775
-133.354
-133.048
-132.904
-132.929
-133.102
-133.385
-133.742
-134.154
-134.634
-135.187
-135.792
-136.367
-136.825
-137.174
-137.523
-137.974
-138.52
-139.158
-139.892
-140.702
-141.525
-142.291
-142.906
-143.277
-143.339
-143.049
-142.396
-141.376
-140.045
-138.466
-136.715
-134.873
-133.018
-131.204
-129.46
-127.792
-126.183
-124.606
-123.035
-121.458
-119.869
-118.276
-116.693
-115.139
-113.63
-112.184
-110.813
-109.529
-108.332
-107.224
-106.197
-105.244
-104.353
-103.511
-102.708
-101.93
-101.17
-100.419
-99.6703
-98.9191
-98.1623
-97.3958
-96.6145
-95.8158
-95.0021
-94.1795
-93.3548
-92.5341
-91.72
-90.912
-90.1065
-89.2997
-88.488
-87.6697
-86.8448
-86.0137
-85.1758
-84.3291
-83.4731
-82.6096
-81.7412
-80.869
-79.9931
-79.1131
-78.2287
-77.3397
-76.4461
-75.5481
-74.6456
-73.739
-72.8286
-71.9147
-70.9972
-70.0759
-69.1502
-68.2196
-67.284
-66.343
-65.3964
-64.444
-63.4854
-62.5205
-61.5492
-60.5712
-59.5866
-58.5954
-57.5978
-56.5937
-55.5831
-54.5661
-53.5425
-52.5123
-51.4752
-50.431
-49.3792
-48.3197
-151.593
-151.59
-151.603
-151.637
-151.712
-151.842
-152.044
-152.333
-152.713
-153.184
-153.737
-154.359
-155.031
-155.737
-156.463
-157.202
-157.957
-158.739
-159.57
-160.47
-161.455
-162.53
-163.679
-164.865
-166.033
-167.111
-168.026
-168.7
-169.064
-169.073
-168.703
-167.963
-166.864
-165.449
-163.787
-161.962
-160.059
-158.155
-156.292
-154.48
-152.734
-151.159
-149.843
-148.773
-147.71
-146.514
-145.154
-143.777
-142.531
-141.441
-140.489
-139.656
-138.924
-138.283
-137.715
-137.246
-136.681
-136.201
-135.649
-135.134
-134.633
-134.146
-133.678
-133.243
-132.885
-132.664
-132.613
-132.727
-132.974
-133.314
-133.711
-134.139
-134.638
-135.21
-135.841
-136.466
-136.995
-137.415
-137.831
-138.35
-138.981
-139.722
-140.58
-141.534
-142.508
-143.413
-144.141
-144.581
-144.664
-144.353
-143.639
-142.531
-141.085
-139.37
-137.47
-135.481
-133.495
-131.581
-129.767
-128.06
-126.435
-124.857
-123.292
-121.718
-120.128
-118.527
-116.933
-115.365
-113.844
-112.388
-111.013
-109.727
-108.535
-107.433
-106.415
-105.472
-104.591
-103.76
-102.966
-102.198
-101.445
-100.699
-99.9527
-99.2027
-98.4456
-97.6781
-96.8958
-96.0959
-95.2802
-94.4539
-93.6231
-92.7929
-91.966
-91.1419
-90.318
-89.4915
-88.6598
-87.8214
-86.9756
-86.124
-85.2675
-84.4052
-83.5359
-82.6598
-81.7794
-80.8966
-80.0118
-79.1246
-78.2344
-77.3407
-76.4436
-75.5428
-74.6385
-73.7308
-72.8199
-71.9057
-70.9882
-70.0671
-69.1417
-68.2117
-67.2766
-66.3361
-65.3901
-64.4382
-63.4802
-62.5159
-61.545
-60.5676
-59.5834
-58.5926
-57.5953
-56.5914
-55.5811
-54.5644
-53.541
-52.511
-51.4739
-50.4297
-49.3776
-48.3176
-151.884
-151.878
-151.887
-151.917
-151.989
-152.118
-152.324
-152.622
-153.019
-153.512
-154.09
-154.733
-155.422
-156.138
-156.87
-157.617
-158.389
-159.209
-160.105
-161.105
-162.225
-163.469
-164.813
-166.211
-167.593
-168.878
-169.984
-170.829
-171.339
-171.451
-171.131
-170.352
-169.134
-167.535
-165.641
-163.561
-161.405
-159.277
-157.252
-155.322
-153.444
-151.681
-150.203
-149.045
-147.982
-146.785
-145.39
-143.921
-142.561
-141.359
-140.305
-139.369
-138.535
-137.786
-137.115
-136.519
-135.961
-135.423
-134.897
-134.406
-133.939
-133.482
-133.035
-132.634
-132.346
-132.219
-132.264
-132.463
-132.778
-133.164
-133.589
-134.046
-134.549
-135.122
-135.762
-136.424
-137.025
-137.539
-138.028
-138.605
-139.309
-140.139
-141.099
-142.159
-143.24
-144.241
-145.037
-145.515
-145.606
-145.276
-144.523
-143.355
-141.833
-140.028
-138.027
-135.935
-133.859
-131.876
-130.017
-128.286
-126.654
-125.081
-123.526
-121.96
-120.374
-118.772
-117.173
-115.598
-114.07
-112.611
-111.237
-109.956
-108.772
-107.681
-106.674
-105.742
-104.871
-104.049
-103.263
-102.501
-101.753
-101.011
-100.267
-99.5166
-98.7582
-97.9883
-97.2035
-96.4014
-95.5829
-94.752
-93.9135
-93.0715
-92.2291
-91.3867
-90.5427
-89.6949
-88.8417
-87.9819
-87.115
-86.2421
-85.3653
-84.4853
-83.601
-82.7119
-81.8193
-80.9252
-80.0308
-79.1357
-78.2393
-77.3408
-76.4399
-75.5365
-74.6304
-73.7217
-72.8103
-71.896
-70.9786
-70.0577
-69.1327
-68.2031
-67.2686
-66.3287
-65.3832
-64.4319
-63.4745
-62.5108
-61.5405
-60.5636
-59.5799
-58.5895
-57.5925
-56.5889
-55.5789
-54.5623
-53.5392
-52.5093
-51.4723
-50.428
-49.3757
-48.3154
-152.248
-152.242
-152.25
-152.275
-152.343
-152.464
-152.662
-152.951
-153.341
-153.829
-154.403
-155.042
-155.724
-156.428
-157.146
-157.881
-158.648
-159.476
-160.396
-161.441
-162.626
-163.955
-165.401
-166.909
-168.401
-169.789
-170.979
-171.889
-172.446
-172.583
-172.261
-171.449
-170.173
-168.496
-166.511
-164.33
-162.069
-159.841
-157.724
-155.732
-153.812
-151.978
-150.399
-149.161
-148.079
-146.865
-145.428
-143.884
-142.432
-141.141
-140.006
-138.993
-138.077