/*--------------------------------*- C++ -*----------------------------------*\
  =========                 |
  \\      /  F ield         | OpenFOAM: The Open Source CFD Toolbox
   \\    /   O peration     | Website:  https://openfoam.org
    \\  /    A nd           | Version:  7
     \\/     M anipulation  |
\*---------------------------------------------------------------------------*/
FoamFile
{
    version     2.0;
    format      ascii;
    class       surfaceScalarField;
    location    "0.088";
    object      phi_0;
}
// * * * * * * * * * * * * * * * * * * * * * * * * * * * * * * * * * * * * * //

dimensions      [0 3 -1 0 0 0 0];

internalField   nonuniform List<scalar> 
24170
(
1.39152e-06
1.94311e-07
1.25875e-06
1.32766e-07
1.12118e-06
1.37567e-07
1.003e-06
1.1818e-07
8.95675e-07
1.0733e-07
7.91426e-07
1.04248e-07
6.93498e-07
9.79289e-08
6.05239e-07
8.82589e-08
5.25816e-07
7.94227e-08
4.53826e-07
7.19901e-08
3.89261e-07
6.45647e-08
3.32992e-07
5.62689e-08
2.85757e-07
4.72358e-08
2.4686e-07
3.88963e-08
2.13647e-07
3.32133e-08
1.82695e-07
3.09518e-08
1.53256e-07
2.94395e-08
1.97587e-08
1.33497e-07
1.68726e-06
2.17887e-07
1.66233e-06
1.57697e-07
1.62811e-06
1.71787e-07
1.58915e-06
1.57135e-07
1.54978e-06
1.46706e-07
1.50781e-06
1.46212e-07
1.46329e-06
1.42452e-07
1.41617e-06
1.35376e-07
1.36443e-06
1.31165e-07
1.30707e-06
1.29345e-07
1.24728e-06
1.24355e-07
1.18974e-06
1.13815e-07
1.13844e-06
9.85304e-08
1.09143e-06
8.59121e-08
1.04682e-06
7.7822e-08
1.00099e-06
7.67812e-08
9.47802e-07
8.26268e-08
7.9079e-08
8.88482e-07
1.7925e-06
2.67544e-07
1.77894e-06
1.71255e-07
1.76766e-06
1.83076e-07
1.75481e-06
1.69983e-07
1.7465e-06
1.55016e-07
1.7403e-06
1.52413e-07
1.7317e-06
1.51043e-07
1.71937e-06
1.47707e-07
1.70425e-06
1.46284e-07
1.68739e-06
1.46207e-07
1.66899e-06
1.42761e-07
1.64912e-06
1.33686e-07
1.62775e-06
1.19893e-07
1.60499e-06
1.08679e-07
1.58021e-06
1.02594e-07
1.55441e-06
1.02583e-07
1.52483e-06
1.12208e-07
1.14741e-07
1.48917e-06
1.93426e-06
2.81288e-07
1.9297e-06
1.75814e-07
1.91906e-06
1.93721e-07
1.89844e-06
1.90607e-07
1.87987e-06
1.73582e-07
1.86778e-06
1.64499e-07
1.85942e-06
1.59409e-07
1.85298e-06
1.5415e-07
1.8492e-06
1.50061e-07
1.84852e-06
1.46886e-07
1.84907e-06
1.42214e-07
1.8481e-06
1.34654e-07
1.84316e-06
1.24835e-07
1.83504e-06
1.168e-07
1.82452e-06
1.1311e-07
1.81371e-06
1.13388e-07
1.80507e-06
1.20855e-07
1.2611e-07
1.7937e-06
2.05151e-06
3.14889e-07
2.04e-06
1.87324e-07
2.02852e-06
2.052e-07
2.01688e-06
2.02247e-07
2.00713e-06
1.83331e-07
2.00107e-06
1.70559e-07
1.99744e-06
1.63037e-07
1.99427e-06
1.57325e-07
1.99104e-06
1.53291e-07
1.98821e-06
1.49709e-07
1.98587e-06
1.44556e-07
1.98352e-06
1.37007e-07
1.98042e-06
1.27936e-07
1.97718e-06
1.20036e-07
1.97436e-06
1.15936e-07
1.97235e-06
1.15399e-07
1.97303e-06
1.20166e-07
1.26891e-07
1.97225e-06
2.23308e-06
3.47143e-07
2.20921e-06
2.11198e-07
2.19874e-06
2.15667e-07
2.1878e-06
2.1319e-07
2.18037e-06
1.90756e-07
2.17832e-06
1.72611e-07
2.17725e-06
1.64112e-07
2.17269e-06
1.61879e-07
2.16405e-06
1.61931e-07
2.15333e-06
1.60434e-07
2.14271e-06
1.5517e-07
2.13349e-06
1.46231e-07
2.12606e-06
1.35364e-07
2.1209e-06
1.25202e-07
2.11844e-06
1.18394e-07
2.1184e-06
1.15437e-07
2.1212e-06
1.17363e-07
1.2368e-07
2.12441e-06
2.41678e-06
3.60634e-07
2.38762e-06
2.40353e-07
2.36834e-06
2.34948e-07
2.34823e-06
2.33298e-07
2.3314e-06
2.0759e-07
2.32453e-06
1.7948e-07
2.32526e-06
1.63379e-07
2.32838e-06
1.5876e-07
2.33113e-06
1.59186e-07
2.33269e-06
1.58874e-07
2.33258e-06
1.55273e-07
2.33032e-06
1.48497e-07
2.32582e-06
1.39861e-07
2.3199e-06
1.31124e-07
2.31411e-06
1.24182e-07
2.30951e-06
1.20039e-07
2.30727e-06
1.19602e-07
1.23649e-07
2.3073e-06
2.61101e-06
3.96805e-07
2.54458e-06
3.06789e-07
2.50872e-06
2.70805e-07
2.4913e-06
2.50718e-07
2.48283e-06
2.16058e-07
2.48222e-06
1.80091e-07
2.48835e-06
1.57248e-07
2.49924e-06
1.47877e-07
2.51263e-06
1.45788e-07
2.52593e-06
1.45573e-07
2.53635e-06
1.4486e-07
2.54166e-06
1.43183e-07
2.54106e-06
1.4046e-07
2.53521e-06
1.36973e-07
2.52602e-06
1.33378e-07
2.5154e-06
1.30657e-07
2.50543e-06
1.29577e-07
1.31505e-07
2.49757e-06
2.77237e-06
4.02934e-07
2.76445e-06
3.14709e-07
2.75187e-06
2.83388e-07
2.74317e-06
2.5941e-07
2.73763e-06
2.21605e-07
2.73235e-06
1.85374e-07
2.72722e-06
1.62373e-07
2.72338e-06
1.51721e-07
2.72072e-06
1.48443e-07
2.7183e-06
1.47993e-07
2.71566e-06
1.47504e-07
2.7132e-06
1.45637e-07
2.71152e-06
1.42146e-07
2.71074e-06
1.37748e-07
2.71045e-06
1.33669e-07
2.70994e-06
1.31164e-07
2.70872e-06
1.30803e-07
1.33261e-07
2.70696e-06
2.97827e-06
4.25028e-07
2.94291e-06
3.50069e-07
2.93526e-06
2.91036e-07
2.94239e-06
2.5228e-07
2.94883e-06
2.15171e-07
2.95178e-06
1.8242e-07
2.95335e-06
1.60802e-07
2.95261e-06
1.52466e-07
2.94727e-06
1.53783e-07
2.93763e-06
1.57629e-07
2.92704e-06
1.58098e-07
2.91935e-06
1.53328e-07
2.91651e-06
1.44982e-07
2.91812e-06
1.3614e-07
2.92226e-06
1.29531e-07
2.92693e-06
1.2649e-07
2.93068e-06
1.27054e-07
1.30763e-07
2.93318e-06
3.17127e-06
4.2257e-07
3.16141e-06
3.5993e-07
3.16019e-06
2.92258e-07
3.16586e-06
2.46612e-07
3.17447e-06
2.06562e-07
3.1854e-06
1.71485e-07
3.19598e-06
1.5022e-07
3.20292e-06
1.45532e-07
3.20466e-06
1.52038e-07
3.2016e-06
1.60687e-07
3.19539e-06
1.64316e-07
3.18804e-06
1.6067e-07
3.1812e-06
1.51827e-07
3.17591e-06
1.41427e-07
3.17269e-06
1.32748e-07
3.17156e-06
1.27625e-07
3.17243e-06
1.26185e-07
1.28524e-07
3.17467e-06
2.88742e-06
3.88608e-07
2.87699e-06
3.70358e-07
2.85935e-06
3.09896e-07
2.84993e-06
2.56038e-07
2.84891e-06
2.07583e-07
2.85013e-06
1.70258e-07
2.85118e-06
1.49176e-07
2.85378e-06
1.42928e-07
2.85904e-06
1.46777e-07
2.86522e-06
1.54513e-07
2.86922e-06
1.60307e-07
2.86908e-06
1.60809e-07
2.8651e-06
1.55812e-07
2.85934e-06
1.47189e-07
2.85461e-06
1.37477e-07
2.85279e-06
1.29445e-07
2.855e-06
1.23972e-07
1.2298e-07
2.86055e-06
3.59012e-06
3.71595e-07
3.55577e-06
4.0471e-07
3.52462e-06
3.41048e-07
3.50903e-06
2.71632e-07
3.49728e-06
2.19327e-07
3.48028e-06
1.8726e-07
3.45944e-06
1.70019e-07
3.44098e-06
1.61387e-07
3.42957e-06
1.5819e-07
3.42569e-06
1.58386e-07
3.42701e-06
1.58992e-07
3.43082e-06
1.56994e-07
3.43584e-06
1.50798e-07
3.44179e-06
1.41235e-07
3.44916e-06
1.30102e-07
3.45813e-06
1.20479e-07
3.46861e-06
1.13489e-07
1.11124e-07
3.48047e-06
4.2962e-06
4.85709e-07
4.28263e-06
4.18278e-07
4.28368e-06
3.40004e-07
4.29037e-06
2.64939e-07
4.2902e-06
2.19494e-07
4.27938e-06
1.98087e-07
4.26124e-06
1.88158e-07
4.24152e-06
1.81106e-07
4.22624e-06
1.73473e-07
4.2197e-06
1.64921e-07
4.22297e-06
1.55724e-07
4.23378e-06
1.46181e-07
4.24829e-06
1.36292e-07
4.26241e-06
1.27117e-07
4.27319e-06
1.19318e-07
4.27958e-06
1.14093e-07
4.28191e-06
1.11156e-07
1.10262e-07
4.28277e-06
5.23832e-06
5.15318e-07
5.22722e-06
4.29379e-07
5.21402e-06
3.53209e-07
5.1993e-06
2.7966e-07
5.18113e-06
2.37656e-07
5.16345e-06
2.15772e-07
5.15521e-06
1.96399e-07
5.16196e-06
1.74356e-07
5.18262e-06
1.52809e-07
5.21119e-06
1.36349e-07
5.24015e-06
1.26765e-07
5.26342e-06
1.22917e-07
5.27792e-06
1.21786e-07
5.28358e-06
1.21457e-07
5.28242e-06
1.2048e-07
5.27762e-06
1.18897e-07
5.27233e-06
1.16443e-07
1.13595e-07
5.269e-06
6.37535e-06
4.6172e-07
6.42269e-06
3.82035e-07
6.4353e-06
3.40602e-07
6.42075e-06
2.94207e-07
6.40315e-06
2.55261e-07
6.39028e-06
2.28644e-07
6.37867e-06
2.08003e-07
6.36265e-06
1.90377e-07
6.34167e-06
1.73786e-07
6.32064e-06
1.57384e-07
6.30588e-06
1.41521e-07
6.30157e-06
1.27231e-07
6.30835e-06
1.15004e-07
6.32463e-06
1.05183e-07
6.34714e-06
9.79706e-08
6.37274e-06
9.32891e-08
6.39864e-06
9.05501e-08
8.94578e-08
6.42277e-06
7.74669e-06
4.39229e-07
7.78454e-06
3.44187e-07
7.79588e-06
3.29257e-07
7.7923e-06
2.97786e-07
7.78436e-06
2.63198e-07
7.78483e-06
2.28182e-07
7.7976e-06
1.95226e-07
7.81738e-06
1.70604e-07
7.83485e-06
1.56312e-07
7.84457e-06
1.47669e-07
7.84838e-06
1.37708e-07
7.85287e-06
1.2274e-07
7.86396e-06
1.03913e-07
7.88377e-06
8.53769e-08
7.9105e-06
7.12423e-08
7.94042e-06
6.33621e-08
7.96973e-06
6.12409e-08
6.31044e-08
7.99608e-06
9.40757e-06
4.18398e-07
9.43065e-06
3.21108e-07
9.48668e-06
2.73229e-07
9.52745e-06
2.57008e-07
9.53664e-06
2.54007e-07
9.52048e-06
2.44348e-07
9.5017e-06
2.14001e-07
9.49984e-06
1.72467e-07
9.52063e-06
1.35526e-07
9.55837e-06
1.09923e-07
9.60236e-06
9.37209e-08
9.64224e-06
8.28599e-08
9.6715e-06
7.46478e-08
9.68834e-06
6.85387e-08
9.69532e-06
6.42611e-08
9.69699e-06
6.1698e-08
9.69829e-06
5.99398e-08
5.81775e-08
9.70321e-06
1.16015e-05
4.39531e-07
1.15557e-05
3.66991e-07
1.15482e-05
2.80732e-07
1.15776e-05
2.27527e-07
1.16228e-05
2.08799e-07
1.16716e-05
1.95639e-07
1.17121e-05
1.73432e-07
1.1739e-05
1.45547e-07
1.17551e-05
1.19522e-07
1.17655e-05
9.94256e-08
1.17744e-05
8.48935e-08
1.17832e-05
7.40799e-08
1.17923e-05
6.5467e-08
1.18027e-05
5.82173e-08
1.18151e-05
5.17702e-08
1.18309e-05
4.5976e-08
1.18503e-05
4.05585e-08
3.59415e-08
1.18725e-05
8.55885e-06
4.6599e-07
8.52601e-06
3.99838e-07
8.51309e-06
2.93644e-07
8.53099e-06
2.09629e-07
8.56845e-06
1.71335e-07
8.60903e-06
1.55061e-07
8.64272e-06
1.39745e-07
8.66722e-06
1.2105e-07
8.68359e-06
1.03147e-07
8.69366e-06
8.93614e-08
8.69952e-06
7.90301e-08
8.70421e-06
6.93948e-08
8.71116e-06
5.85105e-08
8.7234e-06
4.59833e-08
8.74218e-06
3.29824e-08
8.76659e-06
2.15677e-08
8.79453e-06
1.2622e-08
7.70781e-09
8.82276e-06
7.38562e-06
5.54528e-07
7.38395e-06
4.01516e-07
7.38938e-06
2.88215e-07
7.39315e-06
2.05857e-07
7.40419e-06
1.60297e-07
7.42548e-06
1.33766e-07
7.45514e-06
1.1009e-07
7.48936e-06
8.68235e-08
7.52393e-06
6.85814e-08
7.55534e-06
5.79504e-08
7.58189e-06
5.24789e-08
7.60408e-06
4.72004e-08
7.6239e-06
3.86894e-08
7.64357e-06
2.63221e-08
7.66458e-06
1.19649e-08
7.68785e-06
-1.69889e-09
7.71332e-06
-1.2853e-08
-1.79538e-08
7.73899e-06
6.4988e-06
5.0159e-07
6.48993e-06
4.10384e-07
6.47712e-06
3.01023e-07
6.47245e-06
2.10529e-07
6.48505e-06
1.47701e-07
6.51409e-06
1.04719e-07
6.54791e-06
7.62754e-08
6.57699e-06
5.77382e-08
6.60017e-06
4.5405e-08
6.62079e-06
3.73301e-08
6.64061e-06
3.26574e-08
6.65822e-06
2.95887e-08
6.6714e-06
2.55087e-08
6.67955e-06
1.8175e-08
6.68476e-06
6.75169e-09
6.68883e-06
-5.76446e-09
6.69458e-06
-1.86036e-08
-2.78822e-08
6.70451e-06
5.5855e-06
5.16399e-07
5.56097e-06
4.34912e-07
5.60286e-06
2.59138e-07
5.65686e-06
1.56522e-07
5.70589e-06
9.86706e-08
5.74658e-06
6.40364e-08
5.77754e-06
4.5312e-08
5.80061e-06
3.46636e-08
5.81999e-06
2.60334e-08
5.83795e-06
1.93686e-08
5.85423e-06
1.63788e-08
5.86729e-06
1.65202e-08
5.87601e-06
1.67945e-08
5.88035e-06
1.38309e-08
5.88117e-06
5.93905e-09
5.88175e-06
-6.35111e-09
5.88331e-06
-2.01592e-08
-3.13496e-08
5.88678e-06
4.84409e-06
5.65396e-07
4.92904e-06
3.49965e-07
4.9876e-06
2.00577e-07
4.99954e-06
1.44582e-07
4.9952e-06
1.03011e-07
4.99711e-06
6.21279e-08
5.01279e-06
2.96307e-08
5.04054e-06
6.90769e-09
5.07279e-06
-6.20891e-09
5.10455e-06
-1.23992e-08
5.13252e-06
-1.15887e-08
5.15588e-06
-6.83616e-09
5.17529e-06
-2.62156e-09
5.19148e-06
-2.35696e-09
5.20459e-06
-7.17324e-09
5.21369e-06
-1.54469e-08
5.21848e-06
-2.4946e-08
-3.26168e-08
5.21974e-06
4.20317e-06
4.83883e-07
4.32935e-06
2.23786e-07
4.38696e-06
1.42968e-07
4.42127e-06
1.10269e-07
4.45247e-06
7.18142e-08
4.47654e-06
3.80586e-08
4.49078e-06
1.53922e-08
4.49668e-06
1.00567e-09
4.50114e-06
-1.06718e-08
4.50812e-06
-1.93773e-08
4.52137e-06
-2.48417e-08
4.54087e-06
-2.63357e-08
4.56353e-06
-2.52793e-08
4.58505e-06
-2.38778e-08
4.60157e-06
-2.36902e-08
4.61123e-06
-2.51052e-08
4.61395e-06
-2.76725e-08
-3.04046e-08
4.61174e-06
3.7332e-06
4.04317e-07
3.78636e-06
1.70624e-07
3.8278e-06
1.01529e-07
3.86583e-06
7.22375e-08
3.90097e-06
3.66787e-08
3.93078e-06
8.24282e-09
3.95283e-06
-6.65913e-09
3.96895e-06
-1.51089e-08
3.9798e-06
-2.15233e-08
3.98786e-06
-2.74351e-08
3.99539e-06
-3.23722e-08
4.00405e-06
-3.49924e-08
4.0138e-06
-3.50311e-08
4.02322e-06
-3.33046e-08
4.03055e-06
-3.10144e-08
4.03466e-06
-2.9214e-08
4.03538e-06
-2.83991e-08
-2.86312e-08
4.03361e-06
3.25421e-06
3.08133e-07
3.33422e-06
9.06191e-08
3.37447e-06
6.12787e-08
3.40356e-06
4.31454e-08
3.42336e-06
1.68839e-08
3.43414e-06
-2.54363e-09
3.44247e-06
-1.49826e-08
3.45207e-06
-2.47141e-08
3.46476e-06
-3.42101e-08
3.47879e-06
-4.14688e-08
3.49161e-06
-4.51943e-08
3.50213e-06
-4.55094e-08
3.5107e-06
-4.36036e-08
3.51836e-06
-4.0965e-08
3.52594e-06
-3.85879e-08
3.53381e-06
-3.70879e-08
3.5418e-06
-3.63876e-08
-3.6405e-08
3.54957e-06
2.85739e-06
2.34924e-07
2.91037e-06
3.76377e-08
2.94367e-06
2.79826e-08
2.98278e-06
4.04106e-09
3.01395e-06
-1.42879e-08
3.03602e-06
-2.46157e-08
3.05306e-06
-3.2025e-08
3.06814e-06
-3.97907e-08
3.0814e-06
-4.74685e-08
3.09267e-06
-5.27383e-08
3.1019e-06
-5.44253e-08
3.10929e-06
-5.28973e-08
3.11509e-06
-4.94046e-08
3.11949e-06
-4.5364e-08
3.12267e-06
-4.17703e-08
3.12491e-06
-3.93291e-08
3.12655e-06
-3.80309e-08
-3.78966e-08
3.12804e-06
2.50202e-06
7.49463e-08
2.56157e-06
-2.19174e-08
2.59968e-06
-1.01213e-08
2.62391e-06
-2.0187e-08
2.64283e-06
-3.32139e-08
2.66225e-06
-4.40351e-08
2.67954e-06
-4.93164e-08
2.68762e-06
-4.78638e-08
2.68389e-06
-4.37471e-08
2.67247e-06
-4.13087e-08
2.65977e-06
-4.17254e-08
2.65029e-06
-4.34176e-08
2.64516e-06
-4.42807e-08
2.64313e-06
-4.33336e-08
2.64222e-06
-4.08565e-08
2.64073e-06
-3.78449e-08
2.63772e-06
-3.50219e-08
-3.31907e-08
2.63302e-06
2.08813e-06
2.06621e-06
2.05609e-06
2.0359e-06
2.00269e-06
1.95866e-06
1.90934e-06
1.86148e-06
1.81773e-06
1.77642e-06
1.73469e-06
1.69128e-06
1.647e-06
1.60366e-06
1.56281e-06
1.52496e-06
1.48994e-06
1.45675e-06
-2.48807e-08
2.48807e-08
-4.41823e-08
1.93016e-08
-4.49903e-08
8.0794e-10
-2.22748e-08
-2.27155e-08
2.02313e-08
-4.2506e-08
7.42921e-08
-5.40608e-08
1.322e-07
-5.79082e-08
1.87276e-07
-5.50753e-08
2.35639e-07
-4.83635e-08
2.74555e-07
-3.89162e-08
3.02534e-07
-2.79788e-08
3.19298e-07
-1.67635e-08
3.23914e-07
-4.61592e-09
3.15617e-07
8.29653e-09
2.94224e-07
2.13929e-08
2.60949e-07
3.3275e-08
2.17246e-07
4.37028e-08
1.64492e-07
5.27547e-08
1.0531e-07
5.91816e-08
4.42009e-08
6.1109e-08
-1.40584e-08
5.82594e-08
-6.61565e-08
5.2098e-08
-1.10403e-07
4.42466e-08
-1.46813e-07
3.64096e-08
-1.76266e-07
2.94537e-08
-1.98876e-07
2.26096e-08
-2.15847e-07
1.69709e-08
-2.28325e-07
1.24786e-08
-2.36978e-07
8.65304e-09
-2.42221e-07
5.2421e-09
-2.43939e-07
1.71823e-09
-2.40853e-07
-3.08608e-09
-2.3099e-07
-9.86234e-09
-2.16403e-07
-1.45873e-08
-1.94127e-07
-2.22762e-08
-1.6714e-07
-2.69866e-08
-1.41867e-07
-2.5273e-08
-1.07411e-07
-3.44564e-08
-9.52364e-08
-1.21745e-08
-1.01559e-07
6.32264e-09
-1.02721e-07
1.16187e-09
-2.31905e-07
1.29184e-07
-3.8111e-07
1.49205e-07
-3.55055e-07
-2.60551e-08
-2.26348e-07
-1.28706e-07
-6.84215e-08
-1.57927e-07
4.73061e-08
-1.15728e-07
1.08251e-07
-6.09447e-08
1.77558e-07
-6.93074e-08
3.13483e-07
-1.35925e-07
4.83503e-07
-1.70019e-07
6.0527e-07
-1.21767e-07
6.4144e-07
-3.61698e-08
6.03091e-07
3.83485e-08
5.12543e-07
9.05478e-08
3.83951e-07
1.28592e-07
2.21057e-07
1.62894e-07
2.09219e-08
2.00135e-07
-2.05243e-07
2.26165e-07
-4.2785e-07
2.22607e-07
-6.04462e-07
1.76611e-07
-6.96359e-07
9.18968e-08
-6.77162e-07
-1.91962e-08
-5.42088e-07
-1.35074e-07
-2.74597e-07
-2.67492e-07
1.35484e-07
-4.1008e-07
5.93545e-07
-4.58061e-07
8.54183e-07
-2.60638e-07
8.42669e-07
1.15134e-08
7.39431e-07
1.03238e-07
7.72732e-07
-3.33011e-08
9.62184e-07
-1.89451e-07
1.16068e-06
-1.98494e-07
1.28497e-06
-1.24291e-07
1.26266e-06
2.2306e-08
9.48497e-07
3.14165e-07
2.0982e-07
7.38677e-07
-7.55343e-07
9.65163e-07
-1.62979e-06
8.74445e-07
-2.35078e-06
7.20992e-07
-2.92367e-06
5.72893e-07
-3.37042e-06
4.46748e-07
-3.71657e-06
3.46152e-07
-3.98491e-06
2.68333e-07
-4.19381e-06
2.08905e-07
-4.3568e-06
1.62985e-07
-4.48321e-06
1.26411e-07
-4.57923e-06
9.6027e-08
-4.64873e-06
6.94935e-08
-4.69387e-06
4.51482e-08
-4.71599e-06
2.21198e-08
-4.71597e-06
-2.46259e-11
-4.69591e-06
-2.00588e-08
-4.65622e-06
-3.96911e-08
-4.59782e-06
-5.84029e-08
-4.52166e-06
-7.61591e-08
-4.42886e-06
-9.28008e-08
-4.32067e-06
-1.08188e-07
-4.19847e-06
-1.22201e-07
-4.06372e-06
-1.34744e-07
-3.91796e-06
-1.45763e-07
-3.76272e-06
-1.55239e-07
-3.59954e-06
-1.63178e-07
-3.42995e-06
-1.69597e-07
-3.2554e-06
-1.74546e-07
-3.07732e-06
-1.78086e-07
-2.89703e-06
-1.8029e-07
-2.71578e-06
-1.81243e-07
-2.53472e-06
-1.81059e-07
-2.35485e-06
-1.79871e-07
-2.17701e-06
-1.7784e-07
-2.00183e-06
-1.75182e-07
-1.82968e-06
-1.72156e-07
-1.66067e-06
-1.69007e-07
-1.49469e-06
-1.65981e-07
-1.33134e-06
-1.63351e-07
-1.16999e-06
-1.61347e-07
-1.00983e-06
-1.60154e-07
-8.4992e-07
-1.59915e-07
-6.89249e-07
-1.60672e-07
-5.26868e-07
-1.62381e-07
-3.6199e-07
-1.64878e-07
-1.93996e-07
-1.67994e-07
-2.27189e-08
-1.71277e-07
1.51055e-07
-1.73774e-07
3.26641e-07
-1.75586e-07
5.02061e-07
-1.75419e-07
6.74607e-07
-1.72546e-07
8.40977e-07
-1.6637e-07
9.97603e-07
-1.56627e-07
1.14104e-06
-1.43437e-07
1.2683e-06
-1.27256e-07
1.3772e-06
-1.08906e-07
1.46672e-06
-8.95148e-08
1.53673e-06
-7.00118e-08
1.58758e-06
-5.08501e-08
1.62047e-06
-3.28859e-08
1.63739e-06
-1.69246e-08
1.63956e-06
-2.16814e-09
1.62763e-06
1.19257e-08
1.60266e-06
2.49764e-08
1.5654e-06
3.72598e-08
1.51617e-06
4.92311e-08
1.4558e-06
6.03706e-08
1.38644e-06
6.93592e-08
1.31172e-06
7.47142e-08
1.23618e-06
7.55413e-08
1.16431e-06
7.18756e-08
1.09955e-06
6.47537e-08
1.04378e-06
5.57705e-08
9.97338e-07
4.64429e-08
9.59485e-07
3.78531e-08
9.28924e-07
3.05604e-08
9.04234e-07
2.46909e-08
8.84127e-07
2.01069e-08
8.6756e-07
1.65669e-08
8.53725e-07
1.38347e-08
8.42e-07
1.17251e-08
8.31894e-07
1.01064e-08
8.23015e-07
8.87825e-09
8.1505e-07
7.96524e-09
8.07753e-07
7.29712e-09
8.0092e-07
6.83309e-09
7.94386e-07
6.53367e-09
7.87981e-07
6.40512e-09
7.81577e-07
6.40414e-09
7.74957e-07
6.61952e-09
7.67997e-07
6.95994e-09
7.6033e-07
7.66765e-09
7.51884e-07
8.4458e-09
7.41921e-07
9.96304e-09
7.30629e-07
1.12919e-08
7.16353e-07
1.42761e-08
7.00289e-07
1.60643e-08
6.78052e-07
2.22367e-08
6.54554e-07
2.3498e-08
6.16916e-07
3.76384e-08
5.83703e-07
3.32121e-08
5.13777e-07
6.99262e-08
4.38934e-08
4.69884e-07
7.40736e-08
-4.91929e-08
1.72839e-07
-7.94638e-08
2.85807e-07
-1.1216e-07
4.01165e-07
-1.38074e-07
5.11062e-07
-1.52403e-07
6.10221e-07
-1.53221e-07
6.93887e-07
-1.41574e-07
7.60316e-07
-1.21504e-07
8.08664e-07
-9.67111e-08
8.37942e-07
-6.81943e-08
8.4792e-07
-3.79571e-08
8.43213e-07
-1.20559e-08
8.26877e-07
1.172e-08
7.97884e-07
3.72896e-08
7.58256e-07
6.10204e-08
7.11027e-07
8.05039e-08
6.5549e-07
9.92402e-08
5.85602e-07
1.22642e-07
5.01296e-07
1.43488e-07
4.09132e-07
1.53273e-07
3.18842e-07
1.48549e-07
2.37854e-07
1.33086e-07
1.66249e-07
1.15852e-07
9.74291e-08
1.0523e-07
2.47901e-08
1.02093e-07
-5.51925e-08
1.02592e-07
-1.40922e-07
1.027e-07
-2.2834e-07
9.98967e-08
-3.12816e-07
9.31285e-08
-3.89457e-07
8.1883e-08
-4.53819e-07
6.60804e-08
-5.02786e-07
4.58812e-08
-5.34612e-07
2.1964e-08
-5.45858e-07
-3.34145e-09
-5.35931e-07
-3.22037e-08
-5.03383e-07
-5.9534e-08
-4.4656e-07
-8.20962e-08
-3.76187e-07
-1.04829e-07
-2.73038e-07
-1.15324e-07
-1.46047e-07
-1.20668e-07
-3.52212e-09
-1.41363e-07
2.20168e-07
-9.45064e-08
4.64103e-07
-9.47297e-08
6.1611e-07
-1.78062e-07
7.24955e-07
-2.37551e-07
8.06053e-07
-2.39025e-07
8.44457e-07
-1.54132e-07
8.55786e-07
-7.22729e-08
8.71942e-07
-8.54634e-08
8.81813e-07
-1.45797e-07
8.61176e-07
-1.49383e-07
8.22794e-07
-8.33845e-08
7.80483e-07
6.14072e-09
7.52036e-07
6.6796e-08
7.29758e-07
1.12826e-07
6.9637e-07
1.6198e-07
6.26362e-07
2.32902e-07
4.98771e-07
3.27727e-07
3.28347e-07
3.96589e-07
1.6614e-07
3.84814e-07
5.72493e-08
2.85502e-07
1.80256e-08
1.31121e-07
4.73332e-08
-4.85038e-08
1.39687e-07
-2.27428e-07
2.93963e-07
-4.21767e-07
5.42821e-07
-6.58939e-07
9.29254e-07
-8.44493e-07
1.34499e-06
-6.76376e-07
1.51977e-06
-1.63263e-07
1.47183e-06
1.51178e-07
1.51066e-06
-7.21304e-08
1.64002e-06
-3.18817e-07
1.56816e-06
-1.26628e-07
1.08863e-06
3.55236e-07
1.67247e-07
9.43688e-07
-9.32033e-07
1.41345e-06
-1.84476e-06
1.6514e-06
-2.49076e-06
1.61117e-06
-3.0061e-06
1.38978e-06
-3.41844e-06
1.13334e-06
-3.74239e-06
8.96844e-07
-3.99624e-06
7.00591e-07
-4.19664e-06
5.46558e-07
-4.35679e-06
4.28477e-07
-4.48594e-06
3.38063e-07
-4.59022e-06
2.67264e-07
-4.67317e-06
2.09354e-07
-4.73648e-06
1.59344e-07
-4.78089e-06
1.13897e-07
-4.80669e-06
7.0953e-08
-4.81386e-06
2.92928e-08
-4.80266e-06
-1.12317e-08
-4.77221e-06
-5.05014e-08
-4.72298e-06
-8.8922e-08
-4.65544e-06
-1.25942e-07
-4.57047e-06
-1.6113e-07
-4.46916e-06
-1.94119e-07
-4.35275e-06
-2.24595e-07
-4.22265e-06
-2.52298e-07
-4.08035e-06
-2.77043e-07
-3.92738e-06
-2.98737e-07
-3.76525e-06
-3.17363e-07
-3.59548e-06
-3.32956e-07
-3.4195e-06
-3.45577e-07
-3.23874e-06
-3.55302e-07
-3.05458e-06
-3.62244e-07
-2.86832e-06
-3.66552e-07
-2.68116e-06
-3.68404e-07
-2.4942e-06
-3.6802e-07
-2.3084e-06
-3.65665e-07
-2.12459e-06
-3.61659e-07
-1.94335e-06
-3.5642e-07
-1.76505e-06
-3.50454e-07
-1.58979e-06
-3.44262e-07
-1.41745e-06
-3.38327e-07
-1.24761e-06
-3.33189e-07
-1.07965e-06
-3.29308e-07
-9.12778e-07
-3.27025e-07
-7.46053e-07
-3.26639e-07
-5.7843e-07
-3.28295e-07
-4.08964e-07
-3.31846e-07
-2.3677e-07
-3.37072e-07
-6.12247e-08
-3.43539e-07
1.17494e-07
-3.49996e-07
2.99917e-07
-3.56197e-07
4.84872e-07
-3.60541e-07
6.70768e-07
-3.61315e-07
8.55273e-07
-3.57052e-07
1.03548e-06
-3.46581e-07
1.20824e-06
-3.29378e-07
1.37042e-06
-3.0562e-07
1.51927e-06
-2.76109e-07
1.65259e-06
-2.42224e-07
1.76874e-06
-2.05662e-07
1.86672e-06
-1.67999e-07
1.94663e-06
-1.30756e-07
2.00915e-06
-9.5407e-08
2.05519e-06
-6.29696e-08
2.08703e-06
-3.40025e-08
2.1076e-06
-8.65018e-09
2.11911e-06
1.34666e-08
2.12363e-06
3.27399e-08
2.12278e-06
5.00882e-08
2.11747e-06
6.56762e-08
2.10798e-06
7.88533e-08
2.09439e-06
8.82993e-08
2.07674e-06
9.31907e-08
2.05543e-06
9.31911e-08
2.03119e-06
8.89892e-08
2.00493e-06
8.20348e-08
1.9775e-06
7.38692e-08
1.94968e-06
6.5675e-08
1.92214e-06
5.80955e-08
1.89553e-06
5.13103e-08
1.87038e-06
4.52535e-08
1.84713e-06
3.98207e-08
1.82599e-06
3.49685e-08
1.80701e-06
3.07109e-08
1.79004e-06
2.70696e-08
1.77489e-06
2.40311e-08
1.76131e-06
2.1543e-08
1.74909e-06
1.9518e-08
1.73804e-06
1.78817e-08
1.72803e-06
1.65496e-08
1.71892e-06
1.55151e-08
1.7106e-06
1.47155e-08
1.70293e-06
1.42915e-08
1.69578e-06
1.41154e-08
1.68883e-06
1.46159e-08
1.68199e-06
1.52805e-08
1.67466e-06
1.73005e-08
1.66699e-06
1.89541e-08
1.65763e-06
2.36452e-08
1.64757e-06
2.61178e-08
1.63363e-06
3.6175e-08
1.6188e-06
3.83333e-08
1.5962e-06
6.02339e-08
1.57177e-06
5.76427e-08
1.53531e-06
1.06388e-07
8.99837e-08
1.48922e-06
6.43821e-08
-1.13575e-07
2.46608e-07
-2.6169e-07
4.5926e-07
-3.24812e-07
6.55776e-07
-3.3459e-07
8.21654e-07
-3.18281e-07
9.53269e-07
-2.84835e-07
1.05106e-06
-2.39367e-07
1.11998e-06
-1.90421e-07
1.16257e-06
-1.39305e-07
1.17877e-06
-8.43915e-08
1.17343e-06
-3.26224e-08
1.14924e-06
1.21434e-08
1.10237e-06
5.85869e-08
1.02867e-06
1.10984e-07
9.27908e-07
1.61786e-07
8.10721e-07
1.97691e-07
6.9027e-07
2.19691e-07
5.68117e-07
2.44794e-07
4.3565e-07
2.75956e-07
2.9231e-07
2.96613e-07
1.35383e-07
3.05476e-07
-3.54345e-08
3.03903e-07
-2.20201e-07
3.00618e-07
-4.16378e-07
3.01407e-07
-6.18746e-07
3.04461e-07
-8.19496e-07
3.03342e-07
-1.00935e-06
2.92559e-07
-1.17959e-06
2.70136e-07
-1.32406e-06
2.37591e-07
-1.4395e-06
1.97328e-07
-1.52459e-06
1.51167e-07
-1.57921e-06
1.005e-07
-1.60415e-06
4.69074e-08
-1.59946e-06
-8.03272e-09
-1.56607e-06
-6.5587e-08
-1.50433e-06
-1.21276e-07
-1.41213e-06
-1.74294e-07
-1.29473e-06
-2.22234e-07
-1.147e-06
-2.63049e-07
-9.67123e-07
-3.00549e-07
-7.76475e-07
-3.32012e-07
-5.31367e-07
-3.39615e-07
-2.60065e-07
-3.66032e-07
-4.05533e-09
-4.34072e-07
2.41581e-07
-4.83188e-07
4.93294e-07
-4.90738e-07
7.87808e-07
-4.48647e-07
1.11578e-06
-4.00244e-07
1.41137e-06
-3.81057e-07
1.61761e-06
-3.52038e-07
1.72193e-06
-2.53697e-07
1.74526e-06
-1.06719e-07
1.73183e-06
1.95747e-08
1.67572e-06
1.22907e-07
1.56964e-06
2.18908e-07
1.41989e-06
3.11723e-07
1.25883e-06
3.93969e-07
1.11678e-06
4.69771e-07
1.00279e-06
5.1058e-07
9.27746e-07
4.59858e-07
8.89858e-07
3.2339e-07
8.92006e-07
1.28972e-07
9.52527e-07
-1.09024e-07
1.06378e-06
-3.38679e-07
1.18036e-06
-5.38345e-07
1.30097e-06
-7.79555e-07
1.43191e-06
-9.75432e-07
1.53724e-06
-7.81707e-07
1.57087e-06
-1.96889e-07
1.63175e-06
9.02927e-08
1.63076e-06
-7.11402e-08
1.26114e-06
5.0804e-08
4.66868e-07
6.67646e-07
-5.45658e-07
1.36776e-06
-1.48565e-06
1.88368e-06
-2.2129e-06
2.14069e-06
-2.6917e-06
2.1302e-06
-2.99846e-06
1.91793e-06
-3.23396e-06
1.62528e-06
-3.43306e-06
1.33244e-06
-3.6089e-06
1.07268e-06
-3.76671e-06
8.58407e-07
-3.90921e-06
6.89052e-07
-4.03803e-06
5.57301e-07
-4.15363e-06
4.53662e-07
-4.25558e-06
3.69217e-07
-4.34294e-06
2.96712e-07
-4.41444e-06
2.30844e-07
-4.46874e-06
1.68199e-07
-4.50463e-06
1.0684e-07
-4.5213e-06
4.596e-08
-4.5183e-06
-1.42246e-08
-4.49485e-06
-7.39554e-08
-4.45158e-06
-1.32196e-07
-4.38925e-06
-1.88267e-07
-4.30873e-06
-2.41647e-07
-4.21114e-06
-2.91713e-07
-4.09783e-06
-3.37906e-07
-3.97034e-06
-3.79785e-07
-3.83033e-06
-4.17059e-07
-3.67945e-06
-4.49612e-07
-3.51934e-06
-4.77473e-07
-3.35154e-06
-5.00754e-07
-3.17752e-06
-5.19598e-07
-2.9987e-06
-5.34128e-07
-2.81646e-06
-5.4448e-07
-2.63216e-06
-5.50854e-07
-2.44706e-06
-5.53504e-07
-2.26234e-06
-5.52741e-07
-2.07905e-06
-5.48956e-07
-1.89807e-06
-5.4264e-07
-1.72006e-06
-5.34424e-07
-1.54544e-06
-5.25073e-07
-1.37433e-06
-5.15378e-07
-1.20657e-06
-5.06085e-07
-1.04172e-06
-4.98036e-07
-8.79057e-07
-4.91975e-07
-7.17774e-07
-4.88309e-07
-5.56867e-07
-4.87546e-07
-3.9516e-07
-4.90001e-07
-2.31724e-07
-4.95282e-07
-6.57501e-08
-5.03047e-07
1.03049e-07
-5.12338e-07
2.7548e-07
-5.22428e-07
4.51115e-07
-5.31831e-07
6.28814e-07
-5.3824e-07
8.06584e-07
-5.39085e-07
9.81587e-07
-5.32055e-07
1.15054e-06
-5.15537e-07
1.3104e-06
-4.8923e-07
1.45904e-06
-4.54268e-07
1.59562e-06
-4.12688e-07
1.72003e-06
-3.66634e-07
1.83211e-06
-3.17741e-07
1.93123e-06
-2.6712e-07
2.01644e-06
-2.15965e-07
2.08682e-06
-1.65781e-07
2.14186e-06
-1.18014e-07
2.18168e-06
-7.38197e-08
2.20738e-06
-3.43512e-08
2.22128e-06
-4.3384e-10
2.22707e-06
2.69469e-08
2.22833e-06
4.88339e-08
2.22822e-06
6.57776e-08
2.22861e-06
7.84674e-08
2.22983e-06
8.70783e-08
2.23134e-06
9.16826e-08
2.23222e-06
9.23105e-08
2.23155e-06
8.96585e-08
2.22864e-06
8.49435e-08
2.22311e-06
7.94061e-08
2.21481e-06
7.39701e-08
2.20384e-06
6.90691e-08
2.19044e-06
6.47095e-08
2.17502e-06
6.06742e-08
2.15811e-06
5.67273e-08
2.14035e-06
5.27333e-08
2.12238e-06
4.86768e-08
2.10482e-06
4.463e-08
2.08816e-06
4.06944e-08
2.07272e-06
3.69769e-08
2.0587e-06
3.354e-08
2.04613e-06
3.0448e-08
2.03498e-06
2.77002e-08
2.02512e-06
2.53778e-08
2.01641e-06
2.34241e-08
2.00864e-06
2.20611e-08
2.00167e-06
2.10859e-08
1.99525e-06
2.10382e-08
1.98929e-06
2.12362e-08
1.98354e-06
2.30566e-08
1.97799e-06
2.45053e-08
1.97237e-06
2.92639e-08
1.96663e-06
3.18603e-08
1.96073e-06
4.20698e-08
1.95372e-06
4.5344e-08
1.94723e-06
6.67203e-08
1.93595e-06
6.89233e-08
1.92977e-06
1.12568e-07
1.13748e-07
1.90601e-06
1.62807e-07
-2.76382e-07
4.05765e-07
-5.04648e-07
6.19427e-07
-5.38473e-07
7.85355e-07
-5.00518e-07
9.11102e-07
-4.44028e-07
9.98023e-07
-3.71756e-07
1.05041e-06
-2.91754e-07
1.07749e-06
-2.17502e-07
1.07547e-06
-1.37278e-07
1.03202e-06
-4.09499e-08
9.4643e-07
5.29716e-08
8.43863e-07
1.14711e-07
7.32939e-07
1.6951e-07
6.00424e-07
2.435e-07
4.51975e-07
3.10235e-07
2.95222e-07
3.54443e-07
1.27496e-07
3.87417e-07
-5.31958e-08
4.25486e-07
-2.50901e-07
4.73661e-07
-4.7387e-07
5.19582e-07
-7.22201e-07
5.53806e-07
-9.88458e-07
5.70161e-07
-1.25999e-06
5.72152e-07
-1.5196e-06
5.61017e-07
-1.75246e-06
5.37318e-07
-1.95355e-06
5.04435e-07
-2.1232e-06
4.62206e-07
-2.26379e-06
4.10725e-07
-2.37706e-06
3.50867e-07
-2.46351e-06
2.8377e-07
-2.52295e-06
2.10612e-07
-2.55512e-06
1.32671e-07
-2.55968e-06
5.14689e-08
-2.53512e-06
-3.25976e-08
-2.48293e-06
-1.17773e-07
-2.40216e-06
-2.02051e-07
-2.29309e-06
-2.83362e-07
-2.15569e-06
-3.5963e-07
-1.98808e-06
-4.30659e-07
-1.79176e-06
-4.9687e-07
-1.56939e-06
-5.54389e-07
-1.30681e-06
-6.02186e-07
-1.02444e-06
-6.48402e-07
-7.60081e-07
-6.98436e-07
-5.03389e-07
-7.3988e-07
-2.3146e-07
-7.62666e-07
7.83539e-08
-7.58461e-07
4.1838e-07
-7.4027e-07
7.56462e-07
-7.1914e-07
1.09093e-06
-6.86503e-07
1.45134e-06
-6.14109e-07
1.82897e-06
-4.8435e-07
2.16743e-06
-3.18887e-07
2.42175e-06
-1.31407e-07
2.5676e-06
7.30573e-08
2.60354e-06
2.75782e-07
2.55136e-06
4.46148e-07
2.45935e-06
5.61782e-07
2.36892e-06
6.01005e-07
2.28881e-06
5.39968e-07
2.2071e-06
4.05105e-07
2.12234e-06
2.13732e-07
2.07599e-06
-6.26779e-08
2.08117e-06
-3.43855e-07
2.09236e-06
-5.49532e-07
2.08952e-06
-7.76723e-07
2.03584e-06
-9.2175e-07
1.94825e-06
-6.94114e-07
1.92233e-06
-1.70972e-07
1.82474e-06
1.87883e-07
1.28884e-06
4.64758e-07
3.01752e-07
1.03789e-06
-7.53789e-07
1.72319e-06
-1.63217e-06
2.24615e-06
-2.25582e-06
2.50733e-06
-2.63713e-06
2.522e-06
-2.85679e-06
2.34986e-06
-3.00282e-06
2.06396e-06
-3.12231e-06
1.74478e-06
-3.23045e-06
1.44058e-06
-3.33624e-06
1.17846e-06
-3.44497e-06
9.67145e-07
-3.55873e-06
8.02804e-07
-3.67634e-06
6.74914e-07
-3.79424e-06
5.71559e-07
-3.90752e-06
4.82505e-07
-4.01151e-06
4.00695e-07
-4.102e-06
3.21333e-07
-4.17542e-06
2.41623e-07
-4.22919e-06
1.60614e-07
-4.26184e-06
7.86031e-08
-4.27206e-06
-4.00306e-09
-4.25951e-06
-8.65075e-08
-4.22533e-06
-1.66376e-07
-4.17023e-06
-2.43361e-07
-4.09515e-06
-3.16727e-07
-4.00149e-06
-3.85375e-07
-3.89089e-06
-4.48506e-07
-3.76515e-06
-5.05521e-07
-3.62618e-06
-5.56031e-07
-3.47587e-06
-5.99922e-07
-3.31604e-06
-6.37309e-07
-3.14836e-06
-6.68431e-07
-2.97439e-06
-6.93566e-07
-2.79556e-06
-7.12959e-07
-2.61323e-06
-7.26813e-07
-2.42869e-06
-7.35386e-07
-2.2432e-06
-7.38994e-07
-2.05795e-06
-7.37998e-07
-1.87402e-06
-7.32883e-07
-1.69234e-06
-7.24322e-07
-1.51362e-06
-7.13138e-07
-1.3384e-06
-7.00299e-07
-1.16688e-06
-6.86892e-07
-9.9902e-07
-6.73948e-07
-8.34424e-07
-6.62631e-07
-6.72333e-07
-6.54066e-07
-5.12004e-07
-6.48638e-07
-3.52279e-07
-6.47271e-07
-1.91993e-07
-6.50288e-07
-3.03804e-08
-6.56895e-07
1.33937e-07
-6.67364e-07
3.01974e-07
-6.80375e-07
4.74431e-07
-6.94884e-07
6.51402e-07
-7.08803e-07
8.32148e-07
-7.18986e-07
1.01452e-06
-7.21455e-07
1.19453e-06
-7.12071e-07
1.36654e-06
-6.87545e-07
1.52406e-06
-6.46747e-07
1.66157e-06