# vtk DataFile Version 2.0
sampleSurface
ASCII
DATASET POLYDATA
POINTS 502 double
-0.0206 0 -0.0005
-0.0190172 0 -0.0005
-0.0190172 0 0.0005
-0.0206 0 0.0005
-0.0174976 0 -0.0005
-0.0174976 0 0.0005
-0.0160387 0 -0.0005
-0.0160387 0 0.0005
-0.0146381 0 -0.0005
-0.0146381 0 0.0005
-0.0132934 0 -0.0005
-0.0132934 0 0.0005
-0.0120025 0 -0.0005
-0.0120025 0 0.0005
-0.0107632 0 -0.0005
-0.0107632 0 0.0005
-0.00957337 0 -0.0005
-0.00957337 0 0.0005
-0.00843108 0 -0.0005
-0.00843108 0 0.0005
-0.00733443 0 -0.0005
-0.00733443 0 0.0005
-0.0062816 0 -0.0005
-0.0062816 0 0.0005
-0.00527083 0 -0.0005
-0.00527083 0 0.0005
-0.00430044 0 -0.0005
-0.00430044 0 0.0005
-0.00336883 0 -0.0005
-0.00336883 0 0.0005
-0.00247443 0 -0.0005
-0.00247443 0 0.0005
-0.00161577 0 -0.0005
-0.00161577 0 0.0005
-0.000791418 0 -0.0005
-0.000791418 0 0.0005
0 0 -0.0005
0 0 0.0005
0 -0.0254 -0.0005
0 -0.0254 0.0005
0 -0.0242711 0.0005
0 -0.0242711 -0.0005
0 -0.0231422 0.0005
0 -0.0231422 -0.0005
0 -0.0220133 0.0005
0 -0.0220133 -0.0005
0 -0.0208844 0.0005
0 -0.0208844 -0.0005
0 -0.0197556 0.0005
0 -0.0197556 -0.0005
0 -0.0186267 0.0005
0 -0.0186267 -0.0005
0 -0.0174978 0.0005
0 -0.0174978 -0.0005
0 -0.0163689 0.0005
0 -0.0163689 -0.0005
0 -0.01524 0.0005
0 -0.01524 -0.0005
0 -0.0141111 0.0005
0 -0.0141111 -0.0005
0 -0.0129822 0.0005
0 -0.0129822 -0.0005
0 -0.0118533 0.0005
0 -0.0118533 -0.0005
0 -0.0107244 0.0005
0 -0.0107244 -0.0005
0 -0.00959556 0.0005
0 -0.00959556 -0.0005
0 -0.00846667 0.0005
0 -0.00846667 -0.0005
0 -0.00726604 0.0005
0 -0.00726604 -0.0005
0 -0.00618989 0.0005
0 -0.00618989 -0.0005
0 -0.00522531 0.0005
0 -0.00522531 -0.0005
0 -0.00436073 0.0005
0 -0.00436073 -0.0005
0 -0.00358579 0.0005
0 -0.00358579 -0.0005
0 -0.00289118 0.0005
0 -0.00289118 -0.0005
0 -0.0022686 0.0005
0 -0.0022686 -0.0005
0 -0.00171055 0.0005
0 -0.00171055 -0.0005
0 -0.00121037 0.0005
0 -0.00121037 -0.0005
0 -0.000762037 0.0005
0 -0.000762037 -0.0005
0 -0.000360188 0.0005
0 -0.000360188 -0.0005
0.000528387 -0.0254 -0.0005
0.000528387 -0.0254 0.0005
0.00106088 -0.0254 -0.0005
0.00106088 -0.0254 0.0005
0.00159752 -0.0254 -0.0005
0.00159752 -0.0254 0.0005
0.00213833 -0.0254 -0.0005
0.00213833 -0.0254 0.0005
0.00268334 -0.0254 -0.0005
0.00268334 -0.0254 0.0005
0.00323259 -0.0254 -0.0005
0.00323259 -0.0254 0.0005
0.00378611 -0.0254 -0.0005
0.00378611 -0.0254 0.0005
0.00434393 -0.0254 -0.0005
0.00434393 -0.0254 0.0005
0.00490609 -0.0254 -0.0005
0.00490609 -0.0254 0.0005
0.00547262 -0.0254 -0.0005
0.00547262 -0.0254 0.0005
0.00604356 -0.0254 -0.0005
0.00604356 -0.0254 0.0005
0.00661893 -0.0254 -0.0005
0.00661893 -0.0254 0.0005
0.00719878 -0.0254 -0.0005
0.00719878 -0.0254 0.0005
0.00778313 -0.0254 -0.0005
0.00778313 -0.0254 0.0005
0.00837203 -0.0254 -0.0005
0.00837203 -0.0254 0.0005
0.00896551 -0.0254 -0.0005
0.00896551 -0.0254 0.0005
0.0095636 -0.0254 -0.0005
0.0095636 -0.0254 0.0005
0.0101663 -0.0254 -0.0005
0.0101663 -0.0254 0.0005
0.0107738 -0.0254 -0.0005
0.0107738 -0.0254 0.0005
0.0113859 -0.0254 -0.0005
0.0113859 -0.0254 0.0005
0.0120028 -0.0254 -0.0005
0.0120028 -0.0254 0.0005
0.0126245 -0.0254 -0.0005
0.0126245 -0.0254 0.0005
0.0132511 -0.0254 -0.0005
0.0132511 -0.0254 0.0005
0.0138825 -0.0254 -0.0005
0.0138825 -0.0254 0.0005
0.0145188 -0.0254 -0.0005
0.0145188 -0.0254 0.0005
0.0151601 -0.0254 -0.0005
0.0151601 -0.0254 0.0005
0.0158063 -0.0254 -0.0005
0.0158063 -0.0254 0.0005
0.0164576 -0.0254 -0.0005
0.0164576 -0.0254 0.0005
0.0171139 -0.0254 -0.0005
0.0171139 -0.0254 0.0005
0.0177754 -0.0254 -0.0005
0.0177754 -0.0254 0.0005
0.018442 -0.0254 -0.0005
0.018442 -0.0254 0.0005
0.0191137 -0.0254 -0.0005
0.0191137 -0.0254 0.0005
0.0197907 -0.0254 -0.0005
0.0197907 -0.0254 0.0005
0.020473 -0.0254 -0.0005
0.020473 -0.0254 0.0005
0.0211606 -0.0254 -0.0005
0.0211606 -0.0254 0.0005
0.0218535 -0.0254 -0.0005
0.0218535 -0.0254 0.0005
0.0225517 -0.0254 -0.0005
0.0225517 -0.0254 0.0005
0.0232555 -0.0254 -0.0005
0.0232555 -0.0254 0.0005
0.0239647 -0.0254 -0.0005
0.0239647 -0.0254 0.0005
0.0246794 -0.0254 -0.0005
0.0246794 -0.0254 0.0005
0.0253996 -0.0254 -0.0005
0.0253996 -0.0254 0.0005
0.0261255 -0.0254 -0.0005
0.0261255 -0.0254 0.0005
0.026857 -0.0254 -0.0005
0.026857 -0.0254 0.0005
0.0275942 -0.0254 -0.0005
0.0275942 -0.0254 0.0005
0.0283371 -0.0254 -0.0005
0.0283371 -0.0254 0.0005
0.0290858 -0.0254 -0.0005
0.0290858 -0.0254 0.0005
0.0298403 -0.0254 -0.0005
0.0298403 -0.0254 0.0005
0.0306007 -0.0254 -0.0005
0.0306007 -0.0254 0.0005
0.031367 -0.0254 -0.0005
0.031367 -0.0254 0.0005
0.0321393 -0.0254 -0.0005
0.0321393 -0.0254 0.0005
0.0329175 -0.0254 -0.0005
0.0329175 -0.0254 0.0005
0.0337019 -0.0254 -0.0005
0.0337019 -0.0254 0.0005
0.0344923 -0.0254 -0.0005
0.0344923 -0.0254 0.0005
0.0352888 -0.0254 -0.0005
0.0352888 -0.0254 0.0005
0.0360916 -0.0254 -0.0005
0.0360916 -0.0254 0.0005
0.0369006 -0.0254 -0.0005
0.0369006 -0.0254 0.0005
0.0377158 -0.0254 -0.0005
0.0377158 -0.0254 0.0005
0.0385375 -0.0254 -0.0005
0.0385375 -0.0254 0.0005
0.0393655 -0.0254 -0.0005
0.0393655 -0.0254 0.0005
0.0401999 -0.0254 -0.0005
0.0401999 -0.0254 0.0005
0.0410408 -0.0254 -0.0005
0.0410408 -0.0254 0.0005
0.0418883 -0.0254 -0.0005
0.0418883 -0.0254 0.0005
0.0427424 -0.0254 -0.0005
0.0427424 -0.0254 0.0005
0.0436031 -0.0254 -0.0005
0.0436031 -0.0254 0.0005
0.0444704 -0.0254 -0.0005
0.0444704 -0.0254 0.0005
0.0453446 -0.0254 -0.0005
0.0453446 -0.0254 0.0005
0.0462255 -0.0254 -0.0005
0.0462255 -0.0254 0.0005
0.0471133 -0.0254 -0.0005
0.0471133 -0.0254 0.0005
0.048008 -0.0254 -0.0005
0.048008 -0.0254 0.0005
0.0489096 -0.0254 -0.0005
0.0489096 -0.0254 0.0005
0.0498183 -0.0254 -0.0005
0.0498183 -0.0254 0.0005
0.050734 -0.0254 -0.0005
0.050734 -0.0254 0.0005
0.0516568 -0.0254 -0.0005
0.0516568 -0.0254 0.0005
0.0525868 -0.0254 -0.0005
0.0525868 -0.0254 0.0005
0.053524 -0.0254 -0.0005
0.053524 -0.0254 0.0005
0.0544686 -0.0254 -0.0005
0.0544686 -0.0254 0.0005
0.0554204 -0.0254 -0.0005
0.0554204 -0.0254 0.0005
0.0563797 -0.0254 -0.0005
0.0563797 -0.0254 0.0005
0.0573464 -0.0254 -0.0005
0.0573464 -0.0254 0.0005
0.0583206 -0.0254 -0.0005
0.0583206 -0.0254 0.0005
0.0593025 -0.0254 -0.0005
0.0593025 -0.0254 0.0005
0.0602919 -0.0254 -0.0005
0.0602919 -0.0254 0.0005
0.0612891 -0.0254 -0.0005
0.0612891 -0.0254 0.0005
0.0622939 -0.0254 -0.0005
0.0622939 -0.0254 0.0005
0.0633067 -0.0254 -0.0005
0.0633067 -0.0254 0.0005
0.0643272 -0.0254 -0.0005
0.0643272 -0.0254 0.0005
0.0653557 -0.0254 -0.0005
0.0653557 -0.0254 0.0005
0.0663923 -0.0254 -0.0005
0.0663923 -0.0254 0.0005
0.0674368 -0.0254 -0.0005
0.0674368 -0.0254 0.0005
0.0684895 -0.0254 -0.0005
0.0684895 -0.0254 0.0005
0.0695504 -0.0254 -0.0005
0.0695504 -0.0254 0.0005
0.0706195 -0.0254 -0.0005
0.0706195 -0.0254 0.0005
0.0716969 -0.0254 -0.0005
0.0716969 -0.0254 0.0005
0.0727828 -0.0254 -0.0005
0.0727828 -0.0254 0.0005
0.073877 -0.0254 -0.0005
0.073877 -0.0254 0.0005
0.0749798 -0.0254 -0.0005
0.0749798 -0.0254 0.0005
0.0760911 -0.0254 -0.0005
0.0760911 -0.0254 0.0005
0.0772111 -0.0254 -0.0005
0.0772111 -0.0254 0.0005
0.0783398 -0.0254 -0.0005
0.0783398 -0.0254 0.0005
0.0794772 -0.0254 -0.0005
0.0794772 -0.0254 0.0005
0.0806235 -0.0254 -0.0005
0.0806235 -0.0254 0.0005
0.0817787 -0.0254 -0.0005
0.0817787 -0.0254 0.0005
0.0829429 -0.0254 -0.0005
0.0829429 -0.0254 0.0005
0.0841162 -0.0254 -0.0005
0.0841162 -0.0254 0.0005
0.0852985 -0.0254 -0.0005
0.0852985 -0.0254 0.0005
0.0864901 -0.0254 -0.0005
0.0864901 -0.0254 0.0005
0.0876909 -0.0254 -0.0005
0.0876909 -0.0254 0.0005
0.0889011 -0.0254 -0.0005
0.0889011 -0.0254 0.0005
0.0901207 -0.0254 -0.0005
0.0901207 -0.0254 0.0005
0.0913497 -0.0254 -0.0005
0.0913497 -0.0254 0.0005
0.0925883 -0.0254 -0.0005
0.0925883 -0.0254 0.0005
0.0938366 -0.0254 -0.0005
0.0938366 -0.0254 0.0005
0.0950945 -0.0254 -0.0005
0.0950945 -0.0254 0.0005
0.0963622 -0.0254 -0.0005
0.0963622 -0.0254 0.0005
0.0976398 -0.0254 -0.0005
0.0976398 -0.0254 0.0005
0.0989273 -0.0254 -0.0005
0.0989273 -0.0254 0.0005
0.100225 -0.0254 -0.0005
0.100225 -0.0254 0.0005
0.101532 -0.0254 -0.0005
0.101532 -0.0254 0.0005
0.10285 -0.0254 -0.0005
0.10285 -0.0254 0.0005
0.104178 -0.0254 -0.0005
0.104178 -0.0254 0.0005
0.105517 -0.0254 -0.0005
0.105517 -0.0254 0.0005
0.106865 -0.0254 -0.0005
0.106865 -0.0254 0.0005
0.108225 -0.0254 -0.0005
0.108225 -0.0254 0.0005
0.109594 -0.0254 -0.0005
0.109594 -0.0254 0.0005
0.110975 -0.0254 -0.0005
0.110975 -0.0254 0.0005
0.112366 -0.0254 -0.0005
0.112366 -0.0254 0.0005
0.113768 -0.0254 -0.0005
0.113768 -0.0254 0.0005
0.115181 -0.0254 -0.0005
0.115181 -0.0254 0.0005
0.116605 -0.0254 -0.0005
0.116605 -0.0254 0.0005
0.11804 -0.0254 -0.0005
0.11804 -0.0254 0.0005
0.119486 -0.0254 -0.0005
0.119486 -0.0254 0.0005
0.120943 -0.0254 -0.0005
0.120943 -0.0254 0.0005
0.122412 -0.0254 -0.0005
0.122412 -0.0254 0.0005
0.123892 -0.0254 -0.0005
0.123892 -0.0254 0.0005
0.125384 -0.0254 -0.0005
0.125384 -0.0254 0.0005
0.126887 -0.0254 -0.0005
0.126887 -0.0254 0.0005
0.128402 -0.0254 -0.0005
0.128402 -0.0254 0.0005
0.129928 -0.0254 -0.0005
0.129928 -0.0254 0.0005
0.131467 -0.0254 -0.0005
0.131467 -0.0254 0.0005
0.133017 -0.0254 -0.0005
0.133017 -0.0254 0.0005
0.13458 -0.0254 -0.0005
0.13458 -0.0254 0.0005
0.136155 -0.0254 -0.0005
0.136155 -0.0254 0.0005
0.137742 -0.0254 -0.0005
0.137742 -0.0254 0.0005
0.139341 -0.0254 -0.0005
0.139341 -0.0254 0.0005
0.140953 -0.0254 -0.0005
0.140953 -0.0254 0.0005
0.142577 -0.0254 -0.0005
0.142577 -0.0254 0.0005
0.144214 -0.0254 -0.0005
0.144214 -0.0254 0.0005
0.145863 -0.0254 -0.0005
0.145863 -0.0254 0.0005
0.147526 -0.0254 -0.0005
0.147526 -0.0254 0.0005
0.149201 -0.0254 -0.0005
0.149201 -0.0254 0.0005
0.15089 -0.0254 -0.0005
0.15089 -0.0254 0.0005
0.152591 -0.0254 -0.0005
0.152591 -0.0254 0.0005
0.154306 -0.0254 -0.0005
0.154306 -0.0254 0.0005
0.156034 -0.0254 -0.0005
0.156034 -0.0254 0.0005
0.157775 -0.0254 -0.0005
0.157775 -0.0254 0.0005
0.159531 -0.0254 -0.0005
0.159531 -0.0254 0.0005
0.161299 -0.0254 -0.0005
0.161299 -0.0254 0.0005
0.163082 -0.0254 -0.0005
0.163082 -0.0254 0.0005
0.164878 -0.0254 -0.0005
0.164878 -0.0254 0.0005
0.166688 -0.0254 -0.0005
0.166688 -0.0254 0.0005
0.168513 -0.0254 -0.0005
0.168513 -0.0254 0.0005
0.170351 -0.0254 -0.0005
0.170351 -0.0254 0.0005
0.172204 -0.0254 -0.0005
0.172204 -0.0254 0.0005
0.174071 -0.0254 -0.0005
0.174071 -0.0254 0.0005
0.175953 -0.0254 -0.0005
0.175953 -0.0254 0.0005
0.177849 -0.0254 -0.0005
0.177849 -0.0254 0.0005
0.17976 -0.0254 -0.0005
0.17976 -0.0254 0.0005
0.181686 -0.0254 -0.0005
0.181686 -0.0254 0.0005
0.183627 -0.0254 -0.0005
0.183627 -0.0254 0.0005
0.185583 -0.0254 -0.0005
0.185583 -0.0254 0.0005
0.187555 -0.0254 -0.0005
0.187555 -0.0254 0.0005
0.189541 -0.0254 -0.0005
0.189541 -0.0254 0.0005
0.191543 -0.0254 -0.0005
0.191543 -0.0254 0.0005
0.193561 -0.0254 -0.0005
0.193561 -0.0254 0.0005
0.195594 -0.0254 -0.0005
0.195594 -0.0254 0.0005
0.197643 -0.0254 -0.0005
0.197643 -0.0254 0.0005
0.199708 -0.0254 -0.0005
0.199708 -0.0254 0.0005
0.201789 -0.0254 -0.0005
0.201789 -0.0254 0.0005
0.203886 -0.0254 -0.0005
0.203886 -0.0254 0.0005
0.206 -0.0254 -0.0005
0.206 -0.0254 0.0005
0.208047 -0.0251856 -0.0005
0.208047 -0.0251856 0.0005
0.210173 -0.0249628 -0.0005
0.210173 -0.0249628 0.0005
0.212382 -0.0247314 -0.0005
0.212382 -0.0247314 0.0005
0.214677 -0.024491 -0.0005
0.214677 -0.024491 0.0005
0.217061 -0.0242412 -0.0005
0.217061 -0.0242412 0.0005
0.219538 -0.0239817 -0.0005
0.219538 -0.0239817 0.0005
0.222112 -0.0237121 -0.0005
0.222112 -0.0237121 0.0005
0.224785 -0.023432 -0.0005
0.224785 -0.023432 0.0005
0.227563 -0.023141 -0.0005
0.227563 -0.023141 0.0005
0.230449 -0.0228387 -0.0005
0.230449 -0.0228387 0.0005
0.233447 -0.0225246 -0.0005
0.233447 -0.0225246 0.0005
0.236562 -0.0221983 -0.0005
0.236562 -0.0221983 0.0005
0.239797 -0.0218593 -0.0005
0.239797 -0.0218593 0.0005
0.243159 -0.0215071 -0.0005
0.243159 -0.0215071 0.0005
0.246652 -0.0211412 -0.0005
0.246652 -0.0211412 0.0005
0.250281 -0.0207611 -0.0005
0.250281 -0.0207611 0.0005
0.254051 -0.0203661 -0.0005
0.254051 -0.0203661 0.0005
0.257967 -0.0199558 -0.0005
0.257967 -0.0199558 0.0005
0.262036 -0.0195295 -0.0005
0.262036 -0.0195295 0.0005
0.266264 -0.0190867 -0.0005
0.266264 -0.0190867 0.0005
0.270655 -0.0186266 -0.0005
0.270655 -0.0186266 0.0005
0.275218 -0.0181486 -0.0005
0.275218 -0.0181486 0.0005
0.279959 -0.017652 -0.0005
0.279959 -0.017652 0.0005
0.284883 -0.017136 -0.0005
0.284883 -0.017136 0.0005
0.29 -0.0166 -0.0005
0.29 -0.0166 0.0005

POLYGONS 250 1250
4 0 1 2 3
4 1 4 5 2
4 4 6 7 5
4 6 8 9 7
4 8 10 11 9
4 10 12 13 11
4 12 14 15 13
4 14 16 17 15
4 16 18 19 17
4 18 20 21 19
4 20 22 23 21
4 22 24 25 23
4 24 26 27 25
4 26 28 29 27
4 28 30 31 29
4 30 32 33 31
4 32 34 35 33
4 34 36 37 35
4 38 39 40 41
4 41 40 42 43
4 43 42 44 45
4 45 44 46 47
4 47 46 48 49
4 49 48 50 51
4 51 50 52 53
4 53 52 54 55
4 55 54 56 57
4 57 56 58 59
4 59 58 60 61
4 61 60 62 63
4 63 62 64 65
4 65 64 66 67
4 67 66 68 69
4 69 68 70 71
4 71 70 72 73
4 73 72 74 75
4 75 74 76 77
4 77 76 78 79
4 79 78 80 81
4 81 80 82 83
4 83 82 84 85
4 85 84 86 87
4 87 86 88 89
4 89 88 90 91
4 91 90 37 36
4 38 92 93 39
4 92 94 95 93
4 94 96 97 95
4 96 98 99 97
4 98 100 101 99
4 100 102 103 101
4 102 104 105 103
4 104 106 107 105
4 106 108 109 107
4 108 110 111 109
4 110 112 113 111
4 112 114 115 113
4 114 116 117 115
4 116 118 119 117
4 118 120 121 119
4 120 122 123 121
4 122 124 125 123
4 124 126 127 125
4 126 128 129 127
4 128 130 131 129
4 130 132 133 131
4 132 134 135 133
4 134 136 137 135
4 136 138 139 137
4 138 140 141 139
4 140 142 143 141
4 142 144 145 143
4 144 146 147 145
4 146 148 149 147
4 148 150 151 149
4 150 152 153 151
4 152 154 155 153
4 154 156 157 155
4 156 158 159 157
4 158 160 161 159
4 160 162 163 161
4 162 164 165 163
4 164 166 167 165
4 166 168 169 167
4 168 170 171 169
4 170 172 173 171
4 172 174 175 173
4 174 176 177 175
4 176 178 179 177
4 178 180 181 179
4 180 182 183 181
4 182 184 185 183
4 184 186 187 185
4 186 188 189 187
4 188 190 191 189
4 190 192 193 191
4 192 194 195 193
4 194 196 197 195
4 196 198 199 197
4 198 200 201 199
4 200 202 203 201
4 202 204 205 203
4 204 206 207 205
4 206 208 209 207
4 208 210 211 209
4 210 212 213 211
4 212 214 215 213
4 214 216 217 215
4 216 218 219 217
4 218 220 221 219
4 220 222 223 221
4 222 224 225 223
4 224 226 227 225
4 226 228 229 227
4 228 230 231 229
4 230 232 233 231
4 232 234 235 233
4 234 236 237 235
4 236 238 239 237
4 238 240 241 239
4 240 242 243 241
4 242 244 245 243
4 244 246 247 245
4 246 248 249 247
4 248 250 251 249
4 250 252 253 251
4 252 254 255 253
4 254 256 257 255
4 256 258 259 257
4 258 260 261 259
4 260 262 263 261
4 262 264 265 263
4 264 266 267 265
4 266 268 269 267
4 268 270 271 269
4 270 272 273 271
4 272 274 275 273
4 274 276 277 275
4 276 278 279 277
4 278 280 281 279
4 280 282 283 281
4 282 284 285 283
4 284 286 287 285
4 286 288 289 287
4 288 290 291 289
4 290 292 293 291
4 292 294 295 293
4 294 296 297 295
4 296 298 299 297
4 298 300 301 299
4 300 302 303 301
4 302 304 305 303
4 304 306 307 305
4 306 308 309 307
4 308 310 311 309
4 310 312 313 311
4 312 314 315 313
4 314 316 317 315
4 316 318 319 317
4 318 320 321 319
4 320 322 323 321
4 322 324 325 323
4 324 326 327 325
4 326 328 329 327
4 328 330 331 329
4 330 332 333 331
4 332 334 335 333
4 334 336 337 335
4 336 338 339 337
4 338 340 341 339
4 340 342 343 341
4 342 344 345 343
4 344 346 347 345
4 346 348 349 347
4 348 350 351 349
4 350 352 353 351
4 352 354 355 353
4 354 356 357 355
4 356 358 359 357
4 358 360 361 359
4 360 362 363 361
4 362 364 365 363
4 364 366 367 365
4 366 368 369 367
4 368 370 371 369
4 370 372 373 371
4 372 374 375 373
4 374 376 377 375
4 376 378 379 377
4 378 380 381 379
4 380 382 383 381
4 382 384 385 383
4 384 386 387 385
4 386 388 389 387
4 388 390 391 389
4 390 392 393 391
4 392 394 395 393
4 394 396 397 395
4 396 398 399 397
4 398 400 401 399
4 400 402 403 401
4 402 404 405 403
4 404 406 407 405
4 406 408 409 407
4 408 410 411 409
4 410 412 413 411
4 412 414 415 413
4 414 416 417 415
4 416 418 419 417
4 418 420 421 419
4 420 422 423 421
4 422 424 425 423
4 424 426 427 425
4 426 428 429 427
4 428 430 431 429
4 430 432 433 431
4 432 434 435 433
4 434 436 437 435
4 436 438 439 437
4 438 440 441 439
4 440 442 443 441
4 442 444 445 443
4 444 446 447 445
4 446 448 449 447
4 448 450 451 449
4 450 452 453 451
4 452 454 455 453
4 454 456 457 455
4 456 458 459 457
4 458 460 461 459
4 460 462 463 461
4 462 464 465 463
4 464 466 467 465
4 466 468 469 467
4 468 470 471 469
4 470 472 473 471
4 472 474 475 473
4 474 476 477 475
4 476 478 479 477
4 478 480 481 479
4 480 482 483 481
4 482 484 485 483
4 484 486 487 485
4 486 488 489 487
4 488 490 491 489
4 490 492 493 491
4 492 494 495 493
4 494 496 497 495
4 496 498 499 497
4 498 500 501 499
POINT_DATA 502
FIELD attributes 1
U 3 502 float
1.60285 0.0963745 -0.00153593
0.802927 0.0478228 -0.000756908
0.802927 0.0478228 -0.000756908
1.60285 0.0963745 -0.00153593
0.0243186 0.0006036 0
0.0243186 0.0006036 0
0.0216746 0.000550042 0
0.0216746 0.000550042 0
0.0191522 0.000505072 0
0.0191522 0.000505072 0
0.0167965 0.000425122 0
0.0167965 0.000425122 0
0.0147198 0.000353578 0
0.0147198 0.000353578 0
0.0128762 0.000308735 0
0.0128762 0.000308735 0
0.0111795 0.000278668 0
0.0111795 0.000278668 0
0.00955871 0.000254535 0
0.00955871 0.000254535 0
0.00799736 0.000224548 0
0.00799736 0.000224548 0
0.0065596 0.000175241 0
0.0065596 0.000175241 0
0.00530269 0.000110373 0
0.00530269 0.000110373 0
0.00427031 4.87519e-05 0
0.00427031 4.87519e-05 0
0.00341606 5.79548e-06 0
0.00341606 5.79548e-06 0
0.00275035 -5.00271e-06 0
0.00275035 -5.00271e-06 0
0.00209194 -2.96375e-05 0
0.00209194 -2.96375e-05 0
0.00168134 -0.000106835 0
0.00168134 -0.000106835 0
0.000757955 0.000366484 0
0.000757955 0.000366484 0
-9.28675e-05 0.000237964 -9.72781e-23
-9.28675e-05 0.000237964 -9.72781e-23
-0.000106118 0.000833132 2.63121e-22
-0.000106118 0.000833132 2.63121e-22
-0.000149122 0.0016052 3.1193e-22
-0.000149122 0.0016052 3.1193e-22
-0.000124014 0.00175183 -6.24134e-22
-0.000124014 0.00175183 -6.24134e-22
0.000230218 0.000651407 -2.08017e-22
0.000230218 0.000651407 -2.08017e-22
0.000609466 -0.00191746 4.16288e-22
0.000609466 -0.00191746 4.16288e-22
0.000583931 -0.00436793 0
0.000583931 -0.00436793 0
0.000392289 -0.00594386 8.38016e-22
0.000392289 -0.00594386 8.38016e-22
0.000236421 -0.00689825 1.61876e-25
0.000236421 -0.00689825 1.61876e-25
0.000118434 -0.00737596 -8.37854e-22
0.000118434 -0.00737596 -8.37854e-22
3.41223e-05 -0.00752969 8.42453e-22
3.41223e-05 -0.00752969 8.42453e-22
-3.34053e-05 -0.00744913 -2.68076e-26
-3.34053e-05 -0.00744913 -2.68076e-26
-9.17317e-05 -0.00720464 -8.4248e-22
-9.17317e-05 -0.00720464 -8.4248e-22
-0.000143616 -0.00683138 -8.47314e-22
-0.000143616 -0.00683138 -8.47314e-22
-0.000186514 -0.00634864 2.47191e-25
-0.000186514 -0.00634864 2.47191e-25
-0.000198373 -0.00578635 8.62583e-22
-0.000198373 -0.00578635 8.62583e-22
-0.000135773 -0.00523381 0
-0.000135773 -0.00523381 0
1.9942e-05 -0.00498975 0
1.9942e-05 -0.00498975 0
0.000165209 -0.00519911 0
0.000165209 -0.00519911 0
0.000128749 -0.00546884 0
0.000128749 -0.00546884 0
-7.46214e-05 -0.00522207 0
-7.46214e-05 -0.00522207 0
-0.000258171 -0.00454221 0
-0.000258171 -0.00454221 0
-0.000378233 -0.00372348 0
-0.000378233 -0.00372348 0
-0.000500007 -0.00277215 0
-0.000500007 -0.00277215 0
-0.000598581 -0.0016986 0
-0.000598581 -0.0016986 0
-0.000585471 -0.000665121 0
-0.000585471 -0.000665121 0
-0.000265158 0.000306609 0
-0.000265158 0.000306609 0
-0.00022357 0.000219455 -4.19871e-25
-0.00022357 0.000219455 -4.19871e-25
-0.000406844 0.000133397 4.83432e-23
-0.000406844 0.000133397 4.83432e-23
-0.000404211 -3.02224e-05 0
-0.000404211 -3.02224e-05 0
-0.000246965 -0.000162137 0
-0.000246965 -0.000162137 0
-2.46575e-05 -0.000197233 -4.69043e-23
-2.46575e-05 -0.000197233 -4.69043e-23
0.000198146 -0.00016554 -4.69885e-23
0.000198146 -0.00016554 -4.69885e-23
0.000367383 -7.97256e-05 0
0.000367383 -7.97256e-05 0
0.000448678 4.52425e-05 0
0.000448678 4.52425e-05 0
0.000416493 0.000173112 0
0.000416493 0.000173112 0
0.000270413 0.00021381 4.52334e-23
0.000270413 0.00021381 4.52334e-23
6.20689e-05 0.000110605 4.53196e-23
6.20689e-05 0.000110605 4.53196e-23
-0.000132726 -9.03072e-06 0
-0.000132726 -9.03072e-06 0
-0.000277283 -1.73137e-06 0
-0.000277283 -1.73137e-06 0
-0.000389803 7.62696e-05 0
-0.000389803 7.62696e-05 0
-0.000515011 0.000129042 4.35867e-23
-0.000515011 0.000129042 4.35867e-23
-0.000663377 0.000147078 4.36747e-23
-0.000663377 0.000147078 4.36747e-23
-0.00079954 0.000133573 0
-0.00079954 0.000133573 0
-0.000896018 8.53763e-05 0
-0.000896018 8.53763e-05 0
-0.00094524 1.15655e-05 0
-0.00094524 1.15655e-05 0
-0.000952337 -6.465e-05 0
-0.000952337 -6.465e-05 0
-0.000953706 -0.000107727 0
-0.000953706 -0.000107727 0
-0.000997665 -9.30919e-05 0
-0.000997665 -9.30919e-05 0
-0.00110117 -3.48806e-05 4.10517e-23
-0.00110117 -3.48806e-05 4.10517e-23
-0.00124903 1.50067e-06 4.01804e-25
-0.00124903 1.50067e-06 4.01804e-25
-0.00142705 -1.79261e-05 -4.00309e-25
-0.00142705 -1.79261e-05 -4.00309e-25
-0.00165125 1.09263e-05 8.06416e-23
-0.00165125 1.09263e-05 8.06416e-23
-0.00196539 0.000179077 4.02105e-23
-0.00196539 0.000179077 4.02105e-23
-0.00238989 0.000364686 0
-0.00238989 0.000364686 0
-0.00287812 0.000431536 -3.91816e-23
-0.00287812 0.000431536 -3.91816e-23
-0.00337447 0.000434447 -7.81551e-23
-0.00337447 0.000434447 -7.81551e-23
-0.00386453 0.000433104 -3.89737e-23
-0.00386453 0.000433104 -3.89737e-23
-0.00433791 0.000415022 0
-0.00433791 0.000415022 0
-0.00478426 0.000395393 -3.80137e-23
-0.00478426 0.000395393 -3.80137e-23
-0.00520195 0.000371922 -3.81073e-23
-0.00520195 0.000371922 -3.81073e-23
-0.00558057 0.000330685 0
-0.00558057 0.000330685 0
-0.00591211 0.000288237 3.71675e-23
-0.00591211 0.000288237 3.71675e-23
-0.00619688 0.000247412 3.7262e-23
-0.00619688 0.000247412 3.7262e-23
-0.00643138 0.000200953 3.65948e-23
-0.00643138 0.000200953 3.65948e-23
-0.00661237 0.000154386 1.09294e-22
-0.00661237 0.000154386 1.09294e-22
-0.00674009 0.000110779 7.27948e-23
-0.00674009 0.000110779 7.27948e-23
-0.0068142 6.88359e-05 0
-0.0068142 6.88359e-05 0
-0.00683368 2.88232e-05 0
-0.00683368 2.88232e-05 0
-0.00680087 -9.77987e-06 0
-0.00680087 -9.77987e-06 0
-0.00671708 -4.84602e-05 0
-0.00671708 -4.84602e-05 0
-0.00658173 -8.81776e-05 6.88342e-23
-0.00658173 -8.81776e-05 6.88342e-23
-0.00639491 -0.00012937 1.37193e-22
-0.00639491 -0.00012937 1.37193e-22
-0.00615662 -0.000172048 1.35851e-22
-0.00615662 -0.000172048 1.35851e-22
-0.00586813 -0.000215671 6.76841e-23
-0.00586813 -0.000215671 6.76841e-23
-0.00553178 -0.000258933 -6.61299e-23
-0.00553178 -0.000258933 -6.61299e-23
-0.00515161 -0.000299771 -6.63215e-23
-0.00515161 -0.000299771 -6.63215e-23
-0.00473329 -0.000335521 6.47643e-23
-0.00473329 -0.000335521 6.47643e-23
-0.00428517 -0.000362722 1.29041e-22
-0.00428517 -0.000362722 1.29041e-22
-0.0038188 -0.000377374 6.42762e-23
-0.0038188 -0.000377374 6.42762e-23
-0.00334788 -0.000376641 0
-0.00334788 -0.000376641 0
-0.00288104 -0.000361038 0
-0.00288104 -0.000361038 0
-0.00241381 -0.000336579 6.14168e-23
-0.00241381 -0.000336579 6.14168e-23
-0.00193366 -0.000318951 6.1607e-23
-0.00193366 -0.000318951 6.1607e-23
-0.00142956 -0.00033139 0
-0.00142956 -0.00033139 0
-0.000873591 -0.000369514 0
-0.000873591 -0.000369514 0
-0.000260088 -0.000396732 0
-0.000260088 -0.000396732 0
0.000371455 -0.000403229 0
0.000371455 -0.000403229 0
0.00100308 -0.000383995 0
0.00100308 -0.000383995 0
0.00161783 -0.000317971 0
0.00161783 -0.000317971 0
0.00215158 -0.000253864 0
0.00215158 -0.000253864 0
0.00262169 -0.000236648 -5.59766e-23
0.00262169 -0.000236648 -5.59766e-23
0.00308508 -4.68199e-05 -5.61647e-23
0.00308508 -4.68199e-05 -5.61647e-23
0.00318238 0.000407982 0
0.00318238 0.000407982 0
0.00262124 0.000589781 5.4425e-23
0.00262124 0.000589781 5.4425e-23
0.00188546 0.00027896 1.08552e-22
0.00188546 0.00027896 1.08552e-22
0.00144153 8.25125e-05 5.41271e-23
0.00144153 8.25125e-05 5.41271e-23
0.00116285 0.000234058 -5.29391e-23
0.00116285 0.000234058 -5.29391e-23
0.000840946 0.000285478 -6.75243e-25
0.000840946 0.000285478 -6.75243e-25
0.00048 0.000167633 5.26383e-23
0.00048 0.000167633 5.26383e-23
2.75831e-05 0.000130077 -5.15148e-23
2.75831e-05 0.000130077 -5.15148e-23
-0.000363912 2.50266e-07 -5.17017e-23
-0.000363912 2.50266e-07 -5.17017e-23
-0.000175173 -0.000365101 0
-0.000175173 -0.000365101 0
0.000722771 -0.000677488 4.99382e-23
0.000722771 -0.000677488 4.99382e-23
0.00189219 -0.000663842 5.01239e-23
0.00189219 -0.000663842 5.01239e-23
0.00288991 -0.000346036 -4.90612e-23
0.00288991 -0.000346036 -4.90612e-23
0.00336348 7.14607e-05 -4.92466e-23
0.00336348 7.14607e-05 -4.92466e-23
0.00310805 0.000356087 4.82005e-23
0.00310805 0.000356087 4.82005e-23
0.00247772 0.00037958 9.61457e-23
0.00247772 0.00037958 9.61457e-23
0.00205613 0.000180533 9.52334e-23
0.00205613 0.000180533 9.52334e-23
0.00199799 -0.000118171 1.41013e-22
0.00199799 -0.000118171 1.41013e-22
0.00210615 -0.000391266 1.35426e-24
0.00210615 -0.000391266 1.35426e-24
0.00215158 -0.000447959 -9.29196e-23
0.00215158 -0.000447959 -9.29196e-23
0.00186715 -0.000137354 0
0.00186715 -0.000137354 0
0.00103349 0.000357885 0
0.00103349 0.000357885 0
-0.000225753 0.000683609 -8.93516e-23
-0.000225753 0.000683609 -8.93516e-23
-0.00159747 0.00076441 -1.78313e-22
-0.00159747 0.00076441 -1.78313e-22
-0.00289897 0.000727664 -1.01977e-24
-0.00289897 0.000727664 -1.01977e-24
-0.00406605 0.000648836 8.83053e-23
-0.00406605 0.000648836 8.83053e-23
-0.00508272 0.000559148 -8.6787e-23
-0.00508272 0.000559148 -8.6787e-23
-0.0059531 0.000472208 -1.73381e-22
-0.0059531 0.000472208 -1.73381e-22
-0.00668973 0.000393666 -1.72255e-22
-0.00668973 0.000393666 -1.72255e-22
-0.00730711 0.00032489 -8.60251e-23
-0.00730711 0.00032489 -8.60251e-23
-0.00781849 0.00026495 0
-0.00781849 0.00026495 0
-0.00823488 0.00021253 0
-0.00823488 0.00021253 0
-0.00856571 0.000166738 -8.30812e-23
-0.00856571 0.000166738 -8.30812e-23
-0.00881907 0.000126614 -8.34449e-23
-0.00881907 0.000126614 -8.34449e-23
-0.00900151 9.07602e-05 0
-0.00900151 9.07602e-05 0
-0.0091181 5.83469e-05 8.07326e-23
-0.0091181 5.83469e-05 8.07326e-23
-0.00917318 2.99746e-05 8.10931e-23
-0.00917318 2.99746e-05 8.10931e-23
-0.00917344 5.30342e-06 0
-0.00917344 5.30342e-06 0
-0.00912464 -1.68873e-05 7.80249e-23
-0.00912464 -1.68873e-05 7.80249e-23
-0.00902986 -3.68029e-05 7.83803e-23
-0.00902986 -3.68029e-05 7.83803e-23
-0.00889232 -5.49378e-05 0
-0.00889232 -5.49378e-05 0
-0.00871407 -7.20225e-05 -7.5051e-23
-0.00871407 -7.20225e-05 -7.5051e-23
-0.00849622 -8.85228e-05 -1.4942e-22
-0.00849622 -8.85228e-05 -1.4942e-22
-0.00823836 -0.000105139 -7.43659e-23
-0.00823836 -0.000105139 -7.43659e-23
-0.0079383 -0.000122596 7.19188e-23
-0.0079383 -0.000122596 7.19188e-23
-0.00759246 -0.000141367 7.22589e-23
-0.00759246 -0.000141367 7.22589e-23
-0.00719667 -0.000161554 -6.97809e-23
-0.00719667 -0.000161554 -6.97809e-23
-0.00674729 -0.000182675 -7.01148e-23
-0.00674729 -0.000182675 -7.01148e-23
-0.00624253 -0.000203597 -6.76355e-23
-0.00624253 -0.000203597 -6.76355e-23
-0.0056837 -0.000222666 -1.34539e-22
-0.0056837 -0.000222666 -1.34539e-22
-0.00507636 -0.000238024 -6.69e-23
-0.00507636 -0.000238024 -6.69e-23
-0.00443148 -0.000248014 0
-0.00443148 -0.000248014 0
-0.00376495 -0.000251309 0
-0.00376495 -0.000251309 0
-0.00309409 -0.000247384 0
-0.00309409 -0.000247384 0
-0.00243494 -0.000236969 0
-0.00243494 -0.000236969 0
-0.00180177 -0.000221752 0
-0.00180177 -0.000221752 0
-0.00120579 -0.00020351 0
-0.00120579 -0.00020351 0
-0.000653516 -0.000182977 -5.93402e-23
-0.000653516 -0.000182977 -5.93402e-23
-0.000147794 -0.000164314 -1.05577e-24
-0.000147794 -0.000164314 -1.05577e-24
0.000311627 -0.00014757 5.88865e-23
0.000311627 -0.00014757 5.88865e-23
0.000728573 -0.000130454 0
0.000728573 -0.000130454 0
0.00110652 -0.000114754 0
0.00110652 -0.000114754 0
0.00144777 -0.000100388 0
0.00144777 -0.000100388 0
0.00175537 -8.73668e-05 1.10058e-22
0.00175537 -8.73668e-05 1.10058e-22
0.00203234 -7.56709e-05 1.10636e-22
0.00203234 -7.56709e-05 1.10636e-22
0.00228158 -6.52054e-05 -1.07385e-22
0.00228158 -6.52054e-05 -1.07385e-22
0.0025057 -5.57977e-05 -1.88766e-24
0.0025057 -5.57977e-05 -1.88766e-24
0.00270678 -4.71855e-05 1.06632e-22
0.00270678 -4.71855e-05 1.06632e-22
0.00288629 -3.91418e-05 0
0.00288629 -3.91418e-05 0
0.00304525 -3.15578e-05 0
0.00304525 -3.15578e-05 0
0.00318425 -2.41115e-05 -1.00849e-22
0.00318425 -2.41115e-05 -1.00849e-22
0.00330306 -1.65552e-05 -2.00944e-22
0.00330306 -1.65552e-05 -2.00944e-22
0.00340156 -9.05816e-06 -1.0009e-22
0.00340156 -9.05816e-06 -1.0009e-22
0.00347953 -1.27205e-06 -9.69348e-23
0.00347953 -1.27205e-06 -9.69348e-23
0.00353612 6.90225e-06 -1.93093e-22
0.00353612 6.90225e-06 -1.93093e-22
0.00357191 1.47897e-05 -1.84389e-24
0.00357191 1.47897e-05 -1.84389e-24
0.00358599 2.3019e-05 9.48334e-23
0.00358599 2.3019e-05 9.48334e-23
0.00357534 3.31002e-05 0
0.00357534 3.31002e-05 0
0.00353729 4.56389e-05 9.03455e-23
0.00353729 4.56389e-05 9.03455e-23
0.00346854 5.9683e-05 9.08543e-23
0.00346854 5.9683e-05 9.08543e-23
0.00336672 7.27936e-05 0
0.00336672 7.27936e-05 0
0.00323214 8.3047e-05 0
0.00323214 8.3047e-05 0
0.00306657 9.08141e-05 0
0.00306657 9.08141e-05 0
0.00287177 9.68211e-05 -8.37586e-23
0.00287177 9.68211e-05 -8.37586e-23
0.00265192 9.84319e-05 -1.66699e-22
0.00265192 9.84319e-05 -1.66699e-22
0.00241822 9.09708e-05 -8.29353e-23
0.00241822 9.09708e-05 -8.29353e-23
0.00218997 7.34279e-05 -7.98874e-23
0.00218997 7.34279e-05 -7.98874e-23
0.00198833 5.01296e-05 -8.03522e-23
0.00198833 5.01296e-05 -8.03522e-23
0.00182756 2.73794e-05 0
0.00182756 2.73794e-05 0
0.00171133 9.73968e-06 -7.60574e-23
0.00171133 9.73968e-06 -7.60574e-23
0.00163458 -1.51602e-06 -7.6505e-23
0.00163458 -1.51602e-06 -7.6505e-23
0.00158751 -7.41787e-06 -7.35153e-23
0.00158751 -7.41787e-06 -7.35153e-23
0.0015598 -9.65171e-06 -7.39513e-23
0.0015598 -9.65171e-06 -7.39513e-23
0.00154327 -9.67545e-06 0
0.00154327 -9.67545e-06 0