/*--------------------------------*- C++ -*----------------------------------*\
  =========                 |
  \\      /  F ield         | OpenFOAM: The Open Source CFD Toolbox
   \\    /   O peration     | Website:  https://openfoam.org
    \\  /    A nd           | Version:  7
     \\/     M anipulation  |
\*---------------------------------------------------------------------------*/
FoamFile
{
    version     2.0;
    format      ascii;
    class       volScalarField;
    location    "0.18";
    object      nut;
}
// * * * * * * * * * * * * * * * * * * * * * * * * * * * * * * * * * * * * * //

dimensions      [0 2 -1 0 0 0 0];

internalField   nonuniform List<scalar> 
12225
(
3.8006e-05
3.33294e-05
2.94332e-05
2.6376e-05
2.41489e-05
2.26289e-05
2.16445e-05
2.10341e-05
2.06702e-05
2.04602e-05
2.03414e-05
2.02734e-05
2.02315e-05
2.02012e-05
2.0175e-05
2.01478e-05
2.01246e-05
2.0259e-05
0.000205723
0.000151533
0.000127318
0.00011441
0.00010738
0.000103278
0.000100624
9.8713e-05
9.72125e-05
9.59599e-05
9.48753e-05
9.39194e-05
9.3072e-05
9.2319e-05
9.1653e-05
9.1052e-05
9.05528e-05
8.99743e-05
0.000418642
0.000297002
0.000242052
0.000210269
0.000189713
0.000175345
0.000164793
0.000156792
0.000150578
0.000145647
0.000141662
0.000138389
0.000135667
0.00013338
0.000131441
0.000129779
0.00012836
0.000127077
0.000615537
0.000473547
0.000392593
0.000341286
0.000306019
0.000280089
0.00026013
0.000244319
0.000231538
0.000221041
0.000212307
0.000204964
0.000198737
0.000193414
0.000188834
0.000184866
0.000181416
0.000178407
0.000739725
0.000627507
0.000543985
0.000483434
0.000438571
0.000404027
0.000376528
0.000354104
0.000335482
0.00031979
0.000306408
0.000294889
0.000284898
0.000276176
0.000268521
0.000261766
0.000255788
0.000250553
0.000803284
0.00073306
0.000666703
0.000610799
0.000565224
0.000527908
0.000496934
0.000470884
0.000448708
0.000429619
0.000413028
0.000398491
0.000385667
0.00037429
0.000364148
0.000355069
0.000346922
0.000339731
0.000832284
0.000794591
0.000750952
0.000708343
0.000669783
0.000635814
0.000606108
0.000580138
0.000557362
0.000537287
0.000519493
0.000503637
0.000489439
0.000476669
0.00046514
0.000454698
0.000445228
0.00043681
0.000844509
0.000826357
0.00080147
0.000773645
0.000745695
0.000719055
0.000694322
0.000671679
0.00065109
0.000632412
0.000615465
0.000600067
0.000586049
0.000573259
0.000561564
0.000550849
0.000541037
0.000532253
0.000849308
0.000841192
0.000828458
0.000812441
0.000794698
0.000776398
0.000758298
0.000740858
0.00072433
0.000708821
0.000694351
0.000680896
0.000668402
0.00065681
0.000646053
0.000636071
0.000626831
0.000618489
0.000851043
0.000847506
0.000841448
0.000833091
0.000823015
0.000811831
0.000800056
0.000788097
0.000776249
0.000764708
0.000753595
0.000742979
0.000732894
0.000723349
0.000714337
0.000705848
0.000697888
0.000690627
0.000851597
0.000849941
0.000847101
0.000842991
0.000837725
0.000831518
0.000824608
0.000817231
0.000809592
0.000801859
0.000794159
0.000786586
0.000779204
0.000772059
0.00076518
0.000758586
0.000752312
0.000746513
0.000851725
0.000850709
0.000849144
0.00084693
0.000844053
0.00084056
0.000836535
0.000832085
0.000827319
0.000822341
0.000817242
0.000812096
0.000806963
0.000801891
0.000796915
0.000792066
0.000787385
0.000783015
0.000851737
0.000850954
0.00084994
0.000848639
0.000847018
0.00084507
0.000842806
0.000840257
0.000837464
0.000834476
0.000831339
0.000828098
0.000824793
0.000821459
0.000818126
0.000814822
0.000811585
0.000808523
0.00085171
0.000850987
0.000850182
0.000849278
0.000848261
0.000847121
0.000845852
0.000844453
0.00084293
0.000841294
0.00083956
0.000837745
0.000835865
0.000833937
0.000831977
0.000830004
0.000828043
0.000826165
0.000851676
0.000850949
0.000850197
0.00084942
0.000848622
0.000847804
0.000846965
0.0008461
0.000845208
0.000844287
0.000843336
0.000842357
0.000841352
0.000840325
0.00083928
0.000838224
0.000837171
0.000836163
0.000851651
0.000850908
0.000850159
0.000849409
0.000848666
0.00084794
0.000847233
0.000846548
0.000845883
0.000845236
0.000844605
0.000843987
0.000843379
0.00084278
0.000842188
0.000841605
0.000841039
0.000840512
0.000851638
0.000850885
0.000850136
0.000849391
0.000848661
0.000847954
0.000847278
0.000846635
0.000846027
0.000845453
0.000844912
0.000844402
0.000843918
0.000843461
0.000843026
0.000842614
0.000842231
0.000841893
0.000851638
0.00085089
0.00085015
0.000849417
0.0008487
0.000848008
0.000847347
0.000846721
0.000846132
0.00084558
0.000845065
0.000844583
0.000844134
0.000843714
0.000843323
0.000842959
0.000842627
0.000842345
0.000851661
0.000850939
0.000850225
0.000849521
0.000848835
0.000848175
0.000847547
0.000846956
0.000846402
0.000845885
0.000845405
0.000844958
0.000844543
0.000844158
0.000843799
0.000843468
0.000843169
0.000842917
0.000851715
0.000851053
0.000850398
0.000849753
0.000849128
0.000848531
0.00084797
0.000847444
0.000846955
0.0008465
0.000846076
0.000845679
0.000845307
0.000844956
0.000844623
0.000844308
0.000844016
0.00084376
0.000851801
0.000851233
0.000850669
0.000850109
0.000849564
0.000849039
0.000848537
0.000848052
0.000847578
0.000847109
0.000846641
0.000846168
0.000845686
0.000845194
0.000844688
0.000844171
0.000843649
0.000843139
0.000851941
0.000851518
0.000851065
0.000850568
0.000850017
0.000849407
0.000848724
0.000847955
0.000847091
0.000846128
0.00084507
0.00084392
0.000842684
0.000841372
0.000839987
0.000838543
0.000837062
0.000835582
0.000852143
0.000851828
0.000851264
0.000850361
0.000849079
0.00084742
0.000845392
0.000843017
0.000840331
0.000837381
0.000834214
0.000830866
0.000827378
0.000823799
0.000820177
0.000816547
0.000812949
0.00080945
0.00085222
0.000851245
0.000849026
0.000845469
0.000840721
0.000835025
0.00082861
0.000821669
0.000814383
0.000806874
0.000799278
0.000791728
0.000784317
0.0007771
0.000770113
0.000763381
0.000756928
0.000750831
0.000850791
0.000845028
0.0008354
0.000822959
0.000808862
0.000794031
0.000779056
0.000764248
0.000749865
0.00073615
0.000723201
0.000711034
0.000699631
0.00068896
0.000678975
0.000669632
0.000660895
0.000652806
0.000841138
0.000816681
0.000786997
0.000756696
0.000727772
0.000700946
0.000676363
0.000654211
0.000634339
0.000616487
0.000600406
0.000585863
0.000572654
0.000560605
0.000549568
0.000539419
0.000530061
0.000521484
0.000798628
0.000728722
0.000669092
0.000620807
0.000580936
0.000547664
0.000520043
0.000496778
0.000476893
0.000459679
0.000444607
0.000431278
0.000419381
0.000408677
0.000398982
0.000390146
0.000382056
0.000374672
0.000662426
0.000545579
0.000474638
0.000425193
0.000388262
0.000360257
0.000338453
0.000320955
0.00030654
0.000294422
0.000284068
0.000275098
0.000267236
0.000260277
0.000254066
0.000248483
0.000243433
0.000238864
0.000377505
0.000286123
0.000242631
0.000214906
0.000195642
0.000182232
0.000172795
0.000165957
0.000160837
0.00015689
0.000153768
0.000151242
0.000149153
0.00014739
0.000145874
0.000144549
0.000143373
0.000142304
6.98062e-05
6.49723e-05
6.05478e-05
5.65123e-05
5.29008e-05
4.97255e-05
4.69803e-05
4.46402e-05
4.26662e-05
4.10141e-05
3.96404e-05
3.85047e-05
3.7571e-05
3.68078e-05
3.61877e-05
3.56874e-05
3.52873e-05
3.49705e-05
2.38176e-07
5.86938e-06
9.68622e-06
1.35242e-05
1.77582e-05
2.24091e-05
2.74984e-05
3.24922e-05
3.74235e-05
4.22713e-05
4.70132e-05
5.16377e-05
5.61438e-05
6.05374e-05
6.48285e-05
6.90286e-05
7.31498e-05
7.72035e-05
8.12003e-05
8.51494e-05
8.90593e-05
9.29366e-05
9.67873e-05
0.000100616
0.000104425
0.000108219
0.000111998
0.000115766
0.000119522
0.000123269
0.000127008
0.000130741
0.000134468
0.000138187
0.000141898
0.000145597
0.000149277
0.000152931
0.00015655
0.000160122
0.000163638
0.000167085
0.000170449
0.000173718
0.000176874
0.000179898
0.000182765
0.000185447
0.000187913
0.000190133
0.000192089
0.000193773
0.000195189
0.000196318
0.00019707
0.000197255
0.000196693
0.000195717
0.000196302
0.000197406
0.000197188
4.52066e-05
0.000200477
0.000199656
4.54421e-05
0.00019877
0.000199644
0.000200213
0.000199245
4.564e-05
4.61089e-05
4.6261e-05
0.000204655
4.66669e-05
4.77041e-05
4.74e-05
4.77592e-05
4.81595e-05
4.85612e-05
4.89593e-05
4.93517e-05
4.97372e-05
5.0115e-05
5.04845e-05
5.08455e-05
5.11975e-05
5.15403e-05
5.18737e-05
5.21979e-05
5.25131e-05
5.28203e-05
5.31213e-05
5.34123e-05
5.36915e-05
5.39592e-05
5.42153e-05
5.44598e-05
5.46922e-05
5.49125e-05
5.51204e-05
5.53158e-05
5.54984e-05
5.56679e-05
5.58244e-05
5.59676e-05
5.60974e-05
5.62137e-05
5.63163e-05
5.64052e-05
5.64804e-05
5.65418e-05
5.65893e-05
5.6623e-05
5.66428e-05
5.66488e-05
5.66411e-05
5.66197e-05
5.65846e-05
5.6536e-05
5.6474e-05
5.63987e-05
5.63102e-05
5.62088e-05
5.60945e-05
5.59677e-05
5.58284e-05
5.56769e-05
5.55134e-05
5.53382e-05
5.51514e-05
5.49535e-05
5.47446e-05
5.4525e-05
5.4295e-05
5.40548e-05
5.38049e-05
5.35454e-05
5.32766e-05
5.2999e-05
5.27127e-05
5.2418e-05
5.21154e-05
5.1805e-05
5.14872e-05
5.11622e-05
5.08304e-05
5.04919e-05
5.01473e-05
4.97965e-05
4.94404e-05
4.90787e-05
4.87123e-05
4.83438e-05
4.7999e-05
4.7803e-05
4.76363e-05
4.74873e-05
4.74976e-05
5.03636e-05
4.73537e-05
4.61488e-05
4.60419e-05
4.60562e-05
4.58326e-05
0.000226691
0.000226307
0.00022538
4.52848e-05
4.50788e-05
0.000216922
4.47581e-05
0.000216416
0.000216047
0.00021364
4.67511e-05
0.000212189
4.62429e-05
4.57551e-05
0.000207339
0.000204648
8.82297e-07
2.42329e-05
5.1004e-05
6.84001e-05
7.99938e-05
8.89511e-05
9.68777e-05
0.000104471
0.000111957
0.00011938
0.000126734
0.000134004
0.000141182
0.000148265
0.000155257
0.000162164
0.000168993
0.000175753
0.000182449
0.000189086
0.000195672
0.000202208
0.000208698
0.000215146
0.000221554
0.000227923
0.000234257
0.000240556
0.000246825
0.000253064
0.000259277
0.000265465
0.00027163
0.00027777
0.000283886
0.000289972
0.000296022
0.000302028
0.000307979
0.000313861
0.00031966
0.000325357
0.000330928
0.000336344
0.000341567
0.000346545
0.000351213
0.000355487
0.000359267
0.000362439
0.000364884
0.000366469
0.000367018
0.000366215
0.000363442
0.000357703
0.000348058
0.000335288
0.000324392
0.000323516
0.000319489
0.000296884
0.00032603
0.000316129
0.000290986
0.000311078
0.000312965
0.000313684
0.000311769
0.000298561
0.000300227
0.000307839
0.000327725
0.000314821
0.000316233
0.000323442
0.000328632
0.000332929
0.000337529
0.000342278
0.000347112
0.000351988
0.000356883
0.000361783
0.000366677
0.000371558
0.000376417
0.000381243
0.000386022
0.000390728
0.000395329
0.000399587
0.00040369
0.000407727
0.000411705
0.000415624
0.000419481
0.000423271
0.000426991
0.000430638
0.000434209
0.000437698
0.000441104
0.000444422
0.00044765
0.000450785
0.000453823
0.000456762
0.0004596
0.000462334
0.000464961
0.000467481
0.00046989
0.000472188
0.000474373
0.000476444
0.000478399
0.000480238
0.00048196
0.000483566
0.000485054
0.000486424
0.000487678
0.000488815
0.000489837
0.000490743
0.000491535
0.000492214
0.000492781
0.000493239
0.000493588
0.000493831
0.000493969
0.000494005
0.000493941
0.000493779
0.000493521
0.00049317
0.000492729
0.0004922
0.000491585
0.000490888
0.00049011
0.000489254
0.000488322
0.000487318
0.00048624
0.000485096
0.000483878
0.000482593
0.000481233
0.000479734
0.000477934
0.000475235
0.000471645
0.000467816
0.000463972
0.000460669
0.000449023
0.00044888
0.000433917
0.000427378
0.000424714
0.000421422
0.00047131
0.000472037
0.000463809
0.000402781
0.000396735
0.000441716
0.000389682
0.000431204
0.000430662
0.000425302
0.000373999
0.000413963
0.000363087
0.000353868
0.0003944
0.00038337
1.73397e-06
3.72304e-05
7.82172e-05
0.000107332
0.000127782
0.000143014
0.000155393
0.00016634
0.000176619
0.000186598
0.000196439
0.000206205
0.000215916
0.000225576
0.000235183
0.000244736
0.000254231
0.000263666
0.000273039
0.000282347
0.00029159
0.000300764
0.000309871
0.000318909
0.000327878
0.000336778
0.000345613
0.000354383
0.000363092
0.000371741
0.000380335
0.000388875
0.000397363
0.000405799
0.000414181
0.000422507
0.000430768
0.000438958
0.000447063
0.000455071
0.000462962
0.000470716
0.000478305
0.000485695
0.000492845
0.000499699
0.000506192
0.000512248
0.000517788
0.000522737
0.000527038
0.000530654
0.000533562
0.000535711
0.000536976
0.000537194
0.000536425
0.000535543
0.000536506
0.000540638
0.00054501
0.000548151
0.00055563
0.000559159
0.000562047
0.000570009
0.000576781
0.000583575
0.000590283
0.000596422
0.000604602
0.000613581
0.00062421
0.000631202
0.000639878
0.000649368
0.000659189
0.000668943
0.000678758
0.000688614
0.000698486
0.000708351
0.000718189
0.000727984
0.000737718
0.000747378
0.000756945
0.000766399
0.000775717
0.000784871
0.000793758
0.000802339
0.000810741
0.000819008
0.000827149
0.000835158
0.000843031
0.000850759
0.000858336
0.000865754
0.000873005
0.000880083
0.00088698
0.000893689
0.000900205
0.00090652
0.000912629
0.000918527
0.000924207
0.000929665
0.000934897
0.000939899
0.000944666
0.000949196
0.000953485
0.000957532
0.000961332
0.000964886
0.000968192
0.000971249
0.000974056
0.000976614
0.000978924
0.000980986
0.000982802
0.000984372
0.0009857
0.000986789
0.00098764
0.000988257
0.000988644
0.000988805
0.000988743
0.000988464
0.000987972
0.000987272
0.000986369
0.000985269
0.000983977
0.000982499
0.00098084
0.000979005
0.000977002
0.000974835
0.000972509
0.000970032
0.000967401
0.000964631
0.000961718
0.000958647
0.000955403
0.000951875
0.000947854
0.000942923
0.000937145
0.000930985
0.000924748
0.000919138
0.000914137
0.000903463
0.000891562
0.000882752
0.000874658
0.00086747
0.000876049
0.000871279
0.000862339
0.000839468
0.000829538
0.000835655
0.000816938
0.000821034
0.000815009
0.000806834
0.000789067
0.000792167
0.000773869
0.000763243
0.000764193
0.000745604
2.548e-06
4.60296e-05
9.73884e-05
0.000136041
0.000164337
0.000185735
0.000202878
0.000217553
0.000230877
0.000243501
0.000255779
0.00026789
0.000279918
0.000291894
0.000303829
0.00031572
0.000327558
0.000339335
0.000351043
0.000362672
0.000374216
0.000385669
0.000397027
0.000408288
0.00041945
0.000430513
0.000441479
0.000452349
0.000463127
0.000473817
0.000484423
0.000494947
0.000505393
0.000515763
0.000526055
0.000536269
0.000546401
0.000556444
0.00056639
0.00057623
0.000585948
0.000595531
0.000604959
0.00061421
0.000623255
0.000632061
0.000640594
0.000648816
0.000656699
0.000664227
0.00067141
0.000678289
0.000684929
0.000691404
0.000697782
0.000704129
0.000710594
0.000717525
0.000725416
0.000734426
0.000743947
0.000753669
0.000763966
0.000774235
0.000784843
0.000796226
0.000807815
0.000819668
0.000831786
0.000844141
0.000856916
0.000869936
0.000883329
0.000896499
0.00090994
0.000923574
0.000937372
0.000951186
0.000964981
0.000978742
0.000992453
0.0010061
0.00101967
0.00103314
0.0010465
0.00105972
0.0010728
0.00108571
0.00109844
0.00111095
0.00112314
0.00113506
0.00114678
0.00115831
0.00116966
0.00118083
0.0011918
0.00120257
0.00121312
0.00122345
0.00123354
0.0012434
0.001253
0.00126234
0.00127141
0.0012802
0.0012887
0.00129691
0.00130482
0.00131242
0.00131971
0.00132668
0.00133332
0.00133964
0.00134561
0.00135126
0.00135656
0.00136152
0.00136613
0.0013704
0.00137432
0.0013779
0.00138113
0.00138401
0.00138655
0.00138875
0.00139061
0.00139213
0.00139332
0.00139419
0.00139473
0.00139495
0.00139486
0.00139447
0.00139377
0.00139279
0.00139151
0.00138996
0.00138814
0.00138606
0.00138372
0.00138113
0.00137831
0.00137525
0.00137198
0.00136849
0.00136479
0.00136088
0.00135677
0.00135244
0.00134785
0.00134291
0.00133747
0.00133131
0.00132449
0.00131726
0.00130986
0.00130274
0.00129635
0.00128583
0.00127577
0.00126643
0.00125677
0.00124754
0.00124245
0.00123426
0.00122474
0.00121204
0.00120177
0.00119571
0.0011843
0.00117754
0.00116847
0.00115868
0.00114738
0.00114032
0.00112864
0.00111748
0.00110714
0.00108832
3.22086e-06
5.25468e-05
0.000111944
0.000158365
0.000193431
0.000220473
0.000242212
0.000260611
0.000277002
0.000292238
0.000306836
0.000321095
0.000335174
0.000349154
0.000363066
0.00037692
0.000390711
0.00040443
0.000418065
0.000431605
0.000445041
0.000458364
0.000471569
0.000484652
0.000497611
0.000510447
0.000523161
0.000535755
0.000548235
0.000560605
0.00057287
0.000585037
0.000597109
0.000609091
0.000620986
0.000632796
0.000644522
0.000656164
0.000667718
0.000679181
0.000690551
0.00070182
0.000712983
0.000724033
0.000734961
0.000745758
0.000756418
0.000766937
0.000777322
0.00078759
0.000797782
0.000807957
0.000818192
0.000828574
0.000839182
0.000850092
0.000861383
0.000873161
0.000885527
0.000898477
0.000911868
0.000925602
0.000939686
0.000954072
0.000968774
0.000983797
0.00099907
0.00101459
0.00103033
0.0010463
0.00106246
0.00107878
0.00109525
0.0011118
0.00112843
0.00114511
0.00116183
0.00117851
0.00119514
0.00121168
0.00122813
0.00124447
0.00126069
0.00127677
0.0012927
0.00130847
0.00132405
0.00133943
0.0013546
0.0013695
0.00138409
0.00139843
0.00141254
0.00142643
0.0014401
0.00145356
0.00146678
0.00147976
0.00149248
0.00150494
0.00151712
0.00152902
0.00154062
0.00155192
0.00156289
0.00157354
0.00158385
0.00159382
0.00160343
0.00161267
0.00162155
0.00163005
0.00163817
0.0016459
0.00165324
0.00166018
0.00166672
0.00167285
0.00167857
0.00168388
0.00168879
0.00169328
0.00169736
0.00170102
0.00170428
0.00170713
0.00170958
0.00171162
0.00171327
0.00171453
0.00171539
0.00171588
0.00171599
0.00171573
0.00171511
0.00171414
0.00171282
0.00171117
0.00170919
0.00170689
0.00170428
0.00170138
0.00169819
0.00169472
0.00169098
0.00168697
0.00168272
0.00167821
0.00167346
0.00166843
0.00166312
0.00165745
0.00165132
0.00164463
0.00163742
0.00162982
0.00162199
0.00161415
0.00160644
0.00159693
0.00158755
0.00157816
0.00156834
0.00155853
0.00154968
0.00154013
0.00153021
0.00151959
0.0015093
0.00149996
0.00148952
0.00147989
0.00146963
0.00145912
0.00144843
0.00143859
0.0014276
0.00141602
0.00140322
0.0013859
3.73385e-06
5.74643e-05
0.000123064
0.000175824
0.000216698
0.000248804
0.000274831
0.000296809
0.000316185
0.000333948
0.000350743
0.000366971
0.000382872
0.000398578
0.000414158
0.00042964
0.000445031
0.000460329
0.000475525
0.000490608
0.000505568
0.000520398
0.000535091
0.000549644
0.000564056
0.000578326
0.000592459
0.000606457
0.000620326
0.000634073
0.000647705
0.00066123
0.000674655
0.000687989
0.000701237
0.000714406
0.000727503
0.000740531
0.000753497
0.000766405
0.000779258
0.000792062
0.000804822
0.000817543
0.000830232
0.000842896
0.000855548
0.000868201
0.000880877
0.000893608
0.000906436
0.000919413
0.000932601
0.000946063
0.000959853
0.000974018
0.000988591
0.0010036
0.00101905
0.00103492
0.00105116
0.00106774
0.00108462
0.00110178
0.00111921
0.00113688
0.00115475
0.00117283
0.00119107
0.00120948
0.00122801
0.00124664
0.00126535
0.00128411
0.0013029
0.00132167
0.00134041
0.00135909
0.00137767
0.00139614
0.00141449
0.0014327
0.00145077
0.00146867
0.0014864
0.00150394
0.00152127
0.00153839
0.00155528
0.00157186
0.00158816
0.0016042
0.00162001
0.00163558
0.00165092
0.00166602
0.00168087
0.00169545
0.00170975
0.00172377
0.0017375
0.00175091
0.001764
0.00177676
0.00178917
0.00180123
0.00181292
0.00182424
0.00183517
0.00184571
0.00185585
0.00186558
0.00187489
0.00188377
0.00189223
0.00190025
0.00190783
0.00191497
0.00192165
0.00192789
0.00193367
0.001939
0.00194388
0.00194831
0.00195228
0.00195579
0.00195886
0.00196148
0.00196367
0.00196541
0.00196673
0.00196761
0.00196808
0.00196813
0.00196779
0.00196704
0.00196591
0.0019644
0.00196253
0.00196029
0.00195772
0.00195481
0.00195156
0.00194801
0.00194415
0.00194
0.00193557
0.00193086
0.00192587
0.00192059
0.00191501
0.00190908
0.00190275
0.00189598
0.00188877
0.00188122
0.0018734
0.00186543
0.00185733
0.00184847
0.0018395
0.00183033
0.00182082
0.00181113
0.00180157
0.00179179
0.00178187
0.00177176
0.0017616
0.00175158
0.00174129
0.00173106
0.00172059
0.00171
0.00169939
0.00168892
0.00167804
0.00166656
0.00165381
0.00163832
4.11449e-06
6.10391e-05
0.000131359
0.000189256
0.000235062
0.000271638
0.000301576
0.000326903
0.000349119
0.000369292
0.000388157
0.000406202
0.000423734
0.000440941
0.000457933
0.000474765
0.000491463
0.000508035
0.00052448
0.000540792
0.000556963
0.000572989
0.000588864
0.000604586
0.000620155
0.000635571
0.000650839
0.000665965
0.000680955
0.000695817
0.000710562
0.000725198
0.000739736
0.000754187
0.000768562
0.000782871
0.000797124
0.000811332
0.000825505
0.000839655
0.000853793
0.000867929
0.000882079
0.000896254
0.000910471
0.000924746
0.000939099
0.000953551
0.000968129
0.000982862
0.000997788
0.00101294
0.00102837
0.00104411
0.0010602
0.00107665
0.00109348
0.0011107
0.00112828
0.0011462
0.00116445
0.001183
0.0012018
0.00122086
0.00124013
0.0012596
0.00127925
0.00129904
0.00131898
0.00133902
0.00135914
0.00137933
0.00139955
0.00141979
0.00144
0.00146018
0.00148029
0.00150032
0.00152023
0.00154002
0.00155966
0.00157916
0.00159849
0.00161764
0.00163661
0.00165537
0.00167393
0.00169225
0.00171033
0.00172811
0.00174562
0.00176289
0.00177993
0.00179672
0.00181328
0.00182958
0.00184563
0.0018614
0.0018769
0.0018921
0.00190699
0.00192156
0.00193581
0.00194971
0.00196325
0.00197642
0.00198922
0.00200163
0.00201363
0.00202523
0.00203641
0.00204715
0.00205747
0.00206734
0.00207676
0.00208572
0.00209422
0.00210225
0.0021098
0.00211688
0.00212348
0.0021296
0.00213524
0.0021404
0.00214507
0.00214926
0.00215298
0.00215621
0.00215898
0.00216128
0.00216311
0.00216448
0.0021654
0.00216589
0.00216594
0.00216555
0.00216475
0.00216355
0.00216196
0.00215997
0.0021576
0.00215488
0.0021518
0.00214839
0.00214465
0.00214059
0.00213624
0.00213158
0.00212664
0.0021214
0.00211585
0.00210998
0.00210375
0.00209716
0.0020902
0.00208292
0.00207539
0.00206764
0.00205969
0.00205136
0.00204284
0.00203409
0.00202506
0.00201584
0.00200651
0.00199705
0.00198747
0.00197779
0.001968
0.00195817
0.00194821
0.00193819
0.00192804
0.00191781
0.00190757
0.00189733
0.00188689
0.00187601
0.00186415
0.00185055
4.37749e-06
6.35004e-05
0.000137287
0.000199258
0.000249181
0.00028963
0.000323062
0.000351454
0.000376311
0.000398744
0.000419543
0.000439259
0.000458259
0.000476783
0.000494977
0.00051293
0.000530689
0.000548279
0.00056571
0.000582982
0.000600095
0.000617047
0.000633835
0.000650459
0.00066692
0.000683222
0.00069937
0.000715371
0.000731233
0.000746967
0.000762583
0.000778094
0.000793511
0.000808849
0.00082412
0.00083934
0.000854521
0.000869678
0.000884827
0.000899982
0.000915159
0.000930375
0.000945647
0.000960992
0.000976431
0.000991983
0.00100767
0.00102351
0.00103954
0.00105578
0.00107225
0.00108898
0.001106
0.00112334
0.001141
0.00115901
0.00117735
0.00119603
0.00121502
0.00123432
0.0012539
0.00127374
0.00129381
0.00131409
0.00133456
0.0013552
0.00137598
0.00139689
0.00141791
0.001439
0.00146016
0.00148134
0.00150254
0.00152373
0.00154488
0.00156597
0.00158699
0.0016079
0.0016287
0.00164937
0.00166989
0.00169025
0.00171044
0.00173046
0.00175028
0.0017699
0.0017893
0.00180849
0.0018274
0.00184604
0.00186445
0.00188263
0.00190058
0.0019183
0.00193578
0.00195302
0.00197
0.00198672
0.00200315
0.00201929
0.00203513
0.00205065
0.00206583
0.00208068
0.00209516
0.00210928
0.00212301
0.00213634
0.00214927
0.00216179
0.00217387
0.00218552
0.00219672
0.00220747
0.00221776
0.00222758
0.00223692
0.00224578
0.00225414
0.00226202
0.0022694
0.00227628
0.00228266
0.00228854
0.00229392
0.00229879
0.00230316
0.00230703
0.00231041
0.00231331
0.00231571
0.00231762
0.00231907
0.00232005
0.00232058
0.00232065
0.00232027
0.00231947
0.00231825
0.00231662
0.00231459
0.00231219
0.00230941
0.00230628
0.00230282
0.00229902
0.0022949
0.00229048
0.00228576
0.00228074
0.00227543
0.00226981
0.00226387
0.0022576
0.00225103
0.00224417
0.00223707
0.00222974
0.0022222
0.00221441
0.00220643
0.00219823
0.00218981
0.0021812
0.00217244
0.00216356
0.00215456
0.00214545
0.00213625
0.00212697
0.00211759
0.00210814
0.00209862
0.00208905
0.00207948
0.00206991
0.00206023
0.00205028
0.00203966
0.0020279
4.53708e-06
6.5036e-05
0.000141213
0.000206305
0.000259581
0.000303315
0.0003398
0.000370934
0.000398196
0.000422704
0.000445283
0.000466523
0.00048684
0.000506514
0.000525729
0.000544606
0.000563215
0.000581599
0.000599782
0.000617776
0.000635586
0.000653215
0.000670667
0.000687943
0.000705047
0.000721985
0.000738764
0.000755392
0.000771879
0.000788237
0.000804478
0.000820616
0.000836666
0.000852643
0.000868563
0.000884441
0.000900296
0.000916143
0.000932001
0.000947887
0.000963819
0.000979818
0.000995901
0.00101209
0.0010284
0.00104486
0.00106148
0.0010783
0.00109532
0.00111257
0.00113007
0.00114784
0.00116589
0.00118425
0.0012029
0.00122187
0.00124114
0.00126072
0.00128057
0.0013007
0.00132107
0.00134168
0.0013625
0.0013835
0.00140468
0.00142601
0.00144747
0.00146904
0.0014907
0.00151242
0.00153419
0.00155598
0.00157778
0.00159955
0.00162128
0.00164296
0.00166455
0.00168605
0.00170742
0.00172867
0.00174978
0.00177073
0.00179152
0.00181212
0.00183255
0.00185277
0.00187279
0.00189258
0.00191213
0.00193145
0.00195056
0.00196946
0.00198815
0.00200662
0.00202487
0.00204288
0.00206064
0.00207815
0.00209539
0.00211234
0.00212899
0.00214533
0.00216135
0.00217702
0.00219235
0.0022073
0.00222188
0.00223606
0.00224983
0.00226318
0.0022761
0.00228859
0.00230062
0.0023122
0.00232331
0.00233394
0.00234409
0.00235375
0.0023629
0.00237155
0.00237969
0.00238732
0.00239444
0.00240105
0.00240714
0.0024127
0.00241774
0.00242227
0.00242629
0.00242982
0.00243283
0.00243533
0.00243734
0.00243886
0.00243991
0.00244048
0.0024406
0.00244027
0.00243951
0.00243832
0.00243672
0.00243472
0.00243235
0.0024296
0.00242651
0.00242307
0.00241931
0.00241524
0.00241086
0.00240619
0.00240122
0.00239597
0.00239043
0.00238459
0.00237849
0.00237213
0.00236554
0.00235873
0.00235173
0.00234453
0.00233715
0.00232958
0.00232183
0.00231392
0.00230587
0.00229769
0.00228941
0.00228102
0.00227255
0.002264
0.00225538
0.0022467
0.00223799
0.00222927
0.00222056
0.00221189
0.00220321
0.00219438
0.0021851
0.00217508
4.60694e-06
6.5801e-05
0.000143438
0.000210795
0.000266706
0.00031315
0.000352239
0.000385767
0.000415164
0.000441534
0.000465714
0.000488318
0.000509794
0.000530456
0.000550522
0.000570137
0.000589399
0.000608368
0.000627083
0.000645569
0.000663839
0.000681904
0.000699771
0.000717447
0.00073494
0.000752256
0.000769405
0.000786398
0.000803246
0.000819962
0.000836561
0.000853057
0.000869467
0.000885807
0.000902095
0.00091835
0.000934589
0.000950831
0.000967096
0.000983403
0.000999772
0.00101622
0.00103278
0.00104945
0.00106627
0.00108325
0.00110041
0.00111777
0.00113535
0.00115316
0.00117122
0.00118955
0.00120815
0.00122703
0.0012462
0.00126565
0.00128539
0.0013054
0.00132567
0.00134619
0.00136694
0.00138791
0.00140908
0.00143044
0.00145195
0.00147361
0.0014954
0.0015173
0.00153929
0.00156134
0.00158344
0.00160556
0.0016277
0.00164981
0.0016719
0.00169393
0.00171589
0.00173776
0.00175952
0.00178117
0.00180268
0.00182404
0.00184525
0.00186629
0.00188716
0.00190783
0.00192832
0.0019486
0.00196869
0.00198858
0.0020083
0.00202783
0.00204716
0.0020663
0.00208523
0.00210394
0.00212242
0.00214065
0.00215863
0.00217633
0.00219374
0.00221085
0.00222764
0.00224411
0.00226022
0.00227598
0.00229136
0.00230634
0.00232092
0.00233509
0.00234882
0.00236211
0.00237495
0.00238734
0.00239925
0.00241069
0.00242164
0.00243208
0.00244202
0.00245144
0.00246034
0.00246873
0.0024766
0.00248395
0.00249077
0.00249704
0.00250278
0.00250799
0.00251267
0.00251684
0.00252048
0.00252361
0.00252622
0.00252834
0.00252996
0.0025311
0.00253176
0.00253197
0.00253172
0.00253104
0.00252993
0.00252842
0.00252651
0.00252422
0.00252158
0.00251858
0.00251525
0.00251161
0.00250765
0.00250341
0.00249888
0.00249407
0.00248899
0.00248365
0.00247807
0.00247225
0.00246623
0.00246001
0.00245361
0.00244704
0.0024403
0.00243341
0.00242638
0.00241921
0.00241191
0.00240451
0.00239702
0.00238943
0.00238178
0.00237407
0.00236631
0.00235852
0.00235073
0.00234295
0.00233524
0.0023276
0.00232001
0.00231238
0.00230448
0.00229607
4.60014e-06
6.59244e-05
0.000144218
0.000213064
0.000270941
0.000319537
0.000360775
0.000396331
0.000427566
0.000455557
0.00048113
0.000504913
0.000527372
0.000548846
0.000569579
0.000589742
0.000609452
0.000628791
0.000647811
0.000666549
0.000685031
0.000703274
0.000721291
0.000739095
0.000756697
0.000774107
0.000791338
0.000808403
0.000825315
0.000842088
0.000858739
0.000875285
0.000891743
0.000908131
0.000924469
0.000940775
0.000957071
0.000973375
0.000989709
0.00100609
0.00102255
0.00103909
0.00105575
0.00107254
0.00108947
0.00110658
0.00112388
0.00114138
0.00115911
0.00117706
0.00119527
0.00121373
0.00123246
0.00125146
0.00127074
0.00129029
0.0013101
0.00133018
0.00135052
0.0013711
0.00139191
0.00141294
0.00143417
0.00145559
0.00147718
0.00149893
0.00152081
0.00154281
0.00156492
0.00158711
0.00160935
0.00163165
0.00165396
0.00167628
0.00169857
0.00172084
0.00174304
0.00176518
0.00178722
0.00180916
0.00183098
0.00185266
0.0018742
0.00189559
0.00191682
0.00193787
0.00195877
0.00197952
0.00200012
0.00202057
0.00204086
0.002061
0.00208096
0.00210075
0.00212034
0.00213974
0.00215891
0.00217786
0.00219656
0.00221499
0.00223315
0.00225102
0.00226858
0.00228582
0.00230272
0.00231927
0.00233545
0.00235124
0.00236662
0.00238159
0.00239613
0.00241023
0.00242388
0.00243707
0.00244979
0.00246204
0.0024738
0.00248505
0.00249577
0.00250598
0.00251566
0.00252482
0.00253345
0.00254155
0.0025491
0.00255611
0.00256257
0.0025685
0.00257388
0.00257874
0.00258306
0.00258685
0.00259012
0.00259287
0.00259512
0.00259687
0.00259814
0.00259893
0.00259926
0.00259914
0.00259859
0.00259762
0.00259624
0.00259447
0.00259234
0.00258984
0.00258701
0.00258386
0.0025804
0.00257664
0.00257261
0.00256831
0.00256375
0.00255895
0.00255393
0.00254869
0.00254327
0.00253766
0.0025319
0.00252599
0.00251994
0.00251376
0.00250746
0.00250105
0.00249455
0.00248796
0.00248129
0.00247456
0.00246779
0.00246097
0.00245413
0.00244729
0.00244047
0.00243371
0.00242704
0.00242048
0.00241403
0.00240762
0.00240106
0.00239415
4.52903e-06
6.55159e-05
0.00014377
0.000213406
0.00027262
0.000322826
0.000365755
0.000402952
0.000435702
0.000465034
0.000491757
0.000516495
0.000539725
0.000561801
0.000582987
0.000603474
0.000623399
0.000642858
0.000661923
0.000680641
0.000699049
0.000717173
0.000735033
0.000752649
0.000770036
0.000787209
0.000804184
0.000820976
0.000837602
0.000854079