/*--------------------------------*- C++ -*----------------------------------*\
  =========                 |
  \\      /  F ield         | OpenFOAM: The Open Source CFD Toolbox
   \\    /   O peration     | Website:  https://openfoam.org
    \\  /    A nd           | Version:  7
     \\/     M anipulation  |
\*---------------------------------------------------------------------------*/
FoamFile
{
    version     2.0;
    format      ascii;
    class       volScalarField;
    location    "0.078";
    object      k_0;
}
// * * * * * * * * * * * * * * * * * * * * * * * * * * * * * * * * * * * * * //

dimensions      [0 2 -2 0 0 0 0];

internalField   nonuniform List<scalar> 
12225
(
1.94117e-05
1.79427e-05
1.67936e-05
1.54628e-05
1.4077e-05
1.29671e-05
1.15443e-05
1.0174e-05
9.11835e-06
7.87546e-06
6.58452e-06
5.82133e-06
5.58593e-06
5.48571e-06
5.19399e-06
4.70953e-06
2.02733e-05
1.48057e-05
1.99831e-05
1.98799e-05
1.96707e-05
1.94822e-05
1.91053e-05
1.8761e-05
1.84304e-05
1.78724e-05
1.73443e-05
1.69039e-05
1.64806e-05
1.59632e-05
1.55378e-05
1.50645e-05
1.46232e-05
1.4435e-05
2.16558e-05
2.05302e-05
2.00053e-05
1.93221e-05
1.90198e-05
1.89801e-05
1.88911e-05
1.87692e-05
1.87144e-05
1.86107e-05
1.84896e-05
1.83852e-05
1.82943e-05
1.81681e-05
1.80436e-05
1.78933e-05
1.77407e-05
1.7639e-05
1.88748e-05
1.89879e-05
2.09538e-05
2.07011e-05
1.99659e-05
1.71653e-05
1.58568e-05
1.61848e-05
1.71558e-05
1.76427e-05
1.77347e-05
1.7684e-05
1.74278e-05
1.71028e-05
1.68935e-05
1.6817e-05
1.68121e-05
1.68391e-05
1.70452e-05
1.73276e-05
2.23612e-05
2.77971e-05
2.74198e-05
2.50353e-05
2.24215e-05
2.09191e-05
2.01585e-05
1.97907e-05
1.96356e-05
1.94979e-05
1.92439e-05
1.87174e-05
1.74291e-05
1.62722e-05
1.57771e-05
1.57043e-05
1.57654e-05
1.61126e-05
2.52752e-05
2.51007e-05
2.34441e-05
2.32915e-05
2.49682e-05
2.80134e-05
2.84808e-05
2.76083e-05
2.53915e-05
2.4519e-05
2.43356e-05
2.42416e-05
2.40131e-05
2.3351e-05
2.23815e-05
2.1602e-05
2.12096e-05
2.09051e-05
2.10731e-05
2.20655e-05
2.15459e-05
2.15063e-05
2.3104e-05
2.72896e-05
2.87737e-05
2.85503e-05
2.6541e-05
2.50054e-05
2.46871e-05
2.46678e-05
2.47027e-05
2.49052e-05
2.57692e-05
2.72436e-05
2.84984e-05
2.8929e-05
2.01345e-05
2.03721e-05
2.17153e-05
2.53096e-05
2.82988e-05
2.89312e-05
2.80396e-05
2.52009e-05
2.33541e-05
2.2411e-05
2.2042e-05
2.1994e-05
2.20794e-05
2.25574e-05
2.42766e-05
2.65203e-05
2.81043e-05
2.90256e-05
2.0144e-05
2.0395e-05
2.13226e-05
2.37902e-05
2.62676e-05
2.66659e-05
2.61177e-05
2.40121e-05
2.21982e-05
2.11076e-05
2.0489e-05
2.02632e-05
2.0267e-05
2.04353e-05
2.11295e-05
2.27906e-05
2.38557e-05
2.4824e-05
2.00725e-05
2.08041e-05
2.13625e-05
2.1585e-05
2.22859e-05
2.26164e-05
2.25567e-05
2.22377e-05
2.19622e-05
2.14814e-05
2.08762e-05
2.04936e-05
2.039e-05
2.03985e-05
2.04854e-05
2.08553e-05
2.13419e-05
2.17011e-05
2.06711e-05
2.12417e-05
2.14728e-05
2.14975e-05
2.12476e-05
2.11977e-05
2.15264e-05
2.26068e-05
2.30638e-05
2.3016e-05
2.24324e-05
2.13895e-05
2.09047e-05
2.08058e-05
2.08319e-05
2.10284e-05
2.15735e-05
2.1949e-05
2.03784e-05
2.07508e-05
2.18961e-05
2.20509e-05
2.16729e-05
2.11528e-05
2.1191e-05
2.19525e-05
2.28639e-05
2.29482e-05
2.26727e-05
2.19582e-05
2.15678e-05
2.14448e-05
2.14359e-05
2.14757e-05
2.16423e-05
2.18198e-05
2.01732e-05
2.05157e-05
2.1421e-05
2.22547e-05
2.22336e-05
2.1747e-05
2.14475e-05
2.14564e-05
2.15651e-05
2.15813e-05
2.15117e-05
2.13834e-05
2.13608e-05
2.13826e-05
2.15252e-05
2.18183e-05
2.20178e-05
2.21356e-05
2.01365e-05
2.04038e-05
2.14732e-05
2.28024e-05
2.28329e-05
2.21182e-05
2.12214e-05
2.09583e-05
2.0903e-05
2.08598e-05
2.0771e-05
2.07353e-05
2.07474e-05
2.07837e-05
2.09283e-05
2.13672e-05
2.1688e-05
2.19044e-05
2.02948e-05
2.01731e-05
2.02239e-05
2.04405e-05
2.05855e-05
2.05722e-05
2.05101e-05
2.05031e-05
2.0518e-05
2.05425e-05
2.05601e-05
2.05925e-05
2.06758e-05
2.08153e-05
2.09312e-05
2.10272e-05
2.10703e-05
2.11116e-05
2.05402e-05
2.04481e-05
2.03448e-05
2.03587e-05
2.04246e-05
2.04621e-05
2.04764e-05
2.04894e-05
2.0521e-05
2.06427e-05
2.09832e-05
2.12514e-05
2.13731e-05
2.13986e-05
2.13833e-05
2.12779e-05
2.10201e-05
2.07801e-05
2.00558e-05
2.01119e-05
2.02468e-05
2.05279e-05
2.06402e-05
2.05937e-05
2.04571e-05
2.03927e-05
2.03785e-05
2.03891e-05
2.04749e-05
2.08139e-05
2.11721e-05
2.13437e-05
2.13929e-05
2.13917e-05
2.13401e-05
2.1223e-05
2.01632e-05
2.0258e-05
2.02611e-05
2.0327e-05
2.06899e-05
2.08839e-05
2.08553e-05
2.07667e-05
2.07701e-05
2.07864e-05
2.07637e-05
2.07508e-05
2.07628e-05
2.07656e-05
2.07467e-05
2.07026e-05
2.06904e-05
2.06777e-05
2.00283e-05
2.00694e-05
2.02063e-05
2.04574e-05
2.06013e-05
2.06333e-05
2.06244e-05
2.05505e-05
2.04069e-05
2.03279e-05
2.0303e-05
2.02986e-05
2.02985e-05
2.03004e-05
2.03123e-05
2.03812e-05
2.05961e-05
2.07148e-05
2.01562e-05
2.04123e-05
2.04787e-05
2.04299e-05
2.035e-05
2.03655e-05
2.0418e-05
2.04163e-05
2.03831e-05
2.03447e-05
2.03307e-05
2.03255e-05
2.03227e-05
2.0321e-05
2.03206e-05
2.03214e-05
2.0329e-05
2.03713e-05
2.04751e-05
2.03971e-05
2.0358e-05
2.02792e-05
2.02894e-05
2.04247e-05
2.06254e-05
2.06918e-05
2.06951e-05
2.06612e-05
2.05819e-05
2.05495e-05
2.05457e-05
2.05542e-05
2.06061e-05
2.07954e-05
2.09972e-05
2.11227e-05
2.02363e-05
2.04144e-05
2.04332e-05
2.03602e-05
2.02897e-05
2.02923e-05
2.03109e-05
2.03125e-05
2.03044e-05
2.03012e-05
2.03075e-05
2.03492e-05
2.05227e-05
2.08144e-05
2.10707e-05
2.12636e-05
2.135e-05
2.13622e-05
2.02082e-05
2.01441e-05
2.00766e-05
2.0066e-05
2.00838e-05
2.01765e-05
2.02686e-05
2.02992e-05
2.03208e-05
2.03297e-05
2.03252e-05
2.03316e-05
2.03822e-05
2.05731e-05
2.08203e-05
2.09843e-05
2.10864e-05
2.11407e-05
2.033e-05
2.01694e-05
2.00237e-05
2.00109e-05
2.0043e-05
2.02185e-05
2.049e-05
2.0619e-05
2.06434e-05
2.0621e-05
2.04877e-05
2.03376e-05
2.02773e-05
2.02658e-05
2.02684e-05
2.02886e-05
2.03818e-05
2.07784e-05
2.00167e-05
2.001e-05
2.00148e-05
2.00332e-05
2.00699e-05
2.01669e-05
2.03391e-05
2.0466e-05
2.05227e-05
2.05318e-05
2.05095e-05
2.03917e-05
2.02451e-05
2.01716e-05
2.01523e-05
2.01539e-05
2.01756e-05
2.02818e-05
2.00572e-05
2.00645e-05
2.00533e-05
2.00517e-05
2.00673e-05
2.01627e-05
2.05715e-05
2.09379e-05
2.09994e-05
2.09916e-05
2.09215e-05
2.06829e-05
2.04693e-05
2.03863e-05
2.03811e-05
2.03944e-05
2.0445e-05
2.06402e-05
2.00189e-05
2.00087e-05
1.99759e-05
1.99115e-05
1.98974e-05
1.99123e-05
2.00182e-05
2.00985e-05
2.00543e-05
1.98579e-05
1.98411e-05
2.00129e-05
2.05864e-05
2.19555e-05
2.36981e-05
2.51559e-05
2.64793e-05
2.6984e-05
2.02093e-05
1.8499e-05
1.41386e-05
1.36565e-05
1.47152e-05
1.80142e-05
2.46366e-05
2.95917e-05
3.51974e-05
4.16684e-05
5.06479e-05
6.12634e-05
7.41623e-05
8.67468e-05
0.000100961
0.000110227
0.000118375
0.000122724
3.24937e-05
0.00011102
0.000144019
0.000177747
0.000233197
0.000305482
0.000377538
0.000439324
0.000490889
0.000534767
0.000571831
0.000603186
0.000634492
0.000666786
0.000698212
0.000717996
0.000728317
0.00073062
0.0028366
0.00267874
0.00262115
0.00244465
0.00231243
0.00224539
0.00214467
0.00202039
0.00190218
0.00180518
0.00173757
0.00170001
0.00168188
0.00166511
0.00163228
0.00155012
0.00143656
0.00134544
0.00882847
0.01004
0.00764374
0.00675
0.00662817
0.00662663
0.00661453
0.0065662
0.00646781
0.00630836
0.00669482
0.00755614
0.00763322
0.00745377
0.00716395
0.00693293
0.00672558
0.0065701
0.00646674
0.00636883
0.00629269
0.00627294
0.00627722
0.00628953
0.00631613
0.00635572
0.00642309
0.00655366
0.00665163
0.00677997
0.00695473
0.00708973
0.00718525
0.0073045
0.00749237
0.00756483
0.00765772
0.00847536
0.0071429
0.00347466
0.00401908
0.00548339
0.00681224
0.00745334
0.00766366
0.00766958
0.00702207
0.00646422
0.00622798
0.00650849
0.00721098
0.00869009
0.0118356
0.0192885
0.0297642
0.0376036
0.0397095
0.0402927
0.0459172
0.0687965
0.0947745
0.104178
0.10597
0.116152
0.112729
0.0337849
0.00339578
0.0013297
0.00108799
0.00107325
0.00101807
0.000902035
0.000816561
0.000695269
0.000556114
0.000482364
0.000388034
0.000312535
0.000271799
0.000214002
0.000184053
0.000162701
0.000150271
0.000145549
0.000145514
0.000145069
0.000144518
0.000144409
0.000144174
0.000143664
0.000143212
0.000143075
0.000142809
0.000142199
0.000141922
0.000141484
0.000141114
0.00014107
0.000140738
0.000140093
0.000139582
0.000138942
0.000138113
0.000137225
0.000136205
0.000135294
0.000134071
0.000132651
0.000131371
0.000130099
0.000128601
0.000127137
0.00012551
0.000123138
0.000119968
0.000116288
0.000111994
0.000107072
0.00010148
9.51835e-05
8.81727e-05
8.0566e-05
7.2805e-05
6.52026e-05
5.80975e-05
5.18942e-05
4.678e-05
4.24501e-05
3.84255e-05
3.44278e-05
3.03834e-05
2.62224e-05
2.19212e-05
1.76554e-05
1.37063e-05
1.04229e-05
7.8797e-06
5.97213e-06
4.55959e-06
3.51223e-06
2.7287e-06
2.13693e-06
1.68659e-06
1.34146e-06
1.07564e-06
8.70522e-07
7.11458e-07
5.86779e-07
4.87957e-07
4.08838e-07
3.44842e-07
2.92454e-07
2.48959e-07
2.12303e-07
1.80989e-07
1.53976e-07
1.30547e-07
1.10198e-07
9.25453e-08
7.72807e-08
6.41338e-08
5.28735e-08
4.32766e-08
3.51567e-08
2.83235e-08
2.26304e-08
1.79058e-08
1.40377e-08
1.0869e-08
8.33595e-09
6.28327e-09
4.70246e-09
3.42232e-09
2.49391e-09
1.70454e-09
1.54923e-09
1.25894e-09
9.06191e-08
4.89549e-06
3.70207e-06
0.00822035
0.00879858
0.00795632
0.00702408
0.00670725
0.00669445
0.00662884
0.00644594
0.00619606
0.00572737
0.00553102
0.00522824
0.00502627
0.0048188
0.00467968
0.0046355
0.00460688
0.00460337
0.00460943
0.00462245
0.00465281
0.00468686
0.0047257
0.00478184
0.00481315
0.00485278
0.00487392
0.00487074
0.00487123
0.0048854
0.00493367
0.00499924
0.00513798
0.00528965
0.0054511
0.00580385
0.00605997
0.00698896
0.00705915
0.00694439
0.00677383
0.0062443
0.00554293
0.00509534
0.00446464
0.004074
0.00345075
0.00288713
0.00265116
0.00271441
0.00273682
0.00273052
0.00284113
0.00334345
0.00456975
0.006678
0.00740489
0.00739699
0.00793784
0.00963246
0.014343
0.0458368
0.0950864
0.0708487
0.0304485
0.00675766
0.00135941
0.000716859
0.000549368
0.000468411
0.00038547
0.00032717
0.00029727
0.000265692
0.00024601
0.000235638
0.000224376
0.000219232
0.000216362
0.000212971
0.000211292
0.000210348
0.000209443
0.000208725
0.000207781
0.000207709
0.000207836
0.000208
0.000207886
0.000207746
0.000207937
0.000208425
0.00020899
0.000209438
0.000209987
0.000210912
0.000212108
0.000212904
0.000213185
0.000212582
0.000211784
0.000210511
0.000207072
0.000203108
0.000199441
0.000192944
0.000188596
0.000182613
0.00017795
0.000173521
0.000169941
0.000167172
0.000165266
0.000164469
0.000164582
0.000165226
0.000166107
0.000167138
0.000167712
0.000167686
0.000167153
0.000165696
0.000162529
0.000157453
0.000150063
0.000140316
0.000129454
0.000118887
0.000108831
9.9466e-05
9.09621e-05
8.32183e-05
7.59353e-05
6.89221e-05
6.22339e-05
5.5832e-05
4.97435e-05
4.40095e-05
3.8618e-05
3.35491e-05
2.87951e-05
2.43895e-05
2.0408e-05
1.68981e-05
1.38664e-05
1.13328e-05
9.28939e-06
7.63709e-06
6.28841e-06
5.18636e-06
4.291e-06
3.56984e-06
2.99273e-06
2.53067e-06
2.15672e-06
1.84747e-06
1.58646e-06
1.36285e-06
1.16921e-06
1.00047e-06
8.52887e-07
7.23798e-07
6.10896e-07
5.1249e-07
4.26819e-07
3.52927e-07
2.89348e-07
2.35399e-07
1.89283e-07
1.50983e-07
1.18384e-07
9.24215e-08
6.99595e-08
5.3735e-08
3.82108e-08
2.97723e-08
1.85501e-08
2.09947e-08
5.52727e-07
7.05094e-07
0.00687832
0.00794396
0.00786852
0.00753801
0.00717045
0.006796
0.00624931
0.00544531
0.00482133
0.00445892
0.00431461
0.00428144
0.00429812
0.00434964
0.00442669
0.00458419
0.00472009
0.00492413
0.00521201
0.00543978
0.00578526
0.00608585
0.00639098
0.00676462
0.00696914
0.00720444
0.00725371
0.00721014
0.00709568
0.00684453
0.00653766
0.00618362
0.00583747
0.00558595
0.0054704
0.00537162
0.00534172
0.00538957
0.00555729
0.00587006
0.00623304
0.00619011
0.0059857
0.00570976
0.00531517
0.00457357
0.00407072
0.00392666
0.00394927
0.00409579
0.0041983
0.0041621
0.00385836
0.00368065
0.00377317
0.00427379
0.00448996
0.00453136
0.00591097
0.0136774
0.039651
0.0518299
0.0405909
0.0144861
0.00471053
0.00115543
0.000497454
0.000383024
0.00034523
0.000323666
0.000309441
0.000298451
0.000292474
0.000286758
0.000285178
0.000286069
0.000286578
0.000288485
0.000291386
0.000295189
0.000300037
0.000305681
0.000311251
0.000317355
0.000327188
0.00033829
0.000347718
0.000355124
0.000363813
0.000372612
0.00038033
0.000388204
0.000397384
0.000406367
0.000414661
0.000423271
0.000432514
0.000440897
0.000445895
0.000448023
0.000447139
0.000442937
0.000430209
0.000412312
0.000391999
0.000362472
0.000332728
0.000300053
0.000269901
0.00024349
0.000218877
0.000197563
0.000180456
0.000168038
0.000159763
0.000154629
0.000152128
0.000151616
0.000153323
0.000157727
0.000162983
0.000168062
0.000170936
0.000171885
0.000171847
0.000170524
0.000165447
0.000154682
0.000141467
0.000127017
0.000113318
0.000102176
9.38839e-05
8.70482e-05
8.01923e-05
7.30507e-05
6.62117e-05
6.01981e-05
5.5198e-05
5.1129e-05
4.77147e-05
4.46074e-05
4.14907e-05
3.81882e-05
3.46827e-05
3.10141e-05
2.72563e-05
2.35579e-05
2.0045e-05
1.68055e-05
1.39e-05
1.13655e-05
9.2146e-06
7.43655e-06
6.00111e-06
4.86541e-06
3.97854e-06
3.28969e-06
2.75353e-06
2.33251e-06
1.99649e-06
1.72258e-06
1.49383e-06
1.29873e-06
1.129e-06
9.79478e-07
8.46001e-07
7.26582e-07
6.19551e-07
5.23497e-07
4.38771e-07
3.62001e-07
2.97719e-07
2.36734e-07
1.92462e-07
1.42499e-07
1.19603e-07
7.37e-08
8.41576e-08
9.31522e-08
0.00215927
0.00409267
0.00513685
0.00630159
0.00592175
0.00508108
0.00419225
0.00400309
0.00402198
0.004094
0.00423018
0.00447488
0.00484981
0.00531992
0.00586591
0.00648236
0.00715604
0.0079447
0.00877795
0.00962332
0.0105653
0.0114246
0.0122392
0.0130799
0.0137007
0.0142528
0.0147407
0.0148265
0.0147389
0.0144388
0.0137061
0.0126956
0.0112588
0.00946273
0.00792311
0.0068364
0.0060885
0.0056632
0.00549068
0.00536481
0.00532617
0.0054012
0.0055168
0.00550195
0.00541432
0.00522249
0.00497424
0.00486783
0.00478884
0.00471556
0.00471361
0.00470124
0.00448983
0.00416746
0.00429009
0.00435356
0.00437919
0.00524779
0.0152854
0.0313576
0.0361462
0.024112
0.0093515
0.00304714
0.00100977
0.000461999
0.000380234
0.000368291
0.000366307
0.000385151
0.000413893
0.000453169
0.000498396
0.000548397
0.000602889
0.000663106
0.000707578
0.000733824
0.000762661
0.000786412
0.00080313
0.000819006
0.000827066
0.00083374
0.000841352
0.000846974
0.00084861
0.00084779
0.000848126
0.000850184
0.000852486
0.000853634
0.000854583
0.000856858
0.000857868
0.000857627
0.000856411
0.000855289
0.000852795
0.000846233
0.00083794
0.000830706
0.00081866
0.000805368
0.000789098
0.000767114
0.000738671
0.000700836
0.000650451
0.000586919
0.000514254
0.000435563
0.000358622
0.000290209
0.000238532
0.000199639
0.000171433
0.000153578
0.000143649
0.000138957
0.000137819
0.000139086
0.000146055
0.000156812
0.000167033
0.000174049
0.000177563
0.000178721
0.000178579
0.000176823
0.000170914
0.000159388
0.000145753
0.000132994
0.000122068
0.000111953
0.000101398
9.01314e-05
7.89901e-05
6.90388e-05
6.08274e-05
5.43995e-05
4.93908e-05
4.53742e-05
4.21001e-05
3.93222e-05
3.66415e-05
3.36739e-05
3.03329e-05
2.67554e-05
2.31117e-05
1.95467e-05
1.62114e-05
1.32143e-05
1.06036e-05
8.38697e-06
6.5554e-06
5.08995e-06
3.95776e-06
3.11064e-06
2.48955e-06
2.03459e-06
1.69714e-06
1.44041e-06
1.239e-06
1.07491e-06
9.37429e-07
8.18666e-07
7.146e-07
6.21565e-07
5.38219e-07
4.62042e-07
3.94165e-07
3.31189e-07
2.76906e-07
2.26303e-07
1.84425e-07
1.45486e-07
1.14987e-07
8.86277e-08
0.00232384
0.00364716
0.00378762
0.00350107
0.00340681
0.00346272
0.00362425
0.003964
0.00437287
0.00484545
0.00537614
0.00590505
0.0064329
0.0069775
0.00760123
0.00834871
0.00918161
0.0100699
0.0109916
0.0119307
0.0128722
0.0137891
0.0146691
0.0155041
0.0162766
0.0169827
0.0176658
0.0182343
0.0185251
0.01858
0.0185186
0.0182121
0.0174456
0.0159448
0.0139474
0.011655
0.00925299
0.00739417
0.00627653
0.00567908
0.00539983
0.00520522
0.00503591
0.00498907
0.00500712
0.00499023
0.00491251
0.00482335
0.00482025
0.00482452
0.00482461
0.00480646
0.00462027
0.00421298
0.0041325
0.0042264
0.00494482
0.0130012
0.0243531
0.0273843
0.016171
0.0063792
0.00235424
0.000875874
0.000480948
0.000407122
0.000401833
0.000444827
0.000524344
0.000653942
0.00082492
0.00105771
0.00117622
0.00123616
0.00125738
0.00125698
0.00124481
0.00124036
0.00120623
0.00115728
0.00113736
0.00112468
0.00109853
0.00106397
0.00103867
0.00102285
0.00101111
0.000992553
0.000975338
0.000965831
0.000959695
0.000950733
0.000941033
0.000934088
0.000928105
0.000918222
0.000906982
0.000897479
0.000887254
0.0008743
0.000863122
0.00085477
0.00084771
0.000844567
0.000841987
0.000840418
0.000838784
0.000834671
0.000825604
0.000809663
0.000786843
0.000754954
0.000705805
0.00063672
0.000544397
0.000439695
0.00033933
0.000256222
0.000200889
0.000164537
0.000143894
0.000134028
0.000130207
0.000129569
0.000131689
0.000141572
0.000155873
0.000167672
0.000174637
0.000177456
0.000177732
0.000176299
0.000169368
0.000153253
0.000138147
0.000126545
0.000117485
0.000109204
0.00010046
9.11538e-05
8.21687e-05
7.44313e-05
6.83818e-05
6.37899e-05
5.99916e-05
5.6514e-05
5.3393e-05
5.08357e-05
4.86559e-05
4.62908e-05
4.32336e-05
3.93532e-05
3.48144e-05
2.9842e-05
2.46015e-05
1.93211e-05
1.4392e-05
1.02195e-05
7.02125e-06
4.79688e-06
3.35779e-06
2.45973e-06
1.8968e-06
1.52914e-06
1.27103e-06
1.07513e-06
9.16809e-07
7.85106e-07
6.73588e-07
5.79413e-07
4.99046e-07
4.30229e-07
3.70435e-07
3.1714e-07
2.70361e-07
2.26894e-07
1.90139e-07
1.54791e-07
1.27188e-07
9.97343e-08
0.00236724
0.00227203
0.00244839
0.00289136
0.00345943
0.00408534
0.00467865
0.00506616
0.00536082
0.00563403
0.00600008
0.00645688
0.00693344
0.00744236
0.00813558
0.00892695
0.00976702
0.0106262
0.0114939
0.0123541
0.013185
0.0139658
0.0147033
0.0154236
0.0161448
0.0168364
0.017455
0.0179747
0.0183873
0.018666
0.0188109
0.0187875
0.0184491
0.0174922
0.016096
0.0144344
0.0125957
0.0105489
0.0085669
0.0070401
0.00598105
0.00540596
0.00506443
0.00484002
0.00474259
0.00472762
0.00471904
0.00470815
0.00472063
0.00472343
0.00466198
0.00427807
0.00396796
0.00400486
0.00425992
0.00545253
0.0119221
0.0194427
0.0219806
0.0132263
0.00504073
0.00192251
0.00082555
0.000503471
0.000447008
0.0004461
0.000537491
0.000724027
0.00101504
0.00143911
0.00165197
0.00174278
0.00176754
0.00167778
0.00155931
0.00149676
0.00135864
0.00127974
0.00123051
0.00113678
0.00105247
0.00101045
0.000952655
0.000874608
0.000831915
0.000803541
0.000766065
0.000743898
0.00072473
0.000699658
0.00068504
0.000670279
0.000656998
0.000643881
0.000629012
0.000613762
0.000596448
0.000579989
0.0005649
0.000551172
0.000541082
0.000531984
0.000525848
0.000524877
0.000534429
0.000556227
0.000593047
0.000645742
0.000703731
0.000752463
0.00077631
0.000783389
0.000776283
0.000754085
0.000720863
0.000677238
0.000613547
0.000524947
0.000411397
0.000301079
0.000219367
0.000170471
0.000143261
0.000130068
0.000124612
0.000123049
0.000123911
0.000131228
0.000147576
0.000161352
0.000169637
0.000172882
0.000173067
0.000170899
0.000160568
0.000141358
0.000126164
0.000115781
0.000108119
0.000101038
9.33766e-05
8.51907e-05
7.74079e-05
7.10628e-05
6.65602e-05
6.34681e-05
6.09522e-05
5.84161e-05
5.58019e-05
5.3378e-05
5.12913e-05
4.93149e-05
4.69625e-05
4.37821e-05
3.95709e-05
3.44368e-05
2.87662e-05
2.31279e-05
1.80476e-05
1.37798e-05
1.03498e-05
7.66985e-06
5.63849e-06
4.18242e-06
3.19576e-06
2.48363e-06
1.91103e-06
1.44971e-06
1.09301e-06
8.27395e-07
6.34585e-07
4.96021e-07
3.96269e-07
3.22922e-07
2.67687e-07
2.23384e-07
1.86697e-07
1.54645e-07
1.26792e-07
1.02792e-07
0.00115893
0.00221177
0.00308007
0.00426223
0.00466169
0.00490106
0.00512628
0.00536768
0.00554877
0.00580905
0.00620112
0.00664575
0.00701179
0.00720721
0.00729089
0.00739086
0.00751672
0.0076682
0.00785518
0.00802334
0.00818124
0.00836365
0.00860712
0.008932
0.00934856
0.00987938
0.0104861
0.0111235
0.0117473
0.0123036
0.0127161
0.0130078
0.0131636
0.0130575
0.0126269
0.011884
0.0108674
0.00964681
0.00838954
0.00726015
0.00630133
0.00555035
0.00503823
0.00472272
0.0045415
0.00448477
0.00445963
0.00439544
0.00433144
0.00423574
0.00395332
0.00384742
0.00397385
0.00473027
0.00795625
0.0126373
0.0164237
0.0181398
0.0125365
0.0046251
0.00176982
0.000800385
0.000524926
0.000474826
0.000489444
0.000625216
0.00097789
0.00156619
0.00207413
0.00224797
0.00228395
0.00221547
0.00187328
0.00166739
0.00155483
0.00140392
0.0011867
0.00102155
0.000918565
0.000776626
0.000716839
0.000677204
0.000636397
0.000618543
0.00060895
0.000585735
0.000567739
0.000558241
0.000533748
0.000501197
0.000487097
0.000467485
0.000448072
0.000440578
0.00043435
0.000430115
0.000428334
0.000429125
0.000431718
0.000433358
0.000433171
0.000427123
0.000412753
0.000390209
0.000362475
0.000334459
0.000310753
0.000293587
0.000299658
0.000339832
0.000422347
0.00052093
0.000614432
0.000676584
0.00069789
0.000694714
0.000669378
0.000629858
0.000580853
0.00051185
0.000411452
0.000296602
0.000211354
0.000162603
0.00013649
0.000123752
0.000118317
0.000116769
0.000117792
0.000125335
0.000141944
0.000154804
0.000161707
0.000163702
0.00016322
0.000158348
0.000141349
0.000123214
0.000111371
0.000103912
9.81686e-05
9.22354e-05
8.54554e-05
7.82201e-05
7.15575e-05
6.64802e-05
6.3241e-05
6.11403e-05
5.91175e-05
5.65658e-05
5.36554e-05
5.09846e-05
4.89393e-05
4.73184e-05
4.54888e-05
4.2833e-05
3.90995e-05
3.446e-05
2.93425e-05
2.42181e-05
1.94608e-05
1.53001e-05
1.18337e-05
9.062e-06
6.91231e-06
5.25515e-06
3.94303e-06
2.89183e-06
2.07224e-06
1.45828e-06
1.01563e-06
7.07212e-07
4.98268e-07
3.59087e-07
2.66939e-07
2.05785e-07
1.63511e-07
1.34067e-07
1.09787e-07
9.2416e-08
0.00190315
0.00348225
0.00428791
0.00473409
0.00490389
0.00509504
0.00529704
0.00546119
0.00552766
0.00556035
0.00564164
0.00571925
0.00575147
0.00577822
0.00580227
0.00581462
0.00582768
0.00583478
0.00584204
0.00585356
0.00587017
0.00589765
0.00593158
0.00596647
0.00600119
0.00602993
0.00605264
0.00607407
0.00611922
0.00617978
0.00625759
0.00635903
0.00650216
0.00668007
0.00687432
0.00703538
0.00707578
0.00689417
0.0065409
0.00605276
0.00550612
0.00503221
0.00462855
0.00435699
0.00420935
0.00408372
0.00401609
0.0039883
0.00390824
0.00368259
0.00366232
0.00399755
0.00648495
0.0106904
0.0131446
0.0147318
0.0155928
0.0120719
0.00466409
0.00178004
0.000819871
0.000544061
0.000493872
0.000508818
0.000645663
0.00099243
0.00162261
0.00247532
0.0027863
0.0028568
0.00281209
0.00232065
0.00176367
0.00152698
0.00131386
0.00100497
0.000871582
0.000807856
0.000775376
0.000762053
0.000759385
0.000780699
0.000846993
0.000938562
0.00100581
0.00103285
0.00101767
0.000981405
0.000934954
0.000792629
0.000730107
0.000665071
0.000592278
0.000565353
0.000556453
0.000556349
0.000565405
0.000591561
0.000632632
0.000678337
0.000714623
0.000734142
0.000718251
0.000654883
0.000559129
0.000450411
0.000350199
0.000274096
0.000221554
0.00018962
0.000172564
0.000174767
0.000208158
0.000287833
0.000395859
0.000496848
0.00056391
0.000586853
0.00058394
0.000556269
0.000512165
0.00045249
0.000358633
0.00025471
0.000184728
0.000145908
0.000125434
0.000115477
0.000111436
0.000110806
0.000112762
0.000122315
0.000136391
0.000145554
0.000149468
0.000149928
0.00014812
0.00013779
0.000118283
0.000105247
9.80223e-05
9.35623e-05
8.91761e-05
8.37924e-05
7.76494e-05
7.14434e-05
6.60393e-05
6.21568e-05
5.98537e-05
5.83165e-05
5.64292e-05
5.37585e-05
5.07192e-05
4.79975e-05
4.59811e-05
4.45225e-05
4.29833e-05
4.0755e-05
3.75762e-05
3.35615e-05
2.90512e-05
2.44343e-05
2.00339e-05
1.6068e-05
1.26524e-05
9.81658e-06
7.51021e-06
5.63362e-06
4.10926e-06
2.90625e-06
1.99627e-06
1.33757e-06
8.79593e-07
5.73585e-07
3.7487e-07
2.5052e-07
1.72699e-07
1.26182e-07
9.43745e-08
7.68773e-08
0.00242878
0.00398629
0.00463426
0.00488731
0.00503814
0.00523208
0.00533206
0.00540627
0.00544568
0.00545763
0.00546061
0.00545973
0.00544662
0.00542411
0.00540286
0.00538325
0.00536649
0.00535712
0.00535332
0.00535886
0.00537607
0.00541408
0.00545689
0.00548784
0.00552786
0.00555124
0.00556193
0.00555601
0.00551165
0.00543196
0.00531187
0.00515468
0.00496625
0.0047917
0.0046113
0.0044385
0.00432188
0.00426545
0.00424633
0.00421353
0.00414907
0.00402541
0.00389201
0.00381571
0.00379267
0.00377391
0.00371926
0.00350794
0.00340791
0.00353343
0.00474166
0.00914963
0.0121672
0.0132625
0.0137372
0.013992
0.0113854
0.00480185
0.0018819
0.000870777
0.000570394
0.000510763
0.000519981
0.00066013
0.00112567
0.00195301
0.00304663
0.00349936
0.00358758
0.00349947
0.0030548
0.00234458
0.00176555
0.00151331
0.0012427
0.00104265
0.000993573
0.000999869
0.00112562
0.00137499
0.00172148
0.00216356
0.00271716
0.00333768
0.00375456
0.00392131
0.00392145
0.00358709
0.00339014
0.00272687
0.00231704
0.00198312
0.00161076
0.00142227
0.00132435
0.00129088
0.00128966
0.00134975
0.00146531
0.00160909
0.0017367
0.00184057
0.0018512
0.00171882
0.00149322
0.00119988
0.00087951
0.000597477
0.000390983
0.000250139
0.000171272
0.000131322
0.000111844
0.000104919
0.000113807
0.000150248
0.000217096
0.000304694
0.000387971
0.000452005
0.000477524
0.000473423
0.000436759
0.000373801
0.000284431
0.000202088
0.000153759
0.000127191
0.000113339
0.000106976
0.00010502
0.000105355
0.000108739
0.000118769
0.000127805
0.000132775
0.000134172
0.000133755
0.000129544
0.00011424
9.92394e-05
9.10819e-05
8.72912e-05
8.47591e-05
8.12427e-05
7.61071e-05
7.0334e-05
6.50974e-05
6.09429e-05
5.81827e-05
5.67183e-05
5.54852e-05
5.34407e-05
5.05805e-05
4.75641e-05
4.4945e-05
4.30061e-05
4.16587e-05
4.03821e-05
3.85805e-05
3.59401e-05
3.25041e-05
2.8518e-05
2.42946e-05
2.01273e-05
1.62503e-05
1.28162e-05
9.88517e-06
7.43524e-06
5.42246e-06
3.82171e-06
2.60398e-06
1.71879e-06
1.103e-06
6.91365e-07
4.27228e-07
2.61984e-07
1.64787e-07
1.06094e-07
7.36116e-08
0.00262927
0.0042481
0.00479319
0.00499339
0.00516017
0.00527766
0.00532766
0.00536134
0.00537073
0.00536793
0.00534104
0.00529747
0.00524575
0.0051842
0.00511869
0.00505226
0.00498665
0.00492204
0.00486532
0.00481779
0.00479901
0.00482411
0.00489169
0.00497548
0.00509971
0.00522037
0.00533484
0.0054492
0.00553137
0.00556708
0.00556651
0.00549706
0.00537521
0.00514095
0.00481892
0.00442053
0.00401653
0.00376393
0.00358745
0.00349099
0.00344824
0.00344335
0.00347333
0.00347514
0.00341838
0.00322277
0.0030864
0.0031079
0.00360881
0.00639881
0.0110019
0.012971
0.0133127
0.0132946
0.0129418
0.0104967
0.00485093
0.0020298
0.000947179
0.000606479
0.000529156
0.000525003
0.000627566
0.000986136
0.00152956
0.00244943
0.00384144
0.0045702
0.0046961
0.00450378
0.0035907
0.00245942
0.00194513
0.00170029
0.00153037
0.00148631
0.00170163
0.00219726
0.00302648
0.00433733
0.00607482
0.00812232
0.0103453
0.0125498
0.0140033
0.01456
0.0143476
0.0128321
0.0117376
0.00963579
0.00791937
0.00638638
0.00506993
0.00412121
0.00346756
0.00309453
0.00291172
0.00284802
0.00293118
0.00312558
0.00318387
0.00303267
0.00282752
0.00262541
0.002415
0.00215963
0.0018375
0.00143778
0.00100904
0.000630411
0.00036245
0.000209493
0.000128908
9.22646e-05
7.60857e-05
7.00509e-05
7.30516e-05
8.94955e-05
0.000118097
0.000167251
0.000250175
0.000338306
0.000387835
0.000391493
0.000360807
0.000289714
0.000210821
0.000157006
0.000127055
0.000110876
0.000102887
9.98298e-05
9.94996e-05
0.000100453
0.000104985
0.000112194
0.000117231
0.000119404
0.000119543
0.000117926
0.000109114
9.4668e-05
8.59029e-05
8.17087e-05
7.98251e-05
7.77325e-05
7.3925e-05
6.88037e-05
6.36519e-05
5.95059e-05
5.65856e-05
5.48751e-05
5.39418e-05
5.25723e-05
5.02257e-05
4.73071e-05
4.44037e-05
4.18796e-05
3.99915e-05
3.87931e-05
3.78714e-05
3.65612e-05
3.43993e-05
3.13399e-05
2.75947e-05
2.34827e-05
1.9339e-05
1.54466e-05
1.19884e-05
9.03458e-06
6.58771e-06
4.63534e-06
3.14706e-06
2.06477e-06
1.311e-06
8.0874e-07
4.85393e-07
2.86102e-07
1.67183e-07
9.819e-08
0.00307994
0.00454789
0.00491735
0.00508276
0.00519711
0.00524316
0.00525742
0.00524946
0.00519382
0.0051099
0.00496591
0.00475841
0.00449088
0.00413055
0.00372321
0.0034414
0.00316858
0.00293006
0.00279079
0.00267298
0.00261432
0.00258632
0.00257656
0.00261597
0.00272224
0.00290568
0.00316326
0.00353802
0.00400026
0.00451444
0.00501091
0.00538435
0.0055765
0.00567795
0.00569946
0.00557412
0.00527907
0.00469238
0.00406141
0.0035843
0.00336697
0.00325779
0.00327132
0.00325233
0.00329223
0.00327692
0.00334416
0.004442
0.00868448
0.0119648
0.0130466
0.0132078
0.0130117
0.0122168
0.00951549
0.00482553
0.00219497
0.00105277
0.000653724
0.000548288
0.000536084
0.000609354
0.000912862
0.00140485
0.00223956
0.00367365
0.00504422
0.00543927
0.00554653
0.00537067
0.00435608
0.00305067
0.00265829
0.00255195
0.00263433
0.00313677
0.004207
0.00618258
0.00918776
0.0136083
0.0194217
0.0261538
0.0329109
0.0373347
0.0396086
0.0402901
0.0382971
0.0345177
0.0300867
0.0253156
0.0208718
0.0166406
0.0132275
0.0105016
0.00844364
0.00693206
0.00590521
0.00523655
0.00477458
0.00435613
0.00386699
0.00339745
0.00302437
0.00277407
0.0025725
0.00236271
0.00211757
0.00183544
0.00151615
0.00117687
0.000817976
0.000493696
0.0002693
0.000148587
8.9325e-05
6.40685e-05
5.35821e-05
5.0265e-05
5.25287e-05
6.12151e-05
7.6418e-05
0.000109697
0.000193439
0.000287109
0.00032728
0.000324424
0.000282863
0.000209692
0.000155459
0.00012466
0.000107646
9.89037e-05
9.52338e-05
9.44393e-05
9.46891e-05
9.64024e-05
0.000101271
0.000105909
0.000108403
0.00010886
0.000108018
0.000102945
9.03846e-05
8.16658e-05
7.73283e-05
7.54979e-05
7.40714e-05
7.12534e-05
6.67803e-05
6.19173e-05
5.77851e-05
5.48393e-05
5.29855e-05
5.19298e-05
5.11299e-05
4.95899e-05
4.68206e-05
4.37115e-05
4.10234e-05
3.88891e-05
3.72494e-05
3.61678e-05
3.5495e-05
3.46091e-05
3.27067e-05
2.96304e-05
2.57833e-05
2.15669e-05
1.73862e-05
1.35469e-05
1.02131e-05
7.43684e-06
5.22095e-06
3.53384e-06
2.30886e-06
1.45824e-06
8.91911e-07
5.28569e-07
3.06687e-07
1.69067e-07
0.003239
0.00462296
0.00494978
0.00508798
0.0051418
0.00514227
0.00506042
0.00489271
0.00457724
0.00405408
0.00347577
0.00297737
0.00255521
0.00234374
0.00219303
0.00210865
0.00199629
0.00193812
0.00190866
0.00189657
0.00189268
0.00186925
0.00183411
0.00178
0.00172296
0.00163518
0.0015483
0.00148662
0.00145231
0.00157135
0.00186165
0.00239619
0.00318077
0.00405202
0.00491365
0.00554808
0.00577483
0.005726