/*--------------------------------*- C++ -*----------------------------------*\
  =========                 |
  \\      /  F ield         | OpenFOAM: The Open Source CFD Toolbox
   \\    /   O peration     | Website:  https://openfoam.org
    \\  /    A nd           | Version:  7
     \\/     M anipulation  |
\*---------------------------------------------------------------------------*/
FoamFile
{
    version     2.0;
    format      ascii;
    class       surfaceScalarField;
    location    "0.078";
    object      phi_0;
}
// * * * * * * * * * * * * * * * * * * * * * * * * * * * * * * * * * * * * * //

dimensions      [0 3 -1 0 0 0 0];

internalField   nonuniform List<scalar> 
24170
(
1.39419e-06
1.9038e-07
1.26356e-06
1.30626e-07
1.13349e-06
1.30072e-07
1.01696e-06
1.16531e-07
9.09727e-07
1.07234e-07
8.07289e-07
1.02438e-07
7.09254e-07
9.80358e-08
6.17882e-07
9.13719e-08
5.35777e-07
8.21049e-08
4.64983e-07
7.07935e-08
4.06269e-07
5.87143e-08
3.58917e-07
4.73524e-08
3.20441e-07
3.84751e-08
2.87971e-07
3.24706e-08
2.57644e-07
3.03269e-08
2.28195e-07
2.9449e-08
1.95388e-07
3.2807e-08
2.83769e-08
1.67011e-07
1.68057e-06
2.15915e-07
1.65758e-06
1.53618e-07
1.61957e-06
1.68079e-07
1.58017e-06
1.55925e-07
1.53986e-06
1.47549e-07
1.49699e-06
1.4531e-07
1.45186e-06
1.43165e-07
1.40546e-06
1.37766e-07
1.35875e-06
1.28823e-07
1.31265e-06
1.16889e-07
1.26823e-06
1.03136e-07
1.22559e-06
8.99858e-08
1.18403e-06
8.0036e-08
1.14281e-06
7.36918e-08
1.10159e-06
7.15515e-08
1.06064e-06
7.04006e-08
1.02084e-06
7.26073e-08
7.60621e-08
9.73151e-07
1.75392e-06
2.37551e-07
1.74658e-06
1.60957e-07
1.74593e-06
1.68727e-07
1.73961e-06
1.62253e-07
1.73044e-06
1.56719e-07
1.72013e-06
1.55616e-07
1.70893e-06
1.54362e-07
1.6972e-06
1.49502e-07
1.68532e-06
1.40704e-07
1.67391e-06
1.28295e-07
1.66311e-06
1.13941e-07
1.65239e-06
1.007e-07
1.64047e-06
9.1955e-08
1.62622e-06
8.79398e-08
1.6088e-06
8.89794e-08
1.58769e-06
9.15108e-08
1.56317e-06
9.71209e-08
1.05513e-07
1.53372e-06
1.89827e-06
2.9782e-07
1.85831e-06
2.00914e-07
1.85261e-06
1.74429e-07
1.85742e-06
1.57443e-07
1.86653e-06
1.47609e-07
1.87308e-06
1.4907e-07
1.87261e-06
1.54831e-07
1.86656e-06
1.55553e-07
1.85925e-06
1.48013e-07
1.8537e-06
1.33849e-07
1.85019e-06
1.17442e-07
1.84766e-06
1.03233e-07
1.84495e-06
9.46653e-08
1.84108e-06
9.18137e-08
1.83582e-06
9.42361e-08
1.82818e-06
9.91507e-08
1.81837e-06
1.06933e-07
1.17967e-07
1.80591e-06
2.11188e-06
3.65831e-07
2.06495e-06
2.47845e-07
2.03794e-06
2.01437e-07
2.01775e-06
1.77633e-07
2.0062e-06
1.59163e-07
2.00456e-06
1.50706e-07
2.00959e-06
1.49798e-07
2.0158e-06
1.49348e-07
2.01851e-06
1.45297e-07
2.01558e-06
1.36782e-07
2.00783e-06
1.25191e-07
1.99808e-06
1.12985e-07
1.98954e-06
1.03209e-07
1.98386e-06
9.74906e-08
1.98153e-06
9.65644e-08
1.98103e-06
9.96504e-08
1.98155e-06
1.06413e-07
1.17662e-07
1.98186e-06
2.2081e-06
3.70164e-07
2.1882e-06
2.67744e-07
2.18359e-06
2.0605e-07
2.18069e-06
1.80531e-07
2.17974e-06
1.60122e-07
2.18187e-06
1.48572e-07
2.18404e-06
1.47632e-07
2.18294e-06
1.50442e-07
2.17746e-06
1.50783e-07
2.16817e-06
1.46064e-07
2.1568e-06
1.36569e-07
2.14518e-06
1.246e-07
2.13516e-06
1.13234e-07
2.12766e-06
1.04984e-07
2.12333e-06
1.00894e-07
2.1216e-06
1.01387e-07
2.12224e-06
1.05772e-07
1.15107e-07
2.12479e-06
2.41042e-06
4.42426e-07
2.37248e-06
3.05683e-07
2.36257e-06
2.15959e-07
2.36699e-06
1.7611e-07
2.37142e-06
1.55695e-07
2.36898e-06
1.51017e-07
2.36012e-06
1.56488e-07
2.34935e-06
1.61207e-07
2.34091e-06
1.59225e-07
2.33602e-06
1.50953e-07
2.3333e-06
1.39295e-07
2.33049e-06
1.2741e-07
2.32629e-06
1.17435e-07
2.32059e-06
1.1068e-07
2.31442e-06
1.07066e-07
2.30888e-06
1.06924e-07
2.30496e-06
1.09692e-07
1.1627e-07
2.3038e-06
2.57888e-06
4.14144e-07
2.57935e-06
3.05219e-07
2.55404e-06
2.4127e-07
2.52808e-06
2.02066e-07
2.51043e-06
1.73349e-07
2.50111e-06
1.60337e-07
2.49767e-06
1.59932e-07
2.49844e-06
1.60429e-07
2.50279e-06
1.54882e-07
2.50982e-06
1.43923e-07
2.51801e-06
1.31098e-07
2.52559e-06
1.19829e-07
2.53111e-06
1.11924e-07
2.53375e-06
1.0803e-07
2.53355e-06
1.0727e-07
2.53129e-06
1.0918e-07
2.52822e-06
1.12771e-07
1.18504e-07
2.52598e-06
2.74679e-06
5.15924e-07
2.73835e-06
3.13663e-07
2.72676e-06
2.52858e-07
2.71303e-06
2.15788e-07
2.70078e-06
1.85602e-07
2.6941e-06
1.67016e-07
2.69444e-06
1.59589e-07
2.69904e-06
1.55832e-07
2.70417e-06
1.49757e-07
2.70793e-06
1.40162e-07
2.71044e-06
1.2858e-07
2.71259e-06
1.17685e-07
2.71495e-06
1.09559e-07
2.71762e-06
1.05364e-07
2.7205e-06
1.04385e-07
2.72361e-06
1.06077e-07
2.72741e-06
1.08969e-07
1.13035e-07
2.73288e-06
2.97601e-06
4.75617e-07
2.96967e-06
3.20002e-07
2.95152e-06
2.71003e-07
2.93917e-06
2.2814e-07
2.93245e-06
1.9232e-07
2.92635e-06
1.73112e-07
2.91748e-06
1.68464e-07
2.90611e-06
1.67204e-07
2.89568e-06
1.60183e-07
2.89022e-06
1.45625e-07
2.89162e-06
1.27174e-07
2.89894e-06
1.10374e-07
2.90951e-06
9.89891e-08
2.92049e-06
9.43775e-08
2.93004e-06
9.48391e-08
2.93762e-06
9.84923e-08
2.94373e-06
1.02861e-07
1.07124e-07
2.94964e-06
3.18099e-06
4.47207e-07
3.15012e-06
3.50866e-07
3.14233e-06
2.78799e-07
3.15109e-06
2.19374e-07
3.15789e-06
1.85527e-07
3.1533e-06
1.77702e-07
3.13806e-06
1.83699e-07
3.11926e-06
1.86007e-07
3.10445e-06
1.74998e-07
3.09781e-06
1.52258e-07
3.0998e-06
1.25186e-07
3.10857e-06
1.01604e-07
3.12158e-06
8.59795e-08
3.13635e-06
7.96125e-08
3.15081e-06
8.03714e-08
3.16381e-06
8.54925e-08
3.17499e-06
9.16806e-08
9.7031e-08
3.18509e-06
2.87958e-06
3.99345e-07
2.84793e-06
3.82523e-07
2.83005e-06
2.96671e-07
2.82159e-06
2.27834e-07
2.82491e-06
1.82213e-07
2.83581e-06
1.66795e-07
2.84588e-06
1.73634e-07
2.84973e-06
1.82154e-07
2.84646e-06
1.7827e-07
2.83809e-06
1.60633e-07
2.82814e-06
1.35133e-07
2.82022e-06
1.09525e-07
2.8167e-06
8.94977e-08
2.81825e-06
7.80635e-08
2.82403e-06
7.45873e-08
2.83261e-06
7.69118e-08
2.84276e-06
8.15314e-08
8.62242e-08
2.85357e-06
3.47967e-06
4.24773e-07
3.50687e-06
3.55327e-07
3.50799e-06
2.95547e-07
3.49702e-06
2.38801e-07
3.48642e-06
1.92815e-07
3.48261e-06
1.70612e-07
3.4845e-06
1.7174e-07
3.4869e-06
1.79757e-07
3.48606e-06
1.79101e-07
3.48198e-06
1.64723e-07
3.47692e-06
1.40192e-07
3.47322e-06
1.13219e-07
3.47211e-06
9.06125e-08
3.47395e-06
7.6216e-08
3.47866e-06
6.98784e-08
3.4861e-06
6.94736e-08
3.49607e-06
7.15632e-08
7.39204e-08
3.50837e-06
4.28774e-06
4.39114e-07
4.25298e-06
3.90084e-07
4.23168e-06
3.16848e-07
4.21553e-06
2.54952e-07
4.19923e-06
2.09115e-07
4.18322e-06
1.8662e-07
4.17174e-06
1.83219e-07
4.16881e-06
1.82688e-07
4.17622e-06
1.71697e-07
4.19279e-06
1.4815e-07
4.21461e-06
1.18377e-07
4.23673e-06
9.10973e-08
4.25527e-06
7.20742e-08
4.26871e-06
6.27725e-08
4.27782e-06
6.0773e-08
4.28467e-06
6.26199e-08
4.29141e-06
6.48181e-08
6.53648e-08
4.29997e-06
5.11319e-06
5.54377e-07
5.09974e-06
4.03534e-07
5.11068e-06
3.05915e-07
5.11754e-06
2.48088e-07
5.11497e-06
2.11684e-07
5.11278e-06
1.88809e-07
5.12252e-06
1.73485e-07
5.14469e-06
1.60514e-07
5.17201e-06
1.44381e-07
5.19753e-06
1.22625e-07
5.21816e-06
9.77448e-08
5.2342e-06
7.50585e-08
5.24738e-06
5.88986e-08
5.25905e-06
5.11031e-08
5.26996e-06
4.98599e-08
5.28034e-06
5.22364e-08
5.29062e-06
5.45366e-08
5.48949e-08
5.30109e-06
6.29686e-06
4.58087e-07
6.3039e-06
3.96496e-07
6.30002e-06
3.09796e-07
6.29824e-06
2.49862e-07
6.3034e-06
2.06524e-07
6.32012e-06
1.72091e-07
6.34391e-06
1.49694e-07
6.364e-06
1.40429e-07
6.37222e-06
1.36155e-07
6.36782e-06
1.27022e-07
6.35588e-06
1.09688e-07
6.34327e-06
8.76676e-08
6.33536e-06
6.68079e-08
6.33471e-06
5.17603e-08
6.3415e-06
4.3064e-08
6.35453e-06
3.92073e-08
6.37225e-06
3.68208e-08
3.36859e-08
6.39346e-06
7.63402e-06
4.71536e-07
7.65671e-06
3.73804e-07
7.67497e-06
2.9154e-07
7.6796e-06
2.45232e-07
7.67512e-06
2.11003e-07
7.67343e-06
1.73781e-07
7.68376e-06
1.39364e-07
7.7084e-06
1.1579e-07
7.74212e-06
1.0243e-07
7.77658e-06
9.25608e-08
7.80516e-06
8.11093e-08
7.825e-06
6.78315e-08
7.83689e-06
5.4917e-08
7.84422e-06
4.44315e-08
7.8509e-06
3.63838e-08
7.86016e-06
2.99404e-08
7.87349e-06
2.34913e-08
1.64277e-08
7.89075e-06
9.43326e-06
4.51313e-07
9.45029e-06
3.56766e-07
9.46406e-06
2.77776e-07
9.46725e-06
2.42036e-07
9.45238e-06
2.25874e-07
9.43314e-06
1.93026e-07
9.42759e-06
1.44908e-07
9.44238e-06
1.01007e-07
9.47197e-06
7.28324e-08
9.50498e-06
5.95572e-08
9.53114e-06
5.49475e-08
9.54586e-06
5.31077e-08
9.55074e-06
5.0042e-08
9.55157e-06
4.35991e-08
9.55444e-06
3.35145e-08
9.56325e-06
2.11285e-08
9.57894e-06
7.80515e-09
-3.9242e-09
9.59929e-06
1.13352e-05
5.16056e-07
1.13121e-05
3.79795e-07
1.13336e-05
2.56298e-07
1.13966e-05
1.79048e-07
1.14792e-05
1.43218e-07
1.15464e-05
1.25867e-07
1.15803e-05
1.11012e-07
1.15876e-05
9.36671e-08
1.15842e-05
7.62446e-08
1.15814e-05
6.24339e-08
1.15837e-05
5.26324e-08
1.15927e-05
4.4039e-08
1.16091e-05
3.36931e-08
1.16328e-05
1.98537e-08
1.16629e-05
3.46598e-09
1.16981e-05
-1.40904e-08
1.17343e-05
-2.83743e-08
-3.66028e-08
1.1767e-05
8.38855e-06
3.44776e-07
8.43125e-06
3.371e-07
8.42522e-06
2.62327e-07
8.43032e-06
1.73946e-07
8.45253e-06
1.21011e-07
8.47967e-06
9.87249e-08
8.50331e-06
8.73751e-08
8.51983e-06
7.71457e-08
8.52907e-06
6.70028e-08
8.53418e-06
5.73276e-08
8.53982e-06
4.69857e-08
8.54938e-06
3.44875e-08
8.56345e-06
1.96149e-08
8.58025e-06
3.06292e-09
8.59537e-06
-1.16584e-08
8.60614e-06
-2.48606e-08
8.61284e-06
-3.50727e-08
-4.08454e-08
8.61708e-06
7.41204e-06
4.07698e-07
7.38802e-06
3.61117e-07
7.39319e-06
2.5716e-07
7.38705e-06
1.80081e-07
7.37262e-06
1.35449e-07
7.37063e-06
1.00707e-07
7.39327e-06
6.47418e-08
7.43431e-06
3.61012e-08
7.47972e-06
2.15908e-08
7.51859e-06
1.84645e-08
7.54665e-06
1.8925e-08
7.56451e-06
1.66274e-08
7.57466e-06
9.46135e-09
7.5794e-06
-1.67409e-09
7.58233e-06
-1.45945e-08
7.58357e-06
-2.60913e-08
7.5839e-06
-3.54074e-08
-4.16048e-08
7.58466e-06
6.44048e-06
4.17436e-07
6.49448e-06
3.07116e-07
6.51403e-06
2.37607e-07
6.49625e-06
1.97863e-07
6.47064e-06
1.61054e-07
6.45607e-06
1.15276e-07
6.45805e-06
6.27647e-08
6.47641e-06
1.77404e-08
6.50587e-06
-7.86997e-09
6.53949e-06
-1.51544e-08
6.57086e-06
-1.2439e-08
6.59465e-06
-7.16979e-09
6.60826e-06
-4.14178e-09
6.61159e-06
-5.00872e-09
6.60659e-06
-9.59804e-09
6.59692e-06
-1.64207e-08
6.5855e-06
-2.3989e-08
-3.12261e-08
6.57513e-06
5.57597e-06
4.41487e-07
5.57371e-06
3.09382e-07
5.58209e-06
2.29219e-07
5.61185e-06
1.68108e-07
5.6589e-06
1.13999e-07
5.70572e-06
6.84597e-08
5.73801e-06
3.0478e-08
5.75334e-06
2.41064e-09
5.76411e-06
-1.8647e-08
5.77789e-06
-2.89342e-08
5.79752e-06
-3.20631e-08
5.82025e-06
-2.99033e-08
5.84074e-06
-2.46336e-08
5.85463e-06
-1.88981e-08
5.86034e-06
-1.53099e-08
5.85911e-06
-1.5182e-08
5.85397e-06
-1.88555e-08
-2.56442e-08
5.84839e-06
4.80151e-06
3.54896e-07
4.83706e-06
2.73828e-07
4.8901e-06
1.76184e-07
4.95405e-06
1.04162e-07
5.00587e-06
6.21767e-08
5.03426e-06
4.00676e-08
5.03988e-06
2.48619e-08
5.03353e-06
8.75422e-09
5.02313e-06
-8.24802e-09
5.01854e-06
-2.4337e-08
5.02251e-06
-3.60379e-08
5.03369e-06
-4.10775e-08
5.049e-06
-3.9948e-08
5.0652e-06
-3.50959e-08
5.08013e-06
-3.02399e-08
5.09299e-06
-2.80408e-08
5.10393e-06
-2.97979e-08
-3.53414e-08
5.11363e-06
4.18079e-06
2.52499e-07
4.28289e-06
1.71721e-07
4.34437e-06
1.14709e-07
4.37655e-06
7.19851e-08
4.39763e-06
4.10935e-08
4.41362e-06
2.40747e-08
4.42359e-06
1.48928e-08
4.42639e-06
5.95186e-09
4.42581e-06
-7.66017e-09
4.42531e-06
-2.38392e-08
4.42799e-06
-3.87182e-08
4.43522e-06
-4.83085e-08
4.44659e-06
-5.13204e-08
4.46112e-06
-4.96231e-08
4.47745e-06
-4.6575e-08
4.49413e-06
-4.47199e-08
4.50967e-06
-4.53364e-08
-4.8236e-08
4.52257e-06
3.65082e-06
2.40651e-07
3.72125e-06
1.0129e-07
3.76166e-06
7.43051e-08
3.77714e-06
5.6502e-08
3.78798e-06
3.02514e-08
3.8097e-06
2.35667e-09
3.84386e-06
-1.92719e-08
3.88468e-06
-3.48617e-08
3.9194e-06
-4.2381e-08
3.93901e-06
-4.34471e-08
3.9413e-06
-4.10082e-08
3.93125e-06
-3.82607e-08
3.91721e-06
-3.7278e-08
3.90651e-06
-3.89312e-08
3.90308e-06
-4.31373e-08
3.90724e-06
-4.8882e-08
3.91714e-06
-5.52376e-08
-6.06815e-08
3.92958e-06
3.2553e-06
1.86546e-07
3.30978e-06
4.68075e-08
3.35539e-06
2.86893e-08
3.38919e-06
2.27078e-08
3.40844e-06
1.09994e-08
3.42032e-06
-9.52319e-09
3.43216e-06
-3.11099e-08
3.44323e-06
-4.59354e-08
3.45238e-06
-5.15298e-08
3.45811e-06
-4.91748e-08
3.46063e-06
-4.35303e-08
3.46177e-06
-3.93995e-08
3.46378e-06
-3.92881e-08
3.46801e-06
-4.31655e-08
3.47422e-06
-4.93434e-08
3.48119e-06
-5.58478e-08
3.48714e-06
-6.11919e-08
-6.4617e-08
3.49108e-06
2.8775e-06
1.74303e-07
2.92379e-06
5.23196e-10
2.95513e-06
-2.65575e-09
2.98864e-06
-1.07979e-08
3.02448e-06
-2.4842e-08
3.05263e-06
-3.76737e-08
3.06637e-06
-4.48465e-08
3.06807e-06
-4.76404e-08
3.06527e-06
-4.87292e-08
3.06543e-06
-4.93324e-08
3.07195e-06
-5.00484e-08
3.08395e-06
-5.14002e-08
3.09816e-06
-5.34966e-08
3.11095e-06
-5.59628e-08
3.11967e-06
-5.80546e-08
3.12313e-06
-5.93116e-08
3.12136e-06
-5.9427e-08
-5.90577e-08
3.1158e-06
2.51878e-06
6.06648e-08
2.56631e-06
-4.7001e-08
2.58293e-06
-1.92786e-08
2.60143e-06
-2.92928e-08
2.6164e-06
-3.98136e-08
2.62492e-06
-4.61993e-08
2.63177e-06
-5.16978e-08
2.64012e-06
-5.59864e-08
2.6491e-06
-5.77077e-08
2.65624e-06
-5.64759e-08
2.65926e-06
-5.30683e-08
2.65667e-06
-4.8806e-08
2.64801e-06
-4.48435e-08
2.63393e-06
-4.18808e-08
2.61606e-06
-4.01777e-08
2.59631e-06
-3.95696e-08
2.57675e-06
-3.98625e-08
-4.09091e-08
2.5586e-06
2.15456e-06
2.10756e-06
2.08828e-06
2.05899e-06
2.01918e-06
1.97298e-06
1.92128e-06
1.86529e-06
1.80759e-06
1.75111e-06
1.69804e-06
1.64924e-06
1.60439e-06
1.56251e-06
1.52233e-06
1.48276e-06
1.4429e-06
1.40199e-06
-2.05118e-07
2.05118e-07
-3.89441e-07
1.84323e-07
-5.06041e-07
1.16601e-07
-5.47127e-07
4.10857e-08
-5.22712e-07
-2.44156e-08
-4.47255e-07
-7.54565e-08
-3.21365e-07
-1.2589e-07
-1.47924e-07
-1.73441e-07
6.41765e-08
-2.121e-07
3.01872e-07
-2.37695e-07
5.52217e-07
-2.50345e-07
8.03906e-07
-2.51689e-07
1.04802e-06
-2.44109e-07
1.27887e-06
-2.30854e-07
1.49352e-06
-2.14653e-07
1.69108e-06
-1.97555e-07
1.87184e-06
-1.80762e-07
2.03669e-06
-1.64847e-07
2.18664e-06
-1.49948e-07
2.32251e-06
-1.35877e-07
2.44482e-06
-1.22306e-07
2.55358e-06
-1.08758e-07
2.64834e-06
-9.47672e-08
2.72812e-06
-7.97755e-08
2.79141e-06
-6.32903e-08
2.83629e-06
-4.48784e-08
2.86017e-06
-2.38814e-08
2.86105e-06
-8.84933e-10
2.83259e-06
2.84646e-08
2.77218e-06
6.04113e-08
2.67474e-06
9.74408e-08
2.53836e-06
1.36375e-07
2.35827e-06
1.80096e-07
2.13245e-06
2.25812e-07
1.86222e-06
2.70234e-07
1.53849e-06
3.23726e-07
1.19166e-06
3.46839e-07
7.81213e-07
4.10443e-07
3.86966e-07
3.94247e-07
1.6105e-07
2.25916e-07
4.98095e-08
1.1124e-07
-4.53848e-08
9.51943e-08
-1.35536e-07
9.01508e-08
-2.19619e-07
8.40837e-08
-3.30416e-07
1.10797e-07
-4.607e-07
1.30284e-07
-5.7606e-07
1.1536e-07
-6.45851e-07
6.97908e-08
-6.55488e-07
9.63686e-09
-6.0897e-07
-4.65178e-08
-5.13616e-07
-9.53536e-08
-3.81188e-07
-1.32428e-07
-2.07765e-07
-1.73423e-07
3.28695e-09
-2.11052e-07
1.91714e-07
-1.88427e-07
2.88616e-07
-9.69016e-08
3.24438e-07
-3.58217e-08
4.12567e-07
-8.81295e-08
5.87746e-07
-1.75179e-07
7.51923e-07
-1.64177e-07
9.24106e-07
-1.72182e-07
1.09484e-06
-1.70736e-07
1.16872e-06
-7.3878e-08
1.03851e-06
1.30205e-07
5.80947e-07
4.57567e-07
-1.69723e-07
7.5067e-07
-9.36953e-07
7.67229e-07
-1.62505e-06
6.88092e-07
-2.22159e-06
5.96544e-07
-2.73032e-06
5.08733e-07
-3.1616e-06
4.31277e-07
-3.52732e-06
3.65723e-07
-3.83888e-06
3.11556e-07
-4.10601e-06
2.67138e-07
-4.33666e-06
2.3065e-07
-4.53691e-06
2.00244e-07
-4.71108e-06
1.74173e-07
-4.862e-06
1.50917e-07
-4.99131e-06
1.29314e-07
-5.09983e-06
1.08513e-07
-5.18773e-06
8.79035e-08
-5.25484e-06
6.71108e-08
-5.30089e-06
4.60501e-08
-5.32581e-06
2.49167e-08
-5.32958e-06
3.77483e-09
-5.31386e-06
-1.572e-08
-5.27944e-06
-3.44166e-08
-5.22743e-06
-5.2015e-08
-5.1592e-06
-6.82276e-08
-5.07624e-06
-8.296e-08
-4.98002e-06
-9.62229e-08
-4.87189e-06
-1.08133e-07
-4.75295e-06
-1.18932e-07
-4.62399e-06
-1.28967e-07
-4.48534e-06
-1.38642e-07
-4.33696e-06
-1.48382e-07
-4.1784e-06
-1.58564e-07
-4.00893e-06
-1.69464e-07
-3.82774e-06
-1.81196e-07
-3.63407e-06
-1.93665e-07
-3.42753e-06
-2.06545e-07
-3.20824e-06
-2.1929e-07
-2.97703e-06
-2.31206e-07
-2.73548e-06
-2.41556e-07
-2.48579e-06
-2.49686e-07
-2.23065e-06
-2.55136e-07
-1.97295e-06
-2.57702e-07
-1.71554e-06
-2.57408e-07
-1.46109e-06
-2.54456e-07
-1.21189e-06
-2.492e-07
-9.69812e-07
-2.42076e-07
-7.36222e-07
-2.3359e-07
-5.12124e-07
-2.24098e-07
-2.98256e-07
-2.13868e-07
-9.52949e-08
-2.02962e-07
9.70812e-08
-1.92376e-07
2.7822e-07
-1.81139e-07
4.47708e-07
-1.69488e-07
6.05124e-07
-1.57416e-07
7.50037e-07
-1.44913e-07
8.8204e-07
-1.32003e-07
1.00082e-06
-1.18782e-07
1.10627e-06
-1.05445e-07
1.19854e-06
-9.22743e-08
1.27809e-06
-7.95531e-08
1.34559e-06
-6.74995e-08
1.40194e-06
-5.63418e-08
1.44817e-06
-4.62388e-08
1.48515e-06
-3.69785e-08
1.51335e-06
-2.81952e-08
1.53332e-06
-1.99717e-08
1.54545e-06
-1.21317e-08
1.54884e-06
-3.38688e-09
1.54215e-06
6.68408e-09
1.52527e-06
1.68843e-08
1.49914e-06
2.61299e-08
1.46524e-06
3.39018e-08
1.42539e-06
3.98515e-08
1.38148e-06
4.39102e-08
1.33532e-06
4.61523e-08
1.28858e-06
4.67438e-08
1.24267e-06
4.59115e-08
1.19874e-06
4.39302e-08
1.15762e-06
4.11213e-08
1.1198e-06
3.78172e-08
1.08549e-06
3.43142e-08
1.05465e-06
3.0838e-08
1.02711e-06
2.75336e-08
1.00264e-06
2.4477e-08
9.80939e-07
2.16982e-08
9.61736e-07
1.92028e-08
9.44749e-07
1.69871e-08
9.29706e-07
1.50437e-08
9.16343e-07
1.33627e-08
9.04412e-07
1.19307e-08
8.93684e-07
1.07286e-08
8.83951e-07
9.73292e-09
8.75035e-07
8.91588e-09
8.66783e-07
8.25126e-09
8.5907e-07
7.71319e-09
8.51784e-07
7.28612e-09
8.44833e-07
6.95097e-09
8.38123e-07
6.71017e-09
8.31572e-07
6.5506e-09
8.25064e-07
6.508e-09
8.1851e-07
6.55467e-09
8.11715e-07
6.795e-09
8.04568e-07
7.14681e-09
7.96712e-07
7.85586e-09
7.88068e-07
8.64389e-09
7.7789e-07
1.01785e-08
7.66356e-07
1.15336e-08
7.51758e-07
1.4598e-08
7.35291e-07
1.64671e-08
7.1247e-07
2.28214e-08
6.88179e-07
2.42909e-08
6.49353e-07
3.88258e-08
6.14497e-07
3.48561e-08
5.41775e-07
7.27218e-08
4.62041e-08
4.95571e-07
4.40106e-08
1.61107e-07
4.22207e-08
1.86113e-07
5.00515e-08
1.0877e-07
7.81732e-08
1.2964e-08
1.43124e-07
-8.93666e-08
2.55419e-07
-1.87751e-07
4.13534e-07
-2.84005e-07
6.06698e-07
-3.66605e-07
8.20491e-07
-4.25893e-07
1.03735e-06
-4.54553e-07
1.24844e-06
-4.61438e-07
1.44739e-06
-4.50642e-07
1.63135e-06
-4.28061e-07
1.79998e-06
-3.9949e-07
1.95446e-06
-3.69133e-07
2.09655e-06
-3.39645e-07
2.22816e-06
-3.12368e-07
2.35098e-06
-2.87671e-07
2.46633e-06
-2.653e-07
2.57506e-06
-2.44605e-07
2.67753e-06
-2.2478e-07
2.7737e-06
-2.04923e-07
2.86306e-06
-1.84128e-07
2.94485e-06
-1.61562e-07
3.01789e-06
-1.36333e-07
3.08094e-06
-1.07932e-07
3.13252e-06
-7.54619e-08
3.1707e-06
-3.90613e-08
3.19748e-06
1.68351e-09
3.20659e-06
5.13059e-08
3.19869e-06
1.05334e-07
3.16993e-06
1.65137e-07
3.12028e-06
2.29751e-07
3.04488e-06
3.01203e-07
2.94319e-06
3.71931e-07
2.81673e-06
4.5018e-07
2.64864e-06
5.1493e-07
2.48166e-06
5.77427e-07
2.26504e-06
6.10868e-07
1.89651e-06
5.94447e-07
1.41808e-06
5.89671e-07
9.64089e-07
5.49181e-07
6.0579e-07
4.48449e-07
3.36682e-07
3.53192e-07
1.44225e-07
3.03254e-07
1.47368e-08
2.59772e-07
-6.58849e-08
1.95982e-07
-1.01943e-07
1.05849e-07
-8.8944e-08
-3.36249e-09
-2.87808e-08
-1.06681e-07
6.91277e-08
-1.93262e-07
1.79612e-07
-2.42913e-07
2.95741e-07
-2.89551e-07
4.59088e-07
-3.744e-07
6.78545e-07
-4.07884e-07
8.58182e-07
-2.76539e-07
9.62736e-07
-1.40375e-07
1.11836e-06
-2.43754e-07
1.40111e-06
-4.57933e-07
1.65333e-06
-4.16391e-07
1.59535e-06
-1.14201e-07
1.13025e-06
2.94362e-07
2.63452e-07
7.92919e-07
-7.50114e-07
1.14377e-06
-1.60455e-06
1.312e-06
-2.20975e-06
1.35587e-06
-2.70249e-06
1.25997e-06
-3.13054e-06
1.11615e-06
-3.49656e-06
9.6256e-07
-3.80861e-06
8.20778e-07
-4.07537e-06
6.98036e-07
-4.30508e-06
5.95442e-07
-4.50465e-06
5.1112e-07
-4.67949e-06
4.41984e-07
-4.83361e-06
3.84766e-07
-4.96971e-06
3.36342e-07
-5.08945e-06
2.93914e-07
-5.19369e-06
2.55163e-07
-5.2827e-06
2.1832e-07
-5.35622e-06
1.82033e-07
-5.41376e-06
1.45439e-07
-5.45476e-06
1.08116e-07
-5.47872e-06
7.0007e-08
-5.48506e-06
3.1261e-08
-5.47386e-06
-7.43194e-09
-5.4444e-06
-4.5174e-08
-5.39707e-06
-8.17489e-08
-5.33276e-06
-1.16326e-07
-5.25268e-06
-1.48305e-07
-5.1583e-06
-1.7734e-07
-5.05114e-06
-2.03389e-07
-4.93257e-06
-2.26696e-07
-4.80375e-06
-2.47759e-07
-4.66543e-06
-2.67284e-07
-4.51796e-06
-2.86108e-07
-4.36125e-06
-3.05099e-07
-4.19477e-06
-3.25044e-07
-4.01771e-06
-3.46519e-07
-3.82913e-06
-3.69778e-07
-3.62815e-06
-3.94641e-07
-3.41425e-06
-4.20445e-07
-3.18747e-06
-4.46072e-07
-2.9486e-06
-4.70081e-07
-2.69921e-06
-4.90945e-07
-2.44157e-06
-5.07321e-07
-2.17843e-06
-5.18282e-07
-1.91269e-06
-5.23446e-07
-1.64716e-06
-5.22935e-07
-1.38445e-06
-5.17168e-07
-1.12679e-06
-5.06851e-07
-8.75999e-07
-4.92871e-07
-6.33297e-07
-4.76291e-07
-3.99664e-07
-4.57731e-07
-1.75788e-07
-4.37744e-07
3.80678e-08
-4.16817e-07
2.41699e-07
-3.96007e-07
4.3447e-07
-3.7391e-07
6.16016e-07
-3.51034e-07
7.85858e-07
-3.27257e-07
9.43419e-07
-3.02474e-07
1.0881e-06
-2.76689e-07
1.21942e-06
-2.50097e-07
1.33713e-06
-2.2316e-07
1.44143e-06
-1.96572e-07
1.53298e-06
-1.71102e-07
1.6129e-06
-1.47417e-07
1.68257e-06
-1.26016e-07
1.74338e-06
-1.07048e-07
1.79663e-06
-9.02263e-08
1.84361e-06
-7.51769e-08
1.88518e-06
-6.15411e-08
1.92159e-06
-4.85409e-08
1.95351e-06
-3.53114e-08
1.9818e-06
-2.15969e-08
2.00622e-06
-7.53681e-09
2.02571e-06
6.63927e-09
2.03937e-06
2.02397e-08
2.04676e-06
3.24641e-08
2.04783e-06
4.28359e-08
2.043e-06
5.09839e-08
2.03304e-06
5.67045e-08
2.01897e-06
5.99785e-08
2.00194e-06
6.09651e-08
1.98306e-06
5.9995e-08
1.96337e-06
5.75147e-08
1.94367e-06
5.40118e-08
1.92457e-06
4.99384e-08
1.90644e-06
4.56579e-08
1.8895e-06
4.14256e-08
1.8738e-06
3.73977e-08
1.85934e-06
3.36567e-08
1.84609e-06
3.02376e-08
1.83399e-06
2.71464e-08
1.82298e-06
2.43717e-08
1.81302e-06
2.18914e-08
1.80407e-06
1.96784e-08
1.7961e-06
1.77056e-08
1.78906e-06
1.5948e-08
1.78293e-06
1.4385e-08
1.77765e-06
1.29979e-08
1.77315e-06
1.17795e-08
1.76939e-06
1.0718e-08
1.76627e-06
9.82964e-09
1.76371e-06
9.10758e-09
1.7616e-06
8.61985e-09
1.75982e-06
8.33004e-09
1.7582e-06
8.42006e-09
1.75659e-06
8.75629e-09
1.75467e-06
9.77756e-09
1.75237e-06
1.09427e-08
1.74903e-06
1.35139e-08
1.74486e-06
1.57035e-08
1.73841e-06
2.1053e-08
1.7307e-06
2.41711e-08
1.71843e-06
3.50916e-08
1.70464e-06
3.80801e-08
1.68222e-06
6.12455e-08
1.65734e-06
5.97375e-08
1.61928e-06
1.1078e-07
9.52253e-08
1.57026e-06
1.50978e-07
1.01294e-08
2.76031e-07
6.10595e-08
3.66376e-07
1.84252e-08
4.70002e-07
-9.0662e-08
6.06667e-07
-2.26032e-07
7.77928e-07
-3.59012e-07
9.62079e-07
-4.68156e-07
1.13561e-06
-5.40134e-07
1.28462e-06
-5.749e-07
1.4066e-06
-5.76541e-07
1.50052e-06
-5.55353e-07
1.57187e-06
-5.21994e-07
1.62859e-06
-4.8478e-07
1.67808e-06
-4.48977e-07
1.72604e-06
-4.17094e-07
1.77611e-06
-3.89722e-07
1.83038e-06
-3.6663e-07
1.8897e-06
-3.46994e-07
1.95411e-06
-3.29708e-07
2.0231e-06
-3.13601e-07
2.09587e-06
-2.97549e-07
2.17142e-06
-2.80467e-07
2.24861e-06
-2.6132e-07
2.32629e-06
-2.39239e-07
2.40306e-06
-2.13112e-07
2.47742e-06
-1.82284e-07
2.54787e-06
-1.45912e-07
2.61255e-06
-1.03746e-07
2.6696e-06
-5.53612e-08
2.72161e-06
-7.04051e-10
2.76689e-06
6.00539e-08
2.80522e-06
1.26804e-07
2.83747e-06
1.97499e-07
2.86467e-06
2.74e-07
2.88505e-06
3.51557e-07
2.90174e-06
4.33493e-07
2.90323e-06
5.13434e-07
2.8924e-06
5.88254e-07
2.84398e-06
6.59288e-07
2.73745e-06
7.00983e-07
2.60459e-06
7.22528e-07
2.42452e-06
7.29248e-07
2.16182e-06
7.11157e-07
1.85261e-06
6.62394e-07
1.56499e-06
5.90881e-07
1.32537e-06
4.99393e-07
1.14471e-06
3.76639e-07
1.01869e-06
2.31863e-07
9.35677e-07
7.96549e-08
9.03226e-07
-7.42299e-08
9.27502e-07
-2.17538e-07
9.7704e-07
-2.92451e-07
1.01711e-06
-3.29624e-07
1.06415e-06
-4.2144e-07
1.11273e-06
-4.56465e-07
1.16519e-06
-3.28998e-07
1.33258e-06
-3.07763e-07
1.5807e-06
-4.91875e-07
1.54651e-06
-4.23744e-07
1.05743e-06
7.26957e-08
1.79767e-07
7.6346e-07
-8.08622e-07
1.28275e-06
-1.61328e-06
1.59758e-06
-2.21902e-06
1.74951e-06
-2.66414e-06
1.75712e-06
-2.96558e-06
1.65731e-06
-3.20199e-06
1.49637e-06
-3.41036e-06
1.32452e-06
-3.60656e-06
1.15876e-06
-3.79461e-06
1.00883e-06
-3.97456e-06
8.77985e-07
-4.14547e-06
7.66348e-07
-4.30644e-06
6.72096e-07
-4.45695e-06
5.92495e-07
-4.59665e-06
5.2446e-07
-4.72519e-06
4.64889e-07
-4.84216e-06
4.10882e-07
-4.94688e-06
3.59884e-07
-5.03836e-06
3.09796e-07
-5.11537e-06
2.59048e-07
-5.1766e-06
2.0667e-07
-5.22077e-06
1.52283e-07
-5.24676e-06
9.59918e-08
-5.25374e-06
3.82405e-08
-5.24151e-06
-1.96602e-08
-5.21017e-06
-7.65107e-08
-5.16051e-06
-1.3141e-07
-5.09372e-06
-1.83111e-07
-5.01135e-06
-2.30676e-07
-4.91512e-06
-2.73569e-07
-4.8068e-06
-3.11717e-07
-4.68798e-06
-3.45514e-07
-4.55997e-06
-3.75772e-07
-4.42363e-06
-4.03619e-07
-4.27934e-06
-4.30394e-07
-4.12696e-06
-4.57485e-07
-3.96584e-06
-4.8616e-07
-3.79499e-06
-5.17368e-07
-3.61323e-06
-5.51546e-07
-3.41942e-06
-5.88445e-07
-3.21283e-06
-6.27035e-07
-2.99337e-06
-6.65537e-07
-2.7618e-06
-7.01647e-07
-2.51982e-06
-7.32922e-07
-2.26987e-06
-7.57274e-07
-2.01481e-06
-7.73343e-07
-1.7576e-06
-7.80654e-07
-1.50096e-06
-7.7958e-07
-1.24722e-06
-7.70907e-07
-9.98326e-07
-7.55742e-07
-7.55731e-07
-7.35467e-07
-5.20328e-07
-7.11694e-07
-2.92908e-07
-6.8515e-07
-7.40351e-08
-6.56617e-07
1.36948e-07
-6.278e-07
3.384e-07
-5.9746e-07
5.30399e-07
-5.65908e-07
7.12404e-07
-5.3304e-07
8.83746e-07
-4.98599e-07
1.04359e-06
-4.62315e-07
1.19097e-06
-4.24071e-07
1.32488e-06
-3.84013e-07
1.44435e-06
-3.42624e-07
1.54858e-06
-3.00801e-07
1.63736e-06
-2.59889e-07
1.71149e-06
-2.21539e-07
1.77279e-06
-1.8732e-07
1.82385e-06
-1.5811e-07
1.86742e-06
-1.33795e-07
1.90584e-06
-1.136e-07
1.94072e-06
-9.64208e-08
1.97308e-06
-8.08934e-08
2.00356e-06
-6.57991e-08
2.0324e-06
-5.0437e-08
2.05944e-06
-3.4573e-08
2.08439e-06
-1.83108e-08
2.10656e-06
-1.92669e-09
2.12526e-06
1.37578e-08
2.13976e-06
2.834e-08
2.14975e-06
4.0992e-08
2.15521e-06
5.124e-08
2.15643e-06
5.87632e-08
2.15388e-06
6.35105e-08
2.14819e-06
6.56871e-08
2.14005e-06
6.56585e-08
2.13018e-06
6.38791e-08
2.1193e-06
6.08181e-08
2.10805e-06
5.69106e-08
2.09694e-06
5.25302e-08
2.08636e-06
4.79788e-08
2.07653e-06
4.34857e-08
2.06756e-06
3.92123e-08
2.05945e-06
3.52597e-08
2.05214e-06
3.16787e-08
2.04555e-06
2.84807e-08
2.03958e-06
2.56457e-08
2.03416e-06
2.31321e-08
2.02922e-06
2.08802e-08
2.02478e-06
1.88279e-08
2.02087e-06
1.69109e-08
2.01755e-06
1.50931e-08
2.01493e-06
1.33383e-08
2.01309e-06
1.16724e-08
2.01211e-06
1.00884e-08
2.01202e-06
8.7123e-09
2.01283e-06
7.52244e-09
2.01443e-06
6.8128e-09
2.01678e-06
6.40859e-09
2.01962e-06
6.93846e-09
2.02285e-06
7.71606e-09
2.0261e-06
1.02601e-08
2.02926e-06
1.25385e-08
2.0319e-06
1.8422e-08
2.03377e-06
2.22961e-08
2.03468e-06
3.4181e-08
2.03352e-06
3.92402e-08
2.03184e-06
6.29227e-08
2.02416e-06
6.74228e-08
2.02073e-06
1.14212e-07
1.18222e-07
1.99773e-06
3.54534e-08
-2.53239e-08
1.28065e-07
-3.15523e-08
2.9912e-07
-1.52629e-07
5.21842e-07
-3.13385e-07
7.51029e-07
-4.55218e-07
9.4397e-07
-5.51953e-07
1.07451e-06
-5.987e-07
1.13769e-06
-6.03308e-07
1.14348e-06
-5.80692e-07
1.11288e-06
-5.45947e-07
1.06573e-06
-5.08201e-07
1.01929e-06
-4.75548e-07
9.84143e-07
-4.49637e-07
9.64803e-07
-4.29637e-07
9.61925e-07
-4.14216e-07
9.74307e-07
-4.02104e-07
9.99896e-07
-3.92219e-07
1.03659e-06
-3.83682e-07
1.08255e-06
-3.75668e-07
1.13629e-06
-3.67348e-07
1.19666e-06
-3.57916e-07
1.26277e-06
-3.46576e-07
1.3339e-06
-3.32449e-07
1.40924e-06
-3.1458e-07
1.48803e-06
-2.91906e-07
1.56933e-06
-2.63578e-07
1.65235e-06
-2.28932e-07
1.73621e-06
-1.8761e-07
1.82022e-06
-1.39372e-07
1.90412e-06
-8.46006e-08
1.98848e-06
-2.43047e-08
2.07223e-06
4.30464e-08
2.15589e-06
1.13839e-07
2.24197e-06
1.87929e-07
2.32952e-06
2.64001e-07
2.42107e-06
3.41944e-07
2.51323e-06
4.21273e-07
2.60382e-06
4.9766e-07
2.69034e-06
5.72772e-07
2.75706e-06
6.34267e-07
2.79812e-06
6.81463e-07
2.80743e-06
7.19943e-07
2.77939e-06
7.39192e-07
2.71396e-06
7.27829e-07
2.6209e-06
6.83942e-07
2.51105e-06
6.09238e-07
2.3868e-06
5.00888e-07
2.25927e-06
3.59394e-07
2.12945e-06
2.09475e-07
2.00483e-06
5.03875e-08
1.90266e-06
-1.15368e-07
1.81773e-06
-2.07515e-07
1.74981e-06
-2.61704e-07
1.67606e-06
-3.47696e-07
1.58792e-06
-3.68319e-07
1.60982e-06
-3.50901e-07
1.70254e-06
-4.00487e-07
1.42225e-06
-2.11579e-07
5.7679e-07
4.21713e-07
-4.79948e-07
1.12943e-06
-1.34755e-06
1.63106e-06
-2.0046e-06
1.9398e-06
-2.46593e-06
2.05891e-06
-2.75931e-06
2.0429e-06
-2.94881e-06
1.94661e-06
-3.08934e-06
1.79784e-06
-3.22062e-06
1.62766e-06
-3.35496e-06
1.45886e-06
-3.49622e-06
1.30002e-06
-3.64212e-06
1.15472e-06
-3.78908e-06
1.02495e-06
-3.93402e-06
9.11288e-07
-4.07484e-06
8.12911e-07
-4.21018e-06
7.27835e-07
-4.33905e-06
6.53333e-07
-4.46047e-06
5.86304e-07
-4.57322e-06
5.23638e-07
-4.67582e-06
4.62479e-07
-4.76648e-06
4.00462e-07
-4.84327e-06
3.35831e-07
-4.90416e-06
2.67564e-07
-4.94729e-06
1.9541e-07
-4.97118e-06
1.19884e-07
-4.97464e-06
4.17051e-08
-4.95773e-06
-3.65692e-08
-4.9204e-06
-1.13849e-07
-4.86345e-06
-1.88356e-07
-4.78859e-06
-2.57968e-07
-4.69791e-06
-3.21362e-07
-4.59367e-06
-3.77808e-07
-4.47814e-06
-4.27242e-07
-4.35338e-06
-4.70279e-07
-4.22102e-06
-5.08131e-07
-4.08217e-06
-5.42471e-07
-3.93731e-06
-5.75256e-07
-3.78627e-06
-6.08525e-07
-3.62827e-06
-6.44157e-07
-3.46204e-06
-6.83596e-07
-3.28603e-06
-7.27559e-07
-3.09873e-06
-7.75744e-07
-2.8991e-06
-8.26664e-07
-2.68696e-06
-8.77675e-07
-2.46329e-06
-9.25321e-07
-2.23025e-06
-9.65961e-07
-1.99093e-06
-9.96592e-07
-1.74875e-06
-1.01552e-06
-1.50699e-06
-1.02241e-06
-1.2683e-06
-1.01827e-06
-1.03458e-06
-1.00463e-06
-8.06915e-07
-9.83406e-07
-5.857e-07
-9.56681e-07
-3.70757e-07
-9.26638e-07
-1.61886e-07
-8.94021e-07
4.1778e-08
-8.60281e-07
2.40017e-07
-8.2604e-07
4.32429e-07
-7.89871e-07
6.18567e-07
-7.52046e-07
7.97603e-07
-7.12076e-07
9.68361e-07
-6.69358e-07
1.12942e-06
-6.23371e-07
1.27931e-06
-5.73964e-07
1.41688e-06
-5.21578e-07
1.54142e-06
-4.67163e-07
1.65242e-06
-4.1181e-07
1.74905e-06
-3.56517e-07
1.83003e-06
-3.02517e-07
1.89452e-06
-2.51815e-07
1.94339e-06
-2.06973e-07
1.97958e-06
-1.69987e-07
2.00722e-06
-1.41245e-07
2.03018e-06
-1.19377e-07
2.05123e-06
-1.01942e-07
2.07187e-06