/*--------------------------------*- C++ -*----------------------------------*\
  =========                 |
  \\      /  F ield         | OpenFOAM: The Open Source CFD Toolbox
   \\    /   O peration     | Website:  https://openfoam.org
    \\  /    A nd           | Version:  7
     \\/     M anipulation  |
\*---------------------------------------------------------------------------*/
FoamFile
{
    version     2.0;
    format      ascii;
    class       volScalarField;
    location    "0.078";
    object      pPrime2Mean;
}
// * * * * * * * * * * * * * * * * * * * * * * * * * * * * * * * * * * * * * //

dimensions      [0 4 -4 0 0 0 0];

internalField   nonuniform List<scalar> 
12225
(
4.60739e+06
4.53414e+06
4.45848e+06
4.38547e+06
4.31532e+06
4.24782e+06
4.18279e+06
4.12003e+06
4.05935e+06
4.00053e+06
3.94333e+06
3.88748e+06
3.83266e+06
3.77845e+06
3.72428e+06
3.66928e+06
3.61189e+06
3.54822e+06
4.60746e+06
4.53418e+06
4.45851e+06
4.38551e+06
4.31536e+06
4.24787e+06
4.18284e+06
4.1201e+06
4.05943e+06
4.00063e+06
3.94346e+06
3.88765e+06
3.83289e+06
3.77876e+06
3.72475e+06
3.67003e+06
3.6133e+06
3.55142e+06
4.60757e+06
4.53425e+06
4.45859e+06
4.38559e+06
4.31545e+06
4.24798e+06
4.18297e+06
4.12025e+06
4.05962e+06
4.00086e+06
3.94375e+06
3.88802e+06
3.83338e+06
3.77945e+06
3.72575e+06
3.67162e+06
3.61612e+06
3.55805e+06
4.6077e+06
4.53438e+06
4.45872e+06
4.38573e+06
4.31561e+06
4.24815e+06
4.18318e+06
4.1205e+06
4.05992e+06
4.00123e+06
3.94422e+06
3.88863e+06
3.83419e+06
3.78056e+06
3.72736e+06
3.6741e+06
3.6203e+06
3.56598e+06
4.60785e+06
4.53456e+06
4.45891e+06
4.38593e+06
4.31583e+06
4.24841e+06
4.18348e+06
4.12086e+06
4.06036e+06
4.00178e+06
3.94491e+06
3.88952e+06
3.83536e+06
3.78215e+06
3.7296e+06
3.67743e+06
3.62554e+06
3.57456e+06
4.60809e+06
4.5348e+06
4.45917e+06
4.38621e+06
4.31614e+06
4.24877e+06
4.1839e+06
4.12136e+06
4.06097e+06
4.00253e+06
3.94585e+06
3.89072e+06
3.83693e+06
3.78425e+06
3.7325e+06
3.68157e+06
3.63161e+06
3.58345e+06
4.6084e+06
4.53513e+06
4.45951e+06
4.38658e+06
4.31655e+06
4.24924e+06
4.18445e+06
4.12202e+06
4.06176e+06
4.00351e+06
3.94707e+06
3.89227e+06
3.83893e+06
3.78688e+06
3.73604e+06
3.68642e+06
3.63831e+06
3.59249e+06
4.6088e+06
4.53556e+06
4.45995e+06
4.38706e+06
4.31708e+06
4.24984e+06
4.18515e+06
4.12285e+06
4.06277e+06
4.00475e+06
3.94861e+06
3.8942e+06
3.84138e+06
3.79006e+06
3.7402e+06
3.6919e+06
3.64549e+06
3.60162e+06
4.60934e+06
4.5361e+06
4.46052e+06
4.38766e+06
4.31775e+06
4.25059e+06
4.18603e+06
4.12389e+06
4.06403e+06
4.00627e+06
3.95048e+06
3.89653e+06
3.84431e+06
3.79376e+06
3.74492e+06
3.69791e+06
3.65304e+06
3.6108e+06
4.60999e+06
4.53678e+06
4.46121e+06
4.38839e+06
4.31856e+06
4.25152e+06
4.1871e+06
4.12516e+06
4.06554e+06
4.0081e+06
3.95272e+06
3.89927e+06
3.84771e+06
3.79798e+06
3.75016e+06
3.70437e+06
3.66087e+06
3.62001e+06
4.61093e+06
4.53762e+06
4.46206e+06
4.38929e+06
4.31954e+06
4.25263e+06
4.18839e+06
4.12668e+06
4.06734e+06
4.01026e+06
3.95533e+06
3.90244e+06
3.85156e+06
3.80268e+06
3.75585e+06
3.7112e+06
3.66892e+06
3.62923e+06
4.6118e+06
4.53854e+06
4.46299e+06
4.39027e+06
4.32062e+06
4.25385e+06
4.18979e+06
4.12831e+06
4.06927e+06
4.01256e+06
3.95807e+06
3.90573e+06
3.85551e+06
3.80739e+06
3.76144e+06
3.71775e+06
3.67645e+06
3.63768e+06
4.61299e+06
4.53961e+06
4.46405e+06
4.39139e+06
4.32184e+06
4.25522e+06
4.19137e+06
4.13015e+06
4.07143e+06
4.01511e+06
3.96109e+06
3.90931e+06
3.85974e+06
3.81237e+06
3.76725e+06
3.72444e+06
3.68401e+06
3.64605e+06
4.61456e+06
4.54104e+06
4.46546e+06
4.39287e+06
4.32345e+06
4.25703e+06
4.19343e+06
4.13253e+06
4.07421e+06
4.01836e+06
3.9649e+06
3.91377e+06
3.86494e+06
3.8184e+06
3.77416e+06
3.73226e+06
3.69272e+06
3.65557e+06
4.6166e+06
4.54292e+06
4.46732e+06
4.39481e+06
4.32556e+06
4.25938e+06
4.1961e+06
4.1356e+06
4.07775e+06
4.02247e+06
3.96966e+06
3.91926e+06
3.87125e+06
3.82558e+06
3.78226e+06
3.74127e+06
3.7026e+06
3.66624e+06
4.61914e+06
4.54533e+06
4.46973e+06
4.39733e+06
4.3283e+06
4.26241e+06
4.19952e+06
4.13949e+06
4.08221e+06
4.02757e+06
3.97548e+06
3.92589e+06
3.87874e+06
3.83398e+06
3.79157e+06
3.75148e+06
3.71365e+06
3.67803e+06
4.62234e+06
4.54837e+06
4.47278e+06
4.40053e+06
4.33176e+06
4.26624e+06
4.20381e+06
4.14432e+06
4.08767e+06
4.03374e+06
3.98244e+06
3.93369e+06
3.88742e+06
3.84355e+06
3.80203e+06
3.76279e+06
3.72575e+06
3.69083e+06
4.626e+06
4.55201e+06
4.4765e+06
4.40446e+06
4.336e+06
4.27091e+06
4.20899e+06
4.15012e+06
4.09414e+06
4.04096e+06
3.99047e+06
3.94256e+06
3.89714e+06
3.85413e+06
3.81343e+06
3.77497e+06
3.73863e+06
3.70434e+06
4.6302e+06
4.55617e+06
4.48081e+06
4.40902e+06
4.34094e+06
4.27631e+06
4.21496e+06
4.15671e+06
4.10144e+06
4.049e+06
3.99928e+06
3.95216e+06
3.90754e+06
3.8653e+06
3.82534e+06
3.78756e+06
3.75185e+06
3.71811e+06
4.63344e+06
4.55952e+06
4.48433e+06
4.41281e+06
4.34505e+06
4.28081e+06
4.21989e+06
4.16213e+06
4.10737e+06
4.05547e+06
4.0063e+06
3.95973e+06
3.91564e+06
3.87391e+06
3.83444e+06
3.7971e+06
3.7618e+06
3.72841e+06
4.63532e+06
4.56166e+06
4.48667e+06
4.41536e+06
4.34785e+06
4.28388e+06
4.22325e+06
4.1658e+06
4.11137e+06
4.05981e+06
4.01098e+06
3.96474e+06
3.92098e+06
3.87957e+06
3.84038e+06
3.80331e+06
3.76824e+06
3.73507e+06
4.63679e+06
4.56317e+06
4.48834e+06
4.41721e+06
4.34989e+06
4.28613e+06
4.22572e+06
4.16849e+06
4.1143e+06
4.06297e+06
4.01437e+06
3.96837e+06
3.92483e+06
3.88362e+06
3.84463e+06
3.80774e+06
3.77283e+06
3.7398e+06
4.63739e+06
4.56412e+06
4.48948e+06
4.41852e+06
4.35135e+06
4.28774e+06
4.22749e+06
4.17043e+06
4.1164e+06
4.06523e+06
4.0168e+06
3.97095e+06
3.92756e+06
3.8865e+06
3.84764e+06
3.81087e+06
3.77607e+06
3.74313e+06
4.63789e+06
4.56475e+06
4.49026e+06
4.41942e+06
4.35238e+06
4.28888e+06
4.22875e+06
4.1718e+06
4.11788e+06
4.06683e+06
4.01851e+06
3.97277e+06
3.92948e+06
3.88852e+06
3.84975e+06
3.81306e+06
3.77833e+06
3.74546e+06
4.63817e+06
4.56514e+06
4.49077e+06
4.42004e+06
4.35308e+06
4.28967e+06
4.22961e+06
4.17274e+06
4.1189e+06
4.06793e+06
4.01969e+06
3.97402e+06
3.9308e+06
3.8899e+06
3.8512e+06
3.81456e+06
3.77988e+06
3.74705e+06
4.6381e+06
4.56535e+06
4.4911e+06
4.42045e+06
4.35355e+06
4.2902e+06
4.2302e+06
4.17338e+06
4.11959e+06
4.06867e+06
4.02048e+06
3.97486e+06
3.93169e+06
3.89083e+06
3.85217e+06
3.81557e+06
3.78092e+06
3.74812e+06
4.63805e+06
4.56547e+06
4.49131e+06
4.42071e+06
4.35386e+06
4.29054e+06
4.23057e+06
4.17379e+06
4.12004e+06
4.06915e+06
4.02099e+06
3.9754e+06
3.93226e+06
3.89143e+06
3.85279e+06
3.81621e+06
3.78159e+06
3.74881e+06
4.63806e+06
4.56554e+06
4.49143e+06
4.42086e+06
4.35404e+06
4.29074e+06
4.2308e+06
4.17404e+06
4.12031e+06
4.06944e+06
4.0213e+06
3.97573e+06
3.93261e+06
3.8918e+06
3.85317e+06
3.81661e+06
3.78199e+06
3.74922e+06
4.63807e+06
4.56558e+06
4.4915e+06
4.42095e+06
4.35414e+06
4.29085e+06
4.23092e+06
4.17417e+06
4.12045e+06
4.0696e+06
4.02146e+06
3.97591e+06
3.9328e+06
3.89199e+06
3.85337e+06
3.81682e+06
3.78221e+06
3.74945e+06
4.63808e+06
4.5656e+06
4.49152e+06
4.42098e+06
4.35418e+06
4.2909e+06
4.23097e+06
4.17423e+06
4.12051e+06
4.06966e+06
4.02153e+06
3.97598e+06
3.93287e+06
3.89207e+06
3.85346e+06
3.8169e+06
3.7823e+06
3.74954e+06
2.99817e+06
2.99793e+06
2.99745e+06
2.99672e+06
2.99574e+06
2.9945e+06
2.993e+06
2.99123e+06
2.9892e+06
2.98689e+06
2.9843e+06
2.98144e+06
2.9783e+06
2.97488e+06
2.97117e+06
2.96718e+06
2.96291e+06
2.95835e+06
2.9535e+06
2.94837e+06
2.94296e+06
2.93726e+06
2.93128e+06
2.92502e+06
2.91849e+06
2.91167e+06
2.90458e+06
2.89722e+06
2.8896e+06
2.8817e+06
2.87354e+06
2.86513e+06
2.85645e+06
2.84753e+06
2.83835e+06
2.82893e+06
2.81927e+06
2.80937e+06
2.79923e+06
2.78887e+06
2.77828e+06
2.76747e+06
2.75643e+06
2.74519e+06
2.73373e+06
2.72207e+06
2.7102e+06
2.69814e+06
2.68588e+06
2.67342e+06
2.66078e+06
2.64796e+06
2.63495e+06
2.62177e+06
2.60842e+06
2.59489e+06
2.5812e+06
2.56735e+06
2.55333e+06
2.53916e+06
2.52484e+06
2.51037e+06
2.49575e+06
2.48099e+06
2.46608e+06
2.45104e+06
2.43586e+06
2.42055e+06
2.40511e+06
2.38955e+06
2.37386e+06
2.35805e+06
2.34212e+06
2.32607e+06
2.30991e+06
2.29363e+06
2.27725e+06
2.26075e+06
2.24415e+06
2.22745e+06
2.21065e+06
2.19375e+06
2.17675e+06
2.15965e+06
2.14246e+06
2.12518e+06
2.10781e+06
2.09036e+06
2.07282e+06
2.0552e+06
2.03749e+06
2.01971e+06
2.00185e+06
1.98391e+06
1.9659e+06
1.94782e+06
1.92967e+06
1.91145e+06
1.89316e+06
1.87481e+06
1.85639e+06
1.83791e+06
1.81937e+06
1.80078e+06
1.78212e+06
1.76341e+06
1.74465e+06
1.72584e+06
1.70697e+06
1.68806e+06
1.6691e+06
1.65009e+06
1.63105e+06
1.61196e+06
1.59283e+06
1.57366e+06
1.55446e+06
1.53523e+06
1.51596e+06
1.49666e+06
1.47734e+06
1.45798e+06
1.43861e+06
1.41921e+06
1.39979e+06
1.38036e+06
1.36091e+06
1.34144e+06
1.32197e+06
1.30248e+06
1.28299e+06
1.2635e+06
1.244e+06
1.2245e+06
1.20501e+06
1.18552e+06
1.16604e+06
1.14657e+06
1.12712e+06
1.10768e+06
1.08826e+06
1.06887e+06
1.0495e+06
1.03015e+06
1.01084e+06
991565
972325
953127
933972
914865
895810
876809
857866
838985
820170
801425
782753
764159
745647
727221
708886
690646
672506
654471
636546
618736
601046
583483
566053
548762
531618
514628
497803
481152
464688
448428
432394
416618
401157
386130
2.99926e+06
2.99902e+06
2.99853e+06
2.9978e+06
2.99681e+06
2.99556e+06
2.99405e+06
2.99227e+06
2.99022e+06
2.9879e+06
2.9853e+06
2.98243e+06
2.97927e+06
2.97583e+06
2.97211e+06
2.9681e+06
2.9638e+06
2.95922e+06
2.95436e+06
2.9492e+06
2.94377e+06
2.93805e+06
2.93205e+06
2.92576e+06
2.9192e+06
2.91237e+06
2.90525e+06
2.89787e+06
2.89022e+06
2.8823e+06
2.87412e+06
2.86568e+06
2.85699e+06
2.84804e+06
2.83885e+06
2.8294e+06
2.81972e+06
2.8098e+06
2.79965e+06
2.78927e+06
2.77866e+06
2.76783e+06
2.75678e+06
2.74552e+06
2.73405e+06
2.72237e+06
2.71049e+06
2.69841e+06
2.68613e+06
2.67367e+06
2.66102e+06
2.64818e+06
2.63516e+06
2.62197e+06
2.60861e+06
2.59507e+06
2.58137e+06
2.56751e+06
2.55349e+06
2.53931e+06
2.52498e+06
2.5105e+06
2.49587e+06
2.4811e+06
2.46619e+06
2.45114e+06
2.43596e+06
2.42064e+06
2.4052e+06
2.38963e+06
2.37393e+06
2.35812e+06
2.34218e+06
2.32613e+06
2.30996e+06
2.29369e+06
2.2773e+06
2.2608e+06
2.2442e+06
2.22749e+06
2.21069e+06
2.19378e+06
2.17678e+06
2.15968e+06
2.14249e+06
2.12521e+06
2.10784e+06
2.09038e+06
2.07284e+06
2.05522e+06
2.03751e+06
2.01973e+06
2.00187e+06
1.98393e+06
1.96592e+06
1.94784e+06
1.92968e+06
1.91146e+06
1.89317e+06
1.87482e+06
1.8564e+06
1.83792e+06
1.81938e+06
1.80078e+06
1.78213e+06
1.76342e+06
1.74466e+06
1.72584e+06
1.70698e+06
1.68806e+06
1.6691e+06
1.6501e+06
1.63105e+06
1.61196e+06
1.59283e+06
1.57367e+06
1.55446e+06
1.53523e+06
1.51596e+06
1.49666e+06
1.47734e+06
1.45799e+06
1.43861e+06
1.41921e+06
1.39979e+06
1.38036e+06
1.36091e+06
1.34144e+06
1.32197e+06
1.30248e+06
1.28299e+06
1.2635e+06
1.244e+06
1.2245e+06
1.20501e+06
1.18552e+06
1.16604e+06
1.14657e+06
1.12712e+06
1.10768e+06
1.08826e+06
1.06887e+06
1.0495e+06
1.03015e+06
1.01084e+06
991565
972325
953127
933972
914866
895810
876809
857866
838985
820170
801425
782753
764159
745647
727221
708886
690646
672506
654471
636545
618735
601045
583482
566051
548760
531615
514625
497798
481145
464679
448415
432375
416589
401105
386008
3.00143e+06
3.00119e+06
3.00069e+06
2.99995e+06
2.99895e+06
2.99768e+06
2.99616e+06
2.99436e+06
2.99228e+06
2.98994e+06
2.98731e+06
2.9844e+06
2.98121e+06
2.97774e+06
2.97398e+06
2.96993e+06
2.96559e+06
2.96097e+06
2.95606e+06
2.95087e+06
2.94539e+06
2.93962e+06
2.93357e+06
2.92724e+06
2.92064e+06
2.91375e+06
2.90659e+06
2.89916e+06
2.89147e+06
2.8835e+06
2.87528e+06
2.8668e+06
2.85806e+06
2.84907e+06
2.83983e+06
2.83035e+06
2.82063e+06
2.81067e+06
2.80048e+06
2.79006e+06
2.77942e+06
2.76855e+06
2.75747e+06
2.74618e+06
2.73467e+06
2.72296e+06
2.71106e+06
2.69895e+06
2.68665e+06
2.67416e+06
2.66148e+06
2.64862e+06
2.63558e+06
2.62237e+06
2.60898e+06
2.59543e+06
2.58171e+06
2.56783e+06
2.55379e+06
2.53959e+06
2.52525e+06
2.51075e+06
2.49611e+06
2.48133e+06
2.4664e+06
2.45134e+06
2.43615e+06
2.42082e+06
2.40537e+06
2.38979e+06
2.37408e+06
2.35826e+06
2.34231e+06
2.32625e+06
2.31008e+06
2.2938e+06
2.2774e+06
2.2609e+06
2.24429e+06
2.22758e+06
2.21077e+06
2.19386e+06
2.17685e+06
2.15975e+06
2.14255e+06
2.12527e+06
2.10789e+06
2.09043e+06
2.07289e+06
2.05526e+06
2.03755e+06
2.01977e+06
2.0019e+06
1.98396e+06
1.96595e+06
1.94786e+06
1.92971e+06
1.91148e+06
1.89319e+06
1.87484e+06
1.85642e+06
1.83794e+06
1.8194e+06
1.8008e+06
1.78214e+06
1.76343e+06
1.74467e+06
1.72585e+06
1.70698e+06
1.68807e+06
1.66911e+06
1.6501e+06
1.63106e+06
1.61197e+06
1.59284e+06
1.57367e+06
1.55447e+06
1.53523e+06
1.51596e+06
1.49667e+06
1.47734e+06
1.45799e+06
1.43861e+06
1.41921e+06
1.3998e+06
1.38036e+06
1.36091e+06
1.34144e+06
1.32197e+06
1.30248e+06
1.28299e+06
1.2635e+06
1.244e+06
1.2245e+06
1.20501e+06
1.18552e+06
1.16604e+06
1.14657e+06
1.12712e+06
1.10768e+06
1.08826e+06
1.06887e+06
1.0495e+06
1.03015e+06
1.01084e+06
991565
972326
953127
933973
914866
895810
876809
857866
838985
820170
801425
782753
764159
745647
727221
708885
690645
672505
654470
636544
618733
601043
583479
566048
548755
531609
514617
497788
481132
464661
448390
432339
416534
401010
385816
3.00471e+06
3.00446e+06
3.00395e+06
3.00319e+06
3.00217e+06
3.00089e+06
2.99933e+06
2.9975e+06
2.99539e+06
2.993e+06
2.99033e+06
2.98738e+06
2.98413e+06
2.98061e+06
2.97679e+06
2.97268e+06
2.96829e+06
2.9636e+06
2.95863e+06
2.95336e+06
2.94781e+06
2.94198e+06
2.93586e+06
2.92946e+06
2.92278e+06
2.91583e+06
2.9086e+06
2.9011e+06
2.89333e+06
2.8853e+06
2.87701e+06
2.86846e+06
2.85966e+06
2.8506e+06
2.8413e+06
2.83176e+06
2.82198e+06
2.81197e+06
2.80172e+06
2.79124e+06
2.78055e+06
2.76963e+06
2.7585e+06
2.74716e+06
2.73561e+06
2.72386e+06
2.71191e+06
2.69976e+06
2.68742e+06
2.67489e+06
2.66217e+06
2.64928e+06
2.63621e+06
2.62296e+06
2.60954e+06
2.59596e+06
2.58221e+06
2.5683e+06
2.55424e+06
2.54002e+06
2.52565e+06
2.51113e+06
2.49647e+06
2.48167e+06
2.46672e+06
2.45164e+06
2.43643e+06
2.42109e+06
2.40562e+06
2.39002e+06
2.37431e+06
2.35847e+06
2.34251e+06
2.32644e+06
2.31026e+06
2.29396e+06
2.27755e+06
2.26104e+06
2.24443e+06
2.22771e+06
2.21089e+06
2.19397e+06
2.17695e+06
2.15984e+06
2.14264e+06
2.12535e+06
2.10797e+06
2.09051e+06
2.07296e+06
2.05532e+06
2.03761e+06
2.01982e+06
2.00195e+06
1.98401e+06
1.96599e+06
1.9479e+06
1.92975e+06
1.91152e+06
1.89323e+06
1.87487e+06
1.85645e+06
1.83796e+06
1.81942e+06
1.80082e+06
1.78216e+06
1.76345e+06
1.74468e+06
1.72587e+06
1.707e+06
1.68808e+06
1.66912e+06
1.65012e+06
1.63107e+06
1.61198e+06
1.59285e+06
1.57368e+06
1.55448e+06
1.53524e+06
1.51597e+06
1.49667e+06
1.47735e+06
1.45799e+06
1.43862e+06
1.41922e+06
1.3998e+06
1.38036e+06
1.36091e+06
1.34145e+06
1.32197e+06
1.30249e+06
1.28299e+06
1.2635e+06
1.244e+06
1.2245e+06
1.20501e+06
1.18552e+06
1.16604e+06
1.14657e+06
1.12712e+06
1.10768e+06
1.08826e+06
1.06887e+06
1.0495e+06
1.03015e+06
1.01084e+06
991565
972326
953127
933973
914866
895810
876809
857866
838985
820170
801424
782753
764158
745646
727220
708885
690644
672504
654468
636542
618731
601040
583475
566042
548748
531600
514606
497773
481112
464634
448354
432287
416456
400884
385593
3.00911e+06
3.00885e+06
3.00833e+06
3.00755e+06
3.0065e+06
3.00518e+06
3.00359e+06
3.00171e+06
2.99955e+06
2.99711e+06
2.99438e+06
2.99136e+06
2.98805e+06
2.98445e+06
2.98055e+06
2.97637e+06
2.97189e+06
2.96711e+06
2.96205e+06
2.9567e+06
2.95106e+06
2.94513e+06
2.93892e+06
2.93242e+06
2.92565e+06
2.9186e+06
2.91128e+06
2.90368e+06
2.89582e+06
2.8877e+06
2.87932e+06
2.87068e+06
2.86179e+06
2.85265e+06
2.84326e+06
2.83364e+06
2.82378e+06
2.81369e+06
2.80337e+06
2.79282e+06
2.78205e+06
2.77107e+06
2.75987e+06
2.74847e+06
2.73686e+06
2.72504e+06
2.71303e+06
2.70083e+06
2.68844e+06
2.67586e+06
2.6631e+06
2.65015e+06
2.63704e+06
2.62375e+06
2.61029e+06
2.59667e+06
2.58288e+06
2.56894e+06
2.55484e+06
2.54058e+06
2.52618e+06
2.51164e+06
2.49694e+06
2.48211e+06
2.46715e+06
2.45204e+06
2.43681e+06
2.42144e+06
2.40595e+06
2.39034e+06
2.3746e+06
2.35875e+06
2.34277e+06
2.32669e+06
2.31049e+06
2.29418e+06
2.27776e+06
2.26123e+06
2.2446e+06
2.22787e+06
2.21104e+06
2.19412e+06
2.17709e+06
2.15997e+06
2.14276e+06
2.12546e+06
2.10808e+06
2.0906e+06
2.07305e+06
2.05541e+06
2.03769e+06
2.01989e+06
2.00202e+06
1.98407e+06
1.96605e+06
1.94796e+06
1.9298e+06
1.91157e+06
1.89327e+06
1.87491e+06
1.85648e+06
1.838e+06
1.81945e+06
1.80085e+06
1.78219e+06
1.76347e+06
1.74471e+06
1.72589e+06
1.70702e+06
1.6881e+06
1.66914e+06
1.65013e+06
1.63108e+06
1.61199e+06
1.59286e+06
1.57369e+06
1.55448e+06
1.53525e+06
1.51598e+06
1.49668e+06
1.47735e+06
1.458e+06
1.43862e+06
1.41922e+06
1.3998e+06
1.38037e+06
1.36092e+06
1.34145e+06
1.32197e+06
1.30249e+06
1.283e+06
1.2635e+06
1.244e+06
1.22451e+06
1.20501e+06
1.18552e+06
1.16604e+06
1.14658e+06
1.12712e+06
1.10768e+06
1.08826e+06
1.06887e+06
1.0495e+06
1.03015e+06
1.01084e+06
991566
972326
953128
933973
914866
895810
876809
857866
838985
820170
801424
782752
764158
745646
727219
708884
690643
672502
654466
636539
618727
601036
583470
566035
548740
531589
514591
497754
481087
464601
448308
432222
416361
400738
385358
3.01467e+06
3.01439e+06
3.01386e+06
3.01305e+06
3.01196e+06
3.0106e+06
3.00895e+06
3.00702e+06
3.0048e+06
3.00228e+06
2.99948e+06
2.99637e+06
2.99297e+06
2.98928e+06
2.98528e+06
2.98099e+06
2.9764e+06
2.97152e+06
2.96635e+06
2.96088e+06
2.95512e+06
2.94907e+06
2.94274e+06
2.93612e+06
2.92923e+06
2.92206e+06
2.91461e+06
2.9069e+06
2.89893e+06
2.89069e+06
2.88219e+06
2.87344e+06
2.86444e+06
2.85519e+06
2.8457e+06
2.83598e+06
2.82602e+06
2.81583e+06
2.80541e+06
2.79478e+06
2.78392e+06
2.77285e+06
2.76157e+06
2.75009e+06
2.7384e+06
2.72652e+06
2.71443e+06
2.70216e+06
2.6897e+06
2.67706e+06
2.66424e+06
2.65124e+06
2.63806e+06
2.62472e+06
2.61121e+06
2.59754e+06
2.58371e+06
2.56972e+06
2.55558e+06
2.54128e+06
2.52684e+06
2.51226e+06
2.49753e+06
2.48267e+06
2.46767e+06
2.45254e+06
2.43728e+06
2.42188e+06
2.40637e+06
2.39073e+06
2.37497e+06
2.35909e+06
2.3431e+06
2.32699e+06
2.31077e+06
2.29445e+06
2.27801e+06
2.26147e+06
2.24483e+06
2.22808e+06
2.21124e+06
2.1943e+06
2.17726e+06
2.16013e+06
2.14291e+06
2.1256e+06
2.10821e+06
2.09072e+06
2.07316e+06
2.05551e+06
2.03779e+06
2.01998e+06
2.0021e+06
1.98415e+06
1.96612e+06
1.94802e+06
1.92986e+06
1.91162e+06
1.89332e+06
1.87496e+06
1.85653e+06
1.83804e+06
1.81949e+06
1.80088e+06
1.78222e+06
1.7635e+06
1.74473e+06
1.72591e+06
1.70704e+06
1.68812e+06
1.66916e+06
1.65015e+06
1.6311e+06
1.612e+06
1.59287e+06
1.5737e+06
1.5545e+06
1.53526e+06
1.51599e+06
1.49669e+06
1.47736e+06
1.45801e+06
1.43863e+06
1.41923e+06
1.39981e+06
1.38037e+06
1.36092e+06
1.34145e+06
1.32198e+06
1.30249e+06
1.283e+06
1.2635e+06
1.24401e+06
1.22451e+06
1.20501e+06
1.18553e+06
1.16605e+06
1.14658e+06
1.12712e+06
1.10768e+06
1.08827e+06
1.06887e+06
1.0495e+06
1.03016e+06
1.01084e+06
991567
972327
953128
933974
914867
895811
876810
857866
838985
820170
801424
782752
764158
745645
727219
708883
690642
672500
654464
636536
618723
601030
583463
566027
548729
531575
514573
497730
481056
464560
448253
432146
416252
400580
385122
3.02141e+06
3.02112e+06
3.02056e+06
3.01971e+06
3.01859e+06
3.01717e+06
3.01546e+06
3.01345e+06
3.01115e+06
3.00855e+06
3.00564e+06
3.00243e+06
2.99892e+06
2.99511e+06
2.99099e+06
2.98657e+06
2.98185e+06
2.97683e+06
2.97151e+06
2.9659e+06
2.96e+06
2.9538e+06
2.94732e+06
2.94056e+06
2.93352e+06
2.9262e+06
2.91861e+06
2.91076e+06
2.90264e+06
2.89426e+06
2.88563e+06
2.87674e+06
2.86761e+06
2.85823e+06
2.84862e+06
2.83877e+06
2.82869e+06
2.81838e+06
2.80786e+06
2.79711e+06
2.78615e+06
2.77498e+06
2.7636e+06
2.75202e+06
2.74024e+06
2.72827e+06
2.7161e+06
2.70375e+06
2.69121e+06
2.67849e+06
2.6656e+06
2.65253e+06
2.63929e+06
2.62588e+06
2.61231e+06
2.59858e+06
2.58469e+06
2.57065e+06
2.55646e+06
2.54212e+06
2.52763e+06
2.513e+06
2.49824e+06
2.48333e+06
2.4683e+06
2.45313e+06
2.43783e+06
2.42241e+06
2.40686e+06
2.39119e+06
2.37541e+06
2.3595e+06
2.34348e+06
2.32735e+06
2.31111e+06
2.29477e+06
2.27831e+06
2.26175e+06
2.24509e+06
2.22833e+06
2.21147e+06
2.19451e+06
2.17746e+06
2.16032e+06
2.14309e+06
2.12577e+06
2.10836e+06
2.09087e+06
2.07329e+06
2.05564e+06
2.0379e+06
2.02009e+06
2.0022e+06
1.98424e+06
1.96621e+06
1.9481e+06
1.92993e+06
1.91169e+06
1.89338e+06
1.87501e+06
1.85658e+06
1.83809e+06
1.81954e+06
1.80093e+06
1.78226e+06
1.76354e+06
1.74477e+06
1.72594e+06
1.70707e+06
1.68815e+06
1.66918e+06
1.65017e+06
1.63112e+06
1.61202e+06
1.59289e+06
1.57372e+06
1.55451e+06
1.53527e+06
1.516e+06
1.4967e+06
1.47737e+06
1.45801e+06
1.43864e+06
1.41924e+06
1.39982e+06
1.38038e+06
1.36093e+06
1.34146e+06
1.32198e+06
1.3025e+06
1.283e+06
1.26351e+06
1.24401e+06
1.22451e+06
1.20502e+06
1.18553e+06
1.16605e+06
1.14658e+06
1.12712e+06
1.10769e+06
1.08827e+06
1.06887e+06
1.0495e+06
1.03016e+06
1.01084e+06
991567
972328
953129
933974
914867
895811
876810
857867
838986
820170
801424
782752
764157
745644
727218
708881
690640
672498
654461
636532
618719
601024
583455
566017
548716
531559
514552
497703
481021
464513
448190
432062
416135
400415
384889
3.02939e+06
3.02908e+06
3.02848e+06
3.0276e+06
3.02642e+06
3.02493e+06
3.02314e+06
3.02105e+06
3.01865e+06
3.01593e+06
3.01291e+06
3.00957e+06
3.00592e+06
3.00197e+06
2.9977e+06
2.99312e+06
2.98824e+06
2.98305e+06
2.97757e+06
2.97178e+06
2.9657e+06
2.95934e+06
2.95268e+06
2.94574e+06
2.93852e+06
2.93103e+06
2.92327e+06
2.91525e+06
2.90696e+06
2.89841e+06
2.88962e+06
2.88057e+06
2.87128e+06
2.86176e+06
2.85199e+06
2.842e+06
2.83178e+06
2.82134e+06
2.81068e+06
2.79981e+06
2.78873e+06
2.77744e+06
2.76594e+06
2.75425e+06
2.74237e+06
2.73029e+06
2.71803e+06
2.70558e+06
2.69296e+06
2.68015e+06
2.66717e+06
2.65402e+06
2.6407e+06
2.62722e+06
2.61358e+06
2.59978e+06
2.58583e+06
2.57173e+06
2.55748e+06
2.54308e+06
2.52854e+06
2.51386e+06
2.49905e+06
2.4841e+06
2.46902e+06
2.45381e+06
2.43847e+06
2.42301e+06
2.40743e+06
2.39173e+06
2.37591e+06
2.35998e+06
2.34393e+06
2.32777e+06
2.31151e+06
2.29513e+06
2.27866e+06
2.26208e+06
2.2454e+06
2.22862e+06
2.21174e+06
2.19477e+06
2.1777e+06
2.16054e+06
2.14329e+06
2.12596e+06
2.10854e+06
2.09103e+06
2.07345e+06
2.05578e+06
2.03804e+06
2.02021e+06
2.00232e+06
1.98435e+06
1.96631e+06
1.9482e+06
1.93002e+06
1.91177e+06
1.89346e+06
1.87508e+06
1.85664e+06
1.83815e+06
1.81959e+06
1.80098e+06
1.78231e+06
1.76358e+06
1.7448e+06
1.72598e+06
1.7071e+06
1.68818e+06
1.66921e+06
1.65019e+06
1.63114e+06
1.61204e+06
1.59291e+06
1.57373e+06
1.55453e+06
1.53528e+06
1.51601e+06
1.49671e+06
1.47738e+06
1.45802e+06
1.43865e+06
1.41924e+06
1.39982e+06
1.38038e+06
1.36093e+06
1.34146e+06
1.32199e+06
1.3025e+06
1.28301e+06
1.26351e+06
1.24401e+06
1.22451e+06
1.20502e+06
1.18553e+06
1.16605e+06
1.14658e+06
1.12713e+06
1.10769e+06
1.08827e+06
1.06887e+06
1.0495e+06
1.03016e+06
1.01085e+06
991568
972329
953130
933975
914868
895812
876810
857867
838986
820170
801424
782752
764157
745644
727217
708880
690638
672496
654457
636528
618713
601017
583447
566006
548702
531541
514529
497673
480982
464462
448123
431971
416012
400247
384663
3.03866e+06
3.03832e+06
3.03769e+06
3.03675e+06
3.0355e+06
3.03394e+06
3.03206e+06
3.02985e+06
3.02733e+06
3.02448e+06
3.02131e+06
3.01782e+06
3.014e+06
3.00987e+06
3.00542e+06
3.00066e+06
2.99558e+06
2.9902e+06
2.98451e+06
2.97852e+06
2.97224e+06
2.96566e+06
2.9588e+06
2.95166e+06
2.94424e+06
2.93654e+06
2.92858e+06
2.92035e+06
2.91187e+06
2.90314e+06
2.89415e+06
2.88493e+06
2.87546e+06
2.86576e+06
2.85583e+06
2.84567e+06
2.83529e+06
2.82469e+06
2.81388e+06
2.80287e+06
2.79164e+06
2.78022e+06
2.7686e+06
2.75678e+06
2.74478e+06
2.73259e+06
2.72021e+06
2.70766e+06
2.69493e+06
2.68202e+06
2.66895e+06
2.65571e+06
2.6423e+06
2.62874e+06
2.61502e+06
2.60114e+06
2.58712e+06
2.57294e+06
2.55863e+06
2.54417e+06
2.52957e+06
2.51483e+06
2.49996e+06
2.48496e+06
2.46983e+06
2.45458e+06
2.4392e+06
2.42369e+06
2.40807e+06
2.39233e+06
2.37648e+06
2.36051e+06
2.34443e+06
2.32825e+06
2.31195e+06
2.29555e+06
2.27905e+06
2.26245e+06
2.24574e+06
2.22894e+06
2.21204e+06
2.19505e+06
2.17796e+06
2.16079e+06
2.14352e+06
2.12617e+06
2.10874e+06
2.09122e+06
2.07362e+06
2.05594e+06
2.03819e+06
2.02035e+06
2.00245e+06
1.98447e+06
1.96642e+06
1.9483e+06
1.93011e+06
1.91186e+06
1.89354e+06
1.87516e+06
1.85672e+06
1.83821e+06
1.81965e+06
1.80103e+06
1.78236e+06
1.76363e+06
1.74485e+06
1.72602e+06
1.70714e+06
1.68821e+06
1.66924e+06
1.65022e+06
1.63116e+06
1.61206e+06
1.59293e+06
1.57375e+06
1.55454e+06
1.5353e+06
1.51603e+06
1.49672e+06
1.47739e+06
1.45804e+06
1.43866e+06
1.41925e+06
1.39983e+06
1.38039e+06
1.36094e+06
1.34147e+06
1.32199e+06
1.3025e+06
1.28301e+06
1.26351e+06
1.24401e+06
1.22452e+06
1.20502e+06
1.18553e+06
1.16605e+06
1.14658e+06
1.12713e+06
1.10769e+06
1.08827e+06
1.06887e+06
1.0495e+06
1.03016e+06
1.01085e+06
991569
972330
953131
933976
914869
895812
876811
857867
838986
820170
801424
782751
764156
745643
727216
708878
690636
672493
654454
636524
618707
601010
583437
565994
548687
531521
514504
497641
480940
464408
448051
431876
415886
400080
384445
3.04928e+06
3.04893e+06
3.04825e+06
3.04725e+06
3.04591e+06
3.04425e+06
3.04225e+06
3.03991e+06
3.03724e+06
3.03423e+06
3.03089e+06
3.02721e+06
3.02319e+06
3.01885e+06
3.01419e+06
3.0092e+06
3.0039e+06
2.99828e+06
2.99236e+06
2.98613e+06
2.97961e+06
2.97279e+06
2.96569e+06
2.95831e+06
2.95065e+06
2.94272e+06
2.93453e+06
2.92608e+06
2.91737e+06
2.90842e+06
2.89922e+06
2.88979e+06
2.88012e+06
2.87022e+06
2.8601e+06
2.84975e+06
2.8392e+06
2.82843e+06
2.81745e+06
2.80627e+06
2.79489e+06
2.78332e+06
2.77155e+06
2.7596e+06
2.74746e+06
2.73514e+06
2.72264e+06
2.70997e+06
2.69712e+06
2.68411e+06
2.67093e+06
2.65758e+06
2.64408e+06
2.63042e+06
2.61661e+06
2.60265e+06
2.58855e+06
2.57429e+06
2.5599e+06
2.54537e+06
2.53071e+06
2.51591e+06
2.50098e+06
2.48592e+06
2.47074e+06
2.45543e+06
2.44e+06
2.42445e+06
2.40878e+06
2.393e+06
2.37711e+06
2.3611e+06
2.34499e+06
2.32877e+06
2.31244e+06
2.29602e+06
2.27949e+06
2.26286e+06
2.24613e+06
2.2293e+06
2.21238e+06
2.19536e+06
2.17826e+06
2.16106e+06
2.14378e+06
2.12641e+06
2.10896e+06
2.09143e+06
2.07381e+06
2.05612e+06
2.03835e+06
2.02051e+06
2.00259e+06
1.9846e+06
1.96654e+06
1.94842e+06
1.93022e+06
1.91196e+06
1.89363e+06
1.87524e+06
1.85679e+06
1.83828e+06
1.81972e+06
1.80109e+06
1.78241e+06
1.76368e+06
1.7449e+06
1.72606e+06
1.70718e+06
1.68825e+06
1.66927e+06
1.65025e+06
1.63119e+06
1.61209e+06
1.59295e+06
1.57377e+06
1.55456e+06
1.53532e+06
1.51604e+06
1.49674e+06
1.47741e+06
1.45805e+06
1.43867e+06
1.41926e+06
1.39984e+06
1.3804e+06
1.36095e+06
1.34148e+06
1.322e+06
1.30251e+06
1.28302e+06
1.26352e+06
1.24402e+06
1.22452e+06
1.20502e+06
1.18554e+06
1.16605e+06
1.14659e+06
1.12713e+06
1.10769e+06
1.08827e+06
1.06888e+06
1.0495e+06
1.03016e+06
1.01085e+06
991571
972331
953132
933977
914869
895813
876811
857868
838986
820170
801424
782751
764156
745642
727214
708877
690634
672490
654450
636519
618701
601002
583427
565981
548670
531500
514477
497606
480896
464350
447977
431779
415760
399916
384237
3.06136e+06
3.06097e+06
3.06024e+06
3.05916e+06
3.05772e+06
3.05594e+06
3.0538e+06
3.0513e+06
3.04845e+06
3.04524e+06
3.04168e+06
3.03778e+06
3.03353e+06
3.02894e+06
3.02402e+06
3.01877e+06
3.0132e+06
3.00731e+06
3.00111e+06
2.99461e+06
2.98781e+06
2.98071e+06
2.97334e+06
2.96568e+06
2.95775e+06
2.94956e+06
2.94111e+06
2.9324e+06
2.92345e+06
2.91425e+06
2.90481e+06
2.89515e+06
2.88525e+06
2.87513e+06
2.8648e+06
2.85425e+06
2.84349e+06
2.83253e+06
2.82137e+06
2.81001e+06
2.79846e+06
2.78672e+06
2.77479e+06
2.76268e+06
2.7504e+06
2.73793e+06
2.7253e+06
2.7125e+06
2.69953e+06
2.68639e+06
2.67309e+06
2.65964e+06
2.64603e+06
2.63227e+06
2.61836e+06
2.60431e+06
2.59011e+06
2.57578e+06
2.5613e+06
2.54669e+06
2.53196e+06
2.51709e+06
2.50209e+06
2.48697e+06
2.47173e+06
2.45636e+06
2.44088e+06
2.42528e+06
2.40956e+06
2.39374e+06
2.3778e+06
2.36175e+06
2.3456e+06
2.32934e+06
2.31299e+06
2.29652e+06
2.27996e+06
2.2633e+06
2.24655e+06
2.22969e+06
2.21275e+06
2.19571e+06
2.17858e+06
2.16136e+06
2.14406e+06
2.12667e+06
2.1092e+06
2.09165e+06
2.07403e+06
2.05632e+06
2.03854e+06
2.02068e+06
2.00275e+06
1.98475e+06
1.96668e+06
1.94854e+06
1.93034e+06
1.91207e+06
1.89373e+06
1.87534e+06
1.85688e+06
1.83836e+06
1.81979e+06
1.80116e+06
1.78248e+06
1.76374e+06
1.74495e+06
1.72611e+06
1.70722e+06
1.68829e+06
1.66931e+06
1.65029e+06
1.63122e+06
1.61212e+06
1.59298e+06
1.5738e+06
1.55459e+06
1.53534e+06
1.51606e+06
1.49676e+06
1.47742e+06
1.45806e+06
1.43868e+06
1.41927e+06
1.39985e+06
1.38041e+06
1.36095e+06
1.34148e+06
1.322e+06
1.30252e+06
1.28302e+06
1.26352e+06
1.24402e+06
1.22452e+06
1.20503e+06
1.18554e+06
1.16606e+06
1.14659e+06
1.12713e+06
1.10769e+06
1.08827e+06
1.06888e+06
1.04951e+06
1.03016e+06
1.01085e+06
991572
972332
953133
933978
914870
895814
876812
857868
838987
820170
801424
782751
764155
745641
727213
708875
690631
672487
654446
636514
618694
600994
583416
565967
548653
531478
514448
497570
480850
464292
447901
431682
415635
399757
384038
3.07499e+06
3.07456e+06
3.07376e+06
3.07258e+06
3.07103e+06
3.06909e+06
3.06678e+06
3.06409e+06
3.06102e+06
3.05757e+06
3.05376e+06
3.04959e+06
3.04506e+06
3.04018e+06
3.03495e+06
3.02939e+06
3.02351e+06
3.0173e+06
3.01078e+06
3.00396e+06
2.99684e+06
2.98943e+06
2.98174e+06
2.97377e+06
2.96554e+06
2.95705e+06
2.9483e+06
2.93931e+06
2.93008e+06
2.92061e+06
2.9109e+06
2.90098e+06
2.89083e+06
2.88048e+06
2.86991e+06
2.85913e+06
2.84816e+06
2.83698e+06
2.82562e+06
2.81406e+06
2.80232e+06
2.7904e+06
2.7783e+06
2.76603e+06
2.75358e+06
2.74096e+06
2.72818e+06
2.71523e+06
2.70213e+06
2.68886e+06
2.67544e+06
2.66186e+06
2.64814e+06
2.63427e+06
2.62025e+06
2.6061e+06
2.5918e+06
2.57738e+06
2.56282e+06
2.54813e+06
2.53331e+06
2.51836e+06
2.5033e+06
2.48811e+06
2.4728e+06
2.45737e+06
2.44183e+06
2.42618e+06
2.41041e+06
2.39453e+06
2.37855e+06
2.36246e+06
2.34626e+06
2.32997e+06
2.31357e+06
2.29707e+06
2.28048e+06
2.26379e+06
2.247e+06
2.23012e+06
2.21315e+06
2.19608e+06
2.17893e+06
2.16169e+06
2.14437e+06
2.12696e+06
2.10947e+06
2.0919e+06
2.07425e+06
2.05653e+06
2.03873e+06
2.02086e+06
2.00292e+06
1.98491e+06
1.96683e+06
1.94868e+06
1.93046e+06
1.91218e+06
1.89384e+06
1.87544e+06
1.85697e+06
1.83845e+06
1.81987e+06
1.80123e+06
1.78254e+06