/*--------------------------------*- C++ -*----------------------------------*\
  =========                 |
  \\      /  F ield         | OpenFOAM: The Open Source CFD Toolbox
   \\    /   O peration     | Website:  https://openfoam.org
    \\  /    A nd           | Version:  7
     \\/     M anipulation  |
\*---------------------------------------------------------------------------*/
FoamFile
{
    version     2.0;
    format      ascii;
    class       volVectorField;
    location    "0.078";
    object      U;
}
// * * * * * * * * * * * * * * * * * * * * * * * * * * * * * * * * * * * * * //

dimensions      [0 1 -1 0 0 0 0];

internalField   nonuniform List<vector> 
12225
(
(4.73655 0.154802 0)
(4.13962 0.108766 0)
(3.69956 0.0941737 0)
(3.34383 0.0801174 0)
(3.01536 0.0682014 0)
(2.69185 0.0610613 0)
(2.37549 0.0551488 0)
(2.0759 0.0484086 0)
(1.80076 0.0402103 0)
(1.56026 0.030522 0)
(1.35867 0.0206949 0)
(1.19608 0.0125364 0)
(1.06387 0.00767735 0)
(0.956037 0.00599623 0)
(0.859889 0.00776932 0)
(0.76603 0.00912671 0)
(0.678375 0.0155493 0)
(0.554452 0.00280911 0)
(5.04601 0.100311 0)
(4.89013 0.0662253 0)
(4.75099 0.0868344 0)
(4.65934 0.087989 0)
(4.56295 0.0895166 0)
(4.44552 0.0951995 0)
(4.31574 0.101022 0)
(4.18126 0.103703 0)
(4.04354 0.102631 0)
(3.90752 0.0977906 0)
(3.77613 0.0901234 0)
(3.65188 0.0810432 0)
(3.52946 0.072692 0)
(3.40993 0.0663224 0)
(3.2889 0.0632843 0)
(3.16751 0.0625942 0)
(3.05194 0.0671293 0)
(2.92511 0.0713639 0)
(4.88513 0.11887 0)
(4.77462 0.114698 0)
(4.73341 0.130154 0)
(4.73493 0.12712 0)
(4.73135 0.12469 0)
(4.71036 0.125841 0)
(4.68107 0.127021 0)
(4.6494 0.126227 0)
(4.61658 0.123618 0)
(4.58471 0.118126 0)
(4.55605 0.109684 0)
(4.52856 0.100801 0)
(4.50002 0.0951096 0)
(4.46445 0.0931828 0)
(4.42375 0.0962496 0)
(4.369 0.100389 0)
(4.31161 0.107598 0)
(4.23311 0.117396 0)
(4.95892 0.174767 0)
(4.77228 0.0978901 0)
(4.6903 0.0998716 0)
(4.69343 0.102953 0)
(4.7321 0.106661 0)
(4.76438 0.11375 0)
(4.7747 0.1217 0)
(4.76441 0.125816 0)
(4.74486 0.124047 0)
(4.72761 0.116805 0)
(4.71795 0.106819 0)
(4.71216 0.0977994 0)
(4.70747 0.0934318 0)
(4.69917 0.094454 0)
(4.68917 0.101165 0)
(4.67212 0.110427 0)
(4.65306 0.123651 0)
(4.62267 0.14119 0)
(5.10928 0.202498 0)
(4.96874 0.147617 0)
(4.85489 0.12676 0)
(4.79336 0.112577 0)
(4.76655 0.10643 0)
(4.75847 0.111627 0)
(4.76661 0.122721 0)
(4.78344 0.130613 0)
(4.79663 0.130845 0)
(4.79776 0.124031 0)
(4.78576 0.113891 0)
(4.76456 0.10459 0)
(4.74212 0.0997442 0)
(4.72434 0.1003 0)
(4.71528 0.106426 0)
(4.71249 0.116562 0)
(4.71443 0.130618 0)
(4.71596 0.1497 0)
(4.93771 0.223164 0)
(4.87332 0.153493 0)
(4.83342 0.13396 0)
(4.81943 0.130168 0)
(4.82166 0.1226 0)
(4.83115 0.115868 0)
(4.84101 0.114759 0)
(4.84462 0.118035 0)
(4.8379 0.122578 0)
(4.82152 0.125051 0)
(4.7989 0.123443 0)
(4.77378 0.118157 0)
(4.74965 0.11192 0)
(4.72993 0.107845 0)
(4.71666 0.108242 0)
(4.71056 0.114093 0)
(4.71001 0.125245 0)
(4.71438 0.143417 0)
(5.03024 0.262349 0)
(4.94142 0.189937 0)
(4.88244 0.135193 0)
(4.87494 0.115112 0)
(4.89399 0.107408 0)
(4.90437 0.108744 0)
(4.89503 0.118217 0)
(4.87351 0.129311 0)
(4.85194 0.136159 0)
(4.83801 0.13698 0)
(4.83194 0.132881 0)
(4.82841 0.126372 0)
(4.8226 0.119996 0)
(4.81258 0.11599 0)
(4.80034 0.115261 0)
(4.78785 0.11895 0)
(4.77871 0.127067 0)
(4.77244 0.141796 0)
(4.94667 0.219535 0)
(4.99957 0.177187 0)
(4.95871 0.146204 0)
(4.89498 0.125643 0)
(4.85141 0.113804 0)
(4.83046 0.115504 0)
(4.82263 0.126556 0)
(4.82173 0.136461 0)
(4.82667 0.139248 0)
(4.83783 0.135652 0)
(4.85398 0.129067 0)
(4.87101 0.122931 0)
(4.88543 0.119276 0)
(4.89408 0.119131 0)
(4.89737 0.122077 0)
(4.89466 0.128234 0)
(4.89038 0.137171 0)
(4.88354 0.149947 0)
(4.95335 0.263861 0)
(4.94033 0.185205 0)
(4.92404 0.156504 0)
(4.89541 0.14274 0)
(4.86804 0.130907 0)
(4.85137 0.124335 0)
(4.84918 0.124493 0)
(4.8572 0.12652 0)
(4.86778 0.125992 0)
(4.87623 0.122218 0)
(4.88222 0.116723 0)
(4.88686 0.111768 0)
(4.89165 0.10913 0)
(4.89659 0.110048 0)
(4.90223 0.114319 0)
(4.9077 0.121847 0)
(4.91442 0.131549 0)
(4.922 0.14388 0)
(4.99575 0.26011 0)
(5.01083 0.191945 0)
(4.97762 0.170925 0)
(4.94512 0.152629 0)
(4.92809 0.133798 0)
(4.92071 0.123985 0)
(4.91222 0.124559 0)
(4.89658 0.129329 0)
(4.87695 0.131961 0)
(4.86182 0.129891 0)
(4.85806 0.12403 0)
(4.86638 0.117423 0)
(4.88306 0.112993 0)
(4.90263 0.112746 0)
(4.92098 0.116193 0)
(4.93575 0.122769 0)
(4.94764 0.130653 0)
(4.95694 0.140065 0)
(5.01821 0.272707 0)
(4.9636 0.185965 0)
(4.92606 0.169285 0)
(4.93071 0.151191 0)
(4.9469 0.136202 0)
(4.95141 0.132568 0)
(4.93675 0.137969 0)
(4.90882 0.143525 0)
(4.88039 0.141445 0)
(4.86238 0.130065 0)
(4.85875 0.113243 0)
(4.86808 0.0973675 0)
(4.88627 0.0873249 0)
(4.90928 0.0855883 0)
(4.9332 0.0909746 0)
(4.95545 0.101318 0)
(4.97484 0.113533 0)
(4.99135 0.125531 0)
(5.0531 0.250983 0)
(4.98405 0.240217 0)
(4.94583 0.186613 0)
(4.918 0.14283 0)
(4.91097 0.123052 0)
(4.92666 0.127441 0)
(4.94989 0.145509 0)
(4.96509 0.159419 0)
(4.96646 0.158301 0)
(4.95584 0.143094 0)
(4.93871 0.121104 0)
(4.92198 0.100525 0)
(4.91143 0.0867165 0)
(4.90966 0.0821113 0)
(4.91658 0.085598 0)
(4.92954 0.0948363 0)
(4.94643 0.106258 0)
(4.96489 0.117568 0)
(4.9362 0.269044 0)
(4.9996 0.223803 0)
(5.02135 0.192897 0)
(5.00891 0.162601 0)
(4.9883 0.132982 0)
(4.9765 0.117686 0)
(4.97765 0.122218 0)
(4.98366 0.136073 0)
(4.98618 0.145876 0)
(4.98269 0.144784 0)
(4.97556 0.132659 0)
(4.96875 0.114124 0)
(4.96527 0.0953199 0)
(4.96572 0.0818953 0)
(4.97062 0.0762502 0)
(4.97901 0.0783179 0)
(4.99174 0.0851118 0)
(5.00703 0.094197 0)
(5.02097 0.238873 0)
(5.00269 0.219285 0)
(4.97716 0.188926 0)
(4.95497 0.16047 0)
(4.93466 0.138258 0)
(4.91469 0.132037 0)
(4.8982 0.142307 0)
(4.88875 0.15686 0)
(4.89068 0.16193 0)
(4.90523 0.15217 0)
(4.9291 0.13133 0)
(4.95628 0.107825 0)
(4.98145 0.0891563 0)
(5.00074 0.0791051 0)
(5.01411 0.0770663 0)
(5.02278 0.0802136 0)
(5.03063 0.0848712 0)
(5.03849 0.0885335 0)
(4.91688 0.275818 0)
(4.90935 0.247798 0)
(4.91456 0.207931 0)
(4.92624 0.174171 0)
(4.92523 0.151931 0)
(4.91814 0.14315 0)
(4.92057 0.141555 0)
(4.93672 0.138028 0)
(4.96212 0.126158 0)
(4.98914 0.105905 0)
(5.0122 0.082477 0)
(5.02969 0.0625728 0)
(5.04359 0.05061 0)
(5.0554 0.0478317 0)
(5.06641 0.0519584 0)
(5.07653 0.0597178 0)
(5.08649 0.0673909 0)
(5.09622 0.0727559 0)
(5.00229 0.279909 0)
(4.98026 0.226576 0)
(4.97687 0.183475 0)
(4.9763 0.162397 0)
(4.97331 0.149812 0)
(4.98021 0.137172 0)
(4.99863 0.126822 0)
(5.01833 0.12266 0)
(5.0303 0.12151 0)
(5.0316 0.116504 0)
(5.02435 0.104367 0)
(5.01341 0.0875832 0)
(5.00434 0.0714135 0)
(5.00035 0.0608153 0)
(5.00263 0.0567969 0)
(5.01032 0.0580062 0)
(5.02252 0.0603532 0)
(5.03776 0.0611182 0)
(4.9635 0.289467 0)
(4.96122 0.260892 0)
(4.97131 0.206748 0)
(4.9784 0.164614 0)
(4.97615 0.13169 0)
(4.97137 0.108068 0)
(4.97269 0.0974136 0)
(4.98356 0.0987763 0)
(5.00241 0.104253 0)
(5.0252 0.104448 0)
(5.04673 0.0951205 0)
(5.06294 0.0783887 0)
(5.07297 0.0595067 0)
(5.07845 0.0436833 0)
(5.0824 0.0328576 0)
(5.08684 0.0265997 0)
(5.09397 0.0222133 0)
(5.10342 0.0174189 0)
(5.02361 0.252684 0)
(5.03949 0.198295 0)
(5.03734 0.173691 0)
(5.0415 0.17571 0)
(5.03367 0.180399 0)
(5.01985 0.16238 0)
(5.01178 0.126477 0)
(5.01345 0.091384 0)
(5.02453 0.068652 0)
(5.04164 0.0579691 0)
(5.05856 0.0540755 0)
(5.06997 0.0530493 0)
(5.07467 0.0528012 0)
(5.07506 0.0520285 0)
(5.07516 0.0492284 0)
(5.07753 0.0435949 0)
(5.08394 0.0346099 0)
(5.09347 0.0232535 0)
(4.96944 0.296836 0)
(4.96253 0.259827 0)
(4.94833 0.191909 0)
(4.95781 0.150918 0)
(4.98968 0.135637 0)
(5.02583 0.120294 0)
(5.04772 0.0959108 0)
(5.05385 0.069308 0)
(5.05248 0.0498435 0)
(5.04983 0.0414073 0)
(5.04884 0.0413825 0)
(5.0507 0.0437478 0)
(5.05588 0.0426438 0)
(5.06419 0.0342101 0)
(5.07573 0.0184136 0)
(5.08962 -0.00184259 0)
(5.10558 -0.0234723 0)
(5.12076 -0.0413221 0)
(4.99708 0.311311 0)
(5.02393 0.238297 0)
(5.03 0.16808 0)
(5.02465 0.115848 0)
(5.02823 0.0895354 0)
(5.04344 0.0843951 0)
(5.06032 0.0877335 0)
(5.07189 0.0881326 0)
(5.07824 0.081569 0)
(5.08125 0.0705014 0)
(5.08344 0.0582124 0)
(5.08714 0.0452109 0)
(5.09379 0.0305803 0)
(5.10299 0.0131093 0)
(5.11314 -0.00678455 0)
(5.12115 -0.0258909 0)
(5.12633 -0.0414912 0)
(5.12883 -0.0496561 0)
(5.08014 0.211046 0)
(5.0603 0.246947 0)
(5.06649 0.208603 0)
(5.06664 0.140442 0)
(5.05118 0.093493 0)
(5.04015 0.0690304 0)
(5.04711 0.0527804 0)
(5.06967 0.0405726 0)
(5.1002 0.0339769 0)
(5.13016 0.0314049 0)
(5.15346 0.0280067 0)
(5.16884 0.0203408 0)
(5.17822 0.00824397 0)
(5.18303 -0.00607833 0)
(5.18494 -0.0205287 0)
(5.18604 -0.0338681 0)
(5.18647 -0.0459206 0)
(5.18646 -0.0559098 0)
(5.03603 0.328447 0)
(5.08263 0.251551 0)
(5.12226 0.17088 0)
(5.11927 0.135581 0)
(5.09538 0.119906 0)
(5.07767 0.0961844 0)
(5.0729 0.0602775 0)
(5.07941 0.0275758 0)
(5.09733 0.00954312 0)
(5.12325 0.00651414 0)
(5.15042 0.0111735 0)
(5.17293 0.0148935 0)
(5.18765 0.0123846 0)
(5.1944 0.00297075 0)
(5.19404 -0.0107631 0)
(5.18776 -0.0255525 0)
(5.17875 -0.0388531 0)
(5.16927 -0.0487301 0)
(5.01925 0.261951 0)
(5.02061 0.196167 0)
(5.02445 0.176959 0)
(5.04222 0.157952 0)
(5.0821 0.125362 0)
(5.13006 0.0857137 0)
(5.16857 0.0434664 0)
(5.18897 0.00529455 0)
(5.19714 -0.0209493 0)
(5.20564 -0.0331413 0)
(5.22081 -0.0341785 0)
(5.24108 -0.0286019 0)
(5.26209 -0.020817 0)
(5.27842 -0.0145513 0)
(5.28728 -0.0124937 0)
(5.28885 -0.0152199 0)
(5.28571 -0.0223675 0)
(5.27994 -0.0331744 0)
(4.9779 0.31007 0)
(4.97684 0.237336 0)
(5.01725 0.168107 0)
(5.09469 0.110262 0)
(5.16777 0.0673681 0)
(5.21282 0.0383147 0)
(5.22758 0.0180341 0)
(5.22256 0.00365433 0)
(5.21162 -0.00717294 0)
(5.20343 -0.0168181 0)
(5.20265 -0.0244368 0)
(5.21038 -0.0283639 0)
(5.22449 -0.0280259 0)
(5.24122 -0.0245197 0)
(5.2578 -0.0206825 0)
(5.27217 -0.0191892 0)
(5.28452 -0.0221692 0)
(5.29468 -0.0301301 0)
(4.92614 0.202012 0)
(5.01494 0.158027 0)
(5.11965 0.0954134 0)
(5.19259 0.0505629 0)
(5.22942 0.030895 0)
(5.24951 0.0252538 0)
(5.263 0.0215952 0)
(5.26989 0.0113079 0)
(5.27021 -0.00672357 0)
(5.26885 -0.027392 0)
(5.27011 -0.0445818 0)
(5.27557 -0.0543096 0)
(5.28619 -0.0561614 0)
(5.30137 -0.0526865 0)
(5.32003 -0.0483569 0)
(5.33973 -0.0468543 0)
(5.35952 -0.0501094 0)
(5.37666 -0.0586006 0)
(4.93057 0.187136 0)
(5.008 0.114146 0)
(5.10269 0.0933028 0)
(5.16182 0.0728678 0)
(5.17876 0.044277 0)
(5.19106 0.0223733 0)
(5.22569 0.0100928 0)
(5.28032 0.00360645 0)
(5.33798 -0.00295325 0)
(5.37954 -0.0127982 0)
(5.39524 -0.0257324 0)
(5.38799 -0.0380753 0)
(5.36876 -0.0467113 0)
(5.34941 -0.0512727 0)
(5.3385 -0.0534441 0)
(5.33847 -0.0550851 0)
(5.34841 -0.0577556 0)
(5.36421 -0.0613243 0)
(5.01204 0.139786 0)
(5.09935 0.0325572 0)
(5.22743 0.0184613 0)
(5.31378 0.0135681 0)
(5.34928 0.00467357 0)
(5.3635 -0.0129333 0)
(5.37843 -0.0375279 0)
(5.39846 -0.0590759 0)
(5.41736 -0.0687522 0)
(5.43025 -0.0651006 0)
(5.43638 -0.0530025 0)
(5.43823 -0.040495 0)
(5.43973 -0.0340204 0)
(5.4441 -0.0361074 0)
(5.45247 -0.0458841 0)
(5.46308 -0.0603406 0)
(5.47419 -0.0765897 0)
(5.48182 -0.0916178 0)
(5.04578 0.163379 0)
(5.17411 0.0621435 0)
(5.31097 0.0381316 0)
(5.37593 0.0294962 0)
(5.4276 0.018602 0)
(5.4829 0.00319788 0)
(5.52361 -0.0085863 0)
(5.53818 -0.0162056 0)
(5.53496 -0.0210095 0)
(5.53003 -0.0246395 0)
(5.53475 -0.0289626 0)
(5.55173 -0.0351937 0)
(5.57666 -0.0432365 0)
(5.60263 -0.0521046 0)
(5.62327 -0.0601878 0)
(5.63499 -0.0664221 0)
(5.63688 -0.0701118 0)
(5.62963 -0.0717395 0)
(5.00147 0.0330438 0)
(5.25184 -0.0453773 0)
(5.35402 -0.0310232 0)
(5.38786 -0.0382098 0)
(5.41118 -0.0511694 0)
(5.4292 -0.0588196 0)
(5.44423 -0.0613384 0)
(5.46123 -0.0619543 0)
(5.48096 -0.0630639 0)
(5.49938 -0.0646744 0)
(5.51117 -0.0660159 0)
(5.51267 -0.0669163 0)
(5.50158 -0.067693 0)
(5.47825 -0.0686251 0)
(5.44434 -0.0697722 0)
(5.40485 -0.071225 0)
(5.36253 -0.0730943 0)
(5.32337 -0.0759023 0)
(4.93459 0.069916 0)
(5.05739 -0.00492901 0)
(5.03959 0.0069565 0)
(4.95372 -0.000196751 0)
(4.85561 -0.00597147 0)
(4.7522 -0.012038 0)
(4.63842 -0.0217034 0)
(4.51125 -0.0314508 0)
(4.37528 -0.0370931 0)
(4.23827 -0.0376182 0)
(4.10681 -0.0345083 0)
(3.98519 -0.0299197 0)
(3.87386 -0.0256232 0)
(3.77143 -0.022765 0)
(3.67422 -0.0219248 0)
(3.58017 -0.0229128 0)
(3.48579 -0.02549 0)
(3.39065 -0.0291015 0)
(-0.0903198 0.24473 2.3983e-20)
(-0.283692 0.184234 -2.37911e-20)
(-0.418794 0.131068 0)
(-0.484912 0.0621539 0)
(-0.484143 -0.00780842 0)
(-0.438404 -0.0656376 2.30758e-20)
(-0.348204 -0.119506 0)
(-0.213422 -0.167324 0)
(-0.0421681 -0.201882 0)
(0.161515 -0.221966 0)
(0.381657 -0.230282 -2.22437e-20)
(0.604134 -0.2291 0)
(0.823723 -0.219932 0)
(1.03596 -0.205387 0)
(1.23571 -0.187917 0)
(1.42066 -0.169626 -2.1262e-20)
(1.59054 -0.151689 0)
(1.7459 -0.134695 0)
(1.88757 -0.118834 0)
(2.01633 -0.103934 0)
(2.13285 -0.0897342 0)
(2.23734 -0.0757446 0)
(2.32974 -0.0616048 0)
(2.40944 -0.046722 -1.97406e-20)
(2.47518 -0.0307325 1.95653e-20)
(2.52614 -0.0131633 -1.93945e-20)
(2.55877 0.00685295 -1.92287e-20)
(2.57422 0.0289246 0)
(2.56419 0.0553148 0)
(2.52783 0.0835047 1.87634e-20)
(2.46068 0.118661 1.86201e-20)
(2.35787 0.152313 0)
(2.223 0.193463 0)
(2.03563 0.231453 1.82226e-20)
(1.82784 0.267967 0)
(1.54176 0.317984 0)
(1.25709 0.304714 -1.78351e-20)
(0.914537 0.400879 0)
(0.473252 0.306611 -1.75398e-20)
(0.211072 -0.116076 -3.47587e-20)
(0.0933809 -0.321765 0)
(0.00313251 -0.198872 0)
(-0.082688 0.0262537 0)
(-0.152568 0.153183 0)
(-0.242805 0.187437 0)
(-0.361587 0.167759 -3.27708e-20)
(-0.481248 0.127212 -3.24265e-20)
(-0.567176 0.0741202 -3.2105e-20)
(-0.600823 0.0183339 0)
(-0.580563 -0.0319095 3.15314e-20)
(-0.515386 -0.0709258 0)
(-0.413936 -0.090673 -3.10291e-20)
(-0.277654 -0.0917661 -3.07909e-20)
(-0.0970288 -0.063472 0)
(0.105207 0.00591825 0)
(0.239726 0.0550254 0)
(0.273105 0.0278254 -2.97917e-20)
(0.319175 -0.0390571 0)
(0.452767 -0.0685733 0)
(0.61305 0.0087838 0)
(0.77571 0.105563 0)
(0.939634 -0.0198659 0)
(1.0464 -0.378668 0)
(1.06269 -0.493264 0)
(0.875672 -0.0832617 0)
(0.24528 0.428597 2.72865e-20)
(-0.533415 0.530095 0)
(-1.21127 0.475729 0)
(-1.80432 0.409463 -2.60731e-20)
(-2.30879 0.344655 -2.55813e-20)
(-2.73704 0.288254 0)
(-3.10054 0.24114 2.46038e-20)
(-3.411 0.20291 -2.41346e-20)
(-3.67795 0.172156 0)
(-3.90924 0.147448 2.32504e-20)
(-4.11087 0.127378 0)
(-4.28734 0.110629 0)
(-4.44164 0.0960672 -2.20685e-20)
(-4.57557 0.0828915 0)
(-4.69013 0.0705538 2.138e-20)
(-4.78563 0.0586503 0)
(-4.86199 0.0469226 -2.07759e-20)
(-4.91892 0.0353549 -2.05068e-20)
(-4.95614 0.0241424 -2.02599e-20)
(-4.97368 0.0133336 -4.00697e-20)
(-4.97169 0.00312426 3.96607e-20)
(-4.95238 -0.00609713 0)
(-4.91603 -0.0145836 0)
(-4.86391 -0.0222596 0)
(-4.7973 -0.0290986 3.83839e-20)
(-4.71758 -0.0351344 3.81344e-20)
(-4.62604 -0.0404372 -3.79041e-20)
(-4.52379 -0.045135 0)
(-4.41165 -0.0494035 3.74871e-20)
(-4.29008 -0.0534348 3.72949e-20)
(-4.15913 -0.0574246 3.71112e-20)
(-4.01847 -0.0615423 0)
(-3.86746 -0.065906 0)
(-3.70532 -0.0705598 0)
(-3.53126 -0.0754549 3.64414e-20)
(-3.34474 -0.0804446 0)
(-3.14565 -0.0852937 0)
(-2.93447 -0.089711 -3.59727e-20)
(-2.71236 -0.0933967 0)
(-2.48115 -0.0960937 0)
(-2.24322 -0.0976308 -3.54536e-20)
(-2.00126 -0.0979439 0)
(-1.75797 -0.0970682 0)
(-1.51575 -0.0951175 3.47988e-20)
(-1.2768 -0.0922568 3.45429e-20)
(-1.04308 -0.0886774 0)
(-0.816151 -0.0846044 -3.39755e-20)
(-0.597189 -0.0801954 0)
(-0.387044 -0.0755219 3.33418e-20)
(-0.186297 -0.0705358 0)
(0.00386597 -0.0660119 3.26501e-20)
(0.18334 -0.0611167 3.22789e-20)
(0.352578 -0.0561335 0)
(0.510882 -0.0510433 0)
(0.657769 -0.0458453 0)
(0.79276 -0.0405489 0)
(0.915438 -0.0351866 0)
(1.02552 -0.0298394 0)
(1.12297 -0.0246407 0)
(1.20803 -0.0197045 2.91191e-20)
(1.28121 -0.0150855 -2.87197e-20)
(1.3432 -0.0108679 0)
(1.39495 -0.00711127 0)
(1.43746 -0.00360659 0)
(1.47127 -0.000108248 0)
(1.49677 0.00313599 -5.35198e-20)
(1.51468 0.00608555 0)
(1.52485 0.00969317 5.19993e-20)
(1.52529 0.014276 -5.12499e-20)
(1.51561 0.018747 0)
(1.49619 0.0221618 0)
(1.46814 0.0242231 0)
(1.43319 0.0249793 4.83208e-20)
(1.39321 0.0246581 4.76046e-20)
(1.35003 0.0235374 0)
(1.3054 0.0218558 4.61898e-20)
(1.26085 0.0197985 4.5491e-20)
(1.21767 0.0175342 -4.47978e-20)
(1.17685 0.0152289 0)
(1.13905 0.0130263 0)
(1.10462 0.0110264 -4.27512e-20)
(1.07364 0.00927516 0)
(1.04599 0.00777316 0)
(1.02148 0.00649698 0)
(0.999853 0.00541942 0)
(0.980828 0.00452063 3.94435e-20)
(0.964134 0.00378921 3.87961e-20)
(0.9495 0.0032169 0)
(0.936665 0.00279161 3.75147e-20)
(0.925375 0.00249411 0)
(0.915396 0.0022981 0)
(0.906507 0.00217562 3.56238e-20)
(0.898525 0.00210036 0)
(0.891272 0.00205273 3.4383e-20)
(0.884633 0.00201769 0)
(0.878454 0.00198931 0)
(0.872688 0.00196115 3.255e-20)
(0.867161 0.00193751 0)
(0.861908 0.00191621 3.13465e-20)
(0.856642 0.00191325 0)
(0.851539 0.00192629 0)
(0.846039 0.00199055 0)
(0.840593 0.00210889 -2.89831e-20)
(0.834076 0.00233824 0)
(0.827523 0.00260734 2.78233e-20)
(0.81875 0.00302911 0)
(0.809802 0.0034749 0)
(0.796984 0.00427173 0)
(0.783128 0.004951 0)
(0.764413 0.00661098 0)
(0.739048 0.00726654 0)
(0.716519 0.0114171 0)
(0.656454 0.00976141 -4.66864e-20)
(0.655502 0.0230256 0)
(0.484709 0.00921594 0)
(0.0426951 0.499778 -7.19639e-20)
(0.0318655 0.478377 7.14327e-20)
(0.0391482 0.279811 0)
(0.0474971 0.0757877 -4.69213e-20)
(0.0936708 -0.0920271 0)
(0.165192 -0.225734 -2.30884e-20)
(0.292771 -0.354994 4.58172e-20)
(0.452552 -0.474958 4.54474e-20)
(0.637585 -0.572658 0)
(0.830715 -0.636296 4.47014e-20)
(1.02025 -0.664708 2.21899e-20)
(1.201 -0.662986 0)
(1.37077 -0.639079 0)
(1.52826 -0.601777 0)
(1.67316 -0.558043 0)
(1.80637 -0.512758 2.12309e-20)
(1.92944 -0.468802 0)
(2.04399 -0.42752 -4.16285e-20)
(2.15129 -0.389193 0)
(2.25243 -0.353379 0)
(2.34784 -0.319278 4.05041e-20)
(2.43795 -0.285847 0)
(2.52221 -0.251972 -3.97754e-20)
(2.60047 -0.21653 1.97278e-20)
(2.67155 -0.178343 -1.9553e-20)
(2.73437 -0.136611 1.93824e-20)
(2.78827 -0.0898571 1.92165e-20)
(2.82976 -0.0381105 0)
(2.86167 0.0205093 0)
(2.88082 0.0849058 -1.87462e-20)
(2.88622 0.156466 1.85417e-20)
(2.87128 0.234243 0)
(2.84192 0.317077 0)
(2.78503 0.407739 -1.81839e-20)
(2.71431 0.493706 0)
(2.60771 0.591833 0)
(2.48102 0.661867 1.77735e-20)
(2.32947 0.737159 0)
(2.11631 0.776645 -1.74192e-20)
(1.92047 0.724003 3.46059e-20)
(1.56958 0.641919 0)
(1.04634 0.484287 0)
(0.67197 0.243382 6.75082e-20)
(0.409451 0.0910354 6.68648e-20)
(0.199537 0.110012 6.62177e-20)
(0.0610827 0.16756 -3.27624e-20)
(-0.0331317 0.165586 3.24601e-20)
(-0.0865313 0.100433 9.63672e-20)
(-0.0962655 0.00585443 -6.36305e-20)
(-0.0634893 -0.0936469 -3.15648e-20)
(0.0147301 -0.178538 0)
(0.111834 -0.249475 3.10425e-20)
(0.208917 -0.343579 -3.07536e-20)
(0.337242 -0.459436 0)
(0.519076 -0.469443 0)
(0.714624 -0.291187 0)
(0.824457 -0.116832 2.97566e-20)
(0.927003 -0.182391 0)
(1.15145 -0.348919 -5.83464e-20)
(1.40806 -0.404969 0)
(1.55228 -0.540524 -5.71695e-20)
(1.40827 -0.403908 0)
(0.7526 0.219446 5.61621e-20)
(-0.266819 0.818252 0)
(-1.10625 1.15322 -5.48464e-20)
(-1.76259 1.27676 2.69296e-20)
(-2.28482 1.19342 0)
(-2.71243 1.05319 5.25383e-20)
(-3.07588 0.901436 2.59921e-20)
(-3.38396 0.761856 2.55146e-20)
(-3.64761 0.641441 0)
(-3.87508 0.541364 2.43454e-20)
(-4.07348 0.459646 2.40972e-20)
(-4.24805 0.393155 0)
(-4.40284 0.3387 -2.32244e-20)
(-4.54051 0.293262 4.55182e-20)
(-4.66285 0.254168 0)
(-4.77081 0.219219 2.20529e-20)
(-4.86478 0.186749 0)
(-4.94462 0.155563 -6.40247e-20)
(-5.0099 0.124854 0)
(-5.06005 0.0941955 6.22287e-20)
(-5.09449 0.0635358 2.05009e-20)
(-5.11281 0.0331418 -2.01849e-20)
(-5.11466 0.00339094 -3.99304e-20)
(-5.1003 -0.0252597 3.95314e-20)
(-5.06848 -0.0521727 0)
(-5.02044 -0.0771081 0)
(-4.95704 -0.0997708 0)
(-4.87958 -0.12002 -1.15051e-19)
(-4.78943 -0.137896 -3.81267e-20)
(-4.68792 -0.153612 3.78965e-20)
(-4.57619 -0.167548 0)
(-4.45507 -0.180217 3.74299e-20)
(-4.32501 -0.192197 -3.72876e-20)
(-4.18603 -0.204071 -3.71039e-20)
(-4.03776 -0.216349 0)
(-3.87947 -0.229391 0)
(-3.71027 -0.243336 0)
(-3.52926 -0.258043 -3.64337e-20)
(-3.33577 -0.273074 0)
(-3.12961 -0.287717 7.21919e-20)
(-2.91119 -0.301082 1.07844e-19)
(-2.68168 -0.312247 -7.15576e-20)
(-2.44293 -0.320421 0)
(-2.19737 -0.32508 -3.54077e-20)
(-1.94772 -0.326039 0)
(-1.69666 -0.323425 -7.00265e-20)
(-1.44658 -0.31758 3.47648e-20)
(-1.19958 -0.309015 3.45122e-20)
(-0.957559 -0.298324 0)
(-0.721977 -0.286153 1.01893e-19)
(-0.493911 -0.27295 -6.73068e-20)
(-0.274044 -0.259048 -3.33395e-20)
(-0.0634726 -0.244681 0)
(0.137037 -0.230922 -3.26422e-20)
(0.327841 -0.216559 -9.67888e-20)
(0.508784 -0.201988 0)
(0.679197 -0.18719 -6.29843e-20)
(0.838496 -0.172147 -6.22005e-20)
(0.986044 -0.156897 -6.14096e-20)
(1.12123 -0.141559 0)
(1.24363 -0.126338 0)
(1.35314 -0.111499 0)
(1.4501 -0.097297 2.91051e-20)
(1.53533 -0.0839541 2.87103e-20)
(1.61008 -0.0716968 0)
(1.67574 -0.0606774 5.58318e-20)
(1.73348 -0.0507892 5.50472e-20)
(1.78456 -0.0417649 0)
(1.83032 -0.0334627 5.35005e-20)
(1.87109 -0.0255792 1.05465e-19)
(1.90672 -0.0173864 -5.19788e-20)
(1.93879 -0.00860866 -5.12219e-20)
(1.9676 0.000319056 0)
(1.99216 0.0089452 0)
(2.01141 0.016842 0)
(2.02466 0.0235312 -4.82917e-20)
(2.03162 0.0287639 4.75692e-20)
(2.03246 0.0323975 9.37194e-20)
(2.02777 0.0344501 -4.61556e-20)
(2.01846 0.0350654 4.54538e-20)
(2.00561 0.0344561 4.4762e-20)
(1.99036 0.0328942 0)
(1.97378 0.0306751 0)
(1.95681 0.0280767 -4.27152e-20)
(1.94015 0.025331 0)
(1.9243 0.0226089 0)
(1.90954 0.0200188 8.14349e-20)
(1.896 0.017616 0)
(1.88372 0.0154203 3.94105e-20)
(1.87266 0.0134308 -3.87634e-20)
(1.86278 0.0116383 0)
(1.85403 0.0100333 3.74837e-20)
(1.84636 0.0086087 0)
(1.83973 0.00735969 0)
(1.83411 0.00628118 -3.55945e-20)
(1.82948 0.00536555 6.9946e-20)
(1.8258 0.00460205 -3.4355e-20)
(1.82304 0.00397603 0)
(1.82112 0.00347439 0)
(1.82003 0.00308087 3.25239e-20)
(1.81963 0.00279116 0)
(1.81993 0.00259189 3.13214e-20)
(1.82071 0.00250229 0)
(1.82204 0.00249521 0)
(1.8235 0.00264028 0)
(1.82529 0.00285576 2.89602e-20)
(1.82669 0.00334444 0)
(1.82813 0.00386678 -2.78012e-20)
(1.82846 0.00497088 0)
(1.82825 0.00585911 0)
(1.8263 0.00808715 5.21794e-20)
(1.82207 0.00922191 -5.10541e-20)
(1.81688 0.0137881 0)
(1.80319 0.0145065 0)
(1.79655 0.0244673 0)
(1.75823 0.0221639 1.39929e-19)
(1.76324 0.0451696 0)
(1.65831 0.0339986 -8.90013e-20)
(0.0718007 0.134293 -4.63101e-23)
(0.192862 0.246911 -9.52678e-20)
(0.290468 0.145924 0)
(0.364438 -0.0215294 9.38035e-20)
(0.465363 -0.21811 0)
(0.609268 -0.434611 0)
(0.776645 -0.646875 1.96215e-23)
(0.941276 -0.81902 -4.53599e-20)
(1.08615 -0.931257 -4.49712e-20)
(1.20406 -0.980232 -4.46331e-20)
(1.29682 -0.975892 0)
(1.36854 -0.933957 0)
(1.42482 -0.870571 4.34645e-20)
(1.47188 -0.798869 8.61849e-20)
(1.51531 -0.727673 -8.54422e-20)
(1.55923 -0.661994 0)
(1.60618 -0.60386 -8.39608e-20)
(1.65746 -0.553256 4.16635e-20)
(1.71343 -0.508995 0)
(1.77387 -0.469249 -8.17515e-20)
(1.83813 -0.432047 -4.05513e-20)
(1.90539 -0.395415 8.02965e-20)
(1.97489 -0.357502 3.98255e-20)
(2.04536 -0.316743 0)
(2.11604 -0.271503 -7.81678e-20)
(2.18523 -0.220943 -7.74801e-20)
(2.25221 -0.163734 0)
(2.31513 -0.0999554 -7.61501e-20)
(2.37246 -0.0284698 0)
(2.42341 0.0498106 -7.48844e-20)
(2.46935 0.135107 -3.71805e-20)
(2.50889 0.228968 0)
(2.54332 0.329005 0)
(2.57165 0.438402 0)
(2.59531 0.547814 0)
(2.61401 0.664113 0)
(2.62236 0.770795 0)
(2.62299 0.864512 -7.01945e-20)
(2.5938 0.941079 1.04443e-19)
(2.54101 0.958707 0)
(2.44086 0.961239 0)
(2.26888 0.967407 0)
(2.08228 0.921329 -4.23062e-23)
(1.84602 0.819843 -6.66141e-20)
(1.54615 0.677889 -1.31985e-19)
(1.28044 0.511566 1.30717e-19)
(1.09819 0.34061 6.47224e-20)
(0.973226 0.166848 -6.40885e-20)
(0.88146 -0.0162129 -6.74103e-24)
(0.832022 -0.197859 -6.29628e-20)
(0.834059 -0.340312 0)
(0.86171 -0.394949 -6.19424e-20)
(0.899443 -0.415798 -2.886e-24)
(0.964337 -0.508549 0)
(1.01184 -0.569944 0)
(1.00591 -0.415977 6.00168e-20)
(1.0989 -0.246249 0)
(1.35652 -0.426931 0)
(1.50681 -0.798292 -5.84064e-20)
(1.34342 -0.635334 -1.15584e-19)
(0.636913 0.270703 5.72509e-20)
(-0.299082 1.07179 0)
(-1.12894 1.5572 -5.60479e-20)
(-1.80178 1.77966 0)
(-2.26999 1.84503 -5.40784e-20)
(-2.60377 1.77794 -5.40002e-20)
(-2.84536 1.61083 1.05691e-19)
(-3.05107 1.41046 5.16014e-20)
(-3.23732 1.21127 0)
(-3.41543 1.03291 -1.00701e-19)
(-3.58631 0.88097 0)
(-3.74992 0.754847 -1.46171e-19)
(-3.90541 0.651269 -9.55845e-20)
(-4.05202 0.566049 -9.39298e-20)
(-4.18939 0.494998 9.23165e-20)
(-4.31711 0.434304 -1.36277e-19)
(-4.43475 0.380681 0)
(-4.54166 0.331431 0)
(-4.63697 0.284437 8.64042e-20)
(-4.71953 0.238145 1.27759e-19)
(-4.78804 0.191598 0)
(-4.84123 0.144387 -4.14724e-20)
(-4.87795 0.0965309 0)
(-4.89726 0.0484062 1.21146e-19)
(-4.89871 0.000709352 2.05384e-22)
(-4.88222 -0.0457813 -1.92132e-22)
(-4.84822 -0.0901565 -7.83018e-20)
(-4.79762 -0.131374 0)
(-4.73173 -0.168785 7.70878e-20)
(-4.65208 -0.202067 1.2269e-22)
(-4.56029 -0.231249 0)
(-4.45791 -0.256713 0)
(-4.34625 -0.279136 0)
(-4.22629 -0.299416 -7.49206e-20)
(-4.09851 -0.318582 0)
(-3.96293 -0.337666 0)
(-3.81907 -0.357576 0)
(-3.66607 -0.37896 0)
(-3.50283 -0.402082 0)
(-3.3282 -0.426712 -7.27301e-20)
(-3.14132 -0.452085 0)
(-2.94182 -0.476947 -7.21892e-20)
(-2.73009 -0.499718 -7.18751e-20)
(-2.50734 -0.518761 7.15514e-20)
(-2.27558 -0.532693 0)
(-2.03739 -0.540634 7.08447e-20)
(-1.79557 -0.542327 0)
(-1.55275 -0.538059 7.00162e-20)
(-1.31114 -0.528409 -6.95465e-20)
(-1.07257 -0.51421 -2.07031e-19)
(-0.838608 -0.496474 0)
(-0.610351 -0.476307 -2.03662e-19)
(-0.388607 -0.454374 -6.72303e-20)
(-0.173889 -0.431426 0)
(0.0325589 -0.408396 -1.31879e-19)
(0.23043 -0.385158 -1.30437e-19)
(0.420204 -0.361393 1.93447e-19)
(0.601193 -0.337222 0)
(0.77274 -0.312488 6.29637e-20)
(0.934058 -0.28705 6.2181e-20)
(1.08422 -0.260874 1.84144e-19)
(1.22224 -0.234146 0)
(1.34708 -0.207362 0)
(1.45779 -0.181313 0)
(1.5537 -0.156852 5.81848e-20)
(1.63493 -0.134648 0)
(1.70273 -0.115073 0)
(1.75931 -0.0981008 -5.58227e-20)
(1.80734 -0.0833741 -5.50394e-20)
(1.84943 -0.070566 0)
(1.88755 -0.0592862 0)
(1.92287 -0.0487702 -1.05455e-19)
(1.95617 -0.0384418 0)
(1.98793 -0.0281983 1.02442e-19)
(2.0181 -0.0179492 1.00947e-19)
(2.04656 -0.00774212 0)
(2.07281 0.00209295 0)
(2.09605 0.0112329 -9.65654e-20)
(2.11554 0.0193065 -5.75762e-24)
(2.13071 0.0259203 -4.7544e-24)
(2.14139 0.0308428 0)
(2.1477 0.0339825 -1.8179e-19)
(2.15002 0.0353948 0)
(2.1489 0.0352684 0)
(2.14498 0.0339105 0)
(2.13896 0.0316904 8.5413e-20)
(2.13158 0.028964 0)
(2.12353 0.0260245 -1.65478e-19)
(2.11538 0.0230831 -8.14168e-20)
(2.10761 0.0202727 0)
(2.10052 0.0176665 -7.88026e-20)
(2.09427 0.0152985 0)
(2.08891 0.0131775 0)
(2.08442 0.0112933 -2.2485e-19)
(2.08072 0.00962199 1.47366e-19)
(2.07772 0.00813134 0)
(2.07531 0.00678902 1.42346e-19)
(2.07345 0.00556699 -6.99295e-20)
(2.0721 0.00444515 0)
(2.07128 0.00340994 0)
(2.07107 0.00245967 0)
(2.07154 0.00159137 -1.95098e-19)
(2.0728 0.000822523 0)
(2.07493 0.000152628 -6.26284e-20)
(2.07804 -0.000368002 0)
(2.08209 -0.000761107 0)
(2.08712 -0.000907194 0)
(2.09293 -0.000908249 0)
(2.09958 -0.000475269 0)
(2.10652 4.63587e-05 0)
(2.11414 0.00140617 -1.08877e-19)
(2.1211 0.00254091 0)
(2.12899 0.00546392 -5.21661e-20)
(2.13429 0.00715651 1.53115e-19)
(2.1421 0.0130326 0)
(2.14283 0.0148295 0)
(2.15151 0.0268001 -9.54152e-20)
(2.14167 0.0270624 -9.32514e-20)
(2.15534 0.0517615 9.10706e-20)
(2.12294 0.0477695 8.89685e-20)
(0.000426037 -0.0991735 1.44196e-19)
(0.0649576 -0.0227277 1.43146e-19)
(0.168691 -0.0774333 9.47044e-20)
(0.356374 -0.313592 4.69877e-20)
(0.567469 -0.608573 0)
(0.762541 -0.869207 -9.22456e-20)
(0.91015 -1.04944 4.57299e-20)
(0.996442 -1.13543 0)
(1.02443 -1.13771 4.49704e-20)
(1.00893 -1.08017 0)
(0.96989 -0.991983 -8.84479e-20)
(0.925035 -0.897609 0)
(0.887125 -0.812657 -4.35304e-20)
(0.862683 -0.743856 -8.63314e-20)
(0.853379 -0.691608 8.55978e-20)
(0.8584 -0.653017 0)
(0.876012 -0.624083 8.41241e-20)
(0.904329 -0.601036 0)
(0.94173 -0.58079 0)
(0.986753 -0.560917 8.19156e-20)
(1.03817 -0.539491 0)
(1.09509 -0.514878 -4.30002e-23)
(1.15703 -0.48559 0)
(1.22324 -0.450332 0)
(1.29326 -0.407781 3.5479e-23)
(1.36624 -0.357228 7.76318e-20)
(1.44144 -0.297849 7.69231e-20)
(1.51808 -0.229465 7.62931e-20)
(1.59552 -0.152117 0)
(1.67226 -0.0658013 1.50018e-19)
(1.74946 0.0285307 0)
(1.82779 0.130337 7.37646e-20)
(1.90442 0.235947 0)
(1.98192 0.346935 0)
(2.06051 0.458661 -7.19858e-20)
(2.14302 0.571969 0)
(2.22718 0.684738 7.08162e-20)
(2.31242 0.787698 2.6098e-23)
(2.39448 0.884889 -1.39274e-19)
(2.46511 0.959849 1.38053e-19)
(2.52083 1.01108 0)
(2.54431 1.04899 0)
(2.53751 1.05038 6.72497e-20)
(2.49941 1.00349 0)
(2.41922 0.920261 6.58433e-20)
(2.31898 0.803497 -6.51963e-20)
(2.21749 0.63873 -6.4544e-20)
(2.11238 0.42965 0)
(1.99857 0.218611 6.33538e-20)
(1.88578 0.00812556 6.28224e-20)
(1.79017 -0.208333 -1.24828e-19)
(1.68758 -0.336575 6.18336e-20)
(1.6084 -0.399448 6.1351e-20)
(1.58164 -0.530881 0)
(1.50497 -0.563467 0)
(1.4038 -0.394016 -5.99601e-20)
(1.51752 -0.497283 0)
(1.61724 -0.75492 0)
(1.03225 -0.2005 1.16838e-19)
(0.0165484 0.808553 1.15676e-19)
(-0.866487 1.54684 0)
(-1.57798 2.00603 0)
(-2.08851 2.23404 0)
(-2.422 2.26309 0)
(-2.63074 2.17375 1.08616e-19)
(-2.77695 2.0055 -1.06386e-19)
(-2.90003 1.80069 -1.05645e-19)
(-3.0243 1.59117 -2.07307e-19)
(-3.1541 1.39387 0)
(-3.28963 1.21686 6.82761e-22)
(-3.42756 1.06248 0)
(-3.56488 0.930232 9.72784e-20)
(-3.69956 0.817978 4.83191e-22)
(-3.83013 0.722647 9.39439e-20)
(-3.95565 0.640716 -9.23336e-20)
(-4.07516 0.568603 3.59655e-22)
(-4.18757 0.502965 0)
(-4.29153 0.440854 -8.74865e-20)
(-4.38539 0.379877 -8.64281e-20)
(-4.46732 0.318296 -1.69924e-19)
(-4.53537 0.255099 0)
(-4.58767 0.189969 8.24387e-20)
(-4.62259 0.123228 0)
(-4.63894 0.0555073 -1.61163e-19)
(-4.63621 -0.0120708 7.98467e-20)
(-4.61425 -0.0777536 -7.90465e-20)
(-4.57356 -0.140025 7.83297e-20)
(-4.51538 -0.197509 1.54961e-19)
(-4.44144 -0.249292 -7.71129e-20)
(-4.35378 -0.294911 7.65925e-20)
(-4.25452 -0.334441 0)