/*--------------------------------*- C++ -*----------------------------------*\
  =========                 |
  \\      /  F ield         | OpenFOAM: The Open Source CFD Toolbox
   \\    /   O peration     | Website:  https://openfoam.org
    \\  /    A nd           | Version:  7
     \\/     M anipulation  |
\*---------------------------------------------------------------------------*/
FoamFile
{
    version     2.0;
    format      ascii;
    class       volVectorField;
    location    "0.042";
    object      U;
}
// * * * * * * * * * * * * * * * * * * * * * * * * * * * * * * * * * * * * * //

dimensions      [0 1 -1 0 0 0 0];

internalField   nonuniform List<vector> 
12225
(
(4.70544 0.161283 0)
(4.25577 0.0966845 0)
(3.76764 0.102962 0)
(3.3325 0.0874984 0)
(2.95386 0.0712506 0)
(2.6122 0.0615678 0)
(2.29029 0.0545317 0)
(1.98959 0.046259 0)
(1.7185 0.0373792 0)
(1.48142 0.0300206 0)
(1.27632 0.0243832 0)
(1.1013 0.0192654 0)
(0.948417 0.0142768 0)
(0.821269 0.0100178 0)
(0.703689 0.00689764 0)
(0.617369 0.00493091 0)
(0.518052 0.00507553 0)
(0.46609 -0.00710133 0)
(4.98238 0.0791211 0)
(4.86955 0.0611651 0)
(4.81785 0.104614 0)
(4.7439 0.109786 0)
(4.61469 0.103388 0)
(4.46406 0.100665 0)
(4.31711 0.102921 0)
(4.17469 0.105668 0)
(4.02793 0.104851 0)
(3.87583 0.0997624 0)
(3.71959 0.0925664 0)
(3.56703 0.0859376 0)
(3.41392 0.0804593 0)
(3.27042 0.07518 0)
(3.1213 0.0699751 0)
(2.99884 0.0645508 0)
(2.85627 0.0631518 0)
(2.73452 0.0554233 0)
(5.07736 0.145867 0)
(4.88587 0.0873849 0)
(4.80228 0.117259 0)
(4.79533 0.136583 0)
(4.77496 0.143112 0)
(4.72913 0.140077 0)
(4.67945 0.133917 0)
(4.63907 0.129722 0)
(4.60541 0.127513 0)
(4.57072 0.125542 0)
(4.53059 0.122966 0)
(4.48601 0.120827 0)
(4.43851 0.119165 0)
(4.3877 0.118078 0)
(4.33147 0.115068 0)
(4.26698 0.110599 0)
(4.19705 0.112345 0)
(4.10741 0.111263 0)
(5.10141 0.186833 0)
(4.91372 0.13551 0)
(4.81048 0.129062 0)
(4.79111 0.13087 0)
(4.7898 0.13372 0)
(4.76942 0.132994 0)
(4.73765 0.130756 0)
(4.71332 0.129351 0)
(4.70419 0.128232 0)
(4.70456 0.126185 0)
(4.70654 0.123113 0)
(4.70476 0.119774 0)
(4.69968 0.117346 0)
(4.6892 0.116416 0)
(4.67564 0.116901 0)
(4.65207 0.118969 0)
(4.62542 0.126771 0)
(4.58707 0.135702 0)
(4.89053 0.219531 0)
(4.89685 0.133818 0)
(4.8505 0.12577 0)
(4.83298 0.13682 0)
(4.84047 0.14864 0)
(4.84072 0.153165 0)
(4.82571 0.147899 0)
(4.80541 0.137361 0)
(4.79005 0.127525 0)
(4.78001 0.121499 0)
(4.77089 0.119504 0)
(4.75947 0.120143 0)
(4.7471 0.122448 0)
(4.7349 0.125897 0)
(4.72518 0.130311 0)
(4.71472 0.135298 0)
(4.70549 0.143247 0)
(4.69478 0.152786 0)
(5.06177 0.225616 0)
(4.97517 0.153372 0)
(4.89178 0.131481 0)
(4.86159 0.133849 0)
(4.8559 0.13947 0)
(4.84982 0.142996 0)
(4.83886 0.143853 0)
(4.82581 0.142489 0)
(4.81273 0.139805 0)
(4.79865 0.136883 0)
(4.78293 0.134434 0)
(4.76719 0.132328 0)
(4.75416 0.130521 0)
(4.74496 0.12943 0)
(4.73924 0.129684 0)
(4.73464 0.131999 0)
(4.73071 0.138087 0)
(4.72618 0.147379 0)
(5.06823 0.238376 0)
(5.03173 0.186178 0)
(4.92045 0.156806 0)
(4.85065 0.148931 0)
(4.83548 0.155334 0)
(4.83766 0.161135 0)
(4.83424 0.157583 0)
(4.8216 0.147587 0)
(4.80592 0.138141 0)
(4.79328 0.13299 0)
(4.78683 0.131482 0)
(4.78715 0.131428 0)
(4.79255 0.131542 0)
(4.79899 0.13227 0)
(4.80277 0.134542 0)
(4.8007 0.138974 0)
(4.79358 0.14643 0)
(4.78149 0.155968 0)
(4.95535 0.241554 0)
(4.92158 0.194314 0)
(4.92128 0.169567 0)
(4.9176 0.15426 0)
(4.91349 0.14713 0)
(4.907 0.146148 0)
(4.88846 0.148514 0)
(4.85403 0.150306 0)
(4.81462 0.148853 0)
(4.78535 0.143859 0)
(4.77444 0.136718 0)
(4.7808 0.129709 0)
(4.79833 0.125189 0)
(4.81798 0.12501 0)
(4.83318 0.129557 0)
(4.83898 0.137823 0)
(4.83672 0.14889 0)
(4.82681 0.160811 0)
(5.0858 0.287714 0)
(5.05927 0.205928 0)
(5.00716 0.164092 0)
(4.95202 0.150667 0)
(4.91358 0.15782 0)
(4.89089 0.172765 0)
(4.87932 0.183426 0)
(4.8754 0.183085 0)
(4.8774 0.171769 0)
(4.88231 0.153517 0)
(4.88621 0.133877 0)
(4.88719 0.118182 0)
(4.88637 0.110266 0)
(4.88507 0.111714 0)
(4.88363 0.121395 0)
(4.881 0.136233 0)
(4.87659 0.15332 0)
(4.86961 0.168967 0)
(5.08516 0.269613 0)
(4.99054 0.237823 0)
(4.96334 0.193909 0)
(4.94414 0.180882 0)
(4.90269 0.174264 0)
(4.87013 0.16502 0)
(4.86441 0.155638 0)
(4.87842 0.148182 0)
(4.89919 0.14308 0)
(4.9162 0.139525 0)
(4.92319 0.136228 0)
(4.91954 0.132822 0)
(4.90831 0.130198 0)
(4.89357 0.130398 0)
(4.87824 0.134916 0)
(4.86409 0.143979 0)
(4.8518 0.156646 0)
(4.8422 0.17038 0)
(4.97322 0.285671 0)
(5.00033 0.254075 0)
(4.98898 0.188665 0)
(4.97828 0.17617 0)
(4.95847 0.185684 0)
(4.937 0.188418 0)
(4.91962 0.180372 0)
(4.90628 0.166444 0)
(4.89732 0.151669 0)
(4.89239 0.138668 0)
(4.88984 0.128549 0)
(4.88845 0.122622 0)
(4.88767 0.12213 0)
(4.88627 0.127827 0)
(4.88458 0.138965 0)
(4.88136 0.153455 0)
(4.87983 0.168909 0)
(4.87752 0.182273 0)
(4.90246 0.293369 0)
(4.934 0.240962 0)
(4.94758 0.190908 0)
(4.95373 0.187025 0)
(4.95276 0.193214 0)
(4.95681 0.188465 0)
(4.96251 0.174896 0)
(4.96199 0.161027 0)
(4.95567 0.151628 0)
(4.9475 0.145985 0)
(4.94042 0.141521 0)
(4.93522 0.137398 0)
(4.93232 0.134781 0)
(4.93057 0.135181 0)
(4.93097 0.139943 0)
(4.93206 0.148249 0)
(4.93635 0.159201 0)
(4.93996 0.170817 0)
(5.00141 0.272999 0)
(5.04834 0.231604 0)
(5.02902 0.189713 0)
(4.99076 0.17876 0)
(4.96125 0.179396 0)
(4.94607 0.179446 0)
(4.93425 0.176359 0)
(4.92293 0.169536 0)
(4.91816 0.158866 0)
(4.92242 0.145441 0)
(4.93321 0.132346 0)
(4.94511 0.123569 0)
(4.95493 0.121736 0)
(4.95986 0.126816 0)
(4.96138 0.136982 0)
(4.96083 0.149733 0)
(4.96118 0.163052 0)
(4.96378 0.1759 0)
(5.00316 0.254337 0)
(5.06312 0.225752 0)
(5.07036 0.217256 0)
(5.04013 0.221252 0)
(4.99004 0.221603 0)
(4.94922 0.211922 0)
(4.93191 0.192656 0)
(4.93934 0.169796 0)
(4.96361 0.149789 0)
(4.99052 0.13541 0)
(5.00825 0.127006 0)
(5.01181 0.124116 0)
(5.0031 0.125915 0)
(4.98695 0.131305 0)
(4.9696 0.138389 0)
(4.95607 0.146575 0)
(4.94939 0.153989 0)
(4.95098 0.161872 0)
(4.94839 0.215471 0)
(4.96971 0.198176 0)
(4.97992 0.201816 0)
(4.98664 0.219102 0)
(4.9861 0.226066 0)
(4.98788 0.209626 0)
(4.99825 0.176722 0)
(5.01791 0.143191 0)
(5.04083 0.120491 0)
(5.05746 0.112313 0)
(5.06202 0.117233 0)
(5.05528 0.131272 0)
(5.04162 0.148719 0)
(5.02634 0.164074 0)
(5.01349 0.17328 0)
(5.00522 0.176074 0)
(5.00259 0.173235 0)
(5.0036 0.168589 0)
(5.00178 0.267645 0)
(4.98694 0.228897 0)
(4.97366 0.211066 0)
(4.97321 0.217194 0)
(4.9864 0.224242 0)
(4.99714 0.20965 0)
(4.99891 0.173318 0)
(4.99768 0.135859 0)
(4.9967 0.115473 0)
(4.99388 0.115101 0)
(4.98891 0.126569 0)
(4.98488 0.140139 0)
(4.98528 0.149475 0)
(4.99152 0.152981 0)
(5.00299 0.152057 0)
(5.01668 0.149603 0)
(5.03066 0.147894 0)
(5.04101 0.148847 0)
(4.96479 0.243463 0)
(4.97092 0.229062 0)
(4.9751 0.195458 0)
(4.98368 0.194557 0)
(5.00878 0.197984 0)
(5.04291 0.19023 0)
(5.06598 0.169744 0)
(5.07218 0.145732 0)
(5.06478 0.129848 0)
(5.05019 0.12678 0)
(5.03631 0.132891 0)
(5.02842 0.14129 0)
(5.02777 0.146553 0)
(5.03251 0.147284 0)
(5.04118 0.145036 0)
(5.05144 0.142595 0)
(5.06314 0.141655 0)
(5.07405 0.143341 0)
(4.95897 0.224026 0)
(4.98057 0.203781 0)
(4.99384 0.195579 0)
(5.00546 0.182405 0)
(5.02256 0.162094 0)
(5.04456 0.142559 0)
(5.0577 0.133289 0)
(5.06114 0.13577 0)
(5.0591 0.14435 0)
(5.05494 0.151681 0)
(5.05356 0.152917 0)
(5.05871 0.147074 0)
(5.0705 0.135946 0)
(5.08625 0.122668 0)
(5.10384 0.110443 0)
(5.12071 0.101895 0)
(5.13675 0.0978006 0)
(5.14949 0.0991204 0)
(5.0748 0.157995 0)
(5.07068 0.164298 0)
(5.07674 0.169795 0)
(5.07949 0.161187 0)
(5.09904 0.153596 0)
(5.11916 0.1492 0)
(5.12287 0.148061 0)
(5.11798 0.147656 0)
(5.11634 0.144555 0)
(5.12253 0.137188 0)
(5.13714 0.125522 0)
(5.15828 0.110852 0)
(5.18218 0.0956298 0)
(5.20484 0.0829928 0)
(5.22427 0.075726 0)
(5.23922 0.0744748 0)
(5.25052 0.0788099 0)
(5.25741 0.086348 0)
(5.05062 0.190218 0)
(5.06513 0.199711 0)
(5.0373 0.191467 0)
(5.02229 0.13824 0)
(5.03053 0.107777 0)
(5.05661 0.113963 0)
(5.08612 0.135576 0)
(5.11279 0.147414 0)
(5.13777 0.13856 0)
(5.16044 0.113677 0)
(5.17898 0.0835573 0)
(5.19307 0.0572441 0)
(5.20416 0.039656 0)
(5.21382 0.0319138 0)
(5.22374 0.0334233 0)
(5.23453 0.0421184 0)
(5.24643 0.0558469 0)
(5.25909 0.0726034 0)
(5.00555 0.229203 0)
(5.03473 0.225008 0)
(5.03112 0.218383 0)
(5.0309 0.155211 0)
(5.04163 0.0966723 0)
(5.0627 0.070441 0)
(5.09204 0.0661062 0)
(5.12416 0.0682205 0)
(5.1542 0.0689392 0)
(5.17766 0.0666915 0)
(5.19225 0.0617453 0)
(5.19878 0.0541868 0)
(5.20025 0.044408 0)
(5.19984 0.0339407 0)
(5.20083 0.0252409 0)
(5.20535 0.0208061 0)
(5.21448 0.0213832 0)
(5.22829 0.0277887 0)
(4.99757 0.273519 0)
(5.07488 0.22678 0)
(5.11001 0.186004 0)
(5.14199 0.134984 0)
(5.16552 0.0910039 0)
(5.17665 0.0710465 0)
(5.18116 0.070703 0)
(5.18583 0.0759498 0)
(5.19542 0.0766473 0)
(5.21017 0.0713376 0)
(5.22724 0.0631587 0)
(5.24302 0.0546039 0)
(5.25524 0.0462666 0)
(5.26317 0.0377925 0)
(5.26816 0.029411 0)
(5.27239 0.022631 0)
(5.278 0.0183504 0)
(5.28655 0.0190348 0)
(5.0414 0.298598 0)
(5.06126 0.211877 0)
(5.07307 0.142581 0)
(5.09401 0.0881004 0)
(5.12769 0.0542178 0)
(5.16148 0.0429701 0)
(5.19025 0.0417153 0)
(5.21267 0.0385962 0)
(5.23057 0.0304772 0)
(5.24686 0.0209062 0)
(5.26326 0.0144445 0)
(5.27965 0.0121447 0)
(5.29491 0.0119849 0)
(5.30711 0.011098 0)
(5.31458 0.0076648 0)
(5.31731 0.00245704 0)
(5.31706 -0.00360597 0)
(5.31648 -0.00786454 0)
(5.06404 0.288074 0)
(5.07038 0.230176 0)
(5.12083 0.164815 0)
(5.18174 0.106328 0)
(5.22019 0.0551487 0)
(5.23532 0.0331807 0)
(5.24644 0.0378473 0)
(5.26769 0.0490101 0)
(5.30032 0.0520028 0)
(5.33761 0.0453418 0)
(5.37134 0.0342157 0)
(5.39622 0.0246468 0)
(5.41121 0.019479 0)
(5.41826 0.0186727 0)
(5.42104 0.0201024 0)
(5.42242 0.0211874 0)
(5.42499 0.0196635 0)
(5.42926 0.015209 0)
(5.04115 0.348078 0)
(5.01802 0.204856 0)
(5.07779 0.0743665 0)
(5.16403 0.0209324 0)
(5.21343 0.00861714 0)
(5.23577 0.00869718 0)
(5.25906 0.00212631 0)
(5.2938 -0.0137639 0)
(5.33561 -0.0308132 0)
(5.37518 -0.0400619 0)
(5.40501 -0.0375696 0)
(5.42285 -0.0261395 0)
(5.43133 -0.0125418 0)
(5.4356 -0.00241841 0)
(5.44003 0.000603293 0)
(5.44592 -0.00292037 0)
(5.45433 -0.0107713 0)
(5.46449 -0.019583 0)
(4.8992 0.315685 0)
(5.10907 0.199507 0)
(5.2452 0.0969834 0)
(5.32479 0.0458989 0)
(5.36324 0.0196425 0)
(5.38729 0.00657937 0)
(5.40641 0.000573314 0)
(5.41634 -0.00373287 0)
(5.41224 -0.00761278 0)
(5.39893 -0.00927039 0)
(5.3872 -0.00655454 0)
(5.38509 -7.37669e-05 0)
(5.39548 0.00722826 0)
(5.41586 0.0120986 0)
(5.44166 0.0120526 0)
(5.4686 0.00743316 0)
(5.49375 -0.000268911 0)
(5.5147 -0.00848808 0)
(5.01245 0.192441 0)
(5.19641 0.0371211 0)
(5.33772 -0.0192702 0)
(5.3766 -0.02792 0)
(5.3668 -0.0289571 0)
(5.36179 -0.0259515 0)
(5.37107 -0.0206551 0)
(5.38716 -0.0188041 0)
(5.40485 -0.0216882 0)
(5.42264 -0.026185 0)
(5.44082 -0.0300397 0)
(5.46049 -0.0327244 0)
(5.48257 -0.0348585 0)
(5.50626 -0.0376216 0)
(5.52925 -0.0412505 0)
(5.54902 -0.0455944 0)
(5.56472 -0.0506051 0)
(5.57597 -0.0553025 0)
(5.07022 0.208596 0)
(5.21967 0.0763923 0)
(5.3309 0.0441872 0)
(5.37634 0.0324801 0)
(5.39964 0.015261 0)
(5.43361 -0.000191546 0)
(5.47574 -0.00999041 0)
(5.51766 -0.0167429 0)
(5.55408 -0.0221049 0)
(5.58227 -0.025566 0)
(5.60217 -0.0263488 0)
(5.61626 -0.0249068 0)
(5.62791 -0.022538 0)
(5.63937 -0.0204952 0)
(5.65097 -0.0195715 0)
(5.66195 -0.0201562 0)
(5.67155 -0.0224384 0)
(5.67938 -0.0266612 0)
(5.02767 0.0161375 0)
(5.25409 -0.0453297 0)
(5.35989 -0.0410139 0)
(5.41901 -0.0507654 0)
(5.46016 -0.0606466 0)
(5.4846 -0.0628168 0)
(5.49564 -0.0598491 0)
(5.50219 -0.0571625 0)
(5.509 -0.0556402 0)
(5.51518 -0.0537799 0)
(5.51885 -0.0513677 0)
(5.52088 -0.0497366 0)
(5.52306 -0.050024 0)
(5.52695 -0.052147 0)
(5.53101 -0.0552622 0)
(5.53376 -0.058535 0)
(5.53223 -0.0615162 0)
(5.52644 -0.0643897 0)
(4.96551 0.0800446 0)
(5.14903 0.00910926 0)
(5.12552 0.00304577 0)
(5.00198 -0.0120596 0)
(4.85946 -0.0173439 0)
(4.73159 -0.0154093 0)
(4.61972 -0.0159349 0)
(4.51109 -0.0211938 0)
(4.39907 -0.0267339 0)
(4.28761 -0.0288338 0)
(4.18317 -0.0278382 0)
(4.08806 -0.0261727 0)
(3.99903 -0.0252478 0)
(3.91319 -0.0246703 0)
(3.82826 -0.0235755 0)
(3.74583 -0.0216634 0)
(3.66529 -0.019967 0)
(3.58776 -0.0198642 0)
(0.00532337 -0.0264728 1.36738e-20)
(0.0810924 -0.0943077 -1.35728e-20)
(0.196176 -0.125971 0)
(0.317677 -0.13666 0)
(0.442562 -0.139117 0)
(0.569547 -0.139244 1.31284e-20)
(0.6984 -0.139135 0)
(0.829395 -0.139208 0)
(0.962745 -0.139188 0)
(1.09819 -0.138552 0)
(1.23491 -0.136588 -1.25098e-20)
(1.37109 -0.132506 0)
(1.50418 -0.125322 0)
(1.63015 -0.114255 0)
(1.74502 -0.0983205 0)
(1.84255 -0.0770163 -1.18466e-20)
(1.91836 -0.0499647 0)
(1.965 -0.0169726 0)
(1.97995 0.0210113 0)
(1.9543 0.063105 0)
(1.88473 0.106568 0)
(1.76997 0.147028 0)
(1.61181 0.183388 0)
(1.41884 0.203132 -1.1136e-20)
(1.19892 0.209896 1.10812e-20)
(0.968703 0.19174 -1.10237e-20)
(0.751667 0.123707 -1.09609e-20)
(0.511061 0.133183 0)
(0.332135 0.177555 0)
(0.370085 0.00858907 1.07322e-20)
(0.510683 -0.284642 1.06506e-20)
(0.600197 -0.576604 0)
(0.602883 -0.56542 0)
(0.488798 -0.181259 1.03518e-20)
(0.109869 0.313678 0)
(-0.423167 0.485122 0)
(-0.934234 0.469021 -1.00783e-20)
(-1.40118 0.432325 0)
(-1.8313 0.390522 -9.7824e-21)
(-2.21959 0.349071 -1.92342e-20)
(-2.57017 0.310094 0)
(-2.88513 0.274416 0)
(-3.16778 0.2422 0)
(-3.42069 0.213261 0)
(-3.64619 0.187215 0)
(-3.84603 0.16354 -1.72593e-20)
(-4.02153 0.141652 -1.69706e-20)
(-4.17352 0.121107 -1.67001e-20)
(-4.30257 0.101661 0)
(-4.4092 0.0832395 1.62196e-20)
(-4.49392 0.0658037 0)
(-4.55722 0.0492696 -1.58261e-20)
(-4.59981 0.0337557 -1.56624e-20)
(-4.62248 0.019691 0)
(-4.62628 0.00722926 0)
(-4.61385 -0.00383624 0)
(-4.58597 -0.0136184 -1.52024e-20)
(-4.54433 -0.0223221 0)
(-4.48981 -0.0303059 0)
(-4.42332 -0.0376874 0)
(-4.34534 -0.0447255 0)
(-4.25601 -0.0516179 0)
(-4.15522 -0.0584616 0)
(-4.04278 -0.0652463 0)
(-3.91868 -0.0717649 0)
(-3.78346 -0.0776345 1.47743e-20)
(-3.63846 -0.082347 0)
(-3.48602 -0.0853994 0)
(-3.32931 -0.0864836 -1.46479e-20)
(-3.17179 -0.0856464 -1.45974e-20)
(-3.01647 -0.0833485 0)
(-2.86512 -0.0803736 1.44846e-20)
(-2.71785 -0.0776217 -1.44244e-20)
(-2.57321 -0.0758364 0)
(-2.42894 -0.0754011 1.4303e-20)
(-2.2825 -0.0763637 0)
(-2.13143 -0.0785818 0)
(-1.97363 -0.0817039 -1.41295e-20)
(-1.80794 -0.0851404 0)
(-1.63444 -0.0882184 1.40158e-20)
(-1.45436 -0.0903637 0)
(-1.26984 -0.091179 -1.38905e-20)
(-1.0835 -0.0904834 -1.38194e-20)
(-0.898045 -0.0883138 -1.37414e-20)
(-0.71602 -0.0848793 -2.73117e-20)
(-0.539642 -0.0804622 2.71256e-20)
(-0.370566 -0.0753627 0)
(-0.209939 -0.0698268 0)
(-0.0586366 -0.0640089 0)
(0.0821744 -0.0587753 2.62446e-20)
(0.213118 -0.0532177 2.59901e-20)
(0.33522 -0.0479069 -2.57297e-20)
(0.448193 -0.0428552 0)
(0.552371 -0.0380834 2.51965e-20)
(0.64813 -0.0336021 2.49259e-20)
(0.735869 -0.0294126 2.46536e-20)
(0.815999 -0.0255102 0)
(0.888928 -0.0218876 0)
(0.955063 -0.0185369 0)
(1.0148 -0.0154508 2.35616e-20)
(1.06855 -0.0126229 0)
(1.11668 -0.0100477 0)
(1.15961 -0.0077195 -2.27509e-20)
(1.19772 -0.0056315 0)
(1.2314 -0.00377471 0)
(1.26105 -0.00213768 -2.19547e-20)
(1.28704 -0.000705821 0)
(1.30974 0.000538993 0)
(1.32949 0.0016158 2.1176e-20)
(1.3466 0.00254539 2.09206e-20)
(1.36136 0.00334978 0)
(1.37401 0.00404427 -2.04161e-20)
(1.38476 0.00464556 0)
(1.39377 0.00516961 1.99198e-20)
(1.40119 0.00561262 0)
(1.40716 0.00598697 1.94317e-20)
(1.41176 0.00630305 1.91906e-20)
(1.41511 0.00653283 0)
(1.4173 0.00670197 0)
(1.41834 0.00685535 0)
(1.41838 0.0069382 0)
(1.41753 0.00693519 0)
(1.41589 0.00685275 0)
(1.41362 0.00669636 0)
(1.41084 0.00647495 1.73278e-20)
(1.4077 0.00620288 -1.71028e-20)
(1.4043 0.00589531 0)
(1.40073 0.00556479 0)
(1.39707 0.00522126 0)
(1.39338 0.0048739 0)
(1.38972 0.00453241 -3.20031e-20)
(1.38611 0.00420592 0)
(1.38256 0.00389948 3.11437e-20)
(1.37909 0.00361112 -3.07184e-20)
(1.37573 0.00333368 0)
(1.37247 0.00306372 0)
(1.36931 0.00280503 0)
(1.36623 0.00256541 2.90456e-20)
(1.36322 0.00235174 2.86343e-20)
(1.36027 0.00216081 0)
(1.35737 0.00199022 2.78197e-20)
(1.35453 0.00183823 2.74163e-20)
(1.35173 0.00170253 -2.70155e-20)
(1.34898 0.00158021 0)
(1.34627 0.00146778 0)
(1.34362 0.00136473 -2.5828e-20)
(1.34101 0.00127083 0)
(1.33845 0.00118792 0)
(1.33594 0.00111728 0)
(1.33345 0.00105958 0)
(1.33099 0.00101418 2.38977e-20)
(1.32853 0.000979359 2.35187e-20)
(1.32607 0.000953208 0)
(1.3236 0.000933968 2.27676e-20)
(1.3211 0.000920393 0)
(1.31858 0.000911621 0)
(1.31601 0.000907311 2.16578e-20)
(1.3134 0.000907371 0)
(1.31071 0.000912467 2.09289e-20)
(1.30796 0.000923347 0)
(1.30508 0.000942075 0)
(1.3021 0.00096991 1.98518e-20)
(1.29892 0.00101078 0)
(1.2956 0.00106498 1.91444e-20)
(1.29193 0.00114082 0)
(1.2881 0.00123528 0)
(1.28362 0.00136869 0)
(1.279 0.00152605 -1.77553e-20)
(1.2732 0.00176121 0)
(1.26727 0.00201276 1.7074e-20)
(1.25928 0.0024384 0)
(1.25108 0.0028299 0)
(1.23952 0.00366144 0)
(1.22672 0.00422234 0)
(1.20991 0.00605857 0)
(1.186 0.00662726 0)
(1.164 0.0113848 0)
(1.10782 0.0109714 -2.89281e-20)
(1.09337 0.0254455 0)
(0.928231 0.0185628 0)
(0.0266349 -0.153036 -4.10157e-20)
(0.118502 -0.320216 4.07033e-20)
(0.218774 -0.37431 0)
(0.318191 -0.386844 -2.66984e-20)
(0.419313 -0.389181 0)
(0.524332 -0.391509 -1.31262e-20)
(0.63443 -0.395912 2.60095e-20)
(0.750009 -0.401704 2.57677e-20)
(0.87087 -0.407317 0)
(0.996521 -0.410867 2.5263e-20)
(1.1258 -0.410198 1.25096e-20)
(1.25733 -0.402935 0)
(1.3881 -0.386349 0)
(1.51504 -0.358099 0)
(1.63265 -0.315865 0)
(1.73693 -0.258364 1.18478e-20)
(1.82007 -0.185426 0)
(1.87875 -0.0975393 -2.31351e-20)
(1.90401 0.00255941 0)
(1.89634 0.111962 0)
(1.85289 0.224947 2.25456e-20)
(1.77076 0.333903 0)
(1.64992 0.429068 -2.22839e-20)
(1.49714 0.507211 1.11287e-20)
(1.31364 0.561316 -1.10725e-20)
(1.11694 0.574215 1.10142e-20)
(0.937954 0.606287 1.09507e-20)
(0.81062 0.567623 0)
(0.794706 0.116643 0)
(0.687915 -0.351242 -1.07243e-20)
(0.375988 -0.12443 1.06678e-20)
(-0.215898 0.448625 0)
(-0.907587 0.796924 0)
(-1.43507 0.998001 -1.03232e-20)
(-1.84082 1.1172 0)
(-2.20112 1.10583 0)
(-2.51939 1.04211 1.0032e-20)
(-2.80903 0.955714 0)
(-3.0752 0.865087 -9.58026e-21)
(-3.31688 0.775958 1.91734e-20)
(-3.53762 0.693263 0)
(-3.73825 0.617646 0)
(-3.92099 0.5492 3.61094e-20)
(-4.08674 0.486942 3.54798e-20)
(-4.23648 0.429682 3.4868e-20)
(-4.37057 0.37617 -1.70452e-20)
(-4.48918 0.325353 1.69493e-20)
(-4.59213 0.276473 4.98764e-20)
(-4.6791 0.229109 -3.27066e-20)
(-4.74968 0.183132 -1.62062e-20)
(-4.80353 0.138594 0)
(-4.84058 0.0956751 1.58164e-20)
(-4.86115 0.0547971 -1.55291e-20)
(-4.86589 0.0166474 0)
(-4.85529 -0.0183387 0)
(-4.82911 -0.0503083 0)
(-4.7889 -0.0792265 1.51957e-20)
(-4.7352 -0.105408 0)
(-4.66927 -0.129367 -3.00572e-20)
(-4.59177 -0.151618 0)
(-4.50315 -0.172801 -2.98706e-20)
(-4.40352 -0.193467 0)
(-4.29264 -0.213922 2.97209e-20)
(-4.1702 -0.234072 0)
(-4.03601 -0.253265 -2.95831e-20)
(-3.89047 -0.270299 1.47443e-20)
(-3.73494 -0.283605 0)
(-3.57193 -0.29167 2.93551e-20)
(-3.40507 -0.293616 1.46422e-20)
(-3.23842 -0.289719 1.45921e-20)
(-3.07552 -0.281565 0)
(-2.91842 -0.271714 1.44563e-20)
(-2.76701 -0.263 1.442e-20)
(-2.61921 -0.257668 0)
(-2.47194 -0.256793 -1.42989e-20)
(-2.32213 -0.260406 2.84462e-20)
(-2.16692 -0.268008 0)
(-2.00381 -0.278518 1.41255e-20)
(-1.83139 -0.290062 0)
(-1.64979 -0.300461 -4.20087e-20)
(-1.46059 -0.307875 0)
(-1.26633 -0.311035 4.16417e-20)
(-1.07008 -0.309424 1.38161e-20)
(-0.874862 -0.303247 -1.37261e-20)
(-0.683397 -0.293226 -2.72866e-20)
(-0.49794 -0.280255 2.71049e-20)
(-0.320037 -0.265233 0)
(-0.150589 -0.249055 0)
(0.00890137 -0.232428 0)
(0.158378 -0.216523 -7.87016e-20)
(0.298884 -0.200466 -2.59827e-20)
(0.430568 -0.185026 2.57224e-20)
(0.553708 -0.170311 0)
(0.668698 -0.15638 2.51827e-20)
(0.775977 -0.143256 -2.49188e-20)
(0.875994 -0.130935 -2.46465e-20)
(0.969188 -0.119397 0)
(1.05597 -0.108618 0)
(1.13674 -0.0985675 0)
(1.21184 -0.0892181 -2.35539e-20)
(1.28161 -0.0805446 0)
(1.3464 -0.0725261 4.60197e-20)
(1.40651 -0.0651456 6.82244e-20)
(1.46226 -0.0583886 -4.49471e-20)
(1.51399 -0.0522393 0)
(1.56204 -0.0466787 -2.19429e-20)
(1.60673 -0.0416815 0)
(1.6484 -0.0372145 -4.28454e-20)
(1.68737 -0.0332372 2.11639e-20)
(1.72395 -0.0297024 2.09084e-20)
(1.75842 -0.0265561 0)
(1.79103 -0.023745 6.12142e-20)
(1.82199 -0.0212158 -4.03102e-20)
(1.85147 -0.0189163 -1.99085e-20)
(1.87963 -0.0168104 0)
(1.90655 -0.0148634 -1.94199e-20)
(1.93231 -0.0130438 -5.75346e-20)
(1.95695 -0.011352 0)
(1.98049 -0.00977069 -3.74024e-20)
(2.00302 -0.00826266 -3.69311e-20)
(2.02455 -0.0068725 -3.64634e-20)
(2.0451 -0.0056293 0)
(2.06467 -0.00453205 0)
(2.08325 -0.00358012 0)
(2.10086 -0.00277201 1.73138e-20)
(2.11754 -0.00209917 1.70891e-20)
(2.1333 -0.00154676 0)
(2.14819 -0.00109692 3.32872e-20)
(2.16222 -0.000734538 3.28467e-20)
(2.17544 -0.000448029 0)
(2.18787 -0.000221388 3.19754e-20)
(2.19955 -3.58338e-05 6.30883e-20)
(2.2105 0.00011578 -3.11161e-20)
(2.22074 0.00022948 -3.06909e-20)
(2.23032 0.000313119 0)
(2.23923 0.000391244 0)
(2.24747 0.000482537 0)
(2.25507 0.000585577 -2.90191e-20)
(2.26205 0.000679685 2.86081e-20)
(2.26843 0.000759799 5.63995e-20)
(2.27423 0.000826318 -2.77941e-20)
(2.27949 0.000880059 2.7391e-20)
(2.28423 0.000920914 2.69905e-20)
(2.28848 0.000947922 0)
(2.29227 0.000962888 0)
(2.29563 0.000973199 -2.58043e-20)
(2.29859 0.000974896 0)
(2.30117 0.000972271 0)
(2.3034 0.000968316 4.92803e-20)
(2.30531 0.000965666 0)
(2.30692 0.000965939 2.3876e-20)
(2.30826 0.000969656 -2.34974e-20)
(2.30935 0.000976928 0)
(2.31021 0.000987557 2.27472e-20)
(2.31084 0.00100165 0)
(2.31128 0.00102012 0)
(2.31152 0.00104468 -2.16387e-20)
(2.31159 0.00107746 4.25471e-20)
(2.31149 0.00112127 -2.09107e-20)
(2.31122 0.001178 0)
(2.31076 0.00125182 0)
(2.31014 0.00134328 1.98347e-20)
(2.30928 0.00146208 0)
(2.30822 0.00160443 1.9128e-20)
(2.30685 0.00179587 0)
(2.30525 0.00201521 0)
(2.30319 0.00233274 0)
(2.30085 0.00266852 1.77406e-20)
(2.2978 0.00321966 0)
(2.29434 0.00372126 -1.706e-20)
(2.28983 0.00473477 0)
(2.28447 0.00544632 0)
(2.27783 0.00745324 3.21131e-20)
(2.2687 0.00834366 -3.14552e-20)
(2.25933 0.0126676 0)
(2.2416 0.0134265 0)
(2.23034 0.0236082 0)
(2.1903 0.0232763 8.66945e-20)
(2.18458 0.0491425 0)
(2.08273 0.046003 -5.53441e-20)
(0.0397852 -0.331556 -8.64698e-24)
(0.114829 -0.512883 -5.4264e-20)
(0.183794 -0.546283 0)
(0.251543 -0.555282 5.33972e-20)
(0.323845 -0.566645 0)
(0.402512 -0.582752 0)
(0.487935 -0.601684 -6.8279e-25)
(0.579788 -0.621272 -2.57725e-20)
(0.677789 -0.639314 -2.55189e-20)
(0.781368 -0.653247 -2.52704e-20)
(0.889632 -0.65965 0)
(1.00137 -0.654542 0)
(1.11441 -0.633354 2.44316e-20)
(1.22549 -0.591696 4.82856e-20)
(1.32938 -0.525483 -4.77065e-20)
(1.42154 -0.43244 0)
(1.49459 -0.312001 -4.65913e-20)
(1.54449 -0.166205 2.31541e-20)
(1.56421 0.000817098 0)
(1.55196 0.179377 -4.5205e-20)
(1.50088 0.360875 -2.25607e-20)
(1.4115 0.535328 4.45741e-20)
(1.29017 0.688274 2.22965e-20)
(1.14937 0.810936 0)
(1.00267 0.888405 -4.40087e-20)
(0.854777 0.863882 -4.38608e-20)
(0.69166 0.679189 0)
(0.535841 0.402206 -4.35115e-20)
(0.217706 0.44241 0)
(-0.473595 0.849328 -4.28982e-20)
(-1.13445 1.1867 -2.12571e-20)
(-1.65058 1.40062 0)
(-2.07561 1.49784 0)
(-2.39383 1.55345 0)
(-2.64163 1.55592 0)
(-2.84069 1.49554 0)
(-3.01553 1.40266 0)
(-3.17975 1.29013 -3.87804e-20)
(-3.34111 1.17621 5.75138e-20)
(-3.50047 1.06563 0)
(-3.65875 0.963399 0)
(-3.81399 0.869375 0)
(-3.9651 0.783128 -3.10203e-22)
(-4.11004 0.703009 -3.54661e-20)
(-4.24706 0.627364 -6.94378e-20)
(-4.37412 0.554615 6.82769e-20)
(-4.48936 0.483534 3.34582e-20)
(-4.591 0.41332 -3.31881e-20)
(-4.67739 0.343619 2.38596e-22)
(-4.74717 0.27443 -3.20253e-20)
(-4.79935 0.206168 0)
(-4.83329 0.1397 -3.1287e-20)
(-4.84878 0.0758757 1.95783e-22)
(-4.8462 0.0152153 0)
(-4.82673 -0.0414885 0)
(-4.79154 -0.0936943 3.03343e-20)
(-4.74197 -0.141196 0)
(-4.67957 -0.184096 0)
(-4.60566 -0.223022 -2.98717e-20)
(-4.52137 -0.25904 -5.97569e-20)
(-4.42742 -0.29334 2.98691e-20)
(-4.32409 -0.327033 0)
(-4.21121 -0.360806 -2.97186e-20)
(-4.08835 -0.394563 0)
(-3.95503 -0.427171 -2.94969e-20)
(-3.81117 -0.456405 -2.95082e-20)
(-3.65756 -0.479276 5.8792e-20)
(-3.49631 -0.49277 2.92809e-20)
(-3.33094 -0.494942 0)
(-3.16595 -0.486044 -5.82501e-20)
(-3.00575 -0.469014 0)
(-2.85327 -0.448883 -8.67166e-20)
(-2.70871 -0.431256 -5.75305e-20)
(-2.56927 -0.420508 -5.72714e-20)
(-2.43051 -0.418553 5.70155e-20)
(-2.2882 -0.425156 -8.52092e-20)
(-2.13877 -0.439211 0)
(-1.97903 -0.458818 0)
(-1.80701 -0.480477 5.60962e-20)
(-1.6229 -0.499941 8.38729e-20)
(-1.42899 -0.513752 0)
(-1.22903 -0.519588 -2.77472e-20)
(-1.02737 -0.5166 0)
(-0.827864 -0.505449 8.23296e-20)
(-0.633641 -0.487592 3.50912e-23)
(-0.447057 -0.464802 -2.89043e-23)
(-0.269553 -0.43878 -5.37943e-20)
(-0.101928 -0.411071 0)
(0.0546581 -0.383542 5.29197e-20)
(0.200711 -0.356201 1.70935e-23)
(0.337373 -0.32967 0)
(0.464684 -0.304335 0)
(0.583105 -0.280398 0)
(0.693135 -0.257941 -5.03619e-20)
(0.795325 -0.236961 0)
(0.890259 -0.217408 0)
(0.978537 -0.199204 0)
(1.06074 -0.182264 0)
(1.13743 -0.166502 0)
(1.20907 -0.151851 -4.70916e-20)
(1.2761 -0.138258 0)
(1.33884 -0.125686 -4.60162e-20)
(1.3976 -0.114113 -4.54788e-20)
(1.45262 -0.10352 4.49445e-20)
(1.50417 -0.0938894 0)
(1.55249 -0.0852003 4.38864e-20)
(1.59787 -0.0774205 0)
(1.64059 -0.0705043 4.28436e-20)
(1.68094 -0.0643933 -4.23283e-20)
(1.71921 -0.0590152 -1.25444e-19)
(1.7557 -0.0542865 0)
(1.79064 -0.050121 -1.22416e-19)
(1.82425 -0.046428 -4.03029e-20)
(1.85672 -0.0431219 0)
(1.88818 -0.0401295 -7.86418e-20)
(1.91872 -0.037384 -7.7669e-20)
(1.94842 -0.034836 1.15058e-19)
(1.97732 -0.032451 0)
(2.00542 -0.0302063 3.74001e-20)
(2.03272 -0.0280959 3.69287e-20)
(2.05922 -0.0261145 1.0938e-19)
(2.08491 -0.024276 0)
(2.10979 -0.0225801 0)
(2.13383 -0.0210186 0)
(2.15704 -0.019587 3.46237e-20)
(2.17941 -0.0182798 0)
(2.20096 -0.0170859 0)
(2.22169 -0.0159909 -3.32839e-20)
(2.2416 -0.0149817 -3.28433e-20)
(2.26071 -0.0140476 0)
(2.27902 -0.0131751 0)
(2.29655 -0.0123485 -6.30808e-20)
(2.31331 -0.0115602 0)
(2.32931 -0.0108113 6.1374e-20)
(2.34455 -0.010098 6.05291e-20)
(2.35904 -0.00940613 0)
(2.3728 -0.00872144 0)
(2.38586 -0.00804096 -5.80296e-20)
(2.39822 -0.00738148 -1.07755e-25)
(2.40989 -0.00674895 -8.16356e-26)
(2.42088 -0.00614642 0)
(2.4312 -0.00557636 -1.09546e-19)
(2.44086 -0.00503843 0)
(2.44986 -0.00453079 0)
(2.45823 -0.00405484 0)
(2.46597 -0.00362115 5.15995e-20)
(2.4731 -0.00322083 0)
(2.47965 -0.00285178 -1.00085e-19)
(2.48565 -0.00251357 -4.92712e-20)
(2.49113 -0.00220039 0)
(2.49611 -0.00190889 -4.7743e-20)
(2.50064 -0.00163737 0)
(2.50473 -0.00138379 0)
(2.50842 -0.00114701 -1.36457e-19)
(2.51173 -0.000926036 8.94842e-20)
(2.5147 -0.000719752 0)
(2.51733 -0.000525774 8.65374e-20)
(2.51966 -0.000340787 -4.25387e-20)
(2.5217 -0.00015827 0)
(2.52347 2.7133e-05 0)
(2.52499 0.000226243 0)
(2.52626 0.000441781 -1.18984e-19)
(2.52729 0.000691735 0)
(2.52806 0.000968811 -3.82486e-20)
(2.5286 0.00131253 0)
(2.52884 0.00168775 0)
(2.52882 0.00219677 0)
(2.52841 0.00272276 0)
(2.52773 0.00353897 0)
(2.52643 0.00429258 0)
(2.52491 0.00571566 -6.68742e-20)
(2.52221 0.00679051 0)
(2.5196 0.00947997 -3.21063e-20)
(2.51445 0.0109562 9.43387e-20)
(2.51053 0.0164481 0)
(2.50072 0.0183691 0)
(2.49575 0.0304203 -5.90142e-20)
(2.47661 0.032973 -5.7776e-20)
(2.47269 0.0609645 5.65055e-20)
(2.4367 0.0667128 5.53277e-20)
(0.0334143 -0.479553 8.20726e-20)
(0.0776915 -0.631967 8.14468e-20)
(0.116669 -0.655746 5.3886e-20)
(0.156788 -0.674659 2.67477e-20)
(0.201646 -0.698707 0)
(0.250493 -0.726269 -5.25512e-20)
(0.303523 -0.755745 2.60609e-20)
(0.360325 -0.785677 0)
(0.420994 -0.814089 2.55324e-20)
(0.485617 -0.838066 0)
(0.553881 -0.85341 -5.00385e-20)
(0.625726 -0.854675 0)
(0.700478 -0.835581 -2.44543e-20)
(0.775671 -0.789046 -4.83356e-20)
(0.846246 -0.709183 4.7761e-20)
(0.908773 -0.591286 0)
(0.954822 -0.433646 4.66551e-20)
(0.982085 -0.239745 0)
(0.980723 -0.0114838 0)
(0.951915 0.23164 4.52723e-20)
(0.893879 0.472128 0)
(0.805774 0.690317 -2.50237e-22)
(0.68819 0.867244 0)
(0.543463 0.989546 0)
(0.366743 1.05084 2.25959e-22)
(0.143738 1.07521 4.39181e-20)
(-0.190013 1.15397 4.35056e-20)
(-0.668631 1.35978 4.34473e-20)
(-1.20975 1.62242 0)
(-1.70029 1.80392 8.51204e-20)
(-2.07188 1.90285 0)
(-2.36005 1.93991 4.14842e-20)
(-2.58345 1.92777 0)
(-2.76169 1.88759 0)
(-2.91134 1.81942 -3.99818e-20)
(-3.04821 1.7289 0)
(-3.18098 1.62569 3.89179e-20)
(-3.31325 1.51517 3.92744e-22)
(-3.44727 1.40493 -7.59769e-20)
(-3.58246 1.29673 7.44159e-20)
(-3.71865 1.19318 0)
(-3.85414 1.09399 0)
(-3.9876 0.998817 3.50596e-20)
(-4.11704 0.90647 0)
(-4.24049 0.815679 3.4572e-20)
(-4.35569 0.725128 -3.39993e-20)
(-4.46021 0.63375 -3.34527e-20)
(-4.55155 0.540986 0)
(-4.62751 0.446805 3.24605e-20)
(-4.68617 0.35173 3.20247e-20)
(-4.72573 0.256835 -6.26705e-20)
(-4.74514 0.163424 3.12911e-20)
(-4.74455 0.0725963 3.09946e-20)
(-4.72461 -0.0144021 0)
(-4.68619 -0.0950768 0)
(-4.63112 -0.168323 -3.03406e-20)
(-4.56128 -0.233614 0)
(-4.479 -0.291499 0)
(-4.38678 -0.343044 5.99426e-20)
(-4.28679 -0.389906 5.97723e-20)
(-4.18093 -0.433968 0)
(-4.07062 -0.476985 0)
(-3.95674 -0.520177 0)
(-3.83959 -0.56375 0)
(-3.7189 -0.606498 5.90876e-20)
(-3.59403 -0.645629 -5.88595e-20)
(-3.46429 -0.677044 -5.87968e-20)
(-3.32949 -0.696128 -1.17181e-19)
(-3.19062 -0.69921 0)
(-3.05015 -0.685517 8.57211e-23)
(-2.91172 -0.658667 0)
(-2.77891 -0.626332 5.77779e-20)
(-2.65312 -0.597835 1.15961e-22)
(-2.53174 -0.580778 5.72617e-20)
(-2.40906 -0.578455 -5.70042e-20)
(-2.27928 -0.590004 1.57852e-22)
(-2.13784 -0.613213 0)
(-1.98094 -0.645473 -5.61305e-20)
(-1.80616 -0.681373 -5.60788e-20)
(-1.6137 -0.713632 -1.11591e-19)
(-1.40705 -0.736263 0)
(-1.19247 -0.745455 5.53113e-20)
(-0.976896 -0.740187 0)
(-0.765737 -0.722376 -1.09653e-19)
(-0.562863 -0.694605 5.4534e-20)
(-0.370674 -0.659994 -5.41757e-20)
(-0.190108 -0.621357 5.3786e-20)
(-0.0219277 -0.580921 1.06665e-19)
(0.13408 -0.541154 -5.29024e-20)