/*--------------------------------*- C++ -*----------------------------------*\
  =========                 |
  \\      /  F ield         | OpenFOAM: The Open Source CFD Toolbox
   \\    /   O peration     | Website:  https://openfoam.org
    \\  /    A nd           | Version:  7
     \\/     M anipulation  |
\*---------------------------------------------------------------------------*/
FoamFile
{
    version     2.0;
    format      ascii;
    class       volVectorField;
    location    "0.042";
    object      UMean;
}
// * * * * * * * * * * * * * * * * * * * * * * * * * * * * * * * * * * * * * //

dimensions      [0 1 -1 0 0 0 0];

internalField   nonuniform List<vector> 
12225
(
(4.77869 0.163792 0)
(4.18829 0.110678 0)
(3.73205 0.0969259 0)
(3.37006 0.0798793 0)
(3.04879 0.0661906 0)
(2.75389 0.0560252 0)
(2.4863 0.0470334 0)
(2.25003 0.0386619 0)
(2.04865 0.0298189 0)
(1.88094 0.0224395 0)
(1.74911 0.0138799 0)
(1.64541 0.00943418 0)
(1.5752 0.000232189 0)
(1.52334 0.00220431 0)
(1.50025 -0.0127208 0)
(1.48921 0.00296217 0)
(1.50347 -0.0343179 0)
(1.54041 0.00237629 0)
(5.02258 0.112942 0)
(4.88032 0.072797 0)
(4.76514 0.0880048 0)
(4.6781 0.0864085 0)
(4.58954 0.0836731 0)
(4.49232 0.0826421 0)
(4.38809 0.0813873 0)
(4.28293 0.0777136 0)
(4.17908 0.0726391 0)
(4.08244 0.0645632 0)
(3.99099 0.0571308 0)
(3.91267 0.0459941 0)
(3.83896 0.039268 0)
(3.78457 0.0256126 0)
(3.72868 0.0228216 0)
(3.70175 0.00355291 0)
(3.66382 0.00184256 0)
(3.66291 -0.0395472 0)
(4.99509 0.171768 0)
(4.87907 0.121435 0)
(4.80265 0.128646 0)
(4.77356 0.121907 0)
(4.76027 0.113168 0)
(4.74783 0.108014 0)
(4.73404 0.103861 0)
(4.7194 0.0991203 0)
(4.70429 0.0918304 0)
(4.68822 0.0838885 0)
(4.67184 0.0729215 0)
(4.65475 0.063807 0)
(4.63925 0.0504537 0)
(4.62411 0.0428767 0)
(4.61383 0.027015 0)
(4.60454 0.0201719 0)
(4.60384 -0.00295843 0)
(4.60027 -0.0279813 0)
(4.99572 0.188044 0)
(4.90188 0.11868 0)
(4.82649 0.11621 0)
(4.79331 0.110726 0)
(4.78185 0.102055 0)
(4.77656 0.0960321 0)
(4.7741 0.0922494 0)
(4.7749 0.0878436 0)
(4.77865 0.0821635 0)
(4.78424 0.0744072 0)
(4.79064 0.0661011 0)
(4.79716 0.0559952 0)
(4.80414 0.0466367 0)
(4.81129 0.0350881 0)
(4.82074 0.0247223 0)
(4.83067 0.0102031 0)
(4.84553 -0.0073108 0)
(4.85684 -0.0325088 0)
(4.99447 0.214407 0)
(4.92499 0.143158 0)
(4.85781 0.132971 0)
(4.82276 0.126926 0)
(4.80933 0.116172 0)
(4.80304 0.106726 0)
(4.79962 0.0996511 0)
(4.79938 0.0932335 0)
(4.80272 0.0856673 0)
(4.80877 0.0771159 0)
(4.81674 0.0671844 0)
(4.82565 0.0569627 0)
(4.83572 0.0455759 0)
(4.84656 0.0340662 0)
(4.85921 0.0209656 0)
(4.87289 0.00564068 0)
(4.88858 -0.0129909 0)
(4.90216 -0.0400431 0)
(4.99011 0.228159 0)
(4.93875 0.155739 0)
(4.88112 0.136869 0)
(4.8469 0.128813 0)
(4.83317 0.117141 0)
(4.82765 0.105737 0)
(4.8249 0.0968139 0)
(4.8246 0.0890196 0)
(4.82736 0.0808193 0)
(4.83275 0.0715096 0)
(4.84013 0.0613 0)
(4.84864 0.0502633 0)
(4.85833 0.0386548 0)
(4.86871 0.0261709 0)
(4.88058 0.0124011 0)
(4.89284 -0.00356015 0)
(4.90615 -0.023118 0)
(4.91706 -0.0475094 0)
(4.99319 0.244955 0)
(4.95555 0.17377 0)
(4.90647 0.147379 0)
(4.87345 0.135987 0)
(4.85898 0.123255 0)
(4.85364 0.110228 0)
(4.85137 0.0992135 0)
(4.85114 0.0897909 0)
(4.85354 0.0804534 0)
(4.8584 0.0703863 0)
(4.86521 0.0594806 0)
(4.87311 0.0478306 0)
(4.88204 0.0355099 0)
(4.89141 0.0221836 0)
(4.90183 0.0076715 0)
(4.91205 -0.00908935 0)
(4.92278 -0.0283887 0)
(4.9307 -0.0512854 0)
(5.00155 0.253389 0)
(4.97661 0.186899 0)
(4.93694 0.155466 0)
(4.90614 0.14031 0)
(4.8908 0.126597 0)
(4.88494 0.112527 0)
(4.88266 0.099884 0)
(4.88228 0.0888102 0)
(4.88423 0.0782467 0)
(4.88855 0.0672781 0)
(4.89484 0.0556527 0)
(4.90218 0.0433719 0)
(4.9104 0.0304507 0)
(4.91878 0.0166179 0)
(4.92782 0.00157911 0)
(4.9362 -0.0152834 0)
(4.94475 -0.034161 0)
(4.95036 -0.0555213 0)
(5.00155 0.261192 0)
(4.98495 0.199426 0)
(4.95367 0.164615 0)
(4.92687 0.145681 0)
(4.91262 0.1305 0)
(4.90755 0.115325 0)
(4.90637 0.101079 0)
(4.90682 0.0883077 0)
(4.90889 0.076399 0)
(4.91271 0.064518 0)
(4.91818 0.052255 0)
(4.92466 0.0394397 0)
(4.93196 0.0260576 0)
(4.93936 0.0118437 0)
(4.94715 -0.00340066 0)
(4.95413 -0.0201241 0)
(4.96092 -0.0383422 0)
(4.96511 -0.0582014 0)
(4.99605 0.268183 0)
(4.98676 0.210723 0)
(4.9633 0.173745 0)
(4.9407 0.151174 0)
(4.92775 0.13398 0)
(4.92329 0.11778 0)
(4.92291 0.102491 0)
(4.92405 0.0885641 0)
(4.92635 0.0756268 0)
(4.92996 0.0629428 0)
(4.93491 0.0500152 0)
(4.94072 0.036624 0)
(4.94719 0.0227018 0)
(4.9537 0.00808481 0)
(4.96037 -0.00735652 0)
(4.96623 -0.0238613 0)
(4.97169 -0.0413854 0)
(4.97499 -0.0598841 0)
(4.98844 0.270294 0)
(4.98306 0.217305 0)
(4.96461 0.179643 0)
(4.94519 0.154496 0)
(4.933 0.135345 0)
(4.9282 0.117977 0)
(4.92759 0.101589 0)
(4.9288 0.0864364 0)
(4.93119 0.0724219 0)
(4.93473 0.0589555 0)
(4.93947 0.0455078 0)
(4.94496 0.0317716 0)
(4.95101 0.0176164 0)
(4.95688 0.00291359 0)
(4.96277 -0.0124264 0)
(4.96764 -0.0285236 0)
(4.97221 -0.0452785 0)
(4.97459 -0.0625835 0)
(5.01141 0.275204 0)
(5.00853 0.225807 0)
(4.99371 0.188001 0)
(4.97682 0.160737 0)
(4.96536 0.139606 0)
(4.96012 0.121036 0)
(4.95872 0.103732 0)
(4.95912 0.0876318 0)
(4.96065 0.072612 0)
(4.96316 0.0582596 0)
(4.96676 0.0441188 0)
(4.97103 0.0298705 0)
(4.97584 0.0153667 0)
(4.98045 0.000506231 0)
(4.9851 -0.0147599 0)
(4.98865 -0.0304858 0)
(4.99206 -0.0465624 0)
(4.99331 -0.062883 0)
(5.0008 0.276185 0)
(5.00166 0.229496 0)
(4.99135 0.191967 0)
(4.97852 0.163325 0)
(4.96985 0.140649 0)
(4.96632 0.121017 0)
(4.96621 0.102908 0)
(4.96778 0.0859921 0)
(4.97027 0.0701679 0)
(4.9734 0.0551685 0)
(4.97723 0.0406014 0)
(4.98142 0.0261356 0)
(4.98593 0.0115801 0)
(4.99006 -0.0031937 0)
(4.99415 -0.0182077 0)
(4.99712 -0.0334844 0)
(5.00001 -0.0488986 0)
(5.00088 -0.064364 0)
(5.01516 0.279805 0)
(5.01744 0.23619 0)
(5.00957 0.198991 0)
(4.99884 0.168848 0)
(4.99141 0.144207 0)
(4.98842 0.122965 0)
(4.98855 0.103729 0)
(4.99025 0.0859273 0)
(4.9927 0.0693376 0)
(4.99551 0.0536707 0)
(4.99877 0.0385998 0)
(5.00222 0.0238045 0)
(5.00599 0.00909551 0)
(5.00948 -0.00564777 0)
(5.013 -0.0204268 0)
(5.01554 -0.0352437 0)
(5.01809 -0.0499876 0)
(5.01884 -0.06457 0)
(5.00894 0.278086 0)
(5.01454 0.237409 0)
(5.01117 0.201313 0)
(5.00487 0.170627 0)
(5.00064 0.144661 0)
(4.99947 0.122138 0)
(5.00048 0.101988 0)
(5.00259 0.0835703 0)
(5.00523 0.0664846 0)
(5.00809 0.050394 0)
(5.01124 0.0349825 0)
(5.01448 0.0199656 0)
(5.01787 0.00516624 0)
(5.02093 -0.00951363 0)
(5.02388 -0.0240575 0)
(5.02598 -0.0384377 0)
(5.02798 -0.0525419 0)
(5.02855 -0.066306 0)
(5.00521 0.281687 0)
(5.01234 0.24163 0)
(5.01151 0.205655 0)
(5.00807 0.17421 0)
(5.00628 0.146901 0)
(5.00675 0.122967 0)
(5.00878 0.10167 0)
(5.01161 0.0824015 0)
(5.01484 0.0646715 0)
(5.0182 0.0480755 0)
(5.02168 0.0322928 0)
(5.02509 0.017091 0)
(5.02845 0.00232844 0)
(5.03135 -0.012057 0)
(5.034 -0.0260841 0)
(5.03577 -0.0397356 0)
(5.03736 -0.0530011 0)
(5.0377 -0.0658287 0)
(5.00223 0.2764 0)
(5.01032 0.238157 0)
(5.01158 0.202886 0)
(5.01074 0.171328 0)
(5.01139 0.143467 0)
(5.0137 0.118866 0)
(5.01685 0.0969341 0)
(5.02028 0.0771132 0)
(5.02381 0.0589295 0)
(5.02735 0.0420069 0)
(5.03091 0.0260645 0)
(5.03427 0.0108986 0)
(5.03745 -0.0036226 0)
(5.0401 -0.0175881 0)
(5.04247 -0.0310357 0)
(5.04401 -0.0439961 0)
(5.04542 -0.0564618 0)
(5.04566 -0.0684642 0)
(5.00934 0.279731 0)
(5.01771 0.239555 0)
(5.02039 0.202968 0)
(5.02175 0.170318 0)
(5.02488 0.141543 0)
(5.02944 0.116258 0)
(5.03439 0.0938485 0)
(5.03912 0.0736972 0)
(5.04352 0.0553102 0)
(5.04755 0.0383453 0)
(5.05129 0.0225681 0)
(5.05461 0.00781575 0)
(5.05755 -0.00605161 0)
(5.05984 -0.019139 0)
(5.06177 -0.0315531 0)
(5.06287 -0.0433562 0)
(5.06382 -0.0546309 0)
(5.06367 -0.065389 0)
(5.00638 0.276032 0)
(5.01839 0.233983 0)
(5.02502 0.195476 0)
(5.03007 0.161442 0)
(5.03653 0.131838 0)
(5.04402 0.106059 0)
(5.05143 0.0833157 0)
(5.0582 0.0629101 0)
(5.06423 0.0443718 0)
(5.06951 0.0274119 0)
(5.07413 0.0118311 0)
(5.07798 -0.00253857 0)
(5.08114 -0.0158495 0)
(5.08344 -0.028248 0)
(5.08517 -0.0398615 0)
(5.08604 -0.0508107 0)
(5.08666 -0.06117 0)
(5.0863 -0.0710328 0)
(5.00017 0.270925 0)
(5.01254 0.225124 0)
(5.02219 0.183413 0)
(5.03212 0.147826 0)
(5.04365 0.118231 0)
(5.05533 0.0933585 0)
(5.06571 0.071924 0)
(5.07442 0.0530827 0)
(5.08175 0.0363564 0)
(5.088 0.0214397 0)
(5.0934 0.00805077 0)
(5.09793 -0.00408384 0)
(5.10171 -0.0152291 0)
(5.10458 -0.0255786 0)
(5.10685 -0.0353036 0)
(5.10822 -0.0444961 0)
(5.10926 -0.0532677 0)
(5.10929 -0.0616444 0)
(5.0005 0.270608 0)
(5.01559 0.216551 0)
(5.02967 0.170226 0)
(5.04481 0.132672 0)
(5.06116 0.102516 0)
(5.07682 0.0774656 0)
(5.09038 0.0557944 0)
(5.10164 0.0366843 0)
(5.11101 0.0198347 0)
(5.11881 0.00502543 0)
(5.12532 -0.00804821 0)
(5.13058 -0.0197269 0)
(5.13483 -0.0302973 0)
(5.13801 -0.0399762 0)
(5.14053 -0.0489137 0)
(5.14207 -0.0572411 0)
(5.14329 -0.0650383 0)
(5.14339 -0.0724094 0)
(5.01255 0.26408 0)
(5.03264 0.200952 0)
(5.05328 0.151455 0)
(5.07414 0.114951 0)
(5.094 0.0879106 0)
(5.1112 0.0666105 0)
(5.12542 0.0486433 0)
(5.13744 0.0329238 0)
(5.14797 0.0190645 0)
(5.15715 0.00682346 0)
(5.16495 -0.00409686 0)
(5.17125 -0.0139809 0)
(5.17626 -0.0230594 0)
(5.18002 -0.0314658 0)
(5.18293 -0.0392997 0)
(5.18483 -0.0466126 0)
(5.18631 -0.0535075 0)
(5.18673 -0.0600096 0)
(5.00393 0.257993 0)
(5.03318 0.183701 0)
(5.06534 0.129426 0)
(5.09624 0.0917538 0)
(5.12304 0.0639017 0)
(5.14448 0.0410463 0)
(5.16125 0.0214815 0)
(5.17483 0.00511025 0)
(5.18623 -0.00824613 0)
(5.19578 -0.0192283 0)
(5.20358 -0.0285979 0)
(5.20967 -0.0369346 0)
(5.21436 -0.0445431 0)
(5.21778 -0.0515675 0)
(5.22035 -0.0580722 0)
(5.2219 -0.0641374 0)
(5.22298 -0.0698133 0)
(5.22302 -0.0751855 0)
(5.0082 0.243359 0)
(5.04671 0.161566 0)
(5.09 0.110904 0)
(5.12769 0.081909 0)
(5.15673 0.0619606 0)
(5.17875 0.0443191 0)
(5.19683 0.0281715 0)
(5.21273 0.0142071 0)
(5.2266 0.00258483 0)
(5.23799 -0.00720558 0)
(5.24688 -0.015786 0)
(5.25356 -0.0235288 0)
(5.25862 -0.0305998 0)
(5.26232 -0.0370813 0)
(5.2651 -0.0430811 0)
(5.26681 -0.0486718 0)
(5.268 -0.0539528 0)
(5.26814 -0.0589244 0)
(5.00903 0.225942 0)
(5.06396 0.123709 0)
(5.12575 0.0686644 0)
(5.17373 0.0401539 0)
(5.20577 0.0196317 0)
(5.22814 0.0015049 0)
(5.24647 -0.013161 0)
(5.26267 -0.0238509 0)
(5.27657 -0.0317473 0)
(5.2877 -0.0382695 0)
(5.29627 -0.0441826 0)
(5.30274 -0.0497044 0)
(5.30774 -0.0548485 0)
(5.31145 -0.0596432 0)
(5.31423 -0.0641287 0)
(5.3159 -0.0683683 0)
(5.317 -0.0723827 0)
(5.31698 -0.0762268 0)
(5.01411 0.210367 0)
(5.09084 0.109884 0)
(5.16966 0.0735453 0)
(5.2236 0.0566067 0)
(5.25628 0.0380176 0)
(5.27976 0.0194157 0)
(5.30056 0.00467022 0)
(5.31909 -0.00578215 0)
(5.3343 -0.0136411 0)
(5.34602 -0.020341 0)
(5.35499 -0.0264253 0)
(5.3619 -0.0319922 0)
(5.36731 -0.0370774 0)
(5.37131 -0.0417599 0)
(5.3742 -0.0461265 0)
(5.37586 -0.0502332 0)
(5.37682 -0.0541243 0)
(5.37669 -0.0578075 0)
(5.00476 0.157865 0)
(5.11964 0.0332305 0)
(5.21676 0.0052201 0)
(5.27079 -0.00453939 0)
(5.30037 -0.0188705 0)
(5.32382 -0.0314557 0)
(5.3461 -0.0395071 0)
(5.36594 -0.0447711 0)
(5.38193 -0.0490902 0)
(5.39418 -0.0531148 0)
(5.40362 -0.0568491 0)
(5.41098 -0.0602473 0)
(5.4168 -0.063338 0)
(5.42116 -0.066219 0)
(5.42441 -0.0689402 0)
(5.42642 -0.0715694 0)
(5.42776 -0.0741077 0)
(5.42798 -0.0766033 0)
(5.01604 0.150544 0)
(5.17881 0.0556214 0)
(5.30018 0.0417852 0)
(5.35749 0.0251321 0)
(5.38785 0.00571463 0)
(5.41391 -0.00807446 0)
(5.43815 -0.0162907 0)
(5.45843 -0.0220634 0)
(5.47397 -0.0270728 0)
(5.48548 -0.0316573 0)
(5.49398 -0.0357702 0)
(5.50024 -0.0394829 0)
(5.50467 -0.0428678 0)
(5.50746 -0.04606 0)
(5.50881 -0.0490615 0)
(5.50878 -0.0519777 0)
(5.50766 -0.0547562 0)
(5.50539 -0.0575086 0)
(5.01508 0.0204758 0)
(5.22842 -0.0512104 0)
(5.35322 -0.0343683 0)
(5.40439 -0.0430577 0)
(5.43183 -0.0532911 0)
(5.4529 -0.0579816 0)
(5.46809 -0.0598593 0)
(5.47583 -0.0613028 0)
(5.47618 -0.0628173 0)
(5.4704 -0.0642794 0)
(5.45974 -0.0655786 0)
(5.44534 -0.0667546 0)
(5.42765 -0.0678195 0)
(5.40745 -0.068847 0)
(5.38461 -0.0697954 0)
(5.36018 -0.0707551 0)
(5.33341 -0.0716581 0)
(5.30614 -0.0726522 0)
(4.97173 0.0677416 0)
(5.10668 -0.00217773 0)
(5.07583 -0.00225945 0)
(4.95871 -0.0123551 0)
(4.82878 -0.019826 0)
(4.70254 -0.0227654 0)
(4.57984 -0.0239175 0)
(4.45878 -0.0246692 0)
(4.339 -0.0252136 0)
(4.22124 -0.0255306 0)
(4.10625 -0.0256623 0)
(3.99467 -0.0256824 0)
(3.88644 -0.0256328 0)
(3.7819 -0.0255542 0)
(3.68038 -0.0254464 0)
(3.58276 -0.0253565 0)
(3.48739 -0.025259 0)
(3.39662 -0.0252428 0)
(0.00388911 -0.0187446 2.36097e-21)
(0.0206959 -0.0346071 -2.34603e-21)
(0.0446726 -0.038276 0)
(0.067026 -0.0377169 0)
(0.0881782 -0.0358614 0)
(0.107825 -0.0336394 2.27391e-21)
(0.125999 -0.0313171 0)
(0.142666 -0.0289603 0)
(0.15782 -0.026537 0)
(0.171326 -0.0239782 0)
(0.182931 -0.0211723 -2.16912e-21)
(0.192232 -0.0179921 0)
(0.198704 -0.0143016 0)
(0.20163 -0.0099807 0)
(0.200239 -0.00491231 0)
(0.193512 0.000949144 -2.05241e-21)
(0.180627 0.00765848 0)
(0.160355 0.0151645 0)
(0.132289 0.0234225 0)
(0.0950229 0.0322997 0)
(0.0480768 0.0413729 0)
(-0.00855167 0.0501168 0)
(-0.074247 0.0577197 0)
(-0.147845 0.063294 -1.90117e-21)
(-0.227571 0.066087 1.88654e-21)
(-0.311456 0.0655937 -1.87168e-21)
(-0.39775 0.0636593 -1.85624e-21)
(-0.484693 0.0622797 0)
(-0.569762 0.057763 0)
(-0.65474 0.0504392 1.8049e-21)
(-0.745219 0.0492657 1.7854e-21)
(-0.844262 0.0609768 0)
(-0.952427 0.0830441 0)
(-1.06904 0.104088 1.71896e-21)
(-1.18924 0.11371 0)
(-1.30424 0.110249 0)
(-1.4095 0.101039 -1.6417e-21)
(-1.50307 0.0900469 0)
(-1.58444 0.0783615 -1.58499e-21)
(-1.65319 0.0665005 -3.11505e-21)
(-1.70923 0.0547627 0)
(-1.75257 0.0433179 0)
(-1.78334 0.0322753 0)
(-1.8017 0.0217058 0)
(-1.80786 0.0116549 0)
(-1.80211 0.00216282 -2.8887e-21)
(-1.78486 -0.00675228 -2.87467e-21)
(-1.75656 -0.0150546 -2.86806e-21)
(-1.71775 -0.0227066 0)
(-1.66906 -0.0296355 2.87601e-21)
(-1.61117 -0.0357866 0)
(-1.5449 -0.0411264 -2.90866e-21)
(-1.4714 -0.0456628 -2.93235e-21)
(-1.39141 -0.0494445 0)
(-1.30599 -0.0524971 0)
(-1.21599 -0.0548721 0)
(-1.12235 -0.0566007 -3.05418e-21)
(-1.02587 -0.0577622 0)
(-0.927372 -0.0583933 0)
(-0.827516 -0.0585739 0)
(-0.726917 -0.0583619 0)
(-0.626092 -0.0578439 0)
(-0.525476 -0.0570704 0)
(-0.425403 -0.0561048 0)
(-0.326161 -0.0549891 0)
(-0.22796 -0.0537796 3.28484e-21)
(-0.130944 -0.0525037 0)
(-0.0352125 -0.0511957 0)
(0.0591801 -0.0498771 -3.31612e-21)
(0.152202 -0.0485522 -3.32134e-21)
(0.2438 -0.0472146 0)
(0.333893 -0.0458395 3.32454e-21)
(0.422351 -0.0443998 -3.32266e-21)
(0.508998 -0.0428768 0)
(0.593598 -0.0412524 3.31214e-21)
(0.675913 -0.0395145 0)
(0.755698 -0.0376751 0)
(0.832738 -0.0357428 -3.27973e-21)
(0.906857 -0.0337441 0)
(0.977878 -0.031694 3.24764e-21)
(1.04567 -0.0296076 0)
(1.11013 -0.0275117 -3.208e-21)
(1.17115 -0.0254205 -3.18568e-21)
(1.22871 -0.0233585 -3.16188e-21)
(1.2828 -0.0213455 -6.27355e-21)
(1.33345 -0.0194008 6.22105e-21)
(1.38075 -0.0175366 0)
(1.42478 -0.0157629 0)
(1.46566 -0.0140877 0)
(1.50352 -0.0125131 5.99477e-21)
(1.53852 -0.0110386 5.93558e-21)
(1.5708 -0.00966549 -5.87584e-21)
(1.60048 -0.00839197 0)
(1.62771 -0.00721518 5.75542e-21)
(1.65264 -0.00613165 5.69505e-21)
(1.6754 -0.00513764 5.63473e-21)
(1.69612 -0.00422918 0)
(1.71493 -0.00340225 0)
(1.73196 -0.00265271 0)
(1.74733 -0.00197635 5.39566e-21)
(1.76116 -0.00136894 0)
(1.77356 -0.000826162 0)
(1.78464 -0.000343687 -5.22021e-21)
(1.79448 8.28315e-05 0)
(1.8032 0.000457707 0)
(1.81088 0.000785162 -5.04891e-21)
(1.81761 0.0010693 0)
(1.82345 0.00131401 0)
(1.82848 0.00152294 4.88203e-21)
(1.83278 0.00169942 4.82738e-21)
(1.83639 0.00184637 0)
(1.83937 0.00196638 -4.71954e-21)
(1.84178 0.00206178 0)
(1.84367 0.00213444 4.6136e-21)
(1.84508 0.00218617 0)
(1.84606 0.00221903 4.50949e-21)
(1.84665 0.00223425 4.45811e-21)
(1.84689 0.00223375 0)
(1.84681 0.00221999 0)
(1.84646 0.00219251 0)
(1.84587 0.00215076 0)
(1.84508 0.00209665 0)
(1.84412 0.00203265 0)
(1.84301 0.00196114 0)
(1.8418 0.00188446 4.06214e-21)
(1.84049 0.00180479 -4.01443e-21)
(1.83911 0.00172396 0)
(1.83767 0.00164342 0)
(1.83619 0.00156436 0)
(1.83468 0.00148773 0)
(1.83314 0.00141419 -7.56276e-21)
(1.83158 0.00134412 0)
(1.83 0.00127766 7.38122e-21)
(1.82842 0.00121489 -7.29146e-21)
(1.82682 0.00115593 0)
(1.82523 0.00110107 0)
(1.82363 0.00105043 0)
(1.82202 0.00100398 6.93887e-21)
(1.82042 0.000961464 6.8523e-21)
(1.81881 0.000922589 0)
(1.81721 0.000887123 6.68096e-21)
(1.8156 0.000854859 6.59619e-21)
(1.814 0.000825615 -6.51201e-21)
(1.81239 0.000799262 0)
(1.81078 0.000775708 0)
(1.80917 0.000754903 -6.2629e-21)
(1.80756 0.000736776 0)
(1.80594 0.000721216 0)
(1.80431 0.000708039 0)
(1.80267 0.000697033 0)
(1.80101 0.000687979 5.8588e-21)
(1.79934 0.000680717 5.77958e-21)
(1.79765 0.000675145 0)
(1.79593 0.000671282 5.62273e-21)
(1.79419 0.000669187 0)
(1.79242 0.000669084 0)
(1.79061 0.000671176 5.3913e-21)
(1.78876 0.000675949 0)
(1.78685 0.000683741 5.23954e-21)
(1.78489 0.000695445 0)
(1.78285 0.000711565 0)
(1.78073 0.000733663 5.01572e-21)
(1.77847 0.000762626 0)
(1.77612 0.000800777 4.86908e-21)
(1.77353 0.000850475 0)
(1.77082 0.000913704 0)
(1.76768 0.000999185 0)
(1.76443 0.00110119 -4.58247e-21)
(1.76038 0.00125451 0)
(1.75625 0.00141247 4.44304e-21)
(1.75062 0.00171115 0)
(1.74498 0.00193231 0)
(1.73664 0.00258974 0)
(1.72789 0.00280727 0)
(1.71518 0.00448341 0)
(1.69856 0.00429285 0)
(1.68001 0.00928845 0)
(1.63855 0.00708273 -7.87723e-21)
(1.61731 0.0254727 0)
(1.48121 0.0196451 0)
(0.000235784 -0.0319271 -7.08669e-21)
(-0.00506162 -0.0562797 7.04153e-21)
(-0.00830239 -0.058849 0)
(-0.0132924 -0.0545297 -4.62406e-21)
(-0.018452 -0.0494694 0)
(-0.0239148 -0.0447619 -2.27537e-21)
(-0.0294569 -0.0404862 4.50994e-21)
(-0.0352102 -0.036376 4.46924e-21)
(-0.0413085 -0.0320875 0)
(-0.0480161 -0.0272471 4.38357e-21)
(-0.0556676 -0.0214673 2.17048e-21)
(-0.0647175 -0.0143516 0)
(-0.0757705 -0.0054983 0)
(-0.0894809 0.00547322 0)
(-0.106789 0.0188835 0)
(-0.128409 0.0349145 2.05366e-21)
(-0.155491 0.053589 0)
(-0.188447 0.0746252 -4.00508e-21)
(-0.228712 0.0974772 0)
(-0.275871 0.121309 0)
(-0.330741 0.144928 3.88185e-21)
(-0.394028 0.167207 0)
(-0.465788 0.187284 -3.81492e-21)
(-0.545898 0.204656 1.90239e-21)
(-0.633701 0.218641 -1.88777e-21)
(-0.727628 0.228497 1.87293e-21)
(-0.826254 0.23349 1.85752e-21)
(-0.928215 0.231559 0)
(-1.03428 0.228538 0)
(-1.14853 0.240355 -1.80625e-21)
(-1.2686 0.264074 1.75162e-21)
(-1.3863 0.279902 0)
(-1.49156 0.28208 0)
(-1.58226 0.27406 -1.72039e-21)
(-1.66167 0.257436 0)
(-1.73082 0.233961 0)
(-1.79045 0.207215 1.643e-21)
(-1.84065 0.178839 0)
(-1.88157 0.149961 -1.53374e-21)
(-1.91312 0.121173 3.11737e-21)
(-1.9353 0.0928278 0)
(-1.94809 0.0651083 0)
(-1.95148 0.0381196 5.86403e-21)
(-1.94548 0.0119427 5.79675e-21)
(-1.93014 -0.0133382 5.74309e-21)
(-1.90552 -0.0376124 -2.81362e-21)
(-1.8717 -0.0607587 2.87615e-21)
(-1.82883 -0.0826211 8.53979e-21)
(-1.77718 -0.103035 -5.67572e-21)
(-1.71713 -0.121788 -2.87719e-21)
(-1.64918 -0.138707 0)
(-1.57392 -0.153645 2.90972e-21)
(-1.49176 -0.166551 -2.88846e-21)
(-1.40364 -0.177394 0)
(-1.31029 -0.186195 0)
(-1.21266 -0.193021 0)
(-1.11156 -0.197969 3.055e-21)
(-1.00785 -0.20121 0)
(-0.902268 -0.202907 -6.21686e-21)
(-0.795498 -0.203273 0)
(-0.688122 -0.202513 -6.33982e-21)
(-0.580646 -0.200836 0)
(-0.473449 -0.198432 6.44408e-21)
(-0.366846 -0.195471 0)
(-0.261105 -0.192094 -6.52631e-21)
(-0.15642 -0.188434 3.2735e-21)
(-0.0529037 -0.184578 0)
(0.0493535 -0.180623 6.6066e-21)
(0.150328 -0.176614 3.31647e-21)
(0.250022 -0.172583 3.32165e-21)
(0.348416 -0.1685 0)
(0.445452 -0.164318 3.31529e-21)
(0.540999 -0.15995 3.32291e-21)
(0.634875 -0.155319 0)
(0.726836 -0.150367 -3.31235e-21)
(0.816618 -0.145061 6.60042e-21)
(0.90396 -0.139435 0)
(0.988636 -0.133525 3.27989e-21)
(1.07047 -0.127399 0)
(1.1493 -0.121104 -9.73894e-21)
(1.225 -0.114692 0)
(1.29745 -0.10822 9.62102e-21)
(1.36657 -0.101753 3.18578e-21)
(1.43232 -0.0953512 -3.1594e-21)
(1.49471 -0.0890807 -6.26911e-21)
(1.55377 -0.0829949 6.21703e-21)
(1.60958 -0.0771291 0)
(1.66225 -0.0715237 0)
(1.71188 -0.0661954 0)
(1.75862 -0.0611474 -1.79814e-20)
(1.80263 -0.0563844 -5.93561e-21)
(1.84401 -0.0519059 5.87585e-21)
(1.88291 -0.0477064 0)
(1.91945 -0.0437774 5.75314e-21)
(1.95378 -0.0401092 -5.69503e-21)
(1.98601 -0.0366912 -5.6347e-21)
(2.01626 -0.033512 0)
(2.04465 -0.0305603 0)
(2.0713 -0.0278247 0)
(2.0963 -0.0252939 -5.3956e-21)
(2.11976 -0.0229564 0)
(2.14178 -0.0208011 1.05551e-20)
(2.16245 -0.0188167 1.56592e-20)
(2.18185 -0.0169921 -1.0324e-20)
(2.20008 -0.0153164 0)
(2.21719 -0.0137788 -5.04785e-21)
(2.23327 -0.0123686 0)
(2.24839 -0.0110757 -9.87325e-21)
(2.26259 -0.00989051 4.88115e-21)
(2.27594 -0.00880398 4.82655e-21)
(2.28849 -0.00780806 0)
(2.30029 -0.00689557 1.41576e-20)
(2.31137 -0.0060602 -9.3318e-21)
(2.32178 -0.00529652 -4.61342e-21)
(2.33154 -0.00459983 0)
(2.3407 -0.00396573 -4.5093e-21)
(2.34928 -0.0033907 -1.33734e-20)
(2.35731 -0.00287143 0)
(2.36482 -0.00240449 -8.71258e-21)
(2.37184 -0.00198827 -8.61241e-21)
(2.37839 -0.00162134 -8.51306e-21)
(2.38448 -0.00130016 0)
(2.39015 -0.00102056 0)
(2.39542 -0.000778472 0)
(2.4003 -0.000569818 4.06177e-21)
(2.40481 -0.000390487 4.0142e-21)
(2.40898 -0.000236633 0)
(2.41283 -0.000104788 7.83969e-21)
(2.41637 8.09823e-06 7.74649e-21)
(2.41962 0.000104802 0)
(2.4226 0.000187744 7.56228e-21)
(2.42532 0.000258918 1.49422e-20)
(2.42781 0.000319893 -7.38075e-21)
(2.43007 0.000372214 -7.29089e-21)
(2.43212 0.000417401 0)
(2.43396 0.000456505 0)
(2.43563 0.000489982 0)
(2.43712 0.000517973 -6.93841e-21)
(2.43845 0.000540881 6.85178e-21)
(2.43962 0.00055936 1.35317e-20)
(2.44066 0.00057408 -6.68052e-21)
(2.44157 0.000585695 6.5957e-21)
(2.44237 0.000594826 6.51157e-21)
(2.44305 0.000602117 0)
(2.44363 0.000608171 0)
(2.44411 0.000613481 -6.26243e-21)
(2.44451 0.000618509 0)
(2.44482 0.000623703 0)
(2.44506 0.000629383 1.20368e-20)
(2.44523 0.000635835 0)
(2.44533 0.000643283 5.85835e-21)
(2.44537 0.000651988 -5.77918e-21)
(2.44535 0.000662224 0)
(2.44527 0.000674397 5.62229e-21)
(2.44514 0.000688971 0)
(2.44495 0.000706609 0)
(2.4447 0.000728066 -5.39091e-21)
(2.44439 0.000754321 1.06295e-20)
(2.44402 0.000786642 -5.23917e-21)
(2.44358 0.000826342 0)
(2.44307 0.000875933 0)
(2.44247 0.000936687 5.01525e-21)
(2.44177 0.00101453 0)
(2.44097 0.00110855 4.86858e-21)
(2.44001 0.00123463 0)
(2.4389 0.00138088 0)
(2.43755 0.00159355 0)
(2.43599 0.00181915 4.58213e-21)
(2.43403 0.00219835 0)
(2.43171 0.00253528 -4.4427e-21)
(2.42877 0.00326361 0)
(2.42508 0.0037261 0)
(2.42059 0.00526133 8.4791e-21)
(2.41417 0.00576205 -8.34848e-21)
(2.40732 0.00935914 0)
(2.39469 0.00947744 0)
(2.38467 0.0189922 0)
(2.35636 0.0178544 2.36116e-20)
(2.34445 0.0475537 0)
(2.27755 0.0483613 -1.5325e-20)
(-0.00437823 -0.00714646 1.42498e-24)
(-0.0300584 -0.0190562 -9.39135e-21)
(-0.0537616 -0.0196123 0)
(-0.0787049 -0.0160699 9.2516e-21)
(-0.102702 -0.0132037 0)
(-0.126408 -0.0106004 0)
(-0.149724 -0.00793522 -9.42219e-25)
(-0.173005 -0.00479903 -4.47162e-21)
(-0.196457 -0.000795951 -4.42875e-21)
(-0.220395 0.00453359 -4.38588e-21)
(-0.245113 0.0117025 0)
(-0.270977 0.0212632 0)
(-0.298431 0.0338025 4.24497e-21)
(-0.328003 0.0498528 8.3912e-21)
(-0.360295 0.0697891 -8.2909e-21)
(-0.395928 0.0937392 0)
(-0.435756 0.121559 -8.09055e-21)
(-0.480402 0.152775 4.00701e-21)
(-0.530884 0.186759 0)
(-0.587183 0.222652 -7.81335e-21)
(-0.649807 0.259459 -3.88375e-21)
(-0.71884 0.295666 7.6572e-21)
(-0.793946 0.329398 3.81687e-21)
(-0.874248 0.358616 0)
(-0.959245 0.381453 -7.45594e-21)
(-1.04853 0.39689 -7.38931e-21)
(-1.14135 0.406695 0)
(-1.23746 0.416149 -7.2415e-21)
(-1.3384 0.429185 0)
(-1.43705 0.438321 -7.06559e-21)
(-1.52435 0.437018 -3.54032e-21)
(-1.60068 0.425934 0)
(-1.66711 0.407178 0)
(-1.72489 0.38201 0)
(-1.77555 0.35103 0)
(-1.82029 0.31546 0)
(-1.85996 0.277152 0)
(-1.89461 0.23727 -6.20486e-21)
(-1.92393 0.196747 9.21758e-21)
(-1.94726 0.156075 0)
(-1.96389 0.115557 0)
(-1.9731 0.0753667 0)
(-1.97425 0.0356409 -1.31804e-22)
(-1.96678 -0.00345775 -5.7984e-21)
(-1.95029 -0.0417297 -1.13654e-20)
(-1.92449 -0.0789267 1.12912e-20)
(-1.88927 -0.114753 5.56643e-21)
(-1.84466 -0.148882 -5.67159e-21)
(-1.79086 -0.18098 1.03137e-22)
(-1.72823 -0.210719 -5.59929e-21)
(-1.65732 -0.237802 0)
(-1.57887 -0.261976 -5.68801e-21)
(-1.49366 -0.283005 7.52467e-23)
(-1.40258 -0.300715 0)
(-1.30654 -0.31505 0)
(-1.20648 -0.326053 5.96021e-21)
(-1.1033 -0.333895 0)
(-0.997855 -0.338832 0)
(-0.890881 -0.341194 -6.14402e-21)
(-0.783049 -0.341346 -1.24966e-20)
(-0.674904 -0.339664 6.34027e-21)
(-0.566913 -0.336498 0)
(-0.459443 -0.332173 -6.44443e-21)
(-0.352774 -0.326986 0)
(-0.247159 -0.321176 -6.48473e-21)
(-0.142776 -0.314936 -6.55899e-21)
(-0.039742 -0.308429 1.31333e-20)
(0.0618705 -0.301797 6.56991e-21)
(0.162084 -0.295129 0)
(0.26097 -0.288484 -1.32312e-20)
(0.358599 -0.281826 0)
(0.454986 -0.275048 -1.98876e-20)
(0.55006 -0.267982 -1.32426e-20)
(0.643629 -0.260452 -1.32292e-20)
(0.735405 -0.252342 1.32072e-20)
(0.825042 -0.243607 -1.97768e-20)
(0.912212 -0.2343 0)
(0.99666 -0.224517 0)
(1.0782 -0.214387 1.30319e-20)
(1.15668 -0.203983 1.94581e-20)
(1.23198 -0.193398 0)
(1.30397 -0.182711 -6.41283e-21)
(1.37258 -0.172038 0)
(1.43777 -0.161494 1.89549e-20)
(1.49957 -0.151181 7.99287e-24)
(1.55805 -0.141193 -7.22638e-24)
(1.6133 -0.131591 -1.23229e-20)
(1.66545 -0.122442 0)
(1.71462 -0.113767 1.20975e-20)
(1.761 -0.105567 5.20435e-24)
(1.80473 -0.0978509 0)
(1.84594 -0.0906099 0)
(1.88479 -0.0838309 0)
(1.92141 -0.0774967 -1.15084e-20)
(1.95593 -0.0715884 0)
(1.9885 -0.0660859 0)
(2.01923 -0.0609688 0)
(2.04824 -0.0562171 0)
(2.07563 -0.0518112 0)
(2.10151 -0.047732 -1.07871e-20)
(2.12598 -0.0439605 0)
(2.14911 -0.0404782 -1.0555e-20)
(2.171 -0.0372668 -1.0439e-20)
(2.19172 -0.034308 1.03239e-20)
(2.21135 -0.0315838 0)
(2.22995 -0.0290764 1.00966e-20)
(2.2476 -0.0267683 0)
(2.26435 -0.0246428 9.87319e-21)
(2.28025 -0.0226839 -9.76297e-21)
(2.29537 -0.0208768 -2.8959e-20)
(2.30973 -0.0192079 0)
(2.32338 -0.017665 -2.83125e-20)
(2.33636 -0.0162372 -9.33008e-21)
(2.34869 -0.0149152 0)
(2.36042 -0.0136909 -1.82422e-20)
(2.37155 -0.0125571 -1.8035e-20)
(2.38211 -0.0115079 2.67451e-20)
(2.39214 -0.0105382 0)
(2.40164 -0.00964353 8.7125e-21)
(2.41064 -0.00881944 8.61233e-21)
(2.41915 -0.00806161 2.55382e-20)
(2.4272 -0.00736547 0)
(2.4348 -0.00672627 0)
(2.44198 -0.00613946 0)
(2.44874 -0.00560073 8.12315e-21)
(2.45511 -0.00510589 0)
(2.46109 -0.00465097 0)
(2.46672 -0.00423235 -7.8396e-21)
(2.472 -0.00384675 -7.74639e-21)
(2.47695 -0.00349112 0)
(2.48159 -0.00316269 0)
(2.48592 -0.00285917 -1.4942e-20)
(2.48997 -0.00257866 0)
(2.49374 -0.0023194 1.45817e-20)
(2.49726 -0.00207963 1.44033e-20)
(2.50053 -0.00185795 0)
(2.50357 -0.00165335 0)
(2.50638 -0.00146512 -1.38764e-20)
(2.50898 -0.00129239 -7.74103e-26)
(2.51139 -0.00113415 -6.88094e-26)
(2.5136 -0.000989394 0)
(2.51564 -0.000857072 -2.63824e-20)
(2.51751 -0.00073614 0)
(2.51922 -0.000625598 0)
(2.52078 -0.000524477 0)
(2.52221 -0.000431757 1.25247e-20)
(2.5235 -0.000346418 0)
(2.52468 -0.000267504 -2.43962e-20)
(2.52574 -0.000194134 -1.20365e-20)
(2.5267 -0.000125473 0)
(2.52756 -6.07581e-05 -1.17165e-20)
(2.52833 7.89984e-07 0)
(2.52901 6.00147e-05 0)
(2.52962 0.000117827 -3.37331e-20)
(2.53015 0.00017536 2.21781e-20)
(2.53061 0.000233793 0)
(2.53099 0.000294818 2.15629e-20)
(2.53131 0.000359882 -1.06293e-20)
(2.53156 0.000431733 0)
(2.53174 0.000511763 0)
(2.53185 0.000605128 0)
(2.53187 0.000711994 -3.00909e-20)
(2.53181 0.000843791 0)
(2.53165 0.000995441 -9.73707e-21)
(2.53137 0.00119522 0)
(2.53094 0.0014193 0)
(2.53037 0.00174218 0)
(2.52954 0.00207998 0)
(2.52853 0.00263598 0)
(2.52704 0.00314475 0)
(2.52536 0.00417011 -1.7493e-20)
(2.52274 0.00491825 0)
(2.51999 0.00696041 -8.4789e-21)
(2.51527 0.00801094 2.50403e-20)
(2.51079 0.012446 0)
(2.50203 0.0139165 0)
(2.49482 0.0245857 -1.5945e-20)
(2.47844 0.0276139 -1.57348e-20)
(2.46787 0.056251 1.54917e-20)
(2.44188 0.0676276 1.53252e-20)
(-0.00875371 0.04354 1.41783e-20)
(-0.0462896 0.0475662 1.40876e-20)
(-0.0808514 0.0464741 9.32184e-21)
(-0.117011 0.0492444 4.62385e-21)
(-0.152597 0.051425 0)
(-0.188565 0.0536994 -9.10388e-21)
(-0.224735 0.0563517 4.51241e-21)
(-0.261447 0.0598044 0)
(-0.298827 0.064452 4.43127e-21)
(-0.337128 0.0708053 0)
(-0.376573 0.0794766 -8.68693e-21)
(-0.417408 0.0910946 0)
(-0.459902 0.106299 -4.24737e-21)
(-0.504413 0.12573 -8.39591e-21)
(-0.551326 0.14998 8.29553e-21)
(-0.600976 0.179533 0)
(-0.653881 0.214485 8.09503e-21)
(-0.710109 0.254337 0)
(-0.770449 0.297983 0)
(-0.834063 0.343388 7.81775e-21)
(-0.900659 0.388529 0)
(-0.970051 0.431317 -2.99829e-23)
(-1.0419 0.469849 0)
(-1.11564 0.502573 0)
(-1.19097 0.528603 6.23733e-23)
(-1.26777 0.548227 7.39369e-21)
(-1.34579 0.562306 7.23444e-21)
(-1.42296 0.570447 7.24568e-21)
(-1.49594 0.570526 0)
(-1.56227 0.561675 1.40156e-20)
(-1.62209 0.545014 0)
(-1.67699 0.521646 6.72759e-21)
(-1.72787 0.492636 0)
(-1.77557 0.458764 0)
(-1.8204 0.420598 -6.37745e-21)
(-1.86225 0.378716 0)
(-1.90045 0.333797 6.14149e-21)
(-1.93401 0.286362 1.8055e-22)
(-1.96188 0.236924 -1.20157e-20)
(-1.9831 0.185921 1.16259e-20)
(-1.99682 0.133783 0)
(-2.00236 0.0809468 0)
(-1.99918 0.0278608 5.37996e-21)
(-1.98688 -0.0250143 0)
(-1.96521 -0.0772067 5.62239e-21)
(-1.93404 -0.128247 -5.5874e-21)
(-1.89338 -0.177634 -5.5678e-21)
(-1.84337 -0.224847 0)
(-1.78429 -0.269375 5.57481e-21)
(-1.71661 -0.310738 5.60026e-21)
(-1.64095 -0.348461 -1.10246e-20)
(-1.55807 -0.38201 5.68885e-21)
(-1.4688 -0.410966 5.74824e-21)
(-1.37408 -0.435071 0)
(-1.27496 -0.454259 0)
(-1.17246 -0.468656 -5.96087e-21)
(-1.06755 -0.47858 0)
(-0.961079 -0.484449 0)
(-0.853713 -0.48678 1.23625e-20)
(-0.745982 -0.486115 1.24975e-20)
(-0.638273 -0.482978 0)
(-0.530883 -0.477877 0)
(-0.424056 -0.471247 0)
(-0.318002 -0.463472 0)
(-0.212945 -0.454884 1.30118e-20)
(-0.109124 -0.445723 -1.30238e-20)
(-0.00675947 -0.436245 -1.31336e-20)