/*--------------------------------*- C++ -*----------------------------------*\
  =========                 |
  \\      /  F ield         | OpenFOAM: The Open Source CFD Toolbox
   \\    /   O peration     | Website:  https://openfoam.org
    \\  /    A nd           | Version:  7
     \\/     M anipulation  |
\*---------------------------------------------------------------------------*/
FoamFile
{
    version     2.0;
    format      ascii;
    class       volSymmTensorField;
    location    "0.042";
    object      UPrime2Mean;
}
// * * * * * * * * * * * * * * * * * * * * * * * * * * * * * * * * * * * * * //

dimensions      [0 2 -2 0 0 0 0];

internalField   nonuniform List<symmTensor> 
12225
(
(0.00498321 -0.000222247 0 0.000526229 0 0)
(0.0462238 -0.00203006 0 0.00029383 0 0)
(0.0678787 -0.00302973 0 0.000297806 0 0)
(0.0910561 -0.00372971 0 0.000290849 0 0)
(0.130401 -0.00462398 0 0.000285185 0 0)
(0.187743 -0.0057252 0 0.000281734 0 0)
(0.262406 -0.00695533 0 0.000291484 0 0)
(0.353562 -0.00776196 0 0.000257729 0 0)
(0.459808 -0.00910384 0 0.000269995 0 0)
(0.579752 -0.00840148 0 0.000194368 0 0)
(0.714739 -0.0112889 0 0.000240387 0 0)
(0.856199 -0.00674992 0 0.000132943 0 0)
(1.02671 -0.0175148 0 0.000387446 0 0)
(1.19089 -0.000622995 0 0.000301079 0 0)
(1.44238 -0.0430075 0 0.00205247 0 0)
(1.69016 0.0221804 0 0.0025869 0 0)
(2.19332 -0.16899 0 0.0242044 0 0)
(3.01967 0.0655843 0 0.012054 0 0)
(0.0046672 -0.000115054 0 0.000601413 0 0)
(0.0309814 -0.00107262 0 0.000252726 0 0)
(0.0341061 -0.00175093 0 0.000378142 0 0)
(0.0351267 -0.00215579 0 0.00053398 0 0)
(0.0416124 -0.00292148 0 0.000715665 0 0)
(0.0529457 -0.00429159 0 0.000943255 0 0)
(0.0697521 -0.00615835 0 0.00116111 0 0)
(0.0943775 -0.00871469 0 0.00145236 0 0)
(0.126833 -0.0112758 0 0.00158261 0 0)
(0.172864 -0.0152022 0 0.00192435 0 0)
(0.227718 -0.0177189 0 0.00185614 0 0)
(0.306025 -0.0244605 0 0.00242506 0 0)
(0.389907 -0.0257942 0 0.00213227 0 0)
(0.521461 -0.0412889 0 0.00371184 0 0)
(0.648042 -0.0407915 0 0.00329784 0 0)
(0.899452 -0.0885222 0 0.0102786 0 0)
(1.115 -0.106778 0 0.0114002 0 0)
(1.65039 -0.323365 0 0.0805121 0 0)
(0.00443557 2.48318e-05 0 0.000901198 0 0)
(0.0306529 -0.0016444 0 0.000520895 0 0)
(0.0325126 -0.0024438 0 0.000697215 0 0)
(0.0314728 -0.00264799 0 0.000938638 0 0)
(0.0340918 -0.00305878 0 0.00121418 0 0)
(0.0382993 -0.00387139 0 0.00154027 0 0)
(0.0437195 -0.00506722 0 0.00199703 0 0)
(0.0506735 -0.00650064 0 0.00238464 0 0)
(0.0600338 -0.00851049 0 0.00298809 0 0)
(0.0724388 -0.0105149 0 0.00329715 0 0)
(0.0900406 -0.0141762 0 0.00411276 0 0)
(0.113194 -0.0169629 0 0.00425186 0 0)
(0.146881 -0.0248253 0 0.00592567 0 0)
(0.191169 -0.029189 0 0.00596663 0 0)
(0.257982 -0.0508852 0 0.0115757 0 0)
(0.347916 -0.0641217 0 0.0129827 0 0)
(0.478499 -0.137729 0 0.0419203 0 0)
(0.644423 -0.233705 0 0.0894349 0 0)
(0.00481074 -0.000451809 0 0.000999064 0 0)
(0.0306361 -0.00200112 0 0.000649677 0 0)
(0.0322927 -0.00264164 0 0.000820552 0 0)
(0.0311363 -0.00285626 0 0.00111574 0 0)
(0.0333523 -0.00325346 0 0.00143576 0 0)
(0.0368629 -0.00404265 0 0.00183361 0 0)
(0.0411483 -0.00514938 0 0.00230097 0 0)
(0.0463711 -0.00655399 0 0.00291163 0 0)
(0.0527482 -0.00816502 0 0.00349691 0 0)
(0.0611744 -0.0103787 0 0.00430888 0 0)
(0.0721616 -0.0129965 0 0.00503227 0 0)
(0.0875697 -0.0172581 0 0.00632436 0 0)
(0.10823 -0.0225402 0 0.00763542 0 0)
(0.138173 -0.0324347 0 0.0106596 0 0)
(0.17908 -0.0464756 0 0.0149582 0 0)
(0.236691 -0.0742311 0 0.0260961 0 0)
(0.311344 -0.123234 0 0.0508632 0 0)
(0.38549 -0.200952 0 0.107029 0 0)
(0.00465278 -0.000306129 0 0.00126829 0 0)
(0.0297387 -0.00227484 0 0.000840024 0 0)
(0.0310438 -0.00291271 0 0.00101927 0 0)
(0.0299556 -0.00313703 0 0.00140959 0 0)
(0.0322293 -0.00357701 0 0.00183703 0 0)
(0.0356229 -0.00443705 0 0.00231115 0 0)
(0.0396713 -0.00567153 0 0.00292767 0 0)
(0.0445283 -0.00719712 0 0.00361545 0 0)
(0.0504923 -0.00914302 0 0.00452121 0 0)
(0.058093 -0.0114884 0 0.00546282 0 0)
(0.0680879 -0.0148928 0 0.00681488 0 0)
(0.0814175 -0.019274 0 0.00835335 0 0)
(0.0994243 -0.0263203 0 0.0110359 0 0)
(0.123866 -0.036201 0 0.0147511 0 0)
(0.156628 -0.0532038 0 0.0223279 0 0)
(0.198555 -0.0798054 0 0.0361596 0 0)
(0.247036 -0.12313 0 0.0647425 0 0)
(0.28613 -0.188584 0 0.129147 0 0)
(0.00437637 -0.000689633 0 0.00134148 0 0)
(0.0293765 -0.00276408 0 0.00101959 0 0)
(0.0303068 -0.00326265 0 0.00127925 0 0)
(0.0290584 -0.0034093 0 0.0017851 0 0)
(0.0311215 -0.00384214 0 0.00232982 0 0)
(0.0342119 -0.00472531 0 0.00293232 0 0)
(0.0379032 -0.00600514 0 0.00364886 0 0)
(0.0423617 -0.00765474 0 0.00453569 0 0)
(0.04785 -0.00973578 0 0.00559438 0 0)
(0.0548133 -0.0124517 0 0.00691564 0 0)
(0.0638922 -0.0161326 0 0.00859266 0 0)
(0.0757565 -0.0213186 0 0.0109287 0 0)
(0.0914671 -0.0288361 0 0.0143648 0 0)
(0.111779 -0.0399872 0 0.0198438 0 0)
(0.137863 -0.0571196 0 0.0293157 0 0)
(0.168014 -0.0826801 0 0.0462035 0 0)
(0.199682 -0.120615 0 0.0779237 0 0)
(0.220762 -0.168896 0 0.133936 0 0)
(0.00469679 -0.000523568 0 0.00149872 0 0)
(0.0293423 -0.00307904 0 0.00134603 0 0)
(0.0299801 -0.00364429 0 0.00159182 0 0)
(0.028624 -0.00384048 0 0.0021502 0 0)
(0.0305744 -0.00436453 0 0.00280037 0 0)
(0.0334665 -0.00536194 0 0.0035129 0 0)
(0.0368829 -0.00677554 0 0.00437299 0 0)
(0.0409751 -0.00857535 0 0.00543421 0 0)
(0.0459674 -0.0108619 0 0.00677448 0 0)
(0.0522257 -0.0138264 0 0.00846075 0 0)
(0.060268 -0.0178603 0 0.0106664 0 0)
(0.0705815 -0.0234717 0 0.0137267 0 0)
(0.0838247 -0.0314571 0 0.0182032 0 0)
(0.100221 -0.0429764 0 0.0252373 0 0)
(0.119997 -0.0595403 0 0.0365483 0 0)
(0.140958 -0.0829651 0 0.0558379 0 0)
(0.160623 -0.113894 0 0.0872285 0 0)
(0.170433 -0.149957 0 0.138089 0 0)
(0.00353151 -0.000514097 0 0.00164802 0 0)
(0.0281363 -0.00327905 0 0.00150967 0 0)
(0.0288874 -0.003691 0 0.00191304 0 0)
(0.0276462 -0.00376089 0 0.00256548 0 0)
(0.0295269 -0.00428207 0 0.00332934 0 0)
(0.0321322 -0.00532588 0 0.00419047 0 0)
(0.035122 -0.00679272 0 0.00522116 0 0)
(0.0387075 -0.00867061 0 0.00650767 0 0)
(0.043084 -0.0110685 0 0.00813456 0 0)
(0.0485039 -0.0141969 0 0.0102246 0 0)
(0.0553247 -0.0184154 0 0.0129874 0 0)
(0.0638427 -0.0242008 0 0.0168253 0 0)
(0.074401 -0.0322353 0 0.0223666 0 0)
(0.0868841 -0.04338 0 0.0307615 0 0)
(0.100985 -0.0586293 0 0.0436594 0 0)
(0.114634 -0.0787037 0 0.0639686 0 0)
(0.125734 -0.103207 0 0.0945981 0 0)
(0.128944 -0.129488 0 0.139942 0 0)
(0.00508097 -0.00085338 0 0.00164768 0 0)
(0.0287552 -0.00402754 0 0.00177587 0 0)
(0.0285749 -0.00442553 0 0.00229296 0 0)
(0.0269857 -0.00437297 0 0.00304662 0 0)
(0.0287617 -0.00487185 0 0.00395666 0 0)
(0.0312123 -0.00597263 0 0.00499017 0 0)
(0.0339232 -0.0075211 0 0.00620779 0 0)
(0.0371044 -0.00948307 0 0.00771516 0 0)
(0.0409298 -0.0119724 0 0.00963495 0 0)
(0.0455874 -0.015205 0 0.0121397 0 0)
(0.051305 -0.0195088 0 0.0154687 0 0)
(0.0582114 -0.0253012 0 0.0200762 0 0)
(0.0663921 -0.0330953 0 0.0265864 0 0)
(0.0755037 -0.0434666 0 0.0361202 0 0)
(0.0850278 -0.0569033 0 0.0500502 0 0)
(0.0931963 -0.0734626 0 0.0706454 0 0)
(0.098611 -0.0922754 0 0.0996809 0 0)
(0.0979287 -0.110856 0 0.139569 0 0)
(0.00439617 -0.000845122 0 0.00182425 0 0)
(0.0284255 -0.00421427 0 0.00195144 0 0)
(0.0283345 -0.00454693 0 0.00253779 0 0)
(0.0267577 -0.00442644 0 0.00336943 0 0)
(0.0284025 -0.00490443 0 0.00439231 0 0)
(0.0305904 -0.00600958 0 0.00558766 0 0)
(0.0329196 -0.00756087 0 0.00701854 0 0)
(0.0355871 -0.00951806 0 0.00880076 0 0)
(0.0387389 -0.0119985 0 0.0110742 0 0)
(0.0425123 -0.0152084 0 0.0140321 0 0)
(0.0470434 -0.0194252 0 0.0179316 0 0)
(0.0523365 -0.0249647 0 0.023234 0 0)
(0.0583082 -0.0321769 0 0.0305456 0 0)
(0.0645007 -0.0413615 0 0.0408741 0 0)
(0.0703624 -0.0526502 0 0.0553048 0 0)
(0.0744997 -0.0657049 0 0.0755166 0 0)
(0.076142 -0.0795462 0 0.102436 0 0)
(0.0731875 -0.0921115 0 0.137471 0 0)
(0.00447841 -0.000996194 0 0.00201237 0 0)
(0.0283773 -0.0047369 0 0.00228148 0 0)
(0.0277364 -0.00510401 0 0.00294946 0 0)
(0.0257486 -0.00487312 0 0.00388591 0 0)
(0.0271364 -0.00532189 0 0.00503541 0 0)
(0.029139 -0.00646084 0 0.0063919 0 0)
(0.031251 -0.00803953 0 0.00801536 0 0)
(0.0335892 -0.00998383 0 0.0100345 0 0)
(0.0362558 -0.0123982 0 0.0126044 0 0)
(0.0393406 -0.0154776 0 0.0159492 0 0)
(0.0428995 -0.0194572 0 0.0203445 0 0)
(0.0468453 -0.0245594 0 0.0262327 0 0)
(0.0510051 -0.0309832 0 0.0341499 0 0)
(0.0549251 -0.0388124 0 0.0449392 0 0)
(0.058136 -0.0479484 0 0.0593936 0 0)
(0.0596427 -0.0578743 0 0.0786883 0 0)
(0.0591039 -0.0676845 0 0.103188 0 0)
(0.0552183 -0.0757893 0 0.133716 0 0)
(0.00404589 -0.000894305 0 0.0022167 0 0)
(0.0274555 -0.0047847 0 0.00254564 0 0)
(0.0267526 -0.00513171 0 0.00323527 0 0)
(0.0247562 -0.00475036 0 0.00425867 0 0)
(0.0259452 -0.00504594 0 0.00553466 0 0)
(0.0275654 -0.00606105 0 0.00706629 0 0)
(0.0292098 -0.00752311 0 0.00890912 0 0)
(0.0310407 -0.00932878 0 0.0111812 0 0)
(0.0331318 -0.011556 0 0.0140507 0 0)
(0.0355031 -0.0143621 0 0.0177449 0 0)
(0.0381218 -0.0179238 0 0.0225341 0 0)
(0.0408334 -0.0223743 0 0.0288327 0 0)
(0.0434287 -0.0277957 0 0.0371025 0 0)
(0.0455332 -0.0341326 0 0.0480375 0 0)
(0.0468124 -0.0411611 0 0.0621874 0 0)
(0.0466252 -0.0483294 0 0.0803753 0 0)
(0.0449058 -0.0548672 0 0.102624 0 0)
(0.0408313 -0.0595744 0 0.129465 0 0)
(0.00429508 -0.00116849 0 0.00251096 0 0)
(0.0280315 -0.00510546 0 0.00282571 0 0)
(0.0270469 -0.00538729 0 0.00351951 0 0)
(0.0247282 -0.00490715 0 0.0046238 0 0)
(0.0256552 -0.00513793 0 0.0060183 0 0)
(0.027033 -0.00610593 0 0.00771196 0 0)
(0.0283846 -0.00749522 0 0.00975032 0 0)
(0.0298094 -0.0091624 0 0.0122418 0 0)
(0.0313473 -0.0111601 0 0.0153572 0 0)
(0.0330089 -0.0136229 0 0.0193271 0 0)
(0.0347555 -0.0166878 0 0.0244147 0 0)
(0.0364396 -0.0204235 0 0.0309883 0 0)
(0.0378572 -0.0248241 0 0.03942 0 0)
(0.0387003 -0.0297462 0 0.0502533 0 0)
(0.0387244 -0.034909 0 0.0638356 0 0)
(0.0375278 -0.0397862 0 0.0807429 0 0)
(0.0352074 -0.0437532 0 0.100789 0 0)
(0.0312318 -0.0459092 0 0.124366 0 0)
(0.00433686 -0.00111088 0 0.00304163 0 0)
(0.0276267 -0.00504877 0 0.00350251 0 0)
(0.0265196 -0.00528133 0 0.00430293 0 0)
(0.024258 -0.00471794 0 0.00546342 0 0)
(0.0250955 -0.00481665 0 0.00691246 0 0)
(0.0261501 -0.00560209 0 0.00869012 0 0)
(0.0270031 -0.00675931 0 0.0108606 0 0)
(0.0278276 -0.00813985 0 0.0135393 0 0)
(0.0286929 -0.00977423 0 0.016879 0 0)
(0.0295996 -0.0117542 0 0.0210871 0 0)
(0.0304956 -0.0141628 0 0.0263897 0 0)
(0.0312446 -0.0169965 0 0.0330925 0 0)
(0.0316726 -0.0201755 0 0.0414705 0 0)
(0.0315495 -0.0234823 0 0.0519199 0 0)
(0.0307337 -0.0266372 0 0.064611 0 0)
(0.0290095 -0.0291605 0 0.0799272 0 0)
(0.0266014 -0.0306406 0 0.0975349 0 0)
(0.0231463 -0.0303846 0 0.117759 0 0)
(0.004384 -0.000860634 0 0.00299566 0 0)
(0.0275236 -0.00573559 0 0.00376381 0 0)
(0.0262461 -0.00605244 0 0.00476091 0 0)
(0.0236883 -0.00535084 0 0.00611221 0 0)
(0.0241994 -0.00528728 0 0.00771316 0 0)
(0.02494 -0.00592046 0 0.009627 0 0)
(0.0255071 -0.00692406 0 0.0119632 0 0)
(0.0260238 -0.00810765 0 0.0148355 0 0)
(0.0264916 -0.00944691 0 0.0183701 0 0)
(0.0268753 -0.0109816 0 0.022737 0 0)
(0.0271241 -0.0127431 0 0.0281115 0 0)
(0.0271433 -0.0146747 0 0.0347206 0 0)
(0.026826 -0.0166608 0 0.0427295 0 0)
(0.0260563 -0.0184645 0 0.0523999 0 0)
(0.0248106 -0.0198606 0 0.0637575 0 0)
(0.0230258 -0.0204552 0 0.0770617 0 0)
(0.0209696 -0.020035 0 0.0919166 0 0)
(0.0183946 -0.0180659 0 0.108635 0 0)
(0.00466626 -0.000961079 0 0.00318823 0 0)
(0.027387 -0.00572419 0 0.0038003 0 0)
(0.02563 -0.00613604 0 0.00472502 0 0)
(0.0227496 -0.00536864 0 0.00609933 0 0)
(0.0229936 -0.00518565 0 0.00778805 0 0)
(0.0234745 -0.00570438 0 0.00980408 0 0)
(0.0237945 -0.00654473 0 0.0122342 0 0)
(0.0240415 -0.00744589 0 0.0151839 0 0)
(0.0241581 -0.00833857 0 0.0187559 0 0)
(0.0240788 -0.00923471 0 0.0230786 0 0)
(0.0237767 -0.0101455 0 0.0282714 0 0)
(0.0232284 -0.0110017 0 0.0344897 0 0)
(0.0224203 -0.0116935 0 0.0418165 0 0)
(0.0213502 -0.0120153 0 0.0504171 0 0)
(0.0200679 -0.0118111 0 0.0602262 0 0)
(0.0186094 -0.0107859 0 0.0714064 0 0)
(0.0172051 -0.00886292 0 0.083549 0 0)
(0.0156856 -0.00564907 0 0.0969463 0 0)
(0.00497607 -0.000973658 0 0.00330488 0 0)
(0.0279435 -0.00594995 0 0.00403225 0 0)
(0.0258504 -0.00642907 0 0.00510719 0 0)
(0.0226064 -0.00556454 0 0.00659946 0 0)
(0.0225256 -0.00521711 0 0.00835289 0 0)
(0.0226706 -0.00553418 0 0.0104199 0 0)
(0.0226104 -0.0061037 0 0.012864 0 0)
(0.0224475 -0.00662062 0 0.0157541 0 0)
(0.0221697 -0.00699208 0 0.0191676 0 0)
(0.021755 -0.00722983 0 0.0231978 0 0)
(0.021199 -0.00735009 0 0.027915 0 0)
(0.0205048 -0.00729165 0 0.033411 0 0)
(0.019682 -0.00695883 0 0.0397024 0 0)
(0.0187754 -0.00618079 0 0.0468771 0 0)
(0.0178507 -0.00485143 0 0.0548192 0 0)
(0.0169966 -0.00276654 0 0.0636427 0 0)
(0.016393 6.24983e-05 0 0.0729681 0 0)
(0.0159492 0.00391037 0 0.0830869 0 0)
(0.00453803 -0.000917643 0 0.00337812 0 0)
(0.0272713 -0.00611235 0 0.00398063 0 0)
(0.025133 -0.00652778 0 0.00472206 0 0)
(0.0217326 -0.00565293 0 0.00600134 0 0)
(0.0213469 -0.00528485 0 0.00762058 0 0)
(0.0210698 -0.00541868 0 0.00954411 0 0)
(0.0205897 -0.00563692 0 0.011779 0 0)
(0.0201009 -0.00569462 0 0.0143536 0 0)
(0.0196199 -0.00553354 0 0.017311 0 0)
(0.0191216 -0.00516351 0 0.0207101 0 0)
(0.018598 -0.00458269 0 0.024592 0 0)
(0.0180615 -0.00373497 0 0.0290115 0 0)
(0.017535 -0.00254769 0 0.0339585 0 0)
(0.0170885 -0.000911493 0 0.0394765 0 0)
(0.0167916 0.00122773 0 0.0454471 0 0)
(0.0167494 0.00398105 0 0.0519489 0 0)
(0.0170871 0.00730815 0 0.0586788 0 0)
(0.0177618 0.0113627 0 0.0658791 0 0)
(0.00467846 -0.000680467 0 0.00323571 0 0)
(0.0275798 -0.00563609 0 0.00388773 0 0)
(0.0248927 -0.00578736 0 0.0045174 0 0)
(0.0211436 -0.00456463 0 0.00560869 0 0)
(0.0205718 -0.003765 0 0.00696619 0 0)
(0.0200758 -0.00344955 0 0.00855995 0 0)
(0.0194147 -0.00322643 0 0.0104017 0 0)
(0.018864 -0.00283117 0 0.0124937 0 0)
(0.018453 -0.0021679 0 0.0148358 0 0)
(0.0181491 -0.00122766 0 0.0174429 0 0)
(0.017946 -2.18207e-05 0 0.0203239 0 0)
(0.0178678 0.00146645 0 0.0235045 0 0)
(0.0179488 0.00326351 0 0.0269669 0 0)
(0.0182673 0.00542505 0 0.0307319 0 0)
(0.0188839 0.0079608 0 0.034706 0 0)
(0.0198925 0.0109299 0 0.0389453 0 0)
(0.0213639 0.014269 0 0.0432366 0 0)
(0.023284 0.0180801 0 0.0477495 0 0)
(0.00471808 -0.000908473 0 0.00343628 0 0)
(0.0269407 -0.00528241 0 0.00381322 0 0)
(0.0239209 -0.00512916 0 0.00420692 0 0)
(0.0200795 -0.00391006 0 0.00508065 0 0)
(0.0193247 -0.00308588 0 0.00611544 0 0)
(0.0187148 -0.00265545 0 0.00729037 0 0)
(0.018027 -0.00227681 0 0.00862834 0 0)
(0.0174937 -0.00172006 0 0.0101221 0 0)
(0.0171357 -0.000898048 0 0.0117735 0 0)
(0.0169422 0.000195772 0 0.013604 0 0)
(0.0169397 0.00154781 0 0.015618 0 0)
(0.0171809 0.0031591 0 0.0178175 0 0)
(0.0177161 0.00503528 0 0.0201729 0 0)
(0.0186114 0.00719741 0 0.0226893 0 0)
(0.0199153 0.00963809 0 0.0252964 0 0)
(0.0216792 0.0123814 0 0.0280322 0 0)
(0.0239496 0.0153758 0 0.030757 0 0)
(0.0266934 0.0186762 0 0.0335772 0 0)
(0.00470958 -0.000710877 0 0.00315859 0 0)
(0.0268135 -0.00462344 0 0.00323591 0 0)
(0.0236342 -0.00426341 0 0.00341839 0 0)
(0.0197755 -0.00292048 0 0.00400825 0 0)
(0.0190146 -0.00197817 0 0.00478383 0 0)
(0.0183817 -0.00140162 0 0.0056636 0 0)
(0.0177395 -0.000859299 0 0.00662533 0 0)
(0.0173663 -0.00014565 0 0.00766105 0 0)
(0.0172736 0.000805108 0 0.00877363 0 0)
(0.0174271 0.00198706 0 0.00997618 0 0)
(0.0178547 0.00337694 0 0.0112744 0 0)
(0.0186209 0.00496584 0 0.0126747 0 0)
(0.0197822 0.00675464 0 0.0141606 0 0)
(0.0213897 0.0087581 0 0.0157379 0 0)
(0.0234737 0.0109707 0 0.0173645 0 0)
(0.0260599 0.0134069 0 0.0190655 0 0)
(0.029175 0.0160249 0 0.0207567 0 0)
(0.0327782 0.0188607 0 0.0225087 0 0)
(0.00424563 -0.000498664 0 0.0029498 0 0)
(0.0262899 -0.00381548 0 0.00254881 0 0)
(0.0230076 -0.00364902 0 0.00262697 0 0)
(0.0191234 -0.00250407 0 0.00306132 0 0)
(0.018359 -0.00159205 0 0.00363717 0 0)
(0.01776 -0.000984887 0 0.00430817 0 0)
(0.0171967 -0.000437365 0 0.00504762 0 0)
(0.0169315 0.000249953 0 0.00584328 0 0)
(0.0169882 0.00116269 0 0.00669188 0 0)
(0.0173679 0.00229893 0 0.00759663 0 0)
(0.0181091 0.00362188 0 0.00855276 0 0)
(0.0192607 0.00510514 0 0.00955862 0 0)
(0.0208579 0.00673745 0 0.010601 0 0)
(0.0229396 0.008528 0 0.0116849 0 0)
(0.0255241 0.0104725 0 0.0127823 0 0)
(0.0286372 0.0125886 0 0.0139167 0 0)
(0.0322935 0.0148341 0 0.0150274 0 0)
(0.0364713 0.0172448 0 0.0161651 0 0)
(0.00473285 -0.000631375 0 0.00264503 0 0)
(0.0260513 -0.00344825 0 0.00229732 0 0)
(0.0227496 -0.00307861 0 0.00223025 0 0)
(0.0188936 -0.00193501 0 0.00241681 0 0)
(0.0180662 -0.00109111 0 0.00272142 0 0)
(0.0173534 -0.000544332 0 0.00308399 0 0)
(0.0167148 -4.97872e-05 0 0.00346615 0 0)
(0.0164988 0.00055534 0 0.00386495 0 0)
(0.0167451 0.00132695 0 0.00430348 0 0)
(0.0174086 0.0022578 0 0.00480002 0 0)
(0.0184845 0.00332201 0 0.00535041 0 0)
(0.0199937 0.00450139 0 0.00594143 0 0)
(0.0219589 0.00579092 0 0.00655477 0 0)
(0.0244092 0.00719724 0 0.00718978 0 0)
(0.0273728 0.00871483 0 0.00782919 0 0)
(0.0308658 0.0103503 0 0.00849011 0 0)
(0.0349148 0.0120743 0 0.00913824 0 0)
(0.0394699 0.0139002 0 0.0098016 0 0)
(0.00496371 -0.000859352 0 0.00237392 0 0)
(0.0259132 -0.00322064 0 0.00204687 0 0)
(0.0219427 -0.0024679 0 0.00195543 0 0)
(0.0180811 -0.00120955 0 0.00211681 0 0)
(0.0176087 -0.000302865 0 0.00237435 0 0)
(0.0172607 0.000284033 0 0.00266193 0 0)
(0.0169408 0.000789909 0 0.00295384 0 0)
(0.0170585 0.00138277 0 0.0032491 0 0)
(0.017713 0.00212231 0 0.00355617 0 0)
(0.0188647 0.00299629 0 0.00388428 0 0)
(0.0204737 0.00397573 0 0.00423194 0 0)
(0.0225364 0.00504232 0 0.0045961 0 0)
(0.0250767 0.00618839 0 0.00497096 0 0)
(0.0281351 0.00741725 0 0.00535911 0 0)
(0.0317374 0.00871745 0 0.00574616 0 0)
(0.0358894 0.0100927 0 0.00614649 0 0)
(0.040601 0.0115151 0 0.00653483 0 0)
(0.0458229 0.01301 0 0.00692662 0 0)
(0.00516122 -0.000723136 0 0.00214137 0 0)
(0.0259381 -0.00281237 0 0.00166269 0 0)
(0.0215252 -0.00216376 0 0.00140938 0 0)
(0.0174712 -0.001218 0 0.00141655 0 0)
(0.016903 -0.000551074 0 0.00150033 0 0)
(0.0164966 -0.00013384 0 0.00157894 0 0)
(0.0162144 0.000201568 0 0.00166039 0 0)
(0.0164729 0.000585772 0 0.00177978 0 0)
(0.0173064 0.0010804 0 0.00194392 0 0)
(0.0186194 0.00168679 0 0.00213413 0 0)
(0.0203786 0.00237591 0 0.0023321 0 0)
(0.022619 0.00312358 0 0.00253199 0 0)
(0.0253973 0.00391837 0 0.00273181 0 0)
(0.028751 0.0047606 0 0.00293436 0 0)
(0.0326928 0.00564658 0 0.00313438 0 0)
(0.0371997 0.00657828 0 0.00334193 0 0)
(0.0422709 0.00753714 0 0.00354469 0 0)
(0.0478282 0.00854261 0 0.00375081 0 0)
(0.00531892 -0.000619228 0 0.00187895 0 0)
(0.0257252 -0.00219656 0 0.00116406 0 0)
(0.0208766 -0.00182107 0 0.000930204 0 0)
(0.0168942 -0.000988642 0 0.00102343 0 0)
(0.0164633 -0.000292697 0 0.00111425 0 0)
(0.0161848 0.000148311 0 0.00115564 0 0)
(0.0161378 0.000478809 0 0.00118619 0 0)
(0.016753 0.00083314 0 0.0012368 0 0)
(0.0180246 0.00127028 0 0.00130858 0 0)
(0.019832 0.00178931 0 0.00139215 0 0)
(0.0221422 0.00236746 0 0.00148094 0 0)
(0.0249984 0.0029873 0 0.00157295 0 0)
(0.0284541 0.00363925 0 0.0016672 0 0)
(0.0325309 0.0043194 0 0.00176611 0 0)
(0.0372211 0.00501905 0 0.00186681 0 0)
(0.0424824 0.00574014 0 0.00197553 0 0)
(0.0483131 0.00646791 0 0.0020855 0 0)
(0.0546274 0.00722059 0 0.00220203 0 0)
(0.00369076 -0.000554983 0 0.00155157 0 0)
(0.0238634 -0.00111167 0 0.000738932 0 0)
(0.0191992 -0.000697086 0 0.000453405 0 0)
(0.0156579 -0.000231456 0 0.000445498 0 0)
(0.0155873 0.000119619 0 0.000451207 0 0)
(0.0156189 0.000298869 0 0.000456812 0 0)
(0.0158849 0.000414148 0 0.000476426 0 0)
(0.0168294 0.000552653 0 0.000504866 0 0)
(0.0184596 0.000744113 0 0.000536347 0 0)
(0.0206784 0.000982 0 0.000568868 0 0)
(0.0234783 0.00125153 0 0.000602486 0 0)
(0.026903 0.00154125 0 0.000639058 0 0)
(0.0309808 0.0018451 0 0.000679546 0 0)
(0.0356942 0.00216132 0 0.000725688 0 0)
(0.0410106 0.00248611 0 0.000776621 0 0)
(0.0468703 0.00282163 0 0.00083457 0 0)
(0.0532823 0.00315706 0 0.00089602 0 0)
(0.0601555 0.00350417 0 0.000962607 0 0)
(0.00540248 -0.000597808 0 0.00111272 0 0)
(0.0239207 -0.00123093 0 0.00046856 0 0)
(0.0185781 -0.000916577 0 0.000406205 0 0)
(0.0156248 -0.000329038 0 0.000397775 0 0)
(0.0160604 5.5487e-05 0 0.000348186 0 0)
(0.0165009 0.0002486 0 0.000302201 0 0)
(0.0173533 0.000389432 0 0.000279811 0 0)
(0.0190862 0.00053375 0 0.000272705 0 0)
(0.0216131 0.000678326 0 0.000273131 0 0)
(0.02476 0.000818275 0 0.000278021 0 0)
(0.0284845 0.000959874 0 0.00028722 0 0)
(0.032826 0.00111047 0 0.00030126 0 0)
(0.0378077 0.00127379 0 0.000320414 0 0)
(0.0434166 0.00144823 0 0.000344585 0 0)
(0.049604 0.00162692 0 0.000373026 0 0)
(0.0563227 0.00180181 0 0.000407754 0 0)
(0.063559 0.00196246 0 0.000447657 0 0)
(0.0712462 0.00211211 0 0.000491856 0 0)
(0.00369282 -6.55257e-05 0 0.0008723 0 0)
(0.0222734 0.000196778 0 0.000218702 0 0)
(0.0171702 1.20834e-05 0 0.000165049 0 0)
(0.0146118 6.035e-05 0 0.000162161 0 0)
(0.0154335 3.88344e-05 0 0.000170228 0 0)
(0.0162801 -4.56936e-05 0 0.000179671 0 0)
(0.0174848 -0.000149068 0 0.000189427 0 0)
(0.0194359 -0.000256576 0 0.000200372 0 0)
(0.0219873 -0.000365873 0 0.000213535 0 0)
(0.0249268 -0.000471575 0 0.000228541 0 0)
(0.0281682 -0.000564969 0 0.000244482 0 0)
(0.031733 -0.000640687 0 0.000261093 0 0)
(0.0356213 -0.000695385 0 0.000278863 0 0)
(0.0398571 -0.000728826 0 0.000298908 0 0)
(0.0443654 -0.000741647 0 0.000321431 0 0)
(0.0491804 -0.000738915 0 0.000348212 0 0)
(0.0541882 -0.000723958 0 0.00037926 0 0)
(0.059502 -0.000699463 0 0.000413073 0 0)
(0.00475998 -0.000325056 0 0.000701085 0 0)
(0.0239939 -9.41483e-05 0 0.000226118 0 0)
(0.0211143 1.42943e-05 0 0.000140192 0 0)
(0.0202109 0.000123585 0 0.00010069 0 0)
(0.0220991 0.000141035 0 7.93123e-05 0 0)
(0.0238053 0.000155198 0 6.71656e-05 0 0)
(0.0254844 0.000187115 0 5.96398e-05 0 0)
(0.0275509 0.000224016 0 5.60835e-05 0 0)
(0.030125 0.000257335 0 5.56748e-05 0 0)
(0.0332171 0.000288348 0 5.7532e-05 0 0)
(0.0368205 0.000323747 0 6.12787e-05 0 0)
(0.0409339 0.0003707 0 6.6499e-05 0 0)
(0.0455951 0.000434392 0 7.25932e-05 0 0)
(0.0508628 0.00051519 0 7.90214e-05 0 0)
(0.0568363 0.000608644 0 8.57199e-05 0 0)
(0.0635027 0.00070825 0 9.3207e-05 0 0)
(0.0709698 0.000809884 0 0.000100716 0 0)
(0.0790523 0.000917242 0 0.000107341 0 0)
(0.00027136 -0.000653325 1.43322e-22 0.00160468 -2.79405e-22 2.22681e-37)
(0.00381443 -0.00334221 -4.05129e-22 0.00300125 2.35183e-22 2.19566e-37)
(0.013317 -0.00679887 0 0.00355324 0 0)
(0.0288964 -0.0102642 0 0.0037217 0 0)
(0.050762 -0.0136938 0 0.0037571 0 0)
(0.0792537 -0.0172034 1.37857e-21 0.0037841 -2.25411e-22 2.06814e-37)
(0.114687 -0.0208654 0 0.00383577 0 0)
(0.157509 -0.0247011 0 0.00390853 0 0)
(0.208129 -0.0286694 0 0.00398595 0 0)
(0.266867 -0.0326745 0 0.00404731 0 0)
(0.333813 -0.0365632 -2.59104e-21 0.00407058 2.31563e-22 1.91567e-37)
(0.408667 -0.0401238 0 0.00403508 0 0)
(0.490669 -0.0430791 0 0.00392207 0 0)
(0.578333 -0.0451244 0 0.00372481 0 0)
(0.669654 -0.0459262 0 0.00344729 0 0)
(0.761549 -0.0452141 -3.80482e-21 0.00311956 2.53052e-22 1.77068e-37)
(0.851016 -0.0427826 0 0.00278988 0 0)
(0.933531 -0.0386109 0 0.00253653 0 0)
(1.00694 -0.0328624 0 0.0024522 0 0)
(1.06616 -0.0259489 0 0.00263832 0 0)
(1.10932 -0.0188879 0 0.00317008 0 0)
(1.13672 -0.012926 0 0.0040488 0 0)
(1.15134 -0.00957661 0 0.00517212 0 0)
(1.15862 -0.0101064 -6.26519e-21 0.00634909 3.4395e-22 1.55399e-37)
(1.16568 -0.0151568 6.62771e-21 0.0074504 -3.42011e-22 1.52823e-37)
(1.17986 -0.0250911 -6.99007e-21 0.00842868 3.32964e-22 1.50275e-37)
(1.20698 -0.0376812 -7.34838e-21 0.00987482 3.22737e-22 1.47757e-37)
(1.2524 -0.0513673 0 0.0126109 0 0)
(1.32256 -0.069946 0 0.017198 0 0)
(1.41569 -0.09266 8.36587e-21 0.025143 -2.77855e-22 1.40378e-37)
(1.52188 -0.109841 8.7008e-21 0.0348283 -2.70711e-22 1.37976e-37)
(1.63244 -0.109757 0 0.0370444 0 0)
(1.74441 -0.0921133 0 0.0285176 0 0)
(1.85949 -0.0738612 9.76822e-21 0.0228323 -3.72952e-22 1.30946e-37)
(1.99524 -0.0751274 0 0.0264186 0 0)
(2.17769 -0.0943285 0 0.0281293 0 0)
(2.41065 -0.115236 -1.07994e-20 0.0263294 3.44858e-22 1.24178e-37)
(2.68629 -0.131769 0 0.0235067 0 0)
(2.99386 -0.143027 -1.13578e-20 0.0204477 2.90952e-22 1.19809e-37)
(3.32253 -0.149085 -2.31902e-20 0.0174866 5.26192e-22 4.70673e-37)
(3.66207 -0.150437 0 0.014769 0 0)
(4.00298 -0.147676 0 0.0123417 0 0)
(4.33665 -0.141409 0 0.0102088 0 0)
(4.6553 -0.132202 0 0.00835294 0 0)
(4.95188 -0.120582 0 0.00675175 0 0)
(5.22021 -0.107023 -2.47186e-20 0.00538216 2.08845e-22 4.2167e-37)
(5.45524 -0.0919886 -2.47306e-20 0.00422716 1.61787e-22 4.13895e-37)
(5.65294 -0.0759215 -2.46701e-20 0.00327195 1.17172e-22 4.0623e-37)
(5.81019 -0.0593351 0 0.00250675 0 0)
(5.92518 -0.0427619 2.43368e-20 0.00191879 -3.69424e-23 3.91228e-37)
(5.99731 -0.026754 0 0.00149262 0 0)
(6.02714 -0.0117663 -2.37425e-20 0.00120507 -2.82153e-23 3.76659e-37)
(6.01836 0.00191657 -2.33623e-20 0.00102811 -5.45532e-23 3.69534e-37)
(5.97271 0.0141884 0 0.000934766 0 0)
(5.89433 0.0249322 0 0.000902838 0 0)
(5.78677 0.0341072 0 0.000913242 0 0)
(5.65444 0.0417218 -2.14537e-20 0.000949503 -1.21773e-22 3.42086e-37)
(5.50131 0.0478161 0 0.00100015 0 0)
(5.33149 0.0525046 0 0.0010548 0 0)
(5.1486 0.0559322 0 0.00110782 0 0)
(4.95599 0.0582693 0 0.0011552 0 0)
(4.75646 0.0596934 0 0.00119608 0 0)
(4.55242 0.0603846 0 0.0012296 0 0)
(4.34577 0.0605115 0 0.00125615 0 0)
(4.13795 0.0602282 0 0.00127536 0 0)
(3.92999 0.0596738 1.66296e-20 0.00128756 1.3075e-22 2.86217e-37)
(3.72253 0.058966 0 0.00129204 0 0)
(3.51585 0.0581971 0 0.00128947 0 0)
(3.31001 0.0574169 -1.51907e-20 0.00128148 -1.19864e-22 2.69312e-37)
(3.10504 0.056621 -1.47371e-20 0.00127076 -1.16199e-22 2.6386e-37)
(2.90116 0.0557481 0 0.00126052 0 0)
(2.69891 0.0546965 1.38688e-20 0.00125259 1.08567e-22 2.53221e-37)
(2.49923 0.0533615 -1.34549e-20 0.00124661 -1.04368e-22 2.48033e-37)
(2.30337 0.0516668 0 0.00123978 0 0)
(2.11284 0.0495761 1.26709e-20 0.00122698 9.49138e-23 2.37915e-37)
(1.92916 0.0471013 0 0.00120306 0 0)
(1.75373 0.0443061 0 0.00116552 0 0)
(1.58764 0.0412672 -1.1615e-20 0.00111377 -7.84536e-23 2.23364e-37)
(1.43167 0.0380764 0 0.00105016 0 0)
(1.28643 0.0348013 1.09946e-20 0.000976883 6.69078e-23 2.1407e-37)
(1.15229 0.0315047 0 0.000896402 0 0)
(1.02945 0.0282556 -1.04393e-20 0.000811647 -5.56025e-23 2.0509e-37)
(0.917886 0.0251038 -1.0185e-20 0.000724517 -5.01949e-23 2.00716e-37)
(0.817325 0.0221048 -9.94528e-21 0.000637677 -4.50234e-23 1.96417e-37)
(0.72732 0.0193004 -1.94386e-20 0.000553433 -8.02572e-23 7.68771e-37)
(0.647272 0.0167235 1.90124e-20 0.000473977 7.10676e-23 7.52169e-37)
(0.576442 0.0143877 0 0.000400728 0 0)
(0.514046 0.0122962 0 0.000334627 0 0)
(0.459315 0.0104454 0 0.00027624 0 0)
(0.411397 0.0088188 1.75288e-20 0.000225385 4.06973e-23 6.88617e-37)
(0.369518 0.00739634 1.72047e-20 0.000181571 3.46299e-23 6.73424e-37)
(0.333005 0.0061623 -1.68963e-20 0.000144465 -2.91174e-23 6.58501e-37)
(0.301232 0.00509737 0 0.00011344 0 0)
(0.273625 0.00418254 1.63218e-20 8.78226e-05 1.96269e-23 6.29449e-37)
(0.249669 0.00339984 1.60535e-20 6.69373e-05 1.55864e-23 6.15313e-37)
(0.228903 0.00273265 1.57963e-20 5.01395e-05 1.19736e-23 6.01431e-37)
(0.21092 0.00216589 0 3.683e-05 0 0)
(0.19536 0.00168605 0 2.64626e-05 0 0)
(0.181906 0.00128112 0 1.85464e-05 0 0)
(0.170282 0.000940518 1.48633e-20 1.2645e-05 1.20168e-24 5.48374e-37)
(0.160247 0.000654961 0 8.37474e-06 0 0)
(0.151591 0.000416321 0 5.402e-06 0 0)
(0.144132 0.000217525 -1.42441e-20 3.44104e-06 3.75851e-24 5.11072e-37)
(0.137713 5.24484e-05 0 2.2508e-06 0 0)
(0.132198 -8.41767e-05 0 1.63184e-06 0 0)
(0.12747 -0.000196867 -1.36768e-20 1.42262e-06 6.75379e-24 4.75798e-37)
(0.123431 -0.000289462 0 1.49496e-06 0 0)
(0.119993 -0.000365196 0 1.74962e-06 0 0)
(0.117084 -0.00042676 1.31498e-20 2.11122e-06 -8.3354e-24 4.42461e-37)
(0.114641 -0.000476407 1.29815e-20 2.52367e-06 -8.62615e-24 4.31763e-37)
(0.112612 -0.000515948 0 2.94605e-06 0 0)
(0.110949 -0.000546859 -1.26541e-20 3.34887e-06 8.93502e-24 4.1097e-37)
(0.109613 -0.000570392 0 3.71191e-06 0 0)
(0.10857 -0.000587453 1.23377e-20 4.02029e-06 -8.94514e-24 3.9096e-37)
(0.107789 -0.000598804 0 4.26468e-06 0 0)
(0.107241 -0.000605248 1.20306e-20 4.44236e-06 -8.71953e-24 3.71708e-37)
(0.106902 -0.000607161 1.18801e-20 4.54877e-06 -8.53718e-24 3.62358e-37)
(0.106749 -0.000605153 0 4.58801e-06 0 0)
(0.106761 -0.00060006 0 4.57265e-06 0 0)
(0.106916 -0.000591402 0 4.49195e-06 0 0)
(0.107194 -0.000578555 0 4.33224e-06 0 0)
(0.107572 -0.000561913 0 4.10239e-06 0 0)
(0.108033 -0.000542128 0 3.81869e-06 0 0)
(0.108558 -0.000519851 0 3.49827e-06 0 0)
(0.109133 -0.000495773 1.07308e-20 3.15898e-06 -6.04589e-24 2.9383e-37)
(0.109743 -0.000470577 -1.05923e-20 2.81709e-06 5.68374e-24 2.86006e-37)
(0.110379 -0.000444838 0 2.48515e-06 0 0)
(0.111031 -0.000419033 0 2.172e-06 0 0)
(0.111692 -0.000393551 0 1.88351e-06 0 0)
(0.112357 -0.000368716 0 1.6231e-06 0 0)
(0.113021 -0.000344762 -1.98247e-20 1.39172e-06 8.15241e-24 9.96715e-37)
(0.11368 -0.000321823 0 1.18822e-06 0 0)
(0.114333 -0.000299937 1.92914e-20 1.01018e-06 -7.11383e-24 9.41887e-37)
(0.114978 -0.000279127 -1.90268e-20 8.5512e-07 6.6472e-24 9.15314e-37)
(0.115612 -0.000259453 0 7.21233e-07 0 0)
(0.116236 -0.00024105 0 6.07335e-07 0 0)
(0.116849 -0.000224005 0 5.11765e-07 0 0)
(0.117451 -0.000208337 1.79826e-20 4.32313e-07 -5.13121e-24 8.14414e-37)
(0.118042 -0.000193953 1.7725e-20 3.66238e-07 -4.8333e-24 7.90493e-37)
(0.118622 -0.000180746 0 3.11163e-07 0 0)
(0.119189 -0.000168638 1.72139e-20 2.65239e-07 -4.3157e-24 7.44159e-37)
(0.119745 -0.000157547 1.69603e-20 2.26927e-07 -4.09181e-24 7.21729e-37)
(0.120289 -0.000147415 -1.67081e-20 1.9501e-07 3.88755e-24 6.9978e-37)
(0.120822 -0.000138202 0 1.68529e-07 0 0)
(0.121344 -0.000129896 0 1.46735e-07 0 0)
(0.121856 -0.000122495 -1.59597e-20 1.28991e-07 3.37877e-24 6.36741e-37)
(0.122359 -0.000115995 0 1.14708e-07 0 0)
(0.122854 -0.000110361 0 1.03293e-07 0 0)
(0.123343 -0.000105525 0 9.41716e-08 0 0)