/*--------------------------------*- C++ -*----------------------------------*\
  =========                 |
  \\      /  F ield         | OpenFOAM: The Open Source CFD Toolbox
   \\    /   O peration     | Website:  https://openfoam.org
    \\  /    A nd           | Version:  7
     \\/     M anipulation  |
\*---------------------------------------------------------------------------*/
FoamFile
{
    version     2.0;
    format      ascii;
    class       volScalarField;
    location    "6";
    object      p;
}
// * * * * * * * * * * * * * * * * * * * * * * * * * * * * * * * * * * * * * //

dimensions      [0 2 -2 0 0 0 0];

internalField   nonuniform List<scalar> 
918
(
4.44726
17.5422
0.227225
4.37144
0.156384
16.6353
1.51008
3.00599
3.91124
0.902834
0.750869
3.24932
12.6452
6.80383
1.90405
0.266162
3.12295
0.722665
3.80989
0.279823
2.51349
4.07611
4.20128
3.93147
3.1715
3.8496
9.36035
0.285504
0.0352046
0.138797
0.139541
0.0916712
0.0655552
14.0238
15.1584
15.6116
3.47884
1.44666
1.67683
1.76489
1.42956
1.2733
3.01347
3.0319
2.14976
2.994
2.98408
3.61829
3.89535
3.91244
3.95776
3.92106
3.96783
1.57177
0.877136
0.84251
0.936039
0.961225
0.8459
0.802569
0.838195
0.717354
0.679241
3.22649
3.27374
3.29558
3.23243
3.22095
15.8134
14.8798
15.5098
13.4571
13.8099
11.839
11.0636
7.33466
7.80531
6.3166
5.75219
1.4396
1.14889
2.25508
2.68514
0.0307259
0.325712
0.375641
3.12918
3.1395
3.11478
3.10559
2.22105
0.791928
0.835129
3.73952
3.69247
4.0698
4.12046
4.00197
4.02112
0.34714
0.39217
0.247132
0.246345
0.195946
2.79777
2.89768
3.88351
3.79884
3.20375
3.17525
3.18853
2.88637
3.14691
3.15066
4.9669
5.32037
4.43121
4.90196
8.74864
8.10542
10.1173
10.8052
0.106785
0.0405235
0.214267
0.116365
0.17292
3.45108
3.41603
3.48392
3.50294
3.53056
1.25518
1.05909
1.55289
1.64722
1.86095
1.91967
0.937593
1.17469
1.03114
2.19149
3.04239
3.05559
1.99406
2.10517
2.03945
2.22842
2.28752
3.54923
3.59613
3.56614
3.72716
3.64429
3.68027
3.98652
3.91873
3.95838
1.67254
1.76152
1.49817
1.41604
0.735647
0.799001
0.765378
0.968032
0.961945
0.916685
0.972995
0.78979
0.753236
0.937737
0.875289
0.912683
0.635047
0.592745
3.19728
3.16826
3.2676
3.30327
3.39013
3.36702
3.3169
3.34473
9.88278
10.4088
10.5489
9.92225
0.0275359
-0.780263
3.04083
3.35898
0.066541
0.0560245
0.0316566
0.0852226
0.0732622
0.0311345
0.561196
0.520115
0.422398
0.482129
3.14416
3.14671
2.27024
2.31814
2.17561
2.10859
3.5755
3.59222
3.65325
3.61345
0.542942
0.44059
0.495738
2.96618
2.92469
2.95298
2.82272
2.75277
2.9549
3.00768
3.14998
3.15436
3.15199
5.33509
5.71238
11.1071
11.5266
11.5964
12.1594
13.7965
13.5405
12.5383
3.33347
3.3907
3.36603
3.55481
3.50726
3.53471
3.40938
3.45897
3.42971
0.873715
0.729134
1.92832
1.86008
1.70472
1.77924
2.25491
2.29636
3.09117
3.06481
3.08119
2.35982
2.41666
1.33172
1.25884
3.04549
3.12948
3.08219
9.24
8.3291
9.38466
8.82408
8.15518
8.63602
0.436726
-0.286869
0.14795
4.53139
3.72795
4.15463
0.698747
0.593584
0.630676
2.35766
2.36893
1.85309
2.02629
1.9486
6.08733
6.58084
7.51496
6.30201
6.92308
7.51733
7.21868
2.13092
2.00471
2.06647
2.3729
2.39325
2.66534
2.48878
2.55921
1.03246
1.18214
1.107
2.39066
2.40332
2.39456
3.84227
3.90536
0.183088
0.260768
3.95254
3.92942
0.0432209
0.102593
3.73242
1.65798
2.34054
3.66666
3.61091
3.88037
0.965031
1.60225
0.800332
0.922114
0.708829
3.27469
3.26245
3.12992
0.117356
0.33695
0.363334
0.954784
3.80789
3.73321
3.86548
3.90325
3.90654
0.159675
0.194149
0.131776
0.304739
0.232416
0.273768
3.45909
3.4616
1.77215
3.86441
3.90114
3.90364
3.71653
3.83156
3.72543
0.274003
0.188608
0.219898
2.7155
2.96371
3.61
3.18015
3.5383
3.4982
3.21037
4.46743
3.99227
4.01778
4.46859
3.03592
2.9891
2.39327
2.21826
2.45375
2.43391
3.65066
3.61571
3.58643
3.56618
3.76942
3.71551
3.81451
3.7389
3.79213
3.83042
1.00442
0.986743
0.976059
0.864573
1.64673
1.79015
1.4903
1.48988
1.16647
0.751549
0.730821
0.819553
0.849038
0.880617
0.744069
0.841417
0.778063
0.643239
0.62462
0.836594
0.761763
0.793559
3.28692
3.30397
3.24261
3.2364
3.28874
3.32616
3.16636
3.23715
3.19922
3.00423
3.10089
3.04645
0.151261
0.154501
0.124298
0.370449
0.411167
0.274747
0.215417
0.27836
0.249597
0.211871
0.370142
0.407686
1.12827
1.04398
2.32542
2.13827
1.88411
3.62942
3.70803
3.63202
3.75982
3.81312
3.82802
3.78214
3.72218
3.48062
3.5003
3.42965
3.41939
1.86524
1.55593
1.92561
1.92578
1.665
3.14791
2.93773
2.80064
2.84412
3.07219
3.55156
2.73538
2.63604
2.61518
2.00332
2.91315
2.29111
2.77382
2.59333
5.33123
5.73775
5.33567
4.83646
4.91258
0.965095
2.71322
2.08476
2.08692
2.30552
2.23284
2.9308
3.03603
3.0502
2.95529
2.9705
3.00414
2.96514
2.98368
2.99369
2.99893
2.77271
2.71529
2.58276
2.57924
3.10721
2.82759
2.884
2.88345
3.53952
3.60115
3.56398
3.47821
3.54294
3.49643
3.47369
3.49634
3.66529
3.63582
3.60672
3.6527
1.00082
0.989362
1.13918
1.07967
1.00842
0.892986
1.12179
1.41679
1.31491
1.82344
1.95109
1.39016
1.24681
1.23316
1.47787
1.59185
1.61613
1.15995
1.2313
1.34148
1.24023
1.40365
1.31474
0.839292
0.888264
0.911114
0.86606
0.960867
1.08638
1.00574
0.71957
0.770021
0.684017
0.639116
1.01866
0.959014
0.947727
1.0737
0.355401
0.393667
0.425018
0.653308
0.564053
0.60434
3.39811
3.34143
3.36921
3.19874
3.22227
3.21056
3.14724
3.42478
3.37844
3.40266
3.19499
3.22606
3.17599
3.2082
3.26761
3.29722
3.44554
3.4128
3.28028
3.31543
3.26575
3.25223
3.13908
3.0978
3.06308
0.3009
0.213375
0.262404
0.246912
0.18155
0.212956
0.59445
0.46816
0.546353
0.488019
0.541163
0.353973
0.33894
1.40159
1.53758
1.5678
1.30481
1.28117
2.3177
2.35235
2.16211
2.09435
2.15407
2.22922
2.22741
1.88438
2.02229
1.98254
2.12288
2.35133
3.70695
3.70463
3.66957
3.64816
3.66838
1.98437
2.11447
2.2052
2.27712
1.5502
1.68079
2.15507
2.07169
2.19532
1.88279
3.13269
3.14386
3.10939
3.14135
3.15266
2.90567
2.95818
3.02063
3.00681
3.08983
3.09237
3.01768
3.06022
3.05895
3.00161
2.98163
2.96977
2.97399
2.93179
2.91338
3.21926
3.20807
3.2391
3.17137
3.20313
3.10979
3.1483
3.18193
3.18794
3.10203
3.03135
3.0231
3.06424
3.06572
3.11044
3.1245
2.05026
2.22849
1.62737
1.40995
1.52658
1.00074
0.953099
1.29372
1.61781
1.09268
0.893926
0.321987
2.56719
3.45334
3.03264
3.01946
2.94857
2.94705
2.93738
2.93329
2.93354
3.07674
3.06687
3.08492
2.89995
2.92763
2.93224
2.92784
2.71656
2.61543
2.5743
2.56472
2.37264
2.408
2.70919
2.61415
2.51559
2.53296
2.9059
2.77069
2.86359
2.8624
2.74606
2.71208
2.94643
3.03727
3.06042
3.02495
2.8372
2.83199
2.8779
2.91526
2.92776
2.97718
3.51803
3.57245
3.58874
3.55944
3.53387
3.54366
3.51654
3.5375
3.58533
3.60264
3.58369
0.910226
0.937676
0.967836
0.937881
1.05823
1.04556
1.21316
1.19027
1.00015
1.0444
1.04217
1.02042
0.97543
0.96618
1.35394
1.43188
1.4739
1.37978
1.71569
1.82166
1.93333
1.88377
1.60898
1.60261
1.68258
1.01909
0.998068
0.960919
1.05032
1.07865
0.743653
0.674072
0.632011
0.746353
0.787485
0.585374
0.489223
0.52075
0.586425
0.600395
0.538328
3.39691
3.3641
3.33767
3.31404
3.32967
3.37696
3.41333
3.37506
3.39385
3.38833
3.34243
3.3241
3.34893
0.481184
0.40469
0.427944
0.47581
0.434237
0.397322
0.422228
1.94143
1.73688
1.85155
1.74388
1.47117
1.51661
1.82211
2.02816
1.98082
2.30115
2.28106
2.25515
2.13752
2.21536
2.07938
2.24731
2.15975
2.37124
2.31858
2.37727
2.26921
2.26683
2.3196
2.50611
2.16315
2.15286
2.48882
2.34099
2.3867
2.30984
2.51589
1.59936
1.72796
2.01383
2.07092
1.67668
1.8451
1.63678
1.72199
2.05699
2.14471
2.25324
3.09313
3.11248
3.11974
3.09016
3.11509
3.15654
3.12445
3.14402
3.16188
3.14378
0.970823
1.29036
0.567557
1.4952
1.79132
2.61033
2.43622
3.07686
2.92821
2.98315
2.94782
2.92004
2.88262
2.88519
2.90803
2.63805
2.77568
2.72482
2.76721
2.65712
2.57126
2.95004
2.96643
2.96689
3.00313
3.00952
3.04965
3.50251
3.48156
3.49198
3.49052
3.43489
3.43738
1.20083
1.13797
1.30175
1.30027
1.20649
1.14264
0.609146
0.571991
0.519359
0.49113
0.521729
0.563754
2.01001
1.97295
1.80328
1.9447
1.84574
1.62266
1.67608
1.79438
1.86617
2.00571
2.14384
2.32621
2.2189
2.24166
2.07784
2.15071
1.91872
1.78593
1.83066
1.96578
1.96041
2.05332
1.46155
1.7446
3.22905
3.08699
2.72276
2.43755
2.29559
2.67491
2.7651
2.69548
2.76667
2.83459
2.83275
1.68844
1.61539
2.15501
2.46115
2.07592
1.80811
1.88058
2.04114
2.13327
)
;

boundaryField
{
    wall-4
    {
        type            zeroGradient;
    }
    velocity-inlet-5
    {
        type            zeroGradient;
    }
    velocity-inlet-6
    {
        type            zeroGradient;
    }
    pressure-outlet-7
    {
        type            fixedValue;
        value           uniform 0;
    }
    wall-8
    {
        type            zeroGradient;
    }
    frontAndBackPlanes
    {
        type            empty;
    }
}


// ************************************************************************* //
