/*--------------------------------*- C++ -*----------------------------------*\
  =========                 |
  \\      /  F ield         | OpenFOAM: The Open Source CFD Toolbox
   \\    /   O peration     | Website:  https://openfoam.org
    \\  /    A nd           | Version:  7
     \\/     M anipulation  |
\*---------------------------------------------------------------------------*/
FoamFile
{
    version     2.0;
    format      ascii;
    class       volVectorField;
    location    "6";
    object      U;
}
// * * * * * * * * * * * * * * * * * * * * * * * * * * * * * * * * * * * * * //

dimensions      [0 1 -1 0 0 0 0];

internalField   nonuniform List<vector> 
918
(
(0.813671 -0.0530246 0)
(0.134464 2.47694 0)
(0.0530877 0.866856 0)
(0.756285 0.0535114 0)
(-0.0186942 0.834752 -1.96019e-19)
(-0.136691 2.25728 -2.79694e-17)
(0.336445 0.589146 -1.27497e-18)
(0.159799 0.0899059 -5.93544e-20)
(1.00269 -0.00706103 0)
(-0.0148862 0.430118 0)
(-0.00353265 0.52457 0)
(0.288683 0.00110523 0)
(0.117394 1.74037 0)
(0.00857575 1.30072 0)
(-0.00944471 1.04294 -1.62131e-18)
(0.00154555 0.524398 -2.55815e-19)
(0.19969 0.0494978 4.45303e-18)
(0.070836 0.579849 -6.82171e-19)
(0.478566 0.046936 0)
(-0.0084527 0.53671 0)
(0.246507 0.136228 -2.08939e-18)
(1.02798 -0.138146 0)
(0.960707 -0.175692 0)
(0.592022 -0.0650971 0)
(0.263018 0.013003 0)
(-0.0137186 1.46915 0)
(-0.0469597 1.72805 8.75824e-18)
(-0.0196179 1.03044 0)
(0.0334798 1.80737 0)
(0.054218 1.26765 0)
(-0.00796239 1.84693 0)
(0.00139059 1.08905 1.53758e-19)
(0.00724051 0.487283 0)
(-0.320952 2.70296 -1.05172e-21)
(-0.310509 3.10884 2.41668e-17)
(-0.0130232 3.04129 0)
(0.30885 -0.00138716 0)
(0.0441853 0.0559259 7.00839e-19)
(0.52789 0.898932 2.78011e-18)
(0.355917 0.464958 -2.23975e-18)
(0.491631 1.08713 2.76718e-19)
(0.301322 0.67067 -1.37111e-18)
(0.310479 0.169672 5.97992e-20)
(0.171849 0.0865885 0)
(0.372545 0.230087 0)
(0.297774 0.171662 2.6657e-19)
(0.155352 0.0929142 -2.6486e-19)
(0.305681 -0.00845402 0)
(1.01028 -0.000119589 0)
(1.00272 0.00665308 0)
(1.0743 -0.153362 0)
(1.01623 -0.0283958 0)
(1.01115 -0.0181928 0)
(0.00300777 0.549599 -2.83379e-18)
(-0.0259275 0.83742 0)
(0.00387636 0.431154 0)
(-0.0403465 0.878133 0)
(-0.0157469 0.459523 0)
(0.00047503 0.545713 0)
(-0.00163229 0.953825 0)
(0.00421805 0.523014 0)
(-0.0113124 0.976871 0)
(-0.00442038 0.533142 0)
(0.319458 0.00279596 0)
(0.52951 0.00518708 0)
(0.295668 0.00525457 0)
(0.525371 0.00402637 0)
(0.281749 0.00310123 0)
(0.345187 2.93892 1.10499e-17)
(0.284413 3.23577 0)
(0.22516 3.03561 0)
(0.211124 2.70618 1.19595e-22)
(0.138778 2.12556 -1.5531e-17)
(0.177562 2.4908 0)
(0.077603 1.54063 0)
(0.0172377 2.25789 1.69619e-23)
(0.0181008 1.30072 0)
(-0.0613069 2.29025 0)
(-0.0446261 1.31925 0)
(0.0122495 1.76047 0)
(-0.0185786 1.16296 0)
(0.00566718 1.90633 1.63998e-18)
(0.00239137 1.10106 0)
(-0.0026846 2.15876 0)
(0.00146169 0.953559 2.58884e-19)
(-0.00492044 0.530768 -3.36183e-19)
(0.381232 0.0868694 -1.57862e-18)
(0.201317 0.0366723 -1.51213e-18)
(0.376313 0.105839 -4.7323e-18)
(0.197749 0.0609502 -2.97418e-18)
(0.0502103 0.405515 0)
(0.165365 1.068 6.60399e-19)
(0.168144 0.655715 -1.04138e-18)
(0.671002 0.0736376 0)
(0.358479 0.0286851 0)
(1.00988 0.041699 0)
(1.0277 0.158837 0)
(0.937311 0.137571 -1.96294e-17)
(0.850135 0.1348 1.47053e-17)
(-0.00601715 0.972209 0)
(0.00728894 0.539185 0)
(-0.00785474 1.40104 0)
(-0.0258418 1.01835 0)
(-0.0262436 0.51598 0)
(0.423709 0.180716 7.0981e-19)
(0.192776 0.114287 0)
(0.749013 -0.0888192 0)
(0.417114 -0.0378327 0)
(0.509411 0.00570963 0)
(0.489373 0.0126283 0)
(0.273019 0.00354774 0)
(0.381109 0.0149885 0)
(0.41736 0.0262546 0)
(0.189491 0.0120662 6.97974e-18)
(-0.0206324 1.3507 4.79277e-18)
(-0.0501918 2.42297 0)
(-0.0695857 2.50678 0)
(-0.0184891 1.35673 0)
(-0.0665133 2.63628 8.09939e-18)
(-0.0345481 1.6294 0)
(-0.103411 2.69821 -2.64598e-17)
(-0.0733532 1.81725 8.84442e-18)
(0.02274 2.0574 0)
(0.0250143 2.12442 0)
(-0.000584727 0.950729 -6.08782e-21)
(-0.00820786 0.924959 0)
(-0.00332132 0.516794 0)
(0.560165 0.0050673 0)
(0.311775 0.00463913 0)
(0.30424 0.00312081 0)
(0.561852 -0.00257332 0)
(0.30704 0.00225906 0)
(0.167122 0.180441 -9.35705e-19)
(0.0398711 0.0518272 0)
(0.143127 0.195972 1.17237e-19)
(0.0477314 0.0771278 0)
(0.577551 0.742074 7.2805e-19)
(0.355785 0.371093 -1.59083e-18)
(0.32034 1.15057 0)
(0.431283 1.1762 0)
(0.246997 0.694006 0)
(0.0718056 0.153307 -8.87694e-19)
(0.332019 0.155904 0)
(0.180459 0.0794933 8.06249e-19)
(0.603361 0.609687 0)
(0.622432 0.486925 0)
(0.358484 0.294769 1.71276e-18)
(0.650383 0.367408 0)
(0.399286 0.172531 2.99185e-20)
(0.560757 0.0106828 0)
(0.544394 0.00199255 0)
(0.300943 0.00427628 0)
(0.636223 -0.0526837 0)
(0.566297 -0.0267902 0)
(0.342237 -0.0197669 0)
(1.02555 0.0654015 0)
(1.01233 0.027026 0)
(1.00465 0.0213379 0)
(-0.0039374 0.9679 1.52793e-18)
(0.00202351 0.533413 0)
(0.00601088 1.00902 2.74645e-18)
(0.00297952 0.566937 -2.4598e-18)
(0.0507998 0.968038 5.85143e-19)
(0.00975221 0.862663 0)
(0.0233478 0.489513 0)
(-0.0310812 0.919961 0)
(-0.0108917 0.496661 0)
(-0.00420567 0.980667 -1.19456e-20)
(-0.00958577 0.552024 0)
(-0.0114869 0.982834 -6.35307e-19)
(-0.00823482 0.537497 1.20562e-18)
(-0.0123609 0.947541 0)
(0.00758423 0.953092 0)
(-0.00306108 0.518093 0)
(-0.00724992 0.986409 0)
(-0.00248487 0.541778 0)
(0.585006 0.00463731 0)
(0.324624 0.000715899 0)
(0.571468 -0.000129184 0)
(0.319402 -0.00269053 0)
(0.303217 -0.00137687 0)
(0.555958 0.000441341 0)
(0.544172 0.0116135 0)
(0.303919 0.00256782 0)
(-0.00643512 4.03789 -7.26469e-20)
(0.060239 3.91024 0)
(0.0867858 2.35691 0)
(0.0374196 1.39786 0)
(0.208818 1.6266 0)
(0.228637 0.67156 1.15284e-19)
(0.0255367 1.99895 0)
(-0.0215156 1.1533 0)
(0.0134747 2.13928 0)
(0.000732371 2.1501 0)
(0.00702092 2.15247 0)
(-0.010175 1.90152 4.85182e-20)
(0.00328804 2.15396 0)
(-0.000498495 2.08644 0)
(0.00601075 0.530145 2.99381e-20)
(0.0125561 0.984274 4.45156e-19)
(-0.0083611 0.970622 3.50874e-19)
(0.00191293 0.538933 0)
(0.382901 0.058577 2.4497e-18)
(0.196417 0.023722 -2.35198e-18)
(0.0972348 0.73748 0)
(0.0675774 0.373186 -6.56378e-19)
(0.0786332 0.800068 -2.21237e-18)
(0.0364043 0.452933 2.164e-18)
(0.305925 -0.00165282 0)
(0.565841 -0.00357368 0)
(0.580945 0.023562 0)
(0.316553 0.00416825 0)
(0.000510783 0.988269 0)
(0.0156038 0.978153 0)
(0.00169367 0.545941 0)
(0.2928 0.177901 2.39172e-18)
(0.308309 0.182631 -2.7095e-18)
(0.157784 0.0979715 0)
(0.696007 0.0499648 2.84664e-19)
(0.413654 0.0303275 0)
(0.632401 0.0227576 0)
(0.348323 0.00335908 0)
(0.375033 0.0394044 0)
(0.370173 0.0240605 -1.14173e-17)
(0.192583 0.0150538 4.1551e-18)
(-0.026518 2.41029 5.28854e-18)
(-0.0218468 1.43841 4.52055e-19)
(0.0206423 3.94123 -1.66839e-19)
(0.126154 3.8064 7.29606e-18)
(-0.14116 2.77489 3.22753e-19)
(-0.0946641 1.99798 -1.31362e-21)
(-0.258623 3.0954 -6.80644e-18)
(0.0494143 3.53287 5.09941e-18)
(0.0129058 3.73836 -7.67066e-18)
(0.576713 -0.00327951 0)
(0.576502 0.00904727 0)
(0.317187 0.00184922 0)
(0.562656 -0.00372347 0)
(0.555588 0.00645135 0)
(0.307735 0.000610179 0)
(0.556208 -0.00536479 0)
(0.547935 0.000565423 0)
(0.301985 -0.00189469 0)
(0.129018 0.220385 -6.77649e-19)
(0.0366294 0.0957497 0)
(0.0573536 0.0970643 2.31189e-19)
(0.126711 0.22298 1.81294e-18)
(0.115282 0.208579 -1.00994e-18)
(0.0473714 0.0808934 1.89663e-18)
(0.160211 0.36703 4.58737e-18)
(0.0846659 0.18651 8.7844e-19)
(0.365749 0.127589 3.19422e-18)
(0.347616 0.145913 8.2547e-19)
(0.191058 0.0721502 1.52585e-18)
(0.695928 0.277138 -1.91276e-18)
(0.41767 0.125555 -2.05983e-18)
(-0.00855964 1.02176 1.20212e-18)
(-0.00427045 0.569725 0)
(0.615574 0.0107831 0)
(0.589266 0.00844653 0)
(0.333902 0.0064864 0)
(0.0160088 4.01298 0)
(0.0438522 2.26199 1.04461e-17)
(0.058113 2.29549 0)
(0.0235869 1.33426 -9.69562e-18)
(-0.0170431 4.0797 2.07329e-18)
(-0.0297556 4.10507 0)
(0.199362 0.322684 5.87668e-20)
(0.27466 0.633242 -5.10096e-20)
(0.0553225 0.186127 -1.15599e-19)
(-0.0459828 2.27764 -4.64832e-18)
(-0.0470258 2.11184 0)
(-0.030239 1.27191 0)
(-0.00129707 0.956153 -4.84395e-20)
(0.0151919 0.979266 -9.89335e-19)
(0.00481781 0.528785 -4.24569e-20)
(0.138187 0.674862 2.19577e-18)
(0.0771463 0.329064 -1.42423e-18)
(0.00333705 0.933922 1.85624e-18)
(0.0348691 0.873373 -2.06343e-18)
(0.0140538 0.497848 9.17384e-20)
(-0.0248154 4.05508 -1.21334e-17)
(-0.0361935 4.13953 1.18187e-17)
(-0.0382932 2.55638 6.63554e-18)
(-0.0733275 2.4566 -5.77552e-18)
(-0.0192123 1.55303 -6.39991e-18)
(-0.0416964 4.13042 -1.54367e-17)
(-0.04374 4.1278 1.35733e-17)
(0.149292 0.314977 0)
(0.143875 0.266287 -4.12033e-18)
(0.0664177 0.125322 1.76219e-18)
(0.191263 0.455758 2.73637e-18)
(0.0915506 0.247827 -4.1066e-18)
(0.723804 0.10812 1.08906e-18)
(0.728321 0.198699 0)
(0.435243 0.0803169 -1.08154e-18)
(-0.0213305 0.998744 -1.33774e-20)
(-0.0110818 1.01248 0)
(-0.00478718 0.566308 0)
(0.149377 0.608056 -7.82153e-19)
(0.169454 0.544507 -1.69476e-18)
(0.084933 0.29494 3.08636e-18)
(1.05457 -0.148405 0)
(1.1226 -0.150757 3.51605e-18)
(0.0294749 2.01046 0)
(0.0127376 1.89007 0)
(1.05557 0.0974022 2.14787e-20)
(1.04145 0.1711 7.29791e-18)
(0.0128142 1.90736 -6.29631e-20)
(0.00442002 1.65922 0)
(-0.0673369 3.77502 3.24034e-18)
(0.0321036 3.46324 0)
(1.16214 0.571755 -9.71135e-19)
(1.06534 0.0613965 -3.34605e-20)
(1.05709 -0.00428853 0)
(1.03952 -0.00446404 -5.52046e-22)
(0.0356348 1.8264 0)
(0.063047 1.7789 0)
(-0.0173762 1.8017 0)
(-0.00457457 1.85805 8.43577e-19)
(-0.0040717 1.88642 5.15997e-19)
(1.01364 0.0084251 -2.23674e-20)
(1.08174 0.00853898 0)
(1.10472 0.0201573 0)
(0.00214098 2.14866 0)
(0.0001478 1.78045 0)
(-0.0121026 1.88061 0)
(0.420908 2.01087 8.69197e-19)
(1.11203 -0.134335 0)
(0.999799 -0.100676 0)
(1.06547 -0.0261527 4.49236e-18)
(1.1047 -0.121609 -5.31751e-18)
(1.04027 -0.0499275 0)
(-0.000358809 2.13679 0)
(0.00991992 2.09256 0)
(0.013242 2.12503 0)
(-0.0026918 1.94385 0)
(-0.0119231 1.84871 0)
(-0.013674 1.74581 0)
(1.04766 0.00520633 0)
(1.03472 -0.000415595 -2.56686e-20)
(0.815404 1.42615 -1.34642e-18)
(1.06185 0.0133735 -4.4949e-18)
(1.07242 0.103947 5.42166e-18)
(1.03328 0.0446481 0)
(1.1349 0.0838872 4.18806e-18)
(1.1205 0.155245 -5.29935e-18)
(1.01988 0.123366 0)
(-0.00801701 1.88026 0)
(0.0102942 1.858 2.37533e-19)
(-0.00544839 1.63295 -1.72396e-19)
(1.23062 0.174978 5.72814e-18)
(1.16683 0.0516451 0)
(-0.228028 3.94604 -4.24536e-18)
(-0.149468 2.4896 -2.81862e-19)
(-0.228149 4.01579 5.0696e-18)
(-0.0518483 3.91639 -1.96682e-18)
(-0.0127718 3.56292 0)
(-0.0198221 3.82941 1.58249e-18)
(-0.157544 4.15435 4.36851e-18)
(-0.0745029 4.04675 -2.94032e-18)
(-0.0994387 4.05228 0)
(0.632175 0.289413 0)
(0.590029 0.331743 0)
(1.15709 0.721372 2.96491e-18)
(1.06698 0.728338 -3.81522e-18)
(1.22624 0.574125 0)
(1.16673 0.415474 0)
(1.12333 0.0502042 -8.07369e-18)
(0.9961 0.020977 9.98516e-18)
(1.11924 -0.00853271 0)
(1.00023 0.00167961 0)
(1.15848 0.0122805 0)
(1.20371 0.0347955 0)
(1.11155 0.0330455 0)
(1.18858 0.0777571 0)
(1.15103 0.0958444 0)
(1.1234 0.0732289 0)
(0.0152545 1.91564 0)
(-0.0182254 1.67178 0)
(0.0718757 2.00237 0)
(0.0905942 1.71359 0)
(0.0818233 1.85549 0)
(0.0597569 1.54822 -1.40458e-18)
(0.030893 1.88472 0)
(0.0162833 1.70646 1.02509e-18)
(-0.00754695 1.76576 -1.35772e-18)
(-0.00601036 1.90995 0)
(-0.00736716 1.70874 0)
(-0.0232281 1.92755 0)
(-0.013225 1.63475 0)
(-0.0259416 2.17174 -6.81782e-19)
(-0.0121919 1.98846 7.23854e-19)
(-0.0172016 1.96004 8.73816e-19)
(-0.0146425 1.73102 0)
(-0.0180605 1.96891 -1.23461e-18)
(-0.00152137 1.79123 -7.5623e-19)
(-0.0146969 2.17677 5.12085e-19)
(-0.0172569 2.11288 -9.38204e-19)
(-0.0131372 2.07584 -1.07614e-18)
(1.10062 0.0104673 7.2537e-18)
(0.935741 0.00711921 -9.14851e-18)
(1.08161 0.0225322 -7.2106e-18)
(0.934514 0.0135052 8.93983e-18)
(1.13935 0.0126236 0)
(0.994525 0.00165087 0)
(1.15711 0.0231967 0)
(1.14399 0.00793405 0)
(1.01863 0.00586632 0)
(1.21299 0.0599141 0)
(1.16972 0.0261139 0)
(1.05206 0.0184773 0)
(0.0103229 2.12865 -2.63092e-20)
(0.00318171 2.15486 0)
(0.00439989 2.14552 0)
(-0.00287302 1.91454 2.40192e-19)
(-0.00383347 1.6617 -9.90691e-21)
(0.00170183 2.16176 2.68286e-19)
(-0.00813706 2.13709 -2.65671e-19)
(-0.00887801 2.093 0)
(-0.00544278 2.08924 0)
(-0.00468727 2.09414 0)
(-0.0104467 1.98659 0)
(-0.00285791 1.68781 0)
(0.489922 2.14107 -1.94655e-18)
(0.58323 1.915 -6.40992e-19)
(0.277169 1.26095 -5.6543e-19)
(0.159875 1.39873 1.76434e-18)
(0.425938 2.01626 7.01296e-19)
(1.13176 -0.0159345 0)
(1.09755 -0.0619712 0)
(0.964695 -0.036654 0)
(1.16886 -0.0271276 0)
(1.12643 -0.0591936 0)
(1.15364 -0.0962013 0)
(1.1707 -0.0951447 0)
(1.18306 -0.0717237 0)
(1.11285 -0.000220931 7.66239e-18)
(0.951481 0.00400079 -9.6931e-18)
(1.10147 0.00823315 -7.61257e-18)
(0.973752 0.00165768 9.43317e-18)
(0.794536 1.65734 0)
(0.77861 1.64317 -1.68175e-18)
(0.831429 1.44569 -1.54594e-18)
(0.912056 1.14395 2.04945e-18)
(0.498495 1.02483 3.63605e-18)
(0.718473 0.0793474 2.84417e-18)
(1.23456 0.0848684 0)
(1.27737 0.173541 -4.62172e-18)
(1.14728 0.0770157 -2.00263e-19)
(1.17504 0.113348 0)
(-0.192174 3.33178 3.40155e-18)
(-0.241081 3.42893 -4.57771e-18)
(-0.0246484 1.65295 2.73793e-18)
(0.291969 0.518863 -1.44498e-18)
(0.0421764 3.62563 9.85867e-19)
(-0.00444049 3.66855 0)
(0.0234191 3.34565 -1.40049e-18)
(-0.128598 3.58422 -8.69877e-18)
(-0.0268632 3.65807 0)
(-0.0286364 3.96375 3.21447e-19)
(-0.0385689 4.24137 -3.57089e-18)
(-0.0485564 4.02748 5.15121e-18)
(-0.0918238 4.18053 0)
(-0.0334787 4.11354 0)
(0.559314 1.32677 0)
(0.644095 0.790629 -2.36687e-18)
(0.979335 0.902505 1.35976e-18)
(0.930272 1.16267 0)
(0.894824 1.12935 -1.16649e-18)
(1.0451 0.913542 3.95235e-20)
(0.565905 0.255587 -3.62791e-18)
(0.723988 0.317377 -2.47036e-20)
(0.612158 0.241597 1.78761e-18)
(0.639278 0.385162 1.19379e-19)
(0.526277 0.321523 -4.69796e-18)
(0.690502 0.337778 0)
(0.815455 0.439588 3.0147e-18)
(0.824537 0.410464 0)
(0.675084 0.366475 0)
(0.555282 0.286421 0)
(0.946148 0.639446 2.3799e-18)
(1.28893 0.249381 -4.71653e-18)
(1.25606 0.406555 0)
(1.20942 0.265725 0)
(0.695045 0.189664 2.79196e-18)
(0.957786 0.558643 -1.81165e-18)
(0.915142 0.529367 3.35108e-18)
(1.09634 0.420392 -4.21169e-18)
(1.07219 0.00379424 5.19841e-18)
(1.07653 0.0170833 -5.34383e-18)
(0.953387 0.00388808 0)
(1.11799 0.00411101 0)
(1.08898 -0.00122977 -5.03618e-18)
(0.961918 0.00123649 4.97097e-18)
(1.23635 0.00827911 0)
(1.21722 0.00412228 0)
(1.22408 0.0251058 0)
(1.19513 0.0280448 0)
(1.23854 0.00690317 0)
(1.22666 0.0067656 0)
(-0.0255992 1.83274 0)
(-0.0306222 1.61908 0)
(0.136097 2.1972 -1.22448e-18)
(0.361176 2.09418 -5.07563e-19)
(0.178884 2.02126 -1.11531e-18)
(0.246654 1.8697 1.778e-18)
(0.187813 2.18818 0)
(0.182153 2.20148 -1.48803e-18)
(0.142993 2.21828 0)
(0.372138 2.05337 -1.01162e-18)
(0.279994 1.89515 2.48502e-18)
(0.231429 2.21886 1.30498e-18)
(0.314996 2.18144 -6.34009e-19)
(0.240342 2.22191 5.08833e-19)
(0.384665 2.22566 -1.90997e-18)
(0.314258 2.17767 0)
(0.348494 2.16888 1.43203e-18)
(-0.00106549 2.14133 -5.12789e-19)
(-0.00480691 1.89697 0)
(0.0329907 2.06458 1.46228e-18)
(-0.00278416 2.10016 0)
(0.0020226 1.84761 -1.1398e-18)
(-0.00428199 1.66717 0)
(-0.0206239 2.15441 -8.55362e-19)
(-0.0211805 2.16995 0)
(-0.0198231 2.09906 0)
(-0.0217202 2.1212 9.56626e-19)
(-0.00809721 1.96986 4.31945e-20)
(-0.0132116 1.92482 1.66394e-18)
(-0.0161822 1.68686 1.12582e-20)
(-0.0159725 2.16319 4.90922e-19)
(-0.0203079 2.17348 2.81571e-19)
(-0.000947927 1.85126 0)
(-0.00495637 1.65821 0)
(-0.0184369 2.17813 1.34358e-18)
(-0.029955 2.15044 1.29022e-18)
(-0.0259216 2.16793 -1.63291e-18)
(-0.011109 2.19086 0)
(-0.00049586 2.13612 -8.8138e-19)
(-0.00966636 2.08901 3.68943e-19)
(-0.00803994 2.08396 -1.12346e-19)
(-0.00122465 2.17438 -5.70862e-19)
(-0.000268235 2.08005 -1.92755e-19)
(-0.0114998 2.06351 8.67806e-19)
(1.06198 0.00616658 -5.05116e-18)
(1.0587 0.00500895 4.90882e-18)
(0.937379 0.00358551 0)
(1.1669 0.046515 6.66966e-18)
(1.04635 0.0341576 -7.19972e-18)
(0.924544 0.0191603 7.8522e-18)
(1.1891 0.0715524 -8.89513e-19)
(1.11072 -0.00356434 0)
(1.09963 0.00514321 4.83632e-18)
(0.995973 0.00181754 -4.75007e-18)
(1.21374 0.0282628 -2.81902e-19)
(1.19436 0.0235082 2.42355e-18)
(1.23078 0.0402063 0)
(1.23294 0.0372724 -8.37615e-19)
(1.2294 0.0242241 0)
(1.20771 0.0218842 0)
(1.24257 0.00467734 0)
(1.1995 0.00191412 0)
(1.23546 0.0218981 1.70382e-18)
(1.23664 0.0124455 -3.80148e-18)
(1.22627 0.0205041 -1.8861e-18)
(1.22935 0.0214888 -2.01679e-18)
(1.24073 0.0513587 3.96166e-18)
(1.21702 0.0447963 0)
(1.24352 0.0719484 0)
(0.00470528 2.15311 -3.47513e-19)
(0.0124044 2.15601 -2.99614e-20)
(0.00483747 2.15601 0)
(0.00179587 2.07688 3.35614e-19)
(-0.00355394 2.09317 5.42515e-20)
(-0.000486583 2.06935 -5.61839e-20)
(-0.0123827 1.89688 6.70606e-19)
(-0.0194117 2.04141 -4.00881e-20)
(-0.00274091 2.05082 1.96638e-19)
(-0.00588734 1.86823 -3.48414e-19)
(0.000681794 1.70092 4.18118e-19)
(-0.00239712 2.16053 1.14515e-20)
(0.000917728 2.16119 4.11194e-19)
(0.499057 2.21952 1.09501e-18)
(0.470801 2.19676 1.99857e-18)
(0.741093 1.86505 1.63153e-18)
(0.635752 2.03015 6.17915e-19)
(0.708265 1.81077 0)
(0.339683 1.3796 6.68288e-19)
(0.291639 1.07284 7.97687e-19)
(0.204726 1.50977 3.6503e-20)
(0.267914 1.74659 -2.93624e-18)
(0.338748 1.71058 2.1934e-18)
(0.259831 1.42506 0)
(0.188908 1.23496 -1.37244e-18)
(0.105265 1.68291 3.47906e-18)
(0.133876 1.56211 -7.67644e-20)
(0.084308 1.39565 -4.3492e-18)
(0.339088 0.748666 2.79413e-18)
(0.400378 0.946247 0)
(1.20034 -0.017889 1.76555e-19)
(1.19875 -0.0589075 -1.47969e-19)
(1.21768 -0.0316636 -2.60154e-18)
(1.22724 -0.0137197 2.62547e-18)
(1.21529 -0.00901331 0)
(0.536585 1.75764 0)
(0.454983 1.71836 0)
(0.704323 1.36965 0)
(0.471759 1.52824 0)
(0.496899 1.08285 -2.75612e-20)
(0.346475 0.660854 0)
(0.744911 2.52006 2.96516e-20)
(0.731433 1.95564 0)
(0.785034 1.88211 -2.72823e-18)
(0.770066 1.98584 1.73013e-18)
(0.828467 0.123183 0)
(0.711842 0.115185 7.46847e-19)
(0.991645 0.106297 4.69399e-18)
(0.826886 0.0855693 -1.66915e-18)
(0.683316 0.0443073 -5.21196e-18)
(1.24526 0.21277 -5.97528e-18)
(1.12573 0.298485 -3.17378e-20)
(1.06985 0.269495 4.38223e-18)
(1.15402 0.211183 4.007e-18)
(1.09021 0.135624 -6.58584e-18)
(1.05123 0.150805 8.02906e-19)
(1.08551 0.222806 -1.80192e-18)
(1.06035 0.20199 0)
(1.17246 0.14419 3.36765e-18)
(1.20065 0.167755 0)
(1.19331 0.201326 0)
(1.24778 0.105688 1.92666e-18)
(1.23085 0.16748 -3.08684e-20)
(1.24997 0.192661 -1.03497e-18)
(1.27382 0.178629 0)
(1.18512 0.0265508 3.75884e-18)
(1.23701 0.0336517 4.72772e-18)
(1.23825 0.0295783 -3.66462e-18)
(1.23323 0.0547401 -3.21598e-18)
(1.1952 0.0477071 -4.73462e-18)
(1.1392 0.0977138 0)
(1.14814 0.0733377 0)
(1.02225 0.0559287 -2.78289e-18)
(0.891538 0.03524 1.03577e-18)
(1.2195 0.0862144 4.37019e-18)
(1.24882 0.105093 -5.4019e-18)
(1.23641 0.120533 4.7475e-18)
(1.21408 0.12265 0)
(1.24489 0.0860305 0)
(1.23541 0.0752604 -2.23254e-18)
(1.23205 0.0762962 -3.6e-18)
(0.409929 2.48871 1.28678e-18)
(0.564419 2.93696 -1.28682e-18)
(0.677563 2.72605 -1.50959e-18)
(0.706224 3.04165 3.2374e-19)
(0.544039 1.37383 -3.36917e-18)
(0.598101 1.33855 7.36546e-19)
(0.410333 0.72444 -4.90951e-20)
(0.690844 2.41529 -1.20912e-18)
(0.67957 2.31807 2.04862e-18)
(0.651627 2.80311 3.79341e-19)
(0.622002 1.93281 -3.86669e-19)
(0.605186 1.83835 0)
(0.567879 0.888231 -2.53044e-19)
(0.0633661 1.54747 2.03026e-18)
(0.579449 0.356888 2.34573e-18)
(0.446413 0.436043 2.58237e-18)
(0.591583 0.359899 2.63398e-18)
(0.698944 0.429595 -4.51649e-18)
(0.700304 0.41837 3.68041e-18)
(0.608917 0.344265 -1.31787e-18)
(0.506626 0.29635 2.90371e-18)
(0.762098 0.243319 -1.63072e-18)
(0.726835 0.267992 0)
(0.635789 0.217803 3.95144e-21)
(0.867114 0.516558 1.65249e-18)
(0.822233 0.479499 -5.80301e-18)
(0.746488 0.461843 9.68858e-21)
(0.739731 0.444952 0)
(0.743017 0.73877 1.93219e-18)
(0.891168 0.829115 2.59636e-18)
(0.810761 0.86907 -2.99098e-18)
(0.946007 0.856062 -1.08503e-18)
(1.04492 0.922775 -3.98212e-19)
(0.992403 0.941343 4.06907e-19)
(1.01312 0.668024 -3.87704e-18)
(1.01965 0.75242 1.02798e-18)
(1.10122 0.775499 0)
(1.13122 0.725619 -1.48772e-18)
(1.16424 0.315765 1.37594e-18)
(1.27951 0.297727 2.57294e-18)
(1.24656 0.271562 2.42425e-18)
(1.1509 0.388778 -2.67024e-18)
(1.22923 0.420964 0)
(1.25794 0.388267 0)
(1.04707 0.390322 -2.56131e-20)
(0.92832 0.286503 0)
(0.984372 0.281721 1.96848e-18)
(1.05497 0.295036 -3.76175e-20)
(1.08824 0.464428 1.1666e-17)
(1.02349 0.527501 2.94264e-18)
(1.02061 0.477184 -2.87913e-18)
(0.977656 0.454428 3.05575e-18)
(0.934472 0.471118 1.69524e-18)
(0.884225 0.436134 -1.64071e-18)
(1.18785 0.00515391 4.24208e-18)
(1.23552 0.00126601 0)
(1.23275 0.0039018 2.84533e-18)
(1.19705 0.0129698 -6.36754e-18)
(1.24355 0.00379222 3.01076e-18)
(1.23635 0.00789534 -6.505e-18)
(1.21453 0.00568934 0)
(1.18173 0.00955646 -1.32475e-18)
(1.23311 0.0120298 3.324e-18)
(1.21212 0.01796 -1.72993e-18)
(1.1842 0.00978612 1.24668e-18)
(-0.0293125 1.83362 0)
(-0.0142536 2.05484 0)
(-0.0277978 1.8026 0)
(-0.0197059 1.60556 0)
(0.0121062 2.12863 2.18281e-18)
(0.0364222 2.11045 -6.35886e-19)
(0.0994509 2.21497 -6.69259e-19)
(0.0832309 2.22082 6.65546e-19)
(-0.0260107 2.15557 -1.50344e-18)
(-0.0120132 2.15723 1.13026e-18)
(0.00789105 2.13042 -2.26959e-20)
(-0.0136298 2.08142 -1.34147e-18)
(-0.0128337 2.02895 -1.85755e-19)
(-0.0195877 2.08283 -1.73637e-19)
(0.054223 2.11046 -1.55795e-18)
(0.0688004 2.05715 0)
(0.104785 2.15701 7.71753e-19)
(0.110738 2.1951 6.65114e-19)
(0.232153 2.08686 -6.07641e-19)
(0.164768 1.9079 0)
(0.186006 1.84448 -2.82821e-18)
(0.237487 1.95957 2.01576e-18)
(0.195724 2.12559 -1.62028e-18)
(0.141927 2.0831 8.8672e-19)
(0.11321 2.02154 0)
(-0.0140149 2.16392 -1.51764e-18)
(-0.0165398 2.1371 -1.74328e-18)
(-0.0244693 2.16149 0)
(-0.00858853 2.09769 -1.51064e-20)
(-0.00565628 2.15766 7.59732e-19)
(-0.0229848 2.10743 1.23277e-19)
(0.0011482 2.05132 -1.86261e-18)
(-0.0181437 2.11813 5.22617e-19)
(-0.0331882 2.16716 6.50823e-19)
(-0.0191472 2.16664 0)
(-0.0109493 2.13042 0)
(-0.0132711 1.88841 5.42627e-19)
(0.00228712 2.0944 -1.68681e-19)
(-0.00494338 2.08716 0)
(-0.00460311 1.84979 4.45667e-19)
(-0.0012819 1.64476 -8.51603e-19)
(1.19337 0.0196273 0)
(1.19461 0.0148647 -4.39291e-19)
(1.23759 0.0136811 -3.11755e-18)
(1.22689 0.0125819 0)
(1.21574 0.0119762 0)
(1.24242 0.00245683 -1.66615e-20)
(1.23829 -8.30208e-05 5.12703e-18)
(1.22736 0.00694355 5.94831e-18)
(1.2086 0.00827669 0)
(1.17997 0.0115036 0)
(1.22641 0.00752573 3.03646e-18)
(1.20174 0.0170186 0)
(1.17303 0.0203538 0)
(0.00138338 2.15507 0)
(-0.00282507 2.15398 2.7395e-20)
(-0.000437529 2.15511 1.83055e-19)
(0.00429261 2.11481 0)
(0.0033309 2.1556 2.85401e-19)
(0.00382036 2.1512 -1.4827e-19)
(-0.00266887 2.14183 0)
(0.6035 2.07854 0)
(0.474772 2.15262 -3.52879e-18)
(0.485862 2.0905 0)
(0.587291 2.18216 4.06382e-18)
(0.596552 2.14236 0)
(0.5942 2.1886 -1.77545e-18)
(0.61882 1.38071 -5.9716e-20)
(0.409463 0.914554 -3.32008e-18)
(0.334918 0.627667 3.74248e-18)
(0.487864 1.06122 8.43642e-19)
(0.659693 1.43952 0)
(0.675303 1.44994 0)
(0.453913 0.920372 0)
(0.334014 0.719878 -2.93108e-18)
(0.610693 1.9403 -2.36815e-18)
(0.684072 1.69247 -5.39616e-19)
(0.713071 1.89192 4.47136e-19)
(0.374675 1.22527 0)
(0.421991 1.14407 0)
(0.31552 0.965548 -9.2205e-19)
(0.598563 1.54851 0)
(0.38603 1.54507 0)
(0.380428 1.59381 -2.97269e-18)
(0.491242 1.08415 -1.85253e-19)
(0.320462 2.06428 0)
(0.376317 2.1733 4.52978e-18)
(0.784585 0.915245 -1.02865e-18)
(0.77254 1.13644 0)
(0.811522 1.0951 1.79379e-18)
(0.519737 1.12921 0)
(0.534378 1.08384 0)
(0.671357 1.90111 -1.29829e-18)
(0.732958 2.54276 -1.16668e-18)
(0.654586 2.7841 2.18859e-18)
(0.714532 2.56332 -6.36681e-19)
(0.574458 1.4568 0)
(0.651561 1.65912 8.58752e-19)
(0.374858 0.799882 -1.03236e-18)
(0.280266 0.546668 -2.11472e-20)
(0.643311 2.46053 0)
(0.438194 2.45297 -1.14905e-18)
(0.433941 2.22823 0)
(0.93088 0.194711 0)
(0.777175 0.153657 0)
(0.649296 0.142114 0)
(0.918327 0.227613 -3.04379e-18)
(0.778313 0.195518 1.69145e-18)
(0.917511 0.0379454 -2.07079e-18)
(1.02443 0.0790916 0)
(0.987216 0.0824755 8.62787e-19)
(0.799624 0.0468113 3.40171e-18)
(0.712461 0.0284395 -2.15101e-18)
(0.55065 3.03704 5.71174e-19)
(0.600643 3.2584 0)
(0.405238 3.0768 1.13501e-18)
(0.278566 3.58534 -9.74366e-19)
(0.344734 3.53486 -1.49614e-18)
(0.440657 1.36702 2.74487e-18)
(0.357331 1.88972 0)
(0.508108 0.656488 -5.97865e-19)
(0.562927 0.67122 3.80458e-18)
(0.650681 0.440752 -8.59464e-19)
(0.716939 0.455541 9.35714e-19)
(0.791879 0.512392 2.06982e-18)
(0.840651 0.544933 0)
(0.754984 0.547002 0)
(0.763284 0.514947 0)
(1.13271 0.646577 1.12576e-18)
(1.06555 0.559644 -2.85053e-18)
(1.06961 0.614236 2.53132e-18)
(1.11546 0.535297 -2.33322e-18)
(1.22489 0.52049 0)
(1.23044 0.594462 -7.6461e-19)
(0.975131 0.409229 -3.99542e-18)
(0.995202 0.388311 -5.18979e-18)
(0.899086 0.405642 3.04996e-18)
(0.866342 0.37772 -2.93431e-18)
(0.941011 0.33462 -2.45384e-18)
(0.876359 0.331718 2.99559e-18)
(1.24315 0.00484674 -3.17754e-18)
(1.24532 0.00548092 6.5695e-18)
(1.20517 0.00459447 3.98953e-18)
(1.20765 0.00298314 -4.67968e-18)
(1.21643 0.0130192 0)
(1.22654 0.00752525 -8.01532e-18)
(0.0271195 2.18792 2.95594e-19)
(0.00550291 2.1913 0)
(0.0627466 2.18694 2.59765e-18)
(0.0746267 2.20193 -2.35235e-18)
(0.0604278 2.21014 1.23952e-18)
(0.0284799 2.20041 0)
(-0.0054639 2.17509 0)
(-0.0109014 2.15179 -1.7495e-19)
(-0.00819593 2.14632 1.55756e-19)
(-0.00228766 2.15156 2.56279e-20)
(-0.00674131 2.16008 -2.67478e-19)
(-0.00226459 2.15853 1.50004e-19)
(0.625689 2.3253 -3.84136e-18)
(0.657024 2.20033 3.90415e-18)
(0.593325 2.16504 -2.2112e-18)
(0.65113 2.1743 1.71776e-19)
(0.544953 1.91981 0)
(0.622221 2.09435 -2.08156e-18)
(0.616029 1.97777 2.02741e-18)
(0.570494 2.17104 2.27721e-18)
(0.563562 2.19466 0)
(0.493116 2.17825 0)
(0.581406 1.86621 3.58523e-18)
(0.502519 1.57939 4.87014e-18)
(0.566701 1.65268 -3.35702e-18)
(0.448773 1.66389 -5.70159e-19)
(0.451974 1.89477 1.16703e-18)
(0.385709 1.79925 -2.83967e-18)
(0.440961 0.802518 -2.10135e-18)
(0.405027 0.721024 0)
(0.314896 0.548949 -2.13295e-18)
(0.632007 1.40318 0)
(0.644224 1.38672 0)
(0.362889 3.218 -1.58042e-18)
(0.528515 3.43728 -1.03747e-18)
(0.415476 3.52242 1.47765e-18)
(0.223498 1.64616 0)
(0.318822 1.24637 -1.30072e-18)
(0.397674 1.76017 -1.67788e-18)
(0.31274 2.9863 0)
(0.213207 3.41023 1.06496e-18)
(0.0767847 3.25034 0)
(0.80156 0.665651 -4.06767e-18)
(0.87649 0.712217 5.92086e-18)
(0.913319 0.650594 -5.88245e-18)
(0.801782 0.604378 -4.90018e-19)
(0.851145 0.599 -2.08419e-18)
(0.559099 3.38786 8.62647e-19)
(0.627018 3.28251 -1.68027e-18)
(0.457248 3.23694 3.19172e-18)
(0.424423 2.99818 -2.23613e-18)
(0.556989 3.06415 -2.68857e-18)
(0.610513 3.22485 -3.05732e-19)
(0.648095 3.12995 1.97028e-18)
(0.484042 3.10012 1.49875e-19)
(0.42739 3.00772 1.13733e-18)
)
;

boundaryField
{
    wall-4
    {
        type            noSlip;
    }
    velocity-inlet-5
    {
        type            fixedValue;
        value           uniform (1 0 0);
    }
    velocity-inlet-6
    {
        type            fixedValue;
        value           uniform (0 3 0);
    }
    pressure-outlet-7
    {
        type            zeroGradient;
    }
    wall-8
    {
        type            noSlip;
    }
    frontAndBackPlanes
    {
        type            empty;
    }
}


// ************************************************************************* //
