/*--------------------------------*- C++ -*----------------------------------*\
  =========                 |
  \\      /  F ield         | OpenFOAM: The Open Source CFD Toolbox
   \\    /   O peration     | Website:  https://openfoam.org
    \\  /    A nd           | Version:  7
     \\/     M anipulation  |
\*---------------------------------------------------------------------------*/
FoamFile
{
    version     2.0;
    format      ascii;
    class       volScalarField;
    location    "0.075";
    object      p;
}
// * * * * * * * * * * * * * * * * * * * * * * * * * * * * * * * * * * * * * //

dimensions      [0 2 -2 0 0 0 0];

internalField   nonuniform List<scalar> 
12225
(
285.024
284.703
284.122
283.042
281.71
280.204
278.569
276.848
275.083
273.304
271.521
269.725
267.908
266.069
264.206
262.298
260.281
257.99
284.828
284.686
284.129
283.059
281.721
280.21
278.574
276.854
275.089
273.313
271.531
269.737
267.921
266.084
264.224
262.325
260.338
258.167
284.296
284.658
284.132
283.082
281.741
280.227
278.593
276.877
275.115
273.338
271.554
269.758
267.944
266.113
264.265
262.386
260.449
258.424
284.41
284.704
284.171
283.139
281.794
280.271
278.632
276.914
275.152
273.372
271.585
269.79
267.982
266.163
264.331
262.48
260.6
258.697
285.078
284.804
284.238
283.216
281.865
280.331
278.685
276.965
275.202
273.419
271.631
269.838
268.038
266.23
264.419
262.602
260.782
258.984
286.14
284.955
284.336
283.325
281.972
280.423
278.763
277.035
275.267
273.482
271.692
269.902
268.11
266.319
264.532
262.754
260.994
259.279
285.553
285.033
284.488
283.479
282.112
280.542
278.864
277.125
275.352
273.564
271.774
269.987
268.205
266.431
264.672
262.932
261.227
259.58
285.161
285.177
284.705
283.683
282.297
280.703
279
277.242
275.458
273.665
271.874
270.092
268.322
266.568
264.837
263.137
261.483
259.892
283.951
285.375
285.025
283.959
282.527
280.895
279.164
277.386
275.59
273.791
272
270.223
268.465
266.731
265.028
263.365
261.755
260.212
283.954
285.808
285.46
284.314
282.821
281.144
279.373
277.566
275.751
273.942
272.148
270.377
268.632
266.919
265.245
263.618
262.048
260.546
285.283
286.662
286.079
284.781
283.178
281.431
279.616
277.777
275.942
274.123
272.327
270.561
268.828
267.135
265.487
263.892
262.359
260.893
288.026
287.824
286.802
285.306
283.58
281.753
279.884
278.007
276.147
274.314
272.514
270.752
269.031
267.355
265.73
264.163
262.66
261.224
290.155
289.152
287.661
285.909
284.032
282.111
280.181
278.265
276.379
274.531
272.727
270.968
269.256
267.597
265.994
264.452
262.975
261.566
292.694
290.939
288.783
286.701
284.626
282.578
280.566
278.596
276.674
274.806
272.994
271.237
269.536
267.894
266.313
264.797
263.348
261.967
298.315
293.261
290.193
287.695
285.377
283.175
281.063
279.024
277.057
275.162
273.338
271.581
269.89
268.265
266.707
265.218
263.797
262.445
300.191
295.206
291.682
288.842
286.268
283.888
281.656
279.537
277.521
275.598
273.762
272.004
270.319
268.709
267.172
265.707
264.314
262.992
298.873
296.506
293.168
290.086
287.283
284.728
282.37
280.166
278.091
276.132
274.276
272.512
270.834
269.237
267.721
266.281
264.914
263.619
305.794
299.532
294.978
291.388
288.304
285.567
283.089
280.81
278.692
276.71
274.846
273.083
271.413
269.832
268.335
266.917
265.573
264.301
305.773
300.33
295.857
292.166
289.009
286.238
283.739
281.441
279.309
277.321
275.455
273.697
272.037
270.47
268.988
267.589
266.267
265.017
307.116
299.935
295.468
292.045
289.079
286.424
283.997
281.752
279.663
277.707
275.868
274.135
272.499
270.954
269.496
268.113
266.805
265.568
297.673
296.606
294.119
291.451
288.855
286.392
284.085
281.919
279.875
277.946
276.127
274.413
272.793
271.261
269.812
268.443
267.147
265.922
294.691
294.846
293.202
290.955
288.607
286.297
284.086
281.986
279.993
278.102
276.306
274.607
273
271.48
270.043
268.682
267.394
266.176
296.676
294.88
292.9
290.689
288.425
286.207
284.068
282.012
280.056
278.188
276.412
274.728
273.134
271.626
270.198
268.845
267.564
266.351
295.626
294.768
292.782
290.576
288.353
286.185
284.093
282.051
280.128
278.268
276.495
274.821
273.237
271.735
270.313
268.966
267.689
266.48
298.643
295.114
292.734
290.453
288.253
286.123
284.04
282.039
280.108
278.274
276.535
274.874
273.297
271.802
270.384
269.042
267.769
266.564
297.35
295.195
292.763
290.457
288.268
286.145
284.082
282.091
280.148
278.315
276.575
274.919
273.346
271.854
270.44
269.1
267.83
266.626
297.886
295.184
292.655
290.38
288.224
286.132
284.076
282.083
280.16
278.333
276.596
274.944
273.373
271.883
270.472
269.134
267.867
266.665
298.532
295.321
292.653
290.38
288.242
286.146
284.086
282.094
280.179
278.355
276.618
274.964
273.394
271.906
270.496
269.16
267.893
266.692
298.338
295.199
292.592
290.373
288.244
286.143
284.084
282.094
280.185
278.364
276.627
274.972
273.402
271.915
270.508
269.174
267.909
266.708
298.157
295.169
292.574
290.391
288.256
286.148
284.089
282.101
280.195
278.375
276.637
274.981
273.409
271.921
270.514
269.181
267.916
266.717
239.506
239.419
239.305
239.206
239.144
239.122
239.134
239.165
239.187
239.17
239.09
238.934
238.699
238.387
238.013
237.588
237.129
236.648
236.155
235.661
235.176
234.706
234.261
233.848
233.472
233.141
232.856
232.62
232.428
232.275
232.156
232.058
231.964
231.859
231.702
231.481
231.118
230.567
229.97
229.392
228.822
228.274
227.744
227.218
226.718
226.265
225.865
225.517
225.187
224.859
224.537
224.203
223.795
223.294
222.718
222.149
221.657
221.239
220.688
219.943
219.184
218.604
218.191
217.531
216.38
214.864
213.09
211.16
209.157
207.144
205.165
203.248
201.416
199.681
198.055
196.547
195.164
193.91
192.788
191.799
190.94
190.209
189.597
189.095
188.691
188.374
188.131
187.951
187.82
187.729
187.666
187.625
187.598
187.579
187.564
187.549
187.529
187.5
187.458
187.398
187.312
187.195
187.038
186.836
186.58
186.267
185.89
185.447
184.937
184.36
183.717
183.009
182.241
181.414
180.533
179.601
178.624
177.604
176.548
175.46
174.344
173.205
172.046
170.87
169.68
168.479
167.268
166.049
164.821
163.586
162.344
161.094
159.837
158.571
157.297
156.015
154.726
153.428
152.123
150.81
149.49
148.162
146.827
145.485
144.135
142.777
141.411
140.037
138.654
137.263
135.862
134.452
133.033
131.604
130.164
128.715
127.255
125.784
124.303
122.812
121.31
119.797
118.273
116.738
115.193
113.636
112.069
110.491
108.902
107.302
105.692
104.072
102.442
100.804
99.1581
97.5062
95.8502
94.1931
92.5456
90.894
239.337
239.263
239.157
239.066
239.01
238.994
238.999
239.022
239.027
238.985
238.876
238.693
238.437
238.114
237.737
237.317
236.868
236.399
235.919
235.437
234.961
234.5
234.06
233.649
233.272
232.934
232.637
232.383
232.175
232.011
231.881
231.774
231.67
231.556
231.398
231.164
230.832
230.303
229.78
229.433
228.987
228.363
227.72
227.115
226.571
226.105
225.723
225.416
225.112
224.791
224.472
224.172
223.805
223.277
222.668
222.156
221.606
220.916
220.552
220.163
219.257
218.38
217.716
216.844
215.605
214.06
212.303
210.422
208.487
206.549
204.644
202.796
201.021
199.333
197.744
196.265
194.906
193.674
192.574
191.605
190.766
190.049
189.45
188.959
188.567
188.261
188.029
187.858
187.736
187.653
187.597
187.562
187.539
187.524
187.511
187.498
187.48
187.454
187.414
187.356
187.273
187.159
187.005
186.805
186.551
186.239
185.864
185.422
184.913
184.337
183.695
182.99
182.223
181.398
180.519
179.589
178.614
177.596
176.542
175.455
174.339
173.2
172.041
170.866
169.676
168.475
167.265
166.045
164.818
163.583
162.34
161.09
159.832
158.567
157.293
156.012
154.723
153.426
152.121
150.808
149.488
148.161
146.826
145.484
144.134
142.777
141.411
140.037
138.654
137.263
135.862
134.452
133.033
131.604
130.164
128.715
127.255
125.784
124.303
122.812
121.309
119.796
118.273
116.738
115.192
113.636
112.068
110.49
108.901
107.301
105.691
104.071
102.441
100.802
99.1556
97.5027
95.8458
94.1863
92.5352
90.8792
239.567
239.526
239.463
239.398
239.319
239.234
239.148
239.056
238.942
238.788
238.581
238.318
238.006
237.653
237.266
236.852
236.417
235.965
235.502
235.034
234.568
234.112
233.673
233.258
232.876
232.532
232.232
231.98
231.77
231.595
231.448
231.319
231.194
231.059
230.898
230.691
230.431
230.101
229.722
229.309
228.775
228.169
227.611
227.091
226.581
226.1
225.694
225.38
225.071
224.724
224.393
224.098
223.746
223.317
222.806
222.253
221.895
221.347
220.459
219.692
218.839
217.837
216.769
215.575
214.218
212.702
211.058
209.327
207.548
205.753
203.969
202.216
200.512
198.875
197.322
195.869
194.529
193.313
192.227
191.272
190.446
189.746
189.165
188.694
188.322
188.036
187.825
187.673
187.569
187.502
187.459
187.434
187.42
187.411
187.404
187.395
187.381
187.359
187.324
187.271
187.194
187.084
186.936
186.74
186.491
186.182
185.808
185.369
184.861
184.287
183.647
182.944
182.18
181.359
180.485
179.56
178.589
177.576
176.524
175.44
174.326
173.189
172.03
170.855
169.666
168.465
167.255
166.036
164.809
163.574
162.332
161.083
159.826
158.561
157.288
156.007
154.718
153.422
152.118
150.806
149.487
148.16
146.826
145.484
144.135
142.777
141.412
140.038
138.655
137.264
135.863
134.453
133.033
131.604
130.165
128.715
127.255
125.785
124.303
122.812
121.309
119.796
118.272
116.738
115.192
113.635
112.068
110.489
108.9
107.299
105.689
104.068
102.437
100.797
99.1493
97.4939
95.8343
94.1696
92.5106
90.8444
239.765
239.76
239.755
239.685
239.575
239.43
239.255
239.054
238.828
238.577
238.3
237.996
237.665
237.307
236.923
236.517
236.089
235.645
235.188
234.724
234.261
233.804
233.365
232.95
232.568
232.225
231.924
231.666
231.448
231.269
231.121
230.989
230.862
230.728
230.579
230.402
230.193
229.942
229.64
229.291
228.894
228.454
227.978
227.468
226.953
226.456
226.007
225.613
225.221
224.797
224.363
223.991
223.583
223.109
222.864
222.536
221.814
221.039
220.132
219.12
218.035
216.882
215.662
214.354
212.954
211.462
209.891
208.258
206.587
204.898
203.208
201.533
199.89
198.297
196.776
195.345
194.023
192.822
191.751
190.811
190.003
189.323
188.765
188.32
187.975
187.718
187.535
187.411
187.332
187.287
187.263
187.254
187.252
187.252
187.252
187.249
187.24
187.224
187.196
187.151
187.082
186.98
186.839
186.649
186.405
186.099
185.728
185.29
184.784
184.21
183.572
182.873
182.113
181.298
180.431
179.513
178.549
177.542
176.496
175.416
174.306
173.171
172.014
170.84
169.652
168.452
167.242
166.023
164.797
163.563
162.322
161.073
159.817
158.553
157.28
156
154.712
153.417
152.113
150.802
149.484
148.158
146.824
145.483
144.133
142.776
141.411
140.037
138.655
137.263
135.863
134.453
133.033
131.604
130.165
128.715
127.255
125.784
124.303
122.811
121.309
119.796
118.272
116.737
115.191
113.634
112.066
110.488
108.898
107.297
105.686
104.064
102.432
100.791
99.1414
97.4834
95.8201
94.15
92.4813
90.8026
239.946
239.937
239.908
239.834
239.693
239.497
239.273
239.033
238.776
238.498
238.197
237.874
237.529
237.161
236.769
236.355
235.92
235.467
235.001
234.526
234.052
233.586
233.137
232.715
232.33
231.987
231.692
231.445
231.246
231.084
230.952
230.835
230.722
230.602
230.468
230.313
230.134
229.928
229.688
229.42
229.124
228.788
228.407
227.988
227.54
227.071
226.569
226.047
225.504
224.923
224.269
223.575
223.144
222.816
222.381
221.913
221.269
220.401
219.383
218.262
217.077
215.849
214.571
213.228
211.819
210.347
208.822
207.257
205.665
204.056
202.438
200.822
199.222
197.658
196.154
194.735
193.421
192.228
191.166
190.24
189.451
188.794
188.264
187.849
187.538
187.316
187.169
187.079
187.033
187.015
187.016
187.026
187.038
187.05
187.058
187.062
187.062
187.054
187.036
187.001
186.944
186.854
186.722
186.541
186.301
185.999
185.629
185.191
184.684
184.111
183.474
182.776
182.022
181.214
180.354
179.446
178.492
177.493
176.455
175.381
174.276
173.145
171.991
170.819
169.633
168.433
167.224
166.006
164.781
163.548
162.307
161.06
159.805
158.542
157.271
155.992
154.705
153.41
152.108
150.797
149.48
148.154
146.821
145.48
144.132
142.775
141.41
140.036
138.654
137.263
135.862
134.453
133.033
131.604
130.164
128.715
127.255
125.784
124.303
122.811
121.308
119.795
118.271
116.736
115.19
113.633
112.065
110.486
108.896
107.294
105.682
104.06
102.427
100.784
99.1322
97.4713
95.8038
94.1282
92.449
90.7582
240.181
240.165
240.099
239.975
239.805
239.606
239.382
239.132
238.861
238.569
238.257
237.923
237.566
237.185
236.78
236.352
235.904
235.439
234.962
234.479
233.998
233.527
233.077
232.656
232.273
231.936
231.65
231.415
231.229
231.086
230.972
230.872
230.773
230.666
230.544
230.402
230.241
230.06
229.861
229.642
229.4
229.131
228.826
228.483
228.099
227.653
227.141
226.574
225.901
225.1
224.316
223.58
222.849
222.41
221.936
221.312
220.517
219.563
218.49
217.338
216.128
214.87
213.564
212.206
210.798
209.347
207.864
206.357
204.832
203.288
201.725
200.145
198.563
197.003
195.495
194.068
192.75
191.557
190.5
189.585
188.813
188.179
187.677
187.298
187.026
186.847
186.743
186.696
186.688
186.704
186.733
186.764
186.793
186.816
186.833
186.845
186.853
186.856
186.85
186.831
186.789
186.715
186.597
186.425
186.192
185.892
185.522
185.082
184.571
183.995
183.355
182.658
181.907
181.106
180.256
179.359
178.416
177.429
176.401
175.336
174.238
173.112
171.962
170.793
169.609
168.411
167.203
165.986
164.761
163.529
162.29
161.044
159.79
158.529
157.259
155.982
154.696
153.402
152.101
150.791
149.474
148.15
146.817
145.477
144.129
142.772
141.408
140.035
138.653
137.262
135.861
134.452
133.033
131.603
130.164
128.714
127.254
125.783
124.302
122.81
121.308
119.794
118.27
116.735
115.188
113.631
112.063
110.483
108.893
107.291
105.678
104.055
102.421
100.776
99.122
97.4581
95.7861
94.1048
92.4159
90.7135
240.516
240.448
240.339
240.196
240.019
239.81
239.581
239.336
239.07
238.781
238.464
238.118
237.742
237.34
236.916
236.472
236.013
235.543
235.066
234.588
234.117
233.661
233.228
232.828
232.468
232.152
231.884
231.665
231.491
231.355
231.242
231.14
231.038
230.928
230.802
230.658
230.496
230.321
230.132
229.932
229.717
229.476
229.21
228.905
228.548
228.129
227.622
227.005
226.308
225.526
224.59
223.771
223.048
222.359
221.629
220.796
219.851
218.809
217.688
216.506
215.272
213.992
212.668
211.304
209.905
208.482
207.042
205.59
204.12
202.621
201.085
199.512
197.919
196.336
194.799
193.346
192.007
190.803
189.745
188.835
188.075
187.463
186.994
186.655
186.432
186.306
186.256
186.26
186.3
186.357
186.418
186.474
186.521
186.556
186.582
186.602
186.62
186.636
186.648
186.649
186.63
186.577
186.476
186.317
186.091
185.793
185.421
184.976
184.458
183.873
183.226
182.524
181.773
180.976
180.135
179.25
178.321
177.347
176.332
175.278
174.189
173.07
171.926
170.761
169.58
168.385
167.179
165.963
164.74
163.509
162.271
161.026
159.774
158.514
157.246
155.969
154.685
153.393
152.092
150.784
149.468
148.144
146.812
145.473
144.125
142.769
141.405
140.032
138.651
137.26
135.86
134.451
133.032
131.602
130.163
128.714
127.253
125.783
124.301
122.809
121.306
119.793
118.268
116.733
115.187
113.629
112.061
110.481
108.89
107.287
105.674
104.049
102.414
100.768
99.1109
97.444
95.7674
94.0803
92.3825
90.6696
240.848
240.769
240.632
240.48
240.306
240.119
239.908
239.66
239.373
239.054
238.71
238.343
237.952
237.536
237.098
236.643
236.174
235.699
235.225
234.759
234.308
233.88
233.483
233.123
232.804
232.529
232.297
232.106
231.951
231.824
231.713
231.608
231.493
231.365
231.221
231.061
230.886
230.7
230.502
230.293
230.071
229.834
229.567
229.26
228.907
228.482
227.969
227.357
226.633
225.842
225.003
224.135
223.265
222.368
221.42
220.41
219.339
218.211
217.034
215.811
214.547
213.244
211.907
210.544
209.162
207.77
206.372
204.964
203.531
202.054
200.517
198.92
197.284
195.648
194.059
192.559
191.183
189.95
188.872
187.955
187.202
186.613
186.182
185.894
185.731
185.671
185.688
185.758
185.856
185.962
186.063
186.147
186.212
186.259
186.293
186.322
186.35
186.382
186.416
186.446
186.459
186.437
186.363
186.222
186.006
185.712
185.338
184.886
184.359
183.762
183.103
182.39
181.631
180.833
179.997
179.122
178.207
177.249
176.248
175.207
174.128
173.018
171.881
170.722
169.545
168.353
167.15
165.937
164.715
163.485
162.249
161.005
159.755
158.497
157.23
155.956
154.673
153.381
152.082
150.775
149.46
148.137
146.806
145.468
144.121
142.765
141.402
140.029
138.648
137.258
135.858
134.449
133.03
131.601
130.162
128.713
127.252
125.782
124.3
122.808
121.305
119.791
118.267
116.731
115.185
113.627
112.058
110.478
108.886
107.283
105.669
104.043
102.406
100.758
99.0992
97.4291
95.7481
94.0552
92.3495
90.627
241.174
241.097
240.995
240.875
240.716
240.513
240.272
240.004
239.708
239.375
239.004
238.599
238.162
237.699
237.219
236.729
236.238
235.753
235.282
234.833
234.412
234.027
233.681
233.377
233.117
232.899
232.721
232.576
232.457
232.353
232.255
232.153
232.039
231.907
231.755
231.583
231.394
231.19
230.974
230.747
230.502
230.232
229.934
229.603
229.214
228.755
228.213
227.594
226.912
226.142
225.286
224.356
223.37
222.332
221.247
220.121
218.956
217.757
216.523
215.256
213.959
212.635
211.292
209.936
208.575
207.214
205.849
204.471
203.056
201.577
200.013
198.365
196.66
194.947
193.285
191.719
190.284
189.001
187.886
186.948
186.194
185.625
185.234
185.007
184.918
184.94
185.04
185.189
185.358
185.523
185.668
185.782
185.864
185.918
185.953
185.982
186.016
186.062
186.122
186.188
186.244
186.27
186.235
186.124
185.926
185.639
185.264
184.807
184.271
183.665
182.994
182.269
181.498
180.691
179.853
178.983
178.079
177.135
176.15
175.123
174.057
172.957
171.827
170.674
169.503
168.316
167.116
165.906
164.687
163.459
162.224
160.983
159.734
158.477
157.213
155.94
154.659
153.369
152.071
150.765
149.451
148.129
146.799
145.461
144.115
142.761
141.398
140.026
138.645
137.255
135.856
134.447
133.029
131.6
130.161
128.711
127.251
125.781
124.299
122.807
121.304
119.79
118.265
116.729
115.182
113.625
112.055
110.475
108.883
107.279
105.664
104.037
102.399
100.749
99.087
97.4137
95.7284
94.03
92.3172
90.5862
241.64
241.595
241.507
241.373
241.192
240.976
240.716
240.406
240.045
239.638
239.192
238.717
238.217
237.696
237.163
236.628
236.104
235.601
235.129
234.698
234.315
233.983
233.703
233.476
233.297
233.161
233.061
232.989
232.933
232.883
232.828
232.758
232.667
232.55
232.404
232.232
232.035
231.813
231.571
231.308
231.022
230.712
230.368
229.976
229.526
229.013
228.448
227.838
227.149
226.352
225.445
224.449
223.382
222.261
221.098
219.9
218.673
217.418
216.137
214.83
213.504
212.165
210.819
209.474
208.134
206.797
205.456
204.093
202.681
201.184
199.578
197.864
196.074
194.268
192.513
190.859
189.337
187.97
186.783
185.799
185.025
184.469
184.126
183.975
183.984
184.112
184.32
184.567
184.821
185.055
185.251
185.397
185.493
185.547
185.573
185.59
185.618
185.67
185.752
185.856
185.965
186.057
186.075
186.006
185.836
185.565
185.195
184.734
184.192
183.575
182.894
182.157
181.375
180.558
179.714
178.843
177.944
177.011
176.04
175.027
173.975
172.886
171.766
170.62
169.454
168.272
167.076
165.87
164.655
163.43
162.197
160.957
159.711
158.456
157.194
155.923
154.643
153.355
152.058
150.754
149.441
148.12
146.792
145.455
144.109
142.755
141.393
140.022
138.641
137.252
135.853
134.445
133.027
131.598
130.16
128.71
127.25
125.779
124.298
122.805
121.302
119.788
118.263
116.727
115.18
113.622
112.052
110.471
108.879
107.274
105.658
104.03
102.39
100.739
99.0745
97.398
95.7086
94.0051
92.2857
90.5472
242.195
242.145
242.043
241.893
241.69
241.424
241.098
240.717
240.281
239.787
239.24
238.65
238.029
237.39
236.751
236.137
235.56
235.034
234.57
234.176
233.855
233.607
233.429
233.314
233.254
233.238
233.256
233.295
233.342
233.384
233.409
233.406
233.369
233.291
233.171
233.009
232.807
232.569
232.291
231.985
231.649
231.281
230.87
230.406
229.888
229.335
228.754
228.117
227.381
226.528
225.565
224.509
223.385
222.209
220.996
219.752
218.48
217.183
215.863
214.524
213.174
211.822
210.475
209.14
207.816
206.498
205.173
203.817
202.399
200.88
199.229
197.449
195.57
193.658
191.787
190.012
188.361
186.86
185.551
184.475
183.668
183.122
182.836
182.782
182.918
183.187
183.534
183.906
184.265
184.58
184.832
185.011
185.116
185.158
185.159
185.147
185.151
185.196
185.292
185.434
185.599
185.791
185.873
185.855
185.723
185.473
185.113
184.654
184.108
183.485
182.795
182.048
181.257
180.431
179.579
178.705
177.806
176.879
175.919
174.92
173.882
172.806
171.697
170.559
169.399
168.222
167.031
165.829
164.617
163.396
162.167
160.93
159.685
158.433
157.172
155.903
154.626
153.339
152.044
150.741
149.43
148.11
146.783
145.447
144.102
142.749
141.388
140.017
138.637
137.249
135.85
134.442
133.024
131.596
130.158
128.709
127.249
125.778
124.296
122.804
121.3
119.786
118.261
116.725
115.177
113.619
112.049
110.468
108.875
107.27
105.653
104.023
102.382
100.728
99.0618
97.3823
95.6889
93.9805
92.2553
90.5101
242.689
242.632
242.514
242.332
242.081
241.756
241.343
240.844
240.265
239.614
238.899
238.137
237.348
236.556
235.791
235.071
234.423
233.866
233.413
233.069
232.836
232.709
232.679
232.73
232.845
233.005
233.195
233.396
233.594
233.775
233.923
234.027
234.077
234.067
233.993
233.855
233.656
233.402
233.098
232.74
232.347
231.909
231.421
230.889
230.329
229.752
229.14
228.445
227.644
226.728
225.708
224.603
223.434
222.219
220.968
219.688
218.381
217.049
215.697
214.331
212.96
211.596
210.246
208.915
207.601
206.296
204.982
203.631
202.208
200.672
198.988
197.154
195.195
193.175
191.172
189.249
187.44
185.777
184.315
183.121
182.234
181.675
181.435
181.482
181.76
182.197
182.716
183.247
183.736
184.147
184.458
184.662
184.763
184.775
184.724
184.649
184.596
184.603
184.694
184.866
185.069
185.455
185.593
185.643
185.561
185.342
184.996
184.54
183.993
183.367
182.676
181.926
181.129
180.298
179.442
178.566
177.668
176.743
175.789
174.801
173.777
172.715
171.619
170.491
169.339
168.168
166.982
165.784
164.576
163.359
162.133
160.899
159.657
158.407
157.148
155.882
154.606
153.321
152.028
150.727
149.417
148.099
146.773
145.438
144.095
142.743
141.382
140.012
138.633
137.245
135.847
134.439
133.022
131.594
130.156
128.707
127.247
125.777
124.295
122.802
121.299
119.784
118.258
116.722
115.175
113.616
112.046
110.464
108.87
107.265
105.647
104.016
102.374
100.718
99.0491
97.3666
95.6695
93.9566
92.2261
90.475
243.032
242.967
242.825
242.603
242.288
241.872
241.342
240.687
239.911
239.029
238.061
237.041
236.005
234.99
234.035
233.177
232.447
231.848
231.405
231.13
231.026
231.079
231.265
231.555
231.915
232.317
232.737
233.157
233.56
233.927
234.241
234.49
234.662
234.751
234.751
234.661
234.482
234.22
233.883
233.484
233.02
232.515
231.982
231.425
230.85
230.252
229.586
228.827
227.959
226.982
225.91
224.762
223.555
222.306
221.024
219.712
218.375
217.014
215.635
214.246
212.857
211.479
210.122
208.788
207.477
206.177
204.87
203.524
202.103
200.564
198.871
197.01
195
192.896
190.777
188.713
186.753
184.941
183.335
182.019
181.046
180.437
180.192
180.284
180.657
181.235
181.92
182.62
183.259
183.786
184.171
184.403
184.489
184.448
184.316
184.14
183.981
183.9
183.946
184.137
184.451
184.875
185.172
185.335
185.331
185.158
184.836
184.388
183.84
183.212
182.517
181.768
180.974
180.145
179.291
178.417
177.522
176.602
175.652
174.672
173.659
172.612
171.529
170.415
169.273
168.109
166.929
165.736
164.533
163.319
162.096
160.865
159.626
158.378
157.122
155.858
154.584
153.302
152.011
150.711
149.403
148.087
146.762
145.429
144.087
142.736
141.376
140.006
138.628
137.24
135.843
134.436
133.019
131.592
130.154
128.705
127.246
125.775
124.294
122.801
121.297
119.782
118.256
116.72
115.172
113.613
112.042
110.46
108.866
107.259
105.641
104.009
102.365
100.708
99.0365
97.3511
95.6506
93.9336
92.1982
90.4418
243.2
243.129
242.966
242.702
242.307
241.757
241.036
240.146
239.098
237.922
236.655
235.343
234.031
232.764
231.589
230.549
229.681
229.04
228.645
228.501
228.595
228.896
229.358
229.932
230.57
231.233
231.899
232.554
233.186
233.774
234.293
234.72
235.038
235.24
235.32
235.281
235.126
234.867
234.514
234.082
233.594
233.075
232.545
231.997
231.424
230.798
230.084
229.266
228.338
227.306
226.185
224.996
223.755
222.474
221.161
219.821
218.457
217.071
215.67
214.261
212.856
211.465
210.096
208.753
207.435
206.133
204.826
203.486
202.076
200.552
198.876
197.028
195.015
192.879
190.692
188.531
186.46
184.538
182.827
181.413
180.358
179.688
179.403
179.479
179.87
180.5
181.27
182.078
182.831
183.462
183.93
184.212
184.305
184.224
184.006
183.709
183.409
183.192
183.139
183.298
183.669
184.172
184.624
184.926
185.024
184.915
184.629
184.199
183.658
183.031
182.335
181.586
180.793
179.966
179.115
178.247
177.359
176.447
175.506
174.534
173.531
172.496
171.428
170.328
169.198
168.044
166.872
165.685
164.486
163.277
162.058
160.83
159.594
158.348
157.094
155.832
154.561
153.281
151.992
150.694
149.388
148.074
146.75
145.418
144.078
142.728
141.369
140
138.623
137.236
135.839
134.433
133.016
131.589
130.152
128.703
127.244
125.774
124.292
122.799
121.295
119.78
118.254
116.717
115.169
113.61
112.039
110.456
108.861
107.254
105.635
104.002
102.356
100.697
99.024
97.336
95.6322
93.9114
92.1717
90.4106
243.272
243.187
242.987
242.658
242.151
241.433
240.491
239.337
238.005
236.545
235.012
233.456
231.924
230.459
229.108
227.926
226.976
226.318
225.989
225.987
226.287
226.841
227.59
228.461
229.373
230.253
231.069
231.846
232.623
233.404
234.145
234.782
235.269
235.596
235.764
235.778
235.644
235.381
235.013
234.568
234.088
233.602
233.098
232.584
232.034
231.393
230.642
229.773
228.789
227.704
226.537
225.307
224.03
222.717
221.374
220.007
218.618
217.21
215.79
214.365
212.946
211.541
210.159
208.803
207.473
206.159
204.846
203.509
202.113
200.619
198.989
197.195
195.235
193.132
190.947
188.755
186.632
184.652
182.885
181.409
180.287
179.548
179.201
179.222
179.566
180.163
180.92
181.733
182.507
183.173
183.686
184.016
184.147
184.081
183.841
183.477
183.065
182.706
182.508
182.559
182.893
183.434
184.002
184.437
184.646
184.614
184.375
183.973
183.447
182.827
182.136
181.39
180.599
179.775
178.925
178.058
177.174
176.271
175.342
174.382
173.392
172.37
171.317
170.231
169.114
167.972
166.809
165.63
164.438
163.234
162.019
160.794
159.56
158.317
157.066
155.805
154.536
153.258
151.972
150.676
149.372
148.06
146.738
145.407
144.068
142.719
141.361
139.994
138.617
137.231
135.835
134.429
133.013
131.586
130.149
128.701
127.242
125.772
124.291
122.798
121.294
119.779
118.253
116.715
115.167
113.607
112.036
110.452
108.857
107.249
105.629
103.995
102.348
100.687
99.0119
97.3213
95.6146
93.8903
92.1467
90.3813
243.387
243.285
243.043
242.642
242.015
241.136
239.999
238.631
237.083
235.418
233.694
231.95
230.216
228.522
226.919
225.494
224.362
223.617
223.268
223.343
223.828
224.667
225.776
227.052
228.375
229.612
230.663
231.492
232.242
233.054
233.957
234.831
235.544
236.041
236.327
236.421
236.342
236.108
235.75
235.31
234.832
234.327
233.866
233.358
232.791
232.111
231.305
230.374
229.33
228.188
226.972
225.698
224.381
223.033
221.66
220.266
218.853
217.425
215.987
214.548
213.115
211.697
210.3
208.929
207.583
206.255
204.931
203.592
202.209
200.752
199.185
197.481
195.626
193.628
191.527
189.389
187.29
185.31
183.527
182.015
180.833
180.017
179.584
179.516
179.765
180.266
180.932
181.661
182.363
182.979
183.471
183.809
183.97
183.948
183.756
183.433
183.038
182.643
182.341
182.242
182.43
182.883
183.449
183.94
184.223
184.256
184.067
183.701
183.201
182.597
181.916
181.177
180.393
179.573
178.727
177.861
176.978
176.079
175.158
174.213
173.238
172.232
171.194
170.124
169.022
167.892
166.74
165.57
164.385
163.187
161.977
160.756
159.526
158.285
157.036
155.778
154.51
153.235
151.95
150.657
149.356
148.045
146.725
145.396
144.058
142.71
141.353
139.987
138.611
137.226
135.83
134.425
133.009
131.583
130.147
128.699
127.24
125.77
124.289
122.796
121.292
119.777
118.251
116.713
115.165
113.604
112.033
110.449
108.853
107.244
105.623
103.988
102.34
100.677
99.0002
97.3074
95.5979
93.8704
92.1232
90.3541
243.818
243.691
243.409
242.952
242.241
241.255
239.989
238.479
236.784
234.965
233.072
231.129
229.147
227.147
225.185
223.365
221.846
220.803
220.356
220.513
221.247
222.455
224.007
225.772
227.614
229.319
230.704
231.682
232.339
233.006
233.876
234.924
235.883
236.59
237.024
237.225
237.232
237.074
236.779
236.384
235.937
235.465
234.948
234.38
233.727
232.955
232.06
231.047
229.93
228.727
227.458
226.138
224.782
223.399
221.996
220.576
219.141
217.696
216.243
214.79
213.344
211.912
210.502
209.116
207.755
206.413
205.078
203.734
202.362
200.936
199.432
197.824
196.098
194.25
192.303
190.303
188.316
186.415
184.675
183.168
181.951
181.062
180.524
180.33
180.437
180.785
181.3
181.89
182.462
182.959
183.363
183.657
183.809
183.806
183.67
183.443
183.161
182.853
182.569
182.403
182.451
182.729
183.147
183.556
183.823
183.878
183.722
183.39
182.918
182.339
181.678
180.953
180.178
179.365
178.525
177.663
176.784
175.888
174.973
174.036
173.075
172.086
171.065
170.011
168.924
167.808
166.667
165.506
164.329
163.138
161.934
160.717
159.49
158.252
157.005
155.749
154.484
153.211
151.929
150.638
149.338
148.029
146.711
145.384
144.047
142.701
141.345
139.98
138.605
137.22
135.826
134.421
133.006
131.58
130.144
128.697
127.238
125.768
124.287
122.795
121.291
119.776
118.249
116.711
115.162
113.602
112.03
110.445
108.849
107.239
105.617
103.981
102.332
100.668
98.9888
97.2938
95.5818
93.8514
92.101
90.3286
244.621
244.467
244.16
243.668
242.918
241.886
240.566
238.989
237.212
235.296
233.287
231.207
229.066
226.888
224.745
222.758
221.119
219.996
219.524
219.745
220.613
221.96
223.624
225.474
227.587
229.499
231.124
232.21
232.788
233.256
234.005
235.124
236.295
237.182
237.727
238.003
238.085
238.008
237.795
237.469
237.059
236.581
236.041
235.409
234.659
233.786
232.794
231.697
230.508
229.245
227.926
226.565
225.174
223.762
222.334
220.893
219.441
217.982
216.517
215.054
213.597
212.154
210.731
209.333
207.958
206.603
205.26
203.913
202.549
201.147
199.691
198.161
196.546
194.841
193.055
191.22
189.384
187.61
185.96
184.5
183.286
182.353
181.726
181.411
181.371
181.549
181.878
182.29
182.711
183.086
183.393
183.615
183.728
183.71
183.574
183.381
183.191
183.009
182.821
182.673
182.65
182.783
183.027
183.292
183.479
183.517
183.378
183.072
182.626
182.069