/*--------------------------------*- C++ -*----------------------------------*\
  =========                 |
  \\      /  F ield         | OpenFOAM: The Open Source CFD Toolbox
   \\    /   O peration     | Website:  https://openfoam.org
    \\  /    A nd           | Version:  7
     \\/     M anipulation  |
\*---------------------------------------------------------------------------*/
FoamFile
{
    version     2.0;
    format      ascii;
    class       volScalarField;
    location    "0.075";
    object      pMean;
}
// * * * * * * * * * * * * * * * * * * * * * * * * * * * * * * * * * * * * * //

dimensions      [0 2 -2 0 0 0 0];

internalField   nonuniform List<scalar> 
12225
(
-2.20246
-1.05067
-0.618561
-0.507515
-0.452406
-0.413716
-0.392955
-0.393138
-0.410914
-0.439425
-0.471745
-0.503424
-0.531876
-0.559763
-0.589201
-0.639651
-0.715354
-0.941284
-1.87581
-1.03933
-0.62229
-0.50371
-0.453091
-0.417063
-0.396309
-0.395332
-0.411824
-0.439082
-0.47055
-0.50108
-0.529675
-0.555381
-0.587444
-0.625249
-0.704232
-0.789311
-1.7058
-1.05866
-0.645891
-0.505753
-0.455282
-0.421118
-0.399093
-0.395259
-0.4084
-0.432585
-0.461267
-0.490483
-0.517779
-0.545314
-0.574582
-0.615586
-0.670065
-0.75051
-1.50885
-1.02298
-0.645104
-0.494489
-0.445927
-0.416841
-0.396533
-0.391296
-0.40211
-0.423888
-0.450939
-0.478786
-0.506407
-0.533403
-0.564307
-0.600964
-0.651084
-0.71383
-1.33995
-0.986429
-0.650337
-0.491721
-0.439671
-0.413665
-0.395096
-0.388634
-0.396814
-0.416133
-0.441082
-0.467781
-0.494463
-0.521828
-0.551678
-0.587075
-0.630499
-0.681253
-1.18186
-0.932192
-0.642685
-0.483097
-0.426407
-0.403213
-0.38793
-0.381707
-0.388152
-0.405363
-0.428741
-0.454422
-0.480726
-0.507818
-0.53707
-0.570526
-0.609038
-0.652912
-1.03958
-0.868128
-0.626591
-0.473144
-0.411993
-0.390402
-0.378603
-0.37361
-0.378893
-0.394195
-0.415907
-0.440548
-0.466265
-0.492989
-0.521497
-0.553037
-0.588063
-0.626612
-0.907147
-0.794915
-0.599732
-0.458228
-0.394514
-0.373388
-0.364774
-0.361714
-0.36665
-0.380539
-0.400977
-0.424787
-0.449971
-0.476212
-0.503899
-0.533889
-0.566307
-0.601211
-0.785224
-0.716791
-0.56313
-0.437476
-0.374171
-0.352925
-0.346964
-0.346447
-0.352018
-0.36506
-0.384328
-0.407344
-0.432123
-0.457987
-0.484998
-0.513699
-0.544118
-0.576371
-0.672019
-0.635167
-0.516845
-0.409426
-0.349844
-0.328822
-0.32495
-0.327042
-0.33389
-0.346838
-0.365441
-0.387809
-0.41214
-0.437604
-0.464033
-0.491732
-0.520697
-0.551053
-0.563883
-0.551154
-0.46229
-0.373897
-0.32084
-0.301031
-0.298934
-0.303663
-0.312421
-0.325908
-0.344247
-0.366277
-0.390391
-0.415641
-0.441658
-0.468609
-0.496438
-0.525303
-0.468675
-0.471753
-0.405118
-0.333849
-0.288764
-0.271512
-0.271193
-0.278231
-0.289062
-0.303657
-0.322276
-0.344182
-0.36815
-0.393276
-0.419061
-0.445524
-0.472576
-0.500358
-0.377092
-0.392449
-0.344085
-0.288423
-0.252065
-0.238461
-0.240263
-0.249609
-0.262587
-0.278662
-0.297995
-0.320218
-0.34434
-0.36952
-0.395205
-0.421356
-0.447802
-0.474682
-0.266893
-0.297597
-0.267872
-0.228434
-0.202794
-0.194933
-0.200069
-0.212321
-0.228133
-0.246408
-0.267071
-0.289934
-0.314377
-0.339754
-0.365522
-0.391526
-0.417536
-0.443648
-0.147601
-0.189568
-0.174849
-0.151012
-0.137668
-0.137765
-0.147909
-0.163936
-0.183033
-0.20413
-0.226979
-0.251374
-0.276831
-0.302845
-0.328944
-0.354991
-0.380755
-0.40634
-0.0155395
-0.0624077
-0.0603176
-0.0517714
-0.05213
-0.0623549
-0.079497
-0.100786
-0.124355
-0.149274
-0.175159
-0.201795
-0.228868
-0.256067
-0.283024
-0.309586
-0.335503
-0.360767
0.134469
0.0869475
0.0802123
0.0744063
0.0592822
0.0366705
0.010038
-0.0185801
-0.0481933
-0.0783328
-0.10868
-0.138964
-0.168894
-0.198252
-0.226824
-0.254545
-0.281291
-0.307158
0.33325
0.273459
0.251496
0.229842
0.199005
0.162091
0.123397
0.08501
0.0475238
0.010953
-0.0247046
-0.0593606
-0.092844
-0.125089
-0.156011
-0.185621
-0.213757
-0.240455
0.595186
0.519162
0.477083
0.434416
0.383181
0.327201
0.271448
0.21827
0.168052
0.120454
0.0752753
0.0325615
-0.00756988
-0.0451446
-0.0802815
-0.113264
-0.144252
-0.173532
0.843906
0.761662
0.702768
0.636185
0.560628
0.484471
0.413723
0.349516
0.29053
0.235328
0.183232
0.13415
0.0881877
0.0453106
0.00541571
-0.0316965
-0.0661519
-0.0982112
1.08498
0.990088
0.906465
0.809556
0.705333
0.605509
0.515786
0.435819
0.363492
0.297294
0.236719
0.18158
0.131508
0.085864
0.0440023
0.00529637
-0.0305761
-0.0639807
1.32533
1.2114
1.09444
0.963703
0.83566
0.722723
0.625783
0.539565
0.459775
0.385262
0.316624
0.254323
0.198071
0.14711
0.100678
0.0580768
0.0188526
-0.0174166
1.60246
1.44022
1.26395
1.08165
0.918392
0.783727
0.672414
0.575431
0.487743
0.408293
0.3372
0.274014
0.2176
0.166577
0.119958
0.0771543
0.0379083
0.0018262
1.88377
1.67236
1.43383
1.21068
1.03157
0.891822
0.773185
0.663617
0.561781
0.470426
0.390826
0.321613
0.260423
0.205355
0.155322
0.109633
0.0678333
0.0293834
2.16064
1.86272
1.5223
1.24339
1.04869
0.907448
0.78601
0.672872
0.569504
0.478846
0.400562
0.332149
0.271139
0.215955
0.165832
0.120251
0.078823
0.0409916
2.53125
2.1103
1.66672
1.34814
1.14639
0.995204
0.855184
0.723755
0.608456
0.511528
0.429607
0.358274
0.29463
0.237266
0.185468
0.138576
0.0959604
0.0569182
2.84935
2.19796
1.64905
1.3336
1.15436
1.0066
0.862129
0.728078
0.613264
0.517559
0.436191
0.364791
0.300921
0.243431
0.191622
0.144807
0.102354
0.0635928
3.36594
2.42322
1.72768
1.39662
1.21448
1.04917
0.889284
0.748106
0.630669
0.533269
0.450184
0.377281
0.312301
0.25406
0.20173
0.154563
0.111793
0.0727141
3.59295
2.38615
1.69095
1.4066
1.22739
1.05479
0.891444
0.750543
0.63399
0.536909
0.453749
0.38073
0.315701
0.257495
0.205205
0.15817
0.115553
0.0768743
4.40285
2.43153
1.69159
1.44032
1.24906
1.06559
0.899083
0.757642
0.64059
0.542857
0.459126
0.385694
0.320381
0.261979
0.209547
0.162438
0.119813
0.0813334
-0.639955
-0.654429
-0.675963
-0.69395
-0.702867
-0.704519
-0.704704
-0.711311
-0.732067
-0.772929
-0.837107
-0.924859
-1.03299
-1.15646
-1.28863
-1.42167
-1.54749
-1.65864
-1.74897
-1.81442
-1.85306
-1.86536
-1.8545
-1.82581
-1.7858
-1.741
-1.69719
-1.65922
-1.62891
-1.608
-1.59689
-1.59793
-1.61298
-1.63994
-1.6782
-1.7294
-1.79448
-1.86993
-1.95132
-2.04121
-2.14078
-2.2481
-2.35964
-2.47409
-2.58721
-2.69566
-2.7992
-2.8968
-2.98357
-3.05388
-3.10504
-3.13527
-3.14438
-3.13398
-3.10649
-3.06463
-3.01134
-2.9488
-2.87665
-2.79368
-2.70058
-2.60245
-2.50683
-2.41795
-2.33298
-2.24762
-2.15852
-2.06326
-1.96013
-1.84785
-1.72547
-1.59218
-1.44724
-1.28994
-1.11951
-0.935179
-0.736272
-0.522311
-0.293185
-0.0492588
0.208502
0.478471
0.758503
1.04621
1.33917
1.63502
1.9316
2.22686
2.51886
2.80573
3.08561
3.35665
3.617
3.86488
4.09866
4.31694
4.51863
4.70299
4.86972
5.01893
5.15099
5.26651
5.36624
5.45099
5.52168
5.57924
5.62464
5.65885
5.68293
5.69794
5.70495
5.70506
5.69933
5.68879
5.6744
5.65698
5.6373
5.61599
5.59361
5.5706
5.54733
5.52409
5.50108
5.47849
5.45642
5.43496
5.41416
5.39404
5.37461
5.35588
5.33782
5.32042
5.30365
5.28752
5.27201
5.2571
5.24277
5.22902
5.21581
5.20314
5.19097
5.17928
5.16804
5.15722
5.14679
5.13671
5.12695
5.11747
5.10825
5.09926
5.09048
5.08187
5.07343
5.06512
5.05695
5.04889
5.04094
5.03309
5.02535
5.01771
5.01019
5.00278
4.99552
4.98844
4.98155
4.97493
4.96864
4.96278
4.95744
4.95286
4.94915
4.94678
4.94587
4.94739
4.95147
4.96011
4.97361
4.99605
5.03019
5.07694
-0.718503
-0.736181
-0.764474
-0.787397
-0.799833
-0.80216
-0.803372
-0.810797
-0.833658
-0.877586
-0.945659
-1.03755
-1.15004
-1.2779
-1.41434
-1.55158
-1.68171
-1.79729
-1.89193
-1.96064
-2.00045
-2.01124
-1.99594
-1.96022
-1.91147
-1.85777
-1.80612
-1.76193
-1.72884
-1.70952
-1.70586
-1.71667
-1.7423
-1.78346
-1.83597
-1.89524
-1.96565
-2.05031
-2.13917
-2.23188
-2.34093
-2.45975
-2.57542
-2.6902
-2.80641
-2.91562
-3.01571
-3.10849
-3.1887
-3.25103
-3.29328
-3.31537
-3.3179
-3.30148
-3.26743
-3.21907
-3.15959
-3.0892
-3.00919
-2.92348
-2.83151
-2.73269
-2.63333
-2.5378
-2.4445
-2.35019
-2.25217
-2.1485
-2.03776
-1.91889
-1.79098
-1.65318
-1.5047
-1.34464
-1.17206
-0.985941
-0.785301
-0.569396
-0.338015
-0.0916463
0.168543
0.44085
0.72316
1.01305
1.30805
1.60576
1.90402
2.2008
2.49422
2.78245
3.06369
3.33611
3.59788
3.84719
4.08237
4.30199
4.5049
4.69036
4.85806
5.00812
5.14095
5.25717
5.35757
5.44298
5.51431
5.57251
5.61851
5.6533
5.67791
5.6934
5.70086
5.70138
5.69601
5.6858
5.6717
5.65454
5.63508
5.61398
5.59176
5.5689
5.54576
5.52263
5.49973
5.47723
5.45524
5.43386
5.41312
5.39307
5.3737
5.35502
5.33702
5.31968
5.30299
5.28693
5.27149
5.25664
5.24238
5.22868
5.21553
5.2029
5.19077
5.17911
5.1679
5.1571
5.14669
5.13662
5.12687
5.1174
5.10819
5.0992
5.09042
5.08181
5.07337
5.06506
5.05688
5.04882
5.04086
5.03301
5.02526
5.01761
5.01008
5.00266
4.99539
4.98828
4.98137
4.97471
4.96837
4.96245
4.95704
4.95235
4.94852
4.94593
4.94483
4.94588
4.94962
4.95709
4.96985
4.98831
5.01782
5.04403
-0.753843
-0.767949
-0.792688
-0.816634
-0.837534
-0.856274
-0.877747
-0.908244
-0.954214
-1.02022
-1.10824
-1.21764
-1.34534
-1.48621
-1.63356
-1.7798
-1.91696
-2.03738
-2.13459
-2.20364
-2.2415
-2.24828
-2.22732
-2.1843
-2.12613
-2.06003
-1.99349
-1.93383
-1.88754
-1.85998
-1.85454
-1.87135
-1.90607
-1.95474
-2.01757
-2.09611
-2.1883
-2.29302
-2.40973
-2.53566
-2.66547
-2.79427
-2.9205
-3.04305
-3.16194
-3.27524
-3.37971
-3.47219
-3.54816
-3.6032
-3.63492
-3.64395
-3.6324
-3.60257
-3.557
-3.49804
-3.42895
-3.35172
-3.26433
-3.16839
-3.0668
-2.96083
-2.85219
-2.74241
-2.63161
-2.51919
-2.40421
-2.28567
-2.16254
-2.0337
-1.89801
-1.75431
-1.60143
-1.43818
-1.26336
-1.07569
-0.873842
-0.656655
-0.423505
-0.174687
0.0887199
0.36487
0.651352
0.94545
1.24445
1.54583
1.84739
2.14716
2.44335
2.73426
3.01817
3.29333
3.5579
3.81005
4.04803
4.27031
4.47567
4.66334
4.83299
4.98477
5.11915
5.23681
5.33858
5.42533
5.49798
5.55745
5.60468
5.64065
5.66637
5.6829
5.69132
5.69272
5.68817
5.67871
5.66528
5.64874
5.62982
5.6092
5.58742
5.56495
5.54215
5.51934
5.49673
5.47449
5.45276
5.43161
5.41109
5.39124
5.37206
5.35356
5.33572
5.31854
5.302
5.28608
5.27076
5.25604
5.2419
5.22831
5.21525
5.20271
5.19065
5.17906
5.16789
5.15713
5.14674
5.13668
5.12694
5.11747
5.10825
5.09926
5.09047
5.08185
5.07339
5.06507
5.05687
5.0488
5.04082
5.03295
5.02518
5.01751
5.00995
5.0025
4.99518
4.98802
4.98104
4.9743
4.96786
4.9618
4.95623
4.95129
4.94719
4.94414
4.94255
4.94269
4.94546
4.95087
4.96112
4.97407
4.99545
5.00884
-0.754411
-0.760131
-0.77416
-0.801512
-0.839721
-0.885655
-0.940104
-1.00597
-1.08654
-1.18435
-1.30052
-1.43434
-1.58316
-1.74225
-1.90524
-2.06458
-2.21212
-2.3398
-2.44083
-2.50974
-2.5437
-2.5435
-2.5135
-2.46056
-2.39253
-2.3177
-2.24394
-2.17885
-2.12856
-2.10017
-2.09485
-2.11081
-2.1463
-2.19986
-2.27069
-2.35936
-2.4658
-2.5881
-2.7229
-2.86655
-3.01498
-3.16382
-3.31025
-3.45256
-3.58871
-3.71618
-3.83183
-3.93166
-4.01097
-4.06509
-4.09118
-4.08946
-4.06285
-4.0146
-3.95
-3.8746
-3.78877
-3.69272
-3.58821
-3.47603
-3.35759
-3.23445
-3.10824
-2.98017
-2.85093
-2.72078
-2.58963
-2.45701
-2.3221
-2.18373
-2.04055
-1.89113
-1.73403
-1.56781
-1.39102
-1.20207
-0.999237
-0.780885
-0.545832
-0.293907
-0.0260817
0.255536
0.548084
0.848366
1.15326
1.46001
1.76633
2.07035
2.37041
2.66502
2.95263
3.23158
3.50007
3.75622
3.99817
4.22424
4.4331
4.62389
4.79629
4.95047
5.08701
5.20668
5.31038
5.39901
5.47352
5.53484
5.58389
5.6216
5.64898
5.66707
5.67695
5.67971
5.67643
5.66813
5.65576
5.64016
5.62211
5.60224
5.58114
5.55926
5.53699
5.51464
5.49245
5.47059
5.4492
5.42837
5.40815
5.38856
5.36963
5.35136
5.33374
5.31675
5.30039
5.28464
5.26948
5.25491
5.2409
5.22744
5.21449
5.20205
5.19008
5.17856
5.16746
5.15676
5.14641
5.1364
5.12668
5.11724
5.10805
5.09907
5.09029
5.08168
5.07322
5.0649
5.0567
5.04862
5.04064
5.03276
5.02497
5.01728
5.00969
5.00221
4.99485
4.98763
4.98058
4.97375
4.96719
4.96097
4.9552
4.94999
4.94554
4.94199
4.93977
4.93895
4.94042
4.94379
4.95097
4.95916
4.97229
4.97522
-0.766879
-0.769552
-0.787479
-0.824558
-0.879515
-0.950087
-1.03376
-1.13002
-1.24039
-1.36674
-1.51006
-1.66956
-1.84238
-2.02358
-2.20638
-2.38271
-2.54375
-2.68088
-2.78688
-2.85571
-2.8853
-2.87791
-2.83962
-2.77862
-2.70383
-2.62399
-2.54714
-2.48054
-2.43028
-2.40137
-2.39629
-2.41481
-2.45552
-2.51757
-2.60047
-2.70377
-2.82605
-2.96468
-3.11629
-3.27674
-3.44156
-3.60678
-3.76913
-3.926
-4.07526
-4.21455
-4.34054
-4.44863
-4.53346
-4.58971
-4.61309
-4.60198
-4.5598
-4.49323
-4.40781
-4.30835
-4.19798
-4.0781
-3.95007
-3.8151
-3.67467
-3.53055
-3.38437
-3.23735
-3.09033
-2.94379
-2.79792
-2.65254
-2.50701
-2.3602
-2.21062
-2.05653
-1.89616
-1.72783
-1.54986
-1.36046
-1.15758
-0.938964
-0.70252
-0.44709
-0.173649
0.115184
0.415855
0.724454
1.03725
1.35108
1.66356
1.97289
2.27769
2.57671
2.86869
3.15216
3.42541
3.68651
3.93344
4.16433
4.37765
4.57243
4.74832
4.90556
5.04481
5.16697
5.27303
5.36401
5.44085
5.5045
5.55586
5.59582
5.62535
5.64549
5.65731
5.66189
5.66031
5.6536
5.64268
5.6284
5.61152
5.5927
5.57252
5.55146
5.52991
5.5082
5.48658
5.46525
5.44432
5.42392
5.40409
5.38488
5.3663
5.34834
5.33101
5.3143
5.29819
5.28268
5.26774
5.25337
5.23955
5.22625
5.21346
5.20115
5.1893
5.17789
5.16688
5.15625
5.14598
5.13602
5.12635
5.11695
5.10778
5.09882
5.09006
5.08146
5.07301
5.0647
5.0565
5.04841
5.04043
5.03253
5.02473
5.01702
5.0094
5.00187
4.99446
4.98718
4.98005
4.97311
4.96641
4.96
4.954
4.94848
4.94363
4.93953
4.93656
4.93471
4.9347
4.936
4.93988
4.94372
4.94918
4.94493
-0.803866
-0.809309
-0.837004
-0.888772
-0.961456
-1.04976
-1.15192
-1.26912
-1.4032
-1.55524
-1.72486
-1.90976
-2.10587
-2.30756
-2.50788
-2.69869
-2.87113
-3.01637
-3.12651
-3.19629
-3.22439
-3.21428
-3.17313
-3.11027
-3.03566
-2.95834
-2.88611
-2.82599
-2.78359
-2.7629
-2.76619
-2.79377
-2.84533
-2.92052
-3.01832
-3.13723
-3.27484
-3.42798
-3.59271
-3.76466
-3.9395
-4.11352
-4.28382
-4.44818
-4.60446
-4.74974
-4.87997
-4.99022
-5.07473
-5.12726
-5.14371
-5.1236
-5.06872
-4.9855
-4.88063
-4.7587
-4.62334
-4.47729
-4.32309
-4.16315
-3.99969
-3.83449
-3.66892
-3.50394
-3.34019
-3.17815
-3.01819
-2.86046
-2.70474
-2.55019
-2.39526
-2.23781
-2.07545
-1.90603
-1.72776
-1.53889
-1.33716
-1.11959
-0.882833
-0.62458
-0.34524
-0.0480136
0.262466
0.581262
0.903753
1.22618
1.54592
1.86128
2.17115
2.47471
2.77108
3.05914
3.33735
3.60379
3.85627
4.09267
4.31121
4.51073
4.6908
4.85168
4.99413
5.11918
5.22796
5.32161
5.40114
5.46748
5.5215
5.56408
5.59615
5.61872
5.63287
5.63968
5.64022
5.63549
5.6264
5.6138
5.59843
5.58095
5.56194
5.54191
5.52127
5.50036
5.47946
5.45876
5.43841
5.41853
5.39918
5.38041
5.36224
5.34467
5.3277
5.31131
5.29551
5.28027
5.26559
5.25144
5.23781
5.2247
5.21208
5.19992
5.18821
5.17692
5.16603
5.15549
5.14529
5.13541
5.1258
5.11644
5.10732
5.0984
5.08966
5.08109
5.07265
5.06435
5.05616
5.04808
5.04009
5.03219
5.02438
5.01664
5.009
5.00144
4.99397
4.98662
4.9794
4.97235
4.9655
4.9589
4.95264
4.94678
4.94148
4.9368
4.93302
4.9301
4.92851
4.92777
4.92844
4.92834
4.92746
4.91782
-0.840647
-0.860779
-0.905456
-0.971854
-1.05568
-1.15521
-1.27137
-1.40566
-1.55917
-1.73151
-1.92056
-2.12277
-2.33357
-2.54751
-2.75828
-2.95848
-3.1393
-3.29178
-3.40784
-3.48262
-3.51547
-3.5103
-3.47481
-3.4192
-3.35382
-3.28812
-3.23015
-3.18641
-3.16189
-3.15992
-3.18202
-3.22823
-3.29807
-3.39042
-3.50374
-3.6361
-3.78506
-3.94763
-4.1205
-4.3
-4.48243
-4.66458
-4.84388
-5.01789
-5.18344
-5.33671
-5.47302
-5.58641
-5.67055
-5.72037
-5.73169
-5.70277
-5.63595
-5.53543
-5.4068
-5.25601
-5.08859
-4.9096
-4.72341
-4.53363
-4.34298
-4.15342
-3.9662
-3.78195
-3.60085
-3.42289
-3.24819
-3.07719
-2.91045
-2.7478
-2.5879
-2.42813
-2.26515
-2.09579
-1.91787
-1.72998
-1.52993
-1.31417
-1.07837
-0.818669
-0.533953
-0.227679
0.0940079
0.424628
0.758391
1.0908
1.41888
1.74095
2.05621
2.36428
2.6648
2.9571
3.23997
3.51158
3.76963
4.01174
4.23587
4.44058
4.62528
4.79022
4.93619
5.0644
5.17616
5.27272
5.35518
5.42448
5.48143
5.52689
5.56175
5.58703
5.60382
5.6132
5.61621
5.61383
5.60694
5.59635
5.58279
5.56692
5.54933
5.53054
5.51099
5.49104
5.47098
5.45103
5.43137
5.4121
5.39331
5.37506
5.35736
5.34023
5.32367
5.30767
5.29221
5.27729
5.2629
5.24902
5.23566
5.22278
5.21036
5.19839
5.18685
5.17571
5.16494
5.15452
5.14443
5.13463
5.1251
5.11581
5.10674
5.09787
5.08917
5.08063
5.07222
5.06394
5.05576
5.04769
5.0397
5.03179
5.02397
5.01622
5.00854
5.00094
4.99342
4.986
4.97869
4.97151
4.96449
4.95768
4.95115
4.94493
4.93915
4.93386
4.92923
4.92521
4.92204
4.91927
4.91696
4.91329
4.90729
4.89333
-0.882541
-0.916862
-0.981028
-1.05716
-1.14703
-1.25289
-1.37719
-1.52148
-1.68586
-1.8683
-2.06557
-2.27377
-2.4888
-2.70658
-2.92216
-3.12892
-3.31814
-3.47992
-3.60636
-3.69233
-3.7372
-3.74498
-3.72372
-3.68401
-3.63698
-3.5926
-3.55887
-3.54175
-3.54513
-3.57095
-3.61931
-3.6893
-3.77964
-3.88896
-4.01615
-4.16003
-4.31926
-4.49217
-4.67664
-4.8699
-5.06887
-5.27063
-5.47194
-5.66885
-5.85687
-6.03063
-6.18332
-6.30733
-6.39539
-6.44138
-6.44115
-6.39381
-6.30165
-6.16947
-6.00385
-5.81229
-5.60267
-5.38229
-5.15722
-4.93203
-4.70984
-4.49251
-4.28084
-4.07482
-3.87403
-3.67802
-3.4868
-3.30105
-3.12169
-2.94923
-2.78306
-2.62111
-2.45934
-2.29262
-2.11721
-1.93138
-1.73302
-1.51871
-1.28408
-1.02409
-0.73499
-0.419655
-0.0856616
0.258348
0.60498
0.948773
1.28633
1.61593
1.93705
2.2498
2.55432
2.85046
3.13744
3.4137
3.67694
3.9246
4.15427
4.36422
4.55364
4.72272
4.87235
5.00391
5.11885
5.21854
5.30414
5.37658
5.43665
5.48514
5.52297
5.55116
5.5708
5.58299
5.58874
5.589
5.58461
5.57632
5.56485
5.55084
5.53489
5.51754
5.49924
5.48039
5.46131
5.44223
5.42334
5.40477
5.38662
5.36895
5.35179
5.33516
5.31906
5.30349
5.28844
5.27389
5.25984
5.24627
5.23317
5.22053
5.20835
5.19658
5.18523
5.17426
5.16364
5.15335
5.14338
5.13368
5.12424
5.11503
5.10603
5.09721
5.08856
5.08006
5.07168
5.06342
5.05526
5.0472
5.03922
5.03131
5.02348
5.01571
5.008
5.00037
4.9928
4.9853
4.97789
4.97057
4.96339
4.95636
4.94953
4.94294
4.93667
4.93073
4.92524
4.9201
4.91539
4.91067
4.90564
4.89878
4.88865
4.87119
-0.968711
-1.00516
-1.06661
-1.13816
-1.22479
-1.32985
-1.45545
-1.60159
-1.76675
-1.94825
-2.14306
-2.34815
-2.56082
-2.77844
-2.99761
-3.21191
-3.41152
-3.5858
-3.72588
-3.82675
-3.888
-3.91409
-3.91363
-3.89783
-3.8782
-3.86447
-3.86394
-3.88136
-3.919
-3.97688
-4.05351
-4.1471
-4.25647
-4.38156
-4.52308
-4.68171
-4.85779
-5.05107
-5.2604
-5.48348
-5.71704
-5.95683
-6.19746
-6.43304
-6.65675
-6.86014
-7.03368
-7.16809
-7.25556
-7.29019
-7.26886
-7.19149
-7.06143
-6.88489
-6.67
-6.42651
-6.16476
-5.89439
-5.62327
-5.35704
-5.09897
-4.85038
-4.61131
-4.38115
-4.15895
-3.94365
-3.7346
-3.53235
-3.3385
-3.15471
-2.98137
-2.81686
-2.65715
-2.49541
-2.32554
-2.14442
-1.94953
-1.73706
-1.50259
-1.24076
-0.946396
-0.621362
-0.273994
0.0848687
0.445973
0.802562
1.15061
1.48847
1.81596
2.1336
2.44208
2.74178
3.03237
3.31268
3.58057
3.8333
4.06807
4.28289
4.4768
4.64997
4.80337
4.93853
5.05698
5.16015
5.24916
5.32493
5.38823
5.43987
5.48078
5.51199
5.53461
5.54973
5.55837
5.56143
5.55972
5.55394
5.54476
5.53281
5.51868
5.50293
5.48603
5.46841
5.45041
5.4323
5.41429
5.39652
5.37909
5.36207
5.34551
5.32943
5.31385
5.29875
5.28414
5.26999
5.2563
5.24307
5.23029
5.21794
5.20601
5.19449
5.18334
5.17256
5.16211
5.15198
5.14214
5.13256
5.12323
5.11411
5.10519
5.09644
5.08785
5.07939
5.07106
5.06283
5.05469
5.04664
5.03867
5.03076
5.02292
5.01514
5.00741
4.99973
4.99211
4.98453
4.97702
4.96957
4.96221
4.95495
4.94782
4.94085
4.93407
4.92748
4.92112
4.91488
4.90869
4.90211
4.89464
4.88496
4.87148
4.85117
-1.05069
-1.08029
-1.12785
-1.19069
-1.27187
-1.37254
-1.49366
-1.63497
-1.79473
-1.96994
-2.1575
-2.35485
-2.56055
-2.77373
-2.99209
-3.20953
-3.41604
-3.60045
-3.75419
-3.87299
-3.95688
-4.01028
-4.04161
-4.06121
-4.07941
-4.10496
-4.14395
-4.19942
-4.27169
-4.35933
-4.46073
-4.57513
-4.70314
-4.84673
-5.00885
-5.19261
-5.39992
-5.63109
-5.88448
-6.15648
-6.44191
-6.73428
-7.02612
-7.309
-7.5734
-7.80877
-8.00424
-8.14977
-8.23715
-8.26027
-8.21565
-8.10345
-7.92798
-7.6971
-7.42169
-7.1145
-6.78884
-6.45703
-6.12914
-5.81218
-5.50997
-5.22368
-4.95276
-4.69573
-4.4507
-4.21572
-3.98931
-3.77142
-3.56388
-3.36917
-3.18882
-3.02199
-2.86494
-2.70956
-2.54719
-2.37262
-2.1824
-1.97198
-1.73629
-1.47017
-1.16807
-0.831136
-0.468743
-0.0933035
0.283885
0.654487
1.01391
1.3606
1.69483
2.0176
2.33003
2.63309
2.927
3.21086
3.48265
3.73953
3.97852
4.19749
4.39546
4.57264
4.73011
4.86936
4.99184
5.0989
5.19161
5.27087
5.33747
5.39228
5.43628
5.47053
5.49616
5.51427
5.52584
5.53175
5.53278
5.52959
5.52281
5.51304
5.50085
5.48682
5.47144
5.45516
5.43835
5.4213
5.40425
5.38735
5.37072
5.35444
5.33854
5.32308
5.30806
5.29349
5.27936
5.26566
5.25239
5.23953
5.22709
5.21505
5.2034
5.19213
5.18123
5.17065
5.1604
5.15043
5.14074
5.13129
5.12208
5.11306
5.10423
5.09556
5.08704
5.07864
5.07035
5.06216
5.05405
5.04602
5.03805
5.03015
5.02231
5.01451
5.00675
4.99904
4.99136
4.98371
4.97609
4.96851
4.96096
4.95347
4.94604
4.93867
4.93139
4.92415
4.91694
4.90962
4.90202
4.8937
4.88406
4.8719
4.85569
4.83301
-1.08734
-1.11053
-1.15063
-1.20691
-1.28225
-1.37746
-1.49356
-1.62969
-1.78329
-1.95121
-2.13068
-2.31962
-2.51719
-2.72332
-2.93644
-3.15112
-3.35858
-3.54888
-3.71464
-3.8526
-3.96331
-4.0506
-4.12125
-4.18347
-4.24535
-4.31351
-4.39236
-4.48359
-4.58676
-4.7008
-4.82548
-4.96242
-5.11485
-5.28725
-5.48429
-5.70969
-5.96512
-6.24975
-6.55979
-6.88917
-7.23096
-7.57766
-7.92109
-8.25196
-8.55941
-8.83106
-9.05378
-9.21528
-9.30521
-9.3164
-9.2456
-9.09424
-8.86838
-8.57824
-8.23723
-7.8608
-7.46499
-7.06494
-6.67311
-6.29823
-5.94517
-5.61553
-5.30864
-5.02239
-4.75377
-4.49949
-4.25677
-4.02461
-3.80467
-3.60037
-3.41424
-3.24598
-3.09149
-2.94179
-2.78618
-2.61794
-2.43217
-2.223
-1.98445
-1.71121
-1.39814
-1.04688
-0.667513
-0.273924
0.120667
0.506441
0.87805
1.23408
1.57533
1.90338
2.21989
2.52632
2.82322
3.11004
3.38478
3.64463
3.88674
4.1091
4.31082
4.49216
4.65411
4.79796
4.92493
5.03619
5.13275
5.21551
5.28536
5.34327
5.39029
5.42754
5.45615
5.47721
5.49168
5.50042
5.50417
5.50355
5.49919
5.49164
5.48148
5.46926
5.45549
5.44064
5.42511
5.40921
5.3932
5.37726
5.3615
5.34602
5.33087
5.31608
5.30169
5.28769
5.27409
5.26088
5.24805
5.23561
5.22354
5.21184
5.20051
5.18953
5.17888
5.16853
5.15849
5.14871
5.13918
5.12988
5.12079
5.11189
5.10316
5.09458
5.08613
5.0778
5.06956
5.06141
5.05334
5.04533
5.03739
5.02949
5.02164
5.01383
5.00605
4.99829
4.99055
4.98283
4.97511
4.96739
4.95967
4.95194
4.9442
4.93645
4.92865
4.92077
4.91274
4.90438
4.89547
4.88555
4.87396
4.85965
4.84116
4.81655
-1.08437
-1.10396
-1.13957
-1.19169
-1.26343
-1.35533
-1.46822
-1.60133
-1.75233
-1.91813
-2.09567
-2.28258
-2.4778
-2.68109
-2.89116
-3.10365
-3.31151
-3.50703
-3.6842
-3.84029
-3.97572
-4.09339
-4.19835
-4.29703
-4.39577
-4.49972
-4.61212
-4.73432
-4.86659
-5.00918
-5.16373
-5.33342
-5.52261
-5.73619
-5.97833
-6.2515
-6.55566
-6.88839
-7.24489
-7.61909
-8.00465
-8.39471
-8.78114
-9.15358
-9.49891
-9.80184
-10.0466
-10.2188
-10.3076
-10.3061
-10.212
-10.0274
-9.75965
-9.42038
-9.02462
-8.58991
-8.13442
-7.67536
-7.22691
-6.79919
-6.39836
-6.02689
-5.68458
-5.36912
-5.07673
-4.80293
-4.54371
-4.29746
-4.06579
-3.85253
-3.66111
-3.49133
-3.33819
-3.19169
-3.04046
-2.87624
-2.69254
-2.48229
-2.23856
-1.95565
-1.62897
-1.26168
-0.864686
-0.452775
-0.0404172
0.36108
0.745463
1.1113
1.45979
1.79311
2.11364
2.42316
2.7225
3.01131
3.28777
3.54934
3.79357
4.01876
4.22415
4.40994
4.57683
4.7257
4.8574
4.97293
5.07325
5.15935
5.23227
5.29312
5.34308
5.38327
5.41484
5.43882
5.45616
5.46769
5.4741
5.47602
5.47403
5.46871
5.46061
5.45028
5.43822
5.4249
5.41074
5.39607
5.38118
5.36626
5.35145
5.33684
5.32249
5.30845
5.29473
5.28136
5.26834
5.25566
5.24333
5.23133
5.21968
5.20836
5.19736
5.18669
5.17632
5.16623
5.15641
5.14683
5.13748
5.12835
5.1194
5.11062
5.102
5.09352
5.08515
5.07689
5.06871
5.06061
5.05258
5.0446
5.03667
5.02878
5.02093
5.01311
5.0053
4.99751
4.98971
4.98191
4.97409
4.96623
4.95833
4.95037
4.94233
4.93419
4.9259
4.9174
4.90857
4.89923
4.8891
4.87771
4.86441
4.84821
4.82782
4.80159
-1.05572
-1.07323
-1.10789
-1.15938
-1.23094
-1.32372
-1.43874
-1.57542
-1.73181
-1.90495
-2.09176
-2.28935
-2.49562
-2.70881
-2.92663
-3.14511
-3.35865
-3.56101
-3.74729
-3.91514
-4.06487
-4.19921
-4.32319
-4.44301
-4.56487
-4.69393
-4.83341
-4.98464
-5.14789
-5.32334
-5.51233
-5.71706
-5.94067
-6.18685
-6.45893
-6.75946
-7.08883
-7.44512
-7.82438
-8.2212
-8.62929
-9.04164
-9.44977
-9.84268
-10.2063
-10.5245
-10.7806
-10.9599
-11.0514
-11.0482
-10.9471
-10.7494
-10.462
-10.0973
-9.67153
-9.20387
-8.71388
-8.21922
-7.73489
-7.27201
-6.83774
-6.43575
-6.06615
-5.72692
-5.41389
-5.12195
-4.84673
-4.58682
-4.34431
-4.12323
-3.92674
-3.75413
-3.59905
-3.45118
-3.29929
-3.1344
-2.94846
-2.73323
-2.4808
-2.18502
-1.84318
-1.46035
-1.04793
-0.62048
-0.192681
0.223265
0.620072
0.995677
1.3513
1.68961
2.01351
2.32521
2.62586
2.91532
3.19211
3.45413
3.69952
3.927
4.13601
4.32651
4.49872
4.65288
4.78945
4.90918
5.01306
5.10227
5.17806
5.24173
5.29452
5.33764
5.37216
5.39908
5.4193
5.43358
5.44263
5.44705
5.44742
5.44431
5.43829
5.42989
5.41962
5.40794
5.39526
5.38193
5.36824
5.35442
5.34062
5.32694
5.31345
5.3002
5.28722
5.27452
5.26212
5.25002
5.23821
5.2267
5.2155
5.20459
5.19397
5.18363
5.17356
5.16374
5.15416
5.14481
5.13565
5.12669
5.1179
5.10926
5.10076
5.09238
5.0841
5.07592
5.06781
5.05976
5.05177
5.04382
5.03592
5.02804
5.02019
5.01235
5.00452
4.99669
4.98884
4.98096
4.97304
4.96504
4.95697
4.94878
4.94044
4.93193
4.92316
4.91406
4.90449
4.89422
4.88296
4.87024
4.85542
4.83759
4.81559
4.78802
-1.02125
-1.03823
-1.07397
-1.12794
-1.20371
-1.30339
-1.42874
-1.57979
-1.7552
-1.95213
-2.1669
-2.39511
-2.63212
-2.87313
-3.11349
-3.34831
-3.57226
-3.78016
-3.96825
-4.13535
-4.28332
-4.41676
-4.54227
-4.66726
-4.7985
-4.94083
-5.09644
-5.26537
-5.4464
-5.63827
-5.841
-6.05588
-6.28568
-6.53431
-6.80581
-7.10367
-7.42907
-7.78038
-8.15374
-8.54388
-8.94442
-9.34923
-9.75112
-10.1404
-10.5041
-10.8264
-11.09
-11.2794
-11.3827
-11.3924
-11.3046
-11.12
-10.8444
-10.4893
-10.0709
-9.60808
-9.11988
-8.6236
-8.13398
-7.66249
-7.21705
-6.80231
-6.41947
-6.06689
-5.74048
-5.43525
-5.14755
-4.87698
-4.62619
-4.39884
-4.19695
-4.01836
-3.8561
-3.70064
-3.54183
-3.37051
-3.17742
-2.9529
-2.68808
-2.37728
-2.0206
-1.62482
-1.20123
-0.763098
-0.325017
0.101105
0.507378
0.890892
1.25233
1.59449
1.92065
2.23338
2.53409
2.82281
3.09849
3.35967
3.60521
3.83437
4.04678
4.24211
4.41982
4.57942
4.72085
4.84466
4.95193
5.04409
5.12265
5.18907
5.24468
5.29068
5.32812
5.35795
5.38099
5.398
5.40967
5.41658
5.41932
5.41845
5.41455
5.40816
5.39977
5.38982
5.37873
5.36684
5.35446
5.34183
5.32911
5.31642
5.30384
5.29143
5.27921
5.26723
5.25549
5.24399
5.23275
5.22177
5.21104
5.20056
5.19034
5.18036
5.17061
5.16109
5.15177
5.14265
5.13371
5.12493
5.1163
5.10781
5.09943
5.09117
5.08299
5.07489
5.06685
5.05887
5.05092
5.04301
5.03513
5.02727
5.01942
5.01157
5.00372
4.99586
4.98795
4.98
4.97197
4.96385
4.95559
4.94718
4.93856
4.92969
4.92047
4.9108
4.90051
4.88939
4.8771
4.86318
4.84701
4.82777
4.8044
4.7757
-0.998758
-1.01614
-1.05526
-1.11559
-1.20209
-1.31781
-1.46582
-1.64723
-1.86118
-2.10386
-2.36935
-2.65004
-2.93749
-3.22324
-3.49964
-3.75946
-3.99579
-4.20321
-4.37998
-4.52841
-4.65429
-4.76545
-4.87045
-4.97719
-5.09184
-5.21803
-5.35691
-5.50775
-5.66912
-5.83998
-6.02075
-6.21316
-6.41973
-6.64402
-6.88946
-7.15916
-7.45402
-7.77427
-8.11609
-8.47508
-8.84614
-9.22442
-9.60381
-9.97599
-10.3295
-10.6492
-10.9187
-11.1223
-11.2477
-11.2864
-11.2336
-11.0889
-10.8569
-10.5464
-10.1716
-9.75009
-9.29962
-8.83592
-8.37264
-7.9209
-7.48911
-7.08262
-6.70359
-6.35086
-6.02099
-5.71006
-5.4161
-5.14003
-4.88462
-4.6524
-4.44354
-4.2549
-4.0803
-3.9122
-3.74194
-3.56008
-3.35578
-3.11794
-2.83785
-2.51222
-2.14361
-1.73977
-1.31083
-0.868942
-0.427259
0.00267202
0.412932
0.799951
1.1641
1.50814
1.83531
2.14813
2.44788
2.73469
3.00804
3.26733
3.51222
3.74254
3.95797
4.15777
4.3407
4.50549
4.65153
4.77918
4.88968
4.98471
5.06602
5.13521
5.19365
5.24251
5.28281
5.31545
5.34123
5.36089
5.37511
5.38452
5.38968
5.39116
5.38948
5.38519
5.37877
5.37067
5.36127
5.35093
5.33996
5.32859
5.31703
5.30539
5.29377
5.28223
5.27082
5.25958
5.24852
5.23765
5.227
5.21656
5.20633
5.19631
5.18651
5.17691
5.1675
5.15829
5.14924
5.14037
5.13165
5.12307
5.11462
5.10628
5.09804
5.08989
5.08182
5.07381
5.06585
5.05793
5.05004
5.04217
5.03432
5.02648
5.01863
5.01078
5.00291
4.99501
4.98705
4.97903
4.9709
4.96265
4.95423
4.9456
4.93671
4.92749
4.91784
4.90763
4.89669
4.88478
4.87155
4.85656
4.8392
4.81873
4.79419
4.76454
-0.999331
-1.01916
-1.06487
-1.13731
-1.24409
-1.39001
-1.57981
-1.8148
-2.09254
-2.40564
-2.74399
-3.09575
-3.44848
-3.78903
-4.10476
-4.38467
-4.62029
-4.80826
-4.94983
-5.05052
-5.11922
-5.16643
-5.20298
-5.23905
-5.28338
-5.34174
-5.41677
-5.50899
-5.61643
-5.73911
-5.87661
-6.02982
-6.19978
-6.38794
-6.5963
-6.8269
-7.08108
-7.3593
-7.65963
-7.97873
-8.31253
-8.65667
-9.00603
-9.35407
-9.69123
-10.0047
-10.2799
-10.5023
-10.6596
-10.7422
-10.744
-10.6627
-10.5
-10.2628
-9.96259
-9.61417
-9.23258
-8.83153
-8.42289
-8.0168
-7.62157
-7.24299
-6.88396
-6.54415
-6.22158
-5.91441
-5.62255
-5.34772
-5.09194
-4.85608
-4.63905
-4.43795
-4.24868
-4.06577
-3.88143
-3.68502
-3.46477
-3.21022
-2.91511
-2.5786
-2.2043
-1.799
-1.37173
-0.933441
-0.495888
-0.0696982
0.337731
0.722913
1.08617
1.42987
1.7566
2.0683
2.36599
2.65003
2.92054
3.17771
3.42183
3.65301
3.87084
4.07419
4.26128
4.43032
4.58028
4.7114
4.825
4.92295
5.00713
5.0792
5.14052
5.19225
5.23537
5.27079
5.29929
5.32161
5.33845
5.35042
5.35811
5.36205
5.36277
5.36075
5.35647
5.35034
5.34276
5.33409
5.32462
5.31462
5.30429
5.29377
5.28317
5.27255
5.26199
5.25152
5.24118
5.23097
5.22093
5.21106
5.20135
5.19182
5.18245
5.17325
5.16421
5.15532
5.14657
5.13796
5.12948
5.12111
5.11284
5.10467
5.09658
5.08856
5.0806
5.07268
5.06481
5.05696
5.04913
5.04131
5.03349
5.02567
5.01783
5.00998
5.00209
4.99416
4.98615
4.97805
4.96983
4.96145
4.95287
4.94404
4.93489
4.92534
4.91529
4.90459
4.89304
4.8804
4.86633
4.85038
4.83199
4.81044