/*--------------------------------*- C++ -*----------------------------------*\
  =========                 |
  \\      /  F ield         | OpenFOAM: The Open Source CFD Toolbox
   \\    /   O peration     | Website:  https://openfoam.org
    \\  /    A nd           | Version:  7
     \\/     M anipulation  |
\*---------------------------------------------------------------------------*/
FoamFile
{
    version     2.0;
    format      ascii;
    class       volScalarField;
    location    "0.075";
    object      s;
}
// * * * * * * * * * * * * * * * * * * * * * * * * * * * * * * * * * * * * * //

dimensions      [0 0 0 0 0 0 0];

internalField   nonuniform List<scalar> 
12225
(
1
1
1
1
1
1
1
1
1
1
1
1
1
1
1
1
1
1
1
1
1
1
1
1
1
1
1
1
1
1
1
1
1
1
1
1
1
1
1
1
1
1
1
1
1
1
1
1
1
1
1
1
1
1
1
1
1
1
1
1
1
1
1
1
1
1
1
1
1
1
1
1
1
1
1
1
1
1
1
1
1
1
1
1
1
1
1
1
1
1
1
1
1
1
1
1
1
1
1
1
1
1
1
1
1
1
1
1
1
1
1
1
1
1
1
1
1
1
1
1
1
1
1
1
1
1
1
1
1
1
1
1
1
1
1
1
1
1
1
1
1
1
1
1
1
1
1
1
1
1
1
1
1
1
1
1
1
1
1
1
1
1
1
1
1
1
1
1
1
1
1
1
1
1
1
1
1
1
1
1
1
1
1
1
1
1
1
1
1
1
1
1
1
1
1
1
1
1
1
1
1
1
1
1
1
1
1
1
1
1
1
1
1
1
1
1
1
1
1
1
1
1
1
1
1
1
1
1
1
1
1
1
1
1
1
1
1
1
1
1
1
1
1
1
1
1
1
1
1
1
1
1
1
1
1
1
1
1
1
1
1
1
1
1
1
1
1
1
1
1
1
1
1
1
1
1
1
1
1
1
1
1
1
1
1
1
1
1
1
1
1
1
1
1
1
1
1
1
1
1
1
1
1
1
1
1
1
1
1
1
1
1
1
1
1
1
1
1
1
1
1
1
1
1
1
1
1
1
1
1
1
1
1
1
1
1
1
1
1
1
1
1
1
1
1
1
1
1
1
1
1
1
1
1
1
1
1
1
1
1
1
1
1
1
1
1
1
1
1
1
1
1
1
1
1
1
1
1
1
1
1
1
1
1
1
1
1
1
1
1
1
1
1
1
1
1
1
1
1
1
1
1
1
1
1
1
1
1
1
1
1
1
1
1
1
1
1
1
1
1
1
1
1
1
1
1
1
1
1
1
1
1
1
1
1
1
1
1
1
1
1
1
1
1
1
1
1
1
1
1
1
1
1
1
1
1
1
1
1
1
1
1
1
1
1
1
1
1
1
1
1
1
1
1
1
1
1
1
1
1
1
1
1
1
1
1
1
1
1
1
1
1
1
1
1
1
1
1
1
1
1
1
1
1
1
1
1
1
1
1
1
1
1
1
1
1
1
1
1
1
1
1
1
1
1
1
1
1
1
1
1
1
1
1
1
1
1
1
1
1
0.131465
0.170222
0.168452
0.159297
0.153824
0.152491
0.167977
0.195183
0.231397
0.265249
0.293687
0.319854
0.340468
0.358631
0.376683
0.393164
0.40672
0.416774
0.424609
0.431673
0.439702
0.447466
0.455216
0.462753
0.471445
0.481964
0.494222
0.505774
0.515183
0.523915
0.534229
0.54621
0.557371
0.564726
0.567187
0.566047
0.541559
0.313274
0.0484934
0.0159763
0.0182811
0.0223193
0.0262247
0.0297935
0.0345434
0.0399694
0.0463933
0.0545631
0.0671787
0.0776461
0.0822033
0.0719827
0.059441
0.058409
0.0720746
0.0943375
0.116668
0.146746
0.177912
0.218028
0.384686
0.714544
0.83823
0.852748
0.85482
0.856294
0.85742
0.858294
0.859043
0.860033
0.860685
0.861449
0.861858
0.862533
0.863384
0.864036
0.8649
0.865622
0.866417
0.866806
0.867236
0.867892
0.868224
0.868397
0.868537
0.868585
0.868585
0.868557
0.868573
0.868513
0.868244
0.867781
0.867327
0.866985
0.866616
0.866186
0.865784
0.865409
0.864924
0.864602
0.864313
0.863978
0.863528
0.863008
0.862456
0.861843
0.860955
0.860055
0.858984
0.857758
0.856376
0.854773
0.852958
0.850635
0.847097
0.842124
0.835973
0.828353
0.818596
0.806316
0.791637
0.77363
0.750664
0.723741
0.693218
0.653586
0.603226
0.547452
0.48152
0.393898
0.292776
0.202217
0.1314
0.0803149
0.0461486
0.0248973
0.012592
0.00596278
0.00264489
0.0011016
0.000428818
0.000150075
4.47645e-05
2.01416e-05
1.03494e-05
5.12357e-06
2.46748e-06
1.15544e-06
5.2731e-07
2.35268e-07
1.02943e-07
4.43103e-08
1.88208e-08
7.91288e-09
3.30314e-09
1.37308e-09
5.69943e-10
2.36785e-10
9.86368e-11
4.12431e-11
1.7314e-11
7.29377e-12
3.07971e-12
1.30135e-12
5.4935e-13
2.31248e-13
9.68821e-14
4.031e-14
1.6615e-14
6.76508e-15
2.71218e-15
1.06698e-15
4.10382e-16
1.53754e-16
5.58851e-17
1.96182e-17
6.61904e-18
2.12428e-18
6.3222e-19
-8.04938e-19
0.0997622
0.159371
0.161188
0.129839
0.0601542
0.0656197
0.0943806
0.154402
0.238102
0.322079
0.387638
0.430348
0.458299
0.474845
0.484704
0.490915
0.493728
0.496472
0.498147
0.498667
0.499599
0.502278
0.504574
0.507143
0.513386
0.520078
0.526346
0.535255
0.543507
0.549533
0.558375
0.567511
0.574388
0.582591
0.591492
0.593689
0.589132
0.556432
0.483194
0.285823
0.109534
0.0433258
0.0229202
0.0187576
0.0213561
0.032067
0.0460634
0.0590576
0.0767159
0.108627
0.156928
0.191067
0.187728
0.152888
0.140608
0.145426
0.158019
0.182116
0.379945
0.703111
0.791101
0.83732
0.853769
0.856876
0.858045
0.858984
0.859878
0.860788
0.861891
0.863117
0.864299
0.865483
0.86649
0.867945
0.8697
0.871827
0.874072
0.875742
0.877175
0.878556
0.880417
0.882614
0.884442
0.886033
0.887794
0.889675
0.891592
0.893536
0.895726
0.898027
0.900171
0.901912
0.903649
0.905335
0.906809
0.908193
0.909696
0.910796
0.911625
0.912305
0.91263
0.912774
0.912658
0.912027
0.910958
0.909407
0.907631
0.905614
0.903572
0.901653
0.899629
0.897614
0.895802
0.894577
0.894718
0.896566
0.900256
0.905669
0.9129
0.92192
0.932556
0.94408
0.954804
0.963267
0.969427
0.974184
0.977726
0.980076
0.981397
0.98193
0.981691
0.977756
0.964755
0.931565
0.877491
0.805167
0.70969
0.592523
0.466621
0.351304
0.257849
0.184681
0.128884
0.0875799
0.0579263
0.037284
0.0233517
0.014234
0.00844722
0.00488388
0.0027535
0.00151559
0.000815567
0.000429713
0.000222042
0.000112699
5.62708e-05
2.76756e-05
1.34222e-05
6.42386e-06
3.03538e-06
1.41631e-06
6.52579e-07
2.96908e-07
1.33383e-07
5.91679e-08
2.59118e-08
1.12e-08
4.77274e-09
2.00298e-09
8.25582e-10
3.33731e-10
1.31691e-10
5.07217e-11
1.89133e-11
6.85684e-12
2.37821e-12
7.98697e-13
2.34074e-13
-1.27089e-12
0.0419593
0.0857185
0.0964468
0.0787401
0.0876821
0.135833
0.24778
0.378265
0.460359
0.498074
0.510541
0.514958
0.513816
0.510284
0.503844
0.496288
0.487052
0.473933
0.464002
0.452011
0.442732
0.434806
0.430616
0.430874
0.43305
0.438385
0.447719
0.464845
0.482004
0.4988
0.520368
0.539021
0.554506
0.573145
0.584987
0.595141
0.608345
0.608615
0.601432
0.572405
0.499326
0.332348
0.174683
0.0964092
0.0601309
0.0527256
0.0569294
0.0733569
0.0870639
0.102506
0.138415
0.234945
0.284855
0.286913
0.276877
0.2695
0.35941
0.668006
0.781836
0.829505
0.847603
0.854893
0.856963
0.85749
0.857716
0.857778
0.857197
0.856578
0.8562
0.856099
0.856085
0.856928
0.860563
0.862651
0.863675
0.865824
0.869299
0.871283
0.872146
0.87319
0.875361
0.877537
0.878795
0.88083
0.88388
0.886397
0.888957
0.891936
0.895053
0.898663
0.902023
0.905127
0.908487
0.911788
0.915112
0.918447
0.922156
0.925417
0.92857
0.931783
0.934548
0.937393
0.93996
0.942307
0.944422
0.946002
0.946868
0.946743
0.944986
0.941308
0.935888
0.928426
0.919001
0.908262
0.89749
0.888874
0.882866
0.878402
0.875855
0.875103
0.875628
0.878539
0.88671
0.900186
0.91753
0.936025
0.952301
0.964575
0.974124
0.981472
0.98683
0.991117
0.994417
0.995678
0.9956
0.994554
0.990952
0.983477
0.974906
0.960288
0.928174
0.846767
0.711924
0.567266
0.432461
0.320503
0.232095
0.163727
0.112392
0.0750951
0.0488852
0.031049
0.0192733
0.0117146
0.00698612
0.00409642
0.00236684
0.00135049
0.00076275
0.000427506
0.000238394
0.000132567
7.35958e-05
4.07646e-05
2.24575e-05
1.22472e-05
6.57289e-06
3.45558e-06
1.77367e-06
8.88155e-07
4.33064e-07
2.0589e-07
9.51318e-08
4.28844e-08
1.87129e-08
7.97905e-09
3.26449e-09
1.30505e-09
5.06103e-10
1.49286e-10
0.00668932
0.0204911
0.032802
0.107057
0.26272
0.430503
0.50009
0.522967
0.527406
0.524603
0.513983
0.491505
0.461752
0.430314
0.40004
0.370586
0.346418
0.325338
0.306752
0.289472
0.274696
0.262321
0.251373
0.242699
0.239831
0.240643
0.244156
0.25356
0.268448
0.299928
0.340789
0.386402
0.447296
0.504585
0.543254
0.57531
0.597295
0.612598
0.62197
0.620631
0.610821
0.581707
0.516178
0.409878
0.302234
0.218553
0.193469
0.195038
0.202723
0.219954
0.260579
0.340797
0.37249
0.363436
0.345425
0.513781
0.738493
0.812662
0.840643
0.851402
0.855079
0.856126
0.856333
0.85537
0.852815
0.848311
0.841892
0.838765
0.837877
0.838447
0.845372
0.851129
0.852454
0.852718
0.852445
0.851405
0.849353
0.845969
0.84219
0.839053
0.836604
0.835134
0.834685
0.835798
0.839116
0.842752
0.848116
0.853257
0.858807
0.866308
0.872938
0.879016
0.885637
0.891241
0.896939
0.902082
0.907604
0.912366
0.917195
0.921919
0.926406
0.93098
0.935513
0.940238
0.945063
0.950025
0.955016
0.959836
0.964248
0.967943
0.970845
0.972933
0.973703
0.971871
0.966031
0.954476
0.937719
0.918391
0.900183
0.887166
0.87834
0.873068
0.870668
0.870361
0.871758
0.877968
0.894118
0.915237
0.935149
0.950982
0.963719
0.974117
0.982399
0.98865
0.993195
0.996305
0.998002
0.998522
0.998512
0.998173
0.996854
0.992419
0.984642
0.975735
0.959378
0.921098
0.810416
0.632868
0.471717
0.340965
0.240353
0.165021
0.110411
0.0721269
0.0461264
0.0289674
0.0179222
0.0109596
0.00664363
0.00400216
0.00239968
0.00143284
0.000851163
0.000501755
0.000292033
0.000167148
9.375e-05
5.14423e-05
2.75328e-05
1.43745e-05
7.2913e-06
3.60842e-06
1.73752e-06
8.16795e-07
3.72437e-07
1.65943e-07
7.12572e-08
2.98704e-08
1.21243e-08
4.24372e-09
0.00117274
0.0269948
0.214272
0.449922
0.524592
0.541075
0.540354
0.531172
0.508698
0.472164
0.433387
0.405092
0.381185
0.359188
0.338268
0.317948
0.298208
0.278977
0.260562
0.242643
0.226117
0.210104
0.19566
0.18589
0.175886
0.168397
0.1681
0.170001
0.175158
0.186324
0.209044
0.230118
0.273921
0.337068
0.406536
0.488238
0.549474
0.592372
0.614548
0.628602
0.631376
0.628632
0.617646
0.591597
0.552888
0.495584
0.423666
0.374128
0.367372
0.376536
0.429877
0.472251
0.448751
0.439627
0.607529
0.763828
0.824559
0.845155
0.852339
0.854581
0.855065
0.854931
0.85224
0.845838
0.832886
0.820594
0.816732
0.816209
0.818478
0.826881
0.831976
0.833164
0.831964
0.825115
0.812323
0.793798
0.769897
0.74381
0.722151
0.707776
0.700096
0.695162
0.692291
0.691307
0.69278
0.698728
0.706778
0.71533
0.72544
0.739797
0.753698
0.767823
0.782634
0.795802
0.808004
0.818405
0.827518
0.835106
0.841987
0.848234
0.854316
0.86052
0.867378
0.875499
0.885096
0.896525
0.909622
0.923852
0.938324
0.951766
0.963087
0.971774
0.977808
0.981745
0.984062
0.985056
0.984054
0.979014
0.966706
0.946742
0.924149
0.904056
0.888753
0.878136
0.872585
0.871169
0.872008
0.877744
0.89663
0.922598
0.94397
0.958903
0.96966
0.977982
0.984695
0.990013
0.993937
0.996555
0.99818
0.999093
0.999416
0.999422
0.999313
0.998973
0.998119
0.995965
0.990649
0.978809
0.951198
0.871108
0.684957
0.505165
0.360566
0.251233
0.171364
0.11469
0.0755453
0.0491281
0.0316266
0.0201918
0.0127944
0.00804319
0.00500791
0.00307747
0.00186002
0.00110275
0.000639692
0.000362567
0.000200422
0.00010803
5.66719e-05
2.89454e-05
1.43534e-05
6.93961e-06
3.25806e-06
1.49144e-06
6.60435e-07
2.84332e-07
1.19107e-07
4.43571e-08
0.0150712
0.278208
0.511135
0.552249
0.552406
0.542942
0.518339
0.480752
0.453378
0.43066
0.409875
0.389792
0.369607
0.349169
0.328782
0.308363
0.288059
0.267778
0.24802
0.228639
0.210163
0.193044
0.178127
0.164703
0.151769
0.140809
0.135636
0.13516
0.136903
0.142134
0.155302
0.171547
0.193811
0.243741
0.306121
0.358178
0.438614
0.527415
0.587094
0.618963
0.634215
0.640382
0.639829
0.636107
0.62719
0.609315
0.5459
0.45834
0.444746
0.46659
0.539528
0.539114
0.561291
0.676833
0.781956
0.829475
0.846614
0.85222
0.853807
0.854172
0.853168
0.849151
0.838947
0.818505
0.803571
0.798868
0.797823
0.798051
0.801034
0.804135
0.804501
0.799622
0.781993
0.746389
0.688447
0.628895
0.606177
0.598109
0.59608
0.597427
0.604501
0.609553
0.611855
0.613773
0.616971
0.620298
0.622504
0.624698
0.627178
0.62974
0.633106
0.637591
0.642961
0.649377
0.65608
0.663153
0.669843
0.676137
0.681986
0.68741
0.692809
0.698729
0.705997
0.715299
0.727889
0.744639
0.766582
0.794463
0.828017
0.865511
0.901581
0.930958
0.954651
0.971037
0.981128
0.98662
0.989417
0.990628
0.990416
0.987543
0.979069
0.963321
0.942296
0.920183
0.900716
0.886612
0.879142
0.877301
0.878598
0.887303
0.912413
0.939031
0.958278
0.970714
0.978979
0.984975
0.989634
0.993268
0.995945
0.997718
0.99878
0.99938
0.999695
0.999805
0.99981
0.999762
0.999557
0.998931
0.997148
0.992085
0.97836
0.939512
0.815527
0.617638
0.450283
0.320516
0.224098
0.154561
0.10537
0.0710608
0.0474032
0.0312489
0.0203154
0.0129891
0.00814499
0.00499763
0.00299456
0.00175023
0.000996691
0.000552904
0.000298509
0.00015691
8.01664e-05
3.98081e-05
1.92078e-05
9.01999e-06
4.10667e-06
1.81285e-06
7.81015e-07
3.03638e-07
0.407966
0.557672
0.572136
0.561365
0.536166
0.511813
0.490371
0.468478
0.448434
0.430385
0.41416
0.398739
0.381289
0.363682
0.346376
0.327588
0.307157
0.284728
0.261994
0.240839
0.222496
0.204796
0.186742
0.168752
0.153912
0.142834
0.13592
0.131779
0.130151
0.13159
0.139462
0.158762
0.198795
0.247927
0.286818
0.320841
0.368428
0.436336
0.517624
0.581969
0.62181
0.63977
0.646179
0.646578
0.642646
0.615972
0.519697
0.477832
0.491835
0.589194
0.631792
0.660853
0.726769
0.797541
0.832321
0.846543
0.851268
0.852566
0.852909
0.85082
0.844246
0.830197
0.809812
0.792263
0.784556
0.781038
0.779079
0.7774
0.776261
0.774673
0.765583
0.734948
0.668309
0.58616
0.554546
0.542909
0.540394
0.544956
0.568114
0.592569
0.602365
0.60983
0.616896
0.62093
0.625572
0.628066
0.628996
0.629156
0.628278
0.62667
0.624965
0.623466
0.622593
0.622131
0.621939
0.622302
0.62283
0.623592
0.624549
0.625727
0.627178
0.62899
0.6315
0.635064
0.639966
0.6466
0.655524
0.667765
0.685334
0.710763
0.750813
0.806192
0.866108
0.917442
0.951617
0.973347
0.985158
0.990768
0.993144
0.993967
0.993613
0.99092
0.983485
0.97143
0.954293
0.933475
0.913827
0.90019
0.893865
0.892975
0.896243
0.912833
0.939437
0.960111
0.973557
0.981866
0.987247
0.991077
0.993972
0.996142
0.997694
0.99872
0.99933
0.999666
0.999841
0.999913
0.999924
0.999909
0.999828
0.999522
0.998525
0.995387
0.985831
0.957426
0.864987
0.675648
0.506322
0.37114
0.267617
0.190274
0.133421
0.0921386
0.0625253
0.0415951
0.0270617
0.0171846
0.0106347
0.00640832
0.00375771
0.00214414
0.00119017
0.000642838
0.000337644
0.000172486
8.55275e-05
4.12292e-05
1.92935e-05
8.7436e-06
3.87275e-06
1.56474e-06
0.626392
0.605564
0.570811
0.541985
0.526002
0.50976
0.493616
0.485861
0.484602
0.482714
0.479748
0.473498
0.465382
0.459091
0.449027
0.432654
0.414046
0.394351
0.37704
0.360421
0.343015
0.321277
0.297216
0.272872
0.252275
0.234719
0.223455
0.217679
0.215174
0.214229
0.221566
0.239677
0.263738
0.28549
0.306017
0.334624
0.379933
0.447478
0.524181
0.586453
0.624855
0.643843
0.649377
0.648435
0.636613
0.564598
0.498637
0.509816
0.622799
0.685802
0.716005
0.760168
0.807554
0.834547
0.846109
0.850278
0.851369
0.851587
0.848469
0.84017
0.828853
0.813084
0.792968
0.775242
0.768486
0.765588
0.763339
0.760543
0.75579
0.742703
0.706875
0.634673
0.541775
0.504867
0.494151
0.492651
0.501494
0.534118
0.577482
0.610303
0.645238
0.687811
0.708088
0.722578
0.731499
0.735635
0.737435
0.734945
0.728012
0.718836
0.707088
0.694431
0.68276
0.672527
0.663368
0.655292
0.648175
0.642143
0.637191
0.633343
0.630707
0.62928
0.628936
0.629872
0.632167
0.635842
0.640892
0.647384
0.656064
0.666396
0.680001
0.701879
0.737289
0.792757
0.86249
0.922905
0.960242
0.980693
0.990393
0.994374
0.995807
0.996071
0.995287
0.991917
0.985253
0.975827
0.962435
0.945695
0.930185
0.920455
0.917012
0.917387
0.924373
0.945719
0.965074
0.977876
0.985528
0.990123
0.993123
0.995278
0.996887
0.998056
0.998859
0.999375
0.99968
0.999845
0.999927
0.999959
0.999962
0.999952
0.999891
0.999653
0.998839
0.996197
0.987938
0.963069
0.882966
0.706786
0.543264
0.408603
0.301461
0.218102
0.154497
0.106938
0.0721821
0.0474366
0.0303179
0.0188347
0.0113712
0.0066731
0.00380706
0.00211217
0.00113955
0.000597872
0.000304835
0.000150921
7.25839e-05
3.37997e-05
1.53927e-05
6.45065e-06
0.629211
0.576662
0.552715
0.549372
0.54544
0.545593
0.55456
0.560528
0.560513
0.558775
0.557943
0.561327
0.564768
0.565114
0.559563
0.553447
0.551218
0.547315
0.541735
0.530232
0.516269
0.500503
0.485241
0.467239
0.448967
0.429601
0.413356
0.394918
0.378761
0.364853
0.352596
0.345932
0.34301
0.346414
0.360016
0.392093
0.439066
0.49945
0.562333
0.611687
0.63972
0.648876
0.648862
0.639335
0.578745
0.512814
0.518125
0.627942
0.714779
0.744258
0.779936
0.813497
0.835376
0.845369
0.849263
0.850464
0.850787
0.849041
0.843836
0.835068
0.823358
0.808784
0.790453
0.771478
0.757828
0.752465
0.750092
0.744937
0.731823
0.701445
0.639746
0.54043
0.47258
0.453365
0.449353
0.451688
0.472975
0.515142
0.56113
0.606296
0.668287
0.731049
0.772885
0.811676
0.841653
0.856056
0.868921
0.875605
0.878452
0.877884
0.874587
0.868106
0.858209
0.844726
0.828733
0.811573
0.793176
0.773734
0.753384
0.732449
0.712296
0.695839
0.682183
0.671244
0.663931
0.660248
0.659493
0.660775
0.664421
0.669386
0.676774
0.688972
0.708139
0.735226
0.773004
0.826755
0.89311
0.946362
0.975367
0.989192
0.994901
0.996934
0.997535
0.997448
0.996295
0.992437
0.986395
0.979423
0.970771
0.960124
0.950311
0.944605
0.943189
0.944632
0.954642
0.971364
0.982643
0.989275
0.993021
0.99526
0.996743
0.99781
0.998591
0.999143
0.99951
0.999738
0.999869
0.999939
0.99997
0.99998
0.999979
0.999965
0.9999
0.999661
0.998859
0.996303
0.988447
0.965015
0.890312
0.723576
0.564339
0.428785
0.317472
0.228798
0.160291
0.109048
0.0719945
0.0461203
0.0286732
0.0173079
0.0101488
0.00578344
0.00320413
0.00172582
0.00090385
0.000459747
0.000227223
0.000108763
5.09315e-05
2.21064e-05
0.616079
0.576934
0.585921
0.597587
0.598108
0.598478
0.594755
0.589958
0.593262
0.611428
0.631157
0.639538
0.648229
0.658832
0.663274
0.665049
0.665137
0.659521
0.656099
0.64971
0.641365
0.629933
0.615817
0.59971
0.583442
0.568023
0.556015
0.542521
0.534853
0.524746
0.515636
0.509549
0.506789
0.512292
0.521794
0.54321
0.571926
0.60183
0.62501
0.639492
0.645417
0.644053
0.632598
0.580304
0.522894
0.521783
0.61618
0.723438
0.760485
0.788216
0.816213
0.834804
0.844041
0.847999
0.849469
0.850016
0.849437
0.846557
0.840836
0.832565
0.821665
0.808
0.790914
0.772084
0.754586
0.741833
0.730615
0.722727
0.706016
0.666552
0.590568
0.480076
0.425346
0.408725
0.403843
0.403393
0.413876
0.449759
0.496492
0.547052
0.611559
0.678469
0.739752
0.801973
0.844711
0.867149
0.888006
0.901906
0.910964
0.916475
0.922078
0.927162
0.931308
0.933738
0.934791
0.934529
0.932809
0.929326
0.923416
0.913695
0.897844
0.873929
0.843473
0.810377
0.779414
0.75545
0.741124
0.732388
0.727605
0.724288
0.721447
0.720091
0.72288
0.735761
0.760398
0.793462
0.833559
0.883698
0.937089
0.971732
0.988279
0.995173
0.997653
0.99843
0.99856
0.998296
0.996851
0.992611
0.988023
0.98403
0.979545
0.973709
0.968269
0.965494
0.965218
0.967478
0.977208
0.986843
0.992382
0.995371
0.996996
0.997974
0.99864
0.999113
0.999447
0.999673
0.999819
0.999906
0.999955
0.999979
0.999988
0.999989
0.999986
0.999966
0.999888
0.999621
0.998767
0.996132
0.988146
0.964018
0.885859
0.717584
0.557102
0.418709
0.304766
0.21478
0.14655
0.0968447
0.0620183
0.0385155
0.0232151
0.0135895
0.00773036
0.00427409
0.00229757
0.00120028
0.000609461
0.000299839
0.000144347
6.48054e-05
0.613764
0.600031
0.624358
0.623183
0.61736
0.624352
0.648412
0.663762
0.674248
0.700152
0.727514
0.74227
0.755551
0.771096
0.782215
0.788142
0.791442
0.792496
0.788606
0.782492
0.772319
0.760649
0.746275
0.731172
0.711358
0.691412
0.672688
0.655035
0.640402
0.628203
0.62019
0.616259
0.614821
0.61619
0.618368
0.619294
0.625186
0.629666
0.633138
0.635211
0.628169
0.614598
0.579619
0.532994
0.52566
0.594461
0.717622
0.767883
0.790244
0.816283
0.832507
0.841863
0.84619
0.848088
0.848915
0.848681
0.846526
0.841607
0.834669
0.826822
0.817533
0.805273
0.790139
0.771589
0.750449
0.726081
0.708968
0.700729
0.68726
0.647243
0.563986
0.448778
0.384868
0.359667
0.343144
0.336791
0.335445
0.33756
0.351751
0.374391
0.396496
0.450031
0.527334
0.617141
0.708334
0.780947
0.83583
0.873408
0.898025
0.911001
0.92031
0.928215
0.935543
0.941505
0.946095
0.950086
0.953656
0.956975
0.960178
0.963246
0.965888
0.966646
0.963946
0.955904
0.940974
0.919271
0.892434
0.867674
0.84814
0.834846
0.826201
0.818386
0.810503
0.803456
0.800203
0.805229
0.82777
0.86002
0.896639
0.938229
0.971554
0.988399
0.99555
0.998165
0.998995
0.999203
0.999167
0.998794
0.997127
0.993263
0.990874
0.989393
0.986895
0.983352
0.980653
0.979788
0.980141
0.983421
0.990321
0.994675
0.997018
0.998213
0.998839
0.999224
0.999492
0.999682
0.99981
0.999892
0.999943
0.999972
0.999987
0.999993
0.999994
0.999993
0.999986
0.999958
0.999858
0.999533
0.998523
0.995396
0.985605
0.954125
0.849071
0.669609
0.507333
0.370864
0.261775
0.178569
0.117845
0.0753201
0.0466754
0.0280686
0.0163933
0.00930225
0.00513127
0.00275056
0.00143412
0.000724866
0.000358572
0.000166282
0.614513
0.609627
0.645762
0.66574
0.70361
0.732683
0.752457
0.786385
0.800986
0.818125
0.839546
0.849138
0.859438
0.867819
0.872057
0.876929
0.879551
0.881028
0.881545
0.880386
0.877704
0.872315
0.86239
0.846607
0.82557
0.793629
0.760246
0.722692
0.694527
0.670188
0.650886
0.639317
0.631921
0.628346
0.62697
0.626908
0.627021
0.625807
0.622377
0.615409
0.60511
0.584298
0.54633
0.531335
0.569884
0.699034
0.764946
0.792814
0.810896
0.829446
0.838213
0.843618
0.846155
0.847274
0.847037
0.844744
0.839982
0.832838
0.823885
0.814337
0.80544
0.794915
0.782107
0.76436
0.739557
0.711443
0.693947
0.687263
0.674229
0.63934
0.567699
0.453034
0.355996
0.319686
0.303948
0.27629
0.250328
0.229523
0.217738
0.213012
0.216895
0.234405
0.260119
0.304735
0.373295
0.483023
0.598886
0.714537
0.797187
0.847113
0.874139
0.890976
0.905557
0.917224
0.925502
0.932319
0.938701
0.945208
0.952339
0.960096
0.967762
0.974622
0.979877
0.98335
0.984983
0.983841
0.979173
0.971512
0.960969
0.948879
0.936938
0.92853
0.924297
0.921077
0.914971
0.900008
0.883591
0.877577
0.889629
0.918593
0.947858
0.974633
0.989687
0.996168
0.998577
0.999356
0.999571
0.999587
0.999488
0.998975
0.997178
0.995404
0.994596
0.993646
0.991581
0.989579
0.988682
0.988676
0.989676
0.993271
0.996385
0.998092
0.998971
0.999404
0.999625
0.999756
0.999845
0.999907
0.999947
0.999972
0.999986
0.999993
0.999996
0.999997
0.999997
0.999994
0.999981
0.999936
0.999786
0.999303
0.99775
0.992678
0.975723
0.917469
0.754495
0.572808
0.418919
0.295296
0.200958
0.132239
0.0842679
0.052061
0.0312151
0.0181746
0.0102833
0.00565346
0.00302332
0.00156847
0.000796669
0.000381041
0.618367
0.64071
0.712318
0.732378
0.748688
0.78338
0.820782
0.847308
0.862743
0.877224
0.886903
0.891252
0.895332
0.89727
0.898749
0.900172
0.90085
0.902066
0.903219
0.904651
0.907231
0.910855
0.91425
0.91737
0.919106
0.920708
0.911806
0.889867
0.846873
0.790909
0.731202
0.686377
0.653759
0.63459
0.625166
0.620962
0.619002
0.618581
0.615182
0.606985
0.590593
0.560282
0.541391
0.551473
0.664962
0.752703
0.789929
0.80767
0.822689
0.834057
0.839196
0.843531
0.845466
0.845864
0.845121
0.841441
0.835431
0.826902
0.816226
0.805005
0.794869
0.784165
0.772899
0.758633
0.737499
0.711399
0.688173
0.670257
0.661881
0.641906
0.581378
0.476107
0.364758
0.307601
0.267865
0.238805
0.209153
0.18585
0.174722
0.169541
0.168407
0.174354
0.183948
0.201445
0.229427
0.272444
0.329918
0.405917
0.520524
0.648312
0.746441
0.795168
0.825986
0.847018
0.859734
0.867848
0.874825
0.882657
0.893575
0.909197
0.929321
0.950529
0.968754
0.981168
0.987965
0.991508
0.993387
0.993835
0.992999
0.990418
0.986417
0.981876
0.977363
0.97392
0.971815
0.96996
0.966107
0.953619
0.93423
0.928406
0.938479
0.960912
0.979974
0.991784
0.99698
0.998942
0.999588
0.999771
0.9998
0.999768
0.999564
0.998793
0.998014
0.997631
0.997111
0.995896
0.994607
0.993924
0.993832
0.994208
0.995883
0.997755
0.998839
0.99941
0.999694
0.999832
0.999902
0.999941
0.999964
0.999979
0.999989
0.999994
0.999997
0.999998
0.999999
0.999998
0.999997
0.99999
0.999964
0.999876
0.99958
0.998581
0.995174
0.983364
0.941877
0.805651
0.611831
0.446255
0.313462
0.212483
0.139268
0.0883954
0.0544033
0.0324922
0.0188488
0.0106214
0.0058214
0.00309591
0.00161211
0.000793922
0.623311
0.656408
0.74448
0.773866
0.796553
0.836671
0.868612
0.883486
0.890782
0.894138
0.895065
0.895023
0.89372
0.89242
0.889565
0.885419
0.882391
0.880845
0.880177
0.880238
0.882476
0.887082
0.89353
0.90377
0.918763
0.936382
0.944997
0.951758
0.954526
0.946729
0.920046
0.858702
0.779576
0.700475
0.653493
0.624668
0.610071
0.60174
0.595465
0.58795
0.570512
0.553012
0.548286
0.610837
0.727726
0.780526
0.803599
0.816435
0.827626
0.834333
0.83901
0.842781
0.843909
0.843884
0.841599
0.837231
0.83067
0.821674
0.811008
0.8002
0.789797
0.781042
0.772115
0.759509
0.740016
0.715052
0.690739
0.668663
0.651634
0.639117
0.605985
0.529546
0.403005
0.320643
0.270816
0.239928
0.207717
0.178938
0.163339
0.157103
0.156225
0.158292
0.163119
0.172757
0.189065
0.217132
0.258608
0.305725
0.353994
0.413169
0.500712
0.61243
0.701242
0.750975
0.776382
0.787017
0.79053
0.791953
0.794987
0.805501
0.831513
0.872128
0.914865
0.951546
0.975489
0.988008
0.993631
0.996111
0.997331
0.997811
0.997739
0.997022
0.995347
0.993236
0.991433
0.99011
0.989031
0.987486
0.983589
0.971209
0.95993
0.960467
0.972265
0.985863
0.994134
0.997846
0.999266
0.999742
0.999878
0.999902
0.999888
0.999783
0.999439
0.999176
0.999021
0.998749
0.998088
0.997387
0.997
0.996916
0.99706
0.997821
0.998797
0.99938
0.999692
0.999848
0.999924
0.99996
0.999978
0.999987
0.999993
0.999996
0.999998
0.999999
0.999999
0.999999
0.999999
0.999998
0.999993
0.999975
0.999911
0.999685
0.99889
0.996069
0.985981
0.949911
0.825664
0.626229
0.454631
0.317715
0.214279
0.139749
0.0882779
0.0540684
0.0321438
0.0185542
0.0104141
0.00567185
0.00302418
0.00152956
0.626863
0.662054
0.766322
0.809784
0.835727
0.869579
0.886597
0.892685
0.894244
0.894273
0.892318
0.886391
0.877269
0.871383
0.867098
0.865513
0.865052
0.865097
0.865272
0.864445
0.862672
0.860434
0.857361
0.855557
0.854147
0.866361
0.898818
0.93791
0.961554
0.9732
0.976644
0.972703
0.950899
0.898082
0.800101
0.705052
0.649246
0.612661
0.589871
0.574546
0.562307
0.556227
0.573524
0.684408
0.763159
0.795838
0.81133
0.820027
0.828177
0.833888
0.838159
0.841085
0.841583
0.839843
0.836196
0.831119
0.824267
0.815813
0.806107
0.79724
0.789055
0.781372
0.773253
0.763091
0.747353
0.725969
0.700309
0.673287
0.652656
0.637704
0.620104
0.582039
0.504388
0.370557
0.294689
0.253521
0.218947
0.188602
0.170246
0.160749
0.155763
0.155998
0.158878
0.166275
0.178903
0.200815
0.236355
0.282783
0.328095
0.367259
0.404619
0.449847
0.51853
0.611645
0.687326
0.727782
0.744532
0.748683
0.747183
0.742914
0.740736
0.755409
0.808486
0.878916
0.935806
0.969578
0.986528
0.994113
0.99722
0.998489
0.999076
0.999308
0.999291
0.998949
0.998278
0.997595
0.996896
0.996288
0.995473
0.993606
0.987428
0.978833
0.977291
0.982013
0.990942
0.996232
0.99862
0.999537
0.999846
0.999934
0.999949
0.999941
0.999874
0.99975
0.999679
0.999614
0.999472
0.999141
0.998834
0.998676
0.998646
0.998694
0.998995
0.999443
0.999714
0.99986
0.999933
0.999968
0.999984
0.999992
0.999996
0.999998
0.999999
0.999999
1
1
1
0.999999
0.999998
0.999994
0.999979
0.999924
0.99972
0.998974
0.996236
0.9862
0.949837
0.823533
0.620926
0.447974
0.311163
0.208621
0.135286
0.0849672
0.0517526
0.0305854
0.0175685
0.00979015
0.0053396
0.00276876
0.628953
0.660009
0.782975
0.834228
0.856317
0.881697
0.891576
0.894014
0.89401
0.890844
0.879973
0.871812
0.868751
0.867788
0.86773
0.86952
0.87296
0.874737
0.875601
0.876872
0.877499
0.875109
0.869525
0.858881
0.844824
0.828053
0.82144
0.834085
0.891655
0.948591
0.977324
0.987244
0.99005
0.983515
0.958183
0.891975
0.781376
0.706374
0.651082
0.61195
0.589676
0.59681
0.66311
0.741458
0.784302
0.804155
0.814239
0.820209
0.827703
0.832448
0.835942
0.837199
0.836089
0.833238
0.829716
0.82497
0.818789
0.811582
0.80371
0.796578
0.789577
0.783043
0.776894
0.770435
0.759244
0.744667
0.72409
0.693304
0.662719
0.641681
0.625245
0.607826
0.575387
0.507222
0.376477
0.302021
0.254395
0.217924
0.193959
0.179493
0.16907
0.167388
0.169097
0.173838
0.184005
0.202101
0.233463
0.27873
0.326062
0.366317
0.399223
0.428454
0.460589
0.500672
0.555484
0.620404
0.67534
0.709228
0.721032
0.719844
0.7091
0.701126
0.707556
0.759898
0.861606
0.93146
0.96865
0.986505
0.994444
0.997731
0.999016
0.999519
0.999731
0.999797
0.999782
0.999672
0.999435
0.999158
0.998896
0.998458
0.997397
0.993796
0.98889
0.987671
0.98956
0.994732
0.997823
0.999207
0.999737
0.999915
0.999965
0.999973
0.999966
0.999933
0.999902
0.999883
0.999854
0.999779
0.999649
0.999553
0.999513
0.999512
0.999537
0.999655
0.999806
0.999899
0.99995
0.999976
0.999989
0.999995
0.999997
0.999999
0.999999
1
1
1
1
1
1
0.999999
0.999995
0.999981
0.999926
0.999718
0.998929
0.995956
0.984861
0.944285
0.805948
0.602095
0.431297
0.297551
0.19819
0.127667
0.0796614
0.0481856
0.0283093
0.0161283
0.00898948
0.00477118
0.629566
0.651565
0.777088
0.842277
0.870453
0.887135
0.892825
0.894293
0.893044
0.884994
0.873537
0.868944
0.867923
0.868107
0.870547
0.874064
0.875337
0.875655
0.875282
0.877586
0.881674
0.885353
0.886614
0.886592
0.880501
0.855337
0.818206
0.803761
0.80947
0.845296
0.931198
0.976518
0.992069
0.995612
0.995006
0.982458
0.936398
0.832565
0.764103
0.71839
0.693129
0.69822
0.734214
0.772224
0.795428
0.808037
0.814311
0.81968
0.826318
0.830388
0.831828
0.830957
0.828091
0.825043
0.821903
0.818237
0.813694
0.80824
0.802439
0.796351
0.790506
0.785065
0.78024
0.774734
0.765631
0.754801
0.740304
0.717444
0.690322
0.658965
0.63595
0.62044
0.606861
0.581406
0.53563
0.446267
0.350704
0.289075
0.249393
0.227145
0.209984
0.203125
0.2052
0.212261
0.228981
0.255924
0.283526
0.322035
0.36796
0.408047
0.436498
0.458252
0.475071
0.495326
0.523283
0.553511
0.581887
0.612772
0.650415
0.678467
0.685581
0.677973
0.671085
0.68279
0.75911
0.875603
0.941544
0.97394
0.988909
0.995474
0.998218
0.999308
0.99972
0.999874
0.999934
0.999948
0.999938
0.999885
0.999807
0.999692
0.999444
0.998715
0.996338
0.994069
0.993565
0.994493
0.997275
0.9989
0.999604
0.99987
0.999958
0.999982
0.999985
0.999981
0.999969
0.999963
0.999956
0.999942
0.999907
0.999874
0.999855
0.999851
0.999854
0.999875
0.999923
0.999957
0.999977
0.999988
0.999994
0.999997
0.999999
0.999999
1
1
1
1
1
1
1
1
0.999999
0.999995
0.999979
0.999918
0.99968
0.998757
0.995217
0.981906
0.933079
0.775842
0.573912
0.408035
0.27948
0.184792
0.118178
0.0731753
0.0439679
0.0256014
0.0145761
0.00791155
0.631276
0.634976
0.754888
0.837645
0.869857
0.886844
0.893515
0.89491
0.893649
0.886536
0.874774
0.869326
0.867885
0.867771
0.869123
0.870561
0.867601
0.86262
0.863804
0.865493
0.869377
0.877689
0.885951
0.888431
0.887679
0.881036
0.851151
0.807597
0.800665
0.812741
0.870257
0.945499
0.981015
0.994682
0.998228
0.998397
0.990895
0.942836
0.837245
0.782892
0.759168
0.751911