/*--------------------------------*- C++ -*----------------------------------*\
  =========                 |
  \\      /  F ield         | OpenFOAM: The Open Source CFD Toolbox
   \\    /   O peration     | Website:  https://openfoam.org
    \\  /    A nd           | Version:  7
     \\/     M anipulation  |
\*---------------------------------------------------------------------------*/
FoamFile
{
    version     2.0;
    format      ascii;
    class       volScalarField;
    location    "0.075";
    object      s_0;
}
// * * * * * * * * * * * * * * * * * * * * * * * * * * * * * * * * * * * * * //

dimensions      [0 0 0 0 0 0 0];

internalField   nonuniform List<scalar> 
12225
(
1
1
1
1
1
1
1
1
1
1
1
1
1
1
1
1
1
1
1
1
1
1
1
1
1
1
1
1
1
1
1
1
1
1
1
1
1
1
1
1
1
1
1
1
1
1
1
1
1
1
1
1
1
1
1
1
1
1
1
1
1
1
1
1
1
1
1
1
1
1
1
1
1
1
1
1
1
1
1
1
1
1
1
1
1
1
1
1
1
1
1
1
1
1
1
1
1
1
1
1
1
1
1
1
1
1
1
1
1
1
1
1
1
1
1
1
1
1
1
1
1
1
1
1
1
1
1
1
1
1
1
1
1
1
1
1
1
1
1
1
1
1
1
1
1
1
1
1
1
1
1
1
1
1
1
1
1
1
1
1
1
1
1
1
1
1
1
1
1
1
1
1
1
1
1
1
1
1
1
1
1
1
1
1
1
1
1
1
1
1
1
1
1
1
1
1
1
1
1
1
1
1
1
1
1
1
1
1
1
1
1
1
1
1
1
1
1
1
1
1
1
1
1
1
1
1
1
1
1
1
1
1
1
1
1
1
1
1
1
1
1
1
1
1
1
1
1
1
1
1
1
1
1
1
1
1
1
1
1
1
1
1
1
1
1
1
1
1
1
1
1
1
1
1
1
1
1
1
1
1
1
1
1
1
1
1
1
1
1
1
1
1
1
1
1
1
1
1
1
1
1
1
1
1
1
1
1
1
1
1
1
1
1
1
1
1
1
1
1
1
1
1
1
1
1
1
1
1
1
1
1
1
1
1
1
1
1
1
1
1
1
1
1
1
1
1
1
1
1
1
1
1
1
1
1
1
1
1
1
1
1
1
1
1
1
1
1
1
1
1
1
1
1
1
1
1
1
1
1
1
1
1
1
1
1
1
1
1
1
1
1
1
1
1
1
1
1
1
1
1
1
1
1
1
1
1
1
1
1
1
1
1
1
1
1
1
1
1
1
1
1
1
1
1
1
1
1
1
1
1
1
1
1
1
1
1
1
1
1
1
1
1
1
1
1
1
1
1
1
1
1
1
1
1
1
1
1
1
1
1
1
1
1
1
1
1
1
1
1
1
1
1
1
1
1
1
1
1
1
1
1
1
1
1
1
1
1
1
1
1
1
1
1
1
1
1
1
1
1
1
1
1
1
1
1
1
1
1
1
1
1
1
1
1
1
1
1
1
1
1
1
1
1
1
1
1
1
1
1
1
1
1
1
1
1
1
1
1
1
1
0.131303
0.170228
0.168504
0.159389
0.153881
0.152534
0.167979
0.19515
0.231318
0.265191
0.293653
0.319856
0.340492
0.358649
0.376741
0.393237
0.40679
0.416835
0.424685
0.43181
0.439902
0.447701
0.455482
0.46307
0.47185
0.482462
0.494738
0.506218
0.515556
0.52429
0.53464
0.546603
0.557656
0.564861
0.567217
0.566004
0.540957
0.31077
0.0478969
0.0159549
0.0182752
0.0223073
0.0262097
0.0297733
0.034516
0.0399379
0.0463572
0.0545201
0.067139
0.0775782
0.082027
0.0717492
0.0593166
0.0584051
0.0722246
0.0944574
0.116824
0.146998
0.178139
0.218713
0.388365
0.716891
0.838627
0.852736
0.854799
0.856269
0.857394
0.858269
0.859012
0.860001
0.860654
0.861422
0.861832
0.862494
0.863345
0.863996
0.864858
0.865581
0.866385
0.866784
0.867204
0.867859
0.868201
0.868374
0.868514
0.868562
0.86856
0.868526
0.868538
0.86848
0.868216
0.867754
0.867296
0.86695
0.866581
0.866151
0.865747
0.865373
0.864888
0.864564
0.864276
0.863945
0.863495
0.862974
0.862422
0.86181
0.860924
0.860024
0.858954
0.857729
0.856347
0.854743
0.852928
0.85059
0.847028
0.842039
0.835871
0.828228
0.818442
0.806128
0.791412
0.773355
0.750336
0.723367
0.692774
0.653037
0.60259
0.546736
0.480646
0.392859
0.291757
0.201384
0.130779
0.0798887
0.045878
0.0247379
0.0125049
0.00591851
0.00262401
0.00109243
0.000425022
0.000148598
4.42826e-05
2.00509e-05
1.02806e-05
5.08802e-06
2.4499e-06
1.14697e-06
5.23346e-07
2.3346e-07
1.02136e-07
4.39575e-08
1.86687e-08
7.84815e-09
3.27582e-09
1.36162e-09
5.65142e-10
2.34775e-10
9.77935e-11
4.08879e-11
1.71638e-11
7.22996e-12
3.05253e-12
1.28976e-12
5.44405e-13
2.29144e-13
9.59908e-14
3.99346e-14
1.64583e-14
6.70029e-15
2.68576e-15
1.05639e-15
4.06221e-16
1.5216e-16
5.52918e-17
1.94048e-17
6.54529e-18
2.09998e-18
6.24798e-19
-7.95148e-19
0.0995242
0.159318
0.161152
0.129775
0.0601203
0.0655308
0.0942442
0.154251
0.237856
0.321855
0.387451
0.430205
0.458202
0.474827
0.484764
0.491023
0.493858
0.496625
0.498277
0.498801
0.499773
0.502525
0.504791
0.507413
0.513793
0.520432
0.526748
0.535714
0.543901
0.549944
0.558855
0.567936
0.574773
0.58301
0.591813
0.593868
0.589191
0.556113
0.482304
0.283448
0.108571
0.0430461
0.0228444
0.0187417
0.0213591
0.0320851
0.04608
0.0590839
0.0768103
0.1089
0.157316
0.190999
0.187392
0.152371
0.140499
0.145351
0.157995
0.182665
0.384569
0.704899
0.79172
0.837592
0.853798
0.856864
0.858034
0.858968
0.859855
0.860757
0.86185
0.86307
0.864251
0.865437
0.866436
0.86787
0.869604
0.871715
0.87397
0.875661
0.8771
0.87847
0.88031
0.882509
0.884357
0.885953
0.887708
0.889587
0.891505
0.893444
0.89563
0.897931
0.900084
0.901831
0.903565
0.90525
0.906724
0.9081
0.909598
0.910699
0.911521
0.912195
0.912514
0.912648
0.912525
0.911889
0.910816
0.909268
0.907497
0.905491
0.90347
0.901557
0.899539
0.897533
0.895734
0.894537
0.894713
0.896601
0.900322
0.905769
0.913032
0.922082
0.932742
0.944267
0.954962
0.963379
0.969511
0.974247
0.97777
0.980103
0.981411
0.981933
0.981677
0.977677
0.964537
0.93107
0.876811
0.804238
0.708481
0.591127
0.465248
0.350147
0.256935
0.183973
0.12835
0.0871885
0.0576489
0.0370935
0.0232251
0.0141524
0.00839628
0.00485303
0.00273536
0.00150523
0.000809799
0.000426583
0.000220382
0.000111837
5.58318e-05
2.74558e-05
1.33139e-05
6.37127e-06
3.01018e-06
1.40439e-06
6.47011e-07
2.9434e-07
1.32214e-07
5.86426e-08
2.56788e-08
1.1098e-08
4.72869e-09
1.98422e-09
8.17721e-10
3.30494e-10
1.30388e-10
5.02082e-11
1.87173e-11
6.78401e-12
2.35235e-12
7.8973e-13
2.31372e-13
-1.25581e-12
0.0418419
0.0855643
0.096296
0.0785962
0.0875057
0.13558
0.247469
0.378033
0.460361
0.498154
0.5107
0.515145
0.514004
0.510476
0.50406
0.496581
0.487351
0.474263
0.464355
0.452343
0.443087
0.435185
0.431064
0.431341
0.433547
0.43891
0.448336
0.465509
0.482565
0.499402
0.520997
0.53952
0.555031
0.573668
0.585348
0.59561
0.608688
0.608865
0.601526
0.572149
0.498471
0.33027
0.173583
0.0958672
0.059916
0.0526875
0.0569565
0.0734103
0.0870325
0.102592
0.139014
0.235994
0.284992
0.286812
0.2765
0.269221
0.362186
0.670171
0.782585
0.829788
0.847702
0.854915
0.856958
0.85748
0.857703
0.857761
0.857166
0.856525
0.856117
0.856003
0.855984
0.856761
0.860368
0.862537
0.863561
0.86565
0.869127
0.871207
0.872094
0.873115
0.875269
0.877486
0.878765
0.880769
0.883817
0.886357
0.88891
0.891881
0.894988
0.898591
0.901961
0.905066
0.908421
0.911723
0.915048
0.918379
0.922091
0.925363
0.928518
0.931738
0.934509
0.937356
0.939928
0.942276
0.944388
0.945944
0.946792
0.946629
0.944827
0.941117
0.935664
0.928163
0.918719
0.907977
0.897241
0.888705
0.882737
0.878313
0.875807
0.875085
0.875637
0.878615
0.886888
0.900438
0.917825
0.936309
0.952522
0.964739
0.974249
0.981565
0.9869
0.991171
0.994449
0.995688
0.995603
0.994542
0.990902
0.983424
0.974829
0.960085
0.92764
0.845379
0.710243
0.565599
0.431012
0.319346
0.231185
0.163029
0.111874
0.0747233
0.0486273
0.0308758
0.0191605
0.0116431
0.00694196
0.00406975
0.00235105
0.0013413
0.000757485
0.000424527
0.000236724
0.000131637
7.30798e-05
4.04781e-05
2.22982e-05
1.21588e-05
6.52416e-06
3.42909e-06
1.75957e-06
8.80835e-07
4.29364e-07
2.0407e-07
9.42627e-08
4.24801e-08
1.85313e-08
7.89935e-09
3.231e-09
1.29131e-09
5.0063e-10
1.4765e-10
0.00667867
0.0204561
0.0326991
0.106791
0.262273
0.430344
0.500094
0.523067
0.527573
0.524782
0.514183
0.491746
0.461968
0.430518
0.400223
0.3707
0.346497
0.32539
0.30678
0.289488
0.274728
0.262373
0.251435
0.242807
0.240025
0.240865
0.244428
0.253914
0.268933
0.300724
0.341602
0.387401
0.448459
0.505482
0.543956
0.575951
0.597764
0.613059
0.62224
0.620822
0.610841
0.58142
0.515198
0.408589
0.300824
0.217642
0.193088
0.194722
0.202482
0.219866
0.261139
0.341422
0.372602
0.363012
0.345595
0.517361
0.739631
0.813124
0.840804
0.851448
0.855087
0.856123
0.856327
0.855364
0.852805
0.848281
0.841801
0.838568
0.837645
0.83814
0.844907
0.850954
0.852358
0.852652
0.85241
0.851414
0.849417
0.846095
0.842347
0.839237
0.836827
0.83536
0.834909
0.836004
0.839318
0.842948
0.848307
0.853467
0.858983
0.866459
0.87311
0.879176
0.885787
0.891392
0.897085
0.902223
0.907747
0.912519
0.91735
0.922084
0.926576
0.931153
0.935684
0.940401
0.945214
0.950162
0.955134
0.95993
0.964316
0.967985
0.970865
0.972935
0.973656
0.971754
0.965806
0.954117
0.937295
0.917961
0.899841
0.886941
0.878194
0.872985
0.870633
0.870352
0.871795
0.878132
0.894437
0.915573
0.935424
0.951198
0.963891
0.974254
0.982505
0.988727
0.993249
0.996338
0.998018
0.998527
0.998515
0.99817
0.996834
0.99235
0.984578
0.975635
0.95913
0.920394
0.808434
0.630799
0.469964
0.339597
0.239312
0.164253
0.109863
0.0717485
0.0458731
0.0288025
0.0178173
0.0108941
0.00660336
0.00397766
0.00238488
0.00142394
0.00084582
0.000498546
0.000290111
0.000166009
9.30869e-05
5.10642e-05
2.73224e-05
1.42604e-05
7.23123e-06
3.57762e-06
1.72219e-06
8.09351e-07
3.68939e-07
1.64338e-07
7.05488e-08
2.95655e-08
1.19972e-08
4.19837e-09
0.00116803
0.0268165
0.213737
0.449741
0.524615
0.541164
0.540466
0.531312
0.508857
0.47233
0.433396
0.405034
0.381089
0.359072
0.338139
0.317813
0.298071
0.278846
0.260437
0.242528
0.226014
0.209997
0.195585
0.185852
0.175844
0.168433
0.168175
0.170102
0.175303
0.186612
0.209332
0.230538
0.274788
0.338063
0.407701
0.489301
0.55031
0.592987
0.614969
0.628909
0.631543
0.628744
0.617574
0.59134
0.552268
0.494279
0.422067
0.373158
0.366865
0.376292
0.430653
0.47232
0.448313
0.440496
0.61015
0.764951
0.824895
0.845262
0.852366
0.854585
0.855066
0.854929
0.85225
0.845874
0.83294
0.820422
0.81647
0.815909
0.818054
0.826362
0.831694
0.832957
0.831906
0.825287
0.812706
0.794409
0.770714
0.744724
0.722951
0.708416
0.700654
0.695743
0.692857
0.691862
0.693298
0.6992
0.707299
0.715911
0.726014
0.740393
0.754364
0.768518
0.783378
0.796593
0.808833
0.819262
0.828398
0.836
0.842888
0.84914
0.855221
0.86141
0.868231
0.87631
0.885884
0.897274
0.910313
0.924463
0.938833
0.952155
0.963357
0.971944
0.977907
0.981795
0.98408
0.985039
0.983978
0.978816
0.966336
0.946261
0.923685
0.903702
0.888496
0.877975
0.872511
0.871148
0.872028
0.877896
0.897034
0.922979
0.944247
0.959097
0.969801
0.978093
0.984782
0.990079
0.993983
0.996584
0.998198
0.999102
0.999418
0.999423
0.999312
0.99897
0.998107
0.995931
0.990564
0.978616
0.950695
0.869451
0.682583
0.503217
0.359062
0.250119
0.170563
0.11413
0.0751636
0.0488732
0.031459
0.0200829
0.0127242
0.00799824
0.00497921
0.00305924
0.00184857
0.00109567
0.000635406
0.00036003
0.000198959
0.000107208
5.62233e-05
2.87075e-05
1.42311e-05
6.87844e-06
3.2284e-06
1.47744e-06
6.54052e-07
2.81507e-07
1.1789e-07
4.38938e-08
0.0148939
0.277334
0.511016
0.55227
0.552505
0.543045
0.518434
0.480742
0.453297
0.43052
0.409727
0.389634
0.369445
0.349003
0.32861
0.308191
0.287892
0.267622
0.247876
0.2285
0.21002
0.192903
0.177998
0.164585
0.151653
0.140722
0.135604
0.135165
0.136942
0.142225
0.155475
0.171761
0.194266
0.244656
0.306941
0.35905
0.439801
0.528434
0.587809
0.619387
0.634512
0.640521
0.639924
0.636128
0.627075
0.608805
0.543739
0.457109
0.444347
0.467067
0.540275
0.539485
0.562586
0.678849
0.782824
0.829771
0.846688
0.852232
0.853803
0.854167
0.853159
0.849151
0.838981
0.818596
0.803425
0.798618
0.797533
0.797727
0.800619
0.803814
0.804248
0.799605
0.78241
0.747397
0.690382
0.629923
0.606467
0.598143
0.596038
0.597265
0.604248
0.609409
0.611761
0.613658
0.616824
0.620173
0.622406
0.624605
0.627095
0.629703
0.633123
0.637683
0.643136
0.649658
0.656481
0.663683
0.670505
0.676926
0.682897
0.688432
0.693931
0.699946
0.707287
0.716657
0.729286
0.746083
0.768078
0.796001
0.829552
0.866926
0.902601
0.931757
0.955204
0.971368
0.981304
0.986699
0.989448
0.990631
0.990381
0.987418
0.97879
0.962906
0.941839
0.919765
0.900392
0.886401
0.879043
0.877273
0.878628
0.887538
0.91287
0.939393
0.958518
0.970869
0.979085
0.985053
0.989694
0.993313
0.995977
0.997738
0.998791
0.999386
0.999698
0.999806
0.999811
0.999762
0.999553
0.998921
0.997116
0.991993
0.978109
0.938744
0.813282
0.615443
0.448528
0.319192
0.223132
0.153874
0.104887
0.0707258
0.0471729
0.031092
0.0202094
0.0129183
0.00809844
0.00496762
0.00297565
0.00173863
0.00098976
0.000548881
0.000296243
0.00015567
7.95082e-05
3.94692e-05
1.90385e-05
8.93789e-06
4.06812e-06
1.79533e-06
7.73239e-07
3.00541e-07
0.406667
0.557484
0.572201
0.561417
0.536228
0.511778
0.490307
0.468371
0.448269
0.43018
0.413906
0.398457
0.380988
0.363341
0.346012
0.327233
0.306823
0.284411
0.261665
0.240477
0.222114
0.20444
0.186434
0.168484
0.153663
0.142608
0.135727
0.131621
0.13004
0.131537
0.139513
0.158968
0.199234
0.24843
0.287221
0.321308
0.369091
0.437251
0.518583
0.582717
0.622271
0.640016
0.646291
0.64663
0.642519
0.614933
0.517848
0.477397
0.4922
0.590648
0.632373
0.661773
0.727895
0.798189
0.832564
0.846607
0.851271
0.852551
0.852891
0.850787
0.844197
0.830217
0.809903
0.792193
0.784386
0.780833
0.778861
0.777173
0.776006
0.774471
0.765697
0.73579
0.670211
0.58719
0.554733
0.542783
0.540136
0.54436
0.567051
0.591951
0.601969
0.6094
0.616447
0.620447
0.625044
0.627572
0.628516
0.628684
0.627849
0.626278
0.624609
0.62315
0.622315
0.62189
0.62173
0.622129
0.622693
0.623486
0.624472
0.625675
0.627147
0.62898
0.631548
0.635166
0.640124
0.646824
0.655835
0.668208
0.685981
0.71176
0.752372
0.807943
0.867776
0.918554
0.952346
0.973752
0.985353
0.990845
0.99317
0.993966
0.993582
0.99081
0.983258
0.971114
0.953899
0.933074
0.913507
0.899991
0.893779
0.892949
0.896332
0.913225
0.939806
0.960374
0.973721
0.981968
0.987315
0.991126
0.994008
0.996168
0.997712
0.998731
0.999337
0.99967
0.999842
0.999913
0.999924
0.999909
0.999826
0.999517
0.998506
0.995327
0.98565
0.95687
0.863072
0.673512
0.504537
0.369751
0.266569
0.189498
0.132853
0.0917272
0.0622312
0.0413882
0.026919
0.0170886
0.0105718
0.0063682
0.00373291
0.00212927
0.00118152
0.000637962
0.000334977
0.00017107
8.47994e-05
4.0866e-05
1.91179e-05
8.66149e-06
3.83524e-06
1.54918e-06
0.626349
0.605734
0.570923
0.541942
0.525936
0.509657
0.493435
0.485469
0.484156
0.482262
0.479279
0.473012
0.464826
0.458484
0.448469
0.432135
0.413488
0.393689
0.37625
0.35957
0.342193
0.320523
0.296488
0.272129
0.251516
0.233969
0.222733
0.217038
0.214671
0.213846
0.221305
0.239599
0.263821
0.285649
0.306234
0.334973
0.380519
0.448325
0.52505
0.587144
0.625288
0.64407
0.64943
0.648411
0.636177
0.562844
0.498126
0.51019
0.624327
0.68639
0.716657
0.760888
0.808024
0.834733
0.846163
0.850282
0.85136
0.851574
0.848466
0.840181
0.828959
0.813315
0.793324
0.77533
0.768346
0.765401
0.763167
0.760398
0.755721
0.742915
0.707701
0.636434
0.54287
0.504941
0.49386
0.492223
0.500594
0.532647
0.576031
0.609035
0.643638
0.686335
0.706857
0.721225
0.730045
0.734135
0.73591
0.733413
0.726481
0.717313
0.705615
0.693041
0.681519
0.671449
0.662332
0.654311
0.647259
0.641305
0.636444
0.632703
0.630185
0.628855
0.628596
0.629611
0.631974
0.635705
0.640803
0.647342
0.656069
0.666451
0.68019
0.702353
0.738235
0.79444
0.864237
0.924174
0.960938
0.981038
0.990539
0.994425
0.995821
0.996065
0.995245
0.991793
0.985074
0.975586
0.962129
0.945377
0.929935
0.920316
0.916958
0.917385
0.924576
0.946078
0.965321
0.97803
0.985619
0.99018
0.993161
0.995305
0.996907
0.99807
0.998868
0.999381
0.999683
0.999847
0.999928
0.999959
0.999962
0.999951
0.999889
0.999649
0.998824
0.996146
0.98778
0.962588
0.881328
0.704715
0.541529
0.4072
0.300356
0.217248
0.153848
0.106457
0.0718335
0.0471911
0.0301503
0.0187239
0.0113003
0.00662914
0.00378069
0.00209684
0.00113091
0.00059315
0.000302333
0.000149636
7.19442e-05
3.34919e-05
1.52479e-05
6.38821e-06
0.629317
0.576726
0.552601
0.549194
0.545143
0.545247
0.554101
0.560253
0.560243
0.558466
0.557517
0.56078
0.564259
0.564627
0.559126
0.552802
0.550435
0.546468
0.5409
0.529443
0.515461
0.499627
0.484327
0.466326
0.448066
0.428695
0.412491
0.394156
0.378052
0.364241
0.352092
0.345537
0.342705
0.34622
0.359956
0.392229
0.439448
0.500018
0.562925
0.612136
0.639956
0.648931
0.648852
0.639015
0.577418
0.512362
0.518364
0.629468
0.715391
0.744731
0.780422
0.813846
0.835519
0.845408
0.849262
0.850452
0.850774
0.849043
0.843895
0.835207
0.823572
0.809103
0.79085
0.771845
0.757891
0.75233
0.749896
0.744838
0.731952
0.702019
0.641025
0.54213
0.472868
0.453082
0.44889
0.450975
0.471661
0.513505
0.559487
0.604427
0.66615
0.729331
0.77161
0.810536
0.840903
0.855416
0.868209
0.874858
0.877684
0.876983
0.873509
0.866802
0.856632
0.842879
0.826731
0.809411
0.790864
0.771297
0.75088
0.729999
0.710114
0.69409
0.680631
0.669942
0.662888
0.659428
0.658834
0.660259
0.664027
0.669108
0.676624
0.688968
0.708305
0.735566
0.773764
0.828105
0.894633
0.947347
0.975854
0.989404
0.994979
0.996958
0.997538
0.997438
0.996246
0.992317
0.986251
0.979263
0.970579
0.959921
0.950154
0.944524
0.943161
0.944672
0.954898
0.971579
0.982779
0.989352
0.993066
0.995287
0.996762
0.997824
0.998601
0.99915
0.999514
0.99974
0.999871
0.999939
0.999971
0.99998
0.999979
0.999965
0.999899
0.999657
0.998843
0.996254
0.988299
0.964567
0.888803
0.721586
0.562623
0.427346
0.316303
0.227877
0.159588
0.108529
0.0716249
0.0458662
0.0285047
0.0172
0.010082
0.00574337
0.00318087
0.00171273
0.000896709
0.000455972
0.000225287
0.000107804
5.04665e-05
2.18984e-05
0.616193
0.576832
0.585597
0.597352
0.59795
0.598338
0.594747
0.58983
0.592908
0.61073
0.630609
0.639063
0.647604
0.658233
0.66271
0.664497
0.664584
0.658919
0.655392
0.648979
0.640626
0.629207
0.615107
0.598964
0.582649
0.567138
0.555121
0.541599
0.533944
0.523845
0.514699
0.508655
0.50591
0.511586
0.521298
0.542969
0.571916
0.601935
0.625137
0.639571
0.645439
0.64398
0.632285
0.579448
0.522554
0.521867
0.617604
0.724117
0.760841
0.788596
0.816464
0.834913
0.844065
0.847989
0.849449
0.849995
0.849411
0.846538
0.840849
0.83265
0.821835
0.808259
0.791255
0.772427
0.754789
0.741806
0.730425
0.722575
0.706178
0.667271
0.591969
0.481529
0.425403
0.408355
0.403282
0.402732
0.412723
0.448028
0.494703
0.54519
0.609732
0.67704
0.738603
0.801167
0.844428
0.86703
0.887858
0.901798
0.910876
0.916389
0.92198
0.927038
0.93112
0.933483
0.934461
0.934078
0.932202
0.928502
0.922283
0.912111
0.895641
0.871075
0.84037
0.807228
0.776532
0.753147
0.739352
0.730904
0.726361
0.723223
0.720534
0.719351
0.722403
0.735702
0.760585
0.793896
0.83429
0.884869
0.93816
0.972297
0.988532
0.995269
0.997683
0.998437
0.998558
0.998283
0.996796
0.992506
0.987929
0.983943
0.979443
0.973597
0.968186
0.965458
0.96521
0.967549
0.977395
0.986958
0.992446
0.995406
0.997015
0.997986
0.998648
0.999118
0.999451
0.999676
0.99982
0.999907
0.999955
0.999979
0.999988
0.999989
0.999986
0.999966
0.999887
0.999616
0.99875
0.996083
0.987996
0.963552
0.884277
0.71561
0.55535
0.417227
0.303566
0.213848
0.145856
0.096348
0.0616763
0.0382888
0.0230701
0.0134999
0.00767674
0.00424303
0.00228013
0.00119079
0.000604449
0.000297281
0.000143071
6.42135e-05
0.613804
0.599797
0.624252
0.623217
0.617292
0.624052
0.648051
0.663586
0.673893
0.69942
0.726876
0.741803
0.754941
0.77039
0.781598
0.787515
0.790799
0.791843
0.787905
0.781749
0.771526
0.759824
0.745507
0.730489
0.710726
0.690795
0.672122
0.654536
0.639935
0.627846
0.619921
0.616035
0.614621
0.616048
0.618266
0.619209
0.625131
0.629658
0.633131
0.635192
0.628055
0.614383
0.579229
0.532769
0.525673
0.595615
0.718353
0.768246
0.790505
0.816493
0.832593
0.841873
0.846169
0.848061
0.848884
0.848635
0.846454
0.841511
0.834552
0.826709
0.81752
0.805352
0.790332
0.771834
0.750631
0.72608
0.708801
0.700561
0.68735
0.647913
0.565332
0.450181
0.384996
0.359458
0.342762
0.336194
0.334752
0.336728
0.350805
0.373714
0.395973
0.449435
0.527078
0.617446
0.709047
0.781769
0.836719
0.874065
0.89848
0.91131
0.920522
0.928375
0.935671
0.941617
0.9462
0.950183
0.953743
0.957046
0.960224
0.963256
0.965792
0.966322
0.963301
0.954784
0.939286
0.916946
0.889803
0.865177
0.845948
0.833014
0.824675
0.817017
0.809203
0.802298
0.799357
0.804857
0.828023
0.86048
0.897387
0.939124
0.972114
0.988656
0.99565
0.998198
0.999004
0.999204
0.999164
0.998779
0.997067
0.993196
0.990833
0.989353
0.986837
0.983293
0.980619
0.979779
0.980153
0.98352
0.990407
0.994726
0.997045
0.998226
0.998846
0.999228
0.999496
0.999684
0.999811
0.999893
0.999943
0.999972
0.999987
0.999993
0.999994
0.999993
0.999986
0.999957
0.999856
0.999527
0.998504
0.995336
0.985414
0.953494
0.847144
0.667593
0.50557
0.369415
0.260641
0.177722
0.117238
0.0749034
0.0463998
0.0278928
0.016285
0.0092376
0.00509391
0.00272964
0.00142275
0.000718894
0.000355504
0.00016481
0.614532
0.609486
0.645547
0.665452
0.703191
0.732472
0.752032
0.786149
0.800913
0.817752
0.839292
0.848964
0.859161
0.867587
0.871815
0.876661
0.879293
0.880771
0.881286
0.880082
0.877328
0.871834
0.861717
0.845718
0.824563
0.792549
0.759119
0.721743
0.693838
0.66967
0.650563
0.639122
0.631841
0.628319
0.626988
0.626948
0.627046
0.625838
0.622405
0.615409
0.605087
0.584194
0.546201
0.531306
0.570616
0.69983
0.765327
0.79303
0.811072
0.829515
0.838207
0.843587
0.846122
0.84723
0.846987
0.844666
0.839888
0.83273
0.823742
0.814149
0.805217
0.794728
0.781989
0.764351
0.73963
0.711516
0.693845
0.68707
0.674197
0.639739
0.568731
0.45446
0.356412
0.31956
0.303712
0.276131
0.250147
0.229351
0.217595
0.212883
0.216807
0.2344
0.260296
0.305232
0.374355
0.484918
0.601497
0.717406
0.799192
0.848675
0.875239
0.891843
0.906278
0.917872
0.926128
0.932947
0.939337
0.945847
0.952953
0.960628
0.968166
0.974889
0.980009
0.983384
0.984859
0.98351
0.978564
0.970662
0.959856
0.947582
0.935585
0.927272
0.923183
0.920002
0.913762
0.898673
0.88251
0.877055
0.889881
0.919083
0.948491
0.975123
0.989916
0.996259
0.998608
0.999365
0.999573
0.999587
0.999483
0.998956
0.997137
0.995378
0.994578
0.99362
0.991545
0.989555
0.988676
0.988678
0.989708
0.993334
0.996421
0.998112
0.998981
0.999409
0.999628
0.999758
0.999846
0.999907
0.999947
0.999972
0.999986
0.999993
0.999996
0.999997
0.999997
0.999994
0.999981
0.999935
0.999783
0.999294
0.99772
0.992577
0.975379
0.916269
0.75219
0.570822
0.417278
0.294009
0.199998
0.131555
0.0837992
0.0517521
0.0310187
0.018054
0.0102116
0.00561216
0.00300024
0.001556
0.000790077
0.000377771
0.618336
0.640301
0.712269
0.732436
0.748541
0.782972
0.820414
0.847088
0.86261
0.877022
0.886832
0.891195
0.895272
0.897233
0.898687
0.900111
0.900788
0.902018
0.903203
0.904628
0.90717
0.910793
0.914208
0.917346
0.918984
0.920323
0.911249
0.888876
0.845427
0.789345
0.729665
0.685542
0.6532
0.634368
0.625096
0.620986
0.619099
0.618696
0.615256
0.607021
0.590576
0.560206
0.541355
0.551716
0.665798
0.753129
0.790147
0.807805
0.82277
0.834043
0.839157
0.84349
0.845418
0.845817
0.84506
0.841372
0.835355
0.826816
0.816125
0.804888
0.794735
0.784059
0.772846
0.758645
0.737566
0.711484
0.68819
0.670128
0.661712
0.642064
0.582067
0.477311
0.365448
0.307732
0.267787
0.238777
0.209167
0.185814
0.174683
0.169511
0.168388
0.174373
0.184033
0.201645
0.229837
0.273176
0.331066
0.407976
0.524329
0.652483
0.749514
0.797227
0.827494
0.848276
0.860914
0.869058
0.876135
0.884139
0.895197
0.91091
0.930938
0.95182
0.969612
0.981609
0.988153
0.991576
0.993386
0.993754
0.992817
0.990125
0.986024
0.981413
0.97689
0.973486
0.97142
0.969556
0.965596
0.952668
0.933452
0.928136
0.938797
0.961315
0.98033
0.991964
0.997053
0.998967
0.999596
0.999773
0.9998
0.999766
0.999557
0.998775
0.998003
0.997622
0.997097
0.995874
0.994592
0.993919
0.993834
0.994221
0.995917
0.997777
0.998851
0.999416
0.999697
0.999834
0.999903
0.999941
0.999964
0.999979
0.999989
0.999994
0.999997
0.999998
0.999999
0.999998
0.999997
0.99999
0.999964
0.999874
0.999574
0.998561
0.995104
0.98312
0.941016
0.803376
0.609698
0.444489
0.312082
0.211459
0.138541
0.0879001
0.0540784
0.0322865
0.018723
0.0105469
0.00577864
0.00307217
0.00159922
0.000787326
0.623273
0.655931
0.744301
0.773922
0.796476
0.836357
0.868429
0.883439
0.890783
0.894173
0.895121
0.895084
0.893759
0.892451
0.889658
0.88556
0.882539
0.881002
0.88034
0.880433
0.882665
0.887333
0.893864
0.904146
0.919057
0.936477
0.945126
0.951663
0.954357
0.946155
0.919037
0.856897
0.777655
0.699123
0.652674
0.624324
0.60993
0.601718
0.595524
0.587996
0.570468
0.552963
0.548311
0.611567
0.728254
0.78078
0.80373
0.816504
0.827634
0.834296
0.838964
0.842725
0.84385
0.843803
0.841485
0.837105
0.830538
0.821545
0.810892
0.800112
0.78973
0.781005
0.772099
0.759528
0.740082
0.715146
0.690789
0.668607
0.651501
0.638984
0.606164
0.530261
0.403962
0.320903
0.270791
0.239892
0.20767
0.178898
0.163311
0.157086
0.156222
0.158298
0.163154
0.172841
0.189245
0.217509
0.259169
0.306351
0.354844
0.414901
0.50435
0.616727
0.704512
0.752977
0.777827
0.788226
0.791729
0.793271
0.796601
0.807769
0.834442
0.875027
0.917291
0.953152
0.976337
0.98838
0.993768
0.996162
0.997347
0.997793
0.997693
0.996927
0.995205
0.993065
0.991263
0.989949
0.988872
0.987297
0.983269
0.970597
0.959609
0.960439
0.972597
0.986107
0.99426
0.997898
0.999285
0.999747
0.999879
0.999902
0.999887
0.999779
0.999432
0.999172
0.999018
0.998742
0.998076
0.997379
0.996998
0.996917
0.997066
0.997838
0.998809
0.999386
0.999695
0.99985
0.999925
0.99996
0.999978
0.999988
0.999993
0.999996
0.999998
0.999999
0.999999
0.999999
0.999999
0.999998
0.999993
0.999975
0.99991
0.999681
0.998874
0.99601
0.98577
0.949157
0.823424
0.624024
0.452804
0.316297
0.213233
0.139011
0.0877784
0.0537425
0.0319387
0.0184293
0.0103405
0.0056299
0.0030008
0.00151726
0.626833
0.661594
0.766028
0.80981
0.835709
0.869392
0.886542
0.892694
0.894275
0.894313
0.89238
0.886458
0.877348
0.871462
0.867131
0.865517
0.865043
0.865073
0.86523
0.864395
0.862628
0.860443
0.85736
0.855623
0.854302
0.867146
0.89971
0.938635
0.961665
0.973267
0.976665
0.972352
0.950082
0.89632
0.798005
0.703804
0.648418
0.612177
0.589612
0.574409
0.562237
0.556217
0.573789
0.68508
0.763485
0.795988
0.811399
0.820037
0.828156
0.833844
0.838103
0.841007
0.841484
0.839695
0.836031
0.830946
0.824094
0.815657
0.805982
0.79716
0.789008
0.781344
0.773248
0.763135
0.747432
0.726103
0.700414
0.673272
0.652551
0.637546
0.620019
0.582159
0.50507
0.370959
0.294777
0.253478
0.218871
0.188538
0.170204
0.160707
0.155739
0.155986
0.158889
0.166318
0.178992
0.201001
0.236735
0.283242
0.328457
0.367575
0.405191
0.451261
0.521593
0.615638
0.690347
0.729484
0.745636
0.749485
0.747953
0.743707
0.742005
0.758238
0.812699
0.882398
0.937946
0.97067
0.987021
0.994311
0.997291
0.998515
0.999085
0.999304
0.999278
0.998913
0.998229
0.997538
0.996837
0.996228
0.995396
0.993474
0.987111
0.978605
0.97723
0.982188
0.991095
0.996313
0.998653
0.999549
0.99985
0.999935
0.99995
0.99994
0.999872
0.999748
0.999678
0.999612
0.999469
0.999136
0.998832
0.998675
0.998647
0.998697
0.999003
0.999449
0.999717
0.999861
0.999933
0.999968
0.999985
0.999992
0.999996
0.999998
0.999999
0.999999
1
1
1
0.999999
0.999998
0.999994
0.999979
0.999923
0.999716
0.998958
0.996179
0.985988
0.949073
0.821249
0.618692
0.446139
0.309751
0.207588
0.134562
0.0844806
0.0514371
0.0303881
0.017449
0.00972031
0.0052997
0.00274718
0.628938
0.659582
0.782643
0.834254
0.856369
0.881641
0.89156
0.894034
0.894039
0.890886
0.88001
0.871805
0.868737
0.867768
0.867709
0.869459
0.872871
0.874678
0.875555
0.876801
0.877423
0.874944
0.869321
0.858627
0.844617
0.828061
0.821454
0.834663
0.89277
0.949436
0.977543
0.987262
0.990007
0.983224
0.957377
0.889941
0.779656
0.705309
0.650332
0.611477
0.589427
0.596852
0.663574
0.741837
0.784495
0.804241
0.814258
0.820203
0.827676
0.832396
0.835853
0.837057
0.835889
0.833026
0.829506
0.824768
0.818607
0.811428
0.803601
0.796501
0.789532
0.783026
0.776907
0.770445
0.759258
0.744705
0.724137
0.693355
0.662683
0.641545
0.625111
0.607746
0.57542
0.507432
0.376694
0.301998
0.254273
0.217792
0.193859
0.179379
0.168969
0.167312
0.169022
0.173764
0.183949
0.202112
0.23368
0.279089
0.32636
0.366481
0.399341
0.428661
0.461096
0.501842
0.557945
0.623807
0.678464
0.711347
0.72212
0.72049
0.709559
0.702046
0.709502
0.764833
0.865686
0.933694
0.969736
0.986994
0.994649
0.997809
0.999044
0.99953
0.999734
0.999796
0.999777
0.999661
0.999419
0.999139
0.998875
0.998427
0.997333
0.993631
0.988769
0.987631
0.989637
0.994828
0.997869
0.999226
0.999744
0.999917
0.999966
0.999973
0.999966
0.999932
0.999901
0.999883
0.999854
0.999777
0.999648
0.999552
0.999514
0.999512
0.999538
0.999658
0.999808
0.9999
0.999951
0.999976
0.999989
0.999995
0.999998
0.999999
0.999999
1
1
1
1
1
1
0.999999
0.999995
0.99998
0.999925
0.999713
0.998912
0.995893
0.984625
0.943429
0.803562
0.599866
0.429494
0.296177
0.197192
0.126974
0.0791985
0.0478879
0.0281243
0.0160173
0.00892455
0.00473516
0.629577
0.651224
0.776682
0.842249
0.870521
0.887153
0.892833
0.89431
0.893072
0.885043
0.873564
0.868942
0.867913
0.868088
0.870507
0.874036
0.875326
0.875663
0.875318
0.877637
0.881738
0.885388
0.886623
0.886545
0.880342
0.85475
0.817826
0.803685
0.809694
0.846223
0.93213
0.976911
0.992155
0.995628
0.9949
0.982001
0.934908
0.831188
0.763201
0.717804
0.692715
0.698218
0.734452
0.772443
0.79555
0.808083
0.814319
0.819669
0.826284
0.830325
0.831714
0.830782
0.827866
0.824812
0.821668
0.818014
0.813493
0.808069
0.802313
0.796258
0.790434
0.785012
0.780207
0.77467
0.765535
0.754689
0.74015
0.717268
0.690194
0.658829
0.635795
0.620338
0.606777
0.581356
0.535577
0.446019
0.350346
0.288744
0.249128
0.226899
0.209706
0.202884
0.204962
0.212029
0.228828
0.255624
0.283125
0.321782
0.367793
0.40779
0.436165
0.457896
0.474602
0.495341
0.523644
0.554173
0.583032
0.614943
0.653239
0.68057
0.686777
0.678526
0.671963
0.684744
0.764362
0.879231
0.943379
0.974803
0.989292
0.995636
0.998283
0.999332
0.999729
0.999877
0.999934
0.999947
0.999936
0.999881
0.999802
0.999685
0.99943
0.998676
0.996253
0.994017
0.993548
0.994532
0.997328
0.998923
0.999613
0.999874
0.999959
0.999982
0.999985
0.999981
0.999969
0.999963
0.999956
0.999942
0.999907
0.999874
0.999855
0.999851
0.999855
0.999876
0.999924
0.999957
0.999977
0.999989
0.999994
0.999997
0.999999
0.999999
1
1
1
1
1
1
1
1
0.999999
0.999995
0.999979
0.999917
0.999675
0.998737
0.995141
0.981622
0.932048
0.773345
0.571723
0.406291
0.278163
0.183845
0.117525
0.072743
0.0436919
0.0254317
0.0144743
0.00785369
0.63132
0.634714
0.754398
0.837582
0.869914
0.886876
0.893544
0.894939
0.893678
0.88658
0.87481
0.869334
0.867882
0.867763
0.869096
0.870501
0.86753
0.862607
0.863806
0.865515
0.869462
0.87785
0.886026
0.888446
0.887662
0.880873
0.850577
0.807259
0.800613
0.81296
0.871037
0.945999
0.981286
0.994771
0.998242
0.998357
0.990583
0.941119
0.836079
0.782364
0.758899
0.751883
0.767848