/*--------------------------------*- C++ -*----------------------------------*\
  =========                 |
  \\      /  F ield         | OpenFOAM: The Open Source CFD Toolbox
   \\    /   O peration     | Website:  https://openfoam.org
    \\  /    A nd           | Version:  7
     \\/     M anipulation  |
\*---------------------------------------------------------------------------*/
FoamFile
{
    version     2.0;
    format      ascii;
    class       volScalarField;
    location    "0.026";
    object      k_0;
}
// * * * * * * * * * * * * * * * * * * * * * * * * * * * * * * * * * * * * * //

dimensions      [0 2 -2 0 0 0 0];

internalField   nonuniform List<scalar> 
12225
(
1.93691e-05
1.79124e-05
1.6882e-05
1.55106e-05
1.40063e-05
1.28374e-05
1.13225e-05
1.0011e-05
9.22541e-06
8.12101e-06
6.73652e-06
5.87972e-06
5.67702e-06
5.70957e-06
5.73022e-06
5.59469e-06
4.83474e-06
6.851e-06
1.99804e-05
1.98649e-05
1.9718e-05
1.95218e-05
1.90931e-05
1.86955e-05
1.83379e-05
1.78564e-05
1.73299e-05
1.70386e-05
1.65807e-05
1.60883e-05
1.55279e-05
1.51837e-05
1.48442e-05
1.46169e-05
1.44605e-05
1.41387e-05
2.00006e-05
1.94166e-05
1.91771e-05
1.89821e-05
1.88333e-05
1.87198e-05
1.86819e-05
1.8642e-05
1.85597e-05
1.85095e-05
1.84569e-05
1.83798e-05
1.82992e-05
1.82069e-05
1.81108e-05
1.79777e-05
1.79157e-05
1.7775e-05
2.01764e-05
2.01458e-05
1.88579e-05
1.20376e-05
1.22369e-05
1.34791e-05
1.49471e-05
1.59286e-05
1.65716e-05
1.70095e-05
1.73516e-05
1.76373e-05
1.78611e-05
1.79928e-05
1.8039e-05
1.80386e-05
1.80475e-05
1.80445e-05
2.05263e-05
2.36099e-05
2.33638e-05
2.16944e-05
2.01311e-05
1.65444e-05
1.46858e-05
1.57276e-05
1.72996e-05
1.80808e-05
1.84668e-05
1.87343e-05
1.89193e-05
1.89828e-05
1.89527e-05
1.87159e-05
1.84073e-05
1.82161e-05
2.41831e-05
2.82407e-05
2.79481e-05
2.60113e-05
2.28913e-05
2.10892e-05
2.04407e-05
2.04636e-05
2.07001e-05
2.0888e-05
2.11063e-05
2.16473e-05
2.29256e-05
2.35565e-05
2.3597e-05
2.34246e-05
2.26758e-05
2.11875e-05
2.22589e-05
2.26619e-05
2.2795e-05
2.5317e-05
2.53683e-05
2.4784e-05
2.33024e-05
2.22397e-05
2.17601e-05
2.16671e-05
2.17409e-05
2.22327e-05
2.34031e-05
2.40026e-05
2.41387e-05
2.41231e-05
2.40595e-05
2.39893e-05
2.23529e-05
2.31711e-05
2.33408e-05
2.41605e-05
2.42573e-05
2.37845e-05
2.26704e-05
2.22173e-05
2.22318e-05
2.28152e-05
2.50419e-05
2.64304e-05
2.66601e-05
2.65641e-05
2.58491e-05
2.45237e-05
2.37868e-05
2.35808e-05
2.09188e-05
2.20119e-05
2.47968e-05
2.52027e-05
2.40988e-05
2.20231e-05
2.12701e-05
2.11876e-05
2.13882e-05
2.26998e-05
2.64224e-05
2.8552e-05
2.89697e-05
2.88656e-05
2.81898e-05
2.62436e-05
2.46775e-05
2.38527e-05
2.02637e-05
2.07772e-05
2.25073e-05
2.3544e-05
2.33807e-05
2.22087e-05
2.14018e-05
2.13521e-05
2.1813e-05
2.42129e-05
2.70058e-05
2.81543e-05
2.83798e-05
2.8279e-05
2.75063e-05
2.57003e-05
2.43129e-05
2.35667e-05
2.03307e-05
2.11014e-05
2.17346e-05
2.1804e-05
2.1606e-05
2.11639e-05
2.11153e-05
2.13342e-05
2.26083e-05
2.56669e-05
2.7611e-05
2.83764e-05
2.8492e-05
2.83033e-05
2.71005e-05
2.47593e-05
2.31513e-05
2.23393e-05
2.00895e-05
2.06517e-05
2.11637e-05
2.11875e-05
2.09108e-05
2.06936e-05
2.07e-05
2.09126e-05
2.19049e-05
2.39788e-05
2.5239e-05
2.56868e-05
2.57081e-05
2.54736e-05
2.43209e-05
2.27551e-05
2.18807e-05
2.15365e-05
2.01309e-05
2.03794e-05
2.05321e-05
2.05755e-05
2.05769e-05
2.05769e-05
2.05948e-05
2.06818e-05
2.09703e-05
2.1753e-05
2.26033e-05
2.32473e-05
2.36428e-05
2.37902e-05
2.3781e-05
2.34368e-05
2.22712e-05
2.15994e-05
2.03412e-05
2.02694e-05
2.03036e-05
2.05347e-05
2.06828e-05
2.07052e-05
2.06842e-05
2.0675e-05
2.06997e-05
2.08578e-05
2.14208e-05
2.22293e-05
2.27893e-05
2.30277e-05
2.30415e-05
2.28044e-05
2.19067e-05
2.12098e-05
2.05524e-05
2.0323e-05
2.04868e-05
2.08028e-05
2.08472e-05
2.07757e-05
2.07267e-05
2.0695e-05
2.06932e-05
2.07319e-05
2.08473e-05
2.09987e-05
2.11357e-05
2.12209e-05
2.12309e-05
2.11915e-05
2.10371e-05
2.08444e-05
2.02069e-05
2.02053e-05
2.02818e-05
2.08725e-05
2.15919e-05
2.1797e-05
2.18182e-05
2.16269e-05
2.11026e-05
2.08386e-05
2.08046e-05
2.08818e-05
2.10876e-05
2.11084e-05
2.10413e-05
2.10168e-05
2.10428e-05
2.11394e-05
2.00832e-05
2.01123e-05
2.01887e-05
2.05524e-05
2.08734e-05
2.0922e-05
2.08711e-05
2.06177e-05
2.03592e-05
2.02702e-05
2.02591e-05
2.02695e-05
2.03313e-05
2.05298e-05
2.07321e-05
2.08499e-05
2.0888e-05
2.08925e-05
2.0457e-05
2.02363e-05
2.0176e-05
2.01171e-05
2.01627e-05
2.03224e-05
2.04587e-05
2.05442e-05
2.06108e-05
2.06503e-05
2.06532e-05
2.06228e-05
2.05641e-05
2.05505e-05
2.05511e-05
2.05509e-05
2.05384e-05
2.04584e-05
2.03293e-05
2.03893e-05
2.03929e-05
2.03818e-05
2.03433e-05
2.03183e-05
2.0321e-05
2.0358e-05
2.04097e-05
2.04619e-05
2.05897e-05
2.07586e-05
2.08317e-05
2.0847e-05
2.08777e-05
2.0926e-05
2.09578e-05
2.09683e-05
2.01589e-05
2.03535e-05
2.03543e-05
2.0295e-05
2.0271e-05
2.02673e-05
2.02619e-05
2.02481e-05
2.02453e-05
2.02536e-05
2.03185e-05
2.06351e-05
2.10648e-05
2.11838e-05
2.11587e-05
2.10026e-05
2.088e-05
2.08374e-05
2.05417e-05
2.08709e-05
2.08546e-05
2.05754e-05
2.03226e-05
2.02616e-05
2.02614e-05
2.02885e-05
2.03211e-05
2.03376e-05
2.03465e-05
2.03515e-05
2.03529e-05
2.03538e-05
2.03572e-05
2.03715e-05
2.04243e-05
2.0491e-05
2.04039e-05
2.04523e-05
2.04563e-05
2.04166e-05
2.02934e-05
2.02595e-05
2.02782e-05
2.04122e-05
2.06644e-05
2.08191e-05
2.08928e-05
2.09153e-05
2.09157e-05
2.09013e-05
2.0827e-05
2.07312e-05
2.06562e-05
2.06128e-05
2.04262e-05
2.03888e-05
2.04647e-05
2.04953e-05
2.04695e-05
2.04538e-05
2.04861e-05
2.06655e-05
2.08701e-05
2.09632e-05
2.09892e-05
2.09858e-05
2.09358e-05
2.07408e-05
2.05313e-05
2.03952e-05
2.03113e-05
2.02625e-05
2.21874e-05
2.0759e-05
2.03925e-05
2.04024e-05
2.04526e-05
2.05786e-05
2.07422e-05
2.08256e-05
2.08407e-05
2.08225e-05
2.07087e-05
2.05326e-05
2.04332e-05
2.03891e-05
2.03756e-05
2.03733e-05
2.03738e-05
2.03794e-05
2.01042e-05
2.00724e-05
2.01013e-05
2.02945e-05
2.06039e-05
2.07592e-05
2.07974e-05
2.07887e-05
2.07056e-05
2.04805e-05
2.03152e-05
2.02379e-05
2.02236e-05
2.02417e-05
2.03542e-05
2.05609e-05
2.06544e-05
2.06612e-05
2.02814e-05
2.0452e-05
2.0419e-05
2.04203e-05
2.05273e-05
2.06706e-05
2.071e-05
2.07074e-05
2.06622e-05
2.04819e-05
2.03281e-05
2.02851e-05
2.02917e-05
2.03887e-05
2.09558e-05
2.22181e-05
2.2839e-05
2.29414e-05
2.00746e-05
2.01071e-05
2.00722e-05
1.99784e-05
1.99117e-05
1.99253e-05
2.00011e-05
2.00916e-05
2.01899e-05
2.0325e-05
2.05841e-05
2.09966e-05
2.12925e-05
2.13812e-05
2.13737e-05
2.12637e-05
2.08059e-05
1.99869e-05
2.02709e-05
1.88324e-05
1.3947e-05
1.31482e-05
1.39977e-05
1.68207e-05
2.40904e-05
3.10165e-05
3.76432e-05
4.59307e-05
5.55684e-05
6.38568e-05
6.95161e-05
7.22735e-05
7.35998e-05
7.48935e-05
7.73953e-05
8.28358e-05
3.28368e-05
0.000126352
0.000198177
0.000237175
0.00026157
0.000311131
0.000397394
0.000461181
0.000496195
0.000518662
0.000542387
0.000560222
0.000575949
0.000583439
0.000594173
0.000608756
0.000629813
0.000650637
0.00275516
0.00281504
0.00281328
0.00273619
0.00244855
0.00222436
0.00213675
0.002074
0.00194628
0.00177947
0.0016384
0.00154423
0.00149246
0.0014688
0.00145876
0.00145009
0.0014338
0.0014026
9.70112e-07
4.63679e-06
1.24632e-05
2.75063e-05
4.79456e-05
7.12922e-05
9.53047e-05
0.000119897
0.000147359
0.000179302
0.000219516
0.000275503
0.000348183
0.000430576
0.00050952
0.000571107
0.000604334
0.000607252
0.000588259
0.000559802
0.000538904
0.000532975
0.000548257
0.000571691
0.000591638
0.000612046
0.000633258
0.00065283
0.000661293
0.000643719
0.000605634
0.000559739
0.000488339
0.000407821
0.000349276
0.000265209
0.000202354
0.000152003
9.73713e-05
7.35948e-05
4.79044e-05
3.43691e-05
2.77299e-05
2.53683e-05
2.60276e-05
2.62597e-05
2.64662e-05
2.65725e-05
2.65593e-05
2.59952e-05
2.51567e-05
2.45393e-05
2.40046e-05
2.30515e-05
2.17483e-05
2.06237e-05
1.9583e-05
1.83781e-05
1.70344e-05
1.57163e-05
1.45395e-05
1.33243e-05
1.21168e-05
1.09394e-05
9.77499e-06
8.57607e-06
7.49146e-06
6.43703e-06
5.4564e-06
4.5454e-06
3.70553e-06
3.00765e-06
2.49433e-06
2.10179e-06
1.78228e-06
1.51095e-06
1.27445e-06
1.06736e-06
8.87054e-07
7.32037e-07
6.00193e-07
4.88402e-07
3.93936e-07
3.14833e-07
2.4946e-07
1.96148e-07
1.53083e-07
1.18536e-07
9.10272e-08
6.93163e-08
5.23408e-08
3.91912e-08
2.90993e-08
2.14252e-08
1.56425e-08
1.13247e-08
8.12964e-09
5.78686e-09
4.08454e-09
2.85878e-09
1.98414e-09
1.36566e-09
9.32246e-10
6.31219e-10
4.23986e-10
2.82554e-10
1.86848e-10
1.22621e-10
7.98703e-11
5.16536e-11
3.31366e-11
2.11604e-11
1.34676e-11
8.53685e-12
5.38751e-12
3.38451e-12
2.11648e-12
1.31753e-12
8.16337e-13
5.03291e-13
3.08785e-13
1.8856e-13
1.14617e-13
6.93635e-14
4.18091e-14
2.51168e-14
1.50542e-14
9.01598e-15
5.40816e-15
3.26136e-15
1.9893e-15
1.23905e-15
7.98943e-16
5.42542e-16
3.94565e-16
3.10385e-16
2.63665e-16
2.38934e-16
2.27117e-16
2.22722e-16
2.22045e-16
2.22045e-16
2.22045e-16
2.22045e-16
2.22045e-16
2.22045e-16
2.22045e-16
2.22045e-16
2.22045e-16
2.22045e-16
2.22045e-16
2.22045e-16
2.22045e-16
2.22045e-16
2.22045e-16
2.22045e-16
2.22045e-16
2.22045e-16
2.22045e-16
2.22045e-16
2.22045e-16
2.22045e-16
2.22045e-16
2.22045e-16
2.22045e-16
2.22045e-16
2.22045e-16
2.22045e-16
2.22045e-16
2.22045e-16
2.22045e-16
2.22045e-16
2.22045e-16
2.22045e-16
2.22045e-16
2.22045e-16
9.27555e-16
3.95589e-13
2.15749e-10
1.13701e-07
3.73738e-06
1.68902e-05
4.33344e-05
8.58876e-05
0.000146585
0.000215035
0.000282078
0.000345948
0.000407272
0.000463997
0.000513426
0.000553921
0.00058337
0.000600909
0.000608123
0.000605758
0.000591816
0.000571433
0.000539718
0.000504537
0.000469158
0.000434785
0.000399973
0.000369409
0.000342001
0.00031568
0.000289496
0.000263876
0.000234963
0.000204512
0.000179683
0.000158352
0.000134151
0.000119554
0.000110133
9.96815e-05
9.48082e-05
9.20573e-05
9.10325e-05
9.16144e-05
9.48348e-05
9.73107e-05
9.988e-05
0.000101283
0.000103345
0.000105217
0.000106404
0.000106705
0.000105483
0.000102004
9.95442e-05
9.76184e-05
9.46132e-05
8.90972e-05
8.32548e-05
7.98176e-05
7.64283e-05
7.0808e-05
6.59366e-05
6.18831e-05
5.81081e-05
5.33494e-05
5.00244e-05
4.61178e-05
4.25159e-05
3.87778e-05
3.53044e-05
3.18781e-05
2.85078e-05
2.51879e-05
2.17739e-05
1.71892e-05
1.3454e-05
1.1273e-05
9.69219e-06
8.47221e-06
7.39677e-06
6.41161e-06
5.50716e-06
4.69146e-06
3.97395e-06
3.34336e-06
2.78343e-06
2.28981e-06
1.8638e-06
1.50898e-06
1.22043e-06
9.8679e-07
7.94864e-07
6.36763e-07
5.07068e-07
4.01256e-07
3.1544e-07
2.4628e-07
1.90914e-07
1.46901e-07
1.12167e-07
8.49641e-08
6.3829e-08
4.75437e-08
3.51034e-08
2.56852e-08
1.8621e-08
1.33733e-08
9.51322e-09
6.70254e-09
4.67688e-09
3.23207e-09
2.21222e-09
1.4997e-09
1.00706e-09
6.69799e-10
4.41267e-10
2.88037e-10
1.86379e-10
1.19625e-10
7.62093e-11
4.82244e-11
3.03265e-11
1.89525e-11
1.17816e-11
7.2898e-12
4.48842e-12
2.74917e-12
1.67481e-12
1.01488e-12
6.1185e-13
3.67126e-13
2.1933e-13
1.30517e-13
7.73956e-14
4.57622e-14
2.70057e-14
1.59311e-14
9.41838e-15
5.60187e-15
3.37122e-15
2.06919e-15
1.30897e-15
8.64348e-16
6.03764e-16
4.50511e-16
3.59962e-16
3.06157e-16
2.73973e-16
2.54566e-16
2.42751e-16
2.35472e-16
2.3092e-16
2.28024e-16
2.26146e-16
2.24906e-16
2.24072e-16
2.23503e-16
2.23106e-16
2.22825e-16
2.2262e-16
2.2247e-16
2.22359e-16
2.22278e-16
2.22219e-16
2.22177e-16
2.22148e-16
2.22129e-16
2.22115e-16
2.22107e-16
2.221e-16
2.22095e-16
2.22092e-16
2.22089e-16
2.22086e-16
2.22083e-16
2.22078e-16
2.2207e-16
2.22067e-16
2.22123e-16
2.65268e-16
2.76647e-14
1.78288e-11
9.98387e-09
5.20727e-06
2.27354e-05
5.12812e-05
8.2709e-05
0.000113829
0.000150269
0.000193971
0.000237947
0.000276826
0.000309701
0.000336979
0.000357008
0.000368434
0.000372814
0.00036987
0.000356891
0.000335514
0.000309792
0.000282413
0.000255539
0.000229784
0.000207454
0.000190845
0.000175766
0.00016314
0.00015258
0.000144188
0.000137989
0.000132562
0.000129194
0.000126998
0.000125138
0.000124314
0.00012434
0.000127927
0.000131118
0.000138042
0.000145409
0.000154318
0.000165403
0.000175161
0.000184799
0.000194479
0.000208452
0.000224609
0.000237689
0.000245605
0.000249218
0.000250036
0.000243826
0.000237292
0.000227388
0.000212612
0.000193096
0.000176386
0.000164959
0.000151744
0.000136217
0.000126177
0.000115104
0.000104069
9.4356e-05
8.64543e-05
7.89168e-05
7.28231e-05
6.66044e-05
6.02593e-05
5.38211e-05
4.75717e-05
4.15561e-05
3.57654e-05
3.03113e-05
2.54068e-05
2.11985e-05
1.7877e-05
1.55693e-05
1.37096e-05
1.2068e-05
1.06095e-05
9.29137e-06
8.10039e-06
7.02752e-06
6.03914e-06
5.1283e-06
4.31968e-06
3.61808e-06
3.01777e-06
2.50654e-06
2.07522e-06
1.7124e-06
1.40757e-06
1.15173e-06
9.37371e-07
7.58396e-07
6.09666e-07
4.8676e-07
3.85826e-07
3.03498e-07
2.36835e-07
1.83275e-07
1.40595e-07
1.06881e-07
8.04927e-08
6.00382e-08
4.43432e-08
3.24266e-08
2.34768e-08
1.68297e-08
1.19483e-08
8.40399e-09
5.85915e-09
4.05106e-09
2.77712e-09
1.88655e-09
1.27006e-09
8.47776e-10
5.61485e-10
3.69224e-10
2.41199e-10
1.56582e-10
1.01008e-10
6.47278e-11
4.11895e-11
2.60135e-11
1.63032e-11
1.01448e-11
6.26893e-12
3.84791e-12
2.34673e-12
1.42246e-12
8.57243e-13
5.13859e-13
3.06564e-13
1.8218e-13
1.07963e-13
6.38953e-14
3.78297e-14
2.2452e-14
1.33905e-14
8.04953e-15
4.89639e-15
3.02983e-15
1.92099e-15
1.25951e-15
8.62913e-16
6.23603e-16
4.77959e-16
3.88326e-16
3.32353e-16
2.96797e-16
2.73757e-16
2.58554e-16
2.48305e-16
2.4131e-16
2.36415e-16
2.3297e-16
2.30448e-16
2.28631e-16
2.27257e-16
2.26286e-16
2.25542e-16
2.25039e-16
2.24651e-16
2.24409e-16
2.24214e-16
2.24099e-16
2.23991e-16
2.23908e-16
2.23825e-16
2.23747e-16
2.23651e-16
2.23527e-16
2.23255e-16
2.22969e-16
2.23038e-16
2.23541e-16
2.40127e-16
1.5179e-15
8.13529e-13
4.23667e-10
4.898e-06
2.0498e-05
4.12189e-05
5.69445e-05
7.05791e-05
8.61853e-05
0.000102278
0.000119169
0.000134523
0.000147091
0.000157737
0.00016531
0.000169391
0.000171315
0.000171717
0.000168695
0.000164046
0.000158994
0.000153872
0.000149006
0.000144591
0.000141586
0.000140119
0.000139579
0.000139847
0.000140903
0.000142836
0.000145361
0.000151055
0.000161001
0.000174829
0.000193587
0.000219805
0.00024331
0.000265925
0.000288747
0.000307963
0.00032487
0.000345544
0.000361469
0.000373984
0.000386127
0.000397897
0.000410304
0.000419665
0.000429168
0.000437597
0.000443369
0.000446238
0.000447218
0.000442461
0.000433024
0.00041533
0.000391641
0.000361344
0.000327948
0.000292107
0.000259629
0.000232964
0.000205824
0.000181896
0.00016011
0.000138709
0.000119258
0.000102346
8.77152e-05
7.51607e-05
6.44997e-05
5.54613e-05
4.76836e-05
4.08692e-05
3.49074e-05
2.97502e-05
2.53208e-05
2.15349e-05
1.83804e-05
1.58217e-05
1.37259e-05
1.19786e-05
1.05008e-05
9.22251e-06
8.04649e-06
6.96511e-06
5.98187e-06
5.16063e-06
4.46733e-06
3.85311e-06
3.30553e-06
2.81909e-06
2.39027e-06
2.01475e-06
1.68843e-06
1.40714e-06
1.16631e-06
9.61355e-07
7.87939e-07
6.42031e-07
5.19965e-07
4.18449e-07
3.34561e-07
2.65674e-07
2.09467e-07
1.63916e-07
1.27265e-07
9.79983e-08
7.48149e-08
5.66056e-08
4.24303e-08
3.14976e-08
2.31473e-08
1.68335e-08
1.2111e-08
8.62108e-09
6.0744e-09
4.23848e-09
2.93049e-09
2.00912e-09
1.36681e-09
9.2318e-10
6.19269e-10
4.12575e-10
2.72932e-10
1.79215e-10
1.1676e-10
7.54361e-11
4.83017e-11
3.06472e-11
1.92732e-11
1.20159e-11
7.42988e-12
4.5593e-12
2.77882e-12
1.68387e-12
1.01573e-12
6.10777e-13
3.66709e-13
2.20183e-13
1.32403e-13
7.98603e-14
4.83913e-14
2.95092e-14
1.81464e-14
1.12837e-14
7.12248e-15
4.588e-15
3.03506e-15
2.07457e-15
1.47172e-15
1.08613e-15
8.3473e-16
6.67348e-16
5.54122e-16
4.75755e-16
4.21325e-16
3.82284e-16
3.55031e-16
3.34523e-16
3.20519e-16
3.09187e-16
3.02322e-16
2.95863e-16
2.9289e-16
2.88986e-16
2.8794e-16
2.85273e-16
2.84982e-16
2.82372e-16
2.82676e-16
2.78358e-16
2.7889e-16
2.71511e-16
2.68111e-16
2.52161e-16
2.51154e-16
2.85642e-16
3.6252e-16
3.90662e-15
5.31626e-15
1.02659e-13
1.88777e-11
3.67266e-06
1.48922e-05
2.85542e-05
3.81053e-05
4.56904e-05
5.44774e-05
6.35474e-05
7.32855e-05
8.27663e-05
9.10537e-05
9.87575e-05
0.000105303
0.000110806
0.000115597
0.000119811
0.000123361
0.000126539
0.000129448
0.000131923
0.000134101
0.000136364
0.000139081
0.000142271
0.000148143
0.000158014
0.000173294
0.000196636
0.000231594
0.000257788
0.000290808
0.000313376
0.000337713
0.0003508
0.000363134
0.000370264
0.000379962
0.000385912
0.000394661
0.000402576
0.000410165
0.000417265
0.000426523
0.000435624
0.000442201
0.000448616
0.000456724
0.000462853
0.000465311
0.0004677
0.000469761
0.000469825
0.0004668
0.000459832
0.000448618
0.000426127
0.000397882
0.000362854
0.000322764
0.000281758
0.000248273
0.000221241
0.000197196
0.000176015
0.000154123
0.000134157
0.000115277
9.80815e-05
8.28832e-05
6.99301e-05
5.91613e-05
4.99712e-05
4.19292e-05
3.48921e-05
2.8759e-05
2.35279e-05
1.92365e-05
1.58476e-05
1.31802e-05
1.10635e-05
9.37228e-06
8.03283e-06
7.04988e-06
6.29818e-06
5.68302e-06
5.11496e-06
4.54175e-06
3.97564e-06
3.44797e-06
2.96393e-06
2.52733e-06
2.13774e-06
1.79675e-06
1.50239e-06
1.24989e-06
1.03453e-06
8.51836e-07
6.97705e-07
5.68384e-07
4.6049e-07
3.7092e-07
2.96964e-07
2.36272e-07
1.86773e-07
1.46661e-07
1.14367e-07
8.85442e-08
6.8041e-08
5.18812e-08
3.92423e-08
2.94362e-08
2.18913e-08
1.61362e-08
1.17859e-08
8.52805e-09
6.11167e-09
4.33707e-09
3.04697e-09
2.11871e-09
1.45777e-09
9.92231e-10
6.67911e-10
4.44406e-10
2.92186e-10
1.89847e-10
1.21769e-10
7.6951e-11
4.80458e-11
2.97618e-11
1.82854e-11
1.11408e-11
6.73191e-12
4.03648e-12
2.40428e-12
1.4252e-12
8.43046e-13
4.99501e-13
2.97867e-13
1.79797e-13
1.10517e-13
6.95501e-14
4.49762e-14
2.99203e-14
2.04421e-14
1.42902e-14
1.01739e-14
7.34429e-15
5.35912e-15
3.94794e-15
2.93569e-15
2.20521e-15
1.67633e-15
1.29245e-15
1.01261e-15
8.08302e-16
6.58876e-16
5.49104e-16
4.67522e-16
4.0689e-16
3.61849e-16
3.28434e-16
3.03139e-16
2.84193e-16
2.69571e-16
2.59584e-16
2.51704e-16
2.45938e-16
2.41824e-16
2.36721e-16
2.33438e-16
2.34018e-16
2.42506e-16
2.90614e-16
5.27615e-16
1.42767e-15
5.37004e-15
1.44491e-14
2.1942e-13
2.70513e-13
3.13021e-12
4.37316e-12
2.59211e-06
1.04321e-05
1.97504e-05
2.62671e-05
3.12269e-05
3.77322e-05
4.49776e-05
5.3012e-05
6.14893e-05
6.97577e-05
7.81336e-05
8.65245e-05
9.49025e-05
0.000103237
0.000111104
0.000117981
0.000123662
0.00012834
0.000132335
0.000136935
0.00014355
0.000153582
0.000170449
0.000197407
0.000239205
0.000278931
0.000315831
0.000335401
0.000357146
0.000367403
0.000374795
0.00038278
0.000389388
0.000395095
0.00040169
0.000409838
0.000418575
0.000429896
0.00044273
0.000457012
0.000471499
0.000488307
0.000500782
0.000513614
0.000529211
0.000535216
0.000535626
0.000510983
0.000487633
0.000478113
0.000460664
0.000444028
0.000437245
0.000429104
0.000422804
0.000407799
0.000387091
0.000354485
0.000319039
0.000282507
0.00024603
0.000214721
0.000191213
0.000170705
0.00015282
0.000136434
0.000121061
0.000106326
9.22974e-05
7.91738e-05
6.79752e-05
5.86284e-05
5.04463e-05
4.28004e-05
3.51558e-05
2.76724e-05
2.12719e-05
1.62984e-05
1.25237e-05
9.76887e-06
7.77076e-06
6.28665e-06
5.16009e-06
4.29268e-06
3.66709e-06
3.26028e-06
2.99413e-06
2.76207e-06
2.51343e-06
2.23398e-06
1.95389e-06
1.68321e-06
1.43477e-06
1.21139e-06
1.01388e-06
8.41752e-07
6.93585e-07
5.67429e-07
4.61053e-07
3.72154e-07
2.98445e-07
2.37777e-07
1.88193e-07
1.47947e-07
1.15506e-07
8.95376e-08
6.8899e-08
5.26162e-08
3.98669e-08
2.99626e-08
2.23308e-08
1.64995e-08
1.20827e-08
8.76734e-09
6.30176e-09
4.48567e-09
3.16112e-09
2.20482e-09
1.52154e-09
1.03856e-09
7.00901e-10
4.67511e-10
3.08074e-10
2.00474e-10
1.28759e-10
8.15776e-11
5.09557e-11
3.13608e-11
1.90049e-11
1.13333e-11
6.64692e-12
3.83203e-12
2.17077e-12
1.2081e-12
6.60688e-13
3.55385e-13
1.88413e-13
9.8843e-14
5.16628e-14
2.72014e-14
1.4661e-14
8.25322e-15
4.94755e-15
3.19381e-15
2.21587e-15
1.63181e-15
1.25595e-15
9.97666e-16
8.11276e-16
6.72507e-16
5.67581e-16
4.87652e-16
4.2633e-16
3.79295e-16
3.43344e-16
3.15649e-16
2.94321e-16
2.77852e-16
2.65063e-16
2.55349e-16
2.48026e-16
2.41679e-16
2.37185e-16
2.3358e-16
2.31115e-16
2.31011e-16
2.32226e-16
2.40957e-16
3.04442e-16
5.87765e-16
2.19901e-15
9.94367e-15
4.85044e-14
1.77377e-13
6.41984e-13
1.55292e-12
7.95967e-12
7.89649e-12
1.60212e-11
1.56827e-11
1.84144e-06
7.26754e-06
1.36626e-05
1.85674e-05
2.24658e-05
2.81866e-05
3.51288e-05
4.29918e-05
5.16981e-05
6.09973e-05
7.09766e-05
8.14143e-05
9.21464e-05
0.000102436
0.000111932
0.000120829
0.00012912
0.000136251
0.0001408
0.000151444
0.000169837
0.000199579
0.000250247
0.000296266
0.000332323
0.000359878
0.000374697
0.000388173
0.000398947
0.000403034
0.000409299
0.000417966
0.000431552
0.000447347
0.000469304
0.0004998
0.000543352
0.000594147
0.000657156
0.000742735
0.000859466
0.000983379
0.00106606
0.00112426
0.00115354
0.00116099
0.00114412
0.000977033
0.000820217
0.000755893
0.000644657
0.000521342
0.000470305
0.000418538
0.000392724
0.000371998
0.000353816
0.000340362
0.000319557
0.000291056
0.000257825
0.000223098
0.000194539
0.000172967
0.000155639
0.000140366
0.000126498
0.000113703
0.000101354
8.9463e-05
7.7875e-05
6.76623e-05
5.95415e-05
5.29886e-05
4.75543e-05
4.22833e-05
3.56899e-05
2.78266e-05
2.0341e-05
1.47028e-05
1.05558e-05
7.63514e-06
5.63409e-06
4.28112e-06
3.3466e-06
2.6736e-06
2.17792e-06
1.83622e-06
1.63131e-06
1.51555e-06
1.41794e-06
1.29997e-06
1.16313e-06
1.02207e-06
8.8407e-07
7.53928e-07
6.34748e-07
5.28193e-07
4.34842e-07
3.54478e-07
2.86333e-07
2.29311e-07
1.8215e-07
1.4355e-07
1.12259e-07
8.71173e-08
6.7087e-08
5.12602e-08
3.88566e-08
2.92153e-08
2.17832e-08
1.61026e-08
1.17986e-08
8.56652e-09
6.1618e-09
4.38953e-09
3.09606e-09
2.16148e-09
1.49315e-09
1.02027e-09
6.89343e-10
4.60349e-10
3.03731e-10
1.979e-10
1.27273e-10
8.07478e-11
5.05088e-11
3.11289e-11
1.88891e-11
1.12765e-11
6.61761e-12
3.8143e-12
2.15743e-12
1.19645e-12
6.5004e-13
3.45775e-13
1.79989e-13
9.16763e-14
4.57194e-14
2.23705e-14
1.07928e-14
5.18829e-15
2.53727e-15
1.30898e-15
7.48587e-16
4.9411e-16
3.7686e-16
3.20289e-16
2.90538e-16
2.72997e-16
2.61313e-16
2.52959e-16
2.46494e-16
2.41439e-16
2.37552e-16
2.34202e-16
2.31893e-16
2.2965e-16
2.28091e-16
2.27071e-16
2.25463e-16
2.2532e-16
2.32322e-16
2.55408e-16
3.11948e-16
4.37651e-16
7.23593e-16
1.38629e-15
3.03021e-15
7.10473e-15
1.78217e-14
4.4464e-14
1.14999e-13
2.74496e-13
7.9638e-13
1.4419e-12
4.98659e-12
5.26845e-12
5.96481e-12
7.89467e-12
1.35036e-06
5.09991e-06
9.5049e-06
1.34607e-05
1.69406e-05
2.22696e-05
2.92349e-05
3.74031e-05
4.66372e-05
5.68762e-05
6.85884e-05
8.08957e-05
9.35708e-05
0.000107343
0.000121958
0.000132808
0.000142629
0.000152607
0.000169304
0.000202928
0.000247063
0.000297975
0.000338779
0.000363719
0.000387938
0.00040263
0.000408596
0.000416739
0.00043123
0.000447189
0.000466424
0.000492124
0.000531518
0.000591327
0.000682971
0.000822264
0.00102591
0.00128919
0.00161916
0.00204456
0.00259072
0.00314619
0.00346688
0.00364105
0.0037037
0.00354175
0.00341419
0.00276251
0.00219036
0.0019346
0.00153578
0.00109906
0.000882294
0.000620857
0.000488988
0.000410859
0.00035406
0.000319653
0.000297825
0.000280936
0.000260305
0.000230201
0.000195878
0.000169307
0.000149106
0.000135624
0.000125352
0.000114408
0.000103407
9.29219e-05
8.32294e-05
7.36858e-05
6.43284e-05
5.67807e-05
5.12512e-05
4.70005e-05
4.36123e-05
4.00979e-05
3.47703e-05
2.70189e-05
1.92081e-05
1.32913e-05
9.01312e-06
6.08559e-06
4.16725e-06
2.94399e-06
2.16677e-06
1.654e-06
1.2971e-06
1.04581e-06
8.88954e-07
8.05105e-07
7.60922e-07
7.1899e-07
6.63989e-07
5.96684e-07
5.2489e-07
4.53047e-07
3.84367e-07
3.21051e-07
2.64397e-07
2.1496e-07
1.72732e-07
1.37311e-07
1.08066e-07
8.42485e-08
6.50883e-08
4.98445e-08
3.78409e-08
2.84804e-08
2.12494e-08
1.5715e-08
1.1518e-08
8.36483e-09
6.01801e-09
4.28807e-09
3.0253e-09
2.11276e-09
1.46007e-09
9.98149e-10
6.74779e-10
4.50927e-10
2.97748e-10
1.94176e-10
1.25006e-10
7.94017e-11
4.97318e-11
3.0695e-11
1.86562e-11
1.11576e-11
6.56078e-12
3.7897e-12
2.14847e-12
1.19438e-12
6.50525e-13
3.46851e-13
1.80918e-13
9.22754e-14
4.60227e-14
2.24671e-14
1.07649e-14
5.09692e-15
2.42171e-15
1.19156e-15
6.40485e-16
3.99885e-16
2.97379e-16
2.54606e-16
2.36993e-16
2.29723e-16
2.26603e-16
2.25161e-16
2.2437e-16
2.23872e-16
2.23526e-16
2.23223e-16
2.23027e-16
2.22817e-16
2.22671e-16
2.22579e-16
2.22413e-16
2.22394e-16
2.26086e-16
2.42844e-16
2.8839e-16
3.92042e-16
6.26751e-16
1.15686e-15
2.43931e-15
5.50794e-15
1.33278e-14
3.18436e-14
7.83772e-14
1.76563e-13
5.21543e-13
8.22076e-13
1.90679e-12
2.18661e-12
2.38563e-12
3.02443e-12
1.04651e-06
3.66976e-06
6.69988e-06
9.88282e-06
1.30606e-05
1.80991e-05
2.5085e-05
3.37775e-05
4.40913e-05
5.57885e-05
6.89093e-05
8.29934e-05
9.99083e-05
0.000122841
0.000145966
0.000163072
0.000175602
0.000188457
0.000215664
0.000255896
0.000308916
0.000359736
0.000393692
0.000420181
0.000436193
0.000445674
0.000455458
0.000471981
0.00049718
0.000532406
0.000583324
0.000657116
0.000779139
0.000972644
0.00127502
0.00174511
0.00244129
0.00337434
0.00453746
0.00596958
0.00766942
0.00919398
0.00996306
0.0102854
0.0102416
0.00947771
0.00849199
0.00660938
0.00528381
0.00446162
0.00338216
0.00263769
0.00215902
0.00152771
0.000977395
0.000688716
0.000511374
0.000391418
0.000315237
0.000273886
0.000255144
0.000234598
0.000202228
0.000170641
0.000145584
0.000126592
0.000113509
0.000106564
0.000100223
9.24474e-05
8.41639e-05
7.61466e-05
6.86138e-05
6.08093e-05
5.3657e-05
4.8565e-05
4.50039e-05
4.24653e-05
4.04384e-05
3.77805e-05
3.27654e-05
2.49352e-05
1.71769e-05
1.13909e-05
7.32774e-06
4.65724e-06
2.98757e-06
1.97729e-06
1.37114e-06
9.98902e-07
7.54844e-07
5.86875e-07
4.77835e-07
4.16506e-07
3.8665e-07
3.69853e-07
3.50828e-07
3.24151e-07
2.91317e-07
2.55554e-07
2.1926e-07
1.84374e-07
1.52255e-07
1.237e-07
9.90375e-08
7.82452e-08
6.10713e-08
4.71333e-08
3.59935e-08
2.72105e-08
2.03705e-08
1.51042e-08
1.1093e-08
8.06943e-09
5.81356e-09
4.14744e-09
2.92935e-09
2.04793e-09
1.41674e-09
9.69555e-10
6.56165e-10
4.3899e-10
2.90219e-10
1.89512e-10
1.22176e-10
7.77228e-11
4.87616e-11
3.01511e-11
1.83624e-11
1.10061e-11
6.48733e-12
3.7572e-12
2.13622e-12
1.19131e-12
6.51086e-13
3.4844e-13
1.82472e-13
9.34622e-14
4.6816e-14
2.29496e-14
1.10375e-14
5.24113e-15
2.49268e-15
1.2233e-15
6.52448e-16
4.0248e-16
2.9585e-16
2.51548e-16
2.3362e-16
2.26547e-16
2.23819e-16
2.22787e-16
2.22395e-16
2.22243e-16
2.22179e-16
2.22144e-16
2.22126e-16
2.22109e-16
2.22098e-16
2.22091e-16
2.22077e-16
2.22076e-16
2.22405e-16
2.31705e-16
2.62755e-16
3.36487e-16
5.03139e-16
8.69327e-16
1.72443e-15
3.68394e-15
8.44911e-15
1.9111e-14
4.64005e-14
9.32933e-14
1.87152e-13
3.85044e-13
4.33127e-13
5.45838e-13
6.35811e-13
9.10978e-13
8.6221e-07
2.75478e-06
4.88677e-06
7.42772e-06
1.02912e-05
1.4785e-05
2.13151e-05
2.9915e-05
4.10794e-05
5.54027e-05
7.35136e-05
9.54198e-05
0.000117588
0.00013647
0.000152934
0.000174772
0.000197811
0.000227176
0.000267453
0.000310072
0.000355015
0.000392873
0.000412669
0.000437175
0.000457243
0.000469813
0.000490392
0.000525015
0.000579862
0.000661411
0.00079336
0.000995881
0.00131531
0.00182737
0.00263687
0.00395567
0.00572559
0.00808552
0.0111431
0.014712
0.0185422
0.0216888
0.0233738
0.0240925
0.0233677
0.0210242
0.0165955
0.0124019
0.00941121
0.00666631
0.00484474
0.00386001
0.00304633
0.00254722
0.00204845
0.00139938
0.000956111
0.000675527
0.000477594
0.000343955
0.000271732
0.000241889
0.000217816
0.000182433
0.000150518
0.000126791
0.00010974
9.75907e-05
9.12336e-05
8.70541e-05
8.1893e-05
7.5783e-05
6.93249e-05
6.31951e-05
5.69449e-05
5.06517e-05
4.59101e-05
4.27525e-05
4.07806e-05
3.94587e-05
3.81055e-05
3.5611e-05
2.99858e-05
2.16537e-05
1.42766e-05
8.99965e-06
5.48996e-06
3.30123e-06
2.00223e-06
1.25564e-06
8.29346e-07
5.80319e-07
4.2462e-07
3.21558e-07
2.5516e-07
2.1584e-07
1.94093e-07
1.83254e-07
1.76147e-07
1.67146e-07
1.53989e-07
1.37594e-07
1.19627e-07
1.01449e-07
8.41298e-08
6.83841e-08
5.4598e-08
4.28952e-08
3.32138e-08
2.53777e-08
1.91532e-08
1.42894e-08
1.05439e-08
7.69769e-09
5.5614e-09
3.97657e-09
2.81402e-09
1.97058e-09
1.36533e-09
9.3574e-10
6.342e-10
4.24922e-10
2.81349e-10
1.84017e-10
1.18837e-10
7.57376e-11
4.76106e-11
2.95031e-11
1.80102e-11
1.08229e-11
6.39747e-12
3.71665e-12
2.12033e-12
1.18683e-12
6.5124e-13
3.50038e-13
1.84167e-13
9.4802e-14
4.77412e-14
2.35363e-14
1.13859e-14
5.43695e-15
2.59751e-15
1.27685e-15
6.78439e-16
4.14402e-16
3.01027e-16
2.53647e-16
2.34375e-16
2.26741e-16
2.23793e-16
2.22683e-16
2.22275e-16
2.22129e-16
2.22077e-16
2.22059e-16
2.22053e-16
2.2205e-16
2.22049e-16
2.22048e-16
2.22047e-16
2.22047e-16
2.22066e-16
2.24332e-16
2.39911e-16
2.83561e-16
3.86609e-16
6.09457e-16
1.10797e-15
2.18918e-15
4.64381e-15
9.70938e-15
2.41741e-14
4.00574e-14
8.19866e-14
1.01784e-13
1.14443e-13
1.42397e-13
1.64941e-13
2.41378e-13
7.52313e-07
2.23268e-06
3.72667e-06
5.6496e-06
8.09362e-06
1.20415e-05
1.81439e-05
2.6634e-05
3.81705e-05
5.39115e-05
7.46682e-05
0.000101341
0.000129311
0.000152853
0.000168322
0.000182958
0.000206336
0.000239068
0.000290105
0.00034696
0.00039599
0.000433171
0.000451228
0.00046505
0.000491838
0.000518449
0.000580199
0.000679678
0.000818209
0.00103056
0.0013676
0.00191187
0.00281939
0.00408049
0.00558597
0.00773471
0.0113467
0.0171028
0.0243194
0.033062
0.0431863
0.0527766
0.0574971
0.0592075
0.0557721
0.0492729
0.0387778
0.0281936
0.0187157
0.0111894
0.00699757
0.00451306
0.00329583
0.00270145
0.00241408
0.00203229
0.00158237
0.00114241
0.000796273
0.000546943
0.000377309
0.000282351
0.00024229
0.000203894
0.00016448
0.000132844
0.000110788
9.60758e-05
8.60276e-05
8.09535e-05
7.76243e-05
7.35512e-05
6.86221e-05
6.33154e-05
5.821e-05
5.30335e-05
4.76215e-05
4.32821e-05
4.04449e-05
3.89658e-05
3.83075e-05
3.75164e-05
3.62039e-05
3.31661e-05
2.57883e-05
1.72091e-05
1.07795e-05
6.43601e-06
3.71937e-06
2.1218e-06
1.22495e-06
7.35671e-07
4.68432e-07
3.18708e-07
2.28331e-07
1.6987e-07
1.32829e-07
1.09685e-07
9.51337e-08
8.68722e-08
8.29541e-08
8.01212e-08
7.58789e-08
6.94369e-08
6.14523e-08
5.27738e-08
4.41043e-08
3.59732e-08
2.87119e-08
2.24769e-08
1.72925e-08
1.30963e-08
9.77671e-09
7.20193e-09
5.23924e-09
3.76622e-09
2.67629e-09
1.88039e-09
1.30644e-09
8.9751e-10
6.09591e-10
4.09254e-10
2.71505e-10
1.77927e-10
1.15136e-10
7.35337e-11
4.63284e-11
2.87782e-11
1.76152e-11
1.06176e-11
6.29721e-12
3.67201e-12
2.10344e-12
1.18266e-12
6.52149e-13