/*--------------------------------*- C++ -*----------------------------------*\
  =========                 |
  \\      /  F ield         | OpenFOAM: The Open Source CFD Toolbox
   \\    /   O peration     | Website:  https://openfoam.org
    \\  /    A nd           | Version:  7
     \\/     M anipulation  |
\*---------------------------------------------------------------------------*/
FoamFile
{
    version     2.0;
    format      ascii;
    class       surfaceScalarField;
    location    "0.026";
    object      phi_0;
}
// * * * * * * * * * * * * * * * * * * * * * * * * * * * * * * * * * * * * * //

dimensions      [0 3 -1 0 0 0 0];

internalField   nonuniform List<scalar> 
24170
(
1.38002e-06
2.1045e-07
1.24825e-06
1.31772e-07
1.13068e-06
1.17575e-07
1.01845e-06
1.12225e-07
9.02958e-07
1.15495e-07
7.91937e-07
1.11021e-07
6.93939e-07
9.79983e-08
6.10138e-07
8.38005e-08
5.38131e-07
7.20076e-08
4.76158e-07
6.19725e-08
4.23437e-07
5.27214e-08
3.79241e-07
4.4196e-08
3.42926e-07
3.63151e-08
3.1397e-07
2.89562e-08
2.9089e-07
2.30792e-08
2.7321e-07
1.76801e-08
2.55717e-07
1.7493e-08
1.45549e-08
2.41162e-07
1.65664e-06
2.25509e-07
1.64157e-06
1.46839e-07
1.62356e-06
1.35582e-07
1.5964e-06
1.39384e-07
1.5574e-06
1.54501e-07
1.5086e-06
1.59817e-07
1.45603e-06
1.5057e-07
1.40472e-06
1.35112e-07
1.35696e-06
1.19768e-07
1.31251e-06
1.06423e-07
1.2701e-06
9.51324e-08
1.22897e-06
8.5325e-08
1.18956e-06
7.57177e-08
1.15334e-06
6.51839e-08
1.12076e-06
5.56574e-08
1.09151e-06
4.69277e-08
1.06536e-06
4.36449e-08
3.96537e-08
1.04026e-06
1.75872e-06
2.6748e-07
1.74983e-06
1.55729e-07
1.75229e-06
1.33117e-07
1.75289e-06
1.38781e-07
1.75163e-06
1.55765e-07
1.74267e-06
1.68782e-07
1.7245e-06
1.68739e-07
1.70226e-06
1.57353e-07
1.68188e-06
1.4014e-07
1.66592e-06
1.22387e-07
1.65329e-06
1.07764e-07
1.64175e-06
9.68616e-08
1.62934e-06
8.8133e-08
1.61563e-06
7.88864e-08
1.60118e-06
7.01095e-08
1.58625e-06
6.18633e-08
1.57253e-06
5.73575e-08
5.4401e-08
1.55779e-06
1.91441e-06
2.92213e-07
1.89408e-06
1.76061e-07
1.88085e-06
1.46347e-07
1.87629e-06
1.43347e-07
1.87657e-06
1.55477e-07
1.87491e-06
1.70446e-07
1.86884e-06
1.74811e-07
1.86065e-06
1.65539e-07
1.85342e-06
1.47377e-07
1.84883e-06
1.26972e-07
1.84713e-06
1.09462e-07
1.84769e-06
9.63064e-08
1.84914e-06
8.66844e-08
1.84971e-06
7.83156e-08
1.84828e-06
7.15406e-08
1.84394e-06
6.6202e-08
1.83753e-06
6.3765e-08
6.32104e-08
1.82872e-06
2.06726e-06
3.0965e-07
2.04068e-06
2.02637e-07
2.02049e-06
1.66537e-07
2.0092e-06
1.5464e-07
2.00636e-06
1.58317e-07
2.00776e-06
1.69042e-07
2.00714e-06
1.75436e-07
2.00211e-06
1.70562e-07
1.99456e-06
1.54934e-07
1.98769e-06
1.33835e-07
1.98389e-06
1.13263e-07
1.98375e-06
9.6445e-08
1.98633e-06
8.41096e-08
1.98953e-06
7.51138e-08
1.99199e-06
6.90844e-08
1.99263e-06
6.55592e-08
1.99193e-06
6.44658e-08
6.49445e-08
1.99019e-06
2.2533e-06
3.37145e-07
2.21305e-06
2.42882e-07
2.16927e-06
2.10319e-07
2.14357e-06
1.80344e-07
2.14034e-06
1.61546e-07
2.14813e-06
1.61245e-07
2.15427e-06
1.69301e-07
2.15452e-06
1.70311e-07
2.15189e-06
1.57566e-07
2.15055e-06
1.35171e-07
2.15223e-06
1.11579e-07
2.15593e-06
9.27487e-08
2.15957e-06
8.04736e-08
2.16117e-06
7.35077e-08
2.16031e-06
6.99506e-08
2.15738e-06
6.84864e-08
2.15379e-06
6.80549e-08
6.82384e-08
2.1505e-06
2.33545e-06
3.62743e-07
2.3187e-06
2.5963e-07
2.32745e-06
2.0157e-07
2.33362e-06
1.74181e-07
2.3308e-06
1.64358e-07
2.3236e-06
1.68448e-07
2.31575e-06
1.77156e-07
2.30902e-06
1.77036e-07
2.30439e-06
1.62196e-07
2.30259e-06
1.36972e-07
2.30399e-06
1.10183e-07
2.30791e-06
8.88223e-08
2.31278e-06
7.561e-08
2.31658e-06
6.97036e-08
2.31813e-06
6.83995e-08
2.31733e-06
6.92875e-08
2.31497e-06
7.04202e-08
7.09669e-08
2.31224e-06
2.56431e-06
3.43101e-07
2.5416e-06
2.82344e-07
2.53235e-06
2.10821e-07
2.52642e-06
1.8011e-07
2.52183e-06
1.68945e-07
2.52025e-06
1.70027e-07
2.51902e-06
1.78383e-07
2.51423e-06
1.81835e-07
2.50466e-06
1.71764e-07
2.4925e-06
1.49133e-07
2.48124e-06
1.21436e-07
2.47349e-06
9.65796e-08
2.47014e-06
7.8961e-08
2.47079e-06
6.90494e-08
2.47433e-06
6.48604e-08
2.47966e-06
6.39607e-08
2.48581e-06
6.4267e-08
6.50884e-08
2.49169e-06
2.73028e-06
3.67285e-07
2.7285e-06
2.84121e-07
2.70593e-06
2.33397e-07
2.68808e-06
1.97961e-07
2.68437e-06
1.72647e-07
2.68922e-06
1.65183e-07
2.69698e-06
1.70618e-07
2.7058e-06
1.73018e-07
2.71472e-06
1.62845e-07
2.72141e-06
1.42438e-07
2.72298e-06
1.19874e-07
2.71822e-06
1.01331e-07
2.70876e-06
8.84231e-08
2.69808e-06
7.97281e-08
2.68962e-06
7.33246e-08
2.68516e-06
6.84235e-08
2.68487e-06
6.45491e-08
6.27409e-08
2.68722e-06
2.95304e-06
4.21181e-07
2.94639e-06
2.9077e-07
2.94286e-06
2.36928e-07
2.93097e-06
2.0985e-07
2.91739e-06
1.86229e-07
2.91088e-06
1.71694e-07
2.91423e-06
1.67272e-07
2.92247e-06
1.64778e-07
2.92857e-06
1.56739e-07
2.92893e-06
1.42076e-07
2.92433e-06
1.24479e-07
2.91781e-06
1.07845e-07
2.9122e-06
9.40377e-08
2.90882e-06
8.31123e-08
2.90775e-06
7.43873e-08
2.9084e-06
6.77739e-08
2.91016e-06
6.27892e-08
6.01705e-08
2.91273e-06
3.19147e-06
4.86951e-07
3.15613e-06
3.26111e-07
3.13919e-06
2.53875e-07
3.13312e-06
2.15916e-07
3.12884e-06
1.90507e-07
3.1234e-06
1.77131e-07
3.11867e-06
1.72002e-07
3.11601e-06
1.6744e-07
3.11532e-06
1.57429e-07
3.11659e-06
1.4081e-07
3.12017e-06
1.20896e-07
3.12592e-06
1.02093e-07
3.13285e-06
8.71141e-08
3.13943e-06
7.65304e-08
3.14438e-06
6.94314e-08
3.14739e-06
6.47638e-08
3.14854e-06
6.1649e-08
5.98807e-08
3.14882e-06
2.86448e-06
4.79878e-07
2.86698e-06
3.2361e-07
2.8516e-06
2.69254e-07
2.8343e-06
2.33215e-07
2.82514e-06
1.99665e-07
2.82674e-06
1.75533e-07
2.83548e-06
1.63264e-07
2.84624e-06
1.56677e-07
2.85572e-06
1.47951e-07
2.86221e-06
1.34319e-07
2.86506e-06
1.18046e-07
2.86457e-06
1.02584e-07
2.86201e-06
8.96698e-08
2.85913e-06
7.94157e-08
2.85728e-06
7.12731e-08
2.8571e-06
6.49479e-08
2.85834e-06
6.0412e-08
5.82793e-08
2.85994e-06
3.49271e-06
3.6478e-07
3.52316e-06
2.93155e-07
3.51232e-06
2.80097e-07
3.49111e-06
2.54424e-07
3.4738e-06
2.1697e-07
3.46322e-06
1.86113e-07
3.45926e-06
1.67231e-07
3.46199e-06
1.53941e-07
3.47001e-06
1.39934e-07
3.47945e-06
1.24873e-07
3.48591e-06
1.11587e-07
3.48681e-06
1.01683e-07
3.48243e-06
9.40492e-08
3.47523e-06
8.66226e-08
3.46836e-06
7.81389e-08
3.46377e-06
6.95399e-08
3.46249e-06
6.16927e-08
5.73544e-08
3.46341e-06
4.26389e-06
3.83603e-07
4.27381e-06
2.83237e-07
4.28673e-06
2.67178e-07
4.28781e-06
2.53342e-07
4.27611e-06
2.2867e-07
4.2598e-06
2.02422e-07
4.25189e-06
1.7514e-07
4.25789e-06
1.47939e-07
4.27211e-06
1.25715e-07
4.28362e-06
1.13366e-07
4.28413e-06
1.11069e-07
4.2725e-06
1.13316e-07
4.25364e-06
1.12914e-07
4.23458e-06
1.05682e-07
4.221e-06
9.17164e-08
4.21543e-06
7.51108e-08
4.21795e-06
5.91683e-08
4.87493e-08
4.22656e-06
5.24872e-06
5.3289e-07
5.19336e-06
3.38602e-07
5.17293e-06
2.87606e-07
5.1792e-06
2.47072e-07
5.20095e-06
2.06919e-07
5.22287e-06
1.80502e-07
5.2374e-06
1.60611e-07
5.24379e-06
1.41553e-07
5.24334e-06
1.26163e-07
5.23753e-06
1.1917e-07
5.22858e-06
1.20024e-07
5.21939e-06
1.22502e-07
5.2128e-06
1.19505e-07
5.21033e-06
1.0816e-07
5.21165e-06
9.03962e-08
5.21561e-06
7.11432e-08
5.22022e-06
5.45616e-08
4.38752e-08
5.22509e-06
6.2967e-06
4.23194e-07
6.29604e-06
3.39262e-07
6.32975e-06
2.53901e-07
6.37063e-06
2.06189e-07
6.38796e-06
1.8959e-07
6.38484e-06
1.83623e-07
6.37419e-06
1.71267e-07
6.36473e-06
1.51013e-07
6.35886e-06
1.32034e-07
6.3575e-06
1.20524e-07
6.36262e-06
1.14904e-07
6.37553e-06
1.0959e-07
6.39498e-06
1.00061e-07
6.41717e-06
8.59668e-08
6.4374e-06
7.01674e-08
6.45215e-06
5.63946e-08
6.45982e-06
4.68876e-08
4.26708e-08
6.46102e-06
7.63421e-06
4.62086e-07
7.69938e-06
2.74095e-07
7.75187e-06
2.01408e-07
7.78103e-06
1.77034e-07
7.79307e-06
1.77547e-07
7.79651e-06
1.80178e-07
7.79717e-06
1.70607e-07
7.79839e-06
1.49801e-07
7.80204e-06
1.28381e-07
7.80846e-06
1.14109e-07
7.81634e-06
1.07022e-07
7.82361e-06
1.02313e-07
7.82838e-06
9.52913e-08
7.83016e-06
8.41939e-08
7.8304e-06
6.99238e-08
7.83136e-06
5.54343e-08
7.83575e-06
4.24954e-08
3.36812e-08
7.84474e-06
9.52711e-06
3.40883e-07
9.48784e-06
3.13366e-07
9.43284e-06
2.56403e-07
9.41052e-06
1.99355e-07
9.42188e-06
1.66189e-07
9.44684e-06
1.5522e-07
9.46935e-06
1.48093e-07
9.48721e-06
1.31947e-07
9.50623e-06
1.09353e-07
9.52953e-06
9.0812e-08
9.55456e-06
8.19932e-08
9.57626e-06
8.06098e-08
9.59097e-06
8.05839e-08
9.59839e-06
7.67715e-08
9.60142e-06
6.68919e-08
9.6041e-06
5.27594e-08
9.6099e-06
3.66902e-08
2.30699e-08
9.62051e-06
1.15455e-05
3.13794e-07
1.15804e-05
2.78475e-07
1.16082e-05
2.28573e-07
1.16169e-05
1.90632e-07
1.1609e-05
1.74141e-07
1.16029e-05
1.61265e-07
1.16106e-05
1.40452e-07
1.16299e-05
1.12556e-07
1.16544e-05
8.48591e-08
1.16819e-05
6.33332e-08
1.17134e-05
5.0485e-08
1.17494e-05
4.4674e-08
1.17877e-05
4.22343e-08
1.18245e-05
3.99618e-08
1.18554e-05
3.60444e-08
1.18775e-05
3.06322e-08
1.18895e-05
2.46872e-08
1.95353e-08
1.1893e-05
8.45381e-06
3.74868e-07
8.4521e-06
2.80186e-07
8.44809e-06
2.32585e-07
8.44716e-06
1.91562e-07
8.45959e-06
1.61707e-07
8.4836e-06
1.37251e-07
8.51048e-06
1.1357e-07
8.5339e-06
8.91374e-08
8.55469e-06
6.40762e-08
8.57754e-06
4.04825e-08
8.6072e-06
2.08174e-08
8.64502e-06
6.8607e-09
8.68846e-06
-1.21021e-09
8.73178e-06
-3.36143e-09
8.76964e-06
-1.81532e-09
8.79822e-06
2.05297e-09
8.81596e-06
6.95333e-09
1.15079e-08
8.82399e-06
7.42609e-06
3.58102e-07
7.41781e-06
2.88462e-07
7.40132e-06
2.49079e-07
7.41789e-06
1.74993e-07
7.45269e-06
1.26909e-07
7.48411e-06
1.05829e-07
7.50788e-06
8.97981e-08
7.52839e-06
6.86273e-08
7.54961e-06
4.28625e-08
7.57163e-06
1.84568e-08
7.59222e-06
2.25028e-10
7.61201e-06
-1.29304e-08
7.62953e-06
-1.87227e-08
7.64573e-06
-1.95608e-08
7.6613e-06
-1.73875e-08
7.67705e-06
-1.36993e-08
7.69358e-06
-9.57339e-09
-5.59451e-09
7.71068e-06
6.42969e-06
3.63521e-07
6.48265e-06
2.35501e-07
6.54839e-06
1.83342e-07
6.60104e-06
1.22338e-07
6.64258e-06
8.5375e-08
6.67247e-06
7.5934e-08
6.69185e-06
7.04241e-08
6.70578e-06
5.46905e-08
6.71811e-06
3.05336e-08
6.73063e-06
5.93899e-09
6.74189e-06
-1.10328e-08
6.7493e-06
-2.03463e-08
6.75406e-06
-2.34754e-08
6.75741e-06
-2.2917e-08
6.761e-06
-2.09782e-08
6.76613e-06
-1.88222e-08
6.7734e-06
-1.68506e-08
-1.46502e-08
6.78246e-06
5.64303e-06
4.08296e-07
5.66662e-06
2.11911e-07
5.7243e-06
1.25656e-07
5.76483e-06
8.18077e-08
5.79499e-06
5.52157e-08
5.82796e-06
4.29656e-08
5.86144e-06
3.69458e-08
5.88594e-06
3.01859e-08
5.8959e-06
2.05733e-08
5.89182e-06
1.00243e-08
5.87977e-06
1.01735e-09
5.8662e-06
-6.77728e-09
5.85561e-06
-1.28888e-08
5.85126e-06
-1.85635e-08
5.85429e-06
-2.40051e-08
5.86381e-06
-2.83453e-08
5.87782e-06
-3.08598e-08
-3.03114e-08
5.89348e-06
5.01136e-06
4.46378e-07
4.9644e-06
2.58875e-07
4.97053e-06
1.19521e-07
4.9891e-06
6.32404e-08
5.01125e-06
3.30655e-08
5.04153e-06
1.26874e-08
5.07788e-06
5.98094e-10
5.11304e-06
-4.97707e-09
5.14042e-06
-6.80553e-09
5.15798e-06
-7.53101e-09
5.16757e-06
-8.58111e-09
5.17229e-06
-1.14885e-08
5.17604e-06
-1.66413e-08
5.18045e-06
-2.29735e-08
5.18536e-06
-2.89164e-08
5.19008e-06
-3.30656e-08
5.19387e-06
-3.46521e-08
-3.33671e-08
5.19693e-06
4.31494e-06
4.36345e-07
4.3848e-06
1.89013e-07
4.42495e-06
7.93769e-08
4.43874e-06
4.9443e-08
4.43716e-06
3.46463e-08
4.43152e-06
1.83291e-08
4.42935e-06
2.7692e-09
4.43504e-06
-1.06669e-08
4.44786e-06
-1.96258e-08
4.46597e-06
-2.5642e-08
4.48803e-06
-3.06439e-08
4.51187e-06
-3.53207e-08
4.5346e-06
-3.93774e-08
4.55334e-06
-4.17149e-08
4.56574e-06
-4.13082e-08
4.57099e-06
-3.83193e-08
4.56992e-06
-3.35842e-08
-2.89104e-08
4.56546e-06
3.81454e-06
3.22343e-07
3.85337e-06
1.5018e-07
3.8809e-06
5.18476e-08
3.89747e-06
3.28732e-08
3.90854e-06
2.35821e-08
3.91839e-06
8.47369e-09
3.92947e-06
-8.30658e-09
3.9406e-06
-2.18019e-08
3.95049e-06
-2.9512e-08
3.95722e-06
-3.23764e-08
3.96052e-06
-3.39353e-08
3.96183e-06
-3.66391e-08
3.96324e-06
-4.07823e-08
3.96637e-06
-4.48457e-08
3.97191e-06
-4.68462e-08
3.97971e-06
-4.61214e-08
3.98921e-06
-4.308e-08
-3.92893e-08
3.99958e-06
3.26674e-06
2.32521e-07
3.33193e-06
8.49912e-08
3.36531e-06
1.84728e-08
3.40336e-06
-5.17491e-09
3.43641e-06
-9.47096e-09
3.45539e-06
-1.05099e-08
3.46312e-06
-1.60338e-08
3.46695e-06
-2.56295e-08
3.47353e-06
-3.60946e-08
3.48522e-06
-4.40656e-08
3.50007e-06
-4.87892e-08
3.51454e-06
-5.11065e-08
3.52577e-06
-5.20083e-08
3.53269e-06
-5.17733e-08
3.53592e-06
-5.00696e-08
3.53691e-06
-4.71156e-08
3.53712e-06
-4.32893e-08
-4.00467e-08
3.53788e-06
2.87568e-06
1.74411e-07
2.96099e-06
-3.20593e-10
2.98625e-06
-6.78406e-09
3.00481e-06
-2.3736e-08
3.03077e-06
-3.54356e-08
3.05956e-06
-3.92936e-08
3.08431e-06
-4.07863e-08
3.102e-06
-4.33204e-08
3.11379e-06
-4.78802e-08
3.12299e-06
-5.32741e-08
3.13118e-06
-5.69766e-08
3.13738e-06
-5.73001e-08
3.13972e-06
-5.43521e-08
3.13732e-06
-4.93704e-08
3.13114e-06
-4.38887e-08
3.12336e-06
-3.93373e-08
3.11648e-06
-3.64148e-08
-3.59237e-08
3.11236e-06
2.53384e-06
4.6648e-08
2.58389e-06
-5.03718e-08
2.60666e-06
-2.95597e-08
2.62346e-06
-4.05369e-08
2.63622e-06
-4.81942e-08
2.64841e-06
-5.14756e-08
2.66119e-06
-5.35751e-08
2.67204e-06
-5.41664e-08
2.67746e-06
-5.33026e-08
2.67588e-06
-5.16891e-08
2.66846e-06
-4.95598e-08
2.65825e-06
-4.7092e-08
2.64847e-06
-4.45705e-08
2.64115e-06
-4.20448e-08
2.63667e-06
-3.94099e-08
2.63409e-06
-3.67606e-08
2.63199e-06
-3.43179e-08
-3.29795e-08
2.62905e-06
2.19901e-06
2.14864e-06
2.11908e-06
2.07855e-06
2.03035e-06
1.97888e-06
1.9253e-06
1.87113e-06
1.81783e-06
1.76614e-06
1.71658e-06
1.66949e-06
1.62492e-06
1.58288e-06
1.54347e-06
1.50671e-06
1.47239e-06
1.43941e-06
4.38112e-08
-4.38112e-08
9.28168e-08
-4.90056e-08
1.39448e-07
-4.66309e-08
1.82373e-07
-4.29257e-08
2.21066e-07
-3.86932e-08
2.55114e-07
-3.40476e-08
2.83999e-07
-2.88852e-08
3.07118e-07
-2.31189e-08
3.23775e-07
-1.66565e-08
3.33271e-07
-9.49584e-09
3.34922e-07
-1.6515e-09
3.27369e-07
7.55352e-09
3.09584e-07
1.77844e-08
2.80431e-07
2.91533e-08
2.38555e-07
4.18754e-08
1.82467e-07
5.60887e-08
1.10813e-07
7.16539e-08
2.24924e-08
8.83206e-08
-8.33116e-08
1.05804e-07
-2.06498e-07
1.23186e-07
-3.46498e-07
1.40001e-07
-5.02177e-07
1.55678e-07
-6.7199e-07
1.69813e-07
-8.53704e-07
1.81714e-07
-1.04506e-06
1.91358e-07
-1.24383e-06
1.98771e-07
-1.44788e-06
2.04047e-07
-1.65523e-06
2.07347e-07
-1.86406e-06
2.0883e-07
-2.07267e-06
2.08609e-07
-2.27941e-06
2.06747e-07
-2.48267e-06
2.03254e-07
-2.68077e-06
1.98103e-07
-2.87202e-06
1.91245e-07
-3.05463e-06
1.82619e-07
-3.22677e-06
1.72133e-07
-3.38647e-06
1.59702e-07
-3.53175e-06
1.45276e-07
-3.66059e-06
1.28847e-07
-3.77105e-06
1.10456e-07
-3.86125e-06
9.02016e-08
-3.92961e-06
6.83613e-08
-3.97497e-06
4.53575e-08
-3.99651e-06
2.15415e-08
-3.99401e-06
-2.50266e-09
-3.96786e-06
-2.61484e-08
-3.91895e-06
-4.89091e-08
-3.84823e-06
-7.07222e-08
-3.75696e-06
-9.12706e-08
-3.64662e-06
-1.10334e-07
-3.51891e-06
-1.2771e-07
-3.37571e-06
-1.43206e-07
-3.21899e-06
-1.56718e-07
-3.0508e-06
-1.6819e-07
-2.87317e-06
-1.77625e-07
-2.6881e-06
-1.85077e-07
-2.49746e-06
-1.90641e-07
-2.30302e-06
-1.94435e-07
-2.10644e-06
-1.9658e-07
-1.90925e-06
-1.97196e-07
-1.71284e-06
-1.96404e-07
-1.51851e-06
-1.94333e-07
-1.32739e-06
-1.91116e-07
-1.14051e-06
-1.86882e-07
-9.58738e-07
-1.81773e-07
-7.82806e-07
-1.75932e-07
-6.1332e-07
-1.69487e-07
-4.50694e-07
-1.62625e-07
-2.95272e-07
-1.55422e-07
-1.47272e-07
-1.48e-07
-6.90713e-09
-1.40365e-07
1.26432e-07
-1.33339e-07
2.5238e-07
-1.25948e-07
3.71126e-07
-1.18746e-07
4.82882e-07
-1.11756e-07
5.87885e-07
-1.05003e-07
6.86393e-07
-9.85086e-08
7.78677e-07
-9.22838e-08
8.6501e-07
-8.63326e-08
9.45663e-07
-8.06532e-08
1.0209e-06
-7.524e-08
1.09099e-06
-7.00844e-08
1.15616e-06
-6.51765e-08
1.21667e-06
-6.05057e-08
1.27273e-06
-5.60615e-08
1.32456e-06
-5.1834e-08
1.37238e-06
-4.78143e-08
1.41637e-06
-4.39941e-08
1.45674e-06
-4.03667e-08
1.49367e-06
-3.69261e-08
1.52733e-06
-3.36677e-08
1.55792e-06
-3.05872e-08
1.5856e-06
-2.76813e-08
1.61055e-06
-2.49466e-08
1.63293e-06
-2.238e-08
1.65291e-06
-1.99783e-08
1.67065e-06
-1.77378e-08
1.6863e-06
-1.56547e-08
1.70002e-06
-1.37244e-08
1.71197e-06
-1.1942e-08
1.72227e-06
-1.03021e-08
1.73107e-06
-8.79817e-09
1.73849e-06
-7.42415e-09
1.74466e-06
-6.1723e-09
1.7497e-06
-5.03716e-09
1.75371e-06
-4.01244e-09
1.7568e-06
-3.08759e-09
1.75906e-06
-2.25828e-09
1.76057e-06
-1.51177e-09
1.76141e-06
-8.43459e-10
1.76166e-06
-2.48401e-10
1.76135e-06
3.07027e-10
1.76054e-06
8.19447e-10
1.75926e-06
1.2718e-09
1.7576e-06
1.66745e-09
1.75558e-06
2.01455e-09
1.75326e-06
2.31798e-09
1.75068e-06
2.58422e-09
1.74786e-06
2.82007e-09
1.74483e-06
3.02569e-09
1.74163e-06
3.20321e-09
1.73827e-06
3.36034e-09
1.73477e-06
3.503e-09
1.73114e-06
3.63082e-09
1.72739e-06
3.74526e-09
1.72354e-06
3.849e-09
1.7196e-06
3.94161e-09
1.71558e-06
4.02264e-09
1.71149e-06
4.09074e-09
1.70734e-06
4.14329e-09
1.70316e-06
4.17911e-09
1.69896e-06
4.20003e-09
1.69476e-06
4.20968e-09
1.69054e-06
4.21312e-09
1.68633e-06
4.21499e-09
1.68211e-06
4.21878e-09
1.67788e-06
4.2261e-09
1.67364e-06
4.23745e-09
1.66939e-06
4.25222e-09
1.66512e-06
4.2697e-09
1.66083e-06
4.28915e-09
1.65652e-06
4.31004e-09
1.65219e-06
4.33209e-09
1.64784e-06
4.35516e-09
1.64346e-06
4.37932e-09
1.63905e-06
4.40468e-09
1.63462e-06
4.43142e-09
1.63016e-06
4.45968e-09
1.62567e-06
4.48963e-09
1.62115e-06
4.52147e-09
1.61659e-06
4.55541e-09
1.612e-06
4.5919e-09
1.60737e-06
4.63132e-09
1.6027e-06
4.6743e-09
1.59798e-06
4.72145e-09
1.5932e-06
4.77385e-09
1.58837e-06
4.83241e-09
1.58347e-06
4.89887e-09
1.5785e-06
4.97489e-09
1.57343e-06
5.06289e-09
1.56827e-06
5.1666e-09
1.56298e-06
5.28826e-09
1.55754e-06
5.43736e-09
1.55193e-06
5.61204e-09
1.54609e-06
5.83873e-09
1.53999e-06
6.09678e-09
1.53353e-06
6.46397e-09
1.52668e-06
6.849e-09
1.51919e-06
7.48811e-09
1.51114e-06
8.05155e-09
1.50187e-06
9.26911e-09
1.49183e-06
1.00379e-08
1.47922e-06
1.26091e-08
1.46578e-06
1.34454e-08
1.44628e-06
1.95024e-08
1.42662e-06
1.9655e-08
1.39109e-06
3.55361e-08
1.35818e-06
3.29021e-08
1.27482e-06
8.3367e-08
7.83467e-08
1.19647e-06
-9.39587e-10
-4.28716e-08
-1.20036e-08
-3.79416e-08
-2.61384e-08
-3.2496e-08
-4.39028e-08
-2.51613e-08
-6.5728e-08
-1.6868e-08
-9.22379e-08
-7.53776e-09
-1.23899e-07
2.77601e-09
-1.60849e-07
1.38314e-08
-2.03893e-07
2.63866e-08
-2.53871e-07
4.04822e-08
-3.11771e-07
5.62489e-08
-3.78044e-07
7.38266e-08
-4.53544e-07
9.32842e-08
-5.38909e-07
1.14518e-07
-6.34348e-07
1.37314e-07
-7.39635e-07
1.61376e-07
-8.54312e-07
1.86331e-07
-9.77737e-07
2.11745e-07
-1.10906e-06
2.37131e-07
-1.24745e-06
2.61569e-07
-1.3916e-06
2.84157e-07
-1.54039e-06
3.04465e-07
-1.6927e-06
3.22119e-07
-1.84784e-06
3.36861e-07
-2.00509e-06
3.48602e-07
-2.16373e-06
3.57412e-07
-2.3231e-06
3.63423e-07
-2.48255e-06
3.66797e-07
-2.64138e-06
3.67657e-07
-2.79883e-06
3.66062e-07
-2.95407e-06
3.61988e-07
-3.10614e-06
3.55321e-07
-3.25393e-06
3.45894e-07
-3.39636e-06
3.33675e-07
-3.53221e-06
3.18463e-07
-3.66e-06
2.99932e-07
-3.77813e-06
2.77833e-07
-3.88486e-06
2.52002e-07
-3.9784e-06
2.22386e-07
-4.057e-06
1.89062e-07
-4.11906e-06
1.52254e-07
-4.16309e-06
1.12391e-07
-4.18783e-06
7.0105e-08
-4.19246e-06
2.61623e-08
-4.17573e-06
-1.92287e-08
-4.13705e-06
-6.48276e-08
-4.07621e-06
-1.09747e-07
-3.99378e-06
-1.53155e-07
-3.89083e-06
-1.94222e-07
-3.76887e-06
-2.32294e-07
-3.6297e-06
-2.66883e-07
-3.47525e-06
-2.9765e-07
-3.30759e-06
-3.24377e-07
-3.12881e-06
-3.46977e-07
-2.94095e-06
-3.65479e-07
-2.74601e-06
-3.80017e-07
-2.54584e-06
-3.9081e-07
-2.34216e-06
-3.98118e-07
-2.13654e-06
-4.02198e-07
-1.93044e-06
-4.03295e-07
-1.7252e-06
-4.01645e-07
-1.52206e-06
-3.97478e-07
-1.32212e-06
-3.91048e-07
-1.12639e-06
-3.82617e-07
-9.35698e-07
-3.72463e-07
-7.50771e-07
-3.60859e-07
-5.72152e-07
-3.48106e-07
-4.00262e-07
-3.34515e-07
-2.35407e-07
-3.20278e-07
-7.76089e-08
-3.05797e-07
7.31378e-08
-2.91112e-07
2.16488e-07
-2.76689e-07
3.5291e-07
-2.6237e-07
4.82521e-07
-2.48358e-07
6.05529e-07
-2.34763e-07
7.22178e-07
-2.21652e-07
8.32734e-07
-2.09065e-07
9.37471e-07
-1.97021e-07
1.03666e-06
-1.85524e-07
1.13058e-06
-1.74568e-07
1.21947e-06
-1.64137e-07
1.3036e-06
-1.54211e-07
1.38319e-06
-1.44768e-07
1.45847e-06
-1.35783e-07
1.52964e-06
-1.27233e-07
1.5969e-06
-1.19093e-07
1.66043e-06
-1.11342e-07
1.72039e-06
-1.03961e-07
1.77696e-06
-9.69333e-08
1.83028e-06
-9.02429e-08
1.88049e-06
-8.38773e-08
1.92773e-06
-7.78254e-08
1.97212e-06
-7.20776e-08
2.0138e-06
-6.66254e-08
2.05288e-06
-6.14606e-08
2.08948e-06
-5.65759e-08
2.1237e-06
-5.19636e-08
2.15567e-06
-4.76163e-08
2.18547e-06
-4.3526e-08
2.21321e-06
-3.96844e-08
2.23899e-06
-3.60831e-08
2.26291e-06
-3.27132e-08
2.28505e-06
-2.95655e-08
2.30551e-06
-2.66303e-08
2.32437e-06
-2.3898e-08
2.34171e-06
-2.13581e-08
2.35762e-06
-1.89995e-08
2.37218e-06
-1.68124e-08
2.38545e-06
-1.47864e-08
2.39752e-06
-1.29121e-08
2.40845e-06
-1.11812e-08
2.41834e-06
-9.57862e-09
2.42725e-06
-8.09288e-09
2.43525e-06
-6.7223e-09
2.44238e-06
-5.4616e-09
2.44869e-06
-4.30293e-09
2.45425e-06
-3.23837e-09
2.45909e-06
-2.2574e-09
2.46327e-06
-1.35455e-09
2.46681e-06
-5.23343e-10
2.46977e-06
2.44069e-10
2.47218e-06
9.54897e-10
2.47407e-06
1.6124e-09
2.47548e-06
2.21678e-09
2.47646e-06
2.77293e-09
2.47702e-06
3.28712e-09
2.4772e-06
3.75745e-09
2.47704e-06
4.18541e-09
2.47656e-06
4.57244e-09
2.47578e-06
4.91828e-09
2.47474e-06
5.22455e-09
2.47344e-06
5.49498e-09
2.47192e-06
5.73393e-09
2.47018e-06
5.9465e-09
2.46826e-06
6.13788e-09
2.46617e-06
6.31331e-09
2.46392e-06
6.47783e-09
2.46152e-06
6.63579e-09
2.45898e-06
6.79055e-09
2.4563e-06
6.94413e-09
2.4535e-06
7.0971e-09
2.45056e-06
7.24898e-09
2.44749e-06
7.39889e-09
2.4443e-06
7.54577e-09
2.44099e-06
7.68901e-09
2.43757e-06
7.82827e-09
2.43403e-06
7.96364e-09
2.4304e-06
8.09543e-09
2.42666e-06
8.22424e-09
2.42284e-06
8.35076e-09
2.41891e-06
8.47582e-09
2.41491e-06
8.60047e-09
2.41081e-06
8.72575e-09
2.40663e-06
8.85312e-09
2.40237e-06
8.98407e-09
2.39802e-06
9.12045e-09
2.39359e-06
9.26467e-09
2.38907e-06
9.41911e-09
2.38446e-06
9.58822e-09
2.37975e-06
9.77442e-09
2.37493e-06
9.98707e-09
2.36999e-06
1.02263e-08
2.36491e-06
1.05139e-08
2.35968e-06
1.08393e-08
2.35426e-06
1.12579e-08
2.34864e-06
1.17209e-08
2.34273e-06
1.23783e-08
2.33652e-06
1.30544e-08
2.32984e-06
1.41702e-08
2.32274e-06
1.51514e-08
2.31479e-06
1.72196e-08
2.30624e-06
1.8589e-08
2.29605e-06
2.27918e-08
2.28499e-06
2.45127e-08
2.27059e-06
3.38995e-08
2.2546e-06
3.56492e-08
2.23125e-06
5.88779e-08
2.20327e-06
6.08864e-08
2.16175e-06
1.24888e-07
1.35607e-07
2.10449e-06
-4.16599e-08
-1.21169e-09
-9.69092e-08
1.73077e-08
-1.52778e-07
2.33727e-08
-2.10007e-07
3.20677e-08
-2.68981e-07
4.21064e-08
-3.30296e-07
5.37764e-08
-3.9459e-07
6.70708e-08
-4.62767e-07
8.20083e-08
-5.35055e-07
9.86746e-08
-6.11691e-07
1.17118e-07
-6.92821e-07
1.37379e-07
-7.78455e-07
1.5946e-07
-8.68439e-07
1.83268e-07
-9.62523e-07
2.08603e-07
-1.06037e-06
2.35157e-07
-1.16153e-06
2.6254e-07
-1.26551e-06
2.9031e-07
-1.37175e-06
3.17989e-07
-1.47968e-06
3.45056e-07
-1.58905e-06
3.70946e-07
-1.70004e-06
3.95147e-07
-1.81287e-06
4.17293e-07
-1.92788e-06
4.3713e-07
-2.04555e-06
4.54523e-07
-2.16636e-06
4.69416e-07
-2.29074e-06
4.81794e-07
-2.41897e-06
4.91653e-07
-2.55113e-06
4.98957e-07
-2.68708e-06
5.03601e-07
-2.8264e-06
5.05381e-07
-2.9684e-06
5.0399e-07
-3.11211e-06
4.99035e-07
-3.2563e-06
4.90079e-07
-3.39929e-06
4.76666e-07
-3.53912e-06
4.58301e-07
-3.67366e-06
4.3447e-07
-3.80055e-06
4.04715e-07
-3.91724e-06
3.68695e-07
-4.02112e-06
3.26263e-07
-4.10958e-06
2.77523e-07
-4.18016e-06
2.22833e-07
-4.2306e-06
1.62835e-07
-4.25908e-06
9.85842e-08
-4.26452e-06
3.16033e-08
-4.24585e-06
-3.78958e-08
-4.20259e-06
-1.08095e-07
-4.13557e-06
-1.76767e-07
-4.04599e-06
-2.4273e-07
-3.93536e-06
-3.04857e-07
-3.80544e-06
-3.62214e-07
-3.65826e-06
-4.1406e-07
-3.49603e-06
-4.59878e-07
-3.32105e-06
-4.99356e-07
-3.13563e-06
-5.32405e-07
-2.94197e-06
-5.59135e-07
-2.74216e-06
-5.79829e-07
-2.53806e-06
-5.94911e-07
-2.33132e-06
-6.04855e-07
-2.12343e-06
-6.1009e-07
-1.91574e-06
-6.10984e-07
-1.70952e-06
-6.0787e-07
-1.50592e-06
-6.01077e-07
-1.30599e-06
-5.9097e-07
-1.11066e-06
-5.77948e-07
-9.20734e-07
-5.62394e-07
-7.36864e-07
-5.44728e-07
-5.59544e-07
-5.25426e-07
-3.89171e-07
-5.04888e-07
-2.2595e-07
-4.83498e-07
-7.00932e-08
-4.61654e-07
7.86006e-08
-4.39806e-07
2.20009e-07
-4.18098e-07
3.54367e-07
-3.96727e-07
4.81888e-07
-3.75879e-07
6.02829e-07
-3.55705e-07
7.17479e-07
-3.36302e-07
8.26138e-07
-3.17724e-07
9.29111e-07
-2.99994e-07
1.0267e-06
-2.8311e-07
1.11919e-06
-2.67056e-07
1.20685e-06
-2.51802e-07
1.28995e-06
-2.37314e-07
1.36874e-06
-2.23553e-07
1.44343e-06
-2.10479e-07
1.51426e-06
-1.98054e-07
1.5814e-06
-1.86238e-07
1.64506e-06
-1.74997e-07
1.70539e-06
-1.64299e-07
1.76257e-06
-1.54114e-07
1.81675e-06
-1.44418e-07
1.86806e-06
-1.35187e-07
1.91664e-06
-1.26403e-07
1.96261e-06
-1.18048e-07
2.00609e-06
-1.10106e-07
2.04719e-06
-1.02563e-07
2.08602e-06
-9.54049e-08
2.12268e-06
-8.86184e-08
2.15725e-06
-8.21906e-08
2.18983e-06
-7.61088e-08
2.22051e-06
-7.036e-08
2.24936e-06
-6.49315e-08
2.27645e-06
-5.98105e-08
2.30187e-06
-5.4984e-08
2.32568e-06
-5.04394e-08
2.34795e-06
-4.6164e-08
2.36873e-06
-4.21454e-08
2.38811e-06
-3.83709e-08
2.40612e-06
-3.48282e-08
2.42284e-06
-3.15059e-08
2.43832e-06
-2.83924e-08
2.45262e-06
-2.54756e-08
2.46578e-06
-2.27441e-08
2.47787e-06
-2.01859e-08
2.48895e-06
-1.77937e-08
2.49905e-06
-1.55618e-08
2.50822e-06
-1.34808e-08
2.51653e-06
-1.15416e-08
2.524e-06
-9.73457e-09
2.5307e-06
-8.05056e-09
2.53666e-06
-6.48512e-09
2.54194e-06
-5.03183e-09
2.54657e-06
-3.67993e-09
2.55061e-06
-2.42026e-09
2.55407e-06
-1.24953e-09
2.55701e-06
-1.66527e-10
2.55945e-06
8.51796e-10
2.56141e-06
1.78979e-09
2.56294e-06
2.65503e-09
2.56406e-06
3.45221e-09
2.5648e-06
4.18182e-09
2.56518e-06
4.8481e-09
2.56522e-06
5.4564e-09
2.56494e-06
6.01195e-09
2.56436e-06
6.52011e-09
2.56352e-06
6.98628e-09
2.56241e-06
7.41625e-09
2.56108e-06
7.81595e-09
2.55952e-06
8.19143e-09
2.55776e-06
8.548e-09
2.55582e-06
8.88972e-09
2.55369e-06
9.21901e-09
2.55141e-06
9.53681e-09
2.54896e-06
9.84314e-09
2.54637e-06
1.01377e-08
2.54364e-06
1.04202e-08
2.54078e-06
1.06909e-08
2.53779e-06
1.09503e-08
2.53469e-06
1.11993e-08
2.53147e-06
1.14389e-08
2.52815e-06
1.16705e-08
2.52473e-06
1.18955e-08
2.52122e-06
1.21157e-08
2.51761e-06
1.23329e-08
2.51391e-06
1.25489e-08
2.51013e-06
1.27666e-08
2.50626e-06
1.29879e-08
2.50231e-06
1.32172e-08
2.49827e-06
1.34566e-08
2.49415e-06
1.37139e-08
2.48993e-06
1.39901e-08
2.48562e-06
1.43008e-08
2.4812e-06
1.46419e-08
2.47667e-06
1.5048e-08
2.47201e-06
1.54975e-08
2.4672e-06
1.60729e-08
2.46222e-06
1.66981e-08
2.45702e-06
1.75797e-08
2.45159e-06
1.84834e-08
2.44582e-06
1.99389e-08
2.4397e-06
2.12694e-08
2.43306e-06
2.38657e-08
2.42581e-06
2.58344e-08
2.41776e-06
3.08431e-08
2.4085e-06
3.37697e-08
2.39816e-06
4.42457e-08
2.3849e-06
4.89054e-08
2.37105e-06
7.27256e-08
2.34965e-06
8.22928e-08
2.33363e-06
1.40901e-07
1.69041e-07
2.3002e-06
-5.6136e-08
5.49243e-08
-1.27115e-07
8.82869e-08
-1.98119e-07
9.43771e-08
-2.69885e-07
1.03833e-07
-3.42585e-07
1.14807e-07
-4.16422e-07
1.27613e-07
-4.91545e-07
1.42194e-07
-5.68142e-07
1.58605e-07
-6.46327e-07
1.7686e-07
-7.26189e-07
1.9698e-07
-8.07727e-07
2.18917e-07
-8.90817e-07
2.42551e-07
-9.75251e-07
2.67701e-07
-1.06078e-06
2.94136e-07
-1.14722e-06
3.21588e-07
-1.23444e-06
3.49765e-07
-1.32249e-06
3.78361e-07
-1.41156e-06
4.07061e-07
-1.50205e-06
4.35543e-07
-1.59461e-06
4.63506e-07
-1.69014e-06
4.90679e-07
-1.78959e-06
5.16744e-07
-1.89386e-06
5.41401e-07
-2.00372e-06
5.64382e-07
-2.11975e-06
5.85445e-07
-2.24231e-06
6.0435e-07
-2.3715e-06
6.20848e-07
-2.50717e-06
6.34628e-07
-2.64887e-06
6.45299e-07
-2.79587e-06
6.52381e-07
-2.94719e-06
6.55303e-07
-3.10155e-06
6.53401e-07
-3.25742e-06
6.45942e-07
-3.41289e-06
6.32137e-07
-3.56574e-06
6.11152e-07
-3.71342e-06
5.82154e-07
-3.8531e-06
5.44397e-07
-3.98173e-06
4.97325e-07
-4.09616e-06
4.40692e-07
-4.19329e-06
3.7465e-07
-4.27023e-06
2.99772e-07
-4.32444e-06
2.17044e-07
-4.35382e-06
1.27971e-07
-4.35707e-06
3.48499e-08
-4.33344e-06
-6.15274e-08
-4.2835e-06
-1.58037e-07
-4.20812e-06
-2.52139e-07
-4.10872e-06
-3.42136e-07
-3.98712e-06
-4.26459e-07
-3.84544e-06
-5.03885e-07
-3.68606e-06
-5.73447e-07
-3.51149e-06
-6.34446e-07
-3.32438e-06
-6.86466e-07
-3.12737e-06
-7.29411e-07
-2.92303e-06
-7.63482e-07
-2.71371e-06
-7.8914e-07
-2.50149e-06
-8.07133e-07
-2.28804e-06
-8.18309e-07
-2.07477e-06
-8.23356e-07
-1.86297e-06
-8.2279e-07
-1.6538e-06
-8.17033e-07
-1.4484e-06
-8.06482e-07
-1.24774e-06
-7.9163e-07
-1.05267e-06
-7.73011e-07
-8.63871e-07
-7.51196e-07
-6.81805e-07
-7.26794e-07
-5.06766e-07
-7.00465e-07
-3.38963e-07
-6.72691e-07
-1.78411e-07
-6.4405e-07
-2.51506e-08
-6.14915e-07
1.21342e-07
-5.86298e-07
2.60688e-07
-5.57444e-07
3.93098e-07
-5.29137e-07
5.18775e-07
-5.01556e-07
6.37949e-07
-4.7488e-07
7.50887e-07
-4.49239e-07
8.57877e-07
-4.24714e-07
9.59223e-07
-4.01339e-07
1.05523e-06
-3.79113e-07
1.14618e-06
-3.5801e-07
1.23236e-06
-3.37985e-07
1.31404e-06
-3.18988e-07
1.39145e-06
-3.00961e-07
1.46481e-06
-2.83848e-07
1.53435e-06
-2.67594e-07
1.60026e-06
-2.52144e-07
1.66271e-06
-2.37452e-07
1.72189e-06
-2.23471e-07
1.77794e-06
-2.10164e-07
1.83102e-06
-1.97495e-07
1.88126e-06
-1.85434e-07
1.92881e-06
-1.73953e-07
1.97379e-06
-1.63027e-07
2.01632e-06
-1.52636e-07
2.05651e-06
-1.42758e-07
2.09448e-06
-1.33373e-07
2.13033e-06
-1.24463e-07
2.16415e-06
-1.16009e-07
2.19603e-06
-1.07994e-07
2.22607e-06
-1.00398e-07
2.25434e-06
-9.32051e-08
2.28093e-06
-8.63972e-08
2.3059e-06
-7.99574e-08
2.32933e-06
-7.38692e-08
2.35128e-06
-6.81162e-08
2.37182e-06
-6.26828e-08
2.39101e-06
-5.75539e-08
2.40889e-06
-5.27146e-08
2.42554e-06
-4.81513e-08
2.44099e-06
-4.385e-08
2.45532e-06
-3.97975e-08
2.46855e-06
-3.59818e-08
2.48076e-06
-3.23904e-08
2.49198e-06
-2.90131e-08
2.50226e-06
-2.58414e-08
2.51164e-06
-2.28655e-08
2.52018e-06
-2.00745e-08
2.5279e-06
-1.74589e-08
2.53486e-06
-1.5009e-08
2.54109e-06
-1.27152e-08
2.54663e-06
-1.0571e-08
2.55152e-06
-8.56858e-09
2.55579e-06
-6.69726e-09
2.55949e-06
-4.95048e-09
2.56265e-06
-3.32211e-09
2.5653e-06
-1.80065e-09
2.56748e-06
-3.83325e-10
2.5692e-06
9.25281e-10
2.57051e-06
2.14246e-09
2.57143e-06
3.26505e-09
2.57198e-06
4.30124e-09
2.57218e-06
5.25737e-09