/*--------------------------------*- C++ -*----------------------------------*\
  =========                 |
  \\      /  F ield         | OpenFOAM: The Open Source CFD Toolbox
   \\    /   O peration     | Website:  https://openfoam.org
    \\  /    A nd           | Version:  7
     \\/     M anipulation  |
\*---------------------------------------------------------------------------*/
FoamFile
{
    version     2.0;
    format      ascii;
    class       volScalarField;
    location    "0.026";
    object      pPrime2Mean;
}
// * * * * * * * * * * * * * * * * * * * * * * * * * * * * * * * * * * * * * //

dimensions      [0 4 -4 0 0 0 0];

internalField   nonuniform List<scalar> 
12225
(
1.36749e+07
1.34566e+07
1.32313e+07
1.3014e+07
1.28054e+07
1.26047e+07
1.24115e+07
1.22251e+07
1.20449e+07
1.18702e+07
1.17004e+07
1.15346e+07
1.13719e+07
1.1211e+07
1.10503e+07
1.0887e+07
1.07167e+07
1.05279e+07
1.36751e+07
1.34567e+07
1.32313e+07
1.30141e+07
1.28055e+07
1.26049e+07
1.24117e+07
1.22253e+07
1.20451e+07
1.18705e+07
1.17008e+07
1.15351e+07
1.13726e+07
1.12119e+07
1.10516e+07
1.08892e+07
1.07209e+07
1.05373e+07
1.36754e+07
1.34569e+07
1.32316e+07
1.30143e+07
1.28057e+07
1.26052e+07
1.2412e+07
1.22257e+07
1.20457e+07
1.18712e+07
1.17017e+07
1.15362e+07
1.1374e+07
1.1214e+07
1.10546e+07
1.0894e+07
1.07293e+07
1.0557e+07
1.36757e+07
1.34572e+07
1.32319e+07
1.30147e+07
1.28062e+07
1.26057e+07
1.24126e+07
1.22264e+07
1.20466e+07
1.18723e+07
1.1703e+07
1.1538e+07
1.13764e+07
1.12173e+07
1.10594e+07
1.09013e+07
1.07417e+07
1.05805e+07
1.36761e+07
1.34577e+07
1.32324e+07
1.30153e+07
1.28068e+07
1.26064e+07
1.24135e+07
1.22275e+07
1.20479e+07
1.18739e+07
1.17051e+07
1.15407e+07
1.13799e+07
1.1222e+07
1.1066e+07
1.09112e+07
1.07572e+07
1.06059e+07
1.36767e+07
1.34583e+07
1.32331e+07
1.3016e+07
1.28077e+07
1.26074e+07
1.24147e+07
1.2229e+07
1.20496e+07
1.18761e+07
1.17079e+07
1.15442e+07
1.13845e+07
1.12282e+07
1.10746e+07
1.09235e+07
1.07752e+07
1.06323e+07
1.36774e+07
1.34592e+07
1.3234e+07
1.30171e+07
1.28089e+07
1.26088e+07
1.24163e+07
1.22309e+07
1.2052e+07
1.1879e+07
1.17115e+07
1.15488e+07
1.13905e+07
1.1236e+07
1.10851e+07
1.09379e+07
1.07951e+07
1.06591e+07
1.36784e+07
1.34603e+07
1.32352e+07
1.30184e+07
1.28104e+07
1.26105e+07
1.24184e+07
1.22333e+07
1.20549e+07
1.18827e+07
1.1716e+07
1.15545e+07
1.13977e+07
1.12454e+07
1.10974e+07
1.09541e+07
1.08164e+07
1.06862e+07
1.36797e+07
1.34617e+07
1.32367e+07
1.302e+07
1.28122e+07
1.26127e+07
1.24209e+07
1.22364e+07
1.20586e+07
1.18872e+07
1.17215e+07
1.15614e+07
1.14064e+07
1.12564e+07
1.11114e+07
1.09719e+07
1.08388e+07
1.07134e+07
1.36813e+07
1.34634e+07
1.32386e+07
1.30221e+07
1.28145e+07
1.26154e+07
1.2424e+07
1.22401e+07
1.20631e+07
1.18926e+07
1.17281e+07
1.15695e+07
1.14165e+07
1.12689e+07
1.1127e+07
1.09911e+07
1.0862e+07
1.07407e+07
1.36838e+07
1.34656e+07
1.32409e+07
1.30246e+07
1.28173e+07
1.26186e+07
1.24278e+07
1.22445e+07
1.20684e+07
1.18989e+07
1.17359e+07
1.15789e+07
1.14279e+07
1.12828e+07
1.11438e+07
1.10113e+07
1.08859e+07
1.07681e+07
1.36859e+07
1.3468e+07
1.32434e+07
1.30273e+07
1.28204e+07
1.2622e+07
1.24318e+07
1.22493e+07
1.2074e+07
1.19057e+07
1.1744e+07
1.15886e+07
1.14396e+07
1.12968e+07
1.11604e+07
1.10307e+07
1.09082e+07
1.07931e+07
1.36889e+07
1.34708e+07
1.32462e+07
1.30304e+07
1.28238e+07
1.2626e+07
1.24364e+07
1.22547e+07
1.20804e+07
1.19132e+07
1.17529e+07
1.15992e+07
1.14521e+07
1.13115e+07
1.11776e+07
1.10506e+07
1.09306e+07
1.0818e+07
1.36929e+07
1.34745e+07
1.32501e+07
1.30345e+07
1.28284e+07
1.26312e+07
1.24424e+07
1.22616e+07
1.20885e+07
1.19228e+07
1.17641e+07
1.16124e+07
1.14675e+07
1.13294e+07
1.11981e+07
1.10737e+07
1.09564e+07
1.08462e+07
1.3698e+07
1.34794e+07
1.32551e+07
1.30399e+07
1.28344e+07
1.26379e+07
1.24502e+07
1.22706e+07
1.2099e+07
1.19349e+07
1.17782e+07
1.16286e+07
1.14861e+07
1.13506e+07
1.12221e+07
1.11005e+07
1.09857e+07
1.08778e+07
1.37043e+07
1.34857e+07
1.32616e+07
1.30469e+07
1.28421e+07
1.26467e+07
1.24601e+07
1.2282e+07
1.2112e+07
1.19499e+07
1.17954e+07
1.16482e+07
1.15083e+07
1.13755e+07
1.12497e+07
1.11307e+07
1.10185e+07
1.09128e+07
1.37122e+07
1.34937e+07
1.32699e+07
1.30558e+07
1.2852e+07
1.26577e+07
1.24726e+07
1.22961e+07
1.21281e+07
1.19681e+07
1.18159e+07
1.16713e+07
1.1534e+07
1.14038e+07
1.12807e+07
1.11642e+07
1.10543e+07
1.09507e+07
1.37214e+07
1.35034e+07
1.32802e+07
1.30669e+07
1.28642e+07
1.26712e+07
1.24877e+07
1.23131e+07
1.21471e+07
1.19894e+07
1.18396e+07
1.16975e+07
1.15627e+07
1.14351e+07
1.13144e+07
1.12003e+07
1.10925e+07
1.09908e+07
1.37327e+07
1.3515e+07
1.32924e+07
1.30801e+07
1.28785e+07
1.2687e+07
1.25052e+07
1.23325e+07
1.21686e+07
1.20131e+07
1.18656e+07
1.17259e+07
1.15935e+07
1.14682e+07
1.13497e+07
1.12376e+07
1.11316e+07
1.10315e+07
1.37432e+07
1.35253e+07
1.3303e+07
1.30913e+07
1.28907e+07
1.27003e+07
1.25198e+07
1.23485e+07
1.21861e+07
1.20322e+07
1.18864e+07
1.17483e+07
1.16175e+07
1.14937e+07
1.13766e+07
1.12659e+07
1.11611e+07
1.10621e+07
1.37497e+07
1.35322e+07
1.33103e+07
1.30991e+07
1.28991e+07
1.27095e+07
1.25297e+07
1.23594e+07
1.2198e+07
1.20451e+07
1.19002e+07
1.17631e+07
1.16333e+07
1.15105e+07
1.13942e+07
1.12843e+07
1.11802e+07
1.10818e+07
1.37551e+07
1.35373e+07
1.33156e+07
1.31048e+07
1.29053e+07
1.27162e+07
1.25371e+07
1.23674e+07
1.22067e+07
1.20544e+07
1.19103e+07
1.17739e+07
1.16447e+07
1.15225e+07
1.14068e+07
1.12974e+07
1.11938e+07
1.10958e+07
1.37578e+07
1.35407e+07
1.33194e+07
1.31089e+07
1.29097e+07
1.27211e+07
1.25424e+07
1.23732e+07
1.22129e+07
1.20612e+07
1.19175e+07
1.17815e+07
1.16528e+07
1.1531e+07
1.14157e+07
1.13067e+07
1.12034e+07
1.11057e+07
1.37601e+07
1.35431e+07
1.3322e+07
1.31118e+07
1.29129e+07
1.27246e+07
1.25462e+07
1.23773e+07
1.22173e+07
1.20659e+07
1.19226e+07
1.17869e+07
1.16585e+07
1.1537e+07
1.1422e+07
1.13131e+07
1.12101e+07
1.11126e+07
1.37614e+07
1.35446e+07
1.33238e+07
1.31138e+07
1.29151e+07
1.2727e+07
1.25488e+07
1.23801e+07
1.22204e+07
1.20692e+07
1.19261e+07
1.17906e+07
1.16624e+07
1.15411e+07
1.14263e+07
1.13176e+07
1.12147e+07
1.11173e+07
1.37616e+07
1.35455e+07
1.33249e+07
1.31151e+07
1.29166e+07
1.27286e+07
1.25506e+07
1.2382e+07
1.22224e+07
1.20714e+07
1.19284e+07
1.17931e+07
1.16651e+07
1.15439e+07
1.14291e+07
1.13206e+07
1.12178e+07
1.11205e+07
1.37618e+07
1.3546e+07
1.33257e+07
1.3116e+07
1.29175e+07
1.27296e+07
1.25517e+07
1.23832e+07
1.22238e+07
1.20728e+07
1.19299e+07
1.17947e+07
1.16667e+07
1.15456e+07
1.1431e+07
1.13225e+07
1.12198e+07
1.11225e+07
1.37621e+07
1.35464e+07
1.33261e+07
1.31165e+07
1.29181e+07
1.27303e+07
1.25524e+07
1.2384e+07
1.22246e+07
1.20737e+07
1.19309e+07
1.17957e+07
1.16678e+07
1.15467e+07
1.14321e+07
1.13237e+07
1.1221e+07
1.11238e+07
1.37622e+07
1.35466e+07
1.33263e+07
1.31168e+07
1.29184e+07
1.27306e+07
1.25528e+07
1.23844e+07
1.2225e+07
1.20741e+07
1.19314e+07
1.17962e+07
1.16683e+07
1.15473e+07
1.14327e+07
1.13243e+07
1.12216e+07
1.11244e+07
1.37623e+07
1.35466e+07
1.33264e+07
1.31169e+07
1.29185e+07
1.27307e+07
1.25529e+07
1.23846e+07
1.22252e+07
1.20743e+07
1.19316e+07
1.17964e+07
1.16686e+07
1.15475e+07
1.1433e+07
1.13245e+07
1.12219e+07
1.11247e+07
8.8956e+06
8.89489e+06
8.89347e+06
8.8913e+06
8.88839e+06
8.88471e+06
8.88025e+06
8.87501e+06
8.86896e+06
8.86211e+06
8.85445e+06
8.84596e+06
8.83664e+06
8.82648e+06
8.81548e+06
8.80364e+06
8.79096e+06
8.77743e+06
8.76306e+06
8.74783e+06
8.73177e+06
8.71487e+06
8.69713e+06
8.67856e+06
8.65916e+06
8.63894e+06
8.61791e+06
8.59607e+06
8.57344e+06
8.55001e+06
8.52581e+06
8.50083e+06
8.4751e+06
8.44861e+06
8.42139e+06
8.39344e+06
8.36476e+06
8.33539e+06
8.30531e+06
8.27456e+06
8.24313e+06
8.21104e+06
8.1783e+06
8.14492e+06
8.11092e+06
8.07631e+06
8.04109e+06
8.00528e+06
7.9689e+06
7.93194e+06
7.89443e+06
7.85638e+06
7.81779e+06
7.77867e+06
7.73904e+06
7.69891e+06
7.65828e+06
7.61718e+06
7.57559e+06
7.53355e+06
7.49105e+06
7.44811e+06
7.40473e+06
7.36092e+06
7.3167e+06
7.27207e+06
7.22703e+06
7.18161e+06
7.1358e+06
7.08961e+06
7.04305e+06
6.99614e+06
6.94886e+06
6.90125e+06
6.85329e+06
6.805e+06
6.75639e+06
6.70745e+06
6.65821e+06
6.60866e+06
6.5588e+06
6.50866e+06
6.45823e+06
6.40752e+06
6.35653e+06
6.30528e+06
6.25376e+06
6.20198e+06
6.14995e+06
6.09768e+06
6.04516e+06
5.99241e+06
5.93943e+06
5.88622e+06
5.83279e+06
5.77915e+06
5.7253e+06
5.67124e+06
5.61699e+06
5.56254e+06
5.5079e+06
5.45308e+06
5.39807e+06
5.3429e+06
5.28755e+06
5.23204e+06
5.17637e+06
5.12055e+06
5.06458e+06
5.00847e+06
4.95221e+06
4.89583e+06
4.83931e+06
4.78267e+06
4.72592e+06
4.66906e+06
4.61208e+06
4.55501e+06
4.49785e+06
4.44059e+06
4.38325e+06
4.32584e+06
4.26835e+06
4.2108e+06
4.15318e+06
4.09552e+06
4.03781e+06
3.98006e+06
3.92227e+06
3.86446e+06
3.80663e+06
3.74879e+06
3.69094e+06
3.63309e+06
3.57526e+06
3.51744e+06
3.45964e+06
3.40188e+06
3.34416e+06
3.28648e+06
3.22887e+06
3.17132e+06
3.11385e+06
3.05646e+06
2.99916e+06
2.94197e+06
2.88488e+06
2.82792e+06
2.77109e+06
2.7144e+06
2.65786e+06
2.60149e+06
2.54528e+06
2.48926e+06
2.43344e+06
2.37782e+06
2.32242e+06
2.26725e+06
2.21233e+06
2.15766e+06
2.10326e+06
2.04914e+06
1.99532e+06
1.94181e+06
1.88862e+06
1.83578e+06
1.7833e+06
1.73119e+06
1.67947e+06
1.62817e+06
1.5773e+06
1.52689e+06
1.47697e+06
1.42757e+06
1.37872e+06
1.33048e+06
1.2829e+06
1.2361e+06
1.19022e+06
1.14564e+06
8.89882e+06
8.8981e+06
8.89667e+06
8.89449e+06
8.89155e+06
8.88785e+06
8.88337e+06
8.87809e+06
8.87201e+06
8.86512e+06
8.85742e+06
8.84888e+06
8.83951e+06
8.8293e+06
8.81825e+06
8.80636e+06
8.79361e+06
8.78002e+06
8.76558e+06
8.7503e+06
8.73417e+06
8.7172e+06
8.69939e+06
8.68075e+06
8.66128e+06
8.641e+06
8.6199e+06
8.59799e+06
8.57529e+06
8.5518e+06
8.52753e+06
8.50249e+06
8.47669e+06
8.45014e+06
8.42285e+06
8.39484e+06
8.36611e+06
8.33667e+06
8.30654e+06
8.27573e+06
8.24425e+06
8.21211e+06
8.17932e+06
8.1459e+06
8.11185e+06
8.07719e+06
8.04193e+06
8.00609e+06
7.96966e+06
7.93267e+06
7.89512e+06
7.85703e+06
7.8184e+06
7.77926e+06
7.7396e+06
7.69944e+06
7.65878e+06
7.61765e+06
7.57604e+06
7.53397e+06
7.49145e+06
7.44848e+06
7.40508e+06
7.36126e+06
7.31702e+06
7.27236e+06
7.22731e+06
7.18187e+06
7.13605e+06
7.08984e+06
7.04327e+06
6.99634e+06
6.94906e+06
6.90143e+06
6.85346e+06
6.80516e+06
6.75654e+06
6.70759e+06
6.65834e+06
6.60878e+06
6.55892e+06
6.50877e+06
6.45833e+06
6.40761e+06
6.35662e+06
6.30536e+06
6.25383e+06
6.20205e+06
6.15002e+06
6.09774e+06
6.04522e+06
5.99246e+06
5.93948e+06
5.88627e+06
5.83284e+06
5.77919e+06
5.72534e+06
5.67128e+06
5.61702e+06
5.56257e+06
5.50793e+06
5.4531e+06
5.3981e+06
5.34292e+06
5.28757e+06
5.23206e+06
5.17639e+06
5.12057e+06
5.06459e+06
5.00848e+06
4.95222e+06
4.89584e+06
4.83932e+06
4.78268e+06
4.72593e+06
4.66906e+06
4.61209e+06
4.55502e+06
4.49785e+06
4.4406e+06
4.38326e+06
4.32584e+06
4.26835e+06
4.2108e+06
4.15319e+06
4.09552e+06
4.03781e+06
3.98006e+06
3.92227e+06
3.86446e+06
3.80663e+06
3.74879e+06
3.69094e+06
3.63309e+06
3.57526e+06
3.51744e+06
3.45964e+06
3.40188e+06
3.34416e+06
3.28649e+06
3.22887e+06
3.17132e+06
3.11385e+06
3.05646e+06
2.99916e+06
2.94197e+06
2.88488e+06
2.82792e+06
2.77109e+06
2.7144e+06
2.65786e+06
2.60149e+06
2.54528e+06
2.48926e+06
2.43344e+06
2.37782e+06
2.32242e+06
2.26725e+06
2.21233e+06
2.15766e+06
2.10326e+06
2.04914e+06
1.99532e+06
1.94181e+06
1.88862e+06
1.83578e+06
1.78329e+06
1.73118e+06
1.67947e+06
1.62816e+06
1.57729e+06
1.52688e+06
1.47696e+06
1.42755e+06
1.37869e+06
1.33044e+06
1.28285e+06
1.23601e+06
1.19007e+06
1.14528e+06
8.90527e+06
8.90454e+06
8.90308e+06
8.90087e+06
8.8979e+06
8.89415e+06
8.88961e+06
8.88428e+06
8.87813e+06
8.87116e+06
8.86337e+06
8.85474e+06
8.84527e+06
8.83496e+06
8.8238e+06
8.81179e+06
8.79892e+06
8.78521e+06
8.77064e+06
8.75523e+06
8.73896e+06
8.72186e+06
8.70391e+06
8.68514e+06
8.66553e+06
8.64511e+06
8.62387e+06
8.60183e+06
8.57899e+06
8.55536e+06
8.53096e+06
8.50579e+06
8.47986e+06
8.45318e+06
8.42577e+06
8.39764e+06
8.36879e+06
8.33924e+06
8.309e+06
8.27808e+06
8.24649e+06
8.21425e+06
8.18136e+06
8.14784e+06
8.11371e+06
8.07896e+06
8.04361e+06
8.00768e+06
7.97118e+06
7.93411e+06
7.89649e+06
7.85833e+06
7.81964e+06
7.78043e+06
7.7407e+06
7.70048e+06
7.65978e+06
7.61859e+06
7.57693e+06
7.53481e+06
7.49224e+06
7.44923e+06
7.40579e+06
7.36193e+06
7.31765e+06
7.27296e+06
7.22787e+06
7.1824e+06
7.13654e+06
7.09031e+06
7.04371e+06
6.99676e+06
6.94945e+06
6.90179e+06
6.8538e+06
6.80548e+06
6.75684e+06
6.70788e+06
6.6586e+06
6.60903e+06
6.55915e+06
6.50899e+06
6.45853e+06
6.4078e+06
6.3568e+06
6.30552e+06
6.25399e+06
6.2022e+06
6.15015e+06
6.09786e+06
6.04533e+06
5.99257e+06
5.93958e+06
5.88636e+06
5.83292e+06
5.77927e+06
5.72541e+06
5.67135e+06
5.61708e+06
5.56263e+06
5.50798e+06
5.45315e+06
5.39814e+06
5.34296e+06
5.28761e+06
5.2321e+06
5.17642e+06
5.1206e+06
5.06462e+06
5.0085e+06
4.95225e+06
4.89586e+06
4.83934e+06
4.7827e+06
4.72595e+06
4.66908e+06
4.61211e+06
4.55503e+06
4.49786e+06
4.44061e+06
4.38327e+06
4.32585e+06
4.26836e+06
4.21081e+06
4.15319e+06
4.09553e+06
4.03782e+06
3.98006e+06
3.92228e+06
3.86447e+06
3.80664e+06
3.74879e+06
3.69094e+06
3.6331e+06
3.57526e+06
3.51744e+06
3.45964e+06
3.40188e+06
3.34416e+06
3.28649e+06
3.22887e+06
3.17132e+06
3.11385e+06
3.05646e+06
2.99916e+06
2.94197e+06
2.88488e+06
2.82792e+06
2.77109e+06
2.7144e+06
2.65786e+06
2.60149e+06
2.54528e+06
2.48926e+06
2.43344e+06
2.37782e+06
2.32242e+06
2.26725e+06
2.21233e+06
2.15766e+06
2.10326e+06
2.04914e+06
1.99532e+06
1.9418e+06
1.88862e+06
1.83577e+06
1.78329e+06
1.73117e+06
1.67946e+06
1.62815e+06
1.57728e+06
1.52686e+06
1.47693e+06
1.42751e+06
1.37864e+06
1.33037e+06
1.28274e+06
1.23585e+06
1.18979e+06
1.14471e+06
8.915e+06
8.91425e+06
8.91276e+06
8.9105e+06
8.90747e+06
8.90365e+06
8.89903e+06
8.8936e+06
8.88734e+06
8.88025e+06
8.87233e+06
8.86356e+06
8.85394e+06
8.84347e+06
8.83214e+06
8.81995e+06
8.80691e+06
8.793e+06
8.77824e+06
8.76263e+06
8.74616e+06
8.72885e+06
8.7107e+06
8.69172e+06
8.6719e+06
8.65127e+06
8.62982e+06
8.60757e+06
8.58453e+06
8.5607e+06
8.5361e+06
8.51073e+06
8.48461e+06
8.45774e+06
8.43015e+06
8.40183e+06
8.3728e+06
8.34308e+06
8.31267e+06
8.28159e+06
8.24985e+06
8.21745e+06
8.18442e+06
8.15076e+06
8.11648e+06
8.0816e+06
8.04613e+06
8.01007e+06
7.97345e+06
7.93627e+06
7.89854e+06
7.86027e+06
7.82148e+06
7.78217e+06
7.74236e+06
7.70205e+06
7.66126e+06
7.61999e+06
7.57826e+06
7.53607e+06
7.49343e+06
7.45035e+06
7.40685e+06
7.36292e+06
7.31859e+06
7.27385e+06
7.22871e+06
7.18319e+06
7.13728e+06
7.09101e+06
7.04437e+06
6.99737e+06
6.95003e+06
6.90234e+06
6.85431e+06
6.80596e+06
6.75729e+06
6.7083e+06
6.659e+06
6.6094e+06
6.5595e+06
6.50931e+06
6.45884e+06
6.40808e+06
6.35706e+06
6.30577e+06
6.25422e+06
6.20241e+06
6.15035e+06
6.09805e+06
6.04551e+06
5.99273e+06
5.93973e+06
5.8865e+06
5.83305e+06
5.77939e+06
5.72552e+06
5.67145e+06
5.61718e+06
5.56271e+06
5.50806e+06
5.45323e+06
5.39821e+06
5.34303e+06
5.28767e+06
5.23215e+06
5.17647e+06
5.12064e+06
5.06466e+06
5.00854e+06
4.95228e+06
4.89589e+06
4.83937e+06
4.78273e+06
4.72597e+06
4.6691e+06
4.61213e+06
4.55505e+06
4.49788e+06
4.44062e+06
4.38328e+06
4.32586e+06
4.26837e+06
4.21082e+06
4.1532e+06
4.09554e+06
4.03782e+06
3.98007e+06
3.92228e+06
3.86447e+06
3.80664e+06
3.7488e+06
3.69095e+06
3.6331e+06
3.57526e+06
3.51744e+06
3.45965e+06
3.40188e+06
3.34416e+06
3.28649e+06
3.22887e+06
3.17133e+06
3.11385e+06
3.05646e+06
2.99916e+06
2.94197e+06
2.88489e+06
2.82792e+06
2.77109e+06
2.7144e+06
2.65786e+06
2.60149e+06
2.54528e+06
2.48926e+06
2.43344e+06
2.37782e+06
2.32242e+06
2.26725e+06
2.21233e+06
2.15766e+06
2.10325e+06
2.04913e+06
1.99531e+06
1.9418e+06
1.88861e+06
1.83577e+06
1.78328e+06
1.73116e+06
1.67944e+06
1.62813e+06
1.57725e+06
1.52683e+06
1.47688e+06
1.42745e+06
1.37856e+06
1.33026e+06
1.28259e+06
1.23562e+06
1.18942e+06
1.14405e+06
8.92806e+06
8.92729e+06
8.92575e+06
8.92343e+06
8.92032e+06
8.9164e+06
8.91166e+06
8.9061e+06
8.89969e+06
8.89244e+06
8.88434e+06
8.87538e+06
8.86556e+06
8.85487e+06
8.84331e+06
8.83088e+06
8.81759e+06
8.80343e+06
8.7884e+06
8.77252e+06
8.75578e+06
8.73819e+06
8.71976e+06
8.70049e+06
8.6804e+06
8.65948e+06
8.63776e+06
8.61523e+06
8.59191e+06
8.56781e+06
8.54294e+06
8.5173e+06
8.49092e+06
8.4638e+06
8.43596e+06
8.4074e+06
8.37814e+06
8.34819e+06
8.31755e+06
8.28625e+06
8.2543e+06
8.2217e+06
8.18847e+06
8.15462e+06
8.12016e+06
8.0851e+06
8.04946e+06
8.01324e+06
7.97646e+06
7.93913e+06
7.90126e+06
7.86285e+06
7.82393e+06
7.78449e+06
7.74456e+06
7.70413e+06
7.66323e+06
7.62186e+06
7.58002e+06
7.53773e+06
7.495e+06
7.45184e+06
7.40825e+06
7.36425e+06
7.31984e+06
7.27502e+06
7.22982e+06
7.18423e+06
7.13827e+06
7.09193e+06
7.04524e+06
6.99819e+06
6.95079e+06
6.90306e+06
6.85499e+06
6.8066e+06
6.75788e+06
6.70885e+06
6.65952e+06
6.60989e+06
6.55996e+06
6.50974e+06
6.45924e+06
6.40846e+06
6.35741e+06
6.3061e+06
6.25452e+06
6.20269e+06
6.15062e+06
6.0983e+06
6.04574e+06
5.99294e+06
5.93992e+06
5.88668e+06
5.83322e+06
5.77955e+06
5.72567e+06
5.67158e+06
5.6173e+06
5.56283e+06
5.50817e+06
5.45333e+06
5.3983e+06
5.34311e+06
5.28775e+06
5.23222e+06
5.17654e+06
5.1207e+06
5.06472e+06
5.00859e+06
4.95233e+06
4.89593e+06
4.83941e+06
4.78277e+06
4.726e+06
4.66913e+06
4.61215e+06
4.55508e+06
4.4979e+06
4.44064e+06
4.3833e+06
4.32588e+06
4.26839e+06
4.21083e+06
4.15322e+06
4.09555e+06
4.03783e+06
3.98008e+06
3.92229e+06
3.86448e+06
3.80665e+06
3.7488e+06
3.69095e+06
3.6331e+06
3.57527e+06
3.51745e+06
3.45965e+06
3.40189e+06
3.34416e+06
3.28649e+06
3.22888e+06
3.17133e+06
3.11385e+06
3.05646e+06
2.99917e+06
2.94197e+06
2.88489e+06
2.82792e+06
2.77109e+06
2.7144e+06
2.65786e+06
2.60149e+06
2.54528e+06
2.48926e+06
2.43344e+06
2.37782e+06
2.32242e+06
2.26725e+06
2.21232e+06
2.15765e+06
2.10325e+06
2.04913e+06
1.99531e+06
1.94179e+06
1.8886e+06
1.83576e+06
1.78326e+06
1.73115e+06
1.67942e+06
1.6281e+06
1.57722e+06
1.52678e+06
1.47683e+06
1.42738e+06
1.37846e+06
1.33012e+06
1.28239e+06
1.23533e+06
1.18898e+06
1.14335e+06
8.94454e+06
8.94373e+06
8.94213e+06
8.93973e+06
8.93652e+06
8.93247e+06
8.92759e+06
8.92185e+06
8.91525e+06
8.90779e+06
8.89946e+06
8.89025e+06
8.88016e+06
8.86919e+06
8.85734e+06
8.8446e+06
8.83099e+06
8.8165e+06
8.80114e+06
8.78491e+06
8.76782e+06
8.74988e+06
8.73109e+06
8.71147e+06
8.69102e+06
8.66974e+06
8.64766e+06
8.62478e+06
8.60112e+06
8.57667e+06
8.55146e+06
8.5255e+06
8.49879e+06
8.47135e+06
8.4432e+06
8.41433e+06
8.38478e+06
8.35454e+06
8.32362e+06
8.29205e+06
8.25984e+06
8.22698e+06
8.19351e+06
8.15942e+06
8.12473e+06
8.08945e+06
8.0536e+06
8.01718e+06
7.9802e+06
7.94268e+06
7.90463e+06
7.86605e+06
7.82696e+06
7.78737e+06
7.74728e+06
7.70672e+06
7.66567e+06
7.62417e+06
7.58221e+06
7.5398e+06
7.49696e+06
7.45369e+06
7.40999e+06
7.36589e+06
7.32139e+06
7.27648e+06
7.2312e+06
7.18553e+06
7.13949e+06
7.09308e+06
7.04632e+06
6.99921e+06
6.95175e+06
6.90396e+06
6.85583e+06
6.80739e+06
6.75862e+06
6.70955e+06
6.66017e+06
6.61049e+06
6.56052e+06
6.51027e+06
6.45973e+06
6.40892e+06
6.35784e+06
6.3065e+06
6.2549e+06
6.20305e+06
6.15095e+06
6.0986e+06
6.04602e+06
5.99321e+06
5.94017e+06
5.88691e+06
5.83343e+06
5.77975e+06
5.72585e+06
5.67175e+06
5.61746e+06
5.56298e+06
5.5083e+06
5.45345e+06
5.39842e+06
5.34322e+06
5.28784e+06
5.23231e+06
5.17662e+06
5.12078e+06
5.06479e+06
5.00866e+06
4.95239e+06
4.89599e+06
4.83946e+06
4.78281e+06
4.72605e+06
4.66917e+06
4.61219e+06
4.55511e+06
4.49793e+06
4.44067e+06
4.38332e+06
4.3259e+06
4.26841e+06
4.21085e+06
4.15323e+06
4.09556e+06
4.03785e+06
3.98009e+06
3.9223e+06
3.86449e+06
3.80666e+06
3.74881e+06
3.69096e+06
3.63311e+06
3.57527e+06
3.51745e+06
3.45965e+06
3.40189e+06
3.34417e+06
3.28649e+06
3.22888e+06
3.17133e+06
3.11386e+06
3.05647e+06
2.99917e+06
2.94197e+06
2.88489e+06
2.82793e+06
2.77109e+06
2.7144e+06
2.65786e+06
2.60149e+06
2.54528e+06
2.48926e+06
2.43344e+06
2.37782e+06
2.32242e+06
2.26725e+06
2.21232e+06
2.15765e+06
2.10325e+06
2.04913e+06
1.9953e+06
1.94179e+06
1.8886e+06
1.83574e+06
1.78325e+06
1.73113e+06
1.67939e+06
1.62807e+06
1.57717e+06
1.52673e+06
1.47676e+06
1.42729e+06
1.37834e+06
1.32996e+06
1.28217e+06
1.23501e+06
1.18851e+06
1.14265e+06
8.96455e+06
8.96369e+06
8.96202e+06
8.95952e+06
8.95617e+06
8.95196e+06
8.94689e+06
8.94094e+06
8.9341e+06
8.92638e+06
8.91775e+06
8.90823e+06
8.89781e+06
8.88649e+06
8.87427e+06
8.86115e+06
8.84714e+06
8.83225e+06
8.81647e+06
8.79982e+06
8.7823e+06
8.76393e+06
8.7447e+06
8.72464e+06
8.70375e+06
8.68205e+06
8.65953e+06
8.63623e+06
8.61214e+06
8.58727e+06
8.56166e+06
8.53529e+06
8.50819e+06
8.48037e+06
8.45184e+06
8.42261e+06
8.3927e+06
8.36211e+06
8.33087e+06
8.29897e+06
8.26644e+06
8.23328e+06
8.19951e+06
8.16514e+06
8.13018e+06
8.09464e+06
8.05853e+06
8.02187e+06
7.98466e+06
7.94691e+06
7.90865e+06
7.86986e+06
7.83058e+06
7.7908e+06
7.75053e+06
7.70979e+06
7.66858e+06
7.62692e+06
7.58481e+06
7.54226e+06
7.49928e+06
7.45588e+06
7.41207e+06
7.36785e+06
7.32323e+06
7.27822e+06
7.23283e+06
7.18707e+06
7.14094e+06
7.09445e+06
7.0476e+06
7.00041e+06
6.95288e+06
6.90502e+06
6.85683e+06
6.80832e+06
6.7595e+06
6.71037e+06
6.66094e+06
6.61122e+06
6.5612e+06
6.5109e+06
6.46033e+06
6.40948e+06
6.35836e+06
6.30698e+06
6.25535e+06
6.20347e+06
6.15134e+06
6.09897e+06
6.04636e+06
5.99352e+06
5.94046e+06
5.88718e+06
5.83369e+06
5.77998e+06
5.72607e+06
5.67196e+06
5.61765e+06
5.56315e+06
5.50846e+06
5.4536e+06
5.39855e+06
5.34334e+06
5.28796e+06
5.23242e+06
5.17672e+06
5.12087e+06
5.06487e+06
5.00873e+06
4.95246e+06
4.89605e+06
4.83952e+06
4.78286e+06
4.72609e+06
4.66921e+06
4.61223e+06
4.55514e+06
4.49797e+06
4.4407e+06
4.38335e+06
4.32593e+06
4.26843e+06
4.21087e+06
4.15325e+06
4.09558e+06
4.03786e+06
3.98011e+06
3.92232e+06
3.8645e+06
3.80667e+06
3.74882e+06
3.69097e+06
3.63312e+06
3.57528e+06
3.51746e+06
3.45966e+06
3.4019e+06
3.34417e+06
3.2865e+06
3.22888e+06
3.17133e+06
3.11386e+06
3.05647e+06
2.99917e+06
2.94197e+06
2.88489e+06
2.82793e+06
2.7711e+06
2.71441e+06
2.65787e+06
2.60149e+06
2.54528e+06
2.48926e+06
2.43344e+06
2.37782e+06
2.32242e+06
2.26725e+06
2.21232e+06
2.15765e+06
2.10324e+06
2.04912e+06
1.99529e+06
1.94178e+06
1.88858e+06
1.83573e+06
1.78323e+06
1.7311e+06
1.67936e+06
1.62803e+06
1.57713e+06
1.52667e+06
1.47668e+06
1.42718e+06
1.3782e+06
1.32977e+06
1.28192e+06
1.23466e+06
1.18802e+06
1.14196e+06
8.98822e+06
8.98731e+06
8.98554e+06
8.98291e+06
8.9794e+06
8.975e+06
8.96969e+06
8.96348e+06
8.95635e+06
8.94829e+06
8.93931e+06
8.92941e+06
8.91858e+06
8.90683e+06
8.89417e+06
8.88058e+06
8.8661e+06
8.85071e+06
8.83443e+06
8.81727e+06
8.79923e+06
8.78034e+06
8.76059e+06
8.74001e+06
8.7186e+06
8.69638e+06
8.67335e+06
8.64954e+06
8.62495e+06
8.5996e+06
8.5735e+06
8.54666e+06
8.5191e+06
8.49083e+06
8.46186e+06
8.4322e+06
8.40188e+06
8.37089e+06
8.33925e+06
8.30698e+06
8.27408e+06
8.24057e+06
8.20646e+06
8.17176e+06
8.13648e+06
8.10063e+06
8.06423e+06
8.02729e+06
7.98981e+06
7.9518e+06
7.91329e+06
7.87427e+06
7.83475e+06
7.79475e+06
7.75428e+06
7.71334e+06
7.67194e+06
7.6301e+06
7.58782e+06
7.5451e+06
7.50197e+06
7.45842e+06
7.41446e+06
7.37011e+06
7.32536e+06
7.28023e+06
7.23473e+06
7.18885e+06
7.14262e+06
7.09603e+06
7.04909e+06
7.00181e+06
6.9542e+06
6.90625e+06
6.85799e+06
6.80941e+06
6.76052e+06
6.71133e+06
6.66184e+06
6.61205e+06
6.56198e+06
6.51164e+06
6.46101e+06
6.41012e+06
6.35896e+06
6.30754e+06
6.25587e+06
6.20395e+06
6.15179e+06
6.09939e+06
6.04675e+06
5.99389e+06
5.9408e+06
5.8875e+06
5.83398e+06
5.78025e+06
5.72632e+06
5.67219e+06
5.61786e+06
5.56335e+06
5.50865e+06
5.45377e+06
5.39871e+06
5.34349e+06
5.28809e+06
5.23254e+06
5.17683e+06
5.12097e+06
5.06497e+06
5.00882e+06
4.95254e+06
4.89612e+06
4.83959e+06
4.78293e+06
4.72615e+06
4.66927e+06
4.61228e+06
4.55519e+06
4.49801e+06
4.44074e+06
4.38338e+06
4.32596e+06
4.26846e+06
4.21089e+06
4.15327e+06
4.0956e+06
4.03788e+06
3.98012e+06
3.92233e+06
3.86451e+06
3.80668e+06
3.74883e+06
3.69098e+06
3.63313e+06
3.57529e+06
3.51746e+06
3.45967e+06
3.4019e+06
3.34418e+06
3.2865e+06
3.22889e+06
3.17134e+06
3.11386e+06
3.05647e+06
2.99917e+06
2.94198e+06
2.88489e+06
2.82793e+06
2.7711e+06
2.71441e+06
2.65787e+06
2.60149e+06
2.54529e+06
2.48926e+06
2.43344e+06
2.37782e+06
2.32242e+06
2.26725e+06
2.21232e+06
2.15764e+06
2.10324e+06
2.04912e+06
1.99529e+06
1.94177e+06
1.88857e+06
1.83571e+06
1.78321e+06
1.73108e+06
1.67933e+06
1.62799e+06
1.57707e+06
1.5266e+06
1.47659e+06
1.42707e+06
1.37805e+06
1.32957e+06
1.28165e+06
1.2343e+06
1.18752e+06
1.14129e+06
9.01572e+06
9.01474e+06
9.01286e+06
9.01008e+06
9.00637e+06
9.00172e+06
8.99613e+06
8.98959e+06
8.9821e+06
8.97365e+06
8.96424e+06
8.95387e+06
8.94256e+06
8.93029e+06
8.91709e+06
8.90295e+06
8.88789e+06
8.87191e+06
8.85504e+06
8.83727e+06
8.81863e+06
8.79912e+06
8.77876e+06
8.75757e+06
8.73555e+06
8.71272e+06
8.6891e+06
8.6647e+06
8.63954e+06
8.61362e+06
8.58696e+06
8.55958e+06
8.53149e+06
8.5027e+06
8.47323e+06
8.44308e+06
8.41228e+06
8.38083e+06
8.34875e+06
8.31604e+06
8.28273e+06
8.24882e+06
8.21432e+06
8.17924e+06
8.1436e+06
8.10741e+06
8.07068e+06
8.03341e+06
7.99562e+06
7.95733e+06
7.91853e+06
7.87924e+06
7.83947e+06
7.79922e+06
7.75851e+06
7.71735e+06
7.67574e+06
7.63369e+06
7.59121e+06
7.54831e+06
7.505e+06
7.46128e+06
7.41717e+06
7.37266e+06
7.32777e+06
7.2825e+06
7.23686e+06
7.19087e+06
7.14451e+06
7.09781e+06
7.05077e+06
7.00339e+06
6.95568e+06
6.90764e+06
6.85929e+06
6.81063e+06
6.76167e+06
6.7124e+06
6.66284e+06
6.613e+06
6.56287e+06
6.51246e+06
6.46178e+06
6.41084e+06
6.35963e+06
6.30817e+06
6.25646e+06
6.2045e+06
6.1523e+06
6.09986e+06
6.04719e+06
5.9943e+06
5.94118e+06
5.88785e+06
5.83431e+06
5.78056e+06
5.7266e+06
5.67245e+06
5.61811e+06
5.56357e+06
5.50886e+06
5.45396e+06
5.39889e+06
5.34365e+06
5.28824e+06
5.23268e+06
5.17696e+06
5.12109e+06
5.06508e+06
5.00892e+06
4.95263e+06
4.89621e+06
4.83966e+06
4.783e+06
4.72621e+06
4.66932e+06
4.61233e+06
4.55524e+06
4.49805e+06
4.44078e+06
4.38342e+06
4.32599e+06
4.26849e+06
4.21092e+06
4.1533e+06
4.09562e+06
4.0379e+06
3.98014e+06
3.92235e+06
3.86453e+06
3.80669e+06
3.74884e+06
3.69099e+06
3.63314e+06
3.57529e+06
3.51747e+06
3.45967e+06
3.40191e+06
3.34418e+06
3.28651e+06
3.22889e+06
3.17134e+06
3.11387e+06
3.05648e+06
2.99918e+06
2.94198e+06
2.8849e+06
2.82793e+06
2.7711e+06
2.71441e+06
2.65787e+06
2.60149e+06
2.54529e+06
2.48926e+06
2.43344e+06
2.37782e+06
2.32242e+06
2.26724e+06
2.21232e+06
2.15764e+06
2.10323e+06
2.04911e+06
1.99528e+06
1.94176e+06
1.88856e+06
1.8357e+06
1.78319e+06
1.73105e+06
1.6793e+06
1.62795e+06
1.57701e+06
1.52652e+06
1.47649e+06
1.42694e+06
1.37789e+06
1.32936e+06
1.28137e+06
1.23393e+06
1.18703e+06
1.14064e+06
9.04726e+06
9.0462e+06
9.04419e+06
9.04121e+06
9.03726e+06
9.03232e+06
9.02638e+06
9.01945e+06
9.01152e+06
9.00258e+06
8.99266e+06
8.98173e+06
8.96983e+06
8.95695e+06
8.9431e+06
8.9283e+06
8.91256e+06
8.8959e+06
8.87832e+06
8.85984e+06
8.84049e+06
8.82027e+06
8.7992e+06
8.7773e+06
8.75458e+06
8.73106e+06
8.70676e+06
8.68169e+06
8.65586e+06
8.6293e+06
8.60201e+06
8.57401e+06
8.54532e+06
8.51595e+06
8.48591e+06
8.45521e+06
8.42387e+06
8.39191e+06
8.35933e+06
8.32614e+06
8.29236e+06
8.25799e+06
8.22306e+06
8.18756e+06
8.15152e+06
8.11494e+06
8.07784e+06
8.04022e+06
8.00209e+06
7.96346e+06
7.92435e+06
7.88476e+06
7.84471e+06
7.80419e+06
7.76322e+06
7.7218e+06
7.67996e+06
7.63768e+06
7.59498e+06
7.55188e+06
7.50837e+06
7.46446e+06
7.42017e+06
7.37549e+06
7.33044e+06
7.28502e+06
7.23924e+06
7.1931e+06
7.14662e+06
7.09979e+06
7.05263e+06
7.00514e+06
6.95732e+06
6.90919e+06
6.86074e+06
6.81199e+06
6.76294e+06
6.7136e+06
6.66396e+06
6.61405e+06
6.56385e+06
6.51338e+06
6.46264e+06
6.41164e+06
6.36038e+06
6.30887e+06
6.25711e+06
6.20511e+06
6.15287e+06
6.10039e+06
6.04769e+06
5.99476e+06
5.94161e+06
5.88825e+06
5.83467e+06
5.7809e+06
5.72692e+06
5.67274e+06
5.61838e+06
5.56382e+06
5.50909e+06
5.45417e+06
5.39909e+06
5.34383e+06
5.28841e+06
5.23283e+06
5.1771e+06
5.12122e+06
5.06519e+06
5.00903e+06
4.95273e+06
4.8963e+06
4.83975e+06
4.78307e+06
4.72628e+06
4.66939e+06
4.61239e+06
4.55529e+06
4.4981e+06
4.44082e+06
4.38346e+06
4.32603e+06
4.26852e+06
4.21095e+06
4.15332e+06
4.09565e+06
4.03792e+06
3.98016e+06
3.92236e+06
3.86454e+06
3.80671e+06
3.74885e+06
3.691e+06
3.63315e+06
3.5753e+06
3.51748e+06
3.45968e+06
3.40191e+06
3.34419e+06
3.28652e+06
3.2289e+06
3.17135e+06
3.11387e+06
3.05648e+06
2.99918e+06
2.94198e+06
2.8849e+06
2.82794e+06
2.7711e+06
2.71441e+06
2.65787e+06
2.60149e+06
2.54529e+06
2.48927e+06
2.43344e+06
2.37782e+06
2.32242e+06
2.26724e+06
2.21231e+06
2.15764e+06
2.10323e+06
2.0491e+06
1.99527e+06
1.94175e+06
1.88854e+06
1.83568e+06
1.78317e+06
1.73102e+06
1.67926e+06
1.6279e+06
1.57695e+06
1.52644e+06
1.47639e+06
1.42681e+06
1.37772e+06
1.32914e+06
1.28108e+06
1.23355e+06
1.18654e+06
1.14002e+06
9.0831e+06
9.08194e+06
9.07976e+06
9.07655e+06
9.0723e+06
9.067e+06
9.06065e+06
9.05324e+06
9.04477e+06
9.03526e+06
9.0247e+06
9.01311e+06
9.00051e+06
8.98689e+06
8.97229e+06
8.95671e+06
8.94017e+06
8.9227e+06
8.9043e+06
8.885e+06
8.86483e+06
8.84378e+06
8.8219e+06
8.79919e+06
8.77567e+06
8.75137e+06
8.72629e+06
8.70046e+06
8.67389e+06
8.64659e+06
8.6186e+06
8.58991e+06
8.56055e+06
8.53052e+06
8.49985e+06
8.46854e+06
8.43662e+06
8.40408e+06
8.37094e+06
8.33722e+06
8.30293e+06
8.26806e+06
8.23265e+06
8.19669e+06
8.16021e+06
8.1232e+06
8.08568e+06
8.04767e+06
8.00917e+06
7.97018e+06
7.93073e+06
7.89081e+06
7.85044e+06
7.80962e+06
7.76836e+06
7.72668e+06
7.68457e+06
7.64204e+06
7.59911e+06
7.55578e+06
7.51205e+06
7.46794e+06
7.42345e+06
7.37859e+06
7.33336e+06
7.28777e+06
7.24183e+06
7.19555e+06
7.14892e+06
7.10196e+06
7.05467e+06
7.00705e+06
6.95912e+06
6.91088e+06
6.86233e+06
6.81348e+06
6.76434e+06
6.71491e+06
6.66519e+06
6.6152e+06
6.56493e+06
6.51439e+06
6.46358e+06
6.41252e+06
6.3612e+06
6.30964e+06
6.25782e+06
6.20577e+06
6.15349e+06
6.10097e+06
6.04822e+06
5.99526e+06
5.94207e+06
5.88868e+06
5.83508e+06
5.78127e+06
5.72726e+06
5.67306e+06
5.61867e+06
5.5641e+06
5.50934e+06
5.45441e+06
5.3993e+06
5.34403e+06
5.2886e+06
5.233e+06
5.17726e+06
5.12136e+06
5.06533e+06
5.00915e+06
4.95284e+06
4.8964e+06
4.83984e+06
4.78316e+06
4.72636e+06
4.66946e+06
4.61245e+06
4.55535e+06
4.49815e+06
4.44087e+06
4.38351e+06
4.32607e+06
4.26856e+06
4.21099e+06