/*--------------------------------*- C++ -*----------------------------------*\
  =========                 |
  \\      /  F ield         | OpenFOAM: The Open Source CFD Toolbox
   \\    /   O peration     | Website:  https://openfoam.org
    \\  /    A nd           | Version:  7
     \\/     M anipulation  |
\*---------------------------------------------------------------------------*/
FoamFile
{
    version     2.0;
    format      ascii;
    class       volScalarField;
    location    "0.026";
    object      s_0;
}
// * * * * * * * * * * * * * * * * * * * * * * * * * * * * * * * * * * * * * //

dimensions      [0 0 0 0 0 0 0];

internalField   nonuniform List<scalar> 
12225
(
1
1
1
1
1
1
1
1
1
1
1
1
1
1
1
1
1
1
1
1
1
1
1
1
1
1
1
1
1
1
1
1
1
1
1
1
1
1
1
1
1
1
1
1
1
1
1
1
1
1
1
1
1
1
1
1
1
1
1
1
1
1
1
1
1
1
1
1
1
1
1
1
1
1
1
1
1
1
1
1
1
1
1
1
1
1
1
1
1
1
1
1
1
1
1
1
1
1
1
1
1
1
1
1
1
1
1
1
1
1
1
1
1
1
1
1
1
1
1
1
1
1
1
1
1
1
1
1
1
1
1
1
1
1
1
1
1
1
1
1
1
1
1
1
1
1
1
1
1
1
1
1
1
1
1
1
1
1
1
1
1
1
1
1
1
1
1
1
1
1
1
1
1
1
1
1
1
1
1
1
1
1
1
1
1
1
1
1
1
1
1
1
1
1
1
1
1
1
1
1
1
1
1
1
1
1
1
1
1
1
1
1
1
1
1
1
1
1
1
1
1
1
1
1
1
1
1
1
1
1
1
1
1
1
1
1
1
1
1
1
1
1
1
1
1
1
1
1
1
1
1
1
1
1
1
1
1
1
1
1
1
1
1
1
1
1
1
1
1
1
1
1
1
1
1
1
1
1
1
1
1
1
1
1
1
1
1
1
1
1
1
1
1
1
1
1
1
1
1
1
1
1
1
1
1
1
1
1
1
1
1
1
1
1
1
1
1
1
1
1
1
1
1
1
1
1
1
1
1
1
1
1
1
1
1
1
1
1
1
1
1
1
1
1
1
1
1
1
1
1
1
1
1
1
1
1
1
1
1
1
1
1
1
1
1
1
1
1
1
1
1
1
1
1
1
1
1
1
1
1
1
1
1
1
1
1
1
1
1
1
1
1
1
1
1
1
1
1
1
1
1
1
1
1
1
1
1
1
1
1
1
1
1
1
1
1
1
1
1
1
1
1
1
1
1
1
1
1
1
1
1
1
1
1
1
1
1
1
1
1
1
1
1
1
1
1
1
1
1
1
1
1
1
1
1
1
1
1
1
1
1
1
1
1
1
1
1
1
1
1
1
1
1
1
1
1
1
1
1
1
1
1
1
1
1
1
1
1
1
1
1
1
1
1
1
1
1
1
1
1
1
1
1
1
1
1
1
1
1
1
1
1
1
1
1
1
1
1
1
1
1
1
1
1
1
1
1
1
1
1
1
1
1
1
1
1
1
1
1
1
4.01359e-17
1.0303e-15
1.16977e-14
8.18367e-14
4.58287e-13
2.32453e-12
1.03496e-11
3.70974e-11
9.74407e-11
1.29144e-10
2.73101e-11
3.21107e-13
1.29312e-10
1.17201e-09
7.57382e-09
4.12748e-08
1.93779e-07
7.82283e-07
2.67286e-06
7.70931e-06
1.92097e-05
4.20401e-05
8.21287e-05
0.000145462
0.000236919
0.000359311
0.000513028
0.000696473
0.000906868
0.00114094
0.00139582
0.00167008
0.00196381
0.00227808
0.00261549
0.0029807
0.00337833
0.00381169
0.00428738
0.00481678
0.0054092
0.00607662
0.00683801
0.00768786
0.00860974
0.00960218
0.0103551
0.0108537
0.0111549
0.011238
0.0110223
0.0106109
0.00992091
0.00911752
0.00819014
0.00714945
0.00612742
0.00513743
0.0041629
0.00333657
0.00256833
0.00194266
0.00141897
0.00100686
0.000694026
0.000462404
0.000298521
0.000186292
0.000112336
6.54826e-05
3.68817e-05
2.0072e-05
1.05477e-05
5.35548e-06
2.62821e-06
1.24706e-06
5.72301e-07
2.54112e-07
1.09204e-07
4.54373e-08
1.83103e-08
7.14867e-09
2.70485e-09
9.92158e-10
3.52912e-10
1.21765e-10
4.0763e-11
1.32437e-11
4.17692e-12
1.27911e-12
3.80421e-13
1.09904e-13
3.08485e-14
8.41406e-15
2.23044e-15
5.74699e-16
1.43942e-16
3.5046e-17
8.29431e-18
1.90789e-18
4.26438e-19
9.25786e-20
1.951e-20
3.98753e-21
7.89448e-22
1.51126e-22
2.78946e-23
4.94433e-24
8.35776e-25
1.33218e-25
1.95774e-26
2.72621e-27
3.73686e-28
5.04539e-29
6.72515e-30
7.92618e-31
1.64771e-31
3.38605e-32
6.87752e-33
1.38067e-33
2.74018e-34
5.58786e-35
9.66151e-36
1.12571e-36
1.24388e-37
1.48742e-38
2.79054e-39
5.2723e-40
9.80916e-41
1.7817e-41
3.3698e-42
4.21116e-43
3.80448e-44
3.22795e-45
5.17456e-46
8.59949e-47
1.46243e-47
2.49877e-48
4.33902e-49
4.99928e-50
3.36668e-51
3.05147e-52
5.07846e-53
7.90383e-54
1.19767e-54
1.8456e-55
2.08356e-56
1.2853e-57
9.58815e-59
1.40326e-59
1.92971e-60
2.52279e-61
3.24489e-62
4.39487e-63
3.15548e-64
1.99185e-65
1.96784e-66
2.41925e-67
2.87905e-68
3.39739e-69
4.18688e-70
2.75793e-71
1.64093e-72
1.34793e-73
1.40427e-74
1.54616e-75
1.70089e-76
1.87751e-77
1.33319e-78
6.14358e-80
5.00834e-81
5.35618e-82
5.15224e-83
4.79168e-84
4.56935e-85
2.24311e-86
1.0232e-87
8.5213e-89
6.83044e-90
9.71511e-92
1.91491e-15
5.22728e-14
6.36934e-13
4.6328e-12
2.55707e-11
1.31137e-10
7.06989e-10
3.40452e-09
1.39902e-08
5.00336e-08
1.58308e-07
4.49952e-07
1.1671e-06
2.79526e-06
6.24391e-06
1.3121e-05
2.61364e-05
4.96798e-05
9.06029e-05
0.00015916
0.000269891
0.000442293
0.000701192
0.00107679
0.00160386
0.00232135
0.0032713
0.00449817
0.00604867
0.00797264
0.0103241
0.0131611
0.0165448
0.0205397
0.0252171
0.0306459
0.0368694
0.0438951
0.0517275
0.0603617
0.0696682
0.0793887
0.0894075
0.0996968
0.109663
0.117487
0.124074
0.128187
0.130443
0.131133
0.128632
0.124604
0.118147
0.110374
0.101123
0.0906422
0.0797831
0.0689153
0.0579287
0.0480022
0.0387435
0.0306734
0.0235604
0.0175804
0.0127519
0.00897134
0.00612812
0.00404637
0.0025833
0.00159584
0.000952424
0.000549024
0.000305747
0.000164515
8.55538e-05
4.30162e-05
2.09196e-05
9.84457e-06
4.48501e-06
1.9791e-06
8.46303e-07
3.50887e-07
1.4113e-07
5.50959e-08
2.08881e-08
7.69473e-09
2.75574e-09
9.59986e-10
3.25465e-10
1.07445e-10
3.45566e-11
1.08333e-11
3.31204e-12
9.87961e-13
2.87673e-13
8.18032e-14
2.27269e-14
6.17147e-15
1.63865e-15
4.25591e-16
1.08159e-16
2.69052e-17
6.55313e-18
1.56324e-18
3.6533e-19
8.36628e-20
1.87787e-20
4.13215e-21
8.91549e-22
1.88647e-22
3.91528e-23
7.97127e-24
1.59216e-24
3.12036e-25
6.00117e-26
1.13275e-26
2.09866e-27
3.8167e-28
6.81401e-29
1.1942e-29
2.05807e-30
3.49593e-31
5.85279e-32
9.65686e-33
1.57017e-33
2.51573e-34
3.97151e-35
6.17736e-36
9.46656e-37
1.42927e-37
2.12602e-38
3.11561e-39
4.49827e-40
6.39842e-41
8.96659e-42
1.23798e-42
1.68399e-43
2.25691e-44
2.98019e-45
3.87742e-46
4.9707e-47
6.27882e-48
7.81509e-49
9.58507e-50
1.15843e-50
1.37966e-51
1.61923e-52
1.87281e-53
2.13471e-54
2.39802e-55
2.65493e-56
2.897e-57
3.11568e-58
3.30278e-59
3.45096e-60
3.55424e-61
3.60837e-62
3.61115e-63
3.56252e-64
3.46464e-65
3.32165e-66
3.13942e-67
2.92514e-68
2.68687e-69
2.43298e-70
2.17178e-71
1.91096e-72
1.65738e-73
1.41668e-74
1.1933e-75
9.90248e-77
8.09399e-78
6.51285e-79
5.15732e-80
4.01405e-81
3.06939e-82
2.29851e-83
1.6847e-84
1.19746e-85
7.77032e-87
7.72408e-14
2.43445e-12
3.39651e-11
2.98724e-10
1.9113e-09
9.59295e-09
3.96218e-08
1.39465e-07
4.29673e-07
1.18331e-06
2.96426e-06
6.85348e-06
1.4803e-05
3.01702e-05
5.85028e-05
0.00010867
0.000194474
0.000336906
0.000567195
0.000930732
0.00149154
0.00233731
0.00358462
0.00538318
0.00791783
0.0114074
0.0161005
0.0222713
0.0302204
0.0402814
0.0528334
0.0683124
0.0872095
0.110039
0.137273
0.16922
0.205914
0.247213
0.29321
0.344304
0.394421
0.436464
0.475865
0.51196
0.542551
0.565736
0.58266
0.593116
0.598493
0.600221
0.592516
0.580648
0.562006
0.537933
0.507931
0.47185
0.430811
0.386215
0.337704
0.288973
0.241848
0.201641
0.164435
0.129996
0.0995622
0.0739324
0.0535223
0.0375605
0.025411
0.0166156
0.0105057
0.00640394
0.00376614
0.00213744
0.00117052
0.000618772
0.00031587
0.000155776
7.42552e-05
3.42305e-05
1.52688e-05
6.59416e-06
2.75895e-06
1.119e-06
4.4025e-07
1.68124e-07
6.23598e-08
2.24804e-08
7.88141e-09
2.68893e-09
8.93309e-10
2.89157e-10
9.12497e-11
2.80896e-11
8.43948e-12
2.47612e-12
7.09799e-13
1.9889e-13
5.4501e-14
1.46115e-14
3.83407e-15
9.85066e-16
2.47893e-16
6.11228e-17
1.47712e-17
3.49968e-18
8.13128e-19
1.85317e-19
4.14385e-20
9.09322e-21
1.95861e-21
4.14168e-22
8.59965e-23
1.75362e-23
3.51249e-24
6.91174e-25
1.33635e-25
2.53906e-26
4.74135e-27
8.70292e-28
1.57039e-28
2.78593e-29
4.85959e-30
8.33573e-31
1.40636e-31
2.33822e-32
3.8315e-33
6.18752e-34
9.84706e-35
1.54427e-35
2.38643e-36
3.63386e-37
5.45219e-38
8.0602e-39
1.17405e-39
1.68494e-40
2.38255e-41
3.31936e-42
4.55641e-43
6.1624e-44
8.21183e-45
1.0782e-45
1.39486e-46
1.77806e-47
2.23333e-48
2.76416e-49
3.37121e-50
4.05167e-51
4.79866e-52
5.6009e-53
6.44259e-54
7.3037e-55
8.16055e-56
8.98681e-57
9.75473e-58
1.04367e-58
1.10069e-59
1.14428e-60
1.17268e-61
1.18474e-62
1.17995e-63
1.15856e-64
1.12148e-65
1.07025e-66
1.00694e-67
9.33988e-69
8.54047e-70
7.69862e-71
6.84056e-72
5.99092e-73
5.17028e-74
4.3967e-75
3.68198e-76
3.03664e-77
2.46292e-78
1.96538e-79
1.53745e-80
1.18126e-81
8.82918e-83
6.4605e-84
5.27303e-13
1.55219e-11
2.0747e-10
1.74555e-09
1.06635e-08
5.10336e-08
2.01027e-07
6.75514e-07
1.99096e-06
5.26132e-06
1.26959e-05
2.83602e-05
5.93394e-05
0.000117456
0.000221748
0.000402055
0.000704211
0.00119747
0.00198482
0.00321681
0.00510942
0.00796669
0.0122077
0.0183973
0.0272793
0.0398127
0.0572188
0.0810496
0.113281
0.156403
0.213479
0.288536
0.381848
0.459001
0.548824
0.621035
0.6911
0.754079
0.794672
0.835849
0.856322
0.881693
0.897677
0.906488
0.915677
0.920777
0.924168
0.928775
0.931512
0.934014
0.935428
0.935923
0.933076
0.929882
0.922825
0.9122
0.896951
0.876119
0.847932
0.810513
0.760665
0.694526
0.617266
0.531455
0.439894
0.347865
0.264906
0.200695
0.145846
0.101633
0.0685486
0.0446174
0.0279031
0.0168202
0.00976249
0.00545722
0.00293951
0.00152629
0.000764366
0.000369417
0.000172409
7.77532e-05
3.39076e-05
1.4309e-05
5.84758e-06
2.31591e-06
8.89551e-07
3.31624e-07
1.20079e-07
4.22615e-08
1.44674e-08
4.82061e-09
1.56447e-09
4.94839e-10
1.52637e-10
4.59419e-11
1.35005e-11
3.87535e-12
1.08719e-12
2.9822e-13
8.00181e-14
2.10106e-14
5.40073e-15
1.35951e-15
3.35252e-16
8.10131e-17
1.91893e-17
4.45655e-18
1.01505e-18
2.26791e-19
4.97179e-20
1.06965e-20
2.25891e-21
4.68345e-22
9.53512e-23
1.90658e-23
3.74477e-24
7.22614e-25
1.37013e-25
2.55304e-26
4.67575e-27
8.41785e-28
1.48992e-28
2.5929e-29
4.43735e-30
7.46779e-31
1.23611e-31
2.01542e-32
3.2379e-33
5.12545e-34
7.99385e-35
1.22836e-35
1.85966e-36
2.77378e-37
4.07603e-38
5.90098e-39
8.4165e-40
1.18266e-40
1.63722e-41
2.23296e-42
3.00044e-43
3.97214e-44
5.18093e-45
6.65802e-46
8.43038e-47
1.05178e-47
1.29299e-48
1.56628e-49
1.86965e-50
2.19929e-51
2.5495e-52
2.91267e-53
3.27949e-54
3.6393e-55
3.98054e-56
4.29134e-57
4.56023e-58
4.77682e-59
4.93244e-60
5.02077e-61
5.0382e-62
4.9841e-63
4.86084e-64
4.67364e-65
4.43015e-66
4.13999e-67
3.81401e-68
3.46384e-69
3.10086e-70
2.73614e-71
2.37912e-72
2.03848e-73
1.72011e-74
1.42955e-75
1.16855e-76
9.39949e-78
7.41625e-79
5.7493e-80
4.34738e-81
3.22482e-82
1.30167e-12
3.77727e-11
4.96304e-10
4.15472e-09
2.5489e-08
1.23324e-07
4.92202e-07
1.67483e-06
4.98847e-06
1.33131e-05
3.26392e-05
7.50357e-05
0.000160177
0.000315953
0.000589493
0.00106087
0.00185005
0.00314028
0.00521981
0.00854144
0.0137386
0.0217603
0.0340052
0.0525199
0.0802857
0.121619
0.182823
0.273557
0.399005
0.504817
0.614622
0.701298
0.754701
0.819122
0.851301
0.890137
0.907758
0.92341
0.933816
0.9398
0.943464
0.944986
0.94541
0.944848
0.942925
0.942425
0.944082
0.947725
0.952008
0.956891
0.963995
0.969813
0.973515
0.979033
0.981951
0.984313
0.985651
0.986047
0.984246
0.980682
0.974383
0.9644
0.949158
0.926145
0.891507
0.839652
0.762342
0.653799
0.530541
0.402632
0.28825
0.203709
0.136873
0.0882256
0.0547478
0.0325813
0.0186364
0.0102451
0.00541708
0.00275672
0.00135121
0.000638411
0.000290992
0.000128066
5.44677e-05
2.24066e-05
8.92338e-06
3.4433e-06
1.28851e-06
4.67982e-07
1.65104e-07
5.66255e-08
1.88941e-08
6.13782e-09
1.94256e-09
5.99368e-10
1.804e-10
5.29974e-11
1.52049e-11
4.26225e-12
1.16796e-12
3.12995e-13
8.20629e-14
2.10581e-14
5.29064e-15
1.30184e-15
3.13834e-16
7.41418e-17
1.71698e-17
3.89865e-18
8.68201e-19
1.89662e-19
4.06528e-20
8.55147e-21
1.7657e-21
3.57935e-22
7.12494e-23
1.39291e-23
2.67486e-24
5.04644e-25
9.35499e-26
1.70427e-26
3.05165e-27
5.37139e-28
9.29508e-29
1.58157e-29
2.64632e-30
4.35453e-31
7.05455e-32
1.12584e-32
1.76995e-33
2.74103e-34
4.18149e-35
6.28366e-36
9.30159e-37
1.35634e-37
1.94826e-38
2.75675e-39
3.84261e-40
5.27644e-41
7.13753e-42
9.51168e-43
1.24876e-43
1.61521e-44
2.05833e-45
2.58436e-46
3.19711e-47
3.89711e-48
4.68087e-49
5.54018e-50
6.46176e-51
7.42719e-52
8.41321e-53
9.39247e-54
1.03346e-54
1.12079e-55
1.19807e-56
1.26237e-57
1.31114e-58
1.34241e-59
1.3549e-60
1.34811e-61
1.32235e-62
1.27873e-63
1.21904e-64
1.14568e-65
1.06146e-66
9.69461e-68
8.72763e-69
7.74438e-70
6.77171e-71
5.83463e-72
4.95113e-73
4.13784e-74
3.40198e-75
2.75212e-76
2.18541e-77
1.70493e-78
1.30056e-79
9.73622e-81
2.01677e-12
6.87062e-11
9.90936e-10
8.80981e-09
5.60586e-08
2.7726e-07
1.12309e-06
3.85435e-06
1.14574e-05
2.98917e-05
6.91758e-05
0.000145546
0.000299284
0.000604036
0.00116623
0.00216093
0.00387571
0.00676857
0.0115675
0.0194215
0.0321438
0.0526684
0.0858077
0.139295
0.225656
0.365012
0.502244
0.626162
0.712617
0.779872
0.835137
0.863157
0.888478
0.900618
0.907755
0.912269
0.913571
0.913802
0.906757
0.893005
0.876814
0.856471
0.838112
0.817333
0.806381
0.801945
0.803043
0.816368
0.835767
0.855947
0.882891
0.90922
0.930953
0.953244
0.968408
0.979182
0.987103
0.991313
0.993879
0.995477
0.996159
0.996518
0.995848
0.994076
0.990605
0.984344
0.973359
0.954237
0.921156
0.864416
0.768519
0.62693
0.469163
0.323723
0.218013
0.139439
0.0854364
0.0501189
0.0281744
0.0151908
0.00786275
0.00391071
0.00187094
0.000861862
0.000382688
0.000163962
6.78558e-05
2.71538e-05
1.05175e-05
3.947e-06
1.43651e-06
5.07498e-07
1.74192e-07
5.81375e-08
1.88825e-08
5.97254e-09
1.84102e-09
5.53401e-10
1.62317e-10
4.64809e-11
1.30016e-11
3.55419e-12
9.49943e-13
2.48342e-13
6.35276e-14
1.59072e-14
3.90021e-15
9.36659e-16
2.20396e-16
5.08246e-17
1.14897e-17
2.54691e-18
5.53724e-19
1.18099e-19
2.47154e-20
5.07628e-21
1.02345e-21
2.02588e-22
3.93792e-23
7.51796e-24
1.4099e-24
2.59776e-25
4.70331e-26
8.3688e-27
1.46367e-27
2.51651e-28
4.25394e-29
7.07086e-30
1.15588e-30
1.86064e-31
2.94976e-32
4.60558e-33
7.08217e-34
1.0726e-34
1.59995e-35
2.35059e-36
3.40141e-37
4.84798e-38
6.80602e-39
9.41165e-40
1.28201e-40
1.72021e-41
2.2738e-42
2.96085e-43
3.7983e-44
4.80051e-45
5.9776e-46
7.33373e-47
8.8654e-48
1.056e-48
1.23949e-49
1.43367e-50
1.63419e-51
1.83577e-52
2.03243e-53
2.21775e-54
2.38521e-55
2.52854e-56
2.64217e-57
2.72152e-58
2.76334e-59
2.76594e-60
2.72925e-61
2.65486e-62
2.54588e-63
2.40677e-64
2.24293e-65
2.0605e-66
1.8658e-67
1.66523e-68
1.46458e-69
1.26924e-70
1.08339e-71
9.10736e-73
7.53342e-74
6.13142e-75
4.90194e-76
3.85052e-77
2.96352e-78
2.2397e-79
1.63965e-12
6.10558e-11
9.20175e-10
8.59679e-09
5.75508e-08
2.99418e-07
1.27583e-06
4.62728e-06
1.48894e-05
4.35296e-05
0.000116802
0.000289215
0.000653155
0.00135927
0.0026328
0.0048164
0.00850052
0.0146182
0.0246089
0.0408796
0.0685099
0.118739
0.207374
0.358805
0.518106
0.642749
0.741937
0.80615
0.845295
0.867841
0.880923
0.886978
0.889776
0.890302
0.878445
0.857627
0.820396
0.765163
0.689717
0.630832
0.571469
0.528988
0.498808
0.480774
0.472899
0.470353
0.476291
0.488631
0.512458
0.549
0.602885
0.671295
0.748546
0.823413
0.876747
0.92206
0.952245
0.972559
0.984474
0.992107
0.99577
0.997587
0.998481
0.998895
0.999095
0.99894
0.998295
0.996785
0.993602
0.987027
0.97358
0.946367
0.892067
0.787853
0.622316
0.439687
0.289977
0.183757
0.110759
0.0637758
0.035103
0.018493
0.0093366
0.0045232
0.00210545
0.000942869
0.00040675
0.000169247
6.80089e-05
2.64227e-05
9.93682e-06
3.62119e-06
1.28008e-06
4.39363e-07
1.46559e-07
4.75524e-08
1.50193e-08
4.62129e-09
1.38614e-09
4.05563e-10
1.15815e-10
3.22971e-11
8.79966e-12
2.34354e-12
6.10331e-13
1.55496e-13
3.87696e-14
9.4631e-15
2.26196e-15
5.29636e-16
1.21517e-16
2.73264e-17
6.02457e-18
1.30249e-18
2.76203e-19
5.74632e-20
1.17314e-20
2.3507e-21
4.62404e-22
8.93107e-23
1.69404e-23
3.15614e-24
5.77666e-25
1.03885e-25
1.83593e-26
3.18895e-27
5.44493e-28
9.14003e-29
1.50858e-29
2.44998e-30
3.91769e-31
6.16861e-32
9.56414e-33
1.46021e-33
2.19538e-34
3.25041e-35
4.73934e-36
6.8055e-37
9.62458e-38
1.34059e-38
1.83917e-39
2.48527e-40
3.30801e-41
4.33732e-42
5.60213e-43
7.12823e-44
8.93562e-45
1.10357e-45
1.34286e-46
1.61001e-47
1.90204e-48
2.21421e-49
2.54007e-50
2.87157e-51
3.19933e-52
3.51303e-53
3.80194e-54
4.05551e-55
4.26403e-56
4.41918e-57
4.51465e-58
4.54652e-59
4.51352e-60
4.41713e-61
4.26142e-62
4.05283e-63
3.79962e-64
3.5115e-65
3.19875e-66
2.87197e-67
2.54108e-68
2.21539e-69
1.90252e-70
1.60911e-71
1.33949e-72
1.09723e-73
8.83435e-75
6.9908e-76
5.42889e-77
4.14325e-78
1.06554e-12
4.96063e-11
8.52685e-10
8.96986e-09
6.71577e-08
3.80665e-07
1.68518e-06
6.09779e-06
1.89182e-05
5.42051e-05
0.000144989
0.000362442
0.000842833
0.00181428
0.00363452
0.00689074
0.012677
0.0230209
0.0417493
0.0770604
0.143863
0.264504
0.434035
0.593794
0.721576
0.790351
0.837576
0.859012
0.868568
0.872578
0.873926
0.864261
0.840127
0.790007
0.703647
0.618674
0.520921
0.461591
0.416807
0.393264
0.374148
0.366279
0.363379
0.363135
0.368105
0.370366
0.375164
0.378918
0.381533
0.383802
0.386742
0.399676
0.435059
0.508763
0.627647
0.756822
0.842298
0.906349
0.946636
0.971876
0.985488
0.99299
0.996724
0.998498
0.999256
0.999579
0.999715
0.999756
0.999653
0.999281
0.998309
0.995899
0.99006
0.976154
0.943615
0.868836
0.715803
0.514289
0.334025
0.207923
0.122745
0.0690209
0.0370223
0.0189738
0.00930597
0.00437517
0.00197493
0.000857259
0.000358372
0.000144492
5.6265e-05
2.11877e-05
7.7252e-06
2.73033e-06
9.36404e-07
3.11949e-07
1.01036e-07
3.18421e-08
9.77243e-09
2.92271e-09
8.52383e-10
2.42555e-10
6.73836e-11
1.82847e-11
4.84856e-12
1.25696e-12
3.18708e-13
7.90656e-14
1.91983e-14
4.56419e-15
1.06274e-15
2.42427e-16
5.4194e-17
1.18756e-17
2.55153e-18
5.37649e-19
1.11135e-19
2.25398e-20
4.48639e-21
8.7655e-22
1.68142e-22
3.16724e-23
5.85958e-24
1.06491e-24
1.90146e-25
3.33631e-26
5.75328e-27
9.75213e-28
1.62508e-28
2.66329e-29
4.29653e-30
6.82339e-31
1.06682e-31
1.64215e-32
2.48876e-33
3.71381e-34
5.45683e-35
7.89525e-36
1.1249e-36
1.57837e-37
2.18106e-38
2.9683e-39
3.97882e-40
5.2532e-41
6.83187e-42
8.75227e-43
1.10456e-43
1.37329e-44
1.68216e-45
2.0301e-46
2.41401e-47
2.82846e-48
3.26565e-49
3.71551e-50
4.16598e-51
4.60344e-52
5.01343e-53
5.38133e-54
5.69331e-55
5.93712e-56
6.10289e-57
6.18383e-58
6.17661e-59
6.08166e-60
5.90304e-61
5.64823e-62
5.32751e-63
4.95337e-64
4.53958e-65
4.10055e-66
3.65025e-67
3.20189e-68
2.7668e-69
2.35481e-70
1.97303e-71
1.62701e-72
1.31952e-73
1.05222e-74
8.24439e-76
6.35415e-77
4.7572e-13
3.34991e-11
6.85542e-10
7.81384e-09
6.17285e-08
3.74467e-07
1.90402e-06
8.14393e-06
2.95117e-05
9.06785e-05
0.000242957
0.000594072
0.00136408
0.0029899
0.00623957
0.0123204
0.0231826
0.0422941
0.0766909
0.142315
0.262485
0.435856
0.61574
0.745036
0.810036
0.842381
0.857151
0.862034
0.863404
0.853377
0.823918
0.759446
0.646045
0.545888
0.471492
0.413935
0.380949
0.36267
0.353998
0.350468
0.349374
0.34962
0.351352
0.354444
0.35958
0.365502
0.372624
0.380582
0.385005
0.386832
0.37583
0.359561
0.351558
0.347086
0.365154
0.42936
0.580217
0.742584
0.849431
0.917552
0.956985
0.978673
0.989863
0.995421
0.998034
0.999188
0.999659
0.999834
0.999905
0.999931
0.999912
0.999797
0.999426
0.998334
0.995214
0.986548
0.963129
0.901489
0.750643
0.532426
0.339484
0.205836
0.118281
0.0645887
0.033587
0.0166669
0.0079084
0.0035952
0.00156883
0.000658306
0.000266078
0.000103754
3.90889e-05
1.42478e-05
5.03076e-06
1.72271e-06
5.72724e-07
1.85035e-07
5.81467e-08
1.77872e-08
5.30062e-09
1.53983e-09
4.36333e-10
1.20673e-10
3.25894e-11
8.59861e-12
2.2175e-12
5.59195e-13
1.37943e-13
3.3299e-14
7.86884e-15
1.82087e-15
4.12738e-16
9.16688e-17
1.99546e-17
4.25852e-18
8.912e-19
1.82937e-19
3.68415e-20
7.28086e-21
1.41231e-21
2.68946e-22
5.02897e-23
9.23533e-24
1.66596e-24
2.95249e-25
5.14161e-26
8.79965e-27
1.4803e-27
2.44831e-28
3.98493e-29
6.38346e-30
1.00648e-30
1.56206e-31
2.38648e-32
3.58931e-33
5.31474e-34
7.74813e-35
1.11219e-35
1.572e-36
2.18798e-37
2.99899e-38
4.04826e-39
5.38208e-40
7.04763e-41
9.09013e-42
1.15493e-42
1.4455e-43
1.78232e-44
2.16511e-45
2.59132e-46
3.05584e-47
3.55085e-48
4.0658e-49
4.58767e-50
5.10141e-51
5.59063e-52
6.03839e-53
6.4282e-54
6.74499e-55
6.97609e-56
7.11204e-57
7.14725e-58
7.08036e-59
6.91429e-60
6.65608e-61
6.31628e-62
5.90838e-63
5.44777e-64
4.95095e-65
4.43433e-66
3.91372e-67
3.40318e-68
2.91493e-69
2.45852e-70
2.04127e-71
1.66769e-72
1.34032e-73
1.05946e-74
8.24524e-76
1.12182e-13
1.52803e-11
3.99773e-10
5.27148e-09
4.72854e-08
3.19568e-07
1.70452e-06
7.55492e-06
2.85499e-05
9.34971e-05
0.000275383
0.000725217
0.00173313
0.00380788
0.00789531
0.0157279
0.030498
0.0590404
0.116362
0.224371
0.392385
0.580142
0.733379
0.806816
0.839743
0.85241
0.855889
0.854929
0.836737
0.783696
0.664727
0.547948
0.473176
0.410241
0.37882
0.358043
0.348964
0.343254
0.337784
0.332991
0.327169
0.320518
0.315439
0.313282
0.316908
0.327773
0.34697
0.371037
0.396439
0.419808
0.429421
0.429457
0.391978
0.343523
0.322206
0.313447
0.335915
0.428207
0.625187
0.79553
0.891153
0.945584
0.974056
0.988219
0.994866
0.997859
0.99914
0.999667
0.999871
0.999945
0.999972
0.99998
0.999971
0.999917
0.999716
0.999027
0.996756
0.989552
0.967559
0.902706
0.729622
0.494614
0.3071
0.180252
0.100125
0.0527759
0.0264663
0.0126589
0.00578864
0.00253631
0.00106705
0.000431879
0.000168467
6.34383e-05
2.30953e-05
8.13994e-06
2.78088e-06
9.2192e-07
2.96891e-07
9.29598e-08
2.83239e-08
8.40429e-09
2.43022e-09
6.8527e-10
1.88542e-10
5.06427e-11
1.32865e-11
3.40634e-12
8.53772e-13
2.0929e-13
5.01964e-14
1.17835e-14
2.70832e-15
6.09664e-16
1.34456e-16
2.906e-17
6.15684e-18
1.27904e-18
2.60604e-19
5.20903e-20
1.02167e-20
1.96673e-21
3.71659e-22
6.8961e-23
1.25662e-23
2.24919e-24
3.95505e-25
6.83365e-26
1.16037e-26
1.93679e-27
3.18034e-28
5.13865e-29
8.1704e-30
1.27847e-30
1.96891e-31
2.98455e-32
4.45329e-33
6.54127e-34
9.45915e-35
1.34673e-35
1.88788e-36
2.60594e-37
3.54222e-38
4.74173e-39
6.25133e-40
8.11727e-41
1.03819e-41
1.30796e-42
1.62326e-43
1.98466e-44
2.39062e-45
2.83716e-46
3.31764e-47
3.8227e-48
4.34038e-49
4.8565e-50
5.35522e-51
5.81982e-52
6.23357e-53
6.58079e-54
6.84776e-55
7.02365e-56
7.10121e-57
7.07729e-58
6.95303e-59
6.73374e-60
6.42854e-61
6.04972e-62
5.61188e-63
5.13112e-64
4.62389e-65
4.10631e-66
3.59316e-67
3.09747e-68
2.62989e-69
2.1987e-70
1.80959e-71
1.46588e-72
1.16878e-73
9.18296e-75
3.53291e-14
5.74552e-12
1.61466e-10
2.70034e-09
2.87638e-08
2.19303e-07
1.27473e-06
5.99884e-06
2.41181e-05
8.51236e-05
0.000258827
0.000701725
0.00174394
0.00408331
0.00905902
0.0191676
0.0389702
0.078382
0.156598
0.293206
0.479008
0.670898
0.783122
0.829408
0.846453
0.85063
0.846776
0.822798
0.756579
0.632788
0.5126
0.439715
0.38902
0.362102
0.349142
0.34047
0.331651
0.317119
0.296626
0.262835
0.219987
0.190879
0.175822
0.170533
0.175205
0.190649
0.215547
0.248467
0.298711
0.370186
0.432768
0.459644
0.470826
0.445642
0.367546
0.309846
0.292468
0.300769
0.363926
0.56575
0.767136
0.881197
0.943176
0.974221
0.988775
0.99532
0.998117
0.999268
0.999726
0.999901
0.999965
0.999986
0.999993
0.999994
0.999986
0.999945
0.999777
0.99913
0.996749
0.988398
0.960466
0.870759
0.648248
0.414693
0.248469
0.140179
0.0747661
0.0378241
0.0182053
0.00836015
0.00367245
0.0015469
0.000626166
0.00024406
9.17615e-05
3.33338e-05
1.17165e-05
3.98994e-06
1.31795e-06
4.22722e-07
1.3178e-07
3.99628e-08
1.17983e-08
3.39349e-09
9.51544e-10
2.60271e-10
6.94837e-11
1.81144e-11
4.61382e-12
1.14865e-12
2.79635e-13
6.65952e-14
1.55205e-14
3.5411e-15
7.91191e-16
1.73172e-16
3.71413e-17
7.80813e-18
1.60941e-18
3.25336e-19
6.45135e-20
1.25524e-20
2.39696e-21
4.49312e-22
8.26951e-23
1.49466e-23
2.65351e-24
4.628e-25
7.9311e-26
1.33578e-26
2.21273e-27
3.60581e-28
5.78096e-29
9.1193e-30
1.41555e-30
2.16239e-31
3.25101e-32
4.81079e-33
7.00751e-34
1.00483e-34
1.41853e-35
1.97166e-36
2.69838e-37
3.63651e-38
4.82619e-39
6.30802e-40
8.12041e-41
1.02965e-41
1.28603e-42
1.5823e-43
1.91794e-44
2.29039e-45
2.69487e-46
3.12424e-47
3.56905e-48
4.01778e-49
4.45722e-50
4.87314e-51
5.25096e-52
5.57665e-53
5.83753e-54
6.02312e-55
6.12582e-56
6.14142e-57
6.06937e-58
5.91281e-59
5.67833e-60
5.37552e-61
5.01629e-62
4.61413e-63
4.18326e-64
3.73785e-65
3.29124e-66
2.85541e-67
2.44049e-68
2.0545e-69
1.70335e-70
1.39066e-71
1.11825e-72
8.86752e-74
1.47228e-14
2.27285e-12
6.82847e-11
1.26294e-09
1.45723e-08
1.2222e-07
7.87155e-07
4.1276e-06
1.80532e-05
6.69363e-05
0.000219165
0.000629586
0.00164807
0.00409101
0.00976861
0.021974
0.0471313
0.0984201
0.197636
0.359315
0.556005
0.726603
0.806441
0.836674
0.846104
0.847804
0.836085
0.788337
0.671821
0.520652
0.431697
0.38281
0.355211
0.342407
0.334084
0.320573
0.295831
0.253632
0.199037
0.152458
0.127003
0.111602
0.104918
0.103224
0.112546
0.128672
0.153612
0.186202
0.214383
0.255552
0.344697
0.440243
0.481447
0.494512
0.474756
0.376399
0.297309
0.282214
0.292716
0.36744
0.598039
0.790691
0.899687
0.954582
0.980086
0.99163
0.99662
0.998685
0.999507
0.999821
0.999937
0.999979
0.999993
0.999997
0.999998
0.999997
0.999987
0.999938
0.999721
0.998812
0.99522
0.981793
0.934171
0.775073
0.515972
0.314459
0.179735
0.0967571
0.0492612
0.023806
0.0109563
0.00481654
0.00202802
0.000819835
0.000318883
0.00011957
4.3295e-05
1.51614e-05
5.14179e-06
1.69078e-06
5.39669e-07
1.67364e-07
5.04745e-08
1.48153e-08
4.23539e-09
1.18009e-09
3.20663e-10
8.50238e-11
2.20103e-11
5.56574e-12
1.37541e-12
3.32315e-13
7.8533e-14
1.81598e-14
4.11041e-15
9.1102e-16
1.97781e-16
4.20718e-17
8.77161e-18
1.79297e-18
3.59409e-19
7.0671e-20
1.36344e-20
2.58154e-21
4.79806e-22
8.75567e-23
1.56906e-23
2.76185e-24
4.77586e-25
8.11505e-26
1.35588e-26
2.22806e-27
3.60128e-28
5.72612e-29
8.95745e-30
1.37871e-30
2.08817e-31
3.11248e-32
4.56599e-33
6.59308e-34
9.37141e-35
1.31136e-35
1.80664e-36
2.4507e-37
3.27349e-38
4.30592e-39
5.57809e-40
7.11707e-41
8.94422e-42
1.10723e-42
1.35026e-43
1.6222e-44
1.92012e-45
2.23931e-46
2.57328e-47
2.91387e-48
3.25153e-49
3.5757e-50
3.87534e-51
4.13958e-52
4.3583e-53
4.52282e-54
4.62646e-55
4.66496e-56
4.6368e-57
4.54325e-58
4.38831e-59
4.1784e-60
3.92193e-61
3.62874e-62
3.30947e-63
2.97496e-64
2.63566e-65
2.30112e-66
1.97965e-67
1.67797e-68
1.40125e-69
1.15285e-70
9.34713e-72
7.47858e-73
6.59748e-15
8.05748e-13
3.50054e-11
5.72308e-10
6.87434e-09
6.00841e-08
4.24463e-07
2.47812e-06
1.20155e-05
4.84607e-05
0.000166059
0.000507734
0.0014337
0.00374997
0.00910813
0.0207713
0.045031
0.0948901
0.192644
0.354671
0.558418
0.731957
0.808476
0.836363
0.844613
0.841382
0.812859
0.727502
0.579637
0.451045
0.393522
0.362345
0.343744
0.33238
0.31693
0.28812
0.243849
0.188202
0.137857
0.104356
0.0872395
0.0768158
0.0730446
0.0741382
0.0817724
0.0971341
0.121423
0.161191
0.196012
0.226191
0.28543
0.389088
0.47298
0.505555
0.504138
0.463519
0.34216
0.284415
0.279626
0.308937
0.457118
0.704903
0.858746
0.937797
0.974163
0.989598
0.995904
0.998414
0.999398
0.999778
0.99992
0.999972
0.999991
0.999997
0.999999
0.999999
0.999999
0.999996
0.999978
0.999888
0.999469
0.997645
0.990176
0.961387
0.855903
0.599002
0.370096
0.213518
0.115631
0.0590676
0.028584
0.0131536
0.00577516
0.00242642
0.000978087
0.00037913
0.000141603
5.10496e-05
1.77922e-05
6.00318e-06
1.96329e-06
6.23044e-07
1.92049e-07
5.75517e-08
1.67807e-08
4.76426e-09
1.318e-09
3.55504e-10
9.35499e-11
2.40299e-11
6.0283e-12
1.47769e-12
3.54091e-13
8.29807e-14
1.9026e-14
4.26963e-15
9.38138e-16
2.01895e-16
4.25703e-17
8.79728e-18
1.78229e-18
3.54092e-19
6.90049e-20
1.31941e-20
2.47582e-21
4.56038e-22
8.24743e-23
1.46475e-23
2.55515e-24
4.37916e-25
7.37832e-26
1.22235e-26
1.9914e-27
3.19086e-28
5.0291e-29
7.79758e-30
1.18949e-30
1.78544e-31
2.63725e-32
3.83378e-33
5.48544e-34
7.72584e-35
1.0712e-35
1.46224e-36
1.96532e-37
2.60102e-38
3.38991e-39
4.3511e-40
5.50058e-41
6.84931e-42
8.40129e-43
1.01516e-43
1.20848e-44
1.4174e-45
1.63801e-46
1.86526e-47
2.09306e-48
2.31458e-49
2.52249e-50
2.70943e-51
2.86837e-52
2.9931e-53
3.07859e-54
3.12135e-55
3.11966e-56
3.07365e-57
2.98534e-58
2.85843e-59
2.69809e-60
2.51058e-61
2.30289e-62
2.08225e-63
1.85583e-64
1.63027e-65
1.41149e-66
1.2044e-67
1.01288e-68
8.39575e-70
6.8617e-71
5.53726e-72
1.57598e-10
1.55226e-11
-8.02339e-12
1.94126e-10
2.34147e-09
2.62423e-08
1.98836e-07
1.22176e-06
6.40732e-06
2.82499e-05
0.000106303
0.000357243
0.00108272
0.00297197
0.00746695
0.0174511
0.0385679
0.0824093
0.171382
0.327624
0.536131
0.717556
0.802102
0.833594
0.842996
0.840321
0.814586
0.731962
0.580377
0.447287
0.380999
0.348439
0.331236
0.31859
0.29758
0.263067
0.214931
0.159519
0.116263
0.0879077
0.0717424
0.0624959
0.0606639
0.0641262
0.0712946
0.0853897
0.107723
0.148582
0.190415
0.22044
0.272583
0.374974
0.466345
0.510804
0.515012
0.488091
0.376855
0.29212
0.275359
0.289517
0.395443
0.656475
0.835315
0.928416
0.971179
0.988797
0.995694
0.998361
0.999383
0.999772
0.999918
0.999971
0.99999
0.999997
0.999999
1
1
1
0.999998
0.99999
0.999943
0.999705
0.998589
0.993685
0.973497
0.89512
0.657961
0.409223
0.237203
0.128714
0.0657432
0.0317637
0.0145781
0.00637881
0.00266938
0.00107124
0.000413232
0.000153538
5.50469e-05
1.90734e-05
6.39598e-06
2.0783e-06
6.55114e-07
2.00524e-07
5.96555e-08
1.72637e-08
4.86347e-09
1.33474e-09
3.57081e-10
9.31804e-11
2.3731e-11
5.90167e-12
1.4339e-12
3.40527e-13
7.90803e-14
1.7966e-14
3.99462e-15
8.69565e-16
1.8539e-16
3.87238e-17
7.92707e-18
1.59083e-18
3.13068e-19
6.0433e-20
1.14457e-20
2.12742e-21
3.88158e-22
6.95349e-23
1.22328e-23
2.114e-24
3.59068e-25
5.99534e-26
9.84199e-27
1.58872e-27
2.5221e-28
3.93808e-29
6.04879e-30
9.1404e-31
1.35901e-31
1.98835e-32
2.86297e-33
4.05733e-34
5.65988e-35
7.77244e-36
1.05083e-36
1.39884e-37
1.83359e-38
2.36686e-39
3.00894e-40
3.76755e-41
4.64667e-42
5.64536e-43
6.7568e-44
7.96745e-45
9.25667e-46
1.05968e-46
1.19538e-47
1.32884e-48
1.45579e-49
1.57184e-50
1.67273e-51
1.75456e-52
1.81407e-53
1.84885e-54
1.8575e-55
1.83969e-56
1.79624e-57
1.729e-58
1.64074e-59
1.53498e-60
1.41573e-61
1.28727e-62
1.15388e-63
1.01964e-64
8.88236e-66
7.62793e-67
6.45847e-68
5.39197e-69
4.44052e-70
3.61276e-71
0.000260791
2.08215e-05
1.36252e-06
9.74158e-08
8.28428e-09
1.02635e-08
6.58449e-08
5.04725e-07
2.82117e-06
1.32395e-05
5.40948e-05
0.000196289
0.000632349
0.00182133
0.00475823
0.0114378
0.0258296
0.0565279
0.123232
0.268851
0.477606
0.675368
0.781364
0.825064
0.83989
0.839497
0.823183
0.757505
0.608587
0.465975
0.388761
0.35052
0.331283
0.318795
0.299127
0.267061
0.222281
0.168762
0.125381
0.0958572
0.0783568
0.0671827
0.064655
0.0662839
0.0716586
0.0851446
0.107652
0.147641
0.200089
0.237903
0.289702
0.390572
0.487865
0.530065
0.529758
0.495953
0.384319
0.293418
0.269159
0.279107
0.37326
0.635388
0.826017
0.925049
0.970296
0.989317
0.996358
0.998775
0.999583
0.999854
0.999948
0.999981
0.999993
0.999998
0.999999
1
1
1
1
0.999999
0.999994
0.999963
0.999797