/*--------------------------------*- C++ -*----------------------------------*\
  =========                 |
  \\      /  F ield         | OpenFOAM: The Open Source CFD Toolbox
   \\    /   O peration     | Website:  https://openfoam.org
    \\  /    A nd           | Version:  7
     \\/     M anipulation  |
\*---------------------------------------------------------------------------*/
FoamFile
{
    version     2.0;
    format      ascii;
    class       volVectorField;
    location    "0.026";
    object      U;
}
// * * * * * * * * * * * * * * * * * * * * * * * * * * * * * * * * * * * * * //

dimensions      [0 1 -1 0 0 0 0];

internalField   nonuniform List<vector> 
12225
(
(4.74735 0.178482 0)
(4.11244 0.120449 0)
(3.69854 0.0930045 0)
(3.37726 0.0814658 0)
(3.02865 0.0772614 0)
(2.66497 0.0674709 0)
(2.33227 0.0537377 0)
(2.04747 0.0419741 0)
(1.80309 0.034133 0)
(1.59265 0.0282029 0)
(1.41164 0.0221317 0)
(1.26123 0.0160186 0)
(1.13441 0.0103961 0)
(1.03708 0.00564676 0)
(0.953216 0.00203721 0)
(0.896359 -4.71091e-05 0)
(0.842146 0.00221548 0)
(0.781409 -0.00301117 0)
(5.01836 0.118795 0)
(4.84481 0.0613234 0)
(4.76339 0.0725928 0)
(4.7181 0.0823252 0)
(4.63434 0.0953936 0)
(4.5048 0.10373 0)
(4.35122 0.103691 0)
(4.19579 0.0986438 0)
(4.04848 0.0922676 0)
(3.91363 0.0858611 0)
(3.78584 0.0793727 0)
(3.66468 0.0724236 0)
(3.54542 0.0648466 0)
(3.43656 0.0564107 0)
(3.33535 0.0494282 0)
(3.24764 0.0412816 0)
(3.16788 0.0407382 0)
(3.08986 0.0358209 0)
(4.93241 0.184529 0)
(4.81188 0.125413 0)
(4.77361 0.106602 0)
(4.7793 0.111101 0)
(4.79505 0.129481 0)
(4.78979 0.141736 0)
(4.75103 0.140685 0)
(4.69036 0.131297 0)
(4.62774 0.119809 0)
(4.57644 0.110013 0)
(4.53785 0.103373 0)
(4.50591 0.0990759 0)
(4.47492 0.0947258 0)
(4.43954 0.0874781 0)
(4.40295 0.0786883 0)
(4.36136 0.0702182 0)
(4.32571 0.0651066 0)
(4.27998 0.0613414 0)
(4.98629 0.163196 0)
(4.8939 0.0920007 0)
(4.80389 0.0849106 0)
(4.7754 0.0933274 0)
(4.78548 0.107273 0)
(4.79313 0.123806 0)
(4.78305 0.134913 0)
(4.76136 0.136172 0)
(4.73919 0.128459 0)
(4.7225 0.116041 0)
(4.71391 0.103948 0)
(4.71233 0.0946786 0)
(4.71646 0.0882051 0)
(4.72034 0.0820026 0)
(4.72174 0.0767774 0)
(4.71426 0.0719087 0)
(4.70238 0.0700768 0)
(4.67942 0.0699652 0)
(5.00478 0.201768 0)
(4.92362 0.134211 0)
(4.83228 0.110102 0)
(4.78198 0.106477 0)
(4.77234 0.12044 0)
(4.78079 0.137967 0)
(4.78555 0.146188 0)
(4.77772 0.142154 0)
(4.76028 0.13004 0)
(4.74056 0.115688 0)
(4.72622 0.103467 0)
(4.72098 0.094671 0)
(4.72505 0.0888205 0)
(4.73339 0.0844206 0)
(4.74184 0.0815857 0)
(4.74568 0.0803201 0)
(4.74603 0.0817216 0)
(4.74133 0.0845486 0)
(5.05675 0.214354 0)
(5.00847 0.142436 0)
(4.87464 0.128002 0)
(4.77111 0.121312 0)
(4.74386 0.118757 0)
(4.76251 0.125219 0)
(4.78466 0.137526 0)
(4.79089 0.146054 0)
(4.78478 0.143959 0)
(4.77764 0.131688 0)
(4.77719 0.114719 0)
(4.78381 0.0984129 0)
(4.79359 0.0858025 0)
(4.80082 0.077179 0)
(4.8024 0.0721945 0)
(4.79784 0.0705664 0)
(4.78988 0.0715645 0)
(4.78075 0.0746444 0)
(4.88597 0.199691 0)
(4.83258 0.16943 0)
(4.8242 0.155369 0)
(4.83198 0.134801 0)
(4.83389 0.123475 0)
(4.82564 0.127617 0)
(4.81092 0.138463 0)
(4.79477 0.142395 0)
(4.78137 0.133432 0)
(4.77334 0.115639 0)
(4.7722 0.0973369 0)
(4.77794 0.0846143 0)
(4.78823 0.0791221 0)
(4.79854 0.0793629 0)
(4.80501 0.0826462 0)
(4.8056 0.0869254 0)
(4.80202 0.0907353 0)
(4.79519 0.0932404 0)
(4.9995 0.222698 0)
(4.95468 0.174258 0)
(4.91535 0.129673 0)
(4.8933 0.120155 0)
(4.87776 0.124511 0)
(4.87374 0.134568 0)
(4.87545 0.147529 0)
(4.87168 0.155983 0)
(4.85699 0.153137 0)
(4.83385 0.138182 0)
(4.80913 0.116078 0)
(4.78947 0.0940082 0)
(4.77853 0.0776242 0)
(4.77602 0.0692414 0)
(4.78072 0.0677947 0)
(4.78897 0.0708326 0)
(4.80066 0.0756588 0)
(4.81149 0.0807656 0)
(4.92815 0.223609 0)
(4.96016 0.194265 0)
(4.91777 0.161438 0)
(4.86545 0.138069 0)
(4.84103 0.12695 0)
(4.84476 0.13033 0)
(4.85936 0.142905 0)
(4.87488 0.152424 0)
(4.89071 0.149779 0)
(4.90552 0.135118 0)
(4.91426 0.115172 0)
(4.91172 0.0972146 0)
(4.89838 0.0850427 0)
(4.87859 0.0787606 0)
(4.86024 0.0766712 0)
(4.84721 0.0769835 0)
(4.84298 0.078279 0)
(4.84422 0.0809595 0)
(4.99118 0.240765 0)
(4.97403 0.177455 0)
(4.97288 0.159626 0)
(4.95504 0.151845 0)
(4.92312 0.13818 0)
(4.90102 0.13105 0)
(4.89996 0.134695 0)
(4.91333 0.139808 0)
(4.92785 0.137934 0)
(4.93355 0.128847 0)
(4.92892 0.117461 0)
(4.91797 0.107636 0)
(4.90698 0.099997 0)
(4.89888 0.0932849 0)
(4.89534 0.0864518 0)
(4.89454 0.0801253 0)
(4.89695 0.0748551 0)
(4.89931 0.0730049 0)
(5.04061 0.29528 0)
(4.9947 0.216296 0)
(4.95327 0.175144 0)
(4.93251 0.153437 0)
(4.92096 0.140766 0)
(4.91069 0.136523 0)
(4.90243 0.138341 0)
(4.89708 0.141125 0)
(4.89427 0.139849 0)
(4.89388 0.132138 0)
(4.89686 0.119431 0)
(4.90392 0.105187 0)
(4.91426 0.0928792 0)
(4.92546 0.0843753 0)
(4.93512 0.0794164 0)
(4.94109 0.0772958 0)
(4.94466 0.076682 0)
(4.94417 0.0773781 0)
(4.99335 0.288894 0)
(5.02308 0.206559 0)
(5.00627 0.174657 0)
(4.96825 0.161548 0)
(4.9353 0.152013 0)
(4.92601 0.145973 0)
(4.93697 0.143722 0)
(4.95625 0.142127 0)
(4.97501 0.137012 0)
(4.98924 0.126901 0)
(4.99729 0.113581 0)
(4.99906 0.100271 0)
(4.99581 0.0892365 0)
(4.9904 0.0810903 0)
(4.98574 0.075572 0)
(4.98352 0.0721834 0)
(4.98444 0.0707371 0)
(4.98698 0.0713598 0)
(4.98227 0.27612 0)
(5.04925 0.228504 0)
(5.05335 0.210973 0)
(5.02028 0.182857 0)
(4.98609 0.149147 0)
(4.96332 0.126639 0)
(4.95185 0.121169 0)
(4.95087 0.124992 0)
(4.95928 0.127345 0)
(4.97294 0.123461 0)
(4.98557 0.114981 0)
(4.9914 0.105733 0)
(4.9888 0.0978452 0)
(4.97952 0.0913286 0)
(4.96846 0.0854176 0)
(4.95939 0.0800812 0)
(4.95458 0.0758152 0)
(4.95471 0.0746887 0)
(5.01318 0.22708 0)
(5.02353 0.173817 0)
(5.03724 0.180634 0)
(5.04435 0.191066 0)
(5.03513 0.188869 0)
(5.0119 0.177001 0)
(4.99261 0.159334 0)
(4.99119 0.138546 0)
(5.00593 0.118219 0)
(5.02418 0.102982 0)
(5.03311 0.0957588 0)
(5.02635 0.0951067 0)
(5.007 0.0963117 0)
(4.98254 0.0950458 0)
(4.96196 0.0893233 0)
(4.94943 0.0813336 0)
(4.94754 0.0726452 0)
(4.95349 0.0685478 0)
(5.08121 0.340109 0)
(5.04072 0.226075 0)
(4.99429 0.204 0)
(4.98307 0.185822 0)
(4.99925 0.160214 0)
(5.02074 0.141354 0)
(5.03799 0.127318 0)
(5.04859 0.115065 0)
(5.05171 0.107681 0)
(5.04818 0.109694 0)
(5.04033 0.120858 0)
(5.03078 0.134626 0)
(5.02242 0.142118 0)
(5.01748 0.13757 0)
(5.01694 0.120733 0)
(5.0193 0.0968706 0)
(5.02426 0.0717467 0)
(5.02757 0.0525743 0)
(5.00457 0.331474 0)
(4.96828 0.258127 0)
(4.97988 0.21405 0)
(5.0194 0.178688 0)
(5.04656 0.155603 0)
(5.04886 0.146621 0)
(5.03964 0.140449 0)
(5.03142 0.130196 0)
(5.02557 0.118502 0)
(5.02171 0.110599 0)
(5.02213 0.107661 0)
(5.02881 0.106224 0)
(5.04182 0.101516 0)
(5.05878 0.0919007 0)
(5.07648 0.0795295 0)
(5.09075 0.0682475 0)
(5.10035 0.0614163 0)
(5.10313 0.0603053 0)
(4.94649 0.293558 0)
(4.96 0.203648 0)
(5.00134 0.138754 0)
(5.03207 0.125019 0)
(5.04672 0.13876 0)
(5.05115 0.149289 0)
(5.05169 0.144407 0)
(5.0526 0.129799 0)
(5.05404 0.117231 0)
(5.0567 0.11282 0)
(5.06141 0.113968 0)
(5.06688 0.11414 0)
(5.07119 0.108387 0)
(5.07309 0.0960491 0)
(5.07335 0.0798371 0)
(5.07322 0.0641432 0)
(5.07443 0.0516036 0)
(5.07845 0.0449867 0)
(5.07304 0.257908 0)
(5.04597 0.189462 0)
(5.02944 0.169751 0)
(5.00219 0.148842 0)
(4.99849 0.135608 0)
(5.01222 0.135216 0)
(5.02715 0.13694 0)
(5.03776 0.129784 0)
(5.04639 0.114829 0)
(5.05694 0.100411 0)
(5.07037 0.0923365 0)
(5.08388 0.0903198 0)
(5.0942 0.0902838 0)
(5.09987 0.087923 0)
(5.10217 0.0805714 0)
(5.10306 0.0692026 0)
(5.10498 0.055048 0)
(5.10871 0.0424485 0)
(5.02748 0.202885 0)
(5.02499 0.225634 0)
(5.04925 0.188113 0)
(5.06503 0.143198 0)
(5.06235 0.120946 0)
(5.05563 0.114985 0)
(5.05672 0.109595 0)
(5.06461 0.0959487 0)
(5.07464 0.0776506 0)
(5.08532 0.0641769 0)
(5.09779 0.0610352 0)
(5.11272 0.0662348 0)
(5.12936 0.0730212 0)
(5.14609 0.0747222 0)
(5.16134 0.0674326 0)
(5.17315 0.0523431 0)
(5.18133 0.0324334 0)
(5.18413 0.0135691 0)
(5.02173 0.215236 0)
(5.04219 0.174687 0)
(5.03141 0.146351 0)
(5.028 0.139188 0)
(5.02969 0.140786 0)
(5.04023 0.135978 0)
(5.05784 0.121327 0)
(5.07476 0.101103 0)
(5.08743 0.0799429 0)
(5.09874 0.0607407 0)
(5.11338 0.0451891 0)
(5.13358 0.0340037 0)
(5.15854 0.0272693 0)
(5.18509 0.0244779 0)
(5.21016 0.0249747 0)
(5.23045 0.0276156 0)
(5.24511 0.0317042 0)
(5.25228 0.0357842 0)
(5.06753 0.248015 0)
(5.08326 0.20016 0)
(5.05946 0.185793 0)
(5.06046 0.14911 0)
(5.08236 0.11586 0)
(5.10629 0.0919271 0)
(5.12549 0.0733413 0)
(5.14108 0.0559097 0)
(5.15522 0.0372271 0)
(5.16966 0.0173911 0)
(5.18453 -0.00118188 0)
(5.19877 -0.0154389 0)
(5.21179 -0.0240339 0)
(5.22314 -0.0270217 0)
(5.23386 -0.0252387 0)
(5.24427 -0.0201735 0)
(5.25546 -0.013305 0)
(5.26686 -0.00582057 0)
(4.98619 0.27535 0)
(5.04708 0.210283 0)
(5.10931 0.172182 0)
(5.15913 0.112388 0)
(5.2014 0.0799427 0)
(5.23064 0.0771103 0)
(5.24978 0.0781163 0)
(5.26229 0.0674998 0)
(5.27193 0.0463584 0)
(5.28139 0.0234848 0)
(5.29113 0.0054423 0)
(5.29929 -0.00572172 0)
(5.30447 -0.0110369 0)
(5.30741 -0.0124486 0)
(5.30978 -0.0118372 0)
(5.31284 -0.0103889 0)
(5.31762 -0.00891051 0)
(5.32388 -0.00750613 0)
(5.01956 0.224181 0)
(5.06701 0.117598 0)
(5.13238 0.0952639 0)
(5.17765 0.0771466 0)
(5.2128 0.0585837 0)
(5.24188 0.0482625 0)
(5.2731 0.0401322 0)
(5.30121 0.0279348 0)
(5.31775 0.0106348 0)
(5.32072 -0.007891 0)
(5.31308 -0.0231181 0)
(5.30029 -0.0325178 0)
(5.28818 -0.0359571 0)
(5.2806 -0.035889 0)
(5.27982 -0.0345611 0)
(5.28534 -0.0330682 0)
(5.29636 -0.0316043 0)
(5.31021 -0.0292076 0)
(5.17911 0.247495 0)
(5.12972 0.173195 0)
(5.13745 0.0949087 0)
(5.1534 0.0547403 0)
(5.17981 0.0347589 0)
(5.20875 0.0273508 0)
(5.24218 0.0278197 0)
(5.27933 0.0298503 0)
(5.31331 0.0303741 0)
(5.33793 0.0286749 0)
(5.35215 0.0250231 0)
(5.35916 0.0188723 0)
(5.36316 0.00954732 0)
(5.36711 -0.0027622 0)
(5.372 -0.0166593 0)
(5.37723 -0.0296 0)
(5.38198 -0.0396321 0)
(5.38517 -0.0440649 0)
(5.04925 0.296813 0)
(5.16125 0.152823 0)
(5.24098 0.0652142 0)
(5.28005 0.034705 0)
(5.28965 0.015638 0)
(5.28148 -0.0044702 0)
(5.27246 -0.0214562 0)
(5.27261 -0.0322273 0)
(5.28373 -0.0368456 0)
(5.30335 -0.0374688 0)
(5.32834 -0.036915 0)
(5.35608 -0.0376027 0)
(5.38444 -0.0402926 0)
(5.41033 -0.0439283 0)
(5.42996 -0.0466838 0)
(5.4411 -0.047478 0)
(5.44377 -0.0457652 0)
(5.43963 -0.0424681 0)
(5.15351 0.267725 0)
(5.21033 0.129819 0)
(5.27874 0.0644132 0)
(5.3258 0.0483947 0)
(5.34518 0.0432926 0)
(5.35227 0.0368721 0)
(5.36252 0.0270261 0)
(5.37852 0.0153564 0)
(5.39535 0.00387673 0)
(5.40823 -0.00717237 0)
(5.41526 -0.0182791 0)
(5.41777 -0.0287957 0)
(5.41899 -0.0373404 0)
(5.4216 -0.0423998 0)
(5.4274 -0.0430599 0)
(5.43641 -0.0399314 0)
(5.44842 -0.0345961 0)
(5.46194 -0.0298276 0)
(5.01147 0.181915 0)
(5.14953 0.0642987 0)
(5.25337 0.00694106 0)
(5.32746 -0.00165533 0)
(5.38063 -0.00662004 0)
(5.4157 -0.0195775 0)
(5.43346 -0.0353296 0)
(5.44095 -0.0475396 0)
(5.44857 -0.0521723 0)
(5.4632 -0.050051 0)
(5.4851 -0.0457356 0)
(5.50944 -0.0440641 0)
(5.53073 -0.0472851 0)
(5.54552 -0.0543343 0)
(5.55353 -0.062022 0)
(5.5565 -0.0677376 0)
(5.55713 -0.0700604 0)
(5.55737 -0.0694976 0)
(5.0033 0.189914 0)
(5.23264 0.0838612 0)
(5.38111 0.0304056 0)
(5.42281 -0.000982887 0)
(5.4452 -0.00426645 0)
(5.4881 0.00459235 0)
(5.54025 0.00953059 0)
(5.58206 0.00403044 0)
(5.60872 -0.0104817 0)
(5.62676 -0.0282422 0)
(5.64249 -0.043607 0)
(5.65647 -0.0532168 0)
(5.66541 -0.0564015 0)
(5.66611 -0.0541747 0)
(5.65818 -0.0482825 0)
(5.64493 -0.0411762 0)
(5.63051 -0.0347305 0)
(5.61981 -0.0316554 0)
(5.05063 0.0276141 0)
(5.27669 -0.0661477 0)
(5.40432 -0.0338049 0)
(5.44082 -0.0325762 0)
(5.45184 -0.0477866 0)
(5.46991 -0.0628949 0)
(5.49801 -0.0708686 0)
(5.52678 -0.07179 0)
(5.5464 -0.0694098 0)
(5.55137 -0.0666902 0)
(5.54141 -0.0639989 0)
(5.52167 -0.0607701 0)
(5.49928 -0.0571484 0)
(5.48069 -0.0540159 0)
(5.4683 -0.0523693 0)
(5.46169 -0.0528382 0)
(5.45748 -0.0554253 0)
(5.45342 -0.0600013 0)
(5.06041 0.0763168 0)
(5.1655 0.0106157 0)
(5.13191 -0.00393335 0)
(5.01471 -0.020615 0)
(4.891 -0.0211213 0)
(4.77061 -0.0166795 0)
(4.64735 -0.0169598 0)
(4.52015 -0.0210356 0)
(4.39247 -0.0254987 0)
(4.26744 -0.0288831 0)
(4.14668 -0.0312777 0)
(4.0316 -0.0332468 0)
(3.92238 -0.0349754 0)
(3.81945 -0.0357703 0)
(3.72239 -0.034671 0)
(3.63211 -0.0314436 0)
(3.54744 -0.0266617 0)
(3.46902 -0.02262 0)
(0.0193592 -0.0617968 2.89365e-20)
(0.05991 -0.0771974 -2.87268e-20)
(0.103985 -0.0768069 0)
(0.143691 -0.0742997 0)
(0.180204 -0.0712176 0)
(0.212831 -0.0676218 2.78602e-20)
(0.241181 -0.0634059 0)
(0.264804 -0.0585497 0)
(0.282973 -0.0530867 0)
(0.295018 -0.0472713 0)
(0.300463 -0.0412554 -2.67788e-20)
(0.298329 -0.0349163 0)
(0.287751 -0.0277019 0)
(0.267583 -0.0190127 0)
(0.236628 -0.00837586 0)
(0.193586 0.00449363 -2.57153e-20)
(0.137065 0.0197835 0)
(0.0658876 0.0374338 0)
(-0.0201364 0.057033 0)
(-0.121744 0.0774032 0)
(-0.239396 0.0976521 0)
(-0.372046 0.116757 0)
(-0.518543 0.13402 0)
(-0.677191 0.148992 -2.39682e-20)
(-0.845716 0.161163 2.37383e-20)
(-1.02209 0.170418 -2.35061e-20)
(-1.20425 0.176856 -2.32717e-20)
(-1.39038 0.180744 0)
(-1.57878 0.182387 0)
(-1.7679 0.182033 2.25569e-20)
(-1.95627 0.179877 2.23159e-20)
(-2.14242 0.176078 0)
(-2.32488 0.170758 0)
(-2.50213 0.163994 2.15928e-20)
(-2.67261 0.155813 0)
(-2.83466 0.146203 0)
(-2.98651 0.135171 -2.08867e-20)
(-3.12634 0.122755 0)
(-3.25231 0.10902 -2.0439e-20)
(-3.36255 0.0940536 -4.0451e-20)
(-3.45533 0.077992 0)
(-3.52913 0.0611848 0)
(-3.58266 0.0441007 0)
(-3.61489 0.027009 0)
(-3.62516 0.0102665 0)
(-3.61313 -0.00556792 -3.82822e-20)
(-3.58088 -0.0204917 -3.79902e-20)
(-3.52826 -0.0346362 -3.77165e-20)
(-3.45636 -0.0477525 0)
(-3.36643 -0.0597176 3.72163e-20)
(-3.25983 -0.0704321 0)
(-3.13821 -0.0797801 -3.67627e-20)
(-3.00328 -0.0877274 -3.65472e-20)
(-2.85688 -0.0942623 0)
(-2.70084 -0.099416 0)
(-2.53698 -0.103252 0)
(-2.36706 -0.105857 -3.57073e-20)
(-2.19273 -0.10733 0)
(-2.01554 -0.107768 0)
(-1.8369 -0.107268 0)
(-1.65812 -0.105926 0)
(-1.48035 -0.103838 0)
(-1.30468 -0.101098 0)
(-1.13212 -0.0977944 0)
(-0.963536 -0.0940278 0)
(-0.799671 -0.089909 3.35828e-20)
(-0.641143 -0.0854794 0)
(-0.488453 -0.0808727 0)
(-0.341929 -0.0761649 -3.27615e-20)
(-0.201812 -0.0713725 -3.24774e-20)
(-0.0684263 -0.0665942 0)
(0.0576407 -0.0622307 3.18903e-20)
(0.176978 -0.0577012 -3.1582e-20)
(0.290249 -0.0533452 0)
(0.397197 -0.0491696 3.09613e-20)
(0.497985 -0.0451864 0)
(0.592813 -0.0414038 0)
(0.6819 -0.037825 -3.00279e-20)
(0.765481 -0.0344491 0)
(0.843792 -0.0312721 2.94077e-20)
(0.917071 -0.0282881 0)
(0.985549 -0.0254897 -2.87915e-20)
(1.04945 -0.0228693 -2.84854e-20)
(1.109 -0.0204188 -2.81807e-20)
(1.16439 -0.0181306 -5.57553e-20)
(1.21583 -0.0159974 5.51525e-20)
(1.2635 -0.0140125 0)
(1.3076 -0.0121698 0)
(1.34828 -0.0104636 0)
(1.38574 -0.00888908 5.27777e-20)
(1.42012 -0.00744138 5.21935e-20)
(1.45159 -0.00611613 -5.16133e-20)
(1.48032 -0.00490908 0)
(1.50645 -0.00381591 5.04648e-20)
(1.53014 -0.00283219 4.98965e-20)
(1.55154 -0.00195327 4.93322e-20)
(1.5708 -0.0011742 0)
(1.58807 -0.000489921 0)
(1.60348 0.000105064 0)
(1.61718 0.000616381 4.71148e-20)
(1.6293 0.00104979 0)
(1.63996 0.00141185 0)
(1.64929 0.00170842 -4.54931e-20)
(1.6574 0.00194717 0)
(1.6644 0.00213523 0)
(1.67041 0.0022792 -4.39059e-20)
(1.67551 0.00238604 0)
(1.67981 0.00245691 0)
(1.68337 0.00250155 4.23523e-20)
(1.68627 0.00252157 4.18418e-20)
(1.68862 0.00252117 0)
(1.69041 0.00251825 -4.08315e-20)
(1.6917 0.00251116 0)
(1.69256 0.00249071 3.98353e-20)
(1.69302 0.00245566 0)
(1.69315 0.00241121 3.8853e-20)
(1.69297 0.00235914 3.83669e-20)
(1.69254 0.00230083 0)
(1.69188 0.00224295 0)
(1.69102 0.00218601 0)
(1.68999 0.00212007 0)
(1.68881 0.00204619 0)
(1.6875 0.0019739 0)
(1.68607 0.00190629 0)
(1.68453 0.00184303 3.45968e-20)
(1.68291 0.00178405 -3.41399e-20)
(1.68119 0.00172914 0)
(1.67941 0.00167699 0)
(1.67756 0.00162447 0)
(1.67567 0.00156847 0)
(1.67374 0.00150791 -6.38008e-20)
(1.6718 0.00144426 0)
(1.66986 0.0013806 6.20505e-20)
(1.66792 0.00132037 -6.11839e-20)
(1.666 0.0012659 0)
(1.66408 0.00121795 0)
(1.66217 0.00117579 0)
(1.66026 0.00113811 5.77737e-20)
(1.65836 0.00110356 5.69349e-20)
(1.65645 0.0010713 0)
(1.65453 0.00104093 5.52734e-20)
(1.65261 0.0010124 5.44505e-20)
(1.65068 0.000985791 -5.36329e-20)
(1.64873 0.000961221 0)
(1.64678 0.000938772 0)
(1.64482 0.000918475 -5.12106e-20)
(1.64284 0.000900289 0)
(1.64085 0.000884142 0)
(1.63884 0.000869944 0)
(1.63682 0.000857633 0)
(1.63477 0.000847165 4.72727e-20)
(1.6327 0.000838568 4.64995e-20)
(1.63061 0.000831858 0)
(1.62849 0.000827183 4.49671e-20)
(1.62634 0.000824581 0)
(1.62415 0.000824405 0)
(1.62192 0.000826722 4.27026e-20)
(1.61963 0.000832224 0)
(1.61729 0.000841069 4.12152e-20)
(1.61488 0.000854375 0)
(1.61237 0.000872644 0)
(1.60979 0.000897397 3.90166e-20)
(1.60704 0.000930191 0)
(1.60419 0.000972461 3.75721e-20)
(1.60106 0.00102904 0)
(1.59783 0.00109869 0)
(1.59408 0.00119742 0)
(1.59026 0.00130947 -3.47333e-20)
(1.58545 0.00148861 0)
(1.58071 0.00166026 3.33393e-20)
(1.5741 0.00200799 0)
(1.56772 0.00224779 0)
(1.55806 0.00300119 0)
(1.54829 0.0032499 0)
(1.5338 0.00511847 0)
(1.51527 0.00499979 0)
(1.49472 0.010355 0)
(1.44895 0.00830101 -5.59369e-20)
(1.42735 0.0264076 0)
(1.28137 0.0200032 0)
(0.00427558 -0.107085 -8.68381e-20)
(-0.00556383 -0.110385 8.62192e-20)
(-0.015677 -0.100545 0)
(-0.0300625 -0.0879084 -5.66313e-20)
(-0.0472969 -0.0741205 0)
(-0.0686151 -0.0595957 -2.78733e-20)
(-0.0942336 -0.0441233 5.53391e-20)
(-0.124433 -0.0272782 5.49051e-20)
(-0.159675 -0.00879235 0)
(-0.200751 0.0115997 5.40339e-20)
(-0.248446 0.0341849 2.67856e-20)
(-0.303352 0.0591831 0)
(-0.366316 0.0868606 0)
(-0.437905 0.117255 0)
(-0.518491 0.150126 0)
(-0.608102 0.184977 2.56846e-20)
(-0.706452 0.221119 0)
(-0.813078 0.25763 -5.05019e-20)
(-0.927362 0.293508 0)
(-1.04859 0.327357 0)
(-1.17574 0.358306 4.9159e-20)
(-1.30767 0.385413 0)
(-1.44346 0.408076 -4.82545e-20)
(-1.58243 0.426009 2.39037e-20)
(-1.72377 0.439157 -2.36763e-20)
(-1.86684 0.44779 2.3447e-20)
(-2.011 0.452273 2.32157e-20)
(-2.15567 0.453033 0)
(-2.30025 0.450437 0)
(-2.44409 0.444753 -2.25111e-20)
(-2.58646 0.436139 2.22385e-20)
(-2.72657 0.424637 0)
(-2.86351 0.410171 0)
(-2.99632 0.392587 -2.15606e-20)
(-3.12392 0.371722 0)
(-3.24508 0.34742 0)
(-3.35835 0.319558 2.08634e-20)
(-3.46217 0.288089 0)
(-3.55493 0.253068 -2.03625e-20)
(-3.63498 0.214648 4.04199e-20)
(-3.70071 0.173134 0)
(-3.75072 0.129105 0)
(-3.78382 0.0833214 7.83919e-20)
(-3.79887 0.0365273 7.76985e-20)
(-3.79525 -0.0103871 7.70448e-20)
(-3.7727 -0.056374 -3.81576e-20)
(-3.7292 -0.100669 3.79759e-20)
(-3.66592 -0.14269 1.13008e-19)
(-3.58349 -0.181781 -7.47988e-20)
(-3.48298 -0.217459 -3.72007e-20)
(-3.36597 -0.249346 0)
(-3.23406 -0.277167 3.67469e-20)
(-3.08909 -0.300795 -3.64703e-20)
(-2.93292 -0.320224 0)
(-2.76742 -0.335561 0)
(-2.59444 -0.34701 0)
(-2.41571 -0.354838 3.56928e-20)
(-2.23283 -0.359342 0)
(-2.0473 -0.360816 -7.04943e-20)
(-1.86046 -0.359541 0)
(-1.67356 -0.355788 -6.96021e-20)
(-1.48772 -0.349824 0)
(-1.30397 -0.341921 6.86588e-20)
(-1.12329 -0.332352 0)
(-0.94655 -0.321398 -6.76603e-20)
(-0.774441 -0.309313 3.35649e-20)
(-0.607518 -0.296362 0)
(-0.446322 -0.282885 6.60634e-20)
(-0.291092 -0.26899 3.27574e-20)
(-0.142019 -0.255005 3.24743e-20)
(7.3569e-05 -0.240965 0)
(0.135413 -0.227615 3.18753e-20)
(0.264739 -0.214255 3.15718e-20)
(0.38799 -0.201324 0)
(0.505277 -0.188891 -3.09511e-20)
(0.616774 -0.176997 6.12759e-20)
(0.722688 -0.165665 0)
(0.82325 -0.154903 3.00174e-20)
(0.918698 -0.144704 0)
(1.00927 -0.135054 -8.81878e-20)
(1.0952 -0.125934 0)
(1.17672 -0.117319 8.63385e-20)
(1.25404 -0.109184 2.8474e-20)
(1.32736 -0.101502 -2.81669e-20)
(1.39689 -0.0942486 -5.57274e-20)
(1.46279 -0.0873994 5.51244e-20)
(1.52524 -0.0809323 0)
(1.58439 -0.0748274 0)
(1.6404 -0.0690669 0)
(1.69339 -0.0636351 -1.58251e-19)
(1.74351 -0.0585182 -5.21666e-20)
(1.79088 -0.053704 5.15859e-20)
(1.83561 -0.0491816 0)
(1.87782 -0.0449409 5.04342e-20)
(1.91762 -0.0409725 -4.98675e-20)
(1.9551 -0.0372673 -4.93028e-20)
(1.99039 -0.0338161 0)
(2.02356 -0.0306099 0)
(2.05472 -0.0276391 0)
(2.08396 -0.0248943 -4.70839e-20)
(2.11137 -0.0223656 0)
(2.13704 -0.0200429 9.19954e-20)
(2.16104 -0.0179166 1.36383e-19)
(2.18346 -0.0159753 -8.98556e-20)
(2.20439 -0.0142071 0)
(2.2239 -0.0125999 -4.38729e-20)
(2.24206 -0.0111407 0)
(2.25894 -0.00982109 -8.56677e-20)
(2.27462 -0.00862786 4.23194e-20)
(2.28916 -0.00755112 4.1809e-20)
(2.30263 -0.00658276 0)
(2.31509 -0.00570498 1.22398e-19)
(2.32664 -0.00491306 -8.0599e-20)
(2.33733 -0.00420786 -3.98035e-20)
(2.34721 -0.0035835 0)
(2.35632 -0.00303204 -3.88216e-20)
(2.36471 -0.00254625 -1.15007e-19)
(2.37243 -0.00211637 0)
(2.37952 -0.00173774 -7.47485e-20)
(2.38604 -0.00140755 -7.37971e-20)
(2.39199 -0.00111129 -7.28522e-20)
(2.39742 -0.000839287 0)
(2.40238 -0.000596878 0)
(2.40689 -0.000383762 0)
(2.41098 -0.000196657 3.45682e-20)
(2.41469 -3.03513e-05 3.41118e-20)
(2.41805 0.000113803 0)
(2.42109 0.000237351 6.64155e-20)
(2.42383 0.000341948 6.55206e-20)
(2.4263 0.000427165 0)
(2.42853 0.00049313 6.37488e-20)
(2.43054 0.000541464 1.25743e-19)
(2.43234 0.000574627 -6.20002e-20)
(2.43395 0.000596191 -6.11344e-20)
(2.4354 0.000610127 0)
(2.43669 0.000620302 0)
(2.43786 0.000629587 0)
(2.4389 0.000639795 -5.77278e-20)
(2.43983 0.000651528 5.68898e-20)
(2.44066 0.000664661 1.12114e-19)
(2.44138 0.00067858 -5.523e-20)
(2.44199 0.000692633 5.4408e-20)
(2.44251 0.000706275 5.35912e-20)
(2.44293 0.000719199 0)
(2.44326 0.000731327 0)
(2.4435 0.00074275 -5.11715e-20)
(2.44365 0.000753641 0)
(2.44373 0.000764219 0)
(2.44374 0.000774713 9.75934e-20)
(2.44367 0.000785393 0)
(2.44355 0.000796544 4.72376e-20)
(2.44336 0.000808542 -4.64653e-20)
(2.44311 0.00082177 0)
(2.4428 0.000836779 4.49343e-20)
(2.44244 0.000854089 0)
(2.44203 0.000874504 0)
(2.44155 0.000898822 -4.26721e-20)
(2.44102 0.000928182 8.38538e-20)
(2.44043 0.000964071 -4.11861e-20)
(2.43977 0.00100781 0)
(2.43903 0.0010627 0)
(2.43821 0.00112924 3.89895e-20)
(2.43727 0.0012157 0)
(2.43624 0.00131789 3.75462e-20)
(2.43503 0.00145853 0)
(2.43369 0.00161516 0)
(2.43205 0.00185351 0)
(2.43024 0.00209061 3.47101e-20)
(2.42793 0.00251947 0)
(2.42534 0.00286623 -3.33173e-20)
(2.42195 0.00369833 0)
(2.41795 0.0041572 0)
(2.41284 0.00591333 6.2521e-20)
(2.40599 0.0063718 -6.11695e-20)
(2.39833 0.0104273 0)
(2.38485 0.0104421 0)
(2.37418 0.0207649 0)
(2.34315 0.0194343 1.67675e-19)
(2.33252 0.0490715 0)
(2.25301 0.048336 -1.06704e-19)
(-0.0109582 -0.0528481 -3.95604e-23)
(-0.0621742 -0.0299321 -1.15e-19)
(-0.110267 -0.0184511 0)
(-0.160701 -0.00324545 1.13259e-19)
(-0.211855 0.013797 0)
(-0.265058 0.0331425 0)
(-0.320645 0.0548679 3.98733e-23)
(-0.379396 0.0791926 -5.48601e-20)
(-0.441782 0.106218 -5.44599e-20)
(-0.508042 0.135984 -5.39791e-20)
(-0.578332 0.168596 0)
(-0.652719 0.20413 0)
(-0.731146 0.242342 5.26914e-20)
(-0.813451 0.282773 1.04495e-19)
(-0.899382 0.324804 -1.03605e-19)
(-0.988591 0.367686 0)
(-1.08063 0.410566 -1.01822e-19)
(-1.17502 0.452518 5.04387e-20)
(-1.27125 0.492596 0)
(-1.36902 0.529881 -9.91336e-20)
(-1.46827 0.563597 -4.91061e-20)
(-1.56915 0.593086 9.73271e-20)
(-1.67194 0.617882 4.82106e-20)
(-1.77703 0.637773 0)
(-1.88488 0.652821 -9.45796e-20)
(-1.99591 0.66325 -9.36505e-20)
(-2.11044 0.669336 0)
(-2.22865 0.671345 -9.17703e-20)
(-2.35053 0.669459 0)
(-2.47584 0.663742 -8.98621e-20)
(-2.60411 0.654111 -4.44953e-20)
(-2.7346 0.640344 0)
(-2.86628 0.622076 0)
(-2.99784 0.598857 0)
(-3.12762 0.570236 0)
(-3.25378 0.535802 0)
(-3.37424 0.495219 0)
(-3.48673 0.448277 -8.22502e-20)
(-3.58887 0.394986 1.22135e-19)
(-3.67825 0.335617 0)
(-3.75248 0.270656 0)
(-3.80944 0.200836 0)
(-3.84732 0.127265 -2.01444e-22)
(-3.86464 0.0513674 -7.76865e-20)
(-3.8604 -0.0253718 -1.53868e-19)
(-3.83404 -0.101499 1.52632e-19)
(-3.78582 -0.175425 7.5652e-20)
(-3.71654 -0.24564 -7.52856e-20)
(-3.6274 -0.311009 1.52538e-22)
(-3.51983 -0.370549 -7.41557e-20)
(-3.39554 -0.423534 0)
(-3.25644 -0.469521 -7.32849e-20)
(-3.10456 -0.508305 1.04368e-22)
(-2.942 -0.539929 0)
(-2.77081 -0.564635 0)
(-2.59295 -0.582824 7.16583e-20)
(-2.4102 -0.595017 0)
(-2.22414 -0.60177 0)
(-2.03617 -0.603599 -7.03603e-20)
(-1.84756 -0.60097 -1.39963e-19)
(-1.65948 -0.594304 6.95781e-20)
(-1.47297 -0.584013 0)
(-1.28902 -0.570532 -6.86363e-20)
(-1.10854 -0.55431 0)
(-0.932338 -0.535781 -6.75953e-20)
(-0.761051 -0.515377 -6.71206e-20)
(-0.595242 -0.493663 1.33146e-19)
(-0.435351 -0.471018 6.60172e-20)
(-0.281609 -0.447821 0)
(-0.134135 -0.424558 -1.2983e-19)
(0.00616728 -0.401493 0)
(0.139593 -0.378972 -1.91202e-19)
(0.267088 -0.357011 -1.26232e-19)
(0.388417 -0.335801 -1.24997e-19)
(0.503773 -0.315465 1.23757e-19)
(0.613376 -0.296074 -1.83781e-19)
(0.71747 -0.277661 0)
(0.816318 -0.26023 0)
(0.910186 -0.243764 1.18793e-19)
(0.999334 -0.228233 1.76339e-19)
(1.08401 -0.213598 0)
(1.16446 -0.199815 -5.75518e-20)
(1.24091 -0.186835 0)
(1.31357 -0.174611 1.68984e-19)
(1.38264 -0.163096 7.49145e-24)
(1.44831 -0.152247 -6.94717e-24)
(1.51075 -0.142022 -1.09039e-19)
(1.57012 -0.132384 0)
(1.62657 -0.123299 1.06665e-19)
(1.68024 -0.114735 5.06898e-24)
(1.73127 -0.106667 0)
(1.77976 -0.0990683 0)
(1.82585 -0.0919176 0)
(1.86964 -0.0851944 -1.00866e-19)
(1.91123 -0.0788795 0)
(1.95072 -0.0729549 0)
(1.9882 -0.0674033 0)
(2.02375 -0.0622078 0)
(2.05747 -0.057352 0)
(2.08942 -0.0528195 -9.41597e-20)
(2.11968 -0.0485942 0)
(2.14832 -0.0446605 -9.19907e-20)
(2.1754 -0.0410026 -9.09168e-20)
(2.201 -0.0376057 8.98506e-20)
(2.22516 -0.0344556 0)
(2.24796 -0.031538 8.77413e-20)
(2.26943 -0.0288389 0)
(2.28965 -0.0263439 8.56622e-20)
(2.30867 -0.0240399 -8.46338e-20)
(2.32653 -0.0219137 -2.50836e-19)
(2.34328 -0.0199535 0)
(2.35899 -0.0181506 -2.44776e-19)
(2.37369 -0.0164944 -8.05917e-20)
(2.38744 -0.0149756 0)
(2.40028 -0.0135836 -1.57229e-19)
(2.41226 -0.0123084 -1.55273e-19)
(2.42342 -0.0111407 2.29995e-19)
(2.43381 -0.0100704 0)
(2.44347 -0.00909058 7.47422e-20)
(2.45243 -0.00819523 7.37907e-20)
(2.46075 -0.00736998 2.18537e-19)
(2.46848 -0.00660669 0)
(2.47564 -0.00590959 0)
(2.48227 -0.00527475 0)
(2.48842 -0.00469556 6.91299e-20)
(2.4941 -0.00417092 0)
(2.49934 -0.00369428 0)
(2.50418 -0.00326648 -6.6409e-20)
(2.50864 -0.00288476 -6.55141e-20)
(2.51275 -0.00254724 0)
(2.51653 -0.00225111 0)
(2.52 -0.00199215 -1.2573e-19)
(2.52319 -0.00176593 0)
(2.52611 -0.00156822 1.22256e-19)
(2.52878 -0.00139509 1.20536e-19)
(2.53122 -0.00124246 0)
(2.53345 -0.00110604 0)
(2.5355 -0.000981413 -1.15443e-19)
(2.53737 -0.000864669 -1.06593e-25)
(2.53907 -0.000752986 -9.73761e-26)
(2.54063 -0.000644967 0)
(2.54206 -0.000540442 -2.17608e-19)
(2.54335 -0.000440031 0)
(2.54453 -0.000344589 0)
(2.54559 -0.000254802 0)
(2.54655 -0.000171009 1.02332e-19)
(2.54741 -9.31891e-05 0)
(2.54819 -2.10267e-05 -1.98312e-19)
(2.54888 4.60101e-05 -9.75827e-20)
(2.5495 0.000108583 0)
(2.55005 0.000167469 -9.4465e-20)
(2.55052 0.000223502 0)
(2.55094 0.00027764 0)
(2.5513 0.000330862 -2.69576e-19)
(2.5516 0.00038441 1.76684e-19)
(2.55185 0.000439416 0)
(2.55205 0.000497747 1.7067e-19)
(2.55219 0.0005606 -8.38447e-20)
(2.55227 0.000631305 0)
(2.5523 0.000710601 0)
(2.55227 0.000805264 0)
(2.55216 0.000913721 -2.33911e-19)
(2.55199 0.00105124 0)
(2.55171 0.00120784 -7.50845e-20)
(2.55133 0.00142113 0)
(2.5508 0.00165383 0)
(2.55014 0.00200392 0)
(2.54922 0.00235375 0)
(2.54814 0.00296457 0)
(2.54656 0.00348818 0)
(2.54483 0.00462828 -1.3049e-19)
(2.54211 0.00538426 0)
(2.53936 0.00766725 -6.25139e-20)
(2.53454 0.00869358 1.83481e-19)
(2.5302 0.0136264 0)
(2.52136 0.014978 0)
(2.51467 0.0265944 -1.14337e-19)
(2.49829 0.0291985 -1.1176e-19)
(2.48919 0.059131 1.0915e-19)
(2.4631 0.0690689 1.06684e-19)
(-0.0164094 0.0471457 1.73911e-19)
(-0.0823532 0.0957659 1.72633e-19)
(-0.143801 0.106966 1.14245e-19)
(-0.207584 0.12385 5.67318e-20)
(-0.271381 0.143238 0)
(-0.336428 0.165553 -1.11608e-19)
(-0.402495 0.190521 5.54113e-20)
(-0.469949 0.218123 0)
(-0.538816 0.248403 5.44345e-20)
(-0.60923 0.281368 0)
(-0.681239 0.316936 -1.07193e-19)
(-0.754795 0.35494 0)
(-0.829732 0.395088 -5.2666e-20)
(-0.905833 0.436943 -1.04446e-19)
(-0.982887 0.479948 1.03559e-19)
(-1.06075 0.52348 0)
(-1.13938 0.566865 1.01783e-19)
(-1.21887 0.609388 0)
(-1.29947 0.650346 0)
(-1.38169 0.689097 9.91072e-20)
(-1.46626 0.725099 0)
(-1.55404 0.757936 2.02147e-23)
(-1.64586 0.787284 0)
(-1.74251 0.812922 0)
(-1.84461 0.8347 1.64846e-23)
(-1.95261 0.852486 9.36342e-20)
(-2.06672 0.86615 9.26537e-20)
(-2.18694 0.875533 9.17518e-20)
(-2.313 0.880387 0)
(-2.44438 0.880318 1.79592e-19)
(-2.58033 0.874774 0)
(-2.71985 0.863112 8.77859e-20)
(-2.86166 0.84464 0)
(-3.00421 0.818621 0)
(-3.14564 0.784266 -8.48339e-20)
(-3.28377 0.740822 0)
(-3.41612 0.687673 8.29101e-20)
(-3.53996 0.624424 2.41021e-22)
(-3.65242 0.550986 -1.62406e-19)
(-3.75065 0.467671 1.60408e-19)
(-3.83182 0.375268 0)
(-3.89334 0.275088 0)
(-3.93312 0.169052 7.75628e-20)
(-3.94967 0.0595858 0)
(-3.94218 -0.050919 7.68194e-20)
(-3.91059 -0.160212 -7.62026e-20)
(-3.85554 -0.266042 -7.56295e-20)
(-3.77798 -0.366389 0)
(-3.67939 -0.45933 7.45977e-20)
(-3.56153 -0.543428 7.41288e-20)
(-3.42638 -0.61764 -1.47e-19)
(-3.27612 -0.681377 7.32575e-20)
(-3.11307 -0.734456 7.28439e-20)
(-2.93965 -0.777066 0)
(-2.75822 -0.809697 0)
(-2.57107 -0.833074 -7.16334e-20)
(-2.38022 -0.848108 0)
(-2.18735 -0.855735 0)
(-1.99383 -0.856745 1.40786e-19)
(-1.80086 -0.85179 1.39922e-19)
(-1.6095 -0.841426 0)
(-1.42078 -0.82617 0)
(-1.23564 -0.806596 0)
(-1.05493 -0.783284 0)
(-0.87934 -0.756836 1.35203e-19)
(-0.709402 -0.727879 -1.34121e-19)
(-0.545492 -0.697123 -1.33117e-19)
(-0.387803 -0.665054 -2.64032e-19)
(-0.236413 -0.632344 0)
(-0.09138 -0.599461 3.09702e-23)
(0.0466191 -0.567287 0)
(0.178063 -0.535497 1.27423e-19)
(0.303757 -0.504661 2.38759e-23)
(0.423389 -0.474969 1.24962e-19)
(0.537119 -0.446572 -1.23725e-19)
(0.645145 -0.419556 1.94067e-23)
(0.7477 -0.393955 0)
(0.845042 -0.369761 -1.19989e-19)