/*--------------------------------*- C++ -*----------------------------------*\
  =========                 |
  \\      /  F ield         | OpenFOAM: The Open Source CFD Toolbox
   \\    /   O peration     | Website:  https://openfoam.org
    \\  /    A nd           | Version:  7
     \\/     M anipulation  |
\*---------------------------------------------------------------------------*/
FoamFile
{
    version     2.0;
    format      ascii;
    class       volVectorField;
    location    "0.026";
    object      U_0;
}
// * * * * * * * * * * * * * * * * * * * * * * * * * * * * * * * * * * * * * //

dimensions      [0 1 -1 0 0 0 0];

internalField   nonuniform List<vector> 
12225
(
(4.73716 0.175891 0)
(4.09755 0.119619 0)
(3.68693 0.0927484 0)
(3.36565 0.0815216 0)
(3.01667 0.0772718 0)
(2.65339 0.0673272 0)
(2.32158 0.0535687 0)
(2.03755 0.0418761 0)
(1.79369 0.0341022 0)
(1.58357 0.0282011 0)
(1.40274 0.0221372 0)
(1.25242 0.0160308 0)
(1.12558 0.010414 0)
(1.02817 0.00566923 0)
(0.944081 0.00209126 0)
(0.886764 8.62542e-05 0)
(0.831388 0.00251701 0)
(0.767762 -0.00212234 0)
(5.01266 0.105908 0)
(4.83083 0.0599823 0)
(4.752 0.0724175 0)
(4.70677 0.0823611 0)
(4.62264 0.0953598 0)
(4.49311 0.103535 0)
(4.33998 0.103417 0)
(4.18524 0.0983927 0)
(4.03866 0.0920756 0)
(3.90436 0.0857266 0)
(3.77683 0.0792884 0)
(3.65574 0.0723803 0)
(3.53644 0.0648411 0)
(3.42755 0.0564635 0)
(3.32624 0.049581 0)
(3.23821 0.0416445 0)
(3.15767 0.0416062 0)
(3.07842 0.0381027 0)
(4.92909 0.177286 0)
(4.80021 0.123904 0)
(4.76219 0.105878 0)
(4.7681 0.111201 0)
(4.78412 0.12963 0)
(4.77865 0.141533 0)
(4.73958 0.140204 0)
(4.67906 0.13074 0)
(4.61712 0.119323 0)
(4.56672 0.109694 0)
(4.52887 0.103259 0)
(4.49733 0.0991188 0)
(4.46641 0.0948255 0)
(4.4309 0.0875816 0)
(4.39406 0.0788876 0)
(4.35208 0.0706987 0)
(4.31583 0.0662228 0)
(4.26968 0.0640192 0)
(4.98129 0.15763 0)
(4.88183 0.0910668 0)
(4.79102 0.084437 0)
(4.76356 0.0931931 0)
(4.7745 0.10721 0)
(4.78228 0.123705 0)
(4.77218 0.134655 0)
(4.75076 0.135695 0)
(4.72913 0.12782 0)
(4.71305 0.115405 0)
(4.70505 0.10348 0)
(4.70396 0.0944461 0)
(4.70837 0.0881761 0)
(4.71226 0.0821445 0)
(4.71337 0.0771463 0)
(4.70535 0.0726631 0)
(4.69281 0.0715557 0)
(4.66951 0.0728078 0)
(5.0026 0.198453 0)
(4.91183 0.133886 0)
(4.81896 0.109197 0)
(4.76943 0.106012 0)
(4.76102 0.12034 0)
(4.77028 0.137764 0)
(4.7753 0.145642 0)
(4.76748 0.141323 0)
(4.75014 0.129133 0)
(4.73074 0.114909 0)
(4.71693 0.10294 0)
(4.71225 0.0944237 0)
(4.71676 0.0888318 0)
(4.72526 0.0846893 0)
(4.73361 0.082177 0)
(4.73717 0.0813831 0)
(4.73722 0.0834906 0)
(4.73255 0.0873503 0)
(5.0519 0.218981 0)
(4.9957 0.143117 0)
(4.85918 0.127362 0)
(4.75723 0.120329 0)
(4.73248 0.117926 0)
(4.75262 0.124695 0)
(4.77508 0.13716 0)
(4.7812 0.145566 0)
(4.77519 0.143205 0)
(4.7685 0.130754 0)
(4.76862 0.113825 0)
(4.77568 0.097759 0)
(4.7856 0.0854995 0)
(4.79269 0.0772689 0)
(4.79398 0.0727248 0)
(4.78914 0.0716253 0)
(4.78109 0.0732893 0)
(4.77226 0.0772091 0)
(4.87887 0.207455 0)
(4.81937 0.171244 0)
(4.8124 0.154419 0)
(4.82067 0.133121 0)
(4.8227 0.122215 0)
(4.81466 0.126891 0)
(4.8003 0.13785 0)
(4.7846 0.141506 0)
(4.77171 0.132232 0)
(4.76419 0.11439 0)
(4.76357 0.0963703 0)
(4.76976 0.0841365 0)
(4.7803 0.079174 0)
(4.79063 0.079885 0)
(4.79694 0.0835677 0)
(4.79733 0.0882315 0)
(4.79369 0.0924651 0)
(4.7871 0.0954766 0)
(4.99338 0.228604 0)
(4.93937 0.174873 0)
(4.90217 0.128224 0)
(4.8809 0.118773 0)
(4.86615 0.123366 0)
(4.86312 0.133721 0)
(4.86549 0.146832 0)
(4.8619 0.155172 0)
(4.84719 0.152043 0)
(4.82407 0.136855 0)
(4.79959 0.114756 0)
(4.78036 0.0929886 0)
(4.76992 0.0771311 0)
(4.76789 0.0693568 0)
(4.77299 0.0684869 0)
(4.78158 0.0720353 0)
(4.79358 0.0773219 0)
(4.80474 0.0828558 0)
(4.91829 0.221549 0)
(4.94543 0.194742 0)
(4.90312 0.159651 0)
(4.85202 0.135786 0)
(4.82939 0.125068 0)
(4.83454 0.12908 0)
(4.84999 0.141999 0)
(4.86608 0.151425 0)
(4.88238 0.148481 0)
(4.89742 0.133655 0)
(4.90605 0.113856 0)
(4.90316 0.0963115 0)
(4.88951 0.0846614 0)
(4.86967 0.0788826 0)
(4.8516 0.0772359 0)
(4.83908 0.0779417 0)
(4.83547 0.0796296 0)
(4.83731 0.0827132 0)
(4.98226 0.240897 0)
(4.95967 0.17703 0)
(4.95922 0.157982 0)
(4.9421 0.149413 0)
(4.911 0.135672 0)
(4.89019 0.129093 0)
(4.89043 0.133266 0)
(4.90464 0.138532 0)
(4.91939 0.136613 0)
(4.92494 0.12758 0)
(4.92014 0.116441 0)
(4.90922 0.106954 0)
(4.89847 0.099628 0)
(4.89072 0.0931704 0)
(4.88757 0.0865894 0)
(4.88712 0.0805695 0)
(4.88986 0.0756945 0)
(4.8926 0.0743136 0)
(5.02889 0.303644 0)
(4.97755 0.214934 0)
(4.93796 0.172122 0)
(4.91956 0.150158 0)
(4.90939 0.137871 0)
(4.90001 0.134246 0)
(4.89249 0.136575 0)
(4.88774 0.139628 0)
(4.88541 0.13842 0)
(4.88545 0.130726 0)
(4.88886 0.118117 0)
(4.89632 0.104123 0)
(4.90699 0.0921992 0)
(4.91837 0.0841348 0)
(4.92809 0.0795995 0)
(4.93407 0.0778576 0)
(4.93769 0.0775696 0)
(4.93735 0.0785717 0)
(4.98266 0.296132 0)
(5.00456 0.203818 0)
(4.99052 0.170921 0)
(4.95461 0.15781 0)
(4.92355 0.148651 0)
(4.91598 0.143186 0)
(4.92815 0.141477 0)
(4.94813 0.140216 0)
(4.96724 0.13526 0)
(4.98158 0.125273 0)
(4.98959 0.112164 0)
(4.99127 0.0991772 0)
(4.98797 0.0885257 0)
(4.98266 0.0807633 0)
(4.97824 0.0756053 0)
(4.97634 0.0725532 0)
(4.97761 0.0714316 0)
(4.98044 0.0723689 0)
(4.97442 0.277592 0)
(5.02875 0.224363 0)
(5.03755 0.205807 0)
(5.00671 0.177569 0)
(4.97431 0.144444 0)
(4.95285 0.123068 0)
(4.94239 0.118693 0)
(4.94226 0.123146 0)
(4.95135 0.125721 0)
(4.96542 0.121936 0)
(4.97811 0.113642 0)
(4.98375 0.104697 0)
(4.98093 0.0971434 0)
(4.97158 0.0909206 0)
(4.96068 0.0852609 0)
(4.95195 0.0801746 0)
(4.94759 0.0762149 0)
(4.94813 0.0754548 0)
(4.99651 0.215476 0)
(5.00075 0.164927 0)
(5.02229 0.174242 0)
(5.03232 0.185903 0)
(5.02417 0.184341 0)
(5.00162 0.173024 0)
(4.98332 0.155823 0)
(4.98305 0.135458 0)
(4.9986 0.115638 0)
(5.017 0.101055 0)
(5.02555 0.0945173 0)
(5.01823 0.0943889 0)
(4.99854 0.0958593 0)
(4.97416 0.0946529 0)
(4.95405 0.0889474 0)
(4.9422 0.0810598 0)
(4.94104 0.072636 0)
(4.94764 0.0689383 0)
(5.06309 0.310634 0)
(5.01988 0.208691 0)
(4.9797 0.194322 0)
(4.97233 0.178473 0)
(4.99039 0.154308 0)
(5.01265 0.136739 0)
(5.03018 0.123632 0)
(5.04085 0.112131 0)
(5.04393 0.105571 0)
(5.04036 0.108459 0)
(5.03253 0.120292 0)
(5.02312 0.134301 0)
(5.01503 0.141595 0)
(5.01046 0.136619 0)
(5.01028 0.119424 0)
(5.01295 0.0954727 0)
(5.0181 0.0706047 0)
(5.02158 0.0519726 0)
(5.00257 0.293502 0)
(4.95744 0.237422 0)
(4.9717 0.201844 0)
(5.01194 0.170126 0)
(5.03885 0.149451 0)
(5.04076 0.142064 0)
(5.03157 0.136737 0)
(5.02362 0.127007 0)
(5.01805 0.115872 0)
(5.01449 0.108597 0)
(5.0153 0.106174 0)
(5.02245 0.104996 0)
(5.03588 0.100332 0)
(5.05313 0.0907346 0)
(5.07091 0.0785186 0)
(5.0851 0.0675806 0)
(5.09449 0.0612221 0)
(5.09708 0.0605722 0)
(4.95195 0.27477 0)
(4.96397 0.187735 0)
(4.99878 0.127857 0)
(5.02694 0.117977 0)
(5.04049 0.133814 0)
(5.04447 0.145056 0)
(5.04491 0.140442 0)
(5.04588 0.12631 0)
(5.04745 0.11451 0)
(5.05028 0.110869 0)
(5.05516 0.112503 0)
(5.06071 0.112815 0)
(5.06501 0.106999 0)
(5.06688 0.0945976 0)
(5.06716 0.0784737 0)
(5.06713 0.0630451 0)
(5.06857 0.0509069 0)
(5.07288 0.0447275 0)
(5.07345 0.248484 0)
(5.04237 0.18011 0)
(5.02545 0.162186 0)
(4.9971 0.142305 0)
(4.99348 0.130414 0)
(5.00714 0.131152 0)
(5.02182 0.133411 0)
(5.03224 0.126444 0)
(5.04086 0.111785 0)
(5.05154 0.0979192 0)
(5.06507 0.0904849 0)
(5.07854 0.0889673 0)
(5.08872 0.0891798 0)
(5.09423 0.0868421 0)
(5.09645 0.0794172 0)
(5.09738 0.0680058 0)
(5.09946 0.0539318 0)
(5.10341 0.0415837 0)
(5.03291 0.206195 0)
(5.02954 0.224038 0)
(5.04883 0.182627 0)
(5.06212 0.137618 0)
(5.05813 0.11636 0)
(5.05097 0.111189 0)
(5.05202 0.106104 0)
(5.05991 0.0925991 0)
(5.06991 0.0746941 0)
(5.08056 0.0619359 0)
(5.09311 0.0595762 0)
(5.10813 0.0653147 0)
(5.12486 0.0722474 0)
(5.1416 0.0737619 0)
(5.15675 0.0661515 0)
(5.16839 0.0508189 0)
(5.17634 0.0308838 0)
(5.17893 0.012289 0)
(5.00994 0.221458 0)
(5.02926 0.17222 0)
(5.02431 0.1423 0)
(5.02334 0.135391 0)
(5.02581 0.137236 0)
(5.0367 0.132439 0)
(5.05432 0.117838 0)
(5.07101 0.0978204 0)
(5.08345 0.0769835 0)
(5.09469 0.0581785 0)
(5.10944 0.0430625 0)
(5.12984 0.0323356 0)
(5.15494 0.0260405 0)
(5.18153 0.0236368 0)
(5.20647 0.0244541 0)
(5.22646 0.0273469 0)
(5.24072 0.031622 0)
(5.24752 0.0357901 0)
(5.05877 0.214962 0)
(5.07248 0.187709 0)
(5.05401 0.178508 0)
(5.0574 0.143262 0)
(5.07997 0.111169 0)
(5.10368 0.0881061 0)
(5.12246 0.07011 0)
(5.13773 0.0530459 0)
(5.15169 0.0345926 0)
(5.16602 0.0149764 0)
(5.18081 -0.0032712 0)
(5.19495 -0.0171112 0)
(5.20783 -0.0252372 0)
(5.21904 -0.0277801 0)
(5.22969 -0.0256218 0)
(5.2401 -0.0202717 0)
(5.25135 -0.0131989 0)
(5.2628 -0.00560809 0)
(4.99232 0.244272 0)
(5.05635 0.19702 0)
(5.11154 0.164134 0)
(5.15922 0.106296 0)
(5.2004 0.0759869 0)
(5.22879 0.0744623 0)
(5.24727 0.0757468 0)
(5.25929 0.0649457 0)
(5.2686 0.0437721 0)
(5.27785 0.0211904 0)
(5.28737 0.00362778 0)
(5.29529 -0.00703901 0)
(5.30026 -0.0119586 0)
(5.30304 -0.0130848 0)
(5.30535 -0.012274 0)
(5.30845 -0.0106842 0)
(5.3133 -0.00910798 0)
(5.31964 -0.00762616 0)
(5.02592 0.225443 0)
(5.07871 0.113 0)
(5.13593 0.0912407 0)
(5.17841 0.0733629 0)
(5.2122 0.0554428 0)
(5.24065 0.04579 0)
(5.27145 0.0380166 0)
(5.2989 0.0258091 0)
(5.31461 0.00852835 0)
(5.31678 -0.00980374 0)
(5.30858 -0.0246606 0)
(5.29551 -0.033628 0)
(5.28338 -0.0366923 0)
(5.276 -0.0363808 0)
(5.27552 -0.0349055 0)
(5.28135 -0.033306 0)
(5.29261 -0.0317192 0)
(5.30657 -0.0291836 0)
(5.17739 0.268042 0)
(5.13013 0.172935 0)
(5.13793 0.090773 0)
(5.15331 0.0510718 0)
(5.17929 0.0319741 0)
(5.20789 0.0253583 0)
(5.24103 0.0262863 0)
(5.2778 0.0287168 0)
(5.31126 0.0293706 0)
(5.3352 0.0277175 0)
(5.3488 0.0240775 0)
(5.3554 0.017863 0)
(5.35922 0.00844527 0)
(5.3631 -0.00393402 0)
(5.36796 -0.0178006 0)
(5.37312 -0.0305732 0)
(5.37776 -0.0402881 0)
(5.38086 -0.0443122 0)
(5.0412 0.302433 0)
(5.15865 0.149811 0)
(5.24151 0.0617542 0)
(5.28008 0.0320061 0)
(5.28837 0.0132812 0)
(5.27917 -0.00653468 0)
(5.26985 -0.0232388 0)
(5.27002 -0.0335767 0)
(5.28115 -0.0378373 0)
(5.30086 -0.0382005 0)
(5.3259 -0.0375291 0)
(5.35364 -0.0381835 0)
(5.38188 -0.0408732 0)
(5.40747 -0.0444484 0)
(5.42662 -0.0470581 0)
(5.4372 -0.047651 0)
(5.43932 -0.0457375 0)
(5.43483 -0.0423135 0)
(5.15101 0.245554 0)
(5.20613 0.122259 0)
(5.2791 0.0608132 0)
(5.32606 0.0464016 0)
(5.34445 0.0419694 0)
(5.35078 0.0357171 0)
(5.36067 0.0259066 0)
(5.37639 0.0141362 0)
(5.39283 0.00273411 0)
(5.40523 -0.00822697 0)
(5.41178 -0.0192613 0)
(5.41395 -0.0296657 0)
(5.41502 -0.0380202 0)
(5.41764 -0.0428018 0)
(5.42356 -0.0431538 0)
(5.43273 -0.0397725 0)
(5.44488 -0.0343174 0)
(5.45848 -0.0295841 0)
(5.01566 0.153842 0)
(5.15349 0.0569326 0)
(5.25592 0.00328982 0)
(5.32942 -0.0033519 0)
(5.3815 -0.00785912 0)
(5.41511 -0.0208859 0)
(5.43162 -0.036593 0)
(5.43839 -0.0485169 0)
(5.44584 -0.0527154 0)
(5.46059 -0.0502725 0)
(5.48257 -0.0458898 0)
(5.50676 -0.0443686 0)
(5.52766 -0.0478057 0)
(5.54198 -0.0549696 0)
(5.54957 -0.0625976 0)
(5.55227 -0.0681144 0)
(5.55279 -0.0701856 0)
(5.55305 -0.0694308 0)
(5.00649 0.172867 0)
(5.24178 0.0764749 0)
(5.38422 0.0270333 0)
(5.42359 -0.00233687 0)
(5.44566 -0.00448029 0)
(5.4885 0.00460673 0)
(5.54005 0.00923235 0)
(5.58088 0.00329497 0)
(5.60667 -0.0114905 0)
(5.62422 -0.0292629 0)
(5.63966 -0.044415 0)
(5.65333 -0.0536894 0)
(5.66178 -0.0565282 0)
(5.66187 -0.0540186 0)
(5.6534 -0.0479539 0)
(5.63985 -0.0407993 0)
(5.62544 -0.0344336 0)
(5.61501 -0.0315306 0)
(5.06037 0.0106724 0)
(5.28656 -0.0708746 0)
(5.40805 -0.0348263 0)
(5.44174 -0.0332202 0)
(5.45172 -0.0486387 0)
(5.46945 -0.0636677 0)
(5.49734 -0.0713172 0)
(5.5257 -0.0719546 0)
(5.54462 -0.069449 0)
(5.54875 -0.066697 0)
(5.53804 -0.0639733 0)
(5.51787 -0.0606965 0)
(5.49543 -0.0570511 0)
(5.47708 -0.0539517 0)
(5.46502 -0.052395 0)
(5.45868 -0.0529815 0)
(5.45457 -0.0556815 0)
(5.45043 -0.0603288 0)
(5.06918 0.0722328 0)
(5.17623 0.00923065 0)
(5.13624 -0.00485519 0)
(5.01661 -0.0208798 0)
(4.89174 -0.0209927 0)
(4.7703 -0.016627 0)
(4.64609 -0.0171133 0)
(4.51818 -0.0212859 0)
(4.39001 -0.0257401 0)
(4.26463 -0.0290849 0)
(4.14361 -0.0314544 0)
(4.02834 -0.0334145 0)
(3.919 -0.0351196 0)
(3.81599 -0.0358445 0)
(3.71889 -0.0346331 0)
(3.62862 -0.0312883 0)
(3.54395 -0.0264432 0)
(3.46548 -0.022429 0)
(0.0193151 -0.0617129 -3.11147e-20)
(0.0597512 -0.0770841 3.08907e-20)
(0.103701 -0.0766878 0)
(0.143279 -0.0741782 0)
(0.179662 -0.0710922 0)
(0.212152 -0.0674904 -2.99831e-20)
(0.240358 -0.0632676 0)
(0.26383 -0.0584017 0)
(0.281837 -0.0529296 0)
(0.293717 -0.0471072 0)
(0.298991 -0.0410826 2.88807e-20)
(0.296682 -0.0347315 0)
(0.28592 -0.0274966 0)
(0.265567 -0.0187838 0)
(0.234424 -0.00812654 0)
(0.191196 0.00475769 2.78178e-20)
(0.134492 0.0200544 0)
(0.0631469 0.0377007 0)
(-0.0230232 0.0572825 0)
(-0.124752 0.0776203 0)
(-0.242502 0.0978284 0)
(-0.375221 0.11689 0)
(-0.521757 0.134109 0)
(-0.68042 0.149042 2.61271e-20)
(-0.848935 0.16118 -2.59192e-20)
(-1.02528 0.170408 2.57147e-20)
(-1.2074 0.176824 2.55137e-20)
(-1.39346 0.180694 0)
(-1.58179 0.182318 0)
(-1.77083 0.181947 -2.49327e-20)
(-1.9591 0.179775 -2.4746e-20)
(-2.14513 0.175961 0)
(-2.32746 0.170626 0)
(-2.50458 0.16385 -2.42011e-20)
(-2.6749 0.155658 0)
(-2.83678 0.14604 0)
(-2.98846 0.135001 2.36655e-20)
(-3.1281 0.122582 0)
(-3.25389 0.108847 2.33019e-20)
(-3.36394 0.0938867 4.62302e-20)
(-3.45654 0.0778338 0)
(-3.53017 0.0610335 0)
(-3.58352 0.0439607 0)
(-3.6156 0.0268906 0)
(-3.62573 0.0101688 0)
(-3.61361 -0.00564965 4.37502e-20)
(-3.58125 -0.0205583 4.32904e-20)
(-3.52857 -0.0346881 4.28194e-20)
(-3.4566 -0.0477946 0)
(-3.36663 -0.0597506 -4.18505e-20)
(-3.25999 -0.0704587 0)
(-3.13834 -0.0798024 4.08595e-20)
(-3.00338 -0.0877467 4.03611e-20)
(-2.85695 -0.0942796 0)
(-2.70089 -0.0994312 0)
(-2.53701 -0.103264 0)
(-2.36707 -0.105865 3.83937e-20)
(-2.19273 -0.107333 0)
(-2.01554 -0.107764 0)
(-1.83691 -0.107256 0)
(-1.65815 -0.105904 0)
(-1.48043 -0.103807 0)
(-1.30481 -0.101059 0)
(-1.13231 -0.0977472 0)
(-0.96381 -0.093974 0)
(-0.800033 -0.0898502 -3.44159e-20)
(-0.641602 -0.0854173 0)
(-0.489013 -0.0808087 0)
(-0.342593 -0.0761009 3.32558e-20)
(-0.202579 -0.0713101 3.28849e-20)
(-0.0693221 -0.0665367 0)
(0.0566359 -0.0621648 -3.21579e-20)
(0.175891 -0.0576412 3.17929e-20)
(0.289062 -0.0532891 0)
(0.395914 -0.0491169 -3.10828e-20)
(0.496613 -0.045137 0)
(0.591355 -0.0413576 0)
(0.680361 -0.037782 3.00596e-20)
(0.763865 -0.0344091 0)
(0.842104 -0.0312351 -2.94006e-20)
(0.915315 -0.0282538 0)
(0.983729 -0.025458 2.87572e-20)
(1.04757 -0.02284 2.84407e-20)
(1.10706 -0.0203918 2.81274e-20)
(1.1624 -0.0181057 5.56343e-20)
(1.21378 -0.0159745 -5.50195e-20)
(1.26141 -0.0139916 0)
(1.30546 -0.0121507 0)
(1.3461 -0.0104464 0)
(1.38351 -0.00887351 -5.26134e-20)
(1.41786 -0.00742747 -5.20241e-20)
(1.4493 -0.00610383 5.14393e-20)
(1.47799 -0.00489832 0)
(1.50409 -0.00380663 -5.0283e-20)
(1.52775 -0.00282433 -4.97113e-20)
(1.54912 -0.00194675 -4.91436e-20)
(1.56836 -0.00116895 0)
(1.58561 -0.000485843 0)
(1.601 0.000108054 0)
(1.61468 0.000618378 -4.69127e-20)
(1.62678 0.00105089 0)
(1.63742 0.00141217 0)
(1.64674 0.00170805 4.52795e-20)
(1.65484 0.00194624 0)
(1.66184 0.00213384 0)
(1.66784 0.00227746 4.36789e-20)
(1.67293 0.00238399 0)
(1.67722 0.00245462 0)
(1.68078 0.0024991 -4.211e-20)
(1.68368 0.00251899 -4.15939e-20)
(1.68602 0.00251856 0)
(1.68781 0.00251566 4.05718e-20)
(1.6891 0.00250856 0)
(1.68995 0.0024881 -3.95631e-20)
(1.69042 0.00245309 0)
(1.69054 0.00240872 -3.85675e-20)
(1.69036 0.00235673 -3.80745e-20)
(1.68993 0.00229854 0)
(1.68927 0.00224084 0)
(1.68841 0.00218401 0)
(1.68738 0.00211811 0)
(1.6862 0.00204436 0)
(1.68489 0.00197223 0)
(1.68346 0.00190477 0)
(1.68193 0.00184165 -3.42446e-20)
(1.6803 0.0017828 3.37797e-20)
(1.67859 0.00172802 0)
(1.6768 0.00167596 0)
(1.67496 0.00162348 0)
(1.67306 0.00156749 0)
(1.67114 0.00150694 6.29992e-20)
(1.6692 0.00144332 0)
(1.66726 0.00137971 -6.12156e-20)
(1.66532 0.00131956 6.03323e-20)
(1.6634 0.00126519 0)
(1.66148 0.00121732 0)
(1.65957 0.00117523 0)
(1.65767 0.0011376 -5.68546e-20)
(1.65576 0.00110308 -5.59988e-20)
(1.65385 0.00107086 0)
(1.65194 0.00104051 -5.43033e-20)
(1.65001 0.00101201 -5.34634e-20)
(1.64808 0.00098543 5.26287e-20)
(1.64614 0.00096089 0)
(1.64419 0.000938471 0)
(1.64223 0.000918201 5.01554e-20)
(1.64025 0.000900041 0)
(1.63826 0.000883917 0)
(1.63625 0.000869739 0)
(1.63423 0.000857446 0)
(1.63218 0.000846994 -4.61325e-20)
(1.63012 0.000838411 -4.53423e-20)
(1.62802 0.000831712 0)
(1.6259 0.000827048 -4.3776e-20)
(1.62375 0.000824454 0)
(1.62156 0.000824285 0)
(1.61933 0.000826606 -4.14608e-20)
(1.61705 0.00083211 0)
(1.6147 0.000840954 -3.99396e-20)
(1.6123 0.000854257 0)
(1.60979 0.000872518 0)
(1.6072 0.00089726 -3.769e-20)
(1.60445 0.000930037 0)
(1.60161 0.000972284 -3.62111e-20)
(1.59848 0.00102883 0)
(1.59525 0.00109844 0)
(1.5915 0.00119711 0)
(1.58769 0.00130909 3.33017e-20)
(1.58288 0.00148813 0)
(1.57814 0.00165965 -3.18702e-20)
(1.57153 0.00200722 0)
(1.56515 0.00224677 0)
(1.55549 0.0029999 0)
(1.54573 0.00324813 0)
(1.53125 0.00511618 0)
(1.51273 0.00499645 0)
(1.49219 0.0103507 0)
(1.44645 0.00829354 5.25733e-20)
(1.42489 0.0263973 0)
(1.27902 0.0199739 0)
(0.0042149 -0.106729 9.33578e-20)
(-0.00577247 -0.109973 -9.26971e-20)
(-0.0160319 -0.100126 0)
(-0.0305615 -0.0874809 6.08973e-20)
(-0.0479456 -0.0736801 0)
(-0.069416 -0.0591389 2.99973e-20)
(-0.095183 -0.0436478 -5.9555e-20)
(-0.125526 -0.0267863 -5.91092e-20)
(-0.160916 -0.00828645 0)
(-0.202139 0.0121164 -5.82212e-20)
(-0.249978 0.0347087 -2.8888e-20)
(-0.305026 0.0597098 0)
(-0.368121 0.0873851 0)
(-0.439832 0.117768 0)
(-0.520525 0.150615 0)
(-0.610226 0.185428 -2.77846e-20)
(-0.708646 0.221519 0)
(-0.815326 0.257968 5.46962e-20)
(-0.929648 0.29378 0)
(-1.05089 0.327558 0)
(-1.17805 0.358437 -5.33993e-20)
(-1.30997 0.385479 0)
(-1.44574 0.408085 5.25553e-20)
(-1.58469 0.425969 -2.60569e-20)
(-1.72599 0.439076 2.58516e-20)
(-1.86902 0.447674 -2.56501e-20)
(-2.01313 0.452126 -2.54523e-20)
(-2.15776 0.452858 0)
(-2.30227 0.450235 0)
(-2.44605 0.444525 2.48822e-20)
(-2.58836 0.435886 -2.47485e-20)
(-2.72839 0.424359 0)
(-2.86525 0.409868 0)
(-2.99797 0.39226 2.41651e-20)
(-3.12548 0.371373 0)
(-3.24653 0.347052 0)
(-3.35968 0.319175 -2.36392e-20)
(-3.4634 0.287696 0)
(-3.55603 0.252672 2.33496e-20)
(-3.63595 0.214258 -4.61948e-20)
(-3.70156 0.172757 0)
(-3.75145 0.128745 0)
(-3.78443 0.082988 -9.0194e-20)
(-3.79938 0.0362308 -8.93614e-20)
(-3.79566 -0.0106432 -8.84956e-20)
(-3.77301 -0.0565902 4.38586e-20)
(-3.72944 -0.100846 -4.32742e-20)
(-3.6661 -0.14283 -1.28517e-19)
(-3.58362 -0.181892 8.47436e-20)
(-3.48307 -0.217546 4.1833e-20)
(-3.36603 -0.249416 0)
(-3.2341 -0.277226 -4.08419e-20)
(-3.08911 -0.300849 4.04137e-20)
(-2.93291 -0.320274 0)
(-2.76739 -0.335608 0)
(-2.59438 -0.34705 0)
(-2.41562 -0.354867 -3.83781e-20)
(-2.23273 -0.359355 0)
(-2.04719 -0.360808 7.49015e-20)
(-1.86036 -0.359508 0)
(-1.67348 -0.355727 7.30697e-20)
(-1.48767 -0.349736 0)
(-1.30397 -0.341806 -7.13154e-20)
(-1.12335 -0.332213 0)
(-0.946692 -0.321239 6.96405e-20)
(-0.774671 -0.309139 -3.44235e-20)
(-0.607843 -0.296177 0)
(-0.446748 -0.282694 -6.72698e-20)
(-0.291621 -0.268797 -3.32516e-20)
(-0.142653 -0.254816 -3.28817e-20)
(-0.000673852 -0.240783 0)
(0.13456 -0.227426 -3.21544e-20)
(0.263794 -0.214076 -3.17827e-20)
(0.386951 -0.201155 0)
(0.504149 -0.188731 3.10726e-20)
(0.61556 -0.176846 -6.14584e-20)
(0.721393 -0.165524 0)
(0.821878 -0.15477 -3.00491e-20)
(0.917252 -0.144579 0)
(1.00776 -0.134937 8.81739e-20)
(1.09362 -0.125824 0)
(1.17508 -0.117216 -8.62419e-20)
(1.25234 -0.109087 -2.84293e-20)
(1.32561 -0.101411 2.81192e-20)
(1.39508 -0.0941631 5.56169e-20)
(1.46093 -0.0873188 -5.50013e-20)
(1.52334 -0.0808564 0)
(1.58244 -0.0747558 0)
(1.63841 -0.0689995 0)
(1.69136 -0.0635717 1.57766e-19)
(1.74144 -0.0584587 5.19973e-20)
(1.78877 -0.0536482 -5.1412e-20)
(1.83346 -0.0491294 0)
(1.87564 -0.0448923 -5.02579e-20)
(1.9154 -0.0409274 4.96824e-20)
(1.95285 -0.0372255 4.91143e-20)
(1.98811 -0.0337776 0)
(2.02125 -0.0305745 0)
(2.05238 -0.0276068 0)
(2.0816 -0.0248648 4.68819e-20)
(2.10898 -0.0223389 0)
(2.13462 -0.0200189 -9.15793e-20)
(2.1586 -0.017895 -1.35745e-19)
(2.181 -0.0159561 8.94225e-20)
(2.20191 -0.0141901 0)
(2.22139 -0.0125847 4.36481e-20)
(2.23953 -0.0111273 0)
(2.2564 -0.00980939 8.51957e-20)
(2.27206 -0.00861764 -4.20788e-20)
(2.28659 -0.00754226 -4.15627e-20)
(2.30003 -0.0065751 0)
(2.31249 -0.00569838 -1.21621e-19)
(2.32403 -0.00490746 8.00688e-20)
(2.3347 -0.00420315 3.95315e-20)
(2.34457 -0.00357957 0)
(2.35367 -0.0030288 3.85364e-20)
(2.36205 -0.00254359 1.14132e-19)
(2.36976 -0.0021142 0)
(2.37685 -0.00173602 7.41364e-20)
(2.38335 -0.00140618 7.31703e-20)
(2.3893 -0.00111013 7.22104e-20)
(2.39473 -0.000838352 0)
(2.39967 -0.000596187 0)
(2.40417 -0.000383283 0)
(2.40826 -0.000196355 -3.42166e-20)
(2.41197 -3.01819e-05 -3.37519e-20)
(2.41532 0.000113829 0)
(2.41836 0.000237245 -6.56639e-20)
(2.4211 0.000341717 -6.47527e-20)
(2.42357 0.000426799 0)
(2.4258 0.000492637 -6.29478e-20)
(2.4278 0.00054086 -1.24108e-19)
(2.4296 0.000573942 6.1166e-20)
(2.43121 0.000595461 6.02837e-20)
(2.43265 0.000609395 0)
(2.43395 0.000619602 0)
(2.43511 0.000628945 0)
(2.43615 0.000639222 5.68094e-20)
(2.43709 0.000651023 -5.59546e-20)
(2.43791 0.000664216 -1.1021e-19)
(2.43863 0.000678184 5.42607e-20)
(2.43924 0.000692274 -5.34217e-20)
(2.43976 0.000705946 -5.25879e-20)
(2.44018 0.000718893 0)
(2.4405 0.000731039 0)
(2.44074 0.000742477 5.01172e-20)
(2.4409 0.000753381 0)
(2.44098 0.00076397 0)
(2.44098 0.000774473 -9.53826e-20)
(2.44092 0.00078516 0)
(2.44079 0.000796317 -4.60983e-20)
(2.4406 0.000808319 4.53089e-20)
(2.44035 0.00082155 0)
(2.44005 0.00083656 -4.37442e-20)
(2.43969 0.000853868 0)
(2.43927 0.000874279 0)
(2.4388 0.00089859 4.14312e-20)
(2.43827 0.00092794 -8.13383e-20)
(2.43767 0.000963813 3.99114e-20)
(2.43701 0.00100754 0)
(2.43627 0.00106239 0)
(2.43545 0.00112889 -3.76639e-20)
(2.43452 0.00121531 0)
(2.43349 0.00131743 -3.61865e-20)
(2.43228 0.00145798 0)
(2.43094 0.0016145 0)
(2.4293 0.0018527 0)
(2.42749 0.00208961 -3.32795e-20)
(2.42519 0.00251821 0)
(2.42259 0.00286464 3.18492e-20)
(2.41921 0.00369629 0)
(2.41521 0.00415457 0)
(2.4101 0.00590989 -5.9463e-20)
(2.40326 0.00636721 5.80654e-20)
(2.39561 0.0104212 0)
(2.38214 0.0104334 0)
(2.37148 0.0207528 0)
(2.34048 0.0194152 -1.57626e-19)
(2.32987 0.0490409 0)
(2.25043 0.0482658 9.96866e-20)
(-0.0110157 -0.0522062 1.54019e-23)
(-0.0623528 -0.0292273 1.23601e-19)
(-0.110557 -0.0177426 0)
(-0.161104 -0.00252949 -1.21762e-19)
(-0.21237 0.0145217 0)
(-0.265681 0.0338763 0)
(-0.321378 0.055611 -1.09915e-23)
(-0.380239 0.0799406 5.90608e-20)
(-0.442725 0.106967 5.86198e-20)
(-0.50908 0.136728 5.81621e-20)
(-0.579456 0.169328 0)
(-0.65392 0.20484 0)
(-0.732414 0.24302 -5.68317e-20)
(-0.814775 0.283407 -1.12778e-19)
(-0.900753 0.325387 1.11897e-19)
(-0.989997 0.368208 0)
(-1.08207 0.411016 1.10149e-19)
(-1.17647 0.452891 -5.4628e-20)
(-1.27272 0.492888 0)
(-1.37051 0.530092 1.07575e-19)
(-1.46978 0.56373 5.3342e-20)
(-1.57068 0.593147 -1.05904e-19)
(-1.67349 0.617879 -5.25075e-20)
(-1.77862 0.637715 0)
(-1.8865 0.652717 1.03483e-19)
(-1.99756 0.663106 1.02702e-19)
(-2.11212 0.669158 0)
(-2.23036 0.671134 1.0118e-19)
(-2.35227 0.669217 0)
(-2.47759 0.663467 9.97116e-20)
(-2.60586 0.653802 4.94291e-20)
(-2.73634 0.639997 0)
(-2.86801 0.62169 0)
(-2.99952 0.59843 0)
(-3.12925 0.569769 0)
(-3.25533 0.535298 0)
(-3.37569 0.494684 0)
(-3.48807 0.447718 9.41556e-20)
(-3.59008 0.394412 -1.40066e-19)
(-3.67932 0.335039 0)
(-3.75341 0.27009 0)
(-3.81023 0.200297 0)
(-3.84797 0.126763 -2.27303e-22)
(-3.86517 0.0509115 8.93477e-20)
(-3.86081 -0.025771 1.77177e-19)
(-3.83436 -0.101835 -1.75357e-19)
(-3.78607 -0.175699 -8.68407e-20)
(-3.71674 -0.245857 8.569e-20)
(-3.62756 -0.311176 1.71106e-22)
(-3.51997 -0.370679 8.38886e-20)
(-3.39566 -0.423639 0)
(-3.25655 -0.469613 8.18631e-20)
(-3.10466 -0.508392 1.1918e-22)
(-2.94207 -0.540016 0)
(-2.77086 -0.564721 0)
(-2.59296 -0.582904 -7.78369e-20)
(-2.41018 -0.595081 0)
(-2.22409 -0.601807 0)
(-2.0361 -0.6036 7.50043e-20)
(-1.8475 -0.600926 1.48016e-19)
(-1.65942 -0.594212 -7.30445e-20)
(-1.47295 -0.58387 0)
(-1.28905 -0.570342 7.1292e-20)
(-1.10864 -0.554078 0)
(-0.932509 -0.535514 6.96778e-20)
(-0.76131 -0.515084 6.88116e-20)
(-0.595598 -0.493351 -1.36091e-19)
(-0.435808 -0.470698 -6.72914e-20)
(-0.28217 -0.4475 0)
(-0.1348 -0.424241 1.31546e-19)
(0.0053922 -0.401185 0)
(0.138712 -0.378671 1.92885e-19)
(0.266113 -0.356723 1.2714e-19)
(0.387349 -0.335527 1.25707e-19)
(0.502616 -0.315206 -1.243e-19)
(0.612134 -0.295832 1.84362e-19)
(0.716149 -0.277434 0)
(0.814922 -0.260017 0)
(0.90872 -0.243565 -1.18879e-19)
(0.997801 -0.228048 -1.76345e-19)
(1.08242 -0.213425 0)
(1.16281 -0.199653 5.74896e-20)
(1.23921 -0.186683 0)
(1.31181 -0.174468 -1.68701e-19)
(1.38084 -0.162962 1.12042e-23)
(1.44646 -0.152121 -1.03998e-23)
(1.50885 -0.141904 1.08778e-19)
(1.56818 -0.132273 0)
(1.62459 -0.123193 -1.0637e-19)
(1.67822 -0.114636 7.63503e-24)
(1.72921 -0.106573 0)
(1.77767 -0.0989799 0)
(1.82373 -0.0918344 0)
(1.86748 -0.0851162 1.00508e-19)
(1.90904 -0.0788061 0)
(1.9485 -0.0728861 0)
(1.98595 -0.0673389 0)
(2.02147 -0.0621477 0)
(2.05516 -0.0572959 0)
(2.08708 -0.0527673 9.37646e-20)
(2.11732 -0.0485457 0)
(2.14593 -0.0446154 9.15746e-20)
(2.17299 -0.0409609 9.04924e-20)
(2.19857 -0.0375671 -8.94176e-20)
(2.22271 -0.03442 0)
(2.24548 -0.0315052 -8.72897e-20)
(2.26694 -0.0288087 0)
(2.28714 -0.0263161 -8.51903e-20)
(2.30613 -0.0240144 8.41511e-20)
(2.32397 -0.0218903 2.49359e-19)
(2.34071 -0.0199321 0)
(2.3564 -0.0181311 2.43226e-19)
(2.37109 -0.0164766 8.00647e-20)
(2.38482 -0.0149593 0)
(2.39764 -0.0135688 1.5612e-19)
(2.40961 -0.0122949 1.54136e-19)
(2.42076 -0.0111284 -2.28246e-19)
(2.43114 -0.0100593 0)
(2.44078 -0.0090805 -7.41301e-20)
(2.44973 -0.00818609 -7.3164e-20)
(2.45805 -0.00736161 -2.16613e-19)
(2.46577 -0.00659913 0)
(2.47292 -0.0059028 0)
(2.47954 -0.00526865 0)
(2.48568 -0.00469008 -6.84273e-20)
(2.49135 -0.00416606 0)
(2.49659 -0.00368996 0)
(2.50142 -0.00326272 6.56575e-20)
(2.50588 -0.00288151 6.47462e-20)
(2.50998 -0.00254447 0)
(2.51375 -0.00224878 0)
(2.51722 -0.00199021 1.24095e-19)
(2.5204 -0.00176432 0)
(2.52332 -0.0015669 -1.20554e-19)
(2.52599 -0.00139401 -1.18801e-19)
(2.52843 -0.00124158 0)
(2.53066 -0.0011053 0)
(2.5327 -0.000980754 1.13607e-19)
(2.53457 -0.000864035 -7.81183e-26)
(2.53627 -0.000752347 -6.98684e-26)
(2.53783 -0.000644312 0)
(2.53925 -0.000539779 2.13664e-19)
(2.54054 -0.000439378 0)
(2.54172 -0.000343964 0)
(2.54278 -0.000254219 0)
(2.54374 -0.000170479 -1.00223e-19)
(2.5446 -9.27163e-05 0)
(2.54538 -2.06118e-05 1.93959e-19)
(2.54607 4.63687e-05 9.53721e-20)
(2.54668 0.000108888 0)
(2.54723 0.000167723 9.21865e-20)
(2.54771 0.000223708 0)
(2.54813 0.000277801 0)
(2.54848 0.000330979 2.62437e-19)
(2.54879 0.000384485 -1.71856e-19)
(2.54903 0.000439448 0)
(2.54923 0.000497736 -1.65707e-19)
(2.54937 0.000560542 8.13294e-20)
(2.54946 0.000631197 0)
(2.54948 0.000710436 0)
(2.54945 0.000805032 0)
(2.54934 0.000913411 2.25959e-19)
(2.54917 0.00105084 0)
(2.54889 0.00120732 7.2365e-20)
(2.54851 0.00142046 0)
(2.54798 0.00165298 0)
(2.54733 0.00200283 0)
(2.5464 0.00235235 0)
(2.54532 0.00296277 0)
(2.54375 0.00348586 0)
(2.54202 0.00462526 1.24546e-19)
(2.5393 0.00538033 0)
(2.53655 0.00766204 5.94562e-20)
(2.53174 0.00868667 -1.74178e-19)
(2.5274 0.0136169 0)
(2.51857 0.014965 0)
(2.51188 0.0265757 1.07819e-19)
(2.49552 0.0291703 1.05073e-19)
(2.48644 0.0590846 -1.02366e-19)
(2.46039 0.068981 -9.96678e-20)
(-0.0164475 0.0479962 -1.86821e-19)
(-0.0824831 0.0966835 -1.85456e-19)
(-0.144023 0.10788 -1.22725e-19)
(-0.207895 0.124764 -6.09259e-20)
(-0.271776 0.144149 0)
(-0.336901 0.16646 1.19959e-19)
(-0.403043 0.19142 -5.95465e-20)
(-0.470566 0.219012 0)
(-0.539497 0.249278 -5.85925e-20)
(-0.609968 0.282223 0)
(-0.682029 0.317764 1.1543e-19)
(-0.75563 0.355734 0)
(-0.83061 0.39584 5.68044e-20)
(-0.906751 0.437643 1.12725e-19)
(-0.983845 0.480588 -1.11847e-19)
(-1.06175 0.524055 0)
(-1.14042 0.56737 -1.10107e-19)
(-1.21995 0.60982 0)
(-1.3006 0.650706 0)
(-1.38288 0.689386 -1.07547e-19)
(-1.46751 0.725322 0)
(-1.55536 0.758099 -7.50849e-23)
(-1.64726 0.787394 0)
(-1.74399 0.812984 0)
(-1.84617 0.834719 1.01432e-22)
(-1.95425 0.852463 -1.02684e-19)
(-2.06844 0.866084 -1.02037e-19)
(-2.18872 0.87542 -1.0116e-19)
(-2.31483 0.880222 0)
(-2.44626 0.880095 -1.99532e-19)
(-2.58224 0.874488 0)
(-2.72176 0.862757 -9.84475e-20)
(-2.86356 0.844212 0)
(-3.00608 0.818117 0)
(-3.14744 0.783687 9.64226e-20)
(-3.28548 0.740171 0)
(-3.41771 0.686958 -9.50854e-20)
(-3.54141 0.623657 2.87953e-22)
(-3.65373 0.550183 1.8713e-19)
(-3.75179 0.466852 -1.86015e-19)
(-3.8328 0.374457 0)
(-3.89415 0.27431 0)
(-3.93378 0.168328 -9.10464e-20)
(-3.9502 0.058937 0)
(-3.9426 -0.0514733 -8.86778e-20)
(-3.91091 -0.160671 8.77598e-20)
(-3.8558 -0.266405 8.68149e-20)
(-3.77819 -0.366664 0)
(-3.67958 -0.459534 -8.48595e-20)
(-3.5617 -0.543578 -8.38582e-20)
(-3.42654 -0.617758 1.66109e-19)
(-3.27627 -0.681483 -8.18325e-20)
(-3.11322 -0.734566 -8.08174e-20)
(-2.93977 -0.777188 0)
(-2.7583 -0.80983 0)
(-2.57111 -0.833207 7.781e-20)
(-2.38022 -0.848224 0)
(-2.18731 -0.855814 0)
(-1.99377 -0.856771 -1.49833e-19)
(-1.8008 -0.851749 -1.47972e-19)
(-1.60946 -0.841311 0)
(-1.42078 -0.825981 0)
(-1.2357 -0.806336 0)
(-1.05507 -0.782963 0)
(-0.879573 -0.756465 -1.39264e-19)
(-0.709732 -0.727468 1.37715e-19)
(-0.545922 -0.696686 1.36061e-19)
(-0.388335 -0.664603 2.69086e-19)
(-0.237043 -0.631892 0)
(-0.092106 -0.599014 4.54345e-23)
(0.0457954 -0.566855 0)
(0.177144 -0.535077 -1.2856e-19)
(0.302749 -0.504257 3.54392e-23)
(0.422293 -0.474586 -1.25673e-19)
(0.535938 -0.446211 1.24268e-19)
(0.643881 -0.419218 2.89964e-23)
(0.746358 -0.393638 0)
(0.843626 -0.369466 1.20206e-19)
(0.935953 -0.346667 1.18855e-19)