/*--------------------------------*- C++ -*----------------------------------*\
  =========                 |
  \\      /  F ield         | OpenFOAM: The Open Source CFD Toolbox
   \\    /   O peration     | Website:  https://openfoam.org
    \\  /    A nd           | Version:  7
     \\/     M anipulation  |
\*---------------------------------------------------------------------------*/
FoamFile
{
    version     2.0;
    format      ascii;
    class       volVectorField;
    location    "0.026";
    object      UMean;
}
// * * * * * * * * * * * * * * * * * * * * * * * * * * * * * * * * * * * * * //

dimensions      [0 1 -1 0 0 0 0];

internalField   nonuniform List<vector> 
12225
(
(4.78632 0.164537 0)
(4.20706 0.110155 0)
(3.76278 0.0955599 0)
(3.41333 0.0779149 0)
(3.1087 0.0633967 0)
(2.83662 0.0522904 0)
(2.59814 0.0423044 0)
(2.39574 0.0334138 0)
(2.23234 0.0239276 0)
(2.10411 0.0168204 0)
(2.01486 0.0076604 0)
(1.95105 0.00478189 0)
(1.92513 -0.00641461 0)
(1.91089 -0.000493191 0)
(1.93582 -0.0228588 0)
(1.96449 0.00340226 0)
(2.03914 -0.058448 0)
(2.14289 0.00484179 0)
(5.01642 0.110955 0)
(4.8805 0.0696246 0)
(4.7706 0.0838467 0)
(4.68927 0.0812038 0)
(4.60881 0.0769703 0)
(4.52343 0.0737296 0)
(4.4351 0.0701223 0)
(4.35058 0.0638219 0)
(4.27133 0.0567807 0)
(4.20388 0.0462369 0)
(4.14444 0.0378235 0)
(4.1024 0.0241075 0)
(4.06627 0.0176909 0)
(4.05493 -8.09319e-05 0)
(4.04201 -0.00160199 0)
(4.068 -0.0298965 0)
(4.08243 -0.0339776 0)
(4.15088 -0.0995469 0)
(5.00376 0.172289 0)
(4.89371 0.119779 0)
(4.81972 0.124823 0)
(4.79229 0.116279 0)
(4.78182 0.10524 0)
(4.7735 0.0972063 0)
(4.76523 0.0895608 0)
(4.75772 0.0814464 0)
(4.75198 0.0704722 0)
(4.74752 0.0596736 0)
(4.74551 0.045078 0)
(4.74518 0.0340435 0)
(4.74969 0.0162897 0)
(4.75734 0.00739553 0)
(4.7739 -0.0161184 0)
(4.79546 -0.0262335 0)
(4.82939 -0.0658422 0)
(4.86586 -0.109651 0)
(4.99747 0.18499 0)
(4.91018 0.114738 0)
(4.8386 0.110833 0)
(4.80851 0.103635 0)
(4.80089 0.0928102 0)
(4.80023 0.0839222 0)
(4.80269 0.0767448 0)
(4.80872 0.068461 0)
(4.81812 0.0590299 0)
(4.8304 0.0473218 0)
(4.84453 0.0355617 0)
(4.86059 0.0214302 0)
(4.87865 0.00839789 0)
(4.89952 -0.00851409 0)
(4.92479 -0.0248788 0)
(4.95378 -0.0490707 0)
(4.98954 -0.0808532 0)
(5.02286 -0.126607 0)
(4.99201 0.213813 0)
(4.92745 0.139568 0)
(4.86348 0.127087 0)
(4.83141 0.118806 0)
(4.82217 0.105524 0)
(4.8211 0.0930933 0)
(4.82326 0.0824248 0)
(4.82872 0.0721282 0)
(4.83801 0.0603931 0)
(4.85059 0.0478099 0)
(4.8659 0.0335337 0)
(4.88326 0.0190813 0)
(4.903 0.0025032 0)
(4.9251 -0.014768 0)
(4.95059 -0.0358444 0)
(4.97877 -0.0618293 0)
(5.0097 -0.0951949 0)
(5.03754 -0.143824 0)
(4.98736 0.227522 0)
(4.94075 0.151822 0)
(4.88516 0.130341 0)
(4.85323 0.119468 0)
(4.84339 0.104855 0)
(4.84282 0.0902135 0)
(4.84531 0.0776181 0)
(4.85038 0.0656956 0)
(4.85878 0.0531001 0)
(4.87032 0.0392097 0)
(4.88456 0.0242742 0)
(4.90074 0.00816902 0)
(4.91917 -0.00913431 0)
(4.93938 -0.0284494 0)
(4.96238 -0.0509294 0)
(4.98658 -0.0782664 0)
(5.01213 -0.112948 0)
(5.03376 -0.156853 0)
(4.99939 0.242361 0)
(4.96961 0.168636 0)
(4.92395 0.139434 0)
(4.89242 0.124974 0)
(4.88016 0.109125 0)
(4.87826 0.0928006 0)
(4.88024 0.0780415 0)
(4.88474 0.0643986 0)
(4.89227 0.0504685 0)
(4.90276 0.0355935 0)
(4.91589 0.0196325 0)
(4.93087 0.00248165 0)
(4.94786 -0.0161322 0)
(4.96613 -0.0370927 0)
(4.98637 -0.0610075 0)
(5.00665 -0.0897941 0)
(5.02734 -0.123933 0)
(5.04344 -0.165034 0)
(5.00164 0.252009 0)
(4.9828 0.182183 0)
(4.94603 0.147793 0)
(4.91722 0.129554 0)
(4.90491 0.112428 0)
(4.90312 0.0945782 0)
(4.90537 0.0777202 0)
(4.90963 0.0619659 0)
(4.9164 0.0463449 0)
(4.92595 0.0300017 0)
(4.9382 0.0126735 0)
(4.95236 -0.00581495 0)
(4.96831 -0.0257252 0)
(4.98521 -0.047791 0)
(5.00334 -0.0726964 0)
(5.02083 -0.101616 0)
(5.03787 -0.134815 0)
(5.05038 -0.173009 0)
(5.00676 0.25743 0)
(4.99643 0.192409 0)
(4.96766 0.154191 0)
(4.94245 0.131807 0)
(4.93086 0.113125 0)
(4.92939 0.0942739 0)
(4.93215 0.0759737 0)
(4.93667 0.0586448 0)
(4.94298 0.0416828 0)
(4.95131 0.0242805 0)
(4.96172 0.00599715 0)
(4.97369 -0.0135239 0)
(4.98712 -0.0344939 0)
(5.00124 -0.057517 0)
(5.01611 -0.0830146 0)
(5.03013 -0.111783 0)
(5.0433 -0.143805 0)
(5.05258 -0.179266 0)
(5.0013 0.26647 0)
(4.99837 0.205271 0)
(4.9771 0.164585 0)
(4.95543 0.138133 0)
(4.94435 0.117005 0)
(4.94276 0.0966892 0)
(4.94574 0.076884 0)
(4.95041 0.0579412 0)
(4.95643 0.0395042 0)
(4.9641 0.0208649 0)
(4.97355 0.00148191 0)
(4.98431 -0.0190425 0)
(4.9961 -0.0409723 0)
(5.00815 -0.0647381 0)
(5.02031 -0.0905943 0)
(5.03132 -0.118983 0)
(5.04107 -0.149729 0)
(5.04752 -0.182778 0)
(4.99047 0.265698 0)
(4.99105 0.209362 0)
(4.97501 0.16798 0)
(4.9569 0.138971 0)
(4.94682 0.115935 0)
(4.94496 0.0944732 0)
(4.94767 0.0735907 0)
(4.95235 0.0534086 0)
(4.95833 0.0338102 0)
(4.96565 0.014176 0)
(4.97444 -0.00603879 0)
(4.98418 -0.0272372 0)
(4.99459 -0.0496503 0)
(5.00477 -0.0735967 0)
(5.01475 -0.0992318 0)
(5.02318 -0.126826 0)
(5.0306 -0.156111 0)
(5.03469 -0.186981 0)
(5.01828 0.271434 0)
(5.02008 0.218105 0)
(5.00636 0.176288 0)
(4.9898 0.144969 0)
(4.97992 0.119675 0)
(4.97739 0.0966894 0)
(4.97911 0.0745822 0)
(4.98261 0.0531976 0)
(4.98716 0.0323693 0)
(4.99268 0.0116749 0)
(4.99936 -0.00935453 0)
(5.00681 -0.0311476 0)
(5.01488 -0.0539437 0)
(5.02273 -0.0779993 0)
(5.03038 -0.10338 0)
(5.03653 -0.130225 0)
(5.04177 -0.158235 0)
(5.04404 -0.187302 0)
(4.9936 0.274098 0)
(5.00098 0.222071 0)
(4.99265 0.179838 0)
(4.98024 0.146609 0)
(4.97277 0.119389 0)
(4.97148 0.0951659 0)
(4.97409 0.0722254 0)
(4.97845 0.0500324 0)
(4.98365 0.0283615 0)
(4.98948 0.00690553 0)
(4.99602 -0.0147453 0)
(5.00295 -0.0369779 0)
(5.01018 -0.06001 0)
(5.01696 -0.0840463 0)
(5.02339 -0.109068 0)
(5.02833 -0.135136 0)
(5.03244 -0.161935 0)
(5.03386 -0.189405 0)
(5.01179 0.273656 0)
(5.0201 0.22663 0)
(5.01391 0.185733 0)
(5.00288 0.151436 0)
(4.99549 0.122231 0)
(4.99338 0.096091 0)
(4.99489 0.0716562 0)
(4.99819 0.0482996 0)
(5.00229 0.0257555 0)
(5.00679 0.00365309 0)
(5.01176 -0.0184119 0)
(5.01697 -0.0408678 0)
(5.02247 -0.0639305 0)
(5.02757 -0.087753 0)
(5.03243 -0.112237 0)
(5.03585 -0.137389 0)
(5.03866 -0.162887 0)
(5.03888 -0.188697 0)
(5.01034 0.274505 0)
(5.01993 0.228714 0)
(5.01715 0.187762 0)
(5.01031 0.15234 0)
(5.00608 0.121775 0)
(5.00555 0.0945167 0)
(5.00742 0.0692501 0)
(5.01037 0.0452252 0)
(5.01384 0.0220167 0)
(5.01763 -0.000753042 0)
(5.02177 -0.0234335 0)
(5.02595 -0.0463479 0)
(5.03012 -0.0696091 0)
(5.03361 -0.0932813 0)
(5.0366 -0.117188 0)
(5.03812 -0.141321 0)
(5.03903 -0.165339 0)
(5.03769 -0.189344 0)
(5.01609 0.278999 0)
(5.02895 0.233912 0)
(5.02942 0.192935 0)
(5.02485 0.15663 0)
(5.02205 0.124607 0)
(5.02231 0.0958038 0)
(5.02452 0.0691803 0)
(5.02757 0.0440389 0)
(5.03092 0.0199824 0)
(5.03428 -0.00332429 0)
(5.03764 -0.0261771 0)
(5.04068 -0.0488598 0)
(5.04336 -0.0714834 0)
(5.04515 -0.0941375 0)
(5.04627 -0.116715 0)
(5.04593 -0.139275 0)
(5.04503 -0.161576 0)
(5.04218 -0.183784 0)
(5.00888 0.269613 0)
(5.02231 0.227672 0)
(5.02425 0.188324 0)
(5.02201 0.152512 0)
(5.02166 0.120152 0)
(5.02381 0.0906922 0)
(5.02713 0.0634929 0)
(5.03062 0.0379996 0)
(5.03394 0.0137722 0)
(5.03697 -0.00956993 0)
(5.03968 -0.0322876 0)
(5.04184 -0.0545922 0)
(5.04347 -0.0765277 0)
(5.04418 -0.0981859 0)
(5.04429 -0.119451 0)
(5.04313 -0.140434 0)
(5.04151 -0.160885 0)
(5.03818 -0.181086 0)
(5.01783 0.277021 0)
(5.02924 0.232262 0)
(5.03108 0.191019 0)
(5.0307 0.153682 0)
(5.03298 0.120156 0)
(5.03732 0.0898768 0)
(5.04194 0.0621551 0)
(5.04594 0.0364567 0)
(5.0492 0.0124121 0)
(5.05172 -0.0103179 0)
(5.05358 -0.03203 0)
(5.05463 -0.0530031 0)
(5.05497 -0.073381 0)
(5.05432 -0.0932994 0)
(5.05303 -0.112708 0)
(5.05058 -0.131693 0)
(5.04771 -0.150075 0)
(5.04336 -0.168047 0)
(5.00653 0.274543 0)
(5.02294 0.226087 0)
(5.02922 0.182105 0)
(5.03189 0.143353 0)
(5.03654 0.109259 0)
(5.04313 0.0788815 0)
(5.04973 0.051373 0)
(5.05523 0.0261039 0)
(5.05945 0.00266782 0)
(5.06249 -0.0192601 0)
(5.06449 -0.0399493 0)
(5.06537 -0.059673 0)
(5.06521 -0.07857 0)
(5.06384 -0.096789 0)
(5.06157 -0.114274 0)
(5.05806 -0.131141 0)
(5.054 -0.147209 0)
(5.04862 -0.162752 0)
(4.99995 0.270175 0)
(5.018 0.219323 0)
(5.02807 0.173491 0)
(5.03582 0.133843 0)
(5.04518 0.0999086 0)
(5.05517 0.0706058 0)
(5.06381 0.0448912 0)
(5.07035 0.0219575 0)
(5.07513 0.0011932 0)
(5.07856 -0.0178741 0)
(5.08088 -0.0355923 0)
(5.08198 -0.0522623 0)
(5.08191 -0.0680842 0)
(5.08048 -0.0832378 0)
(5.07802 -0.0977786 0)
(5.07427 -0.111837 0)
(5.06989 -0.125348 0)
(5.06424 -0.138506 0)
(5.00108 0.266483 0)
(5.02014 0.208958 0)
(5.03363 0.15896 0)
(5.046 0.117706 0)
(5.0596 0.0837888 0)
(5.07284 0.0549379 0)
(5.0839 0.0295058 0)
(5.09224 0.00674526 0)
(5.09822 -0.0136004 0)
(5.10225 -0.0317809 0)
(5.10464 -0.0481465 0)
(5.10545 -0.0631217 0)
(5.10492 -0.077026 0)
(5.10301 -0.0901493 0)
(5.10014 -0.102599 0)
(5.09602 -0.114579 0)
(5.09136 -0.12601 0)
(5.08536 -0.137148 0)
(5.02235 0.264264 0)
(5.04692 0.197577 0)
(5.06689 0.144199 0)
(5.08462 0.104232 0)
(5.10109 0.0740843 0)
(5.115 0.0496612 0)
(5.12573 0.0284527 0)
(5.13385 0.00944611 0)
(5.1401 -0.00764691 0)
(5.14467 -0.0230452 0)
(5.14756 -0.0370593 0)
(5.14869 -0.0500136 0)
(5.14829 -0.0621496 0)
(5.1464 -0.0736528 0)
(5.14348 -0.0845892 0)
(5.13933 -0.0950639 0)
(5.13462 -0.105058 0)
(5.12867 -0.114705 0)
(5.00753 0.25501 0)
(5.04174 0.178131 0)
(5.0733 0.121682 0)
(5.101 0.0816115 0)
(5.12443 0.0512208 0)
(5.14266 0.0258242 0)
(5.15588 0.00381334 0)
(5.16522 -0.0148682 0)
(5.1718 -0.0304485 0)
(5.17618 -0.0436499 0)
(5.17867 -0.0552636 0)
(5.1794 -0.0658873 0)
(5.17871 -0.0758182 0)
(5.17667 -0.0852332 0)
(5.17364 -0.0941603 0)
(5.16942 -0.102727 0)
(5.16453 -0.110882 0)
(5.15841 -0.118824 0)
(4.99769 0.242848 0)
(5.04087 0.157617 0)
(5.08369 0.104835 0)
(5.11865 0.0740611 0)
(5.14497 0.0521947 0)
(5.16448 0.0324903 0)
(5.17974 0.0142104 0)
(5.19218 -0.0018833 0)
(5.20189 -0.0156144 0)
(5.2086 -0.0275187 0)
(5.21251 -0.0382506 0)
(5.21399 -0.0481882 0)
(5.21368 -0.0574426 0)
(5.2118 -0.0660729 0)
(5.20881 -0.0741273 0)
(5.20453 -0.081719 0)
(5.19959 -0.0888936 0)
(5.19342 -0.0957756 0)
(5.02105 0.224349 0)
(5.07949 0.120312 0)
(5.13879 0.0635544 0)
(5.182 0.0331624 0)
(5.20966 0.0108313 0)
(5.22821 -0.00867343 0)
(5.24282 -0.0244326 0)
(5.25508 -0.0363193 0)
(5.26477 -0.0456611 0)
(5.27141 -0.0538171 0)
(5.27519 -0.061433 0)
(5.27653 -0.0686496 0)
(5.27603 -0.0754332 0)
(5.27386 -0.0818232 0)
(5.27045 -0.0878626 0)
(5.26569 -0.0936781 0)
(5.26025 -0.0992604 0)
(5.25365 -0.104753 0)
(5.01811 0.210279 0)
(5.09892 0.108484 0)
(5.17649 0.070822 0)
(5.22664 0.0523412 0)
(5.25572 0.0320664 0)
(5.2761 0.0117928 0)
(5.29355 -0.0044769 0)
(5.3081 -0.0162909 0)
(5.31868 -0.0254314 0)
(5.32526 -0.0333909 0)
(5.32868 -0.0406908 0)
(5.32974 -0.0474194 0)
(5.32908 -0.0536167 0)
(5.32686 -0.0594006 0)
(5.32344 -0.0648798 0)
(5.3187 -0.0701738 0)
(5.31319 -0.0753083 0)
(5.30651 -0.0803537 0)
(5.01253 0.157422 0)
(5.13195 0.0317491 0)
(5.22851 0.00253501 0)
(5.27918 -0.00853599 0)
(5.30489 -0.0238625 0)
(5.32435 -0.0373216 0)
(5.34226 -0.0461972 0)
(5.35724 -0.0521859 0)
(5.36791 -0.0571862 0)
(5.37449 -0.0619464 0)
(5.37795 -0.0665166 0)
(5.37903 -0.0708399 0)
(5.37828 -0.0748933 0)
(5.37589 -0.0787452 0)
(5.37225 -0.082422 0)
(5.36732 -0.0860244 0)
(5.3617 -0.089537 0)
(5.35499 -0.0930715 0)
(5.01433 0.151005 0)
(5.1824 0.0547422 0)
(5.30216 0.0400364 0)
(5.35525 0.0227829 0)
(5.38159 0.00299862 0)
(5.40375 -0.0112219 0)
(5.42355 -0.0200861 0)
(5.43871 -0.0266603 0)
(5.44861 -0.0324582 0)
(5.45414 -0.0377258 0)
(5.45639 -0.0424176 0)
(5.45614 -0.0466506 0)
(5.4538 -0.0505511 0)
(5.44963 -0.0543039 0)
(5.4439 -0.0579411 0)
(5.43675 -0.0615929 0)
(5.4285 -0.0651885 0)
(5.41911 -0.0688516 0)
(5.01537 0.0194719 0)
(5.23332 -0.0518794 0)
(5.35636 -0.0355484 0)
(5.40318 -0.0446095 0)
(5.42662 -0.0551494 0)
(5.44392 -0.0600451 0)
(5.45482 -0.0620611 0)
(5.45746 -0.0636442 0)
(5.45197 -0.0653356 0)
(5.43985 -0.0670064 0)
(5.42252 -0.0685419 0)
(5.40121 -0.0699944 0)
(5.37642 -0.0713952 0)
(5.34888 -0.072829 0)
(5.31849 -0.0742486 0)
(5.2862 -0.0757328 0)
(5.2513 -0.0771859 0)
(5.21554 -0.0787492 0)
(4.97085 0.0677239 0)
(5.10954 -0.00190518 0)
(5.07723 -0.00236633 0)
(4.95664 -0.0124571 0)
(4.82356 -0.0198757 0)
(4.69455 -0.0228371 0)
(4.56899 -0.0240396 0)
(4.4448 -0.024851 0)
(4.32159 -0.0254663 0)
(4.20015 -0.0258531 0)
(4.08126 -0.0260411 0)
(3.96555 -0.0261069 0)
(3.85298 -0.0261031 0)
(3.74379 -0.0260795 0)
(3.6373 -0.0260465 0)
(3.53425 -0.0260615 0)
(3.43311 -0.0261036 0)
(3.33603 -0.0262734 0)
(-0.0043606 0.000338674 4.00449e-21)
(-0.0161726 -0.00144677 -3.97929e-21)
(-0.0269586 -0.000614789 0)
(-0.0397967 0.00121683 0)
(-0.0542242 0.00347938 0)
(-0.0707439 0.00609299 3.86806e-21)
(-0.0893354 0.00894194 0)
(-0.110116 0.0118801 0)
(-0.133055 0.0147955 0)
(-0.158129 0.0176152 0)
(-0.1853 0.0203255 -3.72751e-21)
(-0.214507 0.0229401 0)
(-0.245682 0.0254722 0)
(-0.278748 0.0279341 0)
(-0.313607 0.0303234 0)
(-0.350139 0.0326136 -3.58636e-21)
(-0.388174 0.0347757 0)
(-0.427489 0.0367424 0)
(-0.467833 0.0384296 0)
(-0.508889 0.0397644 0)
(-0.550285 0.0406516 0)
(-0.591607 0.0410412 0)
(-0.632342 0.0408805 0)
(-0.671978 0.0401501 -3.36071e-21)
(-0.709957 0.0388276 3.33278e-21)
(-0.74571 0.0369115 -3.30505e-21)
(-0.778695 0.0344226 -3.27762e-21)
(-0.808358 0.0313926 0)
(-0.834193 0.0278582 0)
(-0.855702 0.0238907 3.19839e-21)
(-0.872415 0.0195259 3.17345e-21)
(-0.883919 0.0148366 0)
(-0.889809 0.0098889 0)
(-0.889754 0.00473555 3.10531e-21)
(-0.883485 -0.000546181 0)
(-0.870773 -0.00589265 0)
(-0.851475 -0.0112245 -3.05017e-21)
(-0.825525 -0.0164745 0)
(-0.792938 -0.0215654 -3.02196e-21)
(-0.753819 -0.0264296 -6.02096e-21)
(-0.708367 -0.0310024 0)
(-0.656873 -0.0352276 0)
(-0.599698 -0.0390555 0)
(-0.537256 -0.0424459 0)
(-0.470045 -0.0453859 0)
(-0.398634 -0.0478657 -5.94307e-21)
(-0.323555 -0.0499088 -5.93629e-21)
(-0.245346 -0.0515129 -5.92996e-21)
(-0.164565 -0.0527068 0)
(-0.0817582 -0.0534886 5.91662e-21)
(0.00257613 -0.0538902 0)
(0.0879021 -0.0539361 -5.89937e-21)
(0.173743 -0.0536456 -5.88833e-21)
(0.259635 -0.0530441 0)
(0.345114 -0.0521485 0)
(0.429756 -0.0509954 0)
(0.513199 -0.049594 -5.82181e-21)
(0.59507 -0.0480142 0)
(0.675039 -0.0462521 0)
(0.752858 -0.0443582 0)
(0.828296 -0.0423479 0)
(0.901157 -0.0402802 0)
(0.971296 -0.0381634 0)
(1.03863 -0.0360333 0)
(1.10307 -0.0338996 0)
(1.16458 -0.0318027 5.52869e-21)
(1.22316 -0.0297445 0)
(1.27883 -0.0277428 0)
(1.33162 -0.025812 -5.39756e-21)
(1.38159 -0.023955 -5.35165e-21)
(1.42881 -0.0221806 0)
(1.47339 -0.0204877 5.25743e-21)
(1.51541 -0.0188793 -5.2094e-21)
(1.55496 -0.0173573 0)
(1.59214 -0.0159213 5.11214e-21)
(1.62704 -0.0145701 0)
(1.65977 -0.0133017 0)
(1.69041 -0.0121135 -4.96464e-21)
(1.71908 -0.0110028 0)
(1.74586 -0.00996645 4.86609e-21)
(1.77084 -0.00900138 0)
(1.79412 -0.00810438 -4.76789e-21)
(1.81578 -0.0072723 -4.71901e-21)
(1.83592 -0.00650199 -4.67034e-21)
(1.8546 -0.0057904 -9.24376e-21)
(1.87191 -0.0051345 9.14735e-21)
(1.88793 -0.00453138 0)
(1.90273 -0.00397818 0)
(1.91637 -0.00347212 0)
(1.92894 -0.00301049 8.76728e-21)
(1.94049 -0.00259061 8.67379e-21)
(1.95109 -0.00220986 -8.58094e-21)
(1.9608 -0.00186562 0)
(1.96968 -0.00155525 8.39722e-21)
(1.97778 -0.00127614 8.30636e-21)
(1.98515 -0.00102585 8.21618e-21)
(1.99185 -0.000802099 0)
(1.99792 -0.000602681 0)
(2.00341 -0.000425494 0)
(2.00836 -0.000268511 7.8622e-21)
(2.01281 -0.000129781 0)
(2.0168 -7.46681e-06 0)
(2.02035 0.00010018 -7.60378e-21)
(2.02352 0.000194815 0)
(2.02632 0.00027791 0)
(2.02878 0.000350924 -7.35128e-21)
(2.03093 0.000415046 0)
(2.0328 0.000471518 0)
(2.0344 0.000521551 7.10457e-21)
(2.03575 0.000565824 7.02359e-21)
(2.03688 0.00060543 0)
(2.03779 0.000640399 -6.86347e-21)
(2.03851 0.000669856 0)
(2.03905 0.000693497 6.70577e-21)
(2.03943 0.000711806 0)
(2.03967 0.000725379 6.55042e-21)
(2.03977 0.000734659 6.47362e-21)
(2.03976 0.000740162 0)
(2.03963 0.000742253 0)
(2.03941 0.000741106 0)
(2.0391 0.000737153 0)
(2.03871 0.000731272 0)
(2.03825 0.000723977 0)
(2.03772 0.000715463 0)
(2.03714 0.000705862 5.87916e-21)
(2.0365 0.000695323 -5.80726e-21)
(2.03582 0.000683979 0)
(2.03509 0.000671949 0)
(2.03433 0.000659436 0)
(2.03354 0.000646751 0)
(2.03271 0.000634277 -1.09107e-20)
(2.03186 0.000622368 0)
(2.03099 0.000611279 1.0636e-20)
(2.03009 0.00060112 -1.05001e-20)
(2.02917 0.000591877 0)
(2.02822 0.000583454 0)
(2.02726 0.000575736 0)
(2.02627 0.000568627 9.96579e-21)
(2.02526 0.000562062 9.83447e-21)
(2.02423 0.000556021 0)
(2.02318 0.000550486 9.57449e-21)
(2.02212 0.000545474 9.44581e-21)
(2.02103 0.000540981 -9.31799e-21)
(2.01992 0.000537015 0)
(2.0188 0.000533563 0)
(2.01766 0.000530627 -8.93958e-21)
(2.0165 0.000528198 0)
(2.01531 0.000526284 0)
(2.01411 0.000524896 0)
(2.01289 0.000524065 0)
(2.01165 0.000523824 8.32523e-21)
(2.01039 0.000524241 8.20474e-21)
(2.0091 0.000525384 0)
(2.00779 0.000527378 7.96606e-21)
(2.00645 0.000530332 0)
(2.00507 0.000534484 0)
(2.00367 0.000539983 7.61373e-21)
(2.00222 0.000547291 0)
(2.00073 0.000556556 7.38257e-21)
(1.99918 0.000568695 0)
(1.99757 0.000583748 0)
(1.99589 0.00060351 7.04137e-21)
(1.9941 0.000627773 0)
(1.99222 0.000659787 6.8176e-21)
(1.99016 0.000699345 0)
(1.98798 0.000751091 0)
(1.98548 0.000817861 0)
(1.98285 0.000900466 -6.37937e-21)
(1.97959 0.00102108 0)
(1.97623 0.0011467 6.16543e-21)
(1.97165 0.00138977 0)
(1.96704 0.00155416 0)
(1.96014 0.00212175 0)
(1.95296 0.00222666 0)
(1.9421 0.00377969 0)
(1.92835 0.0033313 0)
(1.91152 0.0082902 0)
(1.87604 0.00545917 -1.07504e-20)
(1.85276 0.0252307 0)
(1.72886 0.0198727 0)
(-0.0120855 0.0454144 -1.20186e-20)
(-0.0475289 0.0503012 1.19431e-20)
(-0.0805157 0.052352 0)
(-0.115174 0.0572539 -7.85043e-21)
(-0.150315 0.0624743 0)
(-0.186226 0.0678232 -3.87049e-21)
(-0.222692 0.0731151 7.68238e-21)
(-0.259755 0.0782731 7.62601e-21)
(-0.297377 0.0832471 0)
(-0.33556 0.0879928 7.51284e-21)
(-0.37426 0.0924865 3.72985e-21)
(-0.413435 0.0966909 0)
(-0.453009 0.100556 0)
(-0.492856 0.10402 0)
(-0.532849 0.106996 0)
(-0.572804 0.109394 3.58857e-21)
(-0.612507 0.111111 0)
(-0.651729 0.112036 -7.05582e-21)
(-0.69017 0.112049 0)
(-0.727537 0.111066 0)
(-0.763518 0.108987 6.88311e-21)
(-0.797803 0.105761 0)
(-0.830054 0.101345 -6.76805e-21)
(-0.859956 0.0957308 3.36257e-21)
(-0.887207 0.0889241 -3.33458e-21)
(-0.91147 0.0809608 3.3068e-21)
(-0.932426 0.0718912 3.27933e-21)
(-0.949754 0.0617782 0)
(-0.963109 0.050691 0)
(-0.972182 0.0387241 -3.19994e-21)
(-0.976666 0.0259582 3.15474e-21)
(-0.976236 0.0124965 0)
(-0.970617 -0.00154911 0)
(-0.959552 -0.0160554 -3.10664e-21)
(-0.942808 -0.0308836 0)
(-0.920189 -0.0458781 0)
(-0.891559 -0.060873 3.05134e-21)
(-0.856846 -0.0756865 0)
(-0.81603 -0.0901319 -3.00264e-21)
(-0.769173 -0.10402 6.02301e-21)
(-0.716409 -0.11717 0)
(-0.657958 -0.129416 0)
(-0.594116 -0.140607 1.19127e-20)
(-0.525249 -0.150624 1.18925e-20)
(-0.451777 -0.15939 1.18763e-20)
(-0.374157 -0.166847 -5.91841e-21)
(-0.292919 -0.172988 5.93781e-21)
(-0.208578 -0.177814 1.77726e-20)
(-0.121696 -0.181383 -1.18304e-20)
(-0.0328064 -0.183723 -5.91793e-21)
(0.0575666 -0.184919 0)
(0.148909 -0.185021 5.90057e-21)
(0.240755 -0.184118 -5.87718e-21)
(0.332653 -0.182266 0)
(0.424133 -0.179538 0)
(0.514782 -0.176019 0)
(0.604213 -0.171773 5.82274e-21)
(0.692063 -0.16693 0)
(0.778041 -0.161551 -1.15426e-20)
(0.861878 -0.155754 0)
(0.94334 -0.149629 -1.14261e-20)
(1.02223 -0.143274 0)
(1.09844 -0.136777 1.12902e-20)
(1.17189 -0.130218 0)
(1.24249 -0.123654 -1.11376e-20)
(1.31019 -0.117166 5.52666e-21)
(1.37504 -0.110777 0)
(1.43702 -0.104552 1.08838e-20)
(1.49618 -0.0985093 5.3981e-21)
(1.55259 -0.0926786 5.35215e-21)
(1.60631 -0.0870713 0)
(1.65745 -0.081697 5.25614e-21)
(1.70609 -0.0765616 5.20983e-21)
(1.7523 -0.0716692 0)
(1.7962 -0.0670188 -5.11253e-21)
(1.83785 -0.0626069 1.01256e-20)
(1.87736 -0.0584278 0)
(1.91482 -0.0544748 4.96498e-21)
(1.9503 -0.0507399 0)
(1.98392 -0.047215 -1.45981e-20)
(2.01573 -0.0438914 0)
(2.04583 -0.0407606 1.43036e-20)
(2.07429 -0.0378139 4.71928e-21)
(2.10119 -0.0350432 -4.66978e-21)
(2.1266 -0.0324402 -9.24274e-21)
(2.15059 -0.0299971 9.1464e-21)
(2.17322 -0.0277065 0)
(2.19456 -0.025561 0)
(2.21467 -0.0235538 0)
(2.23361 -0.0216781 -2.63019e-20)
(2.25143 -0.0199275 -8.67416e-21)
(2.26819 -0.0182956 8.58129e-21)
(2.28395 -0.0167765 0)
(2.29874 -0.0153642 8.39673e-21)
(2.31262 -0.0140529 -8.30668e-21)
(2.32564 -0.0128371 -8.21649e-21)
(2.33785 -0.0117112 0)
(2.34928 -0.0106701 0)
(2.35997 -0.00970845 0)
(2.36997 -0.00882145 -7.86249e-21)
(2.37932 -0.00800426 0)
(2.38805 -0.00725223 1.53786e-20)
(2.3962 -0.00656088 2.28117e-20)
(2.4038 -0.00592587 -1.50381e-20)
(2.41089 -0.00534311 0)
(2.41749 -0.00480858 -7.35121e-21)
(2.42363 -0.0043186 0)
(2.42935 -0.00386966 -1.43726e-20)
(2.43466 -0.00345839 7.10456e-21)
(2.4396 -0.00308196 7.02359e-21)
(2.4442 -0.00273759 0)
(2.44847 -0.00242327 2.05909e-20)
(2.45243 -0.00213765 -1.35689e-20)
(2.45611 -0.0018789 -6.706e-21)
(2.45952 -0.00164468 0)
(2.46268 -0.00143272 -6.55065e-21)
(2.4656 -0.00124094 -1.94214e-20)
(2.4683 -0.00106748 0)
(2.4708 -0.000910704 -1.26437e-20)
(2.47309 -0.000768913 -1.24935e-20)
(2.47521 -0.000640662 -1.23444e-20)
(2.47716 -0.000525176 0)
(2.47895 -0.00042161 0)
(2.48059 -0.000328902 0)
(2.48209 -0.000246118 5.8793e-21)
(2.48347 -0.000172411 5.80746e-21)
(2.48473 -0.000106975 0)
(2.48588 -4.89832e-05 1.13303e-20)
(2.48693 2.3625e-06 1.11896e-20)
(2.48789 4.78543e-05 0)
(2.48875 8.83218e-05 1.09111e-20)
(2.48954 0.000124561 2.15464e-20)
(2.49025 0.000157307 -1.06364e-20)
(2.49089 0.000187177 -1.05004e-20)
(2.49147 0.000214661 0)
(2.49198 0.0002401 0)
(2.49244 0.000263715 0)
(2.49284 0.000285641 -9.96614e-21)
(2.49319 0.000305953 9.83477e-21)
(2.4935 0.000324737 1.94087e-20)
(2.49376 0.000342066 -9.57484e-21)
(2.49398 0.00035807 9.4461e-21)
(2.49415 0.000372869 9.31833e-21)
(2.49429 0.000386619 0)
(2.4944 0.000399457 0)
(2.49447 0.000411547 -8.93986e-21)
(2.49452 0.000423036 0)
(2.49453 0.000434101 0)
(2.49452 0.000444916 1.71377e-20)
(2.49448 0.000455691 0)
(2.49442 0.000466642 8.32549e-21)
(2.49433 0.00047804 -8.20504e-21)
(2.49422 0.000490177 0)
(2.49408 0.000503433 7.9663e-21)
(2.49392 0.000518222 0)
(2.49373 0.000535117 0)
(2.49351 0.000554738 -7.61401e-21)
(2.49327 0.000577975 1.4996e-20)
(2.49299 0.000605814 -7.38284e-21)
(2.49266 0.000639605 0)
(2.49229 0.000681128 0)
(2.49187 0.000732141 7.04152e-21)
(2.49138 0.000796551 0)
(2.4908 0.000875328 6.8177e-21)
(2.49011 0.000979003 0)
(2.4893 0.0011018 0)
(2.48831 0.00127623 0)
(2.48712 0.00146643 6.37959e-21)
(2.48565 0.00177848 0)
(2.48379 0.00206358 -6.16564e-21)
(2.48152 0.00267161 0)
(2.47845 0.00306026 0)
(2.47485 0.00437912 1.1705e-20)
(2.46939 0.00477334 -1.15021e-20)
(2.46359 0.00800064 0)
(2.45279 0.00794579 0)
(2.44332 0.0170175 0)
(2.41954 0.0156488 3.22331e-20)
(2.40518 0.046693 0)
(2.35344 0.0491558 -2.08114e-20)
(-0.015111 0.125476 7.40074e-24)
(-0.0599082 0.139525 -1.59233e-20)
(-0.100839 0.139821 0)
(-0.143074 0.144139 1.57015e-20)
(-0.18473 0.148312 0)
(-0.226365 0.152556 0)
(-0.267755 0.156809 -7.45047e-24)
(-0.309015 0.161021 -7.62992e-21)
(-0.350112 0.165112 -7.56553e-21)
(-0.391048 0.168998 -7.51667e-21)
(-0.431776 0.172596 0)
(-0.472243 0.175804 0)
(-0.512361 0.178525 7.33627e-21)
(-0.552023 0.180644 1.45568e-20)
(-0.591104 0.182031 -1.44407e-20)
(-0.629467 0.182566 0)
(-0.666971 0.182102 -1.42072e-20)
(-0.703472 0.180528 7.05912e-21)
(-0.738789 0.177724 0)
(-0.772769 0.173575 -1.38541e-20)
(-0.805266 0.168009 -6.88614e-21)
(-0.836111 0.160948 1.36177e-20)
(-0.865114 0.152365 6.77088e-21)
(-0.892097 0.142217 0)
(-0.916858 0.130517 -1.32646e-20)
(-0.93914 0.117287 -1.31484e-20)
(-0.958683 0.102559 0)
(-0.975163 0.0863739 -1.29207e-20)
(-0.988222 0.0687964 0)
(-0.99748 0.0498806 -1.27029e-20)
(-1.00254 0.0297271 -6.33177e-21)
(-1.00298 0.00844307 0)
(-0.99838 -0.0138405 0)
(-0.98835 -0.036946 0)
(-0.972536 -0.0606712 0)
(-0.950625 -0.0847723 0)
(-0.922381 -0.108985 0)
(-0.887646 -0.133007 -1.20367e-20)
(-0.846362 -0.156527 1.8013e-20)
(-0.798574 -0.179229 0)
(-0.74444 -0.200801 0)
(-0.684229 -0.220949 0)
(-0.618309 -0.239412 -5.71194e-23)
(-0.547131 -0.255963 -1.18945e-20)
(-0.471211 -0.270439 -2.37072e-20)
(-0.391123 -0.28274 2.36846e-20)
(-0.307469 -0.292819 1.18123e-20)
(-0.22085 -0.300696 -1.18428e-20)
(-0.131854 -0.306448 3.35458e-23)
(-0.0410367 -0.310171 -1.17897e-20)
(0.0510829 -0.311984 0)
(0.143991 -0.311996 -1.17644e-20)
(0.237214 -0.310333 2.12945e-23)
(0.330329 -0.307104 0)
(0.422857 -0.302436 0)
(0.514386 -0.296446 1.16641e-20)
(0.604529 -0.289278 0)
(0.692919 -0.281079 0)
(0.779269 -0.27202 -1.15235e-20)
(0.863305 -0.262274 -2.29575e-20)
(0.944832 -0.252015 1.14265e-20)
(1.02367 -0.241389 0)
(1.09972 -0.230535 -1.12906e-20)
(1.17291 -0.219605 0)
(1.2432 -0.208706 -1.11279e-20)
(1.31056 -0.197932 -1.10562e-20)
(1.37503 -0.187361 2.19345e-20)
(1.43662 -0.177073 1.08762e-20)
(1.49541 -0.167098 0)
(1.55147 -0.157486 -2.13982e-20)
(1.60487 -0.148256 0)
(1.65573 -0.139419 -3.15364e-20)
(1.70414 -0.130987 -2.08306e-20)
(1.75018 -0.12296 -2.06372e-20)
(1.79396 -0.115336 2.04425e-20)
(1.83556 -0.108105 -3.03724e-20)
(1.87508 -0.101259 0)
(1.91262 -0.0947825 0)
(1.94825 -0.0886629 1.96567e-20)
(1.98208 -0.082885 2.91918e-20)
(2.01419 -0.0774338 0)
(2.04464 -0.0722942 -9.53544e-21)
(2.07352 -0.0674513 0)
(2.10091 -0.0628909 2.80185e-20)
(2.12686 -0.058599 2.49193e-24)
(2.15145 -0.0545622 -2.31425e-24)
(2.17475 -0.0507677 -1.81003e-20)
(2.1968 -0.0472035 0)
(2.21767 -0.0438578 1.77206e-20)
(2.23742 -0.0407195 1.71053e-24)
(2.2561 -0.0377779 0)
(2.27375 -0.0350231 0)
(2.29042 -0.0324452 0)
(2.30617 -0.0300349 -1.67942e-20)
(2.32103 -0.0277834 0)
(2.33505 -0.0256819 0)
(2.34827 -0.0237219 0)
(2.36072 -0.0218956 0)
(2.37245 -0.0201951 0)
(2.38349 -0.0186131 -1.57237e-20)
(2.39386 -0.0171425 0)
(2.40361 -0.0157765 -1.53786e-20)
(2.41277 -0.0145085 -1.52077e-20)
(2.42137 -0.0133325 1.5038e-20)
(2.42942 -0.0122425 0)
(2.43698 -0.0112329 1.47027e-20)
(2.44405 -0.0102983 0)
(2.45066 -0.0094337 1.43726e-20)
(2.45685 -0.00863432 -1.42094e-20)
(2.46263 -0.00789584 -4.21416e-20)
(2.46803 -0.0072143 0)
(2.47306 -0.00658592 -4.11811e-20)
(2.47775 -0.00600694 -1.35684e-20)
(2.48213 -0.00547382 0)
(2.4862 -0.00498307 -2.65114e-20)
(2.48999 -0.00453148 -2.62019e-20)
(2.49352 -0.00411613 3.88423e-20)
(2.49679 -0.00373434 0)
(2.49984 -0.00338369 1.26437e-20)
(2.50266 -0.00306183 1.24935e-20)
(2.50528 -0.00276662 3.70329e-20)
(2.50771 -0.00249654 0)
(2.50996 -0.0022499 0)
(2.51204 -0.00202486 0)
(2.51397 -0.00181972 1.17585e-20)
(2.51575 -0.00163295 0)
(2.5174 -0.00146314 0)
(2.51892 -0.00130891 -1.13303e-20)
(2.52032 -0.0011688 -1.11896e-20)
(2.52161 -0.0010414 0)
(2.5228 -0.000925332 0)
(2.52389 -0.000819302 -2.15464e-20)
(2.52489 -0.00072215 0)
(2.52581 -0.000632852 2.10009e-20)
(2.52666 -0.00055052 2.07309e-20)
(2.52744 -0.000474401 0)
(2.52815 -0.000403874 0)
(2.5288 -0.000338454 -1.99321e-20)
(2.5294 -0.000277769 -5.3859e-26)
(2.52995 -0.000221524 -5.05995e-26)
(2.53044 -0.000169472 0)
(2.5309 -0.000121358 -3.77844e-20)
(2.53131 -7.69329e-05 0)
(2.53169 -3.59129e-05 0)
(2.53203 1.99288e-06 0)
(2.53234 3.71094e-05 1.78797e-20)
(2.53262 6.97712e-05 0)
(2.53287 0.000100344 -3.47668e-20)
(2.53309 0.000129208 -1.71377e-20)
(2.53329 0.000156772 0)
(2.53346 0.000183475 -1.6651e-20)
(2.53361 0.000209801 0)
(2.53374 0.0002363 0)
(2.53385 0.000263584 -4.77978e-20)
(2.53394 0.000292422 3.13923e-20)
(2.534 0.000323626 0)
(2.53404 0.000358383 3.04557e-20)
(2.53405 0.000397772 -1.4996e-20)
(2.53403 0.000443841 0)
(2.53397 0.000497847 0)
(2.53388 0.000563788 0)
(2.53373 0.00064236 -4.2249e-20)
(2.53353 0.00074243 0)
(2.53325 0.000861111 -1.36355e-20)
(2.53289 0.00102034 0)
(2.5324 0.00120321 0)
(2.53179 0.00146839 0)
(2.53095 0.00175175 0)
(2.52994 0.00221727 0)
(2.52849 0.00265272 0)
(2.52683 0.00352543 -2.42378e-20)
(2.5243 0.00417673 0)
(2.52154 0.005949 -1.1705e-20)
(2.517 0.00688177 3.45022e-20)
(2.51233 0.0108391 0)
(2.50389 0.0122118 0)
(2.4958 0.0221641 -2.18289e-20)
(2.48019 0.0254579 -2.14827e-20)
(2.46703 0.0539778 2.11049e-20)
(2.444 0.0674687 2.08128e-20)
(-0.0152935 0.207394 2.40103e-20)
(-0.0616185 0.231174 2.38598e-20)
(-0.103779 0.229576 1.57874e-20)
(-0.147437 0.23303 7.8252e-21)
(-0.19031 0.236014 0)
(-0.233117 0.239053 -1.54525e-20)
(-0.275525 0.242087 7.65675e-21)
(-0.317641 0.245051 0)
(-0.359407 0.247844 7.56956e-21)
(-0.400821 0.250369 0)
(-0.44184 0.252521 -1.48822e-20)
(-0.48243 0.254179 0)
(-0.522527 0.255213 -7.34011e-21)
(-0.562073 0.255507 -1.45644e-20)
(-0.600995 0.254907 1.44481e-20)
(-0.639222 0.253285 0)
(-0.676655 0.250508 1.42143e-20)
(-0.713203 0.246445 0)
(-0.748799 0.240989 0)
(-0.78333 0.234021 1.38607e-20)
(-0.816701 0.225457 0)
(-0.848805 0.215205 -5.44896e-23)
(-0.879486 0.203188 0)
(-0.908557 0.189326 0)
(-0.935743 0.173543 6.67473e-23)
(-0.960721 0.155772 1.31539e-20)
(-0.983134 0.13597 1.29634e-20)
(-1.00254 0.11411 1.29258e-20)
(-1.01847 0.0901923 0)
(-1.03045 0.064268 2.53269e-20)
(-1.03795 0.0364176 0)
(-1.04047 0.00678379 1.24088e-20)
(-1.03752 -0.0244428 0)
(-1.02863 -0.0570191 0)
(-1.01337 -0.0906339 -1.21375e-20)
(-0.991408 -0.124929 0)
(-0.962465 -0.159493 1.19951e-20)
(-0.926388 -0.193875 1.02941e-22)
(-0.883142 -0.227588 -2.38771e-20)
(-0.83282 -0.260128 2.36959e-20)
(-0.775632 -0.291002 0)
(-0.711926 -0.319739 0)
(-0.642155 -0.345928 1.16921e-20)
(-0.566879 -0.369243 0)
(-0.486767 -0.389456 1.18311e-20)
(-0.402514 -0.406474 -1.18217e-20)
(-0.314827 -0.420264 -1.18142e-20)
(-0.224392 -0.430892 0)
(-0.131862 -0.438475 1.18e-20)
(-0.0378101 -0.44319 1.17912e-20)
(0.0572453 -0.44523 -2.34822e-20)
(0.152809 -0.444772 1.17657e-20)
(0.248433 -0.441988 1.17475e-20)
(0.343685 -0.437039 0)
(0.438103 -0.430087 0)
(0.531266 -0.421279 -1.1665e-20)
(0.622758 -0.410831 0)
(0.712197 -0.398942 0)
(0.799285 -0.38587 2.3068e-20)
(0.88377 -0.371866 2.29586e-20)
(0.96548 -0.357166 0)
(1.04428 -0.342009 0)