/*--------------------------------*- C++ -*----------------------------------*\
  =========                 |
  \\      /  F ield         | OpenFOAM: The Open Source CFD Toolbox
   \\    /   O peration     | Website:  https://openfoam.org
    \\  /    A nd           | Version:  7
     \\/     M anipulation  |
\*---------------------------------------------------------------------------*/
FoamFile
{
    version     2.0;
    format      ascii;
    class       surfaceScalarField;
    location    "0.016";
    object      phi_0;
}
// * * * * * * * * * * * * * * * * * * * * * * * * * * * * * * * * * * * * * //

dimensions      [0 3 -1 0 0 0 0];

internalField   nonuniform List<scalar> 
24170
(
1.43494e-06
2.15647e-07
1.27438e-06
1.60561e-07
1.12844e-06
1.45937e-07
1.01088e-06
1.17555e-07
9.0899e-07
1.01895e-07
8.14859e-07
9.41317e-08
7.26466e-07
8.8393e-08
6.45072e-07
8.13935e-08
5.73582e-07
7.14898e-08
5.14103e-07
5.94797e-08
4.67383e-07
4.67197e-08
4.32311e-07
3.50722e-08
4.07212e-07
2.5099e-08
3.89634e-07
1.75778e-08
3.7729e-07
1.23438e-08
3.68501e-07
8.78877e-09
3.58075e-07
1.04261e-08
9.98682e-09
3.48088e-07
1.66966e-06
2.72668e-07
1.65084e-06
1.7938e-07
1.62348e-06
1.73294e-07
1.58745e-06
1.53591e-07
1.54658e-06
1.42764e-07
1.50303e-06
1.37679e-07
1.45899e-06
1.32434e-07
1.41663e-06
1.23748e-07
1.37741e-06
1.10717e-07
1.34177e-06
9.51172e-08
1.31022e-06
7.82661e-08
1.2826e-06
6.26949e-08
1.2584e-06
4.92984e-08
1.23623e-06
3.97494e-08
1.21498e-06
3.35928e-08
1.1948e-06
2.89712e-08
1.17476e-06
3.04605e-08
2.61019e-08
1.15865e-06
1.81608e-06
3.63566e-07
1.76844e-06
2.27018e-07
1.75302e-06
1.88711e-07
1.74352e-06
1.63091e-07
1.73483e-06
1.51458e-07
1.72434e-06
1.48165e-07
1.71273e-06
1.44044e-07
1.70285e-06
1.33627e-07
1.69641e-06
1.17163e-07
1.69304e-06
9.84841e-08
1.69065e-06
8.06608e-08
1.68731e-06
6.60319e-08
1.68141e-06
5.51973e-08
1.67273e-06
4.84286e-08
1.66118e-06
4.51442e-08
1.64774e-06
4.24111e-08
1.635e-06
4.31973e-08
4.20952e-08
1.61901e-06
1.93177e-06
4.11483e-07
1.89996e-06
2.58833e-07
1.88283e-06
2.05836e-07
1.86492e-06
1.81007e-07
1.84849e-06
1.67886e-07
1.8373e-06
1.5935e-07
1.83212e-06
1.4923e-07
1.83194e-06
1.33802e-07
1.83552e-06
1.13583e-07
1.84155e-06
9.2463e-08
1.84807e-06
7.41359e-08
1.85342e-06
6.06813e-08
1.85608e-06
5.254e-08
1.85552e-06
4.89845e-08
1.85204e-06
4.86308e-08
1.8459e-06
4.85438e-08
1.83946e-06
4.9637e-08
4.8924e-08
1.83263e-06
2.08905e-06
4.53861e-07
2.06832e-06
2.79561e-07
2.0444e-06
2.29758e-07
2.01599e-06
2.0942e-07
1.99667e-06
1.87203e-07
1.989e-06
1.67026e-07
1.98792e-06
1.50303e-07
1.98891e-06
1.32809e-07
1.99052e-06
1.11977e-07
1.99284e-06
9.01394e-08
1.99559e-06
7.13947e-08
1.99776e-06
5.85123e-08
1.99822e-06
5.20701e-08
1.9964e-06
5.08097e-08
1.99271e-06
5.23191e-08
1.98762e-06
5.36364e-08
1.98303e-06
5.42245e-08
5.25865e-08
1.97937e-06
2.25419e-06
4.45706e-07
2.23701e-06
2.96738e-07
2.21603e-06
2.50738e-07
2.19757e-06
2.2788e-07
2.18506e-06
1.99717e-07
2.17581e-06
1.76275e-07
2.16729e-06
1.58823e-07
2.15925e-06
1.40846e-07
2.15273e-06
1.18502e-07
2.14873e-06
9.41325e-08
2.14735e-06
7.27811e-08
2.1477e-06
5.81541e-08
2.14871e-06
5.10657e-08
2.14939e-06
5.01298e-08
2.14929e-06
5.24201e-08
2.14803e-06
5.48906e-08
2.14605e-06
5.62112e-08
5.51847e-08
2.14345e-06
2.43439e-06
4.52815e-07
2.41514e-06
3.15984e-07
2.39643e-06
2.69452e-07
2.38529e-06
2.39023e-07
2.37206e-06
2.12944e-07
2.35526e-06
1.93073e-07
2.34127e-06
1.72816e-07
2.33553e-06
1.46582e-07
2.33808e-06
1.15957e-07
2.34481e-06
8.74022e-08
2.35068e-06
6.69058e-08
2.35232e-06
5.65222e-08
2.3488e-06
5.45822e-08
2.34128e-06
5.76511e-08
2.33195e-06
6.17496e-08
2.3227e-06
6.41378e-08
2.31541e-06
6.35014e-08
5.98809e-08
2.31072e-06
2.58901e-06
4.52661e-07
2.58528e-06
3.19707e-07
2.57646e-06
2.78279e-07
2.5615e-06
2.53982e-07
2.54126e-06
2.33186e-07
2.52323e-06
2.11102e-07
2.51464e-06
1.81399e-07
2.51734e-06
1.43887e-07
2.52773e-06
1.05562e-07
2.53964e-06
7.54965e-08
2.54733e-06
5.92143e-08
2.54762e-06
5.62328e-08
2.54062e-06
6.15871e-08
2.52911e-06
6.91527e-08
2.51701e-06
7.38529e-08
2.50744e-06
7.37125e-08
2.50235e-06
6.85905e-08
6.06818e-08
2.50155e-06
2.75984e-06
4.70607e-07
2.7288e-06
3.50754e-07
2.71953e-06
2.87541e-07
2.71457e-06
2.58949e-07
2.70708e-06
2.40673e-07
2.70369e-06
2.14487e-07
2.70754e-06
1.77555e-07
2.71531e-06
1.36117e-07
2.7216e-06
9.92656e-08
2.72288e-06
7.42192e-08
2.71865e-06
6.34404e-08
2.71061e-06
6.4282e-08
2.70135e-06
7.08374e-08
2.69353e-06
7.69812e-08
2.68889e-06
7.84856e-08
2.68808e-06
7.4523e-08
2.69053e-06
6.61425e-08
5.63012e-08
2.69491e-06
2.9702e-06
5.05512e-07
2.95373e-06
3.67225e-07
2.94992e-06
2.91349e-07
2.95073e-06
2.58139e-07
2.94508e-06
2.46327e-07
2.9347e-06
2.24868e-07
2.92567e-06
1.86584e-07
2.91947e-06
1.42316e-07
2.91318e-06
1.05558e-07
2.90417e-06
8.32241e-08
2.89307e-06
7.45389e-08
2.88299e-06
7.43636e-08
2.87728e-06
7.65458e-08
2.87779e-06
7.64741e-08
2.88414e-06
7.21347e-08
2.89452e-06
6.41461e-08
2.90641e-06
5.42455e-08
4.51719e-08
2.91754e-06
3.19597e-06
5.24245e-07
3.16978e-06
3.93414e-07
3.15442e-06
3.06711e-07
3.13882e-06
2.73734e-07
3.13012e-06
2.55024e-07
3.13077e-06
2.24221e-07
3.13566e-06
1.81697e-07
3.13732e-06
1.40657e-07
3.1314e-06
1.11481e-07
3.11884e-06
9.57825e-08
3.10423e-06
8.91411e-08
3.0926e-06
8.5993e-08
3.08713e-06
8.20202e-08
3.08858e-06
7.50265e-08
3.09563e-06
6.50841e-08
3.10599e-06
5.37858e-08
3.11731e-06
4.29278e-08
3.49185e-08
3.12756e-06
2.8974e-06
4.75664e-07
2.87241e-06
4.18406e-07
2.8474e-06
3.31712e-07
2.83635e-06
2.84788e-07
2.83562e-06
2.55751e-07
2.8385e-06
2.21342e-07
2.83956e-06
1.8064e-07
2.83772e-06
1.42493e-07
2.83484e-06
1.14365e-07
2.83249e-06
9.81325e-08
2.83087e-06
9.07541e-08
2.82937e-06
8.74928e-08
2.82763e-06
8.37603e-08
2.8259e-06
7.67612e-08
2.82482e-06
6.61684e-08
2.82494e-06
5.36657e-08
2.82637e-06
4.14967e-08
3.20892e-08
2.8292e-06
3.46125e-06
4.71264e-07
3.47533e-06
4.04328e-07
3.47096e-06
3.3608e-07
3.451e-06
3.04751e-07
3.43277e-06
2.73982e-07
3.42517e-06
2.28942e-07
3.42841e-06
1.774e-07
3.4387e-06
1.322e-07
3.4516e-06
1.01472e-07
3.46361e-06
8.61154e-08
3.47276e-06
8.16086e-08
3.4785e-06
8.17551e-08
3.48139e-06
8.08639e-08
3.48221e-06
7.59444e-08
3.48158e-06
6.68021e-08
3.47955e-06
5.56942e-08
3.47603e-06
4.50148e-08
3.68861e-08
3.47123e-06
4.27213e-06
4.5547e-07
4.25588e-06
4.20578e-07
4.23909e-06
3.52868e-07
4.23663e-06
3.07207e-07
4.24225e-06
2.68361e-07
4.25049e-06
2.2071e-07
4.25807e-06
1.69817e-07
4.26426e-06
1.26013e-07
4.26894e-06
9.67879e-08
4.27157e-06
8.34903e-08
4.27135e-06
8.18247e-08
4.2682e-06
8.49062e-08
4.26281e-06
8.62559e-08
4.25611e-06
8.26418e-08
4.24908e-06
7.38297e-08
4.24239e-06
6.23901e-08
4.23707e-06
5.03263e-08
4.00916e-08
4.23387e-06
5.21341e-06
5.73299e-07
5.21071e-06
4.23278e-07
5.22397e-06
3.3961e-07
5.20941e-06
3.21763e-07
5.18043e-06
2.97339e-07
5.15341e-06
2.47739e-07
5.13645e-06
1.86774e-07
5.12876e-06
1.33702e-07
5.12693e-06
9.86209e-08
5.12836e-06
8.20604e-08
5.13175e-06
7.84296e-08
5.13677e-06
7.989e-08
5.14326e-06
7.97667e-08
5.15106e-06
7.48374e-08
5.15964e-06
6.5245e-08
5.16882e-06
5.32134e-08
5.17832e-06
4.08302e-08
3.00943e-08
5.18831e-06
6.35169e-06
5.53928e-07
6.32951e-06
4.45455e-07
6.32334e-06
3.45786e-07
6.33786e-06
3.07241e-07
6.36004e-06
2.75157e-07
6.37674e-06
2.31038e-07
6.38128e-06
1.82233e-07
6.37289e-06
1.42095e-07
6.35458e-06
1.16933e-07
6.33258e-06
1.04057e-07
6.31496e-06
9.6048e-08
6.30831e-06
8.65418e-08
6.3148e-06
7.32779e-08
6.33206e-06
5.75743e-08
6.35518e-06
4.21224e-08
6.37925e-06
2.91504e-08
6.40083e-06
1.92495e-08
1.24984e-08
6.41842e-06
7.59746e-06
4.84174e-07
7.64244e-06
4.00477e-07
7.6716e-06
3.16625e-07
7.69911e-06
2.79735e-07
7.72399e-06
2.50275e-07
7.74073e-06
2.143e-07
7.74261e-06
1.80349e-07
7.72905e-06
1.55652e-07
7.70783e-06
1.38157e-07
7.69096e-06
1.20927e-07
7.68749e-06
9.95169e-08
7.6993e-06
7.47296e-08
7.722e-06
5.05745e-08
7.74825e-06
3.13247e-08
7.77171e-06
1.86669e-08
7.78944e-06
1.14225e-08
7.80127e-06
7.41907e-09
3.48678e-09
7.81028e-06
9.36992e-06
5.14005e-07
9.38121e-06
3.89186e-07
9.38592e-06
3.11913e-07
9.38261e-06
2.83042e-07
9.38096e-06
2.51928e-07
9.38604e-06
2.0922e-07
9.39805e-06
1.68338e-07
9.41724e-06
1.36469e-07
9.44393e-06
1.11464e-07
9.47683e-06
8.80285e-08
9.51339e-06
6.29533e-08
9.54963e-06
3.84922e-08
9.58172e-06
1.84803e-08
9.60756e-06
5.4928e-09
9.6256e-06
6.17989e-10
9.63664e-06
3.91082e-10
9.64165e-06
2.40217e-09
3.75789e-09
9.64138e-06
1.1479e-05
5.57469e-07
1.14148e-05
4.5339e-07
1.13846e-05
3.42126e-07
1.13924e-05
2.75219e-07
1.14146e-05
2.29686e-07
1.14324e-05
1.91467e-07
1.14491e-05
1.51586e-07
1.14762e-05
1.09361e-07
1.15165e-05
7.11884e-08
1.15615e-05
4.3055e-08
1.15981e-05
2.63218e-08
1.16187e-05
1.78971e-08
1.16241e-05
1.31041e-08
1.16211e-05
8.48387e-09
1.16194e-05
2.30377e-09
1.16262e-05
-6.43514e-09
1.16441e-05
-1.54847e-08
-2.36281e-08
1.16715e-05
8.38839e-06
5.26371e-07
8.41691e-06
4.24873e-07
8.4254e-06
3.33629e-07
8.42826e-06
2.72363e-07
8.43852e-06
2.19425e-07
8.46334e-06
1.6665e-07
8.50177e-06
1.13151e-07
8.54562e-06
6.55165e-08
8.58575e-06
3.10546e-08
8.61737e-06
1.1431e-08
8.63861e-06
5.08354e-09
8.64916e-06
7.34587e-09
8.65022e-06
1.20502e-08
8.64413e-06
1.45717e-08
8.63412e-06
1.23128e-08
8.62249e-06
5.19743e-09
8.61158e-06
-4.57929e-09
-1.58038e-08
8.60376e-06
7.33339e-06
4.84131e-07
7.32245e-06
4.3581e-07
7.31389e-06
3.42188e-07
7.32524e-06
2.61019e-07
7.3488e-06
1.95864e-07
7.38194e-06
1.33506e-07
7.41971e-06
7.53787e-08
7.4553e-06
2.99282e-08
7.48374e-06
2.6205e-09
7.50478e-06
-9.61173e-09
7.51713e-06
-7.27075e-09
7.52341e-06
1.06806e-09
7.52868e-06
6.78582e-09
7.535e-06
8.25221e-09
7.54294e-06
4.36668e-09
7.55227e-06
-4.13558e-09
7.56193e-06
-1.42321e-08
-2.38996e-08
7.57002e-06
6.31001e-06
5.40424e-07
6.34674e-06
3.99086e-07
6.39421e-06
2.9472e-07
6.43689e-06
2.1834e-07
6.47263e-06
1.60123e-07
6.501e-06
1.0513e-07
6.52455e-06
5.18316e-08
6.544e-06
1.04822e-08
6.55506e-06
-8.4397e-09
6.55699e-06
-1.15463e-08
6.55571e-06
-5.98889e-09
6.55665e-06
1.25271e-10
6.56132e-06
2.11189e-09
6.57131e-06
-1.73314e-09
6.58597e-06
-1.02945e-08
6.60275e-06
-2.09135e-08
6.62004e-06
-3.15228e-08
-4.0617e-08
6.63676e-06
5.48494e-06
3.98863e-07
5.54297e-06
3.41055e-07
5.60749e-06
2.30201e-07
5.66194e-06
1.63887e-07
5.69205e-06
1.3001e-07
5.7016e-06
9.55833e-08
5.69982e-06
5.36092e-08
5.69579e-06
1.45118e-08
5.70197e-06
-1.4611e-08
5.71943e-06
-2.90079e-08
5.7463e-06
-3.28595e-08
5.77678e-06
-3.03607e-08
5.80386e-06
-2.49663e-08
5.82133e-06
-1.92058e-08
5.82664e-06
-1.56005e-08
5.82142e-06
-1.56943e-08
5.81002e-06
-2.0121e-08
-2.84873e-08
5.79789e-06
4.83302e-06
3.26886e-07
4.93019e-06
2.43887e-07
4.98341e-06
1.76984e-07
5.00688e-06
1.40413e-07
5.01927e-06
1.17615e-07
5.02865e-06
8.62043e-08
5.03457e-06
4.76958e-08
5.03692e-06
1.21551e-08
5.03574e-06
-1.3425e-08
5.03661e-06
-2.98824e-08
5.04076e-06
-3.70108e-08
5.04736e-06
-3.69564e-08
5.05523e-06
-3.28416e-08
5.06412e-06
-2.8089e-08
5.07454e-06
-2.60217e-08
5.08698e-06
-2.81383e-08
5.10142e-06
-3.45606e-08
-4.36475e-08
5.11658e-06
4.19913e-06
2.42354e-07
4.26014e-06
1.82882e-07
4.28902e-06
1.48097e-07
4.31801e-06
1.1142e-07
4.36204e-06
7.35858e-08
4.40851e-06
3.97412e-08
4.44333e-06
1.28691e-08
4.46423e-06
-8.74421e-09
4.4764e-06
-2.55883e-08
4.48299e-06
-3.64706e-08
4.48647e-06
-4.04992e-08
4.48868e-06
-3.91586e-08
4.49184e-06
-3.60094e-08
4.49805e-06
-3.42907e-08
4.50784e-06
-3.58194e-08
4.52021e-06
-4.05049e-08
4.53298e-06
-4.7328e-08
-5.45033e-08
4.54383e-06
3.72028e-06
2.90389e-07
3.76278e-06
1.40386e-07
3.80465e-06
1.06224e-07
3.83674e-06
7.93301e-08
3.85539e-06
5.49333e-08
3.86209e-06
3.30484e-08
3.86726e-06
7.6988e-09
3.87775e-06
-1.924e-08
3.89558e-06
-4.34188e-08
3.91678e-06
-5.76673e-08
3.93707e-06
-6.07925e-08
3.9542e-06
-5.62903e-08
3.96773e-06
-4.95368e-08
3.97808e-06
-4.46428e-08
3.98548e-06
-4.32159e-08
3.98979e-06
-4.48119e-08
3.99071e-06
-4.82543e-08
-5.20764e-08
3.98829e-06
3.19381e-06
2.36901e-07
3.25427e-06
7.993e-08
3.30504e-06
5.54531e-08
3.34614e-06
3.8231e-08
3.37998e-06
2.10854e-08
3.40919e-06
3.84008e-09
3.43329e-06
-1.63941e-08
3.45053e-06
-3.6482e-08
3.45952e-06
-5.24101e-08
3.46227e-06
-6.04208e-08
3.46258e-06
-6.11023e-08
3.46424e-06
-5.79489e-08
3.4692e-06
-5.44925e-08
3.47739e-06
-5.28309e-08
3.48722e-06
-5.30553e-08
3.49671e-06
-5.42937e-08
3.50395e-06
-5.55028e-08
-5.62648e-08
3.50814e-06
2.76774e-06
1.32659e-07
2.85044e-06
-2.77044e-09
2.89955e-06
6.34252e-09
2.95053e-06
-1.27443e-08
2.99181e-06
-2.01963e-08
3.01804e-06
-2.23959e-08
3.03266e-06
-3.10149e-08
3.04206e-06
-4.58747e-08
3.04998e-06
-6.03335e-08
3.05784e-06
-6.82776e-08
3.06522e-06
-6.84832e-08
3.07127e-06
-6.40052e-08
3.07532e-06
-5.85383e-08
3.07716e-06
-5.46681e-08
3.07695e-06
-5.28525e-08
3.07517e-06
-5.2511e-08
3.07234e-06
-5.2676e-08
-5.27878e-08
3.06887e-06
2.49478e-06
2.04344e-08
2.53937e-06
-4.7358e-08
2.5692e-06
-2.34877e-08
2.59483e-06
-3.83758e-08
2.6195e-06
-4.48657e-08
2.64366e-06
-4.65581e-08
2.66336e-06
-5.07175e-08
2.67397e-06
-5.6481e-08
2.67364e-06
-6.00005e-08
2.66401e-06
-5.86486e-08
2.6487e-06
-5.31787e-08
2.63161e-06
-4.69148e-08
2.61574e-06
-4.26645e-08
2.60258e-06
-4.15063e-08
2.59214e-06
-4.24128e-08
2.58344e-06
-4.38093e-08
2.5751e-06
-4.43393e-08
-4.36838e-08
2.56599e-06
2.16214e-06
2.11478e-06
2.09129e-06
2.05292e-06
2.00805e-06
1.96149e-06
1.91078e-06
1.8543e-06
1.7943e-06
1.73565e-06
1.68247e-06
1.63555e-06
1.59289e-06
1.55138e-06
1.50897e-06
1.46516e-06
1.42082e-06
1.37714e-06
-3.61767e-08
3.61767e-08
-8.24558e-08
4.62792e-08
-1.30783e-07
4.83272e-08
-1.82262e-07
5.14789e-08
-2.37496e-07
5.52342e-08
-2.96938e-07
5.94417e-08
-3.60815e-07
6.38777e-08
-4.29184e-07
6.83683e-08
-5.01965e-07
7.27811e-08
-5.78987e-07
7.70225e-08
-6.60015e-07
8.10276e-08
-7.44759e-07
8.47438e-08
-8.3288e-07
8.81209e-08
-9.23991e-07
9.11108e-08
-1.01768e-06
9.36891e-08
-1.11349e-06
9.58102e-08
-1.21074e-06
9.72485e-08
-1.30868e-06
9.794e-08
-1.40652e-06
9.78429e-08
-1.5034e-06
9.68807e-08
-1.59837e-06
9.49702e-08
-1.6904e-06
9.20299e-08
-1.77839e-06
8.79851e-08
-1.86116e-06
8.27761e-08
-1.93753e-06
7.63629e-08
-2.00625e-06
6.87285e-08
-2.06614e-06
5.98837e-08
-2.11601e-06
4.98754e-08
-2.1548e-06
3.87898e-08
-2.18156e-06
2.67539e-08
-2.19551e-06
1.39533e-08
-2.19618e-06
6.6936e-10
-2.18322e-06
-1.29558e-08
-2.1567e-06
-2.65254e-08
-2.11678e-06
-3.9919e-08
-2.06382e-06
-5.29567e-08
-1.99837e-06
-6.54491e-08
-1.92116e-06
-7.72139e-08
-1.83307e-06
-8.80855e-08
-1.73515e-06
-9.79248e-08
-1.62852e-06
-1.06626e-07
-1.51441e-06
-1.14115e-07
-1.39405e-06
-1.20356e-07
-1.26871e-06
-1.25347e-07
-1.13959e-06
-1.29114e-07
-1.00789e-06
-1.31704e-07
-8.74698e-07
-1.3319e-07
-7.41055e-07
-1.33644e-07
-6.07824e-07
-1.33231e-07
-4.75881e-07
-1.31943e-07
-3.45926e-07
-1.29955e-07
-2.18569e-07
-1.27357e-07
-9.43333e-08
-1.24236e-07
2.64797e-08
-1.20813e-07
1.43466e-07
-1.16987e-07
2.56364e-07
-1.12898e-07
3.64984e-07
-1.0862e-07
4.692e-07
-1.04216e-07
5.68935e-07
-9.97357e-08
6.6416e-07
-9.52244e-08
7.54878e-07
-9.07186e-08
8.41127e-07
-8.6249e-08
9.22969e-07
-8.18412e-08
1.00048e-06
-7.75162e-08
1.07378e-06
-7.32911e-08
1.14296e-06
-6.91795e-08
1.20815e-06
-6.51921e-08
1.26948e-06
-6.13371e-08
1.32711e-06
-5.76207e-08
1.38115e-06
-5.40469e-08
1.43177e-06
-5.06187e-08
1.47911e-06
-4.73372e-08
1.52331e-06
-4.42029e-08
1.56453e-06
-4.12151e-08
1.6029e-06
-3.83722e-08
1.63857e-06
-3.56721e-08
1.67168e-06
-3.31122e-08
1.70237e-06
-3.0689e-08
1.73077e-06
-2.8399e-08
1.75701e-06
-2.62382e-08
1.78121e-06
-2.42025e-08
1.8035e-06
-2.22872e-08
1.82399e-06
-2.04882e-08
1.84279e-06
-1.88006e-08
1.86001e-06
-1.72193e-08
1.87575e-06
-1.57394e-08
1.8901e-06
-1.43559e-08
1.90317e-06
-1.30639e-08
1.91502e-06
-1.18586e-08
1.92576e-06
-1.07351e-08
1.93545e-06
-9.68876e-09
1.94416e-06
-8.71505e-09
1.95197e-06
-7.80954e-09
1.95894e-06
-6.9679e-09
1.96513e-06
-6.18607e-09
1.97059e-06
-5.46026e-09
1.97537e-06
-4.78624e-09
1.97953e-06
-4.16087e-09
1.98312e-06
-3.58094e-09
1.98616e-06
-3.04208e-09
1.9887e-06
-2.54283e-09
1.99078e-06
-2.07961e-09
1.99243e-06
-1.64805e-09
1.99368e-06
-1.24949e-09
1.99455e-06
-8.76817e-10
1.99508e-06
-5.28465e-10
1.99529e-06
-2.06806e-10
1.99518e-06
1.08336e-10
1.99476e-06
4.22555e-10
1.99404e-06
7.18612e-10
1.99304e-06
9.97534e-10
1.99178e-06
1.25791e-09
1.99028e-06
1.4994e-09
1.98856e-06
1.72496e-09
1.98662e-06
1.93803e-09
1.98448e-06
2.13759e-09
1.98216e-06
2.32048e-09
1.97968e-06
2.48354e-09
1.97706e-06
2.62401e-09
1.97431e-06
2.74236e-09
1.97147e-06
2.84211e-09
1.96854e-06
2.92844e-09
1.96554e-06
3.00625e-09
1.96246e-06
3.07923e-09
1.95931e-06
3.14941e-09
1.95609e-06
3.21746e-09
1.95281e-06
3.28353e-09
1.94946e-06
3.34731e-09
1.94605e-06
3.40877e-09
1.94258e-06
3.46789e-09
1.93906e-06
3.52477e-09
1.93548e-06
3.5796e-09
1.93185e-06
3.63252e-09
1.92816e-06
3.68372e-09
1.92443e-06
3.73341e-09
1.92065e-06
3.78174e-09
1.91682e-06
3.82883e-09
1.91294e-06
3.8749e-09
1.90902e-06
3.92002e-09
1.90506e-06
3.96431e-09
1.90105e-06
4.00791e-09
1.897e-06
4.05093e-09
1.89291e-06
4.09353e-09
1.88877e-06
4.1358e-09
1.88459e-06
4.17789e-09
1.88037e-06
4.21991e-09
1.87611e-06
4.26201e-09
1.87181e-06
4.30434e-09
1.86746e-06
4.34713e-09
1.86307e-06
4.39057e-09
1.85863e-06
4.43492e-09
1.85415e-06
4.48053e-09
1.84963e-06
4.5278e-09
1.84505e-06
4.57718e-09
1.84042e-06
4.62928e-09
1.83574e-06
4.6849e-09
1.83099e-06
4.74491e-09
1.82618e-06
4.81065e-09
1.8213e-06
4.88325e-09
1.81633e-06
4.96541e-09
1.81127e-06
5.05828e-09
1.80611e-06
5.16734e-09
1.80081e-06
5.29363e-09
1.79537e-06
5.44606e-09
1.78973e-06
5.63098e-09
1.78388e-06
5.85005e-09
1.77774e-06
6.14713e-09
1.77128e-06
6.46113e-09
1.76429e-06
6.98868e-09
1.75686e-06
7.42354e-09
1.7484e-06
8.46122e-09
1.73941e-06
8.99286e-09
1.72813e-06
1.12831e-08
1.71647e-06
1.16526e-08
1.69915e-06
1.73262e-08
1.68262e-06
1.6525e-08
1.65019e-06
3.24334e-08
1.62229e-06
2.79005e-08
1.53899e-06
8.32997e-08
8.03805e-08
1.45861e-06
-6.76043e-08
1.03781e-07
-1.49194e-07
1.27869e-07
-2.31014e-07
1.30147e-07
-3.13705e-07
1.3417e-07
-3.97147e-07
1.38676e-07
-4.81358e-07
1.43652e-07
-5.66311e-07
1.48831e-07
-6.52016e-07
1.54073e-07
-7.38498e-07
1.59263e-07
-8.25775e-07
1.643e-07
-9.13837e-07
1.6909e-07
-1.00263e-06
1.73534e-07
-1.09204e-06
1.7753e-07
-1.1819e-06
1.80974e-07
-1.27197e-06
1.83763e-07
-1.36193e-06
1.85769e-07
-1.45151e-06
1.86827e-07
-1.54034e-06
1.86766e-07
-1.62791e-06
1.85417e-07
-1.71363e-06
1.82604e-07
-1.79682e-06
1.78155e-07
-1.87669e-06
1.71896e-07
-1.95237e-06
1.63668e-07
-2.02293e-06
1.53335e-07
-2.08736e-06
1.40796e-07
-2.14463e-06
1.25997e-07
-2.19369e-06
1.08941e-07
-2.23351e-06
8.97019e-08
-2.26315e-06
6.84305e-08
-2.28176e-06
4.53595e-08
-2.28861e-06
2.08042e-08
-2.28282e-06
-5.11812e-09
-2.26357e-06
-3.22036e-08
-2.23061e-06
-5.94918e-08
-2.18391e-06
-8.66186e-08
-2.12376e-06
-1.13107e-07
-2.05071e-06
-1.38502e-07
-1.96552e-06
-1.62395e-07
-1.86917e-06
-1.84438e-07
-1.76275e-06
-2.04346e-07
-1.64747e-06
-2.21907e-07
-1.5246e-06
-2.36984e-07
-1.39546e-06
-2.495e-07
-1.26134e-06
-2.59462e-07
-1.12352e-06
-2.66935e-07
-9.83163e-07
-2.7206e-07
-8.41396e-07
-2.74958e-07
-6.9922e-07
-2.75819e-07
-5.57557e-07
-2.74894e-07
-4.1723e-07
-2.7227e-07
-2.78801e-07
-2.68383e-07
-1.43001e-07
-2.63158e-07
-1.02073e-08
-2.57029e-07
1.1911e-07
-2.5013e-07
2.44688e-07
-2.42565e-07
3.66297e-07
-2.34506e-07
4.83767e-07
-2.2609e-07
5.96985e-07
-2.17433e-07
7.05883e-07
-2.08634e-07
8.10435e-07
-1.99777e-07
9.10649e-07
-1.90932e-07
1.00656e-06
-1.82159e-07
1.09822e-06
-1.73505e-07
1.18571e-06
-1.65009e-07
1.26913e-06
-1.56702e-07
1.34856e-06
-1.48611e-07
1.42412e-06
-1.40752e-07
1.49592e-06
-1.33142e-07
1.56409e-06
-1.25791e-07
1.62875e-06
-1.18706e-07
1.69002e-06
-1.1189e-07
1.74803e-06
-1.05347e-07
1.80291e-06
-9.90754e-08
1.85476e-06
-9.30743e-08
1.90373e-06
-8.73403e-08
1.94993e-06
-8.18694e-08
1.99347e-06
-7.66564e-08
2.03448e-06
-7.16954e-08
2.07306e-06
-6.69801e-08
2.10933e-06
-6.25032e-08
2.14338e-06
-5.82576e-08
2.17533e-06
-5.42355e-08
2.20527e-06
-5.04292e-08
2.2333e-06
-4.68306e-08
2.25951e-06
-4.34315e-08
2.284e-06
-4.02238e-08
2.30684e-06
-3.71992e-08
2.32813e-06
-3.43497e-08
2.34794e-06
-3.16671e-08
2.36634e-06
-2.91436e-08
2.38343e-06
-2.67713e-08
2.39925e-06
-2.45425e-08
2.41389e-06
-2.24499e-08
2.42741e-06
-2.04862e-08
2.43987e-06
-1.86443e-08
2.45133e-06
-1.69176e-08
2.46184e-06
-1.52992e-08
2.47146e-06
-1.37833e-08
2.48025e-06
-1.23636e-08
2.48824e-06
-1.1034e-08
2.49549e-06
-9.78964e-09
2.50203e-06
-8.62489e-09
2.50792e-06
-7.53411e-09
2.51318e-06
-6.51363e-09
2.51786e-06
-5.5583e-09
2.522e-06
-4.66304e-09
2.52562e-06
-3.82578e-09
2.52876e-06
-3.0406e-09
2.53149e-06
-2.2996e-09
2.53381e-06
-1.60189e-09
2.53575e-06
-9.47043e-10
2.53734e-06
-3.30556e-10
2.53859e-06
2.45312e-10
2.53953e-06
7.87623e-10
2.54017e-06
1.29554e-09
2.54054e-06
1.77018e-09
2.54065e-06
2.20989e-09
2.54052e-06
2.61333e-09
2.54017e-06
2.97886e-09
2.5396e-06
3.30815e-09
2.53884e-06
3.60632e-09
2.53789e-06
3.88048e-09
2.53675e-06
4.13775e-09
2.53545e-06
4.38359e-09
2.53398e-06
4.6211e-09
2.53234e-06
4.85115e-09
2.53055e-06
5.07342e-09
2.52861e-06
5.28716e-09
2.52653e-06
5.49177e-09
2.52431e-06
5.68693e-09
2.52196e-06
5.87278e-09
2.51949e-06
6.04962e-09
2.51691e-06
6.21795e-09
2.51421e-06
6.3783e-09
2.51142e-06
6.5313e-09
2.50852e-06
6.67739e-09
2.50553e-06
6.81728e-09
2.50246e-06
6.95136e-09
2.4993e-06
7.08017e-09
2.49606e-06
7.20419e-09
2.49274e-06
7.32389e-09
2.48935e-06
7.43964e-09
2.48589e-06
7.55196e-09
2.48237e-06
7.66118e-09
2.47878e-06
7.76778e-09
2.47513e-06
7.8721e-09
2.47141e-06
7.97458e-09
2.46764e-06
8.07564e-09
2.46381e-06
8.17581e-09
2.45993e-06
8.27558e-09
2.45599e-06
8.37557e-09
2.45199e-06
8.47647e-09
2.44794e-06
8.57901e-09
2.44383e-06
8.68423e-09
2.43967e-06
8.79322e-09
2.43545e-06
8.90738e-09
2.43116e-06
9.02847e-09
2.42682e-06
9.1585e-09
2.4224e-06
9.30053e-09
2.41791e-06
9.45729e-09
2.41333e-06
9.63478e-09
2.40866e-06
9.83527e-09
2.40388e-06
1.00733e-08
2.39898e-06
1.03436e-08
2.39393e-06
1.06891e-08
2.38871e-06
1.10676e-08
2.38324e-06
1.16124e-08
2.37755e-06
1.21527e-08
2.37145e-06
1.3089e-08
2.36502e-06
1.38539e-08
2.35786e-06
1.56198e-08
2.35022e-06
1.66385e-08
2.34118e-06
2.03156e-08
2.33137e-06
2.14658e-08
2.31877e-06
2.99293e-08
2.3045e-06
3.07924e-08
2.28405e-06
5.28812e-08
2.25802e-06
5.39334e-08
2.2213e-06
1.20017e-07
1.31837e-07
2.16985e-06
-7.052e-08
1.74301e-07
-1.55222e-07
2.12571e-07
-2.39474e-07
2.14399e-07
-3.23579e-07
2.18275e-07
-4.07344e-07
2.22441e-07
-4.90828e-07
2.27136e-07
-5.74204e-07
2.32207e-07
-6.57726e-07
2.37595e-07
-7.41628e-07
2.43165e-07
-8.26142e-07
2.48814e-07
-9.11477e-07
2.54425e-07
-9.97795e-07
2.59852e-07
-1.0852e-06
2.64938e-07
-1.17374e-06
2.69509e-07
-1.26334e-06
2.73363e-07
-1.35384e-06
2.76274e-07
-1.44501e-06
2.77992e-07
-1.53648e-06
2.78242e-07
-1.6278e-06
2.7673e-07
-1.71834e-06
2.73148e-07
-1.80737e-06
2.6718e-07
-1.89398e-06
2.58508e-07
-1.97714e-06
2.46831e-07
-2.05569e-06
2.31881e-07
-2.12834e-06
2.13446e-07
-2.19373e-06
1.91394e-07
-2.25049e-06
1.65695e-07
-2.29723e-06
1.36442e-07
-2.33266e-06
1.0386e-07
-2.35562e-06
6.83215e-08
-2.36519e-06
3.03803e-08
-2.36054e-06
-9.77537e-09
-2.34082e-06
-5.19229e-08
-2.30601e-06
-9.4304e-08
-2.25632e-06
-1.36301e-07
-2.19224e-06
-1.7719e-07
-2.11447e-06
-2.16269e-07
-2.02397e-06
-2.52902e-07
-1.92186e-06
-2.86543e-07
-1.80945e-06
-3.16757e-07
-1.68813e-06
-3.43227e-07
-1.55935e-06
-3.6576e-07
-1.42457e-06
-3.84282e-07
-1.28521e-06
-3.9883e-07
-1.14259e-06
-4.09545e-07
-9.98017e-07
-4.16638e-07
-8.52606e-07
-4.20369e-07
-7.07374e-07
-4.21051e-07
-5.63284e-07
-4.18984e-07
-4.2098e-07
-4.14573e-07
-2.81289e-07
-4.08074e-07
-1.4454e-07
-3.99907e-07
-1.12801e-08
-3.9029e-07
1.18235e-07
-3.79645e-07
2.4372e-07
-3.6805e-07
3.65007e-07
-3.55793e-07
4.81982e-07
-3.43065e-07
5.94578e-07
-3.30029e-07
7.02773e-07
-3.16829e-07
8.06578e-07
-3.03581e-07
9.06031e-07
-2.90386e-07
1.0012e-06
-2.77324e-07
1.09215e-06
-2.64463e-07
1.179e-06
-2.51856e-07
1.26184e-06
-2.39546e-07
1.3408e-06
-2.27564e-07
1.41598e-06
-2.15937e-07
1.48752e-06
-2.04682e-07
1.55554e-06
-1.93813e-07
1.62018e-06
-1.83336e-07
1.68154e-06
-1.73257e-07
1.73977e-06
-1.63575e-07
1.79498e-06
-1.54289e-07
1.84731e-06
-1.45396e-07
1.89685e-06
-1.36888e-07
1.94374e-06
-1.28758e-07
1.98809e-06
-1.20999e-07
2.02999e-06
-1.13601e-07
2.06956e-06
-1.06554e-07
2.10691e-06
-9.98465e-08
2.14212e-06
-9.34688e-08
2.17529e-06
-8.74093e-08
2.20652e-06
-8.16568e-08
2.23589e-06
-7.61999e-08
2.26349e-06
-7.10273e-08
2.28939e-06
-6.61275e-08
2.31368e-06
-6.14895e-08
2.33643e-06
-5.7102e-08
2.35772e-06
-5.29543e-08
2.37761e-06
-4.90357e-08
2.39618e-06
-4.53356e-08
2.41348e-06
-4.18438e-08
2.42958e-06
-3.85505e-08
2.44454e-06
-3.54458e-08
2.45841e-06
-3.25206e-08
2.47126e-06
-2.97657e-08
2.48313e-06
-2.71721e-08
2.49408e-06
-2.47316e-08
2.50415e-06
-2.2436e-08
2.5134e-06
-2.02772e-08
2.52186e-06
-1.82481e-08
2.52957e-06
-1.6341e-08
2.53659e-06
-1.4549e-08
2.54294e-06
-1.28657e-08
2.54867e-06
-1.12848e-08
2.5538e-06
-9.79954e-09
2.55838e-06
-8.40394e-09
2.56243e-06
-7.0923e-09
2.56599e-06
-5.85872e-09
2.56909e-06
-4.69905e-09
2.57175e-06
-3.60983e-09
2.57401e-06
-2.58924e-09
2.57589e-06
-1.63457e-09
2.57742e-06
-7.4165e-10
2.57862e-06
9.58046e-11
2.57951e-06
8.83182e-10
2.5801e-06
1.6162e-09
2.58041e-06
2.29814e-09
2.58047e-06
2.92731e-09
2.58027e-06
3.50666e-09
2.57983e-06
4.04175e-09
2.57917e-06
4.53971e-09
2.5783e-06
5.00766e-09
2.57724e-06
5.45152e-09
2.57598e-06
5.87482e-09
2.57455e-06
6.27942e-09
2.57296e-06
6.66582e-09
2.57121e-06
7.03404e-09
2.56932e-06
7.3842e-09
2.56729e-06
7.71663e-09
2.56513e-06
8.03189e-09
2.56285e-06
8.3309e-09
2.56045e-06
8.61457e-09
2.55795e-06
8.88388e-09
2.55534e-06
9.13981e-09
2.55263e-06
9.3834e-09
2.54984e-06
9.61553e-09
2.54695e-06
9.83715e-09
2.54398e-06
1.0049e-08
2.54093e-06
1.02521e-08
2.53781e-06
1.0447e-08
2.53462e-06
1.06346e-08
2.53135e-06
1.08157e-08
2.52802e-06
1.09907e-08
2.52463e-06
1.11606e-08
2.52118e-06
1.13258e-08
2.51766e-06
1.14872e-08
2.51409e-06
1.16454e-08
2.51047e-06
1.18012e-08
2.50679e-06
1.19554e-08
2.50306e-06
1.21089e-08
2.49927e-06
1.22626e-08
2.49543e-06
1.24179e-08
2.49154e-06
1.25761e-08
2.48759e-06
1.27387e-08
2.48359e-06
1.29077e-08
2.47954e-06
1.30857e-08
2.47542e-06
1.32752e-08
2.47124e-06
1.34811e-08
2.46699e-06
1.37058e-08
2.46266e-06
1.39601e-08
2.45826e-06
1.42427e-08
2.45375e-06
1.45806e-08
2.44914e-06
1.49558e-08
2.44438e-06
1.54415e-08
2.43949e-06
1.59624e-08
2.43439e-06
1.67163e-08
2.42907e-06
1.74648e-08
2.42344e-06
1.87256e-08
2.41747e-06
1.98212e-08
2.41099e-06
2.21038e-08
2.40392e-06
2.37058e-08
2.39604e-06
2.81944e-08
2.38695e-06
3.05595e-08
2.37669e-06
4.01833e-08
2.3634e-06
4.40825e-08
2.34935e-06
6.69335e-08
2.32722e-06
7.60649e-08
2.31158e-06
1.35653e-07
1.66526e-07
2.27689e-06
-6.53447e-08
2.39646e-07
-1.44921e-07
2.92147e-07
-2.24444e-07
2.93923e-07
-3.04213e-07
2.98044e-07
-3.84248e-07
3.02476e-07
-4.64787e-07
3.07675e-07
-5.45998e-07
3.13418e-07
-6.28084e-07
3.19681e-07
-7.11342e-07
3.26423e-07
-7.96069e-07
3.33541e-07
-8.82494e-07
3.4085e-07
-9.7078e-07
3.48138e-07
-1.06102e-06
3.55174e-07
-1.15322e-06
3.61709e-07
-1.24732e-06
3.67471e-07
-1.3432e-06
3.72149e-07
-1.4406e-06
3.75389e-07
-1.53915e-06
3.76792e-07
-1.63834e-06
3.7592e-07
-1.73749e-06
3.723e-07
-1.83575e-06
3.65436e-07
-1.93207e-06
3.54828e-07
-2.02523e-06
3.39994e-07
-2.11385e-06
3.205e-07
-2.19639e-06
2.9599e-07
-2.27122e-06
2.66224e-07
-2.33664e-06
2.31115e-07
-2.39097e-06
1.90769e-07
-2.43262e-06
1.45507e-07
-2.46017e-06
9.5877e-08
-2.47249e-06
4.26999e-08
-2.46859e-06
-1.36751e-08
-2.44775e-06
-7.27685e-08
-2.40988e-06
-1.32173e-07
-2.35527e-06
-1.90912e-07
-2.28458e-06
-2.4788e-07
-2.1988e-06
-3.02044e-07
-2.0992e-06
-3.52505e-07
-1.98723e-06
-3.98511e-07
-1.86451e-06
-4.39477e-07
-1.73274e-06
-4.74994e-07
-1.59366e-06
-5.04841e-07
-1.44898e-06
-5.28969e-07
-1.30031e-06
-5.47496e-07
-1.14918e-06
-5.60671e-07
-9.96959e-07
-5.68862e-07
-8.44856e-07
-5.72472e-07
-6.93893e-07
-5.72014e-07
-5.44915e-07
-5.67963e-07
-3.98721e-07
-5.60767e-07
-2.55746e-07
-5.5105e-07
-1.16595e-07
-5.39057e-07
1.84402e-08
-5.25325e-07
1.49132e-07
-5.10337e-07
2.75337e-07
-4.94255e-07
3.96942e-07
-4.77398e-07
5.13892e-07
-4.60016e-07
6.26182e-07
-4.42319e-07
7.33839e-07
-4.24485e-07
8.36919e-07
-4.06662e-07
9.35503e-07
-3.88969e-07
1.02969e-06
-3.71507e-07
1.11958e-06
-3.54355e-07
1.2053e-06
-3.37575e-07
1.28697e-06
-3.21218e-07
1.36473e-06
-3.05321e-07
1.4387e-06
-2.89912e-07
1.50903e-06
-2.75012e-07
1.57585e-06
-2.60633e-07
1.6393e-06
-2.46782e-07
1.6995e-06
-2.33462e-07
1.7566e-06
-2.20672e-07
1.81071e-06
-2.08406e-07
1.86198e-06
-1.96657e-07
1.9105e-06
-1.85416e-07
1.95642e-06
-1.74672e-07
1.99983e-06
-1.64413e-07
2.04085e-06
-1.54624e-07
2.07959e-06
-1.45293e-07
2.11615e-06
-1.36404e-07
2.15063e-06
-1.27943e-07
2.18311e-06
-1.19895e-07
2.2137e-06
-1.12245e-07
2.24248e-06
-1.04977e-07
2.26953e-06
-9.80775e-08
2.29493e-06
-9.15309e-08
2.31876e-06
-8.53229e-08
2.3411e-06
-7.94395e-08
2.36201e-06
-7.38667e-08
2.38157e-06
-6.8591e-08
2.39983e-06
-6.35991e-08
2.41687e-06
-5.88782e-08
2.43273e-06
-5.44158e-08
2.44749e-06
-5.01997e-08
2.46118e-06
-4.62183e-08
2.47388e-06
-4.24603e-08
2.48562e-06
-3.89145e-08
2.49646e-06
-3.55705e-08
2.50644e-06
-3.24181e-08
2.51561e-06
-2.94473e-08
2.52401e-06
-2.66488e-08
2.53169e-06
-2.40134e-08
2.53867e-06
-2.15322e-08
2.545e-06
-1.91971e-08
2.55072e-06
-1.7e-08
2.55585e-06
-1.49326e-08
2.56043e-06
-1.29877e-08
2.5645e-06
-1.11586e-08
2.56808e-06
-9.43824e-09
2.5712e-06
-7.82137e-09
2.57389e-06
-6.3022e-09
2.57618e-06
-4.87443e-09
2.57808e-06
-3.53497e-09
2.57962e-06
-2.27939e-09
2.58081e-06
-1.09939e-09
2.58169e-06
5.40464e-12
2.58227e-06
1.03701e-09
2.58257e-06
2.00111e-09
2.58259e-06
2.89841e-09
2.58237e-06
3.73308e-09
2.5819e-06
4.51061e-09
2.5812e-06
5.23748e-09
2.58029e-06
5.9199e-09
2.57918e-06
6.56351e-09
2.57788e-06
7.17251e-09
2.57641e-06
7.74982e-09
2.57478e-06
8.29745e-09
2.57299e-06
8.81666e-09
2.57107e-06
9.30874e-09
2.56901e-06
9.77479e-09
2.56683e-06
1.02161e-08
2.56452e-06
1.06341e-08
2.56211e-06
1.10301e-08
2.55959e-06
1.14055e-08