/*--------------------------------*- C++ -*----------------------------------*\
  =========                 |
  \\      /  F ield         | OpenFOAM: The Open Source CFD Toolbox
   \\    /   O peration     | Website:  https://openfoam.org
    \\  /    A nd           | Version:  7
     \\/     M anipulation  |
\*---------------------------------------------------------------------------*/
FoamFile
{
    version     2.0;
    format      ascii;
    class       volScalarField;
    location    "0.016";
    object      s;
}
// * * * * * * * * * * * * * * * * * * * * * * * * * * * * * * * * * * * * * //

dimensions      [0 0 0 0 0 0 0];

internalField   nonuniform List<scalar> 
12225
(
1
1
1
1
1
1
1
1
1
1
1
1
1
1
1
1
1
1
1
1
1
1
1
1
1
1
1
1
1
1
1
1
1
1
1
1
1
1
1
1
1
1
1
1
1
1
1
1
1
1
1
1
1
1
1
1
1
1
1
1
1
1
1
1
1
1
1
1
1
1
1
1
1
1
1
1
1
1
1
1
1
1
1
1
1
1
1
1
1
1
1
1
1
1
1
1
1
1
1
1
1
1
1
1
1
1
1
1
1
1
1
1
1
1
1
1
1
1
1
1
1
1
1
1
1
1
1
1
1
1
1
1
1
1
1
1
1
1
1
1
1
1
1
1
1
1
1
1
1
1
1
1
1
1
1
1
1
1
1
1
1
1
1
1
1
1
1
1
1
1
1
1
1
1
1
1
1
1
1
1
1
1
1
1
1
1
1
1
1
1
1
1
1
1
1
1
1
1
1
1
1
1
1
1
1
1
1
1
1
1
1
1
1
1
1
1
1
1
1
1
1
1
1
1
1
1
1
1
1
1
1
1
1
1
1
1
1
1
1
1
1
1
1
1
1
1
1
1
1
1
1
1
1
1
1
1
1
1
1
1
1
1
1
1
1
1
1
1
1
1
1
1
1
1
1
1
1
1
1
1
1
1
1
1
1
1
1
1
1
1
1
1
1
1
1
1
1
1
1
1
1
1
1
1
1
1
1
1
1
1
1
1
1
1
1
1
1
1
1
1
1
1
1
1
1
1
1
1
1
1
1
1
1
1
1
1
1
1
1
1
1
1
1
1
1
1
1
1
1
1
1
1
1
1
1
1
1
1
1
1
1
1
1
1
1
1
1
1
1
1
1
1
1
1
1
1
1
1
1
1
1
1
1
1
1
1
1
1
1
1
1
1
1
1
1
1
1
1
1
1
1
1
1
1
1
1
1
1
1
1
1
1
1
1
1
1
1
1
1
1
1
1
1
1
1
1
1
1
1
1
1
1
1
1
1
1
1
1
1
1
1
1
1
1
1
1
1
1
1
1
1
1
1
1
1
1
1
1
1
1
1
1
1
1
1
1
1
1
1
1
1
1
1
1
1
1
1
1
1
1
1
1
1
1
1
1
1
1
1
1
1
1
1
1
1
1
1
1
1
1
1
1
1
1
1
1
1
1
1
1
1
1
1
1
1
1
1
1
1
1
1
1
1
1
1
1
1
1
1
1
1
1
1
1
1
1
1
1
1
1
2.35155e-26
1.78854e-24
6.07252e-23
1.31267e-21
2.05473e-20
2.48957e-19
2.43199e-18
1.96955e-17
1.35007e-16
7.96312e-16
4.09768e-15
1.86173e-14
7.54845e-14
2.75797e-13
9.16247e-13
2.79083e-12
7.8539e-12
2.05666e-11
5.04454e-11
1.16601e-10
2.55416e-10
5.32949e-10
1.0641e-09
2.04084e-09
3.77198e-09
6.73825e-09
1.1669e-08
1.96493e-08
3.22695e-08
5.18799e-08
8.21459e-08
1.2794e-07
1.91448e-07
2.56877e-07
3.13781e-07
3.53321e-07
3.69382e-07
3.61705e-07
3.25402e-07
2.74621e-07
2.19075e-07
1.60474e-07
1.12685e-07
7.32331e-08
4.51256e-08
2.61016e-08
1.42683e-08
7.37e-09
3.62304e-09
1.6939e-09
7.50616e-10
3.15213e-10
1.25998e-10
4.82823e-11
1.77857e-11
6.30422e-12
2.15011e-12
7.06707e-13
2.24186e-13
6.87311e-14
2.03899e-14
5.8599e-15
1.63316e-15
4.41823e-16
1.16124e-16
2.96757e-17
7.37892e-18
1.78643e-18
4.21348e-19
9.68709e-20
2.172e-20
4.75155e-21
1.01461e-21
2.11551e-22
4.30855e-23
8.57399e-24
1.66762e-24
3.1709e-25
5.89588e-26
1.07223e-26
1.90761e-27
3.32073e-28
5.65711e-29
9.43274e-30
1.53965e-30
2.46034e-31
3.84945e-32
5.8975e-33
8.84762e-34
1.29984e-34
1.87006e-35
2.63462e-36
3.63452e-37
4.90906e-38
6.49086e-39
8.39976e-40
1.06354e-40
1.31703e-41
1.59427e-42
1.88509e-43
2.17532e-44
2.44674e-45
2.67758e-46
2.84464e-47
2.92319e-48
2.89009e-49
2.72694e-50
2.47189e-51
2.21123e-52
1.95091e-53
1.69742e-54
1.45654e-55
1.23279e-56
1.02978e-57
7.89137e-59
1.10667e-59
1.53396e-60
2.23479e-61
1.83141e-62
1.37442e-63
1.03305e-64
7.22207e-66
9.32001e-67
1.18959e-67
1.59397e-68
1.13299e-69
7.94283e-71
5.49113e-72
3.51822e-73
4.16418e-74
4.85741e-75
5.89749e-76
3.7596e-77
2.35689e-78
1.45387e-79
8.35553e-81
8.92975e-82
9.42581e-83
1.03413e-83
5.93931e-85
3.35651e-86
1.86697e-87
9.76226e-89
9.60282e-90
9.36525e-91
9.38354e-92
4.82875e-93
2.45183e-94
1.25677e-95
6.25784e-97
5.75835e-98
4.94053e-99
4.09072e-100
1.96897e-101
1.02995e-102
5.21411e-104
2.45286e-105
1.35078e-106
9.22497e-108
7.14224e-109
5.88248e-110
2.50661e-111
1.04416e-112
4.27479e-114
1.71125e-115
1.33515e-116
1.02129e-117
7.59616e-119
2.77915e-120
1.02522e-121
3.95687e-123
2.1442e-124
1.2183e-125
6.73193e-127
3.71419e-128
1.61899e-129
6.3388e-131
2.16425e-132
6.66408e-134
3.01341e-135
3.73256e-23
2.12748e-21
5.52656e-20
9.13991e-19
1.09904e-17
1.03164e-16
7.90519e-16
5.10071e-15
2.83556e-14
1.38253e-13
5.99772e-13
2.3431e-12
8.32833e-12
2.71762e-11
8.2059e-11
2.30905e-10
6.09293e-10
1.51585e-09
3.57276e-09
8.01143e-09
1.71552e-08
3.51915e-08
6.9336e-08
1.31475e-07
2.40343e-07
4.24267e-07
7.24479e-07
1.19897e-06
1.9263e-06
3.00895e-06
4.58965e-06
6.88122e-06
9.60951e-06
1.23111e-05
1.45155e-05
1.58981e-05
1.64808e-05
1.59183e-05
1.43188e-05
1.21477e-05
9.75138e-06
7.27912e-06
5.18372e-06
3.44975e-06
2.17362e-06
1.29044e-06
7.24576e-07
3.84887e-07
1.93976e-07
9.31823e-08
4.25881e-08
1.84632e-08
7.61791e-09
3.01419e-09
1.14732e-09
4.19569e-10
1.47663e-10
5.00953e-11
1.64077e-11
5.1956e-12
1.59272e-12
4.73244e-13
1.36447e-13
3.82145e-14
1.04062e-14
2.75768e-15
7.11757e-16
1.79054e-16
4.39337e-17
1.05208e-17
2.46031e-18
5.62152e-19
1.25561e-19
2.74276e-20
5.86186e-21
1.22621e-21
2.5115e-22
5.03826e-23
9.90239e-24
1.90737e-24
3.60147e-25
6.66778e-26
1.21071e-26
2.15649e-27
3.76871e-28
6.46332e-29
1.08797e-29
1.7978e-30
2.9168e-31
4.647e-32
7.27113e-33
1.11751e-33
1.68725e-34
2.50284e-35
3.64811e-36
5.22553e-37
7.35638e-38
1.01792e-38
1.3846e-39
1.85154e-40
2.43432e-41
3.14701e-42
4.00062e-43
5.00151e-44
6.14967e-45
7.43722e-46
8.84729e-47
1.03532e-47
1.19185e-48
1.34984e-49
1.50413e-50
1.64912e-51
1.78135e-52
1.89781e-53
1.99404e-54
2.06624e-55
2.11149e-56
2.12792e-57
2.11484e-58
2.07278e-59
2.00347e-60
1.90971e-61
1.7952e-62
1.66424e-63
1.52155e-64
1.37191e-65
1.21993e-66
1.06984e-67
9.25297e-69
7.89273e-70
6.63992e-71
5.50928e-72
4.50849e-73
3.63899e-74
2.89704e-75
2.2749e-76
1.76204e-77
1.34625e-78
1.01463e-79
7.54343e-81
5.53258e-82
4.0031e-83
2.8575e-84
2.0124e-85
1.39827e-86
9.58587e-88
6.4841e-89
4.32772e-90
2.85019e-91
1.85229e-92
1.18789e-93
7.51774e-95
4.69526e-96
2.89404e-97
1.76049e-98
1.05697e-99
6.26325e-101
3.66317e-102
2.11468e-103
1.20496e-104
6.77716e-106
3.76248e-107
2.06186e-108
1.11532e-109
5.95515e-111
3.13857e-112
1.63268e-113
8.3826e-115
4.24748e-116
2.12378e-117
1.04771e-118
5.09848e-120
2.44655e-121
1.15725e-122
5.39149e-124
2.47251e-125
1.11374e-126
4.92212e-128
2.11949e-129
8.54955e-131
1.32444e-21
7.33728e-20
1.87304e-18
3.04148e-17
3.59347e-16
3.31824e-15
2.50548e-14
1.59585e-13
8.77369e-13
4.2382e-12
1.8248e-11
7.08711e-11
2.50813e-10
8.15975e-10
2.45909e-09
6.91112e-09
1.82191e-08
4.52795e-08
1.06553e-07
2.38321e-07
5.08274e-07
1.03641e-06
2.02475e-06
3.79585e-06
6.83808e-06
1.18532e-05
1.97993e-05
3.19201e-05
4.97385e-05
7.49877e-05
0.000109751
0.000156997
0.000209209
0.000258462
0.000296375
0.000317638
0.000326548
0.000312715
0.000281953
0.000240992
0.000195389
0.000148784
0.00010787
7.3618e-05
4.75628e-05
2.9029e-05
1.67675e-05
9.16677e-06
4.75323e-06
2.34342e-06
1.10184e-06
4.92349e-07
2.09329e-07
8.52225e-08
3.33271e-08
1.25135e-08
4.51895e-09
1.57211e-09
5.27703e-10
1.71153e-10
5.37095e-11
1.63282e-11
4.81446e-12
1.37832e-12
3.8351e-13
1.03808e-13
2.73576e-14
7.02525e-15
1.75912e-15
4.29806e-16
1.02531e-16
2.38942e-17
5.44262e-18
1.2123e-18
2.64176e-19
5.6342e-20
1.1765e-20
2.40613e-21
4.82121e-22
9.46746e-23
1.82251e-23
3.44016e-24
6.36889e-25
1.1567e-25
2.06132e-26
3.60513e-27
6.18912e-28
1.04315e-28
1.72641e-29
2.80602e-30
4.47974e-31
7.02575e-32
1.0826e-32
1.63922e-33
2.43924e-34
3.56754e-35
5.12902e-36
7.24932e-37
1.00741e-37
1.37658e-38
1.84983e-39
2.44476e-40
3.17804e-41
4.06385e-42
5.11225e-43
6.32731e-44
7.70541e-45
9.23374e-46
1.08892e-46
1.26384e-47
1.44375e-48
1.62344e-49
1.79705e-50
1.95836e-51
2.10207e-52
2.2251e-53
2.32261e-54
2.39065e-55
2.42642e-56
2.42841e-57
2.39654e-58
2.33212e-59
2.23781e-60
2.11738e-61
1.97551e-62
1.81747e-63
1.64879e-64
1.47495e-65
1.30111e-66
1.13182e-67
9.70912e-69
8.21347e-70
6.8522e-71
5.63767e-72
4.57455e-73
3.66089e-74
2.88955e-75
2.24953e-76
1.72736e-77
1.30835e-78
9.77513e-80
7.20441e-81
5.238e-82
3.75698e-83
2.65849e-84
1.85595e-85
1.27836e-86
8.68774e-88
5.82565e-89
3.85462e-90
2.5167e-91
1.62148e-92
1.03095e-93
6.46873e-95
4.00566e-96
2.44803e-97
1.47658e-98
8.79048e-100
5.16525e-101
2.99575e-102
1.715e-103
9.6911e-105
5.40557e-106
2.97626e-107
1.61756e-108
8.67774e-110
4.59513e-111
2.4017e-112
1.2389e-113
6.30694e-115
3.16805e-116
1.57002e-117
7.67334e-119
3.69806e-120
1.75567e-121
8.21104e-123
3.77302e-124
1.70485e-125
7.52036e-127
3.25682e-128
2.38761e-20
1.32925e-18
3.443e-17
5.65982e-16
6.75982e-15
6.2986e-14
4.78839e-13
3.06369e-12
1.68837e-11
8.16039e-11
3.51033e-10
1.36048e-09
4.80035e-09
1.55593e-08
4.66901e-08
1.30584e-07
3.42366e-07
8.45584e-07
1.97562e-06
4.38196e-06
9.25382e-06
1.86493e-05
3.59285e-05
6.62518e-05
0.000117061
0.000198408
0.000322954
0.000505431
0.000761332
0.00110467
0.00154816
0.00210725
0.00268447
0.00320342
0.00357781
0.00376417
0.00383465
0.00365427
0.00330977
0.0028578
0.00235053
0.00183119
0.00135899
0.000954816
0.000635836
0.000400946
0.000239399
0.000135332
7.25543e-05
3.69313e-05
1.79004e-05
8.26412e-06
3.62961e-06
1.52518e-06
6.14332e-07
2.37374e-07
8.81367e-08
3.14988e-08
1.08524e-08
3.60996e-09
1.16097e-09
3.61445e-10
1.09067e-10
3.19344e-11
9.08217e-12
2.51133e-12
6.75751e-13
1.77092e-13
4.52341e-14
1.12693e-14
2.7401e-15
6.50634e-16
1.50954e-16
3.42377e-17
7.59488e-18
1.64845e-18
3.50221e-19
7.28572e-20
1.48461e-20
2.96414e-21
5.8003e-22
1.11272e-22
2.09319e-23
3.86208e-24
6.99061e-25
1.24159e-25
2.16418e-26
3.70285e-27
6.21986e-28
1.02588e-28
1.66169e-29
2.64365e-30
4.13159e-31
6.34378e-32
9.57089e-33
1.419e-33
2.06772e-34
2.96159e-35
4.16999e-36
5.77253e-37
7.85712e-38
1.05165e-38
1.3843e-39
1.7922e-40
2.28232e-41
2.85917e-42
3.52386e-43
4.27314e-44
5.09877e-45
5.987e-46
6.91857e-47
7.86907e-48
8.80984e-49
9.70926e-50
1.05343e-50
1.12553e-51
1.1857e-52
1.23153e-53
1.26112e-54
1.27323e-55
1.26736e-56
1.24377e-57
1.20343e-58
1.14801e-59
1.07975e-60
1.00128e-61
9.15478e-63
8.25289e-64
7.33567e-65
6.42921e-66
5.5561e-67
4.73464e-68
3.97851e-69
3.29673e-70
2.69394e-71
2.17094e-72
1.72535e-73
1.35236e-74
1.04546e-75
7.97147e-77
5.99515e-78
4.44742e-79
3.25447e-80
2.34926e-81
1.67293e-82
1.17527e-83
8.14563e-85
5.57001e-86
3.75792e-87
2.50159e-88
1.64315e-89
1.06499e-90
6.81139e-92
4.29898e-93
2.67761e-94
1.64587e-95
9.98449e-97
5.97791e-98
3.53247e-99
2.06027e-100
1.18604e-101
6.73917e-103
3.77969e-104
2.09242e-105
1.14337e-106
6.16691e-108
3.28303e-109
1.72504e-110
8.9455e-112
4.57791e-113
2.31154e-114
1.15154e-115
5.6572e-117
2.74064e-118
1.30792e-119
6.14956e-121
2.84169e-122
1.29174e-123
5.74345e-125
2.50996e-126
3.56743e-19
1.95943e-17
5.07451e-16
8.32351e-15
9.90417e-14
9.17937e-13
6.93255e-12
4.40146e-11
2.40425e-10
1.15064e-09
4.89738e-09
1.87725e-08
6.5506e-08
2.10004e-07
6.23377e-07
1.7247e-06
4.47226e-06
1.09196e-05
2.52028e-05
5.51627e-05
0.000114792
0.000227554
0.000430283
0.000776879
0.00134047
0.00221221
0.00349455
0.00528752
0.00766873
0.0106709
0.0142828
0.01846
0.0224806
0.0258946
0.028207
0.0292122
0.0294414
0.0280157
0.0255417
0.0223382
0.0187137
0.014969
0.0114431
0.00831843
0.00574318
0.00376412
0.00233787
0.00137438
0.000765962
0.000404906
0.000203324
9.72531e-05
4.42732e-05
1.92517e-05
8.00951e-06
3.19283e-06
1.2216e-06
4.49366e-07
1.59181e-07
5.43843e-08
1.79462e-08
5.72765e-09
1.77024e-09
5.30462e-10
1.54281e-10
4.35967e-11
1.19807e-11
3.20463e-12
8.35012e-13
2.12103e-13
5.25582e-14
1.27129e-14
3.0034e-15
6.9339e-16
1.56512e-16
3.45558e-17
7.46578e-18
1.57898e-18
3.27019e-19
6.63451e-20
1.3189e-20
2.56979e-21
4.90886e-22
9.19524e-23
1.68943e-23
3.04509e-24
5.38554e-25
9.34771e-26
1.59259e-26
2.66375e-27
4.37465e-28
7.0553e-29
1.11756e-29
1.73889e-30
2.65809e-31
3.99228e-32
5.8922e-33
8.54651e-34
1.21844e-34
1.70755e-35
2.35255e-36
3.18675e-37
4.24466e-38
5.55991e-39
7.16249e-40
9.07555e-41
1.13119e-41
1.38703e-42
1.67329e-43
1.98621e-44
2.31999e-45
2.66681e-46
3.01702e-47
3.35957e-48
3.68254e-49
3.97374e-50
4.22435e-51
4.42707e-52
4.57361e-53
4.65784e-54
4.67619e-55
4.62791e-56
4.51506e-57
4.34243e-58
4.11717e-59
3.8483e-60
3.5461e-61
3.22149e-62
2.88532e-63
2.54785e-64
2.21824e-65
1.90418e-66
1.61171e-67
1.34512e-68
1.10697e-69
8.98332e-71
7.18907e-72
5.67362e-73
4.41587e-74
3.38967e-75
2.56625e-76
1.91627e-77
1.4114e-78
1.02541e-79
7.34869e-81
5.19527e-82
3.62334e-83
2.49304e-84
1.69232e-85
1.13342e-86
7.48971e-88
4.88342e-89
3.14183e-90
1.99461e-91
1.24957e-92
7.72523e-94
4.71325e-95
2.83793e-96
1.68643e-97
9.89078e-99
5.72532e-100
3.27103e-101
1.84455e-102
1.02665e-103
5.64e-105
3.05816e-106
1.63664e-107
8.64461e-109
4.50613e-110
2.31796e-111
1.17644e-112
5.89071e-114
2.90881e-115
1.41641e-116
6.79504e-118
3.2118e-119
1.49279e-120
6.82674e-122
3.05981e-123
1.34917e-124
4.2756e-18
2.28392e-16
5.83475e-15
9.42937e-14
1.10534e-12
1.00888e-11
7.49967e-11
4.68428e-10
2.51673e-09
1.18496e-08
4.9642e-08
1.87398e-07
6.44254e-07
2.03528e-06
5.95362e-06
1.62306e-05
4.14617e-05
9.96965e-05
0.000226476
0.000487429
0.000996032
0.00193532
0.0035793
0.00630569
0.0105881
0.0169527
0.0258886
0.0377258
0.0525221
0.0699845
0.0894567
0.109815
0.127652
0.141655
0.150593
0.154289
0.153569
0.146643
0.135059
0.120057
0.102773
0.0846282
0.0671165
0.0509059
0.0367101
0.0251807
0.0164078
0.0101109
0.00589989
0.00326103
0.00170875
0.000850867
0.000403148
0.000182094
7.8548e-05
3.24134e-05
1.28183e-05
4.86636e-06
1.77659e-06
6.2472e-07
2.11914e-07
6.94442e-08
2.20139e-08
6.75904e-09
2.01237e-09
5.81619e-10
1.63347e-10
4.46206e-11
1.18654e-11
3.074e-12
7.76452e-13
1.91342e-13
4.60322e-14
1.08173e-14
2.4843e-15
5.57868e-16
1.22544e-16
2.63425e-17
5.54363e-18
1.14248e-18
2.30653e-19
4.56297e-20
8.84779e-21
1.682e-21
3.13561e-22
5.73346e-23
1.02848e-23
1.81027e-24
3.12705e-25
5.30204e-26
8.82544e-27
1.44238e-27
2.31494e-28
3.64897e-29
5.6498e-30
8.59371e-31
1.2843e-31
1.88602e-32
2.72184e-33
3.86073e-34
5.38285e-35
7.37796e-36
9.94231e-37
1.31737e-37
1.7165e-38
2.19955e-39
2.77217e-40
3.43672e-41
4.19126e-42
5.02877e-43
5.93654e-44
6.89602e-45
7.8831e-46
8.86885e-47
9.82078e-48
1.07045e-48
1.14886e-49
1.2153e-50
1.26709e-51
1.30208e-52
1.31882e-53
1.31661e-54
1.29555e-55
1.25658e-56
1.20135e-57
1.13215e-58
1.05173e-59
9.63117e-61
8.69441e-62
7.73749e-63
6.78848e-64
5.87178e-65
5.00734e-66
4.21016e-67
3.49028e-68
2.85303e-69
2.29961e-70
1.82777e-71
1.43259e-72
1.10733e-73
8.4411e-75
6.34614e-76
4.70571e-77
3.44162e-78
2.48279e-79
1.76675e-80
1.24018e-81
8.5879e-83
5.86676e-84
3.95399e-85
2.62915e-86
1.72487e-87
1.11653e-88
7.13144e-90
4.4946e-91
2.79529e-92
1.71554e-93
1.03902e-94
6.21025e-96
3.66328e-97
2.13264e-98
1.22535e-99
6.9487e-101
3.88915e-102
2.14839e-103
1.17132e-104
6.30284e-106
3.3472e-107
1.7542e-108
9.07218e-110
4.62916e-111
2.33034e-112
1.15693e-113
5.66396e-115
2.73241e-116
1.29882e-117
6.0746e-119
2.79612e-120
1.26375e-121
5.62295e-123
3.91116e-17
2.03167e-15
5.10803e-14
8.09705e-13
9.29898e-12
8.30954e-11
6.04342e-10
3.6918e-09
1.94055e-08
8.94542e-08
3.67232e-07
1.35974e-06
4.58951e-06
1.42477e-05
4.09849e-05
0.000109915
0.000276183
0.000652773
0.00145585
0.00307126
0.00613983
0.0116462
0.020976
0.0358833
0.058303
0.0899893
0.132098
0.184917
0.247676
0.31805
0.387879
0.445083
0.489443
0.520871
0.538927
0.546312
0.541023
0.52301
0.492257
0.449911
0.396849
0.336122
0.275046
0.221065
0.168786
0.122141
0.0841712
0.0550759
0.0339439
0.0198011
0.0109132
0.00570067
0.00282616
0.0013327
0.000598874
0.000256917
0.000105412
4.1441e-05
1.56385e-05
5.67469e-06
1.98331e-06
6.68678e-07
2.17796e-07
6.86241e-08
2.09434e-08
6.1983e-09
1.78084e-09
4.97218e-10
1.35034e-10
3.57018e-11
9.19674e-12
2.30991e-12
5.66064e-13
1.3543e-13
3.16512e-14
7.22965e-15
1.61475e-15
3.52809e-16
7.54397e-17
1.57922e-17
3.23754e-18
6.5021e-19
1.27962e-19
2.46838e-20
4.66823e-21
8.65768e-22
1.5749e-22
2.81053e-23
4.92142e-24
8.45738e-25
1.42657e-25
2.3623e-26
3.84078e-27
6.13215e-28
9.6155e-29
1.48099e-29
2.24085e-30
3.3312e-31
4.86598e-32
6.98507e-33
9.85483e-34
1.36664e-34
1.86306e-35
2.49699e-36
3.29054e-37
4.26402e-38
5.43395e-39
6.8108e-40
8.39667e-41
1.01832e-41
1.21497e-42
1.42624e-43
1.64742e-44
1.87258e-45
2.09476e-46
2.30636e-47
2.49965e-48
2.66958e-49
2.80964e-50
2.91407e-51
2.97849e-52
3.00019e-53
2.9783e-54
2.91386e-55
2.80968e-56
2.67023e-57
2.50123e-58
2.30933e-59
2.10164e-60
1.88531e-61
1.66716e-62
1.45329e-63
1.2489e-64
1.05808e-65
8.83769e-67
7.27792e-68
5.90937e-69
4.73106e-70
3.73488e-71
2.90746e-72
2.23197e-73
1.68973e-74
1.2616e-75
9.29005e-77
6.74721e-78
4.83347e-79
3.41539e-80
2.3806e-81
1.63687e-82
1.11031e-83
7.42998e-85
4.90531e-86
3.19518e-87
2.05349e-88
1.30218e-89
8.14796e-91
5.03084e-92
3.0652e-93
1.84297e-94
1.09354e-95
6.40341e-97
3.70053e-98
2.11057e-99
1.18802e-100
6.59987e-102
3.61857e-103
1.95803e-104
1.04562e-105
5.51026e-107
2.86546e-108
1.4702e-109
7.4419e-111
3.71526e-112
1.82909e-113
8.87526e-115
4.24383e-116
1.99781e-117
9.25933e-119
4.22001e-120
1.89477e-121
2.48612e-16
1.26319e-14
3.1361e-13
4.88532e-12
5.50287e-11
4.8227e-10
3.44532e-09
2.07157e-08
1.07325e-07
4.87859e-07
1.97465e-06
7.20548e-06
2.39527e-05
7.31775e-05
0.00020696
0.000545083
0.00134341
0.00311062
0.00678987
0.014016
0.027447
0.0511583
0.0910947
0.155545
0.255164
0.400899
0.524723
0.616268
0.707683
0.751702
0.782662
0.807804
0.820023
0.833456
0.84532
0.856774
0.865778
0.870409
0.871017
0.86212
0.841987
0.805353
0.746112
0.658445
0.551703
0.432163
0.314353
0.222636
0.147072
0.0914506
0.0536631
0.0296668
0.0155114
0.00768832
0.00362075
0.00162342
0.000694341
0.000283843
0.000111123
4.17436e-05
1.5074e-05
5.24164e-06
1.75794e-06
5.69489e-07
1.7845e-07
5.41572e-08
1.59377e-08
4.55312e-09
1.26401e-09
3.41324e-10
8.97289e-11
2.29826e-11
5.73968e-12
1.3986e-12
3.32724e-13
7.73231e-14
1.75628e-14
3.90074e-15
8.47534e-16
1.80218e-16
3.75171e-17
7.64888e-18
1.5277e-18
2.99e-19
5.73605e-20
1.07887e-20
1.98993e-21
3.60006e-22
6.38953e-23
1.11274e-23
1.9018e-24
3.19041e-25
5.25422e-26
8.49598e-27
1.34904e-27
2.10376e-28
3.22246e-29
4.849e-30
7.16871e-31
1.04137e-31
1.4866e-32
2.08573e-33
2.87633e-34
3.89927e-35
5.19683e-36
6.80998e-37
8.77505e-38
1.11196e-38
1.38583e-39
1.69884e-40
2.04857e-41
2.43026e-42
2.83655e-43
3.25768e-44
3.68165e-45
4.09478e-46
4.48251e-47
4.83399e-48
5.13652e-49
5.37782e-50
5.54786e-51
5.63946e-52
5.64878e-53
5.57559e-54
5.42326e-55
5.1985e-56
4.91085e-57
4.57207e-58
4.19527e-59
3.79415e-60
3.38214e-61
2.97173e-62
2.57385e-63
2.19751e-64
1.84956e-65
1.53468e-66
1.25544e-67
1.01255e-68
8.05208e-70
6.31368e-71
4.88158e-72
3.72188e-73
2.79837e-74
2.07496e-75
1.51738e-76
1.09441e-77
7.78538e-79
5.46282e-80
3.78102e-81
2.58151e-82
1.73871e-83
1.15529e-84
7.57316e-86
4.89786e-87
3.12532e-88
1.96769e-89
1.22239e-90
7.49317e-92
4.53253e-93
2.7055e-94
1.59367e-95
9.26413e-97
5.31462e-98
3.00891e-99
1.6812e-100
9.27046e-102
5.04488e-103
2.70931e-104
1.43584e-105
7.50875e-107
3.87433e-108
1.97221e-109
9.90238e-111
4.90333e-112
2.39351e-113
1.15156e-114
5.45737e-116
2.54743e-117
1.17065e-118
5.30383e-120
1.13394e-15
5.72968e-14
1.42145e-12
2.19857e-11
2.45202e-10
2.12342e-09
1.49679e-08
8.86803e-08
4.52104e-07
2.02053e-06
8.03894e-06
2.88425e-05
9.43283e-05
0.000283762
0.00079126
0.00205893
0.005029
0.0115923
0.0253477
0.0528456
0.105545
0.202691
0.375028
0.544411
0.667306
0.742433
0.781106
0.811403
0.824314
0.828918
0.829969
0.82926
0.829683
0.835802
0.84932
0.867931
0.888913
0.909228
0.927198
0.940728
0.949606
0.955064
0.954094
0.942979
0.917875
0.870194
0.785049
0.645387
0.478932
0.318322
0.203513
0.120302
0.0671151
0.0352695
0.0175395
0.00827402
0.00371062
0.00158544
0.00064682
0.000252518
9.45333e-05
3.40025e-05
1.17723e-05
3.92973e-06
1.26677e-06
3.94901e-07
1.19211e-07
3.48915e-08
9.91269e-09
2.73646e-09
7.34738e-10
1.92047e-10
4.89069e-11
1.21435e-11
2.94187e-12
6.95801e-13
1.6076e-13
3.63017e-14
8.01575e-15
1.73149e-15
3.66038e-16
7.57577e-17
1.53556e-17
3.04916e-18
5.93325e-19
1.13166e-19
2.11622e-20
3.88078e-21
6.98048e-22
1.23181e-22
2.1329e-23
3.62445e-24
6.04547e-25
9.89921e-26
1.59153e-26
2.51268e-27
3.89602e-28
5.93368e-29
8.87769e-30
1.30497e-30
1.88484e-31
2.6753e-32
3.73199e-33
5.11713e-34
6.89723e-35
9.13965e-36
1.19079e-36
1.52557e-37
1.92206e-38
2.38163e-39
2.90269e-40
3.48003e-41
4.10453e-42
4.76298e-43
5.43836e-44
6.11039e-45
6.75659e-46
7.35868e-47
7.89545e-48
8.34564e-49
8.69075e-50
8.91627e-51
9.01266e-52
8.97599e-53
8.80822e-54
8.517e-55
8.1151e-56
7.61951e-57
7.05022e-58
6.42893e-59
5.77765e-60
5.11751e-61
4.46766e-62
3.84445e-63
3.26091e-64
2.72656e-65
2.2474e-66
1.82624e-67
1.46306e-68
1.15563e-69
9.00005e-71
6.91131e-72
5.23342e-73
3.90788e-74
2.87769e-75
2.08986e-76
1.49685e-77
1.05742e-78
7.36784e-80
5.06383e-81
3.43306e-82
2.29596e-83
1.51477e-84
9.85927e-86
6.33107e-87
4.01106e-88
2.50731e-89
1.54646e-90
9.4116e-92
5.65196e-93
3.34933e-94
1.95862e-95
1.13028e-96
6.43682e-98
3.61754e-99
2.00638e-100
1.09816e-101
5.93156e-103
3.16157e-104
1.66284e-105
8.62921e-107
4.41803e-108
2.23126e-109
1.11141e-110
5.45852e-112
2.64288e-113
1.26104e-114
5.92932e-116
2.74709e-117
1.25572e-118
3.56615e-15
1.85868e-13
4.65405e-12
7.22523e-11
8.05461e-10
6.9532e-09
4.87142e-08
2.86063e-07
1.44316e-06
6.38079e-06
2.51296e-05
8.9331e-05
0.000289836
0.00086673
0.00241056
0.00628836
0.0155079
0.0364121
0.0818992
0.177328
0.370778
0.560027
0.668373
0.722253
0.74778
0.758267
0.761058
0.744098
0.692371
0.636914
0.573126
0.539369
0.525942
0.527845
0.558441
0.61069
0.68491
0.768344
0.83655
0.897095
0.937189
0.961057
0.973954
0.980595
0.984018
0.981998
0.971571
0.946083
0.891563
0.777953
0.585635
0.378506
0.228896
0.128873
0.0683515
0.0342069
0.0162026
0.00728191
0.00311295
0.00126899
0.000494502
0.000184627
6.61856e-05
2.28253e-05
7.58632e-06
2.43401e-06
7.54999e-07
2.2673e-07
6.60033e-08
1.86478e-08
5.11874e-09
1.36648e-09
3.5509e-10
8.98942e-11
2.21877e-11
5.34297e-12
1.25608e-12
2.88449e-13
6.47396e-14
1.42079e-14
3.0503e-15
6.40891e-16
1.31831e-16
2.65578e-17
5.24133e-18
1.01366e-18
1.92159e-19
3.5715e-20
6.50973e-21
1.16383e-21
2.04132e-22
3.51326e-23
5.93419e-24
9.83863e-25
1.60139e-25
2.55922e-26
4.01635e-27
6.19047e-28
9.37214e-29
1.3939e-29
2.03682e-30
2.92449e-31
4.12644e-32
5.72234e-33
7.79995e-34
1.04514e-34
1.37678e-35
1.78323e-36
2.27114e-37
2.84456e-38
3.504e-39
4.24551e-40
5.06002e-41
5.93295e-42
6.84424e-43
7.76877e-44
8.67762e-45
9.5456e-46
1.03427e-46
1.10383e-47
1.16042e-48
1.20169e-49
1.2259e-50
1.23201e-51
1.21982e-52
1.18992e-53
1.14365e-54
1.08304e-55
1.01062e-56
9.29269e-58
8.42032e-59
7.5191e-60
6.61719e-61
5.73947e-62
4.9066e-63
4.13448e-64
3.43411e-65
2.81177e-66
2.26954e-67
1.80598e-68
1.41684e-69
1.09594e-70
8.35851e-72
6.28592e-73
4.66151e-74
3.40896e-75
2.45853e-76
1.74867e-77
1.22669e-78
8.48754e-80
5.79246e-81
3.89941e-82
2.58945e-83
1.69631e-84
1.09626e-85
6.98949e-87
4.39664e-88
2.72869e-89
1.67094e-90
1.00961e-91
6.01935e-93
3.54127e-94
2.05585e-95
1.17776e-96
6.65831e-98
3.71461e-99
2.04505e-100
1.11105e-101
5.95652e-103
3.1511e-104
1.64481e-105
8.47071e-107
4.30351e-108
2.1566e-109
1.06582e-110
5.19393e-112
2.49539e-113
1.18195e-114
5.52028e-116
2.54547e-117
8.51445e-15
4.22297e-13
1.13369e-11
1.98889e-10
2.33914e-09
1.99441e-08
1.3832e-07
8.04366e-07
4.02196e-06
1.76437e-05
6.89272e-05
0.000242478
0.000775693
0.00227971
0.00622332
0.0160034
0.0403912
0.0981366
0.230672
0.471377
0.612879
0.680606
0.705565
0.712806
0.699913
0.633231
0.503053
0.368347
0.274977
0.22341
0.198787
0.188862
0.186616
0.19276
0.202334
0.223163
0.260836
0.334763
0.468354
0.637039
0.790111
0.888523
0.943199
0.972558
0.986093
0.991837
0.994166
0.993715
0.988094
0.971763
0.929355
0.822936
0.606889
0.372725
0.21422
0.114885
0.0579839
0.027623
0.0124563
0.00533253
0.00217355
0.000845853
0.000315073
0.000112596
3.86846e-05
1.28024e-05
4.08831e-06
1.26178e-06
3.76919e-07
1.09122e-07
3.06551e-08
8.36574e-09
2.22001e-09
5.73402e-10
1.44272e-10
3.5388e-11
8.46824e-12
1.9782e-12
4.51383e-13
1.00659e-13
2.19486e-14
4.68169e-15
9.77289e-16
1.99724e-16
3.9974e-17
7.83793e-18
1.50602e-18
2.83648e-19
5.23794e-20
9.48572e-21
1.68501e-21
2.93657e-22
5.0219e-23
8.42863e-24
1.3886e-24
2.24595e-25
3.56683e-26
5.56272e-27
8.52061e-28
1.282e-28
1.89492e-29
2.75189e-30
3.92698e-31
5.50706e-32
7.59036e-33
1.02833e-33
1.36953e-34
1.79318e-35
2.30853e-36
2.92245e-37
3.63829e-38
4.45481e-39
5.36516e-40
6.35617e-41
7.40813e-42
8.4949e-43
9.5852e-44
1.06501e-44
1.16535e-45
1.2558e-46
1.33281e-47
1.39322e-48
1.43448e-49
1.45483e-50
1.45342e-51
1.4304e-52
1.38684e-53
1.32471e-54
1.24669e-55
1.156e-56
1.0562e-57
9.50914e-59
8.43651e-60
7.37622e-61
6.35587e-62
5.39769e-63
4.5181e-64
3.72768e-65
3.03165e-66
2.43052e-67
1.92096e-68
1.49679e-69
1.14987e-70
8.70967e-72
6.5049e-73
4.79057e-74
3.47905e-75
2.49163e-76
1.75984e-77
1.22589e-78
8.42248e-80
5.70761e-81
3.81518e-82
2.51559e-83
1.63624e-84
1.04992e-85
6.64636e-87
4.15093e-88
2.55775e-89
1.55502e-90
9.32812e-92
5.52136e-93
3.22481e-94
1.85856e-95
1.05699e-96
5.93196e-98
3.28516e-99
1.79533e-100
9.68182e-102
5.15209e-103
2.70523e-104
1.4015e-105
7.16334e-107
3.61187e-108
1.79637e-109
8.81178e-111
4.26303e-112
2.03414e-113
9.57609e-115
4.45345e-116
1.25218e-14
9.13197e-13
2.53371e-11
3.25285e-10
3.67362e-09
3.23478e-08
2.29887e-07
1.3652e-06
6.9572e-06
3.10461e-05
0.000123225
0.000440912
0.00144161
0.00437232
0.0125411
0.0352414
0.0963368
0.23612
0.471509
0.606274
0.662138
0.67896
0.681449
0.622227
0.465867
0.301428
0.206658
0.160832
0.139864
0.132432
0.130903
0.134985
0.138082
0.145234
0.149888
0.152411
0.1546
0.158097
0.180477
0.245948
0.411693
0.665666
0.826777
0.916696
0.963705
0.985589
0.994114
0.996996
0.99794
0.997255
0.992885
0.978153
0.932739
0.79885
0.539658
0.313089
0.17018
0.0867335
0.0415854
0.018822
0.00807028
0.00328916
0.00127821
0.000474963
0.000169178
5.78951e-05
1.9074e-05
6.06111e-06
1.86081e-06
5.52778e-07
1.59111e-07
4.44321e-08
1.20512e-08
3.17803e-09
8.1561e-10
2.03883e-10
4.96815e-11
1.18096e-11
2.74022e-12
6.21023e-13
1.37544e-13
2.97856e-14
6.30959e-15
1.30801e-15
2.65461e-16
5.2763e-17
1.02739e-17
1.96043e-18
3.66687e-19
6.72478e-20
1.20949e-20
2.13383e-21
3.6935e-22
6.27366e-23
1.04588e-23
1.71156e-24
2.7499e-25
4.33831e-26
6.72145e-27
1.02282e-27
1.52893e-28
2.24531e-29
3.23979e-30
4.59365e-31
6.40099e-32
8.76659e-33
1.18019e-33
1.56191e-34
2.0323e-35
2.60007e-36
3.27108e-37
4.04713e-38
4.92484e-39
5.89477e-40
6.9408e-41
8.04002e-42
9.16396e-43
1.02841e-43
1.1364e-44
1.23648e-45
1.32485e-46
1.39794e-47
1.4527e-48
1.4868e-49
1.49877e-50
1.48817e-51
1.45553e-52
1.40237e-53
1.33108e-54
1.2447e-55
1.14674e-56
1.04094e-57
9.31059e-59
8.20607e-60
7.12728e-61
6.10052e-62
5.14618e-63
4.27862e-64
3.50625e-65
2.83222e-66
2.25516e-67
1.77018e-68
1.36984e-69
1.04509e-70
7.8613e-72
5.83057e-73
4.26408e-74
3.0751e-75
2.18691e-76
1.53379e-77
1.06091e-78
7.23755e-80
4.86995e-81
3.23219e-82
2.11605e-83
1.36657e-84
8.70626e-86
5.47195e-87
3.39298e-88
2.0757e-89
1.25287e-90
7.46144e-92
4.38455e-93
2.5423e-94
1.45458e-95
8.21226e-97
4.5752e-98
2.51525e-99
1.36451e-100
7.30443e-102
3.85836e-103
2.01099e-104
1.03415e-105
5.24694e-107
2.62634e-108
1.29689e-109
6.31806e-111
3.03699e-112
1.44096e-113
6.75746e-115
1.92444e-14
1.38349e-12
3.78639e-11
6.11776e-10
7.01511e-09
6.71341e-08
5.02854e-07
2.92021e-06
1.36822e-05
5.80529e-05
0.000238045
0.000912615
0.0032583
0.0103407
0.0283242
0.0687361
0.176596
0.39581
0.56602
0.635723
0.657223
0.655433
0.58746
0.370976
0.231854
0.164105
0.134719
0.123845
0.120064
0.118692
0.118833
0.121933
0.127839
0.13831
0.152025
0.160209
0.162037
0.148892
0.143668
0.148989
0.184873
0.310133
0.604567
0.801304
0.908833
0.962198
0.985735
0.99503
0.998148
0.99908
0.999161
0.997989
0.992602
0.97219
0.90071
0.683322
0.408689
0.225672
0.11615
0.0560189
0.0254299
0.0109124
0.00444389
0.00172338
0.000638411
0.000226519
7.71698e-05
2.52973e-05
7.99524e-06
2.44054e-06
7.20649e-07
2.06142e-07
5.71966e-08
1.54114e-08
4.03687e-09
1.02894e-09
2.55425e-10
6.18025e-11
1.45861e-11
3.36007e-12
7.55965e-13
1.66205e-13
3.57268e-14
7.5121e-15
1.54572e-15
3.1137e-16
6.14267e-17
1.18718e-17
2.24849e-18
4.17448e-19
7.59914e-20
1.35669e-20
2.37601e-21
4.08278e-22
6.88472e-23
1.13951e-23
1.85148e-24
2.95365e-25
4.62703e-26
7.1188e-27
1.07579e-27
1.59707e-28
2.32939e-29
3.33838e-30
4.70164e-31
6.50775e-32
8.85373e-33
1.18407e-33
1.55679e-34
2.01245e-35
2.55802e-36
3.19746e-37
3.93071e-38
4.75269e-39
5.65263e-40
6.61363e-41
7.61393e-42
8.62923e-43
9.62829e-44
1.0577e-44
1.14404e-45
1.21844e-46
1.27784e-47
1.31972e-48
1.34229e-49
1.3446e-50
1.32662e-51
1.28921e-52
1.23412e-53
1.16376e-54
1.0811e-55
9.89453e-57
8.92213e-58
7.92705e-59
6.9398e-60
5.98687e-61
5.0897e-62
4.26431e-63
3.52122e-64
2.86581e-65
2.29898e-66
1.81794e-67
1.41711e-68
1.08901e-69
8.25054e-71
6.16283e-72
4.53885e-73
3.29611e-74
2.36031e-75
1.66674e-76
1.1607e-77
7.97159e-79
5.39963e-80
3.60741e-81
2.37717e-82
1.54517e-83
9.90747e-85
6.26667e-86
3.91036e-87
2.40724e-88
1.46205e-89
8.76107e-91
5.1799e-92
3.02181e-93
1.73943e-94
9.87988e-96
5.53743e-97
3.06254e-98
1.67139e-99
9.00109e-101
4.78334e-102
2.5083e-103
1.29788e-104
6.62649e-106
3.33835e-107
1.65953e-108
8.14133e-110
3.94219e-111
1.88498e-112
8.91215e-114
3.44621e-14
1.59343e-12
4.05069e-11
6.85934e-10
9.22443e-09
8.87674e-08
6.96592e-07
4.51795e-06
2.43169e-05
0.000111608
0.000449952
0.00161065
0.00513229
0.0148851
0.0407134
0.112306
0.274267
0.482599
0.587634
0.632505
0.643628
0.603392
0.408667
0.237205
0.160784
0.128811
0.115807
0.107316
0.0940663
0.0795919
0.0682414
0.0632548
0.0685825
0.0855875
0.118089
0.162131
0.182815
0.190697
0.163501
0.144531
0.15106
0.18808
0.348558
0.647208
0.833218
0.928522
0.971511
0.989421
0.996432
0.998897
0.999592
0.999681
0.999284
0.996934
0.986303
0.943328
0.782655
0.486647
0.272104
0.14118
0.0683543
0.0310627
0.0133178
0.00541093
0.0020913
0.000771435
0.000272385
9.22954e-05
3.00802e-05
9.44857e-06
2.86567e-06
8.40558e-07
2.38795e-07
6.57913e-08
1.76001e-08
4.57646e-09
1.15781e-09
2.85247e-10
6.84909e-11
1.60397e-11
3.66607e-12
8.18316e-13
1.78485e-13
3.80603e-14
7.93855e-15
1.62032e-15
3.23765e-16
6.33563e-17
1.21459e-17
2.28188e-18
4.20243e-19
7.58878e-20
1.34405e-20
2.33524e-21
3.98117e-22
6.66098e-23
1.09394e-23
1.76379e-24
2.79235e-25
4.34135e-26
6.62937e-27
9.94417e-28
1.46544e-28
2.12188e-29
3.0191e-30
4.22166e-31