/*--------------------------------*- C++ -*----------------------------------*\
  =========                 |
  \\      /  F ield         | OpenFOAM: The Open Source CFD Toolbox
   \\    /   O peration     | Website:  https://openfoam.org
    \\  /    A nd           | Version:  7
     \\/     M anipulation  |
\*---------------------------------------------------------------------------*/
FoamFile
{
    version     2.0;
    format      ascii;
    class       volVectorField;
    location    "0.016";
    object      U_0;
}
// * * * * * * * * * * * * * * * * * * * * * * * * * * * * * * * * * * * * * //

dimensions      [0 1 -1 0 0 0 0];

internalField   nonuniform List<vector> 
12225
(
(4.89868 0.1954 0)
(4.23471 0.140445 0)
(3.71344 0.103419 0)
(3.33159 0.0741474 0)
(3.00653 0.0612619 0)
(2.70479 0.0560282 0)
(2.41592 0.0518067 0)
(2.14463 0.0457519 0)
(1.90147 0.0373095 0)
(1.69552 0.0280811 0)
(1.52896 0.01963 0)
(1.40475 0.0127318 0)
(1.30859 0.00682807 0)
(1.25054 0.00232293 0)
(1.19268 -0.000767458 0)
(1.1799 -0.00321558 0)
(1.12618 -0.000774818 0)
(1.10635 0.00377293 0)
(4.99138 0.115432 0)
(4.86814 0.0767431 0)
(4.7737 0.0983339 0)
(4.69139 0.096756 0)
(4.58921 0.0929433 0)
(4.46737 0.0914001 0)
(4.33524 0.0911465 0)
(4.20531 0.0907367 0)
(4.08442 0.0876587 0)
(3.9754 0.0803486 0)
(3.87663 0.0690124 0)
(3.79275 0.0563767 0)
(3.71532 0.04447 0)
(3.65344 0.0351184 0)
(3.58313 0.0283391 0)
(3.53151 0.0235125 0)
(3.46606 0.0264849 0)
(3.40195 0.0180585 0)
(5.09502 0.204382 0)
(4.8872 0.150113 0)
(4.78473 0.134011 0)
(4.757 0.120236 0)
(4.74736 0.116437 0)
(4.72701 0.118636 0)
(4.69345 0.12014 0)
(4.65962 0.116664 0)
(4.63631 0.107895 0)
(4.62444 0.0960676 0)
(4.6187 0.0831803 0)
(4.61291 0.0713966 0)
(4.60152 0.0609365 0)
(4.58188 0.0538014 0)
(4.55408 0.0500983 0)
(4.51816 0.046937 0)
(4.48212 0.0493441 0)
(4.43793 0.0501213 0)
(4.98381 0.265615 0)
(4.90006 0.156246 0)
(4.81163 0.128108 0)
(4.75987 0.115984 0)
(4.72349 0.112488 0)
(4.69318 0.114628 0)
(4.67193 0.115789 0)
(4.66332 0.111016 0)
(4.66772 0.0999431 0)
(4.68131 0.085747 0)
(4.69918 0.0717466 0)
(4.71576 0.060134 0)
(4.72737 0.0522482 0)
(4.73014 0.0488386 0)
(4.72498 0.0492029 0)
(4.71123 0.0503871 0)
(4.69457 0.0545141 0)
(4.67472 0.0553983 0)
(4.9805 0.26143 0)
(4.97229 0.191291 0)
(4.89712 0.154818 0)
(4.81047 0.14185 0)
(4.75533 0.135939 0)
(4.73233 0.129934 0)
(4.72601 0.122041 0)
(4.72538 0.110731 0)
(4.72762 0.0959647 0)
(4.73244 0.0803181 0)
(4.73937 0.0669896 0)
(4.74639 0.0583114 0)
(4.75062 0.0549999 0)
(4.74923 0.0561765 0)
(4.7423 0.0600846 0)
(4.73071 0.0638335 0)
(4.7184 0.0669502 0)
(4.70729 0.0676472 0)
(5.00642 0.28959 0)
(5.00922 0.174162 0)
(4.94499 0.15851 0)
(4.88107 0.155408 0)
(4.85047 0.142896 0)
(4.83493 0.130353 0)
(4.81766 0.12276 0)
(4.79727 0.115288 0)
(4.77923 0.102731 0)
(4.76724 0.0859056 0)
(4.76196 0.0694735 0)
(4.76181 0.057774 0)
(4.76434 0.0525481 0)
(4.76662 0.0532403 0)
(4.76755 0.0573426 0)
(4.76546 0.0615209 0)
(4.76211 0.0647198 0)
(4.75617 0.0651744 0)
(5.04552 0.288016 0)
(5.0417 0.215707 0)
(4.98 0.187406 0)
(4.94079 0.17197 0)
(4.91875 0.156997 0)
(4.89045 0.144381 0)
(4.85704 0.132896 0)
(4.83415 0.119424 0)
(4.83103 0.102516 0)
(4.84317 0.0842354 0)
(4.85909 0.0682889 0)
(4.86826 0.0575433 0)
(4.8667 0.0531022 0)
(4.85419 0.0545451 0)
(4.83592 0.0597303 0)
(4.81509 0.0658857 0)
(4.7978 0.0710309 0)
(4.78463 0.0734238 0)
(4.99738 0.279829 0)
(5.00804 0.204166 0)
(4.99469 0.183792 0)
(4.9618 0.1684 0)
(4.92165 0.158247 0)
(4.88362 0.15489 0)
(4.85825 0.147679 0)
(4.85287 0.129217 0)
(4.86715 0.102317 0)
(4.89158 0.076037 0)
(4.91323 0.0587842 0)
(4.92199 0.053826 0)
(4.91518 0.0590049 0)
(4.8955 0.0692569 0)
(4.87113 0.0788197 0)
(4.84842 0.0841461 0)
(4.83418 0.0834876 0)
(4.82838 0.0780102 0)
(5.01444 0.279237 0)
(4.93556 0.217932 0)
(4.91075 0.196716 0)
(4.89748 0.193507 0)
(4.8785 0.188786 0)
(4.86721 0.17189 0)
(4.87075 0.143406 0)
(4.88414 0.110185 0)
(4.89846 0.0802329 0)
(4.90595 0.0601289 0)
(4.90311 0.0529728 0)
(4.89112 0.0573032 0)
(4.87457 0.068172 0)
(4.85811 0.0796305 0)
(4.84661 0.0867731 0)
(4.84112 0.0878289 0)
(4.84371 0.0829787 0)
(4.84971 0.0751052 0)
(5.00665 0.325244 0)
(4.97695 0.240291 0)
(4.96523 0.198307 0)
(4.96215 0.176774 0)
(4.95501 0.169432 0)
(4.93924 0.161849 0)
(4.92308 0.145535 0)
(4.91165 0.12111 0)
(4.90246 0.0954563 0)
(4.89001 0.0763989 0)
(4.87218 0.0683167 0)
(4.85275 0.070513 0)
(4.83835 0.0782384 0)
(4.83367 0.0856572 0)
(4.8402 0.0882533 0)
(4.85483 0.0848162 0)
(4.87509 0.0762676 0)
(4.89473 0.0658545 0)
(5.02874 0.322538 0)
(4.98489 0.246654 0)
(4.97036 0.200871 0)
(4.93531 0.193567 0)
(4.90923 0.197728 0)
(4.9038 0.185631 0)
(4.91266 0.153601 0)
(4.92124 0.116177 0)
(4.9186 0.0881698 0)
(4.90282 0.0749393 0)
(4.87929 0.0731402 0)
(4.85683 0.0763903 0)
(4.84265 0.0790954 0)
(4.83977 0.0780509 0)
(4.84741 0.0727292 0)
(4.86181 0.0644868 0)
(4.87989 0.05545 0)
(4.89724 0.048583 0)
(5.06729 0.30838 0)
(5.02984 0.273168 0)
(4.98201 0.22296 0)
(4.94634 0.195813 0)
(4.93588 0.180995 0)
(4.94068 0.16377 0)
(4.94618 0.142245 0)
(4.94533 0.121482 0)
(4.94041 0.106327 0)
(4.93571 0.0981334 0)
(4.9324 0.0948123 0)
(4.92978 0.0930117 0)
(4.92698 0.0896033 0)
(4.92396 0.0827097 0)
(4.92136 0.0723591 0)
(4.92028 0.0602552 0)
(4.92176 0.0482288 0)
(4.9253 0.039406 0)
(4.93932 0.309111 0)
(4.95702 0.268322 0)
(4.97612 0.226746 0)
(4.949 0.214442 0)
(4.91472 0.204146 0)
(4.89487 0.18088 0)
(4.89282 0.148561 0)
(4.90403 0.116448 0)
(4.9224 0.0921016 0)
(4.94152 0.0787173 0)
(4.95711 0.0751598 0)
(4.9674 0.0777178 0)
(4.9734 0.0811446 0)
(4.97594 0.0809717 0)
(4.97626 0.0752456 0)
(4.97421 0.0647837 0)
(4.97054 0.0526124 0)
(4.96417 0.0416877 0)
(4.98866 0.301857 0)
(5.00546 0.279726 0)
(4.98133 0.243062 0)
(4.96568 0.219931 0)
(4.96772 0.199095 0)
(4.97765 0.170179 0)
(4.9871 0.136062 0)
(4.99461 0.105236 0)
(5.00148 0.0855495 0)
(5.00658 0.0789626 0)
(5.00824 0.081342 0)
(5.0058 0.086164 0)
(5.00065 0.0877817 0)
(4.99331 0.0841109 0)
(4.9854 0.0758775 0)
(4.97683 0.0666444 0)
(4.96984 0.0584845 0)
(4.96421 0.0538582 0)
(5.00629 0.295638 0)
(5.00443 0.265632 0)
(5.02697 0.232891 0)
(5.02236 0.220158 0)
(4.99643 0.205307 0)
(4.96687 0.17692 0)
(4.9449 0.141047 0)
(4.93314 0.107605 0)
(4.92972 0.0834851 0)
(4.93048 0.0717956 0)
(4.93286 0.0718444 0)
(4.93663 0.0793567 0)
(4.9423 0.0877878 0)
(4.94921 0.0916057 0)
(4.95754 0.0879067 0)
(4.9656 0.0773514 0)
(4.97533 0.0619194 0)
(4.98382 0.0449402 0)
(5.04559 0.369553 0)
(4.99663 0.281852 0)
(4.98515 0.235161 0)
(4.98935 0.238114 0)
(5.00827 0.233753 0)
(5.02649 0.203321 0)
(5.03461 0.157358 0)
(5.03238 0.115063 0)
(5.0215 0.088517 0)
(5.00443 0.0786515 0)
(4.98699 0.0787804 0)
(4.97622 0.0804049 0)
(4.97631 0.0776709 0)
(4.98646 0.0692141 0)
(5.00359 0.0574619 0)
(5.02278 0.0458237 0)
(5.04163 0.0365856 0)
(5.05659 0.0312575 0)
(4.93506 0.34107 0)
(4.92634 0.299709 0)
(4.95506 0.236024 0)
(4.97428 0.198572 0)
(4.99101 0.174561 0)
(5.00547 0.155667 0)
(5.01199 0.140042 0)
(5.00795 0.128875 0)
(4.99534 0.121829 0)
(4.98095 0.115392 0)
(4.97309 0.105354 0)
(4.97602 0.0898341 0)
(4.9884 0.0702345 0)
(5.00546 0.0500684 0)
(5.02235 0.0320904 0)
(5.03581 0.0176295 0)
(5.04547 0.00609501 0)
(5.05157 -0.00362838 0)
(4.97944 0.285592 0)
(4.97291 0.22833 0)
(4.98629 0.192245 0)
(4.98331 0.197472 0)
(4.97774 0.195622 0)
(4.97914 0.173351 0)
(4.98493 0.146927 0)
(4.99335 0.128628 0)
(5.00521 0.116728 0)
(5.0211 0.102978 0)
(5.04011 0.0822163 0)
(5.06007 0.056425 0)
(5.07873 0.0320992 0)
(5.09421 0.0154321 0)
(5.106 0.00858355 0)
(5.11337 0.00895178 0)
(5.11778 0.0128772 0)
(5.11856 0.0147961 0)
(5.01945 0.339782 0)
(4.97107 0.29518 0)
(4.96642 0.245903 0)
(4.95936 0.210633 0)
(4.96293 0.178066 0)
(4.9745 0.148269 0)
(4.98274 0.122453 0)
(4.99044 0.098061 0)
(5.00466 0.0737433 0)
(5.0246 0.0504334 0)
(5.04396 0.0299241 0)
(5.05695 0.0135023 0)
(5.06228 0.00161449 0)
(5.06187 -0.00604011 0)
(5.05995 -0.00998574 0)
(5.0603 -0.0107918 0)
(5.06551 -0.00973699 0)
(5.07589 -0.00752984 0)
(5.00294 0.357376 0)
(4.99458 0.286507 0)
(5.01283 0.218553 0)
(5.01347 0.185631 0)
(5.01151 0.168947 0)
(5.02335 0.1535 0)
(5.04497 0.127229 0)
(5.07049 0.0915382 0)
(5.09612 0.0571895 0)
(5.11814 0.0334627 0)
(5.1341 0.0232455 0)
(5.14338 0.0223698 0)
(5.14653 0.0235508 0)
(5.14456 0.0211842 0)
(5.13934 0.0119887 0)
(5.13265 -0.0034758 0)
(5.1259 -0.0235082 0)
(5.11979 -0.0441628 0)
(5.04792 0.298533 0)
(5.00013 0.277394 0)
(4.99844 0.239698 0)
(4.99642 0.198139 0)
(5.00778 0.150792 0)
(5.03241 0.0995997 0)
(5.058 0.0531028 0)
(5.08242 0.0183147 0)
(5.10473 -0.0024307 0)
(5.12224 -0.011255 0)
(5.13356 -0.0120385 0)
(5.13916 -0.00718845 0)
(5.14257 0.000936659 0)
(5.14637 0.00889591 0)
(5.15153 0.0137004 0)
(5.15701 0.0137218 0)
(5.1639 0.00867631 0)
(5.16999 -0.000877342 0)
(4.98413 0.326919 0)
(4.95393 0.282054 0)
(4.99763 0.224885 0)
(5.03419 0.180658 0)
(5.06533 0.149481 0)
(5.09339 0.115332 0)
(5.11383 0.0741659 0)
(5.12971 0.0349766 0)
(5.14223 0.00684018 0)
(5.14749 -0.00393006 0)
(5.1465 -0.000366799 0)
(5.14509 0.00845324 0)
(5.14703 0.0136865 0)
(5.15294 0.0102071 0)
(5.16298 -0.0022544 0)
(5.17573 -0.0195699 0)
(5.18944 -0.0379352 0)
(5.20274 -0.0534657 0)
(4.97597 0.321215 0)
(4.95497 0.252681 0)
(5.0183 0.184589 0)
(5.08248 0.128008 0)
(5.12325 0.083561 0)
(5.14154 0.0433074 0)
(5.14292 0.00761574 0)
(5.13699 -0.0158987 0)
(5.13533 -0.0226463 0)
(5.14562 -0.0188895 0)
(5.1669 -0.0121158 0)
(5.19462 -0.00766441 0)
(5.22241 -0.00834184 0)
(5.24345 -0.0134423 0)
(5.25373 -0.0213639 0)
(5.25314 -0.0306298 0)
(5.24467 -0.0407033 0)
(5.2328 -0.0518671 0)
(5.02953 0.194133 0)
(5.0462 0.187551 0)
(5.1281 0.137261 0)
(5.17548 0.11573 0)
(5.19542 0.118043 0)
(5.20768 0.11015 0)
(5.21306 0.081139 0)
(5.2148 0.0393128 0)
(5.21562 -0.000631696 0)
(5.21561 -0.029271 0)
(5.21793 -0.0442566 0)
(5.22373 -0.0463128 0)
(5.23153 -0.038292 0)
(5.23991 -0.024869 0)
(5.24984 -0.0124486 0)
(5.26134 -0.0061138 0)
(5.27572 -0.00875783 0)
(5.29104 -0.0204234 0)
(5.00805 0.205489 0)
(5.01861 0.143401 0)
(5.07258 0.103094 0)
(5.11594 0.0778316 0)
(5.16553 0.0505446 0)
(5.22312 0.0197767 0)
(5.27064 -0.00497479 0)
(5.30069 -0.0175261 0)
(5.31914 -0.0244533 0)
(5.33089 -0.0289307 0)
(5.33672 -0.0305471 0)
(5.3391 -0.0308978 0)
(5.34148 -0.0322299 0)
(5.34649 -0.036546 0)
(5.35611 -0.04509 0)
(5.36956 -0.0574055 0)
(5.38562 -0.0723311 0)
(5.40002 -0.0872231 0)
(5.05691 0.158073 0)
(5.0836 0.117028 0)
(5.16308 0.111365 0)
(5.23299 0.0912658 0)
(5.27079 0.0671501 0)
(5.27913 0.0469438 0)
(5.27818 0.0269393 0)
(5.28731 0.00420044 0)
(5.30934 -0.017051 0)
(5.33843 -0.0336486 0)
(5.36783 -0.0423475 0)
(5.39338 -0.0431086 0)
(5.41414 -0.0393945 0)
(5.43033 -0.0354325 0)
(5.44252 -0.0342271 0)
(5.45051 -0.0367824 0)
(5.45444 -0.042742 0)
(5.45304 -0.0508116 0)
(4.95029 0.180765 0)
(5.01936 0.0594997 0)
(5.15181 0.0293938 0)
(5.24142 0.0179477 0)
(5.29071 0.0108203 0)
(5.33094 0.00172847 0)
(5.37028 -0.0138124 0)
(5.40445 -0.0375387 0)
(5.42695 -0.0602331 0)
(5.43565 -0.0726195 0)
(5.43605 -0.0740217 0)
(5.43599 -0.0689163 0)
(5.44071 -0.062975 0)
(5.45131 -0.0602036 0)
(5.46623 -0.0617952 0)
(5.48199 -0.0668204 0)
(5.49605 -0.0736849 0)
(5.50496 -0.0806398 0)
(4.8605 0.119108 0)
(5.03718 0.0592275 0)
(5.19345 0.0539519 0)
(5.30042 0.0408774 0)
(5.37166 0.0241196 0)
(5.42282 0.00583324 0)
(5.45656 -0.00960339 0)
(5.47742 -0.0207154 0)
(5.49309 -0.0297513 0)
(5.50764 -0.0366946 0)
(5.52151 -0.0415438 0)
(5.53379 -0.0452681 0)
(5.54305 -0.0489007 0)
(5.54829 -0.0528492 0)
(5.54949 -0.0564399 0)
(5.54743 -0.0590474 0)
(5.5431 -0.0601904 0)
(5.53729 -0.0605394 0)
(4.99192 0.0240659 0)
(5.20293 -0.0586426 0)
(5.32867 -0.0419811 0)
(5.37152 -0.0546236 0)
(5.40251 -0.0516521 0)
(5.44908 -0.0404454 0)
(5.4983 -0.0420916 0)
(5.53285 -0.057898 0)
(5.54437 -0.0764339 0)
(5.53305 -0.0872874 0)
(5.50511 -0.0871943 0)
(5.46963 -0.0792498 0)
(5.43411 -0.0694807 0)
(5.40345 -0.0628054 0)
(5.37885 -0.0611694 0)
(5.35974 -0.0638753 0)
(5.34258 -0.069066 0)
(5.32579 -0.0748421 0)
(4.97586 0.00655424 0)
(5.09412 -0.00201934 0)
(5.07067 0.00858506 0)
(4.95399 0.000357593 0)
(4.83301 -0.0143291 0)
(4.72359 -0.029244 0)
(4.6107 -0.0362967 0)
(4.48352 -0.0344269 0)
(4.34307 -0.02816 0)
(4.19919 -0.022111 0)
(4.06441 -0.0187125 0)
(3.94578 -0.0188092 0)
(3.84076 -0.0225083 0)
(3.74212 -0.0285185 0)
(3.64245 -0.0343244 0)
(3.53996 -0.0377929 0)
(3.43374 -0.037718 0)
(3.32971 -0.0347879 0)
(-0.0122581 0.018424 -6.79226e-21)
(-0.051956 0.0250771 6.74399e-21)
(-0.0941835 0.0277727 0)
(-0.138279 0.0315318 0)
(-0.18564 0.0362538 0)
(-0.23658 0.0416366 -6.55308e-21)
(-0.29146 0.0473729 0)
(-0.350405 0.0531664 0)
(-0.413391 0.0587924 0)
(-0.480314 0.0640861 0)
(-0.550983 0.0689506 6.33306e-21)
(-0.625175 0.0733236 0)
(-0.702617 0.0771559 0)
(-0.783 0.0804022 0)
(-0.865976 0.0830276 0)
(-0.951153 0.0850176 6.13355e-21)
(-1.03802 0.0863689 0)
(-1.12593 0.0870321 0)
(-1.21421 0.086943 0)
(-1.30212 0.0860353 0)
(-1.38884 0.0842508 0)
(-1.47347 0.0815412 0)
(-1.55506 0.0778708 0)
(-1.63255 0.0732247 5.83415e-21)
(-1.70488 0.0676103 -5.7939e-21)
(-1.77094 0.0610545 5.75184e-21)
(-1.82963 0.0536087 5.70756e-21)
(-1.87986 0.0453574 0)
(-1.92062 0.0364172 0)
(-1.95102 0.0269391 -5.55771e-21)
(-1.97021 0.0171278 -5.50108e-21)
(-1.97751 0.00721289 0)
(-1.97258 -0.00259888 0)
(-1.95559 -0.0121914 -5.3087e-21)
(-1.92645 -0.0215077 0)
(-1.88537 -0.0304446 0)
(-1.83276 -0.0388779 5.0855e-21)
(-1.76917 -0.0466903 0)
(-1.69532 -0.0537778 4.92467e-21)
(-1.61206 -0.0600565 9.68455e-21)
(-1.52039 -0.0654676 0)
(-1.42134 -0.0699772 0)
(-1.31599 -0.0735785 0)
(-1.20547 -0.0762877 0)
(-1.09088 -0.078131 0)
(-0.973331 -0.0791689 8.71116e-21)
(-0.853804 -0.0794763 8.56e-21)
(-0.733177 -0.0790919 8.41361e-21)
(-0.612426 -0.0781752 0)
(-0.492291 -0.0766759 -8.13621e-21)
(-0.373315 -0.0747364 0)
(-0.256298 -0.0724928 7.87986e-21)
(-0.14169 -0.0699444 7.75944e-21)
(-0.0302165 -0.0672675 0)
(0.0779303 -0.0643569 0)
(0.182847 -0.0613342 0)
(0.284133 -0.0582467 7.3175e-21)
(0.381613 -0.055133 0)
(0.475179 -0.0520259 0)
(0.564766 -0.0489527 0)
(0.650353 -0.0459355 0)
(0.731948 -0.0429927 0)
(0.809588 -0.0401384 0)
(0.883331 -0.0373839 0)
(0.953253 -0.0347375 0)
(1.01945 -0.0322053 -6.52752e-21)
(1.08201 -0.0297913 0)
(1.14106 -0.0274978 0)
(1.19671 -0.0253259 6.30644e-21)
(1.24909 -0.0232753 6.23579e-21)
(1.29832 -0.0213449 0)
(1.34453 -0.0195327 -6.09824e-21)
(1.38786 -0.017836 6.03113e-21)
(1.42843 -0.0162516 0)
(1.46637 -0.0147759 -5.89978e-21)
(1.50181 -0.0134048 0)
(1.53488 -0.0121341 0)
(1.5657 -0.0109591 5.70879e-21)
(1.59439 -0.00987514 0)
(1.62107 -0.00887728 -5.58482e-21)
(1.64585 -0.00796052 0)
(1.66885 -0.00711981 5.46313e-21)
(1.69016 -0.00635017 5.40305e-21)
(1.7099 -0.00564684 5.34346e-21)
(1.72816 -0.00500538 1.05686e-20)
(1.74503 -0.00442158 -1.04512e-20)
(1.7606 -0.00389133 0)
(1.77496 -0.00341068 0)
(1.7882 -0.00297586 0)
(1.80037 -0.00258323 -9.98959e-21)
(1.81157 -0.00222928 -9.87608e-21)
(1.82185 -0.00191084 9.76328e-21)
(1.83128 -0.0016248 0)
(1.83992 -0.00136812 -9.53977e-21)
(1.84782 -0.00113837 -9.42904e-21)
(1.85505 -0.000932999 -9.31899e-21)
(1.86164 -0.00074916 0)
(1.86764 -0.000585442 0)
(1.87311 -0.000439756 0)
(1.87806 -0.000309159 -8.88534e-21)
(1.88255 -0.000193878 0)
(1.88661 -9.11634e-05 0)
(1.89027 1.71463e-06 8.56686e-21)
(1.89356 8.18257e-05 0)
(1.8965 0.000156145 0)
(1.89912 0.00022431 8.25408e-21)
(1.90145 0.000283555 0)
(1.90349 0.000348417 0)
(1.90524 0.000419113 -7.94694e-21)
(1.90673 0.000489966 -7.84581e-21)
(1.90796 0.000561906 0)
(1.90895 0.000631947 7.6454e-21)
(1.90972 0.000691066 0)
(1.91028 0.000742043 -7.44746e-21)
(1.91065 0.000790559 0)
(1.91084 0.000834935 -7.25195e-21)
(1.91086 0.000871469 -7.1551e-21)
(1.91073 0.000896981 0)
(1.91048 0.000909456 0)
(1.91011 0.000909492 0)
(1.90965 0.000900112 0)
(1.90912 0.000885144 0)
(1.90853 0.00086789 0)
(1.90789 0.000850424 0)
(1.90719 0.000833704 -6.40164e-21)
(1.90644 0.000817912 6.31008e-21)
(1.90564 0.000802998 0)
(1.90479 0.000788855 0)
(1.9039 0.000775492 0)
(1.90297 0.000762914 0)
(1.902 0.000751177 1.17215e-20)
(1.90098 0.000740274 0)
(1.89994 0.000730219 -1.13699e-20)
(1.89885 0.000720964 1.11957e-20)
(1.89774 0.000712496 0)
(1.89659 0.000704763 0)
(1.89541 0.000697743 0)
(1.89421 0.00069138 -1.05096e-20)
(1.89297 0.000685645 -1.03406e-20)
(1.89171 0.00068048 0)
(1.89042 0.000675855 -1.00059e-20)
(1.88911 0.00067174 -9.83999e-21)
(1.88777 0.000668124 9.6751e-21)
(1.8864 0.000665001 0)
(1.88501 0.000662363 0)
(1.8836 0.000660195 9.18633e-21)
(1.88216 0.000658487 0)
(1.8807 0.000657246 0)
(1.87921 0.000656496 0)
(1.87769 0.000656277 0)
(1.87615 0.000656639 -8.39079e-21)
(1.87458 0.000657654 -8.23446e-21)
(1.87299 0.000659412 0)
(1.87136 0.000662048 -7.9245e-21)
(1.8697 0.000665707 0)
(1.868 0.000670633 0)
(1.86626 0.000677004 -7.46613e-21)
(1.86447 0.000685323 0)
(1.86264 0.000695678 -7.16481e-21)
(1.86074 0.000709322 0)
(1.85877 0.000725663 0)
(1.85671 0.000748014 -6.71894e-21)
(1.85455 0.000773643 0)
(1.85228 0.000810082 -6.42558e-21)
(1.84981 0.000851704 0)
(1.84723 0.00090914 0)
(1.84425 0.000982703 0)
(1.84122 0.00106774 5.84742e-21)
(1.83738 0.00120979 0)
(1.83364 0.00132666 -5.56206e-21)
(1.82831 0.001623 0)
(1.8233 0.00175525 0)
(1.81539 0.00244686 0)
(1.80773 0.00246993 0)
(1.79559 0.00428862 0)
(1.78085 0.00369852 0)
(1.76269 0.00912701 0)
(1.72465 0.0061223 8.84495e-21)
(1.70146 0.0261449 0)
(1.57164 0.0199112 0)
(-0.0227533 0.123054 2.03771e-20)
(-0.0966292 0.153956 -2.02298e-20)
(-0.168604 0.157677 0)
(-0.241767 0.164319 1.32914e-20)
(-0.315594 0.172023 0)
(-0.390204 0.18048 6.54917e-21)
(-0.465523 0.189138 -1.30114e-20)
(-0.541591 0.197647 -1.29219e-20)
(-0.618407 0.205748 0)
(-0.696021 0.213279 -1.27484e-20)
(-0.774423 0.220117 -6.32797e-21)
(-0.853596 0.226154 0)
(-0.933465 0.231278 0)
(-1.01391 0.235364 0)
(-1.09474 0.238286 0)
(-1.17572 0.239921 -6.12867e-21)
(-1.2566 0.240144 0)
(-1.33708 0.238801 1.2126e-20)
(-1.41676 0.235727 0)
(-1.49514 0.230757 0)
(-1.57166 0.223733 -1.19118e-20)
(-1.64563 0.214508 0)
(-1.71631 0.202955 1.17668e-20)
(-1.78288 0.188986 -5.83115e-21)
(-1.84443 0.172553 5.79118e-21)
(-1.90005 0.153666 -5.74942e-21)
(-1.94877 0.132398 -5.70544e-21)
(-1.98965 0.108897 0)
(-2.02179 0.0833964 0)
(-2.04436 0.0562146 5.55644e-21)
(-2.05667 0.027754 -5.53743e-21)
(-2.05807 -0.00151655 0)
(-2.04783 -0.031109 0)
(-2.02516 -0.0605253 5.30776e-21)
(-1.99008 -0.0892997 0)
(-1.94273 -0.116974 0)
(-1.88345 -0.143117 -5.08442e-21)
(-1.81285 -0.167345 0)
(-1.73169 -0.189331 4.94801e-21)
(-1.64088 -0.208826 -9.68236e-21)
(-1.54146 -0.225654 0)
(-1.43454 -0.239717 0)
(-1.32126 -0.250996 -1.84032e-20)
(-1.20277 -0.259542 -1.80748e-20)
(-1.08024 -0.265469 -1.77529e-20)
(-0.954804 -0.268937 8.72941e-21)
(-0.827447 -0.270127 -8.55861e-21)
(-0.699057 -0.269256 -2.52519e-20)
(-0.570552 -0.266652 1.65553e-20)
(-0.442627 -0.262385 8.13535e-21)
(-0.315987 -0.256872 0)
(-0.191307 -0.250181 -7.87936e-21)
(-0.0690841 -0.242661 7.76651e-21)
(0.0501374 -0.234567 0)
(0.166259 -0.225876 0)
(0.279175 -0.216817 0)
(0.388571 -0.207528 -7.31478e-21)
(0.494296 -0.198127 0)
(0.596254 -0.188709 1.42392e-20)
(0.694393 -0.179355 0)
(0.788694 -0.170129 1.38723e-20)
(0.879167 -0.161085 0)
(0.965849 -0.152262 -1.35296e-20)
(1.04879 -0.143694 0)
(1.12806 -0.135406 1.32072e-20)
(1.20375 -0.127415 -6.52775e-21)
(1.27593 -0.119735 0)
(1.34472 -0.112374 -1.27541e-20)
(1.41021 -0.105335 -6.30359e-21)
(1.47251 -0.0986197 -6.23292e-21)
(1.53172 -0.0922269 0)
(1.58796 -0.0861528 -6.09748e-21)
(1.64134 -0.0803922 -6.0282e-21)
(1.69197 -0.0749383 0)
(1.73995 -0.0697835 5.8968e-21)
(1.7854 -0.064919 -1.16665e-20)
(1.82841 -0.0603355 0)
(1.86909 -0.0560231 -5.70575e-21)
(1.90755 -0.0519716 0)
(1.94388 -0.0481702 1.67466e-20)
(1.97818 -0.0446082 0)
(2.01054 -0.0412746 -1.63813e-20)
(2.04105 -0.0381582 -5.39996e-21)
(2.0698 -0.0352484 5.3414e-21)
(2.09687 -0.0325345 1.05644e-20)
(2.12235 -0.0300062 -1.04468e-20)
(2.14631 -0.0276533 0)
(2.16883 -0.025466 0)
(2.18999 -0.0234347 0)
(2.20985 -0.0215501 2.99517e-20)
(2.22848 -0.0198031 9.86994e-21)
(2.24595 -0.018185 -9.75717e-21)
(2.26232 -0.0166876 0)
(2.27766 -0.0153027 -9.5348e-21)
(2.29201 -0.0140229 9.42305e-21)
(2.30543 -0.012841 9.31304e-21)
(2.31798 -0.0117498 0)
(2.32971 -0.0107431 0)
(2.34066 -0.00981502 0)
(2.35087 -0.00895893 8.8796e-21)
(2.3604 -0.00817032 0)
(2.36928 -0.00744401 -1.73341e-20)
(2.37755 -0.00677362 -2.56845e-20)
(2.38525 -0.0061572 1.69135e-20)
(2.39241 -0.00558809 0)
(2.39907 -0.00506167 8.24919e-21)
(2.40525 -0.00457685 0)
(2.41099 -0.00412403 1.60874e-20)
(2.41634 -0.00370092 -7.9422e-21)
(2.42133 -0.00330984 -7.84112e-21)
(2.42597 -0.00295198 0)
(2.4303 -0.00262538 -2.29218e-20)
(2.43433 -0.00232145 1.50829e-20)
(2.43807 -0.00203885 7.4427e-21)
(2.44155 -0.00177954 0)
(2.44478 -0.00154088 7.24734e-21)
(2.44779 -0.00132395 2.14519e-20)
(2.45058 -0.00113015 0)
(2.45318 -0.0009607 1.39178e-20)
(2.4556 -0.000814874 1.37278e-20)
(2.45785 -0.000689604 1.3539e-20)
(2.45993 -0.000580581 0)
(2.46187 -0.000483332 0)
(2.46367 -0.000394337 0)
(2.46533 -0.000311357 -6.39779e-21)
(2.46685 -0.000233445 -6.30619e-21)
(2.46825 -0.000160343 0)
(2.46952 -9.21792e-05 -1.22499e-20)
(2.47068 -2.89909e-05 -1.20704e-20)
(2.47173 2.92287e-05 0)
(2.47268 8.27072e-05 -1.17145e-20)
(2.47353 0.000131676 -2.30767e-20)
(2.47429 0.000176493 1.13631e-20)
(2.47497 0.000217441 1.11892e-20)
(2.47557 0.000254885 0)
(2.4761 0.000289092 0)
(2.47657 0.000320391 0)
(2.47697 0.000349026 1.05035e-20)
(2.47731 0.000375273 -1.03348e-20)
(2.4776 0.000399342 -2.03339e-20)
(2.47785 0.00042146 1.00002e-20)
(2.47804 0.000441819 -9.8345e-21)
(2.47819 0.000460615 -9.66966e-21)
(2.47831 0.00047804 0)
(2.47838 0.000494283 0)
(2.47842 0.000509525 9.18132e-21)
(2.47843 0.000523945 0)
(2.47841 0.000537735 0)
(2.47836 0.0005511 -1.7403e-20)
(2.47828 0.00056427 0)
(2.47817 0.000577497 -8.38635e-21)
(2.47804 0.000591069 8.23008e-21)
(2.47788 0.000605318 0)
(2.47769 0.00062065 -7.92039e-21)
(2.47748 0.000637532 0)
(2.47724 0.000656571 0)
(2.47696 0.000678436 7.46229e-21)
(2.47666 0.00070409 -1.46227e-20)
(2.47632 0.000734509 7.16116e-21)
(2.47593 0.000771304 0)
(2.4755 0.000816012 0)
(2.475 0.000871057 -6.71566e-21)
(2.47444 0.000939911 0)
(2.47378 0.00102394 -6.42252e-21)
(2.47302 0.00113544 0)
(2.47212 0.00126334 0)
(2.47105 0.00145501 0)
(2.46974 0.00164486 -5.8446e-21)
(2.46816 0.00199743 0)
(2.46619 0.00226318 5.55941e-21)
(2.46378 0.0029652 0)
(2.46056 0.00328379 0)
(2.45678 0.00481828 -1.02703e-20)
(2.4511 0.00503003 9.98818e-21)
(2.44508 0.0087295 0)
(2.43389 0.0082879 0)
(2.42439 0.0182856 0)
(2.39923 0.0161888 -2.65388e-20)
(2.38625 0.0479862 0)
(2.32645 0.0485069 1.6539e-20)
(-0.0232035 0.265685 1.27859e-23)
(-0.101172 0.322109 2.69813e-20)
(-0.175052 0.323486 0)
(-0.250185 0.328308 -2.65891e-20)
(-0.32471 0.333659 0)
(-0.399143 0.33977 0)
(-0.473367 0.346192 -1.4124e-23)
(-0.547717 0.352777 1.29188e-20)
(-0.62236 0.359381 1.28466e-20)
(-0.697544 0.365833 1.27455e-20)
(-0.773453 0.371955 0)
(-0.850268 0.377556 0)
(-0.928107 0.382416 -1.25194e-20)
(-1.00704 0.386298 -2.48851e-20)
(-1.08705 0.388942 2.47353e-20)
(-1.16804 0.390066 0)
(-1.24985 0.389363 2.44459e-20)
(-1.33221 0.386522 -1.21235e-20)
(-1.41475 0.381225 0)
(-1.49698 0.373149 2.40306e-20)
(-1.5783 0.36197 1.19092e-20)
(-1.65795 0.347378 -2.37566e-20)
(-1.73507 0.329097 -1.1764e-20)
(-1.80864 0.306901 0)
(-1.87755 0.280641 2.33237e-20)
(-1.94059 0.250267 2.31665e-20)
(-1.99651 0.215846 0)
(-2.04404 0.177579 2.28208e-20)
(-2.08198 0.135812 0)
(-2.10922 0.091027 2.24212e-20)
(-2.1248 0.0438217 1.10355e-20)
(-2.12787 -0.00508842 0)
(-2.11774 -0.0548897 0)
(-2.09403 -0.104675 0)
(-2.0568 -0.153498 0)
(-2.00635 -0.200473 0)
(-1.94319 -0.244801 0)
(-1.86806 -0.285789 2.01604e-20)
(-1.7819 -0.322872 -2.96904e-20)
(-1.68579 -0.35562 0)
(-1.58093 -0.383745 0)
(-1.4686 -0.407099 0)
(-1.35009 -0.425665 -5.30586e-23)
(-1.22668 -0.439558 1.80687e-20)
(-1.09964 -0.449016 3.55342e-20)
(-0.970119 -0.454331 -3.49014e-20)
(-0.83918 -0.455824 -1.71588e-20)
(-0.707782 -0.453926 1.68344e-20)
(-0.576795 -0.449045 2.25273e-23)
(-0.446951 -0.441603 1.62968e-20)
(-0.318794 -0.432053 0)
(-0.193005 -0.420695 1.57785e-20)
(-0.070218 -0.407963 1.41378e-23)
(0.0493087 -0.394246 0)
(0.165483 -0.379686 0)
(0.2782 -0.364589 -1.48518e-20)
(0.387211 -0.349168 0)
(0.492416 -0.333608 0)
(0.593759 -0.318063 1.42528e-20)
(0.691224 -0.302657 2.8115e-20)
(0.784824 -0.287494 -1.38699e-20)
(0.874598 -0.272653 0)
(0.960605 -0.258199 1.35276e-20)
(1.04292 -0.244181 0)
(1.12162 -0.230634 1.32167e-20)
(1.19682 -0.217583 1.30508e-20)
(1.26861 -0.205046 -2.58101e-20)
(1.33709 -0.193031 -1.27621e-20)
(1.40238 -0.181543 0)
(1.46459 -0.170579 2.49424e-20)
(1.52383 -0.160136 0)
(1.58021 -0.150203 3.65827e-20)
(1.63384 -0.140772 2.41219e-20)
(1.68483 -0.131828 2.38568e-20)
(1.73329 -0.123358 -2.35953e-20)
(1.77932 -0.115347 3.50028e-20)
(1.82302 -0.107777 0)
(1.86449 -0.100634 0)
(1.90383 -0.0938996 -2.25801e-20)
(1.94112 -0.0875571 -3.34971e-20)
(1.97645 -0.0815896 0)
(2.00992 -0.0759801 1.09207e-20)
(2.0416 -0.0707122 0)
(2.07158 -0.0657694 -3.20471e-20)
(2.09992 -0.0611355 3.09903e-24)
(2.12671 -0.0567947 -2.88871e-24)
(2.15202 -0.0527318 2.06603e-20)
(2.17591 -0.0489317 0)
(2.19846 -0.0453802 -2.01983e-20)
(2.21971 -0.0420633 2.17012e-24)
(2.23975 -0.0389676 0)
(2.25862 -0.0360804 0)
(2.27638 -0.0333892 0)
(2.2931 -0.0308823 1.90677e-20)
(2.30881 -0.0285485 0)
(2.32358 -0.0263772 0)
(2.33744 -0.0243577 0)
(2.35045 -0.022481 0)
(2.36266 -0.0207374 0)
(2.3741 -0.0191182 1.77601e-20)
(2.38482 -0.0176156 0)
(2.39485 -0.0162212 1.73333e-20)
(2.40424 -0.014928 1.71224e-20)
(2.41302 -0.0137286 -1.69127e-20)
(2.42122 -0.0126167 0)
(2.42888 -0.0115857 -1.64971e-20)
(2.43603 -0.0106292 0)
(2.4427 -0.0097452 -1.60866e-20)
(2.44891 -0.00892862 1.58833e-20)
(2.4547 -0.00817367 4.70444e-20)
(2.4601 -0.00747598 0)
(2.46512 -0.00683123 4.58426e-20)
(2.46981 -0.00623085 1.5083e-20)
(2.47417 -0.00567079 0)
(2.47824 -0.00515446 2.93787e-20)
(2.48204 -0.00468318 2.89891e-20)
(2.48557 -0.0042537 -4.29025e-20)
(2.48886 -0.00386543 0)
(2.49191 -0.00351884 -1.39171e-20)
(2.49475 -0.003211 -1.37271e-20)
(2.49738 -0.00293614 -4.06154e-20)
(2.49981 -0.00268702 0)
(2.50207 -0.00245667 0)
(2.50415 -0.00223996 0)
(2.50608 -0.00203418 -1.27951e-20)
(2.50786 -0.00183861 0)
(2.5095 -0.00165364 0)
(2.51102 -0.00147997 1.22493e-20)
(2.51242 -0.00131807 1.20697e-20)
(2.51371 -0.00116802 0)
(2.51489 -0.00102954 0)
(2.51598 -0.000902116 2.30755e-20)
(2.51699 -0.000785061 0)
(2.51791 -0.000677684 -2.23771e-20)
(2.51875 -0.000579256 -2.20313e-20)
(2.51953 -0.000489099 0)
(2.52024 -0.000406535 0)
(2.52089 -0.000330952 2.10061e-20)
(2.52148 -0.000261762 -1.22619e-25)
(2.52203 -0.000198425 -1.12892e-25)
(2.52252 -0.000140422 0)
(2.52297 -8.72659e-05 3.93359e-20)
(2.52338 -3.84937e-05 0)
(2.52376 6.33464e-06 0)
(2.5241 4.76355e-05 0)
(2.5244 8.58144e-05 -1.83616e-20)
(2.52468 0.000121272 0)
(2.52493 0.00015442 3.54403e-20)
(2.52515 0.00018568 1.74021e-20)
(2.52535 0.000215497 0)
(2.52552 0.000244349 1.67718e-20)
(2.52567 0.000272748 0)
(2.5258 0.000301284 0)
(2.52591 0.000330603 4.75199e-20)
(2.52599 0.000361526 -3.10658e-20)
(2.52605 0.000394891 0)
(2.52609 0.000431967 -2.98479e-20)
(2.5261 0.000473832 1.46219e-20)
(2.52608 0.000522729 0)
(2.52602 0.000579762 0)
(2.52593 0.000649578 0)
(2.52578 0.000731831 4.02919e-20)
(2.52558 0.000838129 0)
(2.52529 0.000960501 1.28443e-20)
(2.52494 0.00113155 0)
(2.52444 0.00131585 0)
(2.52383 0.00160509 0)
(2.52298 0.00188289 0)
(2.52198 0.00239724 0)
(2.52051 0.0028086 0)
(2.51888 0.00378336 2.16712e-20)
(2.51633 0.0043617 0)
(2.51364 0.00635167 1.02698e-20)
(2.50907 0.00711155 -2.99661e-20)
(2.50456 0.0115173 0)
(2.49618 0.0125315 0)
(2.48846 0.0233796 1.82835e-20)
(2.47326 0.0259423 1.76968e-20)
(2.46103 0.0558256 -1.71451e-20)
(2.43968 0.0680167 -1.6537e-20)
(-0.02087 0.392979 -4.08204e-20)
(-0.0943309 0.475442 -4.05229e-20)
(-0.163631 0.475131 -2.68311e-20)
(-0.234808 0.478885 -1.3339e-20)
(-0.305642 0.483015 0)
(-0.377096 0.488138 2.62635e-20)
(-0.449055 0.494119 -1.30623e-20)
(-0.521794 0.500865 0)
(-0.595479 0.508023 -1.28448e-20)
(-0.670453 0.515402 0)
(-0.746928 0.522768 2.54028e-20)
(-0.825095 0.529827 0)
(-0.905064 0.536268 1.25173e-20)
(-0.986885 0.541741 2.48808e-20)
(-1.07054 0.54585 -2.47307e-20)
(-1.15595 0.548159 0)
(-1.24294 0.548198 -2.44407e-20)
(-1.33126 0.545459 0)
(-1.42051 0.539409 0)
(-1.51016 0.529505 -2.40242e-20)
(-1.59952 0.515196 0)
(-1.68773 0.495948 -1.17275e-22)
(-1.77376 0.471269 0)
(-1.85642 0.440739 0)
(-1.93437 0.404052 1.49275e-22)
(-2.00617 0.361058 -2.31589e-20)
(-2.0703 0.311808 -2.3161e-20)
(-2.12519 0.25658 -2.28136e-20)
(-2.16938 0.195893 0)
(-2.20152 0.130509 -4.50175e-20)
(-2.22041 0.0614253 0)
(-2.22511 -0.0101662 -2.214e-20)
(-2.21484 -0.0829842 0)
(-2.18925 -0.155601 0)
(-2.14842 -0.226635 2.12867e-20)
(-2.09276 -0.294774 0)
(-2.023 -0.358825 -2.06353e-20)
(-1.94014 -0.417768 1.39304e-22)
(-1.84541 -0.470778 3.97555e-20)
(-1.74018 -0.517244 -3.9171e-20)
(-1.62593 -0.556775 0)
(-1.50421 -0.58921 0)
(-1.37656 -0.614591 -1.85993e-20)
(-1.24447 -0.63314 0)
(-1.10938 -0.64524 -1.77813e-20)
(-0.972543 -0.651393 1.74627e-20)
(-0.835075 -0.65217 1.71538e-20)
(-0.697982 -0.648204 0)
(-0.562156 -0.64007 -1.65686e-20)
(-0.428294 -0.628441 -1.62928e-20)
(-0.296908 -0.613972 3.21071e-20)
(-0.168585 -0.597118 -1.57751e-20)
(-0.0439293 -0.578435 -1.55318e-20)
(0.0769426 -0.55853 0)
(0.194078 -0.537579 0)
(0.307286 -0.515988 1.48475e-20)
(0.416446 -0.494047 0)
(0.521512 -0.472001 0)
(0.62248 -0.450051 -2.84818e-20)
(0.719379 -0.428362 -2.8108e-20)
(0.812261 -0.407063 0)
(0.901198 -0.38626 0)
(0.986277 -0.366033 0)
(1.06759 -0.346442 0)
(1.14526 -0.32753 -2.64171e-20)
(1.21938 -0.309327 2.61226e-20)
(1.29007 -0.291851 2.58057e-20)
(1.35745 -0.275112 5.10345e-20)
(1.42164 -0.25911 0)
(1.48276 -0.24384 1.16438e-23)
(1.54093 -0.229293 0)
(1.59626 -0.215455 -2.43879e-20)
(1.64887 -0.202308 9.58076e-24)