/*--------------------------------*- C++ -*----------------------------------*\
  =========                 |
  \\      /  F ield         | OpenFOAM: The Open Source CFD Toolbox
   \\    /   O peration     | Website:  https://openfoam.org
    \\  /    A nd           | Version:  7
     \\/     M anipulation  |
\*---------------------------------------------------------------------------*/
FoamFile
{
    version     2.0;
    format      ascii;
    class       volSymmTensorField;
    location    "0.016";
    object      UPrime2Mean;
}
// * * * * * * * * * * * * * * * * * * * * * * * * * * * * * * * * * * * * * //

dimensions      [0 2 -2 0 0 0 0];

internalField   nonuniform List<symmTensor> 
12225
(
(0.00700685 -0.000726771 0 0.000711345 0 0)
(0.114631 -0.00504525 0 0.00053721 0 0)
(0.167284 -0.00722543 0 0.000623712 0 0)
(0.219573 -0.00859764 0 0.00063061 0 0)
(0.306109 -0.0102136 0 0.000606869 0 0)
(0.426117 -0.0119578 0 0.000566868 0 0)
(0.571289 -0.0133679 0 0.00053216 0 0)
(0.7344 -0.0135015 0 0.000404642 0 0)
(0.905135 -0.0142188 0 0.000374192 0 0)
(1.08342 -0.0110798 0 0.000217309 0 0)
(1.26032 -0.0151154 0 0.000275698 0 0)
(1.44266 -0.00564702 0 0.000159323 0 0)
(1.64273 -0.0251262 0 0.000598127 0 0)
(1.84927 0.00675719 0 0.000731667 0 0)
(2.16521 -0.0716654 0 0.00432717 0 0)
(2.5226 0.0538753 0 0.0067711 0 0)
(3.29697 -0.318935 0 0.0571063 0 0)
(4.79239 0.158831 0 0.0315586 0 0)
(0.00735216 -0.000761338 0 0.00062732 0 0)
(0.0772892 -0.00303476 0 0.000395657 0 0)
(0.0848451 -0.00450905 0 0.000719636 0 0)
(0.0864836 -0.00515579 0 0.00102842 0 0)
(0.100698 -0.00641308 0 0.00134481 0 0)
(0.123931 -0.00855948 0 0.00168166 0 0)
(0.155511 -0.0111845 0 0.00192489 0 0)
(0.19786 -0.0143278 0 0.00219868 0 0)
(0.24796 -0.0167251 0 0.00211012 0 0)
(0.315252 -0.0206709 0 0.00231767 0 0)
(0.385777 -0.0215871 0 0.00189717 0 0)
(0.489535 -0.0295321 0 0.00250036 0 0)
(0.583679 -0.0278121 0 0.00195029 0 0)
(0.758437 -0.0512725 0 0.00437876 0 0)
(0.892742 -0.0454491 0 0.00393869 0 0)
(1.26532 -0.130227 0 0.0174353 0 0)
(1.5054 -0.154258 0 0.0187139 0 0)
(2.39575 -0.591458 0 0.176808 0 0)
(0.00578477 -0.000670481 0 0.000916481 0 0)
(0.0753687 -0.00449103 0 0.000761302 0 0)
(0.0801852 -0.00598802 0 0.00132327 0 0)
(0.0770463 -0.00605676 0 0.00186871 0 0)
(0.0826754 -0.00646405 0 0.00237638 0 0)
(0.0914679 -0.00754781 0 0.00284735 0 0)
(0.102165 -0.00906286 0 0.00339454 0 0)
(0.115255 -0.0107017 0 0.00360651 0 0)
(0.132083 -0.0129772 0 0.00406405 0 0)
(0.153518 -0.0148234 0 0.00389008 0 0)
(0.183202 -0.0193974 0 0.00453463 0 0)
(0.22096 -0.0218691 0 0.00416919 0 0)
(0.275917 -0.0336941 0 0.00629486 0 0)
(0.346666 -0.0380916 0 0.00590429 0 0)
(0.457161 -0.0764571 0 0.0153991 0 0)
(0.604541 -0.0954418 0 0.0167435 0 0)
(0.828231 -0.240977 0 0.0759196 0 0)
(1.10291 -0.425563 0 0.174531 0 0)
(0.00687424 -0.00139078 0 0.00128175 0 0)
(0.0766538 -0.00516225 0 0.00105066 0 0)
(0.0812971 -0.00648885 0 0.00155451 0 0)
(0.0782343 -0.00669798 0 0.00215364 0 0)
(0.083377 -0.00719637 0 0.00269141 0 0)
(0.0910002 -0.00832652 0 0.00323813 0 0)
(0.0997335 -0.00983886 0 0.00374663 0 0)
(0.110068 -0.0116144 0 0.00432337 0 0)
(0.122619 -0.0135754 0 0.00467611 0 0)
(0.139245 -0.016492 0 0.0053028 0 0)
(0.160898 -0.0200723 0 0.00572788 0 0)
(0.19109 -0.0266736 0 0.00709365 0 0)
(0.231251 -0.035058 0 0.00849957 0 0)
(0.289254 -0.0524235 0 0.0128653 0 0)
(0.368216 -0.0777122 0 0.0194765 0 0)
(0.479194 -0.131193 0 0.0394552 0 0)
(0.622778 -0.229065 0 0.0871569 0 0)
(0.755041 -0.385744 0 0.202272 0 0)
(0.0071962 -0.00117226 0 0.00162848 0 0)
(0.0746443 -0.00606764 0 0.00146022 0 0)
(0.0782439 -0.00733929 0 0.00201257 0 0)
(0.0754583 -0.00757281 0 0.00278871 0 0)
(0.0809467 -0.00818043 0 0.00348467 0 0)
(0.0886872 -0.00951506 0 0.00412045 0 0)
(0.0974396 -0.0113868 0 0.00485332 0 0)
(0.1076 -0.0136042 0 0.00550509 0 0)
(0.1199 -0.0164428 0 0.00638296 0 0)
(0.135498 -0.0198731 0 0.00716709 0 0)
(0.155983 -0.025299 0 0.00857806 0 0)
(0.183135 -0.0324576 0 0.0102555 0 0)
(0.219624 -0.0448789 0 0.013885 0 0)
(0.268727 -0.0626701 0 0.0192515 0 0)
(0.33419 -0.0950954 0 0.0318454 0 0)
(0.416875 -0.146883 0 0.056316 0 0)
(0.510578 -0.234024 0 0.111106 0 0)
(0.577698 -0.366463 0 0.242391 0 0)
(0.00567144 -0.0016843 0 0.00156456 0 0)
(0.073274 -0.00696885 0 0.00179583 0 0)
(0.0763796 -0.00796723 0 0.00251086 0 0)
(0.0734503 -0.00807974 0 0.00347211 0 0)
(0.0787762 -0.00873601 0 0.00432023 0 0)
(0.0862538 -0.0102285 0 0.00510307 0 0)
(0.0946972 -0.0123708 0 0.00593105 0 0)
(0.104496 -0.0150388 0 0.00688164 0 0)
(0.11623 -0.0183396 0 0.00794647 0 0)
(0.130862 -0.0226928 0 0.00931383 0 0)
(0.149743 -0.0287918 0 0.0111738 0 0)
(0.174193 -0.0377432 0 0.0141015 0 0)
(0.206309 -0.0512198 0 0.018892 0 0)
(0.247379 -0.0719044 0 0.0272923 0 0)
(0.299542 -0.104691 0 0.0430711 0 0)
(0.358293 -0.154636 0 0.0731409 0 0)
(0.417591 -0.230187 0 0.13328 0 0)
(0.449439 -0.325542 0 0.243533 0 0)
(0.00657837 -0.00165121 0 0.00199454 0 0)
(0.0719288 -0.007876 0 0.00247635 0 0)
(0.0734895 -0.00869967 0 0.00324328 0 0)
(0.0700087 -0.00859472 0 0.00433196 0 0)
(0.0747555 -0.00923444 0 0.0053838 0 0)
(0.0812875 -0.0108016 0 0.00636046 0 0)
(0.0885548 -0.0130496 0 0.00742229 0 0)
(0.0970592 -0.0158784 0 0.00863852 0 0)
(0.107401 -0.0195076 0 0.0101497 0 0)
(0.120399 -0.0243478 0 0.012099 0 0)
(0.137064 -0.0312044 0 0.0148203 0 0)
(0.158237 -0.041081 0 0.018947 0 0)
(0.185043 -0.0555451 0 0.0254871 0 0)
(0.217635 -0.0769313 0 0.0365627 0 0)
(0.256072 -0.108303 0 0.0555287 0 0)
(0.295062 -0.153339 0 0.0898054 0 0)
(0.328822 -0.213043 0 0.147932 0 0)
(0.338208 -0.28144 0 0.245469 0 0)
(0.00485714 -0.00161402 0 0.00227634 0 0)
(0.0696837 -0.00856777 0 0.00277738 0 0)
(0.0712604 -0.00912054 0 0.00383075 0 0)
(0.0679352 -0.00878263 0 0.00510406 0 0)
(0.0724656 -0.0094181 0 0.00638334 0 0)
(0.0783159 -0.0110305 0 0.00759991 0 0)
(0.0845955 -0.0133176 0 0.00888743 0 0)
(0.0919592 -0.0162614 0 0.0104233 0 0)
(0.10098 -0.0201327 0 0.0123903 0 0)
(0.112235 -0.0253634 0 0.01501 0 0)
(0.126362 -0.0326551 0 0.0186529 0 0)
(0.143773 -0.0429282 0 0.02404 0 0)
(0.16491 -0.0575068 0 0.0322991 0 0)
(0.189206 -0.0780711 0 0.0455512 0 0)
(0.215638 -0.106542 0 0.06696 0 0)
(0.23932 -0.144229 0 0.10229 0 0)
(0.255602 -0.189939 0 0.157444 0 0)
(0.252812 -0.237408 0 0.241415 0 0)
(0.00726734 -0.00205071 0 0.00243443 0 0)
(0.0706392 -0.00983812 0 0.0034295 0 0)
(0.0704161 -0.0102545 0 0.0046386 0 0)
(0.0663402 -0.00949959 0 0.00603964 0 0)
(0.0704543 -0.009965 0 0.00748698 0 0)
(0.0758045 -0.0116146 0 0.00891047 0 0)
(0.0814488 -0.01406 0 0.0104871 0 0)
(0.0879653 -0.0172296 0 0.0124413 0 0)
(0.0957322 -0.0213428 0 0.0149704 0 0)
(0.1051 -0.0267948 0 0.018348 0 0)
(0.116447 -0.034197 0 0.0229672 0 0)
(0.12989 -0.0443196 0 0.0296162 0 0)
(0.145418 -0.0581338 0 0.0394053 0 0)
(0.162067 -0.0767249 0 0.054403 0 0)
(0.17854 -0.10099 0 0.0772117 0 0)
(0.19079 -0.130854 0 0.112272 0 0)
(0.195958 -0.164241 0 0.163019 0 0)
(0.18686 -0.195462 0 0.234178 0 0)
(0.00573472 -0.00188554 0 0.00284895 0 0)
(0.0693423 -0.0104933 0 0.00394416 0 0)
(0.0691729 -0.0107181 0 0.00540243 0 0)
(0.0651514 -0.00974068 0 0.00700551 0 0)
(0.0691245 -0.0101952 0 0.00872031 0 0)
(0.0740601 -0.011991 0 0.0104763 0 0)
(0.0790386 -0.0145877 0 0.0123993 0 0)
(0.0846187 -0.0178454 0 0.0147339 0 0)
(0.091109 -0.021989 0 0.0177423 0 0)
(0.0987104 -0.0274042 0 0.0217627 0 0)
(0.107591 -0.0346146 0 0.0272239 0 0)
(0.117602 -0.0441904 0 0.0349228 0 0)
(0.128453 -0.0567805 0 0.0459037 0 0)
(0.139045 -0.072902 0 0.0619885 0 0)
(0.148222 -0.0927862 0 0.0851762 0 0)
(0.152875 -0.115563 0 0.118674 0 0)
(0.151681 -0.139136 0 0.164136 0 0)
(0.14002 -0.158778 0 0.224159 0 0)
(0.00774151 -0.00234304 0 0.00317989 0 0)
(0.0711529 -0.0119698 0 0.0044684 0 0)
(0.0695293 -0.0124657 0 0.00599179 0 0)
(0.0644648 -0.0112993 0 0.00773445 0 0)
(0.0678277 -0.0116405 0 0.0096114 0 0)
(0.0723549 -0.0134441 0 0.011588 0 0)
(0.0768933 -0.0161166 0 0.0138209 0 0)
(0.0818399 -0.0194609 0 0.0165727 0 0)
(0.0874077 -0.0236413 0 0.0201065 0 0)
(0.0936914 -0.0289808 0 0.0247654 0 0)
(0.100679 -0.0358889 0 0.0309804 0 0)
(0.10805 -0.0447489 0 0.0395013 0 0)
(0.115357 -0.0559264 0 0.0512587 0 0)
(0.121572 -0.0695441 0 0.0677879 0 0)
(0.125741 -0.0853736 0 0.0905287 0 0)
(0.125683 -0.102215 0 0.121645 0 0)
(0.120998 -0.118172 0 0.161631 0 0)
(0.108794 -0.12966 0 0.211829 0 0)
(0.0055025 -0.00226021 0 0.00360006 0 0)
(0.0687352 -0.0118526 0 0.00507725 0 0)
(0.0673477 -0.0123078 0 0.00669487 0 0)
(0.0622686 -0.0109309 0 0.00862066 0 0)
(0.0652643 -0.0111344 0 0.0107449 0 0)
(0.06916 -0.0128943 0 0.0130857 0 0)
(0.0729072 -0.0155038 0 0.0157433 0 0)
(0.076915 -0.0186838 0 0.0189246 0 0)
(0.0813299 -0.022563 0 0.0229034 0 0)
(0.086163 -0.0274383 0 0.028048 0 0)
(0.0913132 -0.0336544 0 0.0347909 0 0)
(0.0963984 -0.0414485 0 0.0438285 0 0)
(0.100928 -0.0509646 0 0.0559444 0 0)
(0.104003 -0.0620153 0 0.072376 0 0)
(0.104931 -0.0741254 0 0.0940652 0 0)
(0.102233 -0.0859957 0 0.122469 0 0)
(0.0961109 -0.0961146 0 0.157395 0 0)
(0.084584 -0.101685 0 0.199652 0 0)
(0.00644577 -0.00307122 0 0.00391205 0 0)
(0.0699011 -0.0131605 0 0.00556894 0 0)
(0.0679866 -0.0134352 0 0.00728999 0 0)
(0.0624227 -0.0118265 0 0.00932973 0 0)
(0.0648465 -0.0118769 0 0.011572 0 0)
(0.0680365 -0.0135129 0 0.0140891 0 0)
(0.0709709 -0.0159735 0 0.0170028 0 0)
(0.0740582 -0.0189383 0 0.0205114 0 0)
(0.0774025 -0.0224954 0 0.0248809 0 0)
(0.0809397 -0.0268829 0 0.030466 0 0)
(0.0844995 -0.0323576 0 0.0376566 0 0)
(0.0877055 -0.0390313 0 0.0470413 0 0)
(0.0901064 -0.046889 0 0.0592113 0 0)
(0.0910165 -0.0555934 0 0.0750953 0 0)
(0.0899466 -0.0645705 0 0.0952455 0 0)
(0.0859805 -0.0726359 0 0.120648 0 0)
(0.0795469 -0.0785945 0 0.150755 0 0)
(0.0693383 -0.0803833 0 0.186095 0 0)
(0.00594464 -0.00275454 0 0.00406369 0 0)
(0.0682795 -0.012958 0 0.00624044 0 0)
(0.0659774 -0.0131384 0 0.0084289 0 0)
(0.0602926 -0.0112559 0 0.0107578 0 0)
(0.062422 -0.0110355 0 0.0132409 0 0)
(0.0650748 -0.0124763 0 0.0160382 0 0)
(0.067264 -0.0147566 0 0.0193046 0 0)
(0.0693881 -0.0174336 0 0.0232264 0 0)
(0.071519 -0.0204996 0 0.0280348 0 0)
(0.0735964 -0.0241285 0 0.0340302 0 0)
(0.075477 -0.0285136 0 0.0415416 0 0)
(0.0768516 -0.0336622 0 0.0510338 0 0)
(0.0773309 -0.0394155 0 0.0629265 0 0)
(0.0764235 -0.0453181 0 0.077872 0 0)
(0.0738548 -0.0507789 0 0.0960944 0 0)
(0.0691897 -0.0548047 0 0.118171 0 0)
(0.0630277 -0.0565692 0 0.143294 0 0)
(0.0545349 -0.0546682 0 0.171846 0 0)
(0.00705862 -0.00245718 0 0.00428602 0 0)
(0.0683459 -0.0141237 0 0.00677402 0 0)
(0.0653435 -0.0145746 0 0.00934294 0 0)
(0.0590239 -0.0125664 0 0.0119318 0 0)
(0.0606298 -0.0121782 0 0.0145608 0 0)
(0.0626988 -0.0134271 0 0.0174748 0 0)
(0.0641259 -0.0154269 0 0.0209065 0 0)
(0.0652451 -0.0176694 0 0.0250376 0 0)
(0.0661379 -0.0200742 0 0.0300415 0 0)
(0.0667872 -0.022732 0 0.0361499 0 0)
(0.0670936 -0.0257326 0 0.0435963 0 0)
(0.0668339 -0.028986 0 0.0526968 0 0)
(0.0657575 -0.0322916 0 0.0636619 0 0)
(0.0636147 -0.0352067 0 0.0768657 0 0)
(0.0603663 -0.0373056 0 0.0922813 0 0)
(0.0559016 -0.0378253 0 0.110241 0 0)
(0.0508871 -0.0363931 0 0.129956 0 0)
(0.0447174 -0.0320035 0 0.151791 0 0)
(0.00663329 -0.00215637 0 0.00449025 0 0)
(0.0673287 -0.0141547 0 0.00721253 0 0)
(0.0633629 -0.0146154 0 0.00993665 0 0)
(0.0564165 -0.012188 0 0.0126865 0 0)
(0.0574349 -0.0113227 0 0.0154535 0 0)
(0.0588482 -0.01218 0 0.0184711 0 0)
(0.0596345 -0.0137808 0 0.0219983 0 0)
(0.0601286 -0.0154952 0 0.0262061 0 0)
(0.0603205 -0.0171645 0 0.0312157 0 0)
(0.0601257 -0.0188215 0 0.0371776 0 0)
(0.0594713 -0.0205013 0 0.0442319 0 0)
(0.0582575 -0.0220757 0 0.05257 0 0)
(0.0564022 -0.0233534 0 0.0622781 0 0)
(0.0538832 -0.0239638 0 0.0735655 0 0)
(0.0508146 -0.0236569 0 0.0862702 0 0)
(0.0472818 -0.021899 0 0.100538 0 0)
(0.0438406 -0.0186335 0 0.115611 0 0)
(0.0400122 -0.0131258 0 0.131768 0 0)
(0.00849663 -0.00257848 0 0.00486258 0 0)
(0.0696818 -0.0146705 0 0.00719768 0 0)
(0.0646158 -0.0152982 0 0.00993916 0 0)
(0.0565451 -0.0128896 0 0.012899 0 0)
(0.0565829 -0.011937 0 0.0159058 0 0)
(0.0571056 -0.0125809 0 0.0191579 0 0)
(0.0570542 -0.0137837 0 0.0228032 0 0)
(0.0567394 -0.014881 0 0.0269126 0 0)
(0.0561357 -0.0156893 0 0.0315458 0 0)
(0.055172 -0.0162344 0 0.0367986 0 0)
(0.0538313 -0.0165683 0 0.0427693 0 0)
(0.0521309 -0.016625 0 0.0496027 0 0)
(0.0500908 -0.01628 0 0.0573346 0 0)
(0.0478026 -0.0152719 0 0.0660585 0 0)
(0.0453917 -0.0134392 0 0.0755524 0 0)
(0.0430213 -0.0104484 0 0.0858851 0 0)
(0.0411022 -0.00635332 0 0.096433 0 0)
(0.0392811 -0.000701405 0 0.107495 0 0)
(0.0068013 -0.00218957 0 0.00473317 0 0)
(0.0661605 -0.0144881 0 0.00717932 0 0)
(0.0614548 -0.0151267 0 0.00933523 0 0)
(0.0536284 -0.0126051 0 0.0119568 0 0)
(0.0532377 -0.0114148 0 0.0147903 0 0)
(0.0528436 -0.0115295 0 0.0178032 0 0)
(0.0518075 -0.0119316 0 0.0210713 0 0)
(0.0507121 -0.0120463 0 0.0246454 0 0)
(0.0495987 -0.0117662 0 0.0285673 0 0)
(0.0483847 -0.0111734 0 0.0329004 0 0)
(0.0470516 -0.0103334 0 0.0377045 0 0)
(0.0456351 -0.00918816 0 0.0430562 0 0)
(0.0441727 -0.00762192 0 0.0489238 0 0)
(0.0427917 -0.0054614 0 0.0553096 0 0)
(0.0416071 -0.00263032 0 0.0619716 0 0)
(0.0407902 0.00101758 0 0.0689182 0 0)
(0.0405927 0.00538933 0 0.0756769 0 0)
(0.040768 0.010675 0 0.0824914 0 0)
(0.00664325 -0.00211486 0 0.00439244 0 0)
(0.066589 -0.0140713 0 0.00627038 0 0)
(0.0605664 -0.0138756 0 0.00819854 0 0)
(0.0517893 -0.0107676 0 0.0104564 0 0)
(0.0507978 -0.00885655 0 0.0127292 0 0)
(0.0498218 -0.00813065 0 0.0150644 0 0)
(0.0483128 -0.00768464 0 0.0175599 0 0)
(0.046929 -0.00698276 0 0.0202549 0 0)
(0.0457496 -0.00588558 0 0.0231613 0 0)
(0.0447209 -0.00443771 0 0.0262938 0 0)
(0.0438327 -0.00270503 0 0.0296565 0 0)
(0.0431227 -0.000676168 0 0.0332589 0 0)
(0.0426466 0.0016948 0 0.0370526 0 0)
(0.0425426 0.00449879 0 0.0410165 0 0)
(0.0429114 0.00774548 0 0.0450002 0 0)
(0.0438928 0.0115081 0 0.0490186 0 0)
(0.045613 0.0156464 0 0.0527914 0 0)
(0.0479065 0.0202823 0 0.0564709 0 0)
(0.00645586 -0.00237915 0 0.00442442 0 0)
(0.0656853 -0.0133596 0 0.00605047 0 0)
(0.0588337 -0.0126608 0 0.00779353 0 0)
(0.0498055 -0.00954379 0 0.00971521 0 0)
(0.0483883 -0.00756146 0 0.0114766 0 0)
(0.0470508 -0.00668284 0 0.0131836 0 0)
(0.0453483 -0.00611042 0 0.0149817 0 0)
(0.043909 -0.00532896 0 0.0169423 0 0)
(0.0427566 -0.00415828 0 0.0190516 0 0)
(0.0418143 -0.00262221 0 0.021262 0 0)
(0.0411023 -0.000808904 0 0.0235225 0 0)
(0.0407012 0.00122474 0 0.0257977 0 0)
(0.0406809 0.00345664 0 0.0280376 0 0)
(0.0411456 0.00591696 0 0.0302457 0 0)
(0.0421597 0.0086015 0 0.032361 0 0)
(0.0438047 0.0115623 0 0.0344601 0 0)
(0.0461471 0.014716 0 0.0364148 0 0)
(0.0490753 0.018172 0 0.0383614 0 0)
(0.00736035 -0.00233624 0 0.00396824 0 0)
(0.0667789 -0.0121196 0 0.00513993 0 0)
(0.0591748 -0.011187 0 0.00620678 0 0)
(0.0494752 -0.00805376 0 0.00741182 0 0)
(0.0475856 -0.0059996 0 0.0085627 0 0)
(0.0459523 -0.00491316 0 0.0097143 0 0)
(0.0441781 -0.00405705 0 0.0109043 0 0)
(0.0428887 -0.00302244 0 0.0121395 0 0)
(0.0420437 -0.00170425 0 0.0134372 0 0)
(0.0415011 -0.000130135 0 0.0148059 0 0)
(0.0412819 0.00164223 0 0.0162224 0 0)
(0.0415009 0.00357531 0 0.017648 0 0)
(0.0422484 0.00565148 0 0.0190244 0 0)
(0.0435926 0.00786612 0 0.0203262 0 0)
(0.0455561 0.0101959 0 0.021496 0 0)
(0.0481506 0.0126439 0 0.0225701 0 0)
(0.0514213 0.0151543 0 0.0234794 0 0)
(0.0552079 0.0177611 0 0.0243182 0 0)
(0.00598781 -0.00164725 0 0.00340144 0 0)
(0.0644992 -0.010166 0 0.00405662 0 0)
(0.0563596 -0.00929769 0 0.0050239 0 0)
(0.0468155 -0.00632593 0 0.00598707 0 0)
(0.0450693 -0.00426182 0 0.00687115 0 0)
(0.043483 -0.00313652 0 0.00777123 0 0)
(0.0418045 -0.0022935 0 0.0087304 0 0)
(0.0407251 -0.00127559 0 0.00972057 0 0)
(0.0402569 6.98654e-05 0 0.0107008 0 0)
(0.0403095 0.00169362 0 0.0116536 0 0)
(0.040893 0.00348939 0 0.0125642 0 0)
(0.0420609 0.00537929 0 0.0134165 0 0)
(0.043858 0.00733105 0 0.0141885 0 0)
(0.0463183 0.00933816 0 0.0148947 0 0)
(0.049456 0.011399 0 0.0155325 0 0)
(0.0532422 0.0135233 0 0.0161507 0 0)
(0.0577191 0.015677 0 0.0166962 0 0)
(0.0627164 0.017884 0 0.0172167 0 0)
(0.00743353 -0.00156891 0 0.00323912 0 0)
(0.0633348 -0.00848264 0 0.00367567 0 0)
(0.0548742 -0.00713782 0 0.00408385 0 0)
(0.0457445 -0.00418657 0 0.00451803 0 0)
(0.0443029 -0.00220872 0 0.00494187 0 0)
(0.042775 -0.00111051 0 0.00534912 0 0)
(0.041139 -0.000294269 0 0.005755 0 0)
(0.0403437 0.000605611 0 0.00619974 0 0)
(0.0404743 0.00172246 0 0.00669816 0 0)
(0.0413718 0.00304043 0 0.0072238 0 0)
(0.0429527 0.0044766 0 0.00772911 0 0)
(0.0451696 0.00595188 0 0.0081779 0 0)
(0.0479681 0.00742353 0 0.00855599 0 0)
(0.0513329 0.00888936 0 0.0088798 0 0)
(0.0552842 0.0103469 0 0.00914615 0 0)
(0.0598476 0.0118165 0 0.00938418 0 0)
(0.0650881 0.0132654 0 0.0095665 0 0)
(0.0709276 0.0147298 0 0.00971814 0 0)
(0.00696724 -0.00199083 0 0.00303006 0 0)
(0.0643005 -0.00836147 0 0.00350353 0 0)
(0.0549704 -0.0066053 0 0.00376287 0 0)
(0.0450597 -0.00370138 0 0.00423873 0 0)
(0.0433712 -0.00176508 0 0.00466511 0 0)
(0.0418613 -0.00073515 0 0.00493577 0 0)
(0.0403676 -6.33279e-05 0 0.00510438 0 0)
(0.0397905 0.000641518 0 0.00527475 0 0)
(0.040176 0.00153518 0 0.00550439 0 0)
(0.0413057 0.00262129 0 0.00578121 0 0)
(0.0430676 0.00383936 0 0.00606318 0 0)
(0.045463 0.00512315 0 0.00631963 0 0)
(0.0485377 0.00642426 0 0.00653271 0 0)
(0.0523339 0.00770875 0 0.00669568 0 0)
(0.0568691 0.00893648 0 0.00678493 0 0)
(0.0620826 0.0100904 0 0.00682351 0 0)
(0.0679838 0.0111383 0 0.00679761 0 0)
(0.07438 0.0121216 0 0.00674204 0 0)
(0.00669827 -0.00186042 0 0.00246165 0 0)
(0.0619053 -0.00690242 0 0.00242915 0 0)
(0.0512853 -0.0048929 0 0.0024478 0 0)
(0.0416806 -0.00231002 0 0.00257442 0 0)
(0.0407988 -0.000649135 0 0.00266496 0 0)
(0.0401849 0.000178062 0 0.00269855 0 0)
(0.0396961 0.000621763 0 0.00276297 0 0)
(0.0401826 0.00106356 0 0.00288301 0 0)
(0.0416019 0.00166532 0 0.00302271 0 0)
(0.0437024 0.00240688 0 0.00314332 0 0)
(0.0464313 0.00319686 0 0.00322409 0 0)
(0.0498767 0.00396401 0 0.00326662 0 0)
(0.0541299 0.00467837 0 0.00327994 0 0)
(0.0592069 0.00533381 0 0.00327455 0 0)
(0.0650779 0.00592886 0 0.00325087 0 0)
(0.0716109 0.00646915 0 0.00322501 0 0)
(0.0787873 0.00694496 0 0.0031892 0 0)
(0.0863738 0.00739613 0 0.00314295 0 0)
(0.00790339 -0.001718 0 0.00192123 0 0)
(0.0619377 -0.00537482 0 0.00154458 0 0)
(0.0499687 -0.00415907 0 0.00167471 0 0)
(0.0404401 -0.00201033 0 0.00197254 0 0)
(0.0398959 -0.000455139 0 0.00208139 0 0)
(0.0394694 0.000359334 0 0.00200626 0 0)
(0.0393277 0.00085419 0 0.0019019 0 0)
(0.0404651 0.00134294 0 0.00186972 0 0)
(0.0427819 0.00192234 0 0.00189392 0 0)
(0.0459278 0.0025674 0 0.00192489 0 0)
(0.0497773 0.00322338 0 0.00193843 0 0)
(0.0543692 0.00384614 0 0.00193353 0 0)
(0.0597513 0.00440656 0 0.00191297 0 0)
(0.0659024 0.00488686 0 0.00187918 0 0)
(0.0727756 0.00527321 0 0.00182826 0 0)
(0.080253 0.00556985 0 0.00176781 0 0)
(0.0883574 0.00576554 0 0.00169613 0 0)
(0.0969018 0.00589567 0 0.00161837 0 0)
(0.00532873 -0.00120255 0 0.00164459 0 0)
(0.0584364 -0.00264009 0 0.000863893 0 0)
(0.0468523 -0.00154125 0 0.000750442 0 0)
(0.0387239 -0.000324702 0 0.000828844 0 0)
(0.0391825 0.000478408 0 0.000819764 0 0)
(0.0394124 0.000776226 0 0.000767632 0 0)
(0.039934 0.000834931 0 0.000729617 0 0)
(0.0418586 0.000864795 0 0.000715729 0 0)
(0.0450327 0.000950155 0 0.000715749 0 0)
(0.0490812 0.00107546 0 0.00071318 0 0)
(0.0539311 0.00119027 0 0.000703164 0 0)
(0.0596685 0.00125285 0 0.000687134 0 0)
(0.066338 0.00124289 0 0.000665604 0 0)
(0.0738706 0.00115252 0 0.000640247 0 0)
(0.0821608 0.000977822 0 0.000612559 0 0)
(0.091032 0.000723829 0 0.000586602 0 0)
(0.100487 0.00038254 0 0.000563145 0 0)
(0.110311 -2.17318e-05 0 0.000539539 0 0)
(0.00723606 -0.00123887 0 0.00133714 0 0)
(0.0578943 -0.00295679 0 0.000648922 0 0)
(0.0444274 -0.00206049 0 0.00069977 0 0)
(0.037025 -0.000546472 0 0.000698519 0 0)
(0.0382877 0.000294548 0 0.000573115 0 0)
(0.0392372 0.000583525 0 0.000461112 0 0)
(0.040784 0.000706074 0 0.000398788 0 0)
(0.0440564 0.000795501 0 0.000360259 0 0)
(0.0487564 0.00084039 0 0.000329073 0 0)
(0.0543771 0.000821288 0 0.000300251 0 0)
(0.0607556 0.000740817 0 0.000273664 0 0)
(0.0679323 0.000605336 0 0.000250834 0 0)
(0.0759103 0.000418215 0 0.000233321 0 0)
(0.0846238 0.000174033 0 0.000222389 0 0)
(0.0939342 -0.000139423 0 0.000218642 0 0)
(0.103718 -0.000540491 0 0.000223273 0 0)
(0.113916 -0.00104613 0 0.000236788 0 0)
(0.124386 -0.00165996 0 0.00025501 0 0)
(0.00556875 -0.000138269 0 0.000791494 0 0)
(0.0551721 0.000598744 0 0.00024751 0 0)
(0.0423589 0.00014984 0 0.000216521 0 0)
(0.0360361 0.000224984 0 0.000228337 0 0)
(0.0380741 8.63e-05 0 0.000260993 0 0)
(0.0398049 -0.000214832 0 0.000290426 0 0)
(0.0420117 -0.000586821 0 0.000309035 0 0)
(0.0455275 -0.000999685 0 0.000333018 0 0)
(0.0498308 -0.00142544 0 0.000366639 0 0)
(0.0543176 -0.00184315 0 0.000402904 0 0)
(0.0587678 -0.00225209 0 0.000440668 0 0)
(0.0632003 -0.00266619 0 0.000482928 0 0)
(0.0675589 -0.00309032 0 0.000528644 0 0)
(0.0718024 -0.00352623 0 0.000576042 0 0)
(0.0757082 -0.003968 0 0.000624774 0 0)
(0.0792413 -0.00442244 0 0.000679291 0 0)
(0.0821398 -0.00488039 0 0.000742348 0 0)
(0.0845224 -0.00535042 0 0.000810393 0 0)
(0.00628542 -0.000477481 0 0.000685821 0 0)
(0.0581208 -0.000247611 0 0.000200334 0 0)
(0.0514805 2.89632e-05 0 0.000133759 0 0)
(0.0500118 0.000327196 0 8.98036e-05 0 0)
(0.0554871 0.000375923 0 6.85528e-05 0 0)
(0.060122 0.00038569 0 6.36883e-05 0 0)
(0.0643666 0.000448343 0 6.35328e-05 0 0)
(0.0693943 0.000545496 0 6.69077e-05 0 0)
(0.0755835 0.000642371 0 7.50125e-05 0 0)
(0.0829634 0.0007315 0 8.67456e-05 0 0)
(0.0914811 0.000826062 0 0.000100706 0 0)
(0.101071 0.000940227 0 0.000116323 0 0)
(0.111772 0.00108274 0 0.000133373 0 0)
(0.123638 0.00125392 0 0.000151336 0 0)
(0.136876 0.00144752 0 0.000169364 0 0)
(0.151349 0.00165094 0 0.000187488 0 0)
(0.167381 0.00185711 0 0.000205496 0 0)
(0.184388 0.00206782 0 0.000222842 0 0)
(0.000240212 -0.000527982 4.76698e-22 0.00116813 -9.99778e-22 5.82825e-37)
(0.00281005 -0.00205957 -1.42257e-21 0.0015191 9.81887e-22 5.74673e-37)
(0.00863486 -0.00363365 0 0.00153619 0 0)
(0.0177112 -0.00525687 0 0.00156467 0 0)
(0.0302037 -0.00695645 0 0.00160401 0 0)
(0.0463043 -0.00874595 5.08309e-21 0.00165305 -9.46967e-22 5.41301e-37)
(0.0661561 -0.010624 0 0.00170982 0 0)
(0.0899402 -0.0125833 0 0.00177073 0 0)
(0.117785 -0.0146062 0 0.001832 0 0)
(0.149816 -0.0166695 0 0.00188957 0 0)
(0.186108 -0.0187443 -9.36953e-21 0.00193989 8.7009e-22 5.01395e-37)
(0.226699 -0.0207979 0 0.0019796 0 0)
(0.271568 -0.0227969 0 0.00200679 0 0)
(0.320628 -0.0247074 0 0.00201989 0 0)
(0.373717 -0.0264901 0 0.00201735 0 0)
(0.430573 -0.0281048 -1.30843e-20 0.00199839 7.36815e-22 4.63446e-37)
(0.490834 -0.029505 0 0.00196117 0 0)
(0.554041 -0.0306409 0 0.00190466 0 0)
(0.619625 -0.0314664 0 0.00182884 0 0)
(0.686906 -0.0319331 0 0.00173283 0 0)
(0.755101 -0.0319985 0 0.00161834 0 0)
(0.823296 -0.0316265 0 0.00148639 0 0)
(0.890502 -0.0307891 0 0.00134053 0 0)
(0.955669 -0.0294765 -1.71917e-20 0.00118457 4.47158e-22 4.06732e-37)
(1.01768 -0.0276882 1.75151e-20 0.00102302 -4.08834e-22 3.99988e-37)
(1.07542 -0.0254458 -1.7794e-20 0.000861467 3.70939e-22 3.9332e-37)
(1.12779 -0.0227868 -1.80286e-20 0.000705323 3.338e-22 3.86729e-37)
(1.17378 -0.0197656 0 0.00056012 0 0)
(1.2125 -0.0164541 0 0.00043116 0 0)
(1.24318 -0.01294 1.84738e-20 0.000321277 -2.29594e-22 3.67415e-37)
(1.26529 -0.00930509 1.85403e-20 0.000233973 -1.98086e-22 3.61129e-37)
(1.2785 -0.00565018 0 0.000169779 0 0)
(1.28273 -0.00205893 0 0.000127955 0 0)
(1.27808 0.00139887 1.85219e-20 0.000107391 -1.15978e-22 3.42731e-37)
(1.26489 0.00464338 0 0.000105308 0 0)
(1.24365 0.00761419 0 0.000119027 0 0)
(1.21504 0.01025 -1.82319e-20 0.000144775 5.39143e-23 3.25016e-37)
(1.17989 0.0125183 0 0.000179119 0 0)
(1.1391 0.0143902 -1.79263e-20 0.000218115 2.37294e-23 3.13583e-37)
(1.09365 0.0158616 -3.54972e-20 0.000258383 2.35668e-23 1.23192e-36)
(1.04452 0.0169378 0 0.000296846 0 0)
(0.992718 0.0176394 0 0.000331097 0 0)
(0.939183 0.0179941 0 0.000359294 0 0)
(0.88475 0.0180349 0 0.000380143 0 0)
(0.830227 0.0178116 0 0.000393535 0 0)
(0.776321 0.0173525 -3.29847e-20 0.000398788 -4.93593e-23 1.10366e-36)
(0.723629 0.0167265 -3.25403e-20 0.000397545 -5.28713e-23 1.08331e-36)
(0.672557 0.0159474 -3.20964e-20 0.000389321 -5.4643e-23 1.06325e-36)
(0.623532 0.0150824 0 0.000376456 0 0)
(0.576877 0.014139 3.12185e-20 0.000358655 5.44828e-23 1.02398e-36)
(0.532692 0.0131554 0 0.000337455 0 0)
(0.491184 0.0121679 -3.03633e-20 0.0003144 -5.07054e-23 9.85845e-37)
(0.452397 0.0111885 -2.99468e-20 0.000289969 -4.79632e-23 9.67198e-37)
(0.416312 0.0102337 0 0.000264999 0 0)
(0.382873 0.00931204 0 0.000239937 0 0)
(0.352003 0.00843616 0 0.000215524 0 0)
(0.323615 0.00761217 -2.8366e-20 0.000192157 -3.44063e-23 8.95355e-37)
(0.297592 0.00684366 0 0.000170127 0 0)
(0.273802 0.00613226 0 0.000149628 0 0)
(0.252107 0.00547806 0 0.000130773 0 0)
(0.232363 0.00487994 0 0.000113606 0 0)
(0.214429 0.00433591 0 9.812e-05 0 0)
(0.198165 0.00384333 0 8.42687e-05 0 0)
(0.183437 0.00339916 0 7.19755e-05 0 0)
(0.170116 0.00300011 0 6.11441e-05 0 0)
(0.158079 0.00264279 2.53098e-20 5.16661e-05 7.3789e-24 7.49125e-37)
(0.147212 0.00232377 0 4.3426e-05 0 0)
(0.137409 0.00203972 0 3.6307e-05 0 0)
(0.12857 0.00178742 -2.44231e-20 3.01938e-05 -1.72553e-24 7.0488e-37)
(0.120603 0.00156383 -2.41396e-20 2.49753e-05 -2.1408e-25 6.90609e-37)
(0.113425 0.00136605 0 2.05464e-05 0 0)
(0.106959 0.00119143 2.35885e-20 1.68092e-05 -2.30129e-24 6.62764e-37)
(0.101136 0.0010375 -2.33205e-20 1.36735e-05 3.32524e-24 6.49185e-37)
(0.0958907 0.00090202 0 1.10578e-05 0 0)
(0.0911664 0.000782913 2.27981e-20 8.88814e-06 -4.95872e-24 6.22701e-37)
(0.0869107 0.000678331 0 7.09903e-06 0 0)
(0.0830764 0.000586589 0 5.63233e-06 0 0)
(0.0796212 0.000506187 -2.2045e-20 4.43722e-06 6.53112e-24 5.84618e-37)
(0.0765069 0.000435769 0 3.46938e-06 0 0)
(0.073699 0.000374144 2.15607e-20 2.69069e-06 -7.11119e-24 5.60291e-37)
(0.0711667 0.000320239 0 2.06836e-06 0 0)
(0.0688824 0.000273119 -2.10888e-20 1.57462e-06 7.40247e-24 5.36789e-37)
(0.0668213 0.000231947 -2.08571e-20 1.18591e-06 7.45958e-24 5.2534e-37)
(0.0649611 0.000196001 -2.06281e-20 8.82526e-07 7.46862e-24 5.14089e-37)
(0.0632819 0.00016463 -4.08033e-20 6.47913e-07 1.48689e-23 2.01213e-36)
(0.061766 0.000137277 4.03551e-20 4.68393e-07 -1.4728e-23 1.96868e-36)
(0.0603974 0.000113435 0 3.32602e-07 0 0)
(0.0591617 9.26814e-05 0 2.31312e-07 0 0)
(0.058046 7.46189e-05 0 1.56926e-07 0 0)
(0.0570388 5.89208e-05 3.86061e-20 1.03364e-07 -1.36427e-23 1.80235e-36)
(0.05613 4.52983e-05 3.81789e-20 6.57451e-08 -1.32864e-23 1.76258e-36)
(0.0553103 3.35172e-05 -3.77554e-20 4.02189e-08 1.29111e-23 1.72352e-36)
(0.0545711 2.33772e-05 0 2.3723e-08 0 0)
(0.053905 1.47533e-05 3.69192e-20 1.3911e-08 -1.21442e-23 1.64749e-36)
(0.0533051 7.51456e-06 3.65062e-20 8.85263e-09 -1.1758e-23 1.61049e-36)
(0.0527652 1.4717e-06 3.60963e-20 6.96921e-09 -1.13763e-23 1.57415e-36)
(0.0522795 -3.5821e-06 0 7.02511e-09 0 0)
(0.0518429 -7.81745e-06 0 8.11283e-09 0 0)
(0.0514509 -1.14463e-05 0 9.68712e-09 0 0)
(0.0510997 -1.46216e-05 3.44878e-20 1.14094e-08 -9.98088e-24 1.43528e-36)
(0.0507857 -1.74833e-05 0 1.31321e-08 0 0)
(0.0505063 -2.02102e-05 0 1.49602e-08 0 0)
(0.0502591 -2.29068e-05 -3.33124e-20 1.69424e-08 9.12119e-24 1.33765e-36)
(0.0500421 -2.5722e-05 0 1.93663e-08 0 0)
(0.0498539 -2.88021e-05 0 2.26993e-08 0 0)
(0.0496934 -3.21414e-05 -3.21622e-20 2.70565e-08 8.43127e-24 1.24533e-36)
(0.0495598 -3.59177e-05 0 3.31362e-08 0 0)
(0.0494537 -4.00894e-05 0 4.1283e-08 0 0)
(0.0493736 -4.42862e-05 3.10366e-20 5.08381e-08 -7.88125e-24 1.15807e-36)
(0.0493179 -4.8239e-05 3.06666e-20 6.10735e-08 -7.69058e-24 1.13007e-36)
(0.0492848 -5.17561e-05 0 7.12699e-08 0 0)
(0.0492725 -5.46683e-05 -2.99342e-20 8.05796e-08 7.2715e-24 1.07565e-36)
(0.0492788 -5.69186e-05 0 8.84305e-08 0 0)
(0.0493018 -5.85999e-05 2.92115e-20 9.47941e-08 -6.7952e-24 1.02328e-36)
(0.0493397 -5.96977e-05 0 9.93868e-08 0 0)
(0.0493906 -6.01761e-05 2.84981e-20 1.01839e-07 -6.28602e-24 9.72888e-37)
(0.0494524 -6.00509e-05 2.81448e-20 1.0203e-07 -6.02518e-24 9.48418e-37)
(0.0495232 -5.93957e-05 0 1.00119e-07 0 0)
(0.0496015 -5.83395e-05 0 9.65783e-08 0 0)
(0.0496859 -5.70294e-05 0 9.20273e-08 0 0)
(0.0497755 -5.56092e-05 0 8.7086e-08 0 0)
(0.0498697 -5.41773e-05 0 8.21847e-08 0 0)
(0.0499683 -5.27948e-05 0 7.75669e-08 0 0)
(0.050071 -5.149e-05 0 7.33234e-08 0 0)
(0.0501776 -5.02695e-05 2.53957e-20 6.94614e-08 -4.16877e-24 7.69056e-37)
(0.0502881 -4.91359e-05 -2.50615e-20 6.59591e-08 3.99159e-24 7.48577e-37)
(0.0504022 -4.8082e-05 0 6.27834e-08 0 0)
(0.0505198 -4.71084e-05 0 5.99092e-08 0 0)
(0.0506408 -4.62082e-05 0 5.731e-08 0 0)
(0.0507651 -4.5382e-05 0 5.4966e-08 0 0)
(0.0508925 -4.46236e-05 -4.68429e-20 5.28545e-08 6.58093e-24 2.60875e-36)
(0.0510229 -4.39329e-05 0 5.09571e-08 0 0)
(0.0511563 -4.33029e-05 4.55588e-20 4.92518e-08 -6.15583e-24 2.46524e-36)
(0.0512926 -4.27334e-05 -4.49226e-20 4.77226e-08 5.96503e-24 2.39569e-36)
(0.0514317 -4.2217e-05 0 4.63498e-08 0 0)
(0.0515735 -4.17533e-05 0 4.51199e-08 0 0)
(0.0517181 -4.13357e-05 0 4.4017e-08 0 0)
(0.0518652 -4.09642e-05 4.24164e-20 4.30301e-08 -5.34965e-24 2.1316e-36)
(0.0520149 -4.06375e-05 4.17993e-20 4.21551e-08 -5.22794e-24 2.06899e-36)
(0.0521672 -4.03523e-05 0 4.13774e-08 0 0)
(0.0523221 -4.01085e-05 4.05763e-20 4.06957e-08 -5.01106e-24 1.94772e-36)
(0.0524796 -3.98974e-05 3.99703e-20 4.00899e-08 -4.91433e-24 1.88901e-36)
(0.0526397 -3.97191e-05 -3.93679e-20 3.95568e-08 4.82148e-24 1.83157e-36)
(0.0528023 -3.95671e-05 0 3.90831e-08 0 0)
(0.0529676 -3.94433e-05 0 3.86695e-08 0 0)
(0.0531355 -3.93433e-05 -3.75825e-20 3.83071e-08 4.56127e-24 1.66657e-36)
(0.0533061 -3.92695e-05 0 3.79984e-08 0 0)
(0.0534793 -3.92188e-05 0 3.77375e-08 0 0)
(0.0536552 -3.91938e-05 0 3.75273e-08 0 0)
(0.0538339 -3.91927e-05 0 3.73646e-08 0 0)