/*--------------------------------*- C++ -*----------------------------------*\
  =========                 |
  \\      /  F ield         | OpenFOAM: The Open Source CFD Toolbox
   \\    /   O peration     | Website:  https://openfoam.org
    \\  /    A nd           | Version:  7
     \\/     M anipulation  |
\*---------------------------------------------------------------------------*/
FoamFile
{
    version     2.0;
    format      ascii;
    class       volScalarField;
    location    "0.022";
    object      k;
}
// * * * * * * * * * * * * * * * * * * * * * * * * * * * * * * * * * * * * * //

dimensions      [0 2 -2 0 0 0 0];

internalField   nonuniform List<scalar> 
12225
(
1.94186e-05
1.79731e-05
1.68296e-05
1.51956e-05
1.41861e-05
1.29938e-05
1.08776e-05
9.95252e-06
1.03395e-05
1.14212e-05
1.10201e-05
8.45261e-06
6.21798e-06
5.36808e-06
5.07882e-06
5.04137e-06
5.00787e-06
1.04134e-05
1.99833e-05
1.98645e-05
1.97086e-05
1.94269e-05
1.9079e-05
1.88177e-05
1.84295e-05
1.76599e-05
1.7289e-05
1.72808e-05
1.74586e-05
1.79213e-05
1.80255e-05
1.79749e-05
1.74994e-05
1.64154e-05
1.51102e-05
1.45962e-05
1.99989e-05
1.92717e-05
1.90941e-05
1.90572e-05
1.90177e-05
1.89632e-05
1.88538e-05
1.86402e-05
1.84983e-05
1.84682e-05
1.84856e-05
1.86004e-05
1.8948e-05
1.91609e-05
1.9188e-05
1.91426e-05
1.89849e-05
1.8438e-05
2.00737e-05
1.9973e-05
1.95426e-05
1.93615e-05
1.91515e-05
1.83057e-05
1.72569e-05
1.67903e-05
1.66738e-05
1.66796e-05
1.67514e-05
1.69339e-05
1.7264e-05
1.76653e-05
1.8029e-05
1.82318e-05
1.82907e-05
1.82572e-05
2.17078e-05
2.22187e-05
2.18035e-05
2.3009e-05
2.54028e-05
2.5541e-05
2.43594e-05
2.07288e-05
1.8719e-05
1.78774e-05
1.73528e-05
1.69495e-05
1.67476e-05
1.67204e-05
1.67336e-05
1.67827e-05
1.69115e-05
1.724e-05
2.09247e-05
2.26237e-05
2.32826e-05
2.52537e-05
2.5973e-05
2.57325e-05
2.41454e-05
2.22078e-05
2.12597e-05
2.08237e-05
2.04973e-05
2.01587e-05
1.95635e-05
1.87256e-05
1.80025e-05
1.76966e-05
1.7657e-05
1.76697e-05
2.14112e-05
2.2047e-05
2.31365e-05
2.37926e-05
2.36988e-05
2.29659e-05
2.19488e-05
2.14823e-05
2.12883e-05
2.11276e-05
2.10056e-05
2.09008e-05
2.0707e-05
2.03401e-05
1.99287e-05
1.95853e-05
1.93873e-05
1.92775e-05
2.05069e-05
2.07667e-05
2.18041e-05
2.3722e-05
2.41471e-05
2.38755e-05
2.27143e-05
2.20739e-05
2.1943e-05
2.18935e-05
2.17883e-05
2.16725e-05
2.16244e-05
2.15928e-05
2.15356e-05
2.13821e-05
2.10356e-05
2.07995e-05
2.1445e-05
2.07916e-05
2.09006e-05
2.20055e-05
2.51842e-05
2.64913e-05
2.63358e-05
2.50313e-05
2.30314e-05
2.19747e-05
2.15909e-05
2.15211e-05
2.15473e-05
2.16332e-05
2.16649e-05
2.16617e-05
2.1615e-05
2.1422e-05
2.08177e-05
2.15131e-05
2.16839e-05
2.20087e-05
2.33018e-05
2.44035e-05
2.4498e-05
2.41096e-05
2.29029e-05
2.21349e-05
2.17225e-05
2.13924e-05
2.1112e-05
2.09519e-05
2.09192e-05
2.09342e-05
2.09743e-05
2.09636e-05
2.01665e-05
2.03015e-05
2.08329e-05
2.30742e-05
2.59811e-05
2.61476e-05
2.46449e-05
2.32776e-05
2.31324e-05
2.33622e-05
2.36035e-05
2.36039e-05
2.34042e-05
2.27759e-05
2.24189e-05
2.23457e-05
2.23628e-05
2.23575e-05
2.00184e-05
2.02276e-05
2.18866e-05
2.49148e-05
2.49307e-05
2.33137e-05
2.16981e-05
2.14537e-05
2.17768e-05
2.26603e-05
2.30487e-05
2.31011e-05
2.30326e-05
2.2875e-05
2.28465e-05
2.28904e-05
2.31351e-05
2.33254e-05
2.02917e-05
2.02823e-05
2.12658e-05
2.25525e-05
2.27524e-05
2.20545e-05
2.15062e-05
2.18079e-05
2.35173e-05
2.47012e-05
2.48655e-05
2.46235e-05
2.3632e-05
2.28664e-05
2.25393e-05
2.24491e-05
2.24483e-05
2.25335e-05
2.01737e-05
2.02284e-05
2.05568e-05
2.09659e-05
2.11815e-05
2.1379e-05
2.1766e-05
2.26316e-05
2.31398e-05
2.31546e-05
2.29536e-05
2.23144e-05
2.17581e-05
2.14069e-05
2.12064e-05
2.11221e-05
2.11094e-05
2.11429e-05
2.03451e-05
2.09639e-05
2.1027e-05
2.09183e-05
2.06755e-05
2.06087e-05
2.07189e-05
2.12292e-05
2.16445e-05
2.17527e-05
2.1701e-05
2.13873e-05
2.09947e-05
2.08188e-05
2.07695e-05
2.07661e-05
2.07718e-05
2.07995e-05
2.13973e-05
2.20776e-05
2.18132e-05
2.09755e-05
2.05263e-05
2.04592e-05
2.0505e-05
2.06906e-05
2.0826e-05
2.08312e-05
2.07924e-05
2.07968e-05
2.09284e-05
2.11302e-05
2.11425e-05
2.10009e-05
2.07343e-05
2.06394e-05
2.05872e-05
2.07524e-05
2.06911e-05
2.05137e-05
2.04388e-05
2.04197e-05
2.04238e-05
2.04567e-05
2.06318e-05
2.07629e-05
2.07445e-05
2.0712e-05
2.07578e-05
2.09212e-05
2.09882e-05
2.09838e-05
2.0904e-05
2.06984e-05
2.02875e-05
2.03229e-05
2.02148e-05
2.01625e-05
2.01952e-05
2.03188e-05
2.03972e-05
2.04362e-05
2.05211e-05
2.06752e-05
2.07252e-05
2.08131e-05
2.10522e-05
2.12276e-05
2.12464e-05
2.11584e-05
2.08932e-05
2.07578e-05
2.09153e-05
2.13071e-05
2.09766e-05
2.05558e-05
2.04768e-05
2.04862e-05
2.05207e-05
2.05276e-05
2.05161e-05
2.04811e-05
2.04863e-05
2.05305e-05
2.05317e-05
2.05193e-05
2.05177e-05
2.05266e-05
2.05645e-05
2.06106e-05
2.09731e-05
2.06069e-05
2.03473e-05
2.02738e-05
2.02816e-05
2.03215e-05
2.04344e-05
2.05566e-05
2.06532e-05
2.0748e-05
2.0836e-05
2.0896e-05
2.09318e-05
2.09542e-05
2.0962e-05
2.09618e-05
2.09532e-05
2.09122e-05
2.10289e-05
2.07013e-05
2.07987e-05
2.08621e-05
2.07958e-05
2.05862e-05
2.05255e-05
2.05471e-05
2.07144e-05
2.1081e-05
2.12862e-05
2.13563e-05
2.13614e-05
2.13287e-05
2.11625e-05
2.09227e-05
2.07729e-05
2.06937e-05
2.04176e-05
2.07089e-05
2.07764e-05
2.07722e-05
2.07409e-05
2.06374e-05
2.058e-05
2.05759e-05
2.06023e-05
2.06472e-05
2.06574e-05
2.0653e-05
2.06142e-05
2.05085e-05
2.04316e-05
2.03925e-05
2.03785e-05
2.03771e-05
2.01675e-05
2.03553e-05
2.06983e-05
2.09771e-05
2.10849e-05
2.10993e-05
2.10858e-05
2.10333e-05
2.08981e-05
2.06235e-05
2.03986e-05
2.02691e-05
2.0214e-05
2.01955e-05
2.01916e-05
2.01927e-05
2.01989e-05
2.02029e-05
2.15038e-05
2.15574e-05
2.09495e-05
2.07975e-05
2.08324e-05
2.08387e-05
2.07987e-05
2.06831e-05
2.06751e-05
2.08061e-05
2.09888e-05
2.09327e-05
2.06399e-05
2.03443e-05
2.01833e-05
2.01105e-05
2.0092e-05
2.00966e-05
2.05423e-05
2.03293e-05
2.03011e-05
2.04188e-05
2.07307e-05
2.07369e-05
2.07105e-05
2.06056e-05
2.05542e-05
2.05432e-05
2.05388e-05
2.05278e-05
2.04832e-05
2.03514e-05
2.02536e-05
2.0219e-05
2.02184e-05
2.02491e-05
2.00303e-05
2.00961e-05
2.0417e-05
2.05766e-05
2.06297e-05
2.08127e-05
2.08554e-05
2.07891e-05
2.07603e-05
2.07733e-05
2.08383e-05
2.09783e-05
2.1103e-05
2.11732e-05
2.11975e-05
2.11933e-05
2.11171e-05
2.08466e-05
2.00018e-05
2.00424e-05
2.00821e-05
2.00687e-05
2.00027e-05
1.98061e-05
1.97068e-05
1.97357e-05
1.99953e-05
2.05842e-05
2.08165e-05
2.08171e-05
2.0709e-05
2.04113e-05
1.96825e-05
1.84818e-05
1.76499e-05
1.72576e-05
2.02037e-05
1.95926e-05
1.81168e-05
1.72418e-05
1.74478e-05
1.82554e-05
2.06752e-05
2.69634e-05
4.22414e-05
5.67638e-05
6.57849e-05
7.0036e-05
7.14042e-05
7.18756e-05
7.27497e-05
7.49084e-05
7.96376e-05
8.36667e-05
3.21636e-05
0.000106826
0.000177102
0.000219679
0.000243122
0.000265763
0.00031095
0.000411477
0.000508128
0.000561188
0.000574754
0.000574632
0.00057021
0.000559217
0.000553676
0.00055348
0.00055862
0.000570814
0.00267467
0.00265312
0.00254841
0.0023716
0.00227924
0.00216614
0.00202749
0.00190565
0.0018086
0.0017196
0.00162591
0.00152858
0.00143716
0.00136142
0.00130646
0.00127132
0.00125316
0.00124353
7.88406e-07
4.40591e-06
1.4206e-05
3.31608e-05
5.85703e-05
8.60365e-05
0.000113117
0.000138906
0.000163103
0.000185688
0.000206924
0.000227479
0.00024816
0.000270334
0.000294026
0.00031802
0.000342173
0.000366222
0.000390151
0.000413782
0.000435486
0.000453851
0.000462027
0.000462586
0.000448176
0.000420684
0.000384674
0.000343991
0.000295679
0.000239613
0.00019207
0.000154346
0.000107366
7.57216e-05
5.74418e-05
3.58801e-05
2.60471e-05
2.02769e-05
1.8193e-05
1.82301e-05
1.86595e-05
1.89544e-05
1.90593e-05
1.90635e-05
1.87257e-05
1.83799e-05
1.80107e-05
1.73898e-05
1.65989e-05
1.59845e-05
1.53743e-05
1.43516e-05
1.33852e-05
1.26853e-05
1.15033e-05
1.06657e-05
9.62414e-06
8.68439e-06
7.7187e-06
6.75908e-06
5.87329e-06
4.96876e-06
4.12156e-06
3.3376e-06
2.64185e-06
2.06608e-06
1.63559e-06
1.32878e-06
1.09393e-06
9.07276e-07
7.52955e-07
6.22186e-07
5.11208e-07
4.17391e-07
3.38348e-07
2.72157e-07
2.17296e-07
1.7223e-07
1.35368e-07
1.05358e-07
8.11477e-08
6.18538e-08
4.66773e-08
3.48921e-08
2.58505e-08
1.89907e-08
1.3839e-08
1.00058e-08
7.17856e-09
5.11066e-09
3.61048e-09
2.531e-09
1.76055e-09
1.21513e-09
8.3218e-10
5.65505e-10
3.81328e-10
2.55171e-10
1.69459e-10
1.11697e-10
7.30807e-11
4.74687e-11
3.06147e-11
1.96106e-11
1.24808e-11
7.89612e-12
4.96867e-12
3.11209e-12
1.94079e-12
1.20577e-12
7.48667e-13
4.64241e-13
2.87266e-13
1.77246e-13
1.0898e-13
6.67319e-14
4.06872e-14
2.47247e-14
1.49973e-14
9.09803e-15
5.53382e-15
3.38646e-15
2.09576e-15
1.32195e-15
8.59674e-16
5.84982e-16
4.2307e-16
3.28817e-16
2.7506e-16
2.45503e-16
2.30403e-16
2.23881e-16
2.22081e-16
2.22045e-16
2.22045e-16
2.22045e-16
2.22045e-16
2.22045e-16
2.22045e-16
2.22045e-16
2.22045e-16
2.22045e-16
2.22045e-16
2.22045e-16
2.22045e-16
2.22045e-16
2.22045e-16
2.22045e-16
2.22045e-16
2.22045e-16
2.22045e-16
2.22045e-16
2.22045e-16
2.22045e-16
2.22045e-16
2.22045e-16
2.22045e-16
2.22045e-16
2.22045e-16
2.22045e-16
2.22045e-16
2.22045e-16
2.22045e-16
2.22045e-16
2.22045e-16
2.22045e-16
2.22045e-16
2.22045e-16
2.22045e-16
2.22045e-16
2.22045e-16
2.22045e-16
2.22045e-16
2.22045e-16
2.28176e-16
3.00594e-16
1.21858e-15
2.78981e-13
1.6018e-10
9.05841e-08
2.13124e-06
1.08963e-05
3.00838e-05
5.64825e-05
8.75951e-05
0.000120988
0.000150498
0.000173322
0.000190427
0.000203956
0.000214209
0.000221795
0.000226701
0.000228852
0.000228279
0.000225169
0.000220825
0.000215417
0.000208737
0.000200406
0.000189868
0.00017757
0.000163926
0.000149019
0.000133376
0.000118286
0.000105191
9.42411e-05
8.50156e-05
7.79721e-05
7.37467e-05
7.1094e-05
6.99909e-05
6.99842e-05
7.26622e-05
7.41063e-05
7.73274e-05
7.98161e-05
8.13058e-05
8.32065e-05
8.41283e-05
8.45898e-05
8.46539e-05
8.33789e-05
8.15946e-05
8.04032e-05
7.86711e-05
7.52573e-05
7.20621e-05
7.03973e-05
6.73111e-05
6.30565e-05
6.05393e-05
5.76414e-05
5.36317e-05
5.10241e-05
4.75904e-05
4.45399e-05
4.14489e-05
3.83425e-05
3.51352e-05
3.1585e-05
2.79351e-05
2.43976e-05
2.09022e-05
1.62338e-05
1.19357e-05
9.25052e-06
7.43353e-06
6.12057e-06
5.15155e-06
4.3505e-06
3.66219e-06
3.06971e-06
2.55984e-06
2.12015e-06
1.74494e-06
1.42844e-06
1.1614e-06
9.35578e-07
7.46513e-07
5.90643e-07
4.63819e-07
3.61719e-07
2.80257e-07
2.15773e-07
1.65094e-07
1.25526e-07
9.48278e-08
7.11606e-08
5.30306e-08
3.92354e-08
2.88124e-08
2.09949e-08
1.51766e-08
1.08809e-08
7.73591e-09
5.45326e-09
3.81119e-09
2.64058e-09
1.81362e-09
1.23473e-09
8.33193e-10
5.57277e-10
3.69495e-10
2.42936e-10
1.58468e-10
1.02623e-10
6.60291e-11
4.22405e-11
2.68796e-11
1.70202e-11
1.0725e-11
6.72451e-12
4.19436e-12
2.60134e-12
1.60305e-12
9.82751e-13
5.99866e-13
3.64743e-13
2.21065e-13
1.33632e-13
8.06026e-14
4.85257e-14
2.91729e-14
1.753e-14
1.05477e-14
6.37434e-15
3.88752e-15
2.40892e-15
1.5304e-15
1.00792e-15
6.9656e-16
5.10418e-16
3.98605e-16
3.31054e-16
2.89987e-16
2.64853e-16
2.49355e-16
2.39715e-16
2.33656e-16
2.29803e-16
2.27318e-16
2.25688e-16
2.246e-16
2.23859e-16
2.23347e-16
2.22989e-16
2.22736e-16
2.22555e-16
2.22421e-16
2.22321e-16
2.22245e-16
2.22188e-16
2.22146e-16
2.22116e-16
2.22095e-16
2.2208e-16
2.2207e-16
2.22064e-16
2.2206e-16
2.22057e-16
2.22055e-16
2.22053e-16
2.22052e-16
2.22051e-16
2.22051e-16
2.2205e-16
2.2205e-16
2.22049e-16
2.22048e-16
2.22047e-16
2.22047e-16
2.22061e-16
2.22331e-16
2.24812e-16
2.74899e-16
2.04857e-14
1.35059e-11
7.80845e-09
2.26317e-06
1.09408e-05
2.77487e-05
4.61794e-05
6.01609e-05
7.2578e-05
8.34202e-05
9.00081e-05
9.54188e-05
9.97138e-05
0.000101586
0.000101934
0.000100778
9.90895e-05
9.76195e-05
9.63072e-05
9.45413e-05
9.25896e-05
9.06339e-05
8.87842e-05
8.74298e-05
8.66719e-05
8.63174e-05
8.6397e-05
8.69398e-05
8.81913e-05
9.00791e-05
9.23306e-05
9.48628e-05
9.96308e-05
0.000106152
0.000113306
0.000121151
0.000129294
0.000137914
0.000144989
0.00015137
0.000157129
0.00016266
0.000167812
0.000171996
0.000173802
0.000174125
0.000170328
0.000166397
0.000163991
0.000156727
0.000146313
0.000141288
0.000135579
0.000124319
0.000116716
0.000112237
0.000101313
9.58244e-05
8.88153e-05
8.32027e-05
7.78305e-05
7.19628e-05
6.58431e-05
5.98701e-05
5.40167e-05
4.82915e-05
4.27234e-05
3.73036e-05
3.21364e-05
2.73327e-05
2.29856e-05
1.91672e-05
1.5999e-05
1.36609e-05
1.17557e-05
1.00739e-05
8.58253e-06
7.25977e-06
6.08667e-06
5.0658e-06
4.19667e-06
3.45256e-06
2.80312e-06
2.25073e-06
1.79989e-06
1.43696e-06
1.1454e-06
9.10959e-07
7.22323e-07
5.70576e-07
4.48684e-07
3.50989e-07
2.72975e-07
2.10948e-07
1.61913e-07
1.23374e-07
9.3286e-08
6.99692e-08
5.20441e-08
3.83822e-08
2.80641e-08
2.03452e-08
1.46268e-08
1.04316e-08
7.38253e-09
5.18216e-09
3.60542e-09
2.48584e-09
1.69878e-09
1.15123e-09
7.74243e-10
5.17249e-10
3.43583e-10
2.27078e-10
1.4937e-10
9.77837e-11
6.36817e-11
4.12323e-11
2.65229e-11
1.69397e-11
1.07386e-11
6.75796e-12
4.22306e-12
2.6226e-12
1.62051e-12
9.96503e-13
6.09901e-13
3.71604e-13
2.25498e-13
1.36398e-13
8.23403e-14
4.96871e-14
3.00279e-14
1.82133e-14
1.11143e-14
6.84292e-15
4.26628e-15
2.70649e-15
1.75833e-15
1.1794e-15
8.24275e-16
6.05308e-16
4.69379e-16
3.84227e-16
3.30276e-16
2.95613e-16
2.72967e-16
2.5789e-16
2.47654e-16
2.40582e-16
2.35634e-16
2.32126e-16
2.29598e-16
2.27743e-16
2.2636e-16
2.25311e-16
2.2452e-16
2.23927e-16
2.23499e-16
2.23184e-16
2.22966e-16
2.22806e-16
2.22703e-16
2.22624e-16
2.22574e-16
2.22528e-16
2.22498e-16
2.22468e-16
2.22445e-16
2.22422e-16
2.22399e-16
2.22371e-16
2.2233e-16
2.22246e-16
2.22192e-16
2.22193e-16
2.22252e-16
2.22579e-16
2.23729e-16
2.40351e-16
1.21132e-15
6.10814e-13
3.2097e-10
1.82368e-06
8.04901e-06
1.80848e-05
2.70311e-05
3.21923e-05
3.60463e-05
3.95468e-05
4.20647e-05
4.46021e-05
4.73737e-05
5.02189e-05
5.31973e-05
5.63042e-05
5.95941e-05
6.31361e-05
6.68876e-05
7.08269e-05
7.48871e-05
7.91305e-05
8.34903e-05
8.79417e-05
9.34857e-05
0.00010125
0.00011183
0.000125931
0.000142012
0.000158355
0.000174264
0.000191358
0.000209185
0.00022573
0.000241488
0.000258475
0.000273741
0.000290013
0.000304554
0.000316218
0.000325874
0.000332896
0.000338865
0.000341202
0.00034133
0.000333478
0.000325542
0.000318153
0.000305264
0.000285441
0.000266084
0.000254224
0.000234552
0.000210281
0.000195505
0.00017901
0.000157816
0.00014514
0.000127998
0.000114097
0.000100284
8.80144e-05
7.69446e-05
6.7171e-05
5.85989e-05
5.112e-05
4.45323e-05
3.8796e-05
3.38281e-05
2.95725e-05
2.59572e-05
2.28525e-05
2.00303e-05
1.7464e-05
1.51718e-05
1.31207e-05
1.12938e-05
9.68144e-06
8.2667e-06
7.01625e-06
5.91841e-06
4.96072e-06
4.11337e-06
3.37945e-06
2.78587e-06
2.30052e-06
1.89737e-06
1.56043e-06
1.27838e-06
1.04264e-06
8.46293e-07
6.8333e-07
5.4869e-07
4.37949e-07
3.47372e-07
2.73753e-07
2.14297e-07
1.66595e-07
1.28582e-07
9.85027e-08
7.4873e-08
5.64503e-08
4.2201e-08
3.12715e-08
2.29624e-08
1.67074e-08
1.2046e-08
8.60539e-09
6.09126e-09
4.27352e-09
2.97379e-09
2.05464e-09
1.41112e-09
9.64289e-10
6.55965e-10
4.44176e-10
2.99223e-10
2.0037e-10
1.33265e-10
8.79806e-11
5.76223e-11
3.74209e-11
2.40948e-11
1.53825e-11
9.7385e-12
6.11856e-12
3.81852e-12
2.36948e-12
1.46349e-12
9.0078e-13
5.53205e-13
3.39436e-13
2.08355e-13
1.28102e-13
7.8976e-14
4.88735e-14
3.03959e-14
1.90272e-14
1.20115e-14
7.66759e-15
4.96965e-15
3.28929e-15
2.23772e-15
1.57234e-15
1.14502e-15
8.65853e-16
6.80013e-16
5.5389e-16
4.66594e-16
4.0514e-16
3.61354e-16
3.29746e-16
3.06596e-16
2.89432e-16
2.76598e-16
2.66813e-16
2.59431e-16
2.5382e-16
2.49824e-16
2.46684e-16
2.44638e-16
2.42845e-16
2.41949e-16
2.40897e-16
2.40515e-16
2.39683e-16
2.39385e-16
2.38505e-16
2.38174e-16
2.36778e-16
2.36204e-16
2.33862e-16
2.3104e-16
2.26927e-16
2.26766e-16
2.29212e-16
2.40276e-16
2.91254e-16
4.23676e-16
3.46707e-15
6.85867e-15
8.41053e-14
1.40718e-11
1.31824e-06
5.1539e-06
1.09936e-05
1.60688e-05
1.85554e-05
2.05518e-05
2.30375e-05
2.58797e-05
2.93709e-05
3.34849e-05
3.80732e-05
4.31465e-05
4.86844e-05
5.45574e-05
6.07205e-05
6.70278e-05
7.40186e-05
8.29775e-05
9.51369e-05
0.000112076
0.000131288
0.000146195
0.000164631
0.000180358
0.000192399
0.000201135
0.000214339
0.000234357
0.000258572
0.000280296
0.000305951
0.000335325
0.000364949
0.000386469
0.000404889
0.000421297
0.000435756
0.000448927
0.000455161
0.00045737
0.000457378
0.000446237
0.000437323
0.0004329
0.000417723
0.000390684
0.000366358
0.000347416
0.000321907
0.000289804
0.000260057
0.000236491
0.000208621
0.000185345
0.000166957
0.00014677
0.000129335
0.000112867
9.79529e-05
8.45713e-05
7.2702e-05
6.2258e-05
5.31543e-05
4.52293e-05
3.83834e-05
3.25417e-05
2.76315e-05
2.35311e-05
2.01377e-05
1.7503e-05
1.54436e-05
1.37677e-05
1.23068e-05
1.09177e-05
9.56652e-06
8.31526e-06
7.17707e-06
6.15422e-06
5.24573e-06
4.44593e-06
3.7477e-06
3.14297e-06
2.62284e-06
2.17818e-06
1.80026e-06
1.48073e-06
1.212e-06
9.86699e-07
7.98901e-07
6.43154e-07
5.14749e-07
4.09567e-07
3.24371e-07
2.55636e-07
2.00419e-07
1.56265e-07
1.21134e-07
9.33303e-08
7.14509e-08
5.43369e-08
4.1036e-08
3.07679e-08
2.2897e-08
1.6908e-08
1.23859e-08
8.99866e-09
6.4825e-09
4.62942e-09
3.2767e-09
2.29814e-09
1.59675e-09
1.09873e-09
7.4852e-10
5.04678e-10
3.36619e-10
2.22019e-10
1.4475e-10
9.32219e-11
5.92681e-11
3.72125e-11
2.30376e-11
1.40164e-11
8.43631e-12
5.05734e-12
3.02132e-12
1.80075e-12
1.0729e-12
6.40946e-13
3.85467e-13
2.34542e-13
1.45223e-13
9.2051e-14
6.00242e-14
4.03619e-14
2.7966e-14
1.98966e-14
1.44617e-14
1.06786e-14
7.97068e-15
5.9921e-15
4.52925e-15
3.44209e-15
2.63156e-15
2.02661e-15
1.57567e-15
1.23909e-15
9.87643e-16
8.00237e-16
6.60042e-16
5.545e-16
4.75227e-16
4.15624e-16
3.70153e-16
3.353e-16
3.08978e-16
2.89143e-16
2.73691e-16
2.61477e-16
2.52125e-16
2.45308e-16
2.40132e-16
2.36125e-16
2.32682e-16
2.29595e-16
2.27569e-16
2.26053e-16
2.24976e-16
2.25036e-16
2.2649e-16
2.3436e-16
2.70584e-16
4.15458e-16
9.39943e-16
2.56758e-15
1.09188e-14
2.34317e-14
4.4458e-13
5.32928e-13
7.75716e-12
8.9788e-12
1.04371e-06
3.52133e-06
6.95282e-06
1.00906e-05
1.17895e-05
1.36218e-05
1.63994e-05
2.00351e-05
2.45635e-05
2.98679e-05
3.5908e-05
4.23608e-05
4.91857e-05
5.70383e-05
6.65969e-05
7.86476e-05
9.48797e-05
0.000117766
0.000140252
0.000158933
0.00017315
0.000188878
0.000202647
0.000218721
0.000241655
0.000270984
0.000320573
0.000369712
0.000404852
0.000438192
0.000472214
0.000495491
0.000516877
0.000533682
0.000541909
0.000551723
0.000558659
0.000565066
0.000568587
0.000569126
0.000560192
0.00053341
0.000515646
0.000504873
0.000476062
0.000442955
0.000427725
0.000403434
0.000382058
0.000360343
0.000337432
0.000312196
0.000280019
0.000247152
0.000215406
0.000191217
0.000166851
0.000144977
0.000124481
0.000106552
9.10266e-05
7.74638e-05
6.54689e-05
5.47525e-05
4.50929e-05
3.67214e-05
2.96847e-05
2.40572e-05
1.9684e-05
1.62264e-05
1.34658e-05
1.1241e-05
9.53331e-06
8.31766e-06
7.47311e-06
6.7929e-06
6.14618e-06
5.47256e-06
4.79819e-06
4.16193e-06
3.57454e-06
3.04288e-06
2.56928e-06
2.15284e-06
1.79103e-06
1.47982e-06
1.21494e-06
9.91216e-07
8.04002e-07
6.47979e-07
5.19369e-07
4.13292e-07
3.2737e-07
2.58055e-07
2.02377e-07
1.57859e-07
1.22439e-07
9.44049e-08
7.23389e-08
5.50722e-08
4.16445e-08
3.12702e-08
2.33097e-08
1.72449e-08
1.26587e-08
9.21741e-09
6.6559e-09
4.76505e-09
3.38119e-09
2.37732e-09
1.65572e-09
1.1419e-09
7.79563e-10
5.26616e-10
3.51863e-10
2.32432e-10
1.51722e-10
9.78129e-11
6.22411e-11
3.90676e-11
2.41708e-11
1.47276e-11
8.83029e-12
5.20534e-12
3.01439e-12
1.71366e-12
9.55864e-13
5.22989e-13
2.80762e-13
1.48087e-13
7.69847e-14
3.9692e-14
2.05213e-14
1.08303e-14
5.98111e-15
3.5507e-15
2.30668e-15
1.63799e-15
1.24945e-15
1.00124e-15
8.2794e-16
6.99025e-16
5.99281e-16
5.2062e-16
4.58306e-16
4.08769e-16
3.69411e-16
3.38348e-16
3.13802e-16
2.94328e-16
2.78977e-16
2.66941e-16
2.57379e-16
2.4973e-16
2.43796e-16
2.39189e-16
2.35455e-16
2.32503e-16
2.30132e-16
2.28255e-16
2.27035e-16
2.259e-16
2.24774e-16
2.24509e-16
2.24708e-16
2.25794e-16
2.38178e-16
2.97903e-16
5.68298e-16
1.77399e-15
7.34213e-15
2.87618e-14
1.05006e-13
3.19309e-13
9.75176e-13
2.169e-12
9.39515e-12
9.67371e-12
1.96756e-11
1.93518e-11
9.0594e-07
2.63473e-06
4.72373e-06
6.8516e-06
8.37852e-06
1.04041e-05
1.35653e-05
1.78072e-05
2.31616e-05
2.96391e-05
3.68041e-05
4.54612e-05
5.63947e-05
7.232e-05
9.77142e-05
0.000123878
0.000146711
0.000164883
0.000178979
0.000188818
0.000201314
0.000225943
0.000255439
0.000298357
0.000349539
0.000403126
0.000446939
0.000475369
0.000492878
0.000514348
0.000535622
0.000559078
0.00058662
0.000609894
0.000631298
0.000651318
0.000669584
0.000692458
0.000715092
0.000726269
0.00072869
0.000680349
0.000614753
0.000572828
0.000512417
0.000462539
0.000435605
0.000398287
0.000383672
0.000364531
0.000350929
0.000335028
0.000316555
0.000292567
0.000258466
0.000228729
0.000200122
0.000175028
0.000152442
0.000131031
0.000111948
9.61348e-05
8.28127e-05
7.1262e-05
6.10337e-05
5.12782e-05
4.13688e-05
3.18164e-05
2.4232e-05
1.8498e-05
1.42898e-05
1.12305e-05
8.9689e-06
7.24769e-06
5.91357e-06
4.91424e-06
4.23456e-06
3.81411e-06
3.51425e-06
3.2239e-06
2.9005e-06
2.55978e-06
2.22839e-06
1.91567e-06
1.62798e-06
1.36869e-06
1.13936e-06
9.39539e-07
7.68243e-07
6.22815e-07
5.01324e-07
4.00098e-07
3.17523e-07
2.50586e-07
1.96649e-07
1.53439e-07
1.19024e-07
9.17724e-08
7.032e-08
5.35352e-08
4.04846e-08
3.04034e-08
2.26687e-08
1.67761e-08
1.23199e-08
8.97542e-09
6.4852e-09
4.64615e-09
3.29946e-09
2.32191e-09
1.61868e-09
1.11751e-09
7.63754e-10
5.1654e-10
3.45556e-10
2.28561e-10
1.49396e-10
9.64489e-11
6.14636e-11
3.86381e-11
2.39428e-11
1.46132e-11
8.77698e-12
5.18274e-12
3.00574e-12
1.71027e-12
9.53767e-13
5.20784e-13
2.78176e-13
1.4525e-13
7.41143e-14
3.69678e-14
1.80567e-14
8.67677e-15
4.14593e-15
2.01451e-15
1.03697e-15
5.9868e-16
4.05343e-16
3.20262e-16
2.81867e-16
2.63293e-16
2.53126e-16
2.46663e-16
2.42007e-16
2.38369e-16
2.3541e-16
2.3298e-16
2.30981e-16
2.29305e-16
2.27947e-16
2.26814e-16
2.25904e-16
2.25139e-16
2.24509e-16
2.2407e-16
2.23594e-16
2.23336e-16
2.23049e-16
2.22765e-16
2.24426e-16
2.3122e-16
2.48219e-16
2.84428e-16
3.59016e-16
5.12921e-16
8.47958e-16
1.60726e-15
3.45391e-15
8.01126e-15
1.99298e-14
4.97238e-14
1.28302e-13
3.09663e-13
8.83637e-13
1.66212e-12
5.8521e-12
6.14715e-12
6.94101e-12
9.21884e-12
8.45242e-07
2.18507e-06
3.53903e-06
5.11221e-06
6.5972e-06
8.7984e-06
1.21894e-05
1.68317e-05
2.28922e-05
3.03815e-05
4.12292e-05
5.86585e-05
8.07758e-05
0.00010399
0.000125439
0.000145504
0.000166412
0.000184882
0.000202823
0.000226234
0.0002705
0.000320146
0.000364355
0.000408421
0.000451864
0.000493683
0.000513242
0.000527639
0.000554943
0.000591381
0.000635935
0.000696581
0.000778307
0.000894761
0.00105525
0.00124391
0.00144742
0.00164508
0.00180574
0.00189279
0.00191835
0.00176758
0.00150982
0.00122439
0.00097059
0.000770996
0.000614211
0.000458788
0.00039616
0.000355625
0.00033732
0.000328275
0.000319425
0.000306821
0.000283742
0.000248848
0.000216468
0.000187504
0.000163965
0.000144404
0.000126164
0.000108291
9.18724e-05
7.89254e-05
6.89533e-05
6.09711e-05
5.43346e-05
4.73781e-05
3.81693e-05
2.8295e-05
2.03913e-05
1.46679e-05
1.06346e-05
7.8582e-06
5.96136e-06
4.63487e-06
3.66358e-06
2.93547e-06
2.42084e-06
2.09147e-06
1.89977e-06
1.76442e-06
1.62863e-06
1.475e-06
1.30893e-06
1.14299e-06
9.82903e-07
8.32994e-07
6.96565e-07
5.75147e-07
4.69605e-07
3.79148e-07
3.03378e-07
2.40884e-07
1.89871e-07
1.48614e-07
1.15529e-07
8.92049e-08
6.84157e-08
5.21149e-08
3.94234e-08
2.96118e-08
2.20806e-08
1.63418e-08
1.20016e-08
8.74417e-09
6.31884e-09
4.52775e-09
3.21615e-09
2.264e-09
1.57895e-09
1.09062e-09
7.45821e-10
5.04765e-10
3.37954e-10
2.23741e-10
1.46401e-10
9.46286e-11
6.03848e-11
3.80172e-11
2.35978e-11
1.44297e-11
8.68493e-12
5.14029e-12
2.98875e-12
1.70537e-12
9.53937e-13
5.22565e-13
2.80067e-13
1.46732e-13
7.51096e-14
3.75624e-14
1.83716e-14
8.81714e-15
4.18669e-15
2.00297e-15
1.00125e-15
5.54478e-16
3.60742e-16
2.79032e-16
2.45474e-16
2.32005e-16
2.26674e-16
2.24549e-16
2.23659e-16
2.23238e-16
2.22997e-16
2.2283e-16
2.22701e-16
2.22592e-16
2.22502e-16
2.22422e-16
2.22358e-16
2.22301e-16
2.22253e-16
2.22219e-16
2.2218e-16
2.2216e-16
2.22135e-16
2.22112e-16
2.22658e-16
2.27559e-16
2.41599e-16
2.72462e-16
3.36411e-16
4.66555e-16
7.45105e-16
1.35765e-15
2.80733e-15
6.24188e-15
1.49109e-14
3.55192e-14
8.73687e-14
1.98244e-13
5.73983e-13
9.28252e-13
2.29182e-12
2.57045e-12
2.78206e-12
3.50276e-12
8.15619e-07
1.97319e-06
2.93904e-06
4.20102e-06
5.62382e-06
7.8775e-06
1.14457e-05
1.65255e-05
2.32055e-05
3.25067e-05
4.63481e-05
6.6126e-05
9.25164e-05
0.000121412
0.000149946
0.000177709
0.000202042
0.000222998
0.000250147
0.000288622
0.000326312
0.000373991
0.000428226
0.000475497
0.000512649
0.000540762
0.000564154
0.000603324
0.000668482
0.000764018
0.000908547
0.00114359
0.00150906
0.00206628
0.00283457
0.00376109
0.00472979
0.00557437
0.00602786
0.00620369
0.00602216
0.00560669
0.00484794
0.00376177
0.00280461
0.00224095
0.001594
0.00100465
0.000709705
0.000492061
0.000389821
0.000335827
0.000313013
0.0003066
0.000296892
0.000266183
0.000227773
0.000192818
0.00016569
0.000146563
0.000130626
0.000115601
0.000101212
8.667e-05
7.35855e-05
6.40903e-05
5.74527e-05
5.25449e-05
4.8331e-05
4.28213e-05
3.41377e-05
2.43925e-05
1.6833e-05
1.14542e-05
7.80702e-06
5.42635e-06
3.89801e-06
2.90483e-06
2.22535e-06
1.73558e-06
1.38572e-06
1.15425e-06
1.00784e-06
9.14509e-07
8.46706e-07
7.82843e-07
7.13063e-07
6.35389e-07
5.55241e-07
4.76232e-07
4.01365e-07
3.32785e-07
2.71946e-07
2.19592e-07
1.75396e-07
1.38702e-07
1.08677e-07
8.44183e-08
6.50386e-08
4.97128e-08
3.77051e-08
2.83788e-08
2.11955e-08
1.57078e-08
1.15492e-08
8.42322e-09
6.09274e-09
4.36977e-09
3.10679e-09
2.18906e-09
1.52817e-09
1.05661e-09
7.23348e-10
4.9012e-10
3.28555e-10
2.17809e-10
1.42726e-10
9.23986e-11
5.90633e-11
3.72555e-11
2.3173e-11
1.42024e-11
8.56962e-12
5.08611e-12
2.96626e-12
1.69821e-12
9.53414e-13
5.24374e-13
2.82262e-13
1.4858e-13
7.644e-14
3.84327e-14
1.89016e-14
9.12002e-15
4.34946e-15
2.08563e-15
1.04087e-15
5.72084e-16
3.67651e-16
2.81016e-16
2.45315e-16
2.31005e-16
2.25428e-16
2.23313e-16
2.22531e-16
2.22247e-16
2.22144e-16
2.22105e-16
2.22089e-16
2.2208e-16
2.22074e-16
2.22069e-16
2.22065e-16
2.22062e-16
2.22059e-16
2.22057e-16
2.22054e-16
2.22053e-16
2.22051e-16
2.2205e-16
2.22063e-16
2.2451e-16
2.34083e-16
2.57075e-16
3.06501e-16
4.05091e-16
6.10699e-16
1.04647e-15
2.03971e-15
4.29177e-15
9.71966e-15
2.19075e-14
5.20583e-14
1.07166e-13
2.49058e-13
4.5836e-13
5.91298e-13
7.18086e-13
8.07252e-13
1.09804e-12
7.95035e-07
1.88944e-06
2.64108e-06
3.72345e-06
5.14315e-06
7.4652e-06
1.12628e-05
1.69668e-05
2.59251e-05
3.99518e-05
5.88364e-05
7.98095e-05
0.00010285
0.00013201
0.000164271
0.000201035
0.000233716
0.000267583
0.000309399
0.000355033
0.00040896
0.000450863
0.000497842
0.000548593
0.000587498
0.000621421
0.000665993
0.000751098
0.000900199
0.00116709
0.00162133
0.00238723
0.00359546
0.0053769
0.00773221
0.0104911
0.0131813
0.0150103
0.0158503
0.0160561
0.0145982
0.0134533
0.0113324
0.00866345
0.00673651
0.00537905
0.00386619
0.00279705
0.00181504
0.0010843
0.000725733
0.000504677
0.000386265
0.000328964
0.000307912
0.000291132
0.000248924
0.000200618
0.000164111
0.000138364
0.000123086
0.000113771
0.000102872
9.11116e-05
7.95526e-05
6.82883e-05
5.91827e-05
5.33317e-05
4.95544e-05
4.67661e-05
4.37598e-05
3.84377e-05
2.93487e-05
2.00034e-05
1.31605e-05
8.46172e-06
5.43825e-06
3.5759e-06
2.44921e-06
1.75757e-06
1.31013e-06
9.99856e-07
7.8392e-07
6.40141e-07
5.40819e-07
4.70034e-07
4.22605e-07
3.91137e-07
3.63363e-07
3.32595e-07
2.96616e-07
2.5847e-07
2.2019e-07
1.84114e-07
1.51352e-07
1.22517e-07
9.78046e-08
7.70999e-08
6.00855e-08
4.63349e-08
3.5382e-08
2.67686e-08
2.00725e-08
1.49215e-08
1.09979e-08
8.03718e-09
5.82334e-09
4.1828e-09
2.97797e-09
2.10108e-09
1.46868e-09
1.01685e-09
6.97094e-10
4.7302e-10
3.17581e-10
2.1088e-10
1.38429e-10
8.97862e-11
5.7511e-11
3.63571e-11
2.26692e-11
1.39307e-11
8.43035e-12
5.01962e-12
2.93789e-12
1.68853e-12
9.52031e-13
5.26059e-13
2.84608e-13
1.5064e-13
7.79589e-14
3.94437e-14
1.9527e-14
9.48541e-15
4.55295e-15
2.19399e-15
1.09613e-15
5.99118e-16
3.80306e-16
2.86642e-16
2.47686e-16
2.31947e-16
2.25767e-16
2.23409e-16
2.22533e-16
2.22216e-16
2.22104e-16
2.22066e-16
2.22053e-16
2.22048e-16
2.22047e-16
2.22046e-16
2.22046e-16
2.22046e-16
2.22045e-16
2.22045e-16
2.22045e-16
2.22045e-16
2.22045e-16
2.22045e-16
2.22046e-16
2.22295e-16
2.27248e-16
2.41914e-16
2.75306e-16
3.42716e-16
4.80069e-16
7.59931e-16
1.36704e-15
2.66863e-15
5.60227e-15
1.1694e-14
2.85222e-14
4.88404e-14
1.11577e-13
1.3007e-13
1.45113e-13
1.78193e-13
2.03939e-13
2.91604e-13
7.68366e-07
1.85243e-06
2.49471e-06
3.39649e-06
4.75588e-06
7.16977e-06
1.13034e-05
1.85797e-05
3.02926e-05
4.73824e-05
7.0221e-05
9.77808e-05
0.000127943
0.000159903
0.00019423
0.00022846
0.000255829
0.00028882
0.000336777
0.000393626
0.000449629
0.000508068
0.000554392
0.000600158
0.000643654
0.000688456
0.000787509
0.000978915
0.00134321
0.00202275
0.00326348
0.00543681
0.00907341
0.0132075
0.0179378
0.0233376
0.0288053
0.0330783
0.035236
0.0359118
0.0323742
0.0279315
0.0212418
0.01513
0.0108819
0.00789893
0.00567916
0.00439442
0.00329437
0.00232391
0.0014634
0.000955204
0.000647393
0.00046108
0.000364937
0.000327972
0.000294639
0.000231462
0.000174584
0.00013775
0.000114702
0.000100496
9.4033e-05
8.85975e-05
8.03725e-05
7.09018e-05
6.18698e-05
5.42473e-05
4.93528e-05
4.66719e-05
4.47636e-05
4.29167e-05
4.00222e-05
3.35278e-05
2.36637e-05
1.52752e-05
9.46971e-06
5.74314e-06
3.49412e-06
2.19097e-06
1.44587e-06
1.01005e-06
7.38021e-07
5.55066e-07
4.32932e-07
3.49146e-07
2.86371e-07
2.39719e-07
2.06728e-07
1.8564e-07
1.72371e-07
1.60854e-07
1.47273e-07
1.3115e-07
1.13851e-07
9.65503e-08
8.01379e-08
6.52379e-08
5.21912e-08
4.11049e-08
3.19194e-08
2.44703e-08
1.85396e-08
1.38931e-08
1.0304e-08
7.56691e-09
5.50377e-09
3.96557e-09
2.83062e-09
2.00159e-09
1.40197e-09
9.72518e-10
6.67947e-10
4.54088e-10
3.05451e-10
2.03226e-10
1.33681e-10
8.68972e-11
5.57907e-11
3.53579e-11
2.21067e-11
1.36266e-11
8.27467e-12
4.946e-12
2.90727e-12
1.67886e-12
9.51529e-13
5.28798e-13
2.87891e-13
1.53427e-13
7.99977e-14
4.08043e-14
2.03757e-14
9.98647e-15