/*--------------------------------*- C++ -*----------------------------------*\
  =========                 |
  \\      /  F ield         | OpenFOAM: The Open Source CFD Toolbox
   \\    /   O peration     | Website:  https://openfoam.org
    \\  /    A nd           | Version:  7
     \\/     M anipulation  |
\*---------------------------------------------------------------------------*/
FoamFile
{
    version     2.0;
    format      ascii;
    class       surfaceScalarField;
    location    "0.022";
    object      phi;
}
// * * * * * * * * * * * * * * * * * * * * * * * * * * * * * * * * * * * * * //

dimensions      [0 3 -1 0 0 0 0];

internalField   nonuniform List<scalar> 
24170
(
1.41105e-06
1.65228e-07
1.26885e-06
1.422e-07
1.13e-06
1.3885e-07
1.0128e-06
1.17198e-07
9.06449e-07
1.06352e-07
8.01517e-07
1.04932e-07
7.02477e-07
9.90403e-08
6.18111e-07
8.43655e-08
5.50437e-07
6.76736e-08
4.95398e-07
5.50392e-08
4.4824e-07
4.71582e-08
4.06885e-07
4.13548e-08
3.71801e-07
3.50838e-08
3.44082e-07
2.77194e-08
3.2232e-07
2.1762e-08
3.06214e-07
1.61064e-08
2.89788e-07
1.64254e-08
1.33428e-08
2.76445e-07
1.66993e-06
2.30767e-07
1.64351e-06
1.68625e-07
1.60575e-06
1.76606e-07
1.57325e-06
1.49698e-07
1.5433e-06
1.36297e-07
1.50693e-06
1.41303e-07
1.46338e-06
1.42596e-07
1.41792e-06
1.29826e-07
1.37404e-06
1.11548e-07
1.33188e-06
9.72019e-08
1.29091e-06
8.81249e-08
1.25145e-06
8.08165e-08
1.21464e-06
7.1892e-08
1.18079e-06
6.15752e-08
1.15068e-06
5.18677e-08
1.12242e-06
4.43701e-08
1.09601e-06
4.28361e-08
3.6542e-08
1.07281e-06
1.80683e-06
3.3021e-07
1.77628e-06
1.99182e-07
1.764e-06
1.88881e-07
1.74743e-06
1.66267e-07
1.73524e-06
1.48494e-07
1.72922e-06
1.47323e-07
1.72285e-06
1.48967e-07
1.71215e-06
1.4052e-07
1.69866e-06
1.25042e-07
1.6853e-06
1.10559e-07
1.67342e-06
1.00003e-07
1.6627e-06
9.15426e-08
1.65182e-06
8.27702e-08
1.6398e-06
7.35893e-08
1.62619e-06
6.54818e-08
1.61149e-06
5.90671e-08
1.59738e-06
5.69456e-08
5.27314e-08
1.58119e-06
1.96902e-06
3.44275e-07
1.93653e-06
2.31678e-07
1.90443e-06
2.2098e-07
1.8767e-06
1.93993e-07
1.86592e-06
1.59273e-07
1.86814e-06
1.45108e-07
1.87268e-06
1.44421e-07
1.87327e-06
1.39931e-07
1.87005e-06
1.28259e-07
1.86597e-06
1.14644e-07
1.86329e-06
1.02678e-07
1.86263e-06
9.22032e-08
1.86276e-06
8.26406e-08
1.86216e-06
7.41885e-08
1.85987e-06
6.77785e-08
1.85563e-06
6.33019e-08
1.85111e-06
6.1468e-08
5.84644e-08
1.84538e-06
2.0815e-06
4.38802e-07
2.05308e-06
2.60091e-07
2.0595e-06
2.14565e-07
2.06207e-06
1.91426e-07
2.05317e-06
1.68167e-07
2.03982e-06
1.58457e-07
2.02816e-06
1.56079e-07
2.01956e-06
1.4854e-07
2.01358e-06
1.34231e-07
2.01011e-06
1.1812e-07
2.00925e-06
1.03532e-07
2.01068e-06
9.07778e-08
2.01342e-06
7.99037e-08
2.01631e-06
7.12925e-08
2.01865e-06
6.54415e-08
2.02007e-06
6.18852e-08
2.02129e-06
6.02427e-08
5.83714e-08
2.02138e-06
2.2642e-06
4.51473e-07
2.22391e-06
3.00376e-07
2.20306e-06
2.35416e-07
2.19629e-06
1.98202e-07
2.19146e-06
1.72992e-07
2.18511e-06
1.64814e-07
2.17784e-06
1.63347e-07
2.17155e-06
1.54832e-07
2.16793e-06
1.37843e-07
2.16738e-06
1.18671e-07
2.16908e-06
1.01829e-07
2.17175e-06
8.81172e-08
2.17446e-06
7.71935e-08
2.17677e-06
6.89754e-08
2.17865e-06
6.35599e-08
2.1801e-06
6.04352e-08
2.18105e-06
5.9297e-08
5.89783e-08
2.18044e-06
2.40265e-06
4.29036e-07
2.3825e-06
3.20531e-07
2.36265e-06
2.55261e-07
2.35378e-06
2.07075e-07
2.3468e-06
1.7997e-07
2.34215e-06
1.6947e-07
2.34019e-06
1.653e-07
2.33889e-06
1.56129e-07
2.33691e-06
1.39828e-07
2.33466e-06
1.20919e-07
2.33326e-06
1.03229e-07
2.33342e-06
8.79638e-08
2.33518e-06
7.54262e-08
2.33814e-06
6.60235e-08
2.34162e-06
6.00724e-08
2.34479e-06
5.72719e-08
2.34694e-06
5.71472e-08
5.85131e-08
2.3474e-06
2.56651e-06
4.27786e-07
2.57218e-06
3.14867e-07
2.57161e-06
2.55826e-07
2.55321e-06
2.25475e-07
2.52457e-06
2.08612e-07
2.50403e-06
1.90008e-07
2.49874e-06
1.70593e-07
2.50308e-06
1.51787e-07
2.50933e-06
1.33579e-07
2.51364e-06
1.16606e-07
2.51546e-06
1.01412e-07
2.51544e-06
8.79833e-08
2.5143e-06
7.65712e-08
2.51271e-06
6.76064e-08
2.51138e-06
6.14093e-08
2.51072e-06
5.79265e-08
2.5112e-06
5.66644e-08
5.72731e-08
2.51244e-06
2.771e-06
4.27191e-07
2.74358e-06
3.42292e-07
2.73898e-06
2.60425e-07
2.73486e-06
2.29598e-07
2.72462e-06
2.18848e-07
2.71477e-06
1.99856e-07
2.71112e-06
1.74241e-07
2.71308e-06
1.4983e-07
2.71742e-06
1.29237e-07
2.72185e-06
1.12179e-07
2.72523e-06
9.80325e-08
2.72679e-06
8.64239e-08
2.72612e-06
7.72356e-08
2.72342e-06
7.03098e-08
2.7195e-06
6.53342e-08
2.71547e-06
6.19493e-08
2.71225e-06
5.98832e-08
5.90194e-08
2.71051e-06
3.01688e-06
4.09054e-07
2.98774e-06
3.71434e-07
2.97335e-06
2.74814e-07
2.97227e-06
2.30681e-07
2.97108e-06
2.20036e-07
2.9626e-06
2.08337e-07
2.94787e-06
1.88971e-07
2.93125e-06
1.66453e-07
2.91683e-06
1.43656e-07
2.90749e-06
1.21517e-07
2.90433e-06
1.0119e-07
2.9063e-06
8.44525e-08
2.91101e-06
7.2525e-08
2.9157e-06
6.56258e-08
2.91839e-06
6.26374e-08
2.91826e-06
6.20807e-08
2.91554e-06
6.26066e-08
6.32335e-08
2.91133e-06
3.19016e-06
4.70767e-07
3.18529e-06
3.76311e-07
3.17238e-06
2.87722e-07
3.16033e-06
2.42732e-07
3.15473e-06
2.25637e-07
3.15098e-06
2.12081e-07
3.14585e-06
1.94109e-07
3.13947e-06
1.7283e-07
3.1334e-06
1.49726e-07
3.12901e-06
1.25908e-07
3.12681e-06
1.03383e-07
3.12643e-06
8.48316e-08
3.12697e-06
7.1985e-08
3.12744e-06
6.5165e-08
3.12706e-06
6.30121e-08
3.12551e-06
6.36293e-08
3.12284e-06
6.52781e-08
6.65028e-08
3.11957e-06
2.86899e-06
4.65802e-07
2.88029e-06
3.65004e-07
2.87465e-06
2.93364e-07
2.84761e-06
2.69776e-07
2.82537e-06
2.47875e-07
2.82137e-06
2.16079e-07
2.83184e-06
1.83645e-07
2.84695e-06
1.57714e-07
2.85878e-06
1.37896e-07
2.86396e-06
1.20728e-07
2.86321e-06
1.04131e-07
2.85929e-06
8.87565e-08
2.85495e-06
7.63215e-08
2.85178e-06
6.83386e-08
2.84992e-06
6.48722e-08
2.84882e-06
6.47238e-08
2.84758e-06
6.6522e-08
6.811e-08
2.84597e-06
3.44054e-06
5.57531e-07
3.4522e-06
3.53344e-07
3.46424e-06
2.81325e-07
3.46395e-06
2.70065e-07
3.46394e-06
2.47878e-07
3.46589e-06
2.14131e-07
3.4672e-06
1.82338e-07
3.46731e-06
1.57607e-07
3.46797e-06
1.37233e-07
3.47122e-06
1.17479e-07
3.47752e-06
9.78312e-08
3.4855e-06
8.07705e-08
3.49288e-06
6.89434e-08
3.49772e-06
6.35065e-08
3.4991e-06
6.34855e-08
3.49722e-06
6.66106e-08
3.49315e-06
7.05915e-08
7.32789e-08
3.48798e-06
4.20053e-06
4.56278e-07
4.26919e-06
2.84688e-07
4.2925e-06
2.5801e-07
4.29477e-06
2.67794e-07
4.28731e-06
2.55341e-07
4.27315e-06
2.2829e-07
4.2545e-06
2.00986e-07
4.23552e-06
1.76592e-07
4.22087e-06
1.51874e-07
4.21325e-06
1.25104e-07
4.21251e-06
9.85666e-08
4.21676e-06
7.65203e-08
4.22363e-06
6.2075e-08
4.23133e-06
5.58088e-08
4.23899e-06
5.5829e-08
4.24631e-06
5.9284e-08
4.25376e-06
6.31474e-08
6.57911e-08
4.26125e-06
5.19904e-06
4.46233e-07
5.18461e-06
2.99117e-07
5.17117e-06
2.71447e-07
5.16939e-06
2.69576e-07
5.17856e-06
2.46172e-07
5.19185e-06
2.15003e-07
5.20136e-06
1.91473e-07
5.20389e-06
1.74065e-07
5.20114e-06
1.54622e-07
5.19595e-06
1.30294e-07
5.19003e-06
1.04487e-07
5.1841e-06
8.24504e-08
5.17892e-06
6.72524e-08
5.17577e-06
5.89647e-08
5.17596e-06
5.56413e-08
5.18028e-06
5.49591e-08
5.18867e-06
5.47619e-08
5.44901e-08
5.19997e-06
6.40911e-06
4.38827e-07
6.38003e-06
3.28198e-07
6.3472e-06
3.04274e-07
6.33679e-06
2.79984e-07
6.34789e-06
2.35072e-07
6.36521e-06
1.97685e-07
6.37364e-06
1.83037e-07
6.36845e-06
1.79255e-07
6.35501e-06
1.68063e-07
6.34218e-06
1.43126e-07
6.33662e-06
1.1005e-07
6.34094e-06
7.81264e-08
6.35422e-06
5.39739e-08
6.37351e-06
3.96813e-08
6.39519e-06
3.39514e-08
6.41629e-06
3.38666e-08
6.43441e-06
3.66371e-08
4.02269e-08
6.44868e-06
7.61486e-06
3.8329e-07
7.66169e-06
2.81359e-07
7.72217e-06
2.43795e-07
7.75968e-06
2.42482e-07
7.7612e-06
2.33544e-07
7.74231e-06
2.16577e-07
7.72975e-06
1.95594e-07
7.73751e-06
1.71498e-07
7.76281e-06
1.42764e-07
7.79608e-06
1.09858e-07
7.82919e-06
7.69397e-08
7.85756e-06
4.97565e-08
7.8794e-06
3.2133e-08
7.89441e-06
2.46698e-08
7.90357e-06
2.479e-08
7.9084e-06
2.90398e-08
7.91073e-06
3.4307e-08
3.82959e-08
7.91266e-06
9.39117e-06
3.97181e-07
9.39677e-06
2.75755e-07
9.40715e-06
2.33422e-07
9.40938e-06
2.40247e-07
9.40054e-06
2.42382e-07
9.39888e-06
2.18235e-07
9.42262e-06
1.71858e-07
9.47427e-06
1.19844e-07
9.5407e-06
7.63426e-08
9.60369e-06
4.68604e-08
9.64958e-06
3.10534e-08
9.6728e-06
2.6538e-08
9.67508e-06
2.98527e-08
9.66255e-06
3.71944e-08
9.64322e-06
4.41236e-08
9.62431e-06
4.79511e-08
9.61154e-06
4.70756e-08
4.20475e-08
9.60779e-06
1.13509e-05
2.77689e-07
1.14184e-05
2.0822e-07
1.14457e-05
2.06127e-07
1.1496e-05
1.89966e-07
1.15738e-05
1.64607e-07
1.16573e-05
1.34642e-07
1.17218e-05
1.07384e-07
1.17562e-05
8.54515e-08
1.17638e-05
6.87542e-08
1.17534e-05
5.72641e-08
1.17341e-05
5.03601e-08
1.17142e-05
4.64588e-08
1.17003e-05
4.37301e-08
1.16968e-05
4.07024e-08
1.17051e-05
3.5793e-08
1.17241e-05
2.90116e-08
1.17507e-05
2.04425e-08
1.13077e-08
1.17814e-05
8.64158e-06
3.56454e-07
8.55412e-06
2.95683e-07
8.50443e-06
2.55818e-07
8.49814e-06
1.96257e-07
8.52364e-06
1.39104e-07
8.55915e-06
9.91336e-08
8.58689e-06
7.96431e-08
8.60143e-06
7.09054e-08
8.6059e-06
6.429e-08
8.60541e-06
5.77554e-08
8.60366e-06
5.21039e-08
8.60289e-06
4.7232e-08
8.60505e-06
4.15702e-08
8.61163e-06
3.41163e-08
8.62268e-06
2.47469e-08
8.63735e-06
1.43469e-08
8.65401e-06
3.77484e-09
-5.58528e-09
8.67091e-06
7.51341e-06
4.52467e-07
7.4772e-06
3.31887e-07
7.49445e-06
2.38573e-07
7.5093e-06
1.81404e-07
7.51299e-06
1.35416e-07
7.51341e-06
9.87114e-08
7.5208e-06
7.22556e-08
7.53655e-06
5.51552e-08
7.55597e-06
4.48695e-08
7.57518e-06
3.85411e-08
7.59331e-06
3.39794e-08
7.61078e-06
2.97633e-08
7.62735e-06
2.49996e-08
7.64216e-06
1.93075e-08
7.65381e-06
1.30894e-08
7.66136e-06
6.79849e-09
7.66414e-06
9.94356e-10
-4.87339e-09
7.66343e-06
6.47011e-06
4.07733e-07
6.50985e-06
2.92142e-07
6.52631e-06
2.22117e-07
6.53403e-06
1.73682e-07
6.54497e-06
1.24473e-07
6.56601e-06
7.76748e-08
6.59502e-06
4.32483e-08
6.6231e-06
2.70744e-08
6.64313e-06
2.48416e-08
6.65515e-06
2.65162e-08
6.6639e-06
2.52315e-08
6.67451e-06
1.91515e-08
6.69007e-06
9.43988e-09
6.71079e-06
-1.41506e-09
6.73434e-06
-1.04555e-08
6.75869e-06
-1.75512e-08
6.78176e-06
-2.20798e-08
-2.42756e-08
6.80116e-06
5.57329e-06
4.49402e-07
5.62038e-06
2.45046e-07
5.64914e-06
1.9336e-07
5.65738e-06
1.6544e-07
5.66539e-06
1.16463e-07
5.68707e-06
5.6002e-08
5.71892e-06
1.13916e-08
5.75239e-06
-6.39165e-09
5.78026e-06
-3.0292e-09
5.80141e-06
5.36408e-09
5.81667e-06
9.9755e-09
5.82787e-06
7.94849e-09
5.83639e-06
9.21972e-10
5.84464e-06
-9.66259e-09
5.85335e-06
-1.91657e-08
5.86237e-06
-2.65752e-08
5.87162e-06
-3.13285e-08
-3.35019e-08
5.88085e-06
4.93644e-06
4.10162e-07
4.93898e-06
2.42507e-07
4.96266e-06
1.69687e-07
5.00193e-06
1.26164e-07
5.03275e-06
8.56477e-08
5.04337e-06
4.53819e-08
5.03954e-06
1.52189e-08
5.03548e-06
-2.32698e-09
5.04399e-06
-1.15478e-08
5.06868e-06
-1.93241e-08
5.10387e-06
-2.52165e-08
5.13967e-06
-2.78452e-08
5.1679e-06
-2.73089e-08
5.18343e-06
-2.51921e-08
5.1874e-06
-2.31373e-08
5.18327e-06
-2.2442e-08
5.17554e-06
-2.36064e-08
-2.60287e-08
5.16807e-06
4.24195e-06
3.75578e-07
4.27303e-06
2.11431e-07
4.32936e-06
1.13353e-07
4.3943e-06
6.12216e-08
4.44261e-06
3.73367e-08
4.4633e-06
2.46968e-08
4.46512e-06
1.33947e-08
4.46393e-06
-1.13545e-09
4.47057e-06
-1.81914e-08
4.48177e-06
-3.0519e-08
4.49361e-06
-3.70571e-08
4.50372e-06
-3.79593e-08
4.51196e-06
-3.55495e-08
4.51972e-06
-3.29485e-08
4.5285e-06
-3.19162e-08
4.53881e-06
-3.27543e-08
4.55009e-06
-3.48798e-08
-3.68492e-08
4.56091e-06
3.71611e-06
2.11242e-07
3.7946e-06
1.32943e-07
3.83071e-06
7.7245e-08
3.85077e-06
4.11568e-08
3.86911e-06
1.90042e-08
3.8889e-06
4.90237e-09
3.91019e-06
-7.89077e-09
3.93241e-06
-2.33621e-08
3.95097e-06
-3.67437e-08
3.96333e-06
-4.28861e-08
3.96908e-06
-4.2807e-08
3.97106e-06
-3.99382e-08
3.97278e-06
-3.72729e-08
3.97645e-06
-3.66167e-08
3.98255e-06
-3.8017e-08
3.99035e-06
-4.05533e-08
3.99853e-06
-4.30543e-08
-4.42466e-08
4.00592e-06
3.26092e-06
2.31645e-07
3.32221e-06
7.16582e-08
3.35267e-06
4.67855e-08
3.37521e-06
1.86133e-08
3.40059e-06
-6.37581e-09
3.42482e-06
-1.93306e-08
3.44213e-06
-2.51913e-08
3.45176e-06
-3.29996e-08
3.45793e-06
-4.29157e-08
3.46551e-06
-5.04601e-08
3.4766e-06
-5.38955e-08
3.4905e-06
-5.38358e-08
3.50461e-06
-5.13879e-08
3.51583e-06
-4.78328e-08
3.52217e-06
-4.43593e-08
3.52345e-06
-4.18334e-08
3.52088e-06
-4.0483e-08
-4.03801e-08
3.51701e-06
2.83371e-06
1.84492e-07
2.91094e-06
-5.56989e-09
2.97357e-06
-1.5846e-08
3.01626e-06
-2.40742e-08
3.03598e-06
-2.61045e-08
3.04491e-06
-2.82533e-08
3.05628e-06
-3.65631e-08
3.07111e-06
-4.78283e-08
3.08433e-06
-5.61419e-08
3.09281e-06
-5.8932e-08
3.09682e-06
-5.79076e-08
3.09838e-06
-5.53999e-08
3.09916e-06
-5.21618e-08
3.09965e-06
-4.83311e-08
3.09979e-06
-4.44987e-08
3.09955e-06
-4.15881e-08
3.09922e-06
-4.01568e-08
-4.06194e-08
3.09946e-06
2.56092e-06
4.6758e-08
2.59657e-06
-4.1224e-08
2.61091e-06
-3.01853e-08
2.627e-06
-4.01648e-08
2.6424e-06
-4.1499e-08
2.65786e-06
-4.37177e-08
2.67334e-06
-5.20427e-08
2.68526e-06
-5.97451e-08
2.69004e-06
-6.09268e-08
2.68722e-06
-5.61081e-08
2.67875e-06
-4.94369e-08
2.66736e-06
-4.40137e-08
2.65544e-06
-4.02436e-08
2.64451e-06
-3.73977e-08
2.63514e-06
-3.51241e-08
2.62714e-06
-3.35914e-08
2.62002e-06
-3.30341e-08
-3.35268e-08
2.61292e-06
2.16607e-06
2.12485e-06
2.09466e-06
2.0545e-06
2.013e-06
1.96928e-06
1.91724e-06
1.85749e-06
1.79657e-06
1.74046e-06
1.69102e-06
1.64701e-06
1.60677e-06
1.56937e-06
1.53424e-06
1.50065e-06
1.46762e-06
1.43409e-06
1.91087e-08
-1.91087e-08
3.49943e-08
-1.58856e-08
4.74074e-08
-1.24131e-08
5.48016e-08
-7.39423e-09
5.60508e-08
-1.24917e-09
5.07472e-08
5.30357e-09
3.8292e-08
1.24552e-08
1.81912e-08
2.01009e-08
-9.9932e-09
2.81844e-08
-4.66499e-08
3.66567e-08
-9.21567e-08
4.55068e-08
-1.46864e-07
5.47076e-08
-2.11075e-07
6.42108e-08
-2.85014e-07
7.39391e-08
-3.68802e-07
8.37881e-08
-4.62431e-07
9.36291e-08
-5.65746e-07
1.03315e-07
-6.78432e-07
1.12686e-07
-8.00017e-07
1.21585e-07
-9.29897e-07
1.2988e-07
-1.06744e-06
1.37544e-07
-1.2118e-06
1.44358e-07
-1.36176e-06
1.49965e-07
-1.51613e-06
1.54368e-07
-1.67362e-06
1.57486e-07
-1.83284e-06
1.59218e-07
-1.9923e-06
1.59463e-07
-2.15043e-06
1.58127e-07
-2.30555e-06
1.55125e-07
-2.45592e-06
1.50371e-07
-2.59971e-06
1.4379e-07
-2.73504e-06
1.35327e-07
-2.85999e-06
1.24952e-07
-2.97267e-06
1.1268e-07
-3.07125e-06
9.8579e-08
-3.15402e-06
8.27674e-08
-3.21948e-06
6.54648e-08
-3.26645e-06
4.6972e-08
-3.29404e-06
2.75862e-08
-3.30176e-06
7.71653e-09
-3.28975e-06
-1.20118e-08
-3.25848e-06
-3.12617e-08
-3.20867e-06
-4.98148e-08
-3.14125e-06
-6.74169e-08
-3.05732e-06
-8.39302e-08
-2.95812e-06
-9.92004e-08
-2.84501e-06
-1.13113e-07
-2.71941e-06
-1.25598e-07
-2.5828e-06
-1.36611e-07
-2.43666e-06
-1.46137e-07
-2.28249e-06
-1.54172e-07
-2.12177e-06
-1.6072e-07
-1.95597e-06
-1.65797e-07
-1.78655e-06
-1.69427e-07
-1.6149e-06
-1.71647e-07
-1.44239e-06
-1.72508e-07
-1.27029e-06
-1.72098e-07
-1.09978e-06
-1.7051e-07
-9.31926e-07
-1.67858e-07
-7.67623e-07
-1.64303e-07
-6.07687e-07
-1.59936e-07
-4.52735e-07
-1.54952e-07
-3.03291e-07
-1.49444e-07
-1.59712e-07
-1.4358e-07
-2.24911e-08
-1.3722e-07
1.08805e-07
-1.31296e-07
2.3373e-07
-1.24925e-07
3.52318e-07
-1.18588e-07
4.64641e-07
-1.12323e-07
5.70812e-07
-1.06171e-07
6.70981e-07
-1.00168e-07
7.65319e-07
-9.4338e-08
8.54015e-07
-8.86968e-08
9.37271e-07
-8.32553e-08
1.01529e-06
-7.80195e-08
1.08828e-06
-7.29922e-08
1.15646e-06
-6.81736e-08
1.22002e-06
-6.35623e-08
1.27917e-06
-5.91559e-08
1.33413e-06
-5.49513e-08
1.38507e-06
-5.09451e-08
1.4322e-06
-4.71335e-08
1.47572e-06
-4.35128e-08
1.5158e-06
-4.00791e-08
1.55262e-06
-3.68284e-08
1.58638e-06
-3.37567e-08
1.61724e-06
-3.08598e-08
1.64537e-06
-2.81333e-08
1.67095e-06
-2.55727e-08
1.69412e-06
-2.31733e-08
1.71505e-06
-2.093e-08
1.73389e-06
-1.88375e-08
1.75078e-06
-1.68901e-08
1.76586e-06
-1.50821e-08
1.77927e-06
-1.3407e-08
1.79113e-06
-1.18589e-08
1.80156e-06
-1.04315e-08
1.81068e-06
-9.1191e-09
1.81859e-06
-7.91505e-09
1.8254e-06
-6.81215e-09
1.83121e-06
-5.80375e-09
1.83609e-06
-4.88373e-09
1.84014e-06
-4.04491e-09
1.84342e-06
-3.28238e-09
1.84601e-06
-2.58915e-09
1.84797e-06
-1.95929e-09
1.84936e-06
-1.38919e-09
1.85022e-06
-8.69174e-10
1.85062e-06
-3.98771e-10
1.85059e-06
3.01437e-11
1.85014e-06
4.48555e-10
1.84931e-06
8.30573e-10
1.84814e-06
1.1763e-09
1.84665e-06
1.48699e-09
1.84488e-06
1.76889e-09
1.84286e-06
2.02697e-09
1.8406e-06
2.25974e-09
1.83813e-06
2.4686e-09
1.83547e-06
2.65964e-09
1.83263e-06
2.83574e-09
1.82963e-06
2.99717e-09
1.82649e-06
3.14698e-09
1.8232e-06
3.28364e-09
1.8198e-06
3.40644e-09
1.81628e-06
3.51322e-09
1.81268e-06
3.60116e-09
1.80901e-06
3.66988e-09
1.80529e-06
3.7217e-09
1.80153e-06
3.76125e-09
1.79774e-06
3.7938e-09
1.79391e-06
3.82375e-09
1.79006e-06
3.85403e-09
1.78617e-06
3.88577e-09
1.78225e-06
3.91908e-09
1.7783e-06
3.95341e-09
1.77431e-06
3.98817e-09
1.77029e-06
4.02286e-09
1.76623e-06
4.05735e-09
1.76214e-06
4.09151e-09
1.75801e-06
4.12541e-09
1.75386e-06
4.15917e-09
1.74966e-06
4.19292e-09
1.74544e-06
4.22683e-09
1.74117e-06
4.261e-09
1.73688e-06
4.29553e-09
1.73255e-06
4.33053e-09
1.72818e-06
4.36614e-09
1.72378e-06
4.40254e-09
1.71934e-06
4.43994e-09
1.71486e-06
4.47858e-09
1.71034e-06
4.51872e-09
1.70578e-06
4.56076e-09
1.70118e-06
4.60507e-09
1.69652e-06
4.65222e-09
1.69182e-06
4.7028e-09
1.68706e-06
4.75783e-09
1.68225e-06
4.81811e-09
1.67736e-06
4.88548e-09
1.6724e-06
4.961e-09
1.66735e-06
5.04772e-09
1.6622e-06
5.14789e-09
1.65694e-06
5.26514e-09
1.65153e-06
5.40637e-09
1.64596e-06
5.57166e-09
1.64018e-06
5.78392e-09
1.63415e-06
6.02442e-09
1.62779e-06
6.3665e-09
1.62106e-06
6.72107e-09
1.61375e-06
7.31906e-09
1.60592e-06
7.83019e-09
1.59694e-06
8.97948e-09
1.58728e-06
9.65503e-09
1.57516e-06
1.21183e-08
1.56239e-06
1.27772e-08
1.54368e-06
1.87024e-08
1.5252e-06
1.84834e-08
1.49073e-06
3.44669e-08
1.45965e-06
3.10835e-08
1.37586e-06
8.37892e-08
7.9436e-08
1.29642e-06
-3.34592e-08
1.43505e-08
-7.96035e-08
3.02587e-08
-1.27952e-07
3.59357e-08
-1.795e-07
4.41535e-08
-2.3434e-07
5.35912e-08
-2.93049e-07
6.40125e-08
-3.55843e-07
7.52483e-08
-4.22972e-07
8.72303e-08
-4.94695e-07
9.99076e-08
-5.71273e-07
1.13235e-07
-6.52903e-07
1.27137e-07
-7.39689e-07
1.41493e-07
-8.31603e-07
1.56126e-07
-9.28489e-07
1.70825e-07
-1.03013e-06
1.85433e-07
-1.13628e-06
1.99776e-07
-1.24663e-06
2.1366e-07
-1.36083e-06
2.2689e-07
-1.47852e-06
2.3927e-07
-1.59925e-06
2.50612e-07
-1.72245e-06
2.60749e-07
-1.8476e-06
2.69509e-07
-1.97433e-06
2.76692e-07
-2.10208e-06
2.82119e-07
-2.2302e-06
2.85607e-07
-2.35794e-06
2.8696e-07
-2.48444e-06
2.85961e-07
-2.60874e-06
2.82421e-07
-2.72983e-06
2.76221e-07
-2.84658e-06
2.67118e-07
-2.95766e-06
2.54875e-07
-3.06164e-06
2.39306e-07
-3.15698e-06
2.20289e-07
-3.24209e-06
1.97788e-07
-3.31539e-06
1.7188e-07
-3.37539e-06
1.42772e-07
-3.42074e-06
1.10817e-07
-3.45028e-06
7.65067e-08
-3.46315e-06
4.0455e-08
-3.45901e-06
3.57971e-09
-3.43595e-06
-3.50708e-08
-3.39426e-06
-7.29514e-08
-3.33428e-06
-1.09795e-07
-3.25669e-06
-1.45005e-07
-3.16257e-06
-1.78051e-07
-3.0532e-06
-2.08573e-07
-2.92998e-06
-2.36332e-07
-2.79439e-06
-2.61193e-07
-2.6479e-06
-2.83095e-07
-2.49201e-06
-3.02024e-07
-2.32819e-06
-3.17991e-07
-2.15791e-06
-3.31006e-07
-1.98261e-06
-3.41096e-07
-1.80374e-06
-3.48301e-07
-1.6227e-06
-3.52688e-07
-1.44084e-06
-3.54368e-07
-1.25943e-06
-3.53502e-07
-1.07966e-06
-3.50281e-07
-9.02564e-07
-3.44955e-07
-7.29088e-07
-3.37779e-07
-5.59932e-07
-3.29092e-07
-3.95735e-07
-3.19148e-07
-2.36951e-07
-3.08228e-07
-8.39177e-08
-2.96613e-07
6.33848e-08
-2.84523e-07
2.04379e-07
-2.7229e-07
3.39345e-07
-2.59892e-07
4.68275e-07
-2.47519e-07
5.91248e-07
-2.35295e-07
7.08387e-07
-2.2331e-07
8.19848e-07
-2.1163e-07
9.25808e-07
-2.00298e-07
1.02645e-06
-1.89342e-07
1.12198e-06
-1.78781e-07
1.21258e-06
-1.68622e-07
1.29845e-06
-1.58866e-07
1.37979e-06
-1.49512e-07
1.45678e-06
-1.40553e-07
1.52961e-06
-1.31982e-07
1.59845e-06
-1.23789e-07
1.66347e-06
-1.15965e-07
1.72483e-06
-1.085e-07
1.78271e-06
-1.01385e-07
1.83724e-06
-9.46103e-08
1.88857e-06
-8.81656e-08
1.93686e-06
-8.2042e-08
1.98223e-06
-7.62301e-08
2.02482e-06
-7.07207e-08
2.06475e-06
-6.55048e-08
2.10215e-06
-6.05729e-08
2.13714e-06
-5.59159e-08
2.16982e-06
-5.15243e-08
2.20032e-06
-4.73887e-08
2.22874e-06
-4.34994e-08
2.25518e-06
-3.98469e-08
2.27974e-06
-3.64214e-08
2.30252e-06
-3.3213e-08
2.32361e-06
-3.02119e-08
2.34311e-06
-2.74081e-08
2.36109e-06
-2.47916e-08
2.37764e-06
-2.23526e-08
2.39283e-06
-2.00817e-08
2.40676e-06
-1.7969e-08
2.41948e-06
-1.60056e-08
2.43107e-06
-1.41823e-08
2.4416e-06
-1.24897e-08
2.45114e-06
-1.092e-08
2.45973e-06
-9.46411e-09
2.46745e-06
-8.11475e-09
2.47434e-06
-6.86783e-09
2.4805e-06
-5.70655e-09
2.48596e-06
-4.62706e-09
2.49076e-06
-3.62795e-09
2.49495e-06
-2.7046e-09
2.49857e-06
-1.84819e-09
2.50165e-06
-1.05449e-09
2.50423e-06
-3.16834e-10
2.50633e-06
3.64949e-10
2.50799e-06
1.00186e-09
2.50923e-06
1.59227e-09
2.51009e-06
2.13779e-09
2.51059e-06
2.64606e-09
2.51076e-06
3.11207e-09
2.51063e-06
3.53876e-09
2.51022e-06
3.92725e-09
2.50954e-06
4.27692e-09
2.50862e-06
4.58853e-09
2.50748e-06
4.86467e-09
2.50613e-06
5.10994e-09
2.5046e-06
5.33056e-09
2.50289e-06
5.5336e-09
2.50101e-06
5.72553e-09
2.49899e-06
5.91122e-09
2.49681e-06
6.09347e-09
2.49449e-06
6.27309e-09
2.49203e-06
6.4495e-09
2.48943e-06
6.62174e-09
2.4867e-06
6.78865e-09
2.48385e-06
6.94953e-09
2.48087e-06
7.10407e-09
2.47777e-06
7.25231e-09
2.47457e-06
7.39448e-09
2.47127e-06
7.53113e-09
2.46787e-06
7.66272e-09
2.46437e-06
7.78985e-09
2.46079e-06
7.91304e-09
2.45712e-06
8.03289e-09
2.45337e-06
8.15001e-09
2.44955e-06
8.26511e-09
2.44565e-06
8.37886e-09
2.44168e-06
8.49206e-09
2.43763e-06
8.60558e-09
2.43352e-06
8.72033e-09
2.42933e-06
8.83753e-09
2.42508e-06
8.95853e-09
2.42075e-06
9.08495e-09
2.41635e-06
9.21895e-09
2.41187e-06
9.36275e-09
2.40731e-06
9.52027e-09
2.40266e-06
9.69393e-09
2.39792e-06
9.89211e-09
2.39307e-06
1.01149e-08
2.38809e-06
1.03829e-08
2.38298e-06
1.06847e-08
2.37769e-06
1.1075e-08
2.37221e-06
1.1502e-08
2.36646e-06
1.21149e-08
2.36045e-06
1.27352e-08
2.35399e-06
1.37803e-08
2.34714e-06
1.46759e-08
2.3395e-06
1.66249e-08
2.33129e-06
1.78576e-08
2.32156e-06
2.18548e-08
2.31098e-06
2.33543e-08
2.29727e-06
3.24153e-08
2.28196e-06
3.37966e-08
2.25969e-06
5.67295e-08
2.23247e-06
5.83105e-08
2.19282e-06
1.23439e-07
1.35039e-07
2.13721e-06
-5.94751e-08
7.38256e-08
-1.33838e-07
1.04622e-07
-2.07953e-07
1.1005e-07
-2.82475e-07
1.18675e-07
-3.57443e-07
1.28559e-07
-4.33172e-07
1.39741e-07
-5.09956e-07
1.52033e-07
-5.88078e-07
1.65352e-07
-6.67759e-07
1.79589e-07
-7.49144e-07
1.9462e-07
-8.32303e-07
2.10296e-07
-9.17277e-07
2.26466e-07
-1.00414e-06
2.42985e-07
-1.09301e-06
2.59695e-07
-1.18401e-06
2.76435e-07
-1.27727e-06
2.9304e-07
-1.37294e-06
3.0933e-07
-1.47116e-06
3.25113e-07
-1.57209e-06
3.40196e-07
-1.67586e-06
3.54386e-07
-1.78262e-06
3.67502e-07
-1.89247e-06
3.79357e-07
-2.0055e-06
3.89722e-07
-2.12169e-06
3.98311e-07
-2.24086e-06
4.04775e-07
-2.3626e-06
4.08708e-07
-2.4863e-06
4.09661e-07
-2.61104e-06
4.07158e-07
-2.73553e-06
4.00713e-07
-2.85824e-06
3.89826e-07
-2.97739e-06
3.74022e-07
-3.09098e-06
3.52894e-07
-3.19684e-06
3.2615e-07
-3.29271e-06
2.93658e-07
-3.37631e-06
2.55484e-07
-3.44546e-06
2.1192e-07
-3.49815e-06
1.63512e-07
-3.53273e-06
1.11082e-07
-3.548e-06
5.57227e-08
-3.54339e-06
-1.03189e-09
-3.51778e-06
-6.06726e-08
-3.47181e-06
-1.18921e-07
-3.40638e-06
-1.75227e-07
-3.32265e-06
-2.28738e-07
-3.22199e-06
-2.78705e-07
-3.10597e-06
-3.24595e-07
-2.97621e-06
-3.66093e-07
-2.83434e-06
-4.0306e-07
-2.68195e-06
-4.35489e-07
-2.52054e-06
-4.63437e-07
-2.35156e-06
-4.86966e-07
-2.17646e-06
-5.06105e-07
-1.99668e-06
-5.20876e-07
-1.81367e-06
-5.31314e-07
-1.62887e-06
-5.37491e-07
-1.44368e-06
-5.39554e-07
-1.25946e-06
-5.37721e-07
-1.07743e-06
-5.32309e-07
-8.98653e-07
-5.23735e-07
-7.24035e-07
-5.12398e-07
-5.54327e-07
-4.988e-07
-3.90039e-07
-4.83437e-07
-2.31663e-07
-4.66603e-07
-7.93945e-08
-4.48882e-07
6.66462e-08
-4.30564e-07
2.0637e-07
-4.12013e-07
3.39855e-07
-3.93376e-07
4.67198e-07
-3.74862e-07
5.88542e-07
-3.5664e-07
7.04065e-07
-3.38833e-07
8.13962e-07
-3.21527e-07
9.18444e-07
-3.04779e-07
1.01773e-06
-2.88624e-07
1.11203e-06
-2.73081e-07
1.20156e-06
-2.58153e-07
1.28653e-06
-2.4384e-07
1.36715e-06
-2.30131e-07
1.44361e-06
-2.17014e-07
1.5161e-06
-2.04473e-07
1.5848e-06
-1.92492e-07
1.64989e-06
-1.81054e-07
1.71154e-06
-1.70142e-07
1.76989e-06
-1.59738e-07
1.8251e-06
-1.49825e-07
1.87732e-06
-1.40386e-07
1.92669e-06
-1.31406e-07
1.97332e-06
-1.22868e-07
2.01736e-06
-1.14757e-07
2.05891e-06
-1.07058e-07
2.0981e-06
-9.97551e-08
2.13501e-06
-9.28343e-08
2.16977e-06
-8.62809e-08
2.20246e-06
-8.00806e-08
2.23318e-06
-7.42191e-08
2.26202e-06
-6.86828e-08
2.28906e-06
-6.34579e-08
2.31437e-06
-5.85312e-08
2.33805e-06
-5.38895e-08
2.36016e-06
-4.952e-08
2.38078e-06
-4.54098e-08
2.39998e-06
-4.15465e-08
2.41781e-06
-3.79183e-08
2.43436e-06
-3.45131e-08
2.44967e-06
-3.13196e-08
2.46381e-06
-2.83267e-08
2.47685e-06
-2.55233e-08
2.48883e-06
-2.2899e-08
2.49981e-06
-2.04442e-08
2.50984e-06
-1.81485e-08
2.51898e-06
-1.60025e-08
2.52726e-06
-1.3995e-08
2.53475e-06
-1.21181e-08
2.54149e-06
-1.0366e-08
2.54752e-06
-8.73256e-09
2.55288e-06
-7.2096e-09
2.55762e-06
-5.78892e-09
2.56177e-06
-4.4665e-09
2.56537e-06
-3.23733e-09
2.56846e-06
-2.09266e-09
2.57108e-06
-1.02611e-09
2.57326e-06
-3.77746e-11
2.57501e-06
8.941e-10
2.57637e-06
1.75125e-09
2.57736e-06
2.54551e-09
2.57801e-06
3.27906e-09
2.57833e-06
3.95353e-09
2.57835e-06
4.57124e-09
2.57808e-06
5.13547e-09
2.57754e-06
5.65106e-09
2.57675e-06
6.12427e-09
2.57572e-06
6.56235e-09
2.57447e-06
6.97278e-09
2.57302e-06
7.36181e-09
2.57138e-06
7.73385e-09
2.56956e-06
8.09122e-09
2.56758e-06
8.43477e-09
2.56543e-06
8.76431e-09
2.56314e-06
9.07953e-09
2.56071e-06
9.38014e-09
2.55815e-06
9.66633e-09
2.55546e-06
9.9386e-09
2.55266e-06
1.01977e-08
2.54975e-06
1.04446e-08
2.54673e-06
1.06803e-08
2.54361e-06
1.09059e-08
2.5404e-06
1.11224e-08
2.53711e-06
1.13308e-08
2.53372e-06
1.15323e-08
2.53026e-06
1.1728e-08
2.52672e-06
1.19191e-08
2.52311e-06
1.21068e-08
2.51942e-06
1.22925e-08
2.51566e-06
1.24778e-08
2.51183e-06
1.26641e-08
2.50794e-06
1.28538e-08
2.50398e-06
1.30488e-08
2.49994e-06
1.32527e-08
2.49584e-06
1.34676e-08
2.49166e-06
1.37005e-08
2.4874e-06
1.39521e-08
2.48305e-06
1.42374e-08
2.47862e-06
1.45515e-08
2.47407e-06
1.49285e-08
2.46941e-06
1.53448e-08
2.4646e-06
1.58829e-08
2.45964e-06
1.64636e-08
2.45446e-06
1.7292e-08
2.44907e-06
1.81324e-08
2.44334e-06
1.95089e-08
2.43727e-06
2.07458e-08
2.43068e-06
2.32167e-08
2.42349e-06
2.50427e-08
2.4155e-06
2.98444e-08
2.4063e-06
3.25583e-08
2.39599e-06
4.27225e-08
2.3827e-06
4.70852e-08
2.36881e-06
7.06172e-08
2.34708e-06
8.0047e-08
2.33116e-06
1.39355e-07
1.68785e-07
2.29742e-06
-6.23448e-08
1.3617e-07
-1.39944e-07
1.82222e-07
-2.16798e-07
1.86904e-07
-2.93115e-07
1.94992e-07
-3.68959e-07
2.04403e-07
-4.44538e-07
2.15321e-07
-5.20002e-07
2.27496e-07
-5.9557e-07
2.40921e-07
-6.71493e-07
2.55511e-07
-7.47998e-07
2.71126e-07
-8.25348e-07
2.87645e-07
-9.03857e-07
3.04976e-07
-9.83885e-07
3.23013e-07
-1.06583e-06
3.41635e-07
-1.15009e-06
3.60702e-07
-1.23711e-06
3.80056e-07
-1.3273e-06
3.99519e-07
-1.4211e-06
4.18917e-07
-1.519e-06
4.38092e-07
-1.62148e-06
4.56867e-07
-1.72898e-06
4.75003e-07
-1.8418e-06
4.92181e-07
-1.96007e-06
5.07987e-07
-2.08367e-06
5.21908e-07
-2.21222e-06
5.33331e-07
-2.34507e-06
5.41557e-07
-2.48123e-06
5.45823e-07
-2.6194e-06
5.45326e-07
-2.75796e-06
5.39273e-07
-2.89503e-06
5.26897e-07
-3.02849e-06
5.07483e-07
-3.156e-06
4.80397e-07
-3.27498e-06
4.45134e-07
-3.38273e-06
4.01412e-07
-3.47652e-06
3.4927e-07
-3.55373e-06
2.89131e-07
-3.61206e-06
2.21843e-07
-3.64964e-06
1.48665e-07
-3.66516e-06
7.12333e-08
-3.65742e-06
-8.7682e-09
-3.62702e-06
-9.10701e-08
-3.57414e-06
-1.718e-07
-3.49988e-06
-2.49494e-07
-3.40593e-06
-3.22683e-07
-3.29433e-06
-3.90304e-07
-3.16721e-06
-4.51721e-07
-3.02663e-06
-5.06671e-07
-2.87452e-06
-5.55165e-07
-2.71262e-06
-5.97396e-07
-2.54243e-06
-6.33627e-07
-2.36534e-06
-6.64054e-07
-2.1827e-06
-6.88738e-07
-1.9959e-06
-7.07679e-07
-1.80635e-06
-7.20867e-07
-1.61552e-06
-7.28317e-07
-1.4249e-06
-7.30181e-07
-1.23584e-06
-7.26775e-07
-1.04962e-06
-7.18532e-07
-8.67332e-07
-7.06021e-07
-6.89882e-07
-6.89847e-07
-5.18006e-07
-6.70676e-07
-3.52298e-07
-6.49144e-07
-1.92982e-07
-6.2592e-07
-4.04604e-08
-6.01403e-07
1.05593e-07
-5.76617e-07
2.4488e-07
-5.513e-07
3.77578e-07
-5.26075e-07
5.03883e-07
-5.01166e-07
6.2401e-07
-4.76767e-07
7.38196e-07
-4.53019e-07
8.46684e-07
-4.30015e-07
9.49717e-07
-4.07812e-07
1.04753e-06
-3.86442e-07
1.14037e-06
-3.65917e-07
1.22845e-06
-3.46234e-07
1.31199e-06
-3.27382e-07
1.39121e-06
-3.09343e-07
1.46629e-06
-2.92096e-07
1.53743e-06
-2.75617e-07
1.60482e-06
-2.59882e-07
1.66863e-06
-2.44864e-07
1.72903e-06
-2.30539e-07
1.78618e-06
-2.16883e-07
1.84022e-06
-2.03871e-07
1.89132e-06
-1.9148e-07
1.9396e-06
-1.79687e-07
1.9852e-06
-1.6847e-07
2.02825e-06
-1.57806e-07
2.06887e-06
-1.47675e-07
2.10717e-06
-1.38055e-07
2.14326e-06
-1.28926e-07
2.17724e-06
-1.20267e-07
2.20922e-06
-1.12061e-07
2.23929e-06
-1.04286e-07
2.26753e-06
-9.69259e-08
2.29404e-06
-8.99613e-08
2.31888e-06
-8.33752e-08
2.34214e-06
-7.71507e-08
2.36389e-06
-7.12715e-08
2.38421e-06
-6.57216e-08
2.40315e-06
-6.04857e-08
2.42078e-06
-5.5549e-08
2.43716e-06
-5.08973e-08
2.45236e-06
-4.65166e-08
2.46642e-06
-4.23937e-08
2.47942e-06
-3.85156e-08
2.49139e-06
-3.48698e-08
2.50239e-06
-3.14445e-08
2.51247e-06
-2.82274e-08
2.52167e-06
-2.52076e-08
2.53005e-06
-2.23743e-08
2.53765e-06
-1.9717e-08
2.54451e-06
-1.72264e-08
2.55067e-06
-1.48944e-08
2.55618e-06
-1.27131e-08
2.56106e-06
-1.06726e-08
2.56536e-06
-8.7634e-09
2.5691e-06
-6.98032e-09
2.57232e-06
-5.31636e-09
2.57506e-06
-3.76292e-09
2.57734e-06
-2.31468e-09
2.57919e-06
-9.59778e-10
2.58064e-06
2.97086e-10
2.58172e-06
1.46701e-09
2.58245e-06
2.55343e-09
2.58284e-06
3.5599e-09
2.58292e-06
4.49019e-09
2.58271e-06
5.34904e-09
2.58222e-06
6.14258e-09
2.58147e-06
6.8774e-09
2.58047e-06
7.56079e-09
2.57924e-06
8.19989e-09
2.5778e-06
8.8011e-09
2.57616e-06