/*--------------------------------*- C++ -*----------------------------------*\
  =========                 |
  \\      /  F ield         | OpenFOAM: The Open Source CFD Toolbox
   \\    /   O peration     | Website:  https://openfoam.org
    \\  /    A nd           | Version:  7
     \\/     M anipulation  |
\*---------------------------------------------------------------------------*/
FoamFile
{
    version     2.0;
    format      ascii;
    class       volScalarField;
    location    "0.022";
    object      pPrime2Mean;
}
// * * * * * * * * * * * * * * * * * * * * * * * * * * * * * * * * * * * * * //

dimensions      [0 4 -4 0 0 0 0];

internalField   nonuniform List<scalar> 
12225
(
1.61467e+07
1.58888e+07
1.56227e+07
1.53661e+07
1.51197e+07
1.48828e+07
1.46546e+07
1.44345e+07
1.42217e+07
1.40155e+07
1.38149e+07
1.36192e+07
1.3427e+07
1.32371e+07
1.30473e+07
1.28545e+07
1.26535e+07
1.24305e+07
1.61469e+07
1.58889e+07
1.56228e+07
1.53662e+07
1.51198e+07
1.48829e+07
1.46548e+07
1.44347e+07
1.4222e+07
1.40158e+07
1.38154e+07
1.36198e+07
1.34278e+07
1.32382e+07
1.30489e+07
1.28571e+07
1.26584e+07
1.24416e+07
1.61472e+07
1.58892e+07
1.5623e+07
1.53664e+07
1.51201e+07
1.48833e+07
1.46552e+07
1.44352e+07
1.42226e+07
1.40166e+07
1.38164e+07
1.36211e+07
1.34296e+07
1.32406e+07
1.30524e+07
1.28627e+07
1.26683e+07
1.24648e+07
1.61476e+07
1.58895e+07
1.56234e+07
1.53669e+07
1.51206e+07
1.48839e+07
1.46559e+07
1.44361e+07
1.42236e+07
1.40179e+07
1.3818e+07
1.36232e+07
1.34324e+07
1.32445e+07
1.3058e+07
1.28714e+07
1.26829e+07
1.24926e+07
1.61481e+07
1.58901e+07
1.5624e+07
1.53676e+07
1.51214e+07
1.48848e+07
1.46569e+07
1.44373e+07
1.42252e+07
1.40198e+07
1.38204e+07
1.36263e+07
1.34365e+07
1.325e+07
1.30659e+07
1.28831e+07
1.27012e+07
1.25226e+07
1.61488e+07
1.58908e+07
1.56248e+07
1.53685e+07
1.51224e+07
1.4886e+07
1.46584e+07
1.4439e+07
1.42273e+07
1.40224e+07
1.38237e+07
1.36305e+07
1.3442e+07
1.32574e+07
1.3076e+07
1.28976e+07
1.27225e+07
1.25537e+07
1.61496e+07
1.58918e+07
1.56259e+07
1.53697e+07
1.51238e+07
1.48875e+07
1.46603e+07
1.44413e+07
1.423e+07
1.40258e+07
1.3828e+07
1.36359e+07
1.3449e+07
1.32666e+07
1.30884e+07
1.29145e+07
1.2746e+07
1.25854e+07
1.61507e+07
1.58931e+07
1.56273e+07
1.53712e+07
1.51256e+07
1.48896e+07
1.46627e+07
1.44442e+07
1.42335e+07
1.40301e+07
1.38333e+07
1.36426e+07
1.34575e+07
1.32777e+07
1.3103e+07
1.29337e+07
1.27711e+07
1.26174e+07
1.61523e+07
1.58947e+07
1.56291e+07
1.53732e+07
1.51278e+07
1.48921e+07
1.46657e+07
1.44478e+07
1.42379e+07
1.40354e+07
1.38399e+07
1.36508e+07
1.34678e+07
1.32906e+07
1.31195e+07
1.29548e+07
1.27975e+07
1.26495e+07
1.61541e+07
1.58968e+07
1.56312e+07
1.53756e+07
1.51305e+07
1.48953e+07
1.46694e+07
1.44522e+07
1.42431e+07
1.40418e+07
1.38477e+07
1.36604e+07
1.34796e+07
1.33054e+07
1.31378e+07
1.29774e+07
1.2825e+07
1.26818e+07
1.6157e+07
1.58993e+07
1.56339e+07
1.53785e+07
1.51337e+07
1.4899e+07
1.46738e+07
1.44574e+07
1.42494e+07
1.40493e+07
1.38568e+07
1.36714e+07
1.34931e+07
1.33218e+07
1.31577e+07
1.30013e+07
1.28531e+07
1.27141e+07
1.61594e+07
1.59021e+07
1.56368e+07
1.53817e+07
1.51373e+07
1.49031e+07
1.46785e+07
1.4463e+07
1.42561e+07
1.40573e+07
1.38663e+07
1.36829e+07
1.35069e+07
1.33383e+07
1.31773e+07
1.30242e+07
1.28795e+07
1.27437e+07
1.61629e+07
1.59054e+07
1.56402e+07
1.53853e+07
1.51414e+07
1.49078e+07
1.46839e+07
1.44693e+07
1.42635e+07
1.40662e+07
1.38768e+07
1.36954e+07
1.35217e+07
1.33557e+07
1.31976e+07
1.30476e+07
1.2906e+07
1.2773e+07
1.61675e+07
1.59097e+07
1.56447e+07
1.53901e+07
1.51467e+07
1.49139e+07
1.4691e+07
1.44776e+07
1.42732e+07
1.40775e+07
1.38901e+07
1.3711e+07
1.35399e+07
1.33768e+07
1.32218e+07
1.3075e+07
1.29364e+07
1.28063e+07
1.61734e+07
1.59154e+07
1.56505e+07
1.53964e+07
1.51538e+07
1.49219e+07
1.47001e+07
1.44881e+07
1.42855e+07
1.40917e+07
1.39067e+07
1.37301e+07
1.35619e+07
1.34019e+07
1.32501e+07
1.31065e+07
1.2971e+07
1.28436e+07
1.61808e+07
1.59228e+07
1.56582e+07
1.54047e+07
1.51629e+07
1.49322e+07
1.47119e+07
1.45016e+07
1.43009e+07
1.41095e+07
1.3927e+07
1.37533e+07
1.35881e+07
1.34312e+07
1.32827e+07
1.31422e+07
1.30097e+07
1.28849e+07
1.619e+07
1.59321e+07
1.56679e+07
1.54152e+07
1.51745e+07
1.49452e+07
1.47266e+07
1.45182e+07
1.43198e+07
1.41309e+07
1.39512e+07
1.37805e+07
1.36184e+07
1.34647e+07
1.33193e+07
1.31818e+07
1.3052e+07
1.29297e+07
1.62007e+07
1.59434e+07
1.568e+07
1.54282e+07
1.51888e+07
1.49611e+07
1.47444e+07
1.45383e+07
1.43423e+07
1.41561e+07
1.39792e+07
1.38114e+07
1.36523e+07
1.35017e+07
1.33591e+07
1.32244e+07
1.30971e+07
1.2977e+07
1.6214e+07
1.59571e+07
1.56944e+07
1.54437e+07
1.52057e+07
1.49797e+07
1.4765e+07
1.45611e+07
1.43676e+07
1.4184e+07
1.40099e+07
1.38449e+07
1.36886e+07
1.35407e+07
1.34007e+07
1.32684e+07
1.31433e+07
1.30251e+07
1.62264e+07
1.59692e+07
1.57069e+07
1.5457e+07
1.52201e+07
1.49954e+07
1.47822e+07
1.458e+07
1.43883e+07
1.42066e+07
1.40344e+07
1.38713e+07
1.37169e+07
1.35708e+07
1.34325e+07
1.33018e+07
1.31781e+07
1.30612e+07
1.62342e+07
1.59775e+07
1.57155e+07
1.54662e+07
1.523e+07
1.50062e+07
1.4794e+07
1.45929e+07
1.44023e+07
1.42218e+07
1.40508e+07
1.38889e+07
1.37356e+07
1.35906e+07
1.34533e+07
1.33235e+07
1.32007e+07
1.30845e+07
1.62407e+07
1.59836e+07
1.57218e+07
1.5473e+07
1.52374e+07
1.50142e+07
1.48027e+07
1.46023e+07
1.44126e+07
1.42328e+07
1.40627e+07
1.39015e+07
1.37491e+07
1.36047e+07
1.34682e+07
1.3339e+07
1.32167e+07
1.3101e+07
1.62439e+07
1.59876e+07
1.57263e+07
1.54778e+07
1.52427e+07
1.50199e+07
1.4809e+07
1.46092e+07
1.44199e+07
1.42408e+07
1.40712e+07
1.39106e+07
1.37586e+07
1.36148e+07
1.34787e+07
1.33499e+07
1.3228e+07
1.31127e+07
1.62466e+07
1.59905e+07
1.57294e+07
1.54813e+07
1.52464e+07
1.5024e+07
1.48134e+07
1.4614e+07
1.44252e+07
1.42464e+07
1.40771e+07
1.3917e+07
1.37654e+07
1.36219e+07
1.34861e+07
1.33576e+07
1.3236e+07
1.31208e+07
1.62483e+07
1.59923e+07
1.57315e+07
1.54836e+07
1.5249e+07
1.50269e+07
1.48165e+07
1.46173e+07
1.44288e+07
1.42502e+07
1.40813e+07
1.39213e+07
1.377e+07
1.36267e+07
1.34912e+07
1.33628e+07
1.32414e+07
1.31264e+07
1.62486e+07
1.59934e+07
1.57329e+07
1.54852e+07
1.52508e+07
1.50288e+07
1.48186e+07
1.46196e+07
1.44312e+07
1.42529e+07
1.40841e+07
1.39243e+07
1.37731e+07
1.363e+07
1.34946e+07
1.33664e+07
1.3245e+07
1.31301e+07
1.62488e+07
1.5994e+07
1.57338e+07
1.54862e+07
1.52519e+07
1.503e+07
1.48199e+07
1.4621e+07
1.44328e+07
1.42545e+07
1.40858e+07
1.39262e+07
1.37751e+07
1.36321e+07
1.34967e+07
1.33686e+07
1.32474e+07
1.31325e+07
1.62491e+07
1.59944e+07
1.57343e+07
1.54868e+07
1.52526e+07
1.50308e+07
1.48208e+07
1.46219e+07
1.44337e+07
1.42556e+07
1.40869e+07
1.39273e+07
1.37763e+07
1.36334e+07
1.34981e+07
1.337e+07
1.32488e+07
1.3134e+07
1.62493e+07
1.59947e+07
1.57346e+07
1.54872e+07
1.52529e+07
1.50312e+07
1.48212e+07
1.46224e+07
1.44342e+07
1.42561e+07
1.40875e+07
1.3928e+07
1.3777e+07
1.3634e+07
1.34988e+07
1.33707e+07
1.32495e+07
1.31348e+07
1.62494e+07
1.59948e+07
1.57347e+07
1.54873e+07
1.52531e+07
1.50313e+07
1.48214e+07
1.46226e+07
1.44344e+07
1.42563e+07
1.40878e+07
1.39282e+07
1.37772e+07
1.36343e+07
1.34991e+07
1.3371e+07
1.32498e+07
1.31351e+07
1.05032e+07
1.05023e+07
1.05007e+07
1.04981e+07
1.04947e+07
1.04903e+07
1.04851e+07
1.04789e+07
1.04717e+07
1.04636e+07
1.04546e+07
1.04446e+07
1.04336e+07
1.04216e+07
1.04086e+07
1.03946e+07
1.03796e+07
1.03637e+07
1.03467e+07
1.03287e+07
1.03097e+07
1.02898e+07
1.02688e+07
1.02469e+07
1.0224e+07
1.02001e+07
1.01753e+07
1.01495e+07
1.01228e+07
1.00951e+07
1.00666e+07
1.00371e+07
1.00067e+07
9.97541e+06
9.94326e+06
9.91025e+06
9.8764e+06
9.84171e+06
9.8062e+06
9.76989e+06
9.73278e+06
9.69489e+06
9.65623e+06
9.61683e+06
9.57668e+06
9.53581e+06
9.49423e+06
9.45196e+06
9.40899e+06
9.36536e+06
9.32108e+06
9.27614e+06
9.23058e+06
9.1844e+06
9.13761e+06
9.09022e+06
9.04226e+06
8.99372e+06
8.94463e+06
8.89498e+06
8.84481e+06
8.7941e+06
8.74288e+06
8.69116e+06
8.63895e+06
8.58625e+06
8.53308e+06
8.47944e+06
8.42535e+06
8.37082e+06
8.31585e+06
8.26045e+06
8.20464e+06
8.14842e+06
8.09179e+06
8.03478e+06
7.97738e+06
7.9196e+06
7.86145e+06
7.80295e+06
7.74409e+06
7.68488e+06
7.62534e+06
7.56546e+06
7.50526e+06
7.44474e+06
7.38392e+06
7.32278e+06
7.26135e+06
7.19963e+06
7.13762e+06
7.07534e+06
7.01278e+06
6.94996e+06
6.88687e+06
6.82354e+06
6.75995e+06
6.69613e+06
6.63207e+06
6.56778e+06
6.50327e+06
6.43854e+06
6.37359e+06
6.30845e+06
6.2431e+06
6.17756e+06
6.11183e+06
6.04592e+06
5.97983e+06
5.91358e+06
5.84716e+06
5.78058e+06
5.71385e+06
5.64698e+06
5.57997e+06
5.51283e+06
5.44556e+06
5.37818e+06
5.31068e+06
5.24308e+06
5.17538e+06
5.10759e+06
5.03971e+06
4.97176e+06
4.90373e+06
4.83565e+06
4.76751e+06
4.69932e+06
4.63109e+06
4.56283e+06
4.49455e+06
4.42625e+06
4.35795e+06
4.28965e+06
4.22136e+06
4.15309e+06
4.08485e+06
4.01665e+06
3.9485e+06
3.88041e+06
3.81238e+06
3.74443e+06
3.67657e+06
3.60881e+06
3.54116e+06
3.47363e+06
3.40623e+06
3.33897e+06
3.27187e+06
3.20494e+06
3.13818e+06
3.07162e+06
3.00526e+06
2.93911e+06
2.8732e+06
2.80753e+06
2.74212e+06
2.67698e+06
2.61213e+06
2.54758e+06
2.48335e+06
2.41945e+06
2.35591e+06
2.29272e+06
2.22993e+06
2.16754e+06
2.10557e+06
2.04404e+06
1.98298e+06
1.92241e+06
1.86235e+06
1.80283e+06
1.74389e+06
1.68555e+06
1.62788e+06
1.57092e+06
1.51475e+06
1.45948e+06
1.40531e+06
1.35267e+06
1.0507e+07
1.05061e+07
1.05044e+07
1.05019e+07
1.04984e+07
1.0494e+07
1.04887e+07
1.04825e+07
1.04753e+07
1.04672e+07
1.04581e+07
1.0448e+07
1.0437e+07
1.04249e+07
1.04119e+07
1.03978e+07
1.03828e+07
1.03667e+07
1.03497e+07
1.03316e+07
1.03126e+07
1.02925e+07
1.02715e+07
1.02495e+07
1.02265e+07
1.02026e+07
1.01776e+07
1.01518e+07
1.0125e+07
1.00972e+07
1.00686e+07
1.0039e+07
1.00086e+07
9.97721e+06
9.94499e+06
9.91191e+06
9.87799e+06
9.84323e+06
9.80765e+06
9.77127e+06
9.7341e+06
9.69615e+06
9.65744e+06
9.61798e+06
9.57778e+06
9.53686e+06
9.49523e+06
9.4529e+06
9.40989e+06
9.36622e+06
9.32189e+06
9.27691e+06
9.23131e+06
9.18509e+06
9.13826e+06
9.09084e+06
9.04284e+06
8.99428e+06
8.94515e+06
8.89548e+06
8.84527e+06
8.79455e+06
8.7433e+06
8.69156e+06
8.63932e+06
8.5866e+06
8.53341e+06
8.47975e+06
8.42565e+06
8.37109e+06
8.31611e+06
8.2607e+06
8.20487e+06
8.14863e+06
8.09199e+06
8.03497e+06
7.97755e+06
7.91977e+06
7.86161e+06
7.80309e+06
7.74423e+06
7.68501e+06
7.62546e+06
7.56557e+06
7.50537e+06
7.44484e+06
7.38401e+06
7.32287e+06
7.26143e+06
7.1997e+06
7.13769e+06
7.0754e+06
7.01284e+06
6.95001e+06
6.88693e+06
6.82359e+06
6.76e+06
6.69617e+06
6.63211e+06
6.56781e+06
6.5033e+06
6.43857e+06
6.37362e+06
6.30847e+06
6.24312e+06
6.17758e+06
6.11185e+06
6.04594e+06
5.97985e+06
5.91359e+06
5.84717e+06
5.78059e+06
5.71387e+06
5.64699e+06
5.57998e+06
5.51284e+06
5.44557e+06
5.37819e+06
5.31069e+06
5.24308e+06
5.17538e+06
5.10759e+06
5.03971e+06
4.97176e+06
4.90374e+06
4.83565e+06
4.76751e+06
4.69932e+06
4.63109e+06
4.56283e+06
4.49455e+06
4.42626e+06
4.35795e+06
4.28965e+06
4.22136e+06
4.15309e+06
4.08486e+06
4.01665e+06
3.9485e+06
3.88041e+06
3.81238e+06
3.74443e+06
3.67657e+06
3.60881e+06
3.54116e+06
3.47363e+06
3.40623e+06
3.33897e+06
3.27187e+06
3.20494e+06
3.13818e+06
3.07162e+06
3.00526e+06
2.93911e+06
2.8732e+06
2.80753e+06
2.74212e+06
2.67698e+06
2.61213e+06
2.54758e+06
2.48335e+06
2.41945e+06
2.3559e+06
2.29272e+06
2.22993e+06
2.16753e+06
2.10556e+06
2.04404e+06
1.98297e+06
1.9224e+06
1.86234e+06
1.80282e+06
1.74387e+06
1.68553e+06
1.62785e+06
1.57087e+06
1.51468e+06
1.45938e+06
1.40513e+06
1.35225e+06
1.05146e+07
1.05137e+07
1.0512e+07
1.05094e+07
1.05059e+07
1.05015e+07
1.04961e+07
1.04898e+07
1.04826e+07
1.04743e+07
1.04651e+07
1.04549e+07
1.04438e+07
1.04316e+07
1.04184e+07
1.04042e+07
1.0389e+07
1.03728e+07
1.03556e+07
1.03374e+07
1.03182e+07
1.0298e+07
1.02769e+07
1.02547e+07
1.02315e+07
1.02074e+07
1.01823e+07
1.01563e+07
1.01293e+07
1.01014e+07
1.00726e+07
1.00429e+07
1.00123e+07
9.9808e+06
9.94844e+06
9.91522e+06
9.88115e+06
9.84626e+06
9.81055e+06
9.77404e+06
9.73675e+06
9.69868e+06
9.65985e+06
9.62027e+06
9.57997e+06
9.53894e+06
9.49721e+06
9.45479e+06
9.41169e+06
9.36792e+06
9.3235e+06
9.27845e+06
9.23276e+06
9.18647e+06
9.13957e+06
9.09208e+06
9.04402e+06
8.99539e+06
8.9462e+06
8.89647e+06
8.84621e+06
8.79543e+06
8.74414e+06
8.69235e+06
8.64006e+06
8.5873e+06
8.53407e+06
8.48038e+06
8.42623e+06
8.37165e+06
8.31663e+06
8.26118e+06
8.20533e+06
8.14906e+06
8.0924e+06
8.03534e+06
7.97791e+06
7.9201e+06
7.86192e+06
7.80339e+06
7.7445e+06
7.68527e+06
7.6257e+06
7.5658e+06
7.50558e+06
7.44504e+06
7.38419e+06
7.32304e+06
7.26159e+06
7.19985e+06
7.13783e+06
7.07553e+06
7.01296e+06
6.95012e+06
6.88703e+06
6.82368e+06
6.76009e+06
6.69625e+06
6.63218e+06
6.56788e+06
6.50336e+06
6.43863e+06
6.37368e+06
6.30852e+06
6.24317e+06
6.17762e+06
6.11189e+06
6.04597e+06
5.97988e+06
5.91362e+06
5.8472e+06
5.78062e+06
5.71389e+06
5.64701e+06
5.58e+06
5.51286e+06
5.44559e+06
5.3782e+06
5.3107e+06
5.2431e+06
5.17539e+06
5.1076e+06
5.03972e+06
4.97177e+06
4.90374e+06
4.83566e+06
4.76751e+06
4.69933e+06
4.6311e+06
4.56284e+06
4.49456e+06
4.42626e+06
4.35796e+06
4.28966e+06
4.22137e+06
4.1531e+06
4.08486e+06
4.01666e+06
3.9485e+06
3.88041e+06
3.81238e+06
3.74443e+06
3.67657e+06
3.60881e+06
3.54116e+06
3.47363e+06
3.40623e+06
3.33897e+06
3.27187e+06
3.20494e+06
3.13818e+06
3.07162e+06
3.00526e+06
2.93911e+06
2.8732e+06
2.80753e+06
2.74212e+06
2.67698e+06
2.61213e+06
2.54758e+06
2.48335e+06
2.41945e+06
2.3559e+06
2.29272e+06
2.22992e+06
2.16753e+06
2.10556e+06
2.04403e+06
1.98296e+06
1.92238e+06
1.86232e+06
1.80279e+06
1.74383e+06
1.68548e+06
1.62778e+06
1.57078e+06
1.51455e+06
1.45918e+06
1.4048e+06
1.35157e+06
1.05261e+07
1.05252e+07
1.05234e+07
1.05208e+07
1.05172e+07
1.05127e+07
1.05072e+07
1.05008e+07
1.04934e+07
1.04851e+07
1.04757e+07
1.04654e+07
1.0454e+07
1.04416e+07
1.04283e+07
1.04139e+07
1.03985e+07
1.0382e+07
1.03646e+07
1.03462e+07
1.03267e+07
1.03063e+07
1.02849e+07
1.02625e+07
1.02391e+07
1.02147e+07
1.01894e+07
1.01631e+07
1.01359e+07
1.01078e+07
1.00787e+07
1.00487e+07
1.00179e+07
9.98618e+06
9.9536e+06
9.92016e+06
9.88589e+06
9.8508e+06
9.81489e+06
9.77819e+06
9.74071e+06
9.70246e+06
9.66345e+06
9.62371e+06
9.58324e+06
9.54206e+06
9.50017e+06
9.45761e+06
9.41437e+06
9.37047e+06
9.32592e+06
9.28074e+06
9.23494e+06
9.18853e+06
9.14152e+06
9.09393e+06
9.04577e+06
8.99705e+06
8.94777e+06
8.89796e+06
8.84761e+06
8.79675e+06
8.74539e+06
8.69353e+06
8.64118e+06
8.58835e+06
8.53506e+06
8.48131e+06
8.42711e+06
8.37247e+06
8.3174e+06
8.26191e+06
8.20601e+06
8.1497e+06
8.093e+06
8.03591e+06
7.97844e+06
7.9206e+06
7.86239e+06
7.80382e+06
7.74491e+06
7.68565e+06
7.62605e+06
7.56613e+06
7.50589e+06
7.44533e+06
7.38446e+06
7.32329e+06
7.26182e+06
7.20007e+06
7.13803e+06
7.07572e+06
7.01313e+06
6.95029e+06
6.88718e+06
6.82382e+06
6.76022e+06
6.69637e+06
6.63229e+06
6.56799e+06
6.50346e+06
6.43871e+06
6.37376e+06
6.3086e+06
6.24324e+06
6.17769e+06
6.11195e+06
6.04603e+06
5.97993e+06
5.91367e+06
5.84724e+06
5.78066e+06
5.71392e+06
5.64705e+06
5.58003e+06
5.51288e+06
5.44561e+06
5.37822e+06
5.31072e+06
5.24312e+06
5.17541e+06
5.10762e+06
5.03974e+06
4.97178e+06
4.90375e+06
4.83567e+06
4.76752e+06
4.69933e+06
4.63111e+06
4.56285e+06
4.49456e+06
4.42626e+06
4.35796e+06
4.28966e+06
4.22137e+06
4.1531e+06
4.08486e+06
4.01666e+06
3.94851e+06
3.88041e+06
3.81238e+06
3.74444e+06
3.67658e+06
3.60881e+06
3.54116e+06
3.47363e+06
3.40623e+06
3.33897e+06
3.27187e+06
3.20494e+06
3.13818e+06
3.07162e+06
3.00526e+06
2.93911e+06
2.8732e+06
2.80753e+06
2.74212e+06
2.67698e+06
2.61213e+06
2.54758e+06
2.48335e+06
2.41945e+06
2.3559e+06
2.29271e+06
2.22992e+06
2.16752e+06
2.10554e+06
2.04401e+06
1.98294e+06
1.92236e+06
1.86228e+06
1.80275e+06
1.74378e+06
1.68541e+06
1.62769e+06
1.57066e+06
1.51437e+06
1.45891e+06
1.40436e+06
1.35079e+06
1.05415e+07
1.05406e+07
1.05388e+07
1.0536e+07
1.05324e+07
1.05277e+07
1.05221e+07
1.05156e+07
1.0508e+07
1.04995e+07
1.04899e+07
1.04793e+07
1.04677e+07
1.04551e+07
1.04414e+07
1.04268e+07
1.04111e+07
1.03944e+07
1.03766e+07
1.03579e+07
1.03381e+07
1.03173e+07
1.02956e+07
1.02728e+07
1.02491e+07
1.02244e+07
1.01987e+07
1.01721e+07
1.01446e+07
1.01161e+07
1.00868e+07
1.00565e+07
1.00254e+07
9.99334e+06
9.96046e+06
9.92674e+06
9.89219e+06
9.85682e+06
9.82065e+06
9.78369e+06
9.74596e+06
9.70747e+06
9.66824e+06
9.62827e+06
9.58758e+06
9.54619e+06
9.50411e+06
9.46135e+06
9.41792e+06
9.37384e+06
9.32913e+06
9.28378e+06
9.23783e+06
9.19127e+06
9.14412e+06
9.09639e+06
9.04809e+06
8.99924e+06
8.94985e+06
8.89992e+06
8.84947e+06
8.79851e+06
8.74704e+06
8.69509e+06
8.64265e+06
8.58974e+06
8.53637e+06
8.48254e+06
8.42827e+06
8.37356e+06
8.31843e+06
8.26288e+06
8.20692e+06
8.15056e+06
8.0938e+06
8.03666e+06
7.97914e+06
7.92126e+06
7.86301e+06
7.8044e+06
7.74545e+06
7.68615e+06
7.62653e+06
7.56657e+06
7.5063e+06
7.44571e+06
7.38482e+06
7.32362e+06
7.26213e+06
7.20036e+06
7.1383e+06
7.07597e+06
7.01337e+06
6.9505e+06
6.88738e+06
6.82401e+06
6.76039e+06
6.69653e+06
6.63244e+06
6.56813e+06
6.50359e+06
6.43883e+06
6.37387e+06
6.3087e+06
6.24333e+06
6.17777e+06
6.11203e+06
6.0461e+06
5.98e+06
5.91373e+06
5.8473e+06
5.78071e+06
5.71397e+06
5.64709e+06
5.58007e+06
5.51292e+06
5.44565e+06
5.37825e+06
5.31075e+06
5.24314e+06
5.17543e+06
5.10764e+06
5.03976e+06
4.9718e+06
4.90377e+06
4.83568e+06
4.76754e+06
4.69935e+06
4.63112e+06
4.56285e+06
4.49457e+06
4.42627e+06
4.35797e+06
4.28967e+06
4.22138e+06
4.15311e+06
4.08486e+06
4.01666e+06
3.94851e+06
3.88041e+06
3.81239e+06
3.74444e+06
3.67658e+06
3.60882e+06
3.54116e+06
3.47363e+06
3.40623e+06
3.33898e+06
3.27187e+06
3.20494e+06
3.13818e+06
3.07162e+06
3.00526e+06
2.93911e+06
2.8732e+06
2.80753e+06
2.74212e+06
2.67698e+06
2.61213e+06
2.54758e+06
2.48334e+06
2.41944e+06
2.35589e+06
2.29271e+06
2.22991e+06
2.16751e+06
2.10553e+06
2.04399e+06
1.98292e+06
1.92233e+06
1.86224e+06
1.8027e+06
1.74371e+06
1.68533e+06
1.62757e+06
1.57049e+06
1.51414e+06
1.45858e+06
1.40385e+06
1.34997e+06
1.0561e+07
1.056e+07
1.05581e+07
1.05553e+07
1.05515e+07
1.05467e+07
1.05409e+07
1.05342e+07
1.05264e+07
1.05176e+07
1.05077e+07
1.04969e+07
1.0485e+07
1.0472e+07
1.0458e+07
1.0443e+07
1.04269e+07
1.04098e+07
1.03916e+07
1.03725e+07
1.03523e+07
1.03311e+07
1.03089e+07
1.02858e+07
1.02616e+07
1.02365e+07
1.02104e+07
1.01834e+07
1.01555e+07
1.01266e+07
1.00968e+07
1.00662e+07
1.00346e+07
1.00023e+07
9.969e+06
9.93492e+06
9.90002e+06
9.86432e+06
9.82782e+06
9.79054e+06
9.7525e+06
9.71371e+06
9.67418e+06
9.63393e+06
9.59298e+06
9.55133e+06
9.50899e+06
9.46599e+06
9.42234e+06
9.37804e+06
9.33311e+06
9.28756e+06
9.24141e+06
9.19466e+06
9.14734e+06
9.09944e+06
9.05098e+06
9.00198e+06
8.95243e+06
8.90236e+06
8.85178e+06
8.80069e+06
8.7491e+06
8.69703e+06
8.64448e+06
8.59146e+06
8.53799e+06
8.48407e+06
8.42971e+06
8.37492e+06
8.3197e+06
8.26408e+06
8.20804e+06
8.15161e+06
8.09479e+06
8.03759e+06
7.98002e+06
7.92207e+06
7.86377e+06
7.80512e+06
7.74612e+06
7.68678e+06
7.62711e+06
7.56712e+06
7.50681e+06
7.44619e+06
7.38526e+06
7.32404e+06
7.26252e+06
7.20072e+06
7.13864e+06
7.07628e+06
7.01366e+06
6.95077e+06
6.88763e+06
6.82424e+06
6.76061e+06
6.69673e+06
6.63263e+06
6.5683e+06
6.50374e+06
6.43898e+06
6.374e+06
6.30882e+06
6.24345e+06
6.17788e+06
6.11212e+06
6.04619e+06
5.98008e+06
5.9138e+06
5.84737e+06
5.78077e+06
5.71403e+06
5.64714e+06
5.58012e+06
5.51296e+06
5.44569e+06
5.37829e+06
5.31078e+06
5.24317e+06
5.17546e+06
5.10766e+06
5.03978e+06
4.97182e+06
4.90379e+06
4.8357e+06
4.76755e+06
4.69936e+06
4.63113e+06
4.56287e+06
4.49458e+06
4.42628e+06
4.35798e+06
4.28967e+06
4.22138e+06
4.15311e+06
4.08487e+06
4.01667e+06
3.94851e+06
3.88042e+06
3.81239e+06
3.74444e+06
3.67658e+06
3.60882e+06
3.54117e+06
3.47363e+06
3.40623e+06
3.33898e+06
3.27188e+06
3.20494e+06
3.13818e+06
3.07162e+06
3.00526e+06
2.93911e+06
2.8732e+06
2.80753e+06
2.74212e+06
2.67698e+06
2.61212e+06
2.54757e+06
2.48334e+06
2.41944e+06
2.35588e+06
2.2927e+06
2.22989e+06
2.16749e+06
2.10551e+06
2.04397e+06
1.98289e+06
1.92229e+06
1.8622e+06
1.80263e+06
1.74363e+06
1.68522e+06
1.62743e+06
1.5703e+06
1.51388e+06
1.4582e+06
1.40329e+06
1.34914e+06
1.05846e+07
1.05836e+07
1.05816e+07
1.05787e+07
1.05747e+07
1.05697e+07
1.05637e+07
1.05567e+07
1.05486e+07
1.05395e+07
1.05293e+07
1.05181e+07
1.05058e+07
1.04924e+07
1.0478e+07
1.04625e+07
1.0446e+07
1.04284e+07
1.04098e+07
1.03901e+07
1.03694e+07
1.03477e+07
1.0325e+07
1.03013e+07
1.02767e+07
1.0251e+07
1.02244e+07
1.01969e+07
1.01685e+07
1.01391e+07
1.01089e+07
1.00777e+07
1.00457e+07
1.00129e+07
9.97921e+06
9.94469e+06
9.90937e+06
9.87326e+06
9.83636e+06
9.7987e+06
9.76029e+06
9.72114e+06
9.68127e+06
9.64068e+06
9.5994e+06
9.55744e+06
9.51481e+06
9.47152e+06
9.42759e+06
9.38303e+06
9.33785e+06
9.29206e+06
9.24568e+06
9.19871e+06
9.15117e+06
9.10307e+06
9.05442e+06
9.00523e+06
8.95551e+06
8.90527e+06
8.85452e+06
8.80328e+06
8.75155e+06
8.69934e+06
8.64666e+06
8.59352e+06
8.53993e+06
8.48589e+06
8.43142e+06
8.37653e+06
8.32122e+06
8.2655e+06
8.20938e+06
8.15287e+06
8.09598e+06
8.0387e+06
7.98106e+06
7.92305e+06
7.86469e+06
7.80597e+06
7.74692e+06
7.68753e+06
7.62781e+06
7.56778e+06
7.50742e+06
7.44676e+06
7.3858e+06
7.32453e+06
7.26298e+06
7.20115e+06
7.13904e+06
7.07665e+06
7.014e+06
6.95109e+06
6.88793e+06
6.82452e+06
6.76086e+06
6.69697e+06
6.63285e+06
6.5685e+06
6.50393e+06
6.43915e+06
6.37416e+06
6.30897e+06
6.24358e+06
6.178e+06
6.11224e+06
6.04629e+06
5.98018e+06
5.91389e+06
5.84745e+06
5.78085e+06
5.7141e+06
5.64721e+06
5.58018e+06
5.51302e+06
5.44573e+06
5.37833e+06
5.31082e+06
5.24321e+06
5.17549e+06
5.10769e+06
5.03981e+06
4.97184e+06
4.90381e+06
4.83572e+06
4.76757e+06
4.69938e+06
4.63114e+06
4.56288e+06
4.49459e+06
4.42629e+06
4.35799e+06
4.28968e+06
4.22139e+06
4.15312e+06
4.08488e+06
4.01667e+06
3.94852e+06
3.88042e+06
3.8124e+06
3.74445e+06
3.67658e+06
3.60882e+06
3.54117e+06
3.47364e+06
3.40624e+06
3.33898e+06
3.27188e+06
3.20494e+06
3.13819e+06
3.07162e+06
3.00526e+06
2.93911e+06
2.8732e+06
2.80753e+06
2.74212e+06
2.67698e+06
2.61212e+06
2.54757e+06
2.48333e+06
2.41943e+06
2.35588e+06
2.29269e+06
2.22988e+06
2.16748e+06
2.10549e+06
2.04394e+06
1.98285e+06
1.92224e+06
1.86214e+06
1.80256e+06
1.74354e+06
1.6851e+06
1.62727e+06
1.57008e+06
1.51358e+06
1.45779e+06
1.40272e+06
1.34833e+06
1.06125e+07
1.06115e+07
1.06094e+07
1.06063e+07
1.06021e+07
1.05969e+07
1.05907e+07
1.05833e+07
1.05749e+07
1.05654e+07
1.05548e+07
1.05431e+07
1.05303e+07
1.05164e+07
1.05015e+07
1.04855e+07
1.04683e+07
1.04502e+07
1.0431e+07
1.04107e+07
1.03894e+07
1.03671e+07
1.03438e+07
1.03195e+07
1.02942e+07
1.0268e+07
1.02408e+07
1.02126e+07
1.01836e+07
1.01537e+07
1.01229e+07
1.00912e+07
1.00586e+07
1.00252e+07
9.99104e+06
9.95602e+06
9.92021e+06
9.88361e+06
9.84626e+06
9.80815e+06
9.7693e+06
9.72974e+06
9.68946e+06
9.64849e+06
9.60684e+06
9.56452e+06
9.52154e+06
9.47792e+06
9.43367e+06
9.3888e+06
9.34333e+06
9.29726e+06
9.2506e+06
9.20338e+06
9.15559e+06
9.10726e+06
9.05838e+06
9.00898e+06
8.95906e+06
8.90862e+06
8.85769e+06
8.80627e+06
8.75437e+06
8.702e+06
8.64917e+06
8.59589e+06
8.54216e+06
8.488e+06
8.43341e+06
8.3784e+06
8.32298e+06
8.26715e+06
8.21093e+06
8.15433e+06
8.09734e+06
8.03998e+06
7.98226e+06
7.92417e+06
7.86574e+06
7.80696e+06
7.74784e+06
7.6884e+06
7.62862e+06
7.56853e+06
7.50813e+06
7.44742e+06
7.38641e+06
7.32511e+06
7.26352e+06
7.20165e+06
7.1395e+06
7.07708e+06
7.0144e+06
6.95146e+06
6.88827e+06
6.82484e+06
6.76116e+06
6.69725e+06
6.6331e+06
6.56874e+06
6.50415e+06
6.43935e+06
6.37435e+06
6.30914e+06
6.24374e+06
6.17815e+06
6.11237e+06
6.04642e+06
5.98029e+06
5.914e+06
5.84754e+06
5.78093e+06
5.71418e+06
5.64728e+06
5.58024e+06
5.51308e+06
5.44579e+06
5.37838e+06
5.31087e+06
5.24325e+06
5.17553e+06
5.10773e+06
5.03984e+06
4.97187e+06
4.90384e+06
4.83574e+06
4.76759e+06
4.69939e+06
4.63116e+06
4.56289e+06
4.49461e+06
4.4263e+06
4.358e+06
4.28969e+06
4.2214e+06
4.15313e+06
4.08488e+06
4.01668e+06
3.94852e+06
3.88043e+06
3.8124e+06
3.74445e+06
3.67659e+06
3.60883e+06
3.54117e+06
3.47364e+06
3.40624e+06
3.33898e+06
3.27188e+06
3.20494e+06
3.13819e+06
3.07162e+06
3.00526e+06
2.93911e+06
2.8732e+06
2.80753e+06
2.74212e+06
2.67697e+06
2.61212e+06
2.54757e+06
2.48333e+06
2.41942e+06
2.35587e+06
2.29268e+06
2.22987e+06
2.16746e+06
2.10547e+06
2.04391e+06
1.98281e+06
1.92219e+06
1.86208e+06
1.80248e+06
1.74343e+06
1.68496e+06
1.62709e+06
1.56985e+06
1.51326e+06
1.45736e+06
1.40213e+06
1.34754e+06
1.0645e+07
1.06439e+07
1.06416e+07
1.06383e+07
1.0634e+07
1.06285e+07
1.06219e+07
1.06142e+07
1.06053e+07
1.05953e+07
1.05842e+07
1.0572e+07
1.05586e+07
1.05441e+07
1.05286e+07
1.05119e+07
1.04941e+07
1.04752e+07
1.04553e+07
1.04343e+07
1.04123e+07
1.03893e+07
1.03652e+07
1.03402e+07
1.03142e+07
1.02873e+07
1.02594e+07
1.02306e+07
1.02008e+07
1.01702e+07
1.01388e+07
1.01064e+07
1.00733e+07
1.00393e+07
1.00045e+07
9.96886e+06
9.93249e+06
9.89535e+06
9.85747e+06
9.81885e+06
9.77951e+06
9.73947e+06
9.69873e+06
9.65732e+06
9.61524e+06
9.57251e+06
9.52914e+06
9.48515e+06
9.44054e+06
9.39532e+06
9.34951e+06
9.30313e+06
9.25617e+06
9.20865e+06
9.16059e+06
9.11199e+06
9.06286e+06
9.01322e+06
8.96306e+06
8.91241e+06
8.86127e+06
8.80966e+06
8.75757e+06
8.70502e+06
8.65201e+06
8.59857e+06
8.54468e+06
8.49037e+06
8.43564e+06
8.3805e+06
8.32496e+06
8.26901e+06
8.21268e+06
8.15597e+06
8.09888e+06
8.04143e+06
7.98361e+06
7.92545e+06
7.86693e+06
7.80808e+06
7.74889e+06
7.68937e+06
7.62953e+06
7.56938e+06
7.50892e+06
7.44816e+06
7.3871e+06
7.32575e+06
7.26412e+06
7.20221e+06
7.14002e+06
7.07757e+06
7.01485e+06
6.95188e+06
6.88866e+06
6.8252e+06
6.76149e+06
6.69756e+06
6.63339e+06
6.569e+06
6.5044e+06
6.43958e+06
6.37456e+06
6.30933e+06
6.24392e+06
6.17831e+06
6.11252e+06
6.04656e+06
5.98042e+06
5.91411e+06
5.84765e+06
5.78103e+06
5.71427e+06
5.64736e+06
5.58032e+06
5.51315e+06
5.44585e+06
5.37844e+06
5.31092e+06
5.2433e+06
5.17558e+06
5.10777e+06
5.03987e+06
4.9719e+06
4.90387e+06
4.83577e+06
4.76761e+06
4.69942e+06
4.63118e+06
4.56291e+06
4.49462e+06
4.42632e+06
4.35801e+06
4.2897e+06
4.22141e+06
4.15314e+06
4.08489e+06
4.01669e+06
3.94853e+06
3.88043e+06
3.81241e+06
3.74446e+06
3.67659e+06
3.60883e+06
3.54118e+06
3.47364e+06
3.40624e+06
3.33899e+06
3.27188e+06
3.20495e+06
3.13819e+06
3.07162e+06
3.00526e+06
2.93912e+06
2.8732e+06
2.80753e+06
2.74211e+06
2.67697e+06
2.61212e+06
2.54756e+06
2.48332e+06
2.41942e+06
2.35586e+06
2.29266e+06
2.22985e+06
2.16744e+06
2.10544e+06
2.04388e+06
1.98277e+06
1.92214e+06
1.86201e+06
1.80239e+06
1.74332e+06
1.68481e+06
1.6269e+06
1.5696e+06
1.51293e+06
1.45692e+06
1.40154e+06
1.34677e+06
1.06823e+07
1.0681e+07
1.06786e+07
1.06751e+07
1.06704e+07
1.06646e+07
1.06576e+07
1.06494e+07
1.06401e+07
1.06295e+07
1.06178e+07
1.06049e+07
1.05908e+07
1.05756e+07
1.05593e+07
1.05418e+07
1.05232e+07
1.05035e+07
1.04828e+07
1.0461e+07
1.04381e+07
1.04142e+07
1.03894e+07
1.03635e+07
1.03367e+07
1.03089e+07
1.02802e+07
1.02506e+07
1.02201e+07
1.01887e+07
1.01565e+07
1.01235e+07
1.00896e+07
1.00549e+07
1.00194e+07
9.98318e+06
9.94617e+06
9.90842e+06
9.86995e+06
9.83076e+06
9.79087e+06
9.75029e+06
9.70904e+06
9.66714e+06
9.62458e+06
9.5814e+06
9.53759e+06
9.49318e+06
9.44816e+06
9.40256e+06
9.35639e+06
9.30965e+06
9.26235e+06
9.21451e+06
9.16614e+06
9.11725e+06
9.06784e+06
9.01792e+06
8.96752e+06
8.91662e+06
8.86525e+06
8.81341e+06
8.76111e+06
8.70836e+06
8.65517e+06
8.60154e+06
8.54749e+06
8.49301e+06
8.43813e+06
8.38284e+06
8.32715e+06
8.27108e+06
8.21462e+06
8.15779e+06
8.10059e+06
8.04303e+06
7.98512e+06
7.92686e+06
7.86825e+06
7.80931e+06
7.75005e+06
7.69046e+06
7.63055e+06
7.57033e+06
7.50981e+06
7.44899e+06
7.38787e+06
7.32647e+06
7.26479e+06
7.20283e+06
7.1406e+06
7.07811e+06
7.01536e+06
6.95235e+06
6.8891e+06
6.8256e+06
6.76187e+06
6.6979e+06
6.63371e+06
6.5693e+06
6.50467e+06
6.43983e+06
6.37479e+06
6.30955e+06
6.24412e+06
6.17849e+06
6.11269e+06
6.04671e+06
5.98056e+06
5.91424e+06
5.84777e+06
5.78114e+06
5.71437e+06
5.64745e+06
5.5804e+06
5.51322e+06
5.44592e+06
5.37851e+06
5.31098e+06
5.24335e+06
5.17563e+06
5.10781e+06
5.03991e+06
4.97194e+06
4.9039e+06
4.8358e+06
4.76764e+06
4.69944e+06
4.6312e+06
4.56293e+06
4.49464e+06
4.42633e+06
4.35802e+06
4.28972e+06
4.22142e+06
4.15315e+06
4.0849e+06
4.0167e+06
3.94854e+06
3.88044e+06
3.81241e+06
3.74446e+06
3.6766e+06
3.60884e+06
3.54118e+06
3.47365e+06
3.40625e+06
3.33899e+06
3.27189e+06
3.20495e+06
3.13819e+06
3.07162e+06
3.00526e+06
2.93912e+06
2.8732e+06
2.80753e+06
2.74211e+06
2.67697e+06
2.61211e+06
2.54756e+06
2.48332e+06
2.41941e+06
2.35585e+06
2.29265e+06
2.22983e+06
2.16742e+06
2.10541e+06
2.04384e+06
1.98273e+06
1.92208e+06
1.86193e+06
1.8023e+06
1.7432e+06
1.68466e+06
1.6267e+06
1.56934e+06
1.51259e+06
1.45647e+06
1.40097e+06
1.34604e+06
1.07246e+07
1.07232e+07
1.07206e+07
1.07168e+07
1.07118e+07
1.07056e+07
1.06981e+07
1.06893e+07
1.06793e+07
1.06681e+07
1.06556e+07
1.06419e+07
1.0627e+07
1.0611e+07
1.05937e+07
1.05753e+07
1.05558e+07
1.05352e+07
1.05135e+07
1.04907e+07
1.04668e+07
1.0442e+07
1.04162e+07
1.03893e+07
1.03616e+07
1.03329e+07
1.03033e+07
1.02728e+07
1.02414e+07
1.02092e+07
1.01761e+07
1.01422e+07
1.01076e+07
1.00721e+07
1.00359e+07
9.99892e+06
9.96121e+06
9.92278e+06
9.88365e+06
9.84383e+06
9.80333e+06
9.76216e+06
9.72035e+06
9.6779e+06
9.63482e+06
9.59114e+06
9.54685e+06
9.50197e+06
9.45652e+06
9.41049e+06
9.36391e+06
9.31678e+06
9.26912e+06
9.22093e+06
9.17222e+06
9.123e+06
9.07328e+06
9.02308e+06
8.97239e+06
8.92123e+06
8.8696e+06
8.81752e+06
8.76499e+06
8.71202e+06
8.65862e+06
8.60479e+06
8.55055e+06
8.4959e+06
8.44085e+06
8.3854e+06
8.32956e+06
8.27334e+06
8.21675e+06
8.15979e+06
8.10247e+06
8.04479e+06
7.98677e+06
7.9284e+06
7.8697e+06
7.81067e+06
7.75132e+06
7.69164e+06
7.63166e+06
7.57137e+06
7.51078e+06
7.44989e+06
7.38872e+06
7.32726e+06
7.26552e+06
7.20351e+06
7.14124e+06
7.0787e+06
7.01591e+06
6.95286e+06
6.88957e+06
6.82604e+06
6.76227e+06
6.69828e+06
6.63406e+06
6.56962e+06
6.50497e+06
6.44011e+06
6.37504e+06
6.30978e+06
6.24433e+06
6.17869e+06
6.11287e+06
6.04688e+06
5.98071e+06
5.91439e+06
5.8479e+06
5.78126e+06
5.71448e+06
5.64755e+06
5.58049e+06
5.51331e+06
5.446e+06
5.37858e+06
5.31104e+06
5.24341e+06
5.17568e+06
5.10786e+06
5.03996e+06