/*--------------------------------*- C++ -*----------------------------------*\
  =========                 |
  \\      /  F ield         | OpenFOAM: The Open Source CFD Toolbox
   \\    /   O peration     | Website:  https://openfoam.org
    \\  /    A nd           | Version:  7
     \\/     M anipulation  |
\*---------------------------------------------------------------------------*/
FoamFile
{
    version     2.0;
    format      ascii;
    class       volScalarField;
    location    "0.022";
    object      s_0;
}
// * * * * * * * * * * * * * * * * * * * * * * * * * * * * * * * * * * * * * //

dimensions      [0 0 0 0 0 0 0];

internalField   nonuniform List<scalar> 
12225
(
1
1
1
1
1
1
1
1
1
1
1
1
1
1
1
1
1
1
1
1
1
1
1
1
1
1
1
1
1
1
1
1
1
1
1
1
1
1
1
1
1
1
1
1
1
1
1
1
1
1
1
1
1
1
1
1
1
1
1
1
1
1
1
1
1
1
1
1
1
1
1
1
1
1
1
1
1
1
1
1
1
1
1
1
1
1
1
1
1
1
1
1
1
1
1
1
1
1
1
1
1
1
1
1
1
1
1
1
1
1
1
1
1
1
1
1
1
1
1
1
1
1
1
1
1
1
1
1
1
1
1
1
1
1
1
1
1
1
1
1
1
1
1
1
1
1
1
1
1
1
1
1
1
1
1
1
1
1
1
1
1
1
1
1
1
1
1
1
1
1
1
1
1
1
1
1
1
1
1
1
1
1
1
1
1
1
1
1
1
1
1
1
1
1
1
1
1
1
1
1
1
1
1
1
1
1
1
1
1
1
1
1
1
1
1
1
1
1
1
1
1
1
1
1
1
1
1
1
1
1
1
1
1
1
1
1
1
1
1
1
1
1
1
1
1
1
1
1
1
1
1
1
1
1
1
1
1
1
1
1
1
1
1
1
1
1
1
1
1
1
1
1
1
1
1
1
1
1
1
1
1
1
1
1
1
1
1
1
1
1
1
1
1
1
1
1
1
1
1
1
1
1
1
1
1
1
1
1
1
1
1
1
1
1
1
1
1
1
1
1
1
1
1
1
1
1
1
1
1
1
1
1
1
1
1
1
1
1
1
1
1
1
1
1
1
1
1
1
1
1
1
1
1
1
1
1
1
1
1
1
1
1
1
1
1
1
1
1
1
1
1
1
1
1
1
1
1
1
1
1
1
1
1
1
1
1
1
1
1
1
1
1
1
1
1
1
1
1
1
1
1
1
1
1
1
1
1
1
1
1
1
1
1
1
1
1
1
1
1
1
1
1
1
1
1
1
1
1
1
1
1
1
1
1
1
1
1
1
1
1
1
1
1
1
1
1
1
1
1
1
1
1
1
1
1
1
1
1
1
1
1
1
1
1
1
1
1
1
1
1
1
1
1
1
1
1
1
1
1
1
1
1
1
1
1
1
1
1
1
1
1
1
1
1
1
1
1
1
1
1
1
1
1
1
1
1
1
1
1
1
1
1
1
1
1
1
1
1
1
1
1
1
1
1
1
1
1
1
1
1
1
1
1
1
1
1
1
1
1
1
4.60741e-20
1.43503e-18
1.93052e-17
9.99953e-17
2.58099e-17
9.82085e-17
1.57814e-15
1.93644e-14
1.93034e-13
1.57506e-12
1.06487e-11
6.05963e-11
2.94066e-10
1.23117e-09
4.49479e-09
1.44585e-08
4.141e-08
1.06723e-07
2.50145e-07
5.38715e-07
1.07623e-06
2.01142e-06
3.54249e-06
5.91637e-06
9.42366e-06
1.43929e-05
2.11853e-05
3.01888e-05
4.18144e-05
5.65045e-05
7.4747e-05
9.7081e-05
0.000124089
0.000156373
0.000194522
0.000239228
0.000291551
0.000352451
0.000421569
0.000500159
0.000597006
0.000667183
0.000715638
0.000741916
0.000749221
0.000720321
0.000671565
0.000608494
0.00053616
0.000455332
0.00037511
0.000301219
0.000232131
0.000173947
0.000125717
8.75524e-05
5.88097e-05
3.79591e-05
2.35783e-05
1.40609e-05
8.05485e-06
4.43076e-06
2.33968e-06
1.18774e-06
5.79376e-07
2.71879e-07
1.22748e-07
5.33834e-08
2.23825e-08
9.05509e-09
3.53778e-09
1.33593e-09
4.87973e-10
1.72546e-10
5.91063e-11
1.96282e-11
6.32312e-12
1.97721e-12
6.00476e-13
1.77211e-13
5.08456e-14
1.41901e-14
3.85367e-15
1.01881e-15
2.623e-16
6.57874e-17
1.6079e-17
3.83069e-18
8.89827e-19
2.01581e-19
4.4545e-20
9.60349e-21
2.02024e-21
4.14728e-22
8.30878e-23
1.62453e-23
3.09967e-24
5.77107e-25
1.04823e-25
1.85681e-26
3.20598e-27
5.39176e-28
8.82308e-29
1.4029e-29
2.16299e-30
3.22408e-31
4.62588e-32
6.34228e-33
8.21115e-34
9.89891e-35
1.17616e-35
1.37735e-36
1.58991e-37
1.81141e-38
1.85002e-39
3.3794e-40
6.10236e-41
1.08926e-41
1.97547e-42
3.16796e-43
3.22763e-44
3.23288e-45
2.92448e-46
4.77125e-47
7.68257e-48
1.22168e-48
1.9202e-49
3.21307e-50
2.90805e-51
2.59306e-52
2.09816e-53
3.06766e-54
4.39942e-55
6.23459e-56
9.30773e-57
8.91418e-58
7.06137e-59
4.97284e-60
6.40969e-61
8.32615e-62
1.10937e-62
1.58072e-63
1.26523e-64
8.21683e-66
5.2303e-67
6.6381e-68
8.78618e-69
1.17719e-69
1.36985e-70
7.44632e-72
3.89517e-73
4.1511e-74
4.73801e-75
5.57816e-76
6.46588e-77
3.56336e-78
1.80485e-79
1.27721e-80
1.48131e-81
1.54473e-82
1.58794e-83
1.28825e-84
6.22836e-86
2.8774e-87
2.56536e-88
2.32507e-89
2.13786e-90
2.02561e-91
1.49541e-92
5.99086e-94
2.49886e-95
2.23052e-96
2.15136e-97
2.01887e-98
1.1529e-99
3.67657e-101
2.21102e-102
1.9477e-103
1.58308e-104
7.8042e-106
5.88399e-18
2.70251e-16
5.44079e-15
6.8988e-14
6.33386e-13
4.53405e-12
2.65361e-11
1.31107e-10
5.59776e-10
2.103e-09
7.05352e-09
2.13808e-08
5.92036e-08
1.51209e-07
3.59387e-07
8.01357e-07
1.68857e-06
3.38366e-06
6.48268e-06
1.1927e-05
2.11473e-05
3.62417e-05
6.01791e-05
9.7026e-05
0.000152198
0.000232701
0.00034734
0.00050687
0.000724075
0.00101366
0.0013917
0.00187468
0.00247831
0.00321594
0.00409586
0.00511884
0.00628172
0.00758205
0.00899204
0.0104277
0.011882
0.0130094
0.0136323
0.0139179
0.0139869
0.0134581
0.0126027
0.0115507
0.0103062
0.00893772
0.00755655
0.00622355
0.00496468
0.00384922
0.00288734
0.00209526
0.00146816
0.000991544
0.000644897
0.000403105
0.000242339
0.000139922
7.75819e-05
4.13429e-05
2.11776e-05
1.04309e-05
4.94359e-06
2.25648e-06
9.92836e-07
4.2148e-07
1.72797e-07
6.84787e-08
2.62568e-08
9.7497e-09
3.50908e-09
1.22525e-09
4.15384e-10
1.36841e-10
4.38386e-11
1.36675e-11
4.14965e-12
1.22775e-12
3.54206e-13
9.97017e-14
2.73962e-14
7.3527e-15
1.92835e-15
4.94435e-16
1.23996e-16
3.04269e-17
7.30853e-18
1.71901e-18
3.96053e-19
8.94107e-20
1.97841e-20
4.29196e-21
9.13096e-22
1.90548e-22
3.90134e-23
7.83852e-24
1.54577e-24
2.99243e-25
5.68772e-26
1.06157e-26
1.94589e-27
3.50343e-28
6.19619e-29
1.07659e-29
1.83787e-30
3.08282e-31
5.0812e-32
8.22986e-33
1.30996e-33
2.04926e-34
3.1508e-35
4.7616e-36
7.07266e-37
1.03457e-37
1.49221e-38
2.12205e-39
2.97515e-40
4.11204e-41
5.60239e-42
7.52369e-43
9.95886e-44
1.29925e-44
1.6706e-45
2.11708e-46
2.64411e-47
3.25461e-48
3.94814e-49
4.72023e-50
5.56176e-51
6.45872e-52
7.39214e-53
8.33852e-54
9.27063e-55
1.01587e-55
1.09718e-56
1.16801e-57
1.22558e-58
1.26759e-59
1.29231e-60
1.29871e-61
1.28657e-62
1.25643e-63
1.2096e-64
1.14804e-65
1.07423e-66
9.90996e-68
9.01366e-69
8.08345e-70
7.14781e-71
6.23224e-72
5.35827e-73
4.54285e-74
3.79811e-75
3.13152e-76
2.54627e-77
2.04185e-78
1.61481e-79
1.25953e-80
9.68912e-82
7.3511e-83
5.50059e-84
4.05924e-85
2.95422e-86
2.12021e-87
1.5004e-88
1.04684e-89
7.19961e-91
4.87975e-92
3.258e-93
2.14199e-94
1.3853e-95
8.80853e-97
5.49165e-98
3.35418e-99
1.99041e-100
1.08968e-101
3.59498e-16
1.31445e-14
2.19313e-13
2.32517e-12
1.80356e-11
1.10285e-10
5.57183e-10
2.40207e-09
9.04849e-09
3.03318e-08
9.1822e-08
2.5415e-07
6.50114e-07
1.5516e-06
3.48454e-06
7.4192e-06
1.5075e-05
2.93922e-05
5.52363e-05
0.000100404
0.000176992
0.000303186
0.000505485
0.000821366
0.00130226
0.00201661
0.00305251
0.00451948
0.00654814
0.00928608
0.0128875
0.0174971
0.0232303
0.0301548
0.0382654
0.0474587
0.0575485
0.068305
0.079304
0.0897039
0.0987991
0.105978
0.109548
0.111019
0.110499
0.106955
0.100915
0.0935681
0.084773
0.0751509
0.0651592
0.0552838
0.0457804
0.0368868
0.0288257
0.0218309
0.0159993
0.0113357
0.00774283
0.00508278
0.00320998
0.00194732
0.00113362
0.000633632
0.000340134
0.000175312
8.68444e-05
4.13768e-05
1.8977e-05
8.38583e-06
3.57367e-06
1.4701e-06
5.84343e-07
2.24645e-07
8.36097e-08
3.01549e-08
1.05488e-08
3.58242e-09
1.1821e-09
3.7931e-10
1.18449e-10
3.60239e-11
1.06776e-11
3.08652e-12
8.70661e-13
2.39811e-13
6.45316e-14
1.6974e-14
4.36635e-15
1.09895e-15
2.70736e-16
6.53134e-17
1.54352e-17
3.5746e-18
8.1151e-19
1.80654e-19
3.94468e-20
8.45097e-21
1.7768e-21
3.66702e-22
7.43056e-23
1.47861e-23
2.88995e-24
5.54891e-25
1.04683e-25
1.94072e-26
3.5361e-27
6.33319e-28
1.11508e-28
1.93031e-29
3.28567e-30
5.49973e-31
9.05355e-32
1.46588e-32
2.3346e-33
3.65763e-34
5.63759e-35
8.54909e-36
1.27557e-36
1.87274e-37
2.70612e-38
3.85517e-39
5.41433e-40
7.49596e-41
1.02299e-41
1.37615e-42
1.8247e-43
2.3847e-44
3.07168e-45
3.89948e-46
4.87882e-47
6.01577e-48
7.31025e-49
8.75456e-50
1.03323e-50
1.20178e-51
1.37759e-52
1.55628e-53
1.73276e-54
1.90141e-55
2.05641e-56
2.19207e-57
2.30314e-58
2.38517e-59
2.4348e-60
2.45e-61
2.4302e-62
2.37634e-63
2.29075e-64
2.17703e-65
2.0398e-66
1.88435e-67
1.71633e-68
1.54143e-69
1.36504e-70
1.19202e-71
1.02648e-72
8.71684e-74
7.30009e-75
6.02933e-76
4.91127e-77
3.94559e-78
3.12631e-79
2.44319e-80
1.88318e-81
1.43163e-82
1.07341e-83
7.93744e-85
5.78814e-86
4.16213e-87
2.95067e-88
2.06214e-89
1.42001e-90
9.63451e-92
6.43274e-93
4.22779e-94
2.72633e-95
1.72759e-96
1.06646e-97
6.45328e-99
1.86239e-15
6.82306e-14
1.14626e-12
1.21947e-11
9.46703e-11
5.77952e-10
2.90901e-09
1.24738e-08
4.66901e-08
1.55473e-07
4.67682e-07
1.28736e-06
3.27892e-06
7.80359e-06
1.7505e-05
3.72947e-05
7.59592e-05
0.000148696
0.000280969
0.000514104
0.000913045
0.00157653
0.0026499
0.00434046
0.006935
0.0108176
0.0164837
0.0245418
0.0356931
0.0506785
0.0701976
0.0948177
0.124908
0.160607
0.20177
0.247726
0.296893
0.346792
0.391418
0.426652
0.45474
0.474784
0.48447
0.488149
0.483482
0.471681
0.451387
0.425556
0.393536
0.357087
0.316963
0.275935
0.236969
0.200846
0.165133
0.131498
0.10127
0.0755703
0.0547105
0.0380201
0.0253822
0.0162891
0.0100285
0.00591547
0.00334759
0.00181567
0.00094485
0.00047206
0.000226621
0.000104631
4.65041e-05
1.99166e-05
8.22768e-06
3.28189e-06
1.26535e-06
4.72045e-07
1.70563e-07
5.97511e-08
2.03131e-08
6.70767e-09
2.15332e-09
6.72576e-10
2.04554e-10
6.06209e-11
1.7518e-11
4.93941e-12
1.35974e-12
3.65654e-13
9.61063e-14
2.4701e-14
6.21098e-15
1.52854e-15
3.68332e-16
8.69385e-17
2.01071e-17
4.55818e-18
1.01315e-18
2.20862e-19
4.72333e-20
9.91207e-21
2.0416e-21
4.12819e-22
8.19636e-23
1.59822e-23
3.06115e-24
5.76016e-25
1.06501e-25
1.93512e-26
3.45583e-27
6.06655e-28
1.04696e-28
1.77648e-29
2.96404e-30
4.86344e-31
7.84842e-32
1.24577e-32
1.94515e-33
2.98784e-34
4.51536e-35
6.71412e-36
9.82381e-37
1.41439e-37
2.00509e-38
2.80175e-39
3.85864e-40
5.23768e-41
7.00698e-42
9.23839e-43
1.20039e-43
1.53709e-44
1.93962e-45
2.41195e-46
2.9556e-47
3.56901e-48
4.24692e-49
4.97999e-50
5.75458e-51
6.55298e-52
7.3538e-53
8.13285e-54
8.86427e-55
9.52192e-56
1.00809e-56
1.05192e-57
1.08191e-58
1.09682e-59
1.09605e-60
1.07968e-61
1.04843e-62
1.00367e-63
9.47228e-65
8.8136e-66
8.08543e-67
7.3134e-68
6.52259e-69
5.73614e-70
4.97435e-71
4.25386e-72
3.58737e-73
2.98351e-74
2.4471e-75
1.97951e-76
1.57926e-77
1.24264e-78
9.64351e-80
7.38112e-81
5.57177e-82
4.14801e-83
3.04524e-84
2.20456e-85
1.5734e-86
1.10704e-87
7.67465e-89
5.24256e-90
3.52442e-91
2.33258e-92
1.51543e-93
9.67796e-95
6.0351e-96
3.69527e-97
5.00971e-15
1.91035e-13
3.30499e-12
3.61277e-11
2.88026e-10
1.80594e-09
9.31303e-09
4.08267e-08
1.55914e-07
5.2867e-07
1.61639e-06
4.51445e-06
1.16478e-05
2.80409e-05
6.35475e-05
0.000136633
0.000280574
0.000553267
0.00105207
0.00193522
0.00345117
0.00597691
0.0100672
0.0165184
0.0264521
0.041422
0.0635449
0.0956557
0.141484
0.205784
0.294096
0.41132
0.510375
0.598599
0.688772
0.743309
0.793422
0.827659
0.845875
0.865868
0.875524
0.881933
0.887633
0.890619
0.891944
0.890401
0.885331
0.876642
0.862322
0.841796
0.813321
0.774796
0.722888
0.657621
0.582682
0.499189
0.410135
0.322044
0.247352
0.185122
0.131876
0.0900162
0.0592091
0.037146
0.0223131
0.0128239
0.00705236
0.00371493
0.00187577
0.000908761
0.000422854
0.000189172
8.14562e-05
3.3797e-05
1.35275e-05
5.22928e-06
1.95453e-06
7.07132e-07
2.47904e-07
8.4301e-08
2.78338e-08
8.93106e-09
2.7874e-09
8.46867e-10
2.50658e-10
7.23282e-11
2.03602e-11
5.5947e-12
1.50155e-12
3.9383e-13
1.00995e-13
2.53347e-14
6.21934e-15
1.49473e-15
3.51832e-16
8.11361e-17
1.83375e-17
4.06301e-18
8.82795e-19
1.88145e-19
3.93417e-20
8.07316e-21
1.62614e-21
3.21578e-22
6.24467e-23
1.19099e-23
2.23126e-24
4.10686e-25
7.42761e-26
1.32017e-26
2.30624e-27
3.96035e-28
6.68597e-29
1.10981e-29
1.81145e-30
2.90769e-31
4.59043e-32
7.12825e-33
1.08887e-33
1.63632e-34
2.41935e-35
3.51966e-36
5.03845e-37
7.10154e-38
9.86387e-39
1.35012e-39
1.82106e-40
2.42043e-41
3.17007e-42
4.09117e-43
5.20261e-44
6.51908e-45
8.04899e-46
9.79229e-47
1.17387e-47
1.38659e-48
1.6139e-49
1.85104e-50
2.09206e-51
2.33004e-52
2.55737e-53
2.76617e-54
2.94873e-55
3.09795e-56
3.20784e-57
3.27391e-58
3.29345e-59
3.26574e-60
3.19211e-61
3.07577e-62
2.92164e-63
2.736e-64
2.52602e-65
2.29936e-66
2.06369e-67
1.82626e-68
1.5936e-69
1.37124e-70
1.16352e-71
9.73595e-73
8.03411e-74
6.53829e-75
5.24765e-76
4.15382e-77
3.24274e-78
2.49666e-79
1.89573e-80
1.41956e-81
1.04823e-82
7.63244e-84
5.47877e-85
3.87698e-86
2.70326e-87
1.8572e-88
1.2559e-89
8.36066e-91
5.46695e-92
3.51402e-93
2.21056e-94
1.36608e-95
9.15453e-15
3.78446e-13
6.97488e-12
8.05032e-11
6.72811e-10
4.36907e-09
2.31561e-08
1.04262e-07
4.08544e-07
1.41946e-06
4.43392e-06
1.26109e-05
3.30363e-05
8.05375e-05
0.000184416
0.000399934
0.00082735
0.00164259
0.00314518
0.00583088
0.0104983
0.018403
0.031483
0.0526977
0.0865594
0.139988
0.223568
0.35285
0.501245
0.62312
0.737585
0.791082
0.847394
0.884052
0.90306
0.91707
0.923943
0.928403
0.930508
0.931531
0.932396
0.934061
0.938532
0.944242
0.949794
0.956456
0.961575
0.966405
0.969437
0.971262
0.971992
0.9688
0.962695
0.951966
0.934659
0.908168
0.86809
0.807581
0.716155
0.599817
0.471263
0.344015
0.243579
0.165079
0.106017
0.0652463
0.0382224
0.02139
0.0114355
0.00584818
0.002864
0.0013447
0.000606038
0.00026251
0.000109427
4.39538e-05
1.70344e-05
6.37771e-06
2.30963e-06
8.09969e-07
2.75375e-07
9.08587e-08
2.9122e-08
9.07583e-09
2.75256e-09
8.13049e-10
2.34073e-10
6.57261e-11
1.80118e-11
4.8202e-12
1.26038e-12
3.22173e-13
8.05441e-14
1.97027e-14
4.71784e-15
1.10625e-15
2.541e-16
5.71934e-17
1.26186e-17
2.72973e-18
5.79155e-19
1.20543e-19
2.46187e-20
4.93471e-21
9.71002e-22
1.87597e-22
3.55925e-23
6.63276e-24
1.21423e-24
2.18399e-25
3.86012e-26
6.70522e-27
1.14484e-27
1.92152e-28
3.17081e-29
5.14477e-30
8.20878e-31
1.28811e-31
1.98807e-32
3.01825e-33
4.50778e-34
6.62357e-35
9.57592e-36
1.36225e-36
1.9089e-37
2.63561e-38
3.58536e-39
4.80549e-40
6.34586e-41
8.25645e-42
1.05839e-42
1.33673e-43
1.66338e-44
2.03934e-45
2.46344e-46
2.93194e-47
3.43824e-48
3.9728e-49
4.52321e-50
5.07456e-51
5.61003e-52
6.11169e-53
6.56149e-54
6.9423e-55
7.23902e-56
7.43959e-57
7.53576e-58
7.52369e-59
7.4042e-60
7.18266e-61
6.86864e-62
6.47519e-63
6.01792e-64
5.51405e-65
4.98131e-66
4.4369e-67
3.89671e-68
3.37452e-69
2.88163e-70
2.42656e-71
2.01503e-72
1.65015e-73
1.33267e-74
1.06143e-75
8.33724e-77
6.45838e-78
4.9338e-79
3.71697e-80
2.76127e-81
2.02266e-82
1.46066e-83
1.03982e-84
7.29417e-86
5.04152e-87
3.43055e-88
2.29805e-89
1.51307e-90
9.79438e-92
6.21702e-93
3.87906e-94
1.49194e-14
6.77267e-13
1.30444e-11
1.53449e-10
1.28326e-09
8.55775e-09
4.75852e-08
2.22987e-07
9.02755e-07
3.21849e-06
1.02703e-05
2.97328e-05
7.90243e-05
0.000194921
0.000450666
0.000985572
0.00205543
0.00411996
0.00796865
0.0149934
0.0275491
0.0496234
0.0878903
0.153517
0.265743
0.446394
0.592061
0.720677
0.794074
0.850751
0.876564
0.888609
0.894663
0.896429
0.895383
0.887925
0.870269
0.850816
0.83228
0.819769
0.813869
0.812496
0.826725
0.844899
0.868941
0.895515
0.9214
0.944446
0.961782
0.973151
0.981516
0.986141
0.989167
0.990572
0.991338
0.989881
0.985839
0.977812
0.963259
0.937715
0.8932
0.816148
0.687539
0.52771
0.366685
0.244232
0.154249
0.0925641
0.0528534
0.0287509
0.0149191
0.00739553
0.00350703
0.00159326
0.000694475
0.000290877
0.000117247
4.55482e-05
1.70781e-05
6.18871e-06
2.17025e-06
7.37382e-07
2.43019e-07
7.77695e-08
2.41893e-08
7.31939e-09
2.15639e-09
6.19041e-10
1.73284e-10
4.73298e-11
1.26215e-11
3.28802e-12
8.37203e-13
2.08453e-13
5.07767e-14
1.21054e-14
2.82563e-15
6.46005e-16
1.44705e-16
3.17684e-17
6.83749e-18
1.44314e-18
2.98773e-19
6.06879e-20
1.20973e-20
2.36697e-21
4.54677e-22
8.57632e-23
1.58879e-23
2.89114e-24
5.16868e-25
9.07957e-26
1.56742e-26
2.65951e-27
4.43575e-28
7.27337e-29
1.17262e-29
1.85901e-30
2.89838e-31
4.44447e-32
6.70374e-33
9.94693e-34
1.45203e-34
2.08549e-35
2.94879e-36
4.10742e-37
5.63621e-38
7.61903e-39
1.01463e-39
1.33111e-40
1.72035e-41
2.1904e-42
2.74748e-43
3.39513e-44
4.1333e-45
4.9575e-46
5.85821e-47
6.82047e-48
7.82389e-49
8.8431e-50
9.84859e-51
1.0808e-51
1.16879e-52
1.24556e-53
1.30811e-54
1.35391e-55
1.3811e-56
1.38855e-57
1.37601e-58
1.34407e-59
1.29414e-60
1.22832e-61
1.14932e-62
1.06017e-63
9.64149e-65
8.64484e-66
7.64246e-67
6.66175e-68
5.72583e-69
4.85286e-70
4.05582e-71
3.34267e-72
2.71677e-73
2.17752e-74
1.72117e-75
1.34165e-76
1.03134e-77
7.81813e-79
5.84399e-80
4.30728e-81
3.12978e-82
2.24183e-83
1.58246e-84
1.10062e-85
7.53804e-87
5.08288e-88
3.37082e-89
2.19845e-90
1.40816e-91
8.87284e-93
1.65762e-14
8.46716e-13
1.8016e-11
2.40069e-10
2.41707e-09
1.81635e-08
1.05601e-07
5.07727e-07
2.09501e-06
7.586e-06
2.44958e-05
7.14754e-05
0.000190531
0.000467973
0.00106563
0.00226385
0.00455213
0.00898188
0.0177906
0.0344056
0.0649135
0.121987
0.228077
0.423161
0.596782
0.715468
0.802073
0.844322
0.864067
0.872079
0.873624
0.866759
0.838663
0.793859
0.721582
0.628332
0.56828
0.512049
0.47635
0.459009
0.452108
0.451111
0.468652
0.49746
0.544322
0.610615
0.690049
0.778791
0.844281
0.900368
0.938052
0.963362
0.979338
0.988498
0.993315
0.995735
0.996839
0.997325
0.996745
0.99458
0.989555
0.979025
0.957322
0.912974
0.823899
0.663727
0.470638
0.304056
0.188149
0.109877
0.0609332
0.0321303
0.0161376
0.00773365
0.00354263
0.00155398
0.000653924
0.000264445
0.000102945
3.86407e-05
1.40057e-05
4.90911e-06
1.66613e-06
5.48214e-07
1.75072e-07
5.43193e-08
1.63901e-08
4.81365e-09
1.37717e-09
3.84096e-10
1.04503e-10
2.77542e-11
7.19929e-12
1.82491e-12
4.52275e-13
1.0964e-13
2.60089e-14
6.04e-15
1.37363e-15
3.06037e-16
6.68164e-17
1.42998e-17
3.0008e-18
6.17617e-19
1.24705e-19
2.47076e-20
4.80462e-21
9.17186e-22
1.71914e-22
3.16447e-23
5.7214e-24
1.01622e-24
1.77348e-25
3.04145e-26
5.1264e-27
8.49337e-28
1.38337e-28
2.21534e-29
3.48847e-30
5.4022e-31
8.22795e-32
1.23266e-32
1.81663e-33
2.63391e-34
3.75836e-35
5.28209e-36
7.31193e-37
9.9698e-38
1.33899e-38
1.77138e-39
2.30833e-40
2.96304e-41
3.74663e-42
4.66676e-43
5.72624e-44
6.92174e-45
8.24259e-46
9.67002e-47
1.11769e-47
1.2728e-48
1.4281e-49
1.57883e-50
1.7199e-51
1.84623e-52
1.95296e-53
2.03586e-54
2.09155e-55
2.11773e-56
2.11336e-57
2.07871e-58
2.01537e-59
1.92606e-60
1.81451e-61
1.68516e-62
1.54289e-63
1.39269e-64
1.23943e-65
1.08755e-66
9.40926e-68
8.02701e-69
6.7524e-70
5.6012e-71
4.58176e-72
3.6959e-73
2.94001e-74
2.30632e-75
1.78413e-76
1.36101e-77
1.02376e-78
7.59313e-80
5.55224e-81
4.0022e-82
2.84318e-83
1.99027e-84
1.37223e-85
9.31639e-87
6.22415e-88
4.09123e-89
2.64423e-90
1.6826e-91
2.22379e-14
1.3901e-12
3.09937e-11
3.83948e-10
3.2547e-09
2.35666e-08
1.40573e-07
6.98269e-07
2.97203e-06
1.10747e-05
3.67221e-05
0.000109859
0.000300181
0.000757923
0.00178905
0.00401772
0.00883577
0.0197036
0.0388061
0.0716789
0.1413
0.286242
0.500605
0.654388
0.766587
0.82004
0.845425
0.85407
0.856203
0.842064
0.798045
0.708068
0.567812
0.477448
0.393334
0.357262
0.329888
0.317096
0.311408
0.309826
0.310063
0.312401
0.315102
0.316692
0.318179
0.325354
0.349018
0.401482
0.51482
0.652358
0.781618
0.864976
0.921446
0.956807
0.977678
0.989241
0.995058
0.997659
0.998715
0.9991
0.999121
0.998507
0.996632
0.991819
0.979945
0.951332
0.883711
0.733633
0.520111
0.328065
0.196955
0.111502
0.0597969
0.0304439
0.0147463
0.00681046
0.00300559
0.0012702
0.00051511
0.000200844
7.54286e-05
2.73316e-05
9.57009e-06
3.24272e-06
1.06466e-06
3.39108e-07
1.04898e-07
3.15454e-08
9.23077e-09
2.6305e-09
7.30586e-10
1.97898e-10
5.23154e-11
1.35049e-11
3.40618e-12
8.39797e-13
2.02495e-13
4.77725e-14
1.10316e-14
2.49435e-15
5.52444e-16
1.19888e-16
2.55004e-17
5.31783e-18
1.08756e-18
2.1818e-19
4.29461e-20
8.29621e-21
1.57317e-21
2.92887e-22
5.35472e-23
9.61531e-24
1.69612e-24
2.93958e-25
5.0063e-26
8.37945e-27
1.37861e-27
2.22972e-28
3.54567e-29
5.54416e-30
8.52537e-31
1.28937e-31
1.91809e-32
2.80695e-33
4.04183e-34
5.73136e-35
8.00362e-36
1.10073e-36
1.4909e-37
1.98888e-38
2.61317e-39
3.38172e-40
4.31051e-41
5.4119e-42
6.69292e-43
8.15337e-44
9.78428e-45
1.15666e-45
1.34705e-46
1.54553e-47
1.74706e-48
1.94576e-49
2.1352e-50
2.30874e-51
2.45991e-52
2.58277e-53
2.67237e-54
2.72501e-55
2.73855e-56
2.71252e-57
2.64816e-58
2.54831e-59
2.41722e-60
2.26024e-61
2.08346e-62
1.89333e-63
1.69628e-64
1.49835e-65
1.30494e-66
1.12058e-67
9.48828e-69
7.92203e-70
6.52228e-71
5.29525e-72
4.23939e-73
3.34696e-74
2.60572e-75
2.00044e-76
1.51435e-77
1.13034e-78
8.31821e-80
6.03457e-81
4.31496e-82
3.0405e-83
2.11065e-84
1.44307e-85
9.71358e-87
6.43605e-88
4.19696e-89
2.69678e-90
1.45929e-14
1.27817e-12
3.28912e-11
5.02775e-10
5.36139e-09
4.15263e-08
2.55387e-07
1.30905e-06
5.71345e-06
2.14163e-05
6.95385e-05
0.000199224
0.000522136
0.00132298
0.00330713
0.00789776
0.0169776
0.0325162
0.0648734
0.137832
0.295766
0.499227
0.674443
0.768793
0.816938
0.835642
0.841579
0.838011
0.80312
0.71514
0.547401
0.428448
0.363421
0.319795
0.299557
0.290848
0.286852
0.285744
0.286368
0.289924
0.29484
0.300337
0.305979
0.308348
0.305554
0.292757
0.278095
0.271471
0.275555
0.316401
0.427427
0.608752
0.773902
0.872164
0.929778
0.964331
0.983062
0.992577
0.997019
0.998846
0.999474
0.999681
0.999713
0.999484
0.998573
0.995769
0.987582
0.964535
0.901734
0.74164
0.50715
0.310655
0.179685
0.0980358
0.0505865
0.0247556
0.0115205
0.00511181
0.00216808
0.000881075
0.000343832
0.000129109
4.67363e-05
1.63368e-05
5.52286e-06
1.80821e-06
5.74078e-07
1.76942e-07
5.30006e-08
1.54432e-08
4.38104e-09
1.21099e-09
3.26397e-10
8.58378e-11
2.20395e-11
5.5279e-12
1.35511e-12
3.24831e-13
7.61721e-14
1.74812e-14
3.92781e-15
8.64348e-16
1.86351e-16
3.93749e-17
8.15601e-18
1.65665e-18
3.30058e-19
6.45158e-20
1.23754e-20
2.33008e-21
4.30712e-22
7.81802e-23
1.39374e-23
2.44072e-24
4.19932e-25
7.09962e-26
1.17965e-26
1.9266e-27
3.09325e-28
4.88286e-29
7.57925e-30
1.15696e-30
1.73702e-31
2.56521e-32
3.72706e-33
5.33178e-34
7.51034e-35
1.04171e-35
1.42284e-36
1.91382e-37
2.53512e-38
3.30719e-39
4.24912e-40
5.3769e-41
6.70152e-42
8.22692e-43
9.94811e-44
1.18495e-44
1.39038e-45
1.60715e-46
1.83016e-47
2.05329e-48
2.26965e-49
2.4719e-50
2.65271e-51
2.80512e-52
2.92305e-53
3.00167e-54
3.03775e-55
3.02986e-56
2.97847e-57
2.88592e-58
2.75622e-59
2.59478e-60
2.40804e-61
2.20304e-62
1.98698e-63
1.76682e-64
1.54896e-65
1.3389e-66
1.14113e-67
9.58989e-69
7.94683e-70
6.49361e-71
5.23236e-72
4.1575e-73
3.25753e-74
2.51689e-75
1.91754e-76
1.44049e-77
1.06691e-78
7.79042e-80
5.60722e-81
3.9776e-82
2.78028e-83
1.91453e-84
1.29851e-85
8.67335e-87
5.70591e-88
3.70162e-89
8.73986e-15
8.26766e-13
2.63178e-11
4.44597e-10
4.96472e-09
4.0735e-08
2.71107e-07
1.49211e-06
6.97109e-06
2.85102e-05
0.000103843
0.000338485
0.000989952
0.00258439
0.00602594
0.0128927
0.0266725
0.0561291
0.119685
0.25532
0.444767
0.648481
0.752451
0.802641
0.823217
0.830209
0.822848
0.779043
0.647735
0.479128
0.377772
0.324103
0.297868
0.284973
0.277718
0.266409
0.260841
0.255199
0.252136
0.251006
0.261421
0.277241
0.297649
0.317561
0.335081
0.342203
0.323043
0.279404
0.251957
0.242314
0.254688
0.313519
0.474299
0.705966
0.835481
0.914276
0.957788
0.980393
0.991459
0.996508
0.9987
0.999548
0.999816
0.999894
0.999892
0.999737
0.999086
0.996765
0.988968
0.964043
0.887797
0.686419
0.438677
0.259447
0.143913
0.0751952
0.0371394
0.0173967
0.00775259
0.00329649
0.00134111
0.000523312
0.000196298
7.09268e-05
2.47305e-05
8.33484e-06
2.71921e-06
8.59904e-07
2.639e-07
7.86837e-08
2.28146e-08
6.43892e-09
1.77026e-09
4.74471e-10
1.24057e-10
3.16627e-11
7.8928e-12
1.92267e-12
4.57907e-13
1.06672e-13
2.43165e-14
5.4263e-15
1.18582e-15
2.53861e-16
5.32569e-17
1.09519e-17
2.20835e-18
4.36739e-19
8.47357e-20
1.61327e-20
3.01468e-21
5.53053e-22
9.96255e-23
1.76253e-23
3.06301e-24
5.22971e-25
8.774e-26
1.4467e-26
2.34466e-27
3.73565e-28
5.85188e-29
9.01408e-30
1.36552e-30
2.03456e-31
2.98216e-32
4.30311e-33
6.11294e-34
8.54985e-35
1.17742e-35
1.59657e-36
2.1318e-37
2.80303e-38
3.62951e-39
4.62833e-40
5.81266e-41
7.18981e-42
8.7593e-43
1.05112e-43
1.24246e-44
1.4467e-45
1.65944e-46
1.87522e-47
2.0877e-48
2.28997e-49
2.4749e-50
2.63555e-51
2.7656e-52
2.85979e-53
2.91423e-54
2.9267e-55
2.89679e-56
2.82592e-57
2.71723e-58
2.57535e-59
2.40606e-60
2.21594e-61
2.01191e-62
1.80083e-63
1.58918e-64
1.38268e-65
1.18614e-66
1.0033e-67
8.36785e-69
6.8818e-70
5.58086e-71
4.4629e-72
3.51927e-73
2.73656e-74
2.09829e-75
1.58642e-76
1.18262e-77
8.6918e-79
6.29753e-80
4.49753e-81
3.16563e-82
2.19567e-83
1.50055e-84
1.0104e-85
6.70505e-87
4.39071e-88
7.03679e-15
5.60541e-13
1.95236e-11
3.35606e-10
3.71562e-09
3.26521e-08
2.341e-07
1.36227e-06
6.66004e-06
2.84598e-05
0.000107523
0.000359291
0.00105987
0.00277224
0.00652566
0.014288
0.0311743
0.0714763
0.169359
0.338584
0.560944
0.713851
0.779405
0.806646
0.816494
0.807643
0.764174
0.645971
0.475247
0.364684
0.310493
0.285079
0.273454
0.257375
0.231766
0.200654
0.169791
0.14125
0.127899
0.123674
0.132276
0.150259
0.184841
0.239122
0.309048
0.352514
0.36801
0.369277
0.308849
0.249931
0.234442
0.245333
0.293943
0.457409
0.699101
0.842636
0.922796
0.963809
0.98381
0.993106
0.997199
0.998926
0.999625
0.999877
0.999951
0.999966
0.999939
0.999772
0.999048
0.996185
0.985564
0.948476
0.825164
0.565876
0.340864
0.191893
0.101355
0.0504366
0.0237404
0.0106089
0.00451607
0.00183688
0.000715851
0.000267944
9.65367e-05
3.35436e-05
1.12603e-05
3.65752e-06
1.15113e-06
3.51482e-07
1.04235e-07
3.00534e-08
8.43225e-09
2.30422e-09
6.13712e-10
1.59429e-10
4.04208e-11
1.00077e-11
2.42096e-12
5.72511e-13
1.3241e-13
2.99634e-14
6.63693e-15
1.4395e-15
3.05831e-16
6.36678e-17
1.29916e-17
2.5992e-18
5.10001e-19
9.81684e-20
1.85417e-20
3.43724e-21
6.25527e-22
1.11777e-22
1.96162e-23
3.38155e-24
5.7271e-25
9.53112e-26
1.55889e-26
2.50618e-27
3.96096e-28
6.15514e-29
9.40553e-30
1.41347e-30
2.08954e-31
3.04043e-32
4.35482e-33
6.14025e-34
8.52336e-35
1.16485e-35
1.56742e-36
2.07673e-37
2.70941e-38
3.4809e-39
4.40402e-40
5.48746e-41
6.73405e-42
8.13928e-43
9.68995e-44
1.13633e-44
1.31266e-45
1.49378e-46
1.67468e-47
1.84972e-48
2.01294e-49
2.15836e-50
2.28039e-51
2.37413e-52
2.43574e-53
2.46269e-54
2.45391e-55
2.40991e-56
2.33266e-57
2.22553e-58
2.09298e-59
1.94028e-60
1.77317e-61
1.5975e-62
1.41891e-63
1.24253e-64
1.07279e-65
9.13251e-67
7.66568e-68
6.34464e-69
5.17809e-70
4.1672e-71
3.30703e-72
2.58792e-73
1.997e-74
1.51954e-75
1.14008e-76
8.43392e-78
6.15125e-79
4.42285e-80
3.13481e-81
2.19004e-82
1.50809e-83
1.02365e-84
6.85121e-86
4.52757e-87
6.98721e-15
4.37152e-13
1.3855e-11
2.426e-10
2.7739e-09
2.46663e-08
1.82443e-07
1.12389e-06
5.82231e-06
2.55647e-05
9.78823e-05
0.000333059
0.00101151
0.00279744
0.00720125
0.0175794
0.042547
0.100993
0.218497
0.407592
0.628304
0.737054
0.783484
0.804173
0.808586
0.790891
0.71294
0.542363
0.395124
0.321642
0.287649
0.271845
0.250272
0.209951
0.165355
0.123123
0.0935908
0.0786236
0.0722596
0.0706066
0.077632
0.0908512
0.109256
0.133823
0.180615
0.288669
0.367331
0.391434
0.385745
0.320576
0.249362
0.241155
0.259119
0.341886
0.574969
0.78135
0.897421
0.954259
0.980298
0.991728
0.996628
0.998671
0.999494
0.999815
0.999937
0.999978
0.999988
0.999981
0.999928
0.999657
0.998427
0.993254
0.972994
0.898507
0.672165
0.412951
0.235388
0.125357
0.0626976
0.0295889
0.0132323
0.0056289
0.00228537
0.000888212
0.000331314
0.000118884
4.11207e-05
1.37351e-05
4.43751e-06
1.3887e-06
4.21497e-07
1.24222e-07
3.55856e-08
9.91801e-09
2.69166e-09
7.11863e-10
1.83595e-10
4.62056e-11
1.13542e-11
2.72575e-12
6.39596e-13
1.46764e-13
3.29476e-14
7.23925e-15
1.5574e-15
3.28169e-16
6.77545e-17
1.37107e-17
2.72016e-18
5.29255e-19
1.01016e-19
1.89183e-20
3.47733e-21
6.27451e-22
1.11167e-22
1.93433e-23
3.30614e-24
5.55176e-25
9.16083e-26
1.48561e-26
2.36817e-27
3.71123e-28
5.71853e-29
8.66501e-30
1.29149e-30
1.89435e-31
2.73473e-32
3.88591e-33
5.43529e-34
7.48406e-35
1.01453e-35
1.35403e-36
1.77932e-37
2.30234e-38
2.93358e-39
3.68096e-40
4.54868e-41
5.53595e-42
6.63596e-43
7.83509e-44
9.11244e-45
1.04399e-45
1.1783e-46
1.31017e-47
1.43529e-48
1.5492e-49
1.64762e-50
1.72666e-51
1.7831e-52
1.81462e-53
1.81994e-54
1.79892e-55
1.75253e-56
1.68283e-57
1.59278e-58
1.48604e-59
1.36674e-60
1.23918e-61
1.10764e-62
9.76093e-64
8.48074e-65
7.26506e-66
6.13653e-67
5.11091e-68
4.19736e-69
3.39912e-70
2.71442e-71
2.13753e-72
1.65986e-73
1.27102e-74
9.59731e-76
7.14576e-77
5.24608e-78
3.79742e-79
2.7102e-80
1.90703e-81
1.3231e-82
9.05207e-84
6.10936e-85
4.07335e-86
5.07074e-15
2.80077e-13
1.03329e-11
1.70207e-10
2.1011e-09
1.88068e-08
1.36108e-07
8.35968e-07
4.36205e-06
1.96904e-05
7.84017e-05
0.00027928
0.00089383
0.00256271
0.00673068
0.0168605
0.0413783
0.0979078
0.21229
0.406523
0.624062
0.733129
0.779922
0.798869
0.798772
0.758946
0.638274
0.467557
0.351788
0.296254
0.269258
0.246821
0.21037
0.163784
0.118767
0.0858596
0.0658027
0.055967
0.051602
0.0523205
0.0579545
0.070936
0.0917414
0.11231
0.14033
0.2058
0.321301
0.39229
0.403827
0.380507
0.297005
0.255975
0.257594
0.308544
0.513885
0.751352
0.88573
0.950644
0.979271
0.991457
0.996549
0.998641
0.99948
0.999807
0.999931
0.999977
0.999993
0.999996
0.999993
0.999971
0.999842
0.999195
0.996194
0.983323
0.932011
0.745653
0.467033
0.268617
0.143743
0.0720293
0.033986
0.0151728
0.00643618
0.00260352
0.00100746
0.000373948
0.000133462
4.58965e-05
1.52367e-05
4.89108e-06
1.52042e-06
4.58282e-07
1.34098e-07
3.81324e-08
1.05477e-08
2.84047e-09
7.45302e-10
1.90676e-10
4.75961e-11
1.1599e-11
2.76113e-12
6.42391e-13
1.4614e-13
3.2523e-14
7.08353e-15
1.51049e-15
3.15468e-16
6.45529e-17
1.29461e-17
2.54545e-18
4.90812e-19
9.28352e-20
1.72294e-20
3.1383e-21
5.61161e-22
9.85249e-23
1.69887e-23
2.87751e-24
4.78849e-25
7.83037e-26
1.25846e-26
1.98813e-27
3.08789e-28
4.71576e-29
7.08355e-30
1.04695e-30
1.52273e-31
2.17961e-32
3.07067e-33
4.25815e-34
5.81264e-35
7.81132e-36
1.03348e-36
1.34628e-37
1.72685e-38
2.18114e-39
2.713e-40
3.32338e-41
4.00957e-42
4.76463e-43
5.57696e-44
6.43023e-45
7.30363e-46
8.17255e-47
9.00959e-48
9.78594e-49
1.0473e-49
1.10442e-50
1.14766e-51
1.17524e-52
1.18602e-53
1.17961e-54
1.15631e-55
1.1172e-56
1.06395e-57
9.98765e-59
9.24229e-60
8.43116e-61
7.58236e-62
6.72278e-63
5.87675e-64
5.06508e-65
4.30439e-66
3.60684e-67
2.9802e-68
2.42817e-69
1.95092e-70
1.54572e-71
1.20771e-72
9.30537e-74
7.07046e-75
5.29786e-76
3.91464e-77
2.85244e-78
2.04967e-79
1.45246e-80
1.01517e-81
6.99933e-83
4.76258e-84
3.20284e-85
2.68985e-10
2.89154e-11
-3.03965e-12
7.40474e-11
9.8766e-10
1.06731e-08
8.66655e-08
5.29557e-07
2.8377e-06
1.33612e-05
5.54212e-05
0.000204397
0.000677054
0.00202867
0.00555019
0.0143696