/*--------------------------------*- C++ -*----------------------------------*\
  =========                 |
  \\      /  F ield         | OpenFOAM: The Open Source CFD Toolbox
   \\    /   O peration     | Website:  https://openfoam.org
    \\  /    A nd           | Version:  7
     \\/     M anipulation  |
\*---------------------------------------------------------------------------*/
FoamFile
{
    version     2.0;
    format      ascii;
    class       volVectorField;
    location    "0.022";
    object      U;
}
// * * * * * * * * * * * * * * * * * * * * * * * * * * * * * * * * * * * * * //

dimensions      [0 1 -1 0 0 0 0];

internalField   nonuniform List<vector> 
12225
(
(4.79803 0.166519 0)
(4.19922 0.123267 0)
(3.71162 0.101686 0)
(3.33898 0.0838976 0)
(3.01354 0.0725089 0)
(2.68074 0.0666616 0)
(2.34903 0.0569693 0)
(2.0597 0.0425193 0)
(1.82475 0.0311025 0)
(1.63467 0.0256313 0)
(1.4733 0.0220818 0)
(1.33581 0.0176073 0)
(1.21365 0.011932 0)
(1.12148 0.00616114 0)
(1.03842 0.00271434 0)
(0.990493 -0.000769455 0)
(0.930053 0.00463688 0)
(0.897106 0.000118707 0)
(5.00699 0.0738507 0)
(4.8738 0.0701097 0)
(4.72287 0.0948151 0)
(4.63375 0.0877845 0)
(4.5654 0.0859659 0)
(4.47091 0.0952033 0)
(4.3473 0.102153 0)
(4.21641 0.0987883 0)
(4.08703 0.0878452 0)
(3.9605 0.0769557 0)
(3.83524 0.0699096 0)
(3.71773 0.0654223 0)
(3.60435 0.0604288 0)
(3.50691 0.0531245 0)
(3.40681 0.0458639 0)
(3.33376 0.0394024 0)
(3.24314 0.0379219 0)
(3.17485 0.0330054 0)
(5.05113 0.205865 0)
(4.89443 0.143292 0)
(4.81878 0.137584 0)
(4.77914 0.120183 0)
(4.74853 0.11299 0)
(4.72794 0.120345 0)
(4.71306 0.126467 0)
(4.69245 0.121392 0)
(4.65939 0.109817 0)
(4.61957 0.100967 0)
(4.58267 0.0974607 0)
(4.5523 0.0959571 0)
(4.52492 0.0911962 0)
(4.49542 0.0831248 0)
(4.4615 0.0741233 0)
(4.42205 0.0667563 0)
(4.38393 0.0657287 0)
(4.3382 0.0631071 0)
(5.07735 0.210998 0)
(5.01118 0.127252 0)
(4.88597 0.132329 0)
(4.7916 0.126065 0)
(4.75353 0.113284 0)
(4.75211 0.111677 0)
(4.76494 0.11731 0)
(4.7743 0.117975 0)
(4.77112 0.111473 0)
(4.75872 0.102554 0)
(4.74755 0.094598 0)
(4.74309 0.0875364 0)
(4.74473 0.0810662 0)
(4.74567 0.0754679 0)
(4.74381 0.0716337 0)
(4.73437 0.0698465 0)
(4.72393 0.0715124 0)
(4.70708 0.0706635 0)
(5.02196 0.237508 0)
(4.91291 0.173165 0)
(4.8809 0.160262 0)
(4.89316 0.142541 0)
(4.89227 0.118938 0)
(4.86463 0.109868 0)
(4.83209 0.112453 0)
(4.80889 0.11399 0)
(4.79295 0.110468 0)
(4.7807 0.10466 0)
(4.77409 0.0988578 0)
(4.77489 0.093055 0)
(4.78153 0.0872761 0)
(4.78958 0.0820628 0)
(4.79688 0.0785818 0)
(4.80091 0.0770154 0)
(4.80404 0.0774269 0)
(4.80416 0.0773313 0)
(5.08512 0.282711 0)
(4.99555 0.173879 0)
(4.8989 0.142697 0)
(4.86568 0.138353 0)
(4.86106 0.136563 0)
(4.85317 0.139395 0)
(4.83774 0.142389 0)
(4.82207 0.138384 0)
(4.81097 0.126953 0)
(4.80574 0.11267 0)
(4.80658 0.099269 0)
(4.81202 0.0878769 0)
(4.81914 0.0787664 0)
(4.82547 0.0723692 0)
(4.83052 0.0690754 0)
(4.83387 0.0683673 0)
(4.83672 0.0699127 0)
(4.83672 0.071693 0)
(4.99256 0.296097 0)
(4.97805 0.218881 0)
(4.907 0.174113 0)
(4.87322 0.138141 0)
(4.85726 0.117589 0)
(4.84736 0.115335 0)
(4.84308 0.120836 0)
(4.84173 0.121131 0)
(4.83881 0.113476 0)
(4.83311 0.102782 0)
(4.82795 0.0931322 0)
(4.82633 0.085323 0)
(4.82918 0.0790264 0)
(4.83475 0.0743134 0)
(4.84217 0.0717024 0)
(4.84907 0.0711897 0)
(4.85518 0.0730994 0)
(4.85741 0.0761635 0)
(4.9438 0.252591 0)
(4.97338 0.205922 0)
(4.98292 0.179503 0)
(4.95576 0.161528 0)
(4.89725 0.152118 0)
(4.84388 0.147379 0)
(4.82194 0.144924 0)
(4.82641 0.14008 0)
(4.83967 0.130536 0)
(4.85001 0.117635 0)
(4.85508 0.103454 0)
(4.85635 0.0894959 0)
(4.85557 0.0772311 0)
(4.85293 0.0681836 0)
(4.8501 0.0633929 0)
(4.84765 0.0630528 0)
(4.84741 0.0664095 0)
(4.84881 0.072631 0)
(5.01741 0.276507 0)
(4.96215 0.213632 0)
(4.94479 0.174274 0)
(4.9347 0.161799 0)
(4.91561 0.159441 0)
(4.89381 0.148813 0)
(4.88293 0.13203 0)
(4.88414 0.116181 0)
(4.89128 0.103974 0)
(4.89929 0.0951565 0)
(4.90609 0.088772 0)
(4.91084 0.0838596 0)
(4.91217 0.0798442 0)
(4.90937 0.0764112 0)
(4.90298 0.0735739 0)
(4.8952 0.0715957 0)
(4.88824 0.0706609 0)
(4.88328 0.0714629 0)
(5.08581 0.258331 0)
(5.05142 0.231165 0)
(5.00939 0.178301 0)
(4.99627 0.162815 0)
(4.99495 0.163991 0)
(4.98701 0.159426 0)
(4.96779 0.148096 0)
(4.94101 0.134947 0)
(4.91362 0.122067 0)
(4.89225 0.109787 0)
(4.88111 0.0982211 0)
(4.88077 0.0879871 0)
(4.8878 0.0799457 0)
(4.89719 0.074744 0)
(4.90402 0.072438 0)
(4.90633 0.0725521 0)
(4.90354 0.0746054 0)
(4.89709 0.0777578 0)
(4.97917 0.293694 0)
(5.01528 0.266939 0)
(4.99205 0.204799 0)
(4.9651 0.169222 0)
(4.94933 0.16414 0)
(4.94221 0.164948 0)
(4.9367 0.159176 0)
(4.92845 0.146704 0)
(4.91852 0.130047 0)
(4.90964 0.11124 0)
(4.90411 0.0927278 0)
(4.90211 0.0777259 0)
(4.90295 0.0685595 0)
(4.90421 0.0658597 0)
(4.90485 0.0680095 0)
(4.90297 0.0728304 0)
(4.90009 0.0782201 0)
(4.89425 0.0827804 0)
(4.98736 0.275121 0)
(5.01348 0.226584 0)
(5.02723 0.192832 0)
(4.98996 0.180425 0)
(4.93441 0.173304 0)
(4.90797 0.16362 0)
(4.91782 0.152917 0)
(4.94546 0.142429 0)
(4.97217 0.131306 0)
(4.98747 0.118342 0)
(4.99012 0.103977 0)
(4.98444 0.0903065 0)
(4.97646 0.0795039 0)
(4.96961 0.0732604 0)
(4.96576 0.0717851 0)
(4.96302 0.0740733 0)
(4.96208 0.0787857 0)
(4.95835 0.0838012 0)
(4.93248 0.330088 0)
(4.91917 0.253615 0)
(4.94532 0.205555 0)
(4.95305 0.200193 0)
(4.9499 0.191552 0)
(4.94998 0.169069 0)
(4.95281 0.142709 0)
(4.95414 0.122055 0)
(4.95447 0.109115 0)
(4.95683 0.100402 0)
(4.96359 0.0924014 0)
(4.9743 0.0843997 0)
(4.98633 0.0776789 0)
(4.99566 0.074116 0)
(5.00055 0.0745846 0)
(4.99966 0.0784366 0)
(4.99539 0.0845743 0)
(4.98772 0.0904319 0)
(4.89908 0.338968 0)
(4.97826 0.203642 0)
(5.02467 0.183142 0)
(5.038 0.191839 0)
(5.03306 0.18289 0)
(5.01892 0.16676 0)
(4.9982 0.154611 0)
(4.97487 0.14545 0)
(4.95463 0.133269 0)
(4.94141 0.115022 0)
(4.93665 0.093315 0)
(4.93913 0.074047 0)
(4.94642 0.0622541 0)
(4.9553 0.0598116 0)
(4.96472 0.0651266 0)
(4.97321 0.0748424 0)
(4.98209 0.085214 0)
(4.99048 0.0935345 0)
(5.01392 0.258645 0)
(4.99506 0.166885 0)
(4.97852 0.159541 0)
(4.96957 0.181656 0)
(4.97326 0.19137 0)
(4.98609 0.183628 0)
(4.99799 0.167396 0)
(5.00374 0.149449 0)
(5.00356 0.131239 0)
(4.99951 0.112637 0)
(4.99385 0.0944152 0)
(4.98785 0.0785825 0)
(4.98234 0.0672094 0)
(4.9779 0.0613926 0)
(4.97639 0.0606209 0)
(4.97813 0.0634504 0)
(4.98483 0.0674195 0)
(4.99389 0.071556 0)
(5.0886 0.281786 0)
(5.04414 0.229515 0)
(5.01821 0.225526 0)
(4.99927 0.212839 0)
(4.99976 0.178777 0)
(5.01452 0.15047 0)
(5.02687 0.142576 0)
(5.02778 0.145282 0)
(5.01901 0.141826 0)
(5.00719 0.126226 0)
(4.99906 0.104006 0)
(4.99828 0.0835882 0)
(5.00566 0.0700623 0)
(5.01903 0.0638554 0)
(5.03615 0.0626116 0)
(5.05319 0.0634656 0)
(5.06965 0.0643827 0)
(5.08148 0.0650686 0)
(4.93893 0.268741 0)
(4.93435 0.197914 0)
(4.97858 0.180459 0)
(5.01549 0.177764 0)
(5.02675 0.166188 0)
(5.01657 0.15422 0)
(5.00315 0.152498 0)
(5.00098 0.156858 0)
(5.01272 0.154544 0)
(5.03328 0.137532 0)
(5.0561 0.107328 0)
(5.0765 0.0718518 0)
(5.09279 0.0401021 0)
(5.10463 0.0184747 0)
(5.11237 0.00930901 0)
(5.11669 0.0110981 0)
(5.11873 0.0206154 0)
(5.11969 0.0335981 0)
(4.98781 0.261339 0)
(4.98446 0.193471 0)
(4.99205 0.165551 0)
(4.99603 0.176418 0)
(4.99079 0.187435 0)
(4.98672 0.184522 0)
(4.9922 0.162712 0)
(5.01247 0.126582 0)
(5.04555 0.0866807 0)
(5.08244 0.0522063 0)
(5.11312 0.0289214 0)
(5.13175 0.0194615 0)
(5.13791 0.0227193 0)
(5.13424 0.0346769 0)
(5.12484 0.049062 0)
(5.11381 0.0611041 0)
(5.10467 0.0673633 0)
(5.10008 0.0669906 0)
(4.95114 0.179322 0)
(4.96543 0.13018 0)
(4.97651 0.131418 0)
(4.98806 0.152992 0)
(5.01687 0.16501 0)
(5.05991 0.149109 0)
(5.09436 0.111766 0)
(5.11444 0.0723947 0)
(5.12313 0.0454577 0)
(5.12236 0.0336671 0)
(5.11494 0.0325543 0)
(5.10515 0.0368675 0)
(5.09712 0.0428092 0)
(5.09313 0.0481421 0)
(5.09435 0.0507993 0)
(5.10035 0.0499835 0)
(5.11072 0.0448363 0)
(5.12338 0.0362925 0)
(5.11269 0.165962 0)
(5.09731 0.159969 0)
(5.0805 0.165179 0)
(5.05314 0.134882 0)
(5.05617 0.0997459 0)
(5.08099 0.0767045 0)
(5.10287 0.0702003 0)
(5.11423 0.0714497 0)
(5.11876 0.070423 0)
(5.11974 0.0650071 0)
(5.11878 0.0582421 0)
(5.11752 0.0525671 0)
(5.11755 0.0474973 0)
(5.11998 0.0415994 0)
(5.12536 0.0333873 0)
(5.13309 0.0230697 0)
(5.14281 0.0110015 0)
(5.15264 -0.00124982 0)
(5.0979 0.260646 0)
(5.10507 0.204159 0)
(5.11859 0.173228 0)
(5.12495 0.138979 0)
(5.13182 0.101944 0)
(5.13402 0.0732275 0)
(5.13621 0.0560269 0)
(5.14364 0.0467144 0)
(5.15588 0.0418748 0)
(5.16946 0.0400252 0)
(5.18241 0.0399007 0)
(5.19463 0.0395299 0)
(5.20647 0.0366169 0)
(5.21729 0.0302339 0)
(5.2267 0.020969 0)
(5.23313 0.00993459 0)
(5.23719 -0.00152073 0)
(5.23698 -0.0127932 0)
(5.03238 0.289831 0)
(5.09344 0.223319 0)
(5.11659 0.158394 0)
(5.12026 0.126873 0)
(5.12931 0.105896 0)
(5.14545 0.0854895 0)
(5.1661 0.0662889 0)
(5.18857 0.0514506 0)
(5.20777 0.0416943 0)
(5.22007 0.0348345 0)
(5.22727 0.0290922 0)
(5.23395 0.023806 0)
(5.24392 0.0191066 0)
(5.25824 0.014774 0)
(5.2763 0.0108562 0)
(5.29536 0.00731774 0)
(5.31451 0.00398108 0)
(5.33121 0.000347415 0)
(4.96531 0.26109 0)
(5.04087 0.166475 0)
(5.08331 0.140306 0)
(5.09426 0.113522 0)
(5.101 0.072805 0)
(5.11717 0.0304928 0)
(5.14221 0.00124301 0)
(5.17198 -0.00700191 0)
(5.20026 3.59359e-05 0)
(5.22253 0.0108226 0)
(5.23859 0.015956 0)
(5.25023 0.0118509 0)
(5.25903 -0.000286008 0)
(5.26622 -0.0164473 0)
(5.27348 -0.0327812 0)
(5.28142 -0.0461767 0)
(5.28978 -0.0550261 0)
(5.29825 -0.0588854 0)
(5.09331 0.2648 0)
(5.09584 0.154304 0)
(5.11386 0.13298 0)
(5.15534 0.131714 0)
(5.2034 0.108043 0)
(5.22798 0.0620222 0)
(5.22474 0.0194117 0)
(5.21389 -0.00150185 0)
(5.21433 -0.0038621 0)
(5.23298 0.00163144 0)
(5.26638 0.00614499 0)
(5.30549 0.00625758 0)
(5.34053 0.0023547 0)
(5.36394 -0.00352753 0)
(5.3735 -0.00986462 0)
(5.37204 -0.0159398 0)
(5.36483 -0.0215071 0)
(5.35601 -0.0264161 0)
(5.02404 0.257846 0)
(5.03365 0.157597 0)
(5.09752 0.0920464 0)
(5.18769 0.0437152 0)
(5.27103 0.0155441 0)
(5.3111 0.00417565 0)
(5.31436 0.00180382 0)
(5.30882 -0.00406332 0)
(5.31184 -0.0181146 0)
(5.3244 -0.0372413 0)
(5.33976 -0.0530564 0)
(5.35302 -0.0597362 0)
(5.36348 -0.0570313 0)
(5.37234 -0.0492752 0)
(5.38202 -0.0412862 0)
(5.39316 -0.0364802 0)
(5.40655 -0.036301 0)
(5.41985 -0.0399678 0)
(4.98987 0.193657 0)
(5.11898 0.130553 0)
(5.20634 0.0752466 0)
(5.25423 0.0515234 0)
(5.28433 0.0449193 0)
(5.30443 0.0378498 0)
(5.32631 0.0226076 0)
(5.35667 0.00303262 0)
(5.38838 -0.0110891 0)
(5.41122 -0.0167079 0)
(5.42278 -0.0167683 0)
(5.42644 -0.0155987 0)
(5.42771 -0.0165637 0)
(5.43091 -0.021264 0)
(5.4378 -0.0289634 0)
(5.4476 -0.0377777 0)
(5.45903 -0.0457715 0)
(5.46972 -0.0505644 0)
(5.00121 0.117693 0)
(5.13814 0.0423222 0)
(5.24885 0.0246075 0)
(5.2946 0.00358328 0)
(5.32588 -0.0169143 0)
(5.36091 -0.0279164 0)
(5.39105 -0.0343128 0)
(5.41125 -0.043083 0)
(5.42377 -0.0539681 0)
(5.43398 -0.0616147 0)
(5.4479 -0.0640894 0)
(5.46778 -0.0626407 0)
(5.49093 -0.0595435 0)
(5.51208 -0.0570262 0)
(5.52644 -0.0562736 0)
(5.53226 -0.057408 0)
(5.53051 -0.05974 0)
(5.52424 -0.0624266 0)
(4.96369 0.172694 0)
(5.12667 0.0649301 0)
(5.32537 0.0461153 0)
(5.43531 0.0253359 0)
(5.47222 0.00811137 0)
(5.48201 -0.000195493 0)
(5.49629 -0.00474176 0)
(5.52264 -0.0111348 0)
(5.55185 -0.020153 0)
(5.57277 -0.0294194 0)
(5.58291 -0.0372245 0)
(5.58649 -0.0426753 0)
(5.58805 -0.0450296 0)
(5.58931 -0.0443348 0)
(5.59003 -0.0418089 0)
(5.58991 -0.0393023 0)
(5.58908 -0.0381635 0)
(5.58858 -0.0395132 0)
(5.10851 0.0302692 0)
(5.33644 -0.0662529 0)
(5.42325 -0.0645165 0)
(5.44537 -0.057205 0)
(5.46092 -0.0460084 0)
(5.48679 -0.0436752 0)
(5.52032 -0.0542366 0)
(5.55186 -0.0686731 0)
(5.5715 -0.0773403 0)
(5.57388 -0.0775812 0)
(5.5606 -0.0728057 0)
(5.53819 -0.0673523 0)
(5.51282 -0.0631327 0)
(5.48884 -0.0601718 0)
(5.46769 -0.0583238 0)
(5.4501 -0.0578454 0)
(5.43438 -0.0590226 0)
(5.42054 -0.0621836 0)
(4.95145 0.0404058 0)
(5.12081 0.0161807 0)
(5.08413 0.0199571 0)
(4.95394 -0.000147723 0)
(4.83914 -0.014904 0)
(4.74141 -0.0226101 0)
(4.63015 -0.0280249 0)
(4.49442 -0.0308102 0)
(4.34726 -0.0297564 0)
(4.20634 -0.026294 0)
(4.08057 -0.0231921 0)
(3.96996 -0.0218296 0)
(3.87015 -0.0216087 0)
(3.77835 -0.0215414 0)
(3.69223 -0.021342 0)
(3.61126 -0.0213251 0)
(3.53209 -0.0219276 0)
(3.45401 -0.023235 0)
(0.0104529 -0.0447869 2.29361e-20)
(0.024005 -0.0490721 -2.27719e-20)
(0.0375235 -0.0464787 0)
(0.0463722 -0.0423486 0)
(0.0505175 -0.0368222 0)
(0.0488351 -0.029931 2.20928e-20)
(0.041135 -0.0220785 0)
(0.0268203 -0.0135927 0)
(0.00551603 -0.00464572 0)
(-0.0231344 0.00468493 0)
(-0.0595519 0.0144299 -2.12388e-20)
(-0.10406 0.0246035 0)
(-0.156969 0.0351851 0)
(-0.218539 0.0461057 0)
(-0.288948 0.0572488 0)
(-0.368267 0.0684523 -2.03612e-20)
(-0.456443 0.0795182 0)
(-0.553284 0.0902166 0)
(-0.658455 0.100303 0)
(-0.771502 0.109551 0)
(-0.891871 0.117784 0)
(-1.0189 0.124902 0)
(-1.15163 0.130821 0)
(-1.28902 0.135419 -1.88998e-20)
(-1.42995 0.138594 1.87114e-20)
(-1.57322 0.140263 -1.85222e-20)
(-1.71756 0.140382 -1.83323e-20)
(-1.86156 0.138938 0)
(-2.00377 0.135922 0)
(-2.14265 0.131323 1.77636e-20)
(-2.27656 0.125148 1.75762e-20)
(-2.40379 0.117435 0)
(-2.52262 0.108236 0)
(-2.63128 0.0976453 1.70315e-20)
(-2.72806 0.0857954 0)
(-2.81136 0.0728478 0)
(-2.87972 0.0590687 -1.65312e-20)
(-2.93189 0.0447911 0)
(-2.96698 0.030271 -1.62327e-20)
(-2.98426 0.0158524 -3.21907e-20)
(-2.98282 0.00198021 0)
(-2.96451 -0.0111239 0)
(-2.92897 -0.02357 0)
(-2.87716 -0.0351755 0)
(-2.80987 -0.0458951 0)
(-2.72815 -0.0556418 -3.08551e-20)
(-2.63316 -0.0643511 -3.06741e-20)
(-2.52614 -0.0719945 -3.05003e-20)
(-2.40838 -0.0785611 0)
(-2.28121 -0.0840588 3.01669e-20)
(-2.14595 -0.0885066 0)
(-2.00394 -0.0919298 -2.98404e-20)
(-1.85653 -0.0943615 -2.96758e-20)
(-1.70503 -0.0958399 0)
(-1.55071 -0.0964053 0)
(-1.39479 -0.0961202 0)
(-1.23844 -0.0950753 -2.89801e-20)
(-1.08279 -0.0933259 0)
(-0.928821 -0.0909343 0)
(-0.777412 -0.0880433 0)
(-0.629353 -0.0846759 0)
(-0.485342 -0.0810501 0)
(-0.345917 -0.0771468 0)
(-0.211391 -0.0731087 0)
(-0.0822267 -0.06883 0)
(0.0408698 -0.0649222 2.70807e-20)
(0.158249 -0.0607825 0)
(0.270369 -0.0567274 0)
(0.376909 -0.0527769 -2.6336e-20)
(0.477922 -0.0489534 -2.60842e-20)
(0.5735 -0.0452746 0)
(0.663771 -0.0417523 2.55784e-20)
(0.748886 -0.0383939 -2.53249e-20)
(0.82901 -0.0352028 0)
(0.90432 -0.03218 2.48181e-20)
(0.974995 -0.0293244 0)
(1.04122 -0.0266336 0)
(1.10318 -0.0241043 -2.40619e-20)
(1.16105 -0.0217323 0)
(1.21502 -0.0195136 2.35623e-20)
(1.26526 -0.0174434 0)
(1.31196 -0.0155171 -2.30673e-20)
(1.35527 -0.0137299 -2.28218e-20)
(1.39538 -0.0120769 -2.25776e-20)
(1.43244 -0.0105531 -4.46699e-20)
(1.46663 -0.00915337 4.41875e-20)
(1.49809 -0.00787254 0)
(1.52698 -0.00670532 0)
(1.55346 -0.00564629 0)
(1.57767 -0.00468993 4.2289e-20)
(1.59976 -0.00383066 4.18223e-20)
(1.61987 -0.00306274 -4.13588e-20)
(1.63812 -0.00238039 0)
(1.65465 -0.00177778 4.04415e-20)
(1.66959 -0.00124884 3.99877e-20)
(1.68305 -0.000787361 3.9537e-20)
(1.69515 -0.000386872 0)
(1.70599 -4.08445e-05 0)
(1.71567 0.000255909 0)
(1.7243 0.000508306 3.77664e-20)
(1.73195 0.000720688 0)
(1.73873 0.000896921 0)
(1.74469 0.00104206 -3.64714e-20)
(1.74992 0.00115841 0)
(1.75449 0.00125099 0)
(1.75845 0.00132295 -3.52038e-20)
(1.76187 0.00137566 0)
(1.76478 0.00141648 0)
(1.76724 0.00144373 3.39631e-20)
(1.76931 0.00146532 3.35553e-20)
(1.77098 0.00148601 0)
(1.77228 0.00150487 -3.27483e-20)
(1.77325 0.00151847 0)
(1.77393 0.00152504 3.19526e-20)
(1.77434 0.00152623 0)
(1.77451 0.0015276 3.1168e-20)
(1.77446 0.00152802 3.07798e-20)
(1.77421 0.00151793 0)
(1.77378 0.00149991 0)
(1.77319 0.00148118 0)
(1.77246 0.0014636 0)
(1.77158 0.00144722 0)
(1.77058 0.00143092 0)
(1.76947 0.001413 0)
(1.76827 0.00139021 2.77682e-20)
(1.76698 0.00135985 -2.74032e-20)
(1.76563 0.00132182 0)
(1.76423 0.00127846 0)
(1.7628 0.00123331 0)
(1.76136 0.00118961 0)
(1.7599 0.00114926 -5.12285e-20)
(1.75842 0.00111277 0)
(1.75693 0.00107967 4.98303e-20)
(1.75541 0.0010492 -4.91381e-20)
(1.75388 0.00102072 0)
(1.75233 0.000993904 0)
(1.75076 0.000968665 0)
(1.74917 0.000945039 4.6414e-20)
(1.74756 0.000923086 4.57439e-20)
(1.74593 0.000902833 0)
(1.74428 0.000884273 4.44167e-20)
(1.74261 0.000867373 4.37594e-20)
(1.74092 0.000852071 -4.31063e-20)
(1.73921 0.000838288 0)
(1.73749 0.000825928 0)
(1.73574 0.000814904 -4.11715e-20)
(1.73397 0.000805147 0)
(1.73219 0.000796618 0)
(1.73038 0.000789301 0)
(1.72854 0.000783198 0)
(1.72668 0.000778318 3.80261e-20)
(1.7248 0.000774703 3.74085e-20)
(1.72289 0.000772396 0)
(1.72094 0.000771544 3.61846e-20)
(1.71896 0.000772224 0)
(1.71694 0.000774797 0)
(1.71488 0.000779295 3.4376e-20)
(1.71277 0.000786527 0)
(1.7106 0.000796332 3.31881e-20)
(1.70837 0.000810311 0)
(1.70605 0.000828075 0)
(1.70364 0.000852135 3.14323e-20)
(1.70109 0.000882594 0)
(1.69845 0.000922056 3.02788e-20)
(1.69554 0.000973819 0)
(1.69255 0.00103722 0)
(1.68906 0.00112708 0)
(1.68553 0.00122709 -2.80124e-20)
(1.68107 0.00139203 0)
(1.67669 0.00154243 2.68997e-20)
(1.67055 0.00186999 0)
(1.66469 0.00207076 0)
(1.65567 0.00279606 0)
(1.64672 0.00296698 0)
(1.63307 0.00480547 0)
(1.61603 0.00452728 0)
(1.59627 0.00990093 0)
(1.55346 0.00751137 -4.52437e-20)
(1.53101 0.0264536 0)
(1.39107 0.0201036 0)
(-0.00838561 -0.0257138 -6.88303e-20)
(-0.0505018 -0.00894478 6.83321e-20)
(-0.0915273 0.00171252 0)
(-0.13601 0.0162033 -4.48728e-20)
(-0.183184 0.0327568 0)
(-0.233514 0.0505638 -2.20796e-20)
(-0.287384 0.0691009 4.38314e-20)
(-0.345066 0.0882753 4.34825e-20)
(-0.406811 0.108078 0)
(-0.472846 0.128398 4.27823e-20)
(-0.543388 0.149141 2.12068e-20)
(-0.618577 0.170154 0)
(-0.698455 0.191258 0)
(-0.782945 0.21224 0)
(-0.871891 0.232839 0)
(-0.965094 0.252761 2.03236e-20)
(-1.06231 0.271684 0)
(-1.16326 0.289288 -3.99364e-20)
(-1.26763 0.305263 0)
(-1.37502 0.319341 0)
(-1.485 0.331311 3.88406e-20)
(-1.59714 0.34103 0)
(-1.71104 0.348372 -3.80988e-20)
(-1.82624 0.353195 1.88682e-20)
(-1.94221 0.355357 -1.86816e-20)
(-2.05832 0.35472 1.84941e-20)
(-2.17384 0.351134 1.83061e-20)
(-2.28797 0.344431 0)
(-2.39983 0.334438 0)
(-2.50843 0.321004 -1.77432e-20)
(-2.61265 0.304017 1.75233e-20)
(-2.7112 0.283408 0)
(-2.80273 0.259176 0)
(-2.88578 0.231408 -1.70183e-20)
(-2.95889 0.200295 0)
(-3.02062 0.16615 0)
(-3.06968 0.129455 1.65228e-20)
(-3.10494 0.0908237 0)
(-3.12538 0.0509277 -1.61761e-20)
(-3.13055 0.0105876 3.21815e-20)
(-3.12013 -0.0293507 0)
(-3.09203 -0.0681582 0)
(-3.04739 -0.105298 6.28124e-20)
(-2.98638 -0.140215 6.23896e-20)
(-2.90991 -0.172518 6.19928e-20)
(-2.81901 -0.2019 -3.07741e-20)
(-2.71488 -0.228167 3.06631e-20)
(-2.59878 -0.251227 9.14102e-20)
(-2.47205 -0.271064 -6.05899e-20)
(-2.336 -0.287717 -3.01562e-20)
(-2.19194 -0.301256 0)
(-2.04122 -0.311763 2.98302e-20)
(-1.88514 -0.31933 -2.96349e-20)
(-1.72501 -0.32406 0)
(-1.56207 -0.326075 0)
(-1.39759 -0.325537 0)
(-1.23275 -0.322654 2.89726e-20)
(-1.06861 -0.317639 0)
(-0.906143 -0.310755 -5.71762e-20)
(-0.746251 -0.302311 0)
(-0.589723 -0.292564 -5.63721e-20)
(-0.437257 -0.281806 0)
(-0.289275 -0.270306 5.552e-20)
(-0.145896 -0.258326 0)
(-0.00819305 -0.245907 -5.46202e-20)
(0.123738 -0.233854 2.70682e-20)
(0.250656 -0.221575 0)
(0.372273 -0.209475 5.31505e-20)
(0.488589 -0.197649 2.63266e-20)
(0.599671 -0.186168 2.60748e-20)
(0.705624 -0.175081 0)
(0.806584 -0.16442 2.55658e-20)
(0.902704 -0.154202 2.53152e-20)
(0.99415 -0.144436 0)
(1.08109 -0.135122 -2.48082e-20)
(1.1637 -0.126254 4.91083e-20)
(1.24215 -0.117824 0)
(1.31661 -0.109821 2.40516e-20)
(1.38724 -0.102231 0)
(1.45421 -0.0950423 -7.06529e-20)
(1.51766 -0.0882406 0)
(1.57774 -0.0818127 6.91671e-20)
(1.63461 -0.0757456 2.28105e-20)
(1.68839 -0.0700264 -2.25649e-20)
(1.73923 -0.0646425 -4.46442e-20)
(1.78724 -0.0595818 4.41616e-20)
(1.83256 -0.0548323 0)
(1.87531 -0.0503823 0)
(1.9156 -0.04622 0)
(1.95354 -0.0423339 -1.26791e-19)
(1.98925 -0.0387126 -4.17972e-20)
(2.02282 -0.0353446 4.13335e-20)
(2.05435 -0.0322183 0)
(2.08396 -0.0293225 4.04144e-20)
(2.11172 -0.0266457 -3.99617e-20)
(2.13773 -0.0241761 -3.9511e-20)
(2.16208 -0.0219018 0)
(2.18486 -0.0198104 0)
(2.20614 -0.0178905 0)
(2.22601 -0.016131 -3.77401e-20)
(2.24454 -0.0145214 0)
(2.26181 -0.0130519 7.37465e-20)
(2.27788 -0.0117117 1.09335e-19)
(2.29283 -0.0104922 -7.20386e-20)
(2.30673 -0.00938345 0)
(2.31962 -0.0083761 -3.51773e-20)
(2.33158 -0.00746307 0)
(2.34266 -0.00663336 -6.86956e-20)
(2.35292 -0.00588105 3.39371e-20)
(2.36239 -0.00519606 3.35296e-20)
(2.37118 -0.00457044 0)
(2.37931 -0.00400136 9.81702e-20)
(2.38683 -0.00348991 -6.46487e-20)
(2.39378 -0.00303255 -3.19283e-20)
(2.4002 -0.00262054 0)
(2.40612 -0.00225087 -3.11442e-20)
(2.41157 -0.00192167 -9.22686e-20)
(2.41659 -0.00162039 0)
(2.42119 -0.00134256 -5.99766e-20)
(2.42542 -0.00109262 -5.92166e-20)
(2.42929 -0.000869337 -5.84619e-20)
(2.43283 -0.00066642 0)
(2.43606 -0.000485981 0)
(2.43902 -0.000326896 0)
(2.44173 -0.000188425 2.7747e-20)
(2.44421 -7.13297e-05 2.73824e-20)
(2.44646 2.44498e-05 0)
(2.44852 0.000100677 5.33206e-20)
(2.4504 0.000160793 5.26057e-20)
(2.45212 0.00020924 0)
(2.45368 0.000250451 5.11903e-20)
(2.45512 0.000287929 1.00979e-19)
(2.45642 0.000323806 -4.97934e-20)
(2.45761 0.000358895 -4.91018e-20)
(2.45868 0.000393117 0)
(2.45964 0.000425982 0)
(2.46049 0.000456981 0)
(2.46123 0.000485771 -4.63805e-20)
(2.46187 0.000512222 4.5711e-20)
(2.46242 0.000536378 9.00918e-20)
(2.46288 0.000558388 -4.43851e-20)
(2.46326 0.000578477 4.37284e-20)
(2.46356 0.000596878 4.3076e-20)
(2.46379 0.000613823 0)
(2.46395 0.000629526 0)
(2.46405 0.000644196 -4.1143e-20)
(2.4641 0.000658048 0)
(2.46409 0.000671314 0)
(2.46402 0.000684241 7.84919e-20)
(2.46392 0.000697104 0)
(2.46376 0.000710193 3.80006e-20)
(2.46356 0.000723848 -3.73836e-20)
(2.46332 0.000738431 0)
(2.46304 0.000754423 3.61607e-20)
(2.46272 0.000772321 0)
(2.46235 0.000792875 0)
(2.46195 0.000816788 -3.43538e-20)
(2.46149 0.000845227 6.75173e-20)
(2.46098 0.000879354 -3.3167e-20)
(2.46042 0.000920742 0)
(2.4598 0.000971948 0)
(2.4591 0.00103403 3.14125e-20)
(2.45831 0.00111406 0)
(2.45742 0.00120858 3.026e-20)
(2.45638 0.00133862 0)
(2.45522 0.0014828 0)
(2.4538 0.00170394 0)
(2.4522 0.00192035 2.79955e-20)
(2.45018 0.00231998 0)
(2.44784 0.00263152 -2.68836e-20)
(2.44484 0.00341324 0)
(2.44117 0.00381357 0)
(2.43657 0.00548601 5.04852e-20)
(2.43023 0.00584339 -4.94077e-20)
(2.42318 0.00977758 0)
(2.41067 0.009595 0)
(2.40039 0.0198711 0)
(2.37173 0.0181885 1.35626e-19)
(2.36008 0.0488054 0)
(2.28791 0.0484349 -8.63904e-20)
(-0.0179479 0.082137 -2.88222e-23)
(-0.0868852 0.125747 -9.11308e-20)
(-0.15154 0.13574 0)
(-0.217892 0.15101 8.97378e-20)
(-0.284072 0.168177 0)
(-0.350977 0.187119 0)
(-0.418703 0.207643 2.65033e-23)
(-0.487588 0.229484 -4.34565e-20)
(-0.557851 0.252372 -4.31306e-20)
(-0.629667 0.276137 -4.27546e-20)
(-0.703119 0.300523 0)
(-0.778253 0.32523 0)
(-0.855118 0.349962 4.17163e-20)
(-0.933804 0.374437 8.27205e-20)
(-1.01442 0.398365 -8.20058e-20)
(-1.0971 0.421446 0)
(-1.18196 0.443383 -8.05671e-20)
(-1.26915 0.463896 3.99145e-20)
(-1.35881 0.482716 0)
(-1.45105 0.499573 -7.83792e-20)
(-1.546 0.514198 -3.88236e-20)
(-1.6438 0.526323 7.68964e-20)
(-1.74456 0.535684 3.80847e-20)
(-1.84833 0.542035 0)
(-1.95503 0.545112 -7.46333e-20)
(-2.06441 0.544607 -7.38697e-20)
(-2.17602 0.54015 0)
(-2.28915 0.531322 -7.23342e-20)
(-2.40282 0.517678 0)
(-2.51573 0.498804 -7.07997e-20)
(-2.6264 0.474328 -3.50708e-20)
(-2.73307 0.443958 0)
(-2.83384 0.40752 0)
(-2.92667 0.365014 0)
(-3.00944 0.31666 0)
(-3.0801 0.262919 0)
(-3.13677 0.20449 0)
(-3.17776 0.142311 -6.52008e-20)
(-3.20168 0.0775251 9.7021e-20)
(-3.20775 0.0114062 0)
(-3.19533 -0.0546863 0)
(-3.16422 -0.119563 0)
(-3.11511 -0.181817 -1.51078e-22)
(-3.04889 -0.240413 -6.23706e-20)
(-2.9667 -0.294483 -1.23814e-19)
(-2.86985 -0.343475 1.23074e-19)
(-2.75976 -0.387089 6.11305e-20)
(-2.63788 -0.425213 -6.08989e-20)
(-2.50565 -0.457885 8.98985e-23)
(-2.36442 -0.485222 -6.01633e-20)
(-2.21553 -0.507376 0)
(-2.06028 -0.524497 -5.95399e-20)
(-1.89996 -0.536731 5.4201e-23)
(-1.73589 -0.544242 0)
(-1.56934 -0.547237 0)
(-1.40163 -0.545965 5.82338e-20)
(-1.23397 -0.540725 0)
(-1.06748 -0.531918 0)
(-0.903218 -0.520047 -5.71193e-20)
(-0.742082 -0.505563 -1.13493e-19)
(-0.584775 -0.489014 5.63553e-20)
(-0.431975 -0.470873 0)
(-0.284155 -0.45149 -5.55047e-20)
(-0.141329 -0.431449 0)
(-0.00456708 -0.411036 -5.45888e-20)
(0.126194 -0.39065 -5.4127e-20)
(0.251848 -0.370393 1.07255e-19)
(0.372044 -0.350484 5.31248e-20)
(0.486869 -0.331084 0)
(0.596445 -0.312306 -1.0426e-19)
(0.700918 -0.294226 0)
(0.800461 -0.276888 -1.53367e-19)
(0.895255 -0.260314 -1.01229e-19)
(0.985492 -0.24451 -1.00217e-19)
(1.07136 -0.22947 9.92057e-20)
(1.15304 -0.215179 -1.47298e-19)
(1.23073 -0.201617 0)
(1.3046 -0.18876 0)
(1.37481 -0.176584 9.51842e-20)
(1.44155 -0.16506 1.41285e-19)
(1.50496 -0.154164 0)
(1.56519 -0.143869 -4.61074e-20)
(1.6224 -0.13415 0)
(1.67671 -0.124981 1.3538e-19)
(1.72827 -0.116339 4.46938e-24)
(1.77719 -0.1082 -4.13266e-24)
(1.8236 -0.100543 -8.73578e-20)
(1.86762 -0.0933456 0)
(1.90934 -0.0865865 8.54593e-20)
(1.94887 -0.0802457 3.00374e-24)
(1.98632 -0.0743032 0)
(2.02177 -0.06874 0)
(2.05531 -0.0635371 0)
(2.08703 -0.0586765 -8.08263e-20)
(2.11701 -0.0541404 0)
(2.14533 -0.0499119 0)
(2.17206 -0.0459746 0)
(2.19727 -0.0423128 0)
(2.22102 -0.0389109 0)
(2.2434 -0.0357536 -7.5474e-20)
(2.26445 -0.0328263 0)
(2.28425 -0.0301147 -7.37425e-20)
(2.30284 -0.0276052 -7.28854e-20)
(2.3203 -0.0252849 7.20344e-20)
(2.33666 -0.0231412 0)
(2.352 -0.0211622 7.03508e-20)
(2.36635 -0.0193362 0)
(2.37977 -0.0176531 6.86912e-20)
(2.39231 -0.0161011 -6.78702e-20)
(2.40402 -0.0146722 -2.01164e-19)
(2.41494 -0.0133581 0)
(2.42511 -0.0121511 -1.96326e-19)
(2.43458 -0.0110439 -6.46434e-20)
(2.4434 -0.010029 0)
(2.45159 -0.00909733 -1.26129e-19)
(2.4592 -0.00824292 -1.24567e-19)
(2.46627 -0.00745957 1.84523e-19)
(2.47283 -0.00673478 0)
(2.47892 -0.00606569 5.99722e-20)
(2.48456 -0.00545315 5.92123e-20)
(2.4898 -0.00489268 1.75372e-19)
(2.49466 -0.00438428 0)
(2.49916 -0.00392265 0)
(2.50332 -0.0035056 0)
(2.50717 -0.00313133 5.54895e-20)
(2.51073 -0.00279844 0)
(2.51401 -0.00250496 0)
(2.51704 -0.00224819 -5.33162e-20)
(2.51982 -0.00202414 -5.26013e-20)
(2.52238 -0.00182751 0)
(2.52474 -0.00165206 0)
(2.5269 -0.00149164 -1.0097e-19)
(2.52889 -0.00134127 0)
(2.53072 -0.00119776 9.81954e-20)
(2.53239 -0.00105982 9.68213e-20)
(2.53393 -0.000927545 0)
(2.53534 -0.000801735 0)
(2.53663 -0.000683302 -9.27528e-20)
(2.5378 -0.000572895 -1.06757e-25)
(2.53888 -0.000470763 -9.82391e-26)
(2.53985 -0.00037679 0)
(2.54074 -0.000290593 -1.74899e-19)
(2.54155 -0.000211641 0)
(2.54227 -0.000139331 0)
(2.54293 -7.30483e-05 0)
(2.54353 -1.21771e-05 8.2279e-20)
(2.54406 4.3899e-05 0)
(2.54454 9.57992e-05 -1.59484e-19)
(2.54497 0.00014416 -7.84852e-20)
(2.54535 0.000189619 0)
(2.54568 0.000232853 -7.59947e-20)
(2.54597 0.000274538 0)
(2.54622 0.000315462 0)
(2.54644 0.000356409 -2.16946e-19)
(2.54661 0.00039845 1.42207e-19)
(2.54675 0.000442532 0)
(2.54685 0.000490331 1.37403e-19)
(2.54691 0.000542878 -6.75115e-20)
(2.54694 0.000603221 0)
(2.54691 0.000671943 0)
(2.54683 0.000755456 0)
(2.5467 0.00085181 -1.88459e-19)
(2.5465 0.000976109 0)
(2.54621 0.00111735 -6.0515e-20)
(2.54583 0.00131329 0)
(2.54531 0.00152531 0)
(2.54467 0.00185054 0)
(2.54377 0.00217013 0)
(2.54272 0.00274155 0)
(2.54119 0.00321727 0)
(2.5395 0.00429102 -1.05319e-19)
(2.53685 0.00497438 0)
(2.53412 0.00714309 -5.04807e-20)
(2.52942 0.00806188 1.48203e-19)
(2.525 0.012809 0)
(2.51638 0.0140119 0)
(2.50927 0.0253999 -9.24437e-20)
(2.49342 0.0279678 -9.03994e-20)
(2.48305 0.0580329 8.83223e-20)
(2.459 0.0687455 8.63767e-20)
(-0.0186233 0.1994 1.37793e-19)
(-0.091171 0.270012 1.36772e-19)
(-0.15816 0.277524 9.0506e-20)
(-0.226714 0.291273 4.4935e-20)
(-0.294028 0.3072 0)
(-0.36132 0.325448 -8.84074e-20)
(-0.428405 0.345467 4.38826e-20)
(-0.495591 0.367178 0)
(-0.563056 0.390377 4.31212e-20)
(-0.631021 0.41474 0)
(-0.699674 0.439971 -8.48854e-20)
(-0.769279 0.465857 0)
(-0.840144 0.492184 -4.17094e-20)
(-0.912619 0.518696 -8.27079e-20)
(-0.987074 0.545115 8.19944e-20)
(-1.06389 0.571164 0)
(-1.14343 0.596563 8.05573e-20)
(-1.2261 0.621024 0)
(-1.3123 0.644254 0)
(-1.40251 0.665978 7.83698e-20)
(-1.49714 0.685915 0)
(-1.59657 0.703726 -1.11431e-23)
(-1.701 0.718984 0)
(-1.81045 0.731156 0)
(-1.92472 0.739592 4.45216e-23)
(-2.04335 0.74354 7.38518e-20)
(-2.16562 0.742182 7.30101e-20)
(-2.29049 0.734663 7.23122e-20)
(-2.41663 0.720122 0)
(-2.54245 0.697717 1.41425e-19)
(-2.66614 0.666696 0)
(-2.78566 0.626469 6.90987e-20)
(-2.89876 0.576682 0)
(-3.003 0.517287 0)
(-3.09585 0.448595 -6.68867e-20)
(-3.17482 0.371314 0)
(-3.23765 0.286571 6.55472e-20)
(-3.28248 0.195901 2.48812e-22)
(-3.30783 0.101191 -1.28962e-19)
(-3.31261 0.00458194 1.27638e-19)
(-3.29665 -0.091657 0)
(-3.26017 -0.185392 0)
(-3.20381 -0.274752 6.21764e-20)
(-3.1289 -0.358216 0)
(-3.03711 -0.434664 6.18176e-20)
(-2.93028 -0.503403 -6.14527e-20)
(-2.81028 -0.564117 -6.11067e-20)
(-2.67889 -0.616794 0)
(-2.53772 -0.661637 6.04545e-20)
(-2.38822 -0.698965 6.01403e-20)
(-2.23167 -0.729088 -1.19452e-19)
(-2.0693 -0.752236 5.95179e-20)
(-1.90235 -0.768596 5.92033e-20)
(-1.73208 -0.778348 0)
(-1.55981 -0.781698 0)
(-1.38685 -0.778961 -5.82147e-20)
(-1.21446 -0.770574 0)
(-1.04383 -0.757122 0)
(-0.876049 -0.739319 1.14245e-19)
(-0.712 -0.71785 1.13463e-19)
(-0.552419 -0.69351 0)
(-0.397874 -0.667058 0)
(-0.248875 -0.639111 0)
(-0.105509 -0.610241 0)
(0.0313379 -0.581288 1.09167e-19)
(0.161832 -0.552261 -1.08181e-19)
(0.286956 -0.523613 -1.07223e-19)
(0.406344 -0.495584 -2.12446e-19)
(0.520154 -0.46837 0)
(0.628571 -0.442105 1.78978e-23)
(0.731795 -0.416875 0)
(0.830035 -0.392727 1.02218e-19)
(0.9235 -0.36968 1.49971e-23)
(1.0124 -0.347731 1.00197e-19)
(1.09693 -0.326863 -9.91866e-20)
(1.1773 -0.307048 1.23307e-23)
(1.25369 -0.288254 0)