/*--------------------------------*- C++ -*----------------------------------*\
  =========                 |
  \\      /  F ield         | OpenFOAM: The Open Source CFD Toolbox
   \\    /   O peration     | Website:  https://openfoam.org
    \\  /    A nd           | Version:  7
     \\/     M anipulation  |
\*---------------------------------------------------------------------------*/
FoamFile
{
    version     2.0;
    format      ascii;
    class       volVectorField;
    location    "0.022";
    object      UMean;
}
// * * * * * * * * * * * * * * * * * * * * * * * * * * * * * * * * * * * * * //

dimensions      [0 1 -1 0 0 0 0];

internalField   nonuniform List<vector> 
12225
(
(4.7867 0.164379 0)
(4.21212 0.109576 0)
(3.77253 0.0944741 0)
(3.4298 0.0764845 0)
(3.13379 0.0618027 0)
(2.87181 0.0505322 0)
(2.64554 0.0401725 0)
(2.45727 0.0310989 0)
(2.30942 0.0214765 0)
(2.19652 0.0146846 0)
(2.12344 0.005302 0)
(2.07406 0.00308479 0)
(2.06506 -0.0092093 0)
(2.06457 -0.00152323 0)
(2.10902 -0.0275667 0)
(2.15324 0.00380654 0)
(2.25313 -0.0699238 0)
(2.38707 0.005506 0)
(5.01395 0.11033 0)
(4.88212 0.0690208 0)
(4.77481 0.08224 0)
(4.69671 0.0787854 0)
(4.62068 0.0739575 0)
(4.5409 0.0700296 0)
(4.45929 0.0655979 0)
(4.38288 0.0582485 0)
(4.31282 0.0505263 0)
(4.25602 0.0391656 0)
(4.20812 0.0306655 0)
(4.17918 0.0159925 0)
(4.15656 0.00982412 0)
(4.16092 -0.00989019 0)
(4.16351 -0.0108801 0)
(4.20973 -0.0434131 0)
(4.2432 -0.0487486 0)
(4.34003 -0.125726 0)
(5.00717 0.171146 0)
(4.89973 0.118786 0)
(4.82685 0.122502 0)
(4.80018 0.112935 0)
(4.79155 0.101149 0)
(4.78618 0.0923896 0)
(4.78134 0.0836853 0)
(4.77727 0.0744731 0)
(4.77519 0.0622793 0)
(4.77493 0.0506905 0)
(4.77817 0.034885 0)
(4.78398 0.0233134 0)
(4.79589 0.00370258 0)
(4.8119 -0.00562472 0)
(4.83841 -0.0326498 0)
(4.87155 -0.0441218 0)
(4.91857 -0.0913355 0)
(4.97038 -0.143875 0)
(4.99529 0.184304 0)
(4.91006 0.113734 0)
(4.83926 0.108497 0)
(4.81006 0.0999303 0)
(4.80435 0.0879816 0)
(4.80643 0.0780892 0)
(4.81177 0.0698707 0)
(4.82045 0.0603836 0)
(4.83231 0.0498649 0)
(4.84733 0.0369724 0)
(4.8647 0.0241664 0)
(4.88481 0.00858545 0)
(4.90759 -0.00582601 0)
(4.93426 -0.0249612 0)
(4.96623 -0.0438838 0)
(5.00324 -0.072344 0)
(5.04782 -0.110532 0)
(5.09021 -0.165543 0)
(4.9971 0.213513 0)
(4.93571 0.138526 0)
(4.87282 0.124691 0)
(4.84012 0.1148 0)
(4.83021 0.10023 0)
(4.82943 0.0868619 0)
(4.83285 0.0752123 0)
(4.84006 0.0638166 0)
(4.85132 0.0508127 0)
(4.86612 0.0369608 0)
(4.88403 0.0211556 0)
(4.90453 0.00511286 0)
(4.92801 -0.0135943 0)
(4.95462 -0.0332945 0)
(4.98536 -0.0578493 0)
(5.01957 -0.0885421 0)
(5.05688 -0.128447 0)
(5.09065 -0.18673 0)
(4.98632 0.227082 0)
(4.943 0.150323 0)
(4.88935 0.127927 0)
(4.85775 0.11579 0)
(4.84786 0.099763 0)
(4.8478 0.0836473 0)
(4.85154 0.0695299 0)
(4.85833 0.0560827 0)
(4.86873 0.0420439 0)
(4.88255 0.026711 0)
(4.89946 0.0102072 0)
(4.91877 -0.00775743 0)
(4.94091 -0.0273356 0)
(4.96536 -0.0495263 0)
(4.9932 -0.075793 0)
(5.02251 -0.108149 0)
(5.05324 -0.149558 0)
(5.07928 -0.202202 0)
(5.01123 0.241424 0)
(4.98179 0.166527 0)
(4.93587 0.136311 0)
(4.90413 0.12067 0)
(4.89228 0.103651 0)
(4.89135 0.0861415 0)
(4.89454 0.0700668 0)
(4.90023 0.0549825 0)
(4.909 0.0395028 0)
(4.92097 0.0229402 0)
(4.93601 0.00504662 0)
(4.95344 -0.0143746 0)
(4.97345 -0.0356923 0)
(4.99523 -0.0599648 0)
(5.01944 -0.0879561 0)
(5.04375 -0.121973 0)
(5.06843 -0.162593 0)
(5.0876 -0.21174 0)
(5.00408 0.252469 0)
(4.98944 0.181341 0)
(4.95372 0.14547 0)
(4.92489 0.125457 0)
(4.91331 0.106623 0)
(4.91337 0.0871668 0)
(4.91811 0.0687314 0)
(4.92494 0.0513808 0)
(4.9341 0.0341198 0)
(4.94588 0.0159956 0)
(4.96035 -0.00338224 0)
(4.97681 -0.0243183 0)
(4.99533 -0.0471623 0)
(5.01506 -0.0727939 0)
(5.03634 -0.10201 0)
(5.05705 -0.136232 0)
(5.07721 -0.175747 0)
(5.0922 -0.221444 0)
(5.00793 0.25613 0)
(5.00123 0.189999 0)
(4.97384 0.150695 0)
(4.94856 0.126882 0)
(4.93703 0.106441 0)
(4.93637 0.0857594 0)
(4.94059 0.0657744 0)
(4.94692 0.0469136 0)
(4.95526 0.0284265 0)
(4.96584 0.00930627 0)
(4.97876 -0.0110534 0)
(4.99343 -0.0331404 0)
(5.00968 -0.0572181 0)
(5.02666 -0.0839941 0)
(5.04435 -0.113942 0)
(5.06106 -0.148007 0)
(5.07657 -0.186139 0)
(5.0877 -0.228569 0)
(5.00165 0.265495 0)
(5.00072 0.203795 0)
(4.97993 0.16165 0)
(4.95824 0.133792 0)
(4.94723 0.110954 0)
(4.94589 0.0886414 0)
(4.94942 0.0667986 0)
(4.95514 0.0458765 0)
(4.96281 0.0254489 0)
(4.97264 0.00467665 0)
(4.98459 -0.017094 0)
(4.99801 -0.0403593 0)
(5.01245 -0.0654691 0)
(5.02709 -0.0929725 0)
(5.04168 -0.123216 0)
(5.05489 -0.156744 0)
(5.0665 -0.193345 0)
(5.07433 -0.23294 0)
(4.99127 0.264022 0)
(4.99401 0.207154 0)
(4.97805 0.1641 0)
(4.95969 0.133586 0)
(4.94989 0.108887 0)
(4.94873 0.0854709 0)
(4.95228 0.0624864 0)
(4.95788 0.0401608 0)
(4.96493 0.0183978 0)
(4.97356 -0.0035015 0)
(4.98391 -0.0261815 0)
(4.99544 -0.050166 0)
(5.00782 -0.0757908 0)
(5.02004 -0.103485 0)
(5.03206 -0.133461 0)
(5.04235 -0.16604 0)
(5.05132 -0.200885 0)
(5.05648 -0.237849 0)
(5.01623 0.271163 0)
(5.02012 0.216401 0)
(5.00659 0.173076 0)
(4.9897 0.140102 0)
(4.98019 0.112927 0)
(4.97877 0.0879162 0)
(4.98187 0.0637125 0)
(4.9867 0.0401595 0)
(4.99247 0.0170339 0)
(4.99921 -0.00615527 0)
(5.00722 -0.0299334 0)
(5.01615 -0.0547951 0)
(5.0258 -0.081029 0)
(5.03522 -0.108965 0)
(5.04431 -0.138703 0)
(5.05168 -0.170426 0)
(5.05781 -0.20377 0)
(5.06055 -0.238597 0)
(4.99148 0.273574 0)
(5.00248 0.219528 0)
(4.99589 0.176028 0)
(4.98414 0.14119 0)
(4.97733 0.111829 0)
(4.97688 0.0852336 0)
(4.98035 0.0599553 0)
(4.98555 0.0355382 0)
(4.99167 0.0116494 0)
(4.99854 -0.0121813 0)
(5.00627 -0.0364809 0)
(5.01441 -0.0617029 0)
(5.02275 -0.0880859 0)
(5.03039 -0.115886 0)
(5.03743 -0.145093 0)
(5.04263 -0.175818 0)
(5.04672 -0.207657 0)
(5.04769 -0.240566 0)
(5.00973 0.271934 0)
(5.02063 0.223529 0)
(5.01483 0.181278 0)
(5.00362 0.145323 0)
(4.9965 0.114362 0)
(4.99499 0.0864156 0)
(4.99721 0.0599923 0)
(5.00136 0.0343505 0)
(5.00663 0.00922066 0)
(5.01262 -0.0157068 0)
(5.01928 -0.0407414 0)
(5.02612 -0.066288 0)
(5.03302 -0.0926021 0)
(5.03911 -0.119963 0)
(5.04454 -0.148351 0)
(5.04805 -0.177866 0)
(5.05059 -0.208087 0)
(5.05008 -0.239007 0)
(5.00875 0.272713 0)
(5.02005 0.225233 0)
(5.01727 0.183123 0)
(5.01005 0.146181 0)
(5.00602 0.113488 0)
(5.00617 0.083785 0)
(5.00887 0.055959 0)
(5.01268 0.0292842 0)
(5.017 0.00333297 0)
(5.02163 -0.0222417 0)
(5.0266 -0.04773 0)
(5.03155 -0.073456 0)
(5.03637 -0.0995906 0)
(5.04034 -0.12635 0)
(5.04361 -0.153656 0)
(5.04516 -0.181624 0)
(5.04582 -0.209828 0)
(5.04386 -0.2384 0)
(5.01547 0.280019 0)
(5.02986 0.232114 0)
(5.02991 0.18904 0)
(5.02475 0.150434 0)
(5.02218 0.116043 0)
(5.02301 0.0850305 0)
(5.02563 0.0562036 0)
(5.02888 0.0286039 0)
(5.03236 0.00179385 0)
(5.03586 -0.0244285 0)
(5.03937 -0.0502212 0)
(5.04255 -0.0758547 0)
(5.0453 -0.101497 0)
(5.04703 -0.127367 0)
(5.04787 -0.153388 0)
(5.04702 -0.179676 0)
(5.04528 -0.205853 0)
(5.0413 -0.232128 0)
(5.00582 0.267374 0)
(5.02302 0.224734 0)
(5.02588 0.183634 0)
(5.02309 0.145494 0)
(5.0223 0.110847 0)
(5.02452 0.0792935 0)
(5.02821 0.0499525 0)
(5.03208 0.0219955 0)
(5.03563 -0.00503553 0)
(5.03861 -0.0313275 0)
(5.041 -0.0569152 0)
(5.04255 -0.0819225 0)
(5.04334 -0.106418 0)
(5.04296 -0.130644 0)
(5.04174 -0.154578 0)
(5.03901 -0.178474 0)
(5.03562 -0.202006 0)
(5.03032 -0.225577 0)
(5.02142 0.275046 0)
(5.03511 0.229269 0)
(5.03716 0.186535 0)
(5.03589 0.147178 0)
(5.03742 0.11122 0)
(5.04149 0.0783386 0)
(5.04606 0.0480962 0)
(5.04989 0.0200891 0)
(5.05264 -0.00607426 0)
(5.05423 -0.0308221 0)
(5.05483 -0.0545119 0)
(5.0544 -0.0775002 0)
(5.05315 -0.0999947 0)
(5.05083 -0.122234 0)
(5.04781 -0.144182 0)
(5.04356 -0.16597 0)
(5.03884 -0.187293 0)
(5.03249 -0.208384 0)
(5.00629 0.273723 0)
(5.02459 0.223562 0)
(5.03091 0.178461 0)
(5.03336 0.137932 0)
(5.03792 0.101467 0)
(5.04401 0.068638 0)
(5.04961 0.038963 0)
(5.05379 0.0118423 0)
(5.05652 -0.0133046 0)
(5.05797 -0.0369766 0)
(5.05839 -0.0594942 0)
(5.05777 -0.0811259 0)
(5.05622 -0.101978 0)
(5.05347 -0.12223 0)
(5.0498 -0.141822 0)
(5.04478 -0.160935 0)
(5.0391 -0.179311 0)
(5.03189 -0.19729 0)
(5.00002 0.26856 0)
(5.02053 0.216094 0)
(5.03014 0.168221 0)
(5.03649 0.126757 0)
(5.04472 0.0914902 0)
(5.05355 0.0611765 0)
(5.06083 0.0344331 0)
(5.0659 0.0102098 0)
(5.06912 -0.0121331 0)
(5.0709 -0.0329931 0)
(5.07155 -0.0526352 0)
(5.07101 -0.0713214 0)
(5.06935 -0.0891993 0)
(5.06638 -0.106419 0)
(5.06237 -0.122956 0)
(5.05703 -0.138928 0)
(5.05096 -0.154191 0)
(5.04348 -0.168987 0)
(4.99906 0.264954 0)
(5.02044 0.207134 0)
(5.03313 0.156104 0)
(5.04352 0.11355 0)
(5.05535 0.078349 0)
(5.06714 0.0482961 0)
(5.07686 0.0216825 0)
(5.08382 -0.00230683 0)
(5.08827 -0.0239839 0)
(5.09059 -0.0436489 0)
(5.09115 -0.0616773 0)
(5.09004 -0.0784798 0)
(5.08749 -0.0943016 0)
(5.08347 -0.109352 0)
(5.07839 -0.12365 0)
(5.07199 -0.137367 0)
(5.065 -0.15037 0)
(5.05668 -0.162954 0)
(5.01648 0.263605 0)
(5.04133 0.195513 0)
(5.05993 0.141345 0)
(5.0763 0.100368 0)
(5.0921 0.0688916 0)
(5.10565 0.043203 0)
(5.11595 0.0209415 0)
(5.12339 0.000947892 0)
(5.12865 -0.0172497 0)
(5.13195 -0.0339354 0)
(5.13338 -0.0493576 0)
(5.13291 -0.0637732 0)
(5.13079 -0.0773698 0)
(5.12701 -0.090316 0)
(5.12198 -0.102638 0)
(5.11547 -0.114453 0)
(5.10825 -0.125699 0)
(5.09957 -0.136571 0)
(5.00544 0.25762 0)
(5.04144 0.178255 0)
(5.07254 0.12007 0)
(5.09923 0.0784679 0)
(5.12216 0.0466579 0)
(5.1402 0.0202149 0)
(5.15315 -0.00241382 0)
(5.16199 -0.0215558 0)
(5.16775 -0.0377781 0)
(5.171 -0.0519648 0)
(5.17207 -0.0648476 0)
(5.17107 -0.0768684 0)
(5.16834 -0.0881554 0)
(5.16404 -0.0987998 0)
(5.15861 -0.10879 0)
(5.15189 -0.118284 0)
(5.14444 -0.127233 0)
(5.13573 -0.135907 0)
(4.99418 0.242619 0)
(5.03973 0.157016 0)
(5.08227 0.103307 0)
(5.1156 0.0710561 0)
(5.14011 0.0475062 0)
(5.15799 0.0263921 0)
(5.17188 0.00721649 0)
(5.18324 -0.00939946 0)
(5.19199 -0.0235514 0)
(5.19764 -0.0359265 0)
(5.20018 -0.0472318 0)
(5.19993 -0.0578324 0)
(5.1975 -0.0678062 0)
(5.1932 -0.0771977 0)
(5.18762 -0.0860492 0)
(5.18071 -0.0944789 0)
(5.17317 -0.102497 0)
(5.16446 -0.110227 0)
(5.02218 0.224822 0)
(5.08292 0.120265 0)
(5.14305 0.0622792 0)
(5.18576 0.0309911 0)
(5.21201 0.00808611 0)
(5.2286 -0.0119554 0)
(5.24101 -0.0283847 0)
(5.25101 -0.0410953 0)
(5.25841 -0.0512819 0)
(5.26272 -0.0601602 0)
(5.26411 -0.0683246 0)
(5.26307 -0.0759857 0)
(5.26021 -0.0832236 0)
(5.25572 -0.0901573 0)
(5.25002 -0.0968259 0)
(5.24293 -0.103327 0)
(5.23509 -0.109579 0)
(5.22593 -0.115694 0)
(5.01911 0.211501 0)
(5.10254 0.10847 0)
(5.17999 0.0696758 0)
(5.22906 0.0503353 0)
(5.25702 0.0293923 0)
(5.27633 0.00851201 0)
(5.29252 -0.00825792 0)
(5.30541 -0.0204158 0)
(5.31392 -0.0298131 0)
(5.31812 -0.0380768 0)
(5.319 -0.0457949 0)
(5.31744 -0.0530614 0)
(5.3141 -0.0598757 0)
(5.30915 -0.0663073 0)
(5.30295 -0.0723958 0)
(5.29538 -0.0782296 0)
(5.28702 -0.083795 0)
(5.27748 -0.089194 0)
(5.01206 0.156911 0)
(5.13338 0.0309302 0)
(5.22915 0.00134037 0)
(5.27815 -0.0102692 0)
(5.30247 -0.0258211 0)
(5.32071 -0.0393514 0)
(5.33722 -0.048448 0)
(5.35045 -0.0547777 0)
(5.35905 -0.0600952 0)
(5.36339 -0.0650852 0)
(5.36457 -0.0698287 0)
(5.36332 -0.0743276 0)
(5.36015 -0.0786098 0)
(5.35522 -0.082775 0)
(5.34893 -0.0868372 0)
(5.3413 -0.0908693 0)
(5.33294 -0.0948089 0)
(5.32354 -0.0987473 0)
(5.00586 0.152379 0)
(5.17821 0.0549753 0)
(5.29835 0.0399126 0)
(5.34954 0.0218932 0)
(5.37368 0.00151205 0)
(5.39399 -0.0129408 0)
(5.41225 -0.0218801 0)
(5.42588 -0.0285323 0)
(5.43399 -0.0344342 0)
(5.43744 -0.0398523 0)
(5.43748 -0.0447675 0)
(5.43496 -0.0492897 0)
(5.43034 -0.0535163 0)
(5.42382 -0.0576101 0)
(5.41564 -0.0615826 0)
(5.40591 -0.0655501 0)
(5.39495 -0.0694238 0)
(5.38276 -0.0733251 0)
(5.01735 0.0186606 0)
(5.23684 -0.0530051 0)
(5.35847 -0.0366044 0)
(5.4029 -0.045235 0)
(5.4242 -0.0556184 0)
(5.43949 -0.0606936 0)
(5.4482 -0.0629508 0)
(5.44837 -0.0646591 0)
(5.44019 -0.066337 0)
(5.42523 -0.0679399 0)
(5.40501 -0.0694421 0)
(5.38077 -0.0709236 0)
(5.35301 -0.0724006 0)
(5.32246 -0.073939 0)
(5.28902 -0.0754819 0)
(5.25364 -0.0771048 0)
(5.21568 -0.0787035 0)
(5.17681 -0.0804142 0)
(4.97 0.0685355 0)
(5.11125 -0.000688013 0)
(5.07864 -0.00177056 0)
(4.95701 -0.0122117 0)
(4.82324 -0.0198011 0)
(4.69354 -0.0227973 0)
(4.56704 -0.0239336 0)
(4.44184 -0.0246425 0)
(4.31774 -0.0251828 0)
(4.19557 -0.0255617 0)
(4.07601 -0.0258141 0)
(3.95956 -0.0259948 0)
(3.84605 -0.0261347 0)
(3.73565 -0.026271 0)
(3.62769 -0.0263974 0)
(3.5229 -0.0265529 0)
(3.41982 -0.0266933 0)
(3.32063 -0.0269087 0)
(-0.00796322 0.0103267 4.77531e-21)
(-0.0269988 0.00999356 -4.74535e-21)
(-0.0451151 0.0106997 0)
(-0.0648212 0.0122822 0)
(-0.0856876 0.014199 0)
(-0.108121 0.0163521 4.61459e-21)
(-0.132015 0.0186173 0)
(-0.157415 0.0208586 0)
(-0.184191 0.0229794 0)
(-0.21223 0.0249112 0)
(-0.241379 0.0266218 -4.45177e-21)
(-0.271455 0.028093 0)
(-0.302266 0.0293014 0)
(-0.333581 0.0302379 0)
(-0.365158 0.0308836 0)
(-0.396746 0.0312157 -4.29049e-21)
(-0.428052 0.0312259 0)
(-0.458759 0.0308902 0)
(-0.488551 0.030189 0)
(-0.517083 0.0291304 0)
(-0.544001 0.027696 0)
(-0.568949 0.0259037 0)
(-0.5915 0.0237382 0)
(-0.611288 0.021212 -4.04167e-21)
(-0.62794 0.0183387 4.01235e-21)
(-0.641057 0.0151341 -3.98367e-21)
(-0.650284 0.0116261 -3.95575e-21)
(-0.655253 0.00784344 0)
(-0.65565 0.00381373 0)
(-0.651175 -0.000398419 3.87751e-21)
(-0.64156 -0.00477065 3.85359e-21)
(-0.62661 -0.00923535 0)
(-0.606137 -0.013731 0)
(-0.58005 -0.0182109 3.78944e-21)
(-0.548329 -0.0225993 0)
(-0.511001 -0.0268394 0)
(-0.468187 -0.0308606 -3.73714e-21)
(-0.420082 -0.0346119 0)
(-0.366953 -0.0380388 -3.70826e-21)
(-0.309147 -0.0411063 -7.3905e-21)
(-0.24708 -0.0437887 0)
(-0.181214 -0.0460726 0)
(-0.112022 -0.0479507 0)
(-0.0399942 -0.049416 0)
(0.0343424 -0.0504772 0)
(0.110461 -0.0511354 -7.24997e-21)
(0.187848 -0.0514232 -7.22523e-21)
(0.266028 -0.0513491 -7.19914e-21)
(0.344513 -0.0509585 0)
(0.422861 -0.0502619 7.14184e-21)
(0.5007 -0.049306 0)
(0.577634 -0.0481285 -7.07658e-21)
(0.653356 -0.0467585 -7.04073e-21)
(0.727587 -0.0452311 0)
(0.800064 -0.0435681 0)
(0.870576 -0.0418099 0)
(0.938987 -0.0399599 -6.87594e-21)
(1.00514 -0.0380896 0)
(1.0689 -0.0361781 0)
(1.13022 -0.0342648 0)
(1.18906 -0.0323483 0)
(1.24536 -0.0304706 0)
(1.29912 -0.0286263 0)
(1.35038 -0.026831 0)
(1.39914 -0.0250897 0)
(1.44546 -0.0234119 6.40835e-21)
(1.48941 -0.0217983 0)
(1.53103 -0.0202547 0)
(1.57039 -0.0187832 -6.23586e-21)
(1.60757 -0.0173849 -6.17761e-21)
(1.64264 -0.01606 0)
(1.67568 -0.0148079 6.06054e-21)
(1.70676 -0.0136275 -6.00186e-21)
(1.73598 -0.0125172 0)
(1.76341 -0.0114753 5.88456e-21)
(1.78914 -0.0104994 0)
(1.81323 -0.00958734 0)
(1.83578 -0.00873656 -5.70949e-21)
(1.85685 -0.00794455 0)
(1.87652 -0.00720868 5.5938e-21)
(1.89486 -0.00652632 0)
(1.91195 -0.00589483 -5.47921e-21)
(1.92785 -0.00531157 -5.42238e-21)
(1.94263 -0.00477392 -5.36588e-21)
(1.95635 -0.00427931 -1.06194e-20)
(1.96907 -0.00382519 1.05078e-20)
(1.98086 -0.00340907 0)
(1.99176 -0.00302851 0)
(2.00184 -0.00268116 0)
(2.01114 -0.00236469 1.00688e-20)
(2.01971 -0.00207686 9.96097e-21)
(2.0276 -0.00181547 -9.85389e-21)
(2.03486 -0.00157836 0)
(2.04153 -0.00136334 9.64206e-21)
(2.04764 -0.00116835 9.53732e-21)
(2.05324 -0.000991498 9.43335e-21)
(2.05836 -0.000831116 0)
(2.06303 -0.000685704 0)
(2.06728 -0.000553889 0)
(2.07114 -0.000434367 9.0252e-21)
(2.07464 -0.000325964 0)
(2.0778 -0.000227529 0)
(2.08065 -0.000138048 -8.72705e-21)
(2.0832 -5.65704e-05 0)
(2.08548 1.78816e-05 0)
(2.08751 8.5979e-05 -8.43558e-21)
(2.0893 0.000148647 0)
(2.09087 0.00020643 0)
(2.09223 0.000259867 8.15059e-21)
(2.09339 0.000309502 8.05701e-21)
(2.09437 0.00035476 0)
(2.09517 0.000394873 -7.87191e-21)
(2.09582 0.000429625 0)
(2.09633 0.000459265 7.68953e-21)
(2.0967 0.000484157 0)
(2.09696 0.000504497 7.5098e-21)
(2.0971 0.000520349 7.42092e-21)
(2.09714 0.000532197 0)
(2.0971 0.000540855 0)
(2.09697 0.000546786 0)
(2.09676 0.000550194 0)
(2.09648 0.000551282 0)
(2.09615 0.000550268 0)
(2.09575 0.000547406 0)
(2.09531 0.000543039 6.73252e-21)
(2.09482 0.000537612 -6.64921e-21)
(2.09429 0.000531636 0)
(2.09373 0.000525556 0)
(2.09313 0.000519694 0)
(2.09249 0.000514207 0)
(2.09183 0.000509135 -1.24826e-20)
(2.09113 0.000504443 0)
(2.09041 0.000500087 1.21641e-20)
(2.08966 0.000496028 -1.20065e-20)
(2.08888 0.000492256 0)
(2.08808 0.000488768 0)
(2.08725 0.000485571 0)
(2.0864 0.000482668 1.13867e-20)
(2.08553 0.000480049 1.12344e-20)
(2.08464 0.000477717 0)
(2.08372 0.000475655 1.09327e-20)
(2.08279 0.000473874 1.07834e-20)
(2.08183 0.000472367 -1.06351e-20)
(2.08086 0.000471143 0)
(2.07986 0.000470194 0)
(2.07885 0.000469533 -1.01959e-20)
(2.07782 0.000469164 0)
(2.07677 0.000469112 0)
(2.07569 0.000469398 0)
(2.0746 0.000470065 0)
(2.07349 0.000471154 9.4828e-21)
(2.07236 0.000472735 9.34291e-21)
(2.0712 0.000474887 0)
(2.07002 0.000477727 9.0658e-21)
(2.06881 0.000481379 0)
(2.06757 0.000486055 0)
(2.0663 0.000491925 8.65668e-21)
(2.06499 0.000499396 0)
(2.06364 0.000508644 8.38822e-21)
(2.06223 0.000520507 0)
(2.06077 0.000535015 0)
(2.05923 0.000553938 7.99187e-21)
(2.0576 0.000576855 0)
(2.05588 0.00060727 7.73187e-21)
(2.05399 0.000644172 0)
(2.05199 0.000693245 0)
(2.04969 0.000755028 0)
(2.04724 0.000833388 -7.22242e-21)
(2.04424 0.000944684 0)
(2.04109 0.00106389 6.97348e-21)
(2.03685 0.00128987 0)
(2.0325 0.00144412 0)
(2.02604 0.00198063 0)
(2.01927 0.00206654 0)
(2.00899 0.00356529 0)
(1.99596 0.00307135 0)
(1.97974 0.00795576 0)
(1.94585 0.00501662 -1.20964e-20)
(1.92232 0.0250115 0)
(1.80185 0.0198589 0)
(-0.0138937 0.0661953 -1.43304e-20)
(-0.0509588 0.070636 1.42406e-20)
(-0.0851742 0.0711105 0)
(-0.120644 0.07435 -9.3614e-21)
(-0.156143 0.0776477 0)
(-0.191885 0.0809022 -4.61745e-21)
(-0.227579 0.0839277 9.16478e-21)
(-0.263195 0.0866061 9.09925e-21)
(-0.2986 0.088853 0)
(-0.333706 0.090599 8.9683e-21)
(-0.368388 0.0918005 4.45449e-21)
(-0.402528 0.0924131 0)
(-0.435986 0.0923944 0)
(-0.468583 0.0917095 0)
(-0.500168 0.0903139 0)
(-0.530546 0.0881834 4.293e-21)
(-0.559511 0.0852874 0)
(-0.586862 0.0816024 -8.44855e-21)
(-0.612334 0.0770936 0)
(-0.63569 0.0717703 0)
(-0.656688 0.065606 8.25812e-21)
(-0.675089 0.0586192 0)
(-0.69061 0.0508104 -8.13434e-21)
(-0.702973 0.042202 4.04374e-21)
(-0.711928 0.0328205 -4.01435e-21)
(-0.717181 0.0227063 3.98561e-21)
(-0.718472 0.0119094 3.95762e-21)
(-0.715539 0.000490665 0)
(-0.708112 -0.0114791 0)
(-0.69597 -0.0238941 -3.8792e-21)
(-0.678917 -0.0366587 3.83861e-21)
(-0.656751 -0.0496468 0)
(-0.629343 -0.0627206 0)
(-0.596613 -0.0757328 -3.79089e-21)
(-0.558518 -0.0885249 0)
(-0.515079 -0.10093 0)
(-0.466389 -0.112785 3.73843e-21)
(-0.412611 -0.123925 0)
(-0.353955 -0.1342 -3.69606e-21)
(-0.2907 -0.143478 7.3928e-21)
(-0.22318 -0.151653 0)
(-0.15181 -0.158647 0)
(-0.0770741 -0.164409 1.4624e-20)
(0.000520414 -0.168917 1.45802e-20)
(0.0804408 -0.172184 1.45358e-20)
(0.162137 -0.174233 -7.2382e-21)
(0.245085 -0.175127 7.22694e-21)
(0.328805 -0.174926 2.15918e-20)
(0.41281 -0.173743 -1.43368e-20)
(0.496662 -0.171644 -7.14333e-21)
(0.579961 -0.168758 0)
(0.662334 -0.165166 7.07795e-21)
(0.743484 -0.160993 -7.03674e-21)
(0.823149 -0.156324 0)
(0.90106 -0.151249 0)
(0.977024 -0.145866 0)
(1.05088 -0.140227 6.87704e-21)
(1.12248 -0.134453 0)
(1.19176 -0.128566 -1.35631e-20)
(1.25862 -0.122646 0)
(1.32302 -0.116737 -1.33619e-20)
(1.38492 -0.110888 0)
(1.44433 -0.105135 1.31499e-20)
(1.50128 -0.0995086 0)
(1.55577 -0.0940324 -1.29294e-20)
(1.60786 -0.088727 6.40759e-21)
(1.65761 -0.0836029 0)
(1.70508 -0.0786732 1.25876e-20)
(1.75031 -0.0739445 6.23651e-21)
(1.79339 -0.0694207 6.17824e-21)
(1.83437 -0.0651026 0)
(1.87334 -0.0609892 6.06003e-21)
(1.91036 -0.0570778 6.00242e-21)
(1.94551 -0.0533648 0)
(1.97887 -0.0498452 -5.88508e-21)
(2.0105 -0.0465136 1.16522e-20)
(2.04047 -0.0433641 0)
(2.06886 -0.0403904 5.70995e-21)
(2.09574 -0.037586 0)
(2.12116 -0.0349444 -1.6782e-20)
(2.1452 -0.032459 0)
(2.16791 -0.0301231 1.64382e-20)
(2.18936 -0.0279302 5.42277e-21)
(2.2096 -0.0258738 -5.36572e-21)
(2.2287 -0.0239475 -1.06192e-20)
(2.24669 -0.022145 1.05076e-20)
(2.26365 -0.0204603 0)
(2.27962 -0.0188873 0)
(2.29464 -0.0174202 0)
(2.30876 -0.0160532 -3.02076e-20)
(2.32203 -0.0147809 -9.96156e-21)
(2.3345 -0.0135979 9.85446e-21)
(2.3462 -0.0124988 0)
(2.35717 -0.0114787 9.64205e-21)
(2.36746 -0.0105326 -9.53786e-21)
(2.3771 -0.0096559 -9.43389e-21)
(2.38612 -0.00884391 0)
(2.39456 -0.00809239 0)
(2.40246 -0.00739727 0)
(2.40985 -0.00675471 -9.02572e-21)
(2.41675 -0.00616106 0)
(2.42319 -0.00561283 1.76521e-20)
(2.42921 -0.00510671 2.61824e-20)
(2.43482 -0.00463964 -1.72591e-20)
(2.44006 -0.00420861 0)
(2.44494 -0.00381092 -8.43583e-21)
(2.44949 -0.00344391 0)
(2.45373 -0.00310524 -1.64905e-20)
(2.45768 -0.00279285 8.15088e-21)
(2.46137 -0.00250483 8.0573e-21)
(2.4648 -0.00224011 0)
(2.468 -0.00199776 2.3617e-20)
(2.47097 -0.00177638 -1.55615e-20)
(2.47374 -0.00157413 -7.68999e-21)
(2.47632 -0.00138941 0)
(2.4787 -0.00122086 -7.51026e-21)
(2.48092 -0.00106703 -2.2264e-20)
(2.48297 -0.000926759 0)
(2.48487 -0.000799417 -1.4491e-20)
(2.48663 -0.000684184 -1.4317e-20)
(2.48825 -0.000580045 -1.41443e-20)
(2.48975 -0.000486135 0)
(2.49113 -0.000401647 0)
(2.4924 -0.000325722 0)
(2.49358 -0.000257532 6.73288e-21)
(2.49465 -0.00019624 6.64962e-21)
(2.49564 -0.000140948 0)
(2.49655 -9.07886e-05 1.29694e-20)
(2.49738 -4.49606e-05 1.28062e-20)
(2.49813 -2.83259e-06 0)
(2.49882 3.60798e-05 1.24833e-20)
(2.49945 7.20833e-05 2.4647e-20)
(2.50001 0.000105401 -1.21648e-20)
(2.50052 0.000136169 -1.20072e-20)
(2.50097 0.000164532 0)
(2.50137 0.000190613 0)
(2.50173 0.000214569 0)
(2.50204 0.000236548 -1.13874e-20)
(2.50232 0.000256701 1.1235e-20)
(2.50255 0.000275197 2.21674e-20)
(2.50275 0.000292183 -1.09334e-20)
(2.50292 0.000307842 1.0784e-20)
(2.50306 0.000322325 1.06358e-20)
(2.50317 0.000335799 0)
(2.50325 0.000348397 0)
(2.50331 0.000360277 -1.01965e-20)
(2.50334 0.000371573 0)
(2.50335 0.000382456 0)
(2.50335 0.000393085 1.95318e-20)
(2.50332 0.00040366 0)
(2.50327 0.000414382 9.48337e-21)
(2.5032 0.000425506 -9.34352e-21)
(2.50311 0.000437307 0)
(2.50301 0.000450142 9.06634e-21)
(2.50288 0.00046441 0)
(2.50273 0.000480645 0)
(2.50255 0.000499446 -8.65724e-21)
(2.50235 0.000521651 1.70451e-20)
(2.50212 0.000548189 -8.38876e-21)
(2.50185 0.000580392 0)
(2.50154 0.000619828 0)
(2.50117 0.000668445 7.99229e-21)
(2.50075 0.000729446 0)
(2.50024 0.000804701 7.73223e-21)
(2.49963 0.000902656 0)
(2.4989 0.0010205 0)
(2.49801 0.00118493 0)
(2.49691 0.0013686 7.22288e-21)
(2.49556 0.00166219 0)
(2.49381 0.00193943 -6.97392e-21)
(2.49171 0.00251148 0)
(2.48879 0.00289294 0)
(2.48541 0.00414019 1.32181e-20)
(2.48015 0.00453255 -1.29812e-20)
(2.47463 0.00762038 0)
(2.46423 0.00757259 0)
(2.45493 0.0164209 0)
(2.43224 0.0150805 3.62723e-20)
(2.41728 0.0462967 0)
(2.36991 0.0493334 -2.3378e-20)
(-0.0151667 0.145743 1.07236e-23)
(-0.0570349 0.156183 -1.89834e-20)
(-0.0950124 0.154492 0)
(-0.134155 0.15671 1.87215e-20)
(-0.172548 0.158394 0)
(-0.210645 0.159768 0)
(-0.248139 0.16078 -1.09224e-23)
(-0.285079 0.161392 -9.10382e-21)
(-0.321387 0.161517 -9.02691e-21)
(-0.357028 0.161077 -8.97276e-21)
(-0.391935 0.160012 0)
(-0.42604 0.15824 0)
(-0.459248 0.155697 8.76361e-21)
(-0.491448 0.152311 1.73957e-20)
(-0.522512 0.148012 -1.72643e-20)
(-0.552304 0.142752 0)
(-0.580684 0.136462 -1.70022e-20)
(-0.6075 0.129116 8.45237e-21)
(-0.632552 0.120669 0)
(-0.655647 0.111075 -1.66128e-20)
(-0.676589 0.100327 -8.26163e-21)
(-0.695144 0.0883974 1.6358e-20)
(-0.711043 0.0753019 8.13763e-21)
(-0.724029 0.061027 0)
(-0.733827 0.0456022 -1.59886e-20)
(-0.740116 0.0290675 -1.58704e-20)
(-0.742599 0.0114765 0)
(-0.740945 -0.00709978 -1.56442e-20)
(-0.734819 -0.0265497 0)
(-0.723912 -0.0467642 -1.54346e-20)
(-0.707941 -0.0675712 -7.69624e-21)
(-0.686649 -0.0887882 0)
(-0.659809 -0.110209 0)
(-0.627281 -0.131586 0)
(-0.588994 -0.152662 0)
(-0.544939 -0.173155 0)
(-0.495207 -0.192793 0)
(-0.439974 -0.211289 -1.48196e-20)
(-0.379508 -0.228388 2.21751e-20)
(-0.314157 -0.243854 0)
(-0.24436 -0.257491 0)
(-0.170624 -0.269146 0)
(-0.0934983 -0.27872 -3.32453e-23)
(-0.0135613 -0.286162 -1.45825e-20)
(0.0686014 -0.291485 -2.90493e-20)
(0.152407 -0.294752 2.89603e-20)
(0.237297 -0.296055 1.4423e-20)
(0.322749 -0.295527 -1.43928e-20)
(0.408272 -0.293335 1.60597e-23)
(0.493423 -0.28965 -1.42661e-20)
(0.577816 -0.284655 0)
(0.661082 -0.278516 -1.41404e-20)
(0.742919 -0.271413 9.31144e-24)
(0.823107 -0.263507 0)
(0.90138 -0.254963 0)
(0.977568 -0.245913 1.38339e-20)
(1.05153 -0.236497 0)
(1.12314 -0.226825 0)
(1.19234 -0.217011 -1.35549e-20)
(1.25904 -0.207155 -2.69213e-20)
(1.32324 -0.197347 1.33625e-20)
(1.3849 -0.187649 0)
(1.44405 -0.178112 -1.31504e-20)
(1.50072 -0.168804 0)
(1.55495 -0.159756 -1.29243e-20)
(1.60679 -0.150995 -1.28171e-20)
(1.65632 -0.142544 2.54011e-20)
(1.70359 -0.134419 1.25833e-20)
(1.74867 -0.126631 0)
(1.79164 -0.119181 -2.4707e-20)
(1.83256 -0.112072 0)
(1.87152 -0.1053 -3.63605e-20)
(1.90858 -0.0988591 -2.40046e-20)
(1.94383 -0.092742 -2.37701e-20)
(1.97733 -0.0869399 2.35358e-20)
(2.00917 -0.0814429 -3.49542e-20)
(2.0394 -0.0762407 0)
(2.0681 -0.0713223 0)
(2.09534 -0.0666765 2.26043e-20)
(2.12118 -0.0622921 3.35614e-20)
(2.14567 -0.058158 0)
(2.16889 -0.054263 -1.09587e-20)
(2.19088 -0.0505964 0)
(2.2117 -0.0471474 3.21944e-20)
(2.23142 -0.0439056 1.55832e-24)
(2.25006 -0.040861 -1.45134e-24)
(2.2677 -0.0380037 -2.07931e-20)
(2.28436 -0.0353241 0)
(2.30011 -0.0328132 2.03542e-20)
(2.31497 -0.030462 1.08555e-24)
(2.329 -0.028262 0)
(2.34224 -0.0262049 0)
(2.35471 -0.0242829 0)
(2.36646 -0.0224886 -1.92846e-20)
(2.37752 -0.0208146 0)
(2.38794 -0.0192538 0)
(2.39773 -0.0177995 0)
(2.40693 -0.0164453 0)
(2.41558 -0.0151851 0)
(2.42369 -0.0140128 -1.80505e-20)
(2.4313 -0.0129231 0)
(2.43844 -0.0119107 -1.76521e-20)
(2.44513 -0.0109704 -1.74548e-20)
(2.45139 -0.0100977 1.72591e-20)
(2.45725 -0.00928806 0)
(2.46273 -0.00853725 1.68719e-20)
(2.46785 -0.0078413 0)
(2.47263 -0.00719655 1.64905e-20)
(2.4771 -0.00659958 -1.6302e-20)
(2.48127 -0.0060474 -4.8344e-20)
(2.48515 -0.00553694 0)
(2.48878 -0.00506537 -4.72335e-20)
(2.49215 -0.00462984 -1.55612e-20)
(2.4953 -0.00422776 0)
(2.49822 -0.00385665 -3.03987e-20)
(2.50094 -0.00351435 -3.00406e-20)
(2.50348 -0.00319883 4.45277e-20)
(2.50583 -0.00290834 0)
(2.50802 -0.00264163 1.4491e-20)
(2.51005 -0.00239717 1.43171e-20)
(2.51193 -0.00217331 4.24329e-20)
(2.51368 -0.00196843 0)
(2.5153 -0.00178105 0)
(2.5168 -0.00160971 0)
(2.51818 -0.00145302 1.34657e-20)
(2.51947 -0.00130963 0)
(2.52065 -0.00117818 0)
(2.52174 -0.00105734 -1.29694e-20)
(2.52275 -0.000945908 -1.28063e-20)
(2.52368 -0.000842818 0)
(2.52454 -0.000747209 0)
(2.52532 -0.000658427 -2.46471e-20)
(2.52605 -0.000575988 0)
(2.52672 -0.000499545 2.40144e-20)
(2.52733 -0.00042881 2.37013e-20)
(2.5279 -0.000363518 0)
(2.52841 -0.000303391 0)
(2.52889 -0.000248141 -2.27748e-20)
(2.52932 -0.000197452 -4.67512e-26)
(2.52972 -0.000150988 -4.43261e-26)
(2.53008 -0.000108398 0)
(2.53041 -6.93138e-05 -4.31363e-20)
(2.53071 -3.33879e-05 0)
(2.53099 -2.78128e-07 0)
(2.53123 3.03266e-05 0)
(2.53146 5.87434e-05 2.03931e-20)
(2.53167 8.52761e-05 0)
(2.53185 0.000110251 -3.96341e-20)
(2.53201 0.000133997 -1.95318e-20)
(2.53216 0.000156874 0)
(2.53229 0.000179264 -1.89668e-20)
(2.5324 0.0002016 0)
(2.53249 0.000224373 0)
(2.53257 0.000248146 -5.43982e-20)
(2.53263 0.000273618 3.57164e-20)
(2.53267 0.000301565 0)
(2.53268 0.000333067 3.46288e-20)
(2.53268 0.000369199 -1.70451e-20)
(2.53265 0.000411801 0)
(2.53258 0.000462243 0)
(2.53248 0.000524043 0)
(2.53233 0.000598363 -4.79538e-20)
(2.53213 0.000692903 0)
(2.53185 0.000806174 -1.54646e-20)
(2.53149 0.000957263 0)
(2.53101 0.00113307 0)
(2.53041 0.00138521 0)
(2.52957 0.00165945 0)
(2.52857 0.00210232 0)
(2.52715 0.00252637 0)
(2.52549 0.00335686 -2.74017e-20)
(2.52299 0.00399612 0)
(2.52023 0.00568643 -1.32182e-20)
(2.51572 0.00661305 3.89398e-20)
(2.51099 0.0104105 0)
(2.5026 0.0118025 0)
(2.49429 0.0214755 -2.45868e-20)
(2.47876 0.0249025 -2.41756e-20)
(2.46497 0.0531593 2.37335e-20)
(2.44229 0.0672526 2.33799e-20)
(-0.014816 0.222364 2.86188e-20)
(-0.0568097 0.239512 2.84398e-20)
(-0.094823 0.23586 1.8818e-20)
(-0.134261 0.237065 9.32683e-21)
(-0.172896 0.237289 0)
(-0.211353 0.237101 -1.84245e-20)
(-0.249286 0.236496 9.12953e-21)
(-0.286761 0.235411 0)
(-0.323699 0.233762 9.03165e-21)
(-0.360076 0.231468 0)
(-0.395818 0.228438 -1.77638e-20)
(-0.430867 0.224571 0)
(-0.465125 0.219769 -8.76813e-21)
(-0.498504 0.213962 -1.74046e-20)
(-0.530901 0.207044 1.7273e-20)
(-0.562205 0.198945 0)
(-0.59226 0.189585 1.70106e-20)
(-0.620901 0.178889 0)
(-0.647965 0.1668 0)
(-0.67322 0.15324 1.66206e-20)
(-0.696436 0.138165 0)
(-0.717373 0.121525 -5.78573e-23)
(-0.735747 0.103288 0)
(-0.751264 0.0834311 0)
(-0.763564 0.0619455 6.70765e-23)
(-0.772274 0.0388486 1.58769e-20)
(-0.777028 0.0141905 1.56885e-20)
(-0.777407 -0.0119478 1.56501e-20)
(-0.773009 -0.039451 0)
(-0.763453 -0.0681407 3.07998e-20)
(-0.74837 -0.0978045 0)
(-0.727455 -0.128162 1.51676e-20)
(-0.700456 -0.158892 0)
(-0.667194 -0.189634 0)
(-0.627582 -0.21998 -1.49285e-20)
(-0.581631 -0.249509 0)
(-0.529461 -0.277789 1.48033e-20)
(-0.471303 -0.304399 7.32311e-23)
(-0.407505 -0.328939 -2.94737e-20)
(-0.338506 -0.35105 2.93184e-20)
(-0.264829 -0.370438 0)
(-0.18708 -0.386876 0)
(-0.1059 -0.400226 1.44975e-20)
(-0.0219601 -0.410445 0)
(0.0640442 -0.417562 1.45136e-20)
(0.151456 -0.421697 -1.44705e-20)
(0.239664 -0.42301 -1.4425e-20)
(0.328098 -0.421726 0)
(0.416233 -0.418087 1.43241e-20)
(0.503635 -0.412363 1.42677e-20)
(0.589928 -0.404831 -2.83785e-20)
(0.674768 -0.395737 1.41418e-20)
(0.757882 -0.385331 1.40719e-20)
(0.83905 -0.37385 0)
(0.918058 -0.361521 0)
(0.994763 -0.348519 -1.38349e-20)
(1.06904 -0.335057 0)
(1.14079 -0.32127 0)
(1.20995 -0.307328 2.71202e-20)
(1.27649 -0.293366 2.69227e-20)
(1.34039 -0.279487 0)
(1.40169 -0.265803 0)
(1.46038 -0.252379 0)