/*--------------------------------*- C++ -*----------------------------------*\
  =========                 |
  \\      /  F ield         | OpenFOAM: The Open Source CFD Toolbox
   \\    /   O peration     | Website:  https://openfoam.org
    \\  /    A nd           | Version:  7
     \\/     M anipulation  |
\*---------------------------------------------------------------------------*/
FoamFile
{
    version     2.0;
    format      ascii;
    class       volScalarField;
    location    "0.056";
    object      k;
}
// * * * * * * * * * * * * * * * * * * * * * * * * * * * * * * * * * * * * * //

dimensions      [0 2 -2 0 0 0 0];

internalField   nonuniform List<scalar> 
12225
(
1.9319e-05
1.81504e-05
1.66128e-05
1.53687e-05
1.38194e-05
1.24953e-05
1.13922e-05
9.96156e-06
9.28972e-06
7.96053e-06
5.91709e-06
5.19281e-06
5.47362e-06
6.72064e-06
6.73456e-06
5.36199e-06
3.63137e-06
4.9444e-06
1.99795e-05
1.98833e-05
1.96586e-05
1.94099e-05
1.90389e-05
1.86895e-05
1.8429e-05
1.77068e-05
1.78105e-05
1.76903e-05
1.70069e-05
1.58823e-05
1.50472e-05
1.45908e-05
1.44093e-05
1.42322e-05
1.37545e-05
1.33101e-05
1.99987e-05
1.92316e-05
1.91766e-05
1.91994e-05
1.91906e-05
1.91428e-05
1.90507e-05
1.88967e-05
1.89159e-05
1.89049e-05
1.88397e-05
1.86394e-05
1.82826e-05
1.79705e-05
1.7799e-05
1.76798e-05
1.75746e-05
1.72396e-05
2.01e-05
1.97434e-05
1.83603e-05
1.74816e-05
1.66024e-05
1.62163e-05
1.62179e-05
1.63574e-05
1.69325e-05
1.76169e-05
1.79141e-05
1.79576e-05
1.7924e-05
1.77468e-05
1.75253e-05
1.74241e-05
1.73703e-05
1.72157e-05
2.07352e-05
2.04553e-05
2.10455e-05
2.11759e-05
2.07408e-05
1.88907e-05
1.79577e-05
1.79646e-05
1.80933e-05
1.8332e-05
1.83799e-05
1.83189e-05
1.79488e-05
1.7392e-05
1.70901e-05
1.692e-05
1.6769e-05
1.66401e-05
2.15847e-05
2.15349e-05
2.18246e-05
2.19638e-05
2.16464e-05
2.07258e-05
2.03191e-05
2.03125e-05
2.0641e-05
2.18251e-05
2.2428e-05
2.24776e-05
2.23666e-05
2.19043e-05
2.09699e-05
1.99872e-05
1.90483e-05
1.81414e-05
2.11629e-05
2.12617e-05
2.30387e-05
2.3466e-05
2.28319e-05
2.19323e-05
2.16789e-05
2.1637e-05
2.16747e-05
2.19274e-05
2.27377e-05
2.35264e-05
2.39604e-05
2.4125e-05
2.41408e-05
2.40634e-05
2.37233e-05
2.26091e-05
2.02491e-05
2.17919e-05
2.32788e-05
2.3598e-05
2.3676e-05
2.40757e-05
2.50871e-05
2.52445e-05
2.48508e-05
2.33915e-05
2.26691e-05
2.25987e-05
2.26782e-05
2.30499e-05
2.34351e-05
2.35475e-05
2.3528e-05
2.33195e-05
2.11613e-05
2.10566e-05
2.43807e-05
2.53259e-05
2.58746e-05
2.81353e-05
2.98143e-05
2.95618e-05
2.69383e-05
2.36652e-05
2.20374e-05
2.13139e-05
2.10973e-05
2.10956e-05
2.12098e-05
2.16735e-05
2.28861e-05
2.38315e-05
2.01529e-05
2.11193e-05
2.24541e-05
2.32419e-05
2.49249e-05
2.66238e-05
2.6958e-05
2.67578e-05
2.5558e-05
2.33416e-05
2.20943e-05
2.14921e-05
2.12647e-05
2.12174e-05
2.12251e-05
2.13002e-05
2.15812e-05
2.23872e-05
2.04767e-05
2.23779e-05
2.27457e-05
2.22402e-05
2.20676e-05
2.25562e-05
2.32633e-05
2.32874e-05
2.31094e-05
2.30426e-05
2.33325e-05
2.37873e-05
2.38648e-05
2.37638e-05
2.31929e-05
2.25663e-05
2.23431e-05
2.23544e-05
2.0484e-05
2.12936e-05
2.12805e-05
2.07587e-05
2.04631e-05
2.04867e-05
2.08759e-05
2.25387e-05
2.39951e-05
2.43808e-05
2.44049e-05
2.4324e-05
2.39127e-05
2.30426e-05
2.23417e-05
2.20429e-05
2.1716e-05
2.15333e-05
2.15186e-05
2.16799e-05
2.14813e-05
2.0878e-05
2.07722e-05
2.08111e-05
2.10466e-05
2.20257e-05
2.41637e-05
2.50141e-05
2.50656e-05
2.49141e-05
2.4318e-05
2.36639e-05
2.31421e-05
2.27098e-05
2.22671e-05
2.18758e-05
2.01481e-05
2.2601e-05
2.61882e-05
2.62965e-05
2.45298e-05
2.23166e-05
2.18362e-05
2.1899e-05
2.23261e-05
2.26654e-05
2.27803e-05
2.27872e-05
2.27436e-05
2.26491e-05
2.25834e-05
2.25227e-05
2.24149e-05
2.21527e-05
2.11357e-05
2.33563e-05
2.37674e-05
2.27832e-05
2.22548e-05
2.2841e-05
2.30647e-05
2.27301e-05
2.22467e-05
2.21363e-05
2.21638e-05
2.24295e-05
2.30825e-05
2.34128e-05
2.34834e-05
2.34516e-05
2.32117e-05
2.27483e-05
2.06057e-05
2.07471e-05
2.13832e-05
2.18784e-05
2.18972e-05
2.17018e-05
2.1187e-05
2.09881e-05
2.0944e-05
2.09539e-05
2.10681e-05
2.1587e-05
2.2337e-05
2.27633e-05
2.29451e-05
2.29713e-05
2.28878e-05
2.25191e-05
2.10984e-05
2.07256e-05
2.05249e-05
2.05921e-05
2.055e-05
2.04103e-05
2.0398e-05
2.03998e-05
2.04154e-05
2.05584e-05
2.08511e-05
2.10222e-05
2.10849e-05
2.11063e-05
2.11259e-05
2.11529e-05
2.12187e-05
2.13511e-05
2.05175e-05
2.04316e-05
2.0439e-05
2.04444e-05
2.03499e-05
2.01959e-05
2.01905e-05
2.02881e-05
2.05767e-05
2.07611e-05
2.08229e-05
2.08292e-05
2.08267e-05
2.08082e-05
2.07448e-05
2.07227e-05
2.07253e-05
2.07288e-05
2.01651e-05
2.03609e-05
2.05261e-05
2.05891e-05
2.05667e-05
2.04125e-05
2.02727e-05
2.02437e-05
2.02514e-05
2.02983e-05
2.04356e-05
2.06216e-05
2.07689e-05
2.08213e-05
2.08184e-05
2.07609e-05
2.05895e-05
2.04745e-05
2.21597e-05
2.10851e-05
2.07455e-05
2.07357e-05
2.07039e-05
2.06904e-05
2.06547e-05
2.04903e-05
2.03029e-05
2.02165e-05
2.01934e-05
2.01957e-05
2.023e-05
2.04207e-05
2.07883e-05
2.09088e-05
2.08983e-05
2.07889e-05
2.02406e-05
2.05549e-05
2.06698e-05
2.06456e-05
2.05519e-05
2.04613e-05
2.03584e-05
2.02793e-05
2.02378e-05
2.02249e-05
2.02247e-05
2.02338e-05
2.02787e-05
2.03796e-05
2.04411e-05
2.04481e-05
2.04308e-05
2.04235e-05
2.0198e-05
2.07957e-05
2.09679e-05
2.09908e-05
2.09556e-05
2.08521e-05
2.07544e-05
2.05331e-05
2.02513e-05
2.00982e-05
2.00421e-05
2.00326e-05
2.0035e-05
2.00506e-05
2.01193e-05
2.021e-05
2.03053e-05
2.03987e-05
2.04335e-05
2.1057e-05
2.10393e-05
2.08333e-05
2.07633e-05
2.06228e-05
2.03787e-05
2.02217e-05
2.01651e-05
2.01545e-05
2.01464e-05
2.0119e-05
2.01152e-05
2.01372e-05
2.02479e-05
2.04108e-05
2.05226e-05
2.05843e-05
2.02558e-05
2.08371e-05
2.08679e-05
2.06997e-05
2.04924e-05
2.05423e-05
2.08256e-05
2.15144e-05
2.18181e-05
2.18217e-05
2.16618e-05
2.1056e-05
2.06674e-05
2.05784e-05
2.05822e-05
2.06565e-05
2.0757e-05
2.08014e-05
2.02168e-05
2.05105e-05
2.05477e-05
2.04526e-05
2.02935e-05
2.03577e-05
2.10418e-05
2.18339e-05
2.1946e-05
2.17971e-05
2.11714e-05
2.07543e-05
2.06457e-05
2.06357e-05
2.06509e-05
2.06657e-05
2.06668e-05
2.06601e-05
2.08502e-05
2.11468e-05
2.08066e-05
2.0247e-05
2.01097e-05
2.01643e-05
2.07561e-05
2.24596e-05
2.31514e-05
2.31276e-05
2.24661e-05
2.12508e-05
2.06777e-05
2.04747e-05
2.04406e-05
2.04497e-05
2.04855e-05
2.04991e-05
2.0105e-05
2.01109e-05
2.00532e-05
1.99496e-05
1.98321e-05
1.97933e-05
1.98352e-05
1.99028e-05
1.98654e-05
1.95798e-05
1.85024e-05
1.74771e-05
1.73267e-05
1.75779e-05
1.86907e-05
2.09951e-05
2.26226e-05
2.32103e-05
2.02247e-05
1.9402e-05
1.74038e-05
1.73018e-05
1.84718e-05
2.21999e-05
3.11494e-05
3.98486e-05
4.48216e-05
4.69676e-05
4.81695e-05
4.97495e-05
5.27786e-05
5.96857e-05
7.72949e-05
9.68626e-05
0.000111003
0.0001172
3.18124e-05
0.00012092
0.000152449
0.000187408
0.000262779
0.000418508
0.000530536
0.000562762
0.000562179
0.000552605
0.000547553
0.000549054
0.000559442
0.000603017
0.000671272
0.000712936
0.000730251
0.000733344
0.00248071
0.002533
0.00254356
0.00257695
0.00267072
0.00271282
0.00270747
0.002634
0.00239842
0.0021885
0.00204556
0.00193026
0.00180992
0.00168175
0.00156013
0.00146397
0.00140539
0.00136874
7.99074e-05
0.000280922
0.000467954
0.000641525
0.000825563
0.000846894
0.000772667
0.000631859
0.000569572
0.00052561
0.000498837
0.000476748
0.000458136
0.000448664
0.000445028
0.000440652
0.000428562
0.000415594
0.000392569
0.000367993
0.000372773
0.000389348
0.000431168
0.000473069
0.000524935
0.000567162
0.000557393
0.000507107
0.000499305
0.000600208
0.00118669
0.00213974
0.00251613
0.00272702
0.00318005
0.00494854
0.0092852
0.0113343
0.0106581
0.0105948
0.0123921
0.0311745
0.0416603
0.0125444
0.00201116
0.00101676
0.000863736
0.000720095
0.00054266
0.000477996
0.000413504
0.00033439
0.000268858
0.000207905
0.000177159
0.000136419
0.000111066
9.02277e-05
7.78955e-05
7.01134e-05
6.64788e-05
6.54008e-05
6.3438e-05
6.15889e-05
6.03183e-05
5.95274e-05
5.87629e-05
5.80579e-05
5.73846e-05
5.66563e-05
5.5958e-05
5.53084e-05
5.47185e-05
5.41386e-05
5.34837e-05
5.27423e-05
5.1984e-05
5.12918e-05
5.07042e-05
5.02726e-05
5.00428e-05
4.99327e-05
4.9709e-05
4.91132e-05
4.82206e-05
4.73746e-05
4.68128e-05
4.63697e-05
4.55243e-05
4.40397e-05
4.24213e-05
4.13233e-05
4.03786e-05
3.85702e-05
3.69393e-05
3.5779e-05
3.41063e-05
3.2678e-05
3.11625e-05
2.96502e-05
2.80914e-05
2.64879e-05
2.47466e-05
2.2862e-05
2.08764e-05
1.88242e-05
1.6748e-05
1.47121e-05
1.28052e-05
1.10789e-05
9.49033e-06
8.05276e-06
6.78311e-06
5.67999e-06
4.73039e-06
3.91903e-06
3.2328e-06
2.65778e-06
2.17845e-06
1.78199e-06
1.45468e-06
1.18425e-06
9.62998e-07
7.82261e-07
6.35363e-07
5.1666e-07
4.21106e-07
3.44208e-07
2.821e-07
2.31579e-07
1.90139e-07
1.55912e-07
1.27519e-07
1.03927e-07
8.43277e-08
6.80725e-08
5.46307e-08
4.3562e-08
3.44962e-08
2.71182e-08
2.11564e-08
1.63754e-08
1.25717e-08
9.56994e-09
7.22098e-09
5.39877e-09
3.99784e-09
2.93071e-09
2.12569e-09
1.52463e-09
1.08085e-09
7.57155e-10
5.24059e-10
3.5838e-10
2.42128e-10
1.61594e-10
1.06519e-10
6.9342e-11
4.45751e-11
2.82934e-11
1.77317e-11
1.0972e-11
6.70302e-12
4.04326e-12
2.40784e-12
1.41587e-12
8.21753e-13
4.71031e-13
2.6611e-13
1.4884e-13
8.14723e-14
4.46285e-14
2.35868e-14
1.27257e-14
5.66528e-15
2.29236e-14
1.75163e-13
9.66555e-11
5.70235e-08
3.20965e-07
0.000293611
0.000547065
0.000629434
0.000579784
0.000603256
0.000664542
0.000680475
0.000669351
0.000665982
0.000684711
0.000739291
0.000794132
0.000823123
0.000856405
0.000921851
0.000981223
0.000991196
0.000984932
0.000965873
0.000919221
0.000875115
0.000830538
0.000781878
0.000723656
0.000666836
0.00063262
0.000613668
0.000571142
0.000556767
0.000579169
0.000686006
0.000916246
0.00143131
0.00159744
0.00151696
0.00161643
0.00252387
0.00313256
0.0048669
0.0126125
0.0158596
0.0163068
0.00949227
0.00268923
0.000971505
0.000615595
0.000474303
0.000335468
0.000269013
0.000235794
0.000216088
0.000200581
0.000193026
0.000188004
0.000184779
0.000179772
0.000173566
0.000171556
0.000170859
0.000170337
0.000168766
0.00016565
0.000162142
0.000159554
0.000157728
0.00015586
0.000154037
0.000152727
0.000151714
0.000150537
0.000148792
0.000146666
0.000144776
0.000143569
0.000142889
0.000141887
0.000139951
0.000137271
0.000135466
0.00013497
0.00013485
0.000134784
0.0001342
0.000132747
0.000131059
0.000129661
0.000128394
0.000126392
0.000123139
0.000118882
0.000114177
0.000110074
0.000106063
0.00010003
9.57633e-05
9.11882e-05
8.68845e-05
8.29602e-05
7.92919e-05
7.58697e-05
7.26007e-05
6.94078e-05
6.63048e-05
6.32878e-05
6.03378e-05
5.7403e-05
5.43981e-05
5.11993e-05
4.76496e-05
4.37329e-05
3.95427e-05
3.5193e-05
3.09184e-05
2.69928e-05
2.34653e-05
2.02479e-05
1.73326e-05
1.47329e-05
1.24579e-05
1.04999e-05
8.83824e-06
7.44346e-06
6.2814e-06
5.32296e-06
4.53901e-06
3.89971e-06
3.37613e-06
2.94281e-06
2.57917e-06
2.26804e-06
1.99511e-06
1.74994e-06
1.52643e-06
1.32188e-06
1.13552e-06
9.67147e-07
8.16561e-07
6.83277e-07
5.66543e-07
4.65405e-07
3.78752e-07
3.05355e-07
2.43892e-07
1.92977e-07
1.51228e-07
1.17353e-07
9.01586e-08
6.85572e-08
5.15774e-08
3.83664e-08
2.81949e-08
2.04563e-08
1.46475e-08
1.03508e-08
7.21986e-09
4.96996e-09
3.3757e-09
2.26202e-09
1.4952e-09
9.7486e-10
6.26897e-10
3.97607e-10
2.48712e-10
1.53445e-10
9.33695e-11
5.60456e-11
3.31769e-11
1.9382e-11
1.11521e-11
6.3472e-12
3.53665e-12
1.96765e-12
1.05077e-12
5.84776e-13
2.57187e-13
3.49855e-12
2.21125e-12
7.41066e-11
1.4442e-08
4.54593e-08
0.000268254
0.00135972
0.000948542
0.000510829
0.000409143
0.000413214
0.000454498
0.000531446
0.000650004
0.000915156
0.00114459
0.00134829
0.00150823
0.00164785
0.00178609
0.00188163
0.00188675
0.00187132
0.00182221
0.00175952
0.00165203
0.00155082
0.00145702
0.00129961
0.00114144
0.000969127
0.000838383
0.000733887
0.000659505
0.000632457
0.000645876
0.000667955
0.000732415
0.000774978
0.000905152
0.00154968
0.00481242
0.00920661
0.00980677
0.0108868
0.00703777
0.00309673
0.00142161
0.000612116
0.000383663
0.00030412
0.000265729
0.000247822
0.000241898
0.000240726
0.000244996
0.000257441
0.000262143
0.000263995
0.000263895
0.000256785
0.000237043
0.000226626
0.000224821
0.000224776
0.000226163
0.000229495
0.000233985
0.000237189
0.000238494
0.000238951
0.000239007
0.000238667
0.00023844
0.00023663
0.000233876
0.000232872
0.000232561
0.000232422
0.000232262
0.000231811
0.000230615
0.000229281
0.000229218
0.000230452
0.000233181
0.000236349
0.000239217
0.000241081
0.000241829
0.000241688
0.000239602
0.000236123
0.000230543
0.000223101
0.000213835
0.000202733
0.000190356
0.000175681
0.000161269
0.000146684
0.000134286
0.000123223
0.000113265
0.000104477
9.69113e-05
9.04942e-05
8.50982e-05
8.0551e-05
7.66495e-05
7.32164e-05
7.00718e-05
6.70998e-05
6.42676e-05
6.151e-05
5.87723e-05
5.58731e-05
5.26704e-05
4.90642e-05
4.513e-05
4.09936e-05
3.6684e-05
3.22712e-05
2.79019e-05
2.37547e-05
1.99863e-05
1.66676e-05
1.37456e-05
1.12142e-05
9.08787e-06
7.35888e-06
5.99164e-06
4.93259e-06
4.12086e-06
3.49822e-06
3.01552e-06
2.63388e-06
2.32383e-06
2.06405e-06
1.83986e-06
1.64121e-06
1.46133e-06
1.29593e-06
1.14253e-06
9.99856e-07
8.67427e-07
7.45323e-07
6.33914e-07
5.33568e-07
4.44427e-07
3.66279e-07
2.98631e-07
2.40796e-07
1.91961e-07
1.51238e-07
1.17711e-07
9.04662e-08
6.86187e-08
5.13404e-08
3.78724e-08
2.75338e-08
1.97218e-08
1.39139e-08
9.66678e-09
6.61285e-09
4.45376e-09
2.95306e-09
1.92735e-09
1.23817e-09
7.82895e-10
4.87405e-10
2.98714e-10
1.80427e-10
1.07071e-10
6.29521e-11
3.58492e-11
2.08475e-11
1.11238e-11
6.42686e-12
3.02124e-12
3.80327e-12
3.33156e-11
3.18219e-11
8.93094e-10
3.25202e-09
0.0001955
0.0015642
0.00090123
0.000431475
0.000356306
0.000369915
0.000433345
0.000583983
0.000911696
0.00130555
0.00161424
0.00180992
0.00211101
0.00225536
0.00242033
0.00253532
0.00257312
0.00257107
0.00255074
0.00250098
0.00241046
0.00227717
0.00212761
0.0019727
0.00172809
0.00151158
0.00137782
0.00121669
0.000985856
0.000792592
0.000696574
0.000679568
0.00069219
0.000821109
0.00228359
0.00705074
0.00800628
0.00825028
0.00618589
0.00370013
0.00158455
0.000734999
0.000421198
0.000312346
0.000285686
0.000279179
0.000278199
0.000293634
0.000343384
0.000409454
0.000448645
0.000466169
0.000472751
0.000474328
0.00047197
0.000458942
0.00043877
0.000416084
0.000393956
0.00037617
0.000364209
0.000356349
0.00035003
0.000345036
0.000340086
0.000334666
0.000331535
0.000328997
0.00032465
0.000319125
0.000317327
0.000316997
0.000317051
0.000317535
0.000318778
0.000320863
0.000323634
0.000327047
0.000331399
0.000336284
0.000339286
0.000340244
0.000340281
0.000339247
0.000336709
0.000332668
0.000327734
0.000322997
0.000318632
0.000314268
0.00030892
0.000302569
0.000295251
0.000285676
0.000273259
0.000256663
0.000235608
0.000212324
0.000189016
0.000166742
0.000146347
0.000128121
0.000112565
0.000100393
9.08785e-05
8.36881e-05
7.8437e-05
7.44925e-05
7.13479e-05
6.86484e-05
6.62055e-05
6.40198e-05
6.20157e-05
6.01029e-05
5.82256e-05
5.63112e-05
5.4204e-05
5.1666e-05
4.85475e-05
4.48579e-05
4.06412e-05
3.59186e-05
3.08125e-05
2.55348e-05
2.04304e-05
1.58718e-05
1.20467e-05
8.99939e-06
6.70463e-06
5.05057e-06
3.8842e-06
3.06443e-06
2.48405e-06
2.06749e-06
1.76206e-06
1.53124e-06
1.34992e-06
1.20103e-06
1.07343e-06
9.60231e-07
8.57415e-07
7.62497e-07
6.73922e-07
5.90779e-07
5.12813e-07
4.40324e-07
3.73809e-07
3.1368e-07
2.60153e-07
2.13217e-07
1.72664e-07
1.3812e-07
1.09099e-07
8.5056e-08
6.54269e-08
4.96416e-08
3.71351e-08
2.7375e-08
1.98757e-08
1.42059e-08
9.99059e-09
6.91101e-09
4.7013e-09
3.14471e-09
2.06831e-09
1.33779e-09
8.50874e-10
5.32205e-10
3.27311e-10
1.97941e-10
1.17693e-10
6.87244e-11
3.96082e-11
2.2025e-11
1.28103e-11
5.71243e-12
5.97545e-12
5.12117e-12
3.30895e-11
1.80036e-10
0.000471671
0.000971398
0.000565314
0.000354603
0.000344636
0.000393378
0.000569666
0.000919852
0.00141743
0.00176299
0.00199353
0.00217017
0.00247168
0.00258533
0.00280061
0.00306391
0.0032429
0.0035726
0.00360603
0.00357215
0.0034741
0.00327057
0.00292824
0.00255984
0.00214701
0.0018106
0.00157584
0.00146473
0.00126947
0.00111213
0.000882219
0.000735095
0.000831582
0.00311266
0.00660366
0.00710074
0.00658263
0.00397424
0.00189268
0.000972315
0.000507905
0.000344888
0.000299549
0.000291583
0.000295588
0.000313731
0.000358014
0.000439325
0.000505522
0.00054325
0.000557366
0.00056094
0.000560765
0.000553025
0.000537581
0.000522207
0.00050777
0.000491403
0.0004732
0.000454943
0.000436343
0.000414944
0.000395935
0.000378625
0.000364484
0.000355828
0.00035139
0.000347989
0.000343178
0.000339681
0.000338717
0.000338567
0.000338822
0.000340135
0.000342988
0.000347115
0.000351835
0.000357417
0.000363312
0.000364812
0.000364383
0.000362351
0.000358793
0.000354111
0.000348433
0.000341969
0.000335174
0.00032899
0.000324539
0.000321472
0.000318324
0.000315387
0.000312882
0.000309401
0.000305115
0.000298361
0.000288344
0.00027413
0.000256043
0.000235024
0.000213
0.000191027
0.000169126
0.000146829
0.000125408
0.000106667
9.28407e-05
8.36954e-05
7.74035e-05
7.29229e-05
6.95616e-05
6.69228e-05
6.475e-05
6.28418e-05
6.10756e-05
5.94437e-05
5.79686e-05
5.65422e-05
5.4849e-05
5.26203e-05
4.9924e-05
4.70704e-05
4.41834e-05
4.1073e-05
3.73335e-05
3.26583e-05
2.73093e-05
2.19371e-05
1.71179e-05
1.30814e-05
9.84344e-06
7.33527e-06
5.44414e-06
4.04851e-06
3.0369e-06
2.31458e-06
1.80457e-06
1.44628e-06
1.19329e-06
1.01091e-06
8.74279e-07
7.66843e-07
6.77952e-07
6.00036e-07
5.27923e-07
4.5903e-07
3.94143e-07
3.34169e-07
2.7976e-07
2.31298e-07
1.88891e-07
1.52402e-07
1.21505e-07
9.57328e-08
7.45195e-08
5.72778e-08
4.34535e-08
3.25249e-08
2.40095e-08
1.74719e-08
1.25284e-08
8.84847e-09
6.15332e-09
4.21205e-09
2.83712e-09
1.87984e-09
1.22504e-09
7.85054e-10
4.94621e-10
3.06227e-10
1.8637e-10
1.11264e-10
6.54664e-11
3.74609e-11
2.15874e-11
1.13815e-11
7.05288e-12
3.24647e-12
4.05464e-12
1.10381e-11
0.000481674
0.000616412
0.000420655
0.000337461
0.000368847
0.000514019
0.00090642
0.00132633
0.00164887
0.00191508
0.00209621
0.00247294
0.00306163
0.00344963
0.00431995
0.00524436
0.00613302
0.00740384
0.00756636
0.00734515
0.00673606
0.00573155
0.00464819
0.00373707
0.00299166
0.0025054
0.00210102
0.00172268
0.00158645
0.00138127
0.00093073
0.000888248
0.00282291
0.00577025
0.00627947
0.00542354
0.00271917
0.00133016
0.00068014
0.000426062
0.000332193
0.000307873
0.000304112
0.000317378
0.000352746
0.000414504
0.000476737
0.000520057
0.000568685
0.000589064
0.000593968
0.00059362
0.000584868
0.000568428
0.000552774
0.000539621
0.000532514
0.000526182
0.000519232
0.000510071
0.000495755
0.000479539
0.000463011
0.000443364
0.000419455
0.000395477
0.000374708
0.000365976
0.000360754
0.000357214
0.000355944
0.000355779
0.000356456
0.000359407
0.000365577
0.000373667
0.000377516
0.000377877
0.000376132
0.000372474
0.000368013
0.000362468
0.000354474
0.000342853
0.00032818
0.000312209
0.000297004
0.0002842
0.000277098
0.000274318
0.00027385
0.000276653
0.00028295
0.000291299
0.000297614
0.000298547
0.000294341
0.000285028
0.000271798
0.00025428
0.000233667
0.0002123
0.000192196
0.000174086
0.000157254
0.000140332
0.000121519
0.000102887
8.9262e-05
8.05026e-05
7.44865e-05
7.01217e-05
6.68598e-05
6.43708e-05
6.23709e-05
6.06277e-05
5.90498e-05
5.7689e-05
5.65484e-05
5.53527e-05
5.3655e-05
5.124e-05
4.84762e-05
4.58394e-05
4.35092e-05
4.13606e-05
3.88548e-05
3.53497e-05
3.06565e-05
2.53177e-05
2.01038e-05
1.55242e-05
1.17244e-05
8.69095e-06
6.33688e-06
4.55605e-06
3.24508e-06
2.30683e-06
1.65334e-06
1.20908e-06
9.12444e-07
7.15283e-07
5.82032e-07
4.89051e-07
4.21859e-07
3.71266e-07
3.28946e-07
2.89436e-07
2.5075e-07
2.13665e-07
1.79078e-07
1.47667e-07
1.19845e-07
9.57685e-08
7.5388e-08
5.84844e-08
4.47234e-08
3.37142e-08
2.50521e-08
1.83466e-08
1.32385e-08
9.40938e-09
6.58535e-09
4.53662e-09
3.07516e-09
2.05022e-09
1.34386e-09
8.65457e-10
5.47626e-10
3.40052e-10
2.07579e-10
1.23912e-10
7.3207e-11
4.15522e-11
2.42599e-11
1.23918e-11
8.34327e-12
3.81306e-12
4.30099e-12
4.28591e-12
0.000545159
0.000594064
0.000381815
0.00035191
0.00042774
0.000691099
0.00117755
0.00147159
0.00173417
0.00204236
0.00265052
0.00371158
0.00458606
0.00554894
0.00779473
0.0102421
0.0123499
0.0148223
0.0153505
0.0150689
0.0141071
0.0118426
0.00813949
0.00543443
0.00374847
0.00284803
0.00235285
0.00210939
0.00181993
0.00133948
0.00100805
0.00231166
0.00506013
0.00553625
0.00461955
0.00218669
0.00108641
0.000603642
0.000415589
0.000356191
0.000338331
0.000335523
0.000364027
0.000413714
0.000455253
0.000492651
0.000525499
0.000548866
0.000580072
0.0005981
0.000602912
0.000604287
0.000604783
0.000604574
0.000604993
0.000613029
0.000628744
0.000645371
0.000653213
0.000655849
0.000652045
0.000628604
0.000605971
0.000585541
0.000559344
0.000521003
0.000477783
0.000451624
0.000427281
0.000415128
0.000402509
0.000398226
0.000396876
0.000396479
0.000397803
0.000395484
0.000390747
0.000385879
0.000378925
0.000369014
0.000354595
0.000336892
0.000317673
0.000299341
0.000283034
0.00026851
0.000255424
0.00024421
0.000235538
0.000229307
0.000224639
0.000221845
0.000220702
0.000222952
0.000233455
0.00025147
0.000270122
0.000276988
0.000272083
0.000258656
0.000240152
0.000219121
0.000197529
0.000177665
0.000161402
0.00014847
0.000136307
0.000123496
0.00010786
9.25828e-05
8.20875e-05
7.50959e-05
7.00457e-05
6.62727e-05
6.34726e-05
6.13493e-05
5.95903e-05
5.80268e-05
5.67088e-05
5.57102e-05
5.48491e-05
5.36833e-05
5.16947e-05
4.88861e-05
4.59227e-05
4.33794e-05
4.14459e-05
3.99323e-05
3.82714e-05
3.57304e-05
3.19089e-05
2.70721e-05
2.196e-05
1.72192e-05
1.31326e-05
9.75981e-06
7.06727e-06
4.98805e-06
3.44017e-06
2.33053e-06
1.56408e-06
1.05322e-06
7.23658e-07
5.16513e-07
3.87624e-07
3.05969e-07
2.52257e-07
2.15703e-07
1.89196e-07
1.66732e-07
1.45017e-07
1.23785e-07
1.03617e-07
8.50603e-08
6.85126e-08
5.41803e-08
4.20932e-08
3.21452e-08
2.41399e-08
1.78317e-08
1.29584e-08
9.26452e-09
6.51601e-09
4.50771e-09
3.06658e-09
2.05091e-09
1.3481e-09
8.70509e-10
5.52123e-10
3.43684e-10
2.10023e-10
1.25851e-10
7.40307e-11
4.25821e-11
2.41385e-11
1.32623e-11
7.36899e-12
3.81644e-12
1.98647e-12
1.42754e-12
0.000739035
0.000729723
0.000368263
0.000362821
0.000492276
0.000894196
0.00129679
0.00152801
0.00195805
0.00286078
0.00392586
0.00489693
0.00591733
0.00805989
0.0119002
0.0156135
0.0179721
0.0201672
0.0208109
0.020615
0.0198957
0.0182895
0.0144563
0.00937551
0.00569565
0.0036715
0.00273524
0.002223
0.00174854
0.00132055
0.00186513
0.00444584
0.00500219
0.00447873
0.00204283
0.00101475
0.000607152
0.000455317
0.00040387
0.000385312
0.00041426
0.000444429
0.00047438
0.000493373
0.000511277
0.00052585
0.000543022
0.000567881
0.000600307
0.000630358
0.000658107
0.000690483
0.000734468
0.000790872
0.000851083
0.00091541
0.000979922
0.00103527
0.00107194
0.00108942
0.00109275
0.00104478
0.000971707
0.000921756
0.000879938
0.000793401
0.000706209
0.00066337
0.000594671
0.000560083
0.000510991
0.000477251
0.000459962
0.000430824
0.000418018
0.000403746
0.000393062
0.00038391
0.000370756
0.00035295
0.00033492
0.000317163
0.000301726
0.000288978
0.000278376
0.000269412
0.000262341
0.000256974
0.000252686
0.000248032
0.000241906
0.000233103
0.000222425
0.000211274
0.000201805
0.000197405
0.000199492
0.000215162
0.000234863
0.000244546
0.000238004
0.000220806
0.000200219
0.000178762
0.000158794
0.000142801
0.000133388
0.000126664
0.000117534
0.000106327
9.31334e-05
8.21822e-05
7.48027e-05
6.93968e-05
6.52581e-05
6.21676e-05
5.99132e-05
5.81908e-05
5.67402e-05
5.55048e-05
5.45806e-05
5.38907e-05
5.30917e-05
5.16592e-05
4.92011e-05
4.60578e-05
4.30276e-05
4.06427e-05
3.90501e-05
3.80004e-05
3.69157e-05
3.50785e-05
3.19864e-05
2.76727e-05
2.27618e-05
1.79893e-05
1.37506e-05
1.01715e-05
7.27622e-06
5.03508e-06
3.37736e-06
2.20459e-06
1.4096e-06
8.92158e-07
5.67957e-07
3.71637e-07
2.55772e-07
1.87698e-07
1.4666e-07
1.21013e-07
1.04408e-07
9.1835e-08
8.01059e-08
6.84447e-08
5.71664e-08
4.66595e-08
3.72369e-08
2.9081e-08
2.22453e-08
1.66806e-08
1.22696e-08
8.85764e-09
6.27826e-09
4.37012e-09
2.98764e-09
2.00606e-09
1.32283e-09
8.56524e-10
5.44492e-10
3.39714e-10
2.07974e-10
1.24884e-10
7.35444e-11
4.24404e-11
2.40049e-11
1.33008e-11
7.21748e-12
3.86389e-12
1.96016e-12
1.03028e-12
0.000822801
0.000817961
0.00036449
0.000410103
0.000584751
0.000994786
0.00137784
0.00175041
0.00256109
0.00360477
0.0044996
0.0054401
0.00692919
0.0100204
0.0145897
0.0184065
0.020808
0.0225817
0.023474
0.0232526
0.0219014
0.0188218
0.0142927
0.00926095
0.00561629
0.00360305
0.00267913
0.00208477
0.0017149
0.0017928
0.00389287
0.0045421
0.00438446
0.00214039
0.00103437
0.000635486
0.000502711
0.000462391
0.000448285
0.000495861
0.000523851
0.000532164
0.000531267
0.000533929
0.000536798
0.000550477
0.000579451
0.00062196
0.000679211
0.000752375
0.000851958
0.000986245
0.00115895
0.0013673
0.00158538
0.00179191
0.001969
0.00210393
0.00218958
0.00222121
0.00219447
0.00205998
0.00182091
0.00156139
0.00144594
0.00127765
0.00101542
0.000897641
0.000801837
0.000686377
0.000634
0.000566844
0.000532355
0.000484924
0.000455682
0.000423686
0.000400526
0.000383067
0.000366761
0.000349963
0.00033536
0.000322411
0.000314422
0.000312364
0.000315004
0.000322024
0.000329997
0.000337797
0.00034499
0.000350645
0.000353448
0.000349441
0.00033409
0.000305615
0.000264624
0.000219632
0.000190959
0.000176155
0.000170479
0.000173083
0.000186804
0.000196523
0.000194285
0.000179888
0.000161125
0.000141179
0.000123775
0.000114051
0.000112318
0.000109199
0.00010059
9.03837e-05
8.05657e-05
7.34549e-05
6.81138e-05
6.37699e-05
6.03971e-05
5.79933e-05
5.63418e-05
5.51033e-05
5.40387e-05
5.32267e-05
5.26523e-05
5.20315e-05
5.0909e-05
4.88634e-05
4.59117e-05
4.27175e-05
3.99434e-05
3.79535e-05
3.67703e-05
3.61061e-05
3.54183e-05
3.40444e-05
3.13568e-05
2.73307e-05
2.2495e-05
1.76805e-05
1.33634e-05
9.71528e-06
6.79429e-06
4.57661e-06
2.97672e-06
1.87622e-06
1.15191e-06
6.9439e-07
4.16376e-07
2.53533e-07
1.61242e-07
1.09988e-07
8.12156e-08
6.45509e-08
5.4692e-08
4.79823e-08
4.19579e-08
3.58797e-08
2.98858e-08
2.423e-08
1.91344e-08
1.47355e-08
1.10804e-08
8.14491e-09
5.85849e-09
4.12659e-09
2.84814e-09
1.92703e-09
1.27848e-09
8.31878e-10
5.30897e-10
3.32308e-10
2.03987e-10
1.22785e-10
7.24566e-11
4.19142e-11
2.37512e-11
1.31967e-11
7.16924e-12
3.8314e-12
1.99036e-12
1.01601e-12
0.000894727
0.000968517
0.000397717
0.000486195
0.000627959
0.00106319
0.00153703
0.00200425
0.0028582
0.0039345
0.00482503
0.00570407
0.00740623
0.0108632
0.0156662
0.0195039
0.0219322
0.0232007
0.0229904
0.0222145
0.0203581
0.0171016
0.0125663
0.00804343
0.00484139
0.00313782
0.00236475
0.0020635
0.0020249
0.00345382
0.00417192
0.00419372
0.00252465
0.00111876
0.000677921
0.000542715
0.000511678
0.000514116
0.000558939
0.000576727
0.000580761
0.00056472
0.000558504
0.000559725
0.000572874
0.000604897
0.00066425
0.000755472
0.000886979
0.00107609
0.00134935
0.00173069
0.00221988
0.00280822
0.00345206
0.00408557
0.00463701
0.00505744
0.00530427
0.00538555
0.00514567
0.00483179
0.0042736
0.00337978
0.002929
0.00257637
0.0019124
0.00147235
0.00121935
0.000917061
0.000734047
0.000630037
0.00056054
0.000509302
0.000475059
0.000444601
0.000418398
0.000394994
0.000375319
0.000360148
0.000348266
0.000337506
0.000332377
0.000330713
0.000334001
0.00034159
0.000350206
0.000359221
0.000368603
0.000378278
0.000387182
0.000392928
0.000393391
0.000388519
0.000377168
0.000352304
0.000298977
0.000229325
0.000175399
0.00014758
0.000131383
0.000123757
0.000130208
0.000146402
0.00015296
0.000145148
0.000126322
0.000108764
9.78024e-05
9.61889e-05
9.70456e-05
9.43775e-05
8.5877e-05
7.77413e-05
7.13862e-05
6.64134e-05
6.20527e-05
5.84011e-05
5.56986e-05
5.39569e-05
5.29523e-05
5.22098e-05
5.16489e-05
5.12359e-05
5.07192e-05
4.96929e-05
4.78266e-05
4.50938e-05
4.19977e-05
3.9148e-05
3.69606e-05
3.55384e-05
3.47391e-05
3.42623e-05
3.37123e-05
3.26313e-05
3.01743e-05
2.59949e-05
2.10391e-05
1.62051e-05
1.19447e-05
8.43324e-06
5.71223e-06
3.7213e-06
2.33851e-06
1.4222e-06
8.40474e-07
4.85615e-07
2.77286e-07
1.5942e-07
9.49621e-08
6.06125e-08
4.23611e-08
3.25251e-08
2.72314e-08
2.39693e-08
2.10801e-08
1.80479e-08
1.49676e-08
1.20214e-08
9.36436e-09
7.08862e-09
5.22403e-09
3.75399e-09
2.63377e-09
1.80592e-09
1.21117e-09
7.94982e-10
5.10929e-10
3.21631e-10
1.98354e-10
1.19857e-10
7.09625e-11
4.1168e-11
2.3396e-11
1.30293e-11
7.10383e-12
3.79735e-12
1.98654e-12
1.01944e-12
0.000967912
0.00113222
0.000482794
0.000565029
0.000646914
0.00109847
0.00161745
0.00214632
0.0030249
0.00406874
0.00495202
0.0057189
0.00687985
0.00925782
0.0132382
0.0165616
0.0183764
0.0192007
0.0193615
0.0179074
0.0153847
0.0118904
0.0079483
0.00495729
0.0033102
0.00260606
0.00236382
0.00233543
0.00328646
0.00388595
0.00395111
0.00287526
0.00127039
0.0007378
0.00058093
0.000545838
0.000548515
0.000598282
0.00061431
0.000616351
0.000606174
0.000597959
0.000605391
0.000622995
0.000665883
0.000748001
0.000883474
0.0010902
0.0013888
0.00181941
0.00243535
0.00334893
0.0045714
0.00608042
0.00780232
0.00958304
0.0111905
0.0121692
0.0125772
0.0126056
0.0115043
0.0102272
0.00909613
0.00733253
0.00585882
0.00508998
0.00401413
0.00323464
0.00261274
0.00198224
0.00137274
0.000942975
0.000690883
0.000549771
0.000478333
0.000439112
0.000414569
0.000396292
0.000380487
0.000366502
0.000352737
0.000337997
0.000323289
0.000310492
0.000300922
0.000295523
0.000293764
0.0002955
0.000301297
0.000311634
0.000325922
0.000341595
0.000355767
0.000367212
0.000376847
0.000381932
0.000377931
0.000359347
0.000303869
0.000214933
0.0001454
0.0001101
9.34107e-05
8.86244e-05
9.79081e-05
0.000119842
0.000124391
0.000113703
9.63769e-05
8.60028e-05
8.37569e-05
8.52473e-05
8.52631e-05
8.12037e-05
7.42891e-05
6.86704e-05
6.41132e-05
5.99396e-05
5.62049e-05
5.32683e-05
5.13234e-05
5.03952e-05
5.00114e-05
4.98019e-05
4.95907e-05
4.91766e-05
4.82552e-05
4.64246e-05
4.37836e-05
4.0784e-05
3.79643e-05
3.57226e-05
3.42064e-05
3.3332e-05
3.28759e-05
3.25348e-05
3.19842e-05
3.08433e-05
2.81288e-05
2.34973e-05
1.84001e-05
1.37012e-05
9.73427e-06
6.61526e-06
4.31289e-06
2.70605e-06
1.639e-06
9.61136e-07
5.47612e-07
3.04644e-07
1.66778e-07
9.11463e-08
5.11195e-08
3.07021e-08
2.0479e-08
1.53292e-08
1.27825e-08
1.13635e-08
1.00992e-08
8.66861e-09
7.14658e-09