/*--------------------------------*- C++ -*----------------------------------*\
  =========                 |
  \\      /  F ield         | OpenFOAM: The Open Source CFD Toolbox
   \\    /   O peration     | Website:  https://openfoam.org
    \\  /    A nd           | Version:  7
     \\/     M anipulation  |
\*---------------------------------------------------------------------------*/
FoamFile
{
    version     2.0;
    format      ascii;
    class       volScalarField;
    location    "0.056";
    object      k_0;
}
// * * * * * * * * * * * * * * * * * * * * * * * * * * * * * * * * * * * * * //

dimensions      [0 2 -2 0 0 0 0];

internalField   nonuniform List<scalar> 
12225
(
1.93192e-05
1.81498e-05
1.66116e-05
1.53684e-05
1.38178e-05
1.24976e-05
1.13929e-05
9.96404e-06
9.29425e-06
7.93863e-06
5.91211e-06
5.19825e-06
5.48766e-06
6.73978e-06
6.7444e-06
5.35225e-06
3.62697e-06
4.94441e-06
1.99795e-05
1.98835e-05
1.96584e-05
1.94096e-05
1.90389e-05
1.86912e-05
1.84303e-05
1.77059e-05
1.78107e-05
1.76789e-05
1.69899e-05
1.58694e-05
1.50427e-05
1.45931e-05
1.44146e-05
1.42353e-05
1.37501e-05
1.33129e-05
1.99987e-05
1.92331e-05
1.91796e-05
1.9202e-05
1.91921e-05
1.9142e-05
1.905e-05
1.88987e-05
1.8919e-05
1.89069e-05
1.88398e-05
1.86321e-05
1.82749e-05
1.79664e-05
1.77987e-05
1.76808e-05
1.7574e-05
1.72346e-05
2.01004e-05
1.974e-05
1.83809e-05
1.74885e-05
1.65882e-05
1.62076e-05
1.62125e-05
1.63616e-05
1.69592e-05
1.76337e-05
1.79186e-05
1.79565e-05
1.79198e-05
1.77331e-05
1.7516e-05
1.74176e-05
1.73644e-05
1.72083e-05
2.07487e-05
2.04394e-05
2.10727e-05
2.1199e-05
2.07464e-05
1.88845e-05
1.79883e-05
1.79941e-05
1.81232e-05
1.83513e-05
1.83913e-05
1.83213e-05
1.79237e-05
1.73722e-05
1.70785e-05
1.69114e-05
1.67606e-05
1.66309e-05
2.16321e-05
2.15053e-05
2.1811e-05
2.19566e-05
2.16292e-05
2.07031e-05
2.03181e-05
2.03187e-05
2.0679e-05
2.18878e-05
2.24595e-05
2.24988e-05
2.2378e-05
2.18836e-05
2.09387e-05
1.99518e-05
1.90117e-05
1.8109e-05
2.11604e-05
2.12587e-05
2.30797e-05
2.3455e-05
2.27923e-05
2.19165e-05
2.16781e-05
2.1641e-05
2.16839e-05
2.19533e-05
2.27872e-05
2.356e-05
2.39786e-05
2.41316e-05
2.41427e-05
2.40567e-05
2.3691e-05
2.25427e-05
2.02558e-05
2.18439e-05
2.32844e-05
2.35911e-05
2.36671e-05
2.41153e-05
2.51222e-05
2.52574e-05
2.4824e-05
2.33368e-05
2.26556e-05
2.25963e-05
2.26825e-05
2.30706e-05
2.34438e-05
2.35457e-05
2.35213e-05
2.32942e-05
2.10106e-05
2.10533e-05
2.44655e-05
2.53249e-05
2.59041e-05
2.82422e-05
2.98441e-05
2.95292e-05
2.67724e-05
2.35622e-05
2.19858e-05
2.12941e-05
2.10949e-05
2.10977e-05
2.12231e-05
2.17223e-05
2.29555e-05
2.38792e-05
2.01449e-05
2.11679e-05
2.24856e-05
2.32771e-05
2.49867e-05
2.66464e-05
2.69425e-05
2.67232e-05
2.5452e-05
2.32632e-05
2.20545e-05
2.1476e-05
2.12618e-05
2.12196e-05
2.12292e-05
2.13116e-05
2.16094e-05
2.24438e-05
2.05251e-05
2.24193e-05
2.27457e-05
2.2216e-05
2.20611e-05
2.25787e-05
2.32597e-05
2.32732e-05
2.30919e-05
2.3041e-05
2.33644e-05
2.38083e-05
2.3875e-05
2.37602e-05
2.31568e-05
2.25493e-05
2.23439e-05
2.23614e-05
2.0493e-05
2.12931e-05
2.12668e-05
2.07348e-05
2.04568e-05
2.04883e-05
2.09056e-05
2.26192e-05
2.40303e-05
2.43907e-05
2.44089e-05
2.4319e-05
2.38753e-05
2.30011e-05
2.23148e-05
2.20264e-05
2.17025e-05
2.15242e-05
2.13709e-05
2.16553e-05
2.14591e-05
2.08608e-05
2.07724e-05
2.08169e-05
2.10671e-05
2.21034e-05
2.42264e-05
2.50285e-05
2.50669e-05
2.49002e-05
2.42807e-05
2.36352e-05
2.31182e-05
2.26866e-05
2.2244e-05
2.18564e-05
2.01449e-05
2.27311e-05
2.62253e-05
2.62762e-05
2.44055e-05
2.22659e-05
2.18263e-05
2.19055e-05
2.23471e-05
2.26726e-05
2.27795e-05
2.27836e-05
2.27361e-05
2.26431e-05
2.25788e-05
2.25172e-05
2.24053e-05
2.21331e-05
2.1213e-05
2.34006e-05
2.37401e-05
2.27195e-05
2.22378e-05
2.28563e-05
2.30553e-05
2.27085e-05
2.22355e-05
2.21335e-05
2.2166e-05
2.24563e-05
2.31105e-05
2.34245e-05
2.34867e-05
2.34486e-05
2.31846e-05
2.27218e-05
2.05759e-05
2.07372e-05
2.1396e-05
2.1875e-05
2.1889e-05
2.16808e-05
2.11704e-05
2.09825e-05
2.09419e-05
2.09541e-05
2.10787e-05
2.16265e-05
2.23661e-05
2.2778e-05
2.29492e-05
2.2969e-05
2.28726e-05
2.24827e-05
2.11109e-05
2.06928e-05
2.05194e-05
2.05926e-05
2.05451e-05
2.04062e-05
2.03965e-05
2.03982e-05
2.04167e-05
2.05718e-05
2.08626e-05
2.10281e-05
2.10869e-05
2.11069e-05
2.11262e-05
2.11535e-05
2.12232e-05
2.13538e-05
2.05293e-05
2.0428e-05
2.04399e-05
2.04446e-05
2.03434e-05
2.01931e-05
2.01906e-05
2.0295e-05
2.05871e-05
2.07658e-05
2.08243e-05
2.08298e-05
2.08271e-05
2.08064e-05
2.07416e-05
2.07214e-05
2.07237e-05
2.07256e-05
2.01559e-05
2.03663e-05
2.05304e-05
2.05905e-05
2.05652e-05
2.0405e-05
2.02697e-05
2.02434e-05
2.02522e-05
2.03024e-05
2.04446e-05
2.063e-05
2.07728e-05
2.08206e-05
2.08159e-05
2.07521e-05
2.05784e-05
2.04685e-05
2.20022e-05
2.10168e-05
2.07397e-05
2.07331e-05
2.07019e-05
2.06894e-05
2.06516e-05
2.04808e-05
2.0297e-05
2.0214e-05
2.01928e-05
2.01959e-05
2.02336e-05
2.04399e-05
2.07988e-05
2.09074e-05
2.08926e-05
2.07766e-05
2.02262e-05
2.05505e-05
2.06662e-05
2.06428e-05
2.05472e-05
2.04568e-05
2.03542e-05
2.02767e-05
2.02367e-05
2.02247e-05
2.02248e-05
2.0235e-05
2.02836e-05
2.03843e-05
2.04421e-05
2.04472e-05
2.04294e-05
2.04235e-05
2.02132e-05
2.07943e-05
2.09608e-05
2.09858e-05
2.09462e-05
2.08428e-05
2.07451e-05
2.05198e-05
2.02424e-05
2.00942e-05
2.00411e-05
2.00328e-05
2.00354e-05
2.00524e-05
2.01243e-05
2.02146e-05
2.03117e-05
2.04046e-05
2.04578e-05
2.10673e-05
2.10374e-05
2.08255e-05
2.07552e-05
2.06123e-05
2.037e-05
2.02166e-05
2.01628e-05
2.01532e-05
2.01449e-05
2.01176e-05
2.01152e-05
2.01401e-05
2.02584e-05
2.04194e-05
2.05282e-05
2.05878e-05
2.02732e-05
2.08464e-05
2.08683e-05
2.06897e-05
2.04888e-05
2.05434e-05
2.08376e-05
2.1523e-05
2.18086e-05
2.18075e-05
2.16339e-05
2.10179e-05
2.06551e-05
2.05762e-05
2.05831e-05
2.06643e-05
2.07618e-05
2.08034e-05
2.02281e-05
2.05157e-05
2.05483e-05
2.0446e-05
2.02905e-05
2.03635e-05
2.10726e-05
2.18341e-05
2.19297e-05
2.17675e-05
2.11311e-05
2.07408e-05
2.06428e-05
2.06357e-05
2.06524e-05
2.06663e-05
2.06669e-05
2.06591e-05
2.08585e-05
2.11531e-05
2.07842e-05
2.02341e-05
2.01072e-05
2.01695e-05
2.0809e-05
2.25134e-05
2.31517e-05
2.31095e-05
2.23942e-05
2.12054e-05
2.06583e-05
2.04696e-05
2.04405e-05
2.04509e-05
2.04869e-05
2.04988e-05
2.01063e-05
2.011e-05
2.00493e-05
1.99469e-05
1.98315e-05
1.97956e-05
1.98388e-05
1.99012e-05
1.98586e-05
1.95551e-05
1.84483e-05
1.74737e-05
1.73528e-05
1.76265e-05
1.88188e-05
2.11042e-05
2.26643e-05
2.32026e-05
2.02249e-05
1.93947e-05
1.73815e-05
1.72755e-05
1.84684e-05
2.22536e-05
3.12749e-05
3.98166e-05
4.46314e-05
4.66905e-05
4.78809e-05
4.95086e-05
5.26586e-05
5.99505e-05
7.81361e-05
9.74662e-05
0.000111182
0.000117053
3.18461e-05
0.000120483
0.00015164
0.000187261
0.000265072
0.000421477
0.000530847
0.000560949
0.000560002
0.000550188
0.000545674
0.000547452
0.000558883
0.000605603
0.00067338
0.000713741
0.000730001
0.00073265
0.00250044
0.00253816
0.00254826
0.00258331
0.00267799
0.00271785
0.00271122
0.00263246
0.00239184
0.00218496
0.0020435
0.00192835
0.00180745
0.00167896
0.00155774
0.00146272
0.00140528
0.00136912
7.99013e-05
0.000280623
0.000467498
0.000641298
0.00082457
0.00084532
0.000770575
0.000630668
0.000568543
0.000524796
0.000498037
0.000475908
0.000457402
0.00044812
0.000444556
0.000440144
0.000427917
0.000414943
0.000391868
0.00036757
0.000372401
0.000389026
0.000430961
0.000472688
0.000524648
0.000566743
0.000556925
0.000506652
0.000499138
0.000600698
0.00118907
0.00214155
0.00251687
0.0027276
0.00318223
0.00495998
0.00929756
0.0113192
0.010648
0.0105915
0.0124255
0.0313732
0.0415497
0.0123229
0.00199062
0.00101455
0.00086675
0.000725098
0.00054586
0.000478911
0.000413486
0.000333962
0.00026819
0.00020689
0.00017613
0.000135916
0.000110607
8.99278e-05
7.76755e-05
7.00362e-05
6.64802e-05
6.54866e-05
6.35387e-05
6.1665e-05
6.03597e-05
5.95495e-05
5.87777e-05
5.80658e-05
5.7389e-05
5.66579e-05
5.59552e-05
5.53013e-05
5.47084e-05
5.41286e-05
5.34755e-05
5.27349e-05
5.19745e-05
5.12782e-05
5.06845e-05
5.02442e-05
5.00059e-05
4.98927e-05
4.96737e-05
4.9085e-05
4.81924e-05
4.73375e-05
4.67664e-05
4.63237e-05
4.54884e-05
4.40106e-05
4.23873e-05
4.12827e-05
4.03438e-05
3.85422e-05
3.69073e-05
3.57484e-05
3.40778e-05
3.26493e-05
3.11345e-05
2.96223e-05
2.80637e-05
2.64596e-05
2.47159e-05
2.28297e-05
2.08434e-05
1.87912e-05
1.67158e-05
1.46819e-05
1.27783e-05
1.1055e-05
9.46884e-06
8.0339e-06
6.7669e-06
5.66621e-06
4.71878e-06
3.90935e-06
3.22481e-06
2.65125e-06
2.17314e-06
1.77771e-06
1.45123e-06
1.18148e-06
9.60767e-07
7.80467e-07
6.33921e-07
5.15501e-07
4.20171e-07
3.43449e-07
2.81478e-07
2.31063e-07
1.89708e-07
1.55549e-07
1.27213e-07
1.03669e-07
8.41102e-08
6.78901e-08
5.44786e-08
4.34358e-08
3.43924e-08
2.70334e-08
2.10877e-08
1.63202e-08
1.25277e-08
9.53529e-09
7.1939e-09
5.3778e-09
3.98175e-09
2.91849e-09
2.11651e-09
1.5178e-09
1.07583e-09
7.53519e-10
5.21457e-10
3.56542e-10
2.40846e-10
1.60712e-10
1.0592e-10
6.89408e-11
4.43099e-11
2.81205e-11
1.76205e-11
1.09015e-11
6.6589e-12
4.01603e-12
2.39127e-12
1.40592e-12
8.15869e-13
4.67596e-13
2.64135e-13
1.47717e-13
8.08468e-14
4.4283e-14
2.34015e-14
1.26231e-14
5.62221e-15
2.27267e-14
1.73833e-13
9.60568e-11
5.67048e-08
3.20536e-07
0.000293172
0.00054698
0.000628377
0.000579164
0.000602666
0.000663717
0.000679458
0.000668396
0.000665419
0.000684603
0.000739313
0.000793411
0.00082205
0.000855972
0.000922062
0.000980923
0.000990419
0.000984058
0.000964852
0.000918094
0.000874557
0.000830197
0.000781511
0.000723032
0.000666195
0.000632193
0.000613305
0.000570798
0.000556566
0.000579075
0.000686393
0.000917385
0.00143379
0.00159797
0.00151704
0.00161871
0.00253188
0.0031365
0.00489452
0.012667
0.0158606
0.0162728
0.00941758
0.00265574
0.000967386
0.000616015
0.00047629
0.000336979
0.000269677
0.000235807
0.000216075
0.000200627
0.000193094
0.000188144
0.000185005
0.000180245
0.000173855
0.000171687
0.000170951
0.000170437
0.000168923
0.000165846
0.000162308
0.000159653
0.000157788
0.000155903
0.000154051
0.000152707
0.000151678
0.00015051
0.000148782
0.000146652
0.000144736
0.000143496
0.000142806
0.000141826
0.000139921
0.000137251
0.00013537
0.000134838
0.000134704
0.000134633
0.000134057
0.000132605
0.000130899
0.000129478
0.000128206
0.000126218
0.000122982
0.000118735
0.000114026
0.000109922
0.000105934
9.99159e-05
9.56533e-05
9.10941e-05
8.67991e-05
8.28827e-05
7.92215e-05
7.5805e-05
7.25402e-05
6.93509e-05
6.62522e-05
6.32383e-05
6.02901e-05
5.73561e-05
5.43504e-05
5.11481e-05
4.75933e-05
4.36726e-05
3.94799e-05
3.513e-05
3.08587e-05
2.69391e-05
2.34165e-05
2.02035e-05
1.72929e-05
1.4698e-05
1.24278e-05
1.04744e-05
8.81691e-06
7.42581e-06
6.26695e-06
5.31126e-06
4.52959e-06
3.89214e-06
3.36999e-06
2.93777e-06
2.57496e-06
2.26443e-06
1.99193e-06
1.74707e-06
1.52381e-06
1.31949e-06
1.13333e-06
9.65174e-07
8.14797e-07
6.81715e-07
5.65175e-07
4.64219e-07
3.77737e-07
3.04495e-07
2.43173e-07
1.92382e-07
1.5074e-07
1.16958e-07
8.98425e-08
6.83069e-08
5.13813e-08
3.82144e-08
2.80784e-08
2.03682e-08
1.45818e-08
1.03026e-08
7.18493e-09
4.94504e-09
3.35817e-09
2.24987e-09
1.4869e-09
9.69273e-10
6.23193e-10
3.95189e-10
2.47157e-10
1.52459e-10
9.27545e-11
5.56676e-11
3.2948e-11
1.92453e-11
1.10719e-11
6.30066e-12
3.51018e-12
1.95272e-12
1.04262e-12
5.80158e-13
2.552e-13
3.47726e-12
2.19433e-12
7.35866e-11
1.4402e-08
4.53856e-08
0.000265906
0.0013556
0.000944935
0.000508597
0.000407963
0.000412208
0.000454041
0.000530923
0.000650347
0.000916219
0.00114443
0.00134767
0.001507
0.00164746
0.0017862
0.00188077
0.00188544
0.00186989
0.00182048
0.0017579
0.00165046
0.00155008
0.00145589
0.00129806
0.00114008
0.000968205
0.000837862
0.000733466
0.000659171
0.000632363
0.000645827
0.000667975
0.000732699
0.00077543
0.000907166
0.00155658
0.00485315
0.0092192
0.00980002
0.0108935
0.00701052
0.00307913
0.00141062
0.000608484
0.000383282
0.000304491
0.000265883
0.000247834
0.000241812
0.000240605
0.000244792
0.00025764
0.000262561
0.000264576
0.000264597
0.000257898
0.000238396
0.000227087
0.000225066
0.000224972
0.000226253
0.00022947
0.0002339
0.000237161
0.000238476
0.00023893
0.000238956
0.000238584
0.000238368
0.000236626
0.000233819
0.000232736
0.000232401
0.000232254
0.000232097
0.000231662
0.0002305
0.000229088
0.000228971
0.000230122
0.000232784
0.000235923
0.000238774
0.000240639
0.000241388
0.000241241
0.000239167
0.000235695
0.00023012
0.000222678
0.000213412
0.000202312
0.000189949
0.000175285
0.000160903
0.00014637
0.000134043
0.000123001
0.00011307
0.00010431
9.67717e-05
9.03801e-05
8.50067e-05
8.04767e-05
7.65881e-05
7.31638e-05
7.00244e-05
6.70565e-05
6.42274e-05
6.1472e-05
5.87345e-05
5.58327e-05
5.26253e-05
4.90132e-05
4.50747e-05
4.09344e-05
3.66217e-05
3.22077e-05
2.784e-05
2.3697e-05
1.9935e-05
1.66225e-05
1.37063e-05
1.11808e-05
9.06042e-06
7.33703e-06
5.97467e-06
4.91965e-06
4.11103e-06
3.49072e-06
3.00971e-06
2.62927e-06
2.32006e-06
2.06088e-06
1.8371e-06
1.63875e-06
1.45909e-06
1.29386e-06
1.1406e-06
9.98061e-07
8.6576e-07
7.43788e-07
6.32517e-07
5.32313e-07
4.43316e-07
3.65309e-07
2.97794e-07
2.40084e-07
1.91362e-07
1.5074e-07
1.17304e-07
9.01373e-08
6.83566e-08
5.11346e-08
3.77132e-08
2.74126e-08
1.9631e-08
1.3847e-08
9.61834e-09
6.57837e-09
4.42963e-09
2.93647e-09
1.91614e-09
1.23072e-09
7.78033e-10
4.84288e-10
2.9675e-10
1.79209e-10
1.0633e-10
6.25065e-11
3.55882e-11
2.06959e-11
1.10363e-11
6.37856e-12
3.0011e-12
3.78648e-12
3.32684e-11
3.17702e-11
8.91424e-10
3.24729e-09
0.000194879
0.00155461
0.000894615
0.000428923
0.000355117
0.000368962
0.000432977
0.000584353
0.000912398
0.00130482
0.00161139
0.00180901
0.00211
0.00225401
0.00241999
0.00253399
0.00257106
0.00256942
0.00254935
0.00249983
0.00240948
0.00227634
0.0021269
0.00197077
0.00172513
0.00151012
0.00137741
0.00121585
0.000984459
0.000791971
0.00069631
0.000679575
0.000692418
0.000823419
0.00230844
0.00707231
0.0080062
0.00824927
0.00615892
0.00366979
0.0015759
0.000730604
0.000419165
0.000311618
0.000285432
0.000279044
0.000278051
0.000293005
0.000342269
0.000408474
0.000448543
0.000466375
0.000473109
0.000474743
0.000472598
0.00045998
0.000440086
0.000417436
0.000395133
0.000377043
0.000364795
0.000356729
0.000350297
0.000345248
0.000340305
0.000334832
0.000331618
0.000329096
0.000324852
0.000319206
0.000317277
0.000316908
0.000316949
0.000317405
0.00031861
0.000320657
0.000323396
0.000326772
0.000331078
0.000335967
0.00033906
0.000340075
0.000340144
0.000339167
0.000336689
0.000332691
0.000327773
0.000323034
0.000318655
0.000314275
0.000308907
0.000302517
0.000295149
0.000285516
0.00027302
0.000256329
0.0002352
0.000211902
0.0001886
0.000166344
0.000145973
0.000127783
0.000112291
0.00010019
9.0725e-05
8.35796e-05
7.8361e-05
7.44363e-05
7.1303e-05
6.86097e-05
6.61712e-05
6.39894e-05
6.19875e-05
6.00758e-05
5.81985e-05
5.62823e-05
5.41704e-05
5.16247e-05
4.84979e-05
4.48009e-05
4.05772e-05
3.58486e-05
3.07389e-05
2.54616e-05
2.03631e-05
1.58147e-05
1.20007e-05
8.96429e-06
6.67911e-06
5.03249e-06
3.87146e-06
3.0554e-06
2.4776e-06
2.0628e-06
1.75859e-06
1.52858e-06
1.34779e-06
1.19925e-06
1.07188e-06
9.58837e-07
8.56133e-07
7.61301e-07
6.72796e-07
5.89715e-07
5.11814e-07
4.39396e-07
3.72961e-07
3.12918e-07
2.59478e-07
2.12629e-07
1.72159e-07
1.37692e-07
1.08743e-07
8.47627e-08
6.51894e-08
4.94522e-08
3.69863e-08
2.72599e-08
1.97881e-08
1.41403e-08
9.9423e-09
6.87611e-09
4.67653e-09
3.12747e-09
2.05653e-09
1.32989e-09
8.45674e-10
5.28844e-10
3.25179e-10
1.96613e-10
1.16881e-10
6.82376e-11
3.93203e-11
2.18611e-11
1.27125e-11
5.66932e-12
5.94482e-12
5.10108e-12
3.30297e-11
1.79799e-10
0.000468568
0.000963774
0.000561378
0.000353099
0.000343597
0.000392712
0.000569869
0.000919548
0.00141766
0.00176236
0.00199266
0.00217004
0.00247102
0.00258448
0.00280151
0.00306364
0.0032449
0.00357442
0.00360672
0.00357258
0.00347408
0.00326961
0.00292634
0.00255634
0.00214312
0.00180832
0.00157517
0.00146447
0.00126949
0.00111209
0.000881155
0.000735037
0.000834029
0.00314416
0.00661046
0.00710564
0.00657232
0.00395724
0.001881
0.000965291
0.000505485
0.000343797
0.000299015
0.000291197
0.000295248
0.000313291
0.00035698
0.000437717
0.00050396
0.000542581
0.00055714
0.00056088
0.000560797
0.000553377
0.000538131
0.000522783
0.000508437
0.000492225
0.000474124
0.000455918
0.000437347
0.000415904
0.000396747
0.000379284
0.000364924
0.000356042
0.000351497
0.000348101
0.000343321
0.000339687
0.000338659
0.000338488
0.000338718
0.00033998
0.000342776
0.000346861
0.000351559
0.000357079
0.000363116
0.000364749
0.000364382
0.000362425
0.000358915
0.000354277
0.000348645
0.000342224
0.000335455
0.000329273
0.000324804
0.000321722
0.000318561
0.000315592
0.000313045
0.000309515
0.00030519
0.000298407
0.000288313
0.00027403
0.000255871
0.000234816
0.000212766
0.000190765
0.000168808
0.000146456
0.000125039
0.00010636
9.2647e-05
8.35664e-05
7.73177e-05
7.28628e-05
6.9517e-05
6.6888e-05
6.47209e-05
6.28157e-05
6.10515e-05
5.94217e-05
5.79481e-05
5.65198e-05
5.48201e-05
5.25833e-05
4.98824e-05
4.70281e-05
4.41399e-05
4.10239e-05
3.72729e-05
3.25854e-05
2.72317e-05
2.18639e-05
1.70549e-05
1.30298e-05
9.8028e-06
7.30419e-06
5.42092e-06
4.03149e-06
3.02464e-06
2.30588e-06
1.79845e-06
1.442e-06
1.19027e-06
1.00873e-06
8.72637e-07
7.65549e-07
6.76871e-07
5.99072e-07
5.27009e-07
4.58156e-07
3.93323e-07
3.33415e-07
2.79079e-07
2.30695e-07
1.88367e-07
1.51954e-07
1.21128e-07
9.54197e-08
7.42631e-08
5.70707e-08
4.32886e-08
3.23954e-08
2.39094e-08
1.73957e-08
1.24712e-08
8.80636e-09
6.12278e-09
4.19028e-09
2.82187e-09
1.86934e-09
1.21795e-09
7.80343e-10
4.9155e-10
3.04261e-10
1.85135e-10
1.10503e-10
6.50057e-11
3.71891e-11
2.14274e-11
1.12935e-11
6.9995e-12
3.22249e-12
4.03304e-12
1.10168e-11
0.000478007
0.00061275
0.00041852
0.00033633
0.000368024
0.000513872
0.000906301
0.00132596
0.00164922
0.00191516
0.0020968
0.00247585
0.00306283
0.00345159
0.00432755
0.00524898
0.00614736
0.0074146
0.00756963
0.00734669
0.00673357
0.00572627
0.00464255
0.00373022
0.00298642
0.0025029
0.00209944
0.00172268
0.00158758
0.00137975
0.000929232
0.000890021
0.00285074
0.0057748
0.00627721
0.00539982
0.00270507
0.00132379
0.000676846
0.000424714
0.00033186
0.000307673
0.000303874
0.000317302
0.000352591
0.000413803
0.000475848
0.000518697
0.000567353
0.000588501
0.000593654
0.000593445
0.000585074
0.000568875
0.000553228
0.00053997
0.00053281
0.000526565
0.00051973
0.000510711
0.000496469
0.000480193
0.000463629
0.000444038
0.000420138
0.00039614
0.000374953
0.000366001
0.000360731
0.000357114
0.0003558
0.000355621
0.000356256
0.000359129
0.000365229
0.000373316
0.000377379
0.00037782
0.000376173
0.000372588
0.000368175
0.000362709
0.000354843
0.000343408
0.000328872
0.000312977
0.000297765
0.000284926
0.000277769
0.000274977
0.000274514
0.000277319
0.000283647
0.00029188
0.000297957
0.00029878
0.000294466
0.000285073
0.000271786
0.000254183
0.000233515
0.000212141
0.000192054
0.000173948
0.000157088
0.000140093
0.000121193
0.000102596
8.90785e-05
8.03832e-05
7.44054e-05
7.0064e-05
6.68176e-05
6.43387e-05
6.23446e-05
6.06045e-05
5.90292e-05
5.76717e-05
5.65324e-05
5.53322e-05
5.36244e-05
5.12006e-05
4.8436e-05
4.58026e-05
4.34766e-05
4.13274e-05
3.88123e-05
3.5291e-05
3.05842e-05
2.5242e-05
2.00342e-05
1.54649e-05
1.1676e-05
8.65268e-06
6.30737e-06
4.53389e-06
3.22892e-06
2.29538e-06
1.64545e-06
1.20378e-06
9.08932e-07
7.12954e-07
5.80454e-07
4.87948e-07
4.21075e-07
3.70667e-07
3.28424e-07
2.88928e-07
2.50252e-07
2.13192e-07
1.78639e-07
1.47272e-07
1.19498e-07
9.5471e-08
7.51384e-08
5.82792e-08
4.45577e-08
3.35828e-08
2.49496e-08
1.82679e-08
1.31791e-08
9.36529e-09
6.55316e-09
4.5135e-09
3.05884e-09
2.0389e-09
1.33614e-09
8.60298e-10
5.44239e-10
3.37872e-10
2.06201e-10
1.2306e-10
7.26885e-11
4.12458e-11
2.4079e-11
1.22934e-11
8.28202e-12
3.78573e-12
4.28139e-12
4.27386e-12
0.000543861
0.000592635
0.000380353
0.000350918
0.000427131
0.000691338
0.00117733
0.00147191
0.00173491
0.00204305
0.00265266
0.0037152
0.00458917
0.00555801
0.00782179
0.0102623
0.0123803
0.0148458
0.0153583
0.0150726
0.0141034
0.0118213
0.00811673
0.00541903
0.00374016
0.00284471
0.00235277
0.00211023
0.00181858
0.00133662
0.00100865
0.00233512
0.0050668
0.00553584
0.00459993
0.00217615
0.00108197
0.000602345
0.000415416
0.000356393
0.000338664
0.000336172
0.000364979
0.00041433
0.000455335
0.00049234
0.000524903
0.000548
0.000578948
0.000597691
0.000602836
0.000604363
0.000605067
0.000605061
0.000605477
0.000613303
0.000628834
0.000645531
0.000653526
0.000656213
0.000652592
0.000629192
0.000606233
0.000585648
0.000559596
0.000521535
0.000478135
0.000451642
0.000427183
0.000414973
0.000402267
0.000397941
0.000396604
0.000396247
0.00039769
0.000395504
0.000390843
0.00038602
0.000379135
0.000369361
0.000355092
0.000337471
0.000318253
0.000299804
0.000283364
0.000268712
0.000255558
0.000244271
0.000235534
0.000229261
0.00022458
0.000221798
0.000220685
0.000223199
0.000234104
0.000252273
0.000270881
0.000277341
0.000272239
0.000258661
0.000240073
0.000218974
0.000197353
0.000177523
0.000161308
0.000148389
0.000136197
0.00012331
0.000107591
9.23568e-05
8.19452e-05
7.50001e-05
6.99774e-05
6.62232e-05
6.34366e-05
6.13216e-05
5.9567e-05
5.80066e-05
5.66928e-05
5.56975e-05
5.48351e-05
5.36607e-05
5.16584e-05
4.88423e-05
4.58817e-05
4.33465e-05
4.14208e-05
3.99098e-05
3.8242e-05
3.56854e-05
3.1847e-05
2.70009e-05
2.18897e-05
1.71566e-05
1.30796e-05
9.71647e-06
7.03297e-06
4.96186e-06
3.42093e-06
2.31694e-06
1.55484e-06
1.04716e-06
7.19806e-07
5.14123e-07
3.86142e-07
3.05027e-07
2.51638e-07
2.15292e-07
1.88889e-07
1.66452e-07
1.44739e-07
1.23515e-07
1.03362e-07
8.48278e-08
6.83074e-08
5.40043e-08
4.19463e-08
3.20255e-08
2.40445e-08
1.77572e-08
1.29014e-08
9.22179e-09
6.48455e-09
4.48496e-09
3.05043e-09
2.03965e-09
1.3404e-09
8.65341e-10
5.48719e-10
3.41485e-10
2.0863e-10
1.24986e-10
7.35046e-11
4.2269e-11
2.39555e-11
1.31586e-11
7.31028e-12
3.78355e-12
1.96997e-12
1.41909e-12
0.000738218
0.00072798
0.000366565
0.00036166
0.000491876
0.000894438
0.00129663
0.00152845
0.00195927
0.00286104
0.00392788
0.00490108
0.00592744
0.00808562
0.0119326
0.0156357
0.0179907
0.0201829
0.020815
0.020616
0.0198919
0.0182741
0.0144172
0.00934485
0.0056798
0.00366531
0.002733
0.00222148
0.00174594
0.00131972
0.00188264
0.00445475
0.00500444
0.00446647
0.00203348
0.00101097
0.000606299
0.000455785
0.000404763
0.000386269
0.000416268
0.000446326
0.000475405
0.000493979
0.00051146
0.000525706
0.000542657
0.000567409
0.000599773
0.000630163
0.000658387
0.000691062
0.000735229
0.000791943
0.000852401
0.000916625
0.00098087
0.00103602
0.00107237
0.00108975
0.00109314
0.00104563
0.000971983
0.000921171
0.000879643
0.000793872
0.000706313
0.000663342
0.000594664
0.000560127
0.000511155
0.000477246
0.000460019
0.000430938
0.000418113
0.000403903
0.000393217
0.00038412
0.000371073
0.000353284
0.000335194
0.000317383
0.000301864
0.000289021
0.000278316
0.000269173
0.000261876
0.000256303
0.000251849
0.000247086
0.000240913
0.000232191
0.000221734
0.000210685
0.000201412
0.000197271
0.000199722
0.000216011
0.000235819
0.000245099
0.000238185
0.000220776
0.000200076
0.000178562
0.0001586
0.0001427
0.000133386
0.000126621
0.000117428
0.000106145
9.29219e-05
8.20334e-05
7.47e-05
6.93216e-05
6.52025e-05
6.21277e-05
5.98846e-05
5.81689e-05
5.67216e-05
5.54899e-05
5.45697e-05
5.38806e-05
5.3076e-05
5.16306e-05
4.91582e-05
4.60112e-05
4.29875e-05
4.06136e-05
3.90311e-05
3.79854e-05
3.68954e-05
3.50439e-05
3.19337e-05
2.76063e-05
2.26923e-05
1.79249e-05
1.36946e-05
1.01248e-05
7.23903e-06
5.00677e-06
3.35679e-06
2.1903e-06
1.40009e-06
8.86076e-07
5.64213e-07
3.69408e-07
2.54474e-07
1.86936e-07
1.46201e-07
1.20734e-07
1.04227e-07
9.16854e-08
7.9957e-08
6.82967e-08
5.70243e-08
4.65286e-08
3.71208e-08
2.89817e-08
2.2163e-08
1.66144e-08
1.22177e-08
8.81796e-09
6.2486e-09
4.34842e-09
2.9721e-09
1.99515e-09
1.31533e-09
8.51467e-10
5.41149e-10
3.37548e-10
2.06599e-10
1.24028e-10
7.30226e-11
4.21289e-11
2.38228e-11
1.31966e-11
7.15924e-12
3.83174e-12
1.9429e-12
1.02139e-12
0.000822318
0.000815966
0.00036278
0.000408988
0.000584508
0.000995038
0.00137753
0.00175031
0.00256125
0.00360447
0.00450055
0.00544457
0.00693955
0.0100417
0.0146134
0.0184233
0.0208173
0.0225887
0.0234718
0.0232439
0.0218779
0.0187869
0.014252
0.0092309
0.0056004
0.00359653
0.00267645
0.00208281
0.00171443
0.00180173
0.0039058
0.00454473
0.0043786
0.00212955
0.00103071
0.000634514
0.000502983
0.000463486
0.000449987
0.000497751
0.000525391
0.000533498
0.000532063
0.000534431
0.000537095
0.000550611
0.000579514
0.000622118
0.000679576
0.000753041
0.000853095
0.000988025
0.00116132
0.00137044
0.00158938
0.00179632
0.00197311
0.00210671
0.00219138
0.00222261
0.0021945
0.00206082
0.00182266
0.00155977
0.00144304
0.00127745
0.0010153
0.000896784
0.000801678
0.00068644
0.000634152
0.000567072
0.000532639
0.000485225
0.000455863
0.000423869
0.000400667
0.000383221
0.000366945
0.000350117
0.000335449
0.000322396
0.000314244
0.000312063
0.000314585
0.000321534
0.000329472
0.000337231
0.000344362
0.000349911
0.000352564
0.00034829
0.000332575
0.000303836
0.00026259
0.000217996
0.000190151
0.000175773
0.000170437
0.000173727
0.000187814
0.00019731
0.000194594
0.000179834
0.000160945
0.000140924
0.000123591
0.000114059
0.000112387
0.000109173
0.000100457
9.02122e-05
8.0418e-05
7.33541e-05
6.80364e-05
6.37093e-05
6.03531e-05
5.79636e-05
5.63224e-05
5.50879e-05
5.40263e-05
5.32178e-05
5.26445e-05
5.20193e-05
5.0886e-05
4.88257e-05
4.58651e-05
4.2673e-05
3.99084e-05
3.79304e-05
3.67571e-05
3.60966e-05
3.5404e-05
3.40162e-05
3.13092e-05
2.72665e-05
2.24251e-05
1.76148e-05
1.33058e-05
9.66764e-06
6.75693e-06
4.54885e-06
2.9571e-06
1.86298e-06
1.14336e-06
6.89085e-07
4.13211e-07
2.51713e-07
1.60229e-07
1.09429e-07
8.0902e-08
6.43736e-08
5.459e-08
4.7906e-08
4.18825e-08
3.58028e-08
2.98104e-08
2.41598e-08
1.9072e-08
1.46824e-08
1.10368e-08
8.11042e-09
5.83198e-09
4.10676e-09
2.83369e-09
1.91674e-09
1.27134e-09
8.27018e-10
5.27663e-10
3.30202e-10
2.02644e-10
1.21947e-10
7.19441e-11
4.16074e-11
2.35714e-11
1.30936e-11
7.11137e-12
3.79958e-12
1.97321e-12
1.00699e-12
0.000894255
0.000965873
0.000396006
0.000484974
0.0006277
0.00106335
0.00153604
0.00200249
0.00285708
0.00393348
0.00482374
0.00570759
0.00741611
0.0108815
0.015686
0.019518
0.0219378
0.0231963
0.0229796
0.0221969
0.0203285
0.0170647
0.0125274
0.00801571
0.00482447
0.00313101
0.00236277
0.00206381
0.00203175
0.00346878
0.00417478
0.00419179
0.00250804
0.00111464
0.000676869
0.00054285
0.00051214
0.000515713
0.000560604
0.00057802
0.000581947
0.000565698
0.000559275
0.000560398
0.00057353
0.000605564
0.000665047
0.000756683
0.000888837
0.00107876
0.00135287
0.00173555
0.00222637
0.00281652
0.00346234
0.00409729
0.00464871
0.00506536
0.00530943
0.00538958
0.00514459
0.00482889
0.00427535
0.00337885
0.0029208
0.00257136
0.0019111
0.00146805
0.00121563
0.00091511
0.000732878
0.000629587
0.000560651
0.000509541
0.000475364
0.00044492
0.000418657
0.000395167
0.000375399
0.000360175
0.000348288
0.000337562
0.000332445
0.000330813
0.000334165
0.000341835
0.000350533
0.000359615
0.000369038
0.000378722
0.000387598
0.000393278
0.000393649
0.000388644
0.000377078
0.000351226
0.000296731
0.000226893
0.000174197
0.000146967
0.000131189
0.000124041
0.000131126
0.000147244
0.000153338
0.000145048
0.000126072
0.000108533
9.77379e-05
9.62734e-05
9.71025e-05
9.43196e-05
8.5737e-05
7.76162e-05
7.12936e-05
6.63379e-05
6.19887e-05
5.83516e-05
5.56649e-05
5.39386e-05
5.2942e-05
5.22021e-05
5.16434e-05
5.12302e-05
5.07085e-05
4.96717e-05
4.77919e-05
4.50497e-05
4.19531e-05
3.91108e-05
3.69343e-05
3.55223e-05
3.47301e-05
3.42552e-05
3.37011e-05
3.26088e-05
3.01253e-05
2.59282e-05
2.09677e-05
1.61392e-05
1.18883e-05
8.38792e-06
5.67797e-06
3.6968e-06
2.32185e-06
1.41137e-06
8.33722e-07
4.81568e-07
2.74952e-07
1.58124e-07
9.42656e-08
6.0246e-08
4.21675e-08
3.24239e-08
2.71796e-08
2.39337e-08
2.1044e-08
1.80094e-08
1.49289e-08
1.1985e-08
9.33209e-09
7.06144e-09
5.20211e-09
3.73696e-09
2.62098e-09
1.79661e-09
1.20457e-09
7.90428e-10
5.07864e-10
3.19616e-10
1.97059e-10
1.19044e-10
7.04633e-11
4.0868e-11
2.32196e-11
1.29278e-11
7.04667e-12
3.76585e-12
1.96955e-12
1.01045e-12
0.000967549
0.00112937
0.000480738
0.000563597
0.00064653
0.00109838
0.00161605
0.00214327
0.00302111
0.00406696
0.00494994
0.00571527
0.00687637
0.0092558
0.0132424
0.0165636
0.0183737
0.0191908
0.0193426
0.0178792
0.0153494
0.0118528
0.00791709
0.00493889
0.00330446
0.00260561
0.00236441
0.00234192
0.00330033
0.0038893
0.00395014
0.00285849
0.00126368
0.000736224
0.00058071
0.000545981
0.000549078
0.000599186
0.000615266
0.000617293
0.000607266
0.000599071
0.000606547
0.000624241
0.000667382
0.000749843
0.000885869
0.00109355
0.00139362
0.00182641
0.00244504
0.00336079
0.0045881
0.00610121
0.00782687
0.00961034
0.0112189
0.0121945
0.0125988
0.0126164
0.0115128
0.0102221
0.00909417
0.00733425
0.00585167
0.00508322
0.00401169
0.00322947
0.00260678
0.00197465
0.00136465
0.000938603
0.000688351
0.00054873
0.000478106
0.000439187
0.000414741
0.000396483
0.000380612
0.000366549
0.000352746
0.000338059
0.000323549
0.000310996
0.00030174
0.0002967
0.000295307
0.000297328
0.000303388
0.000313931
0.000328326
0.000343941
0.000357797
0.000368874
0.000378142
0.000382778
0.000378145
0.000358688
0.000301211
0.000212029
0.000143913
0.00010945
9.32118e-05
8.87756e-05
9.86952e-05
0.00012049
0.000124558
0.000113454
9.61513e-05
8.59161e-05
8.38076e-05
8.53188e-05
8.52826e-05
8.10978e-05
7.41836e-05
6.85837e-05
6.4042e-05
5.98759e-05
5.61521e-05
5.32304e-05
5.13028e-05
5.03887e-05
5.00096e-05
4.98009e-05
4.95877e-05
4.91682e-05
4.82342e-05
4.63905e-05
4.37405e-05
4.07402e-05
3.79266e-05
3.5695e-05
3.4189e-05
3.33225e-05
3.28704e-05
3.25286e-05
3.19728e-05
3.08194e-05
2.80734e-05
2.34257e-05
1.8329e-05
1.36383e-05
9.68278e-06
6.57589e-06
4.28454e-06
2.68671e-06
1.62641e-06
9.53282e-07
5.42901e-07
3.01921e-07
1.65258e-07
9.03274e-08
5.06949e-08
3.04892e-08
2.03732e-08
1.52777e-08
1.2759e-08
1.13488e-08
1.00833e-08
8.65022e-09
7.12743e-09
5.65151e-09