/*--------------------------------*- C++ -*----------------------------------*\
  =========                 |
  \\      /  F ield         | OpenFOAM: The Open Source CFD Toolbox
   \\    /   O peration     | Website:  https://openfoam.org
    \\  /    A nd           | Version:  7
     \\/     M anipulation  |
\*---------------------------------------------------------------------------*/
FoamFile
{
    version     2.0;
    format      ascii;
    class       volScalarField;
    location    "0.056";
    object      nut;
}
// * * * * * * * * * * * * * * * * * * * * * * * * * * * * * * * * * * * * * //

dimensions      [0 2 -1 0 0 0 0];

internalField   nonuniform List<scalar> 
12225
(
0
0
0
0
0
0
0
0
0
8.13686e-12
0
0
0
0
0
0
0
0
0
0
0
0
0
1.20857e-11
0
0
8.78354e-11
7.8793e-11
0
0
0
0
0
0
0
0
0
5.01438e-10
2.44119e-10
5.8447e-10
1.09449e-09
6.77839e-10
0
0
1.48841e-10
3.66259e-11
0
0
0
0
0
0
0
0
1.5105e-08
1.66031e-08
9.07873e-09
4.33425e-09
1.93997e-09
0
0
0
0
0
0
0
0
0
0
3.56164e-10
2.55066e-10
0
1.88652e-07
9.07819e-08
1.20665e-07
0
0
0
0
0
0
0
0
6.15355e-10
7.48924e-10
1.95689e-10
0
0
0
0
2.3252e-08
2.07687e-07
4.81322e-07
3.92732e-07
5.35879e-08
0
0
0
0
1.46106e-08
9.1294e-09
0
0
0
0
0
0
0
3.9197e-08
1.71869e-07
7.46919e-07
5.51766e-07
9.80308e-08
0
0
0
0
2.49837e-08
3.99838e-08
1.11319e-08
1.32665e-08
2.24097e-08
2.82044e-08
2.70766e-08
2.03972e-08
7.95493e-09
2.74062e-07
4.54664e-07
7.78095e-07
4.2525e-07
2.02739e-07
6.47292e-09
0
6.37631e-08
2.12233e-07
0
0
0
1.86594e-08
4.35648e-08
5.69313e-08
5.70514e-08
4.48321e-08
2.50533e-08
6.34512e-07
4.70466e-07
4.2593e-07
2.31415e-07
2.0774e-07
1.25076e-07
3.39854e-07
6.36994e-07
5.12857e-07
0
0
0
0
2.26551e-08
8.39598e-08
1.01403e-07
9.35785e-08
7.34642e-08
5.90056e-07
0
3.5024e-07
8.65069e-08
7.99273e-08
1.81352e-07
3.68913e-07
3.4558e-07
2.51474e-07
6.85089e-08
0
0
0
0
0
0
5.06524e-08
5.05804e-08
0
0
5.105e-07
1.17163e-07
4.04269e-09
1.44645e-07
1.6826e-07
1.32173e-07
1.20608e-07
8.54806e-08
0
0
0
0
0
0
0
0
2.75802e-07
2.40191e-07
2.52582e-07
0
1.95132e-07
0
0
3.50013e-08
7.08607e-08
6.72912e-08
9.70933e-09
0
0
0
0
0
0
0
4.93348e-07
5.39438e-07
3.73583e-07
1.03996e-07
2.62625e-07
0
0
7.95206e-08
1.56766e-07
1.01387e-07
2.68937e-08
0
0
0
0
0
0
0
4.01592e-07
6.42885e-07
7.16555e-07
3.61506e-07
5.35325e-07
1.34378e-06
6.62502e-07
8.69532e-08
2.0949e-07
7.07844e-08
0
0
0
0
0
0
0
0
4.30624e-08
2.9273e-08
7.43567e-07
6.45329e-07
9.05785e-07
1.59025e-06
1.07515e-06
0
0
0
0
0
0
0
1.82293e-08
1.0488e-07
1.24283e-07
1.73314e-07
3.67216e-07
2.53909e-07
3.54458e-07
3.90762e-07
4.0679e-07
4.89545e-07
3.18651e-07
0
0
0
0
0
0
0
7.83141e-09
2.22085e-07
3.57052e-07
5.09568e-07
4.43033e-07
3.48592e-07
1.39559e-07
1.17547e-07
1.46207e-08
0
1.29279e-07
2.63436e-07
1.0562e-07
0
0
0
0
0
4.06766e-08
2.08301e-07
2.83634e-07
3.67319e-07
4.12876e-07
1.76646e-07
0
0
0
0
1.69897e-09
2.64117e-07
2.86623e-07
2.16207e-07
1.42647e-07
1.0662e-07
1.16658e-07
1.24239e-07
1.15827e-07
1.30598e-07
1.62065e-07
1.75464e-07
1.3273e-06
1.22625e-06
3.10371e-08
0
0
0
2.35824e-07
1.06053e-07
0
0
0
0
9.22767e-08
1.90096e-07
2.15532e-07
1.68409e-07
9.30596e-08
3.90269e-08
1.30523e-06
1.05997e-06
3.58773e-07
2.0121e-07
1.02203e-07
1.78858e-07
2.16375e-07
3.09513e-08
0
0
0
0
0
0
8.37446e-08
1.53135e-07
1.64922e-07
1.21173e-07
2.72537e-07
6.25872e-08
1.13059e-07
1.32741e-07
1.01237e-07
1.20315e-07
4.80726e-08
0
0
0
0
0
0
0
1.11187e-07
1.55508e-07
5.73564e-08
0
0
2.23902e-07
2.59065e-07
1.80869e-07
3.32902e-07
5.03123e-07
4.70216e-07
2.50413e-07
1.26738e-08
0
0
0
0
0
4.01057e-08
4.1401e-08
0
0
0
0
0
0
2.89448e-07
6.69585e-07
6.95631e-07
4.82118e-07
2.45499e-07
1.00706e-07
4.54126e-08
1.66363e-08
0
0
0
0
0
0
0
0
0
0
0
2.4976e-07
3.90531e-07
3.35035e-07
2.28604e-07
1.41244e-07
8.70346e-08
4.39744e-08
0
0
0
0
0
0
2.22477e-07
0
0
0
0
0
1.0872e-07
1.5282e-07
1.35914e-07
9.91616e-08
4.90172e-08
0
0
0
0
0
0
0
2.33183e-07
0
0
0
0
0
0
7.91575e-08
1.22454e-07
1.23047e-07
7.86218e-08
0
0
0
0
0
0
0
0
0
0
0
0
0
0
0
0
0
0
0
0
0
0
0
0
0
4.48598e-09
0
0
0
0
0
0
0
0
0
0
0
0
0
0
0
0
0
5.47869e-09
0
0
0
0
0
0
0
0
0
0
0
0
0
0
0
0
0
4.2406e-08
0
0
0
0
0
0
0
0
0
0
0
0
0
0
0
0
0
0
0
0
1.08952e-07
4.03297e-07
3.67804e-07
1.60513e-07
0
0
0
0
0
0
0
0
0
0
0
0
6.01835e-09
2.84551e-08
4.72553e-08
6.2556e-08
7.07423e-08
6.80848e-08
5.21782e-08
1.97611e-08
0
2.21481e-08
9.55364e-08
2.97275e-07
0
0
0
0
1.09083e-06
3.30746e-06
6.14826e-06
5.29776e-06
6.91696e-06
1.07935e-05
2.21392e-05
2.0234e-05
5.90936e-06
8.70094e-07
1.10247e-07
0
0
0
1.44869e-08
2.50678e-08
2.76205e-08
2.58162e-08
2.16637e-08
1.8025e-08
1.3616e-08
1.0066e-08
6.97175e-09
4.50786e-09
2.4162e-09
5.51723e-10
0
0
0
0
0
0
0
0
0
0
0
0
0
0
0
0
0
0
0
0
0
0
0
0
0
0
0
0
0
0
0
0
0
0
0
0
0
0
0
0
0
0
0
0
0
0
0
0
0
0
0
0
0
0
0
0
0
0
0
0
0
0
0
0
0
0
0
0
0
0
0
0
0
0
0
0
0
0
0
0
0
0
0
0
0
0
0
0
0
0
0
0
0
0
0
0
0
0
0
0
0
0
0
0
0
0
0
0
0
0
0
0
0
0
0
0
0
3.01533e-11
3.59516e-11
2.64921e-07
3.1469e-07
6.05648e-08
2.20964e-07
4.84096e-07
6.38834e-07
5.90698e-07
3.97501e-07
1.65791e-07
0
0
0
0
0
0
0
0
0
0
1.23944e-08
5.04283e-08
7.95368e-08
9.7392e-08
1.01981e-07
8.90636e-08
6.83233e-08
3.71343e-08
4.01736e-08
1.55734e-07
3.52827e-07
5.52229e-07
5.4514e-07
5.53756e-07
1.07755e-07
0
0
0
0
0
0
0
3.7306e-08
1.37658e-06
1.09824e-06
4.2601e-07
1.13086e-07
3.81946e-09
0
0
1.36633e-08
2.2775e-08
2.63591e-08
2.65085e-08
2.45807e-08
2.16824e-08
1.8234e-08
1.4584e-08
1.11096e-08
7.7477e-09
4.46928e-09
1.24143e-09
0
0
0
0
0
0
0
0
0
0
0
0
0
0
0
0
0
0
0
0
0
0
0
0
0
0
0
0
0
0
0
0
0
0
0
0
0
0
0
0
0
0
0
0
0
0
0
0
0
0
0
0
0
0
0
0
0
0
0
0
0
0
0
0
0
0
0
0
0
0
0
0
0
0
0
0
0
0
0
0
0
0
0
0
0
0
0
0
0
0
0
0
0
0
0
0
0
0
0
0
0
0
0
0
0
0
0
0
0
0
0
0
0
0
2.66502e-15
0
1.69872e-13
4.1801e-11
0
1.58956e-06
8.03289e-07
2.4833e-07
2.19472e-07
3.83241e-07
5.40525e-07
6.15311e-07
6.61178e-07
7.10877e-07
8.11347e-07
8.57609e-07
8.52891e-07
7.85436e-07
6.58954e-07
4.83752e-07
2.83617e-07
1.09863e-07
3.97541e-09
0
0
0
0
0
0
0
0
0
0
2.44294e-07
5.73592e-07
5.49441e-07
7.51895e-08
0
0
0
0
0
0
0
0
6.66073e-08
0
1.78845e-07
2.63978e-07
1.17297e-07
2.92145e-08
1.02951e-08
1.93086e-08
4.21136e-08
6.88418e-08
8.88571e-08
9.76399e-08
9.36387e-08
8.27486e-08
6.95031e-08
5.57182e-08
4.20837e-08
3.09662e-08
2.16982e-08
1.33652e-08
5.60873e-09
0
0
0
0
0
0
0
0
0
0
0
0
0
0
0
0
0
0
0
0
0
0
0
0
0
0
0
0
0
0
0
0
0
0
0
0
0
0
0
0
0
0
0
0
0
0
0
0
0
0
0
0
0
0
0
2.68488e-10
6.9252e-10
8.10582e-10
7.43135e-10
5.75374e-10
3.91443e-10
2.11541e-10
4.5251e-11
0
0
0
0
0
0
0
0
0
0
0
0
0
0
0
0
0
0
0
0
0
0
0
0
0
0
0
0
0
0
0
0
0
0
0
0
0
0
0
0
0
0
0
0
0
0
0
0
0
0
0
6.23255e-14
7.32079e-13
0
2.34837e-11
0
9.32299e-07
8.62561e-07
3.53764e-07
2.48459e-07
3.97234e-07
5.46153e-07
6.38e-07
7.77021e-07
1.00297e-06
1.21391e-06
1.33504e-06
1.36295e-06
1.37126e-06
1.25476e-06
1.06303e-06
7.83937e-07
4.61706e-07
1.88767e-07
3.59889e-08
0
0
0
0
0
0
0
0
0
0
0
0
0
0
0
0
0
0
0
0
0
7.83503e-08
0
0
1.62084e-09
0
2.79804e-08
1.34998e-07
3.24158e-07
6.01446e-07
8.8733e-07
9.94682e-07
9.10218e-07
7.54786e-07
6.14502e-07
5.12809e-07
4.42198e-07
3.91057e-07
3.40926e-07
2.66741e-07
1.5249e-07
1.74158e-08
0
0
0
0
0
0
0
0
0
0
0
0
0
0
0
0
0
0
0
0
0
0
0
0
0
0
0
0
0
0
0
0
0
0
0
0
0
0
0
0
0
0
0
0
0
0
0
0
0
0
0
0
0
0
0
0
0
0
0
0
0
0
0
0
0
0
0
0
0
0
0
0
0
0
0
0
0
0
0
0
0
0
0
0
0
0
0
0
0
0
0
0
0
0
0
0
0
0
0
0
0
0
0
0
0
0
0
0
0
0
0
0
0
0
0
7.15073e-13
0
7.69078e-12
0
5.76294e-07
6.11087e-07
3.67435e-07
3.11697e-07
4.92496e-07
6.25413e-07
7.99653e-07
1.04987e-06
1.30728e-06
1.40725e-06
1.36596e-06
1.18776e-06
8.90841e-07
4.08293e-07
0
0
0
0
0
7.90944e-07
1.08855e-06
6.71345e-07
3.24797e-08
0
0
0
0
0
0
0
0
0
0
0
0
0
0
0
0
0
0
0
0
1.18316e-07
3.75814e-07
7.12699e-07
1.07481e-06
1.34776e-06
1.33696e-06
1.12566e-06
8.78927e-07
6.77338e-07
5.32532e-07
4.33894e-07
3.71572e-07
3.36527e-07
3.12197e-07
2.70271e-07
1.7279e-07
1.10781e-08
0
0
0
0
0
0
0
0
0
0
0
0
0
0
0
0
0
0
0
0
0
0
0
0
0
0
0
0
0
1.31444e-09
5.53992e-10
0
0
0
0
0
0
0
0
0
0
0
0
0
0
0
0
0
0
0
0
0
0
0
0
0
0
0
0
0
0
0
0
0
0
0
0
0
0
0
0
0
0
0
0
0
0
0
0
0
0
0
0
0
0
0
0
0
0
0
0
0
0
0
0
0
0
0
0
0
0
0
0
0
0
0
0
0
0
0
0
0
0
0
0
0
1.90327e-12
0
5.10378e-12
0
1.2719e-07
2.43002e-07
2.89563e-07
4.05261e-07
5.95184e-07
7.44309e-07
1.01542e-06
1.22734e-06
1.28269e-06
1.13366e-06
7.04762e-07
0
0
0
0
0
0
0
0
3.16767e-06
4.37197e-06
3.31465e-06
1.68809e-06
4.13448e-07
0
0
0
0
0
0
0
0
0
0
0
0
0
0
0
0
0
1.43119e-07
4.9131e-07
8.50286e-07
1.18604e-06
1.47691e-06
1.61523e-06
1.52375e-06
1.30438e-06
1.03065e-06
7.95194e-07
6.25297e-07
5.14123e-07
4.52876e-07
4.38091e-07
4.66234e-07
5.29328e-07
5.71105e-07
3.81423e-07
0
0
0
0
0
0
0
0
0
0
0
0
0
0
0
0
0
0
0
0
0
0
0
0
0
0
0
0
0
0
0
1.15202e-08
1.67471e-08
1.1753e-08
0
0
0
0
0
0
0
0
0
0
0
0
0
0
0
0
0
0
0
0
0
0
0
0
0
0
0
0
0
0
0
0
0
0
0
0
0
0
0
0
0
0
0
0
0
0
0
0
0
0
0
0
0
0
0
0
0
0
0
0
0
0
0
0
0
0
0
0
0
0
0
0
0
0
0
0
0
0
0
0
0
0
0
8.89036e-12
0
9.36181e-12
0
7.60449e-09
5.05231e-08
1.46238e-07
4.6094e-07
6.18693e-07
8.04794e-07
1.06025e-06
1.1132e-06
8.98502e-07
2.31557e-07
0
0
0
0
0
0
0
0
1.31447e-06
8.80707e-06
1.05024e-05
8.13316e-06
4.40739e-06
1.72337e-06
2.74612e-07
0
0
0
0
0
0
0
0
0
0
0
0
0
0
9.75571e-08
5.53835e-07
8.24448e-07
9.55446e-07
1.16022e-06
1.47306e-06
1.6281e-06
1.34563e-06
8.85257e-07
5.16424e-07
2.67513e-07
1.1664e-07
3.36265e-08
0
0
2.47366e-08
9.81032e-08
2.22633e-07
3.64908e-07
1.62072e-07
0
0
0
0
0
0
0
0
0
0
0
0
0
0
0
0
0
0
0
0
0
0
0
0
0
0
0
0
0
0
0
0
0
1.26128e-09
0
0
0
0
0
0
0
0
0
0
0
0
0
0
0
0
0
0
0
0
0
0
0
0
0
0
0
0
0
0
0
0
0
0
0
0
0
0
0
0
0
0
0
0
0
0
0
0
0
0
0
0
0
0
0
0
0
0
0
0
0
0
0
0
0
0
0
0
0
0
0
0
0
0
0
0
0
0
0
0
0
0
0
0
0
0
0
0
0
5.34057e-08
4.5148e-07
5.75572e-07
7.76169e-07
9.07359e-07
7.45866e-07
1.17674e-08
0
0
0
0
0
0
0
0
2.23578e-06
1.16418e-05
1.53766e-05
1.55805e-05
1.30173e-05
8.3206e-06
3.71142e-06
1.06251e-06
0
0
0
0
0
0
0
0
0
0
0
0
0
3.22854e-07
8.18202e-07
7.22704e-07
7.20595e-07
9.4986e-07
1.2574e-06
1.20395e-06
7.62021e-07
3.3951e-07
6.44463e-08
0
0
0
0
0
0
0
0
7.55324e-08
1.05006e-07
0
0
0
0
4.95916e-09
1.01791e-07
1.57848e-07
1.77774e-07
1.73933e-07
1.59621e-07
1.31829e-07
1.0148e-07
6.7108e-08
3.4841e-08
6.50216e-09
0
0
0
0
0
0
0
0
0
0
0
0
0
0
0
0
0
0
0
0
0
0
0
0
0
0
0
0
0
0
0
0
0
0
0
0
0
0
0
0
0
0
0
0
0
0
0
0
0
0
0
0
0
0
0
0
0
0
0
0
0
0
0
0
0
0
0
0
0
0
0
0
0
0
0
0
0
0
0
0
0
0
0
0
0
0
0
0
0
0
0
0
0
0
0
0
0
0
0
0
0
0
0
0
0
0
0
0
0
1.41092e-08
3.93779e-07
4.68586e-07
5.88201e-07
5.9591e-07
1.40032e-07
0
0
0
0
0
0
0
1.21998e-05
1.89653e-05
1.95953e-05
1.97557e-05
1.98894e-05
1.93168e-05
1.66684e-05
1.13914e-05
5.42943e-06
1.77522e-06
2.02627e-07
0
0
0
0
0
0
0
0
0
0
0
0
0
0
1.91107e-07
6.36857e-07
8.47713e-07
6.73866e-07
3.27225e-07
5.6946e-08
0
0
0
0
0
0
0
0
0
2.31182e-08
1.29573e-07
1.35323e-07
0
0
0
0
5.24317e-08
1.32799e-07
1.78186e-07
1.9431e-07
1.86723e-07
1.83833e-07
1.79331e-07
1.67906e-07
1.5745e-07
1.37465e-07
1.14127e-07
8.3888e-08
5.2361e-08
2.0679e-08
0
0
0
0
0
0
0
0
0
0
0
0
0
0
0
0
0
0
0
0
0
0
0
0
0
0
0
0
0
0
0
0
0
0
0
0
0
0
0
0
0
0
0
0
0
0
0
0
0
0
0
0
0
0
0
0
0
0
0
0
0
0
0
0
0
0
0
0
0
0
0
0
0
0
0
0
0
0
0
0
0
0
0
0
0
0
0
0
0
0
0
0
0
0
0
0
0
0
0
0
0
0
0
0
0
0
0
2.33063e-07
2.2501e-07
2.57289e-07
1.86359e-07
0
0
5.82662e-06
1.09585e-05
1.20235e-05
1.21649e-05
1.35725e-05
1.69139e-05
1.96693e-05
2.00697e-05
1.93432e-05
1.86343e-05
1.87298e-05
1.9267e-05
1.89625e-05
1.46703e-05
6.23415e-06
1.07773e-06
0
0
0
0
0
0
0
0
0
0
0
0
0
0
0
1.09509e-07
3.9114e-07
2.73411e-07
8.34391e-08
0
0
0
0
0
0
0
0
0
0
9.52336e-08
3.14936e-07
4.33836e-07
2.18271e-07
0
0
0
0
2.11888e-07
3.20884e-07
3.45447e-07
3.15294e-07
2.37096e-07
1.68843e-07
1.21621e-07
8.80114e-08
7.38953e-08
7.10894e-08
7.2056e-08
7.30728e-08
7.29829e-08
6.89316e-08
5.85718e-08
4.15988e-08
2.1242e-08
2.5348e-09
0
0
0
0
0
0
0
0
0
0
0
0
0
0
0
0
0
0
0
0
0
0
0
0
0
0
0
0
0
0
0
0
0
0
0
0
0
0
0
0
0
0
0
0
0
0
0
0
0
0
0
0
0
0
0
0
0
0
0
0
0
0
0
0
0
0
0
0
0
0
0
0
0
0
0
0
0
0
0
0
0
0
0
0
0
0
0
0
0
0
0
0
0
0
0
0
0
0
0
0
0
0
0
0
0
0
0
7.74471e-07
5.33479e-06
6.92317e-06
6.63291e-06
6.6655e-06
6.83928e-06
7.38737e-06
8.70597e-06
9.98452e-06
1.05406e-05
1.0352e-05
9.8936e-06
9.32222e-06
8.75317e-06
7.56675e-06
3.7711e-06
0
0
0
4.15528e-07
1.57234e-07
0
0
0
0
0
0
0
0
0
0
0
0
6.89522e-09
2.84796e-08
0
0
0
0
0
0
0
0
0
0
9.97168e-08
5.1814e-07
1.14921e-06
1.8658e-06
2.09684e-06
6.77291e-07
0
0
0
0
2.33456e-07
5.89396e-07
7.08832e-07
7.09784e-07
5.89511e-07
4.37676e-07
2.86797e-07
1.59995e-07
7.60459e-08
3.30306e-08
1.16846e-08
0
0
0
0
1.4e-08
3.15222e-08
4.6684e-08
5.10296e-08
3.6447e-08
2.90959e-09
0
0
0
0
0
0
0
0
0
0
0
0
0
0
0
0
0
0
0
0
0
0
0
0
0
0
0
0
0
0
0
0
0
0
0
0
0
0
0
0
0
0
0
0
0
0
0
0
0
0
0
0
0
0
0
0
0
0
0
0
0
0
0
0
0
0
0
0
0
0
0
0
0
0
0
0
0
0
0
0
0
0
0
0
0
0
0
0
0
0
0
0
0
0
0
0
0
0
0
0
0
0
0
0
5.22336e-07
3.02723e-06
4.12824e-06
4.0942e-06
4.04824e-06
4.09473e-06
4.03514e-06
3.9786e-06
4.05819e-06
3.92087e-06
3.53722e-06
2.93509e-06
2.12715e-06
1.15003e-06
1.35307e-07
0
0
1.92316e-07
2.14038e-06
1.33414e-06
8.85464e-07
5.45582e-07
2.7671e-07
6.69107e-08
0
0
0
0
0
0
0
0
0
0
0
0
0
0
0
0
0
0
0
0
3.66665e-07
1.1182e-06
2.43364e-06
4.50746e-06
7.4162e-06
9.60271e-06
9.35621e-07
0
0
0
0
0
2.24347e-07
6.52847e-07
8.00411e-07
7.73932e-07
6.66576e-07
5.15157e-07
3.60707e-07
2.27941e-07
1.3003e-07
6.52878e-08
1.6785e-08
0
0
0
0
0
0
3.42627e-08
7.55205e-08
8.99786e-08
7.58718e-08
4.27199e-08
2.00224e-09
0
0
0
0
0
0
0
0
0
0
0
0
0
0
0
0
0
0
0
0
0
0
0
0
0
0
0
0
0
0
0
0
0
0
0
0
0
0
0
0
0
0
0
0
0
0
0
0
0
0
0
0
0
0
0
0
0
0
0
0
0
0
0
0
0
0
0
0
0
0
0
0
0
0
0
0
0
0
0
0
0
0
0
0
0
0
0
0
0
0
0
0
0
0
0
0
0
0
0
0
0
0
1.1961e-06
2.58715e-06
2.98441e-06
2.93868e-06
2.82126e-06
2.63694e-06
2.31911e-06
1.93216e-06
1.5438e-06
1.18847e-06
8.10465e-07
4.42329e-07
1.36403e-07
2.48553e-08
3.43252e-07
2.09697e-06
3.6362e-06
2.86812e-06
2.12516e-06
1.58193e-06
1.16509e-06
8.86093e-07
8.54663e-07
3.9382e-07
0
0
0
0
0
0
0
0
0
0
0
0
0
0
0
0
0
2.92951e-08
4.02011e-07
1.22237e-06
2.79838e-06
5.48799e-06
9.45879e-06
1.43247e-05
1.41432e-05
0
0
0
0
0
0
0
1.47348e-07
5.3151e-07
6.45011e-07
6.13855e-07
5.23925e-07
4.15863e-07
3.11475e-07
2.20576e-07
1.56022e-07
1.13445e-07
5.68635e-08
0
0
0
0
0
0
0
0
0
0
0
0
0
0
2.43851e-08
4.09313e-08
3.21753e-08
1.18219e-08
0
0
0
0
0
0
0
0
0
0
0
0
0
0
0
0
0
0
0
0
0
0
0
0
0
0
0
0
0
0
0
0
0
0
0
0
0
0
0
2.76854e-10
8.31489e-09
0
0
0
0
0
0
0
0
0
0
0
0
0
0
0
0
0
0
0
0
0
0
0
0
0
0
0
0
0
0
0
0
0
0
0
0
0
0
0
0
0
0
0
0
0
0
0
0
0
0
0
0
0
0
0
1.14026e-06
2.11819e-06
2.62014e-06
2.81709e-06
2.87464e-06
2.77629e-06
2.52673e-06
2.1934e-06
1.8146e-06
1.44536e-06
1.2076e-06
1.30531e-06
2.17294e-06
3.77924e-06
4.53072e-06
4.09353e-06
3.4087e-06
2.78938e-06
2.33185e-06
2.16357e-06
1.85321e-06
8.16023e-07
2.57781e-07
1.7564e-08
0
0
0
0
0
8.82659e-08
7.83914e-08
3.99669e-08
6.54989e-09
0
0
0
0
0
0
0
1.95603e-07
6.96476e-07
1.69001e-06
3.26974e-06
5.20456e-06
6.43088e-06
4.60663e-06
0
0
0
0
0
0
0
0
0
0
2.6319e-07
3.93054e-07
3.91725e-07
3.33793e-07
2.77908e-07
2.23879e-07
1.70649e-07
1.39179e-07
1.43843e-07
1.25776e-07
1.67018e-08
0
0
0
0
0
0
0
0
0
0
0
0
0
0
3.89912e-08
4.06408e-08
1.67934e-08
0
0
0
0
0
0
0
0
0
0
0
0
0
0
0
0
0
0
0
0
0
0
0
0
0
0
0
0
0
0
0
0
0
0
0
0
0
0
0
2.14597e-09
9.00998e-09
0
0
0
0
0
0
0
0
0
0
0
0
0
0
0
0
0
0
0
0
0
0
0
0
0
0
0
0
0
0
0
0
0
0
0
0
0
0
0
0
0
0
0
0
0
0
0
0
0
0
0
0
0
0
0
7.78704e-07
1.6407e-06
2.39393e-06
3.03837e-06
3.56412e-06
3.91655e-06
3.98467e-06
3.74391e-06
3.37296e-06
3.08682e-06
3.06273e-06
3.29217e-06
3.46937e-06
3.36736e-06
3.00992e-06
2.58099e-06
2.23408e-06
1.88236e-06
1.33643e-06
8.24536e-07
4.6167e-07
2.10856e-07
2.68948e-08
0
0
0
0
1.39474e-07
1.91598e-07
1.70134e-07
1.23813e-07
7.74186e-08
4.06637e-08
7.18568e-09
0
0
0
0
0
1.00667e-07
3.12261e-07
6.0892e-07
8.28407e-07
5.70103e-07
0
0
0
0
0
0
0
0
0
0
0
0
0
8.62421e-08
2.10312e-07
2.31839e-07
1.97888e-07
1.60375e-07
1.20969e-07
8.23705e-08
7.0027e-08
1.13643e-07
1.6151e-07
8.40127e-08
0
0
0
0
0
0
0
0
0
0
0
0
0
0
1.43741e-08
1.6944e-08
0
0
0
0
0
0
0
0
0
0
0
0
0
0
0
0
0
0
0
0
0
0
0
0
0
0
0
0
0
0
8.34743e-11
2.21603e-09
0
0
0
0
0
0
0
0
6.47743e-10
7.66501e-09
0
0
0
0
0
0
0
0
0
0
0
0
0
0
0
0
0
0
0
0
0
0
0
0
0
0
0
0
0
0
0
0
0
0
0
0
0
0
0
0
0
0
0
0
0
0
0
0
0
0
0
0
0
0
0
2.7981e-07
8.93196e-07
1.51807e-06
2.11408e-06
2.58557e-06
2.78049e-06
2.59357e-06
2.11703e-06
1.54473e-06
1.13581e-06
9.85589e-07
1.01413e-06
1.135e-06
1.25735e-06
1.31109e-06
1.22466e-06
1.03437e-06
7.77989e-07
5.64048e-07
3.74771e-07
1.99095e-07
3.76381e-08
0
0
0
6.04847e-08
2.06737e-07
2.61468e-07
2.56861e-07
2.19775e-07
1.72097e-07
1.27945e-07
8.84881e-08
4.91647e-08
1.16609e-08
0
0
0
0
0
0
0
0
0
0
0
0
0
0
0
0
0
0
0
0
0
4.32096e-08
1.29451e-07
1.68498e-07
1.56131e-07
1.21217e-07
8.20188e-08
3.89005e-08
0
0
0
1.08056e-07
1.71814e-07
1.08959e-07
3.61366e-09
0
0
0
0
0
0
0
0
0
0
0
0
0
1.88955e-08
0
0
0
0
0
0
0
0
0
2.89317e-08
2.81716e-08
1.54135e-08
3.75179e-09
0
3.97291e-10
4.92667e-09
4.38764e-09
2.98563e-09
4.70266e-09
6.42304e-09
4.52456e-09
0
0
0
0
0
0
0
0
0
1.30845e-09
4.32156e-09
1.7374e-09
0
0
0
0
0
0
0
0
8.81104e-09
0
0
0
0
0
0
0
0
0
0
0
0
0
0
0
0
0
0
0
0
0
0
0
0
0
0
0
0
0
0
0
0
0
0
0
0
0
0
0
0
0
0
0
0
0
0
0
0
0
0
0
0
0
0
0
0
6.0921e-08
3.53386e-07
6.17511e-07
7.85414e-07
8.03323e-07
7.33976e-07
6.78438e-07
6.90564e-07
7.66361e-07
8.46101e-07
8.99972e-07
9.00342e-07
8.73447e-07
7.78519e-07
6.71742e-07
5.46928e-07
4.35915e-07
3.14798e-07
1.90296e-07
6.62671e-08
0
0
0
8.75268e-08
1.94388e-07
2.59965e-07
2.86376e-07
2.75513e-07
2.41562e-07
2.08306e-07
1.76768e-07
1.46532e-07
1.13117e-07
6.66983e-08
0
0
0
0
0
0
0
0
0
0
0
0
0
0
0
0
0
0
1.81177e-07
1.83541e-07
1.4757e-07
1.55497e-07
1.50644e-07
1.24669e-07
1.05299e-07
7.90677e-08
2.21794e-08
0
0
0
0
8.87026e-08
1.44652e-07
1.1399e-07
5.38385e-08
0
0
0
0
0
0
0
0
0
0
0
0
1.16574e-08
5.62773e-08
2.02799e-08
0
0
0
0
0
0
4.48342e-08
6.62825e-08
5.97391e-08
4.65764e-08
3.35512e-08
2.11785e-08
1.10849e-08
5.94015e-09
5.34825e-09
6.30015e-09
9.92631e-09
1.5672e-08
1.77154e-08
1.30547e-08
4.57294e-09
0
0
0
0
0
0
0
0
2.01881e-09
3.29165e-09
0
0
0
0
0
0
0
0
0
1.2494e-08
0
0
0
0
0
0
0
0
0
0
0
0
0
0
0
0
0
0
0
0
0
0
0
0
0
0
0
0
0
0
0
0
0
0
0
0
0
0
0
0
0
0
0
0
0
0
0
0
0
0
0
0
0
0
0
0
0
0
1.98942e-07
3.82039e-07
4.96708e-07
5.48976e-07
5.84602e-07
6.18217e-07
6.2906e-07
6.27191e-07
5.97861e-07
5.63237e-07
5.19119e-07
4.5831e-07
3.98182e-07
3.28637e-07
2.50425e-07
1.69762e-07
8.75969e-08
1.79897e-08
0
1.076e-08
7.55553e-08
1.46279e-07
2.05861e-07
2.47265e-07
2.623e-07
2.56719e-07
2.46503e-07
2.37839e-07
2.30844e-07
2.19536e-07
1.88805e-07
1.36963e-07
5.34047e-08
0
0
0
0
0
0
0
0
0
0
0
0
0
0
1.56953e-07
3.15226e-07
3.374e-07
2.13125e-07
1.30322e-07
1.36836e-07
1.1524e-07
6.37873e-08
5.75627e-08
9.24175e-08
5.16857e-08
0
0
0
0
0
1.36642e-07
9.56652e-08
8.43481e-09
0
0
0
0
0
0
0
0
0
0
0
0
0
5.91856e-08
7.27032e-08
5.37337e-08
2.96904e-08
3.65422e-09
0
1.44804e-08
7.15741e-08
8.86476e-08
9.24117e-08
8.61931e-08
7.30783e-08
6.25138e-08
5.32652e-08
4.31385e-08
3.0473e-08
1.57669e-08
4.1762e-09
2.67738e-09
9.58032e-09
1.61317e-08
1.64291e-08
1.08938e-08
4.13619e-09
0
0
0
0
0
0
0
0
1.15756e-09
0
0
0
0
0
0
0
0
0
0
1.91617e-08
0
0
0
0
0
0
0
0
0
0
0
0
0
0
0
0
0
0
0
0
0
0
0
0
0
0
0
0
0
0
0
0
0
0
0
0
0
0
0
0
0
0
0
0
0
0
0
0
0
0
0
0
0
0
0
0
0
1.20496e-07
2.37038e-07
3.03222e-07
3.34216e-07
3.50316e-07
3.68024e-07
3.77198e-07
3.77482e-07
3.69707e-07
3.49721e-07
3.35776e-07
3.03798e-07
2.71714e-07
2.30302e-07
1.85162e-07
1.38591e-07
8.68841e-08
3.89132e-08
1.16613e-08
1.59875e-08
4.69396e-08
9.12489e-08
1.36439e-07
1.75605e-07
2.00166e-07
2.10963e-07
2.17738e-07
2.27376e-07
2.3791e-07
2.48034e-07
2.34401e-07
2.02072e-07
1.53301e-07
7.59799e-08
0
0
0
0
0
0
0
0
0
0
0
0
3.31027e-07
3.42895e-07
3.86508e-07
3.71544e-07
2.15713e-07
1.11041e-07
1.32286e-07
1.22851e-07
3.81998e-08
0
5.70507e-08
9.79488e-08
0
0
0
0
0
0
9.37814e-08
1.88063e-08
0
0
0
0
0
0
0
0
0
0
0
0
0
5.39681e-08
8.36567e-08
7.29018e-08
5.50043e-08
3.56916e-08
2.23346e-08
3.64264e-08
7.81956e-08
1.02442e-07
1.0609e-07
1.02197e-07
9.28465e-08
8.24562e-08
7.59046e-08
7.07714e-08
6.46659e-08
5.49274e-08
3.8829e-08
2.06831e-08
1.15033e-08
1.25514e-08
1.39161e-08
1.09483e-08
6.29282e-09
3.53459e-09
3.3511e-09
4.75215e-09
5.169e-09
1.0867e-09
0
0
0
0
0
0
0
0
0
0
0
0
0
0
5.80522e-09
2.47122e-08
0
0
0
0
0
0
0
0
0
0
0
0
0
0
0
0
0
0
0
0
0
0
0
0
0
0
0
0
0
0
0
0
0
0
0
0
0
0
0
0
0
0
0
0
0
0
0
0
0
0
0
0
0
0
0
0
5.19116e-08
1.24253e-07
1.56581e-07
1.66178e-07
1.67925e-07
1.74555e-07
1.85484e-07
1.96866e-07
2.05186e-07
2.02815e-07
2.00067e-07
1.87374e-07
1.74398e-07
1.56425e-07
1.32628e-07
1.03564e-07
6.71859e-08
3.12391e-08
6.57476e-09
0
8.85177e-09
3.20156e-08
6.10755e-08
9.07533e-08
1.14473e-07
1.2975e-07
1.40719e-07
1.51086e-07
1.6283e-07
1.77416e-07
1.76331e-07
1.51654e-07
1.12685e-07
6.6853e-08
0
0
0
0
0
0
0
0
0
0
0
0
0
7.53157e-08
2.50938e-07
3.21243e-07
1.92635e-07
8.53806e-08
1.08962e-07
1.22679e-07
3.68488e-08
0
0
7.89233e-08
3.36556e-09
0
0
0
0
0
0
0
0
0
0
0
0
0
0
0
0
0
0
0
0
5.12642e-08
8.32761e-08
7.55459e-08
5.83964e-08
4.39265e-08
3.99646e-08
6.07746e-08
9.68732e-08
1.19739e-07
1.2325e-07
1.18786e-07
1.11617e-07
1.02487e-07
9.15515e-08
8.42775e-08
8.03477e-08
7.7487e-08
7.09768e-08
5.68276e-08
3.88432e-08
2.55347e-08
1.88147e-08
1.38932e-08
9.01146e-09
6.38012e-09
7.67444e-09
1.20985e-08
1.57892e-08
1.20264e-08
6.90846e-10
0
0
0
0
0
0
0
0
0
0
0
0
0
0
2.29534e-08
1.8881e-08
0
0
0
0
0
0
0
0
0
0
0
0
0
0
0
0
0
0
0
0
0
0
0
0
0
0
0
0
0
0
0
0
0
0
0
0
0
0
0
0
0
0
0
0
0
0
0
0
0
0
0
0
0
0
0
0
1.25977e-08
4.97516e-08
5.92951e-08
5.53416e-08
5.24766e-08
5.62646e-08
6.48225e-08
7.5208e-08
8.4337e-08
9.12392e-08
9.3672e-08
9.46179e-08
9.41083e-08
8.6524e-08
7.11826e-08
4.90912e-08
2.54587e-08
5.26624e-09
0
0
0
0
8.77172e-09
2.2264e-08
3.16331e-08
3.84603e-08
4.33648e-08
4.86483e-08
5.43379e-08
5.41635e-08
3.83973e-08
1.16597e-08
0
0
0
0
7.86368e-08
2.79663e-07
6.07256e-07
1.07125e-06
1.30806e-06
0
0
0
0
0
0
1.88896e-07
3.54643e-07
2.2563e-07
6.96599e-08
8.27946e-08
1.25813e-07
3.38232e-08
0
0
1.71832e-08
0
0
0
0
0
0
0
0
0
0
0
0
0
0
9.42063e-09
4.61104e-08
0
0
0
0
1.74455e-08
9.97091e-08
1.01835e-07
7.8978e-08
6.02825e-08
5.32822e-08
6.65162e-08
1.04478e-07
1.36921e-07
1.50379e-07
1.46024e-07
1.36224e-07
1.28885e-07
1.24139e-07
1.16263e-07
1.02245e-07
8.91133e-08
8.11729e-08
7.73407e-08
7.12413e-08
5.91547e-08
4.36604e-08
3.11149e-08
2.28332e-08
1.69114e-08
1.30598e-08
1.30838e-08
1.75451e-08
2.37663e-08
2.38966e-08
1.16561e-08
0
0
0
0
0
0
0
0
0
0
0
0
0
0
0
2.79301e-08
0
0
0
0
0
0
0
0
0
0
0
0
0
0
0
0
0
0
0
0
0
0
0
0
0
0
0
0
0
0
0
0
0
0
0
0
0
0
0
0
0
0
0
0
0
0
0
0
0
0
0
0
0
0
0
0
0
0
0
0
0
0
0
2.04127e-10
8.31757e-09
1.44878e-08
2.03145e-08
2.37629e-08
2.61682e-08
2.77163e-08
2.67375e-08
2.26127e-08
1.42075e-08
2.20263e-09
0
0
0
0
0
0
0
0
0
0
0
0
0
0
0
0
0
7.02876e-08
3.6295e-07
8.68426e-07
1.70725e-06
3.03889e-06
4.67687e-06
8.54606e-07
0
0
0
0
0
2.24437e-07
3.75453e-07
2.35457e-07
3.11076e-08
1.04292e-08
1.11324e-07
2.7835e-08
0
0
0
0
0
0
0
0
0
0
0
0
0
0
0
0
0
3.05172e-08
6.12199e-08
7.3152e-08
0
0
0
1.02751e-07
1.6836e-07
1.54724e-07
1.15936e-07
8.40652e-08
7.37043e-08
9.24747e-08
1.29705e-07
1.51493e-07
1.60941e-07
1.54532e-07
1.38572e-07
1.29216e-07
1.28772e-07
1.30424e-07
1.23062e-07
1.06153e-07
8.87403e-08
7.70167e-08
7.05225e-08
6.40081e-08
5.46136e-08
4.32137e-08
3.40246e-08
2.78077e-08
2.34351e-08
2.16751e-08
2.40112e-08
2.94692e-08
3.20881e-08
2.37356e-08
5.35587e-09
0
0
0
0
0
0
0
0
0
0
0
0
0
0
0
1.02892e-08
0
0
0
0
0
0
0
0
0
0
0
0
0
0
0
0
0
0
0
0
0
0
0
0
0
0
0
0
0
0
0
0
0
0
0
0
0
0
0
0
0
0
0
0
0
0
2.35671e-08
3.76557e-08
4.39741e-08
3.8732e-08
1.37505e-09
0
0
0
3.46196e-08
2.34139e-08
0
0
0
0
0
0
0
0
0
0
0
0
0
0
0
0
0
0
0
0
0
0
0
0
0
0
0
0
0
0
0
0
0
0
0
2.5333e-07
7.31042e-07
1.46406e-06
2.40597e-06
2.69832e-06
1.83703e-07
0
0
0
0
8.97391e-08
2.95989e-07
4.03518e-07
2.3462e-07
0
0
6.70762e-08
2.80158e-08
0
0
0
0
0
0
0
0
0
0
0
0
0
0
0
0
3.42963e-08
2.7643e-08
3.43777e-08
6.86107e-08
1.77538e-09
0
6.46198e-08
1.7226e-07
2.02032e-07
1.85082e-07
1.50335e-07
1.19259e-07
1.03464e-07
1.0911e-07
1.29922e-07
1.47804e-07
1.61296e-07
1.57899e-07
1.37279e-07
1.21386e-07
1.19826e-07
1.25798e-07
1.2847e-07
1.16603e-07
9.74097e-08
8.00976e-08
6.91416e-08
6.32069e-08
5.84344e-08
5.21961e-08
4.47395e-08
3.8934e-08
3.49336e-08
3.22806e-08
3.23732e-08
3.52347e-08
3.72286e-08
3.19804e-08
1.63415e-08
0
0
0
0
0
0
0
0
0
0
0
0
0
0
0
0
0
0
0
0
0
0
0
0
0
0
0
0
0
0
0
0
0
0
0
0
0
0
0
0
0
0
0
0
0
0
0
0
0
0
0
0
0
0
0
0
0
0
0
0
0
3.22084e-08
6.99913e-08
9.24839e-08
1.16822e-07
1.42956e-07
1.25036e-07
8.40209e-09
0
1.69151e-07
7.03108e-08
0
0
0
0
0
0
0
0
0
0
0
0
0
0
0
0
0
0
0
0
0
0
0
0
0
0
0
0
0
0
0
0
0
0
0
0
0
3.44287e-07
8.15765e-07
1.29336e-06
1.17125e-06
0
0
0
0
5.60143e-08
2.08366e-07
3.29098e-07
3.79981e-07
1.77066e-07
0
0
0
1.19348e-08
0
0
0
0
0
0
0
0
0
0
0
0
0
7.03589e-09
1.40679e-08
6.52891e-08
9.20294e-08
7.64028e-08
5.91299e-08
5.39266e-08
2.33148e-08
5.7509e-08
1.51335e-07
2.05049e-07
2.23099e-07
2.10042e-07
1.76451e-07
1.44243e-07
1.25969e-07
1.24772e-07
1.36378e-07
1.49266e-07
1.60614e-07
1.59611e-07
1.39899e-07
1.18138e-07
1.10306e-07
1.14699e-07
1.21851e-07
1.18691e-07
1.01898e-07
8.34299e-08
6.99682e-08
6.311e-08
6.04926e-08
5.81972e-08
5.39911e-08
4.90956e-08
4.56262e-08
4.30903e-08
4.17484e-08
4.19873e-08
4.13872e-08
3.64675e-08
2.44743e-08
7.30176e-09
0
0
0
0
0
0
0
0
0
0
0
0
0
0
0
0
0
0
0
0
0
0
0
0
0
0
0
0
0
0
0
0
0
0
0
0
0
0
0
0
0
0
0
0
0
0
0
0
0
0
0
0
0
0
0
0
0
0
0
2.75645e-08
6.31827e-08
7.56921e-08
1.088e-07
1.64826e-07
2.06577e-07
1.65562e-07
8.42407e-09
0
2.39122e-08
0
0
0
0
0
0
0
0
0
0
0
0
0
0
0
0
0
0
0
0
0
0
0
0
0
0
0
0
0
0
0
0
0
0
0
0
0
0
1.08518e-08
3.16957e-07
5.89465e-07
4.88423e-07
0
0
0
0
1.72573e-07
2.39176e-07
3.18367e-07
3.36788e-07
6.00038e-08
0
0
0
0
0
0
0
0
0
0
0
0
0
0
0
0
3.53632e-09
4.19314e-08
5.45381e-08
9.15341e-08
1.11443e-07
9.76492e-08
6.90625e-08
4.14839e-08
2.51532e-08
9.18041e-08
1.81686e-07
2.19003e-07
2.3442e-07
2.27855e-07
2.04988e-07
1.68459e-07
1.44586e-07
1.36782e-07
1.40677e-07
1.47935e-07
1.56611e-07
1.5785e-07
1.42998e-07
1.19532e-07
1.04361e-07
1.03627e-07
1.11356e-07
1.15298e-07
1.04943e-07
8.78016e-08
7.31994e-08
6.5179e-08
6.30469e-08
6.32573e-08
6.15064e-08
5.77459e-08
5.45985e-08
5.26144e-08
5.06968e-08
4.90245e-08
4.58057e-08
3.90976e-08
2.8771e-08
1.48598e-08
5.15444e-10
0
0
0
0
0
0
0
0
0
0
0
0
0
0
0
0
0
0
0
0
0
0
0
0
0
0
0
0
0
0
0
0
0
0
0
0
0
0
0
0
0
0
0
0
0
0
0
0
0
0
0
0
0
1.59839e-08
3.6178e-09
0
0
0
0
0
3.58669e-08
7.62661e-08
9.5567e-08
9.02414e-08
2.94826e-08
0
0
0
0
0
0
0
0
0
0
0
0
0
0
0
0
0
0
0
0
0
0
0
0
0
0
0
0
0
0
0
0
0
0
0
0
0
0
0
0
0
0
4.55406e-08
2.55603e-07
2.2833e-07
0
0
0
0
1.65583e-07
2.08187e-07
2.78383e-07
2.63787e-07
0
0
0
0
0
0
0
0
0
0
0
0
0
0
0
0
0
7.65989e-08
1.03823e-07
9.40716e-08
1.00122e-07
1.07735e-07
9.18174e-08
6.47359e-08
4.16991e-08
4.88406e-08
1.41588e-07
2.01544e-07
2.26212e-07
2.34004e-07
2.26669e-07
2.10193e-07
1.83501e-07
1.55066e-07
1.41035e-07
1.38754e-07
1.42806e-07
1.52139e-07
1.57587e-07
1.48644e-07
1.2703e-07
1.05174e-07
9.68666e-08
1.01743e-07
1.09298e-07
1.06208e-07
9.23357e-08
7.77465e-08
6.85363e-08
6.58145e-08
6.6956e-08
6.70204e-08
6.38539e-08
6.05383e-08
5.8878e-08
5.72637e-08
5.47208e-08
4.98076e-08
4.06529e-08
2.97313e-08
1.87346e-08
6.53393e-09
0
0
0
0
0
0
0
0
0
0
0
0
0
0
0
0
0
0
0
0
0
0
0
0
0
0
0
0
0
0
0
0
0
0
0
0
0
0
0
0
0
0
0
0
0
0
0
0
0
0
0
0
0
0
1.53359e-08
1.37289e-08
0
0
0
0
0
7.67529e-09
2.60783e-08
1.61128e-08
0
0
0
5.32315e-09
0
0
0
0
0
0
0
0
0
0
0
0
0
0
0
0
0
0
0
0
0
0
0
0
0
0
0
0
0
0
0
0
0
0
0
0
0
0
0
0
1.41614e-07
1.62935e-07
0
0
0
0
8.98533e-08
1.46145e-07
2.23903e-07
1.58929e-07
0
0
0
1.9849e-08
0
0
0
0
0
0
0
0
6.90757e-07
0
0
0
0
1.45352e-07
1.56921e-07
1.28695e-07
1.07764e-07
9.51018e-08
7.9611e-08
6.12838e-08
5.42565e-08
9.17056e-08
1.61103e-07
1.91192e-07
2.14387e-07
2.21299e-07
2.13657e-07
1.98834e-07
1.80721e-07
1.54325e-07
1.3642e-07
1.30302e-07
1.33244e-07
1.44402e-07
1.53914e-07
1.50069e-07
1.32263e-07
1.07935e-07
9.26442e-08
9.26783e-08
1.00825e-07
1.02795e-07
9.29655e-08
7.93235e-08
6.94363e-08
6.58417e-08
6.67297e-08
6.79079e-08
6.56124e-08
6.18092e-08
5.98594e-08
5.87579e-08
5.63562e-08
5.09511e-08
4.0226e-08
2.75313e-08
1.77103e-08
9.33171e-09
4.70179e-10
0
0
0
0
0
0
0
1.09129e-08
2.00026e-09
0
0
0
0
0
0
0
0
0
0
0
0
0
0
0
0
0
0
0
0
0
0
0
0
0
0
0
0
0
0
0
0
0
0
0
0
0
0
0
0
0
0
0
0
9.57787e-10
6.27465e-09
8.27028e-10
0
0
0
0
0
0
2.14809e-08
2.71634e-08
3.21234e-08
4.84552e-08
4.94947e-08
3.45401e-08
2.92366e-08
6.8604e-09
0
0
0
0
0
0
0
0
0
0
0
0
0
0
0
0
0
0
0
0
0
0
0
0
0
0
0
0
0
0
0
0
0
0
0
0
0
1.33633e-07
1.9117e-07
0
0
0
0
0
9.55747e-08
1.79651e-07
1.40771e-08
0
0
1.7785e-07
4.93611e-08
0
0
0
0
0
0
0
0
1.07678e-06
1.70324e-06
0
0
0
1.75777e-07
1.80486e-07
1.48877e-07
1.16412e-07
9.23273e-08
7.56078e-08
6.75962e-08
7.96101e-08
1.18581e-07
1.50217e-07
1.76809e-07
1.96011e-07
2.01968e-07
1.96363e-07
1.85037e-07
1.72902e-07
1.53727e-07
1.35518e-07
1.27597e-07
1.29865e-07
1.41573e-07
1.54169e-07
1.53748e-07
1.3927e-07
1.15281e-07
9.45618e-08
8.87603e-08
9.48124e-08
1.00396e-07
9.43776e-08
8.16058e-08
7.08616e-08
6.62918e-08
6.65156e-08
6.85219e-08
6.78438e-08
6.41413e-08
6.12857e-08
5.98744e-08
5.77471e-08
5.24047e-08
4.10456e-08
2.60996e-08
1.53052e-08
9.45425e-09
3.86519e-09
0
0
0
0
0
0
0
7.36081e-09
3.32879e-08
0
0
0
0
0
0
0
0
0
0
0
0
0
0
0
0
0
0
0
0
0
0
0
0
0
0
0
0
0
0
0
0
0
0
0
0
0
0
0
0
0
0
0
0
0
0
3.19496e-10
0
0
0
0
0
0
1.82703e-08
5.28692e-08
7.31864e-08
8.01093e-08
6.90231e-08
4.90118e-08
4.74038e-08
3.30744e-08
0
0
0
0
0
0
0
0
0
0
0
0
0
0
0
0
1.52122e-08
5.28165e-08
6.13256e-08
1.48061e-08
0
0
0
0
0
0
0
0
0
0
0
0
0
0
0
0
5.10934e-08
2.40261e-07
3.28242e-07
0
0
0
0
0
1.07002e-07
1.40041e-07
0
2.52838e-07
6.01853e-07
2.68329e-07
6.65959e-08
0
0
0
0
0
0
0
0
7.19796e-07
1.54573e-06
0
0
8.9956e-08
1.81519e-07
1.75628e-07
1.50005e-07
1.18768e-07
9.15061e-08
7.61785e-08
7.73187e-08
9.59289e-08
1.19473e-07
1.39388e-07
1.60633e-07
1.7079e-07
1.71172e-07
1.66857e-07
1.61231e-07
1.54907e-07
1.44399e-07
1.30499e-07
1.23541e-07
1.25219e-07
1.35136e-07
1.48838e-07
1.50957e-07
1.39859e-07
1.18898e-07
9.63051e-08
8.52168e-08
8.66043e-08
9.23428e-08
8.98855e-08
7.88332e-08
6.75695e-08
6.21205e-08
6.17642e-08
6.45802e-08