/*--------------------------------*- C++ -*----------------------------------*\
  =========                 |
  \\      /  F ield         | OpenFOAM: The Open Source CFD Toolbox
   \\    /   O peration     | Website:  https://openfoam.org
    \\  /    A nd           | Version:  7
     \\/     M anipulation  |
\*---------------------------------------------------------------------------*/
FoamFile
{
    version     2.0;
    format      ascii;
    class       volScalarField;
    location    "0.056";
    object      pMean;
}
// * * * * * * * * * * * * * * * * * * * * * * * * * * * * * * * * * * * * * //

dimensions      [0 2 -2 0 0 0 0];

internalField   nonuniform List<scalar> 
12225
(
-1.76077
-0.627702
-0.200044
-0.0902468
-0.0372869
-0.0015468
0.016222
0.0130845
-0.00786275
-0.0399178
-0.0761165
-0.1126
-0.147343
-0.185105
-0.22847
-0.303495
-0.414348
-0.726013
-1.43398
-0.616213
-0.203558
-0.0861805
-0.0376713
-0.00455638
0.0131938
0.0112134
-0.00846979
-0.039256
-0.0746445
-0.109797
-0.144814
-0.179551
-0.226308
-0.283928
-0.398902
-0.521253
-1.26237
-0.635592
-0.226918
-0.0877734
-0.0393167
-0.00804453
0.010984
0.0118595
-0.00436022
-0.0319647
-0.0644268
-0.098277
-0.131619
-0.16808
-0.209884
-0.269453
-0.348782
-0.460817
-1.06396
-0.599635
-0.225725
-0.0759875
-0.0294369
-0.0032304
0.0140868
0.0164293
0.00261282
-0.0224177
-0.0531911
-0.0853928
-0.118871
-0.153585
-0.195729
-0.24668
-0.31596
-0.39901
-0.8958
-0.563235
-0.23077
-0.0728647
-0.0227524
0.00041895
0.0160665
0.0197042
0.00866657
-0.0137424
-0.0421526
-0.0729322
-0.104772
-0.138921
-0.177725
-0.224172
-0.280314
-0.342244
-0.739412
-0.508695
-0.222524
-0.0637035
-0.00896913
0.011443
0.023877
0.0273844
0.0182132
-0.00188373
-0.0284783
-0.0578405
-0.088633
-0.121263
-0.157301
-0.198387
-0.244184
-0.292605
-0.59784
-0.44451
-0.205983
-0.0532902
0.00592819
0.0248006
0.0338283
0.036201
0.0283651
0.0104274
-0.0141258
-0.0419333
-0.0713079
-0.102254
-0.135422
-0.17143
-0.209436
-0.247393
-0.466478
-0.371275
-0.1787
-0.0378512
0.0239778
0.0424734
0.0484322
0.0490276
0.0417387
0.0254646
0.00252619
-0.0239165
-0.0518795
-0.0809904
-0.111334
-0.143086
-0.175132
-0.205857
-0.343762
-0.29293
-0.141732
-0.0165986
0.0448778
0.0635375
0.0669282
0.0651097
0.0573854
0.0422748
0.0209598
-0.00407772
-0.0307705
-0.0582547
-0.086196
-0.114474
-0.142066
-0.16785
-0.22769
-0.210433
-0.09482
0.0121789
0.0699797
0.0884685
0.0898875
0.0856466
0.076886
0.0621531
0.0418952
0.0180912
-0.00732264
-0.033288
-0.0592391
-0.0848862
-0.109408
-0.132019
-0.120625
-0.126337
-0.0401328
0.048076
0.0995539
0.116936
0.116694
0.109973
0.0995312
0.0845871
0.065026
0.0421064
0.0176226
-0.00722757
-0.031711
-0.0555177
-0.0779908
-0.0986913
-0.0255063
-0.0466443
0.0174017
0.0886231
0.132278
0.147193
0.145267
0.136399
0.124092
0.108309
0.0888114
0.0664638
0.0426675
0.0185468
-0.00508042
-0.0278766
-0.0493209
-0.0692091
0.067923
0.033133
0.0786542
0.134481
0.169656
0.181036
0.177064
0.166012
0.151767
0.13475
0.11483
0.0924939
0.0689195
0.0451506
0.0219812
-0.000312967
-0.0212872
-0.0409098
0.180308
0.128826
0.155127
0.194958
0.219724
0.225514
0.218299
0.204455
0.187522
0.168519
0.14754
0.124872
0.101268
0.0775102
0.0543161
0.0319759
0.010862
-0.00911648
0.298449
0.237073
0.248701
0.272881
0.285471
0.283523
0.27146
0.25396
0.233896
0.212246
0.189243
0.165162
0.140594
0.116145
0.0923594
0.0694089
0.0475289
0.0265628
0.427846
0.363844
0.363881
0.373178
0.372267
0.36037
0.341435
0.31873
0.294224
0.268816
0.242849
0.216527
0.190178
0.164149
0.138841
0.114389
0.0909516
0.0684195
0.582077
0.514629
0.504721
0.499468
0.48386
0.459749
0.431496
0.401564
0.371031
0.340325
0.309728
0.279478
0.249848
0.221031
0.193203
0.166345
0.14051
0.115455
0.778105
0.701206
0.677568
0.656768
0.625452
0.586984
0.546554
0.506721
0.468167
0.430813
0.394556
0.359419
0.325545
0.292992
0.261816
0.23192
0.203357
0.175974
1.0402
0.94667
0.903502
0.862129
0.810629
0.753198
0.695804
0.641238
0.589897
0.541328
0.49523
0.45157
0.410388
0.371602
0.335061
0.300459
0.267586
0.236105
1.28817
1.19034
1.1311
1.06564
0.989049
0.910626
0.83763
0.771629
0.711159
0.654514
0.600947
0.550441
0.503144
0.458959
0.417657
0.378922
0.342558
0.308284
1.52632
1.41743
1.334
1.23847
1.13388
1.03246
0.940892
0.859352
0.785778
0.718383
0.656425
0.599675
0.547794
0.500171
0.456181
0.41523
0.376961
0.340949
1.77826
1.64406
1.52369
1.3931
1.26433
1.14947
1.05012
0.961586
0.879837
0.803717
0.73366
0.669983
0.612323
0.559839
0.511697
0.467159
0.425791
0.387192
2.0555
1.87333
1.69333
1.51131
1.34766
1.21151
1.09833
0.999582
0.910239
0.829113
0.756262
0.691231
0.632906
0.579947
0.531366
0.486529
0.445127
0.406735
2.33962
2.10744
1.8646
1.64111
1.46091
1.31897
1.19779
1.08595
0.98241
0.889706
0.808754
0.738043
0.675227
0.618425
0.566574
0.518992
0.475215
0.43469
2.61758
2.29766
1.95319
1.67454
1.47917
1.33596
1.21224
1.09703
0.991738
0.899288
0.819322
0.749243
0.686508
0.629541
0.577599
0.530171
0.486855
0.447081
2.99205
2.54629
2.09775
1.77916
1.57648
1.42297
1.28045
1.14693
1.02999
0.931583
0.848148
0.775218
0.70992
0.650877
0.597381
0.54877
0.504408
0.463585
3.30543
2.63434
2.08167
1.76579
1.58512
1.43498
1.28807
1.15199
1.03549
0.938188
0.85519
0.782112
0.716544
0.657358
0.603867
0.555384
0.511266
0.470843
3.81481
2.85731
2.15994
1.82851
1.64477
1.47712
1.31495
1.17182
1.05271
0.953746
0.869078
0.794543
0.727908
0.668025
0.614085
0.565344
0.521027
0.480418
4.04536
2.82151
2.12393
1.8388
1.65782
1.48286
1.31728
1.17446
1.05625
0.957612
0.872858
0.798177
0.731461
0.671597
0.617715
0.569156
0.525067
0.48495
4.84849
2.86649
2.12458
1.87229
1.67933
1.49358
1.32486
1.18152
1.06283
0.963552
0.878234
0.803139
0.736134
0.676076
0.622067
0.573467
0.529421
0.489567
-0.3617
-0.360588
-0.362509
-0.370109
-0.387026
-0.414988
-0.454333
-0.504817
-0.565783
-0.63634
-0.715307
-0.801015
-0.891148
-0.982627
-1.07162
-1.15363
-1.22393
-1.27807
-1.31271
-1.32639
-1.31942
-1.29425
-1.25573
-1.21073
-1.16673
-1.13035
-1.10634
-1.0974
-1.10182
-1.11748
-1.13999
-1.16965
-1.20849
-1.25293
-1.30182
-1.36031
-1.43318
-1.52113
-1.62422
-1.74465
-1.88205
-2.03386
-2.19522
-2.36711
-2.54376
-2.71069
-2.85617
-2.97152
-3.05067
-3.0896
-3.08606
-3.03923
-2.94972
-2.81952
-2.65155
-2.44948
-2.21757
-1.96043
-1.68274
-1.3892
-1.08429
-0.772115
-0.456373
-0.140356
0.173091
0.481635
0.783488
1.0774
1.36263
1.63883
1.90598
2.16425
2.41393
2.65538
2.889
3.11525
3.33452
3.54713
3.75314
3.95229
4.14402
4.32753
4.50191
4.66634
4.82017
4.96297
5.09459
5.21501
5.32429
5.42259
5.5101
5.5871
5.65392
5.71098
5.75879
5.79792
5.82899
5.85265
5.86957
5.88039
5.88578
5.88635
5.88275
5.87559
5.86545
5.85291
5.8385
5.8227
5.80592
5.78853
5.77081
5.75298
5.73524
5.7177
5.70045
5.68357
5.6671
5.65106
5.63546
5.62031
5.6056
5.59131
5.57744
5.56396
5.55087
5.53816
5.5258
5.51379
5.5021
5.49071
5.4796
5.46875
5.45814
5.44776
5.43758
5.42757
5.41773
5.40803
5.39844
5.38896
5.37956
5.37023
5.36094
5.35169
5.34247
5.33325
5.32403
5.3148
5.30555
5.29627
5.28695
5.2776
5.2682
5.25876
5.24927
5.23973
5.23015
5.22053
5.21089
5.20122
5.19155
5.18191
5.17231
5.16281
5.15344
5.14429
5.13541
5.12695
5.11899
5.11181
5.10554
5.10069
5.09744
5.09688
5.09921
5.10685
5.12017
5.14476
5.18275
5.24369
-0.377905
-0.37874
-0.383223
-0.393957
-0.413843
-0.444097
-0.485199
-0.537167
-0.599722
-0.672354
-0.754229
-0.843953
-0.939333
-1.03728
-1.13382
-1.22431
-1.3038
-1.36747
-1.41124
-1.43206
-1.42873
-1.40291
-1.35936
-1.30549
-1.24997
-1.20155
-1.16699
-1.15028
-1.15221
-1.17175
-1.20661
-1.25241
-1.31039
-1.38177
-1.45905
-1.53788
-1.62802
-1.73748
-1.85801
-1.98853
-2.1427
-2.30686
-2.46911
-2.63552
-2.80176
-2.95583
-3.08715
-3.18752
-3.25121
-3.27447
-3.25526
-3.1931
-3.08891
-2.94466
-2.76336
-2.54884
-2.30542
-2.03776
-1.75057
-1.44845
-1.13585
-0.816914
-0.495387
-0.174522
0.142925
0.454702
0.759077
1.05484
1.34134
1.61833
1.88591
2.14434
2.394
2.63531
2.86874
3.09475
3.31385
3.52647
3.73276
3.93251
4.12512
4.30972
4.48532
4.65101
4.80604
4.95
5.0827
5.20414
5.3144
5.41363
5.50202
5.57982
5.64737
5.70509
5.75347
5.79311
5.82463
5.84869
5.86598
5.87715
5.88285
5.88371
5.88036
5.87341
5.86345
5.85106
5.83677
5.82108
5.8044
5.7871
5.76946
5.75172
5.73405
5.71658
5.69941
5.6826
5.66619
5.6502
5.63466
5.61955
5.60488
5.59064
5.57681
5.56339
5.55036
5.53769
5.52538
5.51341
5.50176
5.4904
5.47932
5.4685
5.45792
5.44756
5.4374
5.42741
5.41758
5.40789
5.39832
5.38885
5.37946
5.37013
5.36086
5.35161
5.34239
5.33318
5.32396
5.31473
5.30548
5.29621
5.28689
5.27754
5.26815
5.2587
5.24921
5.23967
5.23009
5.22046
5.21081
5.20114
5.19146
5.1818
5.17219
5.16266
5.15327
5.14407
5.13515
5.12662
5.1186
5.1113
5.10491
5.09983
5.09638
5.09531
5.09728
5.10358
5.11604
5.13576
5.16791
5.20052
-0.401074
-0.403781
-0.412646
-0.428563
-0.453189
-0.487309
-0.53156
-0.586413
-0.652212
-0.729027
-0.816448
-0.913381
-1.01779
-1.12648
-1.23511
-1.33832
-1.43013
-1.50462
-1.55693
-1.5837
-1.58342
-1.55805
-1.51288
-1.45527
-1.39321
-1.3343
-1.28577
-1.25412
-1.24473
-1.26175
-1.30697
-1.37808
-1.4674
-1.56783
-1.67831
-1.80028
-1.93136
-2.07567
-2.23041
-2.38927
-2.55669
-2.72975
-2.90063
-3.06502
-3.21761
-3.35171
-3.46057
-3.53802
-3.57906
-3.58012
-3.53921
-3.45587
-3.33085
-3.16625
-2.96518
-2.7315
-2.46977
-2.18479
-1.88142
-1.56442
-1.23838
-0.907454
-0.575325
-0.245235
0.0800445
0.398268
0.707711
1.00724
1.29629
1.57483
1.84319
2.10187
2.35146
2.59252
2.82555
3.05111
3.2698
3.4823
3.68902
3.88988
4.08426
4.27112
4.44929
4.61761
4.77522
4.9216
5.05658
5.18018
5.29249
5.39368
5.48392
5.56343
5.63253
5.69162
5.74122
5.78193
5.81441
5.83935
5.85745
5.86938
5.87578
5.87728
5.87451
5.86807
5.85855
5.84653
5.83257
5.81717
5.80075
5.7837
5.7663
5.74878
5.73133
5.71407
5.6971
5.68048
5.66424
5.64843
5.63304
5.61809
5.60356
5.58946
5.57576
5.56245
5.54953
5.53696
5.52475
5.51286
5.50128
5.49
5.47898
5.46822
5.45769
5.44737
5.43725
5.4273
5.4175
5.40783
5.39827
5.38882
5.37944
5.37012
5.36084
5.3516
5.34238
5.33317
5.32396
5.31473
5.30548
5.2962
5.28688
5.27753
5.26812
5.25867
5.24918
5.23963
5.23003
5.2204
5.21073
5.20104
5.19134
5.18165
5.172
5.16243
5.15298
5.14371
5.1347
5.12604
5.11787
5.11035
5.1037
5.09819
5.09427
5.09231
5.09329
5.09747
5.10714
5.12069
5.14338
5.1595
-0.430179
-0.435122
-0.448371
-0.469439
-0.498849
-0.537263
-0.585616
-0.644872
-0.715929
-0.799404
-0.895349
-1.00292
-1.12008
-1.24329
-1.36749
-1.4863
-1.59257
-1.67919
-1.74042
-1.77189
-1.7723
-1.7446
-1.69567
-1.63444
-1.56995
-1.51092
-1.46498
-1.43921
-1.43874
-1.47024
-1.53252
-1.62089
-1.73127
-1.85969
-2.00246
-2.16132
-2.33131
-2.5085
-2.69298
-2.88117
-3.06924
-3.25341
-3.42925
-3.59202
-3.73624
-3.85651
-3.94754
-4.00442
-4.02302
-4.00032
-3.93475
-3.8259
-3.67458
-3.48298
-3.25458
-2.99379
-2.7057
-2.39554
-2.06862
-1.73005
-1.38448
-1.03608
-0.688623
-0.345326
-0.00892244
0.318386
0.634902
0.939548
1.23191
1.51223
1.78126
2.03992
2.2891
2.5295
2.7617
2.98627
3.20402
3.41593
3.62288
3.82513
4.02207
4.21237
4.39448
4.56691
4.72851
4.87865
5.01714
5.14404
5.25951
5.36369
5.45676
5.53887
5.61032
5.67149
5.72291
5.76522
5.79912
5.82536
5.84468
5.85775
5.86522
5.86772
5.86585
5.86019
5.85135
5.83992
5.82647
5.81152
5.79552
5.77884
5.7618
5.74462
5.72749
5.71053
5.69384
5.67748
5.66149
5.6459
5.63072
5.61596
5.60161
5.58767
5.57412
5.56096
5.54817
5.53573
5.52362
5.51184
5.50036
5.48916
5.47823
5.46754
5.45708
5.44683
5.43676
5.42686
5.41711
5.40748
5.39796
5.38854
5.37919
5.3699
5.36065
5.35143
5.34222
5.33303
5.32382
5.31461
5.30537
5.2961
5.28679
5.27743
5.26804
5.25859
5.24909
5.23953
5.22993
5.22029
5.2106
5.20089
5.19116
5.18144
5.17175
5.16212
5.1526
5.14324
5.13412
5.12531
5.11694
5.10915
5.10217
5.09617
5.09162
5.08869
5.08834
5.09035
5.09668
5.10483
5.11818
5.12136
-0.464926
-0.472606
-0.490043
-0.515425
-0.548963
-0.591538
-0.644543
-0.709422
-0.78756
-0.879977
-0.98698
-1.10769
-1.23978
-1.37914
-1.51983
-1.65433
-1.7742
-1.87117
-1.93889
-1.97238
-1.97163
-1.94176
-1.8919
-1.83262
-1.77425
-1.72573
-1.69448
-1.68655
-1.70645
-1.75757
-1.84049
-1.95266
-2.09031
-2.2509
-2.43034
-2.62435
-2.82954
-3.04078
-3.25388
-3.46502
-3.67003
-3.86458
-4.04454
-4.20552
-4.34277
-4.45145
-4.52683
-4.56468
-4.56146
-4.51434
-4.42112
-4.28157
-4.09728
-3.87106
-3.60749
-3.31193
-2.99015
-2.64837
-2.29246
-1.92764
-1.55859
-1.18955
-0.824189
-0.465598
-0.116377
0.221342
0.54589
0.856196
1.15195
1.4337
1.70267
1.9604
2.20829
2.4473
2.67805
2.901
3.11699
3.32739
3.53384
3.73732
3.93732
4.13216
4.31968
4.49784
4.66507
4.82048
4.96386
5.09532
5.21508
5.32335
5.42024
5.50587
5.58047
5.64441
5.69823
5.74262
5.77837
5.8063
5.82718
5.84175
5.85065
5.85449
5.85384
5.84927
5.84137
5.83077
5.81803
5.80372
5.78829
5.77215
5.75561
5.7389
5.72221
5.70567
5.68937
5.67337
5.65772
5.64244
5.62755
5.61305
5.59895
5.58524
5.5719
5.55893
5.54632
5.53405
5.5221
5.51046
5.49912
5.48804
5.47722
5.46664
5.45628
5.44611
5.43612
5.42629
5.41661
5.40704
5.39758
5.3882
5.37889
5.36963
5.36041
5.35122
5.34204
5.33286
5.32368
5.31447
5.30525
5.29598
5.28668
5.27734
5.26794
5.25849
5.24899
5.23943
5.22982
5.22016
5.21046
5.20072
5.19097
5.18121
5.17146
5.16177
5.15217
5.1427
5.13344
5.12445
5.11585
5.10776
5.10037
5.09383
5.08853
5.08454
5.08264
5.08243
5.08519
5.08837
5.09327
5.08778
-0.507159
-0.517158
-0.537659
-0.565845
-0.602456
-0.64888
-0.706931
-0.778487
-0.865325
-0.968641
-1.0886
-1.22381
-1.37115
-1.52563
-1.68038
-1.82696
-1.95623
-2.05954
-2.12997
-2.16428
-2.16409
-2.1365
-2.09206
-2.04284
-2.00024
-1.97322
-1.96822
-1.99012
-2.04188
-2.12487
-2.23898
-2.38218
-2.55228
-2.746
-2.95883
-3.18509
-3.41873
-3.6542
-3.88656
-4.11155
-4.32529
-4.52402
-4.70411
-4.8617
-4.99252
-5.09172
-5.15429
-5.17546
-5.15103
-5.07779
-4.95426
-4.78105
-4.56046
-4.29678
-3.99512
-3.66158
-3.30307
-2.92636
-2.53798
-2.14388
-1.74919
-1.35801
-0.973709
-0.598989
-0.236119
0.112903
0.446374
0.763091
1.06265
1.34566
1.61381
1.86952
2.11518
2.35238
2.58158
2.80274
3.01628
3.22379
3.42803
3.6314
3.83414
4.03401
4.2279
4.41298
4.58708
4.74896
4.89832
5.03534
5.16037
5.27361
5.37519
5.46517
5.54368
5.61105
5.66785
5.7148
5.75278
5.7827
5.80544
5.8218
5.8324
5.83786
5.8387
5.83549
5.8288
5.81925
5.80744
5.79396
5.77928
5.76384
5.74794
5.73184
5.71571
5.69969
5.68388
5.66833
5.6531
5.6382
5.62367
5.6095
5.5957
5.58227
5.56919
5.55645
5.54405
5.53197
5.52021
5.50873
5.49754
5.48661
5.47592
5.46546
5.45521
5.44515
5.43525
5.42551
5.41591
5.40641
5.39701
5.38769
5.37843
5.36922
5.36005
5.35089
5.34175
5.3326
5.32344
5.31426
5.30506
5.29581
5.28653
5.27719
5.2678
5.25836
5.24886
5.2393
5.22968
5.22001
5.21029
5.20053
5.19074
5.18093
5.17113
5.16137
5.15167
5.14208
5.13266
5.12347
5.11461
5.10618
5.09834
5.0912
5.08506
5.07996
5.0764
5.07397
5.07323
5.07196
5.06987
5.05819
-0.555132
-0.566227
-0.587493
-0.616689
-0.655161
-0.704663
-0.767306
-0.845295
-0.940503
-1.05384
-1.18474
-1.33093
-1.48849
-1.65185
-1.81396
-1.96652
-2.10032
-2.20721
-2.28117
-2.32037
-2.32793
-2.31191
-2.28369
-2.25604
-2.24038
-2.24541
-2.27676
-2.33768
-2.4298
-2.55323
-2.70658
-2.8874
-3.09238
-3.31712
-3.55616
-3.80342
-4.05327
-4.30105
-4.54273
-4.77487
-4.9944
-5.19833
-5.38343
-5.54563
-5.67984
-5.78031
-5.84113
-5.85632
-5.82069
-5.73086
-5.5854
-5.38404
-5.12888
-4.82437
-4.47727
-4.09604
-3.68961
-3.26676
-2.83555
-2.40285
-1.97418
-1.5539
-1.14527
-0.750628
-0.371605
-0.00939759
0.334913
0.660138
0.965344
1.2508
1.51847
1.77184
2.01483
2.25035
2.47898
2.69952
2.91129
3.1156
3.31587
3.51671
3.72042
3.92466
4.12492
4.31713
4.49839
4.66712
4.82288
4.96592
5.09667
5.21544
5.3223
5.41727
5.50037
5.57182
5.63213
5.6821
5.72269
5.75495
5.77982
5.79817
5.81068
5.81794
5.82047
5.81882
5.81354
5.80525
5.79458
5.78212
5.76838
5.75379
5.7387
5.72333
5.7079
5.69252
5.67729
5.66229
5.64756
5.63313
5.61902
5.60525
5.59181
5.5787
5.56592
5.55346
5.54132
5.52947
5.51792
5.50664
5.49563
5.48486
5.47433
5.46401
5.4539
5.44396
5.43418
5.42455
5.41504
5.40563
5.39631
5.38707
5.37788
5.36873
5.3596
5.3505
5.34139
5.33228
5.32316
5.31401
5.30483
5.29561
5.28634
5.27702
5.26764
5.25821
5.24871
5.23915
5.22953
5.21984
5.2101
5.20031
5.19048
5.18063
5.17077
5.16092
5.15112
5.14139
5.1318
5.12239
5.11325
5.10445
5.09612
5.08833
5.08131
5.07505
5.06981
5.06517
5.06118
5.05592
5.04818
5.03169
-0.602301
-0.613206
-0.633376
-0.662073
-0.700928
-0.751728
-0.816735
-0.898173
-0.997576
-1.11505
-1.24914
-1.39701
-1.55471
-1.71733
-1.87862
-2.03101
-2.16631
-2.27708
-2.3593
-2.41191
-2.43849
-2.44735
-2.44991
-2.45849
-2.48368
-2.53295
-2.61073
-2.71906
-2.85808
-3.02616
-3.2205
-3.43714
-3.67173
-3.91938
-4.17503
-4.43439
-4.69415
-4.95162
-5.20457
-5.45102
-5.68877
-5.91482
-6.12483
-6.31299
-6.47233
-6.59495
-6.67224
-6.69589
-6.65903
-6.55669
-6.38592
-6.14725
-5.84447
-5.48441
-5.07646
-4.63171
-4.16207
-3.67896
-3.19233
-2.71022
-2.23876
-1.78233
-1.34372
-0.924506
-0.525372
-0.146616
0.211257
0.547304
0.860695
1.15154
1.42152
1.67392
1.91385
2.14667
2.37452
2.59559
2.80781
3.01104
3.20797
3.40452
3.60666
3.81321
4.01862
4.21711
4.40484
4.57988
4.74168
4.89047
5.02678
5.15104
5.26331
5.36348
5.45148
5.52741
5.59169
5.64512
5.68871
5.7236
5.75084
5.77136
5.78591
5.79511
5.79946
5.79949
5.79577
5.78891
5.77955
5.7683
5.75568
5.74213
5.72798
5.71351
5.69888
5.68425
5.66971
5.65534
5.64119
5.62729
5.61368
5.60035
5.58733
5.5746
5.56217
5.55003
5.53818
5.5266
5.51528
5.50423
5.49342
5.48284
5.47248
5.46233
5.45236
5.44256
5.43291
5.4234
5.414
5.4047
5.39548
5.38632
5.3772
5.36812
5.35907
5.35002
5.34096
5.3319
5.32282
5.3137
5.30455
5.29536
5.28612
5.27682
5.26745
5.25803
5.24854
5.23898
5.22935
5.21965
5.20989
5.20007
5.1902
5.1803
5.17037
5.16043
5.15052
5.14065
5.13088
5.12123
5.11178
5.10259
5.09374
5.08528
5.07735
5.0699
5.063
5.05624
5.04929
5.0405
5.02822
5.00791
-0.640463
-0.650426
-0.668953
-0.696243
-0.733965
-0.783844
-0.848117
-0.928723
-1.02668
-1.14142
-1.27101
-1.41257
-1.5626
-1.71726
-1.87208
-2.02098
-2.15668
-2.27385
-2.36932
-2.44322
-2.4995
-2.54607
-2.59319
-2.65153
-2.72997
-2.83417
-2.96675
-3.12789
-3.31579
-3.5272
-3.75774
-4.0028
-4.25836
-4.52127
-4.78943
-5.06166
-5.33726
-5.61572
-5.89646
-6.17814
-6.45785
-6.7306
-6.98922
-7.22499
-7.4278
-7.58603
-7.68767
-7.72191
-7.68017
-7.55698
-7.35063
-7.06283
-6.69934
-6.26952
-5.7854
-5.2614
-4.713
-4.15501
-3.6001
-3.0581
-2.53566
-2.03674
-1.56329
-1.1159
-0.6942
-0.297213
0.076016
0.425364
0.749855
1.04891
1.32375
1.5777
1.81611
2.04639
2.27291
2.49426
2.70727
2.91076
3.10642
3.30021
3.50016
3.70713
3.9157
4.11872
4.31152
4.49169
4.65848
4.8122
4.95348
5.08275
5.20005
5.3052
5.39797
5.47845
5.54697
5.60421
5.65118
5.689
5.71883
5.74167
5.75837
5.76958
5.77583
5.77765
5.7756
5.7703
5.76241
5.75253
5.7412
5.72885
5.71582
5.70237
5.68869
5.67491
5.66116
5.64751
5.63401
5.62072
5.60765
5.59483
5.58227
5.56997
5.55793
5.54615
5.53463
5.52335
5.51231
5.5015
5.49092
5.48055
5.47038
5.4604
5.4506
5.44096
5.43146
5.42208
5.41281
5.40362
5.39451
5.38545
5.37642
5.36742
5.35844
5.34945
5.34046
5.33145
5.32242
5.31335
5.30424
5.29507
5.28586
5.27658
5.26724
5.25783
5.24834
5.23878
5.22915
5.21944
5.20966
5.19982
5.18991
5.17995
5.16994
5.15992
5.14988
5.13986
5.12989
5.12
5.11023
5.10063
5.09124
5.0821
5.07325
5.06461
5.05612
5.04734
5.03772
5.02583
5.00989
4.98651
-0.666386
-0.675326
-0.692299
-0.717763
-0.753425
-0.800781
-0.861968
-0.938626
-1.0312
-1.1385
-1.25851
-1.38868
-1.52656
-1.66979
-1.81542
-1.95924
-2.09635
-2.223
-2.33717
-2.4401
-2.53576
-2.6309
-2.73369
-2.85191
-2.99162
-3.1562
-3.34606
-3.55923
-3.79189
-4.03939
-4.29757
-4.56362
-4.83603
-5.1147
-5.40132
-5.69818
-6.00698
-6.32831
-6.66118
-7.00246
-7.34635
-7.68454
-8.00664
-8.30057
-8.55291
-8.74961
-8.87684
-8.92219
-8.87598
-8.73212
-8.48794
-8.1454
-7.71169
-7.19867
-6.62234
-6.00158
-5.35635
-4.70567
-4.06584
-3.44914
-2.86337
-2.31242
-1.79735
-1.31737
-0.870417
-0.453745
-0.0646854
0.298126
0.63417
0.942695
1.22436
1.48218
1.72133
1.95042
2.17595
2.39748
2.61114
2.81511
3.01094
3.20392
3.40276
3.60994
3.82006
4.0258
4.22186
4.40546
4.57587
4.73347
4.87891
5.01253
5.13422
5.24376
5.34094
5.4258
5.49862
5.55992
5.61056
5.6516
5.68422
5.70952
5.72842
5.74167
5.74985
5.7535
5.7532
5.74959
5.7433
5.73496
5.72508
5.71409
5.70232
5.69003
5.6774
5.66459
5.65171
5.63885
5.62608
5.61345
5.601
5.58874
5.57669
5.56486
5.55326
5.54187
5.53071
5.51976
5.50902
5.49849
5.48816
5.47802
5.46806
5.45827
5.44865
5.43917
5.42983
5.4206
5.41146
5.40241
5.39341
5.38446
5.37554
5.36663
5.35773
5.34882
5.33989
5.33094
5.32196
5.31294
5.30387
5.29475
5.28557
5.27632
5.267
5.2576
5.24813
5.23858
5.22894
5.21922
5.20942
5.19955
5.1896
5.17958
5.1695
5.15937
5.14922
5.13904
5.12887
5.11872
5.10862
5.09859
5.08867
5.07883
5.06907
5.05927
5.04927
5.0386
5.02661
5.01201
4.99309
4.96719
-0.681417
-0.689533
-0.705476
-0.729215
-0.762701
-0.807104
-0.86442
-0.936066
-1.0221
-1.12124
-1.2317
-1.3514
-1.47863
-1.61206
-1.75015
-1.89079
-2.03203
-2.17208
-2.31078
-2.44965
-2.59174
-2.74163
-2.90452
-3.08496
-3.28569
-3.50734
-3.74844
-4.00564
-4.27452
-4.551
-4.83289
-5.12042
-5.41571
-5.72235
-6.04456
-6.38601
-6.74846
-7.13143
-7.53138
-7.94172
-8.35391
-8.75801
-9.1425
-9.49417
-9.79815
-10.038
-10.1965
-10.2579
-10.2095
-10.0433
-9.75635
-9.35205
-8.83997
-8.23531
-7.55785
-6.83043
-6.07731
-5.32204
-4.58493
-3.88134
-3.2209
-2.60813
-2.04371
-1.52561
-1.04989
-0.611632
-0.205935
0.170373
0.517785
0.835323
1.12352
1.38545
1.62692
1.85704
2.0834
2.30555
2.5197
2.72436
2.92117
3.11514
3.31475
3.52251
3.73343
3.94029
4.1377
4.32304
4.49572
4.65615
4.80492
4.94221
5.06775
5.1812
5.28236
5.37127
5.44814
5.51336
5.56764
5.61195
5.64744
5.67525
5.69639
5.71166
5.72175
5.72726
5.72879
5.72697
5.72243
5.71575
5.70747
5.69797
5.68758
5.67655
5.66509
5.65333
5.64141
5.62942
5.61745
5.60554
5.59375
5.5821
5.57061
5.5593
5.54816
5.53721
5.52644
5.51586
5.50545
5.49521
5.48515
5.47526
5.46553
5.45596
5.44652
5.43723
5.42805
5.41897
5.40998
5.40106
5.39219
5.38336
5.37455
5.36574
5.35693
5.3481
5.33926
5.33038
5.32146
5.31249
5.30347
5.29439
5.28525
5.27603
5.26673
5.25736
5.2479
5.23835
5.22872
5.21899
5.20917
5.19926
5.18927
5.17919
5.16904
5.15882
5.14853
5.13819
5.12781
5.1174
5.10697
5.09652
5.08605
5.07552
5.06487
5.05396
5.04253
5.03012
5.01602
4.99907
4.97769
4.94973
-0.689851
-0.697666
-0.713469
-0.73647
-0.768661
-0.811131
-0.86576
-0.933856
-1.01565
-1.11014
-1.21593
-1.33145
-1.45554
-1.58765
-1.72754
-1.87497
-2.02962
-2.19142
-2.36079
-2.53859
-2.7265
-2.9268
-3.142
-3.37418
-3.62419
-3.8914
-4.1736
-4.46753
-4.76976
-5.07789
-5.3919
-5.71383
-6.04731
-6.39679
-6.76626
-7.15836
-7.57317
-8.00857
-8.45981
-8.92011
-9.38156
-9.8349
-10.2686
-10.6682
-11.0157
-11.2904
-11.4713
-11.54
-11.4827
-11.2913
-10.9634
-10.5031
-9.92162
-9.23625
-8.46906
-7.64613
-6.79518
-5.9435
-5.11467
-4.32673
-3.59143
-2.91462
-2.29756
-1.73787
-1.23046
-0.768542
-0.34512
0.0446247
0.402313
0.727665
1.02139
1.2873
1.53236
1.766
1.99481
2.21838
2.43337
2.63889
2.83716
3.03344
3.23553
3.44471
3.65597
3.86262
4.05981
4.24545
4.41931
4.58183
4.7334
4.87395
5.00297
5.11994
5.22462
5.31706
5.39742
5.46602
5.52347
5.5707
5.60885
5.63909
5.66244
5.67976
5.69179
5.6992
5.70263
5.70271
5.70004
5.69516
5.68857
5.68066
5.67175
5.66207
5.65184
5.64122
5.63033
5.61928
5.60816
5.59703
5.58596
5.57496
5.56408
5.55331
5.54269
5.5322
5.52186
5.51166
5.50161
5.4917
5.48193
5.47231
5.46282
5.45347
5.44424
5.43514
5.42613
5.41722
5.40838
5.39961
5.39087
5.38216
5.37347
5.36477
5.35606
5.34732
5.33856
5.32975
5.3209
5.312
5.30303
5.294
5.2849
5.27571
5.26645
5.2571
5.24765
5.23812
5.22848
5.21875
5.20891
5.19898
5.18894
5.1788
5.16857
5.15825
5.14783
5.13733
5.12674
5.11607
5.1053
5.09443
5.08342
5.07222
5.06072
5.04874
5.03598
5.02198
5.00601
4.98702
4.9636
4.93394
-0.698902
-0.707039
-0.723826
-0.747629
-0.780406
-0.823308
-0.878154
-0.946354
-1.02856
-1.1244
-1.23335
-1.35476
-1.48817
-1.63337
-1.79036
-1.95916
-2.13956
-2.3313
-2.53417
-2.74819
-2.97392
-3.21262
-3.46604
-3.73585
-4.02294
-4.32715
-4.64673
-4.97864
-5.31959
-5.66691
-6.01989
-6.37912
-6.74682
-7.12628
-7.52114
-7.9348
-8.36863
-8.82173
-9.29059
-9.76929
-10.2501
-10.7235
-11.1774
-11.5959
-11.9593
-12.2457
-12.4333
-12.5028
-12.44
-12.2359
-11.8866
-11.395
-10.7716
-10.0344
-9.20745
-8.3193
-7.40033
-6.47948
-5.58261
-4.72982
-3.93466
-3.20475
-2.542
-1.94461
-1.40709
-0.92167
-0.480302
-0.0774598
0.289195
0.620485
0.918581
1.18862
1.43893
1.67818
1.91107
2.13655
2.35224
2.55833
2.75843
2.95865
3.16463
3.37557
3.58643
3.7916
3.98746
4.17269
4.34732
4.51171
4.66589
4.80935
4.94133
5.06122
5.16881
5.26413
5.34727
5.41851
5.47845
5.52809
5.56859
5.6011
5.62664
5.64608
5.66018
5.66962
5.67506
5.67714
5.67642
5.67343
5.66861
5.66235
5.65497
5.6467
5.63776
5.62832
5.61852
5.60847
5.59826
5.58797
5.57765
5.56735
5.55711
5.54694
5.53685
5.52686
5.51697
5.50719
5.49752
5.48796
5.47851
5.46917
5.45994
5.45083
5.44182
5.43291
5.4241
5.41535
5.40668
5.39805
5.38945
5.38088
5.3723
5.36372
5.35511
5.34647
5.3378
5.32907
5.32029
5.31146
5.30255
5.29357
5.28452
5.27537
5.26614
5.25682
5.24739
5.23787
5.22824
5.2185
5.20864
5.19868
5.1886
5.17841
5.1681
5.15768
5.14713
5.13647
5.12567
5.11474
5.10364
5.09235
5.08082
5.06897
5.05665
5.04367
5.02969
5.01424
4.99662
4.97587
4.95072
4.91966
-0.716035
-0.724792
-0.743725
-0.770626
-0.807172
-0.854612
-0.914796
-0.989366
-1.07988
-1.18715
-1.31176
-1.45364
-1.61212
-1.78607
-1.97431
-2.17576
-2.38931
-2.61384
-2.84837
-3.09244
-3.34664
-3.6128
-3.89346
-4.19119
-4.50757
-4.84224
-5.19236
-5.55325
-5.91944
-6.28617
-6.65114
-7.01442
-7.37847
-7.74772
-8.12758
-8.52336
-8.93812
-9.37158
-9.82054
-10.2794
-10.7403
-11.1947
-11.6314
-12.0359
-12.39
-12.6723
-12.8603
-12.9334
-12.8759
-12.6773
-12.3326
-11.8434
-11.2186
-10.4753
-9.6371
-8.7326
-7.79235
-6.8459
-5.91976
-5.03514
-4.20707
-3.44483
-2.7522
-2.12831
-1.56806
-1.06366
-0.60734
-0.193861
0.179557
0.515142
0.816989
1.0922
1.34941
1.59537
1.83248
2.05937
2.27512
2.48199
2.68543
2.8911
3.10124
3.31327
3.52278
3.7258
3.92009
4.10497
4.28051
4.44672
4.60315
4.7489
4.88306
5.00506
5.11474
5.21215
5.29738
5.37066
5.43261
5.48428
5.52687
5.56153
5.58926
5.61091
5.62722
5.63884
5.64642
5.65058
5.65186
5.65078
5.64777
5.64319
5.63736
5.63053
5.62293
5.61472
5.60605
5.59704
5.58779
5.57838
5.56887
5.55931
5.54975
5.5402
5.53069
5.52122
5.51182
5.50247
5.4932
5.48401
5.47489
5.46586
5.45692
5.44806
5.43928
5.43058
5.42196
5.4134
5.40489
5.39641
5.38796
5.37951
5.37106
5.3626
5.3541
5.34556
5.33698
5.32834
5.31964
5.31088
5.30204
5.29312
5.28411
5.27501
5.26582
5.25652
5.24712
5.23761
5.22799
5.21824
5.20838
5.19839
5.18827
5.17802
5.16764
5.15711
5.14644
5.13561
5.12461
5.11342
5.102
5.09031
5.07828
5.0658
5.05272
5.03879
5.0237
5.00695
4.98787
4.96559
4.93897
4.90674
-0.747813
-0.757833
-0.780697
-0.81392
-0.859331
-0.9178
-0.991765
-1.08386
-1.19691
-1.33216
-1.48977
-1.66854
-1.86638
-2.08054
-2.3083
-2.54691
-2.79366
-3.04633
-3.30382
-3.56652
-3.83628
-4.1157
-4.40753
-4.71381
-5.03502
-5.36941
-5.7131
-6.0609
-6.40742
-6.74833
-7.08209
-7.40979
-7.73446
-8.06115
-8.39538
-8.74266
-9.10617
-9.48842
-9.88627
-10.2952
-10.7089
-11.1198
-11.5181
-11.8907
-12.2214
-12.4902
-12.6756
-12.7573
-12.7182
-12.5466
-12.2356
-11.7852
-11.2023
-10.5005
-9.70089
-8.83055
-7.91879
-6.99396
-6.0818
-5.20354
-4.3753
-3.60781
-2.90669
-2.27236
-1.70086
-1.1857
-0.720628
-0.3013
0.0755376
0.41379
0.7197
1.00118
1.26563
1.5172
1.75665
1.98363
2.19989
2.41007
2.61962
2.83149
3.04493
3.25701
3.46471
3.66571
3.85877
4.0435
4.21977
4.38722
4.54502
4.69215
4.82772
4.95118
5.06233
5.16115
5.24778
5.32253
5.38609
5.43957
5.48415
5.52093
5.55084
5.57472
5.59329
5.60718
5.61696
5.62323
5.62653
5.62736
5.62614
5.62325
5.61899
5.61364
5.6074
5.60046
5.59296
5.58504
5.5768
5.56831
5.55965
5.55087
5.54202
5.53313
5.52422
5.51531
5.50641
5.49753
5.48868
5.47988
5.47112
5.46241
5.45375
5.44516
5.43662
5.42815
5.41973
5.41135
5.40302
5.3947
5.38639
5.37809
5.36976
5.36141
5.35303
5.3446
5.33611
5.32756
5.31895
5.31026
5.30149
5.29263
5.28368
5.27463
5.26548
5.25622
5.24684
5.23735
5.22773
5.21799
5.20811
5.1981
5.18794
5.17764
5.16718
5.15656
5.14576
5.13478
5.12358
5.11214
5.10041
5.08833
5.07582
5.06275
5.04895
5.03416
5.01805
5.00013
4.97977
4.95615
4.92829
4.89507
-0.797934
-0.811155
-0.840951
-0.8861
-0.94958
-1.03268
-1.13893
-1.27099
-1.4307
-1.61685
-1.82685
-2.05708
-2.30345
-2.56063
-2.82326
-3.08702
-3.34906
-3.6077
-3.86226
-4.1134
-4.36292
-4.61323
-4.86705
-5.12702
-5.39546
-5.67292
-5.95797
-6.24829
-6.53916
-6.82805
-7.11171
-7.3896
-7.66305
-7.93553
-8.21187
-8.49721
-8.79593
-9.1112
-9.44261
-9.78716
-10.1398
-10.4937
-10.8403
-11.1688
-11.4656
-11.7142
-11.8959
-11.9917
-11.9844
-11.8603
-11.6107
-11.2324
-10.729
-10.1107
-9.3954
-8.60644
-7.76996
-6.91171
-6.05536
-5.22133
-4.4261
-3.68158
-2.99489
-2.36793
-1.79875
-1.28349
-0.818141
-0.39915
-0.0225089
0.317333
0.627479
0.914986
1.18464
1.43867
1.67833
1.90619
2.12666
2.34442
2.56218
2.77972
2.99517
3.2066
3.41245
3.61164
3.8036
3.98799
4.1644
4.33212
4.49023
4.63787
4.77424
4.89868
5.01081
5.11055
5.1981
5.27395
5.33885
5.39388
5.44025
5.47901
5.51107
5.53722
5.5581
5.57428
5.5863
5.5947
5.60003
5.60278
5.60338
5.60221
5.59959
5.59576
5.59096
5.58535
5.5791
5.57233
5.56514
5.55764
5.54988
5.54193
5.53384
5.52564
5.51737
5.50905
5.50069
5.4923
5.48391
5.47552
5.46713
5.45877
5.45042
5.44211
5.43383
5.4256
5.41739
5.40921
5.40106
5.39291
5.38475
5.37659
5.36839
5.36017
5.35189
5.34357
5.33519
5.32673
5.31821
5.3096
5.3009
5.29211
5.28322
5.27423
5.26512
5.25589
5.24655
5.23708
5.22747
5.21773
5.20784
5.19781
5.18762
5.17726
5.16673
5.15602
5.1451
5.13397
5.12258
5.11089
5.09887
5.08642
5.07346
5.05984
5.04537
5.02979
5.01275
4.99379
4.9723
4.94755
4.91862
4.88457
-0.869624
-0.889476
-0.933306
-1.00258
-1.10314
-1.23649
-1.4049
-1.60598
-1.83528
-2.08575
-2.35022
-2.62066
-2.88985
-3.15149
-3.40094
-3.63511
-3.85198
-4.04996
-4.2313
-4.39938
-4.56139
-4.72363
-4.89326
-5.07509
-5.27103
-5.48206
-5.70686
-5.94225
-6.18347
-6.42626
-6.66646
-6.90172