/*--------------------------------*- C++ -*----------------------------------*\
  =========                 |
  \\      /  F ield         | OpenFOAM: The Open Source CFD Toolbox
   \\    /   O peration     | Website:  https://openfoam.org
    \\  /    A nd           | Version:  7
     \\/     M anipulation  |
\*---------------------------------------------------------------------------*/
FoamFile
{
    version     2.0;
    format      ascii;
    class       volVectorField;
    location    "0.056";
    object      U_0;
}
// * * * * * * * * * * * * * * * * * * * * * * * * * * * * * * * * * * * * * //

dimensions      [0 1 -1 0 0 0 0];

internalField   nonuniform List<vector> 
12225
(
(4.79557 0.189049 0)
(4.19917 0.121706 0)
(3.69623 0.111635 0)
(3.26558 0.101742 0)
(2.87159 0.0860808 0)
(2.52363 0.0668809 0)
(2.22714 0.0513069 0)
(1.96684 0.0439077 0)
(1.71759 0.0422606 0)
(1.47229 0.039091 0)
(1.24191 0.0309559 0)
(1.04115 0.0208204 0)
(0.873442 0.0116318 0)
(0.744378 0.0048644 0)
(0.63925 -0.000118051 0)
(0.568432 -0.00183575 0)
(0.484868 -0.0011155 0)
(0.429561 -0.0152424 0)
(5.02553 0.116605 0)
(4.88602 0.0773355 0)
(4.74626 0.100186 0)
(4.63955 0.0986115 0)
(4.5361 0.0932991 0)
(4.42209 0.0912981 0)
(4.28865 0.0904378 0)
(4.13807 0.0912235 0)
(3.97752 0.0947964 0)
(3.81502 0.0990032 0)
(3.65116 0.100406 0)
(3.49069 0.0963936 0)
(3.33517 0.0869673 0)
(3.19638 0.0747351 0)
(3.06892 0.0649215 0)
(2.95606 0.0577719 0)
(2.81949 0.0603039 0)
(2.71339 0.0583706 0)
(5.02656 0.193649 0)
(4.89461 0.138644 0)
(4.81838 0.148565 0)
(4.79724 0.148255 0)
(4.78357 0.142049 0)
(4.76252 0.135188 0)
(4.72961 0.130802 0)
(4.68414 0.130865 0)
(4.63199 0.134107 0)
(4.5812 0.137376 0)
(4.53331 0.138173 0)
(4.48304 0.133948 0)
(4.42636 0.123608 0)
(4.36055 0.10907 0)
(4.29104 0.0963211 0)
(4.21709 0.0919587 0)
(4.14697 0.0962441 0)
(4.07366 0.102003 0)
(4.94331 0.239687 0)
(4.88465 0.132061 0)
(4.83422 0.131006 0)
(4.80085 0.126573 0)
(4.7755 0.117128 0)
(4.75901 0.112648 0)
(4.75237 0.116075 0)
(4.74775 0.123931 0)
(4.73933 0.130866 0)
(4.72739 0.134616 0)
(4.7157 0.135432 0)
(4.703 0.133813 0)
(4.68722 0.129905 0)
(4.66277 0.123217 0)
(4.63269 0.117399 0)
(4.59675 0.115623 0)
(4.56773 0.119386 0)
(4.53958 0.125564 0)
(5.01235 0.251788 0)
(4.93386 0.141911 0)
(4.87408 0.139228 0)
(4.82154 0.152921 0)
(4.77391 0.150402 0)
(4.74357 0.137603 0)
(4.74035 0.12824 0)
(4.75542 0.128493 0)
(4.77136 0.13468 0)
(4.77541 0.140616 0)
(4.76656 0.143162 0)
(4.7497 0.141972 0)
(4.73107 0.138041 0)
(4.71249 0.131687 0)
(4.6957 0.125696 0)
(4.68023 0.122873 0)
(4.6701 0.124698 0)
(4.66223 0.129166 0)
(5.05524 0.259794 0)
(4.9381 0.175207 0)
(4.86549 0.160803 0)
(4.81356 0.165094 0)
(4.7767 0.154356 0)
(4.768 0.133005 0)
(4.78783 0.118005 0)
(4.81901 0.117657 0)
(4.84069 0.127849 0)
(4.84059 0.140462 0)
(4.82068 0.149729 0)
(4.79105 0.15292 0)
(4.76225 0.149996 0)
(4.73899 0.142369 0)
(4.72195 0.133807 0)
(4.70951 0.128286 0)
(4.70177 0.127657 0)
(4.69651 0.131211 0)
(4.95725 0.271209 0)
(4.95849 0.197348 0)
(4.91108 0.163899 0)
(4.85086 0.17521 0)
(4.80502 0.165921 0)
(4.78544 0.131855 0)
(4.79017 0.104157 0)
(4.80793 0.101627 0)
(4.82473 0.119715 0)
(4.8308 0.1437 0)
(4.82572 0.161293 0)
(4.81506 0.167089 0)
(4.8042 0.162195 0)
(4.79431 0.151365 0)
(4.78389 0.140209 0)
(4.77103 0.13316 0)
(4.75698 0.131549 0)
(4.74138 0.133995 0)
(4.89127 0.228236 0)
(4.90808 0.187393 0)
(4.84684 0.181904 0)
(4.82167 0.192876 0)
(4.85023 0.179252 0)
(4.87901 0.144149 0)
(4.88122 0.114537 0)
(4.86659 0.107821 0)
(4.85233 0.121647 0)
(4.84609 0.142872 0)
(4.8482 0.159048 0)
(4.85542 0.164411 0)
(4.86351 0.160282 0)
(4.86693 0.151878 0)
(4.86286 0.144523 0)
(4.84967 0.141436 0)
(4.83156 0.143203 0)
(4.80933 0.14735 0)
(4.97971 0.299589 0)
(4.94641 0.223595 0)
(4.92936 0.190782 0)
(4.91631 0.171695 0)
(4.91422 0.146837 0)
(4.9012 0.122652 0)
(4.86953 0.109506 0)
(4.83388 0.111884 0)
(4.81161 0.12604 0)
(4.80854 0.143255 0)
(4.81987 0.155564 0)
(4.83591 0.159846 0)
(4.8489 0.158083 0)
(4.8538 0.154737 0)
(4.85193 0.15324 0)
(4.84398 0.154916 0)
(4.83634 0.158897 0)
(4.8274 0.162841 0)
(4.9448 0.279554 0)
(4.96632 0.194423 0)
(4.97523 0.188502 0)
(4.96895 0.197688 0)
(4.93786 0.18671 0)
(4.89125 0.16502 0)
(4.84956 0.145369 0)
(4.82832 0.134486 0)
(4.82837 0.133207 0)
(4.84004 0.138099 0)
(4.85257 0.144232 0)
(4.85995 0.148019 0)
(4.86242 0.148789 0)
(4.86278 0.147685 0)
(4.86592 0.146951 0)
(4.872 0.147559 0)
(4.8836 0.150083 0)
(4.89475 0.153978 0)
(5.00544 0.302405 0)
(4.96058 0.227308 0)
(4.91737 0.182927 0)
(4.91563 0.174071 0)
(4.92978 0.174617 0)
(4.93121 0.16427 0)
(4.91818 0.142771 0)
(4.90133 0.124151 0)
(4.88932 0.120075 0)
(4.88528 0.130121 0)
(4.88794 0.145185 0)
(4.89368 0.156081 0)
(4.90005 0.159166 0)
(4.90525 0.155721 0)
(4.909 0.150034 0)
(4.91167 0.145501 0)
(4.91335 0.144373 0)
(4.91529 0.147378 0)
(5.03441 0.254439 0)
(5.01128 0.231111 0)
(4.9671 0.212769 0)
(4.93709 0.197604 0)
(4.94171 0.183113 0)
(4.95883 0.170482 0)
(4.96253 0.157652 0)
(4.94336 0.145757 0)
(4.90926 0.138356 0)
(4.87548 0.136652 0)
(4.85301 0.138421 0)
(4.84386 0.140412 0)
(4.8448 0.141082 0)
(4.85074 0.140883 0)
(4.85817 0.140971 0)
(4.86561 0.142715 0)
(4.87245 0.145888 0)
(4.88026 0.151281 0)
(5.08073 0.310327 0)
(4.99369 0.27635 0)
(4.96097 0.208287 0)
(4.95691 0.169556 0)
(4.96261 0.156369 0)
(4.97972 0.154646 0)
(4.99912 0.155405 0)
(5.00289 0.157336 0)
(4.98341 0.160958 0)
(4.94923 0.164613 0)
(4.91507 0.165659 0)
(4.89054 0.162614 0)
(4.87738 0.156213 0)
(4.87263 0.148406 0)
(4.87258 0.141042 0)
(4.87449 0.136115 0)
(4.87814 0.133677 0)
(4.88188 0.135332 0)
(5.02114 0.345801 0)
(5.09187 0.267616 0)
(5.08818 0.233767 0)
(5.01734 0.208449 0)
(4.95061 0.176805 0)
(4.92537 0.149612 0)
(4.93006 0.139564 0)
(4.94166 0.148431 0)
(4.94859 0.164689 0)
(4.95176 0.174868 0)
(4.95633 0.173447 0)
(4.96425 0.163534 0)
(4.97427 0.151616 0)
(4.98279 0.142752 0)
(4.98802 0.138645 0)
(4.98796 0.138539 0)
(4.98501 0.141051 0)
(4.97798 0.144617 0)
(5.06953 0.310575 0)
(5.07967 0.256782 0)
(5.05736 0.265605 0)
(5.03604 0.249347 0)
(5.0241 0.208616 0)
(5.00876 0.171327 0)
(4.9875 0.152796 0)
(4.96979 0.152322 0)
(4.96236 0.158484 0)
(4.96371 0.160722 0)
(4.96746 0.156267 0)
(4.96716 0.148265 0)
(4.96165 0.141302 0)
(4.9527 0.137735 0)
(4.94524 0.137531 0)
(4.9417 0.14006 0)
(4.94456 0.143527 0)
(4.95298 0.148883 0)
(4.96427 0.269182 0)
(4.96841 0.258421 0)
(4.97593 0.257783 0)
(4.97932 0.226617 0)
(4.98306 0.192767 0)
(4.98364 0.173858 0)
(4.9868 0.167087 0)
(4.9964 0.165171 0)
(5.01003 0.16483 0)
(5.02351 0.16568 0)
(5.03351 0.167474 0)
(5.0382 0.168612 0)
(5.03795 0.166903 0)
(5.03449 0.16098 0)
(5.02929 0.150183 0)
(5.02413 0.137037 0)
(5.02001 0.122903 0)
(5.01774 0.112263 0)
(5.05905 0.354695 0)
(5.01313 0.282253 0)
(4.98757 0.267001 0)
(4.96076 0.248056 0)
(4.95419 0.210742 0)
(4.96285 0.16878 0)
(4.97928 0.139758 0)
(4.99724 0.129625 0)
(5.01124 0.131962 0)
(5.01976 0.137695 0)
(5.02471 0.141983 0)
(5.02865 0.144813 0)
(5.03323 0.147558 0)
(5.03845 0.151418 0)
(5.043 0.155586 0)
(5.04496 0.158861 0)
(5.04405 0.160225 0)
(5.03926 0.158381 0)
(4.94812 0.331879 0)
(4.93617 0.347827 0)
(4.94028 0.303809 0)
(4.93425 0.23958 0)
(4.94345 0.18088 0)
(4.95902 0.138986 0)
(4.97673 0.119562 0)
(4.99545 0.119534 0)
(5.01262 0.130122 0)
(5.02718 0.142233 0)
(5.0389 0.149757 0)
(5.04731 0.150698 0)
(5.05339 0.146022 0)
(5.05841 0.138988 0)
(5.06463 0.132346 0)
(5.07217 0.128234 0)
(5.08247 0.12636 0)
(5.0938 0.126527 0)
(4.8605 0.249946 0)
(4.88406 0.261889 0)
(4.92245 0.269688 0)
(4.97183 0.239602 0)
(5.00417 0.179502 0)
(5.01099 0.121162 0)
(5.00888 0.0859905 0)
(5.00883 0.0756626 0)
(5.01305 0.0817776 0)
(5.02239 0.0951773 0)
(5.03663 0.109886 0)
(5.05341 0.12269 0)
(5.07013 0.131253 0)
(5.08553 0.134214 0)
(5.09982 0.130776 0)
(5.11319 0.122264 0)
(5.12628 0.109752 0)
(5.13858 0.0962 0)
(5.06819 0.315077 0)
(5.01315 0.250949 0)
(4.99869 0.185053 0)
(5.01223 0.153579 0)
(5.03229 0.142729 0)
(5.03884 0.134534 0)
(5.03767 0.12304 0)
(5.03731 0.109774 0)
(5.03778 0.0978631 0)
(5.03984 0.0889618 0)
(5.04708 0.0829501 0)
(5.06105 0.0790504 0)
(5.08039 0.0761835 0)
(5.10291 0.0736888 0)
(5.12669 0.0711921 0)
(5.14948 0.0691189 0)
(5.1698 0.0676602 0)
(5.18588 0.0676241 0)
(4.96368 0.375412 0)
(5.00519 0.305436 0)
(5.0456 0.215761 0)
(5.06729 0.154121 0)
(5.08415 0.122502 0)
(5.09728 0.104696 0)
(5.11119 0.0937059 0)
(5.12717 0.0882356 0)
(5.14165 0.0862702 0)
(5.15258 0.0837719 0)
(5.16144 0.0772013 0)
(5.16996 0.0663291 0)
(5.17856 0.0535186 0)
(5.18714 0.0420386 0)
(5.1956 0.0337417 0)
(5.2032 0.0291869 0)
(5.2098 0.0277089 0)
(5.21421 0.0281301 0)
(5.02767 0.340042 0)
(5.01402 0.221449 0)
(5.0405 0.15745 0)
(5.07148 0.14312 0)
(5.10085 0.13329 0)
(5.11816 0.115051 0)
(5.13014 0.09295 0)
(5.14507 0.0745854 0)
(5.16175 0.063768 0)
(5.17484 0.0593641 0)
(5.18249 0.0573711 0)
(5.18682 0.0546466 0)
(5.19169 0.0505066 0)
(5.20035 0.0463187 0)
(5.21507 0.0440969 0)
(5.23472 0.044689 0)
(5.25768 0.0480436 0)
(5.27969 0.0527451 0)
(5.00151 0.287927 0)
(5.00975 0.224974 0)
(5.0527 0.133221 0)
(5.10092 0.0842775 0)
(5.14041 0.0680946 0)
(5.16424 0.062575 0)
(5.17509 0.0546392 0)
(5.17762 0.0480372 0)
(5.17697 0.0487993 0)
(5.17983 0.0549849 0)
(5.19163 0.0584089 0)
(5.21233 0.0520644 0)
(5.23712 0.0344892 0)
(5.25955 0.0102949 0)
(5.27576 -0.0131461 0)
(5.28507 -0.0298376 0)
(5.28956 -0.0369976 0)
(5.29222 -0.0339849 0)
(5.03817 0.2329 0)
(5.08498 0.183456 0)
(5.13096 0.117647 0)
(5.14154 0.102817 0)
(5.13993 0.105103 0)
(5.14615 0.0998911 0)
(5.16059 0.0898977 0)
(5.18038 0.0800387 0)
(5.20552 0.0685349 0)
(5.23852 0.0516646 0)
(5.27943 0.0304878 0)
(5.32258 0.0111134 0)
(5.36042 7.75484e-05 0)
(5.38785 -7.40866e-05 0)
(5.40395 0.0080372 0)
(5.41098 0.0192638 0)
(5.41362 0.0288958 0)
(5.41573 0.033463 0)
(4.9606 0.166584 0)
(5.0426 0.114224 0)
(5.08522 0.0764463 0)
(5.11943 0.065752 0)
(5.1655 0.051882 0)
(5.21314 0.0316902 0)
(5.2537 0.0150061 0)
(5.29102 0.00444085 0)
(5.32858 -0.00358025 0)
(5.36296 -0.0121648 0)
(5.38824 -0.0207376 0)
(5.4008 -0.0280573 0)
(5.40166 -0.0325053 0)
(5.39542 -0.0342698 0)
(5.38976 -0.0346811 0)
(5.3897 -0.0345516 0)
(5.39816 -0.0345962 0)
(5.414 -0.0339385 0)
(5.0575 0.164337 0)
(5.12471 0.107784 0)
(5.21256 0.108907 0)
(5.27814 0.091361 0)
(5.30451 0.0668618 0)
(5.31287 0.0509896 0)
(5.32745 0.0407175 0)
(5.35649 0.0303517 0)
(5.39445 0.0170459 0)
(5.43271 0.0047939 0)
(5.46511 -0.00198761 0)
(5.48886 -0.00212991 0)
(5.5047 0.00206894 0)
(5.51484 0.00685257 0)
(5.52267 0.0086124 0)
(5.53062 0.00606003 0)
(5.54044 -0.000878447 0)
(5.55159 -0.00927226 0)
(4.92559 0.142223 0)
(4.9981 0.0124352 0)
(5.10555 -0.00189123 0)
(5.20265 0.0138832 0)
(5.27404 0.0155677 0)
(5.32911 0.00123523 0)
(5.38212 -0.0173789 0)
(5.43551 -0.035361 0)
(5.48148 -0.0499205 0)
(5.51291 -0.0579363 0)
(5.52867 -0.0588036 0)
(5.53425 -0.0541707 0)
(5.53732 -0.0476907 0)
(5.54343 -0.0430868 0)
(5.55444 -0.0423999 0)
(5.56861 -0.0451791 0)
(5.58374 -0.0500646 0)
(5.59624 -0.053936 0)
(4.96941 0.132987 0)
(5.17467 0.0664131 0)
(5.28679 0.0514085 0)
(5.3484 0.0300178 0)
(5.39952 0.00982401 0)
(5.45036 -0.00349028 0)
(5.49268 -0.0123931 0)
(5.51671 -0.0200761 0)
(5.5216 -0.0242045 0)
(5.51603 -0.0231249 0)
(5.51326 -0.0179612 0)
(5.52358 -0.012271 0)
(5.54922 -0.009055 0)
(5.58549 -0.00954697 0)
(5.62407 -0.0133149 0)
(5.65746 -0.0189849 0)
(5.68132 -0.0250028 0)
(5.69332 -0.0293934 0)
(5.00607 -0.030838 0)
(5.22905 -0.0765951 0)
(5.36981 -0.0400151 0)
(5.4272 -0.0354372 0)
(5.45564 -0.0412968 0)
(5.48906 -0.0467469 0)
(5.52454 -0.0505939 0)
(5.54517 -0.051848 0)
(5.54358 -0.0525649 0)
(5.52814 -0.0553925 0)
(5.51286 -0.0614048 0)
(5.5061 -0.0695113 0)
(5.5067 -0.077095 0)
(5.50891 -0.0816359 0)
(5.50608 -0.081554 0)
(5.49704 -0.0773184 0)
(5.48139 -0.070212 0)
(5.46467 -0.0622931 0)
(4.99958 0.0504724 0)
(5.07828 -0.00756251 0)
(5.01324 -0.00105179 0)
(4.91317 -0.0077902 0)
(4.81091 -0.0189555 0)
(4.69508 -0.0279572 0)
(4.57113 -0.0295488 0)
(4.456 -0.023432 0)
(4.35818 -0.0151879 0)
(4.27251 -0.010589 0)
(4.18697 -0.011109 0)
(4.09274 -0.014264 0)
(3.98888 -0.0167447 0)
(3.88205 -0.0170979 0)
(3.77914 -0.0158747 0)
(3.68629 -0.0146113 0)
(3.60291 -0.0145925 0)
(3.53108 -0.0158177 0)
(-0.0558211 0.125093 -8.23054e-21)
(-0.154272 0.0768677 8.17163e-21)
(-0.155494 -0.0311468 0)
(-0.0641837 -0.116656 0)
(0.0867461 -0.166776 0)
(0.270608 -0.193165 -7.90596e-21)
(0.462525 -0.201425 0)
(0.656448 -0.198097 0)
(0.845588 -0.188377 0)
(1.02545 -0.175294 0)
(1.19377 -0.160276 7.65728e-21)
(1.34913 -0.14372 0)
(1.48978 -0.125602 0)
(1.61397 -0.105784 0)
(1.71943 -0.0842942 0)
(1.80394 -0.0611109 7.47427e-21)
(1.86521 -0.0363192 0)
(1.90107 -0.0100259 0)
(1.91112 0.017877 0)
(1.89145 0.0465065 0)
(1.84257 0.0753822 0)
(1.76607 0.102854 0)
(1.66207 0.128581 0)
(1.53537 0.151602 7.01954e-21)
(1.38441 0.171374 -6.95033e-21)
(1.21798 0.188429 6.88216e-21)
(1.0334 0.202365 6.81623e-21)
(0.833952 0.208978 0)
(0.638807 0.222999 0)
(0.403844 0.219694 -6.64305e-21)
(0.201828 0.110509 -6.59588e-21)
(0.0912371 -0.0387 0)
(0.0311988 -0.104977 0)
(-0.0032806 -0.100475 -6.43608e-21)
(0.0320791 -0.083429 0)
(0.162365 -0.0681111 0)
(0.29717 -0.0365315 6.2511e-21)
(0.442842 0.0108329 0)
(0.613225 0.0357336 6.13635e-21)
(0.738949 -0.25564 1.21408e-20)
(0.754227 -0.630679 0)
(0.737965 -0.52576 0)
(0.55298 0.0606035 0)
(0.0189152 0.42621 0)
(-0.499333 0.410032 0)
(-1.00676 0.415342 1.16012e-20)
(-1.51753 0.42718 1.1583e-20)
(-2.01742 0.427013 1.15971e-20)
(-2.48628 0.400954 0)
(-2.90399 0.353904 -1.16937e-20)
(-3.26156 0.297439 0)
(-3.55893 0.242327 1.18149e-20)
(-3.80227 0.193932 1.18633e-20)
(-3.99931 0.153752 0)
(-4.15802 0.121405 0)
(-4.2855 0.095803 0)
(-4.38747 0.0756343 1.18951e-20)
(-4.46808 0.0594697 0)
(-4.53036 0.0460091 0)
(-4.57641 0.03439 0)
(-4.60751 0.0241901 0)
(-4.6247 0.0150538 0)
(-4.62872 0.00688422 0)
(-4.62098 -0.000386015 0)
(-4.60211 -0.00695931 0)
(-4.57306 -0.0129073 -1.10174e-20)
(-4.53458 -0.0181856 0)
(-4.48778 -0.0228362 0)
(-4.43349 -0.0267789 1.05285e-20)
(-4.37286 -0.0300295 1.03565e-20)
(-4.30684 -0.0326366 0)
(-4.23648 -0.0346129 -1.00063e-20)
(-4.16267 -0.0360761 9.83003e-21)
(-4.08612 -0.0371443 0)
(-4.00731 -0.0379784 -9.4776e-21)
(-3.92641 -0.0387607 0)
(-3.84331 -0.0396612 0)
(-3.75757 -0.0408403 8.95137e-21)
(-3.66852 -0.0424259 0)
(-3.57526 -0.0445085 -8.60066e-21)
(-3.47676 -0.0471393 0)
(-3.37189 -0.0503226 8.24815e-21)
(-3.25955 -0.0540046 8.07101e-21)
(-3.13881 -0.0580721 7.89347e-21)
(-3.00895 -0.0623676 1.54317e-20)
(-2.86959 -0.0667013 -1.50775e-20)
(-2.72074 -0.0708699 0)
(-2.56278 -0.0746786 0)
(-2.39647 -0.0779478 0)
(-2.22295 -0.0805176 -1.37011e-20)
(-2.04365 -0.0822732 -1.3376e-20)
(-1.86022 -0.0831639 1.3062e-20)
(-1.67437 -0.0832025 0)
(-1.48766 -0.082467 -1.24723e-20)
(-1.3014 -0.081085 -1.2198e-20)
(-1.11669 -0.0792088 -1.19377e-20)
(-0.934427 -0.0769961 0)
(-0.755196 -0.0745554 0)
(-0.579365 -0.0719506 0)
(-0.407232 -0.0692654 -1.1032e-20)
(-0.239226 -0.0662467 0)
(-0.07623 -0.0630066 0)
(0.0806183 -0.0594014 1.04783e-20)
(0.230523 -0.0551353 0)
(0.372231 -0.0503248 0)
(0.504259 -0.0450497 1.00079e-20)
(0.62547 -0.039469 0)
(0.73511 -0.0337841 0)
(0.832874 -0.0281996 -9.61054e-21)
(0.918895 -0.0228902 -9.4889e-21)
(0.993671 -0.0179826 0)
(1.05796 -0.0135494 9.25541e-21)
(1.11266 -0.00961629 0)
(1.15873 -0.00617108 -9.03002e-21)
(1.1971 -0.00317872 0)
(1.22863 -0.000596016 -8.8089e-21)
(1.25406 0.00163545 -8.69927e-21)
(1.27408 0.00354567 0)
(1.28927 0.00518239 0)
(1.30007 0.00658902 0)
(1.30702 0.00772668 0)
(1.31053 0.00869853 0)
(1.31068 0.0095945 0)
(1.30801 0.0102748 0)
(1.30297 0.0106785 -7.83411e-21)
(1.29599 0.0108448 7.72728e-21)
(1.2875 0.010835 0)
(1.27789 0.0106966 0)
(1.26749 0.0104628 0)
(1.25657 0.0101713 0)
(1.24534 0.00984024 1.43955e-20)
(1.234 0.00947226 0)
(1.22274 0.00906623 -1.39763e-20)
(1.21171 0.00862109 1.37677e-20)
(1.20106 0.00813771 0)
(1.19091 0.0076219 0)
(1.18137 0.00708414 0)
(1.1725 0.00653692 -1.29402e-20)
(1.16433 0.00599262 -1.27351e-20)
(1.15686 0.00546243 0)
(1.15009 0.00495655 -1.23274e-20)
(1.14397 0.00448392 -1.21248e-20)
(1.13846 0.00404851 1.19231e-20)
(1.1335 0.00364617 0)
(1.12905 0.00327957 0)
(1.12505 0.00294711 1.13237e-20)
(1.12145 0.00264919 0)
(1.11821 0.00238726 0)
(1.11529 0.00215845 0)
(1.11264 0.00195431 0)
(1.11023 0.00176428 -1.03447e-20)
(1.10801 0.00158122 -1.0152e-20)
(1.10594 0.00140518 0)
(1.10401 0.00124114 -9.76967e-21)
(1.10219 0.00109314 0)
(1.10044 0.000971306 0)
(1.09874 0.000878987 -9.20409e-21)
(1.09706 0.00081227 0)
(1.09536 0.000767839 -8.83228e-21)
(1.0936 0.000748525 0)
(1.0917 0.000755712 0)
(1.08966 0.000784721 -8.28235e-21)
(1.08736 0.000836849 0)
(1.08485 0.00090742 -7.92082e-21)
(1.08188 0.00100583 0)
(1.07863 0.00112636 0)
(1.07462 0.0012924 0)
(1.07028 0.0014888 7.20924e-21)
(1.06463 0.00176708 0)
(1.0586 0.00208135 -6.85862e-21)
(1.05036 0.00255728 0)
(1.04153 0.00304876 0)
(1.02923 0.00391507 0)
(1.01512 0.00463268 0)
(0.997137 0.00641874 0)
(0.970924 0.00719845 0)
(0.948406 0.0116483 0)
(0.887569 0.0110798 1.09574e-20)
(0.879494 0.024563 0)
(0.706187 0.0149022 0)
(-0.0370604 0.298056 2.4725e-20)
(-0.0716674 0.149273 -2.4556e-20)
(0.00357581 -0.16452 0)
(0.144465 -0.401604 1.61106e-20)
(0.320165 -0.533826 0)
(0.502395 -0.592068 7.89628e-21)
(0.683163 -0.603034 -1.57269e-20)
(0.859954 -0.587454 -1.56221e-20)
(1.03112 -0.558386 0)
(1.19578 -0.522379 -1.54416e-20)
(1.35344 -0.481952 -7.65057e-21)
(1.50285 -0.437533 0)
(1.64184 -0.388607 0)
(1.76742 -0.33468 0)
(1.87656 -0.275464 0)
(1.9663 -0.211158 -7.46968e-21)
(2.03414 -0.142619 0)
(2.07816 -0.070579 1.48351e-20)
(2.09616 0.0027664 0)
(2.08964 0.0768327 0)
(2.05974 0.148066 -1.44963e-20)
(2.00687 0.215058 0)
(1.93425 0.276027 1.42226e-20)
(1.84531 0.327345 -7.01192e-21)
(1.74122 0.375875 6.94169e-21)
(1.63139 0.407597 -6.87246e-21)
(1.50751 0.442902 -6.80539e-21)
(1.38774 0.461433 0)
(1.26331 0.458672 0)
(1.13835 0.487184 6.62831e-21)
(1.05458 0.415561 -6.57851e-21)
(0.910032 0.305679 0)
(0.806314 0.242667 0)
(0.739984 0.0943432 6.42432e-21)
(0.655018 -0.170001 0)
(0.702322 -0.412275 0)
(0.906767 -0.390159 -6.24126e-21)
(0.986118 -0.539941 0)
(0.788033 -0.561427 6.16135e-21)
(0.462054 0.0526168 -1.21493e-20)
(-0.286322 0.648499 0)
(-1.00929 0.869275 0)
(-1.49021 1.01765 -2.38192e-20)
(-1.9538 1.08678 -2.36307e-20)
(-2.36577 1.08572 -2.35062e-20)
(-2.76941 1.07507 1.18984e-20)
(-3.13169 1.02782 -1.15327e-20)
(-3.45065 0.94905 -3.50357e-20)
(-3.71981 0.842429 2.35609e-20)
(-3.94512 0.72283 1.1661e-20)
(-4.13173 0.603963 0)
(-4.28673 0.495449 -1.17924e-20)
(-4.41567 0.401706 1.20683e-20)
(-4.52356 0.32339 0)
(-4.61412 0.259048 0)
(-4.69014 0.206316 0)
(-4.75334 0.162655 -1.18853e-20)
(-4.80459 0.125644 0)
(-4.8442 0.0932054 2.3704e-20)
(-4.87229 0.0638917 0)
(-4.88887 0.0369069 2.33771e-20)
(-4.89379 0.0117835 0)
(-4.88749 -0.0116231 -2.2929e-20)
(-4.8698 -0.0332496 0)
(-4.84115 -0.0530874 2.23788e-20)
(-4.8022 -0.07106 -1.10611e-20)
(-4.75388 -0.0870323 0)
(-4.69709 -0.100944 -2.14196e-20)
(-4.63303 -0.112727 -1.0524e-20)
(-4.5627 -0.122399 -1.03521e-20)
(-4.4873 -0.130059 0)
(-4.40785 -0.13587 -1.00196e-20)
(-4.32527 -0.140137 -9.82629e-21)
(-4.2403 -0.143268 0)
(-4.15338 -0.145767 9.47427e-21)
(-4.06466 -0.148168 -1.86111e-20)
(-3.97397 -0.150985 0)
(-3.8808 -0.154677 -8.94855e-21)
(-3.78442 -0.159611 0)
(-3.68388 -0.166045 2.58125e-20)
(-3.57806 -0.174114 0)
(-3.4658 -0.183825 -2.47582e-20)
(-3.34597 -0.195012 -8.06869e-21)
(-3.21761 -0.207338 7.91395e-21)
(-3.07999 -0.220335 1.54736e-20)
(-2.93274 -0.233442 -1.51195e-20)
(-2.77588 -0.246061 0)
(-2.60983 -0.25761 0)
(-2.43537 -0.267559 0)
(-2.25367 -0.275428 4.11319e-20)
(-2.06617 -0.280864 1.33724e-20)
(-1.87456 -0.283707 -1.30586e-20)
(-1.68052 -0.283992 0)
(-1.48564 -0.281954 -1.2498e-20)
(-1.29119 -0.27798 1.21953e-20)
(-1.09826 -0.272538 1.19354e-20)
(-0.907664 -0.266121 0)
(-0.719893 -0.259161 0)
(-0.535182 -0.251887 0)
(-0.353659 -0.244305 1.10307e-20)
(-0.175666 -0.236218 0)
(-0.00217874 -0.227351 -2.1317e-20)
(0.166058 -0.217282 -3.14385e-20)
(0.328193 -0.205448 2.06283e-20)
(0.482679 -0.191934 0)
(0.62808 -0.17696 1.0013e-20)
(0.763229 -0.160977 0)
(0.887372 -0.144568 1.94739e-20)
(1.00023 -0.128328 -9.61325e-21)
(1.10197 -0.112769 -9.49115e-21)
(1.19313 -0.0982655 0)
(1.27447 -0.0850365 -2.77618e-20)
(1.34691 -0.0731625 1.82821e-20)
(1.41142 -0.062616 9.02695e-21)
(1.46894 -0.0533002 0)
(1.52035 -0.0450842 8.80566e-21)
(1.56643 -0.0378219 2.60907e-20)
(1.60789 -0.0313871 0)
(1.64524 -0.0256624 1.69577e-20)
(1.67902 -0.0205425 1.67402e-20)
(1.70954 -0.0159854 1.65232e-20)
(1.73704 -0.0119028 0)
(1.76199 -0.00821224 0)
(1.78453 -0.00498338 0)
(1.8048 -0.00225885 -7.83107e-21)
(1.82291 -1.45251e-05 -7.72282e-21)
(1.83901 0.001786 0)
(1.85331 0.00318259 -1.50206e-20)
(1.86601 0.00422864 -1.48084e-20)
(1.87738 0.00496668 0)
(1.88772 0.00543477 -1.43856e-20)
(1.8973 0.00566771 -2.83521e-20)
(1.90639 0.00569533 1.39662e-20)
(1.91521 0.00554925 1.37582e-20)
(1.92396 0.00526419 0)
(1.93277 0.00487589 0)
(1.94172 0.00441879 0)
(1.95087 0.00392499 1.29299e-20)
(1.9602 0.00342232 -1.2725e-20)
(1.9697 0.00293351 -2.50413e-20)
(1.97932 0.00247516 1.23172e-20)
(1.989 0.00205568 -1.21147e-20)
(1.99868 0.00167806 -1.1913e-20)
(2.0083 0.00135071 0)
(2.01785 0.00106604 0)
(2.02726 0.000818824 1.13139e-20)
(2.0365 0.000604386 0)
(2.04555 0.000416499 0)
(2.05437 0.000253336 -2.14475e-20)
(2.06297 0.000119591 0)
(2.07131 2.27009e-05 -1.03355e-20)
(2.07936 -3.32629e-05 1.01429e-20)
(2.08708 -5.28035e-05 0)
(2.09442 -4.67549e-05 -9.76094e-21)
(2.10135 -2.1932e-05 0)
(2.10787 1.1099e-05 0)
(2.11396 5.40502e-05 9.19584e-21)
(2.1196 0.000114836 -1.80192e-20)
(2.12477 0.000196497 8.82437e-21)
(2.12946 0.000298562 0)
(2.13364 0.000424709 0)
(2.1373 0.000577337 -8.27506e-21)
(2.14038 0.000768801 0)
(2.14292 0.000994618 -7.91395e-21)
(2.14477 0.00128114 0)
(2.14606 0.00160667 0)
(2.14651 0.0020413 0)
(2.14636 0.00250583 -7.20295e-21)
(2.14512 0.00319547 0)
(2.14313 0.00385635 6.85267e-21)
(2.13972 0.0050369 0)
(2.13509 0.0059526 0)
(2.12885 0.00815956 -1.26662e-20)
(2.11959 0.00930117 1.23219e-20)
(2.11006 0.0138294 0)
(2.09094 0.0147962 0)
(2.07977 0.0249583 0)
(2.03576 0.0240997 -3.28544e-20)
(2.03382 0.0485039 0)
(1.92195 0.0416651 2.05657e-20)
(-0.0325835 0.352601 3.95883e-23)
(0.0304563 0.0104066 3.27984e-20)
(0.198893 -0.463636 0)
(0.379203 -0.766489 -3.22323e-20)
(0.55188 -0.907767 0)
(0.71101 -0.947902 0)
(0.861796 -0.936166 -8.01808e-23)
(1.00991 -0.902112 1.56073e-20)
(1.15897 -0.859552 1.56045e-20)
(1.31016 -0.812621 1.54287e-20)
(1.4621 -0.76055 0)
(1.61146 -0.700684 0)
(1.75388 -0.630552 -1.53176e-20)
(1.88469 -0.548553 -3.05083e-20)
(1.99931 -0.454576 3.03773e-20)
(2.09372 -0.349532 0)
(2.16433 -0.235384 3.00788e-20)
(2.20856 -0.115334 -1.48286e-20)
(2.22392 0.00741262 0)
(2.20996 0.128109 2.94629e-20)
(2.16653 0.243169 1.44902e-20)
(2.09547 0.346915 -2.8917e-20)
(2.00249 0.434234 -1.42166e-20)
(1.89177 0.508022 0)
(1.77496 0.558947 2.79968e-20)
(1.65266 0.602836 2.76889e-20)
(1.53653 0.626438 0)
(1.43531 0.633944 2.70958e-20)
(1.32683 0.652911 0)
(1.24947 0.577574 2.65397e-20)
(1.15277 0.555541 1.31517e-20)
(1.08013 0.466082 0)
(1.00028 0.151096 0)
(0.889668 0.143698 0)
(1.00308 0.0631844 0)
(0.957011 -0.502064 0)
(0.680338 -0.532592 0)
(0.119314 0.325505 2.47657e-20)
(-0.673396 0.949487 -3.68983e-20)
(-1.2457 1.28485 0)
(-1.74996 1.45458 0)
(-2.15566 1.51788 0)
(-2.50442 1.58933 -2.39563e-22)
(-2.81634 1.60819 2.35689e-20)
(-3.08419 1.5801 4.73203e-20)
(-3.32817 1.51077 -4.72583e-20)
(-3.53422 1.40281 -2.38794e-20)
(-3.71301 1.26374 2.34581e-20)
(-3.86522 1.10607 4.42043e-22)
(-3.99954 0.944384 2.40503e-20)
(-4.11929 0.791831 0)
(-4.22801 0.656119 2.41597e-20)
(-4.32699 0.5403 2.80168e-22)
(-4.41722 0.44367 0)
(-4.49882 0.363531 0)
(-4.57157 0.296331 -2.41551e-20)
(-4.63489 0.238578 0)
(-4.68816 0.187361 0)
(-4.73064 0.140463 2.40269e-20)
(-4.76151 0.0964036 4.74179e-20)
(-4.78 0.0543639 -2.33817e-20)
(-4.78568 0.0140681 0)
(-4.77855 -0.0244257 2.29331e-20)
(-4.75887 -0.0606616 0)
(-4.72729 -0.0940986 2.25619e-20)
(-4.68478 -0.124274 2.20764e-20)
(-4.63249 -0.150923 -4.36429e-20)
(-4.57176 -0.17387 -2.1533e-20)
(-4.50395 -0.193095 0)
(-4.4304 -0.208649 4.15379e-20)
(-4.35241 -0.220698 0)
(-4.27116 -0.229595 6.01257e-20)
(-4.18767 -0.235857 3.93863e-20)
(-4.10271 -0.240224 3.86752e-20)
(-4.0167 -0.24358 -3.79694e-20)
(-3.92971 -0.246864 5.58809e-20)
(-3.84144 -0.250978 0)
(-3.7513 -0.256709 0)
(-3.65837 -0.264682 -3.51838e-20)
(-3.56156 -0.275318 -5.17045e-20)
(-3.45962 -0.288815 0)
(-3.35124 -0.305147 1.65124e-20)
(-3.23517 -0.324023 0)
(-3.11038 -0.344858 -4.74879e-20)
(-2.97612 -0.366829 7.59692e-23)
(-2.83199 -0.388962 -7.62158e-23)
(-2.67809 -0.410216 2.95606e-20)
(-2.51495 -0.429588 0)
(-2.34348 -0.446186 -2.81723e-20)
(-2.16495 -0.459224 6.68146e-23)
(-1.98098 -0.468114 0)
(-1.79334 -0.472606 0)
(-1.60382 -0.472782 0)
(-1.41399 -0.469051 2.49626e-20)
(-1.22501 -0.462072 0)
(-1.03776 -0.45266 0)
(-0.852788 -0.441683 0)
(-0.670289 -0.429917 0)
(-0.490152 -0.417812 0)
(-0.312261 -0.405402 2.21067e-20)
(-0.136791 -0.392443 0)
(0.0354041 -0.378245 2.13118e-20)
(0.203406 -0.361697 2.09572e-20)
(0.365891 -0.342303 -2.06225e-20)
(0.520792 -0.319953 0)
(0.666262 -0.295065 -2.00129e-20)
(0.80087 -0.268476 0)
(0.923798 -0.241235 -1.94698e-20)
(1.03488 -0.214389 1.92172e-20)
(1.13449 -0.188812 5.69405e-20)
(1.22338 -0.165123 0)
(1.30251 -0.143675 5.55364e-20)
(1.37293 -0.124591 1.82944e-20)
(1.43564 -0.107829 0)
(1.49158 -0.0932355 3.56793e-20)
(1.54161 -0.0805886 3.52368e-20)
(1.58649 -0.0696419 -5.219e-20)
(1.62695 -0.0601389 0)
(1.66366 -0.0518325 -1.69566e-20)
(1.69724 -0.0445184 -1.67391e-20)
(1.72822 -0.0380121 -4.95731e-20)
(1.75702 -0.0321978 0)
(1.78395 -0.0270237 0)
(1.8092 -0.0224224 0)
(1.83287 -0.0183649 -1.56641e-20)
(1.85502 -0.0148367 0)
(1.87568 -0.0118313 0)
(1.89492 -0.00934034 1.50198e-20)
(1.91291 -0.00734253 1.48076e-20)
(1.92979 -0.00582614 0)
(1.94576 -0.00477423 0)
(1.96105 -0.00415439 2.83501e-20)
(1.9759 -0.00392087 0)
(1.99052 -0.0040209 -2.75135e-20)
(2.00509 -0.00438959 -2.70983e-20)
(2.01978 -0.00495059 0)
(2.03466 -0.00562744 0)
(2.0498 -0.00634967 2.58578e-20)
(2.06519 -0.00705755 -5.14084e-25)
(2.08081 -0.00770533 -4.24233e-25)
(2.09662 -0.00826216 0)
(2.11254 -0.00871284 4.84524e-20)
(2.1285 -0.00905478 0)
(2.14445 -0.00928653 0)
(2.16031 -0.00942713 0)
(2.17603 -0.00949146 -2.26242e-20)
(2.19158 -0.00948892 0)
(2.20694 -0.00942931 4.36707e-20)
(2.22208 -0.00932117 2.14438e-20)
(2.23697 -0.00916932 0)
(2.25158 -0.00897436 2.06672e-20)
(2.26591 -0.00873447 0)
(2.27992 -0.00844974 0)
(2.29363 -0.0081234 5.85543e-20)
(2.30701 -0.00775432 -3.82785e-20)
(2.32002 -0.00735141 0)
(2.33263 -0.00692073 -3.67759e-20)
(2.34479 -0.00646149 1.80153e-20)
(2.35647 -0.00596956 0)
(2.36762 -0.00544572 0)
(2.37822 -0.00488265 0)
(2.3882 -0.0042769 4.96391e-20)
(2.39752 -0.00362038 0)
(2.40611 -0.00293166 1.5824e-20)
(2.41396 -0.00217788 0)
(2.42101 -0.00139695 0)
(2.42729 -0.000483992 0)
(2.43266 0.000446622 0)
(2.43726 0.0016699 0)
(2.44071 0.00283456 0)
(2.4435 0.00467804 2.67115e-20)
(2.44456 0.00617494 0)
(2.44543 0.00931064 1.26627e-20)
(2.44304 0.0112029 -3.69606e-20)
(2.44211 0.0171619 0)
(2.43385 0.0193324 0)
(2.4322 0.0316625 2.25919e-20)
(2.4125 0.0334602 2.18996e-20)
(2.41405 0.0602421 -2.12385e-20)
(2.37165 0.061371 -2.05581e-20)
(-0.0214132 0.302938 -4.96769e-20)
(0.158641 -0.333597 -4.9297e-20)
(0.375967 -0.879612 -3.26175e-20)
(0.555015 -1.14381 -1.6248e-20)
(0.699062 -1.22745 0)
(0.827172 -1.23074 3.19455e-20)
(0.954949 -1.20837 -1.59762e-20)
(1.09129 -1.18131 0)
(1.23901 -1.15288 -1.55935e-20)
(1.39647 -1.1185 0)
(1.55909 -1.07137 3.11544e-20)
(1.72031 -1.00551 0)
(1.87331 -0.917354 1.53058e-20)
(2.01206 -0.806253 3.04857e-20)
(2.13209 -0.673671 -3.03562e-20)
(2.22985 -0.522313 0)
(2.30266 -0.355855 -3.00621e-20)
(2.34775 -0.178307 0)
(2.36321 0.00413706 0)
(2.34668 0.185615 -2.94491e-20)
(2.29423 0.357738 0)
(2.2066 0.511504 -3.14353e-22)
(2.08854 0.640549 0)
(1.94824 0.734171 0)
(1.79504 0.800913 1.97114e-22)
(1.64143 0.832937 -2.76801e-20)
(1.49213 0.832781 -2.75051e-20)
(1.34378 0.834576 -2.70933e-20)
(1.23521 0.784967 0)
(1.1091 0.76881 -5.31206e-20)
(0.99956 0.694804 0)
(0.951219 0.532501 -2.60139e-20)
(0.760676 0.548153 0)
(0.679176 0.0980383 0)
(0.718742 -0.344402 2.53047e-20)
(0.220508 0.230904 0)
(-0.57014 0.954254 -2.49601e-20)
(-1.18113 1.43418 8.89274e-23)
(-1.68823 1.71618 4.91387e-20)
(-2.05744 1.88261 -4.90183e-20)
(-2.36885 1.95504 0)
(-2.62197 1.98425 0)
(-2.85581 1.98693 -2.46564e-20)
(-3.05946 1.95334 0)
(-3.23951 1.88109 -2.38491e-20)
(-3.39582 1.77076 2.38447e-20)
(-3.52792 1.62641 2.38713e-20)
(-3.64252 1.45728 0)
(-3.74269 1.27696 -2.3985e-20)
(-3.83404 1.09838 -2.40526e-20)
(-3.91979 0.932457 4.89621e-20)
(-4.00309 0.785194 -2.41657e-20)
(-4.08541 0.658769 -2.41992e-20)
(-4.16695 0.55192 0)
(-4.24631 0.461449 0)
(-4.32112 0.383277 2.41638e-20)
(-4.38847 0.313433 0)
(-4.44571 0.248701 0)
(-4.49068 0.186838 -4.77539e-20)
(-4.52187 0.126495 -4.74381e-20)
(-4.53853 0.0671186 0)
(-4.54053 0.00906513 0)
(-4.52807 -0.046967 0)
(-4.5019 -0.0996541 0)
(-4.46316 -0.147942 -4.49624e-20)
(-4.41336 -0.191109 4.45243e-20)
(-4.35426 -0.22869 4.36602e-20)
(-4.28762 -0.260486 8.60832e-20)
(-4.21513 -0.286483 0)
(-4.13836 -0.306867 9.5408e-23)
(-4.0587 -0.322019 0)
(-3.97742 -0.332558 -4.01167e-20)
(-3.89557 -0.339381 5.92774e-23)
(-3.8139 -0.343645 -3.86889e-20)
(-3.73271 -0.346685 3.79823e-20)
(-3.65184 -0.349883 5.56114e-23)
(-3.5707 -0.35452 0)
(-3.48836 -0.361699 3.59524e-20)
(-3.40366 -0.3723 3.51934e-20)
(-3.31524 -0.38691 6.90731e-20)
(-3.22162 -0.405771 0)
(-3.12127 -0.428774 -3.31886e-20)
(-3.01272 -0.455453 0)
(-2.89479 -0.484939 6.34729e-20)
(-2.76671 -0.516002 -3.09783e-20)
(-2.62811 -0.547191 3.02688e-20)
(-2.47914 -0.576962 -2.95624e-20)
(-2.3205 -0.603828 -5.79202e-20)
(-2.1533 -0.626522 2.81728e-20)
(-1.97903 -0.644012 -2.74973e-20)
(-1.79972 -0.655566 0)