/*--------------------------------*- C++ -*----------------------------------*\
  =========                 |
  \\      /  F ield         | OpenFOAM: The Open Source CFD Toolbox
   \\    /   O peration     | Website:  https://openfoam.org
    \\  /    A nd           | Version:  7
     \\/     M anipulation  |
\*---------------------------------------------------------------------------*/
FoamFile
{
    version     2.0;
    format      ascii;
    class       volVectorField;
    location    "0.056";
    object      UMean;
}
// * * * * * * * * * * * * * * * * * * * * * * * * * * * * * * * * * * * * * //

dimensions      [0 1 -1 0 0 0 0];

internalField   nonuniform List<vector> 
12225
(
(4.77446 0.164837 0)
(4.18046 0.111623 0)
(3.72045 0.0980193 0)
(3.3531 0.0811652 0)
(3.02404 0.0676826 0)
(2.71868 0.0578119 0)
(2.43753 0.0493498 0)
(2.18437 0.0414489 0)
(1.96287 0.0330512 0)
(1.7734 0.0255629 0)
(1.61821 0.017149 0)
(1.4923 0.0119242 0)
(1.39862 0.00338254 0)
(1.32652 0.00358452 0)
(1.27957 -0.00854583 0)
(1.24915 0.00283991 0)
(1.23408 -0.0253503 0)
(1.24584 -0.000554039 0)
(5.01831 0.112526 0)
(4.87293 0.0730381 0)
(4.75603 0.0890281 0)
(4.6673 0.0883202 0)
(4.57553 0.0865731 0)
(4.47286 0.0867262 0)
(4.36094 0.0868071 0)
(4.24563 0.0847576 0)
(4.12928 0.0811172 0)
(4.0175 0.0745904 0)
(3.90885 0.0679009 0)
(3.81096 0.0579816 0)
(3.71638 0.0511443 0)
(3.63879 0.0391618 0)
(3.55874 0.0357171 0)
(3.50411 0.0200153 0)
(3.43696 0.0188616 0)
(3.40214 -0.0137081 0)
(4.997 0.172776 0)
(4.87795 0.122583 0)
(4.79928 0.130359 0)
(4.76836 0.124414 0)
(4.75279 0.116836 0)
(4.73724 0.113133 0)
(4.71945 0.110788 0)
(4.70014 0.107982 0)
(4.67959 0.102866 0)
(4.65726 0.0967515 0)
(4.63326 0.0877984 0)
(4.60727 0.0798789 0)
(4.58103 0.0686148 0)
(4.55374 0.0618522 0)
(4.52916 0.0493501 0)
(4.50372 0.0439925 0)
(4.48473 0.0275767 0)
(4.46008 0.00981459 0)
(4.99575 0.189135 0)
(4.90028 0.120245 0)
(4.82336 0.118719 0)
(4.78869 0.114288 0)
(4.77545 0.106923 0)
(4.76786 0.102537 0)
(4.76264 0.100632 0)
(4.76032 0.0983763 0)
(4.76083 0.0948468 0)
(4.76295 0.0893161 0)
(4.76559 0.0829555 0)
(4.76759 0.0749474 0)
(4.76932 0.0674515 0)
(4.76993 0.0584138 0)
(4.77191 0.0507904 0)
(4.77271 0.040444 0)
(4.77766 0.0289358 0)
(4.77786 0.0122055 0)
(4.99495 0.214105 0)
(4.92287 0.143964 0)
(4.85408 0.134921 0)
(4.81766 0.130102 0)
(4.80272 0.12081 0)
(4.79467 0.113129 0)
(4.7892 0.108151 0)
(4.78658 0.103986 0)
(4.78732 0.0987738 0)
(4.79055 0.0924629 0)
(4.79544 0.0848296 0)
(4.80084 0.0768044 0)
(4.80685 0.0679728 0)
(4.81286 0.0592302 0)
(4.82001 0.0498117 0)
(4.82732 0.0392197 0)
(4.83634 0.026989 0)
(4.84336 0.00909342 0)
(4.99332 0.229854 0)
(4.93988 0.158702 0)
(4.88085 0.140649 0)
(4.8454 0.133641 0)
(4.83016 0.123315 0)
(4.82277 0.113616 0)
(4.8178 0.106747 0)
(4.81498 0.101276 0)
(4.81496 0.0955035 0)
(4.81737 0.0886387 0)
(4.82154 0.0808625 0)
(4.82652 0.0723427 0)
(4.83225 0.063479 0)
(4.8382 0.0541854 0)
(4.84512 0.0443802 0)
(4.85208 0.0334496 0)
(4.85999 0.0204567 0)
(4.86604 0.00442524 0)
(4.99519 0.244214 0)
(4.95595 0.175084 0)
(4.90602 0.150179 0)
(4.87205 0.140285 0)
(4.8562 0.129203 0)
(4.84914 0.118166 0)
(4.8449 0.10951 0)
(4.84245 0.102656 0)
(4.84235 0.0959438 0)
(4.84445 0.0884671 0)
(4.84825 0.0801583 0)
(4.85284 0.0712282 0)
(4.85813 0.0619273 0)
(4.86353 0.0521504 0)
(4.86966 0.0419101 0)
(4.87545 0.0304757 0)
(4.88183 0.0176505 0)
(4.88602 0.00260146 0)
(5.00151 0.254297 0)
(4.97371 0.189304 0)
(4.93323 0.159433 0)
(4.90233 0.145795 0)
(4.88629 0.133666 0)
(4.87901 0.121474 0)
(4.87491 0.111103 0)
(4.87247 0.102617 0)
(4.8721 0.0947948 0)
(4.8738 0.0866105 0)
(4.87718 0.0778062 0)
(4.88133 0.0684852 0)
(4.88608 0.0588234 0)
(4.89079 0.0487619 0)
(4.89601 0.0381865 0)
(4.90062 0.0266944 0)
(4.90561 0.0141268 0)
(4.90831 0.000102279 0)
(5.00085 0.262137 0)
(4.98243 0.201674 0)
(4.95056 0.168437 0)
(4.9233 0.151106 0)
(4.90792 0.137791 0)
(4.90114 0.124875 0)
(4.89805 0.113261 0)
(4.89661 0.103367 0)
(4.89683 0.0944322 0)
(4.89875 0.0855317 0)
(4.90212 0.0762651 0)
(4.90621 0.0665801 0)
(4.91079 0.0566108 0)
(4.91524 0.0462916 0)
(4.91995 0.0355638 0)
(4.92389 0.0241371 0)
(4.92793 0.0119853 0)
(4.92982 -0.00103198 0)
(4.99731 0.267962 0)
(4.98594 0.212768 0)
(4.9614 0.177802 0)
(4.93808 0.157095 0)
(4.92386 0.141895 0)
(4.91761 0.127892 0)
(4.91536 0.115026 0)
(4.91475 0.103749 0)
(4.91538 0.0936645 0)
(4.9173 0.0840084 0)
(4.92045 0.0742841 0)
(4.92427 0.0643269 0)
(4.92853 0.0541558 0)
(4.93266 0.0437263 0)
(4.93685 0.0330008 0)
(4.94027 0.0218261 0)
(4.94351 0.0102332 0)
(4.94492 -0.00177665 0)
(4.98904 0.270841 0)
(4.9818 0.220199 0)
(4.9632 0.184489 0)
(4.94408 0.161334 0)
(4.93153 0.144406 0)
(4.92567 0.129467 0)
(4.92367 0.115717 0)
(4.92338 0.103413 0)
(4.9242 0.0924058 0)
(4.92609 0.0820652 0)
(4.92907 0.0718612 0)
(4.93267 0.0615574 0)
(4.93669 0.0511334 0)
(4.9405 0.0405852 0)
(4.94432 0.0299097 0)
(4.94729 0.0190337 0)
(4.95016 0.00801414 0)
(4.95129 -0.00311249 0)
(5.00164 0.275056 0)
(4.99587 0.227981 0)
(4.98028 0.192149 0)
(4.96356 0.166963 0)
(4.95194 0.148177 0)
(4.946 0.132157 0)
(4.94368 0.117558 0)
(4.94313 0.104322 0)
(4.94374 0.0923546 0)
(4.94537 0.0812573 0)
(4.94806 0.07058 0)
(4.95135 0.0600356 0)
(4.95509 0.0495204 0)
(4.9586 0.0390025 0)
(4.96212 0.0284658 0)
(4.96474 0.0179 0)
(4.96734 0.00734566 0)
(4.96824 -0.00309299 0)
(5.00106 0.277746 0)
(4.99875 0.232452 0)
(4.98741 0.196951 0)
(4.97405 0.170601 0)
(4.96432 0.150341 0)
(4.95924 0.133266 0)
(4.95733 0.117886 0)
(4.95702 0.103861 0)
(4.95765 0.0910672 0)
(4.95909 0.0792345 0)
(4.96143 0.0679956 0)
(4.96431 0.0570859 0)
(4.96765 0.0463805 0)
(4.97076 0.0358329 0)
(4.97394 0.0254331 0)
(4.97621 0.0151863 0)
(4.97859 0.00512449 0)
(4.97929 -0.00466818 0)
(5.01311 0.281185 0)
(5.01351 0.238874 0)
(5.00515 0.203884 0)
(4.99445 0.176196 0)
(4.98674 0.15419 0)
(4.983 0.135818 0)
(4.98207 0.119622 0)
(4.98259 0.104909 0)
(4.98391 0.0914091 0)
(4.98571 0.0788947 0)
(4.98805 0.0671322 0)
(4.99063 0.0559054 0)
(4.99351 0.0450727 0)
(4.99609 0.0345559 0)
(4.99874 0.0243173 0)
(5.00051 0.0143598 0)
(5.00252 0.00469855 0)
(5.00296 -0.00457259 0)
(5.00846 0.279568 0)
(5.01182 0.24122 0)
(5.00753 0.207164 0)
(5.00078 0.178604 0)
(4.99587 0.155143 0)
(4.99383 0.135444 0)
(4.99402 0.118242 0)
(4.99551 0.102765 0)
(4.99773 0.0886242 0)
(5.00031 0.0755928 0)
(5.00322 0.0634678 0)
(5.00624 0.0520557 0)
(5.00943 0.0412024 0)
(5.01234 0.0308081 0)
(5.01525 0.0208198 0)
(5.01744 0.0112312 0)
(5.01972 0.00204385 0)
(5.02075 -0.00667206 0)
(5.00776 0.281921 0)
(5.01247 0.245401 0)
(5.01094 0.211855 0)
(5.00743 0.182769 0)
(5.0054 0.158216 0)
(5.00546 0.137306 0)
(5.007 0.119022 0)
(5.00935 0.102654 0)
(5.01212 0.0878089 0)
(5.01505 0.0742342 0)
(5.01811 0.0617039 0)
(5.02115 0.0500264 0)
(5.02422 0.0390403 0)
(5.02702 0.0286738 0)
(5.02976 0.0188572 0)
(5.03191 0.00962454 0)
(5.03411 0.000899992 0)
(5.03534 -0.00719364 0)
(5.00203 0.278978 0)
(5.00704 0.242602 0)
(5.0073 0.209295 0)
(5.00666 0.179831 0)
(5.00763 0.15437 0)
(5.0102 0.132494 0)
(5.01362 0.113494 0)
(5.01734 0.0966793 0)
(5.02119 0.0815356 0)
(5.02504 0.0677449 0)
(5.02888 0.0550877 0)
(5.03255 0.043405 0)
(5.03612 0.0325367 0)
(5.0393 0.0223861 0)
(5.04236 0.0128373 0)
(5.0448 0.00389451 0)
(5.04731 -0.00454063 0)
(5.04892 -0.0123755 0)
(5.00865 0.28357 0)
(5.01535 0.245114 0)
(5.01811 0.21036 0)
(5.02032 0.17985 0)
(5.02412 0.15343 0)
(5.02922 0.130643 0)
(5.03472 0.110874 0)
(5.04006 0.0935079 0)
(5.04513 0.0780386 0)
(5.04987 0.064117 0)
(5.05438 0.0514914 0)
(5.05854 0.0399966 0)
(5.06248 0.0294655 0)
(5.06594 0.0198052 0)
(5.06923 0.0108633 0)
(5.07187 0.00262292 0)
(5.07454 -0.00508662 0)
(5.07624 -0.0121649 0)
(5.00347 0.276342 0)
(5.01378 0.236427 0)
(5.02079 0.199986 0)
(5.02706 0.167928 0)
(5.03457 0.14047 0)
(5.04307 0.117138 0)
(5.05161 0.0971102 0)
(5.05961 0.0795946 0)
(5.067 0.0640151 0)
(5.07377 0.0500198 0)
(5.08002 0.0373707 0)
(5.08565 0.0258997 0)
(5.09076 0.0154381 0)
(5.09519 0.00588375 0)
(5.09923 -0.00289909 0)
(5.10255 -0.0109337 0)
(5.10577 -0.0183688 0)
(5.10813 -0.0251404 0)
(5.00103 0.273818 0)
(5.01182 0.229058 0)
(5.0216 0.189254 0)
(5.03228 0.15555 0)
(5.04444 0.127647 0)
(5.0568 0.104523 0)
(5.06814 0.0850855 0)
(5.07814 0.0684993 0)
(5.08707 0.0541728 0)
(5.09521 0.041685 0)
(5.10272 0.0306875 0)
(5.10953 0.0209086 0)
(5.11567 0.0120943 0)
(5.121 0.00410241 0)
(5.12579 -0.00323906 0)
(5.12977 -0.00995451 0)
(5.13345 -0.0162186 0)
(5.13625 -0.0219505 0)
(4.9972 0.27158 0)
(5.01046 0.218812 0)
(5.0246 0.174271 0)
(5.04054 0.138585 0)
(5.05764 0.110093 0)
(5.07401 0.0866231 0)
(5.0885 0.0665983 0)
(5.10101 0.0492426 0)
(5.11192 0.0342224 0)
(5.12157 0.0212893 0)
(5.13015 0.0101267 0)
(5.13765 0.000414223 0)
(5.14423 -0.00814902 0)
(5.14985 -0.0157647 0)
(5.15487 -0.022631 0)
(5.15904 -0.0288299 0)
(5.16296 -0.0345206 0)
(5.16597 -0.0396883 0)
(5.0059 0.265874 0)
(5.02369 0.203986 0)
(5.0446 0.156106 0)
(5.06687 0.121156 0)
(5.08821 0.095429 0)
(5.10683 0.0753345 0)
(5.12257 0.0586587 0)
(5.13621 0.0444341 0)
(5.14848 0.0322543 0)
(5.15959 0.0217941 0)
(5.16953 0.0126806 0)
(5.17819 0.00460911 0)
(5.18574 -0.00266271 0)
(5.19219 -0.00924972 0)
(5.19789 -0.0152847 0)
(5.20263 -0.0207957 0)
(5.20699 -0.0259412 0)
(5.21031 -0.0306795 0)
(5.00105 0.26006 0)
(5.0282 0.186529 0)
(5.06053 0.133126 0)
(5.09244 0.0964766 0)
(5.12023 0.0696962 0)
(5.14268 0.0479113 0)
(5.16077 0.0294334 0)
(5.17606 0.0141761 0)
(5.18953 0.00195159 0)
(5.2014 -0.00788774 0)
(5.21171 -0.016102 0)
(5.22043 -0.0232228 0)
(5.22787 -0.0295222 0)
(5.23412 -0.0351073 0)
(5.2396 -0.0400789 0)
(5.24412 -0.0445184 0)
(5.24826 -0.0485612 0)
(5.25142 -0.0522561 0)
(5.00691 0.244687 0)
(5.04307 0.16393 0)
(5.08636 0.114551 0)
(5.1255 0.086709 0)
(5.15631 0.0676089 0)
(5.18005 0.0506863 0)
(5.19986 0.0353522 0)
(5.2177 0.0223771 0)
(5.23382 0.0118507 0)
(5.24776 0.00320064 0)
(5.25939 -0.00420182 0)
(5.26893 -0.0107167 0)
(5.2769 -0.0165195 0)
(5.28356 -0.0216973 0)
(5.28934 -0.0263909 0)
(5.29411 -0.0306709 0)
(5.29843 -0.0346808 0)
(5.30178 -0.0383889 0)
(5.00596 0.227982 0)
(5.0591 0.126092 0)
(5.12096 0.0715418 0)
(5.17037 0.0434009 0)
(5.20409 0.0232155 0)
(5.22801 0.00552064 0)
(5.24796 -0.00860765 0)
(5.26602 -0.0186799 0)
(5.28205 -0.0258896 0)
(5.29557 -0.0316608 0)
(5.30672 -0.0367489 0)
(5.31595 -0.0413388 0)
(5.32385 -0.0454421 0)
(5.3306 -0.0491021 0)
(5.33655 -0.0524111 0)
(5.3415 -0.0554529 0)
(5.34594 -0.0583008 0)
(5.34932 -0.0609808 0)
(5.01641 0.212008 0)
(5.09144 0.112729 0)
(5.17114 0.0770097 0)
(5.22698 0.0604515 0)
(5.26152 0.0421874 0)
(5.28683 0.0239428 0)
(5.30965 0.00958913 0)
(5.33049 -0.000465543 0)
(5.34813 -0.00787488 0)
(5.36227 -0.0140276 0)
(5.37359 -0.0194709 0)
(5.38285 -0.0243111 0)
(5.39071 -0.0286033 0)
(5.39731 -0.0324405 0)
(5.40299 -0.0359377 0)
(5.40762 -0.0391513 0)
(5.41171 -0.04215 0)
(5.41482 -0.0449119 0)
(5.00731 0.158737 0)
(5.12197 0.0343336 0)
(5.22119 0.00646168 0)
(5.27799 -0.00315564 0)
(5.30981 -0.017411 0)
(5.33501 -0.0298707 0)
(5.35894 -0.0375612 0)
(5.38051 -0.0422604 0)
(5.39838 -0.0459387 0)
(5.41267 -0.0493022 0)
(5.42431 -0.0523586 0)
(5.43409 -0.0550664 0)
(5.44253 -0.0574661 0)
(5.44973 -0.0596531 0)
(5.45598 -0.06168 0)
(5.46113 -0.0636001 0)
(5.46569 -0.0654263 0)
(5.4692 -0.0671884 0)
(5.01304 0.152445 0)
(5.17562 0.0577435 0)
(5.29872 0.0437691 0)
(5.35834 0.0273096 0)
(5.3906 0.00810777 0)
(5.41836 -0.00554142 0)
(5.44445 -0.0135839 0)
(5.46688 -0.0190911 0)
(5.48493 -0.0237873 0)
(5.49926 -0.0280498 0)
(5.51086 -0.0318318 0)
(5.5204 -0.035183 0)
(5.52822 -0.0381614 0)
(5.53445 -0.0408951 0)
(5.53926 -0.0433907 0)
(5.54273 -0.0457556 0)
(5.54516 -0.0479521 0)
(5.5465 -0.0500921 0)
(5.01563 0.0191871 0)
(5.2276 -0.0516969 0)
(5.35328 -0.0344209 0)
(5.40624 -0.0429841 0)
(5.43548 -0.0531607 0)
(5.45836 -0.0577604 0)
(5.4755 -0.059502 0)
(5.48541 -0.0607632 0)
(5.4882 -0.0620673 0)
(5.48521 -0.063296 0)
(5.47767 -0.0643199 0)
(5.46667 -0.0651579 0)
(5.45264 -0.0658242 0)
(5.43633 -0.0664115 0)
(5.41764 -0.0669071 0)
(5.39764 -0.0674214 0)
(5.37556 -0.0679026 0)
(5.35326 -0.0684969 0)
(4.96713 0.0696471 0)
(5.10214 -0.000866518 0)
(5.07349 -0.000942019 0)
(4.959 -0.0112782 0)
(4.83101 -0.0189138 0)
(4.7063 -0.0218782 0)
(4.58526 -0.0229849 0)
(4.4662 -0.0237082 0)
(4.34864 -0.0242802 0)
(4.23324 -0.0246584 0)
(4.12073 -0.0248363 0)
(4.01186 -0.0248561 0)
(3.90668 -0.0247605 0)
(3.80563 -0.0246066 0)
(3.70801 -0.0244098 0)
(3.6147 -0.0242213 0)
(3.52396 -0.0240151 0)
(3.43815 -0.02388 0)
(-0.00445653 -0.00327111 1.6438e-21)
(0.0115235 -0.0339774 -1.63373e-21)
(0.0514991 -0.0547578 0)
(0.100269 -0.0641683 0)
(0.153173 -0.0672081 0)
(0.206752 -0.0668472 1.58118e-21)
(0.259618 -0.0647302 0)
(0.310978 -0.061752 0)
(0.360333 -0.0582902 0)
(0.407297 -0.0544201 0)
(0.451397 -0.050036 -1.4853e-21)
(0.491959 -0.0449399 0)
(0.528021 -0.0389054 0)
(0.558389 -0.0317186 0)
(0.581587 -0.0232025 0)
(0.596038 -0.0132544 -1.37296e-21)
(0.600007 -0.00181631 0)
(0.592039 0.0110603 0)
(0.570748 0.0252562 0)
(0.534122 0.0404267 0)
(0.481575 0.0559136 0)
(0.413124 0.070875 0)
(0.329724 0.0842738 0)
(0.233091 0.0949307 -1.28085e-21)
(0.125999 0.101585 1.2764e-21)
(0.011531 0.10315 -1.27099e-21)
(-0.106141 0.0995217 -1.26395e-21)
(-0.221918 0.0896391 0)
(-0.330213 0.0742336 0)
(-0.427415 0.0492942 1.23149e-21)
(-0.505016 0.0183971 1.21777e-21)
(-0.567722 -0.000225098 0)
(-0.629037 -0.00182353 0)
(-0.698961 0.00927088 1.17054e-21)
(-0.779726 0.0319425 0)
(-0.873415 0.0545 0)
(-0.978496 0.0624952 -1.11658e-21)
(-1.09316 0.0627813 0)
(-1.21672 0.0741763 -1.07386e-21)
(-1.35264 0.0916719 -2.10121e-21)
(-1.49471 0.100199 0)
(-1.63101 0.112062 0)
(-1.76586 0.120564 0)
(-1.88873 0.110084 0)
(-1.99139 0.0922221 0)
(-2.07511 0.0756517 -1.78709e-21)
(-2.14088 0.0602227 -1.74125e-21)
(-2.18943 0.0459557 -1.70207e-21)
(-2.22167 0.0327428 0)
(-2.23837 0.0204994 1.64748e-21)
(-2.24035 0.00922489 0)
(-2.22847 -0.00106554 -1.62695e-21)
(-2.2039 -0.0103412 -1.62917e-21)
(-2.16753 -0.0186051 0)
(-2.12055 -0.0258443 0)
(-2.0641 -0.0320854 0)
(-1.99935 -0.0373531 -1.70666e-21)
(-1.92737 -0.0417185 0)
(-1.84939 -0.0452253 0)
(-1.76637 -0.0479566 0)
(-1.6793 -0.0499691 0)
(-1.5891 -0.0513487 0)
(-1.49661 -0.0521643 0)
(-1.40258 -0.052503 0)
(-1.30762 -0.0524371 0)
(-1.21231 -0.0520493 2.04041e-21)
(-1.11708 -0.0514039 0)
(-1.02229 -0.050575 0)
(-0.928176 -0.0496336 -2.13535e-21)
(-0.834875 -0.0486394 -2.16268e-21)
(-0.74244 -0.0476444 0)
(-0.650864 -0.0466807 2.21101e-21)
(-0.56009 -0.0457698 -2.23219e-21)
(-0.470035 -0.044928 0)
(-0.380612 -0.0441598 2.26911e-21)
(-0.291705 -0.0434632 0)
(-0.203192 -0.0428405 0)
(-0.114962 -0.0422723 -2.31246e-21)
(-0.0269438 -0.0417303 0)
(0.0608236 -0.0411612 2.33423e-21)
(0.148223 -0.0405088 0)
(0.235021 -0.0397295 -2.35007e-21)
(0.320899 -0.0387853 -2.35551e-21)
(0.405506 -0.0376665 -2.35914e-21)
(0.488487 -0.0363826 -4.72179e-21)
(0.569527 -0.0349606 4.72147e-21)
(0.648377 -0.0334321 0)
(0.724828 -0.0318266 0)
(0.798696 -0.0301697 0)
(0.869836 -0.0284854 4.68314e-21)
(0.938129 -0.0267801 4.66481e-21)
(1.00348 -0.0250643 -4.64325e-21)
(1.06583 -0.023348 0)
(1.12511 -0.0216341 4.59115e-21)
(1.18129 -0.0199373 4.56099e-21)
(1.23435 -0.0182629 4.5284e-21)
(1.28429 -0.0166168 0)
(1.33111 -0.0150168 0)
(1.37482 -0.0134504 0)
(1.41546 -0.0119399 4.37834e-21)
(1.45304 -0.0104693 0)
(1.48762 -0.00905247 0)
(1.51925 -0.00768597 -4.2514e-21)
(1.54798 -0.00637928 0)
(1.5739 -0.00514117 0)
(1.59709 -0.00398072 -4.11826e-21)
(1.61768 -0.00290613 0)
(1.63582 -0.00192355 0)
(1.65165 -0.00103628 3.98352e-21)
(1.66535 -0.000244642 3.93885e-21)
(1.67708 0.000453711 0)
(1.68702 0.00106318 -3.85036e-21)
(1.69533 0.00158943 0)
(1.70216 0.00203888 3.76333e-21)
(1.70766 0.00241789 0)
(1.71196 0.0027329 3.67797e-21)
(1.71518 0.00298977 3.63593e-21)
(1.71743 0.00319405 0)
(1.71883 0.00335203 0)
(1.71947 0.00346909 0)
(1.71944 0.00355191 0)
(1.71882 0.00360406 0)
(1.71768 0.00362164 0)
(1.71612 0.00360251 0)
(1.71422 0.00355108 3.31498e-21)
(1.71203 0.00347361 -3.27667e-21)
(1.70963 0.0033755 0)
(1.70707 0.00326121 0)
(1.7044 0.00313424 0)
(1.70166 0.00299759 0)
(1.69888 0.00285371 -6.18114e-21)
(1.6961 0.00270483 0)
(1.69333 0.00255322 6.03703e-21)
(1.69061 0.00240112 -5.96593e-21)
(1.68795 0.00225072 0)
(1.68536 0.0021041 0)
(1.68284 0.00196304 0)
(1.68041 0.00182898 5.68752e-21)
(1.67805 0.00170294 5.61934e-21)
(1.67577 0.00158562 0)
(1.67357 0.00147733 5.48459e-21)
(1.67144 0.00137807 5.41799e-21)
(1.66937 0.00128753 -5.35189e-21)
(1.66735 0.00120534 0)
(1.66539 0.00113108 0)
(1.66347 0.00106431 -5.15649e-21)
(1.66158 0.00100456 0)
(1.65972 0.000951264 0)
(1.65788 0.000903851 0)
(1.65606 0.000861884 0)
(1.65425 0.000825101 4.83995e-21)
(1.65245 0.000793494 4.77794e-21)
(1.65064 0.000767156 0)
(1.64882 0.000746164 4.65516e-21)
(1.64698 0.000730595 0)
(1.64512 0.000720416 0)
(1.64322 0.000715412 4.47404e-21)
(1.64128 0.000715559 0)
(1.63928 0.000721088 4.3553e-21)
(1.63721 0.000732599 0)
(1.63504 0.00075061 0)
(1.63278 0.000776075 4.1802e-21)
(1.63036 0.00081054 0)
(1.62782 0.000855567 4.06553e-21)
(1.62501 0.000915253 0)
(1.62205 0.000990133 0)
(1.6186 0.00109209 0)
(1.615 0.0012129 -3.84165e-21)
(1.61049 0.00139177 0)
(1.60587 0.00158069 3.73298e-21)
(1.59958 0.00191653 0)
(1.59318 0.00219287 0)
(1.58392 0.00289724 0)
(1.57395 0.0032223 0)
(1.56005 0.00493016 0)
(1.54125 0.00496358 0)
(1.52176 0.00985433 0)
(1.47595 0.00810305 -6.68969e-21)
(1.45721 0.0253577 0)
(1.31268 0.0189458 0)
(-0.00193202 -0.011647 -4.9301e-21)
(0.0114949 -0.0871492 4.89946e-21)
(0.038181 -0.132683 0)
(0.0677418 -0.151637 -3.21477e-21)
(0.0984867 -0.156679 0)
(0.129302 -0.155007 -1.58235e-21)
(0.160182 -0.150333 3.12179e-21)
(0.190954 -0.14428 3.08528e-21)
(0.221422 -0.137287 0)
(0.251232 -0.129152 3.00422e-21)
(0.279862 -0.119351 1.48637e-21)
(0.306497 -0.107217 0)
(0.330034 -0.0920366 0)
(0.3491 -0.0731678 0)
(0.362091 -0.0501243 0)
(0.367346 -0.0226986 1.37394e-21)
(0.363185 0.00899557 0)
(0.348108 0.0443907 -2.6441e-21)
(0.320735 0.0825383 0)
(0.281392 0.12208 0)
(0.229327 0.161202 2.56534e-21)
(0.164215 0.198083 0)
(0.0867333 0.231137 -2.54165e-21)
(-0.0020639 0.259164 1.28191e-21)
(-0.10043 0.280804 -1.27749e-21)
(-0.206079 0.294029 1.2721e-21)
(-0.316209 0.297031 1.2651e-21)
(-0.427605 0.288035 0)
(-0.536853 0.26855 0)
(-0.642868 0.240636 -1.2327e-21)
(-0.749738 0.21039 1.20012e-21)
(-0.868505 0.199464 0)
(-0.996031 0.212391 0)
(-1.12653 0.229137 -1.1717e-21)
(-1.25318 0.240255 0)
(-1.38043 0.253001 0)
(-1.51604 0.276219 1.11778e-21)
(-1.66169 0.301137 0)
(-1.80402 0.320732 -1.00938e-21)
(-1.93736 0.328564 2.10366e-21)
(-2.05877 0.316507 0)
(-2.15782 0.291149 0)
(-2.23853 0.257536 3.74717e-21)
(-2.30411 0.217952 3.64207e-21)
(-2.35573 0.177789 3.54048e-21)
(-2.39421 0.13892 -1.65705e-21)
(-2.41971 0.101869 1.74324e-21)
(-2.43243 0.0668643 4.9967e-21)
(-2.43284 0.0339432 -3.2381e-21)
(-2.42132 0.00316335 -1.64908e-21)
(-2.39846 -0.0253985 0)
(-2.36483 -0.0516466 1.62833e-21)
(-2.32092 -0.0755099 -1.55575e-21)
(-2.26762 -0.096915 0)
(-2.20567 -0.115823 0)
(-2.13593 -0.132236 0)
(-2.05925 -0.146184 1.70761e-21)
(-1.97664 -0.157777 0)
(-1.88885 -0.16712 -3.51239e-21)
(-1.79683 -0.174378 0)
(-1.70142 -0.17972 -3.67356e-21)
(-1.60337 -0.183338 0)
(-1.50338 -0.185433 3.83745e-21)
(-1.40206 -0.186203 0)
(-1.30003 -0.18584 -3.99384e-21)
(-1.19779 -0.18455 2.02602e-21)
(-1.09575 -0.182519 0)
(-0.994234 -0.179964 4.20017e-21)
(-0.893456 -0.177076 2.13574e-21)
(-0.793508 -0.17405 2.16304e-21)
(-0.694409 -0.171027 0)
(-0.596112 -0.168119 2.20061e-21)
(-0.49854 -0.165378 2.23247e-21)
(-0.401594 -0.162835 0)
(-0.305174 -0.160495 -2.26934e-21)
(-0.209164 -0.158355 4.5598e-21)
(-0.113432 -0.156427 0)
(-0.0178357 -0.154668 2.31263e-21)
(0.0777291 -0.152996 0)
(0.173252 -0.151252 -6.99292e-21)
(0.268609 -0.149261 0)
(0.363547 -0.146868 7.04144e-21)
(0.457712 -0.143968 2.35559e-21)
(0.550707 -0.140522 -2.35148e-21)
(0.642139 -0.136567 -4.70774e-21)
(0.731675 -0.132183 4.70862e-21)
(0.819071 -0.127472 0)
(0.904134 -0.122531 0)
(0.986692 -0.117435 0)
(1.06662 -0.112238 -1.40406e-20)
(1.14382 -0.106975 -4.6648e-21)
(1.21822 -0.101667 4.64322e-21)
(1.28973 -0.0963377 0)
(1.35832 -0.0910102 4.58535e-21)
(1.42395 -0.0857144 -4.56092e-21)
(1.4866 -0.0804773 -4.52832e-21)
(1.54628 -0.0753215 0)
(1.60298 -0.0702746 0)
(1.65673 -0.0653405 0)
(1.70756 -0.060533 -4.37821e-21)
(1.75549 -0.0558488 0)
(1.80056 -0.0512942 8.58646e-21)
(1.84282 -0.0468733 1.27514e-20)
(1.88231 -0.0426078 -8.41247e-21)
(1.91911 -0.0385222 0)
(1.95329 -0.0346428 -4.11632e-21)
(1.98497 -0.0309939 0)
(2.01427 -0.027594 -8.05484e-21)
(2.04136 -0.0244537 3.98191e-21)
(2.06637 -0.021575 3.93733e-21)
(2.08947 -0.0189522 0)
(2.11082 -0.016574 1.15492e-20)
(2.13055 -0.0144253 -7.61176e-21)
(2.14881 -0.0124891 -3.76306e-21)
(2.16573 -0.0107481 0)
(2.1814 -0.00918561 -3.67768e-21)
(2.19594 -0.00778618 -1.09062e-20)
(2.20945 -0.00653586 0)
(2.22199 -0.00542159 -7.10513e-21)
(2.23365 -0.00443211 -7.0237e-21)
(2.24451 -0.00355688 -6.94312e-21)
(2.25463 -0.00278752 0)
(2.26408 -0.00212009 0)
(2.27289 -0.00155019 0)
(2.28113 -0.00106935 3.31431e-21)
(2.28882 -0.000667713 3.27631e-21)
(2.29603 -0.000336492 0)
(2.30278 -6.73646e-05 6.40138e-21)
(2.30911 0.000148042 6.32698e-21)
(2.31507 0.000316929 0)
(2.32068 0.000445591 6.18039e-21)
(2.32597 0.000539936 1.22158e-20)
(2.33096 0.000605608 -6.03627e-21)
(2.33567 0.000647967 -5.965e-21)
(2.34013 0.000671967 0)
(2.34434 0.000682016 0)
(2.34831 0.000681988 0)
(2.35206 0.000675164 -5.68676e-21)
(2.35559 0.000664211 5.61851e-21)
(2.35891 0.000651211 1.11018e-20)
(2.36202 0.000637684 -5.48383e-21)
(2.36493 0.000624718 5.41719e-21)
(2.36765 0.000613072 5.35114e-21)
(2.37018 0.000603225 0)
(2.37253 0.000595406 0)
(2.3747 0.000589796 -5.15572e-21)
(2.3767 0.000586514 0)
(2.37853 0.000585735 0)
(2.3802 0.000587621 9.92902e-21)
(2.38172 0.000592293 0)
(2.38307 0.000599741 4.83921e-21)
(2.38428 0.000609906 -4.77723e-21)
(2.38533 0.000622791 0)
(2.38625 0.000638664 4.65443e-21)
(2.38702 0.000657998 0)
(2.38765 0.000681527 0)
(2.38814 0.000710218 -4.47337e-21)
(2.3885 0.000745091 8.82756e-21)
(2.38872 0.000787572 -4.35464e-21)
(2.3888 0.000838924 0)
(2.38872 0.000902276 0)
(2.3885 0.000978901 4.17945e-21)
(2.3881 0.00107583 0)
(2.38754 0.00119146 4.06475e-21)
(2.38674 0.0013443 0)
(2.38574 0.00152021 0)
(2.3844 0.00177167 0)
(2.38281 0.00203884 3.84104e-21)
(2.3807 0.00247648 0)
(2.37819 0.00287316 -3.73238e-21)
(2.37491 0.00369251 0)
(2.37082 0.0042428 0)
(2.36577 0.00592046 7.14902e-21)
(2.35859 0.00655185 -7.04802e-21)
(2.35103 0.0103557 0)
(2.33688 0.0106661 0)
(2.32652 0.0203421 0)
(2.29469 0.0193542 2.00485e-20)
(2.2848 0.0478884 0)
(2.20774 0.0472309 -1.30504e-20)
(0.00110448 -0.0212789 6.00292e-24)
(0.00946882 -0.119155 -6.5265e-21)
(0.0233322 -0.170772 0)
(0.0348648 -0.189942 6.42435e-21)
(0.0460911 -0.194888 0)
(0.0574792 -0.193783 0)
(0.0698729 -0.190267 -1.24001e-23)
(0.0833702 -0.185449 -3.08714e-21)
(0.0978824 -0.17921 -3.03351e-21)
(0.112985 -0.170789 -3.00603e-21)
(0.128016 -0.159111 0)
(0.142044 -0.142974 0)
(0.153819 -0.12115 2.84543e-21)
(0.161856 -0.0926098 5.5882e-21)
(0.164385 -0.0566602 -5.48609e-21)
(0.159637 -0.0132051 0)
(0.145644 0.0372575 -5.29581e-21)
(0.120905 0.0934438 2.6455e-21)
(0.0838869 0.15361 0)
(0.0343501 0.21551 -5.09027e-21)
(-0.0280945 0.276654 -2.56675e-21)
(-0.102743 0.334215 5.02301e-21)
(-0.187785 0.38553 2.54309e-21)
(-0.280524 0.428081 0)
(-0.37879 0.459907 -4.98376e-21)
(-0.480879 0.478992 -4.97104e-21)
(-0.585208 0.483491 0)
(-0.691088 0.47258 -4.92464e-21)
(-0.797828 0.44587 0)
(-0.907394 0.411569 -4.83315e-21)
(-1.02889 0.400323 -2.42057e-21)
(-1.16141 0.410707 0)
(-1.29451 0.424845 0)
(-1.42461 0.438481 0)
(-1.55752 0.454127 0)
(-1.6978 0.481696 0)
(-1.83477 0.513806 0)
(-1.96153 0.52575 -4.10222e-21)
(-2.06967 0.513438 6.07712e-21)
(-2.15975 0.485512 0)
(-2.23534 0.444665 0)
(-2.29691 0.396442 0)
(-2.34709 0.34314 -2.02005e-22)
(-2.38709 0.286925 -3.64395e-21)
(-2.4178 0.230396 -6.89055e-21)
(-2.43905 0.174976 6.7101e-21)
(-2.45059 0.12154 3.18825e-21)
(-2.45197 0.0704322 -3.29401e-21)
(-2.44302 0.0218707 1.55583e-22)
(-2.42361 -0.0239721 -3.05561e-21)
(-2.39392 -0.0669019 0)
(-2.35423 -0.106715 -3.05028e-21)
(-2.30505 -0.143187 1.14754e-22)
(-2.24699 -0.176105 0)
(-2.18082 -0.205314 0)
(-2.10735 -0.230723 3.22041e-21)
(-2.0275 -0.252334 0)
(-1.94217 -0.270239 0)
(-1.85225 -0.284598 -3.39325e-21)
(-1.75861 -0.29565 -7.07925e-21)
(-1.66204 -0.303676 3.67379e-21)
(-1.56328 -0.308971 0)
(-1.463 -0.311834 -3.83764e-21)
(-1.36179 -0.312584 0)
(-1.26019 -0.311523 -3.93937e-21)
(-1.1587 -0.30896 -4.06705e-21)
(-1.05771 -0.305217 8.22781e-21)
(-0.957522 -0.300638 4.15966e-21)
(-0.858324 -0.295562 0)
(-0.760158 -0.290327 -8.59315e-21)
(-0.662967 -0.285188 0)
(-0.566627 -0.280319 -1.32001e-20)
(-0.470981 -0.275794 -8.87288e-21)
(-0.375894 -0.271625 -8.95001e-21)
(-0.281259 -0.267812 9.02e-21)
(-0.186979 -0.264356 -1.36432e-20)
(-0.0929079 -0.261278 0)
(0.00116498 -0.258542 0)
(0.0954416 -0.256017 9.23969e-21)
(0.189997 -0.253408 1.39406e-20)
(0.284733 -0.250377 0)
(0.379353 -0.246606 -4.69123e-21)
(0.473414 -0.241907 0)
(0.566409 -0.236222 1.41052e-20)
(0.657831 -0.229629 2.44272e-23)
(0.747274 -0.222301 -2.23271e-23)
(0.834456 -0.214444 -9.4025e-21)
(0.919185 -0.206241 0)
(1.00133 -0.197828 9.36946e-21)
(1.0808 -0.18928 1.52081e-23)
(1.15752 -0.180643 0)
(1.23145 -0.17195 0)
(1.30252 -0.163221 0)
(1.3707 -0.154506 -9.1762e-21)
(1.43596 -0.145841 0)
(1.4983 -0.137282 0)
(1.55775 -0.128879 0)
(1.6143 -0.120659 0)
(1.66799 -0.112648 0)
(1.71886 -0.104842 -8.74756e-21)
(1.76694 -0.0972515 0)
(1.81226 -0.0898677 -8.58627e-21)
(1.85484 -0.0827064 -8.49998e-21)
(1.89474 -0.0758008 8.41231e-21)
(1.93202 -0.069192 0)
(1.96676 -0.0629261 8.23424e-21)
(1.99908 -0.0570446 0)
(2.02913 -0.0515787 8.05472e-21)
(2.05707 -0.0465445 -7.9651e-21)
(2.08306 -0.0419432 -2.36232e-20)
(2.10726 -0.0377628 0)
(2.12985 -0.0339815 -2.30934e-20)
(2.15095 -0.0305714 -7.60826e-21)
(2.17071 -0.0275015 0)
(2.18926 -0.0247404 -1.48759e-20)
(2.2067 -0.0222578 -1.47064e-20)
(2.22314 -0.0200258 2.1809e-20)
(2.23866 -0.0180195 0)
(2.25334 -0.0162174 7.10504e-21)
(2.26725 -0.0146011 7.02362e-21)
(2.28045 -0.0131556 2.08275e-20)
(2.293 -0.0118672 0)
(2.30493 -0.0107223 0)
(2.31629 -0.00970894 0)
(2.32713 -0.00881592 6.62778e-21)
(2.33746 -0.00803249 0)
(2.34733 -0.00734829 0)
(2.35676 -0.00675309 -6.40127e-21)
(2.3658 -0.0062364 -6.32687e-21)
(2.37446 -0.00578832 0)
(2.38277 -0.00539933 0)
(2.39075 -0.00506032 -1.22155e-20)
(2.39843 -0.00476271 0)
(2.4058 -0.00449849 1.19299e-20)
(2.41289 -0.00426029 1.17887e-20)
(2.41971 -0.00404173 0)
(2.42626 -0.00383757 0)
(2.43254 -0.00364365 -1.1373e-20)
(2.43857 -0.00345685 -1.57206e-25)
(2.44434 -0.00327507 -1.35975e-25)
(2.44986 -0.00309702 0)
(2.45514 -0.00292204 -2.16681e-20)
(2.46017 -0.00274985 0)
(2.46497 -0.00258043 0)
(2.46954 -0.00241387 0)
(2.47389 -0.00225022 1.03111e-20)
(2.47801 -0.0020895 0)
(2.48192 -0.00193166 -2.01104e-20)
(2.48561 -0.00177659 -9.92868e-21)
(2.4891 -0.00162414 0)
(2.49238 -0.00147408 -9.67809e-21)
(2.49547 -0.00132615 0)
(2.49836 -0.00118003 0)
(2.50106 -0.0010353 -2.79255e-20)
(2.50357 -0.000891253 1.83739e-20)
(2.5059 -0.000747146 0)
(2.50804 -0.00060154 1.78925e-20)
(2.50999 -0.000453222 -8.82719e-21)
(2.51176 -0.000299611 0)
(2.51335 -0.000139551 0)
(2.51476 3.24809e-05 0)
(2.51597 0.000216563 -2.50757e-20)
(2.517 0.000425212 0)
(2.51781 0.000652818 -8.12928e-21)
(2.51842 0.000930907 0)
(2.51878 0.00123345 0)
(2.51891 0.00164266 0)
(2.51869 0.00206724 0)
(2.51822 0.00272858 0)
(2.51718 0.00334014 0)
(2.5159 0.00450846 -1.47121e-20)
(2.51356 0.00538402 0)
(2.51113 0.00763744 -7.14868e-21)
(2.50651 0.00884371 2.11382e-20)
(2.50243 0.013598 0)
(2.49348 0.0152142 0)
(2.48716 0.0262622 -1.35158e-20)
(2.46993 0.0290796 -1.33594e-20)
(2.46166 0.0573893 1.31703e-20)
(2.43225 0.0667504 1.30501e-20)
(0.00328822 -0.031367 9.83481e-21)
(0.00648117 -0.136097 9.77055e-21)
(0.0097462 -0.183592 6.45595e-21)
(0.00826167 -0.19813 3.18932e-21)
(0.00601729 -0.201879 0)
(0.00409571 -0.202139 -6.27104e-21)
(0.00364745 -0.201254 3.08616e-21)
(0.00478467 -0.199303 0)
(0.00741704 -0.195448 3.03544e-21)
(0.0110591 -0.188334 0)
(0.0149597 -0.176299 -5.85055e-21)
(0.0180302 -0.157553 0)
(0.0189308 -0.130407 -2.84727e-21)
(0.016002 -0.0933775 -5.59181e-21)
(0.00735829 -0.045443 5.4896e-21)
(-0.00874405 0.0137147 0)
(-0.0342213 0.0834806 5.29906e-21)
(-0.0701172 0.161832 0)
(-0.118043 0.245877 0)
(-0.177608 0.331221 5.09344e-21)
(-0.248714 0.413301 0)
(-0.330347 0.487765 -9.1944e-23)
(-0.420316 0.551064 0)
(-0.51584 0.600749 0)
(-0.614411 0.63571 8.95835e-23)
(-0.714471 0.655536 4.97409e-21)
(-0.815002 0.660437 4.86039e-21)
(-0.915919 0.650626 4.92764e-21)
(-1.0196 0.632766 0)
(-1.13567 0.62586 9.55912e-21)
(-1.26245 0.63174 0)
(-1.39125 0.638805 4.56347e-21)
(-1.51966 0.64458 0)
(-1.64822 0.655257 0)
(-1.78153 0.681698 -4.25292e-21)
(-1.91125 0.702498 0)
(-2.02201 0.698869 4.01676e-21)
(-2.11516 0.676267 2.09936e-22)
(-2.19295 0.638799 -7.76643e-21)
(-2.25746 0.589429 7.30216e-21)
(-2.31031 0.530726 0)
(-2.35301 0.466385 0)
(-2.38664 0.398335 3.0682e-21)
(-2.41158 0.32853 0)
(-2.42787 0.258442 3.34984e-21)
(-2.43525 0.189147 -3.26361e-21)
(-2.43353 0.121395 -3.18937e-21)
(-2.42244 0.0557164 0)
(-2.40188 -0.00743117 3.08436e-21)
(-2.37181 -0.0676335 3.05616e-21)
(-2.33239 -0.124444 -5.73943e-21)
(-2.28394 -0.177336 3.05053e-21)
(-2.22692 -0.225838 3.07218e-21)
(-2.16193 -0.269547 0)
(-2.0898 -0.308152 0)
(-2.01142 -0.341513 -3.22028e-21)
(-1.92777 -0.369636 0)
(-1.83976 -0.392652 0)
(-1.74828 -0.410856 6.90552e-21)
(-1.65411 -0.424613 7.07882e-21)
(-1.55794 -0.434322 0)
(-1.46035 -0.440402 0)
(-1.36188 -0.44327 0)
(-1.26299 -0.443343 0)
(-1.16411 -0.441033 7.93303e-21)
(-1.06565 -0.436725 -8.02197e-21)
(-0.967982 -0.430862 -8.22755e-21)
(-0.871436 -0.423899 -1.66662e-20)
(-0.776182 -0.41635 0)
(-0.682211 -0.408708 4.90403e-23)
(-0.589338 -0.401374 0)