/*--------------------------------*- C++ -*----------------------------------*\
  =========                 |
  \\      /  F ield         | OpenFOAM: The Open Source CFD Toolbox
   \\    /   O peration     | Website:  https://openfoam.org
    \\  /    A nd           | Version:  7
     \\/     M anipulation  |
\*---------------------------------------------------------------------------*/
FoamFile
{
    version     2.0;
    format      ascii;
    class       volSymmTensorField;
    location    "0.056";
    object      UPrime2Mean;
}
// * * * * * * * * * * * * * * * * * * * * * * * * * * * * * * * * * * * * * //

dimensions      [0 2 -2 0 0 0 0];

internalField   nonuniform List<symmTensor> 
12225
(
(0.00481311 -0.000205797 0 0.000506697 0 0)
(0.0358186 -0.00158574 0 0.0002638 0 0)
(0.0522873 -0.00234181 0 0.000251442 0 0)
(0.070022 -0.00287857 0 0.000238657 0 0)
(0.100363 -0.00357381 0 0.000229791 0 0)
(0.145043 -0.00446209 0 0.000227393 0 0)
(0.20426 -0.00553771 0 0.00023986 0 0)
(0.278331 -0.00636076 0 0.000220355 0 0)
(0.36713 -0.00765202 0 0.000237235 0 0)
(0.469701 -0.00730169 0 0.000178535 0 0)
(0.587667 -0.0097461 0 0.000215427 0 0)
(0.712719 -0.00620512 0 0.000120633 0 0)
(0.863886 -0.0148055 0 0.000321879 0 0)
(1.00977 -0.00128193 0 0.000232427 0 0)
(1.22834 -0.0350175 0 0.00159236 0 0)
(1.44103 0.0167247 0 0.00194093 0 0)
(1.86333 -0.13399 0 0.0183964 0 0)
(2.52584 0.051756 0 0.00907224 0 0)
(0.0042982 2.91537e-06 0 0.000632526 0 0)
(0.0239304 -0.000776901 0 0.000242555 0 0)
(0.0263369 -0.0013023 0 0.00031492 0 0)
(0.0271894 -0.00162128 0 0.000435447 0 0)
(0.0322524 -0.00225151 0 0.000584354 0 0)
(0.0412633 -0.0034006 0 0.000777288 0 0)
(0.054924 -0.00501584 0 0.000975902 0 0)
(0.0753398 -0.00730011 0 0.0012511 0 0)
(0.102923 -0.00972134 0 0.00141158 0 0)
(0.142638 -0.0133714 0 0.00175158 0 0)
(0.191379 -0.0159723 0 0.00174617 0 0)
(0.260936 -0.0220379 0 0.00225589 0 0)
(0.337951 -0.0237488 0 0.00202806 0 0)
(0.455375 -0.036927 0 0.00333978 0 0)
(0.573276 -0.0372 0 0.00297644 0 0)
(0.792456 -0.0761837 0 0.00852593 0 0)
(0.991499 -0.0917078 0 0.00942543 0 0)
(1.44277 -0.262809 0 0.0624045 0 0)
(0.00409243 9.49961e-05 0 0.000862093 0 0)
(0.0236401 -0.0011853 0 0.000464782 0 0)
(0.0250133 -0.00182613 0 0.000579141 0 0)
(0.0242499 -0.00200135 0 0.000758478 0 0)
(0.0262646 -0.00234773 0 0.000978299 0 0)
(0.029567 -0.00303697 0 0.00125333 0 0)
(0.0339444 -0.00407986 0 0.0016536 0 0)
(0.0396533 -0.00537345 0 0.00203027 0 0)
(0.0473871 -0.00719973 0 0.00261075 0 0)
(0.0576994 -0.00909506 0 0.00297577 0 0)
(0.0724416 -0.0123822 0 0.00375954 0 0)
(0.0920602 -0.0150486 0 0.00397921 0 0)
(0.120705 -0.0218296 0 0.00545232 0 0)
(0.158601 -0.0259315 0 0.00557523 0 0)
(0.215367 -0.0438656 0 0.0101969 0 0)
(0.291841 -0.0553262 0 0.0114567 0 0)
(0.401899 -0.114254 0 0.0342602 0 0)
(0.542809 -0.191266 0 0.0714086 0 0)
(0.00420126 -0.000285589 0 0.000993507 0 0)
(0.023422 -0.00148147 0 0.000575557 0 0)
(0.0246269 -0.0020042 0 0.000674768 0 0)
(0.0237786 -0.00219144 0 0.000908382 0 0)
(0.0254822 -0.00252897 0 0.00117929 0 0)
(0.0281914 -0.00319535 0 0.00152946 0 0)
(0.0315557 -0.00414511 0 0.00195722 0 0)
(0.0357195 -0.005371 0 0.00253056 0 0)
(0.0408297 -0.00679598 0 0.00311539 0 0)
(0.0475637 -0.00873217 0 0.00390848 0 0)
(0.0563225 -0.0110139 0 0.00463908 0 0)
(0.0686088 -0.0146298 0 0.00583705 0 0)
(0.0851054 -0.0190869 0 0.00704584 0 0)
(0.109053 -0.0272283 0 0.00964884 0 0)
(0.141757 -0.0386855 0 0.0132807 0 0)
(0.1879 -0.0609502 0 0.0223435 0 0)
(0.247641 -0.0998431 0 0.04213 0 0)
(0.308145 -0.161382 0 0.0863437 0 0)
(0.00429923 -0.000282827 0 0.00117952 0 0)
(0.0229389 -0.00173256 0 0.000744956 0 0)
(0.0238525 -0.00224914 0 0.000851888 0 0)
(0.0230128 -0.0024397 0 0.00114832 0 0)
(0.0247308 -0.00279533 0 0.00149236 0 0)
(0.0273223 -0.00349288 0 0.00189956 0 0)
(0.0304591 -0.00451916 0 0.00244941 0 0)
(0.0342767 -0.00581356 0 0.0030885 0 0)
(0.0389971 -0.00746971 0 0.00393223 0 0)
(0.0450112 -0.00946601 0 0.0048298 0 0)
(0.0528867 -0.0123106 0 0.00607372 0 0)
(0.0633692 -0.0159482 0 0.00747699 0 0)
(0.0775104 -0.021695 0 0.00981423 0 0)
(0.0967272 -0.0297094 0 0.0129961 0 0)
(0.122479 -0.0433118 0 0.019276 0 0)
(0.155518 -0.0644667 0 0.0305396 0 0)
(0.193813 -0.0986467 0 0.0534009 0 0)
(0.225287 -0.150155 0 0.104179 0 0)
(0.00419682 -0.000430544 0 0.00128335 0 0)
(0.0226964 -0.00203676 0 0.000918881 0 0)
(0.0232353 -0.00246087 0 0.00108232 0 0)
(0.0222422 -0.00259867 0 0.00147325 0 0)
(0.0237847 -0.00295726 0 0.00192025 0 0)
(0.026123 -0.00368357 0 0.00244114 0 0)
(0.0289635 -0.00474824 0 0.00308348 0 0)
(0.032445 -0.00613213 0 0.003896 0 0)
(0.036751 -0.00788285 0 0.00488072 0 0)
(0.0422079 -0.0101597 0 0.0061028 0 0)
(0.0493114 -0.0132174 0 0.00762784 0 0)
(0.0585989 -0.0174763 0 0.0096937 0 0)
(0.0709144 -0.0235846 0 0.0126564 0 0)
(0.0868718 -0.0325639 0 0.0172711 0 0)
(0.107399 -0.0462482 0 0.0250896 0 0)
(0.131221 -0.0665467 0 0.0388009 0 0)
(0.156383 -0.0965166 0 0.0641885 0 0)
(0.173611 -0.134659 0 0.108613 0 0)
(0.00402341 -0.00038774 0 0.00148926 0 0)
(0.0224225 -0.00225426 0 0.00124597 0 0)
(0.0228443 -0.00268894 0 0.00138102 0 0)
(0.0218008 -0.00285731 0 0.00179541 0 0)
(0.0232725 -0.00327688 0 0.00231271 0 0)
(0.0254589 -0.00408534 0 0.00291998 0 0)
(0.0280699 -0.00525572 0 0.00368301 0 0)
(0.0312435 -0.00675797 0 0.00464129 0 0)
(0.0351518 -0.0086607 0 0.00585847 0 0)
(0.0400662 -0.0111131 0 0.0073807 0 0)
(0.0463804 -0.0144247 0 0.00933584 0 0)
(0.054476 -0.0189966 0 0.0119882 0 0)
(0.064875 -0.025456 0 0.015794 0 0)
(0.0777712 -0.0347096 0 0.0216691 0 0)
(0.0933629 -0.0479385 0 0.0309772 0 0)
(0.109986 -0.0665572 0 0.0466297 0 0)
(0.125743 -0.0910795 0 0.0718471 0 0)
(0.134049 -0.119709 0 0.112362 0 0)
(0.00372389 -0.00035145 0 0.00147323 0 0)
(0.0218445 -0.00249048 0 0.00129623 0 0)
(0.0222761 -0.00285235 0 0.0015873 0 0)
(0.0212287 -0.00292354 0 0.00210604 0 0)
(0.0226138 -0.00333887 0 0.0027344 0 0)
(0.0246179 -0.00418682 0 0.00347007 0 0)
(0.0269455 -0.00539209 0 0.00437627 0 0)
(0.0297413 -0.00694759 0 0.00552555 0 0)
(0.033166 -0.00894134 0 0.006987 0 0)
(0.0374323 -0.0115357 0 0.0088505 0 0)
(0.0428243 -0.01501 0 0.0112711 0 0)
(0.0495691 -0.0197386 0 0.0145655 0 0)
(0.0579348 -0.02626 0 0.0192409 0 0)
(0.0678429 -0.0352489 0 0.0262198 0 0)
(0.0790763 -0.0474865 0 0.036814 0 0)
(0.0900598 -0.0635399 0 0.053316 0 0)
(0.0991765 -0.083119 0 0.078006 0 0)
(0.102296 -0.104192 0 0.114315 0 0)
(0.00462519 -0.000585127 0 0.00151992 0 0)
(0.0222349 -0.00300676 0 0.0015221 0 0)
(0.0220754 -0.00334903 0 0.00188927 0 0)
(0.0209238 -0.00335498 0 0.00247426 0 0)
(0.0223314 -0.00378009 0 0.00322204 0 0)
(0.0242422 -0.00468827 0 0.00410942 0 0)
(0.0263334 -0.00597627 0 0.00519047 0 0)
(0.028765 -0.00761507 0 0.00655153 0 0)
(0.0316832 -0.00967906 0 0.00828248 0 0)
(0.0352595 -0.0123278 0 0.0105064 0 0)
(0.0396961 -0.0158232 0 0.0134042 0 0)
(0.0451111 -0.0205065 0 0.0173374 0 0)
(0.0515767 -0.026791 0 0.0228104 0 0)
(0.0588299 -0.0351328 0 0.0307225 0 0)
(0.0664648 -0.0459144 0 0.0421688 0 0)
(0.0731279 -0.059192 0 0.058945 0 0)
(0.0777145 -0.0742892 0 0.0824545 0 0)
(0.0776601 -0.0893139 0 0.114591 0 0)
(0.00428605 -0.000600509 0 0.00174351 0 0)
(0.0220543 -0.0031551 0 0.00167035 0 0)
(0.0218862 -0.0034381 0 0.00207871 0 0)
(0.0206399 -0.00337983 0 0.00273276 0 0)
(0.0218555 -0.00377832 0 0.00356872 0 0)
(0.0235223 -0.00467087 0 0.00457657 0 0)
(0.0253093 -0.00593215 0 0.00580956 0 0)
(0.0273448 -0.00753539 0 0.0073622 0 0)
(0.0297605 -0.00956768 0 0.00934751 0 0)
(0.0326922 -0.0121858 0 0.011918 0 0)
(0.0362577 -0.0156072 0 0.015276 0 0)
(0.0404566 -0.0200842 0 0.0197863 0 0)
(0.0452174 -0.0258974 0 0.0259341 0 0)
(0.050183 -0.0332871 0 0.0345226 0 0)
(0.0549239 -0.0423643 0 0.0464213 0 0)
(0.0583829 -0.052881 0 0.0629583 0 0)
(0.0599458 -0.0640804 0 0.0848845 0 0)
(0.0580155 -0.0743939 0 0.113305 0 0)
(0.00413584 -0.000759688 0 0.00195808 0 0)
(0.0217355 -0.00357808 0 0.00201319 0 0)
(0.0211379 -0.00389443 0 0.00245976 0 0)
(0.0195853 -0.00373994 0 0.00319676 0 0)
(0.0205998 -0.00408586 0 0.00415036 0 0)
(0.0220945 -0.00497323 0 0.00531187 0 0)
(0.0236942 -0.00622762 0 0.00673009 0 0)
(0.025487 -0.0077962 0 0.0085056 0 0)
(0.0275477 -0.0097563 0 0.0107585 0 0)
(0.029943 -0.0122517 0 0.0136649 0 0)
(0.0327201 -0.0154617 0 0.0174397 0 0)
(0.0358192 -0.0195623 0 0.0224325 0 0)
(0.039113 -0.0247168 0 0.0290772 0 0)
(0.0422534 -0.0309971 0 0.038054 0 0)
(0.0448819 -0.0383395 0 0.050011 0 0)
(0.0462289 -0.0463474 0 0.0658879 0 0)
(0.0460295 -0.0543329 0 0.085998 0 0)
(0.0432685 -0.061053 0 0.110987 0 0)
(0.00406412 -0.000649801 0 0.00203778 0 0)
(0.0216881 -0.00364423 0 0.00211969 0 0)
(0.0211489 -0.00403083 0 0.00259003 0 0)
(0.0195866 -0.00383575 0 0.00339226 0 0)
(0.0204589 -0.0041462 0 0.00444384 0 0)
(0.0217022 -0.00502083 0 0.00574398 0 0)
(0.0229905 -0.00625973 0 0.0073313 0 0)
(0.0244352 -0.00778302 0 0.0092978 0 0)
(0.0260845 -0.00964976 0 0.0117815 0 0)
(0.0279415 -0.0119803 0 0.0149673 0 0)
(0.0299812 -0.0149122 0 0.0190716 0 0)
(0.0320961 -0.0185511 0 0.0244241 0 0)
(0.0341445 -0.0229682 0 0.0313957 0 0)
(0.0358429 -0.0281236 0 0.040543 0 0)
(0.0369407 -0.0338561 0 0.0523145 0 0)
(0.0369253 -0.0397316 0 0.067374 0 0)
(0.0357514 -0.0451706 0 0.0857576 0 0)
(0.032739 -0.0492115 0 0.1079 0 0)
(0.00393294 -0.000881969 0 0.0023726 0 0)
(0.0214213 -0.00385011 0 0.00247862 0 0)
(0.0206811 -0.00415003 0 0.00291223 0 0)
(0.018988 -0.00384345 0 0.00375522 0 0)
(0.0197198 -0.00406545 0 0.00488966 0 0)
(0.0207872 -0.00487044 0 0.00631401 0 0)
(0.0218528 -0.006036 0 0.00806092 0 0)
(0.0230026 -0.0074585 0 0.0102128 0 0)
(0.024267 -0.00917122 0 0.0129012 0 0)
(0.0256414 -0.0112632 0 0.0163056 0 0)
(0.0270784 -0.0138283 0 0.0206354 0 0)
(0.0284578 -0.0169182 0 0.0261888 0 0)
(0.0296295 -0.0205347 0 0.0332729 0 0)
(0.0303648 -0.024575 0 0.0423346 0 0)
(0.0304837 -0.0288315 0 0.0536652 0 0)
(0.0296745 -0.0328991 0 0.0677384 0 0)
(0.0280021 -0.0362952 0 0.0844229 0 0)
(0.0250467 -0.0383132 0 0.104042 0 0)
(0.00416115 -0.000912461 0 0.00288913 0 0)
(0.0213932 -0.00389439 0 0.00309267 0 0)
(0.0204481 -0.00409312 0 0.00356639 0 0)
(0.0186482 -0.00365429 0 0.00444267 0 0)
(0.0192196 -0.00373463 0 0.00564408 0 0)
(0.0200102 -0.00439188 0 0.00716894 0 0)
(0.0207056 -0.00537845 0 0.0090494 0 0)
(0.0214032 -0.00655502 0 0.0113692 0 0)
(0.0221175 -0.00792816 0 0.0142442 0 0)
(0.022841 -0.00956701 0 0.0178392 0 0)
(0.023548 -0.0115437 0 0.0223425 0 0)
(0.0241513 -0.0138676 0 0.0280136 0 0)
(0.0245277 -0.0164868 0 0.0350851 0 0)
(0.0245042 -0.0192403 0 0.043886 0 0)
(0.0239666 -0.0219116 0 0.0545604 0 0)
(0.0227453 -0.0241318 0 0.0674239 0 0)
(0.0209917 -0.0255629 0 0.0822221 0 0)
(0.0184223 -0.0256755 0 0.0992196 0 0)
(0.0042359 -0.000599176 0 0.00281735 0 0)
(0.0212464 -0.0042556 0 0.00327118 0 0)
(0.0201011 -0.00454125 0 0.00392723 0 0)
(0.0181065 -0.00408237 0 0.00496731 0 0)
(0.018515 -0.00410511 0 0.00629443 0 0)
(0.0191335 -0.00465573 0 0.00793308 0 0)
(0.0196042 -0.00548624 0 0.00994278 0 0)
(0.0199963 -0.00645172 0 0.0124044 0 0)
(0.0203226 -0.00753614 0 0.0154208 0 0)
(0.0205849 -0.00877645 0 0.0191342 0 0)
(0.0207648 -0.0102022 0 0.0236968 0 0)
(0.0207948 -0.0117711 0 0.0293079 0 0)
(0.0205865 -0.0133916 0 0.0361177 0 0)
(0.0200421 -0.0148803 0 0.0443488 0 0)
(0.019132 -0.0160569 0 0.0540275 0 0)
(0.0178012 -0.0166195 0 0.0653616 0 0)
(0.0162464 -0.0163838 0 0.0780369 0 0)
(0.0142805 -0.0149511 0 0.0922989 0 0)
(0.0043458 -0.000641754 0 0.00307725 0 0)
(0.0212246 -0.00429157 0 0.00329573 0 0)
(0.0198261 -0.00462442 0 0.00392234 0 0)
(0.0175873 -0.00406745 0 0.00501166 0 0)
(0.0177011 -0.00396251 0 0.00641756 0 0)
(0.0179997 -0.00438683 0 0.00814535 0 0)
(0.0181938 -0.0050478 0 0.0102371 0 0)
(0.0183537 -0.00575206 0 0.0127647 0 0)
(0.0184298 -0.00645633 0 0.0158189 0 0)
(0.0183625 -0.00717966 0 0.0195145 0 0)
(0.0181264 -0.00793542 0 0.0239586 0 0)
(0.0177046 -0.00866703 0 0.029287 0 0)
(0.0170898 -0.00927924 0 0.0355758 0 0)
(0.0162806 -0.00959826 0 0.0429642 0 0)
(0.015313 -0.00949118 0 0.0514057 0 0)
(0.0142108 -0.00872074 0 0.0610421 0 0)
(0.0131492 -0.00722375 0 0.0715537 0 0)
(0.0119948 -0.00469424 0 0.0831913 0 0)
(0.00445489 -0.000652042 0 0.00318483 0 0)
(0.0216017 -0.00444027 0 0.00345363 0 0)
(0.0199142 -0.00486637 0 0.00415606 0 0)
(0.0173765 -0.00424677 0 0.00532294 0 0)
(0.0172724 -0.00400062 0 0.00676118 0 0)
(0.0173586 -0.00425598 0 0.00850656 0 0)
(0.017303 -0.00469897 0 0.0105957 0 0)
(0.0171827 -0.00509558 0 0.0130742 0 0)
(0.0169802 -0.00537591 0 0.0160064 0 0)
(0.0166693 -0.00555254 0 0.0194759 0 0)
(0.0162434 -0.00564126 0 0.0235495 0 0)
(0.0157065 -0.00559444 0 0.0283127 0 0)
(0.015069 -0.00533162 0 0.0337836 0 0)
(0.0143693 -0.00471052 0 0.0400366 0 0)
(0.0136597 -0.00363906 0 0.0469739 0 0)
(0.0130124 -0.00194976 0 0.0546968 0 0)
(0.0125659 0.000358004 0 0.0628972 0 0)
(0.0122535 0.00350302 0 0.071835 0 0)
(0.00427578 -0.000654165 0 0.00327693 0 0)
(0.0213484 -0.00462056 0 0.00369581 0 0)
(0.0196667 -0.00495384 0 0.00414068 0 0)
(0.0169789 -0.0043133 0 0.00509323 0 0)
(0.0165776 -0.00404776 0 0.00639575 0 0)
(0.016282 -0.00414305 0 0.00799824 0 0)
(0.0158578 -0.00427777 0 0.00989672 0 0)
(0.0154488 -0.00426847 0 0.0121164 0 0)
(0.0150652 -0.00407763 0 0.0146951 0 0)
(0.0146858 -0.00371923 0 0.0176816 0 0)
(0.0142998 -0.00319311 0 0.0211079 0 0)
(0.0139115 -0.00245014 0 0.0250184 0 0)
(0.0135362 -0.00142261 0 0.0294054 0 0)
(0.0132291 -1.6371e-05 0 0.0343098 0 0)
(0.0130474 0.00181887 0 0.039636 0 0)
(0.0130771 0.0041714 0 0.0454602 0 0)
(0.0134187 0.00701604 0 0.0515342 0 0)
(0.0140433 0.0104691 0 0.0580711 0 0)
(0.00426986 -0.000462411 0 0.00300333 0 0)
(0.0215112 -0.00427733 0 0.00339677 0 0)
(0.0193303 -0.00441365 0 0.00376719 0 0)
(0.0163576 -0.003475 0 0.0045848 0 0)
(0.0158412 -0.00285968 0 0.00567136 0 0)
(0.0154077 -0.0025986 0 0.00698885 0 0)
(0.01487 -0.00238745 0 0.00854162 0 0)
(0.0144354 -0.00202862 0 0.0103437 0 0)
(0.0141312 -0.00144571 0 0.0124033 0 0)
(0.0139358 -0.00062335 0 0.0147281 0 0)
(0.0138429 0.000437189 0 0.0173134 0 0)
(0.0138678 0.00175352 0 0.0201712 0 0)
(0.0140385 0.00334821 0 0.0232804 0 0)
(0.0144191 0.00526724 0 0.0266638 0 0)
(0.0150605 0.00752 0 0.0302499 0 0)
(0.0160407 0.0101584 0 0.0341047 0 0)
(0.0174182 0.0131351 0 0.0380528 0 0)
(0.019187 0.0165389 0 0.0422624 0 0)
(0.00436952 -0.000846285 0 0.00352883 0 0)
(0.0207944 -0.00399528 0 0.00349567 0 0)
(0.0183835 -0.0039098 0 0.00361376 0 0)
(0.0154213 -0.00298224 0 0.00427882 0 0)
(0.0148099 -0.00230768 0 0.00512829 0 0)
(0.014322 -0.00192052 0 0.00610512 0 0)
(0.0137976 -0.00157461 0 0.00723531 0 0)
(0.0134157 -0.0010872 0 0.00853437 0 0)
(0.0131935 -0.000374747 0 0.0100033 0 0)
(0.0131238 0.000583192 0 0.0116446 0 0)
(0.0132269 0.00178151 0 0.0134541 0 0)
(0.0135451 0.00322095 0 0.015436 0 0)
(0.0141194 0.00490237 0 0.0175704 0 0)
(0.0150055 0.00684338 0 0.0198683 0 0)
(0.0162405 0.00903486 0 0.0222737 0 0)
(0.0178721 0.011503 0 0.0248288 0 0)
(0.01993 0.0142017 0 0.0274177 0 0)
(0.0224069 0.0171917 0 0.030143 0 0)
(0.00429471 -0.00061809 0 0.00311686 0 0)
(0.0207571 -0.00350411 0 0.00291005 0 0)
(0.018266 -0.00328869 0 0.00288406 0 0)
(0.015263 -0.00231315 0 0.00331559 0 0)
(0.0146109 -0.00159695 0 0.00392699 0 0)
(0.014089 -0.00113916 0 0.00464927 0 0)
(0.0135908 -0.000705157 0 0.00546275 0 0)
(0.0133118 -0.000135297 0 0.00635966 0 0)
(0.0132561 0.000633336 0 0.00734001 0 0)
(0.0134028 0.00160798 0 0.00841268 0 0)
(0.0137767 0.00277646 0 0.00958265 0 0)
(0.014429 0.00413414 0 0.0108589 0 0)
(0.0154062 0.00567942 0 0.0122292 0 0)
(0.0167557 0.00742545 0 0.0137008 0 0)
(0.0185049 0.00936404 0 0.0152359 0 0)
(0.0206859 0.0115143 0 0.016863 0 0)
(0.0233161 0.0138371 0 0.0185058 0 0)
(0.0263855 0.0163803 0 0.0202376 0 0)
(0.0040055 -0.000340003 0 0.00291218 0 0)
(0.0206088 -0.00294663 0 0.00234775 0 0)
(0.0181145 -0.00287562 0 0.00229489 0 0)
(0.0150918 -0.0020211 0 0.00262337 0 0)
(0.0144067 -0.00133337 0 0.00308322 0 0)
(0.0138606 -0.000877655 0 0.00362843 0 0)
(0.0133644 -0.000460621 0 0.00424257 0 0)
(0.0131182 7.83305e-05 0 0.00492442 0 0)
(0.0131414 0.000813356 0 0.00567631 0 0)
(0.0134347 0.0017514 0 0.00649933 0 0)
(0.0140267 0.00286936 0 0.00738552 0 0)
(0.0149578 0.00414805 0 0.00833147 0 0)
(0.0162616 0.00557633 0 0.0093254 0 0)
(0.0179765 0.00715852 0 0.0103731 0 0)
(0.0201234 0.00888778 0 0.011448 0 0)
(0.022727 0.0107768 0 0.012572 0 0)
(0.0257993 0.0127906 0 0.0136905 0 0)
(0.0293219 0.0149596 0 0.0148487 0 0)
(0.00439715 -0.000544225 0 0.00257221 0 0)
(0.0202298 -0.00276907 0 0.00213667 0 0)
(0.0176019 -0.00246918 0 0.00196745 0 0)
(0.0145912 -0.00155632 0 0.00206298 0 0)
(0.0139104 -0.000867875 0 0.00229234 0 0)
(0.0133494 -0.000420817 0 0.00259064 0 0)
(0.0128641 -2.97976e-05 0 0.00291797 0 0)
(0.0127099 0.000447223 0 0.00326991 0 0)
(0.0129169 0.00107265 0 0.00366174 0 0)
(0.0134596 0.00185323 0 0.00410451 0 0)
(0.0143468 0.00277147 0 0.00459426 0 0)
(0.015608 0.00380887 0 0.00512681 0 0)
(0.0172698 0.00495589 0 0.00569573 0 0)
(0.019358 0.00621692 0 0.00630685 0 0)
(0.0218942 0.00758903 0 0.00694362 0 0)
(0.0248898 0.00908065 0 0.00761919 0 0)
(0.0283679 0.0106697 0 0.00829948 0 0)
(0.0322888 0.0123715 0 0.00901278 0 0)
(0.00467957 -0.000705626 0 0.00226629 0 0)
(0.0200994 -0.00249994 0 0.00183876 0 0)
(0.0169137 -0.00190513 0 0.00168392 0 0)
(0.013898 -0.000942495 0 0.0018037 0 0)
(0.0135126 -0.000248906 0 0.00200861 0 0)
(0.0132562 0.000211643 0 0.00224062 0 0)
(0.0130387 0.000625593 0 0.00248218 0 0)
(0.0131672 0.001125 0 0.00273858 0 0)
(0.0137238 0.00176154 0 0.00301937 0 0)
(0.0146952 0.00252825 0 0.00332978 0 0)
(0.0160694 0.00340116 0 0.00366728 0 0)
(0.017851 0.00436486 0 0.00402937 0 0)
(0.0200535 0.0054131 0 0.00441092 0 0)
(0.0227025 0.00654875 0 0.00481505 0 0)
(0.0258161 0.00776058 0 0.00522933 0 0)
(0.0294041 0.00905229 0 0.0056656 0 0)
(0.0334775 0.0104009 0 0.00609902 0 0)
(0.0380028 0.0118298 0 0.006542 0 0)
(0.00502139 -0.000581668 0 0.00200703 0 0)
(0.0201315 -0.00216335 0 0.00145735 0 0)
(0.0167407 -0.00168815 0 0.00117343 0 0)
(0.0136614 -0.000948527 0 0.00115863 0 0)
(0.0132032 -0.000414948 0 0.00121867 0 0)
(0.0128649 -8.26489e-05 0 0.00127892 0 0)
(0.0126162 0.000179698 0 0.0013477 0 0)
(0.0127852 0.000484376 0 0.00145191 0 0)
(0.0134196 0.000887954 0 0.00159657 0 0)
(0.0144699 0.00139578 0 0.0017684 0 0)
(0.0159247 0.00198778 0 0.0019533 0 0)
(0.0178119 0.0026491 0 0.0021479 0 0)
(0.0201718 0.00337351 0 0.00235294 0 0)
(0.0230317 0.00416142 0 0.00257276 0 0)
(0.0263993 0.00500815 0 0.00280156 0 0)
(0.0302577 0.00591469 0 0.00304587 0 0)
(0.0346078 0.00686428 0 0.00329182 0 0)
(0.0393906 0.00787317 0 0.00354728 0 0)
(0.00480729 -0.000445518 0 0.0018783 0 0)
(0.0198578 -0.00165724 0 0.00114907 0 0)
(0.0161328 -0.00138168 0 0.000861387 0 0)
(0.0131139 -0.000737807 0 0.000900642 0 0)
(0.0128294 -0.000185137 0 0.000965742 0 0)
(0.0127021 0.000179849 0 0.00100346 0 0)
(0.0127773 0.000465277 0 0.00103458 0 0)
(0.0133796 0.000771305 0 0.0010802 0 0)
(0.0145074 0.00114586 0 0.00114438 0 0)
(0.0160674 0.00159546 0 0.00122278 0 0)
(0.0180376 0.00210642 0 0.00131106 0 0)
(0.0204601 0.00266692 0 0.00140856 0 0)
(0.0233832 0.00327027 0 0.00151516 0 0)
(0.0268308 0.0039154 0 0.00163285 0 0)
(0.0308061 0.0045973 0 0.00175787 0 0)
(0.0352864 0.00531881 0 0.00189529 0 0)
(0.0402781 0.00606731 0 0.00203826 0 0)
(0.0457152 0.00685826 0 0.00219282 0 0)
(0.00355704 -0.000506959 0 0.00153752 0 0)
(0.0184736 -0.00093108 0 0.000735661 0 0)
(0.01489 -0.00059618 0 0.000432145 0 0)
(0.0122707 -0.000220567 0 0.000405599 0 0)
(0.0123122 7.43404e-05 0 0.000399336 0 0)
(0.0124497 0.000234072 0 0.000396798 0 0)
(0.0127791 0.00034225 0 0.000413337 0 0)
(0.0136386 0.000473572 0 0.000443207 0 0)
(0.0150383 0.000656015 0 0.000478213 0 0)
(0.0169088 0.000887709 0 0.000515333 0 0)
(0.0192553 0.00115889 0 0.000555631 0 0)
(0.0221273 0.00146067 0 0.000601446 0 0)
(0.0255607 0.00178798 0 0.00065342 0 0)
(0.0295527 0.00214016 0 0.000712815 0 0)
(0.0340822 0.00251412 0 0.000778572 0 0)
(0.0391067 0.00291222 0 0.000853329 0 0)
(0.0446277 0.00332498 0 0.000933949 0 0)
(0.050574 0.00376419 0 0.00102231 0 0)
(0.00492783 -0.000545768 0 0.00114531 0 0)
(0.0186306 -0.00107167 0 0.000509232 0 0)
(0.0144765 -0.000803399 0 0.00040263 0 0)
(0.0121661 -0.00033084 0 0.00037957 0 0)
(0.0124607 -7.33591e-06 0 0.000331518 0 0)
(0.0128023 0.000168888 0 0.000287354 0 0)
(0.0134878 0.0003008 0 0.00026582 0 0)
(0.0148757 0.000435232 0 0.000260231 0 0)
(0.0169137 0.000574643 0 0.00026249 0 0)
(0.0194769 0.000718829 0 0.000269258 0 0)
(0.0225348 0.000875802 0 0.00028053 0 0)
(0.0261242 0.00105339 0 0.000297122 0 0)
(0.0302744 0.00125461 0 0.000319775 0 0)
(0.0349843 0.00147764 0 0.000349151 0 0)
(0.0402177 0.00171678 0 0.00038518 0 0)
(0.0459381 0.00196713 0 0.000429818 0 0)
(0.0521338 0.00222154 0 0.000481845 0 0)
(0.0587591 0.00248458 0 0.00054064 0 0)
(0.00359531 -0.000115667 0 0.000897478 0 0)
(0.0172207 0.000123565 0 0.000220565 0 0)
(0.0132863 -3.95142e-06 0 0.000151072 0 0)
(0.0113134 3.80094e-05 0 0.000144497 0 0)
(0.0119154 2.41422e-05 0 0.000149042 0 0)
(0.0125738 -3.87946e-05 0 0.000155667 0 0)
(0.0135407 -0.000116579 0 0.000162881 0 0)
(0.0151064 -0.000195301 0 0.000171256 0 0)
(0.017169 -0.000269106 0 0.000181838 0 0)
(0.0195852 -0.000331137 0 0.000194509 0 0)
(0.0223075 -0.00037411 0 0.000208859 0 0)
(0.025371 -0.000394176 0 0.000224801 0 0)
(0.0287917 -0.000388014 0 0.000242265 0 0)
(0.032604 -0.00035332 0 0.000261791 0 0)
(0.036765 -0.000289527 0 0.000283698 0 0)
(0.0413233 -0.000200354 0 0.000309996 0 0)
(0.0462056 -8.96906e-05 0 0.000340846 0 0)
(0.0515228 4.13179e-05 0 0.000374838 0 0)
(0.00448694 -0.000319726 0 0.000749845 0 0)
(0.0186243 -4.83233e-05 0 0.000239618 0 0)
(0.0163003 2.75732e-05 0 0.000149799 0 0)
(0.0154952 0.000120443 0 0.000108792 0 0)
(0.0168851 0.000146687 0 8.59248e-05 0 0)
(0.0182005 0.000165543 0 7.19596e-05 0 0)
(0.0195163 0.000192121 0 6.24296e-05 0 0)
(0.0211331 0.000220631 0 5.67579e-05 0 0)
(0.0231556 0.000246627 0 5.39141e-05 0 0)
(0.0256072 0.000269657 0 5.27725e-05 0 0)
(0.0284905 0.000294528 0 5.33272e-05 0 0)
(0.0318192 0.0003297 0 5.57828e-05 0 0)
(0.0356459 0.000382215 0 5.97004e-05 0 0)
(0.0400456 0.000453528 0 6.43891e-05 0 0)
(0.0451147 0.000540063 0 6.95934e-05 0 0)
(0.0508722 0.00063699 0 7.56125e-05 0 0)
(0.0574107 0.000740809 0 8.18439e-05 0 0)
(0.0646232 0.000854348 0 8.76753e-05 0 0)
(0.000503919 -0.00108781 1.25162e-22 0.00242032 -2.42157e-22 1.67268e-37)
(0.00438665 -0.0034572 -3.22379e-22 0.00294227 1.76993e-22 1.64928e-37)
(0.0129403 -0.00618163 0 0.00368339 0 0)
(0.0282578 -0.0105348 0 0.0049091 0 0)
(0.0535991 -0.0161974 0 0.00578429 0 0)
(0.0909488 -0.0224344 8.27858e-22 0.00620051 -1.00708e-22 1.55349e-37)
(0.141045 -0.0287424 0 0.00629281 0 0)
(0.20405 -0.034868 0 0.00621347 0 0)
(0.279711 -0.040664 0 0.0060523 0 0)
(0.367586 -0.0459939 0 0.00583872 0 0)
(0.466898 -0.0506569 -1.39486e-21 0.00556798 1.14815e-22 1.43895e-37)
(0.576341 -0.0543528 0 0.00522059 0 0)
(0.693784 -0.0566854 0 0.00477799 0 0)
(0.816195 -0.0572163 0 0.00423689 0 0)
(0.939395 -0.055508 0 0.00361636 0 0)
(1.05843 -0.0512104 -2.03586e-21 0.00296773 1.60816e-22 1.33004e-37)
(1.16741 -0.0441292 0 0.00237533 0 0)
(1.26094 -0.0343238 0 0.0019585 0 0)
(1.33376 -0.0221774 0 0.00185795 0 0)
(1.3797 -0.00858484 0 0.00221094 0 0)
(1.39703 0.00498049 0 0.00309857 0 0)
(1.38681 0.0167594 0 0.00448977 0 0)
(1.35367 0.0250111 0 0.00622309 0 0)
(1.30512 0.0283094 -3.99517e-21 0.00802428 3.17338e-22 1.16728e-37)
(1.25096 0.0257685 4.32921e-21 0.00957616 -3.21767e-22 1.14793e-37)
(1.20088 0.0170694 -4.66658e-21 0.0106511 3.17405e-22 1.12879e-37)
(1.16449 0.00303262 -4.99946e-21 0.011381 3.0554e-22 1.10988e-37)
(1.15094 -0.0159578 0 0.0122857 0 0)
(1.16677 -0.0390116 0 0.0152624 0 0)
(1.2177 -0.0694673 5.88919e-21 0.0207456 -2.06292e-22 1.05445e-37)
(1.31616 -0.105656 6.12052e-21 0.0305174 -1.48821e-22 1.03641e-37)
(1.46039 -0.137896 0 0.043131 0 0)
(1.63473 -0.160382 0 0.0522055 0 0)
(1.82032 -0.170325 6.72234e-21 0.0552896 -1.23747e-22 9.83609e-38)
(2.01334 -0.167285 0 0.0541867 0 0)
(2.21327 -0.164437 0 0.0550162 0 0)
(2.42127 -0.174651 -7.43666e-21 0.058245 2.02871e-22 9.32763e-38)
(2.62823 -0.187127 0 0.0618165 0 0)
(2.83079 -0.181618 -7.98086e-21 0.0612627 2.15028e-22 8.9995e-38)
(3.015 -0.169148 -1.65429e-20 0.0642436 4.73933e-22 3.53547e-37)
(3.19032 -0.15553 0 0.0529506 0 0)
(3.37439 -0.119718 0 0.0356922 0 0)
(3.55383 -0.0919626 0 0.0329645 0 0)
(3.76346 -0.10218 0 0.0316665 0 0)
(4.02379 -0.118577 0 0.0261402 0 0)
(4.31213 -0.126423 -1.95465e-20 0.0216181 3.91315e-22 3.16735e-37)
(4.61369 -0.128164 -1.9854e-20 0.0178834 3.40963e-22 3.10895e-37)
(4.91598 -0.125168 -2.01006e-20 0.0148428 2.9343e-22 3.05137e-37)
(5.20909 -0.118717 0 0.0123049 0 0)
(5.4848 -0.109548 2.04103e-20 0.0101246 -2.06127e-22 2.93868e-37)
(5.73643 -0.0983315 0 0.00824937 0 0)
(5.95852 -0.0856527 -2.04737e-20 0.00665895 1.28695e-22 2.82925e-37)
(6.14828 -0.0720933 -2.04157e-20 0.0053426 9.40152e-23 2.77573e-37)
(6.30254 -0.058169 0 0.00427772 0 0)
(6.42067 -0.0443874 0 0.00343525 0 0)
(6.50292 -0.031157 0 0.00278216 0 0)
(6.5507 -0.0187769 -1.96497e-20 0.00228503 -1.34374e-23 2.56956e-37)
(6.56557 -0.00749379 0 0.00191506 0 0)
(6.5509 0.00256645 0 0.0016443 0 0)
(6.50922 0.0113343 0 0.0014511 0 0)
(6.44385 0.0187754 0 0.00131718 0 0)
(6.3583 0.02489 0 0.00122791 0 0)
(6.25593 0.0297722 0 0.0011691 0 0)
(6.14003 0.0335485 0 0.00113018 0 0)
(6.01328 0.0363791 0 0.00110259 0 0)
(5.87826 0.0384123 1.61793e-20 0.00108109 9.09268e-23 2.14992e-37)
(5.73697 0.0398218 0 0.00106125 0 0)
(5.59101 0.0407754 0 0.00104117 0 0)
(5.44137 0.0414393 -1.49258e-20 0.00102072 -8.88315e-23 2.02294e-37)
(5.28866 0.0419568 -1.45193e-20 0.00100144 -8.73358e-23 1.98198e-37)
(5.13308 0.0424353 0 0.000985671 0 0)
(4.97457 0.0429478 1.37265e-20 0.000975026 8.41509e-23 1.90207e-37)
(4.81292 0.0435419 -1.33402e-20 0.000969816 -8.26245e-23 1.8631e-37)
(4.64774 0.0442469 0 0.000969135 0 0)
(4.47853 0.0450858 1.25868e-20 0.000971177 7.99746e-23 1.7871e-37)
(4.30468 0.0460757 0 0.000975095 0 0)
(4.12554 0.0472076 0 0.000982468 0 0)
(3.94058 0.0484236 -1.14986e-20 0.000995948 -7.7173e-23 1.6778e-37)
(3.74965 0.0496007 0 0.00101828 0 0)
(3.55319 0.0505729 1.07986e-20 0.00104881 7.53169e-23 1.60799e-37)
(3.35226 0.0511827 0 0.00108355 0 0)
(3.14848 0.0513088 -1.01243e-20 0.0011159 -7.22123e-23 1.54054e-37)
(2.94383 0.0508932 -9.79994e-21 0.00113821 -6.99949e-23 1.50768e-37)
(2.74036 0.0499493 -9.48567e-21 0.00114512 -6.73455e-23 1.47539e-37)
(2.53996 0.0485486 -1.83652e-20 0.00113504 -1.28666e-22 5.77465e-37)
(2.34421 0.0467889 1.77829e-20 0.00111012 1.22086e-22 5.64994e-37)
(2.15429 0.0447629 0 0.00107471 0 0)
(1.97117 0.0425366 0 0.00103301 0 0)
(1.79571 0.0401577 0 0.000988261 0 0)
(1.62866 0.0376574 1.5705e-20 0.000942222 9.34145e-23 5.17258e-37)
(1.47069 0.0350514 1.52495e-20 0.000894442 8.61652e-23 5.05845e-37)
(1.32236 0.0323651 -1.48191e-20 0.000844358 -7.90212e-23 4.94636e-37)
(1.1841 0.0296349 0 0.000791606 0 0)
(1.05618 0.0268942 1.40311e-20 0.000735643 6.52589e-23 4.72814e-37)
(0.938711 0.0241952 1.36717e-20 0.000677514 5.87455e-23 4.62195e-37)
(0.83161 0.021573 1.33336e-20 0.000617788 5.25247e-23 4.51768e-37)
(0.734669 0.0190584 0 0.000557293 0 0)
(0.647578 0.0166927 0 0.000498057 0 0)
(0.569894 0.014465 0 0.000439128 0 0)
(0.501122 0.0124142 1.21702e-20 0.000383068 3.08951e-23 4.11913e-37)
(0.440764 0.0105167 0 0.00032843 0 0)
(0.388231 0.00879236 0 0.000276879 0 0)
(0.342902 0.00723139 -1.14625e-20 0.000228204 -1.79797e-23 3.83893e-37)
(0.304139 0.00584041 0 0.00018347 0 0)
(0.271308 0.0046208 0 0.00014351 0 0)
(0.243747 0.00356943 -1.08642e-20 0.000108974 -7.75232e-24 3.57397e-37)
(0.220792 0.00267841 0 8.0209e-05 0 0)
(0.201805 0.00193526 0 5.71812e-05 0 0)
(0.186192 0.00132411 1.03509e-20 3.9495e-05 3.12147e-25 3.32355e-37)
(0.173421 0.000827256 1.01949e-20 2.64927e-05 -1.56832e-24 3.2432e-37)
(0.163024 0.000426887 0 1.73844e-05 0 0)
(0.154605 0.000106264 -9.90133e-21 1.13621e-05 4.53107e-24 3.08701e-37)
(0.147834 -0.000149419 0 7.68668e-06 0 0)
(0.142435 -0.000352814 9.6283e-21 5.72487e-06 -6.57596e-24 2.9367e-37)
(0.138186 -0.000514204 0 4.96676e-06 0 0)
(0.134902 -0.000641982 9.3718e-21 5.01312e-06 -7.87938e-24 2.79209e-37)
(0.132436 -0.000742731 9.2487e-21 5.5602e-06 -8.30447e-24 2.72186e-37)
(0.130662 -0.000821611 0 6.3848e-06 0 0)
(0.129482 -0.000883173 0 7.32597e-06 0 0)
(0.128808 -0.000930765 0 8.27516e-06 0 0)
(0.128576 -0.000967905 0 9.17593e-06 0 0)
(0.128727 -0.000996439 0 9.98689e-06 0 0)
(0.129206 -0.0010147 0 1.06144e-05 0 0)
(0.129954 -0.00102135 0 1.09689e-05 0 0)
(0.130925 -0.00101754 8.34745e-21 1.10417e-05 -8.23434e-24 2.20711e-37)
(0.132075 -0.00100507 -8.24172e-21 1.08719e-05 7.9177e-24 2.14834e-37)
(0.133363 -0.000985372 0 1.05064e-05 0 0)
(0.134755 -0.0009596 0 9.98945e-06 0 0)
(0.136219 -0.000928556 0 9.35659e-06 0 0)
(0.137728 -0.000892943 0 8.63985e-06 0 0)
(0.139257 -0.00085331 -1.54492e-20 7.86451e-06 1.20009e-23 7.48684e-37)
(0.140783 -0.000810224 0 7.05416e-06 0 0)
(0.142286 -0.000764346 1.5043e-20 6.23287e-06 -1.04061e-23 7.07501e-37)
(0.14375 -0.000716442 -1.48411e-20 5.42438e-06 9.63415e-24 6.8754e-37)
(0.145159 -0.000667356 0 4.65085e-06 0 0)
(0.146504 -0.000617984 0 3.9313e-06 0 0)
(0.147777 -0.000569181 0 3.2795e-06 0 0)
(0.148974 -0.000521702 1.40401e-20 2.70329e-06 -6.89719e-24 6.11749e-37)
(0.150093 -0.000476177 1.38414e-20 2.2051e-06 -6.3243e-24 5.93781e-37)
(0.151135 -0.000433078 0 1.78269e-06 0 0)
(0.152103 -0.000392733 1.34463e-20 1.4306e-06 -5.32123e-24 5.58977e-37)
(0.153 -0.000355293 1.32499e-20 1.14099e-06 -4.88871e-24 5.42129e-37)
(0.153832 -0.000320766 -1.30542e-20 9.04999e-07 4.49767e-24 5.25642e-37)
(0.154603 -0.000289095 0 7.14316e-07 0 0)
(0.155319 -0.000260205 0 5.61595e-07 0 0)
(0.155985 -0.000233985 -1.24722e-20 4.40302e-07 3.54491e-24 4.7829e-37)
(0.156607 -0.000210299 0 3.44703e-07 0 0)
(0.15719 -0.000188942 0 2.69653e-07 0 0)
(0.157739 -0.000169681 0 2.1079e-07 0 0)