/*--------------------------------*- C++ -*----------------------------------*\
  =========                 |
  \\      /  F ield         | OpenFOAM: The Open Source CFD Toolbox
   \\    /   O peration     | Website:  https://openfoam.org
    \\  /    A nd           | Version:  7
     \\/     M anipulation  |
\*---------------------------------------------------------------------------*/
FoamFile
{
    version     2.0;
    format      ascii;
    class       surfaceScalarField;
    location    "24";
    object      phi;
}
// * * * * * * * * * * * * * * * * * * * * * * * * * * * * * * * * * * * * * //

dimensions      [0 3 -1 0 0 0 0];

internalField   nonuniform List<scalar> 
1300
(
3.75095
5.62643
-2.58996
3.75095
-2.70573
5.62643
-2.04088
2.04088
-0.449124
0.449124
1.90724
1.84371
-1.24278
1.24278
-1.50504
1.50504
-0.961952
0.961952
-3.87943
3.87943
-3.16245
3.16245
2.06108
-2.06108
-1.79543
1.79543
-0.533356
0.533356
-1.60079
1.60079
1.94987
-1.94987
-1.87662
1.87662
-0.744496
0.744496
-1.5015
5.25245
2.24945
2.24945
-0.824888
0.824888
-3.57208
3.57208
4.63403
-4.63403
5.35092
-5.35092
-2.76096
-3.32002
1.08135
-7.53659
-1.62437
-1.62437
-8.391
8.391
-2.76457
2.86186
1.12833
-1.12833
-0.376255
0.376255
-1.88977
-0.151107
-1.88977
2.10568
-0.0648049
2.10568
-0.488474
0.0393498
-0.488474
1.56719
-1.56719
0.428794
0.0203308
0.428794
1.25374
-1.25374
-1.90761
3.81486
1.84334
-1.75656
7.00901
-1.99439
3.83811
-2.36302
2.36302
-1.24778
0.00500071
-1.24778
1.23613
0.00665511
1.23613
-2.22994
2.22994
-1.35063
-0.154409
-1.35063
1.60064
-0.0955937
1.60064
1.1816
-1.1816
-0.97407
0.0121185
-0.97407
0.920968
0.0409836
0.920968
1.36026
4.26617
-6.9867
9.84855
-4.26617
0.386739
3.48672
0.392709
3.48672
-3.14856
-0.0138902
-3.14856
3.25844
-0.0959908
3.25844
1.8347
0.226382
1.8347
-2.37245
0.311367
-2.37245
-4.56747
-4.61541
-1.86503
0.0696003
-1.86503
-0.533963
0.000607037
-0.533963
0.544266
-0.0109102
0.544266
-1.55993
1.55993
-1.79773
0.196936
-1.79773
1.51763
0.432238
1.51763
1.64936
2.10159
5.40032
-5.40032
3.45044
-1.71942
-0.157198
-1.71942
-1.99413
-3.3568
1.99413
-0.117508
-0.49756
-0.246936
-0.49756
1.77734
0.472109
1.77734
0.888578
0.03239
-0.888578
0.0636904
1.47271
-1.47271
0.50254
0.322347
0.50254
-3.51852
3.51852
3.38011
-0.121669
-3.38011
-0.191975
4.42921
0.204817
4.42921
-4.7844
0.150368
-4.7844
4.03505
-7.35507
-4.20382
1.69534
0.10009
-1.69534
0.0709692
1.15699
-0.028659
1.15699
-1.07957
1.07957
-1.1681
0.0397673
-1.1681
-0.323852
-0.0524031
-0.323852
0.440673
-0.0644181
0.440673
-1.80138
-0.0883954
-1.80138
-2.02958
0.231854
2.02958
0.0761042
0.637641
-0.637641
-0.521019
0.0325443
-0.521019
-1.66429
-0.137084
1.66429
-0.0970989
-1.55269
-0.0145073
-1.55269
-1.19581
0.0277104
1.19581
0.0579297
1.45077
0.326577
-1.45077
0.197029
-1.7725
3.87409
-1.97846
3.8218
-2.1707
-0.192326
-2.1707
2.47182
-0.108795
2.47182
1.41153
0.189265
-1.41153
0.163744
1.28704
-0.0509115
1.28704
-2.27375
0.0438052
-2.27375
2.09225
0.137691
2.09225
1.3076
-0.0205663
-1.3076
-0.0430295
1.63281
-0.0321776
1.63281
1.18447
-0.00287077
1.18447
-1.14669
-0.0349045
-1.14669
1.04811
-1.04811
1.02171
0.0263984
-1.02171
0.0476399
-14.4245
14.5749
-0.189904
-14.2346
3.29681
3.29681
1.09188
0.742818
1.09188
-2.67731
0.304867
-2.67731
4.47965
-8.68347
4.59592
-9.16339
3.85603
-11.3926
4.32809
-8.94349
2.02003
-2.02003
1.97655
0.0434841
-1.97655
0.111518
-0.52131
-0.0126528
-0.52131
-1.39212
-0.167803
-1.39212
1.79721
-0.237284
1.79721
-1.20315
1.20315
-1.3131
0.10995
1.3131
0.204534
1.69075
-0.0579367
-1.69075
-0.0286699
0.422599
0.00619473
-0.422599
-0.0749611
1.54611
-0.0734085
1.54611
-1.30885
-0.163851
-1.30885
-0.518819
-0.00249147
0.518819
-0.0162785
-3.84954
0.331027
-3.84954
-14.1269
-0.107674
-13.7342
-4.89207
-4.89207
3.49894
13.3475
-1.16064
0.0139453
1.16064
-0.00364969
1.14275
0.0604013
-1.14275
0.0631779
-1.06929
0.0211815
1.06929
0.0102811
-0.377798
0.0539462
-0.377798
-0.511552
0.511552
-0.459905
-0.0516469
0.459905
-0.0192324
0.693782
-0.0561403
0.693782
0.53744
0.00682639
-0.53744
0.0164213
-1.59657
0.0438874
-1.59657
2.45464
0.0171764
2.45464
-1.2663
-0.0425591
1.2663
-0.0818263
-0.100878
14.6758
-3.19594
0.0473803
3.19594
-14.8806
14.928
-0.545141
0.167343
0.545141
0.54674
3.11717
0.401348
-3.11717
0.439854
2.0548
0.0374531
-2.0548
0.0347657
-1.15217
-0.239955
-1.15217
-1.97152
-0.199179
1.97152
-0.174307
-15.0745
-0.323203
15.3977
-15.1705
4.17275
0.256464
-4.17275
15.1844
-0.593632
-0.0440096
0.593632
-0.0820796
0.880375
-0.186593
0.880375
1.62186
-0.0757456
-1.62186
0.0252859
-2.41497
0.141218
2.41497
0.039672
-0.993616
-0.15855
0.993616
-0.113241
-4.37043
4.84254
2.63858
-3.51515
-3.83992
-6.87194
1.42499
2.4491
4.87543
-6.20667
-5.18595
-6.13571
8.83926
-8.39941
-9.19778
9.42416
7.67409
-7.6886
-6.09988
6.30441
6.85251
-6.79458
1.90641
1.90845
8.03049
-8.02549
-12.4664
12.2741
8.11365
-8.26806
12.4126
-12.3688
-14.0675
14.105
-5.38039
5.39251
-6.671
6.63609
-6.90532
6.8235
-4.46054
-4.70285
8.69889
-8.62929
11.2781
-11.4353
-9.28741
9.48434
3.33458
1.50796
3.66116
-2.11303
4.01944
-1.72507
4.36366
4.44425
-8.90479
4.23922
-8.07914
5.23182
6.04628
-5.11431
-1.75764
-5.91528
5.88662
-5.69189
5.70217
9.15714
-9.30825
-2.09008
3.99853
-1.73171
4.18081
-3.77037
-2.32951
3.33813
1.53731
4.71947
3.97942
-4.81956
-1.31614
-8.09471
8.01896
-8.40871
8.24486
0.0599335
7.35713
-7.41706
3.63201
-2.51777
9.8749
6.32149
6.62636
7.40227
-7.00092
0.997136
-8.4142
-8.60617
-1.91502
1.94757
1.8889
-1.86857
5.5257
2.14839
5.4286
-5.40933
-2.27927
-5.36544
3.72846
2.57595
3.83841
3.9534
2.8991
3.98111
3.50876
-3.5004
-0.00835302
-3.88673
7.39549
0.49813
-6.21624
-4.67894
4.54303
3.48746
4.54969
-5.0416
-2.98389
-4.87786
-6.71218
-5.75426
-6.91136
7.41
4.86411
7.30121
-8.8667
8.90637
4.9998
3.11385
4.9042
-4.67754
-3.59052
-4.72057
14.6573
-3.28474
-11.3725
-7.38966
-6.67787
7.25197
5.1606
7.78622
6.31877
7.82098
4.61774
10.0395
-9.77834
3.10047
-3.29456
-2.08583
-3.24692
3.11042
2.28209
3.15141
-3.85259
-2.81841
-3.83865
-3.91562
-2.98971
3.91849
2.71761
-4.08671
-4.322
4.12927
2.69423
4.05537
-9.24131
4.88813
-9.59098
-5.82896
-2.80033
-5.71745
5.76194
3.47275
-9.23469
-3.14285
12.9796
-6.93335
11.222
-6.12825
-5.30704
-6.15692
-6.95645
-2.33095
-6.7246
-5.15431
4.91435
-5.55465
5.31737
15.4386
-8.40159
-7.03704
-4.05557
-2.739
3.85854
-0.197388
-4.35038
4.34203
-0.330939
4.03272
5.54068
5.34329
-3.5534
-2.1385
-3.49022
3.37891
2.32326
3.4001
6.83521
2.32193
6.7704
-6.04312
-3.26513
-6.13152
4.7931
-4.8455
1.99419
-1.99669
5.07332
3.17155
-4.99991
-3.0948
7.73928
-3.60532
-4.13395
-13.9788
11.3127
2.66609
-4.10386
-0.471847
0.27265
-5.73057
-3.4672
5.41921
1.20715
12.5198
9.05262
-7.13913
7.47016
8.25861
8.13694
-0.469236
3.21906
-3.05172
5.75773
-3.13677
-2.62095
4.71654
-4.85362
-1.41498
-6.37768
4.9627
0.574972
1.21546
-1.4624
-1.40978
-0.505243
-1.39336
1.17013
0.718767
1.17632
0.722959
1.22461
-2.85161
0.604608
2.247
-2.12865
-1.26396
-4.37494
-1.93282
6.30775
5.42216
2.5968
-5.44745
0.0820027
1.87605
-1.88696
-0.487571
-3.88737
2.88498
-3.37255
-5.06336
-2.14178
7.20514
-3.12436
-0.365858
3.06396
0.774454
-3.54885
-2.36644
3.50908
0.472037
-4.0459
8.09517
-4.04927
-6.18439
2.87774
4.51775
5.45369
-6.06697
3.16379
2.90319
-1.54922
3.81968
0.73001
3.76876
-9.62825
6.64437
5.65713
3.82722
-5.84639
0.968535
-8.65972
13.1504
-11.3351
-1.81528
6.80586
6.34452
7.79128
7.64734
-5.09764
12.8889
-1.44861
-9.8865
10.1083
-6.28111
7.49626
-13.7774
-15.1436
5.2571
-10.1528
12.0762
-1.9234
-2.84799
-6.01871
13.0008
-1.29968
-11.7011
6.00153
-7.51815
-6.07671
13.5949
-10.8029
9.66724
-3.38303
-6.28421
-7.27459
-5.09418
7.13337
1.773
-13.4987
16.5992
-3.4592
4.2996
0.604607
4.26742
5.77781
-8.39536
2.61755
5.02508
-8.40811
3.74655
-12.1419
-6.42735
12.6963
-6.26891
-9.22768
-8.44489
-0.782787
2.39849
14.2007
-8.71726
6.29787
2.41939
2.79606
0.604036
-2.82246
-0.424467
0.358454
5.43022
-5.78867
3.50986
3.54225
4.00925
1.42096
3.52795
2.35867
-3.5243
-0.314342
-4.91579
1.92609
-2.19819
-4.85267
6.77876
-5.46289
0.610218
-3.42929
-4.7451
8.1744
-5.51512
3.86411
4.23106
6.18737
-6.61394
1.86883
-3.31035
-3.30358
3.59405
-5.79224
2.4875
4.29126
5.18173
0.859723
6.73247
5.96379
-10.2052
0.61425
9.94321
-8.62707
2.19299
5.628
-8.49086
0.0459642
-5.67148
1.32314
-8.25649
-7.91155
7.14123
-9.47218
-6.63614
6.13769
0.632714
-6.2138
-0.510803
-3.10759
-2.04672
-3.26614
-2.07207
-3.48258
-7.16971
-1.26397
-5.90574
3.65038
-4.1374
-2.77396
4.31171
1.00566
-3.31588
3.27187
-3.65732
3.47072
-0.0759366
4.41796
5.26735
2.52835
-2.86874
5.39709
-6.5668
8.88873
-10.9306
4.36385
4.82408
-8.0892
-6.10657
2.22878
2.56431
2.16436
9.49754
-12.3868
2.88921
-10.4281
11.7436
-1.31547
-15.1068
4.67873
-5.60929
1.82533
0.168863
1.81268
0.514738
2.31926
-2.83399
-1.48195
-1.49823
-3.02234
-4.58989
7.61223
1.61509
-4.37353
2.75845
-4.1219
5.73699
0.0755473
-4.44908
5.78999
-3.47073
5.95885
-4.04635
1.9125
4.26854
7.47142
-3.20287
5.37618
-2.20463
2.30852
-5.51139
-2.28138
-3.82462
6.10671
-4.34977
4.95999
-0.318038
5.27803
-4.65737
1.05204
-0.648111
2.89414
2.95783
5.62243
-4.20147
4.02291
-6.22754
-1.48848
-5.36782
-1.07656
-2.44131
-6.03781
8.47912
7.49099
-9.9323
-5.1426
9.24522
-4.10261
6.7151
-5.14072
-1.57437
-1.92055
-2.92495
1.8666
1.35246
8.06756
-0.222723
-4.918
-3.27444
-2.7277
3.69058
2.06715
-2.20207
4.86816
1.92942
-0.71396
0.210176
0.966148
1.69693
-1.48676
0.571213
1.12572
-0.891186
1.36587
0.510182
-1.3727
-0.0206614
-1.05377
3.93874
1.19323
-1.912
0.425241
1.11628
-4.25305
6.16211
-3.35461
-2.8075
7.27839
1.2713
-4.62591
5.10637
-4.5314
2.72726
-4.66008
-1.89865
-6.43005
-4.28166
-3.57318
6.33162
-4.03905
6.63585
1.26827
-6.71786
7.98612
-4.32061
2.17883
-3.2552
3.76538
-1.41637
-1.83882
3.75039
3.45475
-3.6675
-0.219869
0.0828927
2.87612
-2.79323
-0.496426
-2.62507
-5.4915
5.96353
-2.8047
5.96848
2.5924
-2.58107
8.54956
2.22764
-4.80872
-3.95675
-4.32261
-1.90553
3.54816
-0.972402
-3.74816
-7.25661
3.76873
3.54971e-05
-9.51395
11.1881
-1.67418
-6.02649
-0.617875
7.42373
-9.43855
1.03044
-5.692
5.49613
6.22614
6.22617
-11.7464
0.0453279
-6.8823
1.9259
-8.8082
8.27042
-4.16219
9.41929
-9.73239
6.95844
-8.72674
7.60402
-1.20418
7.84368
-5.22614
3.52885
-8.62303
-6.85003
7.69797
-4.58412
8.30258
-5.55154
13.8541
-9.01074
7.95382
5.90031
-1.6126
-4.54432
-7.61898
6.00638
0.33484
4.60226
5.93981
-3.58114
5.62546
2.98518
-6.29554
-2.80706
-8.74731
2.45177
-4.51624
-2.46212
4.91389
3.72524
4.32928
1.61031
-3.90481
9.52847
-10.3113
-3.25956
-4.65199
7.99724
-1.99086
5.56629
-10.2183
-2.6902
7.86297
-1.08256
-6.78041
0.53862
-7.17476
2.94053
-10.1153
6.53165
-7.04246
1.14468
-6.75397
-2.1712
-2.25328
-1.50231
-2.15501
-5.73945
4.23714
-1.06072
2.21115
-8.574
7.49144
-3.16958
7.40671
-2.54873
-0.717405
2.66197
0.808751
8.21546
-0.272331
-5.83424
-2.00822
6.06178
-4.05356
1.68236
-6.31014
-0.248365
3.00719
4.27119
-7.9699
-0.119307
-5.95355
-3.30713
5.87145
5.93808
13.4291
1.04232
6.3913
-0.519851
7.43362
1.64451
1.62528
-5.32208
8.2113
3.15704
7.52089
-0.640307
2.55281
1.17237
1.17298
0.713984
1.95029
1.00754
3.00234
0.168341
-1.32989
4.81045
-7.53815
-0.107548
-6.79533
2.62883
6.72233
-4.0935
4.71448
-2.64733
0.660925
-0.122086
-1.27991
1.40199
-2.74304
-1.99387
-0.868149
-1.96739
2.39263
1.97135
-1.52448
-1.21856
0.71074
-4.9924
3.94934
-4.16921
-0.714457
7.27167
-3.25231
0.459082
-1.07348
-2.16599
-2.67123
2.6919
8.20437
0.345185
4.1551
6.30872
3.94228
0.361145
6.66632
-8.58972
-5.47558
-8.54439
-0.27397
7.14976
3.25087
10.9498
9.15118
7.16031
-3.05798
-13.3692
10.8025
-2.59125
9.48707
-2.70666
-7.40863
6.1439
2.74482
-6.77662
-0.265838
-7.67447
-10.2657
-0.601031
8.09247
-7.61443
6.89703
4.85031
1.05543
-1.69624
-0.557037
1.74789
-0.122609
7.31101
-2.1693
-8.58195
10.7512
-4.55302
4.44548
2.44088
2.42728
3.84288
1.19555
-7.3864
-11.4799
-2.68953
-1.56353
-5.49702
0.81073
-2.78208
6.635
-2.18952
5.06062
8.56173
9.22265
-3.39916
-6.53314
7.50178
-2.44115
6.7815
)
;

boundaryField
{
    wall-4
    {
        type            calculated;
        value           uniform 0;
    }
    velocity-inlet-5
    {
        type            calculated;
        value           uniform -3.75095;
    }
    velocity-inlet-6
    {
        type            calculated;
        value           uniform -5.62643;
    }
    pressure-outlet-7
    {
        type            calculated;
        value           nonuniform List<scalar> 8(2.58996 2.70573 6.08098 6.45524 9.18288 8.23887 9.07557 8.18411);
    }
    wall-8
    {
        type            calculated;
        value           uniform 0;
    }
    frontAndBackPlanes
    {
        type            empty;
        value           nonuniform 0();
    }
}


// ************************************************************************* //
