/*--------------------------------*- C++ -*----------------------------------*\
  =========                 |
  \\      /  F ield         | OpenFOAM: The Open Source CFD Toolbox
   \\    /   O peration     | Website:  https://openfoam.org
    \\  /    A nd           | Version:  7
     \\/     M anipulation  |
\*---------------------------------------------------------------------------*/
FoamFile
{
    version     2.0;
    format      ascii;
    class       volScalarField;
    location    "34";
    object      p;
}
// * * * * * * * * * * * * * * * * * * * * * * * * * * * * * * * * * * * * * //

dimensions      [0 2 -2 0 0 0 0];

internalField   nonuniform List<scalar> 
918
(
3.90238
17.1069
0.181723
3.82834
0.148386
16.1999
1.1036
2.65045
3.36701
0.58143
0.525344
2.7597
12.2099
6.36677
1.53019
0.168007
2.6963
0.524145
3.26586
0.281865
2.10794
3.53149
3.65698
3.38727
2.71312
3.39657
8.92528
0.258798
0.0275873
0.0946748
0.13633
0.0712244
0.000150286
13.5884
14.723
15.1762
2.90879
1.22382
1.22429
1.29642
1.01166
0.900449
2.65757
2.67068
1.72648
2.64503
2.6391
3.05002
3.35118
3.36841
3.41243
3.37738
3.42396
1.36026
0.560978
0.536718
0.578556
0.586234
0.598985
0.538517
0.531251
0.496306
0.466202
2.70886
2.77039
2.7783
2.74252
2.73301
15.378
14.4444
15.0745
13.0217
13.3745
11.4036
10.6282
6.89841
7.36915
5.87817
5.31169
1.06877
0.777961
1.87509
2.29448
0.0235171
0.202652
0.237558
2.69806
2.70291
2.69945
2.70002
1.97996
0.559335
0.583855
3.1916
3.13996
3.52659
3.5774
3.45915
3.47812
0.30445
0.296861
0.252363
0.241806
0.192295
2.43473
2.54252
3.33882
3.25145
2.72394
2.71143
2.71775
2.42086
2.68911
2.69559
4.54017
4.8787
3.98441
4.45753
8.31372
7.67087
9.68212
10.3699
0.0849351
0.0368072
0.114114
0.0331611
0.0774717
2.89217
2.8669
2.91958
2.9304
2.96016
1.00646
0.748429
1.36622
1.47454
1.39219
1.46456
0.643774
0.810605
0.718934
1.97277
2.67486
2.68121
1.54983
1.6784
1.60998
1.79394
1.84545
2.97639
3.02638
2.9966
3.17756
3.08235
3.12526
3.44304
3.37452
3.41442
1.45611
1.5327
1.27707
1.19236
0.516175
0.524532
0.523928
0.590788
0.587328
0.657576
0.70028
0.537792
0.507567
0.573542
0.54796
0.560793
0.430681
0.401485
2.67529
2.64845
2.74027
2.76263
2.85178
2.83283
2.79351
2.81616
9.44746
9.97344
10.1134
9.48671
-0.355964
-1.21995
2.63976
2.95153
0.0636572
0.0486999
0.025066
0.0509836
0.0674732
0.0129144
0.391651
0.359617
0.275745
0.334065
2.70038
2.696
2.0349
2.09097
1.94381
1.8822
3.00844
3.02663
3.09742
3.05323
0.381561
0.325391
0.3526
2.62138
2.57958
2.60726
2.35511
2.28773
2.47632
2.50919
2.69447
2.69941
2.69826
4.90556
5.28232
10.6717
11.0913
11.1611
11.7241
13.3612
13.1051
12.1029
2.78911
2.84144
2.82003
2.98657
2.93911
2.96739
2.86668
2.90456
2.8865
0.532983
0.355456
1.76806
1.70293
1.54413
1.62216
1.99446
2.0209
2.69552
2.68616
2.69144
1.91343
1.97562
1.09423
1.01176
2.54523
2.62606
2.58746
8.80458
7.89321
8.94903
8.38828
7.71965
8.20077
0.0485695
-0.718515
-0.272457
4.10739
3.31361
3.7353
0.475578
0.400848
0.426775
2.11784
2.1039
1.62554
1.79194
1.70765
5.65321
6.14547
7.0808
5.86989
6.48989
7.08207
6.78265
1.92953
1.83886
1.88321
2.10055
2.12202
2.21177
2.04828
2.12028
0.766684
0.933281
0.856533
2.11609
2.11563
2.11014
3.29646
3.36002
0.168145
0.242069
3.409
3.3865
0.00942543
0.0350485
3.3197
1.32946
1.90173
3.11621
3.05122
3.33567
0.630853
1.39344
0.561929
0.696092
0.537645
2.78499
2.75002
2.63928
0.0911742
0.244802
0.332031
0.663131
3.26272
3.18492
3.32029
3.35761
3.3629
0.135865
0.180224
0.121869
0.263773
0.204466
0.251589
2.91337
2.92161
1.29493
3.32024
3.3567
3.35909
3.17021
3.2877
3.17663
0.18397
0.109544
0.121808
2.24736
2.49117
3.17239
2.71899
3.11967
3.09112
2.81588
4.04126
3.5557
3.59519
4.02674
2.67504
2.64764
1.94961
1.78325
1.99798
1.96792
3.09974
3.05564
3.02936
3.0028
3.2244
3.16672
3.26984
3.19265
3.24691
3.28536
0.613354
0.617506
0.620903
0.548515
1.39487
1.54446
1.23557
1.26958
0.922662
0.50166
0.495899
0.541638
0.518394
0.604399
0.528496
0.605636
0.519144
0.478256
0.451978
0.592696
0.531193
0.53123
2.78779
2.77999
2.74937
2.75296
2.76709
2.78183
2.66517
2.71107
2.66975
2.52666
2.59315
2.53935
0.150965
0.134489
0.104165
0.254756
0.27236
0.21205
0.161927
0.241341
0.231842
0.167293
0.295037
0.282328
0.758112
0.69759
2.0887
1.91129
1.51693
3.07518
3.16068
3.07102
3.21537
3.26753
3.28097
3.23323
3.17047
2.93595
2.93626
2.88759
2.88264
1.31145
1.10747
1.43337
1.4265
1.39097
2.70132
2.4545
2.33273
2.37122
2.63032
3.17419
2.32003
2.17715
2.18198
1.66479
2.53395
1.92373
2.4308
2.29459
4.89896
5.30114
4.895
4.39715
4.48181
0.558557
2.61499
1.63329
1.61655
1.87433
1.78536
2.56517
2.67418
2.67442
2.61632
2.6307
2.65011
2.63758
2.65764
2.65639
2.64824
2.47468
2.24657
2.11756
2.12543
2.69652
2.51127
2.57309
2.50457
2.98134
3.04471
3.00132
2.92927
2.98216
2.92534
2.9179
2.94894
3.11544
3.0818
3.05654
3.10354
0.616721
0.597716
0.729321
0.710294
0.652493
0.611207
0.725112
1.02714
0.948273
1.49553
1.56952
0.972866
0.803757
0.790418
0.99448
1.18281
1.18416
0.862315
0.984662
1.0628
0.971811
1.17304
1.07168
0.546479
0.598778
0.574579
0.559974
0.706085
0.829234
0.728654
0.494801
0.519753
0.447705
0.417726
0.721239
0.59742
0.604855
0.761322
0.221915
0.254637
0.283362
0.479541
0.375673
0.417066
2.86139
2.81555
2.83397
2.73435
2.74457
2.73468
2.68787
2.87323
2.83702
2.85406
2.68361
2.69715
2.66873
2.70448
2.75397
2.78936
2.89743
2.86545
2.76769
2.78739
2.74415
2.73454
2.64725
2.58645
2.5766
0.207497
0.157372
0.186526
0.15847
0.110988
0.139962
0.435279
0.31342
0.379781
0.351815
0.394706
0.279401
0.258695
0.942785
1.06137
1.08507
0.882623
0.885808
2.06477
2.07005
1.92268
1.80275
1.86672
1.96999
1.98446
1.65455
1.78847
1.74058
1.97539
2.11378
3.16194
3.15444
3.11876
3.09745
3.12393
1.44191
1.69521
1.74208
1.86807
1.31906
1.49344
1.85035
1.72172
1.93425
1.51493
2.69863
2.70661
2.65123
2.69956
2.70413
2.44813
2.55968
2.63344
2.60799
2.67338
2.68425
2.58188
2.64269
2.63043
2.55199
2.55584
2.48673
2.52338
2.4676
2.44553
2.7204
2.70732
2.74011
2.68346
2.72625
2.66547
2.70328
2.712
2.73219
2.63648
2.56648
2.56959
2.61715
2.58718
2.62873
2.6478
1.8728
1.93995
1.44275
1.09504
1.21097
0.647874
0.5891
0.928306
1.39369
0.771301
0.496048
-0.117489
2.54446
3.06457
2.64508
2.55871
2.60796
2.6305
2.61684
2.57954
2.58992
2.67724
2.68651
2.69223
2.60365
2.60316
2.6215
2.60403
2.54669
2.29944
2.28763
2.20408
1.94061
1.99712
2.36813
2.2414
2.10719
2.1112
2.47822
2.32225
2.41802
2.45716
2.31072
2.26384
2.57498
2.65916
2.6867
2.65879
2.46732
2.48696
2.53128
2.58058
2.6054
2.64967
2.9547
3.02156
3.033
3.00025
2.98021
2.99249
2.9598
2.97402
3.03311
3.04934
3.02908
0.567903
0.594274
0.583795
0.562395
0.623011
0.604827
0.825495
0.78714
0.645564
0.688863
0.655983
0.67749
0.596642
0.604541
1.03497
1.09884
1.15543
1.03988
1.33925
1.56953
1.67779
1.56813
1.23302
1.25737
1.38115
0.727052
0.728632
0.679276
0.760977
0.786067
0.519608
0.446917
0.404076
0.501672
0.53212
0.392829
0.343467
0.363623
0.44888
0.404258
0.353794
2.84245
2.81427
2.81181
2.7845
2.793
2.8404
2.868
2.84233
2.86064
2.86606
2.81497
2.8001
2.82179
0.355841
0.304015
0.325289
0.317396
0.329233
0.309954
0.333359
1.52403
1.29543
1.40346
1.2468
0.991997
1.05063
1.67945
1.90629
1.83851
2.06792
2.01967
2.01071
1.92629
1.95867
1.71548
1.96305
1.82164
2.09283
2.04157
2.08625
1.98616
2.02189
2.31192
2.40607
2.0143
2.11716
2.18948
1.94659
1.99409
2.07859
2.29982
1.3805
1.55807
1.78354
1.83053
1.50636
1.72905
1.47575
1.56833
1.66125
1.74477
1.77707
2.68621
2.68038
2.69375
2.6907
2.70673
2.69638
2.68156
2.70615
2.71415
2.69125
0.626268
1.01645
0.197866
1.1991
1.56002
2.67634
2.50257
2.88026
2.7751
2.67884
2.65842
2.65054
2.60779
2.67222
2.64525
2.23894
2.40526
2.35526
2.37679
2.2377
2.14569
2.59591
2.60425
2.60795
2.63913
2.63885
2.69755
2.94766
2.93081
2.9372
2.94435
2.89244
2.89721
0.883251
0.797992
0.951524
0.945507
0.837225
0.772885
0.461573
0.394248
0.351902
0.327719
0.37636
0.385303
1.57771
1.57232
1.30781
1.48314
1.36056
1.1419
1.18784
1.25724
1.41783
1.51545
1.79805
2.0835
1.93367
1.97651
1.74366
1.83727
1.78589
1.64192
1.67918
1.85121
1.83302
2.0626
1.23675
1.55938
2.95306
2.94738
2.71447
2.43503
2.14841
2.41792
2.54949
2.43066
2.50026
2.60003
2.56976
1.49316
1.40782
2.21032
2.55249
1.81897
1.69071
1.73205
2.04368
2.04707
)
;

boundaryField
{
    wall-4
    {
        type            zeroGradient;
    }
    velocity-inlet-5
    {
        type            zeroGradient;
    }
    velocity-inlet-6
    {
        type            zeroGradient;
    }
    pressure-outlet-7
    {
        type            fixedValue;
        value           uniform 0;
    }
    wall-8
    {
        type            zeroGradient;
    }
    frontAndBackPlanes
    {
        type            empty;
    }
}


// ************************************************************************* //
