/*--------------------------------*- C++ -*----------------------------------*\
  =========                 |
  \\      /  F ield         | OpenFOAM: The Open Source CFD Toolbox
   \\    /   O peration     | Website:  https://openfoam.org
    \\  /    A nd           | Version:  7
     \\/     M anipulation  |
\*---------------------------------------------------------------------------*/
FoamFile
{
    version     2.0;
    format      ascii;
    class       surfaceScalarField;
    location    "34";
    object      phi;
}
// * * * * * * * * * * * * * * * * * * * * * * * * * * * * * * * * * * * * * //

dimensions      [0 3 -1 0 0 0 0];

internalField   nonuniform List<scalar> 
1300
(
3.75095
5.62643
-2.4371
3.75095
-2.68782
5.62643
-2.03366
2.03366
-0.430475
0.430475
1.90721
1.84375
-1.22582
1.22582
-1.44449
1.44449
-0.949263
0.949263
-3.87943
3.87943
-3.16258
3.16258
2.0572
-2.0572
-1.89935
1.89935
-0.507792
0.507792
-1.58623
1.58623
1.94971
-1.94971
-1.71291
1.71291
-0.742847
0.742847
-1.50144
5.25239
2.24951
2.24951
-0.802821
0.802821
-3.57306
3.57306
4.63401
-4.63401
5.01797
-5.01797
-2.58087
-3.27122
1.01928
-7.6241
-1.66854
-1.66854
-8.391
8.391
-2.76457
2.86186
1.1298
-1.1298
-0.375848
0.375848
-1.88475
-0.148905
-1.88475
2.09684
-0.0631784
2.09684
-0.467252
0.0367761
-0.467252
1.57257
-1.57257
0.41236
0.0181154
0.41236
1.25424
-1.25424
-1.90765
3.81486
1.8433
-1.7566
7.009
-1.99435
3.8381
-2.4127
2.4127
-1.23291
0.00708918
-1.23291
1.21834
0.00747966
1.21834
-2.35076
2.35076
-1.32224
-0.122257
-1.32224
1.50146
-0.0569708
1.50146
1.18512
-1.18512
-0.96538
0.0161168
-0.96538
0.904215
0.0450479
0.904215
1.36026
4.26617
-6.98669
9.84855
-4.26617
0.386738
3.48672
0.392707
3.48672
-3.1486
-0.0139771
-3.1486
3.25873
-0.0961457
3.25873
1.82991
0.227297
1.82991
-2.36932
0.312112
-2.36932
-4.46808
-4.89535
-1.98907
0.0897175
-1.98907
-0.509854
0.00206188
-0.509854
0.517774
-0.00998212
0.517774
-1.57641
1.57641
-1.78493
0.198697
-1.78493
1.51732
0.432388
1.51732
1.64933
2.10162
5.40029
-5.40029
3.45058
-1.54655
-0.166352
-1.54655
-1.83126
-3.18671
1.83126
-0.118356
-0.490417
-0.25243
-0.490417
1.77752
0.471997
1.77752
0.868278
0.0359376
-0.868278
0.0654568
1.47827
-1.47827
0.486978
0.315843
0.486978
-3.51786
3.51786
3.38061
-0.121887
-3.38061
-0.19245
4.42916
0.204849
4.42916
-4.78439
0.150379
-4.78439
3.78771
-7.05893
-4.2695
1.76935
0.130002
-1.76935
0.100802
1.15908
-0.0292761
1.15908
-1.07792
1.07792
-1.16924
0.039437
-1.16924
-0.323121
-0.0527272
-0.323121
0.440367
-0.0645192
0.440367
-1.80074
-0.0840113
-1.80074
-2.01813
0.233197
2.01813
0.078712
0.641124
-0.641124
-0.498405
0.0311533
-0.498405
-1.66705
-0.133689
1.66705
-0.0944862
-1.55973
-0.0128348
-1.55973
-1.1966
0.0273614
1.1966
0.0576402
1.45109
0.326429
-1.45109
0.196843
-1.77245
3.87407
-1.9785
3.8218
-2.21268
-0.200021
-2.21268
2.53685
-0.124149
2.53685
1.39692
0.189307
-1.39692
0.164018
1.26992
-0.0515873
1.26992
-2.37969
0.0289328
-2.37969
2.21928
0.131479
2.21928
1.28703
-0.0171056
-1.28703
-0.0352048
1.49808
0.00338377
1.49808
1.18779
-0.00267797
1.18779
-1.14961
-0.0355028
-1.14961
1.04414
-1.04414
1.01563
0.0285088
-1.01563
0.0502494
-14.4245
14.5749
-0.189898
-14.2346
3.29682
3.29682
1.08798
0.741926
1.08798
-2.67537
0.306059
-2.67537
4.29173
-8.56123
4.81706
-9.28514
4.11178
-11.7359
4.2903
-9.18565
2.15825
-2.15825
2.11242
0.0458299
-2.11242
0.123357
-0.499157
-0.010697
-0.499157
-1.40445
-0.171962
-1.40445
1.82194
-0.24553
1.82194
-1.20228
1.20228
-1.31257
0.11029
1.31257
0.204753
1.52784
-0.0297628
-1.52784
-0.0187116
0.409549
0.00281122
-0.409549
-0.0808687
1.55212
-0.0738484
1.55212
-1.31235
-0.165924
-1.31235
-0.500547
0.00139004
0.500547
-0.0135695
-3.84923
0.331372
-3.84923
-14.1269
-0.107679
-13.7342
-4.89207
-4.89207
3.49894
13.3475
-1.16336
0.0137467
1.16336
-0.0042799
1.14148
0.060797
-1.14148
0.0635582
-1.06667
0.022534
1.06667
0.0112498
-0.376599
0.0534786
-0.376599
-0.51254
0.51254
-0.460109
-0.0524306
0.460109
-0.0197422
0.698685
-0.057561
0.698685
0.512436
0.00533799
-0.512436
0.0140315
-1.60577
0.0460389
-1.60577
2.53609
0.000760664
2.53609
-1.27057
-0.0417796
1.27057
-0.0827757
-0.100865
14.6758
-3.19596
0.0473554
3.19596
-14.8806
14.928
-0.543114
0.166515
0.543114
0.544868
3.11592
0.40193
-3.11592
0.44055
2.18905
0.0302269
-2.18905
0.030797
-1.16208
-0.242372
-1.16208
-2.00578
-0.206901
2.00578
-0.183839
-15.0744
-0.323376
15.3978
-15.1705
4.1726
0.256557
-4.1726
15.1845
-0.59555
-0.0455736
0.59555
-0.0830103
0.886736
-0.188051
0.886736
1.63085
-0.0787303
-1.63085
0.0250806
-2.51054
0.130856
2.51054
0.0255427
-1.00193
-0.160148
1.00193
-0.115191
-4.37059
4.84259
2.63841
-3.2303
-3.82863
-6.41702
1.42481
2.44927
4.87538
-6.50788
-5.228
-6.40708
8.83848
-8.39793
-9.18774
9.41504
7.74459
-7.75742
-6.09886
6.30361
6.85402
-6.79638
1.90676
1.9081
7.93501
-7.92792
-12.5863
12.3862
7.83791
-7.96017
12.7484
-12.7194
-14.6211
14.6513
-5.34083
5.35694
-6.68912
6.65361
-6.93465
6.85188
-4.26295
-5.02219
9.2576
-9.16789
10.5208
-10.6871
-9.25881
9.4575
3.33493
1.50766
3.66136
-2.11287
4.01963
-1.72523
4.36363
4.55284
-8.81579
4.00839
-7.83702
4.81356
5.70722
-4.6952
-1.72181
-5.92134
5.89207
-5.68386
5.6951
9.19332
-9.34222
-2.09024
3.99834
-1.73156
4.18083
-3.77018
-2.32869
3.33779
1.5376
5.00194
4.25567
-5.13194
-1.27514
-8.15756
8.07883
-8.45956
8.29364
0.0609852
7.35782
-7.4188
3.63405
-2.52029
9.8781
6.31819
6.62425
7.40214
-7.00021
0.995796
-8.4146
-8.60705
-1.84213
1.87329
1.81884
-1.80073
5.56466
2.17993
5.47017
-5.45421
-2.30321
-5.40817
3.72714
2.57648
3.83743
3.95548
2.89854
3.98285
3.50807
-3.50085
-0.00722566
-3.88723
7.3953
0.497493
-6.21592
-4.67832
4.47042
3.46459
4.4779
-4.99307
-2.93485
-4.82905
-6.77447
-5.8118
-6.98137
7.52558
4.86067
7.40143
-9.05716
9.0827
4.73079
3.10712
4.67382
-4.55021
-3.40996
-4.58541
14.7766
-3.41116
-11.3654
-7.68836
-6.93274
7.55688
5.19149
8.22588
6.42545
8.25668
4.75887
10.0177
-9.95035
3.01761
-3.27796
-2.06287
-3.22771
3.07096
2.28599
3.11601
-3.86025
-2.82886
-3.8465
-3.92806
-3.0066
3.93073
2.72288
-4.10512
-4.35444
4.1469
2.70498
4.36253
-9.59053
4.82312
-9.84532
-6.2378
-2.93008
-6.11445
5.87401
3.38765
-9.26165
-2.94178
12.5006
-6.79339
10.7788
-5.67342
-5.01371
-5.69213
-6.94837
-2.31043
-6.71518
-5.18161
4.93924
-5.6032
5.35767
15.428
-8.41839
-7.00958
-4.05619
-2.74019
3.85934
-0.197989
-4.34999
4.34277
-0.330361
4.03327
5.54093
5.34294
-3.55036
-2.13349
-3.48681
3.37027
2.32483
3.3928
6.84739
2.34593
6.78421
-6.07037
-3.27185
-6.15438
4.78046
-4.83319
1.93268
-1.93129
5.10281
3.19083
-5.02896
-3.12861
7.72597
-3.59953
-4.12643
-13.9829
11.3042
2.6787
-4.1048
-0.470754
0.272093
-5.72659
-3.46115
5.41448
1.20977
12.514
9.05282
-7.13878
7.47015
8.25899
8.1371
-0.469945
3.2089
-3.04239
5.68943
-3.15367
-2.53575
4.74287
-4.87656
-1.41152
-6.44169
5.03017
0.593615
1.18482
-1.43725
-1.35524
-0.48689
-1.34121
1.129
0.689845
1.13181
0.696232
1.17706
-2.77102
0.586894
2.18413
-2.07479
-1.21383
-4.38226
-1.9603
6.34256
5.46277
2.61606
-5.48785
0.0796821
1.80558
-1.81556
-0.47971
-3.90255
2.85313
-3.33284
-5.09906
-2.15013
7.24919
-3.12279
-0.364019
3.06199
0.775437
-3.55145
-2.36989
3.51201
0.470833
-4.04765
8.09332
-4.04566
-6.18114
2.87637
4.51893
5.45285
-6.06681
3.16565
2.90117
-1.54788
3.74937
0.728529
3.69779
-9.57199
6.63714
5.62165
3.83586
-5.81095
0.981903
-8.59009
13.1055
-11.3323
-1.77322
6.73021
6.37532
7.81198
7.61599
-5.09935
12.9113
-1.48918
-9.84313
10.0793
-6.24341
7.51928
-13.7627
-15.1353
5.29213
-10.1308
12.1394
-2.0086
-2.93177
-6.12539
13.0626
-1.2768
-11.7858
6.12463
-7.3288
-6.02641
13.3552
-10.74
9.43637
-3.24282
-6.19355
-7.47266
-5.24678
7.34181
1.7409
-13.705
16.7226
-3.68727
4.01082
0.662998
4.0142
5.68074
-8.41263
2.73189
5.05922
-8.30204
3.63403
-12.0467
-6.69455
13.0677
-6.37311
-9.62463
-8.77271
-0.851926
2.54329
14.1793
-8.96874
6.58465
2.38409
2.78433
0.608474
-2.81284
-0.414872
0.337925
5.40649
-5.74441
3.45393
3.48987
3.9593
1.44718
3.53311
2.35896
-3.52883
-0.317677
-4.93428
1.92768
-2.2114
-4.88478
6.81246
-5.47752
0.592743
-3.43889
-4.73488
8.17377
-5.50176
3.85666
4.23666
6.18149
-6.6197
1.88482
-3.30384
-3.31586
3.5927
-5.8041
2.50632
4.30614
5.2113
0.856853
6.9421
6.12557
-10.3297
0.484433
10.3812
-9.1061
2.25407
6.00261
-8.83872
0.0660123
-6.04844
1.28851
-8.08191
-7.97314
7.16534
-9.47577
-6.59735
6.13748
0.646735
-6.21619
-0.49899
-3.12314
-2.05847
-3.28329
-2.09688
-3.50633
-7.19622
-1.26095
-5.93527
3.67829
-4.17541
-2.80596
4.35925
0.998421
-3.32167
3.2761
-3.66981
3.48176
-0.0751479
4.41792
5.2678
2.5276
-2.87003
5.39764
-6.58568
8.93161
-10.9736
4.38796
4.87267
-8.14452
-6.10096
2.22415
2.55631
2.15963
9.49281
-12.3559
2.86306
-10.4029
11.739
-1.33607
-15.0855
4.6826
-5.59269
1.76227
0.170413
1.75157
0.491151
2.28608
-2.77723
-1.44014
-1.45371
-3.0568
-4.63485
7.69165
1.60386
-4.39423
2.79037
-4.08936
5.69322
0.0600207
-4.45425
5.7202
-3.43412
5.89061
-4.02934
1.86127
4.29185
7.51105
-3.2192
5.42242
-2.23159
2.34104
-5.56024
-2.29381
-3.80586
6.09184
-4.36791
4.96066
-0.347433
5.30809
-4.62035
1.02082
-0.661046
2.82882
2.89428
5.64657
-4.19939
4.0401
-6.27169
-1.52014
-5.41484
-1.1087
-2.42434
-6.0226
8.44694
7.48411
-9.90845
-5.12854
9.22537
-4.09683
6.69935
-5.12942
-1.56993
-1.91469
-2.9185
1.86121
1.3477
8.04705
-0.222531
-4.90689
-3.26492
-2.72005
3.64492
2.04451
-2.18534
4.86404
1.91325
-0.728427
0.190028
0.94178
1.64607
-1.45604
0.576339
1.06973
-0.860911
1.31306
0.492514
-1.3184
-0.0228108
-1.02084
3.87398
1.16328
-1.85313
0.397084
1.09222
-4.24589
6.22547
-3.4113
-2.81417
7.31769
1.27126
-4.68256
5.17043
-4.57682
2.74941
-4.70971
-1.93315
-6.50997
-4.33004
-3.59848
6.38885
-4.09317
6.70923
1.28979
-6.78892
8.07871
-4.30291
2.15278
-3.18966
3.68217
-1.39031
-1.79935
3.76452
3.48467
-3.68214
-0.220412
0.0823846
2.84608
-2.7637
-0.48676
-2.56155
-5.49427
5.96511
-2.8019
5.96754
2.59574
-2.58429
8.55184
2.2244
-4.8087
-3.95674
-4.32076
-1.90753
3.54532
-0.919494
-3.66592
-7.11304
3.68303
0.0147599
-9.41803
11.0378
-1.61974
-5.95344
-0.683704
7.41392
-9.28195
0.97991
-5.64792
5.38984
6.11837
6.13313
-11.783
-0.00278329
-6.92236
1.88854
-8.8109
8.26386
-4.13823
9.43036
-9.77152
6.96556
-8.77309
7.65714
-1.15376
7.90932
-5.17744
3.45612
-8.7029
-6.962
7.47747
-4.37034
8.14046
-5.2976
13.4381
-8.98487
7.50936
5.92871
-1.46009
-4.23204
-7.26176
5.80167
0.247599
4.2618
5.94899
-3.59003
5.63131
3.00165
-6.30549
-2.80245
-8.74802
2.44252
-4.51136
-2.46719
4.90971
3.7143
4.32278
1.59385
-3.90791
9.6454
-10.4973
-3.27229
-4.70085
7.63786
-1.83619
5.45775
-10.1586
-2.62416
7.83184
-1.05027
-6.78157
0.586551
-7.18391
2.91841
-10.1023
6.55736
-7.05635
1.14941
-6.7421
-2.17226
-2.25527
-1.50879
-2.16102
-5.74013
4.23133
-1.05752
2.21858
-8.5585
7.50823
-3.18047
7.41181
-2.55989
-0.723395
2.67508
0.806677
8.21848
-0.255782
-5.84518
-2.00307
6.02926
-4.02619
1.64185
-6.27838
-0.249122
3.01541
4.30227
-8.04559
-0.0989374
-5.94412
-3.30422
5.86054
5.92115
13.4053
1.04938
6.37751
-0.51697
7.42689
1.64266
1.62292
-5.31849
8.18155
3.12846
7.51641
-0.625392
2.48666
1.12618
1.12824
0.687316
1.91462
0.979661
2.93544
0.15821
-1.2955
4.80225
-7.5223
-0.104639
-6.78037
2.63467
6.71501
-4.08035
4.67632
-2.63181
0.650128
-0.140338
-1.21878
1.35912
-2.67609
-1.9472
-0.877473
-1.93608
2.33316
1.9379
-1.45569
-1.2204
0.724088
-5.05413
3.98562
-4.20604
-0.721366
7.35734
-3.21308
0.449377
-1.0603
-2.11217
-2.59906
2.62187
8.20399
0.347849
4.15832
6.31295
3.94306
0.353031
6.56821
-8.57681
-5.47845
-8.57959
-0.315727
7.09819
3.09984
11.0795
9.02855
7.19236
-2.96625
-13.4636
10.7981
-2.61654
9.46202
-2.68044
-7.42187
6.16231
2.7693
-6.80904
-0.24731
-7.66918
-10.2857
-0.585796
8.09403
-7.63269
6.90929
4.85082
1.08445
-1.6954
-0.559868
1.74783
-0.124916
7.30197
-2.17071
-8.56383
10.7345
-4.5443
4.43966
2.45261
2.41143
3.81172
1.17992
-7.38391
-11.4643
-2.70848
-1.53741
-5.52265
0.819915
-2.75781
6.62219
-2.18253
5.05226
8.55201
9.20214
-3.39031
-6.51813
7.48714
-2.43488
6.76726
)
;

boundaryField
{
    wall-4
    {
        type            calculated;
        value           uniform 0;
    }
    velocity-inlet-5
    {
        type            calculated;
        value           uniform -3.75095;
    }
    velocity-inlet-6
    {
        type            calculated;
        value           uniform -5.62643;
    }
    pressure-outlet-7
    {
        type            calculated;
        value           nonuniform List<scalar> 8(2.4371 2.68782 5.85209 6.60482 9.36343 8.05721 9.10879 8.40208);
    }
    wall-8
    {
        type            calculated;
        value           uniform 0;
    }
    frontAndBackPlanes
    {
        type            empty;
        value           nonuniform 0();
    }
}


// ************************************************************************* //
