/*--------------------------------*- C++ -*----------------------------------*\
  =========                 |
  \\      /  F ield         | OpenFOAM: The Open Source CFD Toolbox
   \\    /   O peration     | Website:  https://openfoam.org
    \\  /    A nd           | Version:  7
     \\/     M anipulation  |
\*---------------------------------------------------------------------------*/
FoamFile
{
    version     2.0;
    format      ascii;
    class       volVectorField;
    location    "34";
    object      U;
}
// * * * * * * * * * * * * * * * * * * * * * * * * * * * * * * * * * * * * * //

dimensions      [0 1 -1 0 0 0 0];

internalField   nonuniform List<vector> 
918
(
(0.813496 -0.0529588 0)
(0.134464 2.47694 0)
(0.0511509 0.603909 0)
(0.756261 0.0535047 0)
(-0.0172427 0.672948 -1.76208e-19)
(-0.136691 2.25728 -2.72072e-17)
(0.246788 0.420569 -9.37703e-19)
(0.100986 0.0541357 -5.23305e-20)
(1.00266 -0.00702945 0)
(-0.00341776 0.248062 0)
(-0.00969715 0.301025 0)
(0.20061 0.00195349 0)
(0.117393 1.74038 0)
(0.00851358 1.30143 0)
(-0.0059641 1.03752 -1.32645e-18)
(-0.00387967 0.428761 -1.60203e-19)
(0.109538 0.0262208 3.84875e-18)
(0.0449587 0.362528 -4.87765e-19)
(0.476383 0.050061 0)
(-0.0151664 0.358275 0)
(0.23843 0.12302 -1.76253e-18)
(1.02784 -0.139875 0)
(0.959597 -0.177493 0)
(0.589273 -0.0666014 0)
(0.173218 0.0115994 0)
(-0.0150175 1.4752 0)
(-0.0469633 1.72795 8.39266e-18)
(-0.0232732 0.77578 0)
(0.0162661 1.56963 0)
(0.0482529 0.949344 0)
(-0.0312472 1.71848 0)
(0.0091901 0.906661 1.37832e-19)
(0.0120997 0.366545 0)
(-0.320951 2.70296 -1.01907e-21)
(-0.310509 3.10884 2.35083e-17)
(-0.0130235 3.04129 0)
(0.241536 -0.000672257 0)
(0.0667817 0.0844393 5.73895e-19)
(0.431066 0.697101 2.04152e-18)
(0.27566 0.354125 -1.65287e-18)
(0.376672 0.785454 1.9621e-19)
(0.211316 0.461425 -9.72347e-19)
(0.198555 0.105868 5.27216e-20)
(0.105282 0.0530589 0)
(0.318822 0.19684 0)
(0.199209 0.108056 2.35598e-19)
(0.10304 0.0588882 -2.34072e-19)
(0.275449 -0.0145429 0)
(1.01043 -0.000250882 0)
(1.00278 0.0066806 0)
(1.07491 -0.154051 0)
(1.01611 -0.0279849 0)
(1.01126 -0.0177105 0)
(0.00875368 0.55627 -2.44767e-18)
(-0.0165563 0.508847 0)
(0.00349191 0.250164 0)
(-0.0115522 0.501868 0)
(-0.00545324 0.24852 0)
(-0.0027298 0.514137 0)
(-0.0290123 0.568822 0)
(-0.00701513 0.272182 0)
(-0.0111095 0.597102 0)
(-0.00292564 0.320129 0)
(0.255075 0.00271962 0)
(0.388065 -0.000282905 0)
(0.204379 0.00335151 0)
(0.374369 0.00559514 0)
(0.190686 0.00238557 0)
(0.345185 2.93893 1.07205e-17)
(0.284413 3.23577 0)
(0.225159 3.03561 0)
(0.211121 2.70618 1.15638e-22)
(0.138778 2.12556 -1.50679e-17)
(0.177549 2.49081 0)
(0.0775989 1.54065 0)
(0.0169125 2.25862 1.5948e-23)
(0.0180286 1.30089 0)
(-0.0622194 2.29153 0)
(-0.0451577 1.32087 0)
(0.0246803 1.75884 0)
(-0.0102789 1.16717 0)
(0.0115988 1.89445 1.34172e-18)
(0.00298314 1.0913 0)
(-0.0686045 2.49911 0)
(0.00106107 0.813727 1.62114e-19)
(-0.006533 0.440841 -2.16208e-19)
(0.221066 0.0516145 -1.36207e-18)
(0.111887 0.0222402 -1.30191e-18)
(0.223364 0.0596021 -4.09702e-18)
(0.110704 0.0333988 -2.58964e-18)
(0.0516453 0.381079 0)
(0.109312 0.701106 4.64039e-19)
(0.106022 0.414517 -7.30405e-19)
(0.656724 0.0840838 0)
(0.346236 0.0354559 0)
(1.00992 0.0417574 0)
(1.0276 0.159003 0)
(0.935562 0.139988 -1.69633e-17)
(0.850071 0.134927 1.27155e-17)
(-0.0378269 0.666898 0)
(-0.00638806 0.321195 0)
(-0.0156406 1.05669 0)
(-0.0288813 0.717849 0)
(-0.0298303 0.358132 0)
(0.398721 0.132901 6.07224e-19)
(0.171157 0.0858595 0)
(0.742645 -0.0931981 0)
(0.411977 -0.0416459 0)
(0.359889 0.00361369 0)
(0.342213 0.0074711 0)
(0.180991 0.00246211 0)
(0.325353 0.0175931 0)
(0.278865 0.0216478 0)
(0.118296 0.00936024 5.97089e-18)
(-0.0215299 1.34807 4.36296e-18)
(-0.0515548 2.4263 0)
(-0.0731919 2.51369 0)
(-0.0190367 1.35901 0)
(-0.0666596 2.63612 7.71034e-18)
(-0.034562 1.62913 0)
(-0.103459 2.69815 -2.53063e-17)
(-0.0733537 1.81721 8.47651e-18)
(-0.00137524 1.90991 0)
(-0.0170464 2.14818 0)
(-0.0120573 0.776971 -3.30713e-21)
(-0.00784028 0.739448 0)
(-0.00712089 0.407094 0)
(0.459476 0.0108357 0)
(0.246891 0.00464327 0)
(0.230512 0.00336948 0)
(0.459095 -0.00864524 0)
(0.25058 -0.00250532 0)
(0.216442 0.246661 -7.71617e-19)
(0.0556485 0.0711099 0)
(0.200466 0.277673 1.01256e-19)
(0.0728242 0.117849 0)
(0.491013 0.590867 5.40356e-19)
(0.295994 0.305963 -1.21369e-18)
(0.227849 0.763159 0)
(0.308701 0.80992 0)
(0.166028 0.462489 0)
(0.0664387 0.17042 -7.9208e-19)
(0.211896 0.0971789 0)
(0.108976 0.0466153 7.06972e-19)
(0.514328 0.510685 0)
(0.5391 0.418456 0)
(0.30521 0.249391 1.35211e-18)
(0.571543 0.322796 0)
(0.345204 0.148382 2.81294e-20)
(0.477493 0.00310639 0)
(0.484111 -0.00640402 0)
(0.256779 -0.000195075 0)
(0.619392 -0.0612845 0)
(0.527028 -0.0412263 0)
(0.329251 -0.0267338 0)
(1.0256 0.0654644 0)
(1.01256 0.0271083 0)
(1.00465 0.0215267 0)
(0.0128148 1.00183 1.32678e-18)
(0.00794166 0.520266 0)
(0.00713128 1.05276 2.34385e-18)
(0.00134543 0.582652 -2.06634e-18)
(0.0407609 0.616343 4.17722e-19)
(0.0212927 0.52809 0)
(0.0198175 0.299596 0)
(-0.0132366 0.511931 0)
(-0.00305762 0.262613 0)
(-0.00318043 0.955355 -8.72517e-21)
(-0.0162353 0.52691 0)
(-0.0302585 0.927188 -4.3038e-19)
(-0.0141199 0.481056 8.16561e-19)
(0.000218672 0.520906 0)
(0.00236862 0.528073 0)
(0.000375915 0.26951 0)
(0.00487663 0.60349 0)
(0.00057013 0.318393 0)
(0.474594 -0.00108788 0)
(0.25498 0.00300358 0)
(0.467759 0.00895777 0)
(0.24698 0.000324825 0)
(0.222087 0.00114665 0)
(0.415655 0.00475845 0)
(0.397079 0.0137589 0)
(0.21731 0.00482423 0)
(-0.00648511 4.03788 -6.94947e-20)
(0.0602179 3.91025 0)
(0.0867555 2.35695 0)
(0.0374094 1.39791 0)
(0.241443 1.65595 0)
(0.256835 0.7034 2.08501e-19)
(0.0255438 1.9848 0)
(-0.0221103 1.14575 0)
(-0.0398963 2.30283 0)
(-0.0672669 2.48818 0)
(-0.0538798 2.42981 0)
(-0.0370162 1.83615 2.15276e-20)
(-0.0600284 2.47112 0)
(-0.0447667 2.24749 0)
(0.0024598 0.45998 1.68242e-20)
(0.00897679 0.881033 3.09162e-19)
(-0.0160924 0.844697 2.25811e-19)
(-0.00261507 0.462955 0)
(0.228289 0.0362966 2.09987e-18)
(0.112188 0.0150043 -2.01855e-18)
(0.0955045 0.705554 0)
(0.0657216 0.343334 -5.92075e-19)
(0.084314 0.782999 -1.97578e-18)
(0.0357874 0.436757 1.93262e-18)
(0.258626 0.00610899 0)
(0.500487 0.0124919 0)
(0.545614 0.0365677 0)
(0.289347 0.0121309 0)
(0.00345913 0.611202 0)
(0.0100725 0.618156 0)
(0.002021 0.324434 0)
(0.203203 0.11356 2.11542e-18)
(0.243202 0.118377 -2.38741e-18)
(0.115449 0.0637628 0)
(0.618329 0.0477419 2.37429e-19)
(0.361663 0.0310335 0)
(0.553141 0.0357653 0)
(0.283779 0.00759418 0)
(0.23096 0.0287227 0)
(0.237946 0.016836 -9.77214e-18)
(0.11774 0.0111133 3.55685e-18)
(-0.0284261 2.40674 4.87773e-18)
(-0.02227 1.43697 4.50845e-19)
(0.0206246 3.94123 -1.60478e-19)
(0.126145 3.8064 7.03208e-18)
(-0.141175 2.77487 3.10449e-19)
(-0.0946642 1.99797 -1.26659e-21)
(-0.258628 3.0954 -6.58999e-18)
(0.0494084 3.53287 4.93724e-18)
(0.0129015 3.73836 -7.39312e-18)
(0.461846 -0.00461865 0)
(0.468966 0.00551893 0)
(0.24983 -0.000359421 0)
(0.469663 0.00652754 0)
(0.442817 0.0126729 0)
(0.245905 0.00576788 0)
(0.426107 -0.000831339 0)
(0.431179 -0.00203519 0)
(0.226691 -0.000523812 0)
(0.16375 0.276847 -4.16782e-19)
(0.0529125 0.118808 0)
(0.0689466 0.134777 2.11998e-19)
(0.157821 0.310008 1.66161e-18)
(0.164658 0.301703 -9.17878e-19)
(0.0662241 0.125691 1.72383e-18)
(0.133773 0.373906 4.06052e-18)
(0.0726656 0.170658 7.71504e-19)
(0.220858 0.0737679 2.7817e-18)
(0.217566 0.0873549 7.23269e-19)
(0.110899 0.0403287 1.33389e-18)
(0.620175 0.237517 -1.54688e-18)
(0.371888 0.110396 -1.6839e-18)
(-0.0187738 1.05268 1.00044e-18)
(-0.00857138 0.57628 0)
(0.515305 0.00691705 0)
(0.491904 0.0191795 0)
(0.274131 0.0073586 0)
(0.0159586 4.013 0)
(0.0437147 2.26225 9.91527e-18)
(0.0580427 2.29559 0)
(0.0235508 1.33437 -9.20285e-18)
(-0.0171318 4.07977 1.95846e-18)
(-0.0298888 4.10505 0)
(0.235989 0.375754 -2.34579e-20)
(0.312321 0.68437 2.326e-19)
(0.0729479 0.210695 -3.66721e-19)
(-0.0483443 2.27079 -4.23446e-18)
(-0.0487171 2.10112 0)
(-0.0313552 1.26679 0)
(0.00667133 0.887876 -3.18271e-20)
(0.0136667 0.898224 -6.73772e-19)
(0.00767374 0.466779 -3.01697e-20)
(0.145637 0.632824 1.96512e-18)
(0.072794 0.281136 -1.27216e-18)
(0.00967498 0.93503 1.62757e-18)
(0.0319441 0.855887 -1.81691e-18)
(0.0155983 0.479284 8.76789e-20)
(-0.0254779 4.05481 -1.1303e-17)
(-0.0369912 4.13954 1.10096e-17)
(-0.0387438 2.55591 6.23701e-18)
(-0.0741994 2.45532 -5.36121e-18)
(-0.019358 1.55224 -6.01554e-18)
(-0.0420869 4.1304 -1.45294e-17)
(-0.0442015 4.12788 1.27689e-17)
(0.158931 0.364494 0)
(0.168997 0.33464 -3.7837e-18)
(0.0744078 0.154483 1.61115e-18)
(0.17921 0.428659 2.42711e-18)
(0.0784981 0.220301 -3.6363e-18)
(0.657378 0.101934 9.03384e-19)
(0.657063 0.176146 0)
(0.385276 0.0718607 -8.96424e-19)
(-0.0425599 0.986905 -9.82386e-21)
(-0.0181352 1.03254 0)
(-0.0114946 0.567721 0)
(0.137619 0.546539 -6.90337e-19)
(0.143333 0.494506 -1.49203e-18)
(0.0716235 0.252179 2.71845e-18)
(1.05427 -0.151106 0)
(1.12548 -0.152659 3.02461e-18)
(0.00271689 1.85422 0)
(0.00342504 1.51384 0)
(1.05544 0.0995203 2.23901e-20)
(1.0398 0.174093 6.28902e-18)
(-0.00973236 1.8693 -2.8121e-20)
(-0.0104426 1.46532 0)
(-0.0724705 3.76566 2.88062e-18)
(0.0329418 3.43758 0)
(1.13395 0.549397 -8.05748e-19)
(1.04685 0.0885717 -3.58619e-20)
(1.03468 -0.0365991 0)
(1.03873 -0.000381316 -2.61677e-23)
(0.0377532 1.30658 0)
(0.0852435 2.01777 0)
(-0.0319452 1.30161 0)
(-0.0384125 2.03599 6.32173e-19)
(-0.0415081 2.04357 3.91575e-19)
(0.870992 0.0148548 -1.94768e-20)
(1.00161 0.00865467 0)
(1.03569 0.026355 0)
(-0.0662616 2.46717 0)
(-0.0387423 1.73976 0)
(-0.0501083 1.55647 0)
(0.313825 1.49611 6.0761e-19)
(1.11645 -0.144004 0)
(0.99169 -0.111576 0)
(1.06512 -0.0204878 3.86297e-18)
(1.10706 -0.121387 -4.57411e-18)
(1.04037 -0.0478788 0)
(-0.0709563 2.41319 0)
(-0.0301928 2.08951 0)
(-0.0404224 2.26565 0)
(-0.0339833 1.62603 0)
(-0.0273415 1.52216 0)
(-0.0295254 1.28429 0)
(0.976189 -0.000684421 0)
(0.934944 0.013891 -2.45157e-20)
(0.801001 1.25147 -9.86756e-19)
(1.06052 0.0183035 -3.8641e-18)
(1.07212 0.107103 4.67029e-18)
(1.03328 0.0455213 0)
(1.13181 0.111799 3.57976e-18)
(1.11805 0.166593 -4.55789e-18)
(1.00787 0.135682 0)
(-0.0484421 1.86556 0)
(-0.0234243 1.8175 1.40059e-19)
(-0.0271202 1.43596 -9.90488e-20)
(1.21573 0.181357 4.77114e-18)
(1.14042 0.0663835 0)
(-0.237892 3.94965 -3.75535e-18)
(-0.155254 2.49849 -2.44272e-19)
(-0.240044 4.01193 4.40817e-18)
(-0.0604342 3.90757 -1.75528e-18)
(-0.0188289 3.54637 0)
(-0.0227099 3.82438 1.42332e-18)
(-0.16505 4.15528 3.87125e-18)
(-0.0814719 4.04396 -2.64849e-18)
(-0.102902 4.05491 0)
(0.44508 0.202485 0)
(0.425261 0.231079 0)
(1.15899 0.699024 2.44468e-18)
(1.00155 0.671133 -3.11099e-18)
(1.25976 0.575899 0)
(1.09511 0.384937 0)
(1.11016 0.0916006 -6.86334e-18)
(0.943384 0.0538528 8.47152e-18)
(1.10911 -0.048037 0)
(0.93021 -0.0232617 0)
(1.16642 0.0158703 0)
(1.21743 0.0519305 0)
(1.11042 0.0427996 0)
(1.19568 0.105704 0)
(1.15024 0.107375 0)
(1.12464 0.0818096 0)
(0.0489767 1.39246 0)
(0.0201117 1.05989 0)
(0.0770798 1.51554 0)
(0.0620094 1.12149 0)
(0.0973054 2.16473 0)
(0.0892791 1.65217 -1.22708e-18)
(0.0252488 2.15805 0)
(0.0127089 1.88272 8.70671e-19)
(-0.0248987 1.93005 -1.05994e-18)
(-0.0340562 1.41199 0)
(-0.0165449 1.1269 0)
(-0.0381897 1.48411 0)
(-0.02856 1.0335 0)
(-0.0873695 2.56178 -4.71823e-19)
(-0.0707563 2.22996 5.14537e-19)
(-0.060893 2.17756 6.09277e-19)
(-0.0396761 1.79094 0)
(-0.0690879 2.14608 -9.11589e-19)
(-0.0304155 1.8706 -5.55731e-19)
(-0.0773785 2.58068 3.66659e-19)
(-0.0791093 2.46609 -6.57451e-19)
(-0.0682784 2.39431 -7.4153e-19)
(1.00626 0.0251753 6.17777e-18)
(0.754318 0.00888901 -7.7597e-18)
(0.961258 0.0396962 -6.17218e-18)
(0.730463 0.0226621 7.68332e-18)
(1.11491 0.00872504 0)
(0.860077 -0.000458435 0)
(1.14267 0.0290095 0)
(1.09641 0.0063782 0)
(0.879789 0.00370083 0)
(1.21959 0.0766073 0)
(1.13486 0.0307439 0)
(0.92851 0.0191556 0)
(-0.0458632 2.35739 -2.05187e-20)
(-0.0639473 2.48924 0)
(-0.0632317 2.44318 0)
(-0.0580831 1.96328 1.61133e-19)
(-0.0247719 1.59094 -6.55862e-21)
(-0.0789717 2.49575 2.07206e-19)
(-0.0809823 2.37583 -2.11107e-19)
(-0.0656458 2.08588 0)
(-0.0582294 2.06498 0)
(-0.0492301 2.11 0)
(-0.0496232 1.7128 0)
(-0.0285111 1.1915 0)
(0.416746 1.71496 -1.36807e-18)
(0.434638 1.37491 -4.43329e-19)
(0.304271 1.316 -5.07873e-19)
(0.168399 1.45863 1.56768e-18)
(0.481715 2.46636 5.56902e-19)
(1.13945 -0.0543455 0)
(1.10067 -0.0857148 0)
(0.935451 -0.0569295 0)
(1.1772 -0.0230004 0)
(1.12961 -0.05404 0)
(1.16237 -0.0955489 0)
(1.18508 -0.100804 0)
(1.20174 -0.0970496 0)
(1.06354 0.0264628 6.50853e-18)
(0.828809 0.0185172 -8.19196e-18)
(1.02219 0.0311746 -6.46734e-18)
(0.819019 0.0167858 8.02952e-18)
(0.777281 1.39771 0)
(0.689337 1.30132 -1.2172e-18)
(0.841025 1.3067 -1.13933e-18)
(0.839624 1.00401 1.52625e-18)
(0.660236 1.25682 2.98677e-18)
(0.490318 0.0701776 2.4445e-18)
(1.2317 0.098359 0)
(1.2876 0.187706 -3.85553e-18)
(1.0719 0.0794004 -1.69861e-19)
(1.25516 0.142287 0)
(-0.217089 3.32344 2.99676e-18)
(-0.260621 3.42345 -3.94389e-18)
(-0.0516112 1.66935 2.28354e-18)
(0.252683 0.511964 -1.21699e-18)
(0.0437211 3.59671 8.25854e-19)
(-0.00715439 3.64821 0)
(0.0257655 3.32275 -1.17527e-18)
(-0.1481 3.55986 -7.68298e-18)
(-0.0378269 3.62633 0)
(-0.0302174 3.96218 2.95494e-19)
(-0.0402801 4.24156 -3.28579e-18)
(-0.0499789 4.02859 4.7396e-18)
(-0.0954813 4.18171 0)
(-0.0373463 4.11286 0)
(0.65704 1.45597 0)
(0.660261 0.809232 -2.25684e-18)
(0.896433 0.802405 1.08839e-18)
(0.895855 1.06927 0)
(0.9945 1.12624 -9.58174e-19)
(1.02442 0.857942 4.4591e-20)
(0.478214 0.143416 -3.13824e-18)
(0.535513 0.233427 -1.7977e-20)
(0.424277 0.156534 1.57502e-18)
(0.474306 0.276105 1.061e-19)
(0.371527 0.213409 -4.17908e-18)
(0.509188 0.240286 0)
(0.68865 0.361313 2.66412e-18)
(0.698375 0.337447 0)
(0.503858 0.264329 0)
(0.377685 0.188684 0)
(1.0948 0.72065 2.10997e-18)
(1.3036 0.250646 -3.98209e-18)
(1.26217 0.402109 0)
(1.14864 0.250954 0)
(0.474202 0.124905 2.42503e-18)
(1.08305 0.603329 -1.61047e-18)
(0.953536 0.542225 2.98297e-18)
(1.25749 0.462451 -3.66413e-18)
(1.01474 0.0353809 4.39342e-18)
(1.03991 0.0558222 -4.53641e-18)
(0.863918 0.0273989 0)
(1.09215 -0.0110908 0)
(1.0507 -0.0265474 -4.24947e-18)
(0.851431 -0.00919679 4.19664e-18)
(1.33837 0.0290102 0)
(1.2562 0.0448813 0)
(1.2512 0.0532888 0)
(1.20548 0.0677538 0)
(1.30202 0.0199757 0)
(1.2656 0.0168045 0)
(-0.00973203 1.26606 0)
(-0.0139907 1.0198 0)
(0.159 1.90755 -7.94e-19)
(0.304583 1.61318 -3.45157e-19)
(0.147053 1.50809 -7.48686e-19)
(0.178557 1.27747 1.20755e-18)
(0.181391 1.92952 0)
(0.189086 2.4303 -1.05609e-18)
(0.164073 2.44607 0)
(0.401919 2.50022 -7.66845e-19)
(0.353027 2.35998 1.99355e-18)
(0.247524 2.38021 9.1331e-19)
(0.300065 1.93096 -4.10407e-19)
(0.234463 2.03546 3.29178e-19)
(0.357171 2.21235 -1.37932e-18)
(0.301428 2.44791 0)
(0.352366 2.41175 1.01273e-18)
(-0.0332604 2.51384 -3.78249e-19)
(-0.0285375 2.1405 0)
(0.0167475 2.41763 1.11772e-18)
(-0.0231398 2.46785 0)
(-0.0144199 2.0755 -9.66769e-19)
(-0.0169649 1.79109 0)
(-0.0659 2.22752 -5.31695e-19)
(-0.0841494 2.47145 0)
(-0.0371925 1.94058 0)
(-0.030996 1.89858 6.24385e-19)
(-0.056055 2.23271 1.96133e-20)
(-0.0478511 2.16296 1.28705e-18)
(-0.0398965 1.76701 8.29573e-21)
(-0.0887426 2.52857 3.3239e-19)
(-0.085783 2.53469 1.90517e-19)
(-0.0200357 1.34276 0)
(-0.00401768 1.09029 0)
(-0.0535772 2.54824 9.53748e-19)
(-0.0423274 2.20091 8.13986e-19)
(-0.0638209 2.38094 -1.06004e-18)
(-0.0216854 2.50035 0)
(-0.0728237 2.44699 -5.76284e-19)
(-0.087993 2.28712 2.43788e-19)
(-0.0734103 2.32154 -7.73667e-20)
(-0.0738555 2.53627 -4.1806e-19)
(-0.0723349 2.33864 -1.29835e-19)
(-0.07328 2.31306 6.20943e-19)
(0.943971 0.0172805 -4.27689e-18)
(0.940147 0.0139054 4.15822e-18)
(0.769042 0.00988422 0)
(1.1761 0.0612027 5.69118e-18)
(0.900301 0.0393485 -6.13702e-18)
(0.745086 0.0201931 6.69946e-18)
(1.23991 0.104379 -7.60447e-19)
(1.05994 -0.0147143 0)
(1.04446 -0.00472985 4.09473e-18)
(0.878583 -0.00474322 -4.02811e-18)
(1.29348 0.037491 -2.36199e-19)
(1.25796 0.0328751 2.02897e-18)
(1.39822 0.0549894 0)
(1.42299 0.0568837 -6.92095e-19)
(1.35257 0.0441298 0)
(1.2335 0.0472532 0)
(1.36249 0.0291516 0)
(1.24156 0.0259776 0)
(1.41161 0.0352601 1.43946e-18)
(1.39732 0.023376 -3.19186e-18)
(1.39014 0.0345846 -1.60228e-18)
(1.40969 0.0366603 -1.70303e-18)
(1.41587 0.0724754 3.36464e-18)
(1.28702 0.0615779 0)
(1.3561 0.0946758 0)
(-0.0689312 2.47359 -2.33391e-19)
(-0.0574087 2.48958 -1.98946e-20)
(-0.0684456 2.4976 0)
(-0.0609003 2.28739 2.34849e-19)
(-0.0573463 2.29374 3.88995e-20)
(-0.0607758 2.24257 -3.59343e-20)
(-0.0563179 2.01359 4.94949e-19)
(-0.0954626 2.21798 -2.79477e-20)
(-0.0745264 2.28534 1.40584e-19)
(-0.0512476 1.92941 -2.55848e-19)
(-0.0217843 1.69321 3.05883e-19)
(-0.0754905 2.34304 1.02587e-20)
(-0.0820111 2.47678 3.3148e-19)
(0.463981 1.93645 7.72976e-19)
(0.432384 2.16767 1.45825e-18)
(0.663583 1.49019 1.17915e-18)
(0.537359 1.59222 4.27382e-19)
(0.566071 1.35633 0)
(0.373146 1.50546 5.92464e-19)
(0.296901 1.06839 7.03888e-19)
(0.21539 1.63892 4.88255e-20)
(0.304358 2.06637 -2.40549e-18)
(0.390655 2.05535 1.8771e-18)
(0.291669 1.54069 0)
(0.197225 1.23342 -1.23444e-18)
(0.14184 1.90129 3.05302e-18)
(0.155921 1.70294 -8.52245e-20)
(0.0895573 1.41528 -3.8654e-18)
(0.356443 0.937516 2.61351e-18)
(0.384219 1.03197 0)
(1.21513 -0.0261558 1.50482e-19)
(1.21958 -0.0857897 -1.26134e-19)
(1.2518 -0.0747791 -2.21288e-18)
(1.27241 -0.0439832 2.23173e-18)
(1.24877 -0.0178757 0)
(0.749853 1.56191 0)
(0.762668 1.56199 0)
(0.900802 1.37329 0)
(0.777723 1.46961 0)
(0.66586 1.32482 -4.01916e-21)
(0.473609 0.858545 0)
(0.949872 2.68726 2.53389e-20)
(0.768742 2.42256 0)
(0.86919 2.35096 -2.09308e-18)
(0.87173 2.36637 1.35677e-18)
(0.609091 0.102025 0)
(0.484111 0.0867318 6.41308e-19)
(0.81469 0.115064 4.02547e-18)
(0.603755 0.0894322 -1.43138e-18)
(0.479871 0.0391461 -4.47873e-18)
(1.42923 0.258831 -5.0279e-18)
(1.29165 0.331865 -3.96517e-20)
(1.11771 0.284596 3.84102e-18)
(1.30414 0.245002 3.42569e-18)
(1.05456 0.153522 -5.67797e-18)
(0.978926 0.153204 6.95849e-19)
(1.08298 0.227723 -1.55629e-18)
(1.00129 0.221514 0)
(1.26815 0.184193 2.90631e-18)
(1.37784 0.2068 0)
(1.37824 0.251564 0)
(1.35113 0.136251 1.61184e-18)
(1.43809 0.20939 -3.42719e-20)
(1.41675 0.233295 -8.78361e-19)
(1.39152 0.209674 0)
(1.21075 0.0404108 3.19039e-18)
(1.41093 0.0571271 3.9816e-18)
(1.3775 0.0466756 -3.13052e-18)
(1.3938 0.0756495 -2.7003e-18)
(1.26109 0.0728853 -4.03966e-18)
(1.10694 0.124462 0)
(1.14259 0.0964791 0)
(0.860455 0.0587663 -2.37076e-18)
(0.706109 0.0361242 8.83527e-19)
(1.36096 0.113951 3.69133e-18)
(1.43824 0.138752 -4.54373e-18)
(1.43942 0.158769 4.03099e-18)
(1.39861 0.157095 0)
(1.42936 0.107328 0)
(1.43254 0.103444 -1.83586e-18)
(1.41727 0.100908 -3.03975e-18)
(0.717819 2.15987 1.13404e-18)
(0.819061 2.76608 -1.15507e-18)
(0.949554 2.79318 -1.29799e-18)
(0.919936 3.06919 2.65831e-19)
(0.738762 1.60781 -2.72854e-18)
(0.725543 1.5054 4.6619e-19)
(0.509168 0.861089 -4.43408e-20)
(0.898833 2.54864 -9.35249e-19)
(0.913784 2.51039 1.69486e-18)
(0.79069 2.86493 2.40828e-19)
(0.740137 2.0516 -2.46078e-19)
(0.677849 1.92176 0)
(0.596738 0.897662 -2.4754e-19)
(0.00178021 1.51755 1.74999e-18)
(0.501209 0.205753 2.03802e-18)
(0.35784 0.337392 2.17543e-18)
(0.445959 0.236217 2.33684e-18)
(0.565804 0.303262 -4.02968e-18)
(0.574226 0.267724 3.28912e-18)
(0.49515 0.20528 -1.1571e-18)
(0.388723 0.185404 2.57133e-18)
(0.552364 0.165998 -1.41546e-18)
(0.532198 0.17645 0)
(0.426404 0.139144 5.02822e-21)
(0.846155 0.48818 1.47034e-18)
(0.724289 0.407591 -5.16989e-18)
(0.624834 0.3528 -6.82262e-21)
(0.601253 0.346847 0)
(0.824786 0.85084 1.79303e-18)
(1.07123 0.942823 2.28932e-18)
(0.977218 1.01565 -2.64904e-18)
(1.11656 0.958721 -9.30667e-19)
(1.11348 0.921651 -3.28012e-19)
(1.11477 0.992263 3.35058e-19)
(1.19333 0.764964 -3.41236e-18)
(1.1979 0.846007 8.71438e-19)
(1.22669 0.8359 0)
(1.23512 0.753632 -1.26886e-18)
(1.35949 0.359538 1.16648e-18)
(1.42728 0.329007 2.10513e-18)
(1.44037 0.318949 2.00416e-18)
(1.35597 0.441345 -2.28327e-18)
(1.36223 0.448783 0)
(1.37514 0.411472 0)
(1.12579 0.413531 -2.15588e-20)
(0.813904 0.223048 0)
(0.918196 0.244834 1.71988e-18)
(1.09354 0.298381 -2.8304e-20)
(1.25999 0.516668 1.00862e-17)
(1.18462 0.587135 2.56561e-18)
(1.16361 0.515106 -2.51956e-18)
(1.02594 0.457287 2.69684e-18)
(0.934986 0.453845 1.50862e-18)
(0.791559 0.382775 -1.46022e-18)
(1.2238 -0.0261868 3.57344e-18)
(1.32224 -0.0100769 0)
(1.30631 -0.023601 2.39293e-18)
(1.25847 -0.0177835 -5.35103e-18)
(1.35189 0.011612 2.62194e-18)
(1.32243 0.0357984 -5.49025e-18)
(1.25577 0.0408753 0)
(1.18078 0.0526432 -1.11656e-18)
(1.29216 0.0410052 2.85448e-18)
(1.24281 0.0628783 -1.46516e-18)
(1.20064 0.0535435 1.05209e-18)
(-0.0398118 1.32174 0)
(-0.0269821 1.72938 0)
(-0.0197966 1.24651 0)
(-0.0115936 0.994793 0)
(0.0149695 1.96759 1.30396e-18)
(0.0653154 1.81397 -3.49642e-19)
(0.113599 2.36397 -4.59724e-19)
(0.0879933 2.19034 4.59329e-19)
(-0.0355549 2.19137 -9.80004e-19)
(-0.0183502 2.19741 7.38415e-19)
(0.0312522 1.93285 3.15797e-20)
(0.00843287 1.79859 -8.7747e-19)
(-0.00365641 1.65637 -1.18579e-19)
(-0.0237423 1.85688 -1.105e-19)
(0.0388562 2.48471 -1.18858e-18)
(0.0606245 2.43685 0)
(0.0900531 2.53408 5.83764e-19)
(0.0957638 2.50937 5.20627e-19)
(0.236306 2.4579 -4.76025e-19)
(0.227421 2.31447 0)
(0.236244 2.24147 -2.36302e-18)
(0.295948 2.40926 1.69352e-18)
(0.197909 2.49121 -1.24431e-18)
(0.139556 2.49651 6.79283e-19)
(0.128597 2.4798 0)
(-0.0481034 2.5598 -1.10049e-18)
(-0.0669468 2.53168 -1.27344e-18)
(-0.0735437 2.57545 0)
(-0.0482999 2.44542 -1.66895e-20)
(-0.0422824 2.54848 5.46562e-19)
(-0.0678994 2.01035 8.65704e-20)
(-0.0384698 1.79877 -1.23418e-18)
(-0.0608231 2.03256 3.25779e-19)
(-0.0892915 2.35148 4.41568e-19)
(-0.0561813 2.23686 0)
(-0.0481025 2.00917 0)
(-0.0505354 1.51154 3.76913e-19)
(-0.0394277 1.88863 -1.14583e-19)
(-0.0473888 1.88545 0)
(-0.0446293 1.39024 2.98339e-19)
(-0.0240322 1.12522 -5.75103e-19)
(1.25568 0.0108763 0)
(1.24484 0.00335975 -3.67833e-19)
(1.41183 0.0205783 -2.61636e-18)
(1.37692 0.0143574 0)
(1.29421 0.00397514 0)
(1.40451 0.0101415 -1.41095e-20)
(1.38704 0.00920677 4.36262e-18)
(1.35053 0.0243505 5.16823e-18)
(1.26006 0.0362816 0)
(1.18433 0.0329931 0)
(1.35244 0.0273089 2.61258e-18)
(1.24141 0.0354993 0)
(1.15381 0.0385207 0)
(-0.0768371 2.53264 0)
(-0.089574 2.50109 2.15065e-20)
(-0.073104 2.53523 1.16252e-19)
(-0.0474658 1.99511 0)
(-0.0914234 2.41053 2.12309e-19)
(-0.0703627 2.22936 -1.21927e-19)
(-0.0524281 2.06761 0)
(0.635411 2.49888 0)
(0.458752 2.33689 -2.58128e-18)
(0.493086 2.47162 0)
(0.590819 2.16001 3.01094e-18)
(0.570035 1.74459 0)
(0.551534 1.96344 -1.26489e-18)
(0.694683 1.83878 -5.5716e-20)
(0.443105 1.17588 -3.10291e-18)
(0.390108 0.80086 3.46161e-18)
(0.470103 1.23861 7.51152e-19)
(0.687331 1.84009 0)
(0.714402 1.88151 0)
(0.440701 1.12642 0)
(0.308093 0.793793 -2.59819e-18)
(0.64252 2.47712 -1.95859e-18)
(0.71181 2.20937 -4.61763e-19)
(0.757377 2.41069 3.62112e-19)
(0.38703 1.31677 0)
(0.407132 1.24892 0)
(0.293602 0.966374 -8.10401e-19)
(0.628353 1.93851 0)
(0.726242 1.44909 0)
(0.542477 1.41074 -2.94973e-18)
(0.635498 1.11847 -1.81468e-19)
(0.660317 1.70588 0)
(0.628379 1.8348 4.47439e-18)
(0.986048 1.0824 -8.84818e-19)
(0.954396 1.22505 0)
(0.952502 1.15269 1.50301e-18)
(0.758461 1.26596 0)
(0.754238 1.18478 0)
(0.922464 2.25639 -1.0983e-18)
(0.99392 2.74615 -9.86065e-19)
(0.952177 2.75213 1.96635e-18)
(0.955616 2.69058 -5.76917e-19)
(0.790217 1.81918 0)
(0.838419 2.0411 7.82765e-19)
(0.515743 1.04191 -9.35882e-19)
(0.382077 0.745144 -2.13606e-20)
(0.840269 2.5206 0)
(0.717856 2.14111 -1.00703e-18)
(0.740087 1.98538 0)
(0.764096 0.173642 0)
(0.549612 0.114864 0)
(0.416888 0.0939072 0)
(0.745113 0.184106 -2.66119e-18)
(0.556342 0.13616 1.47052e-18)
(0.718207 0.0416967 -1.77331e-18)
(0.884081 0.0960532 0)
(0.824615 0.0960748 7.41077e-19)
(0.593051 0.0455347 2.91703e-18)
(0.513108 0.0272456 -1.85019e-18)
(0.630814 3.05574 3.25602e-19)
(0.72492 3.23603 0)
(0.454418 3.07488 7.45486e-19)
(0.328463 3.54302 -6.23465e-19)
(0.400236 3.4636 -1.35245e-18)
(0.445228 1.2152 2.76763e-18)
(0.434129 1.60891 0)
(0.349413 0.517916 -5.45474e-19)
(0.504351 0.585042 3.63242e-18)
(0.531196 0.257872 -7.60754e-19)
(0.611595 0.316355 8.47058e-19)
(0.731783 0.444103 1.86513e-18)
(0.821671 0.517587 0)
(0.727158 0.500445 0)
(0.704613 0.424931 0)
(1.29761 0.706372 9.10635e-19)
(1.24734 0.630434 -2.48769e-18)
(1.25483 0.685183 2.15488e-18)
(1.2961 0.595848 -2.01171e-18)
(1.37894 0.563707 0)
(1.35949 0.624699 -6.47337e-19)
(0.966699 0.388495 -3.51355e-18)
(1.00882 0.385851 -4.54778e-18)
(0.797634 0.349543 2.68181e-18)
(0.726319 0.311193 -2.58144e-18)
(0.839381 0.282701 -2.16117e-18)
(0.73975 0.261717 2.63865e-18)
(1.36 0.0102515 -2.76834e-18)
(1.37482 0.0123226 5.46885e-18)
(1.2637 -0.0205307 3.34766e-18)
(1.26981 -0.0229672 -3.95495e-18)
(1.32879 0.00335337 0)
(1.37086 0.00678242 -6.68935e-18)
(0.0089018 2.5311 2.163e-19)
(-0.00421855 2.48106 0)
(0.0584183 2.513 1.89264e-18)
(0.0662832 2.51119 -1.71328e-18)
(0.0756923 2.42453 8.58814e-19)
(0.0309038 2.39264 0)
(-0.0860222 2.55601 0)
(-0.0845407 2.32028 -1.19083e-19)
(-0.0819527 2.27884 1.06533e-19)
(-0.0872791 2.37528 1.30151e-20)
(-0.0860016 2.53852 -1.85452e-19)
(-0.0762701 2.5312 1.0029e-19)
(0.76067 2.39842 -3.06682e-18)
(0.740144 2.41692 3.27318e-18)
(0.608237 2.1572 -1.70773e-18)
(0.696316 2.44504 1.45408e-19)
(0.699457 1.66656 0)
(0.634817 1.78938 -1.45693e-18)
(0.665828 1.63842 1.43153e-18)
(0.621809 1.93007 1.70019e-18)
(0.704856 2.05134 0)
(0.717738 1.91042 0)
(0.614247 2.40223 2.92913e-18)
(0.537263 1.93643 4.24508e-18)
(0.591908 2.06292 -2.97377e-18)
(0.505227 2.00648 -4.96073e-19)
(0.510931 2.4298 9.85074e-19)
(0.443021 2.23587 -2.4247e-18)
(0.523252 1.06885 -1.9503e-18)
(0.516795 0.974691 0)
(0.3889 0.737875 -1.9534e-18)
(0.798292 1.82427 0)
(0.786701 1.83536 0)
(0.402281 3.0207 -1.55635e-18)
(0.660109 3.36679 -9.2846e-19)
(0.49143 3.4452 1.45176e-18)
(0.138977 1.52922 0)
(0.191775 1.11448 -1.27149e-18)
(0.356484 1.51209 -1.74976e-18)
(0.305703 2.78086 0)
(0.196117 3.32466 9.69467e-19)
(0.0408052 3.18652 0)
(0.895796 0.72292 -3.75419e-18)
(1.04286 0.816619 5.34958e-18)
(1.05236 0.715444 -5.31209e-18)
(0.829198 0.618087 -4.50369e-19)
(0.891189 0.608526 -1.88923e-18)
(0.707777 3.2905 7.64083e-19)
(0.848582 3.19078 -1.52686e-18)
(0.570939 3.01568 3.29364e-18)
(0.545061 2.67731 -2.30566e-18)
(0.835427 2.81411 -2.34686e-18)
(0.857573 3.08849 -3.30076e-19)
(0.92065 2.99059 1.78508e-18)
(0.689254 2.82531 1.49696e-19)
(0.676126 2.62888 1.00855e-18)
)
;

boundaryField
{
    wall-4
    {
        type            noSlip;
    }
    velocity-inlet-5
    {
        type            fixedValue;
        value           uniform (1 0 0);
    }
    velocity-inlet-6
    {
        type            fixedValue;
        value           uniform (0 3 0);
    }
    pressure-outlet-7
    {
        type            zeroGradient;
    }
    wall-8
    {
        type            noSlip;
    }
    frontAndBackPlanes
    {
        type            empty;
    }
}


// ************************************************************************* //
