/*--------------------------------*- C++ -*----------------------------------*\
  =========                 |
  \\      /  F ield         | OpenFOAM: The Open Source CFD Toolbox
   \\    /   O peration     | Website:  https://openfoam.org
    \\  /    A nd           | Version:  7
     \\/     M anipulation  |
\*---------------------------------------------------------------------------*/
FoamFile
{
    version     2.0;
    format      ascii;
    class       volVectorField;
    location    "26";
    object      U;
}
// * * * * * * * * * * * * * * * * * * * * * * * * * * * * * * * * * * * * * //

dimensions      [0 1 -1 0 0 0 0];

internalField   nonuniform List<vector> 
918
(
(0.813495 -0.0529586 0)
(0.134464 2.47694 0)
(0.0535304 0.641937 0)
(0.756262 0.0535045 0)
(-0.0115255 0.667616 -1.78421e-19)
(-0.136691 2.25728 -2.71758e-17)
(0.247234 0.421408 -9.17141e-19)
(0.103977 0.0558898 -5.19311e-20)
(1.00266 -0.00703445 0)
(-0.00361939 0.25016 0)
(-0.011448 0.305302 0)
(0.2021 0.00166858 0)
(0.117393 1.74038 0)
(0.0085179 1.30138 0)
(-0.00581373 1.03905 -1.30835e-18)
(-0.0032512 0.407159 -1.42847e-19)
(0.113464 0.0271198 3.81956e-18)
(0.045122 0.364558 -4.62799e-19)
(0.47641 0.050051 0)
(-0.0161258 0.384683 0)
(0.238461 0.123467 -1.74809e-18)
(1.02784 -0.139882 0)
(0.959592 -0.177501 0)
(0.589263 -0.0666064 0)
(0.176354 0.0115421 0)
(-0.0149809 1.47488 0)
(-0.0469629 1.72796 8.37759e-18)
(-0.0186707 0.831054 0)
(0.0364768 1.63133 0)
(0.0544531 1.00434 0)
(-0.011989 1.66844 0)
(0.0188496 0.88821 1.39543e-19)
(0.0143683 0.351377 0)
(-0.320951 2.70296 -1.01773e-21)
(-0.310509 3.10884 2.34811e-17)
(-0.0130235 3.04129 0)
(0.241306 -0.000695433 0)
(0.0668397 0.0845146 5.57834e-19)
(0.431377 0.697634 2.00264e-18)
(0.275906 0.354769 -1.62455e-18)
(0.377234 0.786483 1.91073e-19)
(0.211751 0.46249 -9.45411e-19)
(0.204665 0.109296 5.23193e-20)
(0.108633 0.054762 0)
(0.317831 0.196422 0)
(0.204819 0.111466 2.338e-19)
(0.105726 0.0606734 -2.32287e-19)
(0.275372 -0.0145554 0)
(1.01043 -0.000261138 0)
(1.00278 0.00667575 0)
(1.07491 -0.154062 0)
(1.01612 -0.0279959 0)
(1.01126 -0.0177173 0)
(0.00833098 0.549194 -2.40811e-18)
(-0.0167715 0.513142 0)
(0.00341886 0.251854 0)
(-0.0120621 0.507249 0)
(-0.00564847 0.251182 0)
(-0.00393235 0.497357 0)
(-0.031129 0.579069 0)
(-0.00757578 0.2744 0)
(-0.014336 0.614314 0)
(-0.00511566 0.328687 0)
(0.254371 0.00270677 0)
(0.390566 -0.000662298 0)
(0.2054 0.00320174 0)
(0.378048 0.00521684 0)
(0.192772 0.00217696 0)
(0.345185 2.93893 1.07069e-17)
(0.284413 3.23577 0)
(0.225159 3.03561 0)
(0.211121 2.70618 1.15475e-22)
(0.138778 2.12556 -1.50489e-17)
(0.17755 2.49081 0)
(0.0775992 1.54065 0)
(0.0169336 2.25857 1.59065e-23)
(0.0180337 1.30088 0)
(-0.0621628 2.29145 0)
(-0.0451239 1.32077 0)
(0.0251744 1.76166 0)
(-0.010166 1.1695 0)
(0.011945 1.8966 1.32341e-18)
(0.00318407 1.09237 0)
(-0.0256501 2.45999 0)
(0.00202487 0.773286 1.44552e-19)
(-0.00536512 0.418879 -1.98615e-19)
(0.22848 0.0531806 -1.3517e-18)
(0.115638 0.022845 -1.29189e-18)
(0.231077 0.0616341 -4.06598e-18)
(0.114773 0.0346265 -2.57002e-18)
(0.0510563 0.37877 0)
(0.109697 0.704152 4.42648e-19)
(0.106399 0.416315 -6.96958e-19)
(0.656786 0.0840625 0)
(0.346283 0.0354445 0)
(1.00992 0.0417538 0)
(1.0276 0.158997 0)
(0.935581 0.13997 -1.68353e-17)
(0.850076 0.134923 1.262e-17)
(-0.0381454 0.71533 0)
(-0.00612482 0.34581 0)
(-0.0089102 1.12865 0)
(-0.0312564 0.773964 0)
(-0.0305933 0.385015 0)
(0.399614 0.13494 6.0215e-19)
(0.171989 0.0871905 0)
(0.742616 -0.0932146 0)
(0.411951 -0.0416557 0)
(0.364559 0.00320827 0)
(0.347821 0.00723647 0)
(0.183688 0.00223675 0)
(0.324052 0.0175057 0)
(0.284348 0.0217567 0)
(0.120807 0.00940357 5.92193e-18)
(-0.0214706 1.34824 4.34424e-18)
(-0.0514815 2.4261 0)
(-0.0730443 2.51332 0)
(-0.0190073 1.35887 0)
(-0.06665 2.63613 7.69428e-18)
(-0.0345607 1.62915 0)
(-0.103456 2.69815 -2.52587e-17)
(-0.0733536 1.81721 8.46135e-18)
(0.0230918 1.9857 0)
(0.0165556 2.19986 0)
(-0.00932606 0.739485 -2.8121e-21)
(-0.00670766 0.710217 0)
(-0.00509637 0.389021 0)
(0.458974 0.0107714 0)
(0.246561 0.00459884 0)
(0.230745 0.00334095 0)
(0.458726 -0.00868355 0)
(0.250406 -0.00253404 0)
(0.216828 0.247124 -7.50592e-19)
(0.0557454 0.0712804 0)
(0.200787 0.278069 9.89331e-20)
(0.0728699 0.117964 0)
(0.490549 0.591095 5.314e-19)
(0.295798 0.306004 -1.1959e-18)
(0.228392 0.765742 0)
(0.309113 0.811821 0)
(0.166386 0.464029 0)
(0.0661222 0.169921 -7.80893e-19)
(0.218541 0.100292 0)
(0.112465 0.0481836 7.01587e-19)
(0.513363 0.510055 0)
(0.537372 0.417393 0)
(0.304578 0.24912 1.33465e-18)
(0.569117 0.321608 0)
(0.343787 0.147949 2.80467e-20)
(0.477227 0.00305676 0)
(0.483939 -0.00643672 0)
(0.256658 -0.00021675 0)
(0.619328 -0.061305 0)
(0.526918 -0.041248 0)
(0.329203 -0.0267461 0)
(1.0256 0.0654542 0)
(1.01256 0.0270976 0)
(1.00465 0.0215201 0)
(0.0125587 0.989896 1.30571e-18)
(0.00761648 0.513969 0)
(0.00585758 1.03766 2.30439e-18)
(0.00037256 0.573731 -2.0298e-18)
(0.04108 0.619748 3.96333e-19)
(0.0212533 0.531688 0)
(0.019834 0.301457 0)
(-0.0135105 0.518311 0)
(-0.00312603 0.26564 0)
(-0.00413168 0.926949 -8.51201e-21)
(-0.0163492 0.511782 0)
(-0.0309169 0.893643 -4.16577e-19)
(-0.0136354 0.462246 7.89444e-19)
(0.000476529 0.527815 0)
(0.00295815 0.535158 0)
(0.000389326 0.272432 0)
(0.000359448 0.628876 0)
(-0.00220551 0.331853 0)
(0.473275 -0.00110467 0)
(0.25423 0.00296496 0)
(0.466609 0.0088995 0)
(0.246438 0.000303475 0)
(0.222575 0.00104858 0)
(0.416872 0.0045773 0)
(0.398831 0.0135759 0)
(0.21802 0.00469039 0)
(-0.00648177 4.03788 -6.93649e-20)
(0.0602193 3.91025 0)
(0.0867575 2.35695 0)
(0.0374101 1.39791 0)
(0.242151 1.6594 0)
(0.257712 0.705362 2.15851e-19)
(0.0259714 1.98625 0)
(-0.0219729 1.14634 0)
(-0.0093193 2.33909 0)
(-0.0273584 2.46276 0)
(-0.0133529 2.43015 0)
(-0.0137108 1.77298 8.5511e-21)
(-0.024345 2.41732 0)
(-0.00745617 2.18686 0)
(0.00195072 0.439016 1.78455e-20)
(0.00881646 0.838209 2.95279e-19)
(-0.0145446 0.80207 2.0753e-19)
(-0.00256493 0.440776 0)
(0.235302 0.0373314 2.0836e-18)
(0.115659 0.0153106 -2.00291e-18)
(0.0945761 0.701473 0)
(0.065203 0.341515 -5.8455e-19)
(0.0829268 0.777301 -1.94823e-18)
(0.0349471 0.433325 1.90571e-18)
(0.258752 0.00608129 0)
(0.50067 0.0124475 0)
(0.545723 0.0365427 0)
(0.289425 0.0121135 0)
(-0.00263428 0.646975 0)
(0.00783638 0.663321 0)
(-0.000660166 0.34424 0)
(0.208007 0.117182 2.0992e-18)
(0.246328 0.121699 -2.36931e-18)
(0.117523 0.0655929 0)
(0.615775 0.0475431 2.35134e-19)
(0.36022 0.0308384 0)
(0.550924 0.035494 0)
(0.28282 0.00755897 0)
(0.237315 0.0290316 0)
(0.243402 0.0169803 -9.69233e-18)
(0.120628 0.0111746 3.52822e-18)
(-0.0282993 2.40697 4.86027e-18)
(-0.022242 1.43706 4.50912e-19)
(0.0206258 3.94123 -1.60217e-19)
(0.126145 3.8064 7.0212e-18)
(-0.141174 2.77487 3.09942e-19)
(-0.0946642 1.99797 -1.26465e-21)
(-0.258627 3.0954 -6.58108e-18)
(0.0494088 3.53287 4.93057e-18)
(0.0129018 3.73836 -7.38169e-18)
(0.460926 -0.00464678 0)
(0.468244 0.00543143 0)
(0.249363 -0.000403778 0)
(0.469949 0.00647844 0)
(0.443206 0.0126456 0)
(0.246087 0.00574046 0)
(0.426938 -0.000954911 0)
(0.431729 -0.00212462 0)
(0.227035 -0.00059287 0)
(0.164118 0.277542 -3.9341e-19)
(0.0530621 0.119177 0)
(0.0688152 0.134697 2.08652e-19)
(0.157687 0.310097 1.63353e-18)
(0.164772 0.302031 -9.01368e-19)
(0.066182 0.125756 1.6925e-18)
(0.133125 0.372785 4.00349e-18)
(0.0723117 0.169895 7.61302e-19)
(0.228382 0.0765153 2.76071e-18)
(0.224505 0.0904282 7.17599e-19)
(0.114734 0.0418447 1.32377e-18)
(0.617081 0.2367 -1.53066e-18)
(0.369963 0.109885 -1.66668e-18)
(-0.0199863 1.0334 9.82255e-19)
(-0.00919272 0.564685 0)
(0.513499 0.00696898 0)
(0.490243 0.0190067 0)
(0.273149 0.0073262 0)
(0.015962 4.013 0)
(0.0437241 2.26224 9.89348e-18)
(0.0580475 2.29558 0)
(0.0235534 1.33436 -9.18263e-18)
(-0.0171258 4.07976 1.95374e-18)
(-0.0298801 4.10506 0)
(0.236571 0.376821 -3.01792e-20)
(0.313156 0.686239 2.55042e-19)
(0.0732196 0.2114 -3.86359e-19)
(-0.0481396 2.27127 -4.21643e-18)
(-0.0484428 2.10195 0)
(-0.0312591 1.26715 0)
(0.00731663 0.85343 -3.04963e-20)
(0.0130272 0.858339 -6.48549e-19)
(0.00719132 0.447276 -2.97327e-20)
(0.144878 0.629713 1.94019e-18)
(0.0723853 0.279579 -1.25596e-18)
(0.00892501 0.924687 1.60282e-18)
(0.0305235 0.847689 -1.78987e-18)
(0.0149204 0.47428 8.68982e-20)
(-0.0254357 4.05483 -1.12687e-17)
(-0.0369409 4.13954 1.09762e-17)
(-0.0387153 2.55594 6.22042e-18)
(-0.0741438 2.4554 -5.34369e-18)
(-0.0193482 1.55229 -5.99954e-18)
(-0.0420619 4.1304 -1.44921e-17)
(-0.0441717 4.12788 1.27359e-17)
(0.158553 0.363858 0)
(0.168758 0.334389 -3.72568e-18)
(0.0742213 0.154233 1.58659e-18)
(0.178603 0.427093 2.3957e-18)
(0.0780839 0.219326 -3.58883e-18)
(0.654204 0.101117 8.94443e-19)
(0.653626 0.175171 0)
(0.383387 0.0714273 -8.87407e-19)
(-0.0434778 0.960993 -9.59511e-21)
(-0.0189856 1.01024 0)
(-0.0123345 0.554404 0)
(0.136886 0.543906 -6.81438e-19)
(0.142516 0.492422 -1.47276e-18)
(0.0711664 0.250886 2.68324e-18)
(1.05425 -0.15113 0)
(1.12548 -0.152686 3.00124e-18)
(0.0223556 1.92792 0)
(0.0105548 1.60949 0)
(1.05544 0.0994956 2.23795e-20)
(1.03982 0.174067 6.24062e-18)
(0.0119031 1.80437 -1.11874e-20)
(-0.000826195 1.39804 0)
(-0.0721444 3.76618 2.8631e-18)
(0.0340544 3.44017 0)
(1.12621 0.54619 -7.96726e-19)
(1.04698 0.0884954 -3.58664e-20)
(1.03447 -0.0367085 0)
(1.03873 -0.000419003 -3.69194e-23)
(0.0358472 1.31604 0)
(0.0813732 2.00477 0)
(-0.0378922 1.3299 0)
(-0.0453208 1.99855 6.19105e-19)
(-0.0501566 1.99188 3.84029e-19)
(0.875113 0.0134577 -1.92173e-20)
(0.999539 0.0081326 0)
(1.03222 0.025741 0)
(-0.0384857 2.44736 0)
(-0.039041 1.6546 0)
(-0.0600227 1.63799 0)
(0.312986 1.49835 5.8461e-19)
(1.11642 -0.14405 0)
(0.991624 -0.11161 0)
(1.06512 -0.0205322 3.83279e-18)
(1.10706 -0.12142 -4.53876e-18)
(1.04037 -0.0479025 0)
(-0.0516002 2.4156 0)
(-0.0137446 2.1539 0)
(-0.0172936 2.30145 0)
(-0.0387922 1.71227 0)
(-0.0319232 1.61468 0)
(-0.0332069 1.3851 0)
(0.975488 -0.000908344 0)
(0.935821 0.0135678 -2.45192e-20)
(0.797641 1.2482 -9.6806e-19)
(1.06052 0.0182612 -3.8339e-18)
(1.07213 0.107072 4.63435e-18)
(1.03328 0.0454974 0)
(1.13187 0.1117 3.55001e-18)
(1.11808 0.166548 -4.52217e-18)
(1.00793 0.135651 0)
(-0.0402738 1.77767 0)
(-0.00702221 1.73419 1.16626e-19)
(-0.022297 1.35379 -8.13156e-20)
(1.20878 0.179747 4.72429e-18)
(1.1351 0.0655109 0)
(-0.237517 3.94915 -3.73616e-18)
(-0.154968 2.49791 -2.429e-19)
(-0.239032 4.01185 4.38477e-18)
(-0.0595306 3.90794 -1.74432e-18)
(-0.0180667 3.54765 0)
(-0.0225018 3.82469 1.41623e-18)
(-0.164601 4.15507 3.85148e-18)
(-0.0810067 4.04405 -2.63506e-18)
(-0.102712 4.05475 0)
(0.45813 0.208322 0)
(0.436808 0.237938 0)
(1.1505 0.695087 2.41625e-18)
(0.995761 0.668326 -3.07364e-18)
(1.25019 0.571804 0)
(1.0887 0.38299 0)
(1.11029 0.0914817 -6.80538e-18)
(0.9436 0.0537677 8.39928e-18)
(1.10889 -0.0481879 0)
(0.929866 -0.0233646 0)
(1.16643 0.0157231 0)
(1.21745 0.0517801 0)
(1.11043 0.0427269 0)
(1.19571 0.105584 0)
(1.15026 0.107303 0)
(1.12466 0.0817351 0)
(0.0462725 1.40463 0)
(0.0186358 1.07074 0)
(0.0742695 1.52504 0)
(0.0617978 1.12831 0)
(0.0923302 2.15591 0)
(0.0874096 1.63949 -1.20916e-18)
(0.0199761 2.14523 0)
(0.00883059 1.86337 8.57228e-19)
(-0.0298313 1.90152 -1.04196e-18)
(-0.0426597 1.44802 0)
(-0.0238907 1.16061 0)
(-0.0448321 1.51558 0)
(-0.0291683 1.05178 0)
(-0.102433 2.55583 -4.58949e-19)
(-0.0837369 2.18705 5.05846e-19)
(-0.0703497 2.14052 5.93163e-19)
(-0.0427636 1.73628 0)
(-0.0800561 2.09395 -8.9156e-19)
(-0.0362689 1.80152 -5.39872e-19)
(-0.0946785 2.5752 3.56755e-19)
(-0.0968949 2.44269 -6.45449e-19)
(-0.0817461 2.3692 -7.219e-19)
(1.00987 0.0233453 6.11997e-18)
(0.757214 0.00832927 -7.68729e-18)
(0.96597 0.0375508 -6.11443e-18)
(0.736771 0.0214026 7.61173e-18)
(1.11317 0.00795634 0)
(0.858632 -0.000633919 0)
(1.13939 0.0281273 0)
(1.09401 0.0057894 0)
(0.877573 0.00349971 0)
(1.21429 0.075441 0)
(1.13087 0.0301427 0)
(0.92511 0.0190528 0)
(-0.0189798 2.28737 -1.87285e-20)
(-0.0413128 2.45715 0)
(-0.0328295 2.38679 0)
(-0.0586619 1.87649 1.49431e-19)
(-0.0261093 1.50798 -6.12219e-21)
(-0.0790918 2.4838 2.12201e-19)
(-0.0755952 2.39026 -2.19681e-19)
(-0.0736915 2.13964 0)
(-0.057393 2.12681 0)
(-0.0447549 2.16618 0)
(-0.06247 1.79081 0)
(-0.0380477 1.26675 0)
(0.414316 1.71518 -1.32096e-18)
(0.434397 1.37641 -4.28505e-19)
(0.302754 1.31199 -5.01475e-19)
(0.16561 1.45075 1.54599e-18)
(0.477869 2.46922 5.47894e-19)
(1.13933 -0.054488 0)
(1.1006 -0.0857985 0)
(0.935308 -0.056977 0)
(1.1772 -0.0231406 0)
(1.12961 -0.0541077 0)
(1.16236 -0.0956191 0)
(1.18506 -0.100878 0)
(1.2017 -0.0971573 0)
(1.06428 0.0260231 6.45037e-18)
(0.829403 0.0184024 -8.11907e-18)
(1.02322 0.0306696 -6.40861e-18)
(0.820343 0.0164545 7.95624e-18)
(0.773629 1.39404 0)
(0.68758 1.29966 -1.18848e-18)
(0.836673 1.30244 -1.12104e-18)
(0.836094 1.00161 1.50172e-18)
(0.661469 1.25988 2.91929e-18)
(0.502423 0.0705356 2.42463e-18)
(1.22554 0.0973444 0)
(1.28002 0.185898 -3.81791e-18)
(1.06718 0.0789552 -1.68225e-19)
(1.25717 0.139117 0)
(-0.215376 3.32269 2.97215e-18)
(-0.259645 3.42274 -3.92101e-18)
(-0.0514095 1.66844 2.26804e-18)
(0.253441 0.512083 -1.21054e-18)
(0.0450521 3.59879 8.1514e-19)
(-0.0061835 3.64937 0)
(0.0264473 3.32493 -1.15967e-18)
(-0.146191 3.56041 -7.6275e-18)
(-0.0358115 3.62751 0)
(-0.0301138 3.96228 2.94397e-19)
(-0.0401727 4.24154 -3.27432e-18)
(-0.0498965 4.02852 4.72307e-18)
(-0.095251 4.18161 0)
(-0.037104 4.11289 0)
(0.658601 1.45972 0)
(0.661707 0.820613 -2.23328e-18)
(0.892231 0.80029 1.07398e-18)
(0.891022 1.06561 0)
(0.985694 1.12072 -9.44807e-19)
(1.01747 0.854169 4.47707e-20)
(0.481711 0.149439 -3.11772e-18)
(0.55008 0.239485 -1.8315e-20)
(0.436591 0.161526 1.56252e-18)
(0.486232 0.284298 1.0528e-19)
(0.380848 0.220458 -4.14665e-18)
(0.523084 0.247467 0)
(0.703004 0.369431 2.6446e-18)
(0.712652 0.345064 0)
(0.51704 0.271918 0)
(0.388899 0.194715 0)
(1.08984 0.718739 2.08621e-18)
(1.29549 0.248713 -3.94266e-18)
(1.25381 0.399243 0)
(1.14213 0.249559 0)
(0.488044 0.128272 2.40639e-18)
(1.08276 0.604549 -1.59544e-18)
(0.960027 0.546644 2.95338e-18)
(1.2537 0.460195 -3.62704e-18)
(1.01518 0.0351456 4.35451e-18)
(1.04017 0.0556717 -4.49757e-18)
(0.864298 0.0272984 0)
(1.09154 -0.0113998 0)
(1.0503 -0.0267278 -4.21245e-18)
(0.850888 -0.00928964 4.16007e-18)
(1.3386 0.0282967 0)
(1.25668 0.0442808 0)
(1.25123 0.0530873 0)
(1.20558 0.0675629 0)
(1.30204 0.0196558 0)
(1.2656 0.0165626 0)
(-0.0117601 1.28104 0)
(-0.0150399 1.03276 0)
(0.154019 1.91432 -7.70475e-19)
(0.30282 1.6164 -3.30977e-19)
(0.145559 1.5151 -7.1722e-19)
(0.178307 1.2818 1.15708e-18)
(0.177656 1.93571 0)
(0.18226 2.43372 -1.02914e-18)
(0.15616 2.45024 0)
(0.397514 2.50283 -7.54392e-19)
(0.348767 2.35934 1.96399e-18)
(0.241404 2.38421 8.90956e-19)
(0.296344 1.93376 -3.97348e-19)
(0.229546 2.03916 3.18701e-19)
(0.351672 2.21403 -1.34561e-18)
(0.295319 2.45062 0)
(0.347564 2.41435 9.88549e-19)
(-0.04365 2.5048 -3.69193e-19)
(-0.0353796 2.11983 0)
(0.00879812 2.40822 1.09948e-18)
(-0.0331294 2.45631 0)
(-0.0197086 2.05756 -9.51919e-19)
(-0.0197969 1.7652 0)
(-0.0838576 2.2531 -5.21588e-19)
(-0.0991303 2.48049 0)
(-0.0457597 1.96433 0)
(-0.0405957 1.93226 6.02247e-19)
(-0.0653531 2.20122 1.8563e-20)
(-0.0547565 2.13651 1.26449e-18)
(-0.0425504 1.7298 8.11031e-21)
(-0.109949 2.52712 3.22412e-19)
(-0.107642 2.53861 1.85522e-19)
(-0.0308787 1.38749 0)
(-0.0128587 1.13162 0)
(-0.0670205 2.54978 9.2901e-19)
(-0.0544334 2.22091 7.89912e-19)
(-0.0771985 2.39609 -1.02951e-18)
(-0.0332047 2.50486 0)
(-0.0819232 2.40197 -5.43915e-19)
(-0.0939059 2.2133 2.25429e-19)
(-0.0856682 2.2682 -7.24706e-20)
(-0.097587 2.53183 -4.04216e-19)
(-0.0887984 2.29615 -1.24999e-19)
(-0.0891136 2.27687 6.03687e-19)
(0.945673 0.016643 -4.23797e-18)
(0.942705 0.0129147 4.11955e-18)
(0.770953 0.00943025 0)
(1.18036 0.0578306 5.63855e-18)
(0.907435 0.037371 -6.08147e-18)
(0.75279 0.0188798 6.63953e-18)
(1.24364 0.100334 -7.53389e-19)
(1.05912 -0.0150324 0)
(1.04329 -0.00517837 4.05806e-18)
(0.8776 -0.00492683 -3.992e-18)
(1.28992 0.0360507 -2.33988e-19)
(1.25538 0.0316025 2.01029e-18)
(1.39495 0.0525796 0)
(1.4204 0.0542155 -6.85645e-19)
(1.35331 0.0414203 0)
(1.23604 0.0446743 0)
(1.36271 0.0281634 0)
(1.24238 0.0251001 0)
(1.41074 0.0329042 1.42551e-18)
(1.39727 0.0214146 -3.16247e-18)
(1.3882 0.0328994 -1.58751e-18)
(1.40804 0.0345786 -1.68729e-18)
(1.41189 0.0701294 3.33316e-18)
(1.28278 0.0602056 0)
(1.35024 0.0927009 0)
(-0.075148 2.42582 -2.19481e-19)
(-0.0454198 2.45385 -1.96686e-20)
(-0.068835 2.47072 0)
(-0.0595727 2.21991 2.23056e-19)
(-0.04017 2.2235 3.57735e-20)
(-0.0493724 2.16429 -3.10007e-20)
(-0.0639382 1.94558 4.8078e-19)
(-0.10685 2.15231 -2.65347e-20)
(-0.0893491 2.23649 1.35873e-19)
(-0.0563753 1.85071 -2.451e-19)
(-0.0248238 1.61347 2.92812e-19)
(-0.0908284 2.37749 1.05835e-20)
(-0.0974034 2.47412 3.31442e-19)
(0.459615 1.93504 7.48459e-19)
(0.428115 2.16921 1.42401e-18)
(0.660983 1.48747 1.1514e-18)
(0.53527 1.59062 4.13095e-19)
(0.565217 1.35646 0)
(0.371431 1.50195 5.84927e-19)
(0.295707 1.06492 6.94821e-19)
(0.212326 1.63238 4.87115e-20)
(0.300601 2.06142 -2.36704e-18)
(0.386813 2.05259 1.8501e-18)
(0.28959 1.53598 0)
(0.195483 1.2276 -1.21828e-18)
(0.138563 1.89298 3.00893e-18)
(0.153076 1.69524 -8.52229e-20)
(0.0873116 1.40449 -3.81014e-18)
(0.355601 0.937295 2.57628e-18)
(0.382979 1.03025 0)
(1.21511 -0.0263074 1.49246e-19)
(1.21954 -0.0859157 -1.25098e-19)
(1.25172 -0.0749619 -2.19445e-18)
(1.27235 -0.0442076 2.21313e-18)
(1.24875 -0.0180999 0)
(0.744212 1.55787 0)
(0.759356 1.5582 0)
(0.893674 1.36747 0)
(0.772495 1.46802 0)
(0.666867 1.32772 -4.3105e-21)
(0.474477 0.860433 0)
(0.949297 2.69231 2.49366e-20)
(0.766982 2.42632 0)
(0.868214 2.35459 -2.05967e-18)
(0.870759 2.37013 1.33514e-18)
(0.622392 0.103256 0)
(0.496628 0.0882927 6.3636e-19)
(0.827564 0.114402 3.99144e-18)
(0.616687 0.0890562 -1.42001e-18)
(0.490136 0.0389921 -4.44143e-18)
(1.42046 0.255094 -4.98072e-18)
(1.28976 0.328891 -3.88934e-20)
(1.12364 0.283369 3.80511e-18)
(1.30305 0.242174 3.39459e-18)
(1.06322 0.151918 -5.6273e-18)
(0.98901 0.152467 6.8964e-19)
(1.09184 0.227282 -1.54201e-18)
(1.01219 0.2199 0)
(1.2712 0.180683 2.88041e-18)
(1.37405 0.203557 0)
(1.37438 0.24749 0)
(1.34378 0.134046 1.59698e-18)
(1.43055 0.205945 -3.40632e-20)
(1.4066 0.230017 -8.69647e-19)
(1.38232 0.206818 0)
(1.21386 0.0374265 3.15999e-18)
(1.40953 0.0538415 3.94234e-18)
(1.37785 0.0434884 -3.10075e-18)
(1.39318 0.0718503 -2.67399e-18)
(1.26337 0.0690784 -4.00219e-18)
(1.11541 0.121751 0)
(1.14813 0.0931827 0)
(0.869785 0.0572486 -2.34978e-18)
(0.716106 0.0353475 8.7601e-19)
(1.36058 0.10999 3.65595e-18)
(1.43165 0.135488 -4.50165e-18)
(1.43334 0.155178 3.99195e-18)
(1.39548 0.153089 0)
(1.42376 0.104267 0)
(1.42768 0.100212 -1.8188e-18)
(1.4143 0.0970767 -3.01059e-18)
(0.717999 2.16507 1.11393e-18)
(0.81956 2.77097 -1.13548e-18)
(0.950673 2.79805 -1.27097e-18)
(0.921872 3.07382 2.59139e-19)
(0.740039 1.61156 -2.66543e-18)
(0.72706 1.50924 4.42598e-19)
(0.510288 0.863304 -4.45593e-20)
(0.900548 2.55364 -9.0906e-19)
(0.91546 2.51559 1.65369e-18)
(0.792655 2.86995 2.28805e-19)
(0.741888 2.05621 -2.33845e-19)
(0.679428 1.92609 0)
(0.600228 0.909093 -2.44279e-19)
(0.00559009 1.51768 1.74141e-18)
(0.504007 0.213995 2.02392e-18)
(0.360104 0.341768 2.162e-18)
(0.454938 0.244724 2.31897e-18)
(0.575995 0.31458 -3.99845e-18)
(0.582499 0.279903 3.26367e-18)
(0.500865 0.214097 -1.14872e-18)
(0.394742 0.191836 2.55123e-18)
(0.566997 0.170628 -1.40453e-18)
(0.546277 0.18207 0)
(0.439263 0.143673 5.15827e-21)
(0.855743 0.495101 1.45967e-18)
(0.737443 0.41649 -5.12698e-18)
(0.636128 0.364329 -5.73775e-21)
(0.614035 0.356336 0)
(0.823531 0.856077 1.77298e-18)
(1.06198 0.93866 2.25947e-18)
(0.969316 1.01506 -2.61469e-18)
(1.10608 0.953318 -9.19493e-19)
(1.10387 0.916732 -3.23934e-19)
(1.10451 0.987214 3.30843e-19)
(1.18429 0.760892 -3.37484e-18)
(1.18743 0.841291 8.61068e-19)
(1.21558 0.830468 0)
(1.22435 0.748883 -1.25473e-18)
(1.35302 0.356081 1.15585e-18)
(1.41714 0.325529 2.08473e-18)
(1.43068 0.314715 1.98671e-18)
(1.34724 0.437031 -2.26135e-18)
(1.35169 0.444638 0)
(1.36457 0.407672 0)
(1.13076 0.413369 -2.09079e-20)
(0.827517 0.227128 0)
(0.930089 0.247353 1.7056e-18)
(1.10044 0.297952 -2.81217e-20)
(1.25557 0.513829 9.9859e-18)
(1.1809 0.585064 2.53928e-18)
(1.16223 0.514461 -2.49591e-18)
(1.03215 0.459866 2.67072e-18)
(0.944237 0.45849 1.49497e-18)
(0.80544 0.389698 -1.44712e-18)
(1.22346 -0.0265015 3.54276e-18)
(1.32215 -0.0104477 0)
(1.30622 -0.0239504 2.37243e-18)
(1.25832 -0.0181136 -5.30536e-18)
(1.35186 0.0110772 2.59915e-18)
(1.32256 0.0352662 -5.44259e-18)
(1.25611 0.0403705 0)
(1.18113 0.0523336 -1.10686e-18)
(1.29224 0.0406691 2.82994e-18)
(1.24296 0.0625868 -1.45261e-18)
(1.20085 0.053272 1.04294e-18)
(-0.0427011 1.34573 0)
(-0.031213 1.75513 0)
(-0.0216262 1.26519 0)
(-0.0121633 1.00991 0)
(0.00817356 1.98094 1.25725e-18)
(0.0604959 1.82635 -3.35185e-19)
(0.106076 2.37235 -4.476e-19)
(0.0806311 2.20023 4.46019e-19)
(-0.0448367 2.20642 -9.4977e-19)
(-0.0287984 2.2119 7.15359e-19)
(0.0245799 1.948 3.18076e-20)
(0.00313207 1.81641 -8.48496e-19)
(-0.00717026 1.67681 -1.14589e-19)
(-0.0293036 1.87731 -1.06838e-19)
(0.0309973 2.47989 -1.16928e-18)
(0.0529469 2.42923 0)
(0.0825144 2.53247 5.75017e-19)
(0.087465 2.50955 5.10492e-19)
(0.230794 2.45813 -4.67666e-19)
(0.223113 2.30991 0)
(0.231832 2.23786 -2.33051e-18)
(0.291453 2.40845 1.67004e-18)
(0.190738 2.49126 -1.22048e-18)
(0.132283 2.49341 6.67343e-19)
(0.122412 2.47529 0)
(-0.0630184 2.55871 -1.068e-18)
(-0.0806588 2.51203 -1.24662e-18)
(-0.0883184 2.5665 0)
(-0.0584606 2.42724 -1.68694e-20)
(-0.0532124 2.53956 5.35718e-19)
(-0.0848072 2.0437 8.3948e-20)
(-0.0549001 1.84089 -1.19917e-18)
(-0.0849051 2.0742 3.16005e-19)
(-0.114809 2.3818 4.29595e-19)
(-0.0735009 2.26477 0)
(-0.0746269 2.05529 0)
(-0.0662723 1.57814 3.86229e-19)
(-0.0636039 1.95468 -1.1737e-19)
(-0.0714166 1.94465 0)
(-0.0586768 1.4471 3.03316e-19)
(-0.0344891 1.18212 -5.87411e-19)
(1.25475 0.010107 0)
(1.24382 0.00258082 -3.64515e-19)
(1.41106 0.0190109 -2.59263e-18)
(1.37564 0.0128849 0)
(1.29259 0.0028404 0)
(1.4042 0.0089069 -1.38703e-20)
(1.3868 0.00821625 4.32346e-18)
(1.35094 0.0229848 5.11988e-18)
(1.26102 0.0351137 0)
(1.18559 0.0318755 0)
(1.35305 0.0253017 2.58858e-18)
(1.24285 0.0336861 0)
(1.1557 0.0371534 0)
(-0.101055 2.51134 0)
(-0.106428 2.48488 1.91249e-20)
(-0.090034 2.51404 1.07577e-19)
(-0.0714713 2.05361 0)
(-0.115664 2.42019 2.10095e-19)
(-0.0926719 2.27424 -1.24366e-19)
(-0.0734575 2.13673 0)
(0.632805 2.50389 0)
(0.454339 2.34033 -2.525e-18)
(0.48938 2.47612 0)
(0.58703 2.16105 2.94375e-18)
(0.566115 1.74084 0)
(0.547577 1.96219 -1.23536e-18)
(0.694052 1.84127 -5.484e-20)
(0.442098 1.17628 -3.0588e-18)
(0.389713 0.800969 3.40805e-18)
(0.468744 1.23752 7.4085e-19)
(0.686052 1.84094 0)
(0.713234 1.88306 0)
(0.439605 1.12591 0)
(0.307117 0.792478 -2.56181e-18)
(0.640049 2.48127 -1.93058e-18)
(0.709985 2.21131 -4.55294e-19)
(0.755591 2.41416 3.56649e-19)
(0.385614 1.31392 0)
(0.405677 1.24679 0)
(0.29233 0.963683 -7.99844e-19)
(0.626673 1.93875 0)
(0.722059 1.45037 0)
(0.544592 1.41839 -2.90385e-18)
(0.636616 1.12611 -1.78608e-19)
(0.660762 1.71083 0)
(0.630628 1.8418 4.40421e-18)
(0.978298 1.08075 -8.72526e-19)
(0.946512 1.22113 0)
(0.944655 1.14759 1.48188e-18)
(0.75342 1.26651 0)
(0.749571 1.18752 0)
(0.92315 2.26089 -1.07421e-18)
(0.994709 2.75115 -9.67903e-19)
(0.95236 2.75702 1.93218e-18)
(0.955261 2.69534 -5.67557e-19)
(0.790751 1.82278 0)
(0.83844 2.04469 7.70135e-19)
(0.516286 1.04386 -9.18211e-19)
(0.3824 0.746357 -2.13392e-20)
(0.839828 2.52646 0)
(0.717558 2.14574 -9.89132e-19)
(0.739058 1.98819 0)
(0.778647 0.174746 0)
(0.563613 0.116892 0)
(0.429383 0.0962446 0)
(0.760337 0.186491 -2.63885e-18)
(0.571184 0.139246 1.45902e-18)
(0.729005 0.0408591 -1.7579e-18)
(0.895046 0.0945049 0)
(0.836438 0.0949274 7.34869e-19)
(0.604244 0.0450754 2.89248e-18)
(0.522718 0.0269372 -1.83423e-18)
(0.632599 3.06057 3.04012e-19)
(0.727021 3.24034 0)
(0.455969 3.07914 7.11792e-19)
(0.330344 3.54593 -5.92754e-19)
(0.402742 3.46605 -1.33203e-18)
(0.449143 1.22434 2.73544e-18)
(0.438019 1.61616 0)
(0.357038 0.530689 -5.4145e-19)
(0.510576 0.600602 3.59389e-18)
(0.537955 0.271798 -7.55241e-19)
(0.618942 0.330386 8.41114e-19)
(0.74177 0.455649 1.84935e-18)
(0.830583 0.527097 0)
(0.734728 0.513414 0)
(0.712961 0.438845 0)
(1.2858 0.701414 9.00219e-19)
(1.2404 0.626799 -2.46205e-18)
(1.24599 0.681107 2.13158e-18)
(1.28818 0.591737 -1.99119e-18)
(1.3676 0.559398 0)
(1.34769 0.619809 -6.40301e-19)
(0.976857 0.392054 -3.48267e-18)
(1.01733 0.38781 -4.50617e-18)
(0.811844 0.355332 2.65842e-18)
(0.741668 0.317105 -2.56084e-18)
(0.853255 0.286814 -2.14306e-18)
(0.754667 0.266938 2.61651e-18)
(1.3599 0.00966686 -2.74394e-18)
(1.3747 0.0116206 5.41968e-18)
(1.26332 -0.0209852 3.31837e-18)
(1.2694 -0.0234457 -3.92022e-18)
(1.3282 0.00254634 0)
(1.37048 0.00592262 -6.62948e-18)
(-0.00201332 2.53035 2.10547e-19)
(-0.0147537 2.48404 0)
(0.0491671 2.51363 1.85361e-18)
(0.0567878 2.51243 -1.67785e-18)
(0.0669605 2.43011 8.36375e-19)
(0.0215695 2.40181 0)
(-0.112518 2.5526 0)
(-0.113959 2.34082 -1.17359e-19)
(-0.111479 2.31153 1.0511e-19)
(-0.114423 2.39146 1.25506e-20)
(-0.110435 2.52318 -1.82691e-19)
(-0.101456 2.51924 9.6589e-20)
(0.759166 2.40346 -3.01132e-18)
(0.738285 2.42158 3.2141e-18)
(0.604723 2.15881 -1.6701e-18)
(0.693903 2.44999 1.42748e-19)
(0.69395 1.66238 0)
(0.630654 1.78597 -1.42325e-18)
(0.661387 1.63408 1.3982e-18)
(0.617918 1.92835 1.66283e-18)
(0.701627 2.05233 0)
(0.715159 1.9102 0)
(0.611294 2.40524 2.88781e-18)
(0.535055 1.93562 4.18962e-18)
(0.589724 2.06299 -2.93613e-18)
(0.503001 2.00487 -4.8957e-19)
(0.507689 2.43117 9.71103e-19)
(0.439937 2.23424 -2.39104e-18)
(0.522915 1.06975 -1.91992e-18)
(0.516913 0.976009 0)
(0.388827 0.738527 -1.92034e-18)
(0.798197 1.82727 0)
(0.786395 1.83826 0)
(0.405614 3.02333 -1.53157e-18)
(0.662347 3.37046 -9.07306e-19)
(0.493833 3.44817 1.42674e-18)
(0.142716 1.53086 0)
(0.197702 1.12114 -1.25894e-18)
(0.360934 1.51852 -1.72609e-18)
(0.30938 2.78307 0)
(0.199453 3.32623 9.54731e-19)
(0.0437508 3.18711 0)
(0.895399 0.728552 -3.71131e-18)
(1.03668 0.81653 5.28918e-18)
(1.0483 0.716064 -5.2521e-18)
(0.833615 0.62691 -4.45722e-19)
(0.895178 0.615395 -1.8702e-18)
(0.709811 3.29423 7.46707e-19)
(0.850452 3.19488 -1.49452e-18)
(0.573619 3.01902 3.24669e-18)
(0.548121 2.68119 -2.27313e-18)
(0.836601 2.81865 -2.30549e-18)
(0.859428 3.09241 -3.2638e-19)
(0.921812 2.99499 1.75053e-18)
(0.691419 2.82911 1.4707e-19)
(0.678239 2.63318 9.89876e-19)
)
;

boundaryField
{
    wall-4
    {
        type            noSlip;
    }
    velocity-inlet-5
    {
        type            fixedValue;
        value           uniform (1 0 0);
    }
    velocity-inlet-6
    {
        type            fixedValue;
        value           uniform (0 3 0);
    }
    pressure-outlet-7
    {
        type            zeroGradient;
    }
    wall-8
    {
        type            noSlip;
    }
    frontAndBackPlanes
    {
        type            empty;
    }
}


// ************************************************************************* //
