/*--------------------------------*- C++ -*----------------------------------*\
  =========                 |
  \\      /  F ield         | OpenFOAM: The Open Source CFD Toolbox
   \\    /   O peration     | Website:  https://openfoam.org
    \\  /    A nd           | Version:  7
     \\/     M anipulation  |
\*---------------------------------------------------------------------------*/
FoamFile
{
    version     2.0;
    format      ascii;
    class       volScalarField;
    location    "0.099";
    object      k;
}
// * * * * * * * * * * * * * * * * * * * * * * * * * * * * * * * * * * * * * //

dimensions      [0 2 -2 0 0 0 0];

internalField   nonuniform List<scalar> 
12225
(
1.93957e-05
1.79499e-05
1.66348e-05
1.5435e-05
1.39499e-05
1.25052e-05
1.11714e-05
9.95886e-06
8.39953e-06
8.63229e-06
1.04529e-05
7.09896e-06
4.24168e-06
3.28908e-06
3.34821e-06
1.10997e-05
1.81224e-05
4.95548e-05
1.99798e-05
1.98727e-05
1.96793e-05
1.94378e-05
1.92016e-05
1.87311e-05
1.81432e-05
1.78301e-05
1.706e-05
1.70471e-05
1.80093e-05
1.75632e-05
1.58819e-05
1.47613e-05
1.35549e-05
1.35137e-05
1.37871e-05
1.49992e-05
1.99993e-05
1.9577e-05
1.94698e-05
1.93315e-05
1.91647e-05
1.8987e-05
1.88632e-05
1.8824e-05
1.87266e-05
1.86885e-05
1.87168e-05
1.86786e-05
1.84741e-05
1.81038e-05
1.78317e-05
1.76917e-05
1.73869e-05
1.70689e-05
2.0119e-05
2.00717e-05
1.95574e-05
1.77671e-05
1.59602e-05
1.60306e-05
1.6531e-05
1.73588e-05
1.78412e-05
1.80681e-05
1.81456e-05
1.81487e-05
1.81096e-05
1.80294e-05
1.79712e-05
1.79796e-05
1.79691e-05
1.79156e-05
2.06612e-05
2.13452e-05
2.2409e-05
2.20266e-05
2.0641e-05
2.00322e-05
1.99258e-05
1.97917e-05
1.97787e-05
1.98087e-05
1.97655e-05
1.94119e-05
1.8857e-05
1.85032e-05
1.83279e-05
1.82659e-05
1.82537e-05
1.82313e-05
2.05993e-05
2.17547e-05
2.52347e-05
2.52699e-05
2.36266e-05
2.22391e-05
2.18503e-05
2.17732e-05
2.17622e-05
2.17453e-05
2.16611e-05
2.1358e-05
2.09154e-05
2.06078e-05
2.04176e-05
2.01519e-05
1.99621e-05
1.97237e-05
2.01279e-05
2.08103e-05
2.27257e-05
2.29168e-05
2.25708e-05
2.23383e-05
2.23022e-05
2.22589e-05
2.20715e-05
2.16066e-05
2.12399e-05
2.0995e-05
2.0866e-05
2.08411e-05
2.08658e-05
2.10318e-05
2.18597e-05
2.36019e-05
2.04715e-05
2.15365e-05
2.15393e-05
2.15372e-05
2.19085e-05
2.26068e-05
2.26649e-05
2.24941e-05
2.18321e-05
2.11559e-05
2.08417e-05
2.07354e-05
2.07202e-05
2.07301e-05
2.07948e-05
2.10239e-05
2.17559e-05
2.36476e-05
2.02822e-05
2.08798e-05
2.11065e-05
2.10529e-05
2.11354e-05
2.19934e-05
2.3111e-05
2.32472e-05
2.31189e-05
2.31121e-05
2.3189e-05
2.3161e-05
2.28202e-05
2.22875e-05
2.21242e-05
2.21723e-05
2.26357e-05
2.44166e-05
2.01597e-05
2.05393e-05
2.08529e-05
2.11999e-05
2.24682e-05
2.37377e-05
2.3778e-05
2.33232e-05
2.30287e-05
2.30591e-05
2.31678e-05
2.32264e-05
2.33486e-05
2.35076e-05
2.36389e-05
2.37764e-05
2.40499e-05
2.48454e-05
2.00894e-05
2.02281e-05
2.06589e-05
2.27336e-05
2.37646e-05
2.3424e-05
2.26207e-05
2.22421e-05
2.21825e-05
2.22634e-05
2.26841e-05
2.31017e-05
2.32556e-05
2.32259e-05
2.30842e-05
2.3081e-05
2.31705e-05
2.3565e-05
2.02426e-05
2.03946e-05
2.17399e-05
2.33977e-05
2.34339e-05
2.31817e-05
2.23357e-05
2.17334e-05
2.15914e-05
2.16236e-05
2.18781e-05
2.22029e-05
2.2395e-05
2.25442e-05
2.26456e-05
2.27133e-05
2.28021e-05
2.30536e-05
2.21954e-05
2.11791e-05
2.08211e-05
2.17444e-05
2.33148e-05
2.34901e-05
2.31518e-05
2.21289e-05
2.15127e-05
2.12938e-05
2.12625e-05
2.12842e-05
2.13815e-05
2.16616e-05
2.20173e-05
2.22936e-05
2.24323e-05
2.25095e-05
2.40173e-05
2.31641e-05
2.15961e-05
2.16192e-05
2.25347e-05
2.29423e-05
2.28808e-05
2.23724e-05
2.1571e-05
2.11877e-05
2.10841e-05
2.1082e-05
2.10984e-05
2.11498e-05
2.12974e-05
2.17291e-05
2.21458e-05
2.23623e-05
2.14452e-05
2.11907e-05
2.10877e-05
2.09605e-05
2.08308e-05
2.07798e-05
2.06773e-05
2.04938e-05
2.04099e-05
2.04107e-05
2.04956e-05
2.05483e-05
2.05466e-05
2.05595e-05
2.06331e-05
2.08812e-05
2.11217e-05
2.12411e-05
2.02695e-05
2.18486e-05
2.21396e-05
2.1616e-05
2.09243e-05
2.07532e-05
2.07112e-05
2.06492e-05
2.04567e-05
2.02811e-05
2.02539e-05
2.02756e-05
2.03638e-05
2.06594e-05
2.114e-05
2.14911e-05
2.16853e-05
2.17471e-05
2.03874e-05
2.09014e-05
2.09398e-05
2.08472e-05
2.08759e-05
2.12377e-05
2.16415e-05
2.17023e-05
2.15988e-05
2.11491e-05
2.08373e-05
2.07742e-05
2.07943e-05
2.09325e-05
2.12767e-05
2.15164e-05
2.16256e-05
2.1654e-05
2.07178e-05
2.05498e-05
2.04419e-05
2.05404e-05
2.09212e-05
2.11753e-05
2.12519e-05
2.12545e-05
2.12173e-05
2.10428e-05
2.08341e-05
2.07385e-05
2.0718e-05
2.07283e-05
2.0811e-05
2.1018e-05
2.11353e-05
2.11773e-05
2.0962e-05
2.09965e-05
2.0804e-05
2.05785e-05
2.03993e-05
2.03326e-05
2.03644e-05
2.06046e-05
2.07458e-05
2.07202e-05
2.05828e-05
2.04013e-05
2.0315e-05
2.02991e-05
2.03221e-05
2.04502e-05
2.05545e-05
2.05707e-05
2.0453e-05
2.0957e-05
2.10897e-05
2.10769e-05
2.07945e-05
2.0441e-05
2.03287e-05
2.02999e-05
2.02804e-05
2.02342e-05
2.01669e-05
2.01353e-05
2.01338e-05
2.01675e-05
2.04116e-05
2.10311e-05
2.13211e-05
2.13423e-05
2.08252e-05
2.05114e-05
2.03127e-05
2.0262e-05
2.02594e-05
2.02931e-05
2.03429e-05
2.03667e-05
2.03757e-05
2.03762e-05
2.03669e-05
2.03455e-05
2.03437e-05
2.03648e-05
2.04761e-05
2.05682e-05
2.05872e-05
2.05781e-05
2.08424e-05
2.04094e-05
2.03499e-05
2.03461e-05
2.02897e-05
2.02126e-05
2.01955e-05
2.02031e-05
2.02507e-05
2.03203e-05
2.03533e-05
2.03865e-05
2.0461e-05
2.05801e-05
2.07945e-05
2.12592e-05
2.18691e-05
2.24556e-05
2.03366e-05
2.02298e-05
2.02784e-05
2.03355e-05
2.03183e-05
2.02116e-05
2.01563e-05
2.01446e-05
2.0177e-05
2.03191e-05
2.04356e-05
2.04921e-05
2.05501e-05
2.06231e-05
2.07359e-05
2.09629e-05
2.15507e-05
2.23993e-05
2.05471e-05
2.04171e-05
2.0329e-05
2.03787e-05
2.04614e-05
2.05127e-05
2.05383e-05
2.05244e-05
2.04972e-05
2.04977e-05
2.05239e-05
2.06277e-05
2.07355e-05
2.08239e-05
2.09919e-05
2.12599e-05
2.15128e-05
2.16875e-05
2.03966e-05
2.05632e-05
2.05009e-05
2.03408e-05
2.03183e-05
2.03367e-05
2.03524e-05
2.0353e-05
2.03539e-05
2.03672e-05
2.04301e-05
2.05044e-05
2.05305e-05
2.05307e-05
2.05101e-05
2.04537e-05
2.0415e-05
2.03995e-05
2.01046e-05
2.01202e-05
2.01086e-05
2.0116e-05
2.01823e-05
2.02477e-05
2.0295e-05
2.03814e-05
2.0601e-05
2.13106e-05
2.21916e-05
2.25998e-05
2.2661e-05
2.2576e-05
2.20845e-05
2.1299e-05
2.08372e-05
2.06518e-05
2.00438e-05
2.01065e-05
2.00911e-05
2.00337e-05
1.99195e-05
1.97325e-05
1.96508e-05
1.96669e-05
1.97523e-05
1.9852e-05
1.98671e-05
1.97993e-05
1.95226e-05
1.88012e-05
1.7074e-05
1.5432e-05
1.47991e-05
1.46944e-05
2.028e-05
1.82224e-05
1.31989e-05
1.37223e-05
1.57329e-05
1.80635e-05
2.10493e-05
2.73434e-05
3.47248e-05
4.05397e-05
4.44485e-05
4.71898e-05
5.0356e-05
5.63364e-05
7.07124e-05
8.44138e-05
9.74958e-05
0.000105568
3.3235e-05
9.98768e-05
0.000172168
0.000228605
0.000254482
0.00027269
0.000312619
0.000389534
0.000445529
0.000471849
0.000483128
0.000492846
0.000509522
0.000547905
0.000629043
0.000687499
0.000713487
0.000719292
0.00284278
0.00282112
0.00259933
0.00234299
0.00212362
0.00199238
0.00193839
0.00191504
0.00187662
0.00179854
0.00173208
0.00169486
0.00167705
0.00165876
0.00162131
0.00152249
0.0014037
0.00131994
0.0034605
0.00668014
0.00800211
0.00928541
0.0099398
0.0104123
0.0104447
0.00991473
0.00813399
0.00565152
0.00356629
0.00374922
0.00692759
0.00899827
0.00933772
0.00841264
0.00746495
0.00749769
0.00841163
0.0102583
0.0125863
0.0159666
0.0229639
0.0261249
0.0249519
0.0179626
0.0144864
0.0134658
0.0128608
0.0120678
0.0114253
0.0106743
0.00999441
0.00955929
0.00864618
0.0081795
0.00780905
0.00721832
0.00687053
0.00666539
0.00645642
0.00635919
0.00627666
0.00625384
0.00625613
0.00632738
0.0065053
0.00674756
0.00705237
0.00737133
0.00763356
0.00787554
0.00812383
0.00837402
0.00856673
0.00867286
0.00877772
0.00882585
0.00885798
0.00894564
0.00897484
0.00910572
0.00932985
0.00961987
0.00991306
0.0100283
0.010189
0.0105298
0.0114008
0.0126057
0.0149225
0.0242982
0.0479733
0.0493052
0.0355488
0.0235219
0.0188179
0.018446
0.0210911
0.023563
0.0251764
0.0299365
0.0524275
0.128604
0.188455
0.206033
0.197071
0.13987
0.0620846
0.0159619
0.0033104
0.0016362
0.00135431
0.00129069
0.00114557
0.000990924
0.000866349
0.000673062
0.000564678
0.000480533
0.000400257
0.000363786
0.000345603
0.000340366
0.000345969
0.000350743
0.000354894
0.000359545
0.00036442
0.000369674
0.000374725
0.000379286
0.000382895
0.000385686
0.000387354
0.000388054
0.000386885
0.000383827
0.000377345
0.000369593
0.000359634
0.000350211
0.000339322
0.000328258
0.000317406
0.000307325
0.00029393
0.000294691
0.000291968
0.000274599
0.000255852
0.000241332
0.000227638
0.000214506
0.000202312
0.000191278
0.000181101
0.000171156
0.000161464
0.000152201
0.000142406
0.000131766
0.000121742
0.000112739
0.000102493
9.07272e-05
7.95294e-05
6.7245e-05
5.07777e-05
3.34239e-05
2.08441e-05
1.28369e-05
8.13887e-06
5.6419e-06
4.44325e-06
3.89252e-06
3.58445e-06
3.31702e-06
3.01514e-06
2.6772e-06
2.32175e-06
1.98535e-06
1.67528e-06
1.42118e-06
1.18878e-06
1.00868e-06
8.44822e-07
6.97857e-07
5.92961e-07
5.98009e-07
5.72178e-07
6.49949e-07
6.30736e-07
8.19494e-07
7.64713e-07
1.08711e-06
1.35801e-06
2.02135e-06
1.17692e-05
9.79903e-06
0.0045637
0.00703576
0.0103676
0.011097
0.0109837
0.0116361
0.0120098
0.0119168
0.0116268
0.0107981
0.00978502
0.00751847
0.00658608
0.0073961
0.00837479
0.00685662
0.00535399
0.00511746
0.00542491
0.00761808
0.0131048
0.0190524
0.0205158
0.0201548
0.0166087
0.0133891
0.0119749
0.010463
0.00875057
0.00777103
0.00647408
0.00535829
0.00479385
0.0039629
0.00329958
0.00295754
0.00246998
0.00213441
0.00194367
0.00172209
0.00162874
0.00158609
0.00157512
0.0015953
0.00169432
0.00184701
0.00203157
0.00229308
0.00263357
0.00303013
0.00349466
0.00396062
0.00429709
0.00453227
0.00476189
0.0049304
0.00502092
0.00516435
0.00537208
0.00563449
0.00600227
0.00624541
0.00676553
0.00757698
0.00823927
0.00875976
0.00919983
0.00962607
0.0106678
0.0118495
0.013176
0.016515
0.0313538
0.0444696
0.0374659
0.0157849
0.011761
0.0135886
0.0204911
0.0304757
0.0301289
0.0292895
0.0346859
0.0510976
0.0731219
0.125182
0.131256
0.0678949
0.0215509
0.00554289
0.00175219
0.00100254
0.000783893
0.000673954
0.000589484
0.00054701
0.000524426
0.00051405
0.000512421
0.000520859
0.000529197
0.000545254
0.000559148
0.000577339
0.000595636
0.000615434
0.000637624
0.000660038
0.000684003
0.000708213
0.000732108
0.000754679
0.00077575
0.000793464
0.000807746
0.000815331
0.000817736
0.000810773
0.00078843
0.000767719
0.000737724
0.000708944
0.000678632
0.000648444
0.000620836
0.000596056
0.000574367
0.000549658
0.000540059
0.000528047
0.000513051
0.000497714
0.000481066
0.00046454
0.000448841
0.000433432
0.000415994
0.000395173
0.000371892
0.000347741
0.000324256
0.000301844
0.000281381
0.000262269
0.000242556
0.000222123
0.000200613
0.000178188
0.000158925
0.000144983
0.00013247
0.000118347
0.000101252
8.30936e-05
6.71893e-05
5.51367e-05
4.64694e-05
4.02766e-05
3.57192e-05
3.20589e-05
2.84927e-05
2.4863e-05
2.11519e-05
1.78897e-05
1.5025e-05
1.2853e-05
1.07244e-05
9.28169e-06
7.80488e-06
6.87684e-06
5.64221e-06
4.988e-06
4.01322e-06
3.65875e-06
3.00514e-06
2.73369e-06
2.54283e-06
2.3711e-06
3.71637e-06
3.57134e-06
0.00909948
0.0132388
0.0150295
0.0130174
0.010694
0.00951482
0.00941759
0.00951009
0.00969673
0.00972437
0.00965439
0.00926961
0.00783349
0.00714029
0.00711658
0.00692569
0.00545597
0.00515076
0.00576242
0.00862094
0.0142737
0.0165577
0.0163212
0.0134423
0.00971795
0.00783589
0.00644988
0.00453286
0.00368851
0.00290159
0.0020866
0.00173052
0.00140671
0.00107905
0.000931812
0.000811215
0.000692574
0.000641513
0.000604414
0.000586071
0.000580371
0.000581672
0.000605282
0.000630689
0.000667195
0.000707533
0.000753047
0.000807788
0.000878486
0.000961584
0.00105607
0.00115814
0.00125741
0.00134287
0.00142726
0.00153471
0.00168491
0.00189954
0.00224649
0.00283725
0.003592
0.00447273
0.00548938
0.0067832
0.00783882
0.00876365
0.00953556
0.0103442
0.0112154
0.0118797
0.0123732
0.0135924
0.0180815
0.0322108
0.0325945
0.0187584
0.0109334
0.0129771
0.0203882
0.0347084
0.0425432
0.0405899
0.041083
0.0526456
0.0775261
0.0728054
0.0381046
0.013988
0.00441681
0.00150719
0.000825545
0.000651708
0.000588884
0.000559974
0.000545793
0.000540084
0.000538602
0.000549037
0.000567924
0.000594984
0.000625974
0.000664838
0.000711171
0.000765325
0.000829635
0.000895537
0.000965449
0.00103565
0.00110635
0.00117544
0.00123866
0.00129132
0.0013393
0.00138099
0.00141394
0.00143563
0.00144167
0.00142717
0.00136486
0.00130133
0.00122204
0.00115191
0.0010816
0.00100516
0.000928377
0.000856752
0.000791748
0.000735309
0.00068539
0.00064439
0.000613251
0.000592419
0.000574303
0.000560977
0.000550747
0.000541952
0.000533906
0.000524836
0.000513245
0.000495663
0.000469076
0.000433049
0.000388378
0.000341308
0.00030218
0.000273828
0.000250598
0.000226287
0.00020255
0.000181608
0.000161873
0.000144254
0.00013241
0.00012503
0.000117484
0.000106922
9.45433e-05
8.34512e-05
7.51224e-05
6.88121e-05
6.32156e-05
5.78625e-05
5.27259e-05
4.80612e-05
4.38535e-05
4.00229e-05
3.63106e-05
3.27694e-05
2.92258e-05
2.56861e-05
2.21932e-05
1.87511e-05
1.56944e-05
1.26917e-05
1.04638e-05
8.03738e-06
6.76649e-06
4.84777e-06
4.35333e-06
3.32569e-06
0.00575575
0.0222164
0.0170764
0.00984627
0.00748406
0.00762416
0.00802759
0.00862081
0.00899607
0.00944842
0.00952594
0.00941261
0.00891116
0.00759208
0.00702003
0.00683339
0.00591064
0.00532928
0.00598681
0.00927384
0.0133103
0.0140186
0.0126754
0.00857943
0.00563589
0.00433795
0.00298623
0.00207251
0.0016594
0.00123689
0.00100646
0.000902328
0.000818191
0.000760576
0.000734817
0.000709182
0.000681974
0.000668037
0.000657385
0.000643368
0.00062857
0.000608652
0.000601746
0.000600321
0.000599265
0.000597208
0.000596981
0.000597155
0.000599419
0.000600635
0.00060467
0.000611174
0.000612659
0.000607095
0.000588397
0.000567257
0.000555667
0.000559972
0.000617285
0.000753043
0.00105877
0.0016914
0.00290974
0.00464277
0.00663684
0.00828793
0.00945965
0.0103568
0.0112512
0.0120631
0.0124026
0.0127765
0.0143742
0.0213287
0.0228969
0.0167389
0.0103511
0.0113426
0.01719
0.0304526
0.0452431
0.0500356
0.0518279
0.0558047
0.0473375
0.0243451
0.0100439
0.00353563
0.00137783
0.000783587
0.000639814
0.00059872
0.000583445
0.000577285
0.000584962
0.00061804
0.000671173
0.00074816
0.000841053
0.000951143
0.00107599
0.00121096
0.00135643
0.00150956
0.00166897
0.00182023
0.00195706
0.00207277
0.00217295
0.00226797
0.00231433
0.00232769
0.00232608
0.00229309
0.00221945
0.00212199
0.00202114
0.00193897
0.00185778
0.00175957
0.00163997
0.00151228
0.00139498
0.0012892
0.00119817
0.00111827
0.00104849
0.000987017
0.00092964
0.000873925
0.000818423
0.000763109
0.000712098
0.000666232
0.000626648
0.00059565
0.00057493
0.00056163
0.000551939
0.000544329
0.000538751
0.000534091
0.000526378
0.000509321
0.000469105
0.00041184
0.000353527
0.000313837
0.000294294
0.000275146
0.000244493
0.000208799
0.000178233
0.000157157
0.000143739
0.000135813
0.000132003
0.000129254
0.000123622
0.000112809
0.000100513
8.89478e-05
7.87736e-05
6.99378e-05
6.22547e-05
5.56211e-05
4.9977e-05
4.52244e-05
4.11025e-05
3.73138e-05
3.36296e-05
2.99519e-05
2.63021e-05
2.2668e-05
1.91729e-05
1.57667e-05
1.27279e-05
9.86632e-06
7.7192e-06
5.4196e-06
0.00832236
0.00987354
0.00702159
0.0058729
0.00630356
0.00746447
0.00881627
0.0103667
0.0116191
0.0115347
0.0109256
0.0100522
0.00936748
0.00809538
0.00708832
0.00668598
0.00613531
0.00559497
0.00621816
0.00965331
0.0120185
0.0119994
0.00951606
0.00519218
0.0032888
0.00233108
0.00149319
0.00114319
0.000972038
0.000876281
0.000838349
0.000823135
0.000814111
0.000810202
0.000834934
0.000868707
0.000904476
0.000941534
0.00095856
0.000965468
0.000965991
0.000946382
0.000921478
0.000910132
0.000882206
0.000841493
0.000807481
0.000753836
0.000715188
0.000660185
0.000627721
0.000610807
0.000600465
0.000574499
0.000528531
0.000477165
0.000420029
0.000361766
0.000321585
0.000304786
0.000323037
0.000408319
0.000642855
0.00121838
0.00264364
0.00527362
0.00793189
0.0096244
0.0108044
0.0118988
0.0126006
0.0128547
0.0133956
0.0159473
0.0170447
0.014618
0.0102176
0.00994309
0.0125103
0.0157422
0.0294793
0.0384875
0.0395116
0.0310461
0.016402
0.00758173
0.00308422
0.00131402
0.000771371
0.000625916
0.000591302
0.00058593
0.000597062
0.000642349
0.000735263
0.000891971
0.00110608
0.0013869
0.00172869
0.0020072
0.00223003
0.00244561
0.00259652
0.00271087
0.00280589
0.00287517
0.00291741
0.00293414
0.00293883
0.00293317
0.00290369
0.0028464
0.00276661
0.0026569
0.00252024
0.00235698
0.00218695
0.00205563
0.00197156
0.00187669
0.00175918
0.0016114
0.00145699
0.00132581
0.00122518
0.00114049
0.00107081
0.00101651
0.000972206
0.00093545
0.000903834
0.000874907
0.00084637
0.000817077
0.000785121
0.000747264
0.000702641
0.000654984
0.000609701
0.000574748
0.00055368
0.00054312
0.000538614
0.000536297
0.000532667
0.000524696
0.000503114
0.000439682
0.000364368
0.000310539
0.000283199
0.000265801
0.000240744
0.000209701
0.000182091
0.000163773
0.000154382
0.000150232
0.000148196
0.000146262
0.000142503
0.000132952
0.000116671
0.000101032
8.75198e-05
7.62454e-05
6.67857e-05
5.88873e-05
5.22914e-05
4.70491e-05
4.30453e-05
4.01329e-05
3.76786e-05
3.50391e-05
3.16816e-05
2.73805e-05
2.27689e-05
1.77741e-05
1.40266e-05
9.63869e-06
0.00344233
0.00515701
0.00482653
0.00542786
0.00777232
0.0100767
0.0114332
0.0125157
0.0136739
0.0137135
0.0133196
0.0118899
0.010024
0.00833141
0.00722898
0.0066413
0.00617418
0.005811
0.00672132
0.00979873
0.0108063
0.0101458
0.00668137
0.00316659
0.00192154
0.00130767
0.00100497
0.000896628
0.000862694
0.000855426
0.000864621
0.000910852
0.000994118
0.00112156
0.00127518
0.00144601
0.00161687
0.00178344
0.00189569
0.00197266
0.00201037
0.00202276
0.00200168
0.00191797
0.00183717
0.00167884
0.00153646
0.0013967
0.00123877
0.00106292
0.000916838
0.000802156
0.000746506
0.000691717
0.000619794
0.000557279
0.000472393
0.000372134
0.000303846
0.000256973
0.00022648
0.000211402
0.000227086
0.000311532
0.00058348
0.00135912
0.00357631
0.0070589
0.0095888
0.011135
0.0123333
0.0128761
0.0133296
0.014247
0.0145652
0.01388
0.0108856
0.00986218
0.0112608
0.0115355
0.0147316
0.0187147
0.017609
0.0116688
0.00599941
0.00279322
0.00132423
0.000785871
0.000626742
0.00059062
0.000587955
0.000610314
0.000694869
0.000894419
0.00125861
0.0018616
0.00235868
0.00265833
0.00286239
0.00296029
0.00301842
0.00305003
0.00306832
0.00307772
0.00307923
0.00307804
0.00307622
0.0030746
0.003068
0.0030402
0.00299903
0.00293564
0.00285229
0.00274026
0.00260221
0.00243347
0.00223869
0.00207465
0.00198716
0.00189791
0.00178925
0.00164445
0.00146903
0.00130833
0.00116053
0.00103403
0.000931349
0.000860562
0.000810369
0.0007866
0.000783226
0.000786626
0.000792433
0.00079481
0.000792312
0.000785876
0.000777788
0.000767406
0.000748876
0.000710546
0.000649899
0.000593719
0.000557214
0.000538507
0.00053059
0.000526772
0.000523006
0.000515047
0.000493453
0.000426924
0.000346896
0.000294415
0.000266848
0.00024523
0.000219417
0.000194032
0.000175067
0.000163768
0.000158359
0.000156184
0.000154944
0.000152967
0.00014871
0.000137896
0.000122693
0.000108114
9.51712e-05
8.41001e-05
7.45919e-05
6.63383e-05
5.95313e-05
5.42817e-05
5.0998e-05
4.86415e-05
4.69269e-05
4.35425e-05
3.9793e-05
3.32158e-05
2.82984e-05
2.00757e-05
0.00266083
0.00485164
0.00448573
0.00663045
0.00976325
0.0111247
0.0122444
0.0136038
0.0150259
0.0154761
0.0152304
0.0142524
0.0117624
0.0090172
0.00731325
0.00658527
0.00615832
0.00593952
0.00716157
0.0094816
0.0097931
0.00846257
0.00425053
0.00200973
0.00127498
0.000985166
0.000890023
0.000872969
0.000877172
0.000928866
0.00105914
0.00130086
0.00165726
0.00216643
0.00255777
0.00289065
0.00314459
0.00328555
0.00342339
0.00348618
0.00352172
0.00353473
0.0035325
0.00345679
0.0033611
0.00320684
0.00300621
0.00273491
0.00242642
0.00204628
0.00165117
0.00134558
0.0010955
0.000899294
0.000787931
0.000719519
0.000621722
0.000485817
0.000338304
0.000265462
0.00022277
0.000190227
0.000173106
0.000166361
0.000191755
0.000311977
0.000731781
0.00206592
0.00575097
0.0095074
0.0115612
0.0125721
0.0130579
0.0136235
0.0137629
0.0135851
0.0123752
0.010541
0.0109251
0.0105722
0.00889013
0.0096073
0.00808974
0.00502839
0.00262212
0.00136776
0.000823891
0.00063823
0.00059139
0.00058609
0.000608693
0.000710245
0.000990545
0.00162413
0.00249035
0.0028694
0.00302987
0.00307731
0.00305903
0.00299627
0.00296529
0.00287792
0.00279381
0.00273545
0.00269365
0.00267833
0.00270577
0.00275504
0.00282867
0.00287146
0.00288285
0.00286571
0.0028076
0.00271442
0.00259248
0.00243522
0.00223953
0.00204976
0.00194536
0.00187158
0.00178332
0.00164959
0.00146013
0.00121448
0.000990659
0.000802331
0.00065729
0.000560232
0.000495892
0.000464032
0.000461404
0.000467121
0.00048503
0.000514887
0.000543644
0.000588912
0.000653301
0.000707355
0.000738809
0.000749443
0.000749391
0.000738525
0.000685194
0.000602922
0.000559514
0.000543937
0.000534515
0.000525837
0.000517637
0.000501111
0.000457621
0.000371394
0.000304366
0.000265696
0.000242522
0.000219774
0.000196492
0.000177968
0.000166333
0.000160047
0.0001569
0.000155184
0.000153345
0.000149644
0.000140524
0.000126865
0.000113035
0.000100344
8.96893e-05
8.04015e-05
7.27577e-05
6.56218e-05
6.06007e-05
5.61541e-05
5.41559e-05
5.11196e-05
4.90951e-05
4.43652e-05
4.07967e-05
3.28686e-05
0.00292299
0.00491042
0.00431691
0.008206
0.010384
0.0114807
0.0126074
0.014514
0.016232
0.0166551
0.0164236
0.0152903
0.0122806
0.00908725
0.00724098
0.00646425
0.00611888
0.00610256
0.00788933
0.00902135
0.00890407
0.00635107
0.002695
0.00141854
0.00102377
0.000908597
0.000889105
0.00089703
0.000984159
0.00120837
0.00163087
0.00234777
0.00298967
0.00333941
0.00361872
0.00375393
0.0038524
0.00390133
0.00393363
0.0039449
0.00394756
0.00394588
0.00393835
0.0039258
0.00389343
0.00384342
0.00377091
0.00366733
0.00350922
0.00327583
0.00294977
0.00249418
0.00199592
0.00146769
0.001166
0.00092311
0.000779979
0.000640872
0.000435686
0.000304788
0.000238089
0.000192383
0.000168669
0.000151945
0.000143469
0.000147324
0.000195271
0.000407305
0.00122708
0.00442554
0.00931796
0.0117709
0.0124464
0.012792
0.0132227
0.0132602
0.0130057
0.0118173
0.0113002
0.0110468
0.00760072
0.00567848
0.00433964
0.00259734
0.00145744
0.000895135
0.000665983
0.00059478
0.000581544
0.00059942
0.00070428
0.00101044
0.00167453
0.00266608
0.00305416
0.00316425
0.00317408
0.00301257
0.00281655
0.0025761
0.00241492
0.0022629
0.002144
0.00209356
0.00206998
0.00203821
0.00202443
0.00203285
0.00207512
0.00216725
0.00231335
0.00241797
0.00246493
0.00244165
0.00237597
0.00227622
0.00211883
0.00190594
0.00178671
0.00173662
0.00169497
0.00161065
0.00140459
0.00115354
0.000908646
0.000701251
0.000549053
0.000451431
0.000395265
0.000366899
0.000358119
0.000357804
0.00036052
0.000369021
0.000388214
0.000431479
0.000546573
0.00066422
0.000729701
0.000757246
0.000758236
0.000754516
0.000746223
0.000728676
0.000673965
0.000603666
0.000568787
0.00055038
0.000536547
0.000525283
0.00050816
0.000467685
0.000379754
0.00030669
0.000263668
0.000238609
0.000216571
0.000194492
0.000176021
0.000163805
0.000157195
0.000153782
0.000151649
0.000149094
0.000143706
0.000133914
0.000122322
0.000109929
9.86727e-05
8.8478e-05
8.06992e-05
7.31582e-05
6.74705e-05
6.12612e-05
5.75081e-05
5.36008e-05
5.18057e-05
4.84946e-05
4.64146e-05
4.17212e-05
0.0030351
0.00489995
0.00425123
0.00894559
0.0105057
0.0115339
0.0127165
0.0147268
0.0165859
0.0169014
0.0164829
0.0151603
0.0120504
0.00893444
0.00705755
0.00628983
0.00598458
0.00634027
0.00803096
0.00848087
0.00777008
0.00470026
0.00188888
0.00114819
0.000949675
0.000911703
0.000912374
0.001007
0.00128893
0.00187209
0.00287726
0.00341081
0.00372827
0.00387688
0.00395524
0.00399372
0.00401707
0.00402773
0.0040311
0.00402403
0.00401753
0.00400842
0.00400369
0.00400243
0.00400032
0.0039879
0.00395616
0.00390402
0.00382289
0.00369993
0.00353952
0.00335449
0.0030965
0.00264812
0.002078
0.00158552
0.00116451
0.000867978
0.000579398
0.000386463
0.000269104
0.000205496
0.000170742
0.000151089
0.00013886
0.00013244
0.0001314
0.000150834
0.000266308
0.000828009
0.00344758
0.00920752
0.0120842
0.0126326
0.0126836
0.0128638
0.0128484
0.0124638
0.0118175
0.0114714
0.00862173
0.00432435
0.00270637
0.00169794
0.00103807
0.000728759
0.000610532
0.000580119
0.000581848
0.000628044
0.000823935
0.00139264
0.00262497
0.00319109
0.00333422
0.00334386
0.00323169
0.00301688
0.0028013
0.00256021
0.00241381
0.00231654
0.00223139
0.00219105
0.0021269
0.00209764
0.00198317
0.00193099
0.00187576
0.00184634
0.00183025
0.00184663
0.00188895
0.00192442
0.00193755
0.00189144
0.001815
0.0016805
0.00158034
0.00153786
0.00152085
0.0014854
0.00137898
0.00114584
0.000887084
0.000670664
0.000513554
0.000416164
0.000366707
0.00034746
0.000343223
0.000344126
0.000348248
0.000359373
0.000384976
0.000447049
0.000658848
0.00105547
0.00119937
0.001197
0.00115516
0.00102511
0.000871613
0.000796774
0.000750213
0.000697786
0.000645471
0.000605267
0.000575452
0.000552994
0.000538563
0.000519268
0.000472935
0.000379761
0.000303626
0.000258727
0.000232306
0.000209773
0.000188373
0.000170713
0.000157904
0.00014984
0.000145932
0.00014393
0.000140784
0.000134104
0.000125529
0.000115185
0.000104931
9.42778e-05
8.5872e-05
7.79531e-05
7.22805e-05
6.60042e-05
6.13334e-05
5.60742e-05
5.31412e-05
4.97039e-05
4.80335e-05
4.50501e-05
0.0031411
0.0047555
0.00445754
0.00920005
0.0101394
0.0109916
0.0121656
0.0141233
0.0162675
0.0166842
0.0161134
0.0144991
0.0113778
0.00853537
0.00671949
0.00595354
0.00579026
0.00681941
0.0080122
0.00810297
0.00664733
0.00313978
0.00148251
0.0010497
0.000949369
0.000932549
0.00100383
0.00128795
0.00197511
0.00306877
0.00358984
0.00383134
0.00393763
0.00398556
0.00401245
0.00403658
0.00404849
0.00405089
0.00404018
0.00402616
0.00401821
0.00401536
0.00403173
0.00403735
0.00400504
0.00397138
0.00392873
0.00390676
0.00388314
0.00379984
0.00370949
0.00358891
0.00347727
0.00328564
0.00300032
0.00268807
0.00214836
0.00149736
0.000893388
0.000550309
0.000344036
0.000242645
0.000185755
0.000155486
0.000138657
0.000130185
0.000126372
0.000125686
0.000138268
0.000227717
0.000717557
0.00326787
0.0095813
0.0124309
0.0127622
0.0127242
0.0127015
0.0125569
0.0121684
0.011879
0.0103251
0.00493287
0.00224963
0.00126888
0.000855378
0.000659
0.000587899
0.000572445
0.000584964
0.000682667
0.00107356
0.00200967
0.00307786
0.00343916
0.00354684
0.0035536
0.00343912
0.0033308
0.00329618
0.00330295
0.00341199
0.00360636
0.00369443
0.00364897
0.0034821
0.00334679
0.00287549
0.00253841
0.00219882
0.00196071
0.00181401
0.00173006
0.00167104
0.00161909
0.00158604
0.00156414
0.00152981
0.00150649
0.0014623
0.00142193
0.00140429
0.00138739
0.00133844
0.00114745
0.000871221
0.00064679
0.000488583
0.000395078
0.000352024
0.000339882
0.000340275
0.000346249
0.000363783
0.000401638
0.000481026
0.000660208
0.00118992
0.00247386
0.00315547
0.00321616
0.00312427
0.00283396
0.00207992
0.00140222
0.00102313
0.000818017
0.000716176
0.000687999
0.000663749
0.000616045
0.000583651
0.000566625
0.000541115
0.000474694
0.000371621
0.000294519
0.000249429
0.00022217
0.000199955
0.000179546
0.000162492
0.000149547
0.000140666
0.000136171
0.000134044
0.000130367
0.000124551
0.000116744
0.000108691
9.89657e-05
9.02529e-05
8.16204e-05
7.54746e-05
6.93948e-05
6.49105e-05
5.94956e-05
5.56271e-05
5.13685e-05
4.87328e-05
4.61833e-05
0.00324648
0.00464957
0.00468602
0.00892662
0.00976651
0.0101497
0.010937
0.0123685
0.0147059
0.0155993
0.0148198
0.0126107
0.00978163
0.00759181
0.00581541
0.00497577
0.00583527
0.0073266
0.00797677
0.00758856
0.00542851
0.00233685
0.00129415
0.00102417
0.000967604
0.000995807
0.00121662
0.00186703
0.00301517
0.00361402
0.00385968
0.00395716
0.00400006
0.00403579
0.00408116
0.00412135
0.00416852
0.00424253
0.0043463
0.00439561
0.0044307
0.00444726
0.00447491
0.00448731
0.00449405
0.00447438
0.00440949
0.00426865
0.00406342
0.00381731
0.00364918
0.00356654
0.00353297
0.00346995
0.00332561
0.00313093
0.0029345
0.00257154
0.00172453
0.000928695
0.000532509
0.000329089
0.000223729
0.000171658
0.000144894
0.00013044
0.000124461
0.000122631
0.000123221
0.0001372
0.000238749
0.000849891
0.00436102
0.0107424
0.0129051
0.0129872
0.0128283
0.0126046
0.0122434
0.012086
0.0113341
0.00653601
0.00248322
0.00123281
0.000801858
0.00063827
0.000577772
0.000567349
0.000595006
0.000772235
0.00127927
0.00247308
0.00360393
0.00396196
0.00402205
0.00400273
0.00409039
0.00446028
0.00513229
0.00595901
0.00691511
0.00789633
0.00853192
0.00882518
0.00847193
0.00764925
0.00649649
0.00516002
0.00396397
0.00300785
0.0023367
0.00191743
0.00168888
0.00156432
0.00147726
0.00142412
0.00139819
0.00138971
0.0013838
0.0013603
0.00134709
0.00132866
0.0012797
0.00110692
0.000811802
0.000578806
0.000429088
0.0003536
0.000327878
0.000327133
0.000334492
0.000364961
0.00043418
0.000538238
0.000734527
0.00115083
0.00221533
0.00522325
0.00775689
0.00832599
0.00820337
0.00780654
0.00687227
0.0047103
0.00276403
0.00158825
0.00102839
0.000804303
0.000727607
0.000705194
0.000668841
0.000638998
0.000615067
0.000566099
0.000457582
0.000351288
0.000277927
0.000235127
0.000208638
0.0001875
0.000168627
0.000152614
0.000140084
0.000131081
0.000126319
0.000123492
0.000120747
0.000115578
0.000109867
0.000102212
9.44061e-05
8.55306e-05
7.83502e-05
7.16513e-05
6.71182e-05
6.23993e-05
5.85575e-05
5.43097e-05
5.06292e-05
4.73307e-05
0.00328995
0.00448772
0.0047985
0.00873525
0.00948893
0.00976676
0.00997683
0.0105377
0.011779
0.0126397
0.0119364
0.0100321
0.00811157
0.00657803
0.00539344
0.00484243
0.0060819
0.00762329
0.00792751
0.00700543
0.00427313
0.00188952
0.00120143
0.00103823
0.0010158
0.00113389
0.00163557
0.00270794
0.00351799
0.0038428
0.00396217
0.00400952
0.00407283
0.00414477
0.00425263
0.00444239
0.00458818
0.00465091
0.00462866
0.00455631
0.00449783
0.00447178
0.00448207
0.00451577
0.00456979
0.00461851
0.00465447
0.00466866
0.00464233
0.00450967
0.00401198
0.00354419
0.0033816
0.00335531
0.00341643
0.00328132
0.00314048
0.00301582
0.00268509
0.00175247
0.000951335
0.000543638
0.000325339
0.000209816
0.000158545