/*--------------------------------*- C++ -*----------------------------------*\
  =========                 |
  \\      /  F ield         | OpenFOAM: The Open Source CFD Toolbox
   \\    /   O peration     | Website:  https://openfoam.org
    \\  /    A nd           | Version:  7
     \\/     M anipulation  |
\*---------------------------------------------------------------------------*/
FoamFile
{
    version     2.0;
    format      ascii;
    class       volScalarField;
    location    "0.099";
    object      p;
}
// * * * * * * * * * * * * * * * * * * * * * * * * * * * * * * * * * * * * * //

dimensions      [0 2 -2 0 0 0 0];

internalField   nonuniform List<scalar> 
12225
(
74.1168
76.1517
77.451
78.1318
78.5158
78.6816
78.6794
78.5725
78.3995
78.1665
77.871
77.5212
77.1347
76.7341
76.3287
75.921
75.4691
74.954
74.0932
76.1674
77.4594
78.1436
78.5207
78.6835
78.6818
78.5759
78.4026
78.1687
77.873
77.5243
77.1385
76.7384
76.3346
75.9313
75.493
74.9975
74.2751
76.1386
77.4727
78.1706
78.5342
78.6893
78.6903
78.5869
78.412
78.1752
77.8794
77.5345
77.1557
76.7613
76.3618
75.9579
75.5307
75.0505
73.9829
76.2036
77.5306
78.2246
78.5733
78.7174
78.7152
78.6099
78.4308
78.1896
77.8928
77.5513
77.1788
76.7894
76.3924
75.9891
75.5685
75.1124
73.7857
76.3236
77.608
78.2947
78.6273
78.7566
78.7482
78.64
78.4574
78.2127
77.9152
77.5764
77.2087
76.8238
76.4307
76.0314
75.6205
75.1914
74.3133
76.5235
77.7434
78.3964
78.7091
78.8218
78.8018
78.6857
78.4962
78.2464
77.9469
77.6095
77.2458
76.866
76.4781
76.0851
75.6859
75.2803
75.204
76.8513
77.9253
78.5298
78.8159
78.9064
78.8714
78.7456
78.5491
78.2941
77.9921
77.6552
77.2946
76.9193
76.5365
76.1505
75.7634
75.3783
76.1559
77.2639
78.1701
78.7045
78.9556
79.0212
78.9663
78.8244
78.6157
78.3531
78.0475
77.7105
77.3524
76.9813
76.604
76.2255
75.8502
75.4824
77.0906
77.7296
78.466
78.9168
79.1252
79.1615
79.0832
78.9242
78.7035
78.4324
78.1216
77.7823
77.4247
77.0564
76.6839
76.3128
75.9478
75.5938
77.6418
78.2071
78.8211
79.193
79.3462
79.3423
79.2327
79.0477
78.8077
78.5246
78.2073
77.8656
77.5083
77.1426
76.7745
76.4094
76.0526
75.7093
77.238
78.7168
79.2314
79.5053
79.5951
79.548
79.4063
79.1977
78.9401
78.6441
78.3179
77.9703
77.6099
77.2438
76.8779
76.5174
76.1671
75.8314
79.0563
79.3495
79.6889
79.866
79.8827
79.782
79.6017
79.363
79.0812
78.7679
78.4313
78.0782
77.7154
77.3489
76.9841
76.6256
76.2781
75.9452
80.5177
80.037
80.173
80.251
80.1917
80.0358
79.8163
79.5492
79.2464
78.9166
78.5675
78.2054
77.8363
77.4661
77.0998
76.7417
76.3957
76.0646
79.9553
80.6995
80.8233
80.7794
80.6163
80.3839
80.1075
79.7971
79.4602
79.1054
78.7392
78.3659
77.9894
77.6141
77.2445
76.884
76.536
76.2026
81.3117
81.7737
81.6783
81.4411
81.1444
80.8185
80.4759
80.1178
79.7447
79.3605
78.9709
78.5794
78.1893
77.8041
77.4271
77.0612
76.7084
76.3699
83.4905
83.3214
82.8259
82.2974
81.8238
81.383
80.9561
80.5344
80.1124
79.6906
79.2713
78.8559
78.4465
78.0456
77.6556
77.278
76.9141
76.565
87.7799
85.5175
84.2071
83.3054
82.6316
82.0674
81.5532
81.0627
80.5845
80.1163
79.658
79.2101
78.7741
78.3512
77.9424
77.5479
77.1678
76.8018
90.5323
87.171
85.3933
84.3204
83.5333
82.8729
82.2789
81.7179
81.1778
80.6559
80.1499
79.6595
79.1861
78.7304
78.2928
77.873
77.471
77.0867
88.2825
86.6138
85.6888
85.0113
84.3879
83.7605
83.1313
82.5129
81.9117
81.3283
80.7636
80.2203
79.7
79.2022
78.7265
78.2714
77.8361
77.4195
81.7838
84.646
85.6041
85.6342
85.2483
84.6696
84.0042
83.3159
82.6376
81.9802
81.3483
80.7453
80.1731
79.6318
79.1198
78.6347
78.1743
77.7368
80.6893
85.4061
86.7136
86.7589
86.2584
85.5425
84.7595
83.9726
83.2102
82.4826
81.7922
81.14
80.5256
79.9474
79.4027
78.8887
78.403
77.9433
86.2807
88.6441
88.8487
88.2739
87.402
86.4502
85.5068
84.5965
83.7358
82.9308
82.1785
81.4766
80.8225
80.2125
79.6418
79.1061
78.6025
78.1281
95.9037
92.9823
91.2915
89.8191
88.4582
87.2193
86.0924
85.0578
84.1093
83.2445
82.4461
81.7087
81.0267
80.3933
79.8026
79.2497
78.732
78.2462
99.2093
96.0782
93.3464
91.1769
89.4143
87.9341
86.651
85.5024
84.4609
83.537
82.6864
81.913
81.2039
80.5494
79.9423
79.3732
78.8426
78.3458
104.893
98.7695
94.9078
92.17
90.0813
88.404
86.9931
85.7674
84.668
83.693
82.8274
82.037
81.3121
80.6432
80.022
79.4473
78.9107
78.4094
107.676
100.421
95.9876
92.9217
90.6397
88.826
87.3125
86.0153
84.868
83.8473
82.9502
82.141
81.4017
80.7212
80.0915
79.5076
78.9643
78.4575
108.252
101.251
96.5875
93.3504
90.9614
89.0552
87.4746
86.11
84.9538
83.9284
83.0194
82.2006
81.4529
80.7645
80.1277
79.5379
78.9909
78.4828
108.429
101.753
96.9722
93.6627
91.2066
89.2464
87.6098
86.2175
85.031
83.9918
83.0728
82.2467
81.4924
80.7976
80.1552
79.5611
79.0115
78.502
107.078
101.672
97.0947
93.8156
91.3228
89.3234
87.664
86.2615
85.0636
84.0194
83.0976
82.2699
81.5131
80.8135
80.165
79.5656
79.0135
78.5049
107.942
101.76
97.1571
93.9011
91.3844
89.3622
87.693
86.2859
85.0827
84.0352
83.1118
82.2834
81.5259
80.8249
80.1745
79.573
79.019
78.5093
68.2015
68.182
68.18
68.2223
68.295
68.3591
68.3989
68.4126
68.4109
68.3981
68.3676
68.317
68.2509
68.1745
68.0804
67.9711
67.8475
67.7099
67.5578
67.3865
67.1967
66.9899
66.7627
66.512
66.2551
66.0099
65.7642
65.4895
65.148
64.7336
64.2538
63.7159
63.1333
62.5252
61.912
61.3135
60.7468
60.229
59.7731
59.3888
59.0851
58.8699
58.7496
58.728
58.8046
58.9762
59.2375
59.5823
60.0039
60.4943
61.0448
61.6452
62.283
62.9444
63.6181
64.2935
64.9536
65.5751
66.1385
66.6369
67.0624
67.3967
67.6171
67.7141
67.7105
67.6088
67.3624
67.1057
66.9887
66.8976
66.7112
66.5189
66.3497
66.1544
65.8642
65.4789
65.368
65.6094
65.3687
64.5578
63.6124
62.9833
62.6476
62.2863
61.9628
61.8478
61.6379
61.2179
60.863
60.5906
59.9757
58.8655
57.3903
55.725
54.006
52.3234
50.7327
49.2665
47.9438
46.7767
45.7739
44.9423
44.2869
43.8108
43.5138
43.396
43.4493
43.6642
44.0286
44.529
45.1528
45.8877
46.7204
47.635
48.6112
49.6228
50.6369
51.614
52.5087
53.2786
53.8945
54.3434
54.6233
54.7438
54.7237
54.5823
54.3371
54.0053
53.5994
53.1311
52.6114
52.0501
51.4565
50.8391
50.2053
49.562
48.9153
48.2714
47.636
47.0146
46.4126
45.8341
45.2823
44.7601
44.2676
43.8042
43.3684
42.9576
42.568
42.1954
41.8345
41.4786
41.122
40.7624
40.4032
40.0489
39.7013
39.3572
39.0106
38.656
38.2899
37.9109
37.5192
37.1159
36.7023
36.2799
35.8495
35.4121
34.968
34.5177
34.0615
33.6
33.1336
32.663
32.1887
31.7118
31.2331
30.753
30.2786
29.7872
68.0593
68.0251
68.0234
68.0924
68.2114
68.3108
68.377
68.4078
68.4142
68.4035
68.3813
68.3501
68.3051
68.2251
68.1219
68.0052
67.8785
67.7463
67.6062
67.4555
67.2873
67.0962
66.8788
66.6272
66.3263
65.9987
65.6822
65.3414
64.9339
64.4668
63.945
63.3772
62.7789
62.1659
61.5576
60.969
60.4153
59.9115
59.4699
59.1018
58.8157
58.6172
58.51
58.4928
58.5678
58.7354
58.9943
59.34
59.7653
60.2627
60.8236
61.4358
62.084
62.7534
63.433
64.1095
64.7618
65.3685
65.9195
66.4146
66.843
67.1816
67.4157
67.5389
67.5614
67.4575
67.175
66.8328
66.6666
66.6181
66.569
66.4795
66.3111
66.098
65.7667
65.262
65.005
65.0777
64.7841
63.9936
63.0808
62.4846
62.279
62.127
61.9469
61.8469
61.7285
61.3843
60.8627
60.3064
59.477
58.2689
56.7798
55.1513
53.4942
51.8804
50.3541
48.9425
47.6631
46.5291
45.551
44.738
44.0982
43.6368
43.3566
43.2513
43.3159
43.5402
43.9114
44.4164
45.0422
45.7768
46.6078
47.5207
48.4966
49.5107
50.5309
51.5173
52.4248
53.2093
53.8389
54.2995
54.5884
54.7166
54.7008
54.5624
54.3213
53.9923
53.5888
53.1223
52.6035
52.0426
51.449
50.8313
50.1971
49.5531
48.9057
48.2608
47.6245
47.0022
46.3993
45.8197
45.2665
44.7436
44.2507
43.7875
43.3521
42.9417
42.5525
42.1808
41.8216
41.4684
41.1148
40.7582
40.4018
40.0501
39.7046
39.3615
39.0151
38.6602
38.2937
37.9143
37.5221
37.1184
36.7043
36.2814
35.8506
35.4129
34.9685
34.518
34.0617
33.6
33.1333
32.6624
32.1878
31.7103
31.2312
30.7499
30.2739
29.7839
67.917
67.8957
67.8806
67.9545
68.043
68.1143
68.1575
68.1751
68.1801
68.1827
68.1906
68.2034
68.2045
68.1781
68.1138
68.0065
67.8907
67.7775
67.6614
67.5333
67.3838
67.201
66.9701
66.6844
66.3445
65.9525
65.5228
65.063
64.567
64.0359
63.4727
62.8837
62.2785
61.6668
61.0624
60.4791
59.9297
59.4269
58.9828
58.609
58.3155
58.1093
57.9941
57.9758
58.0558
58.2323
58.5019
58.86
59.3004
59.8157
60.3955
61.0255
61.6893
62.3712
63.0568
63.7291
64.3693
64.9633
65.5073
65.9983
66.4237
66.77
67.0287
67.1915
67.2486
67.1844
66.9652
66.6637
66.4696
66.4423
66.4576
66.3957
66.2521
66.0565
65.7145
65.2111
64.8849
64.7806
64.3424
63.4739
62.5944
62.0268
61.8902
61.9409
61.9833
61.8582
61.515
61.0135
60.3469
59.5034
58.4435
57.1818
55.7717
54.2793
52.7642
51.2743
49.8458
48.5068
47.2792
46.1813
45.2283
44.4335
43.8076
43.3583
43.0884
42.9956
43.0739
43.3119
43.6952
44.2086
44.838
45.5717
46.3987
47.3065
48.2789
49.2938
50.3211
51.3215
52.2495
53.0586
53.7124
54.194
54.5
54.6411
54.636
54.5079
54.2757
53.9547
53.5576
53.0958
52.5802
52.0211
51.4284
50.8109
50.1763
49.5314
48.8826
48.2358
47.5971
46.9728
46.3683
45.7882
45.2342
44.7124
44.2201
43.7577
43.3227
42.9131
42.5258
42.1569
41.8013
41.4533
41.1073
40.7608
40.4141
40.0683
39.724
39.379
39.0294
38.6712
38.3019
37.9203
37.5266
37.1218
36.707
36.2836
35.8524
35.4142
34.9694
34.5184
34.0615
33.5992
33.1319
32.66
32.1845
31.7054
31.2249
30.7407
30.2608
29.7698
67.8584
67.8526
67.8193
67.7817
67.74
67.6916
67.6467
67.6183
67.6165
67.644
67.7006
67.7792
67.8646
67.9298
67.9436
67.9032
67.8278
67.7415
67.6434
67.5252
67.3676
67.1572
66.8849
66.5439
66.1415
65.6931
65.2052
64.6794
64.1198
63.532
62.9202
62.2908
61.6517
61.0122
60.3842
59.781
59.2162
58.7026
58.252
57.8753
57.582
57.3789
57.2712
57.2617
57.3514
57.5375
57.817
58.1859
58.639
59.1694
59.767
60.4184
61.1074
61.8167
62.527
63.2173
63.8686
64.4693
65.0152
65.5019
65.9232
66.2743
66.5515
66.7487
66.8562
66.862
66.7589
66.5857
66.4536
66.4221
66.4418
66.411
66.2906
66.0921
65.7786
65.3315
64.9801
64.7533
64.2957
63.4957
62.6249
62.002
61.741
61.6549
61.5773
61.4152
61.0432
60.4147
59.5836
58.59
57.4516
56.1931
54.846
53.4451
52.0266
50.6247
49.2699
47.9887
46.8042
45.737
44.806
44.0274
43.415
42.9786
42.7233
42.6465
42.7429
43
43.4006
43.9263
44.5612
45.2929
46.1119
47.009
47.9716
48.9818
50.0129
51.0277
51.9798
52.8198
53.5061
54.0173
54.3469
54.5066
54.5199
54.4084
54.1913
53.8836
53.4975
53.0443
52.5348
51.98
51.3901
50.7742
50.1403
49.4952
48.8452
48.1968
47.5563
46.9298
46.3229
45.7415
45.189
44.6645
44.1729
43.7129
43.2822
42.8768
42.4931
42.1279
41.7775
41.4366
41.0998
40.7626
40.4232
40.082
39.7395
39.3944
39.0433
38.6832
38.3118
37.9285
37.5334
37.1274
36.7117
36.2874
35.8555
35.4165
34.971
34.5193
34.0618
33.5986
33.1304
32.6575
32.1808
31.7
31.2173
30.7304
30.2454
29.7508
67.8901
67.8376
67.695
67.5292
67.3758
67.2481
67.1516
67.0898
67.0674
67.0891
67.1519
67.2523
67.3813
67.5185
67.6199
67.6582
67.6372
67.5806
67.4957
67.3768
67.1995
66.9512
66.63
66.2376
65.7867
65.2926
64.757
64.1793
63.564
62.916
62.2418
61.5517
60.8572
60.1708
59.5057
58.8741
58.2881
57.7593
57.2992
56.918
56.6234
56.4242
56.3266
56.3297
56.4253
56.6188
56.9093
57.2926
57.7632
58.314
58.9359
59.617
60.3423
61.0931
61.8462
62.577
63.2642
63.8948
64.4636
64.9676
65.4041
65.7722
66.0724
66.3044
66.4656
66.5517
66.5655
66.5294
66.4964
66.5083
66.5463
66.5286
66.4174
66.2166
65.9073
65.4531
65.0738
64.8686
64.599
64.0759
63.3238
62.6558
62.2201
61.9194
61.6154
61.2054
60.6077
59.8035
58.8409
57.7605
56.5852
55.3322
54.02
52.6708
51.31
49.9641
48.6585
47.4171
46.2627
45.2169
44.3007
43.5336
42.9316
42.5065
42.2644
42.2102
42.3332
42.6178
43.0434
43.5882
44.2328
44.9633
45.7718
46.6522
47.5971
48.594
49.6217
50.6467
51.6224
52.4962
53.2209
53.7688
54.1257
54.3132
54.3504
54.2607
54.0637
53.7738
53.4026
52.9611
52.4604
51.9118
51.3262
50.713
50.0802
49.4347
48.7829
48.1315
47.4877
46.8586
46.2513
45.6699
45.1185
44.5984
44.1112
43.6538
43.2249
42.8246
42.4484
42.0917
41.7499
41.4176
41.0898
40.7621
40.4315
40.0971
39.7585
39.4142
39.062
38.6996
38.3257
37.94
37.5427
37.135
36.7178
36.2924
35.8594
35.4196
34.9733
34.5208
34.0624
33.5983
33.1291
32.6549
32.1767
31.6941
31.2089
30.7192
30.2286
29.73
67.7347
67.6294
67.4047
67.1878
67.0006
66.8515
66.7438
66.6765
66.6485
66.6591
66.7114
66.805
66.9349
67.0869
67.2273
67.3122
67.3308
67.2953
67.2175
67.0879
66.883
66.597
66.2349
65.8038
65.3154
64.7759
64.1833
63.5392
62.8504
62.1253
61.3756
60.6161
59.8612
59.1253
58.4208
57.7585
57.1487
56.6017
56.1281
55.7375
55.4382
55.2369
55.1408
55.1375
55.2465
55.4614
55.7759
56.1839
56.6787
57.2531
57.8993
58.6088
59.3708
60.1688
60.9802
61.7767
62.5308
63.223
63.8445
64.3932
64.8698
65.2757
65.6135
65.8865
66.0996
66.2584
66.3707
66.4513
66.5235
66.5996
66.6911
66.7108
66.6133
66.4057
66.1028
65.679
65.3005
65.1393
65.1113
64.9235
64.3876
63.799
63.1867
62.5865
61.9375
61.1836
60.3049
59.3085
58.2213
57.065
55.8504
54.5853
53.2809
51.9543
50.6252
49.3144
48.0416
46.8268
45.6904
44.6545
43.7429
42.9787
42.382
41.9675
41.7427
41.7146
41.8704
42.191
42.6518
43.2257
43.8884
44.6233
45.422
46.2817
47.2008
48.1738
49.1866
50.2114
51.2031
52.1069
52.8706
53.4566
53.8507
54.0694
54.1348
54.0709
53.8975
53.6287
53.2754
52.8479
52.3578
51.817
51.2369
50.6272
49.9959
49.3497
48.6951
48.0395
47.3913
46.7583
46.1475
45.5649
45.0157
44.5001
44.0196
43.574
43.1592
42.7668
42.3964
42.0473
41.7156
41.3951
41.0792
40.7624
40.4411
40.1136
39.7787
39.4352
39.0818
38.7173
38.3411
37.953
37.5536
37.144
36.7252
36.2984
35.8643
35.4235
34.9763
34.5228
34.0634
33.5982
33.1278
32.6523
32.1724
31.688
31.2002
30.7076
30.212
29.7088
67.3418
67.2224
67.0233
66.8314
66.655
66.5016
66.3798
66.2966
66.2569
66.2624
66.3116
66.4008
66.5242
66.6713
66.8162
66.914
66.9439
66.9146
66.8345
66.6873
66.4518
66.1295
65.7322
65.265
64.7334
64.1364
63.4715
62.7447
61.9691
61.1609
60.3391
59.5224
58.7255
57.9605
57.2356
56.5565
55.9309
55.369
54.8819
54.4795
54.1713
53.9615
53.8473
53.8767
54.0185
54.2647
54.6055
55.0318
55.5352
56.1095
56.752
57.4642
58.2435
59.0789
59.9492
60.8234
61.6654
62.4451
63.1469
63.7676
64.3097
64.7765
65.1714
65.4991
65.7673
65.9863
66.1695
66.33
66.4781
66.6162
66.7703
66.8423
66.7984
66.6161
66.3362
65.9969
65.6929
65.5848
65.684
65.7094
65.3804
64.8075
64.0632
63.2096
62.2593
61.2171
60.1009
58.9328
57.7285
56.4933
55.2276
53.9336
52.6196
51.2996
49.9889
48.7009
47.4474
46.2423
45.1051
44.0606
43.137
42.3625
41.7621
41.3549
41.1508
41.1531
41.3484
41.7147
42.2225
42.8388
43.5332
44.2844
45.0815
45.9227
46.8124
47.7533
48.7405
49.7533
50.7503
51.6767
52.4766
53.1001
53.533
53.7865
53.8834
53.848
53.7004
53.4546
53.1208
52.709
52.2308
51.6986
51.1246
50.5186
49.8886
49.2409
48.582
47.9195
47.2627
46.6219
46.0069
45.4239
44.8778
44.3714
43.9031
43.4682
43.0625
42.6858
42.3327
41.9978
41.6779
41.3699
41.0672
40.7629
40.4518
40.1313
39.8002
39.4579
39.1038
38.7375
38.359
37.9684
37.5666
37.1548
36.734
36.3055
35.8701
35.4281
34.9798
34.5253
34.0648
33.5985
33.1268
32.6498
32.1682
31.6818
31.1913
30.6958
30.1958
29.688
66.987
66.8909
66.7442
66.5854
66.4263
66.2806
66.1609
66.0744
66.0266
66.0203
66.0536
66.1221
66.2208
66.3406
66.458
66.5331
66.5478
66.5059
66.4081
66.2326
65.9601
65.5996
65.1627
64.6495
64.0599
63.3909
62.6455
61.8383
60.9918
60.1305
59.2773
58.4469
57.6452
56.8737
56.1345
55.433
54.7786
54.1838
53.6647
53.2381
52.9195
52.7229
52.6589
52.7066
52.8741
53.1528
53.5292
53.9874
54.5132
55.0978
55.738
56.4324
57.1844
57.9979
58.8725
59.7887
60.7066
61.5808
62.3802
63.0934
63.7201
64.2651
64.7326
65.1281
65.4585
65.7342
65.9691
66.1776
66.3691
66.5442
66.7346
66.8464
66.8493
66.715
66.4875
66.2344
66.0297
65.9841
66.1545
66.2392
66.0332
65.4457
64.6063
63.5786
62.4267
61.1933
59.9171
58.6234
57.3221
56.0128
54.6928
53.3636
52.0338
50.7145
49.4135
48.1344
46.8805
45.6617
44.4979
43.4183
42.458
41.6526
41.034
40.6266
40.4454
40.4842
40.7304
41.1579
41.731
42.4093
43.1546
43.9392
44.7486
45.5807
46.4443
47.3505
48.3048
49.2958
50.2881
51.2284
52.0595
52.7151
53.1853
53.4743
53.6037
53.5977
53.4765
53.2545
52.9416
52.5472
52.0824
51.5602
50.9929
50.3909
49.762
49.112
48.4471
47.7754
47.1076
46.4556
45.8303
45.2422
44.6978
44.1994
43.7445
43.3301
42.9498
42.594
42.257
41.9371
41.6334
41.3417
41.0546
40.764
40.4639
40.1509
39.8241
39.4832
39.1285
38.7603
38.3792
37.9859
37.5814
37.167
36.7441
36.3137
35.8768
35.4335
34.9841
34.5284
34.0667
33.5991
33.126
32.6475
32.1641
31.6756
31.1825
30.684
30.18
29.6679
66.7985
66.7253
66.6173
66.4892
66.3546
66.2261
66.1173
66.0343
65.9809
65.9589
65.9687
66.0064
66.0658
66.1401
66.2064
66.2353
66.2118
66.1373
66.0063
65.788
65.4678
65.0618
64.5752
64.004
63.3464
62.6041
61.7905
60.9308
60.0537
59.1821
58.3292
57.4986
56.6859
55.8842
55.0904
54.3115
53.5634
52.868
52.2516
51.7441
51.3721
51.1531
51.0974
51.1884
51.4267
51.7998
52.2865
52.8604
53.4956
54.1705
54.869
55.5862
56.3292
57.1118
57.9455
58.8342
59.7645
60.6943
61.5779
62.3869
63.1092
63.7436
64.2927
64.7619
65.1581
65.4903
65.7688
66.0077
66.2203
66.4121
66.5917
66.7244
66.771
66.6945
66.5109
66.2979
66.1358
66.1143
66.2702
66.3638
66.1922
65.648
64.7757
63.665
62.4111
61.0747
59.7074
58.3338
56.9623
55.593
54.2254
52.8641
51.5189
50.1962
48.8932
47.6014
46.3167
45.0485
43.8217
42.673
41.6469
40.7885
40.1379
39.7254
39.5672
39.6539
39.9687
40.479
41.1408
41.905
42.7253
43.566
44.408
45.2471
46.0939
46.9687
47.8879
48.8515
49.8321
50.7851
51.6295
52.3145
52.8184
53.1407
53.3012
53.3234
53.2278
53.0291
52.7376
52.362
51.9128
51.4022
50.8428
50.245
49.6168
48.9638
48.2914
47.6081
46.926
46.2597
45.6235
45.0278
44.4804
43.9865
43.5461
43.1537
42.799
42.4718
42.1641
41.8693
41.5853
41.3108
41.0403
40.765
40.4771
40.1726
39.8505
39.5112
39.1557
38.7853
38.4014
38.0051
37.5977
37.1806
36.7553
36.3229
35.8843
35.4396
34.9889
34.532
34.069
33.6001
33.1255
32.6454
32.1601
31.6696
31.1739
30.6724
30.1649
29.6488
66.7923
66.7392
66.661
66.5591
66.4484
66.3382
66.2411
66.1623
66.1035
66.0651
66.0473
66.0478
66.0613
66.079
66.0845
66.0547
65.9795
65.8594
65.6814
65.4065
65.0296
64.5691
64.0242
63.3897
62.6665
61.8647
61.0082
60.1255
59.2411
58.3663
57.499
56.6274
55.7388
54.828
53.9003
52.9715
52.0679
51.2233
50.4752
49.8594
49.4066
49.1402
49.0721
49.2158
49.5532
50.0599
50.7052
51.4523
52.2616
53.0973
53.9374
54.7711
55.5948
56.4084
57.2266
58.0717
58.9557
59.8745
60.7934
61.6753
62.4908
63.2205
63.8571
64.4019
64.8616
65.2459
65.5646
65.8275
66.0472
66.2367
66.3998
66.5264
66.5934
66.5707
66.4391
66.2419
66.063
65.9921
66.0793
66.1402
65.9681
65.4653
64.6126
63.5047
62.2306
60.8636
59.4579
58.0416
56.6253
55.2134
53.8091
52.4218
51.0615
49.7269
48.4006
47.0645
45.713
44.3609
43.0392
41.7922
40.6747
39.7439
39.049
38.627
38.4972
38.6439
39.046
39.6616
40.4355
41.3084
42.2257
43.1447
44.041
44.907
45.7531
46.6046
47.4922
48.4269
49.3972
50.3467
51.2021
51.9097
52.4422
52.794
52.9821
53.03
52.9583
52.7823
52.5125
52.157
51.7252
51.2278
50.6765
50.0823
49.4535
48.7956
48.1134
47.4153
46.7158
46.0324
45.382
44.777
44.2269
43.7376
43.3085
42.9359
42.6116
42.3218
42.0504
41.7874
41.5303
41.2781
41.0263
40.7669
40.4918
40.1961
39.879
39.5414
39.1852
38.8126
38.4257
38.0262
37.6157
37.1957
36.7677
36.3331
35.8926
35.4464
34.9944
34.5362
34.0718
33.6015
33.1254
32.6436
32.1564
31.6638
31.1656
30.6613
30.1504
29.6309
66.9455
66.9072
66.8501
66.7723
66.686
66.5986
66.5194
66.4506
66.392
66.3403
66.2956
66.2572
66.2208
66.1774
66.1132
66.0149
65.8803
65.708
65.469
65.1272
64.6883
64.1681
63.5621
62.8668
62.0879
61.2435
60.3612
59.4646
58.5655
57.6611
56.7351
55.7691
54.7522
53.6871
52.5918
51.4945
50.4295
49.4347
48.5521
47.8258
47.2964
46.9946
46.9379
47.1259
47.5493
48.1807
48.9784
49.8929
50.8739
51.8786
52.8781
53.859
54.8162
55.7465
56.6372
57.4887
58.3308
59.1934
60.0871
60.9946
61.88
62.7012
63.4301
64.0538
64.5745
65.0035
65.3539
65.6384
65.866
66.0462
66.1896
66.2999
66.371
66.3854
66.3087
66.1453
65.9487
65.7943
65.7532
65.7283
65.527
65.0474
64.2407
63.171
61.9262
60.5768
59.1713
57.7398
56.3005
54.8614
53.4309
52.0217
50.6423
49.2826
47.9089
46.4993
45.0515
43.5883
42.1457
40.775
39.5429
38.5214
37.772
37.3372
37.2392
37.458
37.9663
38.7096
39.6184
40.6206
41.6528
42.6674
43.6365
44.5493
45.4134
46.2546
47.1176
48.0293
48.982
49.9249
50.7865
51.5102
52.0653
52.4418
52.6537
52.7243
52.6752
52.5217
52.274
51.9396
51.5263
51.0424
50.4981
49.9047
49.2723
48.6066
47.9109
47.1934
46.471
45.7658
45.0989
44.4852
43.9332
43.4482
43.0325
42.6822
42.3892
42.1376
41.9089
41.6883
41.4677
41.2438
41.0133
40.7704
40.5079
40.221
39.9089
39.5734
39.2169
38.8421
38.4521
38.0491
37.6353
37.2122
36.7814
36.3444
35.9019
35.454
35.0005
34.5409
34.0751
33.6032
33.1255
32.6421
32.153
31.6583
31.1578
30.6508
30.1369
29.6141
67.2173
67.1897
67.1473
67.0884
67.0211
66.9531
66.8913
66.8363
66.786
66.7337
66.6758
66.6089
66.5276
66.4235
66.2888
66.1216
65.9258
65.6964
65.3865
64.9736
64.4728
63.8935
63.2294
62.4802
61.657
60.781
59.8776
58.9599
58.0272
57.0639
56.0481
54.9636
53.8062
52.5865
51.3268
50.0563
48.81
47.6308
46.5715
45.6929
45.0545
44.6974
44.6431
44.8823
45.4085
46.1895
47.1724
48.2915
49.4782
50.6721
51.8305
52.9387
54.009
55.0574
56.0685
57.0067
57.8601
58.6753
59.5081
60.3893
61.3052
62.2009
63.018
63.7219
64.3001
64.7694
65.144
65.4425
65.6769
65.8544
65.9834
66.0732
66.1331
66.1631
66.1397
66.0142
65.8163
65.6038
65.4284
65.2775
65.0141
64.5308
63.769
62.751
61.5538
60.2414
58.8563
57.4297
55.9836
54.531
53.0828
51.652
50.2466
48.8478
47.407
45.9035
44.3418
42.7512
41.1702
39.6563
38.2908
37.1641
36.3536
35.9106
35.8348
36.1318
36.7608
37.65
38.7122
39.8597
41.0191
42.1402
43.1944
44.1691
45.0695
45.9159
46.7674
47.658
48.593
49.5273
50.391
51.1249
51.6961
52.0926
52.3247
52.4152
52.387
52.2559
52.0303
51.7164
51.3202
50.8482
50.3078
49.7102
49.0688
48.3917
47.68
46.9385
46.1865
45.453
44.7654
44.1409
43.5885
43.1124
42.7139
42.3894
42.1302
41.9203
41.7394
41.5686
41.393
41.2049
41.0006
40.776
40.5263
40.2477
39.9403
39.6067
39.25
38.8734
38.4803
38.0738
37.6565
37.2302
36.7967
36.3571
35.9124
35.4626
35.0073
34.5461
34.0788
33.6054
33.1261
32.6409
32.15
31.6532
31.1504
30.6409
30.1241
29.5985
67.5716
67.5489
67.515
67.467
67.4098
67.3514
67.298
67.2506
67.2042
67.1526
67.088
67.0029
66.8886
66.7385
66.5504
66.3308
66.085
65.8013
65.4257
64.9514
64.3971
63.7665
63.0523
62.2594
61.4022
60.5013
59.575
58.6282
57.6486
56.6128
55.4981
54.2912
52.9921
51.6137
50.177
48.7083
47.2443
45.8384
44.5619
43.4959
42.716
42.2739
42.1961
42.4954
43.1485
44.1088
45.3098
46.6697
48.1004
49.5235
50.8785
52.1327
53.2937
54.4103
55.5169
56.5648
57.4926
58.2896
59.0674
59.8969
60.8057
61.7493
62.6388
63.41
64.0432
64.5496
64.9457
65.2513
65.4856
65.6596
65.7805
65.8569
65.8986
65.9183
65.918
65.8373
65.6453
65.4014
65.1337
64.8607
64.5164
64.0097
63.2774
62.3092
61.1614
59.89
58.5336
57.1223
55.6794
54.2211
52.7606
51.3089
49.8695
48.4202
46.9055
45.3017
43.6204
41.8972
40.1722
38.5105
37.0082
35.7736
34.9026
34.4787
34.3974
34.7725
35.5237
36.5605
37.78
39.0763
40.363
41.5883
42.7282
43.771
44.7172
45.5898
46.4418
47.3178
48.2363
49.1609
50.023
50.7615
51.3427
51.7539
52.0026
52.1101
52.1004
51.9896
51.7842
51.4873
51.1043
50.6406
50.1008
49.4939
48.836
48.1416
47.4133
46.648
45.8614
45.0911
44.3762
43.7394
43.188
42.7234
42.3447
42.0507
41.8326
41.6706
41.5413
41.4249
41.3025
41.1588
40.9865
40.7834
40.5473
40.2766
39.9732
39.6409
39.284
38.9059
38.5101
38.1001
37.6792
37.2497
36.8133
36.3711
35.924
35.4721
35.0149
34.5519
34.083
33.6079
33.1269
32.6401
32.1474
31.6486
31.1437
30.6318
30.1124
29.584
67.984
67.9641
67.9343
67.8887
67.8311
67.7679
67.707
67.6508
67.5964
67.5377
67.4644
67.366
67.2324
67.0573
66.8425
66.5957
66.3155
65.9852
65.5675
65.0549
64.4655
63.7987
63.0472
62.2226
61.3416
60.4209
59.4724
58.4935
57.4641
56.3568
55.1492
53.8303
52.4016
50.876
49.2729
47.6192
45.9565
44.3546
42.9005
41.6912
40.8119
40.3162
40.2311
40.5635
41.2924
42.3729
43.7323
45.2803
46.9129
48.537
50.0814
51.4895
52.7455
53.8989
55.0497
56.1769
57.1729
58.0015
58.7499
59.5332
60.4153
61.3823
62.3186
63.1406
63.8141
64.3463
64.7595
65.0722
65.3045
65.4725
65.5843
65.648
65.6735
65.6703
65.6521
65.5961
65.4203
65.1653
64.8452
64.4898
64.0733
63.5363
62.8178
61.889
60.7843
59.5514
58.225
56.8327
55.3978
53.9384
52.4677
50.9953
49.5214
48.0178
46.4326
44.7379
42.9457
41.1026
39.2506
37.4609
35.842
34.5101
33.5678
33.0633
33.0789
33.5401
34.3995
35.5662
36.9267
38.3572
39.7537
41.0621
42.268
43.3706
44.3691
45.2782
46.1429
47.0131
47.918
48.8322
49.6891
50.4268
51.0118
51.4321
51.693
51.8138
51.8186
51.724
51.5343
51.2498
50.8747
50.4152
49.8739
49.255
48.5736
47.8524
47.1031
46.3181
45.4975
44.6829
43.9312
43.2787
42.7314
42.2839
41.9292
41.6662
41.4919
41.3841
41.3127
41.2562
41.1938
41.1025
40.9691
40.7914
40.5707
40.3082
40.008
39.6761
39.3185
38.939
38.5408
38.1276
37.7032
37.2703
36.831
36.3862
35.9367
35.4824
35.0231
34.5583
34.0875
33.6108
33.1282
32.6397
32.1452
31.6446
31.1375
30.6234
30.1016
29.5708
68.4424
68.4257
68.3994
68.3514
68.2874
68.2097
68.1285
68.0484
67.9709
67.8921
67.8031
67.6928
67.55
67.3693
67.1506
66.8963
66.6026
66.2529
65.8206
65.2968
64.6904
64.0021
63.2278
62.385
61.4885
60.5528
59.5849
58.5762
57.5038
56.3399
55.0626
53.6625
52.1413
50.5117
48.7925
47.0161
45.2142
43.486
41.9183
40.617
39.6667
39.125
39.0142
39.3737
40.148
41.3063
42.762
44.4207
46.1711
47.905
49.5521
51.0583
52.3862
53.5816
54.7386
55.8842
56.9211
57.7821
58.5243
59.2849
60.1492
61.1196
62.0823
62.9346
63.6318
64.1758
64.5942
64.9104
65.1404
65.3016
65.4052
65.4557
65.4619
65.4331
65.3769
65.2969
65.1385
64.9176
64.533
64.1422
63.6866
63.1274
62.4152
61.5156
60.4459
59.2465
57.9485
56.5764
55.1526
53.6952
52.2169
50.7261
49.2209
47.6725
46.0297
44.2645
42.3905
40.4565
38.5127
36.6312
34.9321
33.531
32.5408
32.0281
32.0601
32.5769
33.5168
34.7815
36.2493
37.7842
39.2617
40.623
41.8634
43.0008
44.0414
44.9895
45.8759
46.7488
47.6441
48.5474
49.3957
50.127
50.7094
51.1324
51.4001
51.5296
51.5441
51.4604
51.2816
51.0051
50.6337
50.1747
49.6298
48.997
48.2861
47.5257
46.7426
45.9364
45.0892
44.228
43.4287
42.7531
42.2164
41.795
41.4709
41.2425
41.1142
41.0636
41.0541
41.0617
41.0649
41.034
40.9466
40.799
40.596
40.3424
40.045
39.7127
39.3535
38.9723
38.572
38.156
37.7281
37.2919
36.8494
36.4021
35.9501
35.4935
35.032
34.5651
34.0925
33.6141
33.1298
32.6396
32.1435
31.6411
31.1321
30.6159
30.0919
29.5588
68.9624
68.9505
68.927
68.8762
68.8056
68.7148
68.6158
68.5144
68.4146
68.315
68.2096
68.0891
67.9459
67.7692
67.5589
67.313
67.025
66.6788
66.2499
65.7274
65.1134
64.4103
63.6212
62.7634
61.855
60.9073
59.9239
58.8933
57.7928
56.596
55.2834
53.8449
52.2825
50.608
48.8404
47.011
45.1696
43.396
41.7897
40.4543
39.4746
38.9069
38.7809
39.1177
39.8938
41.0597
42.5286
44.2004
45.9698
47.7231
49.375
50.8876
52.24
53.4524
54.6008
55.7259
56.756
57.6227
58.366
59.1272
59.9975
60.9776
61.9508
62.8093
63.5073
64.0486
64.4606
64.7717
64.9981
65.1516
65.2451
65.2851
65.2732
65.2177
65.1239
64.9838
64.7769
64.426
64.1503
63.7917
63.3369
62.7714
62.0664
61.1914
60.1526
58.9835
57.713
56.3629
54.9538
53.5028
52.0216
50.5179
48.9896
47.4122
45.7354
43.9296
42.0073
40.0214
38.028
36.1066
34.3697
32.9377
31.9251
31.4018
31.4403
31.9844
32.9636
34.2731
35.7964
37.3945
38.9254
40.3122
41.5541
42.6942
43.7549
44.7342
45.6453
46.5268
47.4161
48.308
49.1442
49.8636
50.4365
50.8555
51.1241
51.2574
51.2771
51.1994
51.0272
50.7558
50.3856
49.9225
49.3678
48.7153
47.9671
47.1527
46.315
45.4702
44.5989
43.7019
42.8538
42.1437
41.6166
41.2374
40.9579
40.7733
40.699
40.7138
40.7683
40.8407
40.914
40.951
40.9176
40.8053
40.6225
40.379
40.0845
39.751
39.3893
39.0058
38.6034
38.1848
37.7539
37.3142
36.8687
36.4185
35.9641
35.5052
35.0414
34.5724
34.0979
33.6177
33.1318
32.64
32.1423
31.6382
31.1274
30.6093
30.0833
29.5481
69.514
69.5014
69.4758
69.4324
69.3652
69.2754
69.1735
69.0676
68.9622
68.8582
68.7523
68.637
68.5045
68.3468
68.1587
67.9357
67.6674
67.3339
66.9101
66.3841
65.7583
65.0379
64.2294
63.3526
62.4286
61.4694
60.4766
59.4378
58.3319
57.1353
55.8294
54.4046
52.8633
51.2171
49.4857
47.7001
45.9096
44.1873
42.6254
41.32
40.3536
39.7784
39.6258
39.9191
40.6395
41.7329
43.1151
44.6877
46.3566
48.0231
49.5958
51.0312
52.329
53.5155
54.6375
55.717
56.6994
57.539
58.2881
59.0755
59.9769
60.9702
61.9336
62.7707
63.4468
63.9708
64.3696
64.6688
64.8879
65.035
65.119
65.149
65.1259
65.0516
64.9334
64.7602
64.5269
64.2153
63.8821
63.5175
63.0642
62.496
61.7954
60.9393
59.927
58.7855
57.5419
56.2161
54.8261
53.3874
51.9113
50.405
48.8678
47.2815
45.6016
43.7953
41.871
39.8834
37.895
35.9844
34.2577
32.8349
31.8276
31.3071
31.3358
31.8736
32.8423
34.1345
35.6425
37.2412
38.7816
40.1627
41.3776
42.4902
43.5441
44.5385
45.47
46.3622
47.2483
48.1283
48.9487
49.6506
50.2076
50.6158
50.8786
51.0104
51.0311
50.9548
50.7848
50.5156
50.1429
49.6682
49.0917
48.4068
47.6111
46.7302
45.8176
44.9112
44.0038
43.0807
42.1943
41.4507
40.9289
40.6018
40.3806
40.2513
40.2447
40.3381
40.4649
40.6018
40.7451
40.8546
40.8815
40.8093
40.6491
40.4163
40.1252
39.7904
39.4255
39.039
38.6343
38.2134
37.7797
37.3369
36.8882
36.4352
35.9783
35.517
35.051
34.5799
34.1035
33.6217
33.1342
32.6408
32.1415
31.6359
31.1234
30.6035
30.0756
29.5386
70.0429
70.0116
69.9789
69.9516
69.8996
69.8271
69.7405
69.6502
69.5608
69.4747
69.3892
69.2984
69.1941
69.0681
68.9131
68.7225
68.4736
68.147
67.7186
67.1776
66.5296
65.7835
64.9485
64.0458
63.1005
62.1275
61.129
60.0928
58.9994
57.827
56.5586
55.1855
53.71
52.1439
50.507
48.8293
47.1551
45.5477
44.0848
42.8498
41.9201
41.3493
41.1667
41.3961
42.0219
42.9893
44.2226
45.6337
47.1345
48.6382
50.0662
51.3797
52.5876
53.7191
54.795
55.8091
56.7232
57.5275
58.2973
59.1342
60.0767
61.068
61.9943
62.7847
63.4237
63.9249
64.3103
64.5997
64.8105
64.9524
65.03
65.052
65.0224
64.939
64.8084
64.6254
64.3739
64.0742
63.7268
63.3554
62.8978
62.3216
61.6183
60.7725
59.7803
58.6628
57.4449
56.1447
54.7774
53.357
51.8943
50.3962
48.8642
47.2866
45.6285
43.8564
41.9717
40.0256
38.0846
36.2254
34.5474
33.1654
32.1827
31.6697
31.6698
32.1724
33.0957
34.3276
35.7669
37.3087
38.8113
40.1568
41.3262
42.3937
43.4216
44.4156
45.3598
46.2614
47.1451
48.0124
48.8144