/*--------------------------------*- C++ -*----------------------------------*\
  =========                 |
  \\      /  F ield         | OpenFOAM: The Open Source CFD Toolbox
   \\    /   O peration     | Website:  https://openfoam.org
    \\  /    A nd           | Version:  7
     \\/     M anipulation  |
\*---------------------------------------------------------------------------*/
FoamFile
{
    version     2.0;
    format      ascii;
    class       volVectorField;
    location    "0.099";
    object      U;
}
// * * * * * * * * * * * * * * * * * * * * * * * * * * * * * * * * * * * * * //

dimensions      [0 1 -1 0 0 0 0];

internalField   nonuniform List<vector> 
12225
(
(4.81303 0.197776 0)
(4.08076 0.149237 0)
(3.58276 0.110498 0)
(3.23114 0.0798127 0)
(2.8958 0.0688601 0)
(2.54071 0.0624165 0)
(2.20005 0.0527142 0)
(1.90222 0.0432216 0)
(1.64596 0.0376017 0)
(1.41422 0.0348311 0)
(1.193 0.0313941 0)
(0.990532 0.0248053 0)
(0.808934 0.016616 0)
(0.665015 0.00766735 0)
(0.539112 -0.000550578 0)
(0.463273 -0.00281932 0)
(0.351377 -0.0135443 0)
(0.357334 -0.0305104 0)
(4.96161 0.124616 0)
(4.79846 0.0699296 0)
(4.72789 0.0788551 0)
(4.66074 0.0857475 0)
(4.55707 0.0982698 0)
(4.4163 0.110629 0)
(4.25523 0.112495 0)
(4.08861 0.105606 0)
(3.92125 0.0982864 0)
(3.75884 0.0959023 0)
(3.59246 0.0967877 0)
(3.43221 0.0964033 0)
(3.26654 0.0918348 0)
(3.12488 0.0841794 0)
(2.97383 0.0755538 0)
(2.85962 0.0679049 0)
(2.68965 0.0663984 0)
(2.58973 0.0533697 0)
(5.04403 0.21175 0)
(4.91539 0.147094 0)
(4.82798 0.132776 0)
(4.78175 0.12359 0)
(4.73986 0.127823 0)
(4.70592 0.138146 0)
(4.6791 0.141762 0)
(4.64857 0.138838 0)
(4.60557 0.135385 0)
(4.55335 0.135246 0)
(4.49244 0.136831 0)
(4.42884 0.137153 0)
(4.3593 0.132201 0)
(4.2912 0.12216 0)
(4.2188 0.11086 0)
(4.14988 0.103743 0)
(4.07385 0.104594 0)
(4.00021 0.10598 0)
(4.91356 0.224542 0)
(4.85358 0.123271 0)
(4.78123 0.111849 0)
(4.72406 0.120994 0)
(4.67968 0.132535 0)
(4.66154 0.13835 0)
(4.66673 0.135665 0)
(4.6752 0.130474 0)
(4.67264 0.129047 0)
(4.65902 0.132702 0)
(4.64059 0.138171 0)
(4.62278 0.14144 0)
(4.60884 0.139817 0)
(4.5967 0.133586 0)
(4.5857 0.126897 0)
(4.56976 0.122797 0)
(4.55498 0.126337 0)
(4.5327 0.133477 0)
(4.89096 0.219817 0)
(4.79981 0.147411 0)
(4.72846 0.143386 0)
(4.68076 0.145285 0)
(4.67446 0.140679 0)
(4.69653 0.134342 0)
(4.72576 0.13085 0)
(4.74182 0.132933 0)
(4.73771 0.139699 0)
(4.7196 0.147085 0)
(4.69872 0.151006 0)
(4.68289 0.149337 0)
(4.67643 0.142743 0)
(4.67687 0.133062 0)
(4.68085 0.124659 0)
(4.68272 0.120534 0)
(4.68373 0.123643 0)
(4.68152 0.131602 0)
(4.95022 0.266686 0)
(4.85948 0.168466 0)
(4.79808 0.139596 0)
(4.75319 0.141716 0)
(4.71896 0.139619 0)
(4.70543 0.131601 0)
(4.71473 0.12541 0)
(4.7342 0.126923 0)
(4.75156 0.135434 0)
(4.76244 0.14505 0)
(4.76771 0.15024 0)
(4.7692 0.148883 0)
(4.76872 0.142177 0)
(4.76624 0.132894 0)
(4.76089 0.125412 0)
(4.75174 0.122817 0)
(4.74065 0.126804 0)
(4.72892 0.135534 0)
(4.90911 0.273253 0)
(4.91763 0.175256 0)
(4.87523 0.158044 0)
(4.81843 0.164824 0)
(4.78163 0.154684 0)
(4.76971 0.133674 0)
(4.7755 0.119591 0)
(4.78925 0.120179 0)
(4.80407 0.131169 0)
(4.81663 0.143741 0)
(4.82534 0.151358 0)
(4.82927 0.151978 0)
(4.82909 0.147044 0)
(4.82434 0.139672 0)
(4.81624 0.133911 0)
(4.80341 0.132451 0)
(4.79019 0.136374 0)
(4.77461 0.143594 0)
(5.02125 0.249633 0)
(4.95932 0.182221 0)
(4.88273 0.168034 0)
(4.84274 0.173685 0)
(4.83544 0.164032 0)
(4.83791 0.140139 0)
(4.83843 0.118879 0)
(4.83474 0.11166 0)
(4.83035 0.118083 0)
(4.8302 0.130087 0)
(4.83619 0.139704 0)
(4.84589 0.143241 0)
(4.85649 0.141623 0)
(4.86414 0.137596 0)
(4.86875 0.135059 0)
(4.86853 0.136081 0)
(4.8678 0.14158 0)
(4.86428 0.149883 0)
(4.97645 0.263155 0)
(4.93442 0.210597 0)
(4.89775 0.182585 0)
(4.89566 0.169782 0)
(4.91964 0.15091 0)
(4.9386 0.13119 0)
(4.93176 0.123369 0)
(4.90295 0.128717 0)
(4.87209 0.139313 0)
(4.8567 0.147098 0)
(4.86097 0.14886 0)
(4.87741 0.145632 0)
(4.8957 0.1405 0)
(4.90797 0.135898 0)
(4.91092 0.133842 0)
(4.90577 0.134952 0)
(4.89533 0.139311 0)
(4.88369 0.145897 0)
(4.91398 0.211323 0)
(4.99873 0.202048 0)
(4.98766 0.188971 0)
(4.95779 0.173467 0)
(4.93062 0.155555 0)
(4.90162 0.141384 0)
(4.87753 0.13564 0)
(4.86811 0.134469 0)
(4.87623 0.132312 0)
(4.89705 0.127595 0)
(4.9214 0.122445 0)
(4.94012 0.119779 0)
(4.94898 0.121248 0)
(4.94795 0.126678 0)
(4.9396 0.134947 0)
(4.92642 0.144643 0)
(4.91106 0.155024 0)
(4.89468 0.164538 0)
(4.91592 0.211385 0)
(4.93235 0.179252 0)
(4.95709 0.180376 0)
(4.94995 0.176209 0)
(4.93484 0.164072 0)
(4.92533 0.150769 0)
(4.92629 0.141039 0)
(4.9342 0.13472 0)
(4.94143 0.130931 0)
(4.94293 0.129694 0)
(4.93846 0.131091 0)
(4.93035 0.134639 0)
(4.92155 0.139483 0)
(4.91339 0.14494 0)
(4.90705 0.150751 0)
(4.90137 0.156979 0)
(4.89758 0.163683 0)
(4.893 0.170536 0)
(5.02502 0.203774 0)
(5.04369 0.187516 0)
(4.99543 0.195478 0)
(4.9334 0.194815 0)
(4.89237 0.176128 0)
(4.8843 0.150751 0)
(4.90438 0.131843 0)
(4.93268 0.122884 0)
(4.95057 0.121004 0)
(4.95279 0.122274 0)
(4.94526 0.124294 0)
(4.9364 0.12667 0)
(4.93154 0.130162 0)
(4.93126 0.135096 0)
(4.93378 0.141704 0)
(4.93606 0.149472 0)
(4.93707 0.158354 0)
(4.93505 0.167779 0)
(4.96633 0.207625 0)
(4.94022 0.185482 0)
(4.95759 0.205742 0)
(4.98085 0.202321 0)
(5.00092 0.172927 0)
(5.01316 0.137625 0)
(5.02133 0.116786 0)
(5.0256 0.11609 0)
(5.02266 0.127975 0)
(5.011 0.140905 0)
(4.99359 0.147561 0)
(4.97556 0.14778 0)
(4.9609 0.145768 0)
(4.95083 0.145834 0)
(4.94433 0.149943 0)
(4.93964 0.157581 0)
(4.93542 0.16738 0)
(4.93027 0.177289 0)
(5.07903 0.268651 0)
(5.00182 0.218666 0)
(4.99196 0.188969 0)
(5.01187 0.181492 0)
(5.01915 0.169728 0)
(5.01244 0.148063 0)
(5.00446 0.128171 0)
(5.00161 0.119813 0)
(5.00241 0.123194 0)
(5.00245 0.13199 0)
(4.99922 0.13959 0)
(4.99312 0.143308 0)
(4.98653 0.144128 0)
(4.98132 0.144732 0)
(4.97839 0.147532 0)
(4.9765 0.153323 0)
(4.97514 0.162288 0)
(4.97126 0.173154 0)
(4.98899 0.326184 0)
(4.94928 0.24962 0)
(4.92624 0.17962 0)
(4.90812 0.170124 0)
(4.90934 0.161805 0)
(4.92718 0.13927 0)
(4.95109 0.120878 0)
(4.97011 0.120094 0)
(4.97869 0.134015 0)
(4.9771 0.150879 0)
(4.96987 0.161093 0)
(4.96214 0.162685 0)
(4.95752 0.159157 0)
(4.95644 0.15606 0)
(4.95807 0.157454 0)
(4.9602 0.164452 0)
(4.96194 0.176418 0)
(4.96179 0.190441 0)
(4.95835 0.316131 0)
(5.00703 0.266213 0)
(4.99276 0.229066 0)
(4.97705 0.203155 0)
(4.97593 0.163201 0)
(4.98083 0.118041 0)
(4.9804 0.0901472 0)
(4.97607 0.0909396 0)
(4.97373 0.112033 0)
(4.9759 0.135962 0)
(4.98209 0.150142 0)
(4.99008 0.152122 0)
(4.99781 0.146554 0)
(5.00326 0.140416 0)
(5.00664 0.138848 0)
(5.00787 0.143992 0)
(5.00909 0.154973 0)
(5.00977 0.169771 0)
(4.92258 0.220828 0)
(4.94405 0.184105 0)
(4.97394 0.192225 0)
(5.00847 0.174772 0)
(5.03823 0.150973 0)
(5.05644 0.136849 0)
(5.05634 0.132532 0)
(5.04321 0.134916 0)
(5.02782 0.13986 0)
(5.01827 0.143493 0)
(5.01726 0.144223 0)
(5.02251 0.143455 0)
(5.03009 0.143823 0)
(5.03618 0.147861 0)
(5.0395 0.15589 0)
(5.04018 0.166846 0)
(5.0404 0.17847 0)
(5.04141 0.188498 0)
(5.01789 0.279078 0)
(4.98699 0.195473 0)
(4.97081 0.176178 0)
(4.9738 0.149123 0)
(4.99582 0.112617 0)
(5.01933 0.0926017 0)
(5.03603 0.0999178 0)
(5.04678 0.123333 0)
(5.05302 0.144017 0)
(5.05704 0.150691 0)
(5.06128 0.143803 0)
(5.06628 0.131239 0)
(5.07181 0.121416 0)
(5.07736 0.119589 0)
(5.08362 0.125428 0)
(5.09042 0.136079 0)
(5.09911 0.147138 0)
(5.10823 0.155733 0)
(5.10907 0.290506 0)
(5.09942 0.257234 0)
(5.08758 0.198533 0)
(5.07051 0.128952 0)
(5.05094 0.0879113 0)
(5.0361 0.0796032 0)
(5.03396 0.0913073 0)
(5.04611 0.108276 0)
(5.06725 0.120979 0)
(5.09021 0.126884 0)
(5.10893 0.127889 0)
(5.12088 0.127545 0)
(5.12764 0.128227 0)
(5.13246 0.130574 0)
(5.13898 0.133722 0)
(5.14835 0.13658 0)
(5.16162 0.138194 0)
(5.17648 0.13851 0)
(5.03287 0.251295 0)
(5.08674 0.246693 0)
(5.11147 0.224476 0)
(5.10282 0.193011 0)
(5.08088 0.158752 0)
(5.06641 0.121588 0)
(5.06692 0.0882568 0)
(5.075 0.0682232 0)
(5.08364 0.06455 0)
(5.09085 0.0723978 0)
(5.09753 0.0839993 0)
(5.10569 0.0930431 0)
(5.11774 0.0968208 0)
(5.13469 0.0954335 0)
(5.15691 0.0908449 0)
(5.18252 0.0858645 0)
(5.21013 0.0819619 0)
(5.23634 0.0817711 0)
(5.01728 0.228859 0)
(5.02616 0.191432 0)
(5.03552 0.211881 0)
(5.06034 0.186094 0)
(5.09428 0.139554 0)
(5.12191 0.0991636 0)
(5.13712 0.0765023 0)
(5.14149 0.0735726 0)
(5.14165 0.0827071 0)
(5.1454 0.092602 0)
(5.15731 0.0952429 0)
(5.17694 0.0881076 0)
(5.20087 0.0730975 0)
(5.22488 0.0543783 0)
(5.24551 0.0366584 0)
(5.26096 0.0241209 0)
(5.27119 0.0185407 0)
(5.27692 0.021653 0)
(5.04726 0.29 0)
(5.0444 0.233241 0)
(5.07039 0.181594 0)
(5.07835 0.132457 0)
(5.08928 0.100996 0)
(5.09952 0.0832306 0)
(5.11186 0.075187 0)
(5.12776 0.072515 0)
(5.14666 0.069124 0)
(5.16931 0.0612994 0)
(5.19592 0.049833 0)
(5.22398 0.0384085 0)
(5.25006 0.0306747 0)
(5.271 0.0288452 0)
(5.28572 0.0329447 0)
(5.29484 0.0414849 0)
(5.30065 0.052103 0)
(5.30592 0.0624472 0)
(5.02494 0.289887 0)
(5.06418 0.204852 0)
(5.11832 0.178261 0)
(5.14737 0.153617 0)
(5.16642 0.108031 0)
(5.17889 0.0631735 0)
(5.19604 0.0363062 0)
(5.22172 0.0271165 0)
(5.25132 0.0264026 0)
(5.27955 0.0253798 0)
(5.30285 0.0203359 0)
(5.3191 0.0125297 0)
(5.32857 0.00525746 0)
(5.33336 0.00116948 0)
(5.33664 0.000156179 0)
(5.34103 0.00131794 0)
(5.34825 0.00228339 0)
(5.35909 0.00229616 0)
(5.01307 0.233384 0)
(5.04646 0.162763 0)
(5.1107 0.133685 0)
(5.17234 0.122817 0)
(5.20994 0.0996993 0)
(5.21846 0.0705257 0)
(5.2206 0.0454203 0)
(5.23085 0.0289173 0)
(5.24913 0.0200582 0)
(5.272 0.0154682 0)
(5.29694 0.0135062 0)
(5.32158 0.0137591 0)
(5.34341 0.0159251 0)
(5.36098 0.0195476 0)
(5.37435 0.0232736 0)
(5.38428 0.02595 0)
(5.39235 0.0265915 0)
(5.39987 0.0250828 0)
(5.00396 0.170028 0)
(4.99821 0.133115 0)
(5.04165 0.0918122 0)
(5.12902 0.0793494 0)
(5.20987 0.0644856 0)
(5.25869 0.0384354 0)
(5.28394 0.0131362 0)
(5.29802 -0.00343257 0)
(5.30687 -0.0121995 0)
(5.31556 -0.0191104 0)
(5.32827 -0.0266649 0)
(5.34603 -0.0323569 0)
(5.36822 -0.0332758 0)
(5.39332 -0.0290602 0)
(5.41944 -0.0224012 0)
(5.44372 -0.0165616 0)
(5.46513 -0.0139868 0)
(5.48074 -0.0154507 0)
(4.99199 0.2015 0)
(5.05699 0.134601 0)
(5.15066 0.0786897 0)
(5.23313 0.0533431 0)
(5.30305 0.0402997 0)
(5.34796 0.030491 0)
(5.37016 0.022938 0)
(5.3819 0.0157672 0)
(5.3915 0.00761778 0)
(5.40168 -0.00104713 0)
(5.41427 -0.0105394 0)
(5.43019 -0.0194888 0)
(5.44938 -0.0255566 0)
(5.47152 -0.0272509 0)
(5.49584 -0.0245962 0)
(5.52002 -0.0189211 0)
(5.54246 -0.0119079 0)
(5.56019 -0.00539692 0)
(5.04622 0.188736 0)
(5.18289 0.0472072 0)
(5.31135 0.00746096 0)
(5.35861 -0.000711286 0)
(5.37378 -0.00950128 0)
(5.39086 -0.0136831 0)
(5.4158 -0.0134282 0)
(5.44578 -0.0151229 0)
(5.47619 -0.023039 0)
(5.50297 -0.035346 0)
(5.52405 -0.0485097 0)
(5.53943 -0.0595969 0)
(5.55027 -0.0661889 0)
(5.55805 -0.0672914 0)
(5.56415 -0.0636568 0)
(5.56947 -0.0572421 0)
(5.57466 -0.0498739 0)
(5.58065 -0.0434305 0)
(4.99711 0.19733 0)
(5.20864 0.057687 0)
(5.34039 0.0371963 0)
(5.40794 0.0317321 0)
(5.45206 0.0189369 0)
(5.49012 0.00513921 0)
(5.52664 -0.00497891 0)
(5.56222 -0.0130168 0)
(5.59215 -0.0200609 0)
(5.61008 -0.0263431 0)
(5.61409 -0.0316094 0)
(5.6084 -0.0357102 0)
(5.59986 -0.0378423 0)
(5.594 -0.0369241 0)
(5.59358 -0.0328365 0)
(5.59866 -0.0269938 0)
(5.60828 -0.0212066 0)
(5.62107 -0.0178669 0)
(5.09174 -0.0100556 0)
(5.27983 -0.0556025 0)
(5.37017 -0.037903 0)
(5.41774 -0.0474196 0)
(5.46233 -0.0526395 0)
(5.50292 -0.050022 0)
(5.53749 -0.0474786 0)
(5.56482 -0.0478824 0)
(5.5808 -0.0489434 0)
(5.58337 -0.0494 0)
(5.57543 -0.0503653 0)
(5.56309 -0.0535531 0)
(5.55073 -0.0587491 0)
(5.54047 -0.0639241 0)
(5.53176 -0.0668375 0)
(5.52432 -0.0669093 0)
(5.5164 -0.0647173 0)
(5.50865 -0.0618718 0)
(4.94849 0.0927606 0)
(5.12361 0.0190467 0)
(5.11587 0.00355393 0)
(4.99065 -0.0123337 0)
(4.85434 -0.0206377 0)
(4.73501 -0.0239784 0)
(4.62425 -0.0267566 0)
(4.51464 -0.0278338 0)
(4.4087 -0.0258945 0)
(4.31076 -0.0229992 0)
(4.21926 -0.0221349 0)
(4.12802 -0.0239974 0)
(4.03163 -0.0265043 0)
(3.931 -0.026912 0)
(3.83121 -0.0241318 0)
(3.73948 -0.0192293 0)
(3.65795 -0.0139948 0)
(3.58926 -0.0106772 0)
(-0.0596884 0.149913 9.83086e-21)
(-0.227285 0.132454 -9.75401e-21)
(-0.309512 0.0548614 0)
(-0.265252 -0.0606203 0)
(-0.160396 -0.110337 0)
(-0.0228243 -0.118971 9.50926e-21)
(0.100705 -0.091104 0)
(0.189068 -0.036087 0)
(0.222825 0.0410058 0)
(0.189233 0.114304 0)
(0.0941776 0.0953931 -9.1746e-21)
(-0.00968986 -0.0174727 0)
(-0.0818256 -0.0495053 0)
(-0.125297 0.0117569 0)
(-0.170138 0.0533019 0)
(-0.239832 0.0660808 -8.7939e-21)
(-0.309288 0.0626978 0)
(-0.35103 0.0317644 0)
(-0.361755 -0.017265 0)
(-0.346443 -0.066607 0)
(-0.327491 -0.0960617 0)
(-0.328401 -0.0930866 0)
(-0.353415 -0.0665478 0)
(-0.403471 -0.0542909 -8.12298e-21)
(-0.487645 -0.0602873 8.02856e-21)
(-0.616812 0.00596606 -7.93305e-21)
(-0.812989 0.16052 -7.83792e-21)
(-1.081 0.252908 0)
(-1.37372 0.257184 0)
(-1.66573 0.272079 7.52372e-21)
(-1.96153 0.282011 7.40682e-21)
(-2.24822 0.272562 0)
(-2.51812 0.257738 0)
(-2.76673 0.233445 7.03826e-21)
(-2.98955 0.209732 0)
(-3.18656 0.18352 0)
(-3.3547 0.154976 -6.68597e-21)
(-3.49436 0.129099 0)
(-3.60606 0.101588 -6.48397e-21)
(-3.68878 0.0738279 -1.27931e-20)
(-3.74321 0.0477286 0)
(-3.76932 0.0224138 0)
(-3.76709 -0.00154879 0)
(-3.73998 -0.0240108 0)
(-3.68827 -0.0455446 0)
(-3.61367 -0.0661108 -1.21826e-20)
(-3.51759 -0.085441 -1.21527e-20)
(-3.40223 -0.102899 -1.21405e-20)
(-3.26935 -0.11775 0)
(-3.12117 -0.129383 1.21621e-20)
(-2.9598 -0.137022 0)
(-2.78738 -0.14013 -1.2231e-20)
(-2.60584 -0.139288 -1.22766e-20)
(-2.41598 -0.136764 0)
(-2.21452 -0.135906 0)
(-1.99417 -0.140069 0)
(-1.74944 -0.152276 -1.24701e-20)
(-1.48056 -0.172687 0)
(-1.1897 -0.194614 0)
(-0.877837 -0.207102 0)
(-0.554787 -0.210341 0)
(-0.223298 -0.21846 0)
(0.121377 -0.219455 0)
(0.467892 -0.193126 0)
(0.797392 -0.145624 0)
(1.07566 -0.156009 1.22049e-20)
(1.37493 -0.19049 0)
(1.69587 0.0450415 0)
(1.5796 0.375318 -1.18187e-20)
(1.09508 0.265198 -1.17308e-20)
(0.77349 0.0625953 0)
(0.579139 0.137912 1.15378e-20)
(0.384908 0.141301 -1.14325e-20)
(0.232813 0.0712024 0)
(-0.0109773 0.0890406 1.11908e-20)
(-0.241147 0.0165928 0)
(-0.161723 -0.213106 0)
(0.314184 -0.402507 -1.08748e-20)
(1.01825 -0.436705 0)
(1.64348 -0.327499 1.05279e-20)
(2.10489 -0.0876256 0)
(2.16462 0.175668 -1.01312e-20)
(1.73445 0.275631 -1.00216e-20)
(1.23747 0.201298 -9.91909e-21)
(1.02619 0.053221 -1.96305e-20)
(1.04826 -0.113913 1.94518e-20)
(1.13861 -0.263527 0)
(1.16736 -0.261134 0)
(0.936695 0.0065307 0)
(0.31999 0.322139 1.85202e-20)
(-0.461523 0.428456 1.81751e-20)
(-1.21106 0.415441 -1.7683e-20)
(-1.8772 0.368192 0)
(-2.4497 0.313984 1.64836e-20)
(-2.9339 0.262846 1.58631e-20)
(-3.34043 0.218054 1.52646e-20)
(-3.68029 0.180213 0)
(-3.9635 0.148696 0)
(-4.19808 0.122117 0)
(-4.3899 0.0992558 1.32864e-20)
(-4.54338 0.0793079 0)
(-4.66177 0.0614285 0)
(-4.74714 0.0448769 -1.233e-20)
(-4.80066 0.0296562 0)
(-4.82357 0.0156147 0)
(-4.81702 0.00219671 -1.18473e-20)
(-4.78413 -0.0100338 0)
(-4.72478 -0.0216333 0)
(-4.6397 -0.0328411 1.17889e-20)
(-4.52891 -0.0438815 1.18465e-20)
(-4.39194 -0.0549667 0)
(-4.22776 -0.0663281 -1.20526e-20)
(-4.03501 -0.0780442 0)
(-3.81248 -0.0899869 1.23538e-20)
(-3.55948 -0.101818 0)
(-3.2763 -0.112952 1.271e-20)
(-2.96464 -0.122615 1.28906e-20)
(-2.62832 -0.130003 0)
(-2.27427 -0.134395 0)
(-1.91175 -0.135047 0)
(-1.55006 -0.131866 0)
(-1.19702 -0.125563 0)
(-0.859849 -0.117003 0)
(-0.544657 -0.106822 0)
(-0.253691 -0.0956927 1.32761e-20)
(0.0127131 -0.0872922 -1.31585e-20)
(0.25502 -0.0780887 0)
(0.475681 -0.0693551 0)
(0.675705 -0.0611681 0)
(0.85602 -0.0534801 0)
(1.01764 -0.046304 -2.45372e-20)
(1.16171 -0.0396836 0)
(1.28946 -0.0336322 2.36851e-20)
(1.40214 -0.0281226 -2.32486e-20)
(1.50084 -0.023045 0)
(1.58632 -0.018267 0)
(1.65916 -0.0138056 0)
(1.71982 -0.00951338 2.15108e-20)
(1.76828 -0.00520493 2.10922e-20)
(1.80475 -0.00113127 0)
(1.82961 0.00298835 2.02906e-20)
(1.84241 0.00730423 1.99114e-20)
(1.84426 0.0114374 -1.95479e-20)
(1.83474 0.0154906 0)
(1.81366 0.0199367 0)
(1.78034 0.0253606 -1.85583e-20)
(1.73298 0.0319777 0)
(1.66998 0.0387655 0)
(1.59125 0.044174 0)
(1.49797 0.0479016 0)
(1.39135 0.0505519 1.71885e-20)
(1.27352 0.0510591 1.69398e-20)
(1.15032 0.046607 0)
(1.03201 0.0366344 1.64488e-20)
(0.929988 0.023675 0)
(0.851321 0.0113433 0)
(0.797141 0.00219946 1.57349e-20)
(0.764126 -0.00326138 0)
(0.746418 -0.00582223 1.52755e-20)
(0.738115 -0.00653043 0)
(0.734654 -0.00621367 0)
(0.733212 -0.0054185 1.45784e-20)
(0.732197 -0.00442702 0)
(0.73114 -0.00342632 1.41024e-20)
(0.729727 -0.0024906 0)
(0.728297 -0.00167469 0)
(0.726377 -0.000969121 0)
(0.724553 -0.0003924 -1.31384e-20)
(0.72157 0.000154617 0)
(0.718611 0.000655942 1.26564e-20)
(0.713206 0.00126992 0)
(0.707859 0.00187375 0)
(0.698321 0.00279888 0)
(0.688493 0.00356155 0)
(0.673413 0.00524203 0)
(0.653227 0.00583631 0)
(0.635463 0.00977512 0)
(0.582876 0.00798952 -2.15291e-20)
(0.587324 0.0200499 0)
(0.433993 0.0082823 0)
(-0.0194421 0.430109 -2.94448e-20)
(-0.155161 0.380919 2.9222e-20)
(-0.134116 0.0494118 0)
(-0.0220184 -0.253279 -1.92067e-20)
(0.139604 -0.398841 0)
(0.297854 -0.41327 -9.49836e-21)
(0.429134 -0.333038 1.88348e-20)
(0.52371 -0.193752 1.87043e-20)
(0.570831 -0.0274662 0)
(0.571735 0.149492 1.84349e-20)
(0.514128 0.304291 9.1616e-21)
(0.378828 0.375191 0)
(0.155688 0.294248 0)
(-0.0597977 0.159053 0)
(-0.197047 0.170567 0)
(-0.299732 0.204145 8.79142e-21)
(-0.3782 0.152173 0)
(-0.435224 0.0746696 -1.72685e-20)
(-0.481833 0.0125399 0)
(-0.543698 0.0024424 0)
(-0.651129 0.0696315 1.67808e-20)
(-0.803115 0.150359 0)
(-0.973775 0.19839 -1.64228e-20)
(-1.17344 0.289898 8.10383e-21)
(-1.44204 0.454588 -8.00548e-21)
(-1.73282 0.589469 7.90709e-21)
(-1.97352 0.655961 7.81097e-21)
(-2.20469 0.696131 0)
(-2.44467 0.709316 0)
(-2.6658 0.698311 -7.50089e-21)
(-2.87243 0.671159 7.29627e-21)
(-3.06162 0.628229 0)
(-3.23101 0.574535 0)
(-3.38459 0.515519 -7.02499e-21)
(-3.51953 0.452679 0)
(-3.63768 0.387223 0)
(-3.74125 0.322234 6.6783e-21)
(-3.82934 0.25825 0)
(-3.90259 0.194992 -6.39278e-21)
(-3.9616 0.133412 1.2784e-20)
(-4.00604 0.0739756 0)
(-4.03589 0.0170572 0)
(-4.05061 -0.0369805 2.46111e-20)
(-4.04704 -0.0882578 2.44287e-20)
(-4.02535 -0.136301 2.42885e-20)
(-3.98429 -0.180742 -1.20178e-20)
(-3.92357 -0.221098 1.21403e-20)
(-3.84267 -0.25696 3.62332e-20)
(-3.7419 -0.288128 -2.41164e-20)
(-3.62094 -0.314809 -1.21462e-20)
(-3.4794 -0.337837 0)
(-3.31737 -0.359136 1.22136e-20)
(-3.13583 -0.381738 -1.21419e-20)
(-2.93505 -0.408944 0)
(-2.71409 -0.44306 0)
(-2.47396 -0.484597 0)
(-2.22115 -0.531284 1.24524e-20)
(-1.96287 -0.57635 0)
(-1.69823 -0.6105 -2.49048e-20)
(-1.41755 -0.62944 0)
(-1.11906 -0.643416 -2.49278e-20)
(-0.813617 -0.666485 0)
(-0.489308 -0.676337 2.48269e-20)
(-0.146104 -0.65723 0)
(0.222238 -0.622429 -2.45612e-20)
(0.59152 -0.607109 1.2133e-20)
(0.903603 -0.558193 0)
(1.24948 -0.261819 2.37819e-20)
(1.59285 0.284915 1.18177e-20)
(1.66811 0.643598 1.17166e-20)
(1.40869 0.573335 0)
(1.07162 0.33151 1.15011e-20)
(0.943897 0.259043 1.14186e-20)
(0.821274 0.361067 0)
(0.521223 0.425177 -1.11792e-20)
(0.279811 0.166385 2.20244e-20)
(0.243639 -0.430465 0)
(0.466998 -1.01189 1.08631e-20)
(0.93701 -1.16202 0)
(1.4005 -0.904142 -3.13958e-20)
(1.74111 -0.412375 0)
(1.98486 0.202013 3.02445e-20)
(1.95813 0.627713 1.00144e-20)
(1.85032 0.574466 -9.85117e-21)
(1.80085 0.177837 -1.96113e-20)
(1.5843 -0.0560816 1.94464e-20)
(1.00937 0.129624 0)
(0.165136 0.550183 0)
(-0.684411 0.91355 0)
(-1.44012 1.088 -5.50917e-20)
(-2.0702 1.0719 -1.81137e-20)
(-2.58621 0.967061 1.76309e-20)
(-3.01446 0.833727 0)
(-3.36978 0.702327 1.60217e-20)
(-3.66624 0.58483 -1.58378e-20)
(-3.91466 0.484171 -1.52454e-20)
(-4.12323 0.399414 0)
(-4.29773 0.327872 0)
(-4.44216 0.26639 0)
(-4.55934 0.212317 -1.32813e-20)
(-4.651 0.163675 0)
(-4.71798 0.11888 2.50455e-20)
(-4.76074 0.0767362 3.68552e-20)
(-4.77974 0.0367027 -2.41108e-20)
(-4.77504 -0.0014469 0)
(-4.74678 -0.0380762 -1.1739e-20)
(-4.6929 -0.0729412 0)
(-4.61462 -0.106367 -2.3441e-20)
(-4.5121 -0.138663 1.17005e-20)
(-4.38544 -0.170345 1.1762e-20)
(-4.2341 -0.202075 0)
(-4.05688 -0.234485 3.60759e-20)
(-3.85223 -0.267874 -2.43031e-20)
(-3.61859 -0.301992 -1.23536e-20)
(-3.35491 -0.335923 0)
(-3.06105 -0.368057 -1.27092e-20)
(-2.73838 -0.396164 -3.85885e-20)
(-2.39064 -0.417659 0)
(-2.02471 -0.43003 -2.63466e-20)
(-1.65022 -0.431087 -2.65852e-20)
(-1.27747 -0.420423 -2.67433e-20)
(-0.914864 -0.40034 0)
(-0.569975 -0.37352 0)
(-0.249385 -0.342399 0)
(0.0452511 -0.312956 1.3253e-20)
(0.313189 -0.284879 1.31524e-20)
(0.557085 -0.258333 0)
(0.778785 -0.233307 2.56685e-20)
(0.979482 -0.209834 2.53087e-20)
(1.1604 -0.187873 0)
(1.32282 -0.16745 2.45258e-20)
(1.46811 -0.148638 4.81972e-20)
(1.59771 -0.13144 -2.36751e-20)
(1.71306 -0.115722 -2.32262e-20)
(1.81535 -0.101193 0)
(1.90553 -0.087532 0)
(1.98442 -0.0745126 0)
(2.05229 -0.0619296 -2.1503e-20)
(2.10958 -0.0497114 2.10675e-20)
(2.15686 -0.0380032 4.13366e-20)
(2.19389 -0.0267924 -2.02835e-20)
(2.22156 -0.01619 1.98844e-20)
(2.2398 -0.00643081 1.9541e-20)
(2.24937 0.00304386 0)
(2.25168 0.0130395 0)
(2.24919 0.0234147 -1.85303e-20)
(2.24417 0.0341767 0)
(2.23792 0.0454524 0)
(2.22992 0.0569502 3.53681e-20)
(2.21781 0.0680513 0)
(2.19848 0.0779899 1.7161e-20)
(2.16971 0.0857575 -1.69247e-20)
(2.13132 0.0895752 0)
(2.08467 0.0869417 1.64312e-20)
(2.03265 0.076855 0)
(1.97955 0.0612053 0)
(1.92997 0.0440153 -1.57184e-20)
(1.88758 0.0289541 3.09863e-20)
(1.85361 0.017971 -1.52604e-20)
(1.82708 0.0111614 0)
(1.80579 0.00752009 0)
(1.78754 0.00573239 1.45689e-20)
(1.77068 0.004709 0)
(1.75472 0.00393979 1.40925e-20)
(1.73957 0.00323363 0)
(1.72587 0.00256436 0)
(1.71355 0.00209483 0)
(1.70318 0.00185326 1.3128e-20)
(1.69377 0.00205406 0)
(1.68585 0.00243327 -1.26467e-20)
(1.6776 0.0034219 0)
(1.67012 0.0042029 0)
(1.66117 0.0061829 2.38565e-20)
(1.65165 0.00706657 -2.3381e-20)
(1.64114 0.0111007 0)
(1.62471 0.0114599 0)
(1.61494 0.0203996 0)
(1.57724 0.0178726 6.45304e-20)
(1.58163 0.0386608 0)
(1.48316 0.0286631 -4.11927e-20)
(-0.021126 0.503895 2.89773e-23)
(-0.0110651 0.382839 -3.89127e-20)
(0.204782 -0.197539 0)
(0.421167 -0.610212 3.83076e-20)
(0.610638 -0.767954 0)
(0.751926 -0.729354 0)
(0.849261 -0.56244 -1.00582e-22)
(0.906814 -0.321831 -1.86795e-20)
(0.928115 -0.0470788 -1.84444e-20)
(0.912195 0.227703 -1.8414e-20)
(0.852241 0.478466 0)
(0.74403 0.685905 0)
(0.564302 0.780733 1.79548e-20)
(0.300219 0.692168 3.56889e-20)
(0.020913 0.518383 -3.54421e-20)
(-0.170642 0.408839 0)
(-0.298957 0.325564 -3.48386e-20)
(-0.408291 0.233476 1.72658e-20)
(-0.516262 0.191768 0)
(-0.652089 0.250186 -3.38946e-20)
(-0.834092 0.380017 -1.67659e-20)
(-1.04402 0.500104 3.31891e-20)
(-1.28005 0.613072 1.64002e-20)
(-1.55175 0.764321 0)
(-1.82313 0.903758 -3.19467e-20)
(-2.06202 0.975762 -3.14942e-20)
(-2.27247 1.01475 0)
(-2.47137 1.03902 -3.05621e-20)
(-2.6557 1.02814 0)
(-2.82426 0.991765 -2.95988e-20)
(-2.98603 0.941572 -1.4672e-20)
(-3.13955 0.876304 0)
(-3.28696 0.802767 0)
(-3.43015 0.725695 0)
(-3.56625 0.645645 0)
(-3.69501 0.565157 0)
(-3.81502 0.485413 0)
(-3.92379 0.406234 -2.58463e-20)
(-4.0199 0.327598 3.83327e-20)
(-4.10122 0.249069 0)
(-4.1656 0.170106 0)
(-4.21159 0.0906091 0)
(-4.23848 0.0107538 -2.61596e-22)
(-4.24509 -0.0691184 -2.44175e-20)
(-4.23067 -0.147742 -4.82987e-20)
(-4.19482 -0.224496 4.81037e-20)
(-4.13695 -0.298778 2.3873e-20)
(-4.05638 -0.370218 -2.40904e-20)
(-3.95244 -0.438387 2.27964e-22)
(-3.82461 -0.502758 -2.39185e-20)
(-3.67313 -0.563027 0)
(-3.49948 -0.619268 -2.4084e-20)
(-3.30616 -0.671715 1.92378e-22)
(-3.09616 -0.720495 0)
(-2.87302 -0.766 0)
(-2.64209 -0.809562 2.45134e-20)
(-2.41 -0.852537 0)
(-2.18072 -0.894563 0)
(-1.95068 -0.933924 -2.45371e-20)
(-1.71217 -0.970842 -4.94592e-20)
(-1.46434 -1.01013 2.48974e-20)
(-1.21047 -1.05191 0)
(-0.946381 -1.08707 -2.47901e-20)
(-0.660712 -1.09917 0)
(-0.351608 -1.08376 -2.42827e-20)
(-0.0270664 -1.04862 -2.43473e-20)
(0.270105 -0.97755 4.80174e-20)
(0.589622 -0.704696 2.37068e-20)
(1.03048 -0.118148 0)
(1.42979 0.498531 -4.66648e-20)
(1.54213 0.759049 0)
(1.36654 0.644406 -6.89906e-20)
(1.17277 0.458705 -4.56015e-20)
(1.07954 0.529638 -4.51577e-20)
(0.910911 0.677752 4.46248e-20)
(0.739463 0.394158 -6.60296e-20)
(0.624776 -0.349394 0)
(0.551598 -1.19287 0)
(0.698518 -1.52719 4.24221e-20)
(0.956002 -1.22386 6.24644e-20)
(1.14757 -0.652077 0)
(1.33033 -0.0166999 -2.01336e-20)
(1.48738 0.374647 0)
(1.5313 0.388748 5.91559e-20)
(1.21385 0.409003 1.17054e-22)
(0.479998 0.72761 -1.35878e-22)
(-0.378189 1.1327 -3.82937e-20)
(-1.14645 1.44088 0)
(-1.74951 1.6072 3.68606e-20)
(-2.19228 1.61397 5.23583e-22)
(-2.51813 1.49663 0)
(-2.77975 1.31836 0)
(-3.00859 1.12862 0)
(-3.21926 0.952692 -3.24658e-20)
(-3.41621 0.799467 0)
(-3.59917 0.669075 0)
(-3.76629 0.558328 0)
(-3.91549 0.463072 0)
(-4.0452 0.379384 0)
(-4.15435 0.304071 -2.6179e-20)
(-4.24204 0.234571 0)
(-4.30736 0.168998 -2.50583e-20)
(-4.34957 0.106178 -2.45388e-20)
(-4.36808 0.0453586 2.41246e-20)
(-4.3626 -0.0137524 0)
(-4.33285 -0.071167 2.35995e-20)
(-4.27925 -0.126884 0)
(-4.20247 -0.180624 2.34511e-20)
(-4.10324 -0.232633 -2.34995e-20)
(-3.98196 -0.283623 -7.05912e-20)
(-3.83819 -0.334771 0)
(-3.67055 -0.387308 -7.18326e-20)
(-3.47696 -0.441962 -2.40488e-20)
(-3.25508 -0.498506 0)
(-3.00287 -0.555529 -4.96735e-20)
(-2.71898 -0.610453 -5.03992e-20)
(-2.40347 -0.659534 7.68323e-20)
(-2.0589 -0.697964 0)
(-1.69128 -0.72061 2.63451e-20)
(-1.31041 -0.723443 2.65837e-20)
(-0.928088 -0.705167 8.00614e-20)
(-0.554268 -0.669514 0)
(-0.19818 -0.62137 0)
(0.130914 -0.568561 0)
(0.432256 -0.516588 2.64213e-20)
(0.707098 -0.466638 0)
(0.95552 -0.419732 0)
(1.17913 -0.376214 -2.56499e-20)
(1.37897 -0.335808 -2.52913e-20)
(1.5559 -0.298323 0)
(1.71103 -0.263828 0)
(1.84588 -0.232465 -4.81692e-20)
(1.96225 -0.20421 0)
(2.06202 -0.178765 4.64419e-20)
(2.14678 -0.155582 4.55417e-20)
(2.21781 -0.134098 0)
(2.27604 -0.113874 0)
(2.32222 -0.0945513 -4.29466e-20)
(2.35726 -0.0759424 -3.01951e-23)
(2.38228 -0.0578891 -3.18639e-23)
(2.39852 -0.0401883 0)
(2.4072 -0.0229351 -7.95269e-20)
(2.40987 -0.00653242 0)
(2.40782 0.00836938 0)
(2.40053 0.0204597 0)
(2.38686 0.0299827 3.70745e-20)
(2.36843 0.0382177 0)
(2.35028 0.0464798 -7.17631e-20)
(2.33837 0.0554406 -3.53637e-20)
(2.33629 0.0655508 0)
(2.34349 0.0768628 -3.43303e-20)
(2.35601 0.0879935 0)
(2.36763 0.0958249 0)
(2.37184 0.0963174 -9.85627e-20)
(2.36479 0.0879974 6.47602e-20)
(2.34631 0.0730447 0)
(2.31907 0.0556164 6.28936e-20)
(2.28744 0.0394227 -3.09736e-20)
(2.25578 0.0267213 0)
(2.22707 0.0182391 0)
(2.20255 0.013512 0)
(2.18211 0.0114595 -8.73801e-20)
(2.16498 0.010874 0)
(2.15022 0.0107294 -2.81722e-20)
(2.13692 0.0104007 0)
(2.12454 0.00965857 0)
(2.11273 0.00869717 0)
(2.10134 0.00766859 0)
(2.09026 0.00704515 0)
(2.07948 0.00665637 0)
(2.06918 0.00718884 -4.96094e-20)
(2.05902 0.00764291 0)
(2.04986 0.00976656 -2.38485e-20)
(2.03979 0.0107142 7.01161e-20)
(2.03233 0.0154486 0)
(2.02013 0.0162382 0)
(2.01598 0.0264407 -4.39184e-20)
(1.99558 0.0255059 -4.30023e-20)
(1.99991 0.0474226 4.20717e-20)
(1.95776 0.0426007 4.11771e-20)
(-0.0373573 0.512235 5.87217e-20)
(0.228317 -0.0960218 5.82727e-20)
(0.55374 -0.780393 3.84535e-20)
(0.792016 -1.10955 1.89781e-20)
(0.936067 -1.13247 0)
(1.01318 -0.967093 -3.74032e-20)
(1.04678 -0.701105 1.84139e-20)
(1.05145 -0.386168 0)
(1.03529 -0.0512739 1.84386e-20)
(0.996437 0.287398 0)
(0.933646 0.607002 -3.60738e-20)
(0.84344 0.892038 0)
(0.719004 1.11042 -1.79369e-20)
(0.527967 1.16708 -3.56421e-20)
(0.261541 1.03069 3.54025e-20)
(0.0101569 0.805027 0)
(-0.191751 0.616643 3.48348e-20)
(-0.350054 0.486476 0)
(-0.501212 0.467005 0)
(-0.678326 0.587545 3.38758e-20)
(-0.900172 0.778246 0)
(-1.14453 0.942096 -6.16663e-23)
(-1.39851 1.08203 0)
(-1.66008 1.22105 0)
(-1.89196 1.30537 1.34384e-22)
(-2.09233 1.32997 3.14743e-20)
(-2.28419 1.3439 3.08339e-20)
(-2.47101 1.34626 3.05477e-20)
(-2.6494 1.3183 0)
(-2.82553 1.27371 5.89125e-20)
(-3.0008 1.21684 0)
(-3.17186 1.14512 2.82967e-20)
(-3.33871 1.06453 0)
(-3.49785 0.975975 0)
(-3.64577 0.880576 -2.67953e-20)
(-3.78064 0.781038 0)
(-3.8998 0.677847 2.58842e-20)
(-4.00186 0.571894 3.64701e-22)
(-4.08612 0.463783 -5.0551e-20)
(-4.15199 0.353836 4.95049e-20)
(-4.19932 0.242727 0)
(-4.22855 0.130913 0)
(-4.24046 0.0193576 2.36355e-20)
(-4.23492 -0.0900134 0)
(-4.2115 -0.198308 2.4022e-20)
(-4.17043 -0.304908 -2.39266e-20)
(-4.11095 -0.409362 -2.38706e-20)
(-4.03218 -0.510884 0)
(-3.93286 -0.608548 2.38666e-20)
(-3.81164 -0.701388 2.3912e-20)
(-3.6675 -0.788501 -4.7384e-20)
(-3.5001 -0.868941 2.40745e-20)
(-3.30998 -0.941513 2.41789e-20)
(-3.09909 -1.00508 0)
(-2.87161 -1.05945 0)
(-2.63446 -1.10593 -2.45017e-20)
(-2.39592 -1.14686 0)
(-2.16232 -1.18434 0)
(-1.93591 -1.21964 4.93949e-20)
(-1.71712 -1.2546 4.9436e-20)
(-1.50616 -1.29228 0)
(-1.302 -1.33386 0)
(-1.10223 -1.37715 0)
(-0.897344 -1.41046 0)
(-0.676638 -1.41776 4.87663e-20)
(-0.438178 -1.39065 -4.81997e-20)
(-0.198482 -1.32667 -4.80012e-20)
(0.0491284 -1.14323 -9.49803e-20)
(0.426449 -0.678264 0)
(0.94247 0.0275553 -2.32234e-23)
(1.37104 0.619376 0)
(1.48081 0.79341 4.59727e-20)
(1.33643 0.631606 -5.68581e-23)
(1.19886 0.631825 4.51367e-20)
(1.09862 0.813061 -4.46001e-20)
(0.992416 0.575871 -8.15645e-23)
(0.801902 -0.163039 0)
(0.510354 -1.10216 -4.30866e-20)
(0.367096 -1.6042 -4.24401e-20)
(0.41374 -1.34799 -8.34323e-20)
(0.470435 -0.754341 0)
(0.530264 -0.118417 4.03703e-20)
(0.532791 0.400849 0)
(0.327013 0.78915 -7.88935e-20)
(-0.150078 1.16512 3.9149e-20)
(-0.753779 1.53347 -3.87393e-20)
(-1.31992 1.81967 3.82017e-20)
(-1.75883 1.97053 7.43636e-20)
(-2.0643 1.98177 -3.68205e-20)
(-2.27257 1.87639 3.60028e-20)
(-2.43632 1.70244 0)
(-2.59198 1.50423 -6.70847e-20)
(-2.75344 1.30968 0)
(-2.92154 1.13097 -6.29746e-20)
(-3.09091 0.971258 6.09111e-20)