/*--------------------------------*- C++ -*----------------------------------*\
  =========                 |
  \\      /  F ield         | OpenFOAM: The Open Source CFD Toolbox
   \\    /   O peration     | Website:  https://openfoam.org
    \\  /    A nd           | Version:  7
     \\/     M anipulation  |
\*---------------------------------------------------------------------------*/
FoamFile
{
    version     2.0;
    format      ascii;
    class       volScalarField;
    location    "0.062";
    object      k;
}
// * * * * * * * * * * * * * * * * * * * * * * * * * * * * * * * * * * * * * //

dimensions      [0 2 -2 0 0 0 0];

internalField   nonuniform List<scalar> 
12225
(
1.93159e-05
1.81523e-05
1.65736e-05
1.53749e-05
1.40647e-05
1.26621e-05
1.14894e-05
1.00748e-05
9.10933e-06
8.02958e-06
6.33036e-06
5.22348e-06
5.08266e-06
5.32685e-06
5.46889e-06
5.21362e-06
4.29239e-06
4.65977e-06
1.99807e-05
1.98821e-05
1.96519e-05
1.94586e-05
1.90099e-05
1.92648e-05
1.94287e-05
1.86957e-05
1.75217e-05
1.69489e-05
1.65791e-05
1.60979e-05
1.54798e-05
1.50209e-05
1.4606e-05
1.42837e-05
1.40802e-05
1.35749e-05
2.00005e-05
1.95007e-05
1.93318e-05
1.93125e-05
1.9245e-05
1.92686e-05
1.92734e-05
1.91674e-05
1.88165e-05
1.85011e-05
1.83523e-05
1.81818e-05
1.79994e-05
1.77862e-05
1.76333e-05
1.7446e-05
1.72949e-05
1.71973e-05
2.02728e-05
2.01401e-05
1.94468e-05
1.94087e-05
1.95608e-05
1.95895e-05
1.94596e-05
1.88761e-05
1.76984e-05
1.66921e-05
1.60125e-05
1.56361e-05
1.5469e-05
1.54e-05
1.53935e-05
1.54434e-05
1.56147e-05
1.58865e-05
2.19877e-05
2.14352e-05
2.2313e-05
2.73616e-05
3.13371e-05
3.17694e-05
3.04531e-05
2.65909e-05
2.32221e-05
1.97311e-05
1.71238e-05
1.5709e-05
1.48083e-05
1.39698e-05
1.31849e-05
1.26331e-05
1.23844e-05
1.23595e-05
2.05074e-05
2.07447e-05
2.18352e-05
2.57352e-05
3.103e-05
3.22256e-05
3.16162e-05
2.81121e-05
2.45378e-05
2.27926e-05
2.16329e-05
2.0854e-05
2.03754e-05
1.95912e-05
1.82525e-05
1.68829e-05
1.60369e-05
1.53939e-05
2.03875e-05
2.10164e-05
2.26091e-05
2.59171e-05
2.73837e-05
2.73181e-05
2.63716e-05
2.42831e-05
2.31624e-05
2.27905e-05
2.27612e-05
2.28246e-05
2.28302e-05
2.27817e-05
2.26207e-05
2.22454e-05
2.20692e-05
2.18111e-05
2.0185e-05
2.02895e-05
2.05019e-05
2.21037e-05
2.35131e-05
2.35269e-05
2.33197e-05
2.33895e-05
2.38598e-05
2.40465e-05
2.40319e-05
2.39292e-05
2.36038e-05
2.33012e-05
2.31437e-05
2.30917e-05
2.30922e-05
2.31315e-05
2.03539e-05
2.02788e-05
2.02878e-05
2.06367e-05
2.08919e-05
2.09558e-05
2.10756e-05
2.1608e-05
2.33223e-05
2.44832e-05
2.47819e-05
2.47791e-05
2.45706e-05
2.37968e-05
2.31313e-05
2.28285e-05
2.27594e-05
2.27865e-05
2.069e-05
2.2383e-05
2.24921e-05
2.13016e-05
2.03568e-05
2.02708e-05
2.0417e-05
2.10264e-05
2.2201e-05
2.33399e-05
2.4091e-05
2.43352e-05
2.43225e-05
2.41108e-05
2.35973e-05
2.33022e-05
2.3205e-05
2.31999e-05
2.09462e-05
2.19862e-05
2.17724e-05
2.13655e-05
2.1152e-05
2.08394e-05
2.08968e-05
2.12919e-05
2.15134e-05
2.1598e-05
2.18887e-05
2.27499e-05
2.32945e-05
2.34065e-05
2.33614e-05
2.32894e-05
2.32923e-05
2.33363e-05
2.06617e-05
2.14251e-05
2.22593e-05
2.41223e-05
2.60108e-05
2.64174e-05
2.57385e-05
2.36582e-05
2.29682e-05
2.30482e-05
2.33273e-05
2.3293e-05
2.321e-05
2.29292e-05
2.24043e-05
2.21307e-05
2.20902e-05
2.21366e-05
2.01198e-05
2.06554e-05
2.28065e-05
2.55686e-05
2.57973e-05
2.47324e-05
2.2565e-05
2.15514e-05
2.13382e-05
2.14125e-05
2.15815e-05
2.15944e-05
2.15238e-05
2.12121e-05
2.09594e-05
2.08895e-05
2.08874e-05
2.09085e-05
2.01928e-05
2.02918e-05
2.07944e-05
2.23304e-05
2.32404e-05
2.32669e-05
2.28504e-05
2.21204e-05
2.19216e-05
2.18661e-05
2.17133e-05
2.1382e-05
2.11974e-05
2.11399e-05
2.11427e-05
2.12257e-05
2.13398e-05
2.13489e-05
2.02602e-05
2.06545e-05
2.13497e-05
2.19422e-05
2.21365e-05
2.2129e-05
2.19645e-05
2.17688e-05
2.17008e-05
2.16377e-05
2.14737e-05
2.12991e-05
2.12367e-05
2.12353e-05
2.12825e-05
2.15343e-05
2.20378e-05
2.2342e-05
2.01046e-05
2.03728e-05
2.05952e-05
2.09071e-05
2.17743e-05
2.28889e-05
2.32246e-05
2.31115e-05
2.23393e-05
2.14278e-05
2.0989e-05
2.08178e-05
2.07616e-05
2.07486e-05
2.07497e-05
2.07717e-05
2.0872e-05
2.12152e-05
2.00228e-05
2.01408e-05
2.06228e-05
2.14945e-05
2.196e-05
2.20548e-05
2.19489e-05
2.13834e-05
2.07121e-05
2.04103e-05
2.03433e-05
2.03427e-05
2.03507e-05
2.03653e-05
2.03966e-05
2.04999e-05
2.05982e-05
2.06756e-05
2.0209e-05
2.02734e-05
2.04266e-05
2.06694e-05
2.07092e-05
2.06765e-05
2.0529e-05
2.03865e-05
2.03414e-05
2.03399e-05
2.03537e-05
2.04102e-05
2.04765e-05
2.05196e-05
2.0542e-05
2.05494e-05
2.05527e-05
2.0561e-05
2.13026e-05
2.08429e-05
2.10328e-05
2.16825e-05
2.18503e-05
2.17213e-05
2.11277e-05
2.06287e-05
2.04325e-05
2.04034e-05
2.04477e-05
2.05205e-05
2.06296e-05
2.09279e-05
2.12289e-05
2.14141e-05
2.15011e-05
2.15224e-05
2.07269e-05
2.06857e-05
2.0636e-05
2.08262e-05
2.10288e-05
2.10271e-05
2.1016e-05
2.09659e-05
2.0862e-05
2.08314e-05
2.08396e-05
2.09339e-05
2.11208e-05
2.11622e-05
2.11811e-05
2.12236e-05
2.13254e-05
2.14975e-05
2.00956e-05
2.01622e-05
2.0215e-05
2.03441e-05
2.06781e-05
2.09645e-05
2.11005e-05
2.11232e-05
2.1078e-05
2.10157e-05
2.11538e-05
2.14932e-05
2.14679e-05
2.11585e-05
2.08052e-05
2.07097e-05
2.07113e-05
2.07929e-05
2.0173e-05
2.03139e-05
2.05033e-05
2.0609e-05
2.06609e-05
2.06925e-05
2.07011e-05
2.06708e-05
2.0609e-05
2.06184e-05
2.08326e-05
2.19844e-05
2.32644e-05
2.36051e-05
2.35646e-05
2.32219e-05
2.24486e-05
2.19386e-05
2.0498e-05
2.03998e-05
2.03071e-05
2.02968e-05
2.0293e-05
2.03049e-05
2.03692e-05
2.04146e-05
2.04493e-05
2.05266e-05
2.08499e-05
2.23425e-05
2.37339e-05
2.39755e-05
2.38183e-05
2.30978e-05
2.24096e-05
2.20715e-05
2.00731e-05
2.05429e-05
2.06968e-05
2.07007e-05
2.05791e-05
2.0571e-05
2.06201e-05
2.05641e-05
2.04908e-05
2.04706e-05
2.04599e-05
2.04358e-05
2.03682e-05
2.0316e-05
2.02982e-05
2.03048e-05
2.03594e-05
2.05837e-05
2.02754e-05
2.05695e-05
2.05284e-05
2.04158e-05
2.02879e-05
2.03172e-05
2.05393e-05
2.07587e-05
2.07524e-05
2.07053e-05
2.06312e-05
2.04666e-05
2.03138e-05
2.02394e-05
2.02235e-05
2.02281e-05
2.02641e-05
2.04121e-05
2.08035e-05
2.11619e-05
2.06369e-05
2.03955e-05
2.0426e-05
2.04868e-05
2.06648e-05
2.11581e-05
2.13962e-05
2.14211e-05
2.1345e-05
2.10142e-05
2.07169e-05
2.05802e-05
2.05416e-05
2.05399e-05
2.0549e-05
2.05773e-05
2.04938e-05
2.03285e-05
2.01212e-05
2.00422e-05
1.99231e-05
1.96686e-05
1.95165e-05
1.94994e-05
1.95004e-05
1.9393e-05
1.92382e-05
1.92733e-05
1.94535e-05
1.97513e-05
2.03256e-05
2.11813e-05
2.24148e-05
2.28768e-05
2.0303e-05
1.80605e-05
1.22461e-05
1.27031e-05
1.48981e-05
1.81572e-05
2.11142e-05
2.67198e-05
3.60249e-05
4.64468e-05
5.49445e-05
6.00903e-05
6.28473e-05
6.50673e-05
6.9149e-05
7.79257e-05
9.38028e-05
0.000107498
3.26192e-05
0.000111026
0.000149203
0.000233231
0.00033649
0.000391233
0.000409312
0.000432993
0.000473549
0.000519343
0.000555724
0.000577024
0.000587378
0.000595749
0.000610963
0.000647408
0.000706665
0.000749811
0.0027977
0.00258697
0.00251061
0.00256684
0.00259572
0.00255092
0.00233406
0.00211282
0.00197126
0.00186327
0.00177937
0.0017223
0.00169063
0.00167639
0.00166897
0.00165875
0.00163611
0.00156943
0.000278696
0.000718025
0.00092665
0.00119191
0.00147472
0.00175469
0.00243602
0.00271133
0.00263444
0.00230098
0.00192926
0.00167485
0.00148085
0.00134312
0.00122599
0.00113438
0.00106169
0.000994202
0.000953313
0.000886261
0.000852269
0.000779391
0.000755699
0.000761755
0.000780377
0.000814156
0.000846779
0.000840042
0.000805189
0.000715056
0.000663315
0.000749618
0.00129721
0.00215407
0.00259744
0.00294817
0.00336286
0.00402012
0.0051522
0.00756713
0.0135949
0.0201994
0.0203927
0.0165948
0.0161766
0.0205699
0.0448244
0.0471226
0.0143039
0.00209842
0.000866
0.000686174
0.000732465
0.000757135
0.000775827
0.000748054
0.00067093
0.000566618
0.00048288
0.000367196
0.000292404
0.000228895
0.000169937
0.000140721
0.00010948
9.52523e-05
8.74133e-05
8.49409e-05
8.88007e-05
9.03198e-05
9.2389e-05
9.33673e-05
9.43495e-05
9.47525e-05
9.49259e-05
9.49544e-05
9.45045e-05
9.3702e-05
9.29668e-05
9.16862e-05
8.9897e-05
8.85221e-05
8.76175e-05
8.64777e-05
8.51013e-05
8.40804e-05
8.33795e-05
8.23466e-05
8.07611e-05
7.9014e-05
7.7457e-05
7.58086e-05
7.39314e-05
7.19244e-05
6.94912e-05
6.64894e-05
6.35022e-05
6.08768e-05
5.812e-05
5.51057e-05
5.24934e-05
4.97223e-05
4.70702e-05
4.45133e-05
4.20263e-05
3.96052e-05
3.72183e-05
3.48644e-05
3.25353e-05
3.02152e-05
2.78923e-05
2.55606e-05
2.3217e-05
2.08118e-05
1.83251e-05
1.58333e-05
1.34536e-05
1.13013e-05
9.43234e-06
7.81643e-06
6.41853e-06
5.22607e-06
4.21932e-06
3.3772e-06
2.6923e-06
2.1416e-06
1.70214e-06
1.35326e-06
1.07765e-06
8.61111e-07
6.91804e-07
5.59738e-07
4.5657e-07
3.75471e-07
3.11016e-07
2.59043e-07
2.16473e-07
1.81097e-07
1.5136e-07
1.26172e-07
1.04758e-07
8.6541e-08
7.10734e-08
5.79901e-08
4.69815e-08
3.77781e-08
3.01405e-08
2.3853e-08
1.87203e-08
1.45665e-08
1.12341e-08
8.5846e-09
6.49747e-09
4.86898e-09
3.61092e-09
2.64904e-09
1.92151e-09
1.3775e-09
9.75717e-10
6.82778e-10
4.71897e-10
3.22039e-10
2.16922e-10
1.44187e-10
9.45335e-11
6.11264e-11
3.89543e-11
2.44714e-11
1.51315e-11
9.223e-12
5.51355e-12
3.26664e-12
1.8557e-12
1.10863e-12
5.35591e-13
3.33595e-13
2.81256e-12
1.22487e-09
4.96268e-07
6.68904e-07
0.000259959
0.00073177
0.00128909
0.00226413
0.00278208
0.00268402
0.00271007
0.00269967
0.00260579
0.00238007
0.00211732
0.00188271
0.00172243
0.00162301
0.00156425
0.00153235
0.00151377
0.00149997
0.00148272
0.00146415
0.00142566
0.00139303
0.00133822
0.00127498
0.00121647
0.0011445
0.00109084
0.00100367
0.000947992
0.00084862
0.000773663
0.000784058
0.000851275
0.00101794
0.0011894
0.00128978
0.00129785
0.00124049
0.00122036
0.0013514
0.00178032
0.00246496
0.00301484
0.00489076
0.0150346
0.02474
0.0210876
0.0101781
0.0027261
0.000862989
0.000522042
0.000424991
0.000387505
0.000342515
0.000308754
0.000272106
0.000243294
0.000225431
0.000215763
0.000211216
0.000210483
0.000215385
0.000218988
0.00022621
0.000229179
0.000232671
0.000234205
0.000235986
0.000236944
0.000237654
0.000238008
0.000238201
0.000238281
0.000238154
0.000237448
0.000236536
0.000235826
0.000235046
0.000233962
0.000232707
0.000231412
0.000230192
0.000229022
0.000227631
0.000226062
0.000224572
0.000223137
0.000221379
0.000219037
0.000216253
0.000213208
0.000209982
0.000206249
0.000201922
0.000196856
0.000190859
0.000184197
0.000177045
0.000168774
0.000159334
0.000150121
0.000140067
0.000130701
0.000122
0.000114189
0.000106873
9.97958e-05
9.30703e-05
8.68678e-05
8.10791e-05
7.56879e-05
7.06838e-05
6.60287e-05
6.1674e-05
5.75677e-05
5.35195e-05
4.93507e-05
4.50203e-05
4.06176e-05
3.63059e-05
3.21935e-05
2.83049e-05
2.4653e-05
2.12601e-05
1.8141e-05
1.53295e-05
1.28519e-05
1.07137e-05
8.90053e-06
7.38701e-06
6.14132e-06
5.12804e-06
4.3107e-06
3.65418e-06
3.12605e-06
2.69727e-06
2.34284e-06
2.04273e-06
1.78226e-06
1.55175e-06
1.34541e-06
1.15999e-06
9.93606e-07
8.45024e-07
7.13191e-07
5.97091e-07
4.95696e-07
4.07947e-07
3.32746e-07
2.68946e-07
2.15363e-07
1.70816e-07
1.34154e-07
1.04286e-07
8.02113e-08
6.10196e-08
4.58887e-08
3.40907e-08
2.50041e-08
1.81053e-08
1.29398e-08
9.12567e-09
6.34831e-09
4.35502e-09
2.94486e-09
1.96255e-09
1.28817e-09
8.32923e-10
5.29794e-10
3.32008e-10
2.03922e-10
1.24131e-10
7.25471e-11
4.40518e-11
2.33326e-11
1.26895e-11
1.04025e-11
3.8387e-10
9.08629e-08
1.16654e-07
0.00040935
0.000883471
0.00268088
0.00542241
0.00484167
0.003433
0.0028403
0.00232552
0.00203957
0.00195055
0.00192784
0.00193132
0.00195362
0.0020002
0.0020876
0.00219993
0.00228176
0.00233726
0.00238595
0.00238371
0.00236674
0.0023281
0.00226462
0.00217848
0.00208313
0.00193008
0.00182768
0.00164021
0.00138482
0.00115316
0.000991336
0.000880466
0.000864962
0.000875909
0.000899205
0.000951857
0.00095358
0.000910782
0.000972126
0.00139817
0.00185875
0.00399409
0.0101856
0.0122109
0.0138955
0.00977209
0.00357994
0.00141506
0.000535479
0.000328835
0.000274987
0.000255231
0.000246306
0.000240855
0.000238585
0.000237951
0.000240355
0.000241895
0.000250256
0.000256383
0.000264194
0.000268477
0.000270225
0.000270488
0.000270217
0.000268261
0.000264907
0.000263417
0.000262974
0.000262904
0.000263009
0.000263362
0.000263905
0.000264598
0.000265491
0.000266464
0.000267293
0.000267815
0.000268166
0.000268505
0.000268615
0.000268586
0.000268005
0.00026694
0.00026543
0.000263542
0.000261268
0.000258825
0.000256422
0.000253797
0.00025064
0.000247543
0.000244235
0.000241019
0.00023762
0.000234075
0.000230293
0.000226374
0.000221896
0.000216399
0.000210045
0.000202386
0.000192998
0.000182208
0.000171217
0.000160891
0.000150728
0.000140396
0.000129722
0.000118797
0.000107808
9.72594e-05
8.79049e-05
8.03956e-05
7.41206e-05
6.87585e-05
6.41476e-05
6.01829e-05
5.67619e-05
5.36708e-05
5.07249e-05
4.77991e-05
4.47301e-05
4.13359e-05
3.75368e-05
3.34124e-05
2.9172e-05
2.50604e-05
2.12418e-05
1.77585e-05
1.46352e-05
1.19074e-05
9.60246e-06
7.72089e-06
6.23139e-06
5.07892e-06
4.19838e-06
3.52657e-06
3.00924e-06
2.60349e-06
2.2772e-06
2.00718e-06
1.77722e-06
1.57625e-06
1.39678e-06
1.23397e-06
1.0848e-06
9.47473e-07
8.21171e-07
7.0566e-07
6.00776e-07
5.06394e-07
4.2243e-07
3.48658e-07
2.8464e-07
2.29764e-07
1.83305e-07
1.44474e-07
1.12437e-07
8.63567e-08
6.54178e-08
4.88541e-08
3.59478e-08
2.60522e-08
1.85849e-08
1.30478e-08
9.0084e-09
6.11814e-09
4.08082e-09
2.67667e-09
1.7196e-09
1.08625e-09
6.73259e-10
4.01463e-10
2.53354e-10
1.18545e-10
1.13547e-10
9.72521e-11
3.07933e-09
8.67384e-09
0.00459963
0.00360442
0.00857378
0.00775183
0.00536079
0.00338447
0.00227474
0.00188889
0.00185224
0.00188435
0.00195924
0.00212246
0.00235595
0.00255631
0.00275748
0.00298084
0.00316826
0.00325776
0.00325794
0.00323902
0.00320055
0.00312136
0.00305284
0.00296575
0.00282823
0.00270204
0.00252372
0.00239476
0.00220744
0.00189496
0.00157238
0.00127741
0.00104506
0.000933973
0.00089974
0.000842055
0.000807396
0.000872076
0.00152872
0.00474959
0.00853369
0.00933094
0.00981852
0.00818608
0.00464572
0.00190289
0.000758374
0.000388934
0.000279947
0.000260172
0.000257347
0.000261326
0.000272205
0.00029214
0.000309275
0.000325235
0.000338443
0.000344821
0.000347222
0.000346254
0.000336862
0.000328583
0.000321224
0.000312622
0.000304022
0.000295869
0.000287795
0.000283617
0.000282365
0.000282152
0.000282242
0.000282706
0.000283622
0.000284936
0.000286525
0.000288328
0.000289502
0.000289837
0.000289898
0.000289766
0.000289229
0.000288188
0.000286526
0.000284089
0.000280799
0.000276741
0.000272198
0.000267362
0.000262501
0.00025792
0.00025328
0.000248536
0.000243836
0.000239515
0.000235628
0.000232452
0.000229669
0.000227257
0.000225234
0.000222597
0.000219176
0.000215293
0.00021034
0.000203554
0.000193908
0.000183178
0.000172575
0.000162708
0.000153712
0.000145429
0.000137099
0.000128119
0.000117738
0.000105777
9.41719e-05
8.48084e-05
7.81126e-05
7.30946e-05
6.91152e-05
6.58769e-05
6.31882e-05
6.08285e-05
5.87889e-05
5.69052e-05
5.4817e-05
5.22207e-05
4.89866e-05
4.51146e-05
4.06475e-05
3.56534e-05
3.02351e-05
2.46458e-05
1.93188e-05
1.47001e-05
1.1026e-05
8.27476e-06
6.27752e-06
4.83841e-06
3.79708e-06
3.03859e-06
2.48232e-06
2.07051e-06
1.76056e-06
1.52172e-06
1.33227e-06
1.17712e-06
1.04595e-06
9.31751e-07
8.29677e-07
7.36377e-07
6.49934e-07
5.69381e-07
4.94285e-07
4.24645e-07
3.6073e-07
3.02859e-07
2.51237e-07
2.05884e-07
1.66635e-07
1.33159e-07
1.05014e-07
8.16993e-08
6.26847e-08
4.74168e-08
3.53426e-08
2.59435e-08
1.87416e-08
1.33155e-08
9.29861e-09
6.37873e-09
4.3006e-09
2.84153e-09
1.85019e-09
1.16842e-09
7.40442e-10
4.34276e-10
2.82092e-10
1.36862e-10
1.9076e-10
4.95944e-10
0.00413442
0.0137728
0.0124391
0.00724303
0.00313673
0.00190766
0.00169307
0.00173124
0.00185778
0.00216507
0.00242786
0.00287077
0.00314795
0.00340036
0.00357804
0.00370344
0.00376953
0.00376826
0.00374957
0.00369283
0.00361197
0.00352448
0.00343256
0.00336045
0.00321591
0.00307986
0.0029053
0.00272493
0.00261382
0.00238313
0.00201896
0.0017129
0.00134581
0.00111929
0.000958429
0.000848016
0.000887923
0.00187719
0.00656674
0.00815251
0.00840509
0.00785633
0.00524097
0.00232954
0.0011116
0.000535491
0.000332497
0.000280832
0.000272476
0.000278183
0.000300452
0.000323693
0.000344103
0.000359402
0.000367121
0.000370915
0.000372165
0.000371623
0.000365603
0.000355789
0.000345156
0.000334335
0.000324573
0.00031453
0.000303694
0.000293306
0.000288274
0.000287074
0.000287019
0.000287617
0.000288896
0.000290731
0.000293
0.000295468
0.000297992
0.000300102
0.000300741
0.000300787
0.000300372
0.000299261
0.000297585
0.000295571
0.00029313
0.000290052
0.0002861
0.000281293
0.000276135
0.000270438
0.000264121
0.000257855
0.000251385
0.000244643
0.000237982
0.000231566
0.000225655
0.00022059
0.000216037
0.000211858
0.000208549
0.000206967
0.000207583
0.000209658
0.000210794
0.000208536
0.000203917
0.000194418
0.000181112
0.000168804
0.000157915
0.000148732
0.000141357
0.000135051
0.000128735
0.000122067
0.00011396
0.0001036
9.20797e-05
8.22454e-05
7.52812e-05
7.04566e-05
6.69736e-05
6.42718e-05
6.20584e-05
6.02653e-05
5.88677e-05
5.76171e-05
5.60679e-05
5.39396e-05
5.13738e-05
4.86948e-05
4.5935e-05
4.27543e-05
3.87374e-05
3.38076e-05
2.83585e-05
2.29567e-05
1.8036e-05
1.38216e-05
1.03849e-05
7.70467e-06
5.70356e-06
4.25621e-06
3.21709e-06
2.46635e-06
1.92179e-06
1.52683e-06
1.23989e-06
1.02939e-06
8.71641e-07
7.49424e-07
6.50824e-07
5.68066e-07
4.95759e-07
4.30196e-07
3.69425e-07
3.136e-07
2.63015e-07
2.17881e-07
1.78266e-07
1.44069e-07
1.15024e-07
9.07219e-08
7.06513e-08
5.42965e-08
4.1158e-08
3.07582e-08
2.26501e-08
1.64275e-08
1.17294e-08
8.23748e-09
5.68966e-09
3.85913e-09
2.5759e-09
1.68105e-09
1.0858e-09
6.75923e-10
4.25222e-10
2.51131e-10
1.53965e-10
1.12841e-10
0.00379477
0.01065
0.00579201
0.00242773
0.00156447
0.00152928
0.00163182
0.00190812
0.00239869
0.00291678
0.00333396
0.0038106
0.00402802
0.0043561
0.00454704
0.00472718
0.00492496
0.0050547
0.00521406
0.00525318
0.00521325
0.00509283
0.00483415
0.00448253
0.00407801
0.00377792
0.0034659
0.00308585
0.00280633
0.00264243
0.00243023
0.00201884
0.00168552
0.00133109
0.000981435
0.000958873
0.00220621
0.00644705
0.00748783
0.00746969
0.00600678
0.00334633
0.00162318
0.00075799
0.000434844
0.000321986
0.000293687
0.00029013
0.000313006
0.000338583
0.000356618
0.000372356
0.000381491
0.000386662
0.000388719
0.000389323
0.000388917
0.000385092
0.000377152
0.000367414
0.000357679
0.000347712
0.000337579
0.000326788
0.000316302
0.000312773
0.000312296
0.00031376
0.000316616
0.000319932
0.000323535
0.000327429
0.000330854
0.000332108
0.000332451
0.000332355
0.000330801
0.000327683
0.00032375
0.000319132
0.000313956
0.000309153
0.000304541
0.000300358
0.000296298
0.000291917
0.000287815
0.000282803
0.000277071
0.000271628
0.000265763
0.000259
0.000251344
0.000243145
0.000235644
0.000229089
0.000222875
0.000216032
0.00020751
0.000199554
0.000193363
0.000189304
0.000190157
0.000198053
0.000205305
0.000206169
0.000201816
0.000185618
0.000165576
0.000149911
0.000138592
0.00013106
0.000126787
0.000122871
0.000117844
0.000112011
0.000105105
9.63685e-05
8.65028e-05
7.79823e-05
7.18282e-05
6.74581e-05
6.4217e-05
6.16861e-05
5.97287e-05
5.83296e-05
5.73511e-05
5.63704e-05
5.48347e-05
5.25292e-05
4.98441e-05
4.73495e-05
4.52132e-05
4.30571e-05
4.02019e-05
3.6234e-05
3.13197e-05
2.6008e-05
2.08683e-05
1.629e-05
1.24565e-05
9.38817e-06
6.99872e-06
5.15999e-06
3.76158e-06
2.72027e-06
1.96448e-06
1.42944e-06
1.05874e-06
8.05698e-07
6.33424e-07
5.1415e-07
4.28766e-07
3.65218e-07
3.15912e-07
2.74617e-07
2.37327e-07
2.02313e-07
1.69833e-07
1.40319e-07
1.14086e-07
9.12909e-08
7.19209e-08
5.5801e-08
4.26444e-08
3.21004e-08
2.37998e-08
1.73744e-08
1.2488e-08
8.83128e-09
6.1466e-09
4.20173e-09
2.82712e-09
1.86281e-09
1.20992e-09
7.66508e-10
4.79374e-10
2.92963e-10
1.72175e-10
1.0389e-10
0.0050716
0.0043246
0.00219369
0.00132245
0.00134555
0.00155184
0.00210013
0.00270157
0.00329372
0.00373977
0.00414458
0.00450246
0.00476278
0.00508125
0.00535347
0.00571313
0.00609538
0.00667675
0.00721196
0.00766188
0.00766588
0.00755354
0.00726032
0.00665691
0.00572823
0.00490303
0.00438411
0.00387665
0.00332836
0.0029623
0.00266901
0.00222272
0.00177133
0.0012757
0.00102765
0.00192851
0.0057906
0.00677855
0.00678528
0.00463443
0.00231804
0.00119279
0.00063127
0.000396684
0.000325875
0.000310297
0.000307902
0.000337684
0.000358715
0.000370278
0.00037959
0.000390971
0.000398633
0.000403711
0.000405152
0.000405453
0.000405253
0.000403157
0.000397117
0.000389285
0.000383411
0.000379852
0.000375486
0.000368781
0.000363624
0.000363318
0.000366182
0.000371671
0.000376544
0.000379232
0.000381054
0.000382543
0.000383872
0.000384263
0.000383329
0.0003825
0.000380917
0.000378809
0.000375615
0.000369878
0.000360909
0.000351509
0.000342585
0.000335049
0.000328447
0.000322745
0.000318315
0.000312205
0.000305454
0.000296637
0.000285796
0.000274642
0.000263436
0.000253532
0.000245977
0.000241645
0.000239715
0.000239668
0.00023965
0.000233401
0.00021756
0.000194872
0.00017961
0.00017288
0.000176892
0.000196394
0.000209989
0.000212691
0.000204492
0.0001751
0.000145917
0.000127949
0.000117917
0.0001136
0.000112678
0.000110822
0.000106598
0.000101281
9.49521e-05
8.73017e-05
7.91762e-05
7.24593e-05
6.75109e-05
6.38286e-05
6.09784e-05
5.87854e-05
5.72644e-05
5.6362e-05
5.57324e-05
5.47774e-05
5.29497e-05
5.02197e-05
4.72457e-05
4.47592e-05
4.29743e-05
4.14748e-05
3.94887e-05
3.64421e-05
3.22989e-05
2.74772e-05
2.25373e-05
1.79333e-05
1.39253e-05
1.05967e-05
7.90685e-06
5.76922e-06
4.11037e-06
2.86547e-06
1.96468e-06
1.33587e-06
9.11539e-07
6.33646e-07
4.55641e-07
3.4232e-07
2.68679e-07
2.18838e-07
1.83642e-07
1.57397e-07
1.35558e-07
1.15524e-07
9.68155e-08
7.96745e-08
6.43554e-08
5.10221e-08
3.97156e-08
3.0362e-08
2.28033e-08
1.68284e-08
1.22046e-08
8.69767e-09
6.09116e-09
4.19023e-09
2.83146e-09
1.87786e-09
1.22259e-09
7.80746e-10
4.88882e-10
3.0043e-10
1.80263e-10
1.06577e-10
0.0017798
0.00177334
0.00113789
0.00112572
0.00143271
0.00224165
0.00276099
0.00320507
0.00368822
0.00406656
0.00441676
0.00471375
0.00501768
0.00534529
0.00576779
0.00631126
0.00738387
0.00870753
0.0101744
0.0108925
0.0111865
0.0110185
0.0105046
0.00974053
0.00814811
0.0064483
0.00526104
0.00433249
0.00359272
0.0031865
0.00267865
0.00219601
0.00168241
0.00117164
0.00157021
0.00494614
0.00605276
0.00616962
0.0041184
0.00191838
0.000969454
0.000556438
0.000387722
0.000333057
0.000323199
0.000326681
0.000355356
0.00037158
0.000381516
0.000388906
0.000395387
0.000405364
0.000414241
0.00042354
0.000429991
0.000434657
0.000439681
0.000444463
0.000447902
0.000450304
0.000457648
0.000473175
0.000491424
0.000506142
0.000513913
0.000521025
0.000528525
0.000539104
0.000548981
0.000550523
0.000533374
0.000523922
0.000520758
0.000515371
0.000509355
0.000507381
0.000503455
0.000498759
0.000489396
0.000474987
0.000455087
0.000433893
0.000415339
0.000398606
0.000381265
0.000365352
0.000350124
0.000335238
0.000320363
0.000305892
0.00029126
0.000276811
0.000261747
0.00024575
0.000230393
0.00022037
0.00021739
0.000225198
0.000241172
0.000253614
0.000260671
0.000257345
0.000227429
0.000184103
0.000161639
0.000158537
0.000176486
0.000209882
0.0002213
0.000219401
0.000196389
0.000150487
0.000121194
0.000107271
0.000101038
9.99208e-05
0.00010025
9.94499e-05
9.5932e-05
9.1031e-05
8.53815e-05
7.86901e-05
7.21047e-05
6.68798e-05
6.29364e-05
5.98998e-05
5.75637e-05
5.59402e-05
5.50121e-05
5.45103e-05
5.39753e-05
5.28932e-05
5.0581e-05
4.74218e-05
4.42917e-05
4.18932e-05
4.03846e-05
3.93391e-05
3.80011e-05
3.5723e-05
3.23071e-05
2.80178e-05
2.33569e-05
1.88211e-05
1.47325e-05
1.1226e-05
8.31554e-06
5.97168e-06
4.15544e-06
2.80744e-06
1.84894e-06
1.19473e-06
7.65125e-07
4.92904e-07
3.25669e-07
2.25113e-07
1.64688e-07
1.2726e-07
1.02969e-07
8.6468e-08
7.3913e-08
6.28495e-08
5.25097e-08
4.29756e-08
3.44186e-08
2.69719e-08
2.06886e-08
1.55403e-08
1.14371e-08
8.25043e-09
5.8355e-09
4.04752e-09
2.75357e-09
1.83731e-09
1.20221e-09
7.71349e-10
4.85047e-10
2.99064e-10
1.80447e-10
1.06965e-10
0.00155387
0.00144964
0.000796392
0.0011217
0.00208569
0.00262034
0.00291437
0.00335469
0.00381538
0.0041558
0.00448128
0.00477073
0.00514267
0.0056134
0.00652966
0.00830964
0.0108874
0.0140982
0.0163409
0.0179529
0.0184064
0.0180737
0.0171084
0.0152295
0.0130773
0.0101146
0.00761113
0.00557879
0.0040679
0.00318545
0.00260322
0.00205484
0.00141647
0.00141774
0.00396909
0.00538116
0.00559602
0.00388987
0.001774
0.000883861
0.000520945
0.000383275
0.00033892
0.000330058
0.000332753
0.000358925
0.000371134
0.000383462
0.000393637
0.00040308
0.000412652
0.000427062
0.000442801
0.000460588
0.000478264
0.000496588
0.000521084
0.000553742
0.000595796
0.00064429
0.00070231
0.000773491
0.000855807
0.000947676
0.00103195
0.00107358
0.00109071
0.00109089
0.00109242
0.00109062
0.00102011
0.000923762
0.000883305
0.000836822
0.000771154
0.000743519
0.000701523
0.000668914
0.000628255
0.00058386
0.000535865
0.000493386
0.000459685
0.000430465
0.000406445
0.000386371
0.000368272
0.00035318
0.000339175
0.000326077
0.000311534
0.000295333
0.000276599
0.000254449
0.000230036
0.000205618
0.000184944
0.000170942
0.000169366
0.000195681
0.000241
0.000270432
0.000276204
0.000261718
0.000205145
0.000158194
0.000149053
0.000159664
0.000203178
0.000223962
0.000223691
0.000207561
0.000156708
0.000117222
9.95501e-05
9.21649e-05
8.94085e-05
8.9174e-05
8.92645e-05
8.87048e-05
8.6318e-05
8.22673e-05
7.70994e-05
7.1095e-05
6.57051e-05
6.14992e-05
5.82803e-05
5.58915e-05
5.43005e-05
5.34211e-05
5.29852e-05
5.26236e-05
5.19449e-05
5.03602e-05
4.7413e-05
4.4066e-05
4.11138e-05
3.90456e-05
3.78957e-05
3.72329e-05
3.6353e-05
3.46189e-05
3.17386e-05
2.78159e-05
2.32913e-05
1.87513e-05
1.45869e-05
1.09718e-05
7.96691e-06
5.57901e-06
3.77123e-06
2.46643e-06
1.566e-06
9.70158e-07
5.91095e-07
3.58707e-07
2.21e-07
1.4167e-07
9.6623e-08
7.06337e-08
5.49963e-08
4.51716e-08
3.82855e-08
3.24518e-08
2.701e-08
2.19629e-08
1.74179e-08
1.34699e-08
1.01628e-08
7.48622e-09
5.38805e-09
3.79155e-09
2.61006e-09
1.75847e-09
1.15982e-09
7.49143e-10
4.73881e-10
2.93732e-10
1.78239e-10
1.06186e-10
0.00155949
0.0012614
0.000670432
0.00155129
0.00233418
0.00267289
0.0029306
0.0033923
0.00383978
0.00416742
0.00446823
0.00477419
0.00526245
0.00628406
0.00823784
0.0115484
0.0155042
0.0194651
0.0221459
0.0236122
0.0243183
0.0240541
0.0230544
0.0208337
0.0176428
0.0130263
0.00865195
0.00559439
0.00395934
0.00304909
0.00232399
0.00169157
0.00152173
0.00299518
0.0047708
0.00508168
0.00392309
0.0017366
0.000860274
0.000514132
0.000385979
0.000345519
0.000337171
0.000337858
0.000362842
0.000381942
0.000396107
0.000408007
0.000419244
0.000434834
0.000451063
0.000474101
0.00050207
0.00053517
0.000578188
0.000634696
0.000713953
0.000825361
0.000976277
0.00116611
0.00138956
0.00162468
0.00181911
0.00207826
0.00233241
0.00246953
0.002524
0.00251715
0.00239287
0.00234237
0.00213584
0.00184666
0.00166714
0.00148803
0.00124607
0.00113023
0.000980761
0.000869387
0.000763242
0.000669309
0.000594721
0.000541504
0.000494389
0.000459692
0.000434985
0.000419085
0.000409723
0.00040819
0.000408799
0.000409394
0.000407968
0.000403678
0.000394129
0.00037411
0.000337595
0.000284445
0.000224982
0.000178309
0.000147853
0.000135117
0.000140486
0.000193493
0.000261273
0.000278819
0.000269057
0.000219338
0.000158935
0.000145642
0.000153406
0.000195821
0.000219523
0.000219633
0.000203699
0.000153959
0.000111958
9.32788e-05
8.554e-05
8.18249e-05
8.03277e-05
8.01507e-05
8.02759e-05
8.01819e-05
7.89323e-05
7.48873e-05
6.95537e-05
6.42035e-05
5.97084e-05
5.62466e-05
5.38065e-05
5.23226e-05
5.15923e-05
5.12617e-05
5.10055e-05
5.05259e-05
4.93985e-05
4.67669e-05
4.35015e-05
4.04552e-05
3.80854e-05
3.64899e-05
3.55585e-05
3.50218e-05
3.44451e-05
3.32832e-05
3.06686e-05
2.67223e-05
2.21124e-05
1.75167e-05
1.33437e-05
9.77641e-06
6.88647e-06
4.66785e-06
3.05088e-06
1.92775e-06
1.18121e-06
7.04679e-07
4.11759e-07
2.38045e-07
1.3851e-07
8.32643e-08
5.33054e-08
3.70188e-08
2.78641e-08
2.25075e-08
1.89824e-08
1.60539e-08
1.32996e-08
1.07225e-08
8.39745e-09
6.38916e-09
4.7269e-09
3.40433e-09
2.38936e-09
1.6359e-09
1.09346e-09
7.14088e-10
4.55827e-10
2.84685e-10
1.73836e-10
1.04228e-10
0.00149314
0.00106975
0.00066991
0.00188985
0.00238088
0.0025989
0.00281414
0.00337548
0.00379982
0.00404936
0.00428296
0.0046101
0.00535845
0.00666841
0.00914029
0.013103
0.0176642
0.0217088
0.0244329
0.0255087
0.0252682
0.0243696
0.0229946
0.0206735
0.0172268
0.0124185
0.00806071
0.00516124
0.00356942
0.00254323
0.00188673
0.00173
0.00239078
0.00419106
0.00461761
0.00405528
0.00181667
0.000872644
0.000524413
0.000397524
0.000356297
0.000346001
0.000345203
0.00036571
0.000390913
0.000401524
0.000413924
0.000427102
0.000445051
0.000468612
0.000498108
0.000541151
0.000600407
0.00067997
0.000786029
0.000932536
0.00113833
0.00142951
0.00182824
0.002312
0.002792
0.00326215
0.00376936
0.00427709
0.00476017
0.00507948
0.00523109
0.00527885
0.00502062
0.0047025
0.00414934
0.00352064
0.0030487
0.00252326
0.00207668
0.00172968
0.00143742
0.00119792
0.0010122
0.000857811
0.000737278
0.000640909
0.000565223
0.00051684
0.000494408
0.000493292
0.000496146
0.000490869
0.000481519
0.000472324
0.000466919
0.000465563
0.000468227
0.000473356
0.000475066
0.0004615
0.000412558
0.000315271
0.000209966
0.000145051
0.000121164
0.000120606
0.00015444
0.000240528
0.000268617
0.000260026
0.000215458
0.00015754
0.000142157
0.000147881
0.000184449
0.000205861
0.00020621
0.000189156
0.000143103
0.000104809
8.72244e-05
8.00818e-05
7.63849e-05
7.43609e-05
7.35978e-05
7.3541e-05
7.36347e-05
7.35056e-05
7.21477e-05
6.77605e-05
6.23856e-05
5.77245e-05
5.40966e-05
5.15905e-05
5.01329e-05
4.94885e-05
4.92481e-05
4.90839e-05
4.87729e-05
4.80047e-05
4.58325e-05
4.25445e-05
3.94428e-05
3.69446e-05
3.51853e-05
3.41033e-05
3.34985e-05
3.30988e-05
3.25521e-05
3.1425e-05
2.87589e-05
2.44804e-05
1.97058e-05
1.51549e-05
1.11676e-05
7.89234e-06
5.35647e-06
3.49924e-06
2.20612e-06
1.34569e-06
7.96147e-07
4.58183e-07
2.57646e-07
1.42722e-07
7.90835e-08
4.50074e-08
2.72752e-08
1.81157e-08
1.32723e-08
1.06226e-08
8.95984e-09
7.57321e-09
6.24034e-09
4.97773e-09
3.83904e-09
2.86531e-09