/*--------------------------------*- C++ -*----------------------------------*\
  =========                 |
  \\      /  F ield         | OpenFOAM: The Open Source CFD Toolbox
   \\    /   O peration     | Website:  https://openfoam.org
    \\  /    A nd           | Version:  7
     \\/     M anipulation  |
\*---------------------------------------------------------------------------*/
FoamFile
{
    version     2.0;
    format      ascii;
    class       volScalarField;
    location    "0.062";
    object      nut;
}
// * * * * * * * * * * * * * * * * * * * * * * * * * * * * * * * * * * * * * //

dimensions      [0 2 -1 0 0 0 0];

internalField   nonuniform List<scalar> 
12225
(
0
0
0
0
0
0
4.19234e-12
0
0
0
0
0
0
0
0
0
0
0
0
0
0
0
0
1.24058e-10
2.74187e-10
6.60426e-11
0
0
0
0
0
0
0
0
0
0
0
1.04094e-09
2.94334e-10
0
6.78285e-11
9.56001e-10
8.6164e-10
2.14537e-10
0
0
0
0
0
0
0
0
0
0
2.02572e-08
2.77512e-08
9.17297e-09
0
0
2.42468e-10
0
0
0
0
0
0
0
0
0
0
0
0
1.7094e-07
2.30413e-07
1.27155e-07
0
0
0
0
0
0
0
2.72071e-10
5.51983e-10
6.13993e-10
6.36943e-10
8.59478e-10
3.89155e-10
1.02455e-09
0
2.35882e-07
3.36394e-07
2.62992e-07
1.93751e-07
1.38453e-07
9.56724e-08
3.65594e-08
0
0
0
9.39817e-09
1.15683e-08
8.14667e-09
2.29934e-09
0
0
0
0
3.86305e-07
5.52783e-07
4.75851e-07
4.27628e-07
4.25951e-07
3.44576e-07
1.47171e-07
4.91355e-08
4.5647e-08
4.65598e-08
4.95567e-08
4.92574e-08
2.6645e-08
1.56553e-09
0
0
0
0
4.96337e-07
5.3475e-07
4.43584e-07
4.91602e-07
8.0155e-07
2.45972e-07
2.54768e-08
3.38259e-08
6.25265e-08
6.7029e-08
5.56764e-08
4.90958e-08
3.89838e-08
1.75861e-08
2.39717e-09
0
0
0
3.66419e-07
4.82197e-07
2.8432e-07
1.13114e-07
2.11621e-07
1.26191e-08
0
2.69649e-08
1.09156e-07
1.20239e-07
6.92915e-08
2.86748e-08
2.41529e-08
2.71854e-08
2.36445e-08
9.32403e-09
0
0
8.16951e-09
4.7458e-07
4.00255e-07
3.62972e-07
2.99196e-07
0
0
2.01746e-08
1.91436e-07
1.92334e-07
1.09699e-07
6.11268e-08
3.20113e-08
1.01011e-08
0
0
0
0
0
1.46343e-07
6.6655e-07
7.58074e-07
1.04306e-06
5.11118e-07
1.75384e-07
2.4304e-07
5.80347e-07
5.35893e-07
3.61022e-07
1.26047e-07
0
0
0
0
0
0
1.75197e-08
5.58407e-07
7.0384e-07
7.95417e-07
1.05758e-06
1.23636e-06
8.09825e-07
6.50259e-07
1.55005e-06
1.28425e-06
8.5021e-07
1.75963e-07
0
0
0
0
0
0
4.06279e-07
4.98059e-07
5.60379e-07
6.76077e-07
1.02074e-06
1.45838e-06
7.03682e-07
0
1.90472e-07
5.11911e-07
5.02324e-07
2.05973e-07
0
0
0
0
0
0
3.40043e-07
1.67709e-07
7.72136e-08
3.76051e-07
1.17419e-06
2.46702e-07
0
0
4.59448e-08
1.44048e-07
1.41236e-07
6.54279e-08
0
0
0
0
0
0
9.03788e-08
1.75191e-07
0
0
0
0
0
0
0
0
1.38329e-08
5.78514e-09
0
0
0
0
0
0
0
0
0
0
0
0
1.67647e-07
1.97035e-07
4.58524e-08
0
0
0
1.07873e-08
7.17684e-08
2.16696e-07
2.37857e-07
1.25277e-07
3.33605e-08
0
0
0
0
0
0
0
2.01598e-08
0
0
0
0
0
0
0
2.2871e-07
2.77568e-07
2.24199e-07
0
0
0
0
0
0
0
0
0
9.47765e-08
7.56307e-08
0
0
0
0
0
0
0
0
0
0
0
0
7.40046e-08
0
0
0
0
5.96375e-08
8.84495e-08
3.49141e-09
0
0
0
0
0
9.40917e-08
1.70251e-07
0
4.75635e-08
2.17876e-07
1.26041e-07
0
0
0
0
0
0
7.99867e-08
9.27342e-08
0
0
0
0
1.47049e-07
9.97327e-09
0
0
0
0
0
0
0
0
2.98035e-07
9.29561e-07
7.12952e-07
3.69314e-07
9.46391e-08
0
0
0
0
0
0
0
0
0
0
0
0
0
0
4.41618e-07
6.23154e-07
5.39832e-07
3.66854e-07
2.25463e-07
1.3843e-07
9.67709e-08
2.31689e-08
1.02629e-07
0
0
0
0
0
0
0
0
0
6.53726e-08
2.3888e-07
3.47622e-07
3.79626e-07
3.66099e-07
3.51318e-07
3.54907e-07
1.69926e-08
1.74727e-07
0
0
0
2.38131e-08
3.80007e-08
6.78185e-09
0
0
0
0
0
1.29462e-07
1.80912e-07
1.48652e-07
1.18026e-07
1.42976e-07
4.6248e-08
1.68074e-07
0
0
0
2.72071e-08
5.12746e-08
6.73167e-08
5.64905e-08
0
0
0
0
0
0
0
0
0
2.75407e-07
1.878e-07
1.65961e-08
0
2.76911e-08
2.87212e-08
0
0
0
0
0
0
0
0
0
0
0
0
9.10872e-08
0
0
0
0
0
0
0
0
0
0
0
0
0
0
0
0
0
6.73601e-09
0
0
0
0
0
0
0
0
0
0
0
0
0
0
0
0
0
7.8006e-09
0
0
0
0
0
0
0
0
0
0
0
0
0
0
0
0
0
6.33322e-08
0
0
0
0
0
0
0
0
0
0
0
0
0
0
0
0
0
0
0
5.36574e-08
0
0
0
4.58627e-07
7.67211e-07
5.16047e-07
1.28735e-07
0
0
0
0
0
0
0
0
0
0
0
0
2.16612e-08
4.1169e-08
5.41756e-08
5.88532e-08
5.13026e-08
3.03184e-08
0
0
7.14629e-09
6.59109e-08
5.07093e-08
0
0
0
0
0
0
0
1.24329e-06
3.87849e-06
8.33719e-06
8.60596e-06
1.13264e-05
1.76731e-05
3.10129e-05
2.52988e-05
7.76771e-06
1.234e-06
2.17626e-07
9.6105e-09
0
0
1.27113e-08
2.98146e-08
3.84111e-08
3.98591e-08
3.77436e-08
3.17754e-08
2.61636e-08
2.05364e-08
1.508e-08
1.11518e-08
7.48786e-09
4.77006e-09
2.45073e-09
3.42548e-10
0
0
0
0
0
0
0
0
0
0
0
0
0
0
0
0
0
0
0
0
0
0
0
0
0
0
0
0
0
0
0
0
0
0
0
0
0
0
0
0
0
0
0
0
0
0
0
0
0
0
0
0
0
0
0
0
0
0
0
0
0
0
0
0
0
0
0
0
0
0
0
0
0
0
0
0
0
0
0
0
0
0
0
0
0
0
0
0
0
0
0
0
0
0
0
0
0
0
0
0
0
0
0
0
0
0
0
0
0
0
1.78411e-10
5.04401e-11
0
0
0
0
0
1.53531e-07
8.86011e-07
1.23485e-06
1.206e-06
8.79757e-07
4.45447e-07
7.98673e-08
0
0
0
0
0
0
0
0
0
0
3.24906e-08
5.7778e-08
7.16793e-08
7.10961e-08
5.32133e-08
2.41714e-08
0
4.78518e-09
1.1145e-07
2.39093e-07
1.99222e-07
5.21301e-08
0
6.72655e-09
0
0
0
1.13427e-07
1.04164e-06
0
0
0
0
6.5502e-07
1.24599e-06
1.82732e-06
1.18058e-06
5.02293e-07
1.92825e-07
5.55501e-08
1.18242e-08
1.06012e-08
2.05949e-08
2.87317e-08
3.26849e-08
3.36584e-08
3.27409e-08
3.0635e-08
2.78011e-08
2.46809e-08
2.10486e-08
1.73111e-08
1.32649e-08
9.20089e-09
5.10799e-09
1.05078e-09
0
0
0
0
0
0
0
0
0
0
0
0
0
0
0
0
0
0
0
0
0
0
0
0
0
0
0
0
0
0
0
0
0
0
0
0
0
0
0
0
0
0
0
0
0
0
0
0
0
0
0
0
0
0
0
0
0
0
0
0
0
0
0
0
0
0
0
0
0
0
0
0
0
0
0
0
0
0
0
0
0
0
0
0
0
0
0
0
0
0
0
0
0
0
0
0
0
0
0
0
0
0
0
0
0
0
0
0
0
7.04695e-13
1.41663e-10
0
0
2.73795e-07
0
0
0
1.64317e-07
8.62414e-07
1.15359e-06
1.17456e-06
1.13156e-06
1.07502e-06
1.00831e-06
9.23765e-07
8.1344e-07
6.71796e-07
4.94516e-07
2.95992e-07
1.21234e-07
9.08047e-09
0
0
0
0
0
0
0
0
0
0
0
2.31287e-07
4.88275e-07
4.94645e-07
5.59432e-07
8.7644e-07
1.31419e-06
1.15371e-06
0
0
0
0
0
0
0
0
1.07118e-07
5.62127e-08
1.8433e-07
2.29226e-07
1.54088e-07
8.23898e-08
5.49809e-08
6.07912e-08
8.2317e-08
1.05036e-07
1.21074e-07
1.2803e-07
1.26273e-07
1.19985e-07
1.09198e-07
9.65655e-08
8.2428e-08
6.79727e-08
5.39521e-08
4.07386e-08
2.83331e-08
1.6747e-08
5.94425e-09
0
0
0
0
0
0
0
0
0
0
0
0
0
0
0
0
0
0
0
0
0
0
0
0
0
0
0
0
0
0
0
0
0
0
0
0
0
0
0
0
0
0
0
0
0
0
0
0
0
0
0
0
8.54386e-10
1.549e-09
1.80997e-09
1.82365e-09
1.66326e-09
1.36754e-09
1.0199e-09
6.56374e-10
2.93962e-10
0
0
0
0
0
0
0
0
0
0
0
0
0
0
0
0
0
0
0
0
0
0
0
0
0
0
0
0
0
0
0
0
0
0
0
0
0
0
0
0
0
0
0
0
0
0
0
8.54497e-13
0
4.75022e-11
0
2.24507e-06
1.37767e-06
4.15488e-07
5.26679e-08
7.86079e-08
4.54116e-07
9.66502e-07
1.1233e-06
1.14417e-06
1.19426e-06
1.26438e-06
1.34063e-06
1.40286e-06
1.41043e-06
1.36322e-06
1.25209e-06
1.05682e-06
7.92532e-07
5.42373e-07
4.37342e-07
5.36269e-07
6.80409e-07
6.2572e-07
3.568e-07
6.89816e-09
0
0
0
0
0
0
0
0
0
0
0
0
0
0
0
0
0
0
0
0
4.96404e-08
0
0
0
0
1.42666e-08
7.31975e-08
1.54893e-07
2.35189e-07
2.91567e-07
3.27355e-07
3.49585e-07
3.62948e-07
3.69681e-07
3.6818e-07
3.52567e-07
3.25952e-07
2.87946e-07
2.39241e-07
1.83623e-07
1.25428e-07
6.90662e-08
1.88171e-08
0
0
0
0
0
0
0
0
0
0
0
0
0
0
0
0
0
0
0
0
0
0
0
0
0
0
0
0
0
0
0
0
0
0
0
0
0
0
0
0
0
0
0
0
0
0
0
0
0
0
0
0
0
0
4.11266e-09
1.37007e-08
1.81273e-08
1.87263e-08
1.69205e-08
1.39107e-08
1.04601e-08
7.00031e-09
3.90118e-09
1.43642e-09
0
0
0
0
0
0
0
0
0
0
0
0
0
0
0
0
0
0
0
0
0
0
0
0
0
0
0
0
0
0
0
0
0
0
0
0
0
0
0
0
0
0
0
0
1.42762e-12
0
1.73994e-11
0
4.06298e-06
2.01086e-06
8.49473e-07
5.03236e-07
4.31374e-07
6.99509e-07
1.10978e-06
1.20516e-06
1.30107e-06
1.41614e-06
1.44026e-06
1.41442e-06
1.21448e-06
8.53295e-07
3.11717e-07
0
0
0
0
0
2.20717e-06
3.60224e-06
3.46821e-06
2.66737e-06
1.75121e-06
9.45355e-07
2.77306e-07
0
0
0
0
0
0
0
0
0
0
0
0
0
0
0
1.57132e-07
5.82973e-08
0
0
0
0
2.86197e-08
1.65335e-07
2.55197e-07
2.77787e-07
2.56835e-07
2.28279e-07
2.07318e-07
1.98971e-07
1.99571e-07
2.04202e-07
2.06874e-07
2.04621e-07
1.96399e-07
1.81565e-07
1.60185e-07
1.32034e-07
9.75604e-08
5.81249e-08
1.63494e-08
0
0
0
0
0
0
0
0
0
0
0
0
0
0
0
0
0
0
0
0
0
0
0
0
0
0
0
0
0
0
0
0
0
0
0
0
0
0
0
0
0
0
0
0
0
0
0
0
0
0
0
0
0
0
0
0
0
0
0
0
0
0
0
0
0
0
0
0
0
0
0
1.55579e-09
4.26197e-09
3.73523e-09
2.16802e-09
5.95144e-10
0
0
0
0
0
0
0
0
0
0
0
0
0
0
0
0
0
0
0
0
0
0
0
0
0
0
0
0
0
0
0
0
0
5.45993e-12
0
2.68698e-11
0
2.75084e-06
1.63331e-06
6.12612e-07
3.17863e-07
3.97998e-07
8.96086e-07
1.18895e-06
1.31424e-06
1.36211e-06
1.21747e-06
7.9325e-07
5.01953e-08
0
0
0
0
0
0
0
0
7.9568e-06
9.19549e-06
7.24671e-06
5.18376e-06
3.50843e-06
2.216e-06
1.15805e-06
3.27591e-07
0
0
0
0
0
0
0
0
0
0
0
0
0
0
0
0
0
0
6.74304e-08
3.29814e-07
5.35924e-07
5.80425e-07
5.15398e-07
4.29283e-07
3.56329e-07
3.06637e-07
2.76421e-07
2.60058e-07
2.51618e-07
2.4567e-07
2.39236e-07
2.31593e-07
2.22521e-07
2.1067e-07
1.93689e-07
1.67738e-07
1.2869e-07
7.46471e-08
7.37926e-09
0
0
0
0
0
0
0
0
0
0
0
2.46848e-09
2.67413e-09
5.0238e-10
0
0
0
0
0
0
0
0
0
0
0
0
0
0
0
0
0
0
0
0
0
0
0
0
0
0
0
0
0
0
0
0
0
0
0
0
0
0
0
0
0
0
0
0
0
0
0
0
0
0
0
0
0
0
0
0
0
0
0
0
0
0
0
0
0
0
0
0
0
0
0
0
0
0
0
0
0
0
0
0
0
0
0
0
0
0
0
0
0
0
0
0
0
0
0
0
0
0
0
1.38917e-06
1.06446e-06
5.36495e-07
3.3739e-07
6.19194e-07
1.08964e-06
1.26341e-06
1.16208e-06
6.59189e-07
0
0
0
0
0
0
0
0
0
0
0
6.61497e-06
9.93197e-06
8.6677e-06
6.57522e-06
4.62825e-06
3.07268e-06
1.84168e-06
8.11431e-07
3.95757e-08
0
0
0
0
0
0
0
0
0
0
0
0
0
0
0
1.16952e-07
5.25124e-07
8.80742e-07
9.65648e-07
8.07526e-07
6.2263e-07
4.88351e-07
4.00867e-07
3.43365e-07
3.07324e-07
2.85174e-07
2.72025e-07
2.64089e-07
2.57947e-07
2.51546e-07
2.45007e-07
2.3998e-07
2.37331e-07
2.35919e-07
2.30833e-07
2.07605e-07
1.3262e-07
0
0
0
0
0
0
0
0
0
0
0
2.30158e-09
8.23117e-09
1.23768e-08
1.50193e-08
1.63474e-08
1.63332e-08
1.50122e-08
1.27658e-08
1.02428e-08
8.32983e-09
7.94471e-09
9.29787e-09
1.19296e-08
1.47267e-08
1.603e-08
1.39077e-08
8.36058e-09
0
0
0
0
0
0
0
0
0
0
0
0
0
0
0
0
0
0
0
0
0
0
0
0
0
0
0
0
0
0
0
0
0
0
0
0
0
0
0
0
0
0
0
0
0
0
0
0
0
0
0
0
0
0
0
0
0
0
0
0
0
0
0
0
0
0
0
0
0
0
0
0
0
0
0
0
0
0
0
0
0
0
0
0
0
0
1.41555e-07
2.38719e-07
2.95282e-07
4.84539e-07
9.56308e-07
1.21532e-06
1.03211e-06
3.8139e-07
0
0
0
0
0
0
0
0
0
0
0
0
6.19222e-06
9.90058e-06
9.34332e-06
7.49325e-06
5.4385e-06
3.6995e-06
2.3363e-06
1.18619e-06
2.89437e-07
0
0
0
0
0
0
0
0
0
0
0
0
0
0
3.47667e-07
9.1517e-07
9.96549e-07
6.5449e-07
4.53383e-07
3.90387e-07
3.60824e-07
3.35485e-07
3.14778e-07
2.98706e-07
2.8733e-07
2.76511e-07
2.62533e-07
2.44047e-07
2.21413e-07
1.98291e-07
1.80532e-07
1.76343e-07
1.94932e-07
2.47628e-07
3.49455e-07
5.04094e-07
5.47205e-07
0
0
0
0
0
0
0
0
0
0
0
0
0
0
0
0
0
1.35424e-09
0
0
0
0
0
0
0
0
4.25413e-09
7.60647e-09
4.03976e-09
0
0
0
0
0
0
0
0
0
0
0
0
0
0
0
0
0
0
0
0
0
0
0
0
0
0
0
0
0
0
0
0
0
0
0
0
0
0
0
0
0
0
0
0
0
0
0
0
0
0
0
0
0
0
0
0
0
0
0
0
0
0
0
0
0
0
0
0
0
0
0
0
0
0
0
0
0
0
0
0
0
0
0
0
0
2.37253e-09
2.44527e-08
8.55656e-08
5.72021e-07
9.50534e-07
8.63292e-07
4.35642e-07
0
0
0
0
0
0
0
0
0
0
0
0
7.80142e-06
1.68152e-05
1.7212e-05
1.40992e-05
1.03984e-05
7.38122e-06
4.92849e-06
3.07804e-06
1.58928e-06
4.77562e-07
0
0
0
0
0
0
0
0
0
0
0
0
0
4.68809e-07
3.99321e-07
0
0
0
0
1.38726e-07
2.29515e-07
2.63617e-07
2.69063e-07
2.59163e-07
2.38822e-07
2.0811e-07
1.68645e-07
1.26344e-07
8.80256e-08
6.08001e-08
5.11806e-08
6.72442e-08
1.21331e-07
2.33735e-07
4.32701e-07
7.06433e-07
5.68763e-07
0
0
0
0
0
0
0
0
0
0
0
0
0
0
0
0
0
0
0
0
0
0
0
0
0
0
0
5.56453e-09
1.00417e-08
8.32494e-09
0
0
0
0
0
0
0
0
0
0
0
0
0
0
0
0
0
0
0
0
0
0
0
0
0
0
0
0
0
0
0
0
0
0
0
0
0
0
0
0
0
0
0
0
0
0
0
0
0
0
0
0
0
0
0
0
0
0
0
0
0
0
0
0
0
0
0
0
0
0
0
0
0
0
0
0
0
0
0
0
0
0
0
0
0
0
8.40965e-09
4.71778e-07
5.16261e-07
3.40915e-07
4.7165e-08
0
0
0
1.21588e-06
0
0
0
0
0
0
0
2.20418e-05
2.90761e-05
2.93422e-05
2.61553e-05
2.08364e-05
1.50732e-05
1.03003e-05
6.51581e-06
3.7253e-06
1.78344e-06
5.1671e-07
0
0
0
0
0
0
0
0
0
0
0
0
0
0
0
0
0
0
0
7.8826e-08
1.68882e-07
1.86677e-07
1.72076e-07
1.44195e-07
1.09469e-07
6.9734e-08
2.69887e-08
0
0
0
0
0
0
9.00006e-08
2.12339e-07
2.93555e-07
1.51082e-07
0
0
0
6.37735e-09
9.47227e-08
1.23572e-07
1.16537e-07
8.65186e-08
4.55784e-08
7.83453e-09
0
0
0
0
0
0
0
0
0
0
0
0
0
1.90694e-08
2.81677e-08
2.20206e-08
8.30643e-09
0
0
0
0
0
0
0
0
0
0
0
0
0
0
0
0
0
0
0
0
0
0
0
0
0
0
0
0
0
0
0
0
0
0
0
0
0
0
0
0
0
0
0
0
0
0
0
0
0
0
0
0
0
0
0
0
0
0
0
0
0
0
0
0
0
0
0
0
0
0
0
0
0
0
0
0
0
0
0
0
0
0
0
0
0
0
0
0
0
0
1.01901e-08
0
1.6301e-09
5.04528e-09
3.90683e-07
6.87397e-06
9.58522e-06
1.01706e-05
7.73143e-06
2.81911e-06
1.56053e-06
1.81158e-06
5.27193e-06
2.31698e-05
3.87893e-05
3.63951e-05
3.46546e-05
3.56729e-05
3.71488e-05
3.40303e-05
2.48096e-05
1.56923e-05
9.07386e-06
4.67768e-06
1.85187e-06
1.80054e-07
0
0
0
0
0
0
0
0
0
0
0
0
0
0
0
0
0
0
0
4.08574e-08
8.36831e-08
7.75865e-08
5.87309e-08
3.8513e-08
1.48864e-08
0
0
0
0
0
0
0
0
1.27536e-07
3.27903e-07
4.73447e-07
3.31873e-07
5.9436e-09
0
2.19015e-07
4.49483e-07
5.77828e-07
6.0617e-07
5.75598e-07
4.90061e-07
3.8281e-07
2.76283e-07
1.82366e-07
1.08059e-07
5.27048e-08
1.07335e-08
0
0
0
0
0
0
0
0
0
0
0
0
0
0
0
0
0
0
0
0
0
0
0
0
0
0
0
0
0
0
0
0
0
0
0
0
0
0
0
0
0
0
0
0
0
0
0
0
0
0
0
0
0
0
0
0
0
0
0
0
0
0
0
0
0
0
0
0
0
0
0
0
0
0
0
0
0
0
0
0
0
0
0
0
0
0
0
0
0
0
0
0
0
0
0
0
0
0
0
0
0
0
0
0
0
0
1.03299e-07
2.79214e-06
6.2738e-06
5.81173e-06
5.75674e-06
5.41609e-06
3.68309e-06
3.28914e-06
5.00932e-06
1.03246e-05
1.94783e-05
2.46302e-05
2.23694e-05
1.85798e-05
1.58991e-05
1.45069e-05
1.6605e-05
2.2474e-05
2.00662e-05
1.0764e-05
2.92255e-06
0
0
0
0
0
0
0
0
0
0
0
0
0
0
0
0
0
0
0
0
0
0
1.87581e-08
1.30647e-08
4.18854e-09
0
0
0
0
0
0
0
0
1.29858e-07
4.85896e-07
1.05862e-06
1.84191e-06
2.37932e-06
7.71147e-07
0
0
0
0
2.2082e-07
5.01266e-07
6.10922e-07
5.88132e-07
5.10954e-07
3.94177e-07
2.85747e-07
2.02685e-07
1.4368e-07
1.05305e-07
7.65048e-08
4.58745e-08
1.07717e-08
0
0
0
0
0
0
0
0
0
0
0
0
0
0
0
0
0
0
0
0
0
0
0
0
0
0
0
0
0
0
0
0
0
0
0
0
0
0
0
0
0
0
0
0
0
0
0
0
0
0
0
0
0
0
0
0
0
7.64373e-10
0
0
0
0
0
0
0
0
0
0
0
0
0
0
0
0
0
0
0
0
0
0
0
0
0
0
0
0
0
0
0
0
0
0
0
0
0
0
0
0
0
0
0
0
0
0
1.48407e-06
3.77587e-06
3.80687e-06
3.62652e-06
3.56813e-06
2.76039e-06
2.18045e-06
2.72775e-06
4.77755e-06
8.12853e-06
1.03581e-05
9.18399e-06
5.57847e-06
1.4275e-06
0
0
0
0
0
0
0
0
5.1738e-07
4.12363e-07
2.81399e-07
1.18408e-07
0
0
0
0
0
0
0
0
0
0
0
0
0
0
0
0
0
0
0
0
0
0
0
0
0
0
2.768e-07
8.08602e-07
1.7389e-06
3.31155e-06
5.91323e-06
8.83329e-06
0
0
0
0
0
0
6.64381e-08
4.12926e-07
5.33409e-07
5.1721e-07
4.27625e-07
3.19986e-07
2.30619e-07
1.67305e-07
1.27467e-07
1.09544e-07
9.84996e-08
7.6622e-08
3.6477e-08
0
0
0
0
0
0
0
0
0
0
0
0
0
0
0
0
0
0
0
0
0
0
0
0
0
0
0
0
0
3.75818e-09
0
0
0
0
0
0
0
0
0
0
0
0
0
0
0
0
0
4.33132e-10
4.62565e-10
0
0
0
0
0
0
0
5.19498e-09
4.87165e-09
0
0
0
0
0
0
0
0
0
0
0
0
0
0
0
0
0
0
0
0
0
0
0
0
0
0
0
0
0
0
0
0
0
0
0
0
0
0
0
0
0
0
0
0
0
0
2.03851e-06
2.84896e-06
2.63443e-06
2.55664e-06
2.27809e-06
1.57526e-06
1.2901e-06
1.66235e-06
2.48173e-06
3.03675e-06
2.60514e-06
1.45775e-06
3.93707e-07
0
0
0
3.94187e-07
7.76286e-07
1.08567e-06
1.39112e-06
1.72585e-06
1.05518e-06
8.05213e-07
6.09791e-07
4.37505e-07
3.15821e-07
2.62187e-07
0
0
0
0
0
0
0
0
0
0
0
0
0
0
0
0
0
0
0
0
0
0
0
2.26018e-07
7.10614e-07
1.56013e-06
2.94395e-06
4.86845e-06
6.35163e-06
2.85627e-06
0
0
0
0
0
0
0
1.32321e-07
3.91417e-07
4.42514e-07
4.00488e-07
3.32364e-07
2.64269e-07
1.99802e-07
1.46718e-07
1.12411e-07
9.50695e-08
8.19944e-08
5.98599e-08
2.2843e-08
0
0
0
0
7.21049e-08
1.59351e-07
1.48221e-07
7.95898e-08
0
0
0
0
0
0
0
0
0
0
0
0
0
0
0
0
0
0
0
0
2.20999e-08
3.13385e-08
2.11006e-08
8.40678e-09
1.58596e-09
7.67985e-10
1.55669e-09
0
0
0
0
0
0
0
0
0
0
0
0
1.99001e-09
3.93858e-09
2.67608e-09
8.03787e-10
0
0
0
0
0
2.02042e-09
0
0
0
0
0
0
0
0
0
0
0
0
0
0
0
0
0
0
0
0
0
0
0
0
0
0
0
0
0
0
0
0
0
0
0
0
0
0
0
0
0
0
0
0
0
0
3.31456e-07
2.09672e-06
2.55262e-06
2.26252e-06
2.09918e-06
1.7171e-06
1.04395e-06
6.66651e-07
6.21191e-07
6.55803e-07
5.98094e-07
5.47721e-07
6.59558e-07
8.72917e-07
1.11995e-06
1.29563e-06
1.4799e-06
1.61422e-06
1.84937e-06
2.0319e-06
1.55837e-06
1.21978e-06
1.01054e-06
8.74119e-07
9.14997e-07
1.26288e-06
2.28949e-07
0
0
1.59233e-08
6.34091e-08
1.05672e-07
1.17833e-07
8.79598e-08
1.90261e-08
0
0
0
0
0
3.17072e-10
0
0
0
0
0
0
0
0
6.05853e-08
3.59023e-07
8.9083e-07
1.68615e-06
2.54401e-06
2.81165e-06
1.31327e-06
0
0
0
0
0
0
0
0
0
2.2621e-07
3.52793e-07
3.43798e-07
3.05976e-07
2.52684e-07
1.86693e-07
1.38059e-07
1.23335e-07
1.20556e-07
9.9056e-08
5.18824e-08
0
0
0
0
0
0
0
0
0
0
0
0
0
0
0
0
0
0
0
0
0
0
1.84765e-09
8.41659e-09
1.41444e-08
1.6826e-08
1.18433e-08
3.18275e-09
7.1448e-09
2.59529e-08
4.22209e-08
4.54859e-08
3.5467e-08
2.49123e-08
1.87606e-08
1.65549e-08
1.58127e-08
1.27143e-08
5.5049e-09
0
0
0
0
0
0
0
0
0
0
1.57708e-09
5.6925e-09
5.52181e-09
3.77447e-09
2.04578e-09
3.33478e-10
0
0
0
0
0
0
0
0
0
0
0
0
0
0
0
0
0
0
0
0
0
0
0
0
0
0
0
0
0
0
0
0
0
0
0
0
0
0
0
0
0
0
0
0
0
0
0
0
0
0
4.64057e-07
2.2018e-06
3.2827e-06
3.16356e-06
2.07614e-06
7.7815e-07
0
0
0
0
0
1.39452e-09
4.04374e-07
7.25395e-07
9.77429e-07
1.23003e-06
1.55723e-06
1.85439e-06
1.76068e-06
1.50982e-06
1.30864e-06
1.24098e-06
1.52714e-06
1.97861e-06
6.16884e-07
4.36711e-08
0
0
0
7.08546e-08
1.72287e-07
2.45368e-07
2.66512e-07
2.277e-07
1.44174e-07
5.23219e-08
0
0
1.72471e-08
3.38156e-08
2.82599e-08
2.32534e-09
0
0
0
0
0
0
0
0
1.74673e-07
2.85594e-07
9.90255e-08
0
0
0
0
0
0
0
0
0
0
0
1.32281e-07
3.16652e-07
2.9074e-07
2.57464e-07
2.37412e-07
1.71914e-07
8.44817e-08
5.82816e-08
1.07962e-07
1.47057e-07
9.26785e-08
0
0
0
0
0
0
0
0
0
0
0
0
0
0
0
0
7.03007e-09
4.00541e-08
4.09732e-08
3.05627e-08
2.63394e-08
2.95158e-08
2.95585e-08
2.60498e-08
2.70502e-08
3.19548e-08
3.90977e-08
3.79269e-08
3.31369e-08
4.25434e-08
5.63197e-08
5.9033e-08
5.14509e-08
3.80937e-08
3.08587e-08
2.98124e-08
2.87116e-08
2.54756e-08
2.01741e-08
1.20829e-08
1.3962e-09
0
0
0
0
0
0
0
0
0
9.74505e-10
6.25641e-09
6.32595e-09
3.31873e-09
2.08882e-10
0
0
0
0
0
0
0
0
0
0
0
0
0
0
0
0
0
0
0
0
0
0
0
0
0
0
0
0
0
0
0
0
0
0
0
0
0
0
0
0
0
0
0
0
0
0
0
0
0
0
0
2.12061e-07
1.69968e-06
3.83394e-06
5.19368e-06
0
0
0
0
0
0
0
0
0
0
4.6243e-08
8.56914e-07
1.293e-06
1.3284e-06
1.2445e-06
1.25338e-06
1.52709e-06
1.52355e-06
7.85485e-07
2.42126e-07
0
0
0
0
0
9.93946e-08
2.05244e-07
2.73512e-07
2.96508e-07
2.68179e-07
1.94447e-07
1.09953e-07
5.89365e-08
5.34424e-08
6.42205e-08
6.56087e-08
4.6472e-08
1.71567e-08
0
0
0
0
0
0
0
0
0
0
0
0
0
0
0
0
0
0
0
0
0
1.40932e-07
3.26172e-07
2.39414e-07
1.35258e-07
1.29929e-07
1.34556e-07
4.73087e-08
0
0
3.95102e-08
1.10676e-07
3.53295e-08
0
0
0
0
0
0
0
0
0
0
0
0
0
0
0
2.56249e-08
4.72057e-08
6.15906e-08
5.94016e-08
5.53877e-08
5.56404e-08
5.77936e-08
5.61493e-08
5.69143e-08
6.27969e-08
6.4911e-08
6.48189e-08
6.06691e-08
6.15035e-08
6.94456e-08
6.90748e-08
5.60957e-08
3.63387e-08
2.28573e-08
2.54789e-08
3.49997e-08
3.66702e-08
2.89531e-08
1.77983e-08
6.6074e-09
0
0
0
0
0
0
0
0
0
0
5.8603e-10
4.11901e-09
1.55475e-09
0
0
0
0
0
0
0
0
0
0
0
0
0
0
0
0
0
0
0
0
0
0
0
0
0
0
0
0
0
0
0
0
0
0
0
0
0
0
0
0
0
0
0
0
0
0
0
0
0
0
0
0
0
0
7.70431e-07
2.14185e-06
1.45498e-06
0
0
0
0
0
0
0
0
0
0
1.93559e-07
5.32083e-07
6.88274e-07
8.18954e-07
9.74826e-07
9.57879e-07
6.9695e-07
4.06015e-07
1.75246e-07
8.27138e-09
0
0
0
0
0
8.32545e-08
1.65902e-07
2.25753e-07
2.4923e-07
2.26785e-07
1.68924e-07
1.09443e-07
7.98909e-08
7.94564e-08
8.7616e-08
8.36787e-08
6.74612e-08
5.81934e-08
6.73018e-08
6.57633e-08
5.37553e-09
0
0
0
0
0
0
0
0
0
0
0
0
0
0
0
0
0
1.59198e-07
3.17598e-07
2.50039e-07
7.7686e-08
0
3.48895e-08
4.61929e-08
0
0
0
0
1.23006e-08
8.87217e-09
0
0
0
0
0
0
0
0
1.48842e-08
3.569e-08
2.02164e-08
8.34835e-09
1.52096e-08
4.13204e-08
5.90502e-08
6.19045e-08
7.23511e-08
7.74042e-08
7.60973e-08
7.81523e-08
8.04043e-08
8.03619e-08
8.26129e-08
9.12951e-08
9.54135e-08
8.63422e-08
7.38938e-08
6.4044e-08
6.21572e-08
6.21085e-08
5.60357e-08
4.06664e-08
2.1758e-08
1.61644e-08
2.91903e-08
4.42682e-08
4.54663e-08
3.37058e-08
1.56549e-08
0
0
0
0
0
0
0
0
0
0
0
0
0
0
0
0
0
0
0
0
0
0
0
0
0
0
0
0
0
0
0
0
0
0
0
0
0
0
0
0
0
0
0
0
0
0
0
0
0
0
0
0
0
0
0
0
0
0
0
0
0
0
0
0
0
0
0
0
4.04565e-08
8.12081e-07
0
0
0
0
0
0
0
0
0
0
1.67121e-07
3.24839e-07
4.47273e-07
5.36687e-07
5.75111e-07
5.20276e-07
4.08713e-07
2.86585e-07
1.55078e-07
4.27165e-08
0
0
0
0
0
6.22723e-09
6.73705e-08
1.21531e-07
1.57645e-07
1.66656e-07
1.47099e-07
1.10531e-07
7.96639e-08
6.90766e-08
7.5134e-08
8.19974e-08
7.97051e-08
7.90985e-08
9.862e-08
1.25423e-07
1.17963e-07
4.73172e-08
0
0
0
0
0
0
0
0
0
0
0
0
0
0
0
0
1.80343e-07
3.01552e-07
2.9382e-07
1.35325e-07
0
0
0
8.00733e-10
0
0
0
0
0
0
0
0
0
0
0
0
0
2.2557e-08
6.89201e-08
6.12341e-08
4.49331e-08
4.21539e-08
5.39442e-08
6.25083e-08
6.18255e-08
6.72851e-08
7.81085e-08
8.52018e-08
9.37616e-08
9.61581e-08
9.07313e-08
8.97959e-08
9.91199e-08
1.10936e-07
1.0968e-07
1.02834e-07
9.24796e-08
7.56023e-08
5.58151e-08
4.62358e-08
4.51978e-08
3.9412e-08
3.20358e-08
3.33991e-08
4.49154e-08
5.24264e-08
4.71854e-08
3.17959e-08
1.08872e-08
0
0
0
0
0
0
0
0
0
0
0
0
0
0
0
0
0
0
0
0
0
0
0
0
0
0
0
0
0
0
0
0
0
0
0
0
0
0
0
0
0
0
0
0
0
0
0
0
0
0
0
0
0
0
0
0
0
0
0
0
0
0
0
0
0
0
0
0
0
0
0
0
0
0
3.83946e-08
7.22762e-08
9.74624e-08
1.19374e-07
1.52042e-07
1.94035e-07
2.36298e-07
2.73491e-07
2.99304e-07
3.11726e-07
2.98805e-07
2.55053e-07
2.01519e-07
1.28302e-07
5.84234e-08
3.43282e-10
0
0
0
0
0
1.53675e-08
4.25462e-08
6.58589e-08
8.10573e-08
8.24622e-08
6.94284e-08
5.05169e-08
3.82473e-08
3.83755e-08
4.62943e-08
4.98207e-08
4.96175e-08
6.23395e-08
9.03403e-08
1.14613e-07
1.1601e-07
7.58008e-08
0
0
0
0
0
0
0
0
0
0
0
0
0
0
0
2.47327e-07
3.53065e-07
3.26052e-07
2.06951e-07
3.29104e-08
0
0
0
0
0
0
0
0
0
0
0
0
0
0
0
0
5.4121e-08
1.04947e-07
1.01329e-07
8.48767e-08
7.40009e-08
7.11453e-08
6.42526e-08
5.3628e-08
4.98469e-08
5.82122e-08
7.59265e-08
9.84235e-08
1.12403e-07
1.10223e-07
1.06592e-07
1.10654e-07
1.20962e-07
1.23072e-07
1.1763e-07
1.09407e-07
9.42147e-08
7.14361e-08
4.63791e-08
3.87973e-08
4.30711e-08
4.65058e-08
4.87343e-08
5.12136e-08
5.35415e-08
5.03023e-08
3.92675e-08
2.33745e-08
5.14161e-09
0
0
0
0
0
2.02692e-09
5.24361e-09
5.8888e-09
1.65084e-09
0
0
0
0
0
0
0
0
0
0
0
0
2.2062e-08
0
0
0
0
0
0
0
0
0
0
0
0
0
0
0
0
0
0
0
0
0
0
0
0
0
0
0
0
0
0
0
0
0
0
0
0
0
0
0
0
0
0
0
0
0
0
0
2.14247e-07
3.78556e-07
3.92785e-07
3.35626e-07
2.57632e-07
1.85947e-07
1.38589e-07
1.10189e-07
1.00439e-07
1.03581e-07
1.13879e-07
1.25493e-07
1.37191e-07
1.43902e-07
1.48407e-07
1.42339e-07
1.26686e-07
9.43188e-08
5.19466e-08
1.40344e-08
0
0
0
0
0
0
0
4.18225e-10
7.99587e-09
1.2631e-08
1.13475e-08
3.94999e-09
0
0
0
0
0
0
0
1.50724e-08
4.01045e-08
6.61205e-08
1.06969e-07
1.93791e-07
3.65784e-07
6.45637e-07
9.60949e-07
1.17537e-06
1.00479e-06
0
0
0
0
0
0
0
0
3.22458e-07
4.7489e-07
4.2136e-07
2.82177e-07
1.19086e-07
0
0
0
0
0
0
0
0
0
0
0
0
0
0
0
4.41515e-09
9.71823e-08
1.30792e-07
1.30543e-07
1.13749e-07
1.02712e-07
1.04237e-07
1.02026e-07
8.81561e-08
7.23869e-08
6.79628e-08
8.06235e-08
1.04308e-07
1.23168e-07
1.28879e-07
1.25655e-07
1.24337e-07
1.2584e-07
1.22849e-07
1.13408e-07
1.05019e-07
9.64029e-08
8.55262e-08
6.57012e-08
4.58299e-08
4.17791e-08
4.72363e-08
5.42843e-08
5.82102e-08
5.62076e-08
5.10118e-08
4.25292e-08
3.09336e-08
1.79455e-08
4.25509e-09
0
0
0
3.24984e-09
1.05829e-08
1.17345e-08
1.01879e-08
6.91826e-09
0
0
0
0
0
0
0
0
0
0
0
0
0
2.68286e-08
0
0
0
0
0
0
0
0
0
0
0
0
0
0
0
0
0
0
0
0
0
0
0
0
0
0
0
0
0
0
0
0
0
0
0
0
0
0
0
0
6.07519e-08
8.43882e-08
3.00969e-08
0
0
0
3.6227e-07
3.43292e-07
3.27147e-07
2.6671e-07
1.75839e-07
9.15137e-08
4.69949e-08
3.06018e-08
2.60966e-08
2.5783e-08
2.8272e-08
3.09425e-08
3.45995e-08
3.92619e-08
4.67362e-08
5.84933e-08
7.27989e-08
7.06033e-08
3.71295e-08
5.22806e-09
0
0
0
0
0
0
0
0
0
0
0
0
0
0
0
0
0
0
0
0
0
0
2.77851e-08
2.25675e-07
6.28935e-07
1.36917e-06
2.41202e-06
3.72437e-06
5.02647e-06
3.88341e-06
0
0
0
0
0
0
0
4.63485e-07
6.52008e-07
5.4237e-07
3.1836e-07
1.39018e-07
1.22251e-07
9.37203e-08
2.20632e-08
0
0
0
0
0
0
0
0
0
9.30117e-09
5.84565e-08
4.37736e-08
1.04669e-07
1.71424e-07
1.928e-07
1.83065e-07
1.60992e-07
1.31803e-07
1.24243e-07
1.2409e-07
1.1745e-07
1.06386e-07
9.95259e-08
1.03764e-07
1.16388e-07
1.29322e-07
1.37245e-07
1.37081e-07
1.32488e-07
1.27901e-07
1.20602e-07
1.08109e-07
9.72e-08
9.28684e-08
9.25497e-08
8.5478e-08
6.58032e-08
4.97054e-08
4.67363e-08
5.21792e-08
5.85381e-08
5.84461e-08
5.16388e-08
4.38514e-08
3.53466e-08
2.62678e-08
1.68815e-08
7.38137e-09
2.03295e-09
3.26797e-09
9.70541e-09
1.66106e-08
1.73984e-08
1.37613e-08
9.67753e-09
3.57831e-09
0
0
0
0
0
0
0
0
0
0
0
0
2.54789e-08
8.75813e-09
0
0
0
0
0
0
0
0
0
0
0
0
0
0
0
0
0
0
0
0
0
0
0
0
0
0
0
0
0
0
0
0
0
0
0
0
0
0
7.97233e-08
1.76212e-07
2.05567e-07
1.32151e-07
0
0
0
0
1.06744e-08
5.76095e-08
7.39669e-08
4.62752e-08
0
0
0
0
0
0
0
0
0
0
9.59469e-09
5.11662e-08
8.12422e-08
4.35788e-08
1.66688e-09
0
0
0
0
0
0
0
0
0
0
0
0
0
0
0
0
0
0
0
0
0
0
0
7.62272e-08
4.90754e-07
1.37486e-06
2.80528e-06
5.00432e-06
8.64533e-06
1.20263e-05
0
0
0
0
0
0
7.18311e-08
5.94354e-07
7.80436e-07
6.07664e-07
2.92297e-07
9.83053e-08
3.12824e-07
1.92984e-07
5.8134e-08
0
0
0
0
1.57303e-09
1.00011e-09
0
0
0
1.55599e-08
5.27313e-08
1.0193e-07
1.91681e-07
2.44782e-07
2.49132e-07
2.32908e-07
2.10024e-07
1.70525e-07
1.42474e-07
1.33568e-07
1.30431e-07
1.26456e-07
1.26569e-07
1.30656e-07
1.35624e-07
1.38805e-07
1.40644e-07
1.41259e-07
1.382e-07
1.33153e-07
1.26389e-07
1.1499e-07
1.02113e-07
9.60381e-08
9.81314e-08
1.00261e-07
8.69068e-08
6.38047e-08
5.06989e-08
5.01399e-08
5.62529e-08
5.87414e-08
5.31596e-08
4.52598e-08
3.82216e-08
3.18298e-08
2.58259e-08
1.91213e-08
1.32845e-08
1.22439e-08
1.60484e-08
2.11232e-08
2.1052e-08
1.62299e-08
1.12487e-08
6.17676e-09
0
0
0
0
0
0
0
0
0
0
0
0
0
2.08162e-08
0
0
0
0
0
0
0
0
0
0
0
0
0
0
0
0
0
0
0
0
0
0
0
0
0
0
0
0
0
0
0
0
0
0
0
0
0
3.06855e-08
1.21875e-07
1.8569e-07
1.58863e-07
4.03027e-08
0
0
0
0
0
0
0
0
0
0
0
0
0
0
0
0
0
0
0
5.55371e-08
1.7137e-07
1.30285e-07
1.48706e-08
0
0
0
0
0
0
0
0
0
0
0
0
0
0
0
0
0
0
0
0
0
0
0
0
2.24044e-07
9.084e-07
2.14515e-06
4.11529e-06
7.75067e-06
1.30305e-05
0
0
0
0
0
0
2.13866e-07
7.65486e-07
9.26621e-07
6.52711e-07
1.94138e-07
1.48419e-07
5.30101e-07
2.46468e-07
7.30448e-08
0
0
0
0
7.98031e-10
1.48091e-08
1.00835e-08
8.84077e-10
0
2.12051e-08
1.02681e-07
2.3016e-07
3.02539e-07
3.05258e-07
2.75213e-07
2.48513e-07
2.26615e-07
1.93042e-07
1.60054e-07
1.43037e-07
1.38282e-07
1.39374e-07
1.46983e-07
1.55069e-07
1.59384e-07
1.57097e-07
1.49851e-07
1.45117e-07
1.42839e-07
1.39574e-07
1.34852e-07
1.2698e-07
1.15858e-07
1.08244e-07
1.08229e-07
1.12608e-07
1.05367e-07
8.02055e-08
5.76239e-08
5.00022e-08
5.39308e-08
5.83997e-08
5.50624e-08
4.74761e-08
4.07137e-08
3.58981e-08
3.2345e-08
2.83688e-08
2.32836e-08
2.06226e-08
2.21726e-08
2.50677e-08
2.34382e-08
1.69737e-08
1.11806e-08
7.09287e-09
7.25977e-10
0
0
0
0
0
0
0
0
0
0
0
0
0
2.09375e-10
0
0
0
0
0
0
0
0
0
0
0
0
0
0
0
0
0
0
0
0
0
0
0
0
0
0
0
0
0
1.15261e-08
5.98594e-09
0
0
1.05138e-08
2.85493e-08
2.73722e-08
1.69759e-08
1.62154e-08
2.28866e-08
1.47174e-09
0
0
0
0
0
0
0
0
0
0
0
0
0
0
0
0
0
0
0
0
0
1.56064e-07
1.44075e-07
0
0
0
0
0
0
0
0
0
0
0
0
0
0
0
0
0
0
0
0
0
0
0
0
0
0
4.26703e-07
1.25117e-06
2.44548e-06
4.31896e-06
5.43143e-06
0
0
0
0
0
0
3.34985e-07
9.07519e-07
9.88887e-07
5.85946e-07
0
6.52981e-07
7.66301e-07
3.11932e-07
9.09213e-08
0
0
0
0
0
3.4565e-08
3.78147e-08
2.01259e-08
1.40583e-08
7.35799e-08
3.12349e-07
3.33698e-07
3.44478e-07
3.17257e-07
2.77459e-07
2.43976e-07
2.17183e-07
1.94295e-07
1.72848e-07
1.57235e-07
1.50548e-07
1.51039e-07
1.6e-07
1.73754e-07
1.80336e-07
1.78001e-07
1.6775e-07
1.55895e-07
1.5106e-07
1.48198e-07
1.44598e-07
1.39084e-07
1.30935e-07
1.23055e-07
1.20756e-07
1.24084e-07
1.20782e-07
9.68933e-08
6.69901e-08
5.18345e-08
5.19295e-08
5.8079e-08
5.7688e-08
5.04863e-08
4.31672e-08
3.8808e-08
3.68944e-08
3.51867e-08
3.14855e-08
2.79414e-08
2.76649e-08
2.87115e-08
2.54529e-08
1.68257e-08
9.30361e-09
5.94256e-09
1.88784e-09
0
0
0
0
0
0
0
0
0
0
0
0
0
0
0
0
0
0
0
0
0
0
0
0
0
0
0
0
0
0
0
0
0
0
0
0
0
0
0
0
0
0
0
2.15981e-08
3.02096e-08
2.24554e-08
1.06952e-08
2.12282e-10
0
0
0
0
0
0
0
0
0
0
0
0
0
1.70523e-08
1.27896e-08
0
0
0
0
0
3.73481e-09
7.11766e-09
1.04076e-08
1.47588e-08
1.93245e-08
2.07972e-08
2.92469e-09
0
0
0
0
0
0
0
0
0
0
0
0
0
0
0
0
0
0
0
0
0
0
0
0
0
0
0
0
8.43564e-08
5.76464e-07
1.21565e-06
1.95527e-06
1.94296e-06
0
0
0
0
0
0
4.28986e-07
1.04087e-06
1.03466e-06
4.56656e-07
0
1.78867e-06
1.04515e-06
4.27318e-07
1.28259e-07
2.99177e-10
0
0
0
1.41572e-08
9.59054e-08
1.14019e-07
8.66366e-08
9.17652e-08
2.87414e-07
2.72262e-07
2.65475e-07
2.73181e-07
2.64905e-07
2.42468e-07
2.13598e-07
1.88407e-07
1.81518e-07
1.78304e-07
1.72184e-07
1.6575e-07
1.63298e-07
1.66991e-07
1.81325e-07
1.92204e-07
1.9236e-07
1.84598e-07
1.70197e-07
1.61633e-07
1.58252e-07
1.55027e-07
1.50452e-07
1.43441e-07
1.36429e-07
1.31735e-07
1.31927e-07
1.29992e-07
1.10425e-07
7.7597e-08
5.59065e-08
5.15354e-08
5.76672e-08
6.01239e-08
5.35303e-08
4.51195e-08
4.01802e-08
3.89763e-08
3.90312e-08
3.70879e-08
3.35574e-08
3.19953e-08
3.16343e-08
2.69834e-08
1.62206e-08
6.07429e-09
2.20532e-09
7.62979e-10
0
0
0
0
0
0
0
0
0
0
0
0
0
0
0
0
0
0
0
0
0
0
0
0
0
0
0
0
0
0
0
0
0
0
0
0
0
0
0
0
0
0
0
0
0
2.13963e-09
3.18932e-09
0
0
0
0
0
0
3.694e-09
4.37431e-08
5.52096e-08
1.11155e-08
0
0
0
1.29191e-08
6.61802e-08
9.16563e-08
7.48343e-08
2.77981e-08
0
0
0
9.99792e-09
2.19573e-08
3.5136e-08
5.36564e-08
8.23086e-08
1.24849e-07
1.49212e-07
0
0
1.34926e-07
6.90293e-08
0
0
0
0
0
0
0
0
0
0
0
0
0
0
0
0
0
0
0
0
0
0
0
0
0
1.70675e-07
5.27072e-07
8.41108e-07
7.63544e-07
0
0
0
0
0
0
4.98593e-07
1.08333e-06
9.54098e-07
1.89969e-07
0
2.68784e-06
1.34267e-06
5.98277e-07
1.9633e-07
1.60613e-08
0
0
0
5.73011e-08
1.2376e-07
1.29007e-07
1.2845e-07
1.89835e-07
2.17434e-07
2.06328e-07
2.14054e-07
2.15803e-07
2.15455e-07
2.0206e-07
1.7815e-07
1.59589e-07
1.58928e-07
1.69911e-07
1.7747e-07
1.76168e-07
1.71174e-07
1.69581e-07
1.75749e-07
1.88422e-07
1.92307e-07
1.88752e-07
1.77937e-07
1.66897e-07
1.62263e-07
1.59269e-07
1.54955e-07
1.48181e-07
1.40847e-07
1.34924e-07
1.31518e-07
1.2825e-07
1.13212e-07
8.39382e-08
5.99958e-08
5.19059e-08
5.54735e-08
5.92905e-08
5.40477e-08
4.49435e-08
3.8942e-08
3.75027e-08
3.85165e-08
3.83667e-08
3.59401e-08
3.40676e-08
3.28893e-08
2.71633e-08
1.47496e-08
2.05899e-09
0
0
0
0
0
0
0
0
0
1.06488e-08
0
0
0
0
0
0
0
0
0
0
0
0
0
0