/*--------------------------------*- C++ -*----------------------------------*\
  =========                 |
  \\      /  F ield         | OpenFOAM: The Open Source CFD Toolbox
   \\    /   O peration     | Website:  https://openfoam.org
    \\  /    A nd           | Version:  7
     \\/     M anipulation  |
\*---------------------------------------------------------------------------*/
FoamFile
{
    version     2.0;
    format      ascii;
    class       volScalarField;
    location    "0.062";
    object      p;
}
// * * * * * * * * * * * * * * * * * * * * * * * * * * * * * * * * * * * * * //

dimensions      [0 2 -2 0 0 0 0];

internalField   nonuniform List<scalar> 
12225
(
-100.407
-97.9125
-97.7785
-98.3118
-98.8275
-99.1802
-99.3822
-99.4623
-99.4322
-99.3129
-99.1306
-98.8947
-98.5989
-98.2332
-97.7959
-97.2882
-96.7098
-96.0312
-99.5918
-97.8316
-97.7675
-98.3087
-98.8347
-99.1927
-99.397
-99.4771
-99.4454
-99.3231
-99.1378
-98.9
-98.6037
-98.2384
-97.8017
-97.2975
-96.7278
-96.0901
-99.4659
-97.6918
-97.7527
-98.3177
-98.8579
-99.2221
-99.4239
-99.4985
-99.4631
-99.3384
-99.1489
-98.905
-98.6033
-98.2378
-97.8066
-97.316
-96.7701
-96.1831
-98.4648
-97.4176
-97.7009
-98.317
-98.8793
-99.2553
-99.4594
-99.5309
-99.4927
-99.3649
-99.1695
-98.9184
-98.6123
-98.248
-97.8253
-97.3514
-96.8352
-96.2974
-97.0731
-97.0181
-97.6345
-98.3411
-98.9268
-99.3112
-99.5152
-99.581
-99.5364
-99.4029
-99.2014
-98.9453
-98.6367
-98.2742
-97.8598
-97.4025
-96.9154
-96.4213
-95.0454
-96.5147
-97.5569
-98.3713
-98.9848
-99.3791
-99.5847
-99.6456
-99.5947
-99.4552
-99.2475
-98.9855
-98.6734
-98.3127
-97.9074
-97.4678
-97.0086
-96.5517
-93.113
-96.0251
-97.4986
-98.438
-99.0778
-99.4784
-99.6819
-99.7342
-99.6731
-99.5249
-99.3099
-99.0421
-98.7276
-98.3694
-97.9733
-97.5501
-97.115
-96.6875
-91.6706
-95.6109
-97.4764
-98.5424
-99.205
-99.605
-99.8025
-99.845
-99.7737
-99.616
-99.3924
-99.1177
-98.7996
-98.443
-98.0549
-97.6466
-97.2319
-96.8275
-91.0376
-95.4131
-97.5617
-98.7159
-99.3881
-99.7785
-99.9616
-99.9878
-99.9002
-99.7287
-99.4946
-99.2127
-98.8914
-98.5367
-98.1557
-97.7594
-97.3605
-96.9726
-91.2155
-95.5046
-97.7764
-98.9702
-99.6319
-99.9966
-100.155
-100.161
-100.057
-99.8721
-99.6259
-99.3342
-99.0067
-98.6506
-98.2738
-97.8865
-97.4996
-97.1238
-91.2641
-95.906
-98.1624
-99.3314
-99.9555
-100.283
-100.406
-100.38
-100.251
-100.045
-99.7823
-99.4792
-99.1453
-98.7876
-98.4135
-98.0321
-97.6527
-97.2837
-92.861
-96.6596
-98.7353
-99.7993
-100.344
-100.604
-100.677
-100.617
-100.462
-100.236
-99.9571
-99.6405
-99.2968
-98.9337
-98.5585
-98.1792
-97.8036
-97.4381
-93.5884
-97.7341
-99.4792
-100.352
-100.797
-100.988
-101.007
-100.902
-100.712
-100.458
-100.157
-99.8251
-99.4709
-99.1016
-98.7233
-98.343
-97.9673
-97.6013
-97.5386
-99.5573
-100.616
-101.18
-101.444
-101.511
-101.436
-101.269
-101.035
-100.748
-100.422
-100.069
-99.6983
-99.3172
-98.9314
-98.547
-98.1687
-97.8004
-103.319
-102.077
-102.122
-102.247
-102.288
-102.208
-102.032
-101.784
-101.484
-101.144
-100.777
-100.393
-99.9993
-99.6012
-99.2029
-98.8087
-98.422
-98.0461
-105.977
-104.592
-103.98
-103.689
-103.439
-103.143
-102.808
-102.445
-102.061
-101.657
-101.239
-100.815
-100.389
-99.965
-99.5467
-99.1371
-98.7381
-98.3512
-108.8
-106.943
-105.971
-105.344
-104.814
-104.307
-103.812
-103.322
-102.829
-102.336
-101.846
-101.364
-100.893
-100.432
-99.9847
-99.5508
-99.1316
-98.7277
-109.097
-109.138
-108.233
-107.348
-106.53
-105.778
-105.076
-104.416
-103.789
-103.189
-102.614
-102.062
-101.533
-101.024
-100.537
-100.07
-99.6225
-99.1948
-117.386
-113.225
-111.07
-109.647
-108.493
-107.487
-106.578
-105.741
-104.96
-104.229
-103.546
-102.906
-102.303
-101.733
-101.195
-100.687
-100.205
-99.75
-113.255
-113.367
-112.468
-111.279
-110.079
-108.939
-107.875
-106.895
-105.992
-105.155
-104.378
-103.655
-102.982
-102.354
-101.768
-101.221
-100.707
-100.224
-113.037
-114.68
-113.982
-112.708
-111.371
-110.08
-108.876
-107.773
-106.765
-105.84
-104.991
-104.208
-103.486
-102.818
-102.198
-101.621
-101.082
-100.578
-121.154
-117.875
-115.839
-114.053
-112.422
-110.938
-109.599
-108.394
-107.306
-106.32
-105.421
-104.597
-103.839
-103.139
-102.492
-101.895
-101.34
-100.824
-122.966
-119.905
-117.353
-115.214
-113.364
-111.721
-110.257
-108.955
-107.793
-106.745
-105.795
-104.928
-104.137
-103.412
-102.744
-102.129
-101.558
-101.028
-125.075
-121.387
-118.467
-116.042
-113.971
-112.177
-110.627
-109.272
-108.072
-106.997
-106.024
-105.137
-104.325
-103.583
-102.903
-102.271
-101.691
-101.153
-127.685
-122.64
-119.31
-116.727
-114.545
-112.625
-110.991
-109.578
-108.333
-107.217
-106.212
-105.303
-104.475
-103.719
-103.026
-102.39
-101.801
-101.256
-127.621
-122.998
-119.735
-117.073
-114.783
-112.852
-111.189
-109.746
-108.476
-107.343
-106.324
-105.402
-104.565
-103.801
-103.101
-102.459
-101.866
-101.317
-127.227
-123.412
-120.168
-117.415
-115.019
-113.032
-111.343
-109.881
-108.591
-107.44
-106.406
-105.474
-104.63
-103.861
-103.157
-102.51
-101.914
-101.362
-126.506
-123.36
-120.294
-117.498
-115.109
-113.111
-111.415
-109.944
-108.645
-107.487
-106.449
-105.513
-104.665
-103.893
-103.186
-102.536
-101.937
-101.384
-127.419
-123.604
-120.456
-117.588
-115.177
-113.17
-111.465
-109.987
-108.683
-107.52
-106.477
-105.537
-104.687
-103.912
-103.203
-102.551
-101.95
-101.396
-126.83
-123.668
-120.512
-117.597
-115.188
-113.186
-111.48
-109.997
-108.69
-107.526
-106.484
-105.545
-104.695
-103.919
-103.209
-102.556
-101.955
-101.4
-90.1735
-90.2013
-90.2248
-90.1813
-90.0627
-89.8985
-89.7473
-89.6551
-89.6381
-89.6979
-89.8217
-89.9923
-90.1933
-90.4092
-90.6263
-90.8323
-91.0161
-91.1674
-91.2771
-91.3384
-91.3461
-91.2992
-91.2014
-91.0577
-90.8759
-90.6653
-90.4405
-90.2158
-90.0095
-89.8373
-89.7074
-89.6341
-89.5915
-89.5326
-89.4401
-89.3019
-89.1298
-88.9397
-88.733
-88.5025
-88.267
-88.0807
-87.8617
-87.5833
-87.3754
-87.2693
-87.1582
-86.9423
-86.6224
-86.4747
-86.575
-86.8897
-87.3611
-87.9357
-88.5693
-89.227
-89.8822
-90.5145
-91.1078
-91.6496
-92.1293
-92.5382
-92.8691
-93.1161
-93.2746
-93.3417
-93.3158
-93.197
-92.9866
-92.6873
-92.3031
-91.8376
-91.2974
-90.6896
-90.0219
-89.3019
-88.537
-87.7339
-86.8988
-86.0367
-85.1512
-84.2449
-83.3189
-82.3734
-81.4076
-80.4206
-79.4113
-78.3795
-77.3262
-76.2538
-75.1669
-74.0722
-72.9779
-71.8942
-70.8316
-69.8012
-68.8132
-67.8761
-66.9963
-66.1775
-65.4211
-64.726
-64.0891
-63.5053
-62.9683
-62.4711
-62.01
-61.574
-61.1604
-60.765
-60.3845
-60.0161
-59.6571
-59.3051
-58.9577
-58.6126
-58.2677
-57.9213
-57.572
-57.2189
-56.8611
-56.4983
-56.13
-55.7561
-55.3766
-54.9916
-54.6013
-54.2056
-53.8046
-53.3983
-52.9869
-52.5703
-52.1486
-51.722
-51.2903
-50.8538
-50.4124
-49.9662
-49.5152
-49.0593
-48.5987
-48.1331
-47.6627
-47.1874
-46.7073
-46.2223
-45.7325
-45.238
-44.7389
-44.2351
-43.7267
-43.2139
-42.6965
-42.1747
-41.6484
-41.1176
-40.5824
-40.0428
-39.4986
-38.95
-38.3969
-37.8393
-37.2772
-36.7105
-36.1393
-35.5634
-34.9829
-34.3976
-33.8077
-33.2128
-32.6131
-32.0082
-31.3983
-30.7828
-30.1621
-29.5357
-28.9041
-28.2686
-27.6268
-27.0069
-90.434
-90.4703
-90.5197
-90.4803
-90.3475
-90.1551
-89.9961
-89.9037
-89.89
-89.9518
-90.0736
-90.2387
-90.4321
-90.6401
-90.8502
-91.0508
-91.2305
-91.3789
-91.488
-91.5511
-91.5642
-91.5246
-91.432
-91.2903
-91.1075
-90.8943
-90.6637
-90.4302
-90.2095
-90.0201
-89.8725
-89.7723
-89.7142
-89.6188
-89.4666
-89.3018
-89.1377
-88.9564
-88.7391
-88.5142
-88.2626
-88.047
-87.9377
-87.7247
-87.2933
-87.0308
-87.1447
-87.1212
-86.9582
-86.9206
-87.0797
-87.4209
-87.8952
-88.4558
-89.064
-89.6899
-90.311
-90.9094
-91.471
-91.9836
-92.4369
-92.822
-93.1314
-93.3588
-93.4993
-93.5495
-93.5073
-93.3717
-93.144
-92.8269
-92.4253
-91.9457
-91.3935
-90.7751
-90.0978
-89.369
-88.5963
-87.7868
-86.9466
-86.0808
-85.1933
-84.2865
-83.3613
-82.4178
-81.4548
-80.4709
-79.4648
-78.4356
-77.384
-76.3123
-75.2249
-74.1283
-73.0312
-71.9437
-70.8768
-69.8417
-68.8489
-67.9074
-67.0237
-66.2017
-65.4426
-64.7456
-64.1074
-63.523
-62.9857
-62.4891
-62.0268
-61.5906
-61.1761
-60.7794
-60.3973
-60.0272
-59.6667
-59.3133
-58.9647
-58.6186
-58.273
-57.926
-57.5763
-57.2227
-56.8646
-56.5015
-56.133
-55.759
-55.3794
-54.9944
-54.6038
-54.2079
-53.8066
-53.4001
-52.9884
-52.5716
-52.1497
-51.7228
-51.291
-50.8544
-50.4128
-49.9665
-49.5154
-49.0595
-48.5988
-48.1332
-47.6628
-47.1875
-46.7074
-46.2224
-45.7327
-45.2382
-44.739
-44.2352
-43.7268
-43.2139
-42.6966
-42.1747
-41.6484
-41.1177
-40.5825
-40.0429
-39.4988
-38.9502
-38.3971
-37.8394
-37.2773
-36.7106
-36.1394
-35.5636
-34.9831
-34.3979
-33.808
-33.2132
-32.6136
-32.0089
-31.3991
-30.7839
-30.1635
-29.5376
-28.9063
-28.2718
-27.6301
-27.0053
-90.6731
-90.701
-90.7471
-90.7158
-90.5983
-90.4519
-90.3436
-90.298
-90.3193
-90.3994
-90.5267
-90.6901
-90.8793
-91.0832
-91.2899
-91.4873
-91.6639
-91.8094
-91.9149
-91.9729
-91.9783
-91.9285
-91.824
-91.6688
-91.471
-91.242
-90.9934
-90.739
-90.4886
-90.252
-90.0339
-89.8345
-89.6523
-89.4783
-89.3151
-89.1612
-89.0206
-88.8773
-88.723
-88.6033
-88.5418
-88.2499
-87.8279
-87.7608
-87.68
-87.5044
-87.4751
-87.5371
-87.6387
-87.8112
-88.0726
-88.4252
-88.8554
-89.3436
-89.8697
-90.4146
-90.9612
-91.4942
-91.9996
-92.465
-92.8789
-93.2312
-93.5128
-93.7163
-93.8356
-93.866
-93.805
-93.6515
-93.4061
-93.0717
-92.6523
-92.1533
-91.5811
-90.9432
-90.2473
-89.5017
-88.7141
-87.8921
-87.0422
-86.1696
-85.2783
-84.3705
-83.4471
-82.5074
-81.5499
-80.5722
-79.5721
-78.5482
-77.5001
-76.4298
-75.3414
-74.2414
-73.1388
-72.0441
-70.9687
-69.9245
-68.9226
-67.9725
-67.0812
-66.2528
-65.4887
-64.7879
-64.1471
-63.5612
-63.0234
-62.5282
-62.0649
-61.628
-61.2119
-60.8126
-60.4274
-60.0538
-59.6899
-59.3335
-58.9823
-58.634
-58.2865
-57.938
-57.587
-57.2323
-56.8732
-56.5092
-56.14
-55.7653
-55.385
-54.9993
-54.6082
-54.2118
-53.81
-53.403
-52.9909
-52.5737
-52.1514
-51.7242
-51.2921
-50.8552
-50.4134
-49.9669
-49.5156
-49.0595
-48.5987
-48.133
-47.6626
-47.1872
-46.707
-46.2221
-45.7323
-45.2379
-44.7387
-44.235
-43.7266
-43.2138
-42.6964
-42.1747
-41.6484
-41.1177
-40.5825
-40.0429
-39.4988
-38.9502
-38.3972
-37.8396
-37.2776
-36.711
-36.1398
-35.564
-34.9837
-34.3987
-33.8089
-33.2144
-32.6151
-32.0109
-31.4016
-30.7873
-30.1676
-29.5435
-28.9136
-28.2821
-27.6435
-27.0178
-90.749
-90.7629
-90.7896
-90.7953
-90.7644
-90.7301
-90.724
-90.7587
-90.8363
-90.9541
-91.1082
-91.2933
-91.5012
-91.7215
-91.9419
-92.1498
-92.3326
-92.4792
-92.5802
-92.629
-92.6223
-92.5568
-92.429
-92.2415
-92.0041
-91.7286
-91.427
-91.1113
-90.7932
-90.4821
-90.1827
-89.9021
-89.6419
-89.405
-89.1858
-88.9921
-88.8159
-88.6671
-88.6274
-88.5166
-88.376
-88.4329
-88.2289
-88.0466
-88.0121
-88.0464
-88.1434
-88.2886
-88.4839
-88.7322
-89.0343
-89.3887
-89.7909
-90.2325
-90.7032
-91.1908
-91.6825
-92.1651
-92.6257
-93.0517
-93.4313
-93.7533
-94.0082
-94.1873
-94.2836
-94.2918
-94.2086
-94.0323
-93.7631
-93.4048
-92.96
-92.4347
-91.8358
-91.1716
-90.4507
-89.6819
-88.8739
-88.0347
-87.1714
-86.2896
-85.3933
-84.4848
-83.5644
-82.6309
-81.6818
-80.7138
-79.7232
-78.7074
-77.6651
-76.5973
-75.5079
-74.4035
-73.2933
-72.1886
-71.1015
-70.0447
-69.0301
-68.0679
-67.1658
-66.3282
-65.5566
-64.8499
-64.2049
-63.6167
-63.0791
-62.5834
-62.1204
-61.683
-61.2651
-60.8626
-60.473
-60.0945
-59.7256
-59.3644
-59.0089
-58.657
-58.3065
-57.9554
-57.6022
-57.2457
-56.8851
-56.5198
-56.1493
-55.7736
-55.3925
-55.006
-54.6142
-54.2171
-53.8147
-53.4072
-52.9945
-52.5768
-52.1541
-51.7265
-51.2941
-50.8568
-50.4148
-49.9681
-49.5166
-49.0604
-48.5995
-48.1338
-47.6632
-47.1878
-46.7077
-46.2227
-45.7329
-45.2384
-44.7392
-44.2354
-43.7271
-43.2142
-42.6969
-42.1751
-41.6488
-41.1181
-40.5829
-40.0433
-39.4992
-38.9506
-38.3976
-37.8401
-37.278
-36.7114
-36.1403
-35.5647
-34.9844
-34.3995
-33.81
-33.2158
-32.6167
-32.013
-31.4042
-30.7908
-30.1721
-29.5495
-28.9213
-28.292
-27.6569
-27.0312
-90.7939
-90.7744
-90.8317
-90.8952
-90.9692
-91.0539
-91.1522
-91.2717
-91.4197
-91.6001
-91.8128
-92.0532
-92.312
-92.5766
-92.8327
-93.0666
-93.2658
-93.4196
-93.5185
-93.5552
-93.5237
-93.4237
-93.2529
-93.0157
-92.7198
-92.3757
-91.9962
-91.5939
-91.1824
-90.7744
-90.3847
-90.0173
-89.6815
-89.3733
-89.0865
-88.8445
-88.6575
-88.4771
-88.3691
-88.4475
-88.4386
-88.4274
-88.4449
-88.4831
-88.5745
-88.7173
-88.8988
-89.1079
-89.3477
-89.6226
-89.9348
-90.2835
-90.6662
-91.0785
-91.5139
-91.9639
-92.4183
-92.8656
-93.2936
-93.6903
-94.0436
-94.3424
-94.5761
-94.7354
-94.8126
-94.8017
-94.6983
-94.4999
-94.2066
-93.8182
-93.3409
-92.7816
-92.1485
-91.4507
-90.6977
-89.8996
-89.0658
-88.2054
-87.3258
-86.4332
-85.5316
-84.6231
-83.7076
-82.7831
-81.8459
-80.8911
-79.9137
-78.9092
-77.8749
-76.8109
-75.7206
-74.6109
-73.4915
-72.3747
-71.2737
-70.2018
-69.172
-68.1956
-67.2806
-66.4315
-65.6496
-64.9346
-64.2827
-63.6904
-63.1506
-62.6544
-62.1918
-61.7541
-61.3345
-60.9285
-60.5338
-60.1492
-59.774
-59.4067
-59.0457
-58.6889
-58.3342
-57.9796
-57.6234
-57.2644
-56.9016
-56.5344
-56.1624
-55.7853
-55.403
-55.0154
-54.6226
-54.2245
-53.8212
-53.4129
-52.9995
-52.5811
-52.1579
-51.7298
-51.2969
-50.8593
-50.4169
-49.9699
-49.5182
-49.0618
-48.6007
-48.1348
-47.6641
-47.1887
-46.7084
-46.2234
-45.7336
-45.239
-44.7398
-44.236
-43.7276
-43.2148
-42.6974
-42.1756
-41.6493
-41.1185
-40.5834
-40.0437
-39.4997
-38.9511
-38.3981
-37.8406
-37.2786
-36.712
-36.141
-35.5654
-34.9852
-34.4005
-33.8112
-33.2172
-32.6185
-32.0152
-31.4071
-30.7945
-30.1769
-29.5555
-28.9293
-28.3017
-27.6702
-27.0443
-90.9088
-90.8972
-90.9692
-91.1021
-91.262
-91.4339
-91.6186
-91.8254
-92.0622
-92.3316
-92.6295
-92.9449
-93.2638
-93.5713
-93.8544
-94.1024
-94.3066
-94.4588
-94.551
-94.5746
-94.5221
-94.3881
-94.1774
-93.8929
-93.5401
-93.1283
-92.6695
-92.1781
-91.6696
-91.1624
-90.6746
-90.2208
-89.8133
-89.4448
-89.1284
-88.8495
-88.6323
-88.5071
-88.4461
-88.4676
-88.5677
-88.6919
-88.8422
-89.0151
-89.205
-89.4148
-89.6425
-89.8879
-90.1521
-90.4394
-90.7527
-91.094
-91.4626
-91.8559
-92.2693
-92.6955
-93.1257
-93.5497
-93.9563
-94.3343
-94.6721
-94.9584
-95.1821
-95.3326
-95.4003
-95.3769
-95.2565
-95.0356
-94.7134
-94.2915
-93.776
-93.1756
-92.5003
-91.761
-90.9691
-90.1359
-89.2722
-88.3876
-87.4901
-86.586
-85.6792
-84.7714
-83.8621
-82.9484
-82.0252
-81.0863
-80.1245
-79.1335
-78.109
-77.0499
-75.9592
-74.8443
-73.716
-72.5875
-71.4731
-70.3868
-69.3421
-68.3515
-67.4241
-66.5643
-65.7722
-65.0477
-64.3851
-63.7834
-63.2375
-62.7389
-62.2761
-61.8381
-61.4168
-61.0073
-60.6072
-60.216
-59.8336
-59.4593
-59.0917
-58.7289
-58.369
-58.0098
-57.6498
-57.2875
-56.9219
-56.5524
-56.1783
-55.7994
-55.4155
-55.0266
-54.6325
-54.2333
-53.8291
-53.4197
-53.0055
-52.5863
-52.1623
-51.7336
-51.3001
-50.8621
-50.4194
-49.9721
-49.5202
-49.0636
-48.6024
-48.1364
-47.6657
-47.1902
-46.7099
-46.2248
-45.7349
-45.2403
-44.741
-44.2371
-43.7287
-43.2157
-42.6983
-42.1764
-41.6501
-41.1194
-40.5842
-40.0445
-39.5004
-38.9519
-38.3988
-37.8413
-37.2793
-36.7128
-36.1418
-35.5663
-34.9862
-34.4016
-33.8125
-33.2187
-32.6204
-32.0175
-31.41
-30.7981
-30.1816
-29.5613
-28.9369
-28.3107
-27.682
-27.0563
-90.8985
-90.9821
-91.1495
-91.361
-91.5911
-91.8376
-92.1069
-92.4052
-92.7344
-93.0891
-93.4566
-93.8215
-94.1686
-94.4864
-94.768
-95.0111
-95.2125
-95.3649
-95.4569
-95.4761
-95.4127
-95.2615
-95.0233
-94.7029
-94.3089
-93.8513
-93.3401
-92.786
-92.2038
-91.6184
-91.052
-90.533
-90.0691
-89.6738
-89.3273
-89.0455
-88.8501
-88.7415
-88.735
-88.8229
-88.9756
-89.165
-89.3742
-89.5992
-89.8342
-90.0779
-90.3293
-90.5906
-90.8645
-91.1554
-91.467
-91.8022
-92.1616
-92.5436
-92.9441
-93.3569
-93.7745
-94.188
-94.5878
-94.9634
-95.3033
-95.5952
-95.8261
-95.9826
-96.0524
-96.0245
-95.8909
-95.6468
-95.2911
-94.8281
-94.2649
-93.6126
-92.8843
-92.094
-91.2556
-90.3818
-89.4844
-88.5734
-87.6569
-86.741
-85.8292
-84.9229
-84.021
-83.1199
-82.2134
-81.2934
-80.3504
-79.3758
-78.3629
-77.3096
-76.2183
-75.0972
-73.9588
-72.8176
-71.6892
-70.588
-69.5275
-68.5224
-67.584
-66.7176
-65.922
-65.1914
-64.5193
-63.9039
-63.3446
-62.8371
-62.3708
-61.9321
-61.5095
-61.0966
-60.6912
-60.2932
-59.9031
-59.5211
-59.1461
-58.7765
-58.4105
-58.0461
-57.6815
-57.3153
-56.9463
-56.5738
-56.1973
-55.8163
-55.4306
-55.04
-54.6445
-54.2441
-53.8386
-53.4282
-53.0129
-52.5928
-52.1679
-51.7384
-51.3043
-50.8657
-50.4225
-49.9749
-49.5228
-49.066
-48.6046
-48.1386
-47.6678
-47.1922
-46.7118
-46.2265
-45.7366
-45.2418
-44.7425
-44.2385
-43.73
-43.2169
-42.6995
-42.1775
-41.6511
-41.1203
-40.5851
-40.0454
-39.5013
-38.9527
-38.3997
-37.8422
-37.2802
-36.7137
-36.1427
-35.5672
-34.9872
-34.4028
-33.8138
-33.2203
-32.6223
-32.0199
-31.4129
-30.8017
-30.1862
-29.5669
-28.9441
-28.3191
-27.6924
-27.0671
-91.0117
-91.1721
-91.4424
-91.7048
-91.9792
-92.281
-92.6143
-92.9791
-93.3708
-93.7768
-94.1796
-94.5622
-94.9125
-95.2265
-95.5071
-95.758
-95.9765
-96.1493
-96.2575
-96.284
-96.2177
-96.0532
-95.7847
-95.4223
-94.9839
-94.4845
-93.9347
-93.3433
-92.7228
-92.093
-91.4875
-90.9361
-90.4564
-90.0498
-89.7119
-89.4544
-89.2812
-89.2126
-89.2522
-89.3691
-89.5335
-89.731
-89.9509
-90.1859
-90.4302
-90.6801
-90.9347
-91.196
-91.4678
-91.7552
-92.0626
-92.3931
-92.7475
-93.1248
-93.5215
-93.9327
-94.3525
-94.7734
-95.1871
-95.5833
-95.9494
-96.2705
-96.5298
-96.7095
-96.7932
-96.7669
-96.6207
-96.3497
-95.9521
-95.4343
-94.8082
-94.0891
-93.2945
-92.442
-91.5483
-90.6277
-89.6926
-88.7531
-87.817
-86.8899
-85.9746
-85.0719
-84.1803
-83.2955
-82.4099
-81.5134
-80.5935
-79.6383
-78.6389
-77.5911
-76.4978
-75.3683
-74.218
-73.0634
-71.9206
-70.8036
-69.7251
-68.7003
-67.746
-66.8715
-66.0776
-65.352
-64.6804
-64.0565
-63.4816
-62.9572
-62.4783
-62.0331
-61.6078
-61.1923
-60.7823
-60.3777
-59.9798
-59.5897
-59.2069
-58.8302
-58.4577
-58.0875
-57.7178
-57.3472
-56.9743
-56.5985
-56.219
-55.8355
-55.4477
-55.0553
-54.6582
-54.2563
-53.8495
-53.4379
-53.0215
-52.6003
-52.1744
-51.744
-51.3091
-50.8698
-50.4261
-49.9781
-49.5256
-49.0687
-48.6072
-48.141
-47.6702
-47.1945
-46.7141
-46.2288
-45.7387
-45.2438
-44.7443
-44.2402
-43.7316
-43.2185
-42.7009
-42.1789
-41.6525
-41.1216
-40.5863
-40.0466
-39.5024
-38.9538
-38.4007
-37.8432
-37.2812
-36.7147
-36.1437
-35.5683
-34.9884
-34.404
-33.8152
-33.2219
-32.6243
-32.0222
-31.4158
-30.8052
-30.1906
-29.5723
-28.9507
-28.327
-27.7016
-27.0768
-91.5146
-91.6743
-91.9073
-92.1471
-92.4235
-92.7402
-93.0965
-93.4888
-93.9072
-94.332
-94.7423
-95.1228
-95.4698
-95.7895
-96.0963
-96.3965
-96.6798
-96.9164
-97.0721
-97.1191
-97.043
-96.8389
-96.5126
-96.0861
-95.5861
-95.0345
-94.4445
-93.8227
-93.18
-92.5385
-91.9323
-91.3859
-90.9255
-90.5296
-90.2273
-89.9903
-89.8455
-89.8041
-89.8489
-89.9552
-90.1062
-90.2907
-90.499
-90.7229
-90.956
-91.1943
-91.4373
-91.6877
-91.9501
-92.2303
-92.5333
-92.8623
-93.2184
-93.6008
-94.0075
-94.4349
-94.8785
-95.3319
-95.7865
-96.2306
-96.6485
-97.0213
-97.3269
-97.5426
-97.6475
-97.6248
-97.4631
-97.1593
-96.703
-96.1136
-95.4071
-94.6044
-93.7279
-92.7996
-91.8394
-90.8637
-89.8856
-88.915
-87.9588
-87.0213
-86.1045
-85.208
-84.3294
-83.4636
-82.6018
-81.7313
-80.8365
-79.9021
-78.9163
-77.8733
-76.7762
-75.6369
-74.4742
-73.3084
-72.1566
-71.0318
-69.9421
-68.9017
-67.9271
-67.0336
-66.2292
-65.5064
-64.8449
-64.2252
-63.6416
-63.1001
-62.6037
-62.1446
-61.7103
-61.2899
-60.8761
-60.4663
-60.0613
-59.663
-59.272
-58.8879
-58.5088
-58.1327
-57.7579
-57.3826
-57.0057
-56.6262
-56.2435
-55.8572
-55.4669
-55.0724
-54.6735
-54.27
-53.8618
-53.4489
-53.0312
-52.6089
-52.182
-51.7506
-51.3148
-50.8747
-50.4304
-49.9818
-49.5289
-49.0717
-48.61
-48.1438
-47.6729
-47.1972
-46.7167
-46.2314
-45.7412
-45.2462
-44.7466
-44.2423
-43.7336
-43.2203
-42.7026
-42.1805
-41.654
-41.1231
-40.5877
-40.0479
-39.5037
-38.9551
-38.402
-37.8444
-37.2823
-36.7158
-36.1449
-35.5695
-34.9896
-34.4053
-33.8166
-33.2236
-32.6262
-32.0245
-31.4186
-30.8086
-30.1948
-29.5774
-28.9569
-28.3341
-27.7098
-27.0853
-92.0933
-92.206
-92.3603
-92.5622
-92.8179
-93.1225
-93.4743
-93.8694
-94.291
-94.7119
-95.1108
-95.4786
-95.8204
-96.1587
-96.5168
-96.8922
-97.2522
-97.5448
-97.731
-97.7839
-97.6897
-97.446
-97.0716
-96.5931
-96.0426
-95.4482
-94.8263
-94.186
-93.5415
-92.91
-92.3284
-91.8208
-91.3917
-91.0426
-90.758
-90.5421
-90.4165
-90.3763
-90.4055
-90.489
-90.6165
-90.7781
-90.9644
-91.1669
-91.3794
-91.598
-91.8235
-92.0594
-92.3119
-92.5875
-92.8917
-93.2275
-93.5963
-93.9978
-94.4307
-94.893
-95.3808
-95.8884
-96.4063
-96.9207
-97.4123
-97.8573
-98.2278
-98.4951
-98.6321
-98.6173
-98.4354
-98.0786
-97.5596
-96.8875
-96.0847
-95.1792
-94.2009
-93.1787
-92.1371
-91.095
-90.0661
-89.0593
-88.08
-87.1303
-86.2106
-85.3195
-84.4537
-83.6075
-82.7712
-81.9303
-81.0661
-80.1587
-79.1915
-78.1555
-77.0533
-75.8994
-74.7202
-73.5429
-72.3876
-71.2655
-70.1799
-69.1358
-68.1465
-67.2312
-66.406
-65.6687
-65.0016
-64.3842
-63.8017
-63.251
-62.7378
-62.2627
-61.8167
-61.3883
-60.9692
-60.5551
-60.1446
-59.7389
-59.34
-58.9481
-58.5623
-58.1805
-57.8006
-57.4208
-57.0398
-56.6565
-56.2705
-55.8812
-55.4882
-55.0914
-54.6904
-54.2851
-53.8753
-53.461
-53.042
-52.6185
-52.1904
-51.758
-51.3212
-50.8802
-50.4351
-49.9859
-49.5325
-49.075
-48.6131
-48.1467
-47.6758
-47.2001
-46.7196
-46.2342
-45.744
-45.2489
-44.7491
-44.2448
-43.7358
-43.2225
-42.7046
-42.1824
-41.6558
-41.1248
-40.5894
-40.0495
-39.5052
-38.9565
-38.4033
-37.8457
-37.2836
-36.7171
-36.1461
-35.5707
-34.9909
-34.4067
-33.8181
-33.2252
-32.6281
-32.0268
-31.4213
-30.8119
-30.1988
-29.5822
-28.9626
-28.3406
-27.7171
-27.0928
-92.4741
-92.5498
-92.668
-92.8417
-93.0725
-93.3557
-93.6936
-94.0804
-94.4901
-94.8923
-95.268
-95.6113
-95.9316
-96.2656
-96.6393
-97.0454
-97.4277
-97.7298
-97.9088
-97.9449
-97.8309
-97.5744
-97.1932
-96.7144
-96.169
-95.5827
-94.9707
-94.3464
-93.7292
-93.1456
-92.6226
-92.1742
-91.7952
-91.4796
-91.2118
-91.0147
-90.8955
-90.8464
-90.8562
-90.9158
-91.0176
-91.1533
-91.3144
-91.4931
-91.6834
-91.8824
-92.0917
-92.3165
-92.564
-92.8415
-93.1544
-93.5056
-93.8965
-94.3275
-94.7987
-95.3095
-95.858
-96.4389
-97.0423
-97.6524
-98.2468
-98.7959
-99.2649
-99.6158
-99.8127
-99.8252
-99.6325
-99.2276
-98.628
-97.8488
-96.9194
-95.8779
-94.7655
-93.6203
-92.4732
-91.346
-90.2523
-89.1997
-88.1901
-87.2227
-86.2951
-85.4047
-84.5485
-83.7217
-82.9153
-82.1126
-81.29
-80.4206
-79.4798
-78.4522
-77.3393
-76.1575
-74.9504
-73.7527
-72.593
-71.4808
-70.4118
-69.3795
-68.3867
-67.4516
-66.5995
-65.842
-65.1647
-64.5419
-63.9543
-63.3961
-62.8702
-62.3795
-61.9205
-61.4839
-61.0601
-60.6423
-60.2274
-59.8159
-59.4097
-59.0105
-58.6179
-58.2303
-57.8454
-57.4612
-57.0761
-56.6892
-56.2998
-55.9073
-55.5115
-55.1121
-54.7089
-54.3016
-53.8901
-53.4742
-53.0538
-52.629
-52.1997
-51.7662
-51.3284
-50.8865
-50.4405
-49.9906
-49.5366
-49.0786
-48.6164
-48.1498
-47.6788
-47.2031
-46.7226
-46.2372
-45.747
-45.2518
-44.752
-44.2474
-43.7384
-43.2249
-42.7069
-42.1846
-41.6578
-41.1267
-40.5912
-40.0513
-39.5069
-38.9581
-38.4049
-37.8472
-37.2851
-36.7185
-36.1475
-35.5721
-34.9922
-34.4081
-33.8196
-33.2269
-32.63
-32.029
-31.4239
-30.815
-30.2025
-29.5866
-28.9678
-28.3465
-27.7235
-27.0994
-92.6462
-92.7046
-92.8017
-92.9531
-93.1607
-93.4235
-93.744
-94.113
-94.4993
-94.8733
-95.217
-95.5257
-95.8106
-96.1118
-96.4528
-96.8234
-97.1689
-97.4356
-97.5865
-97.6035
-97.4868
-97.2439
-96.8891
-96.4457
-95.9399
-95.3942
-94.8265
-94.2563
-93.7079
-93.2067
-92.7682
-92.3919
-92.0645
-91.7731
-91.5286
-91.3486
-91.2331
-91.1758
-91.1691
-91.2076
-91.2858
-91.3973
-91.5354
-91.6933
-91.8653
-92.0493
-92.248
-92.4673
-92.7155
-93.0004
-93.3273
-93.6989
-94.117
-94.5839
-95.1023
-95.6751
-96.3028
-96.9822
-97.7031
-98.4478
-99.1891
-99.8897
-100.503
-100.978
-101.266
-101.326
-101.132
-100.671
-99.9707
-99.0533
-97.9599
-96.7429
-95.4575
-94.1544
-92.8727
-91.6375
-90.4623
-89.352
-88.3043
-87.3124
-86.3702
-85.4739
-84.6206
-83.8077
-83.0274
-82.2637
-81.4863
-80.6591
-79.7448
-78.723
-77.593
-76.3819
-75.1393
-73.914
-72.7432
-71.64
-70.5936
-69.5851
-68.6047
-67.6626
-66.7866
-66.0025
-65.3095
-64.684
-64.1006
-63.5429
-63.0069
-62.4992
-62.0246
-61.5777
-61.1483
-60.7273
-60.3093
-59.8932
-59.481
-59.0751
-58.6761
-58.2826
-57.8926
-57.5038
-57.1147
-56.7241
-56.3312
-55.9355
-55.5367
-55.1346
-54.7289
-54.3195
-53.906
-53.4884
-53.0665
-52.6403
-52.2098
-51.7751
-51.3362
-50.8933
-50.4465
-49.9958
-49.5412
-49.0826
-48.6199
-48.1531
-47.6819
-47.2061
-46.7256
-46.2403
-45.75
-45.2549
-44.7549
-44.2503
-43.7411
-43.2275
-42.7094
-42.1869
-41.6601
-41.1289
-40.5933
-40.0532
-39.5088
-38.9599
-38.4066
-37.8489
-37.2867
-36.72
-36.1489
-35.5735
-34.9937
-34.4095
-33.8211
-33.2285
-32.6318
-32.0311
-31.4264
-30.818
-30.206
-29.5907
-28.9725
-28.3519
-27.7293
-27.1053
-92.639
-92.6843
-92.7689
-92.9032
-93.0911
-93.3343
-93.635
-93.9817
-94.3432
-94.6895
-94.9996
-95.2665
-95.5006
-95.7355
-95.9967
-96.2779
-96.5451
-96.7519
-96.8639
-96.8633
-96.7488
-96.5236
-96.2028
-95.8069
-95.3577
-94.8771
-94.3875
-93.9131
-93.4758
-93.0879
-92.7477
-92.4413
-92.157
-91.8968
-91.6828
-91.5235
-91.4165
-91.3555
-91.3366
-91.3578
-91.4162
-91.5075
-91.6272
-91.7696
-91.9294
-92.1048
-92.2988
-92.5178
-92.7708
-93.0662
-93.4093
-93.8036
-94.2522
-94.7611
-95.3374
-95.9883
-96.718
-97.525
-98.3987
-99.3184
-100.25
-101.147
-101.946
-102.579
-102.979
-103.097
-102.902
-102.382
-101.564
-100.481
-99.1896
-97.761
-96.2679
-94.7759
-93.3345
-91.9728
-90.7037
-89.5275
-88.4368
-87.417
-86.4559
-85.5462
-84.6846
-83.8704
-83.0998
-82.3589
-81.6173
-80.8288
-79.949
-78.9453
-77.8129
-76.583
-75.3121
-74.0601
-72.8714
-71.7642
-70.7288
-69.7421
-68.7837
-67.8499
-66.9625
-66.1542
-65.4411
-64.8079
-64.2268
-63.6759
-63.1437
-62.6292
-62.1394
-61.6781
-61.2396
-60.8133
-60.3914
-59.9713
-59.5542
-59.1425
-58.7374
-58.3382
-57.9429
-57.5493
-57.1559
-56.7613
-56.3647
-55.9657
-55.5638
-55.1588
-54.7504
-54.3386
-53.9231
-53.5036
-53.0801
-52.6525
-52.2207
-51.7847
-51.3447
-50.9008
-50.4531
-50.0015
-49.5461
-49.087
-48.6238
-48.1566
-47.6851
-47.2092
-46.7286
-46.2433
-45.753
-45.2579
-44.7579
-44.2533
-43.744
-43.2303
-42.7121
-42.1895
-41.6626
-41.1312
-40.5955
-40.0554
-39.5109
-38.9619
-38.4085
-37.8507
-37.2884
-36.7217
-36.1505
-35.575
-34.9951
-34.411
-33.8226
-33.2301
-32.6336
-32.0331
-31.4287
-30.8207
-30.2092
-29.5945
-28.9768
-28.3566
-27.7344
-27.1105
-92.4987
-92.5357
-92.6095
-92.7277
-92.8958
-93.1181
-93.3978
-93.7243
-94.0673
-94.3958
-94.6854
-94.9209
-95.1063
-95.2624
-95.4137
-95.5643
-95.7013
-95.7984
-95.8313
-95.7872
-95.6465
-95.4305
-95.1484
-94.816
-94.4526
-94.0808
-93.722
-93.3908
-93.0923
-92.8212
-92.5652
-92.3145
-92.0708
-91.8541
-91.6799
-91.5499
-91.458
-91.3988
-91.3722
-91.3799
-91.4215
-91.4961
-91.6012
-91.7326
-91.8854
-92.0574
-92.2514
-92.4737
-92.7338
-93.041
-93.4015
-93.82
-94.3022
-94.8585
-95.5023
-96.2447
-97.0935
-98.0484
-99.0983
-100.219
-101.368
-102.485
-103.492
-104.298
-104.819
-104.995
-104.784
-104.214
-103.272
-102.013
-100.512
-98.8589
-97.1434
-95.4484
-93.8363
-92.3408
-90.9743
-89.7306
-88.5974
-87.5473
-86.5636
-85.6334
-84.7521
-83.9211
-83.1428
-82.4102
-81.6987
-80.9602
-80.1365
-79.1785
-78.0685
-76.8344
-75.5372
-74.2488
-73.0277
-71.9003
-70.8576
-69.8767
-68.9359
-68.0203
-67.1367
-66.3147
-65.5812
-64.9345
-64.3494
-63.7999
-63.2702
-62.756
-62.2609
-61.7894
-61.3399
-60.905
-60.4771
-60.052
-59.6301
-59.2132
-58.8023
-58.3973
-57.9965
-57.5979
-57.1997
-56.8008
-56.4004
-55.9978
-55.5926
-55.1845
-54.7734
-54.359
-53.9412
-53.5198
-53.0945
-52.6653
-52.2321
-51.795
-51.3539
-50.9089
-50.4601
-50.0077
-49.5515
-49.0917
-48.628
-48.1604
-47.6886
-47.2124
-46.7317
-46.2462
-45.756
-45.2609
-44.7609
-44.2562
-43.7469
-43.2331
-42.7149
-42.1922
-41.6652
-41.1338
-40.598
-40.0578
-39.5131
-38.9641
-38.4106
-37.8526
-37.2902
-36.7234
-36.1522
-35.5766
-34.9966
-34.4125
-33.8241
-33.2317
-32.6353
-32.035
-31.4309
-30.8232
-30.2121
-29.5979
-28.9807
-28.3609
-27.7389
-27.1151
-92.2935
-92.3228
-92.3837
-92.4829
-92.6274
-92.8236
-93.0772
-93.3812
-93.7097
-94.0327
-94.323
-94.5571
-94.727
-94.839
-94.9077
-94.9445
-94.9495
-94.9147
-94.8287
-94.684
-94.5091
-94.2948
-94.0517
-93.793
-93.533
-93.2837
-93.052
-92.839
-92.6385
-92.4394
-92.2339
-92.0249
-91.8307
-91.671
-91.5498
-91.4602
-91.3919
-91.341
-91.3107
-91.3063
-91.3313
-91.3884
-91.4787
-91.5998
-91.7476
-91.9186
-92.115
-92.3426
-92.611
-92.9301
-93.3078
-93.7507
-94.2669
-94.8713
-95.5837
-96.4195
-97.3893
-98.4943
-99.7225
-101.044
-102.408
-103.74
-104.944
-105.911
-106.543
-106.776
-106.572
-105.933
-104.877
-103.463
-101.769
-99.9078
-97.9851
-96.1003
-94.3307
-92.716
-91.2639
-89.9614
-88.7852
-87.7064
-86.6989
-85.7435
-84.8324
-83.9696
-83.1659
-82.4275
-81.742
-81.0624
-80.3125
-79.4192
-78.3461
-77.1166
-75.7948
-74.4623
-73.1935
-72.0316
-70.9748
-69.9963
-69.0687
-68.1722
-67.3039
-66.4838
-65.7391
-65.0782
-64.4837
-63.9294
-63.3972
-62.8808
-62.3822
-61.9046
-61.4469
-61.0035
-60.5681
-60.137
-59.7098
-59.2876
-58.8711
-58.4599
-58.0532
-57.6491
-57.2459
-56.8425
-56.4379
-56.0316
-55.623
-55.2117
-54.7976
-54.3805
-53.9603
-53.5367
-53.1096
-52.6788
-52.2442
-51.8058
-51.3635
-50.9175
-50.4677
-50.0143
-49.5573
-49.0968
-48.6325
-48.1644
-47.6923
-47.2158
-46.7348
-46.2492
-45.7589
-45.2637
-44.7637
-44.2591
-43.7498
-43.236
-42.7178
-42.1951
-41.668
-41.1365
-40.6006
-40.0603
-39.5156
-38.9664
-38.4128
-37.8547
-37.2922
-36.7253
-36.1539
-35.5782
-34.9982
-34.414
-33.8256
-33.2332
-32.6369
-32.0368
-31.4329
-30.8256
-30.2148
-29.6009
-28.9841
-28.3647
-27.7429
-27.1191
-92.096
-92.1163
-92.1606
-92.2348
-92.3469
-92.5048
-92.718
-92.9856
-93.2899
-93.6042
-93.902
-94.1545
-94.3413
-94.457
-94.5047
-94.4906
-94.4205
-94.2997
-94.1344
-93.933
-93.699
-93.4567
-93.2174
-92.9909
-92.7836
-92.5968
-92.426
-92.2617
-92.0947
-91.9209
-91.7456
-91.5854
-91.461
-91.3784
-91.3287
-91.2947
-91.2622
-91.2278
-91.1977
-91.1803
-91.1841
-91.2172
-91.2856
-91.3903
-91.5291
-91.6973
-91.8959
-92.1293
-92.4062
-92.7366
-93.1299
-93.595
-94.1433
-94.7924