/*--------------------------------*- C++ -*----------------------------------*\
  =========                 |
  \\      /  F ield         | OpenFOAM: The Open Source CFD Toolbox
   \\    /   O peration     | Website:  https://openfoam.org
    \\  /    A nd           | Version:  7
     \\/     M anipulation  |
\*---------------------------------------------------------------------------*/
FoamFile
{
    version     2.0;
    format      ascii;
    class       volScalarField;
    location    "0.062";
    object      pPrime2Mean;
}
// * * * * * * * * * * * * * * * * * * * * * * * * * * * * * * * * * * * * * //

dimensions      [0 4 -4 0 0 0 0];

internalField   nonuniform List<scalar> 
12225
(
5.77733e+06
5.68535e+06
5.59038e+06
5.49876e+06
5.41074e+06
5.32607e+06
5.2445e+06
5.16579e+06
5.08969e+06
5.01592e+06
4.94419e+06
4.87416e+06
4.80541e+06
4.73744e+06
4.66952e+06
4.60055e+06
4.52859e+06
4.44877e+06
5.7774e+06
5.6854e+06
5.59042e+06
5.49881e+06
5.4108e+06
5.32613e+06
5.24457e+06
5.16587e+06
5.08979e+06
5.01605e+06
4.94435e+06
4.87437e+06
4.80569e+06
4.73783e+06
4.6701e+06
4.60148e+06
4.53036e+06
4.45278e+06
5.77754e+06
5.68549e+06
5.59052e+06
5.49891e+06
5.41091e+06
5.32626e+06
5.24472e+06
5.16606e+06
5.09002e+06
5.01633e+06
4.94471e+06
4.87483e+06
4.80631e+06
4.73869e+06
4.67136e+06
4.60349e+06
4.53389e+06
4.46109e+06
5.77769e+06
5.68564e+06
5.59067e+06
5.49908e+06
5.4111e+06
5.32648e+06
5.24498e+06
5.16637e+06
5.09039e+06
5.0168e+06
4.9453e+06
4.8756e+06
4.80733e+06
4.74008e+06
4.67337e+06
4.60659e+06
4.53913e+06
4.47102e+06
5.77788e+06
5.68586e+06
5.5909e+06
5.49932e+06
5.41138e+06
5.3268e+06
5.24536e+06
5.16682e+06
5.09094e+06
5.01748e+06
4.94617e+06
4.87671e+06
4.80879e+06
4.74207e+06
4.67618e+06
4.61077e+06
4.5457e+06
4.48178e+06
5.77816e+06
5.68615e+06
5.59122e+06
5.49967e+06
5.41176e+06
5.32724e+06
5.24588e+06
5.16744e+06
5.0917e+06
5.01842e+06
4.94734e+06
4.87821e+06
4.81076e+06
4.74471e+06
4.67982e+06
4.61595e+06
4.55331e+06
4.49292e+06
5.77852e+06
5.68655e+06
5.59164e+06
5.50012e+06
5.41227e+06
5.32783e+06
5.24656e+06
5.16826e+06
5.0927e+06
5.01965e+06
4.94887e+06
4.88015e+06
4.81326e+06
4.74801e+06
4.68426e+06
4.62204e+06
4.56171e+06
4.50426e+06
5.77899e+06
5.68706e+06
5.59218e+06
5.50071e+06
5.41293e+06
5.32858e+06
5.24744e+06
5.16931e+06
5.09396e+06
5.0212e+06
4.9508e+06
4.88257e+06
4.81634e+06
4.75198e+06
4.68946e+06
4.6289e+06
4.57072e+06
4.51571e+06
5.77963e+06
5.68772e+06
5.59286e+06
5.50145e+06
5.41374e+06
5.32951e+06
5.24854e+06
5.17061e+06
5.09553e+06
5.0231e+06
4.95314e+06
4.88549e+06
4.82001e+06
4.75663e+06
4.69538e+06
4.63644e+06
4.58018e+06
4.52722e+06
5.78041e+06
5.68853e+06
5.59371e+06
5.50235e+06
5.41475e+06
5.33066e+06
5.24987e+06
5.17219e+06
5.09742e+06
5.02539e+06
4.95594e+06
4.88893e+06
4.82426e+06
4.76192e+06
4.70195e+06
4.64453e+06
4.59e+06
4.53876e+06
5.78154e+06
5.68955e+06
5.59474e+06
5.50345e+06
5.41597e+06
5.33205e+06
5.25148e+06
5.17408e+06
5.09968e+06
5.0281e+06
4.95921e+06
4.8929e+06
4.8291e+06
4.7678e+06
4.70909e+06
4.6531e+06
4.60008e+06
4.55032e+06
5.78257e+06
5.69066e+06
5.59587e+06
5.50466e+06
5.4173e+06
5.33355e+06
5.25322e+06
5.17612e+06
5.10209e+06
5.03097e+06
4.96265e+06
4.89702e+06
4.83404e+06
4.77371e+06
4.71609e+06
4.66131e+06
4.60952e+06
4.56092e+06
5.784e+06
5.69196e+06
5.59717e+06
5.50604e+06
5.41881e+06
5.33526e+06
5.25519e+06
5.17841e+06
5.10478e+06
5.03416e+06
4.96642e+06
4.9015e+06
4.83934e+06
4.77995e+06
4.72337e+06
4.66969e+06
4.619e+06
4.57141e+06
5.78589e+06
5.69369e+06
5.5989e+06
5.50785e+06
5.4208e+06
5.3375e+06
5.25775e+06
5.18139e+06
5.10826e+06
5.03823e+06
4.9712e+06
4.90709e+06
4.84586e+06
4.7875e+06
4.73203e+06
4.67949e+06
4.62992e+06
4.58333e+06
5.78833e+06
5.69596e+06
5.60117e+06
5.51024e+06
5.42341e+06
5.34043e+06
5.26108e+06
5.18522e+06
5.11269e+06
5.04337e+06
4.97715e+06
4.91396e+06
4.85376e+06
4.7965e+06
4.74218e+06
4.69079e+06
4.64231e+06
4.59671e+06
5.79136e+06
5.69888e+06
5.60411e+06
5.51335e+06
5.4268e+06
5.3442e+06
5.26535e+06
5.19008e+06
5.11826e+06
5.04975e+06
4.98444e+06
4.92227e+06
4.86314e+06
4.80702e+06
4.75385e+06
4.70358e+06
4.65615e+06
4.6115e+06
5.79518e+06
5.70255e+06
5.60784e+06
5.51729e+06
5.43109e+06
5.34895e+06
5.27069e+06
5.19611e+06
5.12509e+06
5.05747e+06
4.99316e+06
4.93203e+06
4.87402e+06
4.81902e+06
4.76696e+06
4.71776e+06
4.67131e+06
4.62753e+06
5.79957e+06
5.70697e+06
5.61241e+06
5.52214e+06
5.43635e+06
5.35476e+06
5.27715e+06
5.20335e+06
5.13318e+06
5.06651e+06
5.0032e+06
4.94314e+06
4.88619e+06
4.83227e+06
4.78125e+06
4.73302e+06
4.68747e+06
4.64447e+06
5.80468e+06
5.7121e+06
5.61774e+06
5.52781e+06
5.4425e+06
5.36151e+06
5.2846e+06
5.21159e+06
5.1423e+06
5.07657e+06
5.01424e+06
4.95517e+06
4.89922e+06
4.84626e+06
4.79617e+06
4.7488e+06
4.70403e+06
4.66172e+06
5.80886e+06
5.71634e+06
5.62217e+06
5.53256e+06
5.44765e+06
5.36714e+06
5.29078e+06
5.21838e+06
5.14973e+06
5.08467e+06
5.02302e+06
4.96464e+06
4.90937e+06
4.85706e+06
4.80757e+06
4.76076e+06
4.71649e+06
4.67463e+06
5.81132e+06
5.71909e+06
5.62513e+06
5.53578e+06
5.45117e+06
5.37099e+06
5.295e+06
5.22298e+06
5.15474e+06
5.09011e+06
5.02889e+06
4.97093e+06
4.91606e+06
4.86414e+06
4.81501e+06
4.76854e+06
4.72457e+06
4.68298e+06
5.81328e+06
5.72106e+06
5.62727e+06
5.53812e+06
5.45374e+06
5.37381e+06
5.29809e+06
5.22635e+06
5.15841e+06
5.09406e+06
5.03314e+06
4.97547e+06
4.92088e+06
4.86922e+06
4.82034e+06
4.77409e+06
4.73032e+06
4.68891e+06
5.81414e+06
5.72231e+06
5.62875e+06
5.53979e+06
5.45559e+06
5.37585e+06
5.30032e+06
5.22878e+06
5.16104e+06
5.0969e+06
5.03618e+06
4.97871e+06
4.92431e+06
4.87283e+06
4.82411e+06
4.77801e+06
4.73438e+06
4.69308e+06
5.81486e+06
5.72316e+06
5.62976e+06
5.54095e+06
5.45689e+06
5.37729e+06
5.3019e+06
5.2305e+06
5.1629e+06
5.0989e+06
5.03832e+06
4.98098e+06
4.92672e+06
4.87536e+06
4.82675e+06
4.78075e+06
4.73721e+06
4.696e+06
5.81527e+06
5.72369e+06
5.63043e+06
5.54173e+06
5.45778e+06
5.37828e+06
5.30299e+06
5.23169e+06
5.16419e+06
5.10029e+06
5.0398e+06
4.98255e+06
4.92837e+06
4.8771e+06
4.82857e+06
4.78264e+06
4.73916e+06
4.698e+06
5.81521e+06
5.72398e+06
5.63086e+06
5.54226e+06
5.45838e+06
5.37895e+06
5.30372e+06
5.23249e+06
5.16505e+06
5.10122e+06
5.04079e+06
4.98361e+06
4.92948e+06
4.87826e+06
4.82978e+06
4.7839e+06
4.74046e+06
4.69934e+06
5.81518e+06
5.72414e+06
5.63113e+06
5.54259e+06
5.45877e+06
5.37938e+06
5.30419e+06
5.23301e+06
5.16561e+06
5.10182e+06
5.04144e+06
4.98429e+06
4.9302e+06
4.87901e+06
4.83057e+06
4.78471e+06
4.7413e+06
4.7002e+06
5.81521e+06
5.72425e+06
5.63129e+06
5.54279e+06
5.459e+06
5.37964e+06
5.30448e+06
5.23332e+06
5.16595e+06
5.10218e+06
5.04182e+06
4.9847e+06
4.93063e+06
4.87947e+06
4.83104e+06
4.7852e+06
4.74181e+06
4.70072e+06
5.81523e+06
5.7243e+06
5.63138e+06
5.5429e+06
5.45912e+06
5.37978e+06
5.30464e+06
5.23349e+06
5.16613e+06
5.10238e+06
5.04203e+06
4.98492e+06
4.93087e+06
4.87971e+06
4.83129e+06
4.78547e+06
4.74208e+06
4.701e+06
5.81525e+06
5.72433e+06
5.63141e+06
5.54295e+06
5.45917e+06
5.37983e+06
5.3047e+06
5.23356e+06
5.16621e+06
5.10246e+06
5.04212e+06
4.98501e+06
4.93096e+06
4.87981e+06
4.8314e+06
4.78557e+06
4.74219e+06
4.70111e+06
3.75909e+06
3.75879e+06
3.75819e+06
3.75727e+06
3.75604e+06
3.75448e+06
3.7526e+06
3.75039e+06
3.74783e+06
3.74494e+06
3.7417e+06
3.73811e+06
3.73417e+06
3.72988e+06
3.72524e+06
3.72023e+06
3.71487e+06
3.70916e+06
3.70308e+06
3.69665e+06
3.68986e+06
3.68272e+06
3.67522e+06
3.66737e+06
3.65918e+06
3.65063e+06
3.64175e+06
3.63252e+06
3.62295e+06
3.61306e+06
3.60283e+06
3.59227e+06
3.5814e+06
3.57021e+06
3.55871e+06
3.54689e+06
3.53478e+06
3.52237e+06
3.50966e+06
3.49666e+06
3.48339e+06
3.46983e+06
3.456e+06
3.4419e+06
3.42753e+06
3.41291e+06
3.39803e+06
3.3829e+06
3.36753e+06
3.35192e+06
3.33607e+06
3.31999e+06
3.30369e+06
3.28716e+06
3.27041e+06
3.25346e+06
3.23629e+06
3.21892e+06
3.20135e+06
3.18358e+06
3.16562e+06
3.14747e+06
3.12914e+06
3.11063e+06
3.09194e+06
3.07308e+06
3.05405e+06
3.03485e+06
3.01549e+06
2.99597e+06
2.97629e+06
2.95646e+06
2.93649e+06
2.91636e+06
2.89609e+06
2.87568e+06
2.85514e+06
2.83446e+06
2.81364e+06
2.7927e+06
2.77163e+06
2.75044e+06
2.72913e+06
2.7077e+06
2.68615e+06
2.66449e+06
2.64272e+06
2.62084e+06
2.59885e+06
2.57676e+06
2.55456e+06
2.53227e+06
2.50988e+06
2.48739e+06
2.46482e+06
2.44215e+06
2.41939e+06
2.39655e+06
2.37362e+06
2.35061e+06
2.32752e+06
2.30435e+06
2.28111e+06
2.2578e+06
2.23441e+06
2.21095e+06
2.18743e+06
2.16384e+06
2.14019e+06
2.11647e+06
2.0927e+06
2.06887e+06
2.04499e+06
2.02106e+06
1.99708e+06
1.97305e+06
1.94897e+06
1.92485e+06
1.9007e+06
1.8765e+06
1.85227e+06
1.82801e+06
1.80372e+06
1.77939e+06
1.75505e+06
1.73068e+06
1.70629e+06
1.68189e+06
1.65747e+06
1.63304e+06
1.6086e+06
1.58416e+06
1.55971e+06
1.53527e+06
1.51083e+06
1.4864e+06
1.46197e+06
1.43756e+06
1.41317e+06
1.3888e+06
1.36445e+06
1.34014e+06
1.31585e+06
1.2916e+06
1.26738e+06
1.24321e+06
1.21909e+06
1.19502e+06
1.17101e+06
1.14705e+06
1.12316e+06
1.09933e+06
1.07558e+06
1.05191e+06
1.02832e+06
1.00482e+06
981408
958095
934885
911783
888795
865926
843182
820570
798095
775765
753586
731566
709712
688033
666537
645236
624140
603263
582621
562234
542131
522351
502966
484126
3.76045e+06
3.76015e+06
3.75954e+06
3.75862e+06
3.75738e+06
3.75581e+06
3.75392e+06
3.75169e+06
3.74912e+06
3.74621e+06
3.74295e+06
3.73935e+06
3.73539e+06
3.73108e+06
3.72641e+06
3.72138e+06
3.716e+06
3.71025e+06
3.70415e+06
3.69769e+06
3.69088e+06
3.6837e+06
3.67618e+06
3.6683e+06
3.66008e+06
3.6515e+06
3.64259e+06
3.63333e+06
3.62374e+06
3.61381e+06
3.60355e+06
3.59297e+06
3.58207e+06
3.57085e+06
3.55932e+06
3.54749e+06
3.53535e+06
3.52291e+06
3.51018e+06
3.49716e+06
3.48386e+06
3.47028e+06
3.45643e+06
3.44231e+06
3.42793e+06
3.41328e+06
3.39839e+06
3.38324e+06
3.36785e+06
3.35223e+06
3.33636e+06
3.32027e+06
3.30395e+06
3.28741e+06
3.27065e+06
3.25368e+06
3.2365e+06
3.21912e+06
3.20154e+06
3.18376e+06
3.16579e+06
3.14763e+06
3.12929e+06
3.11077e+06
3.09208e+06
3.07321e+06
3.05417e+06
3.03496e+06
3.01559e+06
2.99607e+06
2.97639e+06
2.95655e+06
2.93657e+06
2.91644e+06
2.89617e+06
2.87575e+06
2.8552e+06
2.83452e+06
2.8137e+06
2.79276e+06
2.77168e+06
2.75049e+06
2.72917e+06
2.70774e+06
2.68619e+06
2.66452e+06
2.64275e+06
2.62087e+06
2.59888e+06
2.57678e+06
2.55459e+06
2.53229e+06
2.5099e+06
2.48741e+06
2.46483e+06
2.44217e+06
2.41941e+06
2.39656e+06
2.37363e+06
2.35062e+06
2.32753e+06
2.30437e+06
2.28112e+06
2.2578e+06
2.23442e+06
2.21096e+06
2.18743e+06
2.16384e+06
2.14019e+06
2.11648e+06
2.09271e+06
2.06888e+06
2.045e+06
2.02106e+06
1.99708e+06
1.97305e+06
1.94897e+06
1.92486e+06
1.9007e+06
1.8765e+06
1.85227e+06
1.82801e+06
1.80372e+06
1.7794e+06
1.75505e+06
1.73068e+06
1.70629e+06
1.68189e+06
1.65747e+06
1.63304e+06
1.6086e+06
1.58416e+06
1.55971e+06
1.53527e+06
1.51083e+06
1.4864e+06
1.46197e+06
1.43756e+06
1.41317e+06
1.3888e+06
1.36445e+06
1.34014e+06
1.31585e+06
1.2916e+06
1.26738e+06
1.24321e+06
1.21909e+06
1.19502e+06
1.17101e+06
1.14705e+06
1.12316e+06
1.09933e+06
1.07558e+06
1.05191e+06
1.02832e+06
1.00482e+06
981408
958095
934885
911783
888794
865925
843181
820569
798094
775764
753585
731564
709709
688030
666533
645231
624134
603255
582609
562218
542108
522315
502901
483972
3.76317e+06
3.76287e+06
3.76225e+06
3.76132e+06
3.76006e+06
3.75848e+06
3.75656e+06
3.7543e+06
3.75171e+06
3.74876e+06
3.74547e+06
3.74182e+06
3.73782e+06
3.73347e+06
3.72875e+06
3.72368e+06
3.71824e+06
3.71245e+06
3.70629e+06
3.69978e+06
3.6929e+06
3.68567e+06
3.67809e+06
3.67016e+06
3.66187e+06
3.65324e+06
3.64426e+06
3.63495e+06
3.6253e+06
3.61532e+06
3.605e+06
3.59437e+06
3.58341e+06
3.57214e+06
3.56056e+06
3.54867e+06
3.53648e+06
3.524e+06
3.51122e+06
3.49816e+06
3.48481e+06
3.47119e+06
3.4573e+06
3.44314e+06
3.42871e+06
3.41403e+06
3.3991e+06
3.38392e+06
3.3685e+06
3.35284e+06
3.33694e+06
3.32082e+06
3.30447e+06
3.28791e+06
3.27112e+06
3.25413e+06
3.23692e+06
3.21952e+06
3.20192e+06
3.18412e+06
3.16613e+06
3.14795e+06
3.12959e+06
3.11106e+06
3.09234e+06
3.07346e+06
3.0544e+06
3.03518e+06
3.0158e+06
2.99627e+06
2.97657e+06
2.95673e+06
2.93673e+06
2.91659e+06
2.89631e+06
2.87589e+06
2.85533e+06
2.83464e+06
2.81381e+06
2.79286e+06
2.77178e+06
2.75058e+06
2.72926e+06
2.70782e+06
2.68626e+06
2.66459e+06
2.64281e+06
2.62093e+06
2.59893e+06
2.57683e+06
2.55464e+06
2.53234e+06
2.50994e+06
2.48745e+06
2.46487e+06
2.4422e+06
2.41944e+06
2.39659e+06
2.37366e+06
2.35065e+06
2.32756e+06
2.30439e+06
2.28114e+06
2.25782e+06
2.23443e+06
2.21097e+06
2.18745e+06
2.16386e+06
2.1402e+06
2.11649e+06
2.09272e+06
2.06889e+06
2.045e+06
2.02107e+06
1.99709e+06
1.97305e+06
1.94898e+06
1.92486e+06
1.9007e+06
1.87651e+06
1.85228e+06
1.82801e+06
1.80372e+06
1.7794e+06
1.75505e+06
1.73068e+06
1.7063e+06
1.68189e+06
1.65747e+06
1.63304e+06
1.60861e+06
1.58416e+06
1.55972e+06
1.53527e+06
1.51083e+06
1.4864e+06
1.46197e+06
1.43756e+06
1.41317e+06
1.3888e+06
1.36445e+06
1.34014e+06
1.31585e+06
1.2916e+06
1.26738e+06
1.24322e+06
1.21909e+06
1.19502e+06
1.17101e+06
1.14705e+06
1.12316e+06
1.09933e+06
1.07558e+06
1.05191e+06
1.02832e+06
1.00482e+06
981408
958095
934885
911782
888794
865925
843180
820568
798093
775762
753582
731560
709705
688024
666526
645221
624121
603238
582587
562187
542062
522245
502782
483731
3.76729e+06
3.76697e+06
3.76634e+06
3.76539e+06
3.7641e+06
3.76249e+06
3.76054e+06
3.75824e+06
3.7556e+06
3.7526e+06
3.74926e+06
3.74555e+06
3.74149e+06
3.73706e+06
3.73228e+06
3.72713e+06
3.72162e+06
3.71574e+06
3.7095e+06
3.70291e+06
3.69595e+06
3.68863e+06
3.68096e+06
3.67294e+06
3.66456e+06
3.65584e+06
3.64678e+06
3.63738e+06
3.62764e+06
3.61757e+06
3.60718e+06
3.59646e+06
3.58542e+06
3.57407e+06
3.56241e+06
3.55044e+06
3.53818e+06
3.52562e+06
3.51277e+06
3.49964e+06
3.48623e+06
3.47254e+06
3.45859e+06
3.44437e+06
3.42989e+06
3.41515e+06
3.40017e+06
3.38494e+06
3.36946e+06
3.35375e+06
3.33781e+06
3.32165e+06
3.30526e+06
3.28865e+06
3.27183e+06
3.25479e+06
3.23756e+06
3.22012e+06
3.20248e+06
3.18465e+06
3.16663e+06
3.14843e+06
3.13004e+06
3.11148e+06
3.09274e+06
3.07383e+06
3.05476e+06
3.03552e+06
3.01612e+06
2.99656e+06
2.97685e+06
2.95699e+06
2.93698e+06
2.91682e+06
2.89653e+06
2.87609e+06
2.85552e+06
2.83482e+06
2.81398e+06
2.79302e+06
2.77193e+06
2.75072e+06
2.72939e+06
2.70794e+06
2.68637e+06
2.6647e+06
2.64291e+06
2.62102e+06
2.59902e+06
2.57691e+06
2.55471e+06
2.53241e+06
2.51001e+06
2.48751e+06
2.46493e+06
2.44225e+06
2.41949e+06
2.39664e+06
2.3737e+06
2.35069e+06
2.32759e+06
2.30442e+06
2.28117e+06
2.25785e+06
2.23446e+06
2.211e+06
2.18747e+06
2.16388e+06
2.14022e+06
2.1165e+06
2.09273e+06
2.0689e+06
2.04502e+06
2.02108e+06
1.9971e+06
1.97306e+06
1.94899e+06
1.92487e+06
1.90071e+06
1.87651e+06
1.85228e+06
1.82802e+06
1.80373e+06
1.7794e+06
1.75506e+06
1.73069e+06
1.7063e+06
1.6819e+06
1.65748e+06
1.63305e+06
1.60861e+06
1.58416e+06
1.55972e+06
1.53527e+06
1.51083e+06
1.4864e+06
1.46197e+06
1.43757e+06
1.41317e+06
1.3888e+06
1.36446e+06
1.34014e+06
1.31585e+06
1.2916e+06
1.26739e+06
1.24322e+06
1.21909e+06
1.19502e+06
1.17101e+06
1.14705e+06
1.12316e+06
1.09934e+06
1.07558e+06
1.05191e+06
1.02832e+06
1.00482e+06
981408
958095
934884
911782
888793
865923
843179
820566
798090
775759
753578
731555
709698
688015
666515
645207
624102
603213
582554
562141
541997
522148
502624
483452
3.77281e+06
3.77248e+06
3.77183e+06
3.77085e+06
3.76953e+06
3.76788e+06
3.76588e+06
3.76352e+06
3.76082e+06
3.75776e+06
3.75433e+06
3.75055e+06
3.7464e+06
3.74188e+06
3.737e+06
3.73175e+06
3.72613e+06
3.72015e+06
3.7138e+06
3.70709e+06
3.70001e+06
3.69258e+06
3.68479e+06
3.67665e+06
3.66815e+06
3.65932e+06
3.65013e+06
3.64061e+06
3.63076e+06
3.62058e+06
3.61007e+06
3.59923e+06
3.58809e+06
3.57663e+06
3.56486e+06
3.5528e+06
3.54044e+06
3.52778e+06
3.51484e+06
3.50162e+06
3.48812e+06
3.47434e+06
3.46031e+06
3.44601e+06
3.43145e+06
3.41664e+06
3.40158e+06
3.38628e+06
3.37074e+06
3.35497e+06
3.33897e+06
3.32274e+06
3.3063e+06
3.28963e+06
3.27276e+06
3.25568e+06
3.23839e+06
3.22091e+06
3.20323e+06
3.18536e+06
3.1673e+06
3.14906e+06
3.13064e+06
3.11204e+06
3.09327e+06
3.07433e+06
3.05523e+06
3.03596e+06
3.01653e+06
2.99695e+06
2.97722e+06
2.95733e+06
2.9373e+06
2.91713e+06
2.89681e+06
2.87636e+06
2.85577e+06
2.83505e+06
2.8142e+06
2.79322e+06
2.77212e+06
2.7509e+06
2.72956e+06
2.7081e+06
2.68652e+06
2.66484e+06
2.64304e+06
2.62114e+06
2.59913e+06
2.57702e+06
2.55481e+06
2.5325e+06
2.51009e+06
2.48759e+06
2.465e+06
2.44232e+06
2.41955e+06
2.39669e+06
2.37375e+06
2.35074e+06
2.32764e+06
2.30446e+06
2.28121e+06
2.25789e+06
2.23449e+06
2.21103e+06
2.1875e+06
2.1639e+06
2.14024e+06
2.11653e+06
2.09275e+06
2.06892e+06
2.04503e+06
2.0211e+06
1.99711e+06
1.97308e+06
1.949e+06
1.92488e+06
1.90072e+06
1.87652e+06
1.85229e+06
1.82803e+06
1.80373e+06
1.77941e+06
1.75506e+06
1.73069e+06
1.7063e+06
1.6819e+06
1.65748e+06
1.63305e+06
1.60861e+06
1.58417e+06
1.55972e+06
1.53527e+06
1.51083e+06
1.4864e+06
1.46198e+06
1.43757e+06
1.41317e+06
1.3888e+06
1.36446e+06
1.34014e+06
1.31585e+06
1.2916e+06
1.26739e+06
1.24322e+06
1.21909e+06
1.19502e+06
1.17101e+06
1.14705e+06
1.12316e+06
1.09934e+06
1.07558e+06
1.05191e+06
1.02832e+06
1.00482e+06
981408
958094
934884
911781
888792
865922
843177
820563
798087
775754
753572
731548
709690
688004
666501
645189
624078
603181
582511
562083
541916
522028
502441
483158
3.77977e+06
3.77943e+06
3.77875e+06
3.77774e+06
3.77638e+06
3.77467e+06
3.7726e+06
3.77018e+06
3.7674e+06
3.76424e+06
3.76072e+06
3.75683e+06
3.75257e+06
3.74793e+06
3.74293e+06
3.73755e+06
3.73179e+06
3.72567e+06
3.71918e+06
3.71232e+06
3.7051e+06
3.69752e+06
3.68958e+06
3.68129e+06
3.67264e+06
3.66365e+06
3.65432e+06
3.64465e+06
3.63465e+06
3.62432e+06
3.61367e+06
3.6027e+06
3.59141e+06
3.57982e+06
3.56792e+06
3.55573e+06
3.54324e+06
3.53047e+06
3.51741e+06
3.50407e+06
3.49046e+06
3.47658e+06
3.46244e+06
3.44804e+06
3.43339e+06
3.41848e+06
3.40334e+06
3.38795e+06
3.37233e+06
3.35648e+06
3.3404e+06
3.3241e+06
3.30758e+06
3.29085e+06
3.27392e+06
3.25677e+06
3.23943e+06
3.22189e+06
3.20416e+06
3.18624e+06
3.16813e+06
3.14984e+06
3.13138e+06
3.11274e+06
3.09393e+06
3.07495e+06
3.05581e+06
3.03651e+06
3.01705e+06
2.99744e+06
2.97768e+06
2.95776e+06
2.93771e+06
2.91751e+06
2.89717e+06
2.87669e+06
2.85609e+06
2.83535e+06
2.81448e+06
2.79348e+06
2.77236e+06
2.75113e+06
2.72977e+06
2.70829e+06
2.68671e+06
2.66501e+06
2.6432e+06
2.62129e+06
2.59927e+06
2.57715e+06
2.55493e+06
2.53261e+06
2.51019e+06
2.48769e+06
2.46509e+06
2.4424e+06
2.41962e+06
2.39676e+06
2.37382e+06
2.3508e+06
2.32769e+06
2.30451e+06
2.28126e+06
2.25793e+06
2.23453e+06
2.21106e+06
2.18753e+06
2.16393e+06
2.14027e+06
2.11655e+06
2.09278e+06
2.06894e+06
2.04505e+06
2.02112e+06
1.99713e+06
1.97309e+06
1.94901e+06
1.92489e+06
1.90073e+06
1.87653e+06
1.8523e+06
1.82804e+06
1.80374e+06
1.77942e+06
1.75507e+06
1.7307e+06
1.70631e+06
1.6819e+06
1.65748e+06
1.63305e+06
1.60861e+06
1.58417e+06
1.55972e+06
1.53528e+06
1.51084e+06
1.4864e+06
1.46198e+06
1.43757e+06
1.41318e+06
1.38881e+06
1.36446e+06
1.34014e+06
1.31585e+06
1.2916e+06
1.26739e+06
1.24322e+06
1.21909e+06
1.19502e+06
1.17101e+06
1.14705e+06
1.12316e+06
1.09934e+06
1.07559e+06
1.05191e+06
1.02832e+06
1.00482e+06
981407
958094
934883
911780
888790
865920
843175
820560
798083
775749
753566
731540
709679
687991
666483
645166
624049
603143
582460
562014
541820
521893
502243
482862
3.78822e+06
3.78786e+06
3.78716e+06
3.7861e+06
3.78468e+06
3.78291e+06
3.78076e+06
3.77825e+06
3.77536e+06
3.7721e+06
3.76845e+06
3.76443e+06
3.76003e+06
3.75525e+06
3.75008e+06
3.74454e+06
3.73862e+06
3.73233e+06
3.72566e+06
3.71863e+06
3.71122e+06
3.70346e+06
3.69533e+06
3.68685e+06
3.67802e+06
3.66885e+06
3.65934e+06
3.64949e+06
3.63931e+06
3.6288e+06
3.61798e+06
3.60684e+06
3.59539e+06
3.58363e+06
3.57158e+06
3.55923e+06
3.54659e+06
3.53367e+06
3.52047e+06
3.50699e+06
3.49325e+06
3.47924e+06
3.46498e+06
3.45046e+06
3.43569e+06
3.42068e+06
3.40543e+06
3.38994e+06
3.37422e+06
3.35827e+06
3.3421e+06
3.32572e+06
3.30912e+06
3.29231e+06
3.27529e+06
3.25808e+06
3.24066e+06
3.22306e+06
3.20526e+06
3.18728e+06
3.16912e+06
3.15077e+06
3.13226e+06
3.11357e+06
3.09471e+06
3.07569e+06
3.05651e+06
3.03716e+06
3.01767e+06
2.99802e+06
2.97822e+06
2.95828e+06
2.93819e+06
2.91796e+06
2.89759e+06
2.87709e+06
2.85646e+06
2.8357e+06
2.8148e+06
2.79379e+06
2.77265e+06
2.75139e+06
2.73002e+06
2.70853e+06
2.68693e+06
2.66521e+06
2.64339e+06
2.62146e+06
2.59943e+06
2.5773e+06
2.55507e+06
2.53274e+06
2.51032e+06
2.4878e+06
2.4652e+06
2.4425e+06
2.41972e+06
2.39685e+06
2.3739e+06
2.35087e+06
2.32776e+06
2.30458e+06
2.28132e+06
2.25798e+06
2.23458e+06
2.21111e+06
2.18757e+06
2.16397e+06
2.14031e+06
2.11659e+06
2.0928e+06
2.06897e+06
2.04508e+06
2.02114e+06
1.99715e+06
1.97311e+06
1.94903e+06
1.92491e+06
1.90075e+06
1.87655e+06
1.85231e+06
1.82805e+06
1.80375e+06
1.77943e+06
1.75508e+06
1.73071e+06
1.70632e+06
1.68191e+06
1.65749e+06
1.63306e+06
1.60862e+06
1.58417e+06
1.55973e+06
1.53528e+06
1.51084e+06
1.4864e+06
1.46198e+06
1.43757e+06
1.41318e+06
1.38881e+06
1.36446e+06
1.34014e+06
1.31585e+06
1.2916e+06
1.26739e+06
1.24322e+06
1.2191e+06
1.19502e+06
1.17101e+06
1.14705e+06
1.12316e+06
1.09934e+06
1.07559e+06
1.05191e+06
1.02832e+06
1.00482e+06
981407
958093
934882
911779
888789
865918
843172
820556
798078
775743
753558
731530
709667
687975
666463
645140
624015
603099
582402
561936
541714
521746
502035
482570
3.79823e+06
3.79784e+06
3.79709e+06
3.79598e+06
3.7945e+06
3.79264e+06
3.7904e+06
3.78777e+06
3.78476e+06
3.78136e+06
3.77756e+06
3.77338e+06
3.76881e+06
3.76384e+06
3.75849e+06
3.75275e+06
3.74663e+06
3.74013e+06
3.73325e+06
3.726e+06
3.71838e+06
3.71039e+06
3.70205e+06
3.69335e+06
3.6843e+06
3.67491e+06
3.66518e+06
3.65511e+06
3.64472e+06
3.63401e+06
3.62298e+06
3.61164e+06
3.6e+06
3.58805e+06
3.57581e+06
3.56328e+06
3.55047e+06
3.53738e+06
3.52401e+06
3.51038e+06
3.49648e+06
3.48233e+06
3.46792e+06
3.45326e+06
3.43836e+06
3.42322e+06
3.40784e+06
3.39224e+06
3.3764e+06
3.36035e+06
3.34408e+06
3.32759e+06
3.31089e+06
3.29399e+06
3.27689e+06
3.25959e+06
3.24209e+06
3.22441e+06
3.20654e+06
3.18849e+06
3.17026e+06
3.15185e+06
3.13327e+06
3.11452e+06
3.09561e+06
3.07654e+06
3.05731e+06
3.03792e+06
3.01838e+06
2.99869e+06
2.97885e+06
2.95887e+06
2.93874e+06
2.91848e+06
2.89808e+06
2.87755e+06
2.85689e+06
2.8361e+06
2.81518e+06
2.79414e+06
2.77298e+06
2.7517e+06
2.73031e+06
2.7088e+06
2.68718e+06
2.66545e+06
2.64361e+06
2.62167e+06
2.59963e+06
2.57748e+06
2.55524e+06
2.5329e+06
2.51046e+06
2.48794e+06
2.46532e+06
2.44261e+06
2.41982e+06
2.39695e+06
2.37399e+06
2.35095e+06
2.32784e+06
2.30465e+06
2.28138e+06
2.25804e+06
2.23464e+06
2.21116e+06
2.18762e+06
2.16402e+06
2.14035e+06
2.11662e+06
2.09284e+06
2.069e+06
2.04511e+06
2.02116e+06
1.99717e+06
1.97313e+06
1.94905e+06
1.92493e+06
1.90076e+06
1.87656e+06
1.85233e+06
1.82806e+06
1.80376e+06
1.77944e+06
1.75509e+06
1.73071e+06
1.70632e+06
1.68192e+06
1.6575e+06
1.63306e+06
1.60862e+06
1.58418e+06
1.55973e+06
1.53528e+06
1.51084e+06
1.48641e+06
1.46198e+06
1.43757e+06
1.41318e+06
1.38881e+06
1.36446e+06
1.34014e+06
1.31585e+06
1.2916e+06
1.26739e+06
1.24322e+06
1.2191e+06
1.19503e+06
1.17101e+06
1.14705e+06
1.12316e+06
1.09934e+06
1.07559e+06
1.05191e+06
1.02832e+06
1.00482e+06
981407
958093
934881
911777
888787
865915
843169
820552
798073
775737
753550
731519
709653
687957
666440
645111
623978
603050
582338
561852
541600
521592
501825
482287
3.80985e+06
3.80943e+06
3.80864e+06
3.80746e+06
3.80589e+06
3.80393e+06
3.80157e+06
3.79881e+06
3.79564e+06
3.79207e+06
3.7881e+06
3.78372e+06
3.77894e+06
3.77376e+06
3.76818e+06
3.7622e+06
3.75584e+06
3.74909e+06
3.74196e+06
3.73445e+06
3.72657e+06
3.71833e+06
3.70972e+06
3.70076e+06
3.69146e+06
3.68181e+06
3.67183e+06
3.66152e+06
3.65088e+06
3.63993e+06
3.62867e+06
3.6171e+06
3.60523e+06
3.59307e+06
3.58061e+06
3.56788e+06
3.55486e+06
3.54158e+06
3.52803e+06
3.51421e+06
3.50014e+06
3.48581e+06
3.47124e+06
3.45643e+06
3.44138e+06
3.42609e+06
3.41058e+06
3.39484e+06
3.37888e+06
3.3627e+06
3.3463e+06
3.3297e+06
3.3129e+06
3.29589e+06
3.27869e+06
3.26129e+06
3.2437e+06
3.22593e+06
3.20798e+06
3.18985e+06
3.17154e+06
3.15306e+06
3.13442e+06
3.11561e+06
3.09663e+06
3.0775e+06
3.05821e+06
3.03877e+06
3.01918e+06
2.99944e+06
2.97956e+06
2.95953e+06
2.93937e+06
2.91907e+06
2.89863e+06
2.87807e+06
2.85737e+06
2.83655e+06
2.81561e+06
2.79454e+06
2.77336e+06
2.75205e+06
2.73064e+06
2.70911e+06
2.68746e+06
2.66572e+06
2.64386e+06
2.6219e+06
2.59984e+06
2.57768e+06
2.55542e+06
2.53307e+06
2.51062e+06
2.48809e+06
2.46546e+06
2.44274e+06
2.41994e+06
2.39706e+06
2.37409e+06
2.35105e+06
2.32793e+06
2.30473e+06
2.28146e+06
2.25811e+06
2.2347e+06
2.21122e+06
2.18767e+06
2.16407e+06
2.14039e+06
2.11666e+06
2.09288e+06
2.06903e+06
2.04514e+06
2.02119e+06
1.9972e+06
1.97316e+06
1.94907e+06
1.92495e+06
1.90078e+06
1.87658e+06
1.85234e+06
1.82807e+06
1.80377e+06
1.77945e+06
1.7551e+06
1.73072e+06
1.70633e+06
1.68192e+06
1.6575e+06
1.63307e+06
1.60863e+06
1.58418e+06
1.55973e+06
1.53529e+06
1.51085e+06
1.48641e+06
1.46199e+06
1.43758e+06
1.41318e+06
1.38881e+06
1.36446e+06
1.34014e+06
1.31586e+06
1.2916e+06
1.26739e+06
1.24322e+06
1.2191e+06
1.19503e+06
1.17101e+06
1.14705e+06
1.12316e+06
1.09934e+06
1.07559e+06
1.05191e+06
1.02832e+06
1.00482e+06
981406
958092
934880
911776
888785
865913
843165
820548
798067
775729
753540
731507
709637
687938
666416
645079
623937
602997
582269
561762
541482
521434
501616
482013
3.82317e+06
3.82272e+06
3.82187e+06
3.82062e+06
3.81895e+06
3.81686e+06
3.81435e+06
3.81142e+06
3.80807e+06
3.8043e+06
3.8001e+06
3.79549e+06
3.79046e+06
3.78502e+06
3.77917e+06
3.77291e+06
3.76626e+06
3.75922e+06
3.75179e+06
3.74399e+06
3.73581e+06
3.72726e+06
3.71836e+06
3.7091e+06
3.6995e+06
3.68956e+06
3.67929e+06
3.66869e+06
3.65778e+06
3.64656e+06
3.63503e+06
3.6232e+06
3.61107e+06
3.59866e+06
3.58597e+06
3.573e+06
3.55976e+06
3.54626e+06
3.53249e+06
3.51848e+06
3.50421e+06
3.4897e+06
3.47494e+06
3.45995e+06
3.44473e+06
3.42929e+06
3.41362e+06
3.39773e+06
3.38162e+06
3.36531e+06
3.34878e+06
3.33206e+06
3.31513e+06
3.298e+06
3.28069e+06
3.26318e+06
3.2455e+06
3.22763e+06
3.20958e+06
3.19136e+06
3.17297e+06
3.15441e+06
3.13569e+06
3.11681e+06
3.09777e+06
3.07857e+06
3.05922e+06
3.03972e+06
3.02007e+06
3.00028e+06
2.98035e+06
2.96027e+06
2.94006e+06
2.91972e+06
2.89925e+06
2.87864e+06
2.85791e+06
2.83706e+06
2.81608e+06
2.79499e+06
2.77377e+06
2.75244e+06
2.731e+06
2.70945e+06
2.68778e+06
2.66601e+06
2.64414e+06
2.62216e+06
2.60008e+06
2.57791e+06
2.55563e+06
2.53326e+06
2.5108e+06
2.48825e+06
2.46561e+06
2.44289e+06
2.42008e+06
2.39718e+06
2.37421e+06
2.35115e+06
2.32802e+06
2.30482e+06
2.28154e+06
2.25819e+06
2.23477e+06
2.21129e+06
2.18773e+06
2.16412e+06
2.14044e+06
2.11671e+06
2.09292e+06
2.06907e+06
2.04518e+06
2.02123e+06
1.99723e+06
1.97319e+06
1.9491e+06
1.92497e+06
1.9008e+06
1.8766e+06
1.85236e+06
1.82809e+06
1.80379e+06
1.77946e+06
1.75511e+06
1.73073e+06
1.70634e+06
1.68193e+06
1.65751e+06
1.63308e+06
1.60863e+06
1.58419e+06
1.55974e+06
1.53529e+06
1.51085e+06
1.48641e+06
1.46199e+06
1.43758e+06
1.41319e+06
1.38881e+06
1.36447e+06
1.34015e+06
1.31586e+06
1.29161e+06
1.26739e+06
1.24322e+06
1.2191e+06
1.19503e+06
1.17101e+06
1.14705e+06
1.12316e+06
1.09934e+06
1.07559e+06
1.05191e+06
1.02832e+06
1.00482e+06
981406
958091
934879
911774
888783
865910
843161
820543
798061
775721
753530
731495
709621
687917
666389
645045
623894
602942
582198
561669
541360
521275
501411
481752
3.83832e+06
3.83783e+06
3.8369e+06
3.83555e+06
3.83375e+06
3.83151e+06
3.82883e+06
3.8257e+06
3.82212e+06
3.8181e+06
3.81364e+06
3.80875e+06
3.80342e+06
3.79767e+06
3.7915e+06
3.78492e+06
3.77793e+06
3.77054e+06
3.76277e+06
3.75462e+06
3.74609e+06
3.7372e+06
3.72795e+06
3.71835e+06
3.70841e+06
3.69814e+06
3.68754e+06
3.67662e+06
3.6654e+06
3.65386e+06
3.64203e+06
3.62991e+06
3.6175e+06
3.60482e+06
3.59186e+06
3.57863e+06
3.56514e+06
3.5514e+06
3.5374e+06
3.52316e+06
3.50868e+06
3.49395e+06
3.479e+06
3.46382e+06
3.44842e+06
3.43279e+06
3.41695e+06
3.4009e+06
3.38464e+06
3.36817e+06
3.3515e+06
3.33463e+06
3.31757e+06
3.30032e+06
3.28288e+06
3.26526e+06
3.24746e+06
3.22948e+06
3.21134e+06
3.19302e+06
3.17454e+06
3.15589e+06
3.13709e+06
3.11812e+06
3.09901e+06
3.07974e+06
3.06032e+06
3.04075e+06
3.02105e+06
3.0012e+06
2.98121e+06
2.96108e+06
2.94083e+06
2.92044e+06
2.89992e+06
2.87927e+06
2.8585e+06
2.83761e+06
2.8166e+06
2.79547e+06
2.77423e+06
2.75287e+06
2.7314e+06
2.70982e+06
2.68813e+06
2.66634e+06
2.64444e+06
2.62244e+06
2.60034e+06
2.57815e+06
2.55586e+06
2.53348e+06
2.511e+06
2.48844e+06
2.46578e+06
2.44304e+06
2.42022e+06
2.39732e+06
2.37433e+06
2.35127e+06
2.32813e+06
2.30492e+06
2.28163e+06
2.25827e+06
2.23485e+06
2.21136e+06
2.1878e+06
2.16418e+06
2.1405e+06
2.11676e+06
2.09297e+06
2.06912e+06
2.04521e+06
2.02126e+06
1.99726e+06
1.97322e+06
1.94913e+06
1.925e+06
1.90083e+06
1.87662e+06
1.85238e+06
1.82811e+06
1.8038e+06
1.77947e+06
1.75512e+06
1.73075e+06
1.70635e+06
1.68194e+06
1.65752e+06
1.63308e+06
1.60864e+06
1.58419e+06
1.55975e+06
1.5353e+06
1.51085e+06
1.48642e+06
1.46199e+06
1.43758e+06
1.41319e+06
1.38882e+06
1.36447e+06
1.34015e+06
1.31586e+06
1.29161e+06
1.26739e+06
1.24322e+06
1.2191e+06
1.19503e+06
1.17101e+06
1.14706e+06
1.12316e+06
1.09934e+06
1.07559e+06
1.05191e+06
1.02832e+06
1.00482e+06
981406
958091
934878
911773
888781
865907
843158
820538
798055
775713
753520
731481
709604
687895
666361
645010
623849
602884
582124
561574
541238
521119
501211
481503
3.85541e+06
3.85487e+06
3.85386e+06
3.85238e+06
3.85043e+06
3.84801e+06
3.84511e+06
3.84173e+06
3.83788e+06
3.83356e+06
3.82879e+06
3.82355e+06
3.81787e+06
3.81175e+06
3.8052e+06
3.79823e+06
3.79085e+06
3.78307e+06
3.77489e+06
3.76634e+06
3.75741e+06
3.74812e+06
3.73848e+06
3.72849e+06
3.71817e+06
3.70753e+06
3.69656e+06
3.68529e+06
3.67371e+06
3.66183e+06
3.64967e+06
3.63723e+06
3.62451e+06
3.61152e+06
3.59826e+06
3.58475e+06
3.57099e+06
3.55698e+06
3.54273e+06
3.52824e+06
3.51352e+06
3.49857e+06
3.4834e+06
3.46801e+06
3.4524e+06
3.43658e+06
3.42056e+06
3.40433e+06
3.38789e+06
3.37126e+06
3.35444e+06
3.33742e+06
3.32021e+06
3.30282e+06
3.28525e+06