/*--------------------------------*- C++ -*----------------------------------*\
  =========                 |
  \\      /  F ield         | OpenFOAM: The Open Source CFD Toolbox
   \\    /   O peration     | Website:  https://openfoam.org
    \\  /    A nd           | Version:  7
     \\/     M anipulation  |
\*---------------------------------------------------------------------------*/
FoamFile
{
    version     2.0;
    format      ascii;
    class       volScalarField;
    location    "0.062";
    object      s_0;
}
// * * * * * * * * * * * * * * * * * * * * * * * * * * * * * * * * * * * * * //

dimensions      [0 0 0 0 0 0 0];

internalField   nonuniform List<scalar> 
12225
(
1
1
1
1
1
1
1
1
1
1
1
1
1
1
1
1
1
1
1
1
1
1
1
1
1
1
1
1
1
1
1
1
1
1
1
1
1
1
1
1
1
1
1
1
1
1
1
1
1
1
1
1
1
1
1
1
1
1
1
1
1
1
1
1
1
1
1
1
1
1
1
1
1
1
1
1
1
1
1
1
1
1
1
1
1
1
1
1
1
1
1
1
1
1
1
1
1
1
1
1
1
1
1
1
1
1
1
1
1
1
1
1
1
1
1
1
1
1
1
1
1
1
1
1
1
1
1
1
1
1
1
1
1
1
1
1
1
1
1
1
1
1
1
1
1
1
1
1
1
1
1
1
1
1
1
1
1
1
1
1
1
1
1
1
1
1
1
1
1
1
1
1
1
1
1
1
1
1
1
1
1
1
1
1
1
1
1
1
1
1
1
1
1
1
1
1
1
1
1
1
1
1
1
1
1
1
1
1
1
1
1
1
1
1
1
1
1
1
1
1
1
1
1
1
1
1
1
1
1
1
1
1
1
1
1
1
1
1
1
1
1
1
1
1
1
1
1
1
1
1
1
1
1
1
1
1
1
1
1
1
1
1
1
1
1
1
1
1
1
1
1
1
1
1
1
1
1
1
1
1
1
1
1
1
1
1
1
1
1
1
1
1
1
1
1
1
1
1
1
1
1
1
1
1
1
1
1
1
1
1
1
1
1
1
1
1
1
1
1
1
1
1
1
1
1
1
1
1
1
1
1
1
1
1
1
1
1
1
1
1
1
1
1
1
1
1
1
1
1
1
1
1
1
1
1
1
1
1
1
1
1
1
1
1
1
1
1
1
1
1
1
1
1
1
1
1
1
1
1
1
1
1
1
1
1
1
1
1
1
1
1
1
1
1
1
1
1
1
1
1
1
1
1
1
1
1
1
1
1
1
1
1
1
1
1
1
1
1
1
1
1
1
1
1
1
1
1
1
1
1
1
1
1
1
1
1
1
1
1
1
1
1
1
1
1
1
1
1
1
1
1
1
1
1
1
1
1
1
1
1
1
1
1
1
1
1
1
1
1
1
1
1
1
1
1
1
1
1
1
1
1
1
1
1
1
1
1
1
1
1
1
1
1
1
1
1
1
1
1
1
1
1
1
1
1
1
1
1
1
1
1
1
1
1
1
1
1
1
1
1
1
1
1
1
1
1
1
1
1
1
1
1
1
1
1
1
1
1
1
1
0.000213832
0.000994455
0.00229834
0.00400849
0.00633426
0.00948567
0.0121751
0.014922
0.0225865
0.0271092
0.0364054
0.0474628
0.0589847
0.0723368
0.0833064
0.0951993
0.102818
0.110438
0.115059
0.114823
0.113199
0.109996
0.105523
0.100627
0.0953313
0.0896864
0.081733
0.0744203
0.0652331
0.0542687
0.046527
0.0312946
0.00927207
0.00170748
0.00154402
0.0028756
0.00458537
0.00623181
0.00861098
0.0123705
0.0152
0.0194163
0.0260052
0.0321945
0.0422951
0.0571949
0.17564
0.601687
0.763434
0.774872
0.777862
0.779487
0.781043
0.783439
0.785024
0.786379
0.788937
0.791524
0.792946
0.794052
0.795576
0.797102
0.79832
0.799468
0.800661
0.80169
0.802448
0.803127
0.803914
0.80474
0.805459
0.806001
0.806499
0.806811
0.806953
0.807004
0.80697
0.806944
0.806998
0.80706
0.807046
0.806864
0.80658
0.806311
0.805911
0.805416
0.805049
0.804824
0.804616
0.804193
0.803335
0.80236
0.801391
0.800029
0.797988
0.79548
0.792109
0.787744
0.782429
0.775616
0.767194
0.7572
0.745255
0.73158
0.715766
0.697746
0.67694
0.652891
0.625008
0.592594
0.555003
0.512064
0.463784
0.410534
0.353302
0.293849
0.234806
0.179329
0.130617
0.0910279
0.0610987
0.0396026
0.0240092
0.0131996
0.00687121
0.00340055
0.00160057
0.000717166
0.000306272
0.000124814
4.86493e-05
1.82758e-05
6.52161e-06
1.92777e-06
7.08956e-07
3.4866e-07
1.63219e-07
7.47515e-08
3.35943e-08
1.47997e-08
6.39221e-09
2.70915e-09
1.12772e-09
4.61462e-10
1.85786e-10
7.36565e-11
2.87821e-11
1.10958e-11
4.22449e-12
1.59034e-12
5.92847e-13
2.19223e-13
8.05389e-14
2.9418e-14
1.06805e-14
3.84958e-15
1.37443e-15
4.84486e-16
1.68016e-16
5.72417e-17
1.91475e-17
6.28743e-18
2.02678e-18
6.41413e-19
1.9928e-19
6.07752e-20
1.81894e-20
5.34019e-21
1.53713e-21
4.33471e-22
1.19654e-22
3.22912e-23
8.50873e-24
2.18442e-24
5.45302e-25
1.31789e-25
3.07718e-26
6.74308e-27
1.46917e-27
-3.87595e-28
0.000161673
0.000817314
0.00219623
0.00510473
0.00901169
0.0155689
0.0232571
0.0328609
0.0556616
0.0774498
0.118727
0.174879
0.219974
0.28392
0.343551
0.391819
0.433743
0.458575
0.481412
0.492934
0.491927
0.485991
0.470097
0.450046
0.407335
0.366533
0.312759
0.240541
0.178553
0.127354
0.0919066
0.0659307
0.0412569
0.0247155
0.016419
0.011353
0.00945488
0.00993451
0.0119839
0.0165816
0.0257827
0.0432627
0.0475631
0.0568971
0.208524
0.611799
0.704501
0.780039
0.813044
0.828335
0.840949
0.853482
0.860685
0.867139
0.870369
0.872093
0.872806
0.87289
0.871526
0.869012
0.867566
0.865202
0.861814
0.859615
0.857571
0.855424
0.854435
0.853269
0.851545
0.850387
0.849581
0.849002
0.848806
0.848784
0.849243
0.850324
0.851413
0.852618
0.854143
0.855851
0.857641
0.859515
0.861595
0.863818
0.865781
0.86746
0.86928
0.871524
0.874189
0.876957
0.879976
0.883763
0.888299
0.893237
0.898652
0.905028
0.912325
0.92027
0.928948
0.937989
0.946695
0.954471
0.960268
0.965303
0.969591
0.973149
0.976022
0.978212
0.979739
0.980617
0.980841
0.979553
0.975302
0.968097
0.9571
0.940932
0.917668
0.884777
0.8391
0.777682
0.699513
0.60643
0.504153
0.400196
0.302923
0.220194
0.155308
0.106175
0.0703746
0.0452989
0.0283479
0.017271
0.010259
0.00594999
0.00337425
0.00187382
0.00102049
0.000545813
0.000287095
0.000148688
7.58945e-05
3.82063e-05
1.89767e-05
9.30061e-06
4.49722e-06
2.14474e-06
1.00835e-06
4.67169e-07
2.13242e-07
9.59513e-08
4.26387e-08
1.8786e-08
8.23938e-09
3.5777e-09
1.52576e-09
6.35305e-10
2.5697e-10
1.00334e-10
3.75844e-11
1.36606e-11
4.83299e-12
1.66714e-12
5.61488e-13
1.84834e-13
5.95123e-14
1.87505e-14
5.78189e-15
1.74504e-15
5.1534e-16
1.48892e-16
4.20517e-17
1.16082e-17
3.12631e-18
8.2167e-19
2.09887e-19
5.21918e-20
1.25667e-20
2.65102e-21
7.16131e-22
-1.34202e-21
5.42138e-05
0.000314444
0.00137611
0.00545622
0.0122089
0.0223976
0.0410807
0.067898
0.116685
0.189593
0.297535
0.416586
0.522586
0.587005
0.62862
0.653466
0.667866
0.677394
0.683978
0.687525
0.688782
0.687938
0.685018
0.677191
0.666424
0.64313
0.615141
0.576942
0.504108
0.420961
0.301163
0.193539
0.125833
0.0811529
0.058248
0.0411712
0.0319179
0.0329496
0.040789
0.0664955
0.0710171
0.0871908
0.267542
0.566755
0.729016
0.806882
0.835872
0.85381
0.861852
0.865791
0.867613
0.868145
0.866606
0.863265
0.85627
0.84577
0.832512
0.817514
0.805891
0.79728
0.788251
0.783014
0.77869
0.776906
0.776378
0.776698
0.779733
0.782865
0.784369
0.787582
0.789857
0.790543
0.790804
0.7909
0.790946
0.791087
0.791347
0.791579
0.791657
0.791677
0.791812
0.792188
0.792832
0.793652
0.794522
0.795921
0.798136
0.800866
0.803855
0.806982
0.810128
0.813478
0.816961
0.820511
0.824344
0.828254
0.832605
0.837662
0.843826
0.851392
0.861223
0.874318
0.890765
0.907533
0.922746
0.935762
0.94742
0.95795
0.967357
0.97566
0.98275
0.988582
0.992676
0.995359
0.996912
0.997614
0.997796
0.997648
0.99658
0.993996
0.990178
0.983622
0.970283
0.942627
0.890795
0.808004
0.695691
0.565872
0.434779
0.317922
0.224002
0.153046
0.10153
0.0655668
0.0413096
0.0254511
0.0153708
0.00912159
0.00533147
0.00307581
0.00175483
0.000991763
0.000556101
0.000309895
0.000171921
9.48055e-05
5.17558e-05
2.78805e-05
1.4782e-05
7.69752e-06
3.93066e-06
1.96596e-06
9.62427e-07
4.60995e-07
2.16024e-07
9.90229e-08
4.4395e-08
1.94636e-08
8.34293e-09
3.49565e-09
1.43129e-09
5.72506e-10
2.23579e-10
8.52007e-11
3.16531e-11
1.14508e-11
4.03228e-12
1.39033e-12
4.69352e-13
1.55161e-13
5.0191e-14
1.58924e-14
4.91599e-15
1.48746e-15
4.38201e-16
1.26183e-16
3.51304e-17
9.55342e-18
2.50129e-18
5.33072e-19
2.12554e-05
0.000262817
0.0037115
0.0126076
0.0263038
0.0535526
0.105943
0.187878
0.322061
0.488585
0.594722
0.649804
0.677296
0.687193
0.693838
0.695612
0.695385
0.694753
0.693633
0.691607
0.692183
0.692264
0.69185
0.690306
0.686785
0.681251
0.670074
0.658772
0.637919
0.595971
0.549329
0.448416
0.335835
0.238843
0.161342
0.10506
0.0806639
0.0825095
0.101405
0.17178
0.355921
0.526646
0.711207
0.799331
0.840433
0.85631
0.861776
0.863346
0.8632
0.861601
0.854247
0.84217
0.82248
0.801674
0.78417
0.767751
0.759104
0.752696
0.748203
0.746419
0.745871
0.746191
0.749479
0.755704
0.761748
0.766312
0.770696
0.775358
0.780336
0.784159
0.78529
0.785473
0.785421
0.785174
0.784739
0.784155
0.783397
0.782542
0.78174
0.781236
0.781121
0.781139
0.781414
0.782269
0.784114
0.78695
0.790571
0.794759
0.799051
0.803011
0.806881
0.810744
0.814594
0.818172
0.821594
0.82445
0.826818
0.828994
0.831429
0.833916
0.836886
0.840619
0.846543
0.856305
0.870773
0.886371
0.901845
0.916272
0.929393
0.941106
0.95164
0.961771
0.972315
0.982128
0.989885
0.994813
0.99745
0.998774
0.999399
0.999669
0.999766
0.999787
0.99976
0.999588
0.999036
0.997551
0.993678
0.983336
0.954433
0.870671
0.726451
0.571959
0.426143
0.303531
0.208828
0.139511
0.0908835
0.0579515
0.0362921
0.0223894
0.0136431
0.00822865
0.00491623
0.00290861
0.00170202
0.000983542
0.000560284
0.000314021
0.00017284
9.32812e-05
4.93069e-05
2.55063e-05
1.29072e-05
6.38834e-06
3.09254e-06
1.46433e-06
6.78246e-07
3.07312e-07
1.36217e-07
5.90676e-08
2.50561e-08
1.03963e-08
4.21826e-09
1.67327e-09
6.48573e-10
2.45559e-10
9.07314e-11
3.26932e-11
1.14671e-11
3.93003e-12
1.31782e-12
4.32511e-13
1.38687e-13
4.34992e-14
1.32928e-14
3.97039e-15
1.14915e-15
3.24791e-16
8.8295e-17
2.24422e-17
7.61723e-05
0.00409634
0.0142797
0.0312807
0.0694424
0.153413
0.300776
0.51089
0.630349
0.680542
0.699606
0.70159
0.699777
0.693942
0.682288
0.659847
0.6372
0.615812
0.590877
0.574643
0.565534
0.568631
0.577886
0.59682
0.618013
0.636583
0.648242
0.648243
0.643623
0.63203
0.611943
0.573708
0.491653
0.359087
0.311698
0.219483
0.143577
0.153364
0.374239
0.565067
0.682412
0.777696
0.83078
0.852815
0.860539
0.861983
0.860572
0.855895
0.845375
0.82574
0.807416
0.789515
0.77361
0.760312
0.74804
0.740604
0.736155
0.733385
0.728364
0.726221
0.725556
0.725579
0.727626
0.733586
0.742154
0.749798
0.755572
0.762061
0.76895
0.77109
0.771445
0.771405
0.771021
0.770225
0.769268
0.768704
0.768581
0.768643
0.769029
0.769883
0.771075
0.772808
0.774833
0.777472
0.780815
0.784771
0.789126
0.794196
0.799642
0.805391
0.811687
0.817732
0.82365
0.829123
0.834051
0.83821
0.841488
0.843971
0.845274
0.84501
0.843184
0.840235
0.839883
0.84164
0.847011
0.861151
0.880846
0.899095
0.915574
0.929701
0.94158
0.951381
0.95946
0.966994
0.974823
0.982974
0.990068
0.994868
0.997534
0.998891
0.999529
0.999804
0.999914
0.999952
0.999962
0.99996
0.999934
0.999823
0.999433
0.998109
0.993615
0.978491
0.927877
0.782025
0.602859
0.444415
0.315441
0.217267
0.146045
0.0962317
0.0623619
0.0398319
0.0251047
0.0156151
0.00957759
0.0057846
0.00343426
0.00200059
0.00114169
0.000637466
0.000347934
0.000185545
9.66571e-05
4.91886e-05
2.44578e-05
1.18847e-05
5.64516e-06
2.62157e-06
1.19044e-06
5.28648e-07
2.29586e-07
9.75053e-08
4.04898e-08
1.64368e-08
6.52049e-09
2.52699e-09
9.56126e-10
3.53073e-10
1.27131e-10
4.4592e-11
1.52354e-11
5.08962e-12
1.66042e-12
5.2936e-13
1.64467e-13
4.98816e-14
1.4687e-14
4.21363e-15
1.16842e-15
3.06073e-16
0.00429527
0.0140591
0.0322432
0.0819561
0.200234
0.442169
0.632804
0.699698
0.722106
0.719969
0.713503
0.699455
0.669972
0.617505
0.546001
0.484189
0.425085
0.385234
0.354309
0.338678
0.31904
0.31743
0.322962
0.339558
0.38077
0.424806
0.514225
0.582656
0.61835
0.621711
0.615248
0.599273
0.554423
0.488277
0.359076
0.211007
0.202726
0.454771
0.665918
0.752232
0.815092
0.845377
0.857583
0.860711
0.85985
0.855242
0.841597
0.823935
0.806123
0.794963
0.783193
0.772171
0.759691
0.746182
0.732473
0.71989
0.704569
0.693958
0.688586
0.684805
0.683201
0.682823
0.68429
0.691686
0.702204
0.710617
0.71813
0.727354
0.7367
0.743944
0.749604
0.754088
0.757132
0.758927
0.760286
0.761497
0.762622
0.763696
0.764726
0.766144
0.767531
0.769963
0.772465
0.775548
0.779344
0.783809
0.788598
0.794322
0.8004
0.806307
0.812689
0.818703
0.824837
0.830599
0.835816
0.840371
0.844403
0.848531
0.853742
0.858763
0.86285
0.864597
0.858901
0.847481
0.83973
0.837946
0.842982
0.864867
0.893586
0.917467
0.935709
0.948822
0.958204
0.965044
0.970955
0.976684
0.982437
0.988134
0.993047
0.9964
0.998283
0.99923
0.999674
0.999868
0.999948
0.999977
0.999987
0.999988
0.999985
0.999964
0.999877
0.999533
0.998223
0.993282
0.97509
0.910136
0.73714
0.55584
0.404959
0.286758
0.198406
0.134602
0.0897111
0.0587758
0.0378362
0.023904
0.0147989
0.00896427
0.00530579
0.00306552
0.00172788
0.000949885
0.000509326
0.000266436
0.000136024
6.77997e-05
3.30053e-05
1.5697e-05
7.29507e-06
3.31358e-06
1.47116e-06
6.3844e-07
2.70795e-07
1.12242e-07
4.5451e-08
1.79755e-08
6.93997e-09
2.61465e-09
9.60586e-10
3.44014e-10
1.19903e-10
4.07179e-11
1.34943e-11
4.36548e-12
1.3761e-12
4.22911e-13
1.26303e-13
3.66941e-14
1.03338e-14
2.76235e-15
0.0183417
0.0290889
0.0813215
0.244253
0.566115
0.700677
0.739904
0.742285
0.736066
0.721566
0.688452
0.621565
0.506182
0.422123
0.37051
0.333416
0.31196
0.290863
0.275793
0.256675
0.24439
0.232936
0.227002
0.229681
0.240442
0.264739
0.309979
0.408054
0.543581
0.596228
0.606243
0.598558
0.572828
0.499842
0.311176
0.226494
0.46809
0.700055
0.790441
0.83251
0.853314
0.860354
0.861684
0.858849
0.851326
0.833805
0.816476
0.801686
0.79037
0.783136
0.771052
0.758626
0.742895
0.72204
0.700768
0.679793
0.666305
0.660635
0.658114
0.657328
0.657545
0.661529
0.668868
0.676465
0.685505
0.69588
0.705379
0.714311
0.724044
0.733142
0.740305
0.74667
0.75206
0.755594
0.758042
0.759466
0.760653
0.762003
0.762961
0.76422
0.765145
0.767178
0.769299
0.771825
0.77541
0.779636
0.784514
0.790101
0.796324
0.802404
0.809191
0.816921
0.823727
0.829795
0.834764
0.838275
0.839781
0.839489
0.839016
0.842674
0.85344
0.868829
0.878563
0.881882
0.870733
0.844747
0.830408
0.827859
0.838066
0.874989
0.914873
0.941572
0.95783
0.96748
0.973017
0.976881
0.98117
0.98554
0.989613
0.993211
0.996075
0.997985
0.999052
0.99958
0.999824
0.999929
0.999973
0.999989
0.999994
0.999995
0.999994
0.999985
0.999945
0.999778
0.999103
0.996452
0.986308
0.948907
0.821664
0.632774
0.47129
0.34154
0.241687
0.167282
0.113278
0.075
0.0484955
0.0305875
0.0187994
0.0112513
0.00655518
0.00371792
0.00205341
0.00110487
0.000579477
0.000296406
0.000147935
7.20731e-05
3.42872e-05
1.59315e-05
7.23115e-06
3.20639e-06
1.38889e-06
5.8764e-07
2.42804e-07
9.79462e-08
3.85599e-08
1.48095e-08
5.54566e-09
2.02392e-09
7.19305e-10
2.48711e-10
8.3778e-11
2.75221e-11
8.80747e-12
2.74528e-12
8.31946e-13
2.45051e-13
7.0079e-14
1.90956e-14
0.0222155
0.0584678
0.236928
0.612873
0.735843
0.760736
0.758106
0.748842
0.728447
0.682184
0.581338
0.457586
0.387005
0.35214
0.327097
0.307731
0.295501
0.276111
0.253228
0.23813
0.221219
0.212385
0.202277
0.190679
0.190645
0.197188
0.222002
0.2857
0.41688
0.533382
0.582705
0.59085
0.568598
0.454134
0.276457
0.411489
0.703027
0.803416
0.841922
0.857099
0.861858
0.862345
0.859193
0.849419
0.83019
0.815691
0.804093
0.788872
0.776877
0.76467
0.746755
0.728031
0.706558
0.68275
0.665825
0.654115
0.649514
0.648129
0.647995
0.649662
0.653744
0.658951
0.666069
0.673764
0.68142
0.690232
0.698055
0.704859
0.712747
0.720913
0.727588
0.734165
0.740614
0.745415
0.749635
0.751999
0.754055
0.755631
0.756525
0.757558
0.758204
0.758965
0.760309
0.763209
0.766287
0.770252
0.775098
0.781144
0.788936
0.797915
0.807546
0.817507
0.828489
0.839866
0.850178
0.857285
0.859514
0.851881
0.839032
0.828164
0.821638
0.824805
0.850127
0.882157
0.896221
0.895118
0.864224
0.828494
0.819268
0.823206
0.852452
0.909068
0.946594
0.966642
0.977076
0.98233
0.984446
0.986505
0.989325
0.992219
0.994732
0.996708
0.998142
0.999058
0.999563
0.99981
0.999921
0.999969
0.999988
0.999995
0.999997
0.999998
0.999997
0.99999
0.999961
0.999835
0.999314
0.997283
0.989692
0.962048
0.863677
0.680015
0.514651
0.377956
0.27008
0.187836
0.127089
0.0835948
0.0534223
0.0331585
0.0199894
0.0117078
0.00666595
0.00369198
0.00199059
0.00104552
0.000535287
0.000267279
0.000130212
6.19133e-05
2.87377e-05
1.30229e-05
5.76184e-06
2.48876e-06
1.0493e-06
4.31734e-07
1.73296e-07
6.78366e-08
2.58847e-08
9.6236e-09
3.48413e-09
1.22754e-09
4.20622e-10
1.40428e-10
4.56521e-11
1.44463e-11
4.44529e-12
1.32913e-12
3.86183e-13
1.07264e-13
0.0308424
0.144357
0.570831
0.74607
0.772708
0.769924
0.761394
0.745694
0.706894
0.609007
0.473987
0.394003
0.356518
0.339485
0.323007
0.313789
0.294472
0.260888
0.21487
0.190111
0.186805
0.187127
0.184488
0.174333
0.173267
0.176691
0.184696
0.227048
0.384632
0.530325
0.581676
0.58622
0.540122
0.348444
0.345071
0.673457
0.802932
0.844787
0.858772
0.862427
0.862646
0.859626
0.849105
0.827681
0.806766
0.795769
0.779619
0.763925
0.748513
0.725854
0.70553
0.688502
0.671782
0.656916
0.648038
0.644254
0.643139
0.64303
0.643487
0.6452
0.648991
0.653025
0.656659
0.65973
0.6617
0.66388
0.665522
0.666309
0.669379
0.675272
0.680177
0.686997
0.695636
0.70306
0.712609
0.719458
0.726881
0.732083
0.736632
0.741164
0.746218
0.751357
0.756644
0.760905
0.764119
0.76776
0.771683
0.776998
0.784377
0.793212
0.803406
0.815012
0.827762
0.841945
0.85763
0.874548
0.890602
0.902694
0.900718
0.873402
0.833722
0.811121
0.80729
0.822161
0.871931
0.904145
0.908197
0.884657
0.833544
0.818194
0.82136
0.845816
0.907942
0.95166
0.97368
0.984352
0.989536
0.991488
0.992155
0.99324
0.994819
0.996406
0.997704
0.998638
0.999256
0.999629
0.99983
0.999927
0.999971
0.999989
0.999996
0.999998
0.999999
0.999999
0.999997
0.999991
0.999958
0.999822
0.999294
0.997338
0.990311
0.965245
0.877037
0.696977
0.528897
0.387754
0.275242
0.189188
0.125919
0.0811651
0.0506882
0.0306896
0.0180297
0.0102874
0.00570623
0.00307964
0.0016184
0.000828675
0.000413633
0.000201349
9.56101e-05
4.42953e-05
2.00236e-05
8.83181e-06
3.8004e-06
1.59514e-06
6.52889e-07
2.60502e-07
1.01284e-07
3.83582e-08
1.41433e-08
5.07478e-09
1.77042e-09
6.01025e-10
1.98606e-10
6.3853e-11
1.99626e-11
6.06397e-12
1.79094e-12
5.07041e-13
0.0453189
0.289872
0.69934
0.777623
0.779585
0.772391
0.766251
0.744425
0.678703
0.526029
0.426292
0.374723
0.352758
0.348878
0.346865
0.320988
0.254428
0.146908
0.0980339
0.0819929
0.0903741
0.122856
0.141392
0.139999
0.13636
0.138319
0.163411
0.234327
0.411028
0.549666
0.582652
0.565575
0.425792
0.367778
0.589138
0.788479
0.841944
0.857742
0.861783
0.862372
0.859713
0.848866
0.824257
0.792514
0.776657
0.757479
0.736197
0.719452
0.704734
0.687185
0.672794
0.663357
0.654844
0.647517
0.642133
0.638582
0.636957
0.63553
0.633838
0.632003
0.629147
0.622725
0.612626
0.602022
0.5947
0.588809
0.58515
0.583594
0.583659
0.587299
0.592116
0.598931
0.607709
0.61825
0.630726
0.644861
0.661804
0.679348
0.696376
0.712046
0.728399
0.742895
0.753086
0.759007
0.763181
0.766218
0.768375
0.770593
0.773155
0.777217
0.782235
0.788086
0.795536
0.806071
0.822889
0.848128
0.879155
0.906728
0.926986
0.935554
0.924151
0.865365
0.813722
0.803594
0.814426
0.864828
0.909698
0.917105
0.896925
0.844355
0.827238
0.831261
0.860609
0.919458
0.959847
0.980062
0.989591
0.994036
0.995998
0.996548
0.996709
0.9971
0.997858
0.998582
0.999144
0.99952
0.999749
0.999878
0.999945
0.999977
0.999991
0.999997
0.999999
0.999999
0.999999
0.999999
0.999997
0.999986
0.99994
0.999764
0.999116
0.99681
0.988658
0.959902
0.860776
0.675312
0.505027
0.363752
0.252677
0.169418
0.109749
0.0687639
0.0417222
0.0245444
0.0140161
0.00777772
0.00419781
0.00220529
0.00112835
0.000562549
0.000273379
0.000129527
5.98419e-05
2.69593e-05
1.18425e-05
5.07158e-06
2.11694e-06
8.61024e-07
3.41127e-07
1.31599e-07
4.94141e-08
1.80526e-08
6.41329e-09
2.21491e-09
7.44229e-10
2.43213e-10
7.72846e-11
2.38632e-11
7.1663e-12
2.06777e-12
0.0606294
0.3942
0.740317
0.785563
0.782946
0.781043
0.780779
0.740847
0.63486
0.481778
0.410672
0.373742
0.375824
0.372187
0.354728
0.286023
0.164184
0.0921301
0.0608596
0.0547246
0.0669879
0.0844225
0.096327
0.104529
0.116418
0.136881
0.178541
0.293754
0.497922
0.566875
0.570307
0.474698
0.41813
0.484102
0.754412
0.832341
0.853277
0.858939
0.860587
0.858147
0.847421
0.82072
0.781356
0.759901
0.742329
0.72146
0.701015
0.688082
0.678754
0.669603
0.661461
0.655144
0.647741
0.640681
0.634085
0.627729
0.621203
0.612779
0.601957
0.589909
0.577597
0.566937
0.557039
0.549679
0.544556
0.539918
0.53758
0.536686
0.538949
0.544144
0.550666
0.557294
0.565291
0.575429
0.584393
0.594926
0.606165
0.61996
0.639042
0.663734
0.690805
0.716619
0.73572
0.74891
0.755543
0.757665
0.757022
0.756857
0.761129
0.76546
0.769119
0.771715
0.773184
0.773303
0.77332
0.778233
0.797899
0.844133
0.903195
0.938351
0.950197
0.946133
0.893689
0.825196
0.810778
0.823549
0.875014
0.919423
0.928223
0.90999
0.865894
0.852108
0.857267
0.891798
0.938698
0.970079
0.986036
0.993406
0.996697
0.998167
0.998733
0.998862
0.99887
0.998933
0.999214
0.999523
0.99973
0.999857
0.999929
0.999967
0.999985
0.999994
0.999998
0.999999
1
1
1
0.999999
0.999994
0.999975
0.999899
0.999622
0.998632
0.995108
0.982618
0.93906
0.799709
0.606411
0.440828
0.3081
0.207352
0.134604
0.0844266
0.0512463
0.030147
0.01721
0.00954427
0.0051465
0.0027002
0.00137922
0.000686134
0.000332545
0.000157051
7.22798e-05
3.24167e-05
1.4166e-05
6.0308e-06
2.50057e-06
1.00951e-06
3.96692e-07
1.51678e-07
5.64112e-08
2.04002e-08
7.16949e-09
2.45015e-09
8.14131e-10
2.6301e-10
8.25683e-11
2.52166e-11
7.41375e-12
0.0732034
0.440542
0.755449
0.788916
0.791141
0.795462
0.784634
0.732199
0.619388
0.469093
0.410367
0.400184
0.386772
0.381632
0.356387
0.274331
0.148412
0.0913046
0.0714655
0.0661064
0.0703171
0.0837138
0.0936454
0.106612
0.127586
0.170288
0.279003
0.465981
0.54561
0.559333
0.499345
0.450854
0.464912
0.700721
0.813984
0.844527
0.853037
0.855652
0.852056
0.839781
0.812272
0.771813
0.743287
0.724033
0.709138
0.691841
0.675924
0.666161
0.659755
0.654514
0.647811
0.639755
0.631849
0.622464
0.612464
0.602332
0.592355
0.581647
0.569112
0.557514
0.5471
0.532714
0.517623
0.503843
0.490841
0.481522
0.476791
0.474962
0.479151
0.490135
0.503831
0.517471
0.533967
0.548209
0.561722
0.57371
0.584473
0.59511
0.607109
0.621491
0.639476
0.661225
0.687011
0.70989
0.723693
0.731534
0.740322
0.752256
0.761728
0.773393
0.785042
0.791729
0.791582
0.786505
0.775408
0.767407
0.767783
0.778863
0.81636
0.894838
0.944759
0.958554
0.954546
0.904567
0.842416
0.830348
0.847161
0.899604
0.935987
0.945364
0.935563
0.906926
0.894809
0.898431
0.926679
0.95903
0.97981
0.990898
0.996006
0.998208
0.99914
0.999525
0.999659
0.99969
0.999697
0.999715
0.99979
0.999874
0.99993
0.999964
0.999983
0.999992
0.999997
0.999999
0.999999
1
1
1
0.999999
0.999997
0.999986
0.999946
0.999796
0.99925
0.99727
0.990157
0.964985
0.876836
0.680593
0.497532
0.348538
0.234726
0.152334
0.095471
0.0578874
0.0340102
0.0193867
0.0107328
0.00577552
0.00302288
0.00153964
0.000763383
0.000368557
0.000173287
7.9348e-05
3.53825e-05
1.53623e-05
6.49303e-06
2.67085e-06
1.0689e-06
4.161e-07
1.57508e-07
5.79633e-08
2.07293e-08
7.20463e-09
2.43406e-09
7.99438e-10
2.55173e-10
7.92479e-11
2.37317e-11
0.0799402
0.460181
0.760402
0.793584
0.799169
0.800609
0.790989
0.739839
0.621735
0.481747
0.427251
0.411796
0.409827
0.408614
0.403771
0.37011
0.273128
0.166799
0.123461
0.106181
0.102473
0.111102
0.12896
0.160879
0.222793
0.34647
0.473497
0.527772
0.540929
0.507361
0.473983
0.477904
0.631713
0.786918
0.830758
0.842773
0.846083
0.838213
0.815473
0.78091
0.748202
0.723963
0.706699
0.692411
0.680672
0.669581
0.659022
0.651817
0.647001
0.642132
0.63615
0.630966
0.621024
0.609672
0.59928
0.588563
0.575705
0.560588
0.541858
0.52057
0.495372
0.463792
0.430066
0.398823
0.372635
0.356914
0.350613
0.350698
0.364259
0.383629
0.40729
0.436628
0.465747
0.49298
0.518685
0.541921
0.56195
0.578462
0.591855
0.604885
0.619642
0.635871
0.652854
0.671525
0.691176
0.712108
0.735034
0.756192
0.784189
0.812904
0.839684
0.863528
0.879544
0.880362
0.858418
0.813685
0.783517
0.777552
0.790049
0.833406
0.905918
0.953524
0.966484
0.960951
0.917862
0.873195
0.865588
0.88419
0.928546
0.955932
0.965884
0.965256
0.955091
0.943855
0.942428
0.955388
0.975602
0.987814
0.994469
0.997654
0.999031
0.999587
0.999808
0.999891
0.999917
0.999925
0.999933
0.999945
0.99996
0.999975
0.999986
0.999993
0.999997
0.999998
0.999999
1
1
1
1
1
0.999998
0.999991
0.999965
0.999865
0.99949
0.998099
0.993005
0.974634
0.90924
0.726674
0.530446
0.371187
0.249507
0.161557
0.101006
0.0610902
0.0357986
0.0203494
0.0112315
0.0060235
0.00314079
0.00159295
0.000786101
0.000377533
0.000176469
8.02803e-05
3.55408e-05
1.53088e-05
6.41444e-06
2.61379e-06
1.03558e-06
3.98835e-07
1.49292e-07
5.43029e-08
1.91909e-08
6.5909e-09
2.20027e-09
7.13889e-10
2.25393e-10
6.87144e-11
0.0817369
0.463643
0.761782
0.79748
0.803753
0.810141
0.807674
0.771544
0.66421
0.515905
0.447998
0.42514
0.419542
0.420015
0.423927
0.4242
0.405387
0.363455
0.312099
0.28275
0.271641
0.273827
0.313963
0.365483
0.436597
0.484959
0.515135
0.524051
0.505316
0.489528
0.492936
0.591087
0.756139
0.812596
0.828015
0.831787
0.817954
0.773346
0.726824
0.703052
0.686462
0.676176
0.669534
0.66516
0.660186
0.653308
0.647862
0.643304
0.638966
0.635203
0.630336
0.619579
0.607031
0.59404
0.580331
0.5627
0.543133
0.516766
0.482435
0.44029
0.393345
0.349175
0.307914
0.275008
0.255574
0.246188
0.243112
0.253755
0.272329
0.297744
0.330192
0.366069
0.404436
0.442558
0.475772
0.504175
0.52796
0.549594
0.569612
0.588675
0.608771
0.627403
0.64447
0.66243
0.682846
0.706999
0.73428
0.766192
0.795709
0.822953
0.850469
0.880169
0.908805
0.931682
0.941578
0.931579
0.878561
0.827128
0.814056
0.82717
0.879733
0.933902
0.966383
0.975829
0.971999
0.948281
0.920214
0.911985
0.924405
0.954685
0.973669
0.98242
0.984518
0.98333
0.9781
0.974638
0.976913
0.986614
0.993491
0.997032
0.998731
0.999487
0.999798
0.999917
0.999961
0.999976
0.999981
0.999983
0.999986
0.999989
0.999993
0.999996
0.999998
0.999999
0.999999
1
1
1
1
1
1
0.999998
0.999993
0.999973
0.999893
0.999584
0.99841
0.994015
0.977853
0.919402
0.74376
0.540898
0.377013
0.252403
0.16278
0.101371
0.0610706
0.035643
0.020175
0.0110847
0.00591566
0.00306818
0.00154715
0.000758713
0.000361889
0.000167894
7.57576e-05
3.32416e-05
1.41814e-05
5.88099e-06
2.37025e-06
9.28283e-07
3.5324e-07
1.30593e-07
4.69045e-08
1.63675e-08
5.55122e-09
1.82994e-09
5.8705e-10
1.82073e-10
0.0733014
0.425398
0.755244
0.799633
0.808288
0.814768
0.814019
0.788011
0.712434
0.584648
0.483661
0.447488
0.434441
0.43136
0.433595
0.441978
0.444397
0.444299
0.439272
0.433442
0.431223
0.43967
0.453727
0.474557
0.494869
0.504783
0.509084
0.504492
0.500483
0.50821
0.580837
0.730322
0.791859
0.808762
0.811808
0.785282
0.727353
0.676036
0.652204
0.639943
0.633308
0.630725
0.634247
0.64085
0.640307
0.640673
0.638546
0.636018
0.632738
0.627868
0.620702
0.610435
0.598328
0.585559
0.566473
0.538749
0.501725
0.459656
0.410985
0.359815
0.309017
0.264455
0.228126
0.20256
0.187365
0.18095
0.179905
0.190124
0.21114
0.24483
0.28657
0.329704
0.37363
0.418607
0.459576
0.492819
0.517756
0.538007
0.555246
0.570087
0.587528
0.610479
0.633876
0.656259
0.678226
0.704584
0.734582
0.762522
0.783503
0.799071
0.818534
0.853803
0.897148
0.931836
0.954205
0.965181
0.962956
0.937162
0.899923
0.881986
0.887584
0.926832
0.961293
0.979738
0.985753
0.985244
0.978703
0.965859
0.957331
0.959447
0.974791
0.986734
0.992244
0.994057
0.994091
0.99289
0.991136
0.990983
0.993451
0.996881
0.998613
0.999416
0.999765
0.999909
0.999965
0.999985
0.999993
0.999995
0.999996
0.999997
0.999998
0.999998
0.999999
0.999999
1
1
1
1
1
1
1
1
0.999999
0.999994
0.999976
0.999901
0.999605
0.998452
0.994045
0.977566
0.917245
0.736931
0.53278
0.369191
0.245774
0.157645
0.0976498
0.0585124
0.03396
0.0191102
0.0104348
0.00553226
0.00284928
0.00142605
0.000693725
0.000328042
0.00015078
6.73566e-05
2.92394e-05
1.2332e-05
5.05262e-06
2.01079e-06
7.77278e-07
2.91838e-07
1.06442e-07
3.77124e-08
1.29852e-08
4.34581e-09
1.4155e-09
4.46219e-10
0.0539208
0.35597
0.739739
0.800204
0.809576
0.817664
0.822256
0.815192
0.778651
0.683378
0.552514
0.490189
0.461958
0.449245
0.444755
0.444385
0.452283
0.457393
0.459983
0.465334
0.471532
0.476526
0.484271
0.492703
0.501991
0.507458
0.510369
0.511699
0.530785
0.601411
0.718632
0.772593
0.78892
0.789767
0.758598
0.700129
0.640225
0.612007
0.599493
0.594057
0.592214
0.592347
0.598656
0.613334
0.627973
0.627426
0.627688
0.627509
0.626339
0.622872
0.614308
0.601616
0.586483
0.566771
0.538011
0.501424
0.458505
0.409911
0.356455
0.301013
0.251722
0.211861
0.181141
0.161081
0.149641
0.144469
0.144865
0.15002
0.160961
0.183507
0.232016
0.291791
0.347636
0.400495
0.450782
0.489912
0.516835
0.53707
0.554373
0.568499
0.5819
0.597701
0.615
0.63387
0.657657
0.685147
0.71231
0.727109
0.725924
0.721154
0.72249
0.751535
0.830795
0.899775
0.944913
0.968462
0.979055
0.981253
0.977222
0.967836
0.955518
0.950322
0.961169
0.980206
0.990204
0.9938
0.994317
0.993314
0.989853
0.986352
0.985466
0.98905
0.994708
0.997269
0.998109
0.998199
0.997986
0.997582
0.997468
0.997775
0.998797
0.999453
0.999767
0.999907
0.999964
0.999987
0.999995
0.999998
0.999999
0.999999
0.999999
1
1
1
1
1
1
1
1
1
1
1
1
0.999999
0.999994
0.999976
0.999898
0.999582
0.998321
0.99342
0.97486
0.906363
0.713942
0.512529
0.352641
0.233151
0.148551
0.0914008
0.0543908
0.0313411
0.0175035
0.00948171
0.00498497
0.00254475
0.00126171
0.000607661
0.000284287
0.000129184
5.70116e-05
2.44322e-05
1.01663e-05
4.10721e-06
1.61113e-06
6.13693e-07
2.27044e-07
8.15945e-08
2.8495e-08
9.67217e-09
3.19536e-09
1.02268e-09
0.0450537
0.291103
0.708186
0.797779
0.810022
0.817742
0.824879
0.825284
0.813026
0.773011
0.683784
0.571606
0.522732
0.495045
0.47661
0.467831
0.46474
0.464606
0.470821
0.476579
0.480656
0.489431
0.496352
0.505258
0.514805
0.525462
0.542114
0.572233
0.645879
0.726946
0.766104
0.782811
0.787946
0.77709
0.736854
0.678559
0.620303
0.59267
0.579774
0.573323
0.570614
0.57006
0.573665
0.583487
0.603258
0.617089
0.619623
0.619446
0.619365
0.618179
0.613185
0.601731
0.586718
0.564983
0.530688
0.484488
0.432585
0.377236
0.322071
0.268754
0.223224
0.188162
0.162494
0.146132
0.137569
0.134855
0.135743
0.139972
0.147719
0.16316
0.200611
0.2673
0.335588
0.393865
0.447193
0.496938
0.53235
0.550379
0.566404
0.583098
0.596858
0.608055
0.618084
0.628791
0.642549
0.659333
0.671931
0.674685
0.674192
0.674481
0.678503
0.69553
0.753082
0.842775
0.913762
0.95804
0.979446
0.98875
0.992759
0.993609
0.992963
0.990245
0.986949
0.986957
0.992169
0.996568
0.998064
0.998332
0.998187
0.997546
0.996996
0.996876
0.997279
0.998631
0.999311
0.999515
0.999539
0.999513
0.99948
0.999488
0.999575
0.999745
0.999864
0.999935
0.999972
0.999989
0.999996
0.999998
0.999999
1
1
1
1
1
1
1
1
1
1
1
1
1
1
1
0.999999
0.999994
0.999972
0.999882
0.999506
0.997987
0.992017
0.969279