/*--------------------------------*- C++ -*----------------------------------*\
  =========                 |
  \\      /  F ield         | OpenFOAM: The Open Source CFD Toolbox
   \\    /   O peration     | Website:  https://openfoam.org
    \\  /    A nd           | Version:  7
     \\/     M anipulation  |
\*---------------------------------------------------------------------------*/
FoamFile
{
    version     2.0;
    format      ascii;
    class       volScalarField;
    location    "0.005";
    object      k_0;
}
// * * * * * * * * * * * * * * * * * * * * * * * * * * * * * * * * * * * * * //

dimensions      [0 2 -2 0 0 0 0];

internalField   nonuniform List<scalar> 
12225
(
1.9379e-05
1.78408e-05
1.68349e-05
1.58489e-05
1.3958e-05
1.23017e-05
1.1978e-05
1.30708e-05
2.16493e-05
6.79445e-05
0.000214997
0.000739242
0.00108193
0.00156608
0.00159946
0.00173439
0.00187934
0.00405506
1.99794e-05
1.98717e-05
1.96792e-05
1.95141e-05
1.92699e-05
1.87215e-05
1.82477e-05
1.82323e-05
1.85931e-05
2.0321e-05
2.60269e-05
4.47669e-05
7.57849e-05
0.000147837
0.000179794
0.00020897
0.0002088
0.000248715
1.9999e-05
1.94538e-05
1.91359e-05
1.90523e-05
1.8934e-05
1.8803e-05
1.86598e-05
1.85831e-05
1.85875e-05
1.86361e-05
1.87732e-05
1.92017e-05
2.02082e-05
2.31602e-05
2.69558e-05
2.95014e-05
2.96146e-05
2.99891e-05
2.02777e-05
1.98074e-05
1.88596e-05
1.62961e-05
1.54729e-05
1.5562e-05
1.58029e-05
1.59904e-05
1.61191e-05
1.63824e-05
1.67409e-05
1.68677e-05
1.68424e-05
1.67259e-05
1.64159e-05
1.63202e-05
1.63518e-05
1.67191e-05
2.00262e-05
2.12001e-05
2.34449e-05
2.29064e-05
2.08822e-05
1.95796e-05
1.91773e-05
1.92233e-05
1.96226e-05
2.00577e-05
2.01098e-05
1.9883e-05
1.86189e-05
1.65256e-05
1.60658e-05
1.65259e-05
1.90511e-05
2.39286e-05
2.02716e-05
2.27064e-05
2.26962e-05
2.22872e-05
2.17363e-05
2.13626e-05
2.12477e-05
2.12629e-05
2.13456e-05
2.13278e-05
2.10615e-05
2.04541e-05
2.02099e-05
2.02279e-05
2.04947e-05
2.15112e-05
2.43505e-05
2.71006e-05
2.10307e-05
2.13904e-05
2.18264e-05
2.17792e-05
2.14734e-05
2.13268e-05
2.13242e-05
2.13797e-05
2.13948e-05
2.13318e-05
2.10517e-05
2.0899e-05
2.08975e-05
2.09702e-05
2.12293e-05
2.19172e-05
2.36554e-05
2.59729e-05
2.12146e-05
2.14621e-05
2.11218e-05
2.08639e-05
2.08133e-05
2.09204e-05
2.16243e-05
2.3232e-05
2.39113e-05
2.39215e-05
2.36296e-05
2.31893e-05
2.29984e-05
2.29535e-05
2.29677e-05
2.30977e-05
2.36165e-05
2.53387e-05
2.19439e-05
2.12294e-05
2.10415e-05
2.10278e-05
2.09787e-05
2.10084e-05
2.13074e-05
2.24387e-05
2.32146e-05
2.33575e-05
2.33217e-05
2.30881e-05
2.28518e-05
2.27794e-05
2.27884e-05
2.29379e-05
2.35645e-05
2.55358e-05
2.02327e-05
2.17215e-05
2.36151e-05
2.41917e-05
2.38295e-05
2.31862e-05
2.31824e-05
2.34554e-05
2.35615e-05
2.3458e-05
2.2939e-05
2.259e-05
2.25553e-05
2.25853e-05
2.26718e-05
2.28736e-05
2.33703e-05
2.47461e-05
2.00268e-05
2.07178e-05
2.29867e-05
2.33839e-05
2.31417e-05
2.24539e-05
2.20261e-05
2.15826e-05
2.12697e-05
2.11996e-05
2.12327e-05
2.14989e-05
2.25034e-05
2.34103e-05
2.38707e-05
2.42411e-05
2.49074e-05
2.65256e-05
2.00303e-05
2.05354e-05
2.19284e-05
2.25305e-05
2.23973e-05
2.1926e-05
2.16405e-05
2.13317e-05
2.11127e-05
2.10316e-05
2.10201e-05
2.10238e-05
2.10481e-05
2.11291e-05
2.13396e-05
2.1801e-05
2.27696e-05
2.5272e-05
2.0169e-05
2.07391e-05
2.08478e-05
2.06038e-05
2.05757e-05
2.07852e-05
2.10604e-05
2.11061e-05
2.10652e-05
2.10209e-05
2.10291e-05
2.10726e-05
2.12e-05
2.13483e-05
2.15349e-05
2.18788e-05
2.25961e-05
2.44055e-05
2.07984e-05
2.05224e-05
2.02656e-05
2.02477e-05
2.02943e-05
2.05757e-05
2.09663e-05
2.11766e-05
2.13434e-05
2.16771e-05
2.20171e-05
2.21936e-05
2.22653e-05
2.23085e-05
2.2376e-05
2.25218e-05
2.29049e-05
2.40312e-05
2.05805e-05
2.03604e-05
2.0286e-05
2.02991e-05
2.03644e-05
2.06057e-05
2.08255e-05
2.08664e-05
2.08917e-05
2.10674e-05
2.1679e-05
2.21341e-05
2.23173e-05
2.23966e-05
2.24857e-05
2.26581e-05
2.30506e-05
2.40905e-05
2.00417e-05
2.02465e-05
2.10055e-05
2.16654e-05
2.18077e-05
2.16156e-05
2.10031e-05
2.07154e-05
2.0693e-05
2.07676e-05
2.08927e-05
2.09489e-05
2.09843e-05
2.10366e-05
2.11413e-05
2.13871e-05
2.19969e-05
2.36063e-05
2.03077e-05
2.10332e-05
2.12599e-05
2.12616e-05
2.12479e-05
2.10898e-05
2.0623e-05
2.04271e-05
2.03874e-05
2.03925e-05
2.0436e-05
2.05274e-05
2.06271e-05
2.07485e-05
2.0951e-05
2.1341e-05
2.21366e-05
2.39653e-05
2.02863e-05
2.03934e-05
2.03786e-05
2.03608e-05
2.03807e-05
2.05222e-05
2.07398e-05
2.08192e-05
2.08241e-05
2.08133e-05
2.08186e-05
2.08893e-05
2.12225e-05
2.1676e-05
2.20454e-05
2.25591e-05
2.35312e-05
2.55898e-05
2.15559e-05
2.12336e-05
2.07761e-05
2.04907e-05
2.04351e-05
2.04185e-05
2.03822e-05
2.0342e-05
2.03403e-05
2.03705e-05
2.0577e-05
2.12217e-05
2.15812e-05
2.17655e-05
2.20792e-05
2.26976e-05
2.39633e-05
2.71837e-05
2.02812e-05
2.03841e-05
2.04253e-05
2.04357e-05
2.04318e-05
2.04287e-05
2.04377e-05
2.05103e-05
2.05713e-05
2.06625e-05
2.0749e-05
2.07622e-05
2.07523e-05
2.07629e-05
2.0832e-05
2.10677e-05
2.17691e-05
2.37577e-05
2.08687e-05
2.08976e-05
2.05205e-05
2.04281e-05
2.04346e-05
2.04362e-05
2.04155e-05
2.03488e-05
2.03292e-05
2.0358e-05
2.04823e-05
2.04909e-05
2.04494e-05
2.04574e-05
2.05412e-05
2.08215e-05
2.15916e-05
2.37901e-05
2.02071e-05
2.04915e-05
2.05351e-05
2.05274e-05
2.04931e-05
2.04373e-05
2.04089e-05
2.04141e-05
2.04304e-05
2.04909e-05
2.05682e-05
2.0613e-05
2.06502e-05
2.07146e-05
2.08456e-05
2.11503e-05
2.19636e-05
2.44169e-05
2.03527e-05
2.06052e-05
2.05364e-05
2.03873e-05
2.03599e-05
2.03761e-05
2.04588e-05
2.0764e-05
2.11923e-05
2.13425e-05
2.13508e-05
2.13305e-05
2.1241e-05
2.11798e-05
2.11872e-05
2.12733e-05
2.15758e-05
2.2473e-05
2.00974e-05
2.01542e-05
2.01302e-05
2.0258e-05
2.07813e-05
2.07687e-05
2.06643e-05
2.07663e-05
2.13934e-05
2.22914e-05
2.25822e-05
2.25703e-05
2.23182e-05
2.17116e-05
2.14473e-05
2.1432e-05
2.15566e-05
2.21258e-05
2.00482e-05
2.00902e-05
2.01008e-05
2.02914e-05
2.05923e-05
2.06819e-05
2.07878e-05
2.09948e-05
2.14602e-05
2.20488e-05
2.25389e-05
2.27644e-05
2.27378e-05
2.23608e-05
2.18427e-05
2.17175e-05
2.17852e-05
2.2257e-05
2.04283e-05
2.06209e-05
2.05737e-05
2.04081e-05
2.041e-05
2.06798e-05
2.12825e-05
2.14173e-05
2.13404e-05
2.09328e-05
2.0559e-05
2.04312e-05
2.03907e-05
2.03896e-05
2.04182e-05
2.0533e-05
2.08902e-05
2.18401e-05
2.01775e-05
2.01348e-05
2.00852e-05
2.00334e-05
1.99249e-05
1.98183e-05
1.97478e-05
1.97011e-05
1.95687e-05
1.91256e-05
1.82774e-05
1.78011e-05
1.77925e-05
1.80476e-05
1.89809e-05
2.01305e-05
2.2097e-05
2.56122e-05
2.02256e-05
1.8881e-05
1.67316e-05
1.72983e-05
1.8788e-05
2.11443e-05
2.52081e-05
3.45626e-05
4.76446e-05
5.68089e-05
6.27235e-05
6.72513e-05
7.14612e-05
7.93988e-05
9.61212e-05
0.000104731
0.000119168
0.000143186
3.16188e-05
0.000100462
0.000168442
0.000231716
0.000264223
0.000286827
0.00033165
0.000431574
0.000513129
0.000545729
0.000551884
0.00055579
0.000564068
0.00058205
0.000631519
0.000654504
0.000651714
0.000638276
0.0023731
0.00254525
0.00254364
0.00246044
0.00220865
0.00199383
0.00187757
0.00182921
0.00179199
0.00171106
0.00158383
0.00149184
0.00143981
0.00138381
0.00126822
0.00107176
0.000843655
0.000625217
2.57562e-07
3.23076e-07
2.21174e-07
1.20046e-07
7.2925e-08
4.5439e-08
3.52464e-08
3.10133e-08
2.79761e-08
2.47823e-08
2.1712e-08
1.93588e-08
1.77132e-08
1.62764e-08
1.48107e-08
1.33612e-08
1.19983e-08
1.07063e-08
9.49912e-09
8.44988e-09
7.60654e-09
6.94996e-09
6.4203e-09
5.96019e-09
5.53112e-09
5.1156e-09
4.70671e-09
4.30234e-09
3.90317e-09
3.51153e-09
3.12987e-09
2.76226e-09
2.41374e-09
2.08861e-09
1.78994e-09
1.51952e-09
1.27803e-09
1.0652e-09
8.79957e-10
7.20642e-10
5.85212e-10
4.71374e-10
3.76673e-10
2.98632e-10
2.34901e-10
1.83325e-10
1.41969e-10
1.0911e-10
8.32395e-11
6.30471e-11
4.74169e-11
3.5414e-11
2.62672e-11
1.93493e-11
1.41557e-11
1.02848e-11
7.42042e-12
5.31602e-12
3.781e-12
2.66937e-12
1.87022e-12
1.3e-12
8.96207e-13
6.1264e-13
4.1495e-13
2.78496e-13
1.85248e-13
1.22177e-13
7.99474e-14
5.19429e-14
3.35371e-14
2.1541e-14
1.3783e-14
8.80156e-15
5.62361e-15
3.60783e-15
2.33561e-15
1.53612e-15
1.03552e-15
7.23037e-16
5.28479e-16
4.07639e-16
3.32797e-16
2.86644e-16
2.58401e-16
2.41354e-16
2.31335e-16
2.25769e-16
2.23038e-16
2.22099e-16
2.22045e-16
2.22045e-16
2.22045e-16
2.22045e-16
2.22045e-16
2.22045e-16
2.22045e-16
2.22045e-16
2.22045e-16
2.22045e-16
2.22045e-16
2.22045e-16
2.22045e-16
2.22045e-16
2.22045e-16
2.22045e-16
2.22045e-16
2.22045e-16
2.22045e-16
2.22045e-16
2.22045e-16
2.22045e-16
2.22045e-16
2.22045e-16
2.22045e-16
2.22045e-16
2.22045e-16
2.22045e-16
2.22045e-16
2.22045e-16
2.22045e-16
2.22045e-16
2.22045e-16
2.22045e-16
2.22045e-16
2.22045e-16
2.22045e-16
2.22045e-16
2.22045e-16
2.22045e-16
2.22045e-16
2.22045e-16
2.22045e-16
2.22045e-16
2.22045e-16
2.22045e-16
2.22045e-16
2.22045e-16
2.22045e-16
2.22045e-16
2.22045e-16
2.22045e-16
2.22045e-16
2.22045e-16
2.22045e-16
2.22045e-16
2.22045e-16
2.22045e-16
2.22045e-16
2.22045e-16
2.22045e-16
2.22045e-16
2.22045e-16
2.22045e-16
2.22045e-16
2.22045e-16
2.22045e-16
2.22045e-16
2.22045e-16
2.22045e-16
2.24921e-16
3.10647e-16
1.52931e-15
1.32479e-14
9.49169e-14
5.35527e-13
2.47643e-12
9.76308e-12
3.38965e-11
1.07168e-10
3.20763e-10
9.17694e-10
2.62567e-09
7.28494e-09
1.53673e-08
4.5117e-08
7.47017e-08
1.38791e-07
1.5323e-07
2.37114e-07
9.37817e-07
1.06399e-06
1.42527e-06
1.40504e-06
1.05633e-06
7.35965e-07
6.1326e-07
5.57273e-07
5.13908e-07
4.66918e-07
4.15067e-07
3.66531e-07
3.32903e-07
3.11001e-07
2.89466e-07
2.68153e-07
2.47903e-07
2.28429e-07
2.09621e-07
1.92212e-07
1.76856e-07
1.63495e-07
1.51527e-07
1.4037e-07
1.29647e-07
1.19299e-07
1.09364e-07
9.98897e-08
9.09008e-08
8.24306e-08
7.43676e-08
6.65745e-08
5.90743e-08
5.19585e-08
4.53041e-08
3.91658e-08
3.35764e-08
2.85488e-08
2.40787e-08
2.01482e-08
1.67294e-08
1.37877e-08
1.12824e-08
9.16706e-09
7.39472e-09
5.92146e-09
4.70681e-09
3.71393e-09
2.90943e-09
2.26321e-09
1.74836e-09
1.34132e-09
1.02194e-09
7.7317e-10
5.80819e-10
4.33172e-10
3.20666e-10
2.3557e-10
1.71688e-10
1.241e-10
8.89314e-11
6.31565e-11
4.44222e-11
3.0949e-11
2.13117e-11
1.45401e-11
9.8382e-12
6.60672e-12
4.40659e-12
2.92111e-12
1.92555e-12
1.2628e-12
8.24346e-13
5.35914e-13
3.47149e-13
2.24176e-13
1.44386e-13
9.27985e-14
5.95459e-14
3.8168e-14
2.44548e-14
1.56751e-14
1.00631e-14
6.48115e-15
4.19878e-15
2.74609e-15
1.82213e-15
1.23685e-15
8.66646e-16
6.29569e-16
4.79205e-16
3.87576e-16
3.3106e-16
2.94344e-16
2.69806e-16
2.53364e-16
2.42467e-16
2.3534e-16
2.30697e-16
2.27701e-16
2.25816e-16
2.24622e-16
2.23845e-16
2.23323e-16
2.22965e-16
2.22714e-16
2.22536e-16
2.22409e-16
2.22317e-16
2.2225e-16
2.222e-16
2.22163e-16
2.22135e-16
2.22114e-16
2.22098e-16
2.22085e-16
2.22076e-16
2.22069e-16
2.22063e-16
2.22058e-16
2.22055e-16
2.22052e-16
2.2205e-16
2.22049e-16
2.22048e-16
2.22047e-16
2.22046e-16
2.22045e-16
2.22045e-16
2.22045e-16
2.22045e-16
2.22045e-16
2.22045e-16
2.22045e-16
2.22045e-16
2.22045e-16
2.22045e-16
2.22045e-16
2.22045e-16
2.22045e-16
2.22045e-16
2.22045e-16
2.22045e-16
2.22045e-16
2.22045e-16
2.22045e-16
2.22045e-16
2.22045e-16
2.22045e-16
2.22045e-16
2.22045e-16
2.22045e-16
2.22045e-16
2.22045e-16
2.22045e-16
2.22045e-16
2.22045e-16
2.22045e-16
2.22047e-16
2.22068e-16
2.22299e-16
2.25568e-16
2.68693e-16
6.83402e-16
3.61043e-15
1.96244e-14
9.09793e-14
3.607e-13
1.25018e-12
3.90325e-12
1.14453e-11
2.99725e-11
7.61115e-11
1.74339e-10
3.81398e-10
8.84965e-10
2.34315e-09
5.50554e-09
1.04328e-08
2.68477e-08
9.9265e-07
6.90051e-07
1.37362e-06
2.24594e-06
2.54142e-06
2.62444e-06
2.64333e-06
2.632e-06
2.61719e-06
2.60784e-06
2.59539e-06
2.56869e-06
2.51813e-06
2.45124e-06
2.37954e-06
2.30514e-06
2.22918e-06
2.14834e-06
2.05976e-06
1.96419e-06
1.86324e-06
1.7571e-06
1.64481e-06
1.52643e-06
1.40326e-06
1.27875e-06
1.15677e-06
1.04095e-06
9.34189e-07
8.40349e-07
7.60672e-07
6.90469e-07
6.22268e-07
5.56408e-07
4.93669e-07
4.34678e-07
3.79886e-07
3.29577e-07
2.83882e-07
2.42796e-07
2.06212e-07
1.7397e-07
1.45859e-07
1.21558e-07
1.00667e-07
8.28166e-08
6.76668e-08
5.49015e-08
4.42312e-08
3.53908e-08
2.81268e-08
2.22024e-08
1.74048e-08
1.35469e-08
1.04663e-08
8.02414e-09
6.10214e-09
4.601e-09
3.43781e-09
2.54402e-09
1.8633e-09
1.34989e-09
9.66286e-10
6.83903e-10
4.7606e-10
3.31024e-10
2.29572e-10
1.58664e-10
1.09262e-10
7.49727e-11
5.1266e-11
3.49391e-11
2.37377e-11
1.6081e-11
1.0865e-11
7.32262e-12
4.92364e-12
3.30317e-12
2.21118e-12
1.47698e-12
9.84432e-13
6.54722e-13
4.34496e-13
2.87727e-13
1.90156e-13
1.25441e-13
8.2587e-14
5.43288e-14
3.57822e-14
2.34508e-14
1.53139e-14
1.0373e-14
7.22293e-15
4.98519e-15
3.40697e-15
2.32857e-15
1.60718e-15
1.13224e-15
8.21514e-16
6.18552e-16
4.88616e-16
4.05395e-16
3.5021e-16
3.12642e-16
2.86652e-16
2.68508e-16
2.55757e-16
2.46733e-16
2.40293e-16
2.35653e-16
2.32274e-16
2.29788e-16
2.27941e-16
2.26556e-16
2.2551e-16
2.24713e-16
2.24104e-16
2.23635e-16
2.23273e-16
2.22993e-16
2.22776e-16
2.22606e-16
2.22477e-16
2.2237e-16
2.22297e-16
2.22228e-16
2.22181e-16
2.22146e-16
2.22109e-16
2.22077e-16
2.22057e-16
2.22049e-16
2.22046e-16
2.22045e-16
2.22045e-16
2.22045e-16
2.22045e-16
2.22045e-16
2.22045e-16
2.22045e-16
2.22045e-16
2.22045e-16
2.22045e-16
2.22045e-16
2.22045e-16
2.22045e-16
2.22045e-16
2.22045e-16
2.22045e-16
2.22045e-16
2.22045e-16
2.22045e-16
2.22045e-16
2.22045e-16
2.22045e-16
2.22045e-16
2.22045e-16
2.22045e-16
2.22045e-16
2.22045e-16
2.22051e-16
2.22127e-16
2.23082e-16
2.3214e-16
2.95893e-16
6.44505e-16
2.19664e-15
8.06161e-15
2.72534e-14
8.38711e-14
2.54959e-13
6.07774e-13
1.50542e-12
3.13857e-12
6.719e-12
1.49361e-11
4.34287e-11
1.1627e-10
3.25345e-10
1.26546e-09
1.10224e-06
5.47418e-07
7.37597e-07
1.92098e-06
2.58322e-06
2.8033e-06
2.91351e-06
3.00417e-06
3.09808e-06
3.20831e-06
3.3353e-06
3.47597e-06
3.62583e-06
3.78034e-06
3.93369e-06
4.07897e-06
4.20929e-06
4.31774e-06
4.39824e-06
4.44576e-06
4.45752e-06
4.43199e-06
4.36383e-06
4.25982e-06
4.12136e-06
3.95216e-06
3.75705e-06
3.54136e-06
3.31065e-06
3.07037e-06
2.82567e-06
2.58119e-06
2.341e-06
2.10853e-06
1.88653e-06
1.67706e-06
1.48159e-06
1.30103e-06
1.13579e-06
9.85907e-07
8.51032e-07
7.30584e-07
6.23882e-07
5.30164e-07
4.48288e-07
3.77124e-07
3.1563e-07
2.62774e-07
2.17574e-07
1.79166e-07
1.46745e-07
1.19537e-07
9.68292e-08
7.79815e-08
6.24253e-08
4.96591e-08
3.92445e-08
3.08007e-08
2.39995e-08
1.85594e-08
1.42405e-08
1.08391e-08
8.18385e-09
6.1289e-09
4.55652e-09
3.35889e-09
2.45768e-09
1.78694e-09
1.29255e-09
9.3115e-10
6.68749e-10
4.79214e-10
3.42819e-10
2.44911e-10
1.74743e-10
1.24509e-10
8.8575e-11
6.28927e-11
4.45569e-11
3.14849e-11
2.21829e-11
1.5579e-11
1.09035e-11
7.6038e-12
5.28306e-12
3.65702e-12
2.52224e-12
1.73336e-12
1.18721e-12
8.10867e-13
5.52437e-13
3.7521e-13
2.54353e-13
1.72406e-13
1.17056e-13
7.9708e-14
5.44172e-14
3.73154e-14
2.57987e-14
1.79957e-14
1.26316e-14
8.90344e-15
6.29975e-15
4.48145e-15
3.21597e-15
2.33795e-15
1.72895e-15
1.30518e-15
1.00837e-15
7.98626e-16
6.48878e-16
5.40793e-16
4.61924e-16
4.03772e-16
3.60478e-16
3.27963e-16
3.03357e-16
2.84612e-16
2.70259e-16
2.5921e-16
2.50697e-16
2.44049e-16
2.39008e-16
2.34834e-16
2.31982e-16
2.29217e-16
2.27405e-16
2.26028e-16
2.24446e-16
2.23156e-16
2.22468e-16
2.22201e-16
2.22109e-16
2.22073e-16
2.22057e-16
2.22048e-16
2.22045e-16
2.22045e-16
2.22045e-16
2.22045e-16
2.22045e-16
2.22045e-16
2.22045e-16
2.22045e-16
2.22045e-16
2.22045e-16
2.22045e-16
2.22045e-16
2.22045e-16
2.22045e-16
2.22045e-16
2.22045e-16
2.22045e-16
2.22045e-16
2.22045e-16
2.22045e-16
2.22045e-16
2.22045e-16
2.22045e-16
2.22045e-16
2.22045e-16
2.22045e-16
2.22045e-16
2.2214e-16
2.23093e-16
2.28818e-16
2.5517e-16
3.56417e-16
6.89293e-16
1.67621e-15
4.81562e-15
1.07122e-14
2.60482e-14
5.52841e-14
1.23251e-13
2.87095e-13
8.61826e-13
2.56001e-12
9.09178e-12
5.37653e-11
1.36882e-06
5.56758e-07
5.16155e-07
1.75732e-06
2.52617e-06
2.79179e-06
2.93124e-06
3.05664e-06
3.19771e-06
3.36381e-06
3.55491e-06
3.76652e-06
3.9916e-06
4.22317e-06
4.4517e-06
4.66701e-06
4.85857e-06
5.01625e-06
5.1318e-06
5.19901e-06
5.21517e-06
5.1797e-06
5.08606e-06
4.94613e-06
4.76311e-06
4.54308e-06
4.29336e-06
4.02156e-06
3.73518e-06
3.44126e-06
3.14611e-06
2.85523e-06
2.57316e-06
2.30353e-06
2.04904e-06
1.81158e-06
1.59231e-06
1.39175e-06
1.20989e-06
1.04634e-06
9.0037e-07
7.70971e-07
6.56871e-07
5.56758e-07
4.69643e-07
3.94416e-07
3.29851e-07
2.74748e-07
2.27957e-07
1.88419e-07
1.55108e-07
1.27165e-07
1.0383e-07
8.4433e-08
6.83818e-08
5.51585e-08
4.43127e-08
3.54557e-08
2.82541e-08
2.24235e-08
1.77231e-08
1.39501e-08
1.09343e-08
8.53423e-09
6.63235e-09
5.13178e-09
3.95304e-09
3.03119e-09
2.3135e-09
1.75728e-09
1.32822e-09
9.98796e-10
7.47107e-10
5.55764e-10
4.11044e-10
3.0217e-10
2.20715e-10
1.60125e-10
1.1533e-10
8.24223e-11
5.84117e-11
4.10192e-11
2.85183e-11
1.96087e-11
1.33166e-11
8.91822e-12
5.87781e-12
3.80285e-12
2.40737e-12
1.48457e-12
8.8626e-13
5.07672e-13
2.83358e-13
1.53595e-13
8.06032e-14
4.08576e-14
1.99978e-14
9.48916e-15
4.42291e-15
2.08707e-15
1.05649e-15
6.17555e-16
4.30823e-16
3.47348e-16
3.05731e-16
2.81844e-16
2.66361e-16
2.55521e-16
2.47615e-16
2.41725e-16
2.37281e-16
2.33897e-16
2.313e-16
2.29293e-16
2.27734e-16
2.26516e-16
2.25561e-16
2.2481e-16
2.24219e-16
2.23717e-16
2.24127e-16
2.25405e-16
2.27154e-16
2.28746e-16
2.29941e-16
2.30627e-16
2.30887e-16
2.30789e-16
2.30473e-16
2.29915e-16
2.29248e-16
2.28545e-16
2.27832e-16
2.27129e-16
2.26462e-16
2.25849e-16
2.25295e-16
2.24804e-16
2.24373e-16
2.24001e-16
2.23681e-16
2.23409e-16
2.23176e-16
2.22978e-16
2.2281e-16
2.22665e-16
2.2254e-16
2.22432e-16
2.22336e-16
2.22247e-16
2.22168e-16
2.22069e-16
2.22045e-16
2.22045e-16
2.22045e-16
2.22045e-16
2.22045e-16
2.22045e-16
2.2207e-16
2.22172e-16
2.22401e-16
2.22846e-16
2.2379e-16
2.25951e-16
2.31297e-16
2.45562e-16
2.86783e-16
4.18706e-16
9.02366e-16
2.90246e-15
1.15012e-14
4.63346e-14
1.72254e-13
5.95815e-13
1.79417e-12
5.13281e-12
1.36615e-11
2.08509e-11
5.44707e-11
4.90017e-11
1.79768e-06
6.71905e-07
4.50979e-07
1.75573e-06
2.56323e-06
2.85907e-06
3.03325e-06
3.20768e-06
3.4197e-06
3.68876e-06
4.00389e-06
4.35475e-06
4.7297e-06
5.11493e-06
5.49242e-06
5.84478e-06
6.15385e-06
6.40199e-06
6.57562e-06
6.66593e-06
6.67301e-06
6.59487e-06
6.43055e-06
6.20113e-06
5.91352e-06
5.57993e-06
5.21305e-06
4.82509e-06
4.42716e-06
4.02899e-06
3.63866e-06
3.26265e-06
2.90585e-06
2.57171e-06
2.26242e-06
1.9791e-06
1.72197e-06
1.49059e-06
1.284e-06
1.10085e-06
9.39555e-07
7.98404e-07
6.75613e-07
5.69374e-07
4.7791e-07
3.99542e-07
3.32682e-07
2.75869e-07
2.27937e-07
1.87616e-07
1.53847e-07
1.25685e-07
1.02297e-07
8.29521e-08
6.70155e-08
5.39389e-08
4.32514e-08
3.45511e-08
2.74962e-08
2.17982e-08
1.72141e-08
1.35408e-08
1.0609e-08
8.27841e-09
6.43321e-09
4.97828e-09
3.83584e-09
2.94254e-09
2.24703e-09
1.7079e-09
1.29185e-09
9.72251e-10
7.27906e-10
5.42004e-10
4.01279e-10
2.9531e-10
2.15949e-10
1.56854e-10
1.13115e-10
8.09453e-11
5.74446e-11
4.03995e-11
2.8132e-11
1.93761e-11
1.31833e-11
8.84721e-12
5.84478e-12
3.79131e-12
2.40794e-12
1.48965e-12
8.94479e-13
5.13047e-13
2.86656e-13
1.55466e-13
8.15391e-14
4.12169e-14
2.00277e-14
9.35202e-15
4.22174e-15
1.88185e-15
8.73286e-16
4.63681e-16
3.07142e-16
2.50813e-16
2.31661e-16
2.25446e-16
2.23471e-16
2.22816e-16
2.22562e-16
2.22433e-16
2.2235e-16
2.22288e-16
2.2224e-16
2.22201e-16
2.2217e-16
2.22145e-16
2.22125e-16
2.22109e-16
2.22096e-16
2.22085e-16
2.22077e-16
2.22073e-16
2.22074e-16
2.22078e-16
2.22083e-16
2.22095e-16
2.22105e-16
2.22113e-16
2.22118e-16
2.2212e-16
2.2212e-16
2.22119e-16
2.22115e-16
2.22111e-16
2.22106e-16
2.221e-16
2.22095e-16
2.22089e-16
2.22084e-16
2.22079e-16
2.22074e-16
2.2207e-16
2.22066e-16
2.22063e-16
2.2206e-16
2.22057e-16
2.22055e-16
2.22053e-16
2.22051e-16
2.2205e-16
2.22048e-16
2.22046e-16
2.22045e-16
2.22045e-16
2.22045e-16
2.22097e-16
2.22436e-16
2.23347e-16
2.25321e-16
2.29436e-16
2.36801e-16
2.51143e-16
2.77062e-16
3.26152e-16
4.15933e-16
5.99369e-16
9.95621e-16
1.91179e-15
4.17457e-15
1.00915e-14
2.61565e-14
7.12075e-14
1.96345e-13
5.49752e-13
1.45957e-12
3.61175e-12
1.12907e-11
1.33732e-11
3.42536e-11
3.18139e-11
2.39988e-06
8.4495e-07
4.74403e-07
1.83822e-06
2.65311e-06
2.97369e-06
3.19895e-06
3.45276e-06
3.77675e-06
4.20631e-06
4.75265e-06
5.37452e-06
6.04331e-06
6.7281e-06
7.39246e-06
7.99885e-06
8.51043e-06
8.89956e-06
9.14618e-06
9.23865e-06
9.1857e-06
8.97865e-06
8.65201e-06
8.22948e-06
7.73195e-06
7.18293e-06
6.6042e-06
6.01485e-06
5.43082e-06
4.86469e-06
4.32591e-06
3.82106e-06
3.35425e-06
2.9276e-06
2.54158e-06
2.19544e-06
1.88753e-06
1.6156e-06
1.37701e-06
1.16892e-06
9.88421e-07
8.3266e-07
6.98893e-07
5.84539e-07
4.8721e-07
4.04624e-07
3.3475e-07
2.76148e-07
2.27041e-07
1.86036e-07
1.51925e-07
1.23651e-07
1.003e-07
8.10827e-08
6.53235e-08
5.24459e-08
4.19605e-08
3.34532e-08
2.65757e-08
2.10358e-08
1.65896e-08
1.30343e-08
1.0202e-08
7.95413e-09
6.17695e-09
4.77736e-09
3.67949e-09
2.82177e-09
2.15444e-09
1.63742e-09
1.2386e-09
9.32315e-10
6.98186e-10
5.2006e-10
3.85211e-10
2.83647e-10
2.07561e-10
1.50882e-10
1.08908e-10
7.80182e-11
5.54346e-11
3.90401e-11
2.72286e-11
1.87882e-11
1.28105e-11
8.618e-12
5.71009e-12
3.71647e-12
2.37067e-12
1.47357e-12
8.91441e-13
5.15033e-13
2.89101e-13
1.57736e-13
8.33443e-14
4.24891e-14
2.08409e-14
9.82959e-15
4.48049e-15
2.01108e-15
9.32443e-16
4.8818e-16
3.16025e-16
2.5333e-16
2.31871e-16
2.24963e-16
2.22868e-16
2.22268e-16
2.22105e-16
2.22063e-16
2.22052e-16
2.22049e-16
2.22048e-16
2.22047e-16
2.22047e-16
2.22046e-16
2.22046e-16
2.22046e-16
2.22046e-16
2.22045e-16
2.22045e-16
2.22045e-16
2.22045e-16
2.22045e-16
2.22045e-16
2.22045e-16
2.22045e-16
2.22045e-16
2.22045e-16
2.22045e-16
2.22045e-16
2.22045e-16
2.22045e-16
2.22045e-16
2.22045e-16
2.22045e-16
2.22045e-16
2.22045e-16
2.22045e-16
2.22045e-16
2.22045e-16
2.22045e-16
2.22045e-16
2.22045e-16
2.22045e-16
2.22045e-16
2.22045e-16
2.22045e-16
2.22045e-16
2.22045e-16
2.22045e-16
2.22045e-16
2.22045e-16
2.22045e-16
2.22045e-16
2.22045e-16
2.22204e-16
2.228e-16
2.2431e-16
2.27593e-16
2.34421e-16
2.46752e-16
2.70347e-16
3.14725e-16
3.93541e-16
5.53109e-16
8.92279e-16
1.66048e-15
3.51046e-15
8.21879e-15
2.05804e-14
5.40278e-14
1.42557e-13
3.76208e-13
9.38006e-13
2.13075e-12
6.85317e-12
7.27396e-12
1.07081e-11
1.17883e-11
3.2034e-06
1.06747e-06
5.57261e-07
1.99759e-06
2.8246e-06
3.18669e-06
3.50635e-06
3.91297e-06
4.46121e-06
5.20664e-06
6.20368e-06
7.42744e-06
8.75025e-06
1.00926e-05
1.13633e-05
1.24664e-05
1.33277e-05
1.38989e-05
1.4167e-05
1.41375e-05
1.38207e-05
1.32608e-05
1.25265e-05
1.16621e-05
1.07189e-05
9.7399e-06
8.76008e-06
7.80719e-06
6.90166e-06
6.05699e-06
5.28115e-06
4.57775e-06
3.947e-06
3.38676e-06
2.89325e-06
2.4616e-06
2.08639e-06
1.76216e-06
1.48335e-06
1.24465e-06
1.0412e-06
8.68438e-07
7.22275e-07
5.9906e-07
4.95137e-07
4.07921e-07
3.35444e-07
2.75059e-07
2.24887e-07
1.83337e-07
1.49032e-07
1.20791e-07
9.76109e-08
7.86416e-08
6.31646e-08
5.05753e-08
4.03666e-08
3.21141e-08
2.54644e-08
2.01234e-08
1.58479e-08
1.24367e-08
9.72453e-09
7.57566e-09
5.87919e-09
4.5448e-09
3.49913e-09
2.68287e-09
2.0482e-09
1.55673e-09
1.17774e-09
8.86746e-10
6.64313e-10
4.95073e-10
3.66925e-10
2.70378e-10
1.98019e-10
1.44087e-10
1.0412e-10
7.46834e-11
5.31423e-11
3.74877e-11
2.61953e-11
1.81143e-11
1.23819e-11
8.35389e-12
5.554e-12
3.62971e-12
2.32642e-12
1.45527e-12
8.86355e-13
5.18222e-13
2.929e-13
1.61122e-13
8.59617e-14
4.43182e-14
2.20148e-14
1.05259e-14
4.86296e-15
2.20567e-15
1.02417e-15
5.28263e-16
3.32276e-16
2.59446e-16
2.34009e-16
2.25656e-16
2.23074e-16
2.22322e-16
2.22116e-16
2.22062e-16
2.22049e-16
2.22046e-16
2.22045e-16
2.22045e-16
2.22045e-16
2.22045e-16
2.22045e-16
2.22045e-16
2.22045e-16
2.22045e-16
2.22045e-16
2.22045e-16
2.22045e-16
2.22045e-16
2.22045e-16
2.22045e-16
2.22045e-16
2.22045e-16
2.22045e-16
2.22045e-16
2.22045e-16
2.22045e-16
2.22045e-16
2.22045e-16
2.22045e-16
2.22045e-16
2.22045e-16
2.22045e-16
2.22045e-16
2.22045e-16
2.22045e-16
2.22045e-16
2.22045e-16
2.22045e-16
2.22045e-16
2.22045e-16
2.22045e-16
2.22045e-16
2.22045e-16
2.22045e-16
2.22045e-16
2.22045e-16
2.22045e-16
2.22045e-16
2.22045e-16
2.22045e-16
2.22104e-16
2.22524e-16
2.23725e-16
2.26441e-16
2.32279e-16
2.42553e-16
2.62859e-16
2.99751e-16
3.67278e-16
4.97533e-16
7.68511e-16
1.36627e-15
2.76434e-15
6.21575e-15
1.49508e-14
3.75978e-14
9.44365e-14
2.34001e-13
5.65573e-13
1.11339e-12
3.22711e-12
3.13617e-12
2.92647e-12
3.01547e-12
4.22473e-06
1.32953e-06
7.26104e-07
2.28034e-06
3.15058e-06
3.60004e-06
4.13298e-06
4.89665e-06
5.99406e-06
7.56086e-06
9.67682e-06
1.24451e-05
1.54467e-05
1.83773e-05
2.09851e-05
2.30066e-05
2.43255e-05
2.49024e-05
2.48135e-05
2.40715e-05
2.28618e-05
2.13098e-05
1.95311e-05
1.76348e-05
1.57296e-05
1.38829e-05
1.21361e-05
1.05217e-05
9.05906e-06
7.75246e-06
6.59905e-06
5.59133e-06
4.71829e-06
3.96746e-06
3.32565e-06
2.77984e-06
2.31739e-06
1.9277e-06
1.59995e-06
1.32487e-06
1.09498e-06
9.03469e-07
7.43552e-07
6.09878e-07
4.99494e-07
4.0877e-07
3.33732e-07
2.71836e-07
2.20917e-07
1.79121e-07
1.44888e-07
1.16912e-07
9.40999e-08
7.55424e-08
6.04822e-08
4.82908e-08
3.8447e-08
3.05201e-08
2.41544e-08
1.90569e-08
1.49869e-08
1.17473e-08
9.17656e-09
7.14324e-09
5.54032e-09
4.28101e-09
3.29515e-09
2.52616e-09
1.9286e-09
1.46605e-09
1.10945e-09
8.35667e-10
6.2638e-10
4.67111e-10
3.46473e-10
2.55541e-10
1.8735e-10
1.36487e-10
9.87627e-11
7.09495e-11
5.05732e-11
3.57457e-11
2.50339e-11
1.73555e-11
1.1898e-11
8.05473e-12
5.37637e-12
3.53035e-12
2.27525e-12
1.43372e-12
8.79999e-13
5.21523e-13
2.97086e-13
1.64919e-13
8.89164e-14
4.64059e-14
2.33873e-14
1.1373e-14
5.35364e-15
2.4712e-15
1.15773e-15
5.90499e-16
3.59113e-16
2.70162e-16
2.37978e-16
2.27023e-16
2.23513e-16
2.22454e-16
2.22153e-16
2.22072e-16
2.22051e-16
2.22046e-16
2.22045e-16
2.22045e-16
2.22045e-16
2.22045e-16
2.22045e-16
2.22045e-16
2.22045e-16
2.22045e-16
2.22045e-16
2.22045e-16
2.22045e-16
2.22045e-16
2.22045e-16
2.22045e-16
2.22045e-16
2.22045e-16
2.22045e-16
2.22045e-16
2.22045e-16
2.22045e-16
2.22045e-16
2.22045e-16
2.22045e-16
2.22045e-16
2.22045e-16
2.22045e-16
2.22045e-16
2.22045e-16
2.22045e-16
2.22045e-16
2.22045e-16
2.22045e-16
2.22045e-16
2.22045e-16
2.22045e-16
2.22045e-16
2.22045e-16
2.22045e-16
2.22045e-16
2.22045e-16
2.22045e-16
2.22045e-16
2.22045e-16
2.22045e-16
2.22045e-16
2.22284e-16
2.23111e-16
2.25128e-16
2.29419e-16
2.38268e-16
2.54124e-16
2.83332e-16
3.39302e-16
4.39858e-16
6.44387e-16
1.08181e-15
2.06891e-15
4.41241e-15
1.00803e-14
2.40149e-14
5.66484e-14
1.37167e-13
2.78758e-13
6.20891e-13
9.99495e-13
9.37328e-13
7.90362e-13
6.72301e-13
5.44817e-06
1.63417e-06
1.06833e-06
2.86431e-06
3.81014e-06
4.57251e-06
5.74575e-06
7.63238e-06
1.04827e-05
1.4775e-05
2.05122e-05
2.79804e-05
3.5767e-05
4.25965e-05
4.79162e-05
5.07563e-05
5.17918e-05
5.09277e-05
4.85367e-05
4.50751e-05
4.10036e-05
3.66556e-05
3.22743e-05
2.80193e-05
2.40889e-05
2.05476e-05
1.73744e-05
1.45899e-05
1.21951e-05
1.01433e-05
8.40011e-06
6.93309e-06
5.70714e-06
4.68821e-06
3.84493e-06
3.15051e-06
2.57881e-06
2.10971e-06
1.72339e-06
1.4057e-06
1.1453e-06
9.31091e-07
7.56091e-07
6.14779e-07
4.997e-07
4.05429e-07
3.28437e-07
2.65665e-07
2.1455e-07
1.72978e-07
1.39211e-07
1.1182e-07
8.96366e-08
7.16996e-08
5.72221e-08
4.55592e-08
3.6183e-08
2.86615e-08
2.26418e-08
1.78356e-08
1.40082e-08
1.09683e-08
8.56078e-09
6.65957e-09
5.16279e-09
3.98815e-09
3.06935e-09
2.35313e-09
1.79682e-09
1.36632e-09
1.03444e-09
7.79633e-10
5.84802e-10
4.3648e-10
3.24075e-10
2.39294e-10
1.75666e-10
1.28162e-10
9.28896e-11
6.68524e-11
4.77505e-11
3.38285e-11
2.3753e-11
1.65163e-11
1.1361e-11
7.72134e-12
5.17721e-12
3.41803e-12
2.21662e-12
1.40831e-12
8.71795e-13
5.24576e-13
3.01532e-13
1.69129e-13
9.22731e-14
4.88172e-14
2.49966e-14
1.23852e-14
5.95536e-15
2.80791e-15
1.33401e-15
6.76411e-16
3.97975e-16
2.86467e-16
2.44329e-16
2.29323e-16
2.2429e-16
2.22699e-16
2.22225e-16
2.22092e-16
2.22056e-16
2.22047e-16
2.22045e-16
2.22045e-16
2.22045e-16
2.22045e-16
2.22045e-16
2.22045e-16
2.22045e-16
2.22045e-16
2.22045e-16
2.22045e-16
2.22045e-16
2.22045e-16
2.22045e-16
2.22045e-16
2.22045e-16
2.22045e-16
2.22045e-16
2.22045e-16
2.22045e-16
2.22045e-16
2.22045e-16
2.22045e-16
2.22045e-16
2.22045e-16
2.22045e-16
2.22045e-16
2.22045e-16
2.22045e-16
2.22045e-16
2.22045e-16
2.22045e-16
2.22045e-16
2.22045e-16
2.22045e-16
2.22045e-16
2.22045e-16
2.22045e-16
2.22045e-16
2.22045e-16
2.22045e-16
2.22045e-16
2.22045e-16
2.22045e-16
2.22045e-16
2.22045e-16
2.22069e-16
2.22491e-16
2.23757e-16
2.26675e-16
2.32704e-16
2.44902e-16
2.66308e-16
3.0695e-16
3.82315e-16
5.24354e-16
8.17348e-16
1.44786e-15
2.8684e-15
6.09818e-15
1.34887e-14
2.96127e-14
6.01296e-14
1.34949e-13
1.95099e-13
1.94318e-13
1.85835e-13
1.51849e-13
1.14448e-13
6.81601e-06
2.23141e-06
1.97846e-06
4.29942e-06
5.59729e-06
7.75723e-06
1.15643e-05
1.81085e-05
2.80935e-05
4.30876e-05
6.27287e-05
8.60123e-05
0.000107169
0.000122364
0.000129624
0.0001288
0.000123517
0.000113404
0.000101596
8.88346e-05
7.63493e-05
6.47018e-05
5.4215e-05
4.49626e-05
3.70814e-05
3.05083e-05
2.49247e-05
2.03041e-05
1.65472e-05
1.33857e-05
1.07688e-05
8.64018e-06
6.9233e-06
5.54401e-06
4.43854e-06
3.55277e-06
2.84445e-06
2.27612e-06
1.82266e-06
1.46116e-06
1.17217e-06
9.42902e-07
7.60087e-07
6.122e-07
4.92629e-07
3.96192e-07
3.18451e-07
2.55784e-07
2.05271e-07
1.64563e-07
1.31771e-07
1.05369e-07
8.41299e-08
6.7059e-08
5.33541e-08
4.23661e-08
3.35694e-08
2.65389e-08
2.09301e-08
1.64646e-08
1.2917e-08
1.01052e-08
7.88196e-09
6.12881e-09
4.75014e-09
3.66913e-09
2.82411e-09
2.16568e-09
1.65436e-09
1.25869e-09
9.53625e-10
7.19325e-10
5.40095e-10
4.03565e-10
3.00019e-10
2.21848e-10
1.63119e-10
1.19218e-10
8.65776e-11
6.24457e-11
4.47111e-11
3.17611e-11
2.2369e-11
1.56075e-11
1.07776e-11
7.35766e-12
4.9589e-12
3.29369e-12
2.15141e-12
1.37882e-12
8.62543e-13
5.25864e-13
3.08126e-13
1.74711e-13
9.66307e-14
5.19906e-14
2.71707e-14
1.38039e-14
6.84059e-15
3.33278e-15
1.62648e-15
8.28115e-16
4.70817e-16
3.1878e-16
2.57579e-16
2.34356e-16
2.26066e-16
2.23283e-16
2.22405e-16
2.22143e-16
2.2207e-16
2.22051e-16
2.22046e-16
2.22045e-16
2.22045e-16
2.22045e-16
2.22045e-16
2.22045e-16
2.22045e-16
2.22045e-16
2.22045e-16
2.22045e-16
2.22045e-16
2.22045e-16