/*--------------------------------*- C++ -*----------------------------------*\
  =========                 |
  \\      /  F ield         | OpenFOAM: The Open Source CFD Toolbox
   \\    /   O peration     | Website:  https://openfoam.org
    \\  /    A nd           | Version:  7
     \\/     M anipulation  |
\*---------------------------------------------------------------------------*/
FoamFile
{
    version     2.0;
    format      ascii;
    class       surfaceScalarField;
    location    "0.005";
    object      phi;
}
// * * * * * * * * * * * * * * * * * * * * * * * * * * * * * * * * * * * * * //

dimensions      [0 3 -1 0 0 0 0];

internalField   nonuniform List<scalar> 
24170
(
1.39295e-06
2.12688e-07
1.25155e-06
1.41408e-07
1.12777e-06
1.23775e-07
1.02312e-06
1.04649e-07
9.31983e-07
9.11402e-08
8.51716e-07
8.0267e-08
7.8481e-07
6.69065e-08
7.38884e-07
4.59254e-08
7.15929e-07
2.2955e-08
7.16077e-07
-1.47221e-10
7.32472e-07
-1.63955e-08
7.60035e-07
-2.75625e-08
7.92967e-07
-3.2932e-08
8.29087e-07
-3.61205e-08
8.71247e-07
-4.21598e-08
9.1115e-07
-3.99027e-08
9.77585e-07
-6.6435e-08
-7.07701e-08
1.04835e-06
1.6722e-06
2.20154e-07
1.6479e-06
1.65706e-07
1.61623e-06
1.55449e-07
1.58332e-06
1.37559e-07
1.55168e-06
1.22781e-07
1.52489e-06
1.07055e-07
1.50393e-06
8.7865e-08
1.48771e-06
6.2146e-08
1.47706e-06
3.36088e-08
1.47373e-06
3.18323e-09
1.4797e-06
-2.237e-08
1.49435e-06
-4.221e-08
1.5143e-06
-5.28796e-08
1.54081e-06
-6.26326e-08
1.56862e-06
-6.997e-08
1.60869e-06
-7.99781e-08
1.64218e-06
-9.99229e-08
-1.27714e-07
1.69913e-06
1.80729e-06
3.31311e-07
1.76691e-06
2.06082e-07
1.75503e-06
1.67336e-07
1.74574e-06
1.4685e-07
1.7404e-06
1.28113e-07
1.74093e-06
1.06531e-07
1.74411e-06
8.46836e-08
1.74499e-06
6.12646e-08
1.74432e-06
3.42805e-08
1.7446e-06
2.90102e-09
1.75092e-06
-2.8693e-08
1.76245e-06
-5.37345e-08
1.77964e-06
-7.00747e-08
1.79713e-06
-8.01175e-08
1.81608e-06
-8.89186e-08
1.83485e-06
-9.8748e-08
1.85335e-06
-1.18428e-07
-1.50967e-07
1.87661e-06
1.90271e-06
3.68616e-07
1.90205e-06
2.06741e-07
1.89804e-06
1.71346e-07
1.88472e-06
1.6017e-07
1.87793e-06
1.34908e-07
1.87909e-06
1.05372e-07
1.8818e-06
8.19679e-08
1.88264e-06
6.04325e-08
1.88386e-06
3.30576e-08
1.88911e-06
-2.35003e-09
1.89947e-06
-3.90556e-08
1.91423e-06
-6.84938e-08
1.93079e-06
-8.66342e-08
1.94677e-06
-9.60951e-08
1.96108e-06
-1.03235e-07
1.97549e-06
-1.13156e-07
1.99005e-06
-1.32984e-07
-1.65518e-07
2.0046e-06
2.0374e-06
3.67898e-07
2.03994e-06
2.04194e-07
2.03097e-06
1.80316e-07
2.02004e-06
1.71099e-07
2.01719e-06
1.37761e-07
2.02234e-06
1.00216e-07
2.03079e-06
7.35249e-08
2.03881e-06
5.2413e-08
2.04687e-06
2.4995e-08
2.05618e-06
-1.166e-08
2.06624e-06
-4.91134e-08
2.07604e-06
-7.82941e-08
2.08495e-06
-9.55471e-08
2.09306e-06
-1.04203e-07
2.10126e-06
-1.1144e-07
2.11174e-06
-1.23635e-07
2.12458e-06
-1.45822e-07
-1.80362e-07
2.13942e-06
2.2148e-06
3.90654e-07
2.18039e-06
2.38601e-07
2.15724e-06
2.03468e-07
2.15511e-06
1.73225e-07
2.16538e-06
1.27497e-07
2.17715e-06
8.84403e-08
2.18576e-06
6.49133e-08
2.19281e-06
4.53717e-08
2.20209e-06
1.57099e-08
2.21288e-06
-2.2454e-08
2.22457e-06
-6.07998e-08
2.23506e-06
-8.87805e-08
2.24389e-06
-1.04376e-07
2.25177e-06
-1.12085e-07
2.26025e-06
-1.19919e-07
2.27123e-06
-1.34618e-07
2.28539e-06
-1.59981e-07
-1.97357e-07
2.30238e-06
2.3653e-06
4.03362e-07
2.33529e-06
2.68609e-07
2.33955e-06
1.99207e-07
2.35361e-06
1.59165e-07
2.35847e-06
1.22632e-07
2.35538e-06
9.1536e-08
2.35361e-06
6.6682e-08
2.35824e-06
4.07436e-08
2.36625e-06
7.69896e-09
2.37672e-06
-3.29212e-08
2.38569e-06
-6.97722e-08
2.39414e-06
-9.7231e-08
2.4037e-06
-1.13942e-07
2.41557e-06
-1.23952e-07
2.42994e-06
-1.34293e-07
2.44631e-06
-1.50979e-07
2.46344e-06
-1.77115e-07
-2.14405e-07
2.48049e-06
2.57686e-06
4.2541e-07
2.55071e-06
2.94759e-07
2.53616e-06
2.13755e-07
2.53598e-06
1.59345e-07
2.53999e-06
1.18617e-07
2.54289e-06
8.86419e-08
2.54489e-06
6.46824e-08
2.54716e-06
3.8477e-08
2.55164e-06
3.21668e-09
2.55453e-06
-3.58106e-08
2.56029e-06
-7.55323e-08
2.5701e-06
-1.07043e-07
2.58429e-06
-1.28136e-07
2.60111e-06
-1.40768e-07
2.61797e-06
-1.51155e-07
2.63282e-06
-1.65834e-07
2.64502e-06
-1.89316e-07
-2.25117e-07
2.65574e-06
2.77231e-06
4.49691e-07
2.74424e-06
3.22828e-07
2.74361e-06
2.14389e-07
2.74381e-06
1.5914e-07
2.74557e-06
1.16854e-07
2.75274e-06
8.14758e-08
2.7632e-06
5.42237e-08
2.77206e-06
2.96119e-08
2.77491e-06
3.71855e-10
2.77921e-06
-4.0117e-08
2.78484e-06
-8.11575e-08
2.79326e-06
-1.15465e-07
2.80279e-06
-1.3766e-07
2.81124e-06
-1.49217e-07
2.81738e-06
-1.57295e-07
2.82184e-06
-1.70301e-07
2.82661e-06
-1.94081e-07
-2.32353e-07
2.83384e-06
2.97353e-06
3.67644e-07
2.97688e-06
3.19477e-07
2.95532e-06
2.35946e-07
2.94785e-06
1.66609e-07
2.95385e-06
1.10857e-07
2.96421e-06
7.11199e-08
2.97095e-06
4.74821e-08
2.97147e-06
2.90939e-08
2.96985e-06
1.99188e-09
2.9652e-06
-3.54764e-08
2.96435e-06
-8.03033e-08
2.96767e-06
-1.18784e-07
2.97437e-06
-1.44357e-07
2.98311e-06
-1.57963e-07
2.99297e-06
-1.67147e-07
3.00394e-06
-1.81279e-07
3.01597e-06
-2.06106e-07
-2.45665e-07
3.02928e-06
3.13497e-06
3.07553e-07
3.15287e-06
3.01575e-07
3.13671e-06
2.5211e-07
3.11963e-06
1.83689e-07
3.1124e-06
1.18086e-07
3.11646e-06
6.70611e-08
3.12934e-06
3.45996e-08
3.14521e-06
1.32218e-08
3.16073e-06
-1.35314e-08
3.17757e-06
-5.23175e-08
3.19316e-06
-9.58894e-08
3.20677e-06
-1.32392e-07
3.21773e-06
-1.5532e-07
3.22644e-06
-1.66669e-07
3.23378e-06
-1.7449e-07
3.24057e-06
-1.8807e-07
3.24667e-06
-2.12204e-07
-2.50905e-07
3.25191e-06
2.88157e-06
3.68294e-07
2.88463e-06
2.98514e-07
2.86668e-06
2.70061e-07
2.84498e-06
2.05392e-07
2.83343e-06
1.29635e-07
2.83127e-06
6.92178e-08
2.83224e-06
3.3632e-08
2.83566e-06
9.80261e-09
2.84178e-06
-1.96501e-08
2.85192e-06
-6.24616e-08
2.86495e-06
-1.08917e-07
2.87834e-06
-1.45782e-07
2.89005e-06
-1.67029e-07
2.89894e-06
-1.75564e-07
2.90482e-06
-1.80369e-07
2.90789e-06
-1.91137e-07
2.9085e-06
-2.12811e-07
-2.50016e-07
2.90761e-06
3.47769e-06
3.35697e-07
3.47294e-06
3.03258e-07
3.46579e-06
2.77217e-07
3.47042e-06
2.00763e-07
3.48427e-06
1.15785e-07
3.49645e-06
5.70329e-08
3.50048e-06
2.96003e-08
3.49727e-06
1.30208e-08
3.49436e-06
-1.67433e-08
3.49471e-06
-6.2811e-08
3.49885e-06
-1.13059e-07
3.50582e-06
-1.52753e-07
3.51365e-06
-1.7486e-07
3.5204e-06
-1.82306e-07
3.52449e-06
-1.84464e-07
3.52549e-06
-1.92137e-07
3.52434e-06
-2.11662e-07
-2.48149e-07
3.52247e-06
4.28451e-06
4.50021e-07
4.19725e-06
3.90521e-07
4.18586e-06
2.88603e-07
4.21817e-06
1.68459e-07
4.25984e-06
7.41168e-08
4.28625e-06
3.06171e-08
4.29227e-06
2.35795e-08
4.28638e-06
1.89105e-08
4.27567e-06
-6.02955e-09
4.26359e-06
-5.07334e-08
4.2534e-06
-1.02866e-07
4.24604e-06
-1.45395e-07
4.24219e-06
-1.71005e-07
4.24166e-06
-1.81777e-07
4.24375e-06
-1.86553e-07
4.24804e-06
-1.96429e-07
4.25393e-06
-2.17552e-07
-2.55312e-07
4.26109e-06
5.1945e-06
4.46689e-07
5.16655e-06
4.18463e-07
5.17581e-06
2.79349e-07
5.18666e-06
1.57604e-07
5.18654e-06
7.42402e-08
5.1826e-06
3.45573e-08
5.18435e-06
2.18246e-08
5.19262e-06
1.06465e-08
5.20203e-06
-1.54412e-08
5.20779e-06
-5.64934e-08
5.20696e-06
-1.02039e-07
5.20313e-06
-1.41561e-07
5.20055e-06
-1.68424e-07
5.20194e-06
-1.83174e-07
5.20727e-06
-1.91883e-07
5.21466e-06
-2.03812e-07
5.22124e-06
-2.24132e-07
-2.5885e-07
5.22477e-06
6.34231e-06
5.77611e-07
6.36142e-06
3.99357e-07
6.37922e-06
2.61551e-07
6.36971e-06
1.67112e-07
6.35137e-06
9.25733e-08
6.33748e-06
4.84523e-08
6.32935e-06
2.99544e-08
6.32546e-06
1.45326e-08
6.32392e-06
-1.38939e-08
6.32409e-06
-5.66644e-08
6.32749e-06
-1.05437e-07
6.33342e-06
-1.47497e-07
6.34042e-06
-1.75419e-07
6.34656e-06
-1.89321e-07
6.35013e-06
-1.95449e-07
6.35018e-06
-2.03862e-07
6.34625e-06
-2.20204e-07
-2.50922e-07
6.33832e-06
7.68339e-06
4.49662e-07
7.73601e-06
3.46743e-07
7.73953e-06
2.58025e-07
7.72484e-06
1.81808e-07
7.69629e-06
1.21126e-07
7.66789e-06
7.68478e-08
7.65634e-06
4.15068e-08
7.66679e-06
4.0818e-09
7.69253e-06
-3.96368e-08
7.72446e-06
-8.859e-08
7.75336e-06
-1.34344e-07
7.77431e-06
-1.68444e-07
7.78579e-06
-1.86897e-07
7.78897e-06
-1.92504e-07
7.78581e-06
-1.92284e-07
7.77813e-06
-1.96184e-07
7.76665e-06
-2.08723e-07
-2.36268e-07
7.75199e-06
9.23696e-06
3.06375e-07
9.34439e-06
2.39315e-07
9.39434e-06
2.08076e-07
9.42062e-06
1.55528e-07
9.43908e-06
1.02659e-07
9.45575e-06
6.01847e-08
9.47141e-06
2.58475e-08
9.48305e-06
-7.56084e-09
9.49105e-06
-4.76374e-08
9.49446e-06
-9.20043e-08
9.49621e-06
-1.36089e-07
9.49931e-06
-1.71543e-07
9.50529e-06
-1.92877e-07
9.51296e-06
-2.00178e-07
9.51875e-06
-1.98076e-07
9.5181e-06
-1.95532e-07
9.50725e-06
-1.97873e-07
-2.12596e-07
9.48358e-06
1.18607e-05
4.29332e-07
1.17534e-05
3.46633e-07
1.16912e-05
2.70247e-07
1.16586e-05
1.88112e-07
1.1646e-05
1.15296e-07
1.16346e-05
7.15348e-08
1.16133e-05
4.71514e-08
1.15851e-05
2.0624e-08
1.15565e-05
-1.90378e-08
1.15335e-05
-6.89634e-08
1.15145e-05
-1.17099e-07
1.14954e-05
-1.5238e-07
1.14724e-05
-1.69877e-07
1.14436e-05
-1.71455e-07
1.14096e-05
-1.64025e-07
1.13716e-05
-1.5753e-07
1.13316e-05
-1.57904e-07
-1.72092e-07
1.12911e-05
8.34333e-06
4.51445e-07
8.39166e-06
2.98307e-07
8.43313e-06
2.28773e-07
8.44595e-06
1.75292e-07
8.44249e-06
1.18752e-07
8.44506e-06
6.89718e-08
8.46056e-06
3.16447e-08
8.4813e-06
-1.08818e-10
8.49819e-06
-3.59315e-08
8.50495e-06
-7.57236e-08
8.50185e-06
-1.13993e-07
8.49171e-06
-1.42247e-07
8.47735e-06
-1.55516e-07
8.46064e-06
-1.54742e-07
8.44241e-06
-1.45799e-07
8.4227e-06
-1.37813e-07
8.4012e-06
-1.36408e-07
-1.47982e-07
8.37709e-06
7.31874e-06
4.01642e-07
7.27262e-06
3.44432e-07
7.25746e-06
2.43931e-07
7.27396e-06
1.58791e-07
7.30112e-06
9.15915e-08
7.33103e-06
3.90655e-08
7.35691e-06
5.76815e-09
7.37472e-06
-1.79242e-08
7.38054e-06
-4.17464e-08
7.37619e-06
-7.13817e-08
7.36544e-06
-1.03241e-07
7.35274e-06
-1.29546e-07
7.34123e-06
-1.43999e-07
7.33212e-06
-1.45636e-07
7.32499e-06
-1.38673e-07
7.31814e-06
-1.30956e-07
7.30945e-06
-1.27719e-07
-1.35117e-07
7.29658e-06
6.31968e-06
4.09511e-07
6.3475e-06
3.16613e-07
6.39575e-06
1.95682e-07
6.44486e-06
1.09672e-07
6.47919e-06
5.72698e-08
6.49312e-06
2.51338e-08
6.49751e-06
1.37666e-09
6.4991e-06
-1.95156e-08
6.50343e-06
-4.60779e-08
6.50805e-06
-7.60039e-08
6.50837e-06
-1.03562e-07
6.50188e-06
-1.23047e-07
6.48884e-06
-1.30967e-07
6.47124e-06
-1.28039e-07
6.45126e-06
-1.18684e-07
6.43015e-06
-1.09845e-07
6.40786e-06
-1.05434e-07
-1.10547e-07
6.38329e-06
5.57305e-06
3.72714e-07
5.62034e-06
2.69323e-07
5.67094e-06
1.45082e-07
5.70877e-06
7.18376e-08
5.72825e-06
3.77931e-08
5.73474e-06
1.86476e-08
5.73032e-06
5.79891e-09
5.71899e-06
-8.18672e-09
5.70163e-06
-2.87259e-08
5.68244e-06
-5.68143e-08
5.66904e-06
-9.01556e-08
5.66512e-06
-1.19133e-07
5.66935e-06
-1.3519e-07
5.67658e-06
-1.35275e-07
5.68063e-06
-1.22734e-07
5.67664e-06
-1.05848e-07
5.66208e-06
-9.08798e-08
-8.62474e-08
5.63778e-06
4.83487e-06
3.66533e-07
4.86554e-06
2.3865e-07
4.89347e-06
1.17156e-07
4.92713e-06
3.8168e-08
4.9599e-06
5.03219e-09
4.98076e-06
-2.21477e-09
4.98813e-06
-1.57378e-09
4.98705e-06
-7.10804e-09
4.98436e-06
-2.60327e-08
4.98379e-06
-5.6247e-08
4.98338e-06
-8.97449e-08
4.98145e-06
-1.17202e-07
4.97731e-06
-1.31049e-07
4.97092e-06
-1.28883e-07
4.96226e-06
-1.14076e-07
4.95098e-06
-9.45709e-08
4.93718e-06
-7.7076e-08
-6.99623e-08
4.92089e-06
4.23231e-06
3.90795e-07
4.29172e-06
1.79231e-07
4.33591e-06
7.29672e-08
4.35771e-06
1.63705e-08
4.3696e-06
-6.85769e-09
4.38111e-06
-1.3726e-08
4.39709e-06
-1.75529e-08
4.41804e-06
-2.80579e-08
4.43908e-06
-4.70699e-08
4.45304e-06
-7.02058e-08
4.45468e-06
-9.13865e-08
4.44317e-06
-1.05698e-07
4.42277e-06
-1.10643e-07
4.40002e-06
-1.06137e-07
4.3804e-06
-9.44506e-08
4.36627e-06
-8.04465e-08
4.35742e-06
-6.82189e-08
-6.37037e-08
4.35116e-06
3.74421e-06
2.65279e-07
3.81817e-06
1.05271e-07
3.82406e-06
6.70794e-08
3.80945e-06
3.09779e-08
3.80783e-06
-5.23332e-09
3.8193e-06
-2.51984e-08
3.84004e-06
-3.82886e-08
3.86185e-06
-4.98765e-08
3.87713e-06
-6.23412e-08
3.88188e-06
-7.49617e-08
3.87671e-06
-8.62126e-08
3.8656e-06
-9.45913e-08
3.85386e-06
-9.89023e-08
3.84572e-06
-9.79931e-08
3.84252e-06
-9.12574e-08
3.843e-06
-8.09196e-08
3.84479e-06
-7.00087e-08
-6.34624e-08
3.84455e-06
3.25923e-06
2.29806e-07
3.28017e-06
8.43333e-08
3.29844e-06
4.88089e-08
3.32172e-06
7.69746e-09
3.34535e-06
-2.88652e-08
3.36907e-06
-4.89147e-08
3.39023e-06
-5.94459e-08
3.40652e-06
-6.61711e-08
3.41484e-06
-7.06632e-08
3.41396e-06
-7.40746e-08
3.40593e-06
-7.81906e-08
3.39516e-06
-8.38151e-08
3.38643e-06
-9.01763e-08
3.3831e-06
-9.4662e-08
3.3855e-06
-9.36561e-08
3.39122e-06
-8.66383e-08
3.39673e-06
-7.55264e-08
-6.56754e-08
3.39895e-06
2.86295e-06
1.93853e-07
2.92742e-06
1.98627e-08
2.96712e-06
9.11158e-09
2.99159e-06
-1.67728e-08
2.99966e-06
-3.69358e-08
3.00057e-06
-4.98215e-08
3.00185e-06
-6.07216e-08
3.00495e-06
-6.92736e-08
3.00661e-06
-7.23305e-08
3.00382e-06
-7.12752e-08
2.99679e-06
-7.11667e-08
2.98867e-06
-7.56934e-08
2.98328e-06
-8.47846e-08
2.98251e-06
-9.38986e-08
2.98558e-06
-9.67249e-08
2.99025e-06
-9.13007e-08
2.9943e-06
-7.95752e-08
-6.6841e-08
2.99546e-06
2.49816e-06
1.1291e-07
2.55164e-06
-3.36213e-08
2.58747e-06
-2.67172e-08
2.61519e-06
-4.44975e-08
2.63175e-06
-5.34887e-08
2.63813e-06
-5.62067e-08
2.63843e-06
-6.10221e-08
2.6343e-06
-6.51401e-08
2.62517e-06
-6.32014e-08
2.61039e-06
-5.64981e-08
2.59096e-06
-5.17322e-08
2.56958e-06
-5.43174e-08
2.54853e-06
-6.37289e-08
2.52833e-06
-7.37032e-08
2.50846e-06
-7.68567e-08
2.48813e-06
-7.09667e-08
2.46701e-06
-5.84613e-08
-4.47911e-08
2.44496e-06
2.14128e-06
2.10766e-06
2.08094e-06
2.03644e-06
1.98295e-06
1.92675e-06
1.86572e-06
1.80058e-06
1.73738e-06
1.68088e-06
1.62915e-06
1.57483e-06
1.51111e-06
1.4374e-06
1.36055e-06
1.28958e-06
1.23112e-06
1.18633e-06
-1.28991e-08
1.28991e-08
-1.35387e-08
6.39576e-10
-1.18053e-08
-1.73337e-09
-9.46189e-09
-2.34342e-09
-6.14737e-09
-3.31452e-09
-1.47538e-09
-4.67199e-09
4.85657e-09
-6.33195e-09
1.31281e-08
-8.27156e-09
2.35881e-08
-1.046e-08
3.64629e-08
-1.28748e-08
5.19494e-08
-1.54865e-08
7.0212e-08
-1.82625e-08
9.13793e-08
-2.11673e-08
1.15542e-07
-2.41624e-08
1.4275e-07
-2.72081e-08
1.73014e-07
-3.0264e-08
2.06304e-07
-3.32897e-08
2.4255e-07
-3.62462e-08
2.81646e-07
-3.90965e-08
3.23453e-07
-4.18065e-08
3.67798e-07
-4.43456e-08
4.14486e-07
-4.66878e-08
4.63298e-07
-4.88114e-08
5.13997e-07
-5.06996e-08
5.66337e-07
-5.23402e-08
6.20063e-07
-5.3726e-08
6.74918e-07
-5.48542e-08
7.30644e-07
-5.57259e-08
7.8699e-07
-5.63463e-08
8.43713e-07
-5.67233e-08
9.00581e-07
-5.68679e-08
9.57374e-07
-5.67933e-08
1.01389e-06
-5.6514e-08
1.06993e-06
-5.6046e-08
1.12534e-06
-5.54061e-08
1.17995e-06
-5.46114e-08
1.23363e-06
-5.36788e-08
1.28626e-06
-5.26252e-08
1.33772e-06
-5.1467e-08
1.38794e-06
-5.02198e-08
1.43684e-06
-4.88983e-08
1.48436e-06
-4.75165e-08
1.53044e-06
-4.60871e-08
1.57507e-06
-4.46221e-08
1.6182e-06
-4.31321e-08
1.65983e-06
-4.16269e-08
1.69994e-06
-4.01151e-08
1.73855e-06
-3.86046e-08
1.77565e-06
-3.7102e-08
1.81126e-06
-3.56134e-08
1.8454e-06
-3.41437e-08
1.8781e-06
-3.26975e-08
1.90938e-06
-3.12784e-08
1.93927e-06
-2.98895e-08
1.9678e-06
-2.85332e-08
1.99501e-06
-2.72115e-08
2.02094e-06
-2.59261e-08
2.04562e-06
-2.46781e-08
2.06909e-06
-2.34682e-08
2.09138e-06
-2.22969e-08
2.11255e-06
-2.11646e-08
2.13262e-06
-2.00711e-08
2.15164e-06
-1.90164e-08
2.16964e-06
-1.79999e-08
2.18666e-06
-1.70213e-08
2.20274e-06
-1.60799e-08
2.21791e-06
-1.51749e-08
2.23222e-06
-1.43056e-08
2.24569e-06
-1.34711e-08
2.25836e-06
-1.26705e-08
2.27026e-06
-1.19029e-08
2.28143e-06
-1.11672e-08
2.29189e-06
-1.04625e-08
2.30168e-06
-9.78785e-09
2.31082e-06
-9.14219e-09
2.31935e-06
-8.52454e-09
2.32728e-06
-7.9339e-09
2.33465e-06
-7.36932e-09
2.34148e-06
-6.8298e-09
2.34779e-06
-6.31443e-09
2.35362e-06
-5.82227e-09
2.35897e-06
-5.35239e-09
2.36387e-06
-4.90398e-09
2.36835e-06
-4.4761e-09
2.37242e-06
-4.06797e-09
2.3761e-06
-3.67874e-09
2.3794e-06
-3.3076e-09
2.38236e-06
-2.95387e-09
2.38497e-06
-2.61679e-09
2.38727e-06
-2.29524e-09
2.38926e-06
-1.98945e-09
2.39096e-06
-1.698e-09
2.39238e-06
-1.419e-09
2.39353e-06
-1.15558e-09
2.39444e-06
-9.04488e-10
2.39509e-06
-6.59055e-10
2.39552e-06
-4.29453e-10
2.39574e-06
-2.14215e-10
2.39573e-06
7.30991e-12
2.39548e-06
2.52374e-10
2.395e-06
4.82567e-10
2.3943e-06
6.94146e-10
2.39342e-06
8.83495e-10
2.39237e-06
1.05139e-09
2.39116e-06
1.20213e-09
2.38982e-06
1.34051e-09
2.38835e-06
1.46984e-09
2.38676e-06
1.59215e-09
2.38505e-06
1.70845e-09
2.38323e-06
1.8193e-09
2.38131e-06
1.92506e-09
2.37928e-06
2.02601e-09
2.37716e-06
2.12239e-09
2.37495e-06
2.21447e-09
2.37264e-06
2.30251e-09
2.37026e-06
2.38674e-09
2.36779e-06
2.46734e-09
2.36525e-06
2.54462e-09
2.36263e-06
2.61864e-09
2.35994e-06
2.68975e-09
2.35718e-06
2.75799e-09
2.35436e-06
2.82365e-09
2.35147e-06
2.88683e-09
2.34852e-06
2.94779e-09
2.34551e-06
3.00664e-09
2.34245e-06
3.06345e-09
2.33933e-06
3.11842e-09
2.33616e-06
3.17157e-09
2.33294e-06
3.22311e-09
2.32966e-06
3.27318e-09
2.32634e-06
3.32184e-09
2.32297e-06
3.36928e-09
2.31956e-06
3.41552e-09
2.3161e-06
3.46071e-09
2.31259e-06
3.50493e-09
2.30904e-06
3.54828e-09
2.30545e-06
3.59077e-09
2.30182e-06
3.63263e-09
2.29815e-06
3.67383e-09
2.29443e-06
3.71446e-09
2.29068e-06
3.75461e-09
2.28688e-06
3.79434e-09
2.28305e-06
3.83378e-09
2.27918e-06
3.87303e-09
2.27526e-06
3.91217e-09
2.27131e-06
3.95129e-09
2.26732e-06
3.99046e-09
2.26329e-06
4.02982e-09
2.25922e-06
4.06953e-09
2.25511e-06
4.10975e-09
2.25096e-06
4.15063e-09
2.24677e-06
4.19246e-09
2.24253e-06
4.23551e-09
2.23825e-06
4.28008e-09
2.23393e-06
4.32665e-09
2.22955e-06
4.37576e-09
2.22512e-06
4.42812e-09
2.22064e-06
4.48459e-09
2.21609e-06
4.54631e-09
2.21148e-06
4.61471e-09
2.20679e-06
4.6917e-09
2.20201e-06
4.77966e-09
2.19713e-06
4.88179e-09
2.19212e-06
5.00222e-09
2.18698e-06
5.14645e-09
2.18165e-06
5.32185e-09
2.17612e-06
5.53824e-09
2.17031e-06
5.80899e-09
2.16415e-06
6.15367e-09
2.15756e-06
6.59451e-09
2.15037e-06
7.1873e-09
2.14245e-06
7.91871e-09
2.13332e-06
9.13031e-09
2.1232e-06
1.01245e-08
2.10951e-06
1.36867e-08
2.09602e-06
1.34901e-08
2.06864e-06
2.73785e-08
2.04704e-06
2.16071e-08
1.96566e-06
8.13747e-08
8.32382e-08
1.88242e-06
-1.29003e-08
2.57994e-08
-1.26009e-08
3.40116e-10
-9.92712e-09
-4.40709e-09
-6.62325e-09
-5.6473e-09
-2.32061e-09
-7.61716e-09
3.39625e-09
-1.03889e-08
1.08984e-08
-1.38341e-08
2.04851e-08
-1.78583e-08
3.24029e-08
-2.23778e-08
4.68998e-08
-2.73717e-08
6.41837e-08
-3.27704e-08
8.44261e-08
-3.85049e-08
1.0776e-07
-4.45014e-08
1.34275e-07
-5.06776e-08
1.64019e-07
-5.69515e-08
1.96994e-07
-6.32391e-08
2.33161e-07
-6.94569e-08
2.72439e-07
-7.55243e-08
3.14708e-07
-8.13652e-08
3.59811e-07
-8.69097e-08
4.07561e-07
-9.20959e-08
4.57744e-07
-9.6871e-08
5.10125e-07
-1.01192e-07
5.64451e-07
-1.05026e-07
6.20459e-07
-1.08349e-07
6.77882e-07
-1.11149e-07
7.36448e-07
-1.13421e-07
7.95891e-07
-1.15169e-07
8.55949e-07
-1.16405e-07
9.16372e-07
-1.17146e-07
9.76921e-07
-1.17416e-07
1.03737e-06
-1.17243e-07
1.09751e-06
-1.16656e-07
1.15715e-06
-1.15689e-07
1.21612e-06
-1.14375e-07
1.27426e-06
-1.1275e-07
1.33143e-06
-1.10848e-07
1.38751e-06
-1.08703e-07
1.44239e-06
-1.06348e-07
1.49598e-06
-1.03813e-07
1.54822e-06
-1.0113e-07
1.59902e-06
-9.83243e-08
1.64836e-06
-9.5423e-08
1.69619e-06
-9.24491e-08
1.74248e-06
-8.94242e-08
1.78722e-06
-8.63674e-08
1.8304e-06
-8.32962e-08
1.87202e-06
-8.02258e-08
1.91209e-06
-7.71699e-08
1.95062e-06
-7.41403e-08
1.98762e-06
-7.11473e-08
2.02312e-06
-6.81996e-08
2.05715e-06
-6.53046e-08
2.08973e-06
-6.24686e-08
2.12089e-06
-5.96966e-08
2.15067e-06
-5.69929e-08
2.17911e-06
-5.43606e-08
2.20623e-06
-5.18022e-08
2.23208e-06
-4.93194e-08
2.2567e-06
-4.69134e-08
2.28012e-06
-4.45849e-08
2.30238e-06
-4.23339e-08
2.32352e-06
-4.01603e-08
2.34359e-06
-3.80634e-08
2.36261e-06
-3.60424e-08
2.38063e-06
-3.40962e-08
2.39767e-06
-3.22236e-08
2.41379e-06
-3.04229e-08
2.42901e-06
-2.86927e-08
2.44337e-06
-2.70312e-08
2.45691e-06
-2.54366e-08
2.46965e-06
-2.39071e-08
2.48163e-06
-2.24408e-08
2.49287e-06
-2.10357e-08
2.50342e-06
-1.969e-08
2.5133e-06
-1.84017e-08
2.52253e-06
-1.71688e-08
2.53115e-06
-1.59895e-08
2.53919e-06
-1.48618e-08
2.54666e-06
-1.37839e-08
2.55359e-06
-1.2754e-08
2.56e-06
-1.17702e-08
2.56593e-06
-1.08308e-08
2.57139e-06
-9.93403e-09
2.5764e-06
-9.07826e-09
2.58098e-06
-8.26179e-09
2.58516e-06
-7.48314e-09
2.58895e-06
-6.7406e-09
2.59236e-06
-6.03275e-09
2.59542e-06
-5.35804e-09
2.59815e-06
-4.71516e-09
2.60055e-06
-4.10265e-09
2.60265e-06
-3.51931e-09
2.60446e-06
-2.96398e-09
2.60599e-06
-2.43488e-09
2.60727e-06
-1.93101e-09
2.60829e-06
-1.45208e-09
2.60907e-06
-9.96717e-10
2.60964e-06
-5.61157e-10
2.61003e-06
-1.37713e-10
2.61026e-06
2.55333e-10
2.61032e-06
6.27796e-10
2.61023e-06
9.79954e-10
2.60996e-06
1.31424e-09
2.60953e-06
1.63243e-09
2.60894e-06
1.93551e-09
2.60818e-06
2.22446e-09
2.60728e-06
2.5e-09
2.60622e-06
2.76258e-09
2.60503e-06
3.01279e-09
2.6037e-06
3.25111e-09
2.60225e-06
3.47818e-09
2.60068e-06
3.69456e-09
2.59899e-06
3.90089e-09
2.5972e-06
4.0976e-09
2.5953e-06
4.28536e-09
2.5933e-06
4.46462e-09
2.59121e-06
4.63585e-09
2.58903e-06
4.79956e-09
2.58676e-06
4.95618e-09
2.58441e-06
5.10611e-09
2.58199e-06
5.24981e-09
2.57949e-06
5.38766e-09
2.57691e-06
5.52008e-09
2.57427e-06
5.64741e-09
2.57157e-06
5.76993e-09
2.5688e-06
5.88789e-09
2.56597e-06
6.00163e-09
2.56308e-06
6.11147e-09
2.56013e-06
6.21766e-09
2.55714e-06
6.3205e-09
2.55408e-06
6.42023e-09
2.55098e-06
6.51708e-09
2.54783e-06
6.6113e-09
2.54463e-06
6.70312e-09
2.54139e-06
6.79268e-09
2.5381e-06
6.88029e-09
2.53477e-06
6.96605e-09
2.53139e-06
7.05018e-09
2.52797e-06
7.13285e-09
2.52451e-06
7.21425e-09
2.52101e-06
7.29447e-09
2.51747e-06
7.37381e-09
2.51389e-06
7.45242e-09
2.51027e-06
7.53054e-09
2.50662e-06
7.60834e-09
2.50292e-06
7.686e-09
2.49919e-06
7.76376e-09
2.49542e-06
7.84191e-09
2.4916e-06
7.92077e-09
2.48775e-06
8.00068e-09
2.48387e-06
8.08214e-09
2.47994e-06
8.16558e-09
2.47596e-06
8.25177e-09
2.47195e-06
8.34145e-09
2.46789e-06
8.43569e-09
2.46378e-06
8.53571e-09
2.45962e-06
8.64318e-09
2.45541e-06
8.76015e-09
2.45113e-06
8.88929e-09
2.44679e-06
9.03405e-09
2.44237e-06
9.1988e-09
2.43787e-06
9.38936e-09
2.43325e-06
9.6133e-09
2.42852e-06
9.88065e-09
2.42364e-06
1.02044e-08
2.41857e-06
1.06036e-08
2.41328e-06
1.10992e-08
2.4077e-06
1.17344e-08
2.40177e-06
1.25288e-08
2.39533e-06
1.36279e-08
2.38833e-06
1.49189e-08
2.38033e-06
1.71228e-08
2.37143e-06
1.90258e-08
2.36041e-06
2.47058e-08
2.34744e-06
2.64663e-08
2.32965e-06
4.51662e-08
2.3056e-06
4.56567e-08
2.27693e-06
1.10045e-07
1.24867e-07
2.2353e-06
-1.47179e-08
4.05173e-08
-1.6846e-08
2.46818e-09
-1.68178e-08
-4.43525e-09
-1.60953e-08
-6.3698e-09
-1.4221e-08
-9.49147e-09
-1.0712e-08
-1.38979e-08
-5.25046e-09
-1.92956e-08
2.47213e-09
-2.55809e-08
1.27817e-08
-3.26873e-08
2.59781e-08
-4.05681e-08
4.22804e-08
-4.90726e-08
6.18523e-08
-5.80769e-08
8.48408e-08
-6.74899e-08
1.11325e-07
-7.71615e-08
1.41339e-07
-8.69658e-08
1.74866e-07
-9.67662e-08
2.1184e-07
-1.06431e-07
2.5215e-07
-1.15834e-07
2.95641e-07
-1.24856e-07
3.42121e-07
-1.3339e-07
3.91367e-07
-1.41341e-07
4.43126e-07
-1.48631e-07
4.97129e-07
-1.55195e-07
5.5309e-07
-1.60986e-07
6.10716e-07
-1.65975e-07
6.69712e-07
-1.70145e-07
7.29786e-07
-1.73495e-07
7.90654e-07
-1.76036e-07
8.52039e-07
-1.7779e-07
9.13683e-07
-1.7879e-07
9.7534e-07
-1.79073e-07
1.03678e-06
-1.78686e-07
1.09781e-06
-1.77678e-07
1.15822e-06
-1.761e-07
1.21785e-06
-1.74006e-07
1.27655e-06
-1.7145e-07
1.33419e-06
-1.68486e-07
1.39065e-06
-1.65164e-07
1.44583e-06
-1.61535e-07
1.49966e-06
-1.57645e-07
1.55207e-06
-1.5354e-07
1.60301e-06
-1.49259e-07
1.65243e-06
-1.44842e-07
1.7003e-06
-1.40323e-07
1.74661e-06
-1.35733e-07
1.79134e-06
-1.311e-07
1.8345e-06
-1.26451e-07
1.87608e-06
-1.21807e-07
1.9161e-06
-1.17188e-07
1.95457e-06
-1.12611e-07
1.99151e-06
-1.08092e-07
2.02696e-06
-1.03642e-07
2.06092e-06
-9.92726e-08
2.09345e-06
-9.49927e-08
2.12456e-06
-9.08097e-08
2.1543e-06
-8.67293e-08
2.18269e-06
-8.27564e-08
2.20979e-06
-7.88943e-08
2.23561e-06
-7.51455e-08
2.26021e-06
-7.15119e-08
2.28362e-06
-6.79941e-08
2.30588e-06
-6.45924e-08
2.32703e-06
-6.13065e-08
2.3471e-06
-5.81355e-08
2.36613e-06
-5.50781e-08
2.38417e-06
-5.21326e-08
2.40124e-06
-4.92973e-08
2.41739e-06
-4.65699e-08
2.43265e-06
-4.39481e-08
2.44704e-06
-4.14294e-08
2.46062e-06
-3.90111e-08
2.4734e-06
-3.66907e-08
2.48543e-06
-3.44651e-08
2.49672e-06
-3.23317e-08
2.50732e-06
-3.02876e-08
2.51725e-06
-2.833e-08
2.52654e-06
-2.6456e-08
2.53521e-06
-2.46627e-08
2.54329e-06
-2.29474e-08
2.55082e-06
-2.13072e-08
2.5578e-06
-1.97396e-08
2.56427e-06
-1.82417e-08
2.57025e-06
-1.6811e-08
2.57577e-06
-1.54449e-08
2.58083e-06
-1.41409e-08
2.58546e-06
-1.28966e-08
2.58969e-06
-1.17096e-08
2.59353e-06
-1.05775e-08
2.59699e-06
-9.49793e-09
2.6001e-06
-8.46896e-09
2.60288e-06
-7.48819e-09
2.60533e-06
-6.55374e-09
2.60747e-06
-5.66394e-09
2.60932e-06
-4.81613e-09
2.6109e-06
-4.00845e-09
2.61221e-06
-3.24051e-09
2.61326e-06
-2.50839e-09
2.61407e-06
-1.80918e-09
2.61466e-06
-1.14629e-09
2.61504e-06
-5.21068e-10
2.61523e-06
7.17019e-11
2.61521e-06
6.40671e-10
2.61501e-06
1.17968e-09
2.61464e-06
1.69272e-09
2.61409e-06
2.18091e-09
2.61338e-06
2.64588e-09
2.61251e-06
3.0886e-09
2.6115e-06
3.51008e-09
2.61035e-06
3.91121e-09
2.60907e-06
4.29301e-09
2.60767e-06
4.65654e-09
2.60614e-06
5.00274e-09
2.60451e-06
5.3325e-09
2.60276e-06
5.64677e-09
2.60091e-06
5.94639e-09
2.59896e-06
6.23218e-09
2.59692e-06
6.50488e-09
2.59479e-06
6.76532e-09
2.59258e-06
7.01412e-09
2.59028e-06
7.25201e-09
2.58791e-06
7.47964e-09
2.58546e-06
7.69769e-09
2.58294e-06
7.9067e-09
2.58036e-06
8.10738e-09
2.5777e-06
8.30009e-09
2.57499e-06
8.4854e-09
2.57221e-06
8.66372e-09
2.56938e-06
8.83551e-09
2.56649e-06
9.00127e-09
2.56355e-06
9.16143e-09
2.56055e-06
9.31633e-09
2.5575e-06
9.46644e-09
2.55441e-06
9.6121e-09
2.55127e-06
9.75365e-09
2.54808e-06
9.89139e-09
2.54484e-06
1.00257e-08
2.54157e-06
1.01569e-08
2.53825e-06
1.02853e-08
2.53489e-06
1.04111e-08
2.53149e-06
1.05346e-08
2.52804e-06
1.0656e-08
2.52456e-06
1.07757e-08
2.52104e-06
1.08939e-08
2.51748e-06
1.1011e-08
2.51389e-06
1.11272e-08
2.51025e-06
1.12427e-08
2.50658e-06
1.1358e-08
2.50287e-06
1.14734e-08
2.49912e-06
1.15893e-08
2.49534e-06
1.17061e-08
2.49152e-06
1.18244e-08
2.48765e-06
1.19448e-08
2.48375e-06
1.20681e-08
2.47981e-06
1.21954e-08
2.47582e-06
1.23277e-08
2.47179e-06
1.24666e-08
2.46771e-06
1.26139e-08
2.46358e-06
1.27721e-08
2.4594e-06
1.29441e-08
2.45515e-06
1.31339e-08
2.45084e-06
1.33464e-08
2.44645e-06
1.35882e-08
2.44197e-06
1.38676e-08
2.43739e-06
1.41956e-08
2.43269e-06
1.45869e-08
2.42783e-06
1.50604e-08
2.42279e-06
1.56436e-08
2.41752e-06
1.63664e-08
2.41196e-06
1.72926e-08
2.40605e-06
1.84474e-08
2.39963e-06
2.00414e-08
2.39263e-06
2.19253e-08
2.38471e-06
2.50363e-08
2.37571e-06
2.80303e-08
2.36508e-06
3.53342e-08
2.35171e-06
3.98398e-08
2.33661e-06
6.02589e-08
2.31345e-06
6.88177e-08
2.29418e-06
1.29315e-07
1.64794e-07
2.25425e-06
-1.76671e-08
5.81844e-08
-2.34898e-08
8.29089e-09
-2.74617e-08
-4.63352e-10
-3.06238e-08
-3.20768e-09
-3.24114e-08
-7.70383e-09
-3.23024e-08
-1.40069e-08
-2.98847e-08
-2.17133e-08
-2.47741e-08
-3.06915e-08
-1.66398e-08
-4.08216e-08
-5.2164e-09
-5.19915e-08
9.73592e-09
-6.4025e-08
2.84729e-08
-7.68139e-08
5.12127e-08
-9.02296e-08
7.79515e-08
-1.039e-07
1.08715e-07
-1.17729e-07
1.43449e-07
-1.315e-07
1.82042e-07
-1.45025e-07
2.2433e-07
-1.58121e-07
2.70096e-07
-1.70623e-07
3.19087e-07
-1.82381e-07
3.71013e-07
-1.93267e-07
4.2556e-07
-2.03178e-07
4.82398e-07
-2.12033e-07
5.41188e-07
-2.19776e-07
6.01587e-07
-2.26374e-07
6.6326e-07
-2.31817e-07
7.25878e-07
-2.36113e-07
7.8913e-07
-2.39288e-07
8.5272e-07
-2.41381e-07
9.16374e-07
-2.42444e-07
9.7984e-07
-2.42539e-07
1.04289e-06
-2.41734e-07
1.10531e-06
-2.40101e-07
1.16693e-06
-2.37715e-07
1.22757e-06
-2.34651e-07
1.28711e-06
-2.30986e-07
1.34541e-06
-2.26792e-07
1.40239e-06
-2.2214e-07
1.45795e-06
-2.17097e-07
1.51203e-06
-2.11727e-07
1.56458e-06
-2.06087e-07
1.61555e-06
-2.00233e-07
1.66493e-06
-1.94213e-07
1.71268e-06
-1.88074e-07
1.7588e-06
-1.81856e-07
1.80329e-06
-1.75595e-07
1.84617e-06
-1.69323e-07
1.88743e-06
-1.6307e-07
1.9271e-06
-1.5686e-07
1.9652e-06
-1.50715e-07
2.00177e-06
-1.44653e-07
2.03682e-06
-1.38691e-07
2.07038e-06
-1.32841e-07
2.10251e-06
-1.27116e-07
2.13322e-06
-1.21522e-07
2.16256e-06
-1.16069e-07
2.19057e-06
-1.10762e-07
2.21727e-06
-1.05604e-07
2.24273e-06
-1.00599e-07
2.26696e-06
-9.5748e-08
2.29002e-06
-9.10525e-08
2.31194e-06
-8.65124e-08
2.33276e-06
-8.21268e-08
2.35252e-06
-7.78946e-08
2.37126e-06
-7.38138e-08
2.38901e-06
-6.98822e-08
2.40581e-06
-6.60973e-08
2.42169e-06
-6.2456e-08
2.4367e-06
-5.89552e-08
2.45086e-06
-5.55916e-08
2.46421e-06
-5.23617e-08
2.47678e-06
-4.92618e-08
2.48861e-06
-4.62883e-08
2.49971e-06
-4.34373e-08
2.51013e-06
-4.07053e-08
2.51989e-06
-3.80882e-08
2.52902e-06
-3.55826e-08
2.53754e-06
-3.31844e-08
2.54548e-06
-3.08901e-08
2.55287e-06
-2.8696e-08
2.55973e-06
-2.65985e-08
2.56608e-06
-2.4594e-08
2.57195e-06
-2.26791e-08
2.57735e-06
-2.08505e-08
2.58232e-06
-1.91046e-08
2.58686e-06
-1.74385e-08
2.591e-06
-1.58488e-08
2.59475e-06
-1.43325e-08
2.59814e-06
-1.28865e-08
2.60118e-06
-1.15079e-08
2.60389e-06
-1.0194e-08
2.60628e-06
-8.94205e-09
2.60836e-06
-7.74944e-09
2.61016e-06
-6.61363e-09
2.61168e-06
-5.53227e-09
2.61294e-06
-4.50272e-09
2.61396e-06
-3.52337e-09
2.61474e-06
-2.59273e-09
2.6153e-06
-1.70664e-09
2.61564e-06
-8.61672e-10
2.61577e-06
-5.33533e-11
2.61571e-06
7.01823e-10
2.61546e-06
1.42615e-09
2.61504e-06
2.11441e-09
2.61445e-06
2.76957e-09
2.6137e-06
3.39298e-09
2.61281e-06
3.98631e-09
2.61177e-06
4.55099e-09
2.61059e-06
5.08847e-09
2.60928e-06
5.60005e-09
2.60785e-06
6.08703e-09
2.6063e-06
6.55078e-09
2.60464e-06
6.99247e-09
2.60288e-06
7.41327e-09
2.60101e-06
7.81439e-09
2.59904e-06
8.19693e-09
2.59699e-06
8.56187e-09
2.59484e-06
8.91027e-09
2.59261e-06
9.24311e-09
2.5903e-06
9.56124e-09
2.58792e-06
9.86557e-09
2.58546e-06
1.01571e-08
2.58293e-06
1.04364e-08
2.58033e-06
1.07045e-08
2.57767e-06
1.09619e-08
2.57495e-06
1.12092e-08
2.57216e-06
1.14472e-08
2.56932e-06
1.16765e-08
2.56642e-06
1.18976e-08
2.56347e-06