/*--------------------------------*- C++ -*----------------------------------*\
  =========                 |
  \\      /  F ield         | OpenFOAM: The Open Source CFD Toolbox
   \\    /   O peration     | Website:  https://openfoam.org
    \\  /    A nd           | Version:  7
     \\/     M anipulation  |
\*---------------------------------------------------------------------------*/
FoamFile
{
    version     2.0;
    format      ascii;
    class       volScalarField;
    location    "0.005";
    object      s_0;
}
// * * * * * * * * * * * * * * * * * * * * * * * * * * * * * * * * * * * * * //

dimensions      [0 0 0 0 0 0 0];

internalField   nonuniform List<scalar> 
12225
(
1
1
1
1
0.999999
0.999988
0.999887
0.999236
0.996229
0.985672
0.954899
0.856163
0.742362
0.588207
0.520768
0.418004
0.399579
0.368301
1
1
1
1
1
0.999999
0.999992
0.999961
0.999809
0.999671
0.999571
0.999442
0.999207
0.998763
0.997917
0.996293
0.99327
0.985747
1
1
1
1
1
1
1
0.999998
0.999995
0.99999
0.999979
0.999955
0.999896
0.999752
0.999412
0.998633
0.996913
0.99318
1
1
1
1
1
1
1
1
0.999999
0.999997
0.999991
0.999974
0.999928
0.999808
0.999513
0.998825
0.997282
0.993934
1
1
1
1
1
1
1
1
0.999999
0.999998
0.999993
0.999977
0.999932
0.999814
0.999521
0.998837
0.997319
0.994084
1
1
1
1
1
1
1
1
0.999999
0.999998
0.999993
0.999979
0.999939
0.999837
0.999586
0.999014
0.997775
0.995185
1
1
1
1
1
1
1
1
1
0.999998
0.999994
0.999982
0.999949
0.999863
0.999655
0.999178
0.998121
0.995835
1
1
1
1
1
1
1
1
1
0.999998
0.999995
0.999984
0.999953
0.999875
0.999685
0.99924
0.998236
0.996025
1
1
1
1
1
1
1
1
1
0.999999
0.999996
0.999986
0.999959
0.999886
0.999705
0.999275
0.998296
0.996154
1
1
1
1
1
1
1
1
1
0.999999
0.999995
0.999985
0.999956
0.999881
0.9997
0.999284
0.998366
0.996391
1
1
1
1
1
1
1
1
1
0.999999
0.999996
0.999988
0.999964
0.999902
0.999749
0.999384
0.998545
0.996662
1
1
1
1
1
1
1
1
1
0.999999
0.999996
0.999987
0.999963
0.9999
0.99974
0.999356
0.998464
0.996447
1
1
1
1
1
1
1
1
1
0.999999
0.999996
0.999987
0.999962
0.999895
0.999728
0.999329
0.998407
0.996344
1
1
1
1
1
1
1
1
1
0.999999
0.999995
0.999985
0.999957
0.999882
0.9997
0.999277
0.998337
0.996304
1
1
1
1
1
1
1
1
1
0.999999
0.999996
0.999988
0.999965
0.999906
0.999759
0.999414
0.998632
0.99689
1
1
1
1
1
1
1
1
1
0.999999
0.999996
0.999989
0.999967
0.999911
0.999771
0.999439
0.998674
0.996951
1
1
1
1
1
1
1
1
1
0.999999
0.999997
0.999991
0.999973
0.999925
0.999806
0.99952
0.998858
0.997354
1
1
1
1
1
1
1
1
1
0.999999
0.999998
0.999992
0.999977
0.999937
0.999837
0.999592
0.999009
0.997644
1
1
1
1
1
1
1
1
1
0.999999
0.999997
0.999989
0.999967
0.999909
0.99976
0.999395
0.998533
0.996543
1
1
1
1
1
1
1
1
1
0.999999
0.999997
0.999991
0.999973
0.999926
0.999806
0.999516
0.998838
0.997284
1
1
1
1
1
1
1
1
1
0.999999
0.999997
0.999991
0.999973
0.999926
0.99981
0.999532
0.998887
0.997417
1
1
1
1
1
1
1
1
1
0.999999
0.999997
0.999992
0.999975
0.999932
0.999819
0.999545
0.998894
0.997389
1
1
1
1
1
1
1
1
1
0.999999
0.999998
0.999993
0.999979
0.999942
0.999849
0.999624
0.99909
0.997844
1
1
1
1
1
1
1
1
1
0.999999
0.999998
0.999993
0.99998
0.999945
0.999857
0.999646
0.999159
0.998061
1
1
1
1
1
1
1
1
1
1
0.999999
0.999996
0.999987
0.999965
0.999908
0.999773
0.999466
0.998788
1
1
1
1
1
1
1
1
1
1
0.999999
0.999996
0.999989
0.999971
0.999927
0.999822
0.999589
0.999076
1
1
1
1
1
1
1
1
1
1
0.999999
0.999997
0.999992
0.999978
0.999943
0.999861
0.999678
0.999279
1
1
1
1
1
1
1
1
1
1
0.999999
0.999998
0.999992
0.999976
0.999929
0.999798
0.999468
0.99878
1
1
1
1
1
1
1
1
1
0.999999
0.999997
0.999988
0.999946
0.999762
0.99905
0.996643
0.989216
0.971202
1
1
1
1
1
1
1
1
0.999999
0.999993
0.999964
0.99983
0.999225
0.996595
0.985767
0.944373
0.791619
0.527307
1.59681e-37
4.35669e-35
1.0275e-33
1.0895e-32
1.00082e-31
1.01082e-30
9.16049e-30
6.44519e-29
3.11739e-28
1.05537e-27
2.79704e-27
6.79598e-27
1.32273e-26
2.02082e-26
2.39404e-26
2.28641e-26
1.76637e-26
1.138e-26
6.35907e-27
3.13188e-27
1.37058e-27
5.35999e-28
1.88725e-28
6.0301e-29
1.76144e-29
4.73569e-30
1.17898e-30
2.73284e-31
5.927e-32
1.20807e-32
2.32336e-33
4.23124e-34
7.32073e-35
1.20683e-35
1.90061e-36
2.86633e-37
4.14845e-38
5.77322e-39
7.73909e-40
1.00091e-40
1.25075e-41
1.5121e-42
1.77073e-43
2.01075e-44
2.21634e-45
2.37346e-46
2.4715e-47
2.50442e-48
2.47133e-49
2.37639e-50
2.22809e-51
2.03807e-52
1.81973e-53
1.58674e-54
1.35181e-55
1.1257e-56
9.16632e-58
7.30128e-59
5.69097e-60
4.34209e-61
3.24394e-62
2.37374e-63
1.70176e-64
1.1956e-65
8.23373e-67
5.55948e-68
3.68123e-69
2.3909e-70
1.52344e-71
9.52504e-73
5.84466e-74
3.52026e-75
2.08152e-76
1.20849e-77
6.88998e-79
3.85803e-80
2.12195e-81
1.14651e-82
6.08613e-84
3.17441e-85
1.62698e-86
8.19467e-88
4.05641e-89
1.9735e-90
9.43712e-92
4.43568e-93
2.04932e-94
9.30657e-96
4.15426e-97
1.82265e-98
7.85963e-100
3.33079e-101
1.38699e-102
5.67468e-104
2.28063e-105
8.99944e-107
3.48611e-108
1.3252e-109
4.94144e-111
1.82038e-112
6.62518e-114
2.38207e-115
8.46104e-117
2.96892e-118
1.02913e-119
3.52396e-121
1.19201e-122
3.98302e-124
1.31472e-125
4.28687e-127
1.38083e-128
4.39371e-130
1.38109e-131
4.28858e-133
1.31555e-134
3.98668e-136
1.19351e-137
3.52983e-139
1.03133e-140
2.97688e-142
8.4888e-144
2.39141e-145
6.65561e-147
1.82999e-148
4.97097e-150
1.33403e-151
3.53692e-153
9.26451e-155
2.39751e-156
6.12972e-158
1.54835e-159
3.86408e-161
9.52746e-163
2.32095e-164
5.58622e-166
1.32843e-167
3.12126e-169
7.24605e-171
1.66211e-172
3.70382e-174
1.43021e-175
5.12915e-177
1.22777e-178
2.83708e-180
6.03344e-182
1.23901e-183
2.53141e-185
5.17346e-187
1.052e-188
2.11765e-190
4.21222e-192
8.27969e-194
1.60876e-195
3.08944e-197
5.82735e-199
1.41004e-200
4.10773e-202
1.2826e-203
2.1095e-205
3.65016e-207
6.46411e-209
1.13372e-210
1.95038e-212
3.30369e-214
5.53582e-216
9.18875e-218
1.50931e-219
2.44948e-221
3.92377e-223
6.1954e-225
1.01829e-226
2.79565e-228
7.49209e-230
1.03366e-231
1.49766e-233
2.20407e-235
3.20071e-237
4.52632e-239
6.2556e-241
8.11315e-243
2.88253e-35
8.01646e-33
1.86929e-31
2.12845e-30
2.19473e-29
2.45357e-28
2.38463e-27
1.75088e-26
8.65418e-26
3.0937e-25
8.87264e-25
2.30177e-24
4.69194e-24
7.35012e-24
8.74136e-24
8.3155e-24
6.34183e-24
4.02401e-24
2.20153e-24
1.06145e-24
4.55732e-25
1.75177e-25
6.07217e-26
1.91318e-26
5.52012e-27
1.46844e-27
3.62331e-28
8.33773e-29
1.79802e-29
3.64955e-30
6.99978e-31
1.2731e-31
2.2027e-32
3.63585e-33
5.74034e-34
8.68887e-35
1.26357e-35
1.76877e-36
2.38744e-37
3.11211e-38
3.92333e-39
4.78952e-40
5.66853e-41
6.51108e-42
7.26544e-43
7.88282e-44
8.32274e-45
8.5574e-46
8.57447e-47
8.37801e-48
7.98728e-49
7.43396e-50
6.75815e-51
6.00385e-52
5.2146e-53
4.42979e-54
3.68205e-55
2.99572e-56
2.38655e-57
1.86228e-58
1.42383e-59
1.06695e-60
7.8383e-62
5.64694e-63
3.99051e-64
2.76679e-65
1.8826e-66
1.2574e-67
8.24552e-69
5.30982e-70
3.35851e-71
2.08691e-72
1.27418e-73
7.64552e-75
4.50928e-76
2.6146e-77
1.49064e-78
8.35752e-80
4.60879e-81
2.50015e-82
1.33438e-83
7.00786e-85
3.62199e-86
1.84257e-87
9.22719e-89
4.54928e-90
2.2085e-91
1.05581e-92
4.97119e-94
2.30554e-95
1.05335e-96
4.74139e-98
2.10291e-99
9.19109e-101
3.959e-102
1.68082e-103
7.03423e-105
2.90212e-106
1.18047e-107
4.73432e-109
1.87429e-110
7.32813e-112
2.82968e-113
1.07914e-114
4.06456e-116
1.512e-117
5.55505e-119
2.01569e-120
7.22369e-122
2.55678e-123
8.9378e-125
3.08583e-126
1.05225e-127
3.54387e-129
1.17883e-130
3.87293e-132
1.25675e-133
4.02796e-135
1.27512e-136
3.98701e-138
1.23135e-139
3.75624e-141
1.1318e-142
3.36849e-144
9.90267e-146
2.87558e-147
8.24818e-149
2.33698e-150
6.54067e-152
1.80827e-153
4.93834e-155
1.33224e-156
3.55035e-158
9.34661e-160
2.43072e-161
6.24481e-163
1.58494e-164
3.97394e-166
9.84353e-168
2.40884e-169
5.82367e-171
1.391e-172
3.28248e-174
7.653e-176
1.76288e-177
4.01217e-179
9.02219e-181
2.0046e-182
4.4008e-184
9.5463e-186
2.04618e-187
4.33376e-189
9.07e-191
1.87576e-192
3.83341e-194
7.7417e-196
1.54503e-197
3.04716e-199
5.93905e-201
1.14395e-202
2.17756e-204
4.09647e-206
7.61599e-208
1.39933e-209
2.5409e-211
4.55954e-213
8.08555e-215
1.41688e-216
2.4534e-218
4.19734e-220
7.09413e-222
1.18431e-223
1.95242e-225
3.17735e-227
5.10203e-229
8.07751e-231
1.2593e-232
1.9303e-234
2.89638e-236
4.252e-238
2.88908e-33
6.45805e-31
1.50593e-29
1.86778e-28
2.18819e-27
2.69894e-26
2.80642e-25
2.15789e-24
1.10452e-23
4.21817e-23
1.32335e-22
3.66878e-22
7.83424e-22
1.26027e-21
1.50663e-21
1.42501e-21
1.0746e-21
6.71739e-22
3.5981e-22
1.69667e-22
7.14021e-23
2.69545e-23
9.19014e-24
2.85249e-24
8.12071e-25
2.13483e-25
5.21366e-26
1.18922e-26
2.54567e-27
5.13594e-28
9.80362e-29
1.77664e-29
3.06625e-30
5.05388e-31
7.97525e-32
1.20768e-32
1.7585e-33
2.4667e-34
3.33887e-35
4.36767e-36
5.52919e-37
6.78223e-38
8.06996e-39
9.324e-40
1.04705e-40
1.14378e-41
1.21634e-42
1.26016e-43
1.27271e-44
1.25383e-45
1.20556e-46
1.13192e-47
1.0383e-48
9.30914e-50
8.16133e-51
6.99922e-52
5.87407e-53
4.82595e-54
3.88263e-55
3.0599e-56
2.36297e-57
1.78855e-58
1.32726e-59
9.65908e-61
6.89523e-62
4.82946e-63
3.31959e-64
2.23976e-65
1.48368e-66
9.65143e-68
6.1665e-69
3.87047e-70
2.38696e-71
1.44664e-72
8.61758e-74
5.0465e-75
2.90566e-76
1.6452e-77
9.16169e-79
5.01859e-80
2.70458e-81
1.43414e-82
7.48365e-84
3.84351e-85
1.94308e-86
9.67066e-88
4.73893e-89
2.28674e-90
1.08672e-91
5.08663e-93
2.34536e-94
1.06537e-95
4.7682e-97
2.10289e-98
9.13965e-100
3.91509e-101
1.65308e-102
6.88058e-104
2.82345e-105
1.14236e-106
4.55887e-108
1.79651e-109
6.99073e-111
2.68622e-112
1.01927e-113
3.81919e-115
1.41315e-116
5.16344e-118
1.86308e-119
6.63853e-121
2.33594e-122
8.11724e-124
2.7856e-125
9.44054e-127
3.15973e-128
1.04444e-129
3.40964e-131
1.09932e-132
3.50058e-134
1.10093e-135
3.41973e-137
1.04915e-138
3.1791e-140
9.51474e-142
2.81268e-143
8.21261e-145
2.36855e-146
6.74733e-148
1.8986e-149
5.27707e-151
1.44882e-152
3.92924e-154
1.05263e-155
2.78563e-157
7.28214e-159
1.88056e-160
4.7975e-162
1.20906e-163
3.01019e-165
7.40385e-167
1.79907e-168
4.31886e-170
1.02431e-171
2.40015e-173
5.55647e-175
1.27093e-176
2.87219e-178
6.41329e-180
1.41492e-181
3.08443e-183
6.64382e-185
1.41406e-186
2.97394e-188
6.18043e-190
1.26922e-191
2.57567e-193
5.16521e-195
1.02362e-196
2.00467e-198
3.87981e-200
7.42069e-202
1.40265e-203
2.62013e-205
4.83688e-207
8.8242e-209
1.5909e-210
2.83437e-212
4.98997e-214
8.68036e-216
1.49189e-217
2.53304e-219
4.24791e-221
7.03445e-223
1.14989e-224
1.85449e-226
2.94903e-228
4.61681e-230
7.11302e-232
1.07322e-233
1.59006e-235
1.96954e-31
3.32689e-29
7.79973e-28
1.07483e-26
1.44474e-25
1.94269e-24
2.12344e-23
1.69002e-22
9.03164e-22
3.72358e-21
1.28521e-20
3.795e-20
8.45182e-20
1.39307e-19
1.6746e-19
1.57047e-19
1.17056e-19
7.2069e-20
3.77909e-20
1.74104e-20
7.17569e-21
2.65956e-21
8.9185e-22
2.7272e-22
7.66203e-23
1.9911e-23
4.81447e-24
1.08895e-24
2.31478e-25
4.64383e-26
8.82542e-27
1.59421e-27
2.74551e-28
4.52006e-29
7.1314e-30
1.08062e-30
1.5758e-31
2.21536e-32
3.00749e-33
3.94838e-34
5.01952e-35
6.18663e-36
7.40061e-37
8.60059e-38
9.71907e-39
1.06884e-39
1.14475e-40
1.19486e-41
1.21619e-42
1.20786e-43
1.17109e-44
1.10902e-45
1.02627e-46
9.28419e-48
8.21412e-49
7.11011e-50
6.02343e-51
4.99585e-52
4.05798e-53
3.22907e-54
2.51789e-55
1.92444e-56
1.4421e-57
1.05978e-58
7.63964e-60
5.40334e-61
3.75043e-62
2.55518e-63
1.70911e-64
1.12258e-65
7.24165e-67
4.58898e-68
2.85712e-69
1.74803e-70
1.05112e-71
6.21307e-73
3.61061e-74
2.0632e-75
1.15946e-76
6.40888e-78
3.48487e-79
1.86435e-80
9.81444e-82
5.0846e-83
2.59274e-84
1.30144e-85
6.43149e-87
3.12947e-88
1.49953e-89
7.0764e-91
3.28924e-92
1.50609e-93
6.79407e-95
3.01979e-96
1.32263e-97
5.70894e-99
2.42872e-100
1.01847e-101
4.21022e-103
1.71589e-104
6.89531e-106
2.73574e-107
1.07169e-108
4.14514e-110
1.58304e-111
5.96938e-113
2.22258e-114
8.17111e-116
2.96623e-117
1.06325e-118
3.7634e-120
1.31536e-121
4.53984e-123
1.54729e-124
5.2077e-126
1.7309e-127
5.68146e-129
1.84168e-130
5.89581e-132
1.86404e-133
5.82043e-135
1.79494e-136
5.46698e-138
1.64457e-139
4.88621e-141
1.43388e-142
4.15603e-144
1.18981e-145
3.36446e-147
9.3972e-149
2.59258e-150
7.06517e-152
1.90185e-153
5.05708e-155
1.32831e-156
3.44652e-158
8.83388e-160
2.23675e-161
5.59482e-163
1.38249e-164
3.37486e-166
8.13901e-168
1.93918e-169
4.56458e-171
1.06152e-172
2.43899e-174
5.53668e-176
1.24181e-177
2.75194e-179
6.02565e-181
1.30365e-182
2.78685e-184
5.88672e-186
1.2287e-187
2.5342e-189
5.16491e-191
1.04021e-192
2.07024e-194
4.07162e-196
7.91348e-198
1.51993e-199
2.88498e-201
5.41156e-203
1.00314e-204
1.83764e-206
3.32667e-208
5.95108e-210
1.05197e-211
1.83739e-213
3.17071e-215
5.40521e-217
9.10122e-219
1.51324e-220
2.48376e-222
4.02216e-224
6.42355e-226
1.01021e-227
1.56424e-229
2.37521e-231
3.54785e-233
1.03608e-29
1.30363e-27
3.10851e-26
4.87425e-25
7.50214e-24
1.07243e-22
1.20097e-21
9.72178e-21
5.45412e-20
2.44311e-19
9.25382e-19
2.88936e-18
6.65716e-18
1.11766e-17
1.35124e-17
1.2525e-17
9.21046e-18
5.58031e-18
2.86422e-18
1.28774e-18
5.19141e-19
1.8883e-19
6.22726e-20
1.87622e-20
5.20324e-21
1.33708e-21
3.20244e-22
7.18614e-23
1.51773e-23
3.02933e-24
5.73505e-25
1.03319e-25
1.77642e-26
2.92267e-27
4.61223e-28
6.99633e-29
1.0221e-29
1.4406e-30
1.962e-31
2.58569e-32
3.30169e-33
4.0896e-34
4.91887e-35
5.75046e-36
6.53982e-37
7.24094e-38
7.81087e-39
8.21413e-40
8.42634e-41
8.43666e-42
8.2485e-43
7.87872e-44
7.35529e-45
6.71405e-46
5.99479e-47
5.23748e-48
4.47894e-49
3.75034e-50
3.07566e-51
2.47118e-52
1.94573e-53
1.50172e-54
1.1364e-55
8.43356e-57
6.13942e-58
4.38507e-59
3.07361e-60
2.11463e-61
1.42829e-62
9.47282e-64
6.17023e-65
3.94785e-66
2.4816e-67
1.5328e-68
9.30459e-70
5.55178e-71
3.25655e-72
1.87819e-73
1.06522e-74
5.94186e-76
3.26023e-77
1.75985e-78
9.34682e-80
4.88504e-81
2.51273e-82
1.27219e-83
6.34069e-85
3.1114e-86
1.50335e-87
7.15319e-89
3.35215e-90
1.54733e-91
7.03592e-93
3.15202e-94
1.39133e-95
6.05189e-97
2.59427e-98
1.09609e-99
4.56479e-101
1.87408e-102
7.58558e-104
3.03075e-105
1.19547e-106
4.65538e-108
1.78981e-109
6.79361e-111
2.54589e-112
9.41953e-114
3.44095e-115
1.24106e-116
4.41962e-118
1.55403e-119
5.39547e-121
1.8497e-122
6.26159e-124
2.0931e-125
6.90918e-127
2.25218e-128
7.24983e-130
2.30467e-131
7.23531e-133
2.24325e-134
6.86877e-136
2.07716e-137
6.20376e-139
1.82997e-140
5.3314e-142
1.53411e-143
4.36008e-145
1.22395e-146
3.39367e-148
9.29437e-150
2.51432e-151
6.7186e-153
1.77338e-154
4.62375e-156
1.19087e-157
3.02985e-159
7.61497e-161
1.89066e-162
4.63732e-164
1.12365e-165
2.68979e-167
6.36109e-169
1.48621e-170
3.43062e-172
7.82373e-174
1.76285e-175
3.92446e-177
8.63216e-179
1.87603e-180
4.02856e-182
8.54784e-184
1.79212e-185
3.7127e-187
7.60031e-189
1.53744e-190
3.07326e-192
6.0707e-194
1.18501e-195
2.28588e-197
4.3575e-199
8.2087e-201
1.52814e-202
2.81128e-204
5.1108e-206
9.18132e-208
1.62981e-209
2.85864e-211
4.95378e-213
8.48044e-215
1.43397e-216
2.3944e-218
3.94713e-220
6.42036e-222
1.03015e-223
1.62826e-225
2.53578e-227
3.87962e-229
5.85228e-231
4.56612e-28
4.39264e-26
1.10799e-24
2.00967e-23
3.37296e-22
4.88571e-21
5.46784e-20
4.44865e-19
2.63833e-18
1.28849e-17
5.29875e-17
1.7289e-16
4.0878e-16
6.92081e-16
8.40587e-16
7.6841e-16
5.55933e-16
3.30947e-16
1.66293e-16
7.29042e-17
2.87068e-17
1.02432e-17
3.3221e-18
9.86441e-19
2.7015e-19
6.86848e-20
1.63054e-20
3.63253e-21
7.62826e-22
1.51599e-22
2.86117e-23
5.14443e-24
8.83693e-25
1.45392e-25
2.29639e-26
3.48914e-27
5.1094e-28
7.22324e-29
9.87343e-30
1.3067e-30
1.67648e-31
2.08749e-32
2.52518e-33
2.97031e-34
3.4003e-35
3.79108e-36
4.11944e-37
4.36528e-38
4.5137e-39
4.55645e-40
4.49265e-41
4.32865e-42
4.07713e-43
3.75557e-44
3.38432e-45
2.9846e-46
2.57667e-47
2.1783e-48
1.8038e-49
1.46347e-50
1.16365e-51
9.06989e-53
6.93157e-54
5.19526e-55
3.81966e-56
2.75533e-57
1.95048e-58
1.35523e-59
9.24428e-61
6.19154e-62
4.07255e-63
2.6312e-64
1.67005e-65
1.04152e-66
6.38318e-68
3.84505e-69
2.27683e-70
1.32552e-71
7.58801e-73
4.27189e-74
2.3655e-75
1.28852e-76
6.90536e-78
3.64134e-79
1.88961e-80
9.65105e-82
4.85197e-83
2.40136e-84
1.17015e-85
5.61466e-87
2.65307e-88
1.23472e-89
5.66018e-91
2.55611e-92
1.13727e-93
4.98567e-95
2.15381e-96
9.16978e-98
3.84785e-99
1.59158e-100
6.48985e-102
2.61184e-103
1.0376e-104
4.06899e-106
1.57518e-107
6.0195e-109
2.27086e-110
8.45715e-112
3.10937e-113
1.12861e-114
4.04439e-116
1.43089e-117
4.99821e-119
1.72381e-120
5.87008e-122
1.97373e-123
6.55285e-125
2.14825e-126
6.95437e-128
2.22312e-129
7.01789e-131
2.18776e-132
6.73522e-134
2.04772e-135
6.14842e-137
1.82322e-138
5.33958e-140
1.54445e-141
4.41212e-143
1.2449e-144
3.46933e-146
9.54961e-148
2.59635e-149
6.97242e-151
1.84951e-152
4.84605e-154
1.25425e-155
3.20669e-157
8.09858e-159
2.02045e-160
4.97949e-162
1.21234e-163
2.91591e-165
6.92853e-167
1.62643e-168
3.7719e-170
8.64227e-172
1.95634e-173
4.37538e-175
9.66835e-177
2.11087e-178
4.55353e-180
9.70564e-182
2.04406e-183
4.25371e-185
8.74683e-187
1.77726e-188
3.56841e-190
7.07991e-192
1.38809e-193
2.68934e-195
5.14894e-197
9.74173e-199
1.82138e-200
3.36518e-202
6.14403e-204
1.10848e-205
1.97612e-207
3.48089e-209
6.05795e-211
1.04153e-212
1.76878e-214
2.96643e-216
4.91201e-218
8.027e-220
1.29419e-221
2.05672e-223
3.222e-225
4.96733e-227
7.55439e-229
1.81761e-26
1.43527e-24
3.96336e-23
8.1398e-22
1.40887e-20
1.95136e-19
2.08144e-18
1.706e-17
1.07876e-16
5.72702e-16
2.51156e-15
8.44606e-15
2.02797e-14
3.42509e-14
4.16886e-14
3.75742e-14
2.66434e-14
1.55506e-14
7.65286e-15
3.27162e-15
1.25637e-15
4.39621e-16
1.40251e-16
4.10614e-17
1.11119e-17
2.79734e-18
6.58765e-19
1.45835e-19
3.04791e-20
6.03666e-21
1.13687e-21
2.04197e-22
3.50746e-23
5.77559e-24
9.1373e-25
1.39162e-25
2.04404e-26
2.90022e-27
3.98098e-28
5.29354e-29
6.82693e-30
8.54875e-31
1.04042e-31
1.23176e-32
1.41975e-33
1.59434e-34
1.7455e-35
1.86419e-36
1.94325e-37
1.97813e-38
1.96727e-39
1.91224e-40
1.81743e-41
1.68954e-42
1.53681e-43
1.3682e-44
1.19259e-45
1.01803e-46
8.51297e-48
6.97522e-49
5.60142e-50
4.40965e-51
3.40385e-52
2.57687e-53
1.91364e-54
1.39431e-55
9.96957e-57
6.99664e-58
4.82036e-59
3.26079e-60
2.16617e-61
1.41339e-62
9.05947e-64
5.70535e-65
3.53075e-66
2.14745e-67
1.28385e-68
7.54577e-70
4.36064e-71
2.47808e-72
1.38502e-73
7.61436e-75
4.11812e-76
2.19135e-77
1.14742e-78
5.91271e-80
2.99886e-81
1.49721e-82
7.35896e-84
3.56129e-85
1.69708e-86
7.9644e-88
3.68133e-89
1.67612e-90
7.51791e-92
3.32222e-93
1.44658e-94
6.20703e-96
2.62478e-97
1.09399e-98
4.49465e-100
1.82245e-101
7.29334e-103
2.8808e-104
1.12312e-105
4.32191e-107
1.64162e-108
6.15494e-110
2.27795e-111
8.32227e-113
3.00145e-114
1.06863e-115
3.75609e-117
1.30339e-118
4.46535e-120
1.5104e-121
5.04422e-123
1.66332e-124
5.41561e-126
1.74109e-127
5.52721e-129
1.73267e-130
5.3636e-132
1.63961e-133
4.94969e-135
1.47563e-136
4.34457e-138
1.26327e-139
3.62772e-141
1.02889e-142
2.88211e-144
7.97382e-146
2.17893e-147
5.88101e-149
1.56783e-150
4.12848e-152
1.07383e-153
2.75895e-155
7.00199e-157
1.7554e-158
4.34726e-160
1.06352e-161
2.57027e-163
6.13648e-165
1.44735e-166
3.37251e-168
7.76361e-170
1.76568e-171
3.96742e-173
8.80763e-175
1.93184e-176
4.18654e-178
8.9643e-180
1.89655e-181
3.96464e-183
8.18928e-185
1.67146e-186
3.371e-188
6.71807e-190
1.32299e-191
2.57454e-193
4.95086e-195
9.40803e-197
1.76667e-198
3.27833e-200
6.01148e-202
1.08927e-203
1.9503e-205
3.45032e-207
6.0309e-209
1.04142e-210
1.77642e-212
2.99264e-214
4.97822e-216
8.17419e-218
1.32458e-219
2.11674e-221
3.3364e-223
5.18214e-225
7.9468e-227
7.165e-25
5.13562e-23
1.56619e-21
3.39514e-20
5.64244e-19
7.19675e-18
7.13788e-17
5.71749e-16
3.87463e-15
2.20813e-14
1.01002e-13
3.44139e-13
8.27986e-13
1.37987e-12
1.67832e-12
1.49282e-12
1.03479e-12
5.90547e-13
2.84772e-13
1.18863e-13
4.44647e-14
1.52525e-14
4.78892e-15
1.38343e-15
3.70268e-16
9.23864e-17
2.16058e-17
4.75811e-18
9.90796e-19
1.95789e-19
3.68334e-20
6.61594e-21
1.13752e-21
1.8765e-22
2.97635e-23
4.54767e-24
6.70531e-25
9.55561e-26
1.31804e-26
1.76195e-27
2.28542e-28
2.87944e-29
3.52726e-30
4.2047e-31
4.88136e-32
5.52286e-33
6.09376e-34
6.56081e-35
6.8962e-36
7.0803e-37
7.10353e-38
6.96712e-39
6.68266e-40
6.27066e-41
5.75815e-42
5.17594e-43
4.5557e-44
3.92731e-45
3.3168e-46
2.74493e-47
2.22655e-48
1.77059e-49
1.38063e-50
1.05585e-51
7.92098e-53
5.83025e-54
4.21123e-55
2.98553e-56
2.07779e-57
1.41979e-58
9.52699e-60
6.27872e-61
4.06479e-62
2.58536e-63
1.6158e-64
9.92427e-66
5.99127e-67
3.55556e-68
2.07456e-69
1.19023e-70
6.71555e-72
3.72677e-73
2.03442e-74
1.09259e-75
5.77352e-77
3.0022e-78
1.53641e-79
7.73915e-81
3.8375e-82
1.87336e-83
9.00456e-85
4.26203e-86
1.9867e-87
9.12131e-89
4.12511e-90
1.83785e-91
8.06732e-93
3.48926e-94
1.48718e-95
6.24696e-97
2.58661e-98
1.05688e-99
4.2615e-101
1.69573e-102
6.65915e-104
2.58085e-105
9.87187e-107
3.72684e-108
1.38868e-109
5.10731e-111
1.85409e-112
6.64396e-114
2.35017e-115
8.20655e-117
2.82895e-118
9.62739e-120
3.23462e-121
1.07296e-122
3.51398e-124
1.13628e-125
3.62791e-127
1.14372e-128
3.56033e-130
1.0944e-131
3.32195e-133
9.95741e-135
2.94747e-136
8.61611e-138
2.48738e-139
7.09173e-141
1.99687e-142
5.55323e-144
1.52527e-145
4.13776e-147
1.10868e-148
2.93414e-150
7.67e-152
1.98043e-153
5.05104e-155
1.27253e-156
3.16686e-158
7.7852e-160
1.89061e-161
4.53555e-163
1.07489e-164
2.51658e-166
5.82074e-168
1.33007e-169
3.00268e-171
6.69713e-173
1.47578e-174
3.21302e-176
6.91155e-178
1.46897e-179
3.08486e-181
6.40104e-183
1.31239e-184
2.65879e-186
5.3225e-188
1.05285e-189
2.05799e-191
3.97509e-193
7.58721e-195
1.43104e-196
2.66719e-198
4.91231e-200
8.94008e-202
1.60772e-203
2.85676e-205
5.01545e-207
8.69929e-209
1.49057e-210
2.52261e-212
4.21608e-214
6.95679e-216
1.13314e-217
1.82112e-219
2.88828e-221
4.5189e-223
6.98598e-225
3.12036e-23
2.19313e-21
7.00055e-20
1.47399e-18
2.24249e-17
2.5797e-16
2.35549e-15
1.81094e-14
1.25227e-13
7.49935e-13
3.4905e-12
1.18171e-11
2.80539e-11
4.56388e-11
5.52359e-11
4.85476e-11
3.29037e-11
1.83211e-11
8.66133e-12
3.53938e-12
1.28972e-12
4.33473e-13
1.34067e-13
3.82567e-14
1.01389e-14
2.51052e-15
5.83797e-16
1.28064e-16
2.66041e-17
5.25191e-18
9.88216e-19
1.77719e-19
3.06212e-20
5.06615e-21
8.06444e-22
1.23738e-22
1.8331e-23
2.62593e-24
3.64248e-25
4.89864e-26
6.39462e-27
8.11089e-28
1.00057e-28
1.20149e-29
1.40547e-30
1.60273e-31
1.78281e-32
1.93555e-33
2.05203e-34
2.12542e-35
2.15166e-36
2.1298e-37
2.06203e-38
1.95338e-39
1.81111e-40
1.64397e-41
1.46133e-42
1.27239e-43
1.08546e-44
9.0745e-46
7.43609e-47
5.97406e-48
4.70636e-49
3.63642e-50
2.75625e-51
2.04973e-52
1.49584e-53
1.07142e-54
7.53346e-56
5.20064e-57
3.52547e-58
2.34717e-59
1.53498e-60
9.8618e-62
6.22544e-63
3.86194e-64
2.35463e-65
1.41118e-66
8.31461e-68
4.8168e-69
2.74403e-70
1.5374e-71
8.47246e-73
4.59313e-74
2.44983e-75
1.28572e-76
6.64027e-78
3.37527e-79
1.68874e-80
8.31757e-82
4.03328e-83
1.92573e-84
9.0543e-86
4.19259e-87
1.91216e-88
8.59057e-90
3.8021e-91
1.65794e-92
7.12365e-94
3.01625e-95
1.25895e-96
5.1846e-98
2.1067e-99
8.44664e-101
3.34176e-102
1.30464e-103
5.02623e-105
1.91094e-106
7.16996e-108
2.65503e-109
9.70335e-111
3.50016e-112
1.24619e-113
4.37955e-115
1.51928e-116
5.20262e-118
1.75874e-119
5.86932e-121
1.93374e-122
6.2899e-124
2.01995e-125
6.40472e-127
2.00511e-128
6.19818e-130
1.89187e-131
5.70209e-133
1.69708e-134
4.98778e-136
1.44764e-137
4.14928e-139
1.1745e-140
3.28334e-142
9.06499e-144
2.47183e-145
6.65697e-147
1.77074e-148
4.65219e-150
1.20725e-151
3.09443e-153
7.8346e-155
1.95936e-156
4.84041e-158
1.18121e-159
2.84746e-161
6.78085e-163
1.59519e-164
3.70725e-166
8.51157e-168
1.93061e-169
4.32629e-171
9.5781e-173
2.09505e-174
4.52762e-176
9.66746e-178
2.03953e-179
4.2514e-181
8.75635e-183
1.78202e-184
3.58349e-186
7.12052e-188
1.39809e-189
2.71255e-191
5.20052e-193
9.85245e-195
1.84447e-196
3.41212e-198
6.23735e-200
1.12666e-201
2.01087e-203
3.54615e-205
6.17855e-207
1.0635e-208
1.80823e-210
3.03662e-212
5.03571e-214
8.24553e-216
1.33279e-217
2.12697e-219
3.35153e-221
5.22135e-223
1.67698e-21
1.1413e-19
3.46373e-18
6.62608e-17
9.02144e-16
9.38094e-15
7.92079e-14
5.76294e-13
3.76885e-12
2.2502e-11
1.03896e-10
3.42131e-10
7.87322e-10
1.23767e-09
1.4832e-09
1.29195e-09
8.5887e-10
4.66291e-10
2.16219e-10
8.68488e-11
3.09046e-11
1.01685e-11
3.1023e-12
8.75773e-13
2.30182e-13
5.66495e-14
1.31189e-14
2.87088e-15
5.95864e-16
1.17679e-16
2.21774e-17
3.99849e-18
6.91283e-19
1.14841e-19
1.83674e-20
2.83309e-21
4.22114e-22
6.08398e-23
8.49408e-24
1.15013e-24
1.51204e-25
1.93202e-26
2.40155e-27
2.90649e-28
3.42748e-29
3.94103e-30
4.42123e-31
4.84193e-32
5.17912e-33
5.41323e-34
5.53094e-35
5.52648e-36
5.40202e-37
5.16725e-38
4.83821e-39
4.43559e-40
3.98262e-41
3.50302e-42
3.01904e-43
2.55001e-44
2.1113e-45
1.71388e-46
1.36431e-47
1.0652e-48
8.15847e-50
6.13088e-51
4.52111e-52
3.27226e-53
2.32488e-54
1.6217e-55
1.11078e-56
7.4719e-58
4.93684e-59
3.20438e-60
2.04351e-61
1.28058e-62
7.88665e-64
4.77413e-65
2.84098e-66
1.66215e-67
9.56213e-69
5.40975e-70
3.01016e-71
1.64758e-72
8.8715e-74
4.69996e-75
2.45012e-76
1.25697e-77
6.34686e-79
3.15453e-80
1.54347e-81
7.43534e-83
3.52684e-84
1.6474e-85
7.57854e-87
3.43392e-88
1.5327e-89
6.73951e-91
2.91975e-92
1.24639e-93
5.24523e-95
2.17757e-96
8.91851e-98
3.60367e-99
1.43663e-100
5.6508e-102
2.19309e-103
8.39843e-105
3.17362e-106
1.18343e-107
4.35491e-109
1.58155e-110
5.66852e-112
2.0052e-113
7.00109e-115
2.41273e-116
8.20738e-118
2.75594e-119
9.13521e-121
2.9893e-122
9.65686e-124
3.07988e-125
9.69792e-127
3.01497e-128
9.25469e-130
2.80497e-131
8.39452e-133
2.48072e-134
7.23909e-136
2.08607e-137
5.93639e-139
1.66831e-140
4.63023e-142
1.26914e-143
3.43565e-145
9.18563e-147
2.42561e-148
6.32636e-150
1.62973e-151
4.14686e-153
1.04225e-154
2.58748e-156
6.34529e-158
1.53709e-159
3.67816e-161
8.69469e-163
2.03038e-164
4.68393e-166
1.06748e-167
2.40345e-169
5.34619e-171
1.17489e-172
2.55092e-174
5.47215e-176
1.15981e-177
2.42877e-179
5.0254e-181
1.02741e-182
2.07546e-184
4.14273e-186
8.1709e-188
1.59246e-189
3.06681e-191
5.83616e-193
1.09747e-194
2.03932e-196
3.74455e-198
6.79408e-200
1.21807e-201
2.15777e-203
3.7767e-205
6.53083e-207
1.11567e-208
1.8827e-210
3.13797e-212
5.1656e-214
8.39768e-216
1.3485e-217
2.13958e-219
3.35812e-221
1.11178e-19
6.84219e-18
1.84398e-16
3.11132e-15
3.77156e-14
3.55927e-13
2.77573e-12
1.86896e-11
1.11569e-10
5.9195e-10
2.64435e-09
8.27463e-09
1.80874e-08
2.72359e-08
3.21437e-08
2.78753e-08
1.83394e-08
9.72691e-09
4.43062e-09
1.75287e-09
6.13761e-10
1.9761e-10
5.95769e-11
1.66719e-11
4.35417e-12
1.06706e-12
2.46528e-13
5.39106e-14
1.11975e-14
2.21581e-15
4.1886e-16
7.58187e-17
1.31703e-17
2.19979e-18
3.53926e-19
5.49427e-20
8.24199e-21
1.19643e-21
1.68281e-22
2.29612e-23
3.04253e-24
3.91914e-25
4.91202e-26
5.99519e-27
7.13096e-28
8.27163e-29
9.36271e-30
1.03472e-30
1.11705e-31
1.17855e-32
1.21571e-33
1.22653e-34
1.2107e-35
1.16963e-36
1.10619e-37
1.02447e-38
9.29302e-40
8.2586e-41
7.19186e-42
6.13831e-43
5.13586e-44
4.21325e-45
3.38952e-46
2.67455e-47
2.07029e-48
1.57234e-49
1.17185e-50
8.57175e-52
6.15475e-53
4.33869e-54
3.00316e-55
2.04142e-56
1.36295e-57
8.93897e-59
5.75983e-60
3.64676e-61
2.26901e-62
1.38757e-63
8.34103e-65
4.92927e-66
2.86418e-67
1.63653e-68
9.19615e-70
5.08276e-71
2.76347e-72
1.47816e-73
7.77945e-75
4.0289e-76
2.05344e-77
1.03011e-78
5.0867e-80
2.47279e-81
1.18354e-82
5.57788e-84
2.58874e-85
1.18328e-86
5.3273e-88
2.36261e-89
1.03224e-90
4.44348e-92
1.88578e-93
7.89379e-95
3.25933e-96
1.32751e-97
5.33377e-99
2.11414e-100
8.26718e-102
3.18948e-103
1.21406e-104
4.55971e-106
1.68978e-107
6.17925e-109
2.22985e-110
7.94089e-112
2.79084e-113
9.68035e-115
3.31404e-116
1.11983e-117
3.73502e-119
1.2297e-120
3.99654e-122
1.28223e-123
4.06129e-125
1.26996e-126
3.92068e-128
1.19507e-129
3.59664e-131
1.06878e-132
3.13606e-134
9.08642e-136
2.59973e-137
7.34518e-139
2.0494e-140
5.64696e-142
1.53665e-143
4.12971e-145
1.09612e-146
2.87346e-148
7.43986e-150
1.90261e-151
4.80584e-153
1.19904e-154
2.95495e-156
7.19334e-158
1.72975e-159
4.10881e-161
9.64136e-163
2.23491e-164
5.11785e-166
1.15779e-167
2.58761e-169
5.71348e-171
1.24636e-172
2.68618e-174
5.71984e-176
1.20337e-177
2.50142e-179
5.13756e-181
1.0426e-182
2.0906e-184
4.14217e-186
8.10949e-188
1.56882e-189
2.99897e-191
5.6649e-193
1.05739e-194
1.95031e-196
3.55462e-198
6.40175e-200
1.13923e-201
2.00317e-203
3.48019e-205
5.97372e-207
1.01303e-208
1.69711e-210
2.80876e-212
4.59247e-214
7.42015e-216
1.18522e-217
1.87366e-219
8.1308e-18
4.30951e-16
1.00934e-14
1.50263e-13
1.63156e-12
1.39515e-11
9.87275e-11
5.9603e-10
3.11401e-09
1.4122e-08
5.62918e-08
1.63499e-07
3.32362e-07
4.76585e-07
5.50988e-07
4.78736e-07
3.16545e-07
1.65483e-07
7.42086e-08
2.90027e-08
1.00483e-08
3.18406e-09
9.50227e-10
2.64274e-10
6.8746e-11
1.6813e-11
3.88307e-12
8.50151e-13
1.77024e-13
3.51585e-14
6.677e-15
1.21525e-15
2.12406e-16
3.57179e-17
5.78844e-18
9.05468e-19
1.36914e-19
2.00388e-20
2.84237e-21
3.9118e-22
5.22901e-23
6.79571e-24
8.59438e-25
1.05856e-25
1.27076e-26
1.48784e-27
1.70005e-28
1.89681e-29
2.06758e-30
2.20279e-31
2.29475e-32
2.33836e-33
2.33156e-34
2.27547e-35
2.17426e-36
2.03457e-37
1.86493e-38
1.67484e-39
1.47399e-40
1.27149e-41
1.07526e-42
8.91586e-44
7.25009e-45
5.78262e-46
4.52456e-47
3.4735e-48
2.61675e-49
1.93477e-50
1.4042e-51
1.00052e-52
6.99975e-54
4.80903e-55
3.24498e-56
2.15082e-57
1.40053e-58
8.9605e-60
5.63354e-61
3.48092e-62
2.1141e-63
1.2622e-64
7.40897e-66
4.27626e-67
2.42716e-68
1.35491e-69
7.43967e-71
4.01859e-72
2.13561e-73
1.11672e-74
5.74632e-76
2.91008e-77
1.45056e-78
7.11747e-80
3.43814e-81
1.63521e-82
7.65803e-84
3.53184e-85
1.60423e-86
7.1772e-88
3.16309e-89
1.37334e-90
5.87893e-92
2.48187e-93
1.03333e-94
4.24331e-96
1.71865e-97
6.86612e-99
2.70578e-100
1.05184e-101
4.03374e-103
1.5261e-104
5.69636e-106
2.09784e-107
7.62311e-109
2.73335e-110
9.67124e-112
3.37688e-113
1.16363e-114
3.95731e-116
1.32829e-117
4.40056e-119
1.43902e-120
4.64502e-122
1.48009e-123
4.65567e-125
1.44574e-126
4.43228e-128
1.34155e-129
4.00912e-131
1.18294e-132
3.44642e-134
9.91458e-136
2.81642e-137
7.90038e-139
2.18847e-140
5.9867e-142
1.61734e-143
4.31509e-145
1.13702e-146
2.95901e-148
7.60561e-150
1.93082e-151
4.84151e-153
1.19911e-154
2.93353e-156
7.08891e-158
1.69215e-159
3.99002e-161
9.29392e-163
2.13855e-164
4.86123e-166
1.09166e-167