/*--------------------------------*- C++ -*----------------------------------*\
  =========                 |
  \\      /  F ield         | OpenFOAM: The Open Source CFD Toolbox
   \\    /   O peration     | Website:  https://openfoam.org
    \\  /    A nd           | Version:  7
     \\/     M anipulation  |
\*---------------------------------------------------------------------------*/
FoamFile
{
    version     2.0;
    format      ascii;
    class       volVectorField;
    location    "0.005";
    object      U;
}
// * * * * * * * * * * * * * * * * * * * * * * * * * * * * * * * * * * * * * //

dimensions      [0 1 -1 0 0 0 0];

internalField   nonuniform List<vector> 
12225
(
(4.76002 0.185398 0)
(4.12562 0.113482 0)
(3.68378 0.0959479 0)
(3.35118 0.0786633 0)
(3.06158 0.0659429 0)
(2.79127 0.0584217 0)
(2.55172 0.0466076 0)
(2.36828 0.0282959 0)
(2.27033 0.00999288 0)
(2.22736 -0.0021963 0)
(2.27432 -0.0144647 0)
(2.32315 -0.0166512 0)
(2.45309 -0.0248114 0)
(2.51536 -0.0150082 0)
(2.70166 -0.0339494 0)
(2.74657 -0.00627791 0)
(3.00242 -0.0718443 0)
(3.0633 -0.0152358 0)
(5.01493 0.123471 0)
(4.88281 0.0764856 0)
(4.74807 0.0787853 0)
(4.6681 0.0754749 0)
(4.58619 0.0720827 0)
(4.49868 0.0674483 0)
(4.42471 0.0619689 0)
(4.37214 0.0479285 0)
(4.33636 0.0289517 0)
(4.31396 0.00177887 0)
(4.31959 -0.0180969 0)
(4.34594 -0.0393162 0)
(4.4042 -0.0458199 0)
(4.46304 -0.0633012 0)
(4.55654 -0.0649021 0)
(4.63266 -0.0858288 0)
(4.76072 -0.0967219 0)
(4.85903 -0.150666 0)
(5.06757 0.16678 0)
(4.8857 0.136498 0)
(4.78518 0.12623 0)
(4.7611 0.115534 0)
(4.75373 0.107236 0)
(4.74999 0.0962242 0)
(4.75547 0.0805392 0)
(4.76423 0.0599701 0)
(4.76566 0.0334912 0)
(4.76327 0.00514817 0)
(4.77012 -0.0220835 0)
(4.7949 -0.0422828 0)
(4.83494 -0.0609158 0)
(4.88441 -0.0716277 0)
(4.93336 -0.0885036 0)
(4.98171 -0.100919 0)
(5.03107 -0.135911 0)
(5.0801 -0.183076 0)
(4.88744 0.237963 0)
(4.87934 0.143367 0)
(4.83936 0.112495 0)
(4.80058 0.101449 0)
(4.78272 0.0880885 0)
(4.78344 0.0720786 0)
(4.79041 0.0591306 0)
(4.79496 0.0457141 0)
(4.79731 0.0281246 0)
(4.80473 0.000428071 0)
(4.82455 -0.0335886 0)
(4.85755 -0.0645367 0)
(4.89894 -0.0856382 0)
(4.94115 -0.100192 0)
(4.97837 -0.111664 0)
(5.01222 -0.126975 0)
(5.04702 -0.155581 0)
(5.08303 -0.202958 0)
(4.86544 0.215658 0)
(4.88813 0.120564 0)
(4.83581 0.113997 0)
(4.79718 0.12083 0)
(4.78707 0.108982 0)
(4.79745 0.0883579 0)
(4.81589 0.0696965 0)
(4.83594 0.0518494 0)
(4.85652 0.0263049 0)
(4.8776 -0.00620379 0)
(4.90062 -0.0414514 0)
(4.9249 -0.0715541 0)
(4.94737 -0.0923644 0)
(4.96654 -0.105721 0)
(4.98367 -0.117884 0)
(5.0037 -0.13629 0)
(5.03083 -0.167805 0)
(5.0641 -0.218309 0)
(4.97922 0.256491 0)
(4.90497 0.154524 0)
(4.79536 0.140047 0)
(4.76051 0.127978 0)
(4.78162 0.0982778 0)
(4.81554 0.0687789 0)
(4.83977 0.0516748 0)
(4.85515 0.0400296 0)
(4.87231 0.0207536 0)
(4.89595 -0.0127279 0)
(4.92221 -0.0502519 0)
(4.94732 -0.0821816 0)
(4.96867 -0.103847 0)
(4.98582 -0.117625 0)
(5.00172 -0.131041 0)
(5.02154 -0.152023 0)
(5.04968 -0.187668 0)
(5.0845 -0.241941 0)
(4.97318 0.231851 0)
(4.86498 0.159527 0)
(4.82749 0.135399 0)
(4.85154 0.117633 0)
(4.87575 0.0912607 0)
(4.87675 0.0671441 0)
(4.86865 0.0502065 0)
(4.8717 0.0319431 0)
(4.88805 0.00330088 0)
(4.90879 -0.0318574 0)
(4.92846 -0.0676071 0)
(4.94595 -0.0949138 0)
(4.96378 -0.111777 0)
(4.98505 -0.122781 0)
(5.01117 -0.13654 0)
(5.04286 -0.161016 0)
(5.07876 -0.20093 0)
(5.11443 -0.258253 0)
(5.02314 0.266862 0)
(4.96634 0.192594 0)
(4.90817 0.14072 0)
(4.88844 0.109753 0)
(4.89496 0.0902651 0)
(4.90459 0.0754514 0)
(4.91096 0.0601334 0)
(4.91602 0.0404516 0)
(4.92275 0.0121863 0)
(4.92961 -0.0250674 0)
(4.9365 -0.0631639 0)
(4.95053 -0.0963175 0)
(4.97432 -0.122425 0)
(5.00511 -0.142985 0)
(5.03787 -0.163592 0)
(5.06891 -0.190597 0)
(5.09535 -0.228888 0)
(5.11695 -0.28361 0)
(5.05438 0.28115 0)
(4.95936 0.200194 0)
(4.94925 0.148332 0)
(4.94258 0.116373 0)
(4.93811 0.0870257 0)
(4.9465 0.0620547 0)
(4.96658 0.0418492 0)
(4.98778 0.0200176 0)
(4.99903 -0.00826069 0)
(5.00297 -0.0437636 0)
(5.01002 -0.0822325 0)
(5.02314 -0.116265 0)
(5.04068 -0.141619 0)
(5.05759 -0.158669 0)
(5.07019 -0.173571 0)
(5.07863 -0.19483 0)
(5.08623 -0.23003 0)
(5.09653 -0.285743 0)
(4.99911 0.268191 0)
(5.03204 0.221289 0)
(4.98629 0.152448 0)
(4.95399 0.114419 0)
(4.95326 0.0860944 0)
(4.97071 0.0632578 0)
(4.98928 0.0471909 0)
(4.99693 0.0332969 0)
(4.9947 0.00987638 0)
(4.98767 -0.0256358 0)
(4.98151 -0.0695838 0)
(4.98326 -0.110832 0)
(4.99259 -0.14172 0)
(5.00597 -0.162012 0)
(5.0212 -0.178964 0)
(5.03801 -0.202982 0)
(5.05786 -0.242187 0)
(5.07903 -0.302782 0)
(4.91337 0.200635 0)
(4.95282 0.199792 0)
(4.94014 0.165305 0)
(4.90429 0.120268 0)
(4.88094 0.0794332 0)
(4.87795 0.0484438 0)
(4.893 0.0283631 0)
(4.91893 0.0123697 0)
(4.94546 -0.00810204 0)
(4.97025 -0.042249 0)
(4.99532 -0.0846721 0)
(5.01876 -0.124884 0)
(5.03841 -0.155687 0)
(5.05357 -0.176521 0)
(5.06519 -0.193982 0)
(5.07575 -0.218218 0)
(5.08622 -0.256515 0)
(5.09536 -0.315851 0)
(5.01669 0.21458 0)
(5.03811 0.203964 0)
(5.01952 0.186455 0)
(4.97287 0.14396 0)
(4.94031 0.0940711 0)
(4.93027 0.0527941 0)
(4.93119 0.0274367 0)
(4.93492 0.0111218 0)
(4.94321 -0.0128407 0)
(4.95772 -0.0502994 0)
(4.97797 -0.0953598 0)
(5.00195 -0.13547 0)
(5.02498 -0.163332 0)
(5.04321 -0.180504 0)
(5.05561 -0.195556 0)
(5.063 -0.219205 0)
(5.06612 -0.257693 0)
(5.06565 -0.317776 0)
(4.96499 0.224434 0)
(4.97721 0.179986 0)
(4.95753 0.178256 0)
(4.95063 0.148415 0)
(4.96889 0.100424 0)
(4.98981 0.0562587 0)
(5.00012 0.0260093 0)
(5.00069 0.00363651 0)
(4.99556 -0.0257281 0)
(4.99203 -0.0677408 0)
(4.99501 -0.114806 0)
(5.00355 -0.155234 0)
(5.0152 -0.182226 0)
(5.02622 -0.196903 0)
(5.03412 -0.207477 0)
(5.03726 -0.224972 0)
(5.03683 -0.257214 0)
(5.03424 -0.312761 0)
(5.05435 0.236494 0)
(4.96136 0.23582 0)
(4.90002 0.20812 0)
(4.91653 0.140283 0)
(4.97298 0.0695781 0)
(5.01571 0.0300485 0)
(5.03192 0.0229955 0)
(5.02941 0.0215663 0)
(5.01883 0.00167385 0)
(5.00517 -0.0414862 0)
(4.99109 -0.0961073 0)
(4.98024 -0.144776 0)
(4.97407 -0.177504 0)
(4.9714 -0.194981 0)
(4.97231 -0.206419 0)
(4.97543 -0.224805 0)
(4.98231 -0.259284 0)
(4.98953 -0.3184 0)
(5.01579 0.283955 0)
(4.97349 0.276122 0)
(4.9692 0.187459 0)
(4.98511 0.0962066 0)
(4.99304 0.0377057 0)
(4.98517 0.0153813 0)
(4.98013 0.0123439 0)
(4.98756 0.00670464 0)
(4.99915 -0.0152659 0)
(5.0064 -0.0546943 0)
(5.00801 -0.1013 0)
(5.00511 -0.143526 0)
(5.00148 -0.174492 0)
(5.00025 -0.194403 0)
(5.00353 -0.209892 0)
(5.00966 -0.231932 0)
(5.01778 -0.267597 0)
(5.02254 -0.325088 0)
(4.99871 0.351469 0)
(5.01129 0.272384 0)
(5.02865 0.188363 0)
(5.03482 0.126487 0)
(5.02028 0.0734092 0)
(5.00275 0.0399977 0)
(4.99396 0.0251486 0)
(4.99044 0.0130348 0)
(4.98845 -0.00943111 0)
(4.98765 -0.0448583 0)
(4.98888 -0.0892034 0)
(4.99292 -0.13381 0)
(4.99887 -0.170881 0)
(5.0042 -0.197888 0)
(5.00809 -0.218486 0)
(5.00914 -0.241804 0)
(5.00831 -0.274648 0)
(5.00316 -0.326819 0)
(4.99108 0.315684 0)
(4.99508 0.247404 0)
(5.00607 0.175308 0)
(5.01029 0.117131 0)
(4.99236 0.0683029 0)
(4.96792 0.037707 0)
(4.95343 0.0236746 0)
(4.9547 0.0106785 0)
(4.96796 -0.0166894 0)
(4.98731 -0.0617402 0)
(5.00803 -0.114475 0)
(5.02522 -0.161229 0)
(5.03626 -0.193195 0)
(5.04039 -0.210438 0)
(5.0399 -0.220156 0)
(5.03554 -0.234853 0)
(5.03026 -0.26207 0)
(5.02114 -0.311469 0)
(4.93874 0.194397 0)
(4.93879 0.165412 0)
(4.97102 0.155006 0)
(4.99532 0.131411 0)
(5.00522 0.107762 0)
(5.0131 0.0801272 0)
(5.02351 0.0416772 0)
(5.03216 -0.00588037 0)
(5.03675 -0.0559482 0)
(5.03878 -0.102469 0)
(5.03979 -0.141804 0)
(5.0412 -0.171286 0)
(5.04408 -0.189804 0)
(5.04793 -0.199599 0)
(5.05178 -0.205546 0)
(5.05337 -0.216417 0)
(5.05124 -0.236708 0)
(5.04231 -0.274782 0)
(5.17436 0.214341 0)
(5.1286 0.194013 0)
(5.10448 0.159461 0)
(5.08419 0.105357 0)
(5.07547 0.0493166 0)
(5.07007 0.0129018 0)
(5.06182 -0.000225988 0)
(5.05105 -0.00506097 0)
(5.03885 -0.0213978 0)
(5.02693 -0.0589003 0)
(5.01751 -0.111966 0)
(5.01008 -0.166491 0)
(5.002 -0.209295 0)
(4.99072 -0.234024 0)
(4.97649 -0.242421 0)
(4.96022 -0.244246 0)
(4.94349 -0.248189 0)
(4.92597 -0.26741 0)
(4.95192 0.292178 0)
(4.98167 0.224521 0)
(5.00477 0.184887 0)
(5.02142 0.145428 0)
(5.02286 0.107975 0)
(5.01948 0.0836521 0)
(5.02576 0.0637017 0)
(5.03983 0.0323412 0)
(5.05186 -0.014069 0)
(5.05798 -0.0662666 0)
(5.05877 -0.11114 0)
(5.05507 -0.139777 0)
(5.04809 -0.150545 0)
(5.03844 -0.148075 0)
(5.02765 -0.14092 0)
(5.01587 -0.139812 0)
(5.00429 -0.151003 0)
(4.99073 -0.181975 0)
(5.03334 0.26031 0)
(4.97891 0.18363 0)
(4.95421 0.145293 0)
(4.95725 0.113752 0)
(4.97703 0.0715152 0)
(4.99949 0.0259428 0)
(5.01935 -0.00809626 0)
(5.03532 -0.0283113 0)
(5.04343 -0.0455516 0)
(5.04262 -0.0705809 0)
(5.03657 -0.10496 0)
(5.02853 -0.140952 0)
(5.02045 -0.168388 0)
(5.0131 -0.181591 0)
(5.00738 -0.181991 0)
(5.00251 -0.178036 0)
(4.99812 -0.177322 0)
(4.99113 -0.190243 0)
(4.966 0.26035 0)
(4.9668 0.250536 0)
(4.99129 0.17693 0)
(5.03503 0.115594 0)
(5.07528 0.0704695 0)
(5.09523 0.0386827 0)
(5.09992 0.0178748 0)
(5.10055 -0.00164258 0)
(5.10228 -0.0277818 0)
(5.10609 -0.0599031 0)
(5.10912 -0.091983 0)
(5.10761 -0.11686 0)
(5.10014 -0.130449 0)
(5.08736 -0.133405 0)
(5.07182 -0.130413 0)
(5.05516 -0.12908 0)
(5.03882 -0.134391 0)
(5.02061 -0.152795 0)
(5.00447 0.249536 0)
(5.03467 0.18232 0)
(5.08418 0.0960809 0)
(5.13114 0.0387761 0)
(5.1604 0.010953 0)
(5.1718 -0.00297285 0)
(5.17194 -0.0152608 0)
(5.16427 -0.0320562 0)
(5.14947 -0.0530491 0)
(5.13083 -0.0779532 0)
(5.11511 -0.10435 0)
(5.1076 -0.126694 0)
(5.10886 -0.139889 0)
(5.11505 -0.142181 0)
(5.12112 -0.136097 0)
(5.12171 -0.128418 0)
(5.11436 -0.123741 0)
(5.09624 -0.130028 0)
(4.96451 0.241711 0)
(5.01674 0.178911 0)
(5.04563 0.111502 0)
(5.08162 0.072029 0)
(5.12458 0.0514789 0)
(5.15508 0.0358758 0)
(5.16561 0.02553 0)
(5.1654 0.0170594 0)
(5.16314 0.0014254 0)
(5.16185 -0.0277158 0)
(5.16185 -0.068119 0)
(5.16115 -0.10889 0)
(5.15825 -0.137431 0)
(5.15235 -0.146339 0)
(5.14432 -0.136604 0)
(5.13377 -0.117116 0)
(5.12134 -0.0968071 0)
(5.10571 -0.088769 0)
(4.98657 0.226503 0)
(5.04876 0.132086 0)
(5.1262 0.0437862 0)
(5.18005 -0.0196017 0)
(5.20029 -0.0415602 0)
(5.20837 -0.0355963 0)
(5.22011 -0.0255457 0)
(5.24085 -0.0277741 0)
(5.26836 -0.0461652 0)
(5.29268 -0.074052 0)
(5.30353 -0.102513 0)
(5.29693 -0.124298 0)
(5.27618 -0.134867 0)
(5.24808 -0.132923 0)
(5.22141 -0.120865 0)
(5.20065 -0.105137 0)
(5.18809 -0.0918689 0)
(5.18019 -0.0899298 0)
(5.03378 0.233594 0)
(5.16667 0.108637 0)
(5.22227 0.0641219 0)
(5.22281 0.0445712 0)
(5.20912 0.0289513 0)
(5.2094 0.014527 0)
(5.23021 -0.000507076 0)
(5.2623 -0.0164205 0)
(5.29119 -0.0336975 0)
(5.30642 -0.0522547 0)
(5.30528 -0.0702162 0)
(5.29192 -0.0849104 0)
(5.27431 -0.0940655 0)
(5.25912 -0.0962884 0)
(5.25126 -0.0915824 0)
(5.24985 -0.0828274 0)
(5.25327 -0.0733293 0)
(5.25539 -0.0698716 0)
(5.07669 0.105106 0)
(5.08887 0.0299278 0)
(5.15912 0.0216866 0)
(5.21547 -0.00398047 0)
(5.24311 -0.0341727 0)
(5.26959 -0.0528466 0)
(5.30325 -0.0616084 0)
(5.33609 -0.0682248 0)
(5.35834 -0.0761807 0)
(5.36466 -0.0852749 0)
(5.35608 -0.0947871 0)
(5.3388 -0.103775 0)
(5.32143 -0.110833 0)
(5.31039 -0.11382 0)
(5.30991 -0.111216 0)
(5.31732 -0.104689 0)
(5.32877 -0.0965947 0)
(5.33599 -0.0918582 0)
(5.03676 0.202657 0)
(5.18194 0.087384 0)
(5.33034 0.0500744 0)
(5.40505 0.0164161 0)
(5.41627 -0.00587663 0)
(5.4087 -0.0199643 0)
(5.4076 -0.0315085 0)
(5.41499 -0.0407429 0)
(5.4228 -0.0461222 0)
(5.42301 -0.0492126 0)
(5.41302 -0.0539564 0)
(5.39679 -0.0637519 0)
(5.38234 -0.0780958 0)
(5.37557 -0.0921978 0)
(5.37844 -0.0988908 0)
(5.38687 -0.095249 0)
(5.39675 -0.0832931 0)
(5.40268 -0.0704152 0)
(4.98208 0.0462123 0)
(5.21614 -0.055118 0)
(5.35398 -0.0341672 0)
(5.41557 -0.0392853 0)
(5.44421 -0.0500419 0)
(5.45902 -0.0589229 0)
(5.46509 -0.0681932 0)
(5.46293 -0.0767688 0)
(5.45118 -0.0811602 0)
(5.42735 -0.0810062 0)
(5.39092 -0.0797919 0)
(5.3465 -0.0827572 0)
(5.30042 -0.0926153 0)
(5.25636 -0.106956 0)
(5.21463 -0.118421 0)
(5.17451 -0.121267 0)
(5.13314 -0.114972 0)
(5.0902 -0.103777 0)
(4.92608 0.0980814 0)
(5.06621 0.00662763 0)
(5.04507 -0.0035805 0)
(4.9244 -0.0206593 0)
(4.78529 -0.0267681 0)
(4.65241 -0.0266879 0)
(4.51557 -0.0293632 0)
(4.36417 -0.0325265 0)
(4.20822 -0.0302992 0)
(4.06539 -0.0237321 0)
(3.94004 -0.0204849 0)
(3.81845 -0.0264741 0)
(3.67931 -0.0398961 0)
(3.51214 -0.051899 0)
(3.32678 -0.0537791 0)
(3.14757 -0.0442753 0)
(2.99171 -0.0276957 0)
(2.87237 -0.011454 0)
(-0.00928294 0.0128627 4.19855e-21)
(-0.013375 0.0023573 -4.16981e-21)
(-0.010904 0.000314932 0)
(-0.0098681 -0.000233363 0)
(-0.00708562 -0.00110981 0)
(-0.00369247 -0.00229989 4.06307e-21)
(0.00123897 -0.0037352 0)
(0.00774001 -0.005393 0)
(0.0160745 -0.00724214 0)
(0.0264654 -0.00925891 0)
(0.0391059 -0.0114147 -3.95396e-21)
(0.0541602 -0.0136785 0)
(0.0717618 -0.0160172 0)
(0.0920112 -0.0183964 0)
(0.114975 -0.0207818 0)
(0.140682 -0.0231393 -3.86555e-21)
(0.169129 -0.0254363 0)
(0.200273 -0.0276421 0)
(0.234042 -0.0297286 0)
(0.270328 -0.0316708 0)
(0.308998 -0.0334476 0)
(0.349891 -0.0350418 0)
(0.392825 -0.0364403 0)
(0.437602 -0.0376342 -3.73949e-21)
(0.484008 -0.0386188 3.72301e-21)
(0.531823 -0.0393928 -3.70611e-21)
(0.580818 -0.0399589 -3.68872e-21)
(0.630767 -0.0403226 0)
(0.681444 -0.0404921 0)
(0.732627 -0.0404777 3.63325e-21)
(0.784106 -0.0402919 3.61357e-21)
(0.835676 -0.0399479 0)
(0.887149 -0.0394602 0)
(0.938346 -0.0388437 3.55084e-21)
(0.989105 -0.0381133 0)
(1.03928 -0.0372838 0)
(1.08874 -0.0363697 -3.48284e-21)
(1.13736 -0.0353849 0)
(1.18504 -0.0343424 -3.43489e-21)
(1.23169 -0.0332546 -6.82046e-21)
(1.27725 -0.0321326 0)
(1.32163 -0.0309869 0)
(1.36481 -0.0298267 0)
(1.40673 -0.0286605 0)
(1.44736 -0.0274956 0)
(1.4867 -0.0263385 -6.50976e-21)
(1.52472 -0.0251949 -6.45618e-21)
(1.56142 -0.0240694 -6.40226e-21)
(1.5968 -0.0229662 0)
(1.63088 -0.0218885 6.29366e-21)
(1.66366 -0.0208392 0)
(1.69516 -0.0198203 -6.18439e-21)
(1.72541 -0.0188336 -6.12963e-21)
(1.75443 -0.0178801 0)
(1.78224 -0.0169608 0)
(1.80887 -0.016076 0)
(1.83436 -0.015226 -5.91072e-21)
(1.85873 -0.0144106 0)
(1.88203 -0.0136297 0)
(1.90427 -0.0128826 0)
(1.9255 -0.0121689 0)
(1.94575 -0.0114877 0)
(1.96506 -0.0108383 0)
(1.98345 -0.0102197 0)
(2.00097 -0.00963097 0)
(2.01764 -0.0090711 5.427e-21)
(2.03349 -0.00853908 0)
(2.04857 -0.00803385 0)
(2.06289 -0.00755437 -5.27033e-21)
(2.07649 -0.00709959 -5.21871e-21)
(2.08941 -0.00666848 0)
(2.10166 -0.00626001 5.11643e-21)
(2.11328 -0.0058732 -5.06578e-21)
(2.12429 -0.00550705 0)
(2.13472 -0.00516063 4.96546e-21)
(2.14459 -0.004833 0)
(2.15394 -0.00452328 0)
(2.16277 -0.0042306 -4.81749e-21)
(2.17113 -0.00395413 0)
(2.17902 -0.00369304 4.72053e-21)
(2.18647 -0.0034466 0)
(2.19349 -0.00321402 -4.62493e-21)
(2.20012 -0.00299464 -4.57763e-21)
(2.20636 -0.00278772 -4.53067e-21)
(2.21224 -0.00259264 -8.96809e-21)
(2.21778 -0.0024088 8.87552e-21)
(2.22298 -0.00223547 0)
(2.22786 -0.00207229 0)
(2.23245 -0.0019186 0)
(2.23675 -0.00177343 8.5118e-21)
(2.24078 -0.00163748 8.42251e-21)
(2.24456 -0.00150912 -8.33386e-21)
(2.24809 -0.00138655 0)
(2.25138 -0.00127403 8.15849e-21)
(2.25446 -0.00116747 8.07176e-21)
(2.25733 -0.00105913 7.98565e-21)
(2.25999 -0.000962294 0)
(2.26247 -0.000874092 0)
(2.26477 -0.000763297 0)
(2.26686 -0.000637334 7.64737e-21)
(2.26875 -0.000520544 0)
(2.27045 -0.000422664 0)
(2.27198 -0.000344103 -7.39995e-21)
(2.27336 -0.000283512 0)
(2.27461 -0.000236524 0)
(2.27574 -0.000198176 -7.15776e-21)
(2.27677 -0.000164918 0)
(2.2777 -0.00013477 0)
(2.27853 -0.000106787 6.92065e-21)
(2.27928 -8.05854e-05 6.84272e-21)
(2.27995 -5.5995e-05 0)
(2.28053 -3.29263e-05 -6.68848e-21)
(2.28105 -1.13081e-05 0)
(2.28149 8.92519e-06 6.5364e-21)
(2.28187 2.78383e-05 0)
(2.28218 4.54999e-05 6.38641e-21)
(2.28244 6.19751e-05 6.3122e-21)
(2.28264 7.73308e-05 0)
(2.28279 9.16326e-05 0)
(2.28289 0.000104952 0)
(2.28294 0.000117342 0)
(2.28295 0.000128865 0)
(2.28292 0.000139581 0)
(2.28285 0.000149555 0)
(2.28274 0.000158838 5.73662e-21)
(2.2826 0.000167461 -5.66686e-21)
(2.28242 0.000175451 0)
(2.28222 0.000182844 0)
(2.28198 0.000189699 0)
(2.28172 0.000196057 0)
(2.28143 0.000201966 -1.065e-20)
(2.28111 0.000207452 0)
(2.28077 0.000212551 1.03829e-20)
(2.28041 0.000217285 -1.02507e-20)
(2.28003 0.000221688 0)
(2.27963 0.000225788 0)
(2.2792 0.000229608 0)
(2.27876 0.00023318 9.73046e-21)
(2.2783 0.000236526 9.60256e-21)
(2.27783 0.000239671 0)
(2.27733 0.000242624 9.34929e-21)
(2.27682 0.000245415 9.22391e-21)
(2.2763 0.000248065 -9.09936e-21)
(2.27576 0.000250624 0)
(2.2752 0.000253118 0)
(2.27463 0.000255574 -8.73054e-21)
(2.27405 0.000258006 0)
(2.27345 0.000260456 0)
(2.27284 0.000262963 0)
(2.27221 0.000265581 0)
(2.27156 0.000268357 8.13145e-21)
(2.2709 0.000271359 8.0139e-21)
(2.27022 0.00027466 0)
(2.26952 0.000278362 7.78099e-21)
(2.26881 0.00028258 0)
(2.26807 0.000287473 0)
(2.2673 0.000293226 7.43706e-21)
(2.26651 0.000300089 0)
(2.26568 0.000308365 7.21132e-21)
(2.26481 0.000318453 0)
(2.26389 0.000330853 0)
(2.26292 0.000346224 6.87798e-21)
(2.26188 0.000365406 0)
(2.26074 0.000389515 6.65929e-21)
(2.2595 0.000419981 0)
(2.25812 0.000458797 0)
(2.25657 0.000508399 0)
(2.25478 0.000572731 -6.23079e-21)
(2.25271 0.000655706 0)
(2.25023 0.000766032 6.02147e-21)
(2.24728 0.000912264 0)
(2.24358 0.00110006 0)
(2.239 0.00141709 0)
(2.233 0.00162442 0)
(2.22519 0.00273843 0)
(2.21403 0.00215383 0)
(2.20014 0.00713289 0)
(2.17123 0.00294309 -1.04985e-20)
(2.1477 0.0249642 0)
(2.03912 0.0192696 0)
(-0.00993965 0.036129 -1.25834e-20)
(-0.0127874 8.47716e-05 1.24978e-20)
(-0.00976458 -0.00659282 0)
(-0.0077074 -0.0082367 -8.21646e-21)
(-0.00415646 -0.0108294 0)
(0.00018666 -0.0144487 -4.06322e-21)
(0.00610565 -0.018892 8.06745e-21)
(0.0136953 -0.0240295 8.02219e-21)
(0.0232588 -0.029748 0)
(0.0350189 -0.0359958 7.93797e-21)
(0.0491824 -0.0426787 3.95388e-21)
(0.065921 -0.0496981 0)
(0.0853734 -0.0569514 0)
(0.107642 -0.0643296 0)
(0.132791 -0.0717247 0)
(0.160846 -0.07903 3.86523e-21)
(0.191795 -0.0861434 0)
(0.225589 -0.0929698 -7.66245e-21)
(0.262142 -0.0994224 0)
(0.301334 -0.105425 0)
(0.343017 -0.110911 7.5708e-21)
(0.387016 -0.11583 0)
(0.433133 -0.120141 -7.50872e-21)
(0.481155 -0.123817 3.73879e-21)
(0.530855 -0.126843 -3.72228e-21)
(0.581998 -0.129218 3.70534e-21)
(0.634347 -0.130948 3.68793e-21)
(0.687661 -0.132051 0)
(0.741706 -0.132552 0)
(0.796255 -0.132484 -3.63238e-21)
(0.851088 -0.131885 3.61347e-21)
(0.905997 -0.130794 0)
(0.960788 -0.129258 0)
(1.01528 -0.127319 -3.54991e-21)
(1.06931 -0.125025 0)
(1.12273 -0.122421 0)
(1.1754 -0.119551 3.48189e-21)
(1.2272 -0.116456 0)
(1.27804 -0.113178 -3.43459e-21)
(1.32781 -0.109753 6.81855e-21)
(1.37646 -0.106216 0)
(1.4239 -0.102599 0)
(1.4701 -0.0989297 1.33327e-20)
(1.515 -0.0952352 1.32282e-20)
(1.55859 -0.0915379 1.31227e-20)
(1.60084 -0.087858 -6.50836e-21)
(1.64173 -0.0842132 6.45431e-21)
(1.68127 -0.0806184 1.92015e-20)
(1.71945 -0.0770868 -1.26927e-20)
(1.75627 -0.0736289 -6.29183e-21)
(1.79176 -0.0702538 0)
(1.82593 -0.0669686 6.18259e-21)
(1.85879 -0.063779 -6.12782e-21)
(1.89037 -0.0606893 0)
(1.9207 -0.0577026 0)
(1.9498 -0.0548209 0)
(1.9777 -0.0520453 5.90901e-21)
(2.00444 -0.0493761 0)
(2.03004 -0.046813 -1.16001e-20)
(2.05454 -0.044355 0)
(2.07797 -0.0420007 -1.13837e-20)
(2.10037 -0.0397482 0)
(2.12176 -0.0375954 1.1169e-20)
(2.14219 -0.0355399 0)
(2.16169 -0.033579 -1.09562e-20)
(2.18028 -0.0317099 5.42521e-21)
(2.19801 -0.0299297 0)
(2.2149 -0.0282354 1.06412e-20)
(2.23099 -0.0266239 5.26884e-21)
(2.24631 -0.0250923 5.21724e-21)
(2.26088 -0.0236374 0)
(2.27475 -0.0222563 5.11478e-21)
(2.28793 -0.0209458 5.06436e-21)
(2.30045 -0.019703 0)
(2.31234 -0.0185251 -4.96408e-21)
(2.32364 -0.0174092 9.82869e-21)
(2.33435 -0.0163525 0)
(2.34452 -0.0153524 4.81617e-21)
(2.35416 -0.0144063 0)
(2.3633 -0.0135117 -1.41576e-20)
(2.37195 -0.0126661 0)
(2.38015 -0.0118672 1.38709e-20)
(2.3879 -0.0111128 4.57641e-21)
(2.39524 -0.0104006 -4.52933e-21)
(2.40218 -0.00972871 -8.96547e-21)
(2.40874 -0.00909503 8.87294e-21)
(2.41494 -0.00849761 0)
(2.42079 -0.00793467 0)
(2.42631 -0.00740446 0)
(2.43152 -0.00690501 -2.55287e-20)
(2.43643 -0.00643526 -8.42037e-21)
(2.44106 -0.00599329 8.33176e-21)
(2.44543 -0.00557677 0)
(2.44953 -0.00518643 8.15629e-21)
(2.4534 -0.00481978 -8.06976e-21)
(2.45703 -0.00447166 -7.98369e-21)
(2.46046 -0.00414662 0)
(2.46367 -0.00384374 0)
(2.46669 -0.00355051 0)
(2.46956 -0.00327068 -7.64554e-21)
(2.47229 -0.00300274 0)
(2.47489 -0.00274975 1.496e-20)
(2.47737 -0.00251966 2.21945e-20)
(2.47971 -0.00231157 -1.46337e-20)
(2.48191 -0.00212201 0)
(2.48399 -0.00194783 -7.15597e-21)
(2.48593 -0.00178656 0)
(2.48774 -0.00163658 -1.39949e-20)
(2.48944 -0.00149687 6.91894e-21)
(2.49103 -0.00136673 6.84104e-21)
(2.49251 -0.00124556 0)
(2.49389 -0.00113279 2.00608e-20)
(2.49517 -0.00102788 -1.32213e-20)
(2.49637 -0.000930346 -6.53492e-21)
(2.49748 -0.000839695 0)
(2.49852 -0.000755483 -6.38499e-21)
(2.49948 -0.000677292 -1.89323e-20)
(2.50038 -0.000604726 0)
(2.50121 -0.000537418 -1.23279e-20)
(2.50198 -0.000475017 -1.21825e-20)
(2.50269 -0.000417208 -1.20382e-20)
(2.50336 -0.000363664 0)
(2.50397 -0.00031408 0)
(2.50454 -0.000268167 0)
(2.50506 -0.000225671 5.73534e-21)
(2.50554 -0.000186393 5.66567e-21)
(2.50599 -0.000150132 0)
(2.5064 -0.000116689 1.10551e-20)
(2.50678 -8.58344e-05 1.09184e-20)
(2.50713 -5.73745e-05 0)
(2.50745 -3.11136e-05 1.06479e-20)
(2.50774 -6.89953e-06 2.10277e-20)
(2.50801 1.54322e-05 -1.03808e-20)
(2.50826 3.60135e-05 -1.02485e-20)
(2.50848 5.49899e-05 0)
(2.50869 7.24866e-05 0)
(2.50887 8.86301e-05 0)
(2.50905 0.000103537 -9.7286e-21)
(2.5092 0.00011731 9.60063e-21)
(2.50934 0.000130046 1.89473e-20)
(2.50947 0.000141829 -9.34754e-21)
(2.50958 0.000152772 9.22211e-21)
(2.50969 0.000162976 9.09768e-21)
(2.50978 0.000172577 0)
(2.50986 0.000181656 0)
(2.50993 0.000190305 -8.72889e-21)
(2.50999 0.000198601 0)
(2.51004 0.000206671 0)
(2.51009 0.000214638 1.67346e-20)
(2.51012 0.000222664 0)
(2.51015 0.000230906 8.12997e-21)
(2.51016 0.000239566 -8.01252e-21)
(2.51017 0.000248862 0)
(2.51017 0.000259083 7.7796e-21)
(2.51015 0.000270559 0)
(2.51012 0.000283723 0)
(2.51007 0.000299094 -7.43583e-21)
(2.51001 0.000317346 1.46452e-20)
(2.50992 0.000339309 -7.21014e-21)
(2.50981 0.000366061 0)
(2.50967 0.000398962 0)
(2.50948 0.00043978 6.87678e-21)
(2.50924 0.000490786 0)
(2.50893 0.000554952 6.65811e-21)
(2.50854 0.000636191 0)
(2.50805 0.000739599 0)
(2.50741 0.000872319 0)
(2.50659 0.00104297 6.22984e-21)
(2.50556 0.00126682 0)
(2.50417 0.00155445 -6.02056e-21)
(2.50247 0.00195534 0)
(2.49999 0.00243468 0)
(2.49723 0.00327183 1.14283e-20)
(2.49247 0.00392673 -1.12298e-20)
(2.48797 0.00629085 0)
(2.47834 0.00639012 0)
(2.47 0.0148573 0)
(2.45057 0.012666 3.147e-20)
(2.4341 0.0458991 0)
(2.40267 0.0491227 -2.03275e-20)
(-0.0105087 0.0619441 2.14534e-23)
(-0.0154439 0.00128495 -1.66343e-20)
(-0.0146996 -0.00937672 0)
(-0.0149961 -0.0121805 1.64117e-20)
(-0.0136438 -0.0166446 0)
(-0.0114416 -0.0229243 0)
(-0.00753558 -0.0306007 -1.90944e-23)
(-0.00166273 -0.0394638 -8.02228e-21)
(0.00641287 -0.049357 -7.9618e-21)
(0.0168868 -0.0601998 -7.93809e-21)
(0.0300394 -0.0717814 0)
(0.0460421 -0.0839193 0)
(0.0650409 -0.0964602 7.81214e-21)
(0.08714 -0.109199 1.55575e-20)
(0.112394 -0.12195 -1.54932e-20)
(0.140813 -0.134525 0)
(0.172366 -0.146748 -1.537e-20)
(0.206977 -0.15845 7.66208e-21)
(0.244533 -0.169482 0)
(0.284883 -0.179715 -1.51922e-20)
(0.327847 -0.189037 -7.57021e-21)
(0.373217 -0.197362 1.5073e-20)
(0.420763 -0.204626 7.50801e-21)
(0.470242 -0.210788 0)
(0.521397 -0.215828 -1.48854e-20)
(0.57397 -0.219747 -1.48192e-20)
(0.6277 -0.222564 0)
(0.68233 -0.224313 -1.46802e-20)
(0.737611 -0.225041 0)
(0.793305 -0.224809 -1.45313e-20)
(0.849185 -0.223681 -7.22519e-21)
(0.90504 -0.221733 0)
(0.960674 -0.219039 0)
(1.01591 -0.215679 0)
(1.07058 -0.21173 0)
(1.12455 -0.20727 0)
(1.17769 -0.202373 0)
(1.22988 -0.19711 -1.38347e-20)
(1.28102 -0.191548 2.06052e-20)
(1.33105 -0.185749 0)
(1.37988 -0.179771 0)
(1.42746 -0.173665 0)
(1.47375 -0.16748 1.42562e-24)
(1.51872 -0.161257 -1.32268e-20)
(1.56234 -0.155035 -2.62438e-20)
(1.60459 -0.148845 2.60308e-20)
(1.64547 -0.142717 1.29085e-20)
(1.68498 -0.136676 -1.27999e-20)
(1.72312 -0.130741 -4.83125e-25)
(1.7599 -0.124931 -1.25831e-20)
(1.79533 -0.11926 0)
(1.82945 -0.11374 -1.23644e-20)
(1.86226 -0.108379 -9.78783e-26)
(1.89379 -0.103185 0)
(1.92407 -0.098162 0)
(1.95313 -0.0933141 1.19263e-20)
(1.981 -0.0886429 0)
(2.0077 -0.0841487 0)
(2.03328 -0.0798309 -1.15991e-20)
(2.05776 -0.075688 -2.29818e-20)
(2.08118 -0.0717176 1.13831e-20)
(2.10357 -0.0679168 0)
(2.12497 -0.0642821 -1.11685e-20)
(2.14541 -0.0608094 0)
(2.16492 -0.0574946 -1.09553e-20)
(2.18353 -0.054333 -1.08502e-20)
(2.20128 -0.0513199 2.149e-20)
(2.2182 -0.0484504 1.06403e-20)
(2.23432 -0.0457196 0)
(2.24968 -0.0431225 -2.08673e-20)
(2.26429 -0.0406539 0)
(2.27819 -0.0383091 -3.0688e-20)
(2.29142 -0.0360829 -2.0256e-20)
(2.30399 -0.0339707 -2.00548e-20)
(2.31593 -0.0319675 1.9855e-20)
(2.32727 -0.0300688 -2.9485e-20)
(2.33804 -0.0282699 0)
(2.34826 -0.0265665 0)
(2.35795 -0.0249543 1.90691e-20)
(2.36714 -0.0234291 2.83141e-20)
(2.37585 -0.0219868 0)
(2.3841 -0.0206237 -9.24707e-21)
(2.39191 -0.019336 0)
(2.3993 -0.01812 2.71757e-20)
(2.40629 -0.0169722 3.01887e-25)
(2.4129 -0.0158894 -2.87817e-25)
(2.41915 -0.0148684 -1.75619e-20)
(2.42505 -0.013906 0)
(2.43062 -0.0129993 1.71984e-20)
(2.43588 -0.0121457 2.37234e-25)
(2.44084 -0.0113419 0)
(2.44552 -0.0105856 0)
(2.44993 -0.00987532 0)
(2.45409 -0.00920685 -1.63126e-20)
(2.458 -0.00857804 0)
(2.46168 -0.00799054 0)
(2.46514 -0.00743848 0)
(2.46839 -0.0069182 0)
(2.47144 -0.00643645 0)
(2.47431 -0.00598837 -1.52907e-20)
(2.47703 -0.00556849 0)
(2.47958 -0.00518095 -1.49599e-20)
(2.48196 -0.00481674 -1.47962e-20)
(2.4842 -0.00447187 1.46336e-20)
(2.4863 -0.00414555 0)
(2.48827 -0.00383777 1.4312e-20)
(2.4901 -0.0035485 0)
(2.49182 -0.00327747 1.39948e-20)
(2.49343 -0.00302414 -1.38379e-20)
(2.49493 -0.00278769 -4.1046e-20)
(2.49634 -0.00256723 0)
(2.49765 -0.00236183 -4.0121e-20)
(2.49887 -0.00217059 -1.32209e-20)
(2.50001 -0.00199264 0)
(2.50108 -0.00182715 -2.58382e-20)
(2.50207 -0.00167334 -2.55394e-20)
(2.50299 -0.00153048 3.78641e-20)
(2.50385 -0.00139786 0)
(2.50465 -0.00127483 1.23278e-20)
(2.5054 -0.00116078 1.21824e-20)
(2.50609 -0.00105512 3.61142e-20)
(2.50673 -0.000957256 0)
(2.50733 -0.000866649 0)
(2.50789 -0.0007828 0)
(2.5084 -0.000705266 1.14705e-20)
(2.50888 -0.000633638 0)
(2.50932 -0.000567524 0)
(2.50973 -0.000506536 -1.1055e-20)
(2.51011 -0.000450297 -1.09184e-20)
(2.51046 -0.000398462 0)
(2.51079 -0.000350705 0)
(2.51109 -0.000306723 -2.10275e-20)
(2.51137 -0.000266226 0)
(2.51163 -0.000228948 2.0497e-20)
(2.51187 -0.000194632 2.02342e-20)
(2.51209 -0.000163044 0)
(2.51229 -0.000133962 0)
(2.51248 -0.000107187 -1.94568e-20)
(2.51266 -8.25366e-05 -1.0936e-25)
(2.51282 -5.98414e-05 -1.0254e-25)
(2.51297 -3.89244e-05 0)
(2.51311 -1.95912e-05 -3.68882e-20)
(2.51323 -1.65313e-06 0)
(2.51335 1.50903e-05 0)
(2.51346 3.08018e-05 0)
(2.51356 4.56527e-05 1.74577e-20)
(2.51365 5.98059e-05 0)
(2.51373 7.34559e-05 -3.39479e-20)
(2.5138 8.68003e-05 -1.67344e-20)
(2.51387 0.00010008 0)
(2.51392 0.000113557 -1.62599e-20)
(2.51397 0.00012755 0)
(2.51401 0.000142422 0)
(2.51404 0.000158627 -4.66773e-20)
(2.51406 0.000176701 3.06569e-20)
(2.51407 0.000197319 0)
(2.51406 0.000221306 2.97428e-20)
(2.51403 0.000249712 -1.46451e-20)
(2.51398 0.000283848 0)
(2.51391 0.000325391 0)
(2.5138 0.000376474 0)
(2.51365 0.000439845 -4.12604e-20)
(2.51345 0.000519053 0)
(2.51318 0.000618692 -1.33163e-20)
(2.51283 0.000744896 0)
(2.51237 0.000905384 0)
(2.51177 0.00111169 0)
(2.51098 0.00137569 0)
(2.50998 0.00172442 0)
(2.50863 0.00216564 0)
(2.50694 0.00279104 -2.36668e-20)
(2.50453 0.00352641 0)
(2.50174 0.00478095 -1.14282e-20)
(2.4972 0.00594639 3.36853e-20)
(2.49252 0.00896761 0)
(2.48382 0.0106043 0)
(2.47515 0.0195358 -2.13106e-20)
(2.45971 0.0225082 -2.09727e-20)
(2.44365 0.0510127 2.06051e-20)
(2.42126 0.0648704 2.03265e-20)
(-0.0115074 0.0920779 2.50248e-20)
(-0.019681 0.00803698 2.48568e-20)
(-0.0223339 -0.0064594 1.64378e-20)
(-0.0261827 -0.0106117 8.13533e-21)
(-0.028221 -0.0173349 0)
(-0.0291472 -0.0267387 -1.61319e-20)
(-0.0280959 -0.03814 7.99278e-21)
(-0.0248068 -0.0512927 0)
(-0.0190283 -0.0659919 7.9614e-21)
(-0.0104168 -0.0820636 0)
(0.00142123 -0.0991985 -1.57228e-20)
(0.0165237 -0.11717 0)
(0.0350578 -0.135784 -7.81235e-21)
(0.0571712 -0.154571 -1.55578e-20)
(0.0828756 -0.173342 1.54933e-20)
(0.112169 -0.191802 0)
(0.144983 -0.209682 1.53697e-20)
(0.181199 -0.226735 0)
(0.220653 -0.242742 0)
(0.26314 -0.257515 1.51913e-20)
(0.308422 -0.270899 0)
(0.356237 -0.282775 -8.32996e-24)
(0.406299 -0.293061 0)
(0.458314 -0.301706 0)
(0.51198 -0.308696 2.13659e-24)
(0.566997 -0.314043 1.48174e-20)
(0.623069 -0.317785 1.47496e-20)
(0.679914 -0.319985 1.46782e-20)
(0.737258 -0.320721 0)
(0.794848 -0.320087 2.90613e-20)
(0.852448 -0.318187 0)
(0.909842 -0.315132 1.43735e-20)
(0.966832 -0.311036 0)
(1.02324 -0.306015 0)
(1.07892 -0.300183 -1.41155e-20)
(1.13373 -0.293652 0)
(1.18754 -0.286529 1.39313e-20)
(1.24027 -0.278913 -3.3022e-24)
(1.29182 -0.2709 -2.74743e-20)
(1.34213 -0.262576 2.72791e-20)
(1.39114 -0.254021 0)
(1.43881 -0.245308 0)
(1.4851 -0.236501 1.3335e-20)
(1.53 -0.227659 0)
(1.57348 -0.218831 1.31209e-20)
(1.61555 -0.210064 -1.30144e-20)
(1.65619 -0.201395 -1.29071e-20)
(1.69543 -0.192858 0)
(1.73328 -0.18448 1.26908e-20)
(1.76974 -0.176284 1.25819e-20)
(1.80484 -0.168289 -2.49464e-20)
(1.8386 -0.160511 1.23634e-20)
(1.87106 -0.152961 1.22539e-20)
(1.90223 -0.145648 0)
(1.93215 -0.138579 0)
(1.96085 -0.131757 -1.19254e-20)
(1.98836 -0.125184 0)
(2.01472 -0.11886 0)
(2.03996 -0.112785 2.31972e-20)
(2.06411 -0.106955 2.29805e-20)
(2.0872 -0.101368 0)
(2.10928 -0.0960181 0)
(2.13038 -0.0909016 0)
(2.15053 -0.0860123 0)