/*--------------------------------*- C++ -*----------------------------------*\
  =========                 |
  \\      /  F ield         | OpenFOAM: The Open Source CFD Toolbox
   \\    /   O peration     | Website:  https://openfoam.org
    \\  /    A nd           | Version:  7
     \\/     M anipulation  |
\*---------------------------------------------------------------------------*/
FoamFile
{
    version     2.0;
    format      ascii;
    class       volVectorField;
    location    "0.005";
    object      U_0;
}
// * * * * * * * * * * * * * * * * * * * * * * * * * * * * * * * * * * * * * //

dimensions      [0 1 -1 0 0 0 0];

internalField   nonuniform List<vector> 
12225
(
(4.75871 0.187065 0)
(4.1269 0.113378 0)
(3.68525 0.0959411 0)
(3.35268 0.0787206 0)
(3.0628 0.0660254 0)
(2.79216 0.058504 0)
(2.55251 0.0465699 0)
(2.36938 0.028156 0)
(2.27202 0.00985641 0)
(2.22967 -0.00232268 0)
(2.27734 -0.0145349 0)
(2.32653 -0.0166517 0)
(2.45685 -0.024808 0)
(2.51912 -0.0149293 0)
(2.70573 -0.0339537 0)
(2.75034 -0.0062199 0)
(3.00692 -0.0722726 0)
(3.0678 -0.015171 0)
(5.01783 0.133124 0)
(4.8832 0.0766404 0)
(4.7486 0.0785761 0)
(4.669 0.0755157 0)
(4.58677 0.072122 0)
(4.49931 0.0674657 0)
(4.42568 0.0619733 0)
(4.37324 0.0478441 0)
(4.33736 0.0287397 0)
(4.315 0.00141708 0)
(4.321 -0.0183976 0)
(4.34777 -0.0395426 0)
(4.40632 -0.0459581 0)
(4.46529 -0.0634644 0)
(4.55888 -0.064962 0)
(4.6351 -0.085915 0)
(4.76333 -0.0969489 0)
(4.86172 -0.151424 0)
(5.0598 0.176659 0)
(4.8841 0.136647 0)
(4.78562 0.125926 0)
(4.76211 0.115649 0)
(4.75455 0.107387 0)
(4.75085 0.0962008 0)
(4.75638 0.0804311 0)
(4.76485 0.0598567 0)
(4.76592 0.0333165 0)
(4.76353 0.00489725 0)
(4.7708 -0.0223843 0)
(4.79609 -0.0425169 0)
(4.83638 -0.0610536 0)
(4.88568 -0.0716567 0)
(4.93414 -0.0885226 0)
(4.98206 -0.100979 0)
(5.03121 -0.136301 0)
(5.08034 -0.183756 0)
(4.88511 0.23812 0)
(4.88051 0.141419 0)
(4.84065 0.111904 0)
(4.80107 0.101481 0)
(4.78329 0.0881123 0)
(4.78418 0.0720689 0)
(4.79091 0.0592376 0)
(4.79508 0.0458482 0)
(4.79737 0.0280203 0)
(4.80514 -0.000104353 0)
(4.82546 -0.0342628 0)
(4.85882 -0.0650357 0)
(4.90022 -0.0858029 0)
(4.94205 -0.100056 0)
(4.97872 -0.111373 0)
(5.01221 -0.126794 0)
(5.04693 -0.155858 0)
(5.08316 -0.203786 0)
(4.8677 0.206391 0)
(4.88954 0.118308 0)
(4.8367 0.114216 0)
(4.79783 0.121286 0)
(4.78798 0.1091 0)
(4.79859 0.0883401 0)
(4.81693 0.0697449 0)
(4.83681 0.0518517 0)
(4.85734 0.026035 0)
(4.87847 -0.00674341 0)
(4.90148 -0.0420298 0)
(4.92555 -0.0718874 0)
(4.94763 -0.092318 0)
(4.96637 -0.105377 0)
(4.9832 -0.117491 0)
(5.00324 -0.13615 0)
(5.03063 -0.168222 0)
(5.06434 -0.219402 0)
(4.98104 0.242855 0)
(4.90531 0.152267 0)
(4.79555 0.140147 0)
(4.76196 0.127968 0)
(4.78363 0.0980554 0)
(4.81726 0.0687641 0)
(4.84085 0.0519856 0)
(4.85587 0.0403278 0)
(4.8731 0.0206196 0)
(4.8969 -0.0132615 0)
(4.92313 -0.0508554 0)
(4.94799 -0.0824746 0)
(4.96894 -0.103702 0)
(4.98569 -0.117186 0)
(5.00137 -0.130623 0)
(5.02127 -0.151977 0)
(5.0497 -0.188313 0)
(5.08492 -0.243359 0)
(4.97588 0.227745 0)
(4.86687 0.157482 0)
(4.83048 0.135372 0)
(4.85443 0.117723 0)
(4.87735 0.0913467 0)
(4.87719 0.0673891 0)
(4.86879 0.0505105 0)
(4.87215 0.0319814 0)
(4.88881 0.00291175 0)
(4.90958 -0.0324069 0)
(4.92907 -0.0680183 0)
(4.94636 -0.0948891 0)
(4.9641 -0.111306 0)
(4.98538 -0.122113 0)
(5.01156 -0.136055 0)
(5.04335 -0.16105 0)
(5.07929 -0.20171 0)
(5.11496 -0.25982 0)
(5.02611 0.264172 0)
(4.96952 0.19117 0)
(4.91015 0.140423 0)
(4.89011 0.110017 0)
(4.8963 0.0908546 0)
(4.90547 0.0760718 0)
(4.9115 0.0605815 0)
(4.91636 0.0405798 0)
(4.92299 0.0118986 0)
(4.92972 -0.0255958 0)
(4.93662 -0.0636477 0)
(4.95091 -0.0965359 0)
(4.97498 -0.122301 0)
(5.00589 -0.142627 0)
(5.03854 -0.163268 0)
(5.06931 -0.190596 0)
(5.09543 -0.229516 0)
(5.11686 -0.285051 0)
(5.05667 0.278537 0)
(4.96283 0.199503 0)
(4.9524 0.148675 0)
(4.94423 0.116845 0)
(4.9392 0.0874197 0)
(4.94761 0.0624824 0)
(4.9677 0.0422374 0)
(4.98855 0.0201763 0)
(4.99935 -0.00836861 0)
(5.00311 -0.0442275 0)
(5.01028 -0.0827192 0)
(5.02354 -0.116438 0)
(5.04108 -0.141314 0)
(5.05775 -0.157983 0)
(5.06998 -0.172852 0)
(5.07814 -0.194514 0)
(5.0857 -0.230552 0)
(5.09621 -0.287322 0)
(5.00784 0.266998 0)
(5.03726 0.221847 0)
(4.98793 0.152923 0)
(4.95503 0.115152 0)
(4.95448 0.0867306 0)
(4.97191 0.0639423 0)
(4.99008 0.0479577 0)
(4.99715 0.0338782 0)
(4.99445 0.0099423 0)
(4.9872 -0.0261374 0)
(4.98113 -0.0702833 0)
(4.98314 -0.11122 0)
(4.99265 -0.141529 0)
(5.00608 -0.161351 0)
(5.02132 -0.178268 0)
(5.03817 -0.20277 0)
(5.05812 -0.242907 0)
(5.07941 -0.304618 0)
(4.92177 0.203294 0)
(4.95996 0.204247 0)
(4.94205 0.167052 0)
(4.90458 0.120999 0)
(4.88118 0.0798734 0)
(4.87854 0.0489891 0)
(4.89394 0.0290691 0)
(4.92002 0.0129455 0)
(4.94652 -0.00798704 0)
(4.97129 -0.0426777 0)
(4.99629 -0.0852669 0)
(5.01952 -0.125191 0)
(5.03887 -0.155453 0)
(5.05376 -0.175838 0)
(5.06518 -0.193266 0)
(5.07566 -0.217967 0)
(5.0861 -0.257168 0)
(5.0952 -0.317609 0)
(5.01656 0.231489 0)
(5.04391 0.210208 0)
(5.02054 0.189222 0)
(4.97255 0.144921 0)
(4.94017 0.0943201 0)
(4.93049 0.0531309 0)
(4.93147 0.0281049 0)
(4.93521 0.0117211 0)
(4.94365 -0.0128066 0)
(4.95837 -0.0507952 0)
(4.97883 -0.095955 0)
(5.00286 -0.135624 0)
(5.02572 -0.16284 0)
(5.04366 -0.179579 0)
(5.05574 -0.194701 0)
(5.06285 -0.218919 0)
(5.06574 -0.258383 0)
(5.06517 -0.319617 0)
(4.96715 0.242527 0)
(4.97783 0.186704 0)
(4.95793 0.181964 0)
(4.95138 0.149785 0)
(4.97003 0.100727 0)
(4.99066 0.0565301 0)
(5.00042 0.0265343 0)
(5.00056 0.00404816 0)
(4.9953 -0.0258977 0)
(4.99193 -0.0683869 0)
(4.99516 -0.115455 0)
(5.00389 -0.15537 0)
(5.01561 -0.181638 0)
(5.02656 -0.195778 0)
(5.03424 -0.206316 0)
(5.03713 -0.224332 0)
(5.03654 -0.257607 0)
(5.03393 -0.314458 0)
(5.04742 0.239995 0)
(4.95661 0.241881 0)
(4.89904 0.210824 0)
(4.91794 0.140615 0)
(4.97491 0.0695704 0)
(5.0169 0.0308975 0)
(5.03218 0.0244484 0)
(5.02907 0.0226284 0)
(5.01822 0.00174102 0)
(5.00444 -0.0422943 0)
(4.99036 -0.0970979 0)
(4.97965 -0.145234 0)
(4.97367 -0.17712 0)
(4.97118 -0.193943 0)
(4.97225 -0.2053 0)
(4.97553 -0.22426 0)
(4.98256 -0.25987 0)
(4.98991 -0.320365 0)
(5.01765 0.293757 0)
(4.97434 0.281543 0)
(4.96881 0.188443 0)
(4.98495 0.096102 0)
(4.99266 0.0381644 0)
(4.98469 0.0166082 0)
(4.98002 0.0137252 0)
(4.98787 0.00757715 0)
(4.99952 -0.0151964 0)
(5.00658 -0.0552217 0)
(5.00792 -0.101928 0)
(5.00485 -0.143776 0)
(5.00127 -0.17413 0)
(5.00023 -0.193551 0)
(5.00373 -0.209004 0)
(5.01002 -0.231558 0)
(5.01819 -0.268225 0)
(5.02287 -0.326965 0)
(4.99064 0.373766 0)
(5.00546 0.276159 0)
(5.02567 0.189171 0)
(5.03299 0.126528 0)
(5.01889 0.0734694 0)
(5.00191 0.0406184 0)
(4.99356 0.0261007 0)
(4.99024 0.013773 0)
(4.98835 -0.00924197 0)
(4.98764 -0.0452091 0)
(4.98899 -0.0898057 0)
(4.99315 -0.134242 0)
(4.99916 -0.170845 0)
(5.00449 -0.197377 0)
(5.00832 -0.217823 0)
(5.00927 -0.241469 0)
(5.00835 -0.27515 0)
(5.00312 -0.328489 0)
(4.98583 0.315295 0)
(4.98211 0.242449 0)
(5.00145 0.172674 0)
(5.00789 0.115677 0)
(4.99067 0.0677366 0)
(4.96676 0.037984 0)
(4.95295 0.0243798 0)
(4.95492 0.0111495 0)
(4.96868 -0.0169069 0)
(4.98827 -0.0625568 0)
(5.00899 -0.115364 0)
(5.02599 -0.161625 0)
(5.03677 -0.192825 0)
(5.04066 -0.209443 0)
(5.03998 -0.219046 0)
(5.03552 -0.23424 0)
(5.03017 -0.262489 0)
(5.02097 -0.313177 0)
(4.94022 0.16728 0)
(4.936 0.158642 0)
(4.97185 0.152659 0)
(4.99589 0.130604 0)
(5.00565 0.107599 0)
(5.01356 0.0799475 0)
(5.02401 0.0411862 0)
(5.03258 -0.00661309 0)
(5.03705 -0.0566961 0)
(5.03899 -0.103019 0)
(5.04001 -0.141986 0)
(5.04151 -0.170966 0)
(5.04454 -0.188966 0)
(5.04852 -0.198397 0)
(5.05242 -0.204341 0)
(5.05392 -0.215634 0)
(5.05158 -0.236753 0)
(5.04234 -0.275925 0)
(5.18184 0.216612 0)
(5.141 0.193939 0)
(5.10726 0.158312 0)
(5.08486 0.104171 0)
(5.07576 0.0486677 0)
(5.07011 0.0132185 0)
(5.06157 0.000806877 0)
(5.05063 -0.0041019 0)
(5.03842 -0.0212172 0)
(5.02659 -0.0596451 0)
(5.01729 -0.113208 0)
(5.00992 -0.167566 0)
(5.0018 -0.20967 0)
(4.99044 -0.233521 0)
(4.97613 -0.241295 0)
(4.95982 -0.243016 0)
(4.94311 -0.247484 0)
(4.92564 -0.267726 0)
(4.94519 0.293129 0)
(4.97544 0.223884 0)
(5.00558 0.184697 0)
(5.02274 0.14533 0)
(5.02354 0.108166 0)
(5.01995 0.0841668 0)
(5.02641 0.0640221 0)
(5.04056 0.0320318 0)
(5.05242 -0.0149493 0)
(5.05829 -0.0672325 0)
(5.05887 -0.111647 0)
(5.05502 -0.139506 0)
(5.04797 -0.149504 0)
(5.03829 -0.146568 0)
(5.02751 -0.139459 0)
(5.01573 -0.138917 0)
(5.00416 -0.151109 0)
(4.99055 -0.183276 0)
(5.03898 0.236797 0)
(4.98325 0.180019 0)
(4.95695 0.145666 0)
(4.95912 0.114561 0)
(4.9785 0.0719088 0)
(5.00062 0.0262574 0)
(5.02023 -0.00746736 0)
(5.03591 -0.0275466 0)
(5.04362 -0.0450945 0)
(5.0425 -0.0706978 0)
(5.03629 -0.105494 0)
(5.02826 -0.14143 0)
(5.02028 -0.168353 0)
(5.01308 -0.180876 0)
(5.00751 -0.180819 0)
(5.00276 -0.176863 0)
(4.9984 -0.176676 0)
(4.99132 -0.190513 0)
(4.975 0.267924 0)
(4.98008 0.254219 0)
(4.99693 0.178422 0)
(5.03827 0.116725 0)
(5.07702 0.0713821 0)
(5.0958 0.0395479 0)
(5.09982 0.0186596 0)
(5.10032 -0.00117081 0)
(5.10221 -0.0277931 0)
(5.10614 -0.0602368 0)
(5.10914 -0.0922911 0)
(5.10746 -0.116809 0)
(5.09979 -0.129899 0)
(5.08687 -0.132456 0)
(5.07126 -0.129382 0)
(5.05462 -0.128346 0)
(5.03829 -0.134302 0)
(5.02005 -0.15355 0)
(5.0085 0.27343 0)
(5.04081 0.191406 0)
(5.08756 0.10027 0)
(5.13267 0.0417152 0)
(5.16079 0.0134211 0)
(5.17158 -0.00100285 0)
(5.17146 -0.013918 0)
(5.16353 -0.0313788 0)
(5.14844 -0.0528563 0)
(5.12981 -0.0781117 0)
(5.11444 -0.104591 0)
(5.10746 -0.126689 0)
(5.10921 -0.139411 0)
(5.11565 -0.141222 0)
(5.12165 -0.1349 0)
(5.12192 -0.127326 0)
(5.11408 -0.123124 0)
(5.09546 -0.130183 0)
(4.96359 0.260146 0)
(5.01733 0.189804 0)
(5.04555 0.11704 0)
(5.08181 0.0754417 0)
(5.12485 0.0538735 0)
(5.15487 0.0376494 0)
(5.16478 0.0269236 0)
(5.16444 0.0179475 0)
(5.16244 0.00153553 0)
(5.16139 -0.0284226 0)
(5.16155 -0.0692804 0)
(5.1609 -0.109871 0)
(5.15799 -0.137662 0)
(5.15207 -0.145586 0)
(5.14402 -0.135083 0)
(5.13342 -0.115324 0)
(5.12092 -0.0953822 0)
(5.10522 -0.0882609 0)
(4.98288 0.238799 0)
(5.0471 0.141724 0)
(5.12465 0.0484915 0)
(5.17852 -0.0169114 0)
(5.19885 -0.0391316 0)
(5.20736 -0.0333986 0)
(5.21975 -0.024014 0)
(5.2411 -0.0270993 0)
(5.26892 -0.0463158 0)
(5.29309 -0.0746108 0)
(5.30337 -0.103038 0)
(5.29609 -0.124444 0)
(5.27485 -0.134448 0)
(5.24663 -0.131938 0)
(5.22021 -0.119538 0)
(5.19992 -0.103836 0)
(5.18785 -0.091034 0)
(5.18026 -0.0899002 0)
(5.03585 0.255895 0)
(5.16412 0.118322 0)
(5.21723 0.0696918 0)
(5.21838 0.0478231 0)
(5.20612 0.0310443 0)
(5.20793 0.0159181 0)
(5.2299 0.000272943 0)
(5.26253 -0.0161521 0)
(5.29137 -0.0337285 0)
(5.3062 -0.0524323 0)
(5.30459 -0.070375 0)
(5.29096 -0.0848941 0)
(5.27337 -0.0937649 0)
(5.2585 -0.0956644 0)
(5.25108 -0.0907215 0)
(5.25009 -0.0819227 0)
(5.25377 -0.072671 0)
(5.2559 -0.0697466 0)
(5.0698 0.133989 0)
(5.07653 0.0406912 0)
(5.15306 0.0264072 0)
(5.21202 -0.00219531 0)
(5.24103 -0.0331449 0)
(5.26862 -0.0519587 0)
(5.30299 -0.0609425 0)
(5.33605 -0.067851 0)
(5.3581 -0.0760226 0)
(5.364 -0.0852304 0)
(5.35506 -0.0947661 0)
(5.33769 -0.10369 0)
(5.32054 -0.110601 0)
(5.30999 -0.113377 0)
(5.31007 -0.110608 0)
(5.31794 -0.104046 0)
(5.32957 -0.0961006 0)
(5.33667 -0.091704 0)
(5.02532 0.217106 0)
(5.16924 0.0936221 0)
(5.32462 0.0526698 0)
(5.40114 0.017826 0)
(5.41286 -0.00484595 0)
(5.406 -0.0193536 0)
(5.40581 -0.0311663 0)
(5.41388 -0.0404683 0)
(5.42196 -0.0458341 0)
(5.42211 -0.0489802 0)
(5.41198 -0.0538868 0)
(5.39578 -0.0638768 0)
(5.38164 -0.0782982 0)
(5.37536 -0.092259 0)
(5.37874 -0.0986207 0)
(5.38757 -0.0946664 0)
(5.39768 -0.0826065 0)
(5.40358 -0.0698946 0)
(4.97143 0.0455349 0)
(5.20256 -0.0520402 0)
(5.34682 -0.031884 0)
(5.41144 -0.0380951 0)
(5.44163 -0.0494725 0)
(5.45724 -0.0587374 0)
(5.46379 -0.0681955 0)
(5.46194 -0.0767622 0)
(5.4503 -0.0810346 0)
(5.42639 -0.080792 0)
(5.38982 -0.079624 0)
(5.34545 -0.0827862 0)
(5.29962 -0.0928707 0)
(5.25591 -0.107289 0)
(5.2145 -0.118586 0)
(5.17459 -0.121152 0)
(5.13329 -0.11464 0)
(5.09025 -0.103376 0)
(4.92313 0.0930949 0)
(5.0535 0.00647929 0)
(5.03753 -0.00330785 0)
(4.9198 -0.0204342 0)
(4.78258 -0.0264595 0)
(4.65075 -0.0264909 0)
(4.51415 -0.0293195 0)
(4.36276 -0.0324482 0)
(4.20718 -0.0300646 0)
(4.06506 -0.0234785 0)
(3.94024 -0.0204613 0)
(3.81854 -0.0267681 0)
(3.67863 -0.0403195 0)
(3.51059 -0.0521219 0)
(3.32486 -0.0536165 0)
(3.14604 -0.0437818 0)
(2.99108 -0.0270774 0)
(2.87274 -0.0109189 0)
(-0.00922347 0.0127248 -1.07714e-20)
(-0.01317 0.00219873 1.0694e-20)
(-0.0105487 0.000161349 0)
(-0.00936653 -0.000384018 0)
(-0.00643753 -0.00125808 0)
(-0.0028901 -0.0024424 -1.0365e-20)
(0.00218523 -0.00387745 0)
(0.00881749 -0.00553089 0)
(0.0172858 -0.00737462 0)
(0.0278062 -0.00938524 0)
(0.0405706 -0.0115343 9.93212e-21)
(0.0557423 -0.0137906 0)
(0.0734539 -0.0161213 0)
(0.0938055 -0.018492 0)
(0.116862 -0.0208685 0)
(0.142654 -0.0232168 9.48187e-21)
(0.171176 -0.0255045 0)
(0.202386 -0.0277008 0)
(0.23621 -0.0297779 0)
(0.272542 -0.0317108 0)
(0.311247 -0.0334786 0)
(0.352165 -0.0350642 0)
(0.395116 -0.0364544 0)
(0.4399 -0.0376406 8.75568e-21)
(0.486304 -0.038618 -8.66675e-21)
(0.534109 -0.0393856 8.57854e-21)
(0.583087 -0.0399458 8.49115e-21)
(0.633012 -0.0403042 0)
(0.683659 -0.0404691 0)
(0.734807 -0.0404508 -8.23437e-21)
(0.786245 -0.0402617 -8.15071e-21)
(0.83777 -0.039915 0)
(0.889195 -0.0394252 0)
(0.940341 -0.038807 -7.90586e-21)
(0.991047 -0.0380755 0)
(1.04117 -0.0372453 0)
(1.09057 -0.036331 7.67018e-21)
(1.13913 -0.0353462 0)
(1.18676 -0.0343041 7.51797e-21)
(1.23335 -0.0332168 1.48865e-20)
(1.27885 -0.0320956 0)
(1.32318 -0.0309509 0)
(1.3663 -0.0297919 0)
(1.40817 -0.0286269 0)
(1.44875 -0.0274634 0)
(1.48804 -0.0263077 1.40258e-20)
(1.52601 -0.0251655 1.38877e-20)
(1.56266 -0.0240415 1.37509e-20)
(1.598 -0.0229397 0)
(1.63203 -0.0218635 -1.34814e-20)
(1.66477 -0.0208156 0)
(1.69623 -0.0197981 1.32168e-20)
(1.72644 -0.0188127 1.30862e-20)
(1.75542 -0.0178606 0)
(1.7832 -0.0169425 0)
(1.8098 -0.0160589 0)
(1.83525 -0.01521 1.25745e-20)
(1.8596 -0.0143958 0)
(1.88286 -0.0136159 0)
(1.90508 -0.0128698 0)
(1.92629 -0.012157 0)
(1.94651 -0.0114767 0)
(1.9658 -0.0108281 0)
(1.98417 -0.0102103 0)
(2.00166 -0.0096223 0)
(2.01831 -0.00906311 -1.14775e-20)
(2.03415 -0.00853172 0)
(2.04921 -0.00802707 0)
(2.06352 -0.00754814 1.11267e-20)
(2.0771 -0.00709387 1.10113e-20)
(2.09 -0.00666323 0)
(2.10224 -0.0062552 -1.07828e-20)
(2.11385 -0.0058688 1.06697e-20)
(2.12485 -0.00550302 0)
(2.13527 -0.00515696 -1.04456e-20)
(2.14513 -0.00482965 0)
(2.15447 -0.00452023 0)
(2.16329 -0.00422782 1.01148e-20)
(2.17164 -0.00395161 0)
(2.17952 -0.00369077 -9.89788e-21)
(2.18696 -0.00344454 0)
(2.19398 -0.00321217 9.68372e-21)
(2.2006 -0.00299297 9.57767e-21)
(2.20684 -0.00278622 9.47232e-21)
(2.21272 -0.0025913 1.87353e-20)
(2.21824 -0.00240761 -1.85273e-20)
(2.22344 -0.00223442 0)
(2.22832 -0.00207137 0)
(2.23291 -0.00191779 0)
(2.2372 -0.00177272 -1.77088e-20)
(2.24123 -0.00163688 -1.75075e-20)
(2.245 -0.00150858 1.73075e-20)
(2.24853 -0.00138611 0)
(2.25182 -0.0012737 -1.69115e-20)
(2.2549 -0.00116713 -1.67155e-20)
(2.25777 -0.00105882 -1.65207e-20)
(2.26042 -0.000962195 0)
(2.2629 -0.00087393 0)
(2.2652 -0.000762937 0)
(2.26729 -0.000636831 -1.57544e-20)
(2.26917 -0.000520276 0)
(2.27087 -0.000422696 0)
(2.2724 -0.000344426 1.51928e-20)
(2.27378 -0.000284069 0)
(2.27503 -0.000237223 0)
(2.27616 -0.000198943 1.46423e-20)
(2.27719 -0.000165705 0)
(2.27812 -0.000135558 0)
(2.27895 -0.000107565 -1.41026e-20)
(2.2797 -8.13531e-05 -1.39251e-20)
(2.28037 -5.67505e-05 0)
(2.28095 -3.36723e-05 1.35736e-20)
(2.28147 -1.20431e-05 0)
(2.28191 8.19851e-06 -1.32267e-20)
(2.28229 2.71215e-05 0)
(2.2826 4.47904e-05 -1.28843e-20)
(2.28286 6.12746e-05 -1.27149e-20)
(2.28306 7.6637e-05 0)
(2.28321 9.09477e-05 0)
(2.28331 0.000104274 0)
(2.28336 0.000116671 0)
(2.28337 0.0001282 0)
(2.28334 0.000138921 0)
(2.28327 0.000148898 0)
(2.28316 0.000158185 -1.13983e-20)
(2.28302 0.000166808 1.12385e-20)
(2.28285 0.000174801 0)
(2.28264 0.000182196 0)
(2.28241 0.000189053 0)
(2.28214 0.000195413 0)
(2.28186 0.000201326 2.09098e-20)
(2.28154 0.000206814 0)
(2.2812 0.000211916 -2.02968e-20)
(2.28084 0.000216652 1.99933e-20)
(2.28046 0.000221059 0)
(2.28006 0.000225162 0)
(2.27964 0.000228987 0)
(2.2792 0.000232563 -1.87981e-20)
(2.27874 0.000235915 -1.8504e-20)
(2.27826 0.000239065 0)
(2.27777 0.000242026 -1.79213e-20)
(2.27726 0.000244823 -1.76326e-20)
(2.27674 0.000247479 1.73458e-20)
(2.2762 0.000250045 0)
(2.27565 0.000252543 0)
(2.27508 0.000255003 1.64957e-20)
(2.27449 0.000257438 0)
(2.27389 0.000259891 0)
(2.27328 0.000262399 0)
(2.27265 0.000265018 0)
(2.27201 0.000267795 -1.51127e-20)
(2.27135 0.000270798 -1.4841e-20)
(2.27067 0.000274098 0)
(2.26998 0.0002778 -1.43024e-20)
(2.26926 0.000282017 0)
(2.26852 0.000286908 0)
(2.26776 0.000292659 -1.35061e-20)
(2.26696 0.00029952 0)
(2.26613 0.000307793 -1.29827e-20)
(2.26527 0.000317877 0)
(2.26435 0.000330273 0)
(2.26338 0.000345639 -1.22085e-20)
(2.26234 0.000364814 0)
(2.26121 0.000388914 -1.16993e-20)
(2.25997 0.00041937 0)
(2.25859 0.000458172 0)
(2.25704 0.000507759 0)
(2.25525 0.000572066 1.06964e-20)
(2.25318 0.000655022 0)
(2.25071 0.000765299 -1.0202e-20)
(2.24776 0.000911494 0)
(2.24405 0.00109926 0)
(2.23948 0.00141596 0)
(2.23348 0.00162395 0)
(2.22568 0.00273576 0)
(2.21451 0.00215421 0)
(2.20063 0.00712854 0)
(2.17172 0.00294115 1.6488e-20)
(2.1482 0.0249637 0)
(2.03963 0.0192709 0)
(-0.00988665 0.0357227 3.23358e-20)
(-0.0125766 -0.000375237 -3.21046e-20)
(-0.00939425 -0.00704956 0)
(-0.00719296 -0.00868956 2.10842e-20)
(-0.00348837 -0.0112759 0)
(0.00100502 -0.0148862 1.03654e-20)
(0.00706527 -0.0193225 -2.05799e-20)
(0.0147969 -0.0244466 -2.04076e-20)
(0.024498 -0.0301477 0)
(0.0363905 -0.0363766 -2.00575e-20)
(0.0506805 -0.0430383 -9.93191e-21)
(0.0675388 -0.0500345 0)
(0.0871032 -0.0572628 0)
(0.109475 -0.0646146 0)
(0.134719 -0.0719818 0)
(0.162859 -0.0792583 -9.48107e-21)
(0.193884 -0.0863423 0)
(0.227742 -0.093139 1.86066e-20)
(0.264349 -0.0995621 0)
(0.303585 -0.105535 0)
(0.345301 -0.110994 -1.80567e-20)
(0.389322 -0.115885 0)
(0.435453 -0.12017 1.76935e-20)
(0.483478 -0.123822 -8.75404e-21)
(0.533173 -0.126826 8.66503e-21)
(0.584302 -0.12918 -8.57676e-21)
(0.636628 -0.130891 -8.48931e-21)
(0.689914 -0.131977 0)
(0.743924 -0.132464 0)
(0.798432 -0.132384 8.23239e-21)
(0.853218 -0.131774 -8.15146e-21)
(0.908077 -0.130675 0)
(0.962815 -0.129131 0)
(1.01725 -0.127188 7.90379e-21)
(1.07122 -0.12489 0)
(1.12458 -0.122283 0)
(1.17719 -0.119412 -7.66809e-21)
(1.22893 -0.116317 0)
(1.2797 -0.11304 7.51763e-21)
(1.32941 -0.109616 -1.48824e-20)
(1.37799 -0.106081 0)
(1.42537 -0.102467 0)
(1.47151 -0.0988017 -2.88926e-20)
(1.51636 -0.095111 -2.86074e-20)
(1.55988 -0.0914178 -2.83254e-20)
(1.60207 -0.0877423 1.40246e-20)
(1.64291 -0.0841019 -1.38837e-20)
(1.68239 -0.0805118 -4.12436e-20)
(1.72052 -0.0769848 2.72258e-20)
(1.7573 -0.0735316 1.34775e-20)
(1.79274 -0.0701612 0)
(1.82685 -0.0668806 -1.3213e-20)
(1.85967 -0.0636955 1.30847e-20)
(1.89121 -0.0606102 0)
(1.92149 -0.0576277 0)
(1.95055 -0.0547501 0)
(1.97842 -0.0519785 -1.25709e-20)
(2.00512 -0.0493131 0)
(2.03068 -0.0467537 2.46437e-20)
(2.05515 -0.0442992 0)
(2.07855 -0.0419482 2.41512e-20)
(2.10092 -0.0396989 0)
(2.12228 -0.0375492 -2.36656e-20)
(2.14269 -0.0354965 0)
(2.16216 -0.0335383 2.31867e-20)
(2.18073 -0.0316717 -1.14755e-20)
(2.19843 -0.029894 0)
(2.2153 -0.028202 -2.24805e-20)
(2.23137 -0.0265927 -1.11236e-20)
(2.24667 -0.0250631 -1.10082e-20)
(2.26122 -0.0236102 0)
(2.27507 -0.0222308 -1.07807e-20)
(2.28823 -0.020922 -1.06667e-20)
(2.30073 -0.0196808 0)
(2.31261 -0.0185044 1.04427e-20)
(2.32389 -0.0173899 -2.06642e-20)
(2.3346 -0.0163346 0)
(2.34475 -0.0153357 -1.01121e-20)
(2.35438 -0.0143908 0)
(2.3635 -0.0134972 2.96862e-20)
(2.37215 -0.0126526 0)
(2.38033 -0.0118547 -2.90439e-20)
(2.38808 -0.0111012 -9.57513e-21)
(2.39541 -0.0103899 9.47023e-21)
(2.40234 -0.00971874 1.87311e-20)
(2.40889 -0.0090858 -1.85232e-20)
(2.41508 -0.00848905 0)
(2.42092 -0.00792676 0)
(2.42644 -0.00739714 0)
(2.43164 -0.00689825 5.31134e-20)
(2.43655 -0.00642903 1.75031e-20)
(2.44117 -0.00598755 -1.73032e-20)
(2.44553 -0.00557148 0)
(2.44963 -0.00518158 -1.69077e-20)
(2.45349 -0.0048153 1.67113e-20)
(2.45712 -0.00446752 1.65166e-20)
(2.46055 -0.00414291 0)
(2.46376 -0.00384033 0)
(2.46677 -0.00354738 0)
(2.46964 -0.00326775 1.57506e-20)
(2.47236 -0.00299992 0)
(2.47496 -0.0027473 -3.07505e-20)
(2.47743 -0.00251759 -4.55679e-20)
(2.47977 -0.00230982 3.00093e-20)
(2.48198 -0.00212052 0)
(2.48405 -0.00194655 1.46391e-20)
(2.48599 -0.00178546 0)
(2.4878 -0.00163564 2.85562e-20)
(2.4895 -0.00149608 -1.40995e-20)
(2.49108 -0.00136608 -1.39221e-20)
(2.49256 -0.00124503 0)
(2.49393 -0.00113237 -4.07117e-20)
(2.49522 -0.00102757 2.67932e-20)
(2.49641 -0.000930127 1.32237e-20)
(2.49753 -0.00083956 0)
(2.49856 -0.000755428 1.28815e-20)
(2.49952 -0.000677306 3.81362e-20)
(2.50042 -0.000604805 0)
(2.50125 -0.000537552 2.47531e-20)
(2.50202 -0.000475205 2.44208e-20)
(2.50273 -0.000417442 2.40908e-20)
(2.50339 -0.000363945 0)
(2.504 -0.000314405 0)
(2.50457 -0.000268535 0)
(2.50509 -0.000226079 -1.1396e-20)
(2.50558 -0.000186841 -1.12362e-20)
(2.50602 -0.000150614 0)
(2.50643 -0.000117205 -2.18396e-20)
(2.50681 -8.63757e-05 -2.15263e-20)
(2.50716 -5.7942e-05 0)
(2.50748 -3.17007e-05 -2.09056e-20)
(2.50777 -7.50659e-06 -4.11965e-20)
(2.50804 1.48114e-05 2.02928e-20)
(2.50829 3.53784e-05 1.99894e-20)
(2.50851 5.43465e-05 0)
(2.50872 7.18341e-05 0)
(2.50891 8.79749e-05 0)
(2.50908 0.00010288 1.87945e-20)
(2.50923 0.000116657 -1.85005e-20)
(2.50937 0.000129398 -3.64167e-20)
(2.5095 0.000141191 1.79179e-20)
(2.50961 0.000152142 -1.76294e-20)
(2.50972 0.000162356 -1.73426e-20)
(2.50981 0.000171965 0)
(2.50989 0.000181051 0)
(2.50996 0.000189705 1.64928e-20)
(2.51002 0.000198003 0)
(2.51008 0.000206075 0)
(2.51012 0.000214043 -3.13164e-20)
(2.51015 0.00022207 0)
(2.51018 0.000230311 -1.51101e-20)
(2.5102 0.000238969 1.48385e-20)
(2.5102 0.000248264 0)
(2.5102 0.000258482 -1.43001e-20)
(2.51018 0.000269954 0)
(2.51015 0.000283116 0)
(2.51011 0.000298483 1.35039e-20)
(2.51004 0.000316731 -2.64831e-20)
(2.50996 0.000338689 1.29806e-20)
(2.50984 0.000365435 0)
(2.5097 0.000398329 0)
(2.50951 0.000439139 -1.22066e-20)
(2.50927 0.000490136 0)
(2.50897 0.000554291 -1.16975e-20)
(2.50858 0.000635516 0)
(2.50808 0.000738909 0)
(2.50745 0.000871607 0)
(2.50663 0.00104224 -1.06948e-20)
(2.50559 0.00126605 0)
(2.5042 0.00155367 1.02005e-20)
(2.5025 0.00195441 0)
(2.50002 0.00243396 0)
(2.49727 0.00327031 -1.89328e-20)
(2.49251 0.00392671 1.84461e-20)
(2.488 0.00628723 0)
(2.47837 0.00639159 0)
(2.47003 0.0148517 0)
(2.45061 0.0126655 -4.94736e-20)
(2.43413 0.0458999 0)
(2.40273 0.0491252 3.10157e-20)
(-0.0104449 0.0612544 3.56796e-23)
(-0.0152338 0.000500797 4.2855e-20)
(-0.0143424 -0.0101534 0)
(-0.0144749 -0.0129485 -4.22016e-20)
(-0.0129622 -0.0174009 0)
(-0.0106041 -0.023668 0)
(-0.00654512 -0.0313257 -3.2099e-23)
(-0.000520286 -0.040166 2.04079e-20)
(0.00770004 -0.0500322 2.02637e-20)
(0.0183111 -0.0608445 2.00578e-20)
(0.0315957 -0.0723882 0)
(0.0477228 -0.0844868 0)
(0.0668379 -0.0969852 -1.95449e-20)
(0.0890443 -0.109678 -3.87237e-20)
(0.114395 -0.122382 3.83556e-20)
(0.142902 -0.134908 0)
(0.174531 -0.14708 3.76157e-20)
(0.209206 -0.158731 -1.86057e-20)
(0.246815 -0.169713 0)
(0.287208 -0.179896 3.65045e-20)
(0.330203 -0.18917 1.80553e-20)
(0.375593 -0.197448 -3.57689e-20)
(0.423149 -0.204669 -1.76918e-20)
(0.472627 -0.21079 0)
(0.523773 -0.215792 3.46828e-20)
(0.576327 -0.219676 3.43269e-20)
(0.630031 -0.222462 0)
(0.684628 -0.224183 3.36262e-20)
(0.739869 -0.224887 0)
(0.795518 -0.224634 3.29414e-20)
(0.851348 -0.223489 1.6298e-20)
(0.907149 -0.221526 0)
(0.962726 -0.218821 0)
(1.0179 -0.215452 0)
(1.07251 -0.211497 0)
(1.12642 -0.207033 0)
(1.17949 -0.202135 0)
(1.23161 -0.196872 3.03719e-20)
(1.2827 -0.191311 -4.51008e-20)
(1.33265 -0.185515 0)
(1.38142 -0.179541 0)
(1.42894 -0.17344 0)
(1.47517 -0.167261 -5.04567e-24)
(1.52008 -0.161045 2.86044e-20)
(1.56364 -0.154829 5.66497e-20)
(1.60583 -0.148647 -5.60916e-20)
(1.64666 -0.142526 -2.77719e-20)
(1.68611 -0.136492 2.74941e-20)
(1.72419 -0.130566 4.15116e-24)
(1.76092 -0.124763 2.69593e-20)
(1.79631 -0.1191 0)
(1.83038 -0.113587 2.643e-20)
(1.86314 -0.108234 3.5745e-24)
(1.89463 -0.103047 0)
(1.92487 -0.0980314 0)
(1.95389 -0.0931905 -2.5398e-20)
(1.98172 -0.0885258 0)
(2.00838 -0.084038 0)
(2.03393 -0.0797264 2.46479e-20)
(2.05838 -0.0755894 4.87959e-20)
(2.08176 -0.0716247 -2.415e-20)
(2.10413 -0.0678293 0)
(2.12549 -0.0641997 2.36646e-20)
(2.1459 -0.0607319 0)
(2.16538 -0.0574217 2.31898e-20)
(2.18397 -0.0542645 2.29489e-20)
(2.2017 -0.0512556 -4.54307e-20)
(2.2186 -0.0483901 -2.24832e-20)
(2.2347 -0.045663 0)
(2.25003 -0.0430693 4.40366e-20)
(2.26462 -0.0406042 0)
(2.27851 -0.0382624 6.46824e-20)
(2.29171 -0.0360393 4.26699e-20)
(2.30427 -0.0339298 4.22202e-20)
(2.31619 -0.0319293 -4.17735e-20)
(2.32752 -0.030033 6.19934e-20)
(2.33828 -0.0282365 0)
(2.34848 -0.0265353 0)
(2.35816 -0.0249251 -4.00153e-20)
(2.36734 -0.0234018 -5.93734e-20)
(2.37603 -0.0219614 0)
(2.38427 -0.0206 1.93624e-20)
(2.39207 -0.0193139 0)
(2.39945 -0.0180994 -5.68205e-20)
(2.40643 -0.0169531 1.16844e-24)
(2.41304 -0.0158716 -1.09029e-24)
(2.41928 -0.0148519 3.6633e-20)
(2.42517 -0.0138906 0)
(2.43074 -0.012985 -3.58147e-20)
(2.43599 -0.0121324 8.21174e-25)
(2.44095 -0.0113296 0)
(2.44562 -0.0105742 0)
(2.45002 -0.00986475 0)
(2.45417 -0.00919705 3.38147e-20)
(2.45808 -0.00856901 0)
(2.46175 -0.00798224 0)
(2.46521 -0.00743078 0)
(2.46846 -0.00691113 0)
(2.4715 -0.00642999 0)
(2.47437 -0.00598254 3.15016e-20)
(2.47708 -0.00556324 0)
(2.47963 -0.00517615 3.07502e-20)
(2.48201 -0.00481227 3.03785e-20)
(2.48425 -0.00446771 -3.00091e-20)
(2.48635 -0.0041417 0)
(2.48831 -0.00383423 -2.92778e-20)
(2.49014 -0.00354527 0)
(2.49186 -0.00327455 -2.8556e-20)
(2.49347 -0.00302151 2.81987e-20)
(2.49497 -0.00278533 8.35317e-20)
(2.49637 -0.00256513 0)
(2.49768 -0.00235997 8.14231e-20)
(2.4989 -0.00216894 2.67932e-20)
(2.50004 -0.00199119 0)
(2.5011 -0.00182589 5.22081e-20)
(2.50209 -0.00167225 5.15259e-20)
(2.50302 -0.00152953 -7.62721e-20)
(2.50388 -0.00139705 0)
(2.50468 -0.00127415 -2.47529e-20)
(2.50542 -0.00116022 -2.44207e-20)
(2.50611 -0.00105467 -7.22719e-20)
(2.50675 -0.000956907 0)
(2.50735 -0.000866399 0)
(2.5079 -0.000782645 0)
(2.50842 -0.000705201 -2.27918e-20)
(2.50889 -0.000633655 0)
(2.50934 -0.000567617 0)
(2.50975 -0.000506697 2.18395e-20)
(2.51012 -0.00045052 2.15261e-20)
(2.51048 -0.00039874 0)
(2.5108 -0.00035103 0)
(2.5111 -0.000307091 4.11962e-20)
(2.51138 -0.00026663 0)
(2.51164 -0.000229384 -3.99784e-20)
(2.51188 -0.000195092 -3.93754e-20)
(2.5121 -0.000163526 0)
(2.5123 -0.000134457 0)
(2.51249 -0.00010769 3.75888e-20)
(2.51267 -8.30397e-05 -2.45749e-27)
(2.51283 -6.034e-05 -3.66768e-27)
(2.51298 -3.94143e-05 0)
(2.51312 -2.00711e-05 7.0517e-20)
(2.51324 -2.12265e-06 0)
(2.51336 1.46297e-05 0)
(2.51347 3.0348e-05 0)
(2.51357 4.52037e-05 -3.29852e-20)
(2.51366 5.93596e-05 0)
(2.51374 7.30106e-05 6.37384e-20)
(2.51381 8.63545e-05 3.13162e-20)
(2.51388 9.96331e-05 0)
(2.51394 0.000113108 3.022e-20)
(2.51398 0.000127098 0)
(2.51402 0.000141966 0)
(2.51405 0.000158168 8.57996e-20)
(2.51407 0.000176237 -5.61321e-20)
(2.51408 0.000196851 0)
(2.51407 0.000220833 -5.40153e-20)
(2.51404 0.000249234 2.64829e-20)
(2.51399 0.000283364 0)
(2.51392 0.000324902 0)
(2.51381 0.000375978 0)
(2.51366 0.000439341 7.32391e-20)
(2.51346 0.000518541 0)
(2.51319 0.000618171 2.33948e-20)
(2.51284 0.000744364 0)
(2.51238 0.000904841 0)
(2.51178 0.00111112 0)
(2.51099 0.00137513 0)
(2.50999 0.0017238 0)
(2.50864 0.00216508 0)
(2.50695 0.00279026 3.98208e-20)
(2.50454 0.003526 0)
(2.50175 0.00477965 1.89326e-20)
(2.49721 0.00594667 -5.53401e-20)
(2.49253 0.00896464 0)
(2.48382 0.0106066 0)
(2.47516 0.0195302 3.39787e-20)
(2.45971 0.0225101 3.29875e-20)
(2.44365 0.0510129 -3.20277e-20)
(2.42125 0.0648674 -3.10142e-20)
(-0.0114484 0.0910861 -6.48958e-20)
(-0.0194635 0.00690003 -6.44348e-20)
(-0.0219525 -0.00757527 -4.26636e-20)
(-0.0256325 -0.0117129 -2.12151e-20)
(-0.0275047 -0.0184213 0)
(-0.0282663 -0.0278027 4.16567e-20)
(-0.0270534 -0.0391755 -2.07017e-20)
(-0.0236062 -0.0522946 0)
(-0.0176756 -0.0669554 -2.02629e-20)
(-0.00891071 -0.0829821 0)
(0.00307074 -0.100066 3.98942e-20)
(0.0183008 -0.117982 0)
(0.0369574 -0.136535 1.95455e-20)
(0.0591837 -0.155254 3.87243e-20)
(0.0849895 -0.173956 -3.83558e-20)
(0.114372 -0.192342 0)
(0.147263 -0.210148 -3.7615e-20)
(0.183542 -0.227127 0)
(0.223047 -0.243061 0)
(0.265573 -0.257762 -3.65024e-20)
(0.310882 -0.271076 0)
(0.35871 -0.282885 -3.22375e-23)
(0.408775 -0.293107 0)
(0.460782 -0.301694 0)
(0.514431 -0.30863 2.34474e-23)
(0.569422 -0.313927 -3.43227e-20)
(0.62546 -0.317626 -3.39892e-20)
(0.682263 -0.319787 -3.36215e-20)
(0.739561 -0.32049 0)
(0.797098 -0.319827 -6.58872e-20)
(0.854642 -0.317903 0)
(0.911975 -0.314829 -3.22806e-20)
(0.968902 -0.310718 0)
(1.02525 -0.305685 0)
(1.08086 -0.299846 3.13089e-20)
(1.1356 -0.293311 0)
(1.18935 -0.286186 -3.06828e-20)
(1.24201 -0.278571 8.43139e-24)
(1.29349 -0.27056 6.01377e-20)
(1.34373 -0.262241 -5.95475e-20)
(1.39268 -0.253692 0)
(1.44028 -0.244987 0)
(1.48651 -0.236188 -2.89048e-20)
(1.53134 -0.227355 0)
(1.57477 -0.218538 -2.83238e-20)
(1.61677 -0.209781 2.80449e-20)
(1.65737 -0.201123 2.77688e-20)
(1.69655 -0.192597 0)
(1.73434 -0.184229 -2.72249e-20)
(1.77075 -0.176044 -2.69567e-20)
(1.8058 -0.168061 5.33926e-20)
(1.83952 -0.160293 -2.64277e-20)
(1.87193 -0.152754 -2.61666e-20)
(1.90306 -0.145451 0)
(1.93294 -0.138392 0)
(1.9616 -0.131579 2.53962e-20)
(1.98907 -0.125016 0)
(2.01539 -0.118701 0)
(2.04059 -0.112634 -4.92873e-20)
(2.06471 -0.106813 -4.87931e-20)
(2.08778 -0.101234 0)
(2.10983 -0.0958919 0)
(2.1309 -0.0907826 0)
(2.15102 -0.0859002 0)