/*--------------------------------*- C++ -*----------------------------------*\
  =========                 |
  \\      /  F ield         | OpenFOAM: The Open Source CFD Toolbox
   \\    /   O peration     | Website:  https://openfoam.org
    \\  /    A nd           | Version:  7
     \\/     M anipulation  |
\*---------------------------------------------------------------------------*/
FoamFile
{
    version     2.0;
    format      ascii;
    class       volSymmTensorField;
    location    "0.005";
    object      UPrime2Mean;
}
// * * * * * * * * * * * * * * * * * * * * * * * * * * * * * * * * * * * * * //

dimensions      [0 2 -2 0 0 0 0];

internalField   nonuniform List<symmTensor> 
12225
(
(0.0165946 -0.00293354 0 0.00140661 0 0)
(0.347842 -0.0153196 0 0.00146722 0 0)
(0.484824 -0.0198068 0 0.0016548 0 0)
(0.596946 -0.0206177 0 0.00147421 0 0)
(0.76888 -0.0204386 0 0.00116029 0 0)
(0.967266 -0.0191164 0 0.000822492 0 0)
(1.14702 -0.0145002 0 0.000459768 0 0)
(1.28078 -0.00925724 0 0.0001528 0 0)
(1.3621 -0.00516111 0 7.6255e-05 0 0)
(1.42435 -0.000979803 0 4.54069e-05 0 0)
(1.44647 -0.0045428 0 7.51614e-05 0 0)
(1.53076 0.00193609 0 0.000282555 0 0)
(1.55245 -0.017966 0 0.000813333 0 0)
(1.76029 0.0123712 0 0.00218037 0 0)
(1.83757 -0.0746019 0 0.00913033 0 0)
(2.45706 0.0854208 0 0.0200159 0 0)
(2.95689 -0.452645 0 0.139438 0 0)
(6.05009 0.364109 0 0.0981585 0 0)
(0.0159153 -0.00176695 0 0.000735169 0 0)
(0.234125 -0.00750338 0 0.00055898 0 0)
(0.252134 -0.0106122 0 0.00123162 0 0)
(0.250318 -0.0105647 0 0.00160711 0 0)
(0.280037 -0.0109107 0 0.00179341 0 0)
(0.319948 -0.0112973 0 0.00173243 0 0)
(0.363124 -0.0110656 0 0.00139416 0 0)
(0.406356 -0.00923467 0 0.000928325 0 0)
(0.446658 -0.00743339 0 0.000450296 0 0)
(0.492595 -0.00620692 0 0.000240168 0 0)
(0.529575 -0.00639478 0 0.000222913 0 0)
(0.597301 -0.0108149 0 0.000443105 0 0)
(0.638479 -0.0129914 0 0.00111928 0 0)
(0.787999 -0.034088 0 0.00344037 0 0)
(0.842481 -0.0356384 0 0.00618665 0 0)
(1.30994 -0.147866 0 0.0293512 0 0)
(1.38259 -0.176254 0 0.0304987 0 0)
(2.82191 -1.00013 0 0.3995 0 0)
(0.0115733 -0.00213841 0 0.00137439 0 0)
(0.230117 -0.0130744 0 0.00171875 0 0)
(0.240996 -0.0158018 0 0.00309348 0 0)
(0.229158 -0.014082 0 0.00381069 0 0)
(0.243038 -0.0125662 0 0.00385956 0 0)
(0.262491 -0.0120242 0 0.00351696 0 0)
(0.28315 -0.011268 0 0.00293892 0 0)
(0.306695 -0.0107072 0 0.00191588 0 0)
(0.334614 -0.0104978 0 0.00137 0 0)
(0.367094 -0.0106317 0 0.000780871 0 0)
(0.408135 -0.0144896 0 0.000900426 0 0)
(0.455923 -0.0169349 0 0.0010434 0 0)
(0.524692 -0.0313446 0 0.00274073 0 0)
(0.611014 -0.0371466 0 0.00323199 0 0)
(0.756856 -0.0940857 0 0.0162896 0 0)
(0.947065 -0.117088 0 0.0166647 0 0)
(1.26173 -0.37736 0 0.130853 0 0)
(1.60119 -0.683589 0 0.319595 0 0)
(0.0130147 -0.00344966 0 0.00204716 0 0)
(0.226372 -0.0138333 0 0.00206838 0 0)
(0.236326 -0.015466 0 0.00308448 0 0)
(0.225245 -0.0138357 0 0.00375263 0 0)
(0.238267 -0.0125337 0 0.00385136 0 0)
(0.255711 -0.012142 0 0.00361737 0 0)
(0.274148 -0.0123461 0 0.00317432 0 0)
(0.295011 -0.012525 0 0.00264924 0 0)
(0.319363 -0.0132909 0 0.00198801 0 0)
(0.349384 -0.0151582 0 0.00165813 0 0)
(0.385701 -0.0189874 0 0.00166034 0 0)
(0.432943 -0.0269917 0 0.00247824 0 0)
(0.492569 -0.0387132 0 0.00390849 0 0)
(0.577532 -0.0635181 0 0.00832378 0 0)
(0.689186 -0.101577 0 0.0163129 0 0)
(0.845948 -0.187458 0 0.046088 0 0)
(1.03548 -0.349974 0 0.124291 0 0)
(1.14929 -0.606234 0 0.334929 0 0)
(0.0127731 -0.00392066 0 0.00279261 0 0)
(0.222108 -0.0175421 0 0.00313254 0 0)
(0.229366 -0.0185917 0 0.0044452 0 0)
(0.218475 -0.0164655 0 0.00554454 0 0)
(0.231811 -0.0149394 0 0.00573669 0 0)
(0.249138 -0.0148435 0 0.00543627 0 0)
(0.267017 -0.0153987 0 0.00500909 0 0)
(0.286954 -0.0164279 0 0.00423881 0 0)
(0.310366 -0.0182589 0 0.00377049 0 0)
(0.338807 -0.0212488 0 0.00341245 0 0)
(0.37411 -0.0275422 0 0.00387715 0 0)
(0.418067 -0.0367322 0 0.00497118 0 0)
(0.473896 -0.054116 0 0.00816621 0 0)
(0.545434 -0.0793333 0 0.0133917 0 0)
(0.636472 -0.128616 0 0.0290644 0 0)
(0.743193 -0.206762 0 0.0614482 0 0)
(0.84604 -0.344346 0 0.146648 0 0)
(0.858155 -0.540775 0 0.371828 0 0)
(0.0123739 -0.00466899 0 0.00311456 0 0)
(0.22304 -0.0202053 0 0.0042599 0 0)
(0.227979 -0.0204703 0 0.00568749 0 0)
(0.215341 -0.0175946 0 0.00682394 0 0)
(0.227281 -0.0159383 0 0.00712733 0 0)
(0.243277 -0.0160075 0 0.00693673 0 0)
(0.259823 -0.0171755 0 0.00658746 0 0)
(0.278213 -0.0189031 0 0.00612883 0 0)
(0.299414 -0.021462 0 0.00566642 0 0)
(0.324922 -0.0256066 0 0.00557367 0 0)
(0.356372 -0.0327027 0 0.00620415 0 0)
(0.394882 -0.0442929 0 0.00814109 0 0)
(0.442457 -0.0627161 0 0.0122015 0 0)
(0.499448 -0.0917426 0 0.0204186 0 0)
(0.566776 -0.138918 0 0.0382184 0 0)
(0.631364 -0.210827 0 0.0761375 0 0)
(0.678516 -0.319945 0 0.161526 0 0)
(0.64646 -0.441775 0 0.323953 0 0)
(0.013477 -0.00472335 0 0.00345893 0 0)
(0.217777 -0.0222893 0 0.00506204 0 0)
(0.218794 -0.0219665 0 0.00654128 0 0)
(0.20671 -0.0188662 0 0.00786583 0 0)
(0.219509 -0.0177362 0 0.0084792 0 0)
(0.235074 -0.0184816 0 0.00852921 0 0)
(0.250157 -0.0201424 0 0.00838908 0 0)
(0.266525 -0.0223879 0 0.00813235 0 0)
(0.285567 -0.0256901 0 0.00806797 0 0)
(0.308413 -0.0307836 0 0.00847798 0 0)
(0.335957 -0.0390485 0 0.00978725 0 0)
(0.368576 -0.0518042 0 0.0126436 0 0)
(0.406859 -0.0712309 0 0.0181158 0 0)
(0.44945 -0.100295 0 0.0285072 0 0)
(0.494611 -0.143543 0 0.0485456 0 0)
(0.52933 -0.204883 0 0.0885556 0 0)
(0.542136 -0.283593 0 0.161147 0 0)
(0.493212 -0.359857 0 0.288079 0 0)
(0.00903698 -0.00440525 0 0.00402109 0 0)
(0.210823 -0.0245419 0 0.00609414 0 0)
(0.212979 -0.0235476 0 0.00804995 0 0)
(0.202003 -0.0198727 0 0.00974394 0 0)
(0.214481 -0.0188127 0 0.0107726 0 0)
(0.228734 -0.0198204 0 0.0110483 0 0)
(0.242355 -0.0218384 0 0.0109256 0 0)
(0.257436 -0.0245885 0 0.0106852 0 0)
(0.274884 -0.0284484 0 0.0106599 0 0)
(0.295205 -0.0341485 0 0.0112423 0 0)
(0.318743 -0.0428696 0 0.0128795 0 0)
(0.345275 -0.0558983 0 0.0163137 0 0)
(0.374706 -0.0751095 0 0.0227304 0 0)
(0.404912 -0.102599 0 0.0344442 0 0)
(0.433002 -0.140901 0 0.0554651 0 0)
(0.447638 -0.190126 0 0.0929635 0 0)
(0.44093 -0.246151 0 0.154317 0 0)
(0.389222 -0.291862 0 0.248532 0 0)
(0.0122129 -0.00478828 0 0.00388946 0 0)
(0.207964 -0.0262616 0 0.00686321 0 0)
(0.204954 -0.0243899 0 0.00894049 0 0)
(0.193264 -0.019568 0 0.0105814 0 0)
(0.205455 -0.0181214 0 0.0117678 0 0)
(0.218723 -0.0192727 0 0.0123946 0 0)
(0.230962 -0.0217122 0 0.0127121 0 0)
(0.244448 -0.0250903 0 0.0130049 0 0)
(0.259962 -0.029739 0 0.0135799 0 0)
(0.277656 -0.0362295 0 0.0148062 0 0)
(0.297539 -0.0456071 0 0.017197 0 0)
(0.319164 -0.0590344 0 0.0215938 0 0)
(0.34173 -0.077867 0 0.0291284 0 0)
(0.362452 -0.10321 0 0.0418783 0 0)
(0.377927 -0.135672 0 0.0625862 0 0)
(0.379114 -0.173292 0 0.0959203 0 0)
(0.361912 -0.210975 0 0.144628 0 0)
(0.312688 -0.235687 0 0.211296 0 0)
(0.00964434 -0.00544004 0 0.00626956 0 0)
(0.209622 -0.0301474 0 0.00986312 0 0)
(0.207496 -0.0281955 0 0.0124125 0 0)
(0.194805 -0.0228608 0 0.0143807 0 0)
(0.205946 -0.0214385 0 0.0159212 0 0)
(0.218243 -0.0230598 0 0.0169172 0 0)
(0.22934 -0.0260812 0 0.0175156 0 0)
(0.241281 -0.029952 0 0.0179664 0 0)
(0.254637 -0.0348664 0 0.0185474 0 0)
(0.269326 -0.0414108 0 0.0198049 0 0)
(0.285005 -0.0505026 0 0.0223327 0 0)
(0.300762 -0.0630274 0 0.026971 0 0)
(0.315368 -0.0798118 0 0.0346749 0 0)
(0.326106 -0.10105 0 0.0470067 0 0)
(0.330222 -0.126247 0 0.0655948 0 0)
(0.321522 -0.152687 0 0.0930092 0 0)
(0.299193 -0.17614 0 0.129567 0 0)
(0.25532 -0.187561 0 0.175478 0 0)
(0.017671 -0.00666161 0 0.0054049 0 0)
(0.215031 -0.0328563 0 0.00942771 0 0)
(0.20775 -0.0310826 0 0.0122304 0 0)
(0.192145 -0.0252707 0 0.0143482 0 0)
(0.201282 -0.023567 0 0.0161146 0 0)
(0.211409 -0.0249597 0 0.017533 0 0)
(0.219767 -0.0275708 0 0.0186899 0 0)
(0.228453 -0.0308117 0 0.0197206 0 0)
(0.238176 -0.035066 0 0.0209604 0 0)
(0.248831 -0.0408984 0 0.0227841 0 0)
(0.260025 -0.0491326 0 0.0258318 0 0)
(0.270816 -0.0603325 0 0.0308814 0 0)
(0.279827 -0.0748393 0 0.0386783 0 0)
(0.284653 -0.0922484 0 0.0502949 0 0)
(0.283208 -0.111591 0 0.0664772 0 0)
(0.271388 -0.130081 0 0.0883513 0 0)
(0.250117 -0.144709 0 0.114987 0 0)
(0.214003 -0.149189 0 0.145667 0 0)
(0.0115811 -0.00650311 0 0.00721872 0 0)
(0.208979 -0.0338745 0 0.0120509 0 0)
(0.203372 -0.0323263 0 0.0151063 0 0)
(0.188527 -0.0261427 0 0.0172318 0 0)
(0.197655 -0.0243546 0 0.0189942 0 0)
(0.207487 -0.0260135 0 0.0205865 0 0)
(0.215418 -0.0290016 0 0.0220277 0 0)
(0.223194 -0.032456 0 0.0233433 0 0)
(0.23127 -0.036566 0 0.0247186 0 0)
(0.239575 -0.0420276 0 0.0267401 0 0)
(0.247649 -0.0495581 0 0.0300289 0 0)
(0.254604 -0.0595094 0 0.0351971 0 0)
(0.259213 -0.071907 0 0.0426824 0 0)
(0.259595 -0.0860326 0 0.0530624 0 0)
(0.254347 -0.100751 0 0.0664042 0 0)
(0.240817 -0.113601 0 0.0830228 0 0)
(0.220644 -0.122489 0 0.101583 0 0)
(0.189716 -0.123026 0 0.121361 0 0)
(0.0123958 -0.00697038 0 0.00681146 0 0)
(0.20862 -0.0353341 0 0.0123153 0 0)
(0.200253 -0.0332993 0 0.0159998 0 0)
(0.183925 -0.0261743 0 0.0184844 0 0)
(0.192079 -0.0239055 0 0.0203947 0 0)
(0.200992 -0.0255485 0 0.0221555 0 0)
(0.20793 -0.0286974 0 0.0238027 0 0)
(0.214641 -0.0323815 0 0.0253719 0 0)
(0.22142 -0.0366622 0 0.0270662 0 0)
(0.227891 -0.0419919 0 0.0294434 0 0)
(0.233522 -0.0489445 0 0.0330197 0 0)
(0.237439 -0.0576783 0 0.0382604 0 0)
(0.238597 -0.0680083 0 0.0453887 0 0)
(0.235677 -0.0790822 0 0.0546122 0 0)
(0.227891 -0.0897859 0 0.0655176 0 0)
(0.213734 -0.0980952 0 0.0778978 0 0)
(0.195153 -0.102659 0 0.0902476 0 0)
(0.168986 -0.100566 0 0.102099 0 0)
(0.0135166 -0.00765438 0 0.00793797 0 0)
(0.211833 -0.0379915 0 0.0152783 0 0)
(0.203315 -0.0358883 0 0.0194455 0 0)
(0.185305 -0.0281376 0 0.02218 0 0)
(0.192179 -0.0257647 0 0.0246141 0 0)
(0.199903 -0.0276979 0 0.0270356 0 0)
(0.205435 -0.0312704 0 0.0292894 0 0)
(0.210376 -0.035199 0 0.0310843 0 0)
(0.215002 -0.039384 0 0.032624 0 0)
(0.218992 -0.0441779 0 0.0344811 0 0)
(0.221731 -0.0500069 0 0.0373528 0 0)
(0.222389 -0.0568992 0 0.0416541 0 0)
(0.220119 -0.0645321 0 0.0473531 0 0)
(0.214107 -0.0719987 0 0.05427 0 0)
(0.20414 -0.0783337 0 0.0616789 0 0)
(0.189721 -0.082131 0 0.0691235 0 0)
(0.172974 -0.0828853 0 0.075424 0 0)
(0.151424 -0.0790265 0 0.0805241 0 0)
(0.0140773 -0.00714094 0 0.00809243 0 0)
(0.206547 -0.0394215 0 0.0148607 0 0)
(0.195009 -0.0370916 0 0.0195994 0 0)
(0.176414 -0.0291962 0 0.0232773 0 0)
(0.18234 -0.0265008 0 0.0263458 0 0)
(0.188267 -0.0278285 0 0.0291122 0 0)
(0.191455 -0.0304017 0 0.0315742 0 0)
(0.193795 -0.0330083 0 0.0335911 0 0)
(0.195718 -0.0356912 0 0.0352812 0 0)
(0.196934 -0.0388222 0 0.0371586 0 0)
(0.196986 -0.0427098 0 0.0396912 0 0)
(0.195314 -0.0472334 0 0.0430863 0 0)
(0.191329 -0.0520136 0 0.0471945 0 0)
(0.184692 -0.0563005 0 0.0517219 0 0)
(0.175517 -0.0595302 0 0.0559551 0 0)
(0.163805 -0.060871 0 0.0594754 0 0)
(0.151319 -0.0604083 0 0.0615161 0 0)
(0.13572 -0.0571364 0 0.0622156 0 0)
(0.0125218 -0.00727179 0 0.00769195 0 0)
(0.203699 -0.0407398 0 0.0152105 0 0)
(0.191332 -0.0389468 0 0.0212563 0 0)
(0.172152 -0.0305839 0 0.025491 0 0)
(0.176573 -0.0272833 0 0.028698 0 0)
(0.180503 -0.0280039 0 0.0314683 0 0)
(0.181803 -0.0299276 0 0.0338794 0 0)
(0.182341 -0.0317257 0 0.0357728 0 0)
(0.182306 -0.0332691 0 0.0372434 0 0)
(0.181412 -0.0348577 0 0.038579 0 0)
(0.179385 -0.0368069 0 0.0401195 0 0)
(0.175997 -0.0391074 0 0.0420706 0 0)
(0.171008 -0.0415526 0 0.0443165 0 0)
(0.164408 -0.0436406 0 0.0465727 0 0)
(0.15638 -0.045044 0 0.0482061 0 0)
(0.147059 -0.0452468 0 0.0488719 0 0)
(0.137723 -0.0444657 0 0.0480526 0 0)
(0.126293 -0.0420432 0 0.0460076 0 0)
(0.0148042 -0.0064164 0 0.00738153 0 0)
(0.204352 -0.0402876 0 0.0153271 0 0)
(0.188624 -0.0386295 0 0.0218666 0 0)
(0.167041 -0.0297397 0 0.0262199 0 0)
(0.169298 -0.0256155 0 0.0293817 0 0)
(0.170917 -0.0254007 0 0.0320336 0 0)
(0.169862 -0.0261673 0 0.0342119 0 0)
(0.168201 -0.0264948 0 0.0356891 0 0)
(0.166271 -0.0263315 0 0.036497 0 0)
(0.163849 -0.0261564 0 0.0370659 0 0)
(0.160779 -0.026414 0 0.0378318 0 0)
(0.156975 -0.0271354 0 0.0389003 0 0)
(0.152275 -0.0281087 0 0.0400112 0 0)
(0.146774 -0.0289323 0 0.0407419 0 0)
(0.140608 -0.029423 0 0.0405033 0 0)
(0.133968 -0.0293304 0 0.0390317 0 0)
(0.127673 -0.0289296 0 0.0362227 0 0)
(0.119986 -0.0278603 0 0.0324703 0 0)
(0.0110604 -0.00586262 0 0.00845526 0 0)
(0.191606 -0.0394948 0 0.0160167 0 0)
(0.176047 -0.0374328 0 0.0213476 0 0)
(0.15538 -0.0275166 0 0.0252714 0 0)
(0.156818 -0.0220906 0 0.0278977 0 0)
(0.156647 -0.0203468 0 0.0295505 0 0)
(0.154224 -0.0197181 0 0.0306709 0 0)
(0.152021 -0.0190585 0 0.0315913 0 0)
(0.150071 -0.018194 0 0.0324883 0 0)
(0.14788 -0.0173162 0 0.0333818 0 0)
(0.145242 -0.0166633 0 0.0342408 0 0)
(0.142179 -0.0162721 0 0.0349691 0 0)
(0.138664 -0.0160873 0 0.0353544 0 0)
(0.134866 -0.0159575 0 0.0351415 0 0)
(0.130828 -0.0159264 0 0.0339867 0 0)
(0.126662 -0.0159165 0 0.0317912 0 0)
(0.122758 -0.0162122 0 0.0285831 0 0)
(0.117792 -0.0164656 0 0.0246573 0 0)
(0.0123542 -0.00517323 0 0.00764787 0 0)
(0.197241 -0.0391446 0 0.012629 0 0)
(0.179028 -0.0353527 0 0.0164964 0 0)
(0.15557 -0.0251126 0 0.0194574 0 0)
(0.155393 -0.0197638 0 0.0214842 0 0)
(0.15403 -0.018186 0 0.0229935 0 0)
(0.150535 -0.0177596 0 0.0241226 0 0)
(0.147178 -0.0172644 0 0.0246623 0 0)
(0.144018 -0.0164903 0 0.0244913 0 0)
(0.140691 -0.0156073 0 0.0238739 0 0)
(0.137141 -0.0148539 0 0.0232428 0 0)
(0.133473 -0.0143464 0 0.0228256 0 0)
(0.129707 -0.0140727 0 0.0225529 0 0)
(0.12598 -0.0139103 0 0.0222123 0 0)
(0.122346 -0.0138265 0 0.021456 0 0)
(0.118902 -0.0137713 0 0.0200845 0 0)
(0.115911 -0.0139165 0 0.0179516 0 0)
(0.11248 -0.0141135 0 0.0151791 0 0)
(0.012278 -0.00674779 0 0.00814021 0 0)
(0.194906 -0.0385573 0 0.014267 0 0)
(0.173545 -0.0341809 0 0.0191063 0 0)
(0.149095 -0.0235387 0 0.0223447 0 0)
(0.147426 -0.0173313 0 0.0241802 0 0)
(0.144551 -0.01463 0 0.025172 0 0)
(0.140083 -0.012985 0 0.0254849 0 0)
(0.136505 -0.0113524 0 0.0252346 0 0)
(0.13372 -0.00961737 0 0.0247249 0 0)
(0.131157 -0.00797379 0 0.0242376 0 0)
(0.128661 -0.00665183 0 0.0238454 0 0)
(0.12629 -0.00574883 0 0.0234304 0 0)
(0.124045 -0.00525923 0 0.0227788 0 0)
(0.122001 -0.00512517 0 0.021677 0 0)
(0.120142 -0.00534964 0 0.0198838 0 0)
(0.118448 -0.00592841 0 0.0174078 0 0)
(0.117021 -0.00694541 0 0.0143891 0 0)
(0.115189 -0.0082654 0 0.0111755 0 0)
(0.016374 -0.00658959 0 0.00693952 0 0)
(0.203271 -0.0347392 0 0.0106182 0 0)
(0.178876 -0.030621 0 0.0131957 0 0)
(0.150458 -0.0208311 0 0.0146596 0 0)
(0.14611 -0.0148546 0 0.015182 0 0)
(0.14163 -0.012117 0 0.0153615 0 0)
(0.136276 -0.0105864 0 0.0154227 0 0)
(0.132232 -0.00924488 0 0.0153109 0 0)
(0.129238 -0.00785631 0 0.0149651 0 0)
(0.126665 -0.00650826 0 0.0144115 0 0)
(0.124387 -0.00538256 0 0.0137965 0 0)
(0.122493 -0.00458878 0 0.0132385 0 0)
(0.120969 -0.00412764 0 0.012725 0 0)
(0.119807 -0.00394612 0 0.0121623 0 0)
(0.118909 -0.00405443 0 0.0113787 0 0)
(0.11816 -0.00447951 0 0.0102851 0 0)
(0.117559 -0.00532851 0 0.00884631 0 0)
(0.116571 -0.00652807 0 0.00715153 0 0)
(0.0127185 -0.00509513 0 0.00594833 0 0)
(0.195244 -0.0296525 0 0.00855498 0 0)
(0.169619 -0.0248755 0 0.0105606 0 0)
(0.142633 -0.015608 0 0.0118672 0 0)
(0.139611 -0.0100863 0 0.0126039 0 0)
(0.13601 -0.00758137 0 0.0130079 0 0)
(0.131404 -0.00618081 0 0.0131068 0 0)
(0.12808 -0.00491359 0 0.0128614 0 0)
(0.12588 -0.0036103 0 0.0123746 0 0)
(0.124196 -0.00244905 0 0.0118331 0 0)
(0.122777 -0.00161858 0 0.0113359 0 0)
(0.121588 -0.00119301 0 0.0108731 0 0)
(0.120593 -0.00115575 0 0.0103696 0 0)
(0.119802 -0.00145727 0 0.0097463 0 0)
(0.119181 -0.00208998 0 0.00889387 0 0)
(0.118632 -0.00303683 0 0.007806 0 0)
(0.118174 -0.00433257 0 0.00652241 0 0)
(0.117402 -0.00586265 0 0.00516021 0 0)
(0.0117873 -0.00397723 0 0.00616697 0 0)
(0.188243 -0.0237321 0 0.008089 0 0)
(0.163462 -0.0185775 0 0.00892986 0 0)
(0.138844 -0.0101477 0 0.00937826 0 0)
(0.13663 -0.00520044 0 0.00946574 0 0)
(0.132744 -0.0030515 0 0.00929145 0 0)
(0.127886 -0.00210372 0 0.00895561 0 0)
(0.124874 -0.00146779 0 0.00857529 0 0)
(0.123469 -0.000803272 0 0.00820892 0 0)
(0.122812 -0.000112915 0 0.00786123 0 0)
(0.122538 0.00044172 0 0.00754642 0 0)
(0.122571 0.000730089 0 0.00726921 0 0)
(0.12282 0.000710206 0 0.00700406 0 0)
(0.123166 0.000381927 0 0.00671425 0 0)
(0.123434 -0.000295446 0 0.0063146 0 0)
(0.123402 -0.00134498 0 0.00577023 0 0)
(0.123091 -0.0027981 0 0.00506353 0 0)
(0.12224 -0.00454394 0 0.00420828 0 0)
(0.0116106 -0.00550898 0 0.0056201 0 0)
(0.193976 -0.0245947 0 0.00787045 0 0)
(0.165441 -0.018271 0 0.00842382 0 0)
(0.137374 -0.00968529 0 0.0090025 0 0)
(0.133909 -0.00459893 0 0.00928313 0 0)
(0.129865 -0.00235103 0 0.00914015 0 0)
(0.125241 -0.00140018 0 0.00866285 0 0)
(0.122645 -0.000785889 0 0.00799384 0 0)
(0.121796 -0.000196502 0 0.00726157 0 0)
(0.121756 0.000314452 0 0.00658026 0 0)
(0.122086 0.000622096 0 0.00606456 0 0)
(0.122701 0.000689605 0 0.00575141 0 0)
(0.12356 0.000562779 0 0.00557889 0 0)
(0.124592 0.000272061 0 0.0054703 0 0)
(0.125687 -0.000239651 0 0.00532819 0 0)
(0.126601 -0.00105887 0 0.00508513 0 0)
(0.127356 -0.00227554 0 0.00464594 0 0)
(0.127564 -0.00385793 0 0.00396695 0 0)
(0.0133733 -0.00567287 0 0.00435548 0 0)
(0.185436 -0.0190543 0 0.00571087 0 0)
(0.153014 -0.0118657 0 0.00561158 0 0)
(0.127221 -0.00471411 0 0.00549734 0 0)
(0.126683 -0.000878303 0 0.00529934 0 0)
(0.124939 0.000562881 0 0.00502231 0 0)
(0.122705 0.000887042 0 0.00472456 0 0)
(0.12279 0.000877817 0 0.00439362 0 0)
(0.12452 0.000809306 0 0.00406216 0 0)
(0.126545 0.000677925 0 0.00379335 0 0)
(0.12836 0.000439723 0 0.00359993 0 0)
(0.130123 9.24687e-05 0 0.00346507 0 0)
(0.132077 -0.00035493 0 0.00336868 0 0)
(0.134292 -0.00091334 0 0.00329507 0 0)
(0.136657 -0.00163103 0 0.00320162 0 0)
(0.138786 -0.00256426 0 0.00305365 0 0)
(0.140573 -0.003776 0 0.00280736 0 0)
(0.141409 -0.00524371 0 0.00245439 0 0)
(0.0172445 -0.00488574 0 0.00270553 0 0)
(0.188761 -0.0159942 0 0.00322494 0 0)
(0.152483 -0.011488 0 0.00388507 0 0)
(0.125161 -0.00523587 0 0.00443197 0 0)
(0.124198 -0.00134304 0 0.00430621 0 0)
(0.122356 0.000310687 0 0.00376141 0 0)
(0.120608 0.000913851 0 0.00323631 0 0)
(0.121735 0.00115369 0 0.00287144 0 0)
(0.124775 0.00123976 0 0.00260856 0 0)
(0.128206 0.00117815 0 0.0023852 0 0)
(0.131584 0.000961711 0 0.0021895 0 0)
(0.13512 0.000620713 0 0.00202868 0 0)
(0.138963 0.000198968 0 0.00190624 0 0)
(0.142971 -0.000277514 0 0.00181935 0 0)
(0.146815 -0.000830201 0 0.00174702 0 0)
(0.149935 -0.00151776 0 0.0016696 0 0)
(0.152149 -0.00242103 0 0.00155774 0 0)
(0.152834 -0.00357023 0 0.00138808 0 0)
(0.0113525 -0.00329761 0 0.00242266 0 0)
(0.180281 -0.00729177 0 0.00145196 0 0)
(0.14451 -0.00371234 0 0.00142816 0 0)
(0.120995 -0.000430594 0 0.00148678 0 0)
(0.122449 0.00122233 0 0.00138432 0 0)
(0.121797 0.00143752 0 0.00124498 0 0)
(0.12128 0.00096307 0 0.00115012 0 0)
(0.12391 0.000291064 0 0.00108764 0 0)
(0.128486 -0.000412598 0 0.00103682 0 0)
(0.133403 -0.00113684 0 0.000986835 0 0)
(0.138283 -0.0018847 0 0.000936877 0 0)
(0.143392 -0.00263456 0 0.000891478 0 0)
(0.148849 -0.00333494 0 0.000855052 0 0)
(0.154413 -0.00393689 0 0.000829859 0 0)
(0.159601 -0.0044342 0 0.000813148 0 0)
(0.163655 -0.00488145 0 0.00080507 0 0)
(0.166298 -0.00536512 0 0.000796952 0 0)
(0.166804 -0.00594494 0 0.000777521 0 0)
(0.0155565 -0.00318654 0 0.00176804 0 0)
(0.174732 -0.00798475 0 0.00110941 0 0)
(0.134986 -0.00491552 0 0.00136565 0 0)
(0.115054 -0.000850351 0 0.00125949 0 0)
(0.119393 0.000924436 0 0.000920528 0 0)
(0.121081 0.00114263 0 0.000661827 0 0)
(0.123326 0.00085259 0 0.000516318 0 0)
(0.128974 0.000409077 0 0.000425089 0 0)
(0.136441 -0.000166156 0 0.000356561 0 0)
(0.143971 -0.000887416 0 0.000298737 0 0)
(0.151217 -0.00171003 0 0.000252237 0 0)
(0.158499 -0.00253553 0 0.000227444 0 0)
(0.165881 -0.00321639 0 0.000228586 0 0)
(0.17297 -0.00361729 0 0.000236182 0 0)
(0.179043 -0.00366735 0 0.000224031 0 0)
(0.183268 -0.00346124 0 0.000200051 0 0)
(0.185347 -0.00317932 0 0.000185209 0 0)
(0.184758 -0.00306013 0 0.000183349 0 0)
(0.0113319 -0.000583781 0 0.000582907 0 0)
(0.166086 0.00199922 0 0.000116436 0 0)
(0.128102 0.00110841 0 0.000188746 0 0)
(0.111974 0.00126768 0 0.000261418 0 0)
(0.118948 0.000538753 0 0.00039527 0 0)
(0.122382 -0.000581997 0 0.000540884 0 0)
(0.12532 -0.00168194 0 0.000658974 0 0)
(0.130301 -0.00271172 0 0.000762323 0 0)
(0.135638 -0.00369282 0 0.000863796 0 0)
(0.139605 -0.00462391 0 0.000967573 0 0)
(0.141861 -0.00547411 0 0.00106977 0 0)
(0.142777 -0.00617521 0 0.00115993 0 0)
(0.142585 -0.00659566 0 0.00121471 0 0)
(0.141411 -0.00661607 0 0.00119428 0 0)
(0.139175 -0.00618396 0 0.00105634 0 0)
(0.136012 -0.00542548 0 0.000827039 0 0)
(0.131992 -0.00450167 0 0.000572305 0 0)
(0.127522 -0.0036279 0 0.000364508 0 0)
(0.0141159 -0.00170003 0 0.000600976 0 0)
(0.178439 -0.00114611 0 0.000167699 0 0)
(0.158169 -0.000118269 0 0.000147708 0 0)
(0.155098 0.000809573 0 8.96017e-05 0 0)
(0.172835 0.00105808 0 8.06833e-05 0 0)
(0.187369 0.00117927 0 9.76091e-05 0 0)
(0.200555 0.00137872 0 0.000117953 0 0)
(0.216095 0.00161318 0 0.000136387 0 0)
(0.234801 0.00180726 0 0.000154923 0 0)
(0.256345 0.0019777 0 0.000180184 0 0)
(0.28032 0.00216556 0 0.000211064 0 0)
(0.306213 0.00232394 0 0.000243659 0 0)
(0.333282 0.00231181 0 0.000262167 0 0)
(0.360081 0.00191974 0 0.000232055 0 0)
(0.384607 0.00100609 0 0.000150986 0 0)
(0.404092 -0.000281287 0 7.0826e-05 0 0)
(0.417752 -0.00156962 0 3.18113e-05 0 0)
(0.424614 -0.00243733 0 2.92374e-05 0 0)
(0.000138629 -0.000268562 1.08433e-21 0.000520654 -2.21924e-21 1.86262e-36)
(0.000959273 -0.000613716 -3.00574e-21 0.00039361 2.00563e-21 1.83657e-36)
(0.00230774 -0.000911907 0 0.000360565 0 0)
(0.00432348 -0.00123238 0 0.000351356 0 0)
(0.00690163 -0.00152757 0 0.000338157 0 0)
(0.0100362 -0.00179393 1.01445e-20 0.000320717 -1.87805e-21 1.72992e-36)
(0.0136632 -0.00202546 0 0.000300343 0 0)
(0.0177195 -0.00221822 0 0.000277825 0 0)
(0.0221303 -0.00236883 0 0.000253772 0 0)
(0.0268137 -0.0024751 0 0.000228791 0 0)
(0.0316831 -0.00253629 -1.8244e-20 0.000203501 1.63654e-21 1.60238e-36)
(0.0366494 -0.00255299 0 0.000178498 0 0)
(0.0416245 -0.00252715 0 0.000154328 0 0)
(0.0465231 -0.00246186 0 0.000131464 0 0)
(0.051266 -0.00236122 0 0.000110292 0 0)
(0.0557817 -0.0022301 -2.49945e-20 9.11038e-05 1.34402e-21 1.4811e-36)
(0.060008 -0.00207395 0 7.40889e-05 0 0)
(0.0638938 -0.00189851 0 5.934e-05 0 0)
(0.0673994 -0.00170957 0 4.68586e-05 0 0)
(0.0704968 -0.00151275 0 3.65662e-05 0 0)
(0.0731695 -0.00131334 0 2.83193e-05 0 0)
(0.075412 -0.00111605 0 2.19253e-05 0 0)
(0.0772288 -0.000925011 0 1.71591e-05 0 0)
(0.0786329 -0.000743618 -3.25995e-20 1.3779e-05 8.94091e-22 1.29985e-36)
(0.0796447 -0.000574546 3.32856e-20 1.15403e-05 -8.45211e-22 1.2783e-36)
(0.0802904 -0.000419746 -3.39181e-20 1.02075e-05 7.98417e-22 1.25699e-36)
(0.0806008 -0.000280486 -3.44991e-20 9.5624e-06 7.5375e-22 1.23593e-36)
(0.0806093 -0.000157417 0 9.41094e-06 0 0)
(0.0803512 -5.06462e-05 0 9.58651e-06 0 0)
(0.0798623 4.0171e-05 3.59544e-20 9.95136e-06 -6.32513e-22 1.1742e-36)
(0.0791778 0.000115741 3.63507e-20 1.03962e-05 -5.96254e-22 1.15412e-36)
(0.0783316 0.000177047 0 1.08381e-05 0 0)
(0.0773558 0.000225262 0 1.12184e-05 0 0)
(0.07628 0.00026168 3.73024e-20 1.14983e-05 -4.99099e-22 1.09532e-36)
(0.0751312 0.000287646 0 1.16563e-05 0 0)
(0.0739332 0.000304516 0 1.16841e-05 0 0)
(0.0727075 0.000313599 -3.79398e-20 1.15836e-05 4.17691e-22 1.0387e-36)
(0.0714721 0.000316145 0 1.1364e-05 0 0)
(0.0702427 0.000313303 -3.82143e-20 1.1039e-05 3.71022e-22 1.00217e-36)
(0.0690321 0.000306129 -7.66224e-20 1.06254e-05 6.99426e-22 3.93704e-36)
(0.0678509 0.000295558 0 1.01407e-05 0 0)
(0.0667075 0.00028242 0 9.60257e-06 0 0)
(0.0656083 0.000267427 0 9.02765e-06 0 0)
(0.064558 0.000251191 0 8.43104e-06 0 0)
(0.0635599 0.00023422 0 7.82599e-06 0 0)
(0.0626161 0.00021694 -7.68339e-20 7.22377e-06 4.90836e-22 3.52715e-36)
(0.0617275 0.000199688 -7.67331e-20 6.63361e-06 4.6269e-22 3.46211e-36)
(0.0608942 0.000182741 -7.65991e-20 6.06287e-06 4.36133e-22 3.39799e-36)
(0.0601155 0.000166302 0 5.51711e-06 0 0)
(0.0593902 0.000150533 7.62391e-20 5.00038e-06 -3.87398e-22 3.2725e-36)
(0.0587168 0.00013554 0 4.51525e-06 0 0)
(0.0580932 0.000121405 -7.57675e-20 4.06331e-06 3.43933e-22 3.15063e-36)
(0.0575173 0.000108166 -7.54938e-20 3.64505e-06 3.23984e-22 3.09104e-36)
(0.0569867 9.58468e-05 0 3.26032e-06 0 0)
(0.0564989 8.44429e-05 0 2.90826e-06 0 0)
(0.0560515 7.39458e-05 0 2.58772e-06 0 0)
(0.0556419 6.43193e-05 -7.41788e-20 2.29708e-06 2.54587e-22 2.86144e-36)
(0.0552676 5.55369e-05 0 2.03463e-06 0 0)
(0.0549263 4.75481e-05 0 1.79842e-06 0 0)
(0.0546157 4.03169e-05 0 1.58658e-06 0 0)
(0.0543335 3.3786e-05 0 1.3971e-06 0 0)
(0.0540775 2.79154e-05 0 1.22811e-06 0 0)
(0.0538459 2.26482e-05 0 1.07773e-06 0 0)
(0.0536366 1.79453e-05 0 9.44259e-07 0 0)
(0.0534479 1.37526e-05 0 8.26008e-07 0 0)
(0.0532781 1.00335e-05 7.02454e-20 7.21471e-07 -1.45669e-22 2.39412e-36)
(0.0531257 6.73981e-06 0 6.29206e-07 0 0)
(0.0529893 3.83791e-06 0 5.4793e-07 0 0)
(0.0528674 1.28573e-06 -6.8724e-20 4.76434e-07 1.2023e-22 2.25272e-36)
(0.0527589 -9.4628e-07 -6.82002e-20 4.13652e-07 1.12701e-22 2.20711e-36)
(0.0526626 -2.89428e-06 0 3.5859e-07 0 0)
(0.0525774 -4.58431e-06 6.71312e-20 3.10385e-07 -9.89239e-23 2.11812e-36)
(0.0525024 -6.04667e-06 -6.65871e-20 2.68217e-07 9.26311e-23 2.07472e-36)
(0.0524366 -7.29991e-06 0 2.31412e-07 0 0)
(0.0523794 -8.37607e-06 6.54828e-20 1.99308e-07 -8.11367e-23 1.99008e-36)
(0.0523298 -9.28516e-06 0 1.71358e-07 0 0)
(0.0522873 -1.00537e-05 0 1.47051e-07 0 0)
(0.0522511 -1.06938e-05 -6.37931e-20 1.25953e-07 6.63449e-23 1.86837e-36)
(0.0522208 -1.1226e-05 0 1.07652e-07 0 0)
(0.0521958 -1.16573e-05 6.26497e-20 9.18191e-08 -5.79199e-23 1.79063e-36)
(0.0521756 -1.20084e-05 0 7.81313e-08 0 0)
(0.0521598 -1.2283e-05 -6.14965e-20 6.63291e-08 5.05059e-23 1.71552e-36)
(0.052148 -1.24991e-05 -6.09171e-20 5.61629e-08 4.71422e-23 1.67893e-36)
(0.0521398 -1.26562e-05 -6.03364e-20 4.74353e-08 4.39954e-23 1.64297e-36)
(0.0521349 -1.2772e-05 -1.19509e-19 3.9954e-08 8.20945e-23 6.43055e-36)
(0.052133 -1.28472e-05 1.18344e-19 3.35634e-08 -7.65806e-23 6.29167e-36)
(0.052134 -1.28944e-05 0 2.81069e-08 0 0)
(0.0521373 -1.29039e-05 0 2.3493e-08 0 0)
(0.0521428 -1.29106e-05 0 1.95747e-08 0 0)
(0.0521502 -1.28954e-05 1.13678e-19 1.62904e-08 -5.79185e-23 5.7601e-36)
(0.0521594 -1.28663e-05 1.12513e-19 1.35647e-08 -5.40162e-23 5.63301e-36)
(0.0521702 -1.28417e-05 -1.11349e-19 1.13141e-08 5.0399e-23 5.50819e-36)
(0.0521821 -1.27802e-05 0 9.54562e-09 0 0)
(0.052195 -1.26916e-05 1.09027e-19 8.29965e-09 -4.40383e-23 5.26518e-36)
(0.0522092 -1.2728e-05 1.0787e-19 7.38944e-09 -4.13125e-23 5.14694e-36)
(0.0522253 -1.29326e-05 1.06716e-19 6.78406e-09 -3.88621e-23 5.03082e-36)
(0.0522434 -1.34468e-05 0 6.42873e-09 0 0)
(0.052264 -1.46018e-05 0 6.0232e-09 0 0)
(0.0522886 -1.62266e-05 0 5.85728e-09 0 0)
(0.0523175 -1.76305e-05 1.02135e-19 6.48524e-09 -3.12678e-23 4.58701e-36)
(0.0523499 -1.84462e-05 0 7.59665e-09 0 0)
(0.0523849 -1.87001e-05 0 8.59335e-09 0 0)
(0.0524215 -1.85162e-05 -9.87443e-20 9.145e-09 2.57439e-23 4.27499e-36)
(0.0524589 -1.80388e-05 0 9.21764e-09 0 0)
(0.0524967 -1.74165e-05 0 8.97788e-09 0 0)
(0.0525347 -1.67572e-05 -9.53949e-20 8.60791e-09 2.05862e-23 3.97993e-36)
(0.0525726 -1.61094e-05 0 8.21214e-09 0 0)
(0.0526106 -1.55071e-05 0 7.84703e-09 0 0)
(0.0526485 -1.49455e-05 9.20901e-20 7.52008e-09 -1.64282e-23 3.70107e-36)
(0.0526864 -1.4436e-05 9.09991e-20 7.23883e-09 -1.52476e-23 3.61159e-36)
(0.0527242 -1.39628e-05 0 6.99166e-09 0 0)
(0.0527621 -1.35349e-05 -8.88333e-20 6.78042e-09 1.31825e-23 3.43766e-36)
(0.0528001 -1.31364e-05 0 6.59365e-09 0 0)
(0.0528381 -1.27771e-05 8.66899e-20 6.43383e-09 -1.14457e-23 3.27028e-36)
(0.0528761 -1.24413e-05 0 6.29174e-09 0 0)
(0.0529143 -1.21374e-05 8.45694e-20 6.16785e-09 -9.98768e-24 3.10924e-36)
(0.0529526 -1.18544e-05 8.35178e-20 6.05885e-09 -9.35571e-24 3.03104e-36)
(0.0529909 -1.15985e-05 0 5.96249e-09 0 0)
(0.0530294 -1.13686e-05 0 5.88464e-09 0 0)
(0.053068 -1.11603e-05 0 5.81578e-09 0 0)
(0.0531068 -1.09733e-05 0 5.75856e-09 0 0)
(0.0531459 -1.07973e-05 0 5.7036e-09 0 0)
(0.0531852 -1.06332e-05 0 5.6518e-09 0 0)
(0.0532248 -1.04825e-05 0 5.6047e-09 0 0)
(0.0532646 -1.03429e-05 7.53196e-20 5.5624e-09 -5.77786e-24 2.45781e-36)
(0.0533048 -1.02217e-05 -7.43219e-20 5.52803e-09 5.46142e-24 2.39237e-36)
(0.0533452 -1.01092e-05 0 5.49764e-09 0 0)
(0.0533858 -1.00143e-05 0 5.47437e-09 0 0)
(0.0534268 -9.92709e-06 0 5.45518e-09 0 0)
(0.053468 -9.85528e-06 0 5.44241e-09 0 0)
(0.0535096 -9.78978e-06 -1.38846e-19 5.43315e-09 8.52222e-24 8.33726e-36)
(0.0535515 -9.73747e-06 0 5.42917e-09 0 0)
(0.0535937 -9.68986e-06 1.3501e-19 5.42756e-09 -7.83314e-24 7.87864e-36)
(0.0536363 -9.65417e-06 -1.33109e-19 5.4308e-09 7.52938e-24 7.65636e-36)
(0.0536793 -9.62154e-06 0 5.43558e-09 0 0)
(0.0537227 -9.59929e-06 0 5.4448e-09 0 0)
(0.0537664 -9.57873e-06 0 5.45475e-09 0 0)
(0.0538107 -9.56934e-06 1.25621e-19 5.47007e-09 -6.63019e-24 6.81235e-36)
(0.0538553 -9.56638e-06 1.23777e-19 5.4917e-09 -6.47388e-24 6.61227e-36)
(0.0539003 -9.57348e-06 0 5.51787e-09 0 0)
(0.0539458 -9.58822e-06 1.20123e-19 5.55064e-09 -6.21132e-24 6.22469e-36)
(0.0539918 -9.60466e-06 1.18313e-19 5.58178e-09 -6.10261e-24 6.03707e-36)
(0.0540383 -9.62552e-06 -1.16513e-19 5.61469e-09 5.99768e-24 5.85348e-36)
(0.0540854 -9.64608e-06 0 5.64597e-09 0 0)
(0.054133 -9.66997e-06 0 5.67928e-09 0 0)
(0.0541813 -9.69302e-06 -1.11181e-19 5.71114e-09 5.69964e-24 5.32617e-36)
(0.0542302 -9.7189e-06 0 5.7453e-09 0 0)
(0.0542797 -9.7444e-06 0 5.77959e-09 0 0)
(0.0543299 -9.77243e-06 0 5.81714e-09 0 0)
(0.0543807 -9.80053e-06 0 5.85632e-09 0 0)
(0.0544321 -9.83069e-06 1.02506e-19 5.89952e-09 -5.18536e-24 4.52188e-36)
(0.0544841 -9.86057e-06 1.00802e-19 5.94556e-09 -5.07725e-24 4.37167e-36)
(0.0545367 -9.89071e-06 0 5.99601e-09 0 0)