/*--------------------------------*- C++ -*----------------------------------*\
  =========                 |
  \\      /  F ield         | OpenFOAM: The Open Source CFD Toolbox
   \\    /   O peration     | Website:  https://openfoam.org
    \\  /    A nd           | Version:  7
     \\/     M anipulation  |
\*---------------------------------------------------------------------------*/
FoamFile
{
    version     2.0;
    format      ascii;
    class       volScalarField;
    location    "0.086";
    object      k_0;
}
// * * * * * * * * * * * * * * * * * * * * * * * * * * * * * * * * * * * * * //

dimensions      [0 2 -2 0 0 0 0];

internalField   nonuniform List<scalar> 
12225
(
1.93616e-05
1.8127e-05
1.65962e-05
1.53822e-05
1.40187e-05
1.26059e-05
1.15647e-05
1.02377e-05
8.55517e-06
7.44618e-06
6.95297e-06
6.30729e-06
5.39587e-06
4.74629e-06
3.88795e-06
1.01608e-05
6.1998e-06
1.2221e-05
1.99833e-05
1.98857e-05
1.96804e-05
1.93987e-05
1.90984e-05
1.87883e-05
1.83812e-05
1.7877e-05
1.73439e-05
1.68517e-05
1.63426e-05
1.58438e-05
1.51547e-05
1.4702e-05
1.41816e-05
1.65057e-05
1.72222e-05
1.75994e-05
2.00029e-05
1.93073e-05
1.92186e-05
1.9137e-05
1.90726e-05
1.9046e-05
1.89902e-05
1.88439e-05
1.86385e-05
1.84853e-05
1.83507e-05
1.82122e-05
1.80227e-05
1.78669e-05
1.76874e-05
1.81744e-05
1.8424e-05
1.85072e-05
2.02268e-05
2.01559e-05
1.90482e-05
1.51637e-05
1.59254e-05
1.74598e-05
1.78898e-05
1.78267e-05
1.74205e-05
1.71586e-05
1.71027e-05
1.71128e-05
1.71982e-05
1.74719e-05
1.75887e-05
1.78185e-05
1.80012e-05
1.80727e-05
2.01085e-05
2.25693e-05
2.33726e-05
2.23957e-05
2.1321e-05
2.08555e-05
2.00012e-05
1.79575e-05
1.67327e-05
1.67077e-05
1.68528e-05
1.72409e-05
1.76685e-05
1.79846e-05
1.81379e-05
1.82132e-05
1.82534e-05
1.82418e-05
2.02989e-05
2.15019e-05
2.29467e-05
2.52879e-05
2.59507e-05
2.57973e-05
2.47745e-05
2.25506e-05
2.1348e-05
2.09445e-05
2.09204e-05
2.1189e-05
2.17661e-05
2.20186e-05
2.20613e-05
2.19818e-05
2.16456e-05
2.09792e-05
2.08174e-05
2.07041e-05
2.12612e-05
2.31504e-05
2.52785e-05
2.55822e-05
2.53532e-05
2.435e-05
2.32003e-05
2.26396e-05
2.25067e-05
2.25495e-05
2.27774e-05
2.2917e-05
2.29343e-05
2.28859e-05
2.26427e-05
2.20922e-05
2.03505e-05
2.0365e-05
2.09058e-05
2.30693e-05
2.45116e-05
2.46462e-05
2.42508e-05
2.35879e-05
2.33249e-05
2.31918e-05
2.31286e-05
2.30781e-05
2.29758e-05
2.27385e-05
2.25093e-05
2.23289e-05
2.22528e-05
2.21381e-05
2.20106e-05
2.1053e-05
2.16867e-05
2.38368e-05
2.39432e-05
2.28945e-05
2.20233e-05
2.20031e-05
2.24382e-05
2.32356e-05
2.35674e-05
2.36167e-05
2.35695e-05
2.33574e-05
2.31881e-05
2.31637e-05
2.33251e-05
2.37656e-05
2.1053e-05
2.12042e-05
2.29659e-05
2.73432e-05
2.76455e-05
2.59612e-05
2.29227e-05
2.1968e-05
2.19708e-05
2.24634e-05
2.29009e-05
2.29671e-05
2.29035e-05
2.27006e-05
2.26391e-05
2.26587e-05
2.28192e-05
2.33175e-05
2.15608e-05
2.15103e-05
2.16491e-05
2.29728e-05
2.41159e-05
2.40799e-05
2.32825e-05
2.13399e-05
2.06587e-05
2.06896e-05
2.11339e-05
2.18045e-05
2.20933e-05
2.21645e-05
2.21637e-05
2.21392e-05
2.21371e-05
2.21647e-05
2.07194e-05
2.13958e-05
2.30469e-05
2.41257e-05
2.40603e-05
2.3726e-05
2.27325e-05
2.1023e-05
2.01665e-05
2.00152e-05
2.00893e-05
2.05115e-05
2.10999e-05
2.13994e-05
2.15407e-05
2.17053e-05
2.2146e-05
2.25112e-05
2.13561e-05
2.19437e-05
2.14555e-05
2.09681e-05
2.09647e-05
2.1029e-05
2.09844e-05
2.07367e-05
2.03145e-05
2.02118e-05
2.0239e-05
2.03017e-05
2.04092e-05
2.05672e-05
2.07931e-05
2.12349e-05
2.24744e-05
2.47417e-05
2.10637e-05
2.13323e-05
2.14552e-05
2.14257e-05
2.20598e-05
2.33521e-05
2.36321e-05
2.33936e-05
2.23752e-05
2.14649e-05
2.10192e-05
2.08535e-05
2.08297e-05
2.08561e-05
2.1043e-05
2.19094e-05
2.4662e-05
2.68846e-05
2.03812e-05
2.08011e-05
2.20633e-05
2.42099e-05
2.47225e-05
2.45518e-05
2.34739e-05
2.21747e-05
2.14998e-05
2.11772e-05
2.10146e-05
2.09494e-05
2.09381e-05
2.09459e-05
2.10072e-05
2.12987e-05
2.24784e-05
2.44199e-05
2.06815e-05
2.35591e-05
2.53599e-05
2.46755e-05
2.25028e-05
2.13743e-05
2.08948e-05
2.08004e-05
2.08639e-05
2.10354e-05
2.10785e-05
2.10624e-05
2.09445e-05
2.08217e-05
2.07977e-05
2.08238e-05
2.09895e-05
2.15291e-05
2.04934e-05
2.09887e-05
2.20886e-05
2.25024e-05
2.23824e-05
2.16942e-05
2.11427e-05
2.10723e-05
2.12275e-05
2.17812e-05
2.2051e-05
2.20683e-05
2.19317e-05
2.13739e-05
2.0896e-05
2.0688e-05
2.06366e-05
2.06454e-05
2.02641e-05
2.06947e-05
2.13156e-05
2.13792e-05
2.11908e-05
2.08595e-05
2.07261e-05
2.07226e-05
2.0801e-05
2.08709e-05
2.08633e-05
2.07436e-05
2.06398e-05
2.06443e-05
2.06709e-05
2.06587e-05
2.05527e-05
2.0441e-05
2.03671e-05
2.04191e-05
2.04205e-05
2.05061e-05
2.05822e-05
2.05844e-05
2.05605e-05
2.05342e-05
2.04945e-05
2.04366e-05
2.03961e-05
2.03874e-05
2.04036e-05
2.05566e-05
2.08989e-05
2.10067e-05
2.09798e-05
2.08068e-05
2.04768e-05
2.05965e-05
2.0595e-05
2.06188e-05
2.06489e-05
2.0661e-05
2.06834e-05
2.07649e-05
2.09686e-05
2.10813e-05
2.11051e-05
2.10892e-05
2.09559e-05
2.06873e-05
2.05883e-05
2.05908e-05
2.07217e-05
2.13167e-05
2.10989e-05
2.08059e-05
2.0711e-05
2.0658e-05
2.06668e-05
2.07447e-05
2.08486e-05
2.09013e-05
2.09178e-05
2.0917e-05
2.09013e-05
2.0833e-05
2.0654e-05
2.05166e-05
2.0455e-05
2.0444e-05
2.04661e-05
2.05093e-05
2.02127e-05
2.0579e-05
2.0904e-05
2.0997e-05
2.09926e-05
2.08951e-05
2.06517e-05
2.05271e-05
2.04999e-05
2.05075e-05
2.05517e-05
2.05828e-05
2.06029e-05
2.06348e-05
2.06982e-05
2.08638e-05
2.14326e-05
2.33589e-05
2.01618e-05
2.05098e-05
2.05831e-05
2.05106e-05
2.03673e-05
2.02815e-05
2.02499e-05
2.02495e-05
2.02739e-05
2.03429e-05
2.03893e-05
2.04111e-05
2.04223e-05
2.0434e-05
2.04565e-05
2.05137e-05
2.07148e-05
2.15785e-05
2.00171e-05
2.02262e-05
2.0308e-05
2.02948e-05
2.02986e-05
2.0392e-05
2.07043e-05
2.08472e-05
2.08501e-05
2.08703e-05
2.08983e-05
2.08779e-05
2.07729e-05
2.07281e-05
2.07231e-05
2.07264e-05
2.07269e-05
2.0724e-05
2.00322e-05
2.01396e-05
2.02047e-05
2.02212e-05
2.02308e-05
2.03061e-05
2.047e-05
2.08582e-05
2.12318e-05
2.1457e-05
2.15087e-05
2.14706e-05
2.12312e-05
2.09781e-05
2.08612e-05
2.07894e-05
2.0713e-05
2.06284e-05
2.10113e-05
2.0843e-05
2.04104e-05
2.03206e-05
2.02791e-05
2.02805e-05
2.03415e-05
2.06372e-05
2.17435e-05
2.49611e-05
2.75306e-05
2.84216e-05
2.84245e-05
2.77283e-05
2.53317e-05
2.3382e-05
2.22044e-05
2.15022e-05
2.00674e-05
2.01246e-05
2.01117e-05
2.00798e-05
1.99859e-05
1.96279e-05
1.94095e-05
1.94143e-05
1.95311e-05
1.98584e-05
2.0405e-05
2.08745e-05
2.12275e-05
2.13473e-05
2.13424e-05
2.11216e-05
2.08015e-05
2.06394e-05
2.02291e-05
1.89394e-05
1.40904e-05
1.18391e-05
1.23232e-05
1.44165e-05
1.98394e-05
2.83531e-05
3.79338e-05
4.70461e-05
5.58523e-05
6.24565e-05
7.1902e-05
7.95435e-05
8.82395e-05
9.3408e-05
9.95914e-05
0.000104792
3.30747e-05
0.000123045
0.000138246
0.00015883
0.000203791
0.00027599
0.000348221
0.000423219
0.000502307
0.000571059
0.000614703
0.000642444
0.000679081
0.000726951
0.000761127
0.000769951
0.000769241
0.000765259
0.00286873
0.00270441
0.00250509
0.00219292
0.00197464
0.00190008
0.00189792
0.00194423
0.0020503
0.00209963
0.00211041
0.00210596
0.00207742
0.00198431
0.00181619
0.00163247
0.00144959
0.00129615
0.00629218
0.0077285
0.00635134
0.00600015
0.00602895
0.00602424
0.00590015
0.00577327
0.00562417
0.00536981
0.00535011
0.00544773
0.00565609
0.00570127
0.00570265
0.00568978
0.00564939
0.00563239
0.00564273
0.0056662
0.00569927
0.00571105
0.0057011
0.00565081
0.00556663
0.00544214
0.00529432
0.00523008
0.00523616
0.00525954
0.00530434
0.00535752
0.00542451
0.00546815
0.00548563
0.00547969
0.00545147
0.00539083
0.00524976
0.00520942
0.00524595
0.00582376
0.00586412
0.00567126
0.00618358
0.00677945
0.00727895
0.00792254
0.00924914
0.0121253
0.0169976
0.0207833
0.0221772
0.0215884
0.0208901
0.020094
0.0190621
0.0175763
0.0156551
0.0138024
0.0129314
0.0125496
0.0128651
0.0148973
0.0207223
0.04187
0.0747835
0.0908662
0.0987875
0.11811
0.15631
0.165261
0.155129
0.111989
0.0454443
0.00897878
0.00250605
0.00155507
0.00134348
0.00114526
0.000908899
0.000669914
0.000494354
0.000379386
0.000324304
0.000300088
0.000295087
0.000304813
0.000306719
0.000307048
0.000303661
0.000295523
0.000289622
0.000284943
0.00027641
0.000266912
0.000259821
0.000252849
0.000244651
0.000237185
0.000231036
0.000224225
0.000216568
0.000209803
0.000204048
0.000198592
0.000193322
0.00018748
0.000182518
0.000179186
0.00017506
0.000170911
0.000166888
0.000162396
0.000159115
0.000154927
0.000151519
0.000147916
0.0001444
0.000140778
0.000137027
0.000133123
0.000129134
0.00012498
0.000120712
0.000116416
0.000112194
0.000108087
0.000103998
9.9749e-05
9.51372e-05
8.95466e-05
8.23794e-05
7.39349e-05
6.49046e-05
5.60801e-05
4.80994e-05
4.11872e-05
3.49022e-05
2.83625e-05
2.16543e-05
1.58049e-05
1.13221e-05
8.10877e-06
5.91359e-06
4.44564e-06
3.45372e-06
2.75646e-06
2.23774e-06
1.8303e-06
1.50055e-06
1.23387e-06
1.02059e-06
8.49648e-07
7.10602e-07
5.95951e-07
5.00638e-07
4.2115e-07
3.54773e-07
2.99304e-07
2.5278e-07
2.13632e-07
1.804e-07
1.52205e-07
1.27859e-07
1.07279e-07
8.91782e-08
7.66742e-08
6.22584e-08
5.47264e-08
4.03145e-08
3.67246e-08
2.50536e-08
2.7966e-08
1.65079e-08
6.02734e-08
6.71032e-08
2.74667e-07
7.52693e-06
5.88175e-06
0.00606339
0.00619598
0.00641317
0.00672574
0.00674998
0.0066732
0.00645777
0.00616244
0.00579933
0.00544854
0.00522002
0.00506619
0.00495262
0.00488672
0.00480145
0.00468543
0.00457139
0.00447642
0.00444959
0.00445961
0.00448988
0.00452349
0.00456582
0.00459551
0.00461578
0.00466494
0.00480256
0.00505944
0.00557233
0.00626459
0.0069453
0.0075877
0.00817507
0.00856825
0.00874974
0.00875435
0.00868421
0.00850049
0.00802119
0.00692989
0.00591001
0.00569048
0.00566138
0.00563634
0.00563589
0.00566578
0.00590053
0.00623611
0.00670846
0.00841013
0.0128583
0.0156619
0.0154623
0.0128885
0.0103994
0.00870477
0.00753786
0.00663776
0.00609211
0.00597696
0.00605036
0.0061788
0.00645949
0.00743063
0.0100905
0.0119656
0.0217398
0.0330289
0.0301849
0.0325511
0.0549159
0.0909404
0.0779104
0.0372515
0.0125008
0.00330799
0.00138128
0.000930901
0.000774803
0.000692263
0.00065934
0.000652673
0.000688044
0.000757464
0.00082157
0.000879969
0.000909843
0.000928539
0.000933745
0.000931248
0.000901433
0.000856587
0.000827278
0.000802186
0.000764943
0.000725475
0.000691173
0.000660662
0.000631716
0.000604723
0.000580719
0.000556935
0.000531457
0.000508664
0.000489122
0.000470214
0.000455975
0.000439514
0.00042383
0.000410814
0.000399633
0.000387706
0.000378771
0.000368908
0.000360283
0.000350459
0.00034043
0.000330423
0.000320493
0.000310357
0.000299719
0.000287991
0.000274581
0.000259512
0.000242969
0.000225136
0.000206621
0.000190422
0.000178265
0.000168275
0.000160475
0.000155246
0.000152259
0.00015009
0.000147051
0.000141974
0.000134782
0.000125645
0.000114905
0.00010383
9.3397e-05
8.33529e-05
7.34492e-05
6.39294e-05
5.51697e-05
4.74249e-05
4.06879e-05
3.48185e-05
2.96745e-05
2.50802e-05
2.08805e-05
1.71129e-05
1.39641e-05
1.14923e-05
9.53364e-06
7.93621e-06
6.60535e-06
5.48712e-06
4.55002e-06
3.77282e-06
3.13441e-06
2.61523e-06
2.19034e-06
1.84733e-06
1.55544e-06
1.32286e-06
1.1253e-06
9.72497e-07
8.16933e-07
7.02292e-07
5.67304e-07
4.93179e-07
3.73172e-07
3.37021e-07
2.4554e-07
2.29955e-07
1.95261e-07
1.97554e-07
9.87362e-07
1.21279e-06
0.00437621
0.00604789
0.00704703
0.00694084
0.00655778
0.00581136
0.0053067
0.00491665
0.00475827
0.00462945
0.00454821
0.00454798
0.00458203
0.00467695
0.00476049
0.00481106
0.00487322
0.00495526
0.00508069
0.00517914
0.00529562
0.00546157
0.00584973
0.00659582
0.00784414
0.00974584
0.011489
0.012651
0.0131858
0.0133719
0.0133993
0.0133582
0.0132638
0.0131823
0.0131034
0.0130239
0.01293
0.0128008
0.0125745
0.0120983
0.0112094
0.00959348
0.00826838
0.00751932
0.00680335
0.00618281
0.00599212
0.00596718
0.00597304
0.00604496
0.00644817
0.00804149
0.00893381
0.00847995
0.00655685
0.00567218
0.00543751
0.00534301
0.00549162
0.00577773
0.00602592
0.00614809
0.00631942
0.00688005
0.00903516
0.0127578
0.0135677
0.0137822
0.0149621
0.0285572
0.0408671
0.0335384
0.0178545
0.00709217
0.00254945
0.0011393
0.000821821
0.000751633
0.000741842
0.000766057
0.00087902
0.00106721
0.00132162
0.00155984
0.0017653
0.00194728
0.00206141
0.00210924
0.00212008
0.00208545
0.00196497
0.0018317
0.00171886
0.001599
0.00147364
0.0013612
0.00124603
0.0011432
0.00107054
0.00100929
0.0009488
0.000903402
0.000843311
0.000776248
0.000719847
0.000662379
0.000620139
0.000580454
0.000545964
0.000518228
0.000496372
0.000474656
0.000458656
0.000443043
0.000429678
0.000417751
0.00040608
0.000395967
0.000386423
0.000377367
0.00036879
0.000360679
0.000352908
0.000344223
0.000334721
0.000324327
0.000311685
0.000292062
0.000263977
0.000231316
0.000197848
0.000171816
0.000156249
0.000147436
0.000143472
0.00014234
0.000142291
0.00014209
0.000140387
0.000132812
0.000119387
0.000107969
9.80215e-05
8.88707e-05
8.04095e-05
7.25003e-05
6.51947e-05
5.87185e-05
5.31606e-05
4.84532e-05
4.44912e-05
4.10601e-05
3.77757e-05
3.43394e-05
3.07453e-05
2.70907e-05
2.34896e-05
2.00468e-05
1.68503e-05
1.39665e-05
1.14373e-05
9.28071e-06
7.48502e-06
6.02379e-06
4.85701e-06
3.93688e-06
3.22212e-06
2.66083e-06
2.22695e-06
1.87211e-06
1.59827e-06
1.35509e-06
1.17015e-06
9.84203e-07
8.59662e-07
6.95809e-07
6.23401e-07
4.57807e-07
4.52809e-07
4.09334e-07
0.00136738
0.00268523
0.00376392
0.00423204
0.00446145
0.00441943
0.00444495
0.00453685
0.00472646
0.00497105
0.00518832
0.00559695
0.006169
0.00655427
0.00655265
0.00650837
0.00683667
0.00779953
0.00903653
0.010374
0.011663
0.0125595
0.0133031
0.0137994
0.0139869
0.0139618
0.0135531
0.0130488
0.0126186
0.0121313
0.0117684
0.0115739
0.011444
0.0113812
0.0113618
0.0113629
0.0114021
0.011506
0.0116472
0.0117068
0.0116753
0.0116126
0.0112712
0.0106918
0.0101057
0.00932918
0.00843096
0.0075829
0.00680862
0.00633417
0.00625047
0.00631309
0.00657735
0.00670131
0.00659323
0.00614946
0.00560032
0.00536018
0.00530431
0.00536785
0.00588817
0.00646365
0.00659265
0.00686382
0.00843949
0.011438
0.0116186
0.0129999
0.0209979
0.0271087
0.0186887
0.0103594
0.00448377
0.00190296
0.00101869
0.000795904
0.000762988
0.000795666
0.00091672
0.00119733
0.00168843
0.00238035
0.00328077
0.00385091
0.00408207
0.00417463
0.00419403
0.0041304
0.00388761
0.0035575
0.00325402
0.00297896
0.00270795
0.00240087
0.00211373
0.00190494
0.00172251
0.00150086
0.00133876
0.00125844
0.0012034
0.00117693
0.00113633
0.00108453
0.00103326
0.000980139
0.000922457
0.000846897
0.000766282
0.000689106
0.000618682
0.000559489
0.000513348
0.000478493
0.000450268
0.00042642
0.000403585
0.00038506
0.000368989
0.000354736
0.00034205
0.000330998
0.000321574
0.000315868
0.000314085
0.000315638
0.00032104
0.00032818
0.00032894
0.000321794
0.000304147
0.000272602
0.000229854
0.000189926
0.000166035
0.00015562
0.000153201
0.000154631
0.000161737
0.000166911
0.000167692
0.000166784
0.00016192
0.000146545
0.000126969
0.000109575
9.46168e-05
8.19824e-05
7.15592e-05
6.31654e-05
5.64073e-05
5.08422e-05
4.61339e-05
4.21953e-05
3.89206e-05
3.59465e-05
3.29356e-05
2.9738e-05
2.63902e-05
2.30206e-05
1.97518e-05
1.66512e-05
1.37601e-05
1.11319e-05
8.82371e-06
6.87689e-06
5.31058e-06
4.09864e-06
3.19245e-06
2.52219e-06
2.0355e-06
1.67123e-06
1.40317e-06
1.18614e-06
1.02241e-06
8.7285e-07
7.60401e-07
6.46549e-07
5.58968e-07
4.70461e-07
0.00128583
0.00245052
0.00320402
0.00401371
0.0046577
0.00515835
0.00579939
0.00677523
0.00791223
0.00868483
0.00924827
0.00973777
0.0101528
0.0108302
0.0116789
0.0120408
0.0122364
0.0123921
0.0124515
0.0124833
0.0124711
0.0122939
0.0118076
0.010861
0.0101729
0.00932338
0.0087774
0.00840995
0.00819755
0.00812639
0.00814062
0.00828033
0.0083981
0.00859237
0.00882734
0.00909254
0.00938768
0.00970854
0.0100372
0.0103503
0.0106552
0.0109457
0.0110912
0.0111239
0.0110838
0.010965
0.0106709
0.0100776
0.00933198
0.00852514
0.00768131
0.00702364
0.00671373
0.00656954
0.00651104
0.00639406
0.00610468
0.00586659
0.00586892
0.00597259
0.00654081
0.00682905
0.00676012
0.00713656
0.00992871
0.0181745
0.0203741
0.0206203
0.0216144
0.0145494
0.00696941
0.00330413
0.00155521
0.000936589
0.000773722
0.000752374
0.000813182
0.0010008
0.00145138
0.00233128
0.00382184
0.00487232
0.00525801
0.00540088
0.00542762
0.00530167
0.00494748
0.00461245
0.00431757
0.00393499
0.00356778
0.00321702
0.00290844
0.00255318
0.00220743
0.00195379
0.00176504
0.00153072
0.00133316
0.0012093
0.00115285
0.00113121
0.00112028
0.00109647
0.00106938
0.00104925
0.00102672
0.000991088
0.000945764
0.000896816
0.000840228
0.000778518
0.000715977
0.000654777
0.000598157
0.00054886
0.000502912
0.000463764
0.00042979
0.000399108
0.000370223
0.000343351
0.000318877
0.000295194
0.000273366
0.000255495
0.000243267
0.000238387
0.000249522
0.000281271
0.000307613
0.000315531
0.000309963
0.00028243
0.00023334
0.000186503
0.000157374
0.000146097
0.000144426
0.00014747
0.000159011
0.000166224
0.000167791
0.000167072
0.000162038
0.000147139
0.000132375
0.000119356
0.000106498
9.3787e-05
8.22147e-05
7.25611e-05
6.48284e-05
5.84907e-05
5.32265e-05
4.91545e-05
4.62205e-05
4.39639e-05
4.1794e-05
3.92873e-05
3.61841e-05
3.23231e-05
2.77073e-05
2.26375e-05
1.76412e-05
1.3207e-05
9.57766e-06
6.81722e-06
4.83716e-06
3.47287e-06
2.55266e-06
1.93705e-06
1.52457e-06
1.23925e-06
1.03266e-06
8.70554e-07
7.40989e-07
6.31366e-07
5.43069e-07
4.63781e-07
0.00249826
0.00381816
0.00455939
0.00583692
0.00656646
0.0073011
0.00850463
0.00984537
0.0110823
0.0116775
0.011773
0.0118729
0.0122529
0.0124588
0.0124953
0.0124295
0.0121521
0.0118129
0.0113143
0.0105953
0.00981803
0.00879283
0.00800914
0.00761738
0.00721859
0.00696222
0.00674081
0.00659088
0.00645895
0.00635659
0.00630616
0.00630733
0.0064026
0.00659458
0.00685681
0.00724242
0.00770902
0.00824176
0.00879435
0.00935965
0.00992974
0.0104894
0.0109458
0.0112751
0.0115307
0.0117434
0.0117473
0.0114816
0.0109091
0.0101229
0.00924946
0.00849837
0.00794287
0.00742495
0.00707203
0.00695247
0.00668432
0.00645765
0.00649444
0.00671496
0.00691106
0.00671157
0.00665539
0.0083266
0.0175917
0.022999
0.0216549
0.0198114
0.014261
0.00572373
0.00271114
0.00138873
0.000887519
0.00075014
0.000731083
0.000789275
0.000997083
0.00154795
0.00265753
0.00456873
0.00578629
0.00617551
0.00626345
0.00611908
0.0054988
0.00506832
0.00485808
0.00454254
0.00413713
0.00381732
0.00349322
0.00312499
0.00281536
0.00242374
0.00201795
0.00166826
0.00148836
0.00131375
0.00108843
0.000906708
0.00084391
0.000818851
0.000807384
0.000803897
0.000815755
0.000842019
0.000869446
0.000895769
0.000909038
0.00089724
0.000867323
0.000829943
0.000789565
0.000751187
0.000716857
0.000686849
0.000662028
0.000641028
0.000621429
0.000601273
0.000577948
0.000548374
0.000507853
0.000456408
0.000394974
0.000330426
0.000271784
0.00022647
0.000194446
0.000179399
0.000180644
0.000217613
0.00027219
0.000294669
0.000294029
0.000272173
0.000218289
0.000171534
0.000145953
0.000137825
0.000137809
0.000144225
0.000157035
0.000162202
0.000162654
0.000161005
0.000152371
0.000136684
0.000123982
0.00011256
0.000101279
9.04752e-05
8.10917e-05
7.36234e-05
6.78374e-05
6.317e-05
5.92028e-05
5.58378e-05
5.31296e-05
5.10069e-05
4.91e-05
4.68179e-05
4.35753e-05
3.90959e-05
3.35614e-05
2.75831e-05
2.18588e-05
1.68412e-05
1.26517e-05
9.25969e-06
6.55048e-06
4.5043e-06
3.08895e-06
2.26844e-06
1.79328e-06
1.45856e-06
1.16623e-06
9.13085e-07
7.13354e-07
5.47513e-07
0.00319135
0.00449787
0.00541815
0.00628992
0.00704848
0.00807117
0.00949411
0.0108226
0.0113106
0.0115647
0.0116937
0.0118632
0.0120635
0.0120891
0.0118623
0.0113424
0.0104794
0.00937775
0.00839339
0.00730253
0.00649264
0.00563477
0.00495606
0.00436029
0.00377522
0.00334264
0.00289402
0.00260923
0.00232221
0.0021428
0.002051
0.00199844
0.00197741
0.00201621
0.00210791
0.0022744
0.00254574
0.0029454
0.0035436
0.00435659
0.00538222
0.00663553
0.00808673
0.00959677
0.0107924
0.0117696
0.0124695
0.012926
0.0132392
0.0132049
0.0124539
0.0106497
0.00857235
0.00729215
0.00685884
0.00675768
0.00659939
0.00657742
0.00659982
0.00658531
0.00648085
0.00622097
0.00660603
0.0128213
0.0221663
0.0225806
0.0195703
0.0131784
0.00564516
0.00245976
0.00131524
0.00087359
0.000738187
0.000715043
0.000746695
0.000896334
0.00133759
0.00237128
0.00450041
0.00635992
0.00688165
0.00695035
0.0064206
0.00511809
0.00424148
0.00380492
0.00330757
0.00300886
0.00284882
0.00267066
0.00255647
0.00242447
0.00223667
0.00198153
0.00171496
0.00152992
0.00139617
0.00123415
0.000990253
0.000820672
0.000750026
0.000713656
0.000680112
0.000653371
0.00063091
0.000617126
0.000613917
0.000620934
0.000638412
0.000674557
0.000706718
0.000727623
0.000737458
0.00073213
0.000715551
0.000696428
0.000681028
0.000669819
0.00066112
0.000653531
0.000645942
0.000637375
0.000626043
0.000608178
0.000577715
0.000529149
0.00046474
0.000383782
0.000286461
0.000199397
0.00015244
0.00013543
0.000137496
0.0001782
0.000245001
0.000269907
0.000268737
0.000243302
0.000187732
0.000149995
0.000133882
0.000130945
0.000133078
0.000144145
0.000152993
0.000154701
0.000153816
0.000148441
0.000133657
0.000120952
0.000110848
0.00010117
9.13544e-05
8.22465e-05
7.49264e-05
6.96303e-05
6.56482e-05
6.20567e-05
5.84504e-05
5.50748e-05
5.23686e-05
5.03984e-05
4.86593e-05
4.64038e-05
4.31095e-05
3.8723e-05
3.35598e-05
2.81138e-05
2.28384e-05
1.80694e-05
1.39654e-05
1.06119e-05
7.99879e-06
6.05159e-06
4.58673e-06
3.44551e-06
2.52746e-06
1.79956e-06
1.27535e-06
8.52808e-07
0.00344653
0.00481231
0.00583999
0.00645851
0.00732333
0.00847056
0.00951603
0.0101447
0.01047
0.0107347
0.0109376
0.010994
0.0108366
0.0102339
0.00923627
0.0079196
0.00651992
0.0055089
0.00448097
0.00361756
0.00298231
0.00237684
0.00202344
0.0016626
0.00144242
0.00127126
0.00118577
0.00112196
0.00109132
0.00107686
0.00105758
0.00103379
0.000995701
0.000952973
0.000916831
0.000875671
0.000850033
0.000847571
0.000887363
0.000984201
0.00116992
0.00149626
0.00207752
0.00311146
0.00496808
0.00740434
0.0100198
0.0119206
0.0132573
0.0140121
0.0142328
0.0141073
0.0131636
0.0100369
0.00720258
0.00613594
0.00597042
0.00608559
0.00631432
0.00633188
0.00622405
0.00614974
0.00762061
0.0175743
0.0222019
0.0194926
0.0124023
0.00572216
0.00252319
0.00131584
0.000888278
0.000745408
0.000714735
0.0007233
0.000822057
0.00121801
0.00217979
0.00406072
0.00662301
0.00758495
0.00771665
0.00714159
0.00537891
0.00404368
0.00348038
0.00284765
0.00233551
0.00213046
0.00190047
0.00170547
0.00161026
0.0015269
0.00149865
0.00151561
0.00153798
0.00151067
0.00136483
0.00122713
0.000988224
0.000807569
0.000724235
0.000681443
0.000638544
0.00060542
0.000576907
0.000552192
0.000541392
0.000536468
0.000535001
0.000535209
0.000538985
0.000546214
0.000557873
0.000577894
0.000603399
0.000624401
0.000638672
0.000645728
0.000647563
0.00064719
0.000644507
0.000639853
0.000633731
0.00062427
0.000607706
0.000579138
0.000535756
0.000486996
0.000437795
0.00035695
0.000240891
0.000154135
0.000114079
0.000104972
0.00011391
0.00017169
0.000230318
0.000244535
0.000238551
0.000200802
0.00015415
0.000131517
0.000124903
0.000125093
0.000130816
0.000140862
0.000143969
0.000143572
0.000139924
0.00012746
0.000114787
0.00010583
9.79317e-05
8.96674e-05
8.13562e-05
7.41968e-05
6.89171e-05
6.51675e-05
6.19988e-05
5.86906e-05
5.51794e-05
5.19089e-05
4.93277e-05
4.74963e-05
4.58987e-05
4.38284e-05
4.08354e-05
3.68934e-05
3.22782e-05
2.74045e-05
2.26419e-05
1.82786e-05
1.44665e-05
1.12826e-05
8.703e-06
6.62555e-06
4.95257e-06
3.54835e-06
2.5173e-06
1.60531e-06
0.00379045
0.00520189
0.00605894
0.00662452
0.00744373
0.00843334
0.00905674
0.00930703
0.00942944
0.00945583
0.00906976
0.00868467
0.00764326
0.0064399
0.00534599
0.00419787
0.00325825
0.00263473
0.00210616
0.00172486
0.00151379
0.00136395
0.00129172
0.00125677
0.00124879
0.00126826
0.00132545
0.00139689
0.00148216
0.00153103
0.0015449
0.00147072
0.00137065
0.00122875
0.00106868
0.000923244
0.000776949
0.000689609
0.000617741
0.000576465
0.000548577
0.000537803
0.000575531
0.000716683
0.00107161
0.00186578
0.00360236
0.0069175
0.0103425
0.0126696
0.0139531
0.014391
0.0143915
0.0139594
0.0114422
0.00746467
0.00575605
0.00539538
0.00548095
0.0058027
0.00586126
0.00603787
0.00990404
0.0199172
0.0198349
0.0119688
0.00600332
0.00274731
0.00140438
0.000927062
0.000767122
0.000723394
0.000719345
0.000776581
0.000995554
0.00151849
0.00267632
0.00516643
0.00798276
0.00871032
0.00868182
0.00744426
0.00543095
0.00452656
0.00410469
0.00347958
0.00284412
0.00251448
0.00191456
0.00168955
0.00151554
0.00134433
0.00122287
0.00115895
0.00111929
0.00110136
0.00109342
0.00102934
0.0008853
0.000751769
0.000660844
0.000615638
0.000571668
0.000536884
0.000510113
0.000501965
0.000499742
0.000497222
0.000495297
0.000493412
0.000492425
0.000494894
0.000498505
0.000502363
0.000507345
0.00051474
0.000527403
0.000544935
0.00056331
0.000578071
0.000587402
0.000591922
0.000593557
0.000593241
0.000590576
0.000579314
0.00054752
0.000501133
0.000458775
0.000425735
0.000373206
0.000270315
0.000165713
0.0001065
8.68622e-05
8.76705e-05
0.000115566
0.000186752
0.000217206
0.000218774
0.000201423
0.000155728
0.00012921
0.000119268
0.000118018
0.000120004
0.000127516
0.000131515
0.000131611
0.0001294
0.000120244
0.000108043
9.97953e-05
9.32733e-05
8.65506e-05
7.9306e-05
7.2496e-05
6.72193e-05
6.36272e-05
6.08653e-05
5.79837e-05
5.46985e-05
5.13491e-05
4.83745e-05
4.60469e-05
4.43833e-05
4.29282e-05
4.10587e-05
3.84059e-05
3.49533e-05
3.09106e-05
2.65822e-05
2.22623e-05
1.8182e-05
1.45393e-05
1.13655e-05
8.74869e-06
6.44789e-06
4.74206e-06
3.10736e-06
0.00407459
0.00546417
0.00610659
0.00660752
0.00739589
0.00809131
0.00832803
0.00838121
0.0081118
0.00741972
0.00678566
0.00582888
0.00467774
0.00367835
0.00298472
0.00232024
0.00199866
0.0017447
0.00161308
0.001548
0.00152679
0.00153341
0.00171712
0.00196804
0.00236405
0.00272566
0.00307214
0.00329887
0.00343971
0.00350486
0.00352757
0.00345944
0.00329878
0.00299153
0.00258002
0.00207925
0.00155157
0.00116273
0.000808723
0.000618912
0.000519708
0.000458327
0.00040315
0.000361879
0.000366662
0.000493327
0.000897218
0.00196013
0.00481368
0.0089696
0.0118564
0.0136611
0.0144728
0.0146925
0.0141795
0.0108599
0.00695239
0.00548956
0.00516311
0.00520584
0.00535484
0.00612746
0.0133677
0.0197907
0.0135974
0.00671669
0.00314897
0.00157272
0.000988958
0.000793806
0.000734287
0.000723461
0.000738116
0.000824355
0.00107703
0.0017696
0.00355207
0.00722717
0.0100378
0.0105377
0.0101012
0.00848982
0.00737627
0.00730101
0.00744323
0.00723094
0.00619115
0.00512622
0.00362144
0.00294872
0.00212051
0.00173707
0.00131129
0.0011334
0.00100521
0.000921424
0.000852971
0.00079931
0.000746906
0.000679597
0.000620808
0.000572975
0.000534342
0.000504768
0.000481759
0.000470305
0.000467023
0.000466117
0.000466311
0.000467484
0.000469995
0.000472657
0.000477237
0.000482007
0.000486523
0.000489751
0.000493353
0.00049761
0.000502575
0.000508409
0.000513354
0.000516141
0.000517423
0.00051647
0.000511159
0.000511449
0.000517008
0.000501116
0.000455462
0.000422266
0.000397332
0.000355182
0.000270463
0.000168491
0.000102192
7.60541e-05
7.39633e-05
8.89547e-05
0.000151474
0.000192831
0.000199381
0.000190789
0.000154301
0.000125819
0.000113793
0.000111007
0.000111479
0.000115399
0.000119495
0.000120097
0.00011886
0.000112769
0.000101702
9.40976e-05
8.85185e-05
8.28613e-05
7.65871e-05
7.04044e-05
6.5268e-05
6.16319e-05
5.91195e-05
5.67997e-05
5.40192e-05
5.08418e-05
4.77562e-05
4.50648e-05
4.29071e-05
4.13392e-05
4.00549e-05
3.84969e-05
3.62603e-05
3.32434e-05
2.95969e-05
2.55284e-05
2.1399e-05
1.73595e-05
1.38151e-05
1.05123e-05
7.99476e-06
5.47249e-06
0.00415264
0.00558778
0.00607414
0.00653902
0.0071565
0.00741351
0.00746581
0.00713437
0.00633024
0.00554722
0.00474522
0.00378664
0.00297203
0.00242704
0.00214399
0.0019203
0.00182277
0.00177183
0.00176147
0.00192631
0.00225038
0.00285067
0.0033061
0.00368658
0.0038798
0.00401548
0.00408125
0.00412409
0.00414689
0.00419049
0.00424509
0.00427646
0.00428858
0.004293
0.00419709
0.00395973
0.00354764
0.00272915
0.00188674
0.00120535
0.000739845
0.000516127
0.000411038
0.00032976
0.000270739
0.00024455
0.000298138
0.000561415
0.00143739
0.00442919
0.00866849
0.0118171
0.0139047
0.0148613
0.014852
0.0134118
0.00861571
0.0058525
0.00504454
0.00497202
0.00513661
0.00691156
0.0162177
0.0176165
0.00864566
0.00394537
0.00187249
0.00108752
0.000825634
0.000746478
0.000729068
0.000726974
0.000758472
0.000866512
0.0012177
0.00222518
0.00476
0.00967984
0.0120903
0.0124143
0.0125053
0.012086
0.0125836
0.0147924
0.0164398
0.0170069
0.0159935
0.0132336
0.0109389
0.00858999
0.00548458
0.00405359
0.00240803
0.00164224
0.00118838
0.00096091
0.000844546
0.000772243
0.000716809
0.000673547
0.000624586
0.00057767
0.0005387
0.000507289
0.000482531
0.00046674
0.000458276
0.000455172
0.000454536
0.000454515
0.000455488
0.000459516
0.000466189
0.000472763
0.000479118
0.000484372
0.000488399
0.000491314
0.000493792
0.000496248
0.000497921
0.000498388
0.000497991
0.000495453
0.000484776
0.000449722
0.000430762
0.000431339
0.000419852
0.000385158
0.000370459
0.000356014
0.000323122
0.000251148
0.000158818
9.49696e-05
6.85413e-05
6.58768e-05
7.77248e-05
0.000134704
0.000178658
0.000186392
0.000179962
0.000148547
0.000120829
0.000108351
0.000104615
0.000104535
0.000106522
0.000110403
0.000111393
0.00011061
0.000106072
9.6116e-05
8.90808e-05
8.4044e-05
7.91245e-05
7.36433e-05
6.80592e-05
6.316e-05
5.94601e-05
5.70153e-05
5.51763e-05
5.30278e-05
5.02811e-05
4.72448e-05
4.43532e-05
4.18416e-05
3.98445e-05
3.84704e-05
3.74834e-05
3.62525e-05
3.42917e-05
3.13815e-05
2.77977e-05
2.36368e-05
1.95863e-05
1.54391e-05
1.21447e-05
8.68085e-06
0.00412778
0.00558453
0.0060037
0.00638092
0.00671043
0.00679265
0.00648863
0.00572344
0.00488652
0.00414781
0.00339523
0.00270653
0.00230062
0.00210386
0.0020118
0.00196558
0.00196935
0.0021716
0.00264821
0.00331125
0.00379036
0.00404258
0.00416425
0.00419824
0.00414828
0.0040839
0.00401522
0.00398202
0.00397089
0.00397095
0.00401672
0.00411594
0.00422486
0.00436655
0.00445445
0.0044907
0.00430719
0.00409846
0.00358726
0.00271683
0.00160798
0.000895059
0.000550486
0.000382769
0.000268014
0.000212632
0.000187962
0.000225442
0.000462215
0.00147094