/*--------------------------------*- C++ -*----------------------------------*\
  =========                 |
  \\      /  F ield         | OpenFOAM: The Open Source CFD Toolbox
   \\    /   O peration     | Website:  https://openfoam.org
    \\  /    A nd           | Version:  7
     \\/     M anipulation  |
\*---------------------------------------------------------------------------*/
FoamFile
{
    version     2.0;
    format      ascii;
    class       surfaceScalarField;
    location    "0.086";
    object      phi_0;
}
// * * * * * * * * * * * * * * * * * * * * * * * * * * * * * * * * * * * * * //

dimensions      [0 3 -1 0 0 0 0];

internalField   nonuniform List<scalar> 
24170
(
1.40097e-06
1.60364e-07
1.26486e-06
1.36117e-07
1.11847e-06
1.46389e-07
9.9283e-07
1.25638e-07
8.83378e-07
1.09452e-07
7.82232e-07
1.01147e-07
6.85318e-07
9.69136e-08
5.93649e-07
9.16692e-08
5.10992e-07
8.26569e-08
4.39691e-07
7.13008e-08
3.79329e-07
6.03626e-08
3.27821e-07
5.15076e-08
2.82655e-07
4.51661e-08
2.42321e-07
4.03342e-08
2.05671e-07
3.66496e-08
1.71109e-07
3.45623e-08
1.41389e-07
2.97198e-08
2.40077e-08
1.17381e-07
1.67973e-06
2.15391e-07
1.65655e-06
1.593e-07
1.62237e-06
1.80568e-07
1.57321e-06
1.74802e-07
1.52079e-06
1.61871e-07
1.47085e-06
1.51089e-07
1.42443e-06
1.43334e-07
1.37983e-06
1.36271e-07
1.33405e-06
1.28429e-07
1.28426e-06
1.21094e-07
1.2311e-06
1.13522e-07
1.177e-06
1.05613e-07
1.12598e-06
9.61798e-08
1.07853e-06
8.77908e-08
1.03527e-06
7.9907e-08
9.9397e-07
7.586e-08
9.48142e-07
7.55476e-08
7.21082e-08
9.00041e-07
1.794e-06
2.86404e-07
1.76914e-06
1.84158e-07
1.75138e-06
1.98335e-07
1.74006e-06
1.8612e-07
1.73534e-06
1.66589e-07
1.72797e-06
1.58457e-07
1.71543e-06
1.5588e-07
1.7008e-06
1.50893e-07
1.68561e-06
1.43622e-07
1.66811e-06
1.3859e-07
1.64627e-06
1.35364e-07
1.62069e-06
1.31191e-07
1.59385e-06
1.23029e-07
1.56861e-06
1.13024e-07
1.54506e-06
1.03455e-07
1.52359e-06
9.73314e-08
1.50008e-06
9.90605e-08
9.96079e-08
1.47258e-06
1.91676e-06
3.15037e-07
1.87689e-06
2.24029e-07
1.8626e-06
2.12627e-07
1.85437e-06
1.94345e-07
1.84783e-06
1.73129e-07
1.84273e-06
1.63561e-07
1.8397e-06
1.5891e-07
1.83897e-06
1.51627e-07
1.83944e-06
1.43145e-07
1.83936e-06
1.38677e-07
1.83666e-06
1.38064e-07
1.83081e-06
1.37041e-07
1.82198e-06
1.3185e-07
1.81186e-06
1.23146e-07
1.80096e-06
1.14359e-07
1.79002e-06
1.08268e-07
1.77993e-06
1.09148e-07
1.12822e-07
1.76672e-06
2.06193e-06
3.45727e-07
2.03688e-06
2.49077e-07
2.01532e-06
2.34185e-07
1.99246e-06
2.17207e-07
1.97693e-06
1.88654e-07
1.97304e-06
1.67454e-07
1.97727e-06
1.54683e-07
1.98333e-06
1.45569e-07
1.98672e-06
1.39753e-07
1.9864e-06
1.38999e-07
1.98317e-06
1.4129e-07
1.97844e-06
1.41773e-07
1.97298e-06
1.37306e-07
1.96756e-06
1.28567e-07
1.96249e-06
1.19426e-07
1.95761e-06
1.1315e-07
1.95373e-06
1.13024e-07
1.18727e-07
1.94783e-06
2.24711e-06
3.82176e-07
2.21031e-06
2.85885e-07
2.17853e-06
2.65956e-07
2.15345e-06
2.4229e-07
2.13584e-06
2.06262e-07
2.12566e-06
1.77641e-07
2.12349e-06
1.56849e-07
2.1276e-06
1.41455e-07
2.13412e-06
1.33238e-07
2.13973e-06
1.33391e-07
2.14282e-06
1.38197e-07
2.14331e-06
1.41286e-07
2.14175e-06
1.38865e-07
2.13894e-06
1.31376e-07
2.13567e-06
1.22694e-07
2.13217e-06
1.16651e-07
2.12898e-06
1.16211e-07
1.22605e-07
2.12511e-06
2.38934e-06
3.99485e-07
2.36991e-06
3.05307e-07
2.36379e-06
2.72083e-07
2.36215e-06
2.43927e-07
2.35324e-06
2.15176e-07
2.33901e-06
1.91869e-07
2.32597e-06
1.69892e-07
2.31799e-06
1.49436e-07
2.31521e-06
1.36012e-07
2.31577e-06
1.3283e-07
2.31739e-06
1.36575e-07
2.31843e-06
1.40252e-07
2.3182e-06
1.39097e-07
2.3167e-06
1.32877e-07
2.31436e-06
1.25025e-07
2.31142e-06
1.19593e-07
2.30829e-06
1.19341e-07
1.25706e-07
2.30519e-06
2.55792e-06
4.04684e-07
2.55717e-06
3.06061e-07
2.55477e-06
2.74484e-07
2.55323e-06
2.45461e-07
2.54516e-06
2.23248e-07
2.53081e-06
2.0622e-07
2.51411e-06
1.86595e-07
2.49809e-06
1.65449e-07
2.48508e-06
1.49025e-07
2.47716e-06
1.40752e-07
2.47531e-06
1.38421e-07
2.47866e-06
1.36906e-07
2.48501e-06
1.32748e-07
2.49167e-06
1.26212e-07
2.49669e-06
1.20005e-07
2.49898e-06
1.17311e-07
2.49872e-06
1.19598e-07
1.27349e-07
2.49708e-06
2.79148e-06
4.96108e-07
2.74595e-06
3.51593e-07
2.72453e-06
2.959e-07
2.7049e-06
2.65098e-07
2.69316e-06
2.34985e-07
2.69385e-06
2.05526e-07
2.70041e-06
1.80036e-07
2.70443e-06
1.61436e-07
2.70331e-06
1.5014e-07
2.69992e-06
1.44146e-07
2.69814e-06
1.40197e-07
2.69914e-06
1.3591e-07
2.70106e-06
1.30821e-07
2.70102e-06
1.26254e-07
2.69747e-06
1.23555e-07
2.69069e-06
1.24089e-07
2.68266e-06
1.27627e-07
1.34264e-07
2.67575e-06
2.99253e-06
4.7536e-07
2.98221e-06
3.61909e-07
2.95552e-06
3.22594e-07
2.92852e-06
2.92104e-07
2.9152e-06
2.48305e-07
2.91517e-06
2.05552e-07
2.91945e-06
1.7576e-07
2.92098e-06
1.59901e-07
2.91848e-06
1.52638e-07
2.91441e-06
1.48218e-07
2.91127e-06
1.43337e-07
2.90956e-06
1.37624e-07
2.90809e-06
1.32289e-07
2.90566e-06
1.28685e-07
2.90207e-06
1.27141e-07
2.89819e-06
1.27971e-07
2.89546e-06
1.30358e-07
1.35049e-07
2.89467e-06
3.23685e-06
4.73955e-07
3.21106e-06
3.87699e-07
3.19967e-06
3.33978e-07
3.18882e-06
3.02952e-07
3.17244e-06
2.64692e-07
3.15605e-06
2.21938e-07
3.14562e-06
1.86189e-07
3.14224e-06
1.63282e-07
3.14278e-06
1.521e-07
3.1429e-06
1.48096e-07
3.13964e-06
1.46602e-07
3.13229e-06
1.4497e-07
3.12201e-06
1.42572e-07
3.11104e-06
1.39654e-07
3.10186e-06
1.36324e-07
3.09627e-06
1.33557e-07
3.09537e-06
1.31254e-07
1.31504e-07
3.09892e-06
2.81561e-06
4.63263e-07
2.83056e-06
3.72743e-07
2.83289e-06
3.31652e-07
2.83392e-06
3.01916e-07
2.82917e-06
2.69451e-07
2.82037e-06
2.3073e-07
2.81543e-06
1.91132e-07
2.8184e-06
1.60307e-07
2.82696e-06
1.43541e-07
2.83601e-06
1.39046e-07
2.84155e-06
1.41072e-07
2.84225e-06
1.44265e-07
2.83931e-06
1.45514e-07
2.8351e-06
1.43865e-07
2.83167e-06
1.39752e-07
2.83047e-06
1.34753e-07
2.83149e-06
1.30241e-07
1.27882e-07
2.83511e-06
3.43143e-06
3.70141e-07
3.40581e-06
3.98368e-07
3.38628e-06
3.5118e-07
3.38894e-06
2.99255e-07
3.39925e-06
2.59146e-07
3.40974e-06
2.20232e-07
3.41935e-06
1.81524e-07
3.42832e-06
1.51341e-07
3.4365e-06
1.35359e-07
3.44393e-06
1.31613e-07
3.45152e-06
1.33482e-07
3.4604e-06
1.3539e-07
3.47108e-06
1.34825e-07
3.48279e-06
1.32164e-07
3.49363e-06
1.28906e-07
3.5018e-06
1.26587e-07
3.50572e-06
1.26316e-07
1.28026e-07
3.50558e-06
4.24409e-06
4.59812e-07
4.21986e-06
4.22594e-07
4.21256e-06
3.58477e-07
4.21891e-06
2.92911e-07
4.23264e-06
2.45414e-07
4.24093e-06
2.11941e-07
4.23603e-06
1.86423e-07
4.22038e-06
1.66991e-07
4.20344e-06
1.52303e-07
4.19475e-06
1.403e-07
4.19861e-06
1.29623e-07
4.21296e-06
1.21039e-07
4.23192e-06
1.15867e-07
4.24888e-06
1.15206e-07
4.2594e-06
1.18379e-07
4.26217e-06
1.23817e-07
4.25884e-06
1.2965e-07
1.33717e-07
4.25315e-06
5.11109e-06
5.17268e-07
5.14641e-06
3.87272e-07
5.19132e-06
3.13566e-07
5.21714e-06
2.67096e-07
5.21755e-06
2.45008e-07
5.20033e-06
2.29158e-07
5.17864e-06
2.08111e-07
5.16231e-06
1.8332e-07
5.15519e-06
1.59428e-07
5.15732e-06
1.38163e-07
5.1672e-06
1.19742e-07
5.18272e-06
1.05522e-07
5.20114e-06
9.74465e-08
5.21938e-06
9.69679e-08
5.23452e-06
1.03243e-07
5.245e-06
1.13331e-07
5.25055e-06
1.24098e-07
1.3226e-07
5.25201e-06
6.31143e-06
4.30424e-07
6.26385e-06
4.34853e-07
6.20709e-06
3.7033e-07
6.18004e-06
2.94147e-07
6.18741e-06
2.37633e-07
6.21959e-06
1.96977e-07
6.25775e-06
1.69951e-07
6.28711e-06
1.53959e-07
6.30303e-06
1.43513e-07
6.30821e-06
1.32982e-07
6.30871e-06
1.19245e-07
6.31076e-06
1.03466e-07
6.31861e-06
8.96e-08
6.33328e-06
8.23002e-08
6.35307e-06
8.34449e-08
6.37486e-06
9.15429e-08
6.39595e-06
1.03013e-07
1.13365e-07
6.41484e-06
7.65294e-06
4.02304e-07
7.70261e-06
3.8518e-07
7.74381e-06
3.29131e-07
7.74727e-06
2.90686e-07
7.74747e-06
2.37432e-07
7.76631e-06
1.78141e-07
7.79564e-06
1.40615e-07
7.81839e-06
1.31218e-07
7.82731e-06
1.34584e-07
7.8259e-06
1.34398e-07
7.81977e-06
1.25377e-07
7.81137e-06
1.11861e-07
7.80068e-06
1.00291e-07
7.78787e-06
9.51078e-08
7.77531e-06
9.60055e-08
7.76643e-06
1.0042e-07
7.76507e-06
1.04374e-07
1.05091e-07
7.77335e-06
9.28753e-06
4.82366e-07
9.321e-06
3.51713e-07
9.38061e-06
2.69516e-07
9.43205e-06
2.39252e-07
9.45923e-06
2.10246e-07
9.45664e-06
1.80737e-07
9.43862e-06
1.5863e-07
9.42597e-06
1.43869e-07
9.42979e-06
1.30767e-07
9.44836e-06
1.15828e-07
9.47261e-06
1.01119e-07
9.49308e-06
9.13987e-08
9.50453e-06
8.88389e-08
9.50763e-06
9.20108e-08
9.50688e-06
9.67526e-08
9.508e-06
9.93022e-08
9.51514e-06
9.72289e-08
9.00792e-08
9.53015e-06
1.14873e-05
4.50431e-07
1.14722e-05
3.66796e-07
1.14548e-05
2.86883e-07
1.14572e-05
2.36911e-07
1.14712e-05
1.96227e-07
1.14893e-05
1.62644e-07
1.151e-05
1.37933e-07
1.15346e-05
1.19226e-07
1.15608e-05
1.04596e-07
1.15831e-05
9.35449e-08
1.15991e-05
8.51065e-08
1.16124e-05
7.8104e-08
1.16296e-05
7.16605e-08
1.16562e-05
6.54028e-08
1.16934e-05
5.952e-08
1.17385e-05
5.42599e-08
1.17862e-05
4.9502e-08
4.55942e-08
1.18307e-05
8.35284e-06
3.87562e-07
8.41828e-06
3.01356e-07
8.44581e-06
2.59355e-07
8.46213e-06
2.20587e-07
8.47454e-06
1.83814e-07
8.49683e-06
1.4036e-07
8.53256e-06
1.02202e-07
8.57215e-06
7.9637e-08
8.60325e-06
7.3497e-08
8.61901e-06
7.77792e-08
8.6201e-06
8.40132e-08
8.61259e-06
8.56201e-08
8.60432e-06
7.9934e-08
8.60196e-06
6.77576e-08
8.60953e-06
5.19507e-08
8.62793e-06
3.58613e-08
8.65595e-06
2.14759e-08
1.0751e-08
8.6908e-06
7.30272e-06
4.36983e-07
7.29413e-06
3.09943e-07
7.3238e-06
2.29684e-07
7.35921e-06
1.85174e-07
7.39583e-06
1.47196e-07
7.43522e-06
1.00971e-07
7.47892e-06
5.85034e-08
7.52221e-06
3.63499e-08
7.55855e-06
3.71498e-08
7.58407e-06
5.22627e-08
7.59943e-06
6.86568e-08
7.60836e-06
7.66889e-08
7.61517e-06
7.31249e-08
7.6227e-06
6.02267e-08
7.63165e-06
4.29987e-08
7.64133e-06
2.61818e-08
7.65042e-06
1.23884e-08
3.05982e-09
7.65811e-06
6.32788e-06
3.27046e-07
6.38253e-06
2.553e-07
6.40995e-06
2.02257e-07
6.43815e-06
1.56972e-07
6.45859e-06
1.26759e-07
6.46577e-06
9.37969e-08
6.47282e-06
5.14482e-08
6.49325e-06
1.59254e-08
6.52671e-06
3.68889e-09
6.56336e-06
1.5607e-08
6.59454e-06
3.74755e-08
6.61607e-06
5.51589e-08
6.62857e-06
6.06246e-08
6.63534e-06
5.34568e-08
6.64003e-06
3.83111e-08
6.64529e-06
2.09183e-08
6.65268e-06
4.99853e-09
-6.01453e-09
6.66176e-06
5.55833e-06
3.60752e-07
5.57923e-06
2.34393e-07
5.61891e-06
1.62577e-07
5.64992e-06
1.25969e-07
5.66884e-06
1.07838e-07
5.68112e-06
8.15167e-08
5.69194e-06
4.06297e-08
5.70391e-06
3.95317e-09
5.7219e-06
-1.42995e-08
5.74442e-06
-6.91163e-09
5.77076e-06
1.11291e-08
5.7985e-06
2.74196e-08
5.82492e-06
3.42094e-08
5.84825e-06
3.0121e-08
5.86793e-06
1.86302e-08
5.88402e-06
4.83042e-09
5.89769e-06
-8.66827e-09
-1.84276e-08
5.9101e-06
4.79795e-06
3.36564e-07
4.87275e-06
1.59601e-07
4.93942e-06
9.59019e-08
4.97891e-06
8.64784e-08
5.0017e-06
8.50454e-08
5.02103e-06
6.2187e-08
5.03778e-06
2.38834e-08
5.04936e-06
-7.62359e-09
5.05477e-06
-1.9709e-08
5.06351e-06
-1.56556e-08
5.08009e-06
-5.44937e-09
5.10538e-06
2.12622e-09
5.13635e-06
3.2373e-09
5.16759e-06
-1.11222e-09
5.19336e-06
-7.14504e-09
5.21089e-06
-1.26981e-08
5.21838e-06
-1.61577e-08
-1.77009e-08
5.21765e-06
4.27202e-06
2.78939e-07
4.3042e-06
1.27417e-07
4.33419e-06
6.592e-08
4.37307e-06
4.75936e-08
4.41816e-06
3.99571e-08
4.45272e-06
2.76205e-08
4.46599e-06
1.06206e-08
4.46406e-06
-5.70004e-09
4.45937e-06
-1.50165e-08
4.4591e-06
-1.53879e-08
4.46492e-06
-1.12674e-08
4.47443e-06
-7.37778e-09
4.48409e-06
-6.42599e-09
4.49146e-06
-8.47917e-09
4.49639e-06
-1.20825e-08
4.49963e-06
-1.59367e-08
4.50266e-06
-1.91856e-08
-2.17556e-08
4.50671e-06
3.73961e-06
2.0394e-07
3.80225e-06
6.47769e-08
3.82692e-06
4.12506e-08
3.84167e-06
3.28372e-08
3.86367e-06
1.79577e-08
3.88433e-06
6.96059e-09
3.89606e-06
-1.10161e-09
3.89857e-06
-8.218e-09
3.89899e-06
-1.54354e-08
3.90381e-06
-2.02026e-08
3.91528e-06
-2.27442e-08
3.93279e-06
-2.48818e-08
3.95418e-06
-2.78215e-08
3.97704e-06
-3.1338e-08
3.99913e-06
-3.41723e-08
4.01889e-06
-3.56935e-08
4.0355e-06
-3.58007e-08
-3.5191e-08
4.04894e-06
3.25256e-06
1.87903e-07
3.29517e-06
2.21722e-08
3.33251e-06
3.90839e-09
3.35844e-06
6.90518e-09
3.37826e-06
-1.86641e-09
3.40137e-06
-1.61474e-08
3.42623e-06
-2.5964e-08
3.44921e-06
-3.11892e-08
3.46683e-06
-3.30589e-08
3.47993e-06
-3.33012e-08
3.49122e-06
-3.40354e-08
3.50253e-06
-3.6188e-08
3.51383e-06
-3.91272e-08
3.52386e-06
-4.1362e-08
3.53134e-06
-4.16579e-08
3.53582e-06
-4.01703e-08
3.53762e-06
-3.75994e-08
-3.5665e-08
3.53809e-06
2.86795e-06
1.35487e-07
2.93324e-06
-4.31194e-08
2.96232e-06
-2.51714e-08
2.9854e-06
-1.61733e-08
3.00153e-06
-1.80008e-08
3.01234e-06
-2.69515e-08
3.02305e-06
-3.66824e-08
3.03442e-06
-4.25521e-08
3.04609e-06
-4.4733e-08
3.0579e-06
-4.51098e-08
3.06914e-06
-4.52782e-08
3.07894e-06
-4.59845e-08
3.08683e-06
-4.70229e-08
3.09309e-06
-4.76211e-08
3.09841e-06
-4.69715e-08
3.10349e-06
-4.52531e-08
3.10884e-06
-4.29477e-08
-4.13794e-08
3.11455e-06
2.54456e-06
4.00018e-08
2.56636e-06
-6.49157e-08
2.56304e-06
-2.18493e-08
2.57697e-06
-3.01075e-08
2.60429e-06
-4.53244e-08
2.6317e-06
-5.43546e-08
2.65108e-06
-5.60622e-08
2.66131e-06
-5.27852e-08
2.66486e-06
-4.82811e-08
2.66435e-06
-4.45994e-08
2.66122e-06
-4.21525e-08
2.65624e-06
-4.10028e-08
2.65022e-06
-4.09988e-08
2.64414e-06
-4.15466e-08
2.63884e-06
-4.16746e-08
2.63453e-06
-4.09403e-08
2.6308e-06
-3.92212e-08
-3.72698e-08
2.6267e-06
2.17933e-06
2.11442e-06
2.09257e-06
2.06246e-06
2.01714e-06
1.96278e-06
1.90672e-06
1.85393e-06
1.80565e-06
1.76105e-06
1.7189e-06
1.6779e-06
1.6369e-06
1.59535e-06
1.55368e-06
1.51274e-06
1.47352e-06
1.43625e-06
-6.61308e-08
6.61308e-08
-1.31216e-07
6.50851e-08
-1.70631e-07
3.94156e-08
-1.70675e-07
4.33532e-11
-1.3739e-07
-3.32852e-08
-8.02788e-08
-5.71108e-08
-7.53391e-09
-7.27449e-08
7.40281e-08
-8.1562e-08
1.59771e-07
-8.57433e-08
2.45425e-07
-8.5654e-08
3.2694e-07
-8.15141e-08
4.00006e-07
-7.30662e-08
4.60337e-07
-6.0331e-08
5.04817e-07
-4.44803e-08
5.32468e-07
-2.7651e-08
5.44011e-07
-1.15431e-08
5.40995e-07
3.01639e-09
5.25491e-07
1.55038e-08
5.00173e-07
2.53178e-08
4.68867e-07
3.13065e-08
4.35968e-07
3.28986e-08
4.04836e-07
3.11323e-08
3.78486e-07
2.63497e-08
3.59196e-07
1.92902e-08
3.48283e-07
1.09126e-08
3.46474e-07
1.80882e-09
3.54226e-07
-7.75148e-09
3.71362e-07
-1.7136e-08
3.97177e-07
-2.58146e-08
4.31611e-07
-3.44342e-08
4.73776e-07
-4.21648e-08
5.22462e-07
-4.86867e-08
5.77527e-07
-5.50652e-08
6.33575e-07
-5.60475e-08
6.91768e-07
-5.8193e-08
7.43652e-07
-5.18841e-08
7.82013e-07
-3.83611e-08
8.13221e-07
-3.1208e-08
7.94456e-07
1.87655e-08
7.4561e-07
4.88454e-08
6.52525e-07
9.30849e-08
3.89304e-07
2.63221e-07
1.35935e-07
2.53369e-07
7.11791e-08
6.47564e-08
1.15526e-07
-4.43471e-08
1.52704e-07
-3.71779e-08
1.51991e-07
7.13593e-10
1.99693e-07
-4.77022e-08
2.9969e-07
-9.99972e-08
3.53398e-07
-5.37082e-08
3.1899e-07
3.44079e-08
2.09933e-07
1.09057e-07
5.80288e-08
1.51904e-07
-1.05946e-07
1.63975e-07
-2.64605e-07
1.58659e-07
-4.13845e-07
1.49239e-07
-5.52897e-07
1.39052e-07
-6.65004e-07
1.12107e-07
-7.26586e-07
6.15826e-08
-7.17834e-07
-8.75241e-09
-6.3421e-07
-8.36239e-08
-4.63573e-07
-1.70637e-07
-1.7531e-07
-2.88263e-07
2.39538e-07
-4.14848e-07
6.77653e-07
-4.38114e-07
9.00954e-07
-2.23302e-07
8.3738e-07
6.35744e-08
6.85034e-07
1.52346e-07
7.20673e-07
-3.56392e-08
9.65298e-07
-2.44624e-07
1.22843e-06
-2.63134e-07
1.36089e-06
-1.32462e-07
1.30301e-06
5.78873e-08
9.78745e-07
3.24261e-07
3.29901e-07
6.48844e-07
-5.22692e-07
8.52593e-07
-1.39965e-06
8.76959e-07
-2.22196e-06
8.2231e-07
-2.95374e-06
7.31776e-07
-3.5802e-06
6.26462e-07
-4.09816e-06
5.17963e-07
-4.51117e-06
4.1301e-07
-4.82713e-06
3.15959e-07
-5.05648e-06
2.29345e-07
-5.21071e-06
1.54228e-07
-5.30133e-06
9.06283e-08
-5.33915e-06
3.78177e-08
-5.33381e-06
-5.33768e-09
-5.29563e-06
-3.81838e-08
-5.23019e-06
-6.54388e-08
-5.14237e-06
-8.78174e-08
-5.03641e-06
-1.05969e-07
-4.91575e-06
-1.20651e-07
-4.78327e-06
-1.32485e-07
-4.64126e-06
-1.4201e-07
-4.49165e-06
-1.49608e-07
-4.33588e-06
-1.55768e-07
-4.17513e-06
-1.60758e-07
-4.01018e-06
-1.64948e-07
-3.84165e-06
-1.68524e-07
-3.67005e-06
-1.71605e-07
-3.49589e-06
-1.74155e-07
-3.31986e-06
-1.76038e-07
-3.14276e-06
-1.77098e-07
-2.96552e-06
-1.77236e-07
-2.78908e-06
-1.76439e-07
-2.61431e-06
-1.74774e-07
-2.44196e-06
-1.72345e-07
-2.27266e-06
-1.693e-07
-2.10678e-06
-1.65888e-07
-1.94437e-06
-1.62409e-07
-1.78524e-06
-1.5913e-07
-1.6289e-06
-1.56341e-07
-1.47451e-06
-1.54388e-07
-1.32095e-06
-1.53559e-07
-1.16686e-06
-1.54093e-07
-1.01077e-06
-1.56085e-07
-8.5125e-07
-1.5952e-07
-6.86986e-07
-1.64264e-07
-5.17063e-07
-1.69923e-07
-3.41084e-07
-1.75979e-07
-1.5951e-07
-1.81574e-07
2.6516e-08
-1.86026e-07
2.14396e-07
-1.8788e-07
4.01236e-07
-1.8684e-07
5.83443e-07
-1.82207e-07
7.57252e-07
-1.73809e-07
9.19169e-07
-1.61916e-07
1.06633e-06
-1.47157e-07
1.19665e-06
-1.30324e-07
1.30885e-06
-1.12204e-07
1.40251e-06
-9.36535e-08
1.47807e-06
-7.55575e-08
1.5364e-06
-5.83312e-08
1.57842e-06
-4.20244e-08
1.60565e-06
-2.72292e-08
1.61989e-06
-1.42355e-08
1.62174e-06
-1.85594e-09
1.61115e-06
1.05925e-08
1.58834e-06
2.28067e-08
1.55355e-06
3.47893e-08
1.5072e-06
4.6348e-08
1.45067e-06
5.65373e-08
1.38655e-06
6.41151e-08
1.31841e-06
6.8138e-08
1.25009e-06
6.83217e-08
1.18506e-06
6.50326e-08
1.12582e-06
5.92378e-08
1.0737e-06
5.21229e-08
1.02896e-06
4.47436e-08
9.91111e-07
3.78449e-08
9.5929e-07
3.18204e-08
9.32514e-07
2.67766e-08
9.09869e-07
2.26444e-08
8.90584e-07
1.92859e-08
8.74023e-07
1.65606e-08
8.5967e-07
1.43532e-08
8.47098e-07
1.2572e-08
8.35953e-07
1.11448e-08
8.25945e-07
1.00078e-08
8.16832e-07
9.11278e-09
8.08418e-07
8.41473e-09
8.00519e-07
7.89891e-09
7.92984e-07
7.53487e-09
7.85636e-07
7.34758e-09
7.78334e-07
7.30235e-09
7.70844e-07
7.49009e-09
7.6303e-07
7.81412e-09
7.54524e-07
8.50584e-09
7.45273e-07
9.25075e-09
7.34543e-07
1.07304e-08
7.22543e-07
1.2e-08
7.07617e-07
1.49259e-08
6.90973e-07
1.66439e-08
6.68203e-07
2.27697e-08
6.4423e-07
2.39737e-08
6.06118e-07
3.81114e-08
5.72531e-07
3.35868e-08
5.02071e-07
7.046e-08
4.35435e-08
4.58528e-07
7.62045e-08
-1.00737e-08
1.41592e-07
-3.02143e-10
2.13367e-07
-3.23598e-08
2.91948e-07
-7.85374e-08
3.79111e-07
-1.20448e-07
4.71159e-07
-1.49159e-07
5.63253e-07
-1.64839e-07
6.52451e-07
-1.7076e-07
7.3477e-07
-1.68062e-07
8.04067e-07
-1.54951e-07
8.60577e-07
-1.38024e-07
9.04444e-07
-1.16934e-07
9.33972e-07
-8.98587e-08
9.48383e-07
-5.88911e-08
9.48375e-07
-2.76432e-08
9.35157e-07
1.67479e-09
9.0612e-07
3.20536e-08
8.63227e-07
5.83968e-08
8.07967e-07
8.05777e-08
7.44318e-07
9.49553e-08
6.76836e-07
1.00381e-07
6.10492e-07
9.74756e-08
5.48645e-07
8.81969e-08
4.92543e-07
7.5392e-08
4.4213e-07
6.13261e-08
3.97205e-07
4.67334e-08
3.57734e-07
3.17199e-08
3.24909e-07
1.56887e-08
3.0067e-07
-1.57527e-09
2.89423e-07
-2.31876e-08
2.9258e-07
-4.53215e-08
3.11511e-07
-6.76178e-08
3.4585e-07
-8.94042e-08
3.97626e-07
-1.07824e-07
4.63271e-07
-1.23838e-07
5.43895e-07
-1.32508e-07
6.37804e-07
-1.3227e-07
7.36808e-07
-1.30212e-07
8.54462e-07
-9.88889e-08
9.6737e-07
-6.40624e-08
1.09788e-06
-3.7424e-08
1.30345e-06
5.76476e-08
1.45106e-06
1.05764e-07
1.44248e-06
7.33332e-08
1.32734e-06
7.07912e-08
1.13416e-06
1.56e-07
9.37569e-07
1.97309e-07
7.71935e-07
1.17931e-07
6.21502e-07
5.04357e-08
4.99655e-07
6.81391e-08
4.12096e-07
1.21967e-07
3.47816e-07
1.73337e-07
2.74538e-07
2.25182e-07
1.70812e-07
2.67701e-07
5.16989e-08
2.77772e-07
-6.96654e-08
2.70604e-07
-1.76899e-07
2.46286e-07
-2.35168e-07
1.70376e-07
-2.14419e-07
4.08334e-08
-1.16125e-07
-1.07046e-07
3.9029e-08
-2.38778e-07
2.23503e-07
-3.55111e-07
4.55665e-07
-5.20425e-07
7.71725e-07
-7.30909e-07
1.15269e-06
-8.19083e-07
1.46709e-06
-5.37695e-07
1.52243e-06
8.22985e-09
1.4654e-06
2.09374e-07
1.51683e-06
-8.70679e-08
1.52726e-06
-2.55049e-07
1.239e-06
2.51243e-08
6.39614e-07
4.66923e-07
-2.12351e-07
9.09852e-07
-1.14328e-06
1.25519e-06
-1.97321e-06
1.47878e-06
-2.6625e-06
1.54188e-06
-3.25965e-06
1.47411e-06
-3.77275e-06
1.33541e-06
-4.20581e-06
1.16484e-06
-4.56377e-06
9.84424e-07
-4.85097e-06
8.05167e-07
-5.07227e-06
6.34305e-07
-5.23369e-06
4.77385e-07
-5.34325e-06
3.38897e-07
-5.40853e-06
2.19517e-07
-5.43595e-06
1.18039e-07
-5.43087e-06
3.27382e-08
-5.398e-06
-3.8209e-08
-5.33947e-06
-9.67048e-08
-5.25935e-06
-1.45559e-07
-5.16101e-06
-1.86157e-07
-5.04727e-06
-2.19715e-07
-4.92069e-06
-2.47225e-07
-4.78354e-06
-2.69636e-07
-4.63778e-06
-2.87778e-07
-4.48493e-06
-3.02453e-07
-4.32631e-06
-3.14386e-07
-4.1628e-06
-3.24265e-07
-3.99511e-06
-3.32643e-07
-3.82373e-06
-3.39904e-07
-3.64912e-06
-3.4621e-07
-3.47179e-06
-3.51486e-07
-3.2924e-06
-3.55427e-07
-3.11181e-06
-3.57691e-07
-2.93097e-06
-3.58075e-07
-2.75085e-06
-3.56564e-07
-2.57231e-06
-3.53314e-07
-2.3961e-06
-3.48549e-07
-2.22283e-06
-3.42574e-07
-2.05283e-06
-3.35893e-07
-1.88611e-06
-3.29119e-07
-1.72245e-06
-3.22796e-07
-1.56131e-06
-3.17477e-07
-1.40185e-06
-3.13845e-07
-1.24295e-06
-3.12467e-07
-1.08323e-06
-3.13814e-07
-9.21213e-07
-3.18098e-07
-7.55428e-07
-3.25304e-07
-5.84521e-07
-3.35172e-07
-4.0742e-07
-3.47024e-07
-2.23542e-07
-3.59856e-07
-3.29798e-08
-3.72136e-07
1.62135e-07
-3.81141e-07
3.60882e-07
-3.86627e-07
5.60141e-07
-3.86099e-07
7.56492e-07
-3.78558e-07
9.46343e-07
-3.63661e-07
1.12628e-06
-3.41856e-07
1.29335e-06
-3.14227e-07
1.44522e-06
-2.82193e-07
1.58034e-06
-2.47322e-07
1.69797e-06
-2.11282e-07
1.79795e-06
-1.75542e-07
1.88068e-06
-1.4106e-07
1.94731e-06
-1.08648e-07
1.9992e-06
-7.91229e-08
2.03779e-06
-5.28297e-08
2.06564e-06
-2.97043e-08
2.08553e-06
-9.29341e-09
2.09915e-06
9.18002e-09
2.10763e-06
2.63127e-08
2.11162e-06
4.23614e-08
2.11121e-06
5.69405e-08
2.10623e-06
6.9104e-08
2.09647e-06
7.78938e-08
2.0819e-06
8.28968e-08
2.06288e-06
8.40482e-08
2.04011e-06
8.20049e-08
2.01449e-06
7.77476e-08
1.987e-06
7.22363e-08
1.95865e-06
6.61931e-08
1.93041e-06
6.00532e-08
1.90315e-06
5.4045e-08
1.87748e-06
4.83053e-08
1.85382e-06
4.29488e-08
1.8323e-06
3.80788e-08
1.81289e-06
3.37662e-08
1.79543e-06
3.00318e-08
1.77973e-06
2.68467e-08
1.76559e-06
2.41466e-08
1.75284e-06
2.18588e-08
1.74135e-06
1.99084e-08
1.73099e-06
1.82582e-08
1.72166e-06
1.68664e-08
1.71323e-06
1.57749e-08
1.70558e-06
1.49515e-08
1.69852e-06
1.4553e-08
1.6919e-06
1.44387e-08
1.68539e-06
1.50079e-08
1.67893e-06
1.57167e-08
1.67191e-06
1.77507e-08
1.66454e-06
1.93654e-08
1.65547e-06
2.40001e-08
1.64573e-06
2.63842e-08
1.63209e-06
3.64045e-08
1.61756e-06
3.85024e-08
1.59518e-06
6.04913e-08
1.57093e-06
5.78438e-08
1.53454e-06
1.06847e-07
8.97744e-08
1.48831e-06
7.25236e-08
-8.25973e-08
2.24692e-07
-1.5247e-07
3.99327e-07
-2.06995e-07
5.65594e-07
-2.44805e-07
7.11894e-07
-2.66748e-07
8.35099e-07
-2.72364e-07
9.35389e-07
-2.65128e-07
1.01472e-06
-2.50095e-07
1.07073e-06
-2.24069e-07
1.10314e-06
-1.87359e-07
1.11346e-06
-1.48344e-07
1.09994e-06
-1.0342e-07
1.05535e-06
-4.52619e-08
9.793e-07
1.71563e-08
8.81356e-07
7.03012e-08
7.74273e-07
1.08758e-07
6.68249e-07
1.38078e-07
5.60221e-07
1.66424e-07
4.46629e-07
1.9417e-07
3.26161e-07
2.15423e-07
1.99725e-07
2.26817e-07
6.67525e-08
2.30448e-07
-7.06107e-08
2.2556e-07
-2.08636e-07
2.13418e-07
-3.42291e-07
1.94981e-07
-4.66255e-07
1.70698e-07
-5.75021e-07
1.40486e-07
-6.63697e-07
1.04365e-07
-7.28177e-07
6.29042e-08
-7.68576e-07
1.72115e-08
-7.80951e-07
-3.29459e-08
-7.64428e-07
-8.41412e-08
-7.20389e-07
-1.33443e-07
-6.48886e-07
-1.79327e-07
-5.52211e-07
-2.20513e-07
-4.31666e-07
-2.53053e-07
-2.86716e-07
-2.77219e-07
-1.23887e-07
-2.93042e-07
6.54932e-08
-2.88269e-07
2.78066e-07
-2.76636e-07
5.00933e-07
-2.60291e-07
7.63523e-07
-2.04942e-07
1.02721e-06
-1.57921e-07
1.26057e-06
-1.60027e-07
1.47755e-06
-1.46189e-07
1.69848e-06
-6.49359e-08
1.87213e-06
2.36678e-08
1.91142e-06
7.8638e-08
1.80673e-06
1.55127e-07
1.61872e-06
2.5615e-07
1.42595e-06
3.14731e-07
1.2496e-06
3.49689e-07
1.0854e-06
3.89387e-07
9.35813e-07
4.17284e-07
7.97592e-07
4.15993e-07
6.678e-07
4.00396e-07
5.65753e-07
3.48333e-07
5.16911e-07
2.19217e-07
5.31249e-07
2.64962e-08
6.20031e-07
-1.95828e-07
7.98972e-07
-4.17719e-07
1.00678e-06
-5.62922e-07
1.21942e-06
-7.33064e-07
1.4594e-06
-9.7089e-07
1.6517e-06
-1.01138e-06
1.72416e-06
-6.1016e-07
1.76112e-06
-2.87317e-08
1.78841e-06
1.82088e-07
1.55613e-06
1.45212e-07
8.775e-07
4.23581e-07
-5.69773e-08
9.59602e-07
-9.93922e-07
1.40387e-06
-1.81293e-06
1.72886e-06
-2.47909e-06
1.92134e-06
-2.97982e-06
1.97951e-06
-3.35686e-06
1.91892e-06
-3.66686e-06
1.78411e-06
-3.94482e-06
1.61337e-06
-4.20441e-06
1.42442e-06
-4.44179e-06
1.22181e-06
-4.64578e-06
1.00916e-06
-4.80794e-06
7.96463e-07
-4.92631e-06
5.95756e-07
-5.00305e-06
4.15634e-07
-5.04314e-06
2.59604e-07
-5.05196e-06
1.26865e-07
-5.03297e-06
1.37446e-08
-4.99309e-06
-7.80854e-08
-4.93379e-06
-1.56004e-07
-4.85735e-06
-2.22e-07
-4.76605e-06
-2.77465e-07
-4.6618e-06
-3.23961e-07
-4.54635e-06
-3.62674e-07
-4.42125e-06
-3.94738e-07
-4.28788e-06
-4.21146e-07
-4.14741e-06
-4.42928e-07
-4.00073e-06
-4.61065e-07
-3.84847e-06
-4.7652e-07
-3.69107e-06
-4.90044e-07
-3.52888e-06
-5.02092e-07
-3.36232e-06
-5.12771e-07
-3.19196e-06
-5.21853e-07
-3.01859e-06
-5.28788e-07
-2.84333e-06
-5.3296e-07
-2.66738e-06
-5.34022e-07
-2.49195e-06
-5.31991e-07
-2.3181e-06
-5.27169e-07
-2.1467e-06
-5.1994e-07
-1.97854e-06
-5.10734e-07
-1.81414e-06
-5.00299e-07
-1.65364e-06
-4.89621e-07
-1.49681e-06
-4.79624e-07
-1.34309e-06
-4.71193e-07
-1.19155e-06
-4.65387e-07
-1.04099e-06
-4.63032e-07
-8.89927e-07
-4.64873e-07
-7.36756e-07
-4.7127e-07
-5.79851e-07
-4.82209e-07
-4.17827e-07
-4.97195e-07
-2.49537e-07
-5.15314e-07
-7.42495e-08
-5.35144e-07
1.06473e-07
-5.52859e-07
2.92738e-07
-5.67406e-07
4.81661e-07
-5.7555e-07
6.70249e-07
-5.74687e-07
8.55225e-07
-5.63534e-07
1.03361e-06
-5.42047e-07
1.20311e-06
-5.1135e-07
1.36209e-06
-4.73211e-07
1.50935e-06
-4.29455e-07
1.64375e-06
-3.81721e-07
1.76408e-06
-3.31612e-07
1.86926e-06
-2.80718e-07
1.95867e-06
-2.3047e-07
2.03214e-06
-1.82125e-07
2.08983e-06
-1.36809e-07
2.13243e-06
-9.54278e-08
2.16153e-06
-5.88119e-08
2.17988e-06
-2.76365e-08
2.19084e-06
-1.78537e-09
2.19815e-06
1.90041e-08
2.20419e-06
3.6328e-08
2.21047e-06
5.06591e-08
2.2173e-06
6.22742e-08
2.22409e-06
7.11029e-08
2.22987e-06
7.71179e-08
2.23357e-06
8.03451e-08
2.23427e-06
8.13057e-08
2.23136e-06
8.06573e-08
2.22462e-06
7.89736e-08
2.2142e-06
7.66126e-08
2.20054e-06
7.37123e-08
2.1843e-06
7.02902e-08
2.16624e-06
6.63586e-08
2.1472e-06
6.19901e-08
2.12796e-06
5.73245e-08
2.10918e-06
5.25405e-08
2.0914e-06
4.78153e-08
2.07495e-06
4.32996e-08
2.06e-06
3.90925e-08
2.0466e-06
3.52582e-08
2.0347e-06
3.18106e-08
2.02417e-06
2.87868e-08
2.01487e-06
2.61703e-08
2.0066e-06
2.40434e-08
1.99921e-06
2.23382e-08
1.99251e-06
2.12496e-08
1.98643e-06
2.05237e-08
1.98078e-06
2.06552e-08
1.97559e-06
2.0911e-08
1.97067e-06
2.26653e-08
1.96612e-06
2.39151e-08
1.96171e-06
2.84185e-08
1.95737e-06
3.07236e-08
1.95303e-06
4.07413e-08
1.94766e-06
4.38713e-08
1.94281e-06
6.53374e-08
1.93304e-06
6.76232e-08
1.9283e-06
1.11582e-07
1.12689e-07
1.90539e-06
8.66819e-08
-1.69279e-07
2.84695e-07
-3.50483e-07
4.90473e-07
-4.12772e-07
6.62851e-07
-4.17184e-07
7.93857e-07
-3.97754e-07
8.80567e-07
-3.59075e-07
9.2666e-07
-3.11221e-07
9.37742e-07
-2.61178e-07
9.05288e-07
-1.91615e-07
8.23295e-07
-1.05365e-07
7.10896e-07
-3.59444e-08
5.93462e-07
1.40138e-08
4.67639e-07
8.0561e-08
3.23518e-07
1.61277e-07
1.69946e-07
2.23874e-07
1.40062e-08
2.64697e-07
-1.43465e-07
2.95549e-07
-3.05139e-07
3.28098e-07
-4.73561e-07
3.62593e-07
-6.51446e-07
3.93308e-07
-8.38804e-07
4.14175e-07
-1.02973e-06
4.21377e-07
-1.21773e-06
4.13562e-07
-1.39412e-06
3.89798e-07
-1.55045e-06
3.51317e-07
-1.68029e-06
3.00535e-07
-1.78022e-06
2.40415e-07
-1.84902e-06
1.7317e-07
-1.88689e-06
1.00766e-07
-1.89512e-06
2.54468e-08
-1.87506e-06
-5.30088e-08
-1.82826e-06
-1.3094e-07
-1.75549e-06
-2.06213e-07
-1.65775e-06
-2.77066e-07
-1.53646e-06
-3.41799e-07
-1.39061e-06
-3.98908e-07
-1.22072e-06
-4.47109e-07
-1.02934e-06
-4.84423e-07
-8.08788e-07
-5.08819e-07
-5.62793e-07
-5.22631e-07
-2.98001e-07
-5.25083e-07
4.16352e-09
-5.07107e-07
3.26342e-07
-4.80099e-07
6.26063e-07
-4.59749e-07
9.07743e-07
-4.27868e-07
1.20389e-06
-3.61088e-07
1.5028e-06
-2.75238e-07
1.77691e-06
-1.95469e-07
2.02762e-06
-9.55851e-08
2.24318e-06
4.05898e-08
2.37325e-06
1.84658e-07
2.4102e-06
3.12745e-07
2.3801e-06
4.19486e-07
2.30127e-06
4.96115e-07
2.19377e-06
5.23489e-07
2.08978e-06
5.04384e-07
2.00983e-06
4.28283e-07
1.94348e-06
2.85574e-07
1.8629e-06
1.07079e-07
1.81058e-06
-1.43516e-07
1.82001e-06
-4.27145e-07
1.87468e-06
-6.17593e-07
1.96607e-06
-8.24455e-07
2.06966e-06
-1.07448e-06
2.10978e-06
-1.0515e-06
2.06993e-06
-5.7031e-07
1.96695e-06
7.42498e-08
1.58807e-06
5.60968e-07
7.23906e-07
1.00937e-06
-3.30072e-07
1.47756e-06
-1.23174e-06
1.86127e-06
-1.95523e-06
2.12735e-06
-2.49739e-06
2.27102e-06
-2.87999e-06
2.30395e-06
-3.14973e-06
2.24925e-06
-3.36835e-06
2.13753e-06
-3.58262e-06
1.99839e-06
-3.80623e-06
1.83697e-06
-4.0245e-06
1.64269e-06
-4.21294e-06
1.41026e-06
-4.3559e-06
1.15211e-06
-4.4526e-06
8.93169e-07
-4.51066e-06
6.53816e-07
-4.53957e-06
4.44537e-07
-4.5471e-06
2.67137e-07
-4.53845e-06
1.18219e-07
-4.51804e-06
-6.67116e-09
-4.48451e-06
-1.11613e-07
-4.43804e-06
-2.02475e-07
-4.37897e-06
-2.81063e-07
-4.30748e-06
-3.48957e-07
-4.22421e-06
-4.07231e-07
-4.13003e-06
-4.56855e-07
-4.02615e-06
-4.98618e-07
-3.91378e-06
-5.33511e-07
-3.79407e-06
-5.62642e-07
-3.66778e-06
-5.87353e-07
-3.53519e-06
-6.09116e-07
-3.39609e-06
-6.29144e-07
-3.25013e-06
-6.48048e-07
-3.09722e-06
-6.65685e-07
-2.93776e-06
-6.81312e-07
-2.77276e-06
-6.93781e-07
-2.60379e-06
-7.01935e-07
-2.43262e-06
-7.05193e-07
-2.26092e-06
-7.03691e-07
-2.08997e-06
-6.98112e-07
-1.92065e-06
-6.89265e-07
-1.75364e-06
-6.77746e-07
-1.58958e-06
-6.64351e-07
-1.42893e-06
-6.50272e-07
-1.27179e-06
-6.36766e-07
-1.11791e-06
-6.25072e-07
-9.66607e-07
-6.16694e-07
-8.16775e-07
-6.12864e-07
-6.6696e-07
-6.14687e-07
-5.15291e-07
-6.22939e-07
-3.59775e-07
-6.37725e-07
-1.98644e-07
-6.58326e-07
-3.03729e-08
-6.83585e-07
1.44724e-07
-7.10241e-07
3.27677e-07
-7.35812e-07
5.16257e-07
-7.55986e-07
7.06743e-07
-7.66036e-07
8.94088e-07
-7.62031e-07
1.07263e-06
-7.42077e-07
1.23743e-06
-7.06851e-07
1.38572e-06
-6.59632e-07
1.51769e-06
-6.0518e-07
1.63615e-06
-5.47917e-07
1.74489e-06
-4.90467e-07
1.84658e-06