/*--------------------------------*- C++ -*----------------------------------*\
  =========                 |
  \\      /  F ield         | OpenFOAM: The Open Source CFD Toolbox
   \\    /   O peration     | Website:  https://openfoam.org
    \\  /    A nd           | Version:  7
     \\/     M anipulation  |
\*---------------------------------------------------------------------------*/
FoamFile
{
    version     2.0;
    format      ascii;
    class       volScalarField;
    location    "0.086";
    object      s;
}
// * * * * * * * * * * * * * * * * * * * * * * * * * * * * * * * * * * * * * //

dimensions      [0 0 0 0 0 0 0];

internalField   nonuniform List<scalar> 
12225
(
1
1
1
1
1
1
1
1
1
1
1
1
1
1
1
1
1
1
1
1
1
1
1
1
1
1
1
1
1
1
1
1
1
1
1
1
1
1
1
1
1
1
1
1
1
1
1
1
1
1
1
1
1
1
1
1
1
1
1
1
1
1
1
1
1
1
1
1
1
1
1
1
1
1
1
1
1
1
1
1
1
1
1
1
1
1
1
1
1
1
1
1
1
1
1
1
1
1
1
1
1
1
1
1
1
1
1
1
1
1
1
1
1
1
1
1
1
1
1
1
1
1
1
1
1
1
1
1
1
1
1
1
1
1
1
1
1
1
1
1
1
1
1
1
1
1
1
1
1
1
1
1
1
1
1
1
1
1
1
1
1
1
1
1
1
1
1
1
1
1
1
1
1
1
1
1
1
1
1
1
1
1
1
1
1
1
1
1
1
1
1
1
1
1
1
1
1
1
1
1
1
1
1
1
1
1
1
1
1
1
1
1
1
1
1
1
1
1
1
1
1
1
1
1
1
1
1
1
1
1
1
1
1
1
1
1
1
1
1
1
1
1
1
1
1
1
1
1
1
1
1
1
1
1
1
1
1
1
1
1
1
1
1
1
1
1
1
1
1
1
1
1
1
1
1
1
1
1
1
1
1
1
1
1
1
1
1
1
1
1
1
1
1
1
1
1
1
1
1
1
1
1
1
1
1
1
1
1
1
1
1
1
1
1
1
1
1
1
1
1
1
1
1
1
1
1
1
1
1
1
1
1
1
1
1
1
1
1
1
1
1
1
1
1
1
1
1
1
1
1
1
1
1
1
1
1
1
1
1
1
1
1
1
1
1
1
1
1
1
1
1
1
1
1
1
1
1
1
1
1
1
1
1
1
1
1
1
1
1
1
1
1
1
1
1
1
1
1
1
1
1
1
1
1
1
1
1
1
1
1
1
1
1
1
1
1
1
1
1
1
1
1
1
1
1
1
1
1
1
1
1
1
1
1
1
1
1
1
1
1
1
1
1
1
1
1
1
1
1
1
1
1
1
1
1
1
1
1
1
1
1
1
1
1
1
1
1
1
1
1
1
1
1
1
1
1
1
1
1
1
1
1
1
1
1
1
1
1
1
1
1
1
1
1
1
1
1
1
1
1
1
1
1
1
1
1
1
1
1
1
1
1
1
1
1
1
1
1
1
1
1
1
1
1
1
1
1
1
1
1
1
1
1
1
1
1
1
1
1
1
0.151795
0.15232
0.161344
0.172704
0.179332
0.190589
0.206557
0.230807
0.267511
0.290413
0.315152
0.333278
0.344929
0.356318
0.3691
0.380526
0.389297
0.396422
0.401924
0.406003
0.409206
0.411747
0.413969
0.416269
0.418236
0.420055
0.421988
0.423099
0.422949
0.422363
0.421485
0.420314
0.418613
0.417541
0.41717
0.417369
0.418169
0.420352
0.422757
0.423419
0.424979
0.424367
0.352457
0.104791
0.06088
0.0543864
0.0655551
0.090107
0.102185
0.118308
0.134978
0.14874
0.161449
0.173931
0.184178
0.192469
0.207127
0.226279
0.25877
0.309483
0.357813
0.390201
0.4115
0.423148
0.404023
0.298492
0.215726
0.207327
0.228976
0.265503
0.308301
0.404076
0.612307
0.794565
0.875636
0.889318
0.886766
0.883513
0.881359
0.879465
0.877833
0.876666
0.875515
0.874408
0.873526
0.872757
0.872067
0.871578
0.871385
0.871385
0.871907
0.872902
0.873808
0.875005
0.876392
0.877429
0.878584
0.880043
0.881291
0.882479
0.883616
0.884814
0.885988
0.886963
0.887802
0.888621
0.889494
0.890278
0.890809
0.8913
0.891893
0.892252
0.892595
0.892908
0.893154
0.893309
0.893372
0.893277
0.89302
0.892545
0.89178
0.890542
0.888674
0.886209
0.883395
0.880198
0.876195
0.870208
0.86109
0.851602
0.844342
0.838839
0.830467
0.81023
0.786502
0.769251
0.745672
0.701547
0.631666
0.535086
0.420115
0.301977
0.196815
0.115551
0.0609303
0.0288821
0.0123598
0.00480179
0.00169613
0.000537912
0.000152789
6.40574e-05
3.3441e-05
1.66472e-05
8.07139e-06
3.82442e-06
1.77894e-06
8.16925e-07
3.72499e-07
1.69541e-07
7.73471e-08
3.5462e-08
1.63526e-08
7.57795e-09
3.52201e-09
1.63746e-09
7.59467e-10
3.50521e-10
1.6063e-10
7.29527e-11
3.27791e-11
1.45484e-11
6.36521e-12
2.74015e-12
1.15678e-12
4.77465e-13
1.91648e-13
7.38495e-14
2.87568e-14
-3.22081e-14
0.152385
0.152236
0.153771
0.156909
0.161359
0.170774
0.186398
0.214751
0.25594
0.304137
0.350926
0.388781
0.418704
0.440838
0.454986
0.464017
0.469166
0.470875
0.470938
0.470494
0.469717
0.468472
0.4663
0.46512
0.463357
0.458808
0.453782
0.443611
0.425743
0.405136
0.386865
0.370126
0.354132
0.342983
0.337238
0.336501
0.337412
0.340407
0.351693
0.376522
0.402316
0.418931
0.414096
0.395963
0.397267
0.397687
0.388845
0.313024
0.152117
0.109489
0.118685
0.145938
0.173758
0.209877
0.258236
0.307759
0.33814
0.35856
0.377603
0.398423
0.422747
0.448085
0.471938
0.508218
0.54431
0.551054
0.503414
0.393181
0.390639
0.404228
0.472068
0.727052
0.850637
0.878388
0.885581
0.884969
0.877426
0.868602
0.858166
0.846066
0.83791
0.826789
0.820025
0.811199
0.803082
0.799137
0.794337
0.791739
0.79068
0.790337
0.790818
0.793663
0.797317
0.801288
0.806126
0.810465
0.815367
0.820679
0.825083
0.830148
0.835066
0.840315
0.845442
0.8501
0.854636
0.859042
0.86364
0.868127
0.871977
0.875532
0.87927
0.882698
0.886406
0.890443
0.894065
0.897611
0.90113
0.904634
0.908144
0.911717
0.91536
0.919091
0.922906
0.926765
0.930581
0.934072
0.936284
0.937551
0.938022
0.937218
0.933063
0.926306
0.919635
0.915433
0.913963
0.914411
0.91911
0.937361
0.949446
0.949913
0.946222
0.934897
0.908038
0.860791
0.806981
0.762533
0.731266
0.693378
0.623114
0.517438
0.400272
0.298545
0.21939
0.158209
0.111394
0.0762679
0.0506404
0.0325636
0.0202721
0.012223
0.00714428
0.00405316
0.00223518
0.00120009
0.000628336
0.000321351
0.000160771
7.88105e-05
3.78895e-05
1.78932e-05
8.29864e-06
3.78647e-06
1.69514e-06
7.47016e-07
3.21346e-07
1.36077e-07
5.57007e-08
2.18779e-08
9.99677e-09
-3.52337e-08
0.109533
0.136189
0.175634
0.226907
0.28453
0.345642
0.397393
0.4423
0.471799
0.490023
0.499881
0.501056
0.500558
0.499437
0.497816
0.494168
0.489428
0.48179
0.472186
0.463647
0.453652
0.44069
0.42279
0.391952
0.343511
0.296204
0.260715
0.245178
0.239236
0.238128
0.24085
0.246101
0.251482
0.255549
0.257501
0.257935
0.257115
0.255793
0.255015
0.258585
0.270064
0.30812
0.346374
0.363151
0.377664
0.393986
0.400322
0.399741
0.394905
0.377188
0.305724
0.199542
0.164906
0.164539
0.176265
0.197662
0.227277
0.240775
0.238031
0.246588
0.292847
0.328084
0.357116
0.427549
0.516784
0.566128
0.572765
0.563862
0.532324
0.565009
0.790801
0.869138
0.8794
0.880563
0.877017
0.860463
0.837989
0.82446
0.812227
0.805855
0.793837
0.778684
0.761073
0.74168
0.724346
0.710821
0.699263
0.689687
0.684399
0.682069
0.681352
0.681922
0.686427
0.693854
0.701454
0.709528
0.718671
0.728022
0.737252
0.746567
0.756365
0.766533
0.776479
0.785876
0.795247
0.80425
0.813427
0.822493
0.831046
0.83903
0.846787
0.85401
0.859575
0.864104
0.868071
0.871907
0.875535
0.87911
0.882657
0.886242
0.890043
0.894105
0.898272
0.902622
0.907305
0.912706
0.920119
0.928835
0.93774
0.945754
0.950486
0.951857
0.950764
0.941636
0.924217
0.908148
0.896758
0.892059
0.891634
0.894368
0.90785
0.931715
0.951841
0.964142
0.968178
0.968388
0.967635
0.96482
0.956552
0.934217
0.911292
0.892998
0.87439
0.840631
0.759403
0.623582
0.481969
0.359201
0.26339
0.189886
0.133983
0.0922285
0.0618182
0.0403223
0.0255989
0.0158341
0.00955328
0.00563371
0.00325167
0.00184271
0.00102594
0.000563901
0.000305245
0.000164032
8.65619e-05
4.55169e-05
2.32586e-05
1.16849e-05
5.99606e-06
2.01607e-06
0.153112
0.325995
0.464539
0.521577
0.542846
0.545889
0.542345
0.534597
0.529364
0.522756
0.514755
0.506957
0.488144
0.4663
0.441519
0.408019
0.390177
0.372809
0.344204
0.308904
0.276721
0.25722
0.241591
0.235477
0.235771
0.248161
0.269141
0.290639
0.322376
0.356132
0.384791
0.407468
0.42181
0.428608
0.430386
0.424587
0.414607
0.400681
0.383938
0.367643
0.349981
0.333051
0.323982
0.320283
0.321185
0.329583
0.344426
0.363035
0.381749
0.388085
0.385633
0.372266
0.340118
0.269266
0.217665
0.197343
0.184332
0.17125
0.164427
0.168726
0.194729
0.26672
0.315701
0.40579
0.510503
0.568396
0.582082
0.572979
0.583653
0.782427
0.870054
0.878463
0.877048
0.867551
0.839998
0.821065
0.811192
0.804166
0.795262
0.781652
0.754657
0.716495
0.66631
0.622685
0.603868
0.594608
0.590206
0.588584
0.588299
0.589745
0.594454
0.600926
0.607509
0.614019
0.620587
0.626845
0.632593
0.638486
0.644841
0.652146
0.660411
0.6694
0.680626
0.694476
0.709836
0.727126
0.746212
0.767042
0.78901
0.81058
0.828756
0.845856
0.860222
0.871071
0.87917
0.88626
0.892132
0.897168
0.901712
0.905697
0.908792
0.910904
0.912123
0.91237
0.9116
0.909726
0.907821
0.908395
0.912512
0.919849
0.93185
0.946631
0.959944
0.967449
0.9693
0.967891
0.95631
0.926487
0.902484
0.889573
0.885971
0.886503
0.891757
0.912071
0.937013
0.95439
0.967862
0.978266
0.984046
0.985758
0.985807
0.985389
0.984005
0.979786
0.965111
0.946478
0.933213
0.9136
0.868822
0.745643
0.570696
0.417928
0.298421
0.208558
0.142339
0.0947916
0.061595
0.0391207
0.0243221
0.014858
0.00892965
0.00530755
0.00311331
0.0018145
0.00104004
0.000592232
0.000328196
0.000178082
9.65613e-05
4.16801e-05
0.549264
0.586268
0.597072
0.590377
0.57319
0.552897
0.523509
0.491179
0.46084
0.423297
0.368103
0.335127
0.325424
0.309274
0.277634
0.267764
0.266696
0.266601
0.267604
0.270636
0.275213
0.28517
0.318032
0.368599
0.44319
0.537138
0.60816
0.672416
0.724216
0.755269
0.777399
0.788228
0.793365
0.794643
0.7864
0.777208
0.760112
0.740169
0.715554
0.689007
0.65943
0.626145
0.591732
0.555921
0.517329
0.473619
0.431438
0.395687
0.371055
0.35793
0.355717
0.362853
0.367043
0.364322
0.35415
0.332496
0.297015
0.267292
0.264416
0.270641
0.296557
0.339719
0.371302
0.449474
0.580372
0.613816
0.602792
0.608835
0.768297
0.863361
0.87739
0.874877
0.861665
0.8301
0.814155
0.806676
0.802143
0.793984
0.776053
0.738185
0.665555
0.597232
0.572776
0.562523
0.558962
0.55812
0.558539
0.561899
0.566345
0.571664
0.577713
0.584701
0.592089
0.599269
0.606185
0.611886
0.615837
0.618962
0.621729
0.624903
0.628247
0.630732
0.632994
0.635537
0.638449
0.642668
0.648665
0.657298
0.67012
0.689095
0.717397
0.752039
0.790216
0.825197
0.850385
0.867865
0.880965
0.891493
0.900537
0.908705
0.916399
0.923713
0.930553
0.93669
0.941717
0.945172
0.946039
0.941143
0.930364
0.920772
0.916608
0.918332
0.928055
0.945628
0.963311
0.974672
0.978091
0.977566
0.969655
0.93904
0.908764
0.894024
0.889836
0.890085
0.894766
0.914456
0.940878
0.959959
0.972847
0.981385
0.987743
0.992214
0.994423
0.994843
0.994583
0.993445
0.992056
0.989925
0.985444
0.976081
0.95752
0.915524
0.795065
0.603732
0.436824
0.306733
0.210424
0.141395
0.093198
0.0604638
0.0386684
0.024478
0.0153141
0.00950379
0.00580613
0.00350355
0.0020637
0.00117876
0.000673375
0.000319197
0.615665
0.614722
0.603577
0.571667
0.50033
0.432019
0.376114
0.338374
0.304753
0.291613
0.289027
0.278185
0.267238
0.264292
0.263743
0.270275
0.284115
0.306785
0.346291
0.409802
0.506614
0.616382
0.705938
0.793013
0.842191
0.880393
0.900635
0.919919
0.928948
0.935471
0.938376
0.939792
0.940232
0.938057
0.934942
0.929852
0.922513
0.912496
0.899434
0.883645
0.865833
0.847096
0.827292
0.805162
0.782043
0.758878
0.727964
0.690886
0.638221
0.569826
0.496565
0.429492
0.385374
0.367997
0.362363
0.357221
0.351748
0.350358
0.351568
0.356689
0.369922
0.385218
0.416691
0.53887
0.641135
0.640794
0.652138
0.767256
0.855357
0.875787
0.874282
0.858335
0.824999
0.810851
0.805333
0.802578
0.79637
0.779851
0.739507
0.655804
0.581984
0.558361
0.551437
0.550131
0.550977
0.555299
0.560036
0.563304
0.567861
0.572963
0.57825
0.584937
0.592292
0.599625
0.607302
0.614193
0.619232
0.6222
0.623777
0.625901
0.628452
0.630304
0.631511
0.632473
0.633152
0.634046
0.635247
0.636988
0.639621
0.643133
0.648376
0.656832
0.67052
0.691083
0.717045
0.744494
0.768561
0.789384
0.808135
0.826508
0.845898
0.866465
0.887376
0.907776
0.926359
0.941764
0.953443
0.961452
0.96556
0.965951
0.958503
0.939965
0.929018
0.927765
0.933624
0.951837
0.970146
0.980693
0.983379
0.982328
0.972145
0.938271
0.911334
0.900035
0.897998
0.899198
0.907443
0.931286
0.95269
0.968598
0.979995
0.987541
0.992195
0.995141
0.996992
0.997911
0.998172
0.998167
0.997994
0.997378
0.995727
0.991597
0.981367
0.956223
0.885325
0.705325
0.519065
0.369627
0.257063
0.175965
0.119033
0.079782
0.0529052
0.0347302
0.0224458
0.0142549
0.00885051
0.00529115
0.00316547
0.00160493
0.61977
0.614335
0.576783
0.499711
0.415828
0.368155
0.325801
0.30386
0.296354
0.29207
0.287776
0.282489
0.281457
0.294375
0.322028
0.372392
0.456749
0.578897
0.680277
0.784965
0.843724
0.890937
0.92286
0.94146
0.955306
0.962138
0.967202
0.969674
0.971132
0.971822
0.972126
0.972712
0.973369
0.973895
0.974217
0.973965
0.973224
0.970572
0.965966
0.958076
0.945963
0.928114
0.908501
0.888899
0.868775
0.850243
0.828981
0.812014
0.796964
0.776477
0.751011
0.709625
0.630448
0.521983
0.442073
0.403798
0.385195
0.378648
0.378201
0.37953
0.38516
0.401086
0.450269
0.620601
0.696129
0.711968
0.786814
0.851856
0.87369
0.874789
0.860329
0.823086
0.808247
0.804209
0.80317
0.800537
0.789104
0.75538
0.675448
0.582241
0.553393
0.54754
0.548623
0.559311
0.571358
0.578345
0.584686
0.589277
0.591438
0.593353
0.596387
0.599494
0.604929
0.610785
0.619089
0.628086
0.635983
0.639743
0.641561
0.642483
0.643354
0.644369
0.644625
0.644627
0.644358
0.643701
0.642748
0.642309
0.642196
0.642893
0.64445
0.64705
0.651224
0.657305
0.665271
0.674461
0.684171
0.693988
0.703695
0.714339
0.72831
0.748542
0.776043
0.808519
0.843687
0.878972
0.911529
0.939196
0.959737
0.971558
0.977185
0.978246
0.973715
0.954973
0.942016
0.940513
0.946067
0.964209
0.979463
0.9861
0.986852
0.984027
0.966976
0.934413
0.916739
0.911638
0.911892
0.915806
0.931887
0.953727
0.969197
0.979944
0.98749
0.992543
0.995631
0.997438
0.998531
0.999131
0.999354
0.999374
0.999313
0.999016
0.99807
0.995368
0.987773
0.966671
0.904025
0.734601
0.550808
0.402324
0.288195
0.203618
0.142162
0.0981289
0.06671
0.0444135
0.0289237
0.0180612
0.0112778
0.00606431
0.621533
0.609893
0.556561
0.465811
0.388577
0.346874
0.325817
0.317114
0.314979
0.318175
0.326454
0.346236
0.392214
0.47682
0.584643
0.700924
0.795727
0.851212
0.904766
0.931081
0.951258
0.962029
0.967507
0.970559
0.972119
0.972751
0.972944
0.972856
0.972113
0.971359
0.971151
0.972059
0.973735
0.975656
0.978133
0.980293
0.982888
0.984507
0.985532
0.985808
0.98335
0.977201
0.964039
0.942017
0.914726
0.889936
0.864758
0.844775
0.828182
0.813127
0.798969
0.785929
0.76847
0.731229
0.64898
0.548814
0.473045
0.428193
0.408163
0.404675
0.406988
0.423113
0.509178
0.6972
0.760123
0.80426
0.852353
0.872275
0.875597
0.866195
0.826279
0.805418
0.80064
0.800952
0.802806
0.798438
0.776859
0.718001
0.603796
0.553698
0.544642
0.547407
0.57064
0.597184
0.608451
0.614894
0.622906
0.627722
0.630172
0.63108
0.630052
0.629925
0.630127
0.63139
0.634926
0.640943
0.648593
0.657798
0.663037
0.66567
0.666759
0.667108
0.667218
0.667145
0.666793
0.666412
0.66575
0.665133
0.664592
0.663349
0.661614
0.660299
0.659719
0.660483
0.663973
0.669125
0.674929
0.681048
0.686982
0.693204
0.701557
0.71563
0.738278
0.768822
0.802339
0.835494
0.866873
0.8959
0.922896
0.94841
0.968924
0.980793
0.985259
0.98546
0.979935
0.962246
0.953732
0.953828
0.961576
0.97816
0.987315
0.989575
0.988795
0.982298
0.959098
0.938686
0.930473
0.929587
0.931555
0.940876
0.959266
0.973259
0.982819
0.989159
0.993367
0.996137
0.997837
0.99881
0.999353
0.999633
0.999727
0.99973
0.999678
0.999435
0.998615
0.996104
0.988617
0.966865
0.900571
0.73296
0.562648
0.422964
0.312425
0.226757
0.161525
0.112266
0.07629
0.049624
0.0322482
0.0183023
0.62237
0.602401
0.53419
0.441769
0.394803
0.372244
0.364407
0.36853
0.392366
0.431178
0.491548
0.571907
0.675327
0.763364
0.834637
0.88776
0.923378
0.941356
0.954658
0.960144
0.96322
0.964301
0.964503
0.961743
0.956786
0.950495
0.943171
0.936586
0.931562
0.929089
0.928257
0.93056
0.935102
0.942358
0.951975
0.962409
0.971818
0.979431
0.986067
0.989437
0.991482
0.992383
0.99133
0.986629
0.974468
0.945585
0.907355
0.869584
0.842469
0.824183
0.806566
0.792127
0.781932
0.765833
0.723883
0.668404
0.60185
0.527728
0.472013
0.443025
0.438263
0.453073
0.578152
0.754146
0.814034
0.852551
0.872904
0.878307
0.872186
0.843089
0.805161
0.795571
0.794553
0.801048
0.803001
0.795912
0.76101
0.665116
0.56094
0.535196
0.533492
0.548488
0.582071
0.603587
0.612641
0.621798
0.631894
0.63679
0.64547
0.652109
0.656413
0.658038
0.657346
0.656597
0.656538
0.656791
0.660451
0.667927
0.67694
0.683295
0.685824
0.686752
0.686826
0.685801
0.684182
0.683382
0.683113
0.682914
0.683362
0.684443
0.685613
0.687283
0.689838
0.692663
0.694812
0.696896
0.698894
0.701355
0.703957
0.706778
0.710432
0.718713
0.736851
0.765447
0.798211
0.830178
0.859903
0.886867
0.910463
0.930434
0.9485
0.966744
0.981404
0.988579
0.99034
0.989178
0.979691
0.967384
0.964649
0.96674
0.977884
0.988169
0.991584
0.991601
0.98907
0.97714
0.960014
0.951227
0.94897
0.949692
0.954287
0.96714
0.978679
0.986523
0.991631
0.994888
0.996954
0.998261
0.999056
0.999502
0.999738
0.999844
0.999867
0.999858
0.999789
0.999513
0.998604
0.995812
0.987521
0.963759
0.891622
0.728272
0.57034
0.436118
0.326071
0.237032
0.16826
0.114053
0.0770355
0.0459428
0.622366
0.599825
0.533314
0.475906
0.45466
0.449952
0.475752
0.518704
0.579893
0.644515
0.714094
0.783805
0.851495
0.891182
0.924567
0.940248
0.94853
0.952172
0.953725
0.953915
0.947814
0.937741
0.921719
0.909714
0.896718
0.889176
0.883057
0.880312
0.878657
0.877936
0.877625
0.877748
0.878822
0.881426
0.887075
0.897596
0.915992
0.939067
0.963248
0.979
0.988898
0.993305
0.995252
0.99609
0.995026
0.989924
0.97509
0.933442
0.875302
0.838175
0.812384
0.791516
0.767832
0.764322
0.750535
0.69541
0.631652
0.577891
0.526142
0.488097
0.479437
0.500785
0.655412
0.800569
0.849776
0.873202
0.880156
0.878072
0.862253
0.814719
0.792068
0.787612
0.789955
0.801732
0.803974
0.792476
0.740024
0.613328
0.532941
0.519767
0.52183
0.540986
0.571389
0.584297
0.589552
0.600076
0.616488
0.626149
0.642353
0.650051
0.664034
0.671298
0.680326
0.68495
0.686867
0.687013
0.68945
0.695322
0.70404
0.710518
0.71271
0.713086
0.711725
0.708449
0.703003
0.698069
0.694283
0.692203
0.691559
0.692175
0.693582
0.695811
0.699209
0.70451
0.712343
0.723173
0.735982
0.74726
0.755426
0.761841
0.767852
0.772635
0.779607
0.798535
0.828155
0.853614
0.874421
0.893221
0.911607
0.929051
0.944282
0.957403
0.970406
0.982945
0.990573
0.993101
0.992932
0.988806
0.977942
0.973952
0.974358
0.980149
0.989368
0.993207
0.993698
0.992755
0.987615
0.975969
0.968577
0.965774
0.96573
0.967785
0.97535
0.984134
0.99013
0.993988
0.996391
0.99787
0.998774
0.999324
0.999645
0.999818
0.999901
0.999928
0.999928
0.999907
0.999807
0.999459
0.998371
0.995148
0.985856
0.959844
0.881197
0.718622
0.564001
0.428211
0.316761
0.223418
0.156708
0.0984384
0.624759
0.605994
0.559973
0.543839
0.540628
0.572876
0.615497
0.66817
0.733416
0.785577
0.843252
0.884516
0.916959
0.932148
0.940918
0.944224
0.945423
0.942202
0.93163
0.913448
0.898197
0.886377
0.880576
0.875564
0.873191
0.872085
0.871629
0.871546
0.871776
0.871817
0.871345
0.870587
0.86953
0.868503
0.867668
0.867396
0.869545
0.877021
0.896139
0.931926
0.967091
0.985031
0.99343
0.996734
0.997774
0.997941
0.995553
0.985949
0.9504
0.87859
0.835142
0.800347
0.75934
0.735206
0.741497
0.723525
0.651234
0.598946
0.557978
0.527551
0.520884
0.553156
0.724678
0.834459
0.869252
0.881369
0.883499
0.875945
0.844255
0.796411
0.781735
0.77997
0.788752
0.803124
0.804701
0.787169
0.716119
0.57739
0.515738
0.504446
0.503911
0.514247
0.522576
0.507613
0.499367
0.498713
0.525414
0.549793
0.576281
0.60344
0.640573
0.660518
0.6832
0.696591
0.70806
0.716742
0.721902
0.725913
0.735896
0.744169
0.747552
0.748797
0.748168
0.74593
0.740067
0.731556
0.721789
0.713369
0.707775
0.704172
0.702415
0.702136
0.703339
0.706822
0.713123
0.723546
0.738636
0.754494
0.766902
0.776858
0.788145
0.803462
0.823783
0.851158
0.881259
0.907891
0.927463
0.936771
0.939099
0.94212
0.949027
0.957729
0.966948
0.976598
0.986131
0.992514
0.994915
0.994951
0.992744
0.984814
0.980898
0.980911
0.984032
0.991188
0.994688
0.995438
0.995113
0.992969
0.986197
0.980429
0.977841
0.977409
0.97834
0.982632
0.988875
0.993189
0.995934
0.997612
0.998617
0.999214
0.999566
0.999771
0.999884
0.99994
0.99996
0.999963
0.999956
0.999917
0.999777
0.999332
0.998011
0.994177
0.983106
0.951121
0.85199
0.678662
0.522989
0.383492
0.278722
0.183124
0.631859
0.621345
0.596514
0.59279
0.623696
0.66917
0.716838
0.772655
0.823783
0.86621
0.901543
0.922874
0.933431
0.93765
0.939196
0.937493
0.926464
0.904036
0.89022
0.880941
0.876107
0.873853
0.873118
0.872926
0.87352
0.874192
0.875268
0.875784
0.876093
0.876458
0.876732
0.876892
0.876482
0.874768
0.871588
0.86739
0.864193
0.863104
0.865024
0.876369
0.906353
0.955796
0.981764
0.993052
0.997545
0.998766
0.999047
0.997546
0.989293
0.947975
0.874782
0.825834
0.769157
0.712723
0.715067
0.717216
0.672798
0.607544
0.573209
0.556344
0.556462
0.609512
0.777751
0.855815
0.879429
0.88537
0.883935
0.869707
0.828733
0.785034
0.774736
0.774813
0.786751
0.805327
0.806939
0.78862
0.714805
0.56396
0.492638
0.468857
0.451759
0.434718
0.395356
0.350891
0.330322
0.322345
0.327613
0.352473
0.396113
0.449751
0.505627
0.57275
0.631614
0.677212
0.705311
0.722749
0.73498
0.744756
0.7501
0.757119
0.760787
0.762648
0.763381
0.763424
0.762902
0.761291
0.757728
0.750736
0.741466
0.733018
0.726623
0.722302
0.719362
0.717864
0.718175
0.722426
0.73369
0.749195
0.764239
0.77588
0.78798
0.80567
0.830326
0.860144
0.891822
0.921009
0.944822
0.962239
0.972197
0.974587
0.97269
0.970015
0.970356
0.975046
0.982568
0.989678
0.994467
0.996213
0.996217
0.994573
0.988706
0.98573
0.985742
0.987912
0.993235
0.996081
0.996872
0.996791
0.995847
0.992133
0.987849
0.985763
0.985284
0.985739
0.988313
0.992566
0.995531
0.997393
0.998509
0.99916
0.999535
0.999749
0.999869
0.999934
0.999967
0.999979
0.999981
0.999978
0.999962
0.9999
0.999702
0.999098
0.99729
0.991825
0.975056
0.922011
0.773757
0.589384
0.443877
0.304265
0.634478
0.633057
0.626952
0.6444
0.686837
0.745989
0.787489
0.833416
0.874665
0.905676
0.92334
0.93168
0.934737
0.93563
0.930983
0.913909
0.891324
0.880846
0.87563
0.873379
0.872779
0.873338
0.874002
0.874998
0.875778
0.876157
0.876312
0.876378
0.876396
0.876778
0.877389
0.878351
0.87948
0.880681
0.881519
0.880801
0.875141
0.866673
0.862318
0.863631
0.873016
0.899081
0.955193
0.982006
0.993926
0.998313
0.999362
0.999538
0.998178
0.988149
0.925522
0.860646
0.802472
0.714512
0.682558
0.69744
0.683274
0.619834
0.583301
0.57545
0.586707
0.674036
0.81202
0.868567
0.884775
0.887707
0.884294
0.865598
0.813701
0.77511
0.766888
0.766921
0.782619
0.805388
0.809412
0.793657
0.723018
0.571222
0.461376
0.427482
0.406854
0.361511
0.303242
0.262301
0.242262
0.234412
0.233337
0.245456
0.267168
0.300661
0.349194
0.40506
0.476562
0.571498
0.655514
0.704143
0.731999
0.748299
0.759948
0.766963
0.768684
0.769587
0.770365
0.770613
0.770651
0.770461
0.769784
0.768508
0.7661
0.76282
0.759207
0.755309
0.75121
0.747507
0.74434
0.742075
0.742098
0.748564
0.7628
0.775056
0.787896
0.806539
0.832318
0.86266
0.894483
0.924218
0.94859
0.966691
0.979108
0.986352
0.988819
0.98856
0.985499
0.982741
0.982997
0.986894
0.992775
0.996123
0.99718
0.997089
0.995503
0.991033
0.98918
0.989294
0.991203
0.995173
0.997281
0.997949
0.997947
0.997467
0.995315
0.99238
0.990912
0.990567
0.990821
0.992486
0.995286
0.997217
0.99842
0.999126
0.999526
0.999747
0.999868
0.999933
0.999967
0.999984
0.99999
0.999991
0.999989
0.999981
0.99995
0.999846
0.999516
0.998473
0.995127
0.984169
0.948417
0.82577
0.645677
0.460918
0.637421
0.652265
0.652141
0.674159
0.733954
0.786073
0.828137
0.866298
0.901609
0.920371
0.929066
0.932408
0.933352
0.928808
0.911967
0.88921
0.87826
0.873895
0.872377
0.872023
0.872811
0.874111
0.874733
0.874963
0.875032
0.874178
0.87377
0.873566
0.873554
0.873715
0.873926
0.874457
0.8758
0.878464
0.88201
0.8839
0.88473
0.882053
0.871775
0.863396
0.866628
0.876238
0.913946
0.963292
0.986325
0.995857
0.999019
0.999709
0.999747
0.998031
0.979923
0.899284
0.844625
0.751448
0.672421
0.674206
0.675169
0.634567
0.593184
0.588381
0.611982
0.732817
0.838536
0.876718
0.887497
0.889104
0.885129
0.865062
0.805909
0.768503
0.759189
0.758433
0.773432
0.803559
0.813401
0.804433
0.745666
0.598352
0.463776
0.398091
0.359604
0.306032
0.246531
0.216126
0.200322
0.193043
0.190817
0.197457
0.212674
0.241554
0.289648
0.344357
0.395616
0.451669
0.529739
0.630742
0.700149
0.73759
0.758712
0.77056
0.777222
0.778877
0.778637
0.778149
0.776727
0.775265
0.774555
0.774256
0.773856
0.773362
0.773236
0.773942
0.775785
0.776373
0.776499
0.776709
0.776425
0.775457
0.776848
0.786058
0.802053
0.821754
0.847389
0.876409
0.905432
0.931724
0.953381
0.969687
0.981385
0.989182
0.993355
0.994678
0.994594
0.99294
0.990185
0.989769
0.991076
0.995081
0.997342
0.997883
0.99768
0.995895
0.99274
0.991771
0.992018
0.9939
0.99677
0.998224
0.998692
0.9987
0.998386
0.996958
0.995159
0.99432
0.994154
0.994323
0.99543
0.997214
0.998399
0.999116
0.999528
0.999755
0.999875
0.999938
0.99997
0.999986
0.999993
0.999995
0.999996
0.999995
0.99999
0.99997
0.999903
0.999679
0.998929
0.996381
0.987662
0.957164
0.860432
0.646698
0.640144
0.66117
0.676076
0.700304
0.757718
0.825362
0.857419
0.884856
0.912885
0.924317
0.92967
0.931848
0.931195
0.920539
0.895834
0.880024
0.873859
0.871885
0.871452
0.872016
0.873498
0.874358
0.874573
0.874279
0.873366
0.872982
0.87286
0.872879
0.873048
0.873216
0.873294
0.873347
0.873507
0.874135
0.876506
0.882688
0.885581
0.885865
0.882745
0.871308
0.866747
0.87038
0.889351
0.940891
0.976111
0.991885
0.997728
0.99952
0.999876
0.999784
0.996754
0.956117
0.875434
0.816876
0.694257
0.652207
0.659657
0.642585
0.60457
0.598162
0.622132
0.752708
0.849434
0.879743
0.888208
0.889485
0.885315
0.861911
0.799185
0.764055
0.752504
0.751641
0.762029
0.796974
0.813472
0.811152
0.780338
0.668576
0.487512
0.401881
0.353204
0.300331
0.241363
0.206344
0.187095
0.177096
0.173816
0.176293
0.18391
0.200958
0.2452
0.316954
0.379876
0.427481
0.474883
0.53637
0.628
0.701016
0.743196
0.766111
0.778186
0.784676
0.786998
0.787018
0.785526
0.781999
0.779208
0.777823
0.777541
0.777693
0.778277
0.779884
0.784379
0.78955
0.79257
0.797405
0.804482
0.810168
0.814596
0.821658
0.837959
0.861128
0.888271
0.915632
0.940007
0.957841
0.970341
0.979184
0.985864
0.991256
0.995038
0.99693
0.997376
0.997243
0.996009
0.994207
0.993908
0.994585
0.996915
0.998196
0.998383
0.99804
0.996093
0.99418
0.993797
0.994186
0.99605
0.99799
0.998907
0.99918
0.999173
0.998916
0.997917
0.996993
0.996636
0.996598
0.996721
0.997427
0.998465
0.999139
0.999539
0.999762
0.999881
0.999942
0.999973
0.999988
0.999994
0.999997
0.999998
0.999998
0.999997
0.999993
0.999979
0.999926
0.999741
0.999089
0.996783
0.98853
0.960112
0.84913
0.641187
0.671576
0.682787
0.719154
0.764897
0.829344
0.870505
0.893104
0.913097
0.92391
0.929022
0.930754
0.926979
0.91146
0.889643
0.877209
0.872244
0.870866
0.870985
0.872254
0.873817
0.874329
0.874232
0.873478
0.872678
0.872282
0.872229
0.8724
0.872768
0.873164
0.873294
0.873302
0.873267
0.873428
0.874419
0.87883
0.884923
0.886431
0.885051
0.876309
0.869195
0.869604
0.880593
0.924747
0.967472
0.98814
0.996309
0.999021
0.999807
0.999947
0.999667
0.99301
0.92286
0.859818
0.772073
0.657682
0.64047
0.636576
0.614348
0.604693
0.619797
0.741417
0.847026
0.879179
0.888049
0.889444
0.885114
0.859397
0.798192
0.761213
0.746319
0.744892
0.750708
0.781962
0.810496
0.81612
0.805461
0.752561
0.565757
0.430674
0.363891
0.309858
0.251089
0.212818
0.190837
0.178583
0.174444
0.174575
0.177939
0.18932
0.219047
0.296257
0.379103
0.430678
0.469931
0.513197
0.56842
0.648926
0.712771
0.752495
0.775017
0.78641
0.791066
0.792407
0.792493
0.791241
0.787693
0.784706
0.783027
0.78239
0.782405
0.783287
0.787402
0.795602
0.802339
0.80939
0.819734
0.8313
0.843918
0.859801
0.881866
0.909089
0.937951
0.962068
0.976591
0.985179
0.990224
0.993099
0.994599
0.995673
0.996988
0.998132
0.998654
0.998705
0.998503
0.997378
0.996365
0.996265
0.996833
0.99822
0.998757
0.998749
0.998185
0.996386
0.995486
0.995428
0.995981
0.99767
0.998842
0.999362
0.999494
0.999471
0.999237
0.998635
0.998285
0.998189
0.998197
0.998302
0.998735
0.999255
0.999589
0.999785
0.999892
0.999948
0.999976
0.999989
0.999995
0.999998
0.999999
0.999999
0.999999
0.999998
0.999995
0.999982
0.999933
0.999756
0.999108
0.996729
0.988132
0.950789
0.642169
0.670584
0.693353
0.719747
0.76104
0.823016
0.868363
0.892108
0.911092
0.922066
0.92738
0.928151
0.924864
0.912574
0.891317
0.878373
0.872681
0.870873
0.870719
0.871796
0.873536
0.874222
0.874226
0.873861
0.873034
0.872532
0.872322
0.87235
0.872597
0.873297
0.873565
0.873423
0.873228
0.873287
0.87404
0.877786
0.884429
0.886578
0.885519
0.877673
0.869677
0.869494
0.878136
0.918706
0.964092
0.986603
0.995699
0.998807
0.999714
0.999947
0.999972
0.999404
0.985329
0.894058
0.844514
0.729608
0.637253
0.628517
0.615333
0.607577
0.612268
0.682587
0.8287
0.875272
0.887207
0.889069
0.884861
0.860179
0.800231
0.761179
0.742637
0.738917
0.741325
0.757246
0.799259
0.815449
0.814368
0.796771
0.720073
0.520222
0.404294
0.33769
0.277016
0.233009
0.205889
0.188659
0.182079
0.182577
0.186278
0.195916
0.217802
0.285673
0.420305
0.493497
0.511742
0.52425
0.555723
0.613303
0.688612
0.741125
0.772235
0.788673
0.796669
0.799742
0.800565
0.800523
0.79874
0.794934
0.792548
0.79138
0.791078
0.791384
0.793429
0.801145
0.813209
0.825868
0.839846
0.855681
0.874525
0.896976
0.923645
0.952594
0.972771
0.984031
0.990426
0.994132
0.996322
0.997622
0.998342
0.998715
0.998985
0.999244
0.999397
0.999417
0.999372
0.99906
0.998137
0.997693
0.997708
0.998253
0.998952
0.9991
0.998972
0.998086
0.996938
0.996632
0.996723
0.997518
0.99873
0.999383
0.999643
0.999692
0.999659
0.999462
0.999222
0.999134
0.999126
0.999151
0.999281
0.999539
0.99973
0.999853
0.999924
0.999963
0.999983
0.999992
0.999997
0.999999
0.999999
1
1
0.999999
0.999999
0.999995
0.999982
0.999931
0.99974
0.99902
0.996336
0.983831
0.644352
0.664765
0.69526
0.717195
0.752584
0.806039
0.859209
0.887614
0.90657
0.918282
0.924358
0.925429
0.923898
0.916038
0.896333
0.881883
0.874445
0.871398
0.870775
0.870985
0.872335
0.873709
0.874112
0.874101
0.873986
0.873666
0.873554
0.87362
0.873815
0.873839
0.873762
0.873412
0.873044
0.873205
0.874319
0.879278
0.885946
0.887145
0.885382
0.876274
0.869122
0.869453
0.878831
0.919101
0.964123
0.986556
0.995635
0.998765
0.999694
0.999936
0.999988
0.999959
0.998343
0.961562
0.874778
0.82368
0.690874
0.629768
0.616635
0.609408
0.61127
0.644083
0.778117
0.86177
0.884736
0.887935
0.883961
0.859885
0.801447
0.760611
0.739537
0.733148
0.733555
0.740801
0.773997
0.80899
0.816468
0.812832
0.787867
0.704124
0.510632
0.40042
0.325956
0.272062
0.238076
0.213923
0.202666