/*--------------------------------*- C++ -*----------------------------------*\
  =========                 |
  \\      /  F ield         | OpenFOAM: The Open Source CFD Toolbox
   \\    /   O peration     | Website:  https://openfoam.org
    \\  /    A nd           | Version:  7
     \\/     M anipulation  |
\*---------------------------------------------------------------------------*/
FoamFile
{
    version     2.0;
    format      ascii;
    class       volScalarField;
    location    "0.086";
    object      s_0;
}
// * * * * * * * * * * * * * * * * * * * * * * * * * * * * * * * * * * * * * //

dimensions      [0 0 0 0 0 0 0];

internalField   nonuniform List<scalar> 
12225
(
1
1
1
1
1
1
1
1
1
1
1
1
1
1
1
1
1
1
1
1
1
1
1
1
1
1
1
1
1
1
1
1
1
1
1
1
1
1
1
1
1
1
1
1
1
1
1
1
1
1
1
1
1
1
1
1
1
1
1
1
1
1
1
1
1
1
1
1
1
1
1
1
1
1
1
1
1
1
1
1
1
1
1
1
1
1
1
1
1
1
1
1
1
1
1
1
1
1
1
1
1
1
1
1
1
1
1
1
1
1
1
1
1
1
1
1
1
1
1
1
1
1
1
1
1
1
1
1
1
1
1
1
1
1
1
1
1
1
1
1
1
1
1
1
1
1
1
1
1
1
1
1
1
1
1
1
1
1
1
1
1
1
1
1
1
1
1
1
1
1
1
1
1
1
1
1
1
1
1
1
1
1
1
1
1
1
1
1
1
1
1
1
1
1
1
1
1
1
1
1
1
1
1
1
1
1
1
1
1
1
1
1
1
1
1
1
1
1
1
1
1
1
1
1
1
1
1
1
1
1
1
1
1
1
1
1
1
1
1
1
1
1
1
1
1
1
1
1
1
1
1
1
1
1
1
1
1
1
1
1
1
1
1
1
1
1
1
1
1
1
1
1
1
1
1
1
1
1
1
1
1
1
1
1
1
1
1
1
1
1
1
1
1
1
1
1
1
1
1
1
1
1
1
1
1
1
1
1
1
1
1
1
1
1
1
1
1
1
1
1
1
1
1
1
1
1
1
1
1
1
1
1
1
1
1
1
1
1
1
1
1
1
1
1
1
1
1
1
1
1
1
1
1
1
1
1
1
1
1
1
1
1
1
1
1
1
1
1
1
1
1
1
1
1
1
1
1
1
1
1
1
1
1
1
1
1
1
1
1
1
1
1
1
1
1
1
1
1
1
1
1
1
1
1
1
1
1
1
1
1
1
1
1
1
1
1
1
1
1
1
1
1
1
1
1
1
1
1
1
1
1
1
1
1
1
1
1
1
1
1
1
1
1
1
1
1
1
1
1
1
1
1
1
1
1
1
1
1
1
1
1
1
1
1
1
1
1
1
1
1
1
1
1
1
1
1
1
1
1
1
1
1
1
1
1
1
1
1
1
1
1
1
1
1
1
1
1
1
1
1
1
1
1
1
1
1
1
1
1
1
1
1
1
1
1
1
1
1
1
1
1
1
1
1
1
1
1
1
1
1
1
1
1
1
1
1
1
1
1
1
0.151794
0.15231
0.161318
0.172679
0.17932
0.190585
0.206569
0.230848
0.267577
0.29048
0.315222
0.333329
0.344971
0.356378
0.369177
0.380599
0.389361
0.396472
0.401961
0.406029
0.409225
0.411761
0.413981
0.41628
0.418245
0.420064
0.421992
0.423097
0.422947
0.422362
0.421488
0.420321
0.418627
0.417563
0.417199
0.4174
0.418203
0.420395
0.422773
0.423428
0.424987
0.424359
0.351987
0.104476
0.0606742
0.0542284
0.0655973
0.0900696
0.1022
0.118377
0.135038
0.148781
0.161469
0.173929
0.184159
0.192422
0.207034
0.226102
0.258449
0.309084
0.357453
0.38993
0.411236
0.422766
0.403175
0.296931
0.215302
0.207291
0.229234
0.265679
0.308839
0.405849
0.615011
0.796138
0.876047
0.889347
0.886794
0.883557
0.881408
0.879519
0.877883
0.876712
0.875563
0.874453
0.873564
0.872791
0.872096
0.871598
0.8714
0.871397
0.871905
0.872896
0.873803
0.874993
0.876385
0.877429
0.878577
0.880035
0.881288
0.882477
0.883615
0.884811
0.885987
0.886966
0.887805
0.888622
0.889494
0.89028
0.890812
0.891301
0.891894
0.892253
0.892594
0.892907
0.89315
0.893303
0.893363
0.893265
0.893003
0.892524
0.891753
0.890507
0.888629
0.886152
0.883326
0.880116
0.876098
0.870087
0.860948
0.851469
0.844234
0.838736
0.830314
0.80996
0.786258
0.76901
0.745295
0.70094
0.630793
0.533998
0.418945
0.300893
0.195945
0.114945
0.0605641
0.0286882
0.0122692
0.0047639
0.0016818
0.000532983
0.000151341
6.3794e-05
3.32657e-05
1.65539e-05
8.02487e-06
3.80178e-06
1.76815e-06
8.11867e-07
3.70153e-07
1.68457e-07
7.68459e-08
3.52291e-08
1.62436e-08
7.52668e-09
3.4978e-09
1.62601e-09
7.54068e-10
3.47989e-10
1.59451e-10
7.24097e-11
3.25319e-11
1.44373e-11
6.31602e-12
2.71873e-12
1.14764e-12
4.73651e-13
1.901e-13
7.32471e-14
2.85171e-14
-3.1975e-14
0.152392
0.152236
0.15377
0.15688
0.161276
0.170653
0.186306
0.214725
0.256013
0.304329
0.351163
0.38902
0.418924
0.441017
0.455117
0.464113
0.469222
0.470909
0.470964
0.470514
0.469735
0.468481
0.466305
0.465123
0.463346
0.458777
0.453742
0.443545
0.425665
0.405114
0.386895
0.370189
0.354219
0.343096
0.337382
0.336662
0.337585
0.340612
0.352003
0.376893
0.402623
0.419023
0.414122
0.39596
0.397293
0.39769
0.388634
0.311556
0.151207
0.109334
0.118779
0.146075
0.173893
0.210049
0.258431
0.307956
0.338312
0.35868
0.377634
0.398473
0.422905
0.448349
0.472463
0.508904
0.54467
0.550982
0.502069
0.392698
0.39051
0.404273
0.473637
0.729909
0.851255
0.878574
0.88565
0.88497
0.877449
0.86862
0.858179
0.846097
0.837976
0.826867
0.820101
0.811378
0.803191
0.799241
0.794489
0.791842
0.79077
0.790419
0.790865
0.793663
0.797312
0.801272
0.806112
0.810459
0.815347
0.820671
0.825083
0.830141
0.835057
0.840302
0.845436
0.8501
0.854636
0.859039
0.863633
0.868123
0.871978
0.875529
0.879264
0.882706
0.886427
0.890464
0.89409
0.897641
0.901164
0.904674
0.90819
0.911768
0.915418
0.919154
0.922975
0.926838
0.930656
0.934132
0.936314
0.937567
0.938024
0.937177
0.932951
0.926179
0.919531
0.915377
0.913948
0.914426
0.919238
0.93763
0.949555
0.949977
0.946233
0.934826
0.907783
0.860444
0.806694
0.762406
0.731171
0.693013
0.622303
0.51632
0.399168
0.297659
0.218698
0.157673
0.110988
0.0759664
0.0504242
0.0324142
0.0201728
0.0121593
0.00710504
0.0040298
0.00222173
0.00119258
0.000624269
0.000319208
0.00015967
7.82581e-05
3.76184e-05
1.77629e-05
8.23727e-06
3.75808e-06
1.68227e-06
7.41277e-07
3.1885e-07
1.35009e-07
5.52583e-08
2.17033e-08
9.9136e-09
-3.49842e-08
0.109504
0.136055
0.17534
0.226391
0.284039
0.345281
0.397182
0.442255
0.471834
0.490086
0.49991
0.501047
0.500546
0.499415
0.497781
0.494114
0.489367
0.481717
0.472118
0.463564
0.453532
0.440531
0.422601
0.391738
0.343443
0.296282
0.260808
0.245226
0.239257
0.238114
0.240778
0.245956
0.251286
0.255316
0.257247
0.257666
0.256841
0.255527
0.254782
0.258413
0.270039
0.308364
0.346622
0.363429
0.37801
0.39424
0.4004
0.399773
0.394817
0.376797
0.304233
0.198731
0.164631
0.164398
0.176226
0.19753
0.22704
0.24051
0.237945
0.246962
0.293871
0.328998
0.358215
0.429164
0.518012
0.566591
0.572826
0.563717
0.531901
0.566127
0.792884
0.869439
0.879497
0.880621
0.87701
0.8604
0.837934
0.824399
0.812215
0.805903
0.794061
0.77903
0.761512
0.742178
0.724827
0.711275
0.699718
0.690103
0.684718
0.682339
0.6816
0.682112
0.68651
0.693909
0.70153
0.709605
0.71875
0.72812
0.737364
0.746677
0.756462
0.766617
0.77654
0.785943
0.795311
0.804304
0.813463
0.822513
0.831051
0.839017
0.846762
0.853967
0.859518
0.864039
0.867999
0.87183
0.875455
0.879028
0.882575
0.886173
0.889997
0.894073
0.89825
0.902615
0.907318
0.912763
0.920241
0.928987
0.937897
0.945891
0.950541
0.95187
0.950706
0.941369
0.923937
0.907915
0.896625
0.892018
0.89163
0.894444
0.90816
0.932021
0.952074
0.964277
0.968247
0.968442
0.967673
0.964824
0.956448
0.933982
0.911136
0.892881
0.874209
0.840145
0.758121
0.622012
0.480492
0.358009
0.262476
0.189189
0.133457
0.0918408
0.0615402
0.0401291
0.0254689
0.0157494
0.00949979
0.00560091
0.0032321
0.00183132
0.00101947
0.00056029
0.000303271
0.000162964
8.59962e-05
4.52182e-05
2.31051e-05
1.16071e-05
5.95548e-06
2.00221e-06
0.15215
0.324978
0.463778
0.521173
0.542651
0.545836
0.542287
0.534587
0.529382
0.522739
0.514701
0.50684
0.487954
0.466069
0.441162
0.407554
0.389718
0.372366
0.343822
0.308606
0.27646
0.256967
0.241349
0.235226
0.235492
0.24773
0.268678
0.290153
0.321733
0.355409
0.383953
0.406521
0.420782
0.427537
0.429283
0.423442
0.413487
0.399586
0.382833
0.366547
0.348934
0.332133
0.323186
0.319619
0.320704
0.329468
0.344552
0.363335
0.382012
0.388177
0.385643
0.37207
0.339541
0.268312
0.21717
0.196933
0.183946
0.170946
0.164345
0.168826
0.195462
0.267872
0.316918
0.407643
0.511905
0.569041
0.582234
0.572853
0.584524
0.784616
0.870374
0.878543
0.877085
0.867515
0.839843
0.821
0.811155
0.804201
0.795416
0.782013
0.755351
0.717558
0.667828
0.623538
0.604256
0.594819
0.590322
0.588652
0.588343
0.589711
0.594338
0.600789
0.607384
0.613906
0.620489
0.626778
0.632558
0.63848
0.64486
0.652192
0.660499
0.669529
0.680801
0.694672
0.710062
0.727374
0.746472
0.767301
0.789247
0.810762
0.828863
0.845934
0.860272
0.871101
0.879184
0.886265
0.892133
0.897165
0.901705
0.905664
0.90872
0.910803
0.911996
0.912217
0.911419
0.909526
0.907665
0.908334
0.912548
0.919955
0.932081
0.94689
0.960155
0.967532
0.969317
0.967833
0.955953
0.926018
0.902197
0.889452
0.885943
0.886511
0.891885
0.912438
0.93729
0.954594
0.968029
0.978382
0.984105
0.985783
0.985825
0.985398
0.983999
0.979722
0.964898
0.946337
0.933083
0.913313
0.868058
0.74375
0.568846
0.416423
0.29728
0.20771
0.141723
0.0943563
0.0612965
0.0389221
0.0241939
0.0147773
0.0088801
0.00527766
0.00309561
0.0018041
0.00103403
0.000588775
0.00032625
0.000177006
9.59608e-05
4.14147e-05
0.548676
0.586006
0.597006
0.590325
0.573231
0.552979
0.523682
0.491405
0.460986
0.423184
0.367978
0.335008
0.325169
0.309033
0.277377
0.267511
0.26643
0.266336
0.267358
0.270434
0.275008
0.284926
0.317751
0.368177
0.442508
0.536262
0.607361
0.671399
0.723257
0.754381
0.77653
0.787354
0.792462
0.793715
0.78534
0.776024
0.758776
0.738661
0.71394
0.687293
0.657621
0.624199
0.589666
0.553777
0.515135
0.471441
0.42947
0.394154
0.370061
0.357402
0.355518
0.363079
0.367189
0.364414
0.354121
0.332294
0.296545
0.267196
0.264584
0.270956
0.297397
0.3404
0.372147
0.45161
0.581716
0.614027
0.602749
0.609614
0.770532
0.863846
0.877482
0.874885
0.861537
0.829952
0.81408
0.806659
0.802196
0.794192
0.77656
0.739278
0.667486
0.598003
0.573048
0.562605
0.558959
0.558092
0.558474
0.561761
0.566173
0.571467
0.577491
0.58446
0.591851
0.599044
0.605987
0.611736
0.615726
0.618872
0.621645
0.624819
0.628177
0.630684
0.632962
0.635522
0.638452
0.642691
0.648718
0.657394
0.67028
0.689354
0.717755
0.752451
0.79068
0.825672
0.850787
0.868185
0.88127
0.891778
0.900804
0.908957
0.916632
0.923919
0.930723
0.936818
0.941796
0.945198
0.945955
0.940838
0.930025
0.920513
0.916499
0.918347
0.928284
0.945942
0.963583
0.974796
0.97812
0.977543
0.969406
0.938461
0.90843
0.893887
0.889805
0.890089
0.894893
0.914845
0.941181
0.960169
0.972987
0.981484
0.987818
0.992261
0.994443
0.994849
0.994583
0.993436
0.992046
0.9899
0.98538
0.975948
0.957236
0.914804
0.793093
0.601734
0.4352
0.30551
0.209537
0.14077
0.0927703
0.0601779
0.0384815
0.0243579
0.0152379
0.00945595
0.00577644
0.00348525
0.00205262
0.00117224
0.000669493
0.000317296
0.615617
0.614718
0.603619
0.57188
0.500794
0.432489
0.376485
0.338639
0.30488
0.291625
0.289029
0.278279
0.267213
0.264201
0.263623
0.270054
0.283916
0.306587
0.346101
0.409649
0.506455
0.616297
0.705675
0.792753
0.841887
0.880196
0.900429
0.919715
0.928749
0.935278
0.938168
0.939563
0.939987
0.937764
0.934581
0.929419
0.921981
0.911854
0.898658
0.88275
0.864872
0.846086
0.826228
0.804009
0.780797
0.757457
0.72629
0.688761
0.635576
0.56697
0.493834
0.427456
0.384394
0.367663
0.362223
0.357183
0.351832
0.350546
0.351799
0.357019
0.370381
0.385782
0.417641
0.541306
0.641813
0.640929
0.653031
0.769147
0.855959
0.875941
0.874301
0.858159
0.824768
0.810729
0.805306
0.802631
0.79656
0.78033
0.740572
0.657635
0.582644
0.558552
0.551447
0.550093
0.550885
0.555149
0.559905
0.563165
0.567679
0.572762
0.578021
0.58468
0.59203
0.599365
0.607049
0.613972
0.619055
0.622069
0.623661
0.625782
0.628346
0.630217
0.631438
0.632409
0.633094
0.633991
0.635197
0.636942
0.639579
0.643097
0.648375
0.656885
0.670669
0.691398
0.717581
0.745204
0.769349
0.790233
0.809037
0.827455
0.846864
0.867399
0.888217
0.908482
0.926881
0.942148
0.953704
0.961599
0.965604
0.965896
0.95811
0.939561
0.928831
0.927723
0.933801
0.9522
0.970406
0.980802
0.9834
0.982291
0.97184
0.93772
0.911062
0.899946
0.897987
0.899231
0.907662
0.931649
0.952945
0.968782
0.98012
0.987621
0.992244
0.995173
0.997011
0.99792
0.998176
0.998169
0.997993
0.997369
0.995702
0.99153
0.981202
0.9558
0.884016
0.703096
0.517244
0.368226
0.256039
0.175244
0.118536
0.0794429
0.0526766
0.0345771
0.0223442
0.0141883
0.0088074
0.00526427
0.00314852
0.00159598
0.619746
0.614376
0.577065
0.500259
0.416355
0.36856
0.326092
0.303977
0.296431
0.292147
0.287906
0.282604
0.281533
0.294378
0.32205
0.372397
0.456852
0.578898
0.68032
0.784941
0.843768
0.890849
0.922873
0.941389
0.955259
0.9621
0.967174
0.969649
0.971107
0.971798
0.972105
0.972683
0.973335
0.973842
0.974152
0.973855
0.973067
0.970351
0.965651
0.957641
0.945382
0.92743
0.907855
0.888185
0.868031
0.849549
0.828326
0.81138
0.796295
0.775588
0.74973
0.707498
0.627388
0.519239
0.44058
0.403113
0.384969
0.37868
0.378295
0.379675
0.385471
0.401723
0.45182
0.622929
0.696717
0.712761
0.788131
0.852482
0.873911
0.874871
0.860223
0.822854
0.808066
0.804107
0.80318
0.800662
0.789468
0.756266
0.677119
0.582947
0.55351
0.547476
0.548443
0.559061
0.571205
0.578222
0.584536
0.589151
0.591308
0.593188
0.596187
0.599254
0.604654
0.610484
0.618758
0.627763
0.635729
0.63954
0.641372
0.642299
0.643169
0.644201
0.644468
0.644473
0.644212
0.643565
0.642619
0.642185
0.642083
0.642796
0.644367
0.646982
0.651175
0.657281
0.665286
0.674544
0.684323
0.694207
0.703989
0.714732
0.728848
0.749263
0.776919
0.809489
0.844719
0.879939
0.912374
0.93986
0.960153
0.971759
0.977257
0.978233
0.973479
0.954528
0.941839
0.940485
0.946248
0.964548
0.979651
0.986159
0.986858
0.983942
0.966518
0.934055
0.916591
0.911617
0.911906
0.915915
0.932214
0.953986
0.969377
0.980068
0.987575
0.992595
0.995662
0.997457
0.998543
0.999137
0.999356
0.999375
0.999312
0.999012
0.998054
0.995322
0.987643
0.966308
0.902877
0.732442
0.549035
0.400942
0.287163
0.202868
0.141626
0.0977496
0.0664426
0.0442274
0.0287957
0.0179769
0.0112217
0.00603258
0.621525
0.610027
0.557034
0.466475
0.389072
0.347256
0.326041
0.317283
0.315147
0.318416
0.326777
0.34656
0.392567
0.47726
0.584821
0.701068
0.795804
0.851264
0.904812
0.931112
0.951225
0.962036
0.96752
0.970564
0.972129
0.972766
0.972961
0.972883
0.972163
0.971416
0.971211
0.972116
0.973797
0.975713
0.978178
0.980309
0.982881
0.984484
0.985497
0.985719
0.98318
0.976901
0.963472
0.9413
0.913936
0.889333
0.864231
0.844356
0.82784
0.812813
0.798687
0.785548
0.767714
0.729586
0.646571
0.546793
0.471789
0.427614
0.408056
0.404778
0.407217
0.423758
0.511559
0.69876
0.760783
0.805078
0.852904
0.872525
0.875705
0.866152
0.826034
0.805197
0.80044
0.800865
0.802844
0.798663
0.777434
0.719189
0.604959
0.553789
0.544481
0.547062
0.570102
0.596888
0.608274
0.614731
0.622733
0.627591
0.630057
0.630972
0.629898
0.629751
0.629936
0.631163
0.634663
0.640668
0.648306
0.657527
0.662797
0.665447
0.666546
0.666899
0.667009
0.666941
0.666596
0.666218
0.665554
0.664938
0.664385
0.66313
0.661388
0.660068
0.659491
0.660289
0.663847
0.669022
0.674852
0.680995
0.68695
0.693203
0.701621
0.715802
0.7386
0.769266
0.80284
0.83603
0.86743
0.896473
0.923499
0.948971
0.969311
0.980967
0.985306
0.985446
0.979684
0.961915
0.953642
0.953829
0.961836
0.978379
0.987407
0.989593
0.988775
0.982119
0.958711
0.938496
0.930429
0.929598
0.931614
0.941112
0.959493
0.973421
0.982927
0.989229
0.993413
0.996166
0.997854
0.99882
0.999358
0.999636
0.999728
0.99973
0.999677
0.99943
0.998601
0.99606
0.988488
0.966491
0.899366
0.730978
0.561028
0.421673
0.311422
0.225992
0.16095
0.111842
0.0759824
0.049411
0.0320993
0.0182126
0.622391
0.60262
0.534735
0.442409
0.395264
0.372625
0.364744
0.368855
0.392827
0.431913
0.49233
0.572452
0.675665
0.763462
0.834788
0.887762
0.923394
0.941355
0.954638
0.960117
0.9632
0.964293
0.964503
0.961767
0.956827
0.950568
0.943276
0.936747
0.931778
0.92933
0.928508
0.930849
0.935419
0.942684
0.95229
0.962619
0.972027
0.979575
0.986116
0.989455
0.991456
0.992355
0.991219
0.98638
0.973934
0.944593
0.906216
0.868851
0.842062
0.82393
0.806373
0.792024
0.781817
0.765339
0.722605
0.667111
0.600496
0.526626
0.471446
0.442962
0.438479
0.453752
0.580668
0.755343
0.814665
0.853035
0.873142
0.878436
0.872244
0.842875
0.804927
0.795339
0.794323
0.800984
0.803074
0.796217
0.761794
0.666452
0.561289
0.535
0.533153
0.547897
0.58135
0.60324
0.612392
0.62152
0.631684
0.636594
0.645251
0.651944
0.656244
0.657868
0.657111
0.656353
0.656297
0.656529
0.660142
0.66759
0.67659
0.682991
0.685547
0.686493
0.686578
0.685577
0.683986
0.683206
0.682956
0.682766
0.68323
0.684321
0.685491
0.687158
0.689698
0.692457
0.694505
0.696513
0.698448
0.70089
0.703497
0.70634
0.710079
0.718587
0.736956
0.765716
0.798545
0.83055
0.860305
0.887274
0.910843
0.930797
0.948885
0.96713
0.981644
0.988671
0.990355
0.989122
0.979402
0.967239
0.964623
0.966814
0.97812
0.988281
0.991613
0.991605
0.989003
0.976884
0.959842
0.951165
0.948974
0.949726
0.954411
0.967337
0.978813
0.986612
0.991687
0.994923
0.996976
0.998275
0.999063
0.999506
0.99974
0.999845
0.999867
0.999858
0.999787
0.999508
0.998588
0.995764
0.987381
0.963358
0.890329
0.726504
0.568839
0.434873
0.325063
0.236238
0.167646
0.113604
0.0767043
0.045731
0.622395
0.600049
0.533828
0.476403
0.455143
0.450428
0.476236
0.519256
0.580515
0.645026
0.714584
0.784003
0.851611
0.891202
0.924561
0.94021
0.948494
0.952129
0.953671
0.95385
0.947726
0.937643
0.921663
0.909696
0.896745
0.889228
0.883109
0.880366
0.878726
0.878006
0.877697
0.877841
0.878938
0.881578
0.887309
0.898022
0.916456
0.939574
0.96357
0.979244
0.989002
0.993334
0.995238
0.996065
0.994931
0.989663
0.974423
0.932011
0.874242
0.837609
0.812034
0.791304
0.767987
0.764426
0.750108
0.694052
0.630639
0.577129
0.525659
0.488072
0.479749
0.501705
0.657704
0.801457
0.850221
0.873461
0.880319
0.878164
0.862172
0.814498
0.791821
0.787363
0.789733
0.801708
0.804086
0.792819
0.740805
0.614407
0.532939
0.519467
0.521365
0.540157
0.570632
0.583726
0.589008
0.599499
0.616057
0.625797
0.642144
0.649896
0.663846
0.671151
0.680109
0.684642
0.686474
0.68656
0.689004
0.694883
0.703558
0.710053
0.712267
0.712647
0.71131
0.708072
0.702664
0.697772
0.694043
0.692013
0.691409
0.69206
0.693491
0.695741
0.699169
0.704522
0.712411
0.723276
0.736047
0.747208
0.755259
0.761585
0.767461
0.772095
0.779099
0.798294
0.827973
0.853438
0.874341
0.893337
0.911836
0.929327
0.94455
0.957663
0.970689
0.983167
0.990677
0.993126
0.992922
0.988643
0.977786
0.973918
0.974374
0.980317
0.989475
0.993243
0.993705
0.992735
0.987483
0.975836
0.968518
0.965767
0.965744
0.967847
0.97549
0.984237
0.990198
0.99403
0.996417
0.997885
0.998784
0.999329
0.999648
0.999819
0.999902
0.999928
0.999928
0.999907
0.999805
0.999453
0.998353
0.995094
0.985703
0.959413
0.879804
0.716974
0.562519
0.426956
0.315728
0.222617
0.156089
0.0980165
0.62478
0.606198
0.560281
0.544173
0.540992
0.573268
0.615938
0.668544
0.733801
0.785913
0.84345
0.88459
0.916974
0.932123
0.940867
0.944163
0.945358
0.942095
0.93145
0.913275
0.898054
0.886285
0.880509
0.875528
0.873168
0.872069
0.871614
0.871531
0.871762
0.871803
0.871331
0.870569
0.869517
0.868492
0.867654
0.867369
0.869614
0.87722
0.896723
0.932578
0.96747
0.985233
0.993508
0.996753
0.997773
0.997907
0.995423
0.985527
0.948864
0.877359
0.834391
0.799854
0.759077
0.735681
0.741698
0.722971
0.650119
0.59837
0.55768
0.527651
0.521263
0.554309
0.726551
0.835072
0.86954
0.881514
0.883588
0.875994
0.844171
0.796197
0.781501
0.779738
0.788548
0.803147
0.80482
0.787549
0.717034
0.578154
0.515588
0.503996
0.503313
0.513235
0.52151
0.50642
0.498114
0.497448
0.524351
0.549233
0.576057
0.603295
0.640597
0.660581
0.683153
0.696496
0.707923
0.716491
0.721503
0.725444
0.735529
0.743868
0.747268
0.74851
0.747842
0.74554
0.739593
0.731018
0.721243
0.712937
0.707416
0.703886
0.702193
0.701966
0.703236
0.706797
0.713188
0.723728
0.738913
0.754758
0.767096
0.777045
0.788385
0.80375
0.824107
0.851537
0.881604
0.908085
0.927403
0.936451
0.938794
0.942013
0.949108
0.957889
0.967141
0.976808
0.986306
0.992605
0.994939
0.994953
0.992659
0.984678
0.980867
0.980913
0.98414
0.991278
0.994724
0.995446
0.995108
0.992918
0.986097
0.980379
0.97783
0.977419
0.978374
0.982724
0.988948
0.993237
0.995964
0.99763
0.998627
0.99922
0.999569
0.999773
0.999885
0.99994
0.999961
0.999963
0.999955
0.999916
0.999774
0.999325
0.997989
0.994114
0.982924
0.950584
0.85039
0.67697
0.521483
0.382253
0.277714
0.182397
0.631874
0.621515
0.596746
0.593023
0.623952
0.669545
0.717165
0.772927
0.824008
0.866425
0.9016
0.922889
0.933411
0.937608
0.939142
0.937409
0.926323
0.903848
0.890079
0.880834
0.876029
0.873799
0.873081
0.872896
0.873496
0.874172
0.875247
0.875768
0.876075
0.876439
0.876706
0.876863
0.876427
0.874686
0.871465
0.867271
0.864119
0.863048
0.865032
0.8766
0.907131
0.956444
0.982034
0.993165
0.997578
0.998767
0.999033
0.997462
0.988938
0.946334
0.87369
0.825054
0.76852
0.712613
0.715454
0.717243
0.671981
0.607063
0.573062
0.556524
0.556869
0.610975
0.779066
0.856218
0.879608
0.885469
0.883993
0.869673
0.828558
0.784817
0.774508
0.774585
0.786544
0.805343
0.807074
0.788981
0.715555
0.564696
0.492302
0.468167
0.450824
0.433513
0.394138
0.349906
0.329396
0.321455
0.32687
0.351841
0.39573
0.449807
0.506042
0.573435
0.632166
0.677592
0.705428
0.72274
0.734913
0.744598
0.749816
0.756914
0.760623
0.762491
0.763222
0.763259
0.76272
0.761066
0.757394
0.750219
0.740891
0.732459
0.726133
0.721886
0.719002
0.717577
0.717975
0.722434
0.733893
0.749499
0.764531
0.776137
0.788296
0.806116
0.830895
0.860793
0.892469
0.92156
0.945232
0.962481
0.972226
0.974446
0.97246
0.969886
0.970339
0.975211
0.982724
0.989808
0.994534
0.996231
0.996219
0.994513
0.988608
0.98571
0.985747
0.987987
0.993307
0.996112
0.99688
0.996792
0.995825
0.992067
0.987811
0.985753
0.985288
0.985759
0.988373
0.992616
0.995564
0.997413
0.99852
0.999167
0.999539
0.999751
0.99987
0.999935
0.999967
0.999979
0.999981
0.999978
0.999962
0.999899
0.999698
0.999088
0.99726
0.991733
0.974771
0.921079
0.771816
0.587692
0.442423
0.303154
0.634489
0.633182
0.62712
0.644565
0.687007
0.746239
0.787803
0.833575
0.8748
0.905767
0.923355
0.931667
0.934706
0.935589
0.930916
0.913785
0.89121
0.880745
0.875555
0.873324
0.872735
0.873309
0.87399
0.87499
0.875775
0.876155
0.876309
0.876376
0.876397
0.87678
0.877394
0.878358
0.879476
0.88066
0.881504
0.880724
0.874922
0.866462
0.862193
0.863595
0.873165
0.899772
0.955779
0.982283
0.994038
0.998345
0.999365
0.999529
0.998104
0.987705
0.923882
0.859731
0.801515
0.714029
0.68279
0.697594
0.683045
0.619352
0.583227
0.57561
0.587203
0.675673
0.812922
0.868852
0.884884
0.887769
0.884342
0.865616
0.813475
0.774888
0.766652
0.766667
0.782404
0.805382
0.809519
0.793975
0.723704
0.572032
0.461182
0.426782
0.406062
0.360671
0.302451
0.261701
0.241735
0.233966
0.233016
0.24524
0.267096
0.300731
0.349404
0.405465
0.477749
0.573038
0.656543
0.704675
0.732193
0.748351
0.759948
0.766838
0.768496
0.769455
0.770239
0.770489
0.770536
0.770342
0.769655
0.768346
0.765873
0.762505
0.758788
0.7548
0.750668
0.746997
0.74386
0.74166
0.741797
0.748666
0.763007
0.775273
0.788178
0.806977
0.832902
0.863332
0.895169
0.924829
0.949068
0.967027
0.979315
0.986433
0.988799
0.988492
0.985348
0.982684
0.983006
0.987035
0.992873
0.996168
0.997192
0.997088
0.995448
0.990971
0.989169
0.989303
0.991267
0.995222
0.997304
0.997956
0.99795
0.997456
0.995273
0.992354
0.990905
0.99057
0.990835
0.992526
0.995319
0.997238
0.998433
0.999133
0.99953
0.999749
0.999869
0.999934
0.999967
0.999984
0.99999
0.999991
0.999989
0.999981
0.99995
0.999844
0.99951
0.998455
0.995069
0.983977
0.947787
0.823923
0.643791
0.459384
0.637415
0.652373
0.652342
0.674262
0.734062
0.786346
0.828401
0.866399
0.901673
0.920388
0.929052
0.932383
0.933326
0.92877
0.911862
0.889122
0.878189
0.873843
0.872342
0.871996
0.872783
0.874101
0.874728
0.874957
0.875026
0.874175
0.873768
0.873567
0.873555
0.873718
0.873933
0.874472
0.875835
0.878514
0.882046
0.883888
0.884698
0.881918
0.871502
0.863285
0.866608
0.876454
0.914881
0.963795
0.986554
0.995943
0.999041
0.999712
0.99974
0.99794
0.979064
0.898061
0.843767
0.750321
0.672237
0.674418
0.675119
0.634219
0.593154
0.588508
0.612425
0.734059
0.839151
0.876903
0.887551
0.889131
0.885144
0.865014
0.805629
0.768303
0.758965
0.758207
0.773202
0.803513
0.813483
0.804647
0.746234
0.59924
0.463697
0.397683
0.359
0.30548
0.246077
0.215777
0.200045
0.192832
0.190676
0.197392
0.212739
0.241767
0.289896
0.344602
0.395844
0.452284
0.531476
0.632619
0.701102
0.738063
0.758913
0.77064
0.777204
0.778724
0.778478
0.777992
0.776573
0.775148
0.774465
0.77417
0.773754
0.773247
0.773111
0.773824
0.775574
0.77605
0.776123
0.776285
0.775926
0.774979
0.776541
0.786127
0.802166
0.821978
0.847741
0.876839
0.905885
0.932161
0.953759
0.969986
0.981603
0.989313
0.993406
0.994676
0.994573
0.992852
0.99014
0.989763
0.991136
0.995159
0.997371
0.99789
0.997675
0.995841
0.992709
0.991767
0.99203
0.993952
0.996804
0.99824
0.998697
0.998701
0.998379
0.996932
0.995144
0.994317
0.994157
0.994332
0.995457
0.997234
0.998412
0.999124
0.999532
0.999757
0.999876
0.999939
0.99997
0.999986
0.999993
0.999995
0.999996
0.999995
0.99999
0.99997
0.999902
0.999675
0.998915
0.996335
0.987505
0.956614
0.858695
0.644736
0.64015
0.661242
0.67621
0.70049
0.757705
0.825537
0.8577
0.884962
0.912896
0.924298
0.929639
0.931819
0.931158
0.920466
0.895744
0.879968
0.873817
0.871856
0.87143
0.872002
0.873498
0.874354
0.874568
0.874272
0.87336
0.872978
0.872856
0.872878
0.873047
0.873215
0.873293
0.873348
0.873513
0.874155
0.876582
0.882757
0.885588
0.885837
0.882621
0.871091
0.866689
0.870444
0.889877
0.941656
0.976486
0.992035
0.997779
0.999533
0.999877
0.999774
0.996591
0.954522
0.874524
0.815773
0.693395
0.652176
0.659665
0.642399
0.604558
0.598254
0.62236
0.753372
0.849752
0.879837
0.888231
0.889492
0.88529
0.861623
0.798828
0.763835
0.752284
0.751446
0.761848
0.796883
0.81354
0.811292
0.7807
0.669525
0.487653
0.401574
0.352783
0.299934
0.241065
0.206139
0.186952
0.177004
0.173775
0.176303
0.183986
0.201202
0.245882
0.317433
0.380015
0.427594
0.475302
0.537679
0.630049
0.702233
0.743875
0.766433
0.778308
0.784674
0.786896
0.786881
0.785326
0.781792
0.779048
0.777711
0.777455
0.777619
0.778219
0.779867
0.784432
0.789497
0.792456
0.797294
0.804301
0.809862
0.814237
0.821409
0.837971
0.861228
0.888426
0.915784
0.940095
0.957891
0.970393
0.979258
0.985964
0.991352
0.995099
0.99695
0.997375
0.997231
0.995957
0.994183
0.993907
0.994616
0.996962
0.998211
0.998386
0.99803
0.996051
0.994165
0.993797
0.994202
0.996091
0.998013
0.998917
0.999183
0.999174
0.99891
0.997903
0.996987
0.996636
0.996601
0.996728
0.997443
0.998477
0.999147
0.999543
0.999764
0.999882
0.999943
0.999973
0.999988
0.999994
0.999997
0.999998
0.999998
0.999997
0.999993
0.999978
0.999925
0.999737
0.999077
0.996741
0.988379
0.959596
0.847346
0.641193
0.671647
0.682902
0.719314
0.76497
0.829387
0.870647
0.893202
0.913096
0.923887
0.928986
0.930707
0.926882
0.911309
0.889537
0.877159
0.872218
0.870851
0.870976
0.872263
0.873823
0.874328
0.874228
0.873469
0.872672
0.872279
0.872227
0.872401
0.872771
0.873164
0.873292
0.8733
0.873268
0.873436
0.874453
0.878937
0.884976
0.886429
0.884996
0.876132
0.869137
0.869618
0.880928
0.925552
0.967918
0.988334
0.996379
0.999043
0.999813
0.999947
0.999648
0.992661
0.921094
0.859032
0.770768
0.657181
0.640459
0.636463
0.614266
0.604728
0.619881
0.741758
0.84725
0.879253
0.888067
0.889445
0.885047
0.859027
0.797779
0.760956
0.746107
0.744709
0.750548
0.781848
0.810542
0.816233
0.805657
0.752992
0.566388
0.430592
0.363544
0.309488
0.250806
0.21263
0.190711
0.178505
0.174424
0.174579
0.177998
0.189507
0.219601
0.297484
0.379435
0.430532
0.469972
0.513656
0.56975
0.650743
0.713964
0.753173
0.775342
0.786491
0.791014
0.792287
0.79234
0.790995
0.787417
0.784484
0.782853
0.782252
0.782287
0.783231
0.787525
0.795709
0.802358
0.809405
0.819767
0.831294
0.843879
0.859807
0.881989
0.909291
0.938166
0.962196
0.976659
0.98521
0.99023
0.993087
0.99458
0.995676
0.997008
0.998148
0.998658
0.998703
0.998491
0.997346
0.996355
0.996267
0.996858
0.998242
0.998763
0.99875
0.998166
0.99636
0.995482
0.995431
0.996001
0.997698
0.998855
0.999367
0.999495
0.999471
0.999232
0.99863
0.998284
0.998191
0.998199
0.998307
0.998744
0.999261
0.999592
0.999787
0.999893
0.999948
0.999976
0.999989
0.999995
0.999998
0.999999
0.999999
0.999999
0.999998
0.999995
0.999981
0.999932
0.999753
0.999096
0.996685
0.987973
0.950174
0.642175
0.67065
0.69351
0.719885
0.761143
0.823035
0.868468
0.892204
0.911097
0.922042
0.927332
0.928067
0.924745
0.912403
0.891195
0.878313
0.872653
0.87086
0.870715
0.871805
0.873544
0.874224
0.874226
0.873854
0.873028
0.872529
0.87232
0.87235
0.872601
0.873304
0.873563
0.873417
0.873228
0.873294
0.874068
0.877894
0.884492
0.886587
0.885481
0.877504
0.869615
0.869495
0.878399
0.919488
0.964552
0.986807
0.995775
0.998832
0.999721
0.999948
0.999971
0.999369
0.984609
0.892772
0.843643
0.728332
0.637036
0.62843
0.615266
0.607577
0.612271
0.682489
0.828696
0.875314
0.887219
0.889054
0.884767
0.859739
0.799721
0.760843
0.742399
0.738726
0.741154
0.75713
0.799277
0.815552
0.814493
0.796963
0.720384
0.520414
0.404111
0.337383
0.276747
0.23283
0.205774
0.188584
0.182088
0.182611
0.186362
0.196092
0.218252
0.287416
0.421368
0.493004
0.510777
0.523835
0.556315
0.614993
0.690164
0.742077
0.772676
0.788828
0.796635
0.799612
0.800401
0.80034
0.798452
0.794654
0.7923
0.791158
0.790875
0.791197
0.79334
0.801251
0.813248
0.825882
0.839883
0.85572
0.874578
0.897077
0.923846
0.95281
0.972896
0.984101
0.990468
0.994157
0.996337
0.99763
0.998344
0.998714
0.998986
0.999246
0.999398
0.999416
0.99937
0.999046
0.99812
0.997691
0.997713
0.998271
0.998962
0.999102
0.998969
0.998065
0.996929
0.996632
0.99673
0.99754
0.998745
0.99939
0.999645
0.999692
0.999659
0.999459
0.999221
0.999135
0.999127
0.999153
0.999285
0.999542
0.999733
0.999854
0.999925
0.999963
0.999983
0.999992
0.999997
0.999999
0.999999
1
1
0.999999
0.999999
0.999995
0.999981
0.99993
0.999736
0.999007
0.996286
0.983618
0.64436
0.664825
0.69542
0.717319
0.752756
0.806006
0.85926
0.887697
0.906585
0.918264
0.924308
0.92535
0.923794
0.915859
0.896156
0.881795
0.874403
0.871379
0.87077
0.870987
0.872352
0.873717
0.874114
0.874102
0.873987
0.873666
0.873557
0.873624
0.873819
0.87384
0.87376
0.873403
0.873047
0.873215
0.874359
0.879404
0.886003
0.88714
0.885324
0.876109
0.869059
0.869447
0.879059
0.919808
0.964554
0.986749
0.995708
0.99879
0.999701
0.999937
0.999989
0.999957
0.998248
0.959933
0.873883
0.822784
0.689977
0.629653
0.616574
0.609409
0.611311
0.644437
0.778654
0.861895
0.884751
0.887887
0.883807
0.859271
0.800734
0.760125
0.739184
0.732884
0.733318
0.740633
0.773988
0.80908
0.816586
0.812965
0.788035
0.704396
0.510817
0.400282
0.325737
0.271898