/*--------------------------------*- C++ -*----------------------------------*\
  =========                 |
  \\      /  F ield         | OpenFOAM: The Open Source CFD Toolbox
   \\    /   O peration     | Website:  https://openfoam.org
    \\  /    A nd           | Version:  7
     \\/     M anipulation  |
\*---------------------------------------------------------------------------*/
FoamFile
{
    version     2.0;
    format      ascii;
    class       volVectorField;
    location    "0.086";
    object      U;
}
// * * * * * * * * * * * * * * * * * * * * * * * * * * * * * * * * * * * * * //

dimensions      [0 1 -1 0 0 0 0];

internalField   nonuniform List<vector> 
12225
(
(4.7595 0.148717 0)
(4.18639 0.108898 0)
(3.69165 0.104744 0)
(3.28796 0.0796824 0)
(2.93972 0.0620973 0)
(2.61845 0.0556589 0)
(2.30672 0.0541442 0)
(2.00572 0.050528 0)
(1.72921 0.0420093 0)
(1.48881 0.0312423 0)
(1.28429 0.0226185 0)
(1.1123 0.0173668 0)
(0.960082 0.0150642 0)
(0.832392 0.0132606 0)
(0.702966 0.011595 0)
(0.615852 0.0113129 0)
(0.467637 0.00337036 0)
(0.452245 -0.0110935 0)
(5.05553 0.0927126 0)
(4.88565 0.0776624 0)
(4.78427 0.09888 0)
(4.67145 0.102554 0)
(4.53143 0.102186 0)
(4.38372 0.101021 0)
(4.24065 0.101507 0)
(4.107 0.102595 0)
(3.97687 0.101905 0)
(3.84162 0.0983548 0)
(3.68951 0.0922161 0)
(3.53385 0.0852924 0)
(3.37222 0.0786591 0)
(3.23766 0.0742343 0)
(3.09057 0.0714079 0)
(2.99422 0.0712984 0)
(2.83416 0.0720412 0)
(2.74297 0.0675903 0)
(4.99937 0.160024 0)
(4.88143 0.115426 0)
(4.7856 0.137967 0)
(4.74384 0.141359 0)
(4.74366 0.133809 0)
(4.73896 0.128633 0)
(4.70976 0.126643 0)
(4.66846 0.125414 0)
(4.628 0.124634 0)
(4.58733 0.125558 0)
(4.53529 0.126969 0)
(4.47095 0.127007 0)
(4.39626 0.122671 0)
(4.32599 0.116472 0)
(4.2572 0.109512 0)
(4.20098 0.105466 0)
(4.13976 0.110139 0)
(4.07187 0.10918 0)
(4.98906 0.205818 0)
(4.83907 0.138628 0)
(4.74673 0.139696 0)
(4.71858 0.127571 0)
(4.71365 0.116597 0)
(4.70616 0.119183 0)
(4.69537 0.126354 0)
(4.68873 0.128708 0)
(4.68912 0.126475 0)
(4.69204 0.125759 0)
(4.69087 0.1284 0)
(4.68084 0.131401 0)
(4.66246 0.130526 0)
(4.63765 0.12596 0)
(4.61179 0.120641 0)
(4.58355 0.118004 0)
(4.55865 0.123716 0)
(4.52673 0.13319 0)
(4.94576 0.195073 0)
(4.89515 0.140978 0)
(4.81822 0.140234 0)
(4.75048 0.14211 0)
(4.70834 0.134603 0)
(4.69267 0.128645 0)
(4.69747 0.12633 0)
(4.71175 0.124499 0)
(4.72447 0.123319 0)
(4.72908 0.125952 0)
(4.72562 0.132306 0)
(4.7163 0.138336 0)
(4.70453 0.140082 0)
(4.69133 0.137186 0)
(4.67967 0.132956 0)
(4.66766 0.130988 0)
(4.65826 0.135552 0)
(4.64562 0.146343 0)
(5.02148 0.234812 0)
(4.96563 0.188362 0)
(4.87089 0.180691 0)
(4.79203 0.167516 0)
(4.7495 0.146456 0)
(4.72524 0.131263 0)
(4.71363 0.122649 0)
(4.71628 0.118121 0)
(4.72945 0.118327 0)
(4.74482 0.124139 0)
(4.7562 0.132968 0)
(4.76095 0.139711 0)
(4.76011 0.14098 0)
(4.75511 0.137178 0)
(4.74881 0.132209 0)
(4.74106 0.130177 0)
(4.73453 0.134816 0)
(4.72569 0.147502 0)
(4.96877 0.222247 0)
(4.93157 0.179059 0)
(4.89978 0.174279 0)
(4.88755 0.169952 0)
(4.87916 0.154352 0)
(4.859 0.139186 0)
(4.83135 0.126655 0)
(4.80824 0.116764 0)
(4.79656 0.112702 0)
(4.79536 0.117145 0)
(4.79958 0.12779 0)
(4.80376 0.138419 0)
(4.80536 0.144069 0)
(4.80372 0.143737 0)
(4.80018 0.14052 0)
(4.79463 0.138824 0)
(4.78906 0.142575 0)
(4.7816 0.154592 0)
(4.92039 0.273508 0)
(4.94885 0.208837 0)
(4.94476 0.190818 0)
(4.93223 0.173778 0)
(4.9227 0.162612 0)
(4.90503 0.1568 0)
(4.87743 0.147576 0)
(4.84532 0.134516 0)
(4.81527 0.124264 0)
(4.79365 0.122315 0)
(4.78439 0.127834 0)
(4.7869 0.135125 0)
(4.79761 0.139111 0)
(4.81152 0.138537 0)
(4.82402 0.136049 0)
(4.83184 0.135968 0)
(4.83424 0.14162 0)
(4.83157 0.155409 0)
(5.06753 0.243974 0)
(4.97503 0.191168 0)
(4.94275 0.175318 0)
(4.89313 0.168183 0)
(4.85465 0.162946 0)
(4.84854 0.157142 0)
(4.86291 0.148427 0)
(4.87656 0.138852 0)
(4.87873 0.132499 0)
(4.87264 0.131035 0)
(4.86705 0.13254 0)
(4.86708 0.133665 0)
(4.87134 0.132483 0)
(4.8747 0.130151 0)
(4.87241 0.12937 0)
(4.86332 0.133307 0)
(4.84932 0.143242 0)
(4.83481 0.159583 0)
(5.03201 0.318249 0)
(5.0281 0.23941 0)
(5.008 0.214422 0)
(4.94591 0.199239 0)
(4.90393 0.176824 0)
(4.89773 0.154075 0)
(4.90828 0.138106 0)
(4.91631 0.130533 0)
(4.91504 0.128873 0)
(4.90819 0.129672 0)
(4.9019 0.130729 0)
(4.89857 0.131742 0)
(4.89698 0.133571 0)
(4.89421 0.137379 0)
(4.88956 0.143343 0)
(4.88279 0.151732 0)
(4.87707 0.161804 0)
(4.87327 0.174335 0)
(5.11026 0.276709 0)
(5.04804 0.23058 0)
(5.03549 0.217589 0)
(5.01737 0.210006 0)
(4.99168 0.188606 0)
(4.96486 0.161629 0)
(4.94417 0.141529 0)
(4.93447 0.132898 0)
(4.93375 0.132987 0)
(4.9359 0.136376 0)
(4.93494 0.138786 0)
(4.92728 0.138757 0)
(4.91333 0.137385 0)
(4.8958 0.136636 0)
(4.87934 0.137805 0)
(4.86694 0.142205 0)
(4.86159 0.149372 0)
(4.86314 0.161105 0)
(4.91062 0.267765 0)
(4.92675 0.242086 0)
(4.94154 0.220622 0)
(4.94159 0.210035 0)
(4.93898 0.194719 0)
(4.92582 0.174202 0)
(4.91155 0.153684 0)
(4.90954 0.13831 0)
(4.92119 0.13077 0)
(4.93889 0.130691 0)
(4.95358 0.135705 0)
(4.95979 0.143114 0)
(4.95743 0.150765 0)
(4.95026 0.157171 0)
(4.94309 0.161095 0)
(4.93828 0.163198 0)
(4.9389 0.163747 0)
(4.94116 0.165819 0)
(4.94239 0.242583 0)
(4.89618 0.227706 0)
(4.85206 0.215096 0)
(4.84038 0.20681 0)
(4.85272 0.19745 0)
(4.86995 0.177153 0)
(4.88501 0.148491 0)
(4.89861 0.123864 0)
(4.91108 0.113007 0)
(4.92244 0.11633 0)
(4.93314 0.127327 0)
(4.94472 0.138734 0)
(4.95845 0.146094 0)
(4.97495 0.148436 0)
(4.99191 0.147588 0)
(5.00655 0.14629 0)
(5.0162 0.147537 0)
(5.01849 0.153017 0)
(5.00025 0.261078 0)
(4.96602 0.284674 0)
(4.94806 0.25579 0)
(4.94171 0.207329 0)
(4.95773 0.173177 0)
(4.97597 0.152506 0)
(4.97982 0.138085 0)
(4.96611 0.127762 0)
(4.9438 0.122162 0)
(4.92636 0.120664 0)
(4.92299 0.121331 0)
(4.9345 0.123044 0)
(4.95569 0.125481 0)
(4.97856 0.129524 0)
(4.99613 0.13569 0)
(5.00459 0.144252 0)
(5.0041 0.154994 0)
(4.99772 0.166261 0)
(4.92563 0.266759 0)
(4.93102 0.222904 0)
(4.9792 0.204618 0)
(5.01528 0.195852 0)
(5.02934 0.186309 0)
(5.02039 0.173686 0)
(4.99852 0.160221 0)
(4.97781 0.149211 0)
(4.96588 0.140533 0)
(4.96361 0.131593 0)
(4.96973 0.12126 0)
(4.98215 0.112073 0)
(4.99901 0.108049 0)
(5.01717 0.112082 0)
(5.03436 0.123562 0)
(5.0468 0.139346 0)
(5.05542 0.15567 0)
(5.0576 0.168778 0)
(5.03243 0.30273 0)
(4.97778 0.272052 0)
(4.93079 0.216095 0)
(4.8882 0.172543 0)
(4.87871 0.163055 0)
(4.89887 0.168484 0)
(4.92938 0.167189 0)
(4.95686 0.15367 0)
(4.97518 0.133815 0)
(4.98338 0.115022 0)
(4.98477 0.100598 0)
(4.98444 0.0911198 0)
(4.98739 0.0869167 0)
(4.99589 0.0894888 0)
(5.0099 0.0998737 0)
(5.02676 0.116754 0)
(5.04426 0.137683 0)
(5.06007 0.158281 0)
(4.95671 0.237137 0)
(4.97131 0.273421 0)
(5.01796 0.271887 0)
(5.02564 0.237363 0)
(5.0213 0.183604 0)
(5.02562 0.12877 0)
(5.0428 0.0972201 0)
(5.06168 0.0964039 0)
(5.07237 0.112686 0)
(5.0742 0.126718 0)
(5.07121 0.127229 0)
(5.0663 0.114832 0)
(5.0601 0.0973424 0)
(5.05237 0.0844738 0)
(5.04359 0.081793 0)
(5.03602 0.0900315 0)
(5.03152 0.105143 0)
(5.03346 0.121671 0)
(4.946 0.277153 0)
(4.95684 0.210398 0)
(4.97757 0.165503 0)
(5.00576 0.166675 0)
(5.03088 0.161713 0)
(5.03591 0.143113 0)
(5.02553 0.126659 0)
(5.01455 0.119629 0)
(5.01135 0.116644 0)
(5.0175 0.111434 0)
(5.02973 0.104665 0)
(5.04247 0.10204 0)
(5.05134 0.10738 0)
(5.0549 0.120086 0)
(5.05494 0.134712 0)
(5.05401 0.145802 0)
(5.05569 0.148949 0)
(5.06076 0.142557 0)
(5.01434 0.310696 0)
(5.02356 0.248244 0)
(5.01365 0.194343 0)
(5.0007 0.165065 0)
(5.00207 0.143866 0)
(5.01089 0.131886 0)
(5.01771 0.126741 0)
(5.02598 0.121109 0)
(5.03727 0.111281 0)
(5.04829 0.098102 0)
(5.05633 0.0845528 0)
(5.06167 0.0741091 0)
(5.06732 0.0687882 0)
(5.07595 0.0684085 0)
(5.08979 0.0711949 0)
(5.10742 0.0746016 0)
(5.12838 0.0767375 0)
(5.14837 0.0766417 0)
(4.98408 0.242647 0)
(5.01195 0.219068 0)
(5.03281 0.198587 0)
(5.04182 0.176357 0)
(5.04511 0.153094 0)
(5.05596 0.127234 0)
(5.07328 0.104394 0)
(5.09577 0.0881243 0)
(5.11822 0.0795738 0)
(5.13313 0.077988 0)
(5.13765 0.0800461 0)
(5.13434 0.0814818 0)
(5.12835 0.0794131 0)
(5.12411 0.0733092 0)
(5.12495 0.0648013 0)
(5.13202 0.0563113 0)
(5.1456 0.0490382 0)
(5.16417 0.0447194 0)
(4.98261 0.267927 0)
(4.99293 0.216273 0)
(5.01046 0.179088 0)
(5.02257 0.150161 0)
(5.04701 0.12422 0)
(5.07641 0.0917744 0)
(5.1048 0.0614528 0)
(5.13315 0.0454431 0)
(5.16066 0.0467925 0)
(5.18268 0.0595092 0)
(5.19651 0.0739098 0)
(5.20388 0.0820583 0)
(5.20848 0.0801486 0)
(5.21303 0.0682917 0)
(5.2186 0.0491524 0)
(5.22488 0.0267273 0)
(5.23147 0.00421014 0)
(5.23722 -0.0149851 0)
(4.9812 0.262387 0)
(5.00985 0.182021 0)
(5.02967 0.145316 0)
(5.04865 0.129124 0)
(5.07009 0.111024 0)
(5.08335 0.0797707 0)
(5.08643 0.0451076 0)
(5.09356 0.0246361 0)
(5.11417 0.0250235 0)
(5.14355 0.0413384 0)
(5.17201 0.0617035 0)
(5.19331 0.0751071 0)
(5.20646 0.0763736 0)
(5.21334 0.0667608 0)
(5.21728 0.0518417 0)
(5.22046 0.0373223 0)
(5.22529 0.0264593 0)
(5.23135 0.0206883 0)
(5.01743 0.237762 0)
(5.02077 0.209085 0)
(5.05503 0.16067 0)
(5.08676 0.108676 0)
(5.11103 0.0829611 0)
(5.12629 0.0666457 0)
(5.13589 0.0382762 0)
(5.1446 0.00403268 0)
(5.15642 -0.0158189 0)
(5.17389 -0.0131289 0)
(5.19644 0.00666441 0)
(5.22156 0.0299997 0)
(5.24656 0.0445744 0)
(5.26914 0.0449518 0)
(5.28875 0.0323688 0)
(5.30473 0.0118553 0)
(5.3181 -0.01154 0)
(5.32916 -0.0328943 0)
(4.92105 0.302924 0)
(4.99781 0.142781 0)
(5.08371 0.0977632 0)
(5.14267 0.0966148 0)
(5.17778 0.0962582 0)
(5.20005 0.0757014 0)
(5.21739 0.0401633 0)
(5.23126 0.00845056 0)
(5.23941 -0.00497376 0)
(5.24503 0.000653134 0)
(5.25671 0.0152544 0)
(5.27826 0.0273309 0)
(5.30799 0.0307232 0)
(5.34147 0.0252325 0)
(5.37258 0.0141585 0)
(5.39614 0.00218053 0)
(5.40987 -0.00717903 0)
(5.41288 -0.0127142 0)
(5.04021 0.219093 0)
(5.07212 0.113126 0)
(5.12476 0.0552454 0)
(5.17773 0.0368093 0)
(5.23846 0.0343649 0)
(5.29028 0.02321 0)
(5.31757 0.00187858 0)
(5.321 -0.0180626 0)
(5.31422 -0.0286611 0)
(5.31017 -0.0288482 0)
(5.31371 -0.0243915 0)
(5.3237 -0.0211971 0)
(5.33615 -0.0215943 0)
(5.3465 -0.024592 0)
(5.35368 -0.0282878 0)
(5.35819 -0.0309751 0)
(5.36176 -0.032125 0)
(5.36532 -0.0326324 0)
(5.02214 0.194977 0)
(5.11989 0.101556 0)
(5.20663 0.0670012 0)
(5.24621 0.0521752 0)
(5.2751 0.0407808 0)
(5.30368 0.0311524 0)
(5.3239 0.0216538 0)
(5.33263 0.0115962 0)
(5.33443 0.0040729 0)
(5.33701 0.00120217 0)
(5.34704 0.00272451 0)
(5.36644 0.00598672 0)
(5.39348 0.00758391 0)
(5.42434 0.00574761 0)
(5.4557 0.000783861 0)
(5.48458 -0.00630257 0)
(5.51009 -0.0141859 0)
(5.53036 -0.0216872 0)
(5.01607 0.107836 0)
(5.07601 0.0119557 0)
(5.20398 0.00230436 0)
(5.27285 0.00150631 0)
(5.29856 -0.00909527 0)
(5.32271 -0.0158034 0)
(5.36018 -0.0187753 0)
(5.40175 -0.0229019 0)
(5.43607 -0.0293038 0)
(5.46014 -0.0364317 0)
(5.47814 -0.0440944 0)
(5.49522 -0.0527578 0)
(5.51325 -0.0617601 0)
(5.5307 -0.0694112 0)
(5.545 -0.0735809 0)
(5.55465 -0.073728 0)
(5.55965 -0.0704148 0)
(5.56087 -0.0659422 0)
(5.00791 0.152995 0)
(5.18693 0.0382738 0)
(5.32577 0.0162205 0)
(5.39008 0.0172559 0)
(5.40941 0.0110026 0)
(5.4238 -0.00294568 0)
(5.44383 -0.0169029 0)
(5.46621 -0.0243635 0)
(5.48828 -0.0249306 0)
(5.50983 -0.0221076 0)
(5.53081 -0.0194419 0)
(5.55003 -0.0186289 0)
(5.56615 -0.019554 0)
(5.57871 -0.0210668 0)
(5.58886 -0.0221724 0)
(5.59791 -0.0229087 0)
(5.60717 -0.0236895 0)
(5.61704 -0.0262729 0)
(5.07437 -0.0071234 0)
(5.28322 -0.0833432 0)
(5.33688 -0.0445679 0)
(5.33463 -0.0358074 0)
(5.36544 -0.035039 0)
(5.42372 -0.0375509 0)
(5.47759 -0.0423976 0)
(5.51083 -0.0480091 0)
(5.52505 -0.0540505 0)
(5.52764 -0.0600787 0)
(5.52345 -0.0656087 0)
(5.51474 -0.0704791 0)
(5.50274 -0.0745 0)
(5.48952 -0.0774483 0)
(5.47707 -0.0788519 0)
(5.4671 -0.0787127 0)
(5.45879 -0.0771687 0)
(5.45185 -0.0752561 0)
(5.03605 0.061245 0)
(5.08654 -0.00190986 0)
(5.05345 0.0141147 0)
(4.96692 -0.0032886 0)
(4.86204 -0.0270414 0)
(4.73969 -0.0416308 0)
(4.60743 -0.0439753 0)
(4.47818 -0.037851 0)
(4.35875 -0.0290381 0)
(4.24895 -0.0211236 0)
(4.14621 -0.0154066 0)
(4.04797 -0.0124644 0)
(3.95093 -0.0125331 0)
(3.85295 -0.0149046 0)
(3.75337 -0.0179447 0)
(3.65495 -0.0203522 0)
(3.55862 -0.0214791 0)
(3.46881 -0.0219049 0)
(-0.0252241 0.123887 2.76798e-20)
(-0.0936825 0.0703131 -2.74733e-20)
(-0.142155 0.0362804 0)
(-0.162724 -0.00418503 0)
(-0.13945 -0.0367167 0)
(-0.0995656 -0.0566675 2.66568e-20)
(-0.0393494 -0.0714657 0)
(0.028944 -0.0798355 0)
(0.104869 -0.0838015 0)
(0.181775 -0.0826258 0)
(0.256369 -0.0780943 -2.56373e-20)
(0.325261 -0.0709142 0)
(0.38525 -0.0610864 0)
(0.432583 -0.0484002 0)
(0.4652 -0.0331732 0)
(0.483022 -0.0160381 -2.46543e-20)
(0.487052 0.00215539 0)
(0.478896 0.0192658 0)
(0.460492 0.0331056 0)
(0.434686 0.041648 0)
(0.405248 0.0441238 0)
(0.375919 0.0410286 0)
(0.349626 0.0338112 0)
(0.328877 0.0244048 -2.32262e-20)
(0.315068 0.0142854 2.30544e-20)
(0.309313 0.00426503 -2.28836e-20)
(0.312066 -0.00477673 -2.27133e-20)
(0.323324 -0.0134593 0)
(0.342835 -0.0211457 0)
(0.369529 -0.0289653 2.22043e-20)
(0.404689 -0.0347501 2.20357e-20)
(0.44485 -0.038621 0)
(0.492196 -0.0425181 0)
(0.543828 -0.0372109 2.15339e-20)
(0.592986 -0.0374488 0)
(0.650489 -0.0237011 0)
(0.685399 -0.00421586 -2.10398e-20)
(0.72643 0.00198583 0)
(0.745797 0.0846485 -2.07171e-20)
(0.684868 0.0984875 -4.11164e-20)
(0.68421 0.171421 0)
(0.51029 0.458819 0)
(0.178712 0.320676 0)
(0.0570797 -0.149223 0)
(0.0847037 -0.428427 0)
(0.136776 -0.457649 -3.91529e-20)
(0.133117 -0.30045 -3.88059e-20)
(0.148746 -0.120547 -3.84444e-20)
(0.232205 -0.00520815 0)
(0.317037 0.0626527 3.77156e-20)
(0.32941 0.0766666 0)
(0.259139 0.0701224 -3.6963e-20)
(0.13313 0.0757885 -3.65802e-20)
(-0.0180163 0.0926084 0)
(-0.168298 0.108332 0)
(-0.3101 0.118617 0)
(-0.445697 0.114706 -3.4934e-20)
(-0.562951 0.0847493 0)
(-0.6446 0.0318839 0)
(-0.672417 -0.0297298 0)
(-0.63375 -0.0897142 0)
(-0.521067 -0.150809 0)
(-0.319567 -0.223155 0)
(0.0121422 -0.281087 0)
(0.437948 -0.21693 0)
(0.795812 0.0332149 3.22039e-20)
(0.848575 0.200097 0)
(0.666168 0.0965752 0)
(0.600905 -0.0833373 -3.11982e-20)
(0.769054 -0.178662 -3.08802e-20)
(1.02782 -0.19607 0)
(1.21496 -0.264474 3.01893e-20)
(1.26571 -0.334916 -2.9839e-20)
(1.15334 -0.190478 0)
(0.714151 0.18488 2.92365e-20)
(-0.0560708 0.46345 0)
(-0.902152 0.533359 0)
(-1.71065 0.517467 -2.80372e-20)
(-2.4401 0.46618 0)
(-3.07285 0.399274 2.69131e-20)
(-3.60377 0.328735 0)
(-4.03436 0.261198 -2.57981e-20)
(-4.37064 0.200073 -2.52866e-20)
(-4.62186 0.146801 -2.48154e-20)
(-4.79898 0.101713 -4.87721e-20)
(-4.91312 0.0645714 4.7994e-20)
(-4.97422 0.0347927 0)
(-4.99104 0.011403 0)
(-4.97247 -0.0068216 0)
(-4.92795 -0.0207718 4.55584e-20)
(-4.85958 -0.0317475 4.50842e-20)
(-4.77318 -0.0403774 -4.46512e-20)
(-4.6709 -0.0471034 0)
(-4.55657 -0.0523469 4.38847e-20)
(-4.43176 -0.0563686 4.35403e-20)
(-4.29898 -0.0593848 4.32155e-20)
(-4.15939 -0.0616942 0)
(-4.01443 -0.0634208 0)
(-3.8648 -0.0647696 0)
(-3.71118 -0.0658072 4.20352e-20)
(-3.55399 -0.0666029 0)
(-3.39372 -0.067136 0)
(-3.23099 -0.0673584 -4.11944e-20)
(-3.06657 -0.0672128 0)
(-2.90131 -0.0666689 0)
(-2.73608 -0.0657343 -4.03261e-20)
(-2.57172 -0.0644472 0)
(-2.40899 -0.0628573 0)
(-2.24859 -0.0610343 3.93924e-20)
(-2.09098 -0.0590879 3.9064e-20)
(-1.93634 -0.0571441 0)
(-1.78461 -0.0553102 -3.83824e-20)
(-1.63543 -0.0536979 0)
(-1.48808 -0.0524305 3.76724e-20)
(-1.34162 -0.051609 0)
(-1.19492 -0.0513149 3.69416e-20)
(-1.04673 -0.0515677 3.65709e-20)
(-0.895682 -0.0523406 0)
(-0.740421 -0.053559 0)
(-0.579832 -0.0550618 0)
(-0.413221 -0.0566887 0)
(-0.240576 -0.0580865 0)
(-0.0624354 -0.0590306 0)
(0.11927 -0.0589582 0)
(0.301801 -0.0578441 3.35104e-20)
(0.482186 -0.0554576 -3.30997e-20)
(0.656803 -0.0517789 0)
(0.822037 -0.0469465 0)
(0.974699 -0.0412229 0)
(1.1123 -0.0349001 0)
(1.2331 -0.0282247 -6.19285e-20)
(1.33612 -0.0215193 0)
(1.42127 -0.0151829 6.01852e-20)
(1.48927 -0.00925314 -5.93177e-20)
(1.54085 -0.00353373 0)
(1.57699 0.00153018 0)
(1.5997 0.00563801 0)
(1.61019 0.00976598 5.59166e-20)
(1.60799 0.014462 5.50871e-20)
(1.59377 0.019399 0)
(1.56744 0.0244594 5.34539e-20)
(1.52905 0.0292325 5.26494e-20)
(1.47937 0.0328103 -5.18521e-20)
(1.42041 0.0342722 0)
(1.35536 0.0332526 0)
(1.28814 0.0300811 -4.94985e-20)
(1.22254 0.0254868 0)
(1.16164 0.0203483 0)
(1.10732 0.0154325 0)
(1.06033 0.0112425 0)
(1.02049 0.00798855 4.56948e-20)
(0.9871 0.00564071 4.49507e-20)
(0.959204 0.00402762 0)
(0.935856 0.00293849 4.34765e-20)
(0.916219 0.00219337 0)
(0.899602 0.00166987 0)
(0.88543 0.00130001 4.12968e-20)
(0.873246 0.00105074 0)
(0.862649 0.000907141 3.98635e-20)
(0.853342 0.000855667 0)
(0.845026 0.000883 0)
(0.837536 0.000967443 3.77422e-20)
(0.830601 0.00109352 0)
(0.824179 0.00124149 3.6347e-20)
(0.817916 0.00141371 0)
(0.811934 0.00159532 0)
(0.805614 0.00180846 0)
(0.799407 0.00203618 -3.36017e-20)
(0.792108 0.00232822 0)
(0.784859 0.00265954 3.22518e-20)
(0.77535 0.00313596 0)
(0.765874 0.00361451 0)
(0.75242 0.0044212 0)
(0.738427 0.00509617 0)
(0.719229 0.00672432 0)
(0.694417 0.00730521 0)
(0.671689 0.0113571 0)
(0.613146 0.00945383 -5.40498e-20)
(0.612844 0.022442 0)
(0.44669 0.00850227 0)
(0.0387631 0.115925 -8.30567e-20)
(0.0962244 0.163388 8.24567e-20)
(0.152906 0.102714 0)
(0.222594 0.00335965 -5.41377e-20)
(0.298438 -0.0906343 0)
(0.378737 -0.156672 -2.66297e-20)
(0.461588 -0.196104 5.28433e-20)
(0.542798 -0.216324 5.24182e-20)
(0.619888 -0.223159 0)
(0.687601 -0.217614 5.15821e-20)
(0.744037 -0.201859 2.55968e-20)
(0.788719 -0.17602 0)
(0.82135 -0.13962 0)
(0.841092 -0.0974866 0)
(0.847769 -0.0564169 0)
(0.842203 -0.0210243 2.46282e-20)
(0.824182 0.00771852 0)
(0.793325 0.0309612 -4.85024e-20)
(0.750364 0.0486256 0)
(0.69707 0.0599241 0)
(0.637663 0.0641213 4.74521e-20)
(0.576896 0.061556 0)
(0.51879 0.0527952 -4.67753e-20)
(0.465514 0.0386798 2.32191e-20)
(0.41778 0.0211151 -2.30501e-20)
(0.375019 0.0013354 2.28816e-20)
(0.33728 -0.0187159 2.27133e-20)
(0.304399 -0.0384316 0)
(0.278309 -0.0567107 0)
(0.261426 -0.0734274 -2.22109e-20)
(0.257086 -0.0891338 2.20431e-20)
(0.267142 -0.103057 0)
(0.288901 -0.116683 0)
(0.33016 -0.123966 -2.15437e-20)
(0.381026 -0.129496 0)
(0.447571 -0.126887 0)
(0.532325 -0.108432 2.10458e-20)
(0.611004 -0.0952261 0)
(0.721645 -0.0376714 -2.07178e-20)
(0.824909 0.0290236 4.11035e-20)
(0.935103 0.0705792 0)
(1.08213 0.239117 0)
(1.2313 0.335904 8.01494e-20)
(1.34443 0.302465 7.94584e-20)
(1.31886 0.293577 7.88165e-20)
(1.13349 0.361174 -3.91261e-20)
(0.909305 0.302496 3.87311e-20)
(0.776407 0.00981603 1.15206e-19)
(0.638844 -0.241923 -7.61267e-20)
(0.500115 -0.208964 -3.76977e-20)
(0.412509 -0.000715819 0)
(0.35345 0.190033 3.69508e-20)
(0.294663 0.294025 -3.65974e-20)
(0.210395 0.318173 0)
(0.107873 0.293176 0)
(-0.0028744 0.253599 0)
(-0.119216 0.221404 3.49634e-20)
(-0.203485 0.180596 0)
(-0.21968 0.111918 -6.83166e-20)
(-0.160437 0.00867984 0)
(-0.0387423 -0.114172 -6.70487e-20)
(0.111212 -0.263167 0)
(0.297087 -0.469017 6.58862e-20)
(0.564235 -0.697671 0)
(0.884973 -0.788906 -6.48234e-20)
(1.23478 -0.545312 3.21079e-20)
(1.41822 -0.0739133 0)
(1.35193 0.225781 6.29463e-20)
(1.38591 -0.00332759 3.11545e-20)
(1.45098 -0.391712 3.08448e-20)
(1.35879 -0.420985 0)
(0.966438 -0.0356721 3.02227e-20)
(0.23657 0.467236 2.99086e-20)
(-0.624076 0.907607 0)
(-1.43334 1.21466 -2.91771e-20)
(-2.15605 1.32808 5.73364e-20)
(-2.77126 1.28622 0)
(-3.29291 1.16753 2.79333e-20)
(-3.7333 1.01484 0)
(-4.10044 0.853818 -8.01816e-20)
(-4.39923 0.696494 0)
(-4.63418 0.548997 7.70165e-20)
(-4.81107 0.415246 2.526e-20)
(-4.93688 0.297483 -2.46117e-20)
(-5.01862 0.196509 -4.84399e-20)
(-5.06278 0.111999 4.77227e-20)
(-5.07515 0.0426404 0)
(-5.06081 -0.0138665 0)
(-5.02278 -0.0597453 0)
(-4.96123 -0.096608 -1.36519e-19)
(-4.88219 -0.126322 -4.50792e-20)
(-4.78672 -0.150021 4.46457e-20)
(-4.67859 -0.168806 0)
(-4.55897 -0.183525 4.37916e-20)
(-4.43055 -0.194935 -4.35341e-20)
(-4.29434 -0.20368 -4.32091e-20)
(-4.15203 -0.210396 0)
(-4.00435 -0.215589 0)
(-3.85216 -0.219691 0)
(-3.69586 -0.22297 -4.20288e-20)
(-3.53587 -0.225558 0)
(-3.37261 -0.22741 8.29077e-20)
(-3.2067 -0.228362 1.23539e-19)
(-3.03893 -0.228238 -8.17875e-20)
(-2.87023 -0.226944 0)
(-2.7015 -0.224495 -4.03059e-20)
(-2.53354 -0.220999 0)
(-2.36713 -0.216609 -7.94052e-20)
(-2.20294 -0.211529 3.93797e-20)
(-2.04142 -0.206078 3.90527e-20)
(-1.88272 -0.200617 0)
(-1.72671 -0.195461 1.15132e-19)
(-1.573 -0.190944 -7.60484e-20)
(-1.42085 -0.187456 -3.76706e-20)
(-1.26931 -0.185323 0)
(-1.11729 -0.184794 -3.69403e-20)
(-0.963469 -0.18595 -1.09695e-19)
(-0.806474 -0.188743 0)
(-0.644915 -0.193003 -7.16272e-20)
(-0.477618 -0.198285 -7.08744e-20)
(-0.303712 -0.204003 -7.01198e-20)
(-0.123056 -0.209274 0)
(0.0641238 -0.212677 0)
(0.255969 -0.213818 0)
(0.449855 -0.211686 3.3484e-20)
(0.643256 -0.205714 3.3088e-20)
(0.832722 -0.195795 0)
(1.01478 -0.182292 6.44876e-20)
(1.18627 -0.165936 6.36325e-20)
(1.34452 -0.147622 0)
(1.48748 -0.128236 6.19055e-20)
(1.61394 -0.10866 1.22056e-19)
(1.72347 -0.0897032 -6.01624e-20)
(1.81595 -0.0718659 -5.92851e-20)
(1.89193 -0.0553973 0)
(1.95309 -0.0406051 0)
(2.00041 -0.0275093 0)
(2.03529 -0.0155718 -5.58931e-20)
(2.06147 -0.00438105 5.50549e-20)
(2.08071 0.00620364 1.08474e-19)
(2.09436 0.0161753 -5.34263e-20)
(2.10336 0.0256799 5.26121e-20)
(2.10808 0.0344468 5.18194e-20)
(2.1084 0.0418728 0)
(2.10409 0.0472589 0)
(2.09502 0.0500063 -4.94553e-20)
(2.08128 0.0499907 0)
(2.06336 0.0476225 0)
(2.04202 0.0436157 9.43122e-20)
(2.01821 0.0387318 0)
(1.99292 0.0336144 4.56542e-20)
(1.96719 0.0287142 -4.49089e-20)
(1.94199 0.0242887 0)
(1.9181 0.0204457 4.34387e-20)
(1.89605 0.0171967 0)
(1.87613 0.0144978 0)
(1.85836 0.0122774 -4.12608e-20)
(1.84266 0.0104543 8.10879e-20)
(1.82882 0.00895101 -3.98297e-20)
(1.81667 0.00770084 0)
(1.806 0.00665504 0)
(1.79669 0.00577604 3.7712e-20)
(1.78856 0.00504861 0)
(1.78159 0.00445814 3.63182e-20)
(1.77554 0.00402789 0)
(1.77049 0.00374285 0)
(1.76599 0.00366842 0)
(1.76227 0.00372658 3.35756e-20)
(1.75853 0.00409736 0)
(1.75534 0.00452417 -3.22269e-20)
(1.75136 0.00552007 0)
(1.74751 0.00629447 0)
(1.74218 0.00837431 6.04653e-20)
(1.73558 0.00936344 -5.91527e-20)
(1.72807 0.0137344 0)
(1.71359 0.0142659 0)
(1.70569 0.0239329 0)
(1.6684 0.0213451 1.62007e-19)
(1.67311 0.0436507 0)
(1.57212 0.0322562 -1.03001e-19)
(0.013764 -0.150905 -4.06312e-23)
(0.120878 -0.166195 -1.09981e-19)
(0.274137 -0.216812 0)
(0.429002 -0.283055 1.08192e-19)
(0.570205 -0.339193 0)
(0.691868 -0.374577 0)
(0.792635 -0.388913 -3.72893e-24)
(0.872703 -0.387269 -5.2355e-20)
(0.93282 -0.369333 -5.19151e-20)
(0.972589 -0.335989 -5.15295e-20)
(0.990515 -0.29476 0)
(0.987785 -0.246556 0)
(0.964583 -0.186465 5.0313e-20)
(0.916085 -0.117525 9.98806e-20)
(0.839067 -0.0465699 -9.91496e-20)
(0.743684 0.0238065 0)
(0.644811 0.0957486 -9.7717e-20)
(0.548862 0.164441 4.8531e-20)
(0.452184 0.220061 0)
(0.349485 0.254051 -9.56268e-20)
(0.238702 0.26488 -4.74964e-20)
(0.122604 0.255779 9.42915e-20)
(6.55813e-05 0.233975 4.68235e-20)
(-0.124824 0.207175 0)
(-0.248079 0.18004 -9.21937e-20)
(-0.365234 0.153351 -9.14799e-20)
(-0.471436 0.125338 0)
(-0.561639 0.0933959 -9.00739e-20)
(-0.631456 0.0557097 0)
(-0.679922 0.0120993 -8.87042e-20)
(-0.703995 -0.0361096 -4.40408e-20)
(-0.703306 -0.0866396 0)
(-0.676133 -0.135558 0)
(-0.623265 -0.180597 0)
(-0.55088 -0.220013 0)
(-0.450881 -0.245892 0)
(-0.328324 -0.262014 0)
(-0.197416 -0.268143 -8.3581e-20)
(-0.0322589 -0.236477 1.2446e-19)
(0.152073 -0.204124 0)
(0.33885 -0.172821 0)
(0.569685 -0.0754432 0)
(0.816677 -0.0288648 1.05733e-22)
(1.03783 -0.085217 -7.95003e-20)
(1.24991 -0.0915361 -1.57732e-19)
(1.44335 0.0426873 1.5632e-19)
(1.60916 0.186626 7.74491e-20)
(1.7505 0.269781 -7.66542e-20)
(1.75734 0.35425 -4.67365e-23)
(1.57963 0.39067 -7.53079e-20)
(1.37051 0.334478 0)
(1.2115 0.277439 -7.38238e-20)
(1.0582 0.29724 -9.21839e-24)
(0.914765 0.350494 0)
(0.792072 0.380724 0)
(0.665018 0.394506 7.05644e-20)
(0.548874 0.365532 0)
(0.479693 0.224615 0)
(0.464795 -0.0140505 -6.81125e-20)
(0.520976 -0.274575 -1.34991e-19)
(0.646183 -0.472541 6.69506e-20)
(0.816908 -0.597447 0)
(1.01674 -0.775268 -6.57678e-20)
(1.25277 -1.02154 0)
(1.46833 -1.0983 -6.44708e-20)
(1.56407 -0.676742 -6.42002e-20)
(1.56715 0.0826416 1.27005e-19)
(1.64828 0.272595 6.28366e-20)
(1.69072 -0.169003 0)
(1.23892 -0.145153 -1.23627e-19)
(0.396474 0.477226 0)
(-0.489718 1.07992 -1.81236e-19)
(-1.31554 1.50922 -1.18971e-19)
(-2.00854 1.78487 -1.17162e-19)
(-2.54472 1.91113 1.15371e-19)
(-2.9494 1.88659 -1.70783e-19)
(-3.2659 1.75406 0)
(-3.5394 1.56621 0)
(-3.79265 1.3583 1.07792e-19)
(-4.02917 1.14631 1.59089e-19)
(-4.23893 0.937372 0)
(-4.41142 0.73801 -5.12585e-20)
(-4.54237 0.554682 0)
(-4.63308 0.392369 1.47815e-19)
(-4.68745 0.253171 3.92853e-22)
(-4.71072 0.136017 -3.38022e-22)
(-4.70839 0.038074 -9.41134e-20)
(-4.68472 -0.0432499 0)
(-4.6417 -0.110472 9.17988e-20)
(-4.5821 -0.16591 2.14328e-22)
(-4.50764 -0.211012 0)
(-4.42026 -0.247537 0)
(-4.32148 -0.276772 0)
(-4.21281 -0.299955 -8.76995e-20)
(-4.09554 -0.31812 0)
(-3.97086 -0.332233 0)
(-3.8397 -0.343128 0)
(-3.70277 -0.351625 0)
(-3.56048 -0.358356 0)
(-3.41313 -0.363768 -8.39683e-20)
(-3.261 -0.368053 0)
(-3.10449 -0.371148 -8.29197e-20)
(-2.94432 -0.372743 -8.23618e-20)
(-2.78154 -0.372505 8.17974e-20)
(-2.61734 -0.370269 0)
(-2.45287 -0.366074 8.06355e-20)
(-2.28912 -0.360127 0)
(-2.12693 -0.352707 7.9413e-20)
(-1.96716 -0.344182 -7.87757e-20)
(-1.81048 -0.335123 -2.34335e-19)
(-1.65716 -0.326185 0)
(-1.50715 -0.317902 -2.3025e-19)
(-1.36006 -0.31078 -7.60274e-20)
(-1.21506 -0.305447 0)
(-1.07116 -0.30239 -1.49183e-19)
(-0.927156 -0.30199 -1.47704e-19)
(-0.781596 -0.304385 2.19339e-19)
(-0.63295 -0.309508 0)
(-0.479778 -0.317024 7.16274e-20)
(-0.320855 -0.326245 7.08734e-20)
(-0.155312 -0.336271 2.10289e-19)
(0.0173384 -0.345252 0)
(0.19609 -0.3517 0)
(0.378651 -0.3546 0)
(0.562711 -0.352131 6.69087e-20)
(0.745398 -0.343494 0)
(0.923595 -0.328478 0)
(1.0947 -0.307536 -6.44685e-20)
(1.25685 -0.281668 -6.36153e-20)
(1.40868 -0.252217 0)
(1.54906 -0.220677 0)
(1.67673 -0.188528 -1.22031e-19)
(1.79041 -0.156932 0)
(1.88905 -0.12662 1.18559e-19)
(1.97224 -0.0983276 1.1682e-19)
(2.03992 -0.0727984 0)
(2.09234 -0.0504428 0)
(2.13043 -0.0314875 -1.1175e-19)
(2.15621 -0.0156958 -1.22524e-23)
(2.17295 -0.00248512 -1.14088e-23)
(2.1843 0.00915769 0)
(2.19344 0.019629 -2.10434e-19)
(2.2024 0.028774 0)
(2.21209 0.0362858 0)
(2.22231 0.0417869 0)
(2.23215 0.0449549 9.88992e-20)
(2.24053 0.0459492 0)
(2.24637 0.0452397 -1.91629e-19)
(2.24885 0.0434034 -9.42912e-20)
(2.2475 0.0409353 0)
(2.24227 0.0381336 -9.12821e-20)
(2.23348 0.0351157 0)
(2.22168 0.0319167 0)
(2.20763 0.028587 -2.60553e-19)
(2.19213 0.0252306 1.70786e-19)
(2.17602 0.0219861 0)
(2.16006 0.0189837 1.64999e-19)
(2.14486 0.0163092 -8.10634e-20)
(2.13087 0.0139927 0)
(2.11835 0.0120157 0)
(2.10741 0.0103361 0)
(2.09804 0.00889996 -2.26207e-19)
(2.09016 0.00767298 0)
(2.08363 0.00661519 -7.26158e-20)
(2.07827 0.00574506 0)
(2.0739 0.00502731 0)
(2.07038 0.00456159 0)
(2.06749 0.00424166 0)
(2.06525 0.00433047 0)
(2.06331 0.00447842 0)
(2.0621 0.00539689 -1.26196e-19)
(2.06069 0.00605567 0)
(2.06057 0.00841446 -6.04488e-20)
(2.05889 0.0095257 1.77403e-19)
(2.06028 0.0147279 0)
(2.05611 0.0158572 0)
(2.06037 0.0270239 -1.10495e-19)
(2.04796 0.026511 -1.07966e-19)
(2.0591 0.0500604 1.05422e-19)
(2.02635 0.0450491 1.02964e-19)
(0.00105516 -0.173672 1.66335e-19)
(0.159057 -0.423312 1.65012e-19)
(0.348976 -0.570798 1.09097e-19)
(0.517161 -0.636275 5.40963e-20)
(0.652794 -0.654069 0)
(0.750293 -0.635057 -1.0637e-19)
(0.810613 -0.590426 5.27398e-20)
(0.833966 -0.532272 0)
(0.826131 -0.449344 5.19277e-20)
(0.78323 -0.34293 0)
(0.695982 -0.231235 -1.02245e-19)
(0.580708 -0.109042 0)
(0.470056 0.0331659 -5.03893e-20)
(0.35977 0.175648 -1.00033e-19)
(0.226416 0.281217 9.93014e-20)
(0.0844879 0.332322 0)
(-0.056577 0.352212 9.78465e-20)
(-0.198056 0.37382 0)
(-0.342704 0.408873 0)
(-0.49576 0.450349 9.5556e-20)
(-0.660752 0.485968 0)
(-0.831967 0.506609 -1.04686e-22)
(-1.00532 0.509474 0)
(-1.1726 0.49242 0)
(-1.3251 0.455084 1.45053e-22)
(-1.45559 0.3993 9.1199e-20)
(-1.55985 0.327529 9.03345e-20)
(-1.63619 0.243077 8.98144e-20)
(-1.6847 0.149685 0)
(-1.70604 0.051058 1.7678e-19)
(-1.70146 -0.0490534 0)
(-1.67219 -0.146979 8.69812e-20)
(-1.61952 -0.239636 0)
(-1.54381 -0.324557 0)
(-1.44534 -0.399608 -8.50952e-20)
(-1.32576 -0.462223 0)
(-1.18636 -0.510318 8.39023e-20)
(-1.02362 -0.543077 6.44065e-23)
(-0.833977 -0.556171 -1.65548e-19)
(-0.625512 -0.554373 1.64375e-19)
(-0.401164 -0.537903 0)
(-0.141667 -0.485363 0)
(0.147417 -0.422527 8.04773e-20)
(0.428466 -0.379024 0)
(0.691189 -0.33061 7.89894e-20)
(0.956521 -0.232935 -7.82603e-20)
(1.22784 -0.130271 -7.75105e-20)
(1.49535 -0.0594454 0)
(1.74279 0.0552254 7.59833e-20)
(1.94876 0.237276 7.52471e-20)
(2.11162 0.422052 -1.48914e-19)
(2.20736 0.559609 7.36626e-20)
(2.20289 0.642521 7.28472e-20)
(2.13516 0.671497 0)
(2.05248 0.644288 0)
(1.94668 0.579812 -7.03612e-20)
(1.8523 0.465493 0)
(1.80211 0.284569 0)
(1.74197 0.0709339 1.36037e-19)
(1.69506 -0.220978 1.34672e-19)
(1.67518 -0.555785 0)
(1.67428 -0.767351 0)
(1.7556 -0.976915 0)
(1.87952 -1.27388 0)
(1.94944 -1.27447 1.29041e-19)
(1.8995 -0.766935 -1.27572e-19)
(1.86164 -0.172782 -1.26939e-19)
(1.81103 0.132073 -2.51066e-19)
(1.19581 0.502549 0)
(0.162692 1.07685 2.95934e-22)
(-0.760692 1.60652 0)
(-1.51304 1.98941 1.20409e-19)
(-2.09522 2.22639 5.37481e-22)
(-2.51208 2.32071 1.16961e-19)
(-2.80074 2.29254 -1.15247e-19)
(-3.01749 2.17545 8.59713e-22)
(-3.21646 2.01036 0)
(-3.42681 1.82056 -1.08833e-19)
(-3.64355 1.6092 -1.07778e-19)
(-3.8416 1.37409 -2.1069e-19)
(-3.99857 1.1236 0)
(-4.10919 0.874997 1.01216e-19)
(-4.17937 0.644902 0)
(-4.21806 0.44345 -1.96381e-19)
(-4.23472 0.27296 9.69049e-20)
(-4.23653 0.130654 -9.54876e-20)
(-4.22617 0.0125791 9.4187e-20)
(-4.20428 -0.0859432 1.85296e-19)
(-4.17084 -0.167216 -9.18592e-20)