/*--------------------------------*- C++ -*----------------------------------*\
  =========                 |
  \\      /  F ield         | OpenFOAM: The Open Source CFD Toolbox
   \\    /   O peration     | Website:  https://openfoam.org
    \\  /    A nd           | Version:  7
     \\/     M anipulation  |
\*---------------------------------------------------------------------------*/
FoamFile
{
    version     2.0;
    format      ascii;
    class       volVectorField;
    location    "0.086";
    object      UMean;
}
// * * * * * * * * * * * * * * * * * * * * * * * * * * * * * * * * * * * * * //

dimensions      [0 1 -1 0 0 0 0];

internalField   nonuniform List<vector> 
12225
(
(4.77089 0.164244 0)
(4.1735 0.111547 0)
(3.71003 0.0983545 0)
(3.33838 0.0819514 0)
(3.00286 0.0689304 0)
(2.68876 0.0594021 0)
(2.39719 0.0511741 0)
(2.13281 0.0432944 0)
(1.89934 0.0350776 0)
(1.69754 0.0275491 0)
(1.52842 0.0195832 0)
(1.38885 0.0139325 0)
(1.27885 0.0064844 0)
(1.19177 0.00523084 0)
(1.12516 -0.00342285 0)
(1.07574 0.00360566 0)
(1.0347 -0.0135092 0)
(1.00981 -0.000608425 0)
(5.02056 0.113354 0)
(4.87282 0.0740468 0)
(4.75441 0.0903758 0)
(4.66412 0.0901721 0)
(4.56987 0.088971 0)
(4.46345 0.0897816 0)
(4.34671 0.09046 0)
(4.22522 0.0890834 0)
(4.10172 0.0859118 0)
(3.98119 0.0802343 0)
(3.86302 0.0739806 0)
(3.75368 0.0653678 0)
(3.64736 0.0587776 0)
(3.55489 0.0490195 0)
(3.46031 0.0456144 0)
(3.38499 0.0344849 0)
(3.2981 0.0350894 0)
(3.23213 0.0138529 0)
(4.99479 0.172434 0)
(4.87401 0.122922 0)
(4.79503 0.131469 0)
(4.76434 0.126376 0)
(4.74851 0.119733 0)
(4.73207 0.116946 0)
(4.71291 0.115579 0)
(4.69179 0.113619 0)
(4.66882 0.109561 0)
(4.64338 0.104319 0)
(4.6155 0.0967997 0)
(4.58489 0.0897569 0)
(4.55305 0.0806137 0)
(4.51903 0.0747456 0)
(4.48623 0.0660573 0)
(4.45051 0.062787 0)
(4.41949 0.0544271 0)
(4.37947 0.0458392 0)
(4.98948 0.189404 0)
(4.89152 0.120949 0)
(4.81417 0.119999 0)
(4.77971 0.116332 0)
(4.76633 0.109793 0)
(4.75818 0.106288 0)
(4.75226 0.105265 0)
(4.74911 0.104007 0)
(4.74865 0.101492 0)
(4.7494 0.0972266 0)
(4.75033 0.0921325 0)
(4.75001 0.0858071 0)
(4.74897 0.0800125 0)
(4.74589 0.0735458 0)
(4.74341 0.0689655 0)
(4.73847 0.0634739 0)
(4.73679 0.0590979 0)
(4.72977 0.0527124 0)
(4.99679 0.214395 0)
(4.92194 0.144775 0)
(4.85214 0.136435 0)
(4.81532 0.132482 0)
(4.79966 0.124139 0)
(4.79049 0.117403 0)
(4.78372 0.113409 0)
(4.77978 0.110242 0)
(4.77916 0.106196 0)
(4.78089 0.101136 0)
(4.78406 0.0950619 0)
(4.78738 0.0887033 0)
(4.7909 0.0820936 0)
(4.79387 0.0759762 0)
(4.79741 0.0703057 0)
(4.80056 0.0648682 0)
(4.80515 0.0598827 0)
(4.80835 0.0528503 0)
(4.99036 0.229942 0)
(4.93485 0.159242 0)
(4.87522 0.14204 0)
(4.83969 0.136011 0)
(4.82402 0.126691 0)
(4.81585 0.118002 0)
(4.81004 0.112146 0)
(4.80643 0.107764 0)
(4.80559 0.10321 0)
(4.80701 0.0977721 0)
(4.80986 0.0916582 0)
(4.81313 0.0851249 0)
(4.81671 0.0786619 0)
(4.82011 0.0724167 0)
(4.82406 0.0666091 0)
(4.82792 0.0610835 0)
(4.83284 0.0554274 0)
(4.83695 0.0493267 0)
(5.00068 0.244854 0)
(4.95906 0.176309 0)
(4.90836 0.152187 0)
(4.87381 0.143209 0)
(4.85686 0.133141 0)
(4.84832 0.123084 0)
(4.84259 0.115366 0)
(4.83877 0.10952 0)
(4.8374 0.104027 0)
(4.8382 0.0980518 0)
(4.84054 0.0915555 0)
(4.84345 0.0847985 0)
(4.84679 0.0781031 0)
(4.85004 0.0716063 0)
(4.85384 0.065486 0)
(4.85743 0.0595275 0)
(4.86203 0.0536475 0)
(4.86561 0.0475971 0)
(5.00151 0.254635 0)
(4.97243 0.190411 0)
(4.93163 0.161449 0)
(4.90047 0.148908 0)
(4.88388 0.13796 0)
(4.8759 0.126868 0)
(4.87107 0.117512 0)
(4.86787 0.110105 0)
(4.86667 0.103561 0)
(4.86746 0.0969571 0)
(4.86981 0.0900618 0)
(4.87282 0.0830365 0)
(4.87632 0.07611 0)
(4.87971 0.0694345 0)
(4.88363 0.0630299 0)
(4.88722 0.0568658 0)
(4.89175 0.0507723 0)
(4.89523 0.0447527 0)
(5.00203 0.261576 0)
(4.98161 0.202725 0)
(4.9493 0.170712 0)
(4.92203 0.154521 0)
(4.90647 0.142289 0)
(4.89925 0.130382 0)
(4.89548 0.119766 0)
(4.89312 0.110987 0)
(4.89224 0.103385 0)
(4.89298 0.0961147 0)
(4.89517 0.0888004 0)
(4.89811 0.0814709 0)
(4.9016 0.0742943 0)
(4.90507 0.067392 0)
(4.90901 0.0607594 0)
(4.9127 0.0543878 0)
(4.9172 0.0481167 0)
(4.92088 0.0420526 0)
(4.99903 0.268325 0)
(4.98519 0.214177 0)
(4.95998 0.180093 0)
(4.93671 0.160419 0)
(4.92238 0.146402 0)
(4.91563 0.133627 0)
(4.91257 0.122004 0)
(4.91097 0.112037 0)
(4.91059 0.103401 0)
(4.91154 0.095419 0)
(4.91378 0.0876446 0)
(4.91676 0.080007 0)
(4.92031 0.0725608 0)
(4.92392 0.0654052 0)
(4.92793 0.0584962 0)
(4.93175 0.0518761 0)
(4.93622 0.04537 0)
(4.94006 0.0391615 0)
(4.9954 0.271182 0)
(4.98595 0.222272 0)
(4.96642 0.187554 0)
(4.94683 0.165255 0)
(4.93373 0.14936 0)
(4.92717 0.135619 0)
(4.92446 0.123126 0)
(4.92344 0.112127 0)
(4.92351 0.102527 0)
(4.92463 0.0938147 0)
(4.92688 0.0855337 0)
(4.92986 0.0775278 0)
(4.93347 0.069777 0)
(4.9372 0.0623606 0)
(4.94138 0.0552161 0)
(4.94534 0.0483951 0)
(4.94997 0.0417106 0)
(4.95394 0.0353409 0)
(5.002 0.274706 0)
(4.99518 0.22963 0)
(4.97986 0.195006 0)
(4.96367 0.170907 0)
(4.95215 0.153275 0)
(4.94605 0.138483 0)
(4.94356 0.125178 0)
(4.94285 0.113324 0)
(4.94317 0.102867 0)
(4.94435 0.0934627 0)
(4.94647 0.0846883 0)
(4.94923 0.0763205 0)
(4.95261 0.0682559 0)
(4.95612 0.0605425 0)
(4.96007 0.0530994 0)
(4.96378 0.0460081 0)
(4.96815 0.0390604 0)
(4.97184 0.0324653 0)
(4.99869 0.277249 0)
(4.99459 0.234094 0)
(4.9835 0.199901 0)
(4.97117 0.174564 0)
(4.96215 0.155329 0)
(4.95739 0.139388 0)
(4.95575 0.125295 0)
(4.95576 0.112736 0)
(4.95671 0.101593 0)
(4.95834 0.0915973 0)
(4.96076 0.0823634 0)
(4.96371 0.0736529 0)
(4.96721 0.0653211 0)
(4.97074 0.0573817 0)
(4.97466 0.0497467 0)
(4.97823 0.0424824 0)
(4.98245 0.0353821 0)
(4.98586 0.0286106 0)
(5.00528 0.280508 0)
(5.00364 0.23986 0)
(4.99561 0.206198 0)
(4.98599 0.179769 0)
(4.97872 0.159001 0)
(4.97481 0.141846 0)
(4.97359 0.126895 0)
(4.97399 0.113564 0)
(4.97541 0.10164 0)
(4.9775 0.0909167 0)
(4.98027 0.0811082 0)
(4.98346 0.0719866 0)
(4.98712 0.0633567 0)
(4.99078 0.0551771 0)
(4.9948 0.0473142 0)
(4.99847 0.0398225 0)
(5.00273 0.0324765 0)
(5.0062 0.0254692 0)
(5.00444 0.279318 0)
(5.00555 0.242051 0)
(5.00086 0.209463 0)
(4.99442 0.1824 0)
(4.98959 0.160278 0)
(4.98733 0.14181 0)
(4.98724 0.125828 0)
(4.98854 0.111655 0)
(4.9907 0.0989546 0)
(4.99339 0.0875188 0)
(4.99657 0.0771161 0)
(5.00003 0.0675465 0)
(5.00387 0.0585967 0)
(5.00765 0.0501711 0)
(5.01173 0.0421028 0)
(5.0154 0.0344093 0)
(5.0196 0.0268816 0)
(5.02295 0.0196777 0)
(5.00808 0.281742 0)
(5.01019 0.246458 0)
(5.0082 0.214212 0)
(5.00525 0.186489 0)
(5.00376 0.163212 0)
(5.00408 0.143491 0)
(5.00576 0.126395 0)
(5.0083 0.111293 0)
(5.01139 0.0978164 0)
(5.01479 0.0857284 0)
(5.01852 0.0747869 0)
(5.02241 0.0647892 0)
(5.02654 0.0555113 0)
(5.03059 0.0468445 0)
(5.03482 0.0385977 0)
(5.03866 0.0307776 0)
(5.0428 0.023148 0)
(5.04617 0.0158794 0)
(5.00062 0.279075 0)
(5.00302 0.244195 0)
(5.00262 0.212026 0)
(5.00223 0.183697 0)
(5.00339 0.159403 0)
(5.00596 0.138713 0)
(5.00937 0.120906 0)
(5.01323 0.10528 0)
(5.01737 0.0913144 0)
(5.02167 0.0787014 0)
(5.02612 0.0672298 0)
(5.03059 0.0567574 0)
(5.03512 0.0471047 0)
(5.03948 0.0381604 0)
(5.04389 0.0297305 0)
(5.04792 0.0217877 0)
(5.05212 0.0141121 0)
(5.05564 0.00682371 0)
(5.00135 0.284236 0)
(5.00558 0.246419 0)
(5.00784 0.213045 0)
(5.01033 0.18382 0)
(5.01427 0.15844 0)
(5.01933 0.136556 0)
(5.02487 0.11766 0)
(5.03047 0.101205 0)
(5.03603 0.0867118 0)
(5.04145 0.0738399 0)
(5.04676 0.0623049 0)
(5.05184 0.0518948 0)
(5.05679 0.0423626 0)
(5.06139 0.0335695 0)
(5.06593 0.0252993 0)
(5.06995 0.0175565 0)
(5.07409 0.0101189 0)
(5.07734 0.00316764 0)
(5.00097 0.278306 0)
(5.00865 0.238561 0)
(5.01505 0.203081 0)
(5.02175 0.172246 0)
(5.0298 0.145863 0)
(5.03864 0.123326 0)
(5.04747 0.103871 0)
(5.05584 0.0868451 0)
(5.0637 0.0717765 0)
(5.07105 0.0583542 0)
(5.07798 0.0463327 0)
(5.08439 0.0355234 0)
(5.09038 0.0257183 0)
(5.09575 0.01678 0)
(5.10079 0.00851833 0)
(5.10513 0.000884888 0)
(5.10938 -0.00631139 0)
(5.11272 -0.012993 0)
(5.00275 0.275503 0)
(5.01203 0.231712 0)
(5.02193 0.192604 0)
(5.03322 0.15947 0)
(5.04582 0.132147 0)
(5.0584 0.109656 0)
(5.06994 0.0908791 0)
(5.08022 0.0749452 0)
(5.08949 0.0612445 0)
(5.09798 0.0493464 0)
(5.10591 0.0388817 0)
(5.11323 0.0295656 0)
(5.12005 0.0211326 0)
(5.12621 0.0134465 0)
(5.13193 0.00632989 0)
(5.13689 -0.000228004 0)
(5.14161 -0.0064162 0)
(5.14537 -0.0121258 0)
(5.00162 0.271759 0)
(5.0135 0.220775 0)
(5.02823 0.177335 0)
(5.04543 0.142291 0)
(5.06354 0.114306 0)
(5.08059 0.0913654 0)
(5.09567 0.0719056 0)
(5.10884 0.0550959 0)
(5.1205 0.040562 0)
(5.13091 0.0280469 0)
(5.14023 0.0172367 0)
(5.14845 0.00780803 0)
(5.15576 -0.000539054 0)
(5.16211 -0.00799649 0)
(5.16788 -0.0147475 0)
(5.17281 -0.0208615 0)
(5.17748 -0.0264927 0)
(5.18121 -0.0316177 0)
(5.00348 0.265768 0)
(5.01953 0.205386 0)
(5.0407 0.158287 0)
(5.06412 0.123887 0)
(5.08654 0.0987071 0)
(5.10597 0.0792053 0)
(5.12239 0.0631516 0)
(5.13679 0.0495338 0)
(5.14993 0.0378811 0)
(5.16198 0.0278277 0)
(5.17287 0.0189941 0)
(5.18246 0.0110996 0)
(5.19093 0.00393437 0)
(5.19827 -0.00257839 0)
(5.20486 -0.00854964 0)
(5.2105 -0.0139845 0)
(5.21574 -0.019057 0)
(5.21998 -0.0237025 0)
(4.99944 0.260448 0)
(5.02448 0.188042 0)
(5.05674 0.135198 0)
(5.08969 0.0988985 0)
(5.11858 0.0724257 0)
(5.14195 0.0509196 0)
(5.16089 0.0327114 0)
(5.17705 0.0177603 0)
(5.19139 0.00592448 0)
(5.2041 -0.00345924 0)
(5.21522 -0.0112265 0)
(5.22475 -0.0179866 0)
(5.23302 -0.024059 0)
(5.24013 -0.0295528 0)
(5.24648 -0.034543 0)
(5.25188 -0.0390604 0)
(5.25685 -0.0432031 0)
(5.26078 -0.0469745 0)
(5.00536 0.244646 0)
(5.03975 0.164583 0)
(5.0833 0.115753 0)
(5.12356 0.0884067 0)
(5.15523 0.0698139 0)
(5.17944 0.0533694 0)
(5.19963 0.0384885 0)
(5.21797 0.0259657 0)
(5.23479 0.0158493 0)
(5.2496 0.00751554 0)
(5.26222 0.000308842 0)
(5.27282 -0.00612111 0)
(5.2819 -0.0119147 0)
(5.28967 -0.0171041 0)
(5.29653 -0.0217895 0)
(5.30233 -0.0260144 0)
(5.30762 -0.0299328 0)
(5.31188 -0.0335146 0)
(5.00361 0.228345 0)
(5.0543 0.126864 0)
(5.11619 0.0726723 0)
(5.16662 0.0449123 0)
(5.20119 0.025067 0)
(5.22566 0.00758678 0)
(5.24613 -0.00635711 0)
(5.26486 -0.0161942 0)
(5.28177 -0.0231454 0)
(5.29636 -0.0287054 0)
(5.30872 -0.0336666 0)
(5.31919 -0.0382052 0)
(5.32829 -0.0423071 0)
(5.33619 -0.0459866 0)
(5.34324 -0.0493245 0)
(5.34924 -0.0523916 0)
(5.35471 -0.0552682 0)
(5.35909 -0.0579692 0)
(5.0135 0.212401 0)
(5.08625 0.112888 0)
(5.16607 0.0778354 0)
(5.22329 0.0619631 0)
(5.25916 0.0441004 0)
(5.28544 0.0260664 0)
(5.30914 0.0118345 0)
(5.33098 0.00187858 0)
(5.34985 -0.00541623 0)
(5.36537 -0.0114642 0)
(5.37817 -0.016845 0)
(5.38894 -0.0216639 0)
(5.39828 -0.0259525 0)
(5.40631 -0.0297784 0)
(5.41336 -0.0332545 0)
(5.41928 -0.0364385 0)
(5.4246 -0.0394144 0)
(5.42888 -0.0421581 0)
(5.01019 0.160194 0)
(5.12284 0.0346821 0)
(5.22189 0.00676625 0)
(5.27944 -0.00258716 0)
(5.31212 -0.0166463 0)
(5.33816 -0.028961 0)
(5.36302 -0.0365458 0)
(5.38572 -0.0411861 0)
(5.4049 -0.0448604 0)
(5.42058 -0.0482627 0)
(5.43363 -0.0513771 0)
(5.44478 -0.0541357 0)
(5.45454 -0.056563 0)
(5.46301 -0.0587505 0)
(5.47052 -0.0607653 0)
(5.4769 -0.0626741 0)
(5.48271 -0.0645054 0)
(5.48745 -0.0662857 0)
(5.01835 0.152833 0)
(5.17968 0.0583613 0)
(5.3033 0.0446156 0)
(5.36401 0.028412 0)
(5.39729 0.00925875 0)
(5.42602 -0.00445946 0)
(5.45322 -0.0125357 0)
(5.47693 -0.0180404 0)
(5.49629 -0.0227466 0)
(5.51188 -0.0270397 0)
(5.52467 -0.0308565 0)
(5.53533 -0.0342367 0)
(5.54429 -0.0372402 0)
(5.55171 -0.04 0)
(5.5578 -0.0425302 0)
(5.56261 -0.0449396 0)
(5.56641 -0.0471934 0)
(5.56911 -0.0493932 0)
(5.01852 0.0193103 0)
(5.22873 -0.051866 0)
(5.35518 -0.0344141 0)
(5.40993 -0.0429495 0)
(5.44075 -0.0531597 0)
(5.46495 -0.0578288 0)
(5.48336 -0.0596377 0)
(5.49457 -0.060945 0)
(5.49867 -0.0622777 0)
(5.49691 -0.0635315 0)
(5.4905 -0.0645941 0)
(5.48057 -0.0654992 0)
(5.46757 -0.0662641 0)
(5.4523 -0.0669718 0)
(5.43461 -0.0675927 0)
(5.41558 -0.0682198 0)
(5.39438 -0.0687933 0)
(5.3729 -0.0694514 0)
(4.97014 0.0705663 0)
(5.1048 -0.000606234 0)
(5.07667 -0.000608343 0)
(4.96286 -0.0110751 0)
(4.83517 -0.01881 0)
(4.71038 -0.0218195 0)
(4.58908 -0.0229553 0)
(4.4697 -0.023696 0)
(4.35182 -0.0242687 0)
(4.23609 -0.0246431 0)
(4.12323 -0.0248344 0)
(4.01391 -0.0248965 0)
(3.90813 -0.024865 0)
(3.80631 -0.0247771 0)
(3.70775 -0.0246335 0)
(3.61337 -0.0244793 0)
(3.52149 -0.024295 0)
(3.43451 -0.0241765 0)
(-0.035503 0.084225 9.71192e-22)
(-0.0966516 0.0531169 -9.62657e-22)
(-0.12232 0.0152859 0)
(-0.114843 -0.0205911 0)
(-0.0760659 -0.0523531 0)
(-0.0136821 -0.0770335 9.28068e-22)
(0.0660593 -0.0952816 0)
(0.159674 -0.108207 0)
(0.262408 -0.115159 0)
(0.370582 -0.117095 0)
(0.479905 -0.114497 -8.82508e-22)
(0.5863 -0.108594 0)
(0.686657 -0.0998211 0)
(0.778725 -0.0886827 0)
(0.860209 -0.0756323 0)
(0.929137 -0.0610716 -7.79207e-22)
(0.983901 -0.045294 0)
(1.0233 -0.0285667 0)
(1.04643 -0.0111005 0)
(1.0519 0.00681561 0)
(1.03937 0.0247546 0)
(1.00883 0.0421905 0)
(0.96097 0.0584776 0)
(0.897013 0.0728753 -6.84218e-22)
(0.818809 0.0845904 6.8366e-22)
(0.728388 0.0929237 -6.83777e-22)
(0.628585 0.0978328 -6.8391e-22)
(0.522609 0.0985118 0)
(0.414551 0.0952518 0)
(0.306711 0.0858644 6.80359e-22)
(0.204356 0.0701401 6.77266e-22)
(0.107613 0.0564054 0)
(0.0102889 0.0503408 0)
(-0.0930938 0.0524708 6.61011e-22)
(-0.202733 0.0620063 0)
(-0.317611 0.0701962 0)
(-0.434567 0.0674505 -6.34218e-22)
(-0.551323 0.0604621 0)
(-0.667079 0.0614958 -6.08561e-22)
(-0.781285 0.0630906 -1.18818e-21)
(-0.891889 0.0568429 0)
(-0.994276 0.0520997 0)
(-1.0878 0.049203 0)
(-1.17098 0.0461299 0)
(-1.24626 0.0454964 0)
(-1.31501 0.052394 -9.94603e-22)
(-1.38026 0.0554974 -9.64121e-22)
(-1.43758 0.0484694 -9.35427e-22)
(-1.487 0.0410892 0)
(-1.53233 0.0347883 8.87158e-22)
(-1.57306 0.0290016 0)
(-1.60911 0.0244656 -8.54866e-22)
(-1.63943 0.021721 -8.45128e-22)
(-1.6631 0.0195211 0)
(-1.67913 0.0160476 0)
(-1.68731 0.0112089 0)
(-1.68871 0.00561236 -8.39342e-22)
(-1.68518 -0.000346343 0)
(-1.67828 -0.00543058 0)
(-1.66812 -0.00837213 0)
(-1.65544 -0.00855665 0)
(-1.64303 -0.00567648 0)
(-1.63413 -0.000921128 0)
(-1.63092 0.00387524 0)
(-1.63461 0.0085461 0)
(-1.64543 0.0113383 8.94191e-22)
(-1.65935 0.00984955 0)
(-1.66987 0.00646508 0)
(-1.67487 0.0041794 -8.85776e-22)
(-1.67643 0.00354846 -8.79539e-22)
(-1.67708 0.00366451 0)
(-1.67784 0.00418294 8.65996e-22)
(-1.6787 0.00582135 -8.60376e-22)
(-1.67946 0.00823317 0)
(-1.67912 0.00918364 8.53154e-22)
(-1.6747 0.00718207 0)
(-1.66365 0.00331543 0)
(-1.6451 -0.0011816 -8.50533e-22)
(-1.61873 -0.00582889 0)
(-1.58458 -0.0104054 8.59344e-22)
(-1.54287 -0.0147957 0)
(-1.49389 -0.0189423 -8.81583e-22)
(-1.43789 -0.0227989 -8.98271e-22)
(-1.37527 -0.0263346 -9.18634e-22)
(-1.30643 -0.0295338 -1.88497e-21)
(-1.23187 -0.0323753 1.93903e-21)
(-1.15207 -0.0348369 0)
(-1.06756 -0.0368964 0)
(-0.978962 -0.0385565 0)
(-0.887077 -0.039849 2.20088e-21)
(-0.792344 -0.0408103 2.27215e-21)
(-0.695393 -0.0414588 -2.34333e-21)
(-0.596732 -0.0418187 0)
(-0.496922 -0.0419006 2.48104e-21)
(-0.396458 -0.041733 2.54565e-21)
(-0.295821 -0.0413368 2.60645e-21)
(-0.195443 -0.040741 0)
(-0.0957255 -0.0399802 0)
(0.00299678 -0.0390704 0)
(0.100439 -0.0380455 2.80265e-21)
(0.196335 -0.0369052 0)
(0.290431 -0.0356675 0)
(0.382453 -0.0343198 -2.89581e-21)
(0.472102 -0.0328629 0)
(0.559058 -0.0312864 0)
(0.642991 -0.029595 -2.94239e-21)
(0.723573 -0.0277941 0)
(0.800531 -0.0259074 0)
(0.873633 -0.0239642 2.94569e-21)
(0.942721 -0.0219949 2.93848e-21)
(1.00769 -0.0200386 0)
(1.06851 -0.0181168 -2.91396e-21)
(1.12524 -0.0162701 0)
(1.17797 -0.0145145 2.87877e-21)
(1.22686 -0.0128598 0)
(1.27207 -0.0113184 2.83587e-21)
(1.31377 -0.00988096 2.81224e-21)
(1.35216 -0.00853637 0)
(1.38738 -0.00727285 0)
(1.41955 -0.00607087 0)
(1.44876 -0.00492016 0)
(1.47506 -0.00380804 0)
(1.49847 -0.00272989 0)
(1.51902 -0.00168394 0)
(1.53673 -0.000671705 2.5916e-21)
(1.55162 0.000300914 -2.56155e-21)
(1.56375 0.00122527 0)
(1.5732 0.00209204 0)
(1.58006 0.00289154 0)
(1.58446 0.00361621 0)
(1.58656 0.00425962 -4.82078e-21)
(1.58653 0.00481694 0)
(1.58455 0.00528851 4.70262e-21)
(1.5808 0.00567832 -4.64467e-21)
(1.57547 0.00598601 0)
(1.56875 0.00621084 0)
(1.56083 0.00636167 0)
(1.55187 0.0064417 4.4212e-21)
(1.54208 0.00643711 4.36742e-21)
(1.53164 0.00633614 0)
(1.52078 0.00613362 4.26218e-21)
(1.50972 0.00582715 4.21067e-21)
(1.4987 0.00542236 -4.15986e-21)
(1.48795 0.00493898 0)
(1.47768 0.00440915 0)
(1.46804 0.0038696 -4.01148e-21)
(1.45916 0.00335411 0)
(1.45107 0.00288793 0)
(1.44377 0.0024852 0)
(1.43723 0.00214947 0)
(1.43136 0.00187643 3.77664e-21)
(1.42609 0.00165748 3.73129e-21)
(1.42135 0.00148303 0)
(1.41704 0.00134444 3.64199e-21)
(1.41311 0.00123502 0)
(1.40949 0.00114965 0)
(1.40612 0.00108466 3.51117e-21)
(1.40295 0.00103698 0)
(1.39991 0.00100458 3.42587e-21)
(1.39699 0.000985391 0)
(1.39411 0.000978983 0)
(1.39126 0.00098446 3.30062e-21)
(1.38833 0.0010041 0)
(1.38537 0.00103754 3.21892e-21)
(1.38216 0.00109163 0)
(1.37885 0.00116452 0)
(1.37502 0.00127295 0)
(1.37105 0.00140642 -3.06015e-21)
(1.36606 0.00160892 0)
(1.36093 0.00183329 2.9835e-21)
(1.35392 0.00220906 0)
(1.34672 0.00255477 0)
(1.33635 0.00330443 0)
(1.32505 0.003764 0)
(1.30961 0.0054745 0)
(1.28844 0.00574711 0)
(1.26797 0.0104133 0)
(1.21702 0.00882609 -5.42831e-21)
(1.20382 0.0247048 0)
(1.04959 0.0161993 0)
(8.29815e-05 0.180029 -2.90245e-21)
(-0.0122945 0.116251 2.87751e-21)
(-0.00354746 0.0164473 0)
(0.0209223 -0.0787622 -1.87331e-21)
(0.065868 -0.159375 0)
(0.124978 -0.221275 -9.28836e-22)
(0.200157 -0.267466 1.82418e-21)
(0.285103 -0.299757 1.8071e-21)
(0.376232 -0.318706 0)
(0.46861 -0.324742 1.76033e-21)
(0.55903 -0.31919 8.83365e-22)
(0.645057 -0.303751 0)
(0.724855 -0.280115 0)
(0.79672 -0.249923 0)
(0.859021 -0.214582 0)
(0.910356 -0.175205 7.79984e-22)
(0.949448 -0.132657 0)
(0.975283 -0.0877636 -1.43016e-21)
(0.986901 -0.0414022 0)
(0.984644 0.00541156 0)
(0.968164 0.0514377 1.35012e-21)
(0.937538 0.0954459 0)
(0.893434 0.13639 -1.33054e-21)
(0.836772 0.173408 6.85038e-22)
(0.768956 0.205643 -6.84504e-22)
(0.691747 0.231751 6.84653e-22)
(0.607286 0.250514 6.84821e-22)
(0.517856 0.260964 0)
(0.426211 0.263535 0)
(0.333228 0.259878 -6.81353e-22)
(0.237083 0.253302 6.48198e-22)
(0.130685 0.255609 0)
(0.0150687 0.270182 0)
(-0.104823 0.28376 -6.62017e-22)
(-0.22444 0.288296 0)
(-0.344826 0.287803 0)
(-0.468748 0.290652 6.35246e-22)
(-0.597211 0.292259 0)
(-0.725981 0.285958 -5.6116e-22)
(-0.854294 0.274786 1.19014e-21)
(-0.982126 0.260539 0)
(-1.10488 0.23892 0)
(-1.22067 0.210555 2.08254e-21)
(-1.32954 0.185011 2.01679e-21)
(-1.42953 0.162016 1.95125e-21)
(-1.51392 0.139183 -8.90701e-22)
(-1.58378 0.117554 9.65641e-22)
(-1.64267 0.100783 2.70607e-21)
(-1.69317 0.0906463 -1.71945e-21)
(-1.73679 0.0836325 -8.88497e-22)
(-1.77484 0.0761745 0)
(-1.80826 0.0655955 8.56153e-22)
(-1.83616 0.0508378 -7.56498e-22)
(-1.85801 0.0329151 0)
(-1.87336 0.0148736 0)
(-1.88199 -0.000267866 0)
(-1.88425 -0.0101587 8.40426e-22)
(-1.88111 -0.0152245 0)
(-1.87435 -0.0184904 -1.63277e-21)
(-1.86572 -0.0224495 0)
(-1.85642 -0.0249897 -1.66459e-21)
(-1.84779 -0.0234026 0)
(-1.84109 -0.0166962 1.6979e-21)
(-1.83807 -0.00533106 0)
(-1.83954 0.00770963 -1.72304e-21)
(-1.84477 0.0169211 8.34073e-22)
(-1.85185 0.0175947 0)
(-1.85722 0.0102002 1.72781e-21)
(-1.85934 0.00120167 8.86511e-22)
(-1.85915 -0.00308394 8.80236e-22)
(-1.85696 -0.00306026 0)
(-1.85233 -0.00266404 8.20372e-22)
(-1.84363 -0.00441055 8.60974e-22)
(-1.82882 -0.00911792 0)
(-1.80712 -0.0169235 -8.53688e-22)
(-1.77854 -0.0272052 1.65784e-21)
(-1.74323 -0.0388139 0)
(-1.70144 -0.0508558 8.5097e-22)
(-1.65337 -0.0628233 0)
(-1.59917 -0.074403 -2.54185e-21)
(-1.53891 -0.0854338 0)
(-1.4727 -0.0958189 2.61309e-21)
(-1.40085 -0.10549 8.98558e-22)
(-1.32364 -0.114381 -8.90603e-22)
(-1.24147 -0.122437 -1.833e-21)
(-1.1547 -0.129613 1.89109e-21)
(-1.06375 -0.135869 0)
(-0.969024 -0.14118 0)
(-0.870933 -0.145551 0)
(-0.769693 -0.148989 -6.56997e-21)
(-0.665903 -0.151524 -2.2723e-21)
(-0.560006 -0.153175 2.34345e-21)
(-0.452554 -0.153979 0)
(-0.344026 -0.153979 2.4586e-21)
(-0.234928 -0.153238 -2.54569e-21)
(-0.125698 -0.151829 -2.60646e-21)
(-0.0167643 -0.149837 0)
(0.091502 -0.14735 0)
(0.198787 -0.144444 0)
(0.304831 -0.141188 -2.80257e-21)
(0.409398 -0.13762 0)
(0.512254 -0.133757 5.72698e-21)
(0.613153 -0.129584 8.67518e-21)
(0.711809 -0.125086 -5.82164e-21)
(0.807918 -0.120235 0)
(0.90116 -0.115044 -2.93304e-21)
(0.991213 -0.109536 0)
(1.07781 -0.103768 -5.88989e-21)
(1.16074 -0.0978124 2.93841e-21)
(1.23986 -0.0917668 2.93172e-21)
(1.31509 -0.0857343 0)
(1.3864 -0.0798113 8.73548e-21)
(1.45387 -0.0740875 -5.78923e-21)
(1.51759 -0.0686231 -2.87849e-21)
(1.57773 -0.0634539 0)
(1.63445 -0.0586003 -2.83557e-21)
(1.68794 -0.0540433 -8.432e-21)
(1.73837 -0.0497462 0)
(1.78588 -0.0456714 -5.51953e-21)
(1.8306 -0.0417709 -5.46648e-21)
(1.87259 -0.0380073 -5.41185e-21)
(1.91191 -0.0343476 0)
(1.94857 -0.0307717 0)
(1.98258 -0.0272742 0)
(2.01396 -0.0238572 2.58967e-21)
(2.04272 -0.020536 2.56115e-21)
(2.06889 -0.0173335 0)
(2.09253 -0.0142762 4.99993e-21)
(2.11371 -0.0113885 4.93934e-21)
(2.13253 -0.00869116 0)
(2.14912 -0.00620093 4.81991e-21)
(2.16361 -0.00392853 9.51932e-21)
(2.17616 -0.00187766 -4.70173e-21)
(2.18693 -4.54188e-05 -4.64235e-21)
(2.19608 0.00157331 0)
(2.20379 0.00298593 0)
(2.2102 0.00420388 0)
(2.21546 0.00523493 -4.42023e-21)
(2.21971 0.00607896 4.36555e-21)
(2.22304 0.0067322 8.62607e-21)
(2.22555 0.00719307 -4.26118e-21)
(2.22731 0.00746065 4.20911e-21)
(2.22841 0.00753418 4.15884e-21)
(2.22893 0.00741958 0)
(2.22899 0.00713334 0)
(2.22867 0.00670496 -4.01037e-21)
(2.22809 0.00617509 0)
(2.22736 0.00558861 0)
(2.22657 0.00498688 7.73577e-21)
(2.2258 0.00440277 0)
(2.22512 0.00385887 3.77574e-21)
(2.22458 0.00336812 -3.73031e-21)
(2.2242 0.00293585 0)
(2.224 0.00256228 3.64109e-21)
(2.22396 0.00224465 0)
(2.22408 0.00197886 0)
(2.22434 0.00176052 -3.51022e-21)
(2.22471 0.00158561 6.9348e-21)
(2.22517 0.00145125 -3.42494e-21)
(2.22569 0.00135501 0)
(2.22623 0.00129727 0)
(2.22679 0.00127647 3.29964e-21)
(2.22729 0.00129886 0)
(2.22774 0.00136059 3.21789e-21)
(2.22803 0.00148168 0)
(2.22819 0.00164453 0)
(2.22801 0.0019068 0)
(2.22762 0.0022018 3.05929e-21)
(2.22662 0.00269752 0)
(2.22524 0.00316859 -2.98265e-21)
(2.2229 0.00410624 0)
(2.21972 0.00478443 0)
(2.21531 0.00665581 5.74363e-21)
(2.20859 0.00746844 -5.67325e-21)
(2.20138 0.0115376 0)
(2.18672 0.0120281 0)
(2.17715 0.0218331 0)
(2.14224 0.0205614 1.62653e-20)
(2.13682 0.0473364 0)
(2.04879 0.0435057 -1.06244e-20)
(0.0202845 0.120986 6.57848e-25)
(0.0521827 0.0708419 -3.83236e-21)
(0.0931434 -0.0396681 0)
(0.136751 -0.154176 3.75278e-21)
(0.191087 -0.257945 0)
(0.255351 -0.343999 0)
(0.325574 -0.410216 -1.61866e-23)
(0.396591 -0.45435 -1.8087e-21)
(0.464851 -0.476597 -1.75371e-21)
(0.5285 -0.478945 -1.76181e-21)
(0.586864 -0.464592 0)
(0.639613 -0.436633 0)
(0.686331 -0.39762 1.59232e-21)
(0.72629 -0.349606 3.08796e-21)
(0.758585 -0.294267 -2.99055e-21)
(0.782462 -0.232941 0)
(0.796991 -0.166832 -2.80745e-21)
(0.801261 -0.0973519 1.43111e-21)
(0.794059 -0.0260532 0)
(0.774916 0.045331 -2.61018e-21)
(0.743292 0.115038 -1.35099e-21)
(0.699482 0.181161 2.55187e-21)
(0.644591 0.241882 1.33141e-21)
(0.580529 0.295517 0)
(0.509069 0.34069 -2.5517e-21)
(0.431914 0.376004 -2.56279e-21)
(0.350723 0.400288 0)
(0.266891 0.412766 -2.58251e-21)
(0.181514 0.413427 0)
(0.093925 0.406998 -2.58115e-21)
(-0.00110807 0.41264 -1.32745e-21)
(-0.10307 0.429988 0)
(-0.204418 0.443742 0)
(-0.303898 0.45247 0)
(-0.403369 0.461147 0)
(-0.504172 0.470388 0)
(-0.604522 0.474973 0)
(-0.704291 0.474622 -2.29093e-21)
(-0.803672 0.471563 3.39992e-21)
(-0.902264 0.460701 0)
(-0.999182 0.441449 0)
(-1.09527 0.418268 0)
(-1.19056 0.388986 -1.34116e-22)
(-1.28249 0.353469 -2.01878e-21)
(-1.36944 0.315615 -3.76468e-21)
(-1.45066 0.278012 3.6336e-21)
(-1.52667 0.241286 1.68217e-21)
(-1.59721 0.207257 -1.77069e-21)
(-1.66189 0.177559 1.45223e-22)
(-1.71864 0.151972 -1.53486e-21)
(-1.76623 0.129711 0)
(-1.80529 0.109163 -1.48343e-21)
(-1.83695 0.0883519 1.31045e-22)
(-1.86233 0.0663053 0)
(-1.8827 0.043676 0)
(-1.89793 0.0212059 1.48682e-21)
(-1.9074 -0.000328162 0)
(-1.90997 -0.01845 0)
(-1.90546 -0.0311875 -1.43866e-21)
(-1.89581 -0.0381294 -3.1059e-21)
(-1.88437 -0.0386531 1.66485e-21)
(-1.87387 -0.0325311 0)
(-1.86608 -0.020441 -1.69807e-21)
(-1.86136 -0.00431535 0)
(-1.85886 0.0119987 -1.53171e-21)
(-1.85717 0.0227455 -1.72907e-21)
(-1.85502 0.0220631 3.28895e-21)
(-1.85288 0.0121526 1.56639e-21)
(-1.85203 0.00319096 0)
(-1.85023 -0.00120632 -3.27633e-21)
(-1.84321 -0.00583123 0)
(-1.82939 -0.0133518 -4.92448e-21)
(-1.80877 -0.0235722 -3.21925e-21)
(-1.78152 -0.036261 -3.20393e-21)
(-1.74815 -0.0511852 3.193e-21)
(-1.70939 -0.0677596 -4.84515e-21)
(-1.66584 -0.0851706 0)
(-1.61781 -0.102764 0)
(-1.56535 -0.120134 3.22122e-21)
(-1.50831 -0.137028 4.93669e-21)
(-1.44646 -0.153295 0)
(-1.37955 -0.168773 -1.73084e-21)
(-1.3075 -0.18331 0)
(-1.23038 -0.196748 5.34122e-21)
(-1.1484 -0.208953 8.04683e-23)
(-1.06187 -0.219846 -7.47358e-23)
(-0.971159 -0.229395 -3.88392e-21)
(-0.876708 -0.237588 0)
(-0.778943 -0.244404 4.16652e-21)
(-0.678322 -0.249816 5.30655e-23)
(-0.575352 -0.253806 0)
(-0.470524 -0.256389 0)
(-0.364349 -0.257592 0)
(-0.257317 -0.257488 -4.93938e-21)
(-0.149904 -0.256166 0)
(-0.0425382 -0.253753 0)
(0.0643851 -0.250392 0)
(0.170524 -0.246226 0)
(0.275608 -0.241392 0)
(0.379425 -0.235994 -5.56637e-21)
(0.481785 -0.230105 0)
(0.582493 -0.223742 -5.7268e-21)
(0.681314 -0.21689 -5.77933e-21)
(0.777969 -0.209511 5.82147e-21)
(0.872129 -0.201567 0)
(0.963447 -0.193076 5.87508e-21)
(1.05159 -0.184065 0)
(1.13628 -0.174637 5.88968e-21)
(1.21731 -0.164925 -5.88365e-21)
(1.29455 -0.155085 -1.75868e-20)
(1.36795 -0.145289 0)
(1.43752 -0.1357 -1.74454e-20)
(1.50338 -0.126457 -5.7711e-21)
(1.56569 -0.117661 0)
(1.62462 -0.109373 -1.14065e-20)
(1.68037 -0.101606 -1.13193e-20)
(1.73315 -0.0943297 1.68465e-20)
(1.78315 -0.0874791 0)
(1.83051 -0.0809897 5.5193e-21)
(1.87533 -0.0747872 5.46626e-21)
(1.91768 -0.0688082 1.62263e-20)
(1.95759 -0.0629996 0)
(1.99506 -0.0573274 0)
(2.0301 -0.0517767 0)
(2.06271 -0.0463529 5.17537e-21)
(2.09292 -0.0410806 0)
(2.12075 -0.0359962 0)
(2.14627 -0.031142 -4.99976e-21)
(2.16955 -0.026558 -4.93917e-21)
(2.19071 -0.0222794 0)
(2.20984 -0.0183341 0)
(2.22709 -0.0147394 -9.51901e-21)
(2.24258 -0.0115012 0)
(2.25646 -0.00861892 9.2858e-21)
(2.26889 -0.00608687 9.16954e-21)
(2.28003 -0.00389106 0)
(2.29004 -0.00201218 0)
(2.29908 -0.0004268 -8.83764e-21)
(2.30731 0.00088923 -1.32168e-24)
(2.31484 0.00196098 -1.1546e-24)
(2.32178 0.00280329 0)
(2.32819 0.00341849 -1.6836e-20)
(2.33409 0.00381205 0)
(2.3395 0.00399573 0)
(2.34443 0.00398858 0)
(2.3489 0.0038199 8.02038e-21)
(2.35294 0.00352682 0)
(2.35658 0.00314797 -1.56582e-20)
(2.35989 0.00271879 -7.73529e-21)
(2.36294 0.00226835 0)
(2.36578 0.00181881 -7.5509e-21)
(2.36848 0.00138657 0)
(2.37111 0.000983777 0)
(2.37372 0.000619343 -2.18449e-20)
(2.37635 0.000299373 1.43873e-20)
(2.37901 2.72094e-05 0)
(2.38174 -0.000195825 1.40399e-20)
(2.38452 -0.000370547 -6.9343e-21)
(2.38737 -0.000497418 0)
(2.39028 -0.000578636 0)
(2.39322 -0.000611553 0)
(2.39617 -0.000598799 -1.97963e-20)
(2.39912 -0.000528499 0)
(2.40204 -0.00040811 -6.43542e-21)
(2.4049 -0.000203993 0)
(2.40764 5.46692e-05 0)
(2.41029 0.000457145 0)
(2.41267 0.000903332 0)
(2.41491 0.00163366 0)
(2.41663 0.00233696 0)
(2.41821 0.00366867 -1.1776e-20)
(2.41871 0.00470892 0)
(2.4193 0.00724823 -5.74312e-21)
(2.41746 0.00867017 1.70132e-20)
(2.41671 0.0138506 0)
(2.41024 0.0155935 0)
(2.40814 0.0270354 -1.09416e-20)
(2.39235 0.0291569 -1.08375e-20)
(2.39052 0.0564856 1.07038e-20)
(2.35861 0.0617962 1.06234e-20)
(0.00973207 0.0265052 5.79797e-21)
(0.0450034 -0.0402734 5.75878e-21)
(0.0962358 -0.154363 3.80545e-21)
(0.163674 -0.280884 1.88075e-21)
(0.237801 -0.39881 0)
(0.307635 -0.491252 -3.64665e-21)
(0.367245 -0.551889 1.7707e-21)
(0.414587 -0.581971 0)
(0.451077 -0.585911 1.75512e-21)
(0.479362 -0.569388 0)
(0.501777 -0.537835 -3.26122e-21)
(0.520649 -0.494896 0)
(0.537775 -0.44271 -1.59348e-21)
(0.552664 -0.382731 -3.09016e-21)
(0.563311 -0.315902 2.99262e-21)
(0.568325 -0.24261 0)
(0.566105 -0.162811 2.80927e-21)
(0.555521 -0.0771008 0)
(0.534985 0.0129667 0)
(0.504245 0.104405 2.61191e-21)
(0.462847 0.193823 0)
(0.411105 0.277783 -1.46415e-22)
(0.350276 0.35336 0)
(0.282288 0.418303 0)
(0.209156 0.471265 1.32677e-22)
(0.132523 0.511571 2.56457e-21)
(0.0538766 0.538889 2.45041e-21)
(-0.0259612 0.553401 2.58426e-21)
(-0.10762 0.559333 0)
(-0.196392 0.568975 5.0472e-21)
(-0.291198 0.584183 0)
(-0.384798 0.595285 2.4331e-21)
(-0.476448 0.60271 0)
(-0.567255 0.608789 0)
(-0.656941 0.613632 -2.32933e-21)
(-0.744092 0.615065 0)
(-0.828612 0.614354 2.22458e-21)
(-0.9108 0.611889 1.30257e-22)
(-0.988945 0.603239 -4.32502e-21)
(-1.06375 0.587843 4.04827e-21)
(-1.13592 0.567533 0)
(-1.20449 0.54057 0)
(-1.26899 0.505147 1.6512e-21)
(-1.32991 0.463734 0)
(-1.38777 0.420351 1.81308e-21)
(-1.44248 0.377227 -1.74641e-21)
(-1.49413 0.33543 -1.68342e-21)
(-1.5427 0.297029 0)
(-1.58814 0.262608 1.57661e-21)
(-1.62973 0.230332 1.53572e-21)
(-1.66716 0.198392 -2.67952e-21)
(-1.7005 0.165944 1.48394e-21)
(-1.7297 0.132742 1.47313e-21)
(-1.75478 0.0991946 0)
(-1.77622 0.0664405 0)
(-1.79411 0.0357176 -1.48692e-21)
(-1.80788 0.00785809 0)
(-1.81718 -0.0161719 0)
(-1.82217 -0.0352988 3.07154e-21)
(-1.82284 -0.0477165 3.10554e-21)
(-1.82064 -0.0504651 0)
(-1.81677 -0.0438391 0)
(-1.81217 -0.0308349 0)
(-1.80716 -0.014035 0)
(-1.80153 0.00260142 3.25403e-21)
(-1.79485 0.0129097 -3.06416e-21)
(-1.78741 0.013378 -3.28806e-21)
(-1.7812 0.0067696 -6.39293e-21)
(-1.77495 -0.00266287 0)
(-1.76372 -0.0141678 1.77164e-22)
(-1.74601 -0.0276809 0)
(-1.72241 -0.0429959 3.23673e-21)
(-1.69328 -0.0601647 1.60401e-22)
(-1.65918 -0.0789957 3.20289e-21)