/*--------------------------------*- C++ -*----------------------------------*\
  =========                 |
  \\      /  F ield         | OpenFOAM: The Open Source CFD Toolbox
   \\    /   O peration     | Website:  https://openfoam.org
    \\  /    A nd           | Version:  7
     \\/     M anipulation  |
\*---------------------------------------------------------------------------*/
FoamFile
{
    version     2.0;
    format      ascii;
    class       volScalarField;
    location    "0.058";
    object      k_0;
}
// * * * * * * * * * * * * * * * * * * * * * * * * * * * * * * * * * * * * * //

dimensions      [0 2 -2 0 0 0 0];

internalField   nonuniform List<scalar> 
12225
(
1.93521e-05
1.8047e-05
1.6819e-05
1.53673e-05
1.42061e-05
1.26499e-05
1.11964e-05
9.98141e-06
8.23548e-06
8.81288e-06
1.35833e-05
1.15892e-05
6.00768e-06
4.59121e-06
4.72038e-06
4.96374e-06
4.48032e-06
5.28847e-06
1.99821e-05
1.98766e-05
1.97249e-05
1.94052e-05
1.9138e-05
1.87495e-05
1.81672e-05
1.78429e-05
1.71206e-05
1.66581e-05
1.69493e-05
1.78269e-05
1.78574e-05
1.75047e-05
1.64308e-05
1.51904e-05
1.43324e-05
1.33536e-05
2.00015e-05
1.94339e-05
1.90952e-05
1.90146e-05
1.89592e-05
1.88789e-05
1.87473e-05
1.86875e-05
1.85873e-05
1.84737e-05
1.84732e-05
1.85425e-05
1.85944e-05
1.85804e-05
1.84984e-05
1.82343e-05
1.80607e-05
1.7815e-05
2.03144e-05
2.01098e-05
1.9214e-05
1.69538e-05
1.55246e-05
1.57039e-05
1.60892e-05
1.63392e-05
1.65239e-05
1.68487e-05
1.71261e-05
1.72936e-05
1.74233e-05
1.74961e-05
1.75163e-05
1.75091e-05
1.75148e-05
1.75492e-05
2.03931e-05
2.07779e-05
2.29178e-05
2.51888e-05
2.50975e-05
2.47403e-05
2.35079e-05
2.07994e-05
1.85943e-05
1.6518e-05
1.45939e-05
1.35554e-05
1.32927e-05
1.33137e-05
1.35364e-05
1.43631e-05
1.54749e-05
1.63484e-05
2.03327e-05
2.05288e-05
2.10809e-05
2.20612e-05
2.39247e-05
2.47755e-05
2.47758e-05
2.45259e-05
2.37921e-05
2.19821e-05
1.96714e-05
1.77198e-05
1.67377e-05
1.65961e-05
1.6638e-05
1.68009e-05
1.72283e-05
1.77588e-05
2.33077e-05
2.44626e-05
2.41614e-05
2.39527e-05
2.57003e-05
2.72328e-05
2.72475e-05
2.61358e-05
2.48664e-05
2.4294e-05
2.34696e-05
2.2431e-05
2.16113e-05
2.11264e-05
2.08614e-05
2.06595e-05
2.05184e-05
2.0345e-05
2.11642e-05
2.18567e-05
2.64291e-05
3.1471e-05
3.1627e-05
3.02198e-05
2.65378e-05
2.43453e-05
2.35342e-05
2.34044e-05
2.35515e-05
2.40139e-05
2.41198e-05
2.39949e-05
2.35925e-05
2.33844e-05
2.31705e-05
2.26703e-05
2.12514e-05
2.56247e-05
2.80931e-05
2.74797e-05
2.66106e-05
2.54895e-05
2.43538e-05
2.37371e-05
2.35643e-05
2.36014e-05
2.39776e-05
2.53105e-05
2.64839e-05
2.70033e-05
2.70998e-05
2.70735e-05
2.69582e-05
2.66198e-05
2.04373e-05
2.2233e-05
2.27984e-05
2.25549e-05
2.25652e-05
2.26229e-05
2.25712e-05
2.23936e-05
2.23511e-05
2.23889e-05
2.26142e-05
2.35003e-05
2.52528e-05
2.65439e-05
2.72509e-05
2.74653e-05
2.74688e-05
2.73626e-05
2.03828e-05
2.26261e-05
2.39751e-05
2.37882e-05
2.2449e-05
2.14404e-05
2.12234e-05
2.12425e-05
2.14051e-05
2.15775e-05
2.16979e-05
2.18801e-05
2.23782e-05
2.36532e-05
2.46014e-05
2.50078e-05
2.5083e-05
2.5079e-05
2.04621e-05
2.22646e-05
2.29267e-05
2.28884e-05
2.27183e-05
2.21629e-05
2.15681e-05
2.14107e-05
2.13622e-05
2.12678e-05
2.09804e-05
2.0796e-05
2.07912e-05
2.0844e-05
2.09855e-05
2.13306e-05
2.22282e-05
2.29404e-05
2.08231e-05
2.1035e-05
2.08834e-05
2.0902e-05
2.17971e-05
2.30095e-05
2.30647e-05
2.27465e-05
2.21853e-05
2.16909e-05
2.1229e-05
2.08861e-05
2.07152e-05
2.06794e-05
2.06901e-05
2.07731e-05
2.11353e-05
2.22655e-05
2.04404e-05
2.04075e-05
2.0572e-05
2.1416e-05
2.1719e-05
2.165e-05
2.15533e-05
2.16366e-05
2.23497e-05
2.34985e-05
2.39577e-05
2.40147e-05
2.39038e-05
2.32692e-05
2.24527e-05
2.20816e-05
2.19958e-05
2.20126e-05
2.12902e-05
2.13723e-05
2.07531e-05
2.04527e-05
2.0377e-05
2.03751e-05
2.04821e-05
2.10833e-05
2.23926e-05
2.31862e-05
2.35246e-05
2.36209e-05
2.36201e-05
2.35499e-05
2.32622e-05
2.27763e-05
2.24418e-05
2.23123e-05
2.08621e-05
2.08213e-05
2.07567e-05
2.08126e-05
2.08829e-05
2.08947e-05
2.09096e-05
2.10337e-05
2.15929e-05
2.24243e-05
2.28613e-05
2.29328e-05
2.28674e-05
2.2498e-05
2.18193e-05
2.14728e-05
2.13086e-05
2.12854e-05
2.02023e-05
2.048e-05
2.0559e-05
2.05345e-05
2.0535e-05
2.05888e-05
2.07204e-05
2.07871e-05
2.08016e-05
2.07903e-05
2.07329e-05
2.06435e-05
2.05754e-05
2.05379e-05
2.05383e-05
2.05872e-05
2.06442e-05
2.06575e-05
2.00716e-05
2.01404e-05
2.05451e-05
2.06639e-05
2.06613e-05
2.07354e-05
2.08267e-05
2.08261e-05
2.07391e-05
2.05714e-05
2.04656e-05
2.03774e-05
2.0313e-05
2.02884e-05
2.02906e-05
2.03409e-05
2.0544e-05
2.08023e-05
2.10062e-05
2.05195e-05
2.02992e-05
2.03643e-05
2.08213e-05
2.11355e-05
2.11767e-05
2.11066e-05
2.08477e-05
2.0665e-05
2.05898e-05
2.05599e-05
2.05248e-05
2.04522e-05
2.03717e-05
2.0312e-05
2.02806e-05
2.02729e-05
2.10774e-05
2.06434e-05
2.04924e-05
2.05426e-05
2.08867e-05
2.15072e-05
2.18049e-05
2.18495e-05
2.17914e-05
2.1501e-05
2.12123e-05
2.10736e-05
2.1016e-05
2.09831e-05
2.09513e-05
2.09091e-05
2.08194e-05
2.06625e-05
2.01765e-05
2.03746e-05
2.04103e-05
2.04106e-05
2.04286e-05
2.05149e-05
2.08033e-05
2.10591e-05
2.11198e-05
2.11043e-05
2.09835e-05
2.08389e-05
2.08034e-05
2.08037e-05
2.08022e-05
2.07773e-05
2.0662e-05
2.04839e-05
2.01699e-05
2.02373e-05
2.01608e-05
2.00575e-05
2.00487e-05
2.00915e-05
2.02967e-05
2.04876e-05
2.06448e-05
2.09586e-05
2.15806e-05
2.2121e-05
2.23497e-05
2.23746e-05
2.23397e-05
2.21927e-05
2.17163e-05
2.10969e-05
2.05476e-05
2.0706e-05
2.0495e-05
2.02481e-05
2.02398e-05
2.0359e-05
2.0588e-05
2.07117e-05
2.07692e-05
2.0828e-05
2.09573e-05
2.13068e-05
2.15567e-05
2.16023e-05
2.15613e-05
2.13384e-05
2.10295e-05
2.08101e-05
2.00589e-05
2.03606e-05
2.0539e-05
2.05912e-05
2.05765e-05
2.05168e-05
2.05085e-05
2.05105e-05
2.05678e-05
2.06156e-05
2.06283e-05
2.06307e-05
2.06344e-05
2.06539e-05
2.07557e-05
2.1158e-05
2.22808e-05
2.3213e-05
2.01433e-05
2.01984e-05
2.02333e-05
2.02484e-05
2.02976e-05
2.02987e-05
2.02669e-05
2.0281e-05
2.03508e-05
2.03996e-05
2.04166e-05
2.04211e-05
2.04254e-05
2.04384e-05
2.04943e-05
2.07302e-05
2.1689e-05
2.30552e-05
2.00263e-05
2.01658e-05
2.02294e-05
2.04052e-05
2.05022e-05
2.04686e-05
2.05555e-05
2.06781e-05
2.07234e-05
2.07261e-05
2.06937e-05
2.0537e-05
2.03851e-05
2.03339e-05
2.03323e-05
2.03693e-05
2.05731e-05
2.13677e-05
2.00324e-05
2.00635e-05
2.00547e-05
2.00298e-05
1.99468e-05
1.98628e-05
1.98817e-05
2.00145e-05
2.01822e-05
2.02135e-05
2.01674e-05
1.99929e-05
1.99526e-05
1.99882e-05
2.01497e-05
2.05906e-05
2.1574e-05
2.20464e-05
2.03206e-05
1.74342e-05
1.43163e-05
1.48649e-05
1.62699e-05
1.89213e-05
2.46532e-05
3.34851e-05
4.02879e-05
4.45201e-05
4.72738e-05
5.04687e-05
5.74972e-05
6.95169e-05
8.48885e-05
9.60301e-05
0.000107559
0.000116438
3.40242e-05
0.000118733
0.000170143
0.000204174
0.000228762
0.000276926
0.000363313
0.000434569
0.000474272
0.000493153
0.000507509
0.000530175
0.0005809
0.0006785
0.000764387
0.00081679
0.000838593
0.000844305
0.00309754
0.00293558
0.00262498
0.00237312
0.00215077
0.00198165
0.0018838
0.00184525
0.0018385
0.00184194
0.00186836
0.00192498
0.00195755
0.00196751
0.00196481
0.00193793
0.00183643
0.0017157
9.52649e-05
0.000362769
0.000575624
0.000702317
0.000940873
0.00118625
0.00119412
0.00108095
0.0008665
0.000750299
0.000679192
0.000634753
0.000607453
0.000596007
0.000590394
0.000576071
0.000559797
0.000534838
0.000520249
0.000489663
0.000471449
0.000477799
0.000496006
0.000536727
0.000572805
0.000640688
0.000643184
0.00062192
0.000551154
0.000569602
0.000791604
0.00169049
0.00232907
0.00260447
0.00293312
0.00360844
0.00562604
0.0105475
0.0139075
0.0135994
0.012131
0.0122443
0.018387
0.0439264
0.0357901
0.0048042
0.00104099
0.00062977
0.000640379
0.000716379
0.000742289
0.000704413
0.000607906
0.000516607
0.000393883
0.000291681
0.00023309
0.000166304
0.000122402
9.12181e-05
7.49612e-05
6.4014e-05
5.95664e-05
5.85741e-05
5.87704e-05
5.88022e-05
5.86662e-05
5.8472e-05
5.78452e-05
5.75181e-05
5.74874e-05
5.75388e-05
5.76831e-05
5.79129e-05
5.82002e-05
5.84748e-05
5.86222e-05
5.87112e-05
5.87842e-05
5.88806e-05
5.91258e-05
5.94043e-05
5.95011e-05
5.94511e-05
5.87961e-05
5.76793e-05
5.6486e-05
5.53339e-05
5.42834e-05
5.31194e-05
5.14773e-05
4.94191e-05
4.73963e-05
4.5911e-05
4.44646e-05
4.23093e-05
4.05874e-05
3.90501e-05
3.72633e-05
3.56543e-05
3.39952e-05
3.23397e-05
3.06439e-05
2.89071e-05
2.71173e-05
2.52798e-05
2.3331e-05
2.12279e-05
1.90218e-05
1.67855e-05
1.46061e-05
1.25771e-05
1.07583e-05
9.11775e-06
7.66e-06
6.38974e-06
5.29494e-06
4.36089e-06
3.57164e-06
2.91072e-06
2.364e-06
1.91318e-06
1.54456e-06
1.24648e-06
1.00577e-06
8.12109e-07
6.57035e-07
5.33378e-07
4.34952e-07
3.56422e-07
2.9334e-07
2.42155e-07
2.0016e-07
1.6537e-07
1.36353e-07
1.1206e-07
9.16996e-08
7.46524e-08
6.04176e-08
4.85803e-08
3.87897e-08
3.07437e-08
2.4179e-08
1.88645e-08
1.45972e-08
1.11993e-08
8.51668e-09
6.41736e-09
4.78939e-09
3.53875e-09
2.58732e-09
1.87091e-09
1.33736e-09
9.4468e-10
6.59308e-10
4.54599e-10
3.09646e-10
2.08315e-10
1.3839e-10
9.07697e-11
5.87694e-11
3.75567e-11
2.36857e-11
1.47408e-11
9.05118e-12
5.48368e-12
3.27655e-12
1.93195e-12
1.12204e-12
6.43812e-13
3.62436e-13
2.02422e-13
1.09373e-13
6.1482e-14
2.63009e-14
5.07792e-14
5.28533e-13
2.47028e-10
1.21371e-07
4.00213e-07
0.000220079
0.000541454
0.000792917
0.000789327
0.000799645
0.000870162
0.000948608
0.000941659
0.000915098
0.000851173
0.000835961
0.000854533
0.000898615
0.000964961
0.00106
0.00111829
0.00112855
0.00112304
0.00110615
0.00108268
0.00104071
0.00100559
0.000947108
0.000864015
0.000787305
0.000738756
0.000705306
0.000680648
0.000618632
0.000618785
0.000659841
0.000797301
0.00104203
0.00137815
0.00147595
0.0014204
0.00145127
0.00191919
0.00306964
0.00379543
0.00819687
0.0177368
0.019919
0.0156159
0.00611218
0.00119933
0.000504479
0.000379113
0.000347684
0.000318014
0.00027767
0.000235853
0.000207474
0.000183096
0.000165993
0.000157662
0.000153467
0.00015154
0.000151155
0.000153819
0.000154939
0.000156287
0.000157243
0.00015807
0.000158991
0.000159634
0.000159816
0.000159603
0.000158929
0.000158913
0.000159269
0.00016008
0.000161377
0.000163085
0.000164994
0.000166872
0.000168796
0.000171061
0.000173624
0.000176405
0.000179164
0.000180977
0.000181684
0.000181869
0.000180706
0.000177704
0.000174734
0.000170564
0.000165559
0.000159976
0.000153054
0.000145498
0.000137499
0.000130188
0.00012312
0.000115514
0.000109625
0.000103251
9.76054e-05
9.23788e-05
8.76592e-05
8.33321e-05
7.92513e-05
7.53178e-05
7.14919e-05
6.78086e-05
6.43292e-05
6.10377e-05
5.78107e-05
5.45254e-05
5.10648e-05
4.73131e-05
4.31979e-05
3.88242e-05
3.441e-05
3.02516e-05
2.64543e-05
2.29624e-05
1.97609e-05
1.68624e-05
1.42822e-05
1.20313e-05
1.01001e-05
8.46257e-06
7.09117e-06
5.95664e-06
5.02857e-06
4.27455e-06
3.66255e-06
3.16346e-06
2.75233e-06
2.40775e-06
2.11193e-06
1.8514e-06
1.61738e-06
1.40505e-06
1.21217e-06
1.03777e-06
8.81298e-07
7.42142e-07
6.19554e-07
5.12615e-07
4.20284e-07
3.41419e-07
2.74794e-07
2.1912e-07
1.73079e-07
1.35378e-07
1.04828e-07
8.03405e-08
6.09214e-08
4.5685e-08
3.38562e-08
2.47766e-08
1.78968e-08
1.27579e-08
8.97665e-09
6.23316e-09
4.27024e-09
2.88569e-09
1.92316e-09
1.26383e-09
8.18846e-10
5.23033e-10
3.29293e-10
2.04361e-10
1.24964e-10
7.53409e-11
4.47138e-11
2.61935e-11
1.50582e-11
8.5829e-12
4.7192e-12
2.72855e-12
1.18322e-12
3.63706e-12
3.8232e-12
1.32449e-10
2.28893e-08
5.98248e-08
0.00111245
0.00186599
0.00198653
0.00133322
0.000860203
0.000715468
0.000701064
0.000720959
0.000784589
0.000877433
0.00103182
0.00138244
0.00168026
0.00187793
0.00205581
0.00215084
0.00214962
0.00213075
0.00209142
0.0020222
0.00194393
0.00185901
0.00175814
0.00160013
0.00143585
0.00124164
0.00103287
0.00088805
0.000769951
0.000694921
0.000685962
0.000696118
0.000733647
0.000768989
0.000766164
0.000823585
0.00123665
0.00255632
0.00770034
0.0103346
0.0107641
0.0116589
0.00632797
0.00235014
0.000852363
0.000345673
0.00025932
0.000233401
0.000221569
0.000210505
0.000204268
0.000196627
0.000192965
0.000190869
0.000190636
0.000197296
0.000203075
0.000211044
0.000219629
0.000223995
0.000230316
0.000234367
0.00023851
0.000243839
0.000247712
0.000250756
0.000253404
0.000255396
0.000257478
0.00026014
0.000263406
0.000267853
0.000273189
0.000278777
0.000284398
0.000289754
0.000294328
0.000296088
0.0002964
0.000296207
0.000295319
0.000293675
0.000291342
0.000288543
0.000285666
0.000283082
0.000280495
0.000277186
0.000273193
0.000268867
0.000263753
0.000257794
0.000250108
0.000240735
0.000229272
0.000214948
0.00019931
0.000182645
0.000166329
0.000150551
0.00013624
0.000123724
0.000113192
0.000104186
9.61821e-05
8.91724e-05
8.31795e-05
7.81799e-05
7.39836e-05
7.03034e-05
6.69158e-05
6.36894e-05
6.0607e-05
5.76213e-05
5.4526e-05
5.11911e-05
4.76376e-05
4.39275e-05
3.99992e-05
3.58281e-05
3.15072e-05
2.7214e-05
2.31468e-05
1.94599e-05
1.6184e-05
1.32922e-05
1.0801e-05
8.72347e-06
7.04644e-06
5.72932e-06
4.71467e-06
3.93992e-06
3.34692e-06
2.88693e-06
2.52198e-06
2.2241e-06
1.97346e-06
1.7564e-06
1.56361e-06
1.38896e-06
1.22862e-06
1.08029e-06
9.42762e-07
8.15614e-07
6.98971e-07
5.93035e-07
4.97973e-07
4.13787e-07
3.4019e-07
2.76647e-07
2.2246e-07
1.76821e-07
1.38866e-07
1.07707e-07
8.2464e-08
6.2291e-08
4.63973e-08
3.40626e-08
2.46384e-08
1.75528e-08
1.23126e-08
8.50218e-09
5.77827e-09
3.86467e-09
2.54298e-09
1.64627e-09
1.04782e-09
6.56463e-10
4.03855e-10
2.45231e-10
1.45588e-10
8.57868e-11
4.8689e-11
2.88729e-11
1.36913e-11
9.62631e-12
4.00348e-11
4.08004e-11
1.2102e-09
4.25622e-09
0.000716448
0.00417799
0.0029371
0.00145195
0.000819889
0.00065008
0.000651181
0.000702766
0.000873847
0.00118083
0.00164271
0.00203577
0.00220735
0.00238062
0.00252835
0.00262557
0.00271414
0.00278521
0.00279297
0.00278023
0.00274299
0.0026543
0.00254095
0.00233676
0.0020925
0.00187232
0.00168591
0.0014604
0.00123013
0.00102389
0.000834703
0.000735511
0.000705948
0.000701735
0.00074496
0.00139801
0.00546797
0.00805997
0.00831546
0.00839804
0.00577541
0.00267349
0.00122722
0.000546257
0.000326434
0.000270483
0.000256707
0.000249871
0.000248324
0.00025085
0.00025949
0.000274012
0.000293607
0.000313463
0.000322791
0.000327362
0.000328799
0.000328543
0.000326031
0.000325362
0.000325155
0.000325372
0.000326987
0.000329174
0.000330964
0.000333273
0.000335908
0.000339306
0.000343456
0.000348042
0.000352447
0.000355616
0.000356619
0.000356755
0.000356096
0.000353613
0.000349527
0.000344612
0.000338891
0.000332483
0.000325757
0.000319054
0.000312406
0.000306189
0.000300909
0.000297226
0.000294827
0.000292756
0.000290729
0.000288896
0.000287361
0.000285919
0.000283911
0.000281081
0.000277346
0.000271961
0.000265587
0.000256536
0.000244537
0.00022985
0.000213089
0.000194821
0.000175994
0.000157629
0.000140417
0.000124332
0.000109545
9.67896e-05
8.73274e-05
8.04768e-05
7.55162e-05
7.17916e-05
6.875e-05
6.61101e-05
6.38156e-05
6.17347e-05
5.97841e-05
5.79319e-05
5.60559e-05
5.39062e-05
5.12315e-05
4.79489e-05
4.40859e-05
3.96602e-05
3.47207e-05
2.94173e-05
2.40148e-05
1.88936e-05
1.44135e-05
1.07587e-05
7.9713e-06
5.95766e-06
4.53925e-06
3.54147e-06
2.83303e-06
2.32361e-06
1.95141e-06
1.67351e-06
1.45978e-06
1.28919e-06
1.14739e-06
1.02503e-06
9.16277e-07
8.17398e-07
7.25879e-07
6.40327e-07
5.60053e-07
4.84928e-07
4.15269e-07
3.51541e-07
2.94109e-07
2.43144e-07
1.98602e-07
1.60246e-07
1.27686e-07
1.00431e-07
7.79431e-08
5.96701e-08
4.50454e-08
3.35163e-08
2.45662e-08
1.7728e-08
1.25888e-08
8.79264e-09
6.03799e-09
4.07591e-09
2.70427e-09
1.76368e-09
1.13025e-09
7.1172e-10
4.40378e-10
2.67215e-10
1.60125e-10
9.23383e-11
5.54437e-11
2.72517e-11
2.0467e-11
1.18955e-11
4.74301e-11
2.3433e-10
0.000885378
0.00390449
0.00209728
0.000900215
0.00064047
0.00062144
0.000676795
0.00089605
0.00138688
0.00172586
0.00197538
0.00224263
0.00233104
0.00250647
0.00267613
0.00277191
0.00300758
0.00315367
0.00332099
0.00338107
0.00337327
0.00332804
0.00322027
0.00298333
0.00263366
0.00230958
0.00203121
0.00169601
0.00148822
0.00129231
0.00104998
0.0008639
0.00073781
0.0007606
0.00175335
0.00607918
0.00703291
0.00721356
0.00553213
0.00307233
0.00168256
0.000762912
0.000453715
0.000352099
0.000330481
0.000330474
0.000363016
0.000378825
0.000386848
0.000389271
0.000383397
0.000382647
0.000381703
0.00037458
0.000366551
0.00036096
0.000354522
0.000351699
0.000349932
0.0003489
0.000348571
0.000348819
0.000350465
0.000352054
0.000353698
0.000355648
0.000358355
0.000362113
0.000367195
0.000372297
0.000373788
0.000373862
0.000372872
0.000369874
0.000364667
0.000358459
0.000351474
0.000343278
0.000332495
0.000319409
0.000306251
0.000294181
0.000284004
0.000276006
0.000270116
0.000267566
0.000266818
0.000266766
0.000267172
0.000267448
0.000267405
0.00026666
0.000265841
0.00026622
0.000266948
0.000267128
0.000266413
0.000263599
0.000257276
0.000247582
0.000235652
0.000222023
0.000206905
0.000191083
0.000175297
0.000160021
0.00014537
0.000130568
0.00011452
9.91948e-05
8.71105e-05
7.90838e-05
7.35967e-05
6.9721e-05
6.68436e-05
6.45498e-05
6.25626e-05
6.07661e-05
5.91914e-05
5.78321e-05
5.64659e-05
5.47078e-05
5.23676e-05
4.96344e-05
4.68165e-05
4.3925e-05
4.06536e-05
3.65845e-05
3.16002e-05
2.61474e-05
2.08703e-05
1.62238e-05
1.23613e-05
9.28684e-06
6.92204e-06
5.14883e-06
3.8435e-06
2.89638e-06
2.21744e-06
1.73516e-06
1.39368e-06
1.1502e-06
9.72797e-07
8.38658e-07
7.32492e-07
6.4446e-07
5.67621e-07
4.97237e-07
4.30764e-07
3.68655e-07
3.11597e-07
2.60083e-07
2.14391e-07
1.74558e-07
1.40408e-07
1.11593e-07
8.76348e-08
6.79683e-08
5.20359e-08
3.93083e-08
2.92863e-08
2.15108e-08
1.55689e-08
1.10988e-08
7.78979e-09
5.38087e-09
3.65642e-09
2.44317e-09
1.60509e-09
1.03636e-09
6.5775e-10
4.09646e-10
2.51158e-10
1.50135e-10
8.95717e-11
5.01277e-11
3.08999e-11
1.42163e-11
1.29537e-11
1.8079e-11
0.00192894
0.0017827
0.00105999
0.000678161
0.000618284
0.000662971
0.000853222
0.00133704
0.00165419
0.00187845
0.00207115
0.00235816
0.00260938
0.00313308
0.00364399
0.00392658
0.00463216
0.00504057
0.00568389
0.00598466
0.00590258
0.00562508
0.00509955
0.00441661
0.00360654
0.00308057
0.00268492
0.00229958
0.00184887
0.0014438
0.00128599
0.000950589
0.000819469
0.00156649
0.00539109
0.00636574
0.00620182
0.00399506
0.00202449
0.00108863
0.000635688
0.000439451
0.000394889
0.000389065
0.000459217
0.000499576
0.00051528
0.000517344
0.00050068
0.000468771
0.000456228
0.000448302
0.000434287
0.000419351
0.000412468
0.00040654
0.000400079
0.000395133
0.000389173
0.000387194
0.000387224
0.000389336
0.000391821
0.000392718
0.00039291
0.000392571
0.000392626
0.000393298
0.00039372
0.000392877
0.000390676
0.000386935
0.00038088
0.000374134
0.000364665
0.000354727
0.000342184
0.00032603
0.000313246
0.000300405
0.000290368
0.000282447
0.000276013
0.000270917
0.000268221
0.000267735
0.000268305
0.000269386
0.000270038
0.000270081
0.000268918
0.000265719
0.000260875
0.000255572
0.000251013
0.000247084
0.0002441
0.000241028
0.00023913
0.000236427
0.000231182
0.000222809
0.000210289
0.000196327
0.000181782
0.00016755
0.000154331
0.000142526
0.000131797
0.000120679
0.000107734
9.39394e-05
8.3063e-05
7.56805e-05
7.05513e-05
6.69229e-05
6.42526e-05
6.21171e-05
6.02845e-05
5.87273e-05
5.74867e-05
5.6464e-05
5.5272e-05
5.34465e-05
5.09162e-05
4.81671e-05
4.56439e-05
4.34419e-05
4.12407e-05
3.83913e-05
3.44011e-05
2.94004e-05
2.40499e-05
1.90115e-05
1.46489e-05
1.1063e-05
8.21906e-06
6.01649e-06
4.34675e-06
3.11217e-06
2.22367e-06
1.60082e-06
1.17428e-06
8.87199e-07
6.94915e-07
5.64067e-07
4.72116e-07
4.05036e-07
3.54106e-07
3.11697e-07
2.72769e-07
2.35241e-07
1.99634e-07
1.66679e-07
1.36929e-07
1.1071e-07
8.81251e-08
6.90944e-08
5.33781e-08
4.0638e-08
3.04899e-08
2.25418e-08
1.6419e-08
1.1779e-08
8.32034e-09
5.78461e-09
3.95712e-09
2.66202e-09
1.7606e-09
1.14351e-09
7.30122e-10
4.56655e-10
2.81612e-10
1.68593e-10
1.01447e-10
5.64034e-11
3.51267e-11
1.73689e-11
1.27643e-11
9.54742e-12
0.000961363
0.00108973
0.000843285
0.00065078
0.000666296
0.000766577
0.00113592
0.00152528
0.00176278
0.00202738
0.00251817
0.00334718
0.0041261
0.00486625
0.00541912
0.00616982
0.00795737
0.009288
0.0106789
0.0119158
0.0118909
0.0114458
0.0103335
0.00777357
0.0054823
0.00399027
0.00309342
0.00249971
0.00197052
0.00168389
0.00133246
0.000964079
0.00132203
0.00458852
0.0056579
0.00568812
0.00343917
0.00162667
0.000871569
0.000556497
0.000440172
0.000411759
0.000431517
0.000527717
0.000574065
0.000587701
0.000589391
0.000571015
0.000530164
0.000510118
0.000501263
0.00049476
0.000490371
0.000488859
0.000494298
0.000503576
0.000513388
0.000525556
0.000533032
0.000536115
0.000536153
0.000529198
0.000528379
0.000527786
0.000516749
0.000492111
0.000468978
0.000457779
0.000446287
0.000426147
0.000412015
0.000402306
0.000387806
0.00038082
0.000366596
0.000354917
0.000342007
0.000323793
0.000312969
0.000301904
0.00029656
0.000295709
0.000297518
0.000300897
0.000303763
0.000307342
0.000310268
0.000313334
0.000315875
0.00031694
0.000316172
0.00031255
0.000304715
0.000293648
0.000280074
0.000266005
0.000252651
0.000240142
0.000227845
0.000218229
0.000208233
0.000198959
0.000192022
0.000185697
0.000178149
0.00016708
0.000155035
0.00014336
0.000133304
0.000124601
0.000116305
0.000107215
9.62542e-05
8.5196e-05
7.67607e-05
7.08001e-05
6.65619e-05
6.35208e-05
6.12037e-05
5.92859e-05
5.76932e-05
5.64928e-05
5.56491e-05
5.48555e-05
5.35883e-05
5.13967e-05
4.84834e-05
4.558e-05
4.32129e-05
4.14682e-05
3.99742e-05
3.80216e-05
3.49812e-05
3.07438e-05
2.57858e-05
2.07974e-05
1.62743e-05
1.24144e-05
9.24731e-06
6.72078e-06
4.76423e-06
3.30134e-06
2.24734e-06
1.5153e-06
1.02442e-06
7.05624e-07
5.03755e-07
3.77205e-07
2.96467e-07
2.4294e-07
2.06046e-07
1.7914e-07
1.56673e-07
1.35456e-07
1.15032e-07
9.58457e-08
7.834e-08
6.2833e-08
4.94774e-08
3.82709e-08
2.9092e-08
2.17408e-08
1.59762e-08
1.15455e-08
8.20532e-09
5.73416e-09
3.93979e-09
2.66055e-09
1.76553e-09
1.15074e-09
7.36521e-10
4.62537e-10
2.85202e-10
1.72232e-10
1.02285e-10
5.91744e-11
3.38539e-11
1.89345e-11
1.03044e-11
5.89863e-12
0.000755924
0.00110691
0.000822844
0.000698258
0.000724628
0.000856545
0.00127593
0.00161557
0.00207633
0.00284734
0.0039753
0.0047615
0.00538434
0.00592006
0.0070482
0.00952604
0.0130302
0.0155184
0.0177389
0.0188823
0.0187814
0.0181425
0.0166356
0.0144797
0.0104639
0.00662298
0.00413638
0.00280494
0.00211294
0.00169383
0.00126824
0.00122795
0.00367982
0.00501439
0.0051629
0.00329813
0.00150209
0.000788824
0.000516832
0.00042622
0.000406693
0.000432576
0.00053048
0.000594934
0.000614032
0.000618175
0.000608976
0.000577006
0.000551958
0.000545351
0.000547296
0.00056575
0.00058914
0.000622911
0.000664311
0.000715637
0.000774945
0.000837518
0.000893782
0.000919877
0.000929101
0.000921036
0.000874661
0.000857731
0.000835618
0.000765634
0.000669757
0.000608848
0.000576491
0.000521038
0.000468485
0.000443502
0.000412426
0.00039709
0.000380005
0.000362651
0.000353576
0.000335395
0.000326463
0.00032205
0.000320713
0.000319333
0.000315637
0.000313941
0.000313544
0.000314643
0.000315303
0.000316675
0.000318631
0.00032031
0.000320766
0.000319719
0.000315121
0.00030814
0.000299668
0.000290737
0.000282039
0.000273219
0.000262098
0.000242564
0.000216474
0.000192221
0.000172621
0.000156733
0.000147742
0.000147018
0.000146601
0.000138927
0.000128451
0.00011992
0.000114206
0.000109053
0.000102276
9.41599e-05
8.49978e-05
7.66742e-05
7.03759e-05
6.57084e-05
6.23287e-05
5.98611e-05
5.79444e-05
5.63986e-05
5.52332e-05
5.44774e-05
5.39221e-05
5.31068e-05
5.14843e-05
4.88089e-05
4.56036e-05
4.26752e-05
4.05038e-05
3.91255e-05
3.81291e-05
3.68141e-05
3.45236e-05
3.09859e-05
2.64704e-05
2.16326e-05
1.70653e-05
1.30485e-05
9.67173e-06
6.93988e-06
4.81992e-06
3.24628e-06
2.12843e-06
1.36713e-06
8.68997e-07
5.55022e-07
3.63615e-07
2.49821e-07
1.82509e-07
1.41637e-07
1.15783e-07
9.87884e-08
8.60189e-08
7.44486e-08
6.32041e-08
5.2495e-08
4.26282e-08
3.38536e-08
2.63105e-08
2.00264e-08
1.49393e-08
1.09289e-08
7.8441e-09
5.52543e-09
3.82063e-09
2.59343e-09
1.72814e-09
1.13034e-09
7.25627e-10
4.57041e-10
2.82403e-10
1.71093e-10
1.01636e-10
5.9159e-11
3.37063e-11
1.88863e-11
1.031e-11
5.5554e-12
0.000861424
0.00138413
0.000885104
0.000747729
0.000763221
0.000934967
0.00143114
0.00201491
0.00294609
0.00403865
0.00476978
0.00537737
0.0061074
0.00744595
0.0103105
0.0141005
0.017502
0.020292
0.022167
0.0234127
0.023547
0.0231117
0.0213934
0.0172157
0.0114163
0.00670914
0.00405589
0.00271999
0.00206071
0.00159671
0.00137408
0.00282767
0.0044629
0.00470143
0.00335761
0.00148353
0.000768638
0.000499493
0.000412252
0.00039367
0.000410051
0.000476717
0.000580959
0.000615113
0.000624279
0.00062342
0.000611637
0.000593588
0.000588468
0.000605937
0.000643804
0.000712568
0.000799999
0.000915471
0.00104895
0.00120286
0.00137129
0.00154073
0.00171158
0.00183768
0.00188832
0.00189547
0.00176995
0.00162112
0.0015607
0.00145026
0.0012239
0.000998806
0.000899766
0.000796686
0.000639721
0.000562502
0.000505038
0.000445266
0.000416156
0.000388267
0.000374986
0.000361493
0.000354374
0.00034712
0.000339571
0.000330255
0.000320875
0.000312392
0.000302476
0.0002913
0.000280104
0.000270089
0.000261279
0.000253798
0.00024775
0.000242255
0.000237539
0.000233399
0.000232122
0.000236569
0.000247438
0.000262374
0.00027249
0.000276942
0.000273185
0.000249029
0.000202962
0.000160541
0.000133426
0.000118147
0.000114266
0.00012008
0.000122161
0.000115708
0.000105921
0.00010085
9.92907e-05
9.59218e-05
8.97467e-05
8.27877e-05
7.54976e-05
6.92525e-05
6.43517e-05
6.06702e-05
5.80328e-05
5.61396e-05
5.47398e-05
5.36975e-05
5.30528e-05
5.26468e-05
5.20626e-05
5.08366e-05
4.85596e-05
4.54676e-05
4.2287e-05
3.96493e-05
3.78689e-05
3.68844e-05
3.6281e-05
3.54088e-05
3.3594e-05
3.04876e-05
2.62283e-05
2.14378e-05
1.68195e-05
1.27152e-05
9.25891e-06
6.49167e-06
4.38708e-06
2.86446e-06
1.81319e-06
1.11818e-06
6.76987e-07
4.07482e-07
2.48726e-07
1.58141e-07
1.07439e-07
7.87408e-08
6.19112e-08
5.17441e-08
4.48207e-08
3.88107e-08
3.2928e-08
2.72437e-08
2.19558e-08
1.72407e-08
1.32036e-08
9.87251e-09
7.21457e-09
5.1573e-09
3.60889e-09
2.47345e-09
1.66105e-09
1.09328e-09
7.05365e-10
4.46129e-10
2.76591e-10
1.68108e-10
1.00117e-10
5.84559e-11
3.34147e-11
1.87307e-11
1.0276e-11
5.5357e-12
0.000927856
0.0016618
0.000976182
0.000821595
0.000788551
0.00106633
0.00178167
0.00262809
0.00368368
0.0046003
0.0052367
0.00586411
0.0068616
0.00870675
0.0118223
0.0157302
0.0191424
0.0222244
0.0241285
0.0243238
0.0239888
0.0230433
0.0207425
0.0160784
0.0103938
0.00604195
0.00362282
0.0024158
0.00185555
0.00164847
0.00224663
0.00396005
0.00431159
0.00358566
0.00155516
0.000775811
0.000499124
0.000408212
0.000387412
0.000390408
0.000424834
0.000519538
0.000582312
0.000617176
0.000627103
0.000627703
0.000626057
0.000631948
0.000662482
0.000732169
0.00084589
0.001019
0.00125385
0.00156599
0.00194628
0.00239207
0.00288326
0.00337136
0.00381837
0.00418341
0.00440098
0.00447014
0.00426861
0.00373842
0.00336181
0.00307535
0.00267803
0.00209906
0.00174572
0.00150468
0.00115384
0.000935789
0.000748474
0.000615575
0.000511175
0.000457472
0.000419843
0.000401462
0.000389135
0.000380472
0.000371374
0.000360528
0.000347565
0.000330159
0.000311294
0.000293163
0.000276623
0.000261724
0.00024777
0.000233913
0.000219328
0.00020327
0.000185321
0.000165822
0.000146247
0.000129967
0.00012335
0.000131555
0.000169347
0.000226624
0.000273472
0.000288023
0.000283477
0.00024425
0.000172628
0.000122844
0.000101058
9.44076e-05
9.79915e-05
0.000105251
0.000103662
9.47771e-05
8.8733e-05
8.78242e-05
8.76728e-05
8.52541e-05
7.93209e-05
7.33827e-05
6.76479e-05
6.27246e-05
5.87556e-05
5.58316e-05
5.38356e-05
5.25926e-05
5.18378e-05
5.14281e-05
5.11502e-05
5.06902e-05
4.96801e-05
4.76136e-05
4.4724e-05
4.15974e-05
3.88391e-05
3.6803e-05
3.55266e-05
3.48223e-05
3.43567e-05
3.37011e-05
3.23358e-05
2.93134e-05
2.49401e-05
2.0058e-05
1.54244e-05
1.13709e-05
8.04023e-06
5.45987e-06
3.56878e-06
2.2515e-06
1.37527e-06
8.16566e-07
4.74157e-07
2.72035e-07
1.56895e-07
9.34462e-08
5.94104e-08
4.12301e-08
3.13077e-08
2.57952e-08
2.23413e-08
1.9399e-08
1.64465e-08
1.35314e-08
1.07933e-08
8.3544e-09
6.2848e-09
4.60231e-09
3.28538e-09
2.28893e-09
1.55788e-09
1.03662e-09
6.74761e-10
4.29853e-10
2.6808e-10
1.6372e-10
9.79179e-11
5.73641e-11
3.29142e-11
1.85021e-11
1.01867e-11
5.50658e-12
0.00100346
0.00198272
0.0010913
0.000892516
0.000816627
0.00131322
0.00215261
0.00305886
0.00424106
0.00495345
0.00541666
0.00600589
0.00702645
0.0089459
0.0119933
0.015463
0.018364
0.0208494
0.0222145
0.0226741
0.022186
0.02063
0.017396
0.0122019
0.00723524
0.00413608
0.00264605
0.00206127
0.00188602
0.0021308
0.0035292
0.00393541
0.00368206
0.00172388
0.000820916
0.000514879
0.00041596
0.00039003
0.000386497
0.000401516
0.000464822
0.000527231
0.000574683
0.000611497
0.000630836
0.00064353
0.000664631
0.000712254
0.000807633
0.000974544
0.00123521
0.0016247
0.00218034
0.00294655
0.00393983
0.00511308
0.00637539
0.00755967
0.0085308
0.00906843
0.00928427
0.00920881
0.00879573
0.00786635
0.00667378
0.00574166
0.00488478
0.00403712
0.00335527
0.00280069
0.00230603
0.00191304
0.00154414
0.00122418
0.000946742
0.000728893
0.000588355
0.000514273
0.000479288
0.000464543
0.000461832
0.000463409
0.000456932
0.000439946
0.000415716
0.000389492
0.000365636
0.000345715
0.000328418
0.000310985
0.000290253
0.000263666
0.000229963
0.000192192
0.000156595
0.000125084
0.000102014
8.85079e-05
8.42654e-05
9.35691e-05
0.000147454
0.000244578
0.000290595
0.000293228
0.000271652
0.000193992
0.000121245
9.19726e-05
8.41335e-05
8.49088e-05
9.12506e-05
9.15835e-05
8.56322e-05
8.00128e-05
7.88185e-05
7.9047e-05
7.86862e-05
7.57436e-05
7.05507e-05
6.54138e-05
6.06992e-05
5.66543e-05
5.35039e-05
5.13218e-05
5.01371e-05
4.96805e-05
4.95068e-05
4.93514e-05
4.90365e-05
4.82716e-05
4.63634e-05
4.35214e-05
4.04561e-05
3.76869e-05
3.55631e-05
3.41683e-05
3.33776e-05
3.29484e-05
3.25743e-05
3.19141e-05
3.05006e-05
2.71998e-05
2.24559e-05
1.75083e-05
1.30206e-05
9.25626e-06
6.30268e-06
4.12149e-06
2.59587e-06
1.57927e-06
9.30756e-07
5.33121e-07
2.98053e-07
1.63834e-07
8.98539e-08
5.05436e-08
3.03383e-08
2.00846e-08
1.48258e-08
1.21335e-08
1.05773e-08
9.24444e-09
7.836e-09
6.39979e-09
5.03843e-09