/*--------------------------------*- C++ -*----------------------------------*\
  =========                 |
  \\      /  F ield         | OpenFOAM: The Open Source CFD Toolbox
   \\    /   O peration     | Website:  https://openfoam.org
    \\  /    A nd           | Version:  7
     \\/     M anipulation  |
\*---------------------------------------------------------------------------*/
FoamFile
{
    version     2.0;
    format      ascii;
    class       volScalarField;
    location    "0.058";
    object      nut;
}
// * * * * * * * * * * * * * * * * * * * * * * * * * * * * * * * * * * * * * //

dimensions      [0 2 -1 0 0 0 0];

internalField   nonuniform List<scalar> 
12225
(
0
0
0
0
0
0
0
0
0
0
0
0
0
0
0
0
0
0
0
0
0
0
0
0
0
0
0
0
0
0
0
0
0
0
0
0
0
1.48538e-09
2.27205e-13
0
0
0
0
0
0
0
0
0
0
0
0
0
0
0
2.11226e-09
2.53269e-08
1.0264e-08
1.37795e-09
0
0
0
0
0
0
0
0
0
0
0
0
0
0
7.33044e-08
1.41733e-07
3.10516e-07
1.65999e-07
0
0
0
0
0
0
0
4.6855e-10
7.51659e-10
4.44782e-10
1.06467e-10
0
0
0
3.21566e-07
1.3577e-07
2.21707e-07
1.10514e-07
0
0
0
0
1.28234e-08
2.35873e-08
2.00836e-08
1.73855e-08
1.40118e-08
9.0687e-09
3.38998e-09
0
0
0
2.22969e-07
1.03149e-07
2.85889e-07
1.8051e-07
0
0
0
0
7.19566e-08
4.44436e-07
2.94075e-07
1.33621e-07
4.21291e-08
0
0
0
0
0
1.13203e-07
2.76114e-07
4.8926e-07
3.59928e-07
1.62019e-07
5.26906e-08
0
0
0
9.17489e-08
1.08962e-07
1.21113e-07
1.07257e-07
6.52744e-08
1.67846e-08
0
0
0
3.10478e-07
4.78992e-07
7.51679e-07
4.73778e-07
1.51983e-07
0
0
0
0
0
0
4.10849e-08
9.61233e-08
1.22997e-07
1.28139e-07
1.55585e-07
2.38666e-07
2.94175e-07
3.44885e-07
4.85333e-07
7.5831e-07
5.14386e-07
1.0114e-07
0
0
0
0
0
0
0
0
5.82166e-08
1.2964e-07
1.92247e-07
2.03525e-07
1.87305e-07
4.05008e-07
5.27117e-07
5.93544e-07
3.87587e-07
9.79923e-08
0
0
0
0
0
0
0
0
0
1.89605e-08
4.09385e-08
4.64349e-08
4.77201e-08
9.79209e-09
3.25923e-07
5.53931e-07
4.72866e-07
1.9413e-07
5.84743e-08
0
0
0
0
0
0
0
0
0
0
0
0
0
5.94986e-08
4.20214e-07
6.10424e-07
5.24973e-07
3.91194e-07
1.33831e-07
0
0
0
0
0
0
0
0
0
0
0
0
0
1.57211e-07
2.28687e-07
0
0
0
0
0
0
0
0
0
0
0
0
0
0
0
0
2.77394e-07
0
0
0
0
0
0
0
0
0
0
0
0
0
0
0
0
0
1.00598e-07
0
0
0
0
0
0
0
1.28806e-07
2.62854e-07
1.00076e-07
0
0
0
0
0
0
5.55934e-08
4.71452e-07
6.97106e-08
0
0
0
1.11831e-07
0
0
2.3198e-07
1.21964e-08
0
0
0
1.58139e-07
2.06135e-07
1.96602e-07
0
7.24307e-09
6.2128e-07
1.86034e-07
0
0
1.09432e-07
1.71869e-07
0
9.48911e-09
4.59617e-08
0
0
0
0
1.07741e-07
2.20817e-07
2.60024e-07
5.57497e-07
7.5097e-07
7.13037e-07
0
0
0
9.68887e-08
0
0
0
2.35537e-08
0
0
0
0
0
0
0
6.60134e-07
5.41773e-07
4.4507e-07
0
0
0
0
2.20802e-08
0
0
4.78245e-08
6.89134e-08
8.71239e-08
1.07134e-07
9.80531e-08
7.10429e-08
6.1443e-08
7.35427e-08
3.73555e-07
4.96544e-08
0
0
0
0
0
0
0
0
0
0
9.64836e-08
1.503e-07
1.36054e-07
1.07708e-07
8.32298e-08
5.99747e-08
2.61811e-08
0
0
0
0
0
0
0
0
0
1.83876e-08
1.92094e-07
3.42344e-07
3.96602e-07
3.72754e-07
3.08464e-07
2.25445e-07
1.40367e-07
3.09095e-07
3.13055e-08
0
0
0
0
0
0
0
0
0
3.62536e-08
2.10085e-07
3.65043e-07
4.60658e-07
4.76181e-07
4.1931e-07
3.32104e-07
5.54716e-08
1.73934e-08
0
0
2.72654e-08
3.04032e-08
2.48606e-08
1.11264e-09
0
0
0
0
0
0
2.99929e-08
1.45659e-07
2.24228e-07
2.57676e-07
6.22521e-08
2.58327e-09
0
4.36842e-09
1.28292e-07
9.17557e-08
2.63046e-09
0
0
0
0
0
0
0
0
0
0
3.36445e-08
1.11157e-07
4.54735e-08
0
8.49699e-08
1.52409e-07
3.4511e-08
0
0
0
0
0
0
0
0
0
0
0
0
0
0
0
0
0
0
0
0
0
0
0
0
0
0
0
0
0
0
7.14548e-09
0
0
0
0
0
0
0
0
0
0
0
0
0
0
0
0
0
7.77843e-09
0
0
0
0
0
0
0
0
0
0
0
0
0
0
0
0
0
6.42345e-08
0
0
0
0
0
0
0
0
0
0
0
0
0
0
0
0
0
0
0
0
0
1.39366e-07
4.88886e-07
4.21123e-07
1.69239e-07
0
0
0
0
0
0
0
0
0
0
0
0
1.19103e-08
3.38856e-08
5.10768e-08
6.26782e-08
6.50899e-08
5.56625e-08
3.02733e-08
0
0
4.97121e-08
1.48551e-07
1.72811e-07
0
0
0
0
4.59367e-07
2.82446e-06
5.01671e-06
6.45112e-06
7.99066e-06
1.07201e-05
1.6304e-05
2.48453e-05
1.4473e-05
2.4662e-06
3.89111e-07
5.0458e-08
0
0
2.4173e-08
4.04225e-08
4.5954e-08
4.49695e-08
3.85064e-08
3.08615e-08
2.45938e-08
1.77418e-08
1.2434e-08
8.26079e-09
5.2527e-09
2.83049e-09
8.49204e-10
0
0
0
0
0
0
0
0
0
0
0
0
0
0
0
0
0
0
0
0
0
0
0
0
0
0
0
0
0
0
0
0
0
0
0
0
0
0
0
0
0
0
0
0
0
0
0
0
0
0
0
0
0
0
0
0
0
0
0
0
0
0
0
0
0
0
0
0
0
0
0
0
0
0
0
0
0
0
0
0
0
0
0
0
0
0
0
0
0
0
0
0
0
0
0
0
0
0
0
0
0
0
0
0
0
0
0
0
0
0
0
0
0
0
0
5.4196e-11
3.35769e-11
0
0
0
0
2.9294e-07
6.19852e-07
7.56257e-07
6.55964e-07
4.17992e-07
1.52562e-07
0
0
0
0
0
0
0
0
0
0
2.1023e-08
5.52201e-08
7.86706e-08
8.72417e-08
8.23392e-08
6.14432e-08
3.49702e-08
1.25897e-08
5.16087e-08
2.39307e-07
4.09123e-07
4.1941e-07
3.11813e-07
2.44321e-07
0
0
0
0
0
0
0
4.00422e-07
2.71386e-07
6.45956e-07
1.02477e-06
5.48139e-07
2.26355e-07
4.69928e-08
0
0
1.82527e-08
2.86756e-08
3.25629e-08
3.20621e-08
2.96125e-08
2.65608e-08
2.313e-08
1.94897e-08
1.57835e-08
1.21804e-08
8.54446e-09
5.00294e-09
1.57872e-09
0
0
0
0
0
0
0
0
0
0
0
0
0
0
0
0
0
0
0
0
0
0
0
0
0
0
0
0
0
0
0
0
0
0
0
0
0
0
0
0
0
0
0
0
0
0
0
0
0
0
0
0
0
0
0
0
0
0
0
0
0
0
0
0
0
0
0
0
0
0
0
0
0
0
0
0
0
0
0
0
0
0
0
0
0
0
0
0
0
0
0
0
0
0
0
0
0
0
0
0
0
0
0
0
0
0
0
0
0
0
0
0
0
0
2.38556e-13
5.69937e-11
0
1.7403e-06
9.89362e-07
1.55381e-07
9.4059e-08
3.04763e-07
5.63631e-07
7.06924e-07
7.49628e-07
7.72348e-07
7.93499e-07
8.22745e-07
8.87921e-07
8.75942e-07
7.7269e-07
6.02279e-07
3.81217e-07
1.68662e-07
2.65847e-08
0
0
0
0
0
0
0
0
0
0
3.95719e-08
3.76762e-07
6.37117e-07
5.81418e-07
3.6821e-07
1.31696e-07
0
0
0
0
0
0
0
1.21961e-07
1.02387e-07
0
8.20153e-08
1.31909e-07
7.42272e-08
0
0
9.58857e-09
4.60623e-08
7.13618e-08
8.42959e-08
8.66849e-08
8.24234e-08
7.52439e-08
6.54626e-08
5.4931e-08
4.41601e-08
3.32586e-08
2.31099e-08
1.34814e-08
4.49615e-09
0
0
0
0
0
0
0
0
0
0
0
0
0
0
0
0
0
0
0
0
0
0
0
0
0
0
0
0
0
0
0
0
0
0
0
0
0
0
0
0
0
0
0
0
0
0
0
0
0
0
0
0
0
0
3.8166e-10
1.07211e-09
1.34523e-09
1.32779e-09
1.14098e-09
8.94092e-10
6.13331e-10
3.32639e-10
9.2072e-11
0
0
0
0
0
0
0
0
0
0
0
0
0
0
0
0
0
0
0
0
0
0
0
0
0
0
0
0
0
0
0
0
0
0
0
0
0
0
0
0
0
0
0
0
0
0
0
0
0
2.70993e-14
7.1932e-13
0
2.78972e-11
0
2.49712e-06
1.44473e-06
4.46149e-07
2.55082e-07
3.78899e-07
6.0692e-07
7.18879e-07
7.98967e-07
9.40212e-07
1.12725e-06
1.33813e-06
1.46622e-06
1.46062e-06
1.39266e-06
1.23858e-06
9.88267e-07
6.73412e-07
3.61288e-07
1.62358e-07
1.30905e-07
1.31194e-07
0
0
0
0
0
0
0
0
0
0
0
0
0
0
0
0
0
0
0
0
1.16583e-07
1.76089e-08
0
0
0
0
0
1.68524e-08
8.32544e-08
1.35801e-07
1.84508e-07
2.4164e-07
3.11755e-07
3.87751e-07
4.61988e-07
5.18329e-07
5.35112e-07
4.90212e-07
3.81906e-07
2.35197e-07
9.50056e-08
0
0
0
0
0
0
0
0
0
0
0
0
0
0
0
0
0
0
0
0
0
0
0
0
0
0
0
0
0
0
0
0
0
0
0
0
0
0
0
0
0
0
0
0
0
0
0
0
0
0
0
0
0
0
0
0
0
0
0
4.13383e-09
6.46182e-09
6.40323e-09
4.92543e-09
2.95032e-09
1.11669e-09
0
0
0
0
0
0
0
0
0
0
0
0
0
0
0
0
0
0
0
0
0
0
0
0
0
0
0
0
0
0
0
0
0
0
0
0
0
0
0
0
0
0
0
0
0
0
0
0
0
1.06576e-12
0
9.06549e-12
0
1.76124e-06
1.4427e-06
5.8106e-07
3.26708e-07
4.79937e-07
7.21086e-07
8.43545e-07
1.02849e-06
1.3032e-06
1.42969e-06
1.43912e-06
1.34702e-06
1.06763e-06
6.65497e-07
1.35279e-07
0
0
0
0
4.52434e-07
1.33859e-06
1.49732e-06
1.0334e-06
3.38302e-07
0
0
0
0
0
0
0
0
0
0
0
0
0
0
0
0
0
0
0
0
5.16041e-08
3.53743e-07
5.86821e-07
5.98058e-07
4.81217e-07
3.62074e-07
2.87417e-07
2.60162e-07
2.66378e-07
2.91573e-07
3.25478e-07
3.57942e-07
3.74896e-07
3.6479e-07
3.13223e-07
2.16986e-07
9.47964e-08
0
0
0
0
0
0
0
0
0
0
0
0
0
0
0
0
0
0
0
0
0
0
0
0
0
0
1.54597e-09
1.00106e-08
1.63579e-08
1.91202e-08
1.68806e-08
8.52986e-09
0
0
0
0
0
0
0
0
0
0
0
0
0
0
0
0
0
0
0
0
0
0
0
0
0
0
0
0
0
0
0
0
0
0
0
0
0
0
0
0
0
0
0
0
0
0
0
0
0
0
0
0
0
0
0
0
0
0
0
0
0
0
0
0
0
0
0
0
0
0
0
0
0
0
0
0
0
0
0
0
0
0
0
3.34915e-12
0
8.81598e-12
0
8.783e-07
7.82423e-07
5.30977e-07
4.62089e-07
7.17108e-07
8.57532e-07
1.01544e-06
1.2867e-06
1.38241e-06
1.29628e-06
9.78648e-07
3.91252e-07
0
0
0
0
0
0
0
1.60265e-06
3.87165e-06
4.20168e-06
3.23288e-06
1.83498e-06
5.78742e-07
0
0
0
0
0
0
0
0
0
0
0
0
0
0
0
0
0
3.565e-08
6.01314e-07
1.46216e-06
1.54924e-06
1.07019e-06
6.93344e-07
4.62947e-07
3.37401e-07
2.88921e-07
2.84664e-07
3.04803e-07
3.40055e-07
3.87244e-07
4.39849e-07
4.91598e-07
5.30255e-07
5.21221e-07
4.09379e-07
1.64216e-07
0
0
0
0
0
0
0
0
0
0
0
0
0
0
0
0
0
0
0
0
0
0
0
0
0
0
0
0
0
0
0
0
0
2.63575e-09
7.70555e-10
0
0
0
0
0
0
0
0
0
0
0
0
0
0
0
0
0
0
0
0
0
0
0
0
0
0
0
0
0
0
0
0
0
0
0
0
0
0
0
0
0
0
0
0
0
0
0
0
0
0
0
0
0
0
0
0
0
0
0
0
0
0
0
0
0
0
0
0
0
0
0
0
0
0
0
0
0
0
0
0
6.39816e-12
0
1.06317e-11
0
1.08369e-07
2.26114e-07
3.53658e-07
5.86572e-07
8.12289e-07
9.03532e-07
1.12184e-06
1.26902e-06
1.14273e-06
6.20259e-07
0
0
0
0
0
0
0
0
0
4.29116e-06
7.59123e-06
7.91715e-06
6.46334e-06
4.00416e-06
1.79874e-06
3.58021e-07
0
0
0
0
0
0
0
0
0
0
0
0
0
0
0
2.63362e-07
1.08414e-06
2.03891e-06
1.61014e-06
1.10297e-06
7.32359e-07
4.79791e-07
3.31295e-07
2.67921e-07
2.53335e-07
2.62622e-07
2.82515e-07
3.08849e-07
3.45072e-07
3.97215e-07
4.7424e-07
5.90746e-07
7.5585e-07
9.31477e-07
6.60732e-07
0
0
0
0
0
0
0
0
0
0
0
0
0
0
0
0
0
0
0
0
0
0
0
0
0
0
0
0
0
0
0
0
0
0
0
0
0
0
0
0
0
0
0
0
0
0
0
0
0
0
0
0
0
0
0
0
0
0
0
0
0
0
0
0
0
0
0
0
0
0
0
0
0
0
0
0
0
0
0
0
0
0
0
0
0
0
0
0
0
0
0
0
0
0
0
0
0
0
0
0
0
0
0
0
0
0
0
0
0
0
0
0
0
0
0
0
0
0
0
0
2.87633e-08
1.43628e-07
6.30718e-07
7.89621e-07
8.63739e-07
1.04373e-06
9.93422e-07
3.91857e-07
0
0
0
0
0
0
0
0
0
2.99699e-06
1.09273e-05
1.31994e-05
1.22593e-05
9.89868e-06
6.99547e-06
3.70225e-06
1.17334e-06
0
0
0
0
0
0
0
0
0
0
0
0
0
0
3.13624e-07
0
0
2.27889e-07
1.04658e-06
7.21077e-07
4.05878e-07
2.121e-07
1.21366e-07
8.94449e-08
8.05702e-08
7.45411e-08
6.52553e-08
5.78988e-08
5.96688e-08
7.74634e-08
1.17827e-07
1.86071e-07
2.7523e-07
3.26751e-07
1.45928e-07
0
0
0
0
2.14459e-08
6.82426e-08
8.44666e-08
8.40083e-08
7.15949e-08
5.48495e-08
3.84707e-08
2.26983e-08
9.47398e-09
0
0
0
0
0
0
0
0
0
0
0
0
0
0
0
0
0
0
0
0
0
0
0
0
0
0
0
0
0
0
0
0
0
0
0
0
0
0
0
0
0
0
0
0
0
0
0
0
0
0
0
0
0
0
0
0
0
0
0
0
0
0
0
0
0
0
0
0
0
0
0
0
0
0
0
0
0
0
0
0
0
0
0
0
0
0
0
0
0
0
0
0
0
0
0
0
0
0
0
0
0
0
0
0
0
0
0
0
3.28306e-08
6.28364e-07
6.95873e-07
7.31116e-07
7.94334e-07
3.60697e-07
0
0
0
0
0
0
0
0
0
7.93221e-06
1.7468e-05
1.99494e-05
1.92255e-05
1.67914e-05
1.34251e-05
9.32905e-06
5.00939e-06
1.7823e-06
2.22327e-07
0
0
0
0
0
0
0
0
0
0
0
0
0
0
0
0
7.43894e-07
6.29203e-07
2.63705e-07
5.77349e-08
0
0
0
0
0
0
0
0
0
0
5.13808e-08
1.2634e-07
1.19998e-07
0
0
0
0
0
6.63784e-08
1.25987e-07
1.46527e-07
1.53235e-07
1.46334e-07
1.25052e-07
1.04868e-07
8.25758e-08
5.96677e-08
4.11869e-08
2.67115e-08
1.71818e-08
1.11171e-08
6.94956e-09
3.72954e-09
9.28327e-10
0
0
0
0
0
0
0
0
0
0
0
0
0
0
0
0
0
0
0
0
0
0
0
0
0
0
0
0
0
0
0
0
0
0
0
0
0
0
0
0
0
0
0
0
0
0
0
0
0
0
0
0
0
0
0
0
0
0
0
0
0
0
0
0
0
0
0
0
0
0
0
0
0
0
0
0
0
0
0
0
0
0
0
0
0
0
0
0
0
0
0
0
0
0
0
0
0
0
0
0
0
0
4.89987e-07
4.69493e-07
4.48941e-07
2.98054e-07
0
0
6.68716e-06
1.17654e-05
1.32518e-05
1.1556e-05
9.4317e-06
1.0924e-05
1.85787e-05
2.87128e-05
2.82889e-05
2.5819e-05
2.48094e-05
2.40317e-05
2.19089e-05
1.81421e-05
1.27466e-05
6.62725e-06
2.12968e-06
1.96712e-07
0
0
0
0
0
0
0
0
0
0
0
0
0
0
0
0
5.47092e-07
1.94609e-07
0
0
0
0
0
0
0
0
0
0
0
6.61197e-08
1.96417e-07
2.91938e-07
2.27721e-07
0
0
0
4.37995e-08
2.30409e-07
3.23202e-07
3.3278e-07
2.82993e-07
2.27196e-07
1.73995e-07
1.19534e-07
8.05033e-08
5.006e-08
2.71291e-08
1.05629e-08
5.30005e-10
0
0
2.04025e-09
7.11326e-09
1.42902e-08
2.41853e-08
3.3706e-08
3.8224e-08
3.71388e-08
3.32698e-08
2.87767e-08
2.42937e-08
1.8529e-08
8.6721e-09
0
0
0
0
0
0
0
0
0
0
0
0
0
0
0
0
0
0
0
0
0
0
0
0
0
0
0
0
0
0
0
0
0
0
0
0
0
0
0
0
0
0
0
0
0
0
0
0
0
0
0
0
0
0
0
0
0
0
0
0
0
0
0
0
0
0
0
0
0
0
0
0
0
0
0
0
0
0
0
0
0
0
0
0
0
0
0
0
0
0
0
0
0
0
2.72624e-08
0
0
1.55372e-06
8.01155e-06
9.1479e-06
8.42067e-06
8.3377e-06
7.96457e-06
7.61463e-06
8.85013e-06
1.21669e-05
1.61491e-05
1.81755e-05
1.79692e-05
1.78575e-05
1.88089e-05
2.02612e-05
2.04565e-05
1.60068e-05
5.18569e-06
0
0
0
0
0
0
0
0
0
0
0
0
0
0
0
0
0
2.24054e-07
1.75864e-07
0
0
0
0
0
0
0
0
0
0
7.70507e-08
3.22211e-07
6.74029e-07
1.09254e-06
1.38568e-06
1.07444e-06
0
0
0
9.76485e-08
5.12914e-07
7.24499e-07
7.73511e-07
7.08461e-07
5.87784e-07
4.43358e-07
3.00881e-07
1.8725e-07
1.05939e-07
5.02055e-08
9.88189e-09
0
0
0
0
0
0
0
0
0
0
0
0
0
0
0
0
0
0
0
0
0
0
0
0
0
0
0
0
0
0
0
0
0
0
0
0
0
0
0
0
0
0
0
0
0
0
0
0
0
0
0
0
0
0
0
0
0
0
0
0
0
0
0
0
0
0
0
0
0
0
0
0
0
0
0
0
0
0
0
0
0
0
0
0
0
0
0
0
0
0
0
0
0
0
0
0
0
0
0
0
0
0
0
0
0
0
0
0
0
0
0
0
2.09248e-06
5.32648e-06
6.32698e-06
6.02073e-06
5.70907e-06
5.36275e-06
4.84424e-06
4.71614e-06
5.47352e-06
6.71914e-06
7.40082e-06
7.12362e-06
6.28081e-06
5.11459e-06
3.56133e-06
1.30202e-06
0
0
0
0
3.99279e-07
3.52308e-07
2.10154e-07
6.03933e-08
0
0
0
0
0
0
0
0
0
0
0
4.92754e-08
0
0
0
0
0
0
0
0
0
0
2.05311e-07
6.45263e-07
1.35839e-06
2.43664e-06
3.97998e-06
5.61631e-06
4.39452e-06
0
0
0
0
0
2.743e-07
6.24953e-07
7.43215e-07
7.34218e-07
6.36079e-07
5.08647e-07
3.65845e-07
2.47468e-07
1.62619e-07
1.02598e-07
5.08629e-08
0
0
0
0
0
0
0
0
0
0
0
0
0
0
0
0
0
0
0
0
0
0
0
0
0
0
0
0
0
0
0
0
0
0
0
0
0
0
0
0
0
0
0
0
0
0
0
0
0
0
0
0
0
0
0
0
0
0
0
0
0
0
0
0
0
0
0
0
0
0
0
0
0
0
0
0
0
0
0
0
0
0
0
0
0
0
0
0
0
0
0
0
0
0
0
0
0
0
0
0
0
0
0
0
0
0
0
0
0
0
0
8.30061e-07
2.9985e-06
4.58334e-06
4.87053e-06
4.56411e-06
4.24749e-06
3.7703e-06
3.1185e-06
2.67039e-06
2.47938e-06
2.32598e-06
2.03039e-06
1.61433e-06
1.09775e-06
6.47577e-07
4.26991e-07
4.92557e-07
7.39449e-07
1.1409e-06
1.89679e-06
1.35589e-06
1.03028e-06
7.39408e-07
5.18077e-07
4.1075e-07
5.85259e-07
2.47349e-07
8.2785e-08
1.5881e-08
0
0
0
0
0
0
0
0
0
0
0
0
0
0
0
0
1.95093e-07
6.983e-07
1.59767e-06
3.09505e-06
5.5069e-06
9.30162e-06
1.42836e-05
6.83188e-06
0
0
0
0
0
0
1.25872e-07
4.63631e-07
5.61397e-07
5.55364e-07
4.93731e-07
4.05968e-07
3.06244e-07
2.26704e-07
1.68989e-07
1.35293e-07
1.14132e-07
7.71805e-08
1.17752e-08
0
0
0
0
0
0
0
0
0
0
0
0
0
0
0
0
0
0
0
0
0
0
0
0
0
0
0
0
0
0
0
0
0
0
0
0
0
0
0
0
0
0
0
0
0
0
0
0
0
0
0
0
0
0
0
0
4.49042e-09
4.85775e-09
0
0
0
0
0
0
0
0
0
0
0
0
0
0
0
0
0
0
0
0
0
0
0
0
0
0
0
0
0
0
0
0
0
0
0
0
0
0
0
0
0
0
0
0
0
0
0
0
0
0
0
1.01236e-06
2.61775e-06
3.99113e-06
4.446e-06
3.97129e-06
3.22075e-06
2.47254e-06
1.73912e-06
1.14307e-06
7.39425e-07
5.00259e-07
3.6334e-07
3.25777e-07
3.99488e-07
5.77722e-07
9.06164e-07
1.73527e-06
2.83496e-06
2.42253e-06
1.89564e-06
1.52159e-06
1.29192e-06
1.38306e-06
1.29652e-06
4.32272e-07
2.19456e-07
1.51934e-07
1.15728e-07
7.92127e-08
2.26577e-08
0
0
0
0
0
0
0
0
0
0
0
0
0
5.91929e-08
4.51058e-07
1.21169e-06
2.50017e-06
4.38838e-06
6.69007e-06
8.15592e-06
5.18144e-06
0
0
0
0
0
0
0
0
2.46296e-07
4.1127e-07
4.18524e-07
3.91754e-07
3.54501e-07
3.05011e-07
2.44452e-07
1.7297e-07
1.1058e-07
7.36522e-08
5.69215e-08
4.50207e-08
2.34735e-08
0
0
0
0
0
0
0
0
0
0
0
0
0
0
0
0
0
0
0
0
0
0
0
0
0
0
0
0
0
0
0
0
0
0
0
0
0
0
0
0
0
0
0
0
0
0
6.66789e-10
1.34177e-09
0
0
0
0
0
0
0
0
3.7215e-09
4.12141e-09
0
0
0
0
0
0
0
0
0
0
0
0
0
0
0
0
0
0
0
0
0
0
0
0
0
0
0
0
0
0
0
0
0
0
0
0
0
0
0
0
0
0
0
0
0
0
0
0
0
0
0
5.77667e-07
1.9352e-06
3.45074e-06
4.29204e-06
3.64166e-06
2.10615e-06
7.94977e-07
0
0
0
0
0
0
0
1.59838e-06
3.47532e-06
3.41766e-06
2.8513e-06
2.41864e-06
2.31633e-06
2.57111e-06
1.43807e-06
5.76286e-07
3.18549e-07
2.32143e-07
2.03424e-07
2.00169e-07
1.95692e-07
1.70208e-07
1.19578e-07
5.43929e-08
4.58005e-09
0
0
0
0
0
0
0
0
0
0
6.03603e-08
3.80706e-07
9.83069e-07
1.81258e-06
2.59296e-06
2.6502e-06
9.76573e-07
0
0
0
0
0
0
0
0
0
0
2.84275e-07
3.17375e-07
2.82185e-07
2.71368e-07
2.58974e-07
2.17236e-07
1.64243e-07
1.1761e-07
5.67012e-08
0
0
0
0
0
0
0
0
3.85822e-08
8.70402e-08
8.34656e-08
5.47255e-08
2.77911e-08
7.62452e-09
0
0
0
0
0
0
0
0
0
0
0
0
0
0
0
2.79253e-08
3.97085e-08
2.88187e-08
1.10819e-08
0
0
0
3.57658e-11
1.39104e-10
0
0
0
0
0
0
0
0
0
0
0
0
1.23336e-09
4.2358e-09
1.7073e-09
0
0
0
0
0
0
0
0
1.76953e-09
0
0
0
0
0
0
0
0
0
0
0
0
0
0
0
0
0
0
0
0
0
0
0
0
0
0
0
0
0
0
0
0
0
0
0
0
0
0
0
0
0
0
0
0
0
0
0
0
0
0
0
0
1.04978e-06
2.40139e-06
3.489e-06
3.36509e-06
1.45556e-06
0
0
0
0
0
0
0
1.34531e-06
2.47914e-06
2.63014e-06
2.51208e-06
2.45242e-06
2.11623e-06
1.25394e-06
6.76787e-07
4.0439e-07
2.83797e-07
2.41314e-07
2.46579e-07
2.73934e-07
2.94744e-07
2.90498e-07
2.54969e-07
1.97548e-07
1.38075e-07
9.33938e-08
6.46534e-08
4.47377e-08
2.52874e-08
2.21231e-09
0
0
0
0
0
0
0
0
0
0
0
0
0
0
0
0
0
0
0
0
0
0
1.31756e-07
2.57159e-07
2.035e-07
1.86901e-07
1.96131e-07
1.67488e-07
1.12475e-07
1.02819e-07
1.25287e-07
5.18035e-08
0
0
0
0
0
0
0
0
0
7.97519e-08
8.00864e-08
2.93554e-08
0
0
0
0
0
0
0
0
0
0
1.97619e-08
7.45458e-09
0
0
0
9.6044e-09
5.60879e-08
7.12626e-08
6.41421e-08
4.69773e-08
2.809e-08
1.37788e-08
6.09826e-09
5.99418e-09
9.58683e-09
1.00562e-08
8.06226e-09
6.52763e-09
3.17464e-09
0
0
0
0
0
0
0
0
0
1.28909e-09
5.28682e-09
3.20454e-09
0
0
0
0
0
0
0
0
1.87956e-09
0
0
0
0
0
0
0
0
0
0
0
0
0
0
0
0
0
0
0
0
0
0
0
0
0
0
0
0
0
0
0
0
0
0
0
0
0
0
0
0
0
0
0
0
0
0
0
0
0
0
0
0
7.98205e-08
7.56902e-07
1.33434e-06
1.40795e-06
6.36475e-07
0
0
0
0
0
0
4.93302e-08
6.89085e-07
1.11354e-06
1.32086e-06
1.25604e-06
9.66957e-07
6.50668e-07
4.30536e-07
2.90163e-07
2.179e-07
2.03769e-07
2.4112e-07
2.98152e-07
3.36212e-07
3.34212e-07
2.9935e-07
2.49878e-07
1.96374e-07
1.52497e-07
1.22992e-07
1.03669e-07
8.62005e-08
6.69389e-08
5.02248e-08
3.82741e-08
1.97775e-08
0
0
0
0
0
0
0
0
0
0
0
0
0
0
0
0
0
0
0
1.10298e-07
2.32797e-07
1.59689e-07
9.59604e-08
1.1176e-07
1.08463e-07
4.10187e-08
0
1.79405e-08
1.1554e-07
3.21966e-08
0
0
0
0
0
0
0
0
0
4.94043e-08
3.92028e-08
0
0
0
0
0
0
0
0
0
0
0
3.53089e-08
2.72846e-08
1.25393e-08
8.75617e-09
2.39542e-08
5.18694e-08
7.29439e-08
7.69257e-08
7.01684e-08
5.61719e-08
4.15513e-08
3.13398e-08
2.34385e-08
1.6399e-08
1.15395e-08
9.75606e-09
9.33213e-09
8.25688e-09
4.22745e-09
0
0
0
0
0
0
0
0
0
1.1208e-09
3.34717e-09
0
0
0
0
0
0
0
0
0
4.54911e-09
0
0
0
0
0
0
0
0
0
0
0
0
0
0
0
0
0
0
0
0
0
0
0
0
0
0
0
0
0
0
0
0
0
0
0
0
0
0
0
0
0
0
0
0
0
0
0
0
0
0
0
0
0
0
2.51316e-08
4.48061e-08
0
0
0
0
0
3.54739e-07
6.65473e-07
8.56973e-07
9.28992e-07
8.77101e-07
7.30929e-07
5.61255e-07
3.99301e-07
2.74393e-07
1.8258e-07
1.2989e-07
1.22961e-07
1.63987e-07
2.26974e-07
2.80167e-07
3.03684e-07
2.94266e-07
2.58289e-07
2.10842e-07
1.70872e-07
1.46368e-07
1.36282e-07
1.29594e-07
1.23013e-07
1.24685e-07
1.37121e-07
1.51171e-07
1.20991e-07
0
0
0
0
0
0
0
0
0
0
0
0
0
0
0
0
0
9.1152e-08
1.50038e-07
2.23544e-07
1.79869e-07
6.67965e-08
3.79003e-08
6.88582e-08
4.95865e-08
0
0
0
0
0
0
0
0
0
0
0
0
0
0
0
0
0
0
0
0
0
0
0
0
0
0
3.18907e-08
3.31809e-08
2.33655e-08
2.03481e-08
3.73634e-08
6.34345e-08
7.90171e-08
8.53761e-08
8.13036e-08
7.1951e-08
5.98553e-08
5.01109e-08
4.59644e-08
4.09952e-08
2.98669e-08
1.62536e-08
8.20972e-09
5.74499e-09
2.90966e-09
0
0
0
0
0
0
0
0
0
0
0
0
0
0
0
0
0
0
0
0
0
1.10481e-08
0
0
0
0
0
0
0
0
0
0
0
0
0
0
0
0
0
0
0
0
0
0
0
0
0
0
0
0
0
0
0
0
0
0
0
0
0
0
0
0
0
0
0
0
0
0
0
0
0
0
0
0
0
0
0
0
0
0
2.54029e-07
4.8325e-07
6.2648e-07
6.81291e-07
6.77694e-07
6.3704e-07
5.53444e-07
4.51896e-07
3.38775e-07
2.46501e-07
1.62711e-07
1.00167e-07
5.94352e-08
4.67884e-08
6.83584e-08
1.13663e-07
1.65902e-07
2.08041e-07
2.29952e-07
2.25992e-07
1.98936e-07
1.64546e-07
1.3927e-07
1.29235e-07
1.26592e-07
1.26879e-07
1.35921e-07
1.63589e-07
2.06367e-07
2.26281e-07
1.89952e-07
5.27717e-08
0
0
0
0
0
0
0
0
0
0
0
0
0
0
1.70023e-07
2.61179e-07
1.92312e-07
2.05388e-07
2.26485e-07
1.31517e-07
3.20623e-08
2.01739e-08
5.37042e-08
1.37142e-08
0
0
0
0
0
0
0
0
0
0
0
0
0
0
0
0
0
1.77787e-09
5.83106e-09
2.21448e-09
0
0
6.50032e-09
5.12387e-08
7.27096e-08
7.06729e-08
5.53224e-08
4.55391e-08
4.75032e-08
7.04464e-08
9.84668e-08
1.06726e-07
1.04985e-07
9.74651e-08
8.71625e-08
7.4906e-08
6.21741e-08
5.65901e-08
5.85324e-08
5.72625e-08
4.67177e-08
3.07172e-08
1.69455e-08
7.00653e-09
0
0
0
0
0
0
0
0
0
0
0
0
0
0
0
0
0
0
0
0
0
3.32086e-09
1.76591e-08
0
0
0
0
0
0
0
0
0
0
0
0
0
0
0
0
0
0
0
0
0
0
0
0
0
0
0
0
0
0
0
0
0
0
0
0
0
0
0
0
0
0
0
0
0
0
0
0
0
0
0
0
0
0
0
0
0
2.30136e-07
3.7923e-07
4.36315e-07
4.46408e-07
4.28309e-07
3.91543e-07
3.28025e-07
2.68471e-07
1.99958e-07
1.48612e-07
9.9797e-08
6.11991e-08
2.81579e-08
6.30137e-09
6.19297e-09
2.95341e-08
6.55341e-08
1.02074e-07
1.31733e-07
1.46825e-07
1.44125e-07
1.26059e-07
1.04526e-07
9.07822e-08
8.45433e-08
8.32759e-08
8.90472e-08
1.09262e-07
1.4721e-07
1.83838e-07
2.00687e-07
1.83274e-07
1.07158e-07
0
0
0
0
0
0
0
0
0
0
0
0
0
8.84845e-08
2.73432e-07
2.35024e-07
1.94563e-07
2.30143e-07
2.06375e-07
8.7474e-08
0
0
3.48013e-08
0
0
0
0
0
0
0
0
0
0
0
0
0
0
0
4.34054e-08
5.93283e-08
4.92878e-08
3.18789e-08
1.98195e-08
1.19183e-08
9.05357e-09
5.00101e-08
1.03418e-07
1.25163e-07
1.22503e-07
9.87178e-08
7.64092e-08
7.43583e-08
9.49935e-08
1.20192e-07
1.25931e-07
1.17663e-07
1.0659e-07
9.97177e-08
9.48956e-08
8.58021e-08
7.12384e-08
6.42544e-08
6.53174e-08
6.22966e-08
5.12297e-08
3.61391e-08
2.14026e-08
8.27113e-09
0
0
0
6.06267e-10
8.13314e-09
8.92727e-09
2.02536e-09
0
0
0
0
0
0
0
0
0
0
0
0
0
0
2.54238e-08
1.39256e-08
0
0
0
0
0
0
0
0
0
0
0
0
0
0
0
0
0
0
0
0
0
0
0
0
0
0
0
0
0
0
0
0
0
0
0
0
0
0
0
0
0
0
0
0
0
0
0
0
0
0
0
0
0
0
0
0
4.68426e-08
1.76855e-07
2.28289e-07
2.39561e-07
2.25288e-07
1.97125e-07
1.58011e-07
1.23941e-07
9.76887e-08
7.99237e-08
5.89208e-08
3.55485e-08
9.95548e-09
0
0
0
6.71115e-09
2.53924e-08
4.4931e-08
6.09205e-08
6.82946e-08
6.38356e-08
5.01383e-08
3.59917e-08
2.54055e-08
1.88278e-08
1.52305e-08
1.70014e-08
2.97427e-08
5.25986e-08
7.69526e-08
9.86499e-08
1.21471e-07
1.68544e-07
2.55488e-07
4.29302e-07
7.39836e-07
1.15236e-06
1.68381e-06
2.04858e-06
1.09615e-06
0
0
0
0
0
0
2.61087e-07
3.11238e-07
2.37879e-07
2.32411e-07
2.60809e-07
1.70264e-07
1.93978e-08
0
0
6.74202e-08
8.27532e-08
0
0
0
0
0
0
0
0
0
0
0
0
0
9.82479e-08
1.13586e-07
9.70957e-08
7.36388e-08
5.03211e-08
3.51626e-08
3.76536e-08
7.38022e-08
1.21216e-07
1.50533e-07
1.5538e-07
1.43629e-07
1.17674e-07
9.79995e-08
1.00777e-07
1.17408e-07
1.27089e-07
1.1815e-07
9.91194e-08
9.10373e-08
9.51953e-08
1.00042e-07
9.48288e-08
7.93529e-08
6.84709e-08
6.31348e-08
5.63345e-08
4.62407e-08
3.40296e-08
2.19149e-08
1.07154e-08
2.79458e-09
1.18466e-09
6.00919e-09
1.49408e-08
1.96157e-08
1.30406e-08
1.12749e-09
0
0
0
0
0
0
0
0
0
0
0
0
0
0
3.36063e-08
0
0
0
0
0
0
0
0
0
0
0
0
0
0
0
0
0
0
0
0
0
0
0
0
0
0
0
0
0
0
0
0
0
0
0
0
0
0
0
0
0
0
0
0
0
0
0
0
0
0
0
0
0
0
0
0
0
1.34571e-08
6.71438e-08
7.9849e-08
7.09047e-08
4.90781e-08
2.8052e-08
1.74775e-08
1.66903e-08
1.64659e-08
9.58284e-09
0
0
0
0
0
0
0
0
0
1.52512e-09
0
0
0
0
0
0
0
0
0
0
0
0
6.69374e-08
2.52983e-07
5.99273e-07
1.20295e-06
2.04428e-06
3.36713e-06
5.24665e-06
7.57078e-06
1.83233e-07
0
0
0
0
0
2.64609e-07
3.57255e-07
2.595e-07
1.98295e-07
2.51292e-07
2.31011e-07
5.98978e-08
0
0
4.95528e-09
1.43068e-07
5.75636e-08
0
0
0
0
0
0
0
0
0
0
0
1.65197e-08
1.20831e-07
1.25745e-07
1.06322e-07
8.3343e-08
6.21305e-08
5.26954e-08
7.05696e-08
1.12708e-07
1.47874e-07
1.77182e-07
1.82505e-07
1.72624e-07
1.55155e-07
1.31392e-07
1.22972e-07
1.27629e-07
1.32705e-07
1.24428e-07
9.90448e-08
8.01197e-08
8.105e-08
9.22078e-08
1.00056e-07
9.29519e-08
7.69981e-08
6.45311e-08
5.60211e-08
4.88299e-08
4.15263e-08
3.32526e-08
2.44053e-08
1.63013e-08
1.20358e-08
1.37198e-08
2.03951e-08
2.64858e-08
2.31253e-08
1.03925e-08
0
0
0
0
0
0
0
0
0
0
0
0
0
0
0
1.60471e-08
0
0
0
0
0
0
0
0
0
0
0
0
0
0
0
0
0
0
0
0
0
0
0
0
0
0
0
0
0
0
0
0
0
0
0
0
0
0
0
0
0
0
0
0
0
0
4.20038e-08
1.38285e-07
1.13325e-07
8.47615e-08
8.47879e-08
7.77022e-08
3.62524e-08
0
0
0
0
0
0
0
0
0
0
0
0
0
0
0
0
0
0
0
0
0
0
0
0
0
0
0
0
0
0
0
0
0
0
0
0
2.76225e-08
3.11295e-07
8.12563e-07
1.52559e-06
2.62993e-06
4.08348e-06
5.72047e-06
1.14649e-06
0
0
0
0
4.75516e-09
3.05431e-07
4.09136e-07
2.70407e-07
1.61058e-07
2.35147e-07
2.74703e-07
1.0727e-07
0
0
1.01787e-07
1.88963e-07
7.52237e-08
1.27101e-08
0
0
0
0
0
0
0
0
0
0
1.21458e-07
1.87579e-07
1.71162e-07
1.29284e-07
9.34512e-08
7.33236e-08
7.59179e-08
1.08275e-07
1.42054e-07
1.61982e-07
1.90385e-07
1.99617e-07
1.90634e-07
1.73692e-07
1.4894e-07
1.3336e-07
1.3089e-07
1.32906e-07
1.29589e-07
1.09982e-07
8.43117e-08
7.41942e-08
7.99026e-08
9.16863e-08
9.47663e-08
8.25533e-08
6.78386e-08
5.7125e-08
5.03358e-08
4.57993e-08
4.1448e-08
3.59578e-08
2.9509e-08
2.42685e-08
2.32646e-08
2.6695e-08
3.10332e-08
2.92214e-08
1.91045e-08
5.10698e-09
0
0
0
0
0
0
0
0
0
0
0
0
0
0
1.17101e-09
0
0
0
0
0
0
0
0
0
0
0
0
0
0
0
0
0
0
0
0
0
0
0
0
0
0
0
0
0
0
0
0
0
0
0
0
0
0
2.56528e-08
6.90991e-08
9.26496e-08
9.81299e-08
7.93049e-08
4.88712e-08
0
0
0
6.71101e-08
1.09557e-07
1.25545e-07
1.71833e-07
1.98385e-07
1.46489e-07
0
0
3.11785e-07
1.24217e-07
1.2401e-08
0
0
0
0
0
0
0
0
0
0
0
0
0
0
0
0
0
0
0
0
0
0
0
0
0
0
0
0
0
0
0
0
0
2.85956e-07
7.37195e-07
1.3674e-06
2.00339e-06
2.17148e-06
2.29908e-07
0
0
0
0
5.80131e-08
3.36551e-07
3.96506e-07
2.00502e-07
8.73917e-08
2.0302e-07
2.74936e-07
1.37814e-07
0
0
5.13627e-07
3.91135e-07
1.38002e-07
2.86632e-08
0
0
0
1.55363e-08
3.936e-08
4.74124e-08
6.23147e-08
0
0
3.05036e-08
1.67495e-07
2.10211e-07
2.08127e-07
1.69502e-07
1.23854e-07
1.00362e-07
1.07151e-07
1.33308e-07
1.50196e-07
1.6187e-07
1.83899e-07
1.9645e-07
1.93078e-07
1.79689e-07
1.56763e-07
1.35794e-07
1.28889e-07
1.30388e-07
1.32693e-07
1.22258e-07
9.69247e-08
7.67286e-08
7.31304e-08
8.19311e-08
9.05434e-08
8.54627e-08
7.16136e-08
6.01049e-08
5.30863e-08
4.97662e-08
4.7726e-08
4.49589e-08
4.07565e-08
3.59369e-08
3.32522e-08
3.38942e-08
3.51316e-08
3.24101e-08
2.40994e-08
1.23246e-08
0
0
0
0
0
0
0
0
0
0
0
0
0
0
0
0
0
0
0
0
0
0
0
0
0
0
0
0
0
0
0
0
0
0
0
0
0
0
0
0
0
0
0
0
0
0
0
0
0
0
0
0
6.16204e-09
6.28197e-08
1.07278e-07
1.20359e-07
9.48871e-08
2.73598e-08
0
0
0
0
1.15703e-08
2.86324e-08
9.87482e-08
1.99286e-07
2.32022e-07
1.34352e-07
0
0
1.12028e-07
8.61924e-08
0
0
0
0
0
0
0
0
0
0
0
0
0
0
0
0
0
0
0
0
0
0
0
0
0
0
0
0
0
0
0
0
0
0
0
1.71313e-07
5.12815e-07
8.01335e-07
7.84482e-07
8.73895e-08
0
0
0
0
5.0876e-08
3.13994e-07
3.23007e-07
9.0014e-08
2.98543e-08
2.09675e-07
2.81476e-07
1.5845e-07
0
3.72983e-07
1.31465e-06
8.21445e-07
2.94787e-07
6.50628e-08
1.15077e-08
8.5226e-09
0
2.77739e-08
4.58972e-08
5.83881e-08
8.51156e-08
5.58776e-08
0
1.28854e-07
2.08846e-07
2.27945e-07
2.17282e-07
1.90615e-07
1.49619e-07
1.28576e-07
1.33045e-07
1.48705e-07
1.59386e-07
1.67649e-07
1.78627e-07
1.84538e-07
1.83069e-07
1.74616e-07
1.58724e-07
1.36979e-07
1.2826e-07
1.30726e-07
1.38295e-07
1.3583e-07
1.14051e-07
8.60659e-08
7.23436e-08
7.51769e-08
8.54387e-08
8.69347e-08
7.62745e-08
6.46526e-08
5.72164e-08
5.41588e-08
5.33535e-08
5.20606e-08
4.94656e-08
4.57786e-08
4.23752e-08
4.09659e-08
3.95416e-08
3.45073e-08
2.58525e-08
1.65882e-08
6.08546e-09
0
0
0
0
0
0
0
0
0
0
0
0
0
0
0
0
0
0
0
0
0
0
0
0
0
0
0
0
0
0
0
0
0
0
0
0
0
0
0
0
0
0
0
0
0
0
0
0
0
0
1.1743e-08
3.00714e-08
4.2308e-08
5.78314e-08
6.04719e-08
3.70002e-08
0
0
0
0
0
0
9.87835e-09
3.50135e-08
8.79459e-08
8.11339e-08
8.90731e-09
0
0
6.07723e-08
6.02007e-08
3.94776e-09
0
0
0
0
0
0
0
0
0
0
0
0
0
0
0
0
0
0
0
0
0
0
0
0
0
0
0
0
0
0
0
0
0
0
0
5.16798e-08
2.35646e-07
2.73556e-07
3.11138e-08
0
0
0
0
0
2.32136e-07
1.86926e-07
0
1.92978e-08
2.19677e-07
2.68421e-07
1.75147e-07
1.04587e-07
1.22256e-06
2.14626e-06
1.31516e-06
5.10537e-07
1.43557e-07
4.5314e-08
7.65492e-08
5.22982e-08
0
0
0
9.10923e-09
6.17856e-08
1.17221e-07
1.96448e-07
2.4844e-07
2.50318e-07
2.32548e-07
2.04502e-07
1.66076e-07
1.45988e-07
1.46134e-07
1.55777e-07
1.63658e-07
1.69147e-07
1.72805e-07
1.74027e-07
1.72999e-07
1.68315e-07
1.57893e-07
1.3965e-07
1.29601e-07
1.32097e-07
1.42398e-07
1.46719e-07
1.30242e-07
9.93919e-08
7.62759e-08
7.19604e-08
8.09013e-08
8.68583e-08
8.02265e-08
6.90339e-08
6.11233e-08
5.77786e-08
5.74508e-08
5.70215e-08
5.51877e-08
5.22889e-08
4.90813e-08
4.66337e-08
4.3475e-08
3.596e-08
2.53332e-08
1.67786e-08
9.85852e-09
1.72543e-10
0
0
0
0
0
0
0
0
0
0
0
0
0
0
0
0
0
0
0
0
0
0
0
0
0
0
0
0
0
0
0
0
0
0
0
0
0
0
0
0
0
0
0
0
0
0
0
0
0
0
0
1.96223e-08
4.02468e-08
4.86057e-08
3.67853e-08
5.51757e-09
0
0
0
0
0
0
1.5653e-09
3.18782e-08
1.14872e-08
0
0
9.6915e-09
6.59403e-08
7.98056e-08
5.34053e-08
1.574e-08
0
0
0
0
0
0
0
0
0
0
0
0
0
0
0
0
0
0
0
0
0
0
0
0
0
0
0
0
0
0
0
0
0
0
0
0
4.54724e-08
0
0
0
0
0
0
1.00001e-07
1.92431e-08
0
8.79708e-08
2.44953e-07
2.59276e-07
2.02554e-07
3.79101e-07
2.14846e-06
2.77209e-06
1.64342e-06
5.32583e-07
1.35839e-07
7.94689e-08
1.06991e-07
1.01893e-07
3.88279e-08
0
0
0
8.85965e-08
2.08519e-07
2.24892e-07
2.49064e-07
2.45334e-07
2.28745e-07
2.05695e-07
1.73468e-07
1.5232e-07
1.47013e-07
1.5158e-07
1.56932e-07
1.59925e-07
1.5849e-07
1.57458e-07
1.58485e-07
1.57848e-07
1.53126e-07
1.40872e-07
1.3105e-07
1.32211e-07
1.41141e-07
1.48473e-07
1.37264e-07
1.08605e-07
8.04161e-08
6.96541e-08
7.46032e-08
8.29653e-08
8.01196e-08
6.96268e-08
6.14634e-08
5.7757e-08
5.73954e-08
5.76057e-08
5.64837e-08
5.42307e-08
5.14038e-08
4.87476e-08
4.48748e-08
3.57522e-08
2.27141e-08
1.30983e-08
9.01777e-09
3.66439e-09
0
0
0
0
0
0
0
9.53132e-09
0
0
0
0
0
0
0
0
0
0
0
0
0
0
0
0
0
0
0
0
0
0
0
0
0
0
0
0
0
0
0
0
0
0
0
0
0
0
0
0
0
0
0
1.19003e-09
1.9666e-08
3.7939e-08
4.30621e-08
2.80905e-08
0
0
0
0
0
0
0
1.96294e-08
8.36073e-09
0
0
0
1.26459e-08
3.83078e-08
4.89725e-08
3.96914e-08
1.18101e-08
0
0
0
0
0
0
0
0
0
0
0
0
0
0
0
0
0
0
0
0
0
0
0
0
0
0
0
0
0
0
0
0
0
0
0
1.93276e-08
3.05535e-08
0
0
0
0
0
0
0
0
2.21517e-07
2.81215e-07
2.62465e-07
2.62513e-07
8.3896e-07
2.95803e-06
3.3284e-06
1.80925e-06
3.1644e-07
6.58399e-08
7.88631e-08
1.02247e-07
1.09313e-07
7.56642e-08
8.59719e-09
0
0
1.78632e-07
1.9582e-07
2.03092e-07
2.18004e-07
2.17297e-07
2.04811e-07
1.88747e-07
1.71641e-07
1.55191e-07
1.46638e-07
1.45939e-07
1.48309e-07
1.51009e-07
1.51553e-07
1.51003e-07
1.52094e-07
1.52723e-07
1.51242e-07
1.44906e-07
1.36998e-07
1.36598e-07
1.42828e-07
1.49896e-07
1.42532e-07
1.17982e-07
8.83226e-08
7.19985e-08
7.14683e-08
7.88465e-08
7.91963e-08
6.97159e-08
6.11166e-08
5.71593e-08
5.67099e-08
5.79651e-08
5.80974e-08
5.65817e-08
5.40556e-08
5.11915e-08
4.6863e-08
3.67974e-08
2.12411e-08
9.15085e-09
5.53864e-09
4.67764e-09
0
0
0
0
0
0
0
6.83449e-09
3.79082e-08
0
0
0
0
0
0
0
0
0
0
0
0
0
0
0
0
0
0
0
0
0
0
0
0
0
0
0
0
0
0
0
0
0
0
0
0
0
0
0
0
0
0
0
2.13945e-09
8.69213e-09
1.6673e-08
1.57168e-08
3.66465e-09
0
0
0
0
0
0
5.5577e-09
3.12066e-08
2.31423e-08
1.28218e-08
0
7.16501e-10
1.70942e-08
3.4325e-08
3.37191e-08
1.59495e-08
0
0
0
0
0
0
0
0
0
0
0
0
0
0
0
0
0
0
0