/*--------------------------------*- C++ -*----------------------------------*\
  =========                 |
  \\      /  F ield         | OpenFOAM: The Open Source CFD Toolbox
   \\    /   O peration     | Website:  https://openfoam.org
    \\  /    A nd           | Version:  7
     \\/     M anipulation  |
\*---------------------------------------------------------------------------*/
FoamFile
{
    version     2.0;
    format      ascii;
    class       surfaceScalarField;
    location    "0.058";
    object      phi;
}
// * * * * * * * * * * * * * * * * * * * * * * * * * * * * * * * * * * * * * //

dimensions      [0 3 -1 0 0 0 0];

internalField   nonuniform List<scalar> 
24170
(
1.40066e-06
1.85053e-07
1.27478e-06
1.25877e-07
1.14399e-06
1.30793e-07
1.02163e-06
1.22357e-07
9.02353e-07
1.19282e-07
7.85832e-07
1.16521e-07
6.76449e-07
1.09383e-07
5.80659e-07
9.57893e-08
5.01451e-07
7.92082e-08
4.36398e-07
6.50534e-08
3.81182e-07
5.52156e-08
3.32646e-07
4.8536e-08
2.89711e-07
4.29356e-08
2.52529e-07
3.71815e-08
2.21534e-07
3.09956e-08
1.96996e-07
2.45371e-08
1.74747e-07
2.22496e-08
1.37928e-08
1.60954e-07
1.68098e-06
1.98297e-07
1.67361e-06
1.33243e-07
1.64504e-06
1.59362e-07
1.6073e-06
1.601e-07
1.56224e-06
1.64337e-07
1.50998e-06
1.68785e-07
1.45262e-06
1.66743e-07
1.39432e-06
1.5409e-07
1.33987e-06
1.3366e-07
1.29091e-06
1.14009e-07
1.24539e-06
1.00733e-07
1.2001e-06
9.38257e-08
1.15339e-06
8.96521e-08
1.10588e-06
8.4691e-08
1.05916e-06
7.77181e-08
1.01394e-06
6.97491e-08
9.70917e-07
6.52757e-08
5.61447e-08
9.28565e-07
1.80536e-06
2.504e-07
1.78538e-06
1.53227e-07
1.77252e-06
1.72222e-07
1.75853e-06
1.74088e-07
1.74925e-06
1.73618e-07
1.7417e-06
1.76331e-07
1.73177e-06
1.7668e-07
1.71815e-06
1.67703e-07
1.7025e-06
1.49316e-07
1.68699e-06
1.2952e-07
1.67193e-06
1.15784e-07
1.65638e-06
1.09385e-07
1.63872e-06
1.07305e-07
1.61836e-06
1.05053e-07
1.59535e-06
1.00731e-07
1.5706e-06
9.44979e-08
1.5454e-06
9.04722e-08
8.36749e-08
1.51787e-06
1.92573e-06
3.2233e-07
1.8935e-06
1.85466e-07
1.87587e-06
1.89849e-07
1.86216e-06
1.87792e-07
1.85602e-06
1.79758e-07
1.85661e-06
1.75742e-07
1.86088e-06
1.72411e-07
1.86532e-06
1.63269e-07
1.86732e-06
1.47315e-07
1.86642e-06
1.30419e-07
1.86356e-06
1.1864e-07
1.86017e-06
1.1278e-07
1.85683e-06
1.10643e-07
1.85322e-06
1.08665e-07
1.84843e-06
1.05517e-07
1.84178e-06
1.01147e-07
1.83433e-06
9.79238e-08
9.34263e-08
1.82458e-06
2.06688e-06
3.19433e-07
2.03874e-06
2.13601e-07
2.02045e-06
2.08141e-07
2.00506e-06
2.03185e-07
1.99567e-06
1.8914e-07
1.99556e-06
1.75852e-07
2.00297e-06
1.65004e-07
2.01217e-06
1.54072e-07
2.01746e-06
1.42022e-07
2.01645e-06
1.31432e-07
2.01057e-06
1.24518e-07
2.00338e-06
1.19965e-07
1.99829e-06
1.15737e-07
1.99658e-06
1.10372e-07
1.99766e-06
1.0444e-07
1.9999e-06
9.89067e-08
2.00258e-06
9.52459e-08
9.22559e-08
2.00375e-06
2.20389e-06
3.89241e-07
2.19714e-06
2.20354e-07
2.19381e-06
2.11469e-07
2.19302e-06
2.03974e-07
2.19281e-06
1.89351e-07
2.19072e-06
1.77946e-07
2.18708e-06
1.68641e-07
2.18241e-06
1.58746e-07
2.1756e-06
1.48828e-07
2.16599e-06
1.41044e-07
2.15522e-06
1.35285e-07
2.14649e-06
1.28701e-07
2.1427e-06
1.19526e-07
2.14479e-06
1.08276e-07
2.15162e-06
9.76177e-08
2.16083e-06
8.96978e-08
2.17011e-06
8.59666e-08
8.55544e-08
2.17681e-06
2.4245e-06
3.76702e-07
2.37106e-06
2.73792e-07
2.34219e-06
2.40343e-07
2.33389e-06
2.12271e-07
2.3326e-06
1.9064e-07
2.33503e-06
1.75516e-07
2.34036e-06
1.63309e-07
2.34519e-06
1.5392e-07
2.34464e-06
1.49377e-07
2.33682e-06
1.48865e-07
2.32448e-06
1.47624e-07
2.31279e-06
1.40395e-07
2.30613e-06
1.26183e-07
2.30615e-06
1.08257e-07
2.31187e-06
9.18954e-08
2.32086e-06
8.07097e-08
2.33059e-06
7.62376e-08
7.7511e-08
2.33863e-06
2.62361e-06
3.73577e-07
2.60448e-06
2.9292e-07
2.5771e-06
2.67727e-07
2.542e-06
2.47364e-07
2.51042e-06
2.22223e-07
2.49316e-06
1.92772e-07
2.48798e-06
1.68492e-07
2.4872e-06
1.547e-07
2.4862e-06
1.50374e-07
2.48516e-06
1.49903e-07
2.48627e-06
1.46513e-07
2.49065e-06
1.3602e-07
2.49753e-06
1.19304e-07
2.50503e-06
1.00757e-07
2.51162e-06
8.53022e-08
2.51653e-06
7.58056e-08
2.5199e-06
7.28696e-08
7.53627e-08
2.52204e-06
2.81103e-06
4.01475e-07
2.76638e-06
3.37573e-07
2.74586e-06
2.88249e-07
2.7358e-06
2.57425e-07
2.72792e-06
2.30099e-07
2.71803e-06
2.02666e-07
2.70646e-06
1.80061e-07
2.69613e-06
1.65031e-07
2.69037e-06
1.56132e-07
2.69102e-06
1.49254e-07
2.69714e-06
1.40389e-07
2.70522e-06
1.27945e-07
2.71124e-06
1.13277e-07
2.71276e-06
9.92385e-08
2.7099e-06
8.81584e-08
2.70436e-06
8.13484e-08
2.69864e-06
7.85948e-08
7.97778e-08
2.69422e-06
2.99005e-06
4.27375e-07
2.94723e-06
3.8039e-07
2.92595e-06
3.09532e-07
2.91704e-06
2.66327e-07
2.90932e-06
2.37826e-07
2.9016e-06
2.10387e-07
2.89882e-06
1.82834e-07
2.90372e-06
1.60132e-07
2.91423e-06
1.45627e-07
2.92547e-06
1.38012e-07
2.93254e-06
1.33319e-07
2.93245e-06
1.28039e-07
2.92525e-06
1.20472e-07
2.91377e-06
1.10719e-07
2.90177e-06
1.00161e-07
2.89227e-06
9.08455e-08
2.88683e-06
8.40385e-08
8.1218e-08
2.88539e-06
3.23202e-06
4.81563e-07
3.21538e-06
3.97032e-07
3.19174e-06
3.33165e-07
3.16759e-06
2.90476e-07
3.15111e-06
2.54312e-07
3.13914e-06
2.2236e-07
3.12931e-06
1.92664e-07
3.12349e-06
1.65952e-07
3.12362e-06
1.45487e-07
3.12871e-06
1.32923e-07
3.13532e-06
1.2671e-07
3.13997e-06
1.23389e-07
3.14093e-06
1.1952e-07
3.13851e-06
1.13134e-07
3.13427e-06
1.044e-07
3.13002e-06
9.50994e-08
3.12694e-06
8.71182e-08
8.23225e-08
3.12583e-06
2.90254e-06
4.87541e-07
2.89304e-06
4.06536e-07
2.86845e-06
3.57759e-07
2.85222e-06
3.06699e-07
2.84615e-06
2.6039e-07
2.84364e-06
2.24869e-07
2.8398e-06
1.96496e-07
2.83363e-06
1.7213e-07
2.82735e-06
1.51764e-07
2.82431e-06
1.35966e-07
2.82638e-06
1.24641e-07
2.83274e-06
1.17022e-07
2.84077e-06
1.11496e-07
2.84734e-06
1.06557e-07
2.8501e-06
1.0164e-07
2.84845e-06
9.67543e-08
2.84271e-06
9.28508e-08
8.98229e-08
2.83521e-06
3.53755e-06
4.73859e-07
3.52257e-06
4.21512e-07
3.52392e-06
3.56412e-07
3.53708e-06
2.93541e-07
3.54276e-06
2.54711e-07
3.53166e-06
2.35964e-07
3.5082e-06
2.19963e-07
3.48293e-06
1.97393e-07
3.46425e-06
1.70447e-07
3.45556e-06
1.44655e-07
3.45649e-06
1.2371e-07
3.46502e-06
1.08492e-07
3.47832e-06
9.82041e-08
3.49303e-06
9.18396e-08
3.50553e-06
8.91421e-08
3.513e-06
8.92843e-08
3.51369e-06
9.21615e-08
9.58507e-08
3.50766e-06
4.1721e-06
4.20167e-07
4.21978e-06
3.73824e-07
4.23754e-06
3.38653e-07
4.23599e-06
2.95098e-07
4.23111e-06
2.59584e-07
4.23922e-06
2.2786e-07
4.26107e-06
1.9811e-07
4.28349e-06
1.74976e-07
4.29341e-06
1.60523e-07
4.28732e-06
1.50745e-07
4.2711e-06
1.39935e-07
4.2541e-06
1.25487e-07
4.24322e-06
1.09089e-07
4.24034e-06
9.47177e-08
4.2436e-06
8.58791e-08
4.24934e-06
8.35411e-08
4.25475e-06
8.67528e-08
9.26086e-08
4.25799e-06
5.21763e-06
3.88464e-07
5.18074e-06
4.10719e-07
5.14784e-06
3.71548e-07
5.13537e-06
3.0757e-07
5.14622e-06
2.48732e-07
5.17735e-06
1.96736e-07
5.21534e-06
1.60118e-07
5.24585e-06
1.44462e-07
5.26278e-06
1.43594e-07
5.26777e-06
1.45752e-07
5.26529e-06
1.42416e-07
5.25881e-06
1.31967e-07
5.24998e-06
1.17928e-07
5.23977e-06
1.04926e-07
5.22944e-06
9.62026e-08
5.22037e-06
9.26165e-08
5.21403e-06
9.30881e-08
9.61334e-08
5.21051e-06
6.31938e-06
4.0347e-07
6.32863e-06
4.01466e-07
6.36447e-06
3.35704e-07
6.38262e-06
2.89422e-07
6.38172e-06
2.49636e-07
6.37238e-06
2.06073e-07
6.36294e-06
1.6956e-07
6.35783e-06
1.49572e-07
6.35799e-06
1.43429e-07
6.36232e-06
1.41429e-07
6.36852e-06
1.36212e-07
6.37441e-06
1.26073e-07
6.379e-06
1.13346e-07
6.38259e-06
1.01331e-07
6.38645e-06
9.23476e-08
6.39175e-06
8.7316e-08
6.39939e-06
8.54459e-08
8.61239e-08
6.4094e-06
7.72279e-06
3.69568e-07
7.76326e-06
3.60997e-07
7.76287e-06
3.36092e-07
7.75735e-06
2.94948e-07
7.76587e-06
2.41108e-07
7.77973e-06
1.92217e-07
7.78773e-06
1.61562e-07
7.78643e-06
1.50869e-07
7.77865e-06
1.51214e-07
7.76883e-06
1.51249e-07
7.7608e-06
1.44238e-07
7.75737e-06
1.29504e-07
7.7603e-06
1.10417e-07
7.76984e-06
9.17846e-08
7.78475e-06
7.74423e-08
7.8028e-06
6.92674e-08
7.82155e-06
6.6694e-08
6.89715e-08
7.8387e-06
9.37378e-06
3.25864e-07
9.44291e-06
2.91871e-07
9.47006e-06
3.08947e-07
9.49791e-06
2.67089e-07
9.52516e-06
2.13865e-07
9.54101e-06
1.76362e-07
9.541e-06
1.61569e-07
9.52759e-06
1.64286e-07
9.50766e-06
1.71141e-07
9.489e-06
1.69912e-07
9.47754e-06
1.55693e-07
9.4761e-06
1.30946e-07
9.48445e-06
1.0207e-07
9.50053e-06
7.57025e-08
9.52173e-06
5.62403e-08
9.54561e-06
4.53886e-08
9.57035e-06
4.19612e-08
4.47151e-08
9.5946e-06
1.15477e-05
4.3711e-07
1.14483e-05
3.91329e-07
1.14641e-05
2.93097e-07
1.15068e-05
2.24391e-07
1.15248e-05
1.95856e-07
1.15183e-05
1.82867e-07
1.15105e-05
1.69333e-07
1.15212e-05
1.53643e-07
1.15545e-05
1.37834e-07
1.16021e-05
1.22319e-07
1.16514e-05
1.06371e-07
1.16923e-05
9.00221e-08
1.17201e-05
7.42664e-08
1.17352e-05
6.06291e-08
1.17415e-05
4.9994e-08
1.17438e-05
4.30124e-08
1.17466e-05
3.91825e-08
3.83338e-08
1.1753e-05
8.62655e-06
5.19243e-07
8.57331e-06
4.44568e-07
8.58078e-06
2.85629e-07
8.62029e-06
1.84879e-07
8.65674e-06
1.59416e-07
8.66812e-06
1.71487e-07
8.65454e-06
1.82907e-07
8.63367e-06
1.74517e-07
8.62315e-06
1.48347e-07
8.62918e-06
1.16294e-07
8.64741e-06
8.81379e-08
8.66959e-06
6.78467e-08
8.68882e-06
5.50309e-08
8.70174e-06
4.77127e-08
8.70792e-06
4.38096e-08
8.70894e-06
4.19965e-08
8.70671e-06
4.14159e-08
4.17779e-08
8.70326e-06
7.35002e-06
5.59292e-07
7.38145e-06
4.13135e-07
7.42124e-06
2.45845e-07
7.44647e-06
1.59648e-07
7.46363e-06
1.42252e-07
7.48571e-06
1.4941e-07
7.51669e-06
1.51922e-07
7.55275e-06
1.38461e-07
7.58748e-06
1.13617e-07
7.61595e-06
8.78177e-08
7.63641e-06
6.76827e-08
7.64997e-06
5.42867e-08
7.65926e-06
4.57355e-08
7.66714e-06
3.9833e-08
7.67554e-06
3.54162e-08
7.68529e-06
3.22412e-08
7.69639e-06
3.03176e-08
2.99285e-08
7.70824e-06
6.29576e-06
4.59775e-07
6.34906e-06
3.59837e-07
6.38621e-06
2.08694e-07
6.41009e-06
1.35764e-07
6.43454e-06
1.17808e-07
6.46813e-06
1.15822e-07
6.51083e-06
1.09214e-07
6.55631e-06
9.2986e-08
6.59918e-06
7.0746e-08
6.63706e-06
4.99332e-08
6.66908e-06
3.56721e-08
6.69487e-06
2.84926e-08
6.71477e-06
2.5835e-08
6.7301e-06
2.4505e-08
6.74268e-06
2.28309e-08
6.75414e-06
2.07818e-08
6.76543e-06
1.90276e-08
1.89506e-08
6.77641e-06
5.57203e-06
4.67797e-07
5.61142e-06
3.2045e-07
5.63173e-06
1.88382e-07
5.65258e-06
1.14918e-07
5.68525e-06
8.5139e-08
5.72536e-06
7.57141e-08
5.76487e-06
6.96994e-08
5.79907e-06
5.87842e-08
5.82697e-06
4.28538e-08
5.85006e-06
2.68361e-08
5.87014e-06
1.55966e-08
5.88802e-06
1.06157e-08
5.9036e-06
1.02527e-08
5.916e-06
1.21031e-08
5.92436e-06
1.4469e-08
5.92852e-06
1.66216e-08
5.92903e-06
1.85177e-08
2.02971e-08
5.92769e-06
4.82215e-06
4.40837e-07
4.88349e-06
2.59111e-07
4.93021e-06
1.41657e-07
4.95638e-06
8.87516e-08
4.9808e-06
6.07188e-08
5.0152e-06
4.13088e-08
5.05913e-06
2.57774e-08
5.10381e-06
1.40974e-08
5.13944e-06
7.22461e-09
5.16128e-06
5.00048e-09
5.17072e-06
6.15747e-09
5.17267e-06
8.66402e-09
5.17188e-06
1.10389e-08
5.17112e-06
1.28607e-08
5.17144e-06
1.41517e-08
5.17309e-06
1.4969e-08
5.17639e-06
1.52261e-08
1.45638e-08
5.18212e-06
4.23594e-06
3.25937e-07
4.33522e-06
1.59839e-07
4.38691e-06
8.99613e-08
4.40224e-06
7.34195e-08
4.4089e-06
5.40639e-08
4.42554e-06
2.46685e-08
4.45001e-06
1.30549e-09
4.47279e-06
-8.67927e-09
4.48682e-06
-6.80304e-09
4.49343e-06
-1.6098e-09
4.49818e-06
1.39857e-09
4.5053e-06
1.55048e-09
4.51568e-06
6.54487e-10
4.52847e-06
7.84187e-11
4.54239e-06
2.24557e-10
4.55683e-06
5.2898e-10
4.57186e-06
2.00831e-10
-1.75468e-09
4.58818e-06
3.72139e-06
2.64317e-07
3.77052e-06
1.10706e-07
3.79647e-06
6.40131e-08
3.82356e-06
4.63271e-08
3.85789e-06
1.97361e-08
3.89233e-06
-9.76836e-09
3.92285e-06
-2.92156e-08
3.9486e-06
-3.4428e-08
3.9715e-06
-2.97083e-08
3.9921e-06
-2.22041e-08
4.0095e-06
-1.60069e-08
4.0227e-06
-1.16464e-08
4.03159e-06
-8.23563e-09
4.03693e-06
-5.26035e-09
4.04055e-06
-3.39569e-09
4.04445e-06
-3.37677e-09
4.0506e-06
-5.94851e-09
-1.09008e-08
4.05975e-06
3.28822e-06
1.3157e-07
3.35552e-06
4.33996e-08
3.3714e-06
4.81381e-08
3.38538e-06
3.23472e-08
3.40024e-06
4.87283e-09
3.41122e-06
-2.07479e-08
3.41626e-06
-3.42508e-08
3.41964e-06
-3.78075e-08
3.426e-06
-3.60737e-08
3.43735e-06
-3.355e-08
3.45311e-06
-3.17719e-08
3.47148e-06
-3.00137e-08
3.49049e-06
-2.72485e-08
3.50884e-06
-2.36084e-08
3.52619e-06
-2.07417e-08
3.54287e-06
-2.0061e-08
3.55933e-06
-2.24115e-08
-2.7195e-08
3.57563e-06
2.86426e-06
7.61631e-08
2.92272e-06
-1.50526e-08
2.95723e-06
1.36205e-08
2.99427e-06
-4.69358e-09
3.02324e-06
-2.40973e-08
3.04096e-06
-3.8468e-08
3.05308e-06
-4.63675e-08
3.06268e-06
-4.74038e-08
3.07094e-06
-4.43386e-08
3.07895e-06
-4.15589e-08
3.08816e-06
-4.09843e-08
3.09952e-06
-4.13699e-08
3.11278e-06
-4.05103e-08
3.12679e-06
-3.76154e-08
3.13998e-06
-3.39294e-08
3.15116e-06
-3.12414e-08
3.15947e-06
-3.07272e-08
-3.25336e-08
3.16481e-06
2.52334e-06
7.38635e-08
2.55091e-06
-4.26282e-08
2.59024e-06
-2.57083e-08
2.62477e-06
-3.92274e-08
2.64756e-06
-4.68858e-08
2.66116e-06
-5.2062e-08
2.67002e-06
-5.52286e-08
2.67591e-06
-5.32976e-08
2.67937e-06
-4.77927e-08
2.68073e-06
-4.29272e-08
2.68062e-06
-4.08662e-08
2.67979e-06
-4.05474e-08
2.67893e-06
-3.96471e-08
2.67824e-06
-3.69275e-08
2.67735e-06
-3.30342e-08
2.67552e-06
-2.94099e-08
2.67204e-06
-2.72499e-08
-2.70589e-08
2.66656e-06
2.17101e-06
2.12838e-06
2.10267e-06
2.06345e-06
2.01656e-06
1.9645e-06
1.90927e-06
1.85597e-06
1.80818e-06
1.76525e-06
1.72439e-06
1.68384e-06
1.64419e-06
1.60727e-06
1.57423e-06
1.54482e-06
1.51757e-06
1.49051e-06
-1.4559e-07
1.4559e-07
-2.55361e-07
1.09771e-07
-2.5211e-07
-3.25175e-09
-1.43448e-07
-1.08661e-07
3.56504e-08
-1.79099e-07
2.53597e-07
-2.17947e-07
4.87824e-07
-2.34226e-07
7.2323e-07
-2.35407e-07
9.51213e-07
-2.27982e-07
1.16731e-06
-2.16098e-07
1.36914e-06
-2.01829e-07
1.55504e-06
-1.85899e-07
1.72327e-06
-1.68228e-07
1.87191e-06
-1.48639e-07
1.9985e-06
-1.26593e-07
2.10045e-06
-1.0195e-07
2.17521e-06
-7.47612e-08
2.2203e-06
-4.50891e-08
2.23417e-06
-1.3868e-08
2.21532e-06
1.88506e-08
2.16235e-06
5.29616e-08
2.07555e-06
8.68085e-08
1.95645e-06
1.19095e-07
1.80718e-06
1.49272e-07
1.63152e-06
1.75656e-07
1.43272e-06
1.98803e-07
1.21598e-06
2.16741e-07
9.86221e-07
2.29757e-07
7.50152e-07
2.36069e-07
5.09795e-07
2.40356e-07
2.84664e-07
2.25131e-07
1.31839e-07
1.52825e-07
6.24913e-08
6.93479e-08
3.81592e-08
2.43322e-08
4.72343e-08
-9.07519e-09
1.15925e-07
-6.86905e-08
2.74719e-07
-1.58794e-07
4.49176e-07
-1.74457e-07
6.13988e-07
-1.64812e-07
8.02858e-07
-1.8887e-07
9.11555e-07
-1.08698e-07
9.48273e-07
-3.67181e-08
9.04923e-07
4.33506e-08
6.32312e-07
2.7261e-07
9.9114e-08
5.33198e-07
-5.57948e-07
6.57062e-07
-1.18894e-06
6.30993e-07
-1.73456e-06
5.45614e-07
-2.20987e-06
4.75317e-07
-2.62812e-06
4.18248e-07
-2.99752e-06
3.694e-07
-3.32635e-06
3.28833e-07
-3.61989e-06
2.93539e-07
-3.88195e-06
2.62059e-07
-4.11499e-06
2.33042e-07
-4.32051e-06
2.05515e-07
-4.49943e-06
1.78923e-07
-4.65246e-06
1.53027e-07
-4.78023e-06
1.27773e-07
-4.88351e-06
1.0328e-07
-4.96332e-06
7.98043e-08
-5.021e-06
5.76815e-08
-5.05818e-06
3.71832e-08
-5.07669e-06
1.85064e-08
-5.07842e-06
1.73673e-09
-5.06646e-06
-1.19651e-08
-5.04256e-06
-2.3895e-08
-5.00853e-06
-3.4029e-08
-4.96614e-06
-4.2391e-08
-4.91678e-06
-4.93661e-08
-4.86154e-06
-5.52393e-08
-4.80123e-06
-6.03095e-08
-4.73631e-06
-6.49174e-08
-4.66694e-06
-6.93763e-08
-4.59294e-06
-7.39946e-08
-4.51391e-06
-7.90329e-08
-4.42921e-06
-8.46935e-08
-4.33811e-06
-9.11078e-08
-4.23978e-06
-9.83286e-08
-4.13345e-06
-1.0633e-07
-4.01844e-06
-1.15011e-07
-3.89424e-06
-1.24201e-07
-3.76056e-06
-1.33678e-07
-3.61737e-06
-1.43185e-07
-3.46492e-06
-1.52452e-07
-3.3037e-06
-1.61224e-07
-3.1344e-06
-1.69292e-07
-2.95789e-06
-1.7651e-07
-2.7751e-06
-1.82796e-07
-2.58696e-06
-1.88134e-07
-2.39443e-06
-1.92535e-07
-2.19842e-06
-1.96007e-07
-1.99988e-06
-1.98547e-07
-1.79973e-06
-2.00148e-07
-1.59894e-06
-2.00782e-07
-1.39853e-06
-2.00414e-07
-1.19949e-06
-1.99042e-07
-1.00277e-06
-1.9672e-07
-8.09203e-07
-1.93566e-07
-6.1944e-07
-1.89763e-07
-4.33997e-07
-1.85443e-07
-2.53299e-07
-1.80697e-07
-7.80177e-08
-1.75281e-07
9.10259e-08
-1.69044e-07
2.52743e-07
-1.61717e-07
4.05625e-07
-1.52882e-07
5.48133e-07
-1.42508e-07
6.78892e-07
-1.30759e-07
7.96886e-07
-1.17994e-07
9.01586e-07
-1.04699e-07
9.92983e-07
-9.13974e-08
1.07154e-06
-7.85578e-08
1.13808e-06
-6.65395e-08
1.19365e-06
-5.55682e-08
1.23939e-06
-4.57366e-08
1.27643e-06
-3.7044e-08
1.30584e-06
-2.94104e-08
1.32855e-06
-2.27136e-08
1.34541e-06
-1.68535e-08
1.35707e-06
-1.16671e-08
1.36414e-06
-7.06285e-09
1.36715e-06
-3.01164e-09
1.36646e-06
6.87977e-10
1.36235e-06
4.11087e-09
1.35531e-06
7.03791e-09
1.34589e-06
9.42033e-09
1.33459e-06
1.13056e-08
1.32185e-06
1.27359e-08
1.30811e-06
1.37431e-08
1.2937e-06
1.44098e-08
1.2789e-06
1.47985e-08
1.26395e-06
1.49532e-08
1.24904e-06
1.49061e-08
1.23436e-06
1.4677e-08
1.22008e-06
1.42802e-08
1.20635e-06
1.37329e-08
1.19329e-06
1.30581e-08
1.18101e-06
1.22851e-08
1.16956e-06
1.1448e-08
1.15898e-06
1.05822e-08
1.14925e-06
9.72069e-09
1.14036e-06
8.8921e-09
1.13224e-06
8.11822e-09
1.12483e-06
7.41206e-09
1.11806e-06
6.77749e-09
1.11184e-06
6.21325e-09
1.10613e-06
5.71651e-09
1.10085e-06
5.27983e-09
1.09594e-06
4.90083e-09
1.09137e-06
4.57366e-09
1.08708e-06
4.29345e-09
1.08302e-06
4.05604e-09
1.07916e-06
3.85843e-09
1.07547e-06
3.69757e-09
1.0719e-06
3.57033e-09
1.06842e-06
3.47402e-09
1.06501e-06
3.40985e-09
1.06163e-06
3.37833e-09
1.05825e-06
3.38425e-09
1.05481e-06
3.4382e-09
1.05126e-06
3.54814e-09
1.04755e-06
3.71222e-09
1.04361e-06
3.9428e-09
1.03937e-06
4.23445e-09
1.03475e-06
4.62182e-09
1.02967e-06
5.07852e-09
1.02398e-06
5.69578e-09
1.01759e-06
6.38356e-09
1.01021e-06
7.3836e-09
1.0018e-06
8.40549e-09
9.91691e-07
1.01136e-08
9.80094e-07
1.1597e-08
9.65337e-07
1.47567e-08
9.48604e-07
1.67331e-08
9.25388e-07
2.32157e-08
9.00273e-07
2.51147e-08
8.60119e-07
4.01548e-08
8.21456e-07
3.86622e-08
7.43434e-07
7.80225e-08
5.99785e-08
6.83455e-07
-7.50698e-08
2.2066e-07
-1.09271e-07
1.43973e-07
-3.14149e-08
-8.1108e-08
1.33976e-07
-2.74052e-07
3.437e-07
-3.88823e-07
5.67561e-07
-4.41808e-07
7.89453e-07
-4.56118e-07
1.00321e-06
-4.4916e-07
1.20756e-06
-4.3234e-07
1.40275e-06
-4.11284e-07
1.58871e-06
-3.87788e-07
1.76455e-06
-3.6174e-07
1.92777e-06
-3.31448e-07
2.07507e-06
-2.95934e-07
2.20325e-06
-2.54775e-07
2.30923e-06
-2.07932e-07
2.39034e-06
-1.55871e-07
2.44462e-06
-9.93672e-08
2.47e-06
-3.925e-08
2.46663e-06
2.22164e-08
2.43647e-06
8.31217e-08
2.38055e-06
1.42732e-07
2.30029e-06
1.99359e-07
2.19914e-06
2.50419e-07
2.08049e-06
2.94302e-07
1.94701e-06
3.32291e-07
1.80595e-06
3.578e-07
1.65797e-06
3.77731e-07
1.51413e-06
3.79915e-07
1.38006e-06
3.74421e-07
1.25526e-06
3.4993e-07
1.11217e-06
2.9592e-07
9.48574e-07
2.32944e-07
8.59748e-07
1.13158e-07
8.33867e-07
1.68059e-08
8.1888e-07
-5.37043e-08
8.99928e-07
-2.39842e-07
1.11141e-06
-3.85944e-07
1.16154e-06
-2.14935e-07
9.72882e-07
-2.13715e-10
5.82014e-07
2.82171e-07
-1.04292e-07
6.49588e-07
-9.06485e-07
8.45544e-07
-1.61552e-06
9.81643e-07
-2.15069e-06
1.06837e-06
-2.55456e-06
1.06093e-06
-2.90142e-06
9.77855e-07
-3.23032e-06
8.74517e-07
-3.53319e-06
7.7819e-07
-3.8062e-06
6.91257e-07
-4.05272e-06
6.15916e-07
-4.27448e-06
5.50591e-07
-4.47339e-06
4.92457e-07
-4.65085e-06
4.39515e-07
-4.80756e-06
3.89748e-07
-4.94402e-06
3.41979e-07
-5.0606e-06
2.955e-07
-5.15768e-06
2.50107e-07
-5.23583e-06
2.05928e-07
-5.29576e-06
1.63211e-07
-5.33829e-06
1.22332e-07
-5.36442e-06
8.38083e-08
-5.3753e-06
4.80613e-08
-5.37191e-06
1.51213e-08
-5.3561e-06
-1.40721e-08
-5.32847e-06
-3.95978e-08
-5.29055e-06
-6.1816e-08
-5.24379e-06
-8.07886e-08
-5.18941e-06
-9.67714e-08
-5.12864e-06
-1.1014e-07
-5.06245e-06
-1.21427e-07
-4.99153e-06
-1.3123e-07
-4.91626e-06
-1.40185e-07
-4.83671e-06
-1.48923e-07
-4.75268e-06
-1.58027e-07
-4.66371e-06
-1.68003e-07
-4.56916e-06
-1.79241e-07
-4.46828e-06
-1.91988e-07
-4.36027e-06
-2.06338e-07
-4.24438e-06
-2.22227e-07
-4.11994e-06
-2.39444e-07
-3.9865e-06
-2.57642e-07
-3.84381e-06
-2.76374e-07
-3.69186e-06
-2.95128e-07
-3.53095e-06
-3.13367e-07
-3.36159e-06
-3.30587e-07
-3.1845e-06
-3.46379e-07
-3.00054e-06
-3.60467e-07
-2.81062e-06
-3.72714e-07
-2.61564e-06
-3.83116e-07
-2.41645e-06
-3.91732e-07
-2.21385e-06
-3.986e-07
-2.00868e-06
-4.03721e-07
-1.80175e-06
-4.07078e-07
-1.59392e-06
-4.08606e-07
-1.38614e-06
-4.08192e-07
-1.1794e-06
-4.0579e-07
-9.74622e-07
-4.01496e-07
-7.72656e-07
-3.95532e-07
-5.7411e-07
-3.8831e-07
-3.79345e-07
-3.80208e-07
-1.88745e-07
-3.71297e-07
-2.86407e-09
-3.61163e-07
1.78214e-07
-3.50122e-07
3.52595e-07
-3.36098e-07
5.18931e-07
-3.19218e-07
6.75654e-07
-2.99231e-07
8.21324e-07
-2.76429e-07
9.54888e-07
-2.51558e-07
1.07582e-06
-2.25631e-07
1.18414e-06
-1.99714e-07
1.28032e-06
-1.74746e-07
1.36521e-06
-1.51427e-07
1.43983e-06
-1.30184e-07
1.50529e-06
-1.11196e-07
1.5627e-06
-9.44548e-08
1.6131e-06
-7.98156e-08
1.65746e-06
-6.70693e-08
1.69658e-06
-5.59794e-08
1.73121e-06
-4.62962e-08
1.76195e-06
-3.78006e-08
1.78925e-06
-3.03094e-08
1.81358e-06
-2.3643e-08
1.83536e-06
-1.76662e-08
1.85473e-06
-1.23354e-08
1.8718e-06
-7.64773e-09
1.88667e-06
-3.56578e-09
1.89942e-06
-1.85046e-11
1.91024e-06
2.923e-09
1.91931e-06
5.34704e-09
1.92686e-06
7.24295e-09
1.93319e-06
8.62946e-09
1.93856e-06
9.52852e-09
1.94328e-06
9.96306e-09
1.94759e-06
9.96534e-09
1.95174e-06
9.58285e-09
1.95592e-06
8.88009e-09
1.96027e-06
7.93378e-09
1.96489e-06
6.82886e-09
1.96982e-06
5.65039e-09
1.97507e-06
4.47608e-09
1.98059e-06
3.37031e-09
1.98633e-06
2.37964e-09
1.99221e-06
1.53018e-09
1.99816e-06
8.28825e-10
2.0041e-06
2.71721e-10
2.00998e-06
-1.66138e-10
2.01576e-06
-4.95139e-10
2.02138e-06
-7.18496e-10
2.02681e-06
-8.55477e-10
2.03202e-06
-9.1951e-10
2.03699e-06
-9.15122e-10
2.04169e-06
-8.38781e-10
2.04607e-06
-6.85198e-10
2.05009e-06
-4.51896e-10
2.05371e-06
-1.42095e-10
2.0569e-06
2.21649e-10
2.05964e-06
6.3754e-10
2.06191e-06
1.1131e-09
2.06369e-06
1.65822e-09
2.06495e-06
2.28742e-09
2.06566e-06
3.00078e-09
2.06579e-06
3.81761e-09
2.06529e-06
4.73242e-09
2.06411e-06
5.80331e-09
2.06221e-06
6.97804e-09
2.05948e-06
8.41771e-09
2.05592e-06
9.94462e-09
2.0513e-06
1.20099e-08
2.04566e-06
1.40414e-08
2.03848e-06
1.7294e-08
2.03007e-06
2.0013e-08
2.01911e-06
2.57154e-08
2.00665e-06
2.91942e-08
1.98952e-06
4.03403e-08
1.97055e-06
4.40862e-08
1.94268e-06
6.80253e-08
1.91176e-06
6.95828e-08
1.86528e-06
1.24497e-07
1.18878e-07
1.80638e-06
-1.66935e-08
2.37353e-07
6.79275e-08
5.93517e-08
2.52101e-07
-2.65282e-07
4.67469e-07
-4.8942e-07
6.77147e-07
-5.98501e-07
8.69996e-07
-6.34657e-07
1.0483e-06
-6.34426e-07
1.21961e-06
-6.20464e-07
1.3903e-06
-6.0303e-07
1.5632e-06
-5.8419e-07
1.737e-06
-5.61584e-07
1.90751e-06
-5.32247e-07
2.06978e-06
-4.93725e-07
2.21866e-06
-4.44808e-07
2.34923e-06
-3.85347e-07
2.45735e-06
-3.16048e-07
2.53961e-06
-2.38138e-07
2.59338e-06
-1.53134e-07
2.61692e-06
-6.27871e-08
2.60891e-06
3.02251e-08
2.56922e-06
1.22814e-07
2.49939e-06
2.12558e-07
2.40311e-06
2.9564e-07
2.28578e-06
3.67745e-07
2.15326e-06
4.26829e-07
2.01755e-06
4.67999e-07
1.88006e-06
4.95286e-07
1.7515e-06
5.06292e-07
1.63119e-06
5.00224e-07
1.51768e-06
4.87932e-07
1.41767e-06
4.49944e-07
1.31312e-06
4.0047e-07
1.23282e-06
3.1324e-07
1.12915e-06
2.1683e-07
1.09537e-06
5.05855e-08
1.21606e-06
-1.74395e-07
1.15894e-06
-1.82724e-07
7.71643e-07
1.35458e-09
1.59734e-07
3.96974e-07
-6.15371e-07
7.74891e-07
-1.34027e-06
1.00707e-06
-1.90066e-06
1.20998e-06
-2.38738e-06
1.33226e-06
-2.78031e-06
1.37457e-06
-3.05224e-06
1.34031e-06
-3.2487e-06
1.25738e-06
-3.42382e-06
1.15298e-06
-3.59978e-06
1.05048e-06
-3.77759e-06
9.56001e-07
-3.9558e-06
8.69466e-07
-4.13134e-06
7.91453e-07
-4.3007e-06
7.1995e-07
-4.46098e-06
6.52742e-07
-4.60956e-06
5.88096e-07
-4.74437e-06
5.24552e-07
-4.8638e-06
4.61414e-07
-4.96673e-06
3.98427e-07
-5.05244e-06
3.35815e-07
-5.12062e-06
2.74113e-07
-5.17142e-06
2.14005e-07
-5.2053e-06
1.56215e-07
-5.22295e-06
1.01457e-07
-5.22528e-06
5.03934e-08
-5.21329e-06
3.13371e-09
-5.18965e-06
-3.77116e-08
-5.15501e-06
-7.42425e-08
-5.11099e-06
-1.05839e-07
-5.05918e-06
-1.32597e-07
-5.00095e-06
-1.54999e-07
-4.93742e-06
-1.73672e-07
-4.86944e-06
-1.89405e-07
-4.79758e-06
-2.03093e-07
-4.72209e-06
-2.15677e-07
-4.64292e-06
-2.28088e-07
-4.55976e-06
-2.41186e-07
-4.47206e-06
-2.55702e-07
-4.37911e-06
-2.72194e-07
-4.28009e-06
-2.91008e-07
-4.17417e-06
-3.12255e-07
-4.06059e-06
-3.35811e-07
-3.9387e-06
-3.61335e-07
-3.80805e-06
-3.88293e-07
-3.66842e-06
-4.16003e-07
-3.51986e-06
-4.43688e-07
-3.36268e-06
-4.70542e-07
-3.19746e-06
-4.95809e-07
-3.02497e-06
-5.18873e-07
-2.84611e-06
-5.39326e-07
-2.66184e-06
-5.56985e-07
-2.47308e-06
-5.71874e-07
-2.28067e-06
-5.84138e-07
-2.08539e-06
-5.93885e-07
-1.88797e-06
-6.01136e-07
-1.68915e-06
-6.05902e-07
-1.48964e-06
-6.08111e-07
-1.29029e-06
-6.0755e-07
-1.09199e-06
-6.04086e-07
-8.9561e-07
-5.97874e-07
-7.01864e-07
-5.89278e-07
-5.11177e-07
-5.78996e-07
-3.2357e-07
-5.67815e-07
-1.39053e-07
-5.55815e-07
4.24753e-08
-5.42691e-07
2.20031e-07
-5.27677e-07
3.92571e-07
-5.08638e-07
5.58135e-07
-4.84782e-07
7.14581e-07
-4.55678e-07
8.59935e-07
-4.21783e-07
9.92767e-07
-3.84389e-07
1.11241e-06
-3.45272e-07
1.21896e-06
-3.06261e-07
1.31311e-06
-2.689e-07
1.39595e-06
-2.34265e-07
1.46871e-06
-2.02946e-07
1.53264e-06
-1.75128e-07
1.58889e-06
-1.50708e-07
1.63849e-06
-1.29413e-07
1.68233e-06
-1.10903e-07
1.72118e-06
-9.48328e-08
1.75577e-06
-8.08872e-08
1.78676e-06
-6.87923e-08
1.81475e-06
-5.82952e-08
1.84027e-06
-4.91674e-08
1.86379e-06
-4.11883e-08
1.88562e-06
-3.4164e-08
1.90592e-06
-2.79492e-08
1.92478e-06
-2.24244e-08
1.94227e-06
-1.75109e-08
1.9584e-06
-1.32013e-08
1.97322e-06
-9.47082e-09
1.9868e-06
-6.34445e-09
1.99929e-06
-3.85331e-09
2.01084e-06
-2.02377e-09
2.02168e-06
-8.73684e-10
2.03203e-06
-3.84593e-10
2.04211e-06
-5.01492e-10
2.05213e-06
-1.13888e-09
2.06225e-06
-2.18647e-09
2.07259e-06
-3.51471e-09
2.08323e-06
-4.98955e-09
2.09419e-06
-6.48552e-09
2.10546e-06
-7.89662e-09
2.11699e-06
-9.14481e-09
2.1287e-06
-1.01848e-08
2.14053e-06
-1.10016e-08
2.1524e-06
-1.15998e-08
2.16423e-06
-1.19949e-08
2.17595e-06
-1.22126e-08
2.18751e-06
-1.22779e-08
2.19887e-06
-1.22196e-08
2.21001e-06
-1.2056e-08
2.22089e-06
-1.17924e-08
2.23147e-06
-1.14263e-08
2.24175e-06
-1.09585e-08
2.25169e-06
-1.03969e-08
2.2613e-06
-9.75234e-09
2.27055e-06
-9.02551e-09
2.2794e-06
-8.21101e-09
2.28781e-06
-7.29437e-09
2.29573e-06
-6.26823e-09
2.30313e-06
-5.11448e-09
2.30997e-06
-3.83756e-09
2.31619e-06
-2.39661e-09
2.32172e-06
-7.96428e-10
2.32647e-06
1.04421e-09
2.33043e-06
3.02594e-09
2.33349e-06
5.35236e-09
2.33566e-06
7.7786e-09
2.3368e-06
1.08643e-08
2.33694e-06
1.39093e-08
2.33586e-06
1.83735e-08
2.33357e-06
2.22953e-08
2.3298e-06
2.94852e-08
2.3244e-06
3.45944e-08
2.31725e-06
4.74946e-08
2.30729e-06
5.40414e-08
2.29599e-06
7.93288e-08
2.2782e-06
8.73723e-08
2.26332e-06
1.39374e-07
1.52487e-07
2.22972e-06
3.26439e-08
2.0471e-07
2.49305e-07
-1.57309e-07
5.03941e-07
-5.19918e-07
7.20493e-07
-7.05972e-07
8.91452e-07
-7.6946e-07
1.03645e-06
-7.79656e-07
1.17759e-06
-7.7556e-07
1.32887e-06
-7.71747e-07
1.49492e-06
-7.6908e-07
1.67289e-06
-7.62156e-07
1.85584e-06
-7.44538e-07
2.03539e-06
-7.11803e-07
2.20386e-06
-6.62186e-07
2.3551e-06
-5.96048e-07
2.48467e-06
-5.14922e-07
2.58967e-06
-4.21049e-07
2.66825e-06
-3.16716e-07
2.71908e-06
-2.03966e-07
2.74143e-06
-8.51353e-08
2.73283e-06
3.88235e-08
2.68947e-06
1.66176e-07
2.612e-06
2.90033e-07
2.50196e-06
4.05676e-07
2.36252e-06
5.07182e-07
2.2017e-06
5.87647e-07
2.02823e-06
6.41473e-07
1.85695e-06
6.66564e-07
1.69667e-06
6.66573e-07
1.54594e-06
6.50951e-07
1.42157e-06
6.12305e-07
1.29629e-06
5.75225e-07
1.19745e-06
4.99308e-07
1.08404e-06
4.26654e-07
9.49867e-07
3.51001e-07
8.93352e-07
1.07101e-07
7.03807e-07
1.51502e-08
1.70688e-07
3.50394e-07
-6.25509e-07
7.97552e-07
-1.31384e-06
1.08531e-06
-1.86342e-06
1.32447e-06
-2.34846e-06
1.49212e-06
-2.722e-06
1.58351e-06
-2.98646e-06
1.59672e-06
-3.16624e-06
1.55435e-06
-3.29688e-06
1.47094e-06
-3.40982e-06
1.37033e-06
-3.52431e-06
1.26746e-06
-3.64542e-06
1.17159e-06
-3.77432e-06
1.08491e-06
-3.91041e-06
1.00555e-06
-4.0501e-06
9.31142e-07
-4.18894e-06
8.58788e-07
-4.32261e-06
7.86408e-07
-4.44724e-06
7.12728e-07
-4.55988e-06
6.37194e-07
-4.65847e-06
5.60008e-07
-4.74181e-06
4.81763e-07
-4.80933e-06
4.03338e-07
-4.86095e-06
3.25726e-07
-4.89689e-06
2.49951e-07
-4.91771e-06
1.77038e-07
-4.92423e-06
1.07969e-07
-4.91724e-06
4.34128e-08
-4.89855e-06
-1.55619e-08
-4.86829e-06
-6.79731e-08
-4.8284e-06
-1.14129e-07
-4.78044e-06
-1.53803e-07
-4.7258e-06
-1.87232e-07
-4.6658e-06
-2.15002e-07
-4.60148e-06
-2.37995e-07
-4.5336e-06
-2.57282e-07
-4.46262e-06
-2.74071e-07
-4.38868e-06
-2.89617e-07
-4.31162e-06
-3.05145e-07
-4.23104e-06
-3.21765e-07
-4.14635e-06
-3.40399e-07
-4.05681e-06
-3.61727e-07
-3.96167e-06
-3.86148e-07
-3.86017e-06
-4.13762e-07
-3.7516e-06
-4.44375e-07
-3.6354e-06
-4.77536e-07
-3.51112e-06
-5.12577e-07
-3.37848e-06
-5.4864e-07
-3.23743e-06
-5.84743e-07
-3.08812e-06
-6.1985e-07
-2.93095e-06
-6.52982e-07
-2.76648e-06
-6.83339e-07
-2.59543e-06
-7.10378e-07
-2.41858e-06
-7.33833e-07
-2.23677e-06
-7.53685e-07
-2.05086e-06
-7.70051e-07
-1.86176e-06
-7.82988e-07
-1.67048e-06
-7.92407e-07
-1.47816e-06
-7.9823e-07
-1.28594e-06
-8.00322e-07
-1.09515e-06
-7.98342e-07
-9.07105e-07
-7.92133e-07
-7.22889e-07
-7.8209e-07
-5.43104e-07
-7.69062e-07
-3.67821e-07
-7.54279e-07
-1.96208e-07
-7.39429e-07
-2.73891e-08
-7.24634e-07
1.40399e-07
-7.10479e-07
3.06525e-07
-6.93803e-07
4.70529e-07
-6.72642e-07
6.30549e-07
-6.44802e-07
7.83951e-07
-6.09079e-07
9.27909e-07
-5.65742e-07
1.06003e-06
-5.16513e-07
1.17884e-06
-4.64075e-07
1.28393e-06
-4.11356e-07
1.37591e-06
-3.60884e-07
1.45606e-06
-3.14405e-07
1.52592e-06
-2.72813e-07
1.5871e-06
-2.36302e-07
1.64099e-06
-2.04597e-07
1.68874e-06
-1.77167e-07
1.73122e-06
-1.53379e-07
1.769e-06
-1.32616e-07
1.80246e-06
-1.14346e-07
1.83184e-06
-9.81772e-08
1.85741e-06
-8.3866e-08
1.87954e-06
-7.12925e-08
1.89874e-06
-6.03873e-08
1.91564e-06
-5.10636e-08
1.93087e-06
-4.31772e-08
1.94496e-06
-3.65157e-08
1.95828e-06
-3.08324e-08
1.97101e-06
-2.59324e-08
1.98323e-06
-2.16903e-08
1.99495e-06
-1.80658e-08
2.00619e-06
-1.50879e-08