/*--------------------------------*- C++ -*----------------------------------*\
  =========                 |
  \\      /  F ield         | OpenFOAM: The Open Source CFD Toolbox
   \\    /   O peration     | Website:  https://openfoam.org
    \\  /    A nd           | Version:  7
     \\/     M anipulation  |
\*---------------------------------------------------------------------------*/
FoamFile
{
    version     2.0;
    format      ascii;
    class       volScalarField;
    location    "0.058";
    object      s;
}
// * * * * * * * * * * * * * * * * * * * * * * * * * * * * * * * * * * * * * //

dimensions      [0 0 0 0 0 0 0];

internalField   nonuniform List<scalar> 
12225
(
1
1
1
1
1
1
1
1
1
1
1
1
1
1
1
1
1
1
1
1
1
1
1
1
1
1
1
1
1
1
1
1
1
1
1
1
1
1
1
1
1
1
1
1
1
1
1
1
1
1
1
1
1
1
1
1
1
1
1
1
1
1
1
1
1
1
1
1
1
1
1
1
1
1
1
1
1
1
1
1
1
1
1
1
1
1
1
1
1
1
1
1
1
1
1
1
1
1
1
1
1
1
1
1
1
1
1
1
1
1
1
1
1
1
1
1
1
1
1
1
1
1
1
1
1
1
1
1
1
1
1
1
1
1
1
1
1
1
1
1
1
1
1
1
1
1
1
1
1
1
1
1
1
1
1
1
1
1
1
1
1
1
1
1
1
1
1
1
1
1
1
1
1
1
1
1
1
1
1
1
1
1
1
1
1
1
1
1
1
1
1
1
1
1
1
1
1
1
1
1
1
1
1
1
1
1
1
1
1
1
1
1
1
1
1
1
1
1
1
1
1
1
1
1
1
1
1
1
1
1
1
1
1
1
1
1
1
1
1
1
1
1
1
1
1
1
1
1
1
1
1
1
1
1
1
1
1
1
1
1
1
1
1
1
1
1
1
1
1
1
1
1
1
1
1
1
1
1
1
1
1
1
1
1
1
1
1
1
1
1
1
1
1
1
1
1
1
1
1
1
1
1
1
1
1
1
1
1
1
1
1
1
1
1
1
1
1
1
1
1
1
1
1
1
1
1
1
1
1
1
1
1
1
1
1
1
1
1
1
1
1
1
1
1
1
1
1
1
1
1
1
1
1
1
1
1
1
1
1
1
1
1
1
1
1
1
1
1
1
1
1
1
1
1
1
1
1
1
1
1
1
1
1
1
1
1
1
1
1
1
1
1
1
1
1
1
1
1
1
1
1
1
1
1
1
1
1
1
1
1
1
1
1
1
1
1
1
1
1
1
1
1
1
1
1
1
1
1
1
1
1
1
1
1
1
1
1
1
1
1
1
1
1
1
1
1
1
1
1
1
1
1
1
1
1
1
1
1
1
1
1
1
1
1
1
1
1
1
1
1
1
1
1
1
1
1
1
1
1
1
1
1
1
1
1
1
1
1
1
1
1
1
1
1
1
1
1
1
1
1
1
1
1
1
1
1
1
1
1
1
1
1
1
1
1
1
1
1
1
1
1
1
1
1
1
1
1
1
1
1
1
1
1
1
1
1
1
1
1
1
1.62408e-05
0.000102173
0.000318961
0.000782608
0.00154669
0.00323785
0.00484228
0.00780334
0.0147092
0.0187545
0.0269838
0.0341337
0.0418433
0.048078
0.055378
0.0594298
0.0619688
0.0615223
0.0598452
0.0563495
0.0529483
0.0502101
0.0471777
0.0437046
0.0406754
0.0378991
0.0355764
0.0322789
0.0293289
0.0238336
0.0111626
0.00229098
0.000532911
0.000926801
0.00182521
0.00316552
0.00541678
0.0085009
0.0118057
0.0183491
0.0301964
0.0362926
0.0518218
0.213367
0.602633
0.750506
0.789365
0.792619
0.792323
0.789694
0.784012
0.778332
0.776353
0.775466
0.774655
0.773069
0.772075
0.77191
0.771998
0.772642
0.773982
0.7754
0.775948
0.776167
0.776466
0.777042
0.777468
0.777912
0.77799
0.777624
0.77699
0.776899
0.776996
0.777241
0.777552
0.777808
0.777902
0.777903
0.777803
0.777803
0.777745
0.77734
0.776263
0.774811
0.773166
0.771358
0.768948
0.76568
0.761456
0.756655
0.751483
0.745284
0.737676
0.729013
0.719668
0.708793
0.696491
0.682862
0.667534
0.650519
0.631228
0.609683
0.585096
0.557264
0.52574
0.49026
0.450569
0.406714
0.359147
0.308855
0.257436
0.207054
0.16028
0.119709
0.0872424
0.0626915
0.043497
0.0288009
0.0181154
0.0107766
0.00603377
0.00308228
0.00142921
0.000633512
0.00026934
0.000110054
4.32855e-05
1.6405e-05
6.00878e-06
2.14478e-06
7.06088e-07
1.96193e-07
8.91027e-08
4.11314e-08
1.87324e-08
8.3384e-09
3.63012e-09
1.54815e-09
6.47184e-10
2.65254e-10
1.06621e-10
4.2052e-11
1.62839e-11
6.19541e-12
2.31785e-12
8.53508e-13
3.09636e-13
1.10752e-13
3.90809e-14
1.36104e-14
4.67899e-15
1.58769e-15
5.31469e-16
1.75324e-16
5.69142e-17
1.81595e-17
5.69559e-18
1.75665e-18
5.32899e-19
1.59023e-19
4.66795e-20
1.34769e-20
3.82616e-21
1.06789e-21
2.9291e-22
7.89249e-23
2.08819e-23
5.4221e-24
1.38086e-24
3.44652e-25
8.4238e-26
2.01374e-26
4.7027e-27
1.07052e-27
2.37123e-28
5.08756e-29
1.05469e-29
2.08887e-30
3.9027e-31
-2.41143e-32
1.29037e-05
0.000103698
0.000588285
0.00201817
0.0048672
0.0107882
0.0196677
0.037591
0.0716643
0.104823
0.15451
0.194524
0.246755
0.286043
0.325525
0.348017
0.367324
0.369828
0.36614
0.356051
0.33453
0.306389
0.272725
0.225059
0.178939
0.137954
0.105588
0.0794323
0.0601517
0.0462941
0.0313693
0.018742
0.01165
0.00770784
0.00511905
0.00508802
0.00724399
0.0178517
0.0394836
0.0388201
0.0741163
0.359406
0.535624
0.6734
0.785487
0.832504
0.854473
0.86956
0.882998
0.891248
0.897893
0.90708
0.914577
0.922238
0.926064
0.931284
0.934826
0.939036
0.941851
0.943482
0.944373
0.944715
0.944484
0.943159
0.942451
0.941056
0.940286
0.939765
0.939362
0.938954
0.938625
0.938012
0.93708
0.935574
0.933581
0.931129
0.928193
0.925096
0.922067
0.919544
0.91737
0.915831
0.915285
0.915176
0.915908
0.917906
0.920376
0.924216
0.928345
0.932852
0.93852
0.944455
0.950227
0.955232
0.959876
0.964542
0.968528
0.972181
0.975072
0.977286
0.978784
0.979693
0.980146
0.979888
0.978184
0.974728
0.96916
0.960933
0.949265
0.933014
0.910633
0.880218
0.839398
0.78559
0.716853
0.633984
0.541484
0.443951
0.347803
0.260939
0.189751
0.135186
0.0935239
0.0625299
0.040429
0.0253065
0.0153552
0.00902619
0.00518294
0.00291291
0.00160519
0.000868684
0.000462289
0.000242191
0.000125018
6.36226e-05
3.19315e-05
1.58059e-05
7.7149e-06
3.71186e-06
1.75956e-06
8.21393e-07
3.77459e-07
1.70731e-07
7.60598e-08
3.3452e-08
1.45686e-08
6.25696e-09
2.63671e-09
1.08693e-09
4.37426e-10
1.71527e-10
6.53774e-11
2.4141e-11
8.60011e-12
2.94982e-12
9.8575e-13
3.22725e-13
1.03542e-13
3.25615e-14
1.00375e-14
3.03302e-15
8.98321e-16
2.60766e-16
7.41778e-17
2.06747e-17
5.64477e-18
1.50944e-18
3.95166e-19
1.01261e-19
2.5379e-20
6.22018e-21
1.4885e-21
3.47825e-22
7.90865e-23
1.75208e-23
3.74934e-24
7.74192e-25
1.43773e-25
-2.00314e-25
8.49542e-06
0.00014642
0.00153837
0.00496607
0.0124084
0.0279803
0.0594935
0.132641
0.225484
0.358669
0.469171
0.555599
0.606155
0.631892
0.647855
0.650196
0.649048
0.645302
0.641433
0.636124
0.629452
0.614969
0.598636
0.572865
0.53084
0.469855
0.385795
0.299008
0.202116
0.134594
0.0911343
0.0595706
0.040634
0.0276104
0.019736
0.020128
0.0267974
0.0435425
0.15864
0.437145
0.569328
0.718607
0.781896
0.839475
0.86598
0.878893
0.88833
0.892708
0.894345
0.894727
0.894506
0.893169
0.892118
0.888803
0.879735
0.869224
0.858738
0.850563
0.842761
0.837415
0.832318
0.826925
0.822739
0.820025
0.818063
0.816651
0.815489
0.813839
0.812069
0.809715
0.806905
0.803852
0.800507
0.796801
0.793068
0.78947
0.785787
0.78261
0.781568
0.781365
0.781799
0.783347
0.785758
0.788974
0.792446
0.795361
0.798335
0.802073
0.80605
0.810731
0.816888
0.824064
0.833337
0.845026
0.859231
0.875833
0.893584
0.912015
0.929763
0.946199
0.959997
0.970311
0.978134
0.984328
0.989255
0.992986
0.995538
0.997049
0.997802
0.998057
0.998012
0.99735
0.995631
0.992806
0.9882
0.980635
0.967766
0.945166
0.905924
0.842111
0.749053
0.631055
0.501526
0.376222
0.26984
0.188195
0.127628
0.0841095
0.0539091
0.0336765
0.0205543
0.0122897
0.00721834
0.00417587
0.00238509
0.0013475
0.000753934
0.000417921
0.000229425
0.000124597
6.68364e-05
3.53485e-05
1.83987e-05
9.40892e-06
4.72106e-06
2.32179e-06
1.11832e-06
5.27335e-07
2.43385e-07
1.09938e-07
4.85984e-08
2.10217e-08
8.89634e-09
3.68277e-09
1.49104e-09
5.90316e-10
2.28486e-10
8.64368e-11
3.19493e-11
1.15341e-11
4.065e-12
1.39791e-12
4.68687e-13
1.53124e-13
4.89598e-14
1.53554e-14
4.72294e-15
1.42448e-15
4.21138e-16
1.22037e-16
3.46348e-17
9.62836e-18
2.61731e-18
6.96335e-19
1.80595e-19
4.58001e-20
1.12514e-20
2.70035e-21
6.24102e-22
1.19249e-22
2.15853e-05
0.00145801
0.0053515
0.0133629
0.0320988
0.0761079
0.173589
0.374755
0.563065
0.655185
0.696435
0.712283
0.710822
0.70492
0.69778
0.681286
0.667902
0.653697
0.6431
0.640975
0.640171
0.63934
0.637878
0.634809
0.628376
0.614862
0.59061
0.544216
0.462239
0.371787
0.262049
0.148488
0.111384
0.0880658
0.0557594
0.0553818
0.152436
0.42412
0.592791
0.71003
0.781834
0.82524
0.845179
0.859519
0.866524
0.870632
0.871809
0.868729
0.860391
0.848734
0.827905
0.81138
0.799363
0.787706
0.782006
0.779211
0.777901
0.777554
0.778333
0.779021
0.778702
0.778073
0.777308
0.776471
0.775613
0.774356
0.772568
0.769872
0.765959
0.760695
0.754226
0.746872
0.740892
0.738837
0.73828
0.738215
0.738739
0.740641
0.744207
0.749029
0.754265
0.759191
0.76409
0.769497
0.774474
0.777933
0.780552
0.782579
0.78398
0.785384
0.786771
0.787597
0.78914
0.792255
0.796072
0.800941
0.80829
0.818884
0.833
0.850565
0.871541
0.893869
0.915549
0.935033
0.952063
0.967005
0.979527
0.988493
0.99396
0.997107
0.99866
0.999375
0.999677
0.999784
0.99981
0.999794
0.999684
0.999377
0.998673
0.997089
0.993434
0.984717
0.96309
0.906688
0.795204
0.653596
0.5023
0.364103
0.254082
0.172265
0.113728
0.0733219
0.0462953
0.0287043
0.0175175
0.0105411
0.00626124
0.0036723
0.00212593
0.00121357
0.000682158
0.000376996
0.000204532
0.00010879
5.66729e-05
2.8894e-05
1.44112e-05
7.03001e-06
3.35401e-06
1.56515e-06
7.14465e-07
3.19061e-07
1.39397e-07
5.95838e-08
2.49173e-08
1.01945e-08
4.08034e-09
1.59755e-09
6.11731e-10
2.29051e-10
8.38404e-11
2.99924e-11
1.04825e-11
3.57844e-12
1.19243e-12
3.87675e-13
1.23033e-13
3.82674e-14
1.1663e-14
3.48337e-15
1.01879e-15
2.91852e-16
8.17625e-17
2.24198e-17
5.99674e-18
1.56858e-18
3.98253e-19
9.87809e-20
2.35949e-20
5.34452e-21
0.00104514
0.00800007
0.0146736
0.0305404
0.077371
0.198589
0.481988
0.651479
0.716732
0.737519
0.735895
0.728779
0.711057
0.667895
0.628674
0.553536
0.500344
0.45328
0.422776
0.424954
0.438996
0.475284
0.529671
0.575365
0.605831
0.613344
0.612734
0.6056
0.581226
0.521095
0.411659
0.327344
0.2183
0.10521
0.0877489
0.280365
0.550296
0.680698
0.768903
0.810141
0.830631
0.83914
0.841845
0.840687
0.822813
0.79422
0.77391
0.76076
0.754121
0.752213
0.757913
0.758671
0.75895
0.758127
0.755058
0.752651
0.751834
0.751777
0.753755
0.759223
0.763456
0.764354
0.764319
0.763742
0.762906
0.761779
0.760125
0.757573
0.753578
0.7477
0.73964
0.729489
0.723795
0.722453
0.722295
0.72299
0.725775
0.731363
0.73935
0.748367
0.7571
0.766036
0.77557
0.785546
0.791924
0.795219
0.798177
0.800074
0.800799
0.801208
0.801394
0.800975
0.800276
0.799698
0.799598
0.800023
0.802302
0.806682
0.814344
0.825171
0.83864
0.855416
0.874357
0.894029
0.912822
0.929776
0.945417
0.960851
0.975276
0.986468
0.993352
0.996936
0.99869
0.999473
0.999792
0.999913
0.999956
0.99997
0.999972
0.999966
0.99993
0.99981
0.999451
0.998382
0.99514
0.985203
0.954521
0.85982
0.694473
0.527768
0.380747
0.265386
0.180077
0.119423
0.0776454
0.0496012
0.0311731
0.0192829
0.0117362
0.00702195
0.00412493
0.00237574
0.0013398
0.000739036
0.000398414
0.000209817
0.000107918
5.42119e-05
2.66018e-05
1.27539e-05
5.97584e-06
2.73697e-06
1.22555e-06
5.36582e-07
2.29735e-07
9.61877e-08
3.93833e-08
1.57681e-08
6.1726e-09
2.36219e-09
8.83551e-10
3.22945e-10
1.15318e-10
4.02203e-11
1.36977e-11
4.55445e-12
1.47763e-12
4.67581e-13
1.44694e-13
4.3847e-14
1.30038e-14
3.77486e-15
1.07132e-15
2.97397e-16
8.05575e-17
2.1321e-17
5.48695e-18
1.37728e-18
3.34502e-19
7.75644e-20
0.013428
0.0172857
0.0258948
0.0578611
0.177882
0.493428
0.677041
0.740471
0.752751
0.748687
0.732195
0.686543
0.58626
0.458594
0.331622
0.258482
0.208861
0.183734
0.159903
0.156123
0.161894
0.180045
0.223897
0.315023
0.476995
0.568099
0.602676
0.607643
0.603404
0.579513
0.511971
0.36305
0.191234
0.114133
0.291111
0.608021
0.73567
0.795716
0.824268
0.833589
0.834983
0.82691
0.803943
0.744554
0.685331
0.659614
0.650398
0.647711
0.648547
0.663299
0.676257
0.681856
0.689981
0.695765
0.696479
0.695559
0.695454
0.698086
0.702095
0.703273
0.703715
0.705039
0.709232
0.713362
0.713695
0.712662
0.710982
0.709212
0.70708
0.703945
0.698998
0.692212
0.689365
0.689014
0.690233
0.694759
0.703446
0.715942
0.730584
0.744977
0.757048
0.768306
0.778745
0.788451
0.793167
0.795254
0.797048
0.798037
0.798146
0.798332
0.799372
0.801066
0.803999
0.80725
0.810014
0.812465
0.814685
0.817162
0.820554
0.826327
0.83597
0.849399
0.86613
0.884372
0.903129
0.920494
0.935109
0.947422
0.958544
0.969547
0.980528
0.9895
0.995021
0.997783
0.999071
0.99963
0.999857
0.999945
0.999977
0.999989
0.999992
0.999992
0.999989
0.999972
0.999907
0.999675
0.99885
0.99594
0.985755
0.950863
0.836632
0.653179
0.485148
0.347102
0.241718
0.164471
0.109599
0.0716008
0.0458603
0.0287795
0.0176766
0.0106139
0.00622355
0.00356062
0.00198657
0.00108062
0.000573111
0.000296416
0.000149557
7.36418e-05
3.54012e-05
1.66201e-05
7.62241e-06
3.41574e-06
1.49581e-06
6.40189e-07
2.6779e-07
1.09477e-07
4.37386e-08
1.70752e-08
6.51259e-09
2.42636e-09
8.82836e-10
3.13651e-10
1.08781e-10
3.68239e-11
1.21634e-11
3.91952e-12
1.23142e-12
3.78257e-13
1.13632e-13
3.33852e-14
9.58527e-15
2.68977e-15
7.36545e-16
1.96897e-16
5.12341e-17
1.29884e-17
3.19528e-18
7.52967e-19
0.0194506
0.0201596
0.032524
0.101875
0.392483
0.655999
0.74751
0.762971
0.757666
0.731713
0.65599
0.474759
0.319623
0.230916
0.18152
0.15678
0.135666
0.122812
0.113588
0.096445
0.0925085
0.0957057
0.109441
0.148806
0.249323
0.451484
0.569436
0.602858
0.603644
0.586399
0.510415
0.320419
0.161586
0.24542
0.615682
0.761657
0.816112
0.836688
0.842316
0.838443
0.822579
0.781895
0.692623
0.62414
0.599642
0.591044
0.589044
0.591297
0.604586
0.618106
0.630201
0.6363
0.640204
0.641487
0.641368
0.64038
0.639627
0.639066
0.638
0.63697
0.636744
0.637755
0.639335
0.640402
0.641679
0.642023
0.641818
0.641482
0.641011
0.640756
0.640696
0.640941
0.642252
0.64573
0.651765
0.660705
0.672639
0.687252
0.703489
0.720947
0.737904
0.751613
0.762077
0.765894
0.766472
0.766175
0.765216
0.763899
0.762572
0.761408
0.760754
0.762229
0.766481
0.774184
0.784215
0.794885
0.805071
0.814579
0.824538
0.833268
0.842998
0.854541
0.868227
0.884139
0.901427
0.918879
0.934131
0.946502
0.956508
0.965268
0.973392
0.981106
0.988247
0.993814
0.997137
0.998765
0.999495
0.999802
0.999924
0.999971
0.999989
0.999995
0.999997
0.999997
0.999996
0.999991
0.999967
0.99987
0.999497
0.99808
0.992827
0.973847
0.907422
0.737259
0.559266
0.408665
0.290331
0.201098
0.135942
0.0896844
0.0577054
0.0361813
0.022089
0.0131235
0.00758562
0.00426595
0.00233477
0.00124414
0.000645845
0.000326783
0.000161247
7.76283e-05
3.64763e-05
1.67337e-05
7.49642e-06
3.27992e-06
1.4017e-06
5.85104e-07
2.38551e-07
9.49861e-08
3.6933e-08
1.4021e-08
5.19609e-09
1.87947e-09
6.63397e-10
2.28467e-10
7.67534e-11
2.51502e-11
8.03472e-12
2.50368e-12
7.62384e-13
2.2687e-13
6.59436e-14
1.87212e-14
5.18596e-15
1.40156e-15
3.68931e-16
9.45674e-17
2.3565e-17
5.64111e-18
0.0197004
0.0203142
0.0434511
0.175694
0.542234
0.732561
0.770628
0.766554
0.737938
0.647678
0.433178
0.292747
0.218516
0.174626
0.154803
0.143351
0.130262
0.120402
0.10856
0.0910144
0.0740276
0.0706235
0.0740099
0.0896342
0.143244
0.317891
0.506639
0.587697
0.601505
0.580521
0.468409
0.223071
0.220023
0.578905
0.769618
0.831207
0.850383
0.854601
0.850089
0.830473
0.784939
0.690986
0.604548
0.574323
0.565474
0.563871
0.56738
0.579731
0.594499
0.607886
0.617238
0.622318
0.624909
0.626225
0.626944
0.627087
0.627114
0.627254
0.627744
0.628225
0.628772
0.628976
0.629221
0.629742
0.630156
0.6312
0.632009
0.632396
0.632878
0.633662
0.634263
0.635219
0.636653
0.640679
0.64694
0.655563
0.66685
0.680529
0.695224
0.710381
0.72394
0.736091
0.745353
0.750621
0.753425
0.754767
0.755546
0.755971
0.755838
0.755286
0.754546
0.754965
0.756927
0.761516
0.767905
0.774909
0.781542
0.787382
0.793849
0.80781
0.830273
0.853675
0.873658
0.892433
0.909132
0.923264
0.93793
0.951554
0.961292
0.967812
0.973559
0.979552
0.985295
0.990245
0.994237
0.997048
0.99866
0.999438
0.999776
0.999914
0.999968
0.999988
0.999995
0.999998
0.999999
0.999999
0.999998
0.999995
0.999979
0.999915
0.999656
0.998652
0.994884
0.981151
0.93271
0.786662
0.604043
0.446489
0.319986
0.222654
0.150458
0.0987114
0.0628544
0.0388363
0.0232864
0.0135543
0.00766307
0.00421095
0.0022508
0.0011711
0.00059353
0.000293182
0.000141217
6.63518e-05
3.04201e-05
1.36113e-05
5.94459e-06
2.53428e-06
1.05461e-06
4.28368e-07
1.69818e-07
6.56954e-08
2.47977e-08
9.13166e-09
3.28006e-09
1.14908e-09
3.92549e-10
1.30756e-10
4.24587e-11
1.3437e-11
4.15014e-12
1.25182e-12
3.68636e-13
1.05967e-13
2.97166e-14
8.12734e-15
2.16571e-15
5.61951e-16
1.41909e-16
3.45167e-17
0.0196132
0.0200174
0.0547348
0.270086
0.653209
0.769882
0.776316
0.754345
0.672038
0.489675
0.325973
0.237994
0.192392
0.165309
0.161381
0.163032
0.159542
0.137297
0.104353
0.0742734
0.054513
0.0504161
0.0538789
0.0741792
0.143172
0.335256
0.516852
0.590843
0.597034
0.544907
0.311924
0.241425
0.465173
0.757143
0.838226
0.861361
0.866059
0.863692
0.847749
0.813404
0.739045
0.620409
0.571029
0.557151
0.554681
0.556832
0.566613
0.581519
0.59787
0.607844
0.614642
0.618575
0.620685
0.621485
0.621713
0.621499
0.62088
0.620455
0.620044
0.619402
0.619166
0.619403
0.620791
0.621636
0.622629
0.626798
0.631088
0.633885
0.637439
0.642166
0.646379
0.651824
0.657755
0.663685
0.669877
0.677443
0.686499
0.697251
0.709663
0.722096
0.731737
0.739867
0.7475
0.753084
0.758441
0.762053
0.766297
0.771534
0.777706
0.784542
0.791883
0.798883
0.805788
0.811748
0.815994
0.816108
0.810616
0.79904
0.787946
0.779993
0.77933
0.7976
0.841684
0.884162
0.914331
0.934823
0.947683
0.957031
0.967617
0.976078
0.980529
0.982969
0.986048
0.989752
0.993165
0.995806
0.997659
0.998832
0.999478
0.999785
0.999916
0.999969
0.999988
0.999996
0.999998
0.999999
0.999999
0.999999
0.999999
0.999995
0.99998
0.999918
0.999669
0.998715
0.995187
0.98253
0.938344
0.800517
0.615165
0.453687
0.323154
0.222462
0.148067
0.0953167
0.0593764
0.035818
0.0209418
0.0118789
0.00654363
0.00350388
0.0018253
0.000925724
0.00045735
0.00022021
0.000103372
4.73215e-05
2.11292e-05
9.20285e-06
3.91012e-06
1.62061e-06
6.55176e-07
2.58337e-07
9.93379e-08
3.72467e-08
1.36161e-08
4.85246e-09
1.68566e-09
5.7075e-10
1.8834e-10
6.056e-11
1.89824e-11
5.80668e-12
1.7333e-12
5.04814e-13
1.43401e-13
3.97186e-14
1.07207e-14
2.81821e-15
7.21546e-16
1.78341e-16
0.0193722
0.0195027
0.0671927
0.362968
0.722317
0.784711
0.776548
0.717589
0.579404
0.423786
0.289544
0.224711
0.189438
0.189681
0.204986
0.203837
0.178153
0.106923
0.0566175
0.0449975
0.0437161
0.046722
0.0562026
0.0881146
0.186169
0.41376
0.558139
0.590595
0.567194
0.392245
0.291655
0.359407
0.713416
0.833996
0.865753
0.872502
0.872564
0.863766
0.842156
0.792523
0.688294
0.589823
0.559847
0.553319
0.553165
0.558302
0.572978
0.594317
0.604097
0.608359
0.612751
0.614755
0.61522
0.61359
0.610314
0.605414
0.598274
0.58937
0.578491
0.569607
0.565477
0.564068
0.566417
0.569048
0.573156
0.582753
0.590897
0.601254
0.612233
0.626062
0.638655
0.65059
0.662558
0.675926
0.690336
0.7055
0.720617
0.734937
0.747954
0.758206
0.763824
0.76652
0.768309
0.769695
0.771737
0.774182
0.777988
0.783895
0.791903
0.802048
0.814661
0.829489
0.846094
0.864025
0.882732
0.900404
0.91157
0.909832
0.881462
0.828149
0.780035
0.76241
0.764759
0.802519
0.875983
0.928175
0.954614
0.967888
0.974157
0.979721
0.986019
0.989866
0.991267
0.992192
0.993805
0.995718
0.99736
0.998505
0.999214
0.999619
0.999832
0.999931
0.999974
0.99999
0.999997
0.999999
1
1
1
1
0.999999
0.999994
0.999974
0.999893
0.99958
0.998409
0.994173
0.979235
0.927588
0.774303
0.585196
0.424268
0.296019
0.198971
0.128992
0.0807553
0.0488855
0.0286525
0.0162806
0.0089787
0.00481099
0.00250673
0.00127098
0.000627443
0.000301717
0.00014137
6.45582e-05
2.87373e-05
1.24703e-05
5.27531e-06
2.17545e-06
8.74475e-07
3.42613e-07
1.30821e-07
4.86771e-08
1.76487e-08
6.23467e-09
2.14589e-09
7.19576e-10
2.35067e-10
7.48072e-11
2.32172e-11
7.02795e-12
2.07477e-12
5.97275e-13
1.6762e-13
4.58484e-14
1.22165e-14
3.1721e-15
7.96687e-16
0.0192005
0.0195866
0.086689
0.461987
0.759768
0.788829
0.762986
0.673825
0.542669
0.402681
0.283208
0.235464
0.227723
0.220613
0.231705
0.219999
0.174578
0.101973
0.0682014
0.0582649
0.0567145
0.067182
0.0976652
0.179006
0.378832
0.527276
0.564196
0.563158
0.428265
0.33763
0.34412
0.647872
0.815379
0.862547
0.873376
0.874851
0.87219
0.860094
0.828481
0.759301
0.644806
0.576749
0.557257
0.553661
0.554952
0.566833
0.589694
0.599869
0.604143
0.606735
0.607746
0.60502
0.595822
0.584409
0.56915
0.55143
0.534028
0.518356
0.50619
0.50011
0.497394
0.496757
0.501353
0.507095
0.519959
0.529134
0.539903
0.550162
0.559799
0.570326
0.582584
0.599148
0.617609
0.638799
0.663018
0.689046
0.713952
0.734287
0.750005
0.76149
0.767659
0.770176
0.770712
0.770335
0.770017
0.770164
0.771459
0.774483
0.779894
0.788412
0.799902
0.814654
0.833232
0.855874
0.880078
0.905675
0.929408
0.94644
0.953962
0.947363
0.896313
0.798183
0.755824
0.75362
0.776911
0.861642
0.935289
0.967846
0.981163
0.986375
0.989116
0.992721
0.995369
0.99653
0.996788
0.997003
0.99767
0.998531
0.999161
0.999557
0.99978
0.999897
0.999955
0.999982
0.999993
0.999998
0.999999
1
1
1
1
0.999999
0.999998
0.999989
0.999955
0.999821
0.999317
0.997468
0.990862
0.967682
0.887383
0.697373
0.512299
0.360571
0.243773
0.158632
0.0995455
0.0603461
0.035398
0.0201204
0.0110958
0.00594281
0.00309382
0.0015666
0.000771978
0.000370348
0.000173021
7.87344e-05
3.49025e-05
1.50731e-05
6.34164e-06
2.59918e-06
1.03771e-06
4.03548e-07
1.52848e-07
5.63828e-08
2.02557e-08
7.08686e-09
2.41477e-09
8.01338e-10
2.58977e-10
8.15611e-11
2.50422e-11
7.49589e-12
2.18744e-12
6.22221e-13
1.72518e-13
4.66072e-14
1.22755e-14
3.13242e-15
0.019115
0.0213191
0.11906
0.544565
0.775965
0.788833
0.748044
0.655321
0.532811
0.407542
0.32969
0.270465
0.252301
0.252769
0.268602
0.277188
0.269241
0.232496
0.187804
0.171228
0.173043
0.218009
0.30058
0.427329
0.502788
0.531012
0.533626
0.431441
0.370229
0.367439
0.551206
0.784779
0.851274
0.868802
0.872875
0.872353
0.864122
0.841264
0.789407
0.69971
0.616304
0.571462
0.558358
0.556169
0.561283
0.580487
0.594438
0.599551
0.601601
0.599665
0.593845
0.584703
0.573345
0.551367
0.528706
0.503306
0.478956
0.456385
0.435749
0.42313
0.417922
0.417135
0.430448
0.448327
0.469755
0.494861
0.515954
0.53009
0.542557
0.551154
0.560432
0.571049
0.583201
0.59586
0.610474
0.628201
0.6509
0.677265
0.702406
0.722344
0.736156
0.743772
0.746528
0.746054
0.745047
0.744684
0.745238
0.74672
0.749156
0.752842
0.756929
0.761538
0.766616
0.7749
0.796446
0.834412
0.885948
0.930372
0.956603
0.964886
0.962053
0.925664
0.810957
0.759141
0.75748
0.783939
0.871262
0.944545
0.976718
0.988952
0.993376
0.995393
0.997021
0.998237
0.998845
0.999069
0.999117
0.99917
0.999365
0.999609
0.999783
0.99989
0.999948
0.999977
0.99999
0.999996
0.999999
0.999999
1
1
1
1
1
0.999999
0.999994
0.999976
0.999904
0.999626
0.998593
0.994831
0.981367
0.933832
0.781609
0.577711
0.408261
0.276628
0.180174
0.113075
0.0685209
0.0401643
0.0228068
0.0125609
0.00671637
0.00348932
0.00176241
0.000865835
0.000413891
0.000192563
8.72106e-05
3.84521e-05
1.65059e-05
6.89802e-06
2.80644e-06
1.11151e-06
4.28529e-07
1.60822e-07
5.87505e-08
2.08926e-08
7.23294e-09
2.43787e-09
8.00021e-10
2.55695e-10
7.96367e-11
2.41724e-11
7.15142e-12
2.06214e-12
5.79628e-13
1.58785e-13
4.24219e-14
1.09959e-14
0.0189472
0.0272348
0.168312
0.612273
0.781448
0.787182
0.742275
0.651126
0.56529
0.483163
0.393762
0.321852
0.290744
0.281475
0.283464
0.308934
0.319667
0.329172
0.332348
0.341185
0.365092
0.398612
0.442405
0.480561
0.495772
0.481384
0.419082
0.389009
0.391863
0.5103
0.745782
0.832728
0.858094
0.865714
0.865475
0.853443
0.824082
0.772527
0.708748
0.648364
0.59543
0.569413
0.561908
0.561663
0.570889
0.586262
0.593957
0.596842
0.596412
0.589538
0.577541
0.558482
0.529344
0.491639
0.443573
0.397869
0.353102
0.316887
0.28805
0.273333
0.268028
0.27107
0.285532
0.311002
0.347875
0.397568
0.45454
0.494168
0.525157
0.540876
0.551236
0.560244
0.57287
0.586282
0.600235
0.615447
0.631551
0.649331
0.668848
0.688938
0.70789
0.72291
0.732256
0.736264
0.737944
0.739337
0.74126
0.74401
0.747186
0.750374
0.752504
0.753482
0.751752
0.743711
0.735395
0.736643
0.760083
0.833709
0.916548
0.95732
0.966431
0.960827
0.909196
0.808828
0.775317
0.779408
0.824789
0.905818
0.958971
0.98407
0.993483
0.996906
0.998405
0.999134
0.9995
0.999682
0.999766
0.999802
0.999822
0.999845
0.99988
0.999921
0.999955
0.999977
0.999989
0.999995
0.999998
0.999999
1
1
1
1
1
1
0.999999
0.999996
0.999984
0.999936
0.999748
0.999031
0.99636
0.986581
0.951338
0.82763
0.616239
0.435685
0.294923
0.191784
0.120132
0.0726458
0.0424873
0.0240673
0.0132193
0.00704681
0.00364828
0.00183543
0.000897699
0.000426981
0.000197548
8.89162e-05
3.89376e-05
1.65899e-05
6.87699e-06
2.77348e-06
1.08821e-06
4.15404e-07
1.5428e-07
5.57522e-08
1.96054e-08
6.70974e-09
2.23517e-09
7.24894e-10
2.28997e-10
7.04792e-11
2.11383e-11
6.17864e-12
1.76052e-12
4.88997e-13
1.325e-13
3.4875e-14
0.0187
0.0350494
0.207286
0.647342
0.786264
0.788268
0.742242
0.674274
0.627426
0.577865
0.496959
0.408493
0.355927
0.331411
0.322147
0.321207
0.339695
0.348956
0.371294
0.382605
0.407518
0.422346
0.440839
0.449316
0.432768
0.410342
0.402642
0.414981
0.513426
0.720243
0.810513
0.842061
0.852484
0.851396
0.83
0.773197
0.717097
0.678236
0.643172
0.60965
0.581924
0.56908
0.565338
0.567025
0.576034
0.58619
0.591724
0.592536
0.586717
0.565488
0.539534
0.50692
0.456708
0.40289
0.345364
0.297041
0.255877
0.227123
0.210132
0.200683
0.197349
0.202615
0.215117
0.233462
0.258514
0.289899
0.339556
0.416718
0.480356
0.521865
0.543248
0.55445
0.562374
0.574183
0.592081
0.612788
0.633046
0.654176
0.675276
0.69631
0.716797
0.734713
0.749097
0.75868
0.764896
0.769951
0.77437
0.780172
0.789496
0.796547
0.797504
0.795345
0.788909
0.767631
0.73717
0.722957
0.722163
0.73651
0.810219
0.914699
0.957948
0.964721
0.951191
0.880904
0.825331
0.81472
0.828029
0.889128
0.944814
0.975472
0.990377
0.996423
0.998603
0.999415
0.999739
0.999869
0.999923
0.999946
0.999956
0.999962
0.999966
0.999972
0.999979
0.999986
0.999992
0.999996
0.999998
0.999999
1
1
1
1
1
1
1
0.999999
0.999997
0.999988
0.999949
0.999796
0.999199
0.996918
0.988377
0.957001
0.843882
0.62919
0.443572
0.299179
0.193829
0.120963
0.0728774
0.042461
0.0239564
0.013102
0.00695173
0.00358074
0.00179144
0.000870873
0.000411486
0.000189012
8.44119e-05
3.66541e-05
1.54757e-05
6.35316e-06
2.53596e-06
9.84291e-07
3.71505e-07
1.36368e-07
4.86898e-08
1.69128e-08
5.71664e-09
1.8806e-09
6.0239e-10
1.87938e-10
5.71281e-11
1.69226e-11
4.8868e-12
1.37587e-12
3.7799e-13
1.00978e-13
0.0183662
0.041811
0.230554
0.660262
0.790284
0.793562
0.75094
0.706808
0.694614
0.67948
0.628851
0.553016
0.46766
0.417239
0.383766
0.369611
0.365236
0.367966
0.381852
0.391383
0.404762
0.410802
0.4143
0.414477
0.413697
0.417892
0.446242
0.554279
0.715466
0.792449
0.823822
0.835075
0.832909
0.800026
0.722001
0.666362
0.634964
0.614923
0.598892
0.584039
0.572884
0.567967
0.567428
0.570228
0.576728
0.584618
0.586183
0.582519
0.566243
0.542883
0.515065
0.470468
0.405933
0.340114
0.281601
0.234707
0.200758
0.176589
0.162117
0.154306
0.151133
0.154747
0.167348
0.192148
0.222549
0.2498
0.286878
0.344871
0.419221
0.491202
0.534507
0.554048
0.560786
0.566424
0.573842
0.588828
0.616171
0.651582
0.686117
0.719759
0.749763
0.771628
0.784744
0.792193
0.798268
0.807486
0.821908
0.843141
0.868871
0.892694
0.909661
0.915289
0.910626
0.885376
0.809346
0.745448
0.723012
0.724113
0.747531
0.840038
0.930751
0.963376
0.96651
0.94568
0.898161
0.876986
0.87526
0.894008
0.941818
0.972228
0.987769
0.995051
0.998159
0.999345
0.999762
0.999908
0.999961
0.99998
0.999987
0.99999
0.999992
0.999993
0.999994
0.999996
0.999997
0.999998
0.999999
0.999999
1
1
1
1
1
1
1
1
0.999999
0.999997
0.999989
0.999954
0.999808
0.999227
0.996957
0.988291
0.955983
0.838531
0.621141
0.4353
0.291933
0.188101
0.116763
0.0699738
0.0405475
0.0227466
0.0123653
0.0065187
0.00333466
0.00165609
0.000798762
0.000374247
0.000170363
7.53545e-05
3.23873e-05
1.35265e-05
5.48976e-06
2.16526e-06
8.30041e-07
3.09306e-07
1.12063e-07
3.94846e-08
1.35333e-08
4.51337e-09
1.46516e-09
4.63145e-10
1.42618e-10
4.27947e-11
1.25188e-11
3.57106e-12
9.94204e-13
2.69405e-13
0.0179095
0.044202
0.235345
0.655617
0.792539
0.80229
0.778632
0.740972
0.732265
0.730869
0.73078
0.71268
0.663425
0.582892
0.517756
0.466984
0.434919
0.420871
0.416123
0.415271
0.417726
0.423756
0.429163
0.440066
0.462644
0.519868
0.620094
0.727175
0.781526
0.806268
0.815733
0.809184
0.766474
0.692126
0.634595
0.605574
0.589838
0.58073
0.574536
0.569468
0.566224
0.566394
0.567693
0.570582
0.576112
0.581213
0.580991
0.573337
0.552372
0.522495
0.482255
0.42081
0.350503
0.284093
0.231834
0.192199
0.16542
0.147402
0.136446
0.131143
0.130679
0.133284
0.139339
0.153692
0.188016
0.230048
0.264509
0.313539
0.383182
0.45616
0.518246
0.555464
0.569462
0.570878
0.572766
0.577201
0.585537
0.602879
0.642457
0.696816
0.743456
0.770693
0.783741
0.789061
0.792844
0.801208
0.819318
0.84853
0.882495
0.91509
0.943117
0.963149
0.970908
0.967956
0.94016
0.83364
0.755857
0.73542
0.74293
0.798033
0.896331
0.954249
0.975006
0.977276
0.969739
0.957504
0.949036
0.945499
0.951721
0.973032
0.987364
0.99456
0.997822
0.999179
0.999708
0.9999
0.999965
0.999987
0.999994
0.999997
0.999998
0.999998
0.999999
0.999999
0.999999
0.999999
1
1
1
1
1
1
1
1
1
1
1
0.999999
0.999998
0.999989
0.999952
0.999799
0.999169
0.996659
0.986929
0.950281
0.81826
0.599216
0.41662
0.277405
0.177511
0.109441
0.065134
0.0374736
0.020865
0.0112531
0.00588311
0.00298312
0.00146776
0.000700975
0.000325014
0.000146322
6.39678e-05
2.71568e-05
1.11968e-05
4.48378e-06
1.74421e-06
6.5924e-07
2.42152e-07
8.64688e-08
3.00269e-08
1.01435e-08
3.33471e-09
1.0673e-09
3.32728e-10
1.01072e-10
2.9933e-11
8.64564e-12
2.43761e-12
6.69493e-13
0.0175275
0.0407628
0.195939
0.595551
0.784328
0.806405
0.794092
0.760338
0.752251
0.753798
0.766016
0.774956
0.773161
0.750886
0.717084
0.671181
0.61858
0.576343
0.544645
0.527724
0.520331
0.519709
0.541761
0.577777
0.630348
0.695413
0.746547
0.778902
0.793927
0.799215
0.788557
0.751107
0.694616
0.631543
0.597425
0.580755
0.571913
0.567195
0.564628
0.563061
0.562567
0.564059
0.567306
0.570228
0.574738
0.578045
0.577531
0.571159
0.549272
0.516092
0.475098
0.417203
0.349518
0.283167
0.230818
0.191568
0.164795
0.147174
0.135608
0.12996
0.128988
0.130158
0.134686
0.145309
0.172922
0.221975
0.258842
0.302988
0.3696
0.439865
0.501554
0.55011
0.577825
0.587351
0.58739
0.586156
0.587135
0.592297
0.604343
0.629851
0.67359
0.711221
0.72809
0.730586
0.729586
0.730763
0.743732
0.784184
0.844782
0.897856
0.938208
0.965333
0.979822
0.983641
0.978132
0.933268
0.823909
0.774362
0.769456
0.795366
0.8822
0.944841
0.975347
0.987261
0.990651
0.990865
0.98986
0.988452
0.987611
0.987727
0.991228
0.995493
0.997941
0.99916
0.999686