/*--------------------------------*- C++ -*----------------------------------*\
  =========                 |
  \\      /  F ield         | OpenFOAM: The Open Source CFD Toolbox
   \\    /   O peration     | Website:  https://openfoam.org
    \\  /    A nd           | Version:  7
     \\/     M anipulation  |
\*---------------------------------------------------------------------------*/
FoamFile
{
    version     2.0;
    format      ascii;
    class       volScalarField;
    location    "0.17";
    object      epsilon;
}
// * * * * * * * * * * * * * * * * * * * * * * * * * * * * * * * * * * * * * //

dimensions      [0 2 -3 0 0 0 0];

internalField   nonuniform List<scalar> 
12225
(
261.514
229.335
202.526
181.49
166.165
155.707
148.933
144.733
142.229
140.784
139.967
139.499
139.211
139.003
138.823
138.635
138.477
139.4
74.4044
97.5828
104.476
109.106
114.647
121.072
127.66
133.852
139.374
144.13
148.126
151.425
154.117
156.294
158.053
159.432
160.705
161.384
31.9471
44.363
51.5594
56.2983
60.1534
63.8155
67.4439
70.9991
74.4073
77.6057
80.5509
83.2208
85.6129
87.7384
89.6187
91.2727
92.7545
94.0135
20.8063
26.6661
31.0979
34.3343
36.836
38.965
40.9062
42.7348
44.4783
46.1423
47.7223
49.2108
50.6021
51.894
53.0872
54.1846
55.1922
56.0993
17.0807
19.8448
22.2846
24.2531
25.8331
27.1485
28.2892
29.3107
30.2477
31.1209
31.9414
32.7144
33.4423
34.1265
34.7679
35.3677
35.9258
36.4338
15.6188
16.845
18.1012
19.2185
20.1685
20.9745
21.6662
22.2697
22.8058
23.2904
23.7342
24.1442
24.5252
24.8804
25.2119
25.5213
25.8089
26.0684
15.0057
15.4484
16.0093
16.5714
17.0866
17.5427
17.9408
18.2875
18.5914
18.8603
19.1008
19.3178
19.5151
19.6956
19.8613
20.0137
20.1535
20.2765
14.7446
14.7907
14.9477
15.1533
15.3698
15.5779
15.7679
15.9368
16.0853
16.2155
16.3298
16.4305
16.5195
16.5987
16.6693
16.7323
16.7882
16.8345
14.6329
14.4844
14.4154
14.4004
14.4175
14.4512
14.4908
14.53
14.5657
14.5967
14.6228
14.644
14.6609
14.6738
14.6833
14.6898
14.6934
14.6925
14.5847
14.3444
14.156
14.012
13.9027
13.8188
13.7522
13.697
13.6492
13.6064
13.5667
13.5293
13.4933
13.4585
13.4246
13.3914
13.3587
13.3256
14.5634
14.2814
14.0337
13.8196
13.6355
13.4771
13.3395
13.2185
13.1107
13.0135
12.9248
12.8431
12.7672
12.6962
12.6295
12.5664
12.5066
12.4498
14.5542
14.2552
13.9821
13.7352
13.5137
13.3154
13.1375
12.9774
12.8324
12.7003
12.5793
12.4679
12.3648
12.2689
12.1794
12.0955
12.0167
11.9429
14.5491
14.2419
13.9563
13.6925
13.4503
13.2287
13.0261
12.8407
12.6708
12.5147
12.3709
12.2379
12.1146
12
11.893
11.793
11.6994
11.6125
14.546
14.2346
13.943
13.6708
13.4177
13.183
12.9656
12.7644
12.5781
12.4054
12.2453
12.0964
11.9579
11.8287
11.7079
11.595
11.4892
11.3914
14.544
14.2306
13.9366
13.6611
13.4033
13.1627
12.9382
12.7289
12.5339
12.352
12.1823
12.0238
11.8757
11.737
11.6071
11.4853
11.3711
11.2654
14.5428
14.2284
13.9337
13.6572
13.3982
13.1557
12.9287
12.7165
12.5179
12.3322
12.1582
11.9953
11.8425
11.6991
11.5644
11.4378
11.3189
11.2088
14.5422
14.2274
13.9327
13.6565
13.3975
13.155
12.9279
12.7152
12.516
12.3293
12.1543
11.9901
11.8359
11.691
11.5547
11.4264
11.3058
11.194
14.5423
14.2277
13.9334
13.6579
13.3998
13.1581
12.9318
12.7199
12.5214
12.3353
12.1609
11.9971
11.8432
11.6986
11.5625
11.4343
11.3137
11.2019
14.5433
14.2297
13.9367
13.6624
13.4058
13.1657
12.9411
12.731
12.5342
12.3499
12.1771
12.015
11.8628
11.7197
11.585
11.4582
11.339
11.2285
14.5456
14.2344
13.9436
13.6717
13.4176
13.1802
12.9585
12.7514
12.5578
12.3768
12.2072
12.0484
11.8994
11.7595
11.628
11.5043
11.3881
11.2805
14.5493
14.2418
13.9546
13.6865
13.4365
13.2037
12.9871
12.7854
12.5975
12.4223
12.2588
12.1061
11.9632
11.8294
11.7039
11.5861
11.4757
11.3738
14.5555
14.2545
13.9745
13.7145
13.4739
13.2519
13.0472
12.8583
12.6838
12.5223
12.3726
12.2335
12.104
11.9833
11.8707
11.7654
11.6669
11.5761
14.567
14.2806
14.0189
13.7811
13.5664
13.3733
13.1996
13.0424
12.8993
12.7685
12.6483
12.5375
12.435
12.3397
12.2504
12.1665
12.0876
12.0146
14.5931
14.349
14.1441
13.9723
13.8285
13.7083
13.606
13.5165
13.4361
13.3631
13.2957
13.232
13.1709
13.1116
13.054
12.9979
12.9433
12.8913
14.6719
14.5671
14.5334
14.5366
14.5581
14.5881
14.6181
14.6434
14.6615
14.6705
14.6701
14.6614
14.6457
14.6241
14.598
14.5684
14.5366
14.5043
14.9618
15.3045
15.7118
16.0878
16.4099
16.6789
16.8974
17.0641
17.186
17.272
17.33
17.3665
17.387
17.396
17.397
17.3928
17.3857
17.3779
16.0826
17.7386
19.068
20.0268
20.7392
21.2728
21.6496
21.9107
22.0917
22.2195
22.313
22.3861
22.4485
22.5069
22.5659
22.6283
22.6957
22.769
20.4114
25.6123
28.3433
29.7403
30.594
31.1248
31.4555
31.6807
31.8653
32.0467
32.2453
32.4719
32.7309
33.0227
33.3451
33.6949
34.0685
34.4599
38.6012
49.0462
52.2933
53.1778
53.4521
53.5616
53.7099
54.0133
54.5016
55.1606
55.965
56.889
57.9078
58.9987
60.1415
61.3195
62.5219
63.7347
159.121
148.102
138.017
128.818
120.586
113.348
107.09
101.756
97.2563
93.4905
90.3592
87.7704
85.642
83.9022
82.4887
81.3483
80.4361
79.7141
0.256889
0.296185
0.489193
0.688845
0.911276
1.15947
1.42788
1.6932
1.95538
2.21255
2.46322
2.70664
2.94275
3.17194
3.3948
3.61204
3.82435
4.0324
4.23675
4.4379
4.63628
4.83225
5.02612
5.21816
5.40862
5.59771
5.78563
5.97254
6.15854
6.3437
6.52797
6.7112
6.89312
7.07335
7.25137
7.42665
7.59865
7.76697
7.93139
8.09196
8.24902
8.40306
8.55457
8.70369
8.84995
8.99208
9.12799
9.25498
9.37013
9.47073
9.55497
9.62301
9.6784
9.72876
9.783
9.84348
41.8125
41.9459
41.947
9.94355
9.9313
9.81713
9.84744
9.8991
10.0107
10.0691
10.0321
10.02
43.3597
10.1545
44.2079
43.7692
44.751
44.168
45.3879
46.6887
48.0193
49.3679
50.7297
52.1007
53.478
54.8591
56.2419
57.6242
59.0041
60.3797
61.7495
63.1123
64.4683
65.8192
67.1703
68.5134
69.8351
71.1346
72.4107
73.6614
74.8845
76.0776
77.2385
78.365
79.4547
80.5055
81.5154
82.4823
83.4043
84.2795
85.1064
85.8833
86.6087
87.2813
87.8999
88.4634
88.9709
89.4215
89.8147
90.1498
90.4265
90.6446
90.8039
90.9047
90.9469
90.9309
90.8572
90.7263
90.5389
90.2957
89.9978
89.6461
89.2417
88.7858
88.2797
87.7248
87.1225
86.4743
85.7817
85.0465
84.2703
83.4548
82.6018
81.713
80.7905
79.8359
78.8514
77.8388
76.8001
75.7378
74.6531
73.5503
72.4283
71.3032
70.2299
69.6037
69.3209
69.0539
68.7749
68.481
68.1723
67.8503
67.518
67.1825
66.8777
66.5593
68.6309
75.444
16.0769
68.4128
75.6321
76.2124
76.5588
72.4089
72.0285
75.7167
16.9883
17.0966
77.0934
77.0079
17.194
75.5296
81.5704
78.2622
0.938631
0.57364
0.610312
0.718014
0.861159
1.0295
1.21403
1.40546
1.59763
1.78651
1.96981
2.14647
2.31625
2.47944
2.63661
2.78845
2.93573
3.07917
3.21949
3.35731
3.4932
3.62767
3.76115
3.89404
4.02668
4.15936
4.29233
4.42582
4.55999
4.69498
4.83085
4.96761
5.10522
5.24357
5.38253
5.52197
5.66179
5.80199
5.9427
6.08424
6.22713
6.37204
6.5198
6.67126
6.8273
6.98881
7.15687
7.33291
7.51897
7.71791
7.93369
8.17225
8.44493
8.77892
9.24933
10.0746
11.8988
12.2969
12.3011
11.4401
12.1304
13.1651
13.6242
13.8747
13.9475
14.5786
15.5483
16.2436
17.4967
17.3294
18.8592
19.5181
20.0776
20.5888
21.1196
21.6805
22.2337
22.7865
23.34
23.8946
24.4499
25.0056
25.5613
26.1162
26.67
27.2222
27.7724
28.3208
28.868
29.415
29.9657
30.5189
31.0657
31.6048
32.1353
32.6564
33.1672
33.6669
34.1546
34.6294
35.0906
35.5373
35.9687
36.384
36.7825
37.1636
37.5264
37.8705
38.1952
38.4999
38.7843
39.0477
39.2898
39.5103
39.7088
39.885
40.0389
40.1701
40.2786
40.3644
40.4275
40.4678
40.4854
40.4806
40.4534
40.4042
40.3331
40.2406
40.1268
39.9923
39.8373
39.6625
39.4682
39.2549
39.0233
38.7737
38.507
38.2236
37.9241
37.6093
37.2798
36.9363
36.5795
36.2102
35.8291
35.4373
35.0351
34.6254
34.2065
33.793
33.4078
33.1112
32.871
32.6384
32.4037
32.1652
31.9231
31.6778
31.4298
31.1803
30.9348
30.7215
30.8682
30.3598
27.1644
30.0896
30.4766
30.3308
30.2444
29.9948
29.8663
29.3268
26.2169
26.0222
28.7267
28.7925
25.8845
28.2246
28.1308
28.9814
1.83348
0.943066
0.866602
0.915982
1.01431
1.14109
1.28561
1.43975
1.59724
1.75365
1.90619
2.05343
2.19492
2.33081
2.46164
2.5881
2.71097
2.83102
2.94897
3.06549
3.18116
3.2965
3.41197
3.52795
3.64478
3.76277
3.88219
4.00325
4.12615
4.25108
4.37818
4.50756
4.63933
4.77355
4.91031
5.0497
5.19183
5.33691
5.48522
5.63717
5.79333
5.95439
6.12121
6.29474
6.47603
6.66624
6.86669
7.07893
7.30476
7.54614
7.80499
8.08309
8.38274
8.70827
9.06856
9.47754
9.93447
10.304
10.6415
10.9643
11.3992
11.8591
12.262
12.6409
13.0203
13.4584
13.9285
14.3789
14.8447
15.2691
15.7709
16.2446
16.6974
17.1467
17.5882
18.0289
18.4676
18.9067
19.3471
19.789
20.232
20.676
21.1206
21.5655
22.0105
22.4553
22.9
23.3445
23.789
24.2339
24.679
25.1213
25.5589
25.9905
26.4156
26.8333
27.243
27.6439
28.0353
28.4166
28.7871
29.1461
29.493
29.8271
30.1478
30.4546
30.7469
31.0241
31.2859
31.5317
31.7612
31.9739
32.1696
32.3478
32.5084
32.6512
32.776
32.8825
32.9709
33.0409
33.0926
33.126
33.1413
33.1385
33.1177
33.0792
33.0231
32.9498
32.8595
32.7525
32.6292
32.49
32.3352
32.1652
31.9806
31.7818
31.5692
31.3434
31.1049
30.8542
30.5919
30.3185
30.0347
29.7411
29.438
29.1271
28.8072
28.4833
28.1568
27.8339
27.525
27.2458
26.9859
26.7308
26.4756
26.2193
25.9616
25.7029
25.4437
25.1846
24.9282
24.6851
24.5051
24.0706
23.5953
23.7927
23.61
23.381
23.1933
23.0306
22.8567
22.5118
22.0331
21.8532
21.9276
21.8142
21.4613
21.5263
21.3461
21.6737
2.6794
1.28543
1.10124
1.10239
1.16654
1.26305
1.37891
1.50611
1.63879
1.77271
1.90506
2.0342
2.15943
2.28067
2.39827
2.51279
2.62492
2.73534
2.84472
2.95368
3.06277
3.17248
3.28323
3.39541
3.50934
3.62531
3.74358
3.86438
3.98793
4.11442
4.24405
4.37699
4.51341
4.65348
4.79736
4.94526
5.09737
5.25397
5.41537
5.58199
5.75431
5.93293
6.11852
6.31182
6.51362
6.72475
6.94607
7.17847
7.42287
7.68007
7.95058
8.23453
8.53177
8.8421
9.16548
9.50139
9.84635
10.1904
10.5379
10.8927
11.2627
11.6392
12.0142
12.3911
12.7741
13.1684
13.5706
13.9759
14.3861
14.7989
15.2201
15.6429
16.065
16.488
16.9106
17.3334
17.7568
18.1817
18.6085
19.0373
19.468
19.9002
20.3337
20.7681
21.2033
21.639
22.075
22.511
22.9469
23.3821
23.8153
24.2448
24.6695
25.0886
25.5013
25.9068
26.3045
26.6936
27.0733
27.4431
27.8021
28.1498
28.4854
28.8083
29.1179
29.4136
29.6948
29.9611
30.2119
30.4467
30.6653
30.8671
31.0518
31.2193
31.3691
31.5011
31.6151
31.711
31.7888
31.8483
31.8897
31.9129
31.9182
31.9055
31.8751
31.8273
31.7621
31.6801
31.5813
31.4664
31.3355
31.1891
31.0276
30.8515
30.6613
30.4575
30.2405
30.011
29.7695
29.5164
29.2525
28.9783
28.6942
28.4016
28.0994
27.7914
27.4774
27.1596
26.8396
26.5213
26.2101
25.9113
25.6211
25.3342
25.0479
24.7616
24.4752
24.1891
23.9037
23.6196
23.3383
23.063
22.8012
22.4762
22.1979
22.0275
21.7765
21.5258
21.2965
21.0868
20.8765
20.6255
20.377
20.1811
20.0241
19.8662
19.7035
19.6064
19.5023
19.6151
3.37093
1.56552
1.29484
1.25688
1.29379
1.36664
1.46032
1.56658
1.67994
1.79652
1.91365
2.02967
2.14372
2.25553
2.36524
2.47323
2.58005
2.68624
2.7924
2.89907
3.00674
3.11586
3.22683
3.33999
3.45567
3.57412
3.69561
3.82036
3.9486
4.08053
4.21634
4.35625
4.50044
4.64911
4.80248
4.96075
5.12418
5.29302
5.46757
5.64819
5.83527
6.02926
6.23067
6.44
6.65777
6.88449
7.12066
7.3667
7.62301
7.88986
8.16731
8.45521
8.75318
9.06078
9.37748
9.70263
10.0353
10.3746
10.7209
11.0746
11.4361
11.8042
12.178
12.5579
12.9446
13.3385
13.7389
14.1452
14.5572
14.9744
15.3967
15.8232
16.2532
16.6865
17.1227
17.5614
18.0027
18.4469
18.8938
19.3435
19.7958
20.2502
20.7065
21.1644
21.6234
22.0832
22.5435
23.0037
23.4636
23.9215
24.3764
24.8272
25.2728
25.7124
26.1452
26.5704
26.9872
27.3948
27.7924
28.1792
28.5544
28.9174
29.2673
29.6034
29.9252
30.2319
30.5229
30.7977
31.0556
31.2963
31.5193
31.7242
31.9106
32.0782
32.2268
32.3562
32.4661
32.5565
32.6273
32.6785
32.7102
32.7225
32.7154
32.6893
32.6442
32.5805
32.4986
32.3986
32.2811
32.1464
31.9951
31.8275
31.6442
31.4457
31.2327
31.0056
30.765
30.5117
30.2462
29.9688
29.6808
29.3827
29.074
28.7583
28.4348
28.1052
27.7701
27.4311
27.0897
26.7486
26.4109
26.0788
25.7512
25.4258
25.1016
24.778
24.4554
24.134
23.8143
23.497
23.183
22.8734
22.5691
22.2543
21.9639
21.699
21.418
21.1433
20.8814
20.6326
20.3901
20.1438
19.9075
19.6898
19.489
19.3061
19.1458
19.0218
18.9327
18.9559
3.89409
1.78486
1.44606
1.37661
1.39169
1.44587
1.52217
1.61201
1.71016
1.81302
1.91817
2.024
2.12961
2.23458
2.33891
2.44283
2.5467
2.65098
2.75614
2.86266
2.97097
3.08146
3.19451
3.31044
3.42953
3.55204
3.67823
3.80831
3.94248
4.08096
4.22395
4.37164
4.52424
4.68195
4.84498
5.01356
5.1879
5.36828
5.55494
5.74819
5.94835
6.15576
6.3708
6.59383
6.8252
7.06525
7.31427
7.57251
7.84015
8.11732
8.40402
8.70018
9.00562
9.32012
9.64347
9.97538
10.3156
10.664
11.0206
11.3854
11.7584
12.1392
12.5278
12.9242
13.3285
13.7407
14.1604
14.5874
15.0214
15.4621
15.9091
16.3619
16.8202
17.2838
17.7522
18.2251
18.7022
19.1835
19.6686
20.1574
20.6495
21.1445
21.6421
22.1416
22.6428
23.145
23.6477
24.1504
24.6521
25.151
25.646
26.1363
26.6209
27.0989
27.5693
28.0312
28.4837
28.9259
29.3569
29.7759
30.1818
30.574
30.9515
31.3136
31.6594
31.9883
32.2996
32.5926
32.8668
33.1216
33.3565
33.571
33.7649
33.9378
34.0893
34.2194
34.3278
34.4144
34.4792
34.5223
34.5437
34.5435
34.522
34.4794
34.416
34.3322
34.2283
34.1047
33.9619
33.8006
33.6211
33.4242
33.2102
32.98
32.7344
32.4738
32.1986
31.9103
31.6095
31.2956
30.9714
30.6375
30.2941
29.9428
29.584
29.219
28.8486
28.4742
28.0972
27.7195
27.3431
26.9694
26.5982
26.229
25.8612
25.4948
25.1301
24.7675
24.4077
24.0513
23.699
23.3513
23.0085
22.6687
22.3425
22.0276
21.7141
21.4085
21.1133
20.8291
20.5541
20.286
20.029
19.7859
19.5582
19.3509
19.17
19.0237
18.9189
18.886
4.27791
1.95032
1.55841
1.46365
1.4612
1.50057
1.5632
1.64017
1.72633
1.81832
1.91391
2.01161
2.11052
2.21017
2.31044
2.41144
2.51342
2.61674
2.72177
2.82891
2.93855
3.05104
3.1667
3.28585
3.40875
3.53565
3.66678
3.80235
3.94257
4.08763
4.23773
4.39307
4.55383
4.72023
4.89246
5.07075
5.25531
5.44638
5.64421
5.84905
6.06119
6.28092
6.50854
6.74435
6.98863
7.24165
7.50364
7.77481
8.05532
8.34529
8.6448
8.95389
9.27258
9.60086
9.93872
10.2861
10.643
11.0095
11.3854
11.7709
12.166
12.5704
12.9842
13.4075
13.8401
14.282
14.7331
15.193
15.6616
16.1385
16.6233
17.1158
17.6156
18.1224
18.6358
19.1554
19.6807
20.2115
20.7473
21.2878
21.8325
22.3809
22.9325
23.4866
24.0428
24.6002
25.1584
25.7164
26.2722
26.8245
27.3724
27.9147
28.4504
28.9786
29.4981
30.0079
30.507
30.9943
31.4688
31.9295
32.3753
32.8053
33.2186
33.6143
33.9914
34.3491
34.6868
35.0036
35.2989
35.5721
35.8227
36.0502
36.2543
36.4345
36.5906
36.7223
36.8296
36.9123
36.9705
37.0042
37.0136
36.9988
36.9601
36.8979
36.8125
36.7044
36.574
36.4217
36.2483
36.0545
35.8409
35.6081
35.3567
35.0876
34.802
34.5004
34.1825
33.8512
33.507
33.1501
32.7822
32.404
32.0164
31.6204
31.217
30.8072
30.3921
29.9729
29.5509
29.1276
28.7046
28.2829
27.8631
27.445
27.0289
26.6148
26.2033
25.7949
25.3902
24.9899
24.5947
24.2051
23.8212
23.4441
23.0771
22.7195
22.3688
22.0272
21.696
21.3758
21.0665
20.7679
20.4818
20.2099
19.9546
19.7205
19.5133
19.3402
19.2071
19.1274
4.53856
2.0679
1.63638
1.52167
1.5052
1.53277
1.5846
1.65142
1.7281
1.81145
1.89936
1.99046
2.0839
2.17918
2.27614
2.37479
2.47532
2.57798
2.68309
2.79099
2.90201
3.01647
3.13468
3.25691
3.38343
3.51448
3.65027
3.79101
3.93691
4.08815
4.24493
4.40744
4.57588
4.75045
4.93134
5.11879
5.313
5.51421
5.72266
5.9386
6.16231
6.39405
6.63413
6.88281
7.14038
7.40711
7.68325
7.96903
8.26465
8.57031
8.88617
9.2124
9.54915
9.89654
10.2547
10.6238
11.0038
11.3949
11.7971
12.2105
12.6352
13.071
13.5181
13.9764
14.4458
14.9263
15.4178
15.92
16.4327
16.9555
17.4882
18.0305
18.5818
19.1419
19.7102
20.2864
20.8699
21.4602
22.0568
22.6592
23.2668
23.8789
24.4948
25.1139
25.7354
26.3584
26.9822
27.6053
28.225
28.8404
29.4505
30.054
30.6499
31.2369
31.8138
32.3795
32.9327
33.4723
33.997
34.5057
34.9973
35.4707
35.9249
36.3587
36.7712
37.1615
37.5287
37.8721
38.1908
38.4843
38.752
38.9934
39.2081
39.3958
39.556
39.6887
39.7937
39.8709
39.9205
39.9425
39.9371
39.9046
39.8453
39.7597
39.6482
39.5115
39.35
39.1643
38.9549
38.7233
38.47
38.1956
37.9005
37.5863
37.2546
36.9058
36.5405
36.1604
35.7665
35.3596
34.9409
34.5115
34.0724
33.6247
33.1695
32.7078
32.2409
31.7698
31.2959
30.8204
30.3448
29.8701
29.397
28.9259
28.4572
27.9915
27.5292
27.071
26.6175
26.1695
25.7276
25.2924
24.8642
24.4442
24.0339
23.6332
23.2418
22.8608
22.491
22.133
21.7872
21.4542
21.1352
20.8317
20.5461
20.2825
20.0458
19.8421
19.6754
19.5521
4.6915
2.14365
1.6847
1.55481
1.52725
1.54541
1.58862
1.64735
1.71646
1.79283
1.8745
1.96016
2.04901
2.14058
2.23466
2.33124
2.43044
2.53245
2.63756
2.74604
2.85821
2.97435
3.09476
3.2197
3.34942
3.48417
3.62415
3.76959
3.92068
4.07763
4.24062
4.40985
4.58553
4.76787
4.95708
5.15338
5.35701
5.56821
5.78724
6.01436
6.24986
6.49404
6.74719
7.00963
7.28167
7.56361
7.85576
8.15842
8.47185
8.79633
9.13213
9.47951
9.83872
10.21
10.5936
10.9897
11.3985
11.8201
12.2548
12.7025
13.1635
13.6376
14.125
14.6256
15.1395
15.6664
16.2064
16.7591
17.3243
17.9016
18.4909
19.0915
19.7031
20.3253
20.9575
21.5992
22.2496
22.9084
23.5747
24.2478
24.9271
25.6118
26.3011
26.994
27.6896
28.387
29.0852
29.7805
30.4718
31.1578
31.8373
32.5089
33.1714
33.8234
34.4635
35.0903
35.7026
36.2989
36.8779
37.4383
37.979
38.4985
38.9959
39.4698
39.9194
40.3433
40.7409
41.111
41.4531
41.7664
42.0504
42.3046
42.5284
42.7216
42.8838
43.015
43.1149
43.1836
43.2212
43.2279
43.204
43.1498
43.0656
42.9521
42.81
42.64
42.4425
42.2183
41.9676
41.6928
41.3945
41.0734
40.7302
40.3665
39.9835
39.5821
39.1635
38.729
38.2797
37.8168
37.3415
36.8551
36.3587
35.8535
35.3407
34.8215
34.2971
33.7687
33.2375
32.7048
32.1719
31.64
31.1099
30.5822
30.0577
29.5369
29.0206
28.5094
28.004
27.5052
27.0137
26.5301
26.0547
25.5886
25.1328
24.6875
24.253
23.8301
23.4195
23.0218
22.6376
22.2678
21.9134
21.5759
21.2577
20.9621
20.6934
20.4565
20.2537
20.0883
4.75154
2.18342
1.70799
1.56721
1.53106
1.5417
1.57795
1.63014
1.69308
1.76374
1.84022
1.9213
2.00622
2.09453
2.18601
2.28064
2.3785
2.47976
2.58467
2.69348
2.80647
2.92394
3.04615
3.17338
3.30588
3.44389
3.58765
3.73737
3.89327
4.05556
4.22446
4.40018
4.58294
4.77296
4.97049
5.17578
5.38907
5.61066
5.84081
6.07985
6.32807
6.58583
6.85346
7.13133
7.41979
7.71922
8.02999
8.35246
8.687
9.03398
9.39373
9.76663
10.153
10.5532
10.9675
11.3962
11.8396
12.2979
12.7713
13.2599
13.7639
14.2834
14.8183
15.3688
15.9347
16.5159
17.1122
17.7235
18.3495
18.9897
19.6437
20.3112
20.9915
21.6842
22.3886
23.104
23.8297
24.5651
25.3092
26.0612
26.8203
27.5855
28.3558
29.1302
29.9075
30.6868
31.4648
32.2385
33.0071
33.769
34.5229
35.2671
36.0003
36.7208
37.4271
38.1178
38.7913
39.446
40.0806
40.6936
41.2836
41.8493
42.3894
42.9028
43.3881
43.8442
44.2701
44.6648
45.0276
45.3578
45.6549
45.9183
46.1476
46.3424
46.5026
46.6279
46.7183
46.7738
46.7947
46.7813
46.7339
46.6529
46.5386
46.3921
46.2141
46.0054
45.7668
45.4991
45.2032
44.8806
44.5324
44.1596
43.7632
43.3447
42.9055
42.4467
41.9696
41.4756
40.966
40.4423
39.9056
39.3574
38.799
38.2317
37.6568
37.0756
36.4893
35.8993
35.3067
34.7131
34.1195
33.5271
32.9371
32.3502
31.7672
31.189
30.6162
30.0497
29.4901
28.9384
28.3951
27.8609
27.3363
26.8221
26.3191
25.8278
25.3485
24.8821
24.4292
23.9904
23.5664
23.1581
22.7667
22.3934
22.0406
21.7111
21.4084
21.1365
20.8962
20.6897
4.73268
2.19271
1.71053
1.5627
1.52016
1.52484
1.55545
1.60223
1.66005
1.72593
1.79802
1.87517
1.95664
2.04203
2.13113
2.22389
2.3204
2.42081
2.52536
2.63428
2.74785
2.86637
2.9901
3.11934
3.25434
3.39538
3.54269
3.69654
3.85716
4.02478
4.19966
4.38204
4.57217
4.77031
4.97675
5.19176
5.41565
5.64875
5.89138
6.1439
6.40668
6.68012
6.96461
7.26058
7.56847
7.88871
8.22175
8.56805
8.92805
9.3022
9.69093
10.0947
10.5139
10.949
11.4003
11.8681
12.3529
12.8549
13.3744
13.9114
14.4662
15.0389
15.6295
16.238
16.8643
17.5082
18.1696
18.8482
19.5435
20.2552
20.9827
21.7255
22.4829
23.2544
24.0392
24.8364
25.6453
26.4649
27.2943
28.1325
28.9785
29.8311
30.6891
31.5514
32.4166
33.2824
34.1438
34.9997
35.8488
36.6894
37.5199
38.3384
39.1433
39.9328
40.7054
41.4594
42.193
42.9046
43.5927
44.2557
44.8922
45.5006
46.0798
46.6283
47.1452
47.6288
48.078
48.492
48.87
49.2114
49.5157
49.7823
50.0109
50.2012
50.3531
50.4664
50.5408
50.5767
50.5745
50.5347
50.4576
50.3438
50.1939
50.0088
49.7895
49.5368
49.2518
48.9354
48.5888
48.2133
47.8102
47.3809
46.9265
46.4486
45.9486
45.4278
44.8879
44.3303
43.7564
43.1677
42.5659
41.9522
41.3281
40.6952
40.0548
39.4083
38.7571
38.1025
37.4459
36.7886
36.132
35.4771
34.8253
34.1774
33.5344
32.8972
32.2666
31.6434
31.0284
30.4224
29.8262
29.2403
28.6653
28.1019
27.5509
27.0127
26.4878
25.977
25.4809
25.0002
24.5355
24.0878
23.6582
23.2481
22.8593
22.4945
22.1565
21.8483
21.5699
21.323
4.6481
2.17658
1.6962
1.54479
1.49779
1.49787
1.52389
1.56619
1.61971
1.68152
1.74985
1.82359
1.90206
1.98485
2.0718
2.16285
2.2581
2.3577
2.46187
2.57088
2.68501
2.80454
2.9298
3.06107
3.19866
3.34286
3.49396
3.65224
3.818
3.99151
4.17307
4.36297
4.56151
4.76902
4.98582
5.21226
5.44871
5.69554
5.95316
6.22199
6.50247
6.79506
7.10024
7.41851
7.75037
8.09636
8.45699
8.8328
9.22433
9.63209
10.0566
10.4984
10.9579
11.4356
11.932
12.4475
12.9823
13.5369
14.1115
14.7062
15.3212
15.9567
16.6126
17.2888
17.9853
18.7017
19.438
20.1935
20.9677
21.7602
22.5703
23.3974
24.2406
25.0993
25.9725
26.8592
27.7586
28.6695
29.5908
30.5215
31.4602
32.4056
33.3565
34.3113
35.2681
36.2202
37.1662
38.1048
39.0343
39.9532
40.8588
41.7495
42.6233
43.4784
44.3132
45.1257
45.9143
46.6771
47.4126
48.119
48.7948
49.4386
50.049
50.6248
51.1652
51.668
52.1319
52.5563
52.9407
53.2845
53.587
53.848
54.067
54.244
54.3787
54.4713
54.5216
54.5302
54.4974
54.4237
54.3098
54.1562
53.9639
53.7337
53.4667
53.164
52.8267
52.456
52.0532
51.6197
51.157
50.6664
50.1496
49.608
49.0432
48.4568
47.8505
47.2259
46.5845
45.928
45.2581
44.5764
43.8843
43.1836
42.4756
41.7619
41.044
40.3233
39.6011
38.879
38.1582
37.4401
36.7258
36.0164
35.313
34.6164
33.9277
33.2476
32.577
31.9166
31.2673
30.6295
30.004
29.3914
28.7923
28.2072
27.6368
27.0816
26.5422
26.0194
25.5139
25.0265
24.5584
24.1108
23.6855
23.2846
22.9105
22.5654
22.2487
21.9622
4.51012
2.13962
1.66844
1.51657
1.4669
1.46358
1.48597
1.52461
1.57454
1.63295
1.69813
1.769
1.84494
1.92558
2.01076
2.10047
2.19479
2.2939
2.39804
2.50748
2.62254
2.74354
2.87082
3.00472
3.14559
3.29377
3.44961
3.61345
3.78565
3.96656
4.15653
4.35593
4.56514
4.78456
5.0146
5.25568
5.50825
5.77278
6.04974
6.33964
6.64301
6.96039
7.29235
7.63946
8.00232
8.38154
8.7777
9.19143
9.62332
10.074
10.5439
11.0338
11.544
12.0752
12.6278
13.2021
13.7985
14.4174
15.0589
15.7232
16.4105
17.1207
17.8537
18.6095
19.3878
20.1884
21.0107
21.8542
22.718
23.6015
24.5039
25.4244
26.3621
27.316
28.2851
29.2682
30.2643
31.2722
32.2904
33.3179
34.3532
35.3948
36.4411
37.49
38.5332
39.5694
40.5969
41.614
42.6192
43.6111
44.5857
45.5411
46.4757
47.3878
48.2754
49.1366
49.9696
50.7727
51.5441
52.2822
52.9854
53.6522
54.2813
54.8715
55.4215
55.9301
56.396
56.8186
57.1972
57.5312
57.8201
58.0638
58.2619
58.4144
58.5214
58.5828
58.599
58.5704
58.4974
58.3809
58.2214
58.0199
57.7772
57.4944
57.1728
56.8134
56.4176
55.9868
55.5223
55.0258
54.4987
53.9427
53.3595
52.7506
52.1179
51.4629
50.7876
50.0937
49.3828
48.6568
47.9174
47.1662
46.4051
45.6357
44.8595
44.0782
43.2933
42.5064
41.7188
40.9321
40.1477
39.3668
38.5907
37.8207
37.0578
36.3029
35.5571
34.8211
34.096
33.3823
32.6809
31.9925
31.3175
30.6567
30.0105
29.3796
28.7645
28.1657
27.584
27.0198
26.4741
25.9475
25.4412
24.9564
24.4945
24.0575
23.6472
23.2654
22.9108
22.5856
4.33023
2.08599
1.63029
1.48078
1.43013
1.42463
1.44435
1.48017
1.52733
1.5831
1.64586
1.71461
1.78877
1.868
1.95217
2.0413
2.13551
2.235
2.34004
2.45094
2.56806
2.69177
2.82247
2.96056
3.10646
3.26059
3.42339
3.59528
3.77671
3.96812
4.16998
4.38275
4.60692
4.84299
5.09147
5.3529
5.62785
5.91688
6.22058
6.53955
6.87438
7.22573
7.59426
7.98062
8.38548
8.80953
9.25342
9.7178
10.2033
10.7106
11.2402
11.7928
12.3687
12.9686
13.5927
14.2416
14.9153
15.6143
16.3385
17.088
17.8629
18.6629
19.4878
20.3375
21.2114
22.1093
23.0308
23.9747
24.9394
25.9242
26.9284
27.9509
28.9907
30.0466
31.1174
32.2018
33.2985
34.4061
35.5233
36.6486
37.7808
38.9181
40.0564
41.1876
42.31
43.4217
44.5209
45.6057
46.6741
47.7242
48.7531
49.7589
50.7395
51.693
52.6174
53.5109
54.3716
55.1979
55.9879
56.7401
57.453
58.1252
58.7554
59.3424
59.8851
60.3824
60.8334
61.2373
61.5936
61.9019
62.1618
62.3731
62.5358
62.6498
62.7154
62.7328
62.7024
62.6248
62.5005
62.3305
62.1156
61.8567
61.5549
61.2114
60.8275
60.4045
59.9439
59.4471
58.9158
58.3515
57.7559
57.1308
56.478
55.7992
55.0962
54.3709
53.6252
52.8608
52.0798
51.2839
50.4749
49.6547
48.8251
47.9878
47.1445
46.2968
45.4464
44.5948
43.7437
42.8943
42.0483
41.207
40.3715
39.5433
38.7233
37.9127
37.1123
36.3231
35.5459
34.7814
34.0305
33.2937
32.5716
31.8648
31.1739
30.4993
29.8415
29.2012
28.5788
27.975
27.3906
26.8262
26.2829
25.7618
25.2643
24.7919
24.346
23.9281
23.5366
23.1739
4.1181
2.01923
1.58444
1.43989
1.38995
1.3836
1.40184
1.43597
1.48144
1.5357
1.59723
1.66509
1.73876
1.81796
1.9026
1.99274
2.08854
2.19026
2.29822
2.4128
2.53442
2.66353
2.80062
2.9462
3.10078
3.26489
3.43911
3.62397
3.82007
4.02797
4.24829
4.48164
4.72864
4.98994
5.2662
5.55811
5.86635
6.19166
6.53482
6.89645
7.27713
7.67767
8.09883
8.54132
9.00587
9.49318
10.0039
10.5387
11.0982
11.6829
12.2934
12.9302
13.5935
14.2839
15.0015
15.7465
16.519
17.3191
18.1466
19.0013
19.883
20.7913
21.7257
22.6856
23.6704
24.6794
25.7116
26.7659
27.8409
28.9356
30.0488
31.1791
32.3253
33.4861
34.66
35.8456
37.0416
38.2464
39.4587
40.6765
41.8999
43.1195
44.3294
45.5279
46.7128
47.8823
49.0342
50.1666
51.2774
52.3645
53.4256
54.4585
55.4613
56.4321
57.3689
58.27
59.1336
59.9581
60.7419
61.4836
62.1817
62.835
63.4424
64.0028
64.5152
64.9788
65.3929
65.7569
66.0704
66.333
66.5445
66.705
66.8145
66.8732
66.8814
66.8396
66.7483
66.6081
66.42
66.1847
65.9033
65.5769
65.2067
64.794
64.3402
63.8467
63.3152
62.7471
62.1442
61.5082
60.8409
60.144
59.4195
58.6693
57.8951
57.0991
56.283
55.4489
54.5987
53.7343
52.8575
51.9704
51.0746
50.1721
49.2646
48.3537
47.4412
46.5286
45.6176
44.7095
43.8059
42.9082
42.0176
41.1353
40.2626
39.4004
38.5497
37.7114
36.8864
36.0752
35.2788
34.4976
33.7321
32.9831
32.2508
31.5359
30.8388
30.1599
29.4999
28.8593
28.2387
27.6389
27.0607
26.5053
25.9737
25.4673
24.9873
24.5348
24.108
23.7095
3.8911
1.94563
1.53302
1.3952
1.34779
1.3423
1.36075
1.39492
1.44055
1.49527
1.55768
1.62698
1.70269
1.78458
1.87265
1.96705
2.068
2.17587
2.29105
2.41405
2.54539
2.68567
2.83551
2.99558
3.16656
3.34917
3.54415
3.75226
3.97426
4.21096
4.46315
4.73166
5.01731
5.32094
5.64339
5.98551
6.34815
6.73215
7.13833
7.56749
8.02038
8.49779
9.00044
9.52904
10.0843
10.6667
11.2769
11.9153
12.5824
13.2785
14.0039
14.7588
15.5432
16.3572
17.2007
18.0736
18.9754
19.906
20.8647
21.8511
22.8644
23.9038
24.9686
26.0577
27.1701
28.3047
29.4602
30.6353
31.8286
33.0385
34.2638
35.5029
36.7543
38.0166
39.2881
40.5676
41.8538
43.1447
44.441
45.7353
47.0177
48.2869
49.5408
50.7771
51.9939
53.1892
54.3609
55.507
56.6256
57.7146
58.7721
59.7961
60.7848
61.7364
62.6492
63.5216
64.3521
65.1392
65.8817
66.5781
67.2274
67.8286
68.3806
68.8827
69.3341
69.7343
70.0826
70.3787
70.6225
70.8136
70.9523
71.0385
71.0725
71.0548
70.9856
70.8658
70.6959
70.4767
70.2092
69.8945
69.5335
69.1276
68.6781
68.1863
67.6537
67.0819
66.4724
65.827
65.1475
64.4355
63.6929
62.9217
62.1237
61.3008
60.455
59.5883
58.7026
57.8
56.8824
55.9517
55.0099
54.0589
53.1005
52.1366
51.169
50.1993
49.2293
48.2605
47.2945
46.3329
45.377
44.4283
43.488
42.5573
41.6373
40.7291
39.8336
38.9516
38.084
37.2314
36.3945
35.5739
34.77
33.9834
33.2144
32.4636
31.7312
31.0179
30.3239
29.65
28.9965
28.3643
27.7542
27.1669
26.6037
26.0655
25.5534
25.0683
24.6082
24.1761
3.68633
1.87401
1.48413
1.35469
1.31181
1.30966
1.33117
1.36856
1.41785
1.47683
1.54425
1.61943
1.70202
1.79194
1.88932
1.99442
2.10764
2.22948
2.36052
2.50146
2.65303
2.81605
2.99139
3.17996
3.38274
3.60071
3.8349
4.08637
4.35619
4.64543
4.95518
5.28653
5.64053
6.01825
6.42071
6.84889
7.30374
7.78614
8.29693
8.83684
9.40657
10.0067
10.6378
11.3001
11.9942
12.7202
13.4781
14.268
15.0899
15.9435
16.8285
17.7445
18.6911
19.6676
20.6734
21.7076
22.7695
23.858
24.9723
26.1111
27.2733
28.4576
29.6629
30.8877
32.1307
33.3905
34.6654
35.9542
37.2551
38.5667
39.8874
41.2158
42.5502
43.8896
45.2322
46.5762
47.9239
49.266
50.5925
51.9022
53.1931
54.4635
55.7113
56.9349
58.1322
59.3015
60.441
61.549
62.6237
63.6634
64.6665
65.6314
66.5564
67.4402
68.2814
69.0785
69.8305
70.536
71.1942
71.8039
72.3643
72.8747
73.3343
73.7425
74.0989
74.4031
74.6549
74.854
75.0003
75.0941
75.1354
75.1246
75.0619
74.948
74.7835
74.569
74.3054
73.9936
73.6346
73.2295
72.7795
72.2859
71.7501
71.1735
70.5576
69.904
69.2143
68.4903
67.7337
66.9463
66.13
65.2866
64.4181
63.5264
62.6134
61.6811
60.7316
59.7666
58.7883
57.7985
56.7991
55.7921
54.7793
53.7625
52.7434
51.7238
50.7053
49.6895
48.678
47.6721
46.6732
45.6828
44.7021
43.7321
42.7741
41.8289
40.8974
39.9805
39.0789
38.1933
37.3241
36.4719
35.6372
34.8204
34.0218
33.2418
32.4808
31.7392
31.0172
30.3155
29.6345
28.9749
28.3372
27.7225
27.1315
26.5653
26.0245
25.5101
25.02
24.5574
3.50236
1.8037
1.43864
1.32097
1.28662
1.29224
1.32168
1.36762
1.42636
1.49593
1.57527
1.66392
1.76175
1.86892
1.98578
2.11285
2.2508
2.40044
2.56266
2.73848
2.92902
3.13546
3.35906
3.60115
3.8631
4.14633
4.45225
4.78232
5.13796
5.52057
5.93151
6.37206
6.84345
7.3468
7.8831
8.45323
9.05794
9.69781
10.3733
11.0846
11.832
12.6152
13.4343
14.2886
15.1779
16.1013
17.0582
18.0476
19.0686
20.1199
21.2006
22.3092
23.4446
24.6054
25.7901
26.9973
28.2256
29.4736
30.7396
32.0224
33.3202
34.6317
35.9553
37.2896
38.6331
39.9843
41.3417
42.7042
44.0701
45.4381
46.8071
48.176
49.5426
50.908
52.2701
53.6206
54.9491
56.2569
57.5422
58.8033
60.0386
61.2466
62.4258
63.5748
64.6919
65.7757
66.8249
67.838
68.8137
69.7506
70.6476
71.5032
72.3164
73.086
73.811
74.4902
75.123
75.7082
76.2453
76.7334
77.172
77.5606
77.8986
78.1858
78.4218
78.6066
78.74
78.822
78.8528
78.8325
78.7616
78.6403