/*--------------------------------*- C++ -*----------------------------------*\
  =========                 |
  \\      /  F ield         | OpenFOAM: The Open Source CFD Toolbox
   \\    /   O peration     | Website:  https://openfoam.org
    \\  /    A nd           | Version:  7
     \\/     M anipulation  |
\*---------------------------------------------------------------------------*/
FoamFile
{
    version     2.0;
    format      ascii;
    class       volScalarField;
    location    "0.17";
    object      k;
}
// * * * * * * * * * * * * * * * * * * * * * * * * * * * * * * * * * * * * * //

dimensions      [0 2 -2 0 0 0 0];

internalField   nonuniform List<scalar> 
12225
(
0.332317
0.291426
0.257358
0.230626
0.211153
0.197863
0.189255
0.183919
0.180736
0.1789
0.177862
0.177267
0.176901
0.176636
0.176408
0.17617
0.175968
0.177142
0.412401
0.405339
0.384444
0.372422
0.369846
0.372738
0.377794
0.383158
0.387998
0.392012
0.395157
0.397516
0.39922
0.4004
0.401191
0.401614
0.402107
0.401662
0.385493
0.382621
0.37238
0.362672
0.356087
0.352605
0.351413
0.351695
0.35283
0.354385
0.356072
0.357719
0.359238
0.360591
0.361776
0.362782
0.363711
0.364334
0.377227
0.374576
0.368312
0.360829
0.353907
0.348228
0.343849
0.340601
0.338268
0.336637
0.33552
0.334768
0.33427
0.333945
0.33374
0.333609
0.333539
0.333467
0.374686
0.371972
0.367007
0.360936
0.354802
0.349105
0.344022
0.33959
0.335782
0.332533
0.329763
0.327396
0.325362
0.323602
0.32207
0.320724
0.319531
0.318471
0.373367
0.370411
0.366183
0.36115
0.355898
0.350754
0.345875
0.341343
0.337196
0.333432
0.33003
0.326957
0.324181
0.321667
0.319385
0.317306
0.315406
0.313685
0.372514
0.36931
0.365486
0.361143
0.356593
0.352039
0.347595
0.343337
0.339314
0.335548
0.332041
0.328786
0.325769
0.322974
0.320383
0.317978
0.315746
0.313699
0.371961
0.368517
0.364846
0.360913
0.356857
0.352788
0.348775
0.344874
0.341125
0.337553
0.334171
0.330979
0.327976
0.325153
0.322502
0.320013
0.317679
0.315523
0.371601
0.367939
0.364274
0.360547
0.3568
0.35308
0.349417
0.345843
0.342383
0.339058
0.335878
0.332849
0.329971
0.327241
0.324655
0.322208
0.319897
0.317751
0.371367
0.367529
0.3638
0.360144
0.35656
0.353058
0.349643
0.346323
0.34311
0.340014
0.337042
0.334197
0.33148
0.328889
0.326421
0.324074
0.321847
0.319772
0.371216
0.367247
0.36344
0.35978
0.356258
0.352868
0.349601
0.346452
0.34342
0.340506
0.33771
0.335031
0.332469
0.33002
0.327681
0.325451
0.32333
0.321348
0.371127
0.367076
0.363208
0.359518
0.356
0.352647
0.349444
0.346383
0.343454
0.340652
0.337974
0.335413
0.332965
0.330627
0.328395
0.326264
0.324237
0.322342
0.371065
0.366958
0.363043
0.359321
0.355788
0.352439
0.349261
0.346242
0.343372
0.340641
0.33804
0.335562
0.333201
0.330949
0.328802
0.326755
0.324808
0.322988
0.371019
0.366871
0.362922
0.359171
0.355617
0.352256
0.349077
0.346072
0.343227
0.340533
0.337978
0.335555
0.333253
0.331065
0.328984
0.327004
0.325125
0.32337
0.370987
0.366811
0.362842
0.359073
0.355502
0.352126
0.348938
0.345928
0.343086
0.340402
0.337866
0.335466
0.333194
0.331041
0.328999
0.327061
0.325227
0.323517
0.370966
0.366773
0.362795
0.35902
0.355443
0.352061
0.348866
0.34585
0.343005
0.34032
0.337786
0.335392
0.333129
0.330988
0.328962
0.327043
0.325229
0.323542
0.370955
0.366756
0.362778
0.359006
0.355433
0.352055
0.348863
0.34585
0.343007
0.340324
0.337792
0.335402
0.333143
0.331007
0.328987
0.327076
0.32527
0.323593
0.370956
0.36676
0.36279
0.35903
0.355471
0.352107
0.34893
0.345931
0.343102
0.340433
0.337914
0.335535
0.333288
0.331164
0.329156
0.327255
0.325461
0.323795
0.370974
0.366797
0.362849
0.359112
0.35558
0.352244
0.349097
0.34613
0.343333
0.340696
0.338208
0.33586
0.333644
0.331549
0.329569
0.327697
0.32593
0.324289
0.371015
0.366882
0.362976
0.359283
0.355798
0.352512
0.349419
0.346508
0.343769
0.341189
0.33876
0.33647
0.334309
0.332269
0.330341
0.328519
0.326799
0.325202
0.371081
0.367016
0.363177
0.359553
0.35614
0.352932
0.349921
0.347094
0.344438
0.34194
0.339589
0.337372
0.335279
0.333302
0.33143
0.329658
0.327982
0.326423
0.371191
0.367242
0.36352
0.360017
0.356729
0.353651
0.350768
0.348063
0.345517
0.343115
0.340844
0.338692
0.336648
0.334705
0.332854
0.331089
0.329409
0.327835
0.371381
0.367644
0.364139
0.360847
0.357755
0.354852
0.352118
0.349522
0.347046
0.344675
0.3424
0.340213
0.338108
0.33608
0.334125
0.332242
0.330432
0.328722
0.371731
0.368398
0.365281
0.362294
0.359411
0.356632
0.353931
0.351284
0.348682
0.346127
0.343625
0.341178
0.338792
0.33647
0.334218
0.332038
0.329936
0.327944
0.372421
0.369829
0.36729
0.364586
0.361717
0.358755
0.35572
0.352628
0.349511
0.346405
0.343341
0.34034
0.337419
0.334589
0.331859
0.329234
0.326722
0.324356
0.373942
0.372661
0.370662
0.36778
0.364275
0.360417
0.356352
0.352192
0.348038
0.343964
0.340018
0.336228
0.332613
0.32918
0.325933
0.322871
0.319993
0.317323
0.377771
0.378982
0.376508
0.371674
0.365881
0.35979
0.353691
0.347767
0.342141
0.336879
0.332007
0.327528
0.323428
0.31969
0.316289
0.313199
0.310397
0.307879
0.3876
0.394032
0.386621
0.374839
0.363295
0.352971
0.343935
0.336124
0.329445
0.323785
0.319025
0.315049
0.311751
0.309033
0.306811
0.305009
0.303563
0.302423
0.402384
0.394874
0.37547
0.356343
0.340873
0.32932
0.321123
0.315593
0.312088
0.310093
0.309223
0.309194
0.309788
0.310838
0.312217
0.313825
0.315595
0.317451
0.351309
0.326982
0.304715
0.284406
0.266231
0.250251
0.236435
0.224658
0.214724
0.206409
0.199496
0.19378
0.189081
0.18524
0.182119
0.179602
0.177588
0.175994
0.000890211
0.00468502
0.00773169
0.0108753
0.0143711
0.0182638
0.0224684
0.0266157
0.0307065
0.0347119
0.0386087
0.042386
0.046043
0.0495857
0.0530238
0.0563682
0.05963
0.0628193
0.0659453
0.0690157
0.0720372
0.0750156
0.0779558
0.0808622
0.0837386
0.0865885
0.0894148
0.0922199
0.0950052
0.0977712
0.100517
0.103239
0.105934
0.108595
0.111215
0.113787
0.116304
0.118762
0.121159
0.123498
0.125784
0.128025
0.130224
0.132379
0.134478
0.136499
0.13841
0.140171
0.141746
0.143106
0.144239
0.145161
0.145914
0.146519
0.146839
0.146247
0.142879
0.14344
0.144956
0.148956
0.148542
0.146587
0.147263
0.148708
0.151165
0.15131
0.149686
0.149833
0.150296
0.151654
0.151555
0.150002
0.151634
0.152237
0.155006
0.157872
0.160776
0.163689
0.1666
0.169501
0.172386
0.17525
0.178088
0.180898
0.183675
0.186417
0.189121
0.191786
0.194414
0.197007
0.199577
0.202112
0.204582
0.206989
0.209332
0.211607
0.213811
0.215942
0.217997
0.219972
0.221864
0.223672
0.225391
0.22702
0.228556
0.229998
0.231342
0.232588
0.233733
0.234777
0.235718
0.236555
0.237287
0.237914
0.238435
0.238849
0.239158
0.23936
0.239457
0.239448
0.239335
0.239118
0.238798
0.238377
0.237855
0.237234
0.236517
0.235703
0.234796
0.233797
0.232708
0.231532
0.23027
0.228925
0.2275
0.225996
0.224417
0.222764
0.221041
0.21925
0.217395
0.215477
0.2135
0.211466
0.209379
0.207243
0.205058
0.202833
0.200564
0.198277
0.196052
0.194547
0.193797
0.193096
0.192373
0.191621
0.190841
0.190035
0.189209
0.188375
0.187595
0.186762
0.188852
0.203979
0.203962
0.188556
0.19553
0.196479
0.196535
0.191303
0.189982
0.199837
0.203428
0.203576
0.201333
0.200716
0.20133
0.197906
0.20412
0.194783
0.0032546
0.0129431
0.0192634
0.0241571
0.0286167
0.0330248
0.0374701
0.0419142
0.0463069
0.0506062
0.0547858
0.0588343
0.0627521
0.0665463
0.0702282
0.0738106
0.0773065
0.0807281
0.0840866
0.0873919
0.0906528
0.0938767
0.0970703
0.100239
0.103388
0.106521
0.109642
0.112753
0.115857
0.118954
0.122044
0.125126
0.128197
0.131253
0.13429
0.137305
0.140295
0.143259
0.146197
0.149116
0.152021
0.154919
0.157816
0.160712
0.163599
0.166465
0.169289
0.172052
0.174737
0.177339
0.179872
0.182368
0.184884
0.187469
0.190091
0.192614
0.194997
0.198035
0.201519
0.205371
0.208874
0.212933
0.216887
0.221033
0.224915
0.229256
0.234307
0.239223
0.243125
0.249183
0.253213
0.259421
0.264978
0.271297
0.27711
0.282553
0.288059
0.293621
0.29922
0.304841
0.310472
0.316104
0.32173
0.327345
0.332941
0.338513
0.344056
0.349564
0.35503
0.360448
0.365784
0.371008
0.376151
0.381216
0.386197
0.391089
0.395886
0.400582
0.405169
0.409643
0.413997
0.418225
0.422322
0.426282
0.430099
0.433769
0.437287
0.440649
0.443851
0.446888
0.449757
0.452455
0.454979
0.457327
0.459497
0.461486
0.463293
0.464917
0.466357
0.467614
0.468686
0.469573
0.470278
0.470799
0.471139
0.471299
0.47128
0.471084
0.470714
0.470171
0.469459
0.46858
0.467537
0.466334
0.464972
0.463457
0.461791
0.459978
0.458021
0.455926
0.453695
0.451333
0.448843
0.446232
0.4435
0.440658
0.437702
0.434652
0.431488
0.428266
0.42503
0.421886
0.418801
0.41568
0.412506
0.409282
0.406013
0.402706
0.399369
0.396008
0.392636
0.389248
0.386102
0.380295
0.381651
0.376687
0.372061
0.368851
0.365786
0.363296
0.360193
0.355377
0.356241
0.353692
0.347503
0.344553
0.34509
0.339307
0.336067
0.33445
0.00635853
0.0204489
0.028276
0.0340047
0.0390249
0.0437904
0.048467
0.0530933
0.0576571
0.0621332
0.0665012
0.070751
0.074882
0.0789008
0.0828184
0.0866474
0.0904012
0.0940924
0.0977329
0.101333
0.104902
0.108447
0.111976
0.115494
0.119007
0.122519
0.126033
0.129552
0.133079
0.136615
0.140162
0.143719
0.147285
0.15086
0.154442
0.158031
0.161627
0.165233
0.168851
0.172488
0.176152
0.179852
0.183595
0.187386
0.191226
0.195113
0.199042
0.203011
0.207023
0.21109
0.215232
0.21948
0.223869
0.228428
0.233151
0.238006
0.242995
0.248218
0.253675
0.259318
0.265053
0.270953
0.276931
0.283057
0.289286
0.295677
0.302242
0.308892
0.315552
0.322497
0.329301
0.336402
0.343521
0.35077
0.357948
0.36504
0.372116
0.379203
0.386305
0.393416
0.400529
0.407638
0.414734
0.421812
0.428864
0.435885
0.442868
0.449807
0.456696
0.463528
0.470257
0.476893
0.483434
0.489878
0.496215
0.502439
0.508542
0.514515
0.520351
0.52604
0.531576
0.53695
0.542156
0.547185
0.552032
0.556689
0.56115
0.56541
0.569463
0.573305
0.57693
0.580334
0.583514
0.586466
0.589188
0.591677
0.593932
0.59595
0.597731
0.599274
0.60058
0.601648
0.60248
0.603076
0.603439
0.603569
0.603471
0.603145
0.602596
0.601826
0.60084
0.59964
0.598232
0.596619
0.594806
0.592798
0.590599
0.588215
0.585651
0.582912
0.580004
0.576932
0.573702
0.570322
0.566791
0.563128
0.559319
0.555407
0.551395
0.547305
0.54317
0.539038
0.534886
0.53068
0.526411
0.522086
0.517709
0.513289
0.508834
0.504355
0.499867
0.495377
0.490975
0.48581
0.482601
0.477996
0.473078
0.468707
0.464537
0.460619
0.456557
0.452108
0.449063
0.44538
0.440882
0.43723
0.434552
0.430598
0.426903
0.424272
0.00929352
0.0264803
0.0354884
0.0419011
0.0473405
0.0523543
0.0571726
0.061888
0.066527
0.0710882
0.075563
0.0799452
0.0842343
0.088435
0.092556
0.0966083
0.100604
0.104554
0.108469
0.11236
0.116236
0.120103
0.12397
0.127841
0.131721
0.135616
0.139529
0.143463
0.147421
0.151405
0.155417
0.159458
0.163529
0.167632
0.171767
0.175936
0.180141
0.184387
0.188678
0.193022
0.197426
0.201901
0.206455
0.211095
0.215827
0.220653
0.225575
0.230598
0.235728
0.240977
0.246358
0.251891
0.257592
0.263472
0.269527
0.275741
0.282108
0.288639
0.295337
0.302187
0.309167
0.316276
0.323514
0.330888
0.338392
0.346017
0.353755
0.361602
0.369541
0.377575
0.385656
0.39382
0.402038
0.410314
0.418598
0.426872
0.43514
0.443414
0.451695
0.459981
0.468267
0.476546
0.48481
0.493053
0.501268
0.509447
0.517584
0.525672
0.533703
0.541648
0.549492
0.557234
0.564867
0.572385
0.579778
0.587037
0.594152
0.601114
0.607912
0.614537
0.62098
0.62723
0.63328
0.639121
0.644744
0.650142
0.655307
0.660232
0.664911
0.669338
0.673507
0.677414
0.681053
0.684421
0.687516
0.690333
0.692871
0.695128
0.697103
0.698796
0.700206
0.701335
0.702184
0.702754
0.703047
0.703066
0.702815
0.702296
0.701513
0.700472
0.699176
0.69763
0.69584
0.693812
0.691551
0.689063
0.686355
0.683433
0.680304
0.676973
0.673451
0.669741
0.66585
0.661794
0.65756
0.65319
0.648683
0.644054
0.639314
0.634483
0.629587
0.624649
0.619661
0.61461
0.609494
0.604318
0.599089
0.593816
0.58851
0.583182
0.57785
0.572518
0.567209
0.561748
0.556834
0.551605
0.546231
0.541087
0.536088
0.531233
0.526407
0.521582
0.517155
0.512692
0.508145
0.503961
0.500213
0.496425
0.492891
0.49002
0.0116936
0.0311794
0.0411958
0.0481977
0.0540011
0.0592306
0.0641669
0.0689441
0.0736225
0.0782252
0.0827588
0.0872247
0.091625
0.095964
0.100249
0.104488
0.108692
0.112871
0.117033
0.121189
0.125346
0.129512
0.133693
0.137895
0.142122
0.146379
0.150671
0.154999
0.159368
0.16378
0.168237
0.172742
0.177296
0.181903
0.186564
0.191282
0.196061
0.200906
0.205822
0.210818
0.2159
0.221079
0.226361
0.231756
0.23727
0.242907
0.248672
0.25457
0.260607
0.266789
0.273126
0.279628
0.286302
0.293152
0.300176
0.307367
0.314717
0.322225
0.329889
0.337703
0.345659
0.353752
0.361981
0.370345
0.378841
0.38746
0.396195
0.405039
0.413981
0.42301
0.432111
0.44128
0.450508
0.459787
0.4691
0.478432
0.487777
0.497134
0.506502
0.515875
0.525249
0.534616
0.543968
0.553298
0.562597
0.571857
0.581069
0.590225
0.599315
0.608299
0.617174
0.625935
0.634572
0.643077
0.65144
0.659648
0.66769
0.675556
0.683233
0.690711
0.697979
0.705025
0.711841
0.718414
0.724737
0.7308
0.736593
0.74211
0.747343
0.752284
0.756928
0.761269
0.765302
0.769022
0.772427
0.775511
0.778274
0.780713
0.782828
0.784618
0.786084
0.787226
0.788046
0.788547
0.78873
0.7886
0.78816
0.787416
0.78637
0.785031
0.783402
0.78149
0.779302
0.776845
0.774126
0.771152
0.76793
0.764471
0.760782
0.756867
0.752743
0.748414
0.743877
0.739175
0.734299
0.729269
0.724092
0.718782
0.713352
0.707819
0.702204
0.696523
0.690777
0.684961
0.679079
0.673137
0.667143
0.661108
0.655043
0.64896
0.642877
0.636796
0.630727
0.62466
0.618778
0.612851
0.606904
0.601082
0.595372
0.589778
0.584275
0.578872
0.573664
0.568572
0.563605
0.558924
0.554602
0.550593
0.54698
0.544
0.0135098
0.0347745
0.0455921
0.053085
0.0592074
0.0646377
0.0696915
0.0745324
0.0792465
0.0838781
0.0884491
0.0929705
0.0974492
0.101891
0.106304
0.110694
0.115071
0.119443
0.123819
0.128206
0.132612
0.137044
0.141508
0.146008
0.150551
0.155139
0.159777
0.164468
0.169216
0.174022
0.178891
0.183824
0.188825
0.193896
0.19904
0.204261
0.209563
0.214952
0.220433
0.226013
0.231699
0.2375
0.243425
0.249479
0.25567
0.262004
0.268485
0.275118
0.281908
0.288859
0.295977
0.303267
0.310735
0.318381
0.326207
0.334206
0.342376
0.350712
0.359213
0.367873
0.376688
0.385653
0.394764
0.404019
0.413414
0.422942
0.432596
0.442369
0.452249
0.462228
0.472293
0.482437
0.49265
0.502925
0.513249
0.52361
0.533999
0.544411
0.55484
0.565279
0.57572
0.586157
0.596579
0.606978
0.617345
0.627668
0.637939
0.648146
0.658267
0.668272
0.678156
0.687912
0.697529
0.706997
0.716303
0.725433
0.734377
0.743119
0.751648
0.759951
0.768016
0.775829
0.78338
0.790657
0.797648
0.804344
0.810735
0.816812
0.822566
0.82799
0.833076
0.837819
0.842212
0.846251
0.849932
0.853251
0.856206
0.858795
0.861016
0.862871
0.86436
0.865483
0.866244
0.866644
0.866688
0.86638
0.865724
0.864726
0.863391
0.861728
0.859742
0.857442
0.854833
0.851927
0.848732
0.845256
0.841504
0.837496
0.833237
0.828725
0.823993
0.819048
0.813895
0.808555
0.803034
0.797346
0.791504
0.78552
0.779408
0.773185
0.766867
0.760469
0.753996
0.747452
0.740841
0.734172
0.727455
0.720701
0.71392
0.707128
0.700339
0.693559
0.686793
0.680065
0.673431
0.666827
0.660263
0.653796
0.647433
0.641185
0.635054
0.629057
0.623229
0.61757
0.612113
0.606953
0.602167
0.597815
0.593941
0.590671
0.0148428
0.0374261
0.0488502
0.0567326
0.0631228
0.0687345
0.0739048
0.0788159
0.0835721
0.0882337
0.0928354
0.0973978
0.101934
0.106453
0.110963
0.115473
0.119989
0.12452
0.129073
0.133655
0.138274
0.142936
0.147645
0.152408
0.157228
0.162109
0.167056
0.172071
0.177158
0.182319
0.187558
0.192876
0.198279
0.203767
0.209346
0.215018
0.220789
0.226663
0.232645
0.238744
0.244964
0.251315
0.257803
0.264436
0.27122
0.27816
0.285263
0.292532
0.299971
0.307586
0.315379
0.323355
0.331518
0.339868
0.348407
0.357133
0.366043
0.375134
0.384404
0.39385
0.403466
0.413248
0.423194
0.433297
0.443555
0.453961
0.464508
0.475187
0.48599
0.496907
0.507926
0.51904
0.530238
0.54151
0.552846
0.564235
0.575665
0.587129
0.598618
0.610123
0.621634
0.633143
0.644638
0.656109
0.667545
0.678935
0.690266
0.701527
0.712673
0.723696
0.734586
0.745333
0.755924
0.766348
0.776589
0.786634
0.796468
0.806076
0.815444
0.824559
0.833405
0.84197
0.850239
0.858201
0.865843
0.873154
0.880122
0.886737
0.89299
0.898873
0.904378
0.909498
0.914227
0.91856
0.922492
0.92602
0.929141
0.931852
0.934154
0.936047
0.937532
0.93861
0.939285
0.939559
0.939437
0.938925
0.938027
0.936751
0.935103
0.933092
0.930727
0.928015
0.924964
0.921588
0.917898
0.913902
0.909601
0.905027
0.900188
0.89509
0.889751
0.884185
0.878403
0.872419
0.866246
0.859897
0.853386
0.846728
0.839935
0.833024
0.826011
0.81891
0.811729
0.804476
0.797159
0.789787
0.782372
0.774924
0.767456
0.759982
0.752517
0.745068
0.737641
0.73026
0.722951
0.715701
0.708516
0.701426
0.694444
0.687584
0.680857
0.674283
0.667887
0.661692
0.655738
0.650104
0.644869
0.640115
0.635869
0.632196
0.0157487
0.0392704
0.0511283
0.0593025
0.0659044
0.0716698
0.0769472
0.0819298
0.0867327
0.0914271
0.0960578
0.100653
0.105232
0.109808
0.114392
0.118991
0.123615
0.128272
0.132967
0.137709
0.142503
0.147356
0.152272
0.157256
0.162313
0.167447
0.17266
0.177957
0.18334
0.188811
0.194375
0.200034
0.20579
0.211648
0.217611
0.223682
0.229867
0.236171
0.242598
0.249155
0.255849
0.262687
0.269675
0.276821
0.284131
0.291611
0.299268
0.307104
0.315126
0.323337
0.33174
0.340341
0.349141
0.358142
0.367347
0.376754
0.386363
0.396171
0.406177
0.416376
0.426767
0.437343
0.448102
0.459038
0.470146
0.481421
0.492855
0.504439
0.516164
0.528021
0.539999
0.552088
0.564277
0.576555
0.588911
0.601334
0.613812
0.626333
0.638888
0.651464
0.664051
0.676638
0.689213
0.701762
0.714274
0.726734
0.73913
0.751436
0.763612
0.775652
0.787545
0.799279
0.81084
0.822212
0.83338
0.844329
0.855041
0.865502
0.875695
0.885605
0.895216
0.904513
0.913483
0.92211
0.930381
0.938283
0.945804
0.952934
0.959661
0.965978
0.971875
0.977347
0.982385
0.986985
0.991142
0.994852
0.998111
1.00092
1.00327
1.00518
1.00663
1.00764
1.0082
1.00833
1.00802
1.00727
1.00611
1.00454
1.00255
1.00017
0.997406
0.994265
0.990752
0.986886
0.982686
0.978159
0.973314
0.968172
0.962747
0.95705
0.951097
0.944903
0.938482
0.93185
0.92502
0.918008
0.910828
0.903494
0.896023
0.888429
0.880729
0.872936
0.865062
0.857118
0.849114
0.841059
0.832967
0.824848
0.816717
0.808586
0.80047
0.792377
0.784315
0.776305
0.768364
0.760494
0.752704
0.745014
0.737439
0.729996
0.722698
0.715568
0.708631
0.701916
0.695469
0.689362
0.68367
0.678475
0.673789
0.669644
0.0162809
0.0404285
0.0525708
0.0609467
0.0677036
0.0735885
0.0789555
0.0840023
0.08885
0.0935765
0.0982332
0.102855
0.107465
0.112081
0.116716
0.12138
0.126083
0.130833
0.135637
0.140501
0.145433
0.150438
0.155521
0.160686
0.165939
0.171282
0.176718
0.182252
0.187886
0.193623
0.199466
0.205418
0.211482
0.217662
0.22396
0.230382
0.236932
0.243615
0.250436
0.257401
0.264518
0.271791
0.27923
0.286839
0.294627
0.302599
0.310762
0.319121
0.32768
0.336445
0.345419
0.354607
0.364012
0.373635
0.38348
0.393546
0.403834
0.414341
0.425068
0.43601
0.447164
0.458527
0.470094
0.48186
0.493819
0.505965
0.518289
0.530783
0.543438
0.556243
0.569187
0.582259
0.595448
0.608741
0.622125
0.635589
0.649118
0.662701
0.676325
0.689976
0.703642
0.717308
0.730963
0.74459
0.758177
0.771708
0.785167
0.798499
0.811695
0.824742
0.837626
0.850332
0.862845
0.875148
0.887223
0.899053
0.910621
0.921909
0.9329
0.943577
0.953923
0.963922
0.973559
0.982819
0.991686
1.00015
1.00819
1.0158
1.02296
1.02968
1.03593
1.04172
1.04704
1.05187
1.05622
1.06008
1.06344
1.06632
1.06869
1.07058
1.07198
1.07289
1.07331
1.07326
1.07273
1.07174
1.07029
1.0684
1.06605
1.06329
1.06011
1.05652
1.05254
1.04819
1.04347
1.03841
1.03301
1.0273
1.02128
1.01498
1.00841
1.00159
0.99453
0.98725
0.979766
0.972093
0.964249
0.956247
0.948105
0.939839
0.931464
0.922997
0.91445
0.905835
0.897165
0.888451
0.879706
0.870942
0.862173
0.853412
0.844673
0.835964
0.827295
0.818683
0.810144
0.801684
0.793315
0.785052
0.776912
0.768911
0.761067
0.753403
0.745945
0.738726
0.731793
0.725213
0.719055
0.713393
0.708223
0.703566
0.0164908
0.0410071
0.0533073
0.0618051
0.0686624
0.0746301
0.0800627
0.0851591
0.0900427
0.0947948
0.0994707
0.104109
0.108738
0.113378
0.118045
0.12275
0.127504
0.132317
0.137196
0.142149
0.147182
0.152301
0.15751
0.162816
0.168222
0.173731
0.179348
0.185076
0.190917
0.196875
0.202953
0.209154
0.215481
0.221938
0.228529
0.235258
0.24213
0.249149
0.256322
0.263654
0.271153
0.278824
0.286675
0.294713
0.302945
0.311378
0.320017
0.32887
0.337942
0.347238
0.356762
0.366519
0.376513
0.386747
0.397222
0.407941
0.418903
0.430107
0.441554
0.453239
0.46516
0.477313
0.489693
0.502295
0.515112
0.528137
0.541361
0.554775
0.568368
0.58213
0.596048
0.61011
0.624304
0.638615
0.65303
0.667536
0.682116
0.696758
0.711446
0.726165
0.740901
0.755638
0.770361
0.785055
0.799702
0.814288
0.828769
0.843109
0.857299
0.871325
0.88517
0.898816
0.912246
0.925441
0.938384
0.951054
0.963434
0.975504
0.987246
0.998642
1.00967
1.02033
1.03058
1.04042
1.04984
1.05881
1.06732
1.07535
1.08291
1.08998
1.09654
1.1026
1.10814
1.11316
1.11766
1.12163
1.12506
1.12796
1.13033
1.13216
1.13347
1.13425
1.13451
1.13425
1.13349
1.13222
1.13047
1.12823
1.12553
1.12237
1.11877
1.11474
1.11029
1.10544
1.10021
1.09461
1.08866
1.08237
1.07577
1.06887
1.06169
1.05425
1.04656
1.03864
1.03051
1.02219
1.0137
1.00505
0.99625
0.987331
0.978305
0.969187
0.959993
0.950736
0.94143
0.932087
0.92272
0.913343
0.903968
0.89461
0.88528
0.875989
0.866747
0.857569
0.848467
0.839452
0.830536
0.821733
0.813059
0.804532
0.79617
0.787997
0.78004
0.772334
0.764926
0.757877
0.751249
0.745105
0.73943
0.73424
0.0164268
0.0411003
0.0534529
0.0620041
0.0689121
0.0749256
0.0803968
0.085523
0.0904278
0.0951935
0.0998777
0.104522
0.109156
0.113803
0.11848
0.123203
0.127983
0.132831
0.137754
0.142761
0.147859
0.153055
0.158353
0.163759
0.169278
0.174914
0.18067
0.18655
0.192557
0.198695
0.204968
0.211377
0.217929
0.224625
0.23147
0.23847
0.245628
0.252951
0.260444
0.268114
0.275967
0.28401
0.292251
0.300697
0.309355
0.318232
0.327336
0.336672
0.346248
0.356069
0.36614
0.376466
0.387051
0.397899
0.409011
0.420389
0.432035
0.443947
0.456125
0.468566
0.481266
0.494222
0.507428
0.520879
0.534566
0.548482
0.562618
0.576961
0.591502
0.606227
0.621123
0.636178
0.651375
0.666702
0.682142
0.697679
0.713298
0.728982
0.744716
0.760482
0.776263
0.792044
0.807807
0.823534
0.839207
0.854798
0.870249
0.885549
0.900684
0.915637
0.930387
0.944914
0.9592
0.973224
0.986967
1.00041
1.01353
1.02631
1.03873
1.05077
1.06242
1.07365
1.08445
1.0948
1.10469
1.11409
1.123
1.1314
1.13928
1.14662
1.15343
1.1597
1.16541
1.17056
1.17515
1.17918
1.18263
1.18551
1.18782
1.18956
1.19074
1.19136
1.19142
1.19094
1.18992
1.18837
1.18629
1.18371
1.18064
1.17708
1.17305
1.16857
1.16366
1.15832
1.15258
1.14645
1.13996
1.13311
1.12594
1.11846
1.11068
1.10263
1.09433
1.0858
1.07706
1.06811
1.059
1.04972
1.0403
1.03076
1.02112
1.01138
1.00158
0.991718
0.981815
0.971883
0.961936
0.951986
0.942048
0.932134
0.922257
0.912427
0.902654
0.892951
0.88333
0.873803
0.86438
0.855076
0.845907
0.83689
0.828045
0.819394
0.810967
0.802797
0.79493
0.787421
0.780326
0.773697
0.76751
0.761782
0.0161347
0.0407913
0.0531094
0.0616564
0.0685715
0.0745962
0.080078
0.0852117
0.0901192
0.0948827
0.0995604
0.104195
0.108818
0.113455
0.118124
0.122843
0.127624
0.132478
0.137416
0.142446
0.147577
0.152814
0.158166
0.163636
0.169231
0.174955
0.180813
0.186809
0.192946
0.199229
0.205661
0.212247
0.21899
0.225896
0.232968
0.240213
0.247635
0.25524
0.263036
0.271027
0.279222
0.287628
0.296252
0.305101
0.314185
0.32351
0.333083
0.342912
0.353003
0.363363
0.373997
0.384909
0.396105
0.407587
0.419358
0.43142
0.443773
0.456417
0.469351
0.482571
0.496073
0.509854
0.523906
0.538223
0.552797
0.567619
0.582677
0.59796
0.613453
0.629142
0.645014
0.661053
0.677243
0.693568
0.710011
0.726555
0.743182
0.759874
0.776614
0.793383
0.810164
0.826937
0.843684
0.860386
0.877021
0.893519
0.909865
0.926046
0.942043
0.957839
0.973406
0.988722
1.00377
1.01852
1.03297
1.04708
1.06084
1.07423
1.08722
1.09981
1.11196
1.12367
1.1349
1.14566
1.15593
1.16568
1.17489
1.18355
1.19166
1.19921
1.20618
1.21257
1.21837
1.22358
1.22819
1.23221
1.23562
1.23843
1.24063
1.24224
1.24326
1.24368
1.24352
1.24279
1.24149
1.23964
1.23724
1.2343
1.23085
1.22689
1.22244
1.21752
1.21215
1.20633
1.20009
1.19346
1.18644
1.17906
1.17134
1.1633
1.15496
1.14635
1.13747
1.12836
1.11903
1.10951
1.09981
1.08995
1.07995
1.06984
1.05962
1.04932
1.03896
1.02854
1.01809
1.00762
0.997148
0.98668
0.976231
0.965815
0.955444
0.945128
0.934876
0.924701
0.914615
0.904626
0.894747
0.884991
0.875374
0.865912
0.856625
0.847536
0.838672
0.830068
0.821767
0.813818
0.806269
0.799163
0.792471
0.786211
0.0156571
0.040153
0.0523663
0.060862
0.0677471
0.0737518
0.0792178
0.0843359
0.0892261
0.0939694
0.0986238
0.103232
0.107828
0.112436
0.117078
0.121772
0.12653
0.131367
0.136293
0.141319
0.146452
0.151702
0.157076
0.162579
0.168219
0.174001
0.179931
0.186012
0.192252
0.198653
0.205221
0.21196
0.218877
0.225975
0.23326
0.240739
0.248418
0.256302
0.264399
0.272716
0.281261
0.29004
0.299062
0.308335
0.317867
0.327665
0.337737
0.348091
0.358732
0.369668
0.380902
0.392442
0.404289
0.416448
0.428921
0.441708
0.45481
0.468225
0.481952
0.495986
0.510323
0.524957
0.539881
0.555086
0.570564
0.586304
0.602295
0.618519
0.634961
0.651605
0.668434
0.685434
0.702587
0.719874
0.737277
0.754777
0.772356
0.789993
0.80767
0.825368
0.843068
0.86075
0.878393
0.895974
0.913422
0.930717
0.947844
0.964783
0.981519
0.998038
1.01429
1.03026
1.04593
1.06128
1.07628
1.09093
1.10519
1.11904
1.13247
1.14545
1.15798
1.17002
1.18157
1.1926
1.2031
1.21306
1.22245
1.23126
1.23949
1.24713
1.25416
1.26059
1.2664
1.27158
1.27615
1.28008
1.28339
1.28607
1.28812
1.28954
1.29035
1.29055
1.29014
1.28913
1.28753
1.28536
1.28262
1.27933
1.2755
1.27114
1.26629
1.26094
1.25512
1.24885
1.24214
1.23503
1.22752
1.21964
1.21141
1.20286
1.194
1.18486
1.17546
1.16582
1.15596
1.14591
1.13568
1.1253
1.11478
1.10415
1.09343
1.08263
1.07177
1.06087
1.04994
1.039
1.02806
1.01714
1.00625
0.995397
0.984598
0.973861
0.963197
0.952614
0.942124
0.931736
0.921462
0.911314
0.901305
0.891453
0.881775
0.872295
0.863039
0.85404
0.845337
0.836975
0.828996
0.821434
0.814256
0.807484
0.015034
0.0392498
0.0513016
0.0597081
0.0665328
0.0724912
0.0779176
0.0829988
0.0878522
0.0925573
0.0971716
0.101738
0.10629
0.110853
0.11545
0.1201
0.124817
0.129616
0.134509
0.139507
0.144621
0.14986
0.155233
0.160747
0.16641
0.17223
0.178212
0.184364
0.19069
0.197199
0.203894
0.210783
0.217871
0.225165
0.232671
0.240396
0.248348
0.256533
0.264959
0.273633
0.282563
0.291757
0.301223
0.310969
0.321003
0.331332
0.341965
0.352906
0.364164
0.375742
0.387647
0.399882
0.41245
0.425353
0.438593
0.452168
0.466078
0.480321
0.494892
0.509786
0.524998
0.540518
0.55634
0.572452
0.588844
0.605506
0.622427
0.639587
0.656955
0.67452
0.692266
0.710176
0.72823
0.746409
0.764693
0.783063
0.801497
0.819976
0.83848
0.856989
0.875485
0.893946
0.912338
0.930597
0.948702
0.966633
0.98437
1.00189
1.01918
1.03621
1.05296
1.0694
1.0855
1.10126
1.11664
1.13163
1.14621
1.16035
1.17403
1.18725
1.19997
1.21218
1.22387
1.23502
1.24561
1.25563
1.26506
1.27389
1.28212
1.28972
1.2967
1.30305
1.30876
1.31383
1.31825
1.32203
1.32516
1.32764
1.32947
1.33067
1.33122
1.33115
1.33046
1.32915
1.32724
1.32473
1.32165
1.318
1.3138
1.30907
1.30382
1.29807
1.29184
1.28514
1.27801
1.27046
1.2625
1.25418
1.2455
1.23648
1.22717
1.21756
1.2077
1.1976
1.18729
1.17678
1.1661
1.15527
1.14431
1.13324
1.12209
1.11086
1.09959
1.08828
1.07696
1.06563
1.05431
1.04302
1.03177
1.02056
1.00942
0.998338
0.987338
0.976426
0.965609
0.954897
0.9443
0.933829
0.923498
0.91332
0.903314
0.893501
0.883906
0.874561
0.8655
0.856764
0.848388
0.840403
0.832768
0.825514
0.0142987
0.0381307
0.0499787
0.0582683
0.06501
0.0709015
0.0762692
0.0812957
0.0860956
0.0907471
0.0953068
0.0998173
0.104312
0.108817
0.113356
0.117948
0.122611
0.127358
0.132205
0.137164
0.142246
0.147463
0.152826
0.158343
0.164025
0.169879
0.175915
0.182141
0.188564
0.195192
0.202033
0.209094
0.216383
0.223908
0.231676
0.239695
0.247974
0.256522
0.265346
0.274454
0.28385
0.293545
0.303545
0.31386
0.324496
0.335459
0.346757
0.358394
0.370375
0.382705
0.395386
0.408421
0.42181
0.435554
0.449652
0.464101
0.478897
0.494036
0.509511
0.525316
0.54144
0.557875
0.57461
0.591631
0.608927
0.626481
0.64428
0.662303
0.680528
0.698936
0.71751
0.736228
0.755072
0.774019
0.793051
0.812145
0.831281
0.850439
0.869599
0.88874
0.907849
0.926865
0.945745
0.964467
0.983008
1.00135
1.01946
1.03734
1.05494
1.07225
1.08926
1.10592
1.12223
1.13816
1.15368
1.16879
1.18346
1.19766
1.21139
1.22462
1.23733
1.24952
1.26116
1.27223
1.28273
1.29264
1.30195
1.31064
1.31871
1.32614
1.33294
1.33909
1.34459
1.34943
1.35362
1.35714
1.36001
1.36223
1.36378
1.36469
1.36495
1.36458
1.36357
1.36194
1.35971
1.35687
1.35345
1.34945
1.3449
1.33981
1.33419
1.32808
1.32147
1.31441
1.30689
1.29896
1.29063
1.28192
1.27285
1.26346
1.25376
1.24378
1.23354
1.22306
1.21238
1.2015
1.19046
1.17928
1.16797
1.15657
1.14508
1.13353
1.12194
1.11033
1.09871
1.08709
1.07549
1.06393
1.05241
1.04095
1.02955
1.01823
1.00699
0.995835
0.984781
0.973833
0.962999
0.952289
0.941714
0.931288
0.921027
0.910951
0.901082
0.891449
0.882085
0.873025
0.864299
0.855933
0.847885
0.840188
0.0135098
0.0367568
0.0483831
0.0565478
0.0631926
0.0690026
0.0742973
0.0792551
0.0839884
0.0885742
0.0930684
0.0975142
0.101944
0.106384
0.110858
0.115388
0.119992
0.124686
0.129487
0.13441
0.139467
0.144673
0.15004
0.15558
0.161305
0.167226
0.173354
0.179699
0.186272
0.193083
0.20014
0.207455
0.215035
0.222891
0.231032
0.239465
0.248201
0.257248
0.266613
0.276304
0.286329
0.296692
0.307403
0.318465
0.329885
0.341667
0.353815
0.366331
0.379216
0.392473
0.4061
0.420097
0.43446
0.449186
0.464271
0.479709
0.495493
0.511614
0.528062
0.544829
0.561901
0.579265
0.596909
0.614818
0.632974
0.651362
0.669964
0.688759
0.707727
0.726847
0.7461
0.765464
0.784919
0.804443
0.824016
0.843618
0.863229
0.882827
0.902404
0.921913