/*--------------------------------*- C++ -*----------------------------------*\
  =========                 |
  \\      /  F ield         | OpenFOAM: The Open Source CFD Toolbox
   \\    /   O peration     | Website:  https://openfoam.org
    \\  /    A nd           | Version:  7
     \\/     M anipulation  |
\*---------------------------------------------------------------------------*/
FoamFile
{
    version     2.0;
    format      ascii;
    class       volScalarField;
    location    "0.17";
    object      nut;
}
// * * * * * * * * * * * * * * * * * * * * * * * * * * * * * * * * * * * * * //

dimensions      [0 2 -1 0 0 0 0];

internalField   nonuniform List<scalar> 
12225
(
3.8006e-05
3.33294e-05
2.94332e-05
2.6376e-05
2.41489e-05
2.26289e-05
2.16445e-05
2.10342e-05
2.06702e-05
2.04603e-05
2.03415e-05
2.02735e-05
2.02316e-05
2.02013e-05
2.01752e-05
2.01479e-05
2.01248e-05
2.02591e-05
0.000205723
0.000151533
0.000127318
0.00011441
0.00010738
0.000103277
0.000100624
9.87127e-05
9.72121e-05
9.59595e-05
9.48748e-05
9.39189e-05
9.30713e-05
9.23183e-05
9.16522e-05
9.10509e-05
9.05518e-05
8.99712e-05
0.000418642
0.000297001
0.000242051
0.000210268
0.000189712
0.000175345
0.000164792
0.000156791
0.000150577
0.000145646
0.00014166
0.000138387
0.000135665
0.000133377
0.000131439
0.000129776
0.000128357
0.000127072
0.000615536
0.000473546
0.000392593
0.000341285
0.000306018
0.000280088
0.000260129
0.000244317
0.000231535
0.000221038
0.000212304
0.000204961
0.000198732
0.000193409
0.000188829
0.00018486
0.000181409
0.000178399
0.000739725
0.000627506
0.000543984
0.000483433
0.00043857
0.000404026
0.000376526
0.000354101
0.000335479
0.000319786
0.000306403
0.000294883
0.000284891
0.000276169
0.000268512
0.000261757
0.000255777
0.00025054
0.000803284
0.00073306
0.000666703
0.000610798
0.000565223
0.000527906
0.000496932
0.000470882
0.000448705
0.000429615
0.000413022
0.000398484
0.000385659
0.000374281
0.000364138
0.000355056
0.000346908
0.000339715
0.000832284
0.000794591
0.000750952
0.000708342
0.000669782
0.000635813
0.000606106
0.000580135
0.000557359
0.000537282
0.000519487
0.00050363
0.000489431
0.00047666
0.000465129
0.000454684
0.000445213
0.000436793
0.000844509
0.000826357
0.00080147
0.000773645
0.000745694
0.000719054
0.000694321
0.000671677
0.000651086
0.000632408
0.000615459
0.00060006
0.000586041
0.00057325
0.000561553
0.000550836
0.000541022
0.000532236
0.000849308
0.000841192
0.000828458
0.000812441
0.000794697
0.000776397
0.000758297
0.000740856
0.000724328
0.000708817
0.000694347
0.00068089
0.000668396
0.000656802
0.000646044
0.00063606
0.000626818
0.000618474
0.000851043
0.000847506
0.000841448
0.000833091
0.000823015
0.00081183
0.000800056
0.000788096
0.000776247
0.000764705
0.000753592
0.000742976
0.000732889
0.000723342
0.000714329
0.000705839
0.000697878
0.000690615
0.000851597
0.000849941
0.000847101
0.000842991
0.000837725
0.000831518
0.000824608
0.00081723
0.000809591
0.000801858
0.000794157
0.000786583
0.000779201
0.000772055
0.000765175
0.00075858
0.000752304
0.000746504
0.000851725
0.000850709
0.000849144
0.00084693
0.000844053
0.00084056
0.000836535
0.000832085
0.000827319
0.000822341
0.000817241
0.000812095
0.000806961
0.000801888
0.000796911
0.000792062
0.00078738
0.000783009
0.000851737
0.000850954
0.00084994
0.000848639
0.000847018
0.00084507
0.000842806
0.000840257
0.000837464
0.000834475
0.000831338
0.000828097
0.000824792
0.000821458
0.000818125
0.00081482
0.000811582
0.000808519
0.00085171
0.000850987
0.000850182
0.000849277
0.000848261
0.000847121
0.000845852
0.000844453
0.00084293
0.000841294
0.00083956
0.000837745
0.000835865
0.000833937
0.000831977
0.000830003
0.000828042
0.000826164
0.000851676
0.000850949
0.000850197
0.00084942
0.000848622
0.000847804
0.000846965
0.0008461
0.000845208
0.000844287
0.000843336
0.000842357
0.000841353
0.000840325
0.00083928
0.000838224
0.000837171
0.000836163
0.000851651
0.000850908
0.000850159
0.000849409
0.000848666
0.00084794
0.000847233
0.000846548
0.000845883
0.000845236
0.000844605
0.000843987
0.000843379
0.00084278
0.000842188
0.000841605
0.000841039
0.000840513
0.000851638
0.000850885
0.000850136
0.000849391
0.000848661
0.000847954
0.000847278
0.000846635
0.000846027
0.000845453
0.000844912
0.000844402
0.000843919
0.000843461
0.000843026
0.000842615
0.000842231
0.000841894
0.000851638
0.00085089
0.000850149
0.000849417
0.0008487
0.000848007
0.000847346
0.000846721
0.000846132
0.00084558
0.000845065
0.000844583
0.000844134
0.000843715
0.000843323
0.000842959
0.000842628
0.000842346
0.000851661
0.000850939
0.000850225
0.000849521
0.000848835
0.000848175
0.000847547
0.000846956
0.000846402
0.000845885
0.000845405
0.000844958
0.000844543
0.000844158
0.0008438
0.000843469
0.00084317
0.000842918
0.000851715
0.000851053
0.000850398
0.000849753
0.000849128
0.000848531
0.00084797
0.000847444
0.000846955
0.0008465
0.000846076
0.000845679
0.000845307
0.000844957
0.000844624
0.000844309
0.000844017
0.000843761
0.000851801
0.000851233
0.000850669
0.000850109
0.000849564
0.000849039
0.000848537
0.000848052
0.000847578
0.00084711
0.000846641
0.000846168
0.000845687
0.000845194
0.000844689
0.000844173
0.000843651
0.000843141
0.000851941
0.000851517
0.000851065
0.000850568
0.000850018
0.000849407
0.000848724
0.000847955
0.000847091
0.000846129
0.00084507
0.00084392
0.000842686
0.000841374
0.000839989
0.000838545
0.000837064
0.000835585
0.000852143
0.000851828
0.000851264
0.000850361
0.00084908
0.00084742
0.000845392
0.000843018
0.000840332
0.000837382
0.000834215
0.000830868
0.00082738
0.000823801
0.000820179
0.000816551
0.000812953
0.000809454
0.00085222
0.000851245
0.000849026
0.000845469
0.000840721
0.000835026
0.00082861
0.00082167
0.000814384
0.000806876
0.00079928
0.000791731
0.00078432
0.000777104
0.000770117
0.000763385
0.000756933
0.000750837
0.000850791
0.000845028
0.0008354
0.000822959
0.000808863
0.000794032
0.000779057
0.000764249
0.000749867
0.000736153
0.000723204
0.000711037
0.000699635
0.000688964
0.00067898
0.000669637
0.000660902
0.000652813
0.000841138
0.000816681
0.000786997
0.000756696
0.000727773
0.000700947
0.000676365
0.000654213
0.000634341
0.00061649
0.000600409
0.000585867
0.000572659
0.00056061
0.000549574
0.000539425
0.000530067
0.000521491
0.000798628
0.000728722
0.000669092
0.000620808
0.000580936
0.000547665
0.000520045
0.00049678
0.000476895
0.000459681
0.00044461
0.000431281
0.000419384
0.000408682
0.000398986
0.000390151
0.000382062
0.000374678
0.000662426
0.000545579
0.000474638
0.000425194
0.000388262
0.000360258
0.000338454
0.000320956
0.000306542
0.000294424
0.00028407
0.0002751
0.000267239
0.00026028
0.000254069
0.000248486
0.000243437
0.000238868
0.000377505
0.000286124
0.000242631
0.000214906
0.000195642
0.000182232
0.000172795
0.000165958
0.000160838
0.00015689
0.000153769
0.000151243
0.000149154
0.00014739
0.000145875
0.00014455
0.000143374
0.000142305
6.98062e-05
6.49723e-05
6.05478e-05
5.65123e-05
5.29008e-05
4.97255e-05
4.69803e-05
4.46402e-05
4.26662e-05
4.10142e-05
3.96404e-05
3.85047e-05
3.7571e-05
3.68078e-05
3.61877e-05
3.56874e-05
3.52872e-05
3.49705e-05
2.77641e-07
6.66963e-06
1.09979e-05
1.54528e-05
2.03973e-05
2.5892e-05
3.18197e-05
3.76541e-05
4.33982e-05
4.90122e-05
5.44642e-05
5.9739e-05
6.4836e-05
6.97639e-05
7.45366e-05
7.91696e-05
8.36785e-05
8.80777e-05
9.238e-05
9.65964e-05
0.000100737
0.000104809
0.00010882
0.000112776
0.000116683
0.000120546
0.000124369
0.000128154
0.000131904
0.000135619
0.000139297
0.000142932
0.00014652
0.00015005
0.000153515
0.000156905
0.000160212
0.000163434
0.000166573
0.000169632
0.000172621
0.000175547
0.000178412
0.000181207
0.00018391
0.000186485
0.000188887
0.000191067
0.000192984
0.000194615
0.000195965
0.000197076
0.000197985
0.000198597
0.000198359
0.000195555
4.39416e-05
4.41463e-05
4.50829e-05
0.000200824
0.000199956
0.000196992
0.000198201
0.000201056
0.000205439
0.000204638
0.000201008
0.000201645
4.68868e-05
0.000203841
4.67608e-05
4.62666e-05
4.62414e-05
4.72252e-05
4.76429e-05
4.8044e-05
4.8447e-05
4.88466e-05
4.92414e-05
4.96301e-05
5.00118e-05
5.03859e-05
5.0752e-05
5.11098e-05
5.14589e-05
5.17991e-05
5.21302e-05
5.24523e-05
5.27655e-05
5.30705e-05
5.33689e-05
5.36599e-05
5.39393e-05
5.42073e-05
5.4464e-05
5.47092e-05
5.49428e-05
5.51646e-05
5.53744e-05
5.55718e-05
5.57569e-05
5.59292e-05
5.60888e-05
5.62355e-05
5.6369e-05
5.64894e-05
5.65965e-05
5.66902e-05
5.67704e-05
5.68372e-05
5.68905e-05
5.69302e-05
5.69564e-05
5.69691e-05
5.69684e-05
5.69542e-05
5.69266e-05
5.68858e-05
5.68318e-05
5.67648e-05
5.66848e-05
5.6592e-05
5.64865e-05
5.63685e-05
5.62383e-05
5.60958e-05
5.59414e-05
5.57753e-05
5.55976e-05
5.54086e-05
5.52084e-05
5.49974e-05
5.47757e-05
5.45435e-05
5.43013e-05
5.4049e-05
5.37871e-05
5.35158e-05
5.32353e-05
5.29459e-05
5.26478e-05
5.23414e-05
5.20268e-05
5.17044e-05
5.13744e-05
5.10373e-05
5.0693e-05
5.03424e-05
4.99851e-05
4.96225e-05
4.92564e-05
4.89396e-05
4.87612e-05
4.8596e-05
4.84284e-05
4.8257e-05
4.80817e-05
4.79026e-05
4.77205e-05
4.75369e-05
4.73593e-05
4.71639e-05
4.67698e-05
4.96351e-05
0.000232884
4.67721e-05
4.54949e-05
4.55877e-05
4.54074e-05
4.54878e-05
4.50988e-05
4.74681e-05
0.000219236
0.000218164
4.73209e-05
4.70837e-05
0.000212169
4.66707e-05
4.59708e-05
4.36306e-05
1.01565e-06
2.62832e-05
5.47212e-05
7.31474e-05
8.55851e-05
9.53444e-05
0.000104084
0.000112498
0.000120798
0.000129016
0.000137136
0.000145137
0.000153007
0.000160744
0.000168353
0.00017584
0.000183214
0.000190484
0.000197655
0.000204736
0.00021173
0.000218641
0.000225473
0.000232229
0.00023891
0.00024552
0.00025206
0.000258528
0.000264926
0.00027125
0.000277495
0.000283655
0.000289723
0.000295688
0.000301541
0.000307272
0.000312877
0.000318352
0.000323697
0.000328916
0.000334012
0.000338981
0.000343803
0.000348441
0.000352823
0.00035685
0.000360394
0.000363315
0.00036547
0.000366735
0.000367022
0.000366265
0.000364288
0.000360295
0.000351604
0.000331429
0.000287604
0.000287031
0.000297119
0.000331811
0.000323696
0.000309959
0.000310741
0.000316908
0.000326424
0.000324464
0.000317783
0.000317076
0.000304052
0.000322475
0.000305979
0.000310324
0.000314738
0.000321738
0.000327235
0.000331414
0.000335887
0.000340517
0.000345241
0.000350017
0.000354821
0.000359636
0.000364455
0.000369268
0.000374071
0.000378854
0.000383608
0.00038832
0.000392967
0.00039752
0.000401853
0.00040592
0.000409908
0.000413839
0.000417714
0.000421528
0.00042528
0.000428965
0.000432581
0.000436123
0.000439589
0.000442975
0.000446278
0.000449495
0.000452624
0.000455662
0.000458605
0.000461453
0.000464202
0.000466852
0.000469399
0.000471843
0.000474183
0.000476416
0.000478543
0.000480561
0.000482471
0.000484273
0.000485965
0.000487549
0.000489023
0.000490389
0.000491646
0.000492796
0.000493839
0.000494776
0.000495608
0.000496335
0.00049696
0.000497484
0.000497907
0.000498231
0.000498457
0.000498588
0.000498624
0.000498567
0.000498418
0.000498178
0.00049785
0.000497434
0.000496932
0.000496344
0.000495672
0.000494916
0.000494076
0.000493156
0.000492148
0.000491055
0.000489859
0.000488475
0.000486669
0.00048379
0.000480226
0.000476466
0.000472616
0.000468706
0.000464748
0.00046075
0.000456719
0.000452658
0.000448513
0.000443867
0.000434646
0.000428732
0.000482587
0.000424411
0.000408794
0.000403702
0.000398154
0.000396022
0.00039096
0.000387575
0.000435661
0.000432661
0.000378333
0.000371087
0.000414064
0.000367115
0.000361337
0.000347365
1.98463e-06
3.99061e-05
8.30344e-05
0.000113615
0.00013513
0.000151244
0.000164446
0.000176212
0.000187317
0.000198129
0.000208803
0.000219395
0.000229921
0.00024038
0.000250768
0.00026108
0.000271311
0.000281455
0.00029151
0.00030147
0.00031133
0.000321088
0.00033074
0.000340284
0.000349716
0.000359036
0.00036824
0.000377327
0.000386292
0.000395132
0.00040384
0.000412408
0.000420828
0.00042909
0.000437184
0.000445105
0.000452847
0.000460409
0.000467794
0.000475007
0.00048205
0.000488918
0.000495594
0.000502039
0.00050819
0.000513963
0.000519259
0.00052398
0.00052805
0.000531438
0.000534175
0.000536356
0.000538077
0.000539272
0.000539484
0.000537925
0.000534924
0.000538149
0.000544248
0.000551984
0.00055467
0.000557158
0.000562891
0.000570441
0.000578464
0.000584635
0.000590266
0.000597213
0.000603688
0.000613027
0.000618834
0.000626979
0.000636063
0.000645816
0.000655631
0.000665204
0.000674822
0.000684496
0.000694203
0.000703921
0.000713629
0.000723311
0.000732953
0.000742541
0.000752061
0.000761495
0.000770826
0.00078003
0.000789079
0.000797942
0.000806468
0.000814782
0.000822955
0.000831002
0.000838923
0.000846712
0.000854363
0.000861867
0.000869219
0.000876411
0.000883435
0.000890286
0.000896957
0.000903442
0.000909735
0.00091583
0.000921722
0.000927406
0.000932879
0.000938136
0.000943173
0.000947988
0.000952577
0.000956938
0.000961069
0.000964968
0.000968635
0.000972068
0.000975267
0.000978232
0.000980964
0.000983462
0.00098573
0.000987767
0.000989575
0.000991157
0.000992514
0.00099365
0.000994567
0.000995269
0.000995757
0.000996036
0.000996108
0.000995978
0.000995649
0.000995124
0.000994407
0.000993502
0.000992411
0.000991139
0.000989688
0.000988062
0.000986263
0.000984294
0.000982155
0.00097985
0.000977375
0.000974708
0.000971817
0.000968562
0.000964688
0.0009598
0.000954175
0.00094819
0.000941991
0.000935633
0.000929142
0.000922536
0.000915828
0.000909032
0.00090211
0.000894702
0.000885331
0.000882446
0.000888368
0.000864266
0.000853126
0.000845636
0.000837376
0.000829128
0.000820767
0.000817177
0.000823726
0.000816935
0.000797806
0.000788719
0.000791898
0.000775205
0.000768389
0.000747478
2.90111e-06
4.90954e-05
0.000102928
0.000143337
0.000172905
0.000195311
0.000213345
0.000228876
0.000243062
0.000256566
0.000269744
0.00028277
0.000295721
0.000308623
0.00032148
0.000334284
0.00034702
0.000359675
0.000372234
0.000384685
0.000397016
0.000409217
0.000421281
0.0004332
0.000444969
0.000456584
0.000468041
0.000479337
0.000490469
0.000501431
0.000512219
0.000522826
0.000533247
0.000543474
0.000553502
0.00056333
0.000572957
0.00058239
0.000591637
0.00060071
0.00060962
0.000618375
0.000626972
0.000635397
0.000643621
0.000651604
0.000659304
0.000666687
0.000673741
0.000680498
0.000687035
0.000693474
0.000699953
0.00070657
0.00071333
0.00072021
0.000727444
0.000735803
0.000744948
0.0007545
0.00076381
0.000773487
0.00078403
0.000795236
0.000806774
0.000818285
0.000829945
0.000842024
0.00085433
0.000867001
0.000879478
0.000892322
0.000905517
0.000918978
0.000932561
0.000946135
0.000959702
0.000973256
0.000986784
0.00100027
0.0010137
0.00102706
0.00104033
0.00105349
0.00106654
0.00107945
0.00109221
0.00110478
0.00111717
0.00112926
0.00114107
0.00115266
0.00116406
0.00117528
0.00118633
0.00119718
0.00120784
0.00121829
0.00122852
0.00123853
0.0012483
0.00125783
0.00126711
0.00127612
0.00128487
0.00129334
0.00130152
0.00130942
0.00131702
0.00132432
0.00133131
0.001338
0.00134436
0.00135041
0.00135615
0.00136155
0.00136664
0.00137139
0.00137582
0.00137993
0.00138371
0.00138716
0.00139029
0.0013931
0.0013956
0.00139777
0.00139963
0.00140119
0.00140244
0.00140339
0.00140404
0.0014044
0.00140447
0.00140427
0.00140378
0.00140303
0.00140201
0.00140073
0.00139919
0.0013974
0.00139537
0.0013931
0.0013906
0.00138786
0.00138489
0.00138169
0.00137826
0.00137456
0.00137055
0.00136612
0.00136108
0.00135527
0.00134882
0.00134195
0.00133478
0.00132738
0.00131977
0.00131198
0.00130402
0.00129592
0.00128767
0.0012791
0.0012699
0.00126358
0.00125714
0.00124318
0.00123313
0.0012241
0.00121452
0.00120449
0.00119461
0.00118709
0.00118126
0.00117223
0.00116055
0.0011506
0.0011429
0.00113123
0.00112114
0.00110175
3.65079e-06
5.58883e-05
0.000117959
0.000166341
0.000202855
0.000231036
0.000253757
0.000273077
0.000290382
0.000306552
0.000322113
0.000337362
0.000352454
0.00036746
0.000382407
0.000397294
0.000412109
0.000426834
0.000441451
0.000455944
0.000470295
0.000484491
0.000498523
0.000512381
0.000526059
0.000539552
0.000552858
0.000565973
0.000578896
0.000591624
0.000604155
0.000616488
0.000628619
0.000640549
0.000652277
0.000663809
0.000675151
0.000686317
0.000697322
0.000708187
0.000718932
0.000729577
0.000740137
0.000750619
0.000761024
0.000771349
0.000781588
0.000791745
0.000801838
0.000811912
0.000822035
0.000832299
0.000842799
0.000853615
0.000864787
0.00087633
0.000888283
0.000900715
0.000913578
0.000926796
0.00094029
0.000954125
0.000968364
0.000982966
0.000997856
0.00101296
0.00102827
0.00104382
0.00105956
0.00107546
0.00109145
0.00110758
0.00112385
0.00114022
0.00115665
0.00117307
0.00118945
0.00120578
0.00122204
0.00123821
0.0012543
0.00127027
0.00128612
0.00130183
0.00131739
0.00133277
0.00134796
0.00136295
0.00137771
0.00139215
0.00140633
0.00142028
0.00143401
0.00144753
0.00146083
0.0014739
0.00148674
0.00149933
0.00151166
0.00152373
0.00153551
0.00154701
0.00155821
0.0015691
0.00157967
0.00158992
0.00159982
0.00160939
0.00161861
0.00162747
0.00163597
0.0016441
0.00165186
0.00165924
0.00166625
0.00167287
0.00167911
0.00168496
0.00169042
0.0016955
0.00170019
0.00170449
0.00170841
0.00171195
0.00171511
0.0017179
0.00172031
0.00172236
0.00172405
0.00172537
0.00172635
0.00172698
0.00172727
0.00172722
0.00172685
0.00172616
0.00172516
0.00172385
0.00172224
0.00172034
0.00171814
0.00171567
0.00171293
0.00170991
0.00170662
0.00170307
0.00169923
0.00169509
0.00169062
0.00168572
0.0016803
0.00167427
0.00166771
0.00166073
0.00165342
0.00164582
0.00163797
0.00162989
0.0016216
0.00161312
0.00160446
0.00159556
0.00158639
0.00157804
0.00156893
0.0015578
0.00154776
0.00153793
0.00152777
0.00151728
0.00150681
0.00149715
0.00148779
0.00147765
0.0014669
0.00145631
0.00144588
0.00143434
0.00142224
0.00140506
4.21828e-06
6.09762e-05
0.000129371
0.000184237
0.0002267
0.000260066
0.000287171
0.000310144
0.000330497
0.00034925
0.000367064
0.000384345
0.000401328
0.000418139
0.000434837
0.000451441
0.000467951
0.000484352
0.000500629
0.000516762
0.000532737
0.000548538
0.000564155
0.000579579
0.000594803
0.000609825
0.000624642
0.000639254
0.000653662
0.000667866
0.000681868
0.00069567
0.000709276
0.000722691
0.000735921
0.000748977
0.000761872
0.000774624
0.000787256
0.000799792
0.00081226
0.000824688
0.0008371
0.000849518
0.000861961
0.000874443
0.000886978
0.000899584
0.000912288
0.000925126
0.000938146
0.000951405
0.000964959
0.00097885
0.000993104
0.00100773
0.00102271
0.00103806
0.00105376
0.00106977
0.00108607
0.00110267
0.00111954
0.00113669
0.00115406
0.00117165
0.00118941
0.00120735
0.00122543
0.00124361
0.00126189
0.00128024
0.00129864
0.00131708
0.00133551
0.0013539
0.00137224
0.00139049
0.00140865
0.0014267
0.00144463
0.00146242
0.00148006
0.00149754
0.00151484
0.00153195
0.00154886
0.00156554
0.00158195
0.00159806
0.00161392
0.00162953
0.00164492
0.00166007
0.00167498
0.00168965
0.00170406
0.0017182
0.00173205
0.00174562
0.00175888
0.00177183
0.00178446
0.00179674
0.00180868
0.00182027
0.00183149
0.00184233
0.00185279
0.00186287
0.00187254
0.00188182
0.00189069
0.00189914
0.00190718
0.0019148
0.001922
0.00192877
0.00193512
0.00194104
0.00194654
0.00195161
0.00195626
0.00196049
0.0019643
0.00196769
0.00197068
0.00197326
0.00197545
0.00197724
0.00197864
0.00197966
0.00198031
0.0019806
0.00198052
0.00198009
0.00197933
0.00197823
0.0019768
0.00197506
0.00197301
0.00197064
0.00196798
0.00196503
0.00196179
0.00195827
0.00195445
0.00195032
0.00194585
0.00194099
0.00193569
0.0019299
0.00192366
0.00191702
0.00191005
0.00190278
0.00189523
0.00188742
0.00187938
0.00187112
0.00186264
0.00185395
0.00184504
0.00183618
0.00182683
0.00181678
0.0018069
0.00179697
0.0017868
0.00177639
0.0017659
0.0017556
0.00174533
0.00173484
0.00172416
0.00171336
0.00170237
0.00169076
0.00167816
0.00166262
4.63496e-06
6.46376e-05
0.000137813
0.000197912
0.000245417
0.000283358
0.000314465
0.000340864
0.000364118
0.000385336
0.000405273
0.000424421
0.000443089
0.000461459
0.00047963
0.000497651
0.000515535
0.000533284
0.000550884
0.000568324
0.000585589
0.000602666
0.000619545
0.00063622
0.000652686
0.00066894
0.000684983
0.000700817
0.000716444
0.000731869
0.000747098
0.000762137
0.000776994
0.000791679
0.000806203
0.000820581
0.000834831
0.000848974
0.000863035
0.000877043
0.000891026
0.000905016
0.000919043
0.000933132
0.000947311
0.000961601
0.000976023
0.000990599
0.00100535
0.00102031
0.00103551
0.00105097
0.00106673
0.00108281
0.00109922
0.00111596
0.00113303
0.0011504
0.00116807
0.00118602
0.00120423
0.00122269
0.00124138
0.00126028
0.00127938
0.00129864
0.00131806
0.00133761
0.00135726
0.00137699
0.00139677
0.0014166
0.00143643
0.00145626
0.00147606
0.00149579
0.00151545
0.00153501
0.00155446
0.00157379
0.00159297
0.00161201
0.00163088
0.00164958
0.00166809
0.00168639
0.00170448
0.00172235
0.00173991
0.00175721
0.00177425
0.00179106
0.00180763
0.00182397
0.00184006
0.00185589
0.00187145
0.00188674
0.00190174
0.00191644
0.00193082
0.00194487
0.00195859
0.00197196
0.00198496
0.0019976
0.00200985
0.00202172
0.00203318
0.00204423
0.00205487
0.00206508
0.00207487
0.00208423
0.00209314
0.00210161
0.00210964
0.00211722
0.00212434
0.00213102
0.00213724
0.00214302
0.00214834
0.00215322
0.00215766
0.00216165
0.00216522
0.00216835
0.00217107
0.00217336
0.00217524
0.00217672
0.00217782
0.00217852
0.00217885
0.0021788
0.00217842
0.00217767
0.00217658
0.00217515
0.00217341
0.00217135
0.00216899
0.00216633
0.00216338
0.00216015
0.00215662
0.00215279
0.00214864
0.00214414
0.00213926
0.00213398
0.00212831
0.00212229
0.00211595
0.00210931
0.00210239
0.00209521
0.00208777
0.00208011
0.00207221
0.00206409
0.00205574
0.00204722
0.00203835
0.00202912
0.00201976
0.00201024
0.00200049
0.00199054
0.00198044
0.00197031
0.00196011
0.00194979
0.00193937
0.00192881
0.00191803
0.00190677
0.00189459
0.00188058
4.91829e-06
6.71186e-05
0.000143774
0.000208002
0.000259704
0.000301604
0.000336286
0.00036582
0.000391777
0.000415305
0.00043722
0.000458082
0.00047826
0.000497989
0.000517408
0.000536596
0.000555593
0.000574413
0.000593056
0.000611516
0.000629785
0.000647853
0.000665715
0.000683364
0.000700799
0.000718019
0.000735026
0.000751826
0.000768422
0.000784823
0.000801037
0.000817074
0.000832946
0.000848665
0.000864247
0.000879708
0.00089507
0.000910355
0.00092559
0.000940801
0.000956019
0.000971275
0.000986597
0.00100202
0.00101756
0.00103324
0.0010491
0.00106514
0.0010814
0.00109788
0.00111461
0.00113161
0.00114889
0.00116646
0.00118433
0.00120249
0.00122093
0.00123965
0.00125862
0.00127785
0.0012973
0.00131697
0.00133684
0.00135689
0.00137711
0.00139746
0.00141794
0.00143852
0.00145918
0.0014799
0.00150066
0.00152143
0.00154219
0.00156293
0.00158362
0.00160424
0.00162477
0.0016452
0.00166551
0.00168569
0.00170573
0.00172561
0.00174532
0.00176485
0.00178419
0.00180333
0.00182224
0.00184092
0.00185932
0.00187748
0.0018954
0.0019131
0.00193056
0.00194779
0.00196477
0.00198151
0.00199797
0.00201416
0.00203006
0.00204565
0.00206093
0.00207588
0.00209049
0.00210474
0.00211863
0.00213215
0.00214527
0.00215799
0.0021703
0.00218219
0.00219366
0.00220469
0.00221529
0.00222543
0.00223512
0.00224436
0.00225313
0.00226143
0.00226927
0.00227664
0.00228354
0.00228998
0.00229595
0.00230146
0.0023065
0.00231108
0.00231521
0.00231891
0.00232216
0.00232498
0.00232737
0.00232934
0.00233092
0.0023321
0.00233288
0.00233328
0.00233332
0.002333
0.00233233
0.00233133
0.00233001
0.00232838
0.00232644
0.00232421
0.0023217
0.00231891
0.00231584
0.00231248
0.00230884
0.00230488
0.00230061
0.00229599
0.00229105
0.00228579
0.00228024
0.00227442
0.00226832
0.00226197
0.00225537
0.00224854
0.00224147
0.00223417
0.00222663
0.00221887
0.00221081
0.00220248
0.00219392
0.00218514
0.00217614
0.00216692
0.00215752
0.00214799
0.00213834
0.00212857
0.0021187
0.00210871
0.00209852
0.00208797
0.00207666
0.00206413
5.08498e-06
6.86219e-05
0.000147641
0.000215013
0.000270118
0.000315369
0.000353173
0.000385512
0.000413928
0.000439578
0.000463312
0.000485734
0.00050726
0.000528169
0.000548642
0.000568788
0.00058867
0.000608323
0.000627761
0.000646988
0.000666003
0.000684803
0.000703385
0.000721748
0.000739891
0.000757818
0.000775532
0.000793039
0.000810348
0.000827467
0.000844409
0.000861185
0.000877809
0.000894297
0.000910665
0.000926933
0.000943122
0.000959256
0.000975359
0.000991459
0.00100758
0.00102376
0.00104002
0.00105639
0.00107289
0.00108956
0.0011064
0.00112343
0.00114068
0.00115816
0.00117588
0.00119385
0.00121209
0.00123059
0.00124935
0.00126838
0.00128766
0.00130719
0.00132695
0.00134693
0.00136712
0.00138751
0.00140807
0.00142879
0.00144966
0.00147066
0.00149177
0.00151296
0.00153422
0.00155553
0.00157687
0.00159822
0.00161955
0.00164085
0.0016621
0.00168329
0.00170438
0.00172538
0.00174626
0.001767
0.00178761
0.00180806
0.00182835
0.00184846
0.00186839
0.00188811
0.00190763
0.0019269
0.00194595
0.00196477
0.00198338
0.00200178
0.00201997
0.00203792
0.00205565
0.00207313
0.00209035
0.0021073
0.00212396
0.00214033
0.00215638
0.00217211
0.0021875
0.00220254
0.00221721
0.00223151
0.00224541
0.00225891
0.00227199
0.00228465
0.00229687
0.00230866
0.00231999
0.00233087
0.00234129
0.00235124
0.00236072
0.00236971
0.00237823
0.00238626
0.00239381
0.00240089
0.00240749
0.00241361
0.00241924
0.00242441
0.00242911
0.00243336
0.00243717
0.00244052
0.00244342
0.00244591
0.00244797
0.00244964
0.0024509
0.00245178
0.0024523
0.00245245
0.00245226
0.00245174
0.00245091
0.00244976
0.00244833
0.00244661
0.00244462
0.00244237
0.00243985
0.00243708
0.00243404
0.00243074
0.00242716
0.00242329
0.00241916
0.00241475
0.00241008
0.00240516
0.0024
0.0023946
0.00238897
0.00238312
0.00237703
0.00237071
0.00236416
0.00235737
0.00235032
0.002343
0.00233544
0.00232763
0.00231958
0.0023113
0.00230281
0.00229414
0.00228531
0.00227635
0.00226727
0.00225808
0.00224872
0.00223907
0.00222884
0.00221773
5.151e-06
6.93142e-05
0.000149737
0.000219364
0.000277133
0.000325141
0.000365602
0.000400388
0.000430986
0.00045854
0.000483909
0.000507722
0.000530432
0.000552352
0.000573696
0.000594603
0.000615162
0.000635426
0.000655426
0.000675178
0.00069469
0.000713966
0.000733009
0.000751821
0.000770405
0.000788768
0.000806914
0.000824853
0.000842595
0.000860151
0.000877534
0.000894758
0.000911839
0.000928793
0.00094564
0.0009624
0.000979093
0.000995742
0.00101237
0.00102901
0.00104568
0.00106241
0.00107923
0.00109615
0.00111321
0.00113043
0.00114782
0.00116541
0.0011832
0.00120121
0.00121944
0.00123792
0.00125663
0.0012756
0.0012948
0.00131425
0.00133393
0.00135384
0.00137396
0.0013943
0.00141483
0.00143555
0.00145644
0.00147748
0.00149866
0.00151997
0.00154138
0.00156288
0.00158445
0.00160607
0.00162773
0.00164939
0.00167105
0.00169269
0.00171429
0.00173582
0.00175728
0.00177864
0.0017999
0.00182104
0.00184204
0.0018629
0.0018836
0.00190414
0.0019245
0.00194467
0.00196465
0.00198443
0.00200401
0.00202341
0.00204262
0.00206165
0.00208047
0.00209908
0.00211747
0.00213562
0.00215354
0.00217119
0.00218856
0.00220565
0.00222242
0.00223889
0.00225501
0.00227079
0.00228621
0.00230125
0.00231589
0.00233013
0.00234395
0.00235735
0.00237031
0.00238282
0.00239487
0.00240647
0.0024176
0.00242825
0.00243842
0.00244809
0.00245727
0.00246596
0.00247416
0.00248187
0.0024891
0.00249584
0.00250207
0.00250782
0.00251309
0.0025179
0.00252224
0.00252613
0.00252957
0.00253258
0.00253516
0.00253733
0.0025391
0.00254049
0.00254151
0.00254217
0.00254249
0.00254249
0.00254217
0.00254156
0.00254067
0.0025395
0.00253808
0.00253642
0.00253451
0.00253238
0.00253001
0.00252741
0.00252458
0.00252151
0.00251822
0.0025147
0.00251096
0.002507
0.00250283
0.00249845
0.00249386
0.00248906
0.00248405
0.00247882
0.00247336
0.00246767
0.00246174
0.00245555
0.0024491
0.0024424
0.00243544
0.00242824
0.00242081
0.00241317
0.00240534
0.00239736
0.00238923
0.00238099
0.00237261
0.00236398
0.00235488
0.00234511
5.13148e-06
6.9335e-05
0.000150333
0.000221415
0.000281155
0.000331344
0.000373994
0.000410851
0.000443328
0.000472536
0.000499327
0.000524342
0.000548053
0.0005708
0.000592825
0.000614292
0.000635313
0.000655961
0.000676283
0.000696309
0.000716056
0.000735537
0.000754761
0.000773735
0.000792467
0.000810965
0.000829238
0.000847298
0.000865157
0.000882827
0.000900324
0.000917664
0.000934864
0.000951942
0.000968918
0.000985813
0.00100265
0.00101944
0.00103623
0.00105302
0.00106985
0.00108674
0.00110372
0.0011208
0.00113801
0.00115538
0.00117291
0.00119063
0.00120854
0.00122667
0.00124501
0.00126358
0.00128238
0.00130141
0.00132068
0.00134018
0.00135991
0.00137986
0.00140003
0.0014204
0.00144098
0.00146174
0.00148268
0.00150378
0.00152503
0.00154641
0.00156791
0.00158952
0.00161121
0.00163296
0.00165477
0.0016766
0.00169845
0.00172028
0.00174209
0.00176386
0.00178557
0.0018072
0.00182874
0.00185017
0.00187148
0.00189266
0.0019137
0.00193458
0.0019553
0.00197586
0.00199627
0.00201653
0.00203664
0.00205659
0.00207639
0.00209601
0.00211545
0.0021347
0.00215375
0.00217258
0.00219117
0.00220951
0.00222759
0.00224539
0.00226289
0.00228008
0.00229694
0.00231345
0.00232961
0.0023454
0.00236079
0.00237577
0.00239033
0.00240446
0.00241816
0.0024314
0.00244418
0.00245649
0.00246834
0.00247971
0.00249057
0.00250093
0.00251079
0.00252015
0.002529
0.00253735
0.0025452
0.00255255
0.0025594
0.00256575
0.00257161
0.00257699
0.0025819
0.00258635
0.00259034
0.00259389
0.00259701
0.00259972
0.00260202
0.00260394
0.00260549
0.00260669
0.00260754
0.00260808
0.00260831
0.00260826
0.00260794
0.00260736
0.00260654
0.00260549
0.00260423
0.00260277
0.0026011
0.00259923
0.00259718
0.00259493
0.0025925
0.00258988
0.00258709
0.00258411
0.00258096
0.00257763
0.00257412
0.00257043
0.00256654
0.00256246
0.00255817
0.00255365
0.0025489
0.00254391
0.00253866
0.00253316
0.00252739
0.00252137
0.0025151
0.0025086
0.00250188
0.00249498
0.00248792
0.00248073
0.0024734
0.00246585
0.00245789
0.00244937
5.04068e-06
6.88023e-05
0.000149661
0.000221477
0.000282539
0.000334351
0.000378719
0.00041725
0.000451274
0.000481852
0.000509816
0.000535804
0.000560298
0.000583657
0.00060614
0.000627936
0.000649175
0.000669949
0.000690321
0.000710334
0.000730017
0.000749391
0.000768473
0.000787276
0.000805813
0.000824097
0.00084214
0.000859957
0.000877562
0.000894971
0.000912202
0.000929272
0.000946201