/*--------------------------------*- C++ -*----------------------------------*\
  =========                 |
  \\      /  F ield         | OpenFOAM: The Open Source CFD Toolbox
   \\    /   O peration     | Website:  https://openfoam.org
    \\  /    A nd           | Version:  7
     \\/     M anipulation  |
\*---------------------------------------------------------------------------*/
FoamFile
{
    version     2.0;
    format      ascii;
    class       volVectorField;
    location    "0.17";
    object      U;
}
// * * * * * * * * * * * * * * * * * * * * * * * * * * * * * * * * * * * * * //

dimensions      [0 1 -1 0 0 0 0];

internalField   nonuniform List<vector> 
12225
(
(4.73347 -0.571241 0)
(4.31414 -0.430536 0)
(4.03359 -0.176984 0)
(3.82432 -0.0515507 0)
(3.64937 -0.00460187 0)
(3.5065 0.0100221 0)
(3.39554 0.0130755 0)
(3.30933 0.012467 0)
(3.23999 0.0110426 0)
(3.18253 0.00970483 0)
(3.13407 0.00863259 0)
(3.0926 0.00778354 0)
(3.05659 0.00708672 0)
(3.02496 0.0064969 0)
(2.99681 0.00598427 0)
(2.97227 0.00550735 0)
(2.94751 0.00572288 0)
(2.93617 0.0027055 0)
(5.02997 0.295074 0)
(4.84219 0.245061 0)
(4.69194 0.169885 0)
(4.58576 0.107146 0)
(4.48713 0.0705324 0)
(4.39255 0.0517186 0)
(4.30754 0.0412253 0)
(4.23274 0.0342819 0)
(4.16653 0.0292083 0)
(4.10785 0.0253973 0)
(4.05603 0.0224848 0)
(4.01029 0.0201975 0)
(3.96976 0.018347 0)
(3.93367 0.0168299 0)
(3.90135 0.0155114 0)
(3.87255 0.0146195 0)
(3.8461 0.0131605 0)
(3.82448 0.0152172 0)
(4.96336 0.187523 0)
(4.82997 0.103976 0)
(4.75455 0.0857388 0)
(4.71157 0.0765281 0)
(4.66617 0.0679886 0)
(4.61618 0.0609167 0)
(4.56773 0.0547503 0)
(4.52253 0.0491002 0)
(4.48018 0.0441046 0)
(4.44069 0.039886 0)
(4.40428 0.0363688 0)
(4.37097 0.0334031 0)
(4.34056 0.0308623 0)
(4.3128 0.0286705 0)
(4.28746 0.0267306 0)
(4.26437 0.0251365 0)
(4.24347 0.023494 0)
(4.22408 0.0230022 0)
(4.96282 0.171152 0)
(4.85056 0.102661 0)
(4.78991 0.0968194 0)
(4.76077 0.0902887 0)
(4.7331 0.0806944 0)
(4.70318 0.0725811 0)
(4.6748 0.0659572 0)
(4.64858 0.0600843 0)
(4.62374 0.0548722 0)
(4.60008 0.0503811 0)
(4.57783 0.0465378 0)
(4.55707 0.0432117 0)
(4.53777 0.0402958 0)
(4.51985 0.0377233 0)
(4.50325 0.0354168 0)
(4.48788 0.033399 0)
(4.474 0.0314417 0)
(4.46044 0.0298632 0)
(4.97359 0.195251 0)
(4.88122 0.129116 0)
(4.82304 0.114565 0)
(4.79433 0.101684 0)
(4.77163 0.0891303 0)
(4.74967 0.0798584 0)
(4.73025 0.0727888 0)
(4.71328 0.0667056 0)
(4.69771 0.0613458 0)
(4.68312 0.0567119 0)
(4.66953 0.0527165 0)
(4.65694 0.0492292 0)
(4.64527 0.0461458 0)
(4.63446 0.0433964 0)
(4.62445 0.040912 0)
(4.61518 0.0386614 0)
(4.60688 0.0365139 0)
(4.59852 0.0344527 0)
(4.98217 0.21866 0)
(4.90832 0.150138 0)
(4.85341 0.126882 0)
(4.82373 0.110036 0)
(4.80224 0.0959457 0)
(4.78326 0.0857746 0)
(4.76753 0.0780782 0)
(4.75468 0.0715733 0)
(4.74357 0.0659164 0)
(4.73364 0.0610451 0)
(4.72472 0.0568433 0)
(4.71672 0.0531707 0)
(4.70951 0.0499175 0)
(4.70297 0.0470053 0)
(4.69707 0.0443643 0)
(4.69169 0.0419334 0)
(4.68699 0.0396309 0)
(4.68218 0.0373442 0)
(4.98795 0.235242 0)
(4.93048 0.166922 0)
(4.88098 0.138212 0)
(4.85122 0.118684 0)
(4.82997 0.103056 0)
(4.81211 0.0916164 0)
(4.79784 0.0829519 0)
(4.78673 0.075775 0)
(4.77768 0.0696368 0)
(4.77004 0.0643899 0)
(4.76354 0.0598783 0)
(4.758 0.0559441 0)
(4.75325 0.0524658 0)
(4.74915 0.0493532 0)
(4.74562 0.0465301 0)
(4.74254 0.0439213 0)
(4.74 0.0414637 0)
(4.73734 0.0390386 0)
(4.9919 0.247335 0)
(4.94823 0.182011 0)
(4.90535 0.149827 0)
(4.8767 0.127922 0)
(4.85586 0.110582 0)
(4.83866 0.0976498 0)
(4.82505 0.0878142 0)
(4.81467 0.0797858 0)
(4.80656 0.0730126 0)
(4.80002 0.067264 0)
(4.79474 0.0623422 0)
(4.79049 0.0580675 0)
(4.78707 0.0543023 0)
(4.78431 0.0509426 0)
(4.78211 0.0479031 0)
(4.78034 0.0451015 0)
(4.77903 0.0424784 0)
(4.77765 0.0399317 0)
(4.99462 0.256586 0)
(4.9621 0.195576 0)
(4.92617 0.161163 0)
(4.89971 0.137237 0)
(4.87988 0.118314 0)
(4.86352 0.103902 0)
(4.85047 0.0928237 0)
(4.84052 0.0838372 0)
(4.83286 0.0763181 0)
(4.82688 0.0699677 0)
(4.82222 0.0645505 0)
(4.81864 0.059864 0)
(4.81592 0.0557532 0)
(4.81388 0.0520998 0)
(4.8124 0.0488082 0)
(4.81136 0.0457911 0)
(4.81074 0.0429869 0)
(4.81008 0.0403106 0)
(4.99646 0.263634 0)
(4.97261 0.207278 0)
(4.94337 0.171673 0)
(4.91989 0.14623 0)
(4.90171 0.126016 0)
(4.88659 0.110268 0)
(4.87434 0.0979728 0)
(4.86487 0.0879921 0)
(4.8576 0.0796677 0)
(4.85199 0.0726504 0)
(4.8477 0.0666754 0)
(4.8445 0.0615213 0)
(4.84216 0.0570162 0)
(4.84052 0.0530284 0)
(4.83943 0.0494522 0)
(4.83878 0.046196 0)
(4.83853 0.0431935 0)
(4.83826 0.0403711 0)
(4.99767 0.268913 0)
(4.98039 0.217056 0)
(4.9572 0.181111 0)
(4.93711 0.15463 0)
(4.92105 0.133424 0)
(4.90756 0.116541 0)
(4.89644 0.103129 0)
(4.88771 0.0921847 0)
(4.88097 0.0830486 0)
(4.87577 0.0753403 0)
(4.87184 0.0687761 0)
(4.86894 0.0631208 0)
(4.86687 0.0581894 0)
(4.86549 0.0538385 0)
(4.86464 0.0499537 0)
(4.86421 0.0464392 0)
(4.86417 0.0432232 0)
(4.86411 0.0402386 0)
(4.99839 0.2726 0)
(4.9856 0.224468 0)
(4.9672 0.188727 0)
(4.95027 0.161617 0)
(4.93638 0.139705 0)
(4.92464 0.121967 0)
(4.91485 0.107659 0)
(4.90706 0.0959019 0)
(4.90101 0.0860577 0)
(4.89635 0.0777318 0)
(4.89284 0.0706306 0)
(4.89027 0.0645118 0)
(4.88849 0.0591819 0)
(4.88733 0.0544893 0)
(4.88667 0.0503134 0)
(4.88641 0.0465541 0)
(4.88651 0.0431365 0)
(4.88658 0.0399913 0)
(4.99887 0.275397 0)
(4.98949 0.230586 0)
(4.97517 0.195383 0)
(4.96128 0.16786 0)
(4.94959 0.14538 0)
(4.93971 0.126931 0)
(4.93142 0.111845 0)
(4.92475 0.0993558 0)
(4.91957 0.0888583 0)
(4.9156 0.0799533 0)
(4.91263 0.0723419 0)
(4.9105 0.0657776 0)
(4.90906 0.0600613 0)
(4.90818 0.0550356 0)
(4.90775 0.0505745 0)
(4.90767 0.0465743 0)
(4.90792 0.0429575 0)
(4.90813 0.0396482 0)
(4.99923 0.27772 0)
(4.99273 0.236117 0)
(4.98228 0.201737 0)
(4.97158 0.173965 0)
(4.96239 0.150996 0)
(4.95464 0.131892 0)
(4.94816 0.116052 0)
(4.94295 0.102826 0)
(4.93894 0.091659 0)
(4.93592 0.0821527 0)
(4.93374 0.0740049 0)
(4.93225 0.0669679 0)
(4.93133 0.0608388 0)
(4.93087 0.0554551 0)
(4.93079 0.0506862 0)
(4.931 0.0464249 0)
(4.93147 0.0425893 0)
(4.93189 0.0391015 0)
(4.99952 0.279557 0)
(4.99535 0.240765 0)
(4.98839 0.207341 0)
(4.98095 0.179464 0)
(4.97445 0.156077 0)
(4.96906 0.136381 0)
(4.96465 0.119833 0)
(4.96119 0.105894 0)
(4.95864 0.0940684 0)
(4.95686 0.0839663 0)
(4.95572 0.0752851 0)
(4.9551 0.0677761 0)
(4.95492 0.0612343 0)
(4.95508 0.0554928 0)
(4.95552 0.0504164 0)
(4.95616 0.0458944 0)
(4.95699 0.0418397 0)
(4.95773 0.0381747 0)
(4.99973 0.280877 0)
(4.99746 0.244229 0)
(4.99358 0.211676 0)
(4.98935 0.18376 0)
(4.98572 0.159988 0)
(4.98289 0.13975 0)
(4.98077 0.122559 0)
(4.97932 0.107956 0)
(4.9785 0.0955082 0)
(4.97821 0.084844 0)
(4.97835 0.0756616 0)
(4.97884 0.0677116 0)
(4.97961 0.0607867 0)
(4.98059 0.0547161 0)
(4.98172 0.0493598 0)
(4.98297 0.044603 0)
(4.98432 0.0403533 0)
(4.98553 0.0365339 0)
(4.99991 0.281595 0)
(4.99922 0.246149 0)
(4.9981 0.214071 0)
(4.99706 0.186011 0)
(4.99649 0.161823 0)
(4.99647 0.141065 0)
(4.99691 0.123299 0)
(4.99774 0.108117 0)
(4.99892 0.0951279 0)
(5.00038 0.0839807 0)
(5.00205 0.0743748 0)
(5.00387 0.0660585 0)
(5.0058 0.0588216 0)
(5.00778 0.0524892 0)
(5.0098 0.0469164 0)
(5.01181 0.0419837 0)
(5.01383 0.0375937 0)
(5.01565 0.0336697 0)
(5.00008 0.281528 0)
(5.00085 0.245947 0)
(5.00244 0.213545 0)
(5.00477 0.184979 0)
(5.00763 0.160234 0)
(5.01081 0.13894 0)
(5.0142 0.120673 0)
(5.01771 0.105033 0)
(5.02126 0.0916465 0)
(5.02481 0.0801639 0)
(5.02832 0.0702806 0)
(5.03174 0.0617388 0)
(5.03506 0.0543228 0)
(5.03827 0.0478525 0)
(5.04135 0.0421782 0)
(5.04431 0.0371758 0)
(5.04715 0.0327436 0)
(5.04972 0.0288051 0)
(5.00031 0.280231 0)
(5.00288 0.242348 0)
(5.00773 0.208158 0)
(5.01414 0.178337 0)
(5.02118 0.152756 0)
(5.02832 0.130912 0)
(5.03533 0.112294 0)
(5.04213 0.0964533 0)
(5.04863 0.0829749 0)
(5.05477 0.0714759 0)
(5.06053 0.0616265 0)
(5.06594 0.0531531 0)
(5.07099 0.0458298 0)
(5.07572 0.0394689 0)
(5.08013 0.0339156 0)
(5.08425 0.0290423 0)
(5.08813 0.0247442 0)
(5.09163 0.0209462 0)
(5.00061 0.277677 0)
(5.00556 0.235188 0)
(5.01459 0.19765 0)
(5.02595 0.165829 0)
(5.03779 0.139188 0)
(5.04926 0.116848 0)
(5.06016 0.0981151 0)
(5.07043 0.082431 0)
(5.07998 0.0692749 0)
(5.08876 0.058182 0)
(5.09682 0.0487741 0)
(5.10421 0.0407512 0)
(5.11099 0.0338715 0)
(5.11722 0.0279374 0)
(5.12295 0.0227884 0)
(5.12822 0.0182952 0)
(5.13311 0.0143522 0)
(5.13752 0.0108862 0)
(5.00095 0.274083 0)
(5.00882 0.225434 0)
(5.02282 0.184041 0)
(5.03959 0.150466 0)
(5.05622 0.123224 0)
(5.07177 0.100847 0)
(5.08626 0.0824561 0)
(5.09966 0.0673675 0)
(5.11187 0.0549178 0)
(5.1229 0.0445475 0)
(5.13286 0.0358386 0)
(5.14189 0.0284759 0)
(5.15007 0.0222089 0)
(5.15751 0.0168363 0)
(5.16428 0.0121989 0)
(5.17046 0.00817073 0)
(5.17614 0.00465044 0)
(5.18124 0.00156881 0)
(5.00149 0.269092 0)
(5.01372 0.212437 0)
(5.0345 0.16695 0)
(5.0578 0.132151 0)
(5.07956 0.104811 0)
(5.09929 0.0828106 0)
(5.11739 0.065178 0)
(5.13384 0.051067 0)
(5.14853 0.0396289 0)
(5.16158 0.0302188 0)
(5.17321 0.022402 0)
(5.18363 0.0158596 0)
(5.19297 0.0103375 0)
(5.20137 0.00563629 0)
(5.20894 0.00160255 0)
(5.21578 -0.00188245 0)
(5.22202 -0.00491302 0)
(5.22758 -0.00755351 0)
(5.00238 0.262168 0)
(5.0213 0.195514 0)
(5.05129 0.146406 0)
(5.08217 0.111361 0)
(5.10918 0.0844837 0)
(5.13302 0.0633042 0)
(5.15461 0.0469176 0)
(5.17381 0.0342071 0)
(5.19056 0.024089 0)
(5.20517 0.0158695 0)
(5.21802 0.00912987 0)
(5.22937 0.00355752 0)
(5.23942 -0.00109957 0)
(5.24833 -0.00503293 0)
(5.25628 -0.00838402 0)
(5.26339 -0.0112605 0)
(5.2698 -0.013747 0)
(5.27546 -0.0159013 0)
(5.00395 0.252449 0)
(5.03318 0.173619 0)
(5.07518 0.122493 0)
(5.11405 0.0888211 0)
(5.14582 0.0630998 0)
(5.17336 0.0432463 0)
(5.19791 0.0286252 0)
(5.21913 0.0177163 0)
(5.23712 0.00918644 0)
(5.25252 0.00234586 0)
(5.26586 -0.00317837 0)
(5.27747 -0.0076812 0)
(5.28758 -0.0114032 0)
(5.29642 -0.0145189 0)
(5.30419 -0.017152 0)
(5.31104 -0.0193953 0)
(5.31712 -0.0213206 0)
(5.32244 -0.0229778 0)
(5.00664 0.239248 0)
(5.05116 0.146018 0)
(5.10794 0.0952413 0)
(5.15399 0.0649517 0)
(5.18903 0.0414755 0)
(5.21925 0.0237363 0)
(5.24577 0.0114053 0)
(5.26789 0.00256822 0)
(5.28606 -0.00423113 0)
(5.30131 -0.00960262 0)
(5.31429 -0.0138575 0)
(5.32536 -0.0172653 0)
(5.33479 -0.0200439 0)
(5.34287 -0.0223424 0)
(5.3498 -0.0242627 0)
(5.35577 -0.0258815 0)
(5.36094 -0.0272564 0)
(5.36535 -0.0284303 0)
(5.01051 0.222559 0)
(5.07591 0.115744 0)
(5.14967 0.067319 0)
(5.2013 0.040612 0)
(5.23763 0.0200851 0)
(5.26896 0.00552519 0)
(5.29602 -0.00392256 0)
(5.3177 -0.010521 0)
(5.33486 -0.015563 0)
(5.34886 -0.0194645 0)
(5.36043 -0.0224619 0)
(5.36993 -0.0247952 0)
(5.37769 -0.0266515 0)
(5.38401 -0.0281506 0)
(5.38916 -0.0293728 0)
(5.39333 -0.0303799 0)
(5.39668 -0.0312154 0)
(5.39931 -0.0319177 0)
(5.01612 0.196419 0)
(5.1084 0.0875856 0)
(5.19904 0.0463836 0)
(5.25416 0.0197472 0)
(5.29029 -8.88419e-05 0)
(5.32103 -0.011362 0)
(5.34658 -0.017424 0)
(5.36581 -0.0214961 0)
(5.38007 -0.0246439 0)
(5.39092 -0.0270037 0)
(5.39914 -0.0287066 0)
(5.40514 -0.0299496 0)
(5.4093 -0.0308814 0)
(5.41199 -0.0315879 0)
(5.41351 -0.0321251 0)
(5.41409 -0.0325391 0)
(5.41393 -0.0328589 0)
(5.41315 -0.033117 0)
(5.02989 0.134584 0)
(5.15986 0.0475736 0)
(5.25806 0.0412315 0)
(5.30883 0.0217105 0)
(5.34245 -0.00173353 0)
(5.37071 -0.0156514 0)
(5.39135 -0.0222069 0)
(5.40386 -0.0258089 0)
(5.41056 -0.0281193 0)
(5.4135 -0.0295016 0)
(5.41363 -0.0302169 0)
(5.41151 -0.030536 0)
(5.40765 -0.0306376 0)
(5.40252 -0.0306138 0)
(5.39648 -0.0305168 0)
(5.38979 -0.0303899 0)
(5.38264 -0.0302626 0)
(5.37522 -0.0301633 0)
(5.08133 -0.0500374 0)
(5.26819 -0.199281 0)
(5.34721 -0.137925 0)
(5.36475 -0.0864827 0)
(5.37844 -0.063896 0)
(5.39125 -0.0517809 0)
(5.3935 -0.0435393 0)
(5.38495 -0.0382484 0)
(5.37011 -0.0349424 0)
(5.35226 -0.0326286 0)
(5.33279 -0.030791 0)
(5.31238 -0.029249 0)
(5.29159 -0.0279277 0)
(5.27085 -0.0267755 0)
(5.25042 -0.0257579 0)
(5.23046 -0.0248732 0)
(5.2111 -0.0241259 0)
(5.1925 -0.0237039 0)
(5.01586 0.723718 0)
(5.23568 0.467499 0)
(5.28471 0.234423 0)
(5.20733 0.103788 0)
(5.1062 0.038219 0)
(5.01524 0.00868431 0)
(4.93343 -0.00335807 0)
(4.8586 -0.00797556 0)
(4.79136 -0.00964351 0)
(4.7316 -0.0101095 0)
(4.67814 -0.010081 0)
(4.62975 -0.00987732 0)
(4.58566 -0.00963908 0)
(4.54532 -0.00941751 0)
(4.50827 -0.00922551 0)
(4.47407 -0.00907835 0)
(4.44225 -0.00897836 0)
(4.4126 -0.00915169 0)
(0.00477362 -0.0120412 -1.45163e-20)
(0.0135621 -0.0134679 1.42893e-20)
(0.0180148 -0.00687989 0)
(0.0173007 0.00101389 0)
(0.0118623 0.00735105 0)
(0.00292272 0.0115275 -1.30469e-20)
(-0.00842508 0.014046 0)
(-0.0214255 0.0155747 0)
(-0.0356277 0.0165709 0)
(-0.0507219 0.0172952 0)
(-0.0665162 0.0178725 1.12606e-20)
(-0.0828813 0.0183516 0)
(-0.0997178 0.0187457 0)
(-0.11694 0.0190549 0)
(-0.13447 0.0192775 0)
(-0.152233 0.0194141 9.95164e-21)
(-0.170163 0.0194686 0)
(-0.188198 0.0194478 0)
(-0.206282 0.0193604 0)
(-0.224368 0.0192164 0)
(-0.242416 0.0190261 0)
(-0.260395 0.0187996 0)
(-0.27828 0.0185464 0)
(-0.296052 0.0182753 8.59729e-21)
(-0.313701 0.0179938 -8.46958e-21)
(-0.33122 0.0177082 8.34862e-21)
(-0.348608 0.017424 8.23387e-21)
(-0.365867 0.0171453 0)
(-0.383001 0.0168754 0)
(-0.400018 0.0166173 -7.92194e-21)
(-0.416925 0.0163734 -7.82743e-21)
(-0.433734 0.0161463 0)
(-0.450453 0.0159389 0)
(-0.467095 0.0157544 -7.56821e-21)
(-0.483673 0.0155963 0)
(-0.500203 0.015468 0)
(-0.516703 0.0153719 7.34126e-21)
(-0.533193 0.0153083 0)
(-0.549692 0.0152741 7.2053e-21)
(-0.566221 0.0152608 1.42824e-20)
(-0.582793 0.015253 0)
(-0.599412 0.0152292 0)
(-0.616066 0.0151666 0)
(-0.63273 0.0150531 0)
(-0.64937 0.0149029 0)
(-0.665963 0.014764 1.36013e-20)
(-0.682505 0.0147046 1.35031e-20)
(-0.69903 0.0147821 1.34101e-20)
(-0.715588 0.0150218 0)
(-0.732225 0.0154419 -1.32403e-20)
(-0.749017 0.016104 0)
(-0.766105 0.0170199 1.30884e-20)
(-0.783514 0.0177138 1.30155e-20)
(-0.800854 0.0171588 0)
(-0.817589 0.0155149 0)
(-0.833709 0.0153949 0)
(-0.8499 0.0181134 1.27483e-20)
(-0.866808 0.0207899 0)
(-0.883809 0.0214865 0)
(-0.900202 0.0216726 0)
(-0.917322 0.0328037 0)
(-0.93541 0.0322993 0)
(-0.953167 0.0193247 0)
(-0.968388 0.0105369 0)
(-0.982582 0.00988752 0)
(-0.998873 0.0287818 -1.24388e-20)
(-1.01757 0.0355432 0)
(-1.03346 0.0071933 0)
(-1.04755 0.018411 1.23877e-20)
(-1.06154 0.0183735 1.24941e-20)
(-1.07618 0.0185752 0)
(-1.09185 0.0320635 -1.25566e-20)
(-1.10803 0.023835 1.27138e-20)
(-1.12151 0.017078 0)
(-1.13249 0.00508218 -1.23925e-20)
(-1.14184 0.00761506 0)
(-1.15244 0.00747388 0)
(-1.1627 0.00727319 1.18734e-20)
(-1.17265 0.00693846 0)
(-1.18212 0.00653339 -1.15004e-20)
(-1.19105 0.00608514 0)
(-1.19938 0.00560607 1.11067e-20)
(-1.20707 0.00510144 1.09018e-20)
(-1.21409 0.00457268 1.06912e-20)
(-1.22041 0.00401914 2.09497e-20)
(-1.22598 0.00343896 -2.05053e-20)
(-1.23077 0.00283082 0)
(-1.23475 0.00219761 0)
(-1.23785 0.00155205 0)
(-1.24004 0.000918959 -1.86078e-20)
(-1.24125 0.000326857 -1.81006e-20)
(-1.24159 -0.000203851 1.75777e-20)
(-1.24118 -0.000683269 0)
(-1.24 -0.00114696 -1.64897e-20)
(-1.23805 -0.00160439 -1.59241e-20)
(-1.23533 -0.00205882 -1.53439e-20)
(-1.23183 -0.00251108 0)
(-1.22755 -0.00296114 0)
(-1.22247 -0.00340868 0)
(-1.2166 -0.00385324 -1.28766e-20)
(-1.20993 -0.0042943 0)
(-1.20246 -0.00473137 0)
(-1.19418 -0.00516394 1.08723e-20)
(-1.18509 -0.00559152 0)
(-1.1752 -0.00601363 0)
(-1.1645 -0.00642984 8.73889e-21)
(-1.153 -0.00683971 0)
(-1.1407 -0.00724286 0)
(-1.1276 -0.0076389 -6.48142e-21)
(-1.11371 -0.00802751 -5.70256e-21)
(-1.09904 -0.00840836 0)
(-1.08358 -0.00878118 4.10716e-21)
(-1.06736 -0.0091457 0)
(-1.05037 -0.00950167 -2.46391e-21)
(-1.03263 -0.00984887 0)
(-1.01415 -0.0101871 -7.75941e-22)
(-0.994928 -0.0105161 8.37509e-23)
(-0.974987 -0.0108359 0)
(-0.954335 -0.0111461 0)
(-0.932985 -0.0114467 0)
(-0.910949 -0.0117376 0)
(-0.888242 -0.0120187 0)
(-0.864877 -0.0122897 0)
(-0.840868 -0.0125505 0)
(-0.816232 -0.0128011 7.27589e-21)
(-0.790984 -0.0130413 -8.2065e-21)
(-0.76514 -0.013271 0)
(-0.738717 -0.01349 0)
(-0.711733 -0.0136981 0)
(-0.684205 -0.0138952 0)
(-0.656153 -0.0140811 -2.58494e-20)
(-0.627595 -0.0142556 0)
(-0.598553 -0.0144184 2.96609e-20)
(-0.569046 -0.0145693 -3.15691e-20)
(-0.539097 -0.014708 0)
(-0.508727 -0.014834 0)
(-0.477962 -0.0149472 0)
(-0.446825 -0.0150469 3.91841e-20)
(-0.415341 -0.0151328 4.10755e-20)
(-0.383539 -0.0152042 0)
(-0.351447 -0.0152605 4.48318e-20)
(-0.319094 -0.0153011 4.66933e-20)
(-0.286513 -0.0153251 -4.85411e-20)
(-0.253737 -0.0153317 0)
(-0.220802 -0.0153199 0)
(-0.187747 -0.0152885 -5.39836e-20)
(-0.154612 -0.015236 0)
(-0.12144 -0.0151599 0)
(-0.0882741 -0.0150552 0)
(-0.0551606 -0.0149151 0)
(-0.0221636 -0.0147203 6.26043e-20)
(0.0106538 -0.014447 6.37855e-20)
(0.0432788 -0.0141324 0)
(0.0756772 -0.0138147 6.49758e-20)
(0.107818 -0.0134953 0)
(0.139671 -0.0131717 0)
(0.171209 -0.0128437 6.63704e-20)
(0.202404 -0.0125148 0)
(0.233249 -0.0121947 6.70869e-20)
(0.263762 -0.0119052 0)
(0.294191 -0.0120005 0)
(0.32421 -0.0099814 6.78566e-20)
(0.35334 -0.00440749 0)
(0.38399 -0.0116537 6.38917e-20)
(0.409521 -0.0145374 0)
(0.43828 -0.00502318 0)
(0.465732 -0.00563222 0)
(0.491404 -0.00790819 -6.85726e-20)
(0.517366 -0.0101419 0)
(0.54188 -0.0106347 6.87024e-20)
(0.565848 -0.00224425 0)
(0.591154 -0.00809218 0)
(0.612246 -0.0120673 0)
(0.635143 0.000575627 0)
(0.657154 -0.000525097 0)
(0.677065 -0.0117581 0)
(0.694456 -0.00557134 0)
(0.710089 0.00692323 -1.28628e-19)
(0.722197 0.00047918 0)
(0.697503 0.00103615 0)
(0.0018645 -0.0254945 4.28662e-20)
(0.00107407 -0.0156951 -4.0201e-20)
(-0.00411328 -0.000506258 0)
(-0.0113455 0.0130469 2.27718e-20)
(-0.0206572 0.0240699 0)
(-0.0318802 0.0323645 1.03994e-20)
(-0.0448069 0.0382878 -2.00395e-20)
(-0.0591991 0.0424271 -1.93781e-20)
(-0.0747817 0.0453247 0)
(-0.0912873 0.047382 -1.82012e-20)
(-0.108486 0.0488613 -8.8568e-21)
(-0.126192 0.0499204 0)
(-0.144257 0.0506507 0)
(-0.162562 0.0511071 0)
(-0.181011 0.0513266 0)
(-0.199525 0.0513384 -7.80611e-21)
(-0.218041 0.0511695 0)
(-0.236505 0.050846 1.49267e-20)
(-0.254875 0.0503935 0)
(-0.27312 0.0498374 0)
(-0.291216 0.0492016 -1.4113e-20)
(-0.309145 0.0485081 0)
(-0.3269 0.0477773 1.36527e-20)
(-0.344475 0.0470266 -6.74094e-21)
(-0.361874 0.0462712 6.64195e-21)
(-0.3791 0.0455231 -6.54844e-21)
(-0.396164 0.044792 -6.45995e-21)
(-0.413075 0.044085 0)
(-0.429848 0.0434069 0)
(-0.446496 0.0427605 6.22063e-21)
(-0.463035 0.0421476 -6.11021e-21)
(-0.479481 0.0415692 0)
(-0.49585 0.0410259 0)
(-0.512159 0.0405191 5.95187e-21)
(-0.528423 0.0400507 0)
(-0.544661 0.0396232 0)
(-0.560886 0.0392391 -5.78126e-21)
(-0.577112 0.0388995 0)
(-0.593352 0.038602 5.64034e-21)
(-0.609612 0.0383388 -1.12651e-20)
(-0.625899 0.0380952 0)
(-0.642213 0.0378499 0)
(-0.658559 0.03758 -2.19266e-20)
(-0.67494 0.0372696 -2.17672e-20)
(-0.691369 0.0369196 -2.16162e-20)
(-0.707859 0.0365512 1.06972e-20)
(-0.724424 0.036197 -1.07127e-20)
(-0.741072 0.0358837 -3.18817e-20)
(-0.757807 0.0356198 2.11254e-20)
(-0.77462 0.035402 1.0563e-20)
(-0.791464 0.0352229 0)
(-0.808235 0.0350441 -1.05076e-20)
(-0.824862 0.0347292 1.04026e-20)
(-0.841475 0.034059 0)
(-0.858299 0.0330299 0)
(-0.875304 0.0320934 0)
(-0.892135 0.0315668 -1.04513e-20)
(-0.908483 0.0309999 0)
(-0.924704 0.0299106 2.08295e-20)
(-0.941206 0.0283711 0)
(-0.95649 0.0271424 2.09836e-20)
(-0.97103 0.0272181 0)
(-0.985722 0.028244 -2.15778e-20)
(-1.00181 0.0287483 0)
(-1.01787 0.027213 2.08003e-20)
(-1.03109 0.0251881 -1.02066e-20)
(-1.04233 0.0245543 0)
(-1.05587 0.0245929 -2.06893e-20)
(-1.06886 0.0233368 -1.00717e-20)
(-1.0813 0.02223 -1.01317e-20)
(-1.09277 0.0205783 0)
(-1.10234 0.0192341 -9.77826e-21)
(-1.1111 0.0186126 -9.85274e-21)
(-1.12044 0.0181285 0)
(-1.1304 0.0177219 9.59981e-21)
(-1.14059 0.0175607 -1.88725e-20)
(-1.14918 0.017013 0)
(-1.15696 0.016204 -9.17679e-21)
(-1.16409 0.0152516 0)
(-1.1706 0.0142095 2.66143e-20)
(-1.17651 0.0131109 0)
(-1.1818 0.0119733 -2.56838e-20)
(-1.18648 0.0108062 -8.40399e-21)
(-1.19053 0.00961423 8.22806e-21)
(-1.19394 0.0083998 1.61209e-20)
(-1.19671 0.00716363 -1.57764e-20)
(-1.19884 0.00590564 0)
(-1.20034 0.00462726 0)
(-1.20122 0.00333722 0)
(-1.20153 0.00205755 4.2833e-20)
(-1.20132 0.000816047 1.38605e-20)
(-1.20051 -0.000375049 -1.34444e-20)
(-1.19898 -0.0015265 0)
(-1.19672 -0.00265962 -1.265e-20)
(-1.19372 -0.00378152 1.21361e-20)
(-1.18995 -0.00489486 1.16797e-20)
(-1.18542 -0.00599981 0)
(-1.1801 -0.00709555 0)
(-1.17401 -0.00818084 0)
(-1.16713 -0.00925432 9.75239e-21)
(-1.15946 -0.0103146 0)
(-1.15099 -0.0113603 -1.76018e-20)
(-1.14173 -0.0123901 -2.47611e-20)
(-1.13167 -0.0134026 1.54961e-20)
(-1.12082 -0.0143968 0)
(-1.10917 -0.0153714 6.74826e-21)
(-1.09672 -0.0163254 0)
(-1.08349 -0.0172576 1.10625e-20)
(-1.06947 -0.0181674 -5.05906e-21)
(-1.05467 -0.0190537 -4.47897e-21)
(-1.03909 -0.0199159 0)
(-1.02274 -0.0207533 -9.41852e-21)
(-1.00563 -0.0215652 5.14175e-21)
(-0.98777 -0.0223512 1.8319e-21)
(-0.969163 -0.0231109 0)
(-0.949821 -0.0238437 5.75365e-22)
(-0.929755 -0.0245493 8.50064e-23)
(-0.908975 -0.0252274 0)
(-0.887493 -0.0258779 -2.42174e-21)
(-0.865321 -0.0265005 -3.72145e-21)
(-0.842471 -0.0270951 -5.03037e-21)
(-0.818957 -0.0276616 0)
(-0.794793 -0.0282 0)
(-0.769993 -0.02871 0)
(-0.744571 -0.0291917 5.01158e-21)
(-0.718544 -0.0296449 6.00509e-21)
(-0.691926 -0.0300697 0)
(-0.664735 -0.030466 1.43844e-20)
(-0.636987 -0.0308337 1.57381e-20)
(-0.608699 -0.0311727 0)
(-0.579891 -0.031483 1.87937e-20)
(-0.550581 -0.0317643 3.96114e-20)
(-0.520789 -0.0320165 -2.15104e-20)
(-0.490534 -0.0322395 -2.21616e-20)
(-0.459839 -0.0324329 0)
(-0.428724 -0.0325964 0)
(-0.397213 -0.0327298 0)
(-0.36533 -0.0328324 -2.82431e-20)
(-0.3331 -0.0329038 2.88545e-20)
(-0.30055 -0.0329433 6.10647e-20)
(-0.267705 -0.0329501 -3.2201e-20)
(-0.234597 -0.0329235 3.27847e-20)
(-0.201254 -0.0328623 3.47875e-20)
(-0.16771 -0.0327655 0)
(-0.133998 -0.0326317 0)
(-0.100154 -0.0324593 -3.78647e-20)
(-0.0662156 -0.0322461 0)
(-0.0322222 -0.0319898 0)
(0.00178578 -0.0316887 8.33973e-20)
(0.0357672 -0.0313431 0)
(0.0696838 -0.0309574 4.28079e-20)
(0.103506 -0.0305209 -4.41074e-20)
(0.137199 -0.0300381 0)
(0.170722 -0.0295295 4.47315e-20)
(0.204037 -0.0290016 0)
(0.237109 -0.0284541 0)
(0.269902 -0.0278882 -4.69423e-20)
(0.302385 -0.02731 9.43008e-20)
(0.33453 -0.0267355 -4.7859e-20)
(0.366288 -0.0262055 0)
(0.397543 -0.0258097 0)
(0.428011 -0.0254294 4.86155e-20)
(0.458636 -0.0251676 0)
(0.486249 -0.02313 4.70105e-20)
(0.517095 -0.0223173 0)
(0.545781 -0.0226938 0)
(0.572952 -0.0219631 0)
(0.600186 -0.0206487 5.08906e-20)
(0.626902 -0.0194489 0)
(0.653418 -0.0188862 -5.13347e-20)
(0.67935 -0.0191425 0)
(0.70263 -0.0175387 0)
(0.728165 -0.0165425 1.02893e-19)
(0.751385 -0.0175231 -1.03631e-19)
(0.772375 -0.0159932 0)
(0.79311 -0.0132696 0)
(0.814229 -0.0125998 0)
(0.828776 -0.0104584 3.00321e-19)
(0.842678 -0.00205118 0)
(0.845908 0.0144942 -2.10006e-19)
(-0.00273412 -0.0188253 -7.7283e-23)
(-0.0108485 0.000801052 5.06441e-20)
(-0.0208166 0.0193067 0)
(-0.0317049 0.0348927 -3.9942e-20)
(-0.0434987 0.0478732 0)
(-0.0560502 0.0583281 0)
(-0.0694163 0.0664567 1.05906e-23)
(-0.0836332 0.0725935 1.64228e-20)
(-0.0986443 0.0771238 1.58897e-20)
(-0.114331 0.0804047 1.54239e-20)
(-0.130551 0.0827246 0)
(-0.14717 0.0842973 0)
(-0.164065 0.0852751 -1.41986e-20)
(-0.181136 0.0857672 -2.77003e-20)
(-0.198301 0.0858552 2.70524e-20)
(-0.215494 0.0856049 0)
(-0.232665 0.0850724 2.58882e-20)
(-0.249773 0.0843085 -1.26923e-20)
(-0.266788 0.0833595 0)
(-0.283688 0.0822681 2.44195e-20)
(-0.300457 0.0810731 1.20072e-20)
(-0.317085 0.0798096 -2.35913e-20)
(-0.333569 0.0785082 -1.16198e-20)
(-0.349907 0.077195 0)
(-0.366101 0.0758919 2.25282e-20)
(-0.382158 0.0746166 2.2214e-20)
(-0.398085 0.0733826 0)
(-0.413892 0.0722001 2.16363e-20)
(-0.42959 0.0710761 0)
(-0.445191 0.0700152 2.11181e-20)
(-0.460708 0.06902 1.04559e-20)
(-0.476154 0.0680924 0)
(-0.491543 0.0672332 0)
(-0.506888 0.0664434 0)
(-0.522201 0.0657235 0)
(-0.537495 0.0650733 0)
(-0.552778 0.0644911 0)
(-0.568058 0.0639724 1.95055e-20)
(-0.583341 0.0635084 -2.90373e-20)
(-0.598631 0.0630853 0)
(-0.61393 0.0626847 0)
(-0.629241 0.0622864 0)
(-0.64457 0.0618744 3.7333e-23)
(-0.659926 0.0614429 1.86888e-20)
(-0.675318 0.0610018 3.71025e-20)
(-0.690751 0.0605747 -3.68795e-20)
(-0.706218 0.0601884 -1.83186e-20)
(-0.721702 0.0598598 1.82605e-20)
(-0.737174 0.0595864 -3.39598e-23)
(-0.752605 0.0593491 1.80708e-20)
(-0.767956 0.0591122 0)
(-0.783166 0.0588054 1.79557e-20)
(-0.798204 0.0583098 -2.7914e-23)
(-0.813175 0.0575428 0)
(-0.828246 0.0566341 0)
(-0.843364 0.0558735 -1.77415e-20)
(-0.858224 0.0553078 0)
(-0.872642 0.0546331 0)
(-0.886771 0.0536976 1.75324e-20)
(-0.900843 0.0528087 3.49554e-20)
(-0.914485 0.0522076 -1.73791e-20)
(-0.927501 0.0512444 0)
(-0.940321 0.049604 1.72962e-20)
(-0.953187 0.0477819 0)
(-0.966208 0.0463439 1.69133e-20)
(-0.978457 0.0455773 1.68021e-20)
(-0.989396 0.0442024 -3.33626e-20)
(-1.00054 0.0417538 -1.64737e-20)
(-1.01182 0.0400299 0)
(-1.0224 0.038476 3.23109e-20)
(-1.03264 0.03694 0)
(-1.04187 0.0355138 4.72869e-20)
(-1.05041 0.0332855 3.11743e-20)
(-1.05904 0.0307775 3.07764e-20)
(-1.06786 0.0284886 -3.036e-20)
(-1.07631 0.026846 4.49013e-20)
(-1.08396 0.0252092 0)
(-1.09096 0.0235431 0)
(-1.09738 0.0218321 -2.85176e-20)
(-1.10324 0.0200779 -4.20557e-20)
(-1.10853 0.0182875 0)
(-1.11326 0.0164677 1.35139e-20)
(-1.11741 0.0146239 0)
(-1.12098 0.0127606 -3.89171e-20)
(-1.12396 0.0108824 1.01226e-24)
(-1.12634 0.00899425 -7.1536e-24)
(-1.12812 0.00710246 2.42425e-20)
(-1.1293 0.00521542 0)
(-1.12988 0.0033431 -2.30407e-20)
(-1.12983 0.00149365 3.25975e-23)
(-1.12915 -0.000332262 0)
(-1.12779 -0.00214633 0)
(-1.12573 -0.00395675 0)
(-1.12296 -0.00576024 1.96845e-20)
(-1.11946 -0.00755464 0)
(-1.11523 -0.00933782 0)
(-1.11025 -0.0111075 0)
(-1.10453 -0.0128615 0)
(-1.09804 -0.0145973 0)
(-1.09079 -0.0163126 1.53214e-20)
(-1.08277 -0.0180051 0)
(-1.07398 -0.0196726 1.36172e-20)
(-1.06443 -0.0213128 1.27966e-20)
(-1.0541 -0.0229238 -1.19629e-20)
(-1.04299 -0.0245036 0)
(-1.03112 -0.0260504 -1.02576e-20)
(-1.01847 -0.0275625 0)
(-1.00506 -0.0290383 -8.50425e-21)
(-0.990889 -0.0304763 7.61049e-21)
(-0.975958 -0.0318753 2.04575e-20)
(-0.960274 -0.033234 0)
(-0.943845 -0.0345515 1.49627e-20)
(-0.926676 -0.0358268 4.30776e-21)
(-0.908777 -0.0370591 0)
(-0.890155 -0.0382477 4.47355e-21)
(-0.870819 -0.039392 2.56593e-21)
(-0.85078 -0.0404915 -7.55389e-22)
(-0.830048 -0.0415457 0)
(-0.808634 -0.0425543 1.84063e-21)
(-0.78655 -0.0435171 2.82561e-21)
(-0.763807 -0.0444339 1.0989e-20)
(-0.740419 -0.0453047 0)
(-0.716399 -0.0461293 0)
(-0.69176 -0.0469077 0)
(-0.666517 -0.0476398 7.3239e-21)
(-0.640683 -0.0483256 0)
(-0.614275 -0.0489651 0)
(-0.587308 -0.0495584 -1.08361e-20)
(-0.559799 -0.0501052 -1.18445e-20)
(-0.531763 -0.0506057 0)
(-0.503219 -0.0510596 0)
(-0.474184 -0.0514668 -2.97272e-20)
(-0.444677 -0.0518273 0)
(-0.414717 -0.0521407 3.37292e-20)
(-0.384324 -0.0524067 3.51788e-20)
(-0.353521 -0.0526249 0)
(-0.322327 -0.052795 0)
(-0.290766 -0.0529162 -4.10811e-20)
(-0.258862 -0.0529878 -5.46249e-22)
(-0.226639 -0.0530091 -5.46389e-22)
(-0.194125 -0.0529791 0)
(-0.161345 -0.0528965 -9.80657e-20)
(-0.128329 -0.0527602 0)
(-0.0951075 -0.0525687 0)
(-0.0617113 -0.05232 0)
(-0.0281736 -0.0520126 5.66721e-20)
(0.00547094 -0.0516452 0)
(0.0391874 -0.0512163 -1.18089e-19)
(0.0729403 -0.0507257 -6.07656e-20)
(0.106695 -0.0501759 0)
(0.140421 -0.0495729 -6.30557e-20)
(0.174098 -0.0489219 0)
(0.207689 -0.0482246 0)
(0.241149 -0.0474854 -1.97967e-19)
(0.274436 -0.0467076 1.337e-19)
(0.30751 -0.0458925 0)
(0.340334 -0.0450427 1.37502e-19)
(0.372871 -0.0441646 -7.00493e-20)
(0.405084 -0.043271 0)
(0.436916 -0.0423839 0)
(0.468221 -0.0415175 0)
(0.498949 -0.0404215 -2.18717e-19)
(0.5298 -0.0391098 0)
(0.559402 -0.0381661 -7.37163e-20)
(0.588998 -0.0374105 0)
(0.617849 -0.0359721 0)
(0.646171 -0.0347811 0)
(0.674029 -0.0337223 0)
(0.701188 -0.0327682 0)
(0.727698 -0.0317855 0)
(0.753933 -0.0304127 -1.55782e-19)
(0.779178 -0.0294167 0)
(0.803832 -0.0285197 -7.86336e-20)
(0.827667 -0.0268466 2.37243e-19)
(0.850866 -0.0252324 0)
(0.872503 -0.0238031 0)
(0.892908 -0.0210801 -1.59581e-19)
(0.911006 -0.0160954 -1.59715e-19)
(0.928394 -0.00755778 1.59074e-19)
(0.938785 0.00763397 1.6272e-19)
(-0.00579027 -0.000326895 -8.35972e-20)
(-0.0179021 0.025633 -7.2628e-20)
(-0.0305186 0.0452272 -4.11044e-20)
(-0.0435439 0.0611641 -1.82508e-20)
(-0.0568703 0.0745576 0)
(-0.0703129 0.0856764 3.1769e-20)
(-0.0839695 0.0946746 -1.51681e-20)
(-0.0979596 0.101747 0)
(-0.112334 0.10714 -1.41098e-20)
(-0.12708 0.111119 0)
(-0.142146 0.113931 2.65893e-20)
(-0.157464 0.11579 0)
(-0.172963 0.11687 1.26024e-20)
(-0.188576 0.11731 2.45912e-20)
(-0.204247 0.117223 -2.40205e-20)
(-0.219929 0.116703 0)
(-0.235584 0.115829 -2.29937e-20)
(-0.251185 0.114672 0)
(-0.26671 0.113294 0)
(-0.282143 0.11175 -2.16969e-20)
(-0.297474 0.110091 0)
(-0.312696 0.108358 -3.12908e-24)
(-0.327807 0.106589 0)
(-0.342805 0.104817 0)
(-0.357694 0.103068 -1.13327e-24)
(-0.372477 0.101361 -1.97548e-20)
(-0.38716 0.0997146 -1.94908e-20)
(-0.401751 0.0981398 -1.92492e-20)
(-0.416258 0.0966452 0)
(-0.43069 0.0952361 -3.75869e-20)
(-0.445056 0.0939157 0)
(-0.459368 0.0926854 -1.8382e-20)
(-0.473634 0.0915452 0)
(-0.487864 0.0904944 0)
(-0.502066 0.0895315 1.78462e-20)
(-0.516249 0.0886533 0)
(-0.530418 0.0878551 -1.75328e-20)
(-0.544577 0.0871293 -1.44331e-23)
(-0.558728 0.0864647 3.45134e-20)
(-0.572873 0.0858464 -3.42347e-20)
(-0.587014 0.085257 0)
(-0.601153 0.0846785 0)
(-0.615295 0.0840963 -1.67386e-20)
(-0.629444 0.0835031 0)
(-0.643601 0.082901 -1.65528e-20)
(-0.657763 0.0822995 1.64511e-20)
(-0.671915 0.0817093 1.63543e-20)
(-0.686037 0.0811343 0)
(-0.700098 0.0805666 -1.61755e-20)
(-0.714073 0.0799857 -1.60931e-20)
(-0.727933 0.0793614 3.19969e-20)
(-0.741659 0.0786511 -1.59372e-20)
(-0.755251 0.0777996 -1.58597e-20)
(-0.768748 0.0767726 0)