/*--------------------------------*- C++ -*----------------------------------*\
  =========                 |
  \\      /  F ield         | OpenFOAM: The Open Source CFD Toolbox
   \\    /   O peration     | Website:  https://openfoam.org
    \\  /    A nd           | Version:  7
     \\/     M anipulation  |
\*---------------------------------------------------------------------------*/
FoamFile
{
    version     2.0;
    format      ascii;
    class       surfaceScalarField;
    location    "0.101";
    object      phi;
}
// * * * * * * * * * * * * * * * * * * * * * * * * * * * * * * * * * * * * * //

dimensions      [0 3 -1 0 0 0 0];

internalField   nonuniform List<scalar> 
24170
(
1.38692e-06
1.89903e-07
1.24415e-06
1.42762e-07
1.11012e-06
1.34031e-07
9.90515e-07
1.19607e-07
8.74318e-07
1.16197e-07
7.64642e-07
1.09676e-07
6.64525e-07
1.00117e-07
5.72474e-07
9.20518e-08
4.88818e-07
8.36561e-08
4.15514e-07
7.33034e-08
3.53208e-07
6.23056e-08
3.0065e-07
5.25584e-08
2.55579e-07
4.50714e-08
2.16322e-07
3.92571e-08
1.81988e-07
3.43337e-08
1.51687e-07
3.03014e-08
1.24333e-07
2.7354e-08
2.02718e-08
1.04061e-07
1.66229e-06
2.40402e-07
1.64216e-06
1.62893e-07
1.60665e-06
1.69537e-07
1.56733e-06
1.58929e-07
1.52276e-06
1.60764e-07
1.47389e-06
1.58542e-07
1.42623e-06
1.47785e-07
1.38061e-06
1.37663e-07
1.33373e-06
1.30537e-07
1.28302e-06
1.24015e-07
1.22905e-06
1.16275e-07
1.17306e-06
1.08555e-07
1.117e-06
1.01124e-07
1.06187e-06
9.43965e-08
1.00907e-06
8.71315e-08
9.58688e-07
8.06806e-08
9.07472e-07
7.85703e-08
7.18445e-08
8.55899e-07
1.79424e-06
2.97171e-07
1.78082e-06
1.76314e-07
1.76229e-06
1.88068e-07
1.74119e-06
1.80027e-07
1.73068e-06
1.71275e-07
1.72514e-06
1.64077e-07
1.71933e-06
1.536e-07
1.71204e-06
1.44947e-07
1.70191e-06
1.40675e-07
1.68729e-06
1.38632e-07
1.66746e-06
1.36103e-07
1.64344e-06
1.32577e-07
1.61671e-06
1.27849e-07
1.58887e-06
1.22239e-07
1.56038e-06
1.15622e-07
1.53175e-06
1.09308e-07
1.5015e-06
1.08826e-07
1.06137e-07
1.4672e-06
1.94442e-06
2.93452e-07
1.91781e-06
2.02921e-07
1.88729e-06
2.1859e-07
1.86046e-06
2.06854e-07
1.84846e-06
1.83276e-07
1.84866e-06
1.63873e-07
1.85387e-06
1.48394e-07
1.8589e-06
1.39921e-07
1.8605e-06
1.39075e-07
1.85738e-06
1.4175e-07
1.8499e-06
1.43584e-07
1.84005e-06
1.42425e-07
1.82972e-06
1.38175e-07
1.82028e-06
1.31681e-07
1.8113e-06
1.24606e-07
1.80199e-06
1.18614e-07
1.79297e-06
1.17851e-07
1.17721e-07
1.78138e-06
2.09285e-06
4.15724e-07
2.05201e-06
2.43761e-07
2.03937e-06
2.31221e-07
2.02506e-06
2.21167e-07
2.01049e-06
1.97851e-07
1.99851e-06
1.75848e-07
1.98915e-06
1.57752e-07
1.98151e-06
1.47563e-07
1.97504e-06
1.45544e-07
1.96992e-06
1.46878e-07
1.96665e-06
1.46848e-07
1.9658e-06
1.43278e-07
1.96733e-06
1.36645e-07
1.97031e-06
1.28696e-07
1.97315e-06
1.21766e-07
1.9743e-06
1.17465e-07
1.97424e-06
1.17913e-07
1.20696e-07
1.97126e-06
2.22957e-06
4.20214e-07
2.20603e-06
2.67306e-07
2.19345e-06
2.43793e-07
2.1842e-06
2.30423e-07
2.17367e-06
2.08379e-07
2.16194e-06
1.87579e-07
2.14986e-06
1.69832e-07
2.13862e-06
1.58798e-07
2.12885e-06
1.55321e-07
2.12083e-06
1.54892e-07
2.11506e-06
1.52623e-07
2.11208e-06
1.46258e-07
2.11215e-06
1.36575e-07
2.11479e-06
1.26048e-07
2.11899e-06
1.17574e-07
2.1234e-06
1.13051e-07
2.12768e-06
1.13636e-07
1.17625e-07
2.13075e-06
2.42283e-06
4.04186e-07
2.39007e-06
3.00067e-07
2.36787e-06
2.65985e-07
2.3499e-06
2.48398e-07
2.33426e-06
2.24018e-07
2.32449e-06
1.97349e-07
2.3203e-06
1.74024e-07
2.31797e-06
1.61128e-07
2.31397e-06
1.59318e-07
2.30726e-06
1.61601e-07
2.29925e-06
1.6064e-07
2.29221e-06
1.5329e-07
2.28797e-06
1.40814e-07
2.28715e-06
1.26868e-07
2.28937e-06
1.15361e-07
2.29367e-06
1.08744e-07
2.29955e-06
1.07763e-07
1.11277e-07
2.3059e-06
2.5914e-06
4.78971e-07
2.5657e-06
3.25767e-07
2.56017e-06
2.71519e-07
2.55478e-06
2.53783e-07
2.54631e-06
2.32488e-07
2.53727e-06
2.06386e-07
2.52842e-06
1.82876e-07
2.51894e-06
1.70609e-07
2.5087e-06
1.69556e-07
2.49874e-06
1.71565e-07
2.49057e-06
1.68805e-07
2.48526e-06
1.5861e-07
2.48291e-06
1.43155e-07
2.48282e-06
1.26958e-07
2.48417e-06
1.14018e-07
2.48632e-06
1.06591e-07
2.4893e-06
1.04785e-07
1.06764e-07
2.49381e-06
2.78591e-06
5.02777e-07
2.75976e-06
3.51923e-07
2.73662e-06
2.9465e-07
2.7249e-06
2.65507e-07
2.72079e-06
2.36596e-07
2.71852e-06
2.08653e-07
2.71262e-06
1.88781e-07
2.70289e-06
1.80343e-07
2.69398e-06
1.78458e-07
2.6906e-06
1.7495e-07
2.69411e-06
1.65289e-07
2.70237e-06
1.50359e-07
2.71131e-06
1.34212e-07
2.71715e-06
1.21114e-07
2.7181e-06
1.13067e-07
2.71462e-06
1.1008e-07
2.70892e-06
1.10476e-07
1.12642e-07
2.70305e-06
2.98808e-06
3.92807e-07
2.98266e-06
3.57349e-07
2.92901e-06
3.48302e-07
2.88529e-06
3.09224e-07
2.87304e-06
2.48842e-07
2.88339e-06
1.98308e-07
2.89928e-06
1.72892e-07
2.91161e-06
1.68009e-07
2.91953e-06
1.70538e-07
2.92485e-06
1.69628e-07
2.92815e-06
1.61987e-07
2.92862e-06
1.49898e-07
2.92549e-06
1.37341e-07
2.9194e-06
1.27205e-07
2.91215e-06
1.20309e-07
2.90587e-06
1.16364e-07
2.90241e-06
1.13938e-07
1.1193e-07
2.90312e-06
3.16364e-06
4.08702e-07
3.13139e-06
3.89596e-07
3.11921e-06
3.60482e-07
3.12079e-06
3.07646e-07
3.12292e-06
2.46715e-07
3.12183e-06
1.994e-07
3.12141e-06
1.73305e-07
3.12554e-06
1.63882e-07
3.13371e-06
1.62373e-07
3.14202e-06
1.61309e-07
3.14698e-06
1.57029e-07
3.14747e-06
1.49407e-07
3.14476e-06
1.40053e-07
3.1412e-06
1.3077e-07
3.13873e-06
1.22774e-07
3.13855e-06
1.16547e-07
3.14074e-06
1.11743e-07
1.08242e-07
3.14443e-06
2.8649e-06
3.65639e-07
2.84444e-06
4.10064e-07
2.84238e-06
3.62538e-07
2.84522e-06
3.04802e-07
2.84474e-06
2.47194e-07
2.84533e-06
1.98812e-07
2.84896e-06
1.69676e-07
2.85228e-06
1.60564e-07
2.85077e-06
1.63878e-07
2.84286e-06
1.6922e-07
2.83088e-06
1.69013e-07
2.81935e-06
1.60931e-07
2.81229e-06
1.47114e-07
2.81146e-06
1.31603e-07
2.81606e-06
1.18176e-07
2.82403e-06
1.08571e-07
2.83265e-06
1.03123e-07
1.00618e-07
2.84028e-06
3.47416e-06
4.53307e-07
3.47393e-06
4.10298e-07
3.49561e-06
3.4086e-07
3.51269e-06
2.87721e-07
3.51083e-06
2.49052e-07
3.49387e-06
2.15773e-07
3.47499e-06
1.88557e-07
3.46323e-06
1.72325e-07
3.45937e-06
1.67743e-07
3.46018e-06
1.68409e-07
3.4633e-06
1.65892e-07
3.46826e-06
1.55967e-07
3.47524e-06
1.40137e-07
3.48407e-06
1.2277e-07
3.49371e-06
1.08542e-07
3.50288e-06
9.93934e-08
3.51019e-06
9.58207e-08
9.62432e-08
3.51456e-06
4.28495e-06
4.87319e-07
4.28267e-06
4.12576e-07
4.27596e-06
3.47566e-07
4.271e-06
2.92678e-07
4.26384e-06
2.56215e-07
4.25126e-06
2.28357e-07
4.23813e-06
2.0168e-07
4.23223e-06
1.78233e-07
4.23713e-06
1.62836e-07
4.25005e-06
1.55492e-07
4.265e-06
1.50943e-07
4.27718e-06
1.43789e-07
4.28489e-06
1.32427e-07
4.28896e-06
1.18692e-07
4.29123e-06
1.06277e-07
4.29298e-06
9.7643e-08
4.2948e-06
9.40016e-08
9.47287e-08
4.29631e-06
5.13568e-06
4.65318e-07
5.17612e-06
3.72137e-07
5.20729e-06
3.16392e-07
5.22096e-06
2.79011e-07
5.21691e-06
2.60263e-07
5.20078e-06
2.44488e-07
5.18003e-06
2.22428e-07
5.16069e-06
1.97577e-07
5.14584e-06
1.77683e-07
5.13649e-06
1.64842e-07
5.1328e-06
1.5463e-07
5.13479e-06
1.41799e-07
5.14234e-06
1.24879e-07
5.15454e-06
1.06491e-07
5.16956e-06
9.1257e-08
5.18491e-06
8.22903e-08
5.19839e-06
8.05242e-08
8.50565e-08
5.20806e-06
6.30289e-06
4.579e-07
6.33324e-06
3.41786e-07
6.34459e-06
3.05045e-07
6.34595e-06
2.77652e-07
6.35224e-06
2.53973e-07
6.36111e-06
2.3561e-07
6.36511e-06
2.18436e-07
6.36026e-06
2.02427e-07
6.34907e-06
1.8887e-07
6.33746e-06
1.76447e-07
6.33039e-06
1.61708e-07
6.32932e-06
1.42868e-07
6.3327e-06
1.21497e-07
6.33775e-06
1.01435e-07
6.34249e-06
8.65256e-08
6.34609e-06
7.86851e-08
6.34884e-06
7.77717e-08
8.22788e-08
6.35162e-06
7.7436e-06
4.43198e-07
7.75065e-06
3.34732e-07
7.73556e-06
3.20142e-07
7.70429e-06
3.08917e-07
7.67572e-06
2.82549e-07
7.66285e-06
2.48472e-07
7.66699e-06
2.14296e-07
7.68274e-06
1.86682e-07
7.70572e-06
1.65888e-07
7.73461e-06
1.47557e-07
7.76802e-06
1.28299e-07
7.80229e-06
1.08603e-07
7.83227e-06
9.15092e-08
7.85347e-06
8.02385e-08
7.86391e-06
7.60847e-08
7.86461e-06
7.79846e-08
7.8585e-06
8.38861e-08
9.09933e-08
7.84978e-06
9.34658e-06
4.38565e-07
9.37338e-06
3.07932e-07
9.41698e-06
2.76539e-07
9.46281e-06
2.63092e-07
9.49559e-06
2.49764e-07
9.50389e-06
2.40178e-07
9.48908e-06
2.29103e-07
9.46477e-06
2.10995e-07
9.44604e-06
1.84618e-07
9.44206e-06
1.51529e-07
9.45473e-06
1.15631e-07
9.48026e-06
8.30744e-08
9.51231e-06
5.9461e-08
9.54485e-06
4.77003e-08
9.57376e-06
4.7176e-08
9.59713e-06
5.4606e-08
9.61495e-06
6.60726e-08
7.79326e-08
9.62801e-06
1.15576e-05
4.61172e-07
1.1484e-05
3.81472e-07
1.1458e-05
3.02591e-07
1.14858e-05
2.35277e-07
1.15446e-05
1.90937e-07
1.16138e-05
1.70995e-07
1.16759e-05
1.6698e-07
1.17224e-05
1.64485e-07
1.17529e-05
1.5418e-07
1.17689e-05
1.35489e-07
1.17716e-05
1.12976e-07
1.17633e-05
9.13357e-08
1.17494e-05
7.33292e-08
1.17371e-05
6.00639e-08
1.17327e-05
5.15102e-08
1.17399e-05
4.74121e-08
1.17594e-05
4.66469e-08
4.88544e-08
1.17884e-05
8.36078e-06
3.71608e-07
8.40589e-06
3.3637e-07
8.44202e-06
2.66453e-07
8.45804e-06
2.19256e-07
8.46701e-06
1.81974e-07
8.49344e-06
1.44564e-07
8.54467e-06
1.15752e-07
8.60711e-06
1.02036e-07
8.66024e-06
1.01052e-07
8.69087e-06
1.04864e-07
8.69895e-06
1.04897e-07
8.69252e-06
9.77579e-08
8.6815e-06
8.43589e-08
8.67347e-06
6.8094e-08
8.672e-06
5.29715e-08
8.67732e-06
4.20985e-08
8.68752e-06
3.64443e-08
3.63097e-08
8.70006e-06
7.33433e-06
4.43325e-07
7.37583e-06
2.94874e-07
7.43612e-06
2.06161e-07
7.48365e-06
1.71723e-07
7.50671e-06
1.58923e-07
7.51039e-06
1.4088e-07
7.50878e-06
1.1736e-07
7.51129e-06
9.95288e-08
7.52187e-06
9.04727e-08
7.54053e-06
8.62078e-08
7.56528e-06
8.01377e-08
7.59314e-06
6.99062e-08
7.6205e-06
5.69941e-08
7.64397e-06
4.46267e-08
7.66137e-06
3.55707e-08
7.67242e-06
3.1043e-08
7.67828e-06
3.05909e-08
3.3029e-08
7.68156e-06
6.45517e-06
3.37947e-07
6.43435e-06
3.15687e-07
6.41093e-06
2.29589e-07
6.42477e-06
1.57881e-07
6.45988e-06
1.23816e-07
6.49852e-06
1.02239e-07
6.53143e-06
8.44457e-08
6.55759e-06
7.33669e-08
6.5785e-06
6.95606e-08
6.596e-06
6.87166e-08
6.61093e-06
6.51988e-08
6.62403e-06
5.68109e-08
6.63594e-06
4.50868e-08
6.64715e-06
3.34137e-08
6.65811e-06
2.4609e-08
6.66928e-06
1.98758e-08
6.68115e-06
1.87217e-08
2.00336e-08
6.69414e-06
5.51886e-06
3.27053e-07
5.53935e-06
2.95199e-07
5.57798e-06
1.90955e-07
5.61529e-06
1.20574e-07
5.65865e-06
8.04518e-08
5.70766e-06
5.32307e-08
5.75585e-06
3.62563e-08
5.79745e-06
3.17682e-08
5.83014e-06
3.68708e-08
5.85352e-06
4.53304e-08
5.86871e-06
5.00118e-08
5.87772e-06
4.78016e-08
5.8832e-06
3.96085e-08
5.88791e-06
2.87044e-08
5.89414e-06
1.83742e-08
5.90327e-06
1.07491e-08
5.91578e-06
6.20692e-09
4.48691e-09
5.93133e-06
4.87404e-06
3.55179e-07
4.89518e-06
2.74064e-07
4.92246e-06
1.63675e-07
4.93883e-06
1.04196e-07
4.95288e-06
6.64018e-08
4.97467e-06
3.14495e-08
5.00516e-06
5.76675e-09
5.03942e-06
-2.49943e-09
5.07412e-06
2.17063e-09
5.10605e-06
1.33997e-08
5.13336e-06
2.271e-08
5.15413e-06
2.70256e-08
5.16805e-06
2.56923e-08
5.17622e-06
2.05361e-08
5.18089e-06
1.37042e-08
5.18451e-06
7.12141e-09
5.18909e-06
1.6333e-09
-1.77491e-09
5.19535e-06
4.27078e-06
2.58797e-07
4.33529e-06
2.09557e-07
4.37419e-06
1.24776e-07
4.40605e-06
7.23295e-08
4.42944e-06
4.30193e-08
4.4378e-06
2.30816e-08
4.43199e-06
1.15771e-08
4.42237e-06
7.11999e-09
4.41954e-06
5.00823e-09
4.42937e-06
3.56789e-09
4.44995e-06
2.131e-09
4.47632e-06
6.51749e-10
4.50341e-06
-1.39734e-09
4.52729e-06
-3.3386e-09
4.54607e-06
-5.07603e-09
4.55962e-06
-6.43474e-09
4.56848e-06
-7.22328e-09
-7.81916e-09
4.57452e-06
3.75353e-06
3.50521e-07
3.81248e-06
1.50603e-07
3.83739e-06
9.98703e-08
3.84227e-06
6.74402e-08
3.85433e-06
3.09626e-08
3.86986e-06
7.5489e-09
3.88211e-06
-6.70003e-10
3.89177e-06
-2.54376e-09
3.90385e-06
-7.06373e-09
3.9214e-06
-1.39879e-08
3.9438e-06
-2.02638e-08
3.96849e-06
-2.40436e-08
3.9922e-06
-2.51023e-08
4.01253e-06
-2.36735e-08
4.02814e-06
-2.06861e-08
4.03901e-06
-1.73059e-08
4.0461e-06
-1.43059e-08
-1.26997e-08
4.05098e-06
3.24592e-06
2.23027e-07
3.32018e-06
7.63414e-08
3.35351e-06
6.65339e-08
3.37099e-06
4.9967e-08
3.3846e-06
1.73491e-08
3.40111e-06
-8.95959e-09
3.42313e-06
-2.2691e-08
3.45007e-06
-2.94811e-08
3.47782e-06
-3.48206e-08
3.50167e-06
-3.78317e-08
3.51915e-06
-3.77479e-08
3.53048e-06
-3.53755e-08
3.53755e-06
-3.2172e-08
3.54269e-06
-2.88094e-08
3.54756e-06
-2.55561e-08
3.55306e-06
-2.28064e-08
3.55961e-06
-2.086e-08
-2.05345e-08
3.56745e-06
2.84558e-06
1.11378e-07
2.93129e-06
-9.36923e-09
2.95739e-06
4.04363e-08
2.97937e-06
2.7982e-08
3.00338e-06
-6.65472e-09
3.02421e-06
-2.97944e-08
3.04218e-06
-4.06575e-08
3.05877e-06
-4.60706e-08
3.07389e-06
-4.99406e-08
3.08723e-06
-5.11721e-08
3.0987e-06
-4.92164e-08
3.10869e-06
-4.53723e-08
3.11776e-06
-4.12361e-08
3.12641e-06
-3.74565e-08
3.13497e-06
-3.41194e-08
3.14363e-06
-3.1472e-08
3.15251e-06
-2.97368e-08
-2.95113e-08
3.16149e-06
2.47423e-06
3.66358e-08
2.50987e-06
-4.50136e-08
2.54991e-06
3.96553e-10
2.59978e-06
-2.18785e-08
2.64097e-06
-4.78528e-08
2.66658e-06
-5.53963e-08
2.67913e-06
-5.32134e-08
2.68306e-06
-5.00025e-08
2.68145e-06
-4.83311e-08
2.67697e-06
-4.66923e-08
2.67186e-06
-4.41006e-08
2.6676e-06
-4.11111e-08
2.66478e-06
-3.8418e-08
2.6633e-06
-3.59738e-08
2.66265e-06
-3.34743e-08
2.66213e-06
-3.0949e-08
2.66115e-06
-2.8761e-08
-2.76335e-08
2.65927e-06
2.13812e-06
2.0931e-06
2.0935e-06
2.07162e-06
2.02377e-06
1.96837e-06
1.91516e-06
1.86516e-06
1.81682e-06
1.77013e-06
1.72603e-06
1.68492e-06
1.6465e-06
1.61053e-06
1.57705e-06
1.54611e-06
1.51734e-06
1.48971e-06
-1.88562e-07
1.88562e-07
-3.5665e-07
1.68088e-07
-4.32e-07
7.53505e-08
-3.85877e-07
-4.61239e-08
-2.64299e-07
-1.21577e-07
-1.07604e-07
-1.56695e-07
4.11589e-08
-1.48763e-07
1.50795e-07
-1.09636e-07
2.00509e-07
-4.97147e-08
1.80367e-07
2.0142e-08
1.17347e-07
6.30206e-08
6.21858e-08
5.51609e-08
3.96815e-08
2.25043e-08
3.85659e-08
1.11555e-09
1.83658e-08
2.02001e-08
-8.82918e-09
2.7195e-08
-7.36619e-09
-1.46299e-09
3.29643e-08
-4.03305e-08
1.00519e-07
-6.7555e-08
1.73522e-07
-7.30031e-08
2.36009e-07
-6.24861e-08
2.69465e-07
-3.34562e-08
2.43689e-07
2.57759e-08
1.51984e-07
9.17052e-08
-1.23363e-08
1.6432e-07
-2.79519e-07
2.67183e-07
-6.22399e-07
3.4288e-07
-9.88394e-07
3.65995e-07
-1.3587e-06
3.70304e-07
-1.70927e-06
3.50575e-07
-2.03037e-06
3.21093e-07
-2.32158e-06
2.91215e-07
-2.58258e-06
2.60994e-07
-2.81769e-06
2.3511e-07
-3.03028e-06
2.1259e-07
-3.22398e-06
1.93705e-07
-3.4014e-06
1.77417e-07
-3.56418e-06
1.62787e-07
-3.71318e-06
1.48991e-07
-3.84818e-06
1.35009e-07
-3.96805e-06
1.19868e-07
-4.07081e-06
1.02755e-07
-4.15403e-06
8.32259e-08
-4.21489e-06
6.0854e-08
-4.25051e-06
3.56254e-08
-4.25847e-06
7.9545e-09
-4.23757e-06
-2.08984e-08
-4.18733e-06
-5.02346e-08
-4.10805e-06
-7.92834e-08
-4.00094e-06
-1.07109e-07
-3.86808e-06
-1.32867e-07
-3.71222e-06
-1.55852e-07
-3.5365e-06
-1.75722e-07
-3.34386e-06
-1.92643e-07
-3.13638e-06
-2.07477e-07
-2.91496e-06
-2.21422e-07
-2.67913e-06
-2.3583e-07
-2.42727e-06
-2.51859e-07
-2.15725e-06
-2.70021e-07
-1.86738e-06
-2.89873e-07
-1.55744e-06
-3.09932e-07
-1.22914e-06
-3.28301e-07
-8.85102e-07
-3.44041e-07
-5.27159e-07
-3.57943e-07
-1.59137e-07
-3.68023e-07
2.12235e-07
-3.71372e-07
5.97577e-07
-3.85341e-07
1.03866e-06
-4.41084e-07
1.42076e-06
-3.82098e-07
1.41232e-06
8.44372e-09
1.01877e-06
3.93542e-07
5.95628e-07
4.23144e-07
2.82283e-07
3.13345e-07
7.26995e-08
2.09584e-07
-1.29768e-07
2.02467e-07
-3.29026e-07
1.99258e-07
-4.03563e-07
7.45372e-08
-2.11794e-07
-1.91769e-07
2.92469e-07
-5.04263e-07
1.0219e-06
-7.29428e-07
1.75678e-06
-7.34886e-07
2.35736e-06
-6.00582e-07
2.67979e-06
-3.2243e-07
2.52795e-06
1.51846e-07
1.94851e-06
5.79443e-07
1.29923e-06
6.49272e-07
9.4974e-07
3.49494e-07
9.86347e-07
-3.6607e-08
1.14619e-06
-1.59842e-07
1.09705e-06
4.91408e-08
6.77667e-07
4.19382e-07
-5.52983e-08
7.32965e-07
-8.51546e-07
7.96248e-07
-1.5829e-06
7.31351e-07
-2.21875e-06
6.35848e-07
-2.75978e-06
5.41037e-07
-3.21696e-06
4.5718e-07
-3.60351e-06
3.86545e-07
-3.93135e-06
3.27845e-07
-4.20994e-06
2.78587e-07
-4.44602e-06
2.36075e-07
-4.64378e-06
1.97764e-07
-4.80542e-06
1.61638e-07
-4.93166e-06
1.26243e-07
-5.02225e-06
9.05865e-08
-5.07612e-06
5.38728e-08
-5.09201e-06
1.58888e-08
-5.07136e-06
-2.06458e-08
-5.01438e-06
-5.69846e-08
-4.92062e-06
-9.37608e-08
-4.79041e-06
-1.30202e-07
-4.62415e-06
-1.66265e-07
-4.42254e-06
-2.01613e-07
-4.18652e-06
-2.36013e-07
-3.91744e-06
-2.69089e-07
-3.61736e-06
-3.00073e-07
-3.28957e-06
-3.27795e-07
-2.93855e-06
-3.51017e-07
-2.5709e-06
-3.6765e-07
-2.19436e-06
-3.76538e-07
-1.81742e-06
-3.76945e-07
-1.44796e-06
-3.69457e-07
-1.09227e-06
-3.5569e-07
-7.54682e-07
-3.3759e-07
-4.37282e-07
-3.174e-07
-1.40741e-07
-2.96541e-07
1.36959e-07
-2.777e-07
3.95583e-07
-2.58624e-07
6.35897e-07
-2.40315e-07
8.58324e-07
-2.22427e-07
1.06289e-06
-2.04565e-07
1.24935e-06
-1.86461e-07
1.41743e-06
-1.68079e-07
1.56702e-06
-1.49593e-07
1.69831e-06
-1.31289e-07
1.81162e-06
-1.13312e-07
1.90723e-06
-9.56112e-08
1.98538e-06
-7.81499e-08
2.04603e-06
-6.06476e-08
2.08878e-06
-4.27476e-08
2.11344e-06
-2.46571e-08
2.11927e-06
-5.8356e-09
2.10606e-06
1.32119e-08
2.07459e-06
3.1474e-08
2.02664e-06
4.79477e-08
1.96348e-06
6.31603e-08
1.8856e-06
7.78765e-08
1.79231e-06
9.32955e-08
1.68238e-06
1.09922e-07
1.55616e-06
1.26226e-07
1.41589e-06
1.40269e-07
1.26531e-06
1.50576e-07
1.11053e-06
1.54784e-07
9.61694e-07
1.48835e-07
8.3112e-07
1.30575e-07
7.28987e-07
1.02133e-07
6.59202e-07
6.97846e-08
6.18823e-07
4.03794e-08
6.01011e-07
1.78121e-08
5.9803e-07
2.98051e-09
6.02989e-07
-4.95903e-09
6.11108e-07
-8.11918e-09
6.19589e-07
-8.48109e-09
6.27062e-07
-7.47257e-09
6.33074e-07
-6.01176e-09
6.37652e-07
-4.57869e-09
6.40921e-07
-3.26848e-09
6.43065e-07
-2.14415e-09
6.43937e-07
-8.72099e-10
6.43563e-07
3.74499e-10
6.41297e-07
2.26603e-09
6.3731e-07
3.98718e-09
6.30075e-07
7.23483e-09
6.20795e-07
9.27998e-09
6.05419e-07
1.53756e-08
5.88694e-07
1.67248e-08
5.58621e-07
3.00736e-08
5.32626e-07
2.59949e-08
4.72787e-07
5.98386e-08
3.75362e-08
4.35251e-07
-1.04496e-07
2.93058e-07
-2.19186e-07
2.82779e-07
-2.2861e-07
8.47741e-08
-1.28925e-07
-1.45809e-07
3.75641e-08
-2.88066e-07
2.15418e-07
-3.34549e-07
3.72833e-07
-3.06178e-07
4.89146e-07
-2.25949e-07
5.55461e-07
-1.16031e-07
5.68071e-07
7.53247e-09
5.11441e-07
1.19651e-07
3.59144e-07
2.07457e-07
1.62972e-07
2.18677e-07
1.34653e-08
1.50622e-07
-7.09569e-08
1.04622e-07
-1.25613e-07
8.18512e-08
-1.58656e-07
3.15803e-08
-1.86551e-07
-1.24364e-08
-2.41507e-07
-1.25989e-08
-3.42122e-07
2.76125e-08
-4.9436e-07
8.97519e-08
-7.05436e-07
1.77619e-07
-9.71761e-07
2.92101e-07
-1.27946e-06
3.99408e-07
-1.5973e-06
4.82155e-07
-1.88187e-06
5.51759e-07
-2.13253e-06
5.9354e-07
-2.37028e-06
6.03739e-07
-2.59112e-06
5.91148e-07
-2.80179e-06
5.61241e-07
-3.00782e-06
5.27119e-07
-3.20952e-06
4.92919e-07
-3.40878e-06
4.60253e-07
-3.60421e-06
4.30542e-07
-3.79458e-06
4.02962e-07
-3.97737e-06
3.76488e-07
-4.14943e-06
3.49485e-07
-4.30764e-06
3.20991e-07
-4.44883e-06
2.90182e-07
-4.57016e-06
2.56344e-07
-4.66926e-06
2.18965e-07
-4.74414e-06
1.77641e-07
-4.79317e-06
1.32256e-07
-4.81548e-06
8.31564e-08
-4.81092e-06
3.10703e-08
-4.78017e-06
-2.27944e-08
-4.72391e-06
-7.71612e-08
-4.64319e-06
-1.30953e-07
-4.53999e-06
-1.82483e-07
-4.41668e-06
-2.30423e-07
-4.27559e-06
-2.73958e-07
-4.11866e-06
-3.12784e-07
-3.94725e-06
-3.47125e-07
-3.76209e-06
-3.77809e-07
-3.5634e-06
-4.06164e-07
-3.35115e-06
-4.33675e-07
-3.12533e-06
-4.61645e-07
-2.88609e-06
-4.911e-07
-2.63321e-06
-5.22905e-07
-2.36573e-06
-5.57349e-07
-2.0821e-06
-5.93566e-07
-1.78034e-06
-6.30057e-07
-1.45839e-06
-6.65991e-07
-1.11505e-06
-7.01287e-07
-7.47218e-07
-7.35852e-07
-3.48755e-07
-7.69836e-07
6.89315e-08
-8.03028e-07
4.63578e-07
-8.3573e-07
8.45118e-07
-7.63638e-07
1.18513e-06
-3.31565e-07
1.30958e-06
2.69092e-07
1.15327e-06
5.79451e-07
9.28727e-07
5.37888e-07
7.65877e-07
3.72434e-07
6.23478e-07
3.44866e-07
4.39858e-07
3.82877e-07
2.74859e-07
2.39536e-07
2.48496e-07
-1.65406e-07
4.76838e-07
-7.32605e-07
9.67674e-07
-1.22026e-06
1.54508e-06
-1.3123e-06
2.00693e-06
-1.06243e-06
2.28583e-06
-6.01333e-07
2.35462e-06
8.306e-08
2.16354e-06
7.70521e-07
1.87444e-06
9.38371e-07
1.71997e-06
5.03971e-07
1.47478e-06
2.08581e-07
8.53524e-07
4.61412e-07
-7.671e-08
9.79375e-07
-1.00898e-06
1.35165e-06
-1.74997e-06
1.47396e-06
-2.34455e-06
1.39083e-06
-2.83836e-06
1.22516e-06
-3.24774e-06
1.04523e-06
-3.58774e-06
8.81037e-07
-3.87236e-06
7.41801e-07
-4.11296e-06
6.2715e-07
-4.31789e-06
5.32771e-07
-4.4928e-06
4.53501e-07
-4.6411e-06
3.84369e-07
-4.76457e-06
3.21236e-07
-4.86386e-06
2.60924e-07
-4.93844e-06
2.0083e-07
-4.98718e-06
1.39322e-07
-5.00878e-06
7.54772e-08
-5.00185e-06
8.95301e-09
-4.9632e-06
-5.92903e-08
-4.89075e-06
-1.29432e-07
-4.78392e-06
-2.00596e-07
-4.64218e-06
-2.7194e-07
-4.46573e-06
-3.42711e-07
-4.25497e-06
-4.12376e-07
-4.01047e-06
-4.80512e-07
-3.73308e-06
-5.46478e-07
-3.42428e-06
-6.08872e-07
-3.0868e-06
-6.65278e-07
-2.72519e-06
-7.12623e-07
-2.34549e-06
-7.47355e-07
-1.95561e-06
-7.66413e-07
-1.56445e-06
-7.68106e-07
-1.18074e-06
-7.5317e-07
-8.11141e-07
-7.25288e-07
-4.60131e-07
-6.88599e-07
-1.31043e-07
-6.46489e-07
1.7788e-07
-6.05464e-07
4.65211e-07
-5.65031e-07
7.32383e-07
-5.25796e-07
9.80225e-07
-4.88157e-07
1.20921e-06
-4.51411e-07
1.41935e-06
-4.14703e-07
1.61041e-06
-3.77521e-07
1.78222e-06
-3.39894e-07
1.93495e-06
-3.02317e-07
2.06907e-06
-2.65416e-07
2.18531e-06
-2.29548e-07
2.28442e-06
-1.94722e-07
2.36693e-06
-1.60659e-07
2.43307e-06
-1.26788e-07
2.48298e-06
-9.26561e-08
2.51668e-06
-5.83597e-08
2.53515e-06
-2.43048e-08
2.539e-06
9.36534e-09
2.52891e-06
4.15659e-08
2.50487e-06
7.19854e-08
2.46803e-06
9.99956e-08
2.42086e-06
1.25046e-07
2.36715e-06
1.47009e-07
2.31029e-06
1.66778e-07
2.25201e-06
1.84512e-07
2.19208e-06
2.00193e-07
2.12963e-06
2.13032e-07
2.06392e-06
2.20492e-07
1.99501e-06
2.17743e-07
1.92416e-06
2.0142e-07
1.85534e-06
1.70959e-07
1.79344e-06
1.31685e-07
1.74233e-06
9.14846e-08
1.70363e-06
5.65176e-08
1.6764e-06
3.02073e-08
1.65819e-06
1.32534e-08
1.6457e-06
4.37262e-09
1.63592e-06
1.29835e-09
1.62693e-06
1.51716e-09
1.61771e-06
3.20235e-09
1.60819e-06
4.94583e-09
1.5987e-06
6.21714e-09
1.58972e-06
6.84015e-09
1.58133e-06
7.5156e-09
1.57357e-06
8.13531e-09
1.56575e-06
1.00893e-08
1.55786e-06
1.18743e-08
1.54844e-06
1.66563e-08
1.53834e-06
1.93763e-08
1.52457e-06
2.91522e-08
1.50996e-06
3.13344e-08
1.48821e-06
5.18242e-08
1.465e-06
4.92032e-08
1.43038e-06
9.44506e-08
7.95005e-08
1.38842e-06
1.2498e-08
2.8056e-07
4.76316e-08
2.47645e-07
1.94863e-07
-6.2457e-08
3.93229e-07
-3.44176e-07
5.86625e-07
-4.81462e-07
7.43423e-07
-4.91347e-07
8.5492e-07
-4.17675e-07
9.20435e-07
-2.91463e-07
9.42754e-07
-1.38349e-07
9.23572e-07
2.67146e-08
8.50436e-07
1.92786e-07
7.19684e-07
3.38209e-07
5.0041e-07
4.37951e-07
2.24905e-07
4.26127e-07
7.03208e-09
3.22495e-07
-1.40838e-07
2.29722e-07
-2.70749e-07
1.61491e-07
-4.16422e-07
1.33236e-07
-6.04885e-07
1.75864e-07
-8.37537e-07
2.60264e-07
-1.1086e-06
3.60813e-07
-1.40531e-06
4.74336e-07
-1.69223e-06
5.79016e-07
-1.95156e-06
6.58737e-07
-2.18968e-06
7.20279e-07
-2.3985e-06
7.60581e-07
-2.57827e-06
7.73307e-07
-2.74482e-06
7.70291e-07
-2.91148e-06
7.57807e-07
-3.08772e-06
7.37474e-07
-3.27536e-06
7.1476e-07
-3.47087e-06
6.8843e-07
-3.66923e-06
6.58618e-07
-3.86407e-06
6.25379e-07
-4.04983e-06
5.88722e-07
-4.22264e-06
5.49299e-07
-4.37996e-06
5.06802e-07
-4.52006e-06
4.61095e-07
-4.64157e-06
4.1169e-07
-4.74325e-06
3.58023e-07
-4.82388e-06
2.99596e-07
-4.8822e-06
2.35957e-07
-4.91696e-06
1.67016e-07
-4.92711e-06
9.33052e-08
-4.91257e-06
1.6537e-08
-4.87211e-06
-6.32638e-08
-4.80614e-06
-1.4313e-07
-4.71628e-06
-2.20807e-07
-4.60434e-06
-2.94428e-07
-4.47256e-06
-3.62196e-07
-4.32364e-06
-4.2288e-07
-4.16036e-06
-4.76065e-07
-3.98518e-06
-5.223e-07
-3.79999e-06
-5.63007e-07
-3.60603e-06
-6.00122e-07
-3.40414e-06
-6.35565e-07
-3.19488e-06
-6.70899e-07
-2.97867e-06
-7.07318e-07
-2.75538e-06
-7.46194e-07
-2.52468e-06
-7.88046e-07
-2.28575e-06
-8.325e-07
-2.03685e-06
-8.78958e-07
-1.77589e-06
-9.26945e-07
-1.50138e-06
-9.75802e-07
-1.21241e-06
-1.02482e-06
-9.0909e-07
-1.07315e-06
-5.92222e-07
-1.1199e-06
-2.74471e-07
-1.15348e-06
6.8438e-08
-1.10655e-06
5.21767e-07
-7.84894e-07
9.59516e-07
-1.68657e-07
1.17768e-06
3.61286e-07
1.17452e-06
5.41052e-07
1.12078e-06
4.26171e-07
1.11343e-06
3.5222e-07
1.06795e-06
4.28354e-07
9.30889e-07
3.76596e-07
7.49069e-07
1.64141e-08
6.84408e-07
-6.67944e-07
8.39289e-07
-1.37514e-06
1.13876e-06
-1.61177e-06
1.41112e-06
-1.33479e-06
1.55882e-06
-7.49027e-07
1.61433e-06
2.75419e-08
1.65954e-06
7.25313e-07
1.71476e-06
8.8315e-07
1.44894e-06
7.69789e-07
6.41224e-07
1.0163e-06
-4.09085e-07
1.51172e-06
-1.28846e-06
1.85875e-06
-1.9089e-06
1.97209e-06
-2.32484e-06
1.8899e-06
-2.63176e-06
1.69775e-06
-2.88562e-06
1.47902e-06
-3.11385e-06
1.27346e-06
-3.32718e-06
1.09437e-06
-3.5284e-06
9.43019e-07
-3.71741e-06
8.16155e-07
-3.89321e-06
7.08579e-07
-4.0546e-06
6.14885e-07
-4.20014e-06
5.29912e-07
-4.32808e-06
4.49176e-07
-4.43623e-06
3.69073e-07
-4.52221e-06
2.86811e-07
-4.58342e-06
2.00527e-07
-4.61727e-06
1.09326e-07
-4.62088e-06
1.25725e-08
-4.5932e-06
-8.69745e-08
-4.53264e-06
-1.89998e-07
-4.43849e-06
-2.94739e-07
-4.31062e-06
-3.99812e-07
-4.14919e-06
-5.04142e-07
-3.95448e-06
-6.0708e-07
-3.72673e-06
-7.08267e-07
-3.46606e-06
-8.07146e-07
-3.17288e-06
-9.02058e-07
-2.84863e-06
-9.89525e-07
-2.49677e-06
-1.06448e-06
-2.12279e-06
-1.12133e-06
-1.73399e-06
-1.15522e-06
-1.33913e-06
-1.16297e-06
-9.47788e-07
-1.14451e-06
-5.67769e-07
-1.10531e-06
-2.04959e-07
-1.05141e-06
1.38846e-07
-9.90294e-07
4.61877e-07
-9.28494e-07
7.64087e-07
-8.67241e-07
1.04657e-06
-8.08275e-07
1.3099e-06
-7.51486e-07
1.55392e-06
-6.95435e-07
1.77768e-06
-6.38467e-07
1.97979e-06
-5.79629e-07
2.15899e-06
-5.19097e-07
2.31466e-06
-4.57982e-07
2.44692e-06
-3.97678e-07
2.55654e-06
-3.39163e-07
2.6445e-06
-2.82682e-07
2.71169e-06
-2.27855e-07
2.75886e-06
-1.73961e-07
2.78684e-06
-1.2063e-07
2.79624e-06
-6.77661e-08
2.78793e-06
-1.59927e-08
2.76534e-06
3.19593e-08
2.73068e-06
7.62248e-08
2.6871e-06
1.15564e-07
2.63698e-06
1.50118e-07
2.58077e-06
1.81258e-07
2.51898e-06
2.08799e-07
2.45406e-06
2.31692e-07
2.39211e-06
2.46464e-07
2.3402e-06
2.52103e-07
2.30206e-06
2.51176e-07
2.27623e-06
2.46314e-07
2.25703e-06
2.36949e-07
2.23801e-06
2.20433e-07
2.21483e-06
1.94141e-07
2.18642e-06
1.60101e-07
2.15458e-06
1.2332e-07
2.12243e-06
8.86649e-08
2.09296e-06
5.96798e-08
2.06805e-06
3.81594e-08
2.04825e-06
2.41749e-08
2.03296e-06
1.65911e-08
2.02092e-06
1.35567e-08
2.01081e-06
1.33084e-08
2.00159e-06
1.41713e-08
1.99256e-06
1.52418e-08
1.98344e-06
1.59607e-08
1.97404e-06
1.69228e-08
1.96435e-06
1.78227e-08
1.95427e-06
2.01705e-08
1.94392e-06
2.22264e-08
1.93315e-06
2.74207e-08
1.92202e-06
3.05071e-08
1.91051e-06
4.06672e-08
1.89787e-06
4.39663e-08
1.88543e-06
6.4268e-08
1.86873e-06
6.59075e-08
1.85606e-06
1.07121e-07
1.07004e-07
1.82855e-06
4.57541e-08
2.34806e-07
3.00831e-07
-7.43207e-09
6.19358e-07
-3.80984e-07
8.7103e-07
-5.95848e-07
1.03255e-06
-6.42985e-07
1.12081e-06
-5.79605e-07
1.15358e-06
-4.50448e-07
1.14766e-06
-2.85536e-07
1.11165e-06
-1.02342e-07
1.04684e-06
9.15241e-08
9.52352e-07
2.87274e-07
8.2482e-07
4.65741e-07
6.45599e-07
6.17172e-07
3.93894e-07
6.77833e-07
1.13717e-07
6.02672e-07
-1.22954e-07
4.66392e-07
-3.27072e-07
3.65609e-07
-5.44263e-07
3.50427e-07
-7.96829e-07
4.28431e-07
-1.07692e-06
5.4035e-07
-1.36488e-06
6.48777e-07
-1.63778e-06
7.47238e-07
-1.87938e-06
8.20618e-07
-2.09181e-06
8.71163e-07
-2.2813e-06
9.09774e-07
-2.45192e-06
9.31193e-07
-2.61643e-06
9.37824e-07
-2.78496e-06
9.38818e-07
-2.96032e-06
9.33166e-07
-3.14367e-06
9.20822e-07
-3.33144e-06
9.02537e-07
-3.51957e-06
8.76552e-07
-3.70518e-06
8.44231e-07
-3.88599e-06
8.06193e-07
-4.06036e-06
7.63084e-07
-4.22648e-06
7.15429e-07
-4.38249e-06
6.62812e-07
-4.52631e-06
6.04908e-07
-4.65563e-06
5.41015e-07
-4.76798e-06
4.70371e-07
-4.8606e-06
3.92218e-07
-4.93072e-06
3.06075e-07
-4.9758e-06
2.12101e-07
-4.99366e-06
1.11158e-07
-4.98198e-06
4.85756e-09
-4.94197e-06
-1.03272e-07
-4.87363e-06
-2.11471e-07
-4.77788e-06
-3.16556e-07
-4.65664e-06
-4.15668e-07
-4.51275e-06
-5.06083e-07
-4.34981e-06
-5.8582e-07
-4.17182e-06
-6.54058e-07
-3.98268e-06
-7.11442e-07
-3.78564e-06
-7.60045e-07
-3.58284e-06
-8.02925e-07
-3.3752e-06
-8.43197e-07
-3.16286e-06
-8.83248e-07
-2.94575e-06
-9.24426e-07
-2.72488e-06
-9.67066e-07
-2.5023e-06
-1.01063e-06
-2.28035e-06
-1.05444e-06
-2.06081e-06
-1.0985e-06
-1.84411e-06
-1.14365e-06
-1.62929e-06
-1.19062e-06
-1.4151e-06
-1.23902e-06
-1.20083e-06
-1.28742e-06
-9.87727e-07
-1.333e-06
-7.76518e-07
-1.36469e-06
-5.36625e-07
-1.34644e-06
-1.45778e-07
-1.17574e-06
4.13644e-07
-7.28079e-07
9.07456e-07
-1.32527e-07
1.17603e-06
2.72481e-07
1.25329e-06
3.48907e-07
1.29072e-06
3.14786e-07
1.32563e-06
3.93445e-07
1.26142e-06
4.40812e-07
1.06218e-06
2.15651e-07
8.25434e-07
-4.31196e-07
7.24135e-07
-1.27385e-06
7.84352e-07
-1.67199e-06
8.8633e-07
-1.43677e-06
9.5152e-07
-8.14217e-07
1.02394e-06
-4.48799e-08
1.1064e-06
6.42852e-07
9.40252e-07
1.0493e-06
2.83369e-07
1.42667e-06
-5.90573e-07
1.89024e-06
-1.3159e-06
2.23705e-06
-1.80623e-06
2.34908e-06
-2.10484e-06
2.27069e-06
-2.29767e-06
2.08273e-06
-2.45836e-06
1.85843e-06
-2.62022e-06
1.64088e-06
-2.79162e-06
1.44486e-06
-2.96981e-06
1.27255e-06
-3.14904e-06
1.12226e-06
-3.32421e-06
9.9132e-07
-3.4916e-06
8.75968e-07
-3.64852e-06
7.7181e-07
-3.79272e-06
6.74114e-07
-3.92186e-06
5.7831e-07
-4.03328e-06
4.80492e-07
-4.12415e-06
3.77689e-07
-4.19159e-06
2.67965e-07
-4.23279e-06
1.50524e-07
-4.24487e-06
2.46561e-08
-4.22667e-06
-1.05178e-07
-4.17647e-06
-2.40194e-07
-4.0939e-06
-3.77317e-07
-3.97945e-06
-5.14254e-07
-3.83392e-06
-6.4968e-07
-3.65802e-06
-7.82978e-07
-3.45213e-06
-9.14155e-07
-3.21604e-06
-1.04323e-06
-2.94922e-06
-1.16888e-06
-2.65165e-06
-1.28709e-06
-2.32497e-06
-1.39115e-06
-1.97311e-06
-1.4732e-06
-1.60224e-06
-1.52609e-06
-1.22038e-06
-1.54483e-06
-8.36916e-07
-1.52797e-06
-4.60898e-07
-1.48132e-06
-9.85826e-08
-1.41373e-06
2.47988e-07
-1.33686e-06
5.75796e-07
-1.2563e-06
8.86383e-07
-1.17783e-06
1.1815e-06
-1.10339e-06
1.46239e-06
-1.03237e-06
1.72913e-06
-9.62179e-07