/*--------------------------------*- C++ -*----------------------------------*\
  =========                 |
  \\      /  F ield         | OpenFOAM: The Open Source CFD Toolbox
   \\    /   O peration     | Website:  https://openfoam.org
    \\  /    A nd           | Version:  7
     \\/     M anipulation  |
\*---------------------------------------------------------------------------*/
FoamFile
{
    version     2.0;
    format      ascii;
    class       surfaceScalarField;
    location    "0.101";
    object      phi_0;
}
// * * * * * * * * * * * * * * * * * * * * * * * * * * * * * * * * * * * * * //

dimensions      [0 3 -1 0 0 0 0];

internalField   nonuniform List<scalar> 
24170
(
1.38903e-06
1.8982e-07
1.24617e-06
1.42868e-07
1.11235e-06
1.33821e-07
9.92767e-07
1.19579e-07
8.76641e-07
1.16127e-07
7.67212e-07
1.09429e-07
6.67379e-07
9.98325e-08
5.75557e-07
9.18216e-08
4.92108e-07
8.34497e-08
4.19024e-07
7.30836e-08
3.56947e-07
6.2077e-08
3.04609e-07
5.23385e-08
2.59763e-07
4.48454e-08
2.2078e-07
3.89828e-08
1.86835e-07
3.39455e-08
1.5714e-07
2.9695e-08
1.30895e-07
2.62451e-08
1.73195e-08
1.13575e-07
1.66435e-06
2.22146e-07
1.64444e-06
1.62779e-07
1.6089e-06
1.69357e-07
1.56967e-06
1.58809e-07
1.52522e-06
1.60581e-07
1.47665e-06
1.58003e-07
1.4294e-06
1.47083e-07
1.38413e-06
1.37084e-07
1.33745e-06
1.30132e-07
1.28685e-06
1.23688e-07
1.23298e-06
1.15942e-07
1.17714e-06
1.08175e-07
1.12133e-06
1.00661e-07
1.06652e-06
9.37877e-08
1.01417e-06
8.63005e-08
9.64387e-07
7.94769e-08
9.1416e-07
7.64722e-08
6.75067e-08
8.63973e-07
1.79704e-06
2.98308e-07
1.78339e-06
1.76425e-07
1.76449e-06
1.88262e-07
1.74361e-06
1.79683e-07
1.73355e-06
1.70645e-07
1.72836e-06
1.63188e-07
1.72283e-06
1.52618e-07
1.71579e-06
1.44126e-07
1.70583e-06
1.4009e-07
1.69134e-06
1.3818e-07
1.67163e-06
1.35648e-07
1.64779e-06
1.32015e-07
1.62133e-06
1.27119e-07
1.59385e-06
1.21272e-07
1.56582e-06
1.14332e-07
1.53775e-06
1.07544e-07
1.50816e-06
1.06061e-07
1.01326e-07
1.47434e-06
1.9483e-06
3.02331e-07
1.92002e-06
2.04706e-07
1.88926e-06
2.19019e-07
1.86284e-06
2.06102e-07
1.85144e-06
1.82044e-07
1.85214e-06
1.62488e-07
1.85768e-06
1.47084e-07
1.86289e-06
1.38912e-07
1.86459e-06
1.38392e-07
1.86155e-06
1.41221e-07
1.8542e-06
1.42994e-07
1.8446e-06
1.41619e-07
1.83463e-06
1.3709e-07
1.82562e-06
1.30285e-07
1.8171e-06
1.22845e-07
1.8083e-06
1.16348e-07
1.79971e-06
1.1465e-07
1.12912e-07
1.78812e-06
2.09387e-06
4.08318e-07
2.0546e-06
2.43971e-07
2.04205e-06
2.31571e-07
2.02785e-06
2.20303e-07
2.0135e-06
1.96398e-07
2.00179e-06
1.7419e-07
1.99271e-06
1.56167e-07
1.98534e-06
1.46285e-07
1.97915e-06
1.44577e-07
1.97435e-06
1.46026e-07
1.97146e-06
1.45883e-07
1.97102e-06
1.42056e-07
1.97298e-06
1.3513e-07
1.97637e-06
1.26898e-07
1.97956e-06
1.19651e-07
1.98101e-06
1.14899e-07
1.98109e-06
1.14566e-07
1.16151e-07
1.97786e-06
2.23361e-06
4.21959e-07
2.20891e-06
2.68669e-07
2.1963e-06
2.44179e-07
2.18723e-06
2.2938e-07
2.17692e-06
2.06706e-07
2.16542e-06
1.85692e-07
2.1536e-06
1.6798e-07
2.14268e-06
1.57209e-07
2.13324e-06
1.54018e-07
2.12558e-06
1.53685e-07
2.12019e-06
1.51278e-07
2.11761e-06
1.44628e-07
2.11811e-06
1.34635e-07
2.12117e-06
1.23837e-07
2.12573e-06
1.15094e-07
2.13042e-06
1.10207e-07
2.13478e-06
1.10203e-07
1.13341e-07
2.13759e-06
2.42711e-06
4.24268e-07
2.3927e-06
3.03086e-07
2.37052e-06
2.66357e-07
2.3528e-06
2.47094e-07
2.33765e-06
2.21863e-07
2.32842e-06
1.94914e-07
2.32469e-06
1.71713e-07
2.32267e-06
1.5923e-07
2.31888e-06
1.57811e-07
2.31236e-06
1.60198e-07
2.30462e-06
1.59027e-07
2.29794e-06
1.51301e-07
2.29413e-06
1.3845e-07
2.29374e-06
1.2422e-07
2.29635e-06
1.12488e-07
2.30095e-06
1.05611e-07
2.30691e-06
1.04237e-07
1.07196e-07
2.31306e-06
2.59255e-06
4.79778e-07
2.56868e-06
3.26952e-07
2.56333e-06
2.71709e-07
2.55818e-06
2.52244e-07
2.55008e-06
2.29958e-07
2.54144e-06
2.03557e-07
2.53291e-06
1.80245e-07
2.52369e-06
1.6845e-07
2.51373e-06
1.67774e-07
2.5041e-06
1.69827e-07
2.49633e-06
1.66793e-07
2.49144e-06
1.56195e-07
2.4895e-06
1.4039e-07
2.48975e-06
1.23969e-07
2.49135e-06
1.10884e-07
2.49366e-06
1.033e-07
2.49666e-06
1.01245e-07
1.02868e-07
2.50098e-06
2.78875e-06
5.15744e-07
2.76209e-06
3.53617e-07
2.73927e-06
2.94527e-07
2.72826e-06
2.63251e-07
2.72485e-06
2.33369e-07
2.72305e-06
2.05359e-07
2.7174e-06
1.85892e-07
2.70796e-06
1.77893e-07
2.69953e-06
1.76204e-07
2.69676e-06
1.72599e-07
2.70087e-06
1.62681e-07
2.70955e-06
1.47509e-07
2.7187e-06
1.31241e-07
2.72455e-06
1.18121e-07
2.72539e-06
1.10046e-07
2.72175e-06
1.06936e-07
2.71592e-06
1.0708e-07
1.08913e-07
2.70987e-06
2.99317e-06
4.13172e-07
2.98414e-06
3.62643e-07
2.9304e-06
3.48263e-07
2.88803e-06
3.05624e-07
2.87744e-06
2.43958e-07
2.8889e-06
1.93895e-07
2.90533e-06
1.69468e-07
2.91793e-06
1.65293e-07
2.92608e-06
1.68048e-07
2.93164e-06
1.67039e-07
2.93512e-06
1.59205e-07
2.93566e-06
1.46972e-07
2.93255e-06
1.3435e-07
2.9265e-06
1.24175e-07
2.91934e-06
1.17198e-07
2.91319e-06
1.1309e-07
2.90984e-06
1.10429e-07
1.08162e-07
2.91059e-06
3.16379e-06
4.28376e-07
3.13235e-06
3.94091e-07
3.12203e-06
3.58582e-07
3.12492e-06
3.02736e-07
3.12778e-06
2.41094e-07
3.12724e-06
1.94433e-07
3.12742e-06
1.69286e-07
3.13215e-06
1.6057e-07
3.14076e-06
1.59437e-07
3.14931e-06
1.58486e-07
3.15435e-06
1.54164e-07
3.15489e-06
1.46437e-07
3.15227e-06
1.36969e-07
3.14887e-06
1.27577e-07
3.14659e-06
1.19473e-07
3.14656e-06
1.13123e-07
3.1488e-06
1.08189e-07
1.04562e-07
3.1524e-06
2.86409e-06
3.87026e-07
2.84489e-06
4.13288e-07
2.84486e-06
3.58611e-07
2.84878e-06
2.98824e-07
2.84902e-06
2.40856e-07
2.8503e-06
1.9315e-07
2.85449e-06
1.65098e-07
2.85808e-06
1.5698e-07
2.85661e-06
1.60905e-07
2.84868e-06
1.66415e-07
2.8368e-06
1.66047e-07
2.82556e-06
1.57676e-07
2.81891e-06
1.43615e-07
2.8185e-06
1.27989e-07
2.82341e-06
1.14566e-07
2.83151e-06
1.05023e-07
2.84005e-06
9.96464e-08
9.71705e-08
2.84744e-06
3.46784e-06
4.4044e-07
3.47443e-06
4.06692e-07
3.49881e-06
3.34232e-07
3.51708e-06
2.8056e-07
3.51564e-06
2.42297e-07
3.49909e-06
2.09693e-07
3.48088e-06
1.83306e-07
3.46988e-06
1.67983e-07
3.46665e-06
1.64141e-07
3.46793e-06
1.65135e-07
3.47142e-06
1.6255e-07
3.47672e-06
1.52379e-07
3.48398e-06
1.36356e-07
3.493e-06
1.18968e-07
3.50269e-06
1.04876e-07
3.51178e-06
9.59386e-08
3.51884e-06
9.25806e-08
9.31455e-08
3.52287e-06
4.2812e-06
5.15963e-07
4.28182e-06
4.06071e-07
4.2783e-06
3.37754e-07
4.27561e-06
2.83244e-07
4.26977e-06
2.48138e-07
4.25809e-06
2.21376e-07
4.24585e-06
1.95547e-07
4.24087e-06
1.72956e-07
4.24662e-06
1.58392e-07
4.26011e-06
1.51653e-07
4.2753e-06
1.47356e-07
4.28749e-06
1.40185e-07
4.29513e-06
1.28724e-07
4.29913e-06
1.14967e-07
4.30133e-06
1.02667e-07
4.30302e-06
9.42542e-08
4.30472e-06
9.08813e-08
9.18255e-08
4.30604e-06
5.12084e-06
4.36275e-07
5.17443e-06
3.52477e-07
5.21108e-06
3.01111e-07
5.22734e-06
2.66978e-07
5.22466e-06
2.50816e-07
5.20943e-06
2.36609e-07
5.18943e-06
2.15553e-07
5.17075e-06
1.91627e-07
5.1565e-06
1.72643e-07
5.14768e-06
1.6048e-07
5.14446e-06
1.50575e-07
5.14688e-06
1.37765e-07
5.1548e-06
1.20799e-07
5.16727e-06
1.02497e-07
5.1824e-06
8.75451e-08
5.19766e-06
7.89921e-08
5.21086e-06
7.7675e-08
8.25528e-08
5.22014e-06
6.28943e-06
4.16841e-07
6.33252e-06
3.09383e-07
6.35002e-06
2.8361e-07
6.35496e-06
2.62046e-07
6.36352e-06
2.4225e-07
6.37367e-06
2.26457e-07
6.37822e-06
2.11001e-07
6.3736e-06
1.9625e-07
6.36263e-06
1.83612e-07
6.35137e-06
1.71742e-07
6.34471e-06
1.57234e-07
6.344e-06
1.38476e-07
6.34757e-06
1.17226e-07
6.35264e-06
9.7433e-08
6.35725e-06
8.29369e-08
6.36066e-06
7.55749e-08
6.36322e-06
7.51194e-08
7.99693e-08
6.3658e-06
7.73716e-06
3.54848e-07
7.7568e-06
2.89746e-07
7.74665e-06
2.93757e-07
7.71782e-06
2.90881e-07
7.69104e-06
2.69033e-07
7.67961e-06
2.37886e-07
7.68478e-06
2.05825e-07
7.70121e-06
1.79822e-07
7.72469e-06
1.60135e-07
7.75397e-06
1.42456e-07
7.78762e-06
1.23586e-07
7.82186e-06
1.0424e-07
7.8515e-06
8.75837e-08
7.8721e-06
7.68379e-08
7.88182e-06
7.32088e-08
7.88185e-06
7.55484e-08
7.87522e-06
8.17536e-08
8.90145e-08
7.86617e-06
9.38507e-06
3.84442e-07
9.40386e-06
2.70949e-07
9.44535e-06
2.5227e-07
9.48989e-06
2.46341e-07
9.52124e-06
2.37686e-07
9.52804e-06
2.31088e-07
9.51208e-06
2.21784e-07
9.48726e-06
2.0464e-07
9.46863e-06
1.78766e-07
9.46509e-06
1.45992e-07
9.47823e-06
1.10453e-07
9.50402e-06
7.84488e-08
9.53603e-06
5.55667e-08
9.56827e-06
4.46011e-08
9.59669e-06
4.47854e-08
9.61951e-06
5.27366e-08
9.63675e-06
6.45065e-08
7.6461e-08
9.64931e-06
1.16271e-05
4.19734e-07
1.15403e-05
3.57775e-07
1.15062e-05
2.86371e-07
1.15289e-05
2.23579e-07
1.15842e-05
1.82367e-07
1.16507e-05
1.64647e-07
1.17105e-05
1.62003e-07
1.1755e-05
1.60115e-07
1.17838e-05
1.49981e-07
1.17984e-05
1.31385e-07
1.17998e-05
1.09064e-07
1.17905e-05
8.77248e-08
1.1776e-05
7.00801e-08
1.17634e-05
5.71899e-08
1.17592e-05
4.90023e-08
1.17667e-05
4.52415e-08
1.17864e-05
4.4777e-08
4.72284e-08
1.18156e-05
8.44077e-06
3.70772e-07
8.46107e-06
3.37484e-07
8.48409e-06
2.63344e-07
8.49235e-06
2.15322e-07
8.49721e-06
1.7751e-07
8.52179e-06
1.4006e-07
8.57201e-06
1.1179e-07
8.63327e-06
9.88514e-08
8.68476e-06
9.8487e-08
8.7136e-06
1.02545e-07
8.72018e-06
1.02492e-07
8.71275e-06
9.51508e-08
8.70122e-06
8.16061e-08
8.69305e-06
6.53624e-08
8.6916e-06
5.04518e-08
8.69692e-06
3.99229e-08
8.70703e-06
3.46695e-08
3.48999e-08
8.71936e-06
7.39384e-06
4.96614e-07
7.42051e-06
3.10817e-07
7.47193e-06
2.11924e-07
7.51377e-06
1.73478e-07
7.53275e-06
1.5853e-07
7.53377e-06
1.39041e-07
7.53061e-06
1.14953e-07
7.53224e-06
9.72196e-08
7.54233e-06
8.84025e-08
7.56067e-06
8.41969e-08
7.58516e-06
7.80027e-08
7.61268e-06
6.76312e-08
7.63959e-06
5.47027e-08
7.66246e-06
4.24894e-08
7.6792e-06
3.37146e-08
7.68961e-06
2.95102e-08
7.69493e-06
2.93504e-08
3.19917e-08
7.69784e-06
6.4884e-06
3.69375e-07
6.46227e-06
3.3695e-07
6.43604e-06
2.38151e-07
6.44844e-06
1.61074e-07
6.48228e-06
1.2469e-07
6.51959e-06
1.01733e-07
6.55127e-06
8.32681e-08
6.57645e-06
7.20409e-08
6.5966e-06
6.82598e-08
6.61346e-06
6.7334e-08
6.62786e-06
6.35983e-08
6.6405e-06
5.49937e-08
6.65202e-06
4.31865e-08
6.6629e-06
3.16087e-08
6.67358e-06
2.30305e-08
6.68453e-06
1.8567e-08
6.69622e-06
1.76521e-08
1.91149e-08
6.7091e-06
5.53963e-06
3.78548e-07
5.55905e-06
3.1753e-07
5.59766e-06
1.99539e-07
5.63458e-06
1.24156e-07
5.67762e-06
8.16533e-08
5.72612e-06
5.323e-08
5.77361e-06
3.57761e-08
5.81442e-06
3.12335e-08
5.8463e-06
3.63859e-08
5.86891e-06
4.47238e-08
5.8834e-06
4.91004e-08
5.89186e-06
4.65415e-08
5.89694e-06
3.81068e-08
5.90141e-06
2.71347e-08
5.90754e-06
1.68963e-08
5.91666e-06
9.45273e-09
5.9292e-06
5.10747e-09
3.558e-09
5.94476e-06
4.88021e-06
4.03978e-07
4.90738e-06
2.90361e-07
4.93663e-06
1.70286e-07
4.95339e-06
1.07397e-07
4.96754e-06
6.74998e-08
4.98943e-06
3.13466e-08
5.01985e-06
5.35078e-09
5.05401e-06
-2.91987e-09
5.0884e-06
1.99457e-09
5.11996e-06
1.31578e-08
5.14677e-06
2.22937e-08
5.16698e-06
2.63325e-08
5.18033e-06
2.47534e-08
5.18803e-06
1.94401e-08
5.19236e-06
1.25651e-08
5.19578e-06
6.03384e-09
5.20026e-06
6.26798e-10
-2.65243e-09
5.20647e-06
4.27038e-06
2.53625e-07
4.34381e-06
2.16931e-07
4.38557e-06
1.28526e-07
4.41837e-06
7.45969e-08
4.44159e-06
4.42749e-08
4.44933e-06
2.36047e-08
4.44308e-06
1.16051e-08
4.4333e-06
6.8646e-09
4.43077e-06
4.52467e-09
4.44095e-06
2.97292e-09
4.46175e-06
1.49102e-09
4.48815e-06
-6.58769e-11
4.515e-06
-2.09569e-09
4.53849e-06
-4.05237e-09
4.55682e-06
-5.76508e-09
4.56994e-06
-7.07954e-09
4.5784e-06
-7.83183e-09
-8.40501e-09
4.58415e-06
3.75122e-06
3.19214e-07
3.81963e-06
1.48524e-07
3.8461e-06
1.02059e-07
3.85185e-06
6.88405e-08
3.86449e-06
3.16371e-08
3.88014e-06
7.95803e-09
3.89222e-06
-4.72496e-10
3.90189e-06
-2.8113e-09
3.91404e-06
-7.62714e-09
3.93173e-06
-1.47078e-08
3.95419e-06
-2.09698e-08
3.97878e-06
-2.46642e-08
4.00227e-06
-2.55862e-08
4.02226e-06
-2.40382e-08
4.03746e-06
-2.09696e-08
4.04794e-06
-1.75585e-08
4.05469e-06
-1.45822e-08
-1.30429e-08
4.05933e-06
3.25315e-06
2.15597e-07
3.32719e-06
7.448e-08
3.36135e-06
6.79055e-08
3.37925e-06
5.09331e-08
3.3933e-06
1.75924e-08
3.41025e-06
-8.99391e-09
3.43265e-06
-2.28767e-08
3.45969e-06
-2.98502e-08
3.48731e-06
-3.52458e-08
3.5108e-06
-3.82001e-08
3.52786e-06
-3.80208e-08
3.53878e-06
-3.55911e-08
3.54556e-06
-3.23609e-08
3.55051e-06
-2.89879e-08
3.55527e-06
-2.57352e-08
3.56072e-06
-2.30042e-08
3.56725e-06
-2.11098e-08
-2.08622e-08
3.57506e-06
2.85284e-06
8.95094e-08
2.93821e-06
-1.08882e-08
2.96429e-06
4.18278e-08
2.98677e-06
2.84484e-08
3.01116e-06
-6.79351e-09
3.03219e-06
-3.00195e-08
3.05018e-06
-4.08734e-08
3.06669e-06
-4.63626e-08
3.08169e-06
-5.02376e-08
3.09487e-06
-5.13821e-08
3.10618e-06
-4.93285e-08
3.11603e-06
-4.54399e-08
3.12497e-06
-4.1302e-08
3.13352e-06
-3.75365e-08
3.142e-06
-3.42204e-08
3.1506e-06
-3.16048e-08
3.15941e-06
-2.99217e-08
-2.97567e-08
3.16831e-06
2.48088e-06
2.71605e-08
2.51575e-06
-4.57569e-08
2.55667e-06
9.06836e-10
2.60716e-06
-2.20404e-08
2.64842e-06
-4.80486e-08
2.67378e-06
-5.53835e-08
2.68604e-06
-5.31376e-08
2.6897e-06
-5.00179e-08
2.68788e-06
-4.8418e-08
2.68328e-06
-4.67797e-08
2.67812e-06
-4.41676e-08
2.67385e-06
-4.11779e-08
2.67105e-06
-3.84938e-08
2.66956e-06
-3.60481e-08
2.66888e-06
-3.35375e-08
2.66828e-06
-3.10066e-08
2.66719e-06
-2.8835e-08
-2.77378e-08
2.66517e-06
2.1445e-06
2.09874e-06
2.09965e-06
2.07761e-06
2.02956e-06
1.97418e-06
1.92104e-06
1.87102e-06
1.8226e-06
1.77582e-06
1.73166e-06
1.69048e-06
1.65198e-06
1.61594e-06
1.5824e-06
1.55139e-06
1.52256e-06
1.49482e-06
-1.88284e-07
1.88284e-07
-3.56121e-07
1.67837e-07
-4.31129e-07
7.50075e-08
-3.84663e-07
-4.64657e-08
-2.62832e-07
-1.21831e-07
-1.06001e-07
-1.56831e-07
4.27719e-08
-1.48773e-07
1.52328e-07
-1.09556e-07
2.01898e-07
-4.95709e-08
1.81617e-07
2.02817e-08
1.18501e-07
6.31158e-08
6.33077e-08
5.51932e-08
4.07857e-08
2.2522e-08
3.95986e-08
1.18705e-09
1.92777e-08
2.0321e-08
-8.06044e-09
2.73381e-08
-6.77044e-09
-1.28999e-09
3.33855e-08
-4.01559e-08
1.0079e-07
-6.74043e-08
1.73665e-07
-7.28749e-08
2.36036e-07
-6.23711e-08
2.69477e-07
-3.34411e-08
2.43823e-07
2.56541e-08
1.52276e-07
9.15469e-08
-1.18598e-08
1.64136e-07
-2.78689e-07
2.66829e-07
-6.21208e-07
3.42519e-07
-9.86885e-07
3.65678e-07
-1.35704e-06
3.70159e-07
-1.70769e-06
3.50641e-07
-2.02891e-06
3.21227e-07
-2.32029e-06
2.91373e-07
-2.58137e-06
2.61088e-07
-2.81646e-06
2.35083e-07
-3.02888e-06
2.1242e-07
-3.22226e-06
1.93381e-07
-3.39921e-06
1.76955e-07
-3.56142e-06
1.62204e-07
-3.70973e-06
1.48315e-07
-3.84401e-06
1.34282e-07
-3.96315e-06
1.19137e-07
-4.06521e-06
1.0206e-07
-4.14782e-06
8.26126e-08
-4.20818e-06
6.03546e-08
-4.24344e-06
3.52584e-08
-4.25115e-06
7.71328e-09
-4.23011e-06
-2.10405e-08
-4.1798e-06
-5.03099e-08
-4.10046e-06
-7.93433e-08
-3.99325e-06
-1.07204e-07
-3.86022e-06
-1.33037e-07
-3.7041e-06
-1.56118e-07
-3.52801e-06
-1.76083e-07
-3.33494e-06
-1.93076e-07
-3.127e-06
-2.07937e-07
-2.90514e-06
-2.21862e-07
-2.66893e-06
-2.36214e-07
-2.41675e-06
-2.52174e-07
-2.14647e-06
-2.70282e-07
-1.85635e-06
-2.90115e-07
-1.54616e-06
-3.10189e-07
-1.21759e-06
-3.28572e-07
-8.73312e-07
-3.44281e-07
-5.15202e-07
-3.5811e-07
-1.47155e-07
-3.68047e-07
2.24036e-07
-3.71191e-07
6.0931e-07
-3.85273e-07
1.05032e-06
-4.41012e-07
1.43051e-06
-3.80194e-07
1.41819e-06
1.23235e-08
1.02354e-06
3.94656e-07
6.01208e-07
4.22327e-07
2.88804e-07
3.12405e-07
7.96743e-08
2.09129e-07
-1.22919e-07
2.02593e-07
-3.22214e-07
1.99295e-07
-3.95813e-07
7.35991e-08
-2.01929e-07
-1.93884e-07
3.04873e-07
-5.06802e-07
1.03546e-06
-7.30584e-07
1.76964e-06
-7.34181e-07
2.36829e-06
-5.98651e-07
2.68645e-06
-3.1816e-07
2.52868e-06
1.57767e-07
1.94675e-06
5.8193e-07
1.29983e-06
6.4692e-07
9.55562e-07
3.4427e-07
9.95299e-07
-3.9737e-08
1.15424e-06
-1.5894e-07
1.10162e-06
5.26209e-08
6.7811e-07
4.23508e-07
-5.68444e-08
7.34955e-07
-8.52999e-07
7.96155e-07
-1.58361e-06
7.30608e-07
-2.21858e-06
6.34969e-07
-2.75877e-06
5.40194e-07
-3.2152e-06
4.56428e-07
-3.60109e-06
3.85891e-07
-3.92837e-06
3.27276e-07
-4.20645e-06
2.7808e-07
-4.44206e-06
2.35611e-07
-4.63938e-06
1.97327e-07
-4.8006e-06
1.61216e-07
-4.92643e-06
1.25828e-07
-5.01661e-06
9.01822e-08
-5.0701e-06
5.34927e-08
-5.08563e-06
1.55236e-08
-5.06466e-06
-2.09628e-08
-5.0074e-06
-5.72615e-08
-4.9134e-06
-9.40007e-08
-4.78299e-06
-1.30407e-07
-4.61656e-06
-1.66437e-07
-4.4148e-06
-2.01759e-07
-4.17865e-06
-2.36143e-07
-3.90944e-06
-2.69214e-07
-3.60924e-06
-3.00202e-07
-3.2813e-06
-3.27935e-07
-2.93013e-06
-3.51171e-07
-2.56233e-06
-3.67807e-07
-2.18564e-06
-3.76681e-07
-1.80859e-06
-3.77054e-07
-1.43907e-06
-3.69517e-07
-1.08338e-06
-3.55691e-07
-7.45854e-07
-3.37528e-07
-4.28567e-07
-3.17286e-07
-1.32184e-07
-2.96383e-07
1.45341e-07
-2.77526e-07
4.03757e-07
-2.58416e-07
6.4384e-07
-2.40083e-07
8.6601e-07
-2.2217e-07
1.07029e-06
-2.04284e-07
1.25645e-06
-1.86159e-07
1.42422e-06
-1.67763e-07
1.57349e-06
-1.49273e-07
1.70446e-06
-1.30974e-07
1.81747e-06
-1.13009e-07
1.9128e-06
-9.53275e-08
1.99069e-06
-7.78885e-08
2.0511e-06
-6.04093e-08
2.09363e-06
-4.25361e-08
2.11811e-06
-2.44771e-08
2.1238e-06
-5.68903e-09
2.11049e-06
1.33082e-08
2.07898e-06
3.15123e-08
2.03104e-06
4.79342e-08
1.96794e-06
6.31084e-08
1.89014e-06
7.78002e-08
1.79693e-06
9.32077e-08
1.68711e-06
1.09819e-07
1.56102e-06
1.26093e-07
1.42092e-06
1.40099e-07
1.27055e-06
1.5037e-07
1.116e-06
1.54545e-07
9.67436e-07
1.48567e-07
8.37141e-07
1.30295e-07
7.35269e-07
1.01872e-07
6.65695e-07
6.95741e-08
6.2546e-07
4.02356e-08
6.07725e-07
1.7735e-08
6.04765e-07
2.95986e-09
6.09703e-07
-4.93788e-09
6.17776e-07
-8.07268e-09
6.26197e-07
-8.42189e-09
6.33607e-07
-7.40992e-09
6.39558e-07
-5.95083e-09
6.4408e-07
-4.52187e-09
6.47296e-07
-3.21613e-09
6.49392e-07
-2.09549e-09
6.50217e-07
-8.25508e-10
6.49798e-07
4.19027e-10
6.47487e-07
2.3107e-09
6.43456e-07
4.03182e-09
6.36176e-07
7.2801e-09
6.26849e-07
9.32648e-09
6.11424e-07
1.5425e-08
5.94645e-07
1.67792e-08
5.64506e-07
3.01384e-08
5.38428e-07
2.60785e-08
4.78458e-07
5.99698e-08
3.7808e-08
4.4065e-07
-1.04269e-07
2.92553e-07
-2.18672e-07
2.8224e-07
-2.27586e-07
8.39218e-08
-1.2744e-07
-1.46612e-07
3.93041e-08
-2.88575e-07
2.17263e-07
-3.3479e-07
3.74682e-07
-3.06193e-07
4.9093e-07
-2.25803e-07
5.5714e-07
-1.15781e-07
5.69629e-07
7.79282e-09
5.12796e-07
1.19949e-07
3.60305e-07
2.07685e-07
1.64037e-07
2.1879e-07
1.44932e-08
1.50731e-07
-6.99815e-08
1.04796e-07
-1.24745e-07
8.21019e-08
-1.57913e-07
3.18773e-08
-1.85936e-07
-1.21326e-08
-2.40955e-07
-1.23851e-08
-3.41564e-07
2.77335e-08
-4.93672e-07
8.97376e-08
-7.04468e-07
1.77355e-07
-9.70504e-07
2.9169e-07
-1.27796e-06
3.99005e-07
-1.59554e-06
4.8171e-07
-1.88001e-06
5.51298e-07
-2.13069e-06
5.93206e-07
-2.36852e-06
6.03502e-07
-2.58937e-06
5.91013e-07
-2.79988e-06
5.61147e-07
-3.00561e-06
5.26963e-07
-3.2069e-06
4.92665e-07
-3.40566e-06
4.5985e-07
-3.60057e-06
4.29985e-07
-3.79042e-06
4.02272e-07
-3.97273e-06
3.75687e-07
-4.14438e-06
3.48608e-07
-4.30224e-06
3.20067e-07
-4.44317e-06
2.89246e-07
-4.56432e-06
2.55433e-07
-4.6633e-06
2.18117e-07
-4.73814e-06
1.76892e-07
-4.78715e-06
1.31629e-07
-4.80945e-06
8.26558e-08
-4.80487e-06
3.06743e-08
-4.77405e-06
-2.31092e-08
-4.71764e-06
-7.74466e-08
-4.63669e-06
-1.31263e-07
-4.53317e-06
-1.82859e-07
-4.40948e-06
-2.30896e-07
-4.26797e-06
-2.74545e-07
-4.11061e-06
-3.13479e-07
-3.93879e-06
-3.47903e-07
-3.75324e-06
-3.78628e-07
-3.5542e-06
-4.06978e-07
-3.34162e-06
-4.34444e-07
-3.11549e-06
-4.62342e-07
-2.87595e-06
-4.91712e-07
-2.62279e-06
-5.23439e-07
-2.35508e-06
-5.57834e-07
-2.07123e-06
-5.94034e-07
-1.76928e-06
-6.30517e-07
-1.44715e-06
-6.66419e-07
-1.10362e-06
-7.01638e-07
-7.35607e-07
-7.36058e-07
-3.36969e-07
-7.69829e-07
8.05549e-08
-8.02797e-07
4.74889e-07
-8.35345e-07
8.56163e-07
-7.61468e-07
1.19592e-06
-3.27436e-07
1.31823e-06
2.72353e-07
1.16026e-06
5.80295e-07
9.35593e-07
5.3707e-07
7.7293e-07
3.71792e-07
6.30127e-07
3.45396e-07
4.45984e-07
3.83438e-07
2.8118e-07
2.38403e-07
2.56199e-07
-1.68903e-07
4.86987e-07
-7.3759e-07
9.79546e-07
-1.22314e-06
1.5563e-06
-1.31094e-06
2.01605e-06
-1.0584e-06
2.29279e-06
-5.94895e-07
2.35924e-06
9.1319e-08
2.16626e-06
7.74907e-07
1.87922e-06
9.3396e-07
1.72622e-06
4.9727e-07
1.47761e-06
2.08875e-07
8.51633e-07
4.67032e-07
-8.04886e-08
9.84743e-07
-1.01142e-06
1.35444e-06
-1.75057e-06
1.47411e-06
-2.34402e-06
1.3896e-06
-2.83692e-06
1.22351e-06
-3.24555e-06
1.04359e-06
-3.58494e-06
8.79582e-07
-3.86906e-06
7.40556e-07
-4.10926e-06
6.26089e-07
-4.31383e-06
5.31851e-07
-4.48843e-06
4.52674e-07
-4.63642e-06
3.83598e-07
-4.75958e-06
3.20493e-07
-4.85855e-06
2.60189e-07
-4.93282e-06
2.00096e-07
-4.98123e-06
1.38592e-07
-5.0025e-06
7.47627e-08
-4.99524e-06
8.26125e-09
-4.95628e-06
-5.99206e-08
-4.88354e-06
-1.30002e-07
-4.77645e-06
-2.01093e-07
-4.63449e-06
-2.72364e-07
-4.45786e-06
-3.43069e-07
-4.24694e-06
-4.1268e-07
-4.0023e-06
-4.80781e-07
-3.72478e-06
-5.46733e-07
-3.41585e-06
-6.09135e-07
-3.07822e-06
-6.65565e-07
-2.71645e-06
-7.12937e-07
-2.33658e-06
-7.47675e-07
-1.94656e-06
-7.667e-07
-1.5553e-06
-7.68318e-07
-1.17155e-06
-7.53272e-07
-8.01979e-07
-7.25257e-07
-4.51072e-07
-6.88435e-07
-1.22153e-07
-6.46206e-07
1.86583e-07
-6.05119e-07
4.73674e-07
-5.64617e-07
7.40585e-07
-5.25327e-07
9.88142e-07
-4.87639e-07
1.21682e-06
-4.50847e-07
1.42663e-06
-4.14093e-07
1.61734e-06
-3.76872e-07
1.7888e-06
-3.39225e-07
1.94118e-06
-3.01648e-07
2.07497e-06
-2.64768e-07
2.1909e-06
-2.28937e-07
2.28973e-06
-1.94158e-07
2.37199e-06
-1.60146e-07
2.4379e-06
-1.26327e-07
2.48762e-06
-9.22515e-08
2.52116e-06
-5.80214e-08
2.53952e-06
-2.40407e-08
2.54328e-06
9.54617e-09
2.53313e-06
4.16569e-08
2.50908e-06
7.19841e-08
2.47229e-06
9.9904e-08
2.42523e-06
1.2486e-07
2.37169e-06
1.46743e-07
2.31506e-06
1.66448e-07
2.25702e-06
1.84133e-07
2.19734e-06
1.99779e-07
2.13512e-06
2.12596e-07
2.06962e-06
2.2004e-07
2.00091e-06
2.17283e-07
1.93024e-06
2.00965e-07
1.86157e-06
1.70538e-07
1.79981e-06
1.31332e-07
1.74883e-06
9.12226e-08
1.71021e-06
5.63545e-08
1.68303e-06
3.01389e-08
1.66482e-06
1.3265e-08
1.65231e-06
4.44265e-09
1.64248e-06
1.40493e-09
1.63343e-06
1.63955e-09
1.62416e-06
3.32438e-09
1.61458e-06
5.05847e-09
1.60504e-06
6.31765e-09
1.59602e-06
6.93032e-09
1.58759e-06
7.59952e-09
1.57979e-06
8.21654e-09
1.57193e-06
1.01709e-08
1.56401e-06
1.19574e-08
1.55455e-06
1.67417e-08
1.54441e-06
1.94647e-08
1.53059e-06
2.92461e-08
1.51593e-06
3.14377e-08
1.49412e-06
5.19464e-08
1.47084e-06
4.93601e-08
1.43612e-06
9.46855e-08
7.99208e-08
1.39401e-06
1.2437e-08
2.80116e-07
4.81302e-08
2.46547e-07
1.95992e-07
-6.39401e-08
3.94728e-07
-3.45348e-07
5.88283e-07
-4.8213e-07
7.45151e-07
-4.91658e-07
8.56674e-07
-4.17715e-07
9.22205e-07
-2.91335e-07
9.44548e-07
-1.38125e-07
9.25298e-07
2.70433e-08
8.52125e-07
1.93122e-07
7.21274e-07
3.38536e-07
5.01868e-07
4.38196e-07
2.26304e-07
4.26294e-07
8.39994e-09
3.227e-07
-1.39441e-07
2.29943e-07
-2.69267e-07
1.61703e-07
-4.14694e-07
1.33295e-07
-6.02833e-07
1.75754e-07
-8.35171e-07
2.60072e-07
-1.10589e-06
3.60452e-07
-1.4024e-06
4.73868e-07
-1.68931e-06
5.78604e-07
-1.94862e-06
6.58306e-07
-2.18672e-06
7.19818e-07
-2.39561e-06
7.60186e-07
-2.57537e-06
7.72964e-07
-2.74181e-06
7.69938e-07
-2.90823e-06
7.57438e-07
-3.08412e-06
7.37037e-07
-3.27141e-06
7.14248e-07
-3.4666e-06
6.8786e-07
-3.66474e-06
6.57989e-07
-3.85945e-06
6.24692e-07
-4.04514e-06
5.87962e-07
-4.21791e-06
5.4846e-07
-4.37519e-06
5.05889e-07
-4.51525e-06
4.60125e-07
-4.6367e-06
4.10693e-07
-4.7383e-06
3.57033e-07
-4.81883e-06
2.98655e-07
-4.87705e-06
2.35103e-07
-4.91169e-06
1.66277e-07
-4.92172e-06
9.26804e-08
-4.90705e-06
1.60037e-08
-4.8664e-06
-6.37562e-08
-4.80022e-06
-1.43622e-07
-4.71013e-06
-2.21358e-07
-4.59789e-06
-2.95093e-07
-4.46578e-06
-3.63012e-07
-4.31646e-06
-4.23859e-07
-4.15276e-06
-4.77186e-07
-3.97714e-06
-5.23517e-07
-3.79151e-06
-5.64257e-07
-3.59715e-06
-6.01343e-07
-3.39489e-06
-6.36705e-07
-3.18531e-06
-6.71921e-07
-2.96882e-06
-7.082e-07
-2.74532e-06
-7.46937e-07
-2.51448e-06
-7.88679e-07
-2.27545e-06
-8.33066e-07
-2.02647e-06
-8.79494e-07
-1.76542e-06
-9.27468e-07
-1.49076e-06
-9.76297e-07
-1.20158e-06
-1.02524e-06
-8.98012e-07
-1.0734e-06
-5.80906e-07
-1.1199e-06
-2.63149e-07
-1.1531e-06
8.05167e-08
-1.10513e-06
5.34274e-07
-7.81194e-07
9.70952e-07
-1.64325e-07
1.18708e-06
3.64168e-07
1.18228e-06
5.4187e-07
1.12805e-06
4.26021e-07
1.12023e-06
3.5322e-07
1.07365e-06
4.30016e-07
9.35722e-07
3.7633e-07
7.53898e-07
1.29204e-08
6.90863e-07
-6.74555e-07
8.47536e-07
-1.37982e-06
1.14724e-06
-1.61064e-06
1.41835e-06
-1.32951e-06
1.5649e-06
-7.41444e-07
1.6206e-06
3.562e-08
1.66747e-06
7.28034e-07
1.72144e-06
8.79991e-07
1.44887e-06
7.69843e-07
6.3562e-07
1.02213e-06
-4.14281e-07
1.51693e-06
-1.29064e-06
1.8611e-06
-1.90834e-06
1.97214e-06
-2.32266e-06
1.88843e-06
-2.62877e-06
1.69571e-06
-2.88225e-06
1.47698e-06
-3.11027e-06
1.27162e-06
-3.32345e-06
1.09276e-06
-3.52452e-06
9.41622e-07
-3.71335e-06
8.14919e-07
-3.88895e-06
7.07452e-07
-4.0501e-06
6.13819e-07
-4.19537e-06
5.28867e-07
-4.323e-06
4.48122e-07
-4.4308e-06
3.67994e-07
-4.51641e-06
2.85706e-07
-4.57723e-06
1.99409e-07
-4.61068e-06
1.08214e-07
-4.61391e-06
1.14874e-08
-4.58587e-06
-8.79593e-08
-4.52498e-06
-1.90888e-07
-4.43056e-06
-2.95513e-07
-4.30246e-06
-4.00467e-07
-4.14084e-06
-5.04691e-07
-3.94597e-06
-6.07545e-07
-3.71808e-06
-7.08676e-07
-3.45728e-06
-8.07536e-07
-3.16395e-06
-9.02464e-07
-2.83953e-06
-9.89978e-07
-2.48748e-06
-1.06499e-06
-2.1133e-06
-1.12186e-06
-1.7243e-06
-1.1557e-06
-1.32929e-06
-1.16333e-06
-9.37871e-07
-1.14469e-06
-5.57856e-07
-1.10527e-06
-1.95133e-07
-1.05116e-06
1.48539e-07
-9.89878e-07
4.71357e-07
-9.27937e-07
7.73316e-07
-8.66576e-07
1.05551e-06
-8.07519e-07
1.31851e-06
-7.50642e-07
1.56216e-06
-6.94498e-07
1.7855e-06
-6.37435e-07
1.98715e-06
-5.78516e-07
2.16586e-06
-5.17936e-07
2.32103e-06
-4.56817e-07
2.45281e-06
-3.96553e-07
2.56199e-06
-3.38111e-07
2.64955e-06
-2.81722e-07
2.7164e-06
-2.26996e-07
2.76328e-06
-1.73207e-07
2.79102e-06
-1.19989e-07
2.80024e-06
-6.7248e-08
2.79182e-06
-1.56136e-08
2.76918e-06
3.21806e-08
2.73455e-06
7.6293e-08
2.69105e-06
1.1548e-07
2.64104e-06
1.49915e-07
2.58495e-06
1.80948e-07
2.5233e-06
2.08389e-07
2.45859e-06
2.31162e-07
2.39693e-06
2.45795e-07
2.34537e-06
2.51339e-07
2.30758e-06
2.50386e-07
2.28206e-06
2.45556e-07
2.26309e-06
2.36254e-07
2.24424e-06
2.19817e-07
2.22116e-06
1.93617e-07
2.19281e-06
1.59683e-07
2.16102e-06
1.23014e-07
2.1289e-06
8.84686e-08
2.09946e-06
5.95862e-08
2.07457e-06
3.81565e-08
2.05476e-06
2.42457e-08
2.03945e-06
1.67152e-08
2.02738e-06
1.37115e-08
2.01723e-06
1.34745e-08
2.00795e-06
1.4334e-08
1.99888e-06
1.53938e-08
1.98971e-06
1.61013e-08
1.98025e-06
1.7055e-08
1.97052e-06
1.79502e-08
1.96039e-06
2.02957e-08
1.95e-06
2.23509e-08
1.9392e-06
2.75456e-08
1.92803e-06
3.06341e-08
1.91647e-06
4.08003e-08
1.9038e-06
4.41115e-08
1.89131e-06
6.44382e-08
1.87454e-06
6.61239e-08
1.8618e-06
1.0743e-07
1.07502e-07
1.83422e-06
4.59885e-08
2.34127e-07
3.01777e-07
-9.24168e-09
6.20538e-07
-3.827e-07
8.72219e-07
-5.9703e-07
1.03374e-06
-6.43654e-07
1.122e-06
-5.79917e-07
1.15483e-06
-4.50542e-07
1.149e-06
-2.85506e-07
1.11312e-06
-1.02244e-07
1.04847e-06
9.16941e-08
9.54129e-07
2.87463e-07
8.26718e-07
4.65947e-07
6.47559e-07
6.17354e-07
3.95886e-07
6.77968e-07
1.15751e-07
6.02835e-07
-1.20847e-07
4.66541e-07
-3.24742e-07
3.65598e-07
-5.41523e-07
3.50075e-07
-7.93645e-07
4.27877e-07
-1.07339e-06
5.39819e-07
-1.36119e-06
6.48247e-07
-1.63409e-06
7.4677e-07
-1.87574e-06
8.20253e-07
-2.0882e-06
8.70764e-07
-2.27775e-06
9.09374e-07
-2.4484e-06
9.30833e-07
-2.61283e-06
9.37399e-07
-2.78122e-06
9.38324e-07
-2.95641e-06
9.32627e-07
-3.13959e-06
9.20222e-07
-3.32725e-06
9.019e-07
-3.51526e-06
8.75877e-07
-3.70076e-06
8.43489e-07
-3.88144e-06
8.05366e-07
-4.05562e-06
7.62152e-07
-4.22156e-06
7.14396e-07
-4.37737e-06
6.61695e-07
-4.52098e-06
6.03736e-07
-4.65011e-06
5.39829e-07
-4.76231e-06
4.69224e-07
-4.85482e-06
3.91166e-07
-4.92487e-06
3.05159e-07
-4.96993e-06
2.11337e-07
-4.98778e-06
1.10529e-07
-4.9761e-06
4.31831e-09
-4.93607e-06
-1.03786e-07
-4.86765e-06
-2.12034e-07
-4.77177e-06
-3.17246e-07
-4.6503e-06
-4.16556e-07
-4.5061e-06
-5.0722e-07
-4.34274e-06
-5.87217e-07
-4.16425e-06
-6.55676e-07
-3.97457e-06
-7.13199e-07
-3.77699e-06
-7.61832e-07
-3.5737e-06
-8.04634e-07
-3.36566e-06
-8.44742e-07
-3.153e-06
-8.84578e-07
-2.93568e-06
-9.2552e-07
-2.71469e-06
-9.67934e-07
-2.49207e-06
-1.0113e-06
-2.27016e-06
-1.05497e-06
-2.05072e-06
-1.09894e-06
-1.83413e-06
-1.14406e-06
-1.61938e-06
-1.19105e-06
-1.40514e-06
-1.23947e-06
-1.1907e-06
-1.28785e-06
-9.77325e-07
-1.33328e-06
-7.65805e-07
-1.36462e-06
-5.25262e-07
-1.34568e-06
-1.32985e-07
-1.17347e-06
4.26722e-07
-7.24031e-07
9.19088e-07
-1.28198e-07
1.1854e-06
2.75563e-07
1.26096e-06
3.50454e-07
1.29767e-06
3.16514e-07
1.33162e-06
3.96068e-07
1.26576e-06
4.42182e-07
1.06546e-06
2.13226e-07
8.28882e-07
-4.37978e-07
7.28986e-07
-1.27992e-06
7.89927e-07
-1.67158e-06
8.91624e-07
-1.43121e-06
9.56604e-07
-8.06424e-07
1.03017e-06
-3.7948e-08
1.11112e-06
6.47082e-07
9.39041e-07
1.05207e-06
2.77459e-07
1.43143e-06
-5.95234e-07
1.89482e-06
-1.3173e-06
2.239e-06
-1.80487e-06
2.34867e-06
-2.10173e-06
2.269e-06
-2.29383e-06
2.08053e-06
-2.45435e-06
1.85623e-06
-2.61624e-06
1.63887e-06
-2.78768e-06
1.44306e-06
-2.96586e-06
1.27094e-06
-3.14502e-06
1.12079e-06
-3.32006e-06
9.89951e-07
-3.48726e-06
8.74658e-07
-3.64396e-06
7.70515e-07
-3.78788e-06
6.72794e-07
-3.9167e-06
5.76934e-07
-4.02775e-06
4.79045e-07
-4.11822e-06
3.76179e-07
-4.18523e-06
2.66417e-07
-4.22599e-06
1.4898e-07
-4.23765e-06
2.31432e-08
-4.21906e-06
-1.06545e-07
-4.16853e-06
-2.41419e-07
-4.08568e-06
-3.78366e-07
-3.97102e-06
-5.15126e-07
-3.82531e-06
-6.50398e-07
-3.64928e-06
-7.83579e-07
-3.44327e-06
-9.14685e-07
-3.20706e-06
-1.04375e-06
-2.94009e-06
-1.16943e-06
-2.64235e-06
-1.28772e-06
-2.31546e-06
-1.39187e-06
-1.96335e-06
-1.47396e-06
-1.59224e-06
-1.52681e-06
-1.21018e-06
-1.54539e-06
-8.26588e-07
-1.52828e-06
-4.50529e-07
-1.48133e-06
-8.82715e-08
-1.41342e-06
2.58225e-07
-1.33637e-06
5.85893e-07
-1.2556e-06
8.96312e-07
-1.177e-06
1.19125e-06
-1.10245e-06
1.47192e-06
-1.03131e-06
1.73839e-06
-9.60977e-07
1.98937e-06
-8.88408e-07
2.22249e-06