/*--------------------------------*- C++ -*----------------------------------*\
  =========                 |
  \\      /  F ield         | OpenFOAM: The Open Source CFD Toolbox
   \\    /   O peration     | Website:  https://openfoam.org
    \\  /    A nd           | Version:  7
     \\/     M anipulation  |
\*---------------------------------------------------------------------------*/
FoamFile
{
    version     2.0;
    format      ascii;
    class       volScalarField;
    location    "0.101";
    object      pPrime2Mean;
}
// * * * * * * * * * * * * * * * * * * * * * * * * * * * * * * * * * * * * * //

dimensions      [0 4 -4 0 0 0 0];

internalField   nonuniform List<scalar> 
12225
(
3.57454e+06
3.51782e+06
3.45921e+06
3.40263e+06
3.34825e+06
3.29592e+06
3.24548e+06
3.19681e+06
3.14975e+06
3.10412e+06
3.05975e+06
3.01642e+06
2.97389e+06
2.93183e+06
2.8898e+06
2.84713e+06
2.80259e+06
2.75319e+06
3.57459e+06
3.51785e+06
3.45924e+06
3.40266e+06
3.34828e+06
3.29595e+06
3.24553e+06
3.19686e+06
3.14981e+06
3.1042e+06
3.05985e+06
3.01655e+06
2.97406e+06
2.93207e+06
2.89016e+06
2.8477e+06
2.80369e+06
2.75568e+06
3.57468e+06
3.51791e+06
3.4593e+06
3.40273e+06
3.34836e+06
3.29604e+06
3.24563e+06
3.19698e+06
3.14995e+06
3.10437e+06
3.06007e+06
3.01684e+06
2.97444e+06
2.9326e+06
2.89094e+06
2.84894e+06
2.80588e+06
2.76082e+06
3.57479e+06
3.51801e+06
3.4594e+06
3.40284e+06
3.34848e+06
3.29617e+06
3.24579e+06
3.19717e+06
3.15019e+06
3.10466e+06
3.06044e+06
3.01731e+06
2.97507e+06
2.93347e+06
2.89219e+06
2.85086e+06
2.80912e+06
2.76697e+06
3.57493e+06
3.51816e+06
3.45955e+06
3.403e+06
3.34866e+06
3.29638e+06
3.24602e+06
3.19746e+06
3.15053e+06
3.10509e+06
3.06097e+06
3.018e+06
2.97598e+06
2.9347e+06
2.89393e+06
2.85345e+06
2.81319e+06
2.77363e+06
3.57514e+06
3.51837e+06
3.45976e+06
3.40322e+06
3.3489e+06
3.29666e+06
3.24635e+06
3.19785e+06
3.151e+06
3.10567e+06
3.0617e+06
3.01893e+06
2.9772e+06
2.93633e+06
2.89618e+06
2.85666e+06
2.8179e+06
2.78053e+06
3.5754e+06
3.51864e+06
3.46004e+06
3.40352e+06
3.34923e+06
3.29703e+06
3.24678e+06
3.19836e+06
3.15162e+06
3.10643e+06
3.06265e+06
3.02014e+06
2.97875e+06
2.93837e+06
2.89893e+06
2.86043e+06
2.8231e+06
2.78755e+06
3.57573e+06
3.51898e+06
3.4604e+06
3.4039e+06
3.34965e+06
3.2975e+06
3.24734e+06
3.19901e+06
3.15241e+06
3.1074e+06
3.06385e+06
3.02163e+06
2.98066e+06
2.94084e+06
2.90215e+06
2.86468e+06
2.82868e+06
2.79464e+06
3.57617e+06
3.51943e+06
3.46085e+06
3.40438e+06
3.35017e+06
3.2981e+06
3.24802e+06
3.19983e+06
3.15339e+06
3.10858e+06
3.0653e+06
3.02344e+06
2.98293e+06
2.94372e+06
2.90582e+06
2.86935e+06
2.83453e+06
2.80176e+06
3.57671e+06
3.51998e+06
3.46141e+06
3.40497e+06
3.35082e+06
3.29882e+06
3.24886e+06
3.20082e+06
3.15457e+06
3.11001e+06
3.06704e+06
3.02558e+06
2.98557e+06
2.94699e+06
2.90988e+06
2.87436e+06
2.84061e+06
2.80891e+06
3.57749e+06
3.52067e+06
3.4621e+06
3.40568e+06
3.3516e+06
3.2997e+06
3.24987e+06
3.202e+06
3.15597e+06
3.11169e+06
3.06907e+06
3.02804e+06
2.98857e+06
2.95064e+06
2.91431e+06
2.87966e+06
2.84686e+06
2.81606e+06
3.5782e+06
3.52142e+06
3.46285e+06
3.40646e+06
3.35245e+06
3.30066e+06
3.25097e+06
3.20328e+06
3.15748e+06
3.11348e+06
3.0712e+06
3.0306e+06
2.99163e+06
2.9543e+06
2.91864e+06
2.88475e+06
2.8527e+06
2.82262e+06
3.57919e+06
3.5223e+06
3.46371e+06
3.40736e+06
3.35342e+06
3.30174e+06
3.2522e+06
3.20471e+06
3.15916e+06
3.11546e+06
3.07355e+06
3.03338e+06
2.99491e+06
2.95816e+06
2.92315e+06
2.88993e+06
2.85857e+06
2.82912e+06
3.58049e+06
3.52346e+06
3.46485e+06
3.40854e+06
3.35469e+06
3.30316e+06
3.25382e+06
3.20657e+06
3.16132e+06
3.11799e+06
3.07651e+06
3.03684e+06
2.99895e+06
2.96284e+06
2.92852e+06
2.896e+06
2.86533e+06
2.8365e+06
3.58218e+06
3.525e+06
3.46635e+06
3.41009e+06
3.35636e+06
3.30501e+06
3.25591e+06
3.20897e+06
3.16408e+06
3.12119e+06
3.08021e+06
3.04111e+06
3.00385e+06
2.96842e+06
2.93481e+06
2.903e+06
2.873e+06
2.84478e+06
3.58429e+06
3.52698e+06
3.46829e+06
3.4121e+06
3.35852e+06
3.30739e+06
3.25859e+06
3.21201e+06
3.16755e+06
3.12515e+06
3.08474e+06
3.04626e+06
3.00967e+06
2.97494e+06
2.94204e+06
2.91093e+06
2.88158e+06
2.85394e+06
3.58696e+06
3.52946e+06
3.47074e+06
3.41464e+06
3.36125e+06
3.31039e+06
3.26194e+06
3.21577e+06
3.17181e+06
3.12996e+06
3.09015e+06
3.05232e+06
3.01642e+06
2.98238e+06
2.95016e+06
2.91971e+06
2.89097e+06
2.86387e+06
3.59001e+06
3.53241e+06
3.47372e+06
3.41775e+06
3.36459e+06
3.31405e+06
3.26599e+06
3.22029e+06
3.17685e+06
3.13558e+06
3.09639e+06
3.05921e+06
3.02397e+06
2.99059e+06
2.95901e+06
2.92916e+06
2.90097e+06
2.87436e+06
3.59338e+06
3.53571e+06
3.47711e+06
3.42133e+06
3.36845e+06
3.31827e+06
3.27064e+06
3.22542e+06
3.18252e+06
3.14183e+06
3.10324e+06
3.06668e+06
3.03205e+06
2.99927e+06
2.96826e+06
2.93894e+06
2.91123e+06
2.88505e+06
3.59576e+06
3.53824e+06
3.47981e+06
3.42425e+06
3.37164e+06
3.32176e+06
3.27447e+06
3.22963e+06
3.18713e+06
3.14685e+06
3.10869e+06
3.07255e+06
3.03833e+06
3.00596e+06
2.97532e+06
2.94635e+06
2.91895e+06
2.89305e+06
3.59707e+06
3.53982e+06
3.48157e+06
3.4262e+06
3.37379e+06
3.32413e+06
3.27707e+06
3.23248e+06
3.19024e+06
3.15022e+06
3.11232e+06
3.07644e+06
3.04248e+06
3.01034e+06
2.97994e+06
2.95117e+06
2.92396e+06
2.89821e+06
3.59809e+06
3.54091e+06
3.48281e+06
3.4276e+06
3.37535e+06
3.32586e+06
3.27898e+06
3.23456e+06
3.1925e+06
3.15267e+06
3.11496e+06
3.07926e+06
3.04547e+06
3.01349e+06
2.98323e+06
2.95461e+06
2.92752e+06
2.90188e+06
3.59845e+06
3.54158e+06
3.48366e+06
3.42859e+06
3.37646e+06
3.3271e+06
3.28034e+06
3.23606e+06
3.19413e+06
3.15442e+06
3.11684e+06
3.08126e+06
3.04759e+06
3.01573e+06
2.98557e+06
2.95704e+06
2.93003e+06
2.90447e+06
3.59876e+06
3.54201e+06
3.48422e+06
3.42926e+06
3.37724e+06
3.32797e+06
3.28131e+06
3.23712e+06
3.19527e+06
3.15566e+06
3.11816e+06
3.08267e+06
3.04908e+06
3.01729e+06
2.98721e+06
2.95874e+06
2.93179e+06
2.90628e+06
3.5989e+06
3.54227e+06
3.48459e+06
3.42972e+06
3.37777e+06
3.32857e+06
3.28197e+06
3.23785e+06
3.19607e+06
3.15651e+06
3.11908e+06
3.08364e+06
3.05011e+06
3.01837e+06
2.98833e+06
2.9599e+06
2.93299e+06
2.90752e+06
3.59879e+06
3.54239e+06
3.48482e+06
3.43002e+06
3.37813e+06
3.32898e+06
3.28242e+06
3.23834e+06
3.1966e+06
3.15709e+06
3.11969e+06
3.08429e+06
3.05079e+06
3.01909e+06
2.98908e+06
2.96068e+06
2.9338e+06
2.90834e+06
3.59872e+06
3.54246e+06
3.48497e+06
3.43022e+06
3.37836e+06
3.32924e+06
3.28271e+06
3.23865e+06
3.19694e+06
3.15746e+06
3.12009e+06
3.08471e+06
3.05124e+06
3.01955e+06
2.98957e+06
2.96118e+06
2.93432e+06
2.90888e+06
3.5987e+06
3.5425e+06
3.48505e+06
3.43033e+06
3.3785e+06
3.32939e+06
3.28289e+06
3.23885e+06
3.19715e+06
3.15768e+06
3.12033e+06
3.08497e+06
3.05151e+06
3.01984e+06
2.98986e+06
2.96149e+06
2.93463e+06
2.9092e+06
3.5987e+06
3.54253e+06
3.4851e+06
3.43039e+06
3.37857e+06
3.32948e+06
3.28298e+06
3.23895e+06
3.19726e+06
3.1578e+06
3.12045e+06
3.08511e+06
3.05165e+06
3.01999e+06
2.99002e+06
2.96165e+06
2.9348e+06
2.90937e+06
3.5987e+06
3.54254e+06
3.48512e+06
3.43042e+06
3.3786e+06
3.32951e+06
3.28302e+06
3.23899e+06
3.19731e+06
3.15785e+06
3.12051e+06
3.08516e+06
3.05171e+06
3.02005e+06
2.99008e+06
2.96172e+06
2.93487e+06
2.90944e+06
2.32641e+06
2.32623e+06
2.32585e+06
2.32529e+06
2.32452e+06
2.32356e+06
2.3224e+06
2.32102e+06
2.31944e+06
2.31765e+06
2.31565e+06
2.31343e+06
2.31099e+06
2.30834e+06
2.30546e+06
2.30236e+06
2.29905e+06
2.29551e+06
2.29175e+06
2.28777e+06
2.28357e+06
2.27915e+06
2.27451e+06
2.26965e+06
2.26458e+06
2.25929e+06
2.25379e+06
2.24808e+06
2.24216e+06
2.23603e+06
2.22971e+06
2.22317e+06
2.21644e+06
2.20952e+06
2.2024e+06
2.19509e+06
2.18759e+06
2.17991e+06
2.17205e+06
2.16401e+06
2.15579e+06
2.1474e+06
2.13884e+06
2.13011e+06
2.12122e+06
2.11217e+06
2.10296e+06
2.0936e+06
2.08409e+06
2.07443e+06
2.06462e+06
2.05467e+06
2.04458e+06
2.03435e+06
2.02399e+06
2.01349e+06
2.00287e+06
1.99212e+06
1.98125e+06
1.97025e+06
1.95914e+06
1.94791e+06
1.93656e+06
1.92511e+06
1.91354e+06
1.90187e+06
1.89009e+06
1.87821e+06
1.86623e+06
1.85416e+06
1.84198e+06
1.82971e+06
1.81735e+06
1.8049e+06
1.79236e+06
1.77973e+06
1.76702e+06
1.75422e+06
1.74134e+06
1.72838e+06
1.71535e+06
1.70223e+06
1.68904e+06
1.67578e+06
1.66244e+06
1.64904e+06
1.63556e+06
1.62202e+06
1.60841e+06
1.59474e+06
1.581e+06
1.56721e+06
1.55335e+06
1.53943e+06
1.52546e+06
1.51143e+06
1.49734e+06
1.48321e+06
1.46902e+06
1.45477e+06
1.44048e+06
1.42614e+06
1.41176e+06
1.39733e+06
1.38285e+06
1.36833e+06
1.35377e+06
1.33917e+06
1.32453e+06
1.30985e+06
1.29514e+06
1.28039e+06
1.26561e+06
1.25079e+06
1.23595e+06
1.22108e+06
1.20618e+06
1.19125e+06
1.1763e+06
1.16133e+06
1.14633e+06
1.13131e+06
1.11628e+06
1.10123e+06
1.08616e+06
1.07108e+06
1.05599e+06
1.04088e+06
1.02577e+06
1.01065e+06
995529
980402
965273
950145
935019
919898
904783
889677
874581
859499
844431
829381
814350
799341
784357
769399
754470
739573
724711
709885
695099
680355
665656
651006
636407
621861
607373
592945
578581
564284
550057
535904
521828
507834
493925
480105
466379
452751
439226
425810
412507
399324
386268
373348
360573
347956
335514
323273
311276
299616
2.32725e+06
2.32706e+06
2.32669e+06
2.32612e+06
2.32535e+06
2.32438e+06
2.32321e+06
2.32183e+06
2.32024e+06
2.31844e+06
2.31642e+06
2.31419e+06
2.31174e+06
2.30907e+06
2.30618e+06
2.30307e+06
2.29974e+06
2.29619e+06
2.29241e+06
2.28841e+06
2.2842e+06
2.27976e+06
2.2751e+06
2.27022e+06
2.26513e+06
2.25983e+06
2.25431e+06
2.24858e+06
2.24264e+06
2.2365e+06
2.23015e+06
2.22361e+06
2.21686e+06
2.20992e+06
2.20278e+06
2.19546e+06
2.18794e+06
2.18025e+06
2.17237e+06
2.16431e+06
2.15608e+06
2.14768e+06
2.13911e+06
2.13037e+06
2.12147e+06
2.1124e+06
2.10319e+06
2.09381e+06
2.08429e+06
2.07462e+06
2.0648e+06
2.05484e+06
2.04474e+06
2.0345e+06
2.02413e+06
2.01363e+06
2.003e+06
1.99224e+06
1.98136e+06
1.97036e+06
1.95924e+06
1.94801e+06
1.93666e+06
1.92519e+06
1.91362e+06
1.90195e+06
1.89017e+06
1.87828e+06
1.8663e+06
1.85422e+06
1.84204e+06
1.82977e+06
1.8174e+06
1.80495e+06
1.7924e+06
1.77977e+06
1.76706e+06
1.75426e+06
1.74138e+06
1.72842e+06
1.71538e+06
1.70226e+06
1.68907e+06
1.67581e+06
1.66247e+06
1.64906e+06
1.63559e+06
1.62204e+06
1.60843e+06
1.59476e+06
1.58102e+06
1.56722e+06
1.55336e+06
1.53945e+06
1.52547e+06
1.51144e+06
1.49735e+06
1.48322e+06
1.46902e+06
1.45478e+06
1.44049e+06
1.42615e+06
1.41176e+06
1.39733e+06
1.38285e+06
1.36834e+06
1.35377e+06
1.33917e+06
1.32453e+06
1.30985e+06
1.29514e+06
1.28039e+06
1.26561e+06
1.2508e+06
1.23595e+06
1.22108e+06
1.20618e+06
1.19125e+06
1.1763e+06
1.16133e+06
1.14633e+06
1.13131e+06
1.11628e+06
1.10123e+06
1.08616e+06
1.07108e+06
1.05599e+06
1.04088e+06
1.02577e+06
1.01065e+06
995530
980402
965273
950145
935019
919898
904783
889677
874581
859499
844431
829381
814350
799341
784357
769399
754470
739573
724711
709885
695099
680355
665656
651006
636407
621861
607373
592945
578581
564283
550056
535903
521828
507833
493924
480104
466378
452750
439225
425808
412504
399321
386264
373342
360566
347946
335500
323251
311236
299521
2.32894e+06
2.32875e+06
2.32837e+06
2.32779e+06
2.32701e+06
2.32603e+06
2.32484e+06
2.32345e+06
2.32184e+06
2.32002e+06
2.31798e+06
2.31573e+06
2.31325e+06
2.31055e+06
2.30763e+06
2.30449e+06
2.30113e+06
2.29754e+06
2.29373e+06
2.2897e+06
2.28545e+06
2.28098e+06
2.27628e+06
2.27137e+06
2.26625e+06
2.2609e+06
2.25535e+06
2.24958e+06
2.24361e+06
2.23743e+06
2.23105e+06
2.22447e+06
2.21769e+06
2.21071e+06
2.20355e+06
2.19619e+06
2.18865e+06
2.18092e+06
2.17301e+06
2.16493e+06
2.15667e+06
2.14824e+06
2.13964e+06
2.13088e+06
2.12195e+06
2.11287e+06
2.10363e+06
2.09423e+06
2.08469e+06
2.075e+06
2.06516e+06
2.05518e+06
2.04507e+06
2.03481e+06
2.02443e+06
2.01391e+06
2.00326e+06
1.99249e+06
1.9816e+06
1.97058e+06
1.95945e+06
1.9482e+06
1.93684e+06
1.92537e+06
1.91379e+06
1.9021e+06
1.89031e+06
1.87842e+06
1.86643e+06
1.85434e+06
1.84216e+06
1.82988e+06
1.81751e+06
1.80504e+06
1.79249e+06
1.77986e+06
1.76714e+06
1.75433e+06
1.74145e+06
1.72848e+06
1.71544e+06
1.70232e+06
1.68913e+06
1.67586e+06
1.66252e+06
1.64911e+06
1.63563e+06
1.62208e+06
1.60847e+06
1.59479e+06
1.58105e+06
1.56725e+06
1.55339e+06
1.53947e+06
1.52549e+06
1.51146e+06
1.49737e+06
1.48323e+06
1.46904e+06
1.4548e+06
1.44051e+06
1.42616e+06
1.41178e+06
1.39734e+06
1.38287e+06
1.36835e+06
1.35378e+06
1.33918e+06
1.32454e+06
1.30986e+06
1.29515e+06
1.2804e+06
1.26562e+06
1.2508e+06
1.23596e+06
1.22108e+06
1.20618e+06
1.19126e+06
1.1763e+06
1.16133e+06
1.14633e+06
1.13132e+06
1.11628e+06
1.10123e+06
1.08616e+06
1.07108e+06
1.05599e+06
1.04089e+06
1.02577e+06
1.01065e+06
995530
980403
965274
950146
935020
919898
904784
889677
874582
859499
844431
829381
814350
799342
784357
769399
754470
739574
724711
709885
695099
680355
665656
651006
636407
621861
607373
592945
578581
564283
550056
535903
521827
507833
493923
480103
466377
452748
439222
425804
412500
399315
386256
373332
360552
347927
335472
323208
311162
299372
2.33148e+06
2.33129e+06
2.3309e+06
2.33031e+06
2.32951e+06
2.32852e+06
2.32731e+06
2.32589e+06
2.32425e+06
2.3224e+06
2.32033e+06
2.31803e+06
2.31552e+06
2.31278e+06
2.30982e+06
2.30663e+06
2.30322e+06
2.29958e+06
2.29572e+06
2.29164e+06
2.28733e+06
2.28281e+06
2.27806e+06
2.27309e+06
2.26791e+06
2.26252e+06
2.25691e+06
2.25109e+06
2.24506e+06
2.23883e+06
2.2324e+06
2.22576e+06
2.21893e+06
2.21191e+06
2.20469e+06
2.19729e+06
2.1897e+06
2.18193e+06
2.17398e+06
2.16585e+06
2.15755e+06
2.14908e+06
2.14044e+06
2.13164e+06
2.12268e+06
2.11356e+06
2.10429e+06
2.09486e+06
2.08529e+06
2.07556e+06
2.0657e+06
2.05569e+06
2.04555e+06
2.03527e+06
2.02486e+06
2.01432e+06
2.00365e+06
1.99286e+06
1.98195e+06
1.97091e+06
1.95976e+06
1.9485e+06
1.93712e+06
1.92563e+06
1.91404e+06
1.90234e+06
1.89054e+06
1.87863e+06
1.86663e+06
1.85453e+06
1.84233e+06
1.83004e+06
1.81766e+06
1.80519e+06
1.79263e+06
1.77999e+06
1.76726e+06
1.75445e+06
1.74155e+06
1.72858e+06
1.71553e+06
1.70241e+06
1.68921e+06
1.67593e+06
1.66259e+06
1.64917e+06
1.63569e+06
1.62214e+06
1.60852e+06
1.59484e+06
1.5811e+06
1.56729e+06
1.55343e+06
1.53951e+06
1.52553e+06
1.51149e+06
1.49741e+06
1.48326e+06
1.46907e+06
1.45482e+06
1.44053e+06
1.42619e+06
1.4118e+06
1.39736e+06
1.38288e+06
1.36836e+06
1.3538e+06
1.33919e+06
1.32455e+06
1.30987e+06
1.29516e+06
1.28041e+06
1.26562e+06
1.25081e+06
1.23596e+06
1.22109e+06
1.20619e+06
1.19126e+06
1.17631e+06
1.16133e+06
1.14634e+06
1.13132e+06
1.11629e+06
1.10123e+06
1.08617e+06
1.07109e+06
1.05599e+06
1.04089e+06
1.02578e+06
1.01066e+06
995532
980404
965275
950147
935021
919899
904784
889678
874582
859500
844432
829382
814351
799342
784357
769399
754471
739574
724711
709885
695099
680355
665657
651006
636407
621861
607373
592945
578580
564283
550056
535902
521826
507831
493922
480101
466374
452745
439218
425799
412493
399306
386245
373317
360531
347899
335432
323147
311065
299199
2.3349e+06
2.3347e+06
2.33429e+06
2.33369e+06
2.33287e+06
2.33185e+06
2.33061e+06
2.32916e+06
2.32748e+06
2.32559e+06
2.32347e+06
2.32112e+06
2.31856e+06
2.31576e+06
2.31274e+06
2.30949e+06
2.30601e+06
2.30231e+06
2.29838e+06
2.29423e+06
2.28985e+06
2.28525e+06
2.28043e+06
2.27539e+06
2.27013e+06
2.26466e+06
2.25898e+06
2.25309e+06
2.24699e+06
2.24069e+06
2.23419e+06
2.22748e+06
2.22058e+06
2.21349e+06
2.20621e+06
2.19875e+06
2.19109e+06
2.18326e+06
2.17525e+06
2.16707e+06
2.15872e+06
2.15019e+06
2.14151e+06
2.13266e+06
2.12365e+06
2.11448e+06
2.10516e+06
2.09569e+06
2.08608e+06
2.07632e+06
2.06641e+06
2.05637e+06
2.04619e+06
2.03588e+06
2.02544e+06
2.01487e+06
2.00417e+06
1.99335e+06
1.98241e+06
1.97135e+06
1.96018e+06
1.94889e+06
1.93749e+06
1.92598e+06
1.91437e+06
1.90265e+06
1.89083e+06
1.87891e+06
1.86689e+06
1.85477e+06
1.84256e+06
1.83026e+06
1.81786e+06
1.80538e+06
1.79281e+06
1.78016e+06
1.76742e+06
1.7546e+06
1.74169e+06
1.72871e+06
1.71566e+06
1.70252e+06
1.68932e+06
1.67604e+06
1.66268e+06
1.64926e+06
1.63577e+06
1.62222e+06
1.60859e+06
1.59491e+06
1.58116e+06
1.56735e+06
1.55349e+06
1.53956e+06
1.52558e+06
1.51154e+06
1.49745e+06
1.4833e+06
1.4691e+06
1.45486e+06
1.44056e+06
1.42621e+06
1.41182e+06
1.39738e+06
1.3829e+06
1.36838e+06
1.35381e+06
1.33921e+06
1.32457e+06
1.30989e+06
1.29517e+06
1.28042e+06
1.26563e+06
1.25082e+06
1.23597e+06
1.2211e+06
1.2062e+06
1.19127e+06
1.17631e+06
1.16134e+06
1.14634e+06
1.13133e+06
1.11629e+06
1.10124e+06
1.08617e+06
1.07109e+06
1.05599e+06
1.04089e+06
1.02578e+06
1.01066e+06
995534
980406
965277
950148
935022
919900
904785
889679
874583
859500
844433
829382
814351
799342
784358
769400
754471
739574
724711
709885
695099
680355
665657
651006
636407
621861
607373
592945
578580
564282
550055
535901
521825
507830
493920
480099
466371
452741
439213
425792
412484
399294
386230
373297
360505
347863
335381
323073
310952
299018
2.33921e+06
2.339e+06
2.33858e+06
2.33795e+06
2.33711e+06
2.33605e+06
2.33478e+06
2.33328e+06
2.33155e+06
2.3296e+06
2.32742e+06
2.32501e+06
2.32238e+06
2.31951e+06
2.31641e+06
2.31308e+06
2.30952e+06
2.30573e+06
2.30171e+06
2.29747e+06
2.293e+06
2.28831e+06
2.28339e+06
2.27826e+06
2.27291e+06
2.26735e+06
2.26157e+06
2.25559e+06
2.2494e+06
2.24301e+06
2.23642e+06
2.22963e+06
2.22264e+06
2.21547e+06
2.20811e+06
2.20056e+06
2.19283e+06
2.18493e+06
2.17684e+06
2.16859e+06
2.16017e+06
2.15158e+06
2.14283e+06
2.13392e+06
2.12485e+06
2.11562e+06
2.10625e+06
2.09673e+06
2.08706e+06
2.07725e+06
2.0673e+06
2.05721e+06
2.04699e+06
2.03664e+06
2.02616e+06
2.01555e+06
2.00481e+06
1.99396e+06
1.98298e+06
1.97189e+06
1.96069e+06
1.94937e+06
1.93795e+06
1.92641e+06
1.91478e+06
1.90303e+06
1.89119e+06
1.87925e+06
1.86721e+06
1.85507e+06
1.84284e+06
1.83053e+06
1.81812e+06
1.80562e+06
1.79303e+06
1.78037e+06
1.76761e+06
1.75478e+06
1.74187e+06
1.72888e+06
1.71581e+06
1.70267e+06
1.68945e+06
1.67616e+06
1.6628e+06
1.64937e+06
1.63587e+06
1.62231e+06
1.60868e+06
1.59499e+06
1.58124e+06
1.56743e+06
1.55355e+06
1.53962e+06
1.52563e+06
1.51159e+06
1.4975e+06
1.48335e+06
1.46915e+06
1.4549e+06
1.4406e+06
1.42625e+06
1.41185e+06
1.39741e+06
1.38293e+06
1.3684e+06
1.35384e+06
1.33923e+06
1.32459e+06
1.3099e+06
1.29518e+06
1.28043e+06
1.26565e+06
1.25083e+06
1.23598e+06
1.22111e+06
1.2062e+06
1.19128e+06
1.17632e+06
1.16135e+06
1.14635e+06
1.13133e+06
1.11629e+06
1.10124e+06
1.08617e+06
1.07109e+06
1.056e+06
1.04089e+06
1.02578e+06
1.01066e+06
995536
980408
965278
950149
935023
919901
904786
889680
874584
859501
844433
829383
814352
799343
784358
769400
754472
739575
724712
709886
695100
680356
665657
651006
636407
621861
607372
592944
578580
564282
550054
535900
521823
507828
493917
480095
466367
452735
439206
425784
412473
399281
386212
373273
360473
347820
335322
322989
310828
298834
2.34444e+06
2.34422e+06
2.34378e+06
2.34313e+06
2.34225e+06
2.34115e+06
2.33982e+06
2.33827e+06
2.33648e+06
2.33446e+06
2.33221e+06
2.32972e+06
2.32699e+06
2.32403e+06
2.32084e+06
2.31741e+06
2.31375e+06
2.30985e+06
2.30572e+06
2.30137e+06
2.29679e+06
2.29198e+06
2.28695e+06
2.28171e+06
2.27624e+06
2.27057e+06
2.26468e+06
2.25858e+06
2.25228e+06
2.24578e+06
2.23908e+06
2.23219e+06
2.2251e+06
2.21783e+06
2.21037e+06
2.20273e+06
2.19491e+06
2.18691e+06
2.17874e+06
2.1704e+06
2.1619e+06
2.15323e+06
2.1444e+06
2.13542e+06
2.12628e+06
2.11699e+06
2.10755e+06
2.09796e+06
2.08823e+06
2.07836e+06
2.06836e+06
2.05822e+06
2.04794e+06
2.03754e+06
2.02701e+06
2.01635e+06
2.00558e+06
1.99468e+06
1.98367e+06
1.97254e+06
1.9613e+06
1.94995e+06
1.93849e+06
1.92693e+06
1.91526e+06
1.90349e+06
1.89162e+06
1.87965e+06
1.86759e+06
1.85543e+06
1.84318e+06
1.83084e+06
1.81842e+06
1.8059e+06
1.7933e+06
1.78062e+06
1.76785e+06
1.755e+06
1.74208e+06
1.72907e+06
1.71599e+06
1.70284e+06
1.68961e+06
1.67631e+06
1.66294e+06
1.6495e+06
1.636e+06
1.62243e+06
1.60879e+06
1.59509e+06
1.58133e+06
1.56751e+06
1.55363e+06
1.5397e+06
1.5257e+06
1.51166e+06
1.49756e+06
1.4834e+06
1.4692e+06
1.45494e+06
1.44064e+06
1.42629e+06
1.41189e+06
1.39745e+06
1.38296e+06
1.36843e+06
1.35386e+06
1.33925e+06
1.32461e+06
1.30992e+06
1.2952e+06
1.28045e+06
1.26566e+06
1.25084e+06
1.236e+06
1.22112e+06
1.20622e+06
1.19129e+06
1.17633e+06
1.16135e+06
1.14636e+06
1.13134e+06
1.1163e+06
1.10125e+06
1.08618e+06
1.0711e+06
1.056e+06
1.0409e+06
1.02578e+06
1.01066e+06
995538
980410
965280
950151
935025
919903
904788
889681
874585
859502
844434
829384
814353
799344
784359
769401
754472
739575
724712
709886
695100
680356
665657
651006
636407
621861
607372
592944
578579
564281
550053
535899
521822
507826
493914
480092
466362
452729
439198
425774
412461
399264
386191
373246
360437
347772
335257
322898
310700
298654
2.35063e+06
2.35039e+06
2.34993e+06
2.34924e+06
2.34833e+06
2.34717e+06
2.34579e+06
2.34416e+06
2.3423e+06
2.34019e+06
2.33784e+06
2.33526e+06
2.33243e+06
2.32935e+06
2.32604e+06
2.32249e+06
2.3187e+06
2.31468e+06
2.31042e+06
2.30593e+06
2.30122e+06
2.29627e+06
2.29111e+06
2.28573e+06
2.28013e+06
2.27432e+06
2.26829e+06
2.26207e+06
2.25564e+06
2.24901e+06
2.24218e+06
2.23516e+06
2.22796e+06
2.22057e+06
2.21299e+06
2.20524e+06
2.19731e+06
2.18921e+06
2.18094e+06
2.1725e+06
2.1639e+06
2.15514e+06
2.14622e+06
2.13715e+06
2.12793e+06
2.11856e+06
2.10904e+06
2.09938e+06
2.08959e+06
2.07965e+06
2.06958e+06
2.05937e+06
2.04904e+06
2.03858e+06
2.02799e+06
2.01729e+06
2.00646e+06
1.99552e+06
1.98446e+06
1.97329e+06
1.96201e+06
1.95062e+06
1.93912e+06
1.92752e+06
1.91582e+06
1.90402e+06
1.89212e+06
1.88012e+06
1.86803e+06
1.85585e+06
1.84357e+06
1.83121e+06
1.81876e+06
1.80623e+06
1.79361e+06
1.7809e+06
1.76812e+06
1.75526e+06
1.74231e+06
1.7293e+06
1.7162e+06
1.70304e+06
1.68979e+06
1.67648e+06
1.6631e+06
1.64965e+06
1.63614e+06
1.62256e+06
1.60891e+06
1.5952e+06
1.58144e+06
1.56761e+06
1.55372e+06
1.53978e+06
1.52578e+06
1.51173e+06
1.49762e+06
1.48347e+06
1.46926e+06
1.455e+06
1.44069e+06
1.42633e+06
1.41193e+06
1.39749e+06
1.383e+06
1.36847e+06
1.35389e+06
1.33928e+06
1.32463e+06
1.30995e+06
1.29523e+06
1.28047e+06
1.26568e+06
1.25086e+06
1.23601e+06
1.22113e+06
1.20623e+06
1.1913e+06
1.17634e+06
1.16136e+06
1.14636e+06
1.13135e+06
1.11631e+06
1.10125e+06
1.08618e+06
1.0711e+06
1.05601e+06
1.0409e+06
1.02579e+06
1.01067e+06
995541
980413
965283
950154
935027
919905
904789
889683
874587
859503
844436
829385
814354
799345
784360
769402
754473
739576
724713
709887
695100
680356
665657
651006
636407
621861
607372
592944
578578
564280
550052
535897
521820
507823
493911
480088
466357
452723
439190
425763
412447
399246
386168
373216
360398
347719
335186
322803
310570
298478
2.35782e+06
2.35757e+06
2.35707e+06
2.35635e+06
2.35538e+06
2.35416e+06
2.3527e+06
2.35099e+06
2.34903e+06
2.34682e+06
2.34436e+06
2.34165e+06
2.33869e+06
2.33549e+06
2.33203e+06
2.32834e+06
2.3244e+06
2.32022e+06
2.31581e+06
2.31116e+06
2.30629e+06
2.30119e+06
2.29586e+06
2.29032e+06
2.28456e+06
2.27859e+06
2.27241e+06
2.26603e+06
2.25945e+06
2.25267e+06
2.2457e+06
2.23854e+06
2.2312e+06
2.22367e+06
2.21597e+06
2.20808e+06
2.20003e+06
2.19181e+06
2.18342e+06
2.17487e+06
2.16616e+06
2.1573e+06
2.14828e+06
2.13911e+06
2.1298e+06
2.12034e+06
2.11074e+06
2.10099e+06
2.09112e+06
2.0811e+06
2.07096e+06
2.06068e+06
2.05028e+06
2.03976e+06
2.02911e+06
2.01834e+06
2.00746e+06
1.99646e+06
1.98535e+06
1.97413e+06
1.9628e+06
1.95137e+06
1.93983e+06
1.92819e+06
1.91645e+06
1.90461e+06
1.89268e+06
1.88065e+06
1.86853e+06
1.85632e+06
1.84402e+06
1.83163e+06
1.81915e+06
1.80659e+06
1.79395e+06
1.78123e+06
1.76842e+06
1.75554e+06
1.74258e+06
1.72955e+06
1.71644e+06
1.70326e+06
1.69e+06
1.67668e+06
1.66329e+06
1.64982e+06
1.6363e+06
1.6227e+06
1.60905e+06
1.59533e+06
1.58156e+06
1.56772e+06
1.55383e+06
1.53988e+06
1.52587e+06
1.51181e+06
1.4977e+06
1.48354e+06
1.46932e+06
1.45506e+06
1.44075e+06
1.42639e+06
1.41198e+06
1.39753e+06
1.38304e+06
1.3685e+06
1.35393e+06
1.33932e+06
1.32466e+06
1.30997e+06
1.29525e+06
1.28049e+06
1.2657e+06
1.25088e+06
1.23603e+06
1.22115e+06
1.20624e+06
1.19131e+06
1.17635e+06
1.16137e+06
1.14637e+06
1.13135e+06
1.11632e+06
1.10126e+06
1.08619e+06
1.07111e+06
1.05601e+06
1.04091e+06
1.02579e+06
1.01067e+06
995545
980416
965286
950156
935029
919907
904791
889684
874588
859505
844437
829386
814355
799346
784361
769403
754474
739576
724713
709887
695101
680357
665658
651007
636407
621861
607372
592943
578578
564279
550051
535896
521818
507820
493907
480083
466351
452715
439180
425751
412431
399227
386142
373183
360355
347664
335113
322706
310441
298309
2.36607e+06
2.36579e+06
2.36527e+06
2.36449e+06
2.36345e+06
2.36216e+06
2.36061e+06
2.3588e+06
2.35672e+06
2.35439e+06
2.35179e+06
2.34894e+06
2.34583e+06
2.34246e+06
2.33884e+06
2.33497e+06
2.33085e+06
2.3265e+06
2.3219e+06
2.31707e+06
2.31201e+06
2.30672e+06
2.30121e+06
2.29548e+06
2.28954e+06
2.28339e+06
2.27703e+06
2.27048e+06
2.26372e+06
2.25678e+06
2.24964e+06
2.24232e+06
2.23482e+06
2.22714e+06
2.21928e+06
2.21126e+06
2.20306e+06
2.19471e+06
2.18619e+06
2.17752e+06
2.16869e+06
2.1597e+06
2.15057e+06
2.1413e+06
2.13188e+06
2.12232e+06
2.11262e+06
2.10279e+06
2.09282e+06
2.08272e+06
2.07249e+06
2.06214e+06
2.05166e+06
2.04106e+06
2.03035e+06
2.01951e+06
2.00857e+06
1.99751e+06
1.98634e+06
1.97507e+06
1.96369e+06
1.95221e+06
1.94062e+06
1.92894e+06
1.91715e+06
1.90528e+06
1.8933e+06
1.88124e+06
1.86908e+06
1.85684e+06
1.84451e+06
1.83209e+06
1.81959e+06
1.807e+06
1.79433e+06
1.78159e+06
1.76876e+06
1.75586e+06
1.74288e+06
1.72983e+06
1.7167e+06
1.70351e+06
1.69024e+06
1.6769e+06
1.66349e+06
1.65001e+06
1.63647e+06
1.62287e+06
1.6092e+06
1.59548e+06
1.58169e+06
1.56784e+06
1.55394e+06
1.53999e+06
1.52597e+06
1.51191e+06
1.49779e+06
1.48362e+06
1.4694e+06
1.45513e+06
1.44081e+06
1.42645e+06
1.41204e+06
1.39758e+06
1.38309e+06
1.36855e+06
1.35397e+06
1.33935e+06
1.3247e+06
1.31e+06
1.29528e+06
1.28052e+06
1.26572e+06
1.2509e+06
1.23605e+06
1.22117e+06
1.20626e+06
1.19132e+06
1.17637e+06
1.16139e+06
1.14639e+06
1.13136e+06
1.11632e+06
1.10127e+06
1.0862e+06
1.07111e+06
1.05602e+06
1.04091e+06
1.0258e+06
1.01067e+06
995549
980419
965289
950159
935032
919909
904793
889686
874590
859506
844438
829387
814356
799347
784362
769404
754475
739577
724714
709888
695101
680357
665658
651007
636407
621861
607372
592943
578577
564278
550049
535894
521815
507817
493904
480078
466345
452707
439170
425738
412415
399206
386116
373149
360311
347606
335038
322607
310314
298147
2.37544e+06
2.37514e+06
2.37457e+06
2.37373e+06
2.37262e+06
2.37123e+06
2.36957e+06
2.36763e+06
2.36542e+06
2.36293e+06
2.36017e+06
2.35714e+06
2.35385e+06
2.35029e+06
2.34647e+06
2.3424e+06
2.33807e+06
2.3335e+06
2.32869e+06
2.32365e+06
2.31837e+06
2.31287e+06
2.30714e+06
2.30121e+06
2.29505e+06
2.2887e+06
2.28214e+06
2.27538e+06
2.26844e+06
2.2613e+06
2.25398e+06
2.24648e+06
2.2388e+06
2.23095e+06
2.22293e+06
2.21475e+06
2.2064e+06
2.19789e+06
2.18923e+06
2.18042e+06
2.17146e+06
2.16234e+06
2.15309e+06
2.1437e+06
2.13416e+06
2.12449e+06
2.11469e+06
2.10475e+06
2.09469e+06
2.08449e+06
2.07418e+06
2.06374e+06
2.05318e+06
2.0425e+06
2.03171e+06
2.0208e+06
2.00978e+06
1.99866e+06
1.98743e+06
1.97609e+06
1.96466e+06
1.95312e+06
1.94148e+06
1.92975e+06
1.91792e+06
1.906e+06
1.89399e+06
1.88188e+06
1.86969e+06
1.85741e+06
1.84504e+06
1.83259e+06
1.82006e+06
1.80745e+06
1.79475e+06
1.78198e+06
1.76913e+06
1.75621e+06
1.74321e+06
1.73014e+06
1.71699e+06
1.70378e+06
1.69049e+06
1.67713e+06
1.66371e+06
1.65022e+06
1.63667e+06
1.62305e+06
1.60937e+06
1.59563e+06
1.58183e+06
1.56798e+06
1.55407e+06
1.5401e+06
1.52608e+06
1.51201e+06
1.49788e+06
1.48371e+06
1.46948e+06
1.4552e+06
1.44088e+06
1.42651e+06
1.4121e+06
1.39764e+06
1.38314e+06
1.36859e+06
1.35401e+06
1.33939e+06
1.32473e+06
1.31004e+06
1.29531e+06
1.28054e+06
1.26575e+06
1.25092e+06
1.23607e+06
1.22119e+06
1.20628e+06
1.19134e+06
1.17638e+06
1.1614e+06
1.1464e+06
1.13137e+06
1.11633e+06
1.10128e+06
1.08621e+06
1.07112e+06
1.05602e+06
1.04092e+06
1.0258e+06
1.01068e+06
995553
980423
965292
950162
935034
919912
904796
889688
874592
859508
844440
829389
814358
799348
784363
769405
754476
739578
724715
709889
695102
680357
665658
651007
636407
621861
607371
592942
578576
564277
550048
535892
521813
507814
493900
480073
466338
452699
439160
425725
412398
399184
386088
373113
360265
347547
334962
322510
310190
297993
2.38602e+06
2.38568e+06
2.38506e+06
2.38415e+06
2.38294e+06
2.38144e+06
2.37964e+06
2.37755e+06
2.37517e+06
2.3725e+06
2.36954e+06
2.3663e+06
2.36279e+06
2.359e+06
2.35495e+06
2.35064e+06
2.34607e+06
2.34125e+06
2.3362e+06
2.3309e+06
2.32538e+06
2.31963e+06
2.31367e+06
2.30749e+06
2.3011e+06
2.29451e+06
2.28773e+06
2.28075e+06
2.27359e+06
2.26624e+06
2.25871e+06
2.25101e+06
2.24314e+06
2.2351e+06
2.2269e+06
2.21854e+06
2.21002e+06
2.20135e+06
2.19254e+06
2.18357e+06
2.17446e+06
2.16521e+06
2.15582e+06
2.14629e+06
2.13663e+06
2.12684e+06
2.11692e+06
2.10688e+06
2.09671e+06
2.08641e+06
2.076e+06
2.06546e+06
2.05481e+06
2.04405e+06
2.03317e+06
2.02219e+06
2.0111e+06
1.9999e+06
1.9886e+06
1.97721e+06
1.96571e+06
1.95411e+06
1.94242e+06
1.93063e+06
1.91875e+06
1.90678e+06
1.89473e+06
1.88258e+06
1.87034e+06
1.85802e+06
1.84562e+06
1.83314e+06
1.82057e+06
1.80793e+06
1.79521e+06
1.78241e+06
1.76954e+06
1.75659e+06
1.74357e+06
1.73047e+06
1.71731e+06
1.70407e+06
1.69077e+06
1.67739e+06
1.66395e+06
1.65045e+06
1.63688e+06
1.62324e+06
1.60955e+06
1.5958e+06
1.58199e+06
1.56813e+06
1.55421e+06
1.54023e+06
1.5262e+06
1.51212e+06
1.49799e+06
1.4838e+06
1.46957e+06
1.45529e+06
1.44096e+06
1.42658e+06
1.41216e+06
1.3977e+06
1.38319e+06
1.36864e+06
1.35406e+06
1.33943e+06
1.32477e+06
1.31007e+06
1.29534e+06
1.28057e+06
1.26578e+06
1.25095e+06
1.23609e+06
1.22121e+06
1.20629e+06
1.19136e+06
1.1764e+06
1.16141e+06
1.14641e+06
1.13139e+06
1.11634e+06
1.10129e+06
1.08621e+06
1.07113e+06
1.05603e+06
1.04092e+06
1.02581e+06
1.01068e+06
995557
980427
965296
950165
935037
919914
904798
889691
874594
859510
844442
829391
814359
799350
784364
769406
754477
739579
724716
709889
695102
680358
665659
651007
636407
621861
607371
592942
578576
564276
550047
535890
521810
507811
493896
480068
466331
452690
439149
425711
412380
399162
386059
373077
360219
347488
334887
322415
310071
297848
2.3979e+06
2.39753e+06
2.39684e+06
2.39584e+06
2.39451e+06
2.39287e+06
2.39091e+06
2.38863e+06
2.38604e+06
2.38315e+06
2.37995e+06