/*--------------------------------*- C++ -*----------------------------------*\
  =========                 |
  \\      /  F ield         | OpenFOAM: The Open Source CFD Toolbox
   \\    /   O peration     | Website:  https://openfoam.org
    \\  /    A nd           | Version:  7
     \\/     M anipulation  |
\*---------------------------------------------------------------------------*/
FoamFile
{
    version     2.0;
    format      ascii;
    class       volVectorField;
    location    "0.101";
    object      U_0;
}
// * * * * * * * * * * * * * * * * * * * * * * * * * * * * * * * * * * * * * //

dimensions      [0 1 -1 0 0 0 0];

internalField   nonuniform List<vector> 
12225
(
(4.76184 0.17371 0)
(4.11342 0.112873 0)
(3.64893 0.0930274 0)
(3.29212 0.0802728 0)
(2.93087 0.0742513 0)
(2.57621 0.0672396 0)
(2.24877 0.0611716 0)
(1.94463 0.05479 0)
(1.66571 0.044198 0)
(1.42183 0.0312829 0)
(1.21137 0.0215549 0)
(1.0332 0.0164025 0)
(0.878412 0.0125728 0)
(0.750841 0.00878975 0)
(0.630695 0.00408749 0)
(0.54783 0.00328027 0)
(0.42991 -0.000598397 0)
(0.390977 -0.0146459 0)
(4.99538 0.103664 0)
(4.86396 0.0832268 0)
(4.73482 0.0960228 0)
(4.64234 0.0949589 0)
(4.53261 0.101263 0)
(4.39687 0.102733 0)
(4.25357 0.0990085 0)
(4.1166 0.0980306 0)
(3.98224 0.100285 0)
(3.8441 0.100778 0)
(3.69097 0.0966952 0)
(3.53062 0.090225 0)
(3.36072 0.0838223 0)
(3.2029 0.0786751 0)
(3.03716 0.074568 0)
(2.90454 0.068912 0)
(2.73314 0.0681183 0)
(2.61504 0.058117 0)
(4.98889 0.173273 0)
(4.9124 0.120306 0)
(4.8349 0.127346 0)
(4.76696 0.126447 0)
(4.73705 0.132911 0)
(4.72819 0.138338 0)
(4.71515 0.136376 0)
(4.69511 0.132808 0)
(4.67121 0.131013 0)
(4.64095 0.129659 0)
(4.5956 0.127791 0)
(4.5353 0.126032 0)
(4.46364 0.124577 0)
(4.38957 0.123656 0)
(4.31302 0.12098 0)
(4.23844 0.118156 0)
(4.16158 0.120929 0)
(4.07514 0.116217 0)
(5.03634 0.17553 0)
(4.96086 0.11961 0)
(4.8465 0.13934 0)
(4.75668 0.136797 0)
(4.71567 0.125964 0)
(4.71396 0.118303 0)
(4.72705 0.112661 0)
(4.74009 0.11119 0)
(4.74858 0.115101 0)
(4.74829 0.122337 0)
(4.73591 0.12991 0)
(4.71264 0.135753 0)
(4.68604 0.138806 0)
(4.66048 0.138673 0)
(4.64011 0.136244 0)
(4.61803 0.133563 0)
(4.59915 0.135346 0)
(4.57173 0.137488 0)
(5.05533 0.239877 0)
(4.93456 0.15521 0)
(4.87029 0.157616 0)
(4.82641 0.154607 0)
(4.79489 0.142515 0)
(4.77115 0.130825 0)
(4.7492 0.122149 0)
(4.72726 0.120316 0)
(4.70922 0.125593 0)
(4.69649 0.133697 0)
(4.68837 0.140274 0)
(4.68418 0.143134 0)
(4.68578 0.142434 0)
(4.69221 0.139634 0)
(4.70213 0.136904 0)
(4.70829 0.136001 0)
(4.7117 0.140469 0)
(4.70734 0.147922 0)
(4.98465 0.248656 0)
(4.94374 0.156417 0)
(4.88968 0.153661 0)
(4.8524 0.157159 0)
(4.83211 0.150522 0)
(4.8155 0.141039 0)
(4.79192 0.131902 0)
(4.76402 0.127447 0)
(4.73927 0.129317 0)
(4.72036 0.134393 0)
(4.7067 0.138626 0)
(4.69773 0.139609 0)
(4.69516 0.137375 0)
(4.69894 0.133617 0)
(4.70888 0.130808 0)
(4.71975 0.13118 0)
(4.73132 0.136899 0)
(4.739 0.146153 0)
(5.0533 0.277223 0)
(4.99596 0.206437 0)
(4.93917 0.189039 0)
(4.88184 0.174789 0)
(4.84248 0.159872 0)
(4.82275 0.148313 0)
(4.81426 0.13969 0)
(4.80928 0.136571 0)
(4.80281 0.13962 0)
(4.79183 0.144736 0)
(4.77682 0.147231 0)
(4.76097 0.144823 0)
(4.74939 0.138344 0)
(4.74453 0.130688 0)
(4.74781 0.125463 0)
(4.75566 0.125171 0)
(4.76792 0.130978 0)
(4.78019 0.14143 0)
(5.02209 0.288108 0)
(4.98061 0.189854 0)
(4.96792 0.172789 0)
(4.94377 0.176041 0)
(4.92496 0.168493 0)
(4.91289 0.152039 0)
(4.90002 0.135982 0)
(4.88275 0.130407 0)
(4.86262 0.137159 0)
(4.84261 0.149012 0)
(4.82565 0.157165 0)
(4.81342 0.157023 0)
(4.80705 0.149105 0)
(4.8056 0.137354 0)
(4.80804 0.126585 0)
(4.81205 0.120558 0)
(4.81775 0.120993 0)
(4.82398 0.127668 0)
(5.04049 0.312798 0)
(5.00893 0.236961 0)
(4.96255 0.196154 0)
(4.91975 0.180904 0)
(4.90389 0.173256 0)
(4.90566 0.1657 0)
(4.90308 0.157885 0)
(4.88814 0.154522 0)
(4.86861 0.156544 0)
(4.85645 0.15915 0)
(4.85822 0.157144 0)
(4.87161 0.149102 0)
(4.88987 0.137479 0)
(4.90461 0.126699 0)
(4.91119 0.12032 0)
(4.90792 0.120066 0)
(4.89854 0.125584 0)
(4.88661 0.134749 0)
(5.02056 0.289077 0)
(5.05683 0.228444 0)
(4.98567 0.216621 0)
(4.8771 0.202928 0)
(4.82852 0.176013 0)
(4.83884 0.150592 0)
(4.86948 0.139495 0)
(4.89597 0.143198 0)
(4.91254 0.152462 0)
(4.92296 0.157535 0)
(4.93081 0.154572 0)
(4.93493 0.145697 0)
(4.93314 0.135747 0)
(4.92469 0.128993 0)
(4.91294 0.126926 0)
(4.90066 0.129237 0)
(4.8926 0.13372 0)
(4.88951 0.138626 0)
(5.00087 0.259195 0)
(4.93032 0.247496 0)
(4.9041 0.251677 0)
(4.89651 0.225458 0)
(4.90313 0.183158 0)
(4.90439 0.15067 0)
(4.90166 0.136279 0)
(4.90554 0.135744 0)
(4.91769 0.140758 0)
(4.93262 0.144528 0)
(4.94409 0.144568 0)
(4.94853 0.141806 0)
(4.94625 0.13833 0)
(4.94055 0.135626 0)
(4.93563 0.134239 0)
(4.93329 0.134262 0)
(4.93559 0.134972 0)
(4.93978 0.136474 0)
(5.02445 0.258922 0)
(4.96533 0.273738 0)
(4.95318 0.250119 0)
(4.96095 0.215426 0)
(4.96341 0.178159 0)
(4.96181 0.148869 0)
(4.96633 0.134294 0)
(4.97623 0.132931 0)
(4.98054 0.13908 0)
(4.97188 0.146564 0)
(4.95252 0.151001 0)
(4.93029 0.150774 0)
(4.91355 0.14655 0)
(4.90712 0.140335 0)
(4.91196 0.134308 0)
(4.92392 0.129894 0)
(4.94028 0.127606 0)
(4.95354 0.127184 0)
(4.97091 0.262577 0)
(4.95186 0.268373 0)
(4.98029 0.232424 0)
(5.01863 0.204636 0)
(5.03383 0.179343 0)
(5.01502 0.153161 0)
(4.98395 0.135174 0)
(4.96233 0.132406 0)
(4.954 0.142353 0)
(4.95361 0.155534 0)
(4.95712 0.162284 0)
(4.96329 0.158384 0)
(4.97247 0.146036 0)
(4.98415 0.130811 0)
(4.99827 0.118666 0)
(5.01164 0.112412 0)
(5.02444 0.113064 0)
(5.03141 0.118718 0)
(5.01492 0.306143 0)
(5.02796 0.272183 0)
(5.01574 0.232353 0)
(5.01442 0.199048 0)
(5.01203 0.181046 0)
(4.99968 0.170703 0)
(4.98205 0.160161 0)
(4.97051 0.15057 0)
(4.97164 0.146294 0)
(4.98433 0.147067 0)
(5.00266 0.148166 0)
(5.01975 0.145185 0)
(5.03158 0.137363 0)
(5.03789 0.126865 0)
(5.041 0.117467 0)
(5.04298 0.111705 0)
(5.04499 0.111186 0)
(5.04707 0.11549 0)
(4.91197 0.308639 0)
(4.95248 0.253352 0)
(4.99612 0.223465 0)
(5.02597 0.203122 0)
(5.03084 0.190138 0)
(5.0184 0.175836 0)
(4.99916 0.157746 0)
(4.9801 0.139813 0)
(4.96437 0.128167 0)
(4.95309 0.125145 0)
(4.94704 0.126933 0)
(4.94664 0.127646 0)
(4.95176 0.124043 0)
(4.96188 0.116894 0)
(4.97561 0.110016 0)
(4.99082 0.106697 0)
(5.00499 0.109071 0)
(5.01626 0.117228 0)
(4.95283 0.24389 0)
(4.98066 0.206754 0)
(5.00786 0.187458 0)
(5.01275 0.177103 0)
(5.01554 0.180505 0)
(5.02358 0.188743 0)
(5.03096 0.191005 0)
(5.03131 0.186758 0)
(5.02422 0.180679 0)
(5.01409 0.174493 0)
(5.00631 0.165132 0)
(5.00349 0.149202 0)
(5.00527 0.127074 0)
(5.00913 0.103304 0)
(5.01326 0.0843641 0)
(5.0163 0.0749439 0)
(5.01875 0.0765963 0)
(5.02031 0.0883978 0)
(5.03315 0.245874 0)
(5.00797 0.194631 0)
(5.02131 0.202299 0)
(5.00769 0.200395 0)
(4.98385 0.183383 0)
(4.96929 0.163497 0)
(4.96849 0.147508 0)
(4.97683 0.138633 0)
(4.99005 0.135442 0)
(5.00702 0.133202 0)
(5.02779 0.128196 0)
(5.05061 0.120166 0)
(5.07228 0.111336 0)
(5.08906 0.104576 0)
(5.0991 0.10167 0)
(5.10174 0.103048 0)
(5.09937 0.108267 0)
(5.09308 0.116114 0)
(4.99999 0.245771 0)
(4.98422 0.186198 0)
(4.99886 0.19492 0)
(5.02385 0.210442 0)
(5.04881 0.21279 0)
(5.06027 0.203338 0)
(5.05572 0.185578 0)
(5.0427 0.165236 0)
(5.02979 0.145911 0)
(5.02323 0.126713 0)
(5.02593 0.105742 0)
(5.03694 0.0842902 0)
(5.0532 0.0666038 0)
(5.07084 0.0574918 0)
(5.08748 0.0593558 0)
(5.10104 0.0708317 0)
(5.11187 0.0888389 0)
(5.11931 0.108479 0)
(5.07937 0.231186 0)
(5.0341 0.171446 0)
(5.01654 0.153311 0)
(5.00999 0.142705 0)
(5.02806 0.142855 0)
(5.05929 0.15803 0)
(5.08828 0.177215 0)
(5.11066 0.184643 0)
(5.12652 0.171925 0)
(5.13623 0.141528 0)
(5.13979 0.103153 0)
(5.13756 0.0680587 0)
(5.1316 0.0441452 0)
(5.12485 0.0342111 0)
(5.12074 0.0366072 0)
(5.12115 0.0476088 0)
(5.12718 0.062862 0)
(5.13811 0.0792646 0)
(5.01845 0.256704 0)
(5.01559 0.283901 0)
(5.04562 0.22909 0)
(5.04878 0.16988 0)
(5.0492 0.126343 0)
(5.05824 0.100893 0)
(5.08142 0.0926187 0)
(5.11689 0.0945629 0)
(5.15323 0.0996258 0)
(5.17852 0.103823 0)
(5.18842 0.105194 0)
(5.18647 0.102477 0)
(5.17937 0.0950299 0)
(5.17268 0.0836524 0)
(5.16972 0.0705342 0)
(5.17093 0.0589239 0)
(5.176 0.0506907 0)
(5.18281 0.0482388 0)
(5.02116 0.270196 0)
(5.05554 0.173268 0)
(5.08764 0.134902 0)
(5.11997 0.14005 0)
(5.14268 0.139905 0)
(5.15055 0.119005 0)
(5.14777 0.0921512 0)
(5.14484 0.0768934 0)
(5.14826 0.0772402 0)
(5.15845 0.0848036 0)
(5.17379 0.089029 0)
(5.19217 0.0844279 0)
(5.21137 0.0717155 0)
(5.22888 0.0554656 0)
(5.24276 0.0412299 0)
(5.2519 0.0328745 0)
(5.25708 0.0317384 0)
(5.25907 0.0374449 0)
(5.08528 0.286807 0)
(5.081 0.22599 0)
(5.0565 0.160341 0)
(5.04633 0.116438 0)
(5.06914 0.103161 0)
(5.10481 0.0983281 0)
(5.13312 0.0918933 0)
(5.15341 0.0847631 0)
(5.17018 0.0783889 0)
(5.18462 0.0719537 0)
(5.19702 0.0640078 0)
(5.20763 0.0549108 0)
(5.21703 0.0462853 0)
(5.22559 0.040159 0)
(5.23403 0.0375885 0)
(5.24236 0.0385662 0)
(5.25128 0.0419186 0)
(5.26061 0.046181 0)
(4.97858 0.205624 0)
(4.98633 0.21252 0)
(5.02647 0.15648 0)
(5.05825 0.105094 0)
(5.09663 0.0758109 0)
(5.14249 0.0559598 0)
(5.1869 0.0414855 0)
(5.22561 0.0360825 0)
(5.25803 0.0402921 0)
(5.28291 0.0487867 0)
(5.2998 0.0536345 0)
(5.30981 0.0503472 0)
(5.31529 0.0395949 0)
(5.31878 0.025557 0)
(5.32314 0.0128867 0)
(5.32973 0.0045626 0)
(5.33961 0.00133617 0)
(5.35231 0.00274501 0)
(5.0266 0.285678 0)
(5.05225 0.214722 0)
(5.09382 0.130556 0)
(5.12201 0.08472 0)
(5.13705 0.0563525 0)
(5.15654 0.035064 0)
(5.18346 0.0232062 0)
(5.21562 0.0222035 0)
(5.25127 0.0290049 0)
(5.28683 0.0380188 0)
(5.31829 0.0446912 0)
(5.34306 0.0462583 0)
(5.36018 0.0424707 0)
(5.37049 0.0350845 0)
(5.37605 0.0263086 0)
(5.37955 0.0182172 0)
(5.38328 0.0115524 0)
(5.38849 0.00684442 0)
(5.03552 0.18397 0)
(5.11108 0.159434 0)
(5.1804 0.0953142 0)
(5.24187 0.0590066 0)
(5.28062 0.0358532 0)
(5.29753 0.00886258 0)
(5.2934 -0.0145907 0)
(5.2785 -0.0255446 0)
(5.26857 -0.0232702 0)
(5.27338 -0.0135427 0)
(5.29348 -0.00261743 0)
(5.32328 0.0052065 0)
(5.35609 0.00802896 0)
(5.38659 0.00628652 0)
(5.41187 0.00168013 0)
(5.4305 -0.00383983 0)
(5.44323 -0.00880946 0)
(5.45086 -0.0129299 0)
(5.0462 0.187066 0)
(5.16135 0.141424 0)
(5.23803 0.0924893 0)
(5.26475 0.0584705 0)
(5.27908 0.0383991 0)
(5.29594 0.0324145 0)
(5.3112 0.0344537 0)
(5.32389 0.0355168 0)
(5.33873 0.0295797 0)
(5.35958 0.0180854 0)
(5.38749 0.00554458 0)
(5.42036 -0.00433808 0)
(5.45418 -0.0103262 0)
(5.48459 -0.0126909 0)
(5.50897 -0.0124529 0)
(5.52628 -0.0109249 0)
(5.5378 -0.00893685 0)
(5.54468 -0.00757342 0)
(4.99974 0.178493 0)
(5.14007 0.0569109 0)
(5.25649 0.0416867 0)
(5.31161 0.0315557 0)
(5.32532 0.0040459 0)
(5.33816 -0.0198367 0)
(5.36598 -0.0316259 0)
(5.4073 -0.0365642 0)
(5.45348 -0.0399459 0)
(5.49548 -0.0429028 0)
(5.52765 -0.0445333 0)
(5.54886 -0.044326 0)
(5.56181 -0.0424185 0)
(5.57014 -0.039007 0)
(5.57734 -0.034588 0)
(5.58508 -0.0301626 0)
(5.59451 -0.026626 0)
(5.60557 -0.0254519 0)
(4.96932 0.11335 0)
(5.21354 0.0493356 0)
(5.33513 0.057784 0)
(5.38732 0.0477546 0)
(5.41574 0.0254741 0)
(5.44784 0.00700502 0)
(5.48258 -0.00338221 0)
(5.51531 -0.0120146 0)
(5.54473 -0.0201645 0)
(5.57025 -0.0252544 0)
(5.59199 -0.0263942 0)
(5.61064 -0.0251436 0)
(5.62733 -0.023624 0)
(5.64288 -0.0226673 0)
(5.6582 -0.0222439 0)
(5.67355 -0.0223902 0)
(5.68932 -0.0232597 0)
(5.70523 -0.0257443 0)
(4.97992 -0.0135052 0)
(5.1486 -0.058295 0)
(5.26735 -0.00117367 0)
(5.37006 -0.00810011 0)
(5.45489 -0.0339678 0)
(5.51651 -0.0532974 0)
(5.55473 -0.0622894 0)
(5.57148 -0.0656412 0)
(5.57244 -0.0674494 0)
(5.56435 -0.0679659 0)
(5.55298 -0.0666297 0)
(5.54264 -0.063815 0)
(5.53506 -0.0603689 0)
(5.53087 -0.0568473 0)
(5.52884 -0.0535002 0)
(5.5282 -0.0507737 0)
(5.52657 -0.0490141 0)
(5.52396 -0.0489438 0)
(4.95613 0.0569409 0)
(5.02783 -0.00837807 0)
(5.04959 0.00146201 0)
(5.0062 -0.018647 0)
(4.89723 -0.0323287 0)
(4.76183 -0.0301152 0)
(4.63202 -0.0229697 0)
(4.51187 -0.0188782 0)
(4.39559 -0.0184095 0)
(4.28152 -0.0189614 0)
(4.17243 -0.0192833 0)
(4.07088 -0.0198713 0)
(3.97609 -0.021099 0)
(3.88752 -0.0223262 0)
(3.80441 -0.0228086 0)
(3.72804 -0.0223526 0)
(3.65682 -0.0216156 0)
(3.59091 -0.0217088 0)
(-0.0774934 0.182262 -4.38967e-20)
(-0.26446 0.171892 4.35705e-20)
(-0.38074 0.0915203 0)
(-0.376823 -0.0236027 0)
(-0.295113 -0.0947609 0)
(-0.16223 -0.127211 -4.22736e-20)
(-0.0221803 -0.116486 0)
(0.0965895 -0.0773491 0)
(0.171424 -0.0124493 0)
(0.187448 0.0711896 0)
(0.135961 0.072356 4.06806e-20)
(0.0728996 -0.0506184 0)
(0.038279 -0.0910995 0)
(0.0360431 -0.0234524 0)
(0.0334551 0.0146574 0)
(0.00129809 0.0230995 3.91629e-20)
(-0.0154516 0.0103053 0)
(0.00430352 -0.0351524 0)
(0.0560451 -0.0891851 0)
(0.123266 -0.132733 0)
(0.185534 -0.156725 0)
(0.231546 -0.159415 0)
(0.242703 -0.153892 0)
(0.191685 -0.152023 3.68232e-20)
(0.0812119 -0.0849207 -3.65457e-20)
(-0.100773 0.103852 3.6247e-20)
(-0.385244 0.25925 3.59279e-20)
(-0.717671 0.316198 0)
(-1.05422 0.349831 0)
(-1.38929 0.339182 -3.50251e-20)
(-1.69347 0.306806 -3.47503e-20)
(-1.96951 0.27272 0)
(-2.21858 0.233748 0)
(-2.44095 0.200153 -3.39795e-20)
(-2.64265 0.170902 0)
(-2.82543 0.147301 0)
(-2.9931 0.128461 3.32408e-20)
(-3.14713 0.113106 0)
(-3.28875 0.100471 3.27431e-20)
(-3.41816 0.089783 6.49775e-20)
(-3.53469 0.0802482 0)
(-3.6369 0.0711107 0)
(-3.72275 0.0618727 0)
(-3.78988 0.0517136 0)
(-3.83567 0.0400572 0)
(-3.85768 0.0265305 6.16688e-20)
(-3.85306 0.0112914 6.10657e-20)
(-3.8228 -0.00572584 6.04481e-20)
(-3.7655 -0.0244651 0)
(-3.68217 -0.0442072 -5.91777e-20)
(-3.57435 -0.0640582 0)
(-3.44441 -0.0828389 5.78725e-20)
(-3.29483 -0.0994668 5.72115e-20)
(-3.1281 -0.113226 0)
(-2.94667 -0.124024 0)
(-2.75243 -0.132527 0)
(-2.54569 -0.14003 5.45503e-20)
(-2.32472 -0.14807 0)
(-2.087 -0.15784 0)
(-1.83128 -0.169602 0)
(-1.55757 -0.181914 0)
(-1.26605 -0.191442 0)
(-0.958063 -0.195264 0)
(-0.637651 -0.193247 0)
(-0.304241 -0.180067 0)
(0.034971 -0.159797 -4.90122e-20)
(0.389255 -0.169856 0)
(0.732258 -0.270221 0)
(1.15564 -0.254881 4.74095e-20)
(1.47434 0.134266 4.69424e-20)
(1.18492 0.364419 0)
(0.710784 0.230232 -4.59504e-20)
(0.376438 0.155623 4.5492e-20)
(0.161415 0.110535 0)
(-0.00784396 0.090259 -4.45515e-20)
(-0.227113 0.0636612 0)
(-0.392797 -0.015903 0)
(-0.35006 -0.174015 4.31763e-20)
(-0.00517959 -0.335259 0)
(0.605664 -0.429219 -4.20917e-20)
(1.30856 -0.410801 0)
(1.92111 -0.354236 4.12115e-20)
(2.41802 -0.179036 4.08743e-20)
(2.61422 0.184583 4.04994e-20)
(2.18681 0.392528 8.00654e-20)
(1.43042 0.274098 -7.91879e-20)
(0.943746 0.0927431 0)
(0.880844 -0.0730723 0)
(1.00531 -0.246687 0)
(1.11573 -0.313713 -7.56529e-20)
(0.964199 -0.0542403 -7.49102e-20)
(0.345814 0.318684 7.42142e-20)
(-0.451373 0.426698 0)
(-1.18806 0.399345 -7.29171e-20)
(-1.83212 0.347678 -7.23939e-20)
(-2.38041 0.294746 -7.19205e-20)
(-2.84446 0.247814 0)
(-3.23821 0.208532 0)
(-3.57391 0.176266 0)
(-3.86108 0.149585 -7.00241e-20)
(-4.10664 0.127006 0)
(-4.31518 0.107098 0)
(-4.48919 0.0887458 6.83567e-20)
(-4.6297 0.0712325 0)
(-4.73674 0.054107 0)
(-4.80963 0.0369157 6.63659e-20)
(-4.84713 0.019696 0)
(-4.84794 0.00332518 0)
(-4.81549 -0.0124754 -6.39728e-20)
(-4.74756 -0.0280534 -6.30838e-20)
(-4.64479 -0.04304 0)
(-4.50695 -0.0576065 6.1189e-20)
(-4.33453 -0.0715839 0)
(-4.12815 -0.0848632 -5.91749e-20)
(-3.8887 -0.0972715 0)
(-3.61768 -0.108474 -5.70962e-20)
(-3.31754 -0.118039 -5.60524e-20)
(-2.99219 -0.125579 0)
(-2.64746 -0.130725 0)
(-2.29078 -0.132954 0)
(-1.92997 -0.132125 0)
(-1.57166 -0.128531 0)
(-1.22199 -0.122722 0)
(-0.886573 -0.115335 0)
(-0.568484 -0.107199 -4.86196e-20)
(-0.269088 -0.0990512 4.78536e-20)
(0.010366 -0.0922875 0)
(0.270765 -0.0848194 0)
(0.51433 -0.0777698 0)
(0.740989 -0.0709207 0)
(0.950859 -0.0641112 8.86848e-20)
(1.14371 -0.0572632 0)
(1.31917 -0.0503867 -8.61882e-20)
(1.47697 -0.0435534 8.49954e-20)
(1.61705 -0.0368895 0)
(1.73964 -0.0304345 0)
(1.84497 -0.0241364 0)
(1.93326 -0.018059 -8.05011e-20)
(2.00463 -0.0120824 -7.94272e-20)
(2.05873 -0.00604636 0)
(2.09507 -0.000236448 -7.73139e-20)
(2.11399 0.00558727 -7.62677e-20)
(2.11326 0.0120872 7.52235e-20)
(2.09383 0.0184273 0)
(2.05719 0.0242159 0)
(2.00474 0.0295363 7.20831e-20)
(1.93753 0.0348681 0)
(1.85523 0.0410492 0)
(1.75631 0.0480109 0)
(1.63998 0.0543198 0)
(1.50752 0.0588223 -6.67484e-20)
(1.36148 0.0613008 -6.56666e-20)
(1.20616 0.0603258 0)
(1.0505 0.0531995 -6.34931e-20)
(0.907926 0.0399455 0)
(0.791207 0.0238639 0)
(0.706564 0.00933108 -6.01908e-20)
(0.653556 -0.000901204 0)
(0.626883 -0.00661779 -5.79478e-20)
(0.618757 -0.00899011 0)
(0.621605 -0.00950079 0)
(0.629728 -0.00895767 -5.45898e-20)
(0.639447 -0.00790309 0)
(0.648866 -0.00675476 -5.23921e-20)
(0.65687 -0.00557941 0)
(0.663586 -0.00441638 0)
(0.668644 -0.003295 0)
(0.672898 -0.00230479 4.81151e-20)
(0.675349 -0.00141971 0)
(0.677387 -0.00066883 -4.603e-20)
(0.676627 0.000111265 0)
(0.675606 0.000816199 0)
(0.670053 0.00180798 0)
(0.663833 0.00262922 0)
(0.652077 0.00436376 0)
(0.6348 0.00502276 0)
(0.61992 0.00899282 0)
(0.569863 0.00730239 7.6031e-20)
(0.576697 0.019185 0)
(0.426998 0.007877 0)
(-0.0164954 0.510106 1.31732e-19)
(-0.175398 0.438299 -1.3078e-19)
(-0.226533 0.174162 0)
(-0.172136 -0.158922 8.59557e-20)
(-0.0448993 -0.365256 0)
(0.120317 -0.442022 4.22602e-20)
(0.270148 -0.410545 -8.38747e-20)
(0.391832 -0.303573 -8.32045e-20)
(0.474243 -0.155529 0)
(0.510659 0.00567992 -8.19411e-20)
(0.497378 0.15777 -4.06346e-20)
(0.416052 0.2504 0)
(0.232692 0.17367 0)
(0.0565469 0.0283933 0)
(-0.0316884 0.0565127 0)
(-0.0931479 0.0707808 -3.91529e-20)
(-0.129486 -0.0145605 0)
(-0.149589 -0.0994904 7.70999e-20)
(-0.18053 -0.135755 0)
(-0.248122 -0.108569 0)
(-0.364065 -0.0472481 -7.52979e-20)
(-0.52301 0.0535733 0)
(-0.73174 0.238724 7.40804e-20)
(-1.01264 0.438328 -3.67331e-20)
(-1.30169 0.584975 3.64171e-20)
(-1.54934 0.706802 -3.60961e-20)
(-1.79465 0.778672 -3.57791e-20)
(-2.022 0.785306 0)
(-2.2277 0.758787 0)
(-2.42792 0.70358 3.49144e-20)
(-2.61551 0.641657 -3.47574e-20)
(-2.79964 0.582095 0)
(-2.98065 0.527982 0)
(-3.15908 0.482816 3.39068e-20)
(-3.33457 0.444126 0)
(-3.50445 0.410922 0)
(-3.66662 0.380652 -3.31783e-20)
(-3.8179 0.351524 0)
(-3.95556 0.321835 3.27762e-20)
(-4.07652 0.28977 -6.48669e-20)
(-4.17855 0.25389 0)
(-4.25963 0.213164 0)
(-4.31794 0.167077 -1.26773e-19)
(-4.35244 0.11566 -1.25673e-19)
(-4.36256 0.059652 -1.24543e-19)
(-4.34834 0.000680677 6.17729e-20)
(-4.3112 -0.0590543 -6.10036e-20)
(-4.2502 -0.117577 -1.81317e-19)
(-4.168 -0.173009 1.19665e-19)
(-4.06637 -0.223715 5.91193e-20)
(-3.94776 -0.268597 0)
(-3.81402 -0.307147 -5.78136e-20)
(-3.6664 -0.339602 5.72754e-20)
(-3.50568 -0.367074 0)
(-3.3325 -0.39147 0)
(-3.14719 -0.415071 0)
(-2.94938 -0.43985 -5.44857e-20)
(-2.7383 -0.466984 0)
(-2.51392 -0.496692 1.06448e-19)
(-2.27699 -0.528043 0)
(-2.02683 -0.55901 1.03876e-19)
(-1.76061 -0.587772 0)
(-1.47604 -0.614405 -1.01411e-19)
(-1.17225 -0.640088 0)
(-0.846928 -0.664601 9.90957e-20)
(-0.497548 -0.688607 -4.90589e-20)
(-0.111463 -0.713993 0)
(0.267279 -0.745317 -9.59261e-20)
(0.572581 -0.628946 -4.74285e-20)
(0.985622 -0.118275 -4.69641e-20)
(1.26557 0.46406 0)
(1.19747 0.657355 -4.59564e-20)
(0.934552 0.500084 -4.54285e-20)
(0.783435 0.324038 0)
(0.666103 0.327422 4.45072e-20)
(0.489565 0.341264 -8.8127e-20)
(0.308684 0.156668 0)
(0.197505 -0.260071 -4.31747e-20)
(0.301025 -0.764168 0)
(0.643119 -1.13028 1.2632e-19)
(1.16901 -1.14377 0)
(1.67494 -0.909799 -1.23794e-19)
(2.00295 -0.504657 -4.0882e-20)
(2.27243 0.0894184 4.07084e-20)
(2.21833 0.698644 8.03792e-20)
(1.8281 0.946773 -7.93185e-20)
(1.65078 0.554988 0)
(1.60063 -0.0142407 0)
(1.2057 -0.0481803 0)
(0.372368 0.427229 2.27327e-19)
(-0.534698 0.888951 7.49405e-20)
(-1.33138 1.08842 -7.40508e-20)
(-1.96874 1.05253 0)
(-2.47859 0.931448 -7.31992e-20)
(-2.89745 0.792967 7.2228e-20)
(-3.24361 0.664838 7.17868e-20)
(-3.53362 0.555657 0)
(-3.77992 0.465831 0)
(-3.99107 0.392299 0)
(-4.17295 0.331179 6.99747e-20)
(-4.32917 0.2787 0)
(-4.46176 0.231555 -1.37986e-19)
(-4.57152 0.18725 -2.05162e-19)
(-4.65822 0.144089 1.35586e-19)
(-4.72089 0.100984 0)
(-4.75825 0.0572703 6.64997e-20)
(-4.76915 0.0128825 0)
(-4.75278 -0.031382 1.29776e-19)
(-4.70375 -0.0755188 -6.40981e-20)
(-4.6226 -0.119328 -6.32031e-20)
(-4.50783 -0.162286 0)
(-4.35957 -0.204146 -1.83679e-19)
(-4.17786 -0.244569 1.20491e-19)
(-3.963 -0.283266 5.91733e-20)
(-3.71542 -0.319771 0)
(-3.4361 -0.353166 5.70913e-20)
(-3.12704 -0.382045 1.68232e-19)
(-2.79179 -0.404816 0)
(-2.43572 -0.420011 1.08069e-19)
(-2.06616 -0.426406 1.06082e-19)
(-1.69155 -0.423398 1.04164e-19)
(-1.31903 -0.411769 0)
(-0.955131 -0.39348 0)
(-0.605832 -0.3709 0)
(-0.274258 -0.346416 -4.8653e-20)
(0.0357709 -0.322043 -4.78461e-20)
(0.324912 -0.299681 0)
(0.595157 -0.277866 -9.27277e-20)
(0.847153 -0.257147 -9.13154e-20)
(1.08126 -0.237193 0)
(1.29756 -0.217586 -8.8634e-20)
(1.49584 -0.198045 -1.7475e-19)
(1.67581 -0.178526 8.61423e-20)
(1.83736 -0.159198 8.49589e-20)
(1.98079 -0.140301 0)
(2.1066 -0.121959 0)
(2.21547 -0.104147 0)
(2.30814 -0.0867435 8.04662e-20)
(2.38481 -0.06949 -7.94e-20)
(2.44556 -0.0521275 -1.56677e-19)
(2.4908 -0.0346475 7.72837e-20)
(2.51969 -0.0167939 -7.62516e-20)
(2.5346 0.000619895 -7.51945e-20)
(2.53553 0.016469 0)
(2.52235 0.0305777 0)
(2.4955 0.0432644 7.20693e-20)
(2.45667 0.0550524 0)
(2.40913 0.0666892 0)
(2.35683 0.0788977 -1.37737e-19)
(2.30264 0.0911557 0)
(2.24716 0.102085 -6.67234e-20)
(2.18902 0.110407 6.56105e-20)
(2.12686 0.114902 0)
(2.0611 0.113641 -6.34444e-20)
(1.9933 0.104407 0)
(1.92608 0.0871136 0)
(1.86299 0.0648434 6.01253e-20)
(1.80817 0.0423476 -1.18014e-19)
(1.76498 0.0233848 5.78887e-20)
(1.7342 0.00985821 0)
(1.71402 0.0017325 0)
(1.70156 -0.0020832 -5.45363e-20)
(1.6934 -0.00321235 0)
(1.68696 -0.00312816 -5.23441e-20)
(1.68053 -0.00268228 0)
(1.67385 -0.00231348 0)
(1.66678 -0.00207101 0)
(1.66034 -0.00191338 -4.80769e-20)
(1.6541 -0.00151718 0)
(1.64912 -0.000988798 4.59947e-20)
(1.64377 0.000186054 0)
(1.63918 0.00123215 0)
(1.63302 0.00351394 -8.58613e-20)
(1.62603 0.00472635 8.38505e-20)
(1.61776 0.00902245 0)
(1.60312 0.00965035 0)
(1.59497 0.0186825 0)
(1.55846 0.0163513 -2.27921e-19)
(1.56417 0.0369349 0)
(1.46674 0.0272467 1.44342e-19)
(0.0375669 0.579117 6.50208e-23)
(-0.0172 0.603853 1.74509e-19)
(0.0948186 0.128645 0)
(0.263785 -0.386873 -1.7185e-19)
(0.451946 -0.685955 0)
(0.606324 -0.764669 0)
(0.720288 -0.680972 -1.12884e-22)
(0.795785 -0.491991 8.30819e-20)
(0.83443 -0.246245 8.25852e-20)
(0.839153 0.0233103 8.18591e-20)
(0.802424 0.27427 0)
(0.721176 0.487863 0)
(0.572089 0.597629 -8.00506e-20)
(0.327799 0.502468 -1.58941e-19)
(0.0792561 0.312842 1.57814e-19)
(-0.0661647 0.21674 0)
(-0.181049 0.128355 1.5538e-19)
(-0.295935 0.0637446 -7.70592e-20)
(-0.441552 0.100194 0)
(-0.630028 0.208076 1.51608e-19)
(-0.858662 0.353897 7.5174e-20)
(-1.12369 0.538484 -1.49086e-19)
(-1.38793 0.719541 -7.3912e-20)
(-1.63642 0.860156 0)
(-1.86468 0.970078 1.45456e-19)
(-2.06007 1.04972 1.44305e-19)
(-2.23278 1.07859 0)
(-2.38581 1.06693 1.42093e-19)
(-2.53456 1.03334 0)
(-2.69084 0.9843 1.39981e-19)
(-2.85596 0.934367 6.93379e-20)
(-3.03167 0.884517 0)
(-3.21229 0.835366 0)
(-3.39264 0.786313 0)
(-3.5669 0.735232 0)
(-3.73107 0.681983 0)
(-3.88236 0.625625 0)
(-4.0188 0.565989 1.32101e-19)
(-4.13919 0.502705 -1.96537e-19)
(-4.24229 0.435388 0)
(-4.32711 0.363848 0)
(-4.39237 0.287968 0)
(-4.43687 0.207869 -2.88401e-22)
(-4.45958 0.12424 1.25639e-19)
(-4.45952 0.0384824 2.49318e-19)
(-4.4363 -0.0478314 -2.46965e-19)
(-4.38991 -0.133272 -1.22396e-19)
(-4.32092 -0.215653 1.20891e-19)
(-4.23074 -0.293105 2.42395e-22)
(-4.1214 -0.364149 1.18566e-19)
(-3.99524 -0.427879 0)
(-3.85475 -0.484172 1.15918e-19)
(-3.70219 -0.533685 1.98029e-22)
(-3.5396 -0.577761 0)
(-3.36859 -0.618089 0)
(-3.1901 -0.656263 -1.10541e-19)
(-3.00435 -0.693713 0)
(-2.8114 -0.732 0)
(-2.61174 -0.77288 1.06717e-19)
(-2.40572 -0.817402 2.10488e-19)
(-2.19261 -0.864977 -1.03793e-19)
(-1.97075 -0.913819 0)
(-1.73826 -0.96202 1.01306e-19)
(-1.49352 -1.00834 0)
(-1.23526 -1.05276 9.92871e-20)
(-0.962185 -1.09503 9.78645e-20)
(-0.678146 -1.13285 -1.9392e-19)
(-0.385106 -1.15213 -9.60742e-20)
(-0.115159 -1.05909 0)
(0.250871 -0.5996 1.8819e-19)
(0.758556 0.124107 0)
(1.073 0.600131 2.75646e-19)
(1.11166 0.647538 1.81651e-19)
(1.06199 0.461239 1.79743e-19)
(1.04486 0.398823 -1.77865e-19)
(1.02023 0.466774 2.64062e-19)
(0.932876 0.349622 0)
(0.781555 -0.0860496 0)
(0.649989 -0.774978 -1.70679e-19)
(0.671474 -1.4168 -2.52839e-19)
(0.896526 -1.57273 0)
(1.19296 -1.27281 8.26145e-20)
(1.38976 -0.703367 0)
(1.52184 0.0960096 -2.44156e-19)
(1.55866 0.838828 2.31892e-22)
(1.60143 0.908305 -1.85621e-22)
(1.6387 0.442936 1.56734e-19)
(1.09711 0.445425 0)
(0.0786588 0.973451 -1.53291e-19)
(-0.86642 1.42606 2.91239e-22)
(-1.55772 1.63349 0)
(-2.02821 1.62193 0)
(-2.35383 1.47254 0)
(-2.61091 1.27414 1.45803e-19)
(-2.83451 1.07868 0)
(-3.042 0.907697 0)
(-3.23837 0.765798 0)
(-3.42462 0.650123 0)
(-3.59978 0.555106 0)
(-3.76264 0.475041 1.40425e-19)
(-3.9117 0.404768 0)
(-4.04523 0.340014 1.38044e-19)
(-4.1612 0.277598 1.36881e-19)
(-4.25728 0.215265 -1.35647e-19)
(-4.33096 0.151522 0)
(-4.37973 0.0856971 -1.32935e-19)
(-4.40111 0.0176923 0)
(-4.39349 -0.052371 -1.29834e-19)
(-4.35523 -0.123718 1.28128e-19)
(-4.28528 -0.195061 3.79351e-19)
(-4.18307 -0.265626 0)
(-4.04842 -0.334632 3.67864e-19)
(-3.88148 -0.401614 1.20828e-19)
(-3.68231 -0.466233 0)
(-3.45081 -0.527959 2.33057e-19)
(-3.187 -0.585522 2.28855e-19)
(-2.89177 -0.636575 -3.36824e-19)
(-2.56751 -0.677956 0)
(-2.21863 -0.706471 -1.08049e-19)
(-1.85177 -0.719794 -1.06061e-19)
(-1.47518 -0.716636 -3.12651e-19)
(-1.09666 -0.697824 0)
(-0.723236 -0.667204 0)
(-0.361844 -0.628815 0)
(-0.0186454 -0.58625 -9.73685e-20)
(0.304821 -0.54502 0)
(0.609185 -0.504155 0)
(0.89485 -0.465235 9.26653e-20)
(1.16251 -0.42833 9.12547e-20)
(1.4122 -0.392724 0)
(1.64322 -0.357606 0)
(1.85426 -0.322543 1.7464e-19)
(2.04387 -0.287639 0)
(2.21099 -0.253409 -1.6981e-19)
(2.35532 -0.220448 -1.67513e-19)
(2.47724 -0.189073 0)
(2.57765 -0.159264 0)
(2.65746 -0.13076 1.60876e-19)
(2.71741 -0.103124 -1.49769e-23)
(2.75807 -0.0760889 -1.73186e-23)
(2.78028 -0.0496197 0)
(2.78455 -0.0237934 3.04916e-19)
(2.77267 0.00156808 0)
(2.74758 0.0261391 0)
(2.71228 0.0494404 0)
(2.66949 0.0710134 -1.44084e-19)
(2.62056 0.0893059 0)
(2.56534 0.102685 2.7977e-19)
(2.50467 0.111634 1.37708e-19)
(2.44313 0.118142 0)
(2.38835 0.123971 1.33394e-19)
(2.34634 0.129284 0)
(2.31839 0.132671 0)
(2.30092 0.131213 3.80557e-19)
(2.28716 0.12145 -2.49295e-19)
(2.27096 0.103156 0)
(2.24909 0.0795634 -2.4039e-19)
(2.22177 0.0553047 1.17963e-19)
(2.1918 0.0339132 0)
(2.16287 0.0173605 0)
(2.13788 0.00627918 0)
(2.11825 0.000135283 3.2709e-19)
(2.10386 -0.0022347 0)
(2.09369 -0.00213995 1.04652e-19)
(2.08625 -0.000858015 0)
(2.08021 0.000551819 0)
(2.07461 0.00160432 0)
(2.06902 0.00207869 0)
(2.06319 0.00236973 0)
(2.05702 0.0024475 0)
(2.05057 0.00321373 1.79792e-19)
(2.04354 0.00387533 0)
(2.03673 0.00625289 8.58315e-20)
(2.02836 0.00756275 -2.51463e-19)
(2.02198 0.0126693 0)
(2.01038 0.0138928 0)
(2.00653 0.0243424 1.55771e-19)
(1.98595 0.0237364 1.51892e-19)
(1.99044 0.0455869 -1.48035e-19)
(1.94735 0.0410384 -1.44286e-19)
(-0.0159213 0.498076 -2.63685e-19)
(0.102479 0.341654 -2.61897e-19)
(0.417957 -0.355488 -1.73234e-19)
(0.689708 -0.870492 -8.59588e-20)
(0.868823 -1.08044 0)
(0.969488 -1.04594 1.69061e-19)
(1.01707 -0.857766 -8.4079e-20)
(1.02725 -0.582833 0)
(1.00974 -0.268843 -8.25436e-20)
(0.968306 0.0584071 0)
(0.901712 0.378094 1.62876e-19)
(0.804659 0.664419 0)
(0.679826 0.895884 7.99839e-20)
(0.487134 0.950299 1.5877e-19)
(0.220747 0.788169 -1.57659e-19)
(-0.0195442 0.571798 0)
(-0.201242 0.42527 -1.55309e-19)
(-0.377261 0.391151 0)
(-0.584067 0.493265 0)
(-0.826846 0.658463 -1.51437e-19)
(-1.08848 0.832041 0)
(-1.34962 1.00159 -1.02953e-22)
(-1.58234 1.13353 0)
(-1.78306 1.2224 0)
(-1.96346 1.28766 1.64983e-22)
(-2.12258 1.3224 -1.44222e-19)
(-2.27062 1.32731 -1.43335e-19)
(-2.41919 1.31833 -1.42029e-19)
(-2.57441 1.29719 0)
(-2.73796 1.26544 -2.80121e-19)
(-2.90761 1.2265 0)
(-3.07969 1.17753 -1.38212e-19)
(-3.2505 1.12054 0)
(-3.41794 1.05713 0)
(-3.58015 0.988752 1.35312e-19)
(-3.73592 0.917014 0)
(-3.88354 0.841708 -1.33405e-19)
(-4.02122 0.762469 3.84472e-22)
(-4.14705 0.678319 2.62558e-19)
(-4.25888 0.588209 -2.60976e-19)
(-4.35437 0.491163 0)
(-4.43082 0.386363 0)
(-4.48559 0.273722 -1.27792e-19)
(-4.51622 0.154379 0)
(-4.5212 0.0307833 -1.24785e-19)
(-4.50025 -0.0941947 1.23592e-19)
(-4.45298 -0.217717 1.22363e-19)
(-4.38021 -0.336177 0)
(-4.28313 -0.446354 -1.19824e-19)
(-4.16396 -0.545253 -1.18523e-19)
(-4.02564 -0.630981 2.35025e-19)
(-3.87162 -0.703033 -1.15875e-19)
(-3.70562 -0.762617 -1.14536e-19)
(-3.53113 -0.812405 0)
(-3.35074 -0.855845 0)
(-3.16564 -0.896229 1.10503e-19)
(-2.9758 -0.936097 0)
(-2.78105 -0.977123 0)
(-2.5821 -1.02017 -2.13021e-19)
(-2.38053 -1.06543 -2.10411e-19)
(-2.17827 -1.11297 0)
(-1.97719 -1.16311 0)
(-1.77847 -1.21594 0)
(-1.58182 -1.27043 0)
(-1.38576 -1.32443 -1.98109e-19)
(-1.1897 -1.37553 1.96179e-19)
(-0.995603 -1.41988 1.93716e-19)
(-0.809075 -1.44258 3.83582e-19)
(-0.622066 -1.39147 0)
(-0.365361 -1.10986 -3.06589e-23)
(0.125414 -0.476586 0)
(0.686558 0.19998 -1.83959e-19)
(1.02673 0.531649 -1.17819e-22)
(1.15052 0.455981 -1.79723e-19)
(1.18543 0.35223 1.77827e-19)
(1.21717 0.449853 -1.24679e-22)
(1.2227 0.453859 0)
(1.10967 0.109422 1.72455e-19)
(0.889485 -0.604114 1.70665e-19)
(0.68736 -1.41586 3.37208e-19)
(0.667429 -1.72817 0)
(0.767115 -1.44529 -1.65474e-19)
(0.847835 -0.815106 0)
(0.920512 -0.0397107 3.25972e-19)
(1.03844 0.570421 -1.60919e-19)
(1.08559 0.783517 1.58794e-19)
(0.676042 1.00479 -1.5686e-19)
(-0.156207 1.46054 -3.10486e-19)
(-0.96255 1.87512 1.53001e-19)
(-1.5298 2.06417 -1.51311e-19)
(-1.87449 2.04233 0)
(-2.08291 1.88534 2.98302e-19)
(-2.23898 1.67147 0)
(-2.38911 1.45318 2.93886e-19)