/*--------------------------------*- C++ -*----------------------------------*\
  =========                 |
  \\      /  F ield         | OpenFOAM: The Open Source CFD Toolbox
   \\    /   O peration     | Website:  https://openfoam.org
    \\  /    A nd           | Version:  7
     \\/     M anipulation  |
\*---------------------------------------------------------------------------*/
FoamFile
{
    version     2.0;
    format      ascii;
    class       volScalarField;
    location    "0.023";
    object      k_0;
}
// * * * * * * * * * * * * * * * * * * * * * * * * * * * * * * * * * * * * * //

dimensions      [0 2 -2 0 0 0 0];

internalField   nonuniform List<scalar> 
12225
(
1.94275e-05
1.79423e-05
1.67588e-05
1.54489e-05
1.38359e-05
1.29305e-05
1.17598e-05
9.74687e-06
8.68331e-06
8.67407e-06
9.09636e-06
9.06517e-06
7.9587e-06
6.02025e-06
5.13768e-06
4.91696e-06
4.84073e-06
8.19839e-06
1.99827e-05
1.98847e-05
1.9678e-05
1.94365e-05
1.91313e-05
1.87485e-05
1.83707e-05
1.80218e-05
1.74603e-05
1.68381e-05
1.64684e-05
1.63342e-05
1.62504e-05
1.62117e-05
1.6236e-05
1.63566e-05
1.63767e-05
1.62284e-05
1.99998e-05
1.93373e-05
1.91179e-05
1.90762e-05
1.90169e-05
1.89691e-05
1.89543e-05
1.89136e-05
1.88358e-05
1.86588e-05
1.84013e-05
1.82214e-05
1.81377e-05
1.81195e-05
1.81241e-05
1.81651e-05
1.83756e-05
1.84944e-05
2.0165e-05
2.00776e-05
1.95726e-05
1.88106e-05
1.82846e-05
1.81767e-05
1.8221e-05
1.83429e-05
1.83507e-05
1.82049e-05
1.77139e-05
1.73285e-05
1.71371e-05
1.70637e-05
1.70538e-05
1.7069e-05
1.71564e-05
1.74163e-05
2.02918e-05
2.25017e-05
2.34767e-05
2.24113e-05
2.11537e-05
2.08322e-05
2.10758e-05
2.20363e-05
2.23565e-05
2.22166e-05
2.12822e-05
1.92117e-05
1.79748e-05
1.73438e-05
1.69561e-05
1.67124e-05
1.6604e-05
1.65854e-05
2.00637e-05
2.06291e-05
2.53114e-05
2.71359e-05
2.58313e-05
2.41544e-05
2.40401e-05
2.43975e-05
2.45318e-05
2.43736e-05
2.34696e-05
2.17842e-05
2.05187e-05
1.97642e-05
1.93998e-05
1.91495e-05
1.87139e-05
1.8026e-05
2.02967e-05
2.27556e-05
2.48495e-05
2.40834e-05
2.34617e-05
2.35018e-05
2.36268e-05
2.35858e-05
2.32225e-05
2.24214e-05
2.18997e-05
2.15535e-05
2.1322e-05
2.11158e-05
2.10068e-05
2.08618e-05
2.07374e-05
2.0455e-05
2.45362e-05
2.57253e-05
2.37349e-05
2.16764e-05
2.14648e-05
2.1859e-05
2.30393e-05
2.35845e-05
2.36169e-05
2.33836e-05
2.26461e-05
2.22946e-05
2.22653e-05
2.22768e-05
2.22372e-05
2.20062e-05
2.17446e-05
2.15488e-05
2.50054e-05
2.85619e-05
2.67792e-05
2.30447e-05
2.17702e-05
2.1588e-05
2.18936e-05
2.36185e-05
2.56062e-05
2.61977e-05
2.6184e-05
2.58268e-05
2.4562e-05
2.32193e-05
2.23357e-05
2.18279e-05
2.15653e-05
2.14712e-05
2.70269e-05
2.48123e-05
2.21551e-05
2.18718e-05
2.20525e-05
2.21348e-05
2.22767e-05
2.29159e-05
2.41901e-05
2.47241e-05
2.47751e-05
2.46093e-05
2.37827e-05
2.27286e-05
2.2068e-05
2.15944e-05
2.11856e-05
2.09116e-05
2.25766e-05
2.30222e-05
2.14792e-05
2.07672e-05
2.07617e-05
2.0979e-05
2.18457e-05
2.39881e-05
2.51224e-05
2.52274e-05
2.4765e-05
2.37261e-05
2.32812e-05
2.31539e-05
2.31277e-05
2.31171e-05
2.30959e-05
2.30016e-05
2.16895e-05
2.24881e-05
2.21098e-05
2.0828e-05
2.06309e-05
2.14321e-05
2.41839e-05
2.49859e-05
2.48401e-05
2.37943e-05
2.23498e-05
2.18801e-05
2.18897e-05
2.21283e-05
2.26003e-05
2.28349e-05
2.28972e-05
2.28902e-05
2.10601e-05
2.16673e-05
2.15529e-05
2.06555e-05
2.05027e-05
2.09179e-05
2.27338e-05
2.38031e-05
2.37865e-05
2.29848e-05
2.21462e-05
2.19969e-05
2.21698e-05
2.30246e-05
2.36611e-05
2.38278e-05
2.38097e-05
2.36078e-05
2.12928e-05
2.17936e-05
2.10506e-05
2.04287e-05
2.0305e-05
2.03835e-05
2.08626e-05
2.14199e-05
2.1646e-05
2.17357e-05
2.18787e-05
2.23509e-05
2.2937e-05
2.31574e-05
2.31632e-05
2.30769e-05
2.26689e-05
2.21211e-05
2.06933e-05
2.0799e-05
2.08042e-05
2.08075e-05
2.07996e-05
2.08121e-05
2.08491e-05
2.08417e-05
2.07932e-05
2.07823e-05
2.08261e-05
2.1114e-05
2.1664e-05
2.18958e-05
2.19159e-05
2.1859e-05
2.15928e-05
2.11823e-05
2.13826e-05
2.07921e-05
2.07519e-05
2.14237e-05
2.1844e-05
2.18365e-05
2.15257e-05
2.09598e-05
2.07587e-05
2.06541e-05
2.05786e-05
2.05784e-05
2.06782e-05
2.07882e-05
2.08119e-05
2.08176e-05
2.08343e-05
2.09204e-05
2.06143e-05
2.06883e-05
2.07611e-05
2.10555e-05
2.11267e-05
2.1021e-05
2.0712e-05
2.05239e-05
2.04695e-05
2.03893e-05
2.03539e-05
2.03786e-05
2.05555e-05
2.0884e-05
2.09845e-05
2.09609e-05
2.08703e-05
2.08625e-05
2.06512e-05
2.06941e-05
2.05238e-05
2.0412e-05
2.03451e-05
2.01729e-05
2.00934e-05
2.01067e-05
2.01676e-05
2.02513e-05
2.02994e-05
2.03511e-05
2.04743e-05
2.08342e-05
2.10336e-05
2.10411e-05
2.09983e-05
2.09983e-05
2.02151e-05
2.06525e-05
2.10528e-05
2.11536e-05
2.11491e-05
2.1047e-05
2.07551e-05
2.06167e-05
2.05466e-05
2.05019e-05
2.04977e-05
2.04975e-05
2.04918e-05
2.04705e-05
2.04643e-05
2.04745e-05
2.05118e-05
2.05232e-05
2.00336e-05
2.02651e-05
2.07864e-05
2.09481e-05
2.09349e-05
2.07485e-05
2.047e-05
2.0368e-05
2.03642e-05
2.03747e-05
2.03911e-05
2.04409e-05
2.05245e-05
2.06341e-05
2.0768e-05
2.08795e-05
2.0937e-05
2.09446e-05
2.01652e-05
2.02071e-05
2.04724e-05
2.06915e-05
2.07429e-05
2.07517e-05
2.07521e-05
2.07455e-05
2.06954e-05
2.0576e-05
2.05331e-05
2.05335e-05
2.05633e-05
2.0705e-05
2.09792e-05
2.11678e-05
2.12608e-05
2.12972e-05
2.12093e-05
2.09105e-05
2.05441e-05
2.05754e-05
2.06735e-05
2.07028e-05
2.07039e-05
2.07028e-05
2.06893e-05
2.06361e-05
2.05914e-05
2.05761e-05
2.05751e-05
2.05824e-05
2.06013e-05
2.06096e-05
2.06111e-05
2.06111e-05
2.07561e-05
2.0288e-05
2.01552e-05
2.01739e-05
2.02856e-05
2.05102e-05
2.07338e-05
2.0904e-05
2.09985e-05
2.10313e-05
2.10334e-05
2.10224e-05
2.09755e-05
2.08178e-05
2.05842e-05
2.04123e-05
2.03025e-05
2.02464e-05
2.00926e-05
2.00909e-05
2.04222e-05
2.08666e-05
2.09822e-05
2.10296e-05
2.12338e-05
2.13376e-05
2.12307e-05
2.09731e-05
2.08031e-05
2.07257e-05
2.07126e-05
2.07365e-05
2.09171e-05
2.11082e-05
2.11165e-05
2.10116e-05
2.00077e-05
2.0148e-05
2.04203e-05
2.04812e-05
2.04713e-05
2.04818e-05
2.07218e-05
2.13601e-05
2.14245e-05
2.13109e-05
2.09637e-05
2.07308e-05
2.06252e-05
2.05805e-05
2.05639e-05
2.05568e-05
2.05495e-05
2.05349e-05
2.00695e-05
2.00895e-05
2.00882e-05
2.0206e-05
2.02632e-05
2.02266e-05
2.02932e-05
2.04922e-05
2.06796e-05
2.07632e-05
2.07654e-05
2.07402e-05
2.07325e-05
2.07408e-05
2.07623e-05
2.08008e-05
2.09001e-05
2.09923e-05
2.00625e-05
2.00488e-05
1.99771e-05
1.99286e-05
1.98898e-05
1.98612e-05
1.98656e-05
1.98636e-05
1.97774e-05
1.95682e-05
1.95266e-05
1.9601e-05
1.99754e-05
2.11459e-05
2.2415e-05
2.31523e-05
2.34451e-05
2.3455e-05
2.03426e-05
1.69856e-05
1.56285e-05
1.65918e-05
1.92187e-05
2.58919e-05
3.12571e-05
3.34108e-05
3.464e-05
3.65686e-05
4.0244e-05
4.80653e-05
6.50912e-05
8.26729e-05
9.66971e-05
0.000106999
0.000113813
0.000115447
3.01514e-05
0.000123422
0.000169411
0.000193193
0.000248749
0.00034499
0.000398302
0.000416852
0.000425746
0.000439232
0.000467323
0.000536086
0.000610487
0.000658215
0.000676811
0.000679318
0.000678537
0.000674818
0.0021383
0.00226592
0.00232487
0.00230323
0.00226056
0.00219523
0.00211436
0.00202437
0.00192024
0.001812
0.00171544
0.00163381
0.00155956
0.00148315
0.00140293
0.00132464
0.00125098
0.00119066
8.4443e-07
4.49175e-06
1.36296e-05
3.13051e-05
5.52967e-05
8.22138e-05
0.000110496
0.000139534
0.000168587
0.00019655
0.000222379
0.000245553
0.000266
0.000284885
0.000304197
0.000326293
0.00035237
0.000379543
0.000406446
0.000432047
0.000455612
0.000478672
0.000499424
0.000511425
0.00051589
0.000504078
0.000479528
0.000437499
0.000387612
0.000338831
0.000279657
0.000214833
0.000173294
0.000129841
8.60681e-05
6.64876e-05
4.41006e-05
3.05879e-05
2.41086e-05
2.11052e-05
2.03301e-05
2.08001e-05
2.09618e-05
2.10159e-05
2.08924e-05
2.06022e-05
2.00649e-05
1.97952e-05
1.92951e-05
1.84167e-05
1.7482e-05
1.68268e-05
1.60367e-05
1.48739e-05
1.39055e-05
1.31122e-05
1.18773e-05
1.10085e-05
9.91556e-06
8.92433e-06
7.93888e-06
6.89775e-06
5.91996e-06
4.99379e-06
4.16881e-06
3.37793e-06
2.65402e-06
2.09505e-06
1.69442e-06
1.39253e-06
1.15543e-06
9.62267e-07
7.99309e-07
6.60563e-07
5.42554e-07
4.4248e-07
3.58227e-07
2.88048e-07
2.30013e-07
1.82154e-07
1.42873e-07
1.10936e-07
8.52791e-08
6.49237e-08
4.89694e-08
3.66085e-08
2.71351e-08
1.99481e-08
1.45472e-08
1.05248e-08
7.55481e-09
5.38034e-09
3.80157e-09
2.66485e-09
1.85325e-09
1.27861e-09
8.75178e-10
5.94319e-10
4.0044e-10
2.67723e-10
1.77624e-10
1.1696e-10
7.64422e-11
4.95967e-11
3.195e-11
2.0441e-11
1.29927e-11
8.20895e-12
5.15895e-12
3.22413e-12
2.01123e-12
1.25296e-12
7.79059e-13
4.83169e-13
2.98725e-13
1.84012e-13
1.12854e-13
6.88906e-14
4.18819e-14
2.53817e-14
1.53536e-14
9.28644e-15
5.62929e-15
3.43162e-15
2.11471e-15
1.32807e-15
8.60133e-16
5.83386e-16
4.21072e-16
3.27073e-16
2.73755e-16
2.44633e-16
2.29906e-16
2.23673e-16
2.2206e-16
2.22045e-16
2.22045e-16
2.22045e-16
2.22045e-16
2.22045e-16
2.22045e-16
2.22045e-16
2.22045e-16
2.22045e-16
2.22045e-16
2.22045e-16
2.22045e-16
2.22045e-16
2.22045e-16
2.22045e-16
2.22045e-16
2.22045e-16
2.22045e-16
2.22045e-16
2.22045e-16
2.22045e-16
2.22045e-16
2.22045e-16
2.22045e-16
2.22045e-16
2.22045e-16
2.22045e-16
2.22045e-16
2.22045e-16
2.22045e-16
2.22045e-16
2.22045e-16
2.22045e-16
2.22045e-16
2.22045e-16
2.22045e-16
2.22045e-16
2.22045e-16
2.22045e-16
2.22045e-16
2.37888e-16
8.86442e-16
3.02942e-13
1.73347e-10
9.67378e-08
2.52781e-06
1.26024e-05
3.39854e-05
6.47364e-05
0.000103653
0.000144895
0.000180881
0.000209257
0.000231676
0.000249724
0.000263259
0.000273138
0.000279942
0.000284025
0.00028587
0.00028512
0.000280333
0.000272564
0.000263653
0.000253421
0.000241984
0.000229246
0.000213973
0.000196498
0.000178243
0.000159941
0.000141554
0.000123718
0.000109383
9.90198e-05
8.97167e-05
8.3426e-05
8.00744e-05
7.80482e-05
7.73853e-05
7.8688e-05
8.11547e-05
8.31804e-05
8.56946e-05
8.68201e-05
8.80938e-05
8.87468e-05
8.90115e-05
8.885e-05
8.77806e-05
8.51858e-05
8.37549e-05
8.2616e-05
7.96168e-05
7.55017e-05
7.29168e-05
7.08423e-05
6.68016e-05
6.28949e-05
6.0388e-05
5.67412e-05
5.33333e-05
5.03514e-05
4.69942e-05
4.3859e-05
4.07547e-05
3.74978e-05
3.40173e-05
3.048e-05
2.72981e-05
2.39979e-05
1.96989e-05
1.4911e-05
1.13261e-05
9.09908e-06
7.46656e-06
6.27778e-06
5.32414e-06
4.50535e-06
3.79401e-06
3.17467e-06
2.63781e-06
2.18085e-06
1.79777e-06
1.47275e-06
1.19564e-06
9.61987e-07
7.67953e-07
6.08792e-07
4.7948e-07
3.75257e-07
2.91859e-07
2.25578e-07
1.73244e-07
1.32186e-07
1.0018e-07
7.53931e-08
5.63272e-08
4.17655e-08
3.07266e-08
2.24231e-08
1.62277e-08
1.16442e-08
8.28304e-09
5.84043e-09
4.08174e-09
2.82733e-09
1.94101e-09
1.32062e-09
8.90439e-10
5.94969e-10
3.94003e-10
2.58674e-10
1.68448e-10
1.0888e-10
6.99003e-11
4.46014e-11
2.83015e-11
1.78654e-11
1.12203e-11
7.01112e-12
4.35649e-12
2.69053e-12
1.65343e-12
1.01124e-12
6.15647e-13
3.73265e-13
2.25513e-13
1.35838e-13
8.16096e-14
4.8921e-14
2.92778e-14
1.75123e-14
1.04897e-14
6.31239e-15
3.83496e-15
2.36859e-15
1.50105e-15
9.87169e-16
6.8217e-16
5.00554e-16
3.919e-16
3.26533e-16
2.86963e-16
2.62846e-16
2.48031e-16
2.38844e-16
2.33086e-16
2.29429e-16
2.27071e-16
2.25523e-16
2.24486e-16
2.23781e-16
2.23294e-16
2.22953e-16
2.22711e-16
2.22536e-16
2.22406e-16
2.22309e-16
2.22236e-16
2.22182e-16
2.22142e-16
2.22115e-16
2.22095e-16
2.22082e-16
2.22073e-16
2.22068e-16
2.22064e-16
2.22061e-16
2.22059e-16
2.22057e-16
2.22056e-16
2.22055e-16
2.22054e-16
2.22053e-16
2.22052e-16
2.2205e-16
2.22049e-16
2.2205e-16
2.22086e-16
2.22692e-16
2.61382e-16
2.19777e-14
1.45247e-11
8.37168e-09
2.87543e-06
1.35815e-05
3.32881e-05
5.50021e-05
7.26103e-05
8.95628e-05
0.000104126
0.000116062
0.000128303
0.000137564
0.000143005
0.000145402
0.000145944
0.00014276
0.000137943
0.000132262
0.000127202
0.000123194
0.000118619
0.000114094
0.000110031
0.000106531
0.000103789
0.000101824
0.000100682
0.000100191
0.000100201
0.000101068
0.000102818
0.000104427
0.000108151
0.0001137
0.000120693
0.000127897
0.000135528
0.000143592
0.000150339
0.000156235
0.000161626
0.00016627
0.00017124
0.000176248
0.000178761
0.000179393
0.000175836
0.000171942
0.000170104
0.000163925
0.000153364
0.000145456
0.000141363
0.000132823
0.000121549
0.00011607
0.000109031
9.85369e-05
9.39166e-05
8.65294e-05
8.12738e-05
7.55515e-05
6.95477e-05
6.32696e-05
5.71284e-05
5.11647e-05
4.54744e-05
3.99504e-05
3.46349e-05
2.96247e-05
2.50705e-05
2.10353e-05
1.76462e-05
1.50672e-05
1.3074e-05
1.13152e-05
9.74451e-06
8.33896e-06
7.07851e-06
5.95604e-06
4.97602e-06
4.12463e-06
3.37441e-06
2.73384e-06
2.20777e-06
1.78057e-06
1.43396e-06
1.15231e-06
9.23127e-07
7.36672e-07
5.85165e-07
4.62416e-07
3.63302e-07
2.83637e-07
2.19914e-07
1.69248e-07
1.29238e-07
9.78813e-08
7.35049e-08
5.47183e-08
4.03714e-08
2.95193e-08
2.13918e-08
1.53663e-08
1.09447e-08
7.73264e-09
5.4207e-09
3.7678e-09
2.59519e-09
1.77141e-09
1.19875e-09
8.04855e-10
5.36631e-10
3.55612e-10
2.34373e-10
1.53677e-10
1.00247e-10
6.50345e-11
4.19352e-11
2.68592e-11
1.70777e-11
1.0777e-11
6.74949e-12
4.19793e-12
2.59601e-12
1.59681e-12
9.77183e-13
5.95063e-13
3.60708e-13
2.17773e-13
1.31069e-13
7.87404e-14
4.72927e-14
2.84521e-14
1.71829e-14
1.0443e-14
6.40659e-15
3.98301e-15
2.52274e-15
1.63928e-15
1.10243e-15
7.74663e-16
5.73377e-16
4.48809e-16
3.70942e-16
3.21646e-16
2.89953e-16
2.69205e-16
2.55348e-16
2.45922e-16
2.3941e-16
2.34846e-16
2.31596e-16
2.29245e-16
2.27508e-16
2.2621e-16
2.25225e-16
2.245e-16
2.23957e-16
2.23575e-16
2.23289e-16
2.231e-16
2.22957e-16
2.2287e-16
2.22797e-16
2.22749e-16
2.22704e-16
2.2267e-16
2.22635e-16
2.22603e-16
2.22565e-16
2.2252e-16
2.22437e-16
2.22312e-16
2.22275e-16
2.22305e-16
2.22555e-16
2.23505e-16
2.3846e-16
1.26576e-15
6.56364e-13
3.47034e-10
2.41167e-06
1.07342e-05
2.34585e-05
3.36416e-05
4.02701e-05
4.60945e-05
5.12058e-05
5.52237e-05
5.96634e-05
6.38698e-05
6.75616e-05
7.0913e-05
7.38689e-05
7.65526e-05
7.92512e-05
8.20945e-05
8.533e-05
8.87865e-05
9.22783e-05
9.59717e-05
0.000100003
0.00010436
0.000108943
0.0001164
0.000127231
0.000139491
0.000149336
0.000164505
0.000180391
0.000197055
0.000216237
0.000238707
0.000259245
0.000277558
0.000294797
0.000310827
0.000325898
0.000336414
0.000343802
0.000349996
0.00035383
0.000355277
0.000353688
0.000345316
0.000337968
0.000334795
0.000322664
0.000303023
0.000285676
0.000269228
0.000256623
0.000234228
0.000212923
0.000198702
0.0001803
0.000161632
0.000145563
0.000127657
0.000112478
9.80911e-05
8.54309e-05
7.42189e-05
6.44301e-05
5.5904e-05
4.85373e-05
4.20768e-05
3.6363e-05
3.14648e-05
2.73454e-05
2.3877e-05
2.09478e-05
1.84476e-05
1.61801e-05
1.40958e-05
1.22315e-05
1.05635e-05
9.07607e-06
7.76464e-06
6.61792e-06
5.60236e-06
4.68842e-06
3.89102e-06
3.2401e-06
2.69956e-06
2.24495e-06
1.86093e-06
1.53644e-06
1.26276e-06
1.0326e-06
8.39975e-07
6.79507e-07
5.46544e-07
4.37006e-07
3.4728e-07
2.74212e-07
2.15071e-07
1.67508e-07
1.29513e-07
9.93746e-08
7.56431e-08
5.71011e-08
4.27314e-08
3.16901e-08
2.32821e-08
1.69404e-08
1.22081e-08
8.71427e-09
6.16197e-09
4.31782e-09
3.00027e-09
2.06928e-09
1.41802e-09
9.66295e-10
6.55074e-10
4.41785e-10
2.96256e-10
1.97413e-10
1.30634e-10
8.57879e-11
5.58791e-11
3.60906e-11
2.31077e-11
1.46656e-11
9.23123e-12
5.76697e-12
3.57863e-12
2.20792e-12
1.35589e-12
8.29784e-13
5.06734e-13
3.0922e-13
1.88807e-13
1.155e-13
7.08714e-14
4.36737e-14
2.70661e-14
1.68975e-14
1.06505e-14
6.79969e-15
4.41847e-15
2.94047e-15
2.01646e-15
1.43098e-15
1.05387e-15
8.06569e-16
6.41223e-16
5.28411e-16
4.50067e-16
3.94869e-16
3.55448e-16
3.26859e-16
3.05963e-16
2.90393e-16
2.78774e-16
2.69855e-16
2.63457e-16
2.58452e-16
2.55146e-16
2.52289e-16
2.50737e-16
2.49083e-16
2.48509e-16
2.47342e-16
2.46969e-16
2.45849e-16
2.45477e-16
2.43744e-16
2.43202e-16
2.40093e-16
2.38583e-16
2.32356e-16
2.29192e-16
2.30499e-16
2.39212e-16
2.82446e-16
4.00836e-16
3.30754e-15
5.95396e-15
8.39328e-14
1.51869e-11
1.69941e-06
6.9903e-06
1.46373e-05
2.0689e-05
2.38448e-05
2.68523e-05
3.02855e-05
3.39195e-05
3.82518e-05
4.30136e-05
4.80416e-05
5.34608e-05
5.92141e-05
6.5415e-05
7.18437e-05
7.8476e-05
8.53511e-05
9.26939e-05
0.000101461
0.000111712
0.000124211
0.000138439
0.000153811
0.000162314
0.00017125
0.000185002
0.000207855
0.000230736
0.000257693
0.000291803
0.00032683
0.000352846
0.000377348
0.000403469
0.000420505
0.000432207
0.000440645
0.000446071
0.000451852
0.000454773
0.000455404
0.000451765
0.000435033
0.000424223
0.000419516
0.000407548
0.00038776
0.000373907
0.00036015
0.000340658
0.000320352
0.000292244
0.000265728
0.000237982
0.000214
0.000193608
0.000171112
0.000151402
0.000132189
0.000114625
9.86311e-05
8.4525e-05
7.22537e-05
6.16124e-05
5.23063e-05
4.41742e-05
3.71239e-05
3.11961e-05
2.6278e-05
2.22145e-05
1.88597e-05
1.6098e-05
1.39694e-05
1.23427e-05
1.10304e-05
9.89697e-06
8.81001e-06
7.73246e-06
6.72413e-06
5.8043e-06
4.97429e-06
4.23516e-06
3.58434e-06
3.01632e-06
2.52455e-06
2.10167e-06
1.74057e-06
1.43397e-06
1.17532e-06
9.58146e-07
7.76552e-07
6.25784e-07
5.02002e-07
4.00796e-07
3.18401e-07
2.5162e-07
1.9775e-07
1.54515e-07
1.2e-07
9.26027e-08
7.09861e-08
5.40389e-08
4.08414e-08
3.06364e-08
2.28035e-08
1.68374e-08
1.23296e-08
8.95185e-09
6.44273e-09
4.5954e-09
3.24774e-09
2.27376e-09
1.57654e-09
1.08229e-09
7.35388e-10
4.94376e-10
3.28702e-10
2.16075e-10
1.40336e-10
9.00086e-11
5.70265e-11
3.56347e-11
2.19016e-11
1.3315e-11
8.05186e-12
4.84428e-12
2.90122e-12
1.73179e-12
1.03252e-12
6.16806e-13
3.70715e-13
2.25331e-13
1.39337e-13
8.81723e-14
5.73609e-14
3.84428e-14
2.65184e-14
1.8764e-14
1.35517e-14
9.93711e-15
7.36348e-15
5.49748e-15
4.131e-15
3.12395e-15
2.37985e-15
1.82953e-15
1.42165e-15
1.11929e-15
8.95371e-16
7.28865e-16
6.04517e-16
5.11804e-16
4.42443e-16
3.89911e-16
3.49922e-16
3.19859e-16
2.97221e-16
2.79773e-16
2.6605e-16
2.55685e-16
2.47946e-16
2.42326e-16
2.38125e-16
2.34336e-16
2.31299e-16
2.29072e-16
2.26688e-16
2.2609e-16
2.26793e-16
2.31972e-16
2.58571e-16
3.73256e-16
8.19556e-16
2.27061e-15
9.38554e-15
2.11611e-14
3.69297e-13
4.42715e-13
6.196e-12
7.36502e-12
1.26532e-06
4.69163e-06
9.36707e-06
1.32513e-05
1.53468e-05
1.78555e-05
2.13826e-05
2.57016e-05
3.08868e-05
3.6764e-05
4.33624e-05
5.0532e-05
5.81352e-05
6.60229e-05
7.48358e-05
8.53774e-05
9.91988e-05
0.000118767
0.000140814
0.000157927
0.000169084
0.000180368
0.000192608
0.000211249
0.000245838
0.000290569
0.000335298
0.000370917
0.000410399
0.000441069
0.000460188
0.000475905
0.00049314
0.000507704
0.000518919
0.00052346
0.000526744
0.000528529
0.000528783
0.000524231
0.000521983
0.000509789
0.000484115
0.000465957
0.000453539
0.000426244
0.000409673
0.000401586
0.000387319
0.000376911
0.000371136
0.000358444
0.000345632
0.0003225
0.00028638
0.000257492
0.000225267
0.000198816
0.000173598
0.000151265
0.000129785
0.000110086
9.32172e-05
7.93431e-05
6.7325e-05
5.67264e-05
4.69583e-05
3.80953e-05
3.05704e-05
2.43747e-05
1.95211e-05
1.58266e-05
1.29623e-05
1.0709e-05
8.91486e-06
7.53737e-06
6.56985e-06
5.91619e-06
5.40227e-06
4.90897e-06
4.38575e-06
3.85183e-06
3.34301e-06
2.87028e-06
2.44084e-06
2.05728e-06
1.71996e-06
1.42663e-06
1.175e-06
9.60691e-07
7.80784e-07
6.29802e-07
5.05599e-07
4.03906e-07
3.21035e-07
2.53827e-07
1.9959e-07
1.56046e-07
1.21275e-07
9.36669e-08
7.18748e-08
5.47808e-08
4.14596e-08
3.11493e-08
2.32266e-08
1.71839e-08
1.26108e-08
9.17773e-09
6.62192e-09
4.73558e-09
3.35569e-09
2.35551e-09
1.63736e-09
1.12674e-09
7.6729e-10
5.16881e-10
3.443e-10
2.26675e-10
1.47426e-10
9.46704e-11
5.99896e-11
3.74857e-11
2.3081e-11
1.39932e-11
8.3465e-12
4.89418e-12
2.81933e-12
1.5946e-12
8.8518e-13
4.82258e-13
2.58044e-13
1.35866e-13
7.0676e-14
3.65923e-14
1.90939e-14
1.02338e-14
5.77347e-15
3.50975e-15
2.32652e-15
1.6722e-15
1.27985e-15
1.02276e-15
8.40973e-16
7.05239e-16
6.00813e-16
5.19355e-16
4.55306e-16
4.04944e-16
3.65488e-16
3.34518e-16
3.10147e-16
2.91088e-16
2.76232e-16
2.64472e-16
2.55166e-16
2.4799e-16
2.42362e-16
2.37908e-16
2.34416e-16
2.31491e-16
2.29358e-16
2.27918e-16
2.26434e-16
2.25592e-16
2.25649e-16
2.26413e-16
2.33781e-16
2.7339e-16
4.61651e-16
1.31489e-15
5.54194e-15
2.29963e-14
9.0107e-14
2.86051e-13
9.06748e-13
2.04754e-12
9.13082e-12
9.31648e-12
1.88859e-11
1.84738e-11
1.02089e-06
3.33441e-06
6.24937e-06
8.9694e-06
1.08178e-05
1.33959e-05
1.7273e-05
2.2257e-05
2.83362e-05
3.54256e-05
4.32479e-05
5.17434e-05
6.2103e-05
7.63316e-05
9.80403e-05
0.000119192
0.000140334
0.0001579
0.000167242
0.000178727
0.000197449
0.000220107
0.000255059
0.000307209
0.000357351
0.000404866
0.000434529
0.000456317
0.000484607
0.000503784
0.000518717
0.00054313
0.000567979
0.000596575
0.000631462
0.000662732
0.000695218
0.000721827
0.000742845
0.000756418
0.000761322
0.000743743
0.000714129
0.000646116
0.000574043
0.000481747
0.000441577
0.000410714
0.00037904
0.000368574
0.000364147
0.000361257
0.000360259
0.000354517
0.000339637
0.00030152
0.000267992
0.000230124
0.000199344
0.000173
0.000151651
0.00013235
0.000114015
9.71495e-05
8.32244e-05
7.16982e-05
6.21648e-05
5.3716e-05
4.50028e-05
3.57371e-05
2.69321e-05
2.02121e-05
1.51929e-05
1.15718e-05
8.98704e-06
7.11932e-06
5.72325e-06
4.65639e-06
3.86161e-06
3.3285e-06
3.00596e-06
2.78215e-06
2.56166e-06
2.30975e-06
2.04086e-06
1.77648e-06
1.52569e-06
1.29394e-06
1.08518e-06
9.00097e-07
7.39712e-07
6.01683e-07
4.85984e-07
3.89917e-07
3.10834e-07
2.46239e-07
1.93859e-07
1.51673e-07
1.17923e-07
9.10957e-08
6.99095e-08
5.32878e-08
4.03344e-08
3.03095e-08
2.26063e-08
1.67308e-08
1.22838e-08
8.94459e-09
6.45783e-09
4.6216e-09
3.27759e-09
2.30274e-09
1.60224e-09
1.10371e-09
7.52444e-10
5.07475e-10
3.38451e-10
2.2311e-10
1.45302e-10
9.34376e-11
5.92937e-11
3.71063e-11
2.28837e-11
1.38961e-11
8.30192e-12
4.87499e-12
2.81095e-12
1.58994e-12
8.81306e-13
4.78293e-13
2.53939e-13
1.3182e-13
6.68922e-14
3.32045e-14
1.61599e-14
7.75481e-15
3.71616e-15
1.82417e-15
9.58562e-16
5.70232e-16
3.97839e-16
3.2072e-16
2.848e-16
2.66523e-16
2.55928e-16
2.48887e-16
2.43683e-16
2.39585e-16
2.36305e-16
2.33605e-16
2.31409e-16
2.29601e-16
2.28135e-16
2.26964e-16
2.25926e-16
2.25213e-16
2.2453e-16
2.24016e-16
2.23698e-16
2.23171e-16
2.24043e-16
2.29817e-16
2.45611e-16
2.80184e-16
3.52357e-16
5.02453e-16
8.30981e-16
1.57745e-15
3.39612e-15
7.88047e-15
1.96147e-14
4.89085e-14
1.26126e-13
3.03142e-13
8.65876e-13
1.62015e-12
5.68477e-12
5.96602e-12
6.7161e-12
8.87489e-12
8.95373e-07
2.57297e-06
4.45219e-06
6.49087e-06
8.29623e-06
1.09986e-05
1.50743e-05
2.04909e-05
2.73747e-05
3.58724e-05
4.68921e-05
6.18048e-05
7.93903e-05
0.000101367
0.000123025
0.000144005
0.000164972
0.000182096
0.000199695
0.000227209
0.000264357
0.000302014
0.00035326
0.000408296
0.000448237
0.00047057
0.000486714
0.00051014
0.000541017
0.000578162
0.000626333
0.000692947
0.000781316
0.000911189
0.00109314
0.00132539
0.0016004
0.00187833
0.0021082
0.00222226
0.00226224
0.00215163
0.00202356
0.00185814
0.00146679
0.0010629
0.000865146
0.000703339
0.000511109
0.000431708
0.00038092
0.00035829
0.000351179
0.000352742
0.000353283
0.000342216
0.000305867
0.000253543
0.000213109
0.000181364
0.000157272
0.000139198
0.000123211
0.000107604
9.2313e-05
7.86971e-05
6.83302e-05
6.04121e-05
5.41951e-05
4.8808e-05
4.22594e-05
3.33213e-05
2.41863e-05
1.72158e-05
1.21785e-05
8.67916e-06
6.31379e-06
4.7308e-06
3.64856e-06
2.8705e-06
2.29487e-06
1.89232e-06
1.64007e-06
1.4982e-06
1.39883e-06
1.29581e-06
1.17482e-06
1.04209e-06
9.0841e-07
7.7879e-07
6.57731e-07
5.4733e-07
4.49968e-07
3.66071e-07
2.9496e-07
2.35552e-07
1.86549e-07
1.46581e-07
1.14307e-07
8.84854e-08
6.79999e-08
5.18782e-08
3.92892e-08
2.95338e-08
2.20321e-08
1.63078e-08
1.19743e-08
8.72008e-09
6.29652e-09
4.50694e-09
3.19702e-09
2.24683e-09
1.56395e-09
1.07786e-09
7.35247e-10
4.96218e-10
3.31208e-10
2.18536e-10
1.42473e-10
9.17264e-11
5.82852e-11
3.65296e-11
2.25656e-11
1.37285e-11
8.21875e-12
4.83718e-12
2.79615e-12
1.58589e-12
8.81647e-13
4.7995e-13
2.55615e-13
1.3309e-13
6.77147e-14
3.36713e-14
1.6386e-14
7.83533e-15
3.71618e-15
1.78455e-15
9.03235e-16
5.12078e-16
3.43167e-16
2.72155e-16
2.43026e-16
2.31301e-16
2.26609e-16
2.24689e-16
2.23841e-16
2.23406e-16
2.2314e-16
2.22944e-16
2.22791e-16
2.22662e-16
2.22554e-16
2.22467e-16
2.22383e-16
2.22329e-16
2.2227e-16
2.22227e-16
2.222e-16
2.22152e-16
2.22196e-16
2.25821e-16
2.38471e-16
2.67818e-16
3.29753e-16
4.56685e-16
7.2955e-16
1.33122e-15
2.75952e-15
6.14749e-15
1.47039e-14
3.50054e-14
8.60118e-14
1.94915e-13
5.67352e-13
9.09802e-13
2.21539e-12
2.48194e-12
2.68562e-12
3.37997e-12
8.30397e-07
2.16446e-06
3.4545e-06
5.05246e-06
6.76027e-06
9.46295e-06
1.36259e-05
1.9356e-05
2.70182e-05
3.6901e-05
5.15673e-05
7.43955e-05
0.000101829
0.0001281
0.000150741
0.000168971
0.000185281
0.00020303
0.00023011
0.000270885
0.000320044
0.000374657
0.00041405
0.000453139
0.000482264
0.000502708
0.000529811
0.000574155
0.000639802
0.000736433
0.000886041
0.00111831
0.00147264
0.0019959
0.00271462
0.00362845
0.00468859
0.00578381
0.00659445
0.00696027
0.00705365
0.00646584
0.00604275
0.00554124
0.00422864
0.0032057
0.00248653
0.00188797
0.00120947
0.000878862
0.000617201
0.000477436
0.000401995
0.00036456
0.000352341
0.000354937
0.00034163
0.000292747
0.000230663
0.00018641
0.000156859
0.000137072
0.00012402
0.000110699
9.78627e-05
8.57084e-05
7.37662e-05
6.36388e-05
5.65434e-05
5.15613e-05
4.79173e-05
4.42705e-05
3.87061e-05
2.9962e-05
2.09665e-05
1.42733e-05
9.54231e-06
6.38573e-06
4.36286e-06
3.08925e-06
2.27807e-06
1.73401e-06
1.34757e-06
1.07405e-06
8.95694e-07
7.86545e-07
7.20227e-07
6.71809e-07
6.2316e-07
5.66948e-07
5.03878e-07
4.38566e-07
3.74388e-07
3.14309e-07
2.59867e-07
2.11886e-07
1.70598e-07
1.35787e-07
1.06949e-07
8.34211e-08
6.44786e-08
4.94066e-08
3.75412e-08
2.82914e-08
2.11471e-08
1.56777e-08
1.15269e-08
8.40395e-09
6.07458e-09
4.35234e-09
3.09031e-09
2.17392e-09
1.51468e-09
1.04497e-09
7.13582e-10
4.82148e-10
3.22212e-10
2.12882e-10
1.38985e-10
8.96209e-11
5.70445e-11
3.58189e-11
2.21721e-11
1.35196e-11
8.11379e-12
4.78848e-12
2.77632e-12
1.57984e-12
8.81447e-13
4.81729e-13
2.57658e-13
1.3477e-13
6.89063e-14
3.44409e-14
1.68479e-14
8.09455e-15
3.85306e-15
1.85282e-15
9.3505e-16
5.25504e-16
3.47812e-16
2.72834e-16
2.42046e-16
2.29749e-16
2.24968e-16
2.23158e-16
2.22487e-16
2.22241e-16
2.2215e-16
2.22114e-16
2.22097e-16
2.22087e-16
2.2208e-16
2.22074e-16
2.22069e-16
2.22065e-16
2.22061e-16
2.22058e-16
2.22056e-16
2.22053e-16
2.22056e-16
2.23521e-16
2.31749e-16
2.53079e-16
2.99811e-16
3.95302e-16
5.96171e-16
1.02311e-15
1.99806e-15
4.20996e-15
9.54271e-15
2.14961e-14
5.12909e-14
1.0489e-13
2.30101e-13
4.40148e-13
5.58802e-13
6.8614e-13
7.72295e-13
1.04964e-12
7.91464e-07
1.96122e-06
2.91623e-06
4.24533e-06
5.89319e-06
8.53263e-06
1.27401e-05
1.89088e-05
2.73708e-05
3.95442e-05
5.70387e-05
7.95375e-05
0.000107651
0.000137712
0.000167382
0.000197163
0.000224977
0.000251953
0.000284384
0.000322623
0.000368842
0.000419536
0.000470431
0.000508049
0.000543678
0.000575086
0.000622873
0.000709372
0.000841533
0.00107026
0.00147112
0.00214404
0.00319765
0.00473258
0.00678663
0.00904864
0.0115517
0.0141257
0.0158304
0.0165753
0.0167294
0.0150888
0.0138209
0.0118199
0.00874895
0.00713597
0.00565475
0.00426535
0.00300856
0.00216684
0.00133679
0.000913698
0.000650736
0.000483884
0.000396216
0.000354874
0.0003435
0.000317304
0.000261946
0.000201294
0.000158054
0.000130753
0.000113566
0.000104398
9.66597e-05
8.71566e-05
7.71817e-05
6.76891e-05
5.88882e-05
5.23837e-05
4.83605e-05
4.5764e-05
4.35832e-05
4.06484e-05
3.48096e-05
2.5691e-05
1.7211e-05
1.11174e-05
7.02112e-06
4.43262e-06
2.86546e-06
1.9335e-06
1.37145e-06
1.01446e-06
7.7045e-07
6.01697e-07
4.90506e-07
4.16149e-07
3.65476e-07
3.33221e-07
3.10911e-07
2.89549e-07
2.63849e-07
2.34363e-07
2.03466e-07
1.72904e-07
1.44076e-07
1.17944e-07
9.50204e-08
7.54592e-08
5.91506e-08
4.58204e-08
3.51086e-08
2.66276e-08
2.00006e-08
1.48833e-08
1.09748e-08
8.02003e-09
5.8082e-09
4.16835e-09
2.96406e-09
2.08801e-09
1.4568e-09
1.00641e-09
6.88208e-10
4.65681e-10
3.11685e-10
2.06263e-10
1.34899e-10
8.71487e-11
5.55835e-11
3.49785e-11
2.1704e-11
1.32692e-11
7.98665e-12
4.7285e-12
2.75117e-12
1.57155e-12
8.80506e-13
4.83421e-13
2.59849e-13
1.36647e-13
7.02681e-14
3.5336e-14
1.73963e-14
8.41255e-15
4.02878e-15
1.94557e-15
9.81958e-16
5.48223e-16
3.58288e-16
2.77409e-16
2.43939e-16
2.30474e-16
2.25207e-16
2.23203e-16
2.22459e-16
2.2219e-16
2.22096e-16
2.22063e-16
2.22052e-16
2.22048e-16
2.22047e-16
2.22046e-16
2.22046e-16
2.22046e-16
2.22046e-16
2.22045e-16
2.22045e-16
2.22045e-16
2.22045e-16
2.22078e-16
2.25607e-16
2.38428e-16
2.69524e-16
3.3412e-16
4.67421e-16
7.39842e-16
1.33148e-15
2.60016e-15
5.45958e-15
1.13847e-14
2.78517e-14
4.73249e-14
1.05431e-13
1.23384e-13
1.37941e-13
1.70315e-13
1.95198e-13
2.79127e-13
7.55747e-07
1.85758e-06
2.60941e-06
3.70066e-06
5.2455e-06
7.89865e-06
1.22759e-05
1.9313e-05
3.05746e-05
4.77066e-05
6.99213e-05
9.36198e-05
0.000118438
0.000147443
0.000181059
0.000219584
0.000249232
0.000284775
0.000334922
0.000388925
0.000437572
0.000480715
0.000528142
0.00055899
0.000578829
0.000622145
0.000705781
0.000862927
0.00114161
0.0016668
0.00263913
0.00436603
0.00741687
0.011028
0.0143039
0.0194744
0.0252635
0.0309708
0.0360704
0.0387248
0.039661
0.0363949
0.0315838
0.0239271
0.0166972
0.0117661
0.00806331
0.0059284
0.00459691
0.00355489
0.00267324
0.00170295
0.00112402
0.000761634
0.000528884
0.000400222
0.000336838
0.000312504
0.000268606
0.000211364
0.000163725
0.000131341
0.000109709
9.59791e-05
8.7476e-05
8.20541e-05
7.6188e-05
6.86164e-05
6.0802e-05
5.36502e-05
4.82663e-05
4.52073e-05
4.35623e-05
4.21491e-05
4.0483e-05
3.73145e-05
3.00018e-05
2.04554e-05
1.29917e-05
7.91889e-06
4.72371e-06
2.82686e-06
1.74421e-06
1.13421e-06
7.82811e-07
5.67034e-07
4.23563e-07
3.2801e-07
2.6365e-07
2.16824e-07
1.82759e-07
1.59926e-07
1.45969e-07
1.37019e-07
1.28215e-07
1.17207e-07
1.03998e-07
8.98576e-08
7.57676e-08
6.24886e-08
5.05244e-08
4.01313e-08
3.13714e-08
2.41728e-08
1.83832e-08
1.38122e-08
1.02613e-08
7.54213e-09
5.48684e-09
3.95186e-09
2.81833e-09
1.99025e-09
1.39161e-09
9.63296e-10
6.59989e-10
4.47429e-10
3.00038e-10
1.98945e-10
1.3038e-10
8.44122e-11
5.3962e-11
3.40419e-11
2.11803e-11
1.29884e-11
7.84443e-12
4.66213e-12
2.72407e-12
1.56335e-12
8.80417e-13
4.86098e-13
2.629e-13
1.39183e-13
7.20959e-14
3.6541e-14
1.81398e-14