/*--------------------------------*- C++ -*----------------------------------*\
  =========                 |
  \\      /  F ield         | OpenFOAM: The Open Source CFD Toolbox
   \\    /   O peration     | Website:  https://openfoam.org
    \\  /    A nd           | Version:  7
     \\/     M anipulation  |
\*---------------------------------------------------------------------------*/
FoamFile
{
    version     2.0;
    format      ascii;
    class       volVectorField;
    location    "0.023";
    object      U;
}
// * * * * * * * * * * * * * * * * * * * * * * * * * * * * * * * * * * * * * //

dimensions      [0 1 -1 0 0 0 0];

internalField   nonuniform List<vector> 
12225
(
(4.70739 0.149272 0)
(4.09676 0.109326 0)
(3.64886 0.102936 0)
(3.28415 0.0877137 0)
(2.95248 0.0714766 0)
(2.64663 0.0612208 0)
(2.34756 0.0565451 0)
(2.05955 0.0491456 0)
(1.80442 0.0366978 0)
(1.59466 0.0245064 0)
(1.42666 0.01653 0)
(1.2964 0.0124766 0)
(1.18614 0.00960879 0)
(1.09886 0.00647438 0)
(1.01388 0.00365872 0)
(0.95503 0.00124755 0)
(0.891422 0.00374711 0)
(0.826269 0.000451629 0)
(4.92092 0.161131 0)
(4.79834 0.0718378 0)
(4.69247 0.081237 0)
(4.60436 0.0832478 0)
(4.50133 0.0848762 0)
(4.39315 0.0875421 0)
(4.28604 0.0917875 0)
(4.17643 0.0952052 0)
(4.0604 0.0937191 0)
(3.94183 0.0854693 0)
(3.82283 0.0736589 0)
(3.7127 0.0637247 0)
(3.6034 0.0576485 0)
(3.5039 0.0537355 0)
(3.40348 0.0512448 0)
(3.31057 0.0446 0)
(3.21922 0.0472274 0)
(3.13701 0.0414147 0)
(4.86228 0.17114 0)
(4.78526 0.104111 0)
(4.75052 0.131145 0)
(4.73401 0.135553 0)
(4.71748 0.125678 0)
(4.69789 0.114644 0)
(4.67687 0.110794 0)
(4.65952 0.112652 0)
(4.64434 0.112195 0)
(4.62386 0.105185 0)
(4.59237 0.0946805 0)
(4.55183 0.0861464 0)
(4.50801 0.0821093 0)
(4.46473 0.0800612 0)
(4.4256 0.0788713 0)
(4.38533 0.0770773 0)
(4.35066 0.0757463 0)
(4.30898 0.076583 0)
(5.01432 0.186334 0)
(4.88954 0.0909051 0)
(4.81578 0.0957946 0)
(4.81313 0.107332 0)
(4.81141 0.108982 0)
(4.78006 0.108122 0)
(4.73768 0.108766 0)
(4.71342 0.109232 0)
(4.71475 0.106515 0)
(4.72721 0.101108 0)
(4.7353 0.0954477 0)
(4.73254 0.0916398 0)
(4.72325 0.089792 0)
(4.71062 0.0867065 0)
(4.69966 0.0835021 0)
(4.68774 0.0789574 0)
(4.68028 0.076932 0)
(4.67034 0.0786961 0)
(4.86452 0.165359 0)
(4.81318 0.12472 0)
(4.77273 0.124431 0)
(4.76003 0.12986 0)
(4.76691 0.132185 0)
(4.78285 0.1289 0)
(4.79971 0.120966 0)
(4.8125 0.111462 0)
(4.81868 0.102244 0)
(4.81571 0.0946327 0)
(4.80399 0.0897578 0)
(4.78718 0.0877866 0)
(4.77152 0.0878992 0)
(4.7595 0.0875532 0)
(4.75195 0.0863435 0)
(4.74706 0.0843222 0)
(4.74539 0.0831408 0)
(4.74489 0.0840694 0)
(4.94726 0.176507 0)
(4.94783 0.101573 0)
(4.90755 0.103426 0)
(4.86055 0.116915 0)
(4.82551 0.115884 0)
(4.8101 0.108559 0)
(4.81054 0.105556 0)
(4.81948 0.108358 0)
(4.82798 0.112133 0)
(4.82803 0.113158 0)
(4.81803 0.111333 0)
(4.80302 0.107946 0)
(4.79035 0.103919 0)
(4.78318 0.0984701 0)
(4.78113 0.0920096 0)
(4.78163 0.085708 0)
(4.78377 0.0804674 0)
(4.78572 0.0785236 0)
(4.84802 0.15887 0)
(4.84193 0.12738 0)
(4.82291 0.136449 0)
(4.8224 0.150086 0)
(4.82181 0.147203 0)
(4.81711 0.129574 0)
(4.81296 0.109684 0)
(4.81357 0.0976152 0)
(4.81878 0.0944712 0)
(4.8238 0.0957838 0)
(4.8247 0.0973101 0)
(4.82139 0.0970335 0)
(4.81662 0.0947641 0)
(4.81222 0.0906438 0)
(4.80863 0.0857101 0)
(4.80589 0.0814273 0)
(4.80436 0.0784284 0)
(4.80436 0.0779775 0)
(4.94853 0.200607 0)
(4.87952 0.106428 0)
(4.82534 0.0986291 0)
(4.81374 0.113596 0)
(4.84307 0.12208 0)
(4.87751 0.118921 0)
(4.88691 0.112315 0)
(4.86891 0.109413 0)
(4.84114 0.110446 0)
(4.81971 0.112353 0)
(4.81014 0.113035 0)
(4.81039 0.111899 0)
(4.81631 0.108791 0)
(4.82374 0.103706 0)
(4.82989 0.0969006 0)
(4.83299 0.0897642 0)
(4.83428 0.0830377 0)
(4.83251 0.0783158 0)
(5.15207 0.254713 0)
(5.05782 0.165468 0)
(4.94251 0.152722 0)
(4.87317 0.143967 0)
(4.85826 0.127021 0)
(4.87044 0.115206 0)
(4.88048 0.113348 0)
(4.87735 0.116415 0)
(4.86646 0.11698 0)
(4.85683 0.111883 0)
(4.85317 0.103217 0)
(4.85571 0.0945432 0)
(4.86274 0.0877292 0)
(4.87163 0.082846 0)
(4.88057 0.0794652 0)
(4.88698 0.0774156 0)
(4.8915 0.0768878 0)
(4.89197 0.0776619 0)
(5.0039 0.31032 0)
(4.91695 0.19892 0)
(4.91809 0.155784 0)
(4.9368 0.131491 0)
(4.93939 0.113377 0)
(4.93717 0.105343 0)
(4.94089 0.107376 0)
(4.94906 0.114225 0)
(4.95516 0.118761 0)
(4.95393 0.117508 0)
(4.94383 0.111991 0)
(4.92721 0.105358 0)
(4.90856 0.0993781 0)
(4.89199 0.0940874 0)
(4.88048 0.0891353 0)
(4.87472 0.0847332 0)
(4.87448 0.0811827 0)
(4.87861 0.0796685 0)
(4.98974 0.295453 0)
(4.99722 0.183857 0)
(4.9906 0.144317 0)
(4.97044 0.140902 0)
(4.9527 0.135685 0)
(4.94091 0.122322 0)
(4.93453 0.111504 0)
(4.93363 0.110445 0)
(4.93563 0.115532 0)
(4.93571 0.11999 0)
(4.93111 0.120505 0)
(4.92222 0.116935 0)
(4.91204 0.109992 0)
(4.90279 0.100464 0)
(4.89665 0.08967 0)
(4.89294 0.0796766 0)
(4.89265 0.07201 0)
(4.89295 0.0687118 0)
(5.12304 0.288061 0)
(5.05761 0.212449 0)
(4.98875 0.165964 0)
(4.9578 0.136337 0)
(4.96779 0.118282 0)
(4.97829 0.11205 0)
(4.96497 0.112852 0)
(4.93639 0.116132 0)
(4.91215 0.118815 0)
(4.90371 0.11954 0)
(4.91135 0.118392 0)
(4.92833 0.115616 0)
(4.94766 0.111156 0)
(4.96297 0.104788 0)
(4.97258 0.0969553 0)
(4.97488 0.0888572 0)
(4.97394 0.0817553 0)
(4.96892 0.0770697 0)
(4.95664 0.240562 0)
(4.98067 0.207203 0)
(4.94898 0.181899 0)
(4.91204 0.153879 0)
(4.90579 0.130064 0)
(4.91618 0.122309 0)
(4.92283 0.127134 0)
(4.92425 0.13214 0)
(4.92616 0.129162 0)
(4.93096 0.118643 0)
(4.93756 0.105733 0)
(4.94374 0.0949035 0)
(4.94904 0.0878518 0)
(4.95377 0.0835882 0)
(4.95941 0.0806115 0)
(4.96622 0.0780355 0)
(4.97456 0.0755208 0)
(4.98364 0.0744291 0)
(5.10878 0.207279 0)
(5.00351 0.243061 0)
(4.92944 0.210414 0)
(4.91259 0.14922 0)
(4.93825 0.111223 0)
(4.97387 0.103871 0)
(4.99989 0.112245 0)
(5.01328 0.119351 0)
(5.01594 0.119599 0)
(5.00955 0.116527 0)
(4.99644 0.11401 0)
(4.97988 0.112085 0)
(4.96385 0.108298 0)
(4.95157 0.100771 0)
(4.94445 0.0895171 0)
(4.94296 0.0771991 0)
(4.94556 0.0659494 0)
(4.95179 0.0596858 0)
(4.95792 0.317148 0)
(4.9729 0.278021 0)
(5.00358 0.229335 0)
(5.01088 0.147568 0)
(5.00096 0.0896745 0)
(4.98621 0.0760263 0)
(4.97629 0.091914 0)
(4.97496 0.113609 0)
(4.981 0.126949 0)
(4.99017 0.129866 0)
(4.99837 0.125861 0)
(5.00322 0.118471 0)
(5.0049 0.109273 0)
(5.00413 0.0990907 0)
(5.00234 0.0882061 0)
(4.99948 0.0778927 0)
(4.99683 0.0688604 0)
(4.99343 0.0626413 0)
(5.00205 0.203987 0)
(4.989 0.214973 0)
(5.03064 0.179823 0)
(5.0533 0.145526 0)
(5.04861 0.132198 0)
(5.02759 0.134332 0)
(5.00911 0.134572 0)
(5.00395 0.124883 0)
(5.01126 0.111152 0)
(5.02396 0.102727 0)
(5.03469 0.102728 0)
(5.03856 0.107018 0)
(5.03555 0.109034 0)
(5.02781 0.105112 0)
(5.02003 0.0952653 0)
(5.01418 0.0832358 0)
(5.01372 0.0714467 0)
(5.01701 0.0638707 0)
(5.05522 0.278226 0)
(5.02217 0.242391 0)
(5.00719 0.1844 0)
(4.9994 0.140534 0)
(4.99614 0.112137 0)
(5.00738 0.102992 0)
(5.02727 0.103037 0)
(5.04096 0.101832 0)
(5.04157 0.09924 0)
(5.03316 0.100479 0)
(5.02421 0.107884 0)
(5.02093 0.117962 0)
(5.0254 0.124331 0)
(5.03644 0.122117 0)
(5.05216 0.109691 0)
(5.06938 0.089786 0)
(5.0874 0.0655406 0)
(5.10259 0.0427098 0)
(4.9962 0.194941 0)
(5.00673 0.212632 0)
(5.0106 0.203695 0)
(5.0124 0.15733 0)
(5.01405 0.11516 0)
(5.02211 0.0966549 0)
(5.02949 0.101405 0)
(5.02978 0.117553 0)
(5.02304 0.130979 0)
(5.0161 0.133395 0)
(5.01699 0.123291 0)
(5.02937 0.103235 0)
(5.0518 0.0774977 0)
(5.07999 0.050496 0)
(5.10879 0.0268955 0)
(5.1337 0.0097959 0)
(5.15231 0.00110709 0)
(5.16283 0.00131134 0)
(5.06007 0.199282 0)
(5.0741 0.227709 0)
(5.07911 0.213245 0)
(5.07838 0.150717 0)
(5.06197 0.099807 0)
(5.04238 0.0810841 0)
(5.03646 0.0892452 0)
(5.04482 0.10555 0)
(5.0635 0.111292 0)
(5.08895 0.0996118 0)
(5.11537 0.0752778 0)
(5.13657 0.0476856 0)
(5.14973 0.0245244 0)
(5.15539 0.00953777 0)
(5.15527 0.00289494 0)
(5.15135 0.00277019 0)
(5.14521 0.00685507 0)
(5.13906 0.0131218 0)
(5.01684 0.256301 0)
(5.05611 0.190274 0)
(5.08205 0.17633 0)
(5.10913 0.166129 0)
(5.11549 0.150733 0)
(5.10073 0.131442 0)
(5.09011 0.10655 0)
(5.09329 0.0791062 0)
(5.10591 0.0562599 0)
(5.12309 0.0428836 0)
(5.14022 0.0383153 0)
(5.1529 0.0385721 0)
(5.15982 0.0395776 0)
(5.16209 0.0392943 0)
(5.16192 0.0375414 0)
(5.16035 0.0351113 0)
(5.15903 0.0326206 0)
(5.15793 0.0300959 0)
(5.06759 0.226339 0)
(5.0768 0.159714 0)
(5.07542 0.159099 0)
(5.09314 0.146085 0)
(5.11724 0.128336 0)
(5.1388 0.113476 0)
(5.15978 0.0955193 0)
(5.17433 0.0718114 0)
(5.17922 0.0473789 0)
(5.17945 0.0279796 0)
(5.18096 0.0155853 0)
(5.18554 0.00901394 0)
(5.19281 0.00633666 0)
(5.20123 0.00623017 0)
(5.21052 0.00791477 0)
(5.21953 0.0103612 0)
(5.2289 0.0124807 0)
(5.23748 0.013106 0)
(5.09064 0.253542 0)
(5.09427 0.197915 0)
(5.10017 0.152375 0)
(5.11832 0.123416 0)
(5.1435 0.104306 0)
(5.16138 0.0896887 0)
(5.17286 0.078679 0)
(5.17995 0.0689802 0)
(5.18621 0.0586112 0)
(5.19723 0.0474017 0)
(5.21419 0.0360333 0)
(5.23269 0.0261731 0)
(5.24841 0.0190173 0)
(5.25974 0.0142159 0)
(5.26712 0.0105196 0)
(5.27201 0.00730155 0)
(5.27638 0.0039073 0)
(5.28197 0.000497748 0)
(4.97825 0.195467 0)
(5.00909 0.166924 0)
(5.03865 0.132934 0)
(5.07883 0.104707 0)
(5.12466 0.0853977 0)
(5.15518 0.0743814 0)
(5.16811 0.0633824 0)
(5.17005 0.0441599 0)
(5.17099 0.017312 0)
(5.17804 -0.00948267 0)
(5.19272 -0.0269978 0)
(5.21286 -0.0327484 0)
(5.23421 -0.0290273 0)
(5.25311 -0.0200307 0)
(5.26833 -0.0109347 0)
(5.27974 -0.00539934 0)
(5.28861 -0.00505135 0)
(5.29516 -0.0105364 0)
(5.06533 0.238095 0)
(5.06877 0.1872 0)
(5.10289 0.107566 0)
(5.14926 0.0657422 0)
(5.17527 0.0547782 0)
(5.19008 0.0644488 0)
(5.21276 0.0770956 0)
(5.2436 0.0756085 0)
(5.27163 0.0557058 0)
(5.28899 0.0259302 0)
(5.29246 -0.00216062 0)
(5.28489 -0.0198516 0)
(5.27655 -0.0261061 0)
(5.27613 -0.0247569 0)
(5.28725 -0.0204853 0)
(5.30758 -0.0167119 0)
(5.33396 -0.0150784 0)
(5.36007 -0.0157595 0)
(4.96745 0.271311 0)
(5.09249 0.139094 0)
(5.17153 0.0727106 0)
(5.20256 0.0563325 0)
(5.19883 0.0480099 0)
(5.2053 0.0330265 0)
(5.24251 0.0113697 0)
(5.29549 -0.00948894 0)
(5.34132 -0.0219109 0)
(5.3671 -0.0244717 0)
(5.3747 -0.0227341 0)
(5.3739 -0.0223449 0)
(5.3727 -0.0267243 0)
(5.3749 -0.0363363 0)
(5.38069 -0.0484906 0)
(5.38815 -0.0597684 0)
(5.39547 -0.0675936 0)
(5.40124 -0.0703881 0)
(4.99643 0.252761 0)
(5.01649 0.107404 0)
(5.10937 0.0679865 0)
(5.20345 0.0724242 0)
(5.26231 0.0643 0)
(5.30011 0.0401686 0)
(5.32936 0.0172743 0)
(5.35108 0.00532488 0)
(5.36578 0.00176801 0)
(5.37873 -0.00108383 0)
(5.39479 -0.0063733 0)
(5.41406 -0.0142441 0)
(5.43397 -0.0223983 0)
(5.45121 -0.0281988 0)
(5.46362 -0.0307821 0)
(5.47056 -0.0310066 0)
(5.47325 -0.0301188 0)
(5.47314 -0.0300746 0)
(5.0321 0.28972 0)
(5.17001 0.0612822 0)
(5.24086 -0.0152287 0)
(5.28106 -0.0171118 0)
(5.31517 -0.011984 0)
(5.34583 -0.0150981 0)
(5.37154 -0.0227447 0)
(5.39367 -0.0310638 0)
(5.41545 -0.0382243 0)
(5.43838 -0.0434841 0)
(5.4603 -0.0478887 0)
(5.47739 -0.052411 0)
(5.48799 -0.0572187 0)
(5.49325 -0.061911 0)
(5.4971 -0.0656795 0)
(5.50234 -0.0680853 0)
(5.51125 -0.068953 0)
(5.52302 -0.0687341 0)
(5.07092 0.150769 0)
(5.23962 0.0518728 0)
(5.30865 0.0485029 0)
(5.3178 0.0426887 0)
(5.34323 0.0257736 0)
(5.40595 0.0064509 0)
(5.47618 -0.0074985 0)
(5.52465 -0.0158776 0)
(5.5475 -0.0216294 0)
(5.55852 -0.0262301 0)
(5.5707 -0.0293864 0)
(5.58755 -0.0309123 0)
(5.60577 -0.0316743 0)
(5.62088 -0.0333401 0)
(5.6304 -0.0366587 0)
(5.63427 -0.041407 0)
(5.63403 -0.0464979 0)
(5.63121 -0.0506894 0)
(4.96499 0.0478704 0)
(5.1582 -0.0204179 0)
(5.34289 -0.0135174 0)
(5.45004 -0.0297749 0)
(5.50537 -0.0570669 0)
(5.52691 -0.0744711 0)
(5.52763 -0.0738584 0)
(5.51919 -0.0632368 0)
(5.51256 -0.0554292 0)
(5.51375 -0.0566554 0)
(5.52071 -0.06444 0)
(5.5274 -0.0726316 0)
(5.52841 -0.0769092 0)
(5.52184 -0.0768238 0)
(5.50707 -0.0739425 0)
(5.48638 -0.0703447 0)
(5.46043 -0.0669909 0)
(5.43306 -0.0645881 0)
(4.94225 0.0965672 0)
(5.09901 -0.0206654 0)
(5.04688 -0.0266063 0)
(4.93534 -0.0204604 0)
(4.81794 -0.012155 0)
(4.69269 -0.00703397 0)
(4.57322 -0.00730498 0)
(4.4671 -0.0124976 0)
(4.36676 -0.0211513 0)
(4.25936 -0.0299198 0)
(4.1383 -0.0348184 0)
(4.00853 -0.0341273 0)
(3.88096 -0.029517 0)
(3.7645 -0.0241869 0)
(3.66098 -0.0203961 0)
(3.56927 -0.0186719 0)
(3.48482 -0.0182943 0)
(3.40796 -0.0187631 0)
(0.0132701 -0.0504694 2.31386e-22)
(0.0345152 -0.0574972 -2.29037e-22)
(0.0565055 -0.0554363 0)
(0.0738148 -0.0518433 0)
(0.0868116 -0.04705 0)
(0.094267 -0.0410386 2.12178e-22)
(0.0956523 -0.0340129 0)
(0.0906443 -0.0262859 0)
(0.0788015 -0.0180458 0)
(0.0595952 -0.00930917 0)
(0.0325008 2.32171e-05 -1.78767e-22)
(-0.00275516 0.0100643 0)
(-0.0467463 0.0207972 0)
(-0.100131 0.0322665 0)
(-0.163231 0.0443716 0)
(-0.23635 0.056938 -1.31504e-22)
(-0.319633 0.0697401 0)
(-0.413048 0.0824892 0)
(-0.516365 0.0948491 0)
(-0.62917 0.106476 0)
(-0.750897 0.117059 0)
(-0.880862 0.126393 0)
(-1.01817 0.134402 0)
(-1.16162 0.14094 2.80112e-24)
(-1.30998 0.145886 -2.75391e-23)
(-1.46197 0.149156 5.41823e-23)
(-1.61623 0.150704 8.25804e-23)
(-1.77131 0.150509 0)
(-1.92569 0.148588 0)
(-2.07779 0.144986 -1.75307e-22)
(-2.226 0.139736 -2.07223e-22)
(-2.36862 0.132871 0)
(-2.50394 0.124457 0)
(-2.63021 0.114591 -2.96823e-22)
(-2.74571 0.103387 0)
(-2.84875 0.0909856 0)
(-2.9378 0.0775815 3.59374e-22)
(-3.01149 0.0634638 0)
(-3.06865 0.0488895 3.74665e-22)
(-3.10847 0.034064 7.44818e-22)
(-3.13015 0.0194249 0)
(-3.13307 0.00542495 0)
(-3.11863 -0.00785743 0)
(-3.0868 -0.0204496 0)
(-3.03844 -0.0322241 0)
(-2.97424 -0.0431989 4.24391e-22)
(-2.89514 -0.0532833 3.29333e-22)
(-2.80219 -0.0624249 2.26345e-22)
(-2.69647 -0.070596 0)
(-2.57912 -0.0777746 -3.96088e-24)
(-2.45136 -0.0839509 0)
(-2.31443 -0.0891184 -2.27993e-22)
(-2.16963 -0.0932681 -3.43138e-22)
(-2.01832 -0.0963884 0)
(-1.8619 -0.0984763 0)
(-1.70179 -0.099552 0)
(-1.53943 -0.0996538 -7.63245e-22)
(-1.37618 -0.098835 0)
(-1.2133 -0.0971852 0)
(-1.05196 -0.0948066 0)
(-0.893231 -0.0917989 0)
(-0.738065 -0.0883359 0)
(-0.587203 -0.0844629 0)
(-0.441175 -0.0803515 0)
(-0.300485 -0.0759854 0)
(-0.165489 -0.0715788 1.29322e-21)
(-0.0368607 -0.0671409 0)
(0.085424 -0.0628734 0)
(0.201917 -0.0586147 -1.35246e-21)
(0.31257 -0.0544632 -1.36338e-21)
(0.417388 -0.0504522 0)
(0.516477 -0.0466023 1.37525e-21)
(0.609987 -0.0429256 -1.37702e-21)
(0.69809 -0.0394283 0)
(0.780975 -0.0361124 1.374e-21)
(0.858837 -0.0329769 0)
(0.931876 -0.030019 0)
(1.00029 -0.0272345 -1.35729e-21)
(1.06428 -0.0246186 0)
(1.12403 -0.0221662 1.34059e-21)
(1.17974 -0.0198719 0)
(1.23159 -0.0177303 -1.32096e-21)
(1.27976 -0.0157364 -1.31036e-21)
(1.32444 -0.0138849 -1.29937e-21)
(1.36578 -0.0121707 -2.57613e-21)
(1.40396 -0.010589 2.55306e-21)
(1.43916 -0.00913463 0)
(1.47152 -0.00780264 0)
(1.50121 -0.00658791 0)
(1.52838 -0.00548523 2.45825e-21)
(1.55319 -0.0044893 2.43435e-21)
(1.57578 -0.00359467 -2.4105e-21)
(1.5963 -0.00279571 0)
(1.61489 -0.00208677 2.3631e-21)
(1.63168 -0.00146208 2.33963e-21)
(1.6468 -0.000915709 2.31636e-21)
(1.66037 -0.000441653 0)
(1.67253 -3.34081e-05 0)
(1.68337 0.000315679 0)
(1.693 0.000612206 2.22552e-21)
(1.70154 0.000862018 0)
(1.70907 0.00106912 0)
(1.71568 0.00123879 -2.16006e-21)
(1.72146 0.0013748 0)
(1.72649 0.00148089 0)
(1.73083 0.00156275 -2.09701e-21)
(1.73455 0.00162096 0)
(1.73771 0.00166302 0)
(1.74036 0.00168961 2.03635e-21)
(1.74258 0.00170485 2.01664e-21)
(1.74436 0.00171955 0)
(1.74573 0.00173147 -1.97796e-21)
(1.74675 0.00173656 0)
(1.74745 0.00173468 1.94022e-21)
(1.74785 0.00172586 0)
(1.748 0.00171267 1.90338e-21)
(1.74791 0.00170035 1.88529e-21)
(1.74761 0.00168569 0)
(1.74713 0.00165929 0)
(1.74648 0.0016275 0)
(1.74568 0.00159651 0)
(1.74474 0.00156741 0)
(1.74368 0.00154015 0)
(1.7425 0.00151391 0)
(1.74121 0.00148729 1.74754e-21)
(1.73984 0.00145713 -1.73113e-21)
(1.73839 0.00142048 0)
(1.73689 0.00137685 0)
(1.73535 0.00132831 0)
(1.73379 0.00127834 0)
(1.73221 0.00123024 -3.30293e-21)
(1.73063 0.00118607 0)
(1.72903 0.0011464 3.24131e-21)
(1.72743 0.0011107 -3.21091e-21)
(1.72581 0.00107805 0)
(1.72418 0.00104768 0)
(1.72253 0.00101912 0)
(1.72087 0.000992227 3.09193e-21)
(1.71919 0.000967038 3.0628e-21)
(1.71749 0.000943615 0)
(1.71578 0.000922013 3.00524e-21)
(1.71405 0.000902239 2.9768e-21)
(1.7123 0.00088426 -2.94858e-21)
(1.71054 0.000868013 0)
(1.70875 0.000853408 0)
(1.70695 0.000840351 -2.86521e-21)
(1.70513 0.000828754 0)
(1.70329 0.000818553 0)
(1.70143 0.000809715 0)
(1.69955 0.000802232 0)
(1.69764 0.000796113 2.73047e-21)
(1.69571 0.000791399 2.70413e-21)
(1.69375 0.000788125 0)
(1.69176 0.000786436 2.65206e-21)
(1.68973 0.000786393 0)
(1.68767 0.000788368 0)
(1.68556 0.000792386 2.57546e-21)
(1.68341 0.000799252 0)
(1.68119 0.00080886 2.52539e-21)
(1.67891 0.000822702 0)
(1.67654 0.00084064 0)
(1.67409 0.00086486 2.45187e-21)
(1.67148 0.000895965 0)
(1.66879 0.000936088 2.40399e-21)
(1.66582 0.000989083 0)
(1.66276 0.001054 0)
(1.65921 0.00114602 0)
(1.6556 0.00124904 -2.31159e-21)
(1.65105 0.00141745 0)
(1.64658 0.00157319 2.26767e-21)
(1.64032 0.0019053 0)
(1.63433 0.00211602 0)
(1.62515 0.00284779 0)
(1.61599 0.0030381 0)
(1.60213 0.00488297 0)
(1.58473 0.00464658 0)
(1.56478 0.0100215 0)
(1.52122 0.0077038 -4.2701e-21)
(1.49906 0.0264728 0)
(1.35769 0.0200092 0)
(-0.00551362 -0.0487828 -7.03261e-22)
(-0.0403166 -0.0361781 6.96225e-22)
(-0.0742715 -0.0251273 0)
(-0.112045 -0.0104931 -4.53084e-22)
(-0.15277 0.00610808 0)
(-0.196931 0.0238806 -2.1211e-22)
(-0.244745 0.0424671 4.22376e-22)
(-0.296747 0.0619345 4.09845e-22)
(-0.353342 0.0823465 0)
(-0.414824 0.103679 3.81471e-22)
(-0.481471 0.125889 1.78519e-22)
(-0.553463 0.148865 0)
(-0.630925 0.172345 0)
(-0.713898 0.19614 0)
(-0.8023 0.219945 0)
(-0.895911 0.243395 1.31238e-22)
(-0.994421 0.266068 0)
(-1.09749 0.28753 -2.11288e-22)
(-1.20472 0.307369 0)
(-1.31565 0.325224 0)
(-1.42976 0.340796 1.09502e-22)
(-1.54648 0.35386 0)
(-1.66535 0.364264 -2.4314e-23)
(-1.78589 0.371856 -2.79577e-24)
(-1.9076 0.376535 2.74887e-23)
(-2.02991 0.378207 -5.40878e-23)
(-2.15214 0.376786 -8.2444e-23)
(-2.27356 0.372175 0)
(-2.39333 0.36427 0)
(-2.51057 0.352961 1.75072e-22)
(-2.62427 0.338155 -2.46255e-22)
(-2.73331 0.319791 0)
(-2.83644 0.297856 0)
(-2.93228 0.272398 2.96549e-22)
(-3.01942 0.243538 0)
(-3.09641 0.211489 0)
(-3.16186 0.1766 -3.59146e-22)
(-3.21451 0.139375 0)
(-3.25321 0.100377 4.31346e-22)
(-3.27706 0.0602349 -7.44532e-22)
(-3.28563 0.0197486 0)
(-3.27841 -0.0203185 0)
(-3.25395 -0.0593188 -1.39298e-21)
(-3.21284 -0.0967344 -1.26484e-21)
(-3.15518 -0.132078 -1.11078e-21)
(-3.08184 -0.16503 5.09536e-22)
(-2.99368 -0.195325 -3.29214e-22)
(-2.89173 -0.222804 -7.51123e-22)
(-2.7771 -0.247385 3.00435e-22)
(-2.65092 -0.269029 3.9594e-24)
(-2.51437 -0.287721 0)
(-2.36868 -0.303441 2.27909e-22)
(-2.2151 -0.316152 -3.00505e-22)
(-2.05497 -0.325806 0)
(-1.8897 -0.33238 0)
(-1.72076 -0.33591 0)
(-1.54958 -0.336501 7.6301e-22)
(-1.37751 -0.334334 0)
(-1.20588 -0.329661 -1.85134e-21)
(-1.03587 -0.32279 0)
(-0.868557 -0.314061 -2.13525e-21)
(-0.704881 -0.303831 0)
(-0.545501 -0.292451 2.35525e-21)
(-0.390838 -0.280269 0)
(-0.241424 -0.267461 -2.51737e-21)
(-0.0976652 -0.254464 1.28618e-21)
(0.0397403 -0.24131 0)
(0.171129 -0.228475 2.66835e-21)
(0.297197 -0.215766 1.352e-21)
(0.417619 -0.203365 1.36291e-21)
(0.532495 -0.191359 0)
(0.641961 -0.179801 1.37008e-21)
(0.746181 -0.168723 1.37652e-21)
(0.845334 -0.158137 0)
(0.939612 -0.148046 -1.37348e-21)
(1.02921 -0.138444 2.73493e-21)
(1.11431 -0.129321 0)
(1.19511 -0.120663 1.35674e-21)
(1.2718 -0.112452 0)
(1.34455 -0.104673 -4.01728e-21)
(1.41352 -0.097308 0)
(1.47889 -0.0903411 3.9587e-21)
(1.5408 -0.0837564 1.30974e-21)
(1.59942 -0.077539 -1.29669e-21)
(1.65487 -0.0716748 -2.57104e-21)
(1.7073 -0.0661506 2.54822e-21)
(1.75685 -0.0609536 0)
(1.80363 -0.0560718 0)
(1.84777 -0.0514935 0)
(1.88938 -0.0472074 -7.36795e-21)
(1.92859 -0.0432023 -2.43294e-21)
(1.96549 -0.039467 2.40906e-21)
(2.0002 -0.0359904 0)
(2.03282 -0.0327616 2.35969e-21)
(2.06345 -0.0297693 -2.33815e-21)
(2.09217 -0.0270026 -2.31486e-21)
(2.11909 -0.0244503 0)
(2.1443 -0.0221011 0)
(2.16787 -0.0199428 0)
(2.18991 -0.0179633 -2.22397e-21)
(2.21047 -0.0161508 0)
(2.22965 -0.0144946 4.35911e-21)
(2.24752 -0.012984 6.47458e-21)
(2.26415 -0.0116088 -4.27358e-21)
(2.27962 -0.0103596 0)
(2.29398 -0.00922541 -2.09474e-21)
(2.3073 -0.00819852 0)
(2.31965 -0.00726783 -4.10893e-21)
(2.33109 -0.00642555 2.03426e-21)
(2.34166 -0.00566275 2.01461e-21)
(2.35144 -0.00496684 0)
(2.3605 -0.00433517 5.92891e-21)
(2.36888 -0.00376714 -3.91456e-21)
(2.37663 -0.00326065 -1.93872e-21)
(2.38377 -0.00280878 0)
(2.39036 -0.00240311 -1.9019e-21)
(2.39643 -0.002042 -5.65121e-21)
(2.40201 -0.00172119 0)
(2.40713 -0.00142603 -3.69634e-21)
(2.41182 -0.00115596 -3.66141e-21)
(2.41611 -0.000914915 -3.62685e-21)
(2.42004 -0.000700288 0)
(2.42362 -0.000506044 0)
(2.42689 -0.000334195 0)
(2.42987 -0.000183541 1.74608e-21)
(2.43259 -5.29923e-05 1.72978e-21)
(2.43506 5.68049e-05 0)
(2.43731 0.000145761 3.3949e-21)
(2.43936 0.000215424 3.36309e-21)
(2.44122 0.000268906 0)
(2.44291 0.000310438 3.30041e-21)
(2.44444 0.000344438 6.53892e-21)
(2.44584 0.000374653 -3.23885e-21)
(2.44712 0.000403519 -3.20844e-21)
(2.44827 0.000432161 0)
(2.44931 0.00046064 0)
(2.45024 0.000488518 0)
(2.45106 0.000515198 -3.08963e-21)
(2.45178 0.000540246 3.06052e-21)
(2.45239 0.000563412 6.06333e-21)
(2.45291 0.000584662 -3.00304e-21)
(2.45334 0.000604095 2.97462e-21)
(2.45368 0.000621887 2.94645e-21)
(2.45395 0.000638254 0)
(2.45414 0.000653409 0)
(2.45427 0.000667564 -2.86316e-21)
(2.45433 0.000680934 0)
(2.45434 0.000693748 0)
(2.45429 0.000706252 5.5636e-21)
(2.45418 0.000718725 0)
(2.45403 0.000731466 2.72857e-21)
(2.45383 0.000744831 -2.70228e-21)
(2.45358 0.000759188 0)
(2.45329 0.000775035 2.65025e-21)
(2.45295 0.000792865 0)
(2.45257 0.000813449 0)
(2.45214 0.000837504 -2.57375e-21)
(2.45167 0.000866204 5.09724e-21)
(2.45114 0.00090078 -2.52373e-21)
(2.45055 0.000942739 0)
(2.44989 0.000994851 0)
(2.44916 0.00105796 2.45021e-21)
(2.44833 0.00113956 0)
(2.44741 0.00123584 2.40234e-21)
(2.44633 0.00136841 0)
(2.44512 0.00151546 0)
(2.44365 0.0017407 0)
(2.442 0.00196185 2.31016e-21)
(2.43991 0.00236849 0)
(2.43751 0.00268839 -2.26628e-21)
(2.43441 0.00348229 0)
(2.43067 0.00389656 0)
(2.42594 0.00558934 4.40908e-21)
(2.41949 0.0059701 -4.37174e-21)
(2.41229 0.00993625 0)
(2.39955 0.00979575 0)
(2.3892 0.0200928 0)
(2.35996 0.0184877 1.2784e-20)
(2.34865 0.0488584 0)
(2.27467 0.0482884 -8.46496e-21)
(-0.016421 0.0475397 -9.72746e-24)
(-0.081754 0.0868371 -9.44021e-22)
(-0.143254 0.0978068 0)
(-0.206627 0.113844 9.15796e-22)
(-0.270134 0.131864 0)
(-0.334749 0.151923 0)
(-0.400609 0.173818 9.88262e-24)
(-0.468119 0.197304 -4.0957e-22)
(-0.537485 0.222237 -4.052e-22)
(-0.608857 0.248456 -3.81186e-22)
(-0.6823 0.275659 0)
(-0.757832 0.303523 0)
(-0.835438 0.331735 3.35259e-22)
(-0.915078 0.359988 6.2751e-22)
(-0.996728 0.38795 -5.80644e-22)
(-1.08042 0.415251 0)
(-1.1662 0.441492 -4.7342e-22)
(-1.25413 0.466266 2.11143e-22)
(-1.34429 0.489177 0)
(-1.4368 0.50988 -2.70749e-22)
(-1.53183 0.528087 -1.09441e-22)
(-1.62961 0.543545 1.01456e-22)
(-1.73035 0.556018 2.43028e-23)
(-1.83422 0.565315 0)
(-1.9413 0.571256 2.11503e-22)
(-2.05151 0.573634 3.31854e-22)
(-2.1646 0.572193 0)
(-2.28009 0.566624 5.9402e-22)
(-2.39721 0.556557 0)
(-2.51491 0.541583 8.76935e-22)
(-2.63184 0.521312 4.53087e-22)
(-2.74645 0.495406 0)
(-2.85695 0.463624 0)
(-2.96141 0.425863 0)
(-3.05775 0.382196 0)
(-3.14388 0.332893 0)
(-3.21776 0.278428 0)
(-3.27755 0.219516 1.77403e-21)
(-3.32163 0.157107 -2.60275e-21)
(-3.34877 0.092309 0)
(-3.35825 0.0262898 0)
(-3.3494 -0.0398705 0)
(-3.32199 -0.104792 -1.75531e-22)
(-3.27666 -0.167275 1.2645e-21)
(-3.2142 -0.226392 2.3779e-21)
(-3.13562 -0.28137 -2.01311e-21)
(-3.04211 -0.331773 -8.71982e-22)
(-2.93488 -0.377364 5.24684e-22)
(-2.81515 -0.418052 1.13097e-22)
(-2.68409 -0.453833 1.70398e-22)
(-2.54288 -0.484723 0)
(-2.39268 -0.51071 -3.24647e-22)
(-2.23469 -0.531724 7.35442e-23)
(-2.07025 -0.547652 0)
(-1.9008 -0.558415 0)
(-1.72788 -0.564025 1.25696e-21)
(-1.55303 -0.564631 0)
(-1.37776 -0.560552 0)
(-1.20346 -0.552231 -1.79178e-21)
(-1.03136 -0.540214 -3.95141e-21)
(-0.862533 -0.525164 2.13457e-21)
(-0.697919 -0.507658 0)
(-0.538197 -0.488276 -2.35455e-21)
(-0.383705 -0.46765 0)
(-0.234945 -0.446232 -2.48982e-21)
(-0.0921322 -0.424461 -2.57863e-21)
(0.0440186 -0.402905 5.23378e-21)
(0.173876 -0.381438 2.64603e-21)
(0.298374 -0.360448 0)
(0.417135 -0.340071 -5.42092e-21)
(0.530327 -0.320421 0)
(0.638136 -0.301567 -8.21622e-21)
(0.740763 -0.283549 -5.48059e-21)
(0.838421 -0.266381 -5.48004e-21)
(0.931325 -0.250058 5.47153e-21)
(1.01969 -0.234565 -8.19072e-21)
(1.10372 -0.219877 0)
(1.18362 -0.205965 0)
(1.25958 -0.192798 5.37827e-21)
(1.33178 -0.180342 8.02128e-21)
(1.40041 -0.168566 0)
(1.46562 -0.157437 -2.63812e-21)
(1.52759 -0.146926 0)
(1.58645 -0.137005 7.77853e-21)
(1.64236 -0.127645 6.66578e-24)
(1.69545 -0.118821 -6.16284e-24)
(1.74584 -0.11051 -5.04734e-21)
(1.79367 -0.102686 0)
(1.83905 -0.0953294 4.9536e-21)
(1.88209 -0.088418 4.47646e-24)
(1.9229 -0.0819314 0)
(1.96158 -0.07585 0)
(1.99821 -0.0701544 0)
(2.0329 -0.0648262 -4.7211e-21)
(2.06573 -0.0598469 0)
(2.09677 -0.055199 0)
(2.12612 -0.0508653 0)
(2.15383 -0.0468292 0)
(2.17999 -0.0430747 0)
(2.20466 -0.0395867 -4.44462e-21)
(2.22791 -0.0363498 0)
(2.24981 -0.0333492 -4.35887e-21)
(2.2704 -0.0305703 -4.31584e-21)
(2.28976 -0.0279993 4.27334e-21)
(2.30794 -0.0256228 0)
(2.32499 -0.0234282 4.18994e-21)
(2.34097 -0.0214026 0)
(2.35594 -0.0195351 4.10866e-21)
(2.36994 -0.0178136 -4.06879e-21)
(2.38303 -0.0162275 -1.20868e-20)
(2.39525 -0.0147693 0)
(2.40664 -0.0134301 -1.18554e-20)
(2.41726 -0.0122011 -3.9132e-21)
(2.42715 -0.011075 0)
(2.43635 -0.0100432 -7.67877e-21)
(2.4449 -0.00909665 -7.60572e-21)
(2.45283 -0.00823003 1.13006e-20)
(2.4602 -0.00743573 0)
(2.46704 -0.00669958 3.69606e-21)
(2.47339 -0.00602224 3.66112e-21)
(2.47927 -0.00540382 1.08793e-20)
(2.48472 -0.00483853 0)
(2.48978 -0.00432596 0)
(2.49445 -0.00386099 0)
(2.49877 -0.00344139 3.4917e-21)
(2.50277 -0.00306505 0)
(2.50646 -0.00273061 0)
(2.50986 -0.00243587 -3.39461e-21)
(2.51299 -0.00217789 -3.36279e-21)
(2.51587 -0.00195299 0)
(2.51852 -0.00175651 0)
(2.52095 -0.0015829 -6.53833e-21)
(2.52318 -0.00142627 0)
(2.52522 -0.00128126 6.41635e-21)
(2.5271 -0.0011439 6.35613e-21)
(2.52882 -0.00101201 0)
(2.5304 -0.000885 0)
(2.53185 -0.000763332 -6.17866e-21)
(2.53317 -0.000647906 -9.88528e-27)
(2.53438 -0.000539557 -6.6224e-27)
(2.53547 -0.000438789 0)
(2.53647 -0.000345716 -1.18974e-20)
(2.53738 -0.000260126 0)
(2.5382 -0.000181588 0)
(2.53894 -0.000109551 0)
(2.53961 -4.34057e-05 5.72582e-21)
(2.54021 1.74791e-05 0)
(2.54075 7.37485e-05 -1.12338e-20)
(2.54123 0.000126068 -5.56309e-21)
(2.54165 0.000175116 0)
(2.54203 0.000221613 -5.45666e-21)
(2.54236 0.000266288 0)
(2.54264 0.000309974 0)
(2.54288 0.000353491 -1.59001e-20)
(2.54309 0.000397949 1.04972e-20)
(2.54324 0.000444326 0)
(2.54336 0.000494343 1.02939e-20)
(2.54344 0.00054907 -5.09678e-21)
(2.54347 0.000611617 0)
(2.54346 0.000682593 0)
(2.54339 0.000768542 0)
(2.54326 0.0008675 -1.47e-20)
(2.54306 0.000994759 0)
(2.54277 0.00113941 -4.80437e-21)
(2.5424 0.00133919 0)
(2.54187 0.00155597 0)
(2.54123 0.0018868 0)
(2.54032 0.00221315 0)
(2.53927 0.00279393 0)
(2.53772 0.0032806 0)
(2.53603 0.00436994 -8.97652e-21)
(2.53337 0.00507062 0)
(2.53064 0.00726647 -4.40866e-21)
(2.52591 0.00820842 1.31092e-20)
(2.52152 0.0130033 0)
(2.51286 0.0142366 0)
(2.50588 0.0256764 -8.54378e-21)
(2.48993 0.0282443 -8.51557e-21)
(2.47993 0.0582766 8.45189e-21)
(2.45544 0.0686944 8.46355e-21)
(-0.0184252 0.163169 1.4549e-21)
(-0.0901889 0.228983 1.44089e-21)
(-0.156528 0.23774 9.51411e-22)
(-0.224558 0.252813 4.73309e-22)
(-0.291573 0.270182 0)
(-0.358802 0.290013 -8.97489e-22)
(-0.425992 0.311883 4.42416e-22)
(-0.493444 0.3357 0)
(-0.561279 0.361185 4.05092e-22)
(-0.629643 0.388049 0)
(-0.698669 0.416068 -7.53834e-22)
(-0.768563 0.445038 0)
(-0.839549 0.474689 -3.35186e-22)
(-0.911882 0.504689 -6.27385e-22)
(-0.985833 0.534685 5.80538e-22)
(-1.0617 0.564313 0)
(-1.13983 0.593224 4.73349e-22)
(-1.22063 0.621099 0)
(-1.30461 0.647686 0)
(-1.39231 0.672773 2.70715e-22)
(-1.48429 0.696119 0)
(-1.58103 0.71742 -4.04814e-23)
(-1.68291 0.736298 0)
(-1.79015 0.752287 0)
(-1.90274 0.764822 6.87849e-23)
(-2.02041 0.773229 -3.31782e-22)
(-2.14259 0.776734 -5.52742e-22)
(-2.26845 0.77451 -5.93856e-22)
(-2.39691 0.765724 0)
(-2.52665 0.749586 -1.89219e-21)
(-2.65605 0.725369 0)
(-2.78324 0.692442 -1.33818e-21)
(-2.90606 0.650326 0)
(-3.0222 0.59877 0)
(-3.12922 0.537832 1.77479e-21)
(-3.22462 0.467916 0)
(-3.306 0.389789 -1.97971e-21)
(-3.37127 0.304624 2.68273e-22)
(-3.41866 0.213976 3.86781e-21)
(-3.44675 0.119685 -4.1312e-21)
(-3.4548 0.0238184 0)
(-3.44247 -0.0716255 0)
(-3.40972 -0.164691 -2.08105e-21)
(-3.35747 -0.253707 0)
(-3.28696 -0.337373 -1.267e-21)
(-3.19967 -0.414742 1.07924e-21)
(-3.09723 -0.485263 8.71665e-22)
(-2.9812 -0.548713 0)
(-2.85299 -0.605102 -4.13271e-22)
(-2.7139 -0.654556 -1.70334e-22)
(-2.56505 -0.697226 1.13074e-22)
(-2.40752 -0.733171 3.24525e-22)
(-2.2424 -0.762272 5.69519e-22)
(-2.07101 -0.784274 0)
(-1.89485 -0.798954 0)
(-1.71556 -0.806227 -1.25653e-21)
(-1.53489 -0.806245 0)
(-1.35452 -0.799461 0)
(-1.17592 -0.78655 3.64137e-21)
(-1.00036 -0.768364 3.95027e-21)
(-0.828881 -0.745892 0)
(-0.662307 -0.720064 0)
(-0.501245 -0.691808 0)
(-0.34601 -0.661839 0)
(-0.196898 -0.631087 5.00547e-21)
(-0.0545131 -0.599861 -5.09597e-21)
(0.0811035 -0.569348 -5.2323e-21)
(0.210482 -0.538973 -1.05932e-20)
(0.333968 -0.509409 0)
(0.45157 -0.480829 2.70776e-23)
(0.563481 -0.453356 0)
(0.669932 -0.427064 5.47054e-21)
(0.771162 -0.401989 2.2405e-23)
(0.867411 -0.378135 5.47883e-21)
(0.958912 -0.355485 -5.47039e-21)
(1.04589 -0.334007 1.83572e-23)
(1.12856 -0.313661 0)
(1.20713 -0.294399 -5.39184e-21)
(1.2818 -0.276174 -5.37739e-21)