# vtk DataFile Version 2.0
sampleSurface
ASCII
DATASET POLYDATA
POINTS 502 double
-0.0206 0 -0.0005
-0.0190172 0 -0.0005
-0.0190172 0 0.0005
-0.0206 0 0.0005
-0.0174976 0 -0.0005
-0.0174976 0 0.0005
-0.0160387 0 -0.0005
-0.0160387 0 0.0005
-0.0146381 0 -0.0005
-0.0146381 0 0.0005
-0.0132934 0 -0.0005
-0.0132934 0 0.0005
-0.0120025 0 -0.0005
-0.0120025 0 0.0005
-0.0107632 0 -0.0005
-0.0107632 0 0.0005
-0.00957337 0 -0.0005
-0.00957337 0 0.0005
-0.00843108 0 -0.0005
-0.00843108 0 0.0005
-0.00733443 0 -0.0005
-0.00733443 0 0.0005
-0.0062816 0 -0.0005
-0.0062816 0 0.0005
-0.00527083 0 -0.0005
-0.00527083 0 0.0005
-0.00430044 0 -0.0005
-0.00430044 0 0.0005
-0.00336883 0 -0.0005
-0.00336883 0 0.0005
-0.00247443 0 -0.0005
-0.00247443 0 0.0005
-0.00161577 0 -0.0005
-0.00161577 0 0.0005
-0.000791418 0 -0.0005
-0.000791418 0 0.0005
0 0 -0.0005
0 0 0.0005
0 -0.0254 -0.0005
0 -0.0254 0.0005
0 -0.0242711 0.0005
0 -0.0242711 -0.0005
0 -0.0231422 0.0005
0 -0.0231422 -0.0005
0 -0.0220133 0.0005
0 -0.0220133 -0.0005
0 -0.0208844 0.0005
0 -0.0208844 -0.0005
0 -0.0197556 0.0005
0 -0.0197556 -0.0005
0 -0.0186267 0.0005
0 -0.0186267 -0.0005
0 -0.0174978 0.0005
0 -0.0174978 -0.0005
0 -0.0163689 0.0005
0 -0.0163689 -0.0005
0 -0.01524 0.0005
0 -0.01524 -0.0005
0 -0.0141111 0.0005
0 -0.0141111 -0.0005
0 -0.0129822 0.0005
0 -0.0129822 -0.0005
0 -0.0118533 0.0005
0 -0.0118533 -0.0005
0 -0.0107244 0.0005
0 -0.0107244 -0.0005
0 -0.00959556 0.0005
0 -0.00959556 -0.0005
0 -0.00846667 0.0005
0 -0.00846667 -0.0005
0 -0.00726604 0.0005
0 -0.00726604 -0.0005
0 -0.00618989 0.0005
0 -0.00618989 -0.0005
0 -0.00522531 0.0005
0 -0.00522531 -0.0005
0 -0.00436073 0.0005
0 -0.00436073 -0.0005
0 -0.00358579 0.0005
0 -0.00358579 -0.0005
0 -0.00289118 0.0005
0 -0.00289118 -0.0005
0 -0.0022686 0.0005
0 -0.0022686 -0.0005
0 -0.00171055 0.0005
0 -0.00171055 -0.0005
0 -0.00121037 0.0005
0 -0.00121037 -0.0005
0 -0.000762037 0.0005
0 -0.000762037 -0.0005
0 -0.000360188 0.0005
0 -0.000360188 -0.0005
0.000528387 -0.0254 -0.0005
0.000528387 -0.0254 0.0005
0.00106088 -0.0254 -0.0005
0.00106088 -0.0254 0.0005
0.00159752 -0.0254 -0.0005
0.00159752 -0.0254 0.0005
0.00213833 -0.0254 -0.0005
0.00213833 -0.0254 0.0005
0.00268334 -0.0254 -0.0005
0.00268334 -0.0254 0.0005
0.00323259 -0.0254 -0.0005
0.00323259 -0.0254 0.0005
0.00378611 -0.0254 -0.0005
0.00378611 -0.0254 0.0005
0.00434393 -0.0254 -0.0005
0.00434393 -0.0254 0.0005
0.00490609 -0.0254 -0.0005
0.00490609 -0.0254 0.0005
0.00547262 -0.0254 -0.0005
0.00547262 -0.0254 0.0005
0.00604356 -0.0254 -0.0005
0.00604356 -0.0254 0.0005
0.00661893 -0.0254 -0.0005
0.00661893 -0.0254 0.0005
0.00719878 -0.0254 -0.0005
0.00719878 -0.0254 0.0005
0.00778313 -0.0254 -0.0005
0.00778313 -0.0254 0.0005
0.00837203 -0.0254 -0.0005
0.00837203 -0.0254 0.0005
0.00896551 -0.0254 -0.0005
0.00896551 -0.0254 0.0005
0.0095636 -0.0254 -0.0005
0.0095636 -0.0254 0.0005
0.0101663 -0.0254 -0.0005
0.0101663 -0.0254 0.0005
0.0107738 -0.0254 -0.0005
0.0107738 -0.0254 0.0005
0.0113859 -0.0254 -0.0005
0.0113859 -0.0254 0.0005
0.0120028 -0.0254 -0.0005
0.0120028 -0.0254 0.0005
0.0126245 -0.0254 -0.0005
0.0126245 -0.0254 0.0005
0.0132511 -0.0254 -0.0005
0.0132511 -0.0254 0.0005
0.0138825 -0.0254 -0.0005
0.0138825 -0.0254 0.0005
0.0145188 -0.0254 -0.0005
0.0145188 -0.0254 0.0005
0.0151601 -0.0254 -0.0005
0.0151601 -0.0254 0.0005
0.0158063 -0.0254 -0.0005
0.0158063 -0.0254 0.0005
0.0164576 -0.0254 -0.0005
0.0164576 -0.0254 0.0005
0.0171139 -0.0254 -0.0005
0.0171139 -0.0254 0.0005
0.0177754 -0.0254 -0.0005
0.0177754 -0.0254 0.0005
0.018442 -0.0254 -0.0005
0.018442 -0.0254 0.0005
0.0191137 -0.0254 -0.0005
0.0191137 -0.0254 0.0005
0.0197907 -0.0254 -0.0005
0.0197907 -0.0254 0.0005
0.020473 -0.0254 -0.0005
0.020473 -0.0254 0.0005
0.0211606 -0.0254 -0.0005
0.0211606 -0.0254 0.0005
0.0218535 -0.0254 -0.0005
0.0218535 -0.0254 0.0005
0.0225517 -0.0254 -0.0005
0.0225517 -0.0254 0.0005
0.0232555 -0.0254 -0.0005
0.0232555 -0.0254 0.0005
0.0239647 -0.0254 -0.0005
0.0239647 -0.0254 0.0005
0.0246794 -0.0254 -0.0005
0.0246794 -0.0254 0.0005
0.0253996 -0.0254 -0.0005
0.0253996 -0.0254 0.0005
0.0261255 -0.0254 -0.0005
0.0261255 -0.0254 0.0005
0.026857 -0.0254 -0.0005
0.026857 -0.0254 0.0005
0.0275942 -0.0254 -0.0005
0.0275942 -0.0254 0.0005
0.0283371 -0.0254 -0.0005
0.0283371 -0.0254 0.0005
0.0290858 -0.0254 -0.0005
0.0290858 -0.0254 0.0005
0.0298403 -0.0254 -0.0005
0.0298403 -0.0254 0.0005
0.0306007 -0.0254 -0.0005
0.0306007 -0.0254 0.0005
0.031367 -0.0254 -0.0005
0.031367 -0.0254 0.0005
0.0321393 -0.0254 -0.0005
0.0321393 -0.0254 0.0005
0.0329175 -0.0254 -0.0005
0.0329175 -0.0254 0.0005
0.0337019 -0.0254 -0.0005
0.0337019 -0.0254 0.0005
0.0344923 -0.0254 -0.0005
0.0344923 -0.0254 0.0005
0.0352888 -0.0254 -0.0005
0.0352888 -0.0254 0.0005
0.0360916 -0.0254 -0.0005
0.0360916 -0.0254 0.0005
0.0369006 -0.0254 -0.0005
0.0369006 -0.0254 0.0005
0.0377158 -0.0254 -0.0005
0.0377158 -0.0254 0.0005
0.0385375 -0.0254 -0.0005
0.0385375 -0.0254 0.0005
0.0393655 -0.0254 -0.0005
0.0393655 -0.0254 0.0005
0.0401999 -0.0254 -0.0005
0.0401999 -0.0254 0.0005
0.0410408 -0.0254 -0.0005
0.0410408 -0.0254 0.0005
0.0418883 -0.0254 -0.0005
0.0418883 -0.0254 0.0005
0.0427424 -0.0254 -0.0005
0.0427424 -0.0254 0.0005
0.0436031 -0.0254 -0.0005
0.0436031 -0.0254 0.0005
0.0444704 -0.0254 -0.0005
0.0444704 -0.0254 0.0005
0.0453446 -0.0254 -0.0005
0.0453446 -0.0254 0.0005
0.0462255 -0.0254 -0.0005
0.0462255 -0.0254 0.0005
0.0471133 -0.0254 -0.0005
0.0471133 -0.0254 0.0005
0.048008 -0.0254 -0.0005
0.048008 -0.0254 0.0005
0.0489096 -0.0254 -0.0005
0.0489096 -0.0254 0.0005
0.0498183 -0.0254 -0.0005
0.0498183 -0.0254 0.0005
0.050734 -0.0254 -0.0005
0.050734 -0.0254 0.0005
0.0516568 -0.0254 -0.0005
0.0516568 -0.0254 0.0005
0.0525868 -0.0254 -0.0005
0.0525868 -0.0254 0.0005
0.053524 -0.0254 -0.0005
0.053524 -0.0254 0.0005
0.0544686 -0.0254 -0.0005
0.0544686 -0.0254 0.0005
0.0554204 -0.0254 -0.0005
0.0554204 -0.0254 0.0005
0.0563797 -0.0254 -0.0005
0.0563797 -0.0254 0.0005
0.0573464 -0.0254 -0.0005
0.0573464 -0.0254 0.0005
0.0583206 -0.0254 -0.0005
0.0583206 -0.0254 0.0005
0.0593025 -0.0254 -0.0005
0.0593025 -0.0254 0.0005
0.0602919 -0.0254 -0.0005
0.0602919 -0.0254 0.0005
0.0612891 -0.0254 -0.0005
0.0612891 -0.0254 0.0005
0.0622939 -0.0254 -0.0005
0.0622939 -0.0254 0.0005
0.0633067 -0.0254 -0.0005
0.0633067 -0.0254 0.0005
0.0643272 -0.0254 -0.0005
0.0643272 -0.0254 0.0005
0.0653557 -0.0254 -0.0005
0.0653557 -0.0254 0.0005
0.0663923 -0.0254 -0.0005
0.0663923 -0.0254 0.0005
0.0674368 -0.0254 -0.0005
0.0674368 -0.0254 0.0005
0.0684895 -0.0254 -0.0005
0.0684895 -0.0254 0.0005
0.0695504 -0.0254 -0.0005
0.0695504 -0.0254 0.0005
0.0706195 -0.0254 -0.0005
0.0706195 -0.0254 0.0005
0.0716969 -0.0254 -0.0005
0.0716969 -0.0254 0.0005
0.0727828 -0.0254 -0.0005
0.0727828 -0.0254 0.0005
0.073877 -0.0254 -0.0005
0.073877 -0.0254 0.0005
0.0749798 -0.0254 -0.0005
0.0749798 -0.0254 0.0005
0.0760911 -0.0254 -0.0005
0.0760911 -0.0254 0.0005
0.0772111 -0.0254 -0.0005
0.0772111 -0.0254 0.0005
0.0783398 -0.0254 -0.0005
0.0783398 -0.0254 0.0005
0.0794772 -0.0254 -0.0005
0.0794772 -0.0254 0.0005
0.0806235 -0.0254 -0.0005
0.0806235 -0.0254 0.0005
0.0817787 -0.0254 -0.0005
0.0817787 -0.0254 0.0005
0.0829429 -0.0254 -0.0005
0.0829429 -0.0254 0.0005
0.0841162 -0.0254 -0.0005
0.0841162 -0.0254 0.0005
0.0852985 -0.0254 -0.0005
0.0852985 -0.0254 0.0005
0.0864901 -0.0254 -0.0005
0.0864901 -0.0254 0.0005
0.0876909 -0.0254 -0.0005
0.0876909 -0.0254 0.0005
0.0889011 -0.0254 -0.0005
0.0889011 -0.0254 0.0005
0.0901207 -0.0254 -0.0005
0.0901207 -0.0254 0.0005
0.0913497 -0.0254 -0.0005
0.0913497 -0.0254 0.0005
0.0925883 -0.0254 -0.0005
0.0925883 -0.0254 0.0005
0.0938366 -0.0254 -0.0005
0.0938366 -0.0254 0.0005
0.0950945 -0.0254 -0.0005
0.0950945 -0.0254 0.0005
0.0963622 -0.0254 -0.0005
0.0963622 -0.0254 0.0005
0.0976398 -0.0254 -0.0005
0.0976398 -0.0254 0.0005
0.0989273 -0.0254 -0.0005
0.0989273 -0.0254 0.0005
0.100225 -0.0254 -0.0005
0.100225 -0.0254 0.0005
0.101532 -0.0254 -0.0005
0.101532 -0.0254 0.0005
0.10285 -0.0254 -0.0005
0.10285 -0.0254 0.0005
0.104178 -0.0254 -0.0005
0.104178 -0.0254 0.0005
0.105517 -0.0254 -0.0005
0.105517 -0.0254 0.0005
0.106865 -0.0254 -0.0005
0.106865 -0.0254 0.0005
0.108225 -0.0254 -0.0005
0.108225 -0.0254 0.0005
0.109594 -0.0254 -0.0005
0.109594 -0.0254 0.0005
0.110975 -0.0254 -0.0005
0.110975 -0.0254 0.0005
0.112366 -0.0254 -0.0005
0.112366 -0.0254 0.0005
0.113768 -0.0254 -0.0005
0.113768 -0.0254 0.0005
0.115181 -0.0254 -0.0005
0.115181 -0.0254 0.0005
0.116605 -0.0254 -0.0005
0.116605 -0.0254 0.0005
0.11804 -0.0254 -0.0005
0.11804 -0.0254 0.0005
0.119486 -0.0254 -0.0005
0.119486 -0.0254 0.0005
0.120943 -0.0254 -0.0005
0.120943 -0.0254 0.0005
0.122412 -0.0254 -0.0005
0.122412 -0.0254 0.0005
0.123892 -0.0254 -0.0005
0.123892 -0.0254 0.0005
0.125384 -0.0254 -0.0005
0.125384 -0.0254 0.0005
0.126887 -0.0254 -0.0005
0.126887 -0.0254 0.0005
0.128402 -0.0254 -0.0005
0.128402 -0.0254 0.0005
0.129928 -0.0254 -0.0005
0.129928 -0.0254 0.0005
0.131467 -0.0254 -0.0005
0.131467 -0.0254 0.0005
0.133017 -0.0254 -0.0005
0.133017 -0.0254 0.0005
0.13458 -0.0254 -0.0005
0.13458 -0.0254 0.0005
0.136155 -0.0254 -0.0005
0.136155 -0.0254 0.0005
0.137742 -0.0254 -0.0005
0.137742 -0.0254 0.0005
0.139341 -0.0254 -0.0005
0.139341 -0.0254 0.0005
0.140953 -0.0254 -0.0005
0.140953 -0.0254 0.0005
0.142577 -0.0254 -0.0005
0.142577 -0.0254 0.0005
0.144214 -0.0254 -0.0005
0.144214 -0.0254 0.0005
0.145863 -0.0254 -0.0005
0.145863 -0.0254 0.0005
0.147526 -0.0254 -0.0005
0.147526 -0.0254 0.0005
0.149201 -0.0254 -0.0005
0.149201 -0.0254 0.0005
0.15089 -0.0254 -0.0005
0.15089 -0.0254 0.0005
0.152591 -0.0254 -0.0005
0.152591 -0.0254 0.0005
0.154306 -0.0254 -0.0005
0.154306 -0.0254 0.0005
0.156034 -0.0254 -0.0005
0.156034 -0.0254 0.0005
0.157775 -0.0254 -0.0005
0.157775 -0.0254 0.0005
0.159531 -0.0254 -0.0005
0.159531 -0.0254 0.0005
0.161299 -0.0254 -0.0005
0.161299 -0.0254 0.0005
0.163082 -0.0254 -0.0005
0.163082 -0.0254 0.0005
0.164878 -0.0254 -0.0005
0.164878 -0.0254 0.0005
0.166688 -0.0254 -0.0005
0.166688 -0.0254 0.0005
0.168513 -0.0254 -0.0005
0.168513 -0.0254 0.0005
0.170351 -0.0254 -0.0005
0.170351 -0.0254 0.0005
0.172204 -0.0254 -0.0005
0.172204 -0.0254 0.0005
0.174071 -0.0254 -0.0005
0.174071 -0.0254 0.0005
0.175953 -0.0254 -0.0005
0.175953 -0.0254 0.0005
0.177849 -0.0254 -0.0005
0.177849 -0.0254 0.0005
0.17976 -0.0254 -0.0005
0.17976 -0.0254 0.0005
0.181686 -0.0254 -0.0005
0.181686 -0.0254 0.0005
0.183627 -0.0254 -0.0005
0.183627 -0.0254 0.0005
0.185583 -0.0254 -0.0005
0.185583 -0.0254 0.0005
0.187555 -0.0254 -0.0005
0.187555 -0.0254 0.0005
0.189541 -0.0254 -0.0005
0.189541 -0.0254 0.0005
0.191543 -0.0254 -0.0005
0.191543 -0.0254 0.0005
0.193561 -0.0254 -0.0005
0.193561 -0.0254 0.0005
0.195594 -0.0254 -0.0005
0.195594 -0.0254 0.0005
0.197643 -0.0254 -0.0005
0.197643 -0.0254 0.0005
0.199708 -0.0254 -0.0005
0.199708 -0.0254 0.0005
0.201789 -0.0254 -0.0005
0.201789 -0.0254 0.0005
0.203886 -0.0254 -0.0005
0.203886 -0.0254 0.0005
0.206 -0.0254 -0.0005
0.206 -0.0254 0.0005
0.208047 -0.0251856 -0.0005
0.208047 -0.0251856 0.0005
0.210173 -0.0249628 -0.0005
0.210173 -0.0249628 0.0005
0.212382 -0.0247314 -0.0005
0.212382 -0.0247314 0.0005
0.214677 -0.024491 -0.0005
0.214677 -0.024491 0.0005
0.217061 -0.0242412 -0.0005
0.217061 -0.0242412 0.0005
0.219538 -0.0239817 -0.0005
0.219538 -0.0239817 0.0005
0.222112 -0.0237121 -0.0005
0.222112 -0.0237121 0.0005
0.224785 -0.023432 -0.0005
0.224785 -0.023432 0.0005
0.227563 -0.023141 -0.0005
0.227563 -0.023141 0.0005
0.230449 -0.0228387 -0.0005
0.230449 -0.0228387 0.0005
0.233447 -0.0225246 -0.0005
0.233447 -0.0225246 0.0005
0.236562 -0.0221983 -0.0005
0.236562 -0.0221983 0.0005
0.239797 -0.0218593 -0.0005
0.239797 -0.0218593 0.0005
0.243159 -0.0215071 -0.0005
0.243159 -0.0215071 0.0005
0.246652 -0.0211412 -0.0005
0.246652 -0.0211412 0.0005
0.250281 -0.0207611 -0.0005
0.250281 -0.0207611 0.0005
0.254051 -0.0203661 -0.0005
0.254051 -0.0203661 0.0005
0.257967 -0.0199558 -0.0005
0.257967 -0.0199558 0.0005
0.262036 -0.0195295 -0.0005
0.262036 -0.0195295 0.0005
0.266264 -0.0190867 -0.0005
0.266264 -0.0190867 0.0005
0.270655 -0.0186266 -0.0005
0.270655 -0.0186266 0.0005
0.275218 -0.0181486 -0.0005
0.275218 -0.0181486 0.0005
0.279959 -0.017652 -0.0005
0.279959 -0.017652 0.0005
0.284883 -0.017136 -0.0005
0.284883 -0.017136 0.0005
0.29 -0.0166 -0.0005
0.29 -0.0166 0.0005

POLYGONS 250 1250
4 0 1 2 3
4 1 4 5 2
4 4 6 7 5
4 6 8 9 7
4 8 10 11 9
4 10 12 13 11
4 12 14 15 13
4 14 16 17 15
4 16 18 19 17
4 18 20 21 19
4 20 22 23 21
4 22 24 25 23
4 24 26 27 25
4 26 28 29 27
4 28 30 31 29
4 30 32 33 31
4 32 34 35 33
4 34 36 37 35
4 38 39 40 41
4 41 40 42 43
4 43 42 44 45
4 45 44 46 47
4 47 46 48 49
4 49 48 50 51
4 51 50 52 53
4 53 52 54 55
4 55 54 56 57
4 57 56 58 59
4 59 58 60 61
4 61 60 62 63
4 63 62 64 65
4 65 64 66 67
4 67 66 68 69
4 69 68 70 71
4 71 70 72 73
4 73 72 74 75
4 75 74 76 77
4 77 76 78 79
4 79 78 80 81
4 81 80 82 83
4 83 82 84 85
4 85 84 86 87
4 87 86 88 89
4 89 88 90 91
4 91 90 37 36
4 38 92 93 39
4 92 94 95 93
4 94 96 97 95
4 96 98 99 97
4 98 100 101 99
4 100 102 103 101
4 102 104 105 103
4 104 106 107 105
4 106 108 109 107
4 108 110 111 109
4 110 112 113 111
4 112 114 115 113
4 114 116 117 115
4 116 118 119 117
4 118 120 121 119
4 120 122 123 121
4 122 124 125 123
4 124 126 127 125
4 126 128 129 127
4 128 130 131 129
4 130 132 133 131
4 132 134 135 133
4 134 136 137 135
4 136 138 139 137
4 138 140 141 139
4 140 142 143 141
4 142 144 145 143
4 144 146 147 145
4 146 148 149 147
4 148 150 151 149
4 150 152 153 151
4 152 154 155 153
4 154 156 157 155
4 156 158 159 157
4 158 160 161 159
4 160 162 163 161
4 162 164 165 163
4 164 166 167 165
4 166 168 169 167
4 168 170 171 169
4 170 172 173 171
4 172 174 175 173
4 174 176 177 175
4 176 178 179 177
4 178 180 181 179
4 180 182 183 181
4 182 184 185 183
4 184 186 187 185
4 186 188 189 187
4 188 190 191 189
4 190 192 193 191
4 192 194 195 193
4 194 196 197 195
4 196 198 199 197
4 198 200 201 199
4 200 202 203 201
4 202 204 205 203
4 204 206 207 205
4 206 208 209 207
4 208 210 211 209
4 210 212 213 211
4 212 214 215 213
4 214 216 217 215
4 216 218 219 217
4 218 220 221 219
4 220 222 223 221
4 222 224 225 223
4 224 226 227 225
4 226 228 229 227
4 228 230 231 229
4 230 232 233 231
4 232 234 235 233
4 234 236 237 235
4 236 238 239 237
4 238 240 241 239
4 240 242 243 241
4 242 244 245 243
4 244 246 247 245
4 246 248 249 247
4 248 250 251 249
4 250 252 253 251
4 252 254 255 253
4 254 256 257 255
4 256 258 259 257
4 258 260 261 259
4 260 262 263 261
4 262 264 265 263
4 264 266 267 265
4 266 268 269 267
4 268 270 271 269
4 270 272 273 271
4 272 274 275 273
4 274 276 277 275
4 276 278 279 277
4 278 280 281 279
4 280 282 283 281
4 282 284 285 283
4 284 286 287 285
4 286 288 289 287
4 288 290 291 289
4 290 292 293 291
4 292 294 295 293
4 294 296 297 295
4 296 298 299 297
4 298 300 301 299
4 300 302 303 301
4 302 304 305 303
4 304 306 307 305
4 306 308 309 307
4 308 310 311 309
4 310 312 313 311
4 312 314 315 313
4 314 316 317 315
4 316 318 319 317
4 318 320 321 319
4 320 322 323 321
4 322 324 325 323
4 324 326 327 325
4 326 328 329 327
4 328 330 331 329
4 330 332 333 331
4 332 334 335 333
4 334 336 337 335
4 336 338 339 337
4 338 340 341 339
4 340 342 343 341
4 342 344 345 343
4 344 346 347 345
4 346 348 349 347
4 348 350 351 349
4 350 352 353 351
4 352 354 355 353
4 354 356 357 355
4 356 358 359 357
4 358 360 361 359
4 360 362 363 361
4 362 364 365 363
4 364 366 367 365
4 366 368 369 367
4 368 370 371 369
4 370 372 373 371
4 372 374 375 373
4 374 376 377 375
4 376 378 379 377
4 378 380 381 379
4 380 382 383 381
4 382 384 385 383
4 384 386 387 385
4 386 388 389 387
4 388 390 391 389
4 390 392 393 391
4 392 394 395 393
4 394 396 397 395
4 396 398 399 397
4 398 400 401 399
4 400 402 403 401
4 402 404 405 403
4 404 406 407 405
4 406 408 409 407
4 408 410 411 409
4 410 412 413 411
4 412 414 415 413
4 414 416 417 415
4 416 418 419 417
4 418 420 421 419
4 420 422 423 421
4 422 424 425 423
4 424 426 427 425
4 426 428 429 427
4 428 430 431 429
4 430 432 433 431
4 432 434 435 433
4 434 436 437 435
4 436 438 439 437
4 438 440 441 439
4 440 442 443 441
4 442 444 445 443
4 444 446 447 445
4 446 448 449 447
4 448 450 451 449
4 450 452 453 451
4 452 454 455 453
4 454 456 457 455
4 456 458 459 457
4 458 460 461 459
4 460 462 463 461
4 462 464 465 463
4 464 466 467 465
4 466 468 469 467
4 468 470 471 469
4 470 472 473 471
4 472 474 475 473
4 474 476 477 475
4 476 478 479 477
4 478 480 481 479
4 480 482 483 481
4 482 484 485 483
4 484 486 487 485
4 486 488 489 487
4 488 490 491 489
4 490 492 493 491
4 492 494 495 493
4 494 496 497 495
4 496 498 499 497
4 498 500 501 499
POINT_DATA 502
FIELD attributes 1
U 3 502 float
1.64618 0.0850533 -0.00373468
0.824564 0.0423173 -0.00184045
0.824564 0.0423173 -0.00184045
1.64618 0.0850533 -0.00373468
0.0248053 0.000725551 0
0.0248053 0.000725551 0
0.0222846 0.000601754 0
0.0222846 0.000601754 0
0.0200693 0.000511349 0
0.0200693 0.000511349 0
0.0177793 0.000441238 0
0.0177793 0.000441238 0
0.0155593 0.000373471 0
0.0155593 0.000373471 0
0.0135365 0.000317958 0
0.0135365 0.000317958 0
0.0117209 0.000272117 0
0.0117209 0.000272117 0
0.0101051 0.000222899 0
0.0101051 0.000222899 0
0.0086902 0.000170078 0
0.0086902 0.000170078 0
0.00748083 0.000123107 0
0.00748083 0.000123107 0
0.00645782 8.77251e-05 0
0.00645782 8.77251e-05 0
0.00560379 6.16718e-05 0
0.00560379 6.16718e-05 0
0.00486682 4.12126e-05 0
0.00486682 4.12126e-05 0
0.00424845 2.8044e-05 0
0.00424845 2.8044e-05 0
0.00366927 2.19899e-05 0
0.00366927 2.19899e-05 0
0.00318285 -1.60133e-05 0
0.00318285 -1.60133e-05 0
0.00147191 9.11594e-06 0
0.00147191 9.11594e-06 0
2.7827e-06 -3.67493e-05 -4.66958e-24
2.7827e-06 -3.67493e-05 -4.66958e-24
4.88725e-05 -0.000285393 1.26422e-23
4.88725e-05 -0.000285393 1.26422e-23
0.000127894 -0.000890856 1.49947e-23
0.000127894 -0.000890856 1.49947e-23
0.000154495 -0.00157329 -2.99981e-23
0.000154495 -0.00157329 -2.99981e-23
0.000123438 -0.00211215 -1.00057e-23
0.000123438 -0.00211215 -1.00057e-23
6.96449e-05 -0.00240944 2.00101e-23
6.96449e-05 -0.00240944 2.00101e-23
1.54857e-05 -0.00245841 0
1.54857e-05 -0.00245841 0
-2.65474e-05 -0.00229724 3.89012e-23
-2.65474e-05 -0.00229724 3.89012e-23
-5.18059e-05 -0.0019907 -4.69642e-27
-5.18059e-05 -0.0019907 -4.69642e-27
-5.94019e-05 -0.00160943 -3.89059e-23
-5.94019e-05 -0.00160943 -3.89059e-23
-4.93245e-05 -0.00122502 3.77557e-23
-4.93245e-05 -0.00122502 3.77557e-23
-2.51127e-05 -0.000907544 -4.72445e-27
-2.51127e-05 -0.000907544 -4.72445e-27
-4.07648e-06 -0.000718006 -3.77604e-23
-4.07648e-06 -0.000718006 -3.77604e-23
-1.71117e-05 -0.000674857 -3.71936e-23
-1.71117e-05 -0.000674857 -3.71936e-23
-5.6385e-05 -0.000684529 -1.89638e-27
-5.6385e-05 -0.000684529 -1.89638e-27
-6.97452e-05 -0.000658431 3.78509e-23
-6.97452e-05 -0.000658431 3.78509e-23
-7.20958e-05 -0.000500591 0
-7.20958e-05 -0.000500591 0
-8.98962e-05 -0.000204048 0
-8.98962e-05 -0.000204048 0
-4.71484e-05 2.45518e-06 0
-4.71484e-05 2.45518e-06 0
0.000133581 -0.000301312 0
0.000133581 -0.000301312 0
0.000282266 -0.00108277 0
0.000282266 -0.00108277 0
0.000197162 -0.00166028 0
0.000197162 -0.00166028 0
-7.94726e-06 -0.0017042 0
-7.94726e-06 -0.0017042 0
-0.000184481 -0.00138951 0
-0.000184481 -0.00138951 0
-0.000299238 -0.000863481 0
-0.000299238 -0.000863481 0
-0.000210602 -0.000278188 0
-0.000210602 -0.000278188 0
5.31552e-05 2.93991e-05 0
5.31552e-05 2.93991e-05 0
6.92432e-05 -0.000100973 -2.04669e-26
6.92432e-05 -0.000100973 -2.04669e-26
0.00024113 -0.000197495 2.32028e-24
0.00024113 -0.000197495 2.32028e-24
0.000459246 -0.000241256 0
0.000459246 -0.000241256 0
0.000688707 -0.000255674 0
0.000688707 -0.000255674 0
0.000924271 -0.000258706 -2.27267e-24
0.000924271 -0.000258706 -2.27267e-24
0.00116345 -0.000258483 -2.27676e-24
0.00116345 -0.000258483 -2.27676e-24
0.00140582 -0.000257771 0
0.00140582 -0.000257771 0
0.00165163 -0.00025692 0
0.00165163 -0.00025692 0
0.00190078 -0.000255286 0
0.00190078 -0.000255286 0
0.00215222 -0.000251758 2.28357e-24
0.00215222 -0.000251758 2.28357e-24
0.00240345 -0.000244987 2.28792e-24
0.00240345 -0.000244987 2.28792e-24
0.0026504 -0.000233368 0
0.0026504 -0.000233368 0
0.00288703 -0.000215144 0
0.00288703 -0.000215144 0
0.00310563 -0.00018876 0
0.00310563 -0.00018876 0
0.00329679 -0.000152824 2.34386e-24
0.00329679 -0.000152824 2.34386e-24
0.00345016 -0.000106449 2.34859e-24
0.00345016 -0.000106449 2.34859e-24
0.00355509 -4.95943e-05 0
0.00355509 -4.95943e-05 0
0.00360185 1.73941e-05 0
0.00360185 1.73941e-05 0
0.00357976 9.22521e-05 0
0.00357976 9.22521e-05 0
0.00347938 0.000171927 0
0.00347938 0.000171927 0
0.00329776 0.000250914 0
0.00329776 0.000250914 0
0.00303671 0.000322883 0
0.00303671 0.000322883 0
0.00270355 0.000383059 2.16819e-24
0.00270355 0.000383059 2.16819e-24
0.00231752 0.000415774 4.95633e-26
0.00231752 0.000415774 4.95633e-26
0.00189688 0.000422425 -4.56219e-26
0.00189688 0.000422425 -4.56219e-26
0.00148665 0.000362658 4.13447e-24
0.00148665 0.000362658 4.13447e-24
0.00113224 0.00021594 2.0519e-24
0.00113224 0.00021594 2.0519e-24
0.000749335 0.000168991 0
0.000749335 0.000168991 0
0.000476083 0.000151652 -1.97991e-24
0.000476083 0.000151652 -1.97991e-24
0.000568114 -9.75675e-05 -3.93866e-24
0.000568114 -9.75675e-05 -3.93866e-24
0.000859338 -0.000546957 -1.95874e-24
0.000859338 -0.000546957 -1.95874e-24
0.00105057 -0.000992167 0
0.00105057 -0.000992167 0
0.00106981 -0.00101951 -1.92453e-24
0.00106981 -0.00101951 -1.92453e-24
0.000858748 -0.000368665 -1.92927e-24
0.000858748 -0.000368665 -1.92927e-24
0.000217856 0.000470567 0
0.000217856 0.000470567 0
-0.000699298 0.000832205 1.8642e-24
-0.000699298 0.000832205 1.8642e-24
-0.00159062 0.000814318 1.86894e-24
-0.00159062 0.000814318 1.86894e-24
-0.00241888 0.00075127 1.89916e-24
-0.00241888 0.00075127 1.89916e-24
-0.00318347 0.000685406 5.78026e-24
-0.00318347 0.000685406 5.78026e-24
-0.00388469 0.000620638 3.88634e-24
-0.00388469 0.000620638 3.88634e-24
-0.00452677 0.00056004 0
-0.00452677 0.00056004 0
-0.00511341 0.00050431 0
-0.00511341 0.00050431 0
-0.00564909 0.000453317 0
-0.00564909 0.000453317 0
-0.00613708 0.000406565 0
-0.00613708 0.000406565 0
-0.00658015 0.000363484 4.47403e-24
-0.00658015 0.000363484 4.47403e-24
-0.00698018 0.000323369 9.04129e-24
-0.00698018 0.000323369 9.04129e-24
-0.00733829 0.000285402 9.1903e-24
-0.00733829 0.000285402 9.1903e-24
-0.00765493 0.000248933 4.63582e-24
-0.00765493 0.000248933 4.63582e-24
-0.00793007 0.000213614 -4.71217e-24
-0.00793007 0.000213614 -4.71217e-24
-0.00816352 0.000179183 -4.72582e-24
-0.00816352 0.000179183 -4.72582e-24
-0.00835489 0.000145339 4.73067e-24
-0.00835489 0.000145339 4.73067e-24
-0.00850381 0.000111972 9.45618e-24
-0.00850381 0.000111972 9.45618e-24
-0.00861017 7.94653e-05 4.72558e-24
-0.00861017 7.94653e-05 4.72558e-24
-0.00867402 4.84982e-05 0
-0.00867402 4.84982e-05 0
-0.00869553 1.944e-05 0
-0.00869553 1.944e-05 0
-0.00867729 -7.73242e-06 4.45653e-24
-0.00867729 -7.73242e-06 4.45653e-24
-0.00862117 -3.31474e-05 4.47033e-24
-0.00862117 -3.31474e-05 4.47033e-24
-0.00852792 -5.7061e-05 0
-0.00852792 -5.7061e-05 0
-0.00839917 -7.96161e-05 0
-0.00839917 -7.96161e-05 0
-0.00823647 -0.000100498 0
-0.00823647 -0.000100498 0
-0.00804239 -0.000119223 0
-0.00804239 -0.000119223 0
-0.00782016 -0.000135207 0
-0.00782016 -0.000135207 0
-0.00757434 -0.000147717 0
-0.00757434 -0.000147717 0
-0.00731071 -0.000156103 0
-0.00731071 -0.000156103 0
-0.00703619 -0.000159926 -3.34849e-24
-0.00703619 -0.000159926 -3.34849e-24
-0.00675823 -0.000159149 -3.35974e-24
-0.00675823 -0.000159149 -3.35974e-24
-0.00648404 -0.000154289 0
-0.00648404 -0.000154289 0
-0.00621946 -0.000146437 3.00564e-24
-0.00621946 -0.000146437 3.00564e-24
-0.00596806 -0.000137097 5.91684e-24
-0.00596806 -0.000137097 5.91684e-24
-0.0057307 -0.000127885 2.91093e-24
-0.0057307 -0.000127885 2.91093e-24
-0.00550555 -0.000120228 -2.69997e-24
-0.00550555 -0.000120228 -2.69997e-24
-0.00528865 -0.000115167 -1.07985e-25
-0.00528865 -0.000115167 -1.07985e-25
-0.00507475 -0.000113292 2.61083e-24
-0.00507475 -0.000113292 2.61083e-24
-0.004858 -0.000114799 -2.40352e-24
-0.004858 -0.000114799 -2.40352e-24
-0.00463244 -0.000119557 -2.41224e-24
-0.00463244 -0.000119557 -2.41224e-24
-0.00439254 -0.000127093 0
-0.00439254 -0.000127093 0
-0.00413395 -0.000136543 2.09703e-24
-0.00413395 -0.000136543 2.09703e-24
-0.00385415 -0.00014677 2.10483e-24
-0.00385415 -0.00014677 2.10483e-24
-0.00355277 -0.000156578 -1.89116e-24
-0.00355277 -0.000156578 -1.89116e-24
-0.00323154 -0.000164835 -1.89831e-24
-0.00323154 -0.000164835 -1.89831e-24
-0.0028942 -0.0001706 1.69593e-24
-0.0028942 -0.0001706 1.69593e-24
-0.00254591 -0.000173313 3.30856e-24
-0.00254591 -0.000173313 3.30856e-24
-0.00219229 -0.000172859 3.13538e-24
-0.00219229 -0.000172859 3.13538e-24
-0.00183874 -0.000169456 4.42375e-24
-0.00183874 -0.000169456 4.42375e-24
-0.00149022 -0.000163529 1.47349e-25
-0.00149022 -0.000163529 1.47349e-25
-0.00115108 -0.000155617 -2.7697e-24
-0.00115108 -0.000155617 -2.7697e-24
-0.000824772 -0.000146284 0
-0.000824772 -0.000146284 0
-0.000513705 -0.000136011 0
-0.000513705 -0.000136011 0
-0.000219945 -0.000125269 -2.35783e-24
-0.000219945 -0.000125269 -2.35783e-24
5.4904e-05 -0.000114688 -4.65459e-24
5.4904e-05 -0.000114688 -4.65459e-24
0.000311174 -0.000104344 -7.14553e-26
0.000311174 -0.000104344 -7.14553e-26
0.000549905 -9.41698e-05 2.23429e-24
0.000549905 -9.41698e-05 2.23429e-24
0.000771467 -8.44265e-05 -2.12322e-24
0.000771467 -8.44265e-05 -2.12322e-24
0.000976284 -7.51859e-05 -4.21324e-24
0.000976284 -7.51859e-05 -4.21324e-24
0.00116501 -6.64853e-05 -4.13343e-24
0.00116501 -6.64853e-05 -4.13343e-24
0.00133838 -5.83373e-05 -2.05224e-24
0.00133838 -5.83373e-05 -2.05224e-24
0.00149716 -5.07381e-05 0
0.00149716 -5.07381e-05 0
0.00164213 -4.36743e-05 0
0.00164213 -4.36743e-05 0
0.00177405 -3.71283e-05 -1.9242e-24
0.00177405 -3.71283e-05 -1.9242e-24
0.00189365 -3.10824e-05 -1.93263e-24
0.00189365 -3.10824e-05 -1.93263e-24
0.00200169 -2.55208e-05 0
0.00200169 -2.55208e-05 0
0.00209887 -2.04307e-05 1.85306e-24
0.00209887 -2.04307e-05 1.85306e-24
0.0021859 -1.58016e-05 1.86134e-24
0.0021859 -1.58016e-05 1.86134e-24
0.00226349 -1.16233e-05 0
0.00226349 -1.16233e-05 0
0.00233236 -7.88381e-06 1.78837e-24
0.00233236 -7.88381e-06 1.78837e-24
0.00239322 -4.56777e-06 1.79651e-24
0.00239322 -4.56777e-06 1.79651e-24
0.00244678 -1.6543e-06 0
0.00244678 -1.6543e-06 0
0.00249374 8.83722e-07 -1.72564e-24
0.00249374 8.83722e-07 -1.72564e-24
0.00253477 3.07779e-06 -3.43836e-24
0.00253477 3.07779e-06 -3.43836e-24
0.0025705 4.96528e-06 -1.71267e-24
0.0025705 4.96528e-06 -1.71267e-24
0.00260151 6.58582e-06 1.66245e-24
0.00260151 6.58582e-06 1.66245e-24
0.00262834 7.97386e-06 1.67031e-24
0.00262834 7.97386e-06 1.67031e-24
0.00265143 9.16692e-06 -1.61949e-24
0.00265143 9.16692e-06 -1.61949e-24
0.00267116 1.01943e-05 -1.62724e-24
0.00267116 1.01943e-05 -1.62724e-24
0.00268786 1.10666e-05 -1.57574e-24
0.00268786 1.10666e-05 -1.57574e-24
0.0027018 1.181e-05 -3.13695e-24
0.0027018 1.181e-05 -3.13695e-24
0.00271319 1.24322e-05 -1.56115e-24
0.00271319 1.24322e-05 -1.56115e-24
0.00272225 1.29159e-05 0
0.00272225 1.29159e-05 0
0.00272911 1.33123e-05 0
0.00272911 1.33123e-05 0
0.00273386 1.36438e-05 0
0.00273386 1.36438e-05 0
0.00273671 1.3841e-05 0
0.00273671 1.3841e-05 0
0.00273788 1.38709e-05 0
0.00273788 1.38709e-05 0
0.00273755 1.37442e-05 0
0.00273755 1.37442e-05 0
0.00273601 1.34689e-05 -1.37183e-24
0.00273601 1.34689e-05 -1.37183e-24
0.00273351 1.30587e-05 -3.00447e-26
0.00273351 1.30587e-05 -3.00447e-26
0.00273031 1.25392e-05 1.35567e-24
0.00273031 1.25392e-05 1.35567e-24
0.00272662 1.19399e-05 0
0.00272662 1.19399e-05 0
0.00272264 1.12871e-05 0
0.00272264 1.12871e-05 0
0.00271853 1.06025e-05 0
0.00271853 1.06025e-05 0
0.00271441 9.9054e-06 2.46595e-24
0.00271441 9.9054e-06 2.46595e-24
0.00271039 9.215e-06 2.4789e-24
0.00271039 9.215e-06 2.4789e-24
0.00270653 8.5491e-06 -2.37316e-24
0.00270653 8.5491e-06 -2.37316e-24
0.00270287 7.91939e-06 -5.8942e-26
0.00270287 7.91939e-06 -5.8942e-26
0.00269943 7.32771e-06 2.33921e-24
0.00269943 7.32771e-06 2.33921e-24
0.00269624 6.76638e-06 0
0.00269624 6.76638e-06 0
0.00269331 6.22679e-06 0
0.00269331 6.22679e-06 0
0.00269065 5.70928e-06 -2.14208e-24
0.00269065 5.70928e-06 -2.14208e-24
0.00268823 5.22038e-06 -4.24985e-24
0.00268823 5.22038e-06 -4.24985e-24
0.00268599 4.77279e-06 -2.10757e-24
0.00268599 4.77279e-06 -2.10757e-24
0.00268392 4.37343e-06 -2.00465e-24
0.00268392 4.37343e-06 -2.00465e-24
0.002682 4.01719e-06 -3.97484e-24
0.002682 4.01719e-06 -3.97484e-24
0.00268022 3.69963e-06 -5.6204e-26
0.00268022 3.69963e-06 -5.6204e-26
0.00267857 3.41658e-06 1.92441e-24
0.00267857 3.41658e-06 1.92441e-24
0.00267705 3.16345e-06 0
0.00267705 3.16345e-06 0
0.00267565 2.93502e-06 1.77864e-24
0.00267565 2.93502e-06 1.77864e-24
0.00267438 2.72688e-06 1.78865e-24
0.00267438 2.72688e-06 1.78865e-24
0.00267323 2.53808e-06 0
0.00267323 2.53808e-06 0
0.0026722 2.37103e-06 0
0.0026722 2.37103e-06 0
0.00267127 2.22856e-06 0
0.00267127 2.22856e-06 0
0.00267044 2.11194e-06 -1.55645e-24
0.00267044 2.11194e-06 -1.55645e-24
0.00266967 2.02055e-06 -3.07785e-24
0.00266967 2.02055e-06 -3.07785e-24
0.00266895 1.95168e-06 -1.52118e-24
0.00266895 1.95168e-06 -1.52118e-24
0.00266824 1.90159e-06 -1.42484e-24
0.00266824 1.90159e-06 -1.42484e-24
0.00266752 1.86692e-06 -1.43313e-24
0.00266752 1.86692e-06 -1.43313e-24
0.00266678 1.84511e-06 0
0.00266678 1.84511e-06 0
0.00266599 1.83463e-06 -1.29434e-24
0.00266599 1.83463e-06 -1.29434e-24
0.00266513 1.83475e-06 -1.30196e-24
0.00266513 1.83475e-06 -1.30196e-24
0.00266418 1.84564e-06 -1.20785e-24
0.00266418 1.84564e-06 -1.20785e-24
0.00266311 1.86824e-06 -1.21502e-24
0.00266311 1.86824e-06 -1.21502e-24
0.00266187 1.90499e-06 0
0.00266187 1.90499e-06 0
0.00266042 1.959e-06 -1.07867e-24
0.00266042 1.959e-06 -1.07867e-24
0.00265869 2.03555e-06 -1.08514e-24