/*--------------------------------*- C++ -*----------------------------------*\
  =========                 |
  \\      /  F ield         | OpenFOAM: The Open Source CFD Toolbox
   \\    /   O peration     | Website:  https://openfoam.org
    \\  /    A nd           | Version:  7
     \\/     M anipulation  |
\*---------------------------------------------------------------------------*/
FoamFile
{
    version     2.0;
    format      ascii;
    class       volScalarField;
    location    "0.067";
    object      k;
}
// * * * * * * * * * * * * * * * * * * * * * * * * * * * * * * * * * * * * * //

dimensions      [0 2 -2 0 0 0 0];

internalField   nonuniform List<scalar> 
12225
(
1.93877e-05
1.79904e-05
1.66727e-05
1.54348e-05
1.39859e-05
1.28661e-05
1.15604e-05
1.01928e-05
9.09313e-06
7.83918e-06
6.5966e-06
5.9139e-06
5.73032e-06
5.62082e-06
5.2617e-06
4.44874e-06
3.8284e-06
4.24171e-06
1.99813e-05
1.98877e-05
1.96892e-05
1.95015e-05
1.90887e-05
1.90973e-05
1.8905e-05
1.80126e-05
1.75545e-05
1.71272e-05
1.6429e-05
1.58073e-05
1.53436e-05
1.51193e-05
1.49705e-05
1.46707e-05
1.42719e-05
1.33547e-05
2.00018e-05
1.96925e-05
1.94511e-05
1.93035e-05
1.9208e-05
1.91649e-05
1.90586e-05
1.87777e-05
1.85454e-05
1.84062e-05
1.82353e-05
1.8066e-05
1.79478e-05
1.79005e-05
1.78811e-05
1.78478e-05
1.77766e-05
1.76146e-05
2.02685e-05
2.04856e-05
2.01353e-05
1.86662e-05
1.80796e-05
1.77493e-05
1.70513e-05
1.63471e-05
1.59323e-05
1.57901e-05
1.57777e-05
1.58284e-05
1.61103e-05
1.66858e-05
1.70718e-05
1.72646e-05
1.7332e-05
1.73317e-05
2.08433e-05
2.91221e-05
3.11637e-05
2.92486e-05
2.48395e-05
2.00193e-05
1.84582e-05
1.79698e-05
1.68786e-05
1.60331e-05
1.5923e-05
1.60077e-05
1.63524e-05
1.69873e-05
1.73935e-05
1.75625e-05
1.75821e-05
1.74996e-05
2.09685e-05
2.91609e-05
3.11718e-05
2.99351e-05
2.53747e-05
2.2778e-05
2.20674e-05
2.19314e-05
2.20405e-05
2.28002e-05
2.34011e-05
2.35866e-05
2.36763e-05
2.37587e-05
2.3789e-05
2.37543e-05
2.35677e-05
2.2794e-05
2.0129e-05
2.2081e-05
2.51273e-05
2.52711e-05
2.40771e-05
2.25234e-05
2.20193e-05
2.19564e-05
2.21637e-05
2.34418e-05
2.6419e-05
2.83419e-05
2.92662e-05
2.96325e-05
2.96902e-05
2.95049e-05
2.85433e-05
2.71234e-05
2.00382e-05
2.02369e-05
2.1243e-05
2.29541e-05
2.29681e-05
2.28799e-05
2.2743e-05
2.24006e-05
2.22561e-05
2.23788e-05
2.32245e-05
2.55886e-05
2.72089e-05
2.78457e-05
2.79562e-05
2.79031e-05
2.76085e-05
2.70469e-05
2.01719e-05
2.11331e-05
2.18398e-05
2.16237e-05
2.16608e-05
2.24322e-05
2.38602e-05
2.41626e-05
2.39636e-05
2.31019e-05
2.24999e-05
2.23825e-05
2.23908e-05
2.23882e-05
2.23671e-05
2.24603e-05
2.32155e-05
2.42753e-05
2.04486e-05
2.08502e-05
2.07379e-05
2.06653e-05
2.07566e-05
2.14909e-05
2.36617e-05
2.50311e-05
2.53208e-05
2.51668e-05
2.42825e-05
2.32206e-05
2.25061e-05
2.19335e-05
2.15231e-05
2.1411e-05
2.14653e-05
2.1796e-05
2.0217e-05
2.05512e-05
2.10285e-05
2.0944e-05
2.06367e-05
2.0638e-05
2.09991e-05
2.24909e-05
2.53424e-05
2.66843e-05
2.68405e-05
2.67415e-05
2.62584e-05
2.47713e-05
2.31746e-05
2.21215e-05
2.14965e-05
2.12363e-05
2.01775e-05
2.04907e-05
2.14324e-05
2.18519e-05
2.1507e-05
2.09218e-05
2.09173e-05
2.14617e-05
2.35499e-05
2.50731e-05
2.55838e-05
2.56553e-05
2.55538e-05
2.4978e-05
2.36413e-05
2.25844e-05
2.1869e-05
2.14414e-05
2.02008e-05
2.02783e-05
2.09384e-05
2.14255e-05
2.13227e-05
2.08625e-05
2.07543e-05
2.08985e-05
2.15789e-05
2.20949e-05
2.22426e-05
2.22697e-05
2.22839e-05
2.22539e-05
2.20318e-05
2.1687e-05
2.14261e-05
2.12857e-05
2.01585e-05
2.01453e-05
2.06633e-05
2.24658e-05
2.28901e-05
2.21288e-05
2.11165e-05
2.08644e-05
2.08799e-05
2.10443e-05
2.1139e-05
2.11372e-05
2.10655e-05
2.09387e-05
2.08606e-05
2.0816e-05
2.07507e-05
2.07221e-05
2.00559e-05
2.01694e-05
2.1244e-05
2.30112e-05
2.28794e-05
2.2371e-05
2.22733e-05
2.24679e-05
2.26588e-05
2.26479e-05
2.24094e-05
2.17227e-05
2.1199e-05
2.08963e-05
2.07504e-05
2.06909e-05
2.06583e-05
2.06012e-05
2.02998e-05
2.02353e-05
2.03155e-05
2.07684e-05
2.17582e-05
2.28334e-05
2.35164e-05
2.36502e-05
2.36051e-05
2.32836e-05
2.26643e-05
2.2155e-05
2.17507e-05
2.14617e-05
2.12421e-05
2.10903e-05
2.09408e-05
2.07784e-05
2.04288e-05
2.0365e-05
2.03496e-05
2.05546e-05
2.18238e-05
2.37828e-05
2.42279e-05
2.41334e-05
2.35841e-05
2.25455e-05
2.18583e-05
2.14596e-05
2.12248e-05
2.10797e-05
2.096e-05
2.08605e-05
2.07464e-05
2.0615e-05
2.07859e-05
2.13818e-05
2.11455e-05
2.0789e-05
2.08269e-05
2.13184e-05
2.21721e-05
2.22432e-05
2.19592e-05
2.11894e-05
2.07176e-05
2.04974e-05
2.04025e-05
2.03548e-05
2.03254e-05
2.0294e-05
2.02687e-05
2.0248e-05
2.07513e-05
2.11562e-05
2.09818e-05
2.04623e-05
2.03412e-05
2.03691e-05
2.04993e-05
2.05572e-05
2.0557e-05
2.05194e-05
2.04566e-05
2.04263e-05
2.04152e-05
2.04129e-05
2.04135e-05
2.04161e-05
2.0424e-05
2.04308e-05
2.01284e-05
2.03869e-05
2.0447e-05
2.04299e-05
2.03398e-05
2.03017e-05
2.03102e-05
2.03518e-05
2.03907e-05
2.0438e-05
2.05022e-05
2.05688e-05
2.0622e-05
2.0656e-05
2.06725e-05
2.06766e-05
2.06733e-05
2.06467e-05
2.07278e-05
2.09003e-05
2.0879e-05
2.07603e-05
2.05386e-05
2.04309e-05
2.03927e-05
2.04313e-05
2.05814e-05
2.0703e-05
2.07605e-05
2.07771e-05
2.07767e-05
2.07606e-05
2.06882e-05
2.06049e-05
2.05652e-05
2.05476e-05
2.03432e-05
2.05465e-05
2.0549e-05
2.047e-05
2.0432e-05
2.044e-05
2.05179e-05
2.08209e-05
2.11937e-05
2.14147e-05
2.15055e-05
2.15202e-05
2.15043e-05
2.14008e-05
2.10759e-05
2.07881e-05
2.06185e-05
2.05346e-05
2.08984e-05
2.08525e-05
2.06442e-05
2.07067e-05
2.09372e-05
2.10246e-05
2.10703e-05
2.1172e-05
2.13448e-05
2.14439e-05
2.14681e-05
2.14619e-05
2.1409e-05
2.11751e-05
2.07573e-05
2.04916e-05
2.03834e-05
2.03654e-05
2.07e-05
2.03504e-05
2.02192e-05
2.0261e-05
2.03394e-05
2.04106e-05
2.04841e-05
2.04956e-05
2.04971e-05
2.04939e-05
2.04792e-05
2.04274e-05
2.03155e-05
2.02365e-05
2.02026e-05
2.01979e-05
2.02081e-05
2.02782e-05
2.02491e-05
2.01392e-05
2.00949e-05
2.00974e-05
2.01401e-05
2.01726e-05
2.01865e-05
2.01918e-05
2.01924e-05
2.01903e-05
2.01811e-05
2.01609e-05
2.0145e-05
2.01365e-05
2.01334e-05
2.01326e-05
2.01329e-05
2.01364e-05
2.02241e-05
2.0773e-05
2.19783e-05
2.17326e-05
2.07279e-05
2.03108e-05
2.02198e-05
2.02148e-05
2.02339e-05
2.02542e-05
2.0258e-05
2.02521e-05
2.02187e-05
2.01767e-05
2.01457e-05
2.01233e-05
2.01113e-05
2.01066e-05
2.00042e-05
2.00689e-05
2.00696e-05
2.00078e-05
1.98556e-05
1.98326e-05
1.98639e-05
1.99613e-05
2.01061e-05
2.02302e-05
2.03542e-05
2.04981e-05
2.06601e-05
2.07918e-05
2.08769e-05
2.0922e-05
2.09818e-05
2.09833e-05
2.02019e-05
1.91618e-05
1.64908e-05
1.69257e-05
1.85448e-05
2.18803e-05
2.80257e-05
3.42924e-05
4.02041e-05
4.61966e-05
5.25408e-05
5.85814e-05
6.4304e-05
6.88368e-05
7.25438e-05
7.51485e-05
7.72992e-05
8.0092e-05
3.30386e-05
0.000107319
0.000202376
0.00025237
0.000295375
0.000348365
0.000406613
0.000459199
0.000498032
0.000521911
0.000534502
0.000539369
0.000540207
0.000540974
0.00054302
0.000547382
0.000555196
0.000571191
0.00276152
0.00296486
0.00292149
0.00267133
0.00240665
0.00221044
0.00208922
0.00203321
0.00197841
0.00186414
0.00170876
0.00156585
0.00146073
0.00139673
0.00136468
0.00135194
0.00134637
0.00133871
0.00184114
0.00413655
0.00468571
0.00435306
0.00476345
0.00515911
0.00558373
0.00589843
0.00670712
0.00837016
0.00862882
0.00830601
0.00719291
0.00618991
0.00553631
0.00505688
0.00464789
0.00435848
0.00405866
0.00385068
0.00362393
0.00341542
0.00322951
0.00294062
0.0027352
0.00258729
0.00249166
0.00243938
0.00237351
0.00222499
0.00201336
0.00160464
0.00111444
0.000985578
0.00129692
0.00238984
0.00300033
0.00338698
0.00367924
0.00392942
0.00434944
0.00525522
0.00758816
0.0137637
0.0203127
0.0239432
0.0265994
0.0294591
0.0312334
0.033056
0.0384408
0.0597225
0.0639054
0.0258192
0.00351693
0.00123196
0.000906058
0.000906152
0.000925718
0.000947092
0.000910135
0.000851222
0.000766289
0.000650881
0.000584944
0.000480182
0.000391079
0.000338692
0.000269019
0.000215644
0.000188529
0.000155173
0.000134663
0.000124528
0.000120661
0.000122581
0.000123819
0.000125873
0.00012707
0.000128133
0.000129274
0.000130005
0.000130607
0.000131054
0.000131322
0.000131472
0.000131536
0.000131205
0.000130521
0.000129736
0.000128497
0.000127186
0.000125336
0.00012347
0.000121191
0.000118651
0.000115653
0.000112207
0.000108377
0.000104195
9.96258e-05
9.4825e-05
8.94663e-05
8.37915e-05
7.84057e-05
7.2836e-05
6.73904e-05
6.20914e-05
5.71771e-05
5.28481e-05
4.92164e-05
4.58581e-05
4.26581e-05
3.95599e-05
3.65265e-05
3.355e-05
3.0625e-05
2.77489e-05
2.49341e-05
2.21862e-05
1.94522e-05
1.66809e-05
1.39789e-05
1.15054e-05
9.35267e-06
7.52087e-06
5.99237e-06
4.7427e-06
3.73759e-06
2.93752e-06
2.30533e-06
1.80917e-06
1.42233e-06
1.12262e-06
8.91606e-07
7.14074e-07
5.77589e-07
4.72174e-07
3.90019e-07
3.25137e-07
2.73032e-07
2.30404e-07
1.94893e-07
1.64854e-07
1.3916e-07
1.17042e-07
9.79585e-08
8.15118e-08
6.73871e-08
5.53207e-08
4.50799e-08
3.64519e-08
2.92398e-08
2.32607e-08
1.83459e-08
1.43415e-08
1.11083e-08
8.52224e-09
6.47349e-09
4.86647e-09
3.61884e-09
2.66088e-09
1.93366e-09
1.38838e-09
9.84385e-10
6.89074e-10
4.75785e-10
3.24085e-10
2.17361e-10
1.4375e-10
9.33117e-11
5.97236e-11
3.73666e-11
2.29268e-11
1.39171e-11
7.44118e-12
2.45869e-11
8.65543e-09
1.59455e-06
1.38113e-06
0.00146359
0.00339444
0.00442952
0.00592348
0.00685521
0.00724154
0.00732865
0.00640329
0.00573707
0.00567933
0.00552292
0.00518568
0.00491144
0.0045034
0.00412572
0.00391607
0.00377315
0.00369787
0.00363474
0.00358549
0.0035227
0.00346197
0.0034016
0.00331531
0.00323496
0.00310737
0.00296894
0.00277832
0.00252977
0.00229126
0.0020945
0.00182247
0.00164403
0.001392
0.0012363
0.00126858
0.00135994
0.00166965
0.00172659
0.00163345
0.00136794
0.00125139
0.00125554
0.00150936
0.00261093
0.00307529
0.00341947
0.00433966
0.0082549
0.0294523
0.0396479
0.0309023
0.0162243
0.0048748
0.00131766
0.000725385
0.000568726
0.000508022
0.00044186
0.00039243
0.000350749
0.000310514
0.000286303
0.000262961
0.000251795
0.000238553
0.00023232
0.000228802
0.000225773
0.00022447
0.000223934
0.00022332
0.000223096
0.000222943
0.000222345
0.000221615
0.000220941
0.000220102
0.00021921
0.000218642
0.0002179
0.000217214
0.00021672
0.000216219
0.000215811
0.000215217
0.000214727
0.000214103
0.000213425
0.000212548
0.000211476
0.000210273
0.000208964
0.000207494
0.000205787
0.000203902
0.000201907
0.000199724
0.000197423
0.000195061
0.000192573
0.000189799
0.000186167
0.00018151
0.000176303
0.000170559
0.00016434
0.000157314
0.00014912
0.000139709
0.00012991
0.000121228
0.000113645
0.000106432
9.93731e-05
9.24709e-05
8.58188e-05
7.93367e-05
7.30177e-05
6.69452e-05
6.12705e-05
5.61208e-05
5.1406e-05
4.69307e-05
4.25652e-05
3.82866e-05
3.41064e-05
3.00565e-05
2.61784e-05
2.25191e-05
1.91366e-05
1.60856e-05
1.34009e-05
1.10909e-05
9.14183e-06
7.52461e-06
6.20153e-06
5.13158e-06
4.27411e-06
3.5906e-06
3.04548e-06
2.60704e-06
2.24842e-06
1.9484e-06
1.69151e-06
1.46729e-06
1.2691e-06
1.09286e-06
9.35963e-07
7.96584e-07
6.73303e-07
5.64889e-07
4.7021e-07
3.88174e-07
3.17692e-07
2.57686e-07
2.07077e-07
1.64803e-07
1.29845e-07
1.0124e-07
7.80764e-08
5.95263e-08
4.48401e-08
3.33613e-08
2.45013e-08
1.77596e-08
1.2694e-08
8.94844e-09
6.21092e-09
4.24837e-09
2.85607e-09
1.88841e-09
1.2261e-09
7.81088e-10
4.80046e-10
3.06614e-10
1.5161e-10
7.93774e-10
2.24409e-07
2.66655e-07
0.000621596
0.00160915
0.00263583
0.00360396
0.00628622
0.00827919
0.00816092
0.00740929
0.00556729
0.00390825
0.00335546
0.00317616
0.00315319
0.00316174
0.00318389
0.00321986
0.00324506
0.00325171
0.0032493
0.00324075
0.00322076
0.00317944
0.00313076
0.00306296
0.00301789
0.00297523
0.00293062
0.00284402
0.00266827
0.00242745
0.00221625
0.001955
0.00176178
0.00158236
0.00135199
0.00122908
0.00121584
0.00124787
0.00138285
0.00139808
0.00134595
0.00116756
0.00111817
0.00118597
0.00154282
0.00237085
0.0048208
0.0145431
0.0192476
0.0226433
0.0140695
0.00560109
0.00232392
0.000854091
0.000457889
0.000358755
0.000319322
0.000294392
0.000276909
0.000263267
0.000255715
0.000247076
0.000242804
0.000237863
0.000235463
0.000232457
0.000230752
0.000229562
0.000228492
0.000227871
0.000227258
0.000226829
0.000226621
0.000226525
0.000226477
0.000226466
0.000226504
0.000226562
0.00022683
0.000227069
0.000227365
0.000227951
0.000228759
0.000229643
0.000230526
0.000231269
0.000231786
0.000232156
0.000232281
0.000231982
0.000231164
0.000230014
0.000228568
0.000226777
0.000224573
0.000222011
0.000219439
0.000216669
0.000213826
0.000211198
0.0002085
0.000206462
0.000204981
0.000203119
0.000200796
0.000197548
0.000193582
0.000189538
0.000185247
0.000180264
0.000173353
0.000164059
0.000154013
0.000144653
0.000135715
0.000127048
0.00011842
0.000109646
0.000100096
8.98923e-05
7.98368e-05
7.1076e-05
6.43556e-05
5.9459e-05
5.57729e-05
5.28455e-05
5.03109e-05
4.78771e-05
4.5279e-05
4.22675e-05
3.87544e-05
3.48708e-05
3.08315e-05
2.68237e-05
2.29737e-05
1.9367e-05
1.60726e-05
1.31512e-05
1.06451e-05
8.56639e-06
6.89419e-06
5.58155e-06
4.5679e-06
3.79065e-06
3.19311e-06
2.72825e-06
2.35954e-06
2.05981e-06
1.80958e-06
1.59518e-06
1.40719e-06
1.23929e-06
1.08737e-06
9.49019e-07
8.22923e-07
7.08257e-07
6.04354e-07
5.10884e-07
4.27575e-07
3.54109e-07
2.90038e-07
2.34834e-07
1.87849e-07
1.48399e-07
1.15691e-07
8.89724e-08
6.7437e-08
5.03573e-08
3.70169e-08
2.67641e-08
1.90461e-08
1.32725e-08
9.12568e-09
6.07791e-09
4.03728e-09
2.50915e-09
1.64193e-09
8.95329e-10
6.84413e-09
1.99639e-08
0.000875729
0.00130581
0.0017954
0.00392974
0.00916482
0.00906543
0.00821171
0.00573825
0.00359651
0.00290392
0.00276774
0.00279023
0.00286086
0.00296153
0.00307482
0.00316843
0.00326937
0.00337026
0.0034082
0.00347493
0.00352638
0.00353727
0.00356705
0.00357047
0.00356135
0.00353393
0.00347505
0.00340041
0.00327714
0.00297479
0.00262328
0.00228477
0.00200438
0.00177931
0.00154018
0.00133382
0.00124709
0.00123635
0.00122929
0.00120409
0.00108322
0.0010224
0.00111649
0.00168987
0.00374403
0.00982802
0.0127503
0.0142782
0.0121593
0.0059427
0.0028286
0.00118036
0.000574344
0.000367339
0.000314334
0.000299497
0.000293892
0.000289671
0.000286642
0.000285571
0.00028501
0.000283651
0.000282834
0.000281117
0.000279382
0.000277447
0.000276019
0.000274119
0.000271517
0.000269535
0.000268046
0.000266801
0.000265586
0.000264414
0.000263915
0.000263746
0.000263291
0.000263291
0.000263769
0.00026471
0.000266168
0.000268286
0.000271018
0.000274132
0.000277094
0.000279027
0.00028004
0.000280394
0.000280008
0.000278236
0.000276092
0.000273154
0.000268957
0.000263541
0.000257553
0.000250454
0.000243431
0.000236153
0.000228407
0.000220881
0.000214754
0.000210231
0.000207188
0.000206061
0.000205548
0.000204516
0.000202363
0.000198801
0.000194911
0.000191669
0.000188921
0.000185207
0.000178066
0.000167398
0.000155794
0.00014553
0.000136528
0.000128726
0.000122156
0.000116072
0.000109131
0.000100556
9.11529e-05
8.27007e-05
7.58138e-05
7.0285e-05
6.59219e-05
6.2369e-05
5.9358e-05
5.66438e-05
5.38786e-05
5.07598e-05
4.72509e-05
4.34151e-05
3.92188e-05
3.4566e-05
2.95091e-05
2.43616e-05
1.95445e-05
1.53542e-05
1.19164e-05
9.20801e-06
7.12439e-06
5.5406e-06
4.34471e-06
3.44746e-06
2.77916e-06
2.28319e-06
1.91268e-06
1.63082e-06
1.41064e-06
1.23327e-06
1.08615e-06
9.60667e-07
8.50683e-07
7.52016e-07
6.6215e-07
5.79553e-07
5.03262e-07
4.32899e-07
3.68485e-07
3.1016e-07
2.5801e-07
2.12026e-07
1.72058e-07
1.37821e-07
1.08915e-07
8.48793e-08
6.52152e-08
4.93529e-08
3.67953e-08
2.69478e-08
1.94695e-08
1.36984e-08
9.6426e-09
6.35426e-09
4.51934e-09
2.58662e-09
1.90935e-09
2.0424e-09
0.0049418
0.00472915
0.011774
0.0152812
0.0131654
0.00860352
0.00434087
0.00290288
0.00258955
0.00260973
0.00269312
0.00288567
0.00316235
0.00335262
0.00355148
0.00374837
0.00389768
0.00410151
0.00423537
0.00436699
0.00444022
0.00443042
0.00439517
0.00432201
0.00424375
0.00418082
0.00409349
0.00401676
0.00394642
0.00380518
0.00346311
0.00295041
0.00256626
0.00229092
0.00200287
0.00178414
0.00150059
0.00133839
0.00127888
0.00115878
0.00107532
0.00116146
0.00197928
0.00623888
0.00945167
0.0103801
0.0106806
0.00745464
0.00342622
0.00156277
0.000769607
0.00044533
0.000338965
0.000309251
0.00030219
0.000299798
0.000298781
0.000300152
0.000301687
0.000301722
0.000301522
0.00030085
0.000299977
0.000298724
0.000297011
0.000296013
0.000295604
0.000295343
0.000295218
0.000295342
0.00029603
0.000297257
0.000298543
0.00029981
0.000301458
0.000303682
0.000306544
0.000309828
0.000314163
0.000319613
0.000325983
0.000332833
0.000339787
0.000346933
0.00035024
0.000350734
0.000350272
0.000349366
0.00034799
0.000345495
0.000343
0.000339762
0.000333268
0.000323822
0.000312912
0.000299064
0.000285642
0.000271643
0.00025798
0.000244431
0.000229873
0.000216494
0.000206723
0.000201814
0.000202745
0.000204363
0.000205118
0.000204025
0.000200566
0.000195654
0.000192092
0.00019052
0.000189848
0.000188346
0.000182086
0.000167
0.000150002
0.000136343
0.000126759
0.000120074
0.000115033
0.000110267
0.000104171
9.59167e-05
8.67966e-05
7.8903e-05
7.29044e-05
6.83613e-05
6.48941e-05
6.23285e-05
6.05267e-05
5.91103e-05
5.75103e-05
5.54258e-05
5.30339e-05
5.0598e-05
4.80199e-05
4.48842e-05
4.08534e-05
3.59602e-05
3.05411e-05
2.50574e-05
1.98989e-05
1.52913e-05
1.13427e-05
8.13031e-06
5.72149e-06
4.09758e-06
3.07563e-06
2.41004e-06
1.93387e-06
1.57047e-06
1.28758e-06
1.06747e-06
8.96308e-07
7.62037e-07
6.54502e-07
5.6575e-07
4.9024e-07
4.24247e-07
3.65061e-07
3.1114e-07
2.62299e-07
2.18541e-07
1.7987e-07
1.46225e-07
1.17412e-07
9.30949e-08
7.28467e-08
5.62111e-08
4.27633e-08
3.20348e-08
2.36361e-08
1.71371e-08
1.22406e-08
8.5465e-09
5.90637e-09
3.94466e-09
2.61679e-09
1.7335e-09
0.00561345
0.0150185
0.012683
0.00657456
0.00329458
0.00226476
0.0022267
0.00231396
0.00250433
0.00289532
0.00334184
0.00363376
0.00381208
0.00403684
0.00421919
0.00457213
0.00492512
0.00544817
0.00588378
0.00634641
0.00644612
0.00637648
0.00618386
0.00584153
0.00546642
0.00514685
0.00492947
0.00472866
0.0045537
0.00444055
0.00426595
0.00387772
0.0033948
0.00294934
0.00266624
0.00229314
0.00196209
0.00177243
0.00147349
0.00120806
0.00125283
0.00252313
0.00674041
0.00832506
0.00891713
0.00800858
0.00439896
0.00231137
0.00108449
0.00057856
0.000393112
0.000330376
0.000312504
0.000307915
0.000306493
0.000308981
0.000313909
0.000316857
0.000317871
0.000318435
0.000319742
0.000321394
0.000322958
0.00032456
0.000326699
0.000328902
0.000332311
0.00033689
0.000342544
0.000347281
0.000350595
0.000352984
0.000355094
0.000357688
0.000361129
0.000365838
0.000371479
0.00037827
0.000385842
0.00039445
0.000404495
0.000409271
0.000409913
0.000407446
0.00039923
0.000386897
0.000381831
0.000380936
0.00038164
0.000385261
0.00039233
0.000395626
0.000391585
0.000381407
0.000363029
0.000336005
0.000311617
0.000289569
0.00027048
0.000253888
0.000238567
0.000223638
0.00020831
0.000195432
0.000186621
0.000188145
0.000195654
0.000201567
0.000203226
0.000200926
0.000194885
0.000190136
0.000189226
0.00019116
0.000192385
0.000191455
0.000184203
0.00016209
0.000138303
0.000123097
0.000114544
0.0001098
0.000106559
0.000102554
9.69833e-05
8.96513e-05
8.17108e-05
7.48528e-05
6.94317e-05
6.52176e-05
6.20976e-05
6.00318e-05
5.87961e-05
5.78174e-05
5.63715e-05
5.41773e-05
5.16342e-05
4.93061e-05
4.73e-05
4.51636e-05
4.22864e-05
3.83549e-05
3.35065e-05
2.81859e-05
2.29041e-05
1.80704e-05
1.39369e-05
1.05891e-05
7.98278e-06
5.99465e-06
4.4745e-06
3.30699e-06
2.42355e-06
1.77161e-06
1.30241e-06
9.71714e-07
7.41841e-07
5.8247e-07
4.70465e-07
3.89228e-07
3.27959e-07
2.79864e-07
2.39807e-07
2.04466e-07
1.72191e-07
1.4289e-07
1.16752e-07
9.38877e-08
7.43254e-08
5.79195e-08
4.44384e-08
3.35637e-08
2.49532e-08
1.82557e-08
1.31318e-08
9.28898e-09
6.45701e-09
4.40191e-09
2.95235e-09
1.92541e-09
0.00657235
0.00507792
0.00225886
0.00152037
0.00160638
0.00186603
0.00219817
0.00271337
0.003312
0.0036394
0.00378246
0.00391874
0.00406838
0.00436494
0.00486064
0.00591709
0.00723496
0.0088951
0.0100584
0.0112823
0.0112772
0.0110019
0.0103652
0.00917893
0.00801376
0.00692995
0.0062054
0.00567429
0.00519719
0.0049256
0.00466473
0.00426166
0.00371685
0.00326334
0.00292659
0.0026193
0.00239238
0.00195873
0.00146422
0.00138479
0.00242118
0.00617155
0.00743368
0.00771082
0.00618273
0.00312925
0.00159242
0.00084891
0.000501494
0.000371123
0.000329085
0.000316959
0.000314299
0.00031532
0.000320334
0.00032679
0.000332628
0.000337183
0.000339417
0.000343234
0.000349416
0.000358686
0.000367056
0.000376532
0.000387438
0.00039786
0.000406124
0.000412826
0.000420361
0.000427485
0.000431203
0.000433307
0.000435109
0.000438302
0.000445413
0.000453531
0.000461269
0.000470127
0.000479452
0.000482861
0.000483154
0.000480714
0.00047093
0.00045191
0.000427638
0.000409203
0.000404689
0.000404683
0.000409991
0.000428575
0.000470145
0.000506195
0.000515453
0.000516952
0.000496665
0.000451494
0.000397544
0.000339899
0.000293745
0.000259868
0.000236987
0.00021879
0.000203853
0.000190775
0.000177682
0.000166876
0.000165189
0.000173465
0.000188373
0.000196734
0.000197258
0.000191874
0.000184902
0.000182838
0.000186804
0.000192375
0.000193031
0.000189672
0.000174408
0.000142961
0.000119779
0.00010749
0.000101734
9.96655e-05
9.7808e-05
9.42047e-05
8.89785e-05
8.24024e-05
7.57003e-05
6.9954e-05
6.52788e-05
6.16444e-05
5.91212e-05
5.76811e-05
5.6945e-05
5.61537e-05
5.45452e-05
5.19774e-05
4.90752e-05
4.66127e-05
4.48322e-05
4.32796e-05
4.12172e-05
3.81485e-05
3.40528e-05
2.92836e-05
2.43301e-05
1.96233e-05
1.54494e-05
1.19405e-05
9.09747e-06
6.82929e-06
5.02484e-06
3.61245e-06
2.54192e-06
1.75959e-06
1.20789e-06
8.31414e-07
5.81675e-07
4.19271e-07
3.14157e-07
2.44766e-07
1.9712e-07
1.62925e-07
1.37195e-07
1.16128e-07
9.747e-08
8.0569e-08
6.54637e-08
5.22337e-08
4.09185e-08
3.14686e-08
2.37603e-08
1.76177e-08
1.28261e-08
9.16671e-09
6.42917e-09
4.42515e-09
2.98865e-09
1.98115e-09
0.00167922
0.00127024
0.00107047
0.00125673
0.00173834
0.00237996
0.00291073
0.00343462
0.00373892
0.00382238
0.003889
0.00404881
0.0044742
0.00542519
0.00723837
0.010527
0.0137403
0.0165284
0.0184572
0.0197964
0.0197759
0.0192589
0.0178163
0.0153233
0.0126109
0.0100059
0.0080221
0.00695501
0.00623536
0.00552987
0.00510925
0.00484585
0.00431189
0.0036803
0.00316978
0.00281129
0.00243224
0.00182954
0.00152041
0.00219598
0.00550687
0.00673732
0.00691621
0.00528261
0.00262202
0.00131008
0.000714403
0.000462909
0.000363374
0.000329219
0.000319488
0.000317498
0.000318186
0.000321597
0.000327008
0.000334948
0.000344696
0.000355
0.00036489
0.000378403
0.000398745
0.000425059
0.000454147
0.000481499
0.000502794
0.000519251
0.00053512
0.000552938
0.000571809
0.000590591
0.000606506
0.000615244
0.000624004
0.000636838
0.0006569
0.000666728
0.000670706
0.000671156
0.00067266
0.000660922
0.000631893
0.000613762
0.000583422
0.000541417
0.000504354
0.000471609
0.000460472
0.000458908
0.000467702
0.000500354
0.00056159
0.000591553
0.000603504
0.000605321
0.000598487
0.000577039
0.000544539
0.000493047
0.000412575
0.000321675
0.00025431
0.000216921
0.0001921
0.000173473
0.000161683
0.000154557
0.000148195
0.000145628
0.000148704
0.000164175
0.000181989
0.0001879
0.000185659
0.000177073
0.000172932
0.000175443
0.000185143
0.000188834
0.000187117
0.000175902
0.000145629
0.000117151
0.000101236
9.35125e-05
9.06444e-05
9.01817e-05
8.95154e-05
8.70126e-05
8.14035e-05
7.53499e-05
6.9608e-05
6.47472e-05
6.08856e-05
5.80893e-05
5.63319e-05
5.54022e-05
5.487e-05
5.41432e-05
5.24771e-05
4.94061e-05
4.62004e-05
4.36618e-05
4.20203e-05
4.08517e-05
3.93992e-05
3.70631e-05
3.36918e-05
2.95257e-05
2.49881e-05
2.04961e-05
1.63611e-05
1.2757e-05
9.7273e-06
7.23099e-06
5.21817e-06
3.65172e-06
2.48305e-06
1.6472e-06
1.07291e-06
6.92854e-07
4.49763e-07
2.98653e-07
2.06447e-07
1.50137e-07
1.14708e-07
9.13191e-08
7.51114e-08
6.28402e-08
5.24318e-08
4.30888e-08
3.4743e-08
2.74398e-08
2.12165e-08
1.6058e-08
1.18999e-08
8.63827e-09
6.14325e-09
4.28102e-09
2.92037e-09
1.95582e-09
0.000643724
0.000848944
0.00098167
0.00160727
0.00220171
0.0027431
0.00341022
0.00377191
0.00385288
0.00383358
0.00393085
0.00441337
0.00571025
0.00834313
0.0124071
0.0162817
0.0189766
0.0210583
0.0223331
0.0232135
0.0234498
0.0233044
0.0226161
0.0206515
0.0175706
0.0138348
0.0104523
0.00858273
0.00752425
0.00655153
0.00579412
0.00511874
0.00435475
0.00366701
0.00314862
0.00278815
0.0022209
0.00171663
0.00204795
0.00485137
0.00616474
0.00635793
0.00488331
0.00239866
0.00120949
0.000672412
0.00044779
0.000361209
0.000330153
0.000320649
0.000318688
0.000318943
0.000323918
0.000329843
0.000338608
0.000352515
0.000371389
0.000394441
0.000420817
0.000454454
0.00049863
0.000547326
0.000596714
0.000644535
0.000691699
0.000739634
0.000788327
0.000846627
0.000909345
0.000984412
0.00106813
0.0011406
0.00118725
0.00123387
0.00127821
0.00129594
0.00127303
0.00119986
0.00117346
0.00110945
0.000988959
0.000934583
0.000853966
0.000775048
0.000714468
0.000649162
0.000601823
0.000582016
0.000576857
0.000580923
0.00058534
0.000594359
0.000602529
0.000598834
0.000589564
0.000577562
0.000562636
0.000541268
0.000503712
0.000443848
0.000356836
0.000271126
0.000211616
0.000173412
0.000150101
0.00013513
0.000129015
0.000129478
0.000131255
0.000132939
0.000140241
0.000159791
0.000172346
0.000173575
0.000166931
0.000160048
0.000160036
0.00016853
0.000176239
0.000176399
0.000168292
0.000142326
0.000113719
9.59897e-05
8.70466e-05
8.31623e-05
8.22832e-05
8.2262e-05
8.18953e-05
7.97753e-05
7.4357e-05
6.86629e-05
6.36123e-05
5.95732e-05
5.66469e-05
5.47856e-05
5.37781e-05
5.32682e-05
5.28044e-05
5.18956e-05
4.96237e-05
4.61687e-05
4.30062e-05
4.06837e-05
3.9285e-05
3.84408e-05
3.74686e-05
3.57286e-05
3.2942e-05
2.92313e-05
2.4961e-05
2.05654e-05
1.64098e-05
1.27113e-05
9.55281e-06
6.94452e-06
4.87519e-06
3.30759e-06
2.17368e-06
1.38847e-06
8.66389e-07
5.32189e-07
3.25667e-07
2.02027e-07
1.29853e-07
8.82089e-08
6.37916e-08
4.88365e-08
3.91857e-08
3.2369e-08
2.68145e-08
2.18863e-08
1.74928e-08
1.36565e-08
1.04044e-08
7.7369e-09
5.61495e-09
3.98351e-09
2.75728e-09
1.87592e-09
0.000607268
0.000881435
0.00111394
0.00188742
0.00252586
0.00332146
0.00369368
0.00384383
0.00377379
0.00367646
0.00402475
0.00517266
0.00729838
0.0105857
0.0144839
0.0179005
0.0202333
0.022022
0.0230328
0.0236794
0.0239747
0.0240055
0.0234382
0.0214512
0.0182741
0.0144985
0.0110839
0.00881628
0.00749638
0.0065183
0.00572835
0.00498539
0.00420596
0.00353057
0.00304171
0.00250634
0.00190085
0.00200949
0.00428759
0.00567726
0.00592154
0.00481788
0.00233913
0.00118275
0.000672667
0.000457058
0.000370779
0.000337303
0.000324665
0.000320249
0.000319303
0.000320742
0.000325871
0.00033292
0.000343558
0.000361268
0.000386844
0.000419705
0.000460599
0.000515328
0.000587704
0.0006745
0.000771806
0.00087844
0.000999385
0.00113803
0.0012918
0.00147427
0.00168131
0.00192059
0.00218471
0.00243182
0.0025794
0.00269429
0.0027517
0.00276995
0.00271553
0.00246723
0.00231682
0.00209816
0.00178034
0.00160417
0.00137503
0.0012071
0.00106273
0.00094505
0.00083947
0.000742169
0.000673803
0.000619348
0.000583588
0.000555344
0.000515506
0.000461586
0.000417247
0.000399867
0.000407368
0.00043673
0.000467277
0.000453717
0.000397266
0.000322211
0.000257834
0.000212072
0.000172769
0.000138128
0.000119121
0.00011117
0.000111842
0.000118511
0.000121235
0.000124731
0.000135888
0.000151667
0.000156928
0.000153874
0.000144913
0.000141639
0.000144996
0.000155161
0.000157867
0.000153816
0.000134637
0.000108981
9.1248e-05
8.18529e-05
7.74962e-05
7.60759e-05
7.5967e-05
7.59604e-05
7.55119e-05
7.31508e-05
6.74873e-05
6.21311e-05
5.7872e-05
5.48492e-05
5.29732e-05
5.19834e-05
5.15158e-05
5.11694e-05
5.05443e-05
4.90284e-05
4.58063e-05
4.25266e-05
3.98489e-05
3.79009e-05
3.66523e-05
3.59397e-05
3.53595e-05
3.42926e-05
3.19066e-05
2.82932e-05
2.39963e-05
1.95338e-05
1.53339e-05
1.1623e-05
8.49788e-06
5.98562e-06
4.06419e-06
2.66517e-06
1.69206e-06
1.04304e-06
6.26663e-07
3.6912e-07
2.15258e-07
1.263e-07
7.63354e-08
4.88077e-08
3.35728e-08
2.48276e-08
1.9531e-08
1.59783e-08
1.31479e-08
1.06484e-08
8.41991e-09
6.48257e-09
4.8521e-09
3.53749e-09
2.50401e-09
1.73991e-09
0.000609327
0.00101984
0.00130499
0.00225854
0.00308013
0.00350018
0.00373458
0.00370587
0.00353473
0.00364664
0.0041981
0.00547162
0.00770644
0.0109653
0.0145743
0.0174116
0.019194
0.0204475
0.0210845
0.0214384
0.0215661
0.0210632
0.020455
0.0184922
0.0157978
0.0127146
0.010006
0.00819011
0.00705862
0.0061665
0.00536857
0.00459197
0.0038471
0.00320696
0.00259182
0.00208145
0.00209183
0.00383876
0.0052549
0.00554556
0.0048941
0.00242001
0.00120821
0.000690827
0.000474979
0.000387842
0.000352601
0.000336866
0.00032656
0.000323358
0.000323259
0.000326207
0.000330961
0.000339573
0.000354032
0.000379763
0.000421594
0.000481124
0.000558699
0.000666249
0.000806288
0.000976873
0.00116933
0.0013755
0.00160352
0.00189834
0.00232987
0.00291267
0.00343058
0.00391511
0.00439959
0.00484593
0.00521709
0.0055382
0.00570757
0.00577658
0.00557003
0.00513146
0.00460161
0.00390455
0.00324842
0.00265489
0.00213213
0.0017111
0.00137387
0.00112927
0.000947297
0.000804486
0.000694639
0.000616557
0.000543102
0.000457896
0.000363911
0.000286237
0.000228478
0.000189171
0.000166743
0.000165289
0.000200334
0.000274054
0.000320171
0.000308389
0.000257307
0.000221314
0.000198994
0.000176492
0.00014038
0.000111798
0.000101659
0.000100905
0.00010784
0.000112114
0.000113466
0.000117063
0.00012933
0.000138061
0.000137872
0.000130038
0.000122827
0.00012238
0.000129629
0.000136134
0.000135523
0.000124805
0.000103244
8.6908e-05
7.77344e-05
7.32509e-05
7.14439e-05
7.10597e-05
7.10274e-05
7.08842e-05
6.9952e-05
6.62333e-05
6.05485e-05
5.60564e-05
5.29013e-05
5.09653e-05
4.99604e-05
4.95154e-05
4.92501e-05
4.88157e-05
4.78222e-05
4.51808e-05
4.17542e-05
3.88548e-05
3.66976e-05
3.52548e-05
3.4383e-05
3.38542e-05
3.33481e-05
3.23855e-05
3.01301e-05
2.62953e-05
2.17983e-05
1.72919e-05
1.31833e-05
9.66872e-06
6.82009e-06
4.63071e-06
3.03235e-06
1.91939e-06
1.17696e-06
7.00767e-07
4.06292e-07
2.30408e-07
1.2884e-07
7.20904e-08
4.13554e-08
2.51103e-08
1.65551e-08
1.19161e-08
9.26015e-09
7.53713e-09
6.16606e-09
4.95201e-09
3.8649e-09
2.93062e-09
2.14432e-09
1.53941e-09
0.000624549
0.00111898
0.00153692
0.00264965
0.00323774