/*--------------------------------*- C++ -*----------------------------------*\
  =========                 |
  \\      /  F ield         | OpenFOAM: The Open Source CFD Toolbox
   \\    /   O peration     | Website:  https://openfoam.org
    \\  /    A nd           | Version:  7
     \\/     M anipulation  |
\*---------------------------------------------------------------------------*/
FoamFile
{
    version     2.0;
    format      ascii;
    class       surfaceScalarField;
    location    "0.067";
    object      phi_0;
}
// * * * * * * * * * * * * * * * * * * * * * * * * * * * * * * * * * * * * * //

dimensions      [0 3 -1 0 0 0 0];

internalField   nonuniform List<scalar> 
24170
(
1.36103e-06
2.05282e-07
1.22569e-06
1.3534e-07
1.10272e-06
1.22976e-07
9.97246e-07
1.0547e-07
8.98727e-07
9.85198e-08
8.03953e-07
9.47739e-08
7.12944e-07
9.10089e-08
6.26262e-07
8.66822e-08
5.47099e-07
7.91626e-08
4.78885e-07
6.82139e-08
4.22546e-07
5.63394e-08
3.76783e-07
4.57625e-08
3.39447e-07
3.7336e-08
3.08419e-07
3.1028e-08
2.80971e-07
2.74477e-08
2.55284e-07
2.56874e-08
2.2581e-07
2.94738e-08
3.20053e-08
1.93805e-07
1.65008e-06
2.27632e-07
1.66009e-06
1.25336e-07
1.63092e-06
1.52142e-07
1.586e-06
1.50393e-07
1.54053e-06
1.43985e-07
1.49757e-06
1.37743e-07
1.45639e-06
1.32185e-07
1.41604e-06
1.27036e-07
1.3752e-06
1.19993e-07
1.33212e-06
1.113e-07
1.28653e-06
1.0193e-07
1.24076e-06
9.15309e-08
1.19846e-06
7.96391e-08
1.16159e-06
6.78968e-08
1.12867e-06
6.03607e-08
1.09565e-06
5.87154e-08
1.05749e-06
6.76339e-08
7.96911e-08
1.0098e-06
1.78335e-06
2.54835e-07
1.76656e-06
1.42126e-07
1.76706e-06
1.5164e-07
1.76404e-06
1.5341e-07
1.75525e-06
1.52774e-07
1.74105e-06
1.51946e-07
1.72549e-06
1.4774e-07
1.71339e-06
1.39135e-07
1.70529e-06
1.281e-07
1.6977e-06
1.18887e-07
1.6867e-06
1.12926e-07
1.67116e-06
1.07077e-07
1.6525e-06
9.82963e-08
1.63344e-06
8.69598e-08
1.61537e-06
7.8427e-08
1.59834e-06
7.57414e-08
1.58201e-06
8.39731e-08
9.99811e-08
1.56172e-06
1.92696e-06
3.13663e-07
1.88588e-06
1.83209e-07
1.87561e-06
1.61904e-07
1.87382e-06
1.55201e-07
1.87427e-06
1.52323e-07
1.87178e-06
1.54439e-07
1.86667e-06
1.52848e-07
1.86314e-06
1.42663e-07
1.86348e-06
1.27767e-07
1.86663e-06
1.15732e-07
1.8699e-06
1.09654e-07
1.87113e-06
1.05847e-07
1.86939e-06
1.00037e-07
1.86504e-06
9.13135e-08
1.85942e-06
8.40513e-08
1.85348e-06
8.1676e-08
1.84947e-06
8.79821e-08
1.02661e-07
1.84679e-06
2.12191e-06
2.93486e-07
2.09519e-06
2.09933e-07
2.06457e-06
1.92521e-07
2.03875e-06
1.81018e-07
2.01962e-06
1.7146e-07
2.0084e-06
1.65655e-07
2.00401e-06
1.57234e-07
2.00483e-06
1.41852e-07
2.00897e-06
1.23624e-07
2.01437e-06
1.10332e-07
2.01914e-06
1.04887e-07
2.02173e-06
1.03255e-07
2.02158e-06
1.00186e-07
2.01908e-06
9.38151e-08
2.01609e-06
8.70362e-08
2.014e-06
8.37658e-08
2.01517e-06
8.68188e-08
9.76295e-08
2.0202e-06
2.21352e-06
3.00734e-07
2.21021e-06
2.13238e-07
2.19339e-06
2.09345e-07
2.17196e-06
2.02445e-07
2.1572e-06
1.86219e-07
2.15531e-06
1.67552e-07
2.16167e-06
1.5087e-07
2.16712e-06
1.36407e-07
2.16647e-06
1.24265e-07
2.16102e-06
1.15781e-07
2.15513e-06
1.10779e-07
2.15199e-06
1.06392e-07
2.15257e-06
9.96147e-08
2.1561e-06
9.02826e-08
2.16175e-06
8.1389e-08
2.16864e-06
7.68756e-08
2.17685e-06
7.86001e-08
8.76644e-08
2.18682e-06
2.40031e-06
3.34686e-07
2.36655e-06
2.4699e-07
2.34238e-06
2.33519e-07
2.33041e-06
2.14418e-07
2.3294e-06
1.87224e-07
2.33561e-06
1.61341e-07
2.34283e-06
1.4365e-07
2.34621e-06
1.3303e-07
2.34448e-06
1.25994e-07
2.34001e-06
1.20254e-07
2.33659e-06
1.14196e-07
2.33665e-06
1.06337e-07
2.34031e-06
9.59486e-08
2.3462e-06
8.43927e-08
2.35311e-06
7.44803e-08
2.36058e-06
6.94088e-08
2.36916e-06
7.00209e-08
7.67907e-08
2.38003e-06
2.53087e-06
3.21993e-07
2.53743e-06
2.4043e-07
2.54458e-06
2.26371e-07
2.54299e-06
2.16008e-07
2.53294e-06
1.97273e-07
2.52091e-06
1.73368e-07
2.51319e-06
1.51379e-07
2.51252e-06
1.33691e-07
2.51811e-06
1.20403e-07
2.5274e-06
1.1097e-07
2.53753e-06
1.04061e-07
2.5458e-06
9.8073e-08
2.55038e-06
9.13676e-08
2.55077e-06
8.40012e-08
2.54843e-06
7.68179e-08
2.54574e-06
7.20976e-08
2.54564e-06
7.01207e-08
7.20812e-08
2.55035e-06
2.75121e-06
2.93177e-07
2.7281e-06
2.63533e-07
2.72312e-06
2.31353e-07
2.73664e-06
2.02489e-07
2.74946e-06
1.84449e-07
2.74989e-06
1.72941e-07
2.73974e-06
1.61533e-07
2.72682e-06
1.46607e-07
2.71791e-06
1.29317e-07
2.71572e-06
1.13161e-07
2.71919e-06
1.00591e-07
2.72528e-06
9.19776e-08
2.73099e-06
8.56609e-08
2.73447e-06
8.05243e-08
2.73553e-06
7.57507e-08
2.73532e-06
7.23131e-08
2.73574e-06
6.97022e-08
6.8752e-08
2.73907e-06
2.91768e-06
3.11393e-07
2.9004e-06
2.80811e-07
2.90209e-06
2.29661e-07
2.92398e-06
1.80606e-07
2.94197e-06
1.66452e-07
2.9423e-06
1.72618e-07
2.92994e-06
1.73887e-07
2.91696e-06
1.59584e-07
2.91105e-06
1.35236e-07
2.91286e-06
1.1135e-07
2.91901e-06
9.4439e-08
2.9258e-06
8.51909e-08
2.93105e-06
8.04034e-08
2.93466e-06
7.69199e-08
2.93763e-06
7.27782e-08
2.94163e-06
6.83088e-08
2.94819e-06
6.31431e-08
5.85451e-08
2.9584e-06
3.17589e-06
3.14986e-07
3.16448e-06
2.9222e-07
3.1587e-06
2.35449e-07
3.15574e-06
1.83559e-07
3.15467e-06
1.67526e-07
3.15881e-06
1.6848e-07
3.16895e-06
1.63749e-07
3.17981e-06
1.48716e-07
3.18385e-06
1.31197e-07
3.17745e-06
1.17754e-07
3.16323e-06
1.08661e-07
3.14748e-06
1.00937e-07
3.13606e-06
9.18261e-08
3.13234e-06
8.06336e-08
3.13708e-06
6.80395e-08
3.14923e-06
5.61631e-08
3.1672e-06
4.51704e-08
3.70086e-08
3.18874e-06
2.8706e-06
3.36143e-07
2.85761e-06
3.05211e-07
2.8579e-06
2.35156e-07
2.85464e-06
1.86825e-07
2.8533e-06
1.68867e-07
2.85903e-06
1.62743e-07
2.86996e-06
1.52824e-07
2.88063e-06
1.38045e-07
2.8861e-06
1.25726e-07
2.88437e-06
1.1949e-07
2.87662e-06
1.16411e-07
2.8661e-06
1.11451e-07
2.85629e-06
1.01638e-07
2.8497e-06
8.72194e-08
2.84783e-06
6.99103e-08
2.85113e-06
5.28658e-08
2.85951e-06
3.67953e-08
2.41495e-08
2.87236e-06
3.45495e-06
3.3689e-07
3.45515e-06
3.05013e-07
3.44798e-06
2.42324e-07
3.44019e-06
1.94616e-07
3.43826e-06
1.7079e-07
3.44253e-06
1.58481e-07
3.45076e-06
1.44587e-07
3.46074e-06
1.2807e-07
3.47093e-06
1.15535e-07
3.48025e-06
1.10171e-07
3.48793e-06
1.08729e-07
3.49391e-06
1.05474e-07
3.49884e-06
9.67021e-08
3.50366e-06
8.24082e-08
3.50921e-06
6.43557e-08
3.51622e-06
4.58536e-08
3.52496e-06
2.80566e-08
1.2962e-08
3.53615e-06
4.23625e-06
4.3377e-07
4.24171e-06
2.99556e-07
4.25671e-06
2.27317e-07
4.2463e-06
2.05032e-07
4.22878e-06
1.88312e-07
4.22273e-06
1.64525e-07
4.22974e-06
1.37579e-07
4.24145e-06
1.16364e-07
4.25207e-06
1.04913e-07
4.2614e-06
1.00845e-07
4.2711e-06
9.90204e-08
4.28158e-06
9.49965e-08
4.29175e-06
8.65338e-08
4.30028e-06
7.38742e-08
4.30677e-06
5.78684e-08
4.31189e-06
4.07356e-08
4.31689e-06
2.30569e-08
6.67473e-09
4.32318e-06
5.15734e-06
4.29136e-07
5.18125e-06
2.75653e-07
5.1627e-06
2.45867e-07
5.13069e-06
2.37039e-07
5.11593e-06
2.03067e-07
5.12145e-06
1.59007e-07
5.13005e-06
1.28981e-07
5.13183e-06
1.14588e-07
5.13173e-06
1.05012e-07
5.13896e-06
9.36088e-08
5.1566e-06
8.13818e-08
5.18018e-06
7.14136e-08
5.2026e-06
6.41185e-08
5.21892e-06
5.75495e-08
5.22837e-06
4.84226e-08
5.23343e-06
3.56793e-08
5.2375e-06
1.89806e-08
6.20873e-10
5.24356e-06
6.36706e-06
4.61872e-07
6.35185e-06
2.90864e-07
6.36082e-06
2.36895e-07
6.38008e-06
2.17779e-07
6.39806e-06
1.85088e-07
6.407e-06
1.50068e-07
6.40672e-06
1.29257e-07
6.4018e-06
1.19507e-07
6.39555e-06
1.11269e-07
6.38982e-06
9.93318e-08
6.38628e-06
8.49215e-08
6.38641e-06
7.1285e-08
6.39091e-06
5.96262e-08
6.39919e-06
4.92615e-08
6.40978e-06
3.78391e-08
6.42102e-06
2.44318e-08
6.43129e-06
8.71866e-09
-8.1986e-09
6.44011e-06
7.71792e-06
3.95332e-07
7.70472e-06
3.04069e-07
7.7026e-06
2.39013e-07
7.70521e-06
2.15167e-07
7.69507e-06
1.95233e-07
7.6778e-06
1.67339e-07
7.67019e-06
1.36864e-07
7.67736e-06
1.12334e-07
7.69357e-06
9.50677e-08
7.71077e-06
8.21304e-08
7.72458e-06
7.1111e-08
7.73503e-06
6.0832e-08
7.74418e-06
5.04748e-08
7.75393e-06
3.95184e-08
7.76465e-06
2.71105e-08
7.77567e-06
1.34121e-08
7.78595e-06
-1.55289e-09
-1.70739e-08
7.79482e-06
9.444e-06
3.0874e-07
9.46158e-06
2.86488e-07
9.4634e-06
2.37192e-07
9.48009e-06
1.9848e-07
9.49739e-06
1.7793e-07
9.49971e-06
1.65023e-07
9.48289e-06
1.5368e-07
9.45778e-06
1.37446e-07
9.43789e-06
1.14953e-07
9.42964e-06
9.03814e-08
9.43268e-06
6.80709e-08
9.44357e-06
4.99485e-08
9.45854e-06
3.55032e-08
9.47484e-06
2.32221e-08
9.49087e-06
1.10785e-08
9.50607e-06
-1.79322e-09
9.51941e-06
-1.48936e-08
-2.83144e-08
9.53065e-06
1.17358e-05
3.38677e-07
1.17274e-05
2.94926e-07
1.17216e-05
2.43041e-07
1.1722e-05
1.98037e-07
1.17199e-05
1.80018e-07
1.17092e-05
1.7576e-07
1.16996e-05
1.6326e-07
1.17006e-05
1.36402e-07
1.17132e-05
1.0241e-07
1.17326e-05
7.0955e-08
1.17532e-05
4.74428e-08
1.17713e-05
3.18715e-08
1.17855e-05
2.12896e-08
1.17961e-05
1.26916e-08
1.1803e-05
4.14971e-09
1.18067e-05
-5.49519e-09
1.18078e-05
-1.60139e-08
-2.65871e-08
1.18061e-05
8.41483e-06
3.52291e-07
8.46124e-06
2.48524e-07
8.49175e-06
2.12533e-07
8.50748e-06
1.82303e-07
8.52092e-06
1.66581e-07
8.53356e-06
1.63115e-07
8.54508e-06
1.51739e-07
8.55876e-06
1.22729e-07
8.57707e-06
8.40992e-08
8.60024e-06
4.77826e-08
8.62694e-06
2.07382e-08
8.65502e-06
3.79537e-09
8.68164e-06
-5.33317e-09
8.70479e-06
-1.04544e-08
8.72394e-06
-1.50039e-08
8.73847e-06
-2.00256e-08
8.74765e-06
-2.51858e-08
-2.97241e-08
8.75078e-06
7.56471e-06
4.94564e-07
7.46831e-06
3.44924e-07
7.41609e-06
2.64752e-07
7.40228e-06
1.96108e-07
7.42379e-06
1.45079e-07
7.46466e-06
1.2224e-07
7.50497e-06
1.11434e-07
7.53206e-06
9.56367e-08
7.54712e-06
6.90334e-08
7.55719e-06
3.77201e-08
7.5675e-06
1.04226e-08
7.57989e-06
-8.59171e-09
7.5937e-06
-1.91432e-08
7.60669e-06
-2.34406e-08
7.61724e-06
-2.55554e-08
7.62478e-06
-2.75677e-08
7.62973e-06
-3.01408e-08
-3.24859e-08
7.6325e-06
6.48027e-06
3.9712e-07
6.49501e-06
3.30184e-07
6.49288e-06
2.66882e-07
6.50586e-06
1.83126e-07
6.53792e-06
1.13019e-07
6.58604e-06
7.41268e-08
6.64061e-06
5.68646e-08
6.68841e-06
4.78366e-08
6.72034e-06
3.71005e-08
6.73478e-06
2.32841e-08
6.73571e-06
9.48777e-09
6.72895e-06
-1.83132e-09
6.71835e-06
-8.54385e-09
6.7084e-06
-1.34877e-08
6.7007e-06
-1.78551e-08
6.69536e-06
-2.2226e-08
6.69191e-06
-2.66939e-08
-3.04805e-08
6.6899e-06
5.64017e-06
4.3128e-07
5.69597e-06
2.7438e-07
5.74405e-06
2.18799e-07
5.76923e-06
1.57948e-07
5.77281e-06
1.09446e-07
5.77267e-06
7.42585e-08
5.78111e-06
4.84278e-08
5.80044e-06
2.85107e-08
5.82536e-06
1.21748e-08
5.8489e-06
-2.54722e-10
5.86862e-06
-1.02258e-08
5.88128e-06
-1.4494e-08
5.88794e-06
-1.52105e-08
5.88948e-06
-1.50184e-08
5.88744e-06
-1.58223e-08
5.88346e-06
-1.82425e-08
5.87893e-06
-2.21672e-08
-2.61896e-08
5.87464e-06
4.81951e-06
3.76568e-07
4.84104e-06
2.52848e-07
4.91548e-06
1.44356e-07
4.97816e-06
9.52662e-08
5.01422e-06
7.33909e-08
5.02787e-06
6.06101e-08
5.02748e-06
4.88167e-08
5.02277e-06
3.32189e-08
5.02121e-06
1.37382e-08
5.02626e-06
-5.30279e-09
5.03489e-06
-1.88634e-08
5.04684e-06
-2.64364e-08
5.06045e-06
-2.88216e-08
5.07476e-06
-2.93288e-08
5.0895e-06
-3.05624e-08
5.10442e-06
-3.31643e-08
5.11915e-06
-3.68952e-08
-3.99916e-08
5.13295e-06
4.25531e-06
3.69145e-07
4.27821e-06
2.29948e-07
4.30133e-06
1.21239e-07
4.3409e-06
5.56974e-08
4.38986e-06
2.44275e-08
4.43432e-06
1.61497e-08
4.46757e-06
1.55661e-08
4.48948e-06
1.13066e-08
4.50103e-06
2.18865e-09
4.50409e-06
-8.35743e-09
4.50002e-06
-1.47919e-08
4.49129e-06
-1.77062e-08
4.48255e-06
-2.00826e-08
4.47764e-06
-2.44238e-08
4.47867e-06
-3.1588e-08
4.48571e-06
-4.02094e-08
4.49748e-06
-4.86622e-08
-5.44401e-08
4.51193e-06
3.68714e-06
2.75862e-07
3.73406e-06
1.83027e-07
3.78137e-06
7.39339e-08
3.8226e-06
1.44584e-08
3.85436e-06
-7.32871e-09
3.87784e-06
-7.33375e-09
3.89758e-06
-4.17397e-09
3.91612e-06
-7.23166e-09
3.93417e-06
-1.58586e-08
3.94977e-06
-2.39558e-08
3.96287e-06
-2.78925e-08
3.97428e-06
-2.91215e-08
3.9848e-06
-3.06008e-08
3.99452e-06
-3.41445e-08
4.00261e-06
-3.96727e-08
4.00811e-06
-4.57092e-08
4.01026e-06
-5.08185e-08
-5.35807e-08
4.0094e-06
3.22435e-06
3.17751e-07
3.30857e-06
9.88083e-08
3.36056e-06
2.19407e-08
3.37871e-06
-3.69568e-09
3.38674e-06
-1.53503e-08
3.3981e-06
-1.8696e-08
3.41426e-06
-2.03396e-08
3.43207e-06
-2.50352e-08
3.44845e-06
-3.22358e-08
3.4633e-06
-3.88072e-08
3.47841e-06
-4.30013e-08
3.49493e-06
-4.56411e-08
3.51257e-06
-4.82502e-08
3.52998e-06
-5.15486e-08
3.54522e-06
-5.49153e-08
3.55686e-06
-5.73433e-08
3.56392e-06
-5.78811e-08
-5.62407e-08
3.56658e-06
2.87531e-06
2.23507e-07
2.9317e-06
4.24158e-08
2.95993e-06
-6.2912e-09
2.98525e-06
-2.90086e-08
3.01216e-06
-4.2259e-08
3.04043e-06
-4.69659e-08
3.0673e-06
-4.72146e-08
3.08842e-06
-4.61561e-08
3.10181e-06
-4.56238e-08
3.10945e-06
-4.64468e-08
3.11461e-06
-4.81651e-08
3.11903e-06
-5.00617e-08
3.12248e-06
-5.1702e-08
3.12394e-06
-5.29996e-08
3.12283e-06
-5.38104e-08
3.11959e-06
-5.41034e-08
3.11542e-06
-5.37077e-08
-5.2393e-08
3.11157e-06
2.54023e-06
1.07984e-07
2.59445e-06
-1.18049e-08
2.61882e-06
-3.06574e-08
2.63857e-06
-4.87632e-08
2.65246e-06
-5.61416e-08
2.66274e-06
-5.72507e-08
2.67214e-06
-5.66176e-08
2.67999e-06
-5.40056e-08
2.68436e-06
-4.99921e-08
2.68414e-06
-4.62222e-08
2.67939e-06
-4.3415e-08
2.67079e-06
-4.14628e-08
2.65932e-06
-4.02299e-08
2.64613e-06
-3.98092e-08
2.6324e-06
-4.00824e-08
2.61894e-06
-4.06446e-08
2.60616e-06
-4.09258e-08
-4.05003e-08
2.59427e-06
2.16483e-06
2.15303e-06
2.12237e-06
2.07361e-06
2.01746e-06
1.96021e-06
1.9036e-06
1.84959e-06
1.7996e-06
1.75338e-06
1.70996e-06
1.6685e-06
1.62827e-06
1.58846e-06
1.54838e-06
1.50773e-06
1.46681e-06
1.42631e-06
-3.13059e-07
3.13059e-07
-6.19975e-07
3.06915e-07
-8.63337e-07
2.43362e-07
-1.01155e-06
1.48212e-07
-1.04061e-06
2.90586e-08
-9.45232e-07
-9.53758e-08
-7.30901e-07
-2.14331e-07
-4.20585e-07
-3.10315e-07
-5.20631e-08
-3.68522e-07
3.42184e-07
-3.94247e-07
7.38259e-07
-3.96076e-07
1.11873e-06
-3.80472e-07
1.47279e-06
-3.54059e-07
1.7945e-06
-3.21711e-07
2.08108e-06
-2.86578e-07
2.33134e-06
-2.50258e-07
2.54481e-06
-2.13471e-07
2.7212e-06
-1.76388e-07
2.86029e-06
-1.39093e-07
2.96154e-06
-1.01256e-07
3.02386e-06
-6.23179e-08
3.04674e-06
-2.28779e-08
3.02932e-06
1.74178e-08
2.96959e-06
5.97303e-08
2.8676e-06
1.01996e-07
2.72424e-06
1.4336e-07
2.54193e-06
1.8231e-07
2.32359e-06
2.18335e-07
2.07326e-06
2.50328e-07
1.79669e-06
2.76572e-07
1.49496e-06
3.01729e-07
1.17928e-06
3.15682e-07
8.37506e-07
3.41774e-07
4.91418e-07
3.46087e-07
2.24409e-07
2.67009e-07
4.74177e-08
1.76991e-07
-6.46137e-08
1.12031e-07
-1.24113e-07
5.94992e-08
-1.34596e-07
1.04832e-08
-1.01514e-07
-3.30818e-08
-3.49303e-08
-6.65839e-08
6.66147e-08
-1.01545e-07
2.06121e-07
-1.39506e-07
3.54132e-07
-1.4801e-07
4.69575e-07
-1.15444e-07
5.43194e-07
-7.3619e-08
6.15481e-07
-7.22865e-08
7.82412e-07
-1.66931e-07
9.8796e-07
-2.05548e-07
1.11643e-06
-1.28474e-07
1.12394e-06
-7.50135e-09
9.7631e-07
1.47626e-07
5.78176e-07
3.98133e-07
-1.23111e-08
5.90487e-07
-6.30055e-07
6.17744e-07
-1.21277e-06
5.82712e-07
-1.74762e-06
5.34857e-07
-2.2304e-06
4.82779e-07
-2.66215e-06
4.3175e-07
-3.04675e-06
3.84592e-07
-3.38928e-06
3.42533e-07
-3.69506e-06
3.05783e-07
-3.96906e-06
2.74003e-07
-4.21554e-06
2.46473e-07
-4.43791e-06
2.22369e-07
-4.63881e-06
2.00901e-07
-4.82014e-06
1.81337e-07
-4.98316e-06
1.63017e-07
-5.12856e-06
1.454e-07
-5.25665e-06
1.28088e-07
-5.36745e-06
1.10798e-07
-5.46077e-06
9.33206e-08
-5.53632e-06
7.55538e-08
-5.59384e-06
5.75195e-08
-5.63317e-06
3.93251e-08
-5.65425e-06
2.10786e-08
-5.65704e-06
2.79909e-09
-5.64309e-06
-1.39512e-08
-5.61281e-06
-3.02788e-08
-5.56659e-06
-4.62284e-08
-5.50496e-06
-6.16305e-08
-5.42832e-06
-7.66404e-08
-5.33697e-06
-9.13502e-08
-5.2311e-06
-1.05866e-07
-5.1108e-06
-1.20295e-07
-4.97609e-06
-1.34713e-07
-4.82693e-06
-1.49161e-07
-4.66329e-06
-1.63642e-07
-4.48517e-06
-1.7812e-07
-4.29267e-06
-1.92496e-07
-4.0861e-06
-2.06576e-07
-3.86605e-06
-2.20045e-07
-3.63357e-06
-2.32487e-07
-3.39015e-06
-2.43415e-07
-3.13778e-06
-2.52373e-07
-2.87875e-06
-2.59025e-07
-2.61554e-06
-2.63215e-07
-2.3506e-06
-2.64942e-07
-2.08629e-06
-2.64301e-07
-1.8248e-06
-2.61499e-07
-1.56803e-06
-2.56765e-07
-1.31778e-06
-2.50246e-07
-1.07572e-06
-2.4206e-07
-8.43382e-07
-2.32342e-07
-6.22136e-07
-2.21247e-07
-4.13132e-07
-2.09004e-07
-2.17331e-07
-1.95801e-07
-3.53199e-08
-1.82011e-07
1.33661e-07
-1.68981e-07
2.89124e-07
-1.55462e-07
4.31843e-07
-1.42719e-07
5.62755e-07
-1.30912e-07
6.82968e-07
-1.20213e-07
7.93535e-07
-1.10567e-07
8.95243e-07
-1.01708e-07
9.88486e-07
-9.32427e-08
1.07324e-06
-8.47585e-08
1.14917e-06
-7.59292e-08
1.2158e-06
-6.6623e-08
1.27267e-06
-5.6875e-08
1.31953e-06
-4.68625e-08
1.35647e-06
-3.69347e-08
1.38383e-06
-2.73617e-08
1.40222e-06
-1.83925e-08
1.41262e-06
-1.03925e-08
1.41583e-06
-3.21763e-09
1.41249e-06
3.34715e-09
1.4035e-06
8.98529e-09
1.38996e-06
1.35399e-08
1.37277e-06
1.71872e-08
1.35271e-06
2.00621e-08
1.3305e-06
2.22106e-08
1.30683e-06
2.3668e-08
1.28234e-06
2.44913e-08
1.2576e-06
2.47443e-08
1.23309e-06
2.45085e-08
1.2092e-06
2.38905e-08
1.18619e-06
2.30075e-08
1.16424e-06
2.19527e-08
1.14345e-06
2.07892e-08
1.12389e-06
1.95569e-08
1.10561e-06
1.82804e-08
1.08863e-06
1.69771e-08
1.07297e-06
1.56646e-08
1.05861e-06
1.43626e-08
1.04551e-06
1.30923e-08
1.03364e-06
1.18749e-08
1.02291e-06
1.07289e-08
1.01324e-06
9.66829e-09
1.00454e-06
8.70145e-09
9.96712e-07
7.82862e-09
9.89663e-07
7.04971e-09
9.83296e-07
6.36669e-09
9.7752e-07
5.77601e-09
9.72245e-07
5.2754e-09
9.67382e-07
4.86218e-09
9.62854e-07
4.52892e-09
9.58587e-07
4.26691e-09
9.54515e-07
4.07164e-09
9.50582e-07
3.93319e-09
9.46729e-07
3.85257e-09
9.42894e-07
3.83525e-09
9.38992e-07
3.90181e-09
9.34948e-07
4.04435e-09
9.30649e-07
4.29833e-09
9.26011e-07
4.63809e-09
9.2086e-07
5.15133e-09
9.15107e-07
5.75267e-09
9.0842e-07
6.68785e-09
9.00755e-07
7.66485e-09
8.91404e-07
9.35021e-09
8.80565e-07
1.08393e-08
8.6654e-07
1.40255e-08
8.50499e-07
1.60405e-08
8.27939e-07
2.25603e-08
8.03537e-07
2.44018e-08
7.64232e-07
3.93047e-08
7.27461e-07
3.67712e-08
6.51915e-07
7.55464e-08
5.34098e-08
5.98505e-07
-1.26758e-07
4.39817e-07
-2.74493e-07
4.5465e-07
-3.69958e-07
3.38827e-07
-4.0946e-07
1.87715e-07
-3.81536e-07
1.13459e-09
-2.54289e-07
-2.22623e-07
-2.00334e-08
-4.48587e-07
2.87593e-07
-6.17942e-07
6.3545e-07
-7.16378e-07
9.92119e-07
-7.50916e-07
1.33669e-06
-7.40651e-07
1.65936e-06
-7.03134e-07
1.95618e-06
-6.50881e-07
2.22584e-06
-5.91368e-07
2.46771e-06
-5.28449e-07
2.6813e-06
-4.63856e-07
2.86608e-06
-3.98246e-07
3.02147e-06
-3.31776e-07
3.14684e-06
-2.64464e-07
3.24187e-06
-1.96285e-07
3.3069e-06
-1.27351e-07
3.34199e-06
-5.79644e-08
3.34749e-06
1.19178e-08
3.32366e-06
8.35613e-08
3.27173e-06
1.53923e-07
3.19189e-06
2.23196e-07
3.08414e-06
2.90069e-07
2.95004e-06
3.52427e-07
2.79176e-06
4.08612e-07
2.61244e-06
4.55889e-07
2.41945e-06
4.9472e-07
2.21348e-06
5.21658e-07
2.01703e-06
5.38218e-07
1.825e-06
5.38117e-07
1.58305e-06
5.08966e-07
1.31136e-06
4.48676e-07
1.05497e-06
3.6842e-07
8.43675e-07
2.70796e-07
7.01421e-07
1.52737e-07
6.31346e-07
3.69932e-08
6.10313e-07
-4.55504e-08
6.26586e-07
-1.17818e-07
7.03057e-07
-2.15977e-07
8.38017e-07
-2.8297e-07
1.00918e-06
-2.86609e-07
1.2711e-06
-3.35536e-07
1.49195e-06
-2.93136e-07
1.43894e-06
-1.13924e-07
1.11515e-06
1.18247e-07
5.10516e-07
4.76157e-07
-2.76632e-07
7.79646e-07
-1.05425e-06
9.25248e-07
-1.68872e-06
1.0326e-06
-2.17844e-06
1.0802e-06
-2.60552e-06
1.04482e-06
-2.99551e-06
9.72703e-07
-3.3451e-06
8.84454e-07
-3.65639e-06
7.94065e-07
-3.93335e-06
7.08714e-07
-4.18044e-06
6.31675e-07
-4.40186e-06
5.63961e-07
-4.60126e-06
5.05181e-07
-4.78155e-06
4.54288e-07
-4.94497e-06
4.09893e-07
-5.09318e-06
3.70578e-07
-5.22729e-06
3.35014e-07
-5.34798e-06
3.02025e-07
-5.45557e-06
2.70608e-07
-5.55012e-06
2.39958e-07
-5.63151e-06
2.09476e-07
-5.69946e-06
1.78746e-07
-5.75364e-06
1.47503e-07
-5.79374e-06
1.15651e-07
-5.8195e-06
8.32761e-08
-5.83071e-06
5.05344e-08
-5.8271e-06
1.74751e-08
-5.80914e-06
-1.51676e-08
-5.77591e-06
-4.71747e-08
-5.72751e-06
-7.86812e-08
-5.66431e-06
-1.0943e-07
-5.58659e-06
-1.39348e-07
-5.49475e-06
-1.68477e-07
-5.38911e-06
-1.96995e-07
-5.26985e-06
-2.25126e-07
-5.13706e-06
-2.53085e-07
-4.99073e-06
-2.81036e-07
-4.83083e-06
-3.09066e-07
-4.65728e-06
-3.37189e-07
-4.47005e-06
-3.65349e-07
-4.26917e-06
-3.9338e-07
-4.05482e-06
-4.20921e-07
-3.82751e-06
-4.47353e-07
-3.58819e-06
-4.71816e-07
-3.33829e-06
-4.9331e-07
-3.0798e-06
-5.10863e-07
-2.81508e-06
-5.23749e-07
-2.54664e-06
-5.31653e-07
-2.27697e-06
-5.34608e-07
-2.00842e-06
-5.32859e-07
-1.74305e-06
-5.26867e-07
-1.48269e-06
-5.1712e-07
-1.22904e-06
-5.03894e-07
-9.83725e-07
-4.87379e-07
-7.48206e-07
-4.67861e-07
-5.23859e-07
-4.45594e-07
-3.11905e-07
-4.20958e-07
-1.13261e-07
-3.94445e-07
7.23335e-08
-3.67605e-07
2.44683e-07
-3.41331e-07
4.04421e-07
-3.152e-07
5.52351e-07
-2.90649e-07
6.89682e-07
-2.68243e-07
8.17741e-07
-2.48272e-07
9.37788e-07
-2.30615e-07
1.05081e-06
-2.14727e-07
1.15735e-06
-1.99781e-07
1.25747e-06
-1.84881e-07
1.35085e-06
-1.69309e-07
1.43692e-06
-1.52693e-07
1.51508e-06
-1.35033e-07
1.58489e-06
-1.16673e-07
1.64614e-06
-9.81843e-08
1.69895e-06
-8.01752e-08
1.74377e-06
-6.3215e-08
1.78112e-06
-4.77443e-08
1.81189e-06
-3.39822e-08
1.83719e-06
-2.1959e-08
1.85785e-06
-1.16723e-08
1.87444e-06
-3.04336e-09
1.88746e-06
4.1597e-09
1.89748e-06
1.00469e-08
1.90498e-06
1.47118e-08
1.9104e-06
1.82448e-08
1.91407e-06
2.08194e-08
1.91626e-06
2.25578e-08
1.91718e-06
2.35821e-08
1.91704e-06
2.40342e-08
1.91599e-06
2.40612e-08
1.91417e-06
2.37716e-08
1.91172e-06
2.32367e-08
1.90878e-06
2.24958e-08
1.9055e-06
2.15614e-08
1.90204e-06
2.04348e-08
1.89859e-06
1.91199e-08
1.89532e-06
1.76319e-08
1.89241e-06
1.60005e-08
1.89002e-06
1.42677e-08
1.88826e-06
1.24842e-08
1.88723e-06
1.07041e-08
1.88695e-06
8.98017e-09
1.88742e-06
7.35349e-09
1.88861e-06
5.86292e-09
1.89044e-06
4.5409e-09
1.8928e-06
3.41415e-09
1.89558e-06
2.49268e-09
1.89867e-06
1.77692e-09
1.90194e-06
1.25191e-09
1.90531e-06
8.97523e-10
1.90869e-06
6.94189e-10
1.912e-06
6.17816e-10
1.91519e-06
6.70999e-10
1.91816e-06
8.65906e-10
1.92083e-06
1.23053e-09
1.92312e-06
1.74973e-09
1.92494e-06
2.47714e-09
1.92622e-06
3.36247e-09
1.92682e-06
4.55273e-09
1.92669e-06
5.88124e-09
1.92557e-06
7.80309e-09
1.9235e-06
9.73923e-09
1.91988e-06
1.29714e-08
1.91499e-06
1.57246e-08
1.90744e-06
2.15784e-08
1.89828e-06
2.51988e-08
1.88421e-06
3.6632e-08
1.86821e-06
4.04016e-08
1.84305e-06
6.44666e-08
1.81488e-06
6.494e-08
1.7718e-06
1.18629e-07
1.08502e-07
1.7167e-06
1.46983e-07
2.92835e-07
2.48311e-07
3.53321e-07
3.3086e-07
2.56278e-07
4.00737e-07
1.17839e-07
5.12857e-07
-1.10986e-07
7.06285e-07
-4.16052e-07
9.52292e-07
-6.94593e-07
1.21674e-06
-8.8239e-07
1.47431e-06
-9.73952e-07
1.71421e-06
-9.90814e-07
1.9357e-06
-9.62142e-07
2.14274e-06
-9.10175e-07
2.3379e-06
-8.46039e-07
2.52152e-06
-7.74991e-07
2.6923e-06
-6.99231e-07
2.84822e-06
-6.1977e-07
2.98714e-06
-5.37167e-07
3.10713e-06
-4.51765e-07
3.20649e-06
-3.63822e-07
3.28375e-06
-2.73549e-07
3.33766e-06
-1.81257e-07
3.36703e-06
-8.73332e-08
3.3715e-06
7.44523e-09
3.35075e-06
1.04313e-07
3.30477e-06
1.99902e-07
3.23493e-06
2.93034e-07
3.14255e-06
3.82448e-07
3.03022e-06
4.64754e-07
2.90147e-06
5.37361e-07
2.76125e-06
5.96118e-07
2.61642e-06
6.39545e-07
2.47132e-06
6.66758e-07
2.33389e-06
6.7565e-07
2.19978e-06
6.72223e-07
2.06071e-06
6.48043e-07
1.91029e-06
5.99096e-07
1.76204e-06
5.16667e-07
1.61763e-06
4.15208e-07
1.46129e-06
3.09072e-07
1.35542e-06
1.42869e-07
1.31934e-06
-9.47171e-09
1.29219e-06
-9.06726e-08
1.29968e-06
-2.23468e-07
1.42025e-06
-4.03538e-07
1.53137e-06
-3.97727e-07
1.36715e-06
-1.71324e-07
9.06275e-07
1.67743e-07
1.47194e-07
6.45157e-07
-7.06768e-07
9.72209e-07
-1.41281e-06
1.1822e-06
-1.95689e-06
1.32372e-06
-2.41676e-06
1.38511e-06
-2.77323e-06
1.38908e-06
-3.03677e-06
1.34374e-06
-3.25387e-06
1.26193e-06
-3.44745e-06
1.16627e-06
-3.62958e-06
1.06658e-06
-3.80501e-06
9.695e-07
-3.97532e-06
8.7902e-07
-4.14043e-06
7.96792e-07
-4.29971e-06
7.23241e-07
-4.45235e-06
6.5782e-07
-4.59761e-06
5.99543e-07
-4.73486e-06
5.47149e-07
-4.86358e-06
4.9929e-07
-4.9832e-06
4.54641e-07
-5.09316e-06
4.11984e-07
-5.19281e-06
3.70258e-07
-5.28144e-06
3.28587e-07
-5.35827e-06
2.86307e-07
-5.4225e-06
2.42971e-07
-5.47336e-06
1.98362e-07
-5.51017e-06
1.52464e-07
-5.53232e-06
1.05421e-07
-5.53931e-06
5.75337e-08
-5.53089e-06
9.04867e-09
-5.50757e-06
-3.84838e-08
-5.46916e-06
-8.55865e-08
-5.41622e-06
-1.31625e-07
-5.34936e-06
-1.76282e-07
-5.26917e-06
-2.19538e-07
-5.17611e-06
-2.61539e-07
-5.0705e-06
-3.02604e-07
-4.95251e-06
-3.43124e-07
-4.82213e-06
-3.8346e-07
-4.67929e-06
-4.23878e-07
-4.52384e-06
-4.64518e-07
-4.35561e-06
-5.05418e-07
-4.17442e-06
-5.46536e-07
-3.9801e-06
-5.87702e-07
-3.77257e-06
-6.28456e-07
-3.55203e-06
-6.67891e-07
-3.3192e-06
-7.0464e-07
-3.07545e-06
-7.3706e-07
-2.82279e-06
-7.63521e-07
-2.56376e-06
-7.82788e-07
-2.30105e-06
-7.94361e-07
-2.03726e-06
-7.98397e-07
-1.77474e-06
-7.95379e-07
-1.51555e-06
-7.86055e-07
-1.2615e-06
-7.71171e-07
-1.01425e-06
-7.51142e-07
-7.75382e-07
-7.26248e-07
-5.46432e-07
-6.9681e-07
-3.29014e-07
-6.63012e-07
-1.24982e-07
-6.2499e-07
6.48633e-08
-5.8429e-07
2.39482e-07
-5.42224e-07
3.97966e-07
-4.99814e-07
5.41786e-07
-4.59021e-07
6.72783e-07
-4.21646e-07
7.93223e-07
-3.88682e-07
9.05312e-07
-3.60362e-07
1.01094e-06
-3.36237e-07
1.11147e-06
-3.15258e-07
1.20765e-06
-2.95967e-07
1.29962e-06
-2.76852e-07
1.38701e-06
-2.56695e-07
1.46911e-06
-2.3479e-07
1.54508e-06
-2.11008e-07
1.61417e-06
-1.85759e-07
1.67583e-06
-1.59844e-07
1.7299e-06
-1.34251e-07
1.77663e-06
-1.09944e-07
1.81655e-06
-8.76617e-08
1.8504e-06
-6.78353e-08
1.87905e-06
-5.06113e-08
1.90329e-06
-3.59065e-08
1.92377e-06
-2.35265e-08
1.94115e-06
-1.32172e-08
1.95591e-06
-4.71274e-09
1.96849e-06
2.13438e-09
1.97929e-06
7.44241e-09
1.98867e-06
1.14335e-08
1.99697e-06
1.42651e-08
2.00443e-06
1.61149e-08
2.01126e-06
1.72061e-08
2.01754e-06
1.77809e-08
2.02331e-06
1.80081e-08
2.02854e-06
1.80032e-08
2.03321e-06
1.78251e-08
2.03729e-06
1.74768e-08
2.0408e-06
1.69271e-08
2.04379e-06
1.61317e-08
2.04637e-06
1.50503e-08
2.04871e-06
1.36609e-08
2.05101e-06
1.19691e-08
2.05348e-06
1.00107e-08
2.05634e-06
7.84853e-09
2.05975e-06
5.56835e-09
2.06385e-06
3.25894e-09
2.06871e-06
1.00052e-09
2.07433e-06
-1.08445e-09
2.0807e-06
-2.95188e-09
2.08774e-06
-4.54772e-09
2.09535e-06
-5.83667e-09
2.10342e-06
-6.81051e-09
2.1118e-06
-7.48576e-09
2.12038e-06
-7.88844e-09
2.12905e-06
-8.05481e-09
2.13772e-06
-7.99453e-09
2.14631e-06
-7.72142e-09
2.15475e-06
-7.20758e-09
2.16299e-06
-6.49184e-09
2.17097e-06
-5.50531e-09
2.17867e-06
-4.3349e-09
2.18598e-06
-2.76127e-09
2.19289e-06
-1.02453e-09
2.19922e-06
1.46979e-09
2.20496e-06
3.99753e-09
2.20984e-06
8.09033e-09
2.21383e-06
1.17334e-08
2.21654e-06
1.88743e-08
2.21778e-06
2.39519e-08
2.2173e-06
3.71134e-08
2.21405e-06
4.36545e-08
2.20935e-06
6.91668e-08
2.19793e-06
7.63625e-08
2.18942e-06
1.27136e-07
1.36886e-07
2.16104e-06
2.09087e-07
8.37476e-08
3.74582e-07
1.87826e-07
5.30321e-07
1.0054e-07
7.59756e-07
-1.11597e-07
1.06483e-06
-4.16061e-07
1.36926e-06
-7.20478e-07
1.62154e-06
-9.46875e-07
1.81175e-06
-1.0726e-06
1.95631e-06
-1.11851e-06
2.08042e-06
-1.11493e-06
2.20171e-06
-1.08343e-06
2.32659e-06
-1.03506e-06
2.45453e-06
-9.73984e-07
2.58175e-06
-9.02203e-07
2.70424e-06
-8.21722e-07
2.81886e-06
-7.34397e-07
2.92323e-06
-6.41537e-07
3.01539e-06
-5.43926e-07
3.09356e-06
-4.41983e-07
3.15623e-06
-3.36227e-07
3.20223e-06
-2.2725e-07
3.23112e-06
-1.16223e-07
3.24384e-06
-5.27519e-09
3.23548e-06
1.12671e-07
3.20747e-06
2.27909e-07
3.15922e-06
3.41282e-07
3.0904e-06
4.51271e-07
3.00026e-06
5.54893e-07
2.88983e-06
6.47793e-07
2.7617e-06
7.24248e-07
2.62124e-06
7.80002e-07
2.47885e-06
8.09149e-07
2.33814e-06
8.16365e-07
2.21257e-06
7.97794e-07
2.10002e-06
7.60584e-07
1.99006e-06
7.09062e-07
1.88449e-06
6.22236e-07
1.76523e-06
5.3447e-07
1.66308e-06
4.11223e-07
1.54748e-06
2.58468e-07
1.41445e-06
1.2356e-07
1.43098e-06
-1.07209e-07
1.52297e-06
-3.15452e-07
1.3709e-06
-2.51468e-07
8.76276e-07
9.68945e-08
7.20324e-08
6.3292e-07
-7.75668e-07
1.01544e-06
-1.42964e-06
1.29913e-06
-1.95336e-06
1.49593e-06
-2.36777e-06
1.59661e-06
-2.66825e-06
1.62421e-06
-2.88864e-06
1.60551e-06
-3.05243e-06
1.55286e-06
-3.18368e-06
1.47499e-06
-3.30445e-06
1.3827e-06
-3.42468e-06
1.2865e-06
-3.54958e-06
1.19149e-06
-3.67987e-06
1.09979e-06
-3.81375e-06
1.0129e-06
-3.94872e-06
9.31762e-07
-4.08246e-06
8.56984e-07
-4.21317e-06
7.88531e-07
-4.33951e-06
7.25875e-07
-4.46044e-06
6.68082e-07
-4.57511e-06
6.1396e-07
-4.68269e-06
5.62221e-07
-4.78231e-06
5.11608e-07
-4.87305e-06
4.60992e-07
-4.9539e-06
4.09437e-07
-5.02384e-06
3.56244e-07
-5.08184e-06
3.00976e-07
-5.12695e-06
2.43468e-07
-5.15831e-06
1.83825e-07
-5.17527e-06
1.22381e-07
-5.17734e-06
5.9609e-08
-5.16444e-06
-3.85478e-09
-5.13693e-06
-6.59912e-08
-5.09511e-06
-1.27403e-07
-5.03966e-06
-1.87076e-07
-4.97136e-06
-2.4459e-07
-4.89098e-06
-2.99913e-07
-4.79916e-06
-3.53363e-07
-4.69626e-06
-4.05496e-07
-4.58244e-06
-4.56949e-07
-4.45763e-06
-5.08271e-07
-4.32169e-06
-5.5982e-07
-4.17443e-06
-6.11774e-07
-4.01563e-06
-6.64218e-07
-3.84493e-06
-7.17235e-07
-3.66181e-06
-7.70819e-07
-3.46569e-06
-8.2458e-07
-3.25621e-06
-8.77369e-07
-3.03367e-06
-9.27187e-07
-2.79925e-06
-9.71477e-07
-2.55511e-06
-1.00766e-06
-2.30414e-06
-1.03376e-06
-2.04941e-06
-1.04909e-06
-1.79359e-06
-1.05422e-06
-1.53872e-06
-1.05025e-06
-1.28634e-06
-1.03843e-06
-1.03792e-06
-1.01959e-06
-7.9513e-07
-9.93932e-07
-5.59894e-07
-9.61484e-07
-3.34218e-07
-9.22485e-07
-1.19605e-07
-8.77626e-07
8.40598e-08
-8.28655e-07
2.75487e-07
-7.75718e-07
4.51819e-07
-7.18555e-07
6.10225e-07
-6.5822e-07
7.48946e-07
-5.97741e-07
8.68751e-07
-5.41452e-07
9.73056e-07
-4.92987e-07
1.06645e-06
-4.53753e-07
1.15309e-06
-4.22876e-07
1.23584e-06
-3.98011e-07
1.31614e-06
-3.76267e-07
1.39424e-06
-3.54955e-07
1.46967e-06
-3.32121e-07
1.54163e-06
-3.06752e-07
1.60932e-06
-2.78693e-07
1.67196e-06
-2.48405e-07
1.72888e-06
-2.16761e-07
1.77953e-06
-1.849e-07
1.82365e-06
-1.54068e-07
1.8614e-06
-1.25414e-07
1.89335e-06
-9.9778e-08
1.92031e-06
-7.75695e-08
1.94318e-06
-5.87799e-08
1.96277e-06
-4.31213e-08
1.9797e-06
-3.01469e-08
1.99435e-06
-1.93639e-08
2.00686e-06