/*--------------------------------*- C++ -*----------------------------------*\
  =========                 |
  \\      /  F ield         | OpenFOAM: The Open Source CFD Toolbox
   \\    /   O peration     | Website:  https://openfoam.org
    \\  /    A nd           | Version:  7
     \\/     M anipulation  |
\*---------------------------------------------------------------------------*/
FoamFile
{
    version     2.0;
    format      ascii;
    class       volScalarField;
    location    "0.067";
    object      s_0;
}
// * * * * * * * * * * * * * * * * * * * * * * * * * * * * * * * * * * * * * //

dimensions      [0 0 0 0 0 0 0];

internalField   nonuniform List<scalar> 
12225
(
1
1
1
1
1
1
1
1
1
1
1
1
1
1
1
1
1
1
1
1
1
1
1
1
1
1
1
1
1
1
1
1
1
1
1
1
1
1
1
1
1
1
1
1
1
1
1
1
1
1
1
1
1
1
1
1
1
1
1
1
1
1
1
1
1
1
1
1
1
1
1
1
1
1
1
1
1
1
1
1
1
1
1
1
1
1
1
1
1
1
1
1
1
1
1
1
1
1
1
1
1
1
1
1
1
1
1
1
1
1
1
1
1
1
1
1
1
1
1
1
1
1
1
1
1
1
1
1
1
1
1
1
1
1
1
1
1
1
1
1
1
1
1
1
1
1
1
1
1
1
1
1
1
1
1
1
1
1
1
1
1
1
1
1
1
1
1
1
1
1
1
1
1
1
1
1
1
1
1
1
1
1
1
1
1
1
1
1
1
1
1
1
1
1
1
1
1
1
1
1
1
1
1
1
1
1
1
1
1
1
1
1
1
1
1
1
1
1
1
1
1
1
1
1
1
1
1
1
1
1
1
1
1
1
1
1
1
1
1
1
1
1
1
1
1
1
1
1
1
1
1
1
1
1
1
1
1
1
1
1
1
1
1
1
1
1
1
1
1
1
1
1
1
1
1
1
1
1
1
1
1
1
1
1
1
1
1
1
1
1
1
1
1
1
1
1
1
1
1
1
1
1
1
1
1
1
1
1
1
1
1
1
1
1
1
1
1
1
1
1
1
1
1
1
1
1
1
1
1
1
1
1
1
1
1
1
1
1
1
1
1
1
1
1
1
1
1
1
1
1
1
1
1
1
1
1
1
1
1
1
1
1
1
1
1
1
1
1
1
1
1
1
1
1
1
1
1
1
1
1
1
1
1
1
1
1
1
1
1
1
1
1
1
1
1
1
1
1
1
1
1
1
1
1
1
1
1
1
1
1
1
1
1
1
1
1
1
1
1
1
1
1
1
1
1
1
1
1
1
1
1
1
1
1
1
1
1
1
1
1
1
1
1
1
1
1
1
1
1
1
1
1
1
1
1
1
1
1
1
1
1
1
1
1
1
1
1
1
1
1
1
1
1
1
1
1
1
1
1
1
1
1
1
1
1
1
1
1
1
1
1
1
1
1
1
1
1
1
1
1
1
1
1
1
1
1
1
1
1
1
1
1
1
1
1
1
1
1
1
1
1
1
1
1
1
1
1
1
1
1
1
1
1
1
1
1
1
1
1
1
0.00473092
0.0144398
0.0231476
0.0332199
0.0469637
0.0641936
0.0881674
0.117059
0.147282
0.176009
0.202307
0.224669
0.248866
0.265794
0.275367
0.275083
0.272267
0.265052
0.254038
0.236269
0.217721
0.193387
0.16783
0.146487
0.129575
0.117677
0.111042
0.108774
0.10883
0.111719
0.116243
0.117226
0.114957
0.0908926
0.0259056
0.00452514
0.00480701
0.0067769
0.00883909
0.0117175
0.0137393
0.0157382
0.0201462
0.0233049
0.0247711
0.027583
0.0338136
0.0461748
0.0723073
0.094202
0.118584
0.254501
0.633194
0.788742
0.806929
0.809064
0.810414
0.811415
0.812538
0.813558
0.814023
0.814575
0.815003
0.81557
0.816342
0.817041
0.817928
0.818762
0.819963
0.820867
0.821796
0.822949
0.823876
0.824922
0.826293
0.82769
0.829033
0.830364
0.831541
0.832658
0.833659
0.83477
0.835902
0.837014
0.838043
0.83896
0.839819
0.840592
0.841267
0.841968
0.842582
0.843027
0.843334
0.843512
0.843577
0.843485
0.843129
0.842689
0.841933
0.840706
0.839131
0.837021
0.834338
0.830765
0.826152
0.820391
0.813079
0.804126
0.793233
0.780064
0.764612
0.746729
0.726096
0.702191
0.67432
0.641665
0.603206
0.558126
0.505878
0.446473
0.381359
0.31223
0.24252
0.177903
0.121186
0.0751837
0.044287
0.025147
0.013653
0.00704752
0.00344765
0.00159619
0.000699199
0.000290304
0.000114919
4.29258e-05
1.37705e-05
4.48959e-06
2.27921e-06
1.11966e-06
5.31577e-07
2.45817e-07
1.11071e-07
4.91048e-08
2.12725e-08
9.0452e-09
3.7818e-09
1.5576e-09
6.33117e-10
2.54435e-10
1.01275e-10
3.99949e-11
1.56955e-11
6.1299e-12
2.38585e-12
9.267e-13
3.59719e-13
1.3974e-13
5.4366e-14
2.11635e-14
8.21879e-15
3.17013e-15
1.20879e-15
4.53791e-16
1.67201e-16
6.03363e-17
2.12957e-17
7.34555e-18
2.47487e-18
8.14131e-19
2.61369e-19
8.18322e-20
2.49631e-20
7.40722e-21
2.13388e-21
5.94627e-22
1.59665e-22
3.99834e-23
1.01179e-23
-6.14182e-24
0.00381473
0.0118717
0.0181298
0.0238557
0.0330972
0.0521675
0.0950783
0.182527
0.29348
0.395095
0.486318
0.568601
0.618418
0.645789
0.662593
0.668489
0.667893
0.665262
0.659114
0.649241
0.637479
0.617979
0.597736
0.557484
0.509622
0.449776
0.384113
0.320531
0.262825
0.224163
0.200582
0.179537
0.166987
0.146356
0.097605
0.0566869
0.0327799
0.0204165
0.0145339
0.0125199
0.0130329
0.0157934
0.0243936
0.0416085
0.051113
0.058086
0.075415
0.0852857
0.112261
0.364554
0.660212
0.739042
0.795398
0.816155
0.82133
0.82496
0.827393
0.83001
0.832014
0.833713
0.835059
0.836246
0.837
0.837867
0.83872
0.839547
0.840433
0.841363
0.842429
0.84314
0.843697
0.844081
0.844603
0.845365
0.846244
0.847113
0.847753
0.848333
0.849093
0.849999
0.850776
0.851698
0.852815
0.85392
0.854879
0.855979
0.857057
0.858044
0.859067
0.860285
0.861552
0.86285
0.864196
0.865728
0.867269
0.869042
0.870893
0.873154
0.875733
0.878771
0.882464
0.886787
0.892049
0.898271
0.905688
0.914122
0.923472
0.933496
0.943839
0.953441
0.960717
0.966253
0.970761
0.974338
0.97714
0.979236
0.980666
0.981441
0.981536
0.979952
0.974168
0.963681
0.94877
0.924524
0.888003
0.835717
0.760638
0.664699
0.55288
0.437388
0.3307
0.240878
0.169895
0.116389
0.0775704
0.0503358
0.0318158
0.0195956
0.0117666
0.00689343
0.00394394
0.00220623
0.00120834
0.000648909
0.000342197
0.000177454
9.06064e-05
4.55986e-05
2.26359e-05
1.10894e-05
5.36258e-06
2.55958e-06
1.20556e-06
5.60162e-07
2.56728e-07
1.16097e-07
5.1862e-08
2.29292e-08
1.00464e-08
4.35652e-09
1.86205e-09
7.80438e-10
3.1938e-10
1.27266e-10
4.93142e-11
1.85758e-11
6.80321e-12
2.42393e-12
8.4049e-13
2.83833e-13
9.33358e-14
2.99082e-14
9.32476e-15
2.8319e-15
8.3394e-16
2.3894e-16
6.59192e-17
1.58506e-17
4.81542e-18
-1.44822e-17
0.00188526
0.00555747
0.00846433
0.0079024
0.00900827
0.025647
0.0784001
0.196478
0.384791
0.552017
0.666906
0.71393
0.732859
0.73881
0.738296
0.736503
0.731973
0.727799
0.721767
0.718374
0.713569
0.709814
0.70477
0.699534
0.690438
0.675442
0.653317
0.612388
0.57228
0.517508
0.464332
0.41998
0.369377
0.325577
0.277486
0.197156
0.131747
0.0867214
0.0601188
0.0482932
0.0452475
0.0463973
0.0521786
0.0682554
0.103058
0.119451
0.158317
0.448556
0.653048
0.751751
0.795418
0.813544
0.821834
0.824503
0.825542
0.826224
0.826454
0.825938
0.82378
0.820467
0.816795
0.814277
0.811357
0.81002
0.809016
0.808664
0.808631
0.809312
0.810712
0.811569
0.812862
0.814875
0.816353
0.818266
0.821078
0.823249
0.825258
0.827825
0.830094
0.832094
0.834263
0.83619
0.838036
0.839784
0.841434
0.843164
0.844831
0.846407
0.847888
0.849356
0.850918
0.852161
0.853346
0.854802
0.855627
0.856512
0.856866
0.857008
0.856946
0.856693
0.856757
0.85666
0.856813
0.857445
0.858448
0.860147
0.862954
0.867063
0.873294
0.882808
0.897125
0.914221
0.930969
0.944525
0.955606
0.965018
0.972957
0.979588
0.985177
0.989888
0.993327
0.995576
0.996828
0.99735
0.997459
0.997269
0.996283
0.993743
0.988135
0.975255
0.943896
0.867453
0.753827
0.62154
0.486336
0.363638
0.261987
0.18262
0.123548
0.0813305
0.0522094
0.0327504
0.0201169
0.0121259
0.0071881
0.00419937
0.00242265
0.0013827
0.000782079
0.000439235
0.000245556
0.000137053
7.64557e-05
4.24174e-05
2.32745e-05
1.25776e-05
6.67419e-06
3.47056e-06
1.76621e-06
8.79029e-07
4.27606e-07
2.03232e-07
9.43262e-08
4.27409e-08
1.88951e-08
8.14745e-09
3.42232e-09
1.39865e-09
5.57013e-10
2.1694e-10
8.25641e-11
3.07292e-11
1.11581e-11
3.96051e-12
1.36627e-12
4.60585e-13
1.49716e-13
4.75361e-14
1.45437e-14
3.54986e-15
0.000604909
0.00166008
0.00204388
0.00437244
0.0237271
0.090165
0.249311
0.499458
0.663301
0.727703
0.750846
0.752488
0.750014
0.742686
0.728864
0.712249
0.695258
0.680293
0.670019
0.663138
0.661077
0.662333
0.665887
0.673659
0.677206
0.676939
0.67535
0.670231
0.657263
0.640426
0.614993
0.592764
0.565877
0.532886
0.497791
0.447415
0.369907
0.280249
0.208571
0.161073
0.131607
0.130799
0.13704
0.15238
0.184163
0.429058
0.642113
0.742763
0.788702
0.810489
0.818819
0.82162
0.822507
0.822731
0.820747
0.817227
0.810727
0.803201
0.796811
0.792625
0.790551
0.78916
0.788715
0.788696
0.789796
0.792579
0.795202
0.797295
0.800031
0.803143
0.805815
0.808348
0.811156
0.814044
0.816782
0.819262
0.821744
0.824255
0.826621
0.828829
0.830896
0.832887
0.834733
0.836396
0.838076
0.839984
0.842083
0.844298
0.84649
0.848472
0.850897
0.852843
0.854693
0.857425
0.859074
0.861638
0.86405
0.866359
0.868366
0.869411
0.869535
0.867299
0.863453
0.860614
0.858534
0.857729
0.857879
0.858533
0.859437
0.860367
0.861551
0.864912
0.874255
0.891349
0.910864
0.927792
0.941853
0.953313
0.96282
0.971115
0.978846
0.985908
0.99165
0.99551
0.997686
0.998831
0.999393
0.99964
0.999729
0.999746
0.999702
0.999353
0.997893
0.993346
0.980169
0.940437
0.821392
0.652839
0.496062
0.361751
0.254599
0.173604
0.115152
0.0745987
0.0473749
0.0295934
0.0182388
0.0111212
0.00672567
0.00404255
0.00241705
0.00143407
0.000841626
0.000487341
0.000277769
0.000155504
8.53594e-05
4.58846e-05
2.41345e-05
1.24157e-05
6.24541e-06
3.0716e-06
1.47684e-06
6.94194e-07
3.18958e-07
1.43254e-07
6.28567e-08
2.69453e-08
1.12671e-08
4.59491e-09
1.82154e-09
7.06191e-10
2.67172e-10
9.88133e-11
3.5555e-11
1.25014e-11
4.25053e-12
1.4111e-12
4.50615e-13
1.31154e-13
0.000109314
0.000372043
0.0106945
0.0542119
0.17015
0.420036
0.639564
0.731385
0.763185
0.764812
0.758879
0.740383
0.709854
0.659193
0.612786
0.572841
0.54236
0.516879
0.503759
0.490591
0.489768
0.492565
0.499916
0.515058
0.541016
0.581178
0.615751
0.63835
0.64503
0.643656
0.639713
0.63615
0.629943
0.62116
0.605661
0.584621
0.549945
0.455497
0.386174
0.333889
0.265796
0.237938
0.237046
0.332418
0.589582
0.718212
0.777218
0.804018
0.814803
0.818665
0.819652
0.819834
0.816811
0.810633
0.804537
0.796296
0.78881
0.783118
0.780092
0.778627
0.77803
0.77789
0.778248
0.779883
0.78217
0.784191
0.786217
0.788555
0.790854
0.792845
0.795015
0.797503
0.799751
0.801689
0.803599
0.805455
0.807114
0.808794
0.810459
0.811812
0.813011
0.814291
0.815757
0.817449
0.819463
0.822518
0.826277
0.830339
0.834471
0.837558
0.841611
0.844874
0.848202
0.853202
0.856787
0.861432
0.865143
0.869034
0.872332
0.87613
0.880325
0.88467
0.88751
0.884291
0.875504
0.867865
0.863005
0.861479
0.861518
0.86159
0.860656
0.858332
0.857285
0.858328
0.867008
0.890206
0.917008
0.938284
0.952764
0.962728
0.97019
0.976317
0.981958
0.987505
0.992337
0.995776
0.997848
0.998973
0.999535
0.999793
0.999899
0.999934
0.999938
0.999921
0.999792
0.99921
0.997047
0.989898
0.966381
0.886146
0.701606
0.525072
0.379005
0.265482
0.181299
0.121208
0.0796479
0.0516174
0.0330749
0.0209821
0.0131697
0.00816788
0.00499626
0.00300762
0.00177779
0.00102988
0.00058385
0.000323588
0.000175236
9.27041e-05
4.79089e-05
2.41896e-05
1.19341e-05
5.75421e-06
2.71161e-06
1.24901e-06
5.62192e-07
2.47274e-07
1.0619e-07
4.45213e-08
1.81924e-08
7.23718e-09
2.80138e-09
1.05895e-09
3.89613e-10
1.39849e-10
4.86513e-11
1.64755e-11
5.39312e-12
1.63609e-12
0.00108307
0.0242859
0.101021
0.283874
0.591941
0.727371
0.773166
0.778487
0.77233
0.750019
0.695291
0.609336
0.537691
0.493971
0.465066
0.440651
0.416631
0.39631
0.379956
0.368755
0.361545
0.362442
0.366474
0.376527
0.389302
0.411157
0.447877
0.500334
0.569376
0.608828
0.627522
0.633578
0.640631
0.643088
0.641416
0.635862
0.620525
0.583011
0.523623
0.390149
0.291698
0.288719
0.451805
0.657321
0.750468
0.791816
0.808778
0.815221
0.817186
0.817688
0.815463
0.809487
0.802099
0.795917
0.787717
0.779673
0.775347
0.772943
0.771777
0.771334
0.771233
0.771342
0.772055
0.773062
0.773943
0.774923
0.775759
0.776548
0.777185
0.777871
0.778703
0.779437
0.78004
0.78073
0.781461
0.782021
0.782503
0.78324
0.784014
0.784785
0.785569
0.786529
0.788751
0.793243
0.799356
0.807812
0.816334
0.821753
0.825685
0.828556
0.830803
0.831921
0.836092
0.840621
0.848104
0.856567
0.864245
0.871123
0.877338
0.881702
0.884829
0.890158
0.897474
0.904354
0.90779
0.900579
0.884151
0.872101
0.867172
0.867446
0.869926
0.869768
0.863167
0.855126
0.852673
0.854224
0.864669
0.896354
0.931085
0.953245
0.96621
0.974041
0.979465
0.983829
0.987839
0.991605
0.994808
0.99711
0.998518
0.999289
0.999678
0.999862
0.999941
0.99997
0.999976
0.999973
0.999941
0.999777
0.999085
0.996442
0.987176
0.955267
0.843949
0.647855
0.478168
0.343473
0.241304
0.166431
0.112976
0.0755791
0.0498376
0.0323623
0.0206593
0.0129395
0.00793604
0.00475853
0.00278622
0.00159195
0.000887345
0.000482524
0.000256034
0.000132608
6.70603e-05
3.31223e-05
1.59814e-05
7.53396e-06
3.46985e-06
1.56125e-06
6.8594e-07
2.94213e-07
1.23052e-07
5.01739e-08
1.9882e-08
7.66968e-09
2.87966e-09
1.0531e-09
3.73689e-10
1.28788e-10
4.30237e-11
1.34226e-11
0.0273776
0.100733
0.323779
0.648976
0.762756
0.790611
0.788286
0.770491
0.715644
0.615389
0.520527
0.47901
0.456702
0.436044
0.415145
0.388769
0.359601
0.332053
0.310387
0.29275
0.290436
0.293929
0.302491
0.317163
0.331954
0.343207
0.360236
0.388433
0.423639
0.498922
0.57765
0.615981
0.636402
0.6475
0.651686
0.651159
0.645092
0.619782
0.529385
0.367288
0.331273
0.483057
0.685408
0.765484
0.798014
0.810558
0.814615
0.815495
0.815384
0.811288
0.803855
0.798377
0.791353
0.784924
0.776374
0.770904
0.768645
0.767601
0.767107
0.766872
0.766742
0.766696
0.766426
0.765983
0.765461
0.764424
0.763595
0.762573
0.761691
0.761211
0.760792
0.760416
0.759921
0.759082
0.758313
0.757563
0.757197
0.756938
0.75662
0.756617
0.75748
0.759763
0.764004
0.772534
0.783091
0.794638
0.80518
0.810014
0.811069
0.809472
0.802283
0.795068
0.793091
0.795392
0.805819
0.823252
0.843079
0.862384
0.877704
0.889672
0.898402
0.903064
0.905649
0.911506
0.920411
0.927566
0.92759
0.912223
0.888305
0.875914
0.874341
0.879089
0.883089
0.879689
0.864203
0.854857
0.854102
0.859779
0.883126
0.924772
0.954391
0.970511
0.978936
0.983745
0.987143
0.990155
0.992874
0.995219
0.997083
0.998385
0.999176
0.999607
0.999823
0.999925
0.999969
0.999985
0.999989
0.999987
0.999968
0.999874
0.999465
0.997866
0.992054
0.972031
0.902188
0.723293
0.546374
0.402575
0.29036
0.205416
0.142626
0.0971368
0.0648049
0.0422813
0.0269345
0.0167313
0.0101261
0.00596862
0.00342632
0.00191612
0.00104434
0.000555021
0.000287755
0.000145604
7.19274e-05
3.46973e-05
1.63455e-05
7.51989e-06
3.37756e-06
1.48071e-06
6.33091e-07
2.63852e-07
1.07048e-07
4.22024e-08
1.61748e-08
6.03134e-09
2.18339e-09
7.66731e-10
2.61345e-10
8.36657e-11
0.109178
0.254849
0.633372
0.773439
0.798658
0.794705
0.76421
0.673363
0.542663
0.488114
0.46331
0.450016
0.433554
0.41027
0.370653
0.30255
0.241787
0.193954
0.162819
0.145973
0.14804
0.159348
0.187869
0.235697
0.28188
0.306851
0.329531
0.35214
0.369901
0.405223
0.481511
0.576783
0.625115
0.646533
0.654365
0.654576
0.647522
0.613787
0.465687
0.369261
0.488135
0.690822
0.772573
0.801366
0.810975
0.813847
0.81447
0.813805
0.809953
0.803214
0.798475
0.792293
0.785292
0.777558
0.770504
0.767192
0.765525
0.764333
0.763512
0.762711
0.761956
0.76042
0.758192
0.755555
0.752211
0.748352
0.744578
0.74108
0.738181
0.736004
0.734344
0.732766
0.730955
0.728705
0.726486
0.724405
0.723108
0.722106
0.721423
0.721245
0.721652
0.724348
0.729159
0.737361
0.748475
0.762058
0.773908
0.777304
0.775642
0.767567
0.753481
0.7472
0.746078
0.747323
0.75289
0.762955
0.777756
0.801001
0.834326
0.87196
0.898568
0.914716
0.925671
0.930611
0.931742
0.936939
0.944956
0.947175
0.941214
0.915508
0.892287
0.886289
0.890614
0.898422
0.898319
0.885411
0.868385
0.863905
0.867434
0.887267
0.926449
0.958037
0.97566
0.984406
0.988682
0.991014
0.992896
0.99472
0.996338
0.997637
0.998596
0.999234
0.999614
0.999818
0.999919
0.999966
0.999986
0.999993
0.999994
0.999992
0.999974
0.99989
0.999544
0.998233
0.993566
0.977757
0.923721
0.767498
0.591057
0.443945
0.325457
0.232926
0.162635
0.110661
0.0732912
0.0472061
0.0295542
0.0179838
0.0106392
0.0061225
0.00342945
0.00187108
0.000994953
0.000515939
0.000261013
0.000128865
6.20994e-05
2.92113e-05
1.34109e-05
6.00773e-06
2.62466e-06
1.11762e-06
4.63384e-07
1.86888e-07
7.31657e-08
2.78441e-08
1.02881e-08
3.6856e-09
1.28235e-09
4.2101e-10
0.149547
0.48404
0.756142
0.803602
0.800214
0.766069
0.650354
0.528499
0.482659
0.463847
0.454288
0.440736
0.412411
0.344428
0.24015
0.174029
0.136337
0.113439
0.0998812
0.0898805
0.0888976
0.0905993
0.101513
0.139168
0.206867
0.252655
0.278495
0.303386
0.336925
0.365108
0.409413
0.506295
0.595146
0.640107
0.654131
0.654223
0.642069
0.54779
0.413767
0.470825
0.684489
0.773862
0.804094
0.812325
0.813735
0.813099
0.811823
0.808092
0.801557
0.795545
0.790476
0.783991
0.77532
0.76805
0.764358
0.762781
0.761982
0.761234
0.760103
0.757938
0.755241
0.750726
0.744509
0.736632
0.727081
0.716262
0.704888
0.695737
0.686924
0.680325
0.672713
0.666564
0.660034
0.654971
0.652169
0.651037
0.652545
0.654571
0.656846
0.660445
0.664032
0.668439
0.673573
0.680734
0.689412
0.701374
0.715058
0.727129
0.73494
0.738932
0.740047
0.739642
0.740936
0.74462
0.749881
0.755917
0.762719
0.771693
0.785427
0.80846
0.850044
0.895182
0.925986
0.942479
0.953245
0.956659
0.956406
0.960029
0.962535
0.960291
0.945378
0.917365
0.905477
0.906976
0.916097
0.918824
0.913123
0.895114
0.887213
0.888298
0.903747
0.936296
0.963729
0.980586
0.989023
0.992927
0.994679
0.995655
0.996592
0.997537
0.998357
0.998984
0.999417
0.99969
0.999846
0.999929
0.999969
0.999987
0.999995
0.999997
0.999996
0.999992
0.999971
0.999879
0.999525
0.998265
0.993959
0.979651
0.931253
0.786388
0.611262
0.461218
0.337811
0.240116
0.165557
0.110685
0.0717499
0.0451097
0.0275228
0.0163093
0.0093945
0.00526487
0.00287287
0.00152739
0.000791629
0.000400135
0.000197296
9.49102e-05
4.45426e-05
2.03908e-05
9.10156e-06
3.95906e-06
1.67695e-06
6.9107e-07
2.76656e-07
1.07502e-07
4.05592e-08
1.48346e-08
5.27116e-09
1.7741e-09
0.184822
0.63132
0.796579
0.806823
0.778521
0.671992
0.54107
0.49149
0.471434
0.461063
0.453003
0.424066
0.352698
0.253059
0.181792
0.144458
0.119282
0.103578
0.0938164
0.0875985
0.0874088
0.0841304
0.0965539
0.15344
0.214529
0.252337
0.270956
0.282254
0.300398
0.33325
0.403939
0.509864
0.59822
0.641735
0.653349
0.649317
0.589561
0.456371
0.458992
0.669465
0.771272
0.805688
0.814445
0.815385
0.812767
0.808584
0.801196
0.792955
0.785229
0.777391
0.772367
0.767802
0.764669
0.761967
0.760288
0.759333
0.758645
0.757471
0.754735
0.750905
0.743102
0.731368
0.713981
0.686821
0.665323
0.645323
0.631275
0.618809
0.607581
0.597011
0.586472
0.58103
0.576977
0.575116
0.574397
0.575674
0.580248
0.584893
0.592219
0.60129
0.611624
0.623686
0.636686
0.650444
0.664243
0.678048
0.69282
0.709034
0.724738
0.73549
0.743305
0.75331
0.767186
0.786029
0.803268
0.810487
0.808815
0.800945
0.79384
0.798063
0.818512
0.852231
0.893582
0.930473
0.954241
0.967372
0.974566
0.975031
0.974109
0.974789
0.974052
0.967975
0.947293
0.930584
0.928481
0.934762
0.94074
0.940748
0.932641
0.922029
0.920145
0.927394
0.950705
0.971397
0.985148
0.992387
0.995759
0.99722
0.997816
0.998183
0.998587
0.999005
0.999361
0.999622
0.999792
0.999893
0.999948
0.999977
0.99999
0.999996
0.999998
0.999998
0.999997
0.99999
0.99996
0.999846
0.999438
0.998057
0.993453
0.978062
0.925198
0.772873
0.595734
0.443445
0.318898
0.221621
0.148917
0.0968233
0.0609728
0.0372299
0.0220665
0.0127094
0.00711997
0.00388271
0.0020624
0.00106759
0.000538749
0.000265096
0.000127198
5.95085e-05
2.7138e-05
1.2058e-05
5.21682e-06
2.19583e-06
8.98408e-07
3.56666e-07
1.37455e-07
5.13505e-08
1.86384e-08
6.42805e-09
0.236683
0.721482
0.807677
0.797664
0.721529
0.584153
0.513299
0.484609
0.471347
0.46696
0.453648
0.409793
0.327008
0.232647
0.178023
0.15194
0.137093
0.131556
0.130347
0.135335
0.150096
0.158331
0.176993
0.205108
0.227275
0.241202
0.254929
0.273977
0.301629
0.343123
0.426738
0.53703
0.616501
0.643282
0.646003
0.598745
0.493108
0.473961
0.638948
0.765761
0.806135
0.816551
0.818054
0.814375
0.807632
0.793294
0.777943
0.767396
0.760052
0.752251
0.748378
0.746282
0.745602
0.747739
0.750286
0.750784
0.750708
0.749883
0.746493
0.73488
0.711808
0.680696
0.647384
0.624811
0.606579
0.593993
0.580151
0.567144
0.558377
0.549836
0.545273
0.54267
0.540846
0.539403
0.538844
0.541816
0.545289
0.551149
0.560653
0.571961
0.585414
0.601046
0.618619
0.637504
0.656757
0.675623
0.694539
0.714588
0.734675
0.755336
0.779534
0.810261
0.846161
0.878607
0.902297
0.917464
0.924783
0.922445
0.900586
0.866866
0.845016
0.851538
0.88178
0.914744
0.942762
0.963982
0.977273
0.984778
0.986924
0.985752
0.984854
0.984451
0.982356
0.973761
0.95838
0.95175
0.953546
0.960607
0.963882
0.963625
0.958039
0.952933
0.953772
0.964619
0.979365
0.989188
0.994734
0.997418
0.998609
0.999071
0.999206
0.999313
0.999474
0.999645
0.999784
0.999879
0.999936
0.999969
0.999985
0.999994
0.999997
0.999999
0.999999
0.999999
0.999996
0.999984
0.999938
0.999774
0.999212
0.997318
0.990894
0.968627
0.891258
0.710839
0.535047
0.387359
0.27022
0.181899
0.11833
0.0745004
0.0454616
0.0269225
0.0154903
0.00866728
0.00471962
0.00250257
0.00129273
0.000650728
0.000319245
0.000152642
7.11169e-05
3.22742e-05
1.42595e-05
6.12902e-06
2.56101e-06
1.03901e-06
4.08973e-07
1.5606e-07
5.7862e-08
2.04386e-08
0.288939
0.760648
0.808623
0.771558
0.665385
0.557437
0.507414
0.487958
0.484187
0.479147
0.457109
0.410208
0.329324
0.27414
0.251219
0.231994
0.207791
0.195874
0.190125
0.18799
0.190381
0.19697
0.208205
0.218881
0.231513
0.245435
0.262684
0.289387
0.330027
0.398661
0.520932
0.595577
0.621522
0.632112
0.586141
0.521482
0.500581
0.60742
0.756992
0.805132
0.818504
0.821175
0.817231
0.809207
0.79186
0.771835
0.757859
0.743838
0.730614
0.724365
0.721713
0.720907
0.722226
0.729409
0.739918
0.742747
0.742733
0.740335
0.73133
0.705341
0.673159
0.640263
0.615689
0.600971
0.584297
0.56676
0.548348
0.536431
0.526599
0.521028
0.513795
0.505948
0.496951
0.488308
0.483111
0.480374
0.481274
0.488354
0.501146
0.516695
0.53496
0.555213
0.578715
0.606459
0.637914
0.670885
0.703001
0.737293
0.772577
0.804906
0.834527
0.861315
0.885419
0.907082
0.926165
0.94252
0.956173
0.966008
0.970193
0.967479
0.95322
0.930224
0.917984
0.921836
0.941707
0.960573
0.97519
0.985161
0.990989
0.993148
0.993067
0.99233
0.992012
0.991331
0.988992
0.981166
0.973205
0.97178
0.975254
0.980057
0.981463
0.980741
0.976977
0.975364
0.977717
0.986159
0.992703
0.996466
0.998368
0.999232
0.999594
0.999723
0.999769
0.999809
0.999858
0.999906
0.999944
0.999969
0.999984
0.999992
0.999997
0.999999
0.999999
0.999999
0.999999
0.999998
0.999992
0.999969
0.999884
0.99959
0.99857
0.995019
0.982489
0.938515
0.797071
0.602659
0.437302
0.305204
0.205299
0.133368
0.0838275
0.0510609
0.0301813
0.0173303
0.0096754
0.00525562
0.00277906
0.00143105
0.000717789
0.000350713
0.000166911
7.73506e-05
3.48911e-05
1.53092e-05
6.52993e-06
2.70508e-06
1.08743e-06
4.23775e-07
1.6046e-07
5.80118e-08
0.350053
0.775001
0.801063
0.748615
0.642223
0.550936
0.514864
0.501857
0.495951
0.494198
0.492588
0.477004
0.440151
0.377145
0.334769
0.3134
0.289769
0.271804
0.262413
0.252818
0.248135
0.246494
0.250402
0.259489
0.27242
0.29921
0.332572
0.390828
0.465123
0.539413
0.579791
0.59718
0.604259
0.568227
0.537155
0.52826
0.596201
0.746725
0.803113
0.820121
0.824068
0.820846
0.812525
0.791821
0.766585
0.752799
0.734921
0.719997
0.708034
0.701621
0.697955
0.696863
0.698283
0.708099
0.721289
0.725206
0.725497
0.718739
0.697144
0.667014
0.635616
0.609073
0.589356
0.567235
0.544741
0.520693
0.507102
0.497874
0.487408
0.474917
0.452738
0.427651
0.39917
0.373945
0.356953
0.349238
0.351488
0.367545
0.390441
0.418241
0.447233
0.47526
0.502472
0.529193
0.56445
0.614509
0.673548
0.727772
0.775116
0.812953
0.842057
0.865361
0.885804
0.90487
0.923056
0.940443
0.956173
0.968941
0.978091
0.984033
0.986866
0.986735
0.983492
0.977684
0.971587
0.970919
0.976473
0.984905
0.991366
0.995145
0.996624
0.996868
0.996782
0.996611
0.996361
0.995693
0.993272
0.988466
0.986169
0.986719
0.989829
0.991332
0.991346
0.990099
0.988423
0.988548
0.991459
0.995531
0.997827
0.999008
0.999562
0.999798
0.999892
0.999928
0.999946
0.999959
0.999971
0.999981
0.999989
0.999994
0.999997
0.999999
0.999999
1
1
1
0.999999
0.999995
0.99998
0.999927
0.999733
0.999039
0.996547
0.987569
0.955593
0.843622
0.642366
0.465767
0.324338
0.217562
0.140916
0.0883089
0.0536307
0.0316042
0.0180898
0.0100653
0.00544737
0.00286895
0.00147089
0.000734209
0.000356818
0.000168798
7.77037e-05
3.47875e-05
1.51385e-05
6.39838e-06
2.6253e-06
1.04424e-06
4.03558e-07
1.49197e-07
0.381731
0.780194
0.796453
0.738422
0.63396
0.559722
0.532662
0.518589
0.511914
0.508615
0.507518
0.507764
0.505211
0.494677
0.480097
0.467691
0.45691
0.443583
0.435268
0.428045
0.4244
0.423202
0.42498
0.435027
0.45199
0.467953
0.497272
0.521494
0.545384
0.565145
0.572785
0.571609
0.555456
0.547122
0.549351
0.60649
0.741631
0.801413
0.821494
0.826324
0.824643
0.817847
0.797805
0.769371
0.750907
0.733999
0.713915
0.696046
0.686406
0.68275
0.681329
0.680641
0.681329
0.688407
0.701689
0.707329
0.705079
0.692428
0.66874
0.639671
0.617414
0.594722
0.570658
0.540254
0.515976
0.489277
0.472927
0.452409
0.42185
0.380085
0.33197
0.286074
0.248332
0.225754
0.215317
0.212078
0.21898
0.234824
0.263911
0.311024
0.364474
0.412955
0.457308
0.491368
0.515536
0.536912
0.569934
0.631638
0.70865
0.772303
0.812239
0.837451
0.855413
0.87242
0.891786
0.913899
0.936967
0.957889
0.97381
0.98395
0.989851
0.993355
0.995294
0.995911
0.995646
0.994349
0.992112
0.990863
0.992313
0.995755
0.997734
0.998522
0.998768
0.998799
0.998772
0.998687
0.998458
0.997669
0.995935
0.994862
0.994759
0.995623
0.996431
0.996467
0.996044
0.995172
0.995007
0.995661
0.997599
0.998849
0.999478
0.999773
0.999902
0.999954
0.999975
0.999983
0.999988
0.999991
0.999994
0.999996
0.999998
0.999999
0.999999
1
1
1
1
0.999999
0.999996
0.999985
0.999944
0.99979
0.999219
0.997104
0.989329
0.961173
0.860566
0.656256
0.474196
0.32877
0.219562
0.141601
0.088365
0.0534394
0.031356
0.0178671
0.00989425
0.00532786
0.00279095
0.00142263
0.00070568
0.000340602
0.000159918
7.30049e-05
3.239e-05
1.39562e-05
5.83823e-06
2.36834e-06
9.33387e-07
3.52481e-07
0.405512
0.782996
0.794617
0.735054
0.641714
0.580411
0.552263
0.541607
0.538638
0.538271
0.538753
0.540147
0.542141
0.544919
0.546629
0.547107
0.545234
0.543615
0.537844
0.532962
0.528395
0.524479
0.522944
0.523069
0.526857
0.530747
0.536595
0.541355
0.550343
0.553935
0.554599
0.554871
0.556544
0.570641
0.636169
0.746949
0.801279
0.822178
0.827828
0.828517
0.823008
0.808337
0.784456
0.763806
0.747787
0.727932
0.707586
0.688224
0.673764
0.667965
0.665933
0.666414
0.66739
0.670941
0.679163
0.68299
0.680423
0.670048
0.650568
0.629354
0.607032
0.581866
0.553437
0.516258
0.482065
0.450249
0.42458
0.386821
0.339441
0.284136
0.235102
0.198851
0.177233
0.166721
0.162851
0.16473
0.172094
0.184557
0.20235
0.23514
0.289995
0.359531
0.423866
0.474769
0.508615
0.526272
0.539671
0.554639
0.583588
0.642068
0.705316
0.74796
0.774274
0.795557
0.820369
0.850709
0.885905
0.921863
0.952496
0.973915
0.98652
0.993012
0.996221
0.997914
0.998737
0.998944
0.998824
0.998307
0.997676
0.997518
0.998258
0.999111
0.99946
0.999591
0.999614
0.999607
0.999575
0.999476
0.999129
0.998653
0.998444
0.998447
0.998643
0.998772
0.998751
0.998546
0.998235
0.998155
0.998278
0.998904
0.999475
0.999763
0.999898
0.999957
0.999982
0.999991
0.999995
0.999997
0.999998
0.999999
0.999999
0.999999
1
1
1
1
1
1
0.999999
0.999997
0.999987
0.99995
0.999807
0.999259
0.997172
0.989357
0.960653
0.857074
0.649569
0.466502
0.321533
0.21352
0.136954
0.0850028
0.0511238
0.029827
0.0168953
0.00929819
0.0049744
0.00258792
0.00130951
0.00064446
0.000308412
0.000143462
6.48395e-05
2.84558e-05
1.21234e-05
5.0096e-06
2.01131e-06
7.74837e-07
0.415023
0.784469
0.795019
0.746585
0.677791
0.614418
0.579373
0.566895
0.563239
0.562819
0.56549
0.573253
0.583602
0.594932
0.605935
0.612484
0.615116
0.615332
0.607391
0.599226
0.587035
0.575107
0.565547
0.558286
0.552815
0.549113
0.547652
0.54989
0.554926
0.558446
0.565645
0.578741
0.609648
0.683775
0.76364
0.805539
0.824174
0.830581
0.832062
0.828135
0.81816
0.800678
0.781022
0.764693
0.749329
0.729006
0.708794
0.689265
0.672812
0.664138
0.658336
0.655561
0.656013
0.657715
0.661581
0.662299
0.658766
0.649428
0.633451
0.614356
0.597581
0.572125
0.534734
0.491752
0.452536
0.415311
0.382287
0.333128
0.27869
0.2266
0.18771
0.163808
0.151446
0.146532
0.146113
0.148319
0.154993
0.168931
0.185278
0.209189
0.254006
0.322358
0.397463
0.463604
0.506995
0.531663
0.543518
0.550298
0.558049
0.569665
0.590432
0.614257
0.640286
0.670148
0.701075
0.73682
0.784856
0.842802
0.900029
0.94422
0.972308
0.987485
0.994661
0.997744
0.999008
0.999528
0.999701
0.999702
0.999597
0.99947
0.999434
0.999517
0.99974
0.999847
0.999885
0.99989
0.999886
0.999871
0.999819
0.999697
0.999615
0.999592
0.999606
0.999644
0.999646
0.999624
0.999536
0.999473
0.999464
0.999499
0.999665
0.999829
0.999919
0.999964
0.999985
0.999994
0.999997
0.999999
0.999999
1
1
1
1
1
1
1
1
1
1
0.999999
0.999997
0.999988
0.99995
0.999801
0.999213
0.996923
0.988216
0.955904
0.839342
0.62902
0.448263
0.306832
0.202411
0.128977
0.0795189
0.0474964
0.0275126
0.0154686
0.00844722
0.00448263
0.00231225
0.00115941
0.000565056
0.000267574
0.000123069
5.49505e-05
2.38138e-05
1.0009e-05
4.08732e-06
1.60404e-06
0.405362
0.785805
0.803031
0.774237
0.719821
0.659148
0.626602
0.616786
0.61492
0.621082
0.643928
0.677618
0.718354
0.760239
0.789263
0.80423
0.811681
0.814117
0.805975
0.789997
0.759447
0.724215
0.687601
0.661931
0.641671
0.626075
0.615068
0.609829
0.61036
0.619515
0.643029
0.683784
0.740997
0.78249
0.813156
0.827913
0.834124
0.835851
0.834258
0.828267
0.817391
0.800018
0.781818
0.769201
0.755005
0.734457
0.715156
0.696138
0.676197
0.665263
0.658055
0.652854
0.648911
0.648437
0.648864
0.648298
0.644625
0.636015
0.625038
0.608445
0.592435
0.571
0.53531
0.488963
0.44178
0.39519
0.353526
0.305657
0.255879
0.211116
0.177885
0.15707
0.146253
0.142955
0.143174
0.145049
0.150409
0.164532
0.183612
0.204817
0.244717
0.312644
0.392048
0.461657
0.51593
0.547595
0.560417
0.564889
0.565562
0.566294
0.570421
0.575635
0.581967
0.591741
0.60255
0.615625
0.640392
0.698221
0.794748
0.88095
0.939
0.972276
0.988695
0.995805
0.998546
0.999497
0.999803
0.999898
0.999912
0.999895
0.999878
0.999879
0.999904
0.999941
0.999961
0.999967
0.999968
0.999966
0.999958
0.999932
0.999907
0.999897
0.999897
0.999904
0.999907
0.999905
0.999892
0.999875
0.999871
0.999875
0.999902
0.999942
0.999968
0.999983
0.999992
0.999996
0.999998
0.999999
1
1
1
1
1
1
1
1
1
1
1
1
0.999999
0.999997
0.999987
0.999944
0.99977
0.999071
0.996314
0.985746
0.946366
0.808619
0.597824
0.422396
0.286896
0.187825
0.118763
0.0726403
0.0430308
0.0247135
0.0137724
0.00745214
0.00391675
0.00199988
0.000991954