/*--------------------------------*- C++ -*----------------------------------*\
  =========                 |
  \\      /  F ield         | OpenFOAM: The Open Source CFD Toolbox
   \\    /   O peration     | Website:  https://openfoam.org
    \\  /    A nd           | Version:  7
     \\/     M anipulation  |
\*---------------------------------------------------------------------------*/
FoamFile
{
    version     2.0;
    format      ascii;
    class       volVectorField;
    location    "0.067";
    object      U;
}
// * * * * * * * * * * * * * * * * * * * * * * * * * * * * * * * * * * * * * //

dimensions      [0 1 -1 0 0 0 0];

internalField   nonuniform List<vector> 
12225
(
(4.70082 0.178852 0)
(4.03102 0.111487 0)
(3.59954 0.088684 0)
(3.28278 0.0759049 0)
(2.97967 0.0711602 0)
(2.6806 0.0654511 0)
(2.3893 0.0588813 0)
(2.10682 0.0521351 0)
(1.84213 0.0432979 0)
(1.61007 0.0320316 0)
(1.41638 0.021606 0)
(1.25979 0.0143132 0)
(1.13044 0.0101452 0)
(1.02821 0.00769239 0)
(0.935221 0.00644936 0)
(0.86171 0.00595722 0)
(0.773462 0.00823597 0)
(0.683192 0.00763888 0)
(4.93104 0.122859 0)
(4.87446 0.0674368 0)
(4.80641 0.0820213 0)
(4.70436 0.0783877 0)
(4.58082 0.0771302 0)
(4.45585 0.0797662 0)
(4.33291 0.0854872 0)
(4.21224 0.0915051 0)
(4.0933 0.0941702 0)
(3.97355 0.0920347 0)
(3.84444 0.0853703 0)
(3.71095 0.0761776 0)
(3.57858 0.0664486 0)
(3.46523 0.0582465 0)
(3.36312 0.054783 0)
(3.27486 0.0553099 0)
(3.17576 0.0661023 0)
(3.05519 0.0734015 0)
(5.00532 0.155164 0)
(4.85174 0.086587 0)
(4.80681 0.116507 0)
(4.81308 0.129132 0)
(4.81335 0.1314 0)
(4.78758 0.129963 0)
(4.74314 0.126238 0)
(4.70093 0.121289 0)
(4.67347 0.116075 0)
(4.65595 0.11272 0)
(4.63429 0.111129 0)
(4.59922 0.108438 0)
(4.55249 0.101508 0)
(4.49986 0.0910572 0)
(4.45085 0.0826882 0)
(4.40228 0.0802645 0)
(4.36365 0.0913208 0)
(4.31195 0.112753 0)
(5.05243 0.168025 0)
(4.86433 0.100371 0)
(4.77756 0.0902185 0)
(4.76114 0.0912091 0)
(4.77681 0.098242 0)
(4.78457 0.107694 0)
(4.77368 0.113832 0)
(4.75834 0.113968 0)
(4.75299 0.10958 0)
(4.7591 0.105266 0)
(4.77031 0.103929 0)
(4.77812 0.1032 0)
(4.77942 0.0998681 0)
(4.77182 0.0933376 0)
(4.76034 0.088648 0)
(4.74489 0.0897071 0)
(4.73483 0.102134 0)
(4.72529 0.124544 0)
(5.11675 0.191841 0)
(5.05031 0.126863 0)
(4.94392 0.123888 0)
(4.86761 0.122113 0)
(4.82107 0.120805 0)
(4.7927 0.125327 0)
(4.7763 0.12831 0)
(4.77147 0.122779 0)
(4.77749 0.1114 0)
(4.79023 0.102415 0)
(4.80459 0.100395 0)
(4.81547 0.102431 0)
(4.82001 0.103301 0)
(4.81732 0.100413 0)
(4.81093 0.0967542 0)
(4.80479 0.0965962 0)
(4.80411 0.104188 0)
(4.81133 0.122179 0)
(4.93439 0.185283 0)
(4.94281 0.135669 0)
(4.89781 0.130559 0)
(4.83815 0.132644 0)
(4.79548 0.13385 0)
(4.78265 0.131887 0)
(4.79476 0.125983 0)
(4.81256 0.115998 0)
(4.8188 0.104945 0)
(4.81054 0.0980155 0)
(4.79662 0.0974145 0)
(4.78635 0.100132 0)
(4.78428 0.101369 0)
(4.78979 0.0989873 0)
(4.80125 0.0951359 0)
(4.81598 0.0942493 0)
(4.83396 0.0996941 0)
(4.85347 0.114631 0)
(5.02395 0.154996 0)
(4.95523 0.133638 0)
(4.88058 0.15179 0)
(4.82953 0.150996 0)
(4.81692 0.137628 0)
(4.83031 0.122967 0)
(4.8508 0.114056 0)
(4.8645 0.111283 0)
(4.86568 0.111524 0)
(4.8575 0.112147 0)
(4.84817 0.111491 0)
(4.84468 0.108038 0)
(4.84968 0.100841 0)
(4.8609 0.0910134 0)
(4.8754 0.0820635 0)
(4.89081 0.0784858 0)
(4.90785 0.0826442 0)
(4.92718 0.0963164 0)
(4.92103 0.192442 0)
(4.90678 0.157281 0)
(4.92028 0.150077 0)
(4.92039 0.144751 0)
(4.90633 0.135812 0)
(4.88491 0.124547 0)
(4.86664 0.115011 0)
(4.85893 0.108515 0)
(4.86367 0.104524 0)
(4.87878 0.102363 0)
(4.89936 0.100872 0)
(4.91949 0.0984806 0)
(4.9338 0.09384 0)
(4.93984 0.0875165 0)
(4.9377 0.0813695 0)
(4.93258 0.0787049 0)
(4.92825 0.0806559 0)
(4.93231 0.0892068 0)
(5.02338 0.170166 0)
(4.94851 0.146109 0)
(4.90875 0.153673 0)
(4.91947 0.15744 0)
(4.94974 0.151852 0)
(4.96552 0.140185 0)
(4.95772 0.127042 0)
(4.9351 0.115137 0)
(4.91275 0.105769 0)
(4.90166 0.0993794 0)
(4.9039 0.0955703 0)
(4.91458 0.0934917 0)
(4.92734 0.0914529 0)
(4.93695 0.0888919 0)
(4.94165 0.0856317 0)
(4.94216 0.0835243 0)
(4.94175 0.0828327 0)
(4.94367 0.0852024 0)
(4.95963 0.178177 0)
(4.90238 0.17351 0)
(4.87514 0.146252 0)
(4.90021 0.120713 0)
(4.94152 0.114958 0)
(4.95961 0.122697 0)
(4.9478 0.129736 0)
(4.92334 0.12736 0)
(4.90555 0.1162 0)
(4.90229 0.10212 0)
(4.91063 0.0905069 0)
(4.92327 0.0836881 0)
(4.93492 0.0806763 0)
(4.94261 0.0797805 0)
(4.94835 0.0793645 0)
(4.95313 0.0798037 0)
(4.96197 0.0801633 0)
(4.97438 0.0811679 0)
(4.9986 0.211732 0)
(4.98607 0.183638 0)
(4.97251 0.158625 0)
(4.96199 0.129432 0)
(4.95442 0.123961 0)
(4.95497 0.136477 0)
(4.96815 0.145171 0)
(4.9889 0.138195 0)
(5.00437 0.119623 0)
(5.00367 0.100158 0)
(4.98623 0.0870616 0)
(4.96057 0.0815195 0)
(4.93779 0.0804094 0)
(4.92484 0.0799522 0)
(4.92547 0.0775369 0)
(4.93839 0.0731892 0)
(4.96237 0.0664581 0)
(4.99328 0.0597981 0)
(5.02261 0.190468 0)
(4.99015 0.188109 0)
(4.99761 0.152355 0)
(4.98851 0.125071 0)
(4.97724 0.119704 0)
(4.98022 0.121239 0)
(4.99725 0.117914 0)
(5.01941 0.110991 0)
(5.03628 0.107654 0)
(5.04061 0.110116 0)
(5.03189 0.113782 0)
(5.01474 0.112745 0)
(4.99621 0.104237 0)
(4.98102 0.0894735 0)
(4.97313 0.0715027 0)
(4.97361 0.0545466 0)
(4.98353 0.0395211 0)
(5.00126 0.0292586 0)
(4.94033 0.201093 0)
(4.94594 0.190803 0)
(4.94958 0.160667 0)
(4.93249 0.131542 0)
(4.92193 0.120589 0)
(4.92382 0.121036 0)
(4.9338 0.120756 0)
(4.94766 0.114504 0)
(4.96313 0.106131 0)
(4.97784 0.101025 0)
(4.99025 0.100387 0)
(4.99999 0.101291 0)
(5.00792 0.0997334 0)
(5.01478 0.0933187 0)
(5.02203 0.0809733 0)
(5.03048 0.0646465 0)
(5.04171 0.0450716 0)
(5.05461 0.0256627 0)
(4.96501 0.260901 0)
(4.96822 0.20228 0)
(5.00419 0.15664 0)
(5.00359 0.135754 0)
(4.97773 0.127373 0)
(4.95944 0.120678 0)
(4.96138 0.109383 0)
(4.97494 0.0978881 0)
(4.98935 0.0937495 0)
(5.00091 0.0979149 0)
(5.01152 0.104287 0)
(5.02347 0.105295 0)
(5.03625 0.0968686 0)
(5.04787 0.0800301 0)
(5.05672 0.0583697 0)
(5.06326 0.0366095 0)
(5.0685 0.0166133 0)
(5.07462 2.58982e-05 0)
(4.92852 0.22632 0)
(4.99731 0.157677 0)
(4.99746 0.143372 0)
(4.96178 0.152585 0)
(4.93267 0.148219 0)
(4.9304 0.12759 0)
(4.94101 0.104853 0)
(4.94657 0.0891425 0)
(4.94545 0.0803764 0)
(4.94683 0.0753858 0)
(4.95841 0.0728715 0)
(4.97948 0.0726689 0)
(5.00346 0.0735347 0)
(5.02313 0.0731426 0)
(5.03567 0.0678583 0)
(5.04188 0.0563172 0)
(5.04555 0.0373 0)
(5.04908 0.0134061 0)
(5.03637 0.277142 0)
(5.03674 0.188253 0)
(5.02869 0.175845 0)
(5.03675 0.170882 0)
(5.0537 0.141864 0)
(5.06477 0.111003 0)
(5.06664 0.0997094 0)
(5.06381 0.103249 0)
(5.05941 0.105288 0)
(5.05426 0.0971721 0)
(5.04996 0.0818202 0)
(5.04822 0.0661029 0)
(5.04998 0.0535522 0)
(5.05499 0.0436142 0)
(5.06254 0.032882 0)
(5.07115 0.0192611 0)
(5.08003 0.00152604 0)
(5.08712 -0.0190449 0)
(5.02402 0.259426 0)
(5.01203 0.176063 0)
(5.00179 0.13889 0)
(5.00174 0.135848 0)
(4.99891 0.134569 0)
(4.98596 0.123163 0)
(4.97486 0.105388 0)
(4.97518 0.0894644 0)
(4.98422 0.0795432 0)
(4.99553 0.0747106 0)
(5.00551 0.0722144 0)
(5.01324 0.0698927 0)
(5.01935 0.0661384 0)
(5.02502 0.059996 0)
(5.03149 0.0500693 0)
(5.03845 0.0361567 0)
(5.04546 0.0179673 0)
(5.05131 -0.00335164 0)
(5.06652 0.23577 0)
(5.03498 0.2075 0)
(5.03354 0.178964 0)
(5.04073 0.16089 0)
(5.05048 0.145317 0)
(5.05678 0.127761 0)
(5.0518 0.11174 0)
(5.03942 0.0986511 0)
(5.02658 0.0867823 0)
(5.01795 0.0743435 0)
(5.01602 0.0609444 0)
(5.02 0.0470149 0)
(5.02747 0.0329078 0)
(5.03577 0.0186495 0)
(5.04433 0.00357562 0)
(5.05215 -0.0124163 0)
(5.06014 -0.0296418 0)
(5.06601 -0.0471217 0)
(5.0899 0.245653 0)
(5.10241 0.228228 0)
(5.11409 0.175527 0)
(5.11998 0.136275 0)
(5.11879 0.127066 0)
(5.11248 0.133877 0)
(5.10711 0.139592 0)
(5.1056 0.132759 0)
(5.10867 0.112527 0)
(5.11547 0.086469 0)
(5.12432 0.0629451 0)
(5.133 0.0459586 0)
(5.14016 0.034838 0)
(5.14535 0.0267672 0)
(5.14928 0.0180819 0)
(5.15128 0.00680013 0)
(5.15252 -0.0080332 0)
(5.15154 -0.0259468 0)
(4.95595 0.215521 0)
(5.03341 0.160246 0)
(5.05016 0.151435 0)
(5.06812 0.135859 0)
(5.07634 0.128762 0)
(5.08216 0.129448 0)
(5.09039 0.122158 0)
(5.09847 0.101824 0)
(5.10698 0.0753684 0)
(5.11856 0.0515183 0)
(5.1336 0.0341079 0)
(5.15037 0.022228 0)
(5.16683 0.0128384 0)
(5.18136 0.00357773 0)
(5.19403 -0.00642988 0)
(5.20407 -0.0174648 0)
(5.21182 -0.0285962 0)
(5.21521 -0.0397885 0)
(5.15516 0.254003 0)
(5.14349 0.186417 0)
(5.0952 0.152384 0)
(5.06771 0.134253 0)
(5.06912 0.126304 0)
(5.09482 0.126826 0)
(5.12707 0.121268 0)
(5.1513 0.100321 0)
(5.16448 0.0673108 0)
(5.17135 0.0317923 0)
(5.17755 0.00264091 0)
(5.18534 -0.0159191 0)
(5.19468 -0.0246918 0)
(5.20395 -0.0280295 0)
(5.21201 -0.0298683 0)
(5.21785 -0.0324155 0)
(5.22219 -0.0361316 0)
(5.22455 -0.0395243 0)
(5.06485 0.307467 0)
(5.09337 0.234784 0)
(5.10093 0.18852 0)
(5.10459 0.131345 0)
(5.1233 0.0815616 0)
(5.15876 0.0606156 0)
(5.20188 0.0619759 0)
(5.24366 0.0656245 0)
(5.27609 0.0586096 0)
(5.29449 0.0405977 0)
(5.29986 0.0180988 0)
(5.29656 -0.00155237 0)
(5.28902 -0.0150018 0)
(5.28042 -0.022778 0)
(5.27317 -0.0278109 0)
(5.2677 -0.0322917 0)
(5.26416 -0.0374358 0)
(5.26162 -0.0429694 0)
(5.03803 0.233475 0)
(5.10263 0.197621 0)
(5.16202 0.180244 0)
(5.20097 0.134284 0)
(5.21742 0.0867542 0)
(5.21794 0.0499445 0)
(5.21893 0.0251642 0)
(5.23023 0.0108211 0)
(5.25075 0.00304127 0)
(5.2738 -0.00120679 0)
(5.29407 -0.00274909 0)
(5.30901 -0.00395014 0)
(5.318 -0.00627592 0)
(5.32136 -0.0103389 0)
(5.32053 -0.0162258 0)
(5.31718 -0.0233522 0)
(5.31326 -0.0310396 0)
(5.30897 -0.0377987 0)
(4.97694 0.228494 0)
(4.98133 0.158794 0)
(5.05413 0.118436 0)
(5.13441 0.0944536 0)
(5.19455 0.0792824 0)
(5.22068 0.0674065 0)
(5.22305 0.0546897 0)
(5.21645 0.0385556 0)
(5.21105 0.0193864 0)
(5.21248 -5.36513e-05 0)
(5.22029 -0.0153403 0)
(5.23121 -0.02323 0)
(5.24416 -0.0240896 0)
(5.25818 -0.0214557 0)
(5.27319 -0.0191177 0)
(5.28827 -0.0192655 0)
(5.3037 -0.0228277 0)
(5.31823 -0.0284218 0)
(5.04291 0.207667 0)
(5.08009 0.134517 0)
(5.09703 0.0616757 0)
(5.14528 0.0304347 0)
(5.21064 0.021063 0)
(5.26684 0.0187553 0)
(5.30907 0.0172746 0)
(5.34048 0.0119177 0)
(5.36186 0.00142435 0)
(5.37139 -0.01125 0)
(5.36996 -0.0232321 0)
(5.36105 -0.0320047 0)
(5.34931 -0.0381046 0)
(5.33973 -0.0437085 0)
(5.33653 -0.0505449 0)
(5.34074 -0.0584899 0)
(5.35199 -0.0667109 0)
(5.36762 -0.0726684 0)
(5.00747 0.213661 0)
(5.05885 0.171081 0)
(5.13436 0.108999 0)
(5.21528 0.0518333 0)
(5.27133 0.0168976 0)
(5.30113 0.0078055 0)
(5.32316 0.00990778 0)
(5.34826 0.00912232 0)
(5.37517 0.00282617 0)
(5.39929 -0.0033058 0)
(5.41867 -0.00505548 0)
(5.43451 -0.00418612 0)
(5.44886 -0.00465719 0)
(5.46267 -0.00960857 0)
(5.47527 -0.0201155 0)
(5.48482 -0.0343486 0)
(5.49057 -0.0499692 0)
(5.49084 -0.0632455 0)
(4.9344 0.157049 0)
(5.11459 0.046414 0)
(5.26977 -0.0165712 0)
(5.32825 -0.0332915 0)
(5.33249 -0.0299699 0)
(5.33587 -0.0220427 0)
(5.35524 -0.0181127 0)
(5.38386 -0.0222344 0)
(5.41224 -0.0317211 0)
(5.43671 -0.0413754 0)
(5.45905 -0.04835 0)
(5.48275 -0.0531158 0)
(5.50933 -0.0574253 0)
(5.53728 -0.0623229 0)
(5.56375 -0.0673361 0)
(5.5853 -0.071495 0)
(5.60077 -0.0737849 0)
(5.60808 -0.0739849 0)
(5.05306 0.202189 0)
(5.22077 0.0903262 0)
(5.3484 0.0455321 0)
(5.39925 0.0223646 0)
(5.4254 0.00467672 0)
(5.46494 -0.00707202 0)
(5.51684 -0.0132311 0)
(5.56398 -0.0176077 0)
(5.59595 -0.0223225 0)
(5.61372 -0.0272619 0)
(5.62382 -0.0317157 0)
(5.63172 -0.03608 0)
(5.63891 -0.0412126 0)
(5.6438 -0.0477023 0)
(5.64424 -0.0549639 0)
(5.64009 -0.0616005 0)
(5.63256 -0.0661046 0)
(5.62468 -0.0673396 0)
(5.06703 0.0739476 0)
(5.33415 -0.0378468 0)
(5.45102 -0.0527006 0)
(5.48494 -0.0643236 0)
(5.49795 -0.0682058 0)
(5.51432 -0.0668701 0)
(5.53569 -0.0641449 0)
(5.55582 -0.0609929 0)
(5.56951 -0.0586603 0)
(5.57416 -0.0586752 0)
(5.56887 -0.0608075 0)
(5.55462 -0.0633635 0)
(5.53309 -0.0647804 0)
(5.50699 -0.0648269 0)
(5.47814 -0.0643857 0)
(5.44963 -0.0644733 0)
(5.42147 -0.0655391 0)
(5.39629 -0.0675628 0)
(4.92979 0.103517 0)
(5.1825 0.0226778 0)
(5.17125 0.0101545 0)
(5.03207 -0.00487575 0)
(4.8819 -0.0154393 0)
(4.74345 -0.0221623 0)
(4.60881 -0.0272451 0)
(4.4766 -0.0296619 0)
(4.35215 -0.0287607 0)
(4.23773 -0.0256948 0)
(4.13116 -0.0222481 0)
(4.03017 -0.0201061 0)
(3.93295 -0.0203644 0)
(3.83825 -0.0231085 0)
(3.74318 -0.0273117 0)
(3.64748 -0.0314924 0)
(3.54937 -0.0342575 0)
(3.45298 -0.0346688 0)
(-0.134929 0.340022 2.89793e-20)
(-0.431509 0.352288 -2.87337e-20)
(-0.688774 0.284859 0)
(-0.868845 0.188453 0)
(-0.942235 0.0688052 0)
(-0.898831 -0.058535 2.78188e-20)
(-0.757306 -0.174643 0)
(-0.517367 -0.270181 0)
(-0.214493 -0.322227 0)
(0.125923 -0.345913 0)
(0.479093 -0.348671 -2.69674e-20)
(0.824938 -0.334667 0)
(1.1535 -0.309471 0)
(1.45632 -0.277834 0)
(1.72947 -0.243511 0)
(1.97118 -0.208331 -2.56848e-20)
(2.18049 -0.173141 0)
(2.35719 -0.138137 0)
(2.5004 -0.103444 0)
(2.61095 -0.0689501 0)
(2.6867 -0.0344432 0)
(2.72895 0.000285327 0)
(2.73542 0.0356588 0)
(2.70276 0.0729435 -2.38035e-20)
(2.63217 0.110547 2.36138e-20)
(2.52455 0.147318 -2.34338e-20)
(2.37985 0.180869 -2.32618e-20)
(2.20184 0.211392 0)
(1.99 0.23726 0)
(1.75602 0.256982 2.27717e-20)
(1.49224 0.278432 2.26087e-20)
(1.21761 0.28119 0)
(0.923634 0.32069 0)
(0.580829 0.306586 2.20877e-20)
(0.296619 0.10837 0)
(0.109144 -0.0625105 0)
(-0.0160237 -0.101075 -2.15179e-20)
(-0.0927385 -0.083043 0)
(-0.122192 -0.06522 -2.1132e-20)
(-0.108898 -0.0678625 -4.18918e-20)
(-0.0651241 -0.0845828 0)
(0.00829012 -0.105467 0)
(0.122672 -0.112216 0)
(0.264261 -0.0721715 0)
(0.390605 0.00131388 0)
(0.460991 0.0434827 -3.96959e-20)
(0.510894 0.0510754 -3.93107e-20)
(0.633475 0.0409745 -3.89127e-20)
(0.814471 -0.0377594 0)
(0.972246 -0.279638 3.81742e-20)
(1.03605 -0.508595 0)
(1.00476 -0.424222 -3.73984e-20)
(0.80343 -0.0249235 -3.70462e-20)
(0.301399 0.36091 0)
(-0.298426 0.45231 0)
(-0.852927 0.432117 0)
(-1.36704 0.397451 -3.54549e-20)
(-1.83208 0.356867 0)
(-2.24886 0.316475 0)
(-2.6207 0.279123 0)
(-2.95251 0.246059 0)
(-3.24929 0.217509 0)
(-3.51575 0.193245 0)
(-3.75599 0.172643 0)
(-3.97335 0.154971 0)
(-4.17046 0.139579 3.08834e-20)
(-4.34924 0.125888 0)
(-4.51104 0.113371 0)
(-4.65664 0.1016 -2.95873e-20)
(-4.78641 0.0902885 -2.91889e-20)
(-4.90044 0.0792385 0)
(-4.99858 0.0682891 2.84464e-20)
(-5.08057 0.0573619 -2.81033e-20)
(-5.14612 0.0465082 0)
(-5.195 0.0358594 2.74753e-20)
(-5.22707 0.0254727 0)
(-5.24234 0.0153828 0)
(-5.24068 0.00597466 -2.66753e-20)
(-5.22449 -0.00270139 0)
(-5.19308 -0.0110337 2.62271e-20)
(-5.14723 -0.0189148 0)
(-5.08721 -0.0264868 -2.5836e-20)
(-5.0133 -0.0337966 -2.56583e-20)
(-4.92567 -0.040899 -2.54905e-20)
(-4.82438 -0.0478566 -5.06625e-20)
(-4.7094 -0.054707 5.03591e-20)
(-4.58066 -0.0614692 0)
(-4.43807 -0.0681411 0)
(-4.28157 -0.0746989 0)
(-4.11116 -0.0810893 4.92554e-20)
(-3.92704 -0.0872189 4.89981e-20)
(-3.72963 -0.0929476 -4.87442e-20)
(-3.51971 -0.0980966 0)
(-3.29851 -0.102467 4.82358e-20)
(-3.06768 -0.10587 4.79748e-20)
(-2.82925 -0.108172 4.77048e-20)
(-2.58548 -0.10932 0)
(-2.33872 -0.109327 0)
(-2.09123 -0.108257 0)
(-1.84499 -0.106221 4.64812e-20)
(-1.60173 -0.10334 0)
(-1.36314 -0.0996975 0)
(-1.13086 -0.0953711 -4.53777e-20)
(-0.906465 -0.0904291 0)
(-0.691407 -0.0849445 0)
(-0.486893 -0.0790375 -4.41172e-20)
(-0.293929 -0.0727331 0)
(-0.11291 -0.0661813 0)
(0.0545124 -0.0603721 4.2724e-20)
(0.208735 -0.0542174 4.2227e-20)
(0.351414 -0.048491 0)
(0.482683 -0.0432054 -4.1218e-20)
(0.603552 -0.0384045 0)
(0.715011 -0.0340463 4.02048e-20)
(0.817898 -0.0300105 0)
(0.912751 -0.0261439 3.91964e-20)
(0.999724 -0.0222962 3.86957e-20)
(1.0786 -0.0183574 0)
(1.14891 -0.0143175 0)
(1.21018 -0.0102195 0)
(1.26197 -0.0061506 0)
(1.30415 -0.00230075 0)
(1.33694 0.00125277 0)
(1.36067 0.00444042 0)
(1.37622 0.00705831 3.48107e-20)
(1.38456 0.00932585 -3.4342e-20)
(1.38594 0.0114851 0)
(1.38139 0.0132988 0)
(1.37197 0.0146033 0)
(1.35849 0.0154701 0)
(1.34179 0.0159666 -6.41087e-20)
(1.3226 0.0161025 0)
(1.30162 0.015884 6.23295e-20)
(1.27949 0.0153587 -6.14502e-20)
(1.2568 0.0145901 0)
(1.23408 0.0136448 0)
(1.21175 0.0126002 0)
(1.19015 0.0115318 5.79986e-20)
(1.16947 0.0104922 5.71515e-20)
(1.14986 0.00951036 0)
(1.1314 0.00859813 5.54754e-20)
(1.11416 0.00775735 5.46461e-20)
(1.09818 0.00698736 -5.38226e-20)
(1.08348 0.00628853 0)
(1.07005 0.00566139 0)
(1.05789 0.00510449 -5.13854e-20)
(1.04697 0.00461318 0)
(1.03721 0.00417998 0)
(1.02854 0.00379571 0)
(1.02088 0.00345066 0)
(1.01414 0.00313598 4.74305e-20)
(1.00822 0.00284469 4.6655e-20)
(1.00303 0.00257267 0)
(0.998485 0.00232295 4.5119e-20)
(0.994487 0.0020982 0)
(0.990954 0.00190018 0)
(0.987797 0.00173044 4.28511e-20)
(0.98495 0.00158751 0)
(0.98233 0.00147119 4.13624e-20)
(0.979898 0.00137624 0)
(0.977563 0.00129478 0)
(0.975316 0.00122106 3.91631e-20)
(0.973002 0.00116707 0)
(0.97066 0.0011407 3.77188e-20)
(0.968011 0.00115968 0)
(0.965222 0.00121523 0)
(0.961765 0.00132747 0)
(0.958076 0.00147755 -3.48814e-20)
(0.953113 0.0017185 0)
(0.947839 0.00200756 3.34883e-20)
(0.940283 0.00246622 0)
(0.932224 0.00295998 0)
(0.920464 0.003822 0)
(0.907056 0.00456576 0)
(0.889353 0.00632561 0)
(0.863698 0.00711132 0)
(0.841825 0.0114205 0)
(0.780619 0.0103552 -5.62173e-20)
(0.777324 0.0237209 0)
(0.602599 0.0119318 0)
(-0.0355209 0.799344 -8.68572e-20)
(-0.197502 0.753372 8.6161e-20)
(-0.303567 0.577677 0)
(-0.368958 0.323296 -5.64811e-20)
(-0.372302 0.0224332 0)
(-0.300043 -0.318113 -2.78619e-20)
(-0.138984 -0.642556 5.52645e-20)
(0.109887 -0.88869 5.49057e-20)
(0.417265 -1.0331 0)
(0.728011 -1.08505 5.4093e-20)
(1.03562 -1.07168 2.68986e-20)
(1.3324 -1.01565 0)
(1.60974 -0.935552 0)
(1.86386 -0.843675 0)
(2.09384 -0.74717 0)
(2.29912 -0.649712 2.56476e-20)
(2.47931 -0.552896 0)
(2.63353 -0.457129 -5.01521e-20)
(2.76194 -0.362394 0)
(2.86286 -0.268502 0)
(2.93752 -0.175062 4.87352e-20)
(2.98406 -0.0821352 0)
(3.00408 0.010448 -4.78826e-20)
(2.99983 0.102826 2.37834e-20)
(2.96904 0.193683 -2.35897e-20)
(2.91216 0.281536 2.34051e-20)
(2.8297 0.363847 2.3228e-20)
(2.72328 0.43884 0)
(2.59282 0.505206 0)
(2.4426 0.55898 -2.27216e-20)
(2.27377 0.606627 2.24799e-20)
(2.09493 0.63709 0)
(1.90908 0.66459 0)
(1.71923 0.681292 -2.20144e-20)
(1.54109 0.640065 0)
(1.3296 0.551062 0)
(1.06898 0.409607 2.14578e-20)
(0.834171 0.245104 0)
(0.685496 0.09156 -2.11162e-20)
(0.596078 -0.0316436 4.18427e-20)
(0.553335 -0.110809 0)
(0.551389 -0.187168 0)
(0.599506 -0.281557 8.15117e-20)
(0.698318 -0.333847 8.07764e-20)
(0.828333 -0.309706 8.00314e-20)
(1.02273 -0.232866 -3.96018e-20)
(1.27427 -0.240606 3.92436e-20)
(1.39353 -0.505305 1.16598e-19)
(1.24794 -0.529772 -7.70041e-20)
(0.849131 -0.0402344 -3.82039e-20)
(0.123794 0.491346 0)
(-0.638686 0.815063 3.74411e-20)
(-1.24519 1.0184 -3.68877e-20)
(-1.75672 1.10771 0)
(-2.18937 1.07557 0)
(-2.56948 0.997828 0)
(-2.9084 0.901913 3.5318e-20)
(-3.20942 0.803893 0)
(-3.47756 0.711517 -6.83315e-20)
(-3.71697 0.628513 0)
(-3.93201 0.555956 -6.63213e-20)
(-4.12614 0.493448 0)
(-4.30223 0.439828 6.43591e-20)
(-4.4625 0.393569 0)
(-4.60859 0.353153 -6.24782e-20)
(-4.74166 0.317186 3.0731e-20)
(-4.86242 0.284424 0)
(-4.97124 0.253814 5.98488e-20)
(-5.06823 0.224531 2.95607e-20)
(-5.15331 0.195974 2.9166e-20)
(-5.22623 0.167719 0)
(-5.28667 0.139497 2.83496e-20)
(-5.33432 0.111206 2.80896e-20)
(-5.36886 0.0829034 0)
(-5.38999 0.0547507 -2.74664e-20)
(-5.39758 0.0269768 5.42999e-20)
(-5.3917 -0.000127945 0)
(-5.37279 -0.0263153 2.66698e-20)
(-5.33895 -0.0513535 0)
(-5.2915 -0.0753478 -7.86177e-20)
(-5.23029 -0.098263 0)
(-5.15577 -0.120244 7.74532e-20)
(-5.06819 -0.141443 2.56535e-20)
(-4.96772 -0.162027 -2.54508e-20)
(-4.85442 -0.182158 -5.05864e-20)
(-4.72824 -0.201948 5.02846e-20)
(-4.58909 -0.221452 0)
(-4.43688 -0.240673 0)
(-4.2715 -0.259557 0)
(-4.09291 -0.277973 -1.47667e-19)
(-3.90121 -0.29566 -4.89878e-20)
(-3.69672 -0.312206 4.87336e-20)
(-3.48014 -0.327066 0)
(-3.25262 -0.339628 4.81584e-20)
(-3.01581 -0.349317 -4.79639e-20)
(-2.77177 -0.355732 -4.7694e-20)
(-2.52281 -0.358728 0)
(-2.27129 -0.358376 0)
(-2.01947 -0.354898 0)
(-1.76931 -0.348659 -4.64721e-20)
(-1.52242 -0.340042 0)
(-1.28042 -0.329305 9.14808e-20)
(-1.04489 -0.316646 1.36085e-19)
(-0.817336 -0.302282 -8.99127e-20)
(-0.599186 -0.286459 0)
(-0.391619 -0.269425 -4.40968e-20)
(-0.19563 -0.251394 0)
(-0.0121086 -0.233221 -8.63849e-20)
(0.15828 -0.215724 4.2702e-20)
(0.316597 -0.198084 4.22047e-20)
(0.463879 -0.181528 0)
(0.600856 -0.16636 1.23611e-19)
(0.728694 -0.152757 -8.13921e-20)
(0.848588 -0.140636 -4.01943e-20)
(0.96158 -0.129668 0)
(1.0684 -0.119375 -3.91859e-20)
(1.16932 -0.109256 -1.16048e-19)
(1.26419 -0.0989216 0)
(1.35254 -0.0881884 -7.53789e-20)
(1.43375 -0.0770728 -7.43965e-20)
(1.50723 -0.0657573 -7.3421e-20)
(1.57269 -0.0545679 0)
(1.62994 -0.0438165 0)
(1.67931 -0.0337807 0)
(1.72132 -0.0247583 3.47947e-20)
(1.75633 -0.0167716 3.4328e-20)
(1.78569 -0.00970784 0)
(1.81024 -0.0036884 6.6799e-20)
(1.83064 0.00127031 6.58829e-20)
(1.84734 0.00533941 0)
(1.86088 0.0086491 6.40737e-20)
(1.87177 0.0112703 1.26356e-19)
(1.88047 0.0132594 -6.22916e-20)
(1.88735 0.0146597 -6.14091e-20)
(1.89269 0.0155189 0)
(1.89672 0.0159067 0)
(1.89964 0.0159016 0)
(1.9016 0.0155935 -5.79562e-20)
(1.90276 0.0150583 5.71083e-20)
(1.90326 0.0143512 1.12535e-19)
(1.90322 0.0135117 -5.54323e-20)
(1.90278 0.0125682 5.46031e-20)
(1.9021 0.0115431 5.37797e-20)
(1.90135 0.0104581 0)
(1.90071 0.00933711 0)
(1.90037 0.00820784 -5.13438e-20)
(1.9005 0.00709995 0)
(1.90124 0.00604206 0)
(1.90269 0.0050584 9.79132e-20)
(1.90493 0.00416642 0)
(1.90796 0.00337421 4.73914e-20)
(1.91178 0.00268187 -4.66164e-20)
(1.91632 0.00210022 0)
(1.92151 0.00161755 4.50815e-20)
(1.92721 0.00122362 0)
(1.93333 0.000911381 0)
(1.93975 0.000668305 -4.28152e-20)
(1.94635 0.000483761 8.41383e-20)
(1.95304 0.000350164 -4.13277e-20)
(1.95977 0.000258942 0)
(1.96643 0.000217756 0)
(1.97298 0.00023908 3.913e-20)
(1.97929 0.000333368 0)
(1.98535 0.000489758 3.76867e-20)
(1.99094 0.000727703 0)
(1.99616 0.00100884 0)
(2.00066 0.00140932 0)
(2.00465 0.00185925 3.48519e-20)
(2.00758 0.00255346 0)
(2.00981 0.00323519 -3.346e-20)
(2.01051 0.00445577 0)
(2.00998 0.00543114 0)
(2.00756 0.00772337 6.28085e-20)
(2.00206 0.00894082 -6.14569e-20)
(1.99588 0.0135823 0)
(1.97987 0.0145381 0)
(1.97176 0.0247234 0)
(1.92965 0.0232265 1.68487e-19)
(1.9321 0.0471039 0)
(1.8201 0.03806 -1.07193e-19)
(0.0900956 0.835812 -5.19575e-23)
(0.163981 0.925039 -1.14902e-19)
(0.26578 0.658938 0)
(0.31347 0.351896 1.13073e-19)
(0.381429 -0.0182406 0)
(0.530005 -0.510827 0)
(0.746136 -1.00174 8.66169e-24)
(0.980146 -1.35733 -5.47278e-20)
(1.20953 -1.55086 -5.42492e-20)
(1.42424 -1.60601 -5.39412e-20)
(1.62466 -1.56628 0)
(1.81438 -1.47229 0)
(1.99443 -1.35179 5.24127e-20)
(2.16473 -1.22014 1.03847e-19)
(2.32453 -1.08447 -1.02858e-19)
(2.4723 -0.947583 0)
(2.60617 -0.810394 -1.00881e-19)
(2.72423 -0.673071 5.01224e-20)
(2.82474 -0.535694 0)
(2.90631 -0.398191 -9.80411e-20)
(2.96763 -0.260927 -4.8724e-20)
(3.00789 -0.124182 9.63056e-20)
(3.02585 0.0112035 4.78803e-20)
(3.02139 0.143992 0)
(2.99413 0.273769 -9.391e-20)
(2.94458 0.398628 -9.31759e-20)
(2.87345 0.51677 0)
(2.7827 0.624138 -9.17939e-20)
(2.67514 0.717811 0)
(2.55369 0.794425 -9.04787e-20)
(2.42526 0.850204 -4.49985e-20)
(2.29254 0.888509 0)
(2.16495 0.901898 0)
(2.04075 0.896807 0)
(1.9243 0.861505 0)
(1.80269 0.767559 0)
(1.65373 0.658536 0)
(1.52514 0.527668 -8.50587e-20)
(1.39182 0.33252 1.26496e-19)
(1.26533 0.129581 0)
(1.20688 -0.0198411 0)
(1.17957 -0.143924 0)
(1.16103 -0.323658 7.47095e-23)
(1.22571 -0.450901 -8.06582e-20)
(1.3566 -0.484954 -1.59856e-19)
(1.37355 -0.706527 1.58381e-19)
(1.15654 -0.540164 7.84804e-20)
(0.555167 0.222852 -7.78464e-20)
(-0.278566 0.852171 2.52852e-23)
(-0.968021 1.2248 -7.6128e-20)
(-1.54802 1.44996 0)
(-2.01477 1.55387 -7.43353e-20)
(-2.37322 1.59754 2.23607e-22)
(-2.6512 1.57345 0)
(-2.86993 1.48377 0)
(-3.05955 1.36194 7.07796e-20)
(-3.23256 1.22844 0)
(-3.39738 1.09812 0)
(-3.55708 0.978364 -6.76399e-20)
(-3.71242 0.87189 -1.34015e-19)
(-3.86314 0.779032 6.63068e-20)
(-4.00852 0.698586 0)
(-4.14785 0.628795 -6.43592e-20)
(-4.28045 0.567656 0)
(-4.40579 0.513223 -6.2162e-20)
(-4.52331 0.463722 -6.15855e-20)
(-4.63247 0.417624 1.21144e-19)
(-4.73263 0.373671 5.96015e-20)
(-4.82313 0.330862 0)
(-4.90325 0.28845 -1.16285e-19)
(-4.97221 0.245948 0)
(-5.02924 0.203101 -1.7017e-19)
(-5.07362 0.159852 -1.12023e-19)
(-5.10475 0.116332 -1.10754e-19)
(-5.12211 0.0727692 1.09564e-19)
(-5.12533 0.0294557 -1.62779e-19)
(-5.11457 -0.0130906 0)
(-5.08986 -0.0546577 0)
(-5.05145 -0.0949395 1.05526e-19)
(-4.99988 -0.133517 1.57099e-19)
(-4.93566 -0.170428 0)
(-4.85923 -0.205764 -5.16399e-20)
(-4.77093 -0.239787 0)
(-4.67091 -0.272803 1.52749e-19)
(-4.55915 -0.30509 1.01952e-22)
(-4.43555 -0.336853 -9.96222e-23)
(-4.29991 -0.368196 -9.99757e-20)
(-4.15206 -0.399142 0)
(-3.99179 -0.429641 9.88612e-20)
(-3.8189 -0.459527 1.0854e-22)
(-3.63323 -0.488412 0)
(-3.43485 -0.515608 0)
(-3.22424 -0.540148 0)
(-3.00239 -0.560914 -9.63854e-20)
(-2.77095 -0.576843 0)
(-2.53211 -0.587177 0)
(-2.28833 -0.591655 0)
(-2.0421 -0.590434 0)
(-1.79572 -0.583936 0)
(-1.55113 -0.572841 -9.28323e-20)
(-1.30988 -0.557848 0)
(-1.0736 -0.539361 -9.14764e-20)
(-0.843899 -0.517635 -9.07104e-20)
(-0.622226 -0.49299 8.99092e-20)
(-0.410061 -0.465731 0)
(-0.209071 -0.436388 8.82079e-20)
(-0.0208606 -0.406187 0)
(0.152869 -0.376179 8.63575e-20)
(0.311522 -0.346738 -8.53784e-20)
(0.455871 -0.3183 -2.53126e-19)
(0.587422 -0.291816 0)
(0.708161 -0.267847 -2.47106e-19)
(0.820228 -0.246666 -8.13395e-20)
(0.925538 -0.228116 0)
(1.02562 -0.211616 -1.58677e-19)
(1.12146 -0.196318 -1.56671e-19)
(1.21349 -0.181319 2.32024e-19)
(1.30156 -0.165899 0)
(1.38514 -0.14968 7.5368e-20)
(1.46344 -0.132667 7.43867e-20)
(1.53562 -0.1152 2.20222e-19)
(1.60099 -0.0978126 0)
(1.65916 -0.0810782 0)
(1.71013 -0.065523 0)
(1.7543 -0.0514678 6.95773e-20)
(1.79228 -0.0391087 0)
(1.82482 -0.0285429 0)
(1.85278 -0.0196903 -6.67946e-20)
(1.87682 -0.0123878 -6.58789e-20)
(1.89763 -0.00645775 0)
(1.91573 -0.00174623 0)
(1.93153 0.00189515 -1.26348e-19)
(1.94545 0.00462698 0)
(1.95786 0.00658738 1.22811e-19)
(1.96911 0.00789171 1.21061e-19)
(1.97947 0.00866493 0)
(1.98918 0.00904624 0)
(1.99836 0.00915119 -1.15898e-19)
(2.00708 0.00905917 -9.60563e-25)
(2.01533 0.00882143 -7.09658e-25)
(2.02309 0.00846069 0)
(2.03031 0.00797395 -2.18382e-19)
(2.03699 0.00734745 0)
(2.04315 0.00656965 0)
(2.04888 0.00563934 0)
(2.05431 0.00456888 1.02671e-19)
(2.05964 0.00338293 0)
(2.06506 0.00211644 -1.98955e-19)
(2.07081 0.000810981 -9.78967e-20)
(2.07709 -0.000488297 0)
(2.08404 -0.00174591 -9.47664e-20)
(2.09179 -0.00291566 0)
(2.10037 -0.00397288 0)
(2.10978 -0.00488729 -2.70439e-19)
(2.11997 -0.0056345 1.77252e-19)
(2.13086 -0.00621202 0)
(2.14234 -0.00662848 1.71227e-19)
(2.15428 -0.00690015 -8.41217e-20)
(2.16655 -0.00704491 0)
(2.17904 -0.00708464 0)
(2.19164 -0.00702767 0)
(2.20426 -0.00687754 -2.3473e-19)
(2.21684 -0.00661906 0)
(2.2293 -0.00626476 -7.5357e-20)
(2.24162 -0.00578195 0)
(2.2537 -0.00521397 0)
(2.26556 -0.00445345 0)
(2.27701 -0.00361837 0)
(2.28817 -0.00243226 0)
(2.29855 -0.00125602 0)
(2.30868 0.000667006 -1.31043e-19)
(2.31726 0.00228811 0)
(2.32599 0.00564641 -6.27916e-20)
(2.33133 0.00775595 1.84312e-19)
(2.33852 0.0140479 0)
(2.33768 0.0163663 0)
(2.34431 0.0289483 -1.14876e-19)
(2.3309 0.0302832 -1.12281e-19)
(2.34112 0.0565225 1.09664e-19)
(2.30237 0.055329 1.07152e-19)
(0.0926766 0.30786 1.74102e-19)
(0.274568 0.442858 1.72718e-19)
(0.40101 0.334512 1.14349e-19)
(0.539157 0.110906 5.68664e-20)
(0.7869 -0.360394 0)
(1.08939 -0.952167 -1.11213e-19)
(1.35716 -1.45494 5.51338e-20)
(1.55203 -1.76591 0)
(1.69011 -1.89349 5.41436e-20)
(1.79997 -1.89348 0)
(1.90453 -1.82251 -1.06298e-19)
(2.0138 -1.7177 0)
(2.12775 -1.59623 -5.2372e-20)
(2.24305 -1.46387 -1.03785e-19)
(2.35608 -1.32249 1.02812e-19)
(2.46368 -1.17332 0)
(2.56342 -1.01764 1.00863e-19)
(2.6533 -0.856694 0)
(2.73173 -0.691467 0)
(2.79713 -0.522972 9.80533e-20)
(2.84839 -0.35219 0)
(2.88439 -0.180346 -3.37524e-22)
(2.90495 -0.00881421 0)
(2.90987 0.160619 0)
(2.89699 0.326555 2.99739e-22)
(2.86551 0.486894 9.31695e-20)
(2.81472 0.639516 9.21893e-20)
(2.74553 0.778593 9.17769e-20)
(2.65646 0.90062 0)
(2.55043 0.996395 1.80701e-19)
(2.42859 1.06333 0)
(2.29893 1.09624 8.90092e-20)
(2.17217 1.09616 0)
(2.04736 1.07269 0)
(1.94642 1.00887 -8.71008e-20)
(1.84381 0.946148 0)
(1.75388 0.82213 8.57784e-20)
(1.65579 0.66195 -9.93503e-23)
(1.54305 0.553244 -1.68748e-19)
(1.47705 0.281703 1.67533e-19)
(1.33237 -0.00839848 0)
(1.24527 -0.101909 0)
(1.3475 -0.27599 8.16769e-20)
(1.37854 -0.667052 0)
(1.15599 -0.579817 8.00088e-20)
(0.482479 0.26377 -7.93321e-20)
(-0.340381 0.955312 -7.85383e-20)
(-1.01072 1.40686 0)
(-1.56213 1.6996 7.67639e-20)
(-1.98704 1.8804 7.58839e-20)
(-2.30738 1.95485 -1.49671e-19)
(-2.53786 1.951 7.42043e-20)
(-2.70839 1.8932 7.33551e-20)
(-2.83986 1.7968 0)
(-2.95434 1.67404 0)
(-3.06567 1.54043 -7.07572e-20)
(-3.17993 1.40654 0)
(-3.29941 1.27853 0)
(-3.42308 1.16007 1.35928e-19)
(-3.54887 1.0523 1.3402e-19)
(-3.67459 0.955397 0)
(-3.79847 0.868625 0)
(-3.91913 0.790804 0)
(-4.03556 0.720434 0)
(-4.1469 0.655888 1.24682e-19)
(-4.25235 0.595558 -1.22562e-19)
(-4.35109 0.537965 -1.21185e-19)
(-4.44224 0.48183 -2.387e-19)
(-4.52487 0.426116 0)
(-4.59801 0.370054 3.05342e-22)
(-4.66067 0.31316 0)
(-4.71192 0.255233 1.13425e-19)
(-4.75083 0.19634 2.8969e-22)
(-4.77667 0.136755 1.10814e-19)
(-4.78904 0.0769709 -1.09627e-19)
(-4.78761 0.0175935 2.60567e-22)
(-4.77243 -0.0408818 0)
(-4.74387 -0.0975721 -1.06261e-19)
(-4.70241 -0.152015 -1.0558e-19)
(-4.6487 -0.203941 -2.09276e-19)
(-4.58348 -0.25332 0)
(-4.50734 -0.300409 1.03045e-19)
(-4.4207 -0.345653 0)
(-4.3237 -0.389565 -2.03541e-19)
(-4.2163 -0.432604 1.01202e-19)
(-4.0983 -0.475084 -1.00593e-19)
(-3.96949 -0.517162 1.00006e-19)
(-3.82965 -0.558885 1.9862e-19)
(-3.6785 -0.600237 -9.88839e-20)
(-3.51556 -0.641088 9.83456e-20)