/*--------------------------------*- C++ -*----------------------------------*\
  =========                 |
  \\      /  F ield         | OpenFOAM: The Open Source CFD Toolbox
   \\    /   O peration     | Website:  https://openfoam.org
    \\  /    A nd           | Version:  7
     \\/     M anipulation  |
\*---------------------------------------------------------------------------*/
FoamFile
{
    version     2.0;
    format      ascii;
    class       volVectorField;
    location    "0.067";
    object      U_0;
}
// * * * * * * * * * * * * * * * * * * * * * * * * * * * * * * * * * * * * * //

dimensions      [0 1 -1 0 0 0 0];

internalField   nonuniform List<vector> 
12225
(
(4.70234 0.17596 0)
(4.03189 0.111365 0)
(3.59811 0.0889138 0)
(3.27834 0.0763218 0)
(2.973 0.0714986 0)
(2.67243 0.0656345 0)
(2.38002 0.0589775 0)
(2.09666 0.0521943 0)
(1.83132 0.0433275 0)
(1.59879 0.0320558 0)
(1.40468 0.0216624 0)
(1.24762 0.0144083 0)
(1.11775 0.0102598 0)
(1.01493 0.00781051 0)
(0.921136 0.00660127 0)
(0.846382 0.00619601 0)
(0.755826 0.00877853 0)
(0.659971 0.00924546 0)
(4.936 0.115369 0)
(4.87957 0.0686456 0)
(4.80478 0.0831661 0)
(4.69821 0.0791125 0)
(4.57274 0.077624 0)
(4.44697 0.0801619 0)
(4.32353 0.0858768 0)
(4.20248 0.0918698 0)
(4.08312 0.0944781 0)
(3.96266 0.0922874 0)
(3.83264 0.0855813 0)
(3.69837 0.076371 0)
(3.56554 0.066665 0)
(3.45194 0.0585676 0)
(3.34937 0.05533 0)
(3.26008 0.0562539 0)
(3.1589 0.0678335 0)
(3.03532 0.0774589 0)
(5.0123 0.153361 0)
(4.85412 0.0894208 0)
(4.80526 0.119219 0)
(4.80839 0.130907 0)
(4.80626 0.132453 0)
(4.77856 0.130555 0)
(4.73296 0.12658 0)
(4.6904 0.121533 0)
(4.66294 0.116384 0)
(4.6452 0.11321 0)
(4.62289 0.11174 0)
(4.58696 0.108996 0)
(4.53945 0.101919 0)
(4.48621 0.0914401 0)
(4.43664 0.0833143 0)
(4.38736 0.0815244 0)
(4.34764 0.0938575 0)
(4.29483 0.117908 0)
(5.05543 0.173583 0)
(4.86526 0.104773 0)
(4.77484 0.0929519 0)
(4.75609 0.0933372 0)
(4.7701 0.0999114 0)
(4.77611 0.108906 0)
(4.76386 0.114619 0)
(4.74788 0.114456 0)
(4.74236 0.110002 0)
(4.74834 0.105832 0)
(4.7592 0.104654 0)
(4.76644 0.103941 0)
(4.76703 0.100536 0)
(4.75867 0.0940386 0)
(4.74642 0.0896632 0)
(4.73019 0.0914464 0)
(4.71938 0.105189 0)
(4.70958 0.129883 0)
(5.12539 0.203831 0)
(5.05162 0.133772 0)
(4.93934 0.127839 0)
(4.86042 0.124685 0)
(4.81258 0.122762 0)
(4.78344 0.126849 0)
(4.76657 0.12929 0)
(4.76145 0.123281 0)
(4.76722 0.111783 0)
(4.77961 0.103038 0)
(4.79348 0.101334 0)
(4.80372 0.103517 0)
(4.80751 0.104361 0)
(4.80407 0.101478 0)
(4.79702 0.0980771 0)
(4.79035 0.0985884 0)
(4.78933 0.107416 0)
(4.79671 0.127288 0)
(4.93644 0.199854 0)
(4.94367 0.144842 0)
(4.8932 0.135544 0)
(4.83059 0.135927 0)
(4.78696 0.136192 0)
(4.77406 0.133469 0)
(4.78602 0.126972 0)
(4.80305 0.116646 0)
(4.8081 0.105592 0)
(4.79881 0.0989204 0)
(4.78435 0.0986041 0)
(4.77391 0.101444 0)
(4.77182 0.102654 0)
(4.77726 0.100282 0)
(4.78851 0.0966978 0)
(4.8029 0.0964786 0)
(4.82054 0.103068 0)
(4.84006 0.119532 0)
(5.0252 0.174817 0)
(4.95256 0.1447 0)
(4.87477 0.158039 0)
(4.82236 0.154466 0)
(4.80936 0.139806 0)
(4.82231 0.124558 0)
(4.84204 0.115422 0)
(4.85469 0.112578 0)
(4.85484 0.1128 0)
(4.84593 0.113408 0)
(4.83631 0.112706 0)
(4.8328 0.109167 0)
(4.83781 0.101909 0)
(4.84889 0.0921933 0)
(4.86308 0.0836685 0)
(4.87811 0.0808852 0)
(4.8949 0.0861853 0)
(4.91434 0.101155 0)
(4.92001 0.219325 0)
(4.90248 0.168241 0)
(4.91573 0.156471 0)
(4.91363 0.148737 0)
(4.89782 0.138548 0)
(4.87526 0.126565 0)
(4.85647 0.11662 0)
(4.84861 0.109909 0)
(4.85333 0.105846 0)
(4.86839 0.1037 0)
(4.88875 0.10224 0)
(4.90843 0.0998629 0)
(4.92208 0.0952604 0)
(4.92732 0.0890998 0)
(4.92448 0.0833408 0)
(4.91891 0.0813326 0)
(4.91451 0.0841852 0)
(4.91898 0.0937446 0)
(5.02163 0.188138 0)
(4.93908 0.157631 0)
(4.90187 0.160917 0)
(4.91283 0.162129 0)
(4.94225 0.15501 0)
(4.95651 0.142428 0)
(4.94732 0.128751 0)
(4.92385 0.116569 0)
(4.90125 0.107112 0)
(4.89027 0.100767 0)
(4.89261 0.0970795 0)
(4.90321 0.0951377 0)
(4.91563 0.0932348 0)
(4.92474 0.090859 0)
(4.92892 0.0879068 0)
(4.92902 0.0862832 0)
(4.92846 0.0862375 0)
(4.9306 0.089332 0)
(4.95316 0.18852 0)
(4.8916 0.183804 0)
(4.8676 0.152357 0)
(4.89337 0.125161 0)
(4.93377 0.118773 0)
(4.95011 0.125968 0)
(4.93689 0.132281 0)
(4.91191 0.129166 0)
(4.89422 0.117523 0)
(4.89121 0.10333 0)
(4.89961 0.0918916 0)
(4.91203 0.0853641 0)
(4.92327 0.0826447 0)
(4.93056 0.0820317 0)
(4.936 0.0819468 0)
(4.94067 0.0828031 0)
(4.94965 0.0836479 0)
(4.96243 0.0851427 0)
(4.99307 0.216462 0)
(4.97596 0.192219 0)
(4.96388 0.164931 0)
(4.953 0.134192 0)
(4.94493 0.128234 0)
(4.94531 0.140158 0)
(4.95856 0.147869 0)
(4.97913 0.139923 0)
(4.99389 0.12084 0)
(4.99212 0.1014 0)
(4.97374 0.0886395 0)
(4.94762 0.083473 0)
(4.92487 0.0826302 0)
(4.91229 0.0823365 0)
(4.91344 0.0800773 0)
(4.92692 0.0759498 0)
(4.95142 0.0695424 0)
(4.98278 0.063257 0)
(5.01555 0.188329 0)
(4.98037 0.195982 0)
(4.98858 0.158519 0)
(4.97867 0.130089 0)
(4.96718 0.123931 0)
(4.97036 0.124568 0)
(4.98751 0.120455 0)
(5.00942 0.113157 0)
(5.02568 0.109836 0)
(5.02921 0.112396 0)
(5.01977 0.116002 0)
(5.00217 0.114744 0)
(4.9835 0.106008 0)
(4.96841 0.0911644 0)
(4.9608 0.0733541 0)
(4.96168 0.0567741 0)
(4.97208 0.0422786 0)
(4.99036 0.0325935 0)
(4.93954 0.206156 0)
(4.93956 0.200189 0)
(4.93974 0.167308 0)
(4.92175 0.136583 0)
(4.91129 0.124779 0)
(4.91336 0.124533 0)
(4.9234 0.123541 0)
(4.93721 0.116743 0)
(4.95255 0.108171 0)
(4.96706 0.10314 0)
(4.97923 0.102643 0)
(4.98876 0.103599 0)
(4.99651 0.10199 0)
(5.00328 0.0954768 0)
(5.01053 0.0830799 0)
(5.01907 0.0668142 0)
(5.03046 0.0474307 0)
(5.04367 0.0283448 0)
(4.95577 0.277537 0)
(4.95939 0.211933 0)
(4.99387 0.163508 0)
(4.99202 0.141125 0)
(4.96582 0.131547 0)
(4.94809 0.123873 0)
(4.95067 0.111881 0)
(4.96442 0.100161 0)
(4.97868 0.0961667 0)
(4.99006 0.100498 0)
(5.00059 0.106803 0)
(5.01252 0.10751 0)
(5.02523 0.0987323 0)
(5.03671 0.0816906 0)
(5.0454 0.06008 0)
(5.05185 0.0385989 0)
(5.05713 0.0190107 0)
(5.06347 0.00286929 0)
(4.92427 0.245682 0)
(4.98717 0.169413 0)
(4.98383 0.151338 0)
(4.94818 0.158315 0)
(4.92017 0.151941 0)
(4.91903 0.130108 0)
(4.92996 0.106988 0)
(4.93529 0.0912818 0)
(4.93406 0.0825724 0)
(4.93571 0.0776299 0)
(4.94775 0.0752124 0)
(4.96912 0.0751504 0)
(4.99308 0.0761318 0)
(5.01245 0.0757441 0)
(5.02466 0.0703338 0)
(5.03067 0.0585981 0)
(5.03436 0.0394048 0)
(5.03816 0.0154922 0)
(5.02145 0.2961 0)
(5.0147 0.197595 0)
(5.0122 0.182167 0)
(5.02331 0.174875 0)
(5.0416 0.144327 0)
(5.05305 0.113276 0)
(5.05497 0.102385 0)
(5.05217 0.10601 0)
(5.04779 0.107653 0)
(5.04268 0.0990618 0)
(5.03845 0.0835089 0)
(5.03685 0.0678921 0)
(5.03879 0.0555638 0)
(5.044 0.0457849 0)
(5.05173 0.0350778 0)
(5.06049 0.0214015 0)
(5.06947 0.00360964 0)
(5.07666 -0.016905 0)
(5.00983 0.258104 0)
(4.98635 0.17624 0)
(4.98343 0.140684 0)
(4.98689 0.138335 0)
(4.98541 0.136912 0)
(4.97303 0.125128 0)
(4.96261 0.107161 0)
(4.96363 0.0913056 0)
(4.9731 0.0815679 0)
(4.98457 0.0768916 0)
(4.99456 0.0744793 0)
(5.00229 0.0721808 0)
(5.00843 0.0684056 0)
(5.01422 0.0621964 0)
(5.02084 0.052156 0)
(5.02795 0.0381101 0)
(5.03509 0.0197949 0)
(5.04107 -0.0015806 0)
(5.05558 0.214589 0)
(5.01303 0.201213 0)
(5.01811 0.177133 0)
(5.02744 0.161164 0)
(5.03823 0.146362 0)
(5.04476 0.129104 0)
(5.03965 0.113286 0)
(5.02726 0.100313 0)
(5.01464 0.0884532 0)
(5.00637 0.0759644 0)
(5.00483 0.062523 0)
(5.00912 0.0485859 0)
(5.01683 0.034497 0)
(5.02528 0.0202556 0)
(5.03397 0.00518495 0)
(5.04192 -0.010805 0)
(5.05004 -0.0280173 0)
(5.05604 -0.045434 0)
(5.09051 0.234973 0)
(5.09975 0.224226 0)
(5.105 0.173252 0)
(5.10898 0.136151 0)
(5.10711 0.128462 0)
(5.10054 0.135889 0)
(5.09525 0.141462 0)
(5.09402 0.134119 0)
(5.09743 0.113474 0)
(5.10451 0.0873391 0)
(5.11354 0.0640332 0)
(5.12232 0.047366 0)
(5.12955 0.0364823 0)
(5.13482 0.0284957 0)
(5.13883 0.0197329 0)
(5.14092 0.00828109 0)
(5.14223 -0.00674799 0)
(5.14134 -0.0247823 0)
(4.95032 0.220808 0)
(5.02577 0.16316 0)
(5.04037 0.152907 0)
(5.0578 0.137149 0)
(5.06538 0.13042 0)
(5.07105 0.131115 0)
(5.07927 0.123363 0)
(5.08741 0.102572 0)
(5.09611 0.0759847 0)
(5.10796 0.0523008 0)
(5.12324 0.0351524 0)
(5.14017 0.0234726 0)
(5.15673 0.0141719 0)
(5.17135 0.00489715 0)
(5.18407 -0.00516247 0)
(5.19413 -0.0162417 0)
(5.20189 -0.0273849 0)
(5.20523 -0.0385881 0)
(5.14101 0.248895 0)
(5.12841 0.185048 0)
(5.08234 0.153476 0)
(5.0562 0.135889 0)
(5.05826 0.128197 0)
(5.08442 0.128645 0)
(5.11664 0.122542 0)
(5.14054 0.100908 0)
(5.15344 0.0674473 0)
(5.1603 0.0319037 0)
(5.16671 0.00307526 0)
(5.1748 -0.0150523 0)
(5.18435 -0.0234466 0)
(5.19373 -0.0266107 0)
(5.20186 -0.0284305 0)
(5.20775 -0.0310268 0)
(5.21216 -0.0347675 0)
(5.21461 -0.0381084 0)
(5.06682 0.292636 0)
(5.08954 0.232868 0)
(5.09219 0.189415 0)
(5.09433 0.131927 0)
(5.113 0.0823653 0)
(5.14878 0.0621367 0)
(5.19208 0.0638149 0)
(5.23375 0.0671248 0)
(5.26579 0.0594821 0)
(5.28368 0.0410014 0)
(5.28862 0.0184228 0)
(5.28514 -0.0010243 0)
(5.27765 -0.0142154 0)
(5.26923 -0.0217923 0)
(5.26223 -0.0267569 0)
(5.25701 -0.0312612 0)
(5.25372 -0.0364594 0)
(5.25142 -0.0420152 0)
(5.04141 0.249449 0)
(5.10428 0.206076 0)
(5.15453 0.184643 0)
(5.19066 0.136249 0)
(5.20577 0.0878798 0)
(5.20589 0.0509257 0)
(5.2072 0.0262238 0)
(5.21909 0.0119597 0)
(5.24009 0.00419925 0)
(5.26341 -6.21008e-05 0)
(5.28376 -0.00165226 0)
(5.29859 -0.00289589 0)
(5.30744 -0.00532246 0)
(5.3107 -0.00951017 0)
(5.30984 -0.0155166 0)
(5.30655 -0.0227245 0)
(5.30276 -0.0304269 0)
(5.29863 -0.037117 0)
(4.96957 0.258162 0)
(4.96896 0.169946 0)
(5.04408 0.123763 0)
(5.12417 0.0974579 0)
(5.18353 0.0812596 0)
(5.20882 0.0688355 0)
(5.21075 0.0556611 0)
(5.20417 0.0391056 0)
(5.19911 0.019657 0)
(5.20103 0.0002184 0)
(5.20932 -0.0148832 0)
(5.22065 -0.0224758 0)
(5.23392 -0.023087 0)
(5.24821 -0.0203871 0)
(5.26347 -0.0181504 0)
(5.27877 -0.0184914 0)
(5.29439 -0.0222432 0)
(5.30907 -0.0279382 0)
(5.03318 0.226324 0)
(5.06363 0.144277 0)
(5.08275 0.066404 0)
(5.13333 0.0335562 0)
(5.19975 0.0233975 0)
(5.25611 0.0205971 0)
(5.29822 0.0185996 0)
(5.32951 0.0127094 0)
(5.35074 0.00181516 0)
(5.36001 -0.011041 0)
(5.35832 -0.0229611 0)
(5.34932 -0.031624 0)
(5.33772 -0.0376789 0)
(5.32854 -0.0433418 0)
(5.32591 -0.0502809 0)
(5.33074 -0.0582945 0)
(5.34254 -0.0664793 0)
(5.3586 -0.0722909 0)
(4.99776 0.228393 0)
(5.03916 0.179486 0)
(5.11964 0.111938 0)
(5.20265 0.0532531 0)
(5.25913 0.0184668 0)
(5.28905 0.00955485 0)
(5.31146 0.0113536 0)
(5.33706 0.0100319 0)
(5.36431 0.00341423 0)
(5.38861 -0.00276319 0)
(5.40813 -0.00439611 0)
(5.42411 -0.00351962 0)
(5.43865 -0.0041693 0)
(5.45262 -0.00943508 0)
(5.46528 -0.020259 0)
(5.47478 -0.0346955 0)
(5.48039 -0.0503442 0)
(5.48051 -0.0634656 0)
(4.91681 0.165223 0)
(5.09782 0.0513506 0)
(5.25485 -0.0143333 0)
(5.31377 -0.0312772 0)
(5.31848 -0.0279117 0)
(5.32294 -0.0204679 0)
(5.34335 -0.0172199 0)
(5.37261 -0.0219173 0)
(5.4013 -0.0316617 0)
(5.42601 -0.0412924 0)
(5.4487 -0.0481792 0)
(5.47283 -0.0529029 0)
(5.49981 -0.0572352 0)
(5.52802 -0.0621651 0)
(5.55455 -0.0671633 0)
(5.57598 -0.0712454 0)
(5.59118 -0.0734193 0)
(5.59818 -0.0735205 0)
(5.03993 0.210217 0)
(5.20004 0.0922503 0)
(5.33172 0.0470991 0)
(5.38446 0.023564 0)
(5.41232 0.00552331 0)
(5.45331 -0.00646314 0)
(5.50601 -0.01279 0)
(5.55325 -0.017295 0)
(5.58499 -0.0221079 0)
(5.6026 -0.0270904 0)
(5.61279 -0.0315703 0)
(5.62091 -0.0359779 0)
(5.62827 -0.0411794 0)
(5.63319 -0.0477358 0)
(5.63355 -0.0550068 0)
(5.62931 -0.0615685 0)
(5.62181 -0.0659211 0)
(5.61411 -0.0669829 0)
(5.05566 0.0677997 0)
(5.31472 -0.0377175 0)
(5.43351 -0.0521418 0)
(5.46962 -0.0634559 0)
(5.4842 -0.067471 0)
(5.50175 -0.0663527 0)
(5.524 -0.0637585 0)
(5.54466 -0.0606586 0)
(5.5586 -0.0584185 0)
(5.56328 -0.0585604 0)
(5.55792 -0.0607756 0)
(5.54358 -0.0633216 0)
(5.52202 -0.0646628 0)
(5.49596 -0.0646369 0)
(5.46726 -0.064174 0)
(5.439 -0.0642927 0)
(5.41114 -0.0654209 0)
(5.38627 -0.0675048 0)
(4.92497 0.098721 0)
(5.16593 0.0225988 0)
(5.15419 0.010387 0)
(5.01667 -0.00472336 0)
(4.86813 -0.0153918 0)
(4.73063 -0.0222022 0)
(4.59649 -0.0272931 0)
(4.46474 -0.0296279 0)
(4.34082 -0.0286273 0)
(4.22687 -0.0255052 0)
(4.12064 -0.0220724 0)
(4.01988 -0.0200129 0)
(3.92283 -0.0203876 0)
(3.82823 -0.023231 0)
(3.73318 -0.027478 0)
(3.63745 -0.0316329 0)
(3.53933 -0.0343104 0)
(3.44298 -0.0346139 0)
(-0.134961 0.340017 2.88768e-20)
(-0.431624 0.352204 -2.8632e-20)
(-0.688933 0.284794 0)
(-0.868975 0.188332 0)
(-0.942212 0.0685853 0)
(-0.89856 -0.0588415 2.77203e-20)
(-0.756764 -0.174909 0)
(-0.51662 -0.270335 0)
(-0.213682 -0.322227 0)
(0.126653 -0.345771 0)
(0.479635 -0.348422 -2.68721e-20)
(0.825203 -0.334347 0)
(1.15343 -0.309111 0)
(1.45589 -0.27746 0)
(1.72868 -0.243138 0)
(1.97003 -0.207965 -2.55935e-20)
(2.17899 -0.17278 0)
(2.35534 -0.137778 0)
(2.49821 -0.103087 0)
(2.60841 -0.0685906 0)
(2.6838 -0.0340842 0)
(2.7257 0.000638615 0)
(2.73178 0.0360112 0)
(2.69873 0.0732843 -2.37184e-20)
(2.6278 0.110841 2.35294e-20)
(2.51986 0.14754 -2.33501e-20)
(2.3749 0.180996 -2.31788e-20)
(2.19671 0.211438 0)
(1.98479 0.237212 0)
(1.7508 0.256932 2.26906e-20)
(1.48704 0.278358 2.25281e-20)
(1.21254 0.281213 0)
(0.918384 0.320911 0)
(0.57565 0.306022 2.20087e-20)
(0.291924 0.107426 0)
(0.104788 -0.0627959 0)
(-0.0201511 -0.100967 -2.14406e-20)
(-0.0966626 -0.0829497 0)
(-0.125894 -0.0652409 -2.10559e-20)
(-0.11245 -0.0679471 -4.17408e-20)
(-0.0686129 -0.0846882 0)
(0.0049097 -0.105592 0)
(0.119464 -0.112216 0)
(0.261084 -0.0717805 0)
(0.387043 0.00184523 0)
(0.456588 0.0437789 -3.95526e-20)
(0.506593 0.0511917 -3.91684e-20)
(0.63014 0.0405631 -3.87717e-20)
(0.811635 -0.0397095 0)
(0.968747 -0.283097 3.80361e-20)
(1.03136 -0.509699 0)
(0.998962 -0.421344 -3.72626e-20)
(0.79472 -0.0200193 -3.69125e-20)
(0.290535 0.363339 0)
(-0.309114 0.452376 0)
(-0.863659 0.431907 0)
(-1.37733 0.397152 -3.53206e-20)
(-1.84193 0.356553 0)
(-2.25828 0.316168 0)
(-2.62971 0.278829 0)
(-2.96114 0.245779 0)
(-3.25755 0.217237 0)
(-3.52364 0.192979 0)
(-3.76353 0.172383 0)
(-3.98054 0.154716 0)
(-4.1773 0.139328 3.07598e-20)
(-4.35575 0.125642 0)
(-4.51721 0.113132 0)
(-4.66249 0.101369 -2.94673e-20)
(-4.79194 0.0900661 -2.90701e-20)
(-4.90567 0.0790272 0)
(-5.00352 0.0680919 2.833e-20)
(-5.08523 0.0571801 -2.79881e-20)
(-5.15053 0.0463408 0)
(-5.19918 0.03571 2.73623e-20)
(-5.23104 0.0253526 0)
(-5.24614 0.0152926 0)
(-5.24435 0.00590073 -2.65655e-20)
(-5.22806 -0.00275181 0)
(-5.19659 -0.0110608 2.61191e-20)
(-5.15072 -0.0189218 0)
(-5.09072 -0.0264729 -2.57297e-20)
(-5.01685 -0.0337643 -2.55528e-20)
(-4.9293 -0.0408511 -2.53857e-20)
(-4.82811 -0.047797 -5.04546e-20)
(-4.71325 -0.0546407 5.01526e-20)
(-4.58464 -0.0614015 0)
(-4.44217 -0.0680771 0)
(-4.28578 -0.0746425 0)
(-4.11546 -0.0810432 4.90548e-20)
(-3.93141 -0.0871843 4.8799e-20)
(-3.73405 -0.0929244 -4.85467e-20)
(-3.52416 -0.0980838 0)
(-3.30297 -0.102463 4.80414e-20)
(-3.07214 -0.105873 4.77819e-20)
(-2.83369 -0.10818 4.75135e-20)
(-2.58989 -0.109331 0)
(-2.3431 -0.109339 0)
(-2.09558 -0.108268 0)
(-1.84932 -0.106229 4.62958e-20)
(-1.60604 -0.103342 0)
(-1.36744 -0.0996933 0)
(-1.13518 -0.0953592 -4.51964e-20)
(-0.910813 -0.0904092 0)
(-0.695801 -0.0849169 0)
(-0.491351 -0.0790037 -4.39399e-20)
(-0.298461 -0.0726952 0)
(-0.117523 -0.0661421 0)
(0.0498139 -0.060336 4.25508e-20)
(0.203955 -0.0541832 4.20553e-20)
(0.346564 -0.0484609 0)
(0.477775 -0.0431805 -4.1049e-20)
(0.598598 -0.0383846 0)
(0.710021 -0.0340301 4.00386e-20)
(0.812882 -0.0299961 0)
(0.90771 -0.0261291 3.90328e-20)
(0.994656 -0.022279 3.85335e-20)
(1.07349 -0.0183368 0)
(1.14376 -0.0142936 0)
(1.20497 -0.0101932 0)
(1.2567 -0.00612366 0)
(1.29881 -0.00227515 0)
(1.33153 0.00127588 0)
(1.3552 0.00445941 0)
(1.37069 0.00707274 3.46588e-20)
(1.37899 0.00933755 -3.41912e-20)
(1.38033 0.0114939 0)
(1.37576 0.0133034 0)
(1.36632 0.0146044 0)
(1.35283 0.0154688 0)
(1.33612 0.0159632 -6.38191e-20)
(1.31694 0.0160972 0)
(1.29597 0.015877 6.20445e-20)
(1.27384 0.0153505 -6.11674e-20)
(1.25117 0.0145811 0)
(1.22846 0.0136356 0)
(1.20615 0.0125914 0)
(1.18456 0.0115237 5.77248e-20)
(1.16389 0.0104851 5.68799e-20)
(1.1443 0.00950435 0)
(1.12586 0.00859312 5.52082e-20)
(1.10863 0.00775323 5.43811e-20)
(1.09266 0.00698403 -5.35597e-20)
(1.07797 0.00628585 0)
(1.06455 0.00565927 0)
(1.05241 0.00510281 -5.1129e-20)
(1.04149 0.0046118 0)
(1.03173 0.00417879 0)
(1.02308 0.00379459 0)
(1.01542 0.00344954 0)
(1.00869 0.00313481 4.71847e-20)
(1.00278 0.00284341 4.64112e-20)
(0.997594 0.00257137 0)
(0.993053 0.00232168 4.48792e-20)
(0.98906 0.00209701 0)
(0.985531 0.0018991 0)
(0.982377 0.00172949 4.26173e-20)
(0.979533 0.00158669 0)
(0.976915 0.00147047 4.11326e-20)
(0.974485 0.00137554 0)
(0.972153 0.00129403 0)
(0.969907 0.00122022 3.8939e-20)
(0.967595 0.00116618 0)
(0.965254 0.00113983 3.74984e-20)
(0.962608 0.00115881 0)
(0.95982 0.00121437 0)
(0.956365 0.00132658 0)
(0.952679 0.00147661 -3.4668e-20)
(0.947718 0.00171748 0)
(0.942447 0.00200642 3.32783e-20)
(0.934896 0.0024649 0)
(0.926842 0.00295839 0)
(0.915088 0.00382002 0)
(0.90169 0.00456319 0)
(0.883999 0.00632218 0)
(0.858362 0.00710655 0)
(0.836514 0.0114135 0)
(0.775349 0.0103444 -5.58172e-20)
(0.772121 0.0237003 0)
(0.597558 0.011882 0)
(-0.0357015 0.799683 -8.65494e-20)
(-0.19794 0.753732 8.58555e-20)
(-0.304165 0.577821 0)
(-0.369825 0.323253 -5.62804e-20)
(-0.373213 0.0220253 0)
(-0.300723 -0.318928 -2.77631e-20)
(-0.139392 -0.643401 5.50687e-20)
(0.10976 -0.889153 5.47113e-20)
(0.417235 -1.03303 0)
(0.727862 -1.08453 5.39017e-20)
(1.03529 -1.07085 2.68037e-20)
(1.33184 -1.01466 0)
(1.6089 -0.934493 0)
(1.86275 -0.842614 0)
(2.09247 -0.746135 0)
(2.2975 -0.64871 2.55564e-20)
(2.47744 -0.551921 0)
(2.63142 -0.45617 -4.9973e-20)
(2.75957 -0.36144 0)
(2.86023 -0.267543 0)
(2.93463 -0.174097 4.85608e-20)
(2.98087 -0.0811688 0)
(3.00063 0.0114126 -4.7711e-20)
(2.99609 0.103767 2.36984e-20)
(2.96499 0.194564 -2.35054e-20)
(2.90781 0.282311 2.33215e-20)
(2.82506 0.36446 2.31451e-20)
(2.71836 0.439269 0)
(2.58768 0.50541 0)
(2.4373 0.559022 -2.26406e-20)
(2.2684 0.606551 2.23997e-20)
(2.0896 0.636949 0)
(1.90382 0.664572 0)
(1.71414 0.681098 -2.19357e-20)
(1.536 0.639692 0)
(1.32442 0.550465 0)
(1.06381 0.408782 2.13809e-20)
(0.829412 0.244405 0)
(0.681207 0.0910163 -2.10405e-20)
(0.592051 -0.0319728 4.16923e-20)
(0.549436 -0.110915 0)
(0.547592 -0.187406 0)
(0.596027 -0.28185 8.1218e-20)
(0.69495 -0.333622 8.04853e-20)
(0.825033 -0.308731 7.97425e-20)
(1.02012 -0.231613 -3.94584e-20)
(1.27156 -0.242206 3.91017e-20)
(1.38815 -0.508544 1.16176e-19)
(1.23999 -0.526907 -7.67255e-20)
(0.837815 -0.0336689 -3.80663e-20)
(0.109916 0.495716 0)
(-0.650988 0.817662 3.73039e-20)
(-1.2559 1.02021 -3.67503e-20)
(-1.76669 1.10819 0)
(-2.19865 1.07505 0)
(-2.57836 0.997078 0)
(-2.91687 0.901071 3.51843e-20)
(-3.2175 0.803046 0)
(-3.48527 0.710706 -6.80689e-20)
(-3.72435 0.627749 0)
(-3.93907 0.555236 -6.60632e-20)
(-4.13291 0.492766 0)
(-4.30874 0.439178 6.41056e-20)
(-4.46876 0.392948 0)
(-4.61461 0.352555 -6.22293e-20)
(-4.74746 0.316606 3.06078e-20)
(-4.868 0.283863 0)
(-4.97661 0.253272 5.96069e-20)
(-5.07339 0.224008 2.94409e-20)
(-5.15828 0.195471 2.90474e-20)
(-5.23101 0.167239 0)
(-5.29127 0.139046 2.82333e-20)
(-5.33875 0.110786 2.79744e-20)
(-5.37312 0.0825195 0)
(-5.3941 0.0544098 -2.73534e-20)
(-5.40156 0.0266862 5.40763e-20)
(-5.39556 -0.000363474 0)
(-5.37654 -0.0264982 2.656e-20)
(-5.34263 -0.0514782 0)
(-5.29512 -0.0754122 -7.82938e-20)
(-5.2339 -0.0982686 0)
(-5.1594 -0.120192 7.71345e-20)
(-5.07188 -0.141339 2.5548e-20)
(-4.97149 -0.161879 -2.53462e-20)
(-4.85829 -0.181979 -5.03786e-20)
(-4.73223 -0.201752 5.00782e-20)
(-4.59321 -0.221255 0)
(-4.44111 -0.24049 0)
(-4.27584 -0.259399 0)
(-4.09733 -0.277847 -1.47065e-19)
(-3.90569 -0.295569 -4.87888e-20)
(-3.70124 -0.31215 4.85362e-20)
(-3.48467 -0.327041 0)
(-3.25716 -0.339629 4.7964e-20)
(-3.02033 -0.349338 -4.7771e-20)
(-2.77626 -0.355767 -4.75027e-20)
(-2.52727 -0.358771 0)
(-2.27572 -0.358421 0)
(-2.02387 -0.354939 0)
(-1.77368 -0.348691 -4.62867e-20)
(-1.52677 -0.340058 0)
(-1.28477 -0.329301 9.11155e-20)
(-1.04925 -0.316621 1.35542e-19)
(-0.821733 -0.302233 -8.95529e-20)
(-0.603634 -0.286388 0)
(-0.396134 -0.269336 -4.39195e-20)
(-0.200222 -0.251292 0)
(-0.0167846 -0.233117 -8.60357e-20)
(0.153522 -0.215622 4.25288e-20)
(0.311768 -0.19799 4.20329e-20)
(0.458991 -0.181447 0)
(0.595923 -0.166296 1.23105e-19)
(0.723731 -0.15271 -8.10569e-20)
(0.843609 -0.140602 -4.00281e-20)
(0.956595 -0.129641 0)
(1.06341 -0.119348 -3.90224e-20)
(1.16433 -0.109223 -1.15562e-19)
(1.25918 -0.0988779 0)
(1.34751 -0.0881325 -7.50599e-20)
(1.42867 -0.0770061 -7.40801e-20)
(1.50211 -0.0656833 -7.31072e-20)
(1.5675 -0.0544915 0)
(1.62469 -0.0437424 0)
(1.67401 -0.0337132 0)
(1.71595 -0.0247003 3.46428e-20)
(1.75092 -0.0167236 3.41773e-20)
(1.78024 -0.00967018 0)
(1.80476 -0.00366124 6.65025e-20)
(1.82513 0.00128858 6.55888e-20)
(1.84182 0.00535064 0)
(1.85535 0.0086546 6.37843e-20)
(1.86623 0.011271 1.25781e-19)
(1.87493 0.0132563 -6.20067e-20)
(1.88181 0.0146531 -6.11265e-20)
(1.88716 0.0155097 0)
(1.89119 0.0158957 0)
(1.89411 0.0158895 0)
(1.89608 0.015581 -5.76826e-20)
(1.89724 0.0150459 5.68368e-20)
(1.89774 0.014339 1.11996e-19)
(1.89771 0.0134998 -5.51653e-20)
(1.89727 0.0125567 5.43382e-20)
(1.8966 0.0115319 5.35171e-20)
(1.89585 0.0104472 0)
(1.89523 0.00932651 0)
(1.8949 0.00819763 -5.10876e-20)
(1.89504 0.00709026 0)
(1.89579 0.00603298 0)
(1.89725 0.00505006 9.74135e-20)
(1.8995 0.00415891 0)
(1.90255 0.00336747 4.71458e-20)
(1.90638 0.00267594 -4.63728e-20)
(1.91093 0.0020953 0)
(1.91612 0.00161338 4.48419e-20)
(1.92184 0.00122013 0)
(1.92797 0.000908483 0)
(1.93438 0.00066587 -4.25817e-20)
(1.94099 0.000481677 8.36751e-20)
(1.94769 0.000348325 -4.10981e-20)
(1.95441 0.000257291 0)
(1.96108 0.000216336 0)
(1.96763 0.000237927 3.8906e-20)
(1.97394 0.000332414 0)
(1.98 0.0004889 3.74665e-20)
(1.9856 0.000726787 0)
(1.99081 0.00100775 0)
(1.99531 0.00140801 0)
(1.99931 0.00185766 3.46388e-20)
(2.00223 0.00255148 0)
(2.00446 0.00323269 -3.32502e-20)
(2.00516 0.00445258 0)
(2.00463 0.00542703 0)
(2.00222 0.00771795 6.2398e-20)
(1.99673 0.0089336 -6.10491e-20)
(1.99055 0.0135724 0)
(1.97456 0.0145242 0)
(1.96647 0.0247028 0)
(1.92439 0.0231944 1.67288e-19)
(1.9269 0.0470465 0)
(1.81499 0.0379347 -1.06397e-19)
(0.0898287 0.83703 -5.17562e-23)
(0.163478 0.925811 -1.14494e-19)
(0.264903 0.659534 0)
(0.311961 0.35251 1.12672e-19)
(0.37985 -0.0186697 0)
(0.528676 -0.51242 0)
(0.744891 -1.00345 8.26331e-24)
(0.978907 -1.35834 -5.45342e-20)
(1.2082 -1.55099 -5.40571e-20)
(1.42277 -1.60539 -5.37507e-20)
(1.62307 -1.56518 0)
(1.81269 -1.47096 0)
(1.99265 -1.35038 5.22266e-20)
(2.16287 -1.21874 1.03478e-19)
(2.32259 -1.0831 -1.02491e-19)
(2.47026 -0.946252 0)
(2.60403 -0.809083 -1.0052e-19)
(2.72196 -0.671764 4.99434e-20)
(2.82232 -0.534377 0)
(2.90373 -0.396854 -9.76894e-20)
(2.96487 -0.259567 -4.85496e-20)
(3.00493 -0.1228 9.59599e-20)
(3.02268 0.0125877 4.77087e-20)
(3.01799 0.145377 0)
(2.99047 0.275126 -9.35728e-20)
(2.94066 0.399902 -9.28416e-20)
(2.86922 0.517902 0)
(2.77818 0.625036 -9.14653e-20)
(2.67034 0.718434 0)
(2.54866 0.794722 -9.01554e-20)
(2.42007 0.850219 -4.48379e-20)
(2.28728 0.888343 0)
(2.15975 0.901555 0)
(2.03559 0.896498 0)
(1.91928 0.86099 0)
(1.79754 0.766816 0)
(1.64862 0.657966 0)
(1.52023 0.526696 -8.47541e-20)
(1.38662 0.331187 1.26042e-19)
(1.26058 0.128673 0)
(1.20275 -0.0200265 0)
(1.17523 -0.144455 0)
(1.15669 -0.324794 7.44009e-23)
(1.22223 -0.450624 -8.03675e-20)
(1.35266 -0.485749 -1.5928e-19)
(1.36764 -0.708106 1.5781e-19)
(1.14762 -0.533973 7.8197e-20)
(0.54168 0.231436 -7.75659e-20)
(-0.291561 0.856938 2.6194e-23)
(-0.979693 1.22786 -7.58482e-20)
(-1.55868 1.45147 0)
(-2.02414 1.55484 -7.40605e-20)
(-2.38166 1.59789 2.2489e-22)
(-2.65889 1.57303 0)
(-2.87719 1.48286 0)
(-3.06655 1.36076 7.05123e-20)
(-3.23941 1.2272 0)
(-3.40412 1.09691 0)
(-3.56373 0.977221 -6.73786e-20)
(-3.71897 0.870824 -1.33496e-19)
(-3.86959 0.778037 6.60488e-20)
(-4.01487 0.69765 0)
(-4.15408 0.627906 -6.41057e-20)
(-4.28656 0.566807 0)
(-4.41176 0.512406 -6.19135e-20)
(-4.52915 0.462931 -6.1339e-20)
(-4.63815 0.416858 1.20656e-19)
(-4.73816 0.372926 5.93598e-20)
(-4.8285 0.330139 0)
(-4.90845 0.28775 -1.1581e-19)
(-4.97723 0.245274 0)
(-5.03408 0.202459 -1.69473e-19)
(-5.07828 0.159248 -1.11563e-19)
(-5.10924 0.115776 -1.10298e-19)
(-5.12644 0.0722721 1.09112e-19)
(-5.1295 0.0290241 -1.62108e-19)
(-5.11861 -0.0134585 0)
(-5.09378 -0.0549424 0)
(-5.05528 -0.0951364 1.05091e-19)
(-5.00364 -0.133621 1.56451e-19)
(-4.9394 -0.170436 0)
(-4.86298 -0.205678 -5.14273e-20)
(-4.77472 -0.239614 0)
(-4.67477 -0.272557 1.52121e-19)
(-4.56312 -0.304792 1.01833e-22)
(-4.43964 -0.336528 -9.95658e-23)
(-4.30413 -0.367872 -9.95657e-20)
(-4.15639 -0.398844 0)
(-3.99622 -0.429389 9.84569e-20)
(-3.82339 -0.459332 1.0861e-22)
(-3.63777 -0.488278 0)
(-3.43941 -0.515531 0)
(-3.2288 -0.54012 0)
(-3.00694 -0.560928 -9.59967e-20)
(-2.77547 -0.576888 0)
(-2.53659 -0.587242 0)
(-2.29278 -0.591729 0)
(-2.0465 -0.590509 0)
(-1.80009 -0.584003 0)
(-1.55547 -0.57289 -9.24615e-20)
(-1.31421 -0.557869 0)
(-1.07793 -0.539348 -9.11112e-20)
(-0.848253 -0.51758 -9.03479e-20)
(-0.626626 -0.492892 8.95493e-20)
(-0.414527 -0.465595 0)
(-0.213626 -0.436225 8.78533e-20)
(-0.0255275 -0.406014 0)
(0.148076 -0.376009 8.60087e-20)
(0.306606 -0.346577 -8.50324e-20)
(0.45085 -0.318157 -2.52096e-19)
(0.582324 -0.291698 0)
(0.703017 -0.267758 -2.46093e-19)
(0.815065 -0.246607 -8.10043e-20)
(0.920378 -0.228081 0)
(1.02047 -0.211595 -1.58018e-19)
(1.11634 -0.196298 -1.56017e-19)
(1.20839 -0.181287 2.31051e-19)
(1.29648 -0.165846 0)
(1.38006 -0.149604 7.50491e-20)
(1.45834 -0.132569 7.40704e-20)
(1.53049 -0.115087 2.1928e-19)
(1.59581 -0.0976926 0)
(1.65393 -0.0809603 0)
(1.70484 -0.0654142 0)
(1.74895 -0.0513727 6.92734e-20)
(1.78688 -0.0390301 0)
(1.81938 -0.0284815 0)
(1.84731 -0.0196449 -6.64981e-20)
(1.87133 -0.0123566 -6.55848e-20)
(1.89212 -0.00643881 0)
(1.9102 -0.00173767 0)
(1.92599 0.00189537 -1.25774e-19)
(1.93991 0.00462081 0)
(1.95232 0.0065766 1.22246e-19)
(1.96356 0.00787788 1.205e-19)
(1.97393 0.0086496 0)
(1.98365 0.00903062 0)
(1.99284 0.00913611 -1.15351e-19)
(2.00156 0.00904511 -1.00626e-24)
(2.00982 0.00880851 -7.5115e-25)
(2.01758 0.00844867 0)
(2.0248 0.00796234 -2.17323e-19)
(2.03149 0.00733572 0)
(2.03765 0.00655734 0)
(2.04338 0.00562615 0)
(2.04882 0.00455471 1.02159e-19)
(2.05415 0.00336784 0)
(2.05958 0.00210065 -1.97947e-19)
(2.06535 0.000794841 -9.7397e-20)
(2.07163 -0.000504314 0)
(2.0786 -0.00176154 -9.42751e-20)
(2.08636 -0.00293025 0)
(2.09496 -0.00398637 0)
(2.10438 -0.00489915 -2.69002e-19)
(2.11459 -0.00564455 1.76302e-19)
(2.12549 -0.0062203 0)
(2.13698 -0.00663515 1.70293e-19)
(2.14893 -0.00690545 -8.36586e-20)
(2.1612 -0.00704911 0)
(2.17369 -0.007088 0)
(2.1863 -0.00703036 0)
(2.19892 -0.00687964 -2.33386e-19)
(2.2115 -0.00662068 0)
(2.22397 -0.00626603 -7.49166e-20)
(2.23628 -0.00578302 0)
(2.24837 -0.00521499 0)
(2.26023 -0.00445454 0)
(2.27168 -0.00361969 0)
(2.28284 -0.00243403 0)
(2.29323 -0.00125844 0)
(2.30335 0.000663657 -1.3021e-19)
(2.31194 0.0022835 0)
(2.32067 0.00563993 -6.23812e-20)
(2.32602 0.00774672 1.83089e-19)
(2.33321 0.0140345 0)
(2.33238 0.0163465 0)
(2.33903 0.028918 -1.14075e-19)
(2.32564 0.0302354 -1.11482e-19)
(2.3359 0.0564398 1.08868e-19)
(2.29719 0.0551696 1.06356e-19)
(0.092639 0.309859 1.73485e-19)
(0.274389 0.444607 1.72107e-19)
(0.400379 0.336687 1.13944e-19)
(0.53839 0.11235 5.66655e-20)
(0.786402 -0.360796 0)
(1.08884 -0.953668 -1.10818e-19)
(1.35616 -1.45626 5.49381e-20)
(1.55052 -1.7664 0)
(1.68824 -1.89311 5.39519e-20)
(1.79794 -1.8925 0)
(1.90249 -1.82123 -1.05921e-19)
(2.01182 -1.71634 0)
(2.12584 -1.59486 -5.2186e-20)
(2.2412 -1.46252 -1.03416e-19)
(2.35427 -1.32114 1.02446e-19)
(2.46186 -1.17195 0)
(2.56156 -1.01623 1.00502e-19)
(2.65136 -0.855224 0)
(2.72968 -0.689931 0)
(2.79495 -0.521371 9.77015e-20)
(2.84607 -0.350527 0)
(2.8819 -0.178627 -3.37704e-22)
(2.90233 -0.00705288 0)
(2.90708 0.162403 0)
(2.89398 0.328334 2.99896e-22)
(2.86226 0.488635 9.28351e-20)
(2.81119 0.641145 9.18577e-20)
(2.74169 0.780023 9.14482e-20)
(2.65227 0.901758 0)
(2.54591 0.997124 1.80054e-19)
(2.42373 1.06367 0)
(2.29393 1.09613 8.86911e-20)
(2.16701 1.09588 0)
(2.04225 1.07214 0)
(1.94138 1.00831 -8.67896e-20)
(1.83866 0.945751 0)
(1.74895 0.820903 8.54718e-20)
(1.65044 0.661538 -9.93907e-23)
(1.53807 0.552629 -1.68144e-19)
(1.47192 0.279105 1.66933e-19)
(1.32636 -0.00916473 0)
(1.24127 -0.101159 0)
(1.34415 -0.277553 8.13833e-20)
(1.37318 -0.669347 0)
(1.14665 -0.573124 7.9721e-20)
(0.468924 0.273476 -7.90463e-20)
(-0.352405 0.96109 -7.82533e-20)
(-1.02177 1.41101 0)
(-1.57184 1.70191 7.64829e-20)
(-1.99578 1.88182 7.56057e-20)
(-2.31524 1.95535 -1.49118e-19)
(-2.54503 1.95094 7.39304e-20)
(-2.71507 1.89266 7.30833e-20)
(-2.84626 1.79585 0)
(-2.96063 1.67289 0)
(-3.07193 1.53918 -7.04901e-20)
(-3.18622 1.40529 0)
(-3.30574 1.27732 0)
(-3.42944 1.15891 1.35405e-19)
(-3.55524 1.05119 1.33501e-19)
(-3.68095 0.954332 0)
(-3.80479 0.867594 0)
(-3.9254 0.789798 0)
(-4.04175 0.719447 0)
(-4.15299 0.654917 1.24185e-19)
(-4.25833 0.5946 -1.22069e-19)
(-4.35694 0.537019 -1.20696e-19)
(-4.44795 0.480896 -2.37732e-19)
(-4.53043 0.425193 0)
(-4.6034 0.369148 3.05197e-22)
(-4.66588 0.312275 0)
(-4.71694 0.254377 1.1296e-19)
(-4.75566 0.195523 2.8945e-22)
(-4.7813 0.135991 1.10358e-19)
(-4.79347 0.0762693 -1.09175e-19)
(-4.79187 0.0169695 2.60112e-22)
(-4.77653 -0.0414084 0)
(-4.74782 -0.0979919 -1.05822e-19)
(-4.70624 -0.152315 -1.05144e-19)
(-4.65244 -0.204112 -2.08413e-19)
(-4.58716 -0.253357 0)
(-4.51102 -0.300311 1.02621e-19)
(-4.42441 -0.345426 0)
(-4.3275 -0.38923 -2.02704e-19)
(-4.22022 -0.432189 1.00786e-19)
(-4.10235 -0.474629 -1.0018e-19)
(-3.97368 -0.51671 9.95954e-20)
(-3.83396 -0.558477 1.97805e-19)
(-3.68289 -0.599902 -9.84796e-20)
(-3.52001 -0.640841 9.79443e-20)