/*--------------------------------*- C++ -*----------------------------------*\
  =========                 |
  \\      /  F ield         | OpenFOAM: The Open Source CFD Toolbox
   \\    /   O peration     | Website:  https://openfoam.org
    \\  /    A nd           | Version:  7
     \\/     M anipulation  |
\*---------------------------------------------------------------------------*/
FoamFile
{
    version     2.0;
    format      ascii;
    class       volVectorField;
    location    "0.067";
    object      UMean;
}
// * * * * * * * * * * * * * * * * * * * * * * * * * * * * * * * * * * * * * //

dimensions      [0 1 -1 0 0 0 0];

internalField   nonuniform List<vector> 
12225
(
(4.77322 0.164813 0)
(4.17812 0.111792 0)
(3.71706 0.0984594 0)
(3.34764 0.0819219 0)
(3.01479 0.068715 0)
(2.70408 0.0590012 0)
(2.4165 0.0505938 0)
(2.15656 0.0426117 0)
(1.92813 0.0342056 0)
(1.73177 0.0266337 0)
(1.56913 0.018364 0)
(1.43621 0.0128322 0)
(1.33471 0.00463769 0)
(1.25616 0.00397333 0)
(1.20107 -0.00678042 0)
(1.16417 0.00232962 0)
(1.13956 -0.0208128 0)
(1.13819 -0.00142614 0)
(5.02381 0.112532 0)
(4.87697 0.0730149 0)
(4.75886 0.0892618 0)
(4.66891 0.0889795 0)
(4.57551 0.087714 0)
(4.47055 0.088386 0)
(4.35568 0.0889031 0)
(4.2366 0.0872442 0)
(4.11585 0.0838281 0)
(3.99882 0.077666 0)
(3.8845 0.0711132 0)
(3.78015 0.0616922 0)
(3.67919 0.0547616 0)
(3.59416 0.0435174 0)
(3.50723 0.0396764 0)
(3.44356 0.0255948 0)
(3.36854 0.0247592 0)
(3.32118 -0.00297451 0)
(4.99928 0.173216 0)
(4.87963 0.123217 0)
(4.80084 0.131406 0)
(4.76985 0.125941 0)
(4.75394 0.118887 0)
(4.73782 0.115688 0)
(4.71933 0.11386 0)
(4.69914 0.111486 0)
(4.67733 0.106878 0)
(4.65328 0.101165 0)
(4.62709 0.0928281 0)
(4.59852 0.0851798 0)
(4.56927 0.0746336 0)
(4.53853 0.0678782 0)
(4.50995 0.0566008 0)
(4.47974 0.0515411 0)
(4.45551 0.038116 0)
(4.42443 0.0238706 0)
(4.99332 0.188558 0)
(4.89665 0.120003 0)
(4.81971 0.118984 0)
(4.78536 0.115205 0)
(4.77219 0.108461 0)
(4.76441 0.104651 0)
(4.75895 0.103278 0)
(4.75644 0.101581 0)
(4.75674 0.0985917 0)
(4.75844 0.0936919 0)
(4.76046 0.0879058 0)
(4.7615 0.0805691 0)
(4.76203 0.0736227 0)
(4.76097 0.0653974 0)
(4.7609 0.0586548 0)
(4.75905 0.0498797 0)
(4.76096 0.0408556 0)
(4.75804 0.0279531 0)
(4.99704 0.21476 0)
(4.92266 0.144731 0)
(4.85271 0.13592 0)
(4.81567 0.131579 0)
(4.80011 0.122867 0)
(4.79134 0.115724 0)
(4.78521 0.111238 0)
(4.78206 0.107541 0)
(4.78238 0.102878 0)
(4.78515 0.0971613 0)
(4.78947 0.0902321 0)
(4.79408 0.0828702 0)
(4.79907 0.0748325 0)
(4.80377 0.0669224 0)
(4.8093 0.0587102 0)
(4.81473 0.0498225 0)
(4.82172 0.040108 0)
(4.82705 0.0262017 0)
(4.99409 0.229971 0)
(4.93975 0.159146 0)
(4.88014 0.141586 0)
(4.8443 0.135198 0)
(4.82857 0.125482 0)
(4.8206 0.116316 0)
(4.81506 0.109917 0)
(4.81174 0.104928 0)
(4.81131 0.0997113 0)
(4.81333 0.0935128 0)
(4.81703 0.0864927 0)
(4.82139 0.0788032 0)
(4.82628 0.0708439 0)
(4.83113 0.0626065 0)
(4.83669 0.0541479 0)
(4.84213 0.0450488 0)
(4.84851 0.0346123 0)
(4.85342 0.0220927 0)
(4.99576 0.244402 0)
(4.95546 0.175773 0)
(4.90537 0.15127 0)
(4.87145 0.141903 0)
(4.85536 0.131454 0)
(4.84779 0.120994 0)
(4.84292 0.112813 0)
(4.83984 0.106401 0)
(4.83917 0.100203 0)
(4.84076 0.0933671 0)
(4.84401 0.0858372 0)
(4.84799 0.0778083 0)
(4.85252 0.0695304 0)
(4.85702 0.0609683 0)
(4.86206 0.0522061 0)
(4.86674 0.0427098 0)
(4.87207 0.0323397 0)
(4.87565 0.02043 0)
(5.00023 0.254833 0)
(4.97168 0.190137 0)
(4.93078 0.16068 0)
(4.89935 0.147655 0)
(4.88281 0.13622 0)
(4.8752 0.124652 0)
(4.87092 0.114799 0)
(4.86829 0.106803 0)
(4.86763 0.0995368 0)
(4.86893 0.0920406 0)
(4.87178 0.084065 0)
(4.87531 0.0757044 0)
(4.87936 0.067129 0)
(4.88334 0.0583385 0)
(4.8878 0.0492786 0)
(4.89176 0.0396817 0)
(4.89626 0.0293955 0)
(4.89894 0.0181346 0)
(5.00165 0.26176 0)
(4.98206 0.202455 0)
(4.94997 0.169932 0)
(4.9226 0.1532 0)
(4.90682 0.140409 0)
(4.89945 0.127949 0)
(4.89568 0.116767 0)
(4.89352 0.10736 0)
(4.89301 0.0990286 0)
(4.8942 0.0908765 0)
(4.89689 0.0824958 0)
(4.9003 0.0738297 0)
(4.90423 0.0650007 0)
(4.90802 0.055995 0)
(4.91212 0.0467867 0)
(4.91559 0.0371853 0)
(4.91939 0.0271297 0)
(4.92147 0.0165219 0)
(4.99674 0.268241 0)
(4.98424 0.213548 0)
(4.95985 0.179044 0)
(4.93693 0.159052 0)
(4.92271 0.144679 0)
(4.91604 0.131421 0)
(4.91314 0.119169 0)
(4.91184 0.108452 0)
(4.91185 0.0989754 0)
(4.91322 0.09004 0)
(4.91585 0.081171 0)
(4.91915 0.0722089 0)
(4.92289 0.0631646 0)
(4.9265 0.0540191 0)
(4.93028 0.0447407 0)
(4.93342 0.035229 0)
(4.93668 0.0254604 0)
(4.93846 0.0154511 0)
(4.99301 0.27162 0)
(4.98463 0.221668 0)
(4.96537 0.186395 0)
(4.94584 0.163737 0)
(4.93294 0.14748 0)
(4.92671 0.133228 0)
(4.92428 0.120053 0)
(4.92343 0.108251 0)
(4.92358 0.0977907 0)
(4.92476 0.0881444 0)
(4.9271 0.0788162 0)
(4.93017 0.0695557 0)
(4.93381 0.0603052 0)
(4.93737 0.0510499 0)
(4.94109 0.0417715 0)
(4.9441 0.0324248 0)
(4.94721 0.023013 0)
(4.94882 0.0135831 0)
(5.00308 0.274728 0)
(4.99693 0.228685 0)
(4.98134 0.193562 0)
(4.9646 0.169129 0)
(4.95282 0.151137 0)
(4.9467 0.135886 0)
(4.94419 0.122015 0)
(4.94335 0.109491 0)
(4.94347 0.0982472 0)
(4.94443 0.0879041 0)
(4.94636 0.0780296 0)
(4.94893 0.0683691 0)
(4.95205 0.0588436 0)
(4.9551 0.0494523 0)
(4.95834 0.0401759 0)
(4.9609 0.031009 0)
(4.96364 0.0219225 0)
(4.96496 0.0129952 0)
(5.00056 0.278064 0)
(4.99772 0.233969 0)
(4.98642 0.199112 0)
(4.97342 0.173285 0)
(4.96399 0.153608 0)
(4.95911 0.137168 0)
(4.95744 0.122454 0)
(4.95737 0.109143 0)
(4.95817 0.0971448 0)
(4.95958 0.0861939 0)
(4.9617 0.0759068 0)
(4.96423 0.0660014 0)
(4.96718 0.0563418 0)
(4.96991 0.0468925 0)
(4.9728 0.0376431 0)
(4.97492 0.0286099 0)
(4.97731 0.0197837 0)
(4.97821 0.0112339 0)
(5.00962 0.280234 0)
(5.00964 0.239155 0)
(5.00179 0.205111 0)
(4.99168 0.178275 0)
(4.98414 0.157047 0)
(4.98031 0.139366 0)
(4.97924 0.123833 0)
(4.97969 0.109862 0)
(4.98096 0.0972242 0)
(4.98271 0.0856684 0)
(4.985 0.0749008 0)
(4.98755 0.0646763 0)
(4.99042 0.0548558 0)
(4.99306 0.045393 0)
(4.99583 0.0362613 0)
(4.99784 0.0274708 0)
(5.00016 0.0189857 0)
(5.00106 0.0108807 0)
(5.00473 0.279433 0)
(5.00698 0.241749 0)
(5.00248 0.208615 0)
(4.99611 0.18098 0)
(4.99169 0.158293 0)
(4.99 0.13928 0)
(4.99037 0.122768 0)
(4.99194 0.10805 0)
(4.99422 0.0947606 0)
(4.99688 0.0826617 0)
(4.99991 0.0715144 0)
(5.00303 0.0610943 0)
(5.00628 0.051225 0)
(5.00922 0.0418136 0)
(5.01219 0.0328013 0)
(5.01446 0.0242048 0)
(5.01693 0.0159907 0)
(5.01822 0.00825246 0)
(5.01218 0.281693 0)
(5.01518 0.245775 0)
(5.01305 0.213043 0)
(5.00945 0.184675 0)
(5.00727 0.160762 0)
(5.00703 0.140554 0)
(5.00825 0.123051 0)
(5.01037 0.107494 0)
(5.01302 0.0934627 0)
(5.01596 0.0807398 0)
(5.01913 0.0691349 0)
(5.02234 0.0584623 0)
(5.02563 0.0485313 0)
(5.02866 0.0392359 0)
(5.03166 0.0304657 0)
(5.03406 0.0222378 0)
(5.03654 0.0144519 0)
(5.03803 0.00723389 0)
(4.99898 0.279501 0)
(5.00272 0.243784 0)
(5.00281 0.211361 0)
(5.00246 0.182825 0)
(5.00364 0.158162 0)
(5.00635 0.136943 0)
(5.00997 0.118539 0)
(5.014 0.102351 0)
(5.0182 0.0879059 0)
(5.02243 0.0748855 0)
(5.02665 0.0630465 0)
(5.0307 0.0522116 0)
(5.03466 0.0422082 0)
(5.03826 0.0329399 0)
(5.04173 0.0242865 0)
(5.04462 0.0162551 0)
(5.04754 0.00872758 0)
(5.04958 0.00180539 0)
(5.00488 0.283975 0)
(5.01007 0.245419 0)
(5.01244 0.211323 0)
(5.01457 0.18155 0)
(5.01823 0.155723 0)
(5.02314 0.133417 0)
(5.02852 0.114113 0)
(5.0339 0.0972775 0)
(5.03917 0.0824505 0)
(5.04427 0.0692924 0)
(5.04922 0.0575258 0)
(5.05386 0.0469556 0)
(5.05829 0.037375 0)
(5.06225 0.0286744 0)
(5.06603 0.020679 0)
(5.06916 0.0133884 0)
(5.07232 0.00661239 0)
(5.07452 0.000488937 0)
(5.00372 0.278802 0)
(5.01291 0.238844 0)
(5.01962 0.20293 0)
(5.02585 0.171719 0)
(5.03335 0.144985 0)
(5.04179 0.122073 0)
(5.05026 0.102234 0)
(5.05823 0.0848518 0)
(5.06563 0.0695023 0)
(5.07246 0.0559025 0)
(5.07882 0.0438069 0)
(5.08461 0.0330129 0)
(5.08994 0.0233078 0)
(5.09464 0.0145601 0)
(5.09899 0.00659864 0)
(5.10266 -0.000606957 0)
(5.10625 -0.00723026 0)
(5.109 -0.0131863 0)
(5.00188 0.274354 0)
(5.01252 0.230661 0)
(5.02271 0.191444 0)
(5.03384 0.158133 0)
(5.04629 0.130637 0)
(5.05884 0.10792 0)
(5.07036 0.0888681 0)
(5.08057 0.0726808 0)
(5.08973 0.05881 0)
(5.09808 0.0468541 0)
(5.10578 0.0364503 0)
(5.11277 0.0273076 0)
(5.11915 0.0191513 0)
(5.12477 0.0118395 0)
(5.12991 0.00518878 0)
(5.13428 -0.000809668 0)
(5.13841 -0.00634618 0)
(5.14166 -0.0113117 0)
(4.99893 0.271524 0)
(5.01138 0.220272 0)
(5.02593 0.176659 0)
(5.04275 0.141468 0)
(5.06067 0.113337 0)
(5.07768 0.0901677 0)
(5.09267 0.0703924 0)
(5.10565 0.0532924 0)
(5.11708 0.0386039 0)
(5.12729 0.026119 0)
(5.13643 0.0155086 0)
(5.14449 0.00641034 0)
(5.15163 -0.00152627 0)
(5.1578 -0.00852788 0)
(5.16337 -0.0148008 0)
(5.16811 -0.0204095 0)
(5.1726 -0.0255077 0)
(5.17618 -0.0300551 0)
(5.00625 0.265833 0)
(5.02298 0.204881 0)
(5.04393 0.157304 0)
(5.06682 0.122625 0)
(5.08883 0.0973683 0)
(5.10796 0.0778304 0)
(5.12403 0.0616496 0)
(5.13793 0.0478245 0)
(5.15045 0.035999 0)
(5.16185 0.0259189 0)
(5.17211 0.0172478 0)
(5.18114 0.00968382 0)
(5.18912 0.00295743 0)
(5.19605 -0.00306381 0)
(5.20229 -0.00852403 0)
(5.20765 -0.0134333 0)
(5.21268 -0.0179604 0)
(5.21677 -0.0220294 0)
(5.00269 0.260903 0)
(5.02894 0.188193 0)
(5.06114 0.135103 0)
(5.09342 0.0985117 0)
(5.12166 0.0718248 0)
(5.14456 0.050259 0)
(5.16313 0.0320869 0)
(5.17892 0.0171663 0)
(5.19286 0.00530772 0)
(5.20515 -0.00410656 0)
(5.21583 -0.0118403 0)
(5.22496 -0.0184625 0)
(5.23286 -0.0242921 0)
(5.23964 -0.029457 0)
(5.24575 -0.0340641 0)
(5.25095 -0.038163 0)
(5.25581 -0.041873 0)
(5.25968 -0.0451917 0)
(5.00472 0.244424 0)
(5.04093 0.164344 0)
(5.0851 0.115396 0)
(5.12525 0.0879218 0)
(5.15669 0.0692371 0)
(5.18077 0.0527244 0)
(5.20089 0.037771 0)
(5.21917 0.0251813 0)
(5.23591 0.0150554 0)
(5.25063 0.00679963 0)
(5.26317 -0.000231937 0)
(5.27374 -0.00640693 0)
(5.28284 -0.0118976 0)
(5.29067 -0.0167654 0)
(5.29765 -0.0211278 0)
(5.30361 -0.0250266 0)
(5.30909 -0.028607 0)
(5.31354 -0.0318219 0)
(5.00686 0.228101 0)
(5.05892 0.126677 0)
(5.12103 0.0722471 0)
(5.17119 0.0443706 0)
(5.20552 0.0245334 0)
(5.22989 0.0070921 0)
(5.25029 -0.00688488 0)
(5.26886 -0.0168333 0)
(5.28549 -0.023883 0)
(5.29972 -0.0294536 0)
(5.3117 -0.0343231 0)
(5.32187 -0.0386865 0)
(5.33076 -0.042557 0)
(5.33852 -0.0459662 0)
(5.3455 -0.0489982 0)
(5.35145 -0.0517228 0)
(5.3569 -0.0542204 0)
(5.36128 -0.0565061 0)
(5.0153 0.211766 0)
(5.08928 0.112893 0)
(5.16959 0.0775074 0)
(5.22672 0.0613759 0)
(5.26238 0.0435141 0)
(5.28848 0.0255967 0)
(5.31202 0.0114835 0)
(5.33364 0.00160391 0)
(5.35217 -0.00565245 0)
(5.36729 -0.0116517 0)
(5.37964 -0.0169482 0)
(5.38999 -0.0216465 0)
(5.39895 -0.0257821 0)
(5.40666 -0.0294214 0)
(5.41346 -0.0326697 0)
(5.4192 -0.0355769 0)
(5.42439 -0.0382289 0)
(5.42863 -0.0406016 0)
(5.00875 0.15932 0)
(5.1218 0.0338475 0)
(5.22042 0.00609799 0)
(5.27739 -0.00314072 0)
(5.30968 -0.0170919 0)
(5.33555 -0.0293246 0)
(5.3603 -0.0368481 0)
(5.38286 -0.0414278 0)
(5.40186 -0.0450254 0)
(5.41733 -0.0483256 0)
(5.43017 -0.0513098 0)
(5.44109 -0.0539158 0)
(5.45063 -0.0561752 0)
(5.45886 -0.0581777 0)
(5.46611 -0.059985 0)
(5.47225 -0.0616536 0)
(5.4778 -0.0632126 0)
(5.48232 -0.0646881 0)
(5.01513 0.153588 0)
(5.17727 0.0582754 0)
(5.30068 0.0445053 0)
(5.36091 0.0281545 0)
(5.39385 0.00894516 0)
(5.4223 -0.00471099 0)
(5.44911 -0.0127289 0)
(5.47228 -0.0182026 0)
(5.49104 -0.0228645 0)
(5.50604 -0.0270726 0)
(5.51827 -0.030763 0)
(5.52845 -0.0339827 0)
(5.53697 -0.0367972 0)
(5.54403 -0.0393389 0)
(5.54981 -0.0416184 0)
(5.55438 -0.0437412 0)
(5.55803 -0.0456766 0)
(5.56066 -0.0475337 0)
(5.01726 0.0186489 0)
(5.2285 -0.0523756 0)
(5.35434 -0.0348621 0)
(5.40791 -0.0432575 0)
(5.43785 -0.0533164 0)
(5.46144 -0.0578095 0)
(5.47937 -0.0594571 0)
(5.49016 -0.0606354 0)
(5.49386 -0.0618638 0)
(5.49175 -0.0630232 0)
(5.48507 -0.063988 0)
(5.47497 -0.0647852 0)
(5.46191 -0.0654321 0)
(5.44672 -0.0660133 0)
(5.42927 -0.066498 0)
(5.41063 -0.0669723 0)
(5.38998 -0.0673727 0)
(5.36921 -0.0678295 0)
(4.96782 0.0709061 0)
(5.10275 -0.000296486 0)
(5.07388 -0.000551169 0)
(4.95941 -0.0109517 0)
(4.83166 -0.0186351 0)
(4.70722 -0.0216545 0)
(4.58643 -0.0228088 0)
(4.46768 -0.0235433 0)
(4.35055 -0.0240829 0)
(4.23574 -0.024406 0)
(4.12395 -0.024536 0)
(4.01588 -0.0245317 0)
(3.91151 -0.0244302 0)
(3.81125 -0.0242684 0)
(3.71441 -0.0240422 0)
(3.62194 -0.0237941 0)
(3.53213 -0.023502 0)
(3.44746 -0.0232661 0)
(-0.0188473 0.0341071 1.32373e-21)
(-0.0387823 0.00432222 -1.31469e-21)
(-0.0272597 -0.0269384 0)
(0.00895845 -0.0524394 0)
(0.0648079 -0.0714548 0)
(0.134579 -0.0841 1.27575e-21)
(0.212845 -0.0907 0)
(0.295248 -0.0925125 0)
(0.378219 -0.0906932 0)
(0.459085 -0.0863804 0)
(0.535944 -0.0802321 -1.19982e-21)
(0.607298 -0.0726445 0)
(0.671758 -0.0637981 0)
(0.72797 -0.053732 0)
(0.77448 -0.0424001 0)
(0.809746 -0.0297586 -1.08274e-21)
(0.832149 -0.0157698 0)
(0.840226 -0.000484624 0)
(0.832723 0.0160068 0)
(0.807697 0.0334222 0)
(0.764524 0.0512179 0)
(0.703019 0.0686559 0)
(0.623943 0.0848049 0)
(0.528869 0.0985621 -9.92895e-22)
(0.42033 0.108754 9.91466e-22)
(0.301081 0.114344 -9.8964e-22)
(0.175105 0.11517 -9.86618e-22)
(0.0467888 0.110172 0)
(-0.0782129 0.0996385 0)
(-0.196586 0.0809007 9.66394e-22)
(-0.301158 0.0534864 9.5586e-22)
(-0.391118 0.0284593 0)
(-0.474489 0.0129885 0)
(-0.556913 0.00716981 9.1593e-22)
(-0.63876 0.0151393 0)
(-0.722229 0.0298287 0)
(-0.807039 0.0365663 -8.71917e-22)
(-0.893564 0.039026 0)
(-0.982479 0.0521339 -8.38122e-22)
(-1.07859 0.0678506 -1.63977e-21)
(-1.18016 0.0693776 0)
(-1.27987 0.0729571 0)
(-1.38235 0.0818189 0)
(-1.48491 0.080058 0)
(-1.58324 0.0696657 0)
(-1.6747 0.0665131 -1.38848e-21)
(-1.76252 0.0635327 -1.34867e-21)
(-1.8423 0.05354 -1.31103e-21)
(-1.91391 0.0462595 0)
(-1.98057 0.0424377 1.24646e-21)
(-2.04042 0.0415514 0)
(-2.0931 0.0420958 -1.2008e-21)
(-2.13794 0.0410965 -1.18611e-21)
(-2.17244 0.0350586 0)
(-2.19332 0.0253181 0)
(-2.20055 0.0153867 0)
(-2.19519 0.00628411 -1.16867e-21)
(-2.17836 -0.00182563 0)
(-2.15147 -0.00888127 0)
(-2.11567 -0.0149245 0)
(-2.07217 -0.0200132 0)
(-2.0221 -0.0242444 0)
(-1.96644 -0.0277064 0)
(-1.90608 -0.0305015 0)
(-1.84181 -0.0327195 0)
(-1.77431 -0.0344578 1.32588e-21)
(-1.70417 -0.0357939 0)
(-1.63185 -0.036806 0)
(-1.55772 -0.0375638 -1.40495e-21)
(-1.48207 -0.0381271 -1.43184e-21)
(-1.4051 -0.0385508 0)
(-1.32697 -0.0388762 1.48581e-21)
(-1.24777 -0.0391355 -1.51275e-21)
(-1.16756 -0.0393559 0)
(-1.08636 -0.0395532 1.56625e-21)
(-1.00418 -0.0397365 0)
(-0.920995 -0.0399196 0)
(-0.836786 -0.0400992 -1.64474e-21)
(-0.751545 -0.0402634 0)
(-0.66533 -0.0403809 1.69515e-21)
(-0.578251 -0.040415 0)
(-0.490501 -0.040339 -1.74289e-21)
(-0.402324 -0.0401301 -1.76535e-21)
(-0.313975 -0.0397878 -1.78668e-21)
(-0.2257 -0.0393268 -3.6135e-21)
(-0.137699 -0.0387737 3.651e-21)
(-0.0501086 -0.0381565 0)
(0.0369685 -0.037497 0)
(0.123438 -0.0368091 0)
(0.209222 -0.0360993 3.77339e-21)
(0.294226 -0.0353543 3.79668e-21)
(0.378337 -0.0345586 -3.81674e-21)
(0.461404 -0.033694 0)
(0.543238 -0.0327356 3.84623e-21)
(0.623603 -0.0316711 3.85516e-21)
(0.702235 -0.0304858 3.85991e-21)
(0.778836 -0.0291726 0)
(0.853089 -0.0277423 0)
(0.924699 -0.0261892 0)
(0.993399 -0.0245437 3.83509e-21)
(1.05894 -0.0228055 0)
(1.1211 -0.0210118 0)
(1.17971 -0.0191719 -3.77325e-21)
(1.23463 -0.0173184 0)
(1.28575 -0.0154677 0)
(1.33303 -0.0136475 -3.68323e-21)
(1.37648 -0.0118755 0)
(1.41613 -0.0101762 0)
(1.45208 -0.00855477 3.57565e-21)
(1.48447 -0.00701295 3.53759e-21)
(1.51345 -0.00556713 0)
(1.53915 -0.00422059 -3.45994e-21)
(1.56174 -0.00297453 0)
(1.58138 -0.00182821 3.38161e-21)
(1.59825 -0.000780279 0)
(1.6125 0.000170549 3.30373e-21)
(1.62431 0.00102523 3.26519e-21)
(1.63385 0.00178423 0)
(1.64129 0.00244852 0)
(1.64682 0.00302125 0)
(1.65062 0.00350618 0)
(1.65286 0.00390671 0)
(1.65371 0.00422806 0)
(1.65336 0.00447462 0)
(1.65196 0.0046544 2.97136e-21)
(1.64966 0.00477549 -2.93658e-21)
(1.6466 0.00483547 0)
(1.64293 0.00483223 0)
(1.63878 0.00477094 0)
(1.63426 0.00466025 0)
(1.62951 0.00450811 -5.53764e-21)
(1.62459 0.00432258 0)
(1.61961 0.00411221 5.40871e-21)
(1.61463 0.0038857 -5.34529e-21)
(1.60972 0.00365064 0)
(1.60492 0.0034134 0)
(1.60026 0.00317916 0)
(1.59579 0.00295173 5.0981e-21)
(1.59151 0.00273362 5.03783e-21)
(1.58745 0.00252647 0)
(1.5836 0.0023314 4.919e-21)
(1.57996 0.00214916 4.8604e-21)
(1.57655 0.00198032 -4.80233e-21)
(1.57334 0.00182512 0)
(1.57033 0.00168347 0)
(1.5675 0.00155498 -4.63113e-21)
(1.56483 0.001439 0)
(1.56232 0.00133471 0)
(1.55993 0.00124125 0)
(1.55766 0.00115782 0)
(1.55549 0.00108371 4.355e-21)
(1.55339 0.00101836 4.30105e-21)
(1.55136 0.000961347 0)
(1.54937 0.000912325 4.19434e-21)
(1.54741 0.000871037 0)
(1.54548 0.000837232 0)
(1.54354 0.000810745 4.03715e-21)
(1.54158 0.000791518 0)
(1.5396 0.000779877 3.93421e-21)
(1.53756 0.000776102 0)
(1.53544 0.000781362 0)
(1.53325 0.00079692 3.78254e-21)
(1.53088 0.000825236 0)
(1.5284 0.000867181 3.68329e-21)
(1.52562 0.000927699 0)
(1.52269 0.00100586 0)
(1.51923 0.00111529 0)
(1.51559 0.0012464 -3.48973e-21)
(1.51097 0.00144044 0)
(1.5062 0.00164989 3.3959e-21)
(1.49966 0.00200922 0)
(1.49293 0.00232313 0)
(1.48322 0.00305544 0)
(1.47262 0.00344915 0)
(1.45806 0.00516916 0)
(1.43807 0.00532784 0)
(1.41812 0.0101352 0)
(1.36977 0.00853915 -6.12555e-21)
(1.35318 0.0251619 0)
(1.20374 0.0180391 0)
(-0.00769906 0.0814963 -3.96011e-21)
(-0.0162791 0.00592076 3.93256e-21)
(-0.00174094 -0.0746715 0)
(0.0289795 -0.141776 -2.57375e-21)
(0.0746289 -0.19242 0)
(0.130354 -0.226213 -1.27677e-21)
(0.192464 -0.244021 2.51088e-21)
(0.257104 -0.248734 2.48463e-21)
(0.321549 -0.243879 0)
(0.384034 -0.232404 2.41653e-21)
(0.443655 -0.216218 1.20076e-21)
(0.499363 -0.196282 0)
(0.549969 -0.172848 0)
(0.594124 -0.145784 0)
(0.630226 -0.114849 0)
(0.656622 -0.0799253 1.08362e-21)
(0.671594 -0.0411422 0)
(0.673682 0.000985252 -2.04951e-21)
(0.661458 0.0455909 0)
(0.635151 0.0914489 0)
(0.594092 0.136932 1.97141e-21)
(0.538189 0.180339 0)
(0.468177 0.220176 -1.95368e-21)
(0.385109 0.255167 9.93861e-22)
(0.290694 0.284028 -9.92462e-22)
(0.187205 0.304876 9.90674e-22)
(0.0773812 0.315985 9.87692e-22)
(-0.0357652 0.316013 0)
(-0.148653 0.305359 0)
(-0.260029 0.286113 -9.67545e-22)
(-0.372232 0.262412 9.3588e-22)
(-0.494156 0.249447 0)
(-0.624482 0.251842 0)
(-0.756726 0.252527 -9.17054e-22)
(-0.884844 0.242623 0)
(-1.01026 0.229163 0)
(-1.13415 0.225319 8.73038e-22)
(-1.25667 0.227017 0)
(-1.37374 0.226268 -7.84155e-22)
(-1.48624 0.227787 1.64196e-21)
(-1.59665 0.230321 0)
(-1.7014 0.226681 0)
(-1.80075 0.219107 2.90563e-21)
(-1.89642 0.213621 2.81915e-21)
(-1.9893 0.205046 2.73284e-21)
(-2.07529 0.190837 -1.25934e-21)
(-2.15756 0.174036 1.35053e-21)
(-2.23569 0.159636 3.81154e-21)
(-2.30634 0.148709 -2.43357e-21)
(-2.3667 0.134719 -1.24815e-21)
(-2.41313 0.115033 0)
(-2.44316 0.091216 1.20246e-21)
(-2.45727 0.0649792 -1.08355e-21)
(-2.45772 0.0372572 0)
(-2.44568 0.009955 0)
(-2.42267 -0.0154086 0)
(-2.3898 -0.038236 1.16993e-21)
(-2.34828 -0.0583217 0)
(-2.29907 -0.0756595 -2.31092e-21)
(-2.24325 -0.0903981 0)
(-2.18177 -0.102745 -2.38232e-21)
(-2.11546 -0.112945 0)
(-2.04507 -0.12125 2.4722e-21)
(-1.97126 -0.127901 0)
(-1.89465 -0.133125 -2.57364e-21)
(-1.81575 -0.137145 1.30034e-21)
(-1.73501 -0.140157 0)
(-1.65279 -0.142368 2.73576e-21)
(-1.56936 -0.143962 1.40545e-21)
(-1.48489 -0.145116 1.4323e-21)
(-1.39946 -0.145969 0)
(-1.31312 -0.146633 1.46933e-21)
(-1.22588 -0.147176 1.5131e-21)
(-1.13774 -0.147648 0)
(-1.04868 -0.148079 -1.56654e-21)
(-0.958693 -0.148493 3.17153e-21)
(-0.867712 -0.148929 0)
(-0.775663 -0.149381 1.64496e-21)
(-0.682489 -0.149809 0)
(-0.588224 -0.150109 -5.07335e-21)
(-0.492976 -0.150167 0)
(-0.39695 -0.149877 5.21758e-21)
(-0.300419 -0.14918 1.76548e-21)
(-0.203677 -0.148064 -1.77634e-21)
(-0.106998 -0.14658 -3.59372e-21)
(-0.0105946 -0.144809 3.63199e-21)
(0.0854024 -0.142837 0)
(0.180907 -0.14074 0)
(0.275843 -0.138557 0)
(0.370155 -0.136294 -1.13041e-20)
(0.463775 -0.133924 -3.79669e-21)
(0.556598 -0.131393 3.81673e-21)
(0.648485 -0.128639 0)
(0.739249 -0.125601 3.83394e-21)
(0.828651 -0.12223 -3.85509e-21)
(0.916432 -0.118491 -3.85983e-21)
(1.00228 -0.114369 0)
(1.08589 -0.109878 0)
(1.16697 -0.105039 0)
(1.24524 -0.0999003 -3.83495e-21)
(1.32048 -0.0945121 0)
(1.39247 -0.088937 7.58934e-21)
(1.46104 -0.0832331 1.13144e-20)
(1.52608 -0.0774775 -7.48693e-21)
(1.58749 -0.0717246 0)
(1.64525 -0.0660576 -3.6793e-21)
(1.69936 -0.0605288 0)
(1.74987 -0.0551922 -7.22199e-21)
(1.79692 -0.0500562 3.57244e-21)
(1.84064 -0.0451546 3.53459e-21)
(1.88115 -0.0405171 0)
(1.91861 -0.0361535 1.03767e-20)
(1.95316 -0.0320646 -6.83887e-21)
(1.98495 -0.0282453 -3.38132e-21)
(2.01415 -0.0246881 0)
(2.04089 -0.0213858 -3.30342e-21)
(2.06533 -0.0183334 -9.79322e-21)
(2.08759 -0.0155281 0)
(2.10783 -0.0129678 -6.37657e-21)
(2.12621 -0.0106496 -6.30187e-21)
(2.14286 -0.00856856 -6.22801e-21)
(2.15796 -0.00671802 0)
(2.17164 -0.00508791 0)
(2.18406 -0.00366612 0)
(2.19534 -0.0024372 2.97037e-21)
(2.20563 -0.00138427 2.93619e-21)
(2.21502 -0.000495811 0)
(2.22361 0.000239001 5.73535e-21)
(2.23146 0.000837021 5.6683e-21)
(2.23865 0.0013138 0)
(2.24525 0.00168174 5.53679e-21)
(2.2513 0.00195213 1.09434e-20)
(2.25688 0.00213586 -5.40783e-21)
(2.26202 0.00224446 -5.34407e-21)
(2.26678 0.00228962 0)
(2.27121 0.00228226 0)
(2.27533 0.00223261 0)
(2.2792 0.00214995 -5.0972e-21)
(2.28284 0.00204238 5.03682e-21)
(2.28628 0.00191699 9.95439e-21)
(2.28956 0.00178012 -4.9181e-21)
(2.29269 0.00163741 4.85946e-21)
(2.2957 0.00149391 4.80144e-21)
(2.29861 0.00135402 0)
(2.30142 0.00122148 0)
(2.30414 0.00109925 -4.63023e-21)
(2.30679 0.000989406 0)
(2.30935 0.000893217 0)
(2.31183 0.000811138 8.92654e-21)
(2.31423 0.000743032 0)
(2.31653 0.000688333 4.35412e-21)
(2.31873 0.000646356 -4.3002e-21)
(2.32083 0.000616322 0)
(2.32281 0.000597464 4.19347e-21)
(2.32466 0.000589235 0)
(2.32639 0.000591335 0)
(2.32797 0.000603809 -4.03633e-21)
(2.32941 0.000627141 7.9693e-21)
(2.33068 0.000662511 -3.9334e-21)
(2.3318 0.000711184 0)
(2.33273 0.000776413 0)
(2.33348 0.000858923 3.78164e-21)
(2.334 0.000965898 0)
(2.33431 0.00109519 3.68236e-21)
(2.33433 0.00126647 0)
(2.33409 0.0014646 0)
(2.33344 0.00174545 0)
(2.33247 0.00204635 3.48898e-21)
(2.33088 0.0025287 0)
(2.32882 0.00297431 -3.39516e-21)
(2.32587 0.00386062 0)
(2.32202 0.0044806 0)
(2.31707 0.00625666 6.51806e-21)
(2.30982 0.00698305 -6.4312e-21)
(2.30217 0.0109188 0)
(2.2874 0.0113402 0)
(2.27711 0.0210995 0)
(2.24334 0.0200819 1.83562e-20)
(2.23509 0.0478922 0)
(2.15217 0.0460235 -1.19671e-20)
(0.00474681 0.0864148 9.24286e-24)
(0.0130009 -0.00842271 -5.22819e-21)
(0.0359298 -0.116357 0)
(0.0658411 -0.207535 5.1396e-21)
(0.104898 -0.27857 0)
(0.147889 -0.32557 0)
(0.191699 -0.349323 -2.34959e-23)
(0.234785 -0.354535 -2.48633e-21)
(0.276985 -0.346944 -2.42381e-21)
(0.318438 -0.330827 -2.41814e-21)
(0.35902 -0.308558 0)
(0.39802 -0.280857 0)
(0.434128 -0.247365 2.24065e-21)
(0.465639 -0.20736 4.37595e-21)
(0.490517 -0.160236 -4.27058e-21)
(0.506734 -0.105901 0)
(0.512156 -0.0448408 -4.07472e-21)
(0.505135 0.0217119 2.05078e-21)
(0.484069 0.0920615 0)
(0.448537 0.16403 -3.86979e-21)
(0.398066 0.235182 -1.97265e-21)
(0.333197 0.302784 3.81268e-21)
(0.255566 0.364151 1.95496e-21)
(0.167739 0.416799 0)
(0.0720556 0.45871 -3.80888e-21)
(-0.0293307 0.487907 -3.81314e-21)
(-0.134366 0.502776 0)
(-0.241476 0.502224 -3.80627e-21)
(-0.349525 0.48617 0)
(-0.459572 0.460617 -3.75931e-21)
(-0.578749 0.450123 -1.89422e-21)
(-0.706529 0.454258 0)
(-0.833648 0.453488 0)
(-0.958623 0.446432 0)
(-1.08361 0.440229 0)
(-1.21045 0.436968 0)
(-1.33513 0.431827 0)
(-1.45667 0.424778 -3.19963e-21)
(-1.5752 0.419944 4.73025e-21)
(-1.68879 0.41295 0)
(-1.7966 0.401414 0)
(-1.90054 0.390081 0)
(-2.00037 0.377781 -1.8293e-22)
(-2.09406 0.361044 -2.82113e-21)
(-2.18288 0.339473 -5.28141e-21)
(-2.26661 0.318325 5.11503e-21)
(-2.34361 0.298385 2.38656e-21)
(-2.40854 0.271243 -2.50032e-21)
(-2.45677 0.23492 1.79104e-22)
(-2.4883 0.193618 -2.20556e-21)
(-2.50464 0.149748 0)
(-2.50689 0.104962 -2.13834e-21)
(-2.49656 0.0603946 1.50157e-22)
(-2.47541 0.0170709 0)
(-2.44497 -0.0237104 0)
(-2.40656 -0.0609781 2.13542e-21)
(-2.36118 -0.0941912 0)
(-2.30969 -0.123201 0)
(-2.25279 -0.148101 -2.1388e-21)
(-2.19114 -0.169158 -4.53442e-21)
(-2.12533 -0.186718 2.38243e-21)
(-2.05591 -0.201148 0)
(-1.98337 -0.212807 -2.4722e-21)
(-1.90817 -0.222054 0)
(-1.83077 -0.229208 -2.4852e-21)
(-1.75158 -0.234575 -2.62677e-21)
(-1.67094 -0.238456 5.28853e-21)
(-1.58916 -0.241166 2.66794e-21)
(-1.50645 -0.24301 0)
(-1.42292 -0.244285 -5.63165e-21)
(-1.3386 -0.245222 0)
(-1.25346 -0.245983 -8.81195e-21)
(-1.16746 -0.246654 -5.96791e-21)
(-1.08058 -0.247274 -6.07828e-21)
(-0.992798 -0.247874 6.18753e-21)
(-0.904104 -0.248496 -9.46686e-21)
(-0.814436 -0.249198 0)
(-0.723666 -0.249991 0)
(-0.631661 -0.250813 6.61129e-21)
(-0.538381 -0.25146 1.00914e-20)
(-0.443913 -0.251696 0)
(-0.348497 -0.251299 -3.47442e-21)
(-0.252475 -0.250154 0)
(-0.156232 -0.248253 1.06541e-20)
(-0.0601293 -0.245692 3.33126e-23)
(0.0355639 -0.24264 -3.19291e-23)
(0.130699 -0.239278 -7.3225e-21)
(0.225204 -0.235748 0)
(0.319052 -0.23213 7.44879e-21)
(0.412229 -0.228422 2.69696e-23)
(0.504706 -0.224566 0)
(0.596411 -0.22047 0)
(0.687216 -0.216009 0)
(0.77694 -0.21108 -7.67991e-21)
(0.865341 -0.205583 0)
(0.952152 -0.199463 0)
(1.03706 -0.192704 0)
(1.11972 -0.185319 0)
(1.19986 -0.177364 0)
(1.27719 -0.168907 -7.65196e-21)
(1.35148 -0.16005 0)
(1.42253 -0.150887 -7.58914e-21)
(1.49017 -0.141533 -7.54112e-21)
(1.55428 -0.13211 7.48674e-21)
(1.61478 -0.12273 0)
(1.67166 -0.113534 7.36213e-21)
(1.72495 -0.104584 0)
(1.77475 -0.0959454 7.22176e-21)
(1.82121 -0.0876631 -7.1476e-21)
(1.86451 -0.0797947 -2.12056e-20)
(1.9048 -0.0723709 0)
(1.94227 -0.0654036 -2.07425e-20)
(1.97708 -0.0588899 -6.83141e-21)
(2.00939 -0.0528172 0)
(2.03936 -0.0471694 -1.33593e-20)
(2.06711 -0.0419316 -1.3205e-20)
(2.09279 -0.0370934 1.95799e-20)
(2.11651 -0.0326488 0)
(2.13841 -0.0285943 6.37645e-21)
(2.15863 -0.0249262 6.30175e-21)
(2.17729 -0.0216377 1.86807e-20)
(2.19454 -0.0187157 0)
(2.21051 -0.0161416 0)
(2.22534 -0.0138923 0)
(2.23915 -0.0119411 5.93932e-21)
(2.25205 -0.0102604 0)
(2.26414 -0.00882174 0)
(2.27551 -0.00759741 -5.73524e-21)
(2.28625 -0.00656106 -5.66819e-21)
(2.29642 -0.00569018 0)
(2.30607 -0.00496531 0)
(2.31526 -0.00436867 -1.09432e-20)
(2.32402 -0.00388334 0)
(2.33239 -0.0034947 1.06882e-20)
(2.34041 -0.00318903 1.05622e-20)
(2.34809 -0.00295353 0)
(2.35547 -0.00277651 0)
(2.36256 -0.00264804 -1.01936e-20)
(2.36938 -0.00255978 -2.43443e-25)
(2.37595 -0.00250438 -2.01392e-25)
(2.38228 -0.00247518 0)
(2.38841 -0.00246573 -1.94371e-20)
(2.39434 -0.00246973 0)
(2.40009 -0.00248123 0)
(2.40568 -0.00249465 0)
(2.41113 -0.00250503 9.2601e-21)
(2.41643 -0.00250812 0)
(2.42161 -0.00250052 -1.8073e-20)
(2.42667 -0.00247974 -8.92614e-21)
(2.43161 -0.00244424 0)
(2.43642 -0.00239319 -8.70786e-21)
(2.44111 -0.00232636 0)
(2.44567 -0.00224402 0)
(2.45009 -0.00214668 -2.51595e-20)
(2.45437 -0.00203507 1.65619e-20)
(2.45849 -0.00190995 0)
(2.46245 -0.00177145 1.61442e-20)
(2.46624 -0.00161972 -7.96888e-21)
(2.46985 -0.00145312 0)
(2.47328 -0.00127109 0)
(2.47651 -0.00106835 0)
(2.47953 -0.000845342 -2.26886e-20)
(2.48235 -0.000589289 0)
(2.48492 -0.000306609 -7.36445e-21)
(2.48724 3.52602e-05 0)
(2.48927 0.000408647 0)
(2.49103 0.000899206 0)
(2.49237 0.00141141 0)
(2.49339 0.00217563 0)
(2.49377 0.00289387 0)
(2.49384 0.00419538 -1.33923e-20)
(2.49274 0.00519907 0)
(2.49152 0.0076305 -6.51762e-21)
(2.48791 0.00898063 1.92873e-20)
(2.48499 0.0139718 0)
(2.47672 0.0157 0)
(2.47178 0.026987 -1.2363e-20)
(2.45456 0.0296005 -1.22312e-20)
(2.44854 0.0576142 1.20674e-20)
(2.41712 0.0654158 1.19665e-20)
(0.00762024 0.0501364 7.87875e-21)
(0.0246669 -0.0570023 7.82607e-21)
(0.0558635 -0.177523 5.16886e-21)
(0.0928657 -0.279583 2.55104e-21)
(0.129797 -0.354524 0)
(0.16132 -0.398701 -5.00006e-21)
(0.187785 -0.417255 2.4438e-21)
(0.211771 -0.41845 0)
(0.236057 -0.409187 2.42553e-21)
(0.261992 -0.393122 0)
(0.289389 -0.370881 -4.59647e-21)
(0.316815 -0.341263 0)
(0.342195 -0.30251 -2.24231e-21)
(0.363149 -0.253076 -4.3792e-21)
(0.377271 -0.192068 4.27374e-21)
(0.382503 -0.119432 0)
(0.376837 -0.0360442 4.07763e-21)
(0.35913 0.0559796 0)
(0.327837 0.153751 0)
(0.283129 0.253075 3.87256e-21)
(0.224918 0.349568 0)
(0.15385 0.438942 -1.34149e-22)
(0.0716492 0.517553 0)
(-0.0192504 0.58262 0)
(-0.116379 0.632522 1.20207e-22)
(-0.217827 0.666445 3.81585e-21)
(-0.32189 0.683937 3.70176e-21)
(-0.427721 0.685183 3.8089e-21)
(-0.536265 0.675565 0)
(-0.6545 0.670776 7.41153e-21)
(-0.781159 0.67325 0)
(-0.907138 0.670574 3.55125e-21)
(-1.03187 0.663489 0)
(-1.15683 0.655205 0)
(-1.28209 0.646286 -3.32829e-21)
(-1.40585 0.634579 0)
(-1.52729 0.622537 3.14066e-21)
(-1.6466 0.611925 1.64065e-22)
(-1.76038 0.597417 -6.03924e-21)
(-1.86869 0.580136 5.6463e-21)
(-1.9718 0.56394 0)
(-2.0674 0.544272 0)
(-2.15619 0.518547 2.28948e-21)
(-2.23944 0.491814 0)
(-2.31606 0.465568 2.54841e-21)
(-2.38088 0.430094 -2.46515e-21)
(-2.42872 0.381781 -2.38792e-21)
(-2.46019 0.326145 0)
(-2.47717 0.266451 2.25679e-21)
(-2.48094 0.204762 2.2062e-21)
(-2.47286 0.142597 -3.92788e-21)
(-2.45431 0.0815895 2.13864e-21)
(-2.4267 0.0230778 2.12202e-21)
(-2.39131 -0.0318511 0)
(-2.34926 -0.0822865 0)
(-2.30144 -0.127701 -2.13525e-21)
(-2.24859 -0.167862 0)
(-2.19135 -0.202802 0)
(-2.13024 -0.232781 4.44928e-21)
(-2.06573 -0.258164 4.53365e-21)
(-1.9982 -0.279359 0)
(-1.928 -0.296789 0)
(-1.85547 -0.310864 0)
(-1.7809 -0.321971 0)
(-1.70462 -0.33048 5.05781e-21)
(-1.62695 -0.336731 -5.06996e-21)
(-1.54821 -0.341106 -5.28757e-21)
(-1.46871 -0.343995 -1.07177e-20)
(-1.38864 -0.345829 0)
(-1.30805 -0.347021 7.7769e-23)
(-1.22687 -0.347919 0)
(-1.14494 -0.34873 5.85578e-21)
(-1.06212 -0.349538 6.91164e-23)
(-0.978332 -0.350334 6.07754e-21)
(-0.89357 -0.351112 -6.18683e-21)