/*--------------------------------*- C++ -*----------------------------------*\
  =========                 |
  \\      /  F ield         | OpenFOAM: The Open Source CFD Toolbox
   \\    /   O peration     | Website:  https://openfoam.org
    \\  /    A nd           | Version:  7
     \\/     M anipulation  |
\*---------------------------------------------------------------------------*/
FoamFile
{
    version     2.0;
    format      ascii;
    class       volScalarField;
    location    "37";
    object      p;
}
// * * * * * * * * * * * * * * * * * * * * * * * * * * * * * * * * * * * * * //

dimensions      [0 2 -2 0 0 0 0];

internalField   nonuniform List<scalar> 
918
(
3.90788
17.1098
0.178188
3.83385
0.150293
16.2029
1.1079
2.65405
3.37251
0.586217
0.528467
2.76519
12.2128
6.36973
1.5345
0.168411
2.70037
0.529016
3.27138
0.284022
2.11096
3.53698
3.66247
3.39276
2.71821
3.39934
8.92825
0.255042
0.0265111
0.0918564
0.137077
0.0714679
-0.00034205
13.5913
14.726
15.1792
2.91429
1.22958
1.22853
1.30054
1.01601
0.904931
2.66123
2.67433
1.73015
2.64861
2.64266
3.05552
3.35668
3.37391
3.41793
3.38287
3.42946
1.36438
0.565806
0.54164
0.583244
0.590833
0.601546
0.541764
0.534839
0.499189
0.468976
2.71431
2.7759
2.78383
2.74798
2.73841
15.381
14.4474
15.0774
13.0246
13.3775
11.4065
10.6311
6.90137
7.37212
5.88111
5.3146
1.07343
0.783156
1.8791
2.29825
0.0235132
0.203914
0.238951
2.7022
2.70717
2.70343
2.70395
1.98472
0.564134
0.588623
3.19712
3.14548
3.5321
3.58291
3.46466
3.48364
0.306528
0.299403
0.251086
0.243663
0.193876
2.43815
2.54598
3.34431
3.25694
2.72928
2.71661
2.72304
2.42607
2.69413
2.7005
4.54328
4.8816
3.98725
4.4604
8.31669
7.67385
9.68508
10.3729
0.083847
0.0363784
0.114415
0.0332604
0.0777461
2.89767
2.87239
2.92512
2.93589
2.96565
1.01238
0.754495
1.37185
1.48007
1.39618
1.46846
0.648478
0.815138
0.723563
1.97792
2.67855
2.68495
1.55363
1.68208
1.61373
1.79769
1.84929
2.98188
3.03187
3.0021
3.18305
3.08784
3.13075
3.44854
3.38002
3.41992
1.46041
1.53713
1.28115
1.19627
0.521077
0.529479
0.528909
0.59522
0.591618
0.660493
0.703315
0.540424
0.510148
0.577661
0.551733
0.564765
0.43334
0.404269
2.68073
2.65389
2.74574
2.7681
2.85733
2.83838
2.79905
2.82171
9.45042
9.9764
10.1164
9.48966
-0.349941
-1.21308
2.64331
2.95498
0.0638691
0.0490495
0.0257181
0.0515367
0.0676909
0.0131658
0.393289
0.361276
0.277315
0.335732
2.70471
2.70045
2.03966
2.09574
1.94856
1.88692
3.01398
3.03216
3.10294
3.05876
0.384286
0.328102
0.355353
2.62492
2.58316
2.6108
2.36022
2.29269
2.48162
2.51453
2.69901
2.70417
2.70292
4.90863
5.28538
10.6747
11.0942
11.164
11.727
13.3641
13.1081
12.1058
2.79458
2.84693
2.8255
2.99211
2.94465
2.97294
2.87223
2.9101
2.89205
0.539178
0.361746
1.77341
1.70834
1.54962
1.6276
1.99961
2.02601
2.69942
2.68996
2.69528
1.91742
1.97975
1.09803
1.01545
2.55061
2.63149
2.59285
8.80755
7.89617
8.95199
8.39124
7.72262
8.20374
0.0550027
-0.71178
-0.265875
4.11054
3.31692
3.73853
0.477789
0.402762
0.42849
2.12265
2.10877
1.63006
1.79664
1.71231
5.65621
6.14846
7.0838
5.87292
6.4929
7.08505
6.78562
1.93473
1.84416
1.88846
2.1056
2.12702
2.21657
2.05265
2.12482
0.769871
0.936771
0.859806
2.121
2.12061
2.11508
3.30195
3.36551
0.167274
0.240898
3.4145
3.39201
0.00937416
0.0351699
3.32293
1.33407
1.90584
3.12173
3.05671
3.34117
0.635929
1.39731
0.565656
0.698455
0.538067
2.79056
2.75542
2.64464
0.0914156
0.245412
0.334995
0.668114
3.26821
3.19042
3.32579
3.36311
3.3684
0.136409
0.180253
0.122237
0.26609
0.206065
0.253951
2.91885
2.92717
1.29955
3.32574
3.36221
3.36459
3.17573
3.29321
3.18215
0.184515
0.109861
0.122071
2.25217
2.49628
3.1752
2.72165
3.12242
3.09433
2.81938
4.04435
3.5586
3.5983
4.02961
2.67877
2.65123
1.95412
1.78735
2.00229
1.97209
3.10526
3.06117
3.03486
3.0083
3.22991
3.17223
3.27535
3.19817
3.25243
3.29087
0.618293
0.622315
0.625985
0.553572
1.39895
1.54892
1.23948
1.27349
0.925769
0.504866
0.499051
0.545665
0.522352
0.60759
0.529397
0.608244
0.521734
0.479295
0.453571
0.595719
0.533667
0.534489
2.7934
2.78557
2.75494
2.75849
2.77251
2.78729
2.67054
2.71649
2.67519
2.53186
2.59853
2.54473
0.150638
0.135471
0.105016
0.255352
0.273298
0.213033
0.163026
0.243883
0.234382
0.168577
0.298895
0.285843
0.763107
0.702427
2.09344
1.91596
1.52186
3.08067
3.16618
3.07651
3.22087
3.27304
3.28647
3.23873
3.17597
2.94151
2.94181
2.89315
2.88821
1.31652
1.11209
1.43813
1.4308
1.39662
2.70592
2.45966
2.33771
2.37634
2.63563
3.17684
2.32234
2.17967
2.1847
1.66909
2.53768
1.92776
2.43459
2.29874
4.90199
5.30411
4.89792
4.40008
4.48486
0.564751
2.62068
1.63748
1.62107
1.87951
1.78978
2.56826
2.67804
2.67831
2.61994
2.63425
2.65386
2.64141
2.66164
2.66007
2.65194
2.47984
2.25148
2.12222
2.13
2.70059
2.51611
2.57767
2.50959
2.98689
3.05024
3.00686
2.93475
2.98765
2.93083
2.92343
2.95448
3.12095
3.08732
3.06206
3.10905
0.621345
0.602263
0.734262
0.715415
0.657573
0.616268
0.730124
1.03207
0.953152
1.50032
1.57432
0.977846
0.808895
0.795492
0.99979
1.18785
1.18943
0.866355
0.988092
1.06659
0.975635
1.17685
1.07546
0.54989
0.60231
0.578659
0.563733
0.708459
0.832202
0.731588
0.497045
0.522272
0.450706
0.42063
0.724955
0.601354
0.608542
0.765293
0.224315
0.25604
0.284553
0.481486
0.377486
0.418907
2.86695
2.82113
2.83954
2.73989
2.75005
2.7401
2.69335
2.87871
2.84249
2.85953
2.68904
2.70259
2.67412
2.70991
2.75955
2.79493
2.90297
2.87102
2.77323
2.79289
2.74963
2.74003
2.65259
2.59187
2.58203
0.208923
0.157976
0.187364
0.158113
0.111436
0.139995
0.436881
0.314884
0.380985
0.353031
0.396113
0.281703
0.260346
0.948065
1.06674
1.08984
0.887561
0.890502
2.06955
2.07494
1.92734
1.80748
1.87144
1.97473
1.98918
1.65904
1.7931
1.74526
1.98049
2.11875
3.16745
3.15994
3.12426
3.10295
3.12943
1.44702
1.70052
1.7475
1.8745
1.32467
1.49896
1.85589
1.72712
1.93951
1.5205
2.70319
2.71105
2.65602
2.70435
2.709
2.45321
2.5647
2.6384
2.61332
2.67844
2.68914
2.58643
2.64739
2.63571
2.55735
2.56106
2.49198
2.52874
2.47298
2.4508
2.72598
2.71286
2.74567
2.68903
2.73185
2.67068
2.70869
2.71731
2.73744
2.64193
2.57178
2.5748
2.62244
2.59276
2.63424
2.65345
1.87906
1.9463
1.44854
1.10109
1.21682
0.653942
0.595235
0.93453
1.39948
0.777318
0.502218
-0.110926
2.55049
3.06669
2.64767
2.56072
2.61148
2.63402
2.62031
2.58276
2.59341
2.68131
2.69043
2.69618
2.60795
2.60696
2.62521
2.60777
2.55222
2.3052
2.29364
2.20959
1.94542
2.00231
2.37334
2.24665
2.11223
2.11612
2.48303
2.32723
2.42298
2.46219
2.31575
2.26875
2.57974
2.66353
2.69123
2.66364
2.47227
2.4919
2.53614
2.5852
2.60991
2.65385
2.96019
3.02707
3.03851
3.00575
2.98572
2.99802
2.96534
2.97956
3.03863
3.05487
3.03462
0.571987
0.598408
0.588149
0.566653
0.627765
0.609666
0.830361
0.791977
0.649843
0.693198
0.660689
0.682109
0.601062
0.60887
1.03901
1.10307
1.15973
1.04436
1.34396
1.57398
1.68233
1.57271
1.23762
1.26182
1.3856
0.7307
0.731825
0.682686
0.764184
0.789772
0.523053
0.450216
0.407608
0.504437
0.535546
0.396152
0.34648
0.366127
0.451957
0.406811
0.356396
2.84794
2.81975
2.8173
2.78999
2.79849
2.84592
2.87353
2.84788
2.8662
2.87163
2.82051
2.80568
2.82735
0.357328
0.306363
0.32686
0.320309
0.332119
0.313004
0.336823
1.52934
1.30073
1.40873
1.25221
0.997286
1.05599
1.68479
1.91146
1.84378
2.07296
2.02477
2.01588
1.93143
1.96381
1.72063
1.96811
1.82683
2.09774
2.04654
2.09122
1.99114
2.02872
2.31861
2.41258
2.02102
2.12379
2.19558
1.95231
1.99969
2.08497
2.30649
1.38627
1.56382
1.78939
1.83611
1.51197
1.73452
1.48125
1.57377
1.66684
1.75055
1.78334
2.6907
2.68472
2.698
2.69508
2.71094
2.70156
2.68671
2.71116
2.71911
2.69634
0.632319
1.02228
0.203897
1.20419
1.56514
2.68246
2.50892
2.88418
2.77991
2.68188
2.66189
2.65469
2.61201
2.67672
2.64921
2.24395
2.41023
2.36031
2.38172
2.24258
2.15039
2.60031
2.60879
2.61212
2.64316
2.64323
2.70174
2.95317
2.93633
2.94269
2.94984
2.89794
2.90272
0.887207
0.80197
0.955816
0.949932
0.841743
0.777203
0.464008
0.397123
0.354304
0.329918
0.378887
0.387985
1.58331
1.5778
1.31337
1.48856
1.36597
1.14745
1.19303
1.26297
1.42364
1.52158
1.80304
2.08831
1.9386
1.98131
1.74856
1.8421
1.79123
1.64735
1.68458
1.85658
1.83832
2.06821
1.24242
1.56488
2.95656
2.9516
2.7199
2.44032
2.15327
2.42194
2.55468
2.43601
2.50538
2.60471
2.57434
1.49906
1.41381
2.21643
2.5589
1.8253
1.69673
1.73805
2.05002
2.05362
)
;

boundaryField
{
    wall-4
    {
        type            zeroGradient;
    }
    velocity-inlet-5
    {
        type            zeroGradient;
    }
    velocity-inlet-6
    {
        type            zeroGradient;
    }
    pressure-outlet-7
    {
        type            fixedValue;
        value           uniform 0;
    }
    wall-8
    {
        type            zeroGradient;
    }
    frontAndBackPlanes
    {
        type            empty;
    }
}


// ************************************************************************* //
