/*--------------------------------*- C++ -*----------------------------------*\
  =========                 |
  \\      /  F ield         | OpenFOAM: The Open Source CFD Toolbox
   \\    /   O peration     | Website:  https://openfoam.org
    \\  /    A nd           | Version:  7
     \\/     M anipulation  |
\*---------------------------------------------------------------------------*/
FoamFile
{
    version     2.0;
    format      ascii;
    class       surfaceScalarField;
    location    "37";
    object      phi;
}
// * * * * * * * * * * * * * * * * * * * * * * * * * * * * * * * * * * * * * //

dimensions      [0 3 -1 0 0 0 0];

internalField   nonuniform List<scalar> 
1300
(
3.75095
5.62643
-2.38154
3.75095
-2.73567
5.62643
-2.03463
2.03463
-0.427924
0.427924
1.9072
1.84375
-1.22493
1.22493
-1.4388
1.4388
-0.94846
0.94846
-3.87943
3.87943
-3.1626
3.1626
2.05657
-2.05657
-1.92407
1.92407
-0.504849
0.504849
-1.58604
1.58604
1.94969
-1.94969
-1.69461
1.69461
-0.742688
0.742688
-1.50143
5.25239
2.24952
2.24952
-0.801074
0.801074
-3.57321
3.57321
4.63401
-4.63401
4.93168
-4.93168
-2.55015
-3.21913
1.03912
-7.73123
-1.69655
-1.69655
-8.391
8.391
-2.76457
2.86186
1.12999
-1.12999
-0.375602
0.375602
-1.8857
-0.148927
-1.8857
2.09758
-0.062952
2.09758
-0.464361
0.0364372
-0.464361
1.57524
-1.57524
0.410109
0.0178153
0.410109
1.2543
-1.2543
-1.90765
3.81486
1.8433
-1.75661
7.009
-1.99435
3.8381
-2.41606
2.41606
-1.23238
0.00744404
-1.23238
1.21704
0.00789567
1.21704
-2.36173
2.36173
-1.31846
-0.12034
-1.31846
1.49374
-0.0549343
1.49374
1.18585
-1.18585
-0.964802
0.016342
-0.964802
0.903197
0.0452627
0.903197
1.36026
4.26617
-6.98669
9.84855
-4.26617
0.386738
3.48672
0.392706
3.48672
-3.14861
-0.0139905
-3.14861
3.25877
-0.0961696
3.25877
1.8291
0.227469
1.8291
-2.36882
0.312246
-2.36882
-4.49709
-4.88978
-2.01061
0.0865444
-2.01061
-0.507279
0.00243035
-0.507279
0.514545
-0.0096959
0.514545
-1.57714
1.57714
-1.78503
0.198995
-1.78503
1.51729
0.432404
1.51729
1.64933
2.10162
5.40028
-5.40028
3.45059
-1.53322
-0.161385
-1.53322
-1.80815
-3.12353
1.80815
-0.113546
-0.489498
-0.253189
-0.489498
1.77753
0.471985
1.77753
0.866889
0.0363085
-0.866889
0.0658147
1.48064
-1.48064
0.485698
0.315376
0.485698
-3.51775
3.51775
3.38069
-0.12192
-3.38069
-0.192522
4.42915
0.204854
4.42915
-4.78439
0.150381
-4.78439
3.77133
-6.99046
-4.22247
1.79557
0.128497
-1.79557
0.0990204
1.15935
-0.0293672
1.15935
-1.07775
1.07775
-1.16938
0.0393891
-1.16938
-0.322871
-0.052731
-0.322871
0.44008
-0.0644774
0.44008
-1.80222
-0.0834885
-1.80222
-2.01846
0.233431
2.01846
0.0791227
0.641018
-0.641018
-0.495385
0.0310236
-0.495385
-1.6691
-0.133113
1.6691
-0.0938653
-1.56306
-0.0121794
-1.56306
-1.19669
0.0273173
1.19669
0.0576058
1.45112
0.326413
-1.45112
0.196822
-1.77245
3.87407
-1.9785
3.8218
-2.2153
-0.200759
-2.2153
2.54164
-0.125578
2.54164
1.39652
0.189512
-1.39652
0.164147
1.26784
-0.0508022
1.26784
-2.38869
0.0269634
-2.38869
2.23253
0.129198
2.23253
1.28405
-0.0162067
-1.28405
-0.0344177
1.48838
0.00535799
1.48838
1.18873
-0.00288479
1.18873
-1.15014
-0.0357135
-1.15014
1.04378
-1.04378
1.01516
0.0286254
-1.01516
0.0503569
-14.4245
14.5749
-0.189897
-14.2346
3.29682
3.29682
1.08725
0.74185
1.08726
-2.67507
0.306251
-2.67507
4.29967
-8.52214
4.79106
-9.28816
4.13322
-11.8645
4.33013
-9.21992
2.17555
-2.17555
2.1323
0.0432475
-2.1323
0.121693
-0.497046
-0.0102333
-0.497046
-1.40493
-0.172212
-1.40493
1.82318
-0.246039
1.82318
-1.20219
1.20219
-1.31251
0.110325
1.31251
0.204776
1.51607
-0.0276875
-1.51607
-0.017153
0.40778
0.00232881
-0.40778
-0.0817187
1.55506
-0.0744235
1.55506
-1.3141
-0.166537
-1.3141
-0.498888
0.0018421
0.498888
-0.0131894
-3.84918
0.331425
-3.84918
-14.1269
-0.107679
-13.7342
-4.89207
-4.89207
3.49894
13.3475
-1.16376
0.013627
1.16376
-0.00440904
1.14135
0.0608388
-1.14135
0.0636003
-1.06641
0.0226271
1.06641
0.0113362
-0.376293
0.0534214
-0.376293
-0.51235
0.51235
-0.459852
-0.0524982
0.459852
-0.0197721
0.698695
-0.057677
0.698695
0.509254
0.00529091
-0.509254
0.0138691
-1.60953
0.0464761
-1.60953
2.54237
-0.000729203
2.54237
-1.2719
-0.0421975
1.2719
-0.0831669
-0.100863
14.6758
-3.19596
0.0473516
3.19596
-14.8806
14.928
-0.54269
0.166398
0.54269
0.544565
3.11573
0.402021
-3.11573
0.44066
2.20338
0.0291549
-2.20338
0.0278263
-1.16243
-0.242496
-1.16243
-2.00777
-0.20753
2.00777
-0.184591
-15.0744
-0.323403
15.3978
-15.1705
4.17258
0.256572
-4.17258
15.1845
-0.595397
-0.0456213
0.595396
-0.0830465
0.88682
-0.188125
0.88682
1.63447
-0.0794106
-1.63447
0.0249351
-2.51824
0.129544
2.51824
0.0241323
-1.00216
-0.160271
1.00216
-0.115343
-4.37061
4.84259
2.63839
-3.21569
-3.77476
-6.33923
1.42479
2.44928
4.87538
-6.58377
-5.28068
-6.48475
8.83836
-8.3977
-9.18616
9.41363
7.76078
-7.77296
-6.09876
6.30353
6.85418
-6.79657
1.9068
1.90806
7.93197
-7.92453
-12.5914
12.3907
7.81437
-7.93471
12.7753
-12.7483
-14.6682
14.6974
-5.33757
5.35391
-6.69147
6.65576
-6.93905
6.85589
-4.2934
-4.99476
9.33065
-9.24411
10.4465
-10.6079
-9.26252
9.46151
3.33496
1.50763
3.66138
-2.11286
4.01965
-1.72524
4.36363
4.51433
-8.80773
4.0078
-7.78257
4.76237
5.6841
-4.64882
-1.6904
-5.92207
5.8927
-5.68305
5.69439
9.20262
-9.35155
-2.09026
3.99832
-1.73154
4.18083
-3.77015
-2.3286
3.33775
1.53763
5.06012
4.27053
-5.18862
-1.29614
-8.17033
8.09092
-8.46793
8.30139
0.0611449
7.35793
-7.41907
3.63436
-2.52068
9.87861
6.31768
6.62393
7.40212
-7.00009
0.995589
-8.41466
-8.60718
-1.83164
1.86266
1.80868
-1.79087
5.57507
2.18571
5.4812
-5.46599
-2.30697
-5.41952
3.727
2.57653
3.83733
3.95572
2.89846
3.98304
3.508
-3.50089
-0.0071086
-3.88728
7.39528
0.497427
-6.21588
-4.67826
4.46668
3.46529
4.47457
-4.99263
-2.9319
-4.82848
-6.77664
-5.81478
-6.98417
7.53221
4.85845
7.40663
-9.07062
9.09475
4.7094
3.10497
4.65446
-4.53875
-3.39596
-4.57317
14.7856
-3.42331
-11.3623
-7.71252
-6.95573
7.58332
5.19197
8.26628
6.43113
8.29411
4.7713
10.0143
-9.96327
3.00754
-3.27653
-2.06104
-3.22617
3.06802
2.28589
3.11329
-3.86122
-2.83025
-3.8476
-3.92994
-3.00912
3.93282
2.72294
-4.10857
-4.35936
4.15077
2.70512
4.36035
-9.64103
4.85957
-9.85433
-6.28354
-2.96057
-6.16185
5.84453
3.42183
-9.26637
-2.9632
12.4362
-6.75207
10.7458
-5.63483
-4.97303
-5.65198
-6.95253
-2.30999
-6.7191
-5.18152
4.93902
-5.60449
5.35846
15.4231
-8.41784
-7.00529
-4.05625
-2.74032
3.85943
-0.198054
-4.34995
4.34284
-0.3303
4.03333
5.54096
5.3429
-3.55005
-2.133
-3.48645
3.36947
2.32492
3.3921
6.85383
2.34879
6.79088
-6.07831
-3.27323
-6.1618
4.77741
-4.83014
1.92617
-1.92432
5.10984
3.19155
-5.03541
-3.13491
7.72019
-3.59878
-4.12141
-13.9836
11.3029
2.68064
-4.10498
-0.470627
0.27206
-5.72598
-3.46018
5.41374
1.2102
12.5131
9.05297
-7.13872
7.47015
8.25905
8.13713
-0.470054
3.20689
-3.0405
5.67603
-3.15413
-2.5219
4.75081
-4.88393
-1.41099
-6.45196
5.04098
0.597277
1.18062
-1.43381
-1.34767
-0.483966
-1.33381
1.12316
0.685525
1.12549
0.692418
1.17025
-2.75851
0.584186
2.17433
-2.0661
-1.20668
-4.38043
-1.96336
6.34379
5.4733
2.61761
-5.49824
0.0787215
1.79648
-1.80618
-0.478498
-3.90193
2.84669
-3.32519
-5.09957
-2.15135
7.25093
-3.12263
-0.363827
3.06179
0.775539
-3.55175
-2.37031
3.51236
0.470676
-4.04781
8.09306
-4.04525
-6.18081
2.87623
4.51905
5.45277
-6.06679
3.16584
2.90095
-1.54774
3.74399
0.730587
3.69318
-9.57181
6.63992
5.623
3.83852
-5.81251
0.984025
-8.58779
13.1011
-11.3321
-1.76905
6.7233
6.37783
7.81139
7.61175
-5.09732
12.9087
-1.49312
-9.83896
10.0809
-6.2424
7.52131
-13.7637
-15.1331
5.2941
-10.1255
12.1431
-2.01757
-2.93871
-6.13191
13.0642
-1.27399
-11.7902
6.13264
-7.31384
-6.02375
13.3376
-10.7371
9.41971
-3.23079
-6.18892
-7.48778
-5.26055
7.35824
1.73651
-13.7208
16.7283
-3.70649
3.98921
0.665254
3.99457
5.67185
-8.41508
2.74322
5.0653
-8.29609
3.62236
-12.0374
-6.70181
13.0991
-6.39732
-9.66237
-8.79181
-0.870567
2.55792
14.1704
-8.98905
6.6163
2.37275
2.78334
0.60876
-2.81197
-0.414206
0.33593
5.40275
-5.73868
3.44922
3.48552
3.95227
1.45048
3.53381
2.35889
-3.5294
-0.3182
-4.93597
1.92686
-2.21304
-4.88796
6.81481
-5.47811
0.590155
-3.43922
-4.73328
8.1725
-5.50026
3.85592
4.23714
6.18084
-6.61967
1.88639
-3.30293
-3.31674
3.59172
-5.80476
2.50869
4.30613
5.21381
0.85445
6.93942
6.15971
-10.3612
0.506919
10.4302
-9.13411
2.25244
6.04167
-8.86874
0.0769333
-6.08492
1.30525
-8.05733
-7.96111
7.1692
-9.47919
-6.59451
6.14178
0.649093
-6.22091
-0.498189
-3.12294
-2.05858
-3.28321
-2.09782
-3.50668
-7.19514
-1.26013
-5.93501
3.67889
-4.1766
-2.80756
4.36119
0.997261
-3.3204
3.27478
-3.66909
3.48097
-0.0750643
4.41791
5.26784
2.52752
-2.87016
5.39769
-6.58768
8.93648
-10.9766
4.38893
4.87918
-8.15241
-6.09744
2.22267
2.55474
2.15819
9.48991
-12.351
2.86114
-10.3981
11.7351
-1.33696
-15.0793
4.6812
-5.58941
1.75476
0.171406
1.74453
0.488257
2.28269
-2.77095
-1.43607
-1.44926
-3.06097
-4.63837
7.69934
1.59958
-4.39451
2.79493
-4.08289
5.68248
0.0554655
-4.44998
5.70972
-3.42703
5.88112
-4.02743
1.85369
4.29316
7.51095
-3.21778
5.42723
-2.23568
2.34605
-5.56383
-2.29232
-3.80358
6.08947
-4.36892
4.95908
-0.350789
5.30987
-4.61529
1.01651
-0.66302
2.82251
2.88832
5.64721
-4.19673
4.03803
-6.27371
-1.5258
-5.41926
-1.11314
-2.42355
-6.01968
8.44323
7.48173
-9.90528
-5.12637
9.22151
-4.09514
6.6962
-5.12757
-1.56862
-1.91339
-2.91675
1.85997
1.34693
8.04312
-0.222678
-4.90489
-3.26317
-2.71861
3.6361
2.03992
-2.18316
4.8638
1.9111
-0.730478
0.187081
0.938406
1.63856
-1.45148
0.577125
1.06144
-0.856688
1.3059
0.490587
-1.31119
-0.0226174
-1.01567
3.86236
1.15866
-1.84419
0.392708
1.0877
-4.24183
6.23252
-3.41903
-2.81349
7.32023
1.27079
-4.68982
5.18117
-4.5839
2.75137
-4.71474
-1.93845
-6.52234
-4.33663
-3.59821
6.39314
-4.10113
6.71874
1.29357
-6.79746
8.09103
-4.29821
2.14685
-3.17874
3.66933
-1.38427
-1.79447
3.76354
3.48739
-3.68185
-0.220077
0.081691
2.83982
-2.75812
-0.485376
-2.55147
-5.49458
5.96525
-2.80157
5.96741
2.59612
-2.58462
8.55203
2.22407
-4.80869
-3.95674
-4.32057
-1.90774
3.54503
-0.914098
-3.65907
-7.10302
3.67527
0.017909
-9.41427
11.0283
-1.61399
-5.94897
-0.690946
7.41425
-9.26977
0.973686
-5.64742
5.38083
6.11142
6.12933
-11.7829
-0.00736685
-6.92441
1.88427
-8.80868
8.2621
-4.13499
9.42909
-9.77098
6.96342
-8.77372
7.66004
-1.14864
7.9148
-5.17158
3.44746
-8.70801
-6.97149
7.45955
-4.35458
8.1248
-5.27653
13.4013
-8.98301
7.47044
5.93089
-1.44451
-4.20747
-7.22985
5.78534
0.240591
4.23516
5.94993
-3.59104
5.63173
3.00327
-6.30621
-2.80148
-8.74781
2.44161
-4.51068
-2.46756
4.90917
3.71328
4.32203
1.59243
-3.90783
9.64072
-10.5113
-3.2434
-4.71771
7.6002
-1.81487
5.43015
-10.1479
-2.62718
7.82789
-1.04782
-6.78006
0.589957
-7.18446
2.91719
-10.1017
6.562
-7.06019
1.14913
-6.73854
-2.17128
-2.25432
-1.50873
-2.16037
-5.73794
4.22921
-1.05674
2.21804
-8.55491
7.50708
-3.18017
7.40938
-2.55956
-0.723654
2.6749
0.806066
8.21545
-0.253511
-5.84393
-2.00096
6.02301
-4.02204
1.63514
-6.27319
-0.25018
3.01551
4.30472
-8.05648
-0.0959296
-5.93986
-3.30277
5.8575
5.91875
13.4005
1.04944
6.37404
-0.516531
7.42347
1.64166
1.62189
-5.31679
8.17792
3.12644
7.51537
-0.624053
2.47775
1.12047
1.12291
0.683275
1.91131
0.977008
2.92782
0.156873
-1.29238
4.80099
-7.5196
-0.103904
-6.77775
2.63588
6.71397
-4.07809
4.66991
-2.62998
0.647863
-0.142848
-1.20975
1.35259
-2.66475
-1.94022
-0.878789
-1.93065
2.32336
1.93171
-1.44457
-1.22018
0.725767
-5.0624
3.98897
-4.20905
-0.72166
7.36937
-3.20542
0.447292
-1.05856
-2.10418
-2.58815
2.61076
8.20387
0.348159
4.15862
6.31341
3.9431
0.352057
6.55725
-8.57481
-5.48018
-8.58218
-0.320078
7.09417
3.08325
11.0871
9.01414
7.19928
-2.94858
-13.4599
10.7954
-2.61749
9.45845
-2.67839
-7.42327
6.16517
2.77131
-6.81426
-0.245929
-7.6692
-10.2867
-0.584467
8.09155
-7.63098
6.90733
4.84875
1.08626
-1.69448
-0.559846
1.74698
-0.125088
7.29838
-2.17116
-8.56129
10.7324
-4.54281
4.43891
2.45474
2.40906
3.80734
1.17735
-7.38394
-11.462
-2.70946
-1.53237
-5.52295
0.820836
-2.75254
6.61997
-2.18106
5.05135
8.55139
9.19925
-3.3896
-6.51567
7.48474
-2.4334
6.76585
)
;

boundaryField
{
    wall-4
    {
        type            calculated;
        value           uniform 0;
    }
    velocity-inlet-5
    {
        type            calculated;
        value           uniform -3.75095;
    }
    velocity-inlet-6
    {
        type            calculated;
        value           uniform -5.62643;
    }
    pressure-outlet-7
    {
        type            calculated;
        value           nonuniform List<scalar> 8(2.38154 2.73567 5.76928 6.69212 9.38687 7.99379 9.09074 8.46335);
    }
    wall-8
    {
        type            calculated;
        value           uniform 0;
    }
    frontAndBackPlanes
    {
        type            empty;
        value           nonuniform 0();
    }
}


// ************************************************************************* //
