/*--------------------------------*- C++ -*----------------------------------*\
  =========                 |
  \\      /  F ield         | OpenFOAM: The Open Source CFD Toolbox
   \\    /   O peration     | Website:  https://openfoam.org
    \\  /    A nd           | Version:  7
     \\/     M anipulation  |
\*---------------------------------------------------------------------------*/
FoamFile
{
    version     2.0;
    format      ascii;
    class       volScalarField;
    location    "0.22";
    object      epsilon;
}
// * * * * * * * * * * * * * * * * * * * * * * * * * * * * * * * * * * * * * //

dimensions      [0 2 -3 0 0 0 0];

internalField   nonuniform List<scalar> 
12225
(
261.514
229.335
202.526
181.49
166.165
155.706
148.932
144.732
142.228
140.782
139.964
139.496
139.207
138.998
138.817
138.629
138.469
139.394
74.4043
97.5824
104.475
109.105
114.645
121.069
127.654
133.845
139.365
144.118
148.112
151.408
154.097
156.27
158.025
159.4
160.664
161.353
31.9471
44.3629
51.5591
56.2976
60.1522
63.8137
67.4412
70.9953
74.4022
77.5992
80.5427
83.2106
85.6004
87.7233
89.6006
91.2512
92.7281
93.9837
20.8062
26.6661
31.0977
34.3339
36.8354
38.964
40.9047
42.7328
44.4755
46.1386
47.7175
49.2048
50.5947
51.8848
53.0759
54.1709
55.1755
56.0794
17.0807
19.8447
22.2845
24.2528
25.8327
27.1479
28.2883
29.3094
30.246
31.1187
31.9386
32.7109
33.4379
34.1209
34.7611
35.3593
35.9156
36.4215
15.6187
16.8449
18.1011
19.2183
20.1682
20.974
21.6656
22.2689
22.8048
23.289
23.7324
24.142
24.5224
24.8769
25.2076
25.516
25.8025
26.0608
15.0057
15.4483
16.0092
16.5712
17.0864
17.5424
17.9404
18.287
18.5906
18.8594
19.0996
19.3163
19.5133
19.6933
19.8585
20.0103
20.1493
20.2716
14.7446
14.7907
14.9477
15.1532
15.3697
15.5777
15.7676
15.9364
16.0848
16.2148
16.3289
16.4294
16.5182
16.5971
16.6674
16.73
16.7854
16.8311
14.6329
14.4844
14.4154
14.4003
14.4174
14.4511
14.4906
14.5297
14.5653
14.5962
14.6222
14.6432
14.6599
14.6727
14.682
14.6882
14.6914
14.6902
14.5847
14.3444
14.156
14.012
13.9027
13.8187
13.752
13.6968
13.649
13.606
13.5663
13.5287
13.4926
13.4577
13.4236
13.3902
13.3572
13.3239
14.5634
14.2814
14.0337
13.8195
13.6355
13.477
13.3394
13.2184
13.1105
13.0132
12.9245
12.8427
12.7667
12.6956
12.6287
12.5655
12.5056
12.4486
14.5542
14.2552
13.9821
13.7352
13.5137
13.3153
13.1375
12.9773
12.8322
12.7001
12.5791
12.4676
12.3645
12.2685
12.1788
12.0948
12.0159
11.942
14.5491
14.242
13.9563
13.6925
13.4503
13.2287
13.0261
12.8407
12.6708
12.5146
12.3707
12.2377
12.1144
11.9996
11.8926
11.7925
11.6988
11.6118
14.546
14.2346
13.943
13.6709
13.4177
13.1829
12.9655
12.7643
12.578
12.4054
12.2452
12.0963
11.9577
11.8285
11.7077
11.5946
11.4888
11.3909
14.544
14.2306
13.9366
13.6611
13.4033
13.1627
12.9382
12.7289
12.5339
12.352
12.1823
12.0238
11.8756
11.7369
11.607
11.4851
11.3708
11.2651
14.5428
14.2284
13.9337
13.6573
13.3982
13.1557
12.9288
12.7165
12.518
12.3322
12.1582
11.9953
11.8425
11.699
11.5643
11.4377
11.3188
11.2086
14.5422
14.2274
13.9327
13.6565
13.3976
13.155
12.9279
12.7152
12.516
12.3293
12.1543
11.9901
11.8359
11.691
11.5547
11.4263
11.3057
11.1938
14.5423
14.2277
13.9335
13.6579
13.3998
13.1581
12.9318
12.7199
12.5214
12.3353
12.1609
11.9971
11.8432
11.6986
11.5624
11.4342
11.3136
11.2018
14.5433
14.2297
13.9367
13.6625
13.4058
13.1657
12.9411
12.731
12.5342
12.3499
12.1771
12.015
11.8627
11.7196
11.5849
11.4581
11.3389
11.2283
14.5456
14.2344
13.9436
13.6718
13.4176
13.1803
12.9585
12.7514
12.5578
12.3767
12.2072
12.0483
11.8993
11.7594
11.6279
11.5042
11.388
11.2803
14.5493
14.2418
13.9546
13.6865
13.4365
13.2037
12.9871
12.7854
12.5975
12.4223
12.2587
12.106
11.9631
11.8292
11.7037
11.5859
11.4755
11.3736
14.5555
14.2546
13.9745
13.7145
13.4739
13.2518
13.0471
12.8583
12.6838
12.5222
12.3725
12.2333
12.1039
11.9832
11.8705
11.7652
11.6667
11.5759
14.567
14.2806
14.0189
13.7811
13.5664
13.3733
13.1995
13.0423
12.8992
12.7683
12.6482
12.5374
12.4349
12.3396
12.2503
12.1664
12.0875
12.0144
14.5931
14.349
14.1441
13.9722
13.8284
13.7082
13.6059
13.5164
13.436
13.363
13.2956
13.232
13.1708
13.1116
13.054
12.9979
12.9432
12.8913
14.6719
14.5671
14.5334
14.5366
14.5581
14.5881
14.618
14.6433
14.6615
14.6705
14.6701
14.6615
14.6457
14.6242
14.5981
14.5686
14.5367
14.5045
14.9618
15.3045
15.7117
16.0878
16.4098
16.6789
16.8974
17.0641
17.186
17.2721
17.3302
17.3667
17.3872
17.3962
17.3973
17.3932
17.3861
17.3784
16.0826
17.7386
19.068
20.0268
20.7393
21.2729
21.6497
21.9108
22.0919
22.2198
22.3134
22.3865
22.449
22.5076
22.5667
22.6292
22.6967
22.7702
20.4114
25.6123
28.3433
29.7403
30.5942
31.125
31.4557
31.6811
31.8658
32.0474
32.2462
32.473
32.7323
33.0243
33.3469
33.6971
34.071
34.4628
38.6012
49.0463
52.2934
53.178
53.4524
53.5621
53.7106
54.0142
54.5029
55.1624
55.9673
56.8918
57.9113
59.0029
60.1464
61.3253
62.5285
63.7422
159.121
148.102
138.017
128.818
120.586
113.348
107.09
101.756
97.2561
93.4903
90.3589
87.7702
85.642
83.9023
82.4889
81.3488
80.4368
79.7149
0.114665
0.150524
0.250192
0.338019
0.436182
0.54184
0.656943
0.784686
0.912876
1.04288
1.17521
1.30977
1.44647
1.58532
1.72643
1.86994
2.01603
2.16484
2.31652
2.4712
2.62898
2.78997
2.95422
3.1218
3.29275
3.46708
3.6448
3.8259
4.01033
4.19803
4.38893
4.58293
4.77991
4.97971
5.18217
5.38708
5.59419
5.80325
6.01395
6.22596
6.43891
6.65243
6.86607
7.07941
7.29194
7.50312
7.71234
7.9189
8.122
8.32073
8.5141
8.70108
8.88064
9.05189
9.21407
9.36649
9.50826
9.63775
9.75165
9.84318
9.89732
9.87547
9.66699
9.72515
9.84481
10.118
10.1302
43.3249
43.4578
43.8579
44.0824
43.8807
10.2308
10.3373
10.3999
44.2581
44.7865
44.9338
10.5067
45.008
46.3117
47.6458
49.007
50.3812
51.7639
53.1503
54.5373
55.9221
57.3027
58.6776
60.0461
61.409
62.77
64.1302
65.4703
66.7893
68.0863
69.3594
70.6065
71.8251
73.0131
74.168
75.2876
76.3696
77.4119
78.4123
79.3688
80.2795
81.1425
81.9562
82.719
83.4294
84.0861
84.6879
85.2336
85.7225
86.1536
86.5265
86.8405
87.0954
87.2911
87.4275
87.5047
87.5232
87.4833
87.3857
87.231
87.0201
86.7542
86.4342
86.0616
85.6376
85.1637
84.6415
84.0728
83.4593
82.8027
82.1051
81.3683
80.5944
79.7855
78.9435
78.0705
77.1688
76.2404
75.2874
74.3117
73.316
72.3017
71.2715
70.2277
69.1708
68.1078
67.0397
65.9779
64.9572
64.7731
71.2398
65.391
74.6488
15.6318
15.5886
73.6051
74.5444
74.8357
15.9329
73.3604
73.9521
69.8338
16.5253
73.2019
16.5132
16.4276
16.4654
17.1404
17.2285
79.9927
17.6845
17.5841
17.6742
0.450537
0.283204
0.2974
0.346079
0.409401
0.483845
0.567206
0.657197
0.750934
0.846882
0.944225
1.04257
1.1418
1.24195
1.34318
1.44565
1.54957
1.65513
1.76253
1.87194
1.98351
2.09739
2.21371
2.33257
2.45406
2.57827
2.70522
2.83497
2.96753
3.10289
3.24104
3.38193
3.52552
3.67173
3.82048
3.97167
4.12517
4.28086
4.43859
4.59821
4.75958
4.92253
5.08694
5.25267
5.41961
5.58768
5.75681
5.92697
6.09817
6.27051
6.44417
6.61951
6.79718
6.97824
7.16451
7.35906
7.5673
7.7993
8.07471
8.43236
8.94479
9.71988
10.7713
11.081
11.1125
11.0265
11.9308
13.8803
14.4693
14.905
15.2857
15.4337
14.694
15.4525
16.7874
18.3969
18.9314
19.2549
19.0029
20.5541
21.1752
21.7487
22.3105
22.8712
23.4314
23.991
24.5497
25.1073
25.6633
26.2178
26.771
27.3239
27.8783
28.4397
28.9961
29.5453
30.0866
30.6192
31.1422
31.6547
32.156
32.6449
33.1208
33.5828
34.03
34.4615
34.8767
35.2748
35.6549
36.0166
36.359
36.6816
36.9839
37.2653
37.5254
37.7637
37.9799
38.1736
38.3446
38.4927
38.6178
38.7197
38.7984
38.854
38.8864
38.896
38.8827
38.8469
38.7888
38.7089
38.6074
38.4849
38.3417
38.1785
37.9957
37.7939
37.5739
37.3362
37.0815
36.8105
36.524
36.2227
35.9073
35.5786
35.2374
34.8845
34.5206
34.1466
33.7632
33.3712
32.9716
32.564
32.1521
31.7349
31.323
30.9664
30.8764
31.3258
30.654
30.7654
27.0573
26.778
29.5195
30.0052
29.4427
26.2339
28.7397
29.2076
29.0503
25.8882
28.4336
25.3085
24.86
24.7001
24.4152
24.2126
26.556
24.081
23.9887
24.2883
0.912608
0.474248
0.437558
0.459708
0.504454
0.563064
0.631574
0.707112
0.787249
0.870159
0.954632
1.03998
1.12591
1.21237
1.29949
1.38745
1.47648
1.56683
1.65872
1.75237
1.84797
1.94569
2.04569
2.1481
2.25304
2.36061
2.47089
2.58394
2.69981
2.81855
2.94017
3.0647
3.19214
3.3225
3.45576
3.59191
3.73095
3.87285
4.01761
4.16522
4.3157
4.46907
4.62541
4.78479
4.94737
5.11331
5.28288
5.45638
5.63421
5.81687
6.00497
6.19928
6.40079
6.61078
6.83102
7.06395
7.31307
7.58353
7.88281
8.22122
8.60991
9.0507
9.50784
9.87711
10.2145
10.5706
11.0433
11.5666
12.0119
12.4383
12.8625
13.2755
13.6703
14.1654
14.7115
15.2459
15.7068
16.1475
16.5768
17.097
17.5608
18.0132
18.4618
18.9102
19.3589
19.8081
20.2576
20.7073
21.1571
21.6071
22.0573
22.508
22.96
23.4105
23.8569
24.298
24.7331
25.1614
25.5823
25.9949
26.3986
26.7927
27.1765
27.5492
27.9102
28.2589
28.5946
28.9166
29.2245
29.5176
29.7954
30.0575
30.3033
30.5324
30.7445
30.9392
31.1162
31.2752
31.416
31.5385
31.6426
31.728
31.7949
31.8432
31.8729
31.8842
31.8772
31.8521
31.8091
31.7485
31.6705
31.5756
31.464
31.3363
31.1928
31.034
30.8604
30.6726
30.471
30.2562
30.0288
29.7894
29.5386
29.2769
29.0051
28.7237
28.4331
28.1344
27.8279
27.5141
27.1944
26.8666
26.5369
26.2053
25.8793
25.5853
25.3765
25.1954
24.9137
24.6043
23.9724
23.7124
23.6982
23.6144
23.2672
22.7601
22.7202
22.6416
22.4796
21.8968
21.905
21.3537
21.0645
20.8427
20.566
20.328
20.2194
19.9425
19.8577
19.9311
1.39507
0.670967
0.572956
0.570468
0.600002
0.646398
0.703807
0.768894
0.839258
0.913095
0.989118
1.06651
1.14482
1.22391
1.30378
1.3846
1.46656
1.54988
1.6348
1.72154
1.81029
1.90125
1.99458
2.09043
2.18893
2.2902
2.39434
2.50145
2.6116
2.72486
2.8413
2.96098
3.08396
3.21029
3.34003
3.47324
3.60999
3.75034
3.89439
4.04223
4.19398
4.3498
4.50985
4.67436
4.84358
5.01784
5.1975
5.383
5.57483
5.77356
5.97984
6.19439
6.41805
6.65177
6.89666
7.15407
7.42558
7.71306
8.01852
8.34372
8.68911
9.05162
9.42245
9.78929
10.1582
10.5372
10.9348
11.3409
11.746
12.1535
12.5655
12.9815
13.4029
13.8371
14.2789
14.72
15.1558
15.5906
16.0272
16.4714
16.9109
17.3481
17.7847
18.2218
18.66
19.0993
19.5395
19.9806
20.4223
20.8644
21.3067
21.7491
22.1902
22.6285
23.0626
23.4916
23.9147
24.3313
24.7406
25.1418
25.5342
25.9171
26.2898
26.6516
27.0018
27.3397
27.6648
27.9764
28.2738
28.5566
28.8242
29.0761
29.312
29.5312
29.7336
29.9187
30.0863
30.2361
30.3679
30.4815
30.5769
30.6539
30.7126
30.753
30.7752
30.7792
30.7652
30.7335
30.6843
30.6178
30.5344
30.4344
30.3183
30.1864
30.0392
29.8772
29.7009
29.5109
29.3075
29.0915
28.8634
28.6239
28.3734
28.1124
27.842
27.5625
27.2739
26.9782
26.6748
26.3644
26.0496
25.7293
25.4061
25.0815
24.7607
24.4569
24.1834
23.9002
23.6197
23.3053
22.9716
22.6907
22.4266
22.1773
21.8774
21.5717
21.3103
21.0695
20.8266
20.5052
20.2633
19.9515
19.6795
19.4275
19.1631
18.9155
18.6736
18.4872
18.3615
18.3334
1.81744
0.837656
0.689082
0.665967
0.68275
0.719023
0.767315
0.823838
0.886166
0.952567
1.02179
1.093
1.16569
1.2396
1.31469
1.39103
1.46877
1.5481
1.62923
1.71236
1.79771
1.88545
1.97576
2.06879
2.16469
2.2636
2.36562
2.47089
2.57949
2.69153
2.80712
2.92634
3.0493
3.1761
3.30684
3.44165
3.58064
3.72395
3.87173
4.02415
4.1814
4.34369
4.51128
4.68444
4.86349
5.04879
5.24073
5.43976
5.64636
5.86104
6.08435
6.31686
6.55917
6.81188
7.07563
7.35105
7.63878
7.93938
8.25321
8.58032
8.92009
9.27108
9.63111
9.99809
10.3722
10.7543
11.1449
11.5427
11.9465
12.3565
12.7724
13.1941
13.6217
14.0555
14.4945
14.937
15.3823
15.8304
16.2818
16.7365
17.1927
17.6499
18.1085
18.5687
19.0306
19.4941
19.959
20.4251
20.8919
21.3592
21.8266
22.2929
22.7567
23.217
23.6728
24.1232
24.5673
25.0043
25.4336
25.8541
26.2653
26.6661
27.056
27.4341
27.7997
28.1521
28.4905
28.8143
29.1229
29.4157
29.6921
29.9515
30.1936
30.4179
30.6239
30.8114
30.9801
31.1297
31.26
31.3709
31.4623
31.5341
31.5864
31.6192
31.6326
31.6268
31.6019
31.5583
31.4963
31.416
31.318
31.2026
31.0704
30.9217
30.7571
30.5771
30.3822
30.1732
29.9505
29.7148
29.4667
29.207
28.9361
28.6544
28.3635
28.0635
27.7537
27.4378
27.1151
26.7861
26.4522
26.1136
25.7718
25.4285
25.0873
24.7549
24.4346
24.1091
23.7912
23.4612
23.1356
22.8196
22.5019
22.191
21.8729
21.558
21.2477
20.9467
20.6517
20.3427
20.0471
19.7452
19.455
19.175
18.8977
18.6333
18.3795
18.1705
18.0082
17.9174
2.15351
0.973808
0.783938
0.743635
0.749759
0.777618
0.818363
0.867778
0.923383
0.983508
1.04698
1.11299
1.18102
1.25077
1.32214
1.39515
1.46989
1.54652
1.62522
1.70618
1.78959
1.87563
1.96448
2.0563
2.15124
2.24945
2.35107
2.45622
2.56504
2.67765
2.79418
2.91476
3.03952
3.1686
3.30215
3.44032
3.58329
3.73124
3.88437
4.04289
4.20704
4.37709
4.55332
4.73603
4.92557
5.1223
5.32663
5.53896
5.75973
5.98938
6.22837
6.47714
6.73611
7.00567
7.2862
7.57802
7.88137
8.19641
8.52312
8.86133
9.2106
9.57031
9.9398
10.3185
10.7061
11.1024
11.5075
11.921
12.3425
12.7718
13.2087
13.6527
14.1039
14.5619
15.0263
15.4964
15.9718
16.4522
16.9374
17.4269
17.92
18.4162
18.9152
19.4168
19.9208
20.4271
20.9351
21.4446
21.9549
22.4657
22.9762
23.4845
23.9896
24.4905
24.9863
25.4759
25.9586
26.4334
26.8994
27.3557
27.8014
28.2356
28.6574
29.066
29.4605
29.8402
30.2042
30.5518
30.8824
31.1952
31.4897
31.7653
32.0214
32.2577
32.4737
32.6691
32.8435
32.9968
33.1287
33.2391
33.328
33.3953
33.4411
33.4655
33.4687
33.4508
33.4121
33.353
33.2738
33.1749
33.0567
32.9198
32.7647
32.592
32.4021
32.1958
31.9736
31.7365
31.4849
31.2194
30.9408
30.6504
30.3483
30.0341
29.7113
29.3796
29.039
28.6914
28.337
27.9766
27.611
27.241
26.8678
26.4928
26.1186
25.7489
25.3848
25.0196
24.6588
24.2952
23.9352
23.5783
23.2209
22.8665
22.5131
22.1632
21.8158
21.4734
21.1367
20.8003
20.4694
20.1423
19.8231
19.5129
19.2109
18.9225
18.6505
18.4129
18.2156
18.0732
2.41492
1.08231
0.858648
0.803894
0.801022
0.821835
0.856304
0.899813
0.949791
1.00461
1.06317
1.1247
1.1887
1.25488
1.32309
1.39333
1.46565
1.54017
1.61705
1.69645
1.77856
1.86355
1.9516
2.04288
2.13754
2.23574
2.33764
2.44339
2.55312
2.667
2.78517
2.90778
3.03502
3.16703
3.30402
3.44616
3.59368
3.74679
3.90572
4.07074
4.24213
4.42016
4.60516
4.79746
4.99742
5.20541
5.42181
5.64702
5.88146
6.12551
6.37958
6.64403
6.91921
7.20542
7.50294
7.81197
8.13266
8.4651
8.80926
9.16503
9.5322
9.91055
10.2998
10.6998
11.1103
11.5313
11.9625
12.4038
12.8549
13.3157
13.7858
14.2648
14.7527
15.2491
15.7535
16.2656
16.7849
17.311
17.8434
18.3817
18.9252
19.4733
20.0254
20.5813
21.1404
21.7023
22.2664
22.8322
23.3991
23.9664
24.5323
25.0953
25.6544
26.2084
26.7565
27.2975
27.8305
28.3544
28.8681
29.3707
29.861
30.3382
30.8012
31.249
31.6808
32.0956
32.4925
32.8707
33.2294
33.568
33.8856
34.1819
34.4561
34.7078
34.9366
35.1422
35.3242
35.4824
35.6166
35.7268
35.8128
35.8748
35.9128
35.927
35.9176
35.8849
35.8293
35.7511
35.6509
35.5289
35.3859
35.2223
35.039
34.8365
34.6156
34.3766
34.1206
33.8486
33.5613
33.2588
32.9422
32.6137
32.2731
31.921
31.5591
31.1879
30.808
30.4206
30.0263
29.626
29.2206
28.8108
28.3977
27.9828
27.5677
27.155
26.7452
26.3359
25.9293
25.5231
25.1194
24.718
24.3179
23.9203
23.5256
23.1348
22.7476
22.3649
21.9876
21.6147
21.2473
20.8863
20.5334
20.1901
19.8577
19.5401
19.2415
18.9727
18.7392
18.5495
2.60741
1.1652
0.914787
0.848063
0.83761
0.85249
0.881704
0.920276
0.965534
1.01586
1.0702
1.12784
1.18831
1.25133
1.31674
1.38452
1.4547
1.52737
1.60268
1.68078
1.76184
1.84602
1.93351
2.02448
2.11909
2.21751
2.31991
2.42645
2.5373
2.65264
2.77262
2.89745
3.02732
3.16241
3.30296
3.44919
3.60134
3.75967
3.92445
4.09599
4.27458
4.46056
4.65427
4.85606
5.06633
5.28545
5.51383
5.75187
5.99996
6.25851
6.52789
6.80847
7.10057
7.40449
7.7205
8.04881
8.3896
8.74297
9.10899
9.48768
9.87901
10.2829
10.6994
11.1283
11.5697
12.0234
12.4893
12.9673
13.4572
13.9587
14.4716
14.9956
15.5303
16.0754
16.6305
17.1951
17.7688
18.3511
18.9413
19.5389
20.1433
20.7537
21.3694
21.9898
22.6143
23.2422
23.8729
24.5054
25.1392
25.7731
26.4043
27.0317
27.6542
28.2708
28.8802
29.4814
30.073
30.6539
31.223
31.7791
32.321
32.8476
33.3577
33.8504
34.3244
34.7789
35.2129
35.6254
36.0156
36.3827
36.7259
37.0447
37.3384
37.6066
37.8488
38.0647
38.254
38.4165
38.552
38.6604
38.7418
38.7963
38.824
38.8252
38.8002
38.7493
38.673
38.5718
38.4463
38.297
38.1245
37.9294
37.7128
37.4756
37.2182
36.9412
36.6455
36.3331
36.0045
35.6602
35.3012
34.929
34.5443
34.1478
33.7408
33.3241
32.8986
32.4653
32.025
31.5787
31.1272
30.6715
30.2126
29.7517
29.2902
28.8299
28.3714
27.9141
27.4588
27.005
26.5537
26.1049
25.6586
25.2153
24.7759
24.341
23.9107
23.4855
23.0663
22.653
22.2465
21.8477
21.4581
21.0791
20.7127
20.3622
20.0319
19.729
19.4574
19.2224
2.73775
1.22487
0.954278
0.877883
0.861093
0.870959
0.895728
0.930127
0.971385
1.01788
1.06858
1.12282
1.18017
1.24034
1.30321
1.36872
1.43692
1.50788
1.58172
1.6586
1.73867
1.82211
1.90908
1.99977
2.09436
2.19301
2.29592
2.40327
2.51523
2.63202
2.75382
2.88085
3.01332
3.15149
3.29559
3.44589
3.60267
3.76622
3.93687
4.11495
4.30081
4.4948
4.69733
4.90879
5.12959
5.36015
5.6009
5.85228
6.11471
6.38861
6.6744
6.97245
7.28314
7.60681
7.94376
8.29426
8.65855
9.03684
9.42928
9.836
10.2571
10.6927
11.1427
11.6074
12.0866
12.5803
13.0885
13.611
14.1477
14.6982
15.2623
15.8397
16.43
17.0328
17.6475
18.2738
18.9111
19.5586
20.2158
20.882
21.5563
22.238
22.9262
23.6202
24.319
25.0219
25.7279
26.4361
27.1456
27.8535
28.5577
29.2571
29.9505
30.6366
31.314
31.9814
32.6376
33.281
33.9105
34.5246
35.1221
35.7018
36.2623
36.8026
37.3213
37.8175
38.2901
38.7381
39.1605
39.5564
39.9252
40.266
40.5784
40.8618
41.1159
41.3404
41.5348
41.6991
41.8332
41.937
42.0105
42.0541
42.0679
42.0523
42.0076
41.9342
41.8329
41.7043
41.549
41.3677
41.1609
40.9291
40.6745
40.3975
40.0989
39.7795
39.4405
39.0831
38.7084
38.3172
37.9107
37.49
37.0561
36.6101
36.1531
35.6861
35.21
34.726
34.235
33.7379
33.2357
32.7294
32.2201
31.7088
31.1968
30.6854
30.1754
29.6668
29.1603
28.6559
28.1543
27.6558
27.1607
26.6694
26.1828
25.7014
25.2256
24.7558
24.2927
23.8369
23.3889
22.9499
22.5213
22.1045
21.7015
21.3155
20.9501
20.6107
20.2995
20.0202
2.81295
1.26392
0.97919
0.89526
0.873248
0.878871
0.899844
0.930667
0.968489
1.01167
1.05921
1.11045
1.165
1.2226
1.28313
1.34655
1.41288
1.4822
1.55464
1.63033
1.70944
1.79213
1.87858
1.96898
2.06352
2.16239
2.26579
2.37392
2.487
2.60523
2.72886
2.85812
2.99326
3.13457
3.28233
3.43684
3.59843
3.76745
3.94425
4.12922
4.32275
4.52528
4.73723
4.95906
5.19123
5.43422
5.6885
5.95456
6.23288
6.52394
6.8282
7.14611
7.4781
7.82456
8.18589
8.56243
8.95451
9.36241
9.78639
10.2267
10.6835
11.1569
11.6472
12.1544
12.6785
13.2196
13.7776
14.3523
14.9437
15.5513
16.1749
16.814
17.4683
18.1373
18.8202
19.5167
20.226
20.9473
21.6799
22.4229
23.1755
23.9367
24.7055
25.481
26.262
27.0475
27.8365
28.6276
29.4194
30.2073
30.9902
31.767
32.5363
33.2965
34.0461
34.7835
35.5073
36.216
36.9081
37.5821
38.2366
38.8702
39.4815
40.0693
40.6324
41.1694
41.6795
42.1614
42.6141
43.0366
43.4282
43.7882
44.1161
44.4113
44.6736
44.9027
45.0982
45.2602
45.3884
45.4829
45.5439
45.5717
45.5667
45.5293
45.46
45.3591
45.2277
45.0665
44.8764
44.6581
44.4124
44.1402
43.843
43.5217
43.1774
42.8111
42.4239
42.0171
41.592
41.1495
40.691
40.2176
39.7304
39.2308
38.7197
38.1984
37.6679
37.1294
36.5839
36.0324
35.476
34.9157
34.3526
33.7876
33.2221
32.657
32.0933
31.5313
30.9717
30.4148
29.8611
29.3112
28.7656
28.2246
27.6891
27.1596
26.6366
26.1206
25.6123
25.1123
24.6213
24.1406
23.6713
23.215
22.7737
22.3502
21.9475
21.5699
21.2181
20.8953
2.84014
1.28496
0.991578
0.902096
0.875883
0.877937
0.895648
0.923373
0.958204
0.998491
1.04324
1.09184
1.14389
1.19917
1.25757
1.31905
1.38365
1.45144
1.52256
1.59713
1.67533
1.75733
1.84331
1.93349
2.02806
2.12723
2.23122
2.34027
2.45461
2.57448
2.70017
2.83194
2.9701
3.11495
3.26684
3.42612
3.59317
3.76839
3.9522
4.14504
4.34737
4.55969
4.7825
5.01631
5.26166
5.51909
5.78916
6.07243
6.36944
6.68076
7.00691
7.34841
7.70579
8.07951
8.47005
8.87784
9.30329
9.74677
10.2086
10.6892
11.1886
11.7073
12.2453
12.8027
13.3798
13.9764
14.5924
15.2279
15.8824
16.5558
17.2475
17.9572
18.6842
19.4279
20.1876
20.9627
21.7522
22.5555
23.3714
24.1991
25.0375
25.8856
26.7421
27.6058
28.4757
29.3504
30.2286
31.1089
31.9854
32.8569
33.7219
34.579
35.4265
36.2626
37.0855
37.8936
38.6851
39.4585
40.2122
40.9445
41.654
42.3391
42.9984
43.6305
44.2341
44.808
45.3511
45.8624
46.3405
46.7844
47.1934
47.5669
47.9045
48.2056
48.4701
48.6975
48.8879
49.0413
49.1574
49.2363
49.2785
49.2843
49.2544
49.1892
49.0893
48.9555
48.7886
48.5897
48.3595
48.0991
47.8096
47.4919
47.1474
46.7773
46.3828
45.9651
45.5254
45.0652
44.5857
44.0881
43.5739
43.0442
42.5005
41.9439
41.3756
40.797
40.2093
39.6135
39.0108
38.4024
37.7894
37.1727
36.5535
35.9328
35.3118
34.6915
34.0727
33.456
32.8422
32.2316
31.625
31.0229
30.4258
29.8343
29.249
28.6706
28.0997
27.5367
26.9824
26.4374
25.9027
25.3792
24.8684
24.3716
23.8909
23.4286
22.9874
22.5704
22.1776
21.8121
2.82635
1.29051
0.993401
0.900203
0.870742
0.86984
0.884763
0.9098
0.94202
0.979776
1.02209
1.06835
1.11821
1.17144
1.22795
1.28773
1.3508
1.41727
1.48726
1.56091
1.6384
1.71993
1.80569
1.89591
1.99081
2.09063
2.19561
2.30603
2.42216
2.54428
2.67272
2.8078
2.94987
3.09929
3.25648
3.42183
3.59581
3.77887
3.97151
4.17426
4.38766
4.61227
4.84868
5.09749
5.35933
5.63484
5.92464
6.2294
6.54976
6.88635
7.23978
7.61068
7.99961
8.40716
8.83386
9.28023
9.74674
10.2339
10.7419
11.2714
11.8225
12.3954
12.9905
13.6078
14.2474
14.9092
15.5931
16.299
17.0265
17.7753
18.5448
19.3344
20.1433
20.9708
21.816
22.678
23.556
24.4489
25.3555
26.2749
27.2057
28.1467
29.0966
30.0541
31.0179
31.9864
32.9581
33.9269
34.8898
35.8455
36.7925
37.7291
38.6535
39.5636
40.4571
41.3323
42.1876
43.0212
43.8314
44.6164
45.3748
46.1048
46.8051
47.4742
48.1108
48.7136
49.2817
49.8143
50.3096
50.7662
51.1839
51.5621
51.9006
52.1989
52.4567
52.674
52.8507
52.9869
53.0826
53.1382
53.154
53.1306
53.0686
52.9687
52.8317
52.6584
52.4499
52.2072
51.9313
51.6234
51.2847
50.9164
50.5199
50.0964
49.6475
49.1743
48.6784
48.1611
47.6239
47.0681
46.4952
45.9066
45.3036
44.6877
44.0601
43.4223
42.7753
42.1206
41.4592
40.7925
40.1214
39.4472
38.7709
38.0935
37.4163
36.7401
36.0659
35.3943
34.7261
34.0619
33.4024
32.7481
32.0996
31.4575
30.8226
30.1954
29.5765
28.9666
28.3663
27.7764
27.1977
26.6315
26.0788
25.5413
25.0207
24.5191
24.0388
23.5823
23.1488
22.7415
2.77851
1.28298
0.986473
0.891254
0.859456
0.856199
0.868795
0.891548
0.921536
0.957129
0.997366
1.04167
1.08969
1.14124
1.19624
1.25467
1.31661
1.38214
1.45141
1.52459
1.60187
1.68346
1.76959
1.86051
1.95648
2.05778
2.1647
2.27754
2.39665
2.52237
2.65507
2.79514
2.94301
3.09911
3.26392
3.43794
3.62169
3.81575
4.02069
4.23713
4.46572
4.70712
4.96202
5.23113
5.51517
5.81489
6.13103
6.46434
6.81557
7.18545
7.57468
7.98391
8.41379
8.86497
9.33804
9.83358
10.3521
10.8941
11.46
12.05
12.6647
13.304
13.9683
14.6575
15.3716
16.1106
16.8741
17.662
18.4738
19.3091
20.1671
21.047
21.9476
22.868
23.8072
24.7642
25.738
26.7272
27.7306
28.747
29.775
30.8132
31.8601
32.9142
33.9742
35.0384
36.0997
37.154
38.1998
39.2355
40.2593
41.2696
42.265
43.2419
44.1979
45.1316
46.0413
46.9251
47.7813
48.6083
49.4043
50.1677
50.8972
51.5911
52.2484
52.8677
53.448
53.9884
54.4876
54.9447
55.3591
55.7304
56.0582
56.3422
56.5824
56.7787
56.9312
57.04
57.1056
57.1282
57.1084
57.0469
56.9444
56.8018
56.62
56.4
56.1429
55.8498
55.5221
55.161
54.7678
54.3439
53.8908
53.4098
52.9025
52.3704
51.8149
51.2377
50.6401
50.0238
49.3903
48.7409
48.0773
47.4007
46.7128
46.0147
45.3079
44.5937
43.8734
43.1481
42.419
41.6873
40.9541
40.2204
39.4874
38.7559
38.027
37.3014
36.5799
35.863
35.1516
34.4461
33.7473
33.0558
32.3723
31.6973
31.0315
30.3756
29.7303
29.0963
28.4745
27.8661
27.2723
26.6945
26.1343
25.5938
25.0747
24.5789
24.1055
23.6578
2.70338
1.2646
0.972441
0.876779
0.843552
0.838576
0.849364
0.870303
0.898521
0.932421
0.971074
1.01392
1.06065
1.11109
1.16517
1.22292
1.28441
1.34977
1.41915
1.49276
1.57082
1.65358
1.7413
1.83429
1.93286
2.03734
2.14809
2.2655
2.38996
2.52191
2.6618
2.81013
2.96741
3.13416
3.31098
3.49846
3.69725
3.90803
4.1315
4.36841
4.6195
4.88557
5.16743
5.46591
5.78183
6.11607
6.46946
6.84287
7.23715
7.65315
8.09165
8.55317
9.03842
9.54805
10.0827
10.643
11.2293
11.8422
12.482
13.1489
13.8431
14.5649
15.314
16.0906
16.8944
17.7251
18.5823
19.4656
20.3743
21.3079
22.2659
23.247
24.2487
25.2704
26.311
27.3694
28.4442
29.534
30.6375
31.7533
32.8798
34.0156
35.1591
36.3085
37.4629
38.6125
39.7536
40.8843
42.0029
43.1074
44.1958
45.2663
46.3167
47.3447
48.3478
49.3243
50.2723
51.19
52.0756
52.9274
53.7438
54.5234
55.2645
55.966
56.6266
57.2452
57.8208
58.3525
58.8393
59.2806
59.6758
60.0246
60.3266
60.5819
60.7903
60.9521
61.0673
61.1364
61.1598
61.138
61.0719
60.962
60.8094
60.6151
60.38
60.1053
59.7923
59.4422
59.0565
58.6365
58.1837
57.6995
57.1855
56.6434
56.0745
55.4807
54.8633
54.2242
53.5648
52.8867
52.1916
51.481
50.7564
50.0192
49.2711
48.5134
47.7475
46.9747
46.1964
45.4138
44.6281
43.8404
43.0519
42.2636
41.4766
40.692
39.9105
39.133
38.3602
37.5929
36.8318
36.0775
35.3306
34.5918
33.8617
33.1411
32.4305
31.7306
31.0421
30.3658
29.7026
29.0536
28.42
27.8032
27.2048
26.6263
26.0695
25.5358
25.0238
24.5375
2.6076
1.23739
0.952754
0.85816
0.824484
0.818555
0.828218
0.848007
0.875135
0.908062
0.945901
0.988134
1.03447
1.08478
1.13903
1.19727
1.25961
1.32621
1.39728
1.47307
1.55385
1.63993
1.73165
1.82938
1.93351
2.04449
2.16275
2.2888
2.42316
2.56637
2.71904
2.88179
3.05527
3.24012
3.43707
3.64687
3.87032
4.10824
4.36151
4.63099
4.91759
5.22223
5.54584
5.88937
6.25374
6.63992
7.04882
7.48138
7.93853
8.42126
8.93075
9.4665
10.0293
10.6199
11.2388
11.8866
12.5636
13.2699
14.0059
14.7715
15.5667
16.3914
17.2454
18.1282
19.0395
19.9786
20.9449
21.9376
22.9557
23.9985
25.0647
26.1529
27.2616
28.3892
29.5344
30.6958
31.872
33.0613
34.2624
35.4737
36.6938
37.9211
39.1545
40.39
41.6168
42.833
44.0364
45.2249
46.3965
47.549
48.6804
49.7887
50.8719
51.9276
52.954
53.9489
54.9107
55.8375
56.7277
57.5797
58.392
59.1632
59.892
60.5773
61.2178
61.8127
62.3612
62.8624
63.3156
63.7205
64.0765
64.3834
64.6413
64.85
65.0097
65.1206
65.1833
65.1981
65.1657
65.0867
64.9621
64.7927
64.5796
64.3238
64.0265
63.6891
63.3129
62.8992
62.4496
61.9655
61.4485
60.9002
60.3222
59.7161
59.0836
58.4264
57.7461
57.0444
56.3229
55.5834
54.8273
54.0563
53.272
52.4759
51.6695
50.8542
50.0315
49.2027
48.3692
47.5321
46.6927
45.8522
45.0116
44.172
43.3345
42.5
41.6695
40.8436
40.0233
39.2091
38.4019
37.6022
36.8107
36.028
35.2549
34.4918
33.7395
32.9986
32.2699
31.5542
30.8522
30.1652
29.4943
28.8407
28.206
27.5916
26.9989
26.4292
25.881
25.3584
2.49318
1.20171
0.927844
0.836043
0.803162
0.797357
0.806939
0.826657
0.853848
0.887056
0.925458
0.968593
1.01622
1.06827
1.12475
1.18577
1.25152
1.32224
1.39821
1.47976
1.56725
1.66112
1.76181
1.86984
1.98575
2.11012
2.24359
2.38681
2.54051
2.70543
2.8824
3.07228
3.27608
3.49435
3.72802
3.97813
4.24567
4.53166
4.83715
5.16315
5.51071
5.88086
6.27462
6.69296
7.13686
7.60724
8.10499
8.63092
9.18581
9.77037
10.3852
11.0305
11.7066
12.4138
13.1523
13.9222
14.7236
15.5562
16.4199
17.3142
18.2389
19.1932
20.1766
21.1883
22.2274
23.293
24.3841
25.4994
26.6378
27.798
28.9786
30.178
31.3946
32.6268
33.873
35.1317
36.4014
37.6805
38.9677
40.2614
41.5604
42.8633
44.1596
45.443
46.7118
47.9641
49.1977
50.4107
51.6009
52.7664
53.9052
55.0155
56.0951
57.1423
58.1552
59.1321
60.0712
60.9711
61.8301
62.647
63.4205
64.1493
64.8324
65.4688
66.0575
66.598
67.0894
67.5312
67.9231
68.2647
68.5557
68.7963
68.9863
69.126
69.2158
69.2559
69.2471
69.1898
69.0849
68.9332
68.7357
68.4934
68.2074
67.879
67.5094
67.1
66.6522
66.1676
65.6476
65.0938
64.5078
63.8914
63.246
62.5735
61.8755
61.1536
60.4097
59.6454
58.8622
58.062
57.2463
56.4168
55.5749
54.7223
53.8603
52.9906
52.1143
51.233
50.3479
49.4602
48.5711
47.6818
46.7933
45.9067
45.023
44.1431
43.2678
42.3981
41.5345
40.678
39.829
38.9882
38.1564
37.334
36.5218
35.7203
34.9301
34.1521
33.3867
32.6349
31.8976
31.1757
30.4703
29.7828
29.1145
28.4666
27.8405
27.2373
26.6553
26.099
2.38205
1.16438
0.902254
0.814634
0.784078
0.780067
0.791399
0.813065
0.842549
0.878505
0.920203
0.967272
1.01957
1.07709
1.13997
1.20845
1.28284
1.36354
1.45103
1.54581
1.64833
1.75927
1.87933
2.00929
2.14995
2.30218
2.46689
2.64508
2.83775
3.04598
3.27089
3.51362
3.77533
4.05713
4.36017
4.68564
5.03474
5.40861
5.80837
6.23509
6.6898
7.17344
7.68688
8.23091
8.80621
9.41337
10.0529
10.7251
11.4303
12.1686
12.94
13.7443
14.5812
15.4503
16.3513
17.2835
18.2464
19.2391
20.2608
21.3106
22.3876
23.4906
24.6185
25.7701
26.9442
28.1395
29.3546
30.5882
31.8387
33.1048
34.3849
35.6775
36.9809
38.2938
39.6146
40.9417
42.2744
43.6106
44.95
46.2909
47.6231
48.9384
50.2368
51.5161
52.7743
54.0096
55.2202
56.4042
57.5598
58.6852
59.7789
60.839
61.8639
62.8521
63.802
64.7122
65.5812
66.4078
67.1908
67.929
68.6214
69.2672
69.8653
70.4152
70.9161
71.3675
71.769
72.1203
72.4212
72.6714
72.8711
73.0204
73.1194
73.1685
73.1682
73.1191
73.0217
72.8768
72.6854
72.4483
72.1665
71.8413
71.4738
71.0652
70.617
70.1305
69.6072
69.0486
68.4562
67.8317
67.1766
66.4927
65.7814
65.0446
64.2839
63.501
62.6975
61.8752
61.0355
60.1803
59.3109
58.4291
57.5363
56.6341
55.7238
54.8069
53.8847
52.9585
52.0296
51.0991
50.1683
49.2381
48.3097
47.384
46.4619
45.5445
44.6323
43.7263
42.8272
41.9356
41.0522
40.1776
39.3124
38.4572
37.6125
36.7791
35.9574
35.1482
34.3521
33.5699
32.8024
32.0508
31.3159
30.599
29.9014
29.2243
28.5689
27.936
27.3243
26.7384
2.28345
1.12791
0.878321
0.796863
0.771025
0.77152
0.787634
0.814627
0.850171
0.893073
0.942745
0.998996
1.06191
1.13156
1.20833
1.2927
1.38526
1.4867
1.59779
1.71938
1.85241
1.99792
2.15706
2.33103
2.52112
2.72869
2.95515
3.20195
3.47057
3.76251
4.07926
4.42228
4.79299
5.19271
5.62271
6.08415
6.57809
7.10546
7.66702
8.2634
8.89505
9.56226
10.2652
11.0037
11.7777
12.5867
13.4303
14.3079
15.2186
16.1616
17.1359
18.1403
19.1738
20.2351
21.3229
22.4361
23.5731
24.7328
25.9136
27.1143
28.3335
29.5698
30.8219
32.0884
33.3679
34.6591
35.9607
37.2714
38.5897
39.9146
41.2448
42.579
43.9158
45.2548
46.5942
47.9324
49.2723
50.6072
51.928
53.2281
54.5082
55.7662
57.0007
58.2103
59.3933
60.5483
61.6737
62.7682
63.8301
64.8582
65.851
66.8073