/*--------------------------------*- C++ -*----------------------------------*\
  =========                 |
  \\      /  F ield         | OpenFOAM: The Open Source CFD Toolbox
   \\    /   O peration     | Website:  https://openfoam.org
    \\  /    A nd           | Version:  7
     \\/     M anipulation  |
\*---------------------------------------------------------------------------*/
FoamFile
{
    version     2.0;
    format      ascii;
    class       volScalarField;
    location    "0.22";
    object      k;
}
// * * * * * * * * * * * * * * * * * * * * * * * * * * * * * * * * * * * * * //

dimensions      [0 2 -2 0 0 0 0];

internalField   nonuniform List<scalar> 
12225
(
0.332317
0.291426
0.257358
0.230626
0.211153
0.197862
0.189254
0.183917
0.180734
0.178898
0.177859
0.177263
0.176896
0.176631
0.176401
0.176162
0.175958
0.177134
0.412401
0.405339
0.384443
0.372421
0.369843
0.372734
0.377788
0.383151
0.387989
0.392
0.395143
0.397499
0.3992
0.400377
0.401165
0.401585
0.402066
0.401651
0.385493
0.382621
0.37238
0.362671
0.356086
0.352603
0.35141
0.351691
0.352825
0.354378
0.356064
0.357709
0.359226
0.360575
0.361757
0.36276
0.363682
0.364307
0.377227
0.374576
0.368312
0.360829
0.353906
0.348227
0.343847
0.3406
0.338266
0.336634
0.335515
0.334762
0.334262
0.333935
0.333727
0.333593
0.333519
0.333444
0.374686
0.371972
0.367007
0.360936
0.354802
0.349104
0.344021
0.339589
0.33578
0.33253
0.329761
0.327392
0.325357
0.323596
0.322062
0.320713
0.319518
0.318455
0.373367
0.37041
0.366183
0.361149
0.355897
0.350753
0.345874
0.341342
0.337194
0.33343
0.330027
0.326954
0.324177
0.321662
0.319379
0.317299
0.315397
0.313674
0.372514
0.36931
0.365485
0.361142
0.356592
0.352038
0.347594
0.343336
0.339312
0.335546
0.332039
0.328784
0.325766
0.32297
0.320378
0.317973
0.315739
0.31369
0.371961
0.368517
0.364846
0.360913
0.356856
0.352787
0.348774
0.344872
0.341123
0.337551
0.334169
0.330977
0.327973
0.32515
0.322498
0.320008
0.317673
0.315515
0.371601
0.367939
0.364274
0.360546
0.356799
0.353079
0.349416
0.345841
0.342381
0.339056
0.335876
0.332846
0.329968
0.327237
0.324651
0.322203
0.319891
0.317745
0.371367
0.367529
0.3638
0.360143
0.356559
0.353058
0.349642
0.346321
0.343108
0.340012
0.33704
0.334195
0.331477
0.328885
0.326417
0.324069
0.321841
0.319765
0.371217
0.367247
0.36344
0.35978
0.356258
0.352868
0.3496
0.34645
0.343418
0.340504
0.337707
0.335029
0.332465
0.330016
0.327677
0.325446
0.323324
0.321341
0.371127
0.367076
0.363208
0.359518
0.356
0.352646
0.349444
0.346382
0.343452
0.340651
0.337972
0.33541
0.332962
0.330624
0.328391
0.32626
0.324231
0.322335
0.371065
0.366958
0.363043
0.359321
0.355788
0.352438
0.34926
0.346241
0.343371
0.340639
0.338038
0.33556
0.333198
0.330946
0.328798
0.32675
0.324803
0.322982
0.371019
0.366871
0.362922
0.359171
0.355617
0.352256
0.349077
0.346071
0.343226
0.340532
0.337977
0.335553
0.333251
0.331062
0.328981
0.327
0.32512
0.323365
0.370987
0.366811
0.362842
0.359073
0.355502
0.352126
0.348938
0.345928
0.343086
0.340402
0.337865
0.335465
0.333193
0.331039
0.328997
0.327058
0.325223
0.323513
0.370966
0.366774
0.362796
0.35902
0.355444
0.352061
0.348866
0.345851
0.343005
0.34032
0.337785
0.335391
0.333128
0.330987
0.32896
0.32704
0.325226
0.323539
0.370955
0.366756
0.362778
0.359006
0.355434
0.352055
0.348863
0.345851
0.343007
0.340325
0.337793
0.335401
0.333142
0.331007
0.328986
0.327074
0.325268
0.323591
0.370956
0.36676
0.362791
0.35903
0.355472
0.352107
0.34893
0.345932
0.343103
0.340433
0.337914
0.335535
0.333288
0.331164
0.329154
0.327254
0.325459
0.323792
0.370974
0.366798
0.362849
0.359112
0.35558
0.352244
0.349098
0.34613
0.343333
0.340695
0.338208
0.33586
0.333643
0.331548
0.329568
0.327695
0.325927
0.324286
0.371015
0.366882
0.362976
0.359284
0.355798
0.352513
0.349419
0.346508
0.343768
0.341189
0.338759
0.336468
0.334307
0.332267
0.330339
0.328516
0.326795
0.325198
0.371081
0.367016
0.363177
0.359553
0.35614
0.352932
0.34992
0.347093
0.344437
0.341939
0.339587
0.33737
0.335277
0.333299
0.331427
0.329654
0.327978
0.326419
0.371191
0.367242
0.36352
0.360017
0.356729
0.353651
0.350767
0.348062
0.345515
0.343113
0.340841
0.338689
0.336645
0.334701
0.33285
0.331085
0.329404
0.32783
0.371381
0.367644
0.364139
0.360847
0.357754
0.354851
0.352116
0.349521
0.347044
0.344673
0.342397
0.340209
0.338104
0.336076
0.33412
0.332237
0.330427
0.328716
0.371731
0.368398
0.365281
0.362294
0.35941
0.35663
0.35393
0.351282
0.34868
0.346124
0.343621
0.341174
0.338788
0.336466
0.334213
0.332032
0.32993
0.327938
0.372421
0.369829
0.36729
0.364585
0.361716
0.358753
0.355718
0.352626
0.349508
0.346402
0.343338
0.340337
0.337415
0.334585
0.331854
0.329229
0.326716
0.32435
0.373942
0.372661
0.370661
0.367779
0.364274
0.360415
0.356351
0.35219
0.348036
0.343962
0.340015
0.336225
0.332609
0.329176
0.325929
0.322867
0.319988
0.317317
0.377771
0.378982
0.376507
0.371674
0.36588
0.359789
0.35369
0.347765
0.342139
0.336877
0.332005
0.327525
0.323426
0.319687
0.316286
0.313196
0.310393
0.307876
0.3876
0.394032
0.38662
0.374838
0.363295
0.35297
0.343934
0.336122
0.329444
0.323784
0.319024
0.315048
0.31175
0.309033
0.306811
0.305009
0.303563
0.302424
0.402384
0.394874
0.37547
0.356343
0.340873
0.32932
0.321123
0.315594
0.31209
0.310095
0.309226
0.309198
0.309794
0.310846
0.312225
0.313835
0.315607
0.317464
0.351309
0.326982
0.304715
0.284406
0.26623
0.25025
0.236434
0.224657
0.214723
0.206409
0.199495
0.19378
0.189081
0.18524
0.18212
0.179603
0.177589
0.175996
0.000397136
0.00237959
0.00395228
0.00533298
0.00687387
0.00852974
0.0103309
0.0123281
0.0143318
0.0163603
0.0184225
0.0205167
0.0226412
0.0247963
0.0269835
0.0292047
0.0314624
0.0337589
0.0360961
0.0384758
0.0408995
0.0433684
0.0458833
0.048445
0.0510539
0.0537099
0.0564128
0.0591622
0.0619572
0.0647966
0.067679
0.0706027
0.0735654
0.0765646
0.0795974
0.0826603
0.0857497
0.088861
0.0919896
0.0951302
0.0982772
0.101425
0.104566
0.107694
0.110802
0.113881
0.116922
0.119913
0.122843
0.125699
0.128467
0.131132
0.133681
0.136101
0.138381
0.140506
0.142452
0.144175
0.145586
0.146526
0.146713
0.145748
0.143326
0.144505
0.14684
0.150095
0.149533
0.146971
0.147541
0.148596
0.149517
0.150554
0.153442
0.154003
0.152215
0.149731
0.151094
0.152484
0.155161
0.153928
0.156763
0.159675
0.162613
0.165548
0.168469
0.171367
0.174236
0.177071
0.179869
0.182628
0.185347
0.188028
0.190681
0.193308
0.195871
0.198371
0.200805
0.203172
0.205469
0.207694
0.209841
0.21191
0.213896
0.215796
0.217609
0.219331
0.22096
0.222493
0.223929
0.225265
0.226499
0.227631
0.228659
0.229581
0.230397
0.231106
0.231706
0.232199
0.232583
0.232859
0.233026
0.233086
0.233039
0.232886
0.232628
0.232266
0.231802
0.231237
0.230573
0.229812
0.228957
0.228008
0.22697
0.225844
0.224633
0.22334
0.221968
0.220519
0.218998
0.217406
0.215748
0.214026
0.212244
0.210405
0.208512
0.20657
0.204579
0.202546
0.200473
0.198363
0.196221
0.194047
0.191853
0.189641
0.187425
0.185236
0.184021
0.191322
0.183771
0.194976
0.202589
0.201296
0.200551
0.193894
0.200677
0.200379
0.198012
0.191446
0.185552
0.200347
0.18958
0.198577
0.197466
0.196707
0.201677
0.201917
0.201855
0.203845
0.201689
0.200737
0.00156156
0.0073732
0.0112762
0.014308
0.0168701
0.0192909
0.0217049
0.0241547
0.0266313
0.0291242
0.0316261
0.0341331
0.0366452
0.0391649
0.0416963
0.0442439
0.0468123
0.0494059
0.0520286
0.054684
0.0573753
0.060105
0.0628756
0.0656889
0.0685465
0.0714496
0.0743989
0.077395
0.0804381
0.083528
0.0866643
0.0898461
0.0930722
0.0963414
0.0996516
0.103001
0.106387
0.109806
0.113256
0.116732
0.120232
0.123752
0.127286
0.130831
0.134381
0.137932
0.141478
0.145012
0.148527
0.152015
0.15547
0.158884
0.162252
0.165569
0.168834
0.172043
0.175187
0.178248
0.181189
0.183959
0.186536
0.189073
0.192341
0.195937
0.199629
0.202778
0.206172
0.209577
0.213602
0.217878
0.222284
0.227096
0.232676
0.23768
0.243058
0.248166
0.253759
0.259753
0.266492
0.272449
0.27824
0.28389
0.289608
0.295359
0.301128
0.3069
0.312663
0.318407
0.324126
0.329813
0.335461
0.341063
0.34661
0.352025
0.357359
0.362615
0.36779
0.372877
0.377871
0.382766
0.387554
0.39223
0.396787
0.40122
0.405521
0.409686
0.413708
0.417583
0.421304
0.424868
0.428269
0.431504
0.434567
0.437457
0.440168
0.442698
0.445044
0.447204
0.449176
0.450958
0.452549
0.453948
0.455154
0.456167
0.456988
0.457617
0.458055
0.458303
0.458363
0.458237
0.457927
0.457436
0.456766
0.455922
0.454906
0.453722
0.452375
0.450868
0.449207
0.447395
0.445439
0.443342
0.44111
0.438747
0.436262
0.433657
0.430938
0.428113
0.425185
0.422162
0.41905
0.415845
0.412574
0.40922
0.405795
0.402357
0.399035
0.395563
0.392482
0.388344
0.388465
0.385199
0.377093
0.375249
0.37051
0.371474
0.36396
0.361872
0.359206
0.357824
0.352287
0.351206
0.348047
0.344775
0.341191
0.338078
0.332124
0.331914
0.328371
0.324371
0.003164
0.0121994
0.0174002
0.0210601
0.024148
0.0270043
0.0297794
0.0325376
0.0352988
0.0380646
0.0408316
0.0435977
0.0463633
0.0491317
0.0519076
0.0546967
0.0575047
0.0603373
0.0631997
0.0660965
0.0690319
0.0720094
0.0750322
0.078103
0.0812239
0.0843969
0.0876233
0.0909044
0.0942409
0.0976333
0.101082
0.104587
0.108148
0.111764
0.115435
0.119159
0.122936
0.126765
0.130642
0.134567
0.138539
0.142554
0.146612
0.15071
0.154847
0.15902
0.163228
0.167469
0.171741
0.176043
0.180373
0.184733
0.189124
0.193552
0.198023
0.202547
0.207132
0.211788
0.216522
0.221349
0.226303
0.231473
0.236986
0.242649
0.248431
0.254237
0.260297
0.266479
0.272891
0.279444
0.28613
0.293008
0.300121
0.307232
0.31444
0.321693
0.329066
0.336547
0.344153
0.351683
0.359126
0.366482
0.37381
0.38113
0.388443
0.395741
0.403019
0.410269
0.417483
0.424658
0.431785
0.438863
0.44584
0.452725
0.459516
0.466213
0.472806
0.479289
0.485654
0.491892
0.497995
0.503956
0.509764
0.515414
0.520896
0.526205
0.531331
0.536269
0.541011
0.545551
0.549884
0.554003
0.557904
0.561582
0.565032
0.56825
0.571234
0.573979
0.576483
0.578744
0.580761
0.582531
0.584056
0.585333
0.586364
0.58715
0.587691
0.587989
0.588046
0.587865
0.587449
0.586801
0.585925
0.584825
0.583505
0.581971
0.580228
0.578281
0.576136
0.573798
0.571275
0.568573
0.565697
0.562655
0.559454
0.556101
0.552601
0.548967
0.5452
0.541308
0.537308
0.533178
0.528974
0.524687
0.520333
0.515969
0.511662
0.507113
0.502855
0.498038
0.494542
0.490125
0.484333
0.480081
0.475264
0.471799
0.466215
0.461891
0.457666
0.453537
0.448523
0.444532
0.440147
0.435738
0.431209
0.426877
0.421671
0.418536
0.414538
0.410514
0.00483963
0.0163432
0.022415
0.0266179
0.0300971
0.0332489
0.0362545
0.0392023
0.0421322
0.0450598
0.0479895
0.0509228
0.0538611
0.0568076
0.0597667
0.0627439
0.0657449
0.0687755
0.0718413
0.0749473
0.0780981
0.0812978
0.0845499
0.0878575
0.0912235
0.09465
0.0981391
0.101692
0.105311
0.108997
0.11275
0.116572
0.120462
0.124422
0.128451
0.132549
0.136718
0.140956
0.145263
0.14964
0.154086
0.158601
0.163186
0.167842
0.172568
0.177365
0.182236
0.187181
0.192202
0.197302
0.202483
0.207752
0.213113
0.218576
0.224148
0.229842
0.23567
0.241642
0.247768
0.25406
0.260531
0.267205
0.274106
0.281201
0.28846
0.295856
0.303406
0.311091
0.31892
0.326873
0.334937
0.343119
0.351428
0.359823
0.368293
0.376827
0.385422
0.39406
0.402741
0.41143
0.42009
0.428702
0.437281
0.445838
0.454376
0.462892
0.47138
0.479835
0.488248
0.496614
0.504925
0.513168
0.521307
0.529344
0.537276
0.545096
0.552795
0.560364
0.567793
0.575072
0.582192
0.589143
0.595915
0.602499
0.608885
0.615065
0.621031
0.626773
0.632284
0.637557
0.642585
0.647361
0.651878
0.656133
0.660118
0.66383
0.667266
0.67042
0.67329
0.675874
0.67817
0.680177
0.681894
0.68332
0.684458
0.685306
0.685867
0.686143
0.686137
0.685852
0.68529
0.684458
0.683358
0.681996
0.680378
0.678508
0.676395
0.674043
0.67146
0.668652
0.665628
0.662396
0.658961
0.655332
0.65152
0.647531
0.643367
0.639052
0.63458
0.629961
0.625227
0.620368
0.615407
0.610353
0.605225
0.600072
0.594912
0.589567
0.584359
0.578896
0.573836
0.56849
0.562726
0.557277
0.551794
0.546597
0.540867
0.535386
0.530039
0.524707
0.519155
0.5139
0.508598
0.503328
0.498073
0.492958
0.487727
0.483256
0.478812
0.474683
0.00630684
0.0196467
0.0265107
0.0311956
0.0350088
0.0384014
0.0415843
0.0446676
0.0477095
0.0507392
0.0537709
0.0568115
0.0598653
0.0629363
0.0660288
0.069148
0.0722992
0.075488
0.0787198
0.0819995
0.0853321
0.0887216
0.092172
0.0956867
0.0992687
0.102921
0.106645
0.110444
0.114319
0.118272
0.122305
0.126419
0.130614
0.134894
0.139257
0.143707
0.148243
0.152867
0.15758
0.162384
0.16728
0.172269
0.177354
0.182537
0.18782
0.193206
0.198698
0.204301
0.210017
0.215852
0.22181
0.227898
0.234123
0.240491
0.247013
0.253696
0.260551
0.267584
0.274801
0.282206
0.289803
0.297596
0.305589
0.313773
0.32213
0.330644
0.339306
0.348109
0.357044
0.366101
0.375269
0.384545
0.393926
0.403401
0.412956
0.422576
0.43225
0.441966
0.451716
0.461484
0.471249
0.480991
0.490711
0.500409
0.510085
0.519735
0.529352
0.538931
0.548464
0.557942
0.56736
0.576677
0.585888
0.594988
0.603967
0.612818
0.62153
0.630093
0.638495
0.646726
0.654773
0.662626
0.670274
0.677706
0.684911
0.691879
0.698601
0.705068
0.711269
0.717197
0.722843
0.728201
0.733264
0.738025
0.742478
0.746619
0.750444
0.753948
0.757127
0.759981
0.762505
0.7647
0.766565
0.7681
0.769305
0.770182
0.770734
0.770961
0.770869
0.770459
0.769738
0.768709
0.767378
0.765751
0.763834
0.761634
0.759158
0.756414
0.753409
0.750152
0.74665
0.742916
0.738954
0.73477
0.730386
0.725804
0.721017
0.716073
0.710964
0.705698
0.700294
0.694757
0.689101
0.683341
0.677497
0.671606
0.665668
0.659603
0.653557
0.647388
0.641309
0.635127
0.628794
0.622499
0.61622
0.609999
0.603641
0.597326
0.591084
0.584866
0.578609
0.572468
0.566372
0.560346
0.554405
0.548622
0.542972
0.537769
0.532868
0.528405
0.00747552
0.0222796
0.029791
0.0348853
0.0389877
0.0425904
0.0459264
0.0491224
0.052251
0.0553536
0.058454
0.0615654
0.0646964
0.067853
0.0710405
0.074264
0.0775289
0.0808404
0.0842038
0.087624
0.0911056
0.094653
0.0982702
0.101961
0.105728
0.109575
0.113504
0.117518
0.121619
0.12581
0.130092
0.134467
0.138937
0.143505
0.148172
0.15294
0.157812
0.162789
0.167874
0.173069
0.178377
0.183802
0.189346
0.195012
0.200806
0.20673
0.212789
0.218989
0.225333
0.231828
0.238479
0.245291
0.252273
0.259429
0.266767
0.274294
0.282015
0.289934
0.298055
0.306377
0.314901
0.323625
0.332547
0.341662
0.350959
0.360425
0.370052
0.37983
0.389749
0.399801
0.409974
0.420261
0.430658
0.441154
0.451737
0.462395
0.473115
0.483885
0.494695
0.505532
0.51638
0.527223
0.538053
0.548867
0.559658
0.570421
0.581149
0.591833
0.602464
0.613033
0.623528
0.633906
0.644166
0.654301
0.6643
0.674154
0.683851
0.693378
0.702723
0.711874
0.720817
0.72954
0.738031
0.746277
0.754268
0.761991
0.769435
0.776591
0.783448
0.789996
0.796226
0.802132
0.807705
0.812938
0.817826
0.822363
0.826544
0.830365
0.833823
0.836915
0.839639
0.841994
0.84398
0.845597
0.846847
0.847731
0.848251
0.848411
0.848214
0.847665
0.84677
0.845533
0.843961
0.842061
0.83984
0.837305
0.834465
0.831329
0.827906
0.824203
0.820231
0.816004
0.811528
0.806799
0.801859
0.796708
0.791348
0.785803
0.78008
0.774188
0.768142
0.761951
0.755629
0.749192
0.742659
0.736057
0.729387
0.722615
0.715802
0.708907
0.702
0.695035
0.687998
0.68094
0.673883
0.666838
0.659757
0.652685
0.645655
0.638655
0.631673
0.624769
0.617943
0.611214
0.604614
0.598201
0.592021
0.586238
0.580845
0.575916
0.00838498
0.0243259
0.0323451
0.0377723
0.0421178
0.0459022
0.0493733
0.0526689
0.0558718
0.0590328
0.0621837
0.0653443
0.0685275
0.0717423
0.0749955
0.0782934
0.0816414
0.085045
0.0885092
0.0920391
0.0956391
0.0993138
0.103067
0.106903
0.110824
0.114835
0.118937
0.123135
0.12743
0.131825
0.136323
0.140927
0.145638
0.150459
0.155394
0.160445
0.165615
0.170907
0.176325
0.181872
0.187551
0.193367
0.199324
0.205427
0.21168
0.218088
0.224657
0.231392
0.238299
0.245383
0.252649
0.260105
0.267755
0.275604
0.283659
0.291924
0.300402
0.309097
0.31801
0.327138
0.336482
0.346038
0.355803
0.365771
0.375934
0.386284
0.396811
0.407506
0.41836
0.429361
0.440501
0.45177
0.46316
0.474661
0.486262
0.49795
0.509712
0.521536
0.53341
0.545322
0.557255
0.569196
0.581135
0.593061
0.604967
0.616844
0.628683
0.640473
0.652205
0.663869
0.675428
0.686863
0.698167
0.70933
0.720342
0.73119
0.74186
0.75234
0.762615
0.772671
0.782494
0.79207
0.801385
0.810427
0.819183
0.827639
0.835784
0.843606
0.851094
0.858238
0.865028
0.871456
0.877513
0.883193
0.888489
0.893395
0.897907
0.90202
0.905731
0.909037
0.911936
0.914427
0.916511
0.918189
0.919461
0.920332
0.920802
0.920876
0.920559
0.919856
0.918772
0.917314
0.915491
0.913309
0.910776
0.9079
0.904691
0.901162
0.897321
0.893171
0.888728
0.884014
0.879034
0.873794
0.868316
0.862609
0.856682
0.850552
0.844229
0.837726
0.831055
0.824228
0.817259
0.810164
0.802961
0.795671
0.788297
0.780829
0.773291
0.76568
0.758022
0.750315
0.742556
0.734765
0.726965
0.719165
0.711358
0.703559
0.69579
0.688057
0.680366
0.672752
0.665234
0.657835
0.650595
0.643571
0.636831
0.630488
0.624559
0.619086
0.00905512
0.0258539
0.034255
0.0399411
0.0444822
0.0484178
0.0520048
0.0553877
0.0586556
0.0618659
0.0650565
0.0682524
0.071471
0.0747242
0.0780212
0.0813693
0.0847751
0.0882442
0.0917819
0.0953934
0.0990833
0.102856
0.106716
0.110666
0.114712
0.118855
0.123099
0.127448
0.131904
0.136471
0.141151
0.145948
0.150865
0.155904
0.161071
0.166367
0.171797
0.177365
0.183076
0.188932
0.19494
0.201104
0.207429
0.213921
0.220585
0.227427
0.234452
0.241668
0.249078
0.256691
0.26451
0.272543
0.280793
0.289266
0.297967
0.306898
0.316063
0.325463
0.3351
0.344971
0.355075
0.365409
0.375969
0.38675
0.397745
0.408947
0.420347
0.431935
0.443702
0.455638
0.467732
0.479974
0.492353
0.504858
0.517479
0.530201
0.543011
0.555896
0.568843
0.581837
0.594864
0.607908
0.620958
0.634
0.647024
0.660018
0.672971
0.685871
0.698705
0.711458
0.724082
0.73657
0.748913
0.7611
0.773116
0.784948
0.796581
0.808
0.81919
0.830135
0.840819
0.851229
0.861349
0.871164
0.880661
0.889826
0.898646
0.907109
0.915202
0.922914
0.930235
0.937156
0.943669
0.949766
0.955441
0.960688
0.965502
0.96988
0.973816
0.977309
0.980356
0.982958
0.985116
0.986831
0.988104
0.98894
0.98934
0.989311
0.988856
0.987983
0.986698
0.985007
0.982921
0.980449
0.977599
0.974375
0.970791
0.966867
0.96261
0.958027
0.953132
0.947943
0.94247
0.936722
0.930718
0.924468
0.917985
0.911284
0.904377
0.897278
0.889999
0.882554
0.874957
0.867223
0.85937
0.851415
0.843364
0.835217
0.826988
0.818683
0.810318
0.801901
0.793438
0.784941
0.776428
0.767913
0.759399
0.750897
0.742424
0.733992
0.725615
0.717322
0.70914
0.701096
0.693234
0.685611
0.678298
0.671388
0.664889
0.658827
0.00950932
0.0269287
0.0355999
0.0414757
0.0461651
0.0502197
0.0539008
0.0573562
0.0606787
0.0639296
0.0671509
0.0703718
0.073613
0.0768896
0.0802128
0.0835916
0.0870336
0.0905451
0.094132
0.0977996
0.101553
0.105396
0.109334
0.113371
0.11751
0.121756
0.126111
0.130579
0.135165
0.13987
0.144699
0.149655
0.154743
0.159965
0.165327
0.170832
0.176486
0.182292
0.188257
0.194385
0.200681
0.207153
0.213804
0.220643
0.227675
0.234906
0.242344
0.249993
0.257862
0.265955
0.27428
0.28284
0.291642
0.30069
0.309988
0.319539
0.329345
0.339409
0.34973
0.360308
0.37114
0.382224
0.393556
0.405131
0.416942
0.428983
0.441245
0.453719
0.466395
0.479261
0.492307
0.505521
0.518892
0.532406
0.546051
0.559812
0.573676
0.587628
0.601653
0.615735
0.629859
0.644008
0.658168
0.672325
0.686464
0.700573
0.714637
0.728642
0.742576
0.756396
0.770074
0.783603
0.796971
0.810163
0.823165
0.83596
0.848532
0.860866
0.872943
0.884749
0.896265
0.907476
0.918366
0.92892
0.939123
0.948961
0.958419
0.967485
0.976145
0.984386
0.9922
0.999576
1.00651
1.01298
1.019
1.02455
1.02963
1.03424
1.03837
1.04201
1.04518
1.04786
1.05006
1.05179
1.05304
1.05382
1.05412
1.05397
1.05336
1.05231
1.05081
1.04887
1.04651
1.04374
1.04057
1.037
1.03306
1.02875
1.02408
1.01907
1.01373
1.00808
1.00212
0.995882
0.989366
0.98259
0.975568
0.968315
0.960845
0.95317
0.945305
0.937265
0.929063
0.920715
0.912237
0.903645
0.894948
0.88615
0.877262
0.868294
0.859259
0.850168
0.84103
0.831858
0.822667
0.813471
0.804279
0.795103
0.785957
0.776857
0.767823
0.758881
0.75006
0.741394
0.732926
0.724715
0.716828
0.709341
0.702251
0.69558
0.00977195
0.0276109
0.0364545
0.0424575
0.0472504
0.0513909
0.0551421
0.0586527
0.0620169
0.065298
0.0685406
0.0717766
0.0750294
0.0783165
0.0816511
0.0850438
0.0885033
0.0920369
0.0956511
0.0993516
0.103144
0.107033
0.111023
0.115118
0.119323
0.123642
0.128079
0.132637
0.13732
0.142133
0.147079
0.152163
0.157389
0.162762
0.168286
0.173967
0.179811
0.185822
0.192007
0.198373
0.204924
0.211669
0.218614
0.225766
0.233132
0.240719
0.248534
0.256585
0.264877
0.273419
0.282215
0.291272
0.300594
0.310187
0.320055
0.330199
0.340624
0.35133
0.362317
0.373585
0.385132
0.396955
0.409051
0.421414
0.434039
0.446917
0.460041
0.473401
0.486987
0.500786
0.514787
0.528977
0.543341
0.557867
0.572539
0.587342
0.60226
0.617277
0.632377
0.647543
0.662757
0.678003
0.693262
0.70852
0.72376
0.738967
0.754123
0.769214
0.784216
0.799073
0.813776
0.828315
0.842674
0.856837
0.870786
0.884504
0.897973
0.911175
0.924094
0.936711
0.949008
0.960969
0.972577
0.983816
0.994671
1.00513
1.01517
1.02478
1.03396
1.04267
1.05093
1.0587
1.066
1.0728
1.07911
1.08492
1.09022
1.09501
1.09929
1.10305
1.10629
1.10902
1.11124
1.11294
1.11414
1.11483
1.11502
1.11473
1.11395
1.11269
1.11096
1.10878
1.10615
1.10308
1.09959
1.09569
1.09139
1.08669
1.08163
1.07621
1.07044
1.06434
1.05792
1.0512
1.0442
1.03692
1.02938
1.02161
1.0136
1.00538
0.996957
0.988352
0.979577
0.970648
0.961579
0.952386
0.94308
0.933668
0.924159
0.914567
0.904903
0.895179
0.885406
0.875596
0.865765
0.855928
0.846096
0.836281
0.826499
0.816767
0.807108
0.797548
0.788118
0.778855
0.769802
0.761017
0.75256
0.744495
0.736809
0.729526
0.00986769
0.0279561
0.0368881
0.042963
0.047818
0.0520126
0.055809
0.0593555
0.0627461
0.066045
0.069298
0.0725387
0.0757922
0.0790777
0.0824103
0.0858019
0.0892624
0.0927999
0.0964218
0.100134
0.103943
0.107854
0.111872
0.116001
0.120247
0.124613
0.129104
0.133724
0.138478
0.14337
0.148406
0.15359
0.158926
0.164422
0.170082
0.175912
0.181919
0.188109
0.194489
0.201067
0.207849
0.214844
0.222059
0.229502
0.23718
0.245103
0.253277
0.26171
0.27041
0.279384
0.288637
0.298177
0.308009
0.318136
0.328564
0.339296
0.350333
0.361678
0.373331
0.38529
0.397554
0.41012
0.422985
0.436142
0.449586
0.463309
0.477302
0.491554
0.506055
0.520792
0.535751
0.550917
0.566275
0.58181
0.597504
0.613341
0.629304
0.645374
0.661533
0.677763
0.694046
0.710361
0.726692
0.74302
0.759326
0.775594
0.791806
0.807943
0.82394
0.839782
0.855456
0.870947
0.886239
0.90131
0.916141
0.930714
0.94501
0.95901
0.972696
0.986049
0.999051
1.01169
1.02393
1.03578
1.04721
1.0582
1.06875
1.07884
1.08845
1.09757
1.10619
1.1143
1.12189
1.12896
1.13549
1.14149
1.14696
1.15188
1.15626
1.16008
1.16336
1.16608
1.16827
1.16992
1.17103
1.17161
1.17167
1.17121
1.17024
1.16878
1.16682
1.16438
1.16148
1.15812
1.15432
1.15009
1.14543
1.14038
1.13494
1.12912
1.12294
1.11642
1.10956
1.1024
1.09493
1.08718
1.07917
1.0709
1.06239
1.05366
1.04473
1.0356
1.02629
1.01682
1.00721
0.997462
0.987593
0.977613
0.967533
0.957365
0.94712
0.936812
0.926451
0.916052
0.90563
0.895198
0.884771
0.874362
0.863987
0.853666
0.843421
0.833281
0.823277
0.813448
0.803836
0.794497
0.785484
0.776852
0.768578
0.760692
0.00982103
0.0280148
0.036964
0.0430629
0.0479432
0.0521619
0.055979
0.0595412
0.0629417
0.0662444
0.0694955
0.0727293
0.0759722
0.0792445
0.0825625
0.0859393
0.0893858
0.0929111
0.0965232
0.100229
0.104036
0.107948
0.111972
0.116114
0.120377
0.124768
0.129291
0.133951
0.138753
0.143703
0.148807
0.154069
0.159497
0.165095
0.170872
0.176834
0.182988
0.189343
0.195905
0.202683
0.209686
0.216921
0.224399
0.232127
0.240115
0.248371
0.256903
0.265721
0.274832
0.284243
0.293961
0.303993
0.314343
0.325018
0.33602
0.347353
0.359019
0.371019
0.383354
0.396022
0.409022
0.422349
0.435999
0.449967
0.464245
0.478825
0.493697
0.50885
0.524272
0.539949
0.555866
0.572005
0.588349
0.60488
0.621579
0.638428
0.655408
0.672499
0.689682
0.706936
0.724241
0.741577
0.758925
0.776264
0.793575
0.81084
0.82804
0.845112
0.862026
0.878769
0.895325
0.911678
0.92781
0.943694
0.959308
0.974634
0.989652
1.00434
1.01869
1.03267
1.04627
1.05947
1.07225
1.0846
1.09649
1.10792
1.11887
1.12934
1.1393
1.14872
1.15761
1.16596
1.17376
1.181
1.18769
1.19381
1.19936
1.20434
1.20875
1.21258
1.21584
1.21852
1.22064
1.22219
1.22319
1.22364
1.22354
1.2229
1.22173
1.22005
1.21785
1.21516
1.21199
1.20835
1.20424
1.19969
1.19471
1.18931
1.18351
1.17733
1.17077
1.16385
1.1566
1.14903
1.14114
1.13297
1.12451
1.1158
1.10684
1.09766
1.08826
1.07866
1.06887
1.05892
1.04881
1.03857
1.0282
1.01771
1.00711
0.996428
0.985662
0.974828
0.963939
0.953008
0.942051
0.931081
0.920114
0.909165
0.89825
0.88739
0.876608
0.865933
0.855398
0.845041
0.834905
0.82504
0.815496
0.806317
0.797477
0.789012
0.00965597
0.0278332
0.0367394
0.0428216
0.047695
0.0519107
0.0557254
0.0592836
0.0626769
0.0659686
0.0692045
0.0724194
0.0756401
0.0788877
0.0821794
0.085529
0.0889485
0.0924477
0.0960354
0.0997195
0.103507
0.107405
0.111419
0.115555
0.11982
0.124219
0.128758
0.133442
0.138279
0.143274
0.148434
0.153765
0.159275
0.164971
0.17086
0.176952
0.183253
0.189774
0.196523
0.203509
0.210743
0.218232
0.225989
0.23402
0.242338
0.250951
0.259868
0.269099
0.278651
0.288534
0.298752
0.309313
0.320221
0.331481
0.343096
0.35507
0.367404
0.380099
0.393155
0.406568
0.420337
0.434457
0.448922
0.463726
0.478859
0.494313
0.510076
0.526136
0.542479
0.559092
0.575957
0.593054
0.610359
0.627854
0.64552
0.663335
0.68128
0.699333
0.717473
0.735679
0.753928
0.7722
0.790475
0.80873
0.826948
0.845109
0.863149
0.88103
0.898737
0.916251
0.933555
0.950634
0.967474
0.984034
1.00029
1.01622
1.03182
1.04705
1.06192
1.07638
1.09043
1.10405
1.11722
1.12993
1.14215
1.15388
1.16511
1.17581
1.18597
1.19558
1.20463
1.21311
1.22102
1.22835
1.23509
1.24125
1.24681
1.25177
1.25615
1.25992
1.2631
1.2657
1.2677
1.26912
1.26997
1.27025
1.26997
1.26913
1.26776
1.26585
1.26342
1.26048
1.25704
1.25312
1.24873
1.24389
1.2386
1.23289
1.22677
1.22025
1.21336
1.2061
1.19849
1.19055
1.1823
1.17375
1.16492
1.15582
1.14648
1.13689
1.12709
1.11709
1.10689
1.09652
1.08599
1.07532
1.06451
1.05359
1.04255
1.03142
1.0202
1.00891
0.997563
0.98617
0.974746
0.963306
0.951865
0.940439
0.929046
0.917707
0.906446
0.895291
0.884277
0.873439
0.862821
0.85247
0.842429
0.832737
0.823364
0.814354
0.00939602
0.0274527
0.0362658
0.042297
0.0471359
0.0513248
0.0551162
0.0586517
0.0620214
0.0652875
0.0684954
0.0716796
0.0748671
0.0780795
0.0813345
0.0846467
0.0880286
0.0914911
0.0950437
0.0986951
0.102453
0.106326
0.11032
0.114442
0.1187
0.1231
0.12765
0.132356
0.137226
0.142267
0.147487
0.152895
0.158498
0.164305
0.170325
0.176567
0.183042
0.189759
0.196728
0.20396
0.211465
0.219255
0.227339
0.235728
0.244433
0.253464
0.262829
0.272539
0.282603
0.293029
0.303823
0.314988
0.326527
0.338446
0.350747
0.363432
0.376502
0.389957
0.403793
0.418008
0.432597
0.447554
0.462871
0.47854
0.494551
0.510892
0.52755
0.544511
0.561761
0.579284
0.597069
0.615088
0.633302
0.651697
0.670254
0.688951
0.707768
0.72668
0.745667
0.764706
0.783774
0.80285
0.821912
0.84094
0.859916
0.878768
0.897462
0.915978
0.934296
0.952396
0.970259
0.987866
1.00519
1.02222
1.03892
1.05526
1.07125
1.08684
1.10203
1.11679
1.13112
1.14498
1.15837
1.17126
1.18365
1.19552
1.20686
1.21765
1.22788
1.23754
1.24662
1.25511
1.26301
1.27031
1.277
1.28309
1.28857
1.29344
1.29771
1.30136
1.3044
1.30685
1.30869
1.30994
1.31061
1.31069
1.31021
1.30916
1.30757
1.30543
1.30277
1.29959
1.29591
1.29173
1.28709
1.28198
1.27642
1.27044
1.26404
1.25724
1.25006
1.24251
1.23461
1.22637
1.21782
1.20896
1.19982
1.19041
1.18075
1.17085
1.16072
1.15039
1.13986
1.12916
1.11829
1.10727
1.09611
1.08483
1.07344
1.06194
1.05036
1.03869
1.02697
1.01519
1.00338
0.991551
0.979714
0.967887
0.95609
0.944342
0.932669
0.9211
0.909666
0.898406
0.887359
0.87657
0.866079
0.855919
0.846058
0.836548
0.00906431
0.0269104
0.0355883
0.0415399
0.0463211
0.0504632
0.0542132
0.0577099
0.0610416
0.0642692
0.0674376
0.0705809
0.0737261
0.0768951
0.0801059
0.0833739
0.0867124
0.090133
0.0936461
0.0972616
0.100988
0.104835
0.108811
0.112923
0.11718
0.121591
0.126165
0.130909
0.135833
0.140946
0.146258
0.151778
0.157517
0.163484
0.169689
0.176142
0.182856
0.189842
0.197111
0.204675
0.212544
0.220731
0.229247
0.238102
0.247306
0.25687
0.266803
0.277114
0.287812
0.298907
0.31041
0.322305
0.334597
0.347291
0.360389
0.373891
0.387795
0.402099
0.416797
0.431884
0.447352
0.463194
0.479398
0.495955
0.512851
0.530072
0.547604
0.56543
0.583534
0.601896
0.620498
0.639315
0.65832
0.67749
0.696803
0.716237
0.735768
0.755373
0.77503
0.794716
0.81441
0.834091
0.853741
0.873326
0.892774
0.912064
0.931174
0.95008
0.968762
0.987199
1.00537
1.02325
1.04083
1.05808
1.07497
1.09149
1.10761
1.12333
1.13861
1.15345
1.16782
1.18171
1.1951
1.20799
1.22035
1.23216
1.24343
1.25414
1.26427
1.27382
1.28278
1.29114
1.2989
1.30604
1.31258
1.31849
1.3238
1.32848
1.33255
1.33601
1.33886
1.34109
1.34273
1.34377
1.34422
1.34409
1.34339
1.34213
1.34031
1.33796
1.33507
1.33167
1.32777
1.32338
1.31851
1.31318
1.3074
1.3012
1.29458
1.28756
1.28016
1.27239
1.26427
1.25581
1.24704
1.23796
1.2286
1.21897
1.20908
1.19895
1.18859
1.17802
1.16726
1.15631
1.1452
1.13393
1.12253
1.11099
1.09933
1.08757
1.07571
1.06377
1.05177
1.0397
1.0276
1.01547
1.00332
0.991181
0.979063
0.966989
0.954983
0.943074
0.931294
0.919679
0.908267
0.897101
0.886216
0.875644
0.865352
0.855397
0.00866744
0.0262138
0.0347174
0.0405636
0.045267
0.0493447
0.0530377
0.0564816
0.0597627
0.062941
0.0660604
0.0691549
0.0722516
0.0753724
0.0785362
0.081759
0.0850552
0.0884376
0.0919182
0.0955079
0.0992169
0.103056
0.107035
0.111165
0.115456
0.119918
0.124563
0.129401
0.134443
0.139702
0.145189
0.150918
0.156902
0.163148
0.169666
0.176471
0.183575
0.190992
0.198733
0.206811
0.215236
0.224021
0.233176
0.24271
0.252633
0.262953
0.273677
0.284811
0.296361
0.308332
0.320725
0.333537
0.346767
0.360413
0.374473
0.388942
0.403815
0.419085
0.434744