/*--------------------------------*- C++ -*----------------------------------*\
  =========                 |
  \\      /  F ield         | OpenFOAM: The Open Source CFD Toolbox
   \\    /   O peration     | Website:  https://openfoam.org
    \\  /    A nd           | Version:  7
     \\/     M anipulation  |
\*---------------------------------------------------------------------------*/
FoamFile
{
    version     2.0;
    format      ascii;
    class       volVectorField;
    location    "0.22";
    object      U;
}
// * * * * * * * * * * * * * * * * * * * * * * * * * * * * * * * * * * * * * //

dimensions      [0 1 -1 0 0 0 0];

internalField   nonuniform List<vector> 
12225
(
(4.73347 -0.571241 0)
(4.31414 -0.430538 0)
(4.0336 -0.176986 0)
(3.82435 -0.051554 0)
(3.64943 -0.00460607 0)
(3.50658 0.0100169 0)
(3.39566 0.0130692 0)
(3.30948 0.0124595 0)
(3.24018 0.0110337 0)
(3.18277 0.00969417 0)
(3.13437 0.00861985 0)
(3.09296 0.00776829 0)
(3.05702 0.00706846 0)
(3.02548 0.0064747 0)
(2.99743 0.00595824 0)
(2.973 0.00546723 0)
(2.94843 0.00571012 0)
(2.93692 0.00246224 0)
(5.02997 0.295074 0)
(4.84219 0.245058 0)
(4.69195 0.169882 0)
(4.58578 0.107141 0)
(4.48716 0.0705249 0)
(4.3926 0.0517087 0)
(4.30762 0.0412129 0)
(4.23284 0.0342667 0)
(4.16667 0.0291898 0)
(4.10802 0.0253751 0)
(4.05626 0.0224581 0)
(4.01057 0.0201654 0)
(3.9701 0.0183085 0)
(3.93408 0.0167832 0)
(3.90184 0.0154553 0)
(3.87312 0.014545 0)
(3.84681 0.0130837 0)
(3.82521 0.015049 0)
(4.96336 0.187522 0)
(4.82997 0.103972 0)
(4.75455 0.0857324 0)
(4.71159 0.076519 0)
(4.6662 0.0679765 0)
(4.61623 0.0609011 0)
(4.5678 0.0547309 0)
(4.52262 0.0490763 0)
(4.48031 0.0440756 0)
(4.44085 0.039851 0)
(4.40448 0.0363267 0)
(4.37122 0.0333525 0)
(4.34086 0.0308015 0)
(4.31317 0.0285972 0)
(4.28791 0.0266428 0)
(4.2649 0.0250255 0)
(4.24411 0.0233677 0)
(4.2248 0.0228123 0)
(4.96282 0.171151 0)
(4.85057 0.102656 0)
(4.78992 0.0968116 0)
(4.76079 0.0902771 0)
(4.73313 0.0806785 0)
(4.70323 0.0725603 0)
(4.67486 0.0659309 0)
(4.64867 0.0600517 0)
(4.62385 0.0548323 0)
(4.60023 0.0503327 0)
(4.57802 0.0464794 0)
(4.5573 0.0431415 0)
(4.53805 0.0402116 0)
(4.52019 0.037622 0)
(4.50365 0.0352954 0)
(4.48836 0.0332499 0)
(4.47456 0.0312664 0)
(4.4611 0.0296373 0)
(4.97359 0.19525 0)
(4.88122 0.12911 0)
(4.82305 0.114555 0)
(4.79434 0.101669 0)
(4.77166 0.0891102 0)
(4.74972 0.0798322 0)
(4.73031 0.0727558 0)
(4.71336 0.0666646 0)
(4.69782 0.0612957 0)
(4.68326 0.056651 0)
(4.66971 0.052643 0)
(4.65716 0.0491408 0)
(4.64554 0.0460398 0)
(4.63477 0.0432692 0)
(4.62482 0.0407598 0)
(4.61562 0.0384776 0)
(4.60739 0.036296 0)
(4.59912 0.0341891 0)
(4.98217 0.218658 0)
(4.90832 0.150131 0)
(4.85342 0.126869 0)
(4.82375 0.110018 0)
(4.80227 0.0959213 0)
(4.78331 0.085743 0)
(4.7676 0.0780383 0)
(4.75476 0.0715239 0)
(4.74368 0.0658559 0)
(4.73377 0.0609718 0)
(4.72489 0.056755 0)
(4.71692 0.0530647 0)
(4.70975 0.0497905 0)
(4.70327 0.0468534 0)
(4.69741 0.0441829 0)
(4.69209 0.0417165 0)
(4.68747 0.0393738 0)
(4.68272 0.0370386 0)
(4.98795 0.23524 0)
(4.93048 0.166914 0)
(4.88099 0.138197 0)
(4.85124 0.118663 0)
(4.83 0.103027 0)
(4.81215 0.091579 0)
(4.7979 0.0829049 0)
(4.78681 0.0757169 0)
(4.77779 0.0695659 0)
(4.77017 0.0643041 0)
(4.7637 0.0597751 0)
(4.75819 0.0558205 0)
(4.75349 0.0523181 0)
(4.74943 0.0491772 0)
(4.74594 0.0463207 0)
(4.74292 0.0436724 0)
(4.74043 0.0411692 0)
(4.73785 0.03869 0)
(4.9919 0.247333 0)
(4.94824 0.182001 0)
(4.90536 0.14981 0)
(4.87671 0.127897 0)
(4.85589 0.110549 0)
(4.8387 0.0976065 0)
(4.82511 0.0877599 0)
(4.81475 0.0797188 0)
(4.80666 0.072931 0)
(4.80015 0.0671655 0)
(4.79489 0.062224 0)
(4.79068 0.0579263 0)
(4.78729 0.0541342 0)
(4.78457 0.050743 0)
(4.78241 0.0476666 0)
(4.78069 0.0448217 0)
(4.77944 0.0421482 0)
(4.77812 0.0395421 0)
(4.99462 0.256583 0)
(4.9621 0.195564 0)
(4.92618 0.161143 0)
(4.89973 0.137208 0)
(4.87991 0.118276 0)
(4.86356 0.103852 0)
(4.85053 0.0927619 0)
(4.84059 0.0837611 0)
(4.83296 0.0762257 0)
(4.827 0.0698564 0)
(4.82237 0.0644173 0)
(4.81881 0.0597055 0)
(4.81612 0.0555651 0)
(4.81413 0.0518773 0)
(4.81269 0.0485456 0)
(4.81168 0.0454818 0)
(4.81111 0.0426235 0)
(4.8105 0.0398835 0)
(4.99646 0.263631 0)
(4.97262 0.207265 0)
(4.94338 0.17165 0)
(4.91991 0.146197 0)
(4.90174 0.125973 0)
(4.88663 0.110212 0)
(4.87439 0.0979033 0)
(4.86494 0.0879069 0)
(4.85769 0.0795644 0)
(4.8521 0.0725264 0)
(4.84784 0.0665275 0)
(4.84466 0.0613457 0)
(4.84235 0.0568087 0)
(4.84074 0.0527839 0)
(4.8397 0.049165 0)
(4.83908 0.0458594 0)
(4.83887 0.0428 0)
(4.83863 0.0399112 0)
(4.99767 0.268908 0)
(4.9804 0.217041 0)
(4.9572 0.181086 0)
(4.93712 0.154594 0)
(4.92107 0.133375 0)
(4.90759 0.116479 0)
(4.89649 0.103052 0)
(4.88777 0.0920903 0)
(4.88105 0.0829346 0)
(4.87588 0.0752038 0)
(4.87196 0.0686138 0)
(4.86909 0.0629289 0)
(4.86705 0.0579635 0)
(4.86569 0.0535736 0)
(4.86488 0.0496441 0)
(4.86448 0.0460782 0)
(4.86447 0.0428036 0)
(4.86444 0.0397515 0)
(4.99839 0.272595 0)
(4.9856 0.224451 0)
(4.9672 0.188699 0)
(4.95029 0.161577 0)
(4.9364 0.139652 0)
(4.92467 0.121899 0)
(4.9149 0.107575 0)
(4.90712 0.0957992 0)
(4.90109 0.085934 0)
(4.89645 0.0775841 0)
(4.89295 0.0704556 0)
(4.89041 0.0643056 0)
(4.88864 0.0589401 0)
(4.88751 0.0542071 0)
(4.88688 0.0499851 0)
(4.88664 0.0461735 0)
(4.88676 0.0426968 0)
(4.88686 0.0394843 0)
(4.99887 0.275392 0)
(4.98949 0.230568 0)
(4.97518 0.195353 0)
(4.96129 0.167816 0)
(4.94961 0.145323 0)
(4.93974 0.126858 0)
(4.93146 0.111754 0)
(4.92481 0.0992454 0)
(4.91964 0.0887257 0)
(4.91568 0.0797955 0)
(4.91273 0.0721555 0)
(4.91062 0.0655587 0)
(4.9092 0.0598058 0)
(4.90834 0.0547386 0)
(4.90793 0.0502308 0)
(4.90787 0.0461781 0)
(4.90813 0.0425026 0)
(4.90836 0.0391273 0)
(4.99923 0.277714 0)
(4.99273 0.236098 0)
(4.98228 0.201704 0)
(4.97159 0.173918 0)
(4.9624 0.150934 0)
(4.95466 0.131813 0)
(4.94819 0.115954 0)
(4.943 0.102707 0)
(4.93899 0.0915171 0)
(4.93599 0.0819844 0)
(4.93382 0.0738069 0)
(4.93235 0.0667365 0)
(4.93144 0.0605699 0)
(4.931 0.0551444 0)
(4.93093 0.0503288 0)
(4.93115 0.0460157 0)
(4.93163 0.0421229 0)
(4.93206 0.0385718 0)
(4.99952 0.279551 0)
(4.99536 0.240744 0)
(4.9884 0.207305 0)
(4.98095 0.179414 0)
(4.97446 0.15601 0)
(4.96908 0.136296 0)
(4.96468 0.119729 0)
(4.96123 0.105768 0)
(4.95868 0.0939176 0)
(4.95691 0.0837883 0)
(4.95578 0.0750766 0)
(4.95518 0.0675338 0)
(4.955 0.0609544 0)
(4.95517 0.0551714 0)
(4.95561 0.0500493 0)
(4.95625 0.0454773 0)
(4.95709 0.0413683 0)
(4.95783 0.0376444 0)
(4.99973 0.28087 0)
(4.99746 0.244207 0)
(4.99358 0.211638 0)
(4.98936 0.183706 0)
(4.98573 0.159917 0)
(4.9829 0.13966 0)
(4.98079 0.122448 0)
(4.97935 0.107824 0)
(4.97852 0.0953505 0)
(4.97824 0.0846586 0)
(4.97839 0.0754457 0)
(4.97888 0.0674622 0)
(4.97965 0.0605006 0)
(4.98063 0.05439 0)
(4.98177 0.0489905 0)
(4.98301 0.044187 0)
(4.98435 0.0398876 0)
(4.98555 0.0360151 0)
(4.99991 0.281588 0)
(4.99922 0.246126 0)
(4.9981 0.214032 0)
(4.99706 0.185955 0)
(4.9965 0.161749 0)
(4.99647 0.140972 0)
(4.99691 0.123185 0)
(4.99775 0.10798 0)
(4.99893 0.0949669 0)
(5.00039 0.0837926 0)
(5.00206 0.0741572 0)
(5.00388 0.0658089 0)
(5.0058 0.0585375 0)
(5.00778 0.052168 0)
(5.00979 0.0465559 0)
(5.01179 0.0415816 0)
(5.0138 0.037148 0)
(5.0156 0.0331783 0)
(5.00008 0.281521 0)
(5.00085 0.245924 0)
(5.00244 0.213506 0)
(5.00477 0.184923 0)
(5.00762 0.16016 0)
(5.01081 0.138848 0)
(5.01419 0.12056 0)
(5.0177 0.104899 0)
(5.02125 0.0914885 0)
(5.0248 0.0799805 0)
(5.02829 0.07007 0)
(5.03171 0.0614992 0)
(5.03502 0.0540524 0)
(5.03822 0.0475496 0)
(5.04129 0.0418414 0)
(5.04422 0.036804 0)
(5.04704 0.0323357 0)
(5.04959 0.0283601 0)
(5.00031 0.280224 0)
(5.00288 0.242326 0)
(5.00773 0.208121 0)
(5.01414 0.178284 0)
(5.02118 0.152687 0)
(5.0283 0.130825 0)
(5.03531 0.112189 0)
(5.0421 0.0963288 0)
(5.04859 0.0828295 0)
(5.05472 0.0713084 0)
(5.06048 0.0614356 0)
(5.06587 0.0529377 0)
(5.07091 0.0455887 0)
(5.07561 0.0392014 0)
(5.08001 0.0336209 0)
(5.08411 0.0287201 0)
(5.08796 0.0243941 0)
(5.09144 0.020568 0)
(5.00061 0.277671 0)
(5.00556 0.235168 0)
(5.01459 0.197617 0)
(5.02595 0.165782 0)
(5.03778 0.139127 0)
(5.04923 0.116772 0)
(5.06013 0.098023 0)
(5.07039 0.0823221 0)
(5.07993 0.0691485 0)
(5.0887 0.0580371 0)
(5.09674 0.0486099 0)
(5.10411 0.0405671 0)
(5.11088 0.0336668 0)
(5.11708 0.0277117 0)
(5.12279 0.0225416 0)
(5.12805 0.0180271 0)
(5.13291 0.014063 0)
(5.13729 0.0105757 0)
(5.00095 0.274078 0)
(5.00882 0.225417 0)
(5.02281 0.184012 0)
(5.03958 0.150426 0)
(5.0562 0.123171 0)
(5.07174 0.100781 0)
(5.08623 0.0823767 0)
(5.09962 0.0672739 0)
(5.11181 0.0548094 0)
(5.12283 0.0444236 0)
(5.13277 0.0356987 0)
(5.14178 0.0283196 0)
(5.14994 0.0220358 0)
(5.15736 0.0166463 0)
(5.16411 0.0119919 0)
(5.17027 0.00794677 0)
(5.17592 0.00440984 0)
(5.18099 0.00131156 0)
(5.00149 0.269088 0)
(5.01372 0.212423 0)
(5.03449 0.166926 0)
(5.05779 0.132116 0)
(5.07954 0.104766 0)
(5.09926 0.0827551 0)
(5.11735 0.0651111 0)
(5.13379 0.0509883 0)
(5.14846 0.0395378 0)
(5.1615 0.0301149 0)
(5.17311 0.022285 0)
(5.18351 0.0157291 0)
(5.19283 0.0101934 0)
(5.20121 0.00547847 0)
(5.20876 0.00143106 0)
(5.21558 -0.0020674 0)
(5.22179 -0.00511117 0)
(5.22733 -0.00776483 0)
(5.00238 0.262164 0)
(5.0213 0.195502 0)
(5.05128 0.146387 0)
(5.08215 0.111333 0)
(5.10916 0.0844468 0)
(5.13299 0.0632583 0)
(5.15456 0.0468624 0)
(5.17375 0.0341421 0)
(5.19049 0.0240139 0)
(5.20508 0.0157839 0)
(5.21791 0.0090335 0)
(5.22925 0.0034502 0)
(5.23927 -0.00121794 0)
(5.24817 -0.00516233 0)
(5.2561 -0.00852437 0)
(5.26318 -0.0114116 0)
(5.26956 -0.0139086 0)
(5.2752 -0.0160734 0)
(5.00395 0.252446 0)
(5.03317 0.173609 0)
(5.07518 0.122477 0)
(5.11404 0.0887983 0)
(5.14579 0.06307 0)
(5.17333 0.0432093 0)
(5.19787 0.0285805 0)
(5.21907 0.0176637 0)
(5.23705 0.00912559 0)
(5.25243 0.00227652 0)
(5.26576 -0.00325641 0)
(5.27734 -0.00776807 0)
(5.28744 -0.011499 0)
(5.29625 -0.0146235 0)
(5.304 -0.0172653 0)
(5.31083 -0.0195172 0)
(5.31688 -0.0214508 0)
(5.32217 -0.0231163 0)
(5.00664 0.239246 0)
(5.05116 0.146011 0)
(5.10793 0.0952288 0)
(5.15398 0.0649339 0)
(5.18901 0.041452 0)
(5.21922 0.023707 0)
(5.24573 0.01137 0)
(5.26783 0.00252657 0)
(5.28599 -0.00427936 0)
(5.30122 -0.00965765 0)
(5.31418 -0.0139194 0)
(5.32523 -0.0173343 0)
(5.33465 -0.02012 0)
(5.3427 -0.0224255 0)
(5.34961 -0.0243527 0)
(5.35556 -0.0259782 0)
(5.3607 -0.0273596 0)
(5.36508 -0.02854 0)
(5.01051 0.222558 0)
(5.07591 0.115738 0)
(5.14967 0.0673096 0)
(5.20128 0.0405985 0)
(5.23761 0.0200671 0)
(5.26893 0.00550262 0)
(5.29598 -0.00394983 0)
(5.31764 -0.0105532 0)
(5.33479 -0.0156003 0)
(5.34877 -0.0195071 0)
(5.36032 -0.02251 0)
(5.3698 -0.0248488 0)
(5.37754 -0.0267105 0)
(5.38384 -0.0282151 0)
(5.38897 -0.0294427 0)
(5.39311 -0.0304549 0)
(5.39645 -0.0312953 0)
(5.39905 -0.0320026 0)
(5.01612 0.196418 0)
(5.1084 0.0875817 0)
(5.19903 0.0463767 0)
(5.25414 0.0197374 0)
(5.29027 -0.00010125 0)
(5.321 -0.0113782 0)
(5.34653 -0.017444 0)
(5.36575 -0.02152 0)
(5.38 -0.0246716 0)
(5.39083 -0.0270355 0)
(5.39904 -0.0287425 0)
(5.40501 -0.0299897 0)
(5.40915 -0.0309256 0)
(5.41182 -0.0316362 0)
(5.41332 -0.0321774 0)
(5.41388 -0.0325953 0)
(5.41369 -0.0329187 0)
(5.41289 -0.0331804 0)
(5.02989 0.134584 0)
(5.15986 0.047571 0)
(5.25806 0.0412268 0)
(5.30882 0.0217037 0)
(5.34243 -0.00174248 0)
(5.37068 -0.015663 0)
(5.39131 -0.0222211 0)
(5.4038 -0.0258259 0)
(5.41049 -0.028139 0)
(5.41341 -0.0295241 0)
(5.41353 -0.0302422 0)
(5.41139 -0.0305642 0)
(5.40751 -0.0306686 0)
(5.40236 -0.0306477 0)
(5.39629 -0.0305535 0)
(5.38957 -0.0304292 0)
(5.3824 -0.0303043 0)
(5.37496 -0.0302074 0)
(5.08133 -0.0500377 0)
(5.26819 -0.199283 0)
(5.34721 -0.137928 0)
(5.36474 -0.0864871 0)
(5.37843 -0.0639023 0)
(5.39122 -0.0517886 0)
(5.39347 -0.0435486 0)
(5.3849 -0.0382593 0)
(5.37004 -0.034955 0)
(5.35218 -0.0326429 0)
(5.33269 -0.0308069 0)
(5.31226 -0.0292666 0)
(5.29145 -0.027947 0)
(5.27068 -0.0267963 0)
(5.25022 -0.0257802 0)
(5.23023 -0.024897 0)
(5.21085 -0.0241509 0)
(5.19223 -0.02373 0)
(5.01586 0.723718 0)
(5.23568 0.467498 0)
(5.2847 0.234422 0)
(5.20731 0.103785 0)
(5.10617 0.0382161 0)
(5.01519 0.00868076 0)
(4.93336 -0.00336242 0)
(4.85851 -0.00798076 0)
(4.79125 -0.00964956 0)
(4.73147 -0.0101164 0)
(4.67797 -0.0100887 0)
(4.62956 -0.00988579 0)
(4.58544 -0.00964832 0)
(4.54507 -0.00942749 0)
(4.50798 -0.00923617 0)
(4.47376 -0.00908965 0)
(4.4419 -0.00899019 0)
(4.41222 -0.00916389 0)
(0.00335082 -0.00859199 -1.41856e-20)
(0.0108651 -0.0117706 1.40841e-20)
(0.0163588 -0.00844833 0)
(0.0184809 -0.00313207 0)
(0.0167704 0.00191238 0)
(0.0121472 0.00565509 -1.32301e-20)
(0.00535059 0.00807272 0)
(-0.00298749 0.00956194 0)
(-0.0124116 0.0105199 0)
(-0.0226656 0.0111972 0)
(-0.0335755 0.0117328 1.21019e-20)
(-0.0450367 0.0121933 0)
(-0.0569828 0.0126053 0)
(-0.0693655 0.0129769 0)
(-0.0821451 0.0133095 0)
(-0.0952868 0.0136027 1.09023e-20)
(-0.108759 0.0138568 0)
(-0.122532 0.0140731 0)
(-0.136579 0.0142542 0)
(-0.150876 0.0144031 0)
(-0.165402 0.0145234 0)
(-0.180139 0.0146187 0)
(-0.19507 0.014693 0)
(-0.210183 0.0147496 9.38818e-21)
(-0.225467 0.014792 -9.22894e-21)
(-0.240914 0.0148232 9.07551e-21)
(-0.256518 0.0148459 8.92765e-21)
(-0.272273 0.0148627 0)
(-0.288176 0.0148756 0)
(-0.304225 0.0148863 -8.51525e-21)
(-0.32042 0.0148962 -8.38748e-21)
(-0.336758 0.0149065 0)
(-0.35324 0.0149179 0)
(-0.369867 0.014931 -8.03067e-21)
(-0.386637 0.0149461 0)
(-0.40355 0.0149636 0)
(-0.420605 0.0149836 7.71028e-21)
(-0.437802 0.015006 0)
(-0.455139 0.0150309 7.51514e-21)
(-0.472613 0.0150581 1.48455e-20)
(-0.490222 0.0150874 0)
(-0.507962 0.0151183 0)
(-0.525827 0.0151502 0)
(-0.543813 0.0151823 0)
(-0.561913 0.0152137 0)
(-0.580117 0.0152434 1.38692e-20)
(-0.598416 0.0152705 1.37269e-20)
(-0.616798 0.0152942 1.35902e-20)
(-0.635249 0.0153143 0)
(-0.653755 0.0153313 -1.33327e-20)
(-0.6723 0.015347 0)
(-0.69087 0.0153638 1.30964e-20)
(-0.70945 0.0153846 1.29858e-20)
(-0.728026 0.015409 0)
(-0.746575 0.0154288 0)
(-0.765058 0.015423 0)
(-0.783409 0.0153761 1.25928e-20)
(-0.80152 0.0153558 0)
(-0.819268 0.0156885 0)
(-0.836689 0.0173021 0)
(-0.854883 0.0225247 0)
(-0.875363 0.03884 0)
(-0.897383 0.0338336 0)
(-0.916863 0.011487 0)
(-0.931943 -0.00156845 0)
(-0.946888 0.00622036 -1.22228e-20)
(-0.964006 0.0170291 0)
(-0.981932 0.0169444 0)
(-0.998272 0.0184109 1.16764e-20)
(-1.01444 0.0169108 1.1596e-20)
(-1.03077 0.0240603 0)
(-1.04872 0.0337654 -1.14335e-20)
(-1.06643 0.0257834 1.13573e-20)
(-1.08258 0.0246427 0)
(-1.09759 0.0292366 -1.22024e-20)
(-1.11203 0.0176631 0)
(-1.12587 0.0215304 0)
(-1.14158 0.0316323 1.19964e-20)
(-1.15722 0.0230812 0)
(-1.16857 0.00565861 -1.1664e-20)
(-1.17655 0.0045534 0)
(-1.18504 0.00649613 1.13208e-20)
(-1.19421 0.006044 1.11358e-20)
(-1.20275 0.00574631 1.09451e-20)
(-1.21086 0.00530985 2.14971e-20)
(-1.21833 0.0048141 -2.10923e-20)
(-1.22511 0.00427355 0)
(-1.23114 0.00369775 0)
(-1.23638 0.00309006 0)
(-1.24077 0.00245382 -1.93528e-20)
(-1.24428 0.00179926 -1.88871e-20)
(-1.24686 0.00114563 1.84091e-20)
(-1.24841 0.000513025 0)
(-1.24895 -6.5493e-05 -1.74093e-20)
(-1.24876 -0.000557692 -1.68872e-20)
(-1.24776 -0.0010269 -1.63513e-20)
(-1.24597 -0.00148567 0)
(-1.24339 -0.00193949 0)
(-1.24003 -0.0023896 0)
(-1.23586 -0.00283617 -1.40667e-20)
(-1.23089 -0.00327887 0)
(-1.22512 -0.0037172 0)
(-1.21855 -0.00415059 1.2206e-20)
(-1.21117 -0.00457844 0)
(-1.20298 -0.00500017 0)
(-1.19399 -0.0054152 1.0222e-20)
(-1.1842 -0.00582298 0)
(-1.17361 -0.00622296 0)
(-1.16224 -0.00661463 -8.11915e-21)
(-1.15008 -0.00699749 -7.39296e-21)
(-1.13714 -0.00737107 0)
(-1.12344 -0.00773493 5.90461e-21)
(-1.10898 -0.00808863 0)
(-1.09378 -0.0084318 -4.37091e-21)
(-1.07785 -0.00876406 0)
(-1.0612 -0.00908506 -2.79545e-21)
(-1.04384 -0.00939449 -1.99332e-21)
(-1.0258 -0.00969203 0)
(-1.00709 -0.00997742 0)
(-0.987723 -0.0102504 0)
(-0.967723 -0.0105107 0)
(-0.947107 -0.0107582 0)
(-0.925896 -0.0109928 0)
(-0.90411 -0.0112142 0)
(-0.88177 -0.0114225 4.69004e-21)
(-0.8589 -0.0116174 -5.54876e-21)
(-0.83552 -0.0117991 0)
(-0.811654 -0.0119675 0)
(-0.787325 -0.0121227 0)
(-0.762557 -0.0122646 0)
(-0.737374 -0.0123936 -1.97418e-20)
(-0.7118 -0.0125095 0)
(-0.685858 -0.0126127 2.31994e-20)
(-0.659573 -0.0127033 -2.49224e-20)
(-0.632969 -0.0127815 0)
(-0.606071 -0.0128475 0)
(-0.578901 -0.0129017 0)
(-0.551483 -0.0129443 3.17423e-20)
(-0.523841 -0.0129756 3.34223e-20)
(-0.495998 -0.0129959 0)
(-0.467975 -0.0130056 3.67428e-20)
(-0.439795 -0.0130051 3.83806e-20)
(-0.41148 -0.0129947 -4.00018e-20)
(-0.38305 -0.0129747 0)
(-0.354526 -0.0129456 0)
(-0.325927 -0.0129078 -4.47532e-20)
(-0.297273 -0.0128615 0)
(-0.268582 -0.0128072 0)
(-0.239873 -0.0127454 0)
(-0.211161 -0.0126769 0)
(-0.182464 -0.0126029 5.22355e-20)
(-0.153791 -0.0125265 5.36587e-20)
(-0.125137 -0.0124558 0)
(-0.0964926 -0.0124185 5.64276e-20)
(-0.0678556 -0.0124452 0)
(-0.03903 -0.0124062 0)
(-0.00999632 -0.0117302 6.04119e-20)
(0.0195553 -0.0121244 0)
(0.0459135 -0.0106178 6.1703e-20)
(0.0761476 -0.0115257 0)
(0.101704 -0.0119132 0)
(0.130055 -0.00848142 6.22022e-20)
(0.160001 -0.00964173 0)
(0.185804 -0.00960526 6.21339e-20)
(0.214651 -0.0122995 0)
(0.239122 -0.00980096 0)
(0.268995 -0.00821862 0)
(0.294313 -0.0119233 -6.37998e-20)
(0.320859 -0.0109295 0)
(0.347292 -0.00731359 6.47872e-20)
(0.374726 -0.00933417 0)
(0.400251 -0.0113183 0)
(0.427464 -0.00914927 0)
(0.453945 -0.00596997 0)
(0.481308 -0.00638294 0)
(0.50595 -0.00121945 0)
(0.533306 -0.00611484 0)
(0.551555 -0.0112567 -1.29407e-19)
(0.572016 -0.00183917 0)
(0.561223 0.0115599 0)
(0.00206847 -0.0207746 4.20782e-20)
(0.00337559 -0.017954 -4.02754e-20)
(0.000926163 -0.0073832 0)
(-0.00341046 0.00302684 2.37394e-20)
(-0.00933793 0.0120307 0)
(-0.0168416 0.0191906 1.10248e-20)
(-0.0257503 0.0245486 -2.14244e-20)
(-0.0359082 0.0284236 -2.08752e-20)
(-0.0471317 0.0312181 0)
(-0.0592255 0.0332773 -1.98626e-20)
(-0.0720145 0.0348486 -9.70922e-21)
(-0.0853562 0.0360924 0)
(-0.0991395 0.0371054 0)
(-0.113279 0.0379443 0)
(-0.12771 0.038643 0)
(-0.142381 0.0392234 -8.67652e-21)
(-0.157252 0.0397015 0)
(-0.172292 0.0400905 1.66211e-20)
(-0.187475 0.0404024 0)
(-0.202782 0.040648 0)
(-0.218199 0.0408376 -1.56857e-20)
(-0.233712 0.0409807 0)
(-0.249315 0.0410857 1.51276e-20)
(-0.265002 0.0411602 -7.44926e-21)
(-0.280769 0.0412108 7.32371e-21)
(-0.296616 0.0412432 -7.20317e-21)
(-0.312543 0.0412621 -7.08735e-21)
(-0.328551 0.0412712 0)
(-0.344643 0.0412736 0)
(-0.36082 0.0412713 6.76568e-21)
(-0.377087 0.0412659 -6.63323e-21)
(-0.393446 0.0412582 0)
(-0.409901 0.0412483 0)
(-0.426453 0.041236 6.38911e-21)
(-0.443105 0.0412206 0)
(-0.459859 0.041201 0)
(-0.476716 0.0411761 -6.14019e-21)
(-0.493676 0.0411445 0)
(-0.510738 0.0411047 5.95388e-21)
(-0.527902 0.0410552 -1.18328e-20)
(-0.545165 0.0409943 0)
(-0.562524 0.0409201 0)
(-0.579976 0.0408306 -2.27907e-20)
(-0.597515 0.0407234 -2.25412e-20)
(-0.615135 0.0405958 -2.23009e-20)
(-0.632831 0.040445 1.09989e-20)
(-0.650594 0.0402682 -1.09598e-20)
(-0.668418 0.0400627 -3.24875e-20)
(-0.686293 0.0398269 2.143e-20)
(-0.704213 0.03956 1.06543e-20)
(-0.722171 0.0392629 0)
(-0.74016 0.0389371 -1.04741e-20)
(-0.758174 0.0385832 1.03159e-20)
(-0.776207 0.0381967 0)
(-0.794253 0.0377632 0)
(-0.812312 0.0372541 0)
(-0.830407 0.0366319 -1.01174e-20)
(-0.848592 0.0358719 0)
(-0.866964 0.0349879 1.99689e-20)
(-0.885646 0.0340223 0)
(-0.904033 0.0330266 1.99814e-20)
(-0.920297 0.0325016 0)
(-0.935798 0.0325911 -2.09767e-20)
(-0.952709 0.0330389 0)
(-0.971732 0.0332761 2.0867e-20)
(-0.989714 0.0322243 -1.00757e-20)
(-1.00555 0.0304699 0)
(-1.02053 0.0285254 -1.9731e-20)
(-1.03601 0.027182 -9.84523e-21)
(-1.05128 0.0255745 -9.79648e-21)
(-1.06573 0.0241476 0)
(-1.07838 0.0232684 -9.57012e-21)
(-1.09078 0.0219831 -9.69382e-21)
(-1.10296 0.020199 0)
(-1.11471 0.0192834 9.77954e-21)
(-1.12616 0.0187256 -1.92251e-20)
(-1.13667 0.0174649 0)
(-1.14462 0.0164305 -9.41895e-21)
(-1.15152 0.015726 0)
(-1.15976 0.015009 2.7418e-20)
(-1.16892 0.0145157 0)
(-1.17691 0.0141238 -2.65238e-20)
(-1.18345 0.0133668 -8.69909e-21)
(-1.18925 0.01239 8.52457e-21)
(-1.19432 0.0112978 1.67383e-20)
(-1.1987 0.0101291 -1.64181e-20)
(-1.2024 0.00891279 0)
(-1.20542 0.00766251 0)
(-1.20776 0.00638498 0)
(-1.20943 0.00508274 4.50955e-20)
(-1.21046 0.00376186 1.46496e-20)
(-1.21089 0.00244529 -1.42629e-20)
(-1.21077 0.00117064 0)
(-1.2101 -5.81568e-05 -1.34965e-20)
(-1.2087 -0.00122919 1.30293e-20)
(-1.20655 -0.00237523 1.25984e-20)
(-1.20365 -0.00350456 0)
(-1.19997 -0.00462178 0)
(-1.19551 -0.00572748 0)
(-1.19026 -0.006821 1.07774e-20)
(-1.18422 -0.00790109 0)
(-1.17739 -0.00896627 -1.97376e-20)
(-1.16976 -0.010015 -2.80628e-20)
(-1.16134 -0.0110457 1.77463e-20)
(-1.15211 -0.0120569 0)
(-1.14209 -0.0130471 7.91889e-21)
(-1.13129 -0.014015 0)
(-1.11969 -0.0149591 1.35516e-20)
(-1.10731 -0.0158783 -6.32062e-21)
(-1.09416 -0.0167713 -5.77157e-21)
(-1.08024 -0.017637 0)
(-1.06557 -0.0184745 -1.35432e-20)
(-1.05014 -0.0192826 7.94672e-21)
(-1.03398 -0.0200607 3.28199e-21)
(-1.0171 -0.0208079 0)
(-0.999511 -0.0215234 2.09308e-21)
(-0.981225 -0.0222068 4.71096e-21)
(-0.96226 -0.0228574 0)
(-0.942632 -0.0234748 7.93432e-22)
(-0.922359 -0.0240584 -4.33095e-22)
(-0.901459 -0.0246081 -1.66701e-21)
(-0.879951 -0.0251234 0)
(-0.857855 -0.0256044 0)
(-0.835192 -0.0260509 0)
(-0.811982 -0.026463 3.18791e-21)
(-0.788248 -0.0268408 4.09928e-21)
(-0.764012 -0.0271844 0)
(-0.739296 -0.0274942 1.04297e-20)
(-0.714123 -0.0277704 1.16877e-20)
(-0.688518 -0.0280136 0)
(-0.662504 -0.0282243 1.44975e-20)
(-0.636104 -0.028403 3.08998e-20)
(-0.609343 -0.0285505 -1.69987e-20)
(-0.582244 -0.0286673 -1.76357e-20)
(-0.554832 -0.0287543 0)
(-0.527131 -0.0288124 0)
(-0.499164 -0.0288425 0)
(-0.470955 -0.0288455 -2.31408e-20)
(-0.442527 -0.0288223 2.3736e-20)
(-0.413903 -0.028774 5.04639e-20)
(-0.385105 -0.0287018 -2.67149e-20)
(-0.356155 -0.0286065 2.72818e-20)
(-0.327075 -0.0284894 2.90376e-20)
(-0.297885 -0.0283516 0)
(-0.268606 -0.0281941 0)
(-0.239257 -0.0280181 -3.18304e-20)
(-0.209857 -0.0278245 0)
(-0.180425 -0.0276147 0)
(-0.150977 -0.0273896 7.07367e-20)
(-0.12153 -0.0271507 0)
(-0.0921005 -0.0269006 3.71672e-20)
(-0.0627011 -0.0266428 -3.87351e-20)
(-0.0333426 -0.0263849 0)
(-0.00404055 -0.0261456 4.00856e-20)
(0.0251586 -0.0259692 0)
(0.0541781 -0.0258793 0)
(0.0832035 -0.0255472 -4.25189e-20)
(0.111293 -0.0247608 8.59697e-20)
(0.140518 -0.0244221 -4.36576e-20)
(0.168133 -0.0236484 0)
(0.197305 -0.0236976 0)
(0.225959 -0.0239262 4.46549e-20)
(0.25203 -0.0229333 0)
(0.281134 -0.0225182 4.52479e-20)
(0.307897 -0.0216667 0)
(0.337969 -0.0221992 0)
(0.36418 -0.0214552 0)
(0.392911 -0.0208229 4.72369e-20)
(0.421134 -0.020818 0)
(0.449124 -0.0209392 -4.80701e-20)
(0.476272 -0.0203606 0)
(0.504447 -0.0199874 0)
(0.531835 -0.0200664 9.71325e-20)
(0.559191 -0.0202099 -9.76165e-20)
(0.58511 -0.0198806 0)
(0.611391 -0.0195765 0)
(0.634319 -0.0166531 0)
(0.658729 -0.0133927 2.96326e-19)
(0.680108 -0.00827693 0)
(0.689572 0.00374899 -2.02223e-19)
(-0.000701669 -0.019757 -5.43464e-23)
(-0.00582649 -0.00816416 5.14899e-20)
(-0.012844 0.00593894 0)
(-0.0206271 0.0183335 -4.2239e-20)
(-0.0292302 0.028967 0)
(-0.038506 0.0378119 0)
(-0.0484609 0.0449271 1.33281e-23)
(-0.0591326 0.0504949 1.78197e-20)
(-0.0705085 0.054778 1.73262e-20)
(-0.0825237 0.0580536 1.6899e-20)
(-0.0950873 0.0605661 0)
(-0.108104 0.0625075 0)
(-0.121488 0.0640185 -1.57197e-20)
(-0.135166 0.0651983 -3.07417e-20)
(-0.149078 0.0661165 3.0079e-20)
(-0.163177 0.0668235 0)
(-0.177429 0.0673573 2.88496e-20)
(-0.191805 0.0677481 -1.41526e-20)
(-0.206285 0.068021 0)
(-0.220853 0.0681975 2.72162e-20)
(-0.235499 0.0682963 1.3374e-20)
(-0.250215 0.0683336 -2.62472e-20)
(-0.264996 0.0683237 -1.29111e-20)
(-0.27984 0.0682783 0)
(-0.294746 0.0682079 2.49439e-20)
(-0.309715 0.0681205 2.45446e-20)
(-0.324749 0.068023 0)
(-0.339849 0.0679205 2.37923e-20)
(-0.35502 0.0678169 0)
(-0.370263 0.0677147 2.30959e-20)
(-0.385583 0.0676156 1.14e-20)
(-0.400982 0.0675199 0)
(-0.416464 0.0674275 0)
(-0.43203 0.0673374 0)
(-0.447682 0.0672481 0)
(-0.463422 0.0671576 0)
(-0.479251 0.0670637 0)
(-0.495168 0.0669641 2.07662e-20)
(-0.511173 0.066856 -3.07966e-20)
(-0.527264 0.0667368 0)
(-0.543439 0.0666035 0)
(-0.559694 0.0664533 0)
(-0.576025 0.0662828 3.83886e-23)
(-0.592427 0.0660888 1.94432e-20)
(-0.608893 0.065868 3.84498e-20)
(-0.625418 0.0656171 -3.8067e-20)
(-0.641994 0.0653334 -1.88307e-20)
(-0.658614 0.0650149 1.86926e-20)
(-0.675269 0.0646607 -3.75922e-23)
(-0.691951 0.0642712 1.83264e-20)
(-0.70865 0.0638477 0)
(-0.725355 0.0633917 1.80302e-20)
(-0.742054 0.0629029 -3.56808e-23)
(-0.758733 0.0623773 0)
(-0.775378 0.0618065 0)
(-0.791976 0.0611812 -1.75369e-20)
(-0.808523 0.0605022 0)
(-0.825019 0.0598009 0)
(-0.841455 0.0591542 1.7239e-20)
(-0.857763 0.0586797 3.44093e-20)
(-0.873637 0.0585184 -1.71651e-20)
(-0.88845 0.0583506 0)
(-0.902584 0.0569937 1.71796e-20)
(-0.917296 0.054574 0)
(-0.932641 0.0525269 1.69696e-20)
(-0.947749 0.0512673 1.69533e-20)
(-0.961906 0.0502049 -3.35197e-20)
(-0.9754 0.0487927 -1.66127e-20)
(-0.988527 0.0472873 0)
(-1.00139 0.0457896 3.27357e-20)
(-1.01354 0.0446313 0)
(-1.02445 0.0431576 4.82238e-20)
(-1.03495 0.0408725 3.18672e-20)
(-1.04546 0.0387365 3.15247e-20)
(-1.05528 0.0367598 -3.12129e-20)
(-1.06476 0.034412 4.62893e-20)
(-1.0738 0.0325345 0)
(-1.08152 0.0306634 0)
(-1.08862 0.0277519 -2.96184e-20)
(-1.09623 0.0246321 -4.37712e-20)
(-1.10385 0.0225457 0)
(-1.11059 0.0208575 1.41092e-20)
(-1.11644 0.0190755 0)
(-1.1216 0.0172572 -4.0763e-20)
(-1.12611 0.0153966 -1.26106e-23)
(-1.12999 0.0135029 6.67756e-24)
(-1.13323 0.0115867 2.55465e-20)
(-1.13584 0.00965677 0)
(-1.13783 0.0077218 -2.4398e-20)
(-1.13919 0.00579049 1.75246e-23)
(-1.13991 0.00387231 0)
(-1.14 0.0019787 0)
(-1.13945 0.000123275 0)
(-1.13822 -0.00170736 2.1213e-20)
(-1.13627 -0.00353318 0)
(-1.1336 -0.00534879 0)
(-1.13018 -0.00715151 0)
(-1.12602 -0.00893896 0)
(-1.1211 -0.0107087 0)
(-1.11541 -0.0124584 1.70111e-20)
(-1.10896 -0.0141853 0)
(-1.10174 -0.0158869 1.53918e-20)
(-1.09374 -0.0175606 1.46052e-20)
(-1.08498 -0.0192039 -1.38063e-20)
(-1.07543 -0.0208143 0)
(-1.06512 -0.0223896 -1.21726e-20)
(-1.05404 -0.0239274 0)
(-1.0422 -0.0254257 -1.04935e-20)
(-1.02959 -0.0268824 9.63779e-21)
(-1.01624 -0.0282957 2.6614e-20)
(-1.00213 -0.0296637 0)
(-0.987295 -0.0309847 2.13558e-20)
(-0.971731 -0.0322574 6.45033e-21)
(-0.955451 -0.0334804 0)
(-0.938468 -0.0346524 8.96748e-21)
(-0.920796 -0.0357724 7.14496e-21)
(-0.902447 -0.0368395 -7.77765e-21)
(-0.883438 -0.0378527 0)
(-0.863784 -0.0388115 -6.06771e-22)
(-0.843502 -0.0397152 3.30849e-22)
(-0.822609 -0.0405633 3.40988e-21)
(-0.801125 -0.0413554 0)
(-0.779069 -0.0420915 0)
(-0.756459 -0.0427715 0)
(-0.733318 -0.0433957 4.62623e-21)
(-0.709666 -0.0439642 0)
(-0.685525 -0.0444774 0)
(-0.660916 -0.0449357 -7.90251e-21)
(-0.635862 -0.0453399 -8.84727e-21)
(-0.610387 -0.0456907 0)
(-0.584513 -0.0459891 0)
(-0.558263 -0.0462362 -2.3326e-20)
(-0.531661 -0.0464329 0)
(-0.50473 -0.0465805 2.70365e-20)
(-0.477493 -0.0466803 2.841e-20)
(-0.449975 -0.0467338 0)
(-0.422198 -0.0467425 0)
(-0.394185 -0.046708 -3.38424e-20)
(-0.365959 -0.046632 -4.64564e-22)
(-0.337541 -0.0465161 -4.63424e-22)
(-0.308955 -0.0463623 0)
(-0.280221 -0.0461722 -8.2176e-20)
(-0.25136 -0.0459476 0)
(-0.222393 -0.0456906 0)
(-0.193339 -0.0454029 0)
(-0.164218 -0.0450862 4.80007e-20)
(-0.135047 -0.0447426 0)
(-0.105844 -0.0443736 -1.0152e-19)
(-0.0766262 -0.0439813 -5.2764e-20)
(-0.0474091 -0.0435678 0)
(-0.0182079 -0.0431362 -5.58108e-20)
(0.010963 -0.0426911 0)
(0.0400893 -0.0422393 0)
(0.0691538 -0.0417934 -1.76667e-19)
(0.0981154 -0.0413712 1.1945e-19)
(0.126894 -0.0409571 0)
(0.155694 -0.0403193 1.23464e-19)
(0.184111 -0.0396631 -6.31496e-20)
(0.212984 -0.0390428 0)
(0.241235 -0.0384651 0)
(0.26985 -0.0382436 0)
(0.298226 -0.0376463 -1.99122e-19)
(0.325927 -0.0369457 0)
(0.354453 -0.036521 -6.79099e-20)
(0.382121 -0.03617 0)
(0.410641 -0.0358302 0)
(0.438197 -0.0350797 0)
(0.466374 -0.0348128 0)
(0.494206 -0.0344588 0)
(0.522132 -0.0338791 0)
(0.549826 -0.0335264 -1.4433e-19)
(0.577572 -0.0333089 0)
(0.60489 -0.0327918 -7.34975e-20)
(0.632226 -0.0321267 2.21435e-19)
(0.658832 -0.0313247 0)
(0.685376 -0.0298533 0)
(0.710335 -0.0276636 -1.47402e-19)
(0.734592 -0.0244546 -1.50975e-19)
(0.757897 -0.0173026 1.52589e-19)
(0.77494 -0.00349521 1.55096e-19)
(-0.00337783 -0.00881848 -8.26998e-20)
(-0.0121804 0.00925533 -7.45387e-20)
(-0.0216388 0.0249085 -4.32261e-20)
(-0.0315265 0.0379769 -1.94447e-20)
(-0.041777 0.0491648 0)
(-0.0522043 0.0586591 3.42966e-20)
(-0.0628525 0.0665579 -1.6444e-20)
(-0.0738125 0.0729868 0)
(-0.08514 0.0781197 -1.54348e-20)
(-0.0968455 0.0821586 0)
(-0.108907 0.0853047 2.92827e-20)
(-0.121285 0.0877373 0)
(-0.133932 0.0896051 1.39659e-20)
(-0.146801 0.0910255 2.73129e-20)
(-0.159851 0.0920897 -2.67272e-20)
(-0.173049 0.0928683 0)
(-0.186366 0.093417 -2.56447e-20)
(-0.199781 0.0937801 0)
(-0.213279 0.0939945 0)
(-0.226849 0.0940905 -2.42117e-20)
(-0.240481 0.0940941 0)
(-0.25417 0.094027 3.36524e-24)
(-0.267915 0.0939075 0)
(-0.281713 0.0937509 0)
(-0.295565 0.0935698 -5.08753e-24)
(-0.309472 0.0933744 -2.18782e-20)
(-0.323435 0.0931724 -2.15375e-20)
(-0.337458 0.0929699 -2.12228e-20)
(-0.351543 0.092771 0)
(-0.365693 0.0925782 -4.12247e-20)
(-0.379911 0.0923928 0)
(-0.394199 0.0922149 -2.00444e-20)
(-0.408559 0.0920434 0)
(-0.422995 0.0918767 0)
(-0.437506 0.0917123 1.9272e-20)
(-0.452094 0.0915472 0)
(-0.466759 0.0913781 -1.88009e-20)
(-0.4815 0.0912013 -1.30254e-23)
(-0.496316 0.091013 3.67374e-20)
(-0.511205 0.0908094 -3.63078e-20)
(-0.526163 0.0905862 0)
(-0.541187 0.0903392 0)
(-0.556272 0.0900641 -1.75584e-20)
(-0.571412 0.0897566 0)
(-0.586601 0.0894124 -1.72341e-20)
(-0.601831 0.0890275 1.70674e-20)
(-0.617094 0.0885984 1.69073e-20)
(-0.63238 0.0881222 0)
(-0.647681 0.087597 -1.66063e-20)
(-0.662985 0.0870217 -1.64654e-20)
(-0.678279 0.0863956 3.2634e-20)
(-0.693549 0.0857178 -1.6202e-20)
(-0.708778 0.0849856 -1.60793e-20)
(-0.723949 0.0841941 0)