/*--------------------------------*- C++ -*----------------------------------*\
  =========                 |
  \\      /  F ield         | OpenFOAM: The Open Source CFD Toolbox
   \\    /   O peration     | Website:  https://openfoam.org
    \\  /    A nd           | Version:  7
     \\/     M anipulation  |
\*---------------------------------------------------------------------------*/
FoamFile
{
    version     2.0;
    format      ascii;
    class       volScalarField;
    location    "0.017";
    object      k;
}
// * * * * * * * * * * * * * * * * * * * * * * * * * * * * * * * * * * * * * //

dimensions      [0 2 -2 0 0 0 0];

internalField   nonuniform List<scalar> 
12225
(
1.94497e-05
1.79441e-05
1.6766e-05
1.5498e-05
1.38124e-05
1.28546e-05
1.1847e-05
1.00658e-05
8.89266e-06
8.72806e-06
8.98988e-06
9.08816e-06
8.59767e-06
7.05239e-06
6.16909e-06
5.77399e-06
5.5376e-06
1.47543e-05
1.99852e-05
1.98775e-05
1.96452e-05
1.9395e-05
1.90927e-05
1.87507e-05
1.83806e-05
1.8079e-05
1.76441e-05
1.70422e-05
1.65739e-05
1.6368e-05
1.62999e-05
1.62773e-05
1.62982e-05
1.6505e-05
1.66717e-05
1.69925e-05
1.99997e-05
1.8822e-05
1.87844e-05
1.88703e-05
1.89028e-05
1.88811e-05
1.8811e-05
1.8727e-05
1.86722e-05
1.85837e-05
1.84008e-05
1.82227e-05
1.8118e-05
1.80866e-05
1.80861e-05
1.81008e-05
1.81844e-05
1.83188e-05
2.01856e-05
2.00027e-05
1.90417e-05
1.82747e-05
1.70878e-05
1.60963e-05
1.59327e-05
1.60177e-05
1.6446e-05
1.70023e-05
1.72061e-05
1.72238e-05
1.71997e-05
1.71304e-05
1.70861e-05
1.7076e-05
1.70909e-05
1.7172e-05
2.39167e-05
2.36725e-05
2.1908e-05
2.09558e-05
2.03906e-05
2.0294e-05
2.04749e-05
2.09915e-05
2.11872e-05
2.11797e-05
2.10036e-05
2.01629e-05
1.89257e-05
1.82879e-05
1.77671e-05
1.70818e-05
1.61606e-05
1.53974e-05
2.24634e-05
2.37688e-05
2.3269e-05
2.19834e-05
2.11977e-05
2.12875e-05
2.23705e-05
2.44079e-05
2.5196e-05
2.52204e-05
2.47872e-05
2.35129e-05
2.27248e-05
2.23693e-05
2.22066e-05
2.21381e-05
2.21104e-05
2.19604e-05
2.06309e-05
2.56725e-05
2.69294e-05
2.45455e-05
2.18838e-05
2.15492e-05
2.20272e-05
2.31054e-05
2.34176e-05
2.34042e-05
2.31576e-05
2.26973e-05
2.25252e-05
2.25234e-05
2.26819e-05
2.35112e-05
2.57125e-05
2.71287e-05
2.08673e-05
2.66394e-05
2.77261e-05
2.58115e-05
2.33813e-05
2.28365e-05
2.29573e-05
2.32749e-05
2.32489e-05
2.27272e-05
2.20427e-05
2.18748e-05
2.18738e-05
2.18904e-05
2.2012e-05
2.26695e-05
2.43895e-05
2.57157e-05
2.05265e-05
2.2274e-05
2.27163e-05
2.24401e-05
2.22085e-05
2.21769e-05
2.231e-05
2.27448e-05
2.29259e-05
2.28509e-05
2.23816e-05
2.18126e-05
2.14525e-05
2.13183e-05
2.14089e-05
2.24256e-05
2.47888e-05
2.58525e-05
2.01826e-05
2.01893e-05
2.03916e-05
2.10762e-05
2.1283e-05
2.15918e-05
2.26971e-05
2.35137e-05
2.35588e-05
2.32755e-05
2.23104e-05
2.15537e-05
2.11967e-05
2.11139e-05
2.12697e-05
2.19787e-05
2.23724e-05
2.2448e-05
2.17541e-05
2.10407e-05
2.11586e-05
2.18505e-05
2.18793e-05
2.18259e-05
2.19287e-05
2.20476e-05
2.20047e-05
2.16733e-05
2.10911e-05
2.08278e-05
2.07857e-05
2.08714e-05
2.14133e-05
2.2109e-05
2.23563e-05
2.23762e-05
2.04843e-05
2.04321e-05
2.1177e-05
2.21268e-05
2.22105e-05
2.19801e-05
2.1332e-05
2.09442e-05
2.0734e-05
2.05804e-05
2.04872e-05
2.04499e-05
2.04506e-05
2.05372e-05
2.09826e-05
2.15497e-05
2.18417e-05
2.19739e-05
2.01267e-05
2.08033e-05
2.18273e-05
2.20609e-05
2.16527e-05
2.12187e-05
2.12164e-05
2.12954e-05
2.1273e-05
2.10995e-05
2.08354e-05
2.06957e-05
2.06427e-05
2.06327e-05
2.06341e-05
2.06423e-05
2.06631e-05
2.07231e-05
2.03137e-05
2.07128e-05
2.09547e-05
2.10376e-05
2.09699e-05
2.10014e-05
2.13143e-05
2.158e-05
2.1598e-05
2.14813e-05
2.13218e-05
2.12779e-05
2.12797e-05
2.13209e-05
2.13652e-05
2.13692e-05
2.13578e-05
2.13059e-05
2.07833e-05
2.04058e-05
2.04512e-05
2.05431e-05
2.0576e-05
2.06531e-05
2.08844e-05
2.16968e-05
2.31885e-05
2.39962e-05
2.42103e-05
2.41706e-05
2.38115e-05
2.30973e-05
2.25056e-05
2.20093e-05
2.1577e-05
2.12447e-05
2.03972e-05
2.03506e-05
2.04515e-05
2.05031e-05
2.05131e-05
2.05317e-05
2.06037e-05
2.08908e-05
2.15508e-05
2.24242e-05
2.37165e-05
2.51918e-05
2.61989e-05
2.64699e-05
2.63515e-05
2.54328e-05
2.33439e-05
2.20645e-05
2.01392e-05
2.09603e-05
2.1204e-05
2.10762e-05
2.06071e-05
2.04676e-05
2.05509e-05
2.11031e-05
2.18364e-05
2.22247e-05
2.25463e-05
2.27713e-05
2.28101e-05
2.26953e-05
2.21118e-05
2.13952e-05
2.09765e-05
2.07306e-05
2.06608e-05
2.10105e-05
2.08256e-05
2.0544e-05
2.04903e-05
2.04957e-05
2.05176e-05
2.05527e-05
2.05712e-05
2.05532e-05
2.0476e-05
2.0428e-05
2.04218e-05
2.04358e-05
2.05093e-05
2.0702e-05
2.08461e-05
2.0956e-05
2.02254e-05
2.04399e-05
2.04977e-05
2.04981e-05
2.04335e-05
2.03033e-05
2.02382e-05
2.02212e-05
2.02244e-05
2.02567e-05
2.03089e-05
2.03437e-05
2.03755e-05
2.04103e-05
2.04427e-05
2.0466e-05
2.04788e-05
2.04855e-05
2.04436e-05
2.03914e-05
2.02607e-05
2.02757e-05
2.02827e-05
2.02765e-05
2.0266e-05
2.02737e-05
2.03612e-05
2.07156e-05
2.09465e-05
2.09849e-05
2.09967e-05
2.09981e-05
2.09928e-05
2.09626e-05
2.08979e-05
2.0862e-05
2.00208e-05
2.00523e-05
2.02408e-05
2.04967e-05
2.05448e-05
2.05188e-05
2.04989e-05
2.05126e-05
2.0613e-05
2.09524e-05
2.11544e-05
2.11757e-05
2.11376e-05
2.09695e-05
2.06468e-05
2.04202e-05
2.02993e-05
2.02615e-05
2.00225e-05
2.01642e-05
2.03789e-05
2.04788e-05
2.04966e-05
2.04993e-05
2.05343e-05
2.08401e-05
2.13665e-05
2.14454e-05
2.13869e-05
2.12234e-05
2.0828e-05
2.0403e-05
2.01267e-05
2.00252e-05
2.00206e-05
2.00359e-05
2.01109e-05
2.05592e-05
2.07235e-05
2.07194e-05
2.06089e-05
2.04646e-05
2.04174e-05
2.04192e-05
2.04513e-05
2.04719e-05
2.04718e-05
2.04619e-05
2.04113e-05
2.02953e-05
2.02104e-05
2.01642e-05
2.01483e-05
2.01466e-05
2.00609e-05
2.01519e-05
2.01507e-05
2.01552e-05
2.02094e-05
2.03778e-05
2.04771e-05
2.06411e-05
2.08422e-05
2.09802e-05
2.10286e-05
2.10273e-05
2.09696e-05
2.07427e-05
2.05373e-05
2.04389e-05
2.04087e-05
2.04082e-05
2.01224e-05
2.0085e-05
2.00804e-05
2.01824e-05
2.03646e-05
2.04408e-05
2.04653e-05
2.04915e-05
2.05695e-05
2.08875e-05
2.12347e-05
2.1306e-05
2.12339e-05
2.08471e-05
2.04535e-05
2.02702e-05
2.02017e-05
2.01892e-05
2.01991e-05
2.02993e-05
2.02746e-05
2.02364e-05
2.02351e-05
2.02525e-05
2.02738e-05
2.02916e-05
2.0325e-05
2.04204e-05
2.08058e-05
2.13849e-05
2.16199e-05
2.16425e-05
2.15358e-05
2.10689e-05
2.06321e-05
2.03763e-05
2.01162e-05
2.01318e-05
2.00214e-05
1.98556e-05
1.97829e-05
1.97253e-05
1.96401e-05
1.94468e-05
1.91602e-05
1.9111e-05
1.91585e-05
1.93435e-05
1.98974e-05
2.13251e-05
2.25999e-05
2.32758e-05
2.40095e-05
2.4306e-05
2.02222e-05
1.59586e-05
1.21193e-05
1.31081e-05
1.55242e-05
2.00215e-05
2.4342e-05
2.70132e-05
2.8608e-05
3.05387e-05
3.40379e-05
4.08092e-05
5.65516e-05
8.18065e-05
0.000105799
0.000121689
0.000132863
0.000137969
3.16549e-05
0.00010421
0.000153362
0.000187345
0.000228062
0.000273409
0.000311243
0.000336045
0.000351915
0.000367758
0.000395179
0.000455518
0.000548875
0.000640387
0.000707188
0.000742448
0.000755109
0.000757587
0.00261514
0.00244974
0.00224591
0.00208548
0.001918
0.00175268
0.00162553
0.00155162
0.00152156
0.00151559
0.00151681
0.00152727
0.00153662
0.00153628
0.00152393
0.00147332
0.00140661
0.00134728
3.81221e-07
2.78545e-06
1.08534e-05
2.77842e-05
5.12323e-05
7.60145e-05
9.93382e-05
0.000120542
0.000139769
0.000157148
0.000172298
0.00018484
0.000194505
0.000200507
0.000203326
0.000202028
0.000196203
0.000186204
0.00017249
0.000155742
0.000136899
0.000116949
9.67756e-05
7.72822e-05
5.91466e-05
4.38826e-05
3.12409e-05
2.0944e-05
1.48166e-05
9.52848e-06
7.11249e-06
6.06827e-06
5.77394e-06
6.21702e-06
6.54134e-06
6.7742e-06
6.9432e-06
7.04639e-06
7.08204e-06
7.03426e-06
6.91461e-06
6.73615e-06
6.48721e-06
6.20501e-06
5.87847e-06
5.52489e-06
5.14693e-06
4.73027e-06
4.29353e-06
3.80951e-06
3.35651e-06
2.92019e-06
2.46086e-06
2.02595e-06
1.60803e-06
1.23838e-06
9.52951e-07
7.47256e-07
6.05276e-07
4.95926e-07
4.07681e-07
3.35321e-07
2.75124e-07
2.24608e-07
1.82241e-07
1.46891e-07
1.17574e-07
9.34056e-08
7.36381e-08
5.75903e-08
4.46405e-08
3.4285e-08
2.60998e-08
1.96808e-08
1.46762e-08
1.08149e-08
7.88037e-09
5.68499e-09
4.06487e-09
2.88292e-09
2.02909e-09
1.41768e-09
9.8341e-10
6.77346e-10
4.63261e-10
3.14625e-10
2.12188e-10
1.4211e-10
9.45195e-11
6.24371e-11
4.09666e-11
2.67015e-11
1.72917e-11
1.11286e-11
7.12014e-12
4.53099e-12
2.86953e-12
1.80978e-12
1.1374e-12
7.12662e-13
4.45293e-13
2.7748e-13
1.72421e-13
1.06829e-13
6.59945e-14
4.06504e-14
2.49657e-14
1.52899e-14
9.37681e-15
5.77134e-15
3.57853e-15
2.2467e-15
1.43796e-15
9.46953e-16
6.48839e-16
4.68222e-16
3.59531e-16
2.9503e-16
2.57728e-16
2.37167e-16
2.26894e-16
2.22813e-16
2.22045e-16
2.22045e-16
2.22045e-16
2.22045e-16
2.22045e-16
2.22045e-16
2.22045e-16
2.22045e-16
2.22045e-16
2.22045e-16
2.22045e-16
2.22045e-16
2.22045e-16
2.22045e-16
2.22045e-16
2.22045e-16
2.22045e-16
2.22045e-16
2.22045e-16
2.22045e-16
2.22045e-16
2.22045e-16
2.22045e-16
2.22045e-16
2.22045e-16
2.22045e-16
2.22045e-16
2.22045e-16
2.22045e-16
2.22045e-16
2.22045e-16
2.22045e-16
2.22045e-16
2.22045e-16
2.22045e-16
2.22045e-16
2.22045e-16
2.22045e-16
2.22045e-16
2.22045e-16
2.22045e-16
2.22045e-16
2.22045e-16
2.22045e-16
2.22045e-16
2.22045e-16
2.22045e-16
2.22045e-16
2.25169e-16
2.72819e-16
5.84746e-16
2.23941e-15
1.0194e-14
4.61909e-14
2.07824e-13
1.14926e-12
1.20034e-10
6.8164e-08
6.4773e-07
2.94086e-06
9.77707e-06
2.18826e-05
3.53941e-05
4.6917e-05
5.53813e-05
6.13379e-05
6.51927e-05
6.66737e-05
6.66637e-05
6.48603e-05
6.18021e-05
5.79807e-05
5.35347e-05
4.86538e-05
4.37335e-05
3.89131e-05
3.45368e-05
3.07661e-05
2.78293e-05
2.55854e-05
2.42086e-05
2.35471e-05
2.33358e-05
2.3963e-05
2.50425e-05
2.64335e-05
2.85767e-05
3.07568e-05
3.31962e-05
3.5507e-05
3.76936e-05
3.95737e-05
4.11206e-05
4.22788e-05
4.30891e-05
4.35327e-05
4.36859e-05
4.33654e-05
4.27429e-05
4.19402e-05
4.06506e-05
3.93386e-05
3.77943e-05
3.61722e-05
3.45683e-05
3.30444e-05
3.11687e-05
2.89333e-05
2.66227e-05
2.42752e-05
2.16128e-05
1.91035e-05
1.6819e-05
1.34948e-05
9.95146e-06
7.02017e-06
5.2985e-06
4.27608e-06
3.50982e-06
2.90767e-06
2.42576e-06
2.02287e-06
1.67992e-06
1.38797e-06
1.1404e-06
9.31149e-07
7.55335e-07
6.08655e-07
4.86582e-07
3.85547e-07
3.03081e-07
2.3627e-07
1.82099e-07
1.38577e-07
1.04305e-07
7.78492e-08
5.77111e-08
4.25215e-08
3.11446e-08
2.26755e-08
1.64084e-08
1.17984e-08
8.42808e-09
5.97994e-09
4.2135e-09
2.94778e-09
2.04736e-09
1.41155e-09
9.65985e-10
6.56151e-10
4.42384e-10
2.96064e-10
1.9671e-10
1.29795e-10
8.50954e-11
5.54723e-11
3.59847e-11
2.32458e-11
1.49607e-11
9.59379e-12
6.12879e-12
3.89909e-12
2.4696e-12
1.55683e-12
9.76465e-13
6.09133e-13
3.77832e-13
2.33162e-13
1.43372e-13
8.79789e-14
5.39263e-14
3.30907e-14
2.03319e-14
1.25078e-14
7.71339e-15
4.78214e-15
2.9957e-15
1.91034e-15
1.25226e-15
8.53422e-16
6.11377e-16
4.63922e-16
3.73561e-16
3.17783e-16
2.83082e-16
2.61326e-16
2.47583e-16
2.38833e-16
2.33216e-16
2.29579e-16
2.27198e-16
2.25619e-16
2.24558e-16
2.23834e-16
2.23334e-16
2.22983e-16
2.22732e-16
2.2255e-16
2.22418e-16
2.22322e-16
2.22251e-16
2.22198e-16
2.22157e-16
2.22125e-16
2.221e-16
2.22082e-16
2.22069e-16
2.2206e-16
2.22054e-16
2.2205e-16
2.22048e-16
2.22047e-16
2.22046e-16
2.22045e-16
2.22045e-16
2.22045e-16
2.22045e-16
2.22045e-16
2.22045e-16
2.22045e-16
2.22045e-16
2.22045e-16
2.22045e-16
2.22045e-16
2.22045e-16
2.22045e-16
2.22045e-16
2.22055e-16
2.22222e-16
2.23763e-16
2.34316e-16
2.94194e-16
6.21881e-16
2.20071e-15
1.09067e-14
6.78191e-14
1.0521e-11
5.90177e-09
6.74875e-07
2.08307e-06
5.10804e-06
9.90347e-06
1.45913e-05
1.72757e-05
1.8515e-05
1.894e-05
1.89647e-05
1.84486e-05
1.80805e-05
1.78632e-05
1.77845e-05
1.81535e-05
1.89072e-05
1.99392e-05
2.13135e-05
2.29804e-05
2.49654e-05
2.7236e-05
2.9668e-05
3.3041e-05
3.73491e-05
4.25733e-05
4.84991e-05
5.50477e-05
6.20368e-05
6.93907e-05
7.64519e-05
8.32233e-05
8.96077e-05
9.56749e-05
0.000101282
0.000106224
0.000110187
0.000113042
0.000114519
0.000115092
0.000114711
0.000113045
0.000110806
0.000108866
0.000105091
0.000101636
9.79521e-05
9.39513e-05
8.939e-05
8.38166e-05
7.79677e-05
7.1869e-05
6.57158e-05
5.95519e-05
5.32703e-05
4.71019e-05
4.11579e-05
3.54439e-05
3.00471e-05
2.50671e-05
2.05548e-05
1.65335e-05
1.32204e-05
1.06452e-05
8.81172e-06
7.40665e-06
6.21474e-06
5.19227e-06
4.31731e-06
3.57012e-06
2.93454e-06
2.39772e-06
1.94436e-06
1.56156e-06
1.24425e-06
9.83456e-07
7.6553e-07
5.86209e-07
4.45102e-07
3.3718e-07
2.55503e-07
1.93399e-07
1.46011e-07
1.09832e-07
8.22515e-08
6.12842e-08
4.54066e-08
3.34404e-08
2.44709e-08
1.77879e-08
1.28407e-08
9.20341e-09
6.54845e-09
4.62493e-09
3.24198e-09
2.25547e-09
1.5574e-09
1.06756e-09
7.26846e-10
4.9198e-10
3.31468e-10
2.22558e-10
1.49026e-10
9.95134e-11
6.62228e-11
4.38771e-11
2.89213e-11
1.89526e-11
1.23407e-11
7.97926e-12
5.12154e-12
3.26537e-12
2.07191e-12
1.31142e-12
8.28737e-13
5.2181e-13
3.26369e-13
2.02755e-13
1.25451e-13
7.74174e-14
4.77412e-14
2.94868e-14
1.82859e-14
1.14147e-14
7.19125e-15
4.58538e-15
2.96975e-15
1.9627e-15
1.33166e-15
9.34358e-16
6.83063e-16
5.23301e-16
4.21139e-16
3.55372e-16
3.12652e-16
2.84564e-16
2.65833e-16
2.53163e-16
2.44463e-16
2.38385e-16
2.34058e-16
2.30934e-16
2.28664e-16
2.27009e-16
2.25791e-16
2.24873e-16
2.24166e-16
2.23613e-16
2.23185e-16
2.22863e-16
2.22627e-16
2.2246e-16
2.22346e-16
2.22268e-16
2.22213e-16
2.22175e-16
2.22149e-16
2.22129e-16
2.22114e-16
2.22101e-16
2.22091e-16
2.22083e-16
2.22078e-16
2.22075e-16
2.22073e-16
2.22072e-16
2.22071e-16
2.2207e-16
2.22067e-16
2.22061e-16
2.22057e-16
2.22058e-16
2.22068e-16
2.22134e-16
2.22527e-16
2.24723e-16
2.37232e-16
3.01829e-16
7.19961e-16
3.54374e-15
4.89518e-13
2.43324e-10
7.0745e-07
1.61974e-06
2.90982e-06
4.84043e-06
6.47947e-06
7.26164e-06
7.6582e-06
8.07643e-06
8.65748e-06
9.57141e-06
1.09581e-05
1.27114e-05
1.48198e-05
1.72934e-05
2.007e-05
2.38163e-05
2.87935e-05
3.51516e-05
4.30098e-05
5.22224e-05
6.34074e-05
7.59721e-05
8.91392e-05
0.000103082
0.000117226
0.000131334
0.000144944
0.000157832
0.000169725
0.000180685
0.000190338
0.000198694
0.000205991
0.000212544
0.000215846
0.000217244
0.000217406
0.000215059
0.000210312
0.000201269
0.000194004
0.000183742
0.000168731
0.000160154
0.000144477
0.000133068
0.000120149
0.000108442
9.72934e-05
8.68708e-05
7.72594e-05
6.85913e-05
6.07375e-05
5.35622e-05
4.70846e-05
4.12103e-05
3.59212e-05
3.12002e-05
2.70033e-05
2.32843e-05
2.00028e-05
1.71194e-05
1.45955e-05
1.23944e-05
1.0482e-05
8.82735e-06
7.40168e-06
6.17834e-06
5.13281e-06
4.24363e-06
3.48999e-06
2.85175e-06
2.31568e-06
1.86919e-06
1.49235e-06
1.17861e-06
9.34108e-07
7.41821e-07
5.87844e-07
4.64241e-07
3.65112e-07
2.8579e-07
2.22533e-07
1.72304e-07
1.32616e-07
1.01432e-07
7.70712e-08
5.81644e-08
4.35855e-08
3.24247e-08
2.39411e-08
1.75419e-08
1.27538e-08
9.20043e-09
6.58495e-09
4.67594e-09
3.2953e-09
2.30675e-09
1.60658e-09
1.11577e-09
7.74181e-10
5.37071e-10
3.71895e-10
2.5645e-10
1.75809e-10
1.19693e-10
8.08707e-11
5.42138e-11
3.60601e-11
2.37984e-11
1.55839e-11
1.01279e-11
6.536e-12
4.19175e-12
2.67469e-12
1.69996e-12
1.07704e-12
6.80938e-13
4.30101e-13
2.71704e-13
1.71819e-13
1.08841e-13
6.91012e-14
4.39904e-14
2.81052e-14
1.80427e-14
1.16541e-14
7.5934e-15
5.00876e-15
3.35828e-15
2.30003e-15
1.61931e-15
1.17802e-15
8.87758e-16
6.93625e-16
5.61547e-16
4.70098e-16
4.05596e-16
3.59211e-16
3.25395e-16
3.00498e-16
2.82074e-16
2.68306e-16
2.57799e-16
2.4971e-16
2.43374e-16
2.38442e-16
2.34709e-16
2.31879e-16
2.29774e-16
2.28269e-16
2.27162e-16
2.26309e-16
2.25679e-16
2.25235e-16
2.24892e-16
2.24585e-16
2.24342e-16
2.24141e-16
2.24016e-16
2.23906e-16
2.23874e-16
2.23798e-16
2.23767e-16
2.2364e-16
2.23523e-16
2.23058e-16
2.22608e-16
2.22562e-16
2.22714e-16
2.2343e-16
2.25703e-16
2.32351e-16
2.51032e-16
3.33297e-16
6.66938e-16
1.0986e-14
2.33924e-14
1.47422e-13
1.1569e-11
7.51719e-07
1.54987e-06
2.2328e-06
3.115e-06
3.8808e-06
4.40091e-06
5.02156e-06
5.9911e-06
7.3333e-06
9.10912e-06
1.13022e-05
1.42998e-05
1.8495e-05
2.41097e-05
3.11535e-05
3.95744e-05
4.92121e-05
6.04464e-05
7.38231e-05
9.04096e-05
0.000108638
0.00012692
0.00014758
0.000166756
0.00018579
0.000203715
0.000220094
0.000235125
0.000248679
0.000260374
0.000270627
0.000278129
0.000285331
0.000290066
0.000291802
0.000289571
0.00028426
0.0002795
0.000264988
0.000248244
0.000239463
0.000219019
0.000198073
0.000186782
0.000163696
0.000149474
0.000132422
0.000117762
0.000104065
9.16372e-05
8.03931e-05
7.03959e-05
6.16541e-05
5.41017e-05
4.75212e-05
4.15811e-05
3.63013e-05
3.16178e-05
2.74495e-05
2.37431e-05
2.04625e-05
1.75709e-05
1.50326e-05
1.28145e-05
1.08841e-05
9.21181e-06
7.76926e-06
6.52944e-06
5.46704e-06
4.56096e-06
3.79175e-06
3.14139e-06
2.59357e-06
2.13366e-06
1.74871e-06
1.42763e-06
1.16084e-06
9.40008e-07
7.57899e-07
6.0831e-07
4.85933e-07
3.86242e-07
3.05395e-07
2.40143e-07
1.87745e-07
1.45896e-07
1.1266e-07
8.64233e-08
6.58393e-08
4.97959e-08
3.73749e-08
2.78297e-08
2.05967e-08
1.51472e-08
1.10663e-08
8.02965e-09
5.78513e-09
4.13763e-09
2.93706e-09
2.06869e-09
1.44537e-09
1.00144e-09
6.87818e-10
4.68112e-10
3.1555e-10
2.10586e-10
1.39067e-10
9.08292e-11
5.86387e-11
3.73975e-11
2.3544e-11
1.46205e-11
8.94996e-12
5.39307e-12
3.19727e-12
1.86687e-12
1.06577e-12
5.97397e-13
3.38799e-13
1.96179e-13
1.17002e-13
7.2449e-14
4.69424e-14
3.20133e-14
2.29224e-14
1.70932e-14
1.31501e-14
1.0327e-14
8.20701e-15
6.56149e-15
5.25664e-15
4.20899e-15
3.36596e-15
2.6906e-15
2.15306e-15
1.72827e-15
1.39459e-15
1.13403e-15
9.30958e-16
7.73502e-16
6.51159e-16
5.56401e-16
4.83062e-16
4.25595e-16
3.81412e-16
3.46573e-16
3.19218e-16
2.98408e-16
2.81683e-16
2.68407e-16
2.58574e-16
2.50705e-16
2.43957e-16
2.38802e-16
2.35205e-16
2.32251e-16
2.29305e-16
2.26531e-16
2.24404e-16
2.231e-16
2.22505e-16
2.22387e-16
2.22414e-16
2.22541e-16
2.22835e-16
2.2318e-16
2.24249e-16
2.27834e-16
2.3943e-16
2.75097e-16
3.80693e-16
6.81314e-16
1.54091e-15
3.82905e-15
1.67109e-14
5.45054e-14
1.62637e-12
1.85049e-12
2.04841e-11
2.17592e-11
7.93027e-07
1.59989e-06
2.1081e-06
2.66037e-06
3.2124e-06
3.82709e-06
4.72506e-06
6.03276e-06
7.85952e-06
1.05306e-05
1.43013e-05
1.91816e-05
2.55933e-05
3.4568e-05
4.56148e-05
5.90341e-05
7.58861e-05
9.85325e-05
0.000125915
0.000153011
0.00017909
0.000208531
0.000230762
0.000256764
0.000278883
0.000299031
0.000319914
0.000338014
0.000355565
0.000372863
0.00038527
0.000398964
0.000410598
0.000416472
0.00041898
0.000414073
0.000410492
0.00039569
0.000365611
0.000348732
0.000324442
0.000282405
0.000257491
0.000231495
0.000198843
0.000177146
0.000152926
0.000132486
0.000114066
9.80404e-05
8.40992e-05
7.19595e-05
6.15768e-05
5.26462e-05
4.49487e-05
3.87057e-05
3.36498e-05
2.9539e-05
2.59868e-05
2.27448e-05
1.97864e-05
1.71394e-05
1.47714e-05
1.26668e-05
1.08116e-05
9.18617e-06
7.7705e-06
6.54471e-06
5.48919e-06
4.58515e-06
3.81491e-06
3.16193e-06
2.61087e-06
2.14773e-06
1.75998e-06
1.43657e-06
1.16782e-06
9.45353e-07
7.61929e-07
6.11316e-07
4.88173e-07
3.8793e-07
3.06703e-07
2.41192e-07
1.88621e-07
1.46645e-07
1.13321e-07
8.70024e-08
6.63598e-08
5.02452e-08
3.77838e-08
2.81664e-08
2.08735e-08
1.53736e-08
1.12501e-08
8.17754e-09
5.90278e-09
4.23002e-09
3.00856e-09
2.12312e-09
1.48611e-09
1.03144e-09
7.09552e-10
4.83622e-10
3.26452e-10
2.18133e-10
1.44208e-10
9.42714e-11
6.09011e-11
3.8853e-11
2.4459e-11
1.51806e-11
9.28005e-12
5.58147e-12
3.29895e-12
1.91383e-12
1.08825e-12
6.05747e-13
3.2974e-13
1.75429e-13
9.12081e-14
4.64068e-14
2.3183e-14
1.14442e-14
5.69577e-15
2.96379e-15
1.68383e-15
1.08615e-15
8.00625e-16
6.5421e-16
5.68862e-16
5.10659e-16
4.65462e-16
4.27631e-16
3.95006e-16
3.66755e-16
3.42428e-16
3.21709e-16
3.04159e-16
2.89486e-16
2.7722e-16
2.6707e-16
2.5872e-16
2.51768e-16
2.46157e-16
2.41502e-16
2.37684e-16
2.34668e-16
2.32158e-16
2.30101e-16
2.28522e-16
2.27236e-16
2.26122e-16
2.2523e-16
2.2459e-16
2.24074e-16
2.23546e-16
2.23074e-16
2.22683e-16
2.22382e-16
2.2229e-16
2.22315e-16
2.22459e-16
2.23517e-16
2.32478e-16
2.70183e-16
4.02912e-16
8.50598e-16
2.33934e-15
6.99875e-15
2.09878e-14
6.03934e-14
1.70383e-13
4.50158e-13
1.20009e-12
2.64519e-12
1.07128e-11
1.16184e-11
2.36578e-11
2.49194e-11
8.15577e-07
1.76054e-06
2.15555e-06
2.61554e-06
3.1404e-06
3.83223e-06
4.88042e-06
6.59123e-06
9.30018e-06
1.33058e-05
1.91032e-05
2.74594e-05
3.99062e-05
5.48704e-05
7.4437e-05
0.000100316
0.000130095
0.000159458
0.000189069
0.000219754
0.000253034
0.000278866
0.000317183
0.000345253
0.000378579
0.000411974
0.000440865
0.000474985
0.000505373
0.000533781
0.000561642
0.000585851
0.000600482
0.00061004
0.000616175
0.000618129
0.00060551
0.000565882
0.000547168
0.000526749
0.000461054
0.000408945
0.000366525
0.000300993
0.000261816
0.000221472
0.000187594
0.000158497
0.000133436
0.000112079
9.38129e-05
7.80408e-05
6.45836e-05
5.33627e-05
4.41533e-05
3.65461e-05
3.02729e-05
2.51501e-05
2.12138e-05
1.83336e-05
1.61948e-05
1.44178e-05
1.28061e-05
1.12352e-05
9.77547e-06
8.45002e-06
7.25607e-06
6.19157e-06
5.25087e-06
4.42574e-06
3.70755e-06
3.08755e-06
2.55678e-06
2.10607e-06
1.72623e-06
1.40826e-06
1.14367e-06
9.2465e-07
7.44241e-07
5.96315e-07
4.75565e-07
3.77438e-07
2.98061e-07
2.34148e-07
1.82943e-07
1.42119e-07
1.09756e-07
8.42256e-08
6.42258e-08
4.86234e-08
3.65708e-08
2.72671e-08
2.0211e-08
1.48903e-08
1.0901e-08
7.92783e-09
5.72602e-09
4.10621e-09
2.92278e-09
2.06437e-09
1.44637e-09
1.00489e-09
6.92062e-10
4.72263e-10
3.19189e-10
2.13565e-10
1.41388e-10
9.25649e-11
5.98921e-11
3.82722e-11
2.41356e-11
1.50079e-11
9.1928e-12
5.54086e-12
3.28244e-12
1.90878e-12
1.08815e-12
6.0732e-13
3.31418e-13
1.76625e-13
9.18402e-14
4.65717e-14
2.30406e-14
1.11459e-14
5.30553e-15
2.52251e-15
1.2363e-15
6.59968e-16
4.09563e-16
3.03929e-16
2.6048e-16
2.42841e-16
2.35548e-16
2.32264e-16
2.30496e-16
2.29303e-16
2.28346e-16
2.27514e-16
2.26765e-16
2.26098e-16
2.25501e-16
2.24975e-16
2.24517e-16
2.24114e-16
2.23774e-16
2.23478e-16
2.23227e-16
2.2302e-16
2.22843e-16
2.22695e-16
2.22575e-16
2.22479e-16
2.22391e-16
2.22322e-16
2.22271e-16
2.22222e-16
2.22191e-16
2.22136e-16
2.22215e-16
2.23957e-16
2.29094e-16
2.40538e-16
2.63047e-16
3.07595e-16
3.9143e-16
5.6193e-16
9.29557e-16
1.75858e-15
3.76458e-15
8.71713e-15
2.16331e-14
5.44323e-14
1.41458e-13
3.46603e-13
9.65868e-13
1.87872e-12
6.793e-12
7.12777e-12
8.2833e-12
1.13632e-11
8.12786e-07
1.88517e-06
2.37882e-06
2.72304e-06
3.28171e-06
4.22527e-06
5.78272e-06
8.47737e-06
1.29364e-05
1.98795e-05
3.01174e-05
4.42141e-05
6.16446e-05
8.25324e-05
0.000106583
0.000134404
0.000175343
0.000222942
0.000268627
0.000312301
0.000360437
0.000413219
0.000451445
0.000500474
0.00054042
0.000583516
0.000630661
0.000676202
0.000728583
0.000775121
0.00082156
0.000850532
0.0008665
0.000872684
0.000859531
0.000842739
0.000780698
0.000727928
0.000696062
0.000630021
0.000588254
0.000542035
0.000487134
0.000420849
0.000357462
0.000291808
0.000240822
0.000197514
0.000162966
0.00013584
0.000113568
9.47752e-05
7.78707e-05
6.22496e-05
4.9135e-05
3.87904e-05
3.08126e-05
2.46735e-05
1.98562e-05
1.60274e-05
1.30055e-05
1.07643e-05
9.19944e-06
8.14974e-06
7.31945e-06
6.55905e-06
5.82175e-06
5.10914e-06
4.44829e-06
3.84118e-06
3.28802e-06
2.79025e-06
2.34821e-06
1.96048e-06
1.62446e-06
1.33655e-06
1.09241e-06
8.87338e-07
7.16549e-07
5.75391e-07
4.59527e-07
3.65022e-07
2.88395e-07
2.26612e-07
1.77075e-07
1.3757e-07
1.06246e-07
8.15419e-08
6.21845e-08
4.7094e-08
3.54253e-08
2.64334e-08
1.95928e-08
1.44354e-08
1.0569e-08
7.68771e-09
5.5539e-09
3.98402e-09
2.83692e-09
2.00468e-09
1.40534e-09
9.77031e-10
6.73387e-10
4.59916e-10
3.11147e-10
2.08412e-10
1.38144e-10
9.05645e-11
5.86864e-11
3.75649e-11
2.37339e-11
1.47889e-11
9.07967e-12
5.48683e-12
3.25979e-12
1.90169e-12
1.08796e-12
6.09587e-13
3.34081e-13
1.78873e-13
9.34716e-14
4.76424e-14
2.3691e-14
1.15155e-14
5.50187e-15
2.61858e-15
1.27775e-15
6.73361e-16
4.09319e-16
2.97518e-16
2.5166e-16
2.33437e-16
2.26418e-16
2.23793e-16
2.22834e-16
2.22485e-16
2.22352e-16
2.22293e-16
2.22259e-16
2.22234e-16
2.22211e-16
2.22191e-16
2.22172e-16
2.22154e-16
2.22139e-16
2.22125e-16
2.22112e-16
2.22101e-16
2.22092e-16
2.22084e-16
2.22077e-16
2.22072e-16
2.22066e-16
2.22063e-16
2.22059e-16
2.22056e-16
2.22054e-16
2.22051e-16
2.22054e-16
2.23133e-16
2.27221e-16
2.36841e-16
2.57714e-16
2.94928e-16
3.70011e-16
5.1355e-16
8.16292e-16
1.47495e-15
3.0243e-15
6.70105e-15
1.5993e-14
3.82875e-14
9.46903e-14
2.18093e-13
6.2542e-13
1.053e-12
2.77039e-12
3.07004e-12
3.31391e-12
4.18265e-12
7.99083e-07
1.92556e-06
2.56295e-06
2.94948e-06
3.5353e-06
4.79637e-06
7.00319e-06
1.06895e-05
1.6483e-05
2.50223e-05
3.6989e-05
5.37815e-05
7.61736e-05
0.000105719
0.000147476
0.000216322
0.000287692
0.000326939
0.000377463
0.000437626
0.000483284
0.000527928
0.00058225
0.0006327
0.000698964
0.000777392
0.000869097
0.000965369
0.0010698
0.00117295
0.00127248
0.0013443
0.00139998
0.00142202
0.00132835
0.00118405
0.00101961
0.000893773
0.000763349
0.000660836
0.000616024
0.000559831
0.000517733
0.000468103
0.000412533
0.000351246
0.000290584
0.000238624
0.000194452
0.000157929
0.000130233
0.000109202
9.27164e-05
7.88648e-05
6.43585e-05
4.95335e-05
3.71859e-05
2.80064e-05
2.12514e-05
1.63291e-05
1.27213e-05
9.99404e-06
7.89351e-06
6.32409e-06
5.21807e-06
4.45191e-06
3.89472e-06
3.46287e-06
3.10266e-06
2.78554e-06
2.48554e-06
2.1898e-06
1.90727e-06
1.64184e-06
1.39668e-06
1.17485e-06
9.77973e-07
8.0626e-07
6.58815e-07
5.3395e-07
4.29484e-07
3.43018e-07
2.72124e-07
2.1449e-07
1.67996e-07
1.30756e-07
1.01129e-07
7.77143e-08
5.93281e-08
4.49834e-08
3.38678e-08
2.53079e-08
1.87705e-08
1.38386e-08
1.01389e-08
7.38011e-09
5.33573e-09
3.83061e-09
2.73004e-09
1.93095e-09
1.35501e-09
9.43054e-10
6.50725e-10
4.44996e-10
3.0146e-10
2.0222e-10
1.34253e-10
8.81664e-11
5.72406e-11
3.67154e-11
2.325e-11
1.45237e-11
8.94163e-12
5.42001e-12
3.23104e-12
1.892e-12
1.08691e-12
6.11785e-13
3.36971e-13
1.81412e-13
9.53662e-14
4.89235e-14
2.44965e-14
1.19924e-14
5.76968e-15
2.76188e-15
1.35087e-15
7.08802e-16
4.25611e-16
3.04609e-16
2.54521e-16
2.34439e-16
2.26639e-16
2.23701e-16
2.22628e-16
2.22248e-16
2.22117e-16
2.22073e-16
2.22059e-16
2.22054e-16
2.22052e-16
2.22051e-16
2.2205e-16
2.22049e-16
2.22049e-16
2.22048e-16
2.22048e-16
2.22047e-16
2.22047e-16
2.22047e-16
2.22046e-16
2.22046e-16
2.22046e-16
2.22045e-16
2.22045e-16
2.22045e-16
2.22045e-16
2.22045e-16
2.22045e-16
2.22409e-16
2.2513e-16
2.32385e-16
2.48735e-16
2.78407e-16
3.39597e-16
4.49689e-16
6.76937e-16
1.15418e-15
2.23591e-15
4.69383e-15
1.06365e-14
2.41747e-14
5.63743e-14
1.20486e-13
3.43341e-13
4.85176e-13
7.71124e-13
9.24099e-13
1.02992e-12
1.36862e-12
7.7719e-07
1.92467e-06
2.71467e-06
3.18735e-06
3.78816e-06
5.10032e-06
7.54729e-06
1.17793e-05
1.86892e-05
2.95061e-05
4.6085e-05
7.12089e-05
0.000104822
0.000153335
0.000220524
0.000277452
0.000335949
0.000387488
0.000450567
0.000511655
0.000577305
0.000648221
0.00073112
0.000839869
0.000992948
0.00118821
0.00144763
0.00179051
0.00223113
0.00277328
0.0033716
0.00394488
0.00437663
0.00454536
0.00421994
0.00351636
0.00274541
0.00209067
0.00138258
0.000942974
0.000711523
0.000567733
0.000503031
0.000456471
0.000414521
0.00036469
0.000305446
0.000252817
0.000209369
0.000172746
0.000141421
0.000116229
9.76579e-05
8.43345e-05
7.42318e-05
6.45393e-05
5.22435e-05
3.85348e-05
2.76316e-05
1.97755e-05
1.42796e-05
1.05034e-05
7.90138e-06
6.04848e-06
4.67702e-06
3.68647e-06
3.00512e-06
2.50577e-06
2.11017e-06
1.80355e-06
1.57535e-06
1.41121e-06
1.27793e-06
1.15536e-06
1.03125e-06
9.04755e-07
7.81987e-07
6.65996e-07
5.59342e-07
4.63786e-07
3.80073e-07
3.08157e-07
2.47417e-07
1.96871e-07
1.55344e-07
1.21614e-07
9.4488e-08
7.2878e-08
5.57982e-08
4.24177e-08
3.2e-08
2.39694e-08
1.78004e-08
1.31386e-08
9.63684e-09
7.02234e-09
5.08265e-09
3.65303e-09
2.60652e-09
1.84584e-09
1.29695e-09
9.03883e-10
6.24606e-10
4.278e-10
2.90293e-10
1.95076e-10
1.29758e-10
8.53903e-11
5.5562e-11
3.57252e-11
2.26829e-11
1.42107e-11
8.77695e-12
5.33903e-12
3.19524e-12
1.87916e-12
1.08472e-12
6.13793e-13
3.40053e-13
1.84246e-13
9.75359e-14
5.04176e-14
2.54507e-14
1.25658e-14
6.09655e-15
2.93943e-15
1.44309e-15
7.54771e-16
4.47627e-16
3.14733e-16
2.58992e-16
2.3633e-16
2.27399e-16
2.23991e-16
2.22731e-16
2.2228e-16
2.22123e-16
2.2207e-16
2.22053e-16
2.22047e-16
2.22046e-16
2.22045e-16
2.22045e-16
2.22045e-16
2.22045e-16
2.22045e-16
2.22045e-16
2.22045e-16
2.22045e-16
2.22045e-16
2.22045e-16
2.22045e-16
2.22045e-16
2.22045e-16
2.22045e-16
2.22045e-16
2.22045e-16
2.22045e-16
2.22045e-16
2.2205e-16
2.23199e-16
2.27671e-16
2.38629e-16
2.60367e-16
3.05766e-16
3.84039e-16
5.40648e-16
8.56688e-16
1.53819e-15
3.0046e-15
6.32699e-15
1.33569e-14
3.21544e-14
5.73124e-14
1.46856e-13
1.57968e-13
1.75366e-13
2.1532e-13
2.48604e-13
3.61742e-13
7.49965e-07
1.90256e-06
2.77601e-06
3.42348e-06
4.22375e-06
5.9037e-06
8.93639e-06
1.43473e-05
2.36608e-05
3.96201e-05
6.6442e-05
0.000107724
0.000167773
0.00023804
0.000310851
0.000388249
0.000439975
0.000515278
0.00059803
0.000663124
0.000748917
0.000859916
0.001011
0.00125173
0.00163986
0.0022384
0.00317335
0.00458403
0.00656517
0.00908338
0.0117635
0.0140982
0.0155327
0.0160231
0.0147032
0.0123404
0.00966764
0.0071259
0.00448038
0.00267399
0.00158058
0.000945247
0.000621323
0.000460715
0.000392015
0.000346677
0.000299328
0.000247858
0.000207836
0.000175779
0.00014652
0.000121553
0.000101382
8.59712e-05
7.5382e-05
6.79073e-05
6.15384e-05
5.36267e-05
4.13958e-05
2.87982e-05
1.96508e-05
1.33092e-05
9.12449e-06
6.43233e-06
4.68788e-06
3.50671e-06
2.67164e-06
2.10952e-06
1.71731e-06
1.40257e-06
1.15366e-06
9.57349e-07
8.06515e-07
6.94935e-07
6.17687e-07
5.61932e-07
5.12658e-07
4.62397e-07
4.08507e-07
3.54086e-07
3.0158e-07
2.52647e-07
2.08476e-07
1.69681e-07
1.3639e-07
1.08388e-07
8.52357e-08
6.63806e-08
5.12222e-08
3.91834e-08
2.97151e-08
2.23529e-08
1.6664e-08
1.23312e-08
9.0645e-09
6.61821e-09
4.79875e-09
3.45484e-09
2.46917e-09
1.75145e-09
1.23271e-09
8.60616e-10
5.95807e-10
4.08871e-10
2.78017e-10
1.87229e-10
1.24822e-10
8.23404e-11
5.37176e-11
3.46374e-11
2.20599e-11
1.38668e-11
8.59638e-12
5.25089e-12
3.15721e-12
1.86656e-12
1.08374e-12
6.17199e-13
3.44391e-13
1.88083e-13
1.00448e-13
5.24308e-14
2.67505e-14
1.33591e-14
6.55714e-15
3.19485e-15
1.57868e-15
8.23773e-16
4.81332e-16