/*--------------------------------*- C++ -*----------------------------------*\
  =========                 |
  \\      /  F ield         | OpenFOAM: The Open Source CFD Toolbox
   \\    /   O peration     | Website:  https://openfoam.org
    \\  /    A nd           | Version:  7
     \\/     M anipulation  |
\*---------------------------------------------------------------------------*/
FoamFile
{
    version     2.0;
    format      ascii;
    class       volScalarField;
    location    "0.017";
    object      pMean;
}
// * * * * * * * * * * * * * * * * * * * * * * * * * * * * * * * * * * * * * //

dimensions      [0 2 -2 0 0 0 0];

internalField   nonuniform List<scalar> 
12225
(
2.28852
3.23115
3.6018
3.67596
3.67754
3.64883
3.59761
3.52562
3.43637
3.33317
3.21861
3.08754
2.93735
2.74601
2.51055
2.14466
1.6531
0.482754
2.61853
3.24395
3.60029
3.68273
3.68074
3.65026
3.59967
3.52909
3.44081
3.33861
3.22393
3.09514
2.94272
2.76109
2.51443
2.20811
1.7022
1.17105
2.79376
3.2287
3.58199
3.68662
3.68613
3.65524
3.60715
3.54021
3.45601
3.35671
3.24486
3.11632
2.96837
2.78519
2.56081
2.26054
1.88433
1.41526
2.98173
3.26602
3.5871
3.7033
3.70268
3.66864
3.62035
3.5562
3.4748
3.37853
3.2678
3.14278
2.99564
2.82382
2.60771
2.35019
2.02662
1.6735
3.15154
3.30699
3.58824
3.71358
3.71774
3.68208
3.63372
3.57199
3.49434
3.40125
3.29431
3.17253
3.03253
2.86832
2.67334
2.44463
2.18229
1.91362
3.31812
3.36687
3.60273
3.73088
3.74112
3.70438
3.65459
3.5945
3.52003
3.43064
3.32713
3.2099
3.07634
2.9237
2.74835
2.55064
2.33782
2.12577
3.47057
3.43609
3.62594
3.75038
3.76663
3.72987
3.67841
3.61887
3.54752
3.46229
3.3638
3.25249
3.12748
2.98745
2.83188
2.66333
2.48949
2.32314
3.61091
3.5177
3.6631
3.77765
3.79789
3.76231
3.70979
3.65084
3.58247
3.50145
3.40782
3.3029
3.18729
3.06083
2.92463
2.78179
2.63972
2.50807
3.73633
3.60363
3.70998
3.81071
3.8324
3.79903
3.74626
3.68734
3.62122
3.54483
3.45746
3.36014
3.25429
3.14119
3.02295
2.90285
2.78704
2.68247
3.86008
3.69683
3.77017
3.85425
3.87407
3.84266
3.79042
3.73207
3.66835
3.59615
3.51473
3.42543
3.33002
3.23027
3.12859
3.02817
2.93376
2.85037
3.97303
3.79223
3.83886
3.90619
3.92187
3.8917
3.84054
3.78285
3.72118
3.65345
3.57851
3.49721
3.41177
3.32444
3.2377
3.15426
3.07775
3.01162
4.07953
3.88358
3.90945
3.96256
3.97308
3.94286
3.89272
3.83623
3.77657
3.71265
3.64342
3.56979
3.49361
3.41704
3.34254
3.27245
3.20954
3.15613
4.19693
3.98024
3.98665
4.02647
4.03094
3.99972
3.95044
3.89521
3.83793
3.77772
3.71387
3.647
3.57907
3.51223
3.44868
3.39021
3.33894
3.29648
4.32631
4.09418
4.08333
4.10946
4.10625
4.07273
4.02403
3.97031
3.91512
3.85872
3.80084
3.74196
3.68342
3.62691
3.5743
3.5271
3.48692
3.45464
4.4441
4.21893
4.20185
4.21484
4.20231
4.16533
4.11677
4.06496
4.01308
3.96122
3.90919
3.8576
3.80781
3.76131
3.71951
3.6833
3.65367
3.6311
4.63312
4.3877
4.35116
4.35093
4.32947
4.28754
4.23739
4.18625
4.1367
4.08911
4.04338
3.99973
3.95893
3.92192
3.8898
3.86322
3.84273
3.82847
4.83107
4.57744
4.53043
4.5206
4.49121
4.44312
4.3895
4.33768
4.28959
4.24492
4.20343
4.16543
4.13163
4.10268
4.07907
4.06098
4.04868
4.04201
5.03651
4.79408
4.74647
4.72789
4.68778
4.63168
4.57389
4.52126
4.47497
4.43393
4.3973
4.365
4.33748
4.31508
4.29801
4.28619
4.2797
4.27836
5.35113
5.09368
5.03272
4.99897
4.94386
4.87422
4.8055
4.74495
4.69345
4.64962
4.6124
4.5815
4.55688
4.53841
4.5259
4.51889
4.51707
4.51993
5.66137
5.3962
5.3151
5.25671
5.17964
5.09493
5.01753
4.95231
4.89775
4.85116
4.81129
4.77814
4.75205
4.73286
4.72014
4.71333
4.71197
4.71544
5.91726
5.64352
5.54484
5.46084
5.35873
5.25332
5.15991
5.08279
5.02054
4.97005
4.92909
4.89652
4.87167
4.85393
4.84274
4.83734
4.83718
4.84161
6.19708
5.89747
5.7619
5.64421
5.52098
5.40602
5.3078
5.22464
5.15347
5.0933
5.04432
5.0062
4.97784
4.95784
4.94511
4.93864
4.93771
4.94152
6.48837
6.14503
5.94986
5.78069
5.62252
5.48662
5.37695
5.28897
5.21711
5.15804
5.11026
5.073
5.04528
5.02588
5.01364
5.00757
5.00703
5.01122
6.7926
6.39103
6.13254
5.92469
5.75347
5.61317
5.49389
5.38942
5.30104
5.23042
5.17647
5.13619
5.10667
5.08582
5.07245
5.06559
5.06445
5.06811
7.08161
6.5941
6.23323
5.96934
5.78229
5.64207
5.52427
5.42138
5.33434
5.26496
5.21196
5.17227
5.14301
5.12241
5.10939
5.10298
5.10235
5.10648
7.45626
6.84482
6.38247
6.08157
5.88757
5.73448
5.59587
5.47482
5.37785
5.30444
5.24956
5.20832
5.17777
5.15631
5.14286
5.13627
5.13551
5.13951
7.77588
6.94351
6.37544
6.07588
5.90344
5.75546
5.61364
5.49021
5.39377
5.32172
5.26766
5.2267
5.19635
5.17525
5.1623
5.15629
5.1561
5.16062
8.29502
7.16309
6.45347
6.1411
5.96438
5.79833
5.64253
5.5134
5.41502
5.34175
5.28658
5.24482
5.21405
5.19287
5.18005
5.17434
5.17445
5.17924
8.54499
7.13413
6.42112
6.1549
5.98038
5.80709
5.64838
5.52004
5.42277
5.34994
5.29485
5.25323
5.22277
5.20206
5.18978
5.18467
5.18535
5.19083
9.32602
7.17936
6.42358
6.18809
6.00224
5.81866
5.65706
5.52844
5.43094
5.35767
5.30218
5.2603
5.22971
5.20896
5.19675
5.1918
5.19272
5.19864
4.52161
4.52286
4.52501
4.52847
4.53319
4.5393
4.54688
4.55607
4.56701
4.57984
4.59476
4.61196
4.6317
4.65424
4.67989
4.70901
4.74198
4.77924
4.82122
4.86842
4.9213
4.98037
5.04609
5.11891
5.19922
5.28734
5.3835
5.4878
5.60018
5.72045
5.84822
5.98292
6.12385
6.27007
6.42051
6.57395
6.72904
6.88444
7.03879
7.19077
7.33914
7.48275
7.62062
7.75189
7.87587
7.99205
8.10005
8.19971
8.29091
8.37375
8.44838
8.51504
8.57407
8.62582
8.67071
8.70917
8.74168
8.76868
8.79058
8.80782
8.82081
8.82993
8.83556
8.83803
8.83767
8.83476
8.82959
8.82239
8.81339
8.80281
8.79083
8.7776
8.7633
8.74804
8.73195
8.71515
8.69772
8.67975
8.66132
8.6425
8.62333
8.60388
8.58419
8.56429
8.54422
8.52401
8.50368
8.48326
8.46276
8.44219
8.42158
8.40091
8.38022
8.35949
8.33874
8.31796
8.29716
8.27634
8.25549
8.23462
8.21372
8.1928
8.17184
8.15084
8.12981
8.10872
8.08759
8.06641
8.04516
8.02385
8.00247
7.98102
7.95949
7.93787
7.91617
7.89438
7.87249
7.8505
7.82841
7.80621
7.7839
7.76147
7.73892
7.71624
7.69343
7.67049
7.64742
7.6242
7.60084
7.57733
7.55367
7.52985
7.50587
7.48174
7.45743
7.43296
7.40832
7.3835
7.35851
7.33334
7.30799
7.28245
7.25672
7.23081
7.2047
7.1784
7.15191
7.12523
7.09835
7.07127
7.04399
7.01652
6.98885
6.96099
6.93294
6.9047
6.87627
6.84767
6.8189
6.78997
6.76091
6.73174
6.70248
6.67317
6.64386
6.61462
6.58553
6.55672
6.52831
6.50057
6.47368
6.4482
6.42441
6.40362
6.38618
6.3756
6.37233
6.38751
6.42227
6.51459
4.50332
4.50451
4.50635
4.50934
4.51344
4.51881
4.52554
4.5338
4.54372
4.55548
4.5693
4.58539
4.60402
4.62548
4.65009
4.67821
4.71022
4.74655
4.78767
4.83408
4.88627
4.94475
5.01005
5.08263
5.16292
5.25127
5.3479
5.45295
5.56637
5.68793
5.81723
5.95367
6.09646
6.24462
6.39701
6.55239
6.70943
6.86674
7.02294
7.17669
7.3267
7.47182
7.61106
7.74354
7.86859
7.98567
8.09445
8.19474
8.28649
8.36977
8.44474
8.51169
8.57095
8.62289
8.66793
8.70652
8.73915
8.76623
8.78822
8.80554
8.8186
8.82779
8.83348
8.83602
8.83571
8.83287
8.82776
8.82062
8.81169
8.80117
8.78924
8.77607
8.76182
8.74662
8.73059
8.71384
8.69647
8.67855
8.66017
8.64139
8.62228
8.60287
8.58322
8.56337
8.54334
8.52317
8.50289
8.4825
8.46204
8.44151
8.42092
8.40029
8.37962
8.35892
8.33819
8.31744
8.29666
8.27586
8.25503
8.23418
8.2133
8.19238
8.17144
8.15046
8.12944
8.10837
8.08725
8.06608
8.04485
8.02355
8.00219
7.98075
7.95923
7.93763
7.91595
7.89417
7.87229
7.85031
7.82823
7.80604
7.78373
7.76131
7.73876
7.71609
7.69329
7.67036
7.64729
7.62407
7.60071
7.57721
7.55355
7.52974
7.50576
7.48163
7.45733
7.43286
7.40822
7.3834
7.35841
7.33324
7.30789
7.28235
7.25663
7.23071
7.20461
7.17831
7.15182
7.12513
7.09825
7.07117
7.0439
7.01643
6.98876
6.96089
6.93284
6.90459
6.87616
6.84756
6.81878
6.78985
6.76079
6.7316
6.70232
6.673
6.64367
6.6144
6.58528
6.55641
6.52795
6.5001
6.47312
6.44742
6.42347
6.40212
6.3844
6.37211
6.36789
6.37496
6.39809
6.42869
4.45036
4.45158
4.45331
4.45615
4.46004
4.46514
4.47153
4.47937
4.48879
4.49997
4.5131
4.52841
4.54615
4.56662
4.59015
4.61712
4.64794
4.68305
4.72296
4.76818
4.81925
4.87675
4.94123
5.01321
5.09317
5.18152
5.27854
5.3844
5.49909
5.6224
5.75392
5.89303
6.03893
6.19057
6.34674
6.50609
6.66716
6.82848
6.98858
7.14604
7.29953
7.44786
7.58999
7.72505
7.85235
7.97139
8.08183
8.18352
8.27643
8.36066
8.43644
8.50403
8.56382
8.6162
8.6616
8.70051
8.73341
8.76074
8.78295
8.80048
8.81373
8.82311
8.82898
8.83169
8.83156
8.82889
8.82394
8.81697
8.80819
8.79783
8.78605
8.77303
8.75893
8.74387
8.72797
8.71135
8.6941
8.67631
8.65805
8.63939
8.62038
8.60108
8.58153
8.56177
8.54183
8.52175
8.50155
8.48124
8.46085
8.44039
8.41987
8.39931
8.3787
8.35806
8.33739
8.31669
8.29597
8.27521
8.25443
8.23362
8.21278
8.1919
8.17099
8.15004
8.12905
8.10801
8.08692
8.06578
8.04457
8.02329
8.00195
7.98053
7.95903
7.93744
7.91577
7.894
7.87214
7.85018
7.8281
7.80592
7.78363
7.76121
7.73867
7.71601
7.69321
7.67028
7.64722
7.62401
7.60066
7.57715
7.5535
7.52969
7.50572
7.48158
7.45729
7.43282
7.40818
7.38337
7.35838
7.33321
7.30786
7.28232
7.2566
7.23068
7.20458
7.17828
7.15179
7.12511
7.09823
7.07115
7.04387
7.0164
6.98873
6.96086
6.9328
6.90455
6.87612
6.8475
6.81872
6.78978
6.7607
6.73149
6.70219
6.67284
6.64347
6.61415
6.58497
6.55602
6.52745
6.49945
6.47228
6.44628
6.42196
6.39994
6.38136
6.36717
6.35997
6.35966
6.37103
6.38032
4.36795
4.36917
4.3708
4.37349
4.37716
4.38194
4.38792
4.39521
4.40395
4.41431
4.42646
4.44061
4.45702
4.47597
4.49782
4.52294
4.55179
4.58485
4.62264
4.66577
4.71484
4.77051
4.83341
4.90418
4.98341
5.07159
5.16912
5.27623
5.39295
5.5191
5.65426
5.79776
5.94867
6.10587
6.26801
6.43358
6.601
6.76863
6.93487
7.0982
7.25719
7.41056
7.55726
7.69638
7.82723
7.94933
8.06239
8.16628
8.26102
8.34677
8.42379
8.49242
8.55306
8.60615
8.65215
8.69159
8.72495
8.75268
8.77526
8.79313
8.8067
8.81639
8.82255
8.82555
8.8257
8.82329
8.8186
8.81188
8.80335
8.79322
8.78167
8.76888
8.75499
8.74013
8.72444
8.70801
8.69094
8.67332
8.65523
8.63672
8.61787
8.59871
8.5793
8.55967
8.53986
8.51989
8.4998
8.4796
8.45931
8.43894
8.41852
8.39803
8.37751
8.35694
8.33634
8.3157
8.29504
8.27434
8.25361
8.23285
8.21206
8.19123
8.17036
8.14945
8.12849
8.10749
8.08643
8.06532
8.04414
8.02289
8.00157
7.98018
7.9587
7.93714
7.91549
7.89374
7.8719
7.84995
7.82789
7.80573
7.78344
7.76104
7.73851
7.71586
7.69307
7.67015
7.64709
7.62389
7.60055
7.57705
7.5534
7.5296
7.50563
7.4815
7.45721
7.43274
7.40811
7.3833
7.35831
7.33315
7.3078
7.28226
7.25654
7.23063
7.20452
7.17823
7.15174
7.12505
7.09817
7.07109
7.04381
7.01634
6.98866
6.96079
6.93273
6.90447
6.87603
6.84741
6.81861
6.78966
6.76055
6.73132
6.70199
6.6726
6.64318
6.61379
6.58452
6.55546
6.52674
6.49853
6.47109
6.44468
6.41983
6.39695
6.37711
6.36069
6.34976
6.34291
6.34255
6.33248
4.2553
4.25655
4.25807
4.26059
4.26395
4.2683
4.27367
4.28017
4.2879
4.29701
4.30764
4.32001
4.33437
4.35099
4.37022
4.39248
4.41822
4.448
4.48239
4.5221
4.56782
4.62034
4.68046
4.74895
4.82657
4.914
5.01176
5.12022
5.23953
5.36952
5.50978
5.65956
5.81781
5.98322
6.1542
6.32899
6.50578
6.68272
6.858
7.02991
7.19692
7.35765
7.51097
7.65596
7.79192
7.91842
8.03521
8.14224
8.23959
8.3275
8.40631
8.4764
8.53825
8.59235
8.63922
8.67941
8.71341
8.74173
8.76484
8.78319
8.79723
8.80735
8.81393
8.81732
8.81786
8.81582
8.81149
8.80512
8.79693
8.78713
8.7759
8.76341
8.74981
8.73524
8.71981
8.70364
8.68682
8.66943
8.65156
8.63327
8.61462
8.59565
8.57642
8.55697
8.53732
8.51752
8.49757
8.47751
8.45735
8.43711
8.41679
8.39642
8.376
8.35553
8.33502
8.31447
8.29389
8.27327
8.25261
8.23192
8.21119
8.19042
8.1696
8.14875
8.12784
8.10688
8.08587
8.06479
8.04365
8.02244
8.00115
7.97979
7.95834
7.93681
7.91518
7.89346
7.87163
7.8497
7.82767
7.80551
7.78325
7.76086
7.73834
7.7157
7.69293
7.67002
7.64697
7.62378
7.60044
7.57695
7.55331
7.52951
7.50555
7.48142
7.45713
7.43267
7.40804
7.38324
7.35825
7.33309
7.30774
7.28221
7.25649
7.23058
7.20447
7.17818
7.15169
7.125
7.09812
7.07104
7.04376
7.01628
6.9886
6.96073
6.93266
6.90439
6.87594
6.84731
6.81849
6.78952
6.76039
6.73113
6.70176
6.67231
6.64282
6.61335
6.58397
6.55476
6.52585
6.49738
6.4696
6.44271
6.41719
6.39329
6.37193
6.35308
6.33821
6.32504
6.31443
6.29224
4.11216
4.11338
4.11466
4.11677
4.11954
4.12307
4.12738
4.13253
4.13859
4.14568
4.15392
4.16348
4.1746
4.18754
4.20267
4.22042
4.24129
4.26588
4.2949
4.32912
4.36941
4.41673
4.4721
4.53654
4.61108
4.69666
4.79408
4.90392
5.02648
5.16167
5.30904
5.46768
5.63632
5.81336
5.99689
6.18483
6.37498
6.56514
6.75321
6.93723
7.11548
7.28647
7.44899
7.60208
7.74509
7.87761
7.99949
8.11078
8.21166
8.30247
8.38367
8.45574
8.51922
8.57469
8.62271
8.66391
8.69879
8.72789
8.75171
8.77072
8.78537
8.79607
8.8032
8.80712
8.80815
8.8066
8.80274
8.79681
8.78906
8.77967
8.76884
8.75673
8.7435
8.72928
8.71419
8.69834
8.68182
8.66473
8.64714
8.62911
8.61071
8.59198
8.57298
8.55374
8.53429
8.51467
8.4949
8.47501
8.45501
8.43492
8.41475
8.39451
8.37421
8.35386
8.33346
8.31301
8.29252
8.27199
8.25142
8.23081
8.21015
8.18945
8.1687
8.14791
8.12706
8.10615
8.08519
8.06416
8.04306
8.02189
8.00064
7.97931
7.9579
7.9364
7.9148
7.8931
7.87131
7.8494
7.82739
7.80526
7.78301
7.76063
7.73814
7.71551
7.69275
7.66985
7.64681
7.62363
7.6003
7.57682
7.55319
7.5294
7.50544
7.48133
7.45704
7.43259
7.40796
7.38316
7.35818
7.33302
7.30768
7.28214
7.25642
7.23052
7.20441
7.17812
7.15163
7.12494
7.09806
7.07098
7.0437
7.01621
6.98853
6.96065
6.93258
6.9043
6.87584
6.84719
6.81836
6.78936
6.7602
6.7309
6.70148
6.67197
6.6424
6.61283
6.58331
6.55393
6.52479
6.49602
6.46783
6.44038
6.41407
6.38905
6.36597
6.34467
6.32578
6.30713
6.28798
6.25786
3.93804
3.93914
3.93995
3.9413
3.94299
3.94507
3.94751
3.95037
3.95365
3.95744
3.96182
3.96693
3.97298
3.98021
3.989
3.99975
4.01303
4.02949
4.04998
4.07543
4.10692
4.1457
4.1931
4.25055
4.31949
4.4013
4.49718
4.60806
4.73445
4.87637
5.03335
5.20436
5.38783
5.58169
5.78341
5.99022
6.19933
6.40807
6.61395
6.81473
7.00845
7.19348
7.3685
7.53255
7.68499
7.82555
7.95417
8.07104
8.17653
8.27113
8.35543
8.43004
8.49563
8.55286
8.60241
8.6449
8.68092
8.71104
8.73577
8.75562
8.77105
8.78248
8.7903
8.79488
8.79654
8.79559
8.7923
8.78693
8.7797
8.77082
8.76047
8.74883
8.73604
8.72225
8.70756
8.6921
8.67595
8.65921
8.64195
8.62424
8.60613
8.58769
8.56895
8.54996
8.53075
8.51136
8.4918
8.47211
8.45229
8.43238
8.41237
8.39229
8.37214
8.35192
8.33165
8.31132
8.29095
8.27052
8.25005
8.22953
8.20896
8.18834
8.16767
8.14695
8.12616
8.10532
8.08441
8.06344
8.04239
8.02127
8.00007
7.97878
7.95741
7.93594
7.91438
7.89271
7.87094
7.84907
7.82707
7.80497
7.78274
7.76039
7.73791
7.7153
7.69255
7.66967
7.64664
7.62348
7.60016
7.57669
7.55306
7.52928
7.50533
7.48122
7.45695
7.4325
7.40788
7.38308
7.35811
7.33295
7.30761
7.28208
7.25636
7.23045
7.20435
7.17806
7.15157
7.12488
7.098
7.07091
7.04363
7.01614
6.98846
6.96057
6.93249
6.9042
6.87572
6.84706
6.8182
6.78917
6.75998
6.73064
6.70116
6.67158
6.64192
6.61223
6.58256
6.55298
6.52358
6.49447
6.46582
6.43776
6.41056
6.38435
6.35948
6.33569
6.31306
6.28954
6.26352
6.22726
3.7322
3.733
3.73295
3.73298
3.73279
3.73244
3.73186
3.73105
3.72997
3.72861
3.72699
3.72519
3.72337
3.72175
3.72064
3.72049
3.72193
3.72571
3.73283
3.7444
3.76183
3.78674
3.82099
3.8666
3.92569
4.0003
4.09233
4.20332
4.33432
4.48565
4.6568
4.8463
5.05174
5.26995
5.49746
5.73082
5.96653
6.20124
6.43188
6.65576
6.87065
7.0747
7.26653
7.44518
7.6101
7.76113
7.89843
8.02243
8.13374
8.23309
8.32124
8.39904
8.46726
8.52669
8.57814
8.62227
8.65971
8.6911
8.71697
8.73787
8.75426
8.76659
8.77526
8.78064
8.78306
8.78283
8.78023
8.77551
8.76891
8.76063
8.75086
8.73976
8.7275
8.7142
8.69998
8.68497
8.66925
8.65291
8.63604
8.61869
8.60092
8.5828
8.56437
8.54567
8.52674
8.5076
8.48828
8.46882
8.44922
8.4295
8.40969
8.38978
8.36979
8.34973
8.32961
8.30942
8.28917
8.26887
8.24851
8.22809
8.20762
8.18709
8.16651
8.14586
8.12516
8.10438
8.08354
8.06263
8.04164
8.02057
7.99942
7.97818
7.95685
7.93542
7.9139
7.89227
7.87053
7.84868
7.82672
7.80464
7.78244
7.76011
7.73765
7.71506
7.69233
7.66946
7.64645
7.6233
7.59999
7.57654
7.55292
7.52915
7.50521
7.48111
7.45684
7.4324
7.40778
7.38299
7.35802
7.33287
7.30753
7.282
7.25629
7.23038
7.20428
7.17799
7.1515
7.12482
7.09793
7.07085
7.04356
7.01607
6.98838
6.96048
6.93239
6.90409
6.8756
6.84691
6.81803
6.78897
6.75974
6.73035
6.70081
6.67114
6.64138
6.61156
6.58173
6.55193
6.52225
6.49277
6.46361
6.43488
6.40676
6.3793
6.35264
6.32643
6.30037
6.27257
6.24104
6.20004
3.49399
3.49428
3.49286
3.49077
3.48765
3.48351
3.47819
3.47161
3.46362
3.45415
3.44316
3.43067
3.41672
3.40148
3.3852
3.36835
3.35154
3.33565
3.32175
3.3113
3.30613
3.30852
3.32118
3.34719
3.38982
3.45239
3.53799
3.64917
3.78747
3.95313
4.14501
4.36081
4.5973
4.85037
5.11548
5.38754
5.66149
5.93277
6.19756
6.45279
6.69606
6.9255
7.13968
7.33764
7.51889
7.68347
7.83183
7.96475
8.08321
8.18829
8.28107
8.36264
8.43399
8.49611
8.54983
8.59592
8.6351
8.66802
8.69529
8.71745
8.73501
8.74842
8.75809
8.76442
8.76773
8.76835
8.76656
8.76261
8.75673
8.74914
8.74003
8.72956
8.71789
8.70515
8.69148
8.67697
8.66174
8.64586
8.62942
8.61248
8.5951
8.57735
8.55926
8.54089
8.52226
8.50341
8.48436
8.46515
8.44579
8.4263
8.4067
8.38699
8.36719
8.3473
8.32734
8.3073
8.2872
8.26703
8.24679
8.22649
8.20613
8.18571
8.16522
8.14467
8.12404
8.10335
8.08258
8.06174
8.04081
8.0198
7.99871
7.97752
7.95624
7.93485
7.91337
7.89178
7.87008
7.84827
7.82634
7.80428
7.78211
7.7598
7.73736
7.71479
7.69209
7.66924
7.64625
7.62311
7.59982
7.57637
7.55277
7.52901
7.50508
7.48099
7.45673
7.43229
7.40768
7.3829
7.35793
7.33278
7.30745
7.28193
7.25621
7.23031
7.20421
7.17792
7.15143
7.12475
7.09786
7.07077
7.04348
7.01599
6.98829
6.96039
6.93228
6.90397
6.87546
6.84676
6.81785
6.78876
6.75948
6.73003
6.70043
6.67068
6.64081
6.61084
6.58082
6.55079
6.5208
6.49092
6.46124
6.43181
6.40274
6.37401
6.3456
6.31709
6.28793
6.25642
6.22044
6.17577
3.2234
3.22279
3.2191
3.21364
3.20587
3.19574
3.18299
3.16744
3.14887
3.12711
3.10193
3.07313
3.04062
3.00444
2.9648
2.92211
2.87699
2.8303
2.78338
2.7381
2.69718
2.66418
2.64345
2.63999
2.65894
2.70516
2.78286
2.89538
3.04475
3.23153
3.45456
3.71089
3.99578
4.30306
4.62468
4.95255
5.27939
5.59931
5.90805
6.20271
6.48136
6.74251
6.98486
7.20743
7.40968
7.59162
7.754
7.89801
8.02519
8.13708
8.23524
8.32112
8.39609
8.46123
8.51755
8.56592
8.60712
8.64185
8.67075
8.6944
8.71332
8.72799
8.73885
8.74627
8.75062
8.75221
8.75134
8.74826
8.74321
8.7364
8.72803
8.71827
8.70726
8.69516
8.68209
8.66816
8.65346
8.63809
8.62213
8.60565
8.5887
8.57135
8.55365
8.53563
8.51734
8.49881
8.48007
8.46114
8.44204
8.4228
8.40342
8.38393
8.36434
8.34464
8.32486
8.30499
8.28504
8.26502
8.24492
8.22475
8.20451
8.1842
8.16381
8.14336
8.12283
8.10222
8.08153
8.06076
8.03991
8.01896
7.99793
7.9768
7.95557
7.93423
7.9128
7.89125
7.86959
7.84781
7.82591
7.80389
7.78174
7.75947
7.73706
7.71451
7.69182
7.669
7.64602
7.6229
7.59962
7.57619
7.5526
7.52885
7.50494
7.48085
7.4566
7.43218
7.40758
7.3828
7.35784
7.33269
7.30736
7.28184
7.25613
7.23023
7.20414
7.17785
7.15136
7.12467
7.09779
7.0707
7.0434
7.0159
6.9882
6.96029
6.93217
6.90385
6.87532
6.84659
6.81766
6.78853
6.75921
6.7297
6.70002
6.67018
6.64019
6.61007
6.57986
6.54958
6.51928
6.48898
6.45875
6.42861
6.39858
6.36859
6.3385
6.30785
6.27592
6.2412
6.20163
6.15399
2.92037
2.91825
2.91106
2.90044
2.88556
2.86633
2.84237
2.81334
2.77875
2.73811
2.69094
2.63686
2.57566
2.50726
2.4317
2.3491
2.25981
2.16476
2.06595
1.96679
1.8722
1.78837
1.72229
1.68118
1.67203
1.70105
1.77349
1.894
2.06603
2.29092
2.56696
2.88904
3.24869
3.6348
4.03513
4.43807
4.83368
5.21456
5.57607
5.9159
6.23362
6.52953
6.80349
7.05466
7.28207
7.48526
7.66486
7.82241
7.96002
8.07992
8.18429
8.27515
8.35409
8.42253
8.48166
8.53251
8.57594
8.6127
8.64346
8.66881
8.68929
8.70541
8.71761
8.72628
8.7318
8.73449
8.73465
8.73254
8.72841
8.72248
8.71493
8.70595
8.69568
8.68428
8.67187
8.65856
8.64446
8.62965
8.61422
8.59823
8.58175
8.56485
8.54756
8.52993
8.51201
8.49383
8.47541
8.45678
8.43797
8.419
8.39988
8.38063
8.36125
8.34176
8.32217
8.30248
8.28271
8.26284
8.24289
8.22286
8.20275
8.18256
8.16229
8.14194
8.12151
8.101
8.0804
8.05971
8.03893
8.01806
7.99709
7.97602
7.95484
7.93356
7.91218
7.89067
7.86906
7.84732
7.82546
7.80347
7.78135
7.75911
7.73672
7.7142
7.69154
7.66873
7.64578
7.62268
7.59942
7.576
7.55243
7.52869
7.50478
7.48071
7.45647
7.43205
7.40746
7.38269
7.35773
7.33259
7.30727
7.28175
7.25605
7.23015
7.20406
7.17777
7.15128
7.1246
7.09771
7.07062
7.04332
7.01582
6.98811
6.96019
6.93206
6.90372
6.87518
6.84642
6.81746
6.78829
6.75892
6.72935
6.6996
6.66966
6.63954
6.60927
6.57886
6.54833
6.51769
6.48697
6.45618
6.42532
6.39435
6.36314
6.33147
6.29883
6.26444
6.22695
6.18446
6.13441
2.58691
2.58225
2.56948
2.55083
2.52497
2.49185
2.45065
2.40069
2.3411
2.27112
2.19004
2.09716
1.99176
1.87306
1.74043
1.5938
1.43426
1.26458
1.08967
0.916483
0.753551
0.610335
0.49606
0.418923
0.386289
0.405154
0.482093
0.622751
0.831879
1.11208
1.4614
1.8718
2.33016
2.81996
3.32586
3.83127
4.32118
4.78425
5.21412
5.60898
5.97032
6.3017
6.60656
6.88625
7.14013
7.36683
7.56603
7.73912
7.8886
8.01763
8.12907
8.22539
8.30867
8.38064
8.44274
8.49619
8.54196
8.58088
8.61364
8.64085
8.66307
8.6808
8.69449
8.70456
8.71138
8.71528
8.71658
8.71555
8.71243
8.70745
8.7008
8.69267
8.68321
8.67257
8.66088
8.64825
8.63479
8.62058
8.60572
8.59027
8.5743
8.55787
8.54103
8.52383
8.5063
8.48849
8.47042
8.45212
8.43362
8.41493
8.39608
8.37708
8.35795
8.33868
8.3193
8.2998
8.28021
8.26051
8.24073
8.22084
8.20087
8.18082
8.16067
8.14043
8.12011
8.09969
8.07918
8.05858
8.03788
8.01709
7.99619
7.97518
7.95407
7.93285
7.91151
7.89006
7.86849
7.84679
7.82497
7.80302
7.78094
7.75872
7.73637
7.71388
7.69124
7.66846
7.64552
7.62244
7.5992
7.5758
7.55224
7.52851
7.50462
7.48056
7.45633
7.43192
7.40734
7.38257
7.35763
7.33249
7.30717
7.28166
7.25596
7.23007
7.20398
7.17769
7.1512
7.12452
7.09763
7.07053
7.04323
7.01573
6.98801
6.96008
6.93194
6.90359
6.87502
6.84624
6.81725
6.78804
6.75862
6.72899
6.69916
6.66912
6.63888
6.60845
6.57783
6.54704
6.51606
6.48491
6.45357
6.422
6.39011
6.35774
6.32458
6.29013
6.25357
6.21369
6.16879
6.11678
2.22403
2.2151
2.19374
2.16283
2.12029
2.06584
1.99804
1.91595
1.81813
1.70319
1.56918
1.4141
1.23606
1.03428
0.809639
0.56495
0.305001
0.0367098
-0.230787
-0.486698
-0.719707
-0.919456
-1.07747
-1.18668
-1.24072
-1.23294
-1.15548
-0.998984
-0.753991
-0.414064
0.0209402
0.542669
1.13458
1.7741
2.43518
3.09095
3.71783
4.29871
4.82411
5.29219
5.70698
6.07641
6.41024
6.7154
6.99343
7.24288
7.46197
7.6511
7.81313
7.95176
8.07057
8.17266
8.26053
8.33623
8.40144
8.45755
8.5057
8.54681
8.58164
8.61081
8.63488
8.65435
8.66966
8.68125
8.68948
8.69471
8.69725
8.69738
8.69536
8.69141
8.68573
8.67852
8.66993
8.6601
8.64918
8.63728
8.6245
8.61094
8.59668
8.58181
8.56638
8.55046
8.53409
8.51734
8.50023
8.48282
8.46512
8.44717
8.429
8.41062
8.39206
8.37332
8.35444
8.33541
8.31624
8.29696
8.27756
8.25804
8.23842
8.2187
8.19888
8.17896
8.15894
8.13883
8.11862
8.09831
8.0779
8.05739
8.03677
8.01606
7.99523
7.9743
7.95325
7.93209
7.91081
7.88941
7.86789
7.84624
7.82446
7.80254
7.7805
7.75832
7.73599
7.71353
7.69092
7.66816
7.64525
7.62219
7.59896
7.57558
7.55204
7.52833
7.50445
7.4804
7.45618
7.43179
7.40721
7.38245
7.35751
7.33239
7.30707
7.28156
7.25587
7.22998
7.20389
7.17761
7.15112
7.12443
7.09754
7.07045
7.04315
7.01563
6.98791
6.95997
6.93182
6.90345
6.87487
6.84606
6.81704
6.78779
6.75832
6.72863
6.69871
6.66857
6.6382
6.60761
6.57679
6.54573
6.51442
6.48285
6.45096
6.4187
6.38593
6.35245
6.31793
6.28183
6.24337
6.20143
6.15451
6.10088
1.83718
1.82154
1.78685
1.73657
1.66774
1.57995
1.47079
1.3384
1.1793
0.989806
0.766074
0.506119
0.210314
-0.117894
-0.472593
-0.845908
-1.22846
-1.60916
-1.975
-2.31295
-2.61194
-2.86404
-3.06381
-3.20662
-3.28629
-3.29288
-3.21212
-3.02657
-2.71946
-2.28017
-1.70938
-1.0213
-0.242081
0.594633
1.45065
2.28877
3.07804
3.7967
4.4329
4.98472
5.45945
5.86871
6.22953
6.55595
6.85371
7.12223
7.35877
7.56272
7.73657
7.88435
8.01028
8.11801
8.21047
8.28997
8.35837
8.4172
8.46773
8.51102
8.54789
8.57903
8.60499
8.62627
8.64331
8.65651
8.66626
8.67291
8.67678
8.67816
8.6773
8.67445
8.66981
8.66357
8.6559
8.64694
8.63684
8.62571
8.61365
8.60078
8.58717
8.57289
8.55804
8.54265
8.52679
8.51051
8.49385
8.47685
8.45954
8.44196
8.42413
8.40608
8.38782
8.36937
8.35074
8.33196
8.31303
8.29396
8.27476
8.25544
8.236
8.21645
8.19678
8.17701
8.15712
8.13714
8.11705
8.09685
8.07654
8.05613
8.03561
8.01497
7.99423
7.97337
7.95239
7.93129
7.91007
7.88873
7.86725
7.84565
7.82391
7.80204
7.78004
7.75789
7.7356
7.71317
7.69058
7.66785
7.64496
7.62192
7.59872
7.57536
7.55183
7.52814
7.50428
7.48024
7.45603
7.43165
7.40708
7.38233
7.3574
7.33228
7.30697
7.28147
7.25577
7.22989
7.2038
7.17752
7.15104
7.12435
7.09746
7.07036
7.04306
7.01554
6.98781
6.95986
6.9317
6.90332
6.87471
6.84588
6.81683
6.78754
6.75802
6.72826
6.69827
6.66802
6.63753
6.60677
6.57575
6.54443
6.51279
6.4808
6.44839
6.41546
6.38186
6.34735
6.31157
6.27399
6.23385
6.19013
6.14153
6.08656
1.42802
1.40111
1.34442
1.26342
1.15373
1.01375
0.83815
0.621663
0.357362
0.0413883
-0.327235
-0.745148
-1.20564
-1.69876
-2.21281
-2.73392
-3.24646
-3.73454
-4.18384
-4.58343
-4.92607
-5.20623
-5.4189
-5.55737
-5.61121
-5.56491
-5.3995
-5.09581
-4.63865
-4.02323
-3.25899
-2.36988
-1.39172
-0.366661
0.661945
1.6531
2.5748
3.39831
4.11681
4.73186
5.25324
5.69511
6.07725
6.41925
6.73109
7.01353
7.26341
7.47907
7.66253
7.81797
7.95005
8.06284
8.15954
8.24267
8.31418
8.37571
8.42862
8.47404
8.5129
8.54595
8.57378
8.59688
8.61567
8.63056
8.6419
8.65004
8.65531
8.65801
8.65839
8.65669
8.65314
8.64793
8.64122
8.63317
8.62393
8.6136
8.60231
8.59015
8.57721
8.56358
8.54931
8.53449
8.51916
8.50337
8.48717
8.47061
8.45371
8.43651
8.41904
8.40132
8.38338
8.36523
8.34688
8.32836
8.30967
8.29083
8.27184
8.25272
8.23346
8.21408
8.19458
8.17496
8.15522
8.13537
8.1154
8.09532
8.07512
8.05481
8.03438
8.01384
7.99317
7.97239
7.95148
7.93045
7.90929
7.88801
7.86659
7.84503
7.82334
7.80152
7.77955
7.75744
7.73519
7.71278
7.69023
7.66752
7.64466
7.62164
7.59846
7.57512
7.55161
7.52793
7.50409
7.48007
7.45587
7.43149
7.40694
7.3822
7.35727
7.33216
7.30685
7.28136
7.25567
7.22979
7.20371
7.17743
7.15095
7.12426
7.09737
7.07027
7.04296
7.01544
6.9877
6.95975
6.93158
6.90318
6.87455
6.8457
6.81661
6.78728
6.75771
6.72789
6.69782
6.66748
6.63686
6.60594
6.57471
6.54314
6.51119
6.4788
6.44588
6.41232
6.37793
6.34247
6.30554
6.26663
6.22502
6.17978
6.12974
6.07365
0.99157
0.9465
0.853662
0.722077
0.543641
0.311887
0.0146507
-0.355246
-0.801385
-1.31798
-1.8956
-2.52144
-3.18067
-3.8536
-4.51886
-5.15656
-5.74947
-6.28226
-6.7414
-7.11652
-7.40007
-7.58628
-7.67105
-7.65099
-7.52295
-7.27988
-6.91126
-6.40836
-5.76135
-4.97525
-4.05969
-3.03854
-1.9459
-0.822717
0.287599
1.34528
2.3183
3.18274
3.93114
4.56913
5.10931
5.56656
5.95991
6.3105
6.63063
6.9216
7.17977
7.40286
7.59273
7.75363
7.8904
8.00728
8.10763
8.19401
8.26845
8.33261
8.38787
8.43543
8.47628
8.51122
8.54089
8.56581
8.58639
8.60301
8.61601
8.62573
8.63249
8.63658
8.63828
8.63782
8.63543
8.63131
8.62563
8.61855
8.61021
8.60075
8.59026
8.57887
8.56665
8.55368
8.54006
8.52583
8.51105
8.49579
8.48009
8.46399
8.44752
8.43073
8.41364
8.39628
8.37868
8.36083
8.34278
8.32453
8.3061
8.2875
8.26874
8.24983
8.23077
8.21157
8.19224
8.17279
8.1532
8.13349
8.11365
8.09369
8.07361
8.05341
8.03308
8.01263
7.99205
7.97135
7.95052
7.92956
7.90847
7.88724
7.86588
7.84438
7.82274
7.80096
7.77903
7.75696
7.73475
7.71238
7.68986
7.66718
7.64434
7.62135
7.59819
7.57487
7.55138
7.52772
7.50389
7.47988
7.4557
7.43133
7.40679
7.38205
7.35714
7.33203
7.30673
7.28125
7.25556
7.22969
7.20361
7.17733
7.15085
7.12417
7.09728
7.07018
7.04287
7.01534
6.9876
6.95963
6.93145
6.90303
6.87439
6.84551
6.81639
6.78703
6.75741
6.72753
6.69737
6.66693
6.63619
6.60512
6.5737
6.54189
6.50962
6.47685
6.44345
6.4093
6.37418
6.33784
6.29988
6.25979
6.21689
6.17033
6.11908
6.06204
0.541542
0.466175
0.310998
0.0911553
-0.211628
-0.612117
-1.12351
-1.73716
-2.43561
-3.19274
-3.98253
-4.7764
-5.54822
-6.27396
-6.93352
-7.51008
-7.98831
-8.35257
-8.59854
-8.7246
-8.74167
-8.65832
-8.48731
-8.23524
-7.90031
-7.47929
-6.96395
-6.34461
-5.61358
-4.77254
-3.83048
-2.807
-1.73137
-0.639328
0.430545
1.44242
2.36902
3.19325
3.90952
4.52382
5.04868
5.49827
5.88934
6.24048
6.56254
6.85584
7.11608
7.34111
7.53306
7.69635
7.83571
7.95523
8.05816
8.14705
8.22389
8.29032
8.34772
8.39729
8.44002
8.47674
8.50815
8.53477
8.55704
8.57532
8.58994
8.60122
8.60946
8.61495
8.61796
8.61874
8.61752
8.6145
8.60986
8.60375
8.59634
8.58774
8.57808
8.56745
8.55595
8.54367
8.53068
8.51705
8.50284
8.48811
8.47291
8.45727
8.44125
8.42487
8.40816
8.39116
8.37389
8.35637
8.33861
8.32064
8.30247
8.28412
8.26559
8.24689
8.22803
8.20903
8.18987
8.17058
8.15114
8.13158
8.11188
8.09204
8.07208
8.05199
8.03176
8.01141
7.99092
7.9703
7.94955
7.92866
7.90764
7.88647
7.86517
7.84372
7.82213
7.8004
7.77852
7.75649
7.73431
7.71197
7.68948
7.66684
7.64403
7.62106
7.59792
7.57462
7.55115
7.52751
7.50369
7.4797
7.45553
7.43118
7.40664
7.38192
7.35702
7.33192
7.30663
7.28115
7.25547
7.2296
7.20352
7.17725
7.15077
7.12409
7.0972
7.0701
7.04279
7.01526
6.98751
6.95954
6.93134
6.90291
6.87425
6.84535
6.8162
6.7868
6.75714
6.7272
6.69697
6.66644
6.63558
6.60436
6.57275
6.54071
6.50816
6.47502
6.44117
6.40647
6.37069
6.33355
6.29467
6.25354
6.20951
6.16181
6.10952
6.05169
0.11794
-0.00123189
-0.256898
-0.630857
-1.14604
-1.80266
-2.58775
-3.45482
-4.36027
-5.25272
-6.0869
-6.82859
-7.45771
-7.96326
-8.3427
-8.5989
-8.73954
-8.77231
-8.7119
-8.57035
-8.35835
-8.08487
-7.75738
-7.37939
-6.94888
-6.46017
-5.90486
-5.27441
-4.56306
-3.77095
-2.90524
-1.98119
-1.0216
-0.0543084
0.890554
1.78416
2.6053
3.34189
3.99067
4.55666
5.04931
5.47945
5.86059
6.20721
6.5265
6.81693
7.07401
7.29642
7.48692
7.64998
7.78997
7.91064
8.01502
8.10551
8.18403
8.25217
8.31129
8.36254
8.4069
8.44519
8.4781
8.50619
8.52993
8.54967
8.56573
8.57841
8.58799
8.59476
8.59898
8.60091
8.60076
8.59876
8.59507
8.58988
8.58332
8.57552
8.56662
8.55671
8.54588
8.53424
8.52185
8.50878
8.4951
8.48086