/*--------------------------------*- C++ -*----------------------------------*\
  =========                 |
  \\      /  F ield         | OpenFOAM: The Open Source CFD Toolbox
   \\    /   O peration     | Website:  https://openfoam.org
    \\  /    A nd           | Version:  7
     \\/     M anipulation  |
\*---------------------------------------------------------------------------*/
FoamFile
{
    version     2.0;
    format      ascii;
    class       volScalarField;
    location    "0.017";
    object      s;
}
// * * * * * * * * * * * * * * * * * * * * * * * * * * * * * * * * * * * * * //

dimensions      [0 0 0 0 0 0 0];

internalField   nonuniform List<scalar> 
12225
(
1
1
1
1
1
1
1
1
1
1
1
1
1
1
1
1
1
1
1
1
1
1
1
1
1
1
1
1
1
1
1
1
1
1
1
1
1
1
1
1
1
1
1
1
1
1
1
1
1
1
1
1
1
1
1
1
1
1
1
1
1
1
1
1
1
1
1
1
1
1
1
1
1
1
1
1
1
1
1
1
1
1
1
1
1
1
1
1
1
1
1
1
1
1
1
1
1
1
1
1
1
1
1
1
1
1
1
1
1
1
1
1
1
1
1
1
1
1
1
1
1
1
1
1
1
1
1
1
1
1
1
1
1
1
1
1
1
1
1
1
1
1
1
1
1
1
1
1
1
1
1
1
1
1
1
1
1
1
1
1
1
1
1
1
1
1
1
1
1
1
1
1
1
1
1
1
1
1
1
1
1
1
1
1
1
1
1
1
1
1
1
1
1
1
1
1
1
1
1
1
1
1
1
1
1
1
1
1
1
1
1
1
1
1
1
1
1
1
1
1
1
1
1
1
1
1
1
1
1
1
1
1
1
1
1
1
1
1
1
1
1
1
1
1
1
1
1
1
1
1
1
1
1
1
1
1
1
1
1
1
1
1
1
1
1
1
1
1
1
1
1
1
1
1
1
1
1
1
1
1
1
1
1
1
1
1
1
1
1
1
1
1
1
1
1
1
1
1
1
1
1
1
1
1
1
1
1
1
1
1
1
1
1
1
1
1
1
1
1
1
1
1
1
1
1
1
1
1
1
1
1
1
1
1
1
1
1
1
1
1
1
1
1
1
1
1
1
1
1
1
1
1
1
1
1
1
1
1
1
1
1
1
1
1
1
1
1
1
1
1
1
1
1
1
1
1
1
1
1
1
1
1
1
1
1
1
1
1
1
1
1
1
1
1
1
1
1
1
1
1
1
1
1
1
1
1
1
1
1
1
1
1
1
1
1
1
1
1
1
1
1
1
1
1
1
1
1
1
1
1
1
1
1
1
1
1
1
1
1
1
1
1
1
1
1
1
1
1
1
1
1
1
1
1
1
1
1
1
1
1
1
1
1
1
1
1
1
1
1
1
1
1
1
1
1
1
1
1
1
1
1
1
1
1
1
1
1
1
1
1
1
1
1
1
1
1
1
1
1
1
1
1
1
1
1
1
1
1
1
1
1
1
1
1
1
1
1
1
1
1
1
1
1
1
1
1
1
1
1
1
1
1
1
1
1
1
1
1
1
1
1.699e-25
1.32622e-23
4.56242e-22
9.95945e-21
1.56988e-19
1.90909e-18
1.86475e-17
1.50411e-16
1.02297e-15
5.96566e-15
3.02568e-14
1.35126e-13
5.37293e-13
1.92137e-12
6.23635e-12
1.85282e-11
5.07782e-11
1.29281e-10
3.07775e-10
6.89183e-10
1.45918e-09
2.93463e-09
5.62946e-09
1.03412e-08
1.82646e-08
3.11445e-08
5.14876e-08
8.28445e-08
1.30156e-07
2.00157e-07
3.01903e-07
4.47561e-07
6.5592e-07
9.61845e-07
1.30212e-06
1.62509e-06
1.87287e-06
1.99806e-06
2.0408e-06
1.92953e-06
1.70441e-06
1.42233e-06
1.12813e-06
8.27725e-07
5.84156e-07
3.84141e-07
2.40241e-07
1.41603e-07
7.92124e-08
4.19435e-08
2.11332e-08
1.01684e-08
4.65979e-09
2.03078e-09
8.42104e-10
3.34641e-10
1.27803e-10
4.70367e-11
1.66642e-11
5.69137e-12
1.87639e-12
5.97935e-13
1.84383e-13
5.50802e-14
1.59555e-14
4.48607e-15
1.22527e-15
3.25345e-16
8.40451e-17
2.11359e-17
5.17757e-18
1.23613e-18
2.87776e-19
6.53565e-20
1.4486e-20
3.13469e-21
6.62487e-22
1.36783e-22
2.75983e-23
5.44301e-24
1.04956e-24
1.97913e-25
3.65029e-26
6.58632e-27
1.16275e-27
2.00875e-28
3.3963e-29
5.62047e-30
9.1045e-31
1.44371e-31
2.24104e-32
3.4054e-33
5.06541e-34
7.37485e-35
1.05081e-35
1.46504e-36
1.99805e-37
2.6646e-38
3.47316e-39
4.4218e-40
5.49375e-41
6.65364e-42
7.84247e-43
8.9765e-44
9.94729e-45
1.06181e-45
1.08414e-46
1.04532e-47
9.89876e-49
9.24767e-50
8.52298e-51
7.74917e-52
6.95082e-53
6.15455e-54
4.98034e-55
7.34675e-56
1.07113e-56
1.55516e-57
2.25376e-58
1.77334e-59
1.37013e-60
1.03812e-61
7.37759e-63
1.00488e-63
1.41912e-64
2.0806e-65
1.49698e-66
9.88319e-68
6.18498e-69
7.65357e-70
9.70311e-71
1.2221e-71
7.71713e-73
4.87104e-74
3.00251e-75
3.24317e-76
3.19784e-77
3.09236e-78
2.73101e-79
1.88251e-80
1.20996e-81
7.23848e-83
3.9712e-84
4.17024e-85
4.48038e-86
4.81555e-87
2.50177e-88
1.24302e-89
5.9635e-91
5.57422e-92
5.26715e-93
5.15948e-94
2.59977e-95
1.27539e-96
5.93988e-98
4.64233e-99
4.14947e-100
3.58677e-101
1.60735e-102
7.59381e-104
3.69174e-105
1.73213e-106
1.41551e-107
1.13164e-108
9.02976e-110
3.65523e-111
1.48343e-112
5.99479e-114
4.16899e-115
2.65917e-116
1.72053e-117
9.78193e-119
4.08216e-120
1.51309e-121
5.28472e-123
3.50438e-124
2.24583e-125
1.38915e-126
4.38022e-128
1.17172e-129
5.50614e-22
2.94289e-20
7.13837e-19
1.10061e-17
1.23331e-16
1.07913e-15
7.71473e-15
4.65037e-14
2.41947e-13
1.1064e-12
4.51278e-12
1.66197e-11
5.58427e-11
1.72729e-10
4.95684e-10
1.32877e-09
3.34735e-09
7.9659e-09
1.79869e-08
3.8679e-08
7.94612e-08
1.56375e-07
2.95517e-07
5.3759e-07
9.43687e-07
1.60238e-06
2.63807e-06
4.21993e-06
6.5695e-06
9.96582e-06
1.47529e-05
2.13327e-05
3.01405e-05
4.20898e-05
5.40734e-05
6.49935e-05
7.27976e-05
7.62531e-05
7.71732e-05
7.26223e-05
6.43919e-05
5.42586e-05
4.34694e-05
3.26455e-05
2.34547e-05
1.58635e-05
1.01872e-05
6.18971e-06
3.57038e-06
1.95285e-06
1.01576e-06
5.03218e-07
2.38375e-07
1.07584e-07
4.62462e-08
1.90235e-08
7.53842e-09
2.87147e-09
1.05294e-09
3.72247e-10
1.2706e-10
4.19298e-11
1.33943e-11
4.14681e-12
1.24562e-12
3.63392e-13
1.03063e-13
2.84416e-14
7.6433e-15
2.00179e-15
5.11292e-16
1.27443e-16
3.10186e-17
7.37609e-18
1.71454e-18
3.89758e-19
8.66866e-20
1.8871e-20
4.02237e-21
8.39772e-22
1.71779e-22
3.44375e-23
6.76807e-24
1.3043e-24
2.4653e-25
4.57125e-26
8.31688e-27
1.485e-27
2.6026e-28
4.47793e-29
7.56484e-30
1.25498e-30
2.04479e-31
3.27258e-32
5.14532e-33
7.94813e-34
1.20641e-34
1.79947e-35
2.63791e-36
3.80081e-37
5.38312e-38
7.49497e-39
1.02593e-39
1.38073e-40
1.82715e-41
2.37764e-42
3.04267e-43
3.82936e-44
4.73995e-45
5.77061e-46
6.91031e-47
8.14009e-48
9.43254e-49
1.07698e-49
1.21262e-50
1.34641e-51
1.47417e-52
1.5916e-53
1.69443e-54
1.77873e-55
1.84114e-56
1.87911e-57
1.89104e-58
1.87645e-59
1.83595e-60
1.77122e-61
1.68492e-62
1.58046e-63
1.46181e-64
1.33325e-65
1.19908e-66
1.06343e-67
9.3004e-69
8.02118e-70
6.82225e-71
5.72241e-72
4.73374e-73
3.86202e-74
3.10757e-75
2.46624e-76
1.93052e-77
1.49055e-78
1.13518e-79
8.52804e-81
6.31988e-82
4.62018e-83
3.33208e-84
2.37078e-85
1.66419e-86
1.15256e-87
7.8757e-89
5.30999e-90
3.53258e-91
2.31898e-92
1.50218e-93
9.60243e-95
6.0574e-96
3.77094e-97
2.31676e-98
1.40472e-99
8.40589e-101
4.96444e-102
2.89369e-103
1.66467e-104
9.45148e-106
5.29608e-107
2.92873e-108
1.59827e-109
8.60665e-111
4.57278e-112
2.39671e-113
1.23894e-114
6.3143e-116
3.17166e-117
1.56881e-118
7.63685e-120
3.65048e-121
1.71161e-122
7.81566e-124
3.33476e-125
1.72651e-20
8.819e-19
2.07061e-17
3.08873e-16
3.35367e-15
2.85e-14
1.98479e-13
1.16924e-12
5.96478e-12
2.68335e-11
1.08022e-10
3.9387e-10
1.3141e-09
4.04671e-09
1.15876e-08
3.10501e-08
7.82875e-08
1.866e-07
4.22101e-07
9.09107e-07
1.86926e-06
3.67768e-06
6.93815e-06
1.25768e-05
2.19505e-05
3.69596e-05
6.01503e-05
9.4777e-05
0.00014477
0.000214581
0.00030901
0.000432732
0.000588938
0.000785555
0.000971407
0.00113201
0.00124204
0.00128745
0.00128782
0.00121136
0.00108106
0.000921551
0.000748765
0.000575828
0.000423053
0.000294623
0.000194873
0.000122273
7.28731e-05
4.12169e-05
2.21598e-05
1.1341e-05
5.53735e-06
2.58303e-06
1.14846e-06
4.88095e-07
1.99394e-07
7.82344e-08
2.95258e-08
1.07343e-08
3.76481e-09
1.27557e-09
4.18048e-10
1.3269e-10
4.0836e-11
1.21985e-11
3.5405e-12
9.9937e-13
2.7458e-13
7.34929e-14
1.9177e-14
4.88179e-15
1.21316e-15
2.9448e-16
6.98606e-17
1.62056e-17
3.67755e-18
8.16765e-19
1.77605e-19
3.78259e-20
7.89309e-21
1.61422e-21
3.23641e-22
6.36303e-23
1.22708e-23
2.3216e-24
4.31024e-25
7.85422e-26
1.40499e-26
2.46767e-27
4.25614e-28
7.20988e-29
1.19974e-29
1.96133e-30
3.15048e-31
4.97304e-32
7.71497e-33
1.17643e-33
1.76344e-34
2.59877e-35
3.76555e-36
5.36519e-37
7.51757e-38
1.03597e-38
1.40419e-39
1.87223e-40
2.45571e-41
3.16894e-42
4.0235e-43
5.02665e-44
6.17976e-45
7.4768e-46
8.90321e-47
1.0435e-47
1.20389e-48
1.3677e-49
1.53208e-50
1.69218e-51
1.84281e-52
1.97869e-53
2.09475e-54
2.18646e-55
2.25011e-56
2.28303e-57
2.28383e-58
2.25245e-59
2.19021e-60
2.09971e-61
1.98463e-62
1.84949e-63
1.69936e-64
1.53953e-65
1.37523e-66
1.21131e-67
1.05205e-68
9.01032e-70
7.60979e-71
6.33796e-72
5.20576e-73
4.21688e-74
3.36888e-75
2.65449e-76
2.06297e-77
1.58139e-78
1.19573e-79
8.91844e-81
6.56185e-82
4.76278e-83
3.41042e-84
2.40926e-85
1.67921e-86
1.15475e-87
7.83511e-89
5.24562e-90
3.46542e-91
2.25912e-92
1.45331e-93
9.22626e-95
5.78039e-96
3.57407e-97
2.18098e-98
1.31351e-99
7.80757e-101
4.58036e-102
2.65207e-103
1.51555e-104
8.54753e-106
4.75756e-107
2.61316e-108
1.41631e-109
7.57321e-111
3.99472e-112
2.07776e-113
1.06551e-114
5.3818e-116
2.67751e-117
1.30851e-118
6.28753e-120
2.94844e-121
1.3571e-122
2.15466e-19
1.11642e-17
2.68051e-16
4.07688e-15
4.50505e-14
3.88796e-13
2.7432e-12
1.63355e-11
8.40749e-11
3.80968e-10
1.54264e-09
5.65122e-09
1.89241e-08
5.84393e-08
1.67676e-07
4.4988e-07
1.13486e-06
2.70388e-06
6.10763e-06
1.31201e-05
2.68706e-05
5.25819e-05
9.8509e-05
0.000177019
0.000305668
0.000508032
0.000813955
0.00125874
0.00188061
0.0027161
0.00379506
0.00513289
0.00671488
0.00854782
0.0101875
0.0115206
0.0123903
0.0127468
0.0126103
0.0118879
0.0107073
0.00926182
0.00766816
0.00605442
0.00457352
0.00329273
0.00225625
0.00146965
0.000909908
0.000534927
0.000298868
0.00015886
8.04008e-05
3.8851e-05
1.79145e-05
7.89183e-06
3.33372e-06
1.35102e-06
5.26051e-07
1.971e-07
7.1166e-08
2.47971e-08
8.34946e-09
2.72019e-09
8.58511e-10
2.62779e-10
7.80898e-11
2.25521e-11
6.33532e-12
1.73266e-12
4.61709e-13
1.19965e-13
3.04136e-14
7.52808e-15
1.82035e-15
4.30245e-16
9.94442e-17
2.24876e-17
4.97726e-18
1.07867e-18
2.28975e-19
4.76249e-20
9.70861e-21
1.94034e-21
3.80283e-22
7.31052e-23
1.37879e-23
2.5518e-24
4.63528e-25
8.26542e-26
1.44706e-26
2.48776e-27
4.20047e-28
6.96649e-29
1.13506e-29
1.81703e-30
2.85825e-31
4.4186e-32
6.71372e-33
1.00273e-33
1.47227e-34
2.12531e-35
3.01668e-36
4.21064e-37
5.7799e-38
7.80339e-39
1.03628e-39
1.35373e-40
1.73977e-41
2.19983e-42
2.73691e-43
3.35073e-44
4.03703e-45
4.78701e-46
5.58704e-47
6.41863e-48
7.25918e-49
8.09298e-50
8.89486e-51
9.63756e-52
1.02941e-52
1.08393e-53
1.12514e-54
1.15133e-55
1.1614e-56
1.15493e-57
1.13219e-58
1.09414e-59
1.04238e-60
9.7901e-62
9.06489e-63
8.27495e-64
7.44745e-65
6.60849e-66
5.7818e-67
4.98775e-68
4.2427e-69
3.55869e-70
2.94349e-71
2.40091e-72
1.93129e-73
1.53211e-74
1.19873e-75
9.2504e-77
7.04077e-78
5.28589e-79
3.91446e-80
2.85955e-81
2.06069e-82
1.46499e-83
1.02749e-84
7.10989e-86
4.85404e-87
3.26976e-88
2.17328e-89
1.42534e-90
9.22442e-92
5.89104e-93
3.71269e-94
2.3091e-95
1.4173e-96
8.58538e-98
5.13261e-99
3.02834e-100
1.76343e-101
1.01343e-102
5.74781e-104
3.21715e-105
1.7769e-106
9.68404e-108
5.20672e-109
2.76158e-110
1.44424e-111
7.44713e-113
3.78226e-114
1.89232e-115
9.30301e-117
4.49848e-118
2.12712e-119
9.88444e-121
2.10588e-18
1.0947e-16
2.66769e-15
4.10478e-14
4.5785e-13
3.98006e-12
2.82323e-11
1.68701e-10
8.69611e-10
3.9399e-09
1.59301e-08
5.82158e-08
1.94346e-07
5.9801e-07
1.7088e-06
4.56312e-06
1.14477e-05
2.7101e-05
6.07654e-05
0.00012943
0.000262538
0.000508211
0.000940601
0.00166728
0.00283475
0.0046292
0.00726963
0.0109889
0.0159974
0.0224291
0.0302885
0.0393986
0.0493516
0.0598408
0.068797
0.0755381
0.0796778
0.0813519
0.0797464
0.0754128
0.0686749
0.0604912
0.0513433
0.0418044
0.0326535
0.0244134
0.0174404
0.0118778
0.00768811
0.00472825
0.00276265
0.00153373
0.000809834
0.000407299
0.000195411
8.95121e-05
3.92297e-05
1.64704e-05
6.63444e-06
2.56791e-06
9.56499e-07
3.43368e-07
1.18966e-07
3.98342e-08
1.29068e-08
4.05164e-09
1.23364e-09
3.64708e-10
1.04794e-10
2.9293e-11
7.97252e-12
2.11436e-12
5.46803e-13
1.3799e-13
3.40019e-14
8.1855e-15
1.92622e-15
4.43296e-16
9.98174e-17
2.19999e-17
4.7479e-18
1.00369e-18
2.079e-19
4.22077e-20
8.40099e-21
1.63975e-21
3.13934e-22
5.89659e-23
1.08681e-23
1.96598e-24
3.491e-25
6.08612e-26
1.04187e-26
1.75161e-27
2.89247e-28
4.69208e-29
7.47793e-30
1.17103e-30
1.80209e-31
2.72556e-32
4.05182e-33
5.92114e-34
8.50678e-35
1.20163e-35
1.66904e-36
2.27976e-37
3.06252e-38
4.04645e-39
5.25913e-40
6.7241e-41
8.45809e-42
1.0468e-42
1.27481e-43
1.52775e-44
1.80185e-45
2.09163e-46
2.38991e-47
2.68909e-48
2.98236e-49
3.2602e-50
3.51285e-51
3.73086e-52
3.90565e-53
4.03009e-54
4.09896e-55
4.10934e-56
4.06083e-57
3.95555e-58
3.79798e-59
3.59471e-60
3.3539e-61
3.08477e-62
2.79702e-63
2.50025e-64
2.20343e-65
1.91453e-66
1.64015e-67
1.38542e-68
1.15392e-69
9.47713e-71
7.67547e-72
6.13023e-73
4.82845e-74
3.75074e-75
2.87356e-76
2.17138e-77
1.61838e-78
1.18979e-79
8.62835e-81
6.17255e-82
4.35613e-83
3.03286e-84
2.08323e-85
1.41179e-86
9.43997e-88
6.22803e-89
4.05441e-90
2.60444e-91
1.65092e-92
1.03269e-93
6.37478e-95
3.88343e-96
2.33469e-97
1.38519e-98
8.11072e-100
4.6868e-101
2.67268e-102
1.50405e-103
8.35191e-105
4.57613e-106
2.47352e-107
1.31889e-108
6.93412e-110
3.59453e-111
1.83551e-112
9.23346e-114
4.56656e-115
2.22183e-116
1.05925e-117
4.96674e-119
1.66513e-17
8.56118e-16
2.09029e-14
3.21504e-13
3.58055e-12
3.10452e-11
2.19447e-10
1.3055e-09
6.69412e-09
3.01474e-08
1.21087e-07
4.3928e-07
1.45473e-06
4.43719e-06
1.25608e-05
3.32118e-05
8.2462e-05
0.000193106
0.00042799
0.000900274
0.00180136
0.00343506
0.0062532
0.010883
0.0181335
0.028965
0.0444003
0.0653383
0.0922387
0.124765
0.161654
0.201006
0.240907
0.280415
0.312939
0.333784
0.345559
0.349968
0.340831
0.322926
0.296288
0.26461
0.23205
0.196856
0.160507
0.125405
0.0938421
0.0674752
0.046111
0.0298932
0.0184276
0.0107679
0.00597345
0.00314941
0.00158062
0.000756129
0.000345345
0.000150819
6.30766e-05
2.53028e-05
9.7509e-06
3.61552e-06
1.29183e-06
4.45431e-07
1.4842e-07
4.78528e-08
1.49472e-08
4.5284e-09
1.33208e-09
3.8085e-10
1.05929e-10
2.86875e-11
7.57062e-12
1.94828e-12
4.89268e-13
1.19975e-13
2.87429e-14
6.7313e-15
1.54172e-15
3.45494e-16
7.57853e-17
1.6278e-17
3.42481e-18
7.06039e-19
1.42661e-19
2.82606e-20
5.4899e-21
1.04605e-21
1.95542e-22
3.58684e-23
6.45721e-24
1.14108e-24
1.97968e-25
3.37246e-26
5.64201e-27
9.27077e-28
1.4964e-28
2.37293e-29
3.69724e-30
5.66078e-31
8.51781e-32
1.25973e-32
1.83136e-33
2.61732e-34
3.67764e-35
5.08105e-36
6.90319e-37
9.22354e-38
1.21209e-38
1.56676e-39
1.99221e-40
2.49214e-41
3.06726e-42
3.71456e-43
4.42669e-44
5.19161e-45
5.99256e-46
6.80838e-47
7.62221e-48
8.40982e-49
9.14444e-50
9.79925e-51
1.0349e-51
1.07716e-52
1.10495e-53
1.11711e-54
1.11312e-55
1.09317e-56
1.05815e-57
1.00954e-58
9.49367e-60
8.80016e-61
8.04094e-62
7.24269e-63
6.43109e-64
5.62961e-65
4.85845e-66
4.1339e-67
3.46802e-68
2.86867e-69
2.33978e-70
1.88183e-71
1.49251e-72
1.16735e-73
9.00434e-75
6.84993e-76
5.13951e-77
3.80345e-78
2.77633e-79
1.99903e-80
1.41985e-81
9.94849e-83
6.87669e-84
4.68951e-85
3.15513e-86
2.09443e-87
1.37179e-88
8.86537e-90
5.65339e-91
3.55743e-92
2.20897e-93
1.35356e-94
8.18486e-96
4.8842e-97
2.87625e-98
1.67151e-99
9.58579e-101
5.42472e-102
3.02917e-103
1.66896e-104
9.07134e-106
4.86367e-107
2.5714e-108
1.34042e-109
6.88429e-111
3.48331e-112
1.73386e-113
8.4924e-115
4.08337e-116
1.93242e-117
1.05239e-16
5.33913e-15
1.29997e-13
1.98632e-12
2.1935e-11
1.88222e-10
1.3141e-09
7.71125e-09
3.89896e-08
1.73199e-07
6.86557e-07
2.45964e-06
8.04823e-06
2.42648e-05
6.79006e-05
0.000177423
0.000435028
0.00100489
0.00219371
0.00453737
0.00891063
0.0166461
0.0296392
0.0504148
0.082146
0.128623
0.194168
0.283354
0.399651
0.500261
0.578879
0.654242
0.704878
0.739142
0.764462
0.781506
0.792752
0.797849
0.798682
0.790084
0.770959
0.738022
0.687934
0.623001
0.543985
0.453354
0.357537
0.270635
0.199442
0.137855
0.0903901
0.0563064
0.0330951
0.0184558
0.00975866
0.00490559
0.00234817
0.00107212
0.000467659
0.000195213
7.81098e-05
3.00091e-05
1.10884e-05
3.94677e-06
1.35529e-06
4.49638e-07
1.44317e-07
4.48691e-08
1.35289e-08
3.96044e-09
1.12676e-09
3.11844e-10
8.40313e-11
2.20645e-11
5.64963e-12
1.41161e-12
3.4439e-13
8.20877e-14
1.91262e-14
4.35826e-15
9.71683e-16
2.12051e-16
4.53129e-17
9.48463e-18
1.94523e-18
3.91023e-19
7.70596e-20
1.4892e-20
2.82281e-21
5.24928e-22
9.57847e-23
1.71533e-23
3.0153e-24
5.2037e-25
8.81777e-26
1.46735e-26
2.39823e-27
3.85027e-28
6.07277e-29
9.41082e-30
1.43306e-30
2.14458e-31
3.15436e-32
4.56051e-33
6.48175e-34
9.05714e-35
1.24437e-35
1.68117e-36
2.23366e-37
2.91877e-38
3.75149e-39
4.74314e-40
5.89962e-41
7.21962e-42
8.6931e-43
1.03001e-43
1.20101e-44
1.37827e-45
1.5579e-46
1.73516e-47
1.90433e-48
2.05946e-49
2.19469e-50
2.30468e-51
2.38493e-52
2.43205e-53
2.44407e-54
2.42051e-55
2.36245e-56
2.27245e-57
2.15434e-58
2.01297e-59
1.85388e-60
1.68291e-61
1.50589e-62
1.3283e-63
1.15502e-64
9.90124e-66
8.36787e-67
6.97242e-68
5.72815e-69
4.64008e-70
3.70626e-71
2.91919e-72
2.26739e-73
1.73678e-74
1.31201e-75
9.77507e-77
7.18314e-78
5.20641e-79
3.72229e-80
2.6251e-81
1.82628e-82
1.2534e-83
8.48648e-85
5.66893e-86
3.73616e-87
2.42949e-88
1.55878e-89
9.86843e-91
6.16476e-92
3.80015e-93
2.31158e-94
1.38755e-95
8.21898e-97
4.80421e-98
2.77108e-99
1.57722e-100
8.85773e-102
4.90817e-103
2.683e-104
1.44673e-105
7.69298e-107
4.03348e-108
2.08402e-109
1.06094e-110
5.31644e-112
2.62243e-113
1.27176e-114
6.07453e-116
4.80979e-16
2.4293e-14
5.914e-13
8.97988e-12
9.83134e-11
8.36016e-10
5.78724e-09
3.36955e-08
1.69087e-07
7.45196e-07
2.92856e-06
1.03927e-05
3.36558e-05
0.000100339
0.000277422
0.000715745
0.00173238
0.00395254
0.00853876
0.0175398
0.0343941
0.0646313
0.116858
0.204141
0.345439
0.506653
0.623342
0.72837
0.775514
0.816314
0.839218
0.853784
0.864668
0.86867
0.875032
0.884965
0.89395
0.905686
0.916553
0.926816
0.934999
0.940133
0.940195
0.932102
0.91401
0.880841
0.82573
0.73543
0.6096
0.466442
0.325916
0.220649
0.139122
0.0829856
0.0466755
0.0248646
0.0125638
0.00603544
0.00276137
0.00120544
0.000503009
0.00020101
7.70686e-05
2.84008e-05
1.00767e-05
3.44778e-06
1.13934e-06
3.64142e-07
1.1271e-07
3.38271e-08
9.85521e-09
2.79012e-09
7.68344e-10
2.05993e-10
5.38105e-11
1.37066e-11
3.40673e-12
8.26742e-13
1.9601e-13
4.54248e-14
1.0295e-14
2.28285e-15
4.95475e-16
1.05299e-16
2.19195e-17
4.47079e-18
8.93737e-19
1.75155e-19
3.36614e-20
6.34508e-21
1.17335e-21
2.12908e-22
3.79146e-23
6.62745e-24
1.13732e-24
1.91637e-25
3.171e-26
5.15343e-27
8.22682e-28
1.2902e-28
1.98804e-29
3.01011e-30
4.47897e-31
6.55024e-32
9.41598e-33
1.33059e-33
1.84859e-34
2.52517e-35
3.39186e-36
4.48045e-37
5.82079e-38
7.43802e-39
9.34943e-40
1.15612e-40
1.40654e-41
1.6837e-42
1.98326e-43
2.29896e-44
2.62417e-45
2.95101e-46
3.26949e-47
3.56887e-48
3.83823e-49
4.06716e-50
4.2464e-51
4.36847e-52
4.42821e-53
4.42313e-54
4.35357e-55
4.22271e-56
4.03628e-57
3.80216e-58
3.52986e-59
3.22984e-60
2.91285e-61
2.58933e-62
2.26887e-63
1.95975e-64
1.66872e-65
1.4008e-66
1.1593e-67
9.45938e-69
7.61022e-70
6.03696e-71
4.72221e-72
3.64248e-73
2.77073e-74
2.07852e-75
1.53779e-76
1.12213e-77
8.07622e-79
5.73342e-80
4.01492e-81
2.77342e-82
1.88994e-83
1.27055e-84
8.42677e-86
5.51408e-87
3.55995e-88
2.2677e-89
1.42531e-90
8.83958e-92
5.4095e-93
3.26659e-94
1.94647e-95
1.1445e-96
6.64041e-98
3.80169e-99
2.14753e-100
1.19691e-101
6.58104e-103
3.56941e-104
1.90927e-105
1.00703e-106
5.23537e-108
2.6822e-109
1.35335e-110
6.72464e-112
3.28886e-113
1.58548e-114
1.62116e-15
8.2948e-14
2.04116e-12
3.10404e-11
3.38884e-10
2.8685e-09
1.9759e-08
1.14442e-07
5.70795e-07
2.49786e-06
9.74021e-06
3.4286e-05
0.000110141
0.000325878
0.000895033
0.00229783
0.00555026
0.012694
0.0276664
0.0578198
0.116522
0.227447
0.431012
0.594414
0.708654
0.765017
0.798458
0.8133
0.817839
0.818523
0.812558
0.795703
0.77895
0.764892
0.759629
0.772449
0.795705
0.825773
0.862416
0.898412
0.929025
0.950601
0.964833
0.973573
0.977786
0.979932
0.975603
0.963228
0.937054
0.886775
0.792133
0.631831
0.445367
0.285461
0.173807
0.0991331
0.0533656
0.0271908
0.0131406
0.00603627
0.00264106
0.00110296
0.00044059
0.000168693
6.20311e-05
2.19469e-05
7.4842e-06
2.4639e-06
7.84248e-07
2.41679e-07
7.21992e-08
2.09336e-08
5.89713e-09
1.61568e-09
4.30908e-10
1.11967e-10
2.83664e-11
7.01185e-12
1.69221e-12
3.98957e-13
9.19352e-14
2.07175e-14
4.56762e-15
9.85645e-16
2.08254e-16
4.30986e-17
8.73912e-18
1.73674e-18
3.38364e-19
6.46433e-20
1.2113e-20
2.22672e-21
4.01652e-22
7.1102e-23
1.23549e-23
2.10761e-24
3.53022e-25
5.80679e-26
9.38105e-27
1.48869e-27
2.32084e-28
3.55491e-29
5.35061e-30
7.91434e-31
1.15056e-31
1.64413e-32
2.30957e-33
3.18964e-34
4.3312e-35
5.78323e-36
7.59397e-37
9.80715e-38
1.24575e-38
1.55658e-39
1.91339e-40
2.31399e-41
2.75349e-42
3.22407e-43
3.71672e-44
4.2205e-45
4.72094e-46
5.20199e-47
5.64674e-48
6.03845e-49
6.36158e-50
6.60281e-51
6.75198e-52
6.80276e-53
6.75315e-54
6.60556e-55
6.36667e-56
6.04688e-57
5.65961e-58
5.22031e-59
4.74548e-60
4.25166e-61
3.7545e-62
3.26797e-63
2.80388e-64
2.37146e-65
1.97727e-66
1.62529e-67
1.31714e-68
1.05241e-69
8.29118e-71
6.44082e-72
4.93379e-73
3.72697e-74
2.77642e-75
2.03981e-76
1.47804e-77
1.05633e-78
7.44629e-80
5.17766e-81
3.55136e-82
2.40293e-83
1.60396e-84
1.05624e-85
6.86227e-87
4.39868e-88
2.78189e-89
1.73593e-90
1.06883e-91
6.49353e-93
3.8927e-94
2.30261e-95
1.34397e-96
7.74016e-98
4.39831e-99
2.46591e-100
1.36391e-101
7.44172e-103
4.00465e-104
2.12518e-105
1.11184e-106
5.73355e-108
2.91327e-109
1.45842e-110
7.19262e-112
3.4991e-113
4.10577e-15
2.22988e-13
5.36406e-12
8.27025e-11
9.09812e-10
7.72868e-09
5.32589e-08
3.07803e-07
1.52918e-06
6.66064e-06
2.58538e-05
9.0649e-05
0.000290389
0.00085835
0.00236199
0.00610252
0.0149207
0.0348213
0.0781961
0.170307
0.362424
0.569765
0.681677
0.738013
0.761981
0.769962
0.771305
0.732799
0.665019
0.562444
0.467604
0.404547
0.363014
0.344435
0.339027
0.356265
0.389025
0.450322
0.536141
0.645219
0.764911
0.850504
0.916433
0.954945
0.975724
0.985865
0.990731
0.99287
0.992408
0.987376
0.97393
0.942719
0.872602
0.720938
0.504092
0.309933
0.180403
0.098481
0.0507077
0.024697
0.0114054
0.00500632
0.00209384
0.000836462
0.000319922
0.000117406
4.14261e-05
1.40801e-05
4.61783e-06
1.46372e-06
4.49051e-07
1.33515e-07
3.852e-08
1.07957e-08
2.94216e-09
7.8043e-10
2.01663e-10
5.08021e-11
1.24856e-11
2.99567e-12
7.02093e-13
1.60824e-13
3.60231e-14
7.8938e-15
1.69297e-15
3.55499e-16
7.31154e-17
1.47334e-17
2.90973e-18
5.63347e-19
1.06951e-19
1.99151e-20
3.638e-21
6.52097e-22
1.14713e-22
1.9808e-23
3.35789e-24
5.5893e-25
9.13639e-26
1.46682e-26
2.31326e-27
3.58398e-28
5.45574e-29
8.16089e-30
1.19968e-30
1.73333e-31
2.46168e-32
3.43683e-33
4.7174e-34
6.36661e-35
8.44916e-36
1.1027e-36
1.41542e-37
1.78701e-38
2.21934e-39
2.71153e-40
3.25938e-41
3.85496e-42
4.48841e-43
5.14687e-44
5.81283e-45
6.46611e-46
7.08474e-47
7.64619e-48
8.12871e-49
8.51271e-50
8.78213e-51
8.92553e-52
8.9369e-53
8.81609e-54
8.5688e-55
8.20611e-56
7.74371e-57
7.20071e-58
6.59837e-59
5.95873e-60
5.30332e-61
4.652e-62
4.02209e-63
3.4277e-64
2.87948e-65
2.38456e-66
1.94672e-67
1.56683e-68
1.24333e-69
9.72779e-71
7.5046e-72
5.70883e-73
4.28246e-74
3.16801e-75
2.31124e-76
1.663e-77
1.18016e-78
8.26074e-80
5.70346e-81
3.88436e-82
2.60964e-83
1.72956e-84
1.13085e-85
7.2946e-87
4.64237e-88
2.91496e-89
1.80589e-90
1.10389e-91
6.65799e-93
3.96229e-94
2.32668e-95
1.34806e-96
7.70639e-98
4.34659e-99
2.41865e-100
1.32767e-101
7.18866e-103
3.83873e-104
2.0213e-105
1.04931e-106
5.36955e-108
2.7084e-109
1.34679e-110
6.61071e-112
8.15108e-15
4.65055e-13
1.33215e-11
2.45634e-10
2.75335e-09
2.33047e-08
1.59215e-07
8.99314e-07
4.30202e-06
1.82889e-05
7.10432e-05
0.00024996
0.000789083
0.00220628
0.00551164
0.0136592
0.0343953
0.0831013
0.195625
0.432753
0.603063
0.688133
0.722334
0.733038
0.731393
0.675396
0.548734
0.388653
0.284039
0.224626
0.195186
0.181066
0.176275
0.176281
0.181038
0.18613
0.19218
0.202934
0.221748
0.263606
0.353536
0.524965
0.72298
0.849906
0.923652
0.96446
0.984469
0.993062
0.996281
0.997466
0.997292
0.994552
0.985836
0.961543
0.896491
0.731533
0.486272
0.286812
0.159005
0.0828733
0.040718
0.0189147
0.00833146
0.00348998
0.00139424
0.00053262
0.000195043
6.86187e-05
2.32402e-05
7.59146e-06
2.39567e-06
7.31487e-07
2.16404e-07
6.21085e-08
1.73125e-08
4.69185e-09
1.23742e-09
3.17875e-10
7.95988e-11
1.94439e-11
4.63632e-12
1.0798e-12
2.45773e-13
5.46979e-14
1.19084e-14
2.53732e-15
5.29301e-16
1.08143e-16
2.16472e-17
4.24672e-18
8.16722e-19
1.5402e-19
2.84883e-20
5.16941e-21
9.20425e-22
1.60839e-22
2.75887e-23
4.64596e-24
7.68233e-25
1.24752e-25
1.98975e-26
3.11748e-27
4.7986e-28
7.25744e-29
1.0786e-29
1.5754e-30
2.26162e-31
3.19149e-32
4.42745e-33
6.03868e-34
8.09842e-35
1.06799e-35
1.38511e-36
1.7668e-37
2.21674e-38
2.73594e-39
3.32197e-40
3.96845e-41
4.66662e-42
5.40375e-43
6.16195e-44
6.91973e-45
7.65289e-46
8.33572e-47
8.94254e-48
9.44921e-49
9.8348e-50
1.0083e-50
1.01832e-51
1.01314e-52
9.9304e-54
9.5895e-55
9.12386e-56
8.55336e-57
7.90116e-58
7.19224e-59
6.45175e-60
5.70365e-61
4.9695e-62
4.26755e-63
3.6122e-64
3.0138e-65
2.47871e-66
2.0097e-67
1.60639e-68
1.26591e-69
9.83587e-71
7.53528e-72
5.69226e-73
4.24022e-74
3.11482e-75
2.2565e-76
1.6122e-77
1.13606e-78
7.8959e-80
5.41301e-81
3.66043e-82
2.44173e-83
1.60677e-84
1.04307e-85
6.68032e-87
4.22099e-88
2.63135e-89
1.61846e-90
9.82179e-92
5.88102e-93
3.47448e-94
2.02536e-95
1.16488e-96
6.61025e-98
3.70076e-99
2.04398e-100
1.11362e-101
5.9845e-103
3.17178e-104
1.65774e-105
8.54374e-107
4.34219e-108
2.17687e-109
1.07789e-110
9.58279e-15
5.62219e-13
1.82503e-11
2.91109e-10
3.5043e-09
3.06155e-08
2.17625e-07
1.33509e-06
7.13942e-06
3.21587e-05
0.000123335
0.000416061
0.00126746
0.00371823
0.0111607
0.0324913
0.0790023
0.18804
0.411053
0.589491
0.670075
0.700877
0.710717
0.6882
0.599049
0.386419
0.26231
0.198006
0.167685
0.155603
0.151722
0.151048
0.154483
0.157984
0.164455
0.172836
0.179357
0.181809
0.179724
0.179871
0.188512
0.229512
0.34348
0.601718
0.793717
0.899046
0.954732
0.98154
0.993087
0.997322
0.998697
0.999123
0.998762
0.996488
0.988356
0.961845
0.879752
0.662806
0.40409
0.228398
0.120547
0.0597438
0.0279047
0.0123272
0.00516866
0.00206368
0.000786971
0.00028741
0.000100769
3.39925e-05
1.10541e-05
3.47151e-06
1.05452e-06
3.10284e-07
8.85507e-08
2.45394e-08
6.61054e-09
1.73274e-09
4.42319e-10
1.10051e-10
2.67073e-11
6.32608e-12
1.46345e-12
3.30833e-13
7.31225e-14
1.58093e-14
3.34494e-15
6.92868e-16
1.4056e-16
2.79367e-17
5.44158e-18
1.03905e-18
1.94551e-19
3.57286e-20
6.43705e-21
1.13799e-21
1.9745e-22
3.36295e-23
5.62346e-24
9.23366e-25
1.48901e-25
2.35848e-26
3.66976e-27
5.61004e-28
8.42695e-29
1.24394e-29
1.80467e-30
2.57345e-31
3.60738e-32
4.97131e-33
6.73587e-34
8.9743e-35
1.17579e-35
1.51504e-36
1.92007e-37
2.39357e-38
2.93529e-39
3.54133e-40
4.20551e-41
4.91722e-42
5.66094e-43
6.4172e-44
7.16325e-45
7.8741e-46
8.52392e-47
9.0875e-48
9.54193e-49
9.86814e-50
1.00522e-50
1.00864e-51
9.96963e-53
9.70767e-54
9.31248e-55
8.80141e-56
8.19595e-57
7.5202e-58
6.7993e-59
6.05796e-60
5.31912e-61
4.60284e-62
3.9256e-63
3.29993e-64
2.73428e-65
2.23328e-66
1.79816e-67
1.42731e-68
1.11695e-69
8.61788e-71
6.55598e-72
4.91775e-73
3.63754e-74
2.65328e-75
1.90859e-76
1.35399e-77
9.47356e-79
6.53767e-80
4.45005e-81
2.98784e-82
1.97886e-83
1.29288e-84
8.33304e-86
5.29862e-87
3.32392e-88
2.05721e-89
1.2562e-90
7.56834e-92
4.4989e-93
2.63864e-94
1.52694e-95
8.71808e-97
4.91101e-98
2.72931e-99
1.49639e-100
8.09324e-102
4.31778e-103
2.27217e-104
1.17945e-105
6.0398e-107
3.05237e-108
1.52439e-109
1.31336e-14
8.84879e-13
2.66208e-11
3.89613e-10
4.2106e-09
3.86455e-08
2.78389e-07
1.60232e-06
8.12139e-06
3.67759e-05
0.00014697
0.000530464
0.0017915
0.00571145
0.0164465
0.04546
0.128885
0.307559
0.535839
0.63953
0.678433
0.691726
0.66919
0.543306
0.336609
0.225129
0.174245
0.153534
0.145481
0.139132
0.132809
0.128175
0.126174
0.126989
0.138651
0.159795
0.18254
0.197932
0.206808
0.189057
0.176164
0.177961
0.202441
0.300465
0.574534
0.785794
0.90084
0.957505
0.98303
0.993702
0.997839
0.999238
0.999626
0.999625
0.999
0.996066
0.984469
0.942306
0.798219
0.517923
0.296552
0.158314
0.0790387
0.0370632
0.0163969
0.00687244
0.00273914
0.00104164
0.00037905
0.000132337
4.44302e-05
1.43742e-05
4.48946e-06
1.35589e-06
3.96571e-07
1.12475e-07
3.09705e-08
8.28843e-09
2.15802e-09
5.47124e-10
1.35182e-10
3.25747e-11
7.66067e-12
1.75935e-12
3.94807e-13
8.66161e-14
1.85868e-14
3.90298e-15
8.02338e-16
1.6153e-16
3.18592e-17
6.1581e-18
1.16686e-18
2.16806e-19
3.95109e-20
7.0641e-21
1.23933e-21
2.13402e-22
3.6072e-23
5.98658e-24
9.75651e-25
1.56165e-25
2.45531e-26
3.79248e-27
5.75556e-28
8.58324e-29
1.25795e-29
1.81204e-30
2.56576e-31
3.57145e-32
4.88764e-33
6.57688e-34
8.70253e-35
1.13244e-35
1.44933e-36
1.82447e-37
2.25923e-38
2.7522e-39
3.30007e-40
3.89546e-41
4.52693e-42
5.17941e-43
5.83461e-44
6.47171e-45
7.06847e-46
7.60244e-47
8.05234e-48
8.39953e-49
8.62927e-50
8.73174e-51
8.70281e-52
8.54421e-53
8.26348e-54
7.87327e-55
7.39048e-56
6.835e-57
6.22841e-58
5.59256e-59
4.94838e-60
4.31476e-61
3.70779e-62
3.14023e-63
2.62131e-64
2.15679e-65
1.74926e-66
1.39855e-67
1.1023e-68
8.56537e-70
6.562e-71
4.95669e-72
3.69177e-73
2.71135e-74
1.96366e-75
1.40248e-76
9.8786e-78
6.86253e-79
4.70199e-80
3.17766e-81
2.11826e-82
1.39288e-83
9.03499e-85
5.78148e-86
3.64973e-87
2.27305e-88
1.39667e-89
8.46692e-91
5.06424e-92
2.98858e-93
1.74013e-94
9.99687e-96
5.66642e-97
3.1689e-98
1.74846e-99
9.51786e-101
5.11163e-102
2.70845e-103
1.41602e-104
7.30597e-106
3.72165e-107
1.87427e-108
2.18152e-14
1.13363e-12
2.89833e-11
4.6175e-10
5.6933e-09
5.40997e-08
4.15016e-07
2.53993e-06
1.26862e-05
5.64456e-05
0.000233407
0.000892057
0.00313209
0.0098024
0.0278311
0.0747452
0.188824
0.40712
0.5774
0.647592
0.674378
0.675258
0.590185
0.390161
0.243992
0.178771
0.151076
0.13882
0.12161
0.102186
0.076663
0.0577352
0.0499006
0.0492886
0.0576354
0.075175
0.11535
0.179022
0.219416
0.234262
0.211046
0.180695
0.184106
0.214488
0.356803
0.646363
0.832917
0.92817
0.971092
0.989063
0.996079
0.998676
0.999591
0.999847
0.999863
0.999646
0.998377
0.99249
0.96794
0.873584
0.608331
0.353129
0.190199
0.0953897
0.0447904
0.0197989
0.00827879
0.00328835
0.0012452
0.000450928
0.000156593
5.22736e-05
1.68096e-05
5.21702e-06
1.56533e-06
4.54738e-07
1.28079e-07
3.50173e-08
9.3037e-09
2.40452e-09
6.05058e-10
1.48361e-10
3.5475e-11
8.2777e-12
1.88606e-12
4.19872e-13
9.13746e-14
1.94491e-14
4.05076e-15
8.25888e-16
1.64902e-16
3.22556e-17
6.18313e-18
1.1619e-18
2.14097e-19
3.86945e-20
6.86109e-21
1.19382e-21
2.03884e-22
3.41827e-23
5.62714e-24
9.09706e-25
1.44449e-25
2.25315e-26
3.45293e-27
5.19952e-28
7.69429e-29
1.11906e-29
1.59979e-30
2.24825e-31
3.10627e-32
4.21977e-33
5.6368e-34
7.40475e-35
9.56664e-36
1.21567e-36
1.51956e-37
1.86858e-38
2.2616e-39
2.69436e-40
3.15975e-41
3.64783e-42
4.14596e-43
4.63927e-44
5.11128e-45