/*--------------------------------*- C++ -*----------------------------------*\
  =========                 |
  \\      /  F ield         | OpenFOAM: The Open Source CFD Toolbox
   \\    /   O peration     | Website:  https://openfoam.org
    \\  /    A nd           | Version:  7
     \\/     M anipulation  |
\*---------------------------------------------------------------------------*/
FoamFile
{
    version     2.0;
    format      ascii;
    class       volVectorField;
    location    "0.017";
    object      U_0;
}
// * * * * * * * * * * * * * * * * * * * * * * * * * * * * * * * * * * * * * //

dimensions      [0 1 -1 0 0 0 0];

internalField   nonuniform List<vector> 
12225
(
(4.79982 0.1484 0)
(4.25884 0.0997253 0)
(3.78608 0.102967 0)
(3.36589 0.0943235 0)
(2.99501 0.0749052 0)
(2.67701 0.0571344 0)
(2.40005 0.0463334 0)
(2.1486 0.0404955 0)
(1.9181 0.0352249 0)
(1.71413 0.028248 0)
(1.54064 0.0201555 0)
(1.40579 0.0124892 0)
(1.29934 0.00615737 0)
(1.23292 0.00198136 0)
(1.1706 -0.00101357 0)
(1.15444 -0.00355154 0)
(1.10718 0.00129328 0)
(1.10806 -0.00390927 0)
(4.95184 0.0674544 0)
(4.83335 0.074316 0)
(4.73871 0.100643 0)
(4.64628 0.0968371 0)
(4.55865 0.0907345 0)
(4.46848 0.0878349 0)
(4.36736 0.087471 0)
(4.25145 0.0878568 0)
(4.12351 0.0862863 0)
(3.99577 0.081833 0)
(3.87494 0.0737027 0)
(3.77189 0.0631497 0)
(3.68076 0.0515447 0)
(3.61198 0.0401812 0)
(3.54625 0.0319618 0)
(3.5074 0.0241679 0)
(3.44868 0.0220892 0)
(3.41634 0.0159483 0)
(4.94908 0.176986 0)
(4.8714 0.0977486 0)
(4.84125 0.128391 0)
(4.80028 0.137683 0)
(4.75879 0.126017 0)
(4.72687 0.111483 0)
(4.70839 0.105743 0)
(4.69521 0.107836 0)
(4.67633 0.110224 0)
(4.64828 0.107695 0)
(4.61394 0.0980476 0)
(4.57983 0.083579 0)
(4.55069 0.0679694 0)
(4.529 0.0541195 0)
(4.51384 0.0430115 0)
(4.50192 0.0359549 0)
(4.49382 0.0361212 0)
(4.47504 0.0318919 0)
(5.06326 0.16285 0)
(4.92999 0.102531 0)
(4.8254 0.123019 0)
(4.77911 0.13268 0)
(4.76108 0.119672 0)
(4.74647 0.103082 0)
(4.73262 0.0962378 0)
(4.72078 0.098648 0)
(4.71054 0.103001 0)
(4.70138 0.102961 0)
(4.69399 0.0961858 0)
(4.68862 0.0835493 0)
(4.68652 0.0683571 0)
(4.68733 0.052822 0)
(4.69196 0.0405416 0)
(4.69703 0.0326043 0)
(4.70432 0.0298156 0)
(4.70776 0.0285494 0)
(5.14503 0.239937 0)
(4.95096 0.145638 0)
(4.86137 0.140061 0)
(4.83264 0.149421 0)
(4.82942 0.138598 0)
(4.81235 0.121285 0)
(4.77966 0.112548 0)
(4.74877 0.11252 0)
(4.73132 0.11366 0)
(4.72748 0.109789 0)
(4.73133 0.0991865 0)
(4.7364 0.0833054 0)
(4.74001 0.065713 0)
(4.74211 0.0493738 0)
(4.74409 0.0371612 0)
(4.74592 0.0298382 0)
(4.74883 0.0282125 0)
(4.74987 0.0305877 0)
(5.04703 0.261525 0)
(4.90468 0.184628 0)
(4.82106 0.145698 0)
(4.82899 0.139574 0)
(4.8592 0.129775 0)
(4.86187 0.120658 0)
(4.8444 0.116486 0)
(4.8275 0.114259 0)
(4.81921 0.111032 0)
(4.81664 0.105419 0)
(4.81405 0.0967074 0)
(4.80757 0.0844931 0)
(4.79774 0.0699255 0)
(4.787 0.0545962 0)
(4.77849 0.0411181 0)
(4.77233 0.0318661 0)
(4.77024 0.0277008 0)
(4.7681 0.0287653 0)
(5.04625 0.280532 0)
(5.02854 0.210562 0)
(4.97098 0.152015 0)
(4.93778 0.137339 0)
(4.92603 0.135692 0)
(4.91658 0.132369 0)
(4.90919 0.127635 0)
(4.90353 0.12299 0)
(4.8947 0.117999 0)
(4.88061 0.111154 0)
(4.86478 0.101243 0)
(4.85226 0.0878751 0)
(4.8471 0.0721666 0)
(4.84957 0.0559859 0)
(4.85724 0.0421995 0)
(4.86429 0.0327508 0)
(4.86932 0.0288238 0)
(4.86571 0.0302056 0)
(4.99209 0.241298 0)
(5.04396 0.208718 0)
(4.98804 0.168957 0)
(4.93924 0.14912 0)
(4.93293 0.138019 0)
(4.94129 0.127534 0)
(4.94338 0.119522 0)
(4.93267 0.117022 0)
(4.91168 0.118888 0)
(4.88873 0.119407 0)
(4.87306 0.112662 0)
(4.86951 0.0967736 0)
(4.87795 0.0746794 0)
(4.89413 0.0518869 0)
(4.91213 0.0343995 0)
(4.92565 0.0252965 0)
(4.9317 0.0260296 0)
(4.92715 0.034039 0)
(4.9571 0.244808 0)
(4.9312 0.210357 0)
(4.9104 0.180402 0)
(4.88937 0.150853 0)
(4.8805 0.134833 0)
(4.88181 0.130206 0)
(4.88343 0.133466 0)
(4.8796 0.13824 0)
(4.87379 0.137701 0)
(4.87308 0.127641 0)
(4.88109 0.107833 0)
(4.89514 0.0818953 0)
(4.91014 0.0555002 0)
(4.92109 0.0342983 0)
(4.92543 0.0222669 0)
(4.92296 0.020326 0)
(4.9143 0.0277017 0)
(4.90288 0.040716 0)
(4.87145 0.275409 0)
(4.8931 0.221948 0)
(4.91162 0.180324 0)
(4.91288 0.156832 0)
(4.90972 0.141787 0)
(4.91552 0.128975 0)
(4.92861 0.12178 0)
(4.93804 0.120725 0)
(4.93912 0.120991 0)
(4.93573 0.116495 0)
(4.93306 0.103968 0)
(4.93174 0.0847737 0)
(4.92927 0.0635296 0)
(4.92261 0.0458045 0)
(4.91096 0.0354536 0)
(4.89605 0.0341166 0)
(4.88036 0.0405419 0)
(4.8685 0.0521432 0)
(4.96746 0.258894 0)
(4.96042 0.212822 0)
(4.97981 0.170737 0)
(4.97263 0.150353 0)
(4.95625 0.132248 0)
(4.94216 0.12114 0)
(4.93083 0.124141 0)
(4.92176 0.134405 0)
(4.9179 0.138791 0)
(4.92189 0.129519 0)
(4.93158 0.108027 0)
(4.94044 0.0818197 0)
(4.94246 0.058833 0)
(4.93509 0.0442458 0)
(4.92026 0.0386164 0)
(4.90148 0.0405353 0)
(4.88462 0.0466141 0)
(4.87147 0.0542568 0)
(4.92184 0.270777 0)
(4.99543 0.200271 0)
(5.02203 0.167186 0)
(5.01966 0.163699 0)
(4.99746 0.154727 0)
(4.96939 0.141654 0)
(4.949 0.132731 0)
(4.94137 0.127631 0)
(4.94452 0.121234 0)
(4.95303 0.110208 0)
(4.96113 0.0954047 0)
(4.96517 0.0802856 0)
(4.96511 0.068161 0)
(4.96224 0.0610616 0)
(4.95926 0.0588727 0)
(4.95519 0.060183 0)
(4.95349 0.063234 0)
(4.94937 0.0659296 0)
(4.999 0.242049 0)
(5.00603 0.184666 0)
(4.97298 0.170149 0)
(4.95559 0.160993 0)
(4.957 0.148787 0)
(4.95896 0.140491 0)
(4.95118 0.139274 0)
(4.93638 0.13958 0)
(4.92267 0.134144 0)
(4.91603 0.120277 0)
(4.91812 0.100213 0)
(4.9272 0.0784466 0)
(4.94075 0.059671 0)
(4.95586 0.0470399 0)
(4.97093 0.0419255 0)
(4.98321 0.0429586 0)
(4.99393 0.0483211 0)
(5.00016 0.0546778 0)
(5.06099 0.204987 0)
(5.04749 0.198435 0)
(5.01513 0.192143 0)
(4.99515 0.173939 0)
(4.98349 0.157904 0)
(4.97425 0.149164 0)
(4.96992 0.145157 0)
(4.97174 0.139806 0)
(4.97845 0.127901 0)
(4.9883 0.108613 0)
(4.99965 0.085211 0)
(5.01087 0.0631256 0)
(5.02109 0.0470528 0)
(5.02971 0.0394459 0)
(5.03621 0.0398481 0)
(5.04029 0.0451537 0)
(5.0419 0.0524743 0)
(5.04164 0.057956 0)
(5.04266 0.29915 0)
(5.01816 0.242088 0)
(5.01105 0.208223 0)
(5.00893 0.177629 0)
(5.01895 0.155598 0)
(5.03068 0.145969 0)
(5.03397 0.143449 0)
(5.02577 0.139451 0)
(5.01006 0.128593 0)
(4.99332 0.11035 0)
(4.98033 0.0874863 0)
(4.97214 0.0643417 0)
(4.96869 0.0452477 0)
(4.96861 0.0335608 0)
(4.97127 0.030389 0)
(4.97521 0.0344748 0)
(4.9803 0.0431627 0)
(4.98634 0.0529794 0)
(5.04007 0.344329 0)
(5.0308 0.269218 0)
(5.03191 0.184903 0)
(5.02406 0.150787 0)
(5.01429 0.134308 0)
(5.00948 0.132274 0)
(5.0142 0.143635 0)
(5.02653 0.154499 0)
(5.04135 0.151562 0)
(5.05451 0.131822 0)
(5.06337 0.1017 0)
(5.06588 0.0712696 0)
(5.06179 0.0484371 0)
(5.05195 0.036832 0)
(5.03964 0.0345226 0)
(5.02815 0.0379332 0)
(5.02147 0.0419809 0)
(5.02097 0.0439862 0)
(5.04765 0.382165 0)
(5.06364 0.266076 0)
(5.06772 0.204234 0)
(5.04582 0.196914 0)
(5.02212 0.183048 0)
(5.01104 0.157593 0)
(5.01283 0.132674 0)
(5.02324 0.113721 0)
(5.03741 0.0993471 0)
(5.05028 0.0872646 0)
(5.05748 0.0774825 0)
(5.05666 0.0712773 0)
(5.04913 0.0686621 0)
(5.03832 0.0677702 0)
(5.02932 0.0657409 0)
(5.02457 0.0609305 0)
(5.02708 0.0519922 0)
(5.03474 0.0405734 0)
(5.02743 0.288806 0)
(5.02221 0.248254 0)
(5.02222 0.231525 0)
(5.0149 0.200194 0)
(5.01521 0.156617 0)
(5.02124 0.126916 0)
(5.02509 0.118371 0)
(5.02723 0.118426 0)
(5.02904 0.113889 0)
(5.03117 0.102465 0)
(5.03466 0.0897017 0)
(5.04004 0.080213 0)
(5.04784 0.0738581 0)
(5.05834 0.0669703 0)
(5.07188 0.0558875 0)
(5.08756 0.0403527 0)
(5.10486 0.0210367 0)
(5.12131 0.0026401 0)
(5.01271 0.210161 0)
(5.01892 0.224797 0)
(5.02605 0.229789 0)
(5.03459 0.207725 0)
(5.03156 0.182441 0)
(5.02258 0.158937 0)
(5.02084 0.136116 0)
(5.02675 0.11413 0)
(5.03289 0.0936409 0)
(5.03635 0.0750653 0)
(5.03963 0.0582547 0)
(5.04573 0.0424852 0)
(5.05605 0.0269392 0)
(5.07017 0.0115374 0)
(5.08604 -0.0034738 0)
(5.10067 -0.0171359 0)
(5.11208 -0.0290085 0)
(5.118 -0.0385172 0)
(5.02255 0.27972 0)
(5.01667 0.232237 0)
(5.04103 0.213399 0)
(5.05251 0.201596 0)
(5.06967 0.171395 0)
(5.07899 0.136523 0)
(5.07943 0.113123 0)
(5.07907 0.103444 0)
(5.08224 0.0991782 0)
(5.09119 0.091208 0)
(5.10677 0.0748737 0)
(5.12697 0.0510799 0)
(5.14824 0.0248096 0)
(5.16748 0.00199445 0)
(5.18373 -0.0131682 0)
(5.19584 -0.0206691 0)
(5.20445 -0.0218774 0)
(5.20852 -0.0206107 0)
(4.9136 0.253213 0)
(4.9729 0.206925 0)
(5.01298 0.178609 0)
(5.04849 0.165536 0)
(5.07631 0.157295 0)
(5.08841 0.145918 0)
(5.09186 0.127673 0)
(5.09593 0.101333 0)
(5.1032 0.0686221 0)
(5.11458 0.0335165 0)
(5.1295 0.00122946 0)
(5.14578 -0.0240966 0)
(5.16216 -0.0420427 0)
(5.17707 -0.0533621 0)
(5.1888 -0.058477 0)
(5.19658 -0.0584092 0)
(5.20101 -0.0543561 0)
(5.20324 -0.0478576 0)
(5.02165 0.227729 0)
(5.01701 0.190442 0)
(5.00932 0.148041 0)
(5.02128 0.128079 0)
(5.0531 0.125818 0)
(5.08256 0.121558 0)
(5.10699 0.112369 0)
(5.1313 0.0995346 0)
(5.15446 0.0824633 0)
(5.17547 0.0596797 0)
(5.19515 0.0311318 0)
(5.21073 0.000713727 0)
(5.21934 -0.0241173 0)
(5.22216 -0.0390049 0)
(5.2215 -0.0436697 0)
(5.21857 -0.0408288 0)
(5.21542 -0.0342357 0)
(5.21331 -0.0288435 0)
(4.94492 0.298649 0)
(4.99556 0.208646 0)
(5.03294 0.151849 0)
(5.05999 0.129476 0)
(5.09695 0.114411 0)
(5.13798 0.0935746 0)
(5.17802 0.0681206 0)
(5.21149 0.0406934 0)
(5.23281 0.0122689 0)
(5.23978 -0.0151251 0)
(5.23474 -0.0381396 0)
(5.22527 -0.0533407 0)
(5.21822 -0.0605416 0)
(5.21595 -0.060963 0)
(5.22079 -0.0570549 0)
(5.23223 -0.0519753 0)
(5.24948 -0.0479241 0)
(5.26856 -0.0462968 0)
(4.98556 0.280106 0)
(5.01932 0.1559 0)
(5.06053 0.10559 0)
(5.12182 0.0881169 0)
(5.1907 0.0732646 0)
(5.24312 0.0595845 0)
(5.27518 0.053132 0)
(5.29468 0.055211 0)
(5.30712 0.059035 0)
(5.31461 0.0550382 0)
(5.31874 0.0397151 0)
(5.31789 0.0156269 0)
(5.31209 -0.0120356 0)
(5.30536 -0.0381676 0)
(5.30039 -0.0586942 0)
(5.29753 -0.0718782 0)
(5.29704 -0.077631 0)
(5.29784 -0.0761189 0)
(4.98418 0.279011 0)
(5.01948 0.142338 0)
(5.09435 0.0644786 0)
(5.16455 0.0375126 0)
(5.21359 0.0268842 0)
(5.23489 0.0200323 0)
(5.24544 0.0142188 0)
(5.26385 0.00565923 0)
(5.29279 -0.00697298 0)
(5.32544 -0.0203603 0)
(5.35484 -0.0320069 0)
(5.37751 -0.0421769 0)
(5.39338 -0.0493074 0)
(5.40299 -0.0535773 0)
(5.40781 -0.0557912 0)
(5.40899 -0.0568612 0)
(5.40822 -0.057287 0)
(5.40643 -0.0582318 0)
(5.03113 0.247797 0)
(5.11114 0.120959 0)
(5.21589 0.05026 0)
(5.27222 0.0373267 0)
(5.29872 0.0415179 0)
(5.32172 0.0414955 0)
(5.34964 0.0350691 0)
(5.37659 0.0253916 0)
(5.39356 0.015338 0)
(5.39802 0.00583275 0)
(5.39525 -0.00480541 0)
(5.39338 -0.0173857 0)
(5.39741 -0.0318057 0)
(5.40714 -0.0458953 0)
(5.42055 -0.05713 0)
(5.43495 -0.064386 0)
(5.44912 -0.0676218 0)
(5.46192 -0.0678599 0)
(5.02021 0.154436 0)
(5.1452 0.0294184 0)
(5.2269 -0.00939478 0)
(5.24841 -0.00398871 0)
(5.26864 -0.00730598 0)
(5.30573 -0.0169951 0)
(5.34814 -0.0224512 0)
(5.38515 -0.0209454 0)
(5.41553 -0.0177856 0)
(5.44288 -0.0201934 0)
(5.46948 -0.0306278 0)
(5.49358 -0.0464372 0)
(5.51171 -0.0629525 0)
(5.52118 -0.0759535 0)
(5.52234 -0.0835627 0)
(5.51807 -0.0864939 0)
(5.51224 -0.0862261 0)
(5.50849 -0.0849896 0)
(5.01433 0.156216 0)
(5.15854 0.0659137 0)
(5.25459 0.03822 0)
(5.28155 0.0227314 0)
(5.30491 0.00732503 0)
(5.3486 -0.00236628 0)
(5.40224 -0.00662376 0)
(5.45448 -0.0097191 0)
(5.49896 -0.0150788 0)
(5.53378 -0.0232589 0)
(5.55942 -0.032521 0)
(5.57729 -0.0406463 0)
(5.58878 -0.0462578 0)
(5.59501 -0.049543 0)
(5.59725 -0.0518167 0)
(5.59716 -0.0546675 0)
(5.59635 -0.0593955 0)
(5.59565 -0.0657796 0)
(4.99256 0.0249647 0)
(5.19403 -0.0468116 0)
(5.33784 -0.0239681 0)
(5.41081 -0.0284052 0)
(5.45466 -0.0461866 0)
(5.48196 -0.0630232 0)
(5.49271 -0.0695397 0)
(5.49607 -0.0655625 0)
(5.50271 -0.0573536 0)
(5.51586 -0.0532155 0)
(5.53074 -0.0571165 0)
(5.53978 -0.0668713 0)
(5.53692 -0.0772417 0)
(5.52068 -0.0841494 0)
(5.49172 -0.0862688 0)
(5.45435 -0.0847499 0)
(5.41139 -0.0815634 0)
(5.3692 -0.0790385 0)
(5.00682 0.0819648 0)
(5.14558 -0.000286857 0)
(5.11213 -0.0143575 0)
(4.99089 -0.0257694 0)
(4.86107 -0.0249378 0)
(4.73572 -0.0176178 0)
(4.6149 -0.0129201 0)
(4.50056 -0.015885 0)
(4.39058 -0.0250619 0)
(4.27808 -0.0351533 0)
(4.15673 -0.0409713 0)
(4.02667 -0.0401011 0)
(3.89443 -0.0335997 0)
(3.76909 -0.0250886 0)
(3.655 -0.0187397 0)
(3.55301 -0.0166262 0)
(3.45802 -0.0190458 0)
(3.36679 -0.0245474 0)
(-0.00820581 0.00661715 -1.32602e-20)
(-0.0394834 0.0122208 1.31656e-20)
(-0.0731103 0.0153575 0)
(-0.109079 0.0196845 0)
(-0.148881 0.0251729 0)
(-0.192917 0.0314659 -1.27836e-20)
(-0.241631 0.0382105 0)
(-0.295178 0.0450805 0)
(-0.353579 0.0518393 0)
(-0.416765 0.0583266 0)
(-0.484596 0.0644539 1.23249e-20)
(-0.556898 0.0701582 0)
(-0.633447 0.0753805 0)
(-0.713978 0.0800607 0)
(-0.798179 0.0841434 0)
(-0.88571 0.0875844 1.18895e-20)
(-0.976175 0.0903573 0)
(-1.06904 0.0924473 0)
(-1.16362 0.0937963 0)
(-1.25922 0.0943362 0)
(-1.35506 0.0939979 0)
(-1.45028 0.0927188 0)
(-1.54393 0.0904466 0)
(-1.635 0.0871389 1.12339e-20)
(-1.72237 0.0827649 -1.11522e-20)
(-1.80488 0.0773136 1.10695e-20)
(-1.88132 0.0708 1.09853e-20)
(-1.95044 0.06327 0)
(-2.01103 0.0548087 0)
(-2.06195 0.0455322 -1.07196e-20)
(-2.1021 0.0355817 -1.06253e-20)
(-2.13057 0.0251365 0)
(-2.14654 0.0144339 0)
(-2.14911 0.00375684 -1.03204e-20)
(-2.13868 -0.00669323 0)
(-2.11504 -0.0168721 0)
(-2.07838 -0.0266689 9.98072e-21)
(-2.02903 -0.0359735 0)
(-1.96754 -0.044653 9.73846e-21)
(-1.89463 -0.0525888 1.92281e-20)
(-1.81119 -0.0596816 0)
(-1.71822 -0.0658576 0)
(-1.61685 -0.0710703 0)
(-1.50824 -0.0752997 0)
(-1.39364 -0.0785552 0)
(-1.27425 -0.0808714 1.77222e-20)
(-1.15124 -0.0822944 1.74799e-20)
(-1.02572 -0.0829027 1.72423e-20)
(-0.898814 -0.08278 0)
(-0.771399 -0.081931 -1.67835e-20)
(-0.644297 -0.0805373 0)
(-0.518413 -0.0786723 1.63482e-20)
(-0.39433 -0.0763899 1.61396e-20)
(-0.272571 -0.0738248 0)
(-0.153744 -0.0709385 0)
(-0.0386398 -0.0679365 0)
(0.0726907 -0.0648009 1.53577e-20)
(0.180404 -0.0615624 0)
(0.284152 -0.0582814 0)
(0.383773 -0.0549981 0)
(0.479181 -0.0517435 0)
(0.570338 -0.048543 0)
(0.657244 -0.0454167 0)
(0.739933 -0.0423808 0)
(0.818461 -0.0394476 0)
(0.892906 -0.0366266 -1.38273e-20)
(0.963361 -0.0339248 0)
(1.02993 -0.0313468 0)
(1.09274 -0.0288956 1.33776e-20)
(1.1519 -0.0265726 1.32324e-20)
(1.20755 -0.0243779 0)
(1.25982 -0.0223107 -1.2948e-20)
(1.30885 -0.0203692 1.28086e-20)
(1.35478 -0.0185508 0)
(1.39774 -0.0168525 -1.25345e-20)
(1.43788 -0.0152707 0)
(1.47532 -0.0138013 0)
(1.51022 -0.01244 1.2134e-20)
(1.54269 -0.0111823 0)
(1.57287 -0.0100232 -1.18733e-20)
(1.60089 -0.00895792 0)
(1.62687 -0.00798122 1.16169e-20)
(1.65092 -0.00708791 1.14903e-20)
(1.67317 -0.00627267 1.13647e-20)
(1.69372 -0.00553017 2.24799e-20)
(1.71268 -0.00485518 -2.22323e-20)
(1.73016 -0.00424284 0)
(1.74625 -0.00368865 0)
(1.76104 -0.00318832 0)
(1.77463 -0.00273777 -2.12594e-20)
(1.78709 -0.00233303 -2.10204e-20)
(1.7985 -0.00197026 2.07829e-20)
(1.80895 -0.00164599 0)
(1.81849 -0.00135673 -2.03126e-20)
(1.8272 -0.00109918 -2.00798e-20)
(1.83513 -0.000870646 -1.98485e-20)
(1.84235 -0.00066811 0)
(1.84891 -0.000488675 0)
(1.85486 -0.000330761 0)
(1.86024 -0.000191384 -1.89381e-20)
(1.8651 -6.83751e-05 0)
(1.86947 3.85405e-05 0)
(1.8734 0.000133795 1.82705e-20)
(1.87692 0.000216856 0)
(1.88006 0.000288487 0)
(1.88285 0.000355784 1.76157e-20)
(1.88531 0.000412619 0)
(1.88748 0.000468127 0)
(1.88934 0.000529835 -1.69734e-20)
(1.89091 0.000592604 -1.67621e-20)
(1.89222 0.000653554 0)
(1.89328 0.000715845 1.63435e-20)
(1.89409 0.000775651 0)
(1.89469 0.00082328 -1.59303e-20)
(1.89509 0.000863399 0)
(1.8953 0.000901871 -1.55223e-20)
(1.89533 0.000937515 -1.53204e-20)
(1.8952 0.00096697 0)
(1.89492 0.000987139 0)
(1.89452 0.000995427 0)
(1.89401 0.000991671 0)
(1.89341 0.00097835 0)
(1.89274 0.000959178 0)
(1.89202 0.0009376 0)
(1.89125 0.000915981 -1.37505e-20)
(1.89042 0.000895406 1.35599e-20)
(1.88955 0.00087613 0)
(1.88864 0.000858004 0)
(1.88768 0.000840887 0)
(1.88669 0.000824693 0)
(1.88565 0.000809453 2.52499e-20)
(1.88457 0.000795186 0)
(1.88346 0.000781933 -2.45185e-20)
(1.88232 0.000769678 2.41563e-20)
(1.88114 0.000758412 0)
(1.87993 0.000748085 0)
(1.8787 0.000738668 0)
(1.87743 0.000730105 -2.27299e-20)
(1.87614 0.000722358 -2.23789e-20)
(1.87482 0.000715363 0)
(1.87347 0.000709071 -2.16833e-20)
(1.8721 0.000703432 -2.13386e-20)
(1.8707 0.000698412 2.09961e-20)
(1.86928 0.000693992 0)
(1.86783 0.000690166 0)
(1.86636 0.000686923 1.99811e-20)
(1.86486 0.000684251 0)
(1.86334 0.000682143 0)
(1.8618 0.000680612 0)
(1.86022 0.000679692 0)
(1.85863 0.000679429 -1.83295e-20)
(1.857 0.000679896 -1.80051e-20)
(1.85534 0.000681177 0)
(1.85366 0.000683409 -1.73619e-20)
(1.85194 0.000686733 0)
(1.85018 0.000691413 0)
(1.84838 0.000697609 -1.6411e-20)
(1.84653 0.000705889 0)
(1.84463 0.000716248 -1.57861e-20)
(1.84267 0.000730117 0)
(1.84063 0.000746699 0)
(1.83851 0.00076956 -1.48617e-20)
(1.83627 0.000795971 0)
(1.83394 0.00083301 -1.42538e-20)
(1.83138 0.000876694 0)
(1.82873 0.000934571 0)
(1.82565 0.00101199 0)
(1.82253 0.00109851 1.3057e-20)
(1.81857 0.00124524 0)
(1.8147 0.00136773 -1.24674e-20)
(1.80922 0.00166983 0)
(1.80406 0.00181412 0)
(1.79595 0.00251327 0)
(1.78804 0.00256416 0)
(1.77561 0.00438352 0)
(1.76046 0.00385838 0)
(1.74195 0.00927319 0)
(1.70304 0.0063898 2.02921e-20)
(1.67979 0.0262368 0)
(1.54798 0.0201197 0)
(-0.0208338 0.0996061 3.97802e-20)
(-0.0914472 0.12965 -3.9491e-20)
(-0.160153 0.134777 0)
(-0.230309 0.143234 2.59384e-20)
(-0.301509 0.153089 0)
(-0.373851 0.163844 1.27751e-20)
(-0.447318 0.174871 -2.53679e-20)
(-0.521962 0.185785 -2.51819e-20)
(-0.597836 0.19634 0)
(-0.675012 0.206391 -2.48161e-20)
(-0.753522 0.215825 -1.23134e-20)
(-0.833378 0.224535 0)
(-0.914539 0.23241 0)
(-0.996922 0.239328 0)
(-1.08038 0.245159 0)
(-1.16473 0.249769 -1.18782e-20)
(-1.24971 0.253028 0)
(-1.33506 0.254809 2.34415e-20)
(-1.42046 0.254952 0)
(-1.50552 0.253285 0)
(-1.58974 0.249635 -2.29589e-20)
(-1.67253 0.243827 0)
(-1.75321 0.235697 2.26418e-20)
(-1.831 0.225093 -1.12264e-20)
(-1.90503 0.211889 1.11453e-20)
(-1.97437 0.196001 -1.10632e-20)
(-2.038 0.177403 -1.09797e-20)
(-2.09488 0.156139 0)
(-2.14395 0.132336 0)
(-2.18419 0.106204 1.07159e-20)
(-2.21462 0.0780438 -1.06638e-20)
(-2.2344 0.0482469 0)
(-2.24281 0.0172917 0)
(-2.23931 -0.0142682 1.03185e-20)
(-2.22264 -0.045871 0)
(-2.19268 -0.0770062 0)
(-2.14937 -0.107153 -9.97847e-21)
(-2.09305 -0.135833 0)
(-2.02424 -0.162608 9.76753e-21)
(-1.9437 -0.187099 -1.92233e-20)
(-1.85237 -0.209005 0)
(-1.75132 -0.2281 0)
(-1.64174 -0.244249 -3.69735e-20)
(-1.52487 -0.257404 -3.64649e-20)
(-1.40199 -0.267594 -3.59612e-20)
(-1.27437 -0.27491 1.77463e-20)
(-1.14317 -0.279506 -1.74761e-20)
(-1.00955 -0.281612 -5.17378e-20)
(-0.874579 -0.281456 3.40322e-20)
(-0.739153 -0.279235 1.67808e-20)
(-0.604172 -0.27532 0)
(-0.47044 -0.269834 -1.63463e-20)
(-0.338552 -0.263176 1.61488e-20)
(-0.208878 -0.255533 0)
(-0.0821035 -0.247019 0)
(0.0409099 -0.238052 0)
(0.160375 -0.228644 -1.53522e-20)
(0.276392 -0.218934 0)
(0.388554 -0.209069 2.99701e-20)
(0.496743 -0.199164 0)
(0.600892 -0.18931 2.92673e-20)
(0.700974 -0.179579 0)
(0.796996 -0.17003 -2.85982e-20)
(0.88899 -0.160708 0)
(0.977012 -0.151649 2.79578e-20)
(1.06113 -0.142881 -1.38254e-20)
(1.14144 -0.134423 0)
(1.21803 -0.126289 -2.70419e-20)
(1.291 -0.118489 -1.33718e-20)
(1.36047 -0.111027 -1.32265e-20)
(1.42654 -0.103905 0)
(1.48933 -0.0971227 -1.29447e-20)
(1.54897 -0.0906757 -1.28025e-20)
(1.60556 -0.0845592 0)
(1.65922 -0.0787664 1.25283e-20)
(1.71008 -0.0732895 -2.4789e-20)
(1.75823 -0.0681198 0)
(1.8038 -0.0632479 -1.21277e-20)
(1.8469 -0.0586636 0)
(1.88762 -0.0543565 3.56022e-20)
(1.92608 -0.0503157 0)
(1.96238 -0.0465303 -3.48327e-20)
(1.99662 -0.0429891 -1.14838e-20)
(2.02889 -0.0396805 1.13594e-20)
(2.05928 -0.0365933 2.24691e-20)
(2.08789 -0.0337159 -2.22214e-20)
(2.1148 -0.0310374 0)
(2.1401 -0.0285469 0)
(2.16387 -0.026234 0)
(2.18618 -0.0240886 6.37403e-20)
(2.20711 -0.0221006 2.10071e-20)
(2.22674 -0.0202606 -2.07697e-20)
(2.24513 -0.0185591 0)
(2.26235 -0.0169873 -2.03008e-20)
(2.27846 -0.0155365 2.00668e-20)
(2.29353 -0.0141984 1.98355e-20)
(2.30761 -0.0129655 0)
(2.32076 -0.0118297 0)
(2.33304 -0.0107846 0)
(2.34449 -0.0098233 1.89255e-20)
(2.35517 -0.00893893 0)
(2.36511 -0.00812673 -3.69593e-20)
(2.37437 -0.00737987 -5.47756e-20)
(2.38298 -0.00669337 3.60782e-20)
(2.39099 -0.00606332 0)
(2.39842 -0.00548177 1.76045e-20)
(2.40533 -0.00494765 0)
(2.41173 -0.00445286 3.43498e-20)
(2.41769 -0.00399165 -1.69625e-20)
(2.42323 -0.00356578 -1.67513e-20)
(2.42838 -0.00317497 0)
(2.43318 -0.00281848 -4.89982e-20)
(2.43764 -0.00249358 3.22513e-20)
(2.44177 -0.0021908 1.59197e-20)
(2.4456 -0.00191004 0)
(2.44916 -0.00165382 1.55121e-20)
(2.45246 -0.00141853 4.5931e-20)
(2.45551 -0.00120508 0)
(2.45835 -0.00101413 2.98211e-20)
(2.46098 -0.000847058 2.94252e-20)
(2.46342 -0.00070378 2.90318e-20)
(2.46568 -0.000581909 0)
(2.46777 -0.000477399 0)
(2.46972 -0.000385689 0)
(2.47152 -0.000302716 -1.37418e-20)
(2.47318 -0.000225754 -1.35512e-20)
(2.4747 -0.000153372 0)
(2.4761 -8.5195e-05 -2.63479e-20)
(2.47738 -2.12744e-05 -2.59743e-20)
(2.47853 3.81732e-05 0)
(2.47958 9.31066e-05 -2.52341e-20)
(2.48052 0.000143574 -4.97352e-20)
(2.48136 0.000189813 2.45033e-20)
(2.48211 0.000232068 2.41415e-20)
(2.48278 0.000270674 0)
(2.48336 0.00030591 0)
(2.48388 0.000338104 0)
(2.48432 0.000367522 2.27162e-20)
(2.4847 0.000394448 -2.23655e-20)
(2.48502 0.000419115 -4.40337e-20)
(2.48528 0.000441753 2.16703e-20)
(2.4855 0.000462569 -2.13261e-20)
(2.48567 0.000481758 -2.09838e-20)
(2.48579 0.00049952 0)
(2.48587 0.00051605 0)
(2.48592 0.000531549 1.99696e-20)
(2.48592 0.000546207 0)
(2.4859 0.000560224 0)
(2.48584 0.000573807 -3.7947e-20)
(2.48575 0.000587195 0)
(2.48563 0.000600645 -1.83193e-20)
(2.48548 0.00061446 1.79951e-20)
(2.48531 0.000628976 0)
(2.4851 0.000644612 -1.73524e-20)
(2.48487 0.000661844 0)
(2.48461 0.000681304 0)
(2.48431 0.000703673 1.64021e-20)
(2.48398 0.00072996 -3.21781e-20)
(2.48361 0.000761148 1.57777e-20)
(2.48319 0.000798894 0)
(2.48273 0.000844836 0)
(2.4822 0.000901244 -1.4854e-20)
(2.4816 0.000972204 0)
(2.4809 0.00105807 -1.42465e-20)
(2.48009 0.00117323 0)
(2.47914 0.00130372 0)
(2.47801 0.00150137 0)
(2.47666 0.00169544 -1.30504e-20)
(2.475 0.00205738 0)
(2.47296 0.00233035 1.24611e-20)
(2.47045 0.00304766 0)
(2.46715 0.00337949 0)
(2.46323 0.00494013 -2.31741e-20)
(2.45744 0.00517905 2.25955e-20)
(2.45121 0.00892445 0)
(2.43978 0.00852974 0)
(2.43012 0.0185996 0)
(2.4043 0.0165838 -6.08612e-20)
(2.39143 0.0482404 0)
(2.32924 0.0486669 3.82871e-20)
(-0.0224394 0.240011 1.61453e-23)
(-0.100161 0.296305 5.26607e-20)
(-0.173453 0.299015 0)
(-0.247958 0.305697 -5.18787e-20)
(-0.321741 0.313286 0)
(-0.395309 0.32183 0)
(-0.468645 0.33082 -1.70813e-23)
(-0.542116 0.340128 2.51749e-20)
(-0.615917 0.349595 2.50093e-20)
(-0.690322 0.359028 2.48095e-20)
(-0.765566 0.368255 0)
(-0.841884 0.37709 0)
(-0.919464 0.38533 -2.42999e-20)
(-0.998455 0.392769 -4.8257e-20)
(-1.07893 0.399185 4.79191e-20)
(-1.16092 0.404331 0)
(-1.24434 0.407929 4.72576e-20)
(-1.32908 0.409666 -2.34364e-20)
(-1.41494 0.40922 0)
(-1.50158 0.406255 4.62977e-20)
(-1.58858 0.400423 2.29538e-20)
(-1.67534 0.391375 -4.56733e-20)
(-1.76112 0.378767 -2.26365e-20)
(-1.84504 0.362281 0)
(-1.92605 0.341635 4.47392e-20)
(-2.00298 0.316617 4.44223e-20)
(-2.07453 0.287106 0)
(-2.13934 0.253098 4.37678e-20)
(-2.19598 0.214727 0)
(-2.24306 0.172285 4.30711e-20)
(-2.27928 0.126233 2.12812e-20)
(-2.30349 0.0771789 0)
(-2.31472 0.0258595 0)
(-2.31206 -0.0268969 0)
(-2.2949 -0.0801273 0)
(-2.26312 -0.132787 0)
(-2.2169 -0.18388 0)
(-2.15674 -0.232476 3.9608e-20)
(-2.08334 -0.277773 -5.86016e-20)
(-1.99765 -0.319098 0)
(-1.90077 -0.355923 0)
(-1.79396 -0.387872 0)
(-1.6786 -0.414728 -7.27144e-23)
(-1.55608 -0.436436 3.64522e-20)
(-1.42782 -0.453071 7.19538e-20)
(-1.29519 -0.464822 -7.09539e-20)
(-1.15949 -0.471987 -3.50074e-20)
(-1.02193 -0.474947 3.44876e-20)
(-0.883594 -0.474104 3.19299e-23)
(-0.74541 -0.469943 3.35947e-20)
(-0.608171 -0.462928 0)
(-0.472722 -0.453461 3.27165e-20)
(-0.339679 -0.442023 1.88558e-23)
(-0.20922 -0.428946 0)
(-0.0821319 -0.41469 0)
(0.0408803 -0.399671 -3.11036e-20)
(0.16016 -0.383902 0)
(0.275747 -0.36775 0)
(0.387315 -0.351412 2.9985e-20)
(0.494792 -0.33506 5.9236e-20)
(0.598155 -0.318833 -2.92616e-20)
(0.697412 -0.302845 0)
(0.7926 -0.287187 2.85932e-20)
(0.88378 -0.271929 0)
(0.971031 -0.257124 2.79679e-20)
(1.05444 -0.242813 2.76431e-20)
(1.13412 -0.229023 -5.46892e-20)
(1.21017 -0.215774 -2.70505e-20)
(1.28271 -0.203075 0)
(1.35185 -0.190931 5.29171e-20)
(1.41772 -0.179341 0)
(1.48044 -0.168301 7.76624e-20)
(1.54012 -0.1578 5.12194e-20)
(1.59688 -0.147829 5.06674e-20)
(1.65085 -0.138374 -5.01216e-20)
(1.70213 -0.12942 7.43688e-20)
(1.75083 -0.120951 0)
(1.79708 -0.11295 0)
(1.84096 -0.105401 -4.79932e-20)
(1.88257 -0.0982835 -7.12074e-20)
(1.92203 -0.0915816 0)
(1.95942 -0.0852769 2.32211e-20)
(1.99484 -0.0793517 0)
(2.02836 -0.0737885 -6.81532e-20)
(2.06008 -0.0685701 3.8733e-24)
(2.09008 -0.0636797 -3.60724e-24)
(2.11843 -0.0591007 4.39501e-20)
(2.14521 -0.0548169 0)
(2.17049 -0.0508126 -4.29766e-20)
(2.19434 -0.0470726 2.69972e-24)
(2.21684 -0.0435821 0)
(2.23804 -0.0403269 0)
(2.258 -0.0372934 0)
(2.2768 -0.0344684 4.05985e-20)
(2.29447 -0.0318394 0)
(2.31109 -0.0293944 0)
(2.3267 -0.027122 0)
(2.34136 -0.0250111 0)
(2.35511 -0.0230517 0)
(2.368 -0.0212334 3.78513e-20)
(2.38008 -0.0195472 0)
(2.39139 -0.0179844 3.69574e-20)
(2.40197 -0.0165361 3.65155e-20)
(2.41187 -0.0151947 -3.60763e-20)
(2.42112 -0.0139521 0)
(2.42976 -0.0128021 -3.52066e-20)
(2.43783 -0.0117365 0)
(2.44535 -0.0107509 -3.4348e-20)
(2.45236 -0.0098408 3.39229e-20)
(2.45889 -0.00900121 1.00503e-19)
(2.46497 -0.00822658 0)
(2.47063 -0.00751182 9.79927e-20)
(2.4759 -0.00685163 3.22506e-20)
(2.48081 -0.00623642 0)
(2.48538 -0.00566463 6.28591e-20)
(2.48964 -0.00513835 6.20464e-20)
(2.4936 -0.00465743 -9.18581e-20)
(2.49729 -0.00421993 0)
(2.50071 -0.00382352 -2.98195e-20)
(2.5039 -0.00346899 -2.94236e-20)
(2.50685 -0.00315476 -8.70912e-20)
(2.50959 -0.00287641 0)
(2.51212 -0.00262735 0)
(2.51446 -0.0024002 0)
(2.51663 -0.00218857 -2.74822e-20)
(2.51863 -0.00198831 0)
(2.52047 -0.00179757 0)
(2.52218 -0.00161624 2.63465e-20)
(2.52375 -0.00144496 2.59728e-20)
(2.52519 -0.00128447 0)
(2.52652 -0.00113519 0)
(2.52775 -0.000997127 4.97323e-20)
(2.52887 -0.000869943 0)
(2.52991 -0.000753101 -4.82801e-20)
(2.53086 -0.00064593 -4.7561e-20)
(2.53173 -0.000547746 0)
(2.53252 -0.000457843 0)
(2.53325 -0.000375561 4.543e-20)
(2.53391 -0.000300263 -1.48362e-25)
(2.53452 -0.000231366 -1.36447e-25)
(2.53508 -0.000168315 0)
(2.53558 -0.000110584 8.52995e-20)
(2.53604 -5.76706e-05 0)
(2.53645 -9.08892e-06 0)
(2.53683 3.5623e-05 0)
(2.53717 7.6912e-05 -3.99368e-20)
(2.53748 0.00011521 0)
(2.53776 0.000150951 7.72098e-20)
(2.538 0.000184581 3.79448e-20)
(2.53822 0.00021657 0)
(2.53841 0.000247424 3.66365e-20)
(2.53858 0.000277683 0)
(2.53872 0.000307969 0)
(2.53884 0.000338946 1.04109e-19)
(2.53894 0.000371482 -6.81316e-20)
(2.53901 0.00040643 0)
(2.53905 0.000445134 -6.56051e-20)
(2.53907 0.000488649 3.21763e-20)
(2.53905 0.000539375 0)
(2.539 0.000598261 0)
(2.5389 0.000670419 0)
(2.53876 0.000754905 8.91189e-20)
(2.53855 0.000864541 0)
(2.53827 0.000989905 2.84914e-20)
(2.5379 0.00116573 0)
(2.5374 0.00135476 0)
(2.53679 0.00165069 0)
(2.53592 0.00193611 0)
(2.53491 0.00246137 0)
(2.53343 0.00288341 0)
(2.53178 0.0038773 4.86733e-20)
(2.52921 0.00447421 0)
(2.5265 0.00649568 2.31727e-20)
(2.52191 0.0072896 -6.77854e-20)
(2.51738 0.0117621 0)
(2.50895 0.0128124 0)
(2.5013 0.0237868 4.17387e-20)
(2.48595 0.0263804 4.05761e-20)
(2.47392 0.0563783 -3.94495e-20)
(2.45216 0.0683893 -3.82824e-20)
(-0.0199829 0.365437 -7.96357e-20)
(-0.0931871 0.448655 -7.90506e-20)
(-0.161778 0.449351 -5.23253e-20)
(-0.23214 0.454517 -2.59942e-20)
(-0.301907 0.460382 0)
(-0.37206 0.467589 5.11748e-20)
(-0.442466 0.475993 -2.54262e-20)
(-0.513458 0.485341 0)
(-0.585311 0.495288 -2.50061e-20)
(-0.658435 0.505706 0)
(-0.733109 0.516384 4.935e-20)
(-0.809587 0.527065 0)
(-0.888048 0.537473 2.42966e-20)
(-0.968649 0.547282 4.82501e-20)
(-1.05151 0.556134 -4.79117e-20)
(-1.13673 0.563643 0)
(-1.2243 0.569378 -4.7249e-20)
(-1.31413 0.57287 0)
(-1.40601 0.573623 0)
(-1.49958 0.571097 -4.62867e-20)
(-1.59431 0.564717 0)
(-1.68955 0.553876 -1.16631e-22)
(-1.78443 0.537961 0)
(-1.87793 0.516385 0)
(-1.96884 0.488617 1.49926e-22)
(-2.05577 0.454233 -4.44074e-20)
(-2.13717 0.412954 -4.42574e-20)
(-2.21138 0.364704 -4.37528e-20)
(-2.27667 0.309648 0)
(-2.33132 0.248226 -8.63161e-20)
(-2.37374 0.181154 0)
(-2.4025 0.109427 -4.25155e-20)
(-2.41643 0.0342603 0)
(-2.41457 -0.0429253 0)
(-2.39627 -0.120613 4.12343e-20)
(-2.36147 -0.197286 0)
(-2.31045 -0.27146 -4.02732e-20)
(-2.24388 -0.341768 1.75541e-22)
(-2.16274 -0.407007 7.83405e-20)
(-2.06828 -0.466191 -7.74508e-20)
(-1.96194 -0.518567 0)
(-1.84526 -0.563622 0)
(-1.71993 -0.601086 -3.7233e-20)
(-1.58761 -0.630928 0)
(-1.44997 -0.653325 -3.5992e-20)
(-1.30855 -0.668636 3.54892e-20)
(-1.16479 -0.677362 3.49959e-20)
(-1.02001 -0.680094 0)
(-0.875345 -0.677477 -3.40433e-20)
(-0.731765 -0.670238 -3.35854e-20)
(-0.590032 -0.659079 6.63509e-20)
(-0.450891 -0.644629 -3.27084e-20)
(-0.314866 -0.627498 -3.22892e-20)
(-0.18222 -0.608259 0)
(-0.0537122 -0.587582 0)
(0.0703974 -0.565869 3.10948e-20)
(0.19044 -0.543279 0)
(0.306271 -0.520265 0)
(0.417774 -0.497095 -5.99316e-20)
(0.524929 -0.473993 -5.922e-20)
(0.627757 -0.451139 0)
(0.726312 -0.428679 0)
(0.820666 -0.406729 0)
(0.91091 -0.385377 0)
(0.997148 -0.36469 -5.59096e-20)
(1.07949 -0.344717 5.53077e-20)
(1.15806 -0.325491 5.46788e-20)
(1.23298 -0.307031 1.08176e-19)
(1.30438 -0.289349 0)
(1.37238 -0.272446 1.4832e-23)
(1.43711 -0.256318 0)
(1.49871 -0.240953 -5.17707e-20)
(1.55729 -0.226339 1.21843e-23)
(1.61298 -0.212457 -5.06611e-20)
(1.6659 -0.199287 5.01157e-20)