/*--------------------------------*- C++ -*----------------------------------*\
  =========                 |
  \\      /  F ield         | OpenFOAM: The Open Source CFD Toolbox
   \\    /   O peration     | Website:  https://openfoam.org
    \\  /    A nd           | Version:  7
     \\/     M anipulation  |
\*---------------------------------------------------------------------------*/
FoamFile
{
    version     2.0;
    format      ascii;
    class       volVectorField;
    location    "0.017";
    object      UMean;
}
// * * * * * * * * * * * * * * * * * * * * * * * * * * * * * * * * * * * * * //

dimensions      [0 1 -1 0 0 0 0];

internalField   nonuniform List<vector> 
12225
(
(4.79604 0.16186 0)
(4.22952 0.107501 0)
(3.79638 0.0922054 0)
(3.46227 0.0736296 0)
(3.1804 0.0583225 0)
(2.93717 0.0468781 0)
(2.73196 0.0364333 0)
(2.56599 0.0273433 0)
(2.44279 0.0171941 0)
(2.35542 0.0105811 0)
(2.31115 0.000610429 0)
(2.28787 -0.0002362 0)
(2.31009 -0.0143929 0)
(2.33316 -0.00314655 0)
(2.41313 -0.0360528 0)
(2.48176 0.00525378 0)
(2.62862 -0.0915046 0)
(2.81137 0.00767994 0)
(5.01929 0.111663 0)
(4.8951 0.0691546 0)
(4.79133 0.0809012 0)
(4.71621 0.0759123 0)
(4.64578 0.0694336 0)
(4.57478 0.0639022 0)
(4.50415 0.0582875 0)
(4.44104 0.049545 0)
(4.38641 0.0407497 0)
(4.3478 0.0275061 0)
(4.31986 0.0183469 0)
(4.31342 0.00156447 0)
(4.31402 -0.00399214 0)
(4.34476 -0.0270169 0)
(4.37362 -0.0265156 0)
(4.45275 -0.0666917 0)
(4.51866 -0.074133 0)
(4.66078 -0.172623 0)
(5.00877 0.167763 0)
(4.9089 0.116065 0)
(4.83904 0.119067 0)
(4.81394 0.108002 0)
(4.80786 0.0942408 0)
(4.80643 0.0837146 0)
(4.80677 0.073396 0)
(4.80873 0.0627339 0)
(4.81372 0.0484084 0)
(4.82132 0.035003 0)
(4.83397 0.0165682 0)
(4.85048 0.0040406 0)
(4.87552 -0.0185797 0)
(4.90624 -0.0279985 0)
(4.95049 -0.0608957 0)
(5.00356 -0.0741604 0)
(5.07334 -0.135242 0)
(5.15064 -0.203536 0)
(4.98587 0.18251 0)
(4.9075 0.111625 0)
(4.84105 0.10511 0)
(4.81456 0.0947079 0)
(4.81168 0.0807134 0)
(4.81744 0.0688005 0)
(4.82728 0.0588474 0)
(4.84123 0.0474693 0)
(4.85887 0.0349648 0)
(4.88021 0.0195579 0)
(4.90435 0.00450437 0)
(4.93237 -0.013837 0)
(4.96425 -0.0305652 0)
(5.00199 -0.0533749 0)
(5.0468 -0.0764022 0)
(5.09879 -0.112113 0)
(5.15988 -0.161539 0)
(5.21859 -0.233113 0)
(4.98983 0.212119 0)
(4.93196 0.135918 0)
(4.87097 0.120753 0)
(4.84025 0.108903 0)
(4.83324 0.0919657 0)
(4.8361 0.076266 0)
(4.8437 0.0623675 0)
(4.85569 0.0487708 0)
(4.87227 0.0332282 0)
(4.89281 0.0167703 0)
(4.91691 -0.00199884 0)
(4.94432 -0.0208315 0)
(4.97581 -0.0430366 0)
(5.01189 -0.0665632 0)
(5.05362 -0.096776 0)
(5.10027 -0.135376 0)
(5.15072 -0.186651 0)
(5.19669 -0.262231 0)
(4.98277 0.224153 0)
(4.94477 0.145768 0)
(4.89394 0.12175 0)
(4.86384 0.107605 0)
(4.85555 0.0894739 0)
(4.85774 0.0712853 0)
(4.86438 0.0551195 0)
(4.87465 0.0394562 0)
(4.88904 0.022918 0)
(4.90732 0.00471536 0)
(4.92931 -0.0149648 0)
(4.95459 -0.0364836 0)
(4.98386 -0.060137 0)
(5.01673 -0.0873041 0)
(5.05426 -0.120062 0)
(5.09416 -0.161102 0)
(5.13568 -0.214362 0)
(5.17143 -0.282599 0)
(5.01738 0.241922 0)
(4.99149 0.164521 0)
(4.94586 0.132243 0)
(4.91369 0.114243 0)
(4.90228 0.0944848 0)
(4.90274 0.074139 0)
(4.90799 0.0552825 0)
(4.91625 0.0373967 0)
(4.92811 0.0188732 0)
(4.94373 -0.00103999 0)
(4.96314 -0.0226198 0)
(4.98578 -0.0461211 0)
(5.01196 -0.0721192 0)
(5.04084 -0.102072 0)
(5.07291 -0.137109 0)
(5.10548 -0.180296 0)
(5.13816 -0.232452 0)
(5.16423 -0.296044 0)
(5.01037 0.24933 0)
(4.99936 0.176609 0)
(4.96449 0.138623 0)
(4.93643 0.116381 0)
(4.92604 0.0952169 0)
(4.92725 0.0733644 0)
(4.93312 0.052474 0)
(4.94148 0.0324672 0)
(4.95296 0.0121534 0)
(4.96797 -0.00954444 0)
(4.98654 -0.0330243 0)
(5.00783 -0.0586044 0)
(5.03182 -0.0867461 0)
(5.05744 -0.118613 0)
(5.08492 -0.155335 0)
(5.11167 -0.198837 0)
(5.13747 -0.249562 0)
(5.15676 -0.308732 0)
(5.01158 0.256 0)
(5.01007 0.188003 0)
(4.98448 0.145733 0)
(4.96038 0.119102 0)
(4.95082 0.0961255 0)
(4.9526 0.072881 0)
(4.95936 0.0499862 0)
(4.96843 0.0277154 0)
(4.97991 0.0053252 0)
(4.99411 -0.0181068 0)
(5.01109 -0.043099 0)
(5.03018 -0.0701913 0)
(5.05122 -0.099779 0)
(5.07314 -0.132906 0)
(5.09596 -0.170348 0)
(5.11745 -0.213478 0)
(5.13739 -0.262321 0)
(5.15158 -0.317259 0)
(5.00527 0.262839 0)
(5.01161 0.198801 0)
(4.99372 0.153961 0)
(4.97357 0.123325 0)
(4.96486 0.097824 0)
(4.9665 0.0729484 0)
(4.97302 0.0484045 0)
(4.98144 0.0243868 0)
(4.99165 0.000322081 0)
(5.00409 -0.0246581 0)
(5.01889 -0.0511538 0)
(5.03545 -0.0796858 0)
(5.05345 -0.110667 0)
(5.07194 -0.144887 0)
(5.09062 -0.182851 0)
(5.10776 -0.225408 0)
(5.12288 -0.272305 0)
(5.13321 -0.323563 0)
(4.99493 0.261237 0)
(5.00308 0.201544 0)
(4.98889 0.156406 0)
(4.97096 0.12324 0)
(4.96236 0.095728 0)
(4.96334 0.0696603 0)
(4.96952 0.0438966 0)
(4.97793 0.018254 0)
(4.9879 -0.00748547 0)
(4.99948 -0.033981 0)
(5.01279 -0.0617593 0)
(5.02729 -0.0913341 0)
(5.04269 -0.123094 0)
(5.05803 -0.15767 0)
(5.07312 -0.195394 0)
(5.08634 -0.236797 0)
(5.09767 -0.281449 0)
(5.1045 -0.329241 0)
(5.01558 0.269423 0)
(5.02488 0.210332 0)
(5.01279 0.164467 0)
(4.99572 0.128721 0)
(4.98635 0.0985087 0)
(4.98584 0.0704304 0)
(4.99055 0.0430449 0)
(4.99759 0.0160004 0)
(5.00601 -0.0110549 0)
(5.01567 -0.0386591 0)
(5.02669 -0.067354 0)
(5.03859 -0.0977115 0)
(5.05113 -0.130091 0)
(5.06331 -0.164962 0)
(5.07491 -0.202459 0)
(5.08437 -0.24286 0)
(5.09195 -0.285642 0)
(5.09532 -0.330679 0)
(4.99698 0.27043 0)
(5.01165 0.213577 0)
(5.00541 0.167323 0)
(4.99329 0.129715 0)
(4.98694 0.097608 0)
(4.98762 0.068065 0)
(4.99257 0.0393531 0)
(4.99949 0.0109107 0)
(5.00761 -0.0175235 0)
(5.01676 -0.0463034 0)
(5.02693 -0.0759044 0)
(5.03756 -0.106825 0)
(5.04832 -0.139362 0)
(5.05814 -0.173915 0)
(5.06694 -0.210499 0)
(5.07331 -0.249349 0)
(5.07782 -0.289889 0)
(5.07832 -0.332179 0)
(5.01398 0.269401 0)
(5.02861 0.218514 0)
(5.02366 0.172378 0)
(5.01254 0.133021 0)
(5.00644 0.0990115 0)
(5.00673 0.0678661 0)
(5.01085 0.0378852 0)
(5.01663 0.00829065 0)
(5.02321 -0.0211605 0)
(5.03024 -0.0508019 0)
(5.03776 -0.0809596 0)
(5.0453 -0.112093 0)
(5.05275 -0.144472 0)
(5.05916 -0.178448 0)
(5.06465 -0.213972 0)
(5.06778 -0.251214 0)
(5.06946 -0.289575 0)
(5.06745 -0.329138 0)
(5.01559 0.271516 0)
(5.03133 0.219835 0)
(5.02894 0.173183 0)
(5.02092 0.13256 0)
(5.01664 0.0968559 0)
(5.0171 0.0641351 0)
(5.02032 0.0328815 0)
(5.02474 0.00228112 0)
(5.02982 -0.0280497 0)
(5.03536 -0.0584147 0)
(5.0413 -0.0890509 0)
(5.04716 -0.120284 0)
(5.0527 -0.152264 0)
(5.05705 -0.185278 0)
(5.06029 -0.219217 0)
(5.06128 -0.2543 0)
(5.06085 -0.289923 0)
(5.05717 -0.326374 0)
(5.01562 0.278851 0)
(5.03551 0.225204 0)
(5.03661 0.178792 0)
(5.03077 0.137765 0)
(5.02796 0.100676 0)
(5.02931 0.0663911 0)
(5.03273 0.0337531 0)
(5.03659 0.00190804 0)
(5.04025 -0.0294947 0)
(5.04349 -0.0606159 0)
(5.04636 -0.0915457 0)
(5.04863 -0.122541 0)
(5.05033 -0.153746 0)
(5.05091 -0.185466 0)
(5.05052 -0.2176 0)
(5.04827 -0.250358 0)
(5.0449 -0.283199 0)
(5.03893 -0.316422 0)
(5.00496 0.266891 0)
(5.02596 0.218597 0)
(5.02846 0.173735 0)
(5.024 0.132152 0)
(5.0225 0.0937864 0)
(5.02489 0.0583929 0)
(5.02879 0.0253015 0)
(5.03253 -0.00629222 0)
(5.03559 -0.0369953 0)
(5.03785 -0.0672148 0)
(5.03942 -0.0971442 0)
(5.04008 -0.127027 0)
(5.03993 -0.156915 0)
(5.0385 -0.187021 0)
(5.03607 -0.217108 0)
(5.0318 -0.247354 0)
(5.02656 -0.277138 0)
(5.01881 -0.306934 0)
(5.02712 0.272056 0)
(5.04549 0.223704 0)
(5.04787 0.177246 0)
(5.04487 0.134189 0)
(5.04489 0.0951804 0)
(5.0479 0.0597127 0)
(5.0515 0.0267617 0)
(5.05426 -0.00455669 0)
(5.0559 -0.0347213 0)
(5.05649 -0.064005 0)
(5.0562 -0.0925667 0)
(5.05481 -0.12066 0)
(5.05238 -0.14836 0)
(5.04844 -0.175852 0)
(5.04333 -0.202913 0)
(5.03635 -0.229714 0)
(5.02841 -0.25574 0)
(5.01819 -0.281469 0)
(5.01278 0.273592 0)
(5.03439 0.220783 0)
(5.03985 0.171301 0)
(5.03962 0.126541 0)
(5.04206 0.0864758 0)
(5.04729 0.0502932 0)
(5.05263 0.0171033 0)
(5.05642 -0.0138406 0)
(5.05841 -0.0430167 0)
(5.05878 -0.0707555 0)
(5.05778 -0.0972445 0)
(5.05532 -0.122721 0)
(5.05148 -0.147254 0)
(5.046 -0.171064 0)
(5.03917 -0.194045 0)
(5.03062 -0.216481 0)
(5.0211 -0.238016 0)
(5.00982 -0.259205 0)
(5.00624 0.269616 0)
(5.03066 0.214064 0)
(5.04003 0.163242 0)
(5.04426 0.118355 0)
(5.05025 0.0794885 0)
(5.0573 0.0457082 0)
(5.06305 0.0157004 0)
(5.06655 -0.0116853 0)
(5.068 -0.0372403 0)
(5.06778 -0.0614416 0)
(5.06605 -0.0844757 0)
(5.06266 -0.106463 0)
(5.05764 -0.127415 0)
(5.05084 -0.147492 0)
(5.04263 -0.166698 0)
(5.03278 -0.185321 0)
(5.02199 -0.203162 0)
(5.00963 -0.220683 0)
(4.99589 0.264146 0)
(5.02243 0.203132 0)
(5.03567 0.149821 0)
(5.04473 0.104931 0)
(5.05519 0.0668856 0)
(5.06578 0.0335939 0)
(5.07414 0.00365193 0)
(5.07936 -0.023469 0)
(5.08169 -0.0479045 0)
(5.0816 -0.0699161 0)
(5.07952 -0.0899266 0)
(5.07553 -0.108471 0)
(5.06988 -0.125894 0)
(5.06249 -0.142513 0)
(5.0538 -0.158372 0)
(5.04356 -0.173748 0)
(5.03257 -0.188442 0)
(5.02007 -0.202887 0)
(5.00948 0.263607 0)
(5.03914 0.192925 0)
(5.05838 0.136465 0)
(5.07346 0.0934824 0)
(5.08779 0.0597982 0)
(5.10003 0.031602 0)
(5.10896 0.00663436 0)
(5.11477 -0.01617 0)
(5.11801 -0.0371591 0)
(5.11885 -0.0564876 0)
(5.11737 -0.0742733 0)
(5.11354 -0.0907059 0)
(5.10779 -0.105983 0)
(5.10025 -0.1204 0)
(5.09146 -0.134083 0)
(5.0812 -0.147278 0)
(5.07029 -0.159914 0)
(5.0579 -0.172267 0)
(5.01694 0.255875 0)
(5.05663 0.174499 0)
(5.08726 0.114248 0)
(5.11156 0.0708605 0)
(5.13187 0.0371207 0)
(5.1473 0.00850016 0)
(5.15734 -0.0163927 0)
(5.16277 -0.0376077 0)
(5.16478 -0.0555428 0)
(5.16417 -0.0710669 0)
(5.16146 -0.0850035 0)
(5.15683 -0.0979344 0)
(5.15054 -0.110121 0)
(5.14264 -0.121768 0)
(5.13347 -0.132893 0)
(5.12283 -0.143672 0)
(5.11127 -0.153951 0)
(5.09826 -0.163997 0)
(4.99637 0.243101 0)
(5.04624 0.154848 0)
(5.08865 0.099392 0)
(5.11987 0.0658157 0)
(5.14193 0.0411069 0)
(5.15726 0.0186625 0)
(5.16818 -0.00222066 0)
(5.17591 -0.0208706 0)
(5.18042 -0.0371348 0)
(5.18151 -0.0515039 0)
(5.17951 -0.0645414 0)
(5.1749 -0.0765873 0)
(5.16841 -0.087734 0)
(5.16026 -0.0980722 0)
(5.15091 -0.107666 0)
(5.14016 -0.116723 0)
(5.12867 -0.125261 0)
(5.11585 -0.133533 0)
(5.02733 0.224709 0)
(5.09227 0.117533 0)
(5.15144 0.0587731 0)
(5.19119 0.0266239 0)
(5.21494 0.00253224 0)
(5.22965 -0.018613 0)
(5.24011 -0.0360367 0)
(5.24761 -0.0497955 0)
(5.25189 -0.061145 0)
(5.25255 -0.0712563 0)
(5.24991 -0.0806636 0)
(5.24453 -0.0894852 0)
(5.2371 -0.0977277 0)
(5.22788 -0.105514 0)
(5.21736 -0.112898 0)
(5.20544 -0.120029 0)
(5.1928 -0.126831 0)
(5.17895 -0.133488 0)
(5.02296 0.210676 0)
(5.11052 0.105999 0)
(5.18677 0.066477 0)
(5.23202 0.0463875 0)
(5.25644 0.024568 0)
(5.27273 0.00283927 0)
(5.2857 -0.0147379 0)
(5.29494 -0.0277626 0)
(5.29953 -0.0381386 0)
(5.29978 -0.0473973 0)
(5.29673 -0.0560353 0)
(5.29123 -0.0640786 0)
(5.28384 -0.0714997 0)
(5.27465 -0.0783968 0)
(5.26403 -0.0848543 0)
(5.2519 -0.0910235 0)
(5.23888 -0.0969003 0)
(5.22462 -0.102628 0)
(5.01867 0.157515 0)
(5.14297 0.0302022 0)
(5.23724 0.000526387 0)
(5.28309 -0.0116503 0)
(5.30482 -0.0279182 0)
(5.32091 -0.0421278 0)
(5.33495 -0.0518677 0)
(5.34504 -0.0589519 0)
(5.34993 -0.0652026 0)
(5.35017 -0.0712139 0)
(5.34693 -0.0768826 0)
(5.34105 -0.0821005 0)
(5.33312 -0.0868588 0)
(5.32337 -0.0912965 0)
(5.31227 -0.0954971 0)
(5.29985 -0.0996185 0)
(5.28676 -0.103626 0)
(5.27262 -0.107653 0)
(5.00662 0.152181 0)
(5.18248 0.0535002 0)
(5.30149 0.0381712 0)
(5.35055 0.0196273 0)
(5.37344 -0.00113885 0)
(5.39251 -0.0157967 0)
(5.40867 -0.0249821 0)
(5.41928 -0.0319947 0)
(5.42375 -0.0383386 0)
(5.42318 -0.0442079 0)
(5.41888 -0.049523 0)
(5.41173 -0.0543714 0)
(5.40221 -0.058855 0)
(5.3906 -0.0631522 0)
(5.37718 -0.0672762 0)
(5.36216 -0.0713492 0)
(5.34585 -0.0752626 0)
(5.32833 -0.0791354 0)
(5.00982 0.0198592 0)
(5.23688 -0.0522353 0)
(5.35901 -0.0368036 0)
(5.40056 -0.0462576 0)
(5.41872 -0.0569686 0)
(5.43089 -0.0619062 0)
(5.43633 -0.0639722 0)
(5.43311 -0.0657295 0)
(5.42141 -0.0677356 0)
(5.40262 -0.0697975 0)
(5.37809 -0.0716863 0)
(5.349 -0.0733551 0)
(5.31596 -0.0748085 0)
(5.27988 -0.0761743 0)
(5.24088 -0.077477 0)
(5.20005 -0.0788626 0)
(5.15688 -0.0802562 0)
(5.11308 -0.0818119 0)
(4.9821 0.0664386 0)
(5.12619 -0.00252055 0)
(5.09105 -0.00324405 0)
(4.96506 -0.0130412 0)
(4.82793 -0.0202245 0)
(4.69612 -0.0231018 0)
(4.56795 -0.0243554 0)
(4.44076 -0.025288 0)
(4.31402 -0.0259823 0)
(4.18862 -0.0263331 0)
(4.06562 -0.0263809 0)
(3.9459 -0.0262786 0)
(3.82957 -0.0261699 0)
(3.71687 -0.0261601 0)
(3.60705 -0.0262415 0)
(3.50069 -0.0264079 0)
(3.39628 -0.0265609 0)
(3.29592 -0.0267406 0)
(-0.0107143 0.0196035 6.24203e-21)
(-0.0327525 0.0187859 -6.20299e-21)
(-0.0532151 0.0187286 0)
(-0.0746394 0.0193859 0)
(-0.0962353 0.0200582 0)
(-0.118308 0.0207124 6.03487e-21)
(-0.140576 0.021301 0)
(-0.162999 0.0217497 0)
(-0.185354 0.0220007 0)
(-0.20746 0.0220005 0)
(-0.229098 0.0217226 -5.82994e-21)
(-0.250018 0.0211568 0)
(-0.269978 0.0202896 0)
(-0.288698 0.0191316 0)
(-0.305904 0.0176869 0)
(-0.321331 0.0159601 -5.63278e-21)
(-0.334681 0.0139749 0)
(-0.345648 0.0117322 0)
(-0.353953 0.00923457 0)
(-0.359315 0.00651709 0)
(-0.361473 0.00357726 0)
(-0.360202 0.000460242 0)
(-0.355212 -0.00282756 0)
(-0.346324 -0.00624558 -5.34477e-21)
(-0.333368 -0.00975594 5.31213e-21)
(-0.316175 -0.0133228 -5.28037e-21)
(-0.294654 -0.0168997 -5.24949e-21)
(-0.26872 -0.0204449 0)
(-0.238381 -0.0239243 0)
(-0.203674 -0.0272626 5.16209e-21)
(-0.164683 -0.0304481 5.13457e-21)
(-0.121581 -0.0334218 0)
(-0.0745399 -0.0361444 0)
(-0.0238244 -0.0386073 5.05579e-21)
(0.0302462 -0.0407754 0)
(0.0873692 -0.0426453 0)
(0.147186 -0.0441949 -4.98013e-21)
(0.209322 -0.0454275 0)
(0.273389 -0.0463354 -4.92956e-21)
(0.338994 -0.0469266 -9.80763e-21)
(0.405744 -0.0472099 0)
(0.473242 -0.047201 0)
(0.541112 -0.0469182 0)
(0.609014 -0.04638 0)
(0.676608 -0.0456192 0)
(0.743577 -0.0446496 -9.47261e-21)
(0.809645 -0.043518 -9.4113e-21)
(0.874594 -0.0422311 -9.34834e-21)
(0.938192 -0.0408385 0)
(1.00024 -0.0393393 9.21756e-21)
(1.06063 -0.0377686 0)
(1.11921 -0.0361565 -9.08082e-21)
(1.17587 -0.0345131 -9.01047e-21)
(1.23056 -0.0328598 0)
(1.28322 -0.0312058 0)
(1.33381 -0.02957 0)
(1.38234 -0.0279564 -8.71841e-21)
(1.42881 -0.0263781 0)
(1.47322 -0.0248422 0)
(1.51561 -0.0233544 0)
(1.55601 -0.0219189 0)
(1.59445 -0.0205391 0)
(1.631 -0.0192172 0)
(1.66569 -0.0179544 0)
(1.69859 -0.0167516 0)
(1.72975 -0.0156087 8.02968e-21)
(1.75924 -0.0145252 0)
(1.78712 -0.0135003 0)
(1.81346 -0.0125328 -7.79882e-21)
(1.83831 -0.0116211 -7.72225e-21)
(1.86174 -0.0107635 0)
(1.88382 -0.00995822 7.56991e-21)
(1.9046 -0.00920323 -7.49422e-21)
(1.92414 -0.00849643 0)
(1.94251 -0.0078357 7.3439e-21)
(1.95976 -0.00721886 0)
(1.97595 -0.00664373 0)
(1.99114 -0.00610812 -7.12141e-21)
(2.00536 -0.00560991 0)
(2.01868 -0.00514694 6.97524e-21)
(2.03115 -0.00471717 0)
(2.04281 -0.00431857 -6.83092e-21)
(2.0537 -0.00394921 -6.75946e-21)
(2.06387 -0.00360719 -6.68848e-21)
(2.07336 -0.00329074 -1.3236e-20)
(2.08221 -0.00299815 1.30959e-20)
(2.09046 -0.00272779 0)
(2.09814 -0.00247809 0)
(2.10528 -0.00224763 0)
(2.11192 -0.00203497 1.25456e-20)
(2.11809 -0.00183878 1.24104e-20)
(2.12381 -0.00165775 -1.22762e-20)
(2.12911 -0.0014906 0)
(2.13403 -0.00133596 1.20107e-20)
(2.13857 -0.00119255 1.18795e-20)
(2.14276 -0.00105928 1.17491e-20)
(2.14663 -0.000935238 0)
(2.1502 -0.000819676 0)
(2.15347 -0.00071188 0)
(2.15647 -0.000611162 1.12372e-20)
(2.15921 -0.000516979 0)
(2.1617 -0.000428711 0)
(2.16397 -0.000345833 -1.0863e-20)
(2.16603 -0.000267998 0)
(2.16787 -0.000194521 0)
(2.16953 -0.000125251 -1.04969e-20)
(2.171 -5.99625e-05 0)
(2.17229 1.83561e-06 0)
(2.17342 5.91967e-05 1.01387e-20)
(2.17439 0.000111158 1.0021e-20)
(2.17523 0.000157439 0)
(2.17593 0.000197933 -9.78818e-21)
(2.1765 0.000232513 0)
(2.17697 0.000261608 9.55869e-21)
(2.17733 0.000286011 0)
(2.1776 0.000306088 9.33246e-21)
(2.17779 0.000322059 9.22054e-21)
(2.1779 0.000334298 0)
(2.17793 0.000343291 0)
(2.17791 0.000349694 0)
(2.17782 0.000354211 0)
(2.17768 0.000357513 0)
(2.1775 0.000360099 0)
(2.17726 0.000362279 0)
(2.17698 0.000364212 8.3532e-21)
(2.17666 0.000365951 -8.24816e-21)
(2.1763 0.000367525 0)
(2.17591 0.000368944 0)
(2.17547 0.000370237 0)
(2.17501 0.000371421 0)
(2.17451 0.000372525 -1.54675e-20)
(2.17398 0.00037356 0)
(2.17343 0.000374545 1.50657e-20)
(2.17284 0.000375486 -1.48668e-20)
(2.17223 0.000376399 0)
(2.1716 0.000377287 0)
(2.17094 0.00037816 0)
(2.17026 0.000379024 1.40847e-20)
(2.16956 0.000379873 1.38925e-20)
(2.16884 0.000380722 0)
(2.16809 0.000381566 1.35117e-20)
(2.16733 0.00038244 1.33232e-20)
(2.16655 0.000383351 -1.3136e-20)
(2.16575 0.00038433 0)
(2.16493 0.000385385 0)
(2.16409 0.000386542 -1.25815e-20)
(2.16323 0.000387812 0)
(2.16236 0.000389234 0)
(2.16147 0.000390835 0)
(2.16056 0.000392666 0)
(2.15963 0.000394775 1.16809e-20)
(2.15868 0.000397236 1.15042e-20)
(2.1577 0.000400128 0)
(2.15671 0.000403563 1.11542e-20)
(2.15569 0.000407669 0)
(2.15465 0.000412626 0)
(2.15357 0.000418629 1.06373e-20)
(2.15246 0.000425992 0)
(2.15131 0.000434988 1.0298e-20)
(2.15011 0.000446219 0)
(2.14886 0.000459957 0)
(2.14754 0.000477533 9.79704e-21)
(2.14614 0.000498834 0)
(2.14464 0.000527005 9.46831e-21)
(2.14301 0.000560659 0)
(2.14124 0.000606509 0)
(2.13923 0.00066178 0)
(2.13705 0.000735957 -8.82373e-21)
(2.1344 0.000834238 0)
(2.13154 0.000948489 8.50839e-21)
(2.12775 0.00114832 0)
(2.12375 0.00129733 0)
(2.11791 0.00178251 0)
(2.11162 0.0018604 0)
(2.10215 0.00326363 0)
(2.09002 0.00274172 0)
(2.07464 0.0074791 0)
(2.04279 0.00444854 -1.46531e-20)
(2.01903 0.0246282 0)
(1.90301 0.0197902 0)
(-0.0135527 0.0747992 -1.873e-20)
(-0.0444831 0.0733303 1.8613e-20)
(-0.0721925 0.071496 0)
(-0.100801 0.0721132 -1.22372e-20)
(-0.128848 0.0722473 0)
(-0.156553 0.0719984 -6.03853e-21)
(-0.183514 0.0713161 1.19864e-20)
(-0.209646 0.0701374 1.19037e-20)
(-0.23473 0.0683972 0)
(-0.258619 0.0660406 1.17397e-20)
(-0.281121 0.0630458 5.83339e-21)
(-0.302073 0.0593933 0)
(-0.321296 0.055073 0)
(-0.338575 0.0500887 0)
(-0.353749 0.0444342 0)
(-0.36661 0.0381314 5.63594e-21)
(-0.376957 0.0311943 0)
(-0.384604 0.0236452 -1.11099e-20)
(-0.389298 0.0154905 0)
(-0.390833 0.00679265 0)
(-0.389006 -0.00243316 1.08901e-20)
(-0.383635 -0.0121135 0)
(-0.374496 -0.0221962 -1.07508e-20)
(-0.361408 -0.0326007 5.34733e-21)
(-0.344248 -0.0432421 -5.31461e-21)
(-0.322865 -0.0540193 5.28277e-21)
(-0.297181 -0.0648243 5.25181e-21)
(-0.267142 -0.0755429 0)
(-0.232707 -0.0860606 0)
(-0.193929 -0.0962339 -5.1642e-21)
(-0.150901 -0.105953 5.12704e-21)
(-0.103721 -0.115093 0)
(-0.0525761 -0.123543 0)
(0.00230105 -0.131208 -5.05761e-21)
(0.0606489 -0.138007 0)
(0.122139 -0.143877 0)
(0.186406 -0.148778 4.98176e-21)
(0.253051 -0.152682 0)
(0.321682 -0.155587 -4.9265e-21)
(0.391884 -0.157505 9.81054e-21)
(0.463252 -0.158469 0)
(0.535379 -0.158525 0)
(0.607886 -0.157728 1.92935e-20)
(0.680416 -0.156145 1.91812e-20)
(0.752632 -0.153865 1.90657e-20)
(0.824206 -0.150958 -9.47187e-21)
(0.894863 -0.147518 9.4135e-21)
(0.964394 -0.143607 2.80492e-20)
(1.03257 -0.139339 -1.85696e-20)
(1.09921 -0.134751 -9.21949e-21)
(1.16417 -0.129946 0)
(1.22732 -0.124968 9.08262e-21)
(1.28857 -0.119893 -9.01101e-21)
(1.34786 -0.114765 0)
(1.40513 -0.109625 0)
(1.46035 -0.10452 0)
(1.51353 -0.0994732 8.71985e-21)
(1.56466 -0.0945162 0)
(1.61375 -0.0896714 -1.71372e-20)
(1.66082 -0.0849565 0)
(1.70591 -0.0803851 -1.68317e-20)
(1.74906 -0.0759676 0)
(1.7903 -0.0717112 1.65239e-20)
(1.82969 -0.0676209 0)
(1.86727 -0.0636993 -1.62152e-20)
(1.90311 -0.0599476 8.03005e-21)
(1.93726 -0.0563653 0)
(1.96977 -0.0529509 1.57526e-20)
(2.0007 -0.0497018 7.79976e-21)
(2.03011 -0.0466146 7.72316e-21)
(2.05806 -0.0436854 0)
(2.0846 -0.0409096 7.57025e-21)
(2.10979 -0.0382825 7.49505e-21)
(2.13368 -0.035799 0)
(2.15633 -0.0334538 -7.34468e-21)
(2.17779 -0.0312415 1.45397e-20)
(2.19812 -0.0291567 0)
(2.21736 -0.0271937 7.12213e-21)
(2.23555 -0.0253472 0)
(2.25276 -0.0236117 -2.09274e-20)
(2.26901 -0.0219819 0)
(2.28437 -0.0204525 2.04944e-20)
(2.29887 -0.0190185 6.76009e-21)
(2.31254 -0.0176747 -6.68882e-21)
(2.32544 -0.0164165 -1.32366e-20)
(2.33759 -0.0152391 1.30966e-20)
(2.34905 -0.0141381 0)
(2.35983 -0.013109 0)
(2.36998 -0.0121478 0)
(2.37952 -0.0112505 -3.76395e-20)
(2.38849 -0.0104131 -1.24115e-20)
(2.39692 -0.00963212 1.22773e-20)
(2.40484 -0.00890394 0)
(2.41227 -0.00822523 1.20114e-20)
(2.41924 -0.00759281 -1.18805e-20)
(2.42578 -0.00700363 -1.17501e-20)
(2.43192 -0.00645476 0)
(2.43766 -0.00594352 0)
(2.44305 -0.00546741 0)
(2.44809 -0.00502405 -1.12382e-20)
(2.45282 -0.00461128 0)
(2.45724 -0.00422698 2.19754e-20)
(2.46139 -0.00386919 3.25917e-20)
(2.46526 -0.00353616 -2.14819e-20)
(2.46889 -0.00322609 0)
(2.47229 -0.00293748 -1.04977e-20)
(2.47547 -0.00266901 0)
(2.47845 -0.00241931 -2.05162e-20)
(2.48124 -0.00218795 1.01395e-20)
(2.48385 -0.00197443 1.00218e-20)
(2.4863 -0.00177777 0)
(2.48858 -0.0015968 2.93671e-20)
(2.49071 -0.00143028 -1.93477e-20)
(2.49271 -0.00127728 -9.55957e-21)
(2.49456 -0.00113725 0)
(2.4963 -0.00100938 -9.33332e-21)
(2.49791 -0.000892854 -2.76641e-20)
(2.49941 -0.000786892 0)
(2.5008 -0.000690645 -1.79998e-20)
(2.50209 -0.000603138 -1.77807e-20)
(2.50329 -0.000523343 -1.75631e-20)
(2.50439 -0.00045023 0)
(2.50542 -0.000382914 0)
(2.50636 -0.000320702 0)
(2.50723 -0.000263096 8.35394e-21)
(2.50803 -0.000209757 8.24894e-21)
(2.50876 -0.000160417 0)
(2.50943 -0.000114856 1.6082e-20)
(2.51005 -7.28396e-05 1.58762e-20)
(2.5106 -3.41543e-05 0)
(2.51111 1.43813e-06 1.54689e-20)
(2.51157 3.41478e-05 3.05346e-20)
(2.51198 6.42057e-05 -1.50671e-20)
(2.51235 9.18055e-05 -1.48682e-20)
(2.51269 0.00011716 0)
(2.51299 0.000140444 0)
(2.51325 0.000161842 0)
(2.51349 0.000181506 -1.40861e-20)
(2.5137 0.000199574 1.38938e-20)
(2.51388 0.000216195 2.74055e-20)
(2.51403 0.000231492 -1.3513e-20)
(2.51416 0.000245633 1.33245e-20)
(2.51428 0.000258747 1.31373e-20)
(2.51437 0.000270992 0)
(2.51444 0.000282477 0)
(2.5145 0.000293344 -1.25827e-20)
(2.51454 0.000303706 0)
(2.51456 0.000313715 0)
(2.51457 0.000323514 2.40777e-20)
(2.51456 0.000333284 0)
(2.51454 0.000343209 1.1682e-20)
(2.5145 0.000353522 -1.15053e-20)
(2.51445 0.000364477 0)
(2.51439 0.000376403 1.11552e-20)
(2.5143 0.000389674 0)
(2.5142 0.000404777 0)
(2.51408 0.000422286 -1.06383e-20)
(2.51394 0.000442963 2.09362e-20)
(2.51376 0.0004677 -1.0299e-20)
(2.51356 0.000497737 0)
(2.51332 0.0005345 0)
(2.51303 0.000580018 9.79793e-21)
(2.51268 0.000636777 0)
(2.51225 0.000707728 9.46912e-21)
(2.51174 0.000798441 0)
(2.5111 0.000910743 0)
(2.51033 0.00106196 0)
(2.50933 0.00123958 8.82462e-21)
(2.50813 0.00150763 0)
(2.50651 0.00178106 -8.50925e-21)
(2.50459 0.00230127 0)
(2.50183 0.00268811 0)
(2.49872 0.00382736 1.60925e-20)
(2.49368 0.00424883 -1.5791e-20)
(2.48849 0.00711597 0)
(2.47853 0.00714234 0)
(2.46942 0.0156019 0)
(2.44805 0.014421 4.39446e-20)
(2.43225 0.0456631 0)
(2.3907 0.0496619 -2.82512e-20)
(-0.0135742 0.14005 1.44618e-23)
(-0.0457666 0.138488 -2.48103e-20)
(-0.0742845 0.134398 0)
(-0.103909 0.133927 2.44721e-20)
(-0.132747 0.132317 0)
(-0.161187 0.129915 0)
(-0.188806 0.126767 -1.42754e-23)
(-0.215579 0.122868 -1.19096e-20)
(-0.241343 0.118187 -1.18128e-20)
(-0.265977 0.112686 -1.17454e-20)
(-0.289327 0.106343 0)
(-0.31125 0.0991207 0)
(-0.331567 0.0909988 1.14881e-20)
(-0.350094 0.0819524 2.28168e-20)
(-0.366619 0.0719548 -2.26589e-20)
(-0.380927 0.0610121 0)
(-0.392802 0.0491047 -2.23482e-20)
(-0.402021 0.036272 1.11148e-20)
(-0.408308 0.022533 0)
(-0.411418 0.00791129 -2.18981e-20)
(-0.411126 -0.00751609 -1.08946e-20)
(-0.407183 -0.0236908 2.16114e-20)
(-0.399328 -0.0404952 1.0755e-20)
(-0.387353 -0.0578447 0)
(-0.371077 -0.0755943 -2.12064e-20)
(-0.350309 -0.0935836 -2.10789e-20)
(-0.324948 -0.111639 0)
(-0.294903 -0.129575 -2.08358e-20)
(-0.260137 -0.147172 0)
(-0.220686 -0.164246 -2.06084e-20)
(-0.176654 -0.180564 -1.02667e-20)
(-0.128198 -0.195924 0)
(-0.0755141 -0.210145 0)
(-0.0188916 -0.223043 0)
(0.0413269 -0.234476 0)
(0.104771 -0.244323 0)
(0.171024 -0.252517 0)
(0.239657 -0.259007 -1.98015e-20)
(0.310224 -0.263791 2.95625e-20)
(0.38228 -0.266895 0)
(0.455387 -0.268379 0)
(0.52912 -0.268323 0)
(0.603076 -0.266842 -8.94013e-24)
(0.676881 -0.264048 -1.91841e-20)
(0.75019 -0.260084 -3.81304e-20)
(0.822691 -0.255095 3.78932e-20)
(0.894119 -0.249212 1.88222e-20)
(0.964248 -0.242575 -1.8701e-20)
(1.03287 -0.235331 3.3905e-24)
(1.09983 -0.227605 -1.84364e-20)
(1.165 -0.219522 0)
(1.22826 -0.21118 -1.81633e-20)
(1.28952 -0.202684 2.1089e-24)
(1.34877 -0.194114 0)
(1.40594 -0.185548 0)
(1.46103 -0.177045 1.75872e-20)
(1.51405 -0.168656 0)
(1.56501 -0.160425 0)
(1.61393 -0.152386 -1.71353e-20)
(1.66085 -0.144568 -3.39688e-20)
(1.70579 -0.136991 1.68326e-20)
(1.74881 -0.129672 0)
(1.78995 -0.12262 -1.65247e-20)
(1.82926 -0.115842 0)
(1.8668 -0.109343 -1.62136e-20)
(1.90264 -0.103122 -1.60614e-20)
(1.93681 -0.0971791 3.18121e-20)
(1.96938 -0.09151 1.57511e-20)
(2.00041 -0.0861103 0)
(2.02996 -0.0809738 -3.08906e-20)
(2.05808 -0.0760939 0)
(2.08482 -0.0714628 -4.54226e-20)
(2.11025 -0.0670725 -2.99784e-20)
(2.13441 -0.0629146 -2.96769e-20)
(2.15736 -0.0589804 2.9377e-20)
(2.17915 -0.055261 -4.36187e-20)
(2.19982 -0.0517477 0)
(2.21943 -0.0484316 0)
(2.23802 -0.045304 2.81937e-20)
(2.25563 -0.0423563 4.1854e-20)
(2.27231 -0.03958 0)
(2.2881 -0.0369668 -1.36629e-20)
(2.30305 -0.0345089 0)
(2.31718 -0.0321983 4.01332e-20)
(2.33054 -0.0300275 7.40019e-25)
(2.34316 -0.0279893 -6.93483e-25)
(2.35508 -0.0260767 -2.5915e-20)
(2.36633 -0.0242828 0)
(2.37695 -0.0226013 2.53646e-20)
(2.38695 -0.0210258 5.3149e-25)
(2.39638 -0.0195505 0)
(2.40527 -0.0181697 0)
(2.41363 -0.0168781 0)
(2.4215 -0.0156706 -2.40232e-20)
(2.4289 -0.0145424 0)
(2.43586 -0.0134886 0)
(2.44239 -0.0125047 0)
(2.44853 -0.0115864 0)
(2.45429 -0.0107297 0)
(2.45969 -0.00993074 -2.24759e-20)
(2.46476 -0.00918592 0)
(2.4695 -0.00849177 -2.19754e-20)
(2.47395 -0.00784511 -2.17278e-20)
(2.47811 -0.00724295 2.14819e-20)
(2.482 -0.00668249 0)
(2.48564 -0.00616108 2.09956e-20)
(2.48905 -0.00567621 0)
(2.49223 -0.00522572 2.05162e-20)
(2.4952 -0.00480727 -2.02792e-20)
(2.49798 -0.00441884 -6.01311e-20)
(2.50057 -0.00405841 0)
(2.50299 -0.00372422 -5.87342e-20)
(2.50524 -0.00341446 -1.93476e-20)
(2.50735 -0.0031278 0)
(2.50931 -0.00286319 -3.7784e-20)
(2.51113 -0.00261928 -3.73331e-20)
(2.51283 -0.00239456 5.53283e-20)
(2.51441 -0.00218756 0)
(2.51588 -0.0019969 1.79999e-20)
(2.51725 -0.00182111 1.77808e-20)
(2.51851 -0.00165866 5.26895e-20)
(2.51969 -0.00150811 0)
(2.52077 -0.0013682 0)
(2.52178 -0.00123797 0)
(2.52271 -0.00111674 1.67079e-20)
(2.52358 -0.00100401 0)
(2.52438 -0.000899388 0)
(2.52511 -0.000802508 -1.60821e-20)
(2.52579 -0.000712984 -1.58763e-20)
(2.52642 -0.000630409 0)
(2.527 -0.000554354 0)
(2.52754 -0.000484392 -3.05348e-20)
(2.52803 -0.000420087 0)
(2.52848 -0.000361028 2.97366e-20)
(2.5289 -0.000306809 2.93416e-20)
(2.52929 -0.000257053 0)
(2.52964 -0.000211405 0)
(2.52996 -0.000169546 -2.81723e-20)
(2.53026 -0.000131177 -3.82929e-26)
(2.53053 -9.6002e-05 -3.69515e-26)
(2.53078 -6.37295e-05 0)
(2.53101 -3.40513e-05 -5.32983e-20)
(2.53122 -6.6891e-06 0)
(2.53142 1.8633e-05 0)
(2.53159 4.21547e-05 0)
(2.53175 6.41263e-05 2.51655e-20)
(2.53189 8.47838e-05 0)
(2.53202 0.000104394 -4.8876e-20)
(2.53214 0.000123225 -2.40778e-20)
(2.53224 0.000141584 0)
(2.53233 0.000159797 -2.33642e-20)
(2.53241 0.000178245 0)
(2.53248 0.000197358 0)
(2.53253 0.000217654 -6.69317e-20)
(2.53257 0.000239751 4.39275e-20)
(2.53259 0.000264392 0)
(2.53259 0.000292528 4.25533e-20)
(2.53257 0.000325253 -2.09364e-20)
(2.53253 0.000364132 0)
(2.53246 0.000410749 0)
(2.53235 0.000467915 0)
(2.5322 0.000537638 -5.87879e-20)
(2.532 0.000625681 0)
(2.53173 0.000733237 -1.89385e-20)
(2.53137 0.000874235 0)
(2.53089 0.00104302 0)
(2.5303 0.00127816 0)
(2.52948 0.00154452 0)
(2.52848 0.00195672 0)
(2.52708 0.00237421 0)
(2.52542 0.00314591 -3.34116e-20)
(2.52296 0.0037859 0)
(2.52017 0.00535843 -1.60927e-20)
(2.51571 0.00630814 4.73696e-20)
(2.51089 0.0098678 0)
(2.50253 0.0113422 0)
(2.49392 0.0205742 -2.98257e-20)
(2.47839 0.0242657 -2.92907e-20)
(2.46382 0.0520043 2.87259e-20)
(2.44117 0.0669703 2.82539e-20)
(-0.0135284 0.203279 3.74038e-20)
(-0.0463039 0.202325 3.71707e-20)
(-0.0754933 0.196429 2.45974e-20)
(-0.10606 0.19522 1.21938e-20)
(-0.135916 0.192294 0)
(-0.165557 0.188254 -2.40939e-20)
(-0.194564 0.183237 1.1943e-20)
(-0.222912 0.177248 0)
(-0.250413 0.170226 1.18189e-20)
(-0.276932 0.162115 0)
(-0.302297 0.152877 -2.3268e-20)
(-0.326341 0.142452 0)
(-0.348848 0.130787 -1.14939e-20)
(-0.369606 0.11786 -2.28283e-20)
(-0.388378 0.10361 2.26702e-20)
(-0.404925 0.0880256 0)
(-0.418973 0.0710957 2.2359e-20)
(-0.430249 0.0528198 0)
(-0.438508 0.0332377 0)
(-0.443434 0.0123746 2.19081e-20)
(-0.444738 -0.00968142 0)
(-0.442154 -0.0328403 -5.4349e-23)
(-0.435395 -0.0569676 0)
(-0.424223 -0.0819049 0)
(-0.408376 -0.107463 5.63805e-23)
(-0.387649 -0.133415 2.10871e-20)
(-0.361921 -0.159495 2.09071e-20)
(-0.331074 -0.185417 2.08433e-20)
(-0.295075 -0.210881 0)
(-0.253974 -0.235556 4.11781e-20)
(-0.207871 -0.259128 0)
(-0.156967 -0.281274 2.03536e-20)
(-0.101524 -0.301705 0)
(-0.0418735 -0.320172 0)
(0.0215813 -0.336457 -2.00613e-20)
(0.08839 -0.350404 0)
(0.158069 -0.361903 1.98729e-20)
(0.230116 -0.370909 2.75763e-23)
(0.304017 -0.377421 -3.93902e-20)
(0.379265 -0.38149 3.91713e-20)
(0.455379 -0.383223 0)
(0.531878 -0.382749 0)
(0.60834 -0.380232 1.92644e-20)
(0.68438 -0.375866 0)
(0.759626 -0.369849 1.90649e-20)
(0.833775 -0.362404 -1.89466e-20)
(0.906574 -0.353731 -1.88248e-20)
(0.977804 -0.344045 0)
(1.04726 -0.333532 1.85706e-20)
(1.11482 -0.322386 1.84385e-20)
(1.18038 -0.310782 -3.65989e-20)
(1.24384 -0.298859 1.81652e-20)
(1.30516 -0.286756 1.80244e-20)
(1.36432 -0.274587 0)
(1.42129 -0.262462 0)
(1.47608 -0.250448 -1.75886e-20)
(1.52873 -0.238619 0)
(1.57926 -0.227033 0)
(1.6277 -0.215734 3.42757e-20)
(1.6741 -0.204758 3.39708e-20)
(1.7185 -0.19413 0)
(1.76096 -0.18387 0)