/*--------------------------------*- C++ -*----------------------------------*\
  =========                 |
  \\      /  F ield         | OpenFOAM: The Open Source CFD Toolbox
   \\    /   O peration     | Website:  https://openfoam.org
    \\  /    A nd           | Version:  7
     \\/     M anipulation  |
\*---------------------------------------------------------------------------*/
FoamFile
{
    version     2.0;
    format      ascii;
    class       volSymmTensorField;
    location    "0.017";
    object      UPrime2Mean;
}
// * * * * * * * * * * * * * * * * * * * * * * * * * * * * * * * * * * * * * //

dimensions      [0 2 -2 0 0 0 0];

internalField   nonuniform List<symmTensor> 
12225
(
(0.00671552 -0.000701318 0 0.000683246 0 0)
(0.107938 -0.00476252 0 0.000522779 0 0)
(0.157918 -0.00689844 0 0.000610122 0 0)
(0.208126 -0.00821371 0 0.000607935 0 0)
(0.290931 -0.00971157 0 0.000576163 0 0)
(0.405658 -0.0113756 0 0.00053686 0 0)
(0.545107 -0.0128302 0 0.000509379 0 0)
(0.703251 -0.0131423 0 0.000396649 0 0)
(0.871041 -0.0140556 0 0.000375858 0 0)
(1.04793 -0.0111728 0 0.000224181 0 0)
(1.22608 -0.0151782 0 0.000282222 0 0)
(1.40907 -0.00602509 0 0.000159795 0 0)
(1.61237 -0.0249913 0 0.000590173 0 0)
(1.81829 0.00597087 0 0.000690574 0 0)
(2.13657 -0.070249 0 0.004152 0 0)
(2.48691 0.0513191 0 0.00637618 0 0)
(3.25182 -0.309209 0 0.0542959 0 0)
(4.69857 0.150713 0 0.0297113 0 0)
(0.00716052 -0.000723973 0 0.000609693 0 0)
(0.073089 -0.00288774 0 0.000378029 0 0)
(0.0802793 -0.00430643 0 0.00068955 0 0)
(0.0818223 -0.0049397 0 0.000987817 0 0)
(0.0953092 -0.00615401 0 0.00129287 0 0)
(0.117559 -0.00824858 0 0.00162363 0 0)
(0.14815 -0.0108582 0 0.00187385 0 0)
(0.189663 -0.0140686 0 0.00216929 0 0)
(0.239346 -0.0166327 0 0.00211987 0 0)
(0.306246 -0.0207672 0 0.00236251 0 0)
(0.377029 -0.0218964 0 0.00196487 0 0)
(0.480214 -0.0298472 0 0.00256994 0 0)
(0.575092 -0.0282807 0 0.00200789 0 0)
(0.74771 -0.051254 0 0.00438649 0 0)
(0.883355 -0.0457747 0 0.0039156 0 0)
(1.24828 -0.128044 0 0.0169325 0 0)
(1.49083 -0.152195 0 0.0182781 0 0)
(2.35642 -0.572544 0 0.16889 0 0)
(0.00577215 -0.000561951 0 0.000899849 0 0)
(0.070978 -0.0042417 0 0.000740968 0 0)
(0.0757136 -0.0057082 0 0.00127492 0 0)
(0.0729242 -0.00579068 0 0.00179132 0 0)
(0.0783471 -0.00619715 0 0.00226614 0 0)
(0.0867595 -0.0072744 0 0.00272523 0 0)
(0.0970755 -0.00882623 0 0.00329153 0 0)
(0.109846 -0.01055 0 0.00356288 0 0)
(0.126371 -0.0129261 0 0.00407708 0 0)
(0.147404 -0.0148675 0 0.00395545 0 0)
(0.176394 -0.0194144 0 0.00461066 0 0)
(0.213116 -0.0218757 0 0.00425056 0 0)
(0.266394 -0.0333805 0 0.00634078 0 0)
(0.334964 -0.0377237 0 0.0059615 0 0)
(0.441993 -0.0748663 0 0.0152152 0 0)
(0.585063 -0.093579 0 0.0166343 0 0)
(0.802035 -0.233679 0 0.0735539 0 0)
(1.06947 -0.411862 0 0.168349 0 0)
(0.00659961 -0.00129671 0 0.00129942 0 0)
(0.0723193 -0.00491308 0 0.00103587 0 0)
(0.0767791 -0.00621806 0 0.00151609 0 0)
(0.0739785 -0.00642322 0 0.00208088 0 0)
(0.0790023 -0.00692051 0 0.00258224 0 0)
(0.0865141 -0.0080834 0 0.00312089 0 0)
(0.0952088 -0.00968533 0 0.00366261 0 0)
(0.1055 -0.0115936 0 0.00430189 0 0)
(0.117888 -0.0136603 0 0.00472128 0 0)
(0.134105 -0.0165991 0 0.00537976 0 0)
(0.155042 -0.0200979 0 0.0058024 0 0)
(0.184105 -0.0264788 0 0.00712573 0 0)
(0.222701 -0.0345558 0 0.00848435 0 0)
(0.278451 -0.0513186 0 0.0127408 0 0)
(0.354453 -0.0757878 0 0.0192202 0 0)
(0.461408 -0.127415 0 0.038628 0 0)
(0.600058 -0.221769 0 0.0847755 0 0)
(0.728744 -0.372741 0 0.195556 0 0)
(0.00700029 -0.00104217 0 0.00161234 0 0)
(0.0703165 -0.00571905 0 0.00142726 0 0)
(0.0736943 -0.00695014 0 0.00195975 0 0)
(0.0710857 -0.00718347 0 0.00270517 0 0)
(0.076437 -0.0078221 0 0.00337161 0 0)
(0.0840745 -0.00921665 0 0.00400658 0 0)
(0.0927373 -0.0111626 0 0.00476791 0 0)
(0.102709 -0.0134409 0 0.00546857 0 0)
(0.11465 -0.0162821 0 0.00637536 0 0)
(0.129694 -0.0196389 0 0.00715948 0 0)
(0.149414 -0.0248806 0 0.00852477 0 0)
(0.175555 -0.0317833 0 0.0101393 0 0)
(0.210702 -0.0437794 0 0.0136671 0 0)
(0.258045 -0.0610121 0 0.0189249 0 0)
(0.321241 -0.0924038 0 0.031231 0 0)
(0.401217 -0.142551 0 0.0551001 0 0)
(0.49215 -0.22675 0 0.108205 0 0)
(0.558272 -0.354683 0 0.234701 0 0)
(0.00573429 -0.0015383 0 0.00165194 0 0)
(0.0693294 -0.00657923 0 0.00173741 0 0)
(0.0720376 -0.00753678 0 0.00239794 0 0)
(0.0691471 -0.0076255 0 0.00333925 0 0)
(0.0741801 -0.00826698 0 0.0041874 0 0)
(0.0812896 -0.00974634 0 0.00498535 0 0)
(0.089358 -0.0118744 0 0.0058429 0 0)
(0.0987731 -0.0145337 0 0.00683788 0 0)
(0.110105 -0.0178214 0 0.00794535 0 0)
(0.124287 -0.0221256 0 0.00932432 0 0)
(0.142618 -0.0281001 0 0.0111495 0 0)
(0.16636 -0.0368113 0 0.0139907 0 0)
(0.197509 -0.0498851 0 0.0186449 0 0)
(0.237301 -0.0699298 0 0.0268339 0 0)
(0.287805 -0.101687 0 0.0422351 0 0)
(0.344783 -0.150047 0 0.0715282 0 0)
(0.4025 -0.223121 0 0.12987 0 0)
(0.434348 -0.315486 0 0.236499 0 0)
(0.00635215 -0.00149941 0 0.00199865 0 0)
(0.0677398 -0.00737798 0 0.0023903 0 0)
(0.0691875 -0.00817933 0 0.00310221 0 0)
(0.0659095 -0.00808707 0 0.00417903 0 0)
(0.0703795 -0.00870278 0 0.00524085 0 0)
(0.076543 -0.0102284 0 0.00624142 0 0)
(0.0834644 -0.0124502 0 0.00733648 0 0)
(0.0916582 -0.015278 0 0.00858994 0 0)
(0.101668 -0.0188945 0 0.0101208 0 0)
(0.114207 -0.0236507 0 0.0120496 0 0)
(0.130193 -0.0302931 0 0.0146983 0 0)
(0.15044 -0.0397939 0 0.0186952 0 0)
(0.176071 -0.0536932 0 0.0250458 0 0)
(0.207334 -0.07429 0 0.0358383 0 0)
(0.244406 -0.104594 0 0.0543542 0 0)
(0.282355 -0.148202 0 0.0877737 0 0)
(0.315701 -0.206147 0 0.14435 0 0)
(0.326169 -0.272791 0 0.239012 0 0)
(0.00473781 -0.00150168 0 0.00220091 0 0)
(0.0656823 -0.0080545 0 0.00265545 0 0)
(0.067132 -0.00860295 0 0.00364739 0 0)
(0.0639603 -0.00828262 0 0.00488467 0 0)
(0.0682201 -0.00888696 0 0.0061498 0 0)
(0.0737843 -0.0104751 0 0.00739654 0 0)
(0.0798462 -0.0127898 0 0.00876699 0 0)
(0.0870111 -0.0157853 0 0.0104015 0 0)
(0.0957508 -0.0196477 0 0.0124155 0 0)
(0.106539 -0.0247297 0 0.0149844 0 0)
(0.119961 -0.0316932 0 0.0184748 0 0)
(0.136448 -0.0414638 0 0.0236363 0 0)
(0.156514 -0.055387 0 0.031634 0 0)
(0.179736 -0.0751657 0 0.044595 0 0)
(0.205268 -0.102729 0 0.0656343 0 0)
(0.228529 -0.139387 0 0.100334 0 0)
(0.245085 -0.184037 0 0.154382 0 0)
(0.243666 -0.230645 0 0.236354 0 0)
(0.00722744 -0.00201274 0 0.0023329 0 0)
(0.0670194 -0.00936631 0 0.00326574 0 0)
(0.0669035 -0.00978735 0 0.00440892 0 0)
(0.0630021 -0.00915951 0 0.00578697 0 0)
(0.0668486 -0.00972333 0 0.00728401 0 0)
(0.0719647 -0.0114408 0 0.00881339 0 0)
(0.0774141 -0.0139083 0 0.0104854 0 0)
(0.0836709 -0.017014 0 0.0124561 0 0)
(0.0910564 -0.0209471 0 0.0148929 0 0)
(0.0999181 -0.0261034 0 0.0180819 0 0)
(0.110681 -0.0331234 0 0.0224574 0 0)
(0.123538 -0.0428219 0 0.0288531 0 0)
(0.138554 -0.0562013 0 0.0384151 0 0)
(0.154856 -0.0743599 0 0.0532059 0 0)
(0.171211 -0.09818 0 0.0757747 0 0)
(0.183719 -0.127583 0 0.110406 0 0)
(0.18956 -0.16054 0 0.160383 0 0)
(0.181731 -0.191526 0 0.230191 0 0)
(0.00596697 -0.0018502 0 0.00272583 0 0)
(0.0657179 -0.00996334 0 0.00374445 0 0)
(0.0654697 -0.0101991 0 0.00512969 0 0)
(0.061591 -0.00930393 0 0.00667573 0 0)
(0.0652591 -0.00975811 0 0.00836515 0 0)
(0.0698807 -0.0115041 0 0.0101535 0 0)
(0.0746144 -0.0140521 0 0.0121518 0 0)
(0.079984 -0.0172606 0 0.0145441 0 0)
(0.0862615 -0.02132 0 0.0175348 0 0)
(0.0936392 -0.026591 0 0.0214409 0 0)
(0.102319 -0.0336061 0 0.0267154 0 0)
(0.112219 -0.0429769 0 0.0342017 0 0)
(0.123092 -0.055388 0 0.0449921 0 0)
(0.13386 -0.0713667 0 0.0609146 0 0)
(0.143325 -0.0911065 0 0.0839269 0 0)
(0.148422 -0.113717 0 0.117114 0 0)
(0.147779 -0.137097 0 0.162019 0 0)
(0.136924 -0.156647 0 0.221104 0 0)
(0.00747063 -0.0022195 0 0.00302964 0 0)
(0.067024 -0.0112831 0 0.00423775 0 0)
(0.0655134 -0.011772 0 0.00567435 0 0)
(0.0607828 -0.0107153 0 0.00736101 0 0)
(0.0640265 -0.0111468 0 0.009266 0 0)
(0.068395 -0.0130152 0 0.0113731 0 0)
(0.0727582 -0.0156945 0 0.0137479 0 0)
(0.0774701 -0.01895 0 0.0165398 0 0)
(0.0827565 -0.0229463 0 0.0199679 0 0)
(0.088765 -0.0280492 0 0.0244159 0 0)
(0.0955638 -0.034734 0 0.0303968 0 0)
(0.102906 -0.0434378 0 0.0387236 0 0)
(0.110367 -0.0545385 0 0.0503483 0 0)
(0.116901 -0.0681322 0 0.0667664 0 0)
(0.121495 -0.0839413 0 0.0893477 0 0)
(0.121963 -0.10075 0 0.120158 0 0)
(0.117842 -0.116664 0 0.159631 0 0)
(0.106348 -0.128223 0 0.209085 0 0)
(0.00525191 -0.00214325 0 0.00346907 0 0)
(0.0647184 -0.0111539 0 0.00484716 0 0)
(0.0634367 -0.0116328 0 0.00638435 0 0)
(0.0587324 -0.0103898 0 0.0082611 0 0)
(0.0616387 -0.01068 0 0.0103647 0 0)
(0.0653755 -0.0124562 0 0.0127202 0 0)
(0.0689407 -0.015016 0 0.0154056 0 0)
(0.0727354 -0.0180922 0 0.018587 0 0)
(0.0769307 -0.021831 0 0.0225204 0 0)
(0.0815595 -0.0265478 0 0.0275897 0 0)
(0.0865373 -0.0326008 0 0.0342612 0 0)
(0.0915018 -0.0402321 0 0.0432529 0 0)
(0.0959862 -0.0495837 0 0.0553475 0 0)
(0.0991272 -0.0604693 0 0.0717406 0 0)
(0.100257 -0.0724214 0 0.0933168 0 0)
(0.0979505 -0.0841881 0 0.121461 0 0)
(0.0923528 -0.0942831 0 0.155964 0 0)
(0.0815834 -0.100052 0 0.19762 0 0)
(0.00617119 -0.00291853 0 0.00374057 0 0)
(0.0661073 -0.0124411 0 0.00529477 0 0)
(0.0642773 -0.0127546 0 0.00692535 0 0)
(0.0589563 -0.0112963 0 0.00893516 0 0)
(0.061283 -0.0114586 0 0.0112231 0 0)
(0.0644493 -0.0131884 0 0.0138314 0 0)
(0.0674152 -0.0157156 0 0.0168114 0 0)
(0.070486 -0.0186779 0 0.0202981 0 0)
(0.0737106 -0.0221329 0 0.0245434 0 0)
(0.0770319 -0.026324 0 0.0299377 0 0)
(0.0803288 -0.0315342 0 0.0369311 0 0)
(0.0832869 -0.0379078 0 0.0461663 0 0)
(0.0855052 -0.045453 0 0.0582713 0 0)
(0.0863435 -0.0538534 0 0.0741601 0 0)
(0.0853408 -0.0625585 0 0.0943481 0 0)
(0.0816228 -0.0704278 0 0.119728 0 0)
(0.0755795 -0.0763069 0 0.14974 0 0)
(0.0659684 -0.0782273 0 0.184843 0 0)
(0.00570382 -0.00263539 0 0.00389737 0 0)
(0.0644192 -0.0122539 0 0.00592817 0 0)
(0.0622719 -0.0124812 0 0.00803168 0 0)
(0.0569403 -0.0107799 0 0.010326 0 0)
(0.0589665 -0.010657 0 0.0128319 0 0)
(0.0614681 -0.0120872 0 0.0156705 0 0)
(0.0635166 -0.014276 0 0.0189307 0 0)
(0.0654973 -0.0168079 0 0.0227555 0 0)
(0.0674829 -0.0196907 0 0.0273847 0 0)
(0.0694214 -0.0231118 0 0.0331751 0 0)
(0.0711852 -0.027277 0 0.0405265 0 0)
(0.0724884 -0.0322121 0 0.0499595 0 0)
(0.072967 -0.0377741 0 0.0619077 0 0)
(0.0721567 -0.0435303 0 0.0769912 0 0)
(0.0697974 -0.048916 0 0.0953743 0 0)
(0.0654675 -0.0529697 0 0.117574 0 0)
(0.0597269 -0.0549072 0 0.142786 0 0)
(0.0517607 -0.0533382 0 0.171381 0 0)
(0.00686453 -0.0023351 0 0.00408998 0 0)
(0.0645003 -0.0133458 0 0.00641884 0 0)
(0.0616006 -0.0137863 0 0.00886953 0 0)
(0.055586 -0.011886 0 0.011406 0 0)
(0.0570911 -0.0115357 0 0.0140821 0 0)
(0.0590913 -0.0127951 0 0.0170818 0 0)
(0.0605446 -0.0148265 0 0.0205406 0 0)
(0.0617496 -0.017117 0 0.02459 0 0)
(0.0627491 -0.0195591 0 0.0294161 0 0)
(0.0634996 -0.0222348 0 0.0353037 0 0)
(0.0638992 -0.0252496 0 0.0425595 0 0)
(0.0637349 -0.0285408 0 0.0515773 0 0)
(0.0627634 -0.0319153 0 0.0626253 0 0)
(0.0607487 -0.0349338 0 0.0760853 0 0)
(0.0576511 -0.0371501 0 0.0918858 0 0)
(0.0533736 -0.0378125 0 0.110276 0 0)
(0.0485435 -0.0365262 0 0.130399 0 0)
(0.0425993 -0.0323225 0 0.152549 0 0)
(0.00636859 -0.00191715 0 0.00441107 0 0)
(0.0634995 -0.0132924 0 0.00689354 0 0)
(0.0598028 -0.0138001 0 0.00939944 0 0)
(0.0532628 -0.0116013 0 0.0120764 0 0)
(0.0541867 -0.0108691 0 0.0149606 0 0)
(0.0554711 -0.0117042 0 0.0181946 0 0)
(0.0561734 -0.0131807 0 0.0218637 0 0)
(0.0566196 -0.0147394 0 0.0260291 0 0)
(0.0568026 -0.0162765 0 0.0308235 0 0)
(0.0566455 -0.0178644 0 0.0365042 0 0)
(0.0560837 -0.0195623 0 0.0433422 0 0)
(0.0550156 -0.0212438 0 0.0516133 0 0)
(0.0533389 -0.0226868 0 0.0614156 0 0)
(0.0510026 -0.023478 0 0.0729085 0 0)
(0.0480967 -0.0233132 0 0.0858588 0 0)
(0.0447065 -0.0216417 0 0.100371 0 0)
(0.0413794 -0.0183798 0 0.11566 0 0)
(0.0376994 -0.0128374 0 0.13206 0 0)
(0.00827055 -0.00246699 0 0.00476538 0 0)
(0.0657496 -0.0139142 0 0.00694756 0 0)
(0.0609822 -0.0145287 0 0.0095639 0 0)
(0.0533706 -0.0122876 0 0.0124423 0 0)
(0.0533837 -0.0114236 0 0.0153648 0 0)
(0.0538459 -0.0120431 0 0.0185403 0 0)
(0.0537663 -0.0131683 0 0.0221436 0 0)
(0.0534531 -0.0141924 0 0.0262577 0 0)
(0.0528956 -0.0149758 0 0.0309509 0 0)
(0.0520292 -0.0155734 0 0.0363283 0 0)
(0.0508237 -0.0160337 0 0.0424828 0 0)
(0.0492663 -0.0162499 0 0.0495264 0 0)
(0.0473524 -0.0160437 0 0.0574423 0 0)
(0.0451627 -0.0151176 0 0.0662845 0 0)
(0.042832 -0.0132968 0 0.0758215 0 0)
(0.0405385 -0.0102675 0 0.0861483 0 0)
(0.0386951 -0.00609508 0 0.0966801 0 0)
(0.036989 -0.000381534 0 0.107773 0 0)
(0.00672985 -0.002137 0 0.00456401 0 0)
(0.06264 -0.013812 0 0.00687483 0 0)
(0.058162 -0.0143793 0 0.0089052 0 0)
(0.050724 -0.0120237 0 0.0113927 0 0)
(0.0503485 -0.0109907 0 0.0141969 0 0)
(0.0499983 -0.0112098 0 0.0172753 0 0)
(0.049034 -0.0116773 0 0.0206299 0 0)
(0.0479943 -0.011843 0 0.0242753 0 0)
(0.0469172 -0.0116106 0 0.0282592 0 0)
(0.0457237 -0.0110475 0 0.0326713 0 0)
(0.0444035 -0.0101933 0 0.0375657 0 0)
(0.0430067 -0.0089776 0 0.0429731 0 0)
(0.0415898 -0.00729271 0 0.0488226 0 0)
(0.0402925 -0.00498658 0 0.0551151 0 0)
(0.0392362 -0.00200164 0 0.0616699 0 0)
(0.0385877 0.0017963 0 0.06857 0 0)
(0.0385777 0.0063116 0 0.0754176 0 0)
(0.0389698 0.0117387 0 0.0825024 0 0)
(0.00628378 -0.00198078 0 0.00426601 0 0)
(0.0628361 -0.0133699 0 0.00612464 0 0)
(0.0572303 -0.0132744 0 0.00804838 0 0)
(0.0490063 -0.0104094 0 0.0102764 0 0)
(0.0481234 -0.00869564 0 0.0125257 0 0)
(0.0472158 -0.00807515 0 0.0148303 0 0)
(0.0457722 -0.0076799 0 0.0172878 0 0)
(0.0444458 -0.00703088 0 0.0199424 0 0)
(0.0433015 -0.00599694 0 0.0228029 0 0)
(0.0422686 -0.004594 0 0.0258802 0 0)
(0.0413517 -0.00286873 0 0.0291784 0 0)
(0.0406193 -0.000817981 0 0.0327138 0 0)
(0.0401458 0.00158192 0 0.0364514 0 0)
(0.0400656 0.00440016 0 0.0403916 0 0)
(0.0404635 0.00763252 0 0.0444038 0 0)
(0.0414593 0.0113576 0 0.0485285 0 0)
(0.0431613 0.015451 0 0.0524917 0 0)
(0.0454245 0.0200698 0 0.0564672 0 0)
(0.00625528 -0.00227381 0 0.00430343 0 0)
(0.061965 -0.0127325 0 0.00597229 0 0)
(0.0554701 -0.0120726 0 0.00769065 0 0)
(0.0469324 -0.00907093 0 0.00951555 0 0)
(0.0456154 -0.00720842 0 0.0112065 0 0)
(0.0443689 -0.0064336 0 0.0129459 0 0)
(0.0427486 -0.00591511 0 0.0148384 0 0)
(0.0413605 -0.00513017 0 0.0168564 0 0)
(0.0402543 -0.00391427 0 0.0189308 0 0)
(0.0393901 -0.00231105 0 0.0210262 0 0)
(0.0388074 -0.000425352 0 0.0231458 0 0)
(0.0385794 0.00167938 0 0.0253271 0 0)
(0.0387502 0.00398427 0 0.0275712 0 0)
(0.0393951 0.00652523 0 0.0298925 0 0)
(0.0405567 0.00929337 0 0.0321962 0 0)
(0.0423007 0.0123244 0 0.0345014 0 0)
(0.0446888 0.0155246 0 0.0366352 0 0)
(0.0476149 0.0189796 0 0.0386862 0 0)
(0.00721439 -0.00218305 0 0.00380167 0 0)
(0.0630304 -0.011512 0 0.00494038 0 0)
(0.0558177 -0.0106946 0 0.00609947 0 0)
(0.0466601 -0.00773881 0 0.0074182 0 0)
(0.0448934 -0.00580089 0 0.00864133 0 0)
(0.0433436 -0.00476598 0 0.00976718 0 0)
(0.0416406 -0.00391904 0 0.010831 0 0)
(0.0403941 -0.00288434 0 0.0118864 0 0)
(0.0395849 -0.00157584 0 0.0130053 0 0)
(0.0391015 -2.17322e-05 0 0.0142368 0 0)
(0.0389716 0.00173143 0 0.01558 0 0)
(0.0392947 0.00365945 0 0.0170051 0 0)
(0.0401444 0.00575555 0 0.0184619 0 0)
(0.0415753 0.00802284 0 0.019932 0 0)
(0.0436047 0.0104434 0 0.0213528 0 0)
(0.0462484 0.013018 0 0.0227348 0 0)
(0.0495584 0.0156871 0 0.0239774 0 0)
(0.0534086 0.0184793 0 0.0251341 0 0)
(0.00586203 -0.00142546 0 0.00338428 0 0)
(0.0612544 -0.00961206 0 0.00387911 0 0)
(0.0535744 -0.00898072 0 0.00486455 0 0)
(0.0443438 -0.0062228 0 0.00591385 0 0)
(0.0425436 -0.00423433 0 0.00689683 0 0)
(0.0409746 -0.00309801 0 0.00785495 0 0)
(0.0393595 -0.00220732 0 0.00879185 0 0)
(0.0383442 -0.0011503 0 0.00968675 0 0)
(0.0379363 0.000199721 0 0.0105306 0 0)
(0.0380485 0.00178994 0 0.0113427 0 0)
(0.0386769 0.00352123 0 0.0121542 0 0)
(0.0398486 0.00533664 0 0.012994 0 0)
(0.0415991 0.00723297 0 0.01385 0 0)
(0.0439764 0.00922417 0 0.0147089 0 0)
(0.0470115 0.0113075 0 0.0155173 0 0)
(0.0507016 0.0134852 0 0.0162839 0 0)
(0.0551054 0.0157072 0 0.0169279 0 0)
(0.060086 0.0179887 0 0.0174915 0 0)
(0.00728228 -0.00152078 0 0.00312297 0 0)
(0.0599904 -0.00813438 0 0.00354191 0 0)
(0.0520806 -0.00698334 0 0.00401532 0 0)
(0.0432813 -0.00417266 0 0.00450115 0 0)
(0.0417634 -0.00220557 0 0.00492739 0 0)
(0.0402709 -0.00107093 0 0.00528991 0 0)
(0.038746 -0.000235021 0 0.00562111 0 0)
(0.0380403 0.000638417 0 0.00598064 0 0)
(0.038196 0.00167962 0 0.00640739 0 0)
(0.0390399 0.00289482 0 0.00689735 0 0)
(0.0405029 0.00424054 0 0.00741621 0 0)
(0.0425811 0.00567347 0 0.00792982 0 0)
(0.0452692 0.00716993 0 0.0084127 0 0)
(0.0485884 0.00872572 0 0.00886133 0 0)
(0.0525667 0.0103182 0 0.00925214 0 0)
(0.0572044 0.0119368 0 0.0095977 0 0)
(0.0625238 0.0135244 0 0.00986522 0 0)
(0.0683949 0.0150896 0 0.0100745 0 0)
(0.00666259 -0.0018627 0 0.00293305 0 0)
(0.0606312 -0.00785113 0 0.00332325 0 0)
(0.0517799 -0.00621765 0 0.00356329 0 0)
(0.0424861 -0.00342867 0 0.00404158 0 0)
(0.0410396 -0.00151042 0 0.00451693 0 0)
(0.0397299 -0.000439122 0 0.0049031 0 0)
(0.0383757 0.000282552 0 0.00519798 0 0)
(0.0378551 0.00100435 0 0.00542972 0 0)
(0.0382366 0.00186271 0 0.00562461 0 0)
(0.0393211 0.00285976 0 0.00579816 0 0)
(0.0409973 0.00395252 0 0.005959 0 0)
(0.0432667 0.00510302 0 0.0061161 0 0)
(0.0461965 0.00629587 0 0.00627463 0 0)
(0.0498496 0.00752275 0 0.00644012 0 0)
(0.0542544 0.0087591 0 0.00659335 0 0)
(0.0593616 0.00998944 0 0.00674557 0 0)
(0.065191 0.0111765 0 0.00686314 0 0)
(0.0715759 0.0123385 0 0.00694622 0 0)
(0.00654511 -0.00173548 0 0.00235244 0 0)
(0.0585615 -0.00647685 0 0.00230154 0 0)
(0.0485189 -0.00465641 0 0.00232657 0 0)
(0.0394152 -0.00227761 0 0.00248319 0 0)
(0.0385457 -0.000723529 0 0.00261213 0 0)
(0.0378963 8.61868e-05 0 0.00266814 0 0)
(0.0373786 0.000566424 0 0.0027274 0 0)
(0.0378611 0.00105517 0 0.00282628 0 0)
(0.0393161 0.00169201 0 0.00294967 0 0)
(0.0414806 0.0024569 0 0.00306635 0 0)
(0.0442662 0.00326667 0 0.00315601 0 0)
(0.047725 0.00406041 0 0.00322276 0 0)
(0.0519353 0.00481569 0 0.00327461 0 0)
(0.0569199 0.00552713 0 0.00331581 0 0)
(0.0626744 0.00618912 0 0.00333641 0 0)
(0.0691053 0.0068009 0 0.00334296 0 0)
(0.0762295 0.00734392 0 0.00332137 0 0)
(0.0838535 0.00784587 0 0.00327004 0 0)
(0.00748926 -0.00164391 0 0.00189317 0 0)
(0.0583254 -0.0050705 0 0.00152284 0 0)
(0.0470815 -0.00394811 0 0.00161294 0 0)
(0.0380977 -0.00190761 0 0.00190808 0 0)
(0.0375899 -0.000393934 0 0.00204728 0 0)
(0.0372204 0.000414617 0 0.00200976 0 0)
(0.0371302 0.00090158 0 0.00192762 0 0)
(0.038235 0.0013692 0 0.00189286 0 0)
(0.0404278 0.00192018 0 0.00189702 0 0)
(0.0434014 0.00253246 0 0.00190216 0 0)
(0.047088 0.00315494 0 0.00189111 0 0)
(0.0515704 0.00375371 0 0.00186849 0 0)
(0.056912 0.00431359 0 0.00184278 0 0)
(0.0630869 0.00482851 0 0.00181977 0 0)
(0.070034 0.00528808 0 0.00179376 0 0)
(0.0776188 0.00568839 0 0.00176583 0 0)
(0.085846 0.00600566 0 0.00172777 0 0)
(0.0945102 0.00625388 0 0.00167812 0 0)
(0.00511164 -0.00115668 0 0.00162098 0 0)
(0.0553613 -0.00251824 0 0.000850821 0 0)
(0.0445234 -0.001525 0 0.000726233 0 0)
(0.0367054 -0.000389881 0 0.000809371 0 0)
(0.0369705 0.000390854 0 0.000816347 0 0)
(0.0371096 0.000709891 0 0.00078948 0 0)
(0.0376069 0.000818648 0 0.000780301 0 0)
(0.0395007 0.000911447 0 0.000779659 0 0)
(0.0426504 0.00103888 0 0.000765846 0 0)
(0.0466888 0.00116571 0 0.00073397 0 0)
(0.0515079 0.0012541 0 0.000695717 0 0)
(0.0571482 0.00128976 0 0.000662597 0 0)
(0.0636367 0.00127763 0 0.000638327 0 0)
(0.0709244 0.00122252 0 0.000621668 0 0)
(0.0789565 0.00111661 0 0.000608063 0 0)
(0.0876163 0.000951166 0 0.000596245 0 0)
(0.0969413 0.000704072 0 0.000583581 0 0)
(0.106738 0.000387183 0 0.000566236 0 0)
(0.00717625 -0.00111669 0 0.00128884 0 0)
(0.0552106 -0.00272885 0 0.000618864 0 0)
(0.0425896 -0.00195137 0 0.000661847 0 0)
(0.0353589 -0.000566298 0 0.000665282 0 0)
(0.0362455 0.000228782 0 0.000556187 0 0)
(0.0369707 0.000533153 0 0.000457143 0 0)
(0.0384252 0.000688882 0 0.00040034 0 0)
(0.041627 0.000806287 0 0.000361573 0 0)
(0.0462433 0.000866572 0 0.000326714 0 0)
(0.0517654 0.000852901 0 0.000293906 0 0)
(0.0580271 0.000777733 0 0.000265373 0 0)
(0.0650651 0.000658086 0 0.00024309 0 0)
(0.0728834 0.000500873 0 0.000227742 0 0)
(0.0814194 0.000294863 0 0.000219104 0 0)
(0.090542 1.90937e-05 0 0.000216438 0 0)
(0.100139 -0.000347842 0 0.000220471 0 0)
(0.110154 -0.000819892 0 0.000232241 0 0)
(0.120452 -0.00138837 0 0.00024957 0 0)
(0.00532002 -0.000126747 0 0.000776291 0 0)
(0.0520082 0.000544806 0 0.00024027 0 0)
(0.0399065 0.000133635 0 0.000211685 0 0)
(0.0339486 0.000221459 0 0.000220908 0 0)
(0.035882 8.58928e-05 0 0.000248206 0 0)
(0.0375136 -0.000207578 0 0.000277758 0 0)
(0.0396255 -0.000538967 0 0.000302164 0 0)
(0.0430919 -0.000891695 0 0.000327057 0 0)
(0.0474599 -0.0012793 0 0.000356592 0 0)
(0.0521079 -0.00170362 0 0.000388586 0 0)
(0.0567172 -0.0021471 0 0.000422814 0 0)
(0.0612118 -0.00258473 0 0.000461054 0 0)
(0.0655088 -0.00299314 0 0.000502343 0 0)
(0.069602 -0.00337185 0 0.000546159 0 0)
(0.0733433 -0.00373286 0 0.000592618 0 0)
(0.0767785 -0.00410468 0 0.000645099 0 0)
(0.0797098 -0.00449501 0 0.000704983 0 0)
(0.0822969 -0.00491923 0 0.00076844 0 0)
(0.00599889 -0.000439749 0 0.000669416 0 0)
(0.0547628 -0.000226825 0 0.000199884 0 0)
(0.0484927 1.99768e-05 0 0.000133311 0 0)
(0.047099 0.000298263 0 8.99698e-05 0 0)
(0.0522543 0.000353461 0 6.9741e-05 0 0)
(0.0566291 0.000372643 0 6.4502e-05 0 0)
(0.0606658 0.000428419 0 6.41935e-05 0 0)
(0.0654634 0.00050408 0 6.76598e-05 0 0)
(0.0713391 0.000578596 0 7.60728e-05 0 0)
(0.0782862 0.000655764 0 8.77004e-05 0 0)
(0.08626 0.000750501 0 9.99281e-05 0 0)
(0.0952301 0.000870311 0 0.000112878 0 0)
(0.10526 0.00101665 0 0.000128014 0 0)
(0.116412 0.00118628 0 0.00014498 0 0)
(0.128884 0.00137097 0 0.000162132 0 0)
(0.142538 0.0015578 0 0.000179487 0 0)
(0.157663 0.00174147 0 0.00019716 0 0)
(0.173691 0.00192929 0 0.000214372 0 0)
(0.000226182 -0.000497371 4.48539e-22 0.00110323 -9.38535e-22 5.48599e-37)
(0.00265634 -0.0019392 -1.34371e-21 0.0014306 9.24203e-22 5.40926e-37)
(0.00818821 -0.00342689 0 0.00144716 0 0)
(0.0168267 -0.00496901 0 0.00147587 0 0)
(0.0287544 -0.00659764 0 0.00151757 0 0)
(0.0441805 -0.00833095 4.8184e-21 0.00157234 -8.96927e-22 5.09513e-37)
(0.0632836 -0.0101734 0 0.00163905 0 0)
(0.0862835 -0.0121228 0 0.00171447 0 0)
(0.113361 -0.0141674 0 0.00179485 0 0)
(0.144704 -0.0162893 0 0.00187595 0 0)
(0.180458 -0.018465 -8.91759e-21 0.00195394 8.34314e-22 4.71951e-37)
(0.220744 -0.0206667 0 0.00202505 0 0)
(0.265638 -0.0228654 0 0.00208687 0 0)
(0.315158 -0.0250298 0 0.00213698 0 0)
(0.369256 -0.0271223 0 0.00217299 0 0)
(0.427796 -0.0291036 -1.25142e-20 0.00219327 7.169e-22 4.3623e-37)
(0.490546 -0.0309269 0 0.00219517 0 0)
(0.557173 -0.03254 0 0.00217683 0 0)
(0.627222 -0.0338907 0 0.00213695 0 0)
(0.70012 -0.0349196 0 0.00207306 0 0)
(0.775167 -0.0355718 0 0.00198552 0 0)
(0.851507 -0.0357926 0 0.00187371 0 0)
(0.92818 -0.0355357 0 0.0017401 0 0)
(1.00411 -0.0347677 -1.65965e-20 0.00158741 4.48719e-22 3.82846e-37)
(1.07811 -0.0334633 1.69291e-20 0.00141954 -4.12065e-22 3.76498e-37)
(1.14893 -0.0316189 -1.72191e-20 0.00124195 3.7551e-22 3.70222e-37)
(1.21529 -0.029247 -1.74663e-20 0.00106044 3.39358e-22 3.64018e-37)
(1.27593 -0.0263811 0 0.00088166 0 0)
(1.32965 -0.0230784 0 0.000712719 0 0)
(1.37535 -0.0194155 1.79536e-20 0.000558548 -2.35992e-22 3.45838e-37)
(1.41213 -0.0154799 1.80339e-20 0.000425472 -2.04125e-22 3.39922e-37)
(1.43926 -0.01138 0 0.000316511 0 0)
(1.45626 -0.00721942 0 0.00023335 0 0)
(1.46294 -0.00309897 1.80508e-20 0.000176841 -1.19611e-22 3.22604e-37)
(1.45942 0.000883519 0 0.000145033 0 0)
(1.44596 0.00465053 0 0.000135645 0 0)
(1.42309 0.00811819 -1.77806e-20 0.000145195 5.41124e-23 3.05929e-37)
(1.39154 0.0112255 0 0.000170187 0 0)
(1.35222 0.0139166 -1.74782e-20 0.000206213 2.15108e-23 2.95168e-37)
(1.30616 0.0161615 -3.45983e-20 0.000249037 1.68664e-23 1.15957e-36)
(1.25448 0.0179441 0 0.000294458 0 0)
(1.19833 0.0192683 0 0.000338788 0 0)
(1.13889 0.0201513 0 0.0003789 0 0)
(1.07722 0.0206211 0 0.000412316 0 0)
(1.01439 0.0207254 0 0.000437837 0 0)
(0.951354 0.0204996 -3.20139e-20 0.000454106 -6.47095e-23 1.03885e-36)
(0.888947 0.0200158 -3.15524e-20 0.000462045 -6.87372e-23 1.01969e-36)
(0.8278 0.0193008 -3.10911e-20 0.000460986 -7.08027e-23 1.00081e-36)
(0.768556 0.0184331 0 0.000453169 0 0)
(0.71169 0.0174243 3.01789e-20 0.00043801 7.06303e-23 9.63846e-37)
(0.657446 0.0163313 0 0.000417556 0 0)
(0.60617 0.0152019 -2.92914e-20 0.000393631 -6.62384e-23 9.27951e-37)
(0.55799 0.0140537 -2.88601e-20 0.000366813 -6.30247e-23 9.10399e-37)
(0.51295 0.0129169 0 0.000338513 0 0)
(0.471095 0.0118036 0 0.00030924 0 0)
(0.432378 0.0107374 0 0.000280271 0 0)
(0.396661 0.00971855 -2.72309e-20 0.000251708 -4.70746e-23 8.42774e-37)
(0.363825 0.00876024 0 0.000224359 0 0)
(0.333749 0.0078668 0 0.000198563 0 0)
(0.306282 0.00704017 0 0.00017455 0 0)
(0.28126 0.00628042 0 0.000152454 0 0)
(0.258515 0.00558627 0 0.000132333 0 0)
(0.237881 0.00495535 0 0.000114181 0 0)
(0.219194 0.00438456 0 9.79434e-05 0 0)
(0.202294 0.00387032 0 8.35336e-05 0 0)
(0.187031 0.00340877 2.41306e-20 7.08399e-05 1.43147e-23 7.05132e-37)
(0.173262 0.00299591 0 5.9736e-05 0 0)
(0.16085 0.00262774 0 5.00878e-05 0 0)
(0.149672 0.00230035 -2.32462e-20 4.17585e-05 -7.14592e-24 6.63485e-37)
(0.139611 0.00200995 -2.29649e-20 3.46134e-05 -5.18446e-24 6.50052e-37)
(0.13056 0.00175298 0 2.85222e-05 0 0)
(0.122421 0.00152606 2.24204e-20 2.33614e-05 1.85064e-24 6.23842e-37)
(0.115104 0.00132607 -2.21566e-20 1.90159e-05 -4.57216e-25 6.11061e-37)
(0.108527 0.00115013 0 1.53796e-05 0 0)
(0.102616 0.000995602 2.16442e-20 1.23557e-05 -1.83927e-24 5.86133e-37)
(0.0973039 0.000860078 0 9.85714e-06 0 0)
(0.092529 0.000741378 0 7.80611e-06 0 0)
(0.0882371 0.000637545 -2.09098e-20 6.13374e-06 4.22988e-24 5.50286e-37)
(0.0843785 0.000546809 0 4.77949e-06 0 0)
(0.080909 0.000467603 2.04399e-20 3.69082e-06 -5.24993e-24 5.27388e-37)
(0.0777886 0.000398517 0 2.82219e-06 0 0)
(0.0749817 0.000338312 -1.99838e-20 2.13474e-06 5.90735e-24 5.05265e-37)
(0.0724562 0.000285879 -1.97605e-20 1.59531e-06 6.12283e-24 4.94489e-37)
(0.0701834 0.000240256 -1.95401e-20 1.17605e-06 6.27529e-24 4.83899e-37)
(0.0681377 0.000200578 -3.86448e-20 8.5353e-07 1.27417e-23 1.89397e-36)
(0.0662962 0.000166107 3.82147e-20 6.08396e-07 -1.28347e-23 1.85307e-36)
(0.0646383 0.000136181 0 4.24573e-07 0 0)
(0.0631458 0.000110239 0 2.88959e-07 0 0)
(0.061802 8.77664e-05 0 1.90783e-07 0 0)
(0.0605924 6.83324e-05 3.65411e-20 1.21399e-07 -1.24686e-23 1.6965e-36)
(0.0595039 5.15568e-05 3.61333e-20 7.38601e-08 -1.22464e-23 1.65907e-36)
(0.0585248 3.71266e-05 -3.57295e-20 4.26902e-08 1.19899e-23 1.62231e-36)
(0.0576442 2.47749e-05 0 2.35562e-08 0 0)
(0.0568529 1.43144e-05 3.49331e-20 1.31237e-08 -1.1419e-23 1.55074e-36)
(0.0561422 5.56558e-06 3.45401e-20 8.7173e-09 -1.11125e-23 1.51591e-36)
(0.0555041 -1.69754e-06 3.41504e-20 8.20028e-09 -1.07997e-23 1.48171e-36)
(0.0549316 -7.72589e-06 0 9.94884e-09 0 0)
(0.0544184 -1.27189e-05 0 1.27846e-08 0 0)
(0.0539588 -1.69031e-05 0 1.59584e-08 0 0)
(0.0535478 -2.04754e-05 3.2623e-20 1.90644e-08 -9.59089e-24 1.351e-36)
(0.0531813 -2.35799e-05 0 2.18614e-08 0 0)
(0.0528555 -2.64002e-05 0 2.43913e-08 0 0)
(0.0525675 -2.91017e-05 -3.15083e-20 2.68321e-08 8.80189e-24 1.2591e-36)
(0.0523145 -3.17806e-05 0 2.93038e-08 0 0)
(0.0520944 -3.46328e-05 0 3.23932e-08 0 0)
(0.0519058 -3.7723e-05 -3.04186e-20 3.64196e-08 8.14539e-24 1.1722e-36)
(0.051747 -4.11173e-05 0 4.17467e-08 0 0)
(0.0516182 -4.4994e-05 0 4.93209e-08 0 0)
(0.0515188 -4.90774e-05 2.93527e-20 5.87416e-08 -7.61981e-24 1.09006e-36)
(0.0514466 -5.30371e-05 2.90025e-20 6.91254e-08 -7.44477e-24 1.06371e-36)
(0.0514 -5.66852e-05 0 7.98005e-08 0 0)
(0.051377 -5.98776e-05 -2.83094e-20 9.00654e-08 7.06673e-24 1.01248e-36)
(0.0513754 -6.24379e-05 0 9.90088e-08 0 0)
(0.0513931 -6.43572e-05 2.76258e-20 1.06229e-07 -6.63328e-24 9.63185e-37)
(0.0514281 -6.57386e-05 0 1.11857e-07 0 0)
(0.0514785 -6.65761e-05 2.6951e-20 1.15664e-07 -6.1666e-24 9.15755e-37)
(0.0515422 -6.6829e-05 2.66169e-20 1.17323e-07 -5.92698e-24 8.92721e-37)
(0.0516174 -6.65018e-05 0 1.167e-07 0 0)
(0.0517019 -6.56569e-05 0 1.13959e-07 0 0)
(0.0517942 -6.4399e-05 0 1.09518e-07 0 0)
(0.0518927 -6.28765e-05 0 1.04023e-07 0 0)
(0.0519966 -6.12281e-05 0 9.81115e-08 0 0)
(0.0521051 -5.95672e-05 0 9.2273e-08 0 0)
(0.0522178 -5.79644e-05 0 8.67882e-08 0 0)
(0.0523346 -5.64526e-05 2.4018e-20 8.17667e-08 -4.12566e-24 7.23892e-37)
(0.0524553 -5.50436e-05 -2.37022e-20 7.72155e-08 3.94841e-24 7.04617e-37)
(0.0525797 -5.37312e-05 0 7.30962e-08 0 0)
(0.0527077 -5.25132e-05 0 6.93674e-08 0 0)
(0.0528393 -5.13816e-05 0 6.59917e-08 0 0)
(0.0529743 -5.03361e-05 0 6.29416e-08 0 0)
(0.0531126 -4.93715e-05 -4.43036e-20 6.0191e-08 6.49096e-24 2.45555e-36)
(0.053254 -4.84875e-05 0 5.77173e-08 0 0)
(0.0533985 -4.76779e-05 4.30897e-20 5.54949e-08 -6.06393e-24 2.32047e-36)
(0.0535461 -4.69417e-05 -4.24884e-20 5.35026e-08 5.87234e-24 2.255e-36)
(0.0536965 -4.62717e-05 0 5.17162e-08 0 0)
(0.0538498 -4.56664e-05 0 5.01168e-08 0 0)
(0.0540059 -4.5119e-05 0 4.86846e-08 0 0)
(0.0541647 -4.46287e-05 4.01192e-20 4.74041e-08 -5.25338e-24 2.00642e-36)
(0.0543262 -4.41935e-05 3.95358e-20 4.62675e-08 -5.13068e-24 1.94749e-36)
(0.0544905 -4.38092e-05 0 4.52562e-08 0 0)
(0.0546574 -4.3475e-05 3.83796e-20 4.43657e-08 -4.91198e-24 1.83334e-36)
(0.054827 -4.31814e-05 3.78068e-20 4.35728e-08 -4.8144e-24 1.77808e-36)
(0.0549993 -4.2928e-05 -3.72373e-20 4.28721e-08 4.72092e-24 1.72401e-36)
(0.0551744 -4.2708e-05 0 4.22485e-08 0 0)
(0.0553521 -4.25229e-05 0 4.17013e-08 0 0)
(0.0555327 -4.23678e-05 -3.55494e-20 4.12198e-08 4.46008e-24 1.5687e-36)
(0.055716 -4.22448e-05 0 4.08052e-08 0 0)
(0.0559021 -4.21503e-05 0 4.04498e-08 0 0)
(0.056091 -4.20863e-05 0 4.01557e-08 0 0)
(0.0562829 -4.20511e-05 0 3.99191e-08 0 0)