/*--------------------------------*- C++ -*----------------------------------*\
  =========                 |
  \\      /  F ield         | OpenFOAM: The Open Source CFD Toolbox
   \\    /   O peration     | Website:  https://openfoam.org
    \\  /    A nd           | Version:  7
     \\/     M anipulation  |
\*---------------------------------------------------------------------------*/
FoamFile
{
    version     2.0;
    format      ascii;
    class       volScalarField;
    location    "0.037";
    object      k;
}
// * * * * * * * * * * * * * * * * * * * * * * * * * * * * * * * * * * * * * //

dimensions      [0 2 -2 0 0 0 0];

internalField   nonuniform List<scalar> 
12225
(
1.92848e-05
1.81559e-05
1.67144e-05
1.53696e-05
1.41091e-05
1.24731e-05
1.1283e-05
1.05342e-05
8.96542e-06
7.28602e-06
6.67872e-06
6.62703e-06
6.54731e-06
5.89405e-06
4.61169e-06
4.01567e-06
4.51861e-06
6.61253e-06
1.99788e-05
1.98816e-05
1.97254e-05
1.93881e-05
1.91137e-05
1.87837e-05
1.80747e-05
1.79046e-05
1.80445e-05
1.7938e-05
1.73634e-05
1.62215e-05
1.55439e-05
1.51239e-05
1.46992e-05
1.41255e-05
1.39065e-05
1.39301e-05
1.99989e-05
1.9379e-05
1.9042e-05
1.90094e-05
1.90329e-05
1.9047e-05
1.90044e-05
1.89408e-05
1.89297e-05
1.89e-05
1.88003e-05
1.85223e-05
1.83273e-05
1.818e-05
1.8053e-05
1.78078e-05
1.74936e-05
1.72544e-05
2.00277e-05
2.02534e-05
2.02185e-05
1.88858e-05
1.83449e-05
1.88613e-05
1.9198e-05
1.90286e-05
1.81813e-05
1.7548e-05
1.73205e-05
1.7276e-05
1.73188e-05
1.7516e-05
1.76359e-05
1.76474e-05
1.76244e-05
1.75186e-05
2.15825e-05
2.46218e-05
2.41815e-05
2.51248e-05
3.0391e-05
3.51375e-05
3.5886e-05
3.47114e-05
2.85507e-05
2.13705e-05
1.83906e-05
1.771e-05
1.76852e-05
1.78199e-05
1.80788e-05
1.81787e-05
1.81883e-05
1.81153e-05
2.01801e-05
2.1344e-05
2.24028e-05
2.33482e-05
2.61965e-05
3.22526e-05
3.53038e-05
3.55604e-05
3.44458e-05
3.01486e-05
2.59673e-05
2.34295e-05
2.19787e-05
2.13843e-05
2.11941e-05
2.10714e-05
2.08345e-05
2.0209e-05
2.00471e-05
2.09602e-05
2.24438e-05
2.30158e-05
2.44399e-05
2.92849e-05
3.26769e-05
3.33418e-05
3.29207e-05
3.07138e-05
2.76957e-05
2.53625e-05
2.3694e-05
2.27671e-05
2.24796e-05
2.24821e-05
2.28144e-05
2.35185e-05
2.01067e-05
2.09916e-05
2.45745e-05
2.85147e-05
2.91684e-05
2.84809e-05
2.62717e-05
2.56737e-05
2.60819e-05
2.73213e-05
2.74088e-05
2.70741e-05
2.57767e-05
2.45615e-05
2.40993e-05
2.40572e-05
2.41777e-05
2.47028e-05
2.02162e-05
2.1893e-05
2.49743e-05
2.5921e-05
2.68687e-05
2.68468e-05
2.66894e-05
2.65482e-05
2.62648e-05
2.58799e-05
2.54352e-05
2.48421e-05
2.42248e-05
2.37967e-05
2.36382e-05
2.36371e-05
2.37536e-05
2.42626e-05
2.01607e-05
2.2055e-05
2.3741e-05
2.35191e-05
2.32466e-05
2.34142e-05
2.42787e-05
2.50193e-05
2.52047e-05
2.50503e-05
2.40931e-05
2.27351e-05
2.20571e-05
2.18453e-05
2.18333e-05
2.19268e-05
2.24399e-05
2.33717e-05
2.08416e-05
2.19652e-05
2.19961e-05
2.15205e-05
2.15384e-05
2.22582e-05
2.31724e-05
2.3415e-05
2.3366e-05
2.29075e-05
2.21445e-05
2.18751e-05
2.18618e-05
2.1943e-05
2.22929e-05
2.28579e-05
2.33054e-05
2.35773e-05
2.10166e-05
2.21969e-05
2.25984e-05
2.22518e-05
2.22369e-05
2.35506e-05
2.56175e-05
2.59457e-05
2.52479e-05
2.32361e-05
2.2222e-05
2.20207e-05
2.2072e-05
2.24822e-05
2.35727e-05
2.42432e-05
2.4469e-05
2.44709e-05
2.0748e-05
2.0894e-05
2.15373e-05
2.30875e-05
2.38583e-05
2.41093e-05
2.40992e-05
2.36297e-05
2.25081e-05
2.19603e-05
2.18549e-05
2.19706e-05
2.27726e-05
2.44769e-05
2.54884e-05
2.58597e-05
2.59193e-05
2.58587e-05
2.10051e-05
2.06528e-05
2.06033e-05
2.11306e-05
2.3438e-05
2.57563e-05
2.60146e-05
2.52161e-05
2.32104e-05
2.22372e-05
2.19693e-05
2.19838e-05
2.22239e-05
2.31552e-05
2.50564e-05
2.63498e-05
2.69377e-05
2.70739e-05
2.05815e-05
2.08029e-05
2.09519e-05
2.127e-05
2.22945e-05
2.30214e-05
2.30236e-05
2.23022e-05
2.13729e-05
2.0994e-05
2.08811e-05
2.08774e-05
2.09681e-05
2.14631e-05
2.29561e-05
2.42141e-05
2.48495e-05
2.51323e-05
2.01071e-05
2.0442e-05
2.09954e-05
2.14228e-05
2.15708e-05
2.15091e-05
2.11061e-05
2.0817e-05
2.07708e-05
2.0789e-05
2.08483e-05
2.09582e-05
2.12206e-05
2.15617e-05
2.18094e-05
2.1927e-05
2.19518e-05
2.19609e-05
2.05368e-05
2.16004e-05
2.16059e-05
2.10563e-05
2.06304e-05
2.0554e-05
2.05763e-05
2.06947e-05
2.07863e-05
2.08199e-05
2.08246e-05
2.08189e-05
2.07598e-05
2.06096e-05
2.05308e-05
2.05106e-05
2.05102e-05
2.05286e-05
2.00585e-05
2.05614e-05
2.08193e-05
2.08383e-05
2.08394e-05
2.08505e-05
2.09255e-05
2.12344e-05
2.15051e-05
2.15788e-05
2.15719e-05
2.14746e-05
2.1168e-05
2.08979e-05
2.07369e-05
2.06677e-05
2.06073e-05
2.05576e-05
2.00499e-05
2.01113e-05
2.01835e-05
2.03578e-05
2.0649e-05
2.08635e-05
2.09714e-05
2.09976e-05
2.09845e-05
2.09183e-05
2.08577e-05
2.07628e-05
2.06625e-05
2.05968e-05
2.05677e-05
2.05602e-05
2.05601e-05
2.0559e-05
2.04419e-05
2.0189e-05
2.01568e-05
2.02791e-05
2.04581e-05
2.06796e-05
2.08418e-05
2.0861e-05
2.08421e-05
2.08432e-05
2.0912e-05
2.11346e-05
2.12537e-05
2.12533e-05
2.11351e-05
2.10059e-05
2.10014e-05
2.10638e-05
2.06482e-05
2.05754e-05
2.03899e-05
2.0351e-05
2.03727e-05
2.05098e-05
2.06369e-05
2.06513e-05
2.06224e-05
2.05672e-05
2.05411e-05
2.05363e-05
2.0544e-05
2.05576e-05
2.05564e-05
2.05567e-05
2.05868e-05
2.07205e-05
2.0231e-05
2.03862e-05
2.04325e-05
2.05093e-05
2.05907e-05
2.08249e-05
2.11675e-05
2.12936e-05
2.12974e-05
2.12227e-05
2.08996e-05
2.05369e-05
2.03226e-05
2.02128e-05
2.01683e-05
2.01578e-05
2.01591e-05
2.01766e-05
2.00305e-05
2.0434e-05
2.08405e-05
2.08984e-05
2.08106e-05
2.06673e-05
2.06271e-05
2.06111e-05
2.05874e-05
2.05269e-05
2.04113e-05
2.03202e-05
2.02568e-05
2.02132e-05
2.01841e-05
2.01669e-05
2.0159e-05
2.01572e-05
2.00965e-05
2.03007e-05
2.0994e-05
2.1551e-05
2.14366e-05
2.08444e-05
2.04094e-05
2.02063e-05
2.01564e-05
2.01551e-05
2.01848e-05
2.02675e-05
2.03287e-05
2.0364e-05
2.03788e-05
2.03808e-05
2.03749e-05
2.03415e-05
2.0257e-05
2.02554e-05
2.06819e-05
2.12875e-05
2.14036e-05
2.11525e-05
2.05079e-05
2.01546e-05
2.00611e-05
2.00466e-05
2.00494e-05
2.00774e-05
2.01123e-05
2.01551e-05
2.01831e-05
2.01916e-05
2.01903e-05
2.01758e-05
2.00976e-05
2.03251e-05
2.08536e-05
2.10092e-05
2.09797e-05
2.06318e-05
2.02543e-05
2.01714e-05
2.02292e-05
2.07077e-05
2.14555e-05
2.16096e-05
2.14367e-05
2.08329e-05
2.04468e-05
2.02626e-05
2.01862e-05
2.01522e-05
2.00093e-05
2.0121e-05
2.01765e-05
2.01643e-05
2.00775e-05
1.99397e-05
1.9761e-05
1.94759e-05
1.91902e-05
1.90534e-05
1.90473e-05
1.91236e-05
1.94484e-05
2.01241e-05
2.07967e-05
2.11769e-05
2.17681e-05
2.1914e-05
2.02111e-05
1.74152e-05
1.26051e-05
1.36161e-05
1.79519e-05
2.41441e-05
2.73129e-05
2.88122e-05
2.99973e-05
3.15186e-05
3.42081e-05
4.00277e-05
5.51638e-05
6.97369e-05
8.24172e-05
8.85642e-05
9.49459e-05
9.83201e-05
3.18244e-05
8.09093e-05
0.000116166
0.000205471
0.000308993
0.000355795
0.000360749
0.000357615
0.000354921
0.000358043
0.00037334
0.000427388
0.0005333
0.000614067
0.000665713
0.000694556
0.000706097
0.000707196
0.00256342
0.00242135
0.00200976
0.00185458
0.00184697
0.00188496
0.0018959
0.00186363
0.00172112
0.00160157
0.0015586
0.00155194
0.00155522
0.00156631
0.00156887
0.00156463
0.00153964
0.00144801
6.65751e-06
1.32526e-05
1.63678e-05
2.40567e-05
3.44484e-05
4.71382e-05
6.27135e-05
8.04883e-05
0.000101077
0.000124486
0.000149642
0.000177309
0.000208688
0.000233092
0.000261885
0.000304027
0.000324283
0.000341984
0.000344878
0.000353158
0.000402196
0.000542434
0.000879513
0.00170403
0.00477693
0.00864097
0.00994307
0.0125395
0.021647
0.0283294
0.0193254
0.00449635
0.00154405
0.00102218
0.000959926
0.00100068
0.00102833
0.00104408
0.000990075
0.000882276
0.000727135
0.000594152
0.000428863
0.00031296
0.000231581
0.000141168
0.000103236
7.28662e-05
5.94362e-05
5.46099e-05
5.6373e-05
5.70958e-05
5.74746e-05
5.75625e-05
5.70537e-05
5.61664e-05
5.50311e-05
5.29469e-05
5.08037e-05
4.80683e-05
4.49341e-05
4.26322e-05
4.06756e-05
3.84062e-05
3.58687e-05
3.34386e-05
3.15674e-05
2.9731e-05
2.79867e-05
2.64968e-05
2.45997e-05
2.2962e-05
2.16291e-05
2.00764e-05
1.86493e-05
1.67286e-05
1.56678e-05
1.38739e-05
1.25579e-05
1.11343e-05
9.80513e-06
8.61755e-06
7.55681e-06
6.63558e-06
5.84262e-06
5.15887e-06
4.55989e-06
4.02657e-06
3.54762e-06
3.11839e-06
2.73649e-06
2.39838e-06
2.09898e-06
1.83287e-06
1.59536e-06
1.38247e-06
1.18801e-06
1.00768e-06
8.43464e-07
6.97064e-07
5.69176e-07
4.59752e-07
3.68288e-07
2.93505e-07
2.32914e-07
1.83358e-07
1.4303e-07
1.10528e-07
8.46109e-08
6.41682e-08
4.82192e-08
3.59167e-08
2.65248e-08
1.94313e-08
1.41341e-08
1.01912e-08
7.3003e-09
5.22224e-09
3.72593e-09
2.6475e-09
1.87091e-09
1.31326e-09
9.14714e-10
6.31678e-10
4.32225e-10
2.9291e-10
1.96536e-10
1.30541e-10
8.58196e-11
5.58469e-11
3.59904e-11
2.29818e-11
1.45469e-11
9.13057e-12
5.68469e-12
3.51175e-12
2.15308e-12
1.31044e-12
7.91895e-13
4.75199e-13
2.83196e-13
1.67629e-13
9.85642e-14
5.75843e-14
3.34416e-14
1.93199e-14
1.11188e-14
6.39018e-15
3.68324e-15
2.14472e-15
1.27667e-15
7.90684e-16
5.21029e-16
3.73177e-16
2.93602e-16
2.52203e-16
2.32148e-16
2.24001e-16
2.2205e-16
2.22045e-16
2.22045e-16
2.22045e-16
2.22045e-16
2.22045e-16
2.22045e-16
2.22045e-16
2.22045e-16
2.22045e-16
2.22045e-16
2.22045e-16
2.22045e-16
2.22045e-16
2.22045e-16
2.22045e-16
2.22045e-16
2.22045e-16
1.80458e-15
7.50836e-13
3.44093e-10
1.50881e-07
1.22394e-05
3.34551e-05
5.52885e-05
8.20032e-05
0.000120254
0.000170679
0.0002304
0.00030069
0.000381082
0.00046994
0.000565245
0.000670143
0.00078893
0.000914814
0.00105223
0.00122605
0.0014419
0.00160327
0.0016803
0.0018486
0.00236573
0.00406634
0.00871427
0.0139415
0.0171242
0.0177526
0.0166786
0.014958
0.0131497
0.00840528
0.00372983
0.0014557
0.000871667
0.00067948
0.00059476
0.000519893
0.000460945
0.00039318
0.000322043
0.000276938
0.000229889
0.000207795
0.000192797
0.000187601
0.000186667
0.000191343
0.000201284
0.000205732
0.000213636
0.000218587
0.000223253
0.000226115
0.000227772
0.000228308
0.000228006
0.000224691
0.000219161
0.000212059
0.000201898
0.000191708
0.000179083
0.000166395
0.000155651
0.000144996
0.000133898
0.000125015
0.000117026
0.000109129
0.000102408
9.69808e-05
9.143e-05
8.60198e-05
8.21102e-05
7.55687e-05
7.11004e-05
6.61792e-05
6.08127e-05
5.61369e-05
5.09135e-05
4.57079e-05
4.03221e-05
3.51452e-05
3.03943e-05
2.62069e-05
2.25448e-05
1.95619e-05
1.71199e-05
1.50457e-05
1.32567e-05
1.17035e-05
1.03472e-05
9.15667e-06
8.10893e-06
7.18643e-06
6.37403e-06
5.65804e-06
5.02899e-06
4.47724e-06
3.98852e-06
3.5507e-06
3.15375e-06
2.78582e-06
2.43741e-06
2.10927e-06
1.80517e-06
1.52941e-06
1.28382e-06
1.06835e-06
8.81427e-07
7.2089e-07
5.84418e-07
4.69607e-07
3.74076e-07
2.95491e-07
2.31555e-07
1.80099e-07
1.39041e-07
1.06465e-07
8.07475e-08
6.06118e-08
4.501e-08
3.30572e-08
2.40066e-08
1.72354e-08
1.22312e-08
8.57867e-09
5.94612e-09
4.07308e-09
2.75723e-09
1.84435e-09
1.21975e-09
7.9833e-10
5.17259e-10
3.31866e-10
2.10897e-10
1.32791e-10
8.28708e-11
5.12766e-11
3.14671e-11
1.91568e-11
1.15715e-11
6.93599e-12
4.1257e-12
2.43542e-12
1.42677e-12
8.29601e-13
4.78836e-13
2.74421e-13
1.56222e-13
8.83983e-14
4.97693e-14
2.79226e-14
1.56469e-14
8.78808e-15
4.97354e-15
2.85907e-15
1.68885e-15
1.04121e-15
6.82394e-16
4.83252e-16
3.72178e-16
3.0987e-16
2.74505e-16
2.54242e-16
2.4238e-16
2.35366e-16
2.31081e-16
2.28441e-16
2.26768e-16
2.25683e-16
2.24946e-16
2.24683e-16
2.24289e-16
2.26303e-16
2.25946e-16
2.24818e-16
3.06011e-16
4.62573e-14
2.6993e-11
1.39953e-08
1.11211e-05
3.85045e-05
7.21096e-05
0.000115532
0.000167047
0.000233884
0.000318972
0.000429392
0.000559889
0.000711715
0.000896846
0.00112387
0.00139839
0.00173244
0.00213361
0.0026257
0.00329626
0.00427332
0.00566037
0.00714914
0.00883036
0.0105853
0.0119954
0.0129708
0.0124909
0.0104386
0.00787344
0.00527192
0.00247325
0.00139917
0.000726375
0.000459216
0.000358055
0.000307731
0.000271
0.000241804
0.000227376
0.000215794
0.000210498
0.000208579
0.000208183
0.00021156
0.000215921
0.000227879
0.000241395
0.000257705
0.0002712
0.000285868
0.000300282
0.000318154
0.000331865
0.000344361
0.000351009
0.000354423
0.000355778
0.000355967
0.000353543
0.000346608
0.000337978
0.000327923
0.000315834
0.000301579
0.000283146
0.000265864
0.000248932
0.000231061
0.000215596
0.000202671
0.000186709
0.000174155
0.000164528
0.000156207
0.00015088
0.000138757
0.000130582
0.000125309
0.000114993
0.000107562
9.90938e-05
9.10969e-05
8.34506e-05
7.59297e-05
6.76993e-05
5.85983e-05
4.93515e-05
4.09507e-05
3.42252e-05
2.89424e-05
2.46289e-05
2.09476e-05
1.77958e-05
1.50916e-05
1.27772e-05
1.08168e-05
9.18222e-06
7.84164e-06
6.7553e-06
5.87785e-06
5.16426e-06
4.57501e-06
4.07866e-06
3.65539e-06
3.29145e-06
2.97011e-06
2.67776e-06
2.40564e-06
2.14753e-06
1.90117e-06
1.66784e-06
1.44964e-06
1.24815e-06
1.06435e-06
8.98611e-07
7.50819e-07
6.20707e-07
5.07914e-07
4.1141e-07
3.29864e-07
2.61838e-07
2.05741e-07
1.59988e-07
1.23083e-07
9.36543e-08
7.04609e-08
5.24017e-08
3.85134e-08
2.79669e-08
2.00617e-08
1.42156e-08
9.95174e-09
6.88413e-09
4.70675e-09
3.18179e-09
2.12701e-09
1.40609e-09
9.19263e-10
5.94484e-10
3.8045e-10
2.41069e-10
1.51294e-10
9.40692e-11
5.79539e-11
3.53801e-11
2.14034e-11
1.28309e-11
7.62243e-12
4.48769e-12
2.6189e-12
1.51533e-12
8.69736e-13
4.95492e-13
2.80439e-13
1.57866e-13
8.85198e-14
4.95337e-14
2.77302e-14
1.558e-14
8.82649e-15
5.07229e-15
2.98507e-15
1.8174e-15
1.16303e-15
7.89728e-16
5.77646e-16
4.51953e-16
3.79666e-16
3.34398e-16
3.08331e-16
2.91419e-16
2.82498e-16
2.75836e-16
2.90101e-16
2.89665e-16
6.33406e-16
5.75318e-16
3.6828e-16
4.66383e-16
2.99029e-15
1.61478e-12
6.45201e-10
1.40409e-05
4.57267e-05
8.23769e-05
0.000133145
0.00018931
0.000256363
0.000350931
0.000476596
0.000626763
0.000813776
0.00106
0.00138079
0.00179611
0.00233275
0.00300172
0.00379745
0.00467409
0.0055881
0.00646556
0.00728989
0.0078051
0.00800696
0.00723636
0.0057601
0.00429241
0.00299829
0.0019023
0.00113273
0.000610823
0.000402309
0.000299815
0.000256364
0.00023675
0.000227124
0.000222705
0.000221344
0.00022342
0.000228246
0.000241299
0.000261771
0.000287958
0.000313607
0.000344675
0.000361639
0.000376657
0.000386625
0.000394033
0.000405815
0.000415293
0.000425458
0.000431865
0.0004348
0.000435479
0.000431297
0.000421048
0.000415524
0.000410323
0.000398363
0.000386288
0.000371949
0.000357174
0.000345993
0.000325341
0.000303129
0.000290251
0.000271644
0.000257505
0.000248843
0.000237592
0.000224198
0.000209859
0.000201373
0.000196225
0.000184109
0.000172004
0.000159586
0.000145417
0.00013203
0.000120052
0.000109561
0.00010088
9.35209e-05
8.67805e-05
8.01494e-05
7.35524e-05
6.68641e-05
5.97973e-05
5.20734e-05
4.46686e-05
3.81217e-05
3.24659e-05
2.76028e-05
2.3315e-05
1.94223e-05
1.59093e-05
1.28379e-05
1.02742e-05
8.23527e-06
6.66584e-06
5.48185e-06
4.59699e-06
3.932e-06
3.42267e-06
3.0219e-06
2.70144e-06
2.4403e-06
2.21629e-06
2.00652e-06
1.79715e-06
1.59479e-06
1.40229e-06
1.22184e-06
1.05552e-06
9.04542e-07
7.6899e-07
6.48006e-07
5.41106e-07
4.47773e-07
3.67249e-07
2.98556e-07
2.40583e-07
1.92155e-07
1.52094e-07
1.19272e-07
9.26446e-08
7.12506e-08
5.42271e-08
4.08172e-08
3.03661e-08
2.23145e-08
1.61881e-08
1.15887e-08
8.18467e-09
5.70326e-09
3.92225e-09
2.66323e-09
1.78612e-09
1.18351e-09
7.74996e-10
5.01699e-10
3.2119e-10
2.03418e-10
1.27451e-10
7.89976e-11
4.84373e-11
2.93792e-11
1.76289e-11
1.0467e-11
6.15161e-12
3.58075e-12
2.06597e-12
1.18278e-12
6.72828e-13
3.80956e-13
2.15112e-13
1.21465e-13
6.87782e-14
3.92666e-14
2.27113e-14
1.35123e-14
8.29576e-15
5.38916e-15
3.62616e-15
2.68468e-15
2.02485e-15
1.75003e-15
1.48502e-15
1.44889e-15
1.39578e-15
1.47352e-15
1.51723e-15
1.66328e-15
2.06302e-15
2.24369e-15
4.66375e-15
3.77202e-15
3.9364e-14
3.21914e-14
4.99459e-13
2.97575e-11
1.49145e-05
4.86312e-05
9.02208e-05
0.000141463
0.000199196
0.000259534
0.000319241
0.00038796
0.00049124
0.000664545
0.000917831
0.00122615
0.00158626
0.00200402
0.00246159
0.00294352
0.00342884
0.00378048
0.00394011
0.00397471
0.00356044
0.00308566
0.00249618
0.0018405
0.00132617
0.000850443
0.000544213
0.000378761
0.000287702
0.000251197
0.000236091
0.000230927
0.000229553
0.000230157
0.000237225
0.000250065
0.000272533
0.000308594
0.000346435
0.000377575
0.000400198
0.000433502
0.000458563
0.000488605
0.000518498
0.00054681
0.000574145
0.000594145
0.000614282
0.000646025
0.000662533
0.000669006
0.000667877
0.00063563
0.000587554
0.00056358
0.000542107
0.00050031
0.000473656
0.000438082
0.000398828
0.000379913
0.000349226
0.000313112
0.000296435
0.000273763
0.000260056
0.000254042
0.000248599
0.000239735
0.000228353
0.000222068
0.000219142
0.000211555
0.000201838
0.000181762
0.000161229
0.000141647
0.000125971
0.000113424
0.00010375
9.59558e-05
8.93698e-05
8.35526e-05
7.84077e-05
7.37682e-05
6.92706e-05
6.47104e-05
5.98959e-05
5.48258e-05
4.96234e-05
4.4559e-05
3.98654e-05
3.53681e-05
3.06974e-05
2.57179e-05
2.0597e-05
1.58893e-05
1.20529e-05
9.00338e-06
6.70817e-06
5.049e-06
3.88297e-06
3.07761e-06
2.5185e-06
2.11883e-06
1.8266e-06
1.61783e-06
1.47541e-06
1.36511e-06
1.26101e-06
1.14523e-06
1.02105e-06
8.96641e-07
7.76818e-07
6.65065e-07
5.63284e-07
4.72289e-07
3.92204e-07
3.22685e-07
2.63089e-07
2.12586e-07
1.7025e-07
1.35125e-07
1.06255e-07
8.27488e-08
6.38033e-08
4.86932e-08
3.67706e-08
2.74663e-08
2.02876e-08
1.48135e-08
1.06889e-08
7.61933e-09
5.36452e-09
3.73004e-09
2.56025e-09
1.73358e-09
1.15791e-09
7.63824e-10
4.98024e-10
3.2077e-10
2.04014e-10
1.28092e-10
7.93737e-11
4.85364e-11
2.92871e-11
1.744e-11
1.02522e-11
5.95369e-12
3.41916e-12
1.94495e-12
1.09833e-12
6.17627e-13
3.47259e-13
1.96215e-13
1.12081e-13
6.51388e-14
3.8736e-14
2.36742e-14
1.48964e-14
9.65047e-15
6.42281e-15
4.38345e-15
3.0621e-15
2.19217e-15
1.59595e-15
1.20698e-15
9.35013e-16
7.48071e-16
6.40498e-16
5.31285e-16
5.19932e-16
5.57705e-16
1.11491e-15
2.49975e-15
5.64161e-14
7.45606e-14
4.54281e-13
2.25364e-12
1.40419e-05
4.71641e-05
8.73701e-05
0.000133085
0.000184276
0.000235859
0.000289129
0.000346538
0.00041761
0.000515246
0.000641394
0.000793086
0.000973599
0.00119139
0.00141715
0.00160895
0.00172933
0.00177974
0.00177855
0.00164268
0.00142491
0.00116845
0.000903355
0.000655188
0.000479928
0.000349906
0.000284365
0.000254043
0.00024125
0.000237463
0.00023686
0.000240602
0.000251546
0.00027346
0.000310845
0.000358015
0.000395766
0.000431105
0.000471517
0.000518714
0.000574149
0.000643281
0.000719104
0.000819498
0.000945427
0.00108918
0.00124667
0.00137659
0.00146828
0.00151515
0.0015313
0.00150257
0.00146022
0.00135698
0.00119905
0.00110561
0.00103069
0.000898512
0.000834589
0.000774066
0.000658685
0.000588534
0.000532913
0.000438015
0.000397088
0.000349958
0.000313387
0.000295906
0.000285489
0.000277558
0.000269734
0.000264836
0.000264419
0.000270809
0.00027548
0.000252303
0.000212227
0.000170332
0.000140336
0.000120246
0.000106692
9.69911e-05
8.94694e-05
8.34164e-05
7.84673e-05
7.43089e-05
7.05662e-05
6.70065e-05
6.36578e-05
6.02663e-05
5.657e-05
5.25292e-05
4.8348e-05
4.45683e-05
4.12823e-05
3.82927e-05
3.51263e-05
3.09473e-05
2.54678e-05
1.95428e-05
1.43314e-05
1.02875e-05
7.24494e-06
5.06017e-06
3.55244e-06
2.54747e-06
1.89475e-06
1.47263e-06
1.19201e-06
1.00095e-06
8.74624e-07
8.01203e-07
7.54146e-07
7.07226e-07
6.47975e-07
5.79764e-07
5.08597e-07
4.38478e-07
3.72191e-07
3.11495e-07
2.57335e-07
2.10034e-07
1.69479e-07
1.35266e-07
1.06826e-07
8.34977e-08
6.45951e-08
4.9456e-08
3.74685e-08
2.80835e-08
2.08193e-08
1.52613e-08
1.10586e-08
7.91877e-09
5.60187e-09
3.91371e-09
2.69948e-09
1.83762e-09
1.23415e-09
8.17484e-10
5.33883e-10
3.43643e-10
2.17914e-10
1.36084e-10
8.36586e-11
5.06113e-11
3.01219e-11
1.76325e-11
1.01501e-11
5.7452e-12
3.19787e-12
1.75113e-12
9.44174e-13
5.02075e-13
2.64068e-13
1.37907e-13
7.19903e-14
3.80431e-14
2.06044e-14
1.15786e-14
6.82508e-15
4.24613e-15
2.78898e-15
1.91849e-15
1.38349e-15
1.03474e-15
7.9655e-16
6.42824e-16
5.13803e-16
4.44419e-16
5.17755e-16
7.74507e-16
3.24839e-15
1.12083e-14
9.38298e-14
2.17506e-13
2.83699e-12
2.93837e-12
8.50649e-12
8.35465e-12
1.23026e-05
4.27499e-05
7.91105e-05
0.000120568
0.000165507
0.000207428
0.000247325
0.000287764
0.000336146
0.000400915
0.000478279
0.000558654
0.000638623
0.000717026
0.000786072
0.000825444
0.000841788
0.000835674
0.000787986
0.000709688
0.000606125
0.000498184
0.000403456
0.000329749
0.000282452
0.000258093
0.000247949
0.000245274
0.000245492
0.000255553
0.000278854
0.000315228
0.000357462
0.000406096
0.000450801
0.000490967
0.000539214
0.000591527
0.00066482
0.000769744
0.000918956
0.00110984
0.00136326
0.00169188
0.00209441
0.00254209
0.00298224
0.00330201
0.00346279
0.00352511
0.00349763
0.00322067
0.00303167
0.00253675
0.00223751
0.00196299
0.00172665
0.00147241
0.00130113
0.00121461
0.00106446
0.000962919
0.00089768
0.000795206
0.000700092
0.000603299
0.000519202
0.000451873
0.0004146
0.000386661
0.000359623
0.000337537
0.000322701
0.000310949
0.000304075
0.000303226
0.000292561
0.000250059
0.000187401
0.000143906
0.00011801
0.000102111
9.14422e-05
8.38016e-05
7.80619e-05
7.35414e-05
6.99008e-05
6.68131e-05
6.39415e-05
6.12177e-05
5.85654e-05
5.57855e-05
5.25266e-05
4.87031e-05
4.51524e-05
4.22707e-05
3.98936e-05
3.79186e-05
3.59324e-05
3.29901e-05
2.81502e-05
2.19397e-05
1.59884e-05
1.12724e-05
7.70272e-06
5.13849e-06
3.38234e-06
2.23139e-06
1.50565e-06
1.0615e-06
7.92147e-07
6.24277e-07
5.17597e-07
4.55044e-07
4.24456e-07
4.05265e-07
3.80783e-07
3.47441e-07
3.08899e-07
2.68431e-07
2.28561e-07
1.9109e-07
1.57144e-07
1.27292e-07
1.01679e-07
8.01619e-08
6.24161e-08
4.80187e-08
3.65117e-08
2.74423e-08
2.03884e-08
1.49723e-08
1.0866e-08
7.7919e-09
5.5195e-09
3.86118e-09
2.6667e-09
1.8177e-09
1.22241e-09
8.10784e-10
5.3018e-10
3.41667e-10
2.16901e-10
1.35584e-10
8.34141e-11
5.0483e-11
3.00407e-11
1.75673e-11
1.00901e-11
5.68931e-12
3.1476e-12
1.70794e-12
9.08649e-13
4.73914e-13
2.42361e-13
1.21623e-13
5.99917e-14
2.91885e-14
1.41079e-14
6.84873e-15
3.4148e-15
1.80641e-15
1.03346e-15
6.84302e-16
5.02148e-16
3.77777e-16
3.84394e-16
5.07391e-16
1.03805e-15
2.68833e-15
8.01678e-15
2.22184e-14
6.33253e-14
1.53873e-13
5.11443e-13
8.39339e-13
2.70467e-12
2.82444e-12
3.21236e-12
4.30851e-12
1.00075e-05
3.63318e-05
6.81286e-05
0.000104889
0.000144702
0.000180695
0.000212228
0.000241752
0.000273782
0.000314047
0.00036183
0.000409406
0.000449269
0.00047797
0.000494053
0.000499823
0.000493041
0.000464687
0.000434199
0.000392528
0.000348321
0.00030771
0.000275829
0.000258933
0.000250814
0.000248448
0.000248697
0.000254145
0.000269137
0.000299196
0.00034263
0.000397112
0.000445321
0.000486168
0.000540308
0.000604085
0.000691917
0.000810498
0.000985421
0.00124569
0.00162066
0.00213373
0.00283252
0.00371436
0.00475568
0.00587647
0.00690278
0.00757064
0.00788291
0.00797112
0.00752811
0.00673024
0.00583891
0.00453299
0.00368104
0.00305791
0.00227413
0.00194429
0.00156814
0.00141416
0.00121808
0.00109702
0.00100409
0.000940191
0.000899457
0.000863323
0.000831438
0.000786559
0.000731325
0.000668184
0.00058629
0.00048864
0.000395351
0.000328748
0.000302052
0.000295779
0.00030397
0.000297897
0.000267729
0.000205237
0.000147437
0.000116724
9.93731e-05
8.85395e-05
8.09028e-05
7.47771e-05
7.00728e-05
6.65925e-05
6.37938e-05
6.12531e-05
5.88196e-05
5.65024e-05
5.42866e-05
5.19276e-05
4.86997e-05
4.4977e-05
4.19095e-05
3.96465e-05
3.79828e-05
3.67204e-05
3.5412e-05
3.30822e-05
2.87253e-05
2.25476e-05
1.63387e-05
1.13423e-05
7.56579e-06
4.87851e-06
3.06701e-06
1.90454e-06
1.19079e-06
7.68723e-07
5.25753e-07
3.85727e-07
3.02595e-07
2.54358e-07
2.31818e-07
2.22923e-07
2.14232e-07
1.99811e-07
1.80277e-07
1.57999e-07
1.34968e-07
1.12732e-07
9.2281e-08
7.41714e-08
5.86257e-08
4.56249e-08
3.49946e-08
2.6473e-08
1.97624e-08
1.45633e-08
1.05961e-08
7.61251e-09
5.39995e-09
3.78163e-09
2.61406e-09
1.78319e-09
1.20007e-09
7.9653e-10
5.21244e-10
3.36171e-10
2.13592e-10
1.33639e-10
8.23001e-11
4.98627e-11
2.9705e-11
1.7391e-11
1.00004e-11
5.64494e-12
3.12604e-12
1.69737e-12
9.03175e-13
4.70741e-13
2.40256e-13
1.20068e-13
5.87709e-14
2.82078e-14
1.33154e-14
6.22242e-15
2.92197e-15
1.42105e-15
7.48344e-16
4.56997e-16
3.32347e-16
2.67158e-16
2.58183e-16
3.35047e-16
7.02651e-16
1.86239e-15
5.50727e-15
1.49714e-14
4.08701e-14
9.51583e-14
3.09206e-13
4.5543e-13
9.17037e-13
1.17038e-12
1.28928e-12
1.66766e-12
7.60134e-06
2.92404e-05
5.56562e-05
8.74068e-05
0.000123618
0.000156519
0.000183531
0.000206595
0.000228986
0.000254995
0.000284832
0.00031597
0.00034443
0.000359653
0.000364756
0.000365752
0.000357508
0.000336582
0.00031677
0.000294772
0.000275737
0.000260273
0.000252826
0.0002503
0.000250067
0.000254037
0.000269915
0.00030753
0.000353464
0.000408531
0.000460894
0.000503961
0.00056824
0.000666922
0.000771175
0.000893444
0.00109156
0.00137221
0.00177205
0.00233433
0.00313792
0.00428436
0.00588553
0.00801829
0.0106968
0.0136086
0.0164288
0.018549
0.0195649
0.0198641
0.0184481
0.0160522
0.0130064
0.0101735
0.00723519
0.00578006
0.00378381
0.00291048
0.00204656
0.00165704
0.00133702
0.00119668
0.00103842
0.000949777
0.000894536
0.000872218
0.000887359
0.000912414
0.00092862
0.000934032
0.000887498
0.00077615
0.000568437
0.000385595
0.00029863
0.000264839
0.000256434
0.00028779
0.000286443
0.000259197
0.000204141
0.00014556
0.000112115
9.54067e-05
8.57131e-05
7.87601e-05
7.2586e-05
6.76691e-05
6.42715e-05
6.16753e-05
5.91932e-05
5.66958e-05
5.44605e-05
5.25322e-05
5.07094e-05
4.82628e-05
4.47711e-05
4.14037e-05
3.89193e-05
3.72498e-05
3.6149e-05
3.53435e-05
3.43425e-05
3.23347e-05
2.79514e-05
2.1622e-05
1.53903e-05
1.04288e-05
6.7533e-06
4.20404e-06
2.53578e-06
1.49901e-06
8.83323e-07
5.31664e-07
3.36766e-07
2.30048e-07
1.7009e-07
1.36152e-07
1.19995e-07
1.1501e-07
1.13065e-07
1.08963e-07
9.94662e-08
8.77804e-08
7.52812e-08
6.28402e-08
5.12264e-08
4.08744e-08
3.19814e-08
2.45756e-08
1.85707e-08
1.38139e-08
1.01231e-08
7.31254e-09
5.20886e-09
3.65959e-09
2.53613e-09
1.73358e-09
1.16869e-09
7.76872e-10
5.09077e-10
3.28752e-10
2.09147e-10
1.31028e-10
8.08013e-11
4.90245e-11
2.92502e-11
1.71529e-11
9.88091e-12
5.58803e-12
3.10078e-12
1.68728e-12
8.99838e-13
4.70099e-13
2.40483e-13
1.20434e-13
5.90531e-14
2.83745e-14
1.33925e-14
6.24506e-15
2.9145e-15
1.39924e-15
7.25389e-16
4.3269e-16
3.10694e-16
2.56128e-16
2.35533e-16
2.51808e-16
4.11564e-16
9.66845e-16
2.74371e-15
7.22493e-15
2.04862e-14
4.18854e-14
1.18794e-13
1.48142e-13
1.77951e-13
2.44151e-13
2.90543e-13
4.38513e-13
5.19841e-06
2.15943e-05
4.31591e-05
7.05866e-05
0.000101582
0.000133166
0.000160126
0.000179885
0.000196488
0.000215944
0.000236696
0.000256771
0.000278319
0.000297573
0.000308795
0.000310882
0.000308089
0.000298179
0.00028651
0.000274738
0.000262388
0.00025552
0.000252699
0.00025205
0.000256071
0.000270504
0.000300946
0.000350917
0.000413818
0.000481321
0.000561039
0.000654787
0.000742085
0.000816159
0.000924073
0.00113028
0.00142661
0.00187156
0.00255307
0.00360121
0.00523513
0.00775689
0.0115039
0.0166487
0.0231282
0.0305891
0.0373766
0.0418718
0.044018
0.0446153
0.0413651
0.0364456
0.0285769
0.0220143
0.0143675
0.0105454
0.00680529
0.00473236
0.00324401
0.00237465
0.00173069
0.0014144
0.00121128
0.00104449
0.00089831
0.000799854
0.000756977
0.000820233
0.000928437
0.000973015
0.00096121
0.000883314
0.000694828
0.000468475
0.000327895
0.000259893
0.000233568
0.000230606
0.000257426
0.000259164
0.000228331
0.00017736
0.000131455
0.000102522
8.79796e-05
8.0136e-05
7.47944e-05
6.97858e-05
6.53591e-05
6.22435e-05
5.99459e-05
5.76694e-05
5.49854e-05
5.26135e-05
5.07944e-05
4.92005e-05
4.72065e-05
4.41608e-05
4.07526e-05
3.8087e-05
3.63363e-05
3.53107e-05
3.46756e-05
3.406e-05
3.30779e-05
3.09726e-05
2.60235e-05
1.93531e-05
1.3348e-05
8.72797e-06
5.4386e-06
3.25093e-06
1.87913e-06
1.06163e-06
5.9534e-07
3.38977e-07
2.01987e-07
1.29829e-07
9.10512e-08
6.97685e-08
5.95123e-08
5.62296e-08
5.58375e-08
5.55025e-08
5.35741e-08
4.74414e-08
4.03515e-08
3.35652e-08
2.72049e-08
2.15265e-08
1.66589e-08
1.26298e-08
9.39488e-09
6.86578e-09
4.93455e-09
3.49071e-09
2.43186e-09
1.6691e-09
1.12885e-09
7.52353e-10
4.94099e-10
3.19702e-10
2.03755e-10
1.27871e-10
7.89912e-11
4.80114e-11
2.86991e-11
1.6863e-11
9.73448e-12
5.51773e-12
3.06926e-12
1.67451e-12
8.95548e-13
4.69273e-13
2.40844e-13
1.21034e-13
5.9563e-14
2.8725e-14
1.36048e-14
6.36217e-15
2.97439e-15
1.42741e-15
7.37871e-16
4.37489e-16
3.10429e-16
2.57765e-16
2.34489e-16
2.28157e-16
2.51673e-16
3.98927e-16
9.38822e-16
2.26123e-15
5.34543e-15
1.32135e-14
1.71732e-14
2.61382e-14
3.29379e-14
4.81499e-14
5.99259e-14
1.00636e-13
3.16128e-06
1.61298e-05
3.16936e-05
5.23735e-05
8.02882e-05
0.000109911
0.000135586
0.000158246
0.000176009
0.000188914
0.00020372
0.000222653
0.000235845
0.000251663
0.00026984
0.00028571
0.000291078
0.0002899
0.000284826
0.000274575
0.000264011
0.000260183
0.000261258
0.000271575
0.000286861
0.000322681
0.000373933
0.00043505
0.000504149
0.000572195
0.000643957
0.000721956
0.000836336
0.000994864
0.00129531
0.00174282
0.00231693
0.00324404
0.00472524
0.00697748
0.010363
0.0157662
0.0244885
0.036521
0.0501349
0.0623345
0.0720438
0.0789299
0.0821704
0.083064
0.0780924
0.0704671
0.0575818
0.0440037
0.0295351
0.0178731
0.0112706
0.00667268
0.00447133
0.00291799
0.00214796
0.0016122
0.00130864
0.00114792
0.00105679
0.000915534
0.000752696
0.000682166
0.000725173
0.000863515
0.00091042
0.000870451
0.000709013
0.000497688
0.000371146
0.00028499
0.000240642
0.000214689
0.000193679
0.000198241
0.00020544
0.000181836
0.000139003
0.000107545
8.90949e-05
8.01374e-05
7.49982e-05
7.07496e-05
6.63972e-05
6.25212e-05
5.99592e-05
5.81433e-05
5.61473e-05
5.34565e-05
5.09026e-05
4.9092e-05
4.75802e-05
4.57195e-05
4.29739e-05
3.9664e-05
3.69235e-05
3.51345e-05
3.4197e-05
3.37657e-05
3.3369e-05
3.276e-05
3.15915e-05
2.88505e-05
2.27311e-05
1.59985e-05
1.05522e-05
6.58739e-06
3.92057e-06
2.24017e-06
1.23863e-06
6.69525e-07
3.58985e-07
1.95065e-07
1.10624e-07
6.76022e-08
4.52548e-08
3.33746e-08
2.77213e-08
2.58056e-08
2.55581e-08
2.56876e-08
2.55791e-08
2.42975e-08
2.06659e-08
1.70297e-08
1.3717e-08
1.07627e-08
8.23916e-09
6.16389e-09
4.51396e-09
3.24076e-09
2.28392e-09
1.58163e-09
1.07709e-09
7.2172e-10
4.75988e-10
3.09035e-10
1.9752e-10
1.24269e-10
7.69426e-11
4.68706e-11
2.80803e-11
1.6538e-11
9.57064e-12
5.43936e-12