/*--------------------------------*- C++ -*----------------------------------*\
  =========                 |
  \\      /  F ield         | OpenFOAM: The Open Source CFD Toolbox
   \\    /   O peration     | Website:  https://openfoam.org
    \\  /    A nd           | Version:  7
     \\/     M anipulation  |
\*---------------------------------------------------------------------------*/
FoamFile
{
    version     2.0;
    format      ascii;
    class       volScalarField;
    location    "0.037";
    object      s;
}
// * * * * * * * * * * * * * * * * * * * * * * * * * * * * * * * * * * * * * //

dimensions      [0 0 0 0 0 0 0];

internalField   nonuniform List<scalar> 
12225
(
1
1
1
1
1
1
1
1
1
1
1
1
1
1
1
1
1
1
1
1
1
1
1
1
1
1
1
1
1
1
1
1
1
1
1
1
1
1
1
1
1
1
1
1
1
1
1
1
1
1
1
1
1
1
1
1
1
1
1
1
1
1
1
1
1
1
1
1
1
1
1
1
1
1
1
1
1
1
1
1
1
1
1
1
1
1
1
1
1
1
1
1
1
1
1
1
1
1
1
1
1
1
1
1
1
1
1
1
1
1
1
1
1
1
1
1
1
1
1
1
1
1
1
1
1
1
1
1
1
1
1
1
1
1
1
1
1
1
1
1
1
1
1
1
1
1
1
1
1
1
1
1
1
1
1
1
1
1
1
1
1
1
1
1
1
1
1
1
1
1
1
1
1
1
1
1
1
1
1
1
1
1
1
1
1
1
1
1
1
1
1
1
1
1
1
1
1
1
1
1
1
1
1
1
1
1
1
1
1
1
1
1
1
1
1
1
1
1
1
1
1
1
1
1
1
1
1
1
1
1
1
1
1
1
1
1
1
1
1
1
1
1
1
1
1
1
1
1
1
1
1
1
1
1
1
1
1
1
1
1
1
1
1
1
1
1
1
1
1
1
1
1
1
1
1
1
1
1
1
1
1
1
1
1
1
1
1
1
1
1
1
1
1
1
1
1
1
1
1
1
1
1
1
1
1
1
1
1
1
1
1
1
1
1
1
1
1
1
1
1
1
1
1
1
1
1
1
1
1
1
1
1
1
1
1
1
1
1
1
1
1
1
1
1
1
1
1
1
1
1
1
1
1
1
1
1
1
1
1
1
1
1
1
1
1
1
1
1
1
1
1
1
1
1
1
1
1
1
1
1
1
1
1
1
1
1
1
1
1
1
1
1
1
1
1
1
1
1
1
1
1
1
1
1
1
1
1
1
1
1
1
1
1
1
1
1
1
1
1
1
1
1
1
1
1
1
1
1
1
1
1
1
1
1
1
1
1
1
1
1
1
1
1
1
1
1
1
1
1
1
1
1
1
1
1
1
1
1
1
1
1
1
1
1
1
1
1
1
1
1
1
1
1
1
1
1
1
1
1
1
1
1
1
1
1
1
1
1
1
1
1
1
1
1
1
1
1
1
1
1
1
1
1
1
1
1
1
1
1
1
1
1
1
1
1
1
1
1
1
1
1
1
1
1
1
1
1
1
1
1
1
1
1
1
1
1
1
1
1
1
1.05616e-11
3.46959e-10
3.00661e-09
1.5642e-08
6.04619e-08
1.8743e-07
4.85218e-07
1.12696e-06
2.26021e-06
4.19574e-06
6.54908e-06
9.83423e-06
1.4268e-05
1.64744e-05
2.01317e-05
2.09892e-05
2.03102e-05
1.84863e-05
1.46048e-05
1.07605e-05
7.3346e-06
4.73903e-06
3.13117e-06
2.39462e-06
1.72432e-06
5.01933e-07
-2.86611e-08
1.96545e-05
0.00053363
0.00842231
0.0464425
0.0798954
0.100485
0.115431
0.127158
0.137648
0.147693
0.157804
0.167932
0.177879
0.188247
0.199366
0.21
0.220883
0.232794
0.24455
0.256442
0.268267
0.279342
0.290498
0.30206
0.313528
0.320061
0.324871
0.326631
0.326935
0.323403
0.316431
0.309601
0.299643
0.289731
0.27603
0.261106
0.246571
0.231977
0.216457
0.200999
0.187673
0.173509
0.159736
0.147924
0.135904
0.12533
0.1138
0.10358
0.0924045
0.0807549
0.0695492
0.0584362
0.0480023
0.0385277
0.0302365
0.023258
0.0175634
0.0129441
0.00927264
0.00646306
0.00438712
0.00289992
0.00186301
0.00116169
0.000703098
0.000412989
0.000235348
0.000130112
6.97985e-05
3.63418e-05
1.83708e-05
9.01852e-06
4.3005e-06
1.99207e-06
8.96265e-07
3.91523e-07
1.6596e-07
6.82026e-08
2.71436e-08
1.04479e-08
3.88324e-09
1.39109e-09
4.79278e-10
1.5837e-10
5.00101e-11
1.50203e-11
4.25548e-12
1.12285e-12
2.68616e-13
5.66919e-14
1.16417e-14
2.33164e-15
4.5783e-16
7.59146e-17
2.13145e-17
5.96928e-18
1.67916e-18
4.74535e-19
1.33749e-19
3.72304e-20
1.01625e-20
2.71346e-21
7.09561e-22
1.82228e-22
4.60826e-23
1.14919e-23
2.82669e-24
6.85441e-25
1.63739e-25
3.85004e-26
8.88743e-27
1.99159e-27
4.17734e-28
7.52764e-29
1.2018e-29
1.87232e-30
3.11129e-31
5.65608e-32
1.09228e-32
2.16042e-33
4.28155e-34
8.41734e-35
1.63431e-35
3.12469e-36
5.85915e-37
1.07034e-37
1.88806e-38
3.18845e-39
5.12712e-40
7.85065e-41
1.15191e-41
1.63973e-42
2.3026e-43
3.24537e-44
4.64893e-45
6.79036e-46
1.00439e-46
1.48405e-47
2.15671e-48
3.04207e-49
4.12821e-50
5.37148e-51
6.71396e-52
8.11757e-53
9.59295e-54
1.12173e-54
1.30957e-55
1.53247e-56
1.78452e-57
2.04787e-58
2.25715e-59
2.30986e-60
-1.33907e-60
2.1376e-10
6.0065e-09
5.55641e-08
3.14791e-07
1.29298e-06
4.11886e-06
1.06579e-05
2.40786e-05
4.58123e-05
7.66833e-05
0.000117813
0.000168038
0.000221141
0.000258679
0.000298546
0.000299191
0.00028726
0.00025931
0.000211424
0.000132706
7.26983e-05
4.57914e-05
4.21428e-05
6.11024e-05
0.000213681
0.00114398
0.00534064
0.0156831
0.0337659
0.0624237
0.101179
0.132802
0.167073
0.205043
0.250091
0.30336
0.365965
0.433418
0.492557
0.553282
0.605632
0.658028
0.701257
0.74529
0.779935
0.813358
0.836064
0.862491
0.875782
0.889007
0.895552
0.900116
0.902928
0.904777
0.905817
0.906289
0.905799
0.903247
0.900833
0.896858
0.891807
0.884693
0.875963
0.866339
0.854395
0.841416
0.82673
0.811066
0.794081
0.775502
0.755549
0.733008
0.70812
0.678201
0.64497
0.607208
0.564318
0.516618
0.464148
0.407747
0.349107
0.290416
0.235142
0.187823
0.149895
0.116196
0.087314
0.0637313
0.0454078
0.0316116
0.0213721
0.0140281
0.00895203
0.00555301
0.00334712
0.00196133
0.00111786
0.000620014
0.00033484
0.000176165
9.03313e-05
4.51573e-05
2.20124e-05
1.04634e-05
4.84973e-06
2.19147e-06
9.65254e-07
4.14338e-07
1.73303e-07
7.06251e-08
2.80417e-08
1.08486e-08
4.09012e-09
1.50308e-09
5.38555e-10
1.88203e-10
6.41649e-11
2.13446e-11
6.9304e-12
2.19721e-12
6.80405e-13
2.05855e-13
6.08615e-14
1.75859e-14
4.96667e-15
1.37105e-15
3.69909e-16
9.75272e-17
2.51243e-17
6.32197e-18
1.55467e-18
3.75761e-19
8.9292e-20
2.08614e-20
4.79172e-21
1.08199e-21
2.40169e-22
5.24015e-23
1.1238e-23
2.36891e-24
4.90814e-25
9.99538e-26
2.00081e-26
3.93686e-27
7.61467e-28
1.44787e-28
2.70654e-29
4.97426e-30
8.98887e-31
1.59726e-31
2.79109e-32
4.79661e-33
8.10763e-34
1.34799e-34
2.20467e-35
3.54732e-36
5.61544e-37
8.74623e-38
1.34041e-38
2.02141e-39
2.99981e-40
4.38097e-41
6.29646e-42
8.90595e-43
1.23971e-43
1.6983e-44
2.28947e-45
3.03711e-46
3.96389e-47
5.0894e-48
6.42602e-49
7.97735e-50
9.7292e-51
1.16541e-51
1.36861e-52
1.57544e-53
1.7696e-54
1.94042e-55
2.05711e-56
1.5297e-57
2.0125e-09
5.5187e-08
5.44504e-07
3.25801e-06
1.37169e-05
4.34099e-05
0.000109256
0.000226856
0.000394842
0.000614619
0.000896121
0.00120505
0.00148592
0.00171293
0.001855
0.00183571
0.00169111
0.00144891
0.00144057
0.00149594
0.00171649
0.00237863
0.00393963
0.00725905
0.0138423
0.026125
0.047487
0.0805839
0.126957
0.186307
0.258031
0.352517
0.453318
0.551585
0.640302
0.718207
0.775337
0.82043
0.857429
0.886514
0.911039
0.928028
0.940672
0.949463
0.956654
0.960282
0.963338
0.964703
0.965221
0.965309
0.964325
0.963639
0.963457
0.964251
0.966243
0.968681
0.970475
0.97325
0.976133
0.979291
0.982271
0.98411
0.986158
0.987308
0.987918
0.988411
0.988635
0.988205
0.98787
0.986407
0.98483
0.982888
0.980294
0.976888
0.972388
0.966295
0.957992
0.946767
0.931528
0.910832
0.882843
0.845137
0.794736
0.728026
0.644879
0.553111
0.456026
0.359026
0.270925
0.201945
0.147307
0.103494
0.0704466
0.0466518
0.0299594
0.018665
0.0112931
0.00663871
0.00379421
0.00210968
0.00114189
0.000601927
0.00030912
0.000154688
7.54347e-05
3.58482e-05
1.66008e-05
7.4909e-06
3.29366e-06
1.4112e-06
5.89269e-07
2.39856e-07
9.51961e-08
3.68528e-08
1.3921e-08
5.13336e-09
1.84859e-09
6.50359e-10
2.23617e-10
7.5174e-11
2.47168e-11
7.95089e-12
2.50295e-12
7.71262e-13
2.32675e-13
6.8734e-14
1.9885e-14
5.63463e-15
1.56402e-15
4.25308e-16
1.13317e-16
2.95824e-17
7.56755e-18
1.89721e-18
4.66199e-19
1.12302e-19
2.65225e-20
6.1446e-21
1.39995e-21
3.13759e-22
6.91709e-23
1.49997e-23
3.19932e-24
6.71163e-25
1.38478e-25
2.81003e-26
5.60801e-27
1.10072e-27
2.12482e-28
4.03415e-29
7.53322e-30
1.38365e-30
2.4998e-31
4.44263e-32
7.767e-33
1.33588e-33
2.26051e-34
3.76352e-35
6.16526e-36
9.93809e-37
1.57641e-37
2.46075e-38
3.78022e-39
5.71518e-40
8.50382e-41
1.24531e-41
1.79474e-42
2.54562e-43
3.55299e-44
4.87974e-45
6.59269e-46
8.76192e-47
1.14462e-47
1.47013e-48
1.85282e-49
2.29364e-50
2.77536e-51
3.29321e-52
3.78569e-53
4.23215e-54
1.31601e-08
3.48582e-07
3.48873e-06
2.08084e-05
8.55991e-05
0.000259497
0.000607634
0.00114862
0.00183013
0.00265541
0.00368286
0.00475303
0.00573818
0.00664685
0.00739887
0.00800074
0.00862441
0.00924766
0.0101811
0.0119746
0.0152537
0.0210691
0.0311293
0.0480678
0.0757213
0.119348
0.185716
0.283976
0.391673
0.505467
0.607746
0.697959
0.763442
0.824347
0.860342
0.891982
0.907784
0.921613
0.928127
0.932992
0.935071
0.935731
0.935616
0.931355
0.923101
0.911089
0.897327
0.883147
0.869501
0.859121
0.851295
0.848025
0.847267
0.85309
0.860736
0.874565
0.885686
0.899288
0.913532
0.929081
0.944742
0.956678
0.968641
0.977914
0.982556
0.987527
0.99066
0.992582
0.994693
0.995552
0.996301
0.997027
0.997435
0.997816
0.998023
0.998108
0.998128
0.99776
0.997016
0.995741
0.993669
0.99037
0.985196
0.97709
0.964404
0.944626
0.913999
0.866923
0.795566
0.692851
0.569795
0.440293
0.320532
0.22797
0.157635
0.105026
0.0678309
0.0424576
0.0257681
0.0151781
0.00868276
0.00482691
0.0026089
0.00137139
0.000701236
0.000348829
0.000168821
7.9492e-05
3.64198e-05
1.62377e-05
7.04655e-06
2.97725e-06
1.22517e-06
4.91241e-07
1.92002e-07
7.31865e-08
2.72189e-08
9.88137e-09
3.50315e-09
1.21331e-09
4.107e-10
1.35912e-10
4.39847e-11
1.39243e-11
4.31291e-12
1.30733e-12
3.87883e-13
1.12665e-13
3.20419e-14
8.92399e-15
2.4343e-15
6.50475e-16
1.7029e-16
4.36832e-17
1.09819e-17
2.70611e-18
6.53724e-19
1.54843e-19
3.5964e-20
8.19215e-21
1.83094e-21
4.02287e-22
8.6923e-23
1.847e-23
3.85956e-24
7.93131e-25
1.60284e-25
3.18549e-26
6.226e-27
1.19674e-27
2.26235e-28
4.20633e-29
7.69219e-30
1.38362e-30
2.44808e-31
4.26087e-32
7.29554e-33
1.22893e-33
2.03674e-34
3.32126e-35
5.3291e-36
8.41421e-37
1.30737e-37
1.99907e-38
3.00822e-39
4.45511e-40
6.49323e-41
9.31374e-42
1.31461e-42
1.82592e-43
2.49486e-44
3.3536e-45
4.43153e-46
5.75817e-47
7.34424e-48
9.20288e-49
1.12839e-49
1.35732e-50
1.58736e-51
1.81385e-52
7.4198e-08
1.64542e-06
1.50928e-05
8.3788e-05
0.000321306
0.000911569
0.00202784
0.00362653
0.00532293
0.0072101
0.00974736
0.0127059
0.0160446
0.0197791
0.0234437
0.0270061
0.0306744
0.0352232
0.0418234
0.0519181
0.0676374
0.0922765
0.130841
0.190817
0.284636
0.387168
0.49954
0.598069
0.687025
0.762139
0.817484
0.859013
0.88555
0.90283
0.911175
0.915656
0.917279
0.917629
0.91218
0.899767
0.878664
0.84723
0.802361
0.747935
0.707844
0.664411
0.633724
0.608583
0.591898
0.583189
0.578895
0.577444
0.578651
0.584211
0.591334
0.603912
0.620474
0.647272
0.681694
0.724413
0.774251
0.820728
0.861226
0.896268
0.922701
0.942464
0.957266
0.966464
0.976333
0.981196
0.985522
0.989187
0.991935
0.994545
0.996544
0.997809
0.998759
0.999268
0.999538
0.99966
0.999709
0.999675
0.999517
0.999184
0.998547
0.997354
0.995141
0.991045
0.98347
0.969489
0.943725
0.896842
0.814891
0.687586
0.534668
0.384915
0.266518
0.17924
0.116207
0.0729136
0.044291
0.0260693
0.0148778
0.00823678
0.00442522
0.00230768
0.0011683
0.000574312
0.000274179
0.000127152
5.72995e-05
2.51011e-05
1.06941e-05
4.4333e-06
1.78925e-06
7.03419e-07
2.69518e-07
1.00697e-07
3.67034e-08
1.30573e-08
4.53565e-09
1.53894e-09
5.10206e-10
1.65325e-10
5.23741e-11
1.6225e-11
4.91628e-12
1.45734e-12
4.22709e-13
1.19994e-13
3.3342e-14
9.07024e-15
2.4161e-15
6.30317e-16
1.61075e-16
4.03277e-17
9.89388e-18
2.37904e-18
5.6078e-19
1.29606e-19
2.93747e-20
6.52949e-21
1.42476e-21
3.05592e-22
6.4434e-23
1.33562e-23
2.72183e-24
5.45336e-25
1.07426e-25
2.08071e-26
3.96275e-27
7.42133e-28
1.36676e-28
2.47545e-29
4.4095e-30
7.72549e-31
1.33135e-31
2.25692e-32
3.7638e-33
6.17519e-34
9.96815e-35
1.58323e-35
2.47436e-36
3.80532e-37
5.75889e-38
8.57675e-39
1.257e-39
1.81293e-40
2.57286e-41
3.59288e-42
4.93561e-43
6.66984e-44
8.86127e-45
1.15752e-45
1.48463e-46
1.87044e-47
2.3081e-48
2.79312e-49
3.29624e-50
3.80266e-51
1.81593e-07
3.61036e-06
3.07528e-05
0.000163227
0.00061839
0.00180527
0.00420765
0.00796994
0.0127313
0.0175759
0.0224376
0.0284487
0.0361849
0.0465285
0.0595298
0.0737323
0.0896849
0.110317
0.139118
0.180687
0.235377
0.306863
0.389513
0.481451
0.5672
0.653246
0.728296
0.791121
0.83727
0.869179
0.888872
0.898791
0.903437
0.905222
0.905461
0.897034
0.880042
0.847557
0.792884
0.724291
0.664024
0.603423
0.563632
0.541798
0.520969
0.510999
0.504185
0.501369
0.500501
0.501038
0.503932
0.505055
0.506157
0.506443
0.506145
0.503666
0.50059
0.495617
0.49046
0.486499
0.493576
0.524141
0.588645
0.658817
0.741459
0.809448
0.849679
0.881408
0.907064
0.924619
0.94109
0.952729
0.962833
0.975005
0.982329
0.98919
0.993857
0.996812
0.998482
0.999321
0.999699
0.999852
0.999915
0.99994
0.999946
0.999931
0.999874
0.999735
0.999424
0.998725
0.997161
0.993666
0.985864
0.968478
0.929779
0.847284
0.70767
0.535019
0.372752
0.251401
0.163388
0.102464
0.0620829
0.0363694
0.0206116
0.0113054
0.00600367
0.00308778
0.00153863
0.000743126
0.000348048
0.000158163
6.97788e-05
2.99073e-05
1.2461e-05
5.05054e-06
1.99255e-06
7.65644e-07
2.86705e-07
1.04679e-07
3.72818e-08
1.29579e-08
4.39682e-09
1.45697e-09
4.71633e-10
1.49183e-10
4.61221e-11
1.39403e-11
4.12009e-12
1.19099e-12
3.36793e-13
9.31891e-14
2.52348e-14
6.68891e-15
1.73589e-15
4.41153e-16
1.09812e-16
2.67789e-17
6.39904e-18
1.49867e-18
3.44081e-19
7.7458e-20
1.70996e-20
3.70497e-21
7.88792e-22
1.65029e-22
3.39325e-23
6.85734e-24
1.3621e-24
2.65952e-25
5.1047e-26
9.6325e-27
1.78707e-27
3.25994e-28
5.84755e-29
1.0315e-29
1.78946e-30
3.05333e-31
5.12451e-32
8.4604e-33
1.3741e-33
2.19568e-34
3.45193e-35
5.33978e-36
8.12772e-37
1.21735e-37
1.79414e-38
2.60197e-39
3.71293e-40
5.21304e-41
7.19997e-42
9.78178e-43
1.30659e-43
1.71583e-44
2.21301e-45
2.80335e-46
3.48105e-47
4.23853e-48
5.04424e-49
5.87246e-50
2.47508e-07
5.11966e-06
4.44153e-05
0.000232868
0.000851098
0.00233574
0.00514018
0.00973999
0.0165117
0.0258702
0.038662
0.0553774
0.0765745
0.105763
0.14689
0.195781
0.244849
0.296083
0.353319
0.412109
0.475827
0.545249
0.615271
0.686933
0.748179
0.801223
0.843867
0.869631
0.885503
0.893005
0.89607
0.896881
0.893373
0.880285
0.852115
0.798816
0.727055
0.657504
0.599254
0.563509
0.530572
0.514762
0.506346
0.502327
0.500278
0.499447
0.499074
0.499721
0.500515
0.50094
0.502133
0.5052
0.50887
0.512846
0.515822
0.517505
0.516934
0.507485
0.491876
0.463925
0.432288
0.413966
0.405717
0.405242
0.438426
0.499541
0.588984
0.668504
0.730489
0.773926
0.812965
0.848178
0.877832
0.915991
0.93968
0.962167
0.977068
0.987341
0.993579
0.997003
0.998707
0.999468
0.999785
0.999912
0.999959
0.999978
0.999985
0.999987
0.999984
0.999967
0.999916
0.999776
0.9994
0.998396
0.995734
0.988755
0.970658
0.924242
0.811779
0.636118
0.451054
0.303478
0.196741
0.122749
0.0737927
0.0427765
0.0239257
0.0129195
0.00673912
0.00339799
0.00165733
0.000782535
0.000357978
0.000158793
6.83586e-05
2.85819e-05
1.16162e-05
4.59217e-06
1.76703e-06
6.62222e-07
2.41841e-07
8.61057e-08
2.99019e-08
1.01321e-08
3.3511e-09
1.08218e-09
3.41318e-10
1.0517e-10
3.16667e-11
9.31975e-12
2.68162e-12
7.54546e-13
2.07667e-13
5.5917e-14
1.47338e-14
3.79997e-15
9.59496e-16
2.37248e-16
5.74594e-17
1.36338e-17
3.17012e-18
7.22489e-19
1.61428e-19
3.53687e-20
7.60806e-21
1.6076e-21
3.3371e-22
6.80602e-23
1.36393e-23
2.686e-24
5.19847e-25
9.8887e-26
1.849e-26
3.39867e-27
6.14175e-28
1.09126e-28
1.90657e-29
3.27571e-30
5.53507e-31
9.19906e-32
1.50383e-32
2.41839e-33
3.82604e-34
5.95524e-35
9.11996e-36
1.3742e-36
2.03737e-37
2.97209e-38
4.26578e-39
6.0238e-40
8.36763e-41
1.1433e-41
1.53596e-42
2.02861e-43
2.63209e-44
3.35423e-45
4.193e-46
5.14059e-47
6.17039e-48
7.2528e-49
2.08725e-07
4.65767e-06
4.24411e-05
0.000235803
0.000928345
0.00278004
0.00652592
0.0123109
0.019623
0.0298048
0.0481123
0.0814464
0.134264
0.204089
0.281843
0.355372
0.417811
0.473667
0.53123
0.590902
0.648153
0.699781
0.755558
0.802885
0.837953
0.865278
0.880878
0.887882
0.890589
0.891245
0.887189
0.872943
0.840487
0.778146
0.704357
0.63449
0.589461
0.54717
0.526187
0.510215
0.502665
0.499207
0.49612
0.49163
0.488213
0.482481
0.476074
0.467246
0.459803
0.45653
0.455923
0.463974
0.473724
0.488884
0.502486
0.520717
0.532202
0.5441
0.55007
0.55211
0.520523
0.462865
0.399768
0.370313
0.354502
0.348152
0.360109
0.389099
0.431834
0.483673
0.539913
0.611388
0.69257
0.786669
0.857011
0.908889
0.942985
0.966037
0.981127
0.990411
0.995594
0.998141
0.999241
0.999696
0.999881
0.999953
0.999981
0.999991
0.999995
0.999997
0.999996
0.999994
0.999982
0.999943
0.999816
0.999418
0.99819
0.994483
0.983567
0.952117
0.863095
0.682881
0.485732
0.32516
0.20888
0.128755
0.0762424
0.0434136
0.0237937
0.0125638
0.00639812
0.00314569
0.00149481
0.000687285
0.000306075
0.000132159
5.53795e-05
2.25405e-05
8.91827e-06
3.43245e-06
1.28591e-06
4.69179e-07
1.66805e-07
5.78119e-08
1.95405e-08
6.44356e-09
2.07363e-09
6.51463e-10
1.99861e-10
5.98922e-11
1.75361e-11
5.01801e-12
1.40372e-12
3.83963e-13
1.02724e-13
2.68868e-14
6.88656e-15
1.72652e-15
4.23799e-16
1.01877e-16
2.39899e-17
5.53509e-18
1.25161e-18
2.77431e-19
6.03229e-20
1.28783e-20
2.69993e-21
5.55938e-22
1.12443e-22
2.23418e-23
4.36151e-24
8.36638e-25
1.57713e-25
2.92196e-26
5.32112e-27
9.52579e-28
1.67653e-28
2.90122e-29
4.93683e-30
8.26146e-31
1.35971e-31
2.20115e-32
3.50513e-33
5.49083e-34
8.46203e-35
1.28302e-35
1.91394e-36
2.80905e-37
4.05617e-38
5.76213e-39
8.05204e-40
1.10673e-40
1.49579e-41
1.98749e-42
2.59491e-43
3.32801e-44
4.18928e-45
5.17397e-46
6.26429e-47
7.43562e-48
1.09426e-07
3.07028e-06
3.17067e-05
0.000193447
0.000808258
0.00252798
0.00625951
0.0128846
0.0234938
0.0390077
0.0628264
0.104457
0.17522
0.271714
0.371796
0.457259
0.530676
0.601264
0.662712
0.708487
0.748996
0.79219
0.830432
0.85735
0.872911
0.882833
0.886558
0.887469
0.886064
0.875747
0.848318
0.788925
0.70683
0.644785
0.588694
0.548871
0.525697
0.509811
0.502432
0.496309
0.492762
0.485571
0.47509
0.457401
0.429115
0.385876
0.353321
0.33071
0.319663
0.316194
0.320551
0.336084
0.352392
0.378861
0.404678
0.433997
0.469383
0.509224
0.549123
0.573057
0.584988
0.589089
0.542877
0.438103
0.369483
0.338679
0.326867
0.323644
0.32732
0.336944
0.359605
0.412321
0.518388
0.677714
0.799251
0.87696
0.925145
0.954914
0.972966
0.984265
0.991361
0.995624
0.99799
0.999151
0.999661
0.99987
0.999951
0.999981
0.999992
0.999997
0.999998
0.999999
0.999999
0.999998
0.999993
0.999975
0.999908
0.999667
0.998835
0.99605
0.987054
0.958874
0.872727
0.679808
0.475266
0.314068
0.198201
0.119656
0.0692146
0.0384178
0.0204913
0.0105183
0.00520344
0.00248439
0.00114636
0.000511845
0.000221397
9.28703e-05
3.78143e-05
1.49579e-05
5.75232e-06
2.15205e-06
7.83703e-07
2.77948e-07
9.60486e-08
3.23531e-08
1.06268e-08
3.40496e-09
1.0646e-09
3.24912e-10
9.68238e-11
2.81817e-11
8.01393e-12
2.22712e-12
6.05043e-13
1.60729e-13
4.17632e-14
1.0617e-14
2.64146e-15
6.43333e-16
1.53425e-16
3.58379e-17
8.20135e-18
1.83922e-18
4.04359e-19
8.72458e-20
1.84783e-20
3.84232e-21
7.84527e-22
1.57314e-22
3.09836e-23
5.9946e-24
1.13949e-24
2.12831e-25
3.90651e-26
7.04736e-27
1.24968e-27
2.17847e-28
3.73367e-29
6.29213e-30
1.04275e-30
1.69951e-31
2.72437e-32
4.29577e-33
6.66311e-34
1.01671e-34
1.52622e-35
2.25396e-36
3.27475e-37
4.68059e-38
6.58077e-39
9.10043e-40
1.23757e-40
1.65466e-41
2.17432e-42
2.80718e-43
3.559e-44
4.42925e-45
5.40907e-46
6.48349e-47
3.08306e-08
1.2528e-06
1.54315e-05
0.000109199
0.000530658
0.00189568
0.00524494
0.0116732
0.0221402
0.0381593
0.0633296
0.106138
0.175061
0.274762
0.397226
0.523193
0.629746
0.696923
0.737743
0.774535
0.807591
0.839844
0.864334
0.876288
0.882305
0.884871
0.885471
0.882061
0.868426
0.831196
0.746739
0.674201
0.618339
0.573007
0.536634
0.518677
0.507021
0.500302
0.494906
0.486978
0.476518
0.455201
0.416506
0.349664
0.30195
0.268819
0.252068
0.24216
0.238684
0.238975
0.252768
0.264433
0.290674
0.31203
0.347138
0.371222
0.403306
0.432669
0.468505
0.53247
0.588448
0.616844
0.628491
0.605003
0.502518
0.394016
0.344028
0.324806
0.319221
0.318322
0.32911
0.370705
0.47486
0.646366
0.778233
0.86336
0.919484
0.95312
0.972097
0.983384
0.990442
0.994781
0.997305
0.998681
0.999391
0.999734
0.999891
0.999958
0.999984
0.999994
0.999998
0.999999
1
1
1
0.999999
0.999996
0.999982
0.999924
0.999701
0.998871
0.995916
0.985789
0.952244
0.843893
0.627825
0.426407
0.274817
0.168693
0.0988577
0.0554265
0.0297919
0.0153814
0.00764202
0.00365999
0.00169236
0.000756593
0.000327444
0.000137341
5.58831e-05
2.20774e-05
8.47481e-06
3.16315e-06
1.14861e-06
4.05992e-07
1.39754e-07
4.68713e-08
1.53221e-08
4.88386e-09
1.51845e-09
4.60658e-10
1.36409e-10
3.944e-11
1.11378e-11
3.07301e-12
8.28648e-13
2.18449e-13
5.63169e-14
1.42025e-14
3.50478e-15
8.4655e-16
2.00201e-16
4.63686e-17
1.05206e-17
2.3392e-18
5.10159e-19
1.09173e-19
2.29283e-20
4.72673e-21
9.5665e-22
1.90117e-22
3.71048e-23
7.11294e-24
1.33949e-24
2.47837e-25
4.50592e-26
8.05107e-27
1.41394e-27
2.44099e-28
4.14298e-29
6.91383e-30
1.13457e-30
1.831e-31
2.90623e-32
4.53723e-33
6.96782e-34
1.05261e-34
1.5643e-35
2.28695e-36
3.28901e-37
4.65293e-38
6.47442e-39
8.85984e-40
1.19213e-40
1.57683e-41
2.04966e-42
2.6175e-43
3.2829e-44
4.04359e-45
4.89357e-46
3.26828e-09
3.23928e-07
5.22515e-06
4.39875e-05
0.000247668
0.00102281
0.00328049
0.0085786
0.0184315
0.0340852
0.0583831
0.0982725
0.16263
0.257901
0.380969
0.515814
0.641396
0.743796
0.795933
0.8202
0.839162
0.861373
0.875706
0.881102
0.883204
0.883811
0.879725
0.86146
0.81596
0.741058
0.669686
0.610984
0.567279
0.53325
0.51286
0.502483
0.493377
0.488189
0.47928
0.46616
0.437062
0.382734
0.313453
0.264066
0.228806
0.203261
0.185521
0.171578
0.165285
0.163456
0.17284
0.190162
0.220947
0.25662
0.29318
0.339596
0.375924
0.407501
0.435536
0.476727
0.538625
0.611041
0.644845
0.655712
0.638711
0.569916
0.447283
0.374908
0.352006
0.344703
0.353464
0.399845
0.514868
0.663117
0.771416
0.855387
0.916707
0.954945
0.976346
0.986858
0.992085
0.995207
0.997321
0.998625
0.999332
0.99969
0.999861
0.99994
0.999975
0.99999
0.999996
0.999999
1
1
1
1
1
0.999999
0.999995
0.999977
0.999903
0.999601
0.998437
0.994141
0.978885
0.926415
0.761373
0.531986
0.348906
0.217022
0.128432
0.0725268
0.0391855
0.0203046
0.0101124
0.00485015
0.00224414
0.00100324
0.000433906
0.000181772
7.38301e-05
2.91002e-05
1.11391e-05
4.1437e-06
1.49891e-06
5.27528e-07
1.80725e-07
6.02962e-08
1.95997e-08
6.20972e-09
1.91834e-09
5.78058e-10
1.69968e-10
4.87829e-11
1.36717e-11
3.74267e-12
1.00113e-12
2.61757e-13
6.69179e-14
1.67327e-14
4.09362e-15
9.8017e-16
2.29763e-16
5.27434e-17
1.18607e-17
2.61488e-18
5.65442e-19
1.19953e-19
2.49693e-20
5.10108e-21
1.02296e-21
2.01408e-22
3.89394e-23
7.39378e-24
1.37905e-24
2.52694e-25
4.54962e-26
8.04978e-27
1.39984e-27
2.39286e-28
4.02118e-29
6.64409e-30
1.07947e-30
1.72474e-31
2.71025e-32
4.18891e-33
6.36835e-34
9.52368e-35
1.40102e-35
2.02744e-36
2.88603e-37
4.04089e-38
5.56461e-39
7.5355e-40
1.00331e-40
1.31315e-41
1.68916e-42
2.13509e-43
2.65211e-44
3.23981e-45
1.92332e-10
4.95164e-08
1.17719e-06
1.26031e-05
8.51242e-05
0.000414085
0.00154661
0.00464827
0.0115829
0.0248186
0.0469642
0.0811577
0.13497
0.217125
0.334521
0.480567
0.622931
0.737229
0.807544
0.841211
0.858182
0.870473
0.878606
0.881549
0.882625
0.881278
0.871303
0.839964
0.774733
0.688096
0.618406
0.570392
0.53914
0.517325
0.502826
0.494995
0.486781
0.48238
0.470975
0.446744
0.396281
0.324845
0.257638
0.217013
0.180281
0.152362
0.131197
0.117006
0.110875
0.109316
0.117126
0.13069
0.154833
0.193566
0.240562
0.290175
0.338375
0.389652
0.422296
0.459526
0.519241
0.592321
0.64732
0.670013
0.671518
0.653896
0.600887
0.506611
0.451737
0.441949
0.462365
0.527913
0.614888
0.68948
0.75827
0.830793
0.902775
0.950774
0.976732
0.989208
0.994913
0.997431
0.998504
0.999081
0.99947
0.999719
0.999864
0.999938
0.999973
0.999989
0.999996
0.999998
0.999999
1
1
1
1
1
1
0.999998
0.999991
0.999959
0.999822
0.999261
0.997062
0.988788
0.958725
0.852395
0.618446
0.411135
0.258059
0.153669
0.0871368
0.0472006
0.0244927
0.0122047
0.00585257
0.00270577
0.00120796
0.000521457
0.000217923
8.8256e-05
3.46679e-05
1.32187e-05
4.89582e-06
1.76242e-06
6.16995e-07
2.10169e-07
6.96909e-08
2.25063e-08
7.08169e-09
2.17198e-09
6.49583e-10
1.89514e-10
5.39566e-11
1.4997e-11
4.07083e-12
1.07954e-12
2.79784e-13
7.0891e-14
1.75668e-14
4.25863e-15
1.01034e-15
2.3465e-16
5.3367e-17
1.18942e-17
2.59904e-18
5.56938e-19
1.17063e-19
2.41404e-20
4.88515e-21
9.70295e-22
1.89194e-22
3.62216e-23
6.81024e-24
1.25767e-24
2.28165e-25
4.06703e-26
7.12392e-27
1.22641e-27
2.0753e-28
3.45236e-29
5.64665e-30
9.08138e-31
1.43629e-31
2.23409e-32
3.4179e-33
5.14331e-34
7.61323e-35
1.10853e-35
1.58773e-36
2.23688e-37
3.09971e-38
4.22445e-39
5.66176e-40
7.461e-41
9.66688e-42
1.23131e-42
1.54219e-43
1.90112e-44
8.2052e-11
6.35351e-09
1.80619e-07
2.53708e-06
2.11771e-05
0.000123196
0.000543337
0.00190844
0.00553313
0.0136163
0.0292699
0.0560687
0.0991763
0.166492
0.266698
0.403331
0.562113
0.703745
0.797713
0.840147
0.860476
0.87198
0.878471
0.880807
0.880453
0.873216
0.849598
0.80016
0.729065
0.65023
0.591948
0.554269
0.526605
0.508185
0.497606
0.490178
0.482807
0.474875
0.457949
0.423521
0.360698
0.285528
0.222293
0.182147
0.146761
0.121421
0.103537
0.0945086
0.0914203
0.0920794
0.097045
0.108563
0.12824
0.163992
0.215949
0.271914
0.319724
0.373407
0.417443
0.454041
0.513864
0.591366
0.654898
0.684701
0.687019
0.677652
0.637653
0.567837
0.513978
0.496633
0.502958
0.55124
0.615973
0.644461
0.65364
0.71528
0.83965
0.922693
0.966514
0.9865
0.99467
0.997835
0.999085
0.999596
0.999803
0.999891
0.999934
0.999962
0.99998
0.99999
0.999996
0.999998
0.999999
1
1
1
1
1
1
1
0.999999
0.999996
0.999978
0.9999
0.999567
0.998196
0.992791
0.972239
0.896523
0.680252
0.454606
0.286622
0.171102
0.0971215
0.0526093
0.027279
0.013575
0.00649773
0.00299713
0.00133435
0.000574172
0.000239075
9.64236e-05
3.7703e-05
1.43037e-05
5.26875e-06
1.88549e-06
6.55919e-07
2.21931e-07
7.30716e-08
2.34232e-08
7.31324e-09
2.22501e-09
6.59928e-10
1.90892e-10
5.38742e-11
1.48406e-11
3.99181e-12
1.04883e-12
2.6929e-13
6.75888e-14
1.65893e-14
3.98317e-15
9.35892e-16
2.15263e-16
4.85004e-17
1.07091e-17
2.31796e-18
4.91949e-19
1.024e-19
2.09099e-20
4.18956e-21
8.23839e-22
1.59024e-22
3.01381e-23
5.60896e-24
1.02527e-24
1.84102e-25
3.24798e-26
5.6308e-27
9.59389e-28
1.60674e-28
2.64534e-29
4.28205e-30
6.81566e-31
1.06682e-31
1.64226e-32
2.48652e-33
3.7031e-34
5.42476e-35
7.81716e-36
1.10807e-36
1.54502e-37
2.11895e-38
2.85839e-39
3.79226e-40
4.94844e-41
6.35066e-42
8.01829e-43
9.9714e-44
0.000113384
1.1024e-05
8.80891e-07
6.08505e-07
3.99951e-06
2.91365e-05
0.000149246
0.000604759
0.00202674
0.00575907
0.014206
0.0309621
0.0609203
0.110973
0.191608
0.311047
0.459059
0.612605
0.744089
0.825129
0.856561
0.870451
0.877356
0.87956
0.87834
0.870663
0.848013
0.799117
0.728265
0.65052
0.589673
0.553158
0.524405
0.507268
0.497755
0.49028
0.483266
0.475448
0.459572
0.427447
0.36672
0.292167
0.227614
0.185566
0.149778
0.123903
0.105716
0.0962786
0.0894615
0.0892067
0.0924488
0.102464
0.120525
0.153105
0.206629
0.267386
0.3153
0.367957
0.419225
0.463516
0.529122
0.627049
0.699171
0.722458
0.722316
0.707508
0.647982
0.567967
0.516164
0.499099
0.501103
0.520562
0.549623
0.512468
0.482528
0.541867
0.73018
0.865872
0.939555
0.975277
0.990718
0.996736
0.998887
0.999611
0.999856
0.999945
0.999978
0.99999
0.999995
0.999997
0.999998
0.999999
1
1
1
1
1
1
1
1
1
0.999999
0.999997
0.999985
0.999931
0.999687
0.99865
0.994404
0.977666
0.91399
0.711434
0.475975
0.300041
0.178897
0.101345
0.0547594
0.0283117
0.0140437
0.00669829
0.00307769
0.00136441
0.000584396
0.00024211
9.71175e-05
3.77524e-05
1.42329e-05
5.20781e-06
1.85057e-06
6.39007e-07
2.14534e-07
7.00657e-08
2.22716e-08
6.89359e-09
2.07868e-09
6.10913e-10
1.7507e-10
4.89409e-11
1.3352e-11
3.55646e-12
9.25253e-13
2.35206e-13
5.84449e-14
1.4201e-14
3.37539e-15
7.85093e-16
1.78803e-16
3.98914e-17
8.72091e-18
1.86873e-18
3.92598e-19
8.08876e-20
1.63475e-20
3.24161e-21
6.30818e-22
1.20496e-22
2.25975e-23
4.16145e-24
7.5268e-25
1.33731e-25
2.33444e-26
4.00437e-27
6.75072e-28
1.11864e-28
1.8223e-29
2.91867e-30
4.59662e-31
7.11909e-32
1.08438e-32
1.6246e-33
2.39409e-34
3.47049e-35
4.94889e-36
6.94228e-37
9.58015e-38
1.30056e-38
1.73689e-39
2.28214e-40
2.95031e-41
3.75408e-42
4.70784e-43
0.00470057
0.000443157
4.61442e-05
5.74917e-06
2.12039e-06
5.73277e-06
3.32164e-05
0.000155412
0.000590374
0.0019023
0.00532082
0.013133
0.0291915
0.0589151
0.11219
0.200522
0.329792
0.488522
0.64336
0.757299
0.832584
0.862152
0.873733
0.877669
0.877237
0.872291
0.853215
0.80885
0.74002
0.662069
0.597482
0.55835
0.527741
0.509331
0.499177
0.491597
0.485705
0.479051
0.466145
0.44136
0.389406
0.318922
0.251833
0.204959
0.167264
0.139255
0.119558
0.108239
0.101261
0.102115
0.106447
0.117003
0.138324
0.167927
0.225313
0.297581
0.342588
0.38244
0.4353
0.502043
0.572966
0.66561
0.719134
0.735378
0.73601
0.726045
0.663882
0.51308
0.441261
0.436874
0.446117
0.454947
0.443201
0.410929
0.415994
0.488297
0.690904
0.841706
0.92542
0.967375
0.986679
0.994904
0.99817
0.999384
0.999805
0.999939
0.999981
0.999994
0.999998
0.999999
1
1
1
1
1
1
1
1
1
1
1
1
1
0.999998
0.999988
0.999941
0.999727
0.998785
0.99481
0.978724
0.916156
0.712961
0.475357
0.298396
0.177087
0.099831
0.0536736
0.0276106
0.0136253
0.00646415
0.0029536
0.00130175
0.000554117
0.00022807
9.08566e-05
3.5063e-05
1.31186e-05
4.76195e-06
1.67813e-06
5.74486e-07
1.91159e-07
6.186e-08
1.94785e-08
5.97105e-09
1.78284e-09
5.18737e-10
1.4715e-10
4.07148e-11
1.0993e-11
2.8976e-12
7.45945e-13
1.87629e-13
4.61307e-14
1.10903e-14
2.60816e-15
6.00358e-16
1.35318e-16
2.98753e-17
6.46268e-18
1.3702e-18
2.84805e-19
5.80522e-20
1.16067e-20
2.27677e-21
4.38279e-22
8.28132e-23
1.53623e-23
2.79838e-24
5.0065e-25
8.79867e-26
1.51925e-26
2.57777e-27
4.29859e-28
7.04595e-29
1.13539e-29
1.79886e-30
2.8025e-31
4.29377e-32
6.47019e-33
9.58999e-34
1.39822e-34
2.00545e-35
2.82981e-36
3.92851e-37
5.3661e-38
7.21225e-39
9.53978e-40
1.24198e-40
1.59212e-41
2.0126e-42
0.0180658
0.00226428
0.000346428
6.67059e-05
1.34821e-05
4.99693e-06
7.68626e-06
3.06803e-05
0.000136725
0.000503089
0.00157679
0.004341
0.0107028
0.0238973
0.0500134
0.0989468
0.180796
0.308149
0.463985
0.632305
0.756086
0.825751
0.858094
0.871148
0.874649
0.872823
0.865832
0.841539
0.785863
0.698387
0.623327
0.575211
0.538959
0.516153
0.502888
0.494324
0.488544
0.48429
0.478527
0.467032
0.44181
0.394958
0.317885
0.256975
0.213094
0.179325
0.156807
0.141739
0.133722
0.135117
0.141335
0.155217
0.183563
0.229067
0.287524
0.344712
0.381453
0.410826
0.452353
0.543101
0.658013
0.704288
0.7262
0.735668
0.735506
0.726654
0.672412
0.497355
0.391059
0.369625