/*--------------------------------*- C++ -*----------------------------------*\
  =========                 |
  \\      /  F ield         | OpenFOAM: The Open Source CFD Toolbox
   \\    /   O peration     | Website:  https://openfoam.org
    \\  /    A nd           | Version:  7
     \\/     M anipulation  |
\*---------------------------------------------------------------------------*/
FoamFile
{
    version     2.0;
    format      ascii;
    class       volVectorField;
    location    "0.037";
    object      U;
}
// * * * * * * * * * * * * * * * * * * * * * * * * * * * * * * * * * * * * * //

dimensions      [0 1 -1 0 0 0 0];

internalField   nonuniform List<vector> 
12225
(
(4.6997 0.155001 0)
(4.07337 0.103811 0)
(3.67114 0.0893587 0)
(3.31343 0.079404 0)
(2.9403 0.0698547 0)
(2.588 0.0592092 0)
(2.27736 0.0516193 0)
(1.99859 0.047798 0)
(1.73963 0.0441612 0)
(1.49995 0.0372524 0)
(1.28329 0.0277086 0)
(1.09891 0.0179828 0)
(0.945526 0.0101905 0)
(0.827038 0.0047465 0)
(0.723508 0.00137269 0)
(0.648234 -0.000713336 0)
(0.555599 0.000750311 0)
(0.475788 1.9079e-05 0)
(4.99991 0.105228 0)
(4.80006 0.0668627 0)
(4.70944 0.0839097 0)
(4.64899 0.100145 0)
(4.55182 0.108573 0)
(4.42091 0.106091 0)
(4.28118 0.0993377 0)
(4.14479 0.0943487 0)
(4.0094 0.0933126 0)
(3.87258 0.094393 0)
(3.72759 0.0935829 0)
(3.58218 0.0885473 0)
(3.43838 0.0797607 0)
(3.31163 0.0710208 0)
(3.18334 0.0663008 0)
(3.0645 0.0640957 0)
(2.92147 0.0678209 0)
(2.77283 0.0689103 0)
(4.98416 0.180048 0)
(4.77731 0.11727 0)
(4.67951 0.106983 0)
(4.69507 0.111919 0)
(4.73166 0.123385 0)
(4.73626 0.128697 0)
(4.71335 0.126894 0)
(4.68246 0.124278 0)
(4.65133 0.125089 0)
(4.61677 0.128197 0)
(4.57096 0.128765 0)
(4.51179 0.123741 0)
(4.44327 0.113396 0)
(4.37196 0.10239 0)
(4.30484 0.0960877 0)
(4.24068 0.097605 0)
(4.18484 0.109443 0)
(4.11425 0.120268 0)
(5.06648 0.191361 0)
(4.96576 0.127942 0)
(4.86079 0.109815 0)
(4.78137 0.108742 0)
(4.72879 0.115324 0)
(4.69344 0.120024 0)
(4.67441 0.1175 0)
(4.6701 0.112899 0)
(4.6748 0.11299 0)
(4.68108 0.118631 0)
(4.6832 0.12574 0)
(4.67648 0.128981 0)
(4.66154 0.12618 0)
(4.63827 0.119255 0)
(4.61412 0.114428 0)
(4.58835 0.114527 0)
(4.57058 0.122277 0)
(4.54933 0.132495 0)
(4.98562 0.243914 0)
(4.85585 0.143313 0)
(4.79908 0.123988 0)
(4.77207 0.132997 0)
(4.7513 0.142528 0)
(4.73133 0.142041 0)
(4.71554 0.132786 0)
(4.70628 0.123318 0)
(4.70431 0.120472 0)
(4.70905 0.124144 0)
(4.71856 0.129873 0)
(4.72836 0.132337 0)
(4.73484 0.129569 0)
(4.7344 0.123555 0)
(4.72793 0.119516 0)
(4.71589 0.120132 0)
(4.70344 0.127617 0)
(4.68962 0.139035 0)
(4.87368 0.26112 0)
(4.90043 0.170016 0)
(4.87919 0.1342 0)
(4.84566 0.138439 0)
(4.84418 0.143105 0)
(4.85651 0.137238 0)
(4.85484 0.124579 0)
(4.83324 0.113234 0)
(4.8037 0.109349 0)
(4.78036 0.113194 0)
(4.76918 0.120487 0)
(4.76662 0.125931 0)
(4.7655 0.126938 0)
(4.75987 0.124747 0)
(4.74864 0.123314 0)
(4.73389 0.125802 0)
(4.71925 0.133823 0)
(4.70665 0.145783 0)
(4.91947 0.215195 0)
(4.91913 0.13072 0)
(4.87672 0.118802 0)
(4.84735 0.126127 0)
(4.85255 0.134265 0)
(4.86542 0.141627 0)
(4.85916 0.145663 0)
(4.8292 0.145282 0)
(4.78865 0.142066 0)
(4.7546 0.138155 0)
(4.73673 0.13487 0)
(4.73337 0.132396 0)
(4.73694 0.130458 0)
(4.73896 0.129629 0)
(4.73667 0.131139 0)
(4.72929 0.136017 0)
(4.721 0.144266 0)
(4.71214 0.155112 0)
(4.97672 0.228481 0)
(4.95835 0.174696 0)
(4.95755 0.155016 0)
(4.91413 0.152378 0)
(4.85837 0.146094 0)
(4.81863 0.139897 0)
(4.79897 0.138542 0)
(4.79425 0.139701 0)
(4.7965 0.139578 0)
(4.7978 0.136831 0)
(4.79379 0.132692 0)
(4.78357 0.128915 0)
(4.77018 0.12667 0)
(4.75643 0.126503 0)
(4.7475 0.128916 0)
(4.74347 0.134266 0)
(4.74752 0.142266 0)
(4.7545 0.153044 0)
(4.94877 0.250867 0)
(4.91065 0.14821 0)
(4.89022 0.132192 0)
(4.86526 0.151095 0)
(4.84092 0.165002 0)
(4.82134 0.163669 0)
(4.81209 0.153232 0)
(4.81478 0.142094 0)
(4.82326 0.135826 0)
(4.82997 0.135679 0)
(4.83212 0.139388 0)
(4.83051 0.143028 0)
(4.82743 0.143901 0)
(4.82414 0.141632 0)
(4.82172 0.13811 0)
(4.82025 0.136091 0)
(4.82083 0.137113 0)
(4.82256 0.142955 0)
(4.93786 0.282135 0)
(4.94355 0.174926 0)
(4.91318 0.155738 0)
(4.88791 0.164782 0)
(4.89389 0.166668 0)
(4.91783 0.159777 0)
(4.93731 0.15014 0)
(4.93888 0.142242 0)
(4.9222 0.137954 0)
(4.89742 0.136423 0)
(4.87602 0.135564 0)
(4.86298 0.133967 0)
(4.8568 0.131847 0)
(4.854 0.130625 0)
(4.85177 0.131407 0)
(4.84913 0.134967 0)
(4.84643 0.140814 0)
(4.84355 0.148809 0)
(5.03894 0.258471 0)
(4.96354 0.18306 0)
(4.87005 0.170756 0)
(4.82276 0.162491 0)
(4.82514 0.149914 0)
(4.84926 0.138835 0)
(4.87363 0.135172 0)
(4.88919 0.140145 0)
(4.89414 0.148736 0)
(4.8911 0.155072 0)
(4.88438 0.156591 0)
(4.87756 0.153986 0)
(4.87259 0.149226 0)
(4.8704 0.144366 0)
(4.87143 0.140821 0)
(4.87417 0.139663 0)
(4.87863 0.14127 0)
(4.88082 0.146198 0)
(5.09211 0.297449 0)
(4.99335 0.234875 0)
(4.95276 0.196159 0)
(4.94725 0.164803 0)
(4.96544 0.147326 0)
(4.97537 0.140893 0)
(4.96299 0.140818 0)
(4.93629 0.14361 0)
(4.90989 0.146454 0)
(4.89457 0.147671 0)
(4.89315 0.146455 0)
(4.90118 0.142746 0)
(4.91213 0.137457 0)
(4.92076 0.132385 0)
(4.92546 0.129649 0)
(4.9259 0.130488 0)
(4.92383 0.135657 0)
(4.91996 0.144776 0)
(5.13124 0.267279 0)
(5.08912 0.267577 0)
(5.05707 0.211997 0)
(4.99282 0.16648 0)
(4.93729 0.141584 0)
(4.91113 0.136478 0)
(4.90929 0.145061 0)
(4.92017 0.155547 0)
(4.93542 0.159585 0)
(4.94977 0.15641 0)
(4.95919 0.149378 0)
(4.95991 0.142236 0)
(4.95152 0.137473 0)
(4.93617 0.136104 0)
(4.91933 0.137547 0)
(4.90483 0.141453 0)
(4.89658 0.14659 0)
(4.8946 0.153985 0)
(5.07736 0.345971 0)
(5.03917 0.281132 0)
(5.04113 0.226995 0)
(5.04158 0.205505 0)
(5.0356 0.184347 0)
(5.019 0.161525 0)
(4.9942 0.145678 0)
(4.96951 0.137922 0)
(4.9519 0.135707 0)
(4.94446 0.138021 0)
(4.94619 0.144043 0)
(4.95326 0.151519 0)
(4.96198 0.157216 0)
(4.96962 0.158593 0)
(4.97552 0.155054 0)
(4.97827 0.148664 0)
(4.9803 0.142131 0)
(4.97824 0.139396 0)
(4.93252 0.29665 0)
(4.96605 0.28128 0)
(4.9873 0.230146 0)
(5.00864 0.176767 0)
(5.01501 0.154329 0)
(5.0069 0.160088 0)
(4.98933 0.175354 0)
(4.96802 0.181517 0)
(4.95128 0.172731 0)
(4.9462 0.154311 0)
(4.95485 0.134733 0)
(4.97478 0.120468 0)
(5.00146 0.114259 0)
(5.02904 0.115862 0)
(5.05255 0.123649 0)
(5.06768 0.134821 0)
(5.07427 0.148004 0)
(5.07165 0.160227 0)
(4.96463 0.297653 0)
(4.94382 0.241633 0)
(4.98001 0.1897 0)
(4.99762 0.169861 0)
(4.98211 0.172212 0)
(4.96038 0.180595 0)
(4.9543 0.183729 0)
(4.96403 0.176301 0)
(4.98001 0.160208 0)
(4.99263 0.141052 0)
(4.99753 0.124111 0)
(4.99552 0.11261 0)
(4.99098 0.107567 0)
(4.9875 0.10852 0)
(4.98764 0.114208 0)
(4.99159 0.123409 0)
(4.99886 0.134394 0)
(5.00892 0.14646 0)
(4.9935 0.334047 0)
(5.0041 0.238497 0)
(4.99613 0.197261 0)
(4.97669 0.202635 0)
(4.95406 0.207638 0)
(4.94536 0.193997 0)
(4.95049 0.168126 0)
(4.96189 0.143896 0)
(4.97347 0.129479 0)
(4.98105 0.124517 0)
(4.98372 0.123905 0)
(4.98387 0.123068 0)
(4.98512 0.120467 0)
(4.98959 0.117677 0)
(4.99779 0.116445 0)
(5.00873 0.118322 0)
(5.02177 0.122515 0)
(5.03544 0.128808 0)
(4.95945 0.332017 0)
(4.95967 0.26731 0)
(4.96647 0.214324 0)
(4.97555 0.183014 0)
(4.99681 0.17283 0)
(5.02048 0.171275 0)
(5.03888 0.165363 0)
(5.05058 0.155489 0)
(5.05783 0.146295 0)
(5.06281 0.138433 0)
(5.06584 0.129286 0)
(5.06628 0.116941 0)
(5.0639 0.102331 0)
(5.05954 0.0891238 0)
(5.05506 0.0807069 0)
(5.05262 0.0787967 0)
(5.05378 0.0822044 0)
(5.0593 0.0891183 0)
(4.94071 0.255683 0)
(4.93126 0.18104 0)
(4.96342 0.167596 0)
(4.97398 0.170058 0)
(4.98091 0.164648 0)
(4.98822 0.146443 0)
(4.99787 0.122352 0)
(5.01369 0.103101 0)
(5.03417 0.0947785 0)
(5.05622 0.0971887 0)
(5.07724 0.107032 0)
(5.09406 0.11995 0)
(5.10443 0.131198 0)
(5.10815 0.136916 0)
(5.10753 0.134525 0)
(5.10511 0.12517 0)
(5.10382 0.110507 0)
(5.10432 0.095247 0)
(5.0105 0.262428 0)
(4.9638 0.220691 0)
(4.95749 0.180312 0)
(4.95805 0.156673 0)
(4.97845 0.150483 0)
(5.00599 0.14169 0)
(5.031 0.122847 0)
(5.0538 0.0983148 0)
(5.07341 0.0768467 0)
(5.08882 0.0651225 0)
(5.10242 0.0644792 0)
(5.1175 0.0719771 0)
(5.13599 0.0825773 0)
(5.15737 0.0917161 0)
(5.17981 0.0962128 0)
(5.19964 0.0955421 0)
(5.21557 0.090503 0)
(5.22439 0.0831843 0)
(5.01053 0.241662 0)
(5.00896 0.222652 0)
(5.02982 0.163698 0)
(5.05015 0.130258 0)
(5.07047 0.109622 0)
(5.08523 0.0838179 0)
(5.09146 0.0560221 0)
(5.09428 0.0377347 0)
(5.10004 0.0339117 0)
(5.11149 0.0397403 0)
(5.12862 0.0466162 0)
(5.15004 0.0493212 0)
(5.1738 0.0477914 0)
(5.19787 0.0451137 0)
(5.22087 0.0444059 0)
(5.24124 0.0468607 0)
(5.25856 0.0522878 0)
(5.2717 0.058629 0)
(5.04828 0.301493 0)
(5.05493 0.250172 0)
(5.06552 0.16491 0)
(5.0796 0.113444 0)
(5.10293 0.110426 0)
(5.12787 0.121536 0)
(5.14417 0.115605 0)
(5.15195 0.0900501 0)
(5.15625 0.0586348 0)
(5.16102 0.0338996 0)
(5.16822 0.020263 0)
(5.178 0.0162489 0)
(5.18952 0.0182935 0)
(5.20181 0.0233544 0)
(5.21491 0.0296419 0)
(5.22846 0.0360386 0)
(5.24261 0.0417589 0)
(5.2562 0.0463173 0)
(4.98606 0.265246 0)
(5.08273 0.191178 0)
(5.12482 0.134224 0)
(5.12516 0.0856457 0)
(5.12034 0.0580706 0)
(5.13516 0.041626 0)
(5.16384 0.0286741 0)
(5.19443 0.0201599 0)
(5.21979 0.0168552 0)
(5.23814 0.016992 0)
(5.25169 0.0168397 0)
(5.26363 0.0141904 0)
(5.27597 0.00934695 0)
(5.28931 0.00438059 0)
(5.30399 0.00145395 0)
(5.3188 0.00163127 0)
(5.33386 0.00518425 0)
(5.34758 0.010879 0)
(5.04995 0.219894 0)
(5.04657 0.178891 0)
(5.09241 0.154289 0)
(5.14466 0.129948 0)
(5.18987 0.111686 0)
(5.2257 0.0908548 0)
(5.25378 0.0661551 0)
(5.27682 0.0418231 0)
(5.29766 0.0221913 0)
(5.31721 0.00842555 0)
(5.33451 6.87849e-05 0)
(5.3487 -0.00467525 0)
(5.35926 -0.00726729 0)
(5.36622 -0.00767155 0)
(5.37112 -0.00565012 0)
(5.37609 -0.0017106 0)
(5.38227 0.00403728 0)
(5.39002 0.0107145 0)
(4.9507 0.240431 0)
(4.97677 0.142905 0)
(5.07016 0.0629833 0)
(5.14603 0.0179905 0)
(5.20609 -0.000899114 0)
(5.25638 -0.0110138 0)
(5.29892 -0.0169514 0)
(5.33211 -0.019095 0)
(5.35422 -0.0189535 0)
(5.36536 -0.0178194 0)
(5.36708 -0.0156909 0)
(5.36028 -0.0131358 0)
(5.34777 -0.0111245 0)
(5.33311 -0.0109039 0)
(5.32029 -0.0117683 0)
(5.31291 -0.0123108 0)
(5.3132 -0.0118263 0)
(5.32085 -0.00918009 0)
(5.03944 0.245487 0)
(5.08702 0.119286 0)
(5.15811 0.0813888 0)
(5.20747 0.0680106 0)
(5.23854 0.0466317 0)
(5.2573 0.0254929 0)
(5.27155 0.0105779 0)
(5.28477 0.00193971 0)
(5.29835 -0.00181453 0)
(5.3143 -0.000546843 0)
(5.33422 0.00465191 0)
(5.35768 0.0113983 0)
(5.38238 0.0165908 0)
(5.40537 0.017232 0)
(5.42537 0.0127307 0)
(5.44194 0.00502964 0)
(5.45618 -0.00380047 0)
(5.46963 -0.0110035 0)
(5.0237 0.198806 0)
(5.07791 0.0812648 0)
(5.18559 0.0106105 0)
(5.24916 -0.0157847 0)
(5.28351 -0.0287569 0)
(5.30686 -0.0341008 0)
(5.32861 -0.0349447 0)
(5.35231 -0.035913 0)
(5.37654 -0.038495 0)
(5.39937 -0.0418891 0)
(5.42089 -0.0443914 0)
(5.44187 -0.044745 0)
(5.46234 -0.0432019 0)
(5.48111 -0.04053 0)
(5.4975 -0.038056 0)
(5.5114 -0.0366817 0)
(5.52398 -0.0364586 0)
(5.53611 -0.0371925 0)
(4.99877 0.177201 0)
(5.19268 0.0647178 0)
(5.3303 0.0388081 0)
(5.3826 0.024296 0)
(5.40782 0.00912113 0)
(5.43117 -0.00264904 0)
(5.44673 -0.0118286 0)
(5.45204 -0.0197657 0)
(5.45442 -0.0248115 0)
(5.4631 -0.0255097 0)
(5.48266 -0.0223981 0)
(5.51164 -0.0172495 0)
(5.54474 -0.0124573 0)
(5.57633 -0.0101759 0)
(5.60342 -0.0115867 0)
(5.62532 -0.0165222 0)
(5.64322 -0.0239648 0)
(5.65849 -0.032 0)
(4.97715 -0.00180543 0)
(5.17812 -0.0374746 0)
(5.29422 -0.0270627 0)
(5.36492 -0.0448755 0)
(5.42806 -0.0577831 0)
(5.4812 -0.0552007 0)
(5.51039 -0.0460963 0)
(5.5141 -0.0419503 0)
(5.50338 -0.0469726 0)
(5.49098 -0.0581847 0)
(5.4834 -0.0695592 0)
(5.48116 -0.076177 0)
(5.48116 -0.0762784 0)
(5.48069 -0.0712532 0)
(5.47725 -0.0642273 0)
(5.47138 -0.0582538 0)
(5.46256 -0.0549298 0)
(5.45373 -0.0544675 0)
(4.98762 0.0213937 0)
(5.11327 -0.00637451 0)
(5.11065 -0.00603937 0)
(4.97636 -0.0292529 0)
(4.79787 -0.0397927 0)
(4.63912 -0.0336208 0)
(4.52337 -0.0219723 0)
(4.43972 -0.0145156 0)
(4.36305 -0.013839 0)
(4.27332 -0.0172253 0)
(4.16587 -0.0204819 0)
(4.05018 -0.0209826 0)
(3.93901 -0.0187079 0)
(3.84105 -0.0157704 0)
(3.75649 -0.014729 0)
(3.68229 -0.0166196 0)
(3.61087 -0.021186 0)
(3.53911 -0.0265052 0)
(0.0162202 -0.044077 4.04548e-21)
(0.0872148 -0.0911198 -4.01528e-21)
(0.180323 -0.10619 0)
(0.273803 -0.109058 0)
(0.367565 -0.108414 0)
(0.462013 -0.107345 3.87242e-21)
(0.557417 -0.106628 0)
(0.654071 -0.106185 0)
(0.752106 -0.105672 0)
(0.851283 -0.104655 0)
(0.950875 -0.102638 -3.65078e-21)
(1.04959 -0.0990928 0)
(1.14568 -0.0934036 0)
(1.23664 -0.0851008 0)
(1.31971 -0.0735621 0)
(1.39115 -0.0584064 -3.39006e-21)
(1.44777 -0.0393442 0)
(1.48481 -0.0161237 0)
(1.50109 0.0119336 0)
(1.49068 0.0451931 0)
(1.45158 0.0813422 0)
(1.38412 0.115589 0)
(1.29498 0.143034 0)
(1.19637 0.162389 -3.12124e-21)
(1.10026 0.158438 3.10862e-21)
(1.01442 0.090786 -3.09653e-21)
(0.937126 -0.0500607 -3.08354e-21)
(0.854032 -0.18819 0)
(0.756466 -0.204895 0)
(0.60228 -0.0357653 3.01173e-21)
(0.310927 0.199028 2.99591e-21)
(-0.0725796 0.328008 0)
(-0.475346 0.367886 0)
(-0.880591 0.374394 2.89417e-21)
(-1.27486 0.36626 0)
(-1.65366 0.351163 0)
(-2.01415 0.332361 -2.67256e-21)
(-2.35492 0.311735 0)
(-2.67533 0.290309 -2.48833e-21)
(-2.97488 0.268336 -4.78439e-21)
(-3.253 0.245928 0)
(-3.50895 0.223245 0)
(-3.74195 0.20036 0)
(-3.95107 0.177224 0)
(-4.13525 0.153826 0)
(-4.29342 0.130191 -3.75039e-21)
(-4.42458 0.106445 -3.62731e-21)
(-4.528 0.0828041 -3.52504e-21)
(-4.60334 0.0596413 0)
(-4.6506 0.037518 3.38778e-21)
(-4.66998 0.0170384 0)
(-4.66215 -0.00141202 -3.34094e-21)
(-4.63182 -0.0178418 -3.3489e-21)
(-4.57864 -0.0325255 0)
(-4.50588 -0.0454294 0)
(-4.41503 -0.0566023 0)
(-4.30894 -0.0659458 -3.53701e-21)
(-4.18974 -0.0735007 0)
(-4.06007 -0.079284 0)
(-3.9222 -0.0833915 0)
(-3.77853 -0.0859422 0)
(-3.63112 -0.0871156 0)
(-3.4819 -0.087126 0)
(-3.33238 -0.0862543 0)
(-3.18366 -0.0848193 0)
(-3.03628 -0.0831915 4.19261e-21)
(-2.89016 -0.0817453 0)
(-2.74461 -0.0808362 0)
(-2.59837 -0.0807431 -4.36789e-21)
(-2.44984 -0.0816165 -4.42362e-21)
(-2.29729 -0.0834374 0)
(-2.13921 -0.0860031 4.5332e-21)
(-1.97458 -0.0889399 -4.5863e-21)
(-1.80316 -0.0917539 0)
(-1.62565 -0.0939229 4.68349e-21)
(-1.4436 -0.0950072 0)
(-1.25915 -0.0947404 0)
(-1.07469 -0.0930651 -4.78422e-21)
(-0.892621 -0.0900853 0)
(-0.715149 -0.0860035 4.81013e-21)
(-0.544028 -0.0811331 0)
(-0.380581 -0.0757785 -4.80313e-21)
(-0.225584 -0.0701296 -4.78896e-21)
(-0.0797799 -0.0643811 -4.76878e-21)
(0.0561681 -0.0591079 -9.48405e-21)
(0.183044 -0.0537565 9.4205e-21)
(0.301551 -0.0486628 0)
(0.411694 -0.0438413 0)
(0.513803 -0.0393004 0)
(0.608238 -0.0350405 9.10708e-21)
(0.695369 -0.0310569 9.01895e-21)
(0.77557 -0.0273432 -8.92841e-21)
(0.849215 -0.0238931 0)
(0.916679 -0.0207007 8.74238e-21)
(0.978335 -0.0177603 8.64781e-21)
(1.03456 -0.0150657 8.55269e-21)
(1.08572 -0.0126092 0)
(1.1322 -0.0103812 0)
(1.17434 -0.00836978 0)
(1.21251 -0.00656047 8.17223e-21)
(1.24701 -0.004937 0)
(1.27817 -0.00348193 0)
(1.30625 -0.00217735 -7.8918e-21)
(1.3315 -0.00100657 0)
(1.35414 4.54457e-05 0)
(1.37434 0.000991553 -7.61825e-21)
(1.39228 0.0018403 0)
(1.40809 0.00259886 0)
(1.4219 0.0032715 7.35224e-21)
(1.43384 0.0038571 7.26523e-21)
(1.444 0.00436038 0)
(1.45252 0.00478037 -7.09364e-21)
(1.45951 0.00511037 0)
(1.46508 0.00536755 6.92517e-21)
(1.46936 0.0055464 0)
(1.4725 0.00563367 6.75973e-21)
(1.47459 0.00567869 6.6781e-21)
(1.47568 0.00570557 0)
(1.47593 0.00568253 0)
(1.47545 0.00559821 0)
(1.47435 0.00546215 0)
(1.47275 0.00528315 0)
(1.47077 0.00507018 0)
(1.46848 0.00483427 0)
(1.46597 0.00458451 6.04954e-21)
(1.46329 0.004327 -5.97384e-21)
(1.46049 0.0040701 0)
(1.45761 0.00382485 0)
(1.45467 0.00359359 0)
(1.4517 0.00336632 0)
(1.44873 0.00313623 -1.12081e-20)
(1.44578 0.00290658 0)
(1.44284 0.00269621 1.09199e-20)
(1.4399 0.00250685 -1.07774e-20)
(1.43698 0.00233545 0)
(1.43407 0.00218083 0)
(1.43118 0.00204196 0)
(1.42831 0.0019159 1.02173e-20)
(1.42547 0.00179964 1.00797e-20)
(1.42265 0.00169042 0)
(1.41988 0.00158661 9.8073e-21)
(1.41714 0.0014877 9.67248e-21)
(1.41446 0.00139532 -9.53857e-21)
(1.41183 0.00131165 0)
(1.40925 0.00123858 0)
(1.40671 0.001177 -9.14216e-21)
(1.40421 0.00112643 0)
(1.40173 0.00108532 0)
(1.39927 0.00105162 0)
(1.39683 0.00102329 0)
(1.39438 0.00099869 8.4985e-21)
(1.39194 0.00097678 8.37223e-21)
(1.38949 0.000957123 0)
(1.38702 0.000939809 8.12205e-21)
(1.38454 0.000925293 0)
(1.38202 0.000914189 0)
(1.37947 0.0009072 7.75263e-21)
(1.37688 0.000904984 0)
(1.37421 0.00090837 7.51016e-21)
(1.37149 0.00091811 0)
(1.36865 0.00093561 0)
(1.36572 0.000961911 7.15208e-21)
(1.3626 0.00100003 0)
(1.35937 0.00105037 6.91712e-21)
(1.3558 0.00112017 0)
(1.3521 0.00120635 0)
(1.34779 0.00132843 0)
(1.34337 0.0014696 -6.45651e-21)
(1.33782 0.00168611 0)
(1.33223 0.00191108 6.23125e-21)
(1.3246 0.00231747 0)
(1.31694 0.00265875 0)
(1.3059 0.00348355 0)
(1.29402 0.00394771 0)
(1.27786 0.00581256 0)
(1.25554 0.00619213 0)
(1.23394 0.0111256 0)
(1.18073 0.0102967 -1.0767e-20)
(1.16428 0.0256588 0)
(1.00469 0.018875 0)
(0.0261143 -0.174201 -1.21365e-20)
(0.0884517 -0.27176 1.2044e-20)
(0.152549 -0.288934 0)
(0.215736 -0.288617 -7.89371e-21)
(0.280651 -0.287209 0)
(0.348204 -0.287944 -3.87302e-21)
(0.418824 -0.290561 7.66533e-21)
(0.492423 -0.29396 7.5813e-21)
(0.568726 -0.296914 0)
(0.647257 -0.298158 7.39973e-21)
(0.727247 -0.296399 3.65242e-21)
(0.807535 -0.290157 0)
(0.886401 -0.277892 0)
(0.961916 -0.257952 0)
(1.0311 -0.229012 0)
(1.09182 -0.190184 3.39255e-21)
(1.14003 -0.141316 0)
(1.17557 -0.0845605 -6.55895e-21)
(1.19299 -0.0211582 0)
(1.19449 0.0454814 0)
(1.17424 0.108636 6.32257e-21)
(1.12504 0.15778 0)
(1.04135 0.17926 -6.23795e-21)
(0.917276 0.1688 3.12266e-21)
(0.743434 0.159124 -3.11102e-21)
(0.509375 0.209217 3.10063e-21)
(0.194097 0.342757 3.08963e-21)
(-0.230971 0.518499 0)
(-0.697982 0.6822 0)
(-1.11913 0.816445 -3.00766e-21)
(-1.49106 0.90784 2.91142e-21)
(-1.8258 0.942554 0)
(-2.13554 0.936154 0)
(-2.42568 0.9068 -2.88126e-21)
(-2.69827 0.86418 0)
(-2.9543 0.814799 0)
(-3.19463 0.762808 2.66348e-21)
(-3.42 0.710301 0)
(-3.63101 0.658178 -2.35978e-21)
(-3.82791 0.606529 4.77269e-21)
(-4.01062 0.555074 0)
(-4.17875 0.50332 0)
(-4.33176 0.450723 8.22814e-21)
(-4.46883 0.396937 7.89468e-21)
(-4.58881 0.341788 7.58668e-21)
(-4.69046 0.285307 -3.56397e-21)
(-4.77261 0.227717 3.62403e-21)
(-4.83429 0.169496 1.03967e-20)
(-4.87477 0.111463 -6.72298e-21)
(-4.89367 0.054769 -3.38608e-21)
(-4.89118 0.000631268 0)
(-4.86786 -0.0500489 3.33948e-21)
(-4.82145 -0.0967321 -3.22964e-21)
(-4.75502 -0.138945 0)
(-4.66907 -0.176306 0)
(-4.56629 -0.208531 0)
(-4.44848 -0.23544 3.53534e-21)
(-4.31832 -0.257017 0)
(-4.17807 -0.273388 -7.31363e-21)
(-4.03027 -0.284817 0)
(-3.87719 -0.291704 -7.64073e-21)
(-3.72107 -0.294582 0)
(-3.56385 -0.29412 7.95093e-21)
(-3.40716 -0.291138 0)
(-3.25215 -0.286604 -8.22947e-21)
(-3.09934 -0.281607 4.16507e-21)
(-2.94859 -0.277279 0)
(-2.79901 -0.274692 8.59028e-21)
(-2.64908 -0.274702 4.36651e-21)
(-2.49685 -0.27778 4.42224e-21)
(-2.3402 -0.283885 0)
(-2.17725 -0.292406 4.49771e-21)
(-2.0067 -0.302186 4.58488e-21)
(-1.8282 -0.311655 0)
(-1.64251 -0.319128 -4.68208e-21)
(-1.45147 -0.323178 9.42553e-21)
(-1.25762 -0.32296 0)
(-1.06374 -0.318325 4.78301e-21)
(-0.872479 -0.309672 0)
(-0.686137 -0.297718 -1.44185e-20)
(-0.506459 -0.283412 0)
(-0.334621 -0.267603 1.44005e-20)
(-0.171165 -0.251047 4.78843e-21)
(-0.0172041 -0.234375 -4.76195e-21)
(0.127415 -0.218492 -9.47084e-21)
(0.263853 -0.202831 9.40787e-21)
(0.392243 -0.187867 0)
(0.51291 -0.173676 0)
(0.62621 -0.160283 0)
(0.732501 -0.147682 -2.7306e-20)
(0.832138 -0.135855 -9.01625e-21)
(0.925463 -0.124777 8.92568e-21)
(1.01282 -0.114423 0)
(1.09453 -0.104774 8.73427e-21)
(1.17095 -0.09581 -8.6449e-21)
(1.24241 -0.0875138 -8.5497e-21)
(1.30927 -0.079866 0)
(1.37186 -0.0728436 0)
(1.43053 -0.066418 0)
(1.48561 -0.0605541 -8.1689e-21)
(1.53742 -0.0552108 0)
(1.58626 -0.0503417 1.5959e-20)
(1.63238 -0.0458967 2.36616e-20)
(1.67605 -0.0418251 -1.55895e-20)
(1.71745 -0.038078 0)
(1.75676 -0.03461 -7.61202e-21)
(1.79414 -0.0313834 0)
(1.82968 -0.0283673 -1.48699e-20)
(1.86348 -0.0255385 7.34621e-21)
(1.89562 -0.0228836 7.25925e-21)
(1.92614 -0.020393 0)
(1.95511 -0.0180618 2.1266e-20)
(1.98257 -0.0158942 -1.40076e-20)
(2.00854 -0.0138841 -6.92049e-21)
(2.0331 -0.0120326 0)
(2.05626 -0.0103454 -6.7549e-21)
(2.07809 -0.00879421 -2.00188e-20)
(2.09869 -0.00737542 0)
(2.1181 -0.00611599 -1.30232e-20)
(2.13637 -0.00501904 -1.28641e-20)
(2.15352 -0.00406996 -1.27064e-20)
(2.1696 -0.00325577 0)
(2.18464 -0.00256268 0)
(2.1987 -0.00197373 0)
(2.2118 -0.00147674 6.0441e-21)
(2.224 -0.00106091 5.96871e-21)
(2.23534 -0.000709209 0)
(2.24584 -0.000410115 1.1638e-20)
(2.25555 -0.000164066 1.14902e-20)
(2.26452 3.61307e-05 0)
(2.27276 0.00021256 1.11981e-20)
(2.2803 0.000387481 2.21069e-20)
(2.28717 0.000545912 -1.09101e-20)
(2.29342 0.000681285 -1.07675e-20)
(2.29907 0.000795357 0)
(2.30417 0.000889304 0)
(2.30876 0.000963728 0)
(2.31286 0.00102023 -1.0208e-20)
(2.31651 0.00106419 1.00704e-20)
(2.31976 0.00109315 1.98679e-20)
(2.32262 0.00110799 -9.79839e-21)
(2.32513 0.00111027 9.66367e-21)
(2.32733 0.0011032 9.52995e-21)
(2.32923 0.0010894 0)
(2.33086 0.0010718 0)
(2.33226 0.00105339 -9.13396e-21)
(2.33343 0.00103611 0)
(2.33441 0.00102086 0)
(2.33521 0.00100797 1.74915e-20)
(2.33584 0.000997755 0)
(2.33633 0.000990748 8.49105e-21)
(2.33668 0.00098775 -8.36495e-21)
(2.33691 0.000989528 0)
(2.33703 0.000996728 8.11503e-21)
(2.33703 0.00100972 0)
(2.33691 0.00102884 0)
(2.33668 0.00105453 -7.74608e-21)
(2.33633 0.00108743 1.52492e-20)
(2.33584 0.00112905 -7.50389e-21)
(2.33523 0.00118057 0)
(2.33447 0.00124591 0)
(2.33357 0.00132568 7.14612e-21)
(2.33248 0.0014295 0)
(2.33125 0.00155395 6.91137e-21)
(2.32975 0.00172423 0)
(2.32808 0.0019188 0)
(2.326 0.00220718 0)
(2.32371 0.00250725 6.45141e-21)
(2.32077 0.00301769 0)
(2.31751 0.00346669 -6.22638e-21)
(2.31325 0.00442562 0)
(2.30827 0.0050556 0)
(2.30204 0.00699036 1.17916e-20)
(2.29361 0.00774806 -1.15763e-20)
(2.28473 0.0119946 0)
(2.26831 0.0125461 0)
(2.25729 0.022738 0)
(2.21992 0.0222224 3.22595e-20)
(2.213 0.0488913 0)
(2.11706 0.0465016 -2.07278e-20)
(0.0227938 -0.284234 -1.07296e-23)
(0.0500036 -0.364512 -1.60688e-20)
(0.0745951 -0.36995 0)
(0.0990961 -0.373379 1.5801e-20)
(0.126525 -0.380503 0)
(0.156393 -0.389911 0)
(0.18879 -0.400256 1.14471e-23)
(0.223072 -0.410172 -7.58624e-21)
(0.258706 -0.418309 -7.51117e-21)
(0.294961 -0.423208 -7.40623e-21)
(0.331176 -0.423127 0)
(0.366251 -0.415988 0)
(0.398637 -0.399452 7.11485e-21)
(0.426267 -0.371108 1.40107e-20)
(0.446719 -0.328993 -1.37878e-20)
(0.456111 -0.272521 0)
(0.450021 -0.203484 -1.33498e-20)
(0.423845 -0.122264 6.57287e-21)
(0.36762 -0.0267724 0)
(0.285205 0.0855953 -1.27958e-20)
(0.169881 0.21679 -6.33872e-21)
(0.0174448 0.362712 1.25533e-20)
(-0.178677 0.518414 6.24993e-21)
(-0.428478 0.67981 0)
(-0.723094 0.841151 -1.23018e-20)
(-1.03888 0.992625 -1.22075e-20)
(-1.35394 1.12041 0)
(-1.65632 1.21387 -1.19965e-20)
(-1.93138 1.28108 0)
(-2.17198 1.32912 -1.1717e-20)
(-2.38163 1.35229 -5.88092e-21)
(-2.56513 1.34381 0)
(-2.73304 1.30965 0)
(-2.89255 1.25792 0)
(-3.04971 1.19645 0)
(-3.20783 1.13066 0)
(-3.36865 1.06403 0)
(-3.53225 0.997968 -9.71886e-21)
(-3.69758 0.932664 1.42102e-20)
(-3.86275 0.867445 0)
(-4.02536 0.801221 0)
(-4.18255 0.732789 0)
(-4.33115 0.661112 -2.75152e-22)
(-4.46794 0.585599 -7.89244e-21)
(-4.59001 0.506053 -1.49004e-20)
(-4.69476 0.422728 1.43513e-20)
(-4.77992 0.33633 6.80764e-21)
(-4.84353 0.247976 -6.87338e-21)
(-4.88399 0.159047 2.48866e-22)
(-4.90053 0.071042 -6.38033e-21)
(-4.89342 -0.0146205 0)
(-4.86344 -0.0966422 -6.33622e-21)
(-4.81167 -0.17336 1.95746e-22)
(-4.73965 -0.243251 0)
(-4.6492 -0.305188 0)
(-4.54228 -0.35842 6.71836e-21)
(-4.42103 -0.402611 0)
(-4.28761 -0.437699 0)
(-4.14429 -0.463909 -7.13557e-21)
(-3.99328 -0.481677 -1.48021e-20)
(-3.8369 -0.491664 7.63893e-21)
(-3.67744 -0.494746 0)
(-3.51718 -0.492056 -7.94915e-21)
(-3.35818 -0.484992 0)
(-3.20209 -0.475257 -8.14379e-21)
(-3.04983 -0.464799 -8.35455e-21)
(-2.90139 -0.45569 1.68595e-20)
(-2.75575 -0.449907 8.49223e-21)
(-2.61091 -0.449074 0)
(-2.46416 -0.454136 -1.75055e-20)
(-2.31255 -0.465071 0)
(-2.15329 -0.480766 -2.69644e-20)
(-1.98436 -0.499066 -1.81583e-20)
(-1.805 -0.516974 -1.83772e-20)
(-1.61617 -0.53121 1.85855e-20)
(-1.4205 -0.539014 -2.8196e-20)
(-1.22163 -0.538844 0)
(-1.02337 -0.53057 0)
(-0.829034 -0.515144 1.9137e-20)
(-0.641308 -0.494098 2.87892e-20)
(-0.461992 -0.469251 0)
(-0.292092 -0.442174 -9.59599e-21)
(-0.131996 -0.414158 0)
(0.0174916 -0.386941 2.85616e-20)
(0.157104 -0.360324 1.90942e-23)
(0.288304 -0.334823 -1.75972e-23)
(0.411277 -0.310613 -1.86646e-20)
(0.526633 -0.287764 0)
(0.634929 -0.266265 1.8354e-20)
(0.736674 -0.246069 1.2666e-23)
(0.83232 -0.227122 0)
(0.922254 -0.209379 0)
(1.00681 -0.192805 0)
(1.08628 -0.177372 -1.7472e-20)
(1.16095 -0.16306 0)
(1.23108 -0.149848 0)
(1.29698 -0.137709 0)
(1.35895 -0.12661 0)
(1.41729 -0.116507 0)
(1.47234 -0.107342 -1.63271e-20)
(1.52441 -0.0990482 0)
(1.57379 -0.0915473 -1.59582e-20)
(1.62077 -0.0847552 -1.57727e-20)
(1.6656 -0.0785854 1.55888e-20)
(1.70847 -0.0729528 0)
(1.74958 -0.067778 1.52257e-20)
(1.78906 -0.0629917 0)
(1.82702 -0.0585351 1.48693e-20)
(1.86356 -0.0543626 -1.46936e-20)
(1.89873 -0.0504419 -4.35527e-20)
(1.93259 -0.0467485 0)
(1.96518 -0.0432698 -4.25236e-20)
(1.99652 -0.0399977 -1.40024e-20)
(2.02664 -0.0369249 0)
(2.05557 -0.0340501 -2.73419e-20)
(2.08334 -0.0313663 -2.70127e-20)
(2.10996 -0.0288677 4.0031e-20)
(2.13546 -0.0265592 0)
(2.15986 -0.024439 1.30222e-20)
(2.1832 -0.0224938 1.28631e-20)
(2.20549 -0.0207063 3.81142e-20)
(2.22677 -0.0190636 0)
(2.24703 -0.0175538 0)
(2.26632 -0.0161624 0)
(2.28465 -0.0148776 1.20862e-20)
(2.30204 -0.0136893 0)
(2.3185 -0.0125839 0)
(2.33407 -0.0115506 -1.16368e-20)
(2.34878 -0.0105875 -1.14889e-20)
(2.36262 -0.00969069 0)
(2.37564 -0.00884693 0)
(2.38788 -0.00803655 -2.21041e-20)
(2.39935 -0.00727179 0)
(2.4101 -0.00655737 2.15323e-20)
(2.42014 -0.00589269 2.12492e-20)
(2.4295 -0.00527704 0)
(2.4382 -0.00470697 0)
(2.44628 -0.00418036 -2.04128e-20)
(2.45375 -0.00370269 -1.67848e-25)
(2.46063 -0.00326877 -1.43203e-25)
(2.46697 -0.0028772 0)
(2.47278 -0.00253063 -3.86486e-20)
(2.4781 -0.00222163 0)
(2.48296 -0.00194537 0)
(2.48738 -0.00169726 0)
(2.4914 -0.00147235 1.82649e-20)
(2.49506 -0.00126693 0)
(2.49837 -0.00107883 -3.54912e-20)
(2.50136 -0.000907352 -1.74885e-20)
(2.50406 -0.0007524 0)
(2.50649 -0.000613259 -1.69792e-20)
(2.50867 -0.000487734 0)
(2.51063 -0.000372098 0)
(2.51238 -0.000261824 -4.86818e-20)
(2.51394 -0.000152435 3.19595e-20)
(2.51531 -4.05133e-05 0)
(2.51652 7.66604e-05 3.09787e-20)
(2.51757 0.000200304 -1.52465e-20)
(2.51845 0.000332876 0)
(2.51919 0.000474725 0)
(2.51977 0.000631883 0)
(2.52019 0.000803401 -4.28692e-20)
(2.52047 0.00100482 0)
(2.52057 0.00122848 -1.38205e-20)
(2.52051 0.00151359 0)
(2.52022 0.00182606 0)
(2.51976 0.00226729 0)
(2.51897 0.00272126 0)
(2.51797 0.00345835 0)
(2.51642 0.00412459 0)
(2.51469 0.00544684 -2.4453e-20)
(2.51188 0.00640774 0)
(2.50913 0.00895961 -1.17894e-20)
(2.50404 0.010283 3.47171e-20)
(2.49996 0.015594 0)
(2.49049 0.017332 0)
(2.48504 0.0292352 -2.18827e-20)
(2.46694 0.0318234 -2.14963e-20)
(2.46158 0.0602208 2.1076e-20)
(2.42898 0.0673239 2.07224e-20)
(0.00947112 -0.324662 2.435e-20)
(0.0036882 -0.377883 2.41676e-20)
(-0.00211796 -0.383191 1.59981e-20)
(-0.0091214 -0.38873 7.95627e-21)
(-0.0154978 -0.396897 0)
(-0.022826 -0.406611 -1.5578e-20)
(-0.0311476 -0.416496 7.74102e-21)
(-0.0413992 -0.424896 0)
(-0.0543714 -0.430387 7.51551e-21)
(-0.0711004 -0.43107 0)
(-0.0926658 -0.4245 -1.47339e-20)
(-0.120721 -0.408002 0)
(-0.157556 -0.3785 -7.1199e-21)
(-0.205833 -0.332361 -1.402e-20)
(-0.268206 -0.265631 1.37957e-20)
(-0.347204 -0.174412 0)
(-0.445015 -0.0565454 1.33505e-20)
(-0.561599 0.0854784 0)
(-0.698206 0.247489 0)
(-0.852972 0.425258 1.27713e-20)
(-1.02216 0.612459 0)
(-1.20241 0.801226 9.882e-23)
(-1.3908 0.981514 0)
(-1.58448 1.14488 0)
(-1.77719 1.28585 -2.50097e-25)
(-1.96094 1.40092 1.21714e-20)
(-2.12845 1.4875 1.20044e-20)
(-2.27562 1.54443 1.19716e-20)
(-2.40404 1.57604 0)
(-2.51834 1.5853 2.32199e-20)
(-2.62471 1.5759 0)
(-2.73018 1.55023 1.11116e-20)
(-2.84142 1.51293 0)
(-2.96233 1.46789 0)
(-3.0949 1.41832 -1.03436e-20)
(-3.23909 1.36581 0)
(-3.39317 1.31075 9.72369e-21)
(-3.55399 1.25255 3.28238e-22)
(-3.7178 1.19 -1.84035e-20)
(-3.88068 1.12171 1.73523e-20)
(-4.03887 1.04647 0)
(-4.18888 0.963454 0)
(-4.32758 0.872242 7.2587e-21)
(-4.45229 0.772814 0)
(-4.56066 0.665617 7.31424e-21)
(-4.65061 0.551732 -7.04163e-21)
(-4.72028 0.432929 -6.80727e-21)
(-4.76833 0.311189 0)
(-4.79402 0.188246 6.47424e-21)
(-4.79728 0.0657549 6.38169e-21)
(-4.77901 -0.0541187 -1.20539e-20)
(-4.74048 -0.16803 6.3372e-21)
(-4.68276 -0.27364 6.38137e-21)
(-4.60773 -0.369009 0)
(-4.5175 -0.453003 0)
(-4.41431 -0.524959 -6.71851e-21)
(-4.30015 -0.584708 0)
(-4.17667 -0.632352 0)
(-4.04515 -0.668187 1.44462e-20)
(-3.90664 -0.692631 1.48002e-20)
(-3.76214 -0.706256 0)
(-3.61286 -0.709858 0)
(-3.46045 -0.704607 0)
(-3.30707 -0.692234 0)
(-3.15514 -0.675184 1.63682e-20)
(-3.00674 -0.656604 -1.65108e-20)
(-2.86297 -0.639994 -1.6856e-20)
(-2.72336 -0.628713 -3.40253e-20)
(-2.58573 -0.625547 0)
(-2.44647 -0.632261 1.5763e-22)
(-2.30123 -0.649123 0)
(-2.14576 -0.674471 1.79322e-20)
(-1.97668 -0.704758 1.65637e-22)
(-1.79248 -0.734834 1.83714e-20)
(-1.59442 -0.758887 -1.85796e-20)
(-1.38658 -0.772069 1.08176e-22)
(-1.17472 -0.771902 0)
(-0.96449 -0.758525 -1.89793e-20)
(-0.760345 -0.734017 -1.91328e-20)
(-0.565458 -0.701215 -3.83103e-20)
(-0.38158 -0.663183 0)
(-0.209234 -0.622524 1.91288e-20)
(-0.0490753 -0.581299 0)
(0.0991654 -0.541831 -3.80269e-20)
(0.236899 -0.503638 1.89213e-20)
(0.364927 -0.467611 -1.87972e-20)
(0.483778 -0.433896 1.86589e-20)
(0.594133 -0.40249 3.69759e-20)