/*--------------------------------*- C++ -*----------------------------------*\
  =========                 |
  \\      /  F ield         | OpenFOAM: The Open Source CFD Toolbox
   \\    /   O peration     | Website:  https://openfoam.org
    \\  /    A nd           | Version:  7
     \\/     M anipulation  |
\*---------------------------------------------------------------------------*/
FoamFile
{
    version     2.0;
    format      ascii;
    class       volVectorField;
    location    "0.037";
    object      U_0;
}
// * * * * * * * * * * * * * * * * * * * * * * * * * * * * * * * * * * * * * //

dimensions      [0 1 -1 0 0 0 0];

internalField   nonuniform List<vector> 
12225
(
(4.69948 0.151041 0)
(4.07163 0.103368 0)
(3.67321 0.089106 0)
(3.31601 0.0793467 0)
(2.94351 0.0697696 0)
(2.59224 0.0591348 0)
(2.28249 0.0516093 0)
(2.00423 0.0478261 0)
(1.7455 0.0441605 0)
(1.50599 0.0371935 0)
(1.28954 0.0276121 0)
(1.10548 0.0178776 0)
(0.952535 0.010086 0)
(0.834562 0.00464129 0)
(0.731609 0.00124883 0)
(0.657076 -0.000884404 0)
(0.56553 0.000459602 0)
(0.489039 -0.000857968 0)
(5.00091 0.104847 0)
(4.79834 0.0658438 0)
(4.7115 0.0833443 0)
(4.65217 0.0999921 0)
(4.55539 0.10828 0)
(4.42501 0.105667 0)
(4.28608 0.0989558 0)
(4.15044 0.0940963 0)
(4.01553 0.0931918 0)
(3.87892 0.0943418 0)
(3.73401 0.0935203 0)
(3.58881 0.0884116 0)
(3.44546 0.0795513 0)
(3.31928 0.0707892 0)
(3.19146 0.0660322 0)
(3.0731 0.063668 0)
(2.93056 0.0669376 0)
(2.78394 0.0668053 0)
(4.97949 0.177687 0)
(4.77394 0.11508 0)
(4.68102 0.105415 0)
(4.69949 0.111461 0)
(4.73681 0.123187 0)
(4.74122 0.128372 0)
(4.71839 0.126498 0)
(4.68796 0.123964 0)
(4.65723 0.124922 0)
(4.62278 0.12811 0)
(4.57689 0.128626 0)
(4.51771 0.123438 0)
(4.44944 0.11292 0)
(4.37871 0.101821 0)
(4.31243 0.0954987 0)
(4.24928 0.0969575 0)
(4.19438 0.108254 0)
(4.12462 0.117651 0)
(5.06463 0.182945 0)
(4.96452 0.124633 0)
(4.86116 0.107641 0)
(4.78287 0.107749 0)
(4.73144 0.114851 0)
(4.69715 0.119532 0)
(4.67918 0.116882 0)
(4.67572 0.112358 0)
(4.68093 0.112698 0)
(4.68742 0.118562 0)
(4.68961 0.125703 0)
(4.68297 0.128759 0)
(4.66821 0.125664 0)
(4.64531 0.118485 0)
(4.62173 0.113483 0)
(4.59671 0.11336 0)
(4.57969 0.120554 0)
(4.5588 0.129624 0)
(4.98333 0.238399 0)
(4.85514 0.139236 0)
(4.80089 0.12153 0)
(4.7751 0.131884 0)
(4.75507 0.141864 0)
(4.7358 0.141248 0)
(4.72066 0.13188 0)
(4.71196 0.122572 0)
(4.71044 0.120035 0)
(4.71559 0.123935 0)
(4.72547 0.129672 0)
(4.73556 0.131931 0)
(4.74226 0.128871 0)
(4.742 0.122606 0)
(4.73572 0.118373 0)
(4.72395 0.118746 0)
(4.71177 0.125732 0)
(4.69794 0.13626 0)
(4.87619 0.263273 0)
(4.90156 0.164899 0)
(4.88174 0.130988 0)
(4.84918 0.136887 0)
(4.84914 0.142026 0)
(4.86202 0.136112 0)
(4.8601 0.123456 0)
(4.83817 0.112332 0)
(4.80872 0.108792 0)
(4.78588 0.112907 0)
(4.77533 0.120254 0)
(4.77327 0.125529 0)
(4.77242 0.126246 0)
(4.7669 0.123769 0)
(4.75578 0.122089 0)
(4.74123 0.124301 0)
(4.72681 0.131869 0)
(4.7142 0.143144 0)
(4.92257 0.208196 0)
(4.91905 0.125505 0)
(4.87901 0.115525 0)
(4.85126 0.12425 0)
(4.85764 0.133246 0)
(4.87061 0.140986 0)
(4.86383 0.14507 0)
(4.83343 0.144613 0)
(4.79297 0.141338 0)
(4.75957 0.13742 0)
(4.74258 0.13414 0)
(4.73998 0.131623 0)
(4.744 0.129577 0)
(4.74621 0.128589 0)
(4.74398 0.129886 0)
(4.73666 0.134456 0)
(4.72844 0.142255 0)
(4.7195 0.152527 0)
(4.97485 0.223899 0)
(4.95847 0.16821 0)
(4.96096 0.151085 0)
(4.91712 0.150015 0)
(4.86152 0.144477 0)
(4.82259 0.138776 0)
(4.80389 0.137712 0)
(4.79994 0.138931 0)
(4.80261 0.13874 0)
(4.80402 0.135922 0)
(4.79994 0.131751 0)
(4.7897 0.127951 0)
(4.77646 0.125645 0)
(4.76305 0.12535 0)
(4.7546 0.127558 0)
(4.75106 0.132612 0)
(4.75551 0.140228 0)
(4.7626 0.150564 0)
(4.94384 0.227537 0)
(4.9107 0.138876 0)
(4.89397 0.128163 0)
(4.86943 0.14924 0)
(4.84533 0.163673 0)
(4.8262 0.16236 0)
(4.81764 0.151925 0)
(4.82095 0.140915 0)
(4.8297 0.13488 0)
(4.83641 0.13495 0)
(4.83853 0.138721 0)
(4.837 0.142212 0)
(4.83413 0.14278 0)
(4.83109 0.14015 0)
(4.8289 0.136297 0)
(4.8276 0.133992 0)
(4.82825 0.134768 0)
(4.82994 0.140395 0)
(4.94088 0.255069 0)
(4.94874 0.163709 0)
(4.91806 0.151497 0)
(4.89328 0.162608 0)
(4.90005 0.164957 0)
(4.92432 0.158263 0)
(4.94355 0.148795 0)
(4.94453 0.141069 0)
(4.92739 0.13693 0)
(4.90258 0.135461 0)
(4.88156 0.134546 0)
(4.86902 0.132812 0)
(4.86326 0.130536 0)
(4.86072 0.129163 0)
(4.8586 0.129783 0)
(4.85597 0.133145 0)
(4.85321 0.138745 0)
(4.85022 0.146493 0)
(5.04419 0.227556 0)
(4.96959 0.173462 0)
(4.87483 0.166696 0)
(4.82827 0.159836 0)
(4.83144 0.147848 0)
(4.85577 0.137287 0)
(4.88001 0.134145 0)
(4.89535 0.139473 0)
(4.9001 0.148121 0)
(4.89696 0.154279 0)
(4.89031 0.15553 0)
(4.88367 0.152669 0)
(4.87896 0.14769 0)
(4.87705 0.142639 0)
(4.8783 0.138917 0)
(4.88115 0.137591 0)
(4.88555 0.139048 0)
(4.88752 0.143854 0)
(5.10034 0.273627 0)
(5.00587 0.227261 0)
(4.96076 0.192089 0)
(4.95454 0.162022 0)
(4.97227 0.14542 0)
(4.98125 0.139566 0)
(4.96804 0.139809 0)
(4.94107 0.142711 0)
(4.91499 0.145509 0)
(4.90032 0.146583 0)
(4.89957 0.145176 0)
(4.90802 0.141262 0)
(4.91912 0.135792 0)
(4.92768 0.130594 0)
(4.93219 0.12779 0)
(4.9324 0.128599 0)
(4.93011 0.133754 0)
(4.926 0.142846 0)
(5.14184 0.267967 0)
(5.10419 0.26552 0)
(5.06469 0.208748 0)
(4.99762 0.163828 0)
(4.94185 0.139737 0)
(4.91635 0.135376 0)
(4.9152 0.144342 0)
(4.92657 0.154764 0)
(4.94208 0.158502 0)
(4.95646 0.155039 0)
(4.96567 0.147847 0)
(4.96602 0.140667 0)
(4.95725 0.135923 0)
(4.94167 0.134551 0)
(4.92482 0.135933 0)
(4.91048 0.139722 0)
(4.90251 0.144727 0)
(4.90075 0.15201 0)
(5.07908 0.356173 0)
(5.05148 0.281385 0)
(5.04945 0.225877 0)
(5.04826 0.204006 0)
(5.04142 0.182439 0)
(5.02417 0.159634 0)
(4.99909 0.144084 0)
(4.97454 0.136592 0)
(4.95732 0.134559 0)
(4.95034 0.137011 0)
(4.95246 0.143099 0)
(4.95978 0.150497 0)
(4.9686 0.155935 0)
(4.97624 0.15692 0)
(4.98204 0.152983 0)
(4.98466 0.14631 0)
(4.98648 0.139686 0)
(4.98424 0.137035 0)
(4.94421 0.317748 0)
(4.97698 0.286294 0)
(4.99499 0.229726 0)
(5.0152 0.174945 0)
(5.02076 0.152986 0)
(5.01207 0.159365 0)
(4.99423 0.174638 0)
(4.97302 0.180287 0)
(4.95673 0.170926 0)
(4.95229 0.152189 0)
(4.96159 0.132613 0)
(4.98204 0.118566 0)
(5.00898 0.112645 0)
(5.03652 0.114501 0)
(5.0597 0.12244 0)
(5.07429 0.133656 0)
(5.08028 0.146775 0)
(5.0771 0.158841 0)
(4.96041 0.317326 0)
(4.94317 0.245336 0)
(4.98441 0.189308 0)
(5.00247 0.169029 0)
(4.98678 0.171426 0)
(4.96546 0.179638 0)
(4.96015 0.182379 0)
(4.97047 0.174522 0)
(4.9866 0.158143 0)
(4.99901 0.138926 0)
(5.00356 0.122109 0)
(5.0013 0.110827 0)
(4.99668 0.106013 0)
(4.99326 0.107156 0)
(4.99355 0.112975 0)
(4.99762 0.122238 0)
(5.005 0.133217 0)
(5.01506 0.14521 0)
(4.98857 0.327569 0)
(4.99927 0.233338 0)
(4.9976 0.19482 0)
(4.98032 0.201282 0)
(4.95871 0.205978 0)
(4.95087 0.191732 0)
(4.95658 0.165673 0)
(4.96823 0.141718 0)
(4.97979 0.127748 0)
(4.98719 0.123107 0)
(4.98968 0.122571 0)
(4.98978 0.121639 0)
(4.99112 0.118923 0)
(4.99574 0.1161 0)
(5.00407 0.114923 0)
(5.01509 0.11689 0)
(5.02815 0.121145 0)
(5.04177 0.127434 0)
(4.96157 0.31526 0)
(4.96468 0.25655 0)
(4.97136 0.208469 0)
(4.98145 0.179411 0)
(5.00344 0.170483 0)
(5.02727 0.169397 0)
(5.04553 0.163539 0)
(5.05704 0.15372 0)
(5.06413 0.144634 0)
(5.06897 0.136795 0)
(5.07183 0.127523 0)
(5.07208 0.114995 0)
(5.0695 0.1003 0)
(5.065 0.0871964 0)
(5.06048 0.0790338 0)
(5.0581 0.0774143 0)
(5.05941 0.0810388 0)
(5.06508 0.0880282 0)
(4.95062 0.243365 0)
(4.94284 0.175276 0)
(4.97353 0.16428 0)
(4.98184 0.167769 0)
(4.98805 0.162458 0)
(4.99503 0.144127 0)
(5.00466 0.120148 0)
(5.02059 0.101316 0)
(5.04115 0.093523 0)
(5.06318 0.0963855 0)
(5.08403 0.106509 0)
(5.10053 0.119484 0)
(5.11051 0.130552 0)
(5.11385 0.135892 0)
(5.11298 0.133038 0)
(5.11044 0.123277 0)
(5.10915 0.108367 0)
(5.10971 0.0931092 0)
(5.01363 0.256865 0)
(4.97301 0.219332 0)
(4.96553 0.178134 0)
(4.96596 0.154991 0)
(4.98639 0.1491 0)
(5.01371 0.140059 0)
(5.03847 0.120875 0)
(5.06104 0.0962801 0)
(5.08036 0.0751029 0)
(5.09552 0.0638702 0)
(5.10901 0.0637005 0)
(5.12413 0.0714925 0)
(5.14273 0.0821434 0)
(5.16418 0.0911197 0)
(5.18653 0.0953313 0)
(5.20612 0.0943661 0)
(5.22166 0.0891004 0)
(5.23005 0.0816782 0)
(5.0177 0.247572 0)
(5.01942 0.222731 0)
(5.03901 0.162069 0)
(5.05845 0.128832 0)
(5.07819 0.108087 0)
(5.0923 0.0820238 0)
(5.09805 0.0543281 0)
(5.10073 0.0365385 0)
(5.10658 0.0332559 0)
(5.1182 0.0393323 0)
(5.13548 0.0461201 0)
(5.157 0.0485934 0)
(5.18078 0.0469022 0)
(5.20478 0.044235 0)
(5.22762 0.043674 0)
(5.24776 0.0463192 0)
(5.2648 0.0518812 0)
(5.27764 0.0582252 0)
(5.04772 0.305123 0)
(5.06014 0.249895 0)
(5.07234 0.162958 0)
(5.08708 0.112283 0)
(5.11063 0.110159 0)
(5.13532 0.121085 0)
(5.15114 0.114324 0)
(5.15852 0.088163 0)
(5.16261 0.0567163 0)
(5.1673 0.0323558 0)
(5.17451 0.0191987 0)
(5.1843 0.0155698 0)
(5.1958 0.017854 0)
(5.20807 0.0230415 0)
(5.22113 0.0293796 0)
(5.23464 0.0357728 0)
(5.24874 0.0414458 0)
(5.26224 0.0459143 0)
(4.98962 0.261637 0)
(5.09211 0.189211 0)
(5.13176 0.132683 0)
(5.13155 0.084187 0)
(5.12708 0.0569825 0)
(5.14258 0.0406953 0)
(5.17153 0.0278477 0)
(5.20195 0.0194989 0)
(5.22692 0.0163622 0)
(5.24491 0.016524 0)
(5.25822 0.0162795 0)
(5.27005 0.0134927 0)
(5.28235 0.00856326 0)
(5.29569 0.00362771 0)
(5.31035 0.000843947 0)
(5.32509 0.00121838 0)
(5.34007 0.00495945 0)
(5.35366 0.0107423 0)
(5.05545 0.221834 0)
(5.05259 0.178537 0)
(5.10026 0.153387 0)
(5.15281 0.128809 0)
(5.19798 0.110568 0)
(5.23355 0.0896158 0)
(5.26129 0.0648424 0)
(5.28404 0.0405408 0)
(5.30466 0.0210802 0)
(5.32403 0.00758026 0)
(5.34115 -0.000577048 0)
(5.35508 -0.00521377 0)
(5.36537 -0.00771242 0)
(5.3721 -0.00800806 0)
(5.37687 -0.00586157 0)
(5.3818 -0.00180353 0)
(5.38799 0.00405406 0)
(5.39572 0.010763 0)
(4.94848 0.233429 0)
(4.98265 0.139574 0)
(5.07892 0.0602623 0)
(5.15479 0.0164139 0)
(5.21478 -0.00170971 0)
(5.26485 -0.0115503 0)
(5.30697 -0.0174187 0)
(5.33958 -0.0194735 0)
(5.36111 -0.0192787 0)
(5.37168 -0.0180541 0)
(5.37279 -0.0158734 0)
(5.36549 -0.013306 0)
(5.35264 -0.0113731 0)
(5.33784 -0.0112483 0)
(5.32512 -0.0121465 0)
(5.31802 -0.0126367 0)
(5.3187 -0.0120388 0)
(5.32671 -0.00925992 0)
(5.04554 0.235092 0)
(5.09552 0.114889 0)
(5.1665 0.0799583 0)
(5.21541 0.0670682 0)
(5.24612 0.0457665 0)
(5.26445 0.024778 0)
(5.27843 0.00996341 0)
(5.29152 0.00151128 0)
(5.30507 -0.00200976 0)
(5.3211 -0.000530332 0)
(5.34115 0.00482309 0)
(5.36466 0.0115843 0)
(5.38929 0.0165827 0)
(5.41213 0.0169173 0)
(5.43191 0.0121406 0)
(5.44827 0.00429985 0)
(5.46235 -0.00452315 0)
(5.47578 -0.0115979 0)
(5.0294 0.191167 0)
(5.08794 0.0777593 0)
(5.19492 0.00809922 0)
(5.25753 -0.0168925 0)
(5.29133 -0.0291882 0)
(5.31425 -0.0343011 0)
(5.33583 -0.0351306 0)
(5.35954 -0.0361747 0)
(5.38373 -0.0387839 0)
(5.40644 -0.0421635 0)
(5.42782 -0.0445997 0)
(5.44867 -0.0448935 0)
(5.46901 -0.0432893 0)
(5.48762 -0.0405935 0)
(5.50383 -0.0381357 0)
(5.51757 -0.0368026 0)
(5.53003 -0.0366175 0)
(5.54211 -0.0373826 0)
(5.00843 0.171272 0)
(5.20543 0.0619093 0)
(5.34 0.0376474 0)
(5.39073 0.0238353 0)
(5.41553 0.0087908 0)
(5.43842 -0.00304144 0)
(5.45338 -0.0122679 0)
(5.4583 -0.0201273 0)
(5.46069 -0.0249459 0)
(5.46971 -0.0254058 0)
(5.48971 -0.0221479 0)
(5.51899 -0.0169936 0)
(5.55217 -0.0123258 0)
(5.58362 -0.0102503 0)
(5.61045 -0.0118733 0)
(5.63207 -0.0169706 0)
(5.64972 -0.0244855 0)
(5.6648 -0.0324956 0)
(4.98994 0.0047755 0)
(5.1899 -0.037606 0)
(5.30376 -0.027787 0)
(5.37418 -0.0452957 0)
(5.43725 -0.0578729 0)
(5.48973 -0.0550435 0)
(5.51788 -0.0459552 0)
(5.52071 -0.0420749 0)
(5.5096 -0.0473943 0)
(5.49725 -0.0587464 0)
(5.4899 -0.0700423 0)
(5.48785 -0.0764333 0)
(5.48791 -0.0762745 0)
(5.48736 -0.0710674 0)
(5.48376 -0.0639881 0)
(5.47771 -0.0580691 0)
(5.46875 -0.0548516 0)
(5.45984 -0.0544858 0)
(4.98886 0.0296951 0)
(5.12498 -0.00591691 0)
(5.12056 -0.00658726 0)
(4.98384 -0.0297012 0)
(4.8045 -0.0398061 0)
(4.64627 -0.0333298 0)
(4.53141 -0.0216586 0)
(4.44816 -0.0143659 0)
(4.37115 -0.0138628 0)
(4.2806 -0.0173212 0)
(4.17236 -0.0205426 0)
(4.05628 -0.0209678 0)
(3.94512 -0.018651 0)
(3.8474 -0.0157574 0)
(3.76304 -0.0148257 0)
(3.68887 -0.0168368 0)
(3.61727 -0.0214785 0)
(3.54517 -0.0267918 0)
(0.0162694 -0.0441799 -7.17238e-20)
(0.0873191 -0.0911866 7.11972e-20)
(0.180456 -0.106232 0)
(0.273956 -0.109088 0)
(0.367733 -0.108438 0)
(0.462193 -0.107365 -6.90506e-20)
(0.557605 -0.106644 0)
(0.654262 -0.106196 0)
(0.752295 -0.105677 0)
(0.851465 -0.104654 0)
(0.951044 -0.10263 6.64461e-20)
(1.04974 -0.0990786 0)
(1.1458 -0.0933831 0)
(1.23674 -0.0850748 0)
(1.31979 -0.0735305 0)
(1.39121 -0.0583709 6.3938e-20)
(1.44781 -0.0393078 0)
(1.48487 -0.0160847 0)
(1.50118 0.0119749 0)
(1.49084 0.0452234 0)
(1.45187 0.0813131 0)
(1.38462 0.115447 0)
(1.2958 0.142788 0)
(1.19756 0.162008 6.00021e-20)
(1.10176 0.157641 -5.94993e-20)
(1.01612 0.0894198 5.89904e-20)
(0.938804 -0.0513962 5.84844e-20)
(0.85548 -0.188474 0)
(0.757554 -0.203576 0)
(0.602353 -0.0333255 -5.70379e-20)
(0.309852 0.20073 -5.65947e-20)
(-0.0738003 0.328408 0)
(-0.476351 0.367827 0)
(-0.881284 0.374181 -5.51047e-20)
(-1.2752 0.365969 0)
(-1.65362 0.350827 0)
(-2.01372 0.332006 5.36656e-20)
(-2.3541 0.311375 0)
(-2.67413 0.289962 5.27728e-20)
(-2.97334 0.268018 1.04679e-19)
(-3.25115 0.245646 0)
(-3.50684 0.223005 0)
(-3.73962 0.20016 0)
(-3.94855 0.177065 0)
(-4.13258 0.153703 0)
(-4.29064 0.130101 9.96089e-20)
(-4.42172 0.106384 9.87555e-20)
(-4.52509 0.0827664 9.78928e-20)
(-4.6004 0.0596207 0)
(-4.64764 0.0375085 -9.61334e-20)
(-4.66702 0.0170354 0)
(-4.65918 -0.00141195 9.4321e-20)
(-4.62885 -0.0178417 9.3395e-20)
(-4.57567 -0.0325279 0)
(-4.50289 -0.045436 0)
(-4.41203 -0.0566152 0)
(-4.3059 -0.065967 8.96217e-20)
(-4.18665 -0.0735316 0)
(-4.05692 -0.0793263 0)
(-3.91897 -0.0834465 0)
(-3.77521 -0.0860107 0)
(-3.62767 -0.0871981 0)
(-3.47831 -0.0872218 0)
(-3.32862 -0.0863622 0)
(-3.17971 -0.084937 0)
(-3.03213 -0.0833159 -8.12635e-20)
(-2.8858 -0.0818723 0)
(-2.74003 -0.0809609 0)
(-2.59359 -0.0808603 7.86016e-20)
(-2.44488 -0.0817207 7.7726e-20)
(-2.29217 -0.0835234 0)
(-2.13396 -0.0860666 -7.59914e-20)
(-1.96924 -0.0889781 7.51336e-20)
(-1.79778 -0.0917661 0)
(-1.62028 -0.0939109 -7.34432e-20)
(-1.43827 -0.0949748 0)
(-1.25389 -0.0946927 0)
(-1.06952 -0.0930074 7.099e-20)
(-0.887555 -0.0900224 0)
(-0.710194 -0.0859393 -6.94172e-20)
(-0.539186 -0.08107 0)
(-0.375847 -0.0757184 6.78921e-20)
(-0.220954 -0.0700735 6.71454e-20)
(-0.0752649 -0.0643311 6.64075e-20)
(0.0605842 -0.0590555 1.31329e-19)
(0.187383 -0.0537095 -1.29834e-19)
(0.305806 -0.0486193 0)
(0.41587 -0.0438008 0)
(0.517905 -0.0392627 0)
(0.612269 -0.0350054 -1.24044e-19)
(0.699333 -0.0310245 -1.22638e-19)
(0.779471 -0.0273133 1.21245e-19)
(0.853058 -0.0238658 0)
(0.920467 -0.020676 -1.18501e-19)
(0.982074 -0.0177382 -1.17147e-19)
(1.03825 -0.0150461 -1.15805e-19)
(1.08938 -0.0125921 0)
(1.13582 -0.0103664 0)
(1.17793 -0.00835709 0)
(1.21606 -0.00654971 -1.10545e-19)
(1.25055 -0.00492792 0)
(1.28168 -0.00347429 0)
(1.30975 -0.00217091 1.06703e-19)
(1.33498 -0.00100111 0)
(1.3576 5.00928e-05 0)
(1.37779 0.000995509 1.02942e-19)
(1.39572 0.00184364 0)
(1.41152 0.00260161 0)
(1.42532 0.00327366 -9.92587e-20)
(1.43724 0.00385865 -9.80478e-20)
(1.4474 0.00436131 0)
(1.45591 0.00478062 9.56505e-20)
(1.46289 0.00510995 0)
(1.46846 0.00536653 -9.32854e-20)
(1.47273 0.00554466 0)
(1.47587 0.00563136 -9.0952e-20)
(1.47795 0.00567616 -8.9797e-20)
(1.47904 0.0057027 0)
(1.47928 0.00567927 0)
(1.4788 0.00559465 0)
(1.4777 0.00545837 0)
(1.4761 0.00527925 0)
(1.47412 0.00506625 0)
(1.47183 0.0048304 0)
(1.46932 0.00458075 -8.08267e-20)
(1.46664 0.00432341 7.97382e-20)
(1.46384 0.00406674 0)
(1.46096 0.0038218 0)
(1.45802 0.00359078 0)
(1.45506 0.00336362 0)
(1.45209 0.00313366 1.48801e-19)
(1.44914 0.00290418 0)
(1.4462 0.00269413 -1.44626e-19)
(1.44326 0.00250504 1.42559e-19)
(1.44034 0.00233388 0)
(1.43744 0.00217948 0)
(1.43455 0.00204081 0)
(1.43168 0.00191489 -1.3442e-19)
(1.42883 0.00179875 -1.32418e-19)
(1.42602 0.00168962 0)
(1.42324 0.00158587 -1.28451e-19)
(1.42051 0.00148702 -1.26486e-19)
(1.41783 0.00139472 1.24533e-19)
(1.41519 0.00131114 0)
(1.41261 0.00123817 0)
(1.41008 0.00117669 1.18747e-19)
(1.40758 0.00112621 0)
(1.4051 0.00108516 0)
(1.40264 0.00105151 0)
(1.4002 0.0010232 0)
(1.39775 0.000998619 -1.09337e-19)
(1.39531 0.000976713 -1.07488e-19)
(1.39286 0.000957056 0)
(1.39039 0.000939744 -1.03825e-19)
(1.38791 0.000925234 0)
(1.3854 0.000914139 0)
(1.38284 0.000907164 -9.84109e-20)
(1.38025 0.000904963 0)
(1.37759 0.000908365 -9.48537e-20)
(1.37486 0.000918122 0)
(1.37202 0.000935639 0)
(1.36909 0.000961958 -8.9594e-20)
(1.36597 0.0010001 0)
(1.36274 0.00105046 -8.61371e-20)
(1.35917 0.00112029 0)
(1.35547 0.00120649 0)
(1.35116 0.00132862 0)
(1.34674 0.00146984 7.93381e-20)
(1.34118 0.00168641 0)
(1.33559 0.00191147 -7.59947e-20)
(1.32796 0.00231798 0)
(1.3203 0.00265938 0)
(1.30926 0.0034845 0)
(1.29737 0.00394885 0)
(1.28121 0.00581442 0)
(1.25887 0.00619449 0)
(1.23726 0.0111298 0)
(1.18403 0.0103022 1.2601e-19)
(1.16753 0.0256718 0)
(1.00787 0.018903 0)
(0.0261405 -0.174432 2.15184e-19)
(0.0884908 -0.271875 -2.13596e-19)
(0.152595 -0.288997 0)
(0.215788 -0.28866 1.40274e-19)
(0.280708 -0.287242 0)
(0.348262 -0.287967 6.90612e-20)
(0.418877 -0.29057 -1.37115e-19)
(0.492463 -0.293954 -1.36073e-19)
(0.568745 -0.29689 0)
(0.647249 -0.298117 -1.3401e-19)
(0.727203 -0.296344 -6.6476e-20)
(0.807449 -0.290091 0)
(0.886266 -0.277821 0)
(0.961728 -0.257887 0)
(1.03086 -0.228968 0)
(1.09153 -0.190178 -6.3985e-20)
(1.1397 -0.141377 0)
(1.17521 -0.0847151 1.26081e-19)
(1.19262 -0.0214265 0)
(1.19407 0.0450727 0)
(1.17374 0.108048 -1.23115e-19)
(1.1244 0.156963 0)
(1.04051 0.178286 1.21105e-19)
(0.916116 0.167981 -6.00298e-20)
(0.741875 0.159127 5.95455e-20)
(0.507325 0.210359 -5.9069e-20)
(0.191348 0.3445 -5.86013e-20)
(-0.234045 0.520008 0)
(-0.700307 0.683241 0)
(-1.12038 0.817024 5.69626e-20)
(-1.49167 0.907848 -5.64996e-20)
(-1.82585 0.942093 0)
(-2.13517 0.935462 0)
(-2.42493 0.905968 5.4859e-20)
(-2.69718 0.863293 0)
(-2.95289 0.813901 0)
(-3.19294 0.761934 -5.34835e-20)
(-3.41805 0.709478 0)
(-3.62884 0.657427 5.27619e-20)
(-3.82554 0.605863 -1.04423e-19)
(-4.00809 0.554499 0)
(-4.17609 0.502835 0)
(-4.32899 0.450325 -2.04153e-19)
(-4.46598 0.396621 -2.02512e-19)
(-4.5859 0.341546 -2.00864e-19)
(-4.68752 0.285131 9.97016e-20)
(-4.76965 0.227596 -9.86664e-20)
(-4.83131 0.169419 -2.93643e-19)
(-4.87178 0.111418 1.94095e-19)
(-4.89068 0.0547456 9.60851e-20)
(-4.88818 0.000619009 0)
(-4.86486 -0.0500582 -9.42799e-20)
(-4.81845 -0.0967451 9.34826e-20)
(-4.75201 -0.138967 0)
(-4.66605 -0.176343 0)
(-4.56324 -0.208588 0)
(-4.4454 -0.235522 -8.95795e-20)
(-4.3152 -0.257129 0)
(-4.17488 -0.273533 1.7543e-19)
(-4.027 -0.285 0)
(-3.87381 -0.291926 1.71658e-19)
(-3.71757 -0.294844 0)
(-3.5602 -0.29442 -1.67945e-19)
(-3.40334 -0.291473 0)
(-3.24813 -0.286967 1.64299e-19)
(-3.09511 -0.281988 -8.12664e-20)
(-2.94413 -0.277666 0)
(-2.79433 -0.275072 -1.58948e-19)
(-2.6442 -0.275058 -7.85768e-20)
(-2.49177 -0.278098 -7.77017e-20)
(-2.33495 -0.284148 0)
(-2.17188 -0.292601 -7.60054e-20)
(-2.00124 -0.302305 -7.51103e-20)
(-1.82271 -0.311695 0)
(-1.63703 -0.319094 7.3421e-20)
(-1.44604 -0.323083 -1.45208e-19)
(-1.25227 -0.322819 0)
(-1.05849 -0.318156 -7.09721e-20)
(-0.867343 -0.309489 0)
(-0.681116 -0.297532 2.08221e-19)
(-0.501551 -0.283229 0)
(-0.32982 -0.267429 -2.03656e-19)
(-0.166464 -0.250884 -6.7138e-20)
(-0.0126058 -0.234226 6.64024e-20)
(0.131923 -0.218345 1.31305e-19)
(0.268287 -0.202695 -1.2981e-19)
(0.396602 -0.187741 0)
(0.517199 -0.173558 0)
(0.630432 -0.160171 0)
(0.736659 -0.147578 3.72033e-19)
(0.836235 -0.135758 1.22601e-19)
(0.929504 -0.124687 -1.21208e-19)
(1.0168 -0.114341 0)
(1.09847 -0.104698 -1.18469e-19)
(1.17484 -0.0957411 1.17108e-19)
(1.24626 -0.0874519 1.15765e-19)
(1.31308 -0.0798109 0)
(1.37564 -0.0727951 0)
(1.43428 -0.0663756 0)
(1.48933 -0.0605174 1.105e-19)
(1.54112 -0.055179 0)
(1.58994 -0.0503142 -2.15856e-19)
(1.63605 -0.0458727 -3.19964e-19)
(1.6797 -0.0418039 2.10783e-19)
(1.72109 -0.0380589 0)
(1.76039 -0.0345925 1.02891e-19)
(1.79776 -0.0313669 0)
(1.83329 -0.0283516 2.00846e-19)
(1.86708 -0.0255234 -9.92036e-20)
(1.89921 -0.0228691 -9.79912e-20)
(1.92972 -0.0203791 0)
(1.95868 -0.0180486 -2.8677e-19)
(1.98612 -0.0158818 1.88805e-19)
(2.01209 -0.0138726 9.32223e-20)
(2.03663 -0.0120221 0)
(2.05979 -0.0103359 9.08871e-20)
(2.0816 -0.00878554 2.69195e-19)
(2.10219 -0.00736785 0)
(2.12159 -0.00610958 1.74886e-19)
(2.13985 -0.0050137 1.7262e-19)
(2.15699 -0.00406555 1.7037e-19)
(2.17305 -0.00325219 0)
(2.18809 -0.00255978 0)
(2.20214 -0.00197139 0)
(2.21523 -0.00147488 -8.07585e-20)
(2.22742 -0.00105943 -7.96697e-20)
(2.23875 -0.000707979 0)
(2.24924 -0.00040913 -1.55029e-19)
(2.25894 -0.000163364 -1.52895e-19)
(2.26791 3.66592e-05 0)
(2.27614 0.000213041 -1.48668e-19)
(2.28366 0.000388218 -2.9315e-19)
(2.29053 0.000546605 1.44496e-19)
(2.29677 0.000681881 1.4243e-19)
(2.30242 0.000795848 0)
(2.30751 0.00088968 0)
(2.31209 0.000963979 0)
(2.31618 0.00102039 1.34298e-19)
(2.31983 0.00106429 -1.32297e-19)
(2.32307 0.00109314 -2.60619e-19)
(2.32593 0.0011079 1.28334e-19)
(2.32844 0.0011101 -1.26371e-19)
(2.33063 0.00110298 -1.2442e-19)
(2.33253 0.00108914 0)
(2.33416 0.00107152 0)
(2.33555 0.00105311 1.1864e-19)
(2.33672 0.00103584 0)
(2.3377 0.0010206 0)
(2.3385 0.00100772 -2.25933e-19)
(2.33913 0.000997524 0)
(2.33961 0.00099054 -1.09241e-19)
(2.33997 0.000987573 1.07395e-19)
(2.3402 0.000989387 0)
(2.34031 0.000996623 -1.03736e-19)
(2.34031 0.00100965 0)
(2.3402 0.0010288 0)
(2.33996 0.0010545 9.83278e-20)
(2.33961 0.00108742 -1.93092e-19)
(2.33912 0.00112906 9.47745e-20)
(2.33851 0.00118061 0)
(2.33774 0.00124597 0)
(2.33685 0.00132578 -8.95207e-20)
(2.33576 0.00142965 0)
(2.33453 0.00155417 -8.60674e-20)
(2.33302 0.00172452 0)
(2.33135 0.0019192 0)
(2.32928 0.00220771 0)
(2.32698 0.00250796 -7.92754e-20)
(2.32405 0.00301863 0)
(2.32078 0.00346793 7.59353e-20)
(2.31652 0.00442727 0)
(2.31154 0.00505779 0)
(2.3053 0.00699337 -1.41988e-19)
(2.29687 0.0077521 1.38732e-19)
(2.28798 0.0120004 0)
(2.27155 0.0125541 0)
(2.26051 0.0227504 0)
(2.22312 0.0222412 -3.77733e-19)
(2.21617 0.0489262 0)
(2.12019 0.0465726 2.39365e-19)
(0.0227935 -0.28447 5.83491e-23)
(0.0499872 -0.364598 2.84875e-19)
(0.0745694 -0.370007 0)
(0.0990592 -0.373423 -2.80667e-19)
(0.126472 -0.380527 0)
(0.156316 -0.389908 0)
(0.188681 -0.400222 -5.25694e-23)
(0.222919 -0.410102 1.36161e-19)
(0.258497 -0.4182 1.3519e-19)
(0.294683 -0.42306 1.34128e-19)
(0.330814 -0.42294 0)
(0.365789 -0.415765 0)
(0.398057 -0.3992 -1.31186e-19)
(0.425552 -0.370835 -2.60421e-19)
(0.445851 -0.328719 2.58489e-19)
(0.455066 -0.272273 0)
(0.44879 -0.203281 2.5468e-19)
(0.422383 -0.122076 -1.26349e-19)
(0.36594 -0.0265548 0)
(0.283309 0.085894 2.48929e-19)
(0.167732 0.217202 1.2343e-19)
(0.0150975 0.363249 -2.44946e-19)
(-0.181268 0.519073 -1.21339e-19)
(-0.431238 0.680517 0)
(-0.725658 0.841762 2.38317e-19)
(-1.04093 0.992975 2.36076e-19)
(-1.35536 1.12039 0)
(-1.65706 1.21352 2.31668e-19)
(-1.93143 1.28061 0)
(-2.17143 1.32849 2.27472e-19)
(-2.38059 1.35143 1.12594e-19)
(-2.5637 1.34273 0)
(-2.73132 1.30844 0)
(-2.89063 1.25665 0)
(-3.04763 1.19518 0)
(-3.2056 1.12942 0)
(-3.36631 1.06286 0)
(-3.5298 0.996893 2.12694e-19)
(-3.69503 0.931693 -3.1633e-19)
(-3.8601 0.866588 0)
(-4.02262 0.800484 0)
(-4.17974 0.732174 0)
(-4.32829 0.660617 -3.07744e-22)
(-4.46505 0.585216 2.02455e-19)
(-4.58711 0.505771 4.01928e-19)
(-4.69184 0.422533 -3.98618e-19)
(-4.77701 0.336204 -1.9778e-19)
(-4.84061 0.247902 1.95798e-19)
(-4.88109 0.159007 2.72545e-22)
(-4.89763 0.0710226 1.92593e-19)
(-4.89051 -0.0146303 0)
(-4.86052 -0.0966519 1.88919e-19)
(-4.80873 -0.173378 2.14616e-22)
(-4.73669 -0.243285 0)
(-4.64621 -0.305245 0)
(-4.53926 -0.358508 -1.8127e-19)
(-4.41796 -0.402738 0)
(-4.28451 -0.437874 0)
(-4.14112 -0.464141 1.75593e-19)
(-3.99004 -0.481973 3.47169e-19)
(-3.83357 -0.492029 -1.71618e-19)
(-3.67399 -0.495183 0)
(-3.51358 -0.492561 1.67907e-19)
(-3.3544 -0.485559 0)
(-3.19811 -0.475873 1.64368e-19)
(-3.04562 -0.465447 1.62469e-19)
(-2.89695 -0.45635 -3.21478e-19)
(-2.75106 -0.450555 -1.59028e-19)
(-2.60598 -0.449684 0)
(-2.45902 -0.45468 3.10939e-19)
(-2.30721 -0.46552 0)
(-2.14781 -0.481096 4.55931e-19)
(-1.97879 -0.499261 3.00552e-19)
(-1.7994 -0.517029 2.97134e-19)
(-1.61061 -0.531134 -2.9375e-19)
(-1.41502 -0.538832 4.35577e-19)
(-1.21627 -0.538586 0)
(-1.01813 -0.530269 0)
(-0.823933 -0.514825 -2.80725e-19)
(-0.636343 -0.49378 -4.16392e-19)
(-0.457154 -0.468947 0)
(-0.287371 -0.441888 1.35745e-19)
(-0.127384 -0.413892 0)
(0.022 -0.386702 -3.98322e-19)
(0.161521 -0.360098 2.37752e-23)
(0.292645 -0.334612 -2.19654e-23)
(0.415547 -0.310417 2.56621e-19)
(0.530837 -0.28758 0)
(0.639074 -0.266092 -2.50841e-19)
(0.740765 -0.245906 1.59509e-23)
(0.83636 -0.22697 0)
(0.926247 -0.209238 0)
(1.01076 -0.192674 0)
(1.09019 -0.177252 2.36906e-19)
(1.16481 -0.162952 0)
(1.23491 -0.14975 0)
(1.30078 -0.137623 0)
(1.36271 -0.126535 0)
(1.42103 -0.116442 0)
(1.47606 -0.107287 2.20999e-19)
(1.52811 -0.0990016 0)
(1.57748 -0.091508 2.15846e-19)
(1.62445 -0.0847219 2.13301e-19)
(1.66926 -0.0785568 -2.10773e-19)
(1.71212 -0.0729278 0)
(1.75322 -0.0677554 -2.05771e-19)
(1.79269 -0.0629708 0)
(1.83065 -0.0585152 -2.00838e-19)
(1.86718 -0.0543432 1.98396e-19)
(1.90235 -0.0504229 5.87921e-19)
(1.9362 -0.0467298 0)
(1.96878 -0.0432514 5.73519e-19)
(2.00011 -0.0399797 1.888e-19)
(2.03022 -0.0369074 0)
(2.05914 -0.0340332 3.68187e-19)
(2.0869 -0.0313501 3.63531e-19)
(2.11351 -0.0288523 -5.38357e-19)
(2.13899 -0.0265446 0)
(2.16339 -0.0244252 -1.74873e-19)
(2.18672 -0.0224807 -1.72607e-19)
(2.209 -0.0206939 -5.1107e-19)
(2.23026 -0.0190518 0)
(2.25052 -0.0175424 0)
(2.26979 -0.0161515 0)
(2.28811 -0.014867 -1.61502e-19)
(2.30548 -0.0136791 0)
(2.32194 -0.012574 0)
(2.3375 -0.011541 1.55012e-19)
(2.35219 -0.0105782 1.52877e-19)
(2.36602 -0.00968176 0)
(2.37903 -0.0088383 0)
(2.39126 -0.00802796 2.93113e-19)
(2.40272 -0.00726352 0)
(2.41346 -0.00654949 -2.84822e-19)
(2.42349 -0.00588525 -2.80716e-19)
(2.43283 -0.00527006 0)
(2.44153 -0.00470042 0)
(2.4496 -0.00417426 2.68557e-19)
(2.45706 -0.00369715 -1.12454e-25)
(2.46393 -0.00326371 -9.06044e-26)
(2.47026 -0.00287264 0)
(2.47606 -0.00252658 5.05405e-19)
(2.48138 -0.002218 0)
(2.48623 -0.00194213 0)
(2.49065 -0.00169436 0)
(2.49466 -0.00146974 -2.37242e-19)
(2.49831 -0.00126459 0)
(2.50162 -0.00107674 4.59308e-19)
(2.5046 -0.000905514 2.25895e-19)
(2.5073 -0.00075081 0)
(2.50973 -0.000611899 2.18445e-19)
(2.51191 -0.000486569 0)
(2.51386 -0.000371075 0)
(2.51561 -0.000260891 6.22308e-19)
(2.51716 -0.000151548 -4.0762e-19)
(2.51854 -3.96468e-05 0)
(2.51974 7.75168e-05 -3.93243e-19)
(2.52079 0.00020115 1.93058e-19)
(2.52167 0.000333706 0)
(2.5224 0.00047554 0)
(2.52298 0.000632687 0)
(2.52341 0.000804206 5.3703e-19)
(2.52368 0.00100565 0)
(2.52378 0.00122936 1.72105e-19)
(2.52372 0.00151456 0)
(2.52343 0.00182716 0)
(2.52296 0.00226859 0)
(2.52217 0.00272282 0)
(2.52117 0.00346028 0)
(2.51962 0.00412703 0)
(2.51789 0.00544997 2.97063e-19)
(2.51507 0.00641182 0)
(2.51232 0.00896499 1.41963e-19)
(2.50723 0.0102902 -4.16119e-19)
(2.50314 0.0156039 0)
(2.49365 0.0173459 0)
(2.48819 0.0292555 2.58108e-19)
(2.47007 0.0318548 2.51768e-19)
(2.46468 0.0602732 -2.45473e-19)
(2.43206 0.067421 -2.39302e-19)
(0.00946522 -0.324856 -4.30674e-19)
(0.00366766 -0.377937 -4.27594e-19)
(-0.00214339 -0.383216 -2.83021e-19)
(-0.0091594 -0.388723 -1.40537e-19)
(-0.0155579 -0.396851 0)
(-0.0229136 -0.406519 2.76788e-19)
(-0.031273 -0.416351 -1.37427e-19)
(-0.0415732 -0.424687 0)
(-0.0546068 -0.430107 -1.35269e-19)
(-0.071409 -0.430712 0)
(-0.0930603 -0.424062 2.66611e-19)
(-0.121213 -0.407486 0)
(-0.158155 -0.377915 1.31281e-19)
(-0.206542 -0.33172 2.60597e-19)
(-0.269029 -0.264954 -2.5864e-19)
(-0.348145 -0.173716 0)
(-0.44606 -0.0558603 -2.54698e-19)
(-0.56272 0.0861137 0)
(-0.699377 0.248056 0)
(-0.854152 0.425735 -2.48456e-19)
(-1.02329 0.612802 0)
(-1.2034 0.8014 -2.08679e-23)
(-1.39159 0.981442 0)
(-1.58498 1.14457 0)
(-1.77731 1.2853 1.06216e-22)
(-1.9606 1.40015 -2.35378e-19)
(-2.12765 1.48653 -2.33434e-19)
(-2.27441 1.5433 -2.31188e-19)
(-2.40247 1.57482 0)
(-2.5165 1.584 -4.54634e-19)
(-2.62267 1.57453 0)
(-2.72802 1.54881 -2.23659e-19)
(-2.83917 1.51149 0)
(-2.96001 1.46646 0)
(-3.09251 1.41692 2.18204e-19)
(-3.23663 1.36444 0)
(-3.39064 1.30945 -2.14702e-19)
(-3.55139 1.25134 3.8706e-22)
(-3.71514 1.1889 4.22214e-19)
(-3.87798 1.12074 -4.19269e-19)
(-4.03615 1.04565 0)
(-4.18618 0.962791 0)
(-4.32491 0.871733 -2.05115e-19)
(-4.44966 0.772446 0)
(-4.55808 0.665371 -2.01076e-19)
(-4.64806 0.551582 1.99432e-19)
(-4.71777 0.432843 1.97769e-19)
(-4.76584 0.311142 0)
(-4.79152 0.188222 -1.94372e-19)
(-4.79474 0.0657384 -1.92634e-19)
(-4.77644 -0.0541402 3.82318e-19)
(-4.73784 -0.168064 -1.88949e-19)
(-4.68005 -0.273692 -1.87053e-19)
(-4.60495 -0.369085 0)
(-4.51464 -0.453108 0)
(-4.41138 -0.5251 1.81274e-19)
(-4.29714 -0.584894 0)
(-4.1736 -0.632595 0)
(-4.04201 -0.668499 -3.5095e-19)
(-3.90343 -0.693028 -3.47124e-19)
(-3.75884 -0.706752 0)
(-3.60946 -0.710462 0)
(-3.45693 -0.70532 0)
(-3.30339 -0.693047 0)
(-3.15124 -0.676079 -3.28565e-19)
(-3.00261 -0.657555 3.25107e-19)
(-2.85857 -0.640965 3.21412e-19)
(-2.71868 -0.629669 6.35905e-19)
(-2.58076 -0.626449 0)
(-2.44123 -0.633067 1.76385e-22)
(-2.29576 -0.649789 0)
(-2.1401 -0.674955 -3.0391e-19)
(-1.97091 -0.705031 1.80809e-22)
(-1.78668 -0.734886 -2.9704e-19)
(-1.58867 -0.758735 2.93657e-19)
(-1.38096 -0.771755 1.20494e-22)
(-1.16926 -0.771482 0)
(-0.959196 -0.75805 2.83905e-19)
(-0.755219 -0.733527 2.80663e-19)
(-0.560488 -0.700737 5.55165e-19)
(-0.376748 -0.662731 0)
(-0.204525 -0.622106 -2.71527e-19)
(-0.0444879 -0.580915 0)
(0.103642 -0.541484 5.30985e-19)
(0.241279 -0.503319 -2.62455e-19)
(0.369214 -0.467319 2.59479e-19)
(0.487976 -0.433629 -2.56542e-19)