/*--------------------------------*- C++ -*----------------------------------*\
  =========                 |
  \\      /  F ield         | OpenFOAM: The Open Source CFD Toolbox
   \\    /   O peration     | Website:  https://openfoam.org
    \\  /    A nd           | Version:  7
     \\/     M anipulation  |
\*---------------------------------------------------------------------------*/
FoamFile
{
    version     2.0;
    format      ascii;
    class       volScalarField;
    location    "0.104";
    object      k_0;
}
// * * * * * * * * * * * * * * * * * * * * * * * * * * * * * * * * * * * * * //

dimensions      [0 2 -2 0 0 0 0];

internalField   nonuniform List<scalar> 
12225
(
1.93324e-05
1.805e-05
1.66804e-05
1.55002e-05
1.39829e-05
1.24898e-05
1.14231e-05
9.9349e-06
8.42989e-06
7.63701e-06
6.43993e-06
5.08838e-06
4.49657e-06
4.43107e-06
4.41473e-06
1.11941e-05
5.14756e-06
1.91899e-05
1.99773e-05
1.98744e-05
1.96897e-05
1.94401e-05
1.91166e-05
1.87346e-05
1.82477e-05
1.77815e-05
1.72555e-05
1.68055e-05
1.62926e-05
1.56035e-05
1.47649e-05
1.42935e-05
1.39429e-05
1.78732e-05
1.67689e-05
1.55467e-05
1.99998e-05
1.94876e-05
1.91759e-05
1.91063e-05
1.90088e-05
1.89028e-05
1.87715e-05
1.86441e-05
1.85314e-05
1.84528e-05
1.83907e-05
1.83028e-05
1.81022e-05
1.78689e-05
1.76398e-05
1.80689e-05
1.80624e-05
1.78169e-05
2.04479e-05
2.00922e-05
1.96522e-05
1.86526e-05
1.6594e-05
1.58673e-05
1.57576e-05
1.57679e-05
1.58392e-05
1.60923e-05
1.65792e-05
1.70063e-05
1.72727e-05
1.74002e-05
1.74387e-05
1.75124e-05
1.77249e-05
1.77934e-05
2.04552e-05
2.19261e-05
2.41091e-05
2.39023e-05
2.30664e-05
2.22622e-05
2.07231e-05
1.82863e-05
1.67743e-05
1.62906e-05
1.62902e-05
1.63394e-05
1.64384e-05
1.65941e-05
1.68549e-05
1.70937e-05
1.72781e-05
1.73777e-05
2.14771e-05
2.47945e-05
2.41324e-05
2.35041e-05
2.32926e-05
2.31803e-05
2.29815e-05
2.24678e-05
2.15698e-05
2.07972e-05
2.01708e-05
1.96083e-05
1.91463e-05
1.89045e-05
1.88533e-05
1.88587e-05
1.88558e-05
1.87683e-05
2.10866e-05
2.09258e-05
2.08985e-05
2.16314e-05
2.20304e-05
2.20423e-05
2.19947e-05
2.18058e-05
2.15909e-05
2.14145e-05
2.12273e-05
2.10512e-05
2.0923e-05
2.08555e-05
2.0832e-05
2.08309e-05
2.08632e-05
2.09931e-05
2.01255e-05
2.02652e-05
2.11229e-05
2.32496e-05
2.37113e-05
2.35264e-05
2.27769e-05
2.19057e-05
2.14552e-05
2.11931e-05
2.10237e-05
2.09283e-05
2.08977e-05
2.09009e-05
2.09258e-05
2.10063e-05
2.12308e-05
2.18435e-05
2.01754e-05
2.04252e-05
2.22723e-05
2.3666e-05
2.35203e-05
2.26847e-05
2.20407e-05
2.16558e-05
2.14287e-05
2.12881e-05
2.12303e-05
2.12305e-05
2.13122e-05
2.14372e-05
2.15839e-05
2.19442e-05
2.28149e-05
2.36424e-05
2.0387e-05
2.16669e-05
2.30529e-05
2.31259e-05
2.30205e-05
2.29688e-05
2.27233e-05
2.2151e-05
2.17415e-05
2.15678e-05
2.15631e-05
2.17717e-05
2.27826e-05
2.50789e-05
2.63824e-05
2.67823e-05
2.68063e-05
2.66423e-05
2.01881e-05
2.083e-05
2.14718e-05
2.17259e-05
2.20315e-05
2.29187e-05
2.38034e-05
2.41176e-05
2.41727e-05
2.41714e-05
2.42008e-05
2.45681e-05
2.58055e-05
2.66001e-05
2.68139e-05
2.68167e-05
2.67196e-05
2.62868e-05
2.02606e-05
2.06704e-05
2.09819e-05
2.15828e-05
2.30148e-05
2.37405e-05
2.39124e-05
2.38518e-05
2.34967e-05
2.31303e-05
2.29962e-05
2.30379e-05
2.34145e-05
2.41645e-05
2.45616e-05
2.46515e-05
2.4608e-05
2.43391e-05
2.04617e-05
2.03978e-05
2.04459e-05
2.06884e-05
2.16327e-05
2.45232e-05
2.91641e-05
3.21325e-05
3.2877e-05
3.23131e-05
2.90726e-05
2.55584e-05
2.38999e-05
2.32216e-05
2.30026e-05
2.29325e-05
2.28789e-05
2.2832e-05
2.02413e-05
2.02049e-05
2.02071e-05
2.04205e-05
2.09483e-05
2.26896e-05
2.80635e-05
3.19184e-05
3.26287e-05
3.18053e-05
2.80725e-05
2.46344e-05
2.28431e-05
2.199e-05
2.16448e-05
2.15448e-05
2.15375e-05
2.15951e-05
2.03007e-05
2.032e-05
2.03011e-05
2.03933e-05
2.10506e-05
2.39715e-05
2.73655e-05
2.82167e-05
2.78625e-05
2.5683e-05
2.29369e-05
2.15372e-05
2.08801e-05
2.06089e-05
2.05328e-05
2.05031e-05
2.0476e-05
2.04775e-05
2.09139e-05
2.07625e-05
2.04814e-05
2.04846e-05
2.06117e-05
2.10817e-05
2.17782e-05
2.21583e-05
2.21743e-05
2.19156e-05
2.12415e-05
2.07591e-05
2.04903e-05
2.03809e-05
2.03621e-05
2.036e-05
2.03589e-05
2.03769e-05
2.0191e-05
2.11905e-05
2.16253e-05
2.13238e-05
2.06593e-05
2.0455e-05
2.04473e-05
2.04828e-05
2.04947e-05
2.0481e-05
2.04095e-05
2.03258e-05
2.02871e-05
2.02785e-05
2.02875e-05
2.0359e-05
2.06661e-05
2.11467e-05
2.00626e-05
2.0662e-05
2.13049e-05
2.13845e-05
2.1236e-05
2.08462e-05
2.06432e-05
2.05727e-05
2.05486e-05
2.05017e-05
2.04502e-05
2.0447e-05
2.04755e-05
2.06022e-05
2.07409e-05
2.08286e-05
2.09082e-05
2.10576e-05
2.0204e-05
2.08336e-05
2.10311e-05
2.09502e-05
2.07731e-05
2.07575e-05
2.07887e-05
2.09237e-05
2.09136e-05
2.07475e-05
2.06425e-05
2.06273e-05
2.06307e-05
2.06243e-05
2.05977e-05
2.05949e-05
2.06172e-05
2.07255e-05
2.01467e-05
2.08523e-05
2.1371e-05
2.14151e-05
2.12015e-05
2.08049e-05
2.07068e-05
2.06105e-05
2.05074e-05
2.04879e-05
2.05086e-05
2.06708e-05
2.12736e-05
2.16623e-05
2.17108e-05
2.16315e-05
2.13228e-05
2.11036e-05
2.0027e-05
2.01114e-05
2.03862e-05
2.11528e-05
2.15831e-05
2.16598e-05
2.16122e-05
2.12846e-05
2.07457e-05
2.04773e-05
2.0411e-05
2.04305e-05
2.06164e-05
2.14382e-05
2.21638e-05
2.22541e-05
2.20475e-05
2.15315e-05
2.00044e-05
2.00291e-05
2.01624e-05
2.0579e-05
2.07887e-05
2.082e-05
2.07916e-05
2.06908e-05
2.06506e-05
2.06565e-05
2.07274e-05
2.08474e-05
2.08965e-05
2.09012e-05
2.08777e-05
2.08001e-05
2.07621e-05
2.07592e-05
2.00013e-05
2.0034e-05
2.0198e-05
2.03278e-05
2.03653e-05
2.03778e-05
2.0399e-05
2.04745e-05
2.05971e-05
2.06568e-05
2.06706e-05
2.06675e-05
2.06391e-05
2.05864e-05
2.05626e-05
2.05572e-05
2.0558e-05
2.05658e-05
2.00317e-05
2.00322e-05
2.00366e-05
2.00963e-05
2.0251e-05
2.0369e-05
2.04125e-05
2.04378e-05
2.04965e-05
2.05706e-05
2.0706e-05
2.0966e-05
2.11597e-05
2.12155e-05
2.12074e-05
2.1135e-05
2.09366e-05
2.08209e-05
2.01222e-05
2.00631e-05
2.00637e-05
2.01173e-05
2.03553e-05
2.06711e-05
2.08442e-05
2.08838e-05
2.08514e-05
2.06458e-05
2.04282e-05
2.0358e-05
2.03554e-05
2.04035e-05
2.05591e-05
2.06226e-05
2.06232e-05
2.06215e-05
2.01173e-05
2.01074e-05
2.01102e-05
2.02977e-05
2.04587e-05
2.05213e-05
2.05313e-05
2.05065e-05
2.04295e-05
2.03869e-05
2.03735e-05
2.0369e-05
2.03663e-05
2.03608e-05
2.03529e-05
2.03411e-05
2.03147e-05
2.03099e-05
2.00635e-05
2.00721e-05
2.00333e-05
1.99687e-05
1.98288e-05
1.9526e-05
1.94454e-05
1.94798e-05
1.9695e-05
2.01079e-05
2.01824e-05
2.00645e-05
1.95762e-05
1.84164e-05
1.74467e-05
1.68746e-05
1.66842e-05
1.66063e-05
2.02303e-05
1.78845e-05
1.15566e-05
1.16054e-05
1.27227e-05
1.47577e-05
1.77297e-05
2.39629e-05
3.9272e-05
5.6544e-05
6.70965e-05
7.11549e-05
7.16581e-05
7.10969e-05
6.94062e-05
6.85378e-05
6.84216e-05
6.84546e-05
3.29204e-05
9.43149e-05
0.000148855
0.000208617
0.000244633
0.000266411
0.000304517
0.000398673
0.000523034
0.000595891
0.000615434
0.000614862
0.000606702
0.000586472
0.000573374
0.000567948
0.0005673
0.000569614
0.00290513
0.00271513
0.00224528
0.00192819
0.00182843
0.00183126
0.00191062
0.00199936
0.00201859
0.00200834
0.00194023
0.00178592
0.00164757
0.00152898
0.00143391
0.00136448
0.00132081
0.00129813
0.0058386
0.00943429
0.010288
0.0104925
0.0108519
0.0109929
0.011349
0.0119039
0.0117964
0.0107
0.00665945
0.00387585
0.00429841
0.00671851
0.00788001
0.00780536
0.0071101
0.00681993
0.00703855
0.00790154
0.0103355
0.0137885
0.0151289
0.0165124
0.0204594
0.0268013
0.0301449
0.0247383
0.0142884
0.010504
0.00978959
0.00972751
0.00933324
0.00849971
0.00801815
0.00796025
0.00802545
0.00803221
0.00786174
0.00764887
0.0074419
0.00721685
0.00695143
0.00675221
0.00659993
0.00649162
0.00640507
0.00637891
0.00641136
0.00644907
0.00651027
0.00656658
0.00664718
0.00676236
0.00688405
0.00701717
0.00715546
0.0072897
0.00742304
0.00757036
0.00771427
0.00787577
0.00803193
0.0081807
0.00832169
0.00850168
0.00869216
0.00861891
0.0092353
0.00958135
0.00938741
0.00918269
0.0124396
0.0350763
0.0318725
0.0187229
0.0154521
0.0142808
0.013803
0.013671
0.0133527
0.0131628
0.0132606
0.0138314
0.0163745
0.0201134
0.0209811
0.0233641
0.0414871
0.13293
0.198918
0.208975
0.184995
0.0939302
0.0207473
0.00400103
0.00222747
0.0019331
0.00187755
0.00176043
0.00158859
0.0014008
0.00123477
0.00104653
0.000928392
0.000855087
0.000794808
0.000766636
0.000757847
0.000798266
0.000813301
0.000821592
0.000825084
0.000825697
0.0008173
0.000804349
0.000789431
0.000766754
0.000746622
0.000727551
0.000699519
0.000672539
0.000651538
0.000629521
0.00060436
0.000581468
0.000556908
0.000532979
0.000511571
0.000493005
0.000473128
0.000447387
0.000421212
0.000395868
0.00037159
0.000348386
0.000325947
0.000303999
0.000283063
0.000263972
0.000246162
0.000228495
0.000211593
0.000195855
0.000178493
0.000159053
0.00014173
0.000125922
0.00010783
9.30238e-05
8.07854e-05
5.84975e-05
3.41756e-05
1.85027e-05
1.01272e-05
6.33588e-06
4.90849e-06
4.52675e-06
4.48166e-06
4.43102e-06
4.27955e-06
4.05534e-06
3.71568e-06
3.30709e-06
2.83345e-06
2.40111e-06
2.01276e-06
1.68939e-06
1.33805e-06
1.26647e-06
1.2956e-06
1.56708e-06
1.52695e-06
1.74657e-06
1.6175e-06
1.98406e-06
2.38225e-06
3.20518e-06
1.3798e-05
1.14441e-05
0.00514617
0.00892175
0.0114081
0.0125338
0.0129403
0.0115245
0.0115821
0.0123892
0.0125908
0.0125638
0.0123768
0.0116936
0.00967386
0.00776816
0.00699275
0.00532394
0.00468168
0.00550893
0.0080558
0.0128921
0.0181082
0.0215127
0.0221283
0.0214963
0.0207861
0.0198549
0.0174693
0.0130361
0.0103767
0.00915356
0.0085802
0.00784594
0.00675698
0.00572252
0.0049307
0.00440438
0.00387573
0.00342048
0.00310652
0.00283624
0.00266176
0.00250774
0.00238382
0.00230464
0.00221629
0.00216365
0.0021295
0.00211775
0.00212575
0.0021558
0.00216913
0.00222513
0.00228885
0.0023402
0.00241934
0.00251969
0.0026457
0.00280228
0.00300753
0.00326522
0.00358834
0.00396566
0.00444502
0.00503658
0.00578703
0.00675113
0.00762528
0.00821478
0.00956643
0.0102634
0.0104304
0.00973463
0.0106632
0.0201057
0.030211
0.0328139
0.0302485
0.0185374
0.0148425
0.0145965
0.0133163
0.0123425
0.0122427
0.0129034
0.0169557
0.0252113
0.0265663
0.0269257
0.0343581
0.0649367
0.110075
0.143259
0.10336
0.0313703
0.00698706
0.0022616
0.0014704
0.00129775
0.00125148
0.00123765
0.00125589
0.00131255
0.00139427
0.00147987
0.00151848
0.001544
0.00155473
0.00155967
0.00156128
0.00155751
0.00154055
0.00151976
0.00149632
0.00147428
0.0014522
0.00142675
0.00140101
0.00137289
0.00134088
0.00130031
0.00125416
0.00120536
0.0011582
0.00110527
0.00106006
0.00100992
0.000970387
0.000935981
0.000906733
0.000878346
0.000849185
0.000821462
0.000796883
0.000772897
0.00074756
0.000721234
0.000694654
0.000667554
0.000639194
0.0006088
0.000576045
0.000541533
0.000508725
0.000478868
0.000447527
0.000412169
0.000373919
0.0003328
0.00029485
0.000265181
0.000237613
0.000210626
0.000179576
0.000144993
0.0001164
9.65685e-05
8.17543e-05
6.91005e-05
5.85173e-05
5.08021e-05
4.52969e-05
4.1368e-05
3.78195e-05
3.46686e-05
3.09109e-05
2.71477e-05
2.31087e-05
1.99148e-05
1.64767e-05
1.4176e-05
1.1838e-05
1.09202e-05
9.35785e-06
8.49562e-06
7.24338e-06
6.25102e-06
5.76644e-06
4.90333e-06
6.30787e-06
5.70202e-06
0.00466147
0.00704643
0.011936
0.0169324
0.0158274
0.0123212
0.00987408
0.00884243
0.00885178
0.00908753
0.00958012
0.00984594
0.00975455
0.00932701
0.00828735
0.00638394
0.00625271
0.0109678
0.0153367
0.0161385
0.0168165
0.0166035
0.0155745
0.012857
0.0106585
0.00855183
0.00770549
0.00667138
0.0061421
0.00550772
0.00447305
0.00345331
0.00259569
0.00205442
0.0016169
0.00132737
0.00107107
0.000902702
0.000785118
0.000692745
0.000622972
0.000577297
0.000528567
0.000501548
0.000478269
0.000466335
0.000461186
0.000461935
0.000477754
0.000505474
0.000530706
0.000552686
0.000570281
0.000583039
0.000596217
0.000606163
0.000614198
0.000621479
0.000632763
0.000654141
0.000691295
0.000759453
0.000887294
0.00109397
0.00146596
0.00211614
0.00333412
0.0053668
0.0080491
0.00999897
0.0108222
0.0108952
0.011199
0.0126632
0.0155575
0.0226782
0.0274428
0.0279309
0.0274641
0.0238653
0.0187791
0.0142839
0.012461
0.0130506
0.0206691
0.0326642
0.0336264
0.0328238
0.0357278
0.0603479
0.0932221
0.068097
0.0250818
0.00676391
0.0021505
0.00137029
0.00126039
0.00127187
0.00131927
0.00141706
0.00151161
0.00157007
0.00159908
0.00160478
0.00159345
0.00155309
0.00149568
0.0014496
0.00142196
0.00140963
0.00140689
0.00141182
0.0014231
0.00142706
0.00142463
0.00141844
0.00140911
0.00139543
0.00137755
0.00134898
0.00131423
0.00127404
0.00122576
0.00116297
0.0010949
0.00102319
0.000963737
0.000914192
0.000883259
0.000861848
0.000841907
0.000821907
0.000805495
0.000792239
0.000779481
0.000767315
0.000756565
0.000747895
0.000741081
0.000732458
0.000719539
0.000701559
0.000674903
0.00063626
0.000590068
0.000552051
0.000528569
0.000498796
0.000445172
0.000379556
0.000321502
0.00027356
0.000234512
0.000201861
0.000172209
0.000147432
0.000129287
0.000118773
0.000113669
0.000109128
0.000102043
9.33962e-05
8.51506e-05
7.81037e-05
7.17121e-05
6.55787e-05
5.96263e-05
5.40144e-05
4.89231e-05
4.41558e-05
4.00445e-05
3.59661e-05
3.25603e-05
2.85003e-05
2.53902e-05
2.09312e-05
1.84077e-05
1.39414e-05
1.22316e-05
8.69634e-06
0.0115915
0.0109954
0.0192915
0.0190797
0.0154861
0.00966247
0.00716533
0.00715325
0.00746627
0.00814842
0.00859834
0.00894801
0.00922328
0.0091783
0.00874008
0.00701117
0.0085209
0.0132657
0.0135308
0.0114384
0.0100673
0.00892312
0.00711539
0.00582293
0.00495715
0.00430993
0.00399538
0.0035486
0.00318052
0.002585
0.00196163
0.00148551
0.00113835
0.000951822
0.000830387
0.000725279
0.000662461
0.000599279
0.000553462
0.000514784
0.000487921
0.00047676
0.000471077
0.000468768
0.0004681
0.000468401
0.000472039
0.000478625
0.000488598
0.000500886
0.000510461
0.000520337
0.000528783
0.000536661
0.000540797
0.000541913
0.000536143
0.000519235
0.000490271
0.000457345
0.000420465
0.000384639
0.000363661
0.000356517
0.00039523
0.000512596
0.000792568
0.00144145
0.0029335
0.00646081
0.0103574
0.0126049
0.0136791
0.013728
0.0133189
0.013241
0.0138867
0.0171642
0.0209237
0.0220312
0.0212985
0.0169653
0.0127721
0.0129829
0.022092
0.0379097
0.0378944
0.0349871
0.0381187
0.0653286
0.0616304
0.0239364
0.0070243
0.00225605
0.00135353
0.00125585
0.001342
0.00156182
0.00192393
0.0020913
0.00216176
0.00217753
0.00216126
0.00206877
0.00196187
0.00189957
0.00182545
0.00172675
0.00165023
0.0015825
0.00151536
0.00147495
0.00145456
0.00143362
0.00141883
0.00140526
0.00139067
0.00138156
0.00137153
0.00135721
0.0013329
0.00129933
0.0012527
0.00118792
0.0010999
0.000995044
0.000896753
0.000797822
0.000708269
0.00063721
0.000588021
0.000558365
0.000544345
0.000540629
0.000543245
0.000554452
0.000573522
0.000598317
0.000628926
0.000659736
0.000685936
0.000707203
0.000719124
0.000721628
0.000713798
0.000675337
0.000615829
0.000565266
0.000537624
0.00052372
0.000499267
0.000436885
0.00034294
0.00028377
0.000255191
0.000230064
0.000200877
0.000174716
0.000155056
0.0001409
0.000132091
0.000128248
0.000126422
0.000123166
0.000115858
0.000105793
9.48531e-05
8.41935e-05
7.44354e-05
6.57833e-05
5.83737e-05
5.2036e-05
4.68207e-05
4.19935e-05
3.80583e-05
3.34876e-05
3.02139e-05
2.50867e-05
2.24406e-05
1.68182e-05
0.0132296
0.0259086
0.023119
0.0133163
0.00694849
0.00567117
0.00590652
0.00661356
0.00768593
0.00848877
0.00908334
0.00925017
0.00925772
0.00917868
0.00863046
0.00710945
0.0104438
0.0121223
0.00968515
0.00716707
0.00607253
0.00471347
0.00359276
0.00307358
0.00261935
0.00239176
0.0022155
0.00193806
0.0016903
0.00135636
0.00107824
0.000931145
0.000845326
0.000801371
0.000768041
0.000725623
0.000690106
0.000660218
0.000632574
0.000609078
0.000602147
0.000603761
0.000613048
0.000626585
0.0006413
0.000658973
0.000679456
0.000697088
0.000709658
0.000722065
0.000727718
0.000729093
0.000720179
0.000712316
0.000709875
0.00070658
0.000698339
0.000678612
0.000621845
0.000559652
0.000483803
0.000406492
0.000341891
0.000297246
0.000271262
0.000259299
0.000268184
0.000362409
0.000635869
0.0013721
0.00310904
0.0068152
0.0100541
0.0118184
0.0126013
0.0127134
0.0127884
0.0129941
0.0139277
0.0158432
0.0164861
0.0160158
0.0130189
0.0128916
0.0226011
0.0410812
0.0424726
0.0401957
0.047917
0.0618081
0.0289629
0.00855738
0.00260579
0.00136891
0.00121388
0.00133749
0.00169455
0.00219988
0.00239542
0.00246744
0.00248494
0.00246901
0.00235228
0.00220876
0.00207799
0.00192381
0.00178441
0.00165009
0.00153808
0.00148724
0.00146371
0.00145261
0.00144824
0.00144214
0.00142883
0.00141927
0.00140412
0.001397
0.00138762
0.00138101
0.00136736
0.00134985
0.0013229
0.00127498
0.00119056
0.00105511
0.000923692
0.000799296
0.000685645
0.00058306
0.000495168
0.000432635
0.00039474
0.000370758
0.000358435
0.000356342
0.000357458
0.000361778
0.000372601
0.000392936
0.000421628
0.000458032
0.000510005
0.000579388
0.000655894
0.000705134
0.000713845
0.000703898
0.000648648
0.000598537
0.000578379
0.000560156
0.000524925
0.000447974
0.00036425
0.000305472
0.000270343
0.000244264
0.000217855
0.000192098
0.000171314
0.000157452
0.000149672
0.000146073
0.000144259
0.000141683
0.000135659
0.000122203
0.000106985
9.27536e-05
8.04443e-05
6.98629e-05
6.12116e-05
5.34185e-05
4.79958e-05
4.26902e-05
4.02397e-05
3.61395e-05
3.37337e-05
2.79771e-05
0.0114408
0.0121052
0.0074265
0.00453492
0.00458504
0.00526506
0.00693401
0.00892048
0.0103154
0.011407
0.0113028
0.0104721
0.00949543
0.00916137
0.0082681
0.00766537
0.0103746
0.0104668
0.00686011
0.00482711
0.00387084
0.00266805
0.00208461
0.0017973
0.00156474
0.00146152
0.00135885
0.00120895
0.00108942
0.000968374
0.000904299
0.000875113
0.000860772
0.000856939
0.000887256
0.000923923
0.000972895
0.00101408
0.00104598
0.00106845
0.00109303
0.00112924
0.00116539
0.00120539
0.00125072
0.0012936
0.0013289
0.00135361
0.00136054
0.0013394
0.00129234
0.00125661
0.00118806
0.00110179
0.00103725
0.000964076
0.000915948
0.000870069
0.000815307
0.000763764
0.000673567
0.000554679
0.000419327
0.000324111
0.000271357
0.000238899
0.000211501
0.000198931
0.0001984
0.000261348
0.000446294
0.000883724
0.00174359
0.00310411
0.00538947
0.00852678
0.0105221
0.0116902
0.0130495
0.0139822
0.0142771
0.0143559
0.0129136
0.0124016
0.0224033
0.0422744
0.0465315
0.0472161
0.0515646
0.0386614
0.012094
0.00345895
0.00145694
0.00115578
0.00125624
0.0016218
0.00231418
0.00257864
0.00267118
0.00269352
0.00268335
0.00256793
0.00240705
0.00223027
0.00205208
0.00185076
0.00169984
0.00163712
0.00161263
0.00161325
0.00164492
0.00168122
0.00169584
0.00169847
0.0016678
0.00164486
0.0015984
0.00157121
0.00154367
0.00152999
0.00152002
0.00150923
0.00149189
0.00145772
0.00139071
0.0012532
0.00107362
0.000891232
0.000727
0.000591205
0.000483044
0.000398205
0.000339965
0.000311952
0.000299976
0.000295992
0.000296208
0.000297738
0.000301745
0.000312381
0.000341666
0.000369581
0.000382579
0.000394525
0.00041904
0.000494528
0.00061355
0.000672319
0.000685748
0.000689318
0.00068486
0.000652003
0.000612156
0.000575791
0.000504708
0.000417055
0.000347479
0.000302527
0.000270543
0.000241979
0.000215317
0.000192585
0.000175671
0.000164894
0.000159131
0.000156467
0.000154621
0.000151303
0.000143325
0.000129114
0.000114815
0.000100596
8.88822e-05
7.73536e-05
6.82777e-05
5.94676e-05
5.45471e-05
4.983e-05
4.76768e-05
4.2813e-05
0.00442136
0.00438448
0.0035214
0.00367689
0.00528742
0.00778447
0.0090277
0.0103466
0.0113362
0.012501
0.0125523
0.0119125
0.0101058
0.00905405
0.00795487
0.00818799
0.0100589
0.00901489
0.00504623
0.00343598
0.00259666
0.00170844
0.00135793
0.00118986
0.0010894
0.00104214
0.00100048
0.000953164
0.00093016
0.000920251
0.000919119
0.000938266
0.00101916
0.00116635
0.00140207
0.00171094
0.0019437
0.00208991
0.00222271
0.00231012
0.00239216
0.002454
0.0024997
0.00254193
0.00256219
0.0025687
0.00254808
0.00252112
0.0024682
0.00240056
0.00229893
0.00217668
0.00201573
0.00185806
0.0016705
0.00147321
0.0013055
0.00114381
0.00101565
0.000948261
0.000854811
0.000720796
0.000556731
0.000394935
0.000317713
0.000249319
0.000215646
0.000188606
0.000168985
0.000160039
0.000159518
0.000187779
0.000274192
0.000497075
0.00105377
0.00254632
0.00627411
0.00928228
0.0114911
0.0130329
0.0135752
0.0138765
0.0126996
0.0116795
0.0203837
0.0420645
0.0467122
0.0470404
0.0443735
0.0167957
0.0051042
0.00175901
0.00115368
0.00114365
0.00142263
0.00222655
0.00264323
0.00278971
0.0028297
0.00283176
0.00274802
0.00259127
0.00239405
0.00214961
0.00193509
0.00184959
0.00181791
0.00183989
0.0019748
0.00217397
0.00234807
0.00244519
0.00248468
0.00249232
0.00242759
0.00232419
0.00217588
0.00204868
0.00194478
0.00187137
0.00183028
0.00181024
0.00179569
0.00177094
0.00171991
0.00162015
0.00142083
0.00116127
0.000899149
0.000679344
0.000514625
0.000399291
0.000320857
0.000269644
0.000246859
0.000243845
0.000245619
0.000250232
0.000257778
0.000272969
0.000311872
0.000375749
0.000405405
0.000407976
0.000407586
0.000411057
0.000437347
0.000538287
0.000629703
0.000671891
0.00069172
0.00069869
0.000694815
0.000661344
0.000602581
0.000532557
0.00045036
0.000378124
0.000325818
0.000287174
0.000254345
0.000225243
0.000201088
0.000182861
0.000170447
0.000163033
0.000159347
0.00015723
0.000154175
0.000146714
0.000134888
0.000120568
0.000108114
9.54537e-05
8.55254e-05
7.49694e-05
6.77965e-05
6.07549e-05
5.7627e-05
5.28957e-05
0.00234843
0.00336144
0.00316149
0.00436781
0.00746575
0.00879115
0.0097231
0.0112894
0.0129601
0.0139221
0.0137019
0.0125576
0.0101843
0.00881815
0.00776426
0.00829691
0.00951785
0.00783197
0.00393234
0.00256789
0.00186072
0.00123134
0.00101542
0.000929586
0.000895904
0.000885247
0.000881915
0.000899919
0.000920606
0.000946988
0.00101781
0.00117654
0.00148878
0.00199941
0.00248703
0.00275064
0.00289098
0.00297846
0.00304675
0.00308828
0.00313008
0.00316842
0.00320428
0.00323923
0.00327051
0.00330066
0.00332709
0.00334264
0.00334741
0.00332593
0.00328189
0.00320402
0.00308158
0.00289098
0.00266381
0.00244376
0.00220333
0.00193054
0.00165787
0.00143487
0.00123303
0.000975981
0.000746671
0.000526205
0.00039225
0.000295122
0.000239774
0.000199482
0.000176544
0.00015923
0.000147465
0.000139451
0.000134148
0.000146954
0.000230903
0.000559128
0.00177613
0.00511881
0.00849699
0.0111681
0.0124483
0.0127143
0.0120386
0.0107063
0.0176865
0.0359459
0.0427958
0.0398688
0.0222022
0.0073284
0.0024676
0.00122713
0.00104529
0.00120098
0.00180635
0.00255336
0.0028118
0.00289285
0.00290783
0.00286842
0.00274962
0.00255675
0.002274
0.0020856
0.00200939
0.00200979
0.00222051
0.00262978
0.0031771
0.00365921
0.00387716
0.00395043
0.00391383
0.00374667
0.00346512
0.0032694
0.00307774
0.00289161
0.00269608
0.00248942
0.00231726
0.00222652
0.00219383
0.00218624
0.00216838
0.00211414
0.00196728
0.00167933
0.00129757
0.000933155
0.000651724
0.000458848
0.000337045
0.000264887
0.000221671
0.000198322
0.000191411
0.000191731
0.000196295
0.000210662
0.00024813
0.000358175
0.000515249
0.00056093
0.000557644
0.000534706
0.00052733
0.000554682
0.00063533
0.00067874
0.00069974
0.000710939
0.000714052
0.000707123
0.000664908
0.000608063
0.000545885
0.000471237
0.000399976
0.000342097
0.000297211
0.000260458
0.000228953
0.000203129
0.000183734
0.000169957
0.000162263
0.000157983
0.000155222
0.000149606
0.000141352
0.000129454
0.000118004
0.000105277
9.5306e-05
8.49327e-05
7.70676e-05
6.87673e-05
6.32035e-05
5.80866e-05
0.00222759
0.00337463
0.00314662
0.00568571
0.00819035
0.00915231
0.0102319
0.0125078
0.0145382
0.0153163
0.0148656
0.0131755
0.0101613
0.00838587
0.00751536
0.00823089
0.00905715
0.00706314
0.00325032
0.00201304
0.00141086
0.000998917
0.000868295
0.000830305
0.000822956
0.000831006
0.000863203
0.000903193
0.000950708
0.00105265
0.00126484
0.00168473
0.00232802
0.00284404
0.00312795
0.00324102
0.00328352
0.0032986
0.00330505
0.0033282
0.00337074
0.00342913
0.00349248
0.00356426
0.00362551
0.00367955
0.00372035
0.00375975
0.00377966
0.00378689
0.00377436
0.00373691
0.00368172
0.00358173
0.0034619
0.00332671
0.00313512
0.00294658
0.00276941
0.00245023
0.00212234
0.00168013
0.00124088
0.00083049
0.000563542
0.000385772
0.000287603
0.000227297
0.000190081
0.000167615
0.000150806
0.000138631
0.000127007
0.000116006
0.000113258
0.000158886
0.000397655
0.00141736
0.00486365
0.00928046
0.0117331
0.012094
0.0116613
0.00976402
0.0141565
0.0247436
0.0296792
0.0223734
0.0100175
0.00364338
0.00151198
0.00104307
0.00103771
0.00134622
0.00224395
0.00272731
0.00288797
0.00292796
0.0029253
0.00285623
0.00267763
0.00240369
0.00224409
0.00217407
0.00223389
0.00258047
0.00338535
0.00462296
0.00569096
0.00612316
0.00622964
0.00575002
0.00497702
0.0042647
0.00374763
0.00348893
0.00333116
0.00320157
0.00311094
0.00302551
0.0029122
0.00274977
0.00262235
0.00258913
0.00259009
0.00257569
0.00252003
0.00233452
0.00192151
0.00139423
0.000939035
0.000616737
0.000411319
0.000290018
0.000223936
0.00019151
0.000180209
0.000179545
0.000183088
0.000196962
0.000230396
0.000306483
0.000528374
0.000784389
0.000873169
0.000875974
0.000878011
0.000906988
0.000903445
0.000886586
0.000839196
0.000787613
0.000761039
0.000734961
0.000698284
0.000648297
0.000599092
0.000547433
0.000482883
0.000414891
0.000353762
0.000303071
0.000262185
0.000228501
0.000201588
0.000179781
0.00016604
0.000157663
0.000153366
0.000147717
0.000141533
0.000132194
0.000122735
0.000111296
0.000101241
9.11464e-05
8.3071e-05
7.51906e-05
6.85039e-05
6.20748e-05
0.00237513
0.00369999
0.00329521
0.00634407
0.00846433
0.00928616
0.0104644
0.0134227
0.0158635
0.0163405
0.0156604
0.013696
0.0101743
0.00801063
0.00728678
0.00805112
0.00869047
0.00664958
0.00282842
0.00167841
0.00115852
0.000893518
0.000812503
0.000796957
0.000798542
0.000824011
0.000869572
0.000936419
0.00105675
0.00130026
0.00179902
0.0024216
0.00298094
0.00330721
0.00342201
0.00344751
0.0034471
0.00345371
0.00352709
0.00361951
0.00377014
0.00389945
0.00402698
0.00411267
0.00416946
0.00420986
0.00423698
0.0042712
0.00429303
0.00430095
0.00428502
0.00425655
0.00419111
0.00409702
0.00395108
0.00376708
0.00357106
0.00335442
0.00323056
0.00307435
0.00289473
0.00262486
0.00223323
0.00161244
0.00101818
0.000650563
0.000424445
0.000295219
0.000219826
0.000180544
0.000158128
0.000142066
0.000128171
0.000114325
0.000103225
0.000103277
0.000138163
0.000340821
0.00134007
0.00568947
0.0106683
0.0119173
0.0116723
0.0094273
0.0106958
0.017224
0.0179923
0.011913
0.00522002
0.00215205
0.0011434
0.000942341
0.00105163
0.00166275
0.00243654
0.00279057
0.00290877
0.00293364
0.0029122
0.0027629
0.00250581
0.00236761
0.00230263
0.00238434
0.00281432
0.00396196
0.00605138
0.00840218
0.00941677
0.00975521
0.00913851
0.00741408
0.00582543
0.00457272
0.00381795
0.00338945
0.00322807
0.00315789
0.00312988
0.00311119
0.00308949
0.0030722
0.00304405
0.00297265
0.00296342
0.00296621
0.00294542
0.00287594
0.00262479
0.00202313
0.00136089
0.000863743
0.000541002
0.000348474
0.00024413
0.000196805
0.000184767
0.000188894
0.000210265
0.000275157
0.000385773
0.000461562
0.000597041
0.000923208
0.00116287
0.00123516
0.00129558
0.00154945
0.00165969
0.00160732
0.00145079
0.00116224
0.000950601
0.00082512
0.000752691
0.000690021
0.000633753
0.000586485
0.000545492
0.000488295
0.000421084
0.00035732
0.000303379
0.000259022
0.000224314
0.000195307
0.000173602
0.0001581
0.000149742
0.000143436
0.000138311
0.000131225
0.000124007
0.000114819
0.000105486
9.57271e-05
8.72435e-05
7.94511e-05
7.31203e-05
6.62939e-05
0.00262071
0.00403177
0.00358209
0.00681273
0.00854801
0.0093158
0.0104665
0.0139023
0.016225
0.0165152
0.0158527
0.013794
0.0101321
0.00773249
0.00699921
0.00774398
0.00839368
0.00671038
0.00274552
0.00147554
0.0010401
0.000855819
0.000799162
0.000789619
0.00079632
0.000830511
0.000903721
0.00104
0.00129646
0.00180907
0.00233301
0.00287869
0.00331095
0.00352181
0.00357965
0.00359235
0.0036451
0.00377052
0.00394445
0.00416414
0.00437056
0.00451973
0.00460316
0.00464383
0.00465494
0.00464305
0.0046366
0.00463478
0.00463552
0.00463339
0.00462321
0.00460342
0.00456385
0.00448882
0.00435368
0.00412341
0.00382092
0.0035434
0.0033802
0.00324553
0.00312842
0.00297232
0.00279465
0.00253395
0.00194578
0.00121132
0.000753593
0.000480452
0.000309549
0.000217023
0.000172393
0.000150139
0.000135324
0.000118825
0.00010312
9.69982e-05
9.90814e-05
0.000133519
0.000360821
0.00170165
0.00774476
0.0114853
0.0117616
0.0102057
0.00828424
0.0115013
0.011785
0.00712958
0.00325938
0.00150305
0.000957774
0.000896664
0.00109791
0.00183141
0.00252916
0.00281347
0.00290643
0.00292459
0.00283518
0.00259635
0.00245762
0.00239374
0.00243055
0.00281349
0.00399389
0.00666505
0.0109197
0.0140585
0.0155394
0.0159734
0.0138363
0.0113695
0.00815013
0.00570111
0.00403368
0.00317937
0.00272354
0.00260718
0.00278338
0.00295511
0.00306839
0.00311672
0.00319498
0.003251
0.00329566
0.00334027
0.00335056
0.00331099
0.00319124
0.00276265
0.00190203
0.00118014
0.000705383
0.000423794
0.000276111
0.000218472
0.000220616
0.000264354
0.000413636
0.000807468
0.00141367
0.00168287
0.00171929
0.0017414
0.00167668
0.00157273
0.00154827
0.00163713
0.00229467
0.00303447
0.00297226
0.00251786
0.00169757
0.00118495
0.00092082
0.000781671
0.000689336
0.000621573
0.000579052
0.000552256
0.000506732
0.000434121
0.000362475
0.000300798
0.000252934
0.000215128
0.00018616
0.000163671
0.00014899
0.000139122
0.000133217
0.000127631
0.00012231
0.000115882
0.000108518
9.97551e-05
9.12239e-05
8.26378e-05
7.62496e-05
6.97239e-05
0.0030922
0.00432508
0.00388675
0.00713722
0.00847354
0.00913483
0.0102117
0.0135076
0.0161103
0.0164623
0.0158221
0.0137663
0.0100625
0.00733118
0.00638863
0.00711943
0.00804224
0.00693619
0.00286097
0.00147154
0.00102714
0.000856234
0.000800071
0.000790625
0.000801503
0.000858457
0.00100134
0.00133838
0.00183187
0.00232403
0.00277029
0.00319023
0.00345386
0.00360736
0.00368428
0.00378868
0.0039412
0.00415435
0.00444163
0.00467983
0.00480882
0.00485971
0.00486526
0.00478116
0.0047033
0.00464911
0.00462529
0.00462164
0.00462734
0.00464243
0.00465699
0.0046634
0.00466431
0.00464992
0.00462586
0.00453602
0.00424452
0.00378026
0.00342805
0.00327024
0.00318947
0.00308671
0.00296152
0.00283127
0.00261675
0.00211075
0.00131554
0.000823811
0.000507698
0.000310102
0.000207617
0.000161575
0.000141802
0.000127462