/*--------------------------------*- C++ -*----------------------------------*\
  =========                 |
  \\      /  F ield         | OpenFOAM: The Open Source CFD Toolbox
   \\    /   O peration     | Website:  https://openfoam.org
    \\  /    A nd           | Version:  7
     \\/     M anipulation  |
\*---------------------------------------------------------------------------*/
FoamFile
{
    version     2.0;
    format      ascii;
    class       surfaceScalarField;
    location    "0.104";
    object      phi_0;
}
// * * * * * * * * * * * * * * * * * * * * * * * * * * * * * * * * * * * * * //

dimensions      [0 3 -1 0 0 0 0];

internalField   nonuniform List<scalar> 
24170
(
1.39633e-06
2.47113e-07
1.24212e-06
1.54207e-07
1.1111e-06
1.3102e-07
9.93785e-07
1.17314e-07
8.76982e-07
1.16803e-07
7.63086e-07
1.13896e-07
6.58623e-07
1.04463e-07
5.65285e-07
9.33383e-08
4.81244e-07
8.40408e-08
4.05498e-07
7.57463e-08
3.38833e-07
6.66648e-08
2.8198e-07
5.68531e-08
2.33997e-07
4.79829e-08
1.93112e-07
4.08853e-08
1.57276e-07
3.5836e-08
1.25395e-07
3.18803e-08
9.52986e-08
3.00968e-08
1.86946e-08
7.6604e-08
1.66792e-06
2.54062e-07
1.63941e-06
1.8272e-07
1.60623e-06
1.64196e-07
1.57228e-06
1.51267e-07
1.53299e-06
1.56091e-07
1.48696e-06
1.59925e-07
1.435e-06
1.56423e-07
1.37836e-06
1.49973e-07
1.31942e-06
1.42988e-07
1.26066e-06
1.34502e-07
1.20342e-06
1.23901e-07
1.14717e-06
1.13106e-07
1.09148e-06
1.0367e-07
1.03647e-06
9.58982e-08
9.83223e-07
8.90838e-08
9.32413e-07
8.26904e-08
8.81538e-07
8.09719e-08
7.8727e-08
8.21506e-07
1.75536e-06
2.39032e-07
1.75796e-06
1.80118e-07
1.74404e-06
1.78116e-07
1.73106e-06
1.64255e-07
1.72492e-06
1.62231e-07
1.7194e-06
1.65441e-07
1.70908e-06
1.66741e-07
1.69351e-06
1.65546e-07
1.67482e-06
1.61678e-07
1.655e-06
1.54324e-07
1.63458e-06
1.44312e-07
1.61313e-06
1.34562e-07
1.58955e-06
1.27252e-07
1.56354e-06
1.21903e-07
1.53498e-06
1.17647e-07
1.50432e-06
1.13348e-07
1.47216e-06
1.13131e-07
1.14917e-07
1.43597e-06
1.92327e-06
2.91446e-07
1.89032e-06
2.13067e-07
1.87692e-06
1.91511e-07
1.86444e-06
1.76743e-07
1.85964e-06
1.67024e-07
1.85767e-06
1.67416e-07
1.85243e-06
1.71975e-07
1.84525e-06
1.7273e-07
1.83982e-06
1.67106e-07
1.83709e-06
1.57059e-07
1.83486e-06
1.46542e-07
1.83071e-06
1.38711e-07
1.82316e-06
1.34799e-07
1.81218e-06
1.32886e-07
1.79842e-06
1.31407e-07
1.78264e-06
1.29122e-07
1.76716e-06
1.28611e-07
1.30367e-07
1.75171e-06
2.05772e-06
2.43175e-07
2.06852e-06
2.02264e-07
2.0521e-06
2.07937e-07
2.03426e-06
1.94578e-07
2.02119e-06
1.80098e-07
2.00675e-06
1.81858e-07
1.99141e-06
1.8731e-07
1.98074e-06
1.83397e-07
1.97743e-06
1.70421e-07
1.97928e-06
1.55207e-07
1.98211e-06
1.43711e-07
1.98277e-06
1.38057e-07
1.98018e-06
1.37381e-07
1.97445e-06
1.38618e-07
1.9665e-06
1.39361e-07
1.95689e-06
1.38734e-07
1.94747e-06
1.3803e-07
1.3873e-07
1.9391e-06
2.24652e-06
2.86706e-07
2.21183e-06
2.3695e-07
2.19592e-06
2.23849e-07
2.1805e-06
2.09999e-07
2.16521e-06
1.95388e-07
2.15186e-06
1.95207e-07
2.14202e-06
1.97148e-07
2.13648e-06
1.8894e-07
2.13426e-06
1.72637e-07
2.13344e-06
1.56023e-07
2.13263e-06
1.4452e-07
2.13131e-06
1.39384e-07
2.12961e-06
1.39083e-07
2.12738e-06
1.40844e-07
2.1244e-06
1.42344e-07
2.12017e-06
1.4296e-07
2.115e-06
1.43197e-07
1.44296e-07
2.10944e-06
2.37587e-06
3.3683e-07
2.35071e-06
2.62103e-07
2.34169e-06
2.3287e-07
2.3344e-06
2.17295e-07
2.32439e-06
2.05396e-07
2.31603e-06
2.03562e-07
2.31221e-06
2.00971e-07
2.31207e-06
1.89074e-07
2.31305e-06
1.71666e-07
2.31318e-06
1.55888e-07
2.31187e-06
1.45828e-07
2.30931e-06
1.41951e-07
2.30585e-06
1.42536e-07
2.30153e-06
1.45171e-07
2.2962e-06
1.47667e-07
2.2898e-06
1.49362e-07
2.28277e-06
1.50223e-07
1.51073e-07
2.276e-06
2.54019e-06
3.73592e-07
2.53554e-06
2.66759e-07
2.538e-06
2.3041e-07
2.52725e-06
2.28041e-07
2.50509e-06
2.27556e-07
2.48503e-06
2.23622e-07
2.47454e-06
2.11458e-07
2.47286e-06
1.90757e-07
2.47591e-06
1.68616e-07
2.48029e-06
1.51509e-07
2.48428e-06
1.41841e-07
2.48725e-06
1.38979e-07
2.48896e-06
1.40828e-07
2.48915e-06
1.44983e-07
2.48751e-06
1.493e-07
2.48419e-06
1.52686e-07
2.47955e-06
1.54859e-07
1.56007e-07
2.47462e-06
2.74494e-06
4.0606e-07
2.74508e-06
2.66626e-07
2.73299e-06
2.42495e-07
2.71323e-06
2.47801e-07
2.69459e-06
2.46201e-07
2.68417e-06
2.34042e-07
2.68327e-06
2.12352e-07
2.6872e-06
1.86827e-07
2.69081e-06
1.65007e-07
2.69174e-06
1.50576e-07
2.69033e-06
1.43251e-07
2.68806e-06
1.41257e-07
2.68618e-06
1.42704e-07
2.68511e-06
1.46052e-07
2.68463e-06
1.49784e-07
2.68422e-06
1.53093e-07
2.68359e-06
1.5549e-07
1.57136e-07
2.68246e-06
2.94958e-06
4.6989e-07
2.93578e-06
2.80428e-07
2.91019e-06
2.68086e-07
2.88767e-06
2.70323e-07
2.87529e-06
2.58573e-07
2.86967e-06
2.39664e-07
2.86852e-06
2.13504e-07
2.87226e-06
1.83086e-07
2.88163e-06
1.55639e-07
2.89455e-06
1.37656e-07
2.90614e-06
1.31658e-07
2.91155e-06
1.35847e-07
2.90888e-06
1.45379e-07
2.89944e-06
1.55491e-07
2.88692e-06
1.62304e-07
2.87479e-06
1.65223e-07
2.86598e-06
1.643e-07
1.62027e-07
2.86109e-06
3.16078e-06
3.96219e-07
3.14934e-06
2.91867e-07
3.13122e-06
2.86205e-07
3.12514e-06
2.76401e-07
3.12741e-06
2.56309e-07
3.1317e-06
2.35369e-07
3.13455e-06
2.1066e-07
3.13549e-06
1.82146e-07
3.1353e-06
1.55823e-07
3.13374e-06
1.39221e-07
3.12955e-06
1.35839e-07
3.12192e-06
1.43484e-07
3.11118e-06
1.56113e-07
3.09891e-06
1.67764e-07
3.08726e-06
1.73954e-07
3.07786e-06
1.74628e-07
3.07167e-06
1.70489e-07
1.65105e-07
3.06859e-06
2.85486e-06
3.95624e-07
2.85025e-06
2.96468e-07
2.83776e-06
2.98703e-07
2.82481e-06
2.89351e-07
2.80779e-06
2.7332e-07
2.79279e-06
2.50373e-07
2.7862e-06
2.17252e-07
2.78793e-06
1.80411e-07
2.79341e-06
1.50345e-07
2.79805e-06
1.34586e-07
2.7995e-06
1.3439e-07
2.7979e-06
1.45086e-07
2.79471e-06
1.59295e-07
2.79158e-06
1.70897e-07
2.7894e-06
1.76138e-07
2.78865e-06
1.75377e-07
2.78927e-06
1.69869e-07
1.63081e-07
2.79129e-06
3.49375e-06
3.71108e-07
3.46589e-06
3.24319e-07
3.44497e-06
3.19631e-07
3.43926e-06
2.95062e-07
3.44794e-06
2.64638e-07
3.4629e-06
2.35409e-07
3.47338e-06
2.06775e-07
3.47261e-06
1.81184e-07
3.46094e-06
1.62014e-07
3.44398e-06
1.5154e-07
3.42884e-06
1.49533e-07
3.42049e-06
1.53434e-07
3.42034e-06
1.59448e-07
3.4269e-06
1.64338e-07
3.43701e-06
1.66029e-07
3.44778e-06
1.64603e-07
3.4567e-06
1.60945e-07
1.56593e-07
3.46319e-06
4.25203e-06
4.3525e-07
4.22994e-06
3.46408e-07
4.23384e-06
3.15731e-07
4.24965e-06
2.79259e-07
4.26499e-06
2.49291e-07
4.27358e-06
2.26819e-07
4.27361e-06
2.06753e-07
4.26641e-06
1.88384e-07
4.25449e-06
1.73928e-07
4.24097e-06
1.6506e-07
4.22954e-06
1.60961e-07
4.22343e-06
1.59544e-07
4.22416e-06
1.58727e-07
4.23088e-06
1.57618e-07
4.2409e-06
1.56008e-07
4.25132e-06
1.54183e-07
4.25959e-06
1.52676e-07
1.51514e-07
4.26466e-06
5.20083e-06
4.12016e-07
5.18631e-06
3.60932e-07
5.18771e-06
3.14329e-07
5.195e-06
2.71974e-07
5.18488e-06
2.59403e-07
5.15674e-06
2.54968e-07
5.12451e-06
2.38974e-07
5.10083e-06
2.12067e-07
5.09028e-06
1.84478e-07
5.09179e-06
1.63548e-07
5.1026e-06
1.50156e-07
5.12014e-06
1.41998e-07
5.14196e-06
1.36907e-07
5.16554e-06
1.34044e-07
5.18814e-06
1.33409e-07
5.2075e-06
1.34824e-07
5.22223e-06
1.37942e-07
1.42018e-07
5.23173e-06
6.35792e-06
3.78934e-07
6.33989e-06
3.78959e-07
6.33412e-06
3.20101e-07
6.32652e-06
2.79575e-07
6.31411e-06
2.71816e-07
6.30089e-06
2.68188e-07
6.28817e-06
2.51686e-07
6.27743e-06
2.22815e-07
6.2717e-06
1.90207e-07
6.27376e-06
1.61484e-07
6.28399e-06
1.39924e-07
6.30037e-06
1.2562e-07
6.31992e-06
1.17356e-07
6.34008e-06
1.13889e-07
6.35952e-06
1.13967e-07
6.37769e-06
1.16654e-07
6.39491e-06
1.20723e-07
1.25515e-07
6.41141e-06
7.77956e-06
3.70497e-07
7.76298e-06
3.95532e-07
7.71724e-06
3.65846e-07
7.68101e-06
3.15801e-07
7.67292e-06
2.79913e-07
7.68754e-06
2.53561e-07
7.70823e-06
2.30997e-07
7.72471e-06
2.06342e-07
7.73695e-06
1.7796e-07
7.74946e-06
1.48974e-07
7.76496e-06
1.24423e-07
7.78235e-06
1.08236e-07
7.7983e-06
1.01409e-07
7.80969e-06
1.0249e-07
7.81543e-06
1.08234e-07
7.81654e-06
1.15542e-07
7.81533e-06
1.21929e-07
1.26108e-07
7.81474e-06
9.30536e-06
3.98552e-07
9.35773e-06
3.4317e-07
9.39807e-06
3.25504e-07
9.43398e-06
2.79891e-07
9.47626e-06
2.37629e-07
9.51457e-06
2.15257e-07
9.53931e-06
2.06254e-07
9.54811e-06
1.97537e-07
9.5452e-06
1.80868e-07
9.53794e-06
1.56236e-07
9.53305e-06
1.2932e-07
9.53495e-06
1.06331e-07
9.54533e-06
9.10266e-08
9.56382e-06
8.40014e-08
9.58839e-06
8.36657e-08
9.61623e-06
8.77049e-08
9.64456e-06
9.35959e-08
1.00331e-07
9.67034e-06
1.13007e-05
3.33798e-07
1.12976e-05
3.46308e-07
1.12944e-05
3.28653e-07
1.13092e-05
2.65119e-07
1.13613e-05
1.85568e-07
1.14471e-05
1.2945e-07
1.15446e-05
1.08733e-07
1.16335e-05
1.08626e-07
1.17021e-05
1.12284e-07
1.17455e-05
1.1283e-07
1.17646e-05
1.10217e-07
1.17652e-05
1.05722e-07
1.17564e-05
9.97978e-08
1.17477e-05
9.27811e-08
1.17465e-05
8.48608e-08
1.17567e-05
7.74521e-08
1.17795e-05
7.08184e-08
6.66931e-08
1.18131e-05
8.33711e-06
3.45153e-07
8.42288e-06
2.60536e-07
8.48613e-06
2.654e-07
8.50903e-06
2.4222e-07
8.51933e-06
1.75267e-07
8.53246e-06
1.16323e-07
8.55271e-06
8.84796e-08
8.57527e-06
8.60662e-08
8.59495e-06
9.26028e-08
8.61165e-06
9.61343e-08
8.62837e-06
9.34916e-08
8.64739e-06
8.67043e-08
8.66856e-06
7.86295e-08
8.68973e-06
7.16123e-08
8.70839e-06
6.62006e-08
8.72348e-06
6.23573e-08
8.73511e-06
5.91953e-08
5.63572e-08
8.74544e-06
7.47546e-06
4.6278e-07
7.44131e-06
2.94686e-07
7.46048e-06
2.46224e-07
7.49045e-06
2.12256e-07
7.49054e-06
1.75176e-07
7.46038e-06
1.46478e-07
7.42475e-06
1.24112e-07
7.4064e-06
1.04416e-07
7.41274e-06
8.62659e-08
7.43952e-06
6.93502e-08
7.47921e-06
5.38038e-08
7.52538e-06
4.05317e-08
7.57338e-06
3.06292e-08
7.62005e-06
2.495e-08
7.66288e-06
2.33626e-08
7.70032e-06
2.49212e-08
7.73132e-06
2.81929e-08
3.16113e-08
7.75607e-06
6.32961e-06
4.02209e-07
6.3672e-06
2.57093e-07
6.42985e-06
1.83577e-07
6.49789e-06
1.44207e-07
6.5468e-06
1.26266e-07
6.57491e-06
1.18377e-07
6.59522e-06
1.03797e-07
6.62031e-06
7.93283e-08
6.653e-06
5.35727e-08
6.68723e-06
3.51199e-08
6.71463e-06
2.64034e-08
6.73044e-06
2.47209e-08
6.73532e-06
2.57521e-08
6.73361e-06
2.66557e-08
6.73067e-06
2.63113e-08
6.73035e-06
2.52336e-08
6.73471e-06
2.38357e-08
2.27951e-08
6.74353e-06
5.53745e-06
3.77254e-07
5.58706e-06
2.07481e-07
5.62858e-06
1.42059e-07
5.64557e-06
1.27218e-07
5.65712e-06
1.14711e-07
5.68503e-06
9.04697e-08
5.72757e-06
6.12559e-08
5.77133e-06
3.55746e-08
5.80575e-06
1.91469e-08
5.82807e-06
1.28039e-08
5.84037e-06
1.4099e-08
5.84625e-06
1.88401e-08
5.84898e-06
2.30262e-08
5.85097e-06
2.46688e-08
5.85404e-06
2.32423e-08
5.85942e-06
1.98443e-08
5.86786e-06
1.54043e-08
1.09725e-08
5.87968e-06
4.84068e-06
4.11634e-07
4.9089e-06
1.39257e-07
4.96337e-06
8.75938e-08
5.00098e-06
8.96024e-08
5.02748e-06
8.82116e-08
5.04683e-06
7.11227e-08
5.06427e-06
4.38149e-08
5.08115e-06
1.86923e-08
5.09657e-06
3.72344e-09
5.11006e-06
-6.80729e-10
5.12171e-06
2.44856e-09
5.13298e-06
7.57347e-09
5.1445e-06
1.14974e-08
5.15621e-06
1.29652e-08
5.16747e-06
1.19764e-08
5.178e-06
9.31811e-09
5.18772e-06
5.68625e-09
1.61862e-09
5.19707e-06
4.27905e-06
3.63717e-07
4.2839e-06
1.3441e-07
4.31405e-06
5.74394e-08
4.37031e-06
3.33499e-08
4.43067e-06
2.78471e-08
4.47329e-06
2.85008e-08
4.49322e-06
2.38895e-08
4.49968e-06
1.22334e-08
4.5032e-06
1.97485e-10
4.51111e-06
-8.59213e-09
4.52379e-06
-1.02234e-08
4.53919e-06
-7.83415e-09
4.55536e-06
-4.66394e-09
4.57138e-06
-3.06144e-09
4.58714e-06
-3.78231e-09
4.60261e-06
-6.14685e-09
4.61752e-06
-9.22955e-09
-1.18771e-08
4.63102e-06
3.73972e-06
3.59078e-07
3.80338e-06
7.07567e-08
3.84676e-06
1.40566e-08
3.86754e-06
1.25668e-08
3.88398e-06
1.14065e-08
3.89883e-06
1.36531e-08
3.91181e-06
1.09145e-08
3.92596e-06
-1.92522e-09
3.94287e-06
-1.671e-08
3.96191e-06
-2.76331e-08
3.98238e-06
-3.06928e-08
4.00246e-06
-2.79079e-08
4.02052e-06
-2.27276e-08
4.03558e-06
-1.81238e-08
4.04742e-06
-1.56191e-08
4.05638e-06
-1.51118e-08
4.06314e-06
-1.59898e-08
-1.7136e-08
4.0684e-06
3.30083e-06
2.69436e-07
3.31138e-06
6.01991e-08
3.32965e-06
-4.2093e-09
3.36619e-06
-2.39715e-08
3.39951e-06
-2.19141e-08
3.42114e-06
-7.97528e-09
3.43439e-06
-2.33504e-09
3.44422e-06
-1.17634e-08
3.45394e-06
-2.64241e-08
3.4647e-06
-3.83973e-08
3.47769e-06
-4.36795e-08
3.49303e-06
-4.32488e-08
3.50995e-06
-3.96468e-08
3.52692e-06
-3.50928e-08
3.54222e-06
-3.09216e-08
3.55465e-06
-2.75414e-08
3.56351e-06
-2.48509e-08
-2.28287e-08
3.5692e-06
2.89536e-06
1.53732e-07
2.94318e-06
1.23835e-08
2.95096e-06
-1.19946e-08
2.96785e-06
-4.08606e-08
2.99143e-06
-4.549e-08
3.01599e-06
-3.25382e-08
3.03846e-06
-2.48051e-08
3.0566e-06
-2.99016e-08
3.07014e-06
-3.99676e-08
3.07938e-06
-4.76362e-08
3.08617e-06
-5.04671e-08
3.09257e-06
-4.96491e-08
3.09987e-06
-4.69422e-08
3.10826e-06
-4.34835e-08
3.11726e-06
-3.99205e-08
3.12627e-06
-3.65515e-08
3.1349e-06
-3.34834e-08
-3.08996e-08
3.14297e-06
2.53049e-06
7.52013e-08
2.57271e-06
-2.98407e-08
2.5865e-06
-2.57863e-08
2.5961e-06
-5.04567e-08
2.60839e-06
-5.77815e-08
2.6282e-06
-5.23492e-08
2.65332e-06
-4.99179e-08
2.67576e-06
-5.23431e-08
2.68828e-06
-5.24938e-08
2.68808e-06
-4.74372e-08
2.67758e-06
-3.99586e-08
2.66223e-06
-3.43057e-08
2.64757e-06
-3.22826e-08
2.63698e-06
-3.28935e-08
2.63124e-06
-3.41821e-08
2.62939e-06
-3.47017e-08
2.62994e-06
-3.40241e-08
-3.25207e-08
2.63156e-06
2.1748e-06
2.14496e-06
2.11917e-06
2.06872e-06
2.01094e-06
1.95859e-06
1.90867e-06
1.85633e-06
1.80383e-06
1.7564e-06
1.71644e-06
1.68213e-06
1.64985e-06
1.61695e-06
1.58277e-06
1.54807e-06
1.51405e-06
1.48153e-06
-2.1077e-07
2.1077e-07
-4.02832e-07
1.92062e-07
-5.19756e-07
1.16924e-07
-5.32596e-07
1.28398e-08
-4.50402e-07
-8.21942e-08
-2.98425e-07
-1.51976e-07
-1.1547e-07
-1.82955e-07
6.34277e-08
-1.78898e-07
2.08455e-07
-1.45028e-07
2.94578e-07
-8.61222e-08
3.16219e-07
-2.16414e-08
3.07467e-07
8.75244e-09
2.99227e-07
8.23977e-09
3.25843e-07
-2.66158e-08
3.74319e-07
-4.84766e-08
4.19588e-07
-4.52692e-08
4.80528e-07
-6.09399e-08
5.74397e-07
-9.38684e-08
6.89856e-07
-1.15459e-07
8.07195e-07
-1.17339e-07
9.13013e-07
-1.05818e-07
9.78191e-07
-6.51776e-08
9.80017e-07
-1.82593e-09
9.29737e-07
5.02794e-08
8.4256e-07
8.71775e-08
7.08309e-07
1.34251e-07
4.8077e-07
2.27539e-07
1.75913e-07
3.04856e-07
-1.29309e-07
3.05222e-07
-4.27109e-07
2.978e-07
-7.4467e-07
3.17562e-07
-1.09223e-06
3.47556e-07
-1.46392e-06
3.71692e-07
-1.83975e-06
3.75832e-07
-2.19975e-06
3.59999e-07
-2.53068e-06
3.3093e-07
-2.82864e-06
2.97958e-07
-3.09545e-06
2.66811e-07
-3.33465e-06
2.39198e-07
-3.5495e-06
2.14855e-07
-3.74237e-06
1.92868e-07
-3.91467e-06
1.72299e-07
-4.06694e-06
1.52271e-07
-4.19905e-06
1.32107e-07
-4.31035e-06
1.11302e-07
-4.39992e-06
8.95716e-08
-4.46672e-06
6.68047e-08
-4.50976e-06
4.30402e-08
-4.52826e-06
1.84937e-08
-4.52196e-06
-6.29755e-09
-4.49071e-06
-3.12494e-08
-4.43436e-06
-5.635e-08
-4.35268e-06
-8.16831e-08
-4.24548e-06
-1.07201e-07
-4.11285e-06
-1.32625e-07
-3.95525e-06
-1.57603e-07
-3.77353e-06
-1.81722e-07
-3.5689e-06
-2.04627e-07
-3.34276e-06
-2.26139e-07
-3.09633e-06
-2.46431e-07
-2.83017e-06
-2.66159e-07
-2.54366e-06
-2.86507e-07
-2.23454e-06
-3.09124e-07
-1.8986e-06
-3.3594e-07
-1.53005e-06
-3.68553e-07
-1.12368e-06
-4.06363e-07
-6.78279e-07
-4.45404e-07
-2.02303e-07
-4.75976e-07
2.76505e-07
-4.78807e-07
6.96753e-07
-4.20248e-07
7.87194e-07
-9.04414e-08
4.52868e-07
3.34326e-07
1.96027e-08
4.33265e-07
-2.58817e-07
2.78419e-07
-4.09287e-07
1.5047e-07
-5.07393e-07
9.81058e-08
-5.92437e-07
8.50437e-08
-6.33928e-07
4.14912e-08
-5.94969e-07
-3.89583e-08
-4.65551e-07
-1.29418e-07
-2.03238e-07
-2.62314e-07
2.55083e-07
-4.58321e-07
9.23405e-07
-6.68321e-07
1.63381e-06
-7.10408e-07
2.22768e-06
-5.93864e-07
2.63431e-06
-4.06629e-07
2.60146e-06
3.28473e-08
2.00539e-06
5.96068e-07
1.28673e-06
7.18663e-07
8.85428e-07
4.01299e-07
9.1947e-07
-3.40421e-08
1.09374e-06
-1.74266e-07
1.0532e-06
4.05378e-08
6.49022e-07
4.04176e-07
-5.04557e-08
6.99478e-07
-8.07773e-07
7.57317e-07
-1.5045e-06
6.96728e-07
-2.10881e-06
6.04306e-07
-2.62143e-06
5.12624e-07
-3.0539e-06
4.32472e-07
-3.42006e-06
3.66154e-07
-3.73208e-06
3.12024e-07
-3.99913e-06
2.67048e-07
-4.22718e-06
2.2805e-07
-4.41903e-06
1.91847e-07
-4.57474e-06
1.55713e-07
-4.69277e-06
1.18028e-07
-4.7713e-06
7.85313e-08
-4.80879e-06
3.74965e-08
-4.80407e-06
-4.72481e-09
-4.75897e-06
-4.50967e-08
-4.67458e-06
-8.43954e-08
-4.55261e-06
-1.21968e-07
-4.39593e-06
-1.56676e-07
-4.2081e-06
-1.87839e-07
-3.99275e-06
-2.15348e-07
-3.75374e-06
-2.39009e-07
-3.49471e-06
-2.59024e-07
-3.21894e-06
-2.75779e-07
-2.92924e-06
-2.89695e-07
-2.62809e-06
-3.01148e-07
-2.31772e-06
-3.10369e-07
-2.00047e-06
-3.17255e-07
-1.6791e-06
-3.21373e-07
-1.35691e-06
-3.22181e-07
-1.03781e-06
-3.19102e-07
-7.25751e-07
-3.12061e-07
-4.24545e-07
-3.01206e-07
-1.37657e-07
-2.86887e-07
1.35045e-07
-2.72702e-07
3.9225e-07
-2.57205e-07
6.34502e-07
-2.42252e-07
8.63039e-07
-2.28537e-07
1.07927e-06
-2.1623e-07
1.28434e-06
-2.05068e-07
1.47892e-06
-1.94579e-07
1.66319e-06
-1.84271e-07
1.8367e-06
-1.73514e-07
1.99837e-06
-1.61672e-07
2.14667e-06
-1.48292e-07
2.27903e-06
-1.32367e-07
2.3921e-06
-1.13064e-07
2.48295e-06
-9.08564e-08
2.548e-06
-6.50431e-08
2.58074e-06
-3.27423e-08
2.57574e-06
4.99795e-09
2.53223e-06
4.35097e-08
2.4536e-06
7.86298e-08
2.34393e-06
1.09675e-07
2.20635e-06
1.37579e-07
2.0415e-06
1.64847e-07
1.84901e-06
1.92492e-07
1.63063e-06
2.18382e-07
1.39406e-06
2.36568e-07
1.15616e-06
2.37902e-07
9.39395e-07
2.16762e-07
7.62437e-07
1.76958e-07
6.33879e-07
1.28558e-07
5.50769e-07
8.31106e-08
5.03612e-07
4.71572e-08
4.81763e-07
2.18491e-08
4.76255e-07
5.5071e-09
4.80247e-07
-3.9915e-09
4.89122e-07
-8.87492e-09
5.00105e-07
-1.09829e-08
5.11516e-07
-1.1411e-08
5.2239e-07
-1.08743e-08
5.32298e-07
-9.90746e-09
5.40846e-07
-8.54881e-09
5.47993e-07
-7.14668e-09
5.53155e-07
-5.16142e-09
5.56533e-07
-3.37813e-09
5.56555e-07
-2.18593e-11
5.54376e-07
2.17851e-09
5.45908e-07
8.46753e-09
5.35701e-07
1.02079e-08
5.11974e-07
2.37261e-08
4.91976e-07
1.99988e-08
4.38524e-07
5.34517e-08
3.14885e-08
4.07036e-07
-1.29755e-07
3.40525e-07
-2.57136e-07
3.19443e-07
-3.36406e-07
1.96193e-07
-3.17294e-07
-6.27181e-09
-2.04245e-07
-1.95243e-07
-3.11532e-08
-3.25068e-07
1.61262e-07
-3.7537e-07
3.40686e-07
-3.58322e-07
4.86816e-07
-2.91158e-07
5.93504e-07
-1.92809e-07
6.56908e-07
-8.50454e-08
6.4548e-07
2.01804e-08
5.49329e-07
1.0439e-07
4.26834e-07
9.58792e-08
3.55102e-07
2.32555e-08
3.55282e-07
-4.545e-08
4.08422e-07
-1.14079e-07
4.83884e-07
-1.69331e-07
5.34419e-07
-1.65994e-07
5.2245e-07
-1.0537e-07
4.30613e-07
-1.39807e-08
2.70927e-07
9.45078e-08
4.48611e-08
2.2424e-07
-2.45301e-07
3.40441e-07
-5.77991e-07
4.19868e-07
-9.18685e-07
4.74945e-07
-1.21574e-06
5.24598e-07
-1.48639e-06
5.75498e-07
-1.78633e-06
6.05164e-07
-2.11724e-06
6.28715e-07
-2.44373e-06
6.44054e-07
-2.74341e-06
6.47235e-07
-3.0079e-06
6.36174e-07
-3.24222e-06
6.10154e-07
-3.45461e-06
5.72389e-07
-3.65213e-06
5.28452e-07
-3.83787e-06
4.83698e-07
-4.01189e-06
4.40826e-07
-4.17343e-06
4.00737e-07
-4.32172e-06
3.63153e-07
-4.45621e-06
3.2735e-07
-4.57638e-06
2.92472e-07
-4.6818e-06
2.57688e-07
-4.77198e-06
2.2229e-07
-4.84636e-06
1.85684e-07
-4.90423e-06
1.47437e-07
-4.94487e-06
1.07446e-07
-4.96745e-06
6.5621e-08
-4.97044e-06
2.1481e-08
-4.95264e-06
-2.40903e-08
-4.91275e-06
-7.11476e-08
-4.84907e-06
-1.20023e-07
-4.76071e-06
-1.70043e-07
-4.64735e-06
-2.20567e-07
-4.50912e-06
-2.70857e-07
-4.34668e-06
-3.20036e-07
-4.16127e-06
-3.67131e-07
-3.95464e-06
-4.11261e-07
-3.72887e-06
-4.51907e-07
-3.48607e-06
-4.89229e-07
-3.22793e-06
-5.24299e-07
-2.95522e-06
-5.5922e-07
-2.66722e-06
-5.9713e-07
-2.36128e-06
-6.41875e-07
-2.03284e-06
-6.96989e-07
-1.67553e-06
-7.63681e-07
-1.28427e-06
-8.36665e-07
-8.64948e-07
-8.95294e-07
-4.50132e-07
-8.93623e-07
-1.03292e-07
-7.67087e-07
1.65372e-07
-3.59106e-07
2.79411e-07
2.20288e-07
2.75033e-07
4.37643e-07
2.22708e-07
3.30744e-07
2.06071e-07
1.67108e-07
2.14292e-07
8.98849e-08
2.14343e-07
8.49923e-08
1.93523e-07
6.23112e-08
1.61625e-07
-7.06009e-09
1.59375e-07
-1.27169e-07
2.37422e-07
-3.40361e-07
4.74902e-07
-6.95801e-07
9.37056e-07
-1.13048e-06
1.55709e-06
-1.33044e-06
2.09106e-06
-1.12784e-06
2.39556e-06
-7.11131e-07
2.52203e-06
-9.36212e-08
2.38155e-06
7.36554e-07
1.91892e-06
1.18128e-06
1.56888e-06
7.51345e-07
1.32736e-06
2.07473e-07
7.76325e-07
3.76772e-07
-8.19772e-08
8.9884e-07
-9.58437e-07
1.28064e-06
-1.66304e-06
1.40408e-06
-2.2306e-06
1.32488e-06
-2.69802e-06
1.16414e-06
-3.08312e-06
9.89411e-07
-3.40248e-06
8.31984e-07
-3.6711e-06
7.01096e-07
-3.9009e-06
5.95952e-07
-4.10011e-06
5.11228e-07
-4.2738e-06
4.40736e-07
-4.42492e-06
3.79178e-07
-4.55357e-06
3.20496e-07
-4.6584e-06
2.60545e-07
-4.73718e-06
1.96805e-07
-4.78682e-06
1.2817e-07
-4.80412e-06
5.47953e-08
-4.78659e-06
-2.2249e-08
-4.73127e-06
-1.0042e-07
-4.63754e-06
-1.78127e-07
-4.50681e-06
-2.52699e-07
-4.34146e-06
-3.22019e-07
-4.14461e-06
-3.84696e-07
-3.91992e-06
-4.4003e-07
-3.671e-06
-4.87929e-07
-3.40128e-06
-5.28751e-07
-3.11388e-06
-5.63175e-07
-2.81157e-06
-5.92011e-07
-2.49672e-06
-6.15992e-07
-2.17155e-06
-6.35543e-07
-1.8383e-06
-6.50498e-07
-1.49972e-06
-6.59956e-07
-1.1592e-06
-6.62701e-07
-8.20811e-07
-6.57494e-07
-4.88964e-07
-6.43908e-07
-1.67839e-07
-6.22331e-07
1.39808e-07
-5.94534e-07
4.31567e-07
-5.64462e-07
7.07155e-07
-5.32793e-07
9.67282e-07
-5.02378e-07
1.2133e-06
-4.74559e-07
1.44664e-06
-4.49566e-07
1.66835e-06
-4.26777e-07
1.87895e-06
-4.05181e-07
2.07833e-06
-3.83654e-07
2.26587e-06
-3.61054e-07
2.44051e-06
-3.36312e-07
2.60041e-06
-3.08191e-07
2.74336e-06
-2.75317e-07
2.86694e-06
-2.36647e-07
2.96763e-06
-1.9154e-07
3.0423e-06
-1.39714e-07
3.09134e-06
-8.1785e-08
3.11516e-06
-1.88168e-08
3.11381e-06
4.48594e-08
3.08452e-06
1.07912e-07
3.02647e-06
1.67724e-07
2.94089e-06
2.23168e-07
2.83149e-06
2.7424e-07
2.70449e-06
3.19492e-07
2.56583e-06
3.57049e-07
2.41861e-06
3.83784e-07
2.26487e-06
3.91644e-07
2.10932e-06
3.72314e-07
1.96019e-06
3.26086e-07
1.82729e-06
2.6146e-07
1.71717e-06
1.93224e-07
1.63224e-06
1.32088e-07
1.57131e-06
8.27844e-08
1.53072e-06
4.6094e-08
1.50602e-06
2.07078e-08
1.49252e-06
4.63002e-09
1.48588e-06
-4.34621e-09
1.48281e-06
-8.34532e-09
1.4811e-06
-9.16087e-09
1.47966e-06
-8.47128e-09
1.47803e-06
-6.91865e-09
1.47636e-06
-5.47355e-09
1.47436e-06
-3.15762e-09
1.47233e-06
-1.34797e-09
1.46893e-06
3.37505e-09
1.4649e-06
6.21085e-09
1.45708e-06
1.62872e-08
1.44809e-06
1.91927e-08
1.43159e-06
4.02331e-08
1.41314e-06
3.84463e-08
1.38295e-06
8.3635e-08
6.90989e-08
1.34534e-06
6.71167e-08
2.73408e-07
6.03365e-08
3.26223e-07
8.52688e-08
1.71261e-07
1.89031e-07
-1.10034e-07
3.57413e-07
-3.63625e-07
5.36369e-07
-5.04023e-07
6.90808e-07
-5.29809e-07
8.05599e-07
-4.73114e-07
8.79081e-07
-3.6464e-07
9.13328e-07
-2.27056e-07
9.06084e-07
-7.78017e-08
8.64093e-07
6.21712e-08
7.77586e-07
1.90898e-07
6.12612e-07
2.60853e-07
4.29758e-07
2.06109e-07
3.05637e-07
7.86708e-08
2.18548e-07
-2.69899e-08
9.9409e-08
-5.01923e-08
-8.73904e-08
2.0805e-08
-3.31283e-07
1.38523e-07
-6.1479e-07
2.69527e-07
-9.09208e-07
3.88926e-07
-1.18024e-06
4.95271e-07
-1.42502e-06
5.85217e-07
-1.66542e-06
6.60278e-07
-1.91335e-06
7.22869e-07
-2.16234e-06
7.73593e-07
-2.39618e-06
8.09331e-07
-2.62365e-06
8.32638e-07
-2.83956e-06
8.44624e-07
-3.03799e-06
8.42485e-07
-3.21751e-06
8.26749e-07
-3.38e-06
7.98669e-07
-3.5305e-06
7.60652e-07
-3.67492e-06
7.16813e-07
-3.81721e-06
6.7074e-07
-3.95818e-06
6.24664e-07
-4.09692e-06
5.79572e-07
-4.23188e-06
5.357e-07
-4.3613e-06
4.92572e-07
-4.48341e-06
4.49456e-07
-4.59648e-06
4.0554e-07
-4.69887e-06
3.60077e-07
-4.78896e-06
3.12381e-07
-4.86515e-06
2.61882e-07
-4.92591e-06
2.08196e-07
-4.96955e-06
1.51086e-07
-4.99442e-06
9.04837e-08
-4.99996e-06
2.70221e-08
-4.98353e-06
-4.0517e-08
-4.94364e-06
-1.11039e-07
-4.88009e-06
-1.83575e-07
-4.79221e-06
-2.57917e-07
-4.67951e-06
-3.33273e-07
-4.54193e-06
-4.08434e-07
-4.38021e-06
-4.81759e-07
-4.19603e-06
-5.51311e-07
-3.99214e-06
-6.15145e-07
-3.77229e-06
-6.71759e-07
-3.5409e-06
-7.20622e-07
-3.30261e-06
-7.62582e-07
-3.06179e-06
-8.00039e-07
-2.8221e-06
-8.36823e-07
-2.58614e-06
-8.77834e-07
-2.35491e-06
-9.28224e-07
-2.12646e-06
-9.92124e-07
-1.89489e-06
-1.06824e-06
-1.64858e-06
-1.1416e-06
-1.36521e-06
-1.177e-06
-1.04705e-06
-1.08525e-06
-6.42596e-07
-7.63558e-07
-1.86997e-07
-2.35311e-07
1.83924e-07
6.67215e-08
4.47895e-07
6.67737e-08
6.2729e-07
-1.22873e-08
8.01621e-07
-8.44457e-08
9.80989e-07
-9.4376e-08
1.12107e-06
-7.77684e-08
1.17109e-06
-5.70837e-08
1.11362e-06
-6.96941e-08
1.00404e-06
-2.30785e-07
9.72975e-07
-6.64734e-07
1.12054e-06
-1.27804e-06
1.4425e-06
-1.6524e-06
1.76972e-06
-1.45506e-06
1.93012e-06
-8.71525e-07
1.86273e-06
-2.62357e-08
1.61107e-06
9.88213e-07
1.40415e-06
1.38821e-06
1.24742e-06
9.08068e-07
6.38559e-07
8.16337e-07
-3.15448e-07
1.33078e-06
-1.16726e-06
1.75065e-06
-1.77497e-06
1.88835e-06
-2.18446e-06
1.81357e-06
-2.4857e-06
1.62612e-06
-2.73431e-06
1.41276e-06
-2.95956e-06
1.21466e-06
-3.17311e-06
1.04553e-06
-3.37845e-06
9.06436e-07
-3.57582e-06
7.93324e-07
-3.76437e-06
6.99782e-07
-3.94237e-06
6.18734e-07
-4.10665e-06
5.43451e-07
-4.25387e-06
4.67724e-07
-4.38007e-06
3.86741e-07
-4.48075e-06
2.97486e-07
-4.55124e-06
1.98656e-07
-4.587e-06
9.05626e-08
-4.58518e-06
-2.40713e-08
-4.54487e-06
-1.4073e-07
-4.46562e-06
-2.5738e-07
-4.34877e-06
-3.6955e-07
-4.19675e-06
-4.7404e-07
-4.01269e-06
-5.68758e-07
-3.80004e-06
-6.52677e-07
-3.56223e-06
-7.25738e-07
-3.30243e-06
-7.88553e-07
-3.02345e-06
-8.42154e-07
-2.72773e-06
-8.87729e-07
-2.41739e-06
-9.26334e-07
-2.09435e-06
-9.58582e-07
-1.7606e-06
-9.84253e-07
-1.41868e-06
-1.00187e-06
-1.07216e-06
-1.00922e-06
-7.25594e-07
-1.00406e-06
-3.84185e-07
-9.85317e-07
-5.27859e-08
-9.5373e-07
2.65721e-07
-9.13041e-07
5.68213e-07
-8.66954e-07
8.54986e-07
-8.19566e-07
1.1273e-06
-7.74691e-07
1.38712e-06
-7.34376e-07
1.63635e-06
-6.98796e-07
1.87626e-06
-6.66688e-07
2.1072e-06
-6.36119e-07
2.32859e-06
-6.05051e-07
2.53905e-06
-5.7151e-07
2.73634e-06
-5.33605e-07
2.91736e-06
-4.89211e-07
3.0781e-06
-4.36056e-07
3.21389e-06
-3.72431e-07
3.31967e-06
-2.97325e-07
3.3905e-06
-2.10546e-07
3.42334e-06
-1.14623e-07
3.41913e-06
-1.46039e-08
3.38232e-06
8.16646e-08
3.31916e-06
1.71071e-07
3.23727e-06
2.49618e-07
3.14322e-06
3.1722e-07
3.03907e-06
3.78387e-07
2.92482e-06
4.33746e-07
2.80453e-06
4.77332e-07
2.6869e-06
5.01418e-07
2.57734e-06
5.01201e-07
2.47432e-06
4.75335e-07
2.37476e-06
4.25647e-07
2.27794e-06
3.58283e-07
2.1865e-06
2.84664e-07
2.1043e-06
2.1428e-07
2.03454e-06
1.52547e-07
1.97892e-06
1.01717e-07
1.93753e-06
6.21011e-08
1.90916e-06
3.29995e-08
1.89152e-06
1.32866e-08
1.88182e-06
1.36186e-09
1.87726e-06
-4.60635e-09
1.87553e-06
-6.73577e-09
1.87483e-06
-6.2177e-09
1.87418e-06
-4.82495e-09
1.87288e-06
-1.8568e-09
1.87079e-06
7.35081e-10
1.86762e-06
6.54625e-09
1.86323e-06
1.05987e-08
1.85756e-06
2.19631e-08
1.84986e-06
2.68895e-08
1.84143e-06
4.86683e-08
1.82804e-06
5.18276e-08
1.81783e-06
9.3854e-08
9.4182e-08
1.79274e-06
8.62234e-08
1.87185e-07
2.10974e-07
2.01472e-07
4.48077e-07
-6.58412e-08
7.13365e-07
-3.75323e-07
9.25715e-07
-5.75975e-07
1.06145e-06
-6.39758e-07
1.13127e-06
-5.99627e-07
1.15036e-06
-4.9221e-07
1.13018e-06
-3.44454e-07
1.08091e-06
-1.77789e-07
1.00569e-06
-2.57851e-09
8.94938e-07
1.72921e-07
7.58425e-07
3.27411e-07
5.79172e-07
4.40107e-07
3.63708e-07
4.21573e-07
1.52574e-07
2.89805e-07
-6.57788e-08
1.91363e-07
-3.38605e-07
2.22634e-07
-6.46445e-07
3.28645e-07
-9.52672e-07
4.4475e-07
-1.23586e-06
5.52719e-07
-1.49437e-06
6.47431e-07
-1.72877e-06
7.29677e-07
-1.94342e-06
7.99859e-07
-2.1446e-06
8.61464e-07
-2.33699e-06
9.15259e-07
-2.5208e-06
9.57402e-07
-2.69612e-06
9.84651e-07
-2.86168e-06
9.98192e-07
-3.01663e-06
9.99575e-07
-3.16312e-06
9.88976e-07
-3.30402e-06
9.67655e-07
-3.44233e-06
9.36973e-07
-3.58063e-06
8.98948e-07
-3.71974e-06
8.55932e-07
-3.8592e-06
8.10191e-07
-3.99797e-06
7.63434e-07
-4.13488e-06
7.16491e-07
-4.26854e-06
6.69358e-07
-4.3972e-06
6.21234e-07
-4.51904e-06
5.71293e-07
-4.63221e-06
5.18704e-07
-4.73483e-06
4.627e-07
-4.82507e-06
4.02628e-07
-4.9012e-06
3.3801e-07
-4.96154e-06
2.68537e-07
-5.00453e-06
1.94073e-07
-5.02866e-06
1.14614e-07
-5.03164e-06
3.00045e-08
-5.01404e-06
-5.81221e-08
-4.9743e-06
-1.50778e-07
-4.91062e-06
-2.47252e-07
-4.8218e-06
-3.4674e-07
-4.70685e-06
-4.48219e-07
-4.56519e-06
-5.50098e-07
-4.39689e-06
-6.50054e-07
-4.20325e-06
-7.4496e-07
-3.98707e-06
-8.31319e-07
-3.75286e-06
-9.05968e-07
-3.50659e-06
-9.66892e-07
-3.25511e-06
-1.01407e-06
-3.00542e-06
-1.04973e-06
-2.76436e-06
-1.07788e-06
-2.53893e-06
-1.10326e-06
-2.33678e-06
-1.13037e-06
-2.16566e-06
-1.16325e-06
-2.02872e-06
-1.20518e-06
-1.915e-06
-1.25533e-06
-1.79686e-06
-1.29514e-06
-1.61268e-06
-1.26942e-06
-1.27783e-06
-1.09841e-06
-7.39633e-07
-7.73508e-07
-1.73441e-07
-4.9947e-07
3.08659e-07
-4.15326e-07
6.94435e-07
-3.98064e-07
9.83918e-07
-3.73929e-07
1.2205e-06
-3.30957e-07
1.43127e-06
-2.88544e-07
1.59485e-06
-2.20663e-07
1.63526e-06
-1.10103e-07
1.52493e-06
-1.20451e-07
1.36725e-06
-5.07055e-07
1.29829e-06
-1.20908e-06
1.35048e-06
-1.70459e-06
1.41925e-06
-1.52383e-06
1.33139e-06
-7.83667e-07
1.07566e-06
2.29492e-07
9.20996e-07
1.14288e-06
9.65615e-07
1.34359e-06
6.17932e-07
1.25575e-06
-2.31743e-07
1.66601e-06
-1.04447e-06
2.14351e-06
-1.5932e-06
2.29937e-06
-1.92558e-06
2.22074e-06
-2.13999e-06
2.02797e-06
-2.31622e-06
1.80235e-06
-2.49108e-06
1.58761e-06
-2.67431e-06
1.39789e-06
-2.86419e-06
1.23542e-06
-3.05646e-06
1.09871e-06
-3.24732e-06
9.84183e-07
-3.43395e-06
8.86408e-07
-3.61375e-06
7.98539e-07
-3.78352e-06
7.13218e-07
-3.93933e-06
6.23537e-07
-4.07656e-06
5.23968e-07
-4.19006e-06
4.10984e-07
-4.27469e-06
2.83288e-07
-4.32604e-06
1.41911e-07
-4.34029e-06
-9.81774e-09
-4.31566e-06
-1.65362e-07
-4.25215e-06
-3.20895e-07
-4.15124e-06
-4.70459e-07
-4.01564e-06
-6.09634e-07
-3.8487e-06
-7.35697e-07
-3.65386e-06
-8.47525e-07
-3.43427e-06
-9.45327e-07
-3.19263e-06
-1.03019e-06
-2.93112e-06
-1.10367e-06
-2.6514e-06
-1.16745e-06
-2.35481e-06
-1.22292e-06
-2.04259e-06
-1.2708e-06
-1.71622e-06
-1.31062e-06
-1.37803e-06
-1.34007e-06
-1.03196e-06
-1.35529e-06
-6.83625e-07
-1.35239e-06
-3.39669e-07
-1.32927e-06
-6.71143e-09
-1.28669e-06