/*--------------------------------*- C++ -*----------------------------------*\
  =========                 |
  \\      /  F ield         | OpenFOAM: The Open Source CFD Toolbox
   \\    /   O peration     | Website:  https://openfoam.org
    \\  /    A nd           | Version:  7
     \\/     M anipulation  |
\*---------------------------------------------------------------------------*/
FoamFile
{
    version     2.0;
    format      ascii;
    class       volVectorField;
    location    "0.104";
    object      UMean;
}
// * * * * * * * * * * * * * * * * * * * * * * * * * * * * * * * * * * * * * //

dimensions      [0 1 -1 0 0 0 0];

internalField   nonuniform List<vector> 
12225
(
(4.76749 0.16468 0)
(4.16783 0.111581 0)
(3.70251 0.0984936 0)
(3.32835 0.082211 0)
(2.98921 0.0692855 0)
(2.67056 0.0598507 0)
(2.37345 0.0518106 0)
(2.10247 0.0441374 0)
(1.86111 0.0361609 0)
(1.6507 0.028663 0)
(1.47204 0.0207952 0)
(1.3234 0.0148665 0)
(1.20338 0.00766281 0)
(1.10805 0.00581251 0)
(1.03061 -0.00195091 0)
(0.974674 0.00397308 0)
(0.917323 -0.011495 0)
(0.89241 -0.00376222 0)
(5.0213 0.113891 0)
(4.87199 0.0747281 0)
(4.75251 0.09133 0)
(4.66099 0.0914547 0)
(4.56468 0.0906146 0)
(4.45532 0.0918234 0)
(4.33467 0.0929349 0)
(4.20842 0.0921105 0)
(4.07905 0.0894745 0)
(3.95191 0.0844325 0)
(3.82574 0.0785646 0)
(3.708 0.0705136 0)
(3.59142 0.0639868 0)
(3.4893 0.0548982 0)
(3.38193 0.0513012 0)
(3.29653 0.0414089 0)
(3.19228 0.0423128 0)
(3.1174 0.0223616 0)
(4.99444 0.172196 0)
(4.87242 0.122996 0)
(4.79275 0.13195 0)
(4.76153 0.127358 0)
(4.7449 0.121275 0)
(4.72738 0.119097 0)
(4.70666 0.118438 0)
(4.68366 0.117263 0)
(4.65825 0.114097 0)
(4.63011 0.109708 0)
(4.59864 0.10312 0)
(4.56413 0.0968024 0)
(4.52699 0.0886238 0)
(4.48759 0.0832991 0)
(4.44745 0.0759186 0)
(4.40477 0.0732628 0)
(4.36417 0.0674113 0)
(4.31526 0.0607491 0)
(4.98969 0.190972 0)
(4.89032 0.122228 0)
(4.81199 0.121577 0)
(4.77677 0.118307 0)
(4.76253 0.112215 0)
(4.75332 0.109288 0)
(4.74617 0.108967 0)
(4.74175 0.108574 0)
(4.73996 0.106964 0)
(4.73932 0.103698 0)
(4.73866 0.0995352 0)
(4.73645 0.0942639 0)
(4.73309 0.0894373 0)
(4.72718 0.0841645 0)
(4.72131 0.0808298 0)
(4.71233 0.0769903 0)
(4.70612 0.0750023 0)
(4.69406 0.0715837 0)
(4.9963 0.214287 0)
(4.92038 0.144862 0)
(4.84968 0.137115 0)
(4.81202 0.133789 0)
(4.79529 0.12611 0)
(4.78484 0.1201 0)
(4.77676 0.116918 0)
(4.7716 0.114644 0)
(4.76984 0.11158 0)
(4.77043 0.10755 0)
(4.77235 0.102585 0)
(4.7742 0.0973579 0)
(4.77602 0.0920179 0)
(4.77695 0.087225 0)
(4.77818 0.0831828 0)
(4.77863 0.0796615 0)
(4.78038 0.0772173 0)
(4.78069 0.0735081 0)
(4.98942 0.231297 0)
(4.93312 0.16081 0)
(4.87286 0.144127 0)
(4.83659 0.138676 0)
(4.81995 0.129957 0)
(4.81059 0.121909 0)
(4.80348 0.116749 0)
(4.79855 0.113167 0)
(4.79645 0.109529 0)
(4.79661 0.105132 0)
(4.79817 0.100165 0)
(4.80003 0.0948824 0)
(4.80203 0.0897846 0)
(4.80363 0.0850377 0)
(4.80555 0.0809821 0)
(4.80717 0.0775149 0)
(4.80976 0.0744477 0)
(4.8116 0.0714315 0)
(4.99994 0.24514 0)
(4.95761 0.177139 0)
(4.90639 0.153564 0)
(4.8714 0.145279 0)
(4.85385 0.135984 0)
(4.84453 0.126739 0)
(4.83783 0.119874 0)
(4.8329 0.114944 0)
(4.8303 0.110452 0)
(4.82982 0.105572 0)
(4.83079 0.100281 0)
(4.83224 0.0948507 0)
(4.83399 0.089631 0)
(4.83548 0.0847901 0)
(4.83739 0.0805676 0)
(4.83895 0.0768317 0)
(4.8415 0.0735597 0)
(4.84306 0.0705346 0)
(5.00298 0.255211 0)
(4.97287 0.191904 0)
(4.93155 0.163551 0)
(4.89993 0.151716 0)
(4.88277 0.141531 0)
(4.87415 0.131244 0)
(4.86858 0.122752 0)
(4.86451 0.116297 0)
(4.8623 0.11081 0)
(4.86192 0.105376 0)
(4.86296 0.0997763 0)
(4.86453 0.0941789 0)
(4.86647 0.0888324 0)
(4.8682 0.083911 0)
(4.87036 0.0794877 0)
(4.87212 0.0755855 0)
(4.87485 0.0720855 0)
(4.87654 0.0690126 0)
(5.00381 0.262262 0)
(4.98245 0.204112 0)
(4.94974 0.172746 0)
(4.92216 0.157277 0)
(4.90605 0.145832 0)
(4.89813 0.134776 0)
(4.89362 0.125097 0)
(4.89051 0.117362 0)
(4.88883 0.110915 0)
(4.88867 0.104908 0)
(4.88986 0.0989733 0)
(4.89169 0.0931552 0)
(4.89398 0.0876416 0)
(4.89615 0.0825823 0)
(4.89872 0.0780144 0)
(4.90095 0.0739704 0)
(4.904 0.0703277 0)
(4.9062 0.0671959 0)
(4.99758 0.269221 0)
(4.98305 0.215608 0)
(4.95785 0.182328 0)
(4.93469 0.1635 0)
(4.92019 0.150322 0)
(4.91305 0.138392 0)
(4.90953 0.127682 0)
(4.90747 0.118755 0)
(4.90656 0.111311 0)
(4.90687 0.104663 0)
(4.90834 0.0983561 0)
(4.91042 0.0923152 0)
(4.91298 0.0866136 0)
(4.91552 0.0813781 0)
(4.91846 0.0766054 0)
(4.92121 0.0723679 0)
(4.92466 0.0685178 0)
(4.92755 0.065233 0)
(4.99545 0.271856 0)
(4.98536 0.223569 0)
(4.96572 0.189769 0)
(4.9462 0.168378 0)
(4.93295 0.153398 0)
(4.926 0.1406 0)
(4.92272 0.1291 0)
(4.92105 0.119196 0)
(4.92044 0.110832 0)
(4.92085 0.103515 0)
(4.92236 0.0967806 0)
(4.92457 0.0904555 0)
(4.92734 0.0845138 0)
(4.9302 0.0790549 0)
(4.93347 0.0740429 0)
(4.93656 0.0695754 0)
(4.94037 0.065476 0)
(4.94361 0.061956 0)
(5.0026 0.275192 0)
(4.99473 0.230907 0)
(4.97897 0.197162 0)
(4.96253 0.173968 0)
(4.95071 0.15728 0)
(4.94424 0.143482 0)
(4.94134 0.131239 0)
(4.94017 0.120546 0)
(4.94 0.111376 0)
(4.94068 0.103402 0)
(4.94229 0.096198 0)
(4.94453 0.0895376 0)
(4.94736 0.083319 0)
(4.95029 0.0776079 0)
(4.95367 0.0723418 0)
(4.95682 0.0676284 0)
(4.96069 0.0632638 0)
(4.96394 0.0594736 0)
(5.00191 0.278383 0)
(4.99687 0.236055 0)
(4.98517 0.202677 0)
(4.97234 0.178167 0)
(4.96274 0.159839 0)
(4.95731 0.144883 0)
(4.95496 0.131843 0)
(4.95425 0.120417 0)
(4.95452 0.110525 0)
(4.95555 0.101931 0)
(4.95744 0.0942642 0)
(4.95993 0.0872777 0)
(4.96302 0.0808145 0)
(4.96619 0.0748891 0)
(4.96979 0.0694154 0)
(4.9731 0.0644859 0)
(4.97712 0.0598901 0)
(4.98045 0.0558353 0)
(5.0054 0.280946 0)
(5.00357 0.241445 0)
(4.99567 0.208864 0)
(4.98613 0.183412 0)
(4.97873 0.163627 0)
(4.97455 0.147523 0)
(4.973 0.1337 0)
(4.97302 0.121571 0)
(4.97399 0.110936 0)
(4.97561 0.101606 0)
(4.97792 0.0933095 0)
(4.9807 0.0858321 0)
(4.98402 0.0789863 0)
(4.98744 0.0727501 0)
(4.99128 0.066993 0)
(4.99488 0.0617924 0)
(4.99911 0.056902 0)
(5.00269 0.0525442 0)
(4.99948 0.279887 0)
(4.99974 0.243847 0)
(4.99496 0.212166 0)
(4.98875 0.186057 0)
(4.9841 0.164984 0)
(4.9819 0.147618 0)
(4.98181 0.132787 0)
(4.98312 0.119847 0)
(4.98529 0.108489 0)
(4.988 0.0985135 0)
(4.9912 0.0896742 0)
(4.99471 0.0817692 0)
(4.99861 0.0745839 0)
(5.00252 0.0680555 0)
(5.00675 0.0620172 0)
(5.01071 0.0565248 0)
(5.01521 0.0513245 0)
(5.01907 0.0466243 0)
(5.00817 0.282109 0)
(5.00901 0.247911 0)
(5.00641 0.216782 0)
(5.00305 0.190114 0)
(5.00106 0.167842 0)
(5.00088 0.149154 0)
(5.00218 0.133163 0)
(5.00447 0.119255 0)
(5.00745 0.107062 0)
(5.01085 0.0963509 0)
(5.01461 0.0868787 0)
(5.01857 0.0784556 0)
(5.0228 0.0708559 0)
(5.02702 0.0639944 0)
(5.03149 0.0576666 0)
(5.03569 0.051911 0)
(5.04031 0.0464398 0)
(5.0443 0.0414763 0)
(4.99975 0.281119 0)
(5.00139 0.246898 0)
(5.00099 0.215689 0)
(5.00089 0.188438 0)
(5.00228 0.165175 0)
(5.00499 0.14541 0)
(5.00853 0.128485 0)
(5.01257 0.113827 0)
(5.01696 0.101007 0)
(5.02157 0.0897377 0)
(5.02635 0.0797635 0)
(5.03117 0.0708917 0)
(5.0361 0.0628905 0)
(5.0409 0.0556473 0)
(5.04582 0.0489512 0)
(5.05044 0.0428198 0)
(5.05533 0.0369923 0)
(5.05967 0.031658 0)
(5.00117 0.284587 0)
(5.00483 0.248071 0)
(5.00713 0.215566 0)
(5.00992 0.187193 0)
(5.01412 0.162758 0)
(5.01937 0.141859 0)
(5.02504 0.123961 0)
(5.03079 0.108543 0)
(5.03654 0.09516 0)
(5.04224 0.0834884 0)
(5.04794 0.0732403 0)
(5.05352 0.0642089 0)
(5.05906 0.056136 0)
(5.06435 0.0488917 0)
(5.06965 0.0422245 0)
(5.0745 0.0361449 0)
(5.07953 0.0303603 0)
(5.08379 0.0250882 0)
(4.99922 0.279604 0)
(5.00642 0.241087 0)
(5.01308 0.206475 0)
(5.02037 0.176447 0)
(5.02899 0.150916 0)
(5.0383 0.129291 0)
(5.04753 0.1108 0)
(5.05628 0.0947686 0)
(5.06455 0.08072 0)
(5.07235 0.0683555 0)
(5.07979 0.0574346 0)
(5.0868 0.0477772 0)
(5.09349 0.0391663 0)
(5.09969 0.0314698 0)
(5.10568 0.024472 0)
(5.11109 0.0181333 0)
(5.11652 0.0122065 0)
(5.12117 0.00680614 0)
(5.00232 0.275684 0)
(5.01096 0.232697 0)
(5.02091 0.194348 0)
(5.0326 0.16196 0)
(5.0456 0.135483 0)
(5.05861 0.11393 0)
(5.07066 0.0961216 0)
(5.08154 0.0811393 0)
(5.09152 0.0683604 0)
(5.10082 0.0573713 0)
(5.10961 0.0478173 0)
(5.11783 0.0394231 0)
(5.12557 0.0319129 0)
(5.13267 0.0251538 0)
(5.13939 0.0189486 0)
(5.1454 0.0133091 0)
(5.15125 0.00800737 0)
(5.15622 0.00320441 0)
(5.00163 0.272614 0)
(5.01235 0.222342 0)
(5.02692 0.179634 0)
(5.04434 0.145208 0)
(5.06269 0.117871 0)
(5.08007 0.0956417 0)
(5.09567 0.0768971 0)
(5.10958 0.060775 0)
(5.12219 0.046914 0)
(5.13369 0.0350982 0)
(5.14418 0.0250457 0)
(5.15359 0.0164439 0)
(5.1621 0.0089664 0)
(5.16966 0.00239155 0)
(5.17663 -0.00351193 0)
(5.18278 -0.00882375 0)
(5.18868 -0.0137337 0)
(5.19369 -0.018188 0)
(5.00365 0.267411 0)
(5.01933 0.207147 0)
(5.0408 0.160378 0)
(5.06479 0.126426 0)
(5.0877 0.101739 0)
(5.10754 0.0826818 0)
(5.12438 0.0670063 0)
(5.13925 0.0537803 0)
(5.15293 0.042613 0)
(5.16562 0.0331672 0)
(5.17725 0.0250454 0)
(5.18768 0.0179284 0)
(5.19706 0.0115562 0)
(5.2054 0.00581951 0)
(5.21306 0.000574277 0)
(5.21984 -0.00418088 0)
(5.22627 -0.0086387 0)
(5.23176 -0.0127042 0)
(4.99812 0.260865 0)
(5.0229 0.188988 0)
(5.0555 0.136811 0)
(5.08909 0.101144 0)
(5.11864 0.0752537 0)
(5.1427 0.0542922 0)
(5.16238 0.036564 0)
(5.1793 0.0220101 0)
(5.19443 0.0105317 0)
(5.20797 0.00153188 0)
(5.21997 -0.00578361 0)
(5.23048 -0.0120169 0)
(5.23983 -0.0175152 0)
(5.2481 -0.0224204 0)
(5.2557 -0.0268473 0)
(5.26239 -0.0308385 0)
(5.26872 -0.0345185 0)
(5.27403 -0.0378694 0)
(5.00675 0.245298 0)
(5.04045 0.165528 0)
(5.08422 0.117026 0)
(5.12509 0.089999 0)
(5.15735 0.071761 0)
(5.18212 0.055711 0)
(5.20292 0.0412396 0)
(5.22198 0.0291253 0)
(5.2396 0.0194141 0)
(5.25527 0.011496 0)
(5.26883 0.00472143 0)
(5.28045 -0.00126409 0)
(5.29064 -0.0066171 0)
(5.29961 -0.0113804 0)
(5.30776 -0.0156697 0)
(5.31492 -0.0195223 0)
(5.32159 -0.0231015 0)
(5.32726 -0.0263527 0)
(5.00355 0.228998 0)
(5.05401 0.128006 0)
(5.11645 0.0741566 0)
(5.16774 0.0466683 0)
(5.2031 0.0271072 0)
(5.2283 0.00987813 0)
(5.24956 -0.00386811 0)
(5.26917 -0.0135176 0)
(5.287 -0.0202389 0)
(5.30253 -0.0255105 0)
(5.31585 -0.0301409 0)
(5.32732 -0.0343315 0)
(5.33748 -0.0380896 0)
(5.34646 -0.0414369 0)
(5.35462 -0.0444627 0)
(5.36173 -0.0472338 0)
(5.36833 -0.0498359 0)
(5.37384 -0.0522717 0)
(5.01559 0.212259 0)
(5.08797 0.112988 0)
(5.16811 0.0782204 0)
(5.22596 0.0627228 0)
(5.26244 0.0452387 0)
(5.28932 0.0275555 0)
(5.31373 0.0136164 0)
(5.33642 0.00389793 0)
(5.3562 -0.00317856 0)
(5.37265 -0.00899115 0)
(5.3864 -0.014108 0)
(5.39814 -0.0186397 0)
(5.4085 -0.0226334 0)
(5.41762 -0.0261673 0)
(5.42582 -0.0293614 0)
(5.43295 -0.0322724 0)
(5.43953 -0.0349929 0)
(5.4451 -0.037492 0)
(5.00982 0.161053 0)
(5.12183 0.0356978 0)
(5.22143 0.00786039 0)
(5.27994 -0.00139254 0)
(5.31344 -0.0153822 0)
(5.34017 -0.027612 0)
(5.36578 -0.0350607 0)
(5.38939 -0.0395144 0)
(5.40962 -0.0429801 0)
(5.42644 -0.0461664 0)
(5.44068 -0.0490641 0)
(5.45305 -0.0516152 0)
(5.46407 -0.0538578 0)
(5.47381 -0.0558875 0)
(5.4826 -0.0577684 0)
(5.49027 -0.059553 0)
(5.49736 -0.0612671 0)
(5.50337 -0.0629241 0)
(5.01643 0.152385 0)
(5.17719 0.058075 0)
(5.30126 0.0446112 0)
(5.36295 0.0286873 0)
(5.39719 0.00979735 0)
(5.42683 -0.00375504 0)
(5.45494 -0.0117469 0)
(5.4796 -0.0171834 0)
(5.49998 -0.0217915 0)
(5.51665 -0.0259465 0)
(5.53058 -0.029593 0)
(5.54245 -0.0327828 0)
(5.55267 -0.0355878 0)
(5.56141 -0.0381486 0)
(5.56885 -0.0404833 0)
(5.57502 -0.0427016 0)
(5.5802 -0.0447732 0)
(5.58428 -0.0468014 0)
(5.01884 0.0203035 0)
(5.22887 -0.051293 0)
(5.35573 -0.0339132 0)
(5.41109 -0.0424776 0)
(5.44257 -0.0526399 0)
(5.46754 -0.0572302 0)
(5.48688 -0.0589709 0)
(5.49914 -0.0602061 0)
(5.50434 -0.0614472 0)
(5.50374 -0.0626001 0)
(5.49859 -0.0635675 0)
(5.49003 -0.0643913 0)
(5.47852 -0.0650911 0)
(5.46486 -0.0657471 0)
(5.44886 -0.0663246 0)
(5.43158 -0.0669098 0)
(5.41217 -0.0674409 0)
(5.39251 -0.0680513 0)
(4.96879 0.0701202 0)
(5.1034 -0.00102522 0)
(5.07555 -0.000831709 0)
(4.96239 -0.011139 0)
(4.83553 -0.0187971 0)
(4.71161 -0.0217994 0)
(4.59119 -0.0229537 0)
(4.47275 -0.0236927 0)
(4.35592 -0.0242364 0)
(4.24138 -0.0245745 0)
(4.12981 -0.0247368 0)
(4.02189 -0.0247747 0)
(3.91755 -0.0247145 0)
(3.8172 -0.0245892 0)
(3.72015 -0.0243998 0)
(3.62732 -0.0241963 0)
(3.53702 -0.0239629 0)
(3.45166 -0.0237992 0)
(-0.0361913 0.088393 7.13087e-22)
(-0.102139 0.0580331 -7.06466e-22)
(-0.128629 0.0166987 0)
(-0.115386 -0.0245336 0)
(-0.0691077 -0.0565911 0)
(-0.000708232 -0.0780173 6.82513e-22)
(0.0808967 -0.0900113 0)
(0.169632 -0.0948423 0)
(0.259765 -0.0931854 0)
(0.347302 -0.087449 0)
(0.42886 -0.0842 -6.4844e-22)
(0.505296 -0.0871758 0)
(0.577829 -0.084198 0)
(0.64591 -0.0716669 0)
(0.706191 -0.0575344 0)
(0.754336 -0.0435789 -5.65412e-22)
(0.790555 -0.0298275 0)
(0.816187 -0.0175264 0)
(0.830976 -0.00588989 0)
(0.833031 0.00577978 0)
(0.821128 0.0179927 0)
(0.7938 0.031241 0)
(0.750336 0.0447077 0)
(0.690229 0.0568188 -4.87716e-22)
(0.614534 0.0685038 4.87067e-22)
(0.524185 0.0832591 -4.87029e-22)
(0.419398 0.0980183 -4.87091e-22)
(0.30402 0.104748 0)
(0.184571 0.103738 0)
(0.0646166 0.095655 4.80962e-22)
(-0.0505781 0.0820285 4.761e-22)
(-0.160629 0.0699372 0)
(-0.269999 0.0639128 0)
(-0.382762 0.0645443 4.54412e-22)
(-0.498756 0.0707462 0)
(-0.616311 0.0756961 0)
(-0.733051 0.0714706 -4.26073e-22)
(-0.846498 0.0629405 0)
(-0.955482 0.0627778 -4.04163e-22)
(-1.06203 0.0617549 -7.86529e-22)
(-1.16031 0.0542359 0)
(-1.25068 0.0537045 0)
(-1.3347 0.043543 0)
(-1.39936 0.0254502 0)
(-1.45131 0.0166395 0)
(-1.49297 0.018659 -6.79291e-22)
(-1.53016 0.0209353 -6.68889e-22)
(-1.55986 0.0167035 -6.60751e-22)
(-1.5803 0.0120603 0)
(-1.59261 0.00734026 6.54228e-22)
(-1.59699 0.0025052 0)
(-1.5952 -0.00120895 -6.61443e-22)
(-1.58801 -0.00317385 -6.69309e-22)
(-1.57546 -0.00449161 0)
(-1.55668 -0.00719004 0)
(-1.53025 -0.0113996 0)
(-1.49741 -0.0147835 -7.13011e-22)
(-1.4631 -0.0164064 0)
(-1.43114 -0.0181308 0)
(-1.40031 -0.0188927 0)
(-1.37074 -0.0174691 0)
(-1.34446 -0.0139639 0)
(-1.3232 -0.00928072 0)
(-1.30768 -0.00491763 0)
(-1.29743 -0.000726176 0)
(-1.29178 0.00319798 7.98392e-22)
(-1.28836 0.00579754 0)
(-1.28435 0.00739697 0)
(-1.27931 0.0100174 -7.95146e-22)
(-1.27658 0.0161808 -7.89443e-22)
(-1.28277 0.0235911 0)
(-1.30348 0.0217269 7.81209e-22)
(-1.32691 0.0102926 -7.78263e-22)
(-1.34154 0.00395244 0)
(-1.3501 0.00376718 7.73726e-22)
(-1.34932 -0.00145788 0)
(-1.33678 -0.00738541 0)
(-1.3175 -0.00861281 -7.7033e-22)
(-1.29585 -0.00755073 0)
(-1.27254 -0.00738498 7.60548e-22)
(-1.24723 -0.00792776 0)
(-1.22081 -0.00827623 -7.51326e-22)
(-1.19466 -0.00779163 -7.49775e-22)
(-1.17086 -0.0065595 -7.51091e-22)
(-1.15057 -0.00533737 -1.51178e-21)
(-1.13351 -0.00396786 1.52894e-21)
(-1.11959 -0.00326611 0)
(-1.10608 -0.00620623 0)
(-1.08655 -0.0112866 0)
(-1.05958 -0.0136086 1.63987e-21)
(-1.0299 -0.0127615 1.66878e-21)
(-1.00154 -0.0101694 -1.69604e-21)
(-0.974795 -0.00695736 0)
(-0.947665 -0.00517172 1.74531e-21)
(-0.91599 -0.00681742 1.76784e-21)
(-0.876441 -0.0106674 1.78959e-21)
(-0.82875 -0.0146868 0)
(-0.77371 -0.0182565 0)
(-0.712368 -0.0212253 0)
(-0.645761 -0.0236043 1.88862e-21)
(-0.574851 -0.0254337 0)
(-0.500508 -0.0267928 0)
(-0.423509 -0.0277416 -1.98039e-21)
(-0.344545 -0.0283483 0)
(-0.26423 -0.0286611 0)
(-0.1831 -0.0287298 -2.07658e-21)
(-0.101621 -0.0285944 0)
(-0.0201563 -0.0283006 0)
(0.06101 -0.0278927 2.16878e-21)
(0.14169 -0.0274166 2.19816e-21)
(0.221778 -0.026927 0)
(0.301311 -0.0264558 -2.25487e-21)
(0.380368 -0.0260347 0)
(0.459044 -0.0256588 2.30835e-21)
(0.5374 -0.0252965 0)
(0.615396 -0.0249054 2.35628e-21)
(0.692861 -0.0244189 2.37678e-21)
(0.769471 -0.0237775 0)
(0.844712 -0.0229343 0)
(0.917952 -0.0218496 0)
(0.988558 -0.0205304 0)
(1.05596 -0.0190143 0)
(1.11965 -0.0173582 0)
(1.17927 -0.0155959 0)
(1.23456 -0.0138292 2.38775e-21)
(1.28538 -0.0121633 -2.36979e-21)
(1.33177 -0.010484 0)
(1.37383 -0.00885166 0)
(1.4116 -0.00728116 0)
(1.44518 -0.00577819 0)
(1.47467 -0.00434187 -4.48862e-21)
(1.50018 -0.00297832 0)
(1.52183 -0.00168785 4.37048e-21)
(1.53973 -0.000469248 -4.31017e-21)
(1.55401 0.000678264 0)
(1.56479 0.00175451 0)
(1.5722 0.00276012 0)
(1.57636 0.00369727 4.06992e-21)
(1.57741 0.00456697 4.01144e-21)
(1.57546 0.00537153 0)
(1.57063 0.00611624 3.89763e-21)
(1.56305 0.0067966 3.84252e-21)
(1.55286 0.00742038 -3.78871e-21)
(1.54016 0.00798123 0)
(1.52516 0.00845394 0)
(1.50811 0.00879992 -3.63547e-21)
(1.48932 0.00899459 0)
(1.46914 0.00903314 0)
(1.44796 0.00891454 0)
(1.42618 0.00863176 0)
(1.40423 0.00816044 3.40605e-21)
(1.3826 0.00747175 3.36342e-21)
(1.36186 0.00654785 0)
(1.34268 0.00538855 3.28091e-21)
(1.32577 0.00405995 0)
(1.31171 0.00273443 0)
(1.30065 0.00161712 3.16474e-21)
(1.29235 0.000833802 0)
(1.28627 0.000387304 3.09282e-21)
(1.28183 0.000197155 0)
(1.27841 0.000163481 0)
(1.27561 0.000213432 2.98995e-21)
(1.27304 0.000311489 0)
(1.27058 0.000431542 2.92289e-21)
(1.26794 0.000570788 0)
(1.26521 0.000723694 0)
(1.26194 0.000907708 0)
(1.25852 0.00110945 -2.79112e-21)
(1.25403 0.00137395 0)
(1.2494 0.00165314 2.72679e-21)
(1.24279 0.00207612 0)
(1.23601 0.00246979 0)
(1.22587 0.00324986 0)
(1.21489 0.00376205 0)
(1.19954 0.00546852 0)
(1.17852 0.00580047 0)
(1.15844 0.0103528 0)
(1.10706 0.00872698 -4.99572e-21)
(1.09678 0.024 0)
(0.942166 0.0147873 0)
(-0.0030539 0.189601 -2.12533e-21)
(-0.0181408 0.124892 2.1062e-21)
(0.000986582 0.00758918 0)
(0.0411294 -0.101194 -1.36845e-21)
(0.102411 -0.182823 0)
(0.174973 -0.235199 -6.83252e-22)
(0.257332 -0.263959 1.33442e-21)
(0.342528 -0.27435 1.32153e-21)
(0.426694 -0.270353 0)
(0.505194 -0.255118 1.28517e-21)
(0.574614 -0.232988 6.49272e-22)
(0.632225 -0.209291 0)
(0.675346 -0.191906 0)
(0.709489 -0.17807 0)
(0.741025 -0.151144 0)
(0.76712 -0.117494 5.66082e-22)
(0.786559 -0.0868197 0)
(0.798554 -0.0573391 -1.0251e-21)
(0.799363 -0.0252998 0)
(0.786921 0.0110995 0)
(0.760454 0.0509592 9.61162e-22)
(0.720147 0.0933609 0)
(0.665433 0.137291 -9.45296e-22)
(0.594616 0.179652 4.8838e-22)
(0.509667 0.218327 -4.87785e-22)
(0.415131 0.251299 4.87816e-22)
(0.313874 0.275995 4.87945e-22)
(0.207889 0.290356 0)
(0.0998667 0.295364 0)
(-0.00887543 0.292954 -4.81941e-22)
(-0.118972 0.286288 4.42098e-22)
(-0.235614 0.285282 0)
(-0.357393 0.292933 0)
(-0.479688 0.298592 -4.55406e-22)
(-0.598716 0.295729 0)
(-0.715042 0.288043 0)
(-0.830629 0.282839 4.27062e-22)
(-0.947002 0.276097 0)
(-1.05945 0.263533 -3.54111e-22)
(-1.16777 0.247135 7.88366e-22)
(-1.27294 0.227303 0)
(-1.36816 0.205029 0)
(-1.45497 0.175106 1.34821e-21)
(-1.53298 0.144604 1.31356e-21)
(-1.60459 0.116859 1.28343e-21)
(-1.66116 0.0921805 -5.76958e-22)
(-1.70443 0.0716468 6.70269e-22)
(-1.73631 0.0522776 1.88442e-21)
(-1.75793 0.0325219 -1.21433e-21)
(-1.77096 0.0138953 -6.55427e-22)
(-1.77712 -0.00107902 0)
(-1.77732 -0.0136424 6.62567e-22)
(-1.77101 -0.0263954 -5.81417e-22)
(-1.75818 -0.04054 0)
(-1.7388 -0.0561663 0)
(-1.71192 -0.0715021 0)
(-1.67882 -0.078147 7.13909e-22)
(-1.64193 -0.0735434 0)
(-1.60652 -0.0666301 -1.39383e-21)
(-1.57246 -0.0619603 0)
(-1.53962 -0.0566464 -1.43693e-21)
(-1.51019 -0.0496635 0)
(-1.48465 -0.0405458 1.48003e-21)
(-1.46405 -0.030241 0)
(-1.44864 -0.0216627 -1.51676e-21)
(-1.43741 -0.0175938 7.30391e-22)
(-1.42867 -0.0185937 0)
(-1.42089 -0.0224249 1.53854e-21)
(-1.41286 -0.0234979 7.95716e-22)
(-1.40417 -0.0139108 7.89975e-22)
(-1.39461 0.00761305 0)
(-1.39174 0.0270884 7.37092e-22)
(-1.39953 0.0316759 7.78721e-22)
(-1.41032 0.0215396 0)
(-1.41527 0.003685 -7.7414e-22)
(-1.41105 -0.0159215 1.49799e-21)
(-1.4013 -0.0317676 0)
(-1.38725 -0.0413483 7.70651e-22)
(-1.36822 -0.0465225 0)
(-1.34335 -0.0496379 -2.2228e-21)
(-1.31348 -0.0516275 0)
(-1.28005 -0.0516905 2.20113e-21)
(-1.24544 -0.0485335 7.5004e-22)
(-1.21203 -0.0423745 -7.04932e-22)
(-1.18231 -0.0354389 -1.42568e-21)
(-1.15691 -0.029665 1.44849e-21)
(-1.13424 -0.0270598 0)
(-1.11454 -0.0296027 0)
(-1.09455 -0.0365184 0)
(-1.0695 -0.0440605 -4.85676e-21)
(-1.04172 -0.0466643 -1.66903e-21)
(-1.01155 -0.0454829 1.69626e-21)
(-0.974905 -0.0470567 0)
(-0.928887 -0.0538622 1.68183e-21)
(-0.873669 -0.0639378 -1.76802e-21)
(-0.810545 -0.0746431 -1.78977e-21)
(-0.740991 -0.0843976 0)
(-0.666163 -0.0926929 0)
(-0.587017 -0.0994385 0)
(-0.504323 -0.104743 -1.88868e-21)
(-0.41873 -0.108767 0)
(-0.330804 -0.111672 3.86846e-21)
(-0.241071 -0.113594 5.91487e-21)
(-0.150049 -0.114658 -4.00111e-21)
(-0.0582188 -0.114961 0)
(0.0339832 -0.114625 -2.05643e-21)
(0.12617 -0.113761 0)
(0.218058 -0.112493 -4.25973e-21)
(0.309463 -0.110942 2.15223e-21)
(0.400315 -0.109243 2.18239e-21)
(0.490641 -0.107528 0)
(0.580497 -0.105897 6.7496e-21)
(0.670012 -0.104412 -4.54992e-21)
(0.759321 -0.103061 -2.30812e-21)
(0.848511 -0.101761 0)
(0.937566 -0.100369 -2.35603e-21)
(1.02633 -0.0986887 -7.11861e-21)
(1.11448 -0.0965245 0)
(1.20147 -0.0937265 -4.80506e-21)
(1.28667 -0.0901951 -4.82343e-21)
(1.36939 -0.085941 -4.8319e-21)
(1.44904 -0.0810901 0)
(1.52511 -0.0758119 0)
(1.59722 -0.0703221 0)
(1.66512 -0.0648736 2.38282e-21)
(1.72867 -0.0594643 2.36939e-21)
(1.788 -0.0541596 0)
(1.84316 -0.0489989 4.64633e-21)
(1.89421 -0.0440078 4.59554e-21)
(1.94123 -0.0391985 0)
(1.98432 -0.0345765 4.48769e-21)
(2.0236 -0.0301503 8.85348e-21)
(2.05918 -0.0259204 -4.36954e-21)
(2.09116 -0.0218845 -4.3051e-21)
(2.11968 -0.0180393 0)
(2.14484 -0.0143817 0)
(2.16678 -0.0109083 0)
(2.18562 -0.00761406 -4.06896e-21)
(2.20148 -0.00449509 4.00778e-21)
(2.21448 -0.00154592 7.90346e-21)
(2.22477 0.00123635 -3.89665e-21)
(2.23247 0.00385135 3.8392e-21)
(2.23775 0.00629258 3.78771e-21)
(2.24078 0.00854568 0)
(2.24173 0.0105744 0)
(2.24078 0.0123366 -3.63231e-21)
(2.23808 0.0138025 0)
(2.2338 0.0149512 0)
(2.22815 0.0157682 6.98464e-21)
(2.22137 0.0162423 0)
(2.21369 0.0163608 3.40352e-21)
(2.20538 0.01609 -3.36235e-21)
(2.19669 0.0153736 0)
(2.18786 0.0141617 3.27932e-21)
(2.17921 0.0124609 0)
(2.17105 0.0103899 0)
(2.16369 0.00818602 -3.1637e-21)
(2.15735 0.00613056 6.25501e-21)
(2.15217 0.00442925 -3.09181e-21)
(2.14813 0.00316128 0)
(2.14508 0.00230442 0)
(2.14282 0.00177872 2.98913e-21)
(2.14108 0.00149982 0)
(2.13974 0.00138652 2.92196e-21)
(2.13853 0.00140226 0)
(2.13745 0.00149538 0)
(2.13621 0.00170745 0)
(2.13496 0.0019664 2.79021e-21)
(2.13323 0.0024412 0)
(2.13133 0.002906 -2.72589e-21)
(2.12854 0.00385445 0)
(2.12513 0.00455557 0)
(2.12046 0.00646378 5.26431e-21)
(2.11372 0.00731494 -5.20447e-21)
(2.1064 0.0114218 0)
(2.0918 0.0119265 0)
(2.08252 0.0216493 0)
(2.04736 0.020177 1.49686e-20)
(2.0438 0.0460145 0)
(1.95401 0.0410277 -9.78807e-21)
(0.0149423 0.141044 4.74052e-24)
(0.0594118 0.0569681 -2.79725e-21)
(0.125784 -0.0923986 0)
(0.194903 -0.22607 2.73361e-21)
(0.269763 -0.325399 0)
(0.346907 -0.389216 0)
(0.42278 -0.422389 -3.00243e-23)
(0.493375 -0.428866 -1.32305e-21)
(0.556188 -0.413315 -1.26052e-21)
(0.6097 -0.380684 -1.28657e-21)
(0.652746 -0.337086 0)
(0.684722 -0.287951 0)
(0.704252 -0.240034 1.14035e-21)
(0.709383 -0.201799 2.20987e-21)
(0.704106 -0.169664 -2.13737e-21)
(0.696868 -0.131164 0)
(0.686308 -0.087714 -1.99731e-21)
(0.669972 -0.0397334 1.02589e-21)
(0.643742 0.0182207 0)
(0.605664 0.0821025 -1.84562e-21)
(0.555062 0.145137 -9.61898e-22)
(0.490756 0.207717 1.7998e-21)
(0.412615 0.27232 9.46135e-22)
(0.322782 0.334973 0)
(0.224464 0.389201 -1.7879e-21)
(0.12136 0.431737 -1.78912e-21)
(0.0162037 0.46062 0)
(-0.0891936 0.475004 -1.78473e-21)
(-0.193771 0.475481 0)
(-0.297913 0.466628 -1.75776e-21)
(-0.405719 0.465011 -9.20293e-22)
(-0.516583 0.470881 0)
(-0.624035 0.472076 0)
(-0.726888 0.467786 0)
(-0.826515 0.462473 0)
(-0.923809 0.456976 0)
(-1.01727 0.447199 0)
(-1.1067 0.43315 -1.43666e-21)
(-1.19188 0.417052 2.14695e-21)
(-1.27276 0.394318 0)
(-1.34899 0.364583 0)
(-1.42001 0.332939 0)
(-1.48677 0.29462 -1.43736e-22)
(-1.54818 0.24983 -1.31535e-21)
(-1.60258 0.205756 -2.4229e-21)
(-1.64934 0.165372 2.36987e-21)
(-1.68801 0.129062 1.08957e-21)
(-1.71869 0.0948679 -1.22361e-21)
(-1.74236 0.0631196 1.47284e-22)
(-1.7599 0.0349561 -1.06908e-21)
(-1.77079 0.010609 0)
(-1.7742 -0.0112681 -1.09493e-21)
(-1.7701 -0.0320576 1.34233e-22)
(-1.75938 -0.0526203 0)
(-1.74285 -0.0749076 0)
(-1.72073 -0.0985009 1.2074e-21)
(-1.69454 -0.11385 0)
(-1.66319 -0.116612 0)
(-1.63029 -0.114888 -1.17595e-21)
(-1.5956 -0.11206 -2.61708e-21)
(-1.55952 -0.104074 1.43711e-21)
(-1.52571 -0.0912119 0)
(-1.49539 -0.0748083 -1.48014e-21)
(-1.46879 -0.0570761 0)
(-1.44576 -0.0410445 -1.31295e-21)
(-1.42647 -0.028793 -1.52939e-21)
(-1.41139 -0.0212684 2.89123e-21)
(-1.40133 -0.0172182 1.37086e-21)
(-1.39687 -0.0134971 0)
(-1.39681 -0.00586101 -2.91984e-21)
(-1.39593 0.00887537 0)
(-1.39185 0.0257091 -4.43523e-21)
(-1.38643 0.030937 -2.90946e-21)
(-1.38034 0.0201449 -2.89561e-21)
(-1.37342 -0.000875187 2.88042e-21)
(-1.36593 -0.0231141 -4.36248e-21)
(-1.35879 -0.0406025 0)
(-1.35015 -0.0525141 0)
(-1.33836 -0.0618024 2.79561e-21)
(-1.32184 -0.0710729 4.23729e-21)
(-1.29874 -0.0795984 0)
(-1.26922 -0.0845262 -1.44924e-21)
(-1.23567 -0.0830999 0)
(-1.20085 -0.0751791 4.24257e-21)
(-1.16749 -0.0643425 1.19195e-22)
(-1.13714 -0.0549396 -1.13757e-22)
(-1.10906 -0.0492582 -2.9212e-21)
(-1.08248 -0.0506479 0)
(-1.05453 -0.0603682 3.05278e-21)
(-1.02418 -0.0705019 1.00842e-22)
(-0.992117 -0.0750205 0)
(-0.952688 -0.0807341 0)
(-0.902605 -0.0923804 0)
(-0.843374 -0.107891 -3.4269e-21)
(-0.777419 -0.124439 0)
(-0.706576 -0.140012 0)
(-0.631958 -0.1536 0)
(-0.554194 -0.164905 0)
(-0.473669 -0.174006 0)
(-0.390677 -0.181116 -3.68784e-21)
(-0.305512 -0.186473 0)
(-0.2185 -0.190276 -3.86804e-21)
(-0.130016 -0.192687 -3.93411e-21)
(-0.0404693 -0.193844 4.00071e-21)
(0.0497104 -0.193879 0)
(0.140119 -0.192961 4.13252e-21)
(0.230405 -0.191256 0)
(0.3203 -0.188967 4.25937e-21)
(0.409619 -0.186308 -4.32047e-21)
(0.498276 -0.183487 -1.30897e-20)
(0.586297 -0.180705 0)
(0.673802 -0.178126 -1.34374e-20)
(0.760994 -0.175843 -4.50473e-21)
(0.848097 -0.173843 0)
(0.935294 -0.171994 -9.26507e-21)
(1.02265 -0.170039 -9.36099e-21)
(1.11009 -0.167632 1.41893e-20)
(1.1973 -0.164407 0)
(1.28376 -0.160068 4.80489e-21)
(1.36876 -0.154443 4.82326e-21)
(1.45157 -0.147533 1.44704e-20)
(1.53151 -0.139556 0)
(1.60801 -0.130939 0)
(1.68054 -0.121965 0)
(1.74899 -0.11299 4.75312e-21)
(1.81324 -0.104087 0)
(1.87333 -0.0953633 0)
(1.92931 -0.0869001 -4.64592e-21)
(1.98126 -0.0787409 -4.59515e-21)
(2.02929 -0.0708985 0)
(2.07351 -0.0633866 0)
(2.11403 -0.0562107 -8.8528e-21)
(2.15097 -0.0493693 0)
(2.18445 -0.0428585 8.61371e-21)
(2.21459 -0.0366733 8.48626e-21)
(2.24151 -0.0308097 0)
(2.26535 -0.0252627 0)
(2.28623 -0.0200274 -8.12939e-21)
(2.30429 -0.0150976 -4.68388e-24)
(2.31966 -0.0104662 -4.34085e-24)
(2.33249 -0.00613353 0)
(2.34293 -0.00210913 -1.53567e-20)
(2.35115 0.00158898 0)
(2.35735 0.00494099 0)
(2.36177 0.0079273 0)
(2.36467 0.0105303 7.26629e-21)
(2.36631 0.0127219 0)
(2.36696 0.0144779 -1.41456e-20)
(2.36684 0.015788 -6.98414e-21)
(2.36614 0.0166292 0)
(2.36502 0.0169667 -6.80796e-21)
(2.36361 0.0167832 0)
(2.36202 0.0160866 0)
(2.36033 0.0148833 -1.96745e-20)
(2.35853 0.0131756 1.29583e-20)
(2.35658 0.0110445 0)
(2.35449 0.00871186 1.26555e-20)
(2.35238 0.00646935 -6.25441e-21)
(2.35046 0.00454346 0)
(2.3489 0.00303259 0)
(2.34785 0.00194106 0)
(2.34732 0.00121399 -1.7933e-20)
(2.34729 0.000788047 0)
(2.34766 0.000583804 -5.84331e-21)
(2.34835 0.000572748 0)
(2.34922 0.000678767 0)
(2.35019 0.00095872 0)
(2.3511 0.0012956 0)
(2.352 0.00192444 0)
(2.35254 0.00253415 0)
(2.35305 0.00378784 -1.07728e-20)
(2.35265 0.00476058 0)
(2.35247 0.00725814 -5.26372e-21)
(2.35003 0.00862869 1.56069e-20)
(2.34891 0.0137865 0)
(2.34214 0.0154202 0)
(2.34032 0.0267375 -1.0062e-20)
(2.32432 0.0283858 -9.97337e-21)
(2.32401 0.0548897 9.85736e-21)
(2.29096 0.058431 9.78687e-21)
(0.0153023 0.0356684 4.21976e-21)
(0.0857243 -0.109651 4.18705e-21)
(0.171824 -0.271006 2.75212e-21)
(0.261875 -0.403244 1.3404e-21)
(0.346863 -0.497725 0)
(0.419763 -0.55108 -2.59566e-21)
(0.478062 -0.566107 1.22952e-21)
(0.521421 -0.549718 0)
(0.551838 -0.509046 1.26171e-21)
(0.571569 -0.451163 0)
(0.582206 -0.383269 -2.2823e-21)
(0.584732 -0.311274 0)
(0.581215 -0.238939 -1.14134e-21)
(0.569895 -0.174858 -2.21179e-21)
(0.547548 -0.124702 2.1392e-21)
(0.519278 -0.0802407 0)
(0.48764 -0.0317617 1.99882e-21)
(0.450216 0.0261112 0)
(0.40334 0.0989562 0)
(0.347427 0.180014 1.84717e-21)
(0.279138 0.26492 0)
(0.194286 0.355515 -1.33944e-22)
(0.0981364 0.441869 0)
(-0.00313673 0.515054 0)
(-0.106513 0.572711 1.35977e-22)
(-0.209849 0.614452 1.7912e-21)
(-0.311899 0.640389 1.65057e-21)
(-0.412048 0.65128 1.78674e-21)
(-0.510953 0.651213 0)
(-0.613024 0.650961 3.37121e-21)
(-0.717378 0.652595 0)
(-0.817975 0.648571 1.5515e-21)
(-0.914107 0.639654 0)
(-1.00657 0.62813 0)
(-1.09502 0.614434 -1.42502e-21)
(-1.17818 0.597085 0)
(-1.25586 0.577433 1.32505e-21)
(-1.3282 0.556087 1.65792e-22)
(-1.3937 0.529652 -2.60829e-21)
(-1.4529 0.497865 2.33719e-21)
(-1.50624 0.462428 0)
(-1.55281 0.422312 0)
(-1.59254 0.375687 8.56957e-22)
(-1.62658 0.324268 0)
(-1.65547 0.272074 1.13916e-21)
(-1.67869 0.221897 -1.11195e-21)
(-1.69582 0.174602 -1.09067e-21)
(-1.70706 0.130572 0)
(-1.71325 0.0899492 1.06906e-21)
(-1.71439 0.0527839 1.06982e-21)
(-1.7104 0.0184568 -1.80774e-21)
(-1.70124 -0.0139931 1.09535e-21)
(-1.68732 -0.0453571 1.1186e-21)
(-1.66916 -0.0760144 0)
(-1.64628 -0.107361 0)
(-1.62034 -0.137009 -1.20741e-21)
(-1.59299 -0.154222 0)
(-1.56289 -0.156473 0)
(-1.53416 -0.154791 2.5698e-21)
(-1.50563 -0.153032 2.61678e-21)
(-1.47577 -0.144904 0)
(-1.44648 -0.130266 0)
(-1.41835 -0.111881 0)
(-1.39131 -0.0921264 0)
(-1.36591 -0.0734252 2.8291e-21)
(-1.34337 -0.0577088 -2.65453e-21)
(-1.32525 -0.0456546 -2.89046e-21)
(-1.3128 -0.0361037 -5.62967e-21)
(-1.30573 -0.0264583 0)
(-1.30233 -0.0138274 1.59722e-22)
(-1.29944 0.00241935 0)
(-1.29617 0.0161928 2.91571e-21)
(-1.29296 0.0187373 1.37137e-22)
(-1.28808 0.00904432 2.89463e-21)
(-1.28446 -0.00888214 -2.87946e-21)