/*--------------------------------*- C++ -*----------------------------------*\
  =========                 |
  \\      /  F ield         | OpenFOAM: The Open Source CFD Toolbox
   \\    /   O peration     | Website:  https://openfoam.org
    \\  /    A nd           | Version:  7
     \\/     M anipulation  |
\*---------------------------------------------------------------------------*/
FoamFile
{
    version     2.0;
    format      ascii;
    class       volScalarField;
    location    "0.013";
    object      pPrime2Mean;
}
// * * * * * * * * * * * * * * * * * * * * * * * * * * * * * * * * * * * * * //

dimensions      [0 4 -4 0 0 0 0];

internalField   nonuniform List<scalar> 
12225
(
2.72769e+07
2.68409e+07
2.63909e+07
2.59572e+07
2.55409e+07
2.51406e+07
2.4755e+07
2.43831e+07
2.40236e+07
2.36752e+07
2.33365e+07
2.30057e+07
2.26812e+07
2.23602e+07
2.20396e+07
2.1714e+07
2.13744e+07
2.09977e+07
2.72772e+07
2.6841e+07
2.63911e+07
2.59574e+07
2.55411e+07
2.51408e+07
2.47553e+07
2.43835e+07
2.40241e+07
2.36758e+07
2.33372e+07
2.30067e+07
2.26825e+07
2.23621e+07
2.20423e+07
2.17184e+07
2.13827e+07
2.10165e+07
2.72778e+07
2.68414e+07
2.63915e+07
2.59579e+07
2.55416e+07
2.51414e+07
2.47561e+07
2.43844e+07
2.40251e+07
2.36771e+07
2.33389e+07
2.30089e+07
2.26854e+07
2.23661e+07
2.20483e+07
2.17279e+07
2.13994e+07
2.10557e+07
2.72784e+07
2.6842e+07
2.63922e+07
2.59586e+07
2.55425e+07
2.51424e+07
2.47572e+07
2.43858e+07
2.40269e+07
2.36793e+07
2.33417e+07
2.30125e+07
2.26902e+07
2.23727e+07
2.20578e+07
2.17425e+07
2.14241e+07
2.11026e+07
2.72791e+07
2.68429e+07
2.63932e+07
2.59597e+07
2.55437e+07
2.51439e+07
2.4759e+07
2.43879e+07
2.40295e+07
2.36825e+07
2.33457e+07
2.30178e+07
2.26971e+07
2.23821e+07
2.2071e+07
2.17622e+07
2.14551e+07
2.11533e+07
2.72802e+07
2.68441e+07
2.63945e+07
2.59612e+07
2.55455e+07
2.51459e+07
2.47614e+07
2.43908e+07
2.4033e+07
2.36869e+07
2.33513e+07
2.30248e+07
2.27063e+07
2.23945e+07
2.20882e+07
2.17867e+07
2.1491e+07
2.12059e+07
2.72816e+07
2.68458e+07
2.63963e+07
2.59632e+07
2.55478e+07
2.51486e+07
2.47646e+07
2.43946e+07
2.40377e+07
2.36927e+07
2.33585e+07
2.3034e+07
2.27182e+07
2.24101e+07
2.21091e+07
2.18154e+07
2.15306e+07
2.12594e+07
2.72834e+07
2.68479e+07
2.63986e+07
2.59658e+07
2.55507e+07
2.5152e+07
2.47686e+07
2.43995e+07
2.40436e+07
2.36999e+07
2.33675e+07
2.30454e+07
2.27327e+07
2.24288e+07
2.21337e+07
2.18478e+07
2.15731e+07
2.13134e+07
2.72859e+07
2.68506e+07
2.64015e+07
2.59691e+07
2.55544e+07
2.51563e+07
2.47737e+07
2.44055e+07
2.40509e+07
2.37089e+07
2.33785e+07
2.30591e+07
2.27499e+07
2.24507e+07
2.21616e+07
2.18833e+07
2.16177e+07
2.13677e+07
2.72889e+07
2.68539e+07
2.64051e+07
2.59731e+07
2.55589e+07
2.51615e+07
2.47798e+07
2.44129e+07
2.40598e+07
2.37196e+07
2.33917e+07
2.30753e+07
2.277e+07
2.24756e+07
2.21925e+07
2.19215e+07
2.1664e+07
2.14222e+07
2.72935e+07
2.68581e+07
2.64096e+07
2.59779e+07
2.55644e+07
2.51679e+07
2.47873e+07
2.44217e+07
2.40703e+07
2.37323e+07
2.3407e+07
2.3094e+07
2.27928e+07
2.25034e+07
2.22262e+07
2.19619e+07
2.17116e+07
2.14767e+07
2.72975e+07
2.68627e+07
2.64144e+07
2.59832e+07
2.55704e+07
2.51748e+07
2.47953e+07
2.44312e+07
2.40816e+07
2.37458e+07
2.34232e+07
2.31134e+07
2.2816e+07
2.25312e+07
2.22592e+07
2.20006e+07
2.17562e+07
2.15267e+07
2.73032e+07
2.68681e+07
2.642e+07
2.59893e+07
2.55772e+07
2.51826e+07
2.48044e+07
2.44419e+07
2.40942e+07
2.37607e+07
2.34409e+07
2.31344e+07
2.2841e+07
2.25606e+07
2.22935e+07
2.20401e+07
2.18009e+07
2.15762e+07
2.73107e+07
2.68752e+07
2.64274e+07
2.59973e+07
2.55862e+07
2.51928e+07
2.48163e+07
2.44557e+07
2.41104e+07
2.37798e+07
2.34634e+07
2.31607e+07
2.28717e+07
2.25962e+07
2.23343e+07
2.20863e+07
2.18523e+07
2.16324e+07
2.73204e+07
2.68846e+07
2.64371e+07
2.60079e+07
2.5598e+07
2.52062e+07
2.48317e+07
2.44735e+07
2.41311e+07
2.38039e+07
2.34913e+07
2.31931e+07
2.29089e+07
2.26386e+07
2.23822e+07
2.21396e+07
2.19108e+07
2.16955e+07
2.73324e+07
2.68967e+07
2.64498e+07
2.60216e+07
2.56133e+07
2.52235e+07
2.48514e+07
2.44962e+07
2.41572e+07
2.38338e+07
2.35256e+07
2.32321e+07
2.2953e+07
2.26881e+07
2.24372e+07
2.21999e+07
2.1976e+07
2.17652e+07
2.73475e+07
2.69121e+07
2.6466e+07
2.60392e+07
2.56327e+07
2.52453e+07
2.48761e+07
2.45242e+07
2.41891e+07
2.387e+07
2.35665e+07
2.3278e+07
2.30042e+07
2.27446e+07
2.24989e+07
2.22667e+07
2.20475e+07
2.18408e+07
2.7365e+07
2.69308e+07
2.64861e+07
2.6061e+07
2.56568e+07
2.52721e+07
2.49061e+07
2.4558e+07
2.4227e+07
2.39124e+07
2.36137e+07
2.33302e+07
2.30615e+07
2.2807e+07
2.25662e+07
2.23386e+07
2.21236e+07
2.19207e+07
2.73868e+07
2.69536e+07
2.65102e+07
2.6087e+07
2.56852e+07
2.53035e+07
2.49409e+07
2.45966e+07
2.42697e+07
2.39596e+07
2.36655e+07
2.33868e+07
2.31228e+07
2.28729e+07
2.26365e+07
2.2413e+07
2.22017e+07
2.2002e+07
2.74083e+07
2.69743e+07
2.65314e+07
2.61095e+07
2.57094e+07
2.53299e+07
2.49699e+07
2.46284e+07
2.43046e+07
2.39977e+07
2.37069e+07
2.34314e+07
2.31706e+07
2.29238e+07
2.26902e+07
2.24693e+07
2.22604e+07
2.20629e+07
2.74218e+07
2.69884e+07
2.65461e+07
2.6125e+07
2.57262e+07
2.53482e+07
2.49898e+07
2.46502e+07
2.43283e+07
2.40233e+07
2.37345e+07
2.3461e+07
2.32021e+07
2.29571e+07
2.27253e+07
2.2506e+07
2.22985e+07
2.21023e+07
2.74331e+07
2.69989e+07
2.65569e+07
2.61366e+07
2.57387e+07
2.53617e+07
2.50045e+07
2.46661e+07
2.43456e+07
2.4042e+07
2.37546e+07
2.34824e+07
2.32249e+07
2.29811e+07
2.27504e+07
2.25322e+07
2.23256e+07
2.21302e+07
2.74389e+07
2.7006e+07
2.65646e+07
2.61449e+07
2.57477e+07
2.53715e+07
2.50152e+07
2.46777e+07
2.43581e+07
2.40554e+07
2.37689e+07
2.34977e+07
2.3241e+07
2.29981e+07
2.27682e+07
2.25507e+07
2.23448e+07
2.21499e+07
2.74437e+07
2.70109e+07
2.657e+07
2.61508e+07
2.57541e+07
2.53784e+07
2.50227e+07
2.46858e+07
2.43669e+07
2.40649e+07
2.3779e+07
2.35085e+07
2.32524e+07
2.301e+07
2.27807e+07
2.25636e+07
2.23581e+07
2.21636e+07
2.74466e+07
2.70141e+07
2.65736e+07
2.61548e+07
2.57585e+07
2.53833e+07
2.50279e+07
2.46915e+07
2.4373e+07
2.40714e+07
2.3786e+07
2.35159e+07
2.32602e+07
2.30182e+07
2.27892e+07
2.25725e+07
2.23673e+07
2.21731e+07
2.74472e+07
2.7016e+07
2.6576e+07
2.61575e+07
2.57615e+07
2.53865e+07
2.50315e+07
2.46953e+07
2.43771e+07
2.40758e+07
2.37907e+07
2.35208e+07
2.32654e+07
2.30237e+07
2.2795e+07
2.25784e+07
2.23734e+07
2.21794e+07
2.74477e+07
2.70172e+07
2.65775e+07
2.61592e+07
2.57634e+07
2.53886e+07
2.50337e+07
2.46978e+07
2.43797e+07
2.40787e+07
2.37937e+07
2.3524e+07
2.32688e+07
2.30273e+07
2.27986e+07
2.25823e+07
2.23774e+07
2.21834e+07
2.74482e+07
2.70179e+07
2.65784e+07
2.61603e+07
2.57645e+07
2.53899e+07
2.50351e+07
2.46993e+07
2.43813e+07
2.40804e+07
2.37956e+07
2.3526e+07
2.32709e+07
2.30294e+07
2.28009e+07
2.25846e+07
2.23798e+07
2.21859e+07
2.74486e+07
2.70183e+07
2.65789e+07
2.61608e+07
2.57652e+07
2.53906e+07
2.50359e+07
2.47001e+07
2.43822e+07
2.40813e+07
2.37966e+07
2.3527e+07
2.3272e+07
2.30306e+07
2.28021e+07
2.25858e+07
2.23811e+07
2.21872e+07
2.74488e+07
2.70185e+07
2.65791e+07
2.61611e+07
2.57654e+07
2.53908e+07
2.50362e+07
2.47004e+07
2.43826e+07
2.40817e+07
2.3797e+07
2.35275e+07
2.32724e+07
2.3031e+07
2.28026e+07
2.25863e+07
2.23816e+07
2.21878e+07
1.7742e+07
1.77406e+07
1.77378e+07
1.77334e+07
1.77276e+07
1.77203e+07
1.77114e+07
1.77009e+07
1.76889e+07
1.76752e+07
1.76599e+07
1.7643e+07
1.76244e+07
1.76041e+07
1.75822e+07
1.75586e+07
1.75333e+07
1.75063e+07
1.74776e+07
1.74473e+07
1.74152e+07
1.73815e+07
1.73461e+07
1.73091e+07
1.72704e+07
1.72301e+07
1.71881e+07
1.71446e+07
1.70994e+07
1.70527e+07
1.70044e+07
1.69546e+07
1.69033e+07
1.68505e+07
1.67962e+07
1.67404e+07
1.66832e+07
1.66246e+07
1.65646e+07
1.65033e+07
1.64406e+07
1.63766e+07
1.63113e+07
1.62447e+07
1.61769e+07
1.61079e+07
1.60377e+07
1.59663e+07
1.58937e+07
1.582e+07
1.57452e+07
1.56693e+07
1.55923e+07
1.55143e+07
1.54353e+07
1.53552e+07
1.52742e+07
1.51922e+07
1.51093e+07
1.50254e+07
1.49407e+07
1.4855e+07
1.47685e+07
1.46811e+07
1.45929e+07
1.45039e+07
1.44141e+07
1.43235e+07
1.42321e+07
1.414e+07
1.40472e+07
1.39536e+07
1.38593e+07
1.37643e+07
1.36687e+07
1.35724e+07
1.34754e+07
1.33778e+07
1.32796e+07
1.31808e+07
1.30813e+07
1.29813e+07
1.28808e+07
1.27796e+07
1.26779e+07
1.25757e+07
1.24729e+07
1.23697e+07
1.22659e+07
1.21616e+07
1.20569e+07
1.19517e+07
1.1846e+07
1.17399e+07
1.16333e+07
1.15263e+07
1.14189e+07
1.13111e+07
1.12029e+07
1.10943e+07
1.09853e+07
1.0876e+07
1.07663e+07
1.06562e+07
1.05459e+07
1.04352e+07
1.03241e+07
1.02128e+07
1.01012e+07
9.98923e+06
9.87704e+06
9.76458e+06
9.65186e+06
9.5389e+06
9.42571e+06
9.31229e+06
9.19866e+06
9.08484e+06
8.97082e+06
8.85662e+06
8.74226e+06
8.62775e+06
8.51309e+06
8.3983e+06
8.2834e+06
8.16839e+06
8.05328e+06
7.9381e+06
7.82285e+06
7.70755e+06
7.59221e+06
7.47684e+06
7.36146e+06
7.24609e+06
7.13074e+06
7.01542e+06
6.90015e+06
6.78494e+06
6.66982e+06
6.55479e+06
6.43988e+06
6.3251e+06
6.21047e+06
6.09601e+06
5.98173e+06
5.86766e+06
5.75381e+06
5.6402e+06
5.52685e+06
5.41379e+06
5.30102e+06
5.18858e+06
5.07648e+06
4.96476e+06
4.85342e+06
4.74249e+06
4.632e+06
4.52196e+06
4.41242e+06
4.30338e+06
4.19488e+06
4.08694e+06
3.9796e+06
3.87288e+06
3.7668e+06
3.66141e+06
3.55673e+06
3.4528e+06
3.34965e+06
3.24733e+06
3.14588e+06
3.04534e+06
2.94577e+06
2.84724e+06
2.74981e+06
2.65359e+06
2.55871e+06
2.46536e+06
2.37386e+06
2.28494e+06
1.77484e+07
1.7747e+07
1.77441e+07
1.77398e+07
1.77339e+07
1.77265e+07
1.77176e+07
1.77071e+07
1.7695e+07
1.76812e+07
1.76658e+07
1.76488e+07
1.76301e+07
1.76098e+07
1.75877e+07
1.7564e+07
1.75386e+07
1.75115e+07
1.74827e+07
1.74522e+07
1.742e+07
1.73862e+07
1.73506e+07
1.73135e+07
1.72746e+07
1.72342e+07
1.71921e+07
1.71484e+07
1.71031e+07
1.70563e+07
1.70078e+07
1.69579e+07
1.69064e+07
1.68535e+07
1.67991e+07
1.67432e+07
1.66859e+07
1.66272e+07
1.65671e+07
1.65056e+07
1.64428e+07
1.63787e+07
1.63134e+07
1.62467e+07
1.61788e+07
1.61097e+07
1.60393e+07
1.59679e+07
1.58952e+07
1.58214e+07
1.57466e+07
1.56706e+07
1.55936e+07
1.55155e+07
1.54364e+07
1.53563e+07
1.52752e+07
1.51932e+07
1.51102e+07
1.50263e+07
1.49415e+07
1.48558e+07
1.47692e+07
1.46818e+07
1.45936e+07
1.45045e+07
1.44147e+07
1.4324e+07
1.42326e+07
1.41405e+07
1.40476e+07
1.3954e+07
1.38597e+07
1.37647e+07
1.3669e+07
1.35727e+07
1.34757e+07
1.33781e+07
1.32799e+07
1.3181e+07
1.30816e+07
1.29815e+07
1.2881e+07
1.27798e+07
1.26781e+07
1.25759e+07
1.24731e+07
1.23698e+07
1.2266e+07
1.21618e+07
1.2057e+07
1.19518e+07
1.18461e+07
1.174e+07
1.16334e+07
1.15264e+07
1.1419e+07
1.13112e+07
1.1203e+07
1.10944e+07
1.09854e+07
1.0876e+07
1.07663e+07
1.06563e+07
1.05459e+07
1.04352e+07
1.03242e+07
1.02128e+07
1.01012e+07
9.98926e+06
9.87706e+06
9.7646e+06
9.65188e+06
9.53892e+06
9.42572e+06
9.31231e+06
9.19868e+06
9.08485e+06
8.97083e+06
8.85663e+06
8.74227e+06
8.62776e+06
8.5131e+06
8.39831e+06
8.28341e+06
8.16839e+06
8.05329e+06
7.93811e+06
7.82286e+06
7.70755e+06
7.59221e+06
7.47684e+06
7.36147e+06
7.24609e+06
7.13074e+06
7.01542e+06
6.90015e+06
6.78494e+06
6.66982e+06
6.55479e+06
6.43988e+06
6.3251e+06
6.21048e+06
6.09601e+06
5.98174e+06
5.86766e+06
5.75381e+06
5.6402e+06
5.52685e+06
5.41379e+06
5.30102e+06
5.18858e+06
5.07648e+06
4.96476e+06
4.85342e+06
4.74249e+06
4.632e+06
4.52196e+06
4.41242e+06
4.30338e+06
4.19488e+06
4.08694e+06
3.9796e+06
3.87287e+06
3.7668e+06
3.6614e+06
3.55672e+06
3.45279e+06
3.34964e+06
3.24732e+06
3.14586e+06
3.04532e+06
2.94574e+06
2.8472e+06
2.74976e+06
2.65352e+06
2.5586e+06
2.46518e+06
2.37355e+06
2.28421e+06
1.77613e+07
1.77598e+07
1.77569e+07
1.77525e+07
1.77466e+07
1.77391e+07
1.77301e+07
1.77194e+07
1.77072e+07
1.76933e+07
1.76777e+07
1.76605e+07
1.76416e+07
1.76211e+07
1.75988e+07
1.75748e+07
1.75492e+07
1.75218e+07
1.74928e+07
1.7462e+07
1.74296e+07
1.73955e+07
1.73597e+07
1.73222e+07
1.72831e+07
1.72424e+07
1.72e+07
1.7156e+07
1.71105e+07
1.70634e+07
1.70147e+07
1.69645e+07
1.69128e+07
1.68596e+07
1.68049e+07
1.67488e+07
1.66912e+07
1.66323e+07
1.6572e+07
1.65103e+07
1.64473e+07
1.6383e+07
1.63174e+07
1.62506e+07
1.61825e+07
1.61132e+07
1.60427e+07
1.5971e+07
1.58982e+07
1.58243e+07
1.57493e+07
1.56732e+07
1.5596e+07
1.55178e+07
1.54386e+07
1.53584e+07
1.52772e+07
1.5195e+07
1.5112e+07
1.5028e+07
1.49431e+07
1.48573e+07
1.47706e+07
1.46831e+07
1.45948e+07
1.45057e+07
1.44158e+07
1.43251e+07
1.42336e+07
1.41414e+07
1.40485e+07
1.39548e+07
1.38605e+07
1.37654e+07
1.36697e+07
1.35733e+07
1.34763e+07
1.33787e+07
1.32804e+07
1.31815e+07
1.3082e+07
1.2982e+07
1.28814e+07
1.27802e+07
1.26784e+07
1.25762e+07
1.24734e+07
1.23701e+07
1.22663e+07
1.2162e+07
1.20572e+07
1.1952e+07
1.18463e+07
1.17402e+07
1.16336e+07
1.15266e+07
1.14192e+07
1.13113e+07
1.12031e+07
1.10945e+07
1.09855e+07
1.08761e+07
1.07664e+07
1.06564e+07
1.0546e+07
1.04353e+07
1.03242e+07
1.02129e+07
1.01012e+07
9.98931e+06
9.87711e+06
9.76464e+06
9.65192e+06
9.53896e+06
9.42576e+06
9.31234e+06
9.19871e+06
9.08487e+06
8.97085e+06
8.85666e+06
8.74229e+06
8.62777e+06
8.51312e+06
8.39833e+06
8.28342e+06
8.16841e+06
8.0533e+06
7.93812e+06
7.82286e+06
7.70756e+06
7.59222e+06
7.47685e+06
7.36147e+06
7.2461e+06
7.13074e+06
7.01542e+06
6.90015e+06
6.78495e+06
6.66982e+06
6.5548e+06
6.43989e+06
6.32511e+06
6.21048e+06
6.09601e+06
5.98174e+06
5.86766e+06
5.75381e+06
5.6402e+06
5.52685e+06
5.41379e+06
5.30102e+06
5.18858e+06
5.07649e+06
4.96476e+06
4.85342e+06
4.74249e+06
4.63199e+06
4.52196e+06
4.41241e+06
4.30338e+06
4.19488e+06
4.08694e+06
3.97959e+06
3.87287e+06
3.76679e+06
3.66139e+06
3.55671e+06
3.45277e+06
3.34962e+06
3.24729e+06
3.14583e+06
3.04527e+06
2.94568e+06
2.84712e+06
2.74965e+06
2.65337e+06
2.55839e+06
2.46485e+06
2.37299e+06
2.28308e+06
1.77807e+07
1.77792e+07
1.77762e+07
1.77717e+07
1.77657e+07
1.77581e+07
1.77488e+07
1.7738e+07
1.77255e+07
1.77114e+07
1.76956e+07
1.76781e+07
1.76589e+07
1.7638e+07
1.76154e+07
1.75911e+07
1.75651e+07
1.75374e+07
1.75079e+07
1.74768e+07
1.74439e+07
1.74094e+07
1.73732e+07
1.73353e+07
1.72958e+07
1.72547e+07
1.72119e+07
1.71675e+07
1.71215e+07
1.7074e+07
1.70249e+07
1.69743e+07
1.69222e+07
1.68687e+07
1.68136e+07
1.67571e+07
1.66992e+07
1.664e+07
1.65793e+07
1.65173e+07
1.6454e+07
1.63894e+07
1.63235e+07
1.62564e+07
1.6188e+07
1.61184e+07
1.60477e+07
1.59758e+07
1.59028e+07
1.58286e+07
1.57534e+07
1.5677e+07
1.55997e+07
1.55213e+07
1.54419e+07
1.53615e+07
1.52801e+07
1.51978e+07
1.51146e+07
1.50305e+07
1.49454e+07
1.48595e+07
1.47727e+07
1.46851e+07
1.45967e+07
1.45075e+07
1.44174e+07
1.43267e+07
1.42351e+07
1.41428e+07
1.40498e+07
1.39561e+07
1.38616e+07
1.37665e+07
1.36707e+07
1.35743e+07
1.34772e+07
1.33795e+07
1.32812e+07
1.31822e+07
1.30827e+07
1.29826e+07
1.2882e+07
1.27807e+07
1.2679e+07
1.25767e+07
1.24739e+07
1.23705e+07
1.22667e+07
1.21624e+07
1.20576e+07
1.19523e+07
1.18466e+07
1.17404e+07
1.16338e+07
1.15268e+07
1.14194e+07
1.13115e+07
1.12033e+07
1.10947e+07
1.09857e+07
1.08763e+07
1.07666e+07
1.06565e+07
1.05461e+07
1.04354e+07
1.03243e+07
1.0213e+07
1.01013e+07
9.98939e+06
9.87718e+06
9.76471e+06
9.65198e+06
9.53901e+06
9.42581e+06
9.31238e+06
9.19875e+06
9.08491e+06
8.97089e+06
8.85669e+06
8.74232e+06
8.6278e+06
8.51314e+06
8.39835e+06
8.28344e+06
8.16842e+06
8.05332e+06
7.93813e+06
7.82288e+06
7.70757e+06
7.59223e+06
7.47686e+06
7.36148e+06
7.24611e+06
7.13075e+06
7.01543e+06
6.90016e+06
6.78495e+06
6.66983e+06
6.5548e+06
6.43989e+06
6.32511e+06
6.21048e+06
6.09602e+06
5.98174e+06
5.86767e+06
5.75381e+06
5.6402e+06
5.52686e+06
5.41379e+06
5.30102e+06
5.18858e+06
5.07649e+06
4.96476e+06
4.85342e+06
4.74249e+06
4.63199e+06
4.52196e+06
4.41241e+06
4.30337e+06
4.19487e+06
4.08693e+06
3.97959e+06
3.87286e+06
3.76678e+06
3.66138e+06
3.55669e+06
3.45275e+06
3.34959e+06
3.24725e+06
3.14577e+06
3.04521e+06
2.9456e+06
2.847e+06
2.7495e+06
2.65316e+06
2.55808e+06
2.46439e+06
2.37225e+06
2.28176e+06
1.78068e+07
1.78052e+07
1.78021e+07
1.77975e+07
1.77913e+07
1.77835e+07
1.7774e+07
1.77629e+07
1.77502e+07
1.77357e+07
1.77196e+07
1.77017e+07
1.76821e+07
1.76608e+07
1.76377e+07
1.76129e+07
1.75864e+07
1.75582e+07
1.75282e+07
1.74965e+07
1.74631e+07
1.7428e+07
1.73913e+07
1.73528e+07
1.73128e+07
1.7271e+07
1.72277e+07
1.71828e+07
1.71363e+07
1.70882e+07
1.70386e+07
1.69874e+07
1.69348e+07
1.68807e+07
1.68252e+07
1.67682e+07
1.67099e+07
1.66501e+07
1.6589e+07
1.65266e+07
1.64629e+07
1.63979e+07
1.63316e+07
1.62641e+07
1.61953e+07
1.61254e+07
1.60543e+07
1.59821e+07
1.59088e+07
1.58343e+07
1.57588e+07
1.56822e+07
1.56046e+07
1.55259e+07
1.54463e+07
1.53656e+07
1.52841e+07
1.52016e+07
1.51181e+07
1.50338e+07
1.49486e+07
1.48625e+07
1.47755e+07
1.46878e+07
1.45992e+07
1.45098e+07
1.44197e+07
1.43287e+07
1.42371e+07
1.41447e+07
1.40515e+07
1.39577e+07
1.38632e+07
1.37679e+07
1.36721e+07
1.35756e+07
1.34784e+07
1.33806e+07
1.32822e+07
1.31832e+07
1.30836e+07
1.29835e+07
1.28828e+07
1.27815e+07
1.26797e+07
1.25773e+07
1.24745e+07
1.23711e+07
1.22672e+07
1.21629e+07
1.2058e+07
1.19528e+07
1.1847e+07
1.17408e+07
1.16342e+07
1.15271e+07
1.14197e+07
1.13118e+07
1.12035e+07
1.10949e+07
1.09859e+07
1.08765e+07
1.07668e+07
1.06567e+07
1.05463e+07
1.04355e+07
1.03245e+07
1.02131e+07
1.01014e+07
9.98949e+06
9.87727e+06
9.76479e+06
9.65206e+06
9.53908e+06
9.42587e+06
9.31244e+06
9.1988e+06
9.08496e+06
8.97093e+06
8.85673e+06
8.74236e+06
8.62784e+06
8.51317e+06
8.39838e+06
8.28346e+06
8.16845e+06
8.05334e+06
7.93815e+06
7.82289e+06
7.70759e+06
7.59224e+06
7.47687e+06
7.36149e+06
7.24612e+06
7.13076e+06
7.01544e+06
6.90016e+06
6.78496e+06
6.66983e+06
6.55481e+06
6.43989e+06
6.32512e+06
6.21048e+06
6.09602e+06
5.98174e+06
5.86767e+06
5.75382e+06
5.64021e+06
5.52686e+06
5.41379e+06
5.30103e+06
5.18858e+06
5.07649e+06
4.96476e+06
4.85342e+06
4.74249e+06
4.63199e+06
4.52196e+06
4.41241e+06
4.30337e+06
4.19487e+06
4.08693e+06
3.97958e+06
3.87284e+06
3.76676e+06
3.66136e+06
3.55666e+06
3.45272e+06
3.34955e+06
3.2472e+06
3.14571e+06
3.04512e+06
2.94548e+06
2.84685e+06
2.7493e+06
2.65288e+06
2.55769e+06
2.46383e+06
2.37139e+06
2.28037e+06
1.78396e+07
1.7838e+07
1.78348e+07
1.783e+07
1.78236e+07
1.78156e+07
1.78058e+07
1.77944e+07
1.77812e+07
1.77663e+07
1.77497e+07
1.77313e+07
1.77112e+07
1.76893e+07
1.76657e+07
1.76403e+07
1.76131e+07
1.75842e+07
1.75536e+07
1.75212e+07
1.74871e+07
1.74514e+07
1.74139e+07
1.73747e+07
1.73339e+07
1.72915e+07
1.72475e+07
1.72018e+07
1.71546e+07
1.71059e+07
1.70556e+07
1.70038e+07
1.69505e+07
1.68958e+07
1.68396e+07
1.6782e+07
1.67231e+07
1.66628e+07
1.66011e+07
1.65382e+07
1.64739e+07
1.64084e+07
1.63416e+07
1.62736e+07
1.62045e+07
1.61341e+07
1.60626e+07
1.599e+07
1.59162e+07
1.58414e+07
1.57655e+07
1.56886e+07
1.56106e+07
1.55317e+07
1.54517e+07
1.53708e+07
1.52889e+07
1.52062e+07
1.51225e+07
1.50379e+07
1.49525e+07
1.48662e+07
1.4779e+07
1.46911e+07
1.46023e+07
1.45127e+07
1.44224e+07
1.43313e+07
1.42395e+07
1.41469e+07
1.40537e+07
1.39597e+07
1.38651e+07
1.37697e+07
1.36738e+07
1.35771e+07
1.34799e+07
1.3382e+07
1.32835e+07
1.31844e+07
1.30848e+07
1.29845e+07
1.28838e+07
1.27824e+07
1.26805e+07
1.25781e+07
1.24752e+07
1.23718e+07
1.22679e+07
1.21635e+07
1.20586e+07
1.19533e+07
1.18475e+07
1.17413e+07
1.16346e+07
1.15275e+07
1.142e+07
1.13121e+07
1.12039e+07
1.10952e+07
1.09861e+07
1.08767e+07
1.0767e+07
1.06569e+07
1.05464e+07
1.04357e+07
1.03246e+07
1.02132e+07
1.01016e+07
9.98962e+06
9.87739e+06
9.7649e+06
9.65216e+06
9.53917e+06
9.42595e+06
9.31252e+06
9.19887e+06
9.08502e+06
8.97099e+06
8.85678e+06
8.74241e+06
8.62788e+06
8.51321e+06
8.39841e+06
8.28349e+06
8.16847e+06
8.05336e+06
7.93817e+06
7.82291e+06
7.70761e+06
7.59226e+06
7.47689e+06
7.36151e+06
7.24613e+06
7.13077e+06
7.01545e+06
6.90017e+06
6.78497e+06
6.66984e+06
6.55481e+06
6.4399e+06
6.32512e+06
6.21049e+06
6.09603e+06
5.98175e+06
5.86767e+06
5.75382e+06
5.64021e+06
5.52686e+06
5.41379e+06
5.30103e+06
5.18859e+06
5.07649e+06
4.96476e+06
4.85342e+06
4.74249e+06
4.63199e+06
4.52196e+06
4.41241e+06
4.30337e+06
4.19486e+06
4.08692e+06
3.97956e+06
3.87283e+06
3.76674e+06
3.66133e+06
3.55663e+06
3.45268e+06
3.3495e+06
3.24713e+06
3.14562e+06
3.04501e+06
2.94534e+06
2.84667e+06
2.74906e+06
2.65256e+06
2.55724e+06
2.46319e+06
2.37045e+06
2.27898e+06
1.78795e+07
1.78778e+07
1.78745e+07
1.78695e+07
1.78628e+07
1.78544e+07
1.78443e+07
1.78324e+07
1.78188e+07
1.78034e+07
1.77862e+07
1.77672e+07
1.77464e+07
1.77238e+07
1.76995e+07
1.76733e+07
1.76454e+07
1.76156e+07
1.75842e+07
1.7551e+07
1.7516e+07
1.74794e+07
1.7441e+07
1.7401e+07
1.73593e+07
1.7316e+07
1.72711e+07
1.72246e+07
1.71766e+07
1.7127e+07
1.70759e+07
1.70233e+07
1.69692e+07
1.69138e+07
1.68568e+07
1.67985e+07
1.67389e+07
1.66779e+07
1.66156e+07
1.65519e+07
1.64871e+07
1.64209e+07
1.63536e+07
1.6285e+07
1.62153e+07
1.61444e+07
1.60724e+07
1.59993e+07
1.59251e+07
1.58498e+07
1.57735e+07
1.56962e+07
1.56178e+07
1.55385e+07
1.54582e+07
1.53769e+07
1.52947e+07
1.52117e+07
1.51277e+07
1.50428e+07
1.49571e+07
1.48705e+07
1.47831e+07
1.4695e+07
1.4606e+07
1.45162e+07
1.44257e+07
1.43344e+07
1.42424e+07
1.41497e+07
1.40562e+07
1.39621e+07
1.38673e+07
1.37719e+07
1.36758e+07
1.3579e+07
1.34816e+07
1.33836e+07
1.32851e+07
1.31859e+07
1.30861e+07
1.29858e+07
1.28849e+07
1.27835e+07
1.26816e+07
1.25791e+07
1.24761e+07
1.23726e+07
1.22687e+07
1.21642e+07
1.20593e+07
1.19539e+07
1.18481e+07
1.17418e+07
1.16351e+07
1.1528e+07
1.14205e+07
1.13125e+07
1.12042e+07
1.10955e+07
1.09865e+07
1.0877e+07
1.07673e+07
1.06571e+07
1.05467e+07
1.04359e+07
1.03248e+07
1.02134e+07
1.01017e+07
9.98977e+06
9.87753e+06
9.76503e+06
9.65227e+06
9.53928e+06
9.42605e+06
9.31261e+06
9.19895e+06
9.0851e+06
8.97106e+06
8.85684e+06
8.74246e+06
8.62793e+06
8.51326e+06
8.39845e+06
8.28353e+06
8.16851e+06
8.05339e+06
7.9382e+06
7.82294e+06
7.70763e+06
7.59228e+06
7.47691e+06
7.36152e+06
7.24614e+06
7.13078e+06
7.01546e+06
6.90018e+06
6.78498e+06
6.66985e+06
6.55482e+06
6.43991e+06
6.32513e+06
6.2105e+06
6.09603e+06
5.98175e+06
5.86768e+06
5.75383e+06
5.64021e+06
5.52686e+06
5.4138e+06
5.30103e+06
5.18859e+06
5.07649e+06
4.96476e+06
4.85342e+06
4.74249e+06
4.63199e+06
4.52195e+06
4.4124e+06
4.30336e+06
4.19485e+06
4.08691e+06
3.97955e+06
3.87281e+06
3.76672e+06
3.6613e+06
3.5566e+06
3.45263e+06
3.34944e+06
3.24706e+06
3.14553e+06
3.04489e+06
2.94519e+06
2.84646e+06
2.74878e+06
2.65219e+06
2.55674e+06
2.4625e+06
2.36947e+06
2.2776e+06
1.79267e+07
1.79249e+07
1.79214e+07
1.79162e+07
1.79092e+07
1.79004e+07
1.78898e+07
1.78774e+07
1.78632e+07
1.78471e+07
1.78292e+07
1.78094e+07
1.77878e+07
1.77644e+07
1.77391e+07
1.77121e+07
1.76832e+07
1.76525e+07
1.762e+07
1.75858e+07
1.75498e+07
1.75121e+07
1.74727e+07
1.74317e+07
1.73889e+07
1.73446e+07
1.72987e+07
1.72512e+07
1.72021e+07
1.71516e+07
1.70995e+07
1.7046e+07
1.6991e+07
1.69346e+07
1.68768e+07
1.68177e+07
1.67572e+07
1.66954e+07
1.66323e+07
1.65679e+07
1.65023e+07
1.64354e+07
1.63674e+07
1.62982e+07
1.62279e+07
1.61564e+07
1.60838e+07
1.60101e+07
1.59354e+07
1.58596e+07
1.57828e+07
1.57049e+07
1.56261e+07
1.55464e+07
1.54657e+07
1.5384e+07
1.53014e+07
1.5218e+07
1.51337e+07
1.50485e+07
1.49624e+07
1.48756e+07
1.47879e+07
1.46995e+07
1.46102e+07
1.45202e+07
1.44294e+07
1.4338e+07
1.42457e+07
1.41528e+07
1.40592e+07
1.39649e+07
1.38699e+07
1.37743e+07
1.36781e+07
1.35812e+07
1.34837e+07
1.33855e+07
1.32868e+07
1.31875e+07
1.30877e+07
1.29873e+07
1.28863e+07
1.27848e+07
1.26828e+07
1.25802e+07
1.24771e+07
1.23736e+07
1.22696e+07
1.2165e+07
1.20601e+07
1.19546e+07
1.18488e+07
1.17424e+07
1.16357e+07
1.15285e+07
1.1421e+07
1.1313e+07
1.12047e+07
1.10959e+07
1.09868e+07
1.08774e+07
1.07676e+07
1.06574e+07
1.05469e+07
1.04361e+07
1.0325e+07
1.02136e+07
1.01019e+07
9.98994e+06
9.87769e+06
9.76517e+06
9.65241e+06
9.5394e+06
9.42616e+06
9.31271e+06
9.19905e+06
9.08518e+06
8.97114e+06
8.85691e+06
8.74253e+06
8.62799e+06
8.51331e+06
8.3985e+06
8.28358e+06
8.16855e+06
8.05343e+06
7.93823e+06
7.82297e+06
7.70765e+06
7.5923e+06
7.47693e+06
7.36154e+06
7.24616e+06
7.1308e+06
7.01547e+06
6.9002e+06
6.78499e+06
6.66986e+06
6.55483e+06
6.43992e+06
6.32514e+06
6.2105e+06
6.09604e+06
5.98176e+06
5.86768e+06
5.75383e+06
5.64022e+06
5.52687e+06
5.4138e+06
5.30103e+06
5.18859e+06
5.07649e+06
4.96476e+06
4.85342e+06
4.74248e+06
4.63199e+06
4.52195e+06
4.4124e+06
4.30335e+06
4.19484e+06
4.0869e+06
3.97954e+06
3.87279e+06
3.7667e+06
3.66127e+06
3.55656e+06
3.45258e+06
3.34937e+06
3.24697e+06
3.14542e+06
3.04475e+06
2.94501e+06
2.84623e+06
2.74848e+06
2.65179e+06
2.55621e+06
2.46177e+06
2.36848e+06
2.27626e+06
1.79816e+07
1.79796e+07
1.79759e+07
1.79703e+07
1.79629e+07
1.79537e+07
1.79425e+07
1.79295e+07
1.79145e+07
1.78977e+07
1.78789e+07
1.78582e+07
1.78357e+07
1.78112e+07
1.77849e+07
1.77567e+07
1.77266e+07
1.76948e+07
1.76611e+07
1.76257e+07
1.75885e+07
1.75496e+07
1.75089e+07
1.74667e+07
1.74227e+07
1.73772e+07
1.73301e+07
1.72814e+07
1.72312e+07
1.71795e+07
1.71263e+07
1.70717e+07
1.70157e+07
1.69583e+07
1.68995e+07
1.68393e+07
1.67779e+07
1.67152e+07
1.66512e+07
1.65859e+07
1.65195e+07
1.64519e+07
1.63831e+07
1.63131e+07
1.6242e+07
1.61699e+07
1.60966e+07
1.60223e+07
1.5947e+07
1.58706e+07
1.57932e+07
1.57149e+07
1.56355e+07
1.55553e+07
1.54741e+07
1.5392e+07
1.5309e+07
1.52252e+07
1.51404e+07
1.50549e+07
1.49685e+07
1.48813e+07
1.47933e+07
1.47045e+07
1.4615e+07
1.45247e+07
1.44337e+07
1.4342e+07
1.42495e+07
1.41564e+07
1.40625e+07
1.3968e+07
1.38729e+07
1.37771e+07
1.36807e+07
1.35836e+07
1.34859e+07
1.33877e+07
1.32888e+07
1.31894e+07
1.30894e+07
1.29889e+07
1.28878e+07
1.27862e+07
1.26841e+07
1.25815e+07
1.24783e+07
1.23747e+07
1.22706e+07
1.2166e+07
1.20609e+07
1.19555e+07
1.18495e+07
1.17431e+07
1.16364e+07
1.15291e+07
1.14215e+07
1.13135e+07
1.12051e+07
1.10964e+07
1.09872e+07
1.08778e+07
1.07679e+07
1.06577e+07
1.05472e+07
1.04364e+07
1.03253e+07
1.02139e+07
1.01021e+07
9.99014e+06
9.87787e+06
9.76534e+06
9.65256e+06
9.53954e+06
9.42629e+06
9.31283e+06
9.19915e+06
9.08528e+06
8.97123e+06
8.85699e+06
8.7426e+06
8.62805e+06
8.51337e+06
8.39856e+06
8.28363e+06
8.16859e+06
8.05347e+06
7.93827e+06
7.823e+06
7.70768e+06
7.59233e+06
7.47695e+06
7.36156e+06
7.24618e+06
7.13082e+06
7.01549e+06
6.90021e+06
6.785e+06
6.66987e+06
6.55484e+06
6.43993e+06
6.32514e+06
6.21051e+06
6.09605e+06
5.98177e+06
5.86769e+06
5.75384e+06
5.64022e+06
5.52687e+06
5.4138e+06
5.30104e+06
5.18859e+06
5.07649e+06
4.96476e+06
4.85342e+06
4.74248e+06
4.63199e+06
4.52195e+06
4.41239e+06
4.30335e+06
4.19484e+06
4.08688e+06
3.97952e+06
3.87277e+06
3.76667e+06
3.66124e+06
3.55651e+06
3.45252e+06
3.3493e+06
3.24688e+06
3.1453e+06
3.0446e+06
2.94482e+06
2.84599e+06
2.74815e+06
2.65136e+06
2.55565e+06
2.46103e+06
2.36749e+06
2.27497e+06
1.80445e+07
1.80424e+07
1.80384e+07
1.80324e+07
1.80246e+07
1.80147e+07
1.80029e+07
1.7989e+07
1.79732e+07
1.79554e+07
1.79356e+07
1.79138e+07
1.78901e+07
1.78644e+07
1.78368e+07
1.78072e+07
1.77758e+07
1.77426e+07
1.77075e+07
1.76707e+07
1.76321e+07
1.75917e+07
1.75497e+07
1.7506e+07
1.74607e+07
1.74138e+07
1.73653e+07
1.73153e+07
1.72638e+07
1.72108e+07
1.71563e+07
1.71005e+07
1.70432e+07
1.69846e+07
1.69247e+07
1.68635e+07
1.6801e+07
1.67372e+07
1.66722e+07
1.6606e+07
1.65387e+07
1.64701e+07
1.64005e+07
1.63297e+07
1.62578e+07
1.61849e+07
1.61109e+07
1.60359e+07
1.59598e+07
1.58828e+07
1.58048e+07
1.57259e+07
1.5646e+07
1.55652e+07
1.54835e+07
1.54009e+07
1.53174e+07
1.52331e+07
1.5148e+07
1.5062e+07
1.49752e+07
1.48876e+07
1.47993e+07
1.47102e+07
1.46203e+07
1.45298e+07
1.44384e+07
1.43464e+07
1.42537e+07
1.41603e+07
1.40663e+07
1.39715e+07
1.38762e+07
1.37802e+07
1.36836e+07
1.35863e+07
1.34885e+07
1.33901e+07
1.32911e+07
1.31915e+07
1.30914e+07
1.29907e+07
1.28896e+07
1.27878e+07
1.26856e+07
1.25829e+07
1.24796e+07
1.23759e+07
1.22717e+07
1.2167e+07
1.20619e+07
1.19564e+07
1.18504e+07
1.17439e+07
1.16371e+07
1.15298e+07
1.14222e+07
1.13141e+07
1.12057e+07
1.10969e+07
1.09877e+07
1.08782e+07
1.07683e+07
1.06581e+07
1.05476e+07
1.04367e+07
1.03256e+07
1.02141e+07
1.01024e+07
9.99036e+06
9.87807e+06
9.76552e+06
9.65273e+06
9.53969e+06
9.42643e+06
9.31295e+06
9.19927e+06
9.08539e+06
8.97132e+06
8.85708e+06
8.74268e+06
8.62813e+06
8.51344e+06
8.39862e+06
8.28368e+06
8.16864e+06
8.05351e+06
7.93831e+06
7.82304e+06
7.70772e+06
7.59236e+06
7.47698e+06
7.36159e+06
7.2462e+06
7.13083e+06
7.01551e+06
6.90023e+06
6.78501e+06
6.66988e+06
6.55485e+06
6.43994e+06
6.32516e+06
6.21052e+06
6.09606e+06
5.98177e+06
5.8677e+06
5.75384e+06
5.64023e+06
5.52688e+06
5.41381e+06
5.30104e+06
5.1886e+06
5.0765e+06
4.96476e+06
4.85342e+06
4.74248e+06
4.63199e+06
4.52195e+06
4.41239e+06
4.30334e+06
4.19483e+06
4.08687e+06
3.9795e+06
3.87275e+06
3.76664e+06
3.6612e+06
3.55647e+06
3.45246e+06
3.34922e+06
3.24679e+06
3.14518e+06
3.04444e+06
2.94461e+06
2.84572e+06
2.74782e+06
2.65092e+06
2.55507e+06
2.46028e+06
2.36652e+06
2.27374e+06
1.8116e+07
1.81137e+07
1.81093e+07
1.81029e+07
1.80944e+07
1.80839e+07
1.80712e+07
1.80564e+07
1.80395e+07
1.80206e+07
1.79995e+07
1.79764e+07
1.79513e+07
1.79241e+07
1.7895e+07
1.78639e+07
1.78309e+07
1.77961e+07
1.77594e+07
1.77209e+07
1.76806e+07
1.76386e+07
1.7595e+07
1.75497e+07
1.75028e+07
1.74543e+07
1.74042e+07
1.73527e+07
1.72997e+07
1.72452e+07
1.71894e+07
1.71322e+07
1.70736e+07
1.70137e+07
1.69525e+07
1.689e+07
1.68263e+07
1.67614e+07
1.66953e+07
1.66281e+07
1.65597e+07
1.64902e+07
1.64195e+07
1.63479e+07
1.62751e+07
1.62013e+07
1.61265e+07
1.60507e+07
1.59739e+07
1.58962e+07
1.58175e+07
1.57379e+07
1.56574e+07
1.5576e+07
1.54937e+07
1.54106e+07
1.53266e+07
1.52418e+07
1.51562e+07
1.50698e+07
1.49826e+07
1.48946e+07
1.48059e+07
1.47164e+07
1.46262e+07
1.45352e+07
1.44436e+07
1.43513e+07
1.42583e+07
1.41646e+07
1.40703e+07
1.39754e+07
1.38798e+07
1.37835e+07
1.36867e+07
1.35893e+07
1.34913e+07
1.33927e+07
1.32935e+07
1.31938e+07
1.30936e+07
1.29928e+07
1.28914e+07
1.27896e+07
1.26872e+07
1.25844e+07
1.2481e+07
1.23772e+07
1.22729e+07
1.21682e+07
1.2063e+07
1.19574e+07
1.18513e+07
1.17448e+07
1.16379e+07
1.15306e+07
1.14229e+07
1.13148e+07
1.12063e+07
1.10974e+07
1.09882e+07
1.08787e+07
1.07687e+07
1.06585e+07
1.05479e+07
1.04371e+07
1.03259e+07
1.02144e+07
1.01026e+07
9.9906e+06
9.87829e+06
9.76573e+06
9.65291e+06
9.53986e+06
9.42659e+06
9.3131e+06
9.1994e+06
9.08551e+06
8.97143e+06
8.85718e+06
8.74277e+06
8.62821e+06