/*--------------------------------*- C++ -*----------------------------------*\
  =========                 |
  \\      /  F ield         | OpenFOAM: The Open Source CFD Toolbox
   \\    /   O peration     | Website:  https://openfoam.org
    \\  /    A nd           | Version:  7
     \\/     M anipulation  |
\*---------------------------------------------------------------------------*/
FoamFile
{
    version     2.0;
    format      ascii;
    class       volSymmTensorField;
    location    "0.013";
    object      UPrime2Mean;
}
// * * * * * * * * * * * * * * * * * * * * * * * * * * * * * * * * * * * * * //

dimensions      [0 2 -2 0 0 0 0];

internalField   nonuniform List<symmTensor> 
12225
(
(0.0077059 -0.00108788 0 0.000704212 0 0)
(0.139789 -0.00622692 0 0.000627226 0 0)
(0.203629 -0.00882761 0 0.000752553 0 0)
(0.266038 -0.0102994 0 0.000740854 0 0)
(0.367902 -0.0118761 0 0.000683281 0 0)
(0.506209 -0.0134576 0 0.000606941 0 0)
(0.668252 -0.0144078 0 0.000533079 0 0)
(0.843611 -0.0139153 0 0.000375064 0 0)
(1.01931 -0.0141732 0 0.000340578 0 0)
(1.19909 -0.0104647 0 0.000189063 0 0)
(1.36889 -0.0147203 0 0.000254145 0 0)
(1.54828 -0.00429328 0 0.000163781 0 0)
(1.7321 -0.0252914 0 0.000626162 0 0)
(1.93938 0.0096242 0 0.000895132 0 0)
(2.23438 -0.0754549 0 0.00494764 0 0)
(2.61681 0.0631214 0 0.00831261 0 0)
(3.39804 -0.350283 0 0.0675775 0 0)
(5.08579 0.190484 0 0.038808 0 0)
(0.00853575 -0.000970799 0 0.000677572 0 0)
(0.094125 -0.00367184 0 0.000457105 0 0)
(0.103071 -0.00539171 0 0.000844949 0 0)
(0.1047 -0.00606347 0 0.0011996 0 0)
(0.121316 -0.00740269 0 0.00154772 0 0)
(0.148023 -0.00965485 0 0.00188833 0 0)
(0.183477 -0.012277 0 0.00208483 0 0)
(0.229574 -0.0151614 0 0.00226472 0 0)
(0.282085 -0.01708 0 0.00206246 0 0)
(0.351185 -0.0204951 0 0.00218472 0 0)
(0.420187 -0.0207498 0 0.00171219 0 0)
(0.523521 -0.0283765 0 0.0022707 0 0)
(0.61062 -0.0257778 0 0.00173606 0 0)
(0.786261 -0.0500385 0 0.00422825 0 0)
(0.907292 -0.0428333 0 0.00394953 0 0)
(1.29984 -0.135218 0 0.0190183 0 0)
(1.52079 -0.158967 0 0.0201573 0 0)
(2.49775 -0.656373 0 0.206239 0 0)
(0.00629389 -0.000904104 0 0.000956711 0 0)
(0.0915261 -0.00553047 0 0.000904205 0 0)
(0.097329 -0.0072456 0 0.00159841 0 0)
(0.0934552 -0.00720557 0 0.0022059 0 0)
(0.100104 -0.00749784 0 0.00271172 0 0)
(0.110293 -0.0084933 0 0.00312574 0 0)
(0.12252 -0.00986333 0 0.00356303 0 0)
(0.137432 -0.0113147 0 0.00358349 0 0)
(0.156457 -0.0134103 0 0.00387652 0 0)
(0.180359 -0.0150071 0 0.00353538 0 0)
(0.212954 -0.0195631 0 0.00407124 0 0)
(0.253681 -0.0216704 0 0.00360396 0 0)
(0.312615 -0.0340268 0 0.00567283 0 0)
(0.387823 -0.0379313 0 0.00518599 0 0)
(0.506521 -0.0799471 0 0.0153606 0 0)
(0.664682 -0.0995177 0 0.0165255 0 0)
(0.908272 -0.264277 0 0.0840156 0 0)
(1.2051 -0.471648 0 0.196958 0 0)
(0.00701506 -0.00141218 0 0.00133356 0 0)
(0.0917709 -0.00614804 0 0.00123395 0 0)
(0.0967417 -0.0075792 0 0.00184446 0 0)
(0.0927035 -0.00759635 0 0.00251102 0 0)
(0.0986442 -0.00793432 0 0.00306744 0 0)
(0.107357 -0.00896184 0 0.00359231 0 0)
(0.11735 -0.0104017 0 0.00403033 0 0)
(0.129358 -0.0121081 0 0.00449835 0 0)
(0.144082 -0.0140711 0 0.00470498 0 0)
(0.163433 -0.0170725 0 0.005195 0 0)
(0.188276 -0.0207981 0 0.00547094 0 0)
(0.222383 -0.0277598 0 0.00671084 0 0)
(0.267258 -0.0366052 0 0.00797902 0 0)
(0.331813 -0.0554236 0 0.0123892 0 0)
(0.419461 -0.0830995 0 0.0192737 0 0)
(0.542788 -0.142895 0 0.0411799 0 0)
(0.702062 -0.253428 0 0.0946272 0 0)
(0.844977 -0.430837 0 0.226037 0 0)
(0.00840064 -0.0013971 0 0.00178774 0 0)
(0.0911111 -0.00743987 0 0.00172329 0 0)
(0.0951895 -0.00884398 0 0.00240498 0 0)
(0.0914436 -0.00890592 0 0.00326147 0 0)
(0.0976836 -0.00933761 0 0.00394784 0 0)
(0.106407 -0.010578 0 0.00453202 0 0)
(0.116176 -0.0123943 0 0.00519933 0 0)
(0.127604 -0.0145835 0 0.00574009 0 0)
(0.141579 -0.0174469 0 0.00650119 0 0)
(0.159335 -0.0209412 0 0.00711914 0 0)
(0.182532 -0.026611 0 0.00836633 0 0)
(0.213029 -0.0341129 0 0.00985081 0 0)
(0.253765 -0.0474371 0 0.0133866 0 0)
(0.308379 -0.0666843 0 0.0187726 0 0)
(0.381073 -0.102536 0 0.0321812 0 0)
(0.472593 -0.160247 0 0.0588299 0 0)
(0.575423 -0.258419 0 0.120125 0 0)
(0.64522 -0.407585 0 0.269571 0 0)
(0.00630987 -0.00191959 0 0.00162382 0 0)
(0.0898428 -0.00856108 0 0.00207593 0 0)
(0.0935448 -0.009701 0 0.00293884 0 0)
(0.0897876 -0.00967245 0 0.00399906 0 0)
(0.0960374 -0.0102367 0 0.00486126 0 0)
(0.104688 -0.0117225 0 0.00560764 0 0)
(0.114254 -0.0138935 0 0.00637342 0 0)
(0.125227 -0.0165959 0 0.00724472 0 0)
(0.138324 -0.0199605 0 0.00821109 0 0)
(0.154662 -0.0244483 0 0.00946321 0 0)
(0.175743 -0.0308243 0 0.0111842 0 0)
(0.202994 -0.0403117 0 0.0139818 0 0)
(0.238712 -0.0547981 0 0.0187233 0 0)
(0.284247 -0.0773338 0 0.0273517 0 0)
(0.341873 -0.113505 0 0.0441267 0 0)
(0.406065 -0.169005 0 0.0768914 0 0)
(0.469635 -0.253438 0 0.143786 0 0)
(0.499667 -0.359328 0 0.267673 0 0)
(0.00756418 -0.00209632 0 0.00214111 0 0)
(0.0880892 -0.00974053 0 0.00287282 0 0)
(0.0900503 -0.01067 0 0.00378588 0 0)
(0.0856853 -0.0104049 0 0.00496715 0 0)
(0.0912485 -0.0109054 0 0.00602007 0 0)
(0.0988433 -0.0124246 0 0.00694051 0 0)
(0.107267 -0.0147296 0 0.00792829 0 0)
(0.117141 -0.0177063 0 0.00905417 0 0)
(0.129072 -0.0215567 0 0.0104617 0 0)
(0.14386 -0.0266802 0 0.0122911 0 0)
(0.162548 -0.0339406 0 0.0148819 0 0)
(0.186023 -0.044442 0 0.0189073 0 0)
(0.21554 -0.0599599 0 0.0254586 0 0)
(0.251219 -0.0831558 0 0.0368897 0 0)
(0.293085 -0.117559 0 0.057008 0 0)
(0.334825 -0.167292 0 0.0941976 0 0)
(0.369779 -0.233393 0 0.158192 0 0)
(0.375377 -0.308368 0 0.266662 0 0)
(0.00565396 -0.00196616 0 0.00249051 0 0)
(0.0853991 -0.0104779 0 0.00326357 0 0)
(0.0872171 -0.0110078 0 0.00445341 0 0)
(0.0830087 -0.0103775 0 0.00573304 0 0)
(0.0884232 -0.010901 0 0.00695399 0 0)
(0.095452 -0.012637 0 0.00814769 0 0)
(0.103006 -0.0152038 0 0.00945675 0 0)
(0.111813 -0.0185029 0 0.0110029 0 0)
(0.122438 -0.0227632 0 0.0129136 0 0)
(0.135467 -0.0284216 0 0.0153908 0 0)
(0.151582 -0.0362597 0 0.018841 0 0)
(0.17122 -0.0473287 0 0.0240749 0 0)
(0.194821 -0.0631397 0 0.0323581 0 0)
(0.22166 -0.0856239 0 0.0460671 0 0)
(0.250447 -0.116958 0 0.0687639 0 0)
(0.275398 -0.158559 0 0.106915 0 0)
(0.291068 -0.208854 0 0.167133 0 0)
(0.283902 -0.260253 0 0.259398 0 0)
(0.00790676 -0.00231756 0 0.00266316 0 0)
(0.0854315 -0.0116789 0 0.00392981 0 0)
(0.0848934 -0.0118354 0 0.00524564 0 0)
(0.079745 -0.0106049 0 0.00670343 0 0)
(0.0846919 -0.0109361 0 0.00823164 0 0)
(0.0910758 -0.0127228 0 0.00975256 0 0)
(0.0976457 -0.0153807 0 0.0113875 0 0)
(0.105063 -0.0187364 0 0.0133185 0 0)
(0.113787 -0.023024 0 0.0157364 0 0)
(0.124249 -0.0287132 0 0.0189418 0 0)
(0.136878 -0.0365147 0 0.023367 0 0)
(0.15177 -0.0472977 0 0.0298722 0 0)
(0.168856 -0.0621647 0 0.0396974 0 0)
(0.186954 -0.0823334 0 0.0551452 0 0)
(0.204472 -0.108782 0 0.0791293 0 0)
(0.216613 -0.141299 0 0.116576 0 0)
(0.220082 -0.177333 0 0.171218 0 0)
(0.206507 -0.210034 0 0.248153 0 0)
(0.00664847 -0.0022695 0 0.00330746 0 0)
(0.0845096 -0.012696 0 0.00466048 0 0)
(0.0837491 -0.0126534 0 0.00629845 0 0)
(0.0784304 -0.0110989 0 0.00798577 0 0)
(0.0830666 -0.0113269 0 0.00974779 0 0)
(0.0888255 -0.0131856 0 0.011559 0 0)
(0.0945148 -0.0159527 0 0.0135359 0 0)
(0.100818 -0.0194004 0 0.0158846 0 0)
(0.108121 -0.0237554 0 0.0188334 0 0)
(0.116691 -0.0294662 0 0.0227264 0 0)
(0.126768 -0.0371731 0 0.0280325 0 0)
(0.138182 -0.0475585 0 0.0356413 0 0)
(0.150551 -0.0613815 0 0.046719 0 0)
(0.162468 -0.079179 0 0.0632817 0 0)
(0.172461 -0.101131 0 0.0875131 0 0)
(0.176709 -0.126039 0 0.122905 0 0)
(0.17374 -0.15138 0 0.17112 0 0)
(0.158114 -0.171469 0 0.234858 0 0)
(0.00883092 -0.0026607 0 0.00351837 0 0)
(0.0865863 -0.0141908 0 0.00503432 0 0)
(0.0842794 -0.0145281 0 0.00672993 0 0)
(0.0779165 -0.0129018 0 0.00864712 0 0)
(0.0818587 -0.0131185 0 0.0107208 0 0)
(0.087083 -0.0150337 0 0.0128888 0 0)
(0.092148 -0.0178472 0 0.0152279 0 0)
(0.0975444 -0.0212766 0 0.0179625 0 0)
(0.103565 -0.0255392 0 0.0214054 0 0)
(0.110391 -0.031059 0 0.0259683 0 0)
(0.118084 -0.0383545 0 0.0321323 0 0)
(0.126312 -0.0478872 0 0.0406954 0 0)
(0.134517 -0.0600686 0 0.0526264 0 0)
(0.141413 -0.0749786 0 0.0695357 0 0)
(0.14577 -0.0922681 0 0.092929 0 0)
(0.144994 -0.11047 0 0.125111 0 0)
(0.138642 -0.127342 0 0.166518 0 0)
(0.123439 -0.138769 0 0.218511 0 0)
(0.00643616 -0.00268699 0 0.00399412 0 0)
(0.0840317 -0.0143171 0 0.00588604 0 0)
(0.0823219 -0.0147328 0 0.00769976 0 0)
(0.0761127 -0.0128955 0 0.00974483 0 0)
(0.0796438 -0.0129375 0 0.0120127 0 0)
(0.0841432 -0.0147942 0 0.0145056 0 0)
(0.088397 -0.0175654 0 0.0172628 0 0)
(0.0928905 -0.0208858 0 0.0204525 0 0)
(0.0977402 -0.0248943 0 0.024374 0 0)
(0.102932 -0.0299466 0 0.0294729 0 0)
(0.108359 -0.0364488 0 0.0362509 0 0)
(0.113622 -0.0446669 0 0.0454456 0 0)
(0.118171 -0.0547404 0 0.0578503 0 0)
(0.120994 -0.0664337 0 0.074713 0 0)
(0.121283 -0.0791801 0 0.0969614 0 0)
(0.117367 -0.0914996 0 0.12608 0 0)
(0.109514 -0.101658 0 0.161771 0 0)
(0.0955207 -0.106546 0 0.204794 0 0)
(0.00733088 -0.00362314 0 0.00432434 0 0)
(0.0849618 -0.0157449 0 0.00640339 0 0)
(0.0824142 -0.0158475 0 0.00830256 0 0)
(0.0756933 -0.0137578 0 0.0104347 0 0)
(0.0787943 -0.0137301 0 0.0128459 0 0)
(0.0827059 -0.0155632 0 0.015558 0 0)
(0.0861067 -0.0182384 0 0.0185828 0 0)
(0.0894948 -0.0213158 0 0.022064 0 0)
(0.0930703 -0.0249356 0 0.0263044 0 0)
(0.0968359 -0.0294462 0 0.0317511 0 0)
(0.100608 -0.0351708 0 0.0388619 0 0)
(0.103913 -0.0422047 0 0.0482627 0 0)
(0.106187 -0.0504863 0 0.0605477 0 0)
(0.106623 -0.0595755 0 0.0766375 0 0)
(0.104698 -0.0688261 0 0.0970503 0 0)
(0.0993948 -0.0768826 0 0.12276 0 0)
(0.0913731 -0.0825071 0 0.153097 0 0)
(0.0790624 -0.083323 0 0.188511 0 0)
(0.00680442 -0.00325379 0 0.00464037 0 0)
(0.0835924 -0.0156995 0 0.00730676 0 0)
(0.0808081 -0.0157729 0 0.00967931 0 0)
(0.0738315 -0.0134012 0 0.0122087 0 0)
(0.0763782 -0.0130393 0 0.014906 0 0)
(0.0794861 -0.0145587 0 0.0178293 0 0)
(0.0819813 -0.0169626 0 0.0210847 0 0)
(0.0843973 -0.0197827 0 0.0248905 0 0)
(0.0868336 -0.0230642 0 0.029568 0 0)
(0.0891995 -0.0270126 0 0.0354884 0 0)
(0.0912997 -0.0318212 0 0.043012 0 0)
(0.0927434 -0.0374466 0 0.0525884 0 0)
(0.0930532 -0.0436629 0 0.0645815 0 0)
(0.0916632 -0.0499285 0 0.0795831 0 0)
(0.0883006 -0.055605 0 0.097758 0 0)
(0.0825056 -0.0596132 0 0.11967 0 0)
(0.0750666 -0.0611211 0 0.144445 0 0)
(0.0649743 -0.0585796 0 0.172421 0 0)
(0.00763119 -0.00297001 0 0.00480571 0 0)
(0.0823254 -0.0169303 0 0.00786136 0 0)
(0.0782875 -0.0169674 0 0.0106648 0 0)
(0.0705928 -0.0141479 0 0.0133745 0 0)
(0.0726382 -0.0133981 0 0.0161751 0 0)
(0.0751196 -0.0146209 0 0.0192974 0 0)
(0.0767882 -0.0167207 0 0.022916 0 0)
(0.0781425 -0.0190888 0 0.0271709 0 0)
(0.0792735 -0.0216357 0 0.0322107 0 0)
(0.0801177 -0.024468 0 0.0382468 0 0)
(0.0805262 -0.0276854 0 0.0454988 0 0)
(0.0802179 -0.0311676 0 0.0542924 0 0)
(0.0788951 -0.0346822 0 0.064878 0 0)
(0.0762873 -0.0377296 0 0.0776779 0 0)
(0.0723839 -0.0398705 0 0.092696 0 0)
(0.0670813 -0.0402514 0 0.110218 0 0)
(0.0612022 -0.0385368 0 0.129361 0 0)
(0.0539725 -0.0335595 0 0.150346 0 0)
(0.00730818 -0.00269115 0 0.0048177 0 0)
(0.0821029 -0.0170371 0 0.00806582 0 0)
(0.0773074 -0.0174103 0 0.0112293 0 0)
(0.0689675 -0.014476 0 0.0143089 0 0)
(0.0702844 -0.013464 0 0.0173729 0 0)
(0.0719504 -0.0143959 0 0.0206036 0 0)
(0.0728014 -0.0160904 0 0.0241867 0 0)
(0.0733069 -0.0178793 0 0.0283328 0 0)
(0.0734819 -0.0196311 0 0.0332414 0 0)
(0.0732304 -0.0214051 0 0.0391018 0 0)
(0.0724604 -0.0232522 0 0.0460548 0 0)
(0.0710505 -0.0250451 0 0.0542569 0 0)
(0.0688841 -0.0265769 0 0.0637355 0 0)
(0.0659201 -0.0274526 0 0.0746378 0 0)
(0.062267 -0.0274002 0 0.0867574 0 0)
(0.0580126 -0.0258435 0 0.100231 0 0)
(0.0538101 -0.0227153 0 0.114285 0 0)
(0.049049 -0.0172047 0 0.129185 0 0)
(0.00969629 -0.00291422 0 0.00516283 0 0)
(0.0845036 -0.0173726 0 0.00813247 0 0)
(0.0784092 -0.0179812 0 0.0113597 0 0)
(0.068777 -0.0149792 0 0.0146657 0 0)
(0.0689097 -0.0137285 0 0.0178864 0 0)
(0.0694922 -0.0143453 0 0.0212711 0 0)
(0.069377 -0.0156188 0 0.0250319 0 0)
(0.0690297 -0.0168135 0 0.029249 0 0)
(0.0684039 -0.017738 0 0.0339418 0 0)
(0.067364 -0.0184244 0 0.0391524 0 0)
(0.0658453 -0.018917 0 0.0449596 0 0)
(0.0638435 -0.0191234 0 0.0515152 0 0)
(0.0613763 -0.0188869 0 0.058863 0 0)
(0.0585749 -0.0179245 0 0.0670862 0 0)
(0.0556076 -0.0160505 0 0.0759272 0 0)
(0.0526785 -0.0129329 0 0.0854161 0 0)
(0.0502742 -0.00862124 0 0.0948603 0 0)
(0.0479242 -0.00269389 0 0.104517 0 0)
(0.00761743 -0.0026566 0 0.00518577 0 0)
(0.0801763 -0.0173383 0 0.00813491 0 0)
(0.0744501 -0.0179087 0 0.0108199 0 0)
(0.0650976 -0.0147911 0 0.0137971 0 0)
(0.064822 -0.0133432 0 0.0167445 0 0)
(0.0644789 -0.0134851 0 0.0197343 0 0)
(0.0632989 -0.0139894 0 0.0229749 0 0)
(0.0619922 -0.0141748 0 0.0265512 0 0)
(0.0606209 -0.0138976 0 0.0304556 0 0)
(0.0591044 -0.0132313 0 0.0346718 0 0)
(0.0574397 -0.0122642 0 0.0391919 0 0)
(0.0556821 -0.0109728 0 0.0440444 0 0)
(0.0538783 -0.00927992 0 0.0491883 0 0)
(0.05217 -0.00702008 0 0.054629 0 0)
(0.0506842 -0.00412621 0 0.0601597 0 0)
(0.0496064 -0.000439057 0 0.0658162 0 0)
(0.0492212 0.00391651 0 0.0711858 0 0)
(0.0491857 0.00914157 0 0.0765365 0 0)
(0.00666371 -0.00222675 0 0.00479588 0 0)
(0.0798434 -0.0167338 0 0.00727731 0 0)
(0.0725622 -0.0162414 0 0.00959504 0 0)
(0.0621022 -0.0122328 0 0.0121249 0 0)
(0.0611833 -0.00975762 0 0.0145565 0 0)
(0.0602974 -0.00880801 0 0.0169029 0 0)
(0.058751 -0.00830895 0 0.0192659 0 0)
(0.0573029 -0.00762394 0 0.0217453 0 0)
(0.0560076 -0.00656634 0 0.0244087 0 0)
(0.0547894 -0.00515092 0 0.0272706 0 0)
(0.0536691 -0.00343509 0 0.0303006 0 0)
(0.0527303 -0.00142153 0 0.0334694 0 0)
(0.0520438 0.000901979 0 0.0367205 0 0)
(0.0517476 0.00359528 0 0.040041 0 0)
(0.0519137 0.00663005 0 0.0433157 0 0)
(0.0526502 0.0100648 0 0.0465752 0 0)
(0.0540546 0.0137401 0 0.0495819 0 0)
(0.0558768 0.0178066 0 0.0524494 0 0)
(0.00735871 -0.00307477 0 0.00495801 0 0)
(0.0802852 -0.0162844 0 0.00713479 0 0)
(0.0718639 -0.0153213 0 0.00912697 0 0)
(0.0608462 -0.0115369 0 0.0112419 0 0)
(0.0591519 -0.00923001 0 0.0131981 0 0)
(0.0575075 -0.00828374 0 0.0151341 0 0)
(0.0553827 -0.00765681 0 0.0171605 0 0)
(0.0535774 -0.00673205 0 0.0192186 0 0)
(0.0521234 -0.00536796 0 0.0211706 0 0)
(0.0509202 -0.00366801 0 0.0229468 0 0)
(0.0499857 -0.00177911 0 0.024586 0 0)
(0.0493936 0.000218576 0 0.0261981 0 0)
(0.049182 0.00231012 0 0.0278603 0 0)
(0.0494243 0.00455727 0 0.0296168 0 0)
(0.050162 0.00698386 0 0.0313757 0 0)
(0.0514764 0.00965317 0 0.0331342 0 0)
(0.0534395 0.012464 0 0.0347186 0 0)
(0.0558997 0.0155141 0 0.0361973 0 0)
(0.00824411 -0.00260775 0 0.00436983 0 0)
(0.0814328 -0.014539 0 0.0057824 0 0)
(0.072165 -0.0133547 0 0.00700493 0 0)
(0.0605292 -0.00957472 0 0.00827984 0 0)
(0.058391 -0.00719172 0 0.00944592 0 0)
(0.0564243 -0.00600041 0 0.0105554 0 0)
(0.0541965 -0.0051007 0 0.0116485 0 0)
(0.0525037 -0.00403 0 0.0127408 0 0)
(0.0513164 -0.00268366 0 0.0138561 0 0)
(0.050482 -0.00110775 0 0.0150095 0 0)
(0.0500146 0.000621833 0 0.0161932 0 0)
(0.0500036 0.00246046 0 0.0173778 0 0)
(0.0504998 0.00438852 0 0.0185122 0 0)
(0.0515387 0.00639493 0 0.0195747 0 0)
(0.0531131 0.00845155 0 0.0205119 0 0)
(0.05521 0.0105543 0 0.0213448 0 0)
(0.0578724 0.012649 0 0.0220057 0 0)
(0.0609131 0.0147759 0 0.0225686 0 0)
(0.00705747 -0.00205455 0 0.00371889 0 0)
(0.0786428 -0.0122426 0 0.00458655 0 0)
(0.0685304 -0.0109609 0 0.00562127 0 0)
(0.0570263 -0.00742121 0 0.00675688 0 0)
(0.0551046 -0.00505014 0 0.00785582 0 0)
(0.0532736 -0.00375718 0 0.00894015 0 0)
(0.0512231 -0.00279298 0 0.0099645 0 0)
(0.0498093 -0.00169866 0 0.0108579 0 0)
(0.0490525 -0.000347588 0 0.0116044 0 0)
(0.0488423 0.00120226 0 0.0122412 0 0)
(0.0491715 0.00285752 0 0.0128266 0 0)
(0.050071 0.00455812 0 0.0134195 0 0)
(0.0515744 0.00630281 0 0.014031 0 0)
(0.053724 0.00811222 0 0.0146549 0 0)
(0.0565432 0.0099924 0 0.0152421 0 0)
(0.0599914 0.0119348 0 0.0157981 0 0)
(0.0641131 0.01389 0 0.0162529 0 0)
(0.0686844 0.0158534 0 0.0166334 0 0)
(0.00824958 -0.00185265 0 0.00355012 0 0)
(0.0767593 -0.0101144 0 0.00409059 0 0)
(0.0666145 -0.00850709 0 0.00465553 0 0)
(0.0556394 -0.00495786 0 0.00520405 0 0)
(0.0538495 -0.00250736 0 0.00566416 0 0)
(0.0519049 -0.00109853 0 0.00606442 0 0)
(0.0500029 -8.89913e-05 0 0.00644002 0 0)
(0.0492716 0.000928392 0 0.00682073 0 0)
(0.04962 0.00208387 0 0.00720423 0 0)
(0.0506713 0.00334213 0 0.00756771 0 0)
(0.0522419 0.00462639 0 0.00788571 0 0)
(0.0543018 0.00588906 0 0.00815029 0 0)
(0.0568652 0.00712485 0 0.00837444 0 0)
(0.0599773 0.00835231 0 0.00857652 0 0)
(0.0636864 0.00957184 0 0.00874174 0 0)
(0.068001 0.0107907 0 0.0088826 0 0)
(0.0729635 0.0119661 0 0.00897016 0 0)
(0.0784316 0.0131195 0 0.00901313 0 0)
(0.00689516 -0.00262917 0 0.00318445 0 0)
(0.0779299 -0.010424 0 0.00386118 0 0)
(0.0665772 -0.00819594 0 0.00418375 0 0)
(0.0546456 -0.00463589 0 0.0045911 0 0)
(0.052793 -0.00235263 0 0.00499421 0 0)
(0.0510692 -0.00116647 0 0.00535898 0 0)
(0.0492692 -0.000381456 0 0.00564508 0 0)
(0.0484547 0.000435064 0 0.00588328 0 0)
(0.0486629 0.0014234 0 0.00611223 0 0)
(0.0496296 0.0025561 0 0.00632536 0 0)
(0.0512151 0.00374559 0 0.00650083 0 0)
(0.0534201 0.0049213 0 0.00663035 0 0)
(0.0563022 0.00605726 0 0.00671759 0 0)
(0.0599036 0.00715232 0 0.00677935 0 0)
(0.064236 0.00819939 0 0.00680956 0 0)
(0.0692241 0.00919731 0 0.00683075 0 0)
(0.0748876 0.0101172 0 0.00681683 0 0)
(0.0810191 0.0109869 0 0.00677049 0 0)
(0.00714406 -0.00213952 0 0.00260376 0 0)
(0.0752362 -0.00823869 0 0.00275972 0 0)
(0.0625327 -0.00582021 0 0.00280114 0 0)
(0.0510624 -0.00278821 0 0.00295628 0 0)
(0.0499861 -0.000902045 0 0.00307541 0 0)
(0.0489741 6.52594e-06 0 0.00311993 0 0)
(0.0480353 0.000465007 0 0.00317904 0 0)
(0.0482583 0.000903189 0 0.00326832 0 0)
(0.0495653 0.00150026 0 0.0033408 0 0)
(0.0516465 0.00220752 0 0.00335684 0 0)
(0.0544113 0.00290474 0 0.00331794 0 0)
(0.0578993 0.00352075 0 0.00325444 0 0)
(0.062164 0.00404782 0 0.0031866 0 0)
(0.0672006 0.00450172 0 0.00312178 0 0)
(0.072997 0.00489589 0 0.00305158 0 0)
(0.0794324 0.00523812 0 0.00298513 0 0)
(0.0865462 0.00551669 0 0.00291072 0 0)
(0.0940874 0.0057655 0 0.00282566 0 0)
(0.00822711 -0.00194438 0 0.00196675 0 0)
(0.0755783 -0.0066394 0 0.00170947 0 0)
(0.0609679 -0.00509235 0 0.00189852 0 0)
(0.0492544 -0.00246633 0 0.00224792 0 0)
(0.0485725 -0.000625413 0 0.00236474 0 0)
(0.048047 0.000297177 0 0.00227626 0 0)
(0.0477984 0.000837934 0 0.00216343 0 0)
(0.0489917 0.00137083 0 0.00212047 0 0)
(0.0514937 0.00198915 0 0.00211923 0 0)
(0.054875 0.00263646 0 0.00210907 0 0)
(0.0589838 0.00323822 0 0.00207186 0 0)
(0.0638605 0.0037591 0 0.00201388 0 0)
(0.069559 0.00419445 0 0.00194378 0 0)
(0.0760614 0.00454515 0 0.00186732 0 0)
(0.0833296 0.00480478 0 0.00178111 0 0)
(0.0912302 0.0049773 0 0.00169304 0 0)
(0.0997961 0.00504871 0 0.00160135 0 0)
(0.108783 0.00505673 0 0.00151106 0 0)
(0.0059053 -0.00125317 0 0.00166029 0 0)
(0.0709344 -0.00302619 0 0.000860878 0 0)
(0.0570209 -0.00171566 0 0.000781317 0 0)
(0.0474024 -0.000355035 0 0.000877658 0 0)
(0.0479658 0.000489029 0 0.000879198 0 0)
(0.0479997 0.000783508 0 0.000842083 0 0)
(0.0483004 0.000842767 0 0.00081747 0 0)
(0.0502879 0.000872922 0 0.000801997 0 0)
(0.0537573 0.000912228 0 0.000780752 0 0)
(0.0581807 0.000921583 0 0.000746896 0 0)
(0.0633908 0.000863452 0 0.000701663 0 0)
(0.0694516 0.000721285 0 0.000649984 0 0)
(0.076423 0.000495359 0 0.000596946 0 0)
(0.0842542 0.00018851 0 0.000547111 0 0)
(0.0928582 -0.000201934 0 0.000501489 0 0)
(0.102051 -0.000669721 0 0.000464442 0 0)
(0.111849 -0.00122196 0 0.000437619 0 0)
(0.121981 -0.00181967 0 0.000419746 0 0)
(0.00797865 -0.00150894 0 0.0013927 0 0)
(0.0706245 -0.00362381 0 0.000744251 0 0)
(0.0543961 -0.00252645 0 0.000821606 0 0)
(0.0453041 -0.000685738 0 0.000815927 0 0)
(0.0466099 0.000355503 0 0.000660748 0 0)
(0.0475703 0.000722777 0 0.000527867 0 0)
(0.0493782 0.000856206 0 0.000454197 0 0)
(0.0532942 0.000920719 0 0.000407284 0 0)
(0.0587951 0.000914117 0 0.000366811 0 0)
(0.0651931 0.000814301 0 0.000326464 0 0)
(0.072301 0.000623895 0 0.0002863 0 0)
(0.0802053 0.000352708 0 0.000248843 0 0)
(0.0889353 9.9441e-06 0 0.000217496 0 0)
(0.0984084 -0.000406496 0 0.000195387 0 0)
(0.108434 -0.000906967 0 0.000184577 0 0)
(0.118824 -0.00150314 0 0.000187987 0 0)
(0.129482 -0.00219995 0 0.000207071 0 0)
(0.140204 -0.00297385 0 0.000238029 0 0)
(0.00633543 -0.000366347 0 0.000724031 0 0)
(0.0668953 0.000686303 0 0.000215686 0 0)
(0.0512 0.000269422 0 0.000193783 0 0)
(0.0436972 0.000383049 0 0.000193731 0 0)
(0.0462523 0.000145044 0 0.000224192 0 0)
(0.0481776 -0.000289086 0 0.000271833 0 0)
(0.0505351 -0.000735588 0 0.000313354 0 0)
(0.0544438 -0.00118693 0 0.000353702 0 0)
(0.059308 -0.00168158 0 0.000401399 0 0)
(0.0643577 -0.00223024 0 0.000454589 0 0)
(0.0692392 -0.00281694 0 0.000509018 0 0)
(0.0738867 -0.00342414 0 0.000563824 0 0)
(0.0781779 -0.00402981 0 0.000620191 0 0)
(0.082044 -0.0046204 0 0.000681168 0 0)
(0.0852351 -0.00518172 0 0.000747492 0 0)
(0.0877594 -0.00571886 0 0.000821989 0 0)
(0.0893861 -0.00622048 0 0.000905282 0 0)
(0.0903536 -0.0066927 0 0.000991261 0 0)
(0.00746752 -0.000456842 0 0.000653017 0 0)
(0.0709925 -0.000360277 0 0.00020537 0 0)
(0.062567 -6.17739e-05 0 0.00013671 0 0)
(0.0608716 0.000335766 0 9.12166e-05 0 0)
(0.0677605 0.000456736 0 7.12114e-05 0 0)
(0.0735201 0.000507868 0 6.72326e-05 0 0)
(0.0787675 0.000587338 0 6.9439e-05 0 0)
(0.0850002 0.000692701 0 7.61635e-05 0 0)
(0.092686 0.00080024 0 8.68406e-05 0 0)
(0.101837 0.000904305 0 0.000100784 0 0)
(0.112356 0.00101834 0 0.000117605 0 0)
(0.124136 0.00116062 0 0.000136886 0 0)
(0.13722 0.00134465 0 0.000157683 0 0)
(0.151705 0.00156887 0 0.000178978 0 0)
(0.167884 0.00181933 0 0.00020046 0 0)
(0.18562 0.00207699 0 0.000222722 0 0)
(0.205323 0.00233339 0 0.000244913 0 0)
(0.226279 0.00259387 0 0.000264366 0 0)
(0.000281958 -0.000620401 5.74064e-22 0.00137315 -1.2051e-21 7.17078e-37)
(0.00310883 -0.00230706 -1.68375e-21 0.00171859 1.16633e-21 7.07048e-37)
(0.00932739 -0.00399575 0 0.00171358 0 0)
(0.0189267 -0.0057015 0 0.00171843 0 0)
(0.0319409 -0.00741684 0 0.00172289 0 0)
(0.048476 -0.00914167 5.92871e-21 0.00172514 -1.10339e-21 6.65989e-37)
(0.0685052 -0.0108583 0 0.00172371 0 0)
(0.0920443 -0.012549 0 0.00171612 0 0)
(0.119014 -0.0141877 0 0.00170033 0 0)
(0.149324 -0.0157451 0 0.00167416 0 0)
(0.18281 -0.0171895 -1.07848e-20 0.00163624 9.75143e-22 6.16891e-37)
(0.219252 -0.0184868 0 0.00158532 0 0)
(0.258363 -0.0196038 0 0.00152131 0 0)
(0.299767 -0.0205116 0 0.00144495 0 0)
(0.343025 -0.0211773 0 0.00135651 0 0)
(0.387628 -0.0215739 -1.48237e-20 0.00125737 7.88951e-22 5.702e-37)
(0.432991 -0.0216793 0 0.0011488 0 0)
(0.478475 -0.0214714 0 0.00103255 0 0)
(0.523402 -0.0209415 0 0.000911528 0 0)
(0.567061 -0.0200923 0 0.000788317 0 0)
(0.608742 -0.0189275 0 0.000666245 0 0)
(0.64773 -0.017474 0 0.000548446 0 0)
(0.683307 -0.0157516 0 0.000438045 0 0)
(0.714886 -0.0138078 -1.89484e-20 0.000338206 4.42444e-22 5.00422e-37)
(0.741914 -0.0116878 1.92456e-20 0.000251092 -4.0169e-22 4.92124e-37)
(0.763937 -0.00944524 -1.9496e-20 0.000178553 3.62533e-22 4.8392e-37)
(0.78065 -0.00713575 -1.97016e-20 0.00012129 3.25243e-22 4.75811e-37)
(0.79185 -0.00480866 0 7.93122e-05 0 0)
(0.797494 -0.00250895 0 5.22478e-05 0 0)
(0.797627 -0.000304366 2.0069e-20 3.84494e-05 -2.25926e-22 4.52048e-37)
(0.79244 0.00178513 2.01167e-20 3.68574e-05 -1.9733e-22 4.44315e-37)
(0.782264 0.00369808 0 4.53311e-05 0 0)
(0.767437 0.0054026 0 6.13302e-05 0 0)
(0.748476 0.00689168 2.00737e-20 8.30302e-05 -1.26062e-22 4.21678e-37)
(0.725939 0.00813421 0 0.000107696 0 0)
(0.700369 0.00913813 0 0.000133483 0 0)
(0.672363 0.00989283 -1.9812e-20 0.000158159 7.54127e-23 3.99883e-37)
(0.642504 0.0104228 0 0.000180603 0 0)
(0.611347 0.010737 -1.95521e-20 0.000199505 5.1653e-23 3.85817e-37)
(0.579405 0.0108601 -3.88074e-20 0.000214277 8.46653e-23 1.51569e-36)
(0.547144 0.010815 0 0.000224568 0 0)
(0.514997 0.0106276 0 0.000230374 0 0)
(0.483337 0.0103237 0 0.00023195 0 0)
(0.45244 0.00992196 0 0.000229455 0 0)
(0.422567 0.00945338 0 0.000223777 0 0)
(0.393925 0.00893204 -3.67393e-20 0.000215193 2.44979e-23 1.35789e-36)
(0.366637 0.00838048 -3.63721e-20 0.000204524 2.04106e-23 1.33285e-36)
(0.340796 0.00780982 -3.60037e-20 0.000192135 1.74163e-23 1.30816e-36)
(0.316456 0.00723537 0 0.000178678 0 0)
(0.293652 0.00666772 3.52679e-20 0.000164624 -1.38925e-23 1.25985e-36)
(0.272381 0.00611519 0 0.00015038 0 0)
(0.252619 0.00558417 -3.454e-20 0.000136283 1.26663e-23 1.21293e-36)
(0.234322 0.00507927 -3.41806e-20 0.000122603 1.26154e-23 1.18999e-36)
(0.217436 0.00460363 0 0.000109542 0 0)
(0.201894 0.00415912 0 9.72482e-05 0 0)
(0.187625 0.0037466 0 8.58163e-05 0 0)
(0.174553 0.0033661 -3.27818e-20 7.52999e-05 1.42435e-23 1.1016e-36)
(0.1626 0.00301703 0 6.57187e-05 0 0)
(0.151687 0.00269831 0 5.70645e-05 0 0)
(0.141738 0.00240855 0 4.93093e-05 0 0)
(0.13268 0.00214609 0 4.24094e-05 0 0)
(0.124439 0.00190916 0 3.63115e-05 0 0)
(0.11695 0.0016959 0 3.09554e-05 0 0)
(0.110147 0.00150446 0 2.62782e-05 0 0)
(0.103972 0.001333 0 2.2216e-05 0 0)
(0.0983679 0.00117976 2.98792e-20 1.87061e-05 -1.78782e-23 9.21686e-37)
(0.093284 0.00104303 0 1.56883e-05 0 0)
(0.0886725 0.000921251 0 1.31056e-05 0 0)
(0.08449 0.000812917 -2.89788e-20 1.09053e-05 1.78348e-23 8.6725e-37)
(0.0806963 0.000716666 -2.8685e-20 9.03899e-06 1.76862e-23 8.49691e-37)
(0.0772551 0.000631231 0 7.46261e-06 0 0)
(0.074133 0.000555467 2.81058e-20 6.13674e-06 -1.72191e-23 8.15432e-37)
(0.0712999 0.000488325 -2.78203e-20 5.02608e-06 1.69119e-23 7.98726e-37)
(0.0687284 0.000428866 0 4.09959e-06 0 0)
(0.0663937 0.000376232 2.72567e-20 3.32981e-06 -1.61791e-23 7.66141e-37)
(0.0642733 0.000329667 0 2.69289e-06 0 0)
(0.062347 0.000288477 0 2.168e-06 0 0)
(0.0605964 0.000252057 -2.64285e-20 1.73725e-06 1.48657e-23 7.19285e-37)
(0.059005 0.000219853 0 1.38517e-06 0 0)
(0.057558 0.000191386 2.58868e-20 1.09865e-06 -1.39045e-23 6.89355e-37)
(0.0562418 0.000166217 0 8.66466e-07 0 0)
(0.0550444 0.000143968 -2.53527e-20 6.79186e-07 1.2915e-23 6.60439e-37)
(0.0539549 0.000124294 -2.50885e-20 5.28811e-07 1.24178e-23 6.46353e-37)
(0.0529634 0.000106903 -2.48259e-20 4.08711e-07 1.19246e-23 6.3251e-37)
(0.052061 9.15197e-05 -4.91303e-20 3.13279e-07 2.28716e-23 2.47563e-36)
(0.0512398 7.79183e-05 4.8612e-20 2.37922e-07 -2.19095e-23 2.42216e-36)
(0.0504927 6.58838e-05 0 1.78779e-07 0 0)
(0.0498129 5.52462e-05 0 1.32739e-07 0 0)
(0.0491946 4.58308e-05 0 9.71809e-08 0 0)
(0.0486324 3.75046e-05 4.65712e-20 7.00039e-08 -1.82817e-23 2.21752e-36)
(0.0481216 3.01472e-05 4.60688e-20 4.9493e-08 -1.7445e-23 2.16859e-36)
(0.0476578 2.36729e-05 -4.55695e-20 3.42974e-08 1.66408e-23 2.12054e-36)
(0.0472369 1.80065e-05 0 2.32956e-08 0 0)
(0.0468553 1.31277e-05 4.458e-20 1.56537e-08 -1.51583e-23 2.02699e-36)
(0.0465095 9.00022e-06 4.40898e-20 1.06084e-08 -1.44774e-23 1.98146e-36)
(0.0461966 5.49912e-06 4.36024e-20 7.43523e-09 -1.38391e-23 1.93676e-36)
(0.0459136 2.46408e-06 0 5.52867e-09 0 0)
(0.0456579 -2.01525e-07 0 4.42699e-09 0 0)
(0.0454274 -2.67293e-06 0 3.86415e-09 0 0)
(0.0452202 -5.09991e-06 4.16821e-20 3.74965e-09 -1.17366e-23 1.7659e-36)
(0.045035 -7.5368e-06 0 4.05031e-09 0 0)
(0.0448707 -1.01403e-05 0 4.87881e-09 0 0)
(0.0447266 -1.30719e-05 -4.0273e-20 6.48171e-09 1.05977e-23 1.64578e-36)
(0.0446025 -1.62912e-05 0 8.98324e-09 0 0)
(0.0444978 -1.99442e-05 0 1.27272e-08 0 0)
(0.0444136 -2.40811e-05 -3.88906e-20 1.8117e-08 9.74926e-24 1.53219e-36)
(0.0443493 -2.83061e-05 0 2.49703e-08 0 0)
(0.0443039 -3.2248e-05 0 3.27613e-08 0 0)
(0.0442758 -3.56493e-05 3.7535e-20 4.07553e-08 -8.95617e-24 1.42484e-36)
(0.0442636 -3.83925e-05 3.70888e-20 4.82304e-08 -8.64664e-24 1.39039e-36)
(0.0442654 -4.04814e-05 0 5.47035e-08 0 0)
(0.0442797 -4.1906e-05 -3.62047e-20 5.9699e-08 7.98205e-24 1.32343e-36)
(0.0443045 -4.26513e-05 0 6.27951e-08 0 0)
(0.0443382 -4.27919e-05 3.53314e-20 6.39155e-08 -7.27217e-24 1.25899e-36)
(0.0443791 -4.24495e-05 0 6.33198e-08 0 0)
(0.044426 -4.17851e-05 3.44685e-20 6.15112e-08 -6.56818e-24 1.19699e-36)
(0.0444781 -4.09443e-05 3.40409e-20 5.90403e-08 -6.23893e-24 1.16689e-36)
(0.0445346 -4.00422e-05 0 5.63404e-08 0 0)
(0.0445953 -3.91525e-05 0 5.36909e-08 0 0)
(0.0446599 -3.83065e-05 0 5.12075e-08 0 0)
(0.0447282 -3.75182e-05 0 4.89327e-08 0 0)
(0.0448003 -3.6783e-05 0 4.68542e-08 0 0)
(0.0448758 -3.60984e-05 0 4.49557e-08 0 0)
(0.0449546 -3.54644e-05 0 4.32265e-08 0 0)
(0.0450367 -3.48781e-05 3.07117e-20 4.16538e-08 -4.27227e-24 9.46208e-37)
(0.0451217 -3.43441e-05 -3.03069e-20 4.02348e-08 4.09402e-24 9.21013e-37)
(0.0452097 -3.38549e-05 0 3.8952e-08 0 0)
(0.0453004 -3.34132e-05 0 3.77984e-08 0 0)
(0.0453938 -3.30104e-05 0 3.67559e-08 0 0)
(0.0454898 -3.2649e-05 0 3.58191e-08 0 0)
(0.0455883 -3.23213e-05 -5.66403e-20 3.49734e-08 6.78872e-24 3.20967e-36)
(0.0456892 -3.203e-05 0 3.42154e-08 0 0)
(0.0457925 -3.17677e-05 5.50848e-20 3.35318e-08 -6.36682e-24 3.03312e-36)
(0.0458981 -3.15372e-05 -5.43141e-20 3.29204e-08 6.17736e-24 2.94754e-36)
(0.046006 -3.1331e-05 0 3.2369e-08 0 0)
(0.0461161 -3.1152e-05 0 3.18764e-08 0 0)
(0.0462284 -3.09939e-05 0 3.14336e-08 0 0)
(0.0463429 -3.08604e-05 5.12782e-20 3.10405e-08 -5.57189e-24 2.62262e-36)
(0.0464594 -3.07505e-05 5.05307e-20 3.06983e-08 -5.45387e-24 2.54559e-36)
(0.046578 -3.06636e-05 0 3.04009e-08 0 0)
(0.0466987 -3.06e-05 4.90492e-20 3.01502e-08 -5.24443e-24 2.39638e-36)
(0.0468216 -3.05519e-05 4.83152e-20 2.99311e-08 -5.15141e-24 2.32415e-36)
(0.0469465 -3.052e-05 -4.75856e-20 2.97436e-08 5.06155e-24 2.25347e-36)
(0.0470736 -3.0499e-05 0 2.95785e-08 0 0)
(0.0472028 -3.04923e-05 0 2.94409e-08 0 0)
(0.0473341 -3.04967e-05 -4.54231e-20 2.93256e-08 4.80639e-24 2.05047e-36)
(0.0474676 -3.05157e-05 0 2.9238e-08 0 0)
(0.0476032 -3.05466e-05 0 2.9174e-08 0 0)
(0.047741 -3.05922e-05 0 2.91378e-08 0 0)
(0.047881 -3.0651e-05 0 2.91274e-08 0 0)