/*--------------------------------*- C++ -*----------------------------------*\
  =========                 |
  \\      /  F ield         | OpenFOAM: The Open Source CFD Toolbox
   \\    /   O peration     | Website:  https://openfoam.org
    \\  /    A nd           | Version:  7
     \\/     M anipulation  |
\*---------------------------------------------------------------------------*/
FoamFile
{
    version     2.0;
    format      ascii;
    class       volScalarField;
    location    "0.2";
    object      epsilon;
}
// * * * * * * * * * * * * * * * * * * * * * * * * * * * * * * * * * * * * * //

dimensions      [0 2 -3 0 0 0 0];

internalField   nonuniform List<scalar> 
12225
(
261.514
229.335
202.526
181.49
166.165
155.706
148.932
144.733
142.228
140.783
139.965
139.497
139.208
139
138.819
138.632
138.472
139.397
74.4043
97.5825
104.476
109.105
114.645
121.07
127.656
133.848
139.368
144.122
148.117
151.415
154.105
156.279
158.036
159.412
160.679
161.365
31.9471
44.3629
51.5592
56.2979
60.1527
63.8144
67.4422
70.9967
74.4041
77.6016
80.5457
83.2144
85.6051
87.7289
89.6073
91.2592
92.7378
93.9947
20.8063
26.6661
31.0978
34.334
36.8356
38.9644
40.9053
42.7335
44.4765
46.14
47.7193
49.207
50.5974
51.8882
53.0801
54.176
55.1817
56.0868
17.0807
19.8447
22.2845
24.2529
25.8328
27.1481
28.2886
29.3099
30.2466
31.1195
31.9396
32.7122
33.4395
34.123
34.7636
35.3624
35.9194
36.4261
15.6187
16.8449
18.1011
19.2184
20.1683
20.9742
21.6658
22.2692
22.8052
23.2896
23.7331
24.1428
24.5234
24.8782
25.2092
25.518
25.8049
26.0637
15.0057
15.4483
16.0092
16.5713
17.0865
17.5425
17.9405
18.2872
18.5909
18.8597
19.1
19.3169
19.514
19.6941
19.8595
20.0116
20.1509
20.2734
14.7446
14.7907
14.9477
15.1532
15.3697
15.5777
15.7677
15.9366
16.085
16.2151
16.3292
16.4298
16.5187
16.5977
16.6681
16.7308
16.7865
16.8324
14.6329
14.4844
14.4154
14.4003
14.4174
14.4511
14.4907
14.5298
14.5655
14.5964
14.6224
14.6435
14.6603
14.6731
14.6825
14.6888
14.6922
14.6911
14.5847
14.3444
14.156
14.012
13.9027
13.8187
13.7521
13.6969
13.6491
13.6061
13.5664
13.5289
13.4929
13.458
13.4239
13.3906
13.3578
13.3246
14.5634
14.2814
14.0337
13.8195
13.6355
13.4771
13.3395
13.2185
13.1106
13.0133
12.9246
12.8428
12.7669
12.6958
12.629
12.5659
12.506
12.449
14.5542
14.2552
13.9821
13.7352
13.5137
13.3153
13.1375
12.9773
12.8323
12.7002
12.5792
12.4678
12.3646
12.2686
12.179
12.0951
12.0162
11.9423
14.5491
14.242
13.9563
13.6925
13.4503
13.2287
13.0261
12.8407
12.6708
12.5147
12.3708
12.2378
12.1145
11.9998
11.8928
11.7927
11.699
11.6121
14.546
14.2346
13.943
13.6708
13.4177
13.183
12.9656
12.7643
12.578
12.4054
12.2452
12.0964
11.9578
11.8285
11.7078
11.5948
11.489
11.3911
14.544
14.2306
13.9366
13.6611
13.4033
13.1627
12.9382
12.7289
12.5339
12.352
12.1823
12.0238
11.8756
11.737
11.607
11.4851
11.3709
11.2652
14.5428
14.2284
13.9337
13.6573
13.3982
13.1557
12.9288
12.7165
12.5179
12.3322
12.1582
11.9953
11.8425
11.6991
11.5644
11.4377
11.3188
11.2087
14.5422
14.2274
13.9327
13.6565
13.3975
13.155
12.9279
12.7152
12.516
12.3293
12.1543
11.9901
11.8359
11.691
11.5547
11.4264
11.3057
11.1939
14.5423
14.2277
13.9335
13.6579
13.3998
13.1581
12.9318
12.7199
12.5214
12.3353
12.1609
11.9971
11.8432
11.6986
11.5624
11.4342
11.3136
11.2018
14.5433
14.2297
13.9367
13.6625
13.4058
13.1657
12.9411
12.731
12.5342
12.3499
12.1771
12.015
11.8628
11.7196
11.585
11.4582
11.3389
11.2284
14.5456
14.2344
13.9436
13.6717
13.4176
13.1802
12.9585
12.7514
12.5578
12.3767
12.2072
12.0483
11.8993
11.7594
11.6279
11.5042
11.388
11.2804
14.5493
14.2418
13.9546
13.6865
13.4365
13.2037
12.9871
12.7854
12.5975
12.4223
12.2588
12.106
11.9631
11.8293
11.7038
11.586
11.4756
11.3736
14.5555
14.2546
13.9745
13.7145
13.4739
13.2518
13.0472
12.8583
12.6838
12.5223
12.3725
12.2334
12.1039
11.9832
11.8706
11.7653
11.6668
11.576
14.567
14.2806
14.0189
13.7811
13.5664
13.3733
13.1995
13.0423
12.8992
12.7684
12.6482
12.5374
12.435
12.3396
12.2503
12.1665
12.0876
12.0145
14.5931
14.349
14.1441
13.9723
13.8284
13.7082
13.6059
13.5164
13.436
13.363
13.2957
13.232
13.1708
13.1116
13.054
12.9979
12.9432
12.8913
14.6719
14.5671
14.5334
14.5366
14.5581
14.5881
14.618
14.6433
14.6615
14.6705
14.6701
14.6615
14.6457
14.6241
14.598
14.5685
14.5367
14.5044
14.9618
15.3045
15.7117
16.0878
16.4098
16.6789
16.8974
17.0641
17.186
17.2721
17.3301
17.3666
17.3871
17.3961
17.3972
17.3931
17.386
17.3783
16.0826
17.7386
19.068
20.0268
20.7393
21.2729
21.6497
21.9108
22.0919
22.2197
22.3132
22.3864
22.4488
22.5074
22.5664
22.6289
22.6964
22.7698
20.4114
25.6123
28.3433
29.7403
30.5941
31.125
31.4556
31.6809
31.8657
32.0471
32.2459
32.4726
32.7318
33.0237
33.3463
33.6963
34.0701
34.4617
38.6012
49.0462
52.2934
53.1779
53.4523
53.5619
53.7103
54.0139
54.5024
55.1617
55.9664
56.8908
57.9101
59.0014
60.1446
61.3231
62.5261
63.7394
159.121
148.102
138.017
128.818
120.586
113.348
107.09
101.756
97.2562
93.4904
90.359
87.7703
85.642
83.9023
82.4889
81.3486
80.4366
79.7146
0.158785
0.198185
0.328282
0.451715
0.588317
0.737184
0.901407
1.07072
1.23883
1.40688
1.57461
1.74171
1.90808
2.07383
2.2392
2.40451
2.57008
2.73624
2.90329
3.07152
3.24118
3.41249
3.58562
3.76072
3.93791
4.11723
4.29875
4.48244
4.6683
4.85626
5.04625
5.23818
5.43192
5.62735
5.82434
6.0227
6.22228
6.42285
6.62418
6.82598
7.02788
7.22944
7.43009
7.62916
7.82583
8.01915
8.2081
8.39166
8.56888
8.73905
8.90179
9.05708
9.20509
9.34585
9.47853
9.60072
9.70744
9.79018
9.83586
9.82941
9.77514
42.2211
10.0175
9.97394
9.88215
9.88621
9.98504
43.0755
10.2116
44.0845
43.7034
43.7931
44.8041
43.9159
44.3835
44.8737
45.0248
44.3427
45.5854
46.9047
48.2553
49.6217
50.9991
52.3827
53.7693
55.156
56.5406
57.9211
59.2959
60.6639
62.0255
63.3831
64.7433
66.0863
67.4082
68.708
69.9842
71.2346
72.4568
73.6485
74.8074
75.931
77.017
78.0634
79.0678
80.0283
80.9427
81.8094
82.6264
83.3922
84.1052
84.764
85.3674
85.9142
86.4035
86.8345
87.2065
87.519
87.7716
87.9642
88.0967
88.1693
88.1822
88.1359
88.031
87.8682
87.6484
87.3726
87.0421
86.658
86.2218
85.735
85.1992
84.6161
83.9875
83.3152
82.6013
81.8478
81.0565
80.2297
79.3694
78.4777
77.5568
76.6089
75.636
74.6401
73.6237
72.5885
71.5365
70.4706
69.3913
68.3039
67.2092
66.1103
65.0249
64.0348
74.3307
68.1602
74.4594
74.4601
67.6106
69.9825
67.1053
15.9052
69.555
73.3548
72.8641
16.3347
75.0189
16.5176
72.8511
16.4838
16.3981
73.4617
16.6721
17.4162
17.3067
17.5527
17.5174
80.0949
0.604555
0.376422
0.39798
0.464759
0.552072
0.654436
0.767715
0.887206
1.00923
1.13169
1.25345
1.37396
1.49311
1.61103
1.72797
1.84427
1.96031
2.07642
2.19298
2.3103
2.42868
2.54838
2.66963
2.79263
2.91752
3.04443
3.17345
3.30463
3.438
3.57358
3.71135
3.85129
3.99335
4.13749
4.28365
4.43177
4.58179
4.73362
4.88719
5.04242
5.19919
5.3574
5.51691
5.67758
5.83924
6.00178
6.16512
6.32928
6.49447
6.66115
6.83018
7.00298
7.18169
7.36962
7.57194
7.79718
8.05965
8.38295
8.80313
9.36631
10.1285
11.3129
10.4309
11.0322
11.8991
12.7754
13.3245
14.3402
13.9169
15.7557
16.4815
16.9324
17.5245
18.2617
18.7892
19.3487
19.9219
20.4182
20.9522
21.5243
22.0853
22.6447
23.2037
23.7625
24.321
24.8788
25.4355
25.9906
26.544
27.0958
27.6467
28.1981
28.7572
29.3132
29.8623
30.4036
30.9362
31.4593
31.972
32.4734
32.9626
33.4387
33.9008
34.3481
34.7798
35.1951
35.5931
35.9732
36.3346
36.6766
36.9987
37.3003
37.5808
37.8398
38.0767
38.2913
38.4831
38.652
38.7977
38.92
39.0189
39.0943
39.1462
39.1746
39.1798
39.1619
39.1211
39.0578
38.9722
38.8648
38.736
38.5863
38.4162
38.2263
38.0172
37.7896
37.544
37.2813
37.0021
36.7072
36.3973
36.0731
35.7355
35.3853
35.0233
34.6501
34.2667
33.8739
33.4721
33.0628
32.6457
32.2234
31.7955
31.3615
30.9366
30.5105
30.5355
30.7718
30.3163
30.5073
30.2585
30.2765
29.8235
26.6675
29.4414
29.4227
29.0363
25.7249
28.2411
25.4513
28.1052
25.0725
24.6433
27.1302
24.4584
22.3643
23.5191
23.7756
23.716
26.3959
1.20695
0.624444
0.574481
0.604142
0.66437
0.742671
0.832991
0.930855
1.03274
1.13613
1.23942
1.34178
1.44289
1.54278
1.6417
1.74
1.83806
1.93628
2.03503
2.13465
2.23548
2.33777
2.44178
2.54771
2.65572
2.76596
2.87854
2.99355
3.11106
3.23111
3.35375
3.47901
3.6069
3.73746
3.87071
4.00668
4.14542
4.28696
4.43138
4.57874
4.72914
4.8827
5.03954
5.19985
5.36384
5.53177
5.70398
5.8809
6.06312
6.25139
6.44673
6.65051
6.86458
7.09142
7.33433
7.59766
7.88687
8.20796
8.56517
8.95584
9.36309
9.758
10.0878
10.5318
11.0014
11.4494
11.8622
12.2839
12.6779
13.1971
13.6745
14.1324
14.6001
15.0977
15.5616
16.0258
16.4922
16.9502
17.4007
17.8504
18.2966
18.7425
19.1889
19.636
20.0837
20.5318
20.9801
21.4285
21.8769
22.3254
22.7743
23.2241
23.6735
24.1192
24.5598
24.9945
25.4225
25.8431
26.2556
26.6591
27.0532
27.4369
27.8096
28.1707
28.5194
28.8551
29.1771
29.4849
29.7779
30.0556
30.3173
30.5628
30.7914
31.0028
31.1967
31.3728
31.5307
31.6702
31.7911
31.8934
31.9768
32.0415
32.0872
32.1142
32.1225
32.1122
32.0835
32.0367
31.972
31.8897
31.7901
31.6736
31.5408
31.3919
31.2274
31.048
30.854
30.6461
30.4248
30.1906
29.9443
29.6864
29.4175
29.1382
28.8492
28.551
28.2445
27.9301
27.6079
27.28
26.9445
26.6054
26.2636
25.9203
25.5825
25.247
24.9032
24.8673
24.4679
24.3248
24.1747
23.9607
23.6902
23.0877
23.159
22.8883
22.5813
21.9841
21.9546
21.5298
21.5846
21.0526
20.7627
20.7466
20.3161
19.735
19.7088
19.6226
19.5126
19.6739
1.80413
0.866166
0.740009
0.737539
0.776538
0.836953
0.910721
0.993089
1.08066
1.17094
1.26226
1.35358
1.44442
1.53467
1.62445
1.71402
1.80373
1.89394
1.985
2.07726
2.171
2.26651
2.36403
2.46376
2.56589
2.67057
2.77792
2.88805
3.00107
3.11707
3.23611
3.35828
3.48364
3.6123
3.74432
3.87982
4.0189
4.16171
4.30838
4.45911
4.61408
4.77355
4.93778
5.10708
5.2818
5.46235
5.64917
5.84277
6.04375
6.25278
6.47066
6.69833
6.93692
7.18774
7.45226
7.73202
8.02841
8.34227
8.67313
9.01857
9.37392
9.7343
10.1015
10.4851
10.8749
11.2645
11.6542
12.0487
12.4499
12.8668
13.2876
13.7117
14.1406
14.5752
15.008
15.4423
15.8778
16.3129
16.7469
17.1802
17.613
18.0465
18.4812
18.9173
19.3547
19.7931
20.2323
20.6722
21.1125
21.553
21.9936
22.4334
22.8706
23.304
23.7324
24.1551
24.5714
24.9804
25.3815
25.774
26.157
26.5299
26.892
27.2426
27.581
27.9065
28.2185
28.5165
28.7998
29.0678
29.3202
29.5564
29.7759
29.9785
30.1636
30.3311
30.4807
30.6121
30.7251
30.8197
30.8958
30.9532
30.9922
31.0126
31.0146
30.9984
30.9642
30.9121
30.8425
30.7557
30.6521
30.532
30.3958
30.2441
30.0773
29.8959
29.7004
29.4915
29.2695
29.0352
28.7893
28.5321
28.2643
27.9867
27.6999
27.404
27.1004
26.7895
26.4703
26.1472
25.8186
25.4863
25.1514
24.8159
24.4846
24.1595
23.8345
23.6054
23.2812
23.0162
22.7677
22.4903
22.206
21.8657
21.6233
21.3234
21.0228
20.6893
20.4343
20.148
19.9182
19.6079
19.3303
19.0909
18.8118
18.4911
18.2861
18.1111
17.9721
17.9335
2.31227
1.06763
0.879389
0.850426
0.872123
0.918228
0.978889
1.04897
1.12514
1.20505
1.28708
1.37015
1.45369
1.53744
1.62141
1.70578
1.7908
1.87678
1.96401
2.05282
2.14348
2.23626
2.33138
2.42906
2.52948
2.63281
2.73919
2.84874
2.9616
3.07787
3.19767
3.32111
3.4483
3.57937
3.71446
3.8537
3.99727
4.14535
4.29816
4.45591
4.61889
4.78737
4.96167
5.14216
5.32922
5.52325
5.7247
5.93403
6.15174
6.37833
6.61436
6.86042
7.11712
7.38509
7.6649
7.957
8.26159
8.57854
8.90726
9.24681
9.59588
9.95326
10.3189
10.6927
11.0731
11.4591
11.8511
12.2494
12.6548
13.0679
13.4873
13.9124
14.3427
14.7777
15.2163
15.6586
16.1039
16.5518
17.0018
17.4535
17.9067
18.362
18.8193
19.2785
19.7396
20.2022
20.6661
21.1308
21.596
22.0614
22.5262
22.9888
23.4481
23.9031
24.3529
24.7966
25.2335
25.6627
26.0835
26.4949
26.8963
27.2868
27.6657
28.0322
28.3855
28.725
29.05
29.3598
29.6539
29.9315
30.1922
30.4356
30.661
30.8682
31.0568
31.2264
31.3768
31.5077
31.6191
31.7107
31.7826
31.8347
31.867
31.8797
31.8729
31.8468
31.8016
31.7376
31.6552
31.5546
31.4363
31.3008
31.1486
30.9801
30.7958
30.5963
30.3823
30.1544
29.9131
29.6589
29.3929
29.1155
28.8269
28.5286
28.2212
27.9039
27.5795
27.2484
26.9106
26.5678
26.22
25.8685
25.5145
25.1598
24.8081
24.4621
24.1216
23.8085
23.4744
23.1525
22.8383
22.5157
22.1938
21.8619
21.5459
21.2198
20.8971
20.5737
20.2658
19.9591
19.6625
19.3564
19.0594
18.7727
18.4881
18.2021
17.9536
17.7409
17.573
17.4775
2.70633
1.22909
0.991038
0.94036
0.947913
0.982455
1.03259
1.09279
1.15972
1.23118
1.30562
1.38202
1.45976
1.53852
1.61822
1.69895
1.78088
1.86425
1.94933
2.03638
2.12566
2.21743
2.31189
2.40927
2.50974
2.61349
2.72066
2.8314
2.94586
3.06417
3.18646
3.31289
3.44359
3.57872
3.71846
3.86297
4.01246
4.16716
4.3273
4.49315
4.665
4.84316
5.02797
5.21978
5.41898
5.62595
5.8411
6.06481
6.29751
6.53957
6.79139
7.05336
7.32582
7.6091
7.90344
8.20895
8.5256
8.85319
9.19138
9.53977
9.89791
10.2653
10.6416
11.0265
11.4197
11.8209
12.2301
12.6473
13.0725
13.5055
13.946
14.3936
14.8477
15.308
15.7741
16.2456
16.7221
17.2032
17.6884
18.1772
18.6693
19.1645
19.6626
20.1635
20.6667
21.172
21.6788
22.1866
22.695
23.2035
23.7102
24.214
24.7139
25.209
25.6982
26.1806
26.6554
27.1216
27.5784
28.0248
28.4599
28.8828
29.2928
29.6888
30.0702
30.4361
30.7857
31.1183
31.4333
31.73
32.0078
32.2662
32.5048
32.723
32.9205
33.097
33.2521
33.3858
33.4978
33.5881
33.6566
33.7033
33.7283
33.7318
33.7139
33.675
33.6153
33.5351
33.4348
33.3149
33.1758
33.0182
32.8425
32.6493
32.4392
32.2128
31.971
31.7144
31.4435
31.1589
30.8621
30.5533
30.2323
29.9016
29.5619
29.2131
28.8566
28.4931
28.1232
27.7478
27.3677
26.9838
26.5973
26.2098
25.8241
25.4425
25.0656
24.6975
24.3262
23.9577
23.5923
23.2256
22.8609
22.4959
22.1349
21.7739
21.4168
21.0636
20.7166
20.374
20.0369
19.703
19.3762
19.0575
18.7476
18.448
18.172
17.9291
17.7282
17.5847
3.00569
1.35485
1.07688
1.00833
1.00424
1.02937
1.07101
1.12323
1.18267
1.2472
1.31537
1.38623
1.45915
1.5338
1.61004
1.6879
1.7675
1.84901
1.93265
2.01868
2.1073
2.19877
2.29329
2.39106
2.49228
2.59712
2.70576
2.81835
2.93506
3.05603
3.18143
3.31142
3.44617
3.58587
3.73071
3.88089
4.03666
4.19824
4.36592
4.53998
4.72071
4.90846
5.10356
5.30638
5.51727
5.73662
5.9648
6.20217
6.44909
6.70588
6.97289
7.25039
7.53866
7.83791
8.14831
8.46994
8.80278
9.14676
9.50172
9.86752
10.244
10.631
11.0282
11.4357
11.8531
12.2805
12.7177
13.1647
13.6211
14.087
14.5618
15.0454
15.5373
16.0371
16.5446
17.0593
17.5808
18.1085
18.6421
19.1808
19.7243
20.2722
20.824
21.3792
21.9375
22.4983
23.0609
23.6248
24.1893
24.7534
25.3147
25.8724
26.4254
26.9728
27.5134
28.0463
28.5704
29.0847
29.5881
30.0797
30.5583
31.023
31.4729
31.9069
32.3242
32.7238
33.1048
33.4666
33.8083
34.1293
34.4288
34.7064
34.9615
35.1937
35.4026
35.5878
35.7491
35.8863
35.9993
36.0879
36.1522
36.1922
36.2082
36.2003
36.1687
36.1138
36.036
35.9356
35.8133
35.6693
35.5043
35.3191
35.1143
34.8905
34.6483
34.3883
34.112
33.8198
33.5122
33.1894
32.8543
32.5068
32.1473
31.7773
31.3976
31.0088
30.6119
30.2077
29.797
29.3808
28.9598
28.5349
28.1073
27.6785
27.2504
26.8249
26.4027
25.9842
25.5666
25.1504
24.7363
24.3233
23.9129
23.5047
23.0996
22.6974
22.2998
21.907
21.5195
21.1374
20.7613
20.3918
20.0305
19.6782
19.3373
19.0106
18.7054
18.4307
18.1936
18.003
3.21952
1.44828
1.13944
1.05641
1.04274
1.06016
1.09489
1.14064
1.19397
1.2528
1.31576
1.38195
1.45078
1.52192
1.5952
1.67062
1.74824
1.82822
1.91074
1.996
2.08423
2.17563
2.27041
2.36879
2.47094
2.57706
2.68733
2.80191
2.92099
3.04473
3.17332
3.30695
3.4458
3.59009
3.74003
3.89587
4.05785
4.22624
4.40135
4.58347
4.77294
4.9701
5.1753
5.38893
5.61134
5.84293
6.08405
6.33509
6.59638
6.86826
7.15105
7.44504
7.75048
8.06762
8.39664
8.73768
9.09083
9.45612
9.83356
10.2232
10.6249
11.0388
11.4648
11.9028
12.3528
12.8147
13.2884
13.7738
14.2707
14.7788
15.2979
15.8276
16.3676
16.9175
17.4768
18.0452
18.622
19.2069
19.7992
20.3982
21.0034
21.6141
22.2298
22.8498
23.4734
24.1001
24.729
25.3593
25.9904
26.6194
27.2449
27.8661
28.4816
29.0904
29.6912
30.283
30.8645
31.4345
31.992
32.5356
33.0642
33.5768
34.0722
34.5493
35.0072
35.4448
35.8612
36.2554
36.6267
36.9744
37.2976
37.5959
37.8687
38.1155
38.3359
38.5297
38.6965
38.8362
38.9487
39.0339
39.0919
39.1228
39.127
39.1045
39.0558
38.9813
38.8814
38.7568
38.6079
38.4353
38.2395
38.0217
37.7826
37.523
37.2432
36.9438
36.6273
36.2939
35.9443
35.5792
35.2004
34.8084
34.4041
33.9886
33.5628
33.1277
32.6841
32.2331
31.7754
31.3121
30.8439
30.3719
29.8971
29.4208
28.9446
28.47
27.9977
27.5277
27.0594
26.593
26.1287
25.6667
25.2078
24.7524
24.3007
23.8533
23.4112
22.9748
22.5442
22.12
21.7031
21.2944
20.8951
20.5066
20.131
19.7716
19.4336
19.1244
18.8485
18.6117
3.35724
1.51289
1.1815
1.08705
1.06559
1.07665
1.1057
1.14613
1.19444
1.24854
1.30713
1.36935
1.43466
1.50272
1.57338
1.64661
1.72245
1.80104
1.88252
1.96709
2.05495
2.14631
2.24136
2.34031
2.44337
2.55072
2.66255
2.77906
2.90043
3.02686
3.15856
3.29572
3.43858
3.58737
3.74233
3.90373
4.07186
4.24701
4.42951
4.61969
4.81793
5.02458
5.24003
5.46469
5.69895
5.94321
6.19789
6.46337
6.74004
7.02826
7.32839
7.64076
7.96569
8.30345
8.65432
9.01851
9.39622
9.7876
10.1928
10.6119
11.045
11.4923
11.9537
12.4292
12.9189
13.4228
13.9406
14.4723
15.0176
15.5764
16.1482
16.7328
17.3297
17.9385
18.5586
19.1897
19.8311
20.4822
21.1422
21.8105
22.4862
23.1688
23.8572
24.5509
25.2488
25.9502
26.6541
27.3595
28.0649
28.7667
29.4642
30.1561
30.8412
31.5181
32.1855
32.8421
33.4864
34.1173
34.7333
35.3332
35.9157
36.4794
37.0232
37.546
38.0465
38.5237
38.9766
39.4042
39.8055
40.1797
40.5262
40.8444
41.1337
41.3936
41.6238
41.824
41.9939
42.1334
42.2424
42.321
42.3693
42.3875
42.3759
42.3349
42.2648
42.1662
42.0399
41.8863
41.7062
41.5002
41.2684
41.0131
40.7348
40.4344
40.1125
39.7701
39.4088
39.0295
38.6329
38.2203
37.7928
37.3514
36.8971
36.4311
35.9544
35.468
34.9729
34.4702
33.9607
33.4455
32.9255
32.4017
31.8751
31.347
30.8186
30.2912
29.7656
29.242
28.7205
28.2013
27.6849
27.1715
26.662
26.1567
25.6561
25.1609
24.6717
24.189
23.7132
23.2449
22.7851
22.3348
21.8953
21.4681
21.0552
20.6598
20.2861
19.9397
19.6234
19.3412
3.42822
1.55225
1.20586
1.10281
1.07509
1.08093
1.10526
1.14126
1.18535
1.23548
1.29035
1.34916
1.41138
1.47672
1.54502
1.61624
1.69043
1.76769
1.84816
1.93204
2.0195
2.11076
2.20602
2.30548
2.40935
2.51784
2.63116
2.74952
2.87312
3.00218
3.13694
3.27764
3.42451
3.57784
3.7379
3.90499
4.07944
4.26159
4.4518
4.65045
4.85794
5.07469
5.30113
5.5377
5.78485
6.04303
6.3127
6.59431
6.88829
7.19508
7.51509
7.84873
8.19638
8.5584
8.93515
9.32693
9.73405
10.1567
10.5953
11.0498
11.5206
12.0077
12.5113
13.0314
13.568
14.1212
14.6907
15.2765
15.8783
16.4958
17.1286
17.7764
18.4387
19.1148
19.8044
20.5066
21.221
21.9466
22.6827
23.4284
24.183
24.9453
25.7145
26.4896
27.2696
28.0534
28.8398
29.6278
30.4126
31.1931
31.968
32.7359
33.4952
34.2445
34.9823
35.707
36.4171
37.1112
37.7877
38.4453
39.0825
39.6979
40.2902
40.8582
41.4006
41.9163
42.4042
42.8632
43.2923
43.6906
44.0575
44.3923
44.6946
44.964
45.2
45.4024
45.5712
45.706
45.8069
45.8741
45.9077
45.9082
45.8759
45.8112
45.7145
45.5867
45.4287
45.2411
45.0247
44.7803
44.5088
44.2115
43.8894
43.5436
43.175
42.7847
42.3742
41.9444
41.4966
41.0318
40.5513
40.0563
39.548
39.0274
38.4958
37.9542
37.4038
36.8456
36.2806
35.71
35.1347
34.5557
33.974
33.3909
32.8075
32.2248
31.6438
31.0648
30.4883
29.9148
29.3446
28.7783
28.2165
27.6598
27.1087
26.5638
26.0259
25.4955
24.973
24.4592
23.955
23.4615
22.9802
22.5125
22.0604
21.6268
21.2151
20.8298
20.4721
20.1453
3.4416
1.56979
1.21522
1.10613
1.07354
1.07512
1.0955
1.12775
1.16827
1.21499
1.26667
1.32251
1.38203
1.44495
1.51112
1.58051
1.65316
1.72917
1.80869
1.8919
1.97899
2.07016
2.16562
2.2656
2.37031
2.47999
2.59486
2.71514
2.8411
2.97296
3.111
3.2555
3.40673
3.56501
3.73067
3.90406
4.08554
4.27552
4.4744
4.68261
4.90063
5.12892
5.36798
5.61831
5.88043
6.15486
6.44213
6.74275
7.05724
7.38611
7.72985
8.08895
8.46389
8.8551
9.26302
9.68807
10.1306
10.591
11.0695
11.5664
12.082
12.6165
13.1699
13.7425
14.3341
14.9448
15.5744
16.2227
16.8895
17.5744
18.277
18.9966
19.7328
20.4848
21.2521
22.0339
22.8293
23.6374
24.4574
25.2883
26.1289
26.9783
27.8352
28.6985
29.5671
30.4396
31.3147
32.188
33.0566
33.9192
34.7745
35.6209
36.4565
37.2796
38.0885
38.8815
39.657
40.4135
41.1492
41.8626
42.5522
43.2165
43.8541
44.4637
45.044
45.5938
46.1122
46.5978
47.0494
47.4662
47.8478
48.1934
48.5027
48.7753
49.0109
49.2093
49.3704
49.4943
49.5806
49.6298
49.6424
49.6188
49.5596
49.4652
49.3363
49.1738
48.9786
48.7516
48.4937
48.2059
47.8893
47.5452
47.1746
46.7788
46.359
45.9165
45.4524
44.9682
44.4652
43.9445
43.4075
42.8555
42.2897
41.7113
41.1217
40.522
39.9135
39.2971
38.6741
38.0456
37.4126
36.7762
36.1374
35.4973
34.857
34.2176
33.58
32.9448
32.3125
31.6837
31.0589
30.4389
29.8241
29.2152
28.6129
28.0177
27.4303
26.8514
26.2815
25.7214
25.1721
24.6348
24.1107
23.6015
23.1091
22.636
22.185
21.7596
21.3602
20.9897
3.4062
1.56876
1.21208
1.0993
1.06311
1.06126
1.07836
1.10744
1.1449
1.1887
1.23762
1.2909
1.34807
1.40887
1.47318
1.54097
1.61229
1.68724
1.76599
1.8487
1.93558
2.02685
2.12274
2.22348
2.32932
2.44051
2.55731
2.67999
2.80883
2.94411
3.08616
3.23529
3.39184
3.55618
3.7287
3.9098
4.09991
4.2995
4.50905
4.72908
4.9601
5.20268
5.45738
5.7248
6.00553
6.30018
6.60936
6.93368
7.27372
7.6301
8.00338
8.39413
8.80292
9.23027
9.67669
10.1427
10.6286
11.135
11.6621
12.2103
12.7798
13.3709
13.9836
14.6181
15.2743
15.9522
16.6516
17.3722
18.1137
18.8756
19.6573
20.458
21.2771
22.1139
22.9674
23.8368
24.7211
25.6193
26.5303
27.453
28.3861
29.3284
30.2786
31.2354
32.1973
33.1629
34.1279
35.0876
36.0407
36.9856
37.9209
38.8448
39.7549
40.6493
41.5262
42.3838
43.2204
44.0342
44.8236
45.5869
46.3225
47.0289
47.7045
48.3482
48.9585
49.5344
50.0751
50.579
51.0443
51.4709
51.8582
52.2058
52.5132
52.7801
53.0064
53.1919
53.3368
53.441
53.5047
53.5283
53.5123
53.4573
53.3639
53.2329
53.0651
52.8614
52.6229
52.3505
52.0454
51.7088
51.3418
50.9457
50.522
50.0718
49.5965
49.0976
48.5764
48.0343
47.4727
46.893
46.2966
45.6849
45.0592
44.4208
43.7712
43.1115
42.443
41.7669
41.0844
40.3967
39.7048
39.0099
38.313
37.6152
36.9176
36.2211
35.5267
34.8352
34.1471
33.4633
32.7842
32.1105
31.443
30.7822
30.1287
29.4834
28.8468
28.2196
27.6025
26.9962
26.4019
25.8206
25.2537
24.7028
24.1697
23.6566
23.1659
22.7002
22.2593
21.8461
3.33048
1.55218
1.19869
1.08437
1.04577
1.0413
1.05573
1.08217
1.11707
1.15842
1.20503
1.25618
1.31142
1.37051
1.43335
1.49993
1.57031
1.64461
1.723
1.80567
1.89284
1.98476
2.08167
2.18386
2.29159
2.40517
2.5249
2.65109
2.78409
2.92423
3.07189
3.22746
3.39135
3.564
3.74587
3.93746
4.13928
4.35187
4.57581
4.8117
5.06017
5.32185
5.59743
5.88758
6.19301
6.51443
6.85253
7.20802
7.58158
7.97385
8.3855
8.81717
9.2695
9.74308
10.2385
10.7562
11.2967
11.8604
12.4478
13.059
13.6944
14.354
15.038
15.7465
16.4792
17.236
18.0168
18.821
19.6482
20.498
21.3692
22.261
23.1724
24.1026
25.0506
26.0153
26.9956
27.9902
28.9979
30.0175
31.0475
32.0866
33.1334
34.1863
35.2438
36.3011
37.3521
38.3953
39.429
40.4516
41.4614
42.4569
43.4351
44.393
45.3294
46.2425
47.1304
47.9915
48.8239
49.6259
50.396
51.1327
51.8343
52.4997
53.1275
53.7167
54.2662
54.7748
55.2415
55.6657
56.0467
56.3844
56.6782
56.9282
57.134
57.2959
57.414
57.4884
57.5196
57.508
57.4542
57.359
57.2232
57.0476
56.8331
56.581
56.2922
55.9681
55.6098
55.2186
54.7959
54.3431
53.8616
53.3528
52.8183
52.2596
51.678
51.0752
50.4526
49.8117
49.1539
48.4808
47.7938
47.0943
46.3836
45.6631
44.9341
44.1979
43.4558
42.7088
41.9581
41.2049
40.4503
39.6952
38.9408
38.1881
37.438
36.6913
35.9487
35.2109
34.4787
33.7527
33.0336
32.3221
31.6189
30.9245
30.2399
29.5656
28.9023
28.251
27.6125
26.9882
26.3793
25.7873
25.2139
24.6612
24.1312
23.6258
23.1443
22.69
3.22262
1.52281
1.17709
1.06321
1.02336
1.01709
1.02952
1.05392
1.08683
1.1263
1.17117
1.22078
1.2747
1.33272
1.39476
1.46084
1.53103
1.60549
1.6844
1.76799
1.85652
1.95027
2.04953
2.15464
2.26591
2.38372
2.50843
2.64042
2.78011
2.92793
3.08435
3.24984
3.42492
3.61012
3.80601
4.01319
4.23228
4.46394
4.70887
4.96776
5.24136
5.53043
5.83575
6.15811
6.49834
6.85723
7.23562
7.6343
8.05397
8.49527
8.95892
9.44563
9.95606
10.4908
11.0505
11.6355
12.2463
12.8834
13.5469
14.2371
14.9542
15.6981
16.4688
17.2663
18.0901
18.94
19.8156
20.7162
21.6415
22.591
23.5629
24.5555
25.568
26.5995
27.6488
28.7146
29.7957
30.8905
31.9979
33.1163
34.2443
35.3803
36.523
37.6708
38.8168
39.955
41.0836
42.2007
43.3045
44.393
45.4644
46.5165
47.5469
48.5534
49.5339
50.4866
51.4097
52.3014
53.1599
53.9836
54.771
55.5204
56.2306
56.9003
57.5283
58.1135
58.6551
59.152
59.6035
60.0089
60.368
60.6803
60.9456
61.1641
61.3356
61.4603
61.5387
61.571
61.5578
61.4997
61.3975
61.252
61.0641
60.835
60.5656
60.2572
59.9111
59.5285
59.1109
58.6596
58.1761
57.662
57.1188
56.5479
55.9511
55.3298
54.6857
54.0203
53.3352
52.6319
51.9121
51.1771
50.4286
49.6679
48.8966
48.1159
47.3273
46.532
45.7313
44.9263
44.1184
43.3086
42.4979
41.6875
40.8784
40.0715
39.2679
38.4683
37.6736
36.8844
36.1015
35.3256
34.5574
33.7976
33.0469
32.3059
31.5754
30.8562
30.1489
29.4545
28.7739
28.1083
27.459
26.8274
26.2153
25.6243
25.0561
24.5124
23.9921
23.4986
3.0905
1.4831
1.14903
1.03747
0.997597
0.990478
1.00175
1.02493
1.05666
1.0951
1.13914
1.18816
1.24179
1.29986
1.36231
1.42919
1.50063
1.57682
1.65799
1.74441
1.83642
1.93434
2.03857
2.14949
2.26754
2.39318
2.52686
2.66907
2.82034
2.98124
3.15236
3.3343
3.52773
3.73331
3.95176
4.18383
4.43027
4.69189
4.96951
5.26398
5.57616
5.90693
6.25719
6.62782
7.01975
7.43387
7.87112
8.33254
8.8187
9.32978
9.86667
10.4301
11.0206
11.6388
12.2851
12.9599
13.6634
14.3958
15.1573
15.9477
16.7671
17.6153
18.4918
19.3963
20.3283
21.2871
22.272
23.2822
24.3168
25.3747
26.4545
27.5546
28.6738
29.8108
30.9641
32.1322
33.3138
34.5074
35.7114
36.9244
38.1452
39.3718
40.6028
41.8276
43.0423
44.2447
45.433
46.6051
47.7588
48.8923
50.0034
51.09
52.1501
53.1814
54.182
55.15
56.0837
56.9813
57.8413
58.662
59.442
60.18
60.8747
61.5251
62.13
62.6886
63.2
63.6636
64.0788
64.4451
64.7623
65.0302
65.2489
65.4182
65.5387
65.6104
65.634
65.6099
65.5389
65.4217
65.2592
65.0524
64.8023
64.5102
64.1773
63.8048
63.3941
62.9468
62.4641
61.9477
61.3992
60.82
60.2119
59.5764
58.9152
58.2299
57.5222
56.7937
56.046
55.2807
54.4994
53.7037
52.895
52.0749
51.2448
50.4062
49.5603
48.7084
47.852
46.9921
46.1299
45.2666
44.4033
43.541
42.6806
41.8233
40.9699
40.1211
39.278
38.4411
37.6113
36.7893
35.9756
35.1712
34.3765
33.5924
32.8195
32.0587
31.3106
30.5761
29.8563
29.1523
28.4653
27.7967
27.148
26.5209
25.9168
25.337
24.7803
24.2503
2.93509
1.43317
1.11488
1.00779
0.96944
0.962801
0.974194
0.997437
1.02937
1.06824
1.11306
1.16326
1.21855
1.27879
1.344
1.41429
1.48985
1.57097
1.65794
1.75115
1.85102
1.95802
2.07264
2.19544
2.32702
2.46801
2.61904
2.78067
2.95366
3.13878
3.33682
3.54861
3.77501
4.01688
4.27515
4.55074
4.84459
5.15769
5.491
5.84549
6.22215
6.62194
7.0458
7.49466
7.9694
8.4709
8.99994
9.55726
10.1434
10.7589
11.404
12.0794
12.7852
13.5217
14.289
15.0871
15.916
16.7755
17.6652
18.5848
19.5337
20.5114
21.5171
22.5501
23.6094
24.694
25.8029
26.9348
28.0885
29.2626
30.4556
31.666
32.8922
34.1326
35.3857
36.65
37.9239
39.2061
40.4951
41.7889
43.0889
44.3848
45.6681
46.9376
48.1912
49.4269
50.6425
51.836
53.0054
54.1488
55.2641
56.3496
57.4031
58.4228
59.407
60.3539
61.262
62.1297
62.9556
63.7383
64.4766
65.1694
65.8156
66.4144
66.9648
67.4663
67.9182
68.32
68.6714
68.9721
69.2221
69.4214
69.5701
69.6686
69.717
69.7161
69.6664
69.5685
69.4234
69.2319
68.9951
68.714
68.3898
68.0239
67.6174
67.1719
66.6887
66.1695
65.6156
65.0288
64.4105
63.7625
63.0864
62.3839
61.6566
60.9062
60.1344
59.3428
58.533
57.7066
56.8653
56.0106
55.144
54.2669
53.3809
52.4873
51.5874
50.6826
49.7741
48.8631
47.9508
47.0382
46.1265
45.2165
44.3094
43.406
42.5073
41.6141
40.7271
39.8472
38.975
38.1112
37.2566
36.4119
35.5776
34.7546
33.9434
33.145
32.3599
31.5892
30.8338
30.0947
29.3733
28.6708
27.9886
27.3283
26.691
26.0779
25.4877
24.9243
2.7892
1.38386
1.08092
0.979613
0.944495
0.940281
0.953952
0.979644
1.01439
1.05658
1.10534
1.16022
1.22104
1.28777
1.36049
1.43945
1.525
1.61756
1.7176
1.8257
1.94247
2.0686
2.20482
2.35192
2.51077
2.68224
2.86726
3.06679
3.28185
3.5135
3.76283
4.03095
4.31899
4.62808
4.95936
5.31394
5.69293
6.0974
6.52838
6.98686
7.47375
7.98992
8.53613
9.11306
9.72133
10.3614
11.0337
11.7384
12.4757
13.2455
14.0478
14.8824
15.7489
16.6469
17.576
18.5356
19.5249
20.5431
21.5895
22.6629
23.7625
24.8871
26.0355
27.2066
28.399
29.6114
30.8425
32.0908
33.3548
34.6331
35.924
37.2261
38.5379
39.8577
41.1841
42.5161
43.8518
45.1898
46.5316
47.8674
49.1861
50.4884
51.7721
53.0352
54.2759
55.4922
56.6823
57.8444
58.9767
60.0776
61.1452
62.1781
63.1745
64.1328
65.0517
65.9296
66.7653
67.5575
68.3051
69.0069
69.662
70.2696
70.8288
71.3391
71.7997
72.2103
72.5704
72.8799
73.1386
73.3465
73.5035
73.6101
73.6664
73.6728
73.63
73.5385
73.3991
73.2125
72.9798
72.7019
72.38
72.0152
71.6087
71.1619
70.6761
70.1529
69.5936
68.9998
68.3731
67.715
67.0272
66.3112
65.5689
64.8017
64.0114
63.1995
62.3678
61.5178
60.6512
59.7694
58.8741
57.9668
57.0488
56.1218
55.187
54.2458
53.2995
52.3493
51.3966
50.4423
49.4877
48.5338
47.5815
46.6319
45.6859
44.7444
43.8083
42.8783
41.9552
41.0397
40.1326
39.2345
38.3461
37.468
36.601
35.7457
34.9028
34.073
33.2572
32.456
31.6706
30.902
30.1513
29.4198
28.7089
28.0198
27.3537
26.7117
26.0922
25.4997
2.66014
1.33584
1.04947
0.956168
0.927076
0.928506
0.948074
0.980228
1.02221
1.07258
1.13065
1.19613
1.26903
1.34952
1.43797
1.53486
1.64079
1.75649
1.88276
2.02052
2.17076
2.33456
2.51308
2.70756
2.91929
3.14963
3.39995
3.67167
3.96624
4.2851
4.62969
5.00138
5.40154
5.83141
6.29218
6.78493
7.3106
7.87
8.46382
9.09255
9.75656
10.4561
11.1911
11.9614
12.7669
13.6071
14.4813
15.389
16.3292
17.3009
18.3033
19.335
20.3951
21.4822
22.5951
23.7324
24.8929
26.0752
27.2778
28.4994
29.7387
30.9942
32.2646
33.5484
34.8443
36.1509
37.467
38.791
40.1217
41.4579
42.7982
44.1413
45.4863
46.832
48.1765
49.5214
50.8633
52.1935
53.5025
54.7917
56.0588
57.3025
58.5212
59.7135
60.8778
62.0126
63.1164
64.1878
65.2252
66.2275
67.1931
68.1208
69.0094
69.8575
70.6642
71.4282
72.1485
72.8242
73.4544
74.0383
74.5752
75.0644
75.5055
75.898
76.2415
76.5358
76.7806
76.976
77.122
77.2186