/*--------------------------------*- C++ -*----------------------------------*\
  =========                 |
  \\      /  F ield         | OpenFOAM: The Open Source CFD Toolbox
   \\    /   O peration     | Website:  https://openfoam.org
    \\  /    A nd           | Version:  7
     \\/     M anipulation  |
\*---------------------------------------------------------------------------*/
FoamFile
{
    version     2.0;
    format      ascii;
    class       volScalarField;
    location    "0.2";
    object      k;
}
// * * * * * * * * * * * * * * * * * * * * * * * * * * * * * * * * * * * * * //

dimensions      [0 2 -2 0 0 0 0];

internalField   nonuniform List<scalar> 
12225
(
0.332317
0.291426
0.257358
0.230626
0.211153
0.197863
0.189255
0.183918
0.180735
0.178899
0.17786
0.177265
0.176898
0.176633
0.176403
0.176165
0.175962
0.177137
0.412401
0.405339
0.384443
0.372421
0.369844
0.372736
0.377791
0.383154
0.387992
0.392005
0.395148
0.397505
0.399208
0.400385
0.401175
0.401596
0.402081
0.401657
0.385493
0.382621
0.37238
0.362671
0.356087
0.352604
0.351411
0.351692
0.352827
0.354381
0.356067
0.357713
0.35923
0.360581
0.361764
0.362768
0.363692
0.364317
0.377227
0.374576
0.368312
0.360829
0.353906
0.348227
0.343848
0.3406
0.338267
0.336635
0.335517
0.334764
0.334265
0.333939
0.333732
0.333599
0.333526
0.333453
0.374686
0.371972
0.367007
0.360936
0.354802
0.349105
0.344021
0.339589
0.335781
0.332531
0.329762
0.327394
0.325359
0.323598
0.322065
0.320717
0.319523
0.318461
0.373367
0.370411
0.366183
0.361149
0.355898
0.350753
0.345874
0.341343
0.337195
0.333431
0.330028
0.326955
0.324178
0.321664
0.319381
0.317302
0.315401
0.313678
0.372514
0.36931
0.365485
0.361143
0.356593
0.352039
0.347594
0.343336
0.339313
0.335547
0.33204
0.328785
0.325767
0.322972
0.32038
0.317975
0.315742
0.313694
0.371961
0.368517
0.364846
0.360913
0.356856
0.352787
0.348774
0.344873
0.341123
0.337552
0.334169
0.330978
0.327974
0.325151
0.3225
0.32001
0.317675
0.315518
0.371601
0.367939
0.364274
0.360546
0.356799
0.353079
0.349417
0.345842
0.342382
0.339057
0.335877
0.332847
0.329969
0.327239
0.324652
0.322205
0.319894
0.317747
0.371367
0.367529
0.3638
0.360143
0.35656
0.353058
0.349642
0.346322
0.343108
0.340013
0.337041
0.334196
0.331478
0.328886
0.326418
0.324071
0.321844
0.319768
0.371217
0.367247
0.36344
0.35978
0.356258
0.352868
0.349601
0.346451
0.343419
0.340504
0.337708
0.33503
0.332467
0.330017
0.327678
0.325448
0.323326
0.321344
0.371127
0.367076
0.363208
0.359518
0.356
0.352646
0.349444
0.346382
0.343453
0.340651
0.337972
0.335411
0.332963
0.330625
0.328392
0.326261
0.324234
0.322338
0.371065
0.366958
0.363043
0.359321
0.355788
0.352439
0.34926
0.346242
0.343371
0.34064
0.338039
0.335561
0.333199
0.330947
0.328799
0.326752
0.324805
0.322984
0.371019
0.366871
0.362922
0.359171
0.355617
0.352256
0.349077
0.346071
0.343226
0.340532
0.337978
0.335554
0.333252
0.331063
0.328982
0.327002
0.325122
0.323367
0.370987
0.366811
0.362842
0.359073
0.355502
0.352126
0.348938
0.345928
0.343086
0.340402
0.337865
0.335465
0.333193
0.33104
0.328997
0.32706
0.325224
0.323514
0.370966
0.366774
0.362796
0.35902
0.355444
0.352061
0.348866
0.34585
0.343005
0.34032
0.337785
0.335391
0.333128
0.330987
0.328961
0.327041
0.325227
0.32354
0.370955
0.366756
0.362778
0.359006
0.355434
0.352055
0.348863
0.34585
0.343007
0.340325
0.337792
0.335401
0.333142
0.331007
0.328986
0.327075
0.325269
0.323592
0.370956
0.36676
0.36279
0.35903
0.355471
0.352107
0.34893
0.345932
0.343102
0.340433
0.337914
0.335535
0.333288
0.331164
0.329155
0.327254
0.32546
0.323793
0.370974
0.366798
0.362849
0.359112
0.35558
0.352244
0.349098
0.34613
0.343333
0.340695
0.338208
0.33586
0.333643
0.331549
0.329568
0.327696
0.325928
0.324287
0.371015
0.366882
0.362976
0.359283
0.355798
0.352513
0.349419
0.346508
0.343768
0.341189
0.338759
0.336469
0.334308
0.332268
0.330339
0.328517
0.326797
0.3252
0.371081
0.367016
0.363177
0.359553
0.35614
0.352932
0.349921
0.347094
0.344437
0.341939
0.339588
0.337371
0.335278
0.3333
0.331428
0.329656
0.32798
0.32642
0.371191
0.367242
0.36352
0.360017
0.356729
0.353651
0.350768
0.348062
0.345516
0.343114
0.340842
0.33869
0.336646
0.334702
0.332851
0.331086
0.329406
0.327832
0.371381
0.367644
0.364139
0.360847
0.357754
0.354852
0.352117
0.349521
0.347045
0.344673
0.342398
0.340211
0.338105
0.336077
0.334122
0.332238
0.330429
0.328719
0.371731
0.368398
0.365281
0.362294
0.359411
0.356631
0.35393
0.351283
0.34868
0.346125
0.343623
0.341176
0.338789
0.336468
0.334215
0.332034
0.329932
0.327941
0.372421
0.369829
0.36729
0.364586
0.361717
0.358754
0.355719
0.352627
0.349509
0.346403
0.343339
0.340338
0.337416
0.334586
0.331856
0.329231
0.326718
0.324352
0.373942
0.372661
0.370661
0.36778
0.364274
0.360416
0.356351
0.352191
0.348037
0.343963
0.340016
0.336226
0.33261
0.329178
0.325931
0.322868
0.31999
0.317319
0.377771
0.378982
0.376507
0.371674
0.36588
0.359789
0.35369
0.347766
0.34214
0.336878
0.332006
0.327526
0.323427
0.319688
0.316287
0.313197
0.310395
0.307877
0.3876
0.394032
0.38662
0.374838
0.363295
0.35297
0.343934
0.336123
0.329444
0.323784
0.319024
0.315048
0.31175
0.309033
0.306811
0.305009
0.303563
0.302423
0.402384
0.394874
0.37547
0.356343
0.340873
0.32932
0.321123
0.315594
0.312089
0.310094
0.309225
0.309196
0.309792
0.310843
0.312222
0.313831
0.315603
0.317459
0.351309
0.326982
0.304715
0.284406
0.266231
0.25025
0.236435
0.224658
0.214723
0.206409
0.199496
0.19378
0.189081
0.18524
0.18212
0.179602
0.177589
0.175995
0.00054969
0.00313207
0.00518393
0.00712375
0.0092677
0.0116001
0.0141689
0.0168175
0.0194424
0.0220624
0.0246736
0.0272708
0.0298528
0.0324212
0.0349797
0.037533
0.0400862
0.0426443
0.0452119
0.0477933
0.0503921
0.0530117
0.0556546
0.0583229
0.0610179
0.0637406
0.0664913
0.0692697
0.0720755
0.0749075
0.0777644
0.0806446
0.0835463
0.0864674
0.0894055
0.0923581
0.0953223
0.0982947
0.101271
0.104247
0.107217
0.110173
0.113106
0.116006
0.118859
0.121653
0.124373
0.127006
0.129539
0.131966
0.134282
0.136487
0.138581
0.140554
0.142382
0.144011
0.145349
0.146271
0.146637
0.146389
0.145718
0.144983
0.148841
0.148437
0.147433
0.146681
0.14778
0.14828
0.151446
0.149384
0.148936
0.148594
0.150984
0.148947
0.150111
0.151259
0.151941
0.152444
0.155255
0.15815
0.161084
0.164022
0.166952
0.169865
0.172754
0.175613
0.178439
0.181229
0.183979
0.18669
0.189362
0.192001
0.194621
0.197185
0.199684
0.202119
0.204487
0.206786
0.209013
0.211164
0.213236
0.215226
0.217132
0.218949
0.220676
0.22231
0.223848
0.225289
0.22663
0.227869
0.229005
0.230035
0.23096
0.231778
0.232487
0.233088
0.23358
0.233962
0.234234
0.234398
0.234452
0.234398
0.234237
0.23397
0.233597
0.233121
0.232542
0.231863
0.231086
0.230213
0.229246
0.228187
0.22704
0.225806
0.224489
0.223092
0.221617
0.220068
0.218448
0.216761
0.215008
0.213195
0.211324
0.209398
0.207421
0.205396
0.203327
0.201216
0.199068
0.196886
0.194672
0.192434
0.190175
0.187901
0.185665
0.183971
0.204297
0.18815
0.203196
0.195107
0.185689
0.187836
0.184109
0.200646
0.186922
0.190699
0.190101
0.200748
0.19885
0.200893
0.189282
0.197769
0.196646
0.194298
0.196934
0.207676
0.201863
0.202041
0.200451
0.199049
0.00209448
0.0092369
0.013975
0.0175986
0.0207523
0.0237877
0.0268259
0.0298798
0.0329292
0.0359568
0.0389511
0.0419075
0.0448266
0.0477129
0.0505727
0.0534133
0.056242
0.0590659
0.0618915
0.0647247
0.0675708
0.0704343
0.073319
0.0762282
0.0791643
0.0821292
0.0851244
0.0881506
0.0912085
0.0942979
0.0974187
0.10057
0.103752
0.106963
0.110202
0.113467
0.116757
0.12007
0.123403
0.126754
0.130117
0.13349
0.136864
0.140234
0.143592
0.14693
0.150238
0.153511
0.156743
0.159932
0.163082
0.166196
0.169281
0.172336
0.175351
0.1783
0.181142
0.183848
0.186452
0.18914
0.192153
0.195012
0.19843
0.20175
0.205449
0.209657
0.213678
0.217137
0.221715
0.225588
0.230307
0.235724
0.239877
0.245973
0.251625
0.257227
0.263174
0.269849
0.275881
0.281465
0.287117
0.292816
0.298545
0.304287
0.310027
0.315757
0.32147
0.327158
0.332816
0.338437
0.344014
0.349542
0.354948
0.360264
0.365503
0.370661
0.375733
0.380714
0.385596
0.390374
0.39504
0.399588
0.404013
0.408307
0.412465
0.416481
0.420349
0.424064
0.427621
0.431015
0.434242
0.437296
0.440176
0.442876
0.445393
0.447726
0.44987
0.451824
0.453587
0.455156
0.45653
0.45771
0.458694
0.459484
0.460078
0.460479
0.460688
0.460705
0.460534
0.460177
0.459635
0.458913
0.458014
0.456941
0.455697
0.454289
0.452718
0.450991
0.449113
0.447087
0.44492
0.442616
0.440182
0.437623
0.434944
0.43215
0.429249
0.426246
0.423145
0.419957
0.416678
0.413328
0.409905
0.406395
0.402879
0.399342
0.393385
0.392959
0.386876
0.385216
0.382734
0.379104
0.376031
0.374754
0.369247
0.364891
0.361521
0.360733
0.354007
0.354205
0.348551
0.347251
0.343962
0.337375
0.337354
0.333728
0.331246
0.327718
0.323919
0.317531
0.004183
0.0149754
0.0210598
0.0253902
0.029091
0.0325425
0.0359018
0.039226
0.0425261
0.0457968
0.0490311
0.0522258
0.0553819
0.0585042
0.0615998
0.0646768
0.0677435
0.070808
0.0738777
0.0769595
0.0800593
0.0831823
0.0863329
0.0895149
0.0927314
0.0959848
0.0992772
0.10261
0.105984
0.109401
0.11286
0.116363
0.119909
0.123498
0.127131
0.130807
0.134526
0.138287
0.142089
0.145932
0.149814
0.153734
0.157687
0.161672
0.165686
0.169726
0.173789
0.177875
0.181985
0.186123
0.190297
0.194518
0.198797
0.203145
0.20757
0.212076
0.216665
0.221352
0.226177
0.231215
0.236479
0.241785
0.247388
0.253214
0.259249
0.265414
0.271658
0.277942
0.284477
0.29103
0.297848
0.304821
0.311748
0.319044
0.326345
0.333691
0.341127
0.348673
0.356109
0.363421
0.370693
0.377961
0.385229
0.392492
0.399743
0.406974
0.414179
0.421351
0.428484
0.435572
0.44261
0.449568
0.456427
0.463194
0.469866
0.476437
0.4829
0.489248
0.49547
0.501559
0.507507
0.513306
0.518946
0.524421
0.529722
0.534843
0.539774
0.544511
0.549046
0.553373
0.557486
0.56138
0.565049
0.568489
0.571697
0.574667
0.577396
0.579883
0.582124
0.584118
0.585862
0.587358
0.588603
0.589598
0.590344
0.590842
0.591094
0.5911
0.590865
0.590391
0.589681
0.58874
0.58757
0.586178
0.584568
0.582744
0.580714
0.578482
0.576055
0.57344
0.570642
0.567669
0.564527
0.561224
0.557768
0.554162
0.55042
0.546546
0.542541
0.538429
0.534194
0.52987
0.52547
0.52099
0.516472
0.511902
0.506662
0.503068
0.497729
0.493537
0.48935
0.484657
0.480207
0.476019
0.470885
0.465824
0.461169
0.457148
0.451821
0.448025
0.44293
0.438786
0.434238
0.428963
0.425233
0.42073
0.416596
0.412328
0.408057
0.403214
0.00625578
0.0197327
0.0267926
0.0317187
0.0358249
0.0395609
0.0431257
0.0466105
0.0500522
0.0534624
0.0568426
0.060193
0.0635153
0.0668139
0.0700949
0.0733658
0.0766346
0.0799091
0.0831968
0.0865047
0.0898388
0.0932045
0.0966067
0.100049
0.103536
0.107069
0.110652
0.114285
0.117972
0.121713
0.125509
0.129363
0.133273
0.137243
0.141272
0.145362
0.149513
0.153727
0.158004
0.162345
0.166751
0.171222
0.175759
0.180362
0.185032
0.18977
0.194578
0.199458
0.204415
0.209457
0.214593
0.219835
0.225195
0.230685
0.236316
0.242094
0.248027
0.254123
0.260398
0.266873
0.273553
0.280399
0.287434
0.294644
0.302016
0.309529
0.317171
0.324929
0.332809
0.340789
0.348896
0.357108
0.365396
0.373794
0.38226
0.390782
0.399342
0.407938
0.41652
0.425062
0.433573
0.442069
0.450553
0.459024
0.467477
0.475907
0.484305
0.492665
0.50098
0.509244
0.517448
0.525552
0.533557
0.541458
0.549249
0.556923
0.564469
0.571878
0.579141
0.586246
0.593185
0.599948
0.606524
0.612905
0.619081
0.625043
0.630784
0.636294
0.641566
0.646592
0.651366
0.655882
0.660133
0.664114
0.667821
0.671248
0.674392
0.677249
0.679817
0.682094
0.684079
0.685769
0.687166
0.688268
0.689078
0.689596
0.689825
0.689766
0.689423
0.688799
0.687899
0.686727
0.685287
0.683587
0.68163
0.679424
0.676975
0.67429
0.671377
0.668242
0.664894
0.661341
0.65759
0.653651
0.649532
0.645237
0.640785
0.636179
0.631411
0.626533
0.621531
0.61642
0.611214
0.605923
0.60058
0.595197
0.589652
0.584458
0.578818
0.573349
0.567936
0.562336
0.556829
0.551355
0.545597
0.539829
0.534214
0.528785
0.523066
0.517678
0.512003
0.506599
0.501135
0.495542
0.490371
0.485151
0.480103
0.475259
0.470655
0.466335
0.00802091
0.0234858
0.0314092
0.0368547
0.0413077
0.0452797
0.0490061
0.0526061
0.0561395
0.0596347
0.0631046
0.0665551
0.0699906
0.0734159
0.0768367
0.0802596
0.0836918
0.0871405
0.0906128
0.0941153
0.0976539
0.101234
0.104861
0.108538
0.11227
0.116059
0.119908
0.12382
0.127797
0.13184
0.135953
0.140135
0.14439
0.148719
0.153124
0.157606
0.162168
0.166812
0.17154
0.176355
0.181259
0.186254
0.191343
0.196528
0.201813
0.207201
0.212695
0.218302
0.224026
0.229876
0.23586
0.241989
0.248273
0.254721
0.261343
0.268144
0.275126
0.282292
0.289648
0.2972
0.304946
0.312875
0.320979
0.329247
0.337673
0.346247
0.35496
0.3638
0.372759
0.381829
0.391007
0.400283
0.409643
0.419085
0.428598
0.438168
0.44778
0.457423
0.467076
0.476722
0.486355
0.495976
0.505585
0.515179
0.524752
0.534298
0.54381
0.553278
0.562696
0.572055
0.581334
0.590505
0.599566
0.60851
0.617329
0.626014
0.634552
0.642934
0.651148
0.659181
0.667024
0.674665
0.682092
0.689296
0.696265
0.702989
0.709459
0.715665
0.721599
0.727251
0.732616
0.737684
0.74245
0.746907
0.75105
0.754875
0.758376
0.761551
0.764396
0.766908
0.769088
0.770932
0.772443
0.773619
0.774461
0.774973
0.775155
0.775011
0.774545
0.77376
0.772661
0.771255
0.769545
0.76754
0.765245
0.762667
0.759815
0.756697
0.753319
0.749691
0.745824
0.741724
0.737399
0.732864
0.728128
0.723186
0.718073
0.712796
0.707356
0.701776
0.69606
0.690221
0.684272
0.678229
0.67212
0.665965
0.659741
0.653543
0.647208
0.640843
0.634474
0.628028
0.621605
0.615177
0.60865
0.602114
0.595637
0.589227
0.58276
0.576377
0.569957
0.56365
0.557383
0.551145
0.545097
0.539184
0.533475
0.528097
0.5231
0.518609
0.00939039
0.0264256
0.0350468
0.0409295
0.0456834
0.049865
0.0537358
0.0574355
0.0610419
0.0645982
0.0681281
0.0716452
0.0751579
0.078673
0.0821968
0.0857356
0.0892961
0.0928851
0.0965089
0.100174
0.103886
0.10765
0.111471
0.115354
0.119301
0.123317
0.127404
0.131566
0.135805
0.140123
0.144522
0.149005
0.153574
0.158232
0.162982
0.167825
0.172766
0.177806
0.18295
0.188201
0.193563
0.199039
0.204633
0.21035
0.216194
0.22217
0.228282
0.234536
0.240939
0.247498
0.25422
0.261114
0.268187
0.275449
0.282902
0.290553
0.298401
0.306448
0.314694
0.323138
0.331779
0.34061
0.349622
0.358806
0.368157
0.377667
0.387325
0.397124
0.407054
0.417107
0.427274
0.437545
0.44791
0.458362
0.468891
0.479484
0.49013
0.500816
0.511527
0.522248
0.532971
0.54369
0.5544
0.565095
0.575769
0.586413
0.597018
0.607576
0.618077
0.628513
0.63884
0.649053
0.659145
0.669106
0.678925
0.688592
0.698095
0.70742
0.716554
0.725486
0.734202
0.742689
0.750936
0.75893
0.766659
0.774113
0.781279
0.788149
0.794711
0.800957
0.806878
0.812466
0.817714
0.822615
0.827165
0.831356
0.835185
0.838648
0.841741
0.844463
0.846812
0.848786
0.850387
0.851614
0.85247
0.852957
0.853076
0.852832
0.852229
0.851272
0.849965
0.848317
0.846332
0.844019
0.841384
0.838434
0.835182
0.831635
0.827801
0.823686
0.81931
0.814679
0.80979
0.804676
0.799346
0.793802
0.788064
0.782144
0.776048
0.769793
0.763389
0.756848
0.750184
0.743416
0.736565
0.729652
0.722675
0.715645
0.708536
0.701365
0.694157
0.686901
0.679636
0.672358
0.66504
0.657718
0.650426
0.643168
0.635914
0.628702
0.621521
0.614424
0.607407
0.600478
0.593711
0.587144
0.580838
0.574924
0.569456
0.564531
0.0104314
0.028663
0.0378242
0.0440591
0.0490655
0.0534306
0.0574326
0.0612247
0.0648973
0.0685047
0.0720803
0.0756447
0.0792114
0.0827899
0.0863882
0.0900132
0.0936717
0.0973702
0.101115
0.104912
0.108766
0.112684
0.116668
0.120725
0.124858
0.12907
0.133364
0.137744
0.142213
0.146772
0.151426
0.156176
0.161026
0.165978
0.171037
0.176205
0.181485
0.186883
0.192402
0.198046
0.203821
0.20973
0.21578
0.221974
0.228319
0.23482
0.241482
0.248312
0.255315
0.262497
0.269867
0.27743
0.285194
0.293163
0.301341
0.309732
0.318337
0.327154
0.336183
0.345423
0.35487
0.364519
0.374363
0.384396
0.39461
0.404998
0.415553
0.426264
0.437123
0.44812
0.459247
0.470492
0.481845
0.493297
0.504838
0.516456
0.528138
0.539871
0.551643
0.56344
0.575249
0.587063
0.598872
0.610669
0.622443
0.634186
0.645887
0.657534
0.669117
0.680619
0.691997
0.703249
0.714365
0.725334
0.736146
0.746786
0.75724
0.767496
0.777538
0.787352
0.796925
0.806242
0.81529
0.824055
0.832524
0.840686
0.848527
0.856037
0.863205
0.87002
0.876473
0.882557
0.888262
0.893584
0.898514
0.903048
0.90718
0.910907
0.914226
0.917134
0.919629
0.921712
0.923383
0.924643
0.925493
0.925937
0.925977
0.925619
0.924866
0.923724
0.922199
0.920299
0.918032
0.915405
0.912426
0.909101
0.905448
0.901474
0.897184
0.892583
0.887706
0.882553
0.877131
0.87146
0.865552
0.859415
0.853067
0.846517
0.839779
0.832867
0.825791
0.818566
0.811207
0.80373
0.796155
0.7885
0.78077
0.772964
0.765086
0.75714
0.749143
0.741103
0.73304
0.724961
0.716862
0.708762
0.700684
0.692634
0.684608
0.676624
0.668698
0.660859
0.653124
0.645513
0.638079
0.630881
0.62399
0.617522
0.611521
0.60605
0.0111755
0.0302904
0.03985
0.0463548
0.051563
0.0560814
0.0601981
0.0640742
0.0678076
0.0714607
0.0750739
0.078674
0.0822789
0.0859018
0.0895526
0.0932396
0.09697
0.100751
0.104588
0.108487
0.112455
0.116495
0.120614
0.124814
0.1291
0.133476
0.137945
0.14251
0.147174
0.151942
0.156815
0.161797
0.166891
0.172101
0.17743
0.182884
0.188465
0.194179
0.200031
0.206025
0.212168
0.218464
0.22492
0.231541
0.238333
0.245303
0.252456
0.259799
0.267338
0.275078
0.283026
0.291188
0.29957
0.308175
0.317008
0.326071
0.335364
0.344888
0.354642
0.364622
0.374827
0.385251
0.39589
0.406738
0.417786
0.429029
0.440458
0.452064
0.463838
0.475769
0.487848
0.500063
0.512404
0.524859
0.537417
0.550065
0.562792
0.575582
0.588423
0.6013
0.614201
0.627112
0.640025
0.652926
0.665805
0.678651
0.691451
0.704192
0.716865
0.729419
0.741844
0.754129
0.766264
0.778236
0.79003
0.801632
0.813027
0.824198
0.835132
0.845812
0.856222
0.866349
0.876176
0.885689
0.894875
0.90372
0.912211
0.920336
0.928082
0.935438
0.942396
0.948947
0.955082
0.960794
0.966077
0.970925
0.975334
0.979299
0.982817
0.985885
0.988503
0.99067
0.992389
0.993659
0.994485
0.994867
0.994812
0.994323
0.993406
0.992067
0.990312
0.988152
0.985595
0.982649
0.979321
0.975616
0.971561
0.967162
0.962427
0.957366
0.951999
0.946337
0.940389
0.934172
0.927699
0.920982
0.914036
0.906874
0.89951
0.891956
0.884227
0.876337
0.8683
0.860133
0.851854
0.843479
0.835016
0.826468
0.817842
0.809146
0.800393
0.791595
0.782768
0.773922
0.765063
0.756206
0.747369
0.738561
0.729788
0.721066
0.712416
0.703864
0.695436
0.687158
0.67908
0.671266
0.663787
0.656746
0.650168
0.644098
0.0116555
0.0313911
0.0412249
0.0479235
0.0532828
0.0579211
0.0621315
0.0660788
0.0698651
0.0735576
0.0772014
0.080828
0.0844594
0.0881117
0.0917971
0.0955255
0.0993053
0.103144
0.107048
0.111023
0.115075
0.11921
0.123431
0.127744
0.132152
0.13666
0.14127
0.145988
0.150815
0.155755
0.160812
0.16599
0.171293
0.176723
0.182287
0.187988
0.193831
0.199823
0.205967
0.212271
0.21874
0.22538
0.232199
0.239202
0.246397
0.25379
0.261386
0.269194
0.277219
0.285467
0.293944
0.302656
0.311607
0.320802
0.330245
0.339938
0.349881
0.360076
0.37052
0.381213
0.392151
0.403331
0.414747
0.426395
0.438266
0.450355
0.462652
0.475149
0.487835
0.5007
0.513732
0.526921
0.540253
0.553716
0.567297
0.580984
0.594761
0.608614
0.622529
0.63649
0.650482
0.664492
0.678507
0.692511
0.706493
0.720439
0.734333
0.748163
0.761903
0.775506
0.788966
0.802271
0.81541
0.828365
0.841121
0.853663
0.865974
0.878036
0.889833
0.901348
0.912565
0.923468
0.93404
0.944267
0.954133
0.963625
0.972728
0.98143
0.989716
0.997576
1.005
1.01198
1.0185
1.02457
1.03017
1.0353
1.03995
1.04412
1.0478
1.051
1.05371
1.05593
1.05767
1.05893
1.0597
1.06
1.05983
1.0592
1.0581
1.05655
1.05455
1.05212
1.04927
1.046
1.04233
1.03826
1.03381
1.029
1.02383
1.01831
1.01247
1.00631
0.99985
0.993103
0.986082
0.978803
0.971279
0.963525
0.955555
0.947383
0.939024
0.930492
0.921802
0.91297
0.904013
0.894947
0.885782
0.876523
0.867182
0.857766
0.84829
0.838765
0.829208
0.819629
0.810039
0.800453
0.790888
0.781355
0.771864
0.762433
0.753085
0.743848
0.73475
0.725823
0.717118
0.708697
0.700629
0.693001
0.685824
0.67913
0.0119037
0.0320402
0.0420411
0.0488651
0.0543271
0.0590509
0.0633308
0.0673325
0.0711599
0.0748825
0.0785486
0.0821925
0.0858394
0.0895078
0.0932123
0.0969642
0.100773
0.104647
0.108594
0.11262
0.11673
0.120931
0.125227
0.129623
0.134123
0.138731
0.143452
0.148288
0.153245
0.158326
0.163534
0.168874
0.17435
0.179967
0.18573
0.191644
0.197715
0.203949
0.210351
0.21693
0.22369
0.23064
0.237787
0.245138
0.2527
0.260481
0.268487
0.276725
0.285203
0.293926
0.3029
0.312131
0.321624
0.331383
0.341411
0.351712
0.362286
0.373135
0.384257
0.395651
0.407314
0.419243
0.431433
0.443879
0.456573
0.469509
0.482677
0.496067
0.509669
0.523472
0.537462
0.551628
0.565955
0.58043
0.595037
0.609762
0.62459
0.639505
0.65449
0.669529
0.684606
0.699704
0.714808
0.729903
0.744973
0.760002
0.774974
0.789874
0.804641
0.819263
0.833728
0.848022
0.862129
0.876031
0.88971
0.90315
0.916332
0.929238
0.941851
0.954152
0.966125
0.977751
0.989015
0.999901
1.01039
1.02048
1.03014
1.03936
1.04813
1.05644
1.06428
1.07163
1.0785
1.08487
1.09073
1.09609
1.10094
1.10527
1.10908
1.11236
1.11513
1.11738
1.1191
1.12032
1.12102
1.12121
1.1209
1.1201
1.11881
1.11704
1.1148
1.1121
1.10895
1.10537
1.10135
1.09692
1.09209
1.08687
1.08128
1.07532
1.06902
1.06239
1.05543
1.04818
1.04063
1.03282
1.02474
1.01642
1.00788
0.999119
0.990161
0.981019
0.971709
0.962247
0.952648
0.942929
0.9331
0.923171
0.913153
0.903058
0.892897
0.882685
0.872437
0.862165
0.851882
0.841605
0.831348
0.821127
0.810954
0.800848
0.790834
0.780942
0.771201
0.76165
0.752336
0.743321
0.734668
0.726449
0.718664
0.711341
0.0119518
0.032305
0.0423816
0.0492712
0.0547918
0.0595675
0.0638911
0.0679277
0.0717811
0.0755217
0.0791992
0.0828499
0.0865008
0.0901726
0.0938815
0.0976404
0.10146
0.10535
0.109317
0.11337
0.117514
0.121755
0.126099
0.13055
0.135113
0.139793
0.144594
0.149521
0.154577
0.159768
0.165097
0.170569
0.176189
0.181964
0.187897
0.193996
0.200266
0.206715
0.213349
0.220176
0.227204
0.23444
0.241892
0.249568
0.257477
0.265626
0.274022
0.282674
0.291588
0.300771
0.310229
0.319968
0.329993
0.340308
0.350917
0.361823
0.373028
0.384531
0.396333
0.408433
0.420827
0.433512
0.446483
0.459735
0.473259
0.487049
0.501095
0.515386
0.529911
0.544656
0.559608
0.574753
0.590074
0.605556
0.621184
0.636941
0.652809
0.668771
0.684809
0.700906
0.717043
0.733203
0.749367
0.76552
0.781643
0.797719
0.813732
0.829629
0.845378
0.860967
0.876383
0.891608
0.906623
0.921409
0.935945
0.950214
0.964197
0.977875
0.991228
1.00424
1.01689
1.02916
1.04104
1.05251
1.06355
1.07415
1.08429
1.09396
1.10315
1.11183
1.12001
1.12767
1.1348
1.14141
1.14748
1.15301
1.15799
1.16243
1.16632
1.16964
1.17242
1.17464
1.17632
1.17746
1.17806
1.17812
1.17766
1.17667
1.17518
1.17318
1.17069
1.16772
1.16428
1.16038
1.15603
1.15125
1.14605
1.14044
1.13445
1.12807
1.12133
1.11425
1.10683
1.0991
1.09107
1.08275
1.07416
1.06531
1.05623
1.04692
1.03741
1.0277
1.01781
1.00777
0.997572
0.987247
0.976805
0.966255
0.95561
0.944884
0.934088
0.923238
0.912348
0.901432
0.890504
0.879581
0.868679
0.857814
0.847002
0.836263
0.825624
0.815113
0.804765
0.794618
0.784721
0.77513
0.765904
0.757104
0.748717
0.740775
0.0118304
0.0322454
0.0423211
0.0492253
0.0547653
0.0595612
0.063903
0.0679536
0.071816
0.07556
0.0792361
0.0828813
0.086524
0.0901862
0.0938854
0.0976358
0.101449
0.105336
0.109305
0.113363
0.117518
0.121776
0.126143
0.130625
0.135227
0.139953
0.14481
0.149801
0.154932
0.160208
0.165633
0.171215
0.176957
0.182867
0.188951
0.195216
0.201669
0.208317
0.215169
0.222233
0.229517
0.237029
0.24478
0.252777
0.261029
0.269545
0.278333
0.287401
0.296756
0.306405
0.316356
0.326613
0.337182
0.348067
0.359273
0.370801
0.382653
0.39483
0.407332
0.420156
0.4333
0.446759
0.460529
0.474603
0.488973
0.503631
0.518565
0.533765
0.549217
0.564907
0.58082
0.596937
0.613243
0.629719
0.646349
0.663113
0.679993
0.69697
0.714024
0.731137
0.748288
0.765458
0.782628
0.799781
0.816895
0.833954
0.850913
0.867723
0.884371
0.900842
0.91712
0.933187
0.949018
0.964589
0.979882
0.994878
1.00956
1.0239
1.03789
1.0515
1.06472
1.07754
1.08992
1.10186
1.11334
1.12435
1.13488
1.1449
1.1544
1.16336
1.17179
1.17966
1.18699
1.19375
1.19994
1.20557
1.21062
1.21509
1.21899
1.22231
1.22504
1.22721
1.2288
1.22983
1.23029
1.2302
1.22956
1.22838
1.22667
1.22444
1.2217
1.21845
1.21472
1.21052
1.20585
1.20074
1.19519
1.18922
1.18285
1.17608
1.16894
1.16144
1.1536
1.14543
1.13695
1.12817
1.11912
1.1098
1.10023
1.09042
1.08041
1.07019
1.05978
1.0492
1.03847
1.0276
1.0166
1.00549
0.994283
0.982987
0.971617
0.960188
0.948716
0.937214
0.9257
0.914188
0.902697
0.891244
0.879846
0.868525
0.857307
0.846225
0.835312
0.824608
0.81416
0.804022
0.794247
0.784885
0.775917
0.76738
0.011569
0.0319155
0.0419264
0.048802
0.0543275
0.0591153
0.0634511
0.067495
0.0713483
0.0750802
0.0787407
0.0823673
0.085989
0.0896286
0.0933045
0.0970321
0.100824
0.104691
0.108644
0.11269
0.116837
0.121093
0.125464
0.129957
0.134577
0.139331
0.144224
0.149262
0.154451
0.159796
0.165305
0.170983
0.176837
0.182875
0.189103
0.195531
0.202165
0.209014
0.216088
0.223396
0.230946
0.238748
0.246813
0.255149
0.263766
0.272674
0.28188
0.291394
0.301223
0.311373
0.321851
0.332663
0.343814
0.355309
0.36715
0.37934
0.39188
0.40477
0.418008
0.431593
0.44552
0.459785
0.474382
0.489301
0.504536
0.520075
0.535907
0.55202
0.568399
0.58503
0.601891
0.618963
0.636226
0.653662
0.671253
0.688977
0.706815
0.724746
0.74275
0.760805
0.77889
0.796987
0.815073
0.833131
0.851141
0.869057
0.886825
0.904429
0.921851
0.939074
0.956081
0.97286
0.989373
1.00559
1.0215
1.03707
1.05231
1.06717
1.08165
1.09572
1.10937
1.12258
1.13533
1.1476
1.15939
1.17068
1.18144
1.19168
1.20137
1.21049
1.21906
1.22705
1.23446
1.24128
1.24751
1.25315
1.25819
1.26264
1.26648
1.26972
1.27237
1.27442
1.27589
1.27677
1.27707
1.27679
1.27596
1.27457
1.27263
1.27016
1.26717
1.26366
1.25966
1.25516
1.2502
1.24477
1.2389
1.2326
1.22589
1.21877
1.21127
1.20341
1.19519
1.18663
1.17776
1.16858
1.15912
1.14938
1.13939
1.12916
1.1187
1.10803
1.09718
1.08614
1.07494
1.0636
1.05212
1.04052
1.02882
1.01703
1.00515
0.993219
0.981237
0.969221
0.95719
0.945158
0.933145
0.921169
0.909248
0.897407
0.885671
0.874072
0.862646
0.851433
0.840478
0.829832
0.819542
0.809653
0.800138
0.79104
0.0111958
0.0313635
0.0412568
0.0480681
0.0535504
0.0583054
0.0626132
0.066631
0.0704579
0.0741621
0.077793
0.081388
0.0849762
0.0885811
0.0922217
0.0959139
0.0996716
0.103507
0.107429
0.11145
0.115576
0.119816
0.124179
0.128671
0.1333
0.138071
0.142993
0.148072
0.153316
0.15873
0.164324
0.170103
0.176078
0.182255
0.188644
0.195254
0.202093
0.209172
0.2165
0.224088
0.231945
0.240083
0.24851
0.257239
0.266277
0.275637
0.285325
0.295353
0.305725
0.316446
0.327524
0.338963
0.350768
0.362942
0.375489
0.388408
0.4017
0.415364
0.429397
0.443795
0.458553
0.473664
0.48912
0.504911
0.521028
0.537458
0.554188
0.571205
0.588494
0.606045
0.623825
0.641804
0.659968
0.678298
0.696773
0.715372
0.734074
0.752857
0.771698
0.790577
0.809472
0.828363
0.847228
0.866051
0.884775
0.903352
0.921762
0.939985
0.958001
0.975791
0.993334
1.01061
1.0276
1.04426
1.06059
1.07656
1.09216
1.10736
1.12214
1.13649
1.15039
1.16382
1.17677
1.18921
1.20114
1.21254
1.2234
1.23371
1.24344
1.2526
1.26118
1.26916
1.27654
1.28331
1.28948
1.29504
1.29999
1.30432
1.30804
1.31114
1.31364
1.31553
1.31682
1.31751
1.31762
1.31714
1.3161
1.31448
1.31232
1.30961
1.30637
1.30261
1.29835
1.29359
1.28835
1.28265
1.2765
1.26991
1.2629
1.25548
1.24768
1.23951
1.23097
1.2221
1.2129
1.20339
1.19359
1.18351
1.17317
1.16259
1.15177
1.14075
1.12952
1.11811
1.10653
1.09479
1.08292
1.07092
1.05882
1.04661
1.03432
1.02197
1.00956
0.997111
0.984644
0.972173
0.959717
0.947296
0.934928
0.922637
0.910452
0.898404
0.886528
0.874865
0.863458
0.852354
0.841596
0.831224
0.821208
0.811596
0.0107384
0.0306315
0.0403637
0.0470812
0.0524969
0.0571986
0.0614601
0.065435
0.0692205
0.0728832
0.0764721
0.0800241
0.0835685
0.087129
0.0907252
0.0943737
0.0980892
0.101884
0.105771
0.10976
0.113861
0.118084
0.122437
0.12693
0.131571
0.136368
0.141331
0.146466
0.151783
0.15729
0.162997
0.168913
0.175047
0.18141
0.188011
0.194861
0.20197
0.209349
0.217009
0.22496
0.233214
0.241781
0.250672
0.259897
0.269467
0.27939
0.289677
0.30034
0.31138
0.322794
0.33459
0.346773
0.359345
0.37231
0.385666
0.399414
0.41355
0.428071
0.442972
0.458247
0.473887
0.489885
0.506229
0.522908
0.53991
0.557218
0.57482
0.592697
0.610834
0.62921
0.647802
0.666585
0.685537
0.704637
0.723862
0.743191
0.762601
0.782069
0.801573
0.821093
0.840608
0.860097
0.87954
0.898867
0.918045
0.937053
0.955868
0.974469
0.992835
1.01095
1.02878
1.04632
1.06353
1.0804
1.09691
1.11304
1.12876
1.14406
1.15892
1.17333
1.18726
1.2007
1.21363
1.22605
1.23793
1.24926
1.26004
1.27024
1.27987
1.2889
1.29734
1.30517
1.3124
1.31901
1.325
1.33038
1.33514
1.33927
1.34279
1.34569
1.34797
1.34965
1.35072
1.3512
1.35108
1.35038
1.34911
1.34727
1.34488
1.34194
1.33847
1.33448
1.32999
1.325
1.31953
1.3136
1.30721
1.30039
1.29315
1.2855
1.27746
1.26905
1.26028
1.25116
1.24172
1.23197
1.22192
1.21159
1.20099
1.19015
1.17907
1.16778
1.15628
1.14459
1.13273
1.12071
1.10854
1.09624
1.08383
1.07131
1.05871
1.04603
1.03329
1.02051
1.0077
0.994883
0.982076
0.969298
0.95657
0.943916
0.931363
0.918943
0.906692
0.894648
0.882854
0.871354
0.860188
0.849391
0.838933
0.828865
0.0101997
0.0297217
0.0392538
0.0458527
0.0511821
0.0558134
0.0600132
0.0639311
0.0676623
0.0712722
0.074809
0.0783096
0.0818033
0.085314
0.0888619
0.0924647
0.0961378
0.0998957
0.103751
0.107717
0.111805
0.116025
0.12039
0.124911
0.129597
0.134461
0.139514
0.144761
0.150215
0.155888
0.161791
0.167936
0.174333
0.180995
0.187934
0.19516
0.202685
0.210522
0.218681
0.227173
0.236009
0.245199
0.254754
0.264681
0.27499
0.285687
0.296781
0.308275
0.320173
0.332474
0.345181
0.358293
0.37181
0.38573
0.40005
0.414765
0.429868
0.445354
0.461212
0.477435
0.49401
0.510926
0.528169
0.545726
0.563581
0.581717
0.600118
0.618765
0.637637
0.656716
0.675977