/*--------------------------------*- C++ -*----------------------------------*\
  =========                 |
  \\      /  F ield         | OpenFOAM: The Open Source CFD Toolbox
   \\    /   O peration     | Website:  https://openfoam.org
    \\  /    A nd           | Version:  7
     \\/     M anipulation  |
\*---------------------------------------------------------------------------*/
FoamFile
{
    version     2.0;
    format      ascii;
    class       volVectorField;
    location    "0.2";
    object      U;
}
// * * * * * * * * * * * * * * * * * * * * * * * * * * * * * * * * * * * * * //

dimensions      [0 1 -1 0 0 0 0];

internalField   nonuniform List<vector> 
12225
(
(4.73347 -0.571241 0)
(4.31414 -0.430537 0)
(4.0336 -0.176985 0)
(3.82434 -0.0515528 0)
(3.64941 -0.00460453 0)
(3.50655 0.0100189 0)
(3.39561 0.0130715 0)
(3.30942 0.0124623 0)
(3.24011 0.011037 0)
(3.18268 0.00969812 0)
(3.13426 0.00862457 0)
(3.09283 0.00777395 0)
(3.05686 0.00707524 0)
(3.02528 0.00648294 0)
(2.9972 0.00596793 0)
(2.97273 0.0054816 0)
(2.9481 0.005716 0)
(2.93663 0.00253999 0)
(5.02997 0.295074 0)
(4.84219 0.245059 0)
(4.69195 0.169883 0)
(4.58577 0.107143 0)
(4.48715 0.0705276 0)
(4.39259 0.0517124 0)
(4.30759 0.0412175 0)
(4.2328 0.0342723 0)
(4.16661 0.0291966 0)
(4.10796 0.0253833 0)
(4.05617 0.022468 0)
(4.01047 0.0201773 0)
(3.96997 0.0183228 0)
(3.93393 0.0168005 0)
(3.90166 0.0154761 0)
(3.87291 0.0145721 0)
(3.84655 0.0131119 0)
(3.82494 0.0151052 0)
(4.96336 0.187523 0)
(4.82997 0.103974 0)
(4.75455 0.0857348 0)
(4.71158 0.0765224 0)
(4.66619 0.067981 0)
(4.61621 0.0609068 0)
(4.56777 0.0547381 0)
(4.52259 0.0490851 0)
(4.48026 0.0440863 0)
(4.44079 0.0398639 0)
(4.4044 0.0363422 0)
(4.37113 0.0333712 0)
(4.34075 0.0308239 0)
(4.31304 0.0286243 0)
(4.28774 0.0266753 0)
(4.2647 0.0250662 0)
(4.24387 0.0234141 0)
(4.22453 0.0228793 0)
(4.96282 0.171151 0)
(4.85056 0.102658 0)
(4.78992 0.0968145 0)
(4.76078 0.0902813 0)
(4.73312 0.0806843 0)
(4.70321 0.0725679 0)
(4.67484 0.0659406 0)
(4.64863 0.0600637 0)
(4.62381 0.054847 0)
(4.60018 0.0503505 0)
(4.57795 0.0465009 0)
(4.55722 0.0431674 0)
(4.53795 0.0402427 0)
(4.52006 0.0376595 0)
(4.5035 0.0353403 0)
(4.48818 0.0333049 0)
(4.47435 0.0313313 0)
(4.46085 0.02972 0)
(4.97359 0.19525 0)
(4.88122 0.129112 0)
(4.82304 0.114559 0)
(4.79434 0.101675 0)
(4.77165 0.0891176 0)
(4.7497 0.0798418 0)
(4.73029 0.0727679 0)
(4.71333 0.0666797 0)
(4.69778 0.0613141 0)
(4.68321 0.0566734 0)
(4.66964 0.0526701 0)
(4.65708 0.0491734 0)
(4.64544 0.0460789 0)
(4.63465 0.0433162 0)
(4.62469 0.0408162 0)
(4.61546 0.0385457 0)
(4.6072 0.0363771 0)
(4.5989 0.0342876 0)
(4.98217 0.218659 0)
(4.90832 0.150133 0)
(4.85342 0.126874 0)
(4.82374 0.110024 0)
(4.80226 0.0959302 0)
(4.78329 0.0857546 0)
(4.76757 0.0780529 0)
(4.75473 0.071542 0)
(4.74364 0.0658781 0)
(4.73372 0.0609988 0)
(4.72482 0.0567875 0)
(4.71685 0.0531038 0)
(4.70966 0.0498374 0)
(4.70316 0.0469096 0)
(4.69729 0.0442501 0)
(4.69194 0.041797 0)
(4.68729 0.0394698 0)
(4.68252 0.0371535 0)
(4.98795 0.235241 0)
(4.93048 0.166917 0)
(4.88098 0.138202 0)
(4.85123 0.118671 0)
(4.82999 0.103038 0)
(4.81214 0.0915927 0)
(4.79787 0.0829222 0)
(4.78678 0.0757382 0)
(4.77775 0.069592 0)
(4.77012 0.0643357 0)
(4.76364 0.0598131 0)
(4.75812 0.0558661 0)
(4.7534 0.0523726 0)
(4.74933 0.0492423 0)
(4.74582 0.0463983 0)
(4.74278 0.0437649 0)
(4.74027 0.0412793 0)
(4.73766 0.0388212 0)
(4.9919 0.247334 0)
(4.94823 0.182005 0)
(4.90535 0.149816 0)
(4.87671 0.127906 0)
(4.85588 0.110561 0)
(4.83869 0.0976224 0)
(4.82509 0.0877798 0)
(4.81472 0.0797434 0)
(4.80662 0.0729609 0)
(4.8001 0.0672017 0)
(4.79484 0.0622675 0)
(4.79061 0.0579783 0)
(4.78721 0.0541962 0)
(4.78448 0.0508168 0)
(4.7823 0.0477543 0)
(4.78056 0.0449257 0)
(4.77929 0.0422715 0)
(4.77794 0.0396884 0)
(4.99462 0.256584 0)
(4.9621 0.195568 0)
(4.92617 0.16115 0)
(4.89972 0.137219 0)
(4.8799 0.11829 0)
(4.86355 0.10387 0)
(4.85051 0.0927846 0)
(4.84056 0.083789 0)
(4.83292 0.0762596 0)
(4.82696 0.0698973 0)
(4.82231 0.0644663 0)
(4.81875 0.0597639 0)
(4.81605 0.0556345 0)
(4.81404 0.0519595 0)
(4.81259 0.0486428 0)
(4.81156 0.0455966 0)
(4.81098 0.0427589 0)
(4.81034 0.0400432 0)
(4.99646 0.263632 0)
(4.97261 0.20727 0)
(4.94337 0.171658 0)
(4.9199 0.146209 0)
(4.90173 0.125989 0)
(4.88661 0.110233 0)
(4.87437 0.0979287 0)
(4.86491 0.0879381 0)
(4.85766 0.0796023 0)
(4.85206 0.0725719 0)
(4.84779 0.0665819 0)
(4.8446 0.0614104 0)
(4.84228 0.0568852 0)
(4.84066 0.0528741 0)
(4.8396 0.0492712 0)
(4.83897 0.0459842 0)
(4.83875 0.0429462 0)
(4.8385 0.0400825 0)
(4.99767 0.26891 0)
(4.98039 0.217046 0)
(4.9572 0.181095 0)
(4.93712 0.154607 0)
(4.92106 0.133393 0)
(4.90758 0.116502 0)
(4.89648 0.10308 0)
(4.88775 0.0921249 0)
(4.88102 0.0829764 0)
(4.87584 0.075254 0)
(4.87192 0.0686735 0)
(4.86903 0.0629995 0)
(4.86699 0.0580467 0)
(4.86562 0.0536712 0)
(4.86479 0.0497584 0)
(4.86438 0.0462117 0)
(4.86436 0.042959 0)
(4.86432 0.0399321 0)
(4.99839 0.272597 0)
(4.9856 0.224457 0)
(4.9672 0.188709 0)
(4.95028 0.161591 0)
(4.93639 0.139672 0)
(4.92466 0.121924 0)
(4.91488 0.107605 0)
(4.9071 0.0958369 0)
(4.90106 0.0859794 0)
(4.89641 0.0776383 0)
(4.89291 0.0705199 0)
(4.89036 0.0643814 0)
(4.88859 0.059029 0)
(4.88744 0.054311 0)
(4.88681 0.0501061 0)
(4.88656 0.0463139 0)
(4.88667 0.0428591 0)
(4.88676 0.0396715 0)
(4.99887 0.275394 0)
(4.98949 0.230575 0)
(4.97518 0.195364 0)
(4.96128 0.167832 0)
(4.94961 0.145344 0)
(4.93973 0.126885 0)
(4.93144 0.111788 0)
(4.92479 0.0992858 0)
(4.91961 0.0887743 0)
(4.91565 0.0798534 0)
(4.91269 0.0722239 0)
(4.91057 0.0656391 0)
(4.90915 0.0598997 0)
(4.90828 0.0548479 0)
(4.90786 0.0503573 0)
(4.9078 0.046324 0)
(4.90806 0.0426701 0)
(4.90828 0.039319 0)
(4.99923 0.277716 0)
(4.99273 0.236105 0)
(4.98228 0.201716 0)
(4.97159 0.173935 0)
(4.9624 0.150957 0)
(4.95465 0.131842 0)
(4.94818 0.11599 0)
(4.94298 0.102751 0)
(4.93897 0.0915691 0)
(4.93597 0.0820461 0)
(4.93379 0.0738796 0)
(4.93231 0.0668214 0)
(4.9314 0.0606686 0)
(4.93095 0.0552584 0)
(4.93088 0.05046 0)
(4.9311 0.0461659 0)
(4.93158 0.0422941 0)
(4.932 0.038766 0)
(4.99952 0.279554 0)
(4.99536 0.240752 0)
(4.9884 0.207318 0)
(4.98095 0.179432 0)
(4.97446 0.156034 0)
(4.96907 0.136327 0)
(4.96467 0.119767 0)
(4.96122 0.105814 0)
(4.95867 0.0939728 0)
(4.95689 0.0838535 0)
(4.95576 0.075153 0)
(4.95515 0.0676226 0)
(4.95497 0.061057 0)
(4.95514 0.0552892 0)
(4.95558 0.0501838 0)
(4.95622 0.04563 0)
(4.95706 0.0415408 0)
(4.95779 0.0378382 0)
(4.99973 0.280873 0)
(4.99746 0.244216 0)
(4.99358 0.211652 0)
(4.98935 0.183726 0)
(4.98573 0.159943 0)
(4.9829 0.139693 0)
(4.98078 0.122489 0)
(4.97934 0.107872 0)
(4.97851 0.0954082 0)
(4.97823 0.0847265 0)
(4.97837 0.0755247 0)
(4.97887 0.0675534 0)
(4.97964 0.0606053 0)
(4.98062 0.0545092 0)
(4.98175 0.0491254 0)
(4.98299 0.0443389 0)
(4.98434 0.0400575 0)
(4.98554 0.0362041 0)
(4.99991 0.281591 0)
(4.99922 0.246135 0)
(4.9981 0.214046 0)
(4.99706 0.185975 0)
(4.9965 0.161776 0)
(4.99647 0.141006 0)
(4.99691 0.123227 0)
(4.99774 0.10803 0)
(4.99892 0.0950257 0)
(5.00038 0.0838613 0)
(5.00206 0.0742366 0)
(5.00388 0.0659001 0)
(5.0058 0.0586412 0)
(5.00778 0.0522852 0)
(5.00979 0.0466873 0)
(5.0118 0.0417281 0)
(5.01381 0.0373102 0)
(5.01562 0.0333569 0)
(5.00008 0.281524 0)
(5.00085 0.245932 0)
(5.00244 0.21352 0)
(5.00477 0.184943 0)
(5.00762 0.160187 0)
(5.01081 0.138881 0)
(5.0142 0.120601 0)
(5.0177 0.104948 0)
(5.02125 0.0915462 0)
(5.0248 0.0800474 0)
(5.0283 0.0701468 0)
(5.03172 0.0615866 0)
(5.03503 0.054151 0)
(5.03824 0.04766 0)
(5.04131 0.041964 0)
(5.04425 0.0369393 0)
(5.04708 0.0324839 0)
(5.04964 0.0285217 0)
(5.00031 0.280226 0)
(5.00288 0.242334 0)
(5.00773 0.208135 0)
(5.01414 0.178303 0)
(5.02118 0.152712 0)
(5.02831 0.130857 0)
(5.03532 0.112227 0)
(5.04211 0.0963741 0)
(5.0486 0.0828825 0)
(5.05474 0.0713694 0)
(5.0605 0.0615052 0)
(5.06589 0.0530162 0)
(5.07094 0.0456765 0)
(5.07565 0.0392988 0)
(5.08006 0.0337282 0)
(5.08416 0.0288373 0)
(5.08802 0.0245214 0)
(5.09151 0.0207054 0)
(5.00061 0.277673 0)
(5.00556 0.235175 0)
(5.01459 0.197629 0)
(5.02595 0.165799 0)
(5.03778 0.139149 0)
(5.04924 0.1168 0)
(5.06014 0.0980565 0)
(5.07041 0.0823617 0)
(5.07995 0.0691945 0)
(5.08872 0.0580899 0)
(5.09677 0.0486697 0)
(5.10415 0.0406342 0)
(5.11092 0.0337414 0)
(5.11713 0.0277939 0)
(5.12285 0.0226315 0)
(5.12811 0.0181247 0)
(5.13298 0.0141682 0)
(5.13737 0.0106887 0)
(5.00095 0.27408 0)
(5.00882 0.225423 0)
(5.02281 0.184022 0)
(5.03959 0.15044 0)
(5.05621 0.12319 0)
(5.07175 0.100805 0)
(5.08624 0.0824056 0)
(5.09963 0.067308 0)
(5.11183 0.0548489 0)
(5.12285 0.0444687 0)
(5.13281 0.0357497 0)
(5.14182 0.0283766 0)
(5.14999 0.0220989 0)
(5.15741 0.0167155 0)
(5.16417 0.0120673 0)
(5.17034 0.00802837 0)
(5.176 0.00449749 0)
(5.18108 0.00140525 0)
(5.00149 0.269089 0)
(5.01372 0.212428 0)
(5.0345 0.166934 0)
(5.0578 0.132129 0)
(5.07955 0.104783 0)
(5.09927 0.0827752 0)
(5.11736 0.0651354 0)
(5.13381 0.0510169 0)
(5.14849 0.039571 0)
(5.16152 0.0301527 0)
(5.17315 0.0223276 0)
(5.18355 0.0157766 0)
(5.19288 0.0102459 0)
(5.20126 0.00553601 0)
(5.20882 0.0014936 0)
(5.21565 -0.00199995 0)
(5.22187 -0.0050389 0)
(5.22742 -0.00768777 0)
(5.00238 0.262166 0)
(5.0213 0.195507 0)
(5.05128 0.146394 0)
(5.08216 0.111343 0)
(5.10916 0.0844602 0)
(5.133 0.063275 0)
(5.15458 0.0468824 0)
(5.17377 0.0341657 0)
(5.19051 0.0240412 0)
(5.20511 0.0158151 0)
(5.21795 0.00906862 0)
(5.22929 0.00348933 0)
(5.23933 -0.00117477 0)
(5.24823 -0.00511512 0)
(5.25616 -0.00847315 0)
(5.26326 -0.0113565 0)
(5.26964 -0.0138496 0)
(5.2753 -0.0160106 0)
(5.00395 0.252447 0)
(5.03317 0.173613 0)
(5.07518 0.122482 0)
(5.11405 0.0888066 0)
(5.1458 0.0630808 0)
(5.17334 0.0432227 0)
(5.19788 0.0285968 0)
(5.21909 0.0176828 0)
(5.23707 0.00914775 0)
(5.25246 0.00230178 0)
(5.2658 -0.00322796 0)
(5.27739 -0.00773639 0)
(5.28749 -0.011464 0)
(5.29632 -0.0145853 0)
(5.30407 -0.0172239 0)
(5.31091 -0.0194726 0)
(5.31697 -0.0214032 0)
(5.32227 -0.0230656 0)
(5.00664 0.239247 0)
(5.05116 0.146014 0)
(5.10794 0.0952333 0)
(5.15398 0.0649403 0)
(5.18902 0.0414605 0)
(5.21923 0.0237177 0)
(5.24574 0.0113828 0)
(5.26785 0.00254173 0)
(5.28601 -0.00426179 0)
(5.30125 -0.0096376 0)
(5.31422 -0.0138968 0)
(5.32528 -0.0173091 0)
(5.3347 -0.0200922 0)
(5.34276 -0.0223951 0)
(5.34968 -0.0243198 0)
(5.35563 -0.0259428 0)
(5.36079 -0.0273218 0)
(5.36518 -0.0284998 0)
(5.01051 0.222558 0)
(5.07591 0.11574 0)
(5.14967 0.067313 0)
(5.20129 0.0406034 0)
(5.23762 0.0200736 0)
(5.26894 0.00551082 0)
(5.29599 -0.00393991 0)
(5.31766 -0.0105415 0)
(5.33481 -0.0155867 0)
(5.3488 -0.0194915 0)
(5.36036 -0.0224925 0)
(5.36985 -0.0248292 0)
(5.37759 -0.026689 0)
(5.38391 -0.0281916 0)
(5.38904 -0.0294171 0)
(5.39319 -0.0304274 0)
(5.39653 -0.031266 0)
(5.39914 -0.0319715 0)
(5.01612 0.196418 0)
(5.1084 0.0875831 0)
(5.19903 0.0463792 0)
(5.25415 0.019741 0)
(5.29028 -9.67416e-05 0)
(5.32101 -0.0113723 0)
(5.34655 -0.0174367 0)
(5.36577 -0.0215113 0)
(5.38002 -0.0246615 0)
(5.39086 -0.0270239 0)
(5.39908 -0.0287294 0)
(5.40506 -0.0299751 0)
(5.4092 -0.0309094 0)
(5.41188 -0.0316186 0)
(5.41339 -0.0321582 0)
(5.41395 -0.0325747 0)
(5.41377 -0.0328968 0)
(5.41299 -0.0331571 0)
(5.02989 0.134584 0)
(5.15986 0.047572 0)
(5.25806 0.0412285 0)
(5.30883 0.0217061 0)
(5.34244 -0.00173922 0)
(5.37069 -0.0156588 0)
(5.39133 -0.0222159 0)
(5.40382 -0.0258197 0)
(5.41052 -0.0281318 0)
(5.41344 -0.0295158 0)
(5.41357 -0.030233 0)
(5.41143 -0.0305538 0)
(5.40756 -0.0306573 0)
(5.40242 -0.0306353 0)
(5.39636 -0.03054 0)
(5.38965 -0.0304148 0)
(5.38249 -0.030289 0)
(5.37505 -0.0301912 0)
(5.08133 -0.0500376 0)
(5.26819 -0.199282 0)
(5.34721 -0.137927 0)
(5.36474 -0.0864855 0)
(5.37843 -0.0639 0)
(5.39123 -0.0517858 0)
(5.39348 -0.0435452 0)
(5.38492 -0.0382553 0)
(5.37007 -0.0349504 0)
(5.35221 -0.0326377 0)
(5.33272 -0.0308011 0)
(5.3123 -0.0292601 0)
(5.2915 -0.0279399 0)
(5.27074 -0.0267887 0)
(5.25029 -0.025772 0)
(5.23032 -0.0248882 0)
(5.21094 -0.0241417 0)
(5.19233 -0.0237204 0)
(5.01586 0.723718 0)
(5.23568 0.467499 0)
(5.28471 0.234422 0)
(5.20732 0.103786 0)
(5.10618 0.0382172 0)
(5.01521 0.00868205 0)
(4.93338 -0.00336083 0)
(4.85854 -0.00797886 0)
(4.79129 -0.00964735 0)
(4.73152 -0.0101139 0)
(4.67803 -0.0100859 0)
(4.62963 -0.00988269 0)
(4.58552 -0.00964494 0)
(4.54516 -0.00942384 0)
(4.50809 -0.00923227 0)
(4.47387 -0.00908551 0)
(4.44203 -0.00898585 0)
(4.41236 -0.00915939 0)
(0.00389056 -0.00992801 -1.43051e-20)
(0.0118802 -0.0124514 1.41627e-20)
(0.016944 -0.00778553 0)
(0.0179204 -0.00142626 0)
(0.0147432 0.0040819 0)
(0.00844969 0.00791872 -1.32008e-20)
(-6.63939e-05 0.0102996 0)
(-0.0101123 0.0117485 0)
(-0.0212566 0.0126813 0)
(-0.0332243 0.0133436 0)
(-0.0458369 0.0138647 1.18204e-20)
(-0.0589831 0.0143027 0)
(-0.0725856 0.0146795 0)
(-0.0865837 0.0150013 0)
(-0.100926 0.0152692 0)
(-0.115565 0.0154843 1.05815e-20)
(-0.130461 0.0156484 0)
(-0.145573 0.0157651 0)
(-0.16087 0.0158387 0)
(-0.17632 0.0158743 0)
(-0.1919 0.0158775 0)
(-0.207587 0.0158538 0)
(-0.223366 0.0158086 0)
(-0.239223 0.0157471 9.12509e-21)
(-0.255149 0.0156742 -8.97705e-21)
(-0.271136 0.0155941 8.83511e-21)
(-0.287183 0.0155108 8.69891e-21)
(-0.303287 0.0154276 0)
(-0.31945 0.0153472 0)
(-0.335675 0.0152718 -8.32171e-21)
(-0.351964 0.0152031 -8.2055e-21)
(-0.368323 0.0151424 0)
(-0.384757 0.0150903 0)
(-0.401273 0.0150472 -7.88212e-21)
(-0.417874 0.015013 0)
(-0.434567 0.0149875 0)
(-0.451356 0.0149701 7.59247e-21)
(-0.468245 0.0149599 0)
(-0.485237 0.0149561 7.41594e-21)
(-0.502332 0.0149578 1.46645e-20)
(-0.51953 0.014964 0)
(-0.536829 0.0149743 0)
(-0.554225 0.0149883 0)
(-0.571714 0.0150061 0)
(-0.589287 0.0150287 0)
(-0.60694 0.0150577 1.37798e-20)
(-0.624664 0.0150953 1.36516e-20)
(-0.642457 0.0151446 1.35286e-20)
(-0.660316 0.0152082 0)
(-0.678241 0.0152867 -1.32979e-20)
(-0.696232 0.0153733 0)
(-0.71428 0.0154465 1.30851e-20)
(-0.732358 0.0154653 1.29849e-20)
(-0.750403 0.0153863 0)
(-0.768324 0.0152237 0)
(-0.78602 0.0151548 0)
(-0.803437 0.0156151 1.26365e-20)
(-0.821103 0.0173548 0)
(-0.839897 0.0224909 0)
(-0.858953 0.0250128 0)
(-0.876969 0.0112009 0)
(-0.892796 0.0115821 0)
(-0.909648 0.0259223 0)
(-0.929205 0.0292038 0)
(-0.948851 0.0310874 0)
(-0.967678 0.0238138 -1.33186e-20)
(-0.98344 0.00216848 0)
(-0.997379 0.00740852 0)
(-1.01269 0.0164183 1.17416e-20)
(-1.02912 0.020232 1.16469e-20)
(-1.04624 0.0319432 0)
(-1.06231 0.0155051 -1.2267e-20)
(-1.07715 0.0260904 1.18884e-20)
(-1.09409 0.037205 0)
(-1.10996 0.0169219 -1.24723e-20)
(-1.12368 0.022783 0)
(-1.13881 0.0301349 0)
(-1.15314 0.0164451 1.19683e-20)
(-1.1629 0.00351753 0)
(-1.17097 0.00675166 -1.16493e-20)
(-1.1806 0.00650232 0)
(-1.18974 0.00630294 1.12841e-20)
(-1.19856 0.00592262 1.10931e-20)
(-1.20682 0.00547026 1.08964e-20)
(-1.21445 0.00496819 2.13884e-20)
(-1.22139 0.0044304 -2.09723e-20)
(-1.22759 0.00386204 0)
(-1.23302 0.00326376 0)
(-1.23762 0.00263583 0)
(-1.24137 0.00198436 -1.91885e-20)
(-1.24419 0.00132712 -1.87121e-20)
(-1.24603 0.000688651 1.82234e-20)
(-1.24683 9.48358e-05 0)
(-1.24687 -0.000409482 -1.71981e-20)
(-1.24611 -0.000882368 -1.66643e-20)
(-1.24458 -0.00134254 -1.61162e-20)
(-1.24226 -0.0017972 0)
(-1.23916 -0.00224813 0)
(-1.23526 -0.00269574 0)
(-1.23057 -0.00313974 -1.37809e-20)
(-1.22509 -0.00357966 0)
(-1.2188 -0.00401491 0)
(-1.21171 -0.00444491 1.18802e-20)
(-1.20382 -0.00486903 0)
(-1.19513 -0.00528668 0)
(-1.18565 -0.00569727 9.85494e-21)
(-1.17537 -0.00610025 0)
(-1.1643 -0.00649506 0)
(-1.15245 -0.00688118 -7.71103e-21)
(-1.13982 -0.00725812 -6.97136e-21)
(-1.12643 -0.00762543 0)
(-1.11228 -0.00798265 5.45663e-21)
(-1.09739 -0.00832939 0)
(-1.08177 -0.00866527 -3.89758e-21)
(-1.06543 -0.00898995 0)
(-1.04838 -0.0093031 -2.29802e-21)
(-1.03065 -0.00960442 -1.48438e-21)
(-1.01224 -0.00989366 0)
(-0.993184 -0.0101706 0)
(-0.973486 -0.010435 0)
(-0.95317 -0.0106867 0)
(-0.932255 -0.0109255 0)
(-0.910761 -0.0111515 0)
(-0.88871 -0.0113646 0)
(-0.866122 -0.0115646 5.27656e-21)
(-0.843019 -0.0117517 -6.14315e-21)
(-0.819424 -0.0119259 0)
(-0.795358 -0.0120872 0)
(-0.770845 -0.0122358 0)
(-0.745907 -0.0123719 0)
(-0.720566 -0.0124956 -2.0998e-20)
(-0.694845 -0.0126072 0)
(-0.668767 -0.012707 2.4478e-20)
(-0.642355 -0.0127951 -2.62115e-20)
(-0.61563 -0.0128719 0)
(-0.588614 -0.0129379 0)
(-0.561329 -0.0129932 0)
(-0.533795 -0.0130383 3.30715e-20)
(-0.506033 -0.0130737 3.47618e-20)
(-0.478063 -0.0130998 0)
(-0.449903 -0.0131169 3.81043e-20)
(-0.421572 -0.0131255 3.97544e-20)
(-0.393088 -0.0131261 -4.13889e-20)
(-0.364467 -0.0131191 0)
(-0.335726 -0.0131048 0)
(-0.30688 -0.0130837 -4.61894e-20)
(-0.277944 -0.0130561 0)
(-0.248931 -0.0130224 0)
(-0.219856 -0.012983 0)
(-0.19073 -0.0129385 0)
(-0.161564 -0.0128909 5.37959e-20)
(-0.132361 -0.0128436 5.52512e-20)
(-0.103099 -0.0128075 0)
(-0.0737105 -0.0128272 5.80876e-20)
(-0.0442071 -0.0130246 0)
(-0.0143447 -0.0121374 0)
(0.018559 -0.0131829 5.72555e-20)
(0.0445962 -0.0113631 0)
(0.0764107 -0.011749 5.83244e-20)
(0.103521 -0.013178 0)
(0.131339 -0.0115238 0)
(0.160969 -0.0113859 6.41323e-20)
(0.188968 -0.0117416 0)
(0.21822 -0.00991029 6.47473e-20)
(0.247584 -0.0087034 0)
(0.277047 -0.00985366 0)
(0.306283 -0.0122091 0)
(0.334418 -0.0071957 -6.49518e-20)
(0.365534 -0.0100968 0)
(0.391241 -0.0116949 6.53811e-20)
(0.421698 -0.0101214 0)
(0.449518 -0.0124602 0)
(0.478363 -0.00441701 0)
(0.508958 -0.00871454 0)
(0.534544 -0.00836 0)
(0.564477 -0.00698411 0)
(0.589217 -0.00948637 0)
(0.613154 -0.005466 -1.32933e-19)
(0.632771 0.00521116 0)
(0.624905 0.0125201 0)
(0.00196063 -0.0225092 4.23676e-20)
(0.00240566 -0.0169363 -4.02846e-20)
(-0.00114989 -0.00453957 0)
(-0.00663219 0.00703642 2.33948e-20)
(-0.0138567 0.0167284 0)
(-0.022748 0.0242106 1.08061e-20)
(-0.0331314 0.0296635 -2.09386e-20)
(-0.0448179 0.033526 -2.03483e-20)
(-0.0575852 0.0362605 0)
(-0.0712103 0.0382321 -1.92753e-20)
(-0.0854996 0.0396915 -9.4077e-21)
(-0.100298 0.0407966 0)
(-0.115483 0.0416418 0)
(-0.130961 0.0422839 0)
(-0.14666 0.0427588 0)
(-0.162521 0.0430919 -8.37058e-21)
(-0.1785 0.0433038 0)
(-0.19456 0.0434123 1.60292e-20)
(-0.210674 0.043434 0)
(-0.226819 0.0433841 0)
(-0.242981 0.043277 -1.51421e-20)
(-0.259148 0.0431256 0)
(-0.275314 0.0429413 1.46219e-20)
(-0.291474 0.0427345 -7.20735e-21)
(-0.307631 0.042514 7.09191e-21)
(-0.323785 0.0422872 -6.98159e-21)
(-0.339941 0.0420603 -6.87602e-21)
(-0.356105 0.0418383 0)
(-0.372283 0.0416249 0)
(-0.388483 0.0414228 6.58479e-21)
(-0.404714 0.0412338 -6.46055e-21)
(-0.420983 0.0410587 0)
(-0.437297 0.0408976 0)
(-0.453665 0.0407501 6.24653e-21)
(-0.470094 0.0406147 0)
(-0.486588 0.0404899 0)
(-0.503154 0.040373 -6.02368e-21)
(-0.519795 0.0402614 0)
(-0.536514 0.0401517 5.85171e-21)
(-0.553314 0.0400402 -1.16466e-20)
(-0.570194 0.0399229 0)
(-0.587153 0.0397962 0)
(-0.604192 0.0396563 -2.25002e-20)
(-0.621307 0.0395007 -2.22778e-20)
(-0.638497 0.039328 -2.20642e-20)
(-0.65576 0.0391383 1.08924e-20)
(-0.673093 0.0389341 -1.08699e-20)
(-0.690494 0.0387189 -3.2255e-20)
(-0.707961 0.0384967 2.1301e-20)
(-0.725489 0.0382682 1.0605e-20)
(-0.743068 0.0380259 0)
(-0.760686 0.0377486 -1.04511e-20)
(-0.778332 0.0373999 1.03034e-20)
(-0.796008 0.0369401 0)
(-0.813735 0.0363539 0)
(-0.831552 0.0356854 0)
(-0.849543 0.0350315 -1.01793e-20)
(-0.867461 0.0344582 0)
(-0.884544 0.034167 2.02752e-20)
(-0.901276 0.0340282 0)
(-0.919151 0.032862 2.04488e-20)
(-0.937626 0.0315578 0)
(-0.954865 0.0308833 -2.01907e-20)
(-0.970487 0.0297437 0)
(-0.985342 0.0288028 2.04616e-20)
(-1.00013 0.028965 -1.03768e-20)
(-1.01692 0.0296082 0)
(-1.03351 0.0284861 -2.00966e-20)
(-1.04834 0.0267726 -9.94573e-21)
(-1.06205 0.0247829 -9.86784e-21)
(-1.07429 0.0231916 0)
(-1.08746 0.0219607 -9.82073e-21)
(-1.10008 0.02069 -9.69428e-21)
(-1.1102 0.0195652 0)
(-1.12071 0.0185218 9.75143e-21)
(-1.13101 0.0173083 -1.91624e-20)
(-1.13909 0.0165314 0)
(-1.14659 0.0157307 -9.3676e-21)
(-1.15571 0.0152943 0)
(-1.16513 0.0152009 2.72254e-20)
(-1.17262 0.0146347 0)
(-1.17922 0.0137733 -2.63396e-20)
(-1.1851 0.0127553 -8.63307e-21)
(-1.19029 0.0116399 8.45871e-21)
(-1.19481 0.0104664 1.65992e-20)
(-1.19867 0.00925371 -1.62718e-20)
(-1.20187 0.00801193 0)
(-1.20439 0.00674543 0)
(-1.20625 0.00545567 0)
(-1.20747 0.00414645 4.45602e-20)
(-1.20807 0.00283336 1.44624e-20)
(-1.20812 0.00154492 -1.4066e-20)
(-1.20766 0.000303097 0)
(-1.20649 -0.000876719 -1.3292e-20)
(-1.20459 -0.0020267 1.28116e-20)
(-1.20194 -0.00315854 1.23737e-20)
(-1.19852 -0.00427817 0)
(-1.19433 -0.00538674 0)
(-1.18936 -0.00648385 0)
(-1.18361 -0.00756829 1.05229e-20)
(-1.17706 -0.0086386 0)
(-1.16972 -0.00969319 -1.92046e-20)
(-1.16159 -0.0107305 -2.72357e-20)
(-1.15266 -0.0117489 1.71812e-20)
(-1.14295 -0.0127469 0)
(-1.13244 -0.0137231 7.62379e-21)
(-1.12115 -0.0146761 0)
(-1.10908 -0.0156045 1.29217e-20)
(-1.09624 -0.016507 -6.00126e-21)
(-1.08263 -0.0173826 -5.44429e-21)
(-1.06826 -0.01823 0)
(-1.05315 -0.0190484 -1.25018e-20)
(-1.0373 -0.0198368 7.23992e-21)
(-1.02073 -0.0205945 2.91823e-21)
(-1.00345 -0.0213206 0)
(-0.985469 -0.0220146 1.71588e-21)
(-0.966811 -0.0226758 3.56621e-21)
(-0.947489 -0.0233039 0)
(-0.92752 -0.0238984 8.0671e-24)
(-0.906922 -0.024459 -1.22974e-21)
(-0.885713 -0.0249855 -2.47442e-21)
(-0.863913 -0.0254778 0)
(-0.841543 -0.0259359 0)
(-0.818622 -0.02636 0)
(-0.795172 -0.0267501 3.60848e-21)
(-0.771214 -0.0271066 4.52821e-21)
(-0.746771 -0.0274298 0)
(-0.721864 -0.0277202 1.12988e-20)
(-0.696517 -0.0279782 1.25639e-20)
(-0.670751 -0.0282046 0)
(-0.64459 -0.0284001 1.53901e-20)
(-0.618056 -0.0285655 3.26909e-20)
(-0.591171 -0.0287014 -1.79032e-20)
(-0.563959 -0.0288089 -1.85401e-20)
(-0.53644 -0.028889 0)
(-0.508637 -0.0289427 0)
(-0.480571 -0.028971 0)
(-0.452263 -0.0289752 -2.40742e-20)
(-0.423733 -0.0289563 2.467e-20)
(-0.395001 -0.0289156 5.23512e-20)
(-0.366087 -0.0288543 -2.76691e-20)
(-0.337008 -0.0287736 2.82375e-20)
(-0.307782 -0.0286747 3.00091e-20)
(-0.278426 -0.0285589 0)
(-0.248956 -0.0284272 0)
(-0.219387 -0.0282807 -3.28273e-20)
(-0.189734 -0.0281207 0)
(-0.16001 -0.027948 0)
(-0.130229 -0.0277637 7.2831e-20)
(-0.100401 -0.0275694 0)
(-0.0705378 -0.0273677 3.8247e-20)
(-0.0406467 -0.0271646 -3.98498e-20)
(-0.0107309 -0.0269755 0)
(0.0191872 -0.0268432 4.10359e-20)
(0.048939 -0.0268828 0)
(0.0788414 -0.0267725 0)
(0.106224 -0.0257015 -4.10996e-20)
(0.137657 -0.0257565 8.71093e-20)
(0.165667 -0.0245944 -4.22784e-20)
(0.196157 -0.024379 0)
(0.226797 -0.0244191 0)
(0.256404 -0.0242329 4.57384e-20)
(0.286331 -0.0241651 0)
(0.316058 -0.0242089 4.66444e-20)
(0.345525 -0.0240968 0)
(0.374646 -0.0235154 0)
(0.404025 -0.0231294 0)
(0.434549 -0.023316 4.829e-20)
(0.462534 -0.022187 0)
(0.494069 -0.0219905 -4.90061e-20)
(0.523242 -0.0217881 0)
(0.553402 -0.0217945 0)
(0.583243 -0.0223983 9.92687e-20)
(0.610757 -0.0211273 -9.53886e-20)
(0.641417 -0.020901 0)
(0.66789 -0.0195431 0)
(0.696111 -0.0176976 0)
(0.719875 -0.0157407 3.05341e-19)
(0.742942 -0.0103653 0)
(0.750396 0.00413518 -1.9532e-19)
(-0.001496 -0.019188 -6.27459e-23)
(-0.00783604 -0.00440923 5.11872e-20)
(-0.0159923 0.0113007 0)
(-0.0249577 0.0247937 -4.1397e-20)
(-0.0347446 0.0361794 0)
(-0.0452055 0.0454762 0)
(-0.0563714 0.0528077 1.27454e-23)
(-0.0682807 0.0584254 1.73114e-20)
(-0.0809035 0.0626465 1.68027e-20)
(-0.0941544 0.0657822 1.63616e-20)
(-0.107926 0.0680953 0)
(-0.122109 0.0697867 0)
(-0.136609 0.071002 -1.51666e-20)
(-0.151344 0.0718448 -2.96381e-20)
(-0.166252 0.0723897 2.89834e-20)
(-0.181281 0.0726931 0)
(-0.196393 0.0727995 2.77838e-20)
(-0.211558 0.0727458 -1.36292e-20)
(-0.226755 0.0725638 0)
(-0.241967 0.0722812 2.62205e-20)
(-0.257185 0.0719225 1.28897e-20)
(-0.2724 0.0715091 -2.53096e-20)
(-0.287611 0.0710593 -1.24576e-20)
(-0.302817 0.0705889 0)
(-0.318019 0.0701112 2.41029e-20)
(-0.333221 0.0696371 2.37371e-20)
(-0.348427 0.0691751 0)
(-0.363644 0.0687318 2.30527e-20)
(-0.378877 0.068312 0)
(-0.394133 0.0679189 2.24241e-20)
(-0.409419 0.067554 1.10813e-20)
(-0.424742 0.0672177 0)
(-0.440107 0.0669092 0)
(-0.455522 0.0666267 0)
(-0.47099 0.0663676 0)
(-0.486516 0.0661285 0)
(-0.502104 0.0659053 0)
(-0.517757 0.0656937 2.03447e-20)
(-0.533477 0.0654886 -3.02066e-20)
(-0.549264 0.0652852 0)
(-0.565118 0.0650785 0)
(-0.581038 0.0648641 0)
(-0.597024 0.0646384 3.90907e-23)
(-0.613072 0.0643987 1.91801e-20)
(-0.629181 0.064144 3.79732e-20)
(-0.645345 0.0638747 -3.76404e-20)
(-0.66156 0.0635921 -1.86425e-20)
(-0.67782 0.0632977 1.85296e-20)
(-0.694114 0.0629908 -3.70709e-23)
(-0.710431 0.0626661 1.82141e-20)
(-0.726755 0.0623112 0)
(-0.74307 0.0619061 1.79665e-20)
(-0.759366 0.0614294 -3.39555e-23)
(-0.775639 0.060872 0)
(-0.791894 0.0602576 0)
(-0.808129 0.0596502 -1.75678e-20)
(-0.824323 0.0591346 0)
(-0.840345 0.0587898 0)
(-0.855791 0.0584431 1.73871e-20)
(-0.870735 0.0575804 3.47427e-20)
(-0.88607 0.0560165 -1.73653e-20)
(-0.90173 0.0549429 0)
(-0.91648 0.0544845 1.71595e-20)
(-0.930306 0.0535744 0)
(-0.943758 0.0522272 1.70625e-20)
(-0.956981 0.0502402 1.69667e-20)
(-0.970491 0.0478792 -3.36955e-20)
(-0.984093 0.0462237 -1.65906e-20)
(-0.996891 0.0450059 0)
(-1.00888 0.0437419 3.26481e-20)
(-1.01996 0.0423425 0)
(-1.0308 0.0402913 4.81139e-20)
(-1.04126 0.0388503 3.16766e-20)
(-1.05047 0.0371131 3.14006e-20)
(-1.05962 0.0344693 -3.10586e-20)
(-1.06856 0.0324506 4.59967e-20)
(-1.07638 0.0303423 0)
(-1.08397 0.0273986 0)
(-1.09198 0.0248259 -2.9371e-20)
(-1.09956 0.0230868 -4.33585e-20)
(-1.10618 0.0213412 0)
(-1.11209 0.0195737 1.39667e-20)
(-1.11734 0.0177618 0)
(-1.12197 0.0159099 -4.03183e-20)
(-1.12598 0.0140276 -8.59086e-24)
(-1.12937 0.0121233 2.60394e-24)
(-1.13215 0.0102046 2.5228e-20)
(-1.1343 0.00827866 0)
(-1.13584 0.00635342 -2.40639e-20)
(-1.13675 0.00443861 2.1847e-23)
(-1.13704 0.00254568 0)
(-1.1367 0.00068524 0)
(-1.13569 -0.00114661 0)
(-1.13397 -0.00297226 2.08303e-20)
(-1.13154 -0.00478924 0)
(-1.12837 -0.00659472 0)
(-1.12446 -0.00838632 0)
(-1.1198 -0.0101616 0)
(-1.11439 -0.0119181 0)
(-1.10821 -0.0136531 1.65838e-20)
(-1.10126 -0.015364 0)
(-1.09355 -0.0170482 1.49401e-20)
(-1.08507 -0.0187031 1.41439e-20)
(-1.07581 -0.020326 -1.33353e-20)
(-1.06579 -0.0219147 0)
(-1.055 -0.0234667 -1.16821e-20)
(-1.04345 -0.0249799 0)
(-1.03114 -0.0264521 -9.98351e-21)
(-1.01808 -0.0278814 9.11827e-21)
(-1.00428 -0.0292658 2.50373e-20)
(-0.989742 -0.0306036 0)
(-0.974476 -0.0318933 1.97245e-20)
(-0.958495 -0.0331335 5.90407e-21)
(-0.941811 -0.0343229 0)
(-0.924436 -0.0354604 7.83234e-21)
(-0.906384 -0.0365451 5.99419e-21)
(-0.887671 -0.037576 -6.02493e-21)
(-0.86831 -0.0385525 0)
(-0.84832 -0.0394739 -6.15787e-24)
(-0.827718 -0.0403399 9.37723e-22)
(-0.806521 -0.0411502 5.24104e-21)
(-0.784749 -0.0419048 0)
(-0.762422 -0.0426036 0)
(-0.739558 -0.043247 0)
(-0.71618 -0.0438354 5.25359e-21)
(-0.692307 -0.0443691 0)
(-0.667962 -0.0448488 0)
(-0.643166 -0.0452754 -8.54865e-21)
(-0.61794 -0.0456497 -9.49724e-21)
(-0.592307 -0.0459729 0)
(-0.56629 -0.0462463 0)
(-0.53991 -0.0464711 -2.46473e-20)
(-0.513188 -0.0466487 0)
(-0.486148 -0.0467805 2.83715e-20)
(-0.45881 -0.0468684 2.97478e-20)
(-0.431196 -0.0469141 0)
(-0.403327 -0.0469192 0)
(-0.375224 -0.0468857 -3.52032e-20)
(-0.346905 -0.0468155 -4.6898e-22)
(-0.318391 -0.0467107 -4.68024e-22)
(-0.2897 -0.0465733 0)
(-0.26085 -0.0464051 -8.49839e-20)
(-0.231859 -0.0462083 0)
(-0.202742 -0.0459848 0)
(-0.173517 -0.0457365 0)
(-0.144196 -0.0454654 4.94718e-20)
(-0.114795 -0.0451732 0)
(-0.0853265 -0.0448616 -1.04535e-19)
(-0.0558027 -0.0445323 -5.43057e-20)
(-0.0262349 -0.0441876 0)
(0.00336637 -0.0438316 -5.72765e-20)
(0.0329907 -0.0434705 0)
(0.0626259 -0.0431169 0)
(0.0922356 -0.0427964 -1.80633e-19)
(0.121699 -0.0425243 1.22125e-19)
(0.151243 -0.0420583 0)
(0.180101 -0.0414247 1.24749e-19)
(0.210253 -0.0410298 -6.44812e-20)
(0.239418 -0.0402839 0)
(0.269304 -0.0400449 0)
(0.29918 -0.0396986 0)
(0.328805 -0.0393224 -2.03966e-19)
(0.358504 -0.039098 0)
(0.388135 -0.0387107 -6.98881e-20)
(0.417767 -0.0382893 0)
(0.447317 -0.0379528 0)
(0.476775 -0.0377993 0)
(0.506719 -0.0372402 0)
(0.536199 -0.0367371 0)
(0.566449 -0.0365418 0)
(0.595981 -0.0361221 -1.48084e-19)
(0.62568 -0.0359829 0)
(0.655313 -0.0351979 -7.54986e-20)
(0.684412 -0.0345058 2.25116e-19)
(0.713832 -0.0337074 0)
(0.741799 -0.0321438 0)
(0.769434 -0.029977 -1.53828e-19)
(0.794597 -0.0261146 -1.55816e-19)
(0.81991 -0.0182319 1.56976e-19)
(0.837476 -0.00332768 1.56947e-19)
(-0.00421958 -0.00522949 -8.30352e-20)
(-0.0143536 0.0159179 -7.38352e-20)
(-0.0250288 0.0329221 -4.24365e-20)
(-0.0360734 0.0468957 -1.89991e-20)
(-0.047432 0.0587197 0)
(-0.0589218 0.0686188 3.33527e-20)
(-0.0706093 0.0767204 -1.5967e-20)
(-0.0825978 0.0831849 0)
(-0.0949419 0.0882206 -1.49398e-20)
(-0.107644 0.0920581 0)
(-0.120674 0.0949196 2.82767e-20)
(-0.133983 0.096999 0)
(-0.147516 0.0984556 1.34586e-20)
(-0.161223 0.0994156 2.63027e-20)
(-0.175059 0.0999784 -2.57254e-20)
(-0.188989 0.100223 0)
(-0.202982 0.100212 -2.46699e-20)
(-0.217017 0.1 0)
(-0.231078 0.0996302 0)
(-0.245153 0.0991404 -2.32979e-20)
(-0.259235 0.098563 0)
(-0.273319 0.0979257 1.82874e-24)
(-0.287404 0.0972519 0)
(-0.30149 0.0965609 0)
(-0.315578 0.095869 -4.49088e-24)
(-0.329671 0.0951891 -2.11283e-20)
(-0.343775 0.094531 -2.08176e-20)
(-0.357893 0.0939023 -2.05329e-20)
(-0.37203 0.0933081 0)
(-0.386193 0.0927514 -3.99648e-20)
(-0.400385 0.0922336 0)
(-0.414613 0.0917543 -1.94734e-20)
(-0.428881 0.0913118 0)
(-0.443193 0.0909033 0)
(-0.457554 0.0905247 1.87868e-20)
(-0.471965 0.0901715 0)
(-0.48643 0.0898382 -1.83702e-20)
(-0.50095 0.0895189 -1.43068e-23)
(-0.515525 0.0892072 3.59807e-20)
(-0.530155 0.0888969 -3.55996e-20)
(-0.54484 0.0885817 0)
(-0.559577 0.088256 0)
(-0.574363 0.0879148 -1.72746e-20)
(-0.589195 0.0875544 0)
(-0.604068 0.0871719 -1.69981e-20)
(-0.618975 0.0867656 1.68539e-20)
(-0.633908 0.0863342 1.6716e-20)
(-0.648857 0.0858759 0)
(-0.663808 0.0853865 -1.64584e-20)
(-0.678746 0.0848582 -1.63382e-20)
(-0.693656 0.0842783 3.24183e-20)
(-0.708522 0.0836301 -1.61132e-20)
(-0.72333 0.082898 -1.60076e-20)
(-0.738074 0.0820749 0)