/*--------------------------------*- C++ -*----------------------------------*\
  =========                 |
  \\      /  F ield         | OpenFOAM: The Open Source CFD Toolbox
   \\    /   O peration     | Website:  https://openfoam.org
    \\  /    A nd           | Version:  7
     \\/     M anipulation  |
\*---------------------------------------------------------------------------*/
FoamFile
{
    version     2.0;
    format      ascii;
    class       surfaceScalarField;
    location    "3";
    object      phi;
}
// * * * * * * * * * * * * * * * * * * * * * * * * * * * * * * * * * * * * * //

dimensions      [0 3 -1 0 0 0 0];

internalField   nonuniform List<scalar> 
1300
(
3.75095
5.62643
-4.35468
3.75095
-3.89097
5.62643
-3.5729
3.5729
-0.862326
0.862326
1.92028
1.83067
-3.00161
3.00161
-3.08486
3.08486
-1.71239
1.71239
-3.87937
3.87937
-3.17324
3.17324
1.82576
-1.82576
-2.86288
2.86288
-1.15684
1.15684
-3.24552
3.24552
2.07706
-2.07706
-3.11697
3.11697
-1.03778
1.03778
-1.41779
5.16874
2.33317
2.33317
-1.55068
1.55068
-3.6203
3.6203
4.63213
-4.63213
7.57496
-7.57496
-3.22028
-3.63705
1.22967
-8.49362
-2.6613
-2.6613
-8.39103
8.39103
-2.7646
2.86183
1.78997
-1.78997
-0.43064
0.43064
-3.3542
-0.218703
-3.3542
3.68127
-0.108362
3.68127
-0.945329
0.0830033
-0.945329
2.4513
-2.4513
0.799388
0.0629378
0.799388
1.77861
-1.77861
-1.90405
3.82433
1.84691
-1.73376
6.9025
-2.01719
3.84786
-2.735
2.735
-3.02166
0.0200502
-3.02166
3.05918
-0.0575722
3.05918
-3.041
3.041
-3.08921
0.0043552
-3.08921
3.12015
-0.0352945
3.12015
1.82209
-1.82209
-1.7352
0.0228109
-1.7352
1.69695
0.0154345
1.69695
1.36035
4.26608
-6.98678
9.84861
-4.26608
0.386709
3.48719
0.39218
3.48719
-3.15526
-0.0179831
-3.15526
3.2765
-0.103255
3.2765
1.52025
0.305517
1.52025
-2.19947
0.373708
-2.19947
-3.75895
-3.77846
-2.94166
0.0787723
-2.94166
-1.16006
0.00321897
-1.16006
1.1328
0.0240403
1.1328
-1.98161
1.98161
-3.47854
0.233017
-3.47854
1.83371
0.243349
1.83371
1.65319
2.09777
5.40414
-5.40414
3.32708
-3.12249
0.00552549
-3.12249
-3.16791
-4.40705
3.16791
-0.0509467
-0.835894
-0.201888
-0.835894
1.97227
0.360895
1.97227
1.64835
0.0486042
-1.64835
0.0976656
2.06138
-2.06138
1.03497
0.515715
1.03497
-3.50565
3.50565
3.40794
-0.13144
-3.40794
-0.212368
4.42753
0.204595
4.42753
-4.78341
0.15128
-4.78341
3.79712
-7.43417
-3.76076
2.7733
0.089581
-2.7733
0.112
1.80705
-0.0170745
1.80705
-1.77222
1.77222
-1.79863
0.00865928
-1.79863
-0.301552
-0.129088
-0.301552
0.596567
-0.165927
0.596567
-3.04006
-0.314142
-3.04006
-3.63091
0.152375
3.63091
0.0503521
1.14452
-1.14452
-1.01814
0.0728068
-1.01814
-2.7016
-0.338464
2.7016
-0.250299
-2.3091
-0.142194
-2.3091
-1.78568
-0.0129544
1.78568
-0.00706599
1.80726
0.165008
-1.80726
0.028653
-1.77077
3.86853
-1.98019
3.82709
-2.62913
-0.105874
-2.62913
2.88726
-0.152252
2.88726
3.13488
0.110642
-3.13488
0.113222
3.10834
-0.0491568
3.10834
-3.02325
-0.0177535
-3.02325
3.06315
-0.0221452
3.06315
3.1203
-0.0119578
-3.1203
0.0310819
3.14801
-0.0278593
3.14801
1.8547
-0.0326149
1.8547
-1.81294
-0.00915156
-1.81294
1.78724
-1.78724
1.75819
0.0290507
-1.75819
0.022996
-14.4236
14.5749
-0.188525
-14.2351
3.29867
3.29867
0.794002
0.726245
0.794002
-2.58882
0.389351
-2.58882
3.77239
-7.53315
3.75413
-7.51308
3.75679
-12.2504
3.7678
-7.54626
3.05365
-3.05365
3.02213
0.0315209
-3.02213
0.0804704
-1.12281
-0.0372478
-1.12281
-1.82141
-0.1602
-1.82141
2.222
-0.240395
2.222
-1.81017
1.81017
-1.79134
-0.0188262
1.79134
0.0423671
3.14927
-0.0012619
-3.14927
0.0267821
0.77427
0.0251182
-0.77427
-0.0616238
2.13114
-0.0697591
2.13114
-1.95328
-0.108095
-1.95328
-1.07619
-0.0466182
1.07619
-0.041227
-3.84875
0.343109
-3.84875
-14.1268
-0.108286
-13.7347
-4.89169
-4.89169
3.49934
13.3479
-1.82427
0.0113327
1.82427
-0.0172233
1.79316
0.0170092
-1.79316
0.0209426
-1.77357
-0.0136762
1.77357
-0.00135218
-0.290386
-0.0111664
-0.290386
-0.870904
0.870904
-0.734744
-0.136161
0.734744
-0.138177
1.27264
-0.128122
1.27264
1.09186
0.0409426
-1.09186
0.0737223
-2.2333
-0.075802
-2.2333
2.98073
-0.0934795
2.98073
-1.88851
-0.0647759
1.88851
-0.0338023
-0.098706
14.6736
-3.19996
0.0447027
3.19996
-14.8782
14.9229
-0.384515
0.0941296
0.384516
0.409486
3.0748
0.430848
-3.0748
0.485974
3.04823
0.0149119
-3.04823
-0.00541332
-1.67627
-0.145137
-1.67627
-2.4625
-0.166626
2.4625
-0.240501
-15.057
-0.323453
15.3805
-15.1603
4.17221
0.255323
-4.17221
15.1783
-1.00511
-0.139408
1.00511
-0.134204
1.42137
-0.148733
1.42137
2.21575
-0.0846195
-2.21575
-0.0175455
-3.01331
-0.00993949
3.01331
-0.0325727
-1.55624
-0.120025
1.55624
-0.134874
-4.35774
4.71864
2.54476
-3.68858
-3.74559
-8.09563
1.50281
2.36572
4.8299
-7.31203
-4.93839
-7.20003
8.79467
-8.30869
-8.56138
8.86689
8.09202
-8.23421
-6.31104
6.35341
6.97952
-6.98658
1.85286
1.97147
11.3879
-11.3679
-11.0244
10.9185
10.9597
-10.9553
11.4774
-11.4952
-13.3317
13.3466
-6.15123
6.17404
-7.12478
7.11563
-7.23785
7.20405
-3.74908
-3.764
9.58562
-9.50684
12.7054
-12.6999
-12.4132
12.6462
3.47056
1.24807
3.63557
-2.13267
3.98553
-1.71519
4.25995
3.76214
-7.51122
3.77101
-7.51661
6.3822
6.32323
-6.33125
-1.76438
-6.33921
6.32214
-6.27534
6.27399
11.8054
-12.0241
-2.04955
4.02102
-1.77754
4.14326
-3.74351
-2.56753
3.50016
1.32974
5.72286
3.86275
-5.81244
-1.38759
-8.20698
8.12236
-8.46804
8.35994
0.103603
7.39832
-7.50193
3.72391
-2.66892
10.0672
6.12575
6.5151
7.38876
-6.95792
0.919927
-8.42185
-8.63422
-2.67344
2.74625
2.61413
-2.5512
6.46202
1.62999
6.21172
-5.77989
-2.45432
-5.8557
4.10063
2.25278
4.08181
4.33448
2.64504
4.32152
3.37646
-3.39696
0.0204954
-3.52953
6.90599
0.624063
-6.09706
-4.76733
7.32482
4.0631
7.26725
-7.52811
-3.83976
-7.41489
-6.3986
-4.62582
-6.56523
6.94077
3.97778
6.78852
-8.33735
8.30477
7.12719
3.83249
7.0919
-7.09096
-3.86436
-7.05988
11.7647
-3.03221
-8.73245
-7.28069
-6.05102
7.30284
4.17461
7.98641
5.36021
7.981
4.00912
7.75553
-8.18373
2.13271
-4.00504
-2.14618
-3.98205
3.8946
2.27944
3.91003
-4.41406
-2.71072
-4.40273
-4.4425
-2.79536
4.47511
2.64052
-4.53118
-3.93685
4.59596
2.60809
3.41588
-8.35426
4.13038
-7.89438
-6.55102
-2.95582
-6.47055
4.61476
2.96992
-7.58468
-2.89646
12.1774
-5.85421
10.4131
-7.6997
-5.00021
-7.67292
-9.48421
-2.92897
-9.33183
-5.26223
5.1171
-5.58593
5.34554
11.876
-6.63469
-5.24134
-4.18413
-2.80245
4.15548
-0.519907
-4.16702
4.18751
-0.181486
4.07846
5.32654
4.80663
-4.0601
-2.21525
-4.03915
4.05566
2.21833
4.04198
9.24484
2.56053
9.13648
-7.71119
-4.31288
-8.02533
3.80912
-3.93821
2.99616
-3.04278
5.37847
2.98148
-5.30871
-2.89828
6.7092
-3.26928
-3.43991
-14.3726
10.975
3.39764
-4.30535
-0.581446
0.456335
-5.51218
-3.0492
5.13847
1.37663
12.3516
9.30239
-7.11703
7.46014
8.26344
8.132
-0.502222
2.37533
-2.2812
4.50783
-1.00803
-3.4998
5.81617
-6.15463
-2.20916
-6.2845
4.07534
0.0570917
1.84071
-2.0426
-2.0777
-0.595737
-2.00398
1.70319
0.910945
1.72831
0.962772
1.78348
-3.13656
0.684716
2.45184
-2.17378
-1.86648
-3.79076
-0.951543
4.7423
5.79753
2.32484
-5.77998
-0.0757135
2.77498
-2.75094
-0.782808
-3.00795
2.28518
-3.06799
-3.87653
-2.00673
5.88326
-3.50616
-0.532995
3.48915
0.592657
-3.98363
-2.35558
3.97497
0.34655
-3.47555
6.95417
-3.47862
-5.6908
2.87076
4.03523
5.12354
-5.4125
2.7506
2.6619
-1.37728
6.21256
1.05469
6.1634
-10.4185
6.57878
8.23129
4.4149
-8.34194
0.927048
-9.4915
10.9853
-9.57002
-1.41526
5.74491
5.24037
5.97746
5.89857
-4.12834
10.1058
-1.33061
-8.23941
10.8221
-6.4072
6.64252
-13.0497
-12.5411
4.30168
-7.88751
9.61938
-1.73187
-2.62371
-5.71363
10.5112
-0.981409
-9.52982
5.80711
-6.07042
-6.11528
12.1857
-9.10263
9.97965
-2.98682
-6.99283
-7.00675
-4.48845
7.01669
1.28809
-11.2201
13.3528
-3.46455
6.10441
0.987486
6.07655
4.44311
-6.75654
2.31343
4.65952
-7.64634
2.94164
-9.69818
-5.51011
10.8036
-5.29345
-8.46593
-7.503
-0.962931
2.31648
11.0363
-7.67669
5.96104
1.71565
3.44169
0.600291
-3.47074
-0.511307
0.411825
5.00827
-5.42009
4.32186
4.37046
3.92443
1.08383
4.04883
2.27331
-4.03161
-0.371125
-4.46521
1.66985
-1.82468
-3.91219
5.58204
-4.40779
0.495598
-3.00229
-3.94871
6.95101
-5.14848
3.4507
3.50347
5.66904
-5.44255
1.49384
-2.73019
-2.71236
2.91395
-4.73863
2.0948
3.48724
4.70289
0.76604
5.49961
5.30395
-8.46953
0.575145
9.16671
-7.77912
1.84455
6.13644
-7.80559
0.302589
-6.16796
1.28861
-7.14282
-6.29606
7.2873
-10.2163
-5.76242
8.45831
0.678171
-8.50866
-0.82317
-3.5101
-1.75214
-3.63012
-1.87665
-3.70928
-6.00499
-1.24761
-4.75737
3.86948
-4.21538
-2.34985
4.45588
0.889661
-3.92186
3.78245
-4.16489
4.01616
0.119665
4.06785
4.9263
2.12385
-2.69057
4.81442
-7.75316
10.3137
-12.0453
4.29213
4.4545
-8.76738
-7.5908
2.14514
1.66398
1.97921
7.31867
-8.67246
1.35379
-7.32083
8.71959
-1.39876
-11.2221
3.90129
-3.90345
2.78997
0.206197
2.75272
0.803638
2.55498
-3.35862
-2.23914
-2.28037
-2.47063
-3.77274
6.24336
1.24793
-3.62255
2.37461
-3.75029
4.99822
-0.0626751
-3.55987
5.7473
-3.19231
5.95349
-3.81296
2.14053
3.51688
6.0305
-2.51362
4.79427
-1.81279
1.87674
-4.39036
-1.89599
-3.35574
5.63518
-3.59527
4.09087
-0.215085
4.30595
-4.49108
1.2218
-0.566649
3.80381
3.90148
4.58828
-3.50445
3.24199
-5.05478
-1.14837
-4.28874
-0.801503
-1.81192
-5.77497
7.58689
6.31857
-8.13049
-3.53496
6.94456
-3.4096
5.109
-4.05011
-1.0589
-1.45236
-2.48584
1.46353
0.911796
6.0208
-0.203318
-3.84679
-2.48451
-2.07503
4.29721
0.210625
-2.87092
6.26856
2.41458
-0.573876
0.31578
1.41253
2.0085
-1.69272
0.691693
1.3168
-1.3509
2.03819
0.736791
-2.07913
0.075151
-1.19201
3.47719
1.25983
-2.17078
0.478062
2.00796
-3.01599
4.80095
-1.97405
-2.82689
6.80891
1.73857
-3.71262
4.54594
-4.48884
2.63228
-3.58383
-1.08034
-5.56918
-3.93919
-2.75868
5.13329
-3.48468
5.80952
1.25676
-5.7338
6.99057
-3.82518
1.81845
-3.31857
4.05536
-1.17304
-2.14553
2.94049
2.94277
-3.05195
0.0440005
-0.111454
2.49675
-2.6082
-0.571236
-2.74502
-5.07648
5.42303
-2.38297
5.13357
2.43145
-2.15431
7.28788
2.06548
-4.21979
-3.62532
-4.15831
-1.55789
3.56565
-1.01606
-6.04383
-8.00889
6.05578
0.107618
-10.162
11.5513
-1.38924
-6.09894
-0.479848
6.22476
-8.48955
0.843209
-5.54791
6.00337
7.05806
7.16568
-9.4473
-0.0825127
-5.46953
1.43668
-6.9062
6.67704
-3.15838
7.46006
-7.83707
5.48722
-6.94741
6.0448
-0.861401
6.25833
-3.9449
2.47412
-6.96257
-5.67448
7.88381
-4.05132
8.8713
-4.66984
13.5411
-8.13438
7.80797
5.73317
-1.53592
-6.137
-7.74625
6.21034
0.0617109
6.13826
5.44796
-3.17465
5.07684
2.37252
-5.10271
-2.36611
-7.20553
2.10282
-3.70206
-2.09445
4.19727
3.57458
4.17487
1.48491
-3.66357
7.48446
-8.4474
-2.19101
-4.10505
7.64762
-1.43729
4.4954
-8.60045
-2.64742
5.9318
-0.610634
-5.32117
0.702893
-6.46531
2.8407
-9.30601
7.37557
-8.19874
1.43442
-5.33787
-2.48744
-2.62165
-1.44602
-2.71887
-4.83675
3.39073
-0.935465
2.84699
-6.1889
5.57826
-2.53069
5.92142
-3.03934
-0.590779
3.17422
0.841939
6.76336
-1.36465
-6.22615
-0.187923
6.06119
-5.87326
4.10928
-7.13962
-1.07844
3.48367
3.32524
-7.55901
-1.20837
-7.43452
-3.02015
4.68413
3.92441
10.243
1.57052
4.83179
-0.147662
6.40231
1.83155
1.69337
-4.70239
6.05618
2.88451
7.17664
-0.878387
3.01892
1.87433
1.87755
0.87339
2.42044
1.48104
3.64223
0.283612
-1.99676
4.13555
-6.21058
0.288761
-5.48433
3.38256
6.30298
-2.92042
4.97245
-4.76183
-0.900809
1.45588
-1.55367
0.0977906
-2.04392
-2.12755
-0.810744
-1.71298
2.19104
1.76421
-1.38029
-0.66363
0.26753
-4.20672
3.3163
-3.2723
-0.329531
6.66104
-2.94276
0.334552
-1.12431
-2.41047
-3.0062
2.93105
6.94142
0.346454
3.4628
5.76949
3.41391
0.239256
5.12428
-6.85615
-4.5739
-6.93867
-0.261624
5.96314
2.22919
8.80713
7.96236
6.52507
-2.07538
-10.5228
8.7373
-2.68113
7.33855
-2.01738
-7.28863
7.30866
3.00503
-7.98683
-0.211913
-7.50054
-10.1817
-0.393483
5.97174
-6.36988
5.7791
4.02697
0.730407
-1.88564
-0.736011
2.0218
-0.328425
6.07388
-2.54136
-7.98648
10.5278
-3.76163
4.05039
4.54842
1.72014
4.64621
-0.11562
-8.1021
-11.0225
-1.53758
-1.47841
-4.36447
0.377826
-2.14204
5.37779
-1.3274
4.31889
9.20044
8.29963
-2.65053
-5.47995
6.06013
-1.74124
6.55839
)
;

boundaryField
{
    wall-4
    {
        type            calculated;
        value           uniform 0;
    }
    velocity-inlet-5
    {
        type            calculated;
        value           uniform -3.75095;
    }
    velocity-inlet-6
    {
        type            calculated;
        value           uniform -5.62643;
    }
    pressure-outlet-7
    {
        type            calculated;
        value           nonuniform List<scalar> 8(4.35468 3.89097 6.85734 7.26395 7.53742 7.55788 7.52652 7.52459);
    }
    wall-8
    {
        type            calculated;
        value           uniform 0;
    }
    frontAndBackPlanes
    {
        type            empty;
        value           nonuniform 0();
    }
}


// ************************************************************************* //
