/*--------------------------------*- C++ -*----------------------------------*\
  =========                 |
  \\      /  F ield         | OpenFOAM: The Open Source CFD Toolbox
   \\    /   O peration     | Website:  https://openfoam.org
    \\  /    A nd           | Version:  7
     \\/     M anipulation  |
\*---------------------------------------------------------------------------*/
FoamFile
{
    version     2.0;
    format      ascii;
    class       volVectorField;
    location    "3";
    object      U;
}
// * * * * * * * * * * * * * * * * * * * * * * * * * * * * * * * * * * * * * //

dimensions      [0 1 -1 0 0 0 0];

internalField   nonuniform List<vector> 
918
(
(0.8153 -0.0553143 0)
(0.134459 2.47694 0)
(0.0224965 1.09634 0)
(0.756322 0.0540389 0)
(-0.0228045 0.996763 -1.87953e-19)
(-0.13669 2.25728 -2.84497e-17)
(0.503554 0.794145 -1.80155e-18)
(0.214925 0.121295 -7.52119e-20)
(1.00305 -0.00913552 0)
(-0.00550164 0.682904 0)
(-0.00218488 0.71772 0)
(0.398601 0.00180586 0)
(0.117358 1.74033 0)
(0.0080513 1.30719 0)
(-0.0235766 0.916261 -2.01545e-18)
(0.00210855 0.691842 -3.47438e-19)
(0.271932 0.0688306 5.8811e-18)
(0.0993223 0.792008 -1.1751e-18)
(0.510379 0.0359566 0)
(-0.00527004 0.728172 0)
(0.33814 0.202596 -2.3363e-18)
(1.02054 -0.127544 0)
(0.964665 -0.161873 0)
(0.615213 -0.053785 0)
(0.360084 0.0170623 0)
(-0.0195402 1.50159 0)
(-0.0468734 1.72714 8.98997e-18)
(-0.0346864 1.20542 0)
(0.00186225 1.84007 0)
(0.0179047 1.45395 0)
(-0.00636741 1.90509 0)
(-0.0164276 1.25883 1.47901e-19)
(-0.00187867 0.656165 0)
(-0.320939 2.70296 -1.0723e-21)
(-0.310503 3.10885 2.45819e-17)
(-0.0130257 3.0413 0)
(0.416223 -0.00172533 0)
(0.0944561 0.104682 1.28041e-18)
(0.734138 1.14158 3.9649e-18)
(0.550081 0.682397 -3.20987e-18)
(0.637723 1.30008 3.92905e-19)
(0.416589 0.857312 -1.94784e-18)
(0.387175 0.20857 7.57757e-20)
(0.228158 0.115111 0)
(0.545204 0.328506 0)
(0.371344 0.212729 3.31397e-19)
(0.211271 0.125421 -3.2928e-19)
(0.414345 -0.00515798 0)
(1.01113 -0.00394607 0)
(1.00286 0.00583489 0)
(1.0579 -0.153822 0)
(1.01652 -0.0362398 0)
(1.0105 -0.0223867 0)
(0.00423293 0.679197 -3.53652e-18)
(-0.00794377 1.15659 0)
(0.00986442 0.687784 0)
(-0.0257511 1.18622 0)
(-0.00868189 0.688139 0)
(0.00313002 0.718774 0)
(0.00541721 1.17281 0)
(0.00901648 0.720508 0)
(-0.00952713 1.19832 0)
(-0.0015368 0.716074 0)
(0.42552 0.00414377 0)
(0.65754 0.0074268 0)
(0.402221 0.00518303 0)
(0.656538 0.000196467 0)
(0.391967 0.00154986 0)
(0.345215 2.93891 1.12577e-17)
(0.28445 3.23568 0)
(0.225185 3.03563 0)
(0.211086 2.70612 1.22091e-22)
(0.138812 2.12552 -1.5823e-17)
(0.177238 2.49093 0)
(0.0773679 1.5409 0)
(0.0149451 2.26444 1.76012e-23)
(0.0172197 1.30372 0)
(-0.0662615 2.29828 0)
(-0.0480656 1.33095 0)
(-0.0258881 1.518 0)
(-0.028666 0.966005 0)
(-0.0265169 1.72062 2.03871e-18)
(-0.0181153 1.01629 0)
(-0.00294458 2.0096 0)
(-0.00495478 1.15522 3.51575e-19)
(-0.00651907 0.70512 -4.61097e-19)
(0.487091 0.11213 -2.08937e-18)
(0.276518 0.0515002 -2.00838e-18)
(0.47109 0.136403 -6.23925e-18)
(0.264618 0.082043 -3.89948e-18)
(0.0601893 0.502977 0)
(0.198869 1.33877 1.08768e-18)
(0.215104 0.857172 -1.7066e-18)
(0.738003 0.0427231 0)
(0.42733 0.0159666 0)
(1.00919 0.041765 0)
(1.02897 0.156121 0)
(0.953333 0.120695 -2.6217e-17)
(0.852571 0.12966 1.96343e-17)
(0.00513144 1.17534 0)
(0.010963 0.73598 0)
(-0.0222377 1.53113 0)
(-0.0165343 1.22125 0)
(-0.0104335 0.703486 0)
(0.554269 0.258653 8.05297e-19)
(0.281793 0.16576 0)
(0.789092 -0.0626392 0)
(0.465935 -0.0231123 0)
(0.642158 0.00710741 0)
(0.618653 0.0217929 0)
(0.38188 0.00486951 0)
(0.498619 0.0145058 0)
(0.547184 0.0331467 0)
(0.270124 0.0164252 9.39978e-18)
(-0.02506 1.34701 5.11472e-18)
(-0.0571148 2.44156 0)
(-0.0811813 2.53381 0)
(-0.0206931 1.37253 0)
(-0.0661537 2.63495 8.34756e-18)
(-0.0336905 1.62871 0)
(-0.103565 2.69741 -2.71928e-17)
(-0.0734663 1.81679 9.07755e-18)
(0.000927582 1.99842 0)
(0.00756576 2.01584 0)
(-0.000168059 1.16168 -8.82423e-21)
(-0.0130415 1.1323 0)
(-0.00484911 0.673732 0)
(0.683666 0.00371987 0)
(0.420467 0.00542648 0)
(0.411555 0.0030513 0)
(0.691456 -0.00140841 0)
(0.414 0.00234511 0)
(0.220402 0.241824 -1.69911e-18)
(0.0615061 0.0670865 0)
(0.255572 0.326154 2.04194e-19)
(0.119611 0.166035 0)
(0.787556 0.985269 1.0514e-18)
(0.548114 0.551315 -2.32698e-18)
(0.360362 1.39415 0)
(0.513 1.38262 0)
(0.31774 0.875143 0)
(0.138424 0.324348 -1.2481e-18)
(0.410429 0.194035 0)
(0.240202 0.106657 1.04628e-18)
(0.802477 0.808828 0)
(0.810579 0.634396 0)
(0.541035 0.428028 2.533e-18)
(0.816452 0.471784 0)
(0.547898 0.236501 3.56964e-20)
(0.690826 0.00792489 0)
(0.675351 -0.000128413 0)
(0.417562 0.00331356 0)
(0.71609 -0.0268781 0)
(0.687671 -0.00908105 0)
(0.420047 -0.00830132 0)
(1.0229 0.0652013 0)
(1.01158 0.0271883 0)
(1.00417 0.0217279 0)
(-0.00823554 1.10416 1.90048e-18)
(0.000587934 0.671598 0)
(0.0144595 1.15428 3.46726e-18)
(0.00875407 0.693565 -3.13901e-18)
(0.044973 1.26962 1.00882e-18)
(-0.00104934 1.19554 0)
(0.0222117 0.719436 0)
(-0.0190238 1.19852 0)
(-0.0065338 0.710862 0)
(-0.00674143 1.16416 -1.58728e-20)
(-0.00785466 0.717464 0)
(0.00280187 1.19112 -8.82808e-19)
(-0.00612894 0.723015 1.66849e-18)
(-0.00394116 1.20515 0)
(0.0113901 1.19374 0)
(0.00208531 0.719157 0)
(-0.00668343 1.20655 0)
(-0.00361182 0.728414 0)
(0.708437 0.00785866 0)
(0.432264 0.00035109 0)
(0.689037 0.000314397 0)
(0.42252 -0.00323711 0)
(0.411037 -0.000893499 0)
(0.684599 0.0051555 0)
(0.673017 0.00806992 0)
(0.405107 0.00353561 0)
(-0.00723942 4.03741 -7.46414e-20)
(0.0596865 3.91046 0)
(0.0861097 2.35758 0)
(0.0370472 1.399 0)
(0.155195 1.32821 0)
(0.1733 0.517186 -1.37091e-19)
(-0.0161921 1.87813 0)
(-0.0364711 1.11488 0)
(0.00255716 2.01067 0)
(0.000829687 2.002 0)
(0.00173745 2.00619 0)
(-0.0120595 1.94487 8.24269e-20)
(0.00099142 2.01289 0)
(-0.00478013 2.007 0)
(0.0054861 0.70866 4.70545e-20)
(0.00614739 1.19769 6.05957e-19)
(-0.00697961 1.18388 4.81233e-19)
(0.00129321 0.712021 0)
(0.493702 0.0799273 3.26874e-18)
(0.273734 0.035125 -3.1347e-18)
(0.114569 0.885141 0)
(0.0806946 0.470779 -8.07294e-19)
(0.0880918 0.938168 -2.72528e-18)
(0.0467682 0.560026 2.66572e-18)
(0.415815 -0.00362848 0)
(0.694492 -0.00942805 0)
(0.685601 0.0069062 0)
(0.416879 -0.0022182 0)
(-0.000199809 1.20933 0)
(0.0132184 1.20036 0)
(0.00161306 0.733229 0)
(0.374892 0.219022 2.92671e-18)
(0.414621 0.230225 -3.202e-18)
(0.22369 0.135062 0)
(0.814566 0.0558788 3.9807e-19)
(0.535778 0.0354038 0)
(0.749552 0.0198419 0)
(0.460089 0.00363117 0)
(0.491391 0.0544812 0)
(0.491287 0.0342812 -1.53575e-17)
(0.271668 0.0221572 5.57858e-18)
(-0.0343849 2.40136 5.57906e-18)
(-0.0214609 1.43861 4.46478e-19)
(0.020306 3.9411 -1.70856e-19)
(0.126133 3.80653 7.46264e-18)
(-0.141321 2.77455 3.30535e-19)
(-0.0946662 1.99775 -1.34337e-21)
(-0.258676 3.09541 -6.94298e-18)
(0.0493055 3.53316 5.20163e-18)
(0.0129487 3.73825 -7.84578e-18)
(0.701341 -0.0030012 0)
(0.701675 0.00882584 0)
(0.41904 0.00284985 0)
(0.695749 2.23768e-05 0)
(0.686113 0.00477349 0)
(0.413778 0.0012666 0)
(0.686238 -0.00459467 0)
(0.675035 0.00193696 0)
(0.412949 -0.00170111 0)
(0.152616 0.225179 -1.43511e-18)
(0.0471133 0.0827938 0)
(0.135809 0.254185 3.60894e-19)
(0.269164 0.480542 2.94552e-18)
(0.26328 0.413526 -1.68046e-18)
(0.129709 0.21413 3.16253e-18)
(0.250842 0.654545 6.3612e-18)
(0.131433 0.353803 1.14856e-18)
(0.45618 0.15891 4.18444e-18)
(0.432663 0.18153 1.07855e-18)
(0.25473 0.0960794 1.98862e-18)
(0.847084 0.349243 -2.79876e-18)
(0.547101 0.158959 -2.98539e-18)
(0.00155232 1.18548 1.54194e-18)
(-0.00170717 0.716568 0)
(0.736083 0.0144861 0)
(0.707876 0.00463909 0)
(0.444461 0.00623968 0)
(0.0148809 4.01299 0)
(0.0422375 2.26597 1.07813e-17)
(0.0570804 2.29712 0)
(0.0228717 1.33641 -1.00051e-17)
(-0.0179652 4.07912 2.1464e-18)
(-0.0306118 4.10392 0)
(0.183546 0.272041 2.77968e-19)
(0.227558 0.496112 -7.87459e-19)
(0.0486528 0.141185 5.41062e-19)
(-0.0631974 2.24916 -4.95903e-18)
(-0.0728669 2.05133 0)
(-0.0398733 1.25457 0)
(-0.00721143 1.16035 -7.81484e-20)
(0.0129724 1.19212 -1.35555e-18)
(0.00356301 0.727183 -5.26064e-20)
(0.150051 0.834535 2.71564e-18)
(0.0939821 0.44456 -1.76442e-18)
(0.00372252 1.08663 2.31559e-18)
(0.0463027 1.02273 -2.56597e-18)
(0.0192173 0.623628 1.05811e-19)
(-0.0262729 4.05073 -1.26729e-17)
(-0.0391 4.13583 1.22206e-17)
(-0.0378415 2.55482 6.89771e-18)
(-0.0740571 2.45414 -6.06216e-18)
(-0.0179933 1.55283 -6.65273e-18)
(-0.0426801 4.12811 -1.60143e-17)
(-0.0448057 4.12556 1.39437e-17)
(0.267251 0.598976 0)
(0.269042 0.542691 -6.32598e-18)
(0.138183 0.289901 2.68415e-18)
(0.24136 0.702883 3.53071e-18)
(0.126923 0.387787 -5.32763e-18)
(0.850922 0.123742 1.53302e-18)
(0.866655 0.232779 0)
(0.564113 0.0979023 -1.53707e-18)
(-0.00912041 1.18558 -1.79786e-20)
(-0.00932936 1.18183 0)
(-0.00109951 0.717902 0)
(0.177664 0.797373 -9.79188e-19)
(0.21495 0.758223 -2.13659e-18)
(0.111727 0.419503 3.91731e-18)
(1.05368 -0.1274 0)
(1.10539 -0.141461 4.73371e-18)
(0.0048265 1.97677 0)
(-0.0134606 1.93651 0)
(1.05275 0.0858983 2.28244e-20)
(1.04979 0.143701 9.79937e-18)
(0.0167651 1.93527 -1.07476e-19)
(0.00536509 1.79191 0)
(-0.0998417 3.72375 3.5693e-18)
(-0.0838445 3.21382 0)
(1.20306 0.646265 -1.41839e-18)
(1.08864 0.0186534 -3.71544e-20)
(1.08608 0.00567392 0)
(1.0415 -0.00960783 -2.34413e-21)
(0.0328725 1.95124 0)
(0.0455343 1.81308 0)
(-0.00706661 1.89329 0)
(0.0102185 1.88912 1.08498e-18)
(0.00806534 1.90721 6.76604e-19)
(1.05421 0.0034568 -3.10026e-20)
(1.10947 0.00743929 0)
(1.12454 0.0187589 0)
(0.00205161 2.00392 0)
(-0.00391751 1.86319 0)
(-0.00695388 1.91686 0)
(0.400427 2.09293 1.34692e-18)
(1.09696 -0.0892798 0)
(1.02982 -0.0601295 0)
(1.06737 -0.0274076 6.04842e-18)
(1.0961 -0.108526 -7.16368e-18)
(1.04448 -0.0561046 0)
(-0.00391213 2.00535 0)
(-0.000447635 2.00041 0)
(0.00170932 2.00774 0)
(-0.00628539 1.96341 0)
(-0.00555912 1.90973 0)
(-0.00970711 1.84172 0)
(1.08513 0.00581006 0)
(1.07692 -0.0048363 -3.15741e-20)
(1.00585 1.6611 -2.00379e-18)
(1.06391 0.00317566 -6.02779e-18)
(1.07638 0.0853943 7.27017e-18)
(1.03664 0.0387965 0)
(1.12626 0.0337452 5.61486e-18)
(1.11973 0.111328 -7.13815e-18)
(1.04974 0.0805738 0)
(-0.00751263 1.92775 0)
(0.00852558 1.9023 3.32414e-19)
(-0.00815173 1.77554 -2.42964e-19)
(1.25513 0.196511 8.05347e-18)
(1.176 0.0490307 0)
(-0.263237 3.97958 -4.4725e-18)
(-0.17057 2.53106 -2.97466e-19)
(-0.314379 4.02814 5.17084e-18)
(-0.13269 3.88009 -2.20794e-18)
(-0.0858772 3.44187 0)
(-0.0358455 3.79889 1.70764e-18)
(-0.199627 4.16434 4.62386e-18)
(-0.117011 4.03377 -3.19627e-18)
(-0.114555 4.05932 0)
(0.683407 0.316868 0)
(0.631138 0.359913 0)
(1.1834 0.795724 4.42345e-18)
(1.16071 0.856346 -5.69986e-18)
(1.24049 0.624598 0)
(1.22822 0.475988 0)
(1.12732 0.0141249 -1.09617e-17)
(1.05556 0.0018329 1.35382e-17)
(1.128 -0.00533026 0)
(1.05565 -0.00355221 0)
(1.1185 0.0146863 0)
(1.14641 0.0124494 0)
(1.09856 0.0225582 0)
(1.1502 0.0279682 0)
(1.13316 0.0561174 0)
(1.10709 0.0533879 0)
(0.0198662 1.99764 0)
(8.98678e-05 1.88494 0)
(0.0453724 2.0331 0)
(0.064044 1.90665 0)
(0.0633805 1.85614 0)
(0.0577963 1.67084 -1.7364e-18)
(0.0289685 1.88477 0)
(0.0264055 1.78584 1.27324e-18)
(0.00239678 1.83786 -1.74093e-18)
(-0.0048547 1.95458 0)
(-0.00696795 1.83585 0)
(-0.00661269 1.95649 0)
(0.00169017 1.8148 0)
(-0.00398136 2.01506 -9.0502e-19)
(0.00757541 1.95613 9.46306e-19)
(0.00443071 1.95134 1.18291e-18)
(0.00498834 1.83169 0)
(-0.00731966 1.96297 -1.65983e-18)
(-0.00104226 1.86159 -9.93262e-19)
(0.00436428 2.01455 6.79127e-19)
(0.0020116 1.98961 -1.27095e-18)
(0.00464986 1.98806 -1.4755e-18)
(1.10303 0.00543869 9.79042e-18)
(1.01864 0.00188275 -1.24e-17)
(1.0943 0.0179536 -9.79794e-18)
(0.995254 0.0101409 1.21285e-17)
(1.14652 0.00782981 0)
(1.07012 -0.00187083 0)
(1.15777 0.0217951 0)
(1.1539 0.0110566 0)
(1.07967 0.00952553 0)
(1.20198 0.0559218 0)
(1.17472 0.0273614 0)
(1.10391 0.0216303 0)
(0.000887568 2.0144 -3.41587e-20)
(0.00148662 2.01079 0)
(0.00456686 2.01095 0)
(-0.00359033 1.9369 3.15237e-19)
(-0.00585777 1.79735 -1.34538e-20)
(-0.00735063 2.00594 3.64411e-19)
(-0.0152805 2.00638 -3.56314e-19)
(-0.00763168 2.00283 0)
(-0.00419034 2.00575 0)
(-0.00448743 2.00563 0)
(-0.010031 1.97043 0)
(-0.00389931 1.82458 0)
(0.465059 2.16378 -2.96113e-18)
(0.596988 2.03934 -9.71428e-19)
(0.276279 1.42181 -6.93583e-19)
(0.174899 1.52023 2.16367e-18)
(0.37325 1.88922 9.05705e-19)
(1.12521 0.00452029 0)
(1.10046 -0.015329 0)
(1.03697 -0.00288604 0)
(1.12491 -0.0099849 0)
(1.10435 -0.0382962 0)
(1.11941 -0.0575747 0)
(1.12818 -0.0305582 0)
(1.14669 -0.00570634 0)
(1.11636 -0.00400974 1.02747e-17)
(1.03491 0.0051149 -1.31476e-17)
(1.11597 0.000311372 -1.03483e-17)
(1.03861 -0.00131212 1.27937e-17)
(0.967594 1.83133 0)
(0.933345 1.81598 -2.37285e-18)
(0.997646 1.66311 -2.3442e-18)
(1.05684 1.3987 3.09324e-18)
(0.619601 0.953698 5.64526e-18)
(0.825659 0.0922287 3.80611e-18)
(1.2298 0.0940923 0)
(1.27463 0.184877 -6.49617e-18)
(1.18332 0.0870076 -2.81093e-19)
(1.09817 0.123461 0)
(-0.359941 3.438 3.79921e-18)
(-0.32382 3.49721 -4.74377e-18)
(-0.0227271 1.78108 2.90366e-18)
(0.309451 0.677508 -1.47528e-18)
(-0.10019 3.44049 1.27632e-18)
(-0.0954888 3.56768 0)
(-0.0367538 3.13792 -1.80626e-18)
(-0.277855 3.56987 -8.4253e-18)
(-0.242282 3.56712 0)
(-0.0350338 3.95206 3.39548e-19)
(-0.0457214 4.23673 -3.74142e-18)
(-0.0537834 4.02755 5.39545e-18)
(-0.110763 4.18112 0)
(-0.0525975 4.10569 0)
(0.511446 1.05879 0)
(0.241274 0.848685 -3.05166e-18)
(1.11568 1.09656 2.04478e-18)
(1.02456 1.37045 0)
(0.889227 1.28024 -1.70887e-18)
(1.11669 1.05631 5.44516e-20)
(0.675318 0.307085 -3.79234e-18)
(0.754668 0.333668 -2.2104e-20)
(0.676076 0.274384 2.3176e-18)
(0.66347 0.392368 1.46732e-19)
(0.590068 0.349408 -5.702e-18)
(0.720682 0.358515 0)
(0.766356 0.438538 3.85333e-18)
(0.789714 0.409572 0)
(0.695905 0.385491 0)
(0.613204 0.31952 0)
(0.802109 0.670899 3.29029e-18)
(1.29761 0.280425 -6.56318e-18)
(1.28507 0.420911 0)
(1.25363 0.300622 0)
(0.760305 0.217808 3.67617e-18)
(0.827552 0.549139 -2.38232e-18)
(0.79633 0.51451 4.46402e-18)
(1.00299 0.416539 -5.71686e-18)
(1.09679 0.00647014 7.0492e-18)
(1.09996 0.0121055 -7.25812e-18)
(1.03046 0.0103351 0)
(1.12268 0.00629466 0)
(1.10566 -0.00562404 -6.82691e-18)
(1.03983 -0.00250981 6.72961e-18)
(1.15396 0.00601945 0)
(1.1506 0.000902334 0)
(1.15403 0.00603523 0)
(1.14604 0.00714263 0)
(1.15143 -3.74075e-05 0)
(1.14559 0.00167978 0)
(0.004956 1.95274 0)
(-0.00339612 1.83051 0)
(0.0789559 2.09783 -1.71817e-18)
(0.333085 2.14331 -8.01371e-19)
(0.130773 2.06729 -1.78675e-18)
(0.20831 2.00269 2.84315e-18)
(0.130764 2.11249 0)
(0.157389 2.03204 -2.04089e-18)
(0.117967 2.05374 0)
(0.337732 1.9187 -1.30569e-18)
(0.266809 1.8356 3.09402e-18)
(0.197682 2.0451 1.79412e-18)
(0.296213 2.13994 -9.26619e-19)
(0.217053 2.12069 7.46444e-19)
(0.357573 2.08618 -2.71228e-18)
(0.27764 2.00181 0)
(0.31234 1.99665 2.01493e-18)
(0.0127029 1.99816 -6.84187e-19)
(0.00865868 1.89983 0)
(0.0430817 1.96674 1.89868e-18)
(0.0108673 1.98672 0)
(0.0189902 1.87142 -1.42882e-18)
(0.0128962 1.77178 0)
(0.00405155 2.03276 -1.15787e-18)
(0.000421193 2.02164 0)
(0.00662436 2.02071 0)
(0.00374195 2.03108 1.29769e-18)
(0.00938016 1.9411 5.84052e-20)
(-0.00235969 1.92406 2.16779e-18)
(-0.00505629 1.80212 1.49509e-20)
(0.0125507 1.999 6.68497e-19)
(-0.0033067 2.0039 3.8587e-19)
(-0.00325283 1.91511 0)
(-0.0064939 1.8001 0)
(0.000646859 2.00758 1.82735e-18)
(-0.00174739 2.01957 1.69654e-18)
(-0.00105581 2.02088 -2.1989e-18)
(0.00517593 2.01815 0)
(-0.00774754 2.02163 -1.19423e-18)
(-0.00547739 2.01613 5.28043e-19)
(-0.00183694 2.01582 -1.60351e-19)
(0.0216899 2.01249 -7.64535e-19)
(0.00688457 1.99103 -2.66451e-19)
(-0.000187536 1.98764 1.18965e-18)
(1.09073 0.00950645 -6.85163e-18)
(1.08673 0.00417028 6.64994e-18)
(1.01452 0.0114519 0)
(1.11484 0.036564 9.08181e-18)
(1.05462 0.0354082 -9.75818e-18)
(0.979954 0.0243428 1.06212e-17)
(1.1203 0.0463671 -1.21653e-18)
(1.13131 -0.000480054 0)
(1.12376 0.000314902 6.50764e-18)
(1.06199 -0.00160379 -6.45253e-18)
(1.15093 0.0232255 -3.88013e-19)
(1.14641 0.0182594 3.24208e-18)
(1.14518 0.0439813 0)
(1.13813 0.0408044 -1.13251e-18)
(1.15634 0.0344555 0)
(1.14751 0.0224759 0)
(1.15849 0.0109491 0)
(1.1457 0.00791047 0)
(1.15441 0.0272514 2.38669e-18)
(1.15288 0.00925265 -5.22261e-18)
(1.12448 0.0154608 -2.56416e-18)
(1.13227 0.0219097 -2.74165e-18)
(1.1583 0.05678 5.51459e-18)
(1.17736 0.0432604 0)
(1.18256 0.0651558 0)
(-0.00929326 2.03031 -4.65425e-19)
(0.00305636 2.01644 -4.05082e-20)
(-0.00904466 2.01669 0)
(-0.00759079 2.00424 4.63042e-19)
(-0.00744653 2.00797 7.37629e-20)
(-0.00680878 2.00012 -7.89775e-20)
(-0.0112418 1.92566 8.85527e-19)
(-0.00197297 1.99911 -5.47514e-20)
(0.00819358 1.98814 2.66512e-19)
(-0.00421519 1.91325 -4.58907e-19)
(-0.00554365 1.81138 5.50764e-19)
(9.2244e-05 2.00783 1.35217e-20)
(-0.00170088 2.00135 5.34803e-19)
(0.470409 2.13035 1.71425e-18)
(0.41335 2.05419 2.84587e-18)
(0.847705 1.97748 2.30668e-18)
(0.669265 2.09661 9.34611e-19)
(0.791753 1.94452 0)
(0.323357 1.51389 8.2681e-19)
(0.312003 1.29722 9.9201e-19)
(0.205016 1.5922 4.32108e-20)
(0.250164 1.73768 -3.66675e-18)
(0.30368 1.70315 2.73903e-18)
(0.250672 1.54254 0)
(0.198391 1.4018 -1.67367e-18)
(0.105361 1.74252 4.2419e-18)
(0.148342 1.64655 -7.934e-20)
(0.105021 1.54262 -5.33248e-18)
(0.514685 1.14455 4.16681e-18)
(0.440585 1.25909 0)
(1.13928 0.00769288 2.33489e-19)
(1.1517 -0.00301231 -1.95171e-19)
(1.14974 -0.0016478 -3.35891e-18)
(1.1437 -0.000540692 3.40574e-18)
(1.13677 0.00453327 0)
(0.811905 1.85729 0)
(0.722305 1.79338 0)
(0.832221 1.58533 0)
(0.665794 1.71075 0)
(0.694224 1.05405 6.12767e-20)
(0.536078 0.785049 0)
(0.838974 1.86217 4.36224e-20)
(0.645863 1.76804 0)
(0.731505 1.70231 -3.89872e-18)
(0.781042 1.69754 2.49107e-18)
(0.896756 0.135384 0)
(0.810385 0.132563 9.89508e-19)
(1.00718 0.106425 6.32483e-18)
(0.905099 0.0913065 -2.23099e-18)
(0.797292 0.0559184 -7.00053e-18)
(1.15961 0.211094 -8.25337e-18)
(1.03513 0.297872 -3.39857e-20)
(0.995103 0.273808 5.88079e-18)
(1.06177 0.219507 5.43535e-18)
(1.04053 0.143908 -8.88983e-18)
(1.01282 0.168329 1.07991e-18)
(0.993604 0.236017 -2.44637e-18)
(0.996056 0.219215 0)
(1.08454 0.154452 4.55028e-18)
(1.10038 0.17604 0)
(1.09995 0.209676 0)
(1.20568 0.111529 2.60871e-18)
(1.12883 0.173813 -3.23359e-20)
(1.16006 0.190141 -1.42703e-18)
(1.20214 0.182924 0)
(1.13496 0.0366069 5.00413e-18)
(1.15015 0.0384865 6.34622e-18)
(1.15906 0.0403713 -4.92202e-18)
(1.15058 0.0558434 -4.38311e-18)
(1.12835 0.043844 -6.35699e-18)
(1.086 0.0923086 0)
(1.09819 0.0513705 0)
(1.03697 0.0529504 -3.76314e-18)
(0.955669 0.0355356 1.39288e-18)
(1.13686 0.0745898 5.97372e-18)
(1.1581 0.0957171 -7.44453e-18)
(1.13735 0.117499 6.50485e-18)
(1.11824 0.118148 0)
(1.15333 0.0760831 0)
(1.14486 0.0691404 -3.04644e-18)
(1.14364 0.0691177 -4.92603e-18)
(0.644439 1.97663 2.06014e-18)
(0.751764 2.15026 -1.98468e-18)
(0.873577 2.04449 -2.3946e-18)
(0.68647 2.37916 5.21274e-19)
(0.687979 1.19091 -5.18275e-18)
(0.596034 1.10457 1.45514e-18)
(0.437919 0.667038 6.10874e-21)
(0.712409 1.90739 -2.20512e-18)
(0.810597 1.81598 3.59175e-18)
(0.563992 2.24786 7.42899e-19)
(0.562706 1.54339 -7.4605e-19)
(0.504427 1.46414 0)
(0.0747327 1.10681 -3.68071e-19)
(-0.114347 1.90325 2.00439e-18)
(0.619438 0.370764 2.60602e-18)
(0.473946 0.548642 2.7277e-18)
(0.642549 0.367667 3.16899e-18)
(0.691643 0.392549 -5.46926e-18)
(0.682586 0.356688 4.39796e-18)
(0.687681 0.329677 -1.46821e-18)
(0.60152 0.32681 3.40915e-18)
(0.805487 0.261173 -2.14735e-18)
(0.767404 0.292011 0)
(0.70843 0.244762 -1.57512e-21)
(0.7451 0.487433 2.12692e-18)
(0.745008 0.45116 -7.45596e-18)
(0.70438 0.414478 -3.482e-20)
(0.706598 0.422517 0)
(0.429805 0.881439 2.67263e-18)
(0.766317 0.929065 3.69907e-18)
(0.632217 1.05483 -4.25404e-18)
(0.831504 0.96506 -1.54187e-18)
(1.01678 1.02915 -5.81019e-19)
(0.94912 1.06248 5.93499e-19)
(0.889399 0.703243 -5.35057e-18)
(0.901968 0.813613 1.46221e-18)
(1.02221 0.84221 0)
(1.05599 0.777967 -2.12578e-18)
(1.06641 0.319652 1.89381e-18)
(1.22295 0.303118 3.57079e-18)
(1.16642 0.264922 3.34648e-18)
(1.05827 0.396326 -3.65795e-18)
(1.16912 0.425015 0)
(1.19235 0.406251 0)
(0.958034 0.380505 -4.19346e-20)
(0.899766 0.295194 0)
(0.935248 0.291575 2.5944e-18)
(0.987294 0.296973 -5.39589e-20)
(0.988761 0.466289 1.58418e-17)
(0.914145 0.524697 4.01252e-18)
(0.918771 0.470972 -3.84456e-18)
(0.882811 0.444753 4.08128e-18)
(0.84106 0.459499 2.22157e-18)
(0.821998 0.424774 -2.14865e-18)
(1.1368 0.00874891 5.71845e-18)
(1.14324 -0.01086 0)
(1.13988 -4.80808e-05 3.85833e-18)
(1.13316 0.00899599 -8.57935e-18)
(1.1548 -0.00228495 4.0278e-18)
(1.15292 0.0109833 -8.45021e-18)
(1.15367 0.00397893 0)
(1.14112 0.00244762 -1.76463e-18)
(1.15024 0.0133382 4.50171e-18)
(1.14461 0.00677679 -2.3231e-18)
(1.13687 0.00139937 1.66522e-18)
(-0.00567857 1.92006 0)
(0.0177031 2.01042 0)
(-0.0034539 1.91763 0)
(-0.00186079 1.80538 0)
(0.0317987 2.02755 3.01557e-18)
(0.0341778 2.03118 -9.04859e-19)
(0.0793207 2.03959 -9.24617e-19)
(0.0668434 2.05822 9.45666e-19)
(0.00388768 2.02474 -1.96552e-18)
(0.0126583 2.02082 1.49278e-18)
(0.0237761 2.03457 -5.44171e-20)
(0.0174114 2.02627 -1.80366e-18)
(0.0175643 2.00524 -2.59061e-19)
(0.0158367 2.01642 -2.33915e-19)
(0.0538008 1.97987 -2.02357e-18)
(0.0585996 1.95285 0)
(0.0866812 1.97983 9.88856e-19)
(0.090351 2.03121 8.33563e-19)
(0.204918 1.94083 -7.88403e-19)
(0.159946 1.85524 0)
(0.197677 1.80363 -3.53322e-18)
(0.234053 1.86563 2.51882e-18)
(0.169722 1.96369 -2.09414e-18)
(0.121908 1.93922 1.14845e-18)
(0.0945696 1.90078 0)
(0.00152094 2.00242 -1.96024e-18)
(-0.00102082 1.99798 -2.31232e-18)
(-0.00620179 2.00363 0)
(0.000844931 1.9923 -1.93422e-20)
(0.00364661 2.00886 9.79956e-19)
(-0.00421178 2.02248 1.61604e-19)
(0.00836453 2.00459 -2.50546e-18)
(-0.00774451 2.02986 7.21027e-19)
(-0.015297 2.02153 8.82954e-19)
(0.0025746 2.04181 0)
(0.00136588 2.03456 0)
(-0.0134812 1.92164 7.17455e-19)
(0.00234186 2.01823 -2.18346e-19)
(0.00265471 2.01928 0)
(-0.00139254 1.90678 5.87357e-19)
(-0.000417798 1.78962 -1.12643e-18)
(1.13004 0.0292111 0)
(1.14895 0.0219156 -6.03792e-19)
(1.14502 0.00494245 -4.27007e-18)
(1.12904 0.00563179 0)
(1.14752 0.00811534 0)
(1.15149 -0.00631552 -2.69635e-20)
(1.14023 -0.00527331 7.01851e-18)
(1.14731 0.00371646 8.05019e-18)
(1.14822 0.0116142 0)
(1.14096 0.0129775 0)
(1.15043 0.00265743 4.0775e-18)
(1.15017 0.0124955 0)
(1.13883 0.0186758 0)
(0.0067804 2.01492 0)
(-0.00125801 1.99336 3.44603e-20)
(-0.00390692 2.00473 2.52049e-19)
(-0.00165928 2.02214 0)
(0.014516 1.99888 3.93476e-19)
(0.00588534 2.00942 -1.81235e-19)
(-0.00378919 2.02152 0)
(0.504256 1.87658 0)
(0.421931 1.96933 -4.87116e-18)
(0.417679 1.91248 0)
(0.570733 2.01591 5.7592e-18)
(0.63709 2.09588 0)
(0.586586 2.08201 -2.47552e-18)
(0.745097 1.51241 -9.70676e-20)
(0.592985 1.25533 -4.93939e-18)
(0.507996 0.991264 5.80955e-18)
(0.504739 1.36388 1.15353e-18)
(0.594063 1.57142 0)
(0.644592 1.5472 0)
(0.542079 1.2914 0)
(0.444806 1.12427 -4.00398e-18)
(0.49609 1.79077 -3.10892e-18)
(0.572787 1.67688 -7.13341e-19)
(0.60264 1.74026 5.95576e-19)
(0.373787 1.4242 0)
(0.431408 1.39739 0)
(0.361862 1.24899 -1.1593e-18)
(0.513096 1.62307 0)
(0.498506 1.71861 0)
(0.155603 1.80944 -4.69337e-18)
(0.232818 1.36061 -3.01376e-19)
(0.487562 1.93364 0)
(0.352166 2.01247 7.16343e-18)
(0.640294 1.15121 -1.49335e-18)
(0.789541 1.40687 0)
(0.793779 1.27343 2.61819e-18)
(0.449127 1.51925 0)
(0.382638 1.37433 0)
(0.910232 1.57064 -2.15132e-18)
(0.950348 1.92286 -1.82854e-18)
(0.895297 1.98824 3.39266e-18)
(0.90021 1.88943 -9.78465e-19)
(0.832149 1.3703 0)
(0.866774 1.51288 1.3034e-18)
(0.616666 0.968181 -1.73198e-18)
(0.501894 0.809492 -3.67241e-20)
(0.761592 1.86615 0)
(0.69775 1.93671 -1.80695e-18)
(0.700585 1.87498 0)
(0.928225 0.216811 0)
(0.851238 0.175507 0)
(0.745369 0.169452 0)
(0.909468 0.250154 -4.03191e-18)
(0.828038 0.222439 2.23016e-18)
(0.982493 0.0373579 -2.79512e-18)
(1.03323 0.0748242 0)
(1.01081 0.079047 1.16108e-18)
(0.891161 0.0539917 4.57967e-18)
(0.820471 0.0346979 -2.89428e-18)
(0.416027 2.5204 1.2391e-18)
(0.451282 2.69214 0)
(0.260059 2.61752 2.20299e-18)
(0.0746912 3.27868 -1.93826e-18)
(0.0570255 3.25017 -1.9625e-18)
(-0.131742 1.64665 3.66154e-18)
(-0.0742747 1.96072 0)
(0.0318933 0.768768 -6.61915e-19)
(0.163907 0.649758 4.88798e-18)
(0.51598 0.343873 -9.87924e-19)
(0.663331 0.363371 1.00542e-18)
(0.683672 0.459058 2.57917e-18)
(0.696912 0.500146 0)
(0.506813 0.451109 0)
(0.622683 0.392887 0)
(1.02966 0.674356 1.64336e-18)
(0.95658 0.561271 -3.88457e-18)
(0.955503 0.630862 3.53798e-18)
(1.01689 0.539948 -3.19206e-18)
(1.16361 0.532754 0)
(1.16295 0.624658 -1.09023e-18)
(0.890968 0.39765 -5.28486e-18)
(0.915974 0.37728 -6.92346e-18)
(0.841286 0.401018 4.02996e-18)
(0.833155 0.375896 -3.82606e-18)
(0.896827 0.333389 -3.22755e-18)
(0.855219 0.33697 3.9401e-18)
(1.15647 0.000191224 -4.25908e-18)
(1.15748 0.00333359 8.75245e-18)
(1.14483 0.0124531 5.63217e-18)
(1.14596 0.0127532 -6.61125e-18)
(1.1205 0.0181501 0)
(1.12091 0.00459498 -1.09857e-17)
(0.0336298 2.01214 3.96363e-19)
(0.0142921 2.01219 0)
(0.0648702 2.01827 3.32118e-18)
(0.0694177 2.02645 -2.90761e-18)
(0.0456343 2.01939 1.70652e-18)
(0.0346062 2.01271 0)
(0.0186003 2.0103 0)
(0.00851656 2.02269 -2.22258e-19)
(0.00206019 2.01021 2.05813e-19)
(0.0138312 1.99866 3.36011e-20)
(0.00687013 2.00691 -3.77991e-19)
(0.00860569 2.00102 2.17409e-19)
(0.689459 1.85698 -5.4123e-18)
(0.65577 1.84602 5.75531e-18)
(0.606464 1.96502 -3.28816e-18)
(0.612132 1.8955 2.55837e-19)
(0.798293 1.912 0)
(0.733995 2.02876 -2.94774e-18)
(0.776387 1.99535 2.88102e-18)
(0.660436 1.989 3.26251e-18)
(0.725683 1.90777 0)
(0.735076 1.89112 0)
(0.478852 1.75746 4.66535e-18)
(0.431676 1.63282 6.16142e-18)
(0.476548 1.67668 -4.24364e-18)
(0.376821 1.68475 -7.10881e-19)
(0.378591 1.78616 1.47829e-18)
(0.329094 1.74043 -3.57265e-18)
(0.614872 1.12242 -3.28717e-18)
(0.609678 1.00598 0)
(0.504685 0.881992 -3.4646e-18)
(0.808989 1.43418 0)
(0.802126 1.45837 0)
(-0.0447433 3.03032 -2.36418e-18)
(0.350984 2.94326 -1.69832e-18)
(0.151183 3.18417 2.28254e-18)
(-0.143769 2.03812 0)
(-0.178673 1.57056 -1.56369e-18)
(-0.162705 1.96071 -2.47996e-18)
(-0.169836 2.99594 0)
(-0.168809 3.30002 1.27518e-18)
(-0.226027 3.30835 0)
(0.536711 0.681887 -5.60983e-18)
(0.685549 0.774223 8.12528e-18)
(0.743696 0.673457 -8.06873e-18)
(0.579035 0.555501 -6.55104e-19)
(0.67367 0.56291 -2.7778e-18)
(0.391046 2.8827 1.38494e-18)
(0.582182 2.63832 -2.74273e-18)
(0.139609 2.9014 4.76802e-18)
(0.108965 2.65115 -3.33166e-18)
(0.680067 2.33151 -4.28426e-18)
(0.62212 2.56429 -4.62011e-19)
(0.778153 2.36606 3.19537e-18)
(0.36188 2.63507 2.53272e-19)
(0.446469 2.42153 1.81913e-18)
)
;

boundaryField
{
    wall-4
    {
        type            noSlip;
    }
    velocity-inlet-5
    {
        type            fixedValue;
        value           uniform (1 0 0);
    }
    velocity-inlet-6
    {
        type            fixedValue;
        value           uniform (0 3 0);
    }
    pressure-outlet-7
    {
        type            zeroGradient;
    }
    wall-8
    {
        type            noSlip;
    }
    frontAndBackPlanes
    {
        type            empty;
    }
}


// ************************************************************************* //
