# vtk DataFile Version 2.0
sampleSurface
ASCII
DATASET POLYDATA
POINTS 502 double
-0.0206 0 -0.0005
-0.0190172 0 -0.0005
-0.0190172 0 0.0005
-0.0206 0 0.0005
-0.0174976 0 -0.0005
-0.0174976 0 0.0005
-0.0160387 0 -0.0005
-0.0160387 0 0.0005
-0.0146381 0 -0.0005
-0.0146381 0 0.0005
-0.0132934 0 -0.0005
-0.0132934 0 0.0005
-0.0120025 0 -0.0005
-0.0120025 0 0.0005
-0.0107632 0 -0.0005
-0.0107632 0 0.0005
-0.00957337 0 -0.0005
-0.00957337 0 0.0005
-0.00843108 0 -0.0005
-0.00843108 0 0.0005
-0.00733443 0 -0.0005
-0.00733443 0 0.0005
-0.0062816 0 -0.0005
-0.0062816 0 0.0005
-0.00527083 0 -0.0005
-0.00527083 0 0.0005
-0.00430044 0 -0.0005
-0.00430044 0 0.0005
-0.00336883 0 -0.0005
-0.00336883 0 0.0005
-0.00247443 0 -0.0005
-0.00247443 0 0.0005
-0.00161577 0 -0.0005
-0.00161577 0 0.0005
-0.000791418 0 -0.0005
-0.000791418 0 0.0005
0 0 -0.0005
0 0 0.0005
0 -0.0254 -0.0005
0 -0.0254 0.0005
0 -0.0242711 0.0005
0 -0.0242711 -0.0005
0 -0.0231422 0.0005
0 -0.0231422 -0.0005
0 -0.0220133 0.0005
0 -0.0220133 -0.0005
0 -0.0208844 0.0005
0 -0.0208844 -0.0005
0 -0.0197556 0.0005
0 -0.0197556 -0.0005
0 -0.0186267 0.0005
0 -0.0186267 -0.0005
0 -0.0174978 0.0005
0 -0.0174978 -0.0005
0 -0.0163689 0.0005
0 -0.0163689 -0.0005
0 -0.01524 0.0005
0 -0.01524 -0.0005
0 -0.0141111 0.0005
0 -0.0141111 -0.0005
0 -0.0129822 0.0005
0 -0.0129822 -0.0005
0 -0.0118533 0.0005
0 -0.0118533 -0.0005
0 -0.0107244 0.0005
0 -0.0107244 -0.0005
0 -0.00959556 0.0005
0 -0.00959556 -0.0005
0 -0.00846667 0.0005
0 -0.00846667 -0.0005
0 -0.00726604 0.0005
0 -0.00726604 -0.0005
0 -0.00618989 0.0005
0 -0.00618989 -0.0005
0 -0.00522531 0.0005
0 -0.00522531 -0.0005
0 -0.00436073 0.0005
0 -0.00436073 -0.0005
0 -0.00358579 0.0005
0 -0.00358579 -0.0005
0 -0.00289118 0.0005
0 -0.00289118 -0.0005
0 -0.0022686 0.0005
0 -0.0022686 -0.0005
0 -0.00171055 0.0005
0 -0.00171055 -0.0005
0 -0.00121037 0.0005
0 -0.00121037 -0.0005
0 -0.000762037 0.0005
0 -0.000762037 -0.0005
0 -0.000360188 0.0005
0 -0.000360188 -0.0005
0.000528387 -0.0254 -0.0005
0.000528387 -0.0254 0.0005
0.00106088 -0.0254 -0.0005
0.00106088 -0.0254 0.0005
0.00159752 -0.0254 -0.0005
0.00159752 -0.0254 0.0005
0.00213833 -0.0254 -0.0005
0.00213833 -0.0254 0.0005
0.00268334 -0.0254 -0.0005
0.00268334 -0.0254 0.0005
0.00323259 -0.0254 -0.0005
0.00323259 -0.0254 0.0005
0.00378611 -0.0254 -0.0005
0.00378611 -0.0254 0.0005
0.00434393 -0.0254 -0.0005
0.00434393 -0.0254 0.0005
0.00490609 -0.0254 -0.0005
0.00490609 -0.0254 0.0005
0.00547262 -0.0254 -0.0005
0.00547262 -0.0254 0.0005
0.00604356 -0.0254 -0.0005
0.00604356 -0.0254 0.0005
0.00661893 -0.0254 -0.0005
0.00661893 -0.0254 0.0005
0.00719878 -0.0254 -0.0005
0.00719878 -0.0254 0.0005
0.00778313 -0.0254 -0.0005
0.00778313 -0.0254 0.0005
0.00837203 -0.0254 -0.0005
0.00837203 -0.0254 0.0005
0.00896551 -0.0254 -0.0005
0.00896551 -0.0254 0.0005
0.0095636 -0.0254 -0.0005
0.0095636 -0.0254 0.0005
0.0101663 -0.0254 -0.0005
0.0101663 -0.0254 0.0005
0.0107738 -0.0254 -0.0005
0.0107738 -0.0254 0.0005
0.0113859 -0.0254 -0.0005
0.0113859 -0.0254 0.0005
0.0120028 -0.0254 -0.0005
0.0120028 -0.0254 0.0005
0.0126245 -0.0254 -0.0005
0.0126245 -0.0254 0.0005
0.0132511 -0.0254 -0.0005
0.0132511 -0.0254 0.0005
0.0138825 -0.0254 -0.0005
0.0138825 -0.0254 0.0005
0.0145188 -0.0254 -0.0005
0.0145188 -0.0254 0.0005
0.0151601 -0.0254 -0.0005
0.0151601 -0.0254 0.0005
0.0158063 -0.0254 -0.0005
0.0158063 -0.0254 0.0005
0.0164576 -0.0254 -0.0005
0.0164576 -0.0254 0.0005
0.0171139 -0.0254 -0.0005
0.0171139 -0.0254 0.0005
0.0177754 -0.0254 -0.0005
0.0177754 -0.0254 0.0005
0.018442 -0.0254 -0.0005
0.018442 -0.0254 0.0005
0.0191137 -0.0254 -0.0005
0.0191137 -0.0254 0.0005
0.0197907 -0.0254 -0.0005
0.0197907 -0.0254 0.0005
0.020473 -0.0254 -0.0005
0.020473 -0.0254 0.0005
0.0211606 -0.0254 -0.0005
0.0211606 -0.0254 0.0005
0.0218535 -0.0254 -0.0005
0.0218535 -0.0254 0.0005
0.0225517 -0.0254 -0.0005
0.0225517 -0.0254 0.0005
0.0232555 -0.0254 -0.0005
0.0232555 -0.0254 0.0005
0.0239647 -0.0254 -0.0005
0.0239647 -0.0254 0.0005
0.0246794 -0.0254 -0.0005
0.0246794 -0.0254 0.0005
0.0253996 -0.0254 -0.0005
0.0253996 -0.0254 0.0005
0.0261255 -0.0254 -0.0005
0.0261255 -0.0254 0.0005
0.026857 -0.0254 -0.0005
0.026857 -0.0254 0.0005
0.0275942 -0.0254 -0.0005
0.0275942 -0.0254 0.0005
0.0283371 -0.0254 -0.0005
0.0283371 -0.0254 0.0005
0.0290858 -0.0254 -0.0005
0.0290858 -0.0254 0.0005
0.0298403 -0.0254 -0.0005
0.0298403 -0.0254 0.0005
0.0306007 -0.0254 -0.0005
0.0306007 -0.0254 0.0005
0.031367 -0.0254 -0.0005
0.031367 -0.0254 0.0005
0.0321393 -0.0254 -0.0005
0.0321393 -0.0254 0.0005
0.0329175 -0.0254 -0.0005
0.0329175 -0.0254 0.0005
0.0337019 -0.0254 -0.0005
0.0337019 -0.0254 0.0005
0.0344923 -0.0254 -0.0005
0.0344923 -0.0254 0.0005
0.0352888 -0.0254 -0.0005
0.0352888 -0.0254 0.0005
0.0360916 -0.0254 -0.0005
0.0360916 -0.0254 0.0005
0.0369006 -0.0254 -0.0005
0.0369006 -0.0254 0.0005
0.0377158 -0.0254 -0.0005
0.0377158 -0.0254 0.0005
0.0385375 -0.0254 -0.0005
0.0385375 -0.0254 0.0005
0.0393655 -0.0254 -0.0005
0.0393655 -0.0254 0.0005
0.0401999 -0.0254 -0.0005
0.0401999 -0.0254 0.0005
0.0410408 -0.0254 -0.0005
0.0410408 -0.0254 0.0005
0.0418883 -0.0254 -0.0005
0.0418883 -0.0254 0.0005
0.0427424 -0.0254 -0.0005
0.0427424 -0.0254 0.0005
0.0436031 -0.0254 -0.0005
0.0436031 -0.0254 0.0005
0.0444704 -0.0254 -0.0005
0.0444704 -0.0254 0.0005
0.0453446 -0.0254 -0.0005
0.0453446 -0.0254 0.0005
0.0462255 -0.0254 -0.0005
0.0462255 -0.0254 0.0005
0.0471133 -0.0254 -0.0005
0.0471133 -0.0254 0.0005
0.048008 -0.0254 -0.0005
0.048008 -0.0254 0.0005
0.0489096 -0.0254 -0.0005
0.0489096 -0.0254 0.0005
0.0498183 -0.0254 -0.0005
0.0498183 -0.0254 0.0005
0.050734 -0.0254 -0.0005
0.050734 -0.0254 0.0005
0.0516568 -0.0254 -0.0005
0.0516568 -0.0254 0.0005
0.0525868 -0.0254 -0.0005
0.0525868 -0.0254 0.0005
0.053524 -0.0254 -0.0005
0.053524 -0.0254 0.0005
0.0544686 -0.0254 -0.0005
0.0544686 -0.0254 0.0005
0.0554204 -0.0254 -0.0005
0.0554204 -0.0254 0.0005
0.0563797 -0.0254 -0.0005
0.0563797 -0.0254 0.0005
0.0573464 -0.0254 -0.0005
0.0573464 -0.0254 0.0005
0.0583206 -0.0254 -0.0005
0.0583206 -0.0254 0.0005
0.0593025 -0.0254 -0.0005
0.0593025 -0.0254 0.0005
0.0602919 -0.0254 -0.0005
0.0602919 -0.0254 0.0005
0.0612891 -0.0254 -0.0005
0.0612891 -0.0254 0.0005
0.0622939 -0.0254 -0.0005
0.0622939 -0.0254 0.0005
0.0633067 -0.0254 -0.0005
0.0633067 -0.0254 0.0005
0.0643272 -0.0254 -0.0005
0.0643272 -0.0254 0.0005
0.0653557 -0.0254 -0.0005
0.0653557 -0.0254 0.0005
0.0663923 -0.0254 -0.0005
0.0663923 -0.0254 0.0005
0.0674368 -0.0254 -0.0005
0.0674368 -0.0254 0.0005
0.0684895 -0.0254 -0.0005
0.0684895 -0.0254 0.0005
0.0695504 -0.0254 -0.0005
0.0695504 -0.0254 0.0005
0.0706195 -0.0254 -0.0005
0.0706195 -0.0254 0.0005
0.0716969 -0.0254 -0.0005
0.0716969 -0.0254 0.0005
0.0727828 -0.0254 -0.0005
0.0727828 -0.0254 0.0005
0.073877 -0.0254 -0.0005
0.073877 -0.0254 0.0005
0.0749798 -0.0254 -0.0005
0.0749798 -0.0254 0.0005
0.0760911 -0.0254 -0.0005
0.0760911 -0.0254 0.0005
0.0772111 -0.0254 -0.0005
0.0772111 -0.0254 0.0005
0.0783398 -0.0254 -0.0005
0.0783398 -0.0254 0.0005
0.0794772 -0.0254 -0.0005
0.0794772 -0.0254 0.0005
0.0806235 -0.0254 -0.0005
0.0806235 -0.0254 0.0005
0.0817787 -0.0254 -0.0005
0.0817787 -0.0254 0.0005
0.0829429 -0.0254 -0.0005
0.0829429 -0.0254 0.0005
0.0841162 -0.0254 -0.0005
0.0841162 -0.0254 0.0005
0.0852985 -0.0254 -0.0005
0.0852985 -0.0254 0.0005
0.0864901 -0.0254 -0.0005
0.0864901 -0.0254 0.0005
0.0876909 -0.0254 -0.0005
0.0876909 -0.0254 0.0005
0.0889011 -0.0254 -0.0005
0.0889011 -0.0254 0.0005
0.0901207 -0.0254 -0.0005
0.0901207 -0.0254 0.0005
0.0913497 -0.0254 -0.0005
0.0913497 -0.0254 0.0005
0.0925883 -0.0254 -0.0005
0.0925883 -0.0254 0.0005
0.0938366 -0.0254 -0.0005
0.0938366 -0.0254 0.0005
0.0950945 -0.0254 -0.0005
0.0950945 -0.0254 0.0005
0.0963622 -0.0254 -0.0005
0.0963622 -0.0254 0.0005
0.0976398 -0.0254 -0.0005
0.0976398 -0.0254 0.0005
0.0989273 -0.0254 -0.0005
0.0989273 -0.0254 0.0005
0.100225 -0.0254 -0.0005
0.100225 -0.0254 0.0005
0.101532 -0.0254 -0.0005
0.101532 -0.0254 0.0005
0.10285 -0.0254 -0.0005
0.10285 -0.0254 0.0005
0.104178 -0.0254 -0.0005
0.104178 -0.0254 0.0005
0.105517 -0.0254 -0.0005
0.105517 -0.0254 0.0005
0.106865 -0.0254 -0.0005
0.106865 -0.0254 0.0005
0.108225 -0.0254 -0.0005
0.108225 -0.0254 0.0005
0.109594 -0.0254 -0.0005
0.109594 -0.0254 0.0005
0.110975 -0.0254 -0.0005
0.110975 -0.0254 0.0005
0.112366 -0.0254 -0.0005
0.112366 -0.0254 0.0005
0.113768 -0.0254 -0.0005
0.113768 -0.0254 0.0005
0.115181 -0.0254 -0.0005
0.115181 -0.0254 0.0005
0.116605 -0.0254 -0.0005
0.116605 -0.0254 0.0005
0.11804 -0.0254 -0.0005
0.11804 -0.0254 0.0005
0.119486 -0.0254 -0.0005
0.119486 -0.0254 0.0005
0.120943 -0.0254 -0.0005
0.120943 -0.0254 0.0005
0.122412 -0.0254 -0.0005
0.122412 -0.0254 0.0005
0.123892 -0.0254 -0.0005
0.123892 -0.0254 0.0005
0.125384 -0.0254 -0.0005
0.125384 -0.0254 0.0005
0.126887 -0.0254 -0.0005
0.126887 -0.0254 0.0005
0.128402 -0.0254 -0.0005
0.128402 -0.0254 0.0005
0.129928 -0.0254 -0.0005
0.129928 -0.0254 0.0005
0.131467 -0.0254 -0.0005
0.131467 -0.0254 0.0005
0.133017 -0.0254 -0.0005
0.133017 -0.0254 0.0005
0.13458 -0.0254 -0.0005
0.13458 -0.0254 0.0005
0.136155 -0.0254 -0.0005
0.136155 -0.0254 0.0005
0.137742 -0.0254 -0.0005
0.137742 -0.0254 0.0005
0.139341 -0.0254 -0.0005
0.139341 -0.0254 0.0005
0.140953 -0.0254 -0.0005
0.140953 -0.0254 0.0005
0.142577 -0.0254 -0.0005
0.142577 -0.0254 0.0005
0.144214 -0.0254 -0.0005
0.144214 -0.0254 0.0005
0.145863 -0.0254 -0.0005
0.145863 -0.0254 0.0005
0.147526 -0.0254 -0.0005
0.147526 -0.0254 0.0005
0.149201 -0.0254 -0.0005
0.149201 -0.0254 0.0005
0.15089 -0.0254 -0.0005
0.15089 -0.0254 0.0005
0.152591 -0.0254 -0.0005
0.152591 -0.0254 0.0005
0.154306 -0.0254 -0.0005
0.154306 -0.0254 0.0005
0.156034 -0.0254 -0.0005
0.156034 -0.0254 0.0005
0.157775 -0.0254 -0.0005
0.157775 -0.0254 0.0005
0.159531 -0.0254 -0.0005
0.159531 -0.0254 0.0005
0.161299 -0.0254 -0.0005
0.161299 -0.0254 0.0005
0.163082 -0.0254 -0.0005
0.163082 -0.0254 0.0005
0.164878 -0.0254 -0.0005
0.164878 -0.0254 0.0005
0.166688 -0.0254 -0.0005
0.166688 -0.0254 0.0005
0.168513 -0.0254 -0.0005
0.168513 -0.0254 0.0005
0.170351 -0.0254 -0.0005
0.170351 -0.0254 0.0005
0.172204 -0.0254 -0.0005
0.172204 -0.0254 0.0005
0.174071 -0.0254 -0.0005
0.174071 -0.0254 0.0005
0.175953 -0.0254 -0.0005
0.175953 -0.0254 0.0005
0.177849 -0.0254 -0.0005
0.177849 -0.0254 0.0005
0.17976 -0.0254 -0.0005
0.17976 -0.0254 0.0005
0.181686 -0.0254 -0.0005
0.181686 -0.0254 0.0005
0.183627 -0.0254 -0.0005
0.183627 -0.0254 0.0005
0.185583 -0.0254 -0.0005
0.185583 -0.0254 0.0005
0.187555 -0.0254 -0.0005
0.187555 -0.0254 0.0005
0.189541 -0.0254 -0.0005
0.189541 -0.0254 0.0005
0.191543 -0.0254 -0.0005
0.191543 -0.0254 0.0005
0.193561 -0.0254 -0.0005
0.193561 -0.0254 0.0005
0.195594 -0.0254 -0.0005
0.195594 -0.0254 0.0005
0.197643 -0.0254 -0.0005
0.197643 -0.0254 0.0005
0.199708 -0.0254 -0.0005
0.199708 -0.0254 0.0005
0.201789 -0.0254 -0.0005
0.201789 -0.0254 0.0005
0.203886 -0.0254 -0.0005
0.203886 -0.0254 0.0005
0.206 -0.0254 -0.0005
0.206 -0.0254 0.0005
0.208047 -0.0251856 -0.0005
0.208047 -0.0251856 0.0005
0.210173 -0.0249628 -0.0005
0.210173 -0.0249628 0.0005
0.212382 -0.0247314 -0.0005
0.212382 -0.0247314 0.0005
0.214677 -0.024491 -0.0005
0.214677 -0.024491 0.0005
0.217061 -0.0242412 -0.0005
0.217061 -0.0242412 0.0005
0.219538 -0.0239817 -0.0005
0.219538 -0.0239817 0.0005
0.222112 -0.0237121 -0.0005
0.222112 -0.0237121 0.0005
0.224785 -0.023432 -0.0005
0.224785 -0.023432 0.0005
0.227563 -0.023141 -0.0005
0.227563 -0.023141 0.0005
0.230449 -0.0228387 -0.0005
0.230449 -0.0228387 0.0005
0.233447 -0.0225246 -0.0005
0.233447 -0.0225246 0.0005
0.236562 -0.0221983 -0.0005
0.236562 -0.0221983 0.0005
0.239797 -0.0218593 -0.0005
0.239797 -0.0218593 0.0005
0.243159 -0.0215071 -0.0005
0.243159 -0.0215071 0.0005
0.246652 -0.0211412 -0.0005
0.246652 -0.0211412 0.0005
0.250281 -0.0207611 -0.0005
0.250281 -0.0207611 0.0005
0.254051 -0.0203661 -0.0005
0.254051 -0.0203661 0.0005
0.257967 -0.0199558 -0.0005
0.257967 -0.0199558 0.0005
0.262036 -0.0195295 -0.0005
0.262036 -0.0195295 0.0005
0.266264 -0.0190867 -0.0005
0.266264 -0.0190867 0.0005
0.270655 -0.0186266 -0.0005
0.270655 -0.0186266 0.0005
0.275218 -0.0181486 -0.0005
0.275218 -0.0181486 0.0005
0.279959 -0.017652 -0.0005
0.279959 -0.017652 0.0005
0.284883 -0.017136 -0.0005
0.284883 -0.017136 0.0005
0.29 -0.0166 -0.0005
0.29 -0.0166 0.0005

POLYGONS 250 1250
4 0 1 2 3
4 1 4 5 2
4 4 6 7 5
4 6 8 9 7
4 8 10 11 9
4 10 12 13 11
4 12 14 15 13
4 14 16 17 15
4 16 18 19 17
4 18 20 21 19
4 20 22 23 21
4 22 24 25 23
4 24 26 27 25
4 26 28 29 27
4 28 30 31 29
4 30 32 33 31
4 32 34 35 33
4 34 36 37 35
4 38 39 40 41
4 41 40 42 43
4 43 42 44 45
4 45 44 46 47
4 47 46 48 49
4 49 48 50 51
4 51 50 52 53
4 53 52 54 55
4 55 54 56 57
4 57 56 58 59
4 59 58 60 61
4 61 60 62 63
4 63 62 64 65
4 65 64 66 67
4 67 66 68 69
4 69 68 70 71
4 71 70 72 73
4 73 72 74 75
4 75 74 76 77
4 77 76 78 79
4 79 78 80 81
4 81 80 82 83
4 83 82 84 85
4 85 84 86 87
4 87 86 88 89
4 89 88 90 91
4 91 90 37 36
4 38 92 93 39
4 92 94 95 93
4 94 96 97 95
4 96 98 99 97
4 98 100 101 99
4 100 102 103 101
4 102 104 105 103
4 104 106 107 105
4 106 108 109 107
4 108 110 111 109
4 110 112 113 111
4 112 114 115 113
4 114 116 117 115
4 116 118 119 117
4 118 120 121 119
4 120 122 123 121
4 122 124 125 123
4 124 126 127 125
4 126 128 129 127
4 128 130 131 129
4 130 132 133 131
4 132 134 135 133
4 134 136 137 135
4 136 138 139 137
4 138 140 141 139
4 140 142 143 141
4 142 144 145 143
4 144 146 147 145
4 146 148 149 147
4 148 150 151 149
4 150 152 153 151
4 152 154 155 153
4 154 156 157 155
4 156 158 159 157
4 158 160 161 159
4 160 162 163 161
4 162 164 165 163
4 164 166 167 165
4 166 168 169 167
4 168 170 171 169
4 170 172 173 171
4 172 174 175 173
4 174 176 177 175
4 176 178 179 177
4 178 180 181 179
4 180 182 183 181
4 182 184 185 183
4 184 186 187 185
4 186 188 189 187
4 188 190 191 189
4 190 192 193 191
4 192 194 195 193
4 194 196 197 195
4 196 198 199 197
4 198 200 201 199
4 200 202 203 201
4 202 204 205 203
4 204 206 207 205
4 206 208 209 207
4 208 210 211 209
4 210 212 213 211
4 212 214 215 213
4 214 216 217 215
4 216 218 219 217
4 218 220 221 219
4 220 222 223 221
4 222 224 225 223
4 224 226 227 225
4 226 228 229 227
4 228 230 231 229
4 230 232 233 231
4 232 234 235 233
4 234 236 237 235
4 236 238 239 237
4 238 240 241 239
4 240 242 243 241
4 242 244 245 243
4 244 246 247 245
4 246 248 249 247
4 248 250 251 249
4 250 252 253 251
4 252 254 255 253
4 254 256 257 255
4 256 258 259 257
4 258 260 261 259
4 260 262 263 261
4 262 264 265 263
4 264 266 267 265
4 266 268 269 267
4 268 270 271 269
4 270 272 273 271
4 272 274 275 273
4 274 276 277 275
4 276 278 279 277
4 278 280 281 279
4 280 282 283 281
4 282 284 285 283
4 284 286 287 285
4 286 288 289 287
4 288 290 291 289
4 290 292 293 291
4 292 294 295 293
4 294 296 297 295
4 296 298 299 297
4 298 300 301 299
4 300 302 303 301
4 302 304 305 303
4 304 306 307 305
4 306 308 309 307
4 308 310 311 309
4 310 312 313 311
4 312 314 315 313
4 314 316 317 315
4 316 318 319 317
4 318 320 321 319
4 320 322 323 321
4 322 324 325 323
4 324 326 327 325
4 326 328 329 327
4 328 330 331 329
4 330 332 333 331
4 332 334 335 333
4 334 336 337 335
4 336 338 339 337
4 338 340 341 339
4 340 342 343 341
4 342 344 345 343
4 344 346 347 345
4 346 348 349 347
4 348 350 351 349
4 350 352 353 351
4 352 354 355 353
4 354 356 357 355
4 356 358 359 357
4 358 360 361 359
4 360 362 363 361
4 362 364 365 363
4 364 366 367 365
4 366 368 369 367
4 368 370 371 369
4 370 372 373 371
4 372 374 375 373
4 374 376 377 375
4 376 378 379 377
4 378 380 381 379
4 380 382 383 381
4 382 384 385 383
4 384 386 387 385
4 386 388 389 387
4 388 390 391 389
4 390 392 393 391
4 392 394 395 393
4 394 396 397 395
4 396 398 399 397
4 398 400 401 399
4 400 402 403 401
4 402 404 405 403
4 404 406 407 405
4 406 408 409 407
4 408 410 411 409
4 410 412 413 411
4 412 414 415 413
4 414 416 417 415
4 416 418 419 417
4 418 420 421 419
4 420 422 423 421
4 422 424 425 423
4 424 426 427 425
4 426 428 429 427
4 428 430 431 429
4 430 432 433 431
4 432 434 435 433
4 434 436 437 435
4 436 438 439 437
4 438 440 441 439
4 440 442 443 441
4 442 444 445 443
4 444 446 447 445
4 446 448 449 447
4 448 450 451 449
4 450 452 453 451
4 452 454 455 453
4 454 456 457 455
4 456 458 459 457
4 458 460 461 459
4 460 462 463 461
4 462 464 465 463
4 464 466 467 465
4 466 468 469 467
4 468 470 471 469
4 470 472 473 471
4 472 474 475 473
4 474 476 477 475
4 476 478 479 477
4 478 480 481 479
4 480 482 483 481
4 482 484 485 483
4 484 486 487 485
4 486 488 489 487
4 488 490 491 489
4 490 492 493 491
4 492 494 495 493
4 494 496 497 495
4 496 498 499 497
4 498 500 501 499
POINT_DATA 502
FIELD attributes 1
U 3 502 float
1.64495 0.0920925 -0.0101407
0.823979 0.0457291 -0.00499736
0.823979 0.0457291 -0.00499736
1.64495 0.0920925 -0.0101407
0.0247886 0.000634141 0
0.0247886 0.000634141 0
0.0219872 0.000543897 0
0.0219872 0.000543897 0
0.019487 0.000470983 0
0.019487 0.000470983 0
0.0171615 0.000421974 0
0.0171615 0.000421974 0
0.0149743 0.000385327 0
0.0149743 0.000385327 0
0.0129054 0.000342367 0
0.0129054 0.000342367 0
0.0109818 0.000287814 0
0.0109818 0.000287814 0
0.00922641 0.000234958 0
0.00922641 0.000234958 0
0.00764325 0.000191151 0
0.00764325 0.000191151 0
0.00624115 0.000149704 0
0.00624115 0.000149704 0
0.00501648 0.000105559 0
0.00501648 0.000105559 0
0.00397663 6.34293e-05 0
0.00397663 6.34293e-05 0
0.00308694 3.15802e-05 0
0.00308694 3.15802e-05 0
0.00234013 1.61829e-05 0
0.00234013 1.61829e-05 0
0.00163448 5.18694e-06 0
0.00163448 5.18694e-06 0
0.000981031 -2.9539e-05 0
0.000981031 -2.9539e-05 0
0.000418613 0.000549548 0
0.000418613 0.000549548 0
-0.00012856 0.00032812 -6.187e-23
-0.00012856 0.00032812 -6.187e-23
-0.000103029 0.0011022 1.67353e-22
-0.000103029 0.0011022 1.67353e-22
9.76647e-05 0.00188814 1.98297e-22
9.76647e-05 0.00188814 1.98297e-22
0.000226403 0.00107771 -3.96753e-22
0.000226403 0.00107771 -3.96753e-22
1.20035e-05 0.000283295 -1.32205e-22
1.20035e-05 0.000283295 -1.32205e-22
-0.000288801 0.000496923 2.64556e-22
-0.000288801 0.000496923 2.64556e-22
-0.000204302 0.000496914 0
-0.000204302 0.000496914 0
0.000363339 -0.00109723 5.30483e-22
0.000363339 -0.00109723 5.30483e-22
0.000631125 -0.00372729 3.05722e-25
0.000631125 -0.00372729 3.05722e-25
0.000360916 -0.00525606 -5.30177e-22
0.000360916 -0.00525606 -5.30177e-22
0.000141648 -0.005759 5.33089e-22
0.000141648 -0.005759 5.33089e-22
9.28892e-05 -0.00606188 2.1424e-26
9.28892e-05 -0.00606188 2.1424e-26
4.77828e-05 -0.0061676 -5.33067e-22
4.77828e-05 -0.0061676 -5.33067e-22
3.94018e-06 -0.00609385 -5.35992e-22
3.94018e-06 -0.00609385 -5.35992e-22
-1.61826e-05 -0.00592269 9.3113e-26
-1.61826e-05 -0.00592269 9.3113e-26
-2.19988e-05 -0.0057128 5.45587e-22
-2.19988e-05 -0.0057128 5.45587e-22
-2.61671e-05 -0.00547217 0
-2.61671e-05 -0.00547217 0
-3.73031e-05 -0.00521993 0
-3.73031e-05 -0.00521993 0
-6.3876e-05 -0.00492296 0
-6.3876e-05 -0.00492296 0
-0.000111472 -0.00453207 0
-0.000111472 -0.00453207 0
-0.000185288 -0.00400272 0
-0.000185288 -0.00400272 0
-0.000285687 -0.00329713 0
-0.000285687 -0.00329713 0
-0.000397608 -0.00240777 0
-0.000397608 -0.00240777 0
-0.000486556 -0.00139225 0
-0.000486556 -0.00139225 0
-0.000491623 -0.000335419 0
-0.000491623 -0.000335419 0
-0.000300046 0.000532397 0
-0.000300046 0.000532397 0
2.07301e-05 0.000962617 0
2.07301e-05 0.000962617 0
-0.000296642 0.000374529 -2.70317e-25
-0.000296642 0.000374529 -2.70317e-25
-0.000607828 0.000385668 3.07435e-23
-0.000607828 0.000385668 3.07435e-23
-0.000847335 0.000289912 0
-0.000847335 0.000289912 0
-0.000974603 0.000156928 0
-0.000974603 0.000156928 0
-0.000969671 6.28504e-06 -2.98463e-23
-0.000969671 6.28504e-06 -2.98463e-23
-0.000841377 -0.000142925 -2.98999e-23
-0.000841377 -0.000142925 -2.98999e-23
-0.000599605 -0.0002706 0
-0.000599605 -0.0002706 0
-0.000263112 -0.000356791 0
-0.000263112 -0.000356791 0
0.000129048 -0.000399597 0
0.000129048 -0.000399597 0
0.00053815 -0.000407402 2.87498e-23
0.00053815 -0.000407402 2.87498e-23
0.000933944 -0.000373025 2.88045e-23
0.000933944 -0.000373025 2.88045e-23
0.00128495 -0.000289725 0
0.00128495 -0.000289725 0
0.00156023 -0.000162099 0
0.00156023 -0.000162099 0
0.00174692 -1.84437e-05 0
0.00174692 -1.84437e-05 0
0.00184481 7.90828e-05 2.77421e-23
0.00184481 7.90828e-05 2.77421e-23
0.00186278 7.69041e-05 2.77981e-23
0.00186278 7.69041e-05 2.77981e-23
0.00183292 2.6469e-06 0
0.00183292 2.6469e-06 0
0.00179869 -6.03244e-05 0
0.00179869 -6.03244e-05 0
0.00178632 -7.73475e-05 0
0.00178632 -7.73475e-05 0
0.00181429 -8.72959e-05 0
0.00181429 -8.72959e-05 0
0.00190875 -0.000110426 0
0.00190875 -0.000110426 0
0.00206338 -9.4938e-05 0
0.00206338 -9.4938e-05 0
0.00220456 -9.8057e-06 2.61763e-23
0.00220456 -9.8057e-06 2.61763e-23
0.0022717 9.87907e-05 2.56278e-25
0.0022717 9.87907e-05 2.56278e-25
0.00227586 0.000203827 -2.60754e-25
0.00227586 0.000203827 -2.60754e-25
0.00221136 0.000329805 5.1403e-23
0.00221136 0.000329805 5.1403e-23
0.0020545 0.000418572 2.5628e-23
0.0020545 0.000418572 2.5628e-23
0.00187243 0.000320505 0
0.00187243 0.000320505 0
0.00176025 1.05673e-05 -2.4926e-23
0.00176025 1.05673e-05 -2.4926e-23
0.00169627 -0.000342269 -4.96991e-23
0.00169627 -0.000342269 -4.96991e-23
0.00160646 -0.000514826 -2.47732e-23
0.00160646 -0.000514826 -2.47732e-23
0.00143193 -0.000346927 0
0.00143193 -0.000346927 0
0.00104974 7.36677e-05 -2.41595e-23
0.00104974 7.36677e-05 -2.41595e-23
0.000421736 0.000460511 -2.4219e-23
0.000421736 0.000460511 -2.4219e-23
-0.000350327 0.000676821 0
-0.000350327 0.000676821 0
-0.00117061 0.000759395 2.35886e-23
-0.00117061 0.000759395 2.35886e-23
-0.00197336 0.000756603 2.36486e-23
-0.00197336 0.000756603 2.36486e-23
-0.00272409 0.000705319 2.32477e-23
-0.00272409 0.000705319 2.32477e-23
-0.00340957 0.000638188 6.95e-23
-0.00340957 0.000638188 6.95e-23
-0.00403132 0.000572671 4.63131e-23
-0.00403132 0.000572671 4.63131e-23
-0.00459413 0.000512775 0
-0.00459413 0.000512775 0
-0.00510343 0.000459336 0
-0.00510343 0.000459336 0
-0.00556391 0.00041134 0
-0.00556391 0.00041134 0
-0.00597896 0.000367302 0
-0.00597896 0.000367302 0
-0.00635056 0.00032569 4.45169e-23
-0.00635056 0.00032569 4.45169e-23
-0.00667942 0.000285367 8.887e-23
-0.00667942 0.000285367 8.887e-23
-0.00696531 0.000245455 8.82863e-23
-0.00696531 0.000245455 8.82863e-23
-0.00720725 0.000205167 4.40576e-23
-0.00720725 0.000205167 4.40576e-23
-0.00740361 0.000163792 -4.33089e-23
-0.00740361 0.000163792 -4.33089e-23
-0.00755226 0.000121107 -4.34344e-23
-0.00755226 0.000121107 -4.34344e-23
-0.00765055 7.76413e-05 4.26347e-23
-0.00765055 7.76413e-05 4.26347e-23
-0.00769503 3.42959e-05 8.50361e-23
-0.00769503 3.42959e-05 8.50361e-23
-0.00768362 -8.62396e-06 4.24016e-23
-0.00768362 -8.62396e-06 4.24016e-23
-0.00761722 -5.20213e-05 0
-0.00761722 -5.20213e-05 0
-0.00749536 -9.63525e-05 0
-0.00749536 -9.63525e-05 0
-0.00731798 -0.000140758 4.0697e-23
-0.00731798 -0.000140758 4.0697e-23
-0.00708793 -0.000183495 4.0823e-23
-0.00708793 -0.000183495 4.0823e-23
-0.00681075 -0.000221785 0
-0.00681075 -0.000221785 0
-0.0064973 -0.000252155 0
-0.0064973 -0.000252155 0
-0.00616422 -0.000270541 0
-0.00616422 -0.000270541 0
-0.00583497 -0.00027285 0
-0.00583497 -0.00027285 0
-0.00553867 -0.000255667 0
-0.00553867 -0.000255667 0
-0.00530467 -0.000216678 0
-0.00530467 -0.000216678 0
-0.00515394 -0.000154054 0
-0.00515394 -0.000154054 0
-0.00509211 -6.45125e-05 -3.66207e-23
-0.00509211 -6.45125e-05 -3.66207e-23
-0.00510445 4.87261e-05 -3.67437e-23
-0.00510445 4.87261e-05 -3.67437e-23
-0.0051549 0.000144931 0
-0.0051549 0.000144931 0
-0.00517121 0.000135627 3.51771e-23
-0.00517121 0.000135627 3.51771e-23
-0.00503843 -2.13299e-05 7.00187e-23
-0.00503843 -2.13299e-05 7.00187e-23
-0.00468969 -0.000216176 3.4841e-23
-0.00468969 -0.000216176 3.4841e-23
-0.00420496 -0.000288027 -3.38534e-23
-0.00420496 -0.000288027 -3.38534e-23
-0.00374028 -0.000232084 -5.3215e-25
-0.00374028 -0.000232084 -5.3215e-25
-0.00335929 -0.00018304 3.35603e-23
-0.00335929 -0.00018304 3.35603e-23
-0.00299327 -0.000199502 -3.26439e-23
-0.00299327 -0.000199502 -3.26439e-23
-0.00260583 -0.000222925 -3.27623e-23
-0.00260583 -0.000222925 -3.27623e-23
-0.00223265 -0.00023067 0
-0.00223265 -0.00023067 0
-0.00184185 -0.0002518 3.15202e-23
-0.00184185 -0.0002518 3.15202e-23
-0.00140389 -0.000286097 3.16374e-23
-0.00140389 -0.000286097 3.16374e-23
-0.000897162 -0.000327391 -3.08212e-23
-0.000897162 -0.000327391 -3.08212e-23
-0.000256585 -0.000342585 -3.09376e-23
-0.000256585 -0.000342585 -3.09376e-23
0.000442211 -0.000276262 3.01899e-23
0.000442211 -0.000276262 3.01899e-23
0.00097606 -0.000163386 6.02348e-23
0.00097606 -0.000163386 6.02348e-23
0.00122045 -8.42223e-05 5.97296e-23
0.00122045 -8.42223e-05 5.97296e-23
0.00123389 -4.72211e-05 8.8683e-23
0.00123389 -4.72211e-05 8.8683e-23
0.00115453 -3.82563e-05 7.2241e-25
0.00115453 -3.82563e-05 7.2241e-25
0.00111991 -5.68052e-05 -5.86225e-23
0.00111991 -5.68052e-05 -5.86225e-23
0.0012185 -5.7137e-05 0
0.0012185 -5.7137e-05 0
0.00145236 -3.80634e-05 0
0.00145236 -3.80634e-05 0
0.00176656 -0.000171141 -5.60907e-23
0.00176656 -0.000171141 -5.60907e-23
0.00229555 -0.000408913 -1.11757e-22
0.00229555 -0.000408913 -1.11757e-22
0.00306162 -0.000207725 -8.41379e-25
0.00306162 -0.000207725 -8.41379e-25
0.00320519 0.000357303 5.50512e-23
0.00320519 0.000357303 5.50512e-23
0.00233562 0.000447316 -5.36664e-23
0.00233562 0.000447316 -5.36664e-23
0.00147215 6.37847e-05 -1.07035e-22
0.00147215 6.37847e-05 -1.07035e-22
0.00130283 -0.000236509 -1.0588e-22
0.00130283 -0.000236509 -1.0588e-22
0.00157171 -0.000380724 -5.27354e-23
0.00157171 -0.000380724 -5.27354e-23
0.00183774 -0.000410071 0
0.00183774 -0.000410071 0
0.00174223 -0.000170927 0
0.00174223 -0.000170927 0
0.00106523 0.000265106 -5.04949e-23
0.00106523 0.000265106 -5.04949e-23
1.10698e-05 0.000522528 -5.0716e-23
1.10698e-05 0.000522528 -5.0716e-23
-0.00104352 0.000528659 0
-0.00104352 0.000528659 0
-0.00196969 0.000462501 4.94008e-23
-0.00196969 0.000462501 4.94008e-23
-0.0027693 0.000395842 4.96214e-23
-0.0027693 0.000395842 4.96214e-23
-0.00346302 0.000339977 0
-0.00346302 0.000339977 0
-0.00407323 0.000295402 4.85125e-23
-0.00407323 0.000295402 4.85125e-23
-0.00461737 0.000260196 4.87334e-23
-0.00461737 0.000260196 4.87334e-23
-0.00510785 0.000231895 0
-0.00510785 0.000231895 0
-0.00555284 0.000208159 -4.76219e-23
-0.00555284 0.000208159 -4.76219e-23
-0.00595724 0.000187161 -9.51533e-23
-0.00595724 0.000187161 -9.51533e-23
-0.00632335 0.000167459 -4.75313e-23
-0.00632335 0.000167459 -4.75313e-23
-0.00665116 0.000147958 4.66477e-23
-0.00665116 0.000147958 4.66477e-23
-0.00693894 0.000127985 4.68683e-23
-0.00693894 0.000127985 4.68683e-23
-0.00718376 0.000107108 -4.59067e-23
-0.00718376 0.000107108 -4.59067e-23
-0.0073819 8.51104e-05 -4.61264e-23
-0.0073819 8.51104e-05 -4.61264e-23
-0.00752926 6.21615e-05 -4.5053e-23
-0.00752926 6.21615e-05 -4.5053e-23
-0.00762205 3.85924e-05 -8.98455e-23
-0.00762205 3.85924e-05 -8.98455e-23
-0.0076567 1.50505e-05 -4.47914e-23
-0.0076567 1.50505e-05 -4.47914e-23
-0.00763244 -8.06027e-06 0
-0.00763244 -8.06027e-06 0
-0.00754927 -3.10331e-05 0
-0.00754927 -3.10331e-05 0
-0.00740571 -5.39665e-05 0
-0.00740571 -5.39665e-05 0
-0.00720102 -7.67508e-05 0
-0.00720102 -7.67508e-05 0
-0.00693429 -9.94157e-05 0
-0.00693429 -9.94157e-05 0
-0.00660415 -0.000122107 0
-0.00660415 -0.000122107 0
-0.00620858 -0.000144966 -3.94428e-23
-0.00620858 -0.000144966 -3.94428e-23
-0.00574533 -0.000167856 -9.54117e-25
-0.00574533 -0.000167856 -9.54117e-25
-0.00521355 -0.000189954 3.88876e-23
-0.00521355 -0.000189954 3.88876e-23
-0.00461644 -0.000209492 0
-0.00461644 -0.000209492 0
-0.00396376 -0.000224119 0
-0.00396376 -0.000224119 0
-0.00327186 -0.000231845 0
-0.00327186 -0.000231845 0
-0.00256034 -0.000231799 7.01879e-23
-0.00256034 -0.000231799 7.01879e-23
-0.0018489 -0.000224056 7.05566e-23
-0.0018489 -0.000224056 7.05566e-23
-0.00115723 -0.000209135 -6.7804e-23
-0.00115723 -0.000209135 -6.7804e-23
-0.000507463 -0.000188238 -1.42971e-24
-0.000507463 -0.000188238 -1.42971e-24
8.0652e-05 -0.00016469 6.70899e-23
8.0652e-05 -0.00016469 6.70899e-23
0.000599886 -0.000140871 0
0.000599886 -0.000140871 0
0.00105246 -0.000118179 0
0.00105246 -0.000118179 0
0.00144354 -9.84408e-05 -6.29264e-23
0.00144354 -9.84408e-05 -6.29264e-23
0.00178054 -8.18676e-05 -1.25329e-22
0.00178054 -8.18676e-05 -1.25329e-22
0.00207107 -6.81244e-05 -6.23992e-23
0.00207107 -6.81244e-05 -6.23992e-23
0.0023219 -5.69809e-05 -6.03803e-23
0.0023219 -5.69809e-05 -6.03803e-23
0.00254002 -4.87267e-05 -1.20268e-22
0.00254002 -4.87267e-05 -1.20268e-22
0.00273455 -4.40918e-05 -1.15376e-24
0.00273455 -4.40918e-05 -1.15376e-24
0.00291791 -4.36938e-05 5.9057e-23
0.00291791 -4.36938e-05 5.9057e-23
0.00310482 -4.72542e-05 0
0.00310482 -4.72542e-05 0
0.00330877 -5.31302e-05 5.62133e-23
0.00330877 -5.31302e-05 5.62133e-23
0.00353756 -5.87013e-05 5.65298e-23
0.00353756 -5.87013e-05 5.65298e-23
0.00379027 -6.15418e-05 0
0.00379027 -6.15418e-05 0
0.00405745 -6.06418e-05 0
0.00405745 -6.06418e-05 0
0.00432432 -5.63871e-05 0
0.00432432 -5.63871e-05 0
0.00457477 -4.79756e-05 -5.19025e-23
0.00457477 -4.79756e-05 -5.19025e-23
0.00479114 -2.86345e-05 -1.03254e-22
0.00479114 -2.86345e-05 -1.03254e-22
0.00494537 1.19862e-05 -5.13482e-23
0.00494537 1.19862e-05 -5.13482e-23
0.00499674 7.11467e-05 -4.93718e-23
0.00499674 7.11467e-05 -4.93718e-23
0.00491563 0.000128893 -4.96591e-23
0.00491563 0.000128893 -4.96591e-23
0.00468749 0.000175371 0
0.00468749 0.000175371 0
0.00429454 0.000214256 -4.69234e-23
0.00429454 0.000214256 -4.69234e-23
0.00374182 0.000228015 -4.71996e-23
0.00374182 0.000228015 -4.71996e-23
0.00310469 0.0001876 -4.54351e-23
0.00310469 0.0001876 -4.54351e-23
0.0025069 0.000105856 -4.57045e-23
0.0025069 0.000105856 -4.57045e-23
0.00203806 3.02505e-05 0
0.00203806 3.02505e-05 0
0.00171664 -1.05204e-05 -4.3258e-23
0.00171664 -1.05204e-05 -4.3258e-23