/*--------------------------------*- C++ -*----------------------------------*\
  =========                 |
  \\      /  F ield         | OpenFOAM: The Open Source CFD Toolbox
   \\    /   O peration     | Website:  https://openfoam.org
    \\  /    A nd           | Version:  7
     \\/     M anipulation  |
\*---------------------------------------------------------------------------*/
FoamFile
{
    version     2.0;
    format      ascii;
    class       volScalarField;
    location    "0.072";
    object      k;
}
// * * * * * * * * * * * * * * * * * * * * * * * * * * * * * * * * * * * * * //

dimensions      [0 2 -2 0 0 0 0];

internalField   nonuniform List<scalar> 
12225
(
1.92597e-05
1.81316e-05
1.67369e-05
1.51156e-05
1.40401e-05
1.276e-05
1.18834e-05
1.03694e-05
8.97149e-06
7.58947e-06
6.81268e-06
6.58122e-06
6.46838e-06
6.19098e-06
5.08541e-06
4.58836e-06
1.15527e-05
1.5694e-05
1.99762e-05
1.98846e-05
1.96985e-05
1.94201e-05
1.89876e-05
1.87399e-05
1.92733e-05
1.87968e-05
1.78142e-05
1.7029e-05
1.64767e-05
1.6049e-05
1.56921e-05
1.52863e-05
1.50433e-05
1.46997e-05
1.63534e-05
1.53357e-05
1.99991e-05
1.94561e-05
1.91766e-05
1.91267e-05
1.90682e-05
1.90852e-05
1.91549e-05
1.90782e-05
1.87706e-05
1.8426e-05
1.81943e-05
1.80612e-05
1.80069e-05
1.7987e-05
1.79816e-05
1.79338e-05
1.84303e-05
1.8202e-05
2.01868e-05
1.9928e-05
1.87816e-05
1.71863e-05
1.75167e-05
1.77355e-05
1.75325e-05
1.65416e-05
1.56421e-05
1.53219e-05
1.52804e-05
1.53453e-05
1.5718e-05
1.65493e-05
1.74593e-05
1.77898e-05
1.83718e-05
1.85376e-05
2.01437e-05
2.07839e-05
2.08862e-05
2.05563e-05
1.99861e-05
1.95232e-05
1.89751e-05
1.81966e-05
1.64813e-05
1.40968e-05
1.32187e-05
1.32852e-05
1.41373e-05
1.62982e-05
1.79111e-05
1.88551e-05
1.95403e-05
1.98823e-05
2.01938e-05
2.07606e-05
2.09119e-05
2.09025e-05
2.10887e-05
2.14356e-05
2.146e-05
2.13898e-05
2.09972e-05
2.01028e-05
1.96843e-05
1.96347e-05
1.98392e-05
2.06097e-05
2.1209e-05
2.14566e-05
2.15066e-05
2.14629e-05
2.07929e-05
2.11088e-05
2.09751e-05
2.07789e-05
2.08455e-05
2.11827e-05
2.19755e-05
2.27166e-05
2.29867e-05
2.30028e-05
2.29348e-05
2.26726e-05
2.25291e-05
2.25195e-05
2.25461e-05
2.26667e-05
2.27964e-05
2.27908e-05
2.14974e-05
2.16319e-05
2.06884e-05
2.05508e-05
2.08147e-05
2.17196e-05
2.25552e-05
2.29458e-05
2.29648e-05
2.29198e-05
2.29047e-05
2.29217e-05
2.29883e-05
2.31288e-05
2.34129e-05
2.42109e-05
2.53508e-05
2.58554e-05
2.03158e-05
2.05878e-05
2.04995e-05
2.04723e-05
2.06941e-05
2.1437e-05
2.3352e-05
2.46422e-05
2.47805e-05
2.44201e-05
2.36803e-05
2.34685e-05
2.34801e-05
2.36778e-05
2.4571e-05
2.62808e-05
2.73672e-05
2.77764e-05
2.094e-05
2.2108e-05
2.17295e-05
2.08658e-05
2.1011e-05
2.33293e-05
2.71074e-05
2.72835e-05
2.61986e-05
2.44985e-05
2.36741e-05
2.34297e-05
2.34289e-05
2.36128e-05
2.45025e-05
2.61581e-05
2.71834e-05
2.7648e-05
2.07582e-05
2.13335e-05
2.10333e-05
2.04949e-05
2.0368e-05
2.06771e-05
2.18664e-05
2.22319e-05
2.2199e-05
2.20271e-05
2.19907e-05
2.20903e-05
2.26631e-05
2.4125e-05
2.52725e-05
2.59071e-05
2.61071e-05
2.61682e-05
2.0257e-05
2.06744e-05
2.13629e-05
2.14692e-05
2.19699e-05
2.22218e-05
2.19607e-05
2.14901e-05
2.13353e-05
2.1335e-05
2.14834e-05
2.22382e-05
2.34752e-05
2.41707e-05
2.43778e-05
2.43226e-05
2.37491e-05
2.2703e-05
2.02193e-05
2.04076e-05
2.10015e-05
2.24888e-05
2.29365e-05
2.25082e-05
2.13859e-05
2.09262e-05
2.08295e-05
2.08396e-05
2.09352e-05
2.1031e-05
2.10911e-05
2.11399e-05
2.11493e-05
2.11206e-05
2.09996e-05
2.09029e-05
2.01355e-05
2.02881e-05
2.06316e-05
2.1009e-05
2.11256e-05
2.10094e-05
2.08342e-05
2.08392e-05
2.10563e-05
2.16458e-05
2.18648e-05
2.1847e-05
2.15494e-05
2.08511e-05
2.05282e-05
2.04477e-05
2.04416e-05
2.04605e-05
2.07348e-05
2.13097e-05
2.08211e-05
2.03956e-05
2.04946e-05
2.14613e-05
2.28974e-05
2.32503e-05
2.3191e-05
2.26891e-05
2.18502e-05
2.12158e-05
2.07776e-05
2.05332e-05
2.04359e-05
2.04134e-05
2.04145e-05
2.04324e-05
2.04011e-05
2.04103e-05
2.02414e-05
2.01768e-05
2.02257e-05
2.05204e-05
2.17209e-05
2.42403e-05
2.5391e-05
2.54607e-05
2.4946e-05
2.31965e-05
2.18106e-05
2.10805e-05
2.07579e-05
2.06453e-05
2.06075e-05
2.06006e-05
2.06784e-05
2.05388e-05
2.04048e-05
2.04338e-05
2.05867e-05
2.09373e-05
2.2032e-05
2.30939e-05
2.3461e-05
2.3434e-05
2.29511e-05
2.20602e-05
2.15405e-05
2.12418e-05
2.10371e-05
2.09088e-05
2.07872e-05
2.06971e-05
2.03804e-05
2.07151e-05
2.07574e-05
2.06613e-05
2.06231e-05
2.06653e-05
2.07702e-05
2.08438e-05
2.08682e-05
2.08674e-05
2.08647e-05
2.08637e-05
2.08225e-05
2.06024e-05
2.03581e-05
2.02541e-05
2.02201e-05
2.02124e-05
2.00755e-05
2.04339e-05
2.07061e-05
2.08928e-05
2.09231e-05
2.07633e-05
2.04845e-05
2.0383e-05
2.03557e-05
2.03489e-05
2.03465e-05
2.03443e-05
2.03389e-05
2.03184e-05
2.02677e-05
2.02359e-05
2.02258e-05
2.02254e-05
2.00257e-05
2.00927e-05
2.03561e-05
2.08513e-05
2.11271e-05
2.11868e-05
2.11647e-05
2.10019e-05
2.07863e-05
2.0685e-05
2.06472e-05
2.06306e-05
2.06069e-05
2.05486e-05
2.04666e-05
2.04043e-05
2.03676e-05
2.03529e-05
2.00783e-05
2.00494e-05
2.00962e-05
2.02231e-05
2.04922e-05
2.06577e-05
2.07094e-05
2.07093e-05
2.06755e-05
2.05778e-05
2.05103e-05
2.04761e-05
2.04604e-05
2.04536e-05
2.04497e-05
2.04465e-05
2.04445e-05
2.0444e-05
2.02409e-05
2.02361e-05
2.02339e-05
2.02438e-05
2.02677e-05
2.03356e-05
2.03633e-05
2.03618e-05
2.03237e-05
2.02172e-05
2.01548e-05
2.01337e-05
2.01294e-05
2.01303e-05
2.01407e-05
2.01582e-05
2.01672e-05
2.01831e-05
2.05199e-05
2.04179e-05
2.04399e-05
2.04468e-05
2.03929e-05
2.02856e-05
2.02269e-05
2.01971e-05
2.01712e-05
2.01243e-05
2.00119e-05
1.98055e-05
1.96789e-05
1.96754e-05
1.97226e-05
1.98364e-05
1.99303e-05
2.00019e-05
2.04141e-05
2.05481e-05
2.05714e-05
2.05568e-05
2.0457e-05
2.04197e-05
2.03656e-05
2.0264e-05
2.01585e-05
2.00764e-05
2.00468e-05
2.00451e-05
2.0049e-05
2.00634e-05
2.01005e-05
2.01376e-05
2.01632e-05
2.01781e-05
2.03783e-05
2.04461e-05
2.04449e-05
2.03346e-05
2.02553e-05
2.03009e-05
2.02873e-05
2.02474e-05
2.01595e-05
2.01262e-05
2.01256e-05
2.01402e-05
2.01848e-05
2.02139e-05
2.02256e-05
2.02288e-05
2.02282e-05
2.02215e-05
2.08604e-05
2.10566e-05
2.0988e-05
2.06584e-05
2.04213e-05
2.02669e-05
2.0255e-05
2.04208e-05
2.05597e-05
2.05013e-05
2.02846e-05
2.01379e-05
2.00851e-05
2.00803e-05
2.00943e-05
2.0153e-05
2.02147e-05
2.02312e-05
2.01202e-05
2.00937e-05
2.00555e-05
1.99938e-05
1.98367e-05
1.97286e-05
1.97577e-05
1.99255e-05
2.0031e-05
1.99946e-05
1.97424e-05
1.95864e-05
1.96169e-05
1.98499e-05
2.06867e-05
2.24028e-05
2.40834e-05
2.47597e-05
2.02092e-05
1.87391e-05
1.60402e-05
1.61934e-05
1.70539e-05
1.96046e-05
2.64599e-05
3.77344e-05
4.53515e-05
4.91672e-05
5.13053e-05
5.35911e-05
5.75723e-05
6.53053e-05
8.30708e-05
0.000100787
0.000118861
0.000131203
3.1445e-05
0.000133051
0.000172514
0.000185832
0.000210231
0.000270398
0.000385267
0.000470807
0.000512063
0.000528655
0.000539063
0.000552969
0.000581813
0.000636806
0.000693492
0.000733183
0.000761529
0.00077683
0.0024267
0.0024863
0.00234464
0.00215909
0.00211342
0.00211057
0.00210999
0.0020959
0.00202705
0.00194802
0.00190136
0.00185667
0.00179371
0.00171096
0.00162143
0.00153825
0.00147456
0.00143441
0.00803379
0.0111948
0.00938916
0.00733438
0.00695116
0.00721683
0.0073144
0.00742652
0.00746047
0.00747193
0.00755656
0.00816707
0.0100594
0.0110615
0.0109934
0.0106018
0.00992544
0.00926315
0.00868846
0.00811803
0.00769786
0.00724807
0.00695035
0.00665781
0.00641055
0.00622124
0.0060122
0.00592555
0.00593079
0.00596625
0.00597386
0.00592807
0.0057597
0.00548836
0.00512452
0.00309783
0.00158564
0.00279346
0.00367947
0.00407473
0.00413351
0.00446368
0.00518104
0.00634182
0.00785967
0.00926814
0.0105101
0.0116624
0.0134196
0.0171628
0.0279134
0.0415421
0.0479104
0.0504847
0.0560562
0.0658936
0.0801315
0.0845083
0.0625244
0.0151384
0.00349605
0.00170311
0.00140246
0.00141411
0.00141926
0.00140711
0.00129533
0.00115454
0.000989997
0.00082369
0.000696123
0.000546946
0.000433094
0.000362296
0.000258111
0.000208738
0.000172642
0.000154611
0.000149151
0.000151194
0.000151979
0.000152581
0.000152853
0.000152951
0.000152622
0.000151955
0.000151325
0.000150125
0.000149008
0.000147732
0.000146555
0.000145134
0.00014386
0.000143001
0.000142119
0.00014109
0.000139851
0.000138678
0.000137082
0.000134957
0.000132629
0.00012999
0.000127185
0.000124537
0.00012086
0.000117398
0.000113439
0.000108818
0.000103764
9.81246e-05
9.19793e-05
8.53953e-05
7.86243e-05
7.18881e-05
6.54361e-05
5.95233e-05
5.43613e-05
5.00004e-05
4.61138e-05
4.24034e-05
3.89192e-05
3.55703e-05
3.2246e-05
2.89525e-05
2.56773e-05
2.24091e-05
1.91814e-05
1.60108e-05
1.29748e-05
1.0277e-05
8.04224e-06
6.26391e-06
4.87226e-06
3.7906e-06
2.95175e-06
2.30213e-06
1.80043e-06
1.41445e-06
1.11852e-06
8.9196e-07
7.18279e-07
5.84563e-07
4.80879e-07
3.99671e-07
3.35222e-07
2.83232e-07
2.40515e-07
2.04763e-07
1.74354e-07
1.4818e-07
1.25489e-07
1.05769e-07
8.86488e-08
7.38388e-08
6.10937e-08
5.01927e-08
4.09315e-08
3.31205e-08
2.65828e-08
2.11557e-08
1.6688e-08
1.30434e-08
1.0096e-08
7.73604e-09
5.8637e-09
4.39542e-09
3.25479e-09
2.38127e-09
1.71815e-09
1.22376e-09
8.57069e-10
5.92619e-10
4.00073e-10
2.67536e-10
1.73982e-10
1.01986e-10
1.44722e-10
2.72567e-08
2.91387e-06
2.31268e-06
0.0066577
0.0093587
0.00854386
0.0069343
0.00676424
0.0065714
0.00706284
0.00751641
0.00759943
0.00756332
0.00742426
0.0072808
0.0069408
0.00646786
0.00600673
0.00555328
0.00514491
0.00484427
0.00461793
0.00445654
0.00430826
0.00421084
0.00410795
0.00401902
0.00394605
0.00386152
0.00381438
0.00381785
0.00384301
0.00390277
0.00404585
0.00420756
0.00437069
0.00470637
0.00477403
0.00462119
0.00420147
0.00362482
0.00310427
0.00312977
0.00325832
0.00307559
0.00223973
0.00182742
0.00170164
0.00160878
0.00159934
0.00171588
0.00207175
0.00274488
0.00441469
0.00613275
0.00625829
0.00773155
0.0231145
0.0595511
0.0530357
0.0315169
0.0136254
0.00412192
0.00170301
0.0010728
0.000844733
0.000716517
0.000598107
0.000495747
0.000415175
0.00035085
0.000309824
0.000279522
0.000264337
0.000253942
0.000249659
0.000248212
0.000247802
0.00025095
0.000256654
0.000259913
0.000265178
0.000267847
0.000269569
0.000270223
0.000270285
0.000268524
0.000264853
0.000261966
0.000258856
0.000254376
0.000249307
0.000243249
0.00023712
0.000231064
0.000224796
0.00021971
0.00021395
0.000208524
0.000203698
0.000199323
0.0001967
0.0001942
0.000192097
0.000189984
0.000189065
0.000188462
0.000187569
0.000187032
0.000186304
0.000185624
0.000184776
0.00018341
0.000181156
0.00017774
0.000173132
0.000167322
0.000160245
0.000151926
0.000142512
0.000132539
0.00012317
0.000114835
0.000106856
9.91818e-05
9.18246e-05
8.46643e-05
7.76268e-05
7.0766e-05
6.42708e-05
5.83633e-05
5.3063e-05
4.81441e-05
4.34193e-05
3.88176e-05
3.43368e-05
3.00083e-05
2.58866e-05
2.20407e-05
1.85393e-05
1.54341e-05
1.27484e-05
1.04759e-05
8.58699e-06
7.03876e-06
5.78413e-06
4.77566e-06
3.97099e-06
3.33075e-06
2.81976e-06
2.40766e-06
2.06955e-06
1.78629e-06
1.54412e-06
1.33373e-06
1.149e-06
9.85953e-07
8.41855e-07
7.14701e-07
6.02873e-07
5.04997e-07
4.19825e-07
3.46216e-07
2.83083e-07
2.29422e-07
1.84176e-07
1.46392e-07
1.15119e-07
8.95343e-08
6.87977e-08
5.22285e-08
3.91093e-08
2.89157e-08
2.10239e-08
1.51148e-08
1.05915e-08
7.42582e-09
4.89114e-09
3.4775e-09
1.85805e-09
2.75738e-09
3.36448e-07
4.46133e-07
0.00357865
0.00536906
0.00615733
0.0056541
0.00580619
0.00634434
0.00709269
0.00706601
0.00691603
0.00659387
0.00595036
0.00527528
0.00469733
0.00431083
0.0041014
0.00399584
0.00395731
0.00394748
0.00394956
0.00395905
0.00395956
0.00395315
0.00392612
0.0038746
0.00376879
0.00366376
0.0035538
0.00344878
0.0033791
0.00329965
0.00326307
0.00326634
0.00328831
0.00334828
0.00350049
0.00390704
0.00394754
0.0038556
0.00359125
0.00332819
0.00325394
0.00316047
0.00290676
0.00265587
0.00232315
0.00187574
0.00161153
0.00161332
0.00193848
0.00234318
0.00254531
0.00305659
0.0078218
0.0238756
0.0301336
0.0255132
0.0115574
0.00541119
0.00222775
0.000982727
0.00061312
0.000470041
0.000391902
0.000337309
0.000304729
0.000284194
0.000272192
0.000266242
0.000263827
0.000263287
0.000265679
0.000269604
0.000276918
0.000286136
0.000297151
0.000310576
0.000323547
0.000338537
0.000353081
0.000361093
0.000364419
0.000365423
0.000364577
0.000357924
0.000347694
0.000339133
0.000332224
0.000323934
0.000313397
0.000302317
0.000290829
0.00027815
0.000265947
0.000256052
0.000245066
0.000233644
0.000222968
0.000211892
0.000204133
0.000198017
0.000192829
0.00018772
0.000184935
0.000183594
0.000183337
0.000184362
0.00018489
0.00018584
0.000187078
0.000188384
0.000189428
0.000189921
0.000189663
0.000188545
0.000186854
0.000184299
0.000180343
0.000174287
0.000165248
0.000153656
0.000140951
0.000128538
0.000117383
0.000107526
9.89257e-05
9.0938e-05
8.28074e-05
7.46623e-05
6.72151e-05
6.11464e-05
5.65472e-05
5.30316e-05
5.01706e-05
4.75777e-05
4.49021e-05
4.19111e-05
3.85383e-05
3.48571e-05
3.10086e-05
2.71396e-05
2.33735e-05
1.98092e-05
1.65282e-05
1.35969e-05
1.10588e-05
8.92923e-06
7.1939e-06
5.81404e-06
4.7363e-06
3.90282e-06
3.25908e-06
2.75835e-06
2.36318e-06
2.04493e-06
1.78244e-06
1.56045e-06
1.36824e-06
1.19863e-06
1.04701e-06
9.10571e-07
7.87296e-07
6.7588e-07
5.75476e-07
4.85581e-07
4.05659e-07
3.35289e-07
2.73914e-07
2.21043e-07
1.76026e-07
1.38303e-07
1.07055e-07
8.16322e-08
6.12283e-08
4.4985e-08
3.27707e-08
2.25162e-08
1.66481e-08
9.13535e-09
1.69068e-08
3.59089e-08
0.00162626
0.00337845
0.00436296
0.0064136
0.00803356
0.00829308
0.00772837
0.00647372
0.00533051
0.00424704
0.00376382
0.00359746
0.00361238
0.00365636
0.00377768
0.00392232
0.00421624
0.00457337
0.00493647
0.00539497
0.00566957
0.00598897
0.00602563
0.00596723
0.00581642
0.00550662
0.00512231
0.00471802
0.00434987
0.00400766
0.00372949
0.0035285
0.00339181
0.00332571
0.00332004
0.00334732
0.00342132
0.00354358
0.00352772
0.00348118
0.00337412
0.00331951
0.00314804
0.00282921
0.00248157
0.0019109
0.00175723
0.00191303
0.00270857
0.00391419
0.00802069
0.0155159
0.0191324
0.0212936
0.0140573
0.00599724
0.00263423
0.00123219
0.000650363
0.000442882
0.00036952
0.000336748
0.000317512
0.000306123
0.000300601
0.00029797
0.000301987
0.000315811
0.000327708
0.000346896
0.000367282
0.000394082
0.000418517
0.000448805
0.000476925
0.00050078
0.000511588
0.000516806
0.000518796
0.000519002
0.000512294
0.000493726
0.000471832
0.000452556
0.000431057
0.000406984
0.00038754
0.000372463
0.000358834
0.000343361
0.000333145
0.000315965
0.000302531
0.000291064
0.00027812
0.00026459
0.000252328
0.000237849
0.000223728
0.000209013
0.000196274
0.000185364
0.000177278
0.000168016
0.000161253
0.000157353
0.000155926
0.00015634
0.000158521
0.000162181
0.00016745
0.000174229
0.000180852
0.000185001
0.000187208
0.000187897
0.000187764
0.000186945
0.000185411
0.000182394
0.00017662
0.000167163
0.000154803
0.000142613
0.000131922
0.000122991
0.00011567
0.000108636
0.000100671
9.17506e-05
8.28978e-05
7.49192e-05
6.80433e-05
6.22505e-05
5.73427e-05
5.30671e-05
4.92379e-05
4.57635e-05
4.25531e-05
3.93802e-05
3.59218e-05
3.19991e-05
2.77414e-05
2.345e-05
1.93676e-05
1.56842e-05
1.25133e-05
9.88137e-06
7.75126e-06
6.05746e-06
4.73307e-06
3.71892e-06
2.95959e-06
2.39952e-06
1.98621e-06
1.67612e-06
1.43709e-06
1.24695e-06
1.09074e-06
9.58392e-07
8.43261e-07
7.41105e-07
6.49194e-07
5.65686e-07
4.89435e-07
4.19738e-07
3.56373e-07
2.99201e-07
2.48407e-07
2.03509e-07
1.64795e-07
1.31256e-07
1.03442e-07
7.98857e-08
6.10756e-08
4.55508e-08
3.38249e-08
2.37765e-08
1.75111e-08
1.28286e-08
0.002938
0.00439043
0.00971979
0.00868185
0.00676853
0.00477921
0.00364713
0.00321344
0.00318771
0.00322059
0.00331499
0.00350298
0.00384788
0.00425631
0.00508389
0.00593372
0.00721684
0.00844504
0.00967672
0.010892
0.0116415
0.0123882
0.0124558
0.0122827
0.0118179
0.0108737
0.00970641
0.00839533
0.00717057
0.00607713
0.00522843
0.00454941
0.00400049
0.00363455
0.00344035
0.00337231
0.00337452
0.00339203
0.00342771
0.00343429
0.00339846
0.00329112
0.00302941
0.00262501
0.00196411
0.00168985
0.00187525
0.00317839
0.00807621
0.0138314
0.0153354
0.015994
0.0153262
0.00818995
0.00364522
0.00162341
0.000807501
0.000491991
0.000374117
0.000331869
0.000315909
0.000309828
0.000308314
0.000310437
0.000320895
0.000345718
0.000364143
0.00038194
0.000402318
0.00042774
0.000457185
0.000488543
0.000524452
0.000559969
0.000582204
0.000592215
0.000599732
0.000610522
0.000622005
0.000629328
0.000632012
0.000624225
0.000607512
0.000588215
0.000556564
0.000513852
0.000477606
0.000448067
0.00042502
0.000394426
0.000379829
0.000351971
0.000331427
0.000312784
0.000295114
0.000277986
0.000264313
0.000249903
0.000235882
0.000221189
0.000205991
0.000191063
0.000177131
0.000165372
0.000154593
0.000145838
0.00013961
0.000136291
0.000135254
0.000135621
0.0001367
0.000138891
0.000143936
0.000154192
0.0001663
0.000176154
0.000181491
0.000184335
0.000185664
0.000186069
0.000185841
0.000184296
0.000179566
0.000166942
0.000149578
0.000134259
0.00012357
0.000116146
0.000110148
0.000103927
9.64248e-05
8.81608e-05
8.03713e-05
7.37579e-05
6.85519e-05
6.48222e-05
6.22428e-05
6.01245e-05
5.79143e-05
5.55124e-05
5.3116e-05
5.079e-05
4.8235e-05
4.50025e-05
4.0887e-05
3.59957e-05
3.06663e-05
2.52726e-05
2.00729e-05
1.52402e-05
1.09829e-05
7.5409e-06
5.06541e-06
3.49304e-06
2.56721e-06
2.01582e-06
1.6558e-06
1.39081e-06
1.177e-06
9.98305e-07
8.49093e-07
7.25481e-07
6.22997e-07
5.37115e-07
4.638e-07
3.99988e-07
3.43505e-07
2.92841e-07
2.4718e-07
2.06305e-07
1.70149e-07
1.38566e-07
1.114e-07
8.8311e-08
6.89926e-08
5.30884e-08
4.02114e-08
2.98086e-08
2.19636e-08
1.54372e-08
0.00577713
0.00687094
0.00458766
0.0030243
0.00266177
0.00268799
0.00278443
0.0029915
0.00321768
0.00358462
0.00410297
0.00478841
0.005643
0.00687089
0.00826483
0.00989948
0.0116386
0.0133347
0.0148987
0.0163482
0.0174363
0.0183931
0.019115
0.0191959
0.0190253
0.0184739
0.0171845
0.014995
0.0124079
0.00992731
0.00785911
0.00638345
0.00535631
0.00450466
0.00386737
0.00354896
0.0034293
0.00340048
0.00337432
0.00334788
0.0033109
0.00316561
0.00284243
0.00217909
0.00172716
0.00184772
0.00351652
0.0104398
0.0137518
0.0144033
0.014163
0.0112922
0.00535452
0.00243432
0.00114634
0.000618485
0.000415996
0.000342097
0.00031641
0.00030861
0.000307166
0.000310596
0.000318782
0.000339893
0.000372756
0.000388363
0.00040408
0.000418151
0.000439846
0.000468012
0.00049986
0.000539419
0.000585092
0.000635194
0.000682331
0.000727104
0.000781908
0.000857897
0.000961035
0.001081
0.00117148
0.00121667
0.00123136
0.00119228
0.00112845
0.00102061
0.000922202
0.000832337
0.000765815
0.000674022
0.000628628
0.000558224
0.000504284
0.000445566
0.000394008
0.000347494
0.000312515
0.000285089
0.000263727
0.000244781
0.000226335
0.000208201
0.000189769
0.00017225
0.000156411
0.000143561
0.000133439
0.000126431
0.000123183
0.000123886
0.000126375
0.000127556
0.000128299
0.000128543
0.000130516
0.000140111
0.000155091
0.000166546
0.000173205
0.000178002
0.000181608
0.000183533
0.000183763
0.000182498
0.000176776
0.000159895
0.000138165
0.00012232
0.000112701
0.000106699
0.000101934
9.66023e-05
9.00211e-05
8.27681e-05
7.58379e-05
6.9875e-05
6.53448e-05
6.24116e-05
6.06351e-05
5.91656e-05
5.73291e-05
5.50201e-05
5.26088e-05
5.04568e-05
4.84955e-05
4.62513e-05
4.32039e-05
3.91296e-05
3.4185e-05
2.87711e-05
2.33604e-05
1.8393e-05
1.41568e-05
1.07352e-05
8.07987e-06
6.08195e-06
4.59976e-06
3.47531e-06
2.60145e-06
1.93054e-06
1.42937e-06
1.06473e-06
8.04687e-07
6.2124e-07
4.9166e-07
3.98599e-07
3.29636e-07
2.76463e-07
2.33655e-07
1.97419e-07
1.655e-07
1.36957e-07
1.11718e-07
8.97258e-08
7.09451e-08
5.51575e-08
4.2235e-08
3.17495e-08
2.35324e-08
1.70793e-08
0.00450461
0.00272954
0.0021199
0.00222022
0.00253529
0.00291598
0.0033501
0.00367353
0.00403522
0.00448301
0.00504658
0.00578253
0.00677961
0.00806631
0.00958959
0.0112784
0.013016
0.0147411
0.0163453
0.0177966
0.0189938
0.020027
0.0208838
0.0213843
0.021506
0.0214201
0.0209725
0.0198311
0.0173319
0.0143261
0.0113757
0.00887618
0.00702412
0.00572086
0.00479221
0.00410195
0.00365298
0.00346096
0.00338379
0.00333031
0.00320614
0.00294596
0.00238712
0.00182433
0.00183155
0.00365922
0.0102247
0.0126786
0.0133118
0.0124399
0.00827809
0.00399551
0.001846
0.000906352
0.000526819
0.000380796
0.000327566
0.000310134
0.000305892
0.000306029
0.00031179
0.000327523
0.00035772
0.000388054
0.000403597
0.000415511
0.000429601
0.000450431
0.000479764
0.000521028
0.00057166
0.000637271
0.00071846
0.000827625
0.000969777
0.00116875
0.00145636
0.00185209
0.00233855
0.00283768
0.00317673
0.0033313
0.00337002
0.00317755
0.00293525
0.00259831
0.00229622
0.00201296
0.00178365
0.00157641
0.0014232
0.00126118
0.00112772
0.000978254
0.000830814
0.000688698
0.000573702
0.000489406
0.000425908
0.000378357
0.00034019
0.000306646
0.000274224
0.000241663
0.000208773
0.0001776
0.000150197
0.000129505
0.00011703
0.000111893
0.000112416
0.000118798
0.000123982
0.000124689
0.000123397
0.000121725
0.000122688
0.000132219
0.000146378
0.00015563
0.00016252
0.0001692
0.000174653
0.000177352
0.0001775
0.000174867
0.000163518
0.000140104
0.000119837
0.000107499
0.000100939
9.71621e-05
9.36375e-05
8.89487e-05
8.30314e-05
7.66482e-05
7.05742e-05
6.54574e-05
6.18027e-05
5.96653e-05
5.84891e-05
5.7303e-05
5.53809e-05
5.27392e-05
5.00018e-05
4.77714e-05
4.60861e-05
4.4417e-05
4.21016e-05
3.87663e-05
3.44698e-05
2.95834e-05
2.4576e-05
1.98498e-05
1.56691e-05
1.21573e-05
9.32313e-06
7.08834e-06
5.32205e-06
3.91478e-06
2.81398e-06
1.98269e-06
1.37785e-06
9.52795e-07
6.63096e-07
4.70347e-07
3.43811e-07
2.6043e-07
2.04082e-07
1.6447e-07
1.35397e-07
1.1275e-07
9.38254e-08
7.72271e-08
6.26475e-08
4.99608e-08
3.91405e-08
3.00903e-08
2.26821e-08
1.67966e-08
0.000704878
0.00159742
0.00204981
0.00282721
0.00322687
0.00344021
0.0036725
0.00396308
0.00435456
0.00477812
0.00530016
0.00606207
0.00706928
0.0083135
0.00972781
0.0112958
0.0129291
0.0145188
0.0160112
0.0173825
0.0186195
0.0197422
0.0206001
0.021164
0.021514
0.0216251
0.0213081
0.0197544
0.0168898
0.0139989
0.0113086
0.00905218
0.00731829
0.00598597
0.00500813
0.0043274
0.00388318
0.0036149
0.00346873
0.00328449
0.00302996
0.00259581
0.00196026
0.00182682
0.00287374
0.00853062
0.0113777
0.0120181
0.0106178
0.00634153
0.00318797
0.00154614
0.000794793
0.000484167
0.000364871
0.000321379
0.000307128
0.000303836
0.000304541
0.000310249
0.000327484
0.000355963
0.00038537
0.000412568
0.000437401
0.00046392
0.000488946
0.000519574
0.000561169
0.000628272
0.000718434
0.000849055
0.00104793
0.00135603
0.00183533
0.00257574
0.00364892
0.00504045
0.00657766
0.00788721
0.00850994
0.00873757
0.00854628
0.00756774
0.00677916
0.00587248
0.00499074
0.00418745
0.00343208
0.00287726
0.00244093
0.00213516
0.00190028
0.00172094
0.00156861
0.00141767
0.00125041
0.0010833
0.000942456
0.000830732
0.000741733
0.000665772
0.000594486
0.000521757
0.000445569
0.000367732
0.000287557
0.000213696
0.000157117
0.000122267
0.000107654
0.000105943
0.000112098
0.000121719
0.000123809
0.000121486
0.000116523
0.000114584
0.000116804
0.000128717
0.000138638
0.000144553
0.000151108
0.000158204
0.000163408
0.000165272
0.00016464
0.000158433
0.000138816
0.000116648
0.000101555
9.36512e-05
9.03998e-05
8.89436e-05
8.64629e-05
8.18641e-05
7.61576e-05
7.03346e-05
6.51837e-05
6.11903e-05
5.84384e-05
5.68264e-05
5.59907e-05
5.50891e-05
5.31286e-05
5.01426e-05
4.71547e-05
4.48269e-05
4.32596e-05
4.1939e-05
4.01612e-05
3.74801e-05
3.38646e-05
2.95907e-05
2.50534e-05
2.06196e-05
1.65575e-05
1.30208e-05
1.00543e-05
7.6133e-06
5.61987e-06
4.02606e-06
2.79938e-06
1.8947e-06
1.2545e-06
8.18642e-07
5.32189e-07
3.49621e-07
2.35934e-07
1.65869e-07
1.22219e-07
9.4089e-08
7.50747e-08
6.13682e-08
5.05074e-08
4.12702e-08
3.31875e-08
2.62592e-08
2.0265e-08
1.55073e-08
0.000645877
0.00217561
0.00279409
0.00324669
0.00339999
0.00358841
0.00389029
0.00421945
0.00448626
0.00483737
0.00521884
0.00552937
0.00577275
0.00603819
0.00645097
0.00703782
0.00780006
0.00871656
0.00974815
0.0108874
0.0121683
0.0134944
0.0146773
0.0154161
0.0157424
0.015604
0.0152675
0.0143673
0.0129554
0.0112995
0.0095989
0.00803412
0.00670583
0.00561824
0.00487418
0.00442955
0.00406559
0.00373575
0.00346772
0.00312748
0.00280596
0.00215904
0.0018559
0.00228317
0.00650188
0.00999348
0.0108356
0.00943168
0.00522483
0.00268218
0.00136357
0.000738136
0.000466704
0.000358829
0.000319063
0.000305813
0.000302643
0.000302706
0.000306894
0.000320814
0.000350284
0.000377207
0.00040976
0.000441656
0.000474444
0.000507265
0.000538783
0.000586096
0.000667344
0.000792348
0.000986688
0.00130646
0.00180352
0.00259506
0.00396429
0.00607752
0.00906088
0.0126715
0.016172
0.0180986
0.0188367
0.0188385
0.0165232
0.0141829
0.0115704
0.00906912
0.00679095
0.00522917
0.00409494
0.00329671
0.00272536
0.00234695
0.00207185
0.00188913
0.0017618
0.00166546
0.00158056
0.00149682
0.0014153
0.00134086
0.00127363
0.00120946
0.00114238
0.00106546
0.000970921
0.000848558
0.000697591
0.000521757
0.0003532
0.00022943
0.000150101
0.000113678
0.00010562
0.000109906
0.000120694
0.000124043
0.000121837
0.00011354
0.000108489
0.000107911
0.000113055
0.000124298
0.000129593
0.000132737
0.000138017
0.00014363
0.00014707
0.000147752
0.000145608
0.000133715
0.000112727
9.67131e-05
8.75878e-05
8.34404e-05
8.20094e-05
8.11782e-05
7.95587e-05
7.54002e-05
6.95732e-05
6.42647e-05
6.00543e-05
5.71154e-05
5.53039e-05
5.43191e-05
5.36735e-05
5.26576e-05
5.02977e-05
4.70407e-05
4.40671e-05
4.1852e-05
4.04364e-05
3.94135e-05
3.81191e-05
3.6023e-05
3.29888e-05
2.92023e-05
2.49991e-05
2.07351e-05
1.67065e-05
1.31078e-05
1.00194e-05
7.43816e-06
5.34221e-06
3.70842e-06
2.49172e-06
1.62498e-06
1.03266e-06
6.43238e-07
3.96246e-07
2.44643e-07
1.54133e-07
1.01094e-07
7.00444e-08
5.14543e-08
3.9794e-08
3.19713e-08
2.5983e-08
2.11213e-08
1.67456e-08
1.32771e-08
0.00137197
0.002676
0.00301836
0.00335381
0.00350201
0.00381815
0.00410772
0.00429103
0.00445307
0.00455657
0.00468864
0.00480775
0.00492399
0.00504131
0.00517063
0.00532611
0.00548991
0.00566787
0.00586983
0.00611026
0.00640079
0.00673731
0.00712773
0.00751381
0.00784601
0.0080908
0.00820857
0.00817025
0.00791312
0.00739268
0.00674062
0.00608383
0.00550924
0.00503974
0.00469039
0.00437174
0.0040256
0.00368823
0.00334926
0.0029582
0.00237764
0.00193193
0.002041
0.00458058
0.00856439
0.0097105
0.00897674
0.00490318
0.00251792
0.001284
0.000714333
0.000462386
0.000358853
0.000319858
0.000306755
0.000303177
0.000302669
0.000305786
0.000317904
0.000340482
0.000363817
0.000392778
0.000422248
0.000458511
0.000499222
0.000545593
0.000618655
0.000755355
0.000925769
0.00115268
0.0015218
0.00208613
0.00311559
0.00507697
0.00845152
0.0133575
0.0199786
0.0270948
0.0319317
0.0341424
0.0347738
0.032387
0.0262229
0.020642
0.0148391
0.00998931
0.00722084
0.00540266
0.00417935
0.00333074
0.00273333
0.00233302
0.00203222
0.00183268
0.00171026
0.00163861
0.00158452
0.0015321
0.00148168
0.00143537
0.00139295
0.00135166
0.0013088
0.00126208
0.00120851
0.00114566
0.00106722
0.000958286
0.000784974
0.000546121
0.000326343
0.000192944
0.000128544
0.000110255
0.000111741
0.000120474
0.00012359
0.000121237
0.000111141
0.000103387
0.000101105
0.000102466
0.000109975
0.000116467
0.000118698
0.00011984
0.000122473
0.000126885
0.000129059
0.000128916
0.000124273
0.000108247
9.24007e-05
8.2807e-05
7.81332e-05
7.64126e-05
7.58049e-05
7.50284e-05
7.32526e-05
6.85581e-05
6.30359e-05
5.8614e-05
5.5507e-05
5.36035e-05
5.26014e-05
5.20186e-05
5.13234e-05
4.98036e-05
4.67664e-05
4.36243e-05
4.09834e-05
3.89464e-05
3.75868e-05
3.68109e-05
3.60796e-05
3.45953e-05
3.19047e-05
2.82935e-05
2.41353e-05
1.98466e-05
1.57784e-05
1.21512e-05
9.05812e-06
6.52014e-06
4.52746e-06
3.03586e-06
1.96971e-06
1.2396e-06
7.59021e-07
4.54217e-07
2.67569e-07
1.57011e-07
9.34536e-08
5.77789e-08
3.79083e-08
2.67593e-08
2.01687e-08
1.60686e-08
1.28278e-08
1.05455e-08
0.00160392
0.0028057
0.00315533
0.00344418
0.00367593
0.00400111
0.00418123
0.00431565
0.00443263
0.0045351
0.00460999
0.00465787
0.00470282
0.00475013
0.00482016
0.00490321
0.00497597
0.00504886
0.00511655
0.00518526
0.00524162
0.00529217
0.00535387
0.00541402
0.00546785
0.00551743
0.00555922
0.00557647
0.00557381
0.00549191
0.00539857
0.00518375
0.00497936
0.00473613
0.00449129
0.00420974
0.00386893
0.00351234
0.0030368
0.00251921
0.00203829
0.00200153
0.00325229
0.00708624
0.00855607
0.00865939
0.0050647
0.00254581
0.00131842
0.000730542
0.000472209
0.000365207
0.000324165
0.0003097
0.00030526
0.000303914
0.000305681
0.000314269
0.00033364
0.000357545
0.000377373
0.00039911
0.000429974
0.000470295
0.000524772
0.000609316
0.000747277
0.000868727
0.00106825
0.00142301
0.00206854
0.00333311
0.00602682
0.0100827
0.0156787
0.0254964
0.0373309
0.0472017
0.0520783
0.0538511
0.0536178
0.0460188
0.0373167
0.0253034
0.0161933
0.0102299
0.00704515
0.00493132
0.00364446
0.00285049
0.00230275
0.00191893
0.00162592
0.00143542
0.00132758
0.00128727
0.0012947
0.00131319
0.00133063
0.00133722
0.00133627
0.00132484
0.00130182
0.00126897
0.00122848
0.00118173
0.00112799
0.00106519
0.000989095
0.00087618
0.000680504
0.000418937
0.00023383
0.000145092
0.000116715
0.000114686
0.000119587
0.000121629
0.000118569
0.000107413
9.87296e-05
9.53737e-05
9.53129e-05
9.86308e-05
0.000104272
0.00010662
0.000107172
0.000107592
0.000109381
0.000112761
0.000113621
0.00011217
0.000103185
8.84828e-05
7.89956e-05
7.40939e-05
7.21153e-05
7.14852e-05
7.09628e-05
6.98565e-05
6.67956e-05
6.1479e-05
5.6958e-05
5.37136e-05
5.16964e-05
5.06609e-05
5.0125e-05
4.96076e-05
4.86306e-05
4.62576e-05
4.2955e-05
4.00371e-05
3.78099e-05
3.6237e-05
3.5215e-05
3.45693e-05
3.39663e-05
3.28069e-05
3.02054e-05
2.64247e-05
2.21014e-05
1.77505e-05
1.37392e-05
1.02623e-05
7.39033e-06
5.12837e-06
3.43277e-06
2.22056e-06
1.3909e-06
8.45284e-07
4.9957e-07
2.88103e-07
1.63081e-07
9.15932e-08
5.19445e-08
3.05966e-08
1.91537e-08
1.32249e-08
9.69582e-09
7.87758e-09
0.00174288
0.00289964
0.00329351
0.00353375
0.00382801
0.00411484
0.00425348
0.00436039
0.00444312
0.00451302
0.00454244
0.00455991
0.00457947
0.0046137
0.00467908
0.00475475
0.00482211
0.00490064
0.00497889
0.00506026
0.00512164
0.00516435
0.00517896
0.0051745
0.0051306
0.00505873