/*--------------------------------*- C++ -*----------------------------------*\
  =========                 |
  \\      /  F ield         | OpenFOAM: The Open Source CFD Toolbox
   \\    /   O peration     | Website:  https://openfoam.org
    \\  /    A nd           | Version:  7
     \\/     M anipulation  |
\*---------------------------------------------------------------------------*/
FoamFile
{
    version     2.0;
    format      ascii;
    class       volScalarField;
    location    "0.072";
    object      k_0;
}
// * * * * * * * * * * * * * * * * * * * * * * * * * * * * * * * * * * * * * //

dimensions      [0 2 -2 0 0 0 0];

internalField   nonuniform List<scalar> 
12225
(
1.92595e-05
1.81346e-05
1.67341e-05
1.51161e-05
1.40441e-05
1.27642e-05
1.18259e-05
1.03666e-05
8.96854e-06
7.58865e-06
6.81749e-06
6.58905e-06
6.47585e-06
6.1952e-06
5.08082e-06
4.51232e-06
1.1332e-05
1.57629e-05
1.99764e-05
1.98852e-05
1.96984e-05
1.94187e-05
1.89871e-05
1.87479e-05
1.92586e-05
1.87593e-05
1.7801e-05
1.70229e-05
1.64757e-05
1.60499e-05
1.56925e-05
1.52884e-05
1.5038e-05
1.46133e-05
1.61496e-05
1.52968e-05
1.99992e-05
1.94523e-05
1.91748e-05
1.91264e-05
1.90698e-05
1.90878e-05
1.91529e-05
1.90713e-05
1.87591e-05
1.84195e-05
1.81923e-05
1.80631e-05
1.80115e-05
1.79927e-05
1.79853e-05
1.79316e-05
1.84138e-05
1.81976e-05
2.01771e-05
1.99258e-05
1.87721e-05
1.72183e-05
1.75448e-05
1.77429e-05
1.75164e-05
1.64886e-05
1.56103e-05
1.53063e-05
1.5271e-05
1.53431e-05
1.57447e-05
1.65897e-05
1.74895e-05
1.78134e-05
1.83883e-05
1.85475e-05
2.01069e-05
2.07884e-05
2.08918e-05
2.05499e-05
1.99814e-05
1.95208e-05
1.89715e-05
1.81803e-05
1.64184e-05
1.40467e-05
1.32149e-05
1.33023e-05
1.42259e-05
1.64059e-05
1.79835e-05
1.89084e-05
1.9578e-05
1.99084e-05
2.02081e-05
2.07664e-05
2.09106e-05
2.09033e-05
2.11035e-05
2.14433e-05
2.14638e-05
2.13907e-05
2.09783e-05
2.00918e-05
1.96958e-05
1.96576e-05
1.98843e-05
2.06719e-05
2.12449e-05
2.14743e-05
2.15165e-05
2.14674e-05
2.08272e-05
2.10995e-05
2.09572e-05
2.07736e-05
2.08481e-05
2.12016e-05
2.20049e-05
2.27364e-05
2.2995e-05
2.3008e-05
2.29337e-05
2.26661e-05
2.25315e-05
2.25245e-05
2.25534e-05
2.26802e-05
2.28054e-05
2.27989e-05
2.15503e-05
2.15672e-05
2.06525e-05
2.05483e-05
2.08329e-05
2.17528e-05
2.25686e-05
2.29461e-05
2.29623e-05
2.29186e-05
2.29062e-05
2.29252e-05
2.29957e-05
2.31415e-05
2.34387e-05
2.42774e-05
2.5404e-05
2.58891e-05
2.03225e-05
2.05706e-05
2.04909e-05
2.04726e-05
2.07079e-05
2.14752e-05
2.34219e-05
2.46736e-05
2.47863e-05
2.43933e-05
2.36631e-05
2.34656e-05
2.34827e-05
2.36992e-05
2.46591e-05
2.63625e-05
2.74138e-05
2.77955e-05
2.09921e-05
2.20452e-05
2.16626e-05
2.08482e-05
2.1027e-05
2.3485e-05
2.71564e-05
2.72656e-05
2.61198e-05
2.44459e-05
2.36514e-05
2.34248e-05
2.34299e-05
2.36333e-05
2.45895e-05
2.62353e-05
2.72282e-05
2.76666e-05
2.07867e-05
2.12691e-05
2.1003e-05
2.04817e-05
2.03657e-05
2.07059e-05
2.18982e-05
2.22299e-05
2.21887e-05
2.20169e-05
2.19879e-05
2.20997e-05
2.27203e-05
2.42041e-05
2.53251e-05
2.5933e-05
2.61151e-05
2.61671e-05
2.02616e-05
2.06886e-05
2.13547e-05
2.14671e-05
2.19886e-05
2.22226e-05
2.19451e-05
2.14792e-05
2.1333e-05
2.13364e-05
2.14998e-05
2.23037e-05
2.35302e-05
2.41983e-05
2.43839e-05
2.43137e-05
2.3684e-05
2.26396e-05
2.02121e-05
2.04039e-05
2.10295e-05
2.25202e-05
2.29286e-05
2.24661e-05
2.1351e-05
2.09152e-05
2.08276e-05
2.08411e-05
2.09427e-05
2.10369e-05
2.10972e-05
2.11437e-05
2.11505e-05
2.11166e-05
2.09905e-05
2.08965e-05
2.0124e-05
2.0291e-05
2.06378e-05
2.1015e-05
2.1122e-05
2.09978e-05
2.08303e-05
2.08397e-05
2.10764e-05
2.16673e-05
2.18706e-05
2.1846e-05
2.15196e-05
2.08253e-05
2.05192e-05
2.04461e-05
2.04418e-05
2.04625e-05
2.07696e-05
2.12757e-05
2.07881e-05
2.03891e-05
2.05021e-05
2.15233e-05
2.29345e-05
2.32595e-05
2.31867e-05
2.26512e-05
2.18163e-05
2.119e-05
2.07607e-05
2.05249e-05
2.04332e-05
2.04131e-05
2.04148e-05
2.04349e-05
2.04117e-05
2.04085e-05
2.02341e-05
2.01762e-05
2.02296e-05
2.05405e-05
2.18082e-05
2.43172e-05
2.54098e-05
2.54554e-05
2.48933e-05
2.3105e-05
2.1759e-05
2.10542e-05
2.07467e-05
2.06404e-05
2.06055e-05
2.06005e-05
2.06933e-05
2.05223e-05
2.03989e-05
2.04354e-05
2.05935e-05
2.09591e-05
2.20849e-05
2.31227e-05
2.34656e-05
2.34261e-05
2.29063e-05
2.20262e-05
2.15205e-05
2.12293e-05
2.10288e-05
2.09024e-05
2.07814e-05
2.06917e-05
2.03967e-05
2.07216e-05
2.07542e-05
2.06544e-05
2.0619e-05
2.06653e-05
2.07732e-05
2.08455e-05
2.08684e-05
2.08672e-05
2.08649e-05
2.0864e-05
2.08179e-05
2.05871e-05
2.035e-05
2.02514e-05
2.02195e-05
2.02124e-05
2.00831e-05
2.04448e-05
2.07138e-05
2.08947e-05
2.09174e-05
2.07498e-05
2.04772e-05
2.03805e-05
2.03551e-05
2.03489e-05
2.03466e-05
2.03443e-05
2.03387e-05
2.03165e-05
2.02654e-05
2.0235e-05
2.02258e-05
2.02257e-05
2.00276e-05
2.00957e-05
2.03584e-05
2.08559e-05
2.11317e-05
2.11884e-05
2.11633e-05
2.09916e-05
2.07797e-05
2.06821e-05
2.06461e-05
2.06296e-05
2.06051e-05
2.05444e-05
2.04626e-05
2.04014e-05
2.03661e-05
2.03525e-05
2.00806e-05
2.00487e-05
2.00972e-05
2.02244e-05
2.04985e-05
2.06617e-05
2.07104e-05
2.07093e-05
2.06725e-05
2.05735e-05
2.05079e-05
2.04749e-05
2.04599e-05
2.04534e-05
2.04497e-05
2.04465e-05
2.04446e-05
2.04442e-05
2.02486e-05
2.02367e-05
2.02347e-05
2.02441e-05
2.02689e-05
2.03382e-05
2.03643e-05
2.03619e-05
2.03204e-05
2.02132e-05
2.01534e-05
2.01336e-05
2.01298e-05
2.01311e-05
2.01425e-05
2.01598e-05
2.0169e-05
2.0185e-05
2.05358e-05
2.0415e-05
2.04414e-05
2.04474e-05
2.03894e-05
2.02831e-05
2.02257e-05
2.01962e-05
2.01699e-05
2.01216e-05
2.00043e-05
1.97991e-05
1.96798e-05
1.96794e-05
1.97302e-05
1.98438e-05
1.99358e-05
2.00063e-05
2.03845e-05
2.05422e-05
2.05723e-05
2.0556e-05
2.04522e-05
2.0414e-05
2.03594e-05
2.02597e-05
2.01547e-05
2.00746e-05
2.0047e-05
2.00458e-05
2.00501e-05
2.00654e-05
2.01034e-05
2.01399e-05
2.01649e-05
2.0179e-05
2.03886e-05
2.04472e-05
2.04438e-05
2.03292e-05
2.02519e-05
2.02954e-05
2.02812e-05
2.02423e-05
2.0156e-05
2.01258e-05
2.01259e-05
2.0142e-05
2.01873e-05
2.02152e-05
2.02263e-05
2.02291e-05
2.02282e-05
2.02208e-05
2.08716e-05
2.10583e-05
2.09826e-05
2.06377e-05
2.04069e-05
2.02612e-05
2.02551e-05
2.0431e-05
2.05601e-05
2.04943e-05
2.02738e-05
2.01333e-05
2.00841e-05
2.00804e-05
2.00959e-05
2.01564e-05
2.02147e-05
2.02293e-05
2.01069e-05
2.00921e-05
2.00547e-05
1.99925e-05
1.98348e-05
1.9731e-05
1.97618e-05
1.99293e-05
2.00251e-05
1.99826e-05
1.97222e-05
1.95788e-05
1.96149e-05
1.98629e-05
2.07506e-05
2.24688e-05
2.41022e-05
2.47413e-05
2.02091e-05
1.87664e-05
1.60178e-05
1.61569e-05
1.7029e-05
1.96364e-05
2.6655e-05
3.78312e-05
4.52491e-05
4.89308e-05
5.10298e-05
5.33553e-05
5.74622e-05
6.55017e-05
8.36974e-05
0.000101336
0.000119228
0.000131322
3.1497e-05
0.000133327
0.000170977
0.000184356
0.00020945
0.000272147
0.000387356
0.00047146
0.000511407
0.000527471
0.000537873
0.000552205
0.00058244
0.000638382
0.000694928
0.000734032
0.000761788
0.000776643
0.00241639
0.00249148
0.00234021
0.00215863
0.002116
0.00211388
0.00211326
0.00209807
0.00202658
0.0019486
0.00190247
0.00185735
0.00179349
0.00171002
0.00162028
0.00153743
0.00147447
0.001435
0.0080246
0.0111893
0.00939164
0.00733334
0.00694963
0.00721657
0.00731459
0.00742692
0.00746104
0.00747267
0.00755835
0.00817328
0.0100738
0.0110668
0.0109968
0.0106015
0.00992167
0.00925687
0.00867984
0.00810864
0.00768797
0.00723812
0.00694184
0.00664872
0.00640239
0.00621363
0.00600484
0.00591961
0.0059252
0.00596142
0.00596905
0.00592312
0.00575407
0.00548252
0.00511318
0.00307105
0.00158561
0.00279833
0.00367934
0.00407342
0.00413208
0.00446246
0.00517899
0.00634143
0.00786442
0.00927946
0.0105284
0.0116866
0.0134515
0.0172176
0.0280243
0.0416177
0.0479172
0.0504974
0.0560869
0.0659561
0.0802184
0.0844527
0.0619128
0.0148413
0.00345397
0.00169588
0.00140133
0.00141418
0.00141931
0.00140577
0.00129358
0.00115229
0.00098787
0.000821051
0.000693841
0.000545633
0.000431052
0.000361332
0.000258039
0.000208127
0.000172559
0.000154531
0.0001491
0.00015114
0.000151924
0.000152531
0.000152805
0.000152906
0.000152584
0.000151915
0.000151291
0.000150098
0.000148979
0.000147703
0.00014653
0.000145113
0.000143832
0.000142966
0.000142085
0.000141058
0.000139817
0.000138641
0.000137047
0.000134923
0.000132591
0.000129949
0.000127135
0.000124484
0.0001208
0.000117327
0.00011336
0.00010873
0.000103669
9.8023e-05
9.18736e-05
8.52876e-05
7.85178e-05
7.17862e-05
6.53427e-05
5.94418e-05
5.42937e-05
4.99445e-05
4.60628e-05
4.23559e-05
3.88747e-05
3.55268e-05
3.22035e-05
2.89113e-05
2.56376e-05
2.23712e-05
1.91452e-05
1.59767e-05
1.29442e-05
1.02517e-05
8.02224e-06
6.24845e-06
4.86039e-06
3.78148e-06
2.94472e-06
2.29671e-06
1.79624e-06
1.41122e-06
1.11603e-06
8.90044e-07
7.16796e-07
5.83407e-07
4.79971e-07
3.98949e-07
3.34639e-07
2.82754e-07
2.40115e-07
2.04424e-07
1.74063e-07
1.47927e-07
1.25269e-07
1.05577e-07
8.84816e-08
7.36942e-08
6.09692e-08
5.00863e-08
4.08411e-08
3.30443e-08
2.65192e-08
2.1103e-08
1.66448e-08
1.30082e-08
1.00676e-08
7.71342e-09
5.84587e-09
4.38152e-09
3.24408e-09
2.37314e-09
1.71205e-09
1.21925e-09
8.53796e-10
5.9027e-10
3.98433e-10
2.66398e-10
1.73218e-10
1.0152e-10
1.44241e-10
2.70173e-08
2.9078e-06
2.30964e-06
0.00664856
0.00935224
0.00854245
0.00693348
0.00676565
0.00657244
0.00706523
0.00751976
0.00760267
0.0075666
0.00742816
0.00728054
0.00693731
0.00646773
0.00600684
0.00555255
0.00514321
0.00484168
0.00461488
0.00445289
0.00430442
0.00420713
0.0041038
0.00401529
0.00394226
0.00385743
0.00381116
0.00381487
0.00384039
0.00390057
0.004045
0.00420527
0.00437094
0.00470526
0.0047684
0.00461411
0.00419322
0.00361513
0.003098
0.00312514
0.00325379
0.00306963
0.00223438
0.00182545
0.00169972
0.00160725
0.00159855
0.00171695
0.00207435
0.00275462
0.00443399
0.00612183
0.00625532
0.00776123
0.0235107
0.0596752
0.0527398
0.0312749
0.0134545
0.00406596
0.00169071
0.00106934
0.000843796
0.000715335
0.00059721
0.00049478
0.000414477
0.000350262
0.000309356
0.000279109
0.000263988
0.000253668
0.000249417
0.00024804
0.000247682
0.000250756
0.000256463
0.000259717
0.000264965
0.000267683
0.000269432
0.000270105
0.000270184
0.000268493
0.000264829
0.000261907
0.000258817
0.000254371
0.000249331
0.000243292
0.00023716
0.00023111
0.00022483
0.000219742
0.000214
0.000208576
0.000203751
0.000199368
0.000196737
0.000194241
0.000192143
0.000190021
0.000189093
0.000188491
0.000187596
0.000187055
0.000186324
0.00018564
0.000184781
0.0001834
0.000181127
0.000177689
0.00017306
0.000167228
0.000160129
0.000151794
0.000142368
0.000132395
0.000123046
0.000114721
0.00010675
9.90823e-05
9.17303e-05
8.45732e-05
7.75377e-05
7.06804e-05
6.41917e-05
5.82927e-05
5.29997e-05
4.80854e-05
4.33635e-05
3.87643e-05
3.42858e-05
2.99601e-05
2.58417e-05
2.19998e-05
1.85029e-05
1.54025e-05
1.27215e-05
1.04535e-05
8.56857e-06
7.02379e-06
5.77206e-06
4.76602e-06
3.96335e-06
3.32469e-06
2.81493e-06
2.40376e-06
2.06633e-06
1.78358e-06
1.5418e-06
1.3317e-06
1.14723e-06
9.84386e-07
8.40471e-07
7.1348e-07
6.01799e-07
5.04058e-07
4.19008e-07
3.4551e-07
2.82478e-07
2.28909e-07
1.83744e-07
1.46031e-07
1.14822e-07
8.92923e-08
6.86029e-08
5.20738e-08
3.89881e-08
2.88221e-08
2.09529e-08
1.50615e-08
1.05526e-08
7.39733e-09
4.8717e-09
3.46304e-09
1.84815e-09
2.73007e-09
3.35744e-07
4.45812e-07
0.00357061
0.00536144
0.00615128
0.00564925
0.00580172
0.00634148
0.00709262
0.00706992
0.00692181
0.00660094
0.00595773
0.00528193
0.00470216
0.00431263
0.00410132
0.00399435
0.00395545
0.00394521
0.00394682
0.00395576
0.00395611
0.00394949
0.0039219
0.00387014
0.00376411
0.00365939
0.00354937
0.00344509
0.00337573
0.0032965
0.00326089
0.00326436
0.00328671
0.00334709
0.00350085
0.00390726
0.00394358
0.00385093
0.00358413
0.00332196
0.00324871
0.00315475
0.00289969
0.00265001
0.00231665
0.00187026
0.00160919
0.00161251
0.00194047
0.0023419
0.00254576
0.00307057
0.00795954
0.024009
0.0301796
0.0253333
0.0114561
0.00535435
0.00220279
0.000974849
0.00061063
0.000469167
0.000391347
0.000336894
0.000304384
0.000283911
0.000271938
0.000265994
0.000263576
0.000263031
0.000265399
0.000269338
0.00027661
0.000285803
0.000296764
0.000310116
0.000323051
0.000337989
0.000352641
0.000360935
0.00036436
0.000365406
0.000364663
0.000358193
0.000347963
0.000339296
0.000332364
0.000324137
0.000313638
0.000302563
0.000291075
0.000278404
0.000266141
0.000256214
0.000245243
0.0002338
0.000223111
0.000212017
0.000204223
0.000198099
0.000192916
0.000187806
0.000185022
0.000183683
0.000183427
0.000184448
0.00018497
0.000185917
0.000187151
0.00018845
0.000189482
0.000189958
0.000189681
0.000188545
0.000186842
0.000184264
0.000180278
0.000174184
0.000165098
0.000153484
0.000140781
0.000128392
0.00011726
0.000107422
9.88351e-05
9.08441e-05
8.27061e-05
7.45614e-05
6.7127e-05
6.10781e-05
5.64968e-05
5.29932e-05
5.01389e-05
4.75479e-05
4.48702e-05
4.18748e-05
3.84977e-05
3.48132e-05
3.09634e-05
2.70947e-05
2.33302e-05
1.97687e-05
1.64912e-05
1.35644e-05
1.1031e-05
8.9062e-06
7.17537e-06
5.79947e-06
4.72501e-06
3.89414e-06
3.2524e-06
2.75317e-06
2.35909e-06
2.04163e-06
1.77971e-06
1.55814e-06
1.36624e-06
1.19686e-06
1.04544e-06
9.09151e-07
7.86014e-07
6.74724e-07
5.74438e-07
4.84655e-07
4.04839e-07
3.34571e-07
2.73292e-07
2.20511e-07
1.75578e-07
1.37931e-07
1.06751e-07
8.13873e-08
6.10346e-08
4.48357e-08
3.26554e-08
2.2434e-08
1.65828e-08
9.09819e-09
1.68576e-08
3.58676e-08
0.00162499
0.0033766
0.00435897
0.00640562
0.0080321
0.00829974
0.00773689
0.00648411
0.00533903
0.00425164
0.00376582
0.00359741
0.00361206
0.00365531
0.0037755
0.00391941
0.00421228
0.00456707
0.00492993
0.00538615
0.00566013
0.0059779
0.00601311
0.00595461
0.00580385
0.00549444
0.0051114
0.00470902
0.0043425
0.00400161
0.00372496
0.00352504
0.00338916
0.00332403
0.00331906
0.00334656
0.00342226
0.00354168
0.00352479
0.003478
0.00337044
0.00331482
0.00313859
0.00282076
0.00247179
0.00190405
0.00175522
0.00191433
0.00271811
0.00393246
0.00812608
0.015574
0.0191576
0.0212857
0.0139227
0.00593971
0.00260828
0.00122087
0.000646162
0.000441442
0.000368885
0.000336401
0.000317281
0.000305872
0.000300336
0.000297699
0.000301706
0.000315518
0.000327385
0.00034646
0.000366702
0.000393369
0.000417671
0.000447809
0.00047593
0.000500213
0.000511352
0.000516712
0.000518807
0.000519086
0.00051273
0.000494427
0.000472427
0.000453025
0.000431572
0.000407451
0.000387819
0.000372629
0.000359003
0.000343504
0.000333293
0.000316198
0.000302679
0.000291212
0.0002783
0.000264775
0.000252513
0.000238031
0.000223899
0.000209172
0.00019641
0.000185472
0.000177381
0.000168128
0.000161383
0.000157495
0.00015607
0.000156482
0.000158669
0.000162345
0.000167643
0.000174428
0.00018101
0.000185104
0.000187265
0.000187924
0.000187773
0.000186936
0.000185388
0.000182333
0.000176503
0.000166983
0.0001546
0.000142437
0.000131774
0.000122875
0.000115571
0.000108535
0.000100555
9.16281e-05
8.27851e-05
7.48242e-05
6.79672e-05
6.21912e-05
5.72963e-05
5.30294e-05
4.92056e-05
4.57345e-05
4.2525e-05
3.9349e-05
3.58843e-05
3.1955e-05
2.76937e-05
2.34019e-05
1.9322e-05
1.56433e-05
1.24783e-05
9.85245e-06
7.72795e-06
6.03905e-06
4.71887e-06
3.70823e-06
2.95171e-06
2.39376e-06
1.98196e-06
1.67291e-06
1.43459e-06
1.24495e-06
1.08909e-06
9.56979e-07
8.42028e-07
7.4001e-07
6.4821e-07
5.64793e-07
4.88621e-07
4.18996e-07
3.55701e-07
2.986e-07
2.47875e-07
2.03045e-07
1.64395e-07
1.30917e-07
1.03159e-07
7.96539e-08
6.08894e-08
4.54039e-08
3.37091e-08
2.36912e-08
1.74451e-08
1.27819e-08
0.0029395
0.00438977
0.00972547
0.0086904
0.00677964
0.00479088
0.00365209
0.0032145
0.00318728
0.00321971
0.00331341
0.00350092
0.003844
0.00425037
0.00507599
0.00592191
0.00720434
0.00842871
0.00966084
0.010872
0.0116201
0.0123638
0.0124273
0.0122531
0.0117851
0.0108412
0.00967647
0.0083698
0.00715026
0.00606192
0.00521786
0.00454144
0.00399472
0.00363104
0.00343832
0.00337142
0.00337399
0.00339158
0.0034266
0.00343208
0.00339526
0.00328494
0.00301946
0.00261235
0.00195431
0.00168692
0.00187809
0.00319864
0.0081576
0.0138633
0.0153476
0.0160013
0.0152748
0.0080893
0.00360469
0.00160792
0.000801278
0.000489577
0.000373197
0.000331411
0.000315567
0.000309521
0.000308016
0.000310143
0.000320552
0.000345339
0.000363816
0.000381495
0.000401676
0.000426849
0.000456114
0.000487272
0.000523049
0.00055879
0.00058174
0.000592012
0.000599473
0.000610066
0.000621504
0.00062871
0.000631318
0.000623345
0.000606319
0.000586958
0.000555571
0.000512964
0.000476542
0.00044691
0.000424032
0.000393516
0.000379006
0.000351462
0.000330951
0.000312474
0.000294957
0.000277928
0.000264315
0.000249951
0.000235947
0.000221261
0.000206065
0.000191135
0.000177204
0.000165435
0.000154651
0.000145915
0.000139728
0.000136449
0.000135384
0.000135745
0.000136807
0.000139012
0.000144144
0.000154479
0.00016659
0.000176333
0.000181599
0.000184395
0.000185695
0.000186084
0.000185841
0.000184263
0.000179452
0.000166686
0.000149311
0.000134063
0.000123436
0.00011605
0.000110064
0.000103832
9.63122e-05
8.80463e-05
8.02705e-05
7.36765e-05
6.84917e-05
6.47811e-05
6.22137e-05
6.00988e-05
5.78876e-05
5.54854e-05
5.30903e-05
5.07639e-05
4.82033e-05
4.49611e-05
4.08352e-05
3.59364e-05
3.06038e-05
2.52109e-05
2.00146e-05
1.51877e-05
1.09389e-05
7.50757e-06
5.04322e-06
3.47982e-06
2.55968e-06
2.0113e-06
1.65272e-06
1.38841e-06
1.17497e-06
9.96569e-07
8.4763e-07
7.24262e-07
6.21982e-07
5.36258e-07
4.63063e-07
3.99341e-07
3.42928e-07
2.92319e-07
2.46709e-07
2.05883e-07
1.69776e-07
1.38242e-07
1.11122e-07
8.80764e-08
6.87981e-08
5.29297e-08
4.00837e-08
2.97092e-08
2.18855e-08
1.53797e-08
0.00578215
0.00688531
0.00460049
0.00302757
0.00266152
0.00268745
0.00278345
0.00298984
0.00321531
0.00358053
0.00409723
0.00478195
0.00563648
0.00686547
0.00826037
0.0098982
0.011641
0.0133385
0.0149032
0.0163519
0.0174375
0.0183943
0.0191097
0.0191851
0.0190109
0.0184524
0.0171476
0.0149509
0.012364
0.00989055
0.00783285
0.006367
0.00534524
0.0044963
0.00386248
0.00354683
0.00342845
0.00339975
0.00337315
0.00334655
0.00330826
0.00315822
0.00283037
0.00216679
0.00172294
0.00184928
0.0035532
0.0105033
0.0137575
0.0144027
0.0141485
0.0112248
0.00529935
0.00240854
0.0011356
0.00061446
0.000414448
0.00034145
0.000316054
0.000308324
0.000306891
0.000310279
0.000318456
0.000339478
0.000372405
0.000388076
0.000403751
0.000417676
0.000439082
0.000467052
0.00049868
0.000537998
0.00058346
0.000633549
0.000680873
0.000725534
0.00077962
0.000854377
0.000956019
0.00107462
0.00116401
0.00120867
0.00122317
0.00118416
0.00112108
0.00101415
0.000915938
0.000826326
0.00076063
0.000669193
0.000624135
0.000554514
0.000500995
0.000442954
0.000391978
0.000345991
0.000311389
0.000284224
0.000263052
0.000244242
0.000225886
0.000207817
0.00018944
0.000171981
0.000156208
0.000143425
0.000133368
0.000126417
0.000123295
0.000124055
0.000126503
0.00012764
0.000128346
0.000128581
0.000130633
0.000140449
0.000155417
0.000166756
0.000173345
0.000178103
0.000181677
0.000183567
0.000183776
0.000182471
0.000176638
0.000159556
0.000137863
0.000122129
0.000112587
0.000106624
0.000101865
9.65191e-05
8.99228e-05
8.26678e-05
7.57481e-05
6.98026e-05
6.52938e-05
6.238e-05
6.06139e-05
5.91444e-05
5.73026e-05
5.499e-05
5.25802e-05
5.04316e-05
4.84702e-05
4.62196e-05
4.31611e-05
3.90753e-05
3.41228e-05
2.87065e-05
2.32989e-05
1.8339e-05
1.41124e-05
1.07002e-05
8.0533e-06
6.06228e-06
4.58506e-06
3.46379e-06
2.59238e-06
1.92359e-06
1.42422e-06
1.06102e-06
8.02061e-07
6.19398e-07
4.90361e-07
3.97664e-07
3.28939e-07
2.75922e-07
2.33214e-07
1.97041e-07
1.65164e-07
1.36658e-07
1.11455e-07
8.94987e-08
7.07528e-08
5.4998e-08
4.21052e-08
3.16461e-08
2.34515e-08
1.70173e-08
0.004512
0.00273333
0.00211861
0.00221823
0.00253308
0.00291348
0.00334739
0.00367031
0.00403137
0.00447961
0.0050447
0.00578156
0.0067803
0.00806983
0.00959715
0.0112897
0.0130286
0.0147544
0.0163588
0.0178096
0.0190056
0.0200375
0.0208922
0.0213887
0.021507
0.0214181
0.0209645
0.0198105
0.0172969
0.0142881
0.0113396
0.00884687
0.00700307
0.00570661
0.00478285
0.00409629
0.00365002
0.00345955
0.00338267
0.00332855
0.00320108
0.00293659
0.00237459
0.00181924
0.00183191
0.00370126
0.0102655
0.012679
0.0133055
0.0124126
0.00821575
0.00396434
0.00183021
0.000899196
0.000523928
0.0003797
0.000327103
0.000309871
0.000305676
0.00030582
0.000311537
0.000327247
0.000357363
0.000387771
0.0004035
0.000415475
0.000429377
0.000450017
0.000479054
0.000520056
0.000570412
0.000635688
0.000716387
0.000824927
0.000966011
0.00116285
0.00144686
0.00183766
0.00231891
0.00281415
0.00315176
0.00330599
0.00334509
0.00315539
0.00291488
0.00258035
0.00228006
0.00199877
0.0017703
0.00156351
0.00141205
0.00125115
0.00111875
0.000970286
0.000823759
0.000682812
0.000569556
0.00048577
0.000422762
0.000375602
0.000337738
0.00030444
0.000272234
0.000239894
0.000207254
0.000176369
0.000149311
0.000128978
0.000116776
0.000111826
0.000112525
0.00011902
0.000124076
0.000124718
0.000123371
0.000121718
0.000122776
0.000132562
0.000146666
0.000155821
0.000162676
0.000169335
0.000174749
0.000177399
0.000177517
0.000174804
0.000163234
0.000139758
0.000119588
0.00010736
0.000100865
9.71129e-05
9.35804e-05
8.88739e-05
8.29443e-05
7.65609e-05
7.04964e-05
6.5397e-05
6.17629e-05
5.96429e-05
5.84737e-05
5.72832e-05
5.53518e-05
5.2705e-05
4.99705e-05
4.77472e-05
4.60658e-05
4.43929e-05
4.20675e-05
3.87205e-05
3.4415e-05
2.95248e-05
2.45187e-05
1.97977e-05
1.56243e-05
1.21204e-05
9.29383e-06
7.0652e-06
5.30347e-06
3.8999e-06
2.80245e-06
1.9741e-06
1.37168e-06
9.48526e-07
6.60224e-07
4.68457e-07
3.42579e-07
2.59617e-07
2.03529e-07
1.64078e-07
1.35106e-07
1.12518e-07
9.36268e-08
7.70524e-08
6.24942e-08
4.98285e-08
3.90285e-08
2.99977e-08
2.26074e-08
1.67375e-08
0.000706984
0.00159787
0.00204725
0.00282294
0.00322494
0.00343801
0.0036695
0.00395918
0.00435131
0.0047763
0.00529942
0.0060625
0.00707231
0.00832179
0.0097428
0.0113156
0.0129512
0.0145425
0.0160375
0.0174095
0.0186446
0.0197645
0.0206193
0.0211796
0.0215262
0.0216334
0.0213108
0.019746
0.0168733
0.0139782
0.0112882
0.00903413
0.00730337
0.00597396
0.00499911
0.00432202
0.00388092
0.00361406
0.00346752
0.00328075
0.00302343
0.00258563
0.00195376
0.00182608
0.00289811
0.00857328
0.0113767
0.012007
0.010568
0.00628344
0.00315997
0.00153354
0.000789425
0.000481963
0.000364027
0.000321045
0.00030695
0.000303692
0.000304388
0.000310059
0.000327249
0.000355575
0.000384978
0.000412209
0.000437143
0.000463764
0.000488847
0.000519308
0.000560565
0.000627289
0.000717111
0.000847033
0.00104465
0.00135045
0.00182544
0.00255863
0.0036214
0.0050006
0.00652628
0.00783406
0.00845779
0.00868678
0.00850566
0.00753543
0.00675037
0.00584392
0.0049736
0.00417761
0.00342782
0.00287522
0.00243935
0.00213331
0.00189835
0.00171839
0.00156513
0.00141281
0.00124371
0.00107644
0.00093559
0.000823994
0.000735187
0.000659451
0.000588457
0.000516184
0.000440804
0.00036354
0.000283984
0.000211024
0.000155439
0.000121407
0.000107349
0.000105894
0.000112324
0.000121898
0.000123833
0.000121409
0.000116457
0.000114582
0.00011694
0.000129031
0.000138833
0.000144706
0.000151263
0.000158343
0.000163499
0.000165315
0.000164638
0.000158274
0.00013845
0.000116355
0.000101383
9.35696e-05
9.03682e-05
8.89173e-05
8.6413e-05
8.1791e-05
7.60763e-05
7.02581e-05
6.51206e-05
6.1144e-05
5.84082e-05
5.68098e-05
5.59797e-05
5.50724e-05
5.30967e-05
5.01051e-05
4.71215e-05
4.48027e-05
4.3242e-05
4.19202e-05
4.01344e-05
3.74426e-05
3.3818e-05
2.9539e-05
2.50009e-05
2.057e-05
1.65132e-05
1.29829e-05
1.00229e-05
7.58729e-06
5.5986e-06
4.00923e-06
2.78663e-06
1.88546e-06
1.24808e-06
8.1434e-07
5.29406e-07
3.47872e-07
2.34857e-07
1.65208e-07
1.21805e-07
9.38194e-08
7.48898e-08
6.12305e-08
5.03945e-08
4.11726e-08
3.31027e-08
2.61859e-08
2.02038e-08
1.54562e-08
0.000642467
0.00217012
0.00279185
0.00324493
0.00339806
0.00358539
0.00388583
0.00421621
0.00448385
0.00483645
0.00522019
0.00553527
0.00578391
0.00605299
0.00646836
0.00706055
0.00783146
0.00875722
0.00979472
0.0109373
0.0122195
0.0135465
0.0147293
0.0154646
0.015789
0.0156377
0.0152907
0.0143793
0.0129575
0.0112948
0.00958949
0.00802317
0.00669521
0.00560956
0.00486906
0.00442761
0.00406431
0.00373436
0.00346546
0.00312261
0.00279861
0.00215202
0.00185445
0.00229416
0.00654632
0.00999506
0.0108253
0.00938478
0.00518837
0.00265765
0.00135205
0.000733184
0.00046475
0.000358111
0.000318812
0.00030571
0.000302572
0.000302627
0.000306774
0.000320644
0.000349993
0.000376861
0.000409332
0.000441271
0.000474138
0.000507077
0.000538713
0.000585829
0.000666783
0.000791289
0.000984776
0.00130281
0.00179745
0.00258365
0.00394248
0.00603966
0.00900208
0.012591
0.0160807
0.0180199
0.0187687
0.0187809
0.0165036
0.0141728
0.0115787
0.00910431
0.0068206
0.00525044
0.00410903
0.00330592
0.00273132
0.00235093
0.00207445
0.00189083
0.00176291
0.00166612
0.00158074
0.00149612
0.00141379
0.00133865
0.0012708
0.00120602
0.00113823
0.00106048
0.000964794
0.00084162
0.000690125
0.000514437
0.000348098
0.000225927
0.000148242
0.000112949
0.00010545
0.00011001
0.000120884
0.000124079
0.000121749
0.000113378
0.000108441
0.000107943
0.000113291
0.000124501
0.000129712
0.000132849
0.000138144
0.00014374
0.000147137
0.000147784
0.000145559
0.000133424
0.000112439
9.65225e-05
8.74897e-05
8.34004e-05
8.19941e-05
8.1161e-05
7.95244e-05
7.53233e-05
6.94951e-05
6.41986e-05
6.00052e-05
5.70826e-05
5.52845e-05
5.4308e-05
5.36632e-05
5.26388e-05
5.02606e-05
4.70019e-05
4.40347e-05
4.18292e-05
4.04214e-05
3.93995e-05
3.8099e-05
3.59928e-05
3.29488e-05
2.91556e-05
2.49496e-05
2.06866e-05
1.66619e-05
1.30686e-05
9.98607e-06
7.41043e-06
5.31997e-06
3.6914e-06
2.47928e-06
1.61629e-06
1.02682e-06
6.39465e-07
3.93893e-07
2.43221e-07
1.53296e-07
1.00607e-07
6.97592e-08
5.12817e-08
3.96836e-08
3.18932e-08
2.59214e-08
2.10686e-08
1.67006e-08
1.32375e-08
0.00136834
0.00267425
0.00301711
0.00335193
0.00349897
0.00381333
0.00410398
0.0042883
0.00445134
0.00455467
0.00468716
0.00480725
0.00492437
0.00504251
0.00517234
0.00532868
0.00549397
0.00567363
0.00587756
0.00612024
0.0064138
0.00675355
0.00714732
0.0075365
0.00786985
0.00811256
0.00822932
0.00818551
0.00792369
0.00739863
0.00674259
0.00608315
0.00550743
0.00503809
0.00468937
0.00437073
0.00402445
0.00368653
0.0033455
0.00295366
0.00237136
0.00193012
0.00204508
0.00462001
0.00857085
0.00970384
0.00893562
0.00486623
0.00249844
0.00127386
0.000709639
0.000460456
0.000358153
0.00031964
0.000306703
0.000303163
0.000302643
0.000305789
0.000317954
0.000340459
0.000363626
0.000392475
0.000421857
0.000458073
0.000498842
0.000545284
0.000618253
0.000754707
0.000924937
0.00115105
0.00151905
0.00208163
0.00310543
0.00505509
0.00840505
0.0132849
0.0198745
0.02698
0.0318363
0.034062
0.0347072
0.0323878
0.02626
0.0207099
0.0149294
0.0100639
0.00726696
0.00543315
0.00419993
0.00334457
0.00274273
0.00233998
0.00203789
0.00183745
0.00171427
0.00164178
0.00158678
0.00153363
0.0014826
0.00143584
0.00139311
0.0013516
0.00130858
0.00126157
0.00120759
0.0011442
0.00106487
0.000954193
0.000777631
0.000538145
0.000321032
0.000189962
0.000127313
0.000109953
0.000111762
0.000120654
0.000123627
0.000121158
0.000110919
0.0001033
0.000101104
0.000102552
0.000110178
0.000116577
0.00011876
0.0001199
0.000122563
0.000126967
0.000129103
0.000128926
0.000124141
0.000107955
9.22042e-05
8.27007e-05
7.80864e-05
7.63958e-05
7.57943e-05
7.50117e-05
7.32133e-05
6.84783e-05
6.29664e-05
5.85619e-05
5.54722e-05
5.35833e-05
5.25903e-05
5.201e-05
5.13105e-05
4.97742e-05
4.67276e-05
4.35885e-05
4.09541e-05
3.89247e-05
3.75731e-05
3.68018e-05
3.60668e-05
3.45708e-05
3.18678e-05
2.8248e-05
2.40857e-05
1.97974e-05
1.5733e-05
1.21115e-05
9.02472e-06
6.49316e-06
4.50668e-06
3.02062e-06
1.95903e-06
1.23242e-06
7.54378e-07
4.51322e-07
2.65826e-07
1.55995e-07
9.28783e-08
5.74593e-08
3.7731e-08
2.66584e-08
2.01079e-08
1.60266e-08
1.27958e-08
1.05173e-08
0.00160111
0.00280444
0.00315353
0.00344136
0.00367137
0.00399647
0.004178
0.00431286
0.00442999
0.00453289
0.00460869
0.00465728
0.00470256
0.00474965
0.00481904
0.00490215
0.00497523
0.00504822
0.00511591
0.00518471
0.00524141
0.00529279
0.00535533
0.00541685
0.00547246
0.00552364
0.0055669
0.00558479
0.00558161
0.00549797
0.00540262
0.00518604
0.00498043
0.00473651
0.00449135
0.00420927
0.00386763
0.00351004
0.00303322
0.00251525
0.00203647
0.00200317
0.00327996
0.00710138
0.00855478
0.00863812
0.00502337
0.0025254
0.0013085
0.000725965
0.00047025
0.000364483
0.000323953
0.000309667
0.00030528
0.000303938
0.000305749
0.000314391
0.000333703
0.000357538
0.00037734
0.000398945
0.000429737
0.00047001
0.000524525
0.000609047
0.000746981
0.000868265
0.00106745
0.00142136
0.00206503
0.00332489
0.00600786
0.0100515
0.0156263
0.0254013
0.0372176
0.0470993
0.0520172
0.0538079
0.0536043
0.0460781
0.037409
0.0254428
0.0163262
0.0103199
0.00711194
0.00498345
0.00368474
0.00287956
0.0023235
0.0019347
0.00163803
0.001445
0.0013356
0.00129462
0.00130145
0.00131907
0.00133518
0.0013408
0.00133904
0.00132675
0.0013031
0.00126974
0.00122887
0.00118177
0.00112769
0.00106454
0.000987709
0.000872764
0.00067314
0.000411828
0.00023
0.000143468
0.000116276
0.000114641
0.000119725
0.000121662
0.000118473
0.000107175
9.86239e-05
9.53527e-05
9.53381e-05
9.87695e-05
0.000104372
0.000106668
0.0001072
0.000107624
0.00010945
0.000112813
0.000113639
0.00011213
0.000102961
8.82965e-05
7.88876e-05
7.40431e-05
7.20961e-05
7.14758e-05
7.09504e-05
6.98325e-05
6.67304e-05
6.141e-05
5.69041e-05
5.36767e-05
5.1675e-05
5.06497e-05
5.01174e-05
4.9598e-05
4.86121e-05
4.62189e-05
4.29157e-05
4.00051e-05
3.77859e-05
3.62203e-05
3.52041e-05
3.45616e-05
3.39561e-05
3.27864e-05
3.01664e-05
2.63769e-05
2.205e-05
1.77011e-05
1.36949e-05
1.02246e-05
7.35979e-06
5.10481e-06
3.41549e-06
2.20845e-06
1.38276e-06
8.40028e-07
4.96297e-07
2.86135e-07
1.61937e-07
9.09498e-08
5.15936e-08
3.04091e-08
1.90549e-08
1.31711e-08
9.66511e-09
7.85588e-09
0.00174048
0.00289804
0.00329098
0.00353019
0.00382288
0.00411063
0.00425053
0.00435778
0.00444064
0.00451164
0.00454186
0.00455967
0.00457908
0.00461248
0.00467719
0.00475313
0.00482074
0.00489906
0.00497701
0.00505829
0.00511938
0.00516142
0.00517579
0.00517078
0.00512709
0.00505546
0.0049588