/*--------------------------------*- C++ -*----------------------------------*\
  =========                 |
  \\      /  F ield         | OpenFOAM: The Open Source CFD Toolbox
   \\    /   O peration     | Website:  https://openfoam.org
    \\  /    A nd           | Version:  7
     \\/     M anipulation  |
\*---------------------------------------------------------------------------*/
FoamFile
{
    version     2.0;
    format      ascii;
    class       volScalarField;
    location    "0.072";
    object      nut;
}
// * * * * * * * * * * * * * * * * * * * * * * * * * * * * * * * * * * * * * //

dimensions      [0 2 -1 0 0 0 0];

internalField   nonuniform List<scalar> 
12225
(
0
0
0
0
0
0
6.45542e-11
0
0
0
0
0
0
0
0
2.34966e-10
1.0407e-09
0
0
0
0
0
0
0
3.96225e-10
1.65464e-10
0
0
0
0
0
0
4.60177e-11
3.72247e-10
1.0469e-09
0
0
2.40717e-10
5.61989e-10
7.08256e-11
0
4.76779e-10
1.15434e-09
6.39216e-10
0
0
0
0
0
0
7.29557e-11
1.85054e-10
1.0815e-09
0
3.2551e-08
1.58077e-08
1.07535e-08
1.9499e-09
0
0
9.27208e-10
4.85842e-10
0
0
0
0
0
0
0
0
8.4285e-10
0
2.53265e-07
1.85155e-07
5.23629e-08
0
0
0
0
0
2.79075e-09
3.44709e-09
2.96318e-09
1.67851e-09
5.70636e-11
0
0
0
0
0
6.88045e-08
7.03342e-08
3.14268e-08
0
4.35477e-09
2.11605e-08
1.24247e-08
1.40251e-10
0
0
2.63207e-10
8.56916e-09
3.56968e-09
0
0
0
0
0
3.83973e-07
1.99218e-07
6.31119e-08
1.16651e-08
2.46865e-08
5.71792e-08
4.32409e-08
1.75287e-08
4.42278e-09
0
0
0
0
0
0
0
0
0
5.8158e-07
5.60837e-07
2.18737e-07
4.51498e-08
6.5086e-08
1.64586e-07
1.65557e-07
1.12253e-07
6.0865e-08
1.06223e-08
0
0
0
0
0
0
0
0
2.71639e-08
6.81364e-07
6.66339e-07
2.48484e-07
1.79486e-07
3.61414e-07
5.04154e-07
5.83433e-07
3.30821e-07
0
0
0
0
5.304e-10
0
0
0
0
0
8.61311e-07
1.06931e-06
1.07742e-06
4.07863e-07
6.03723e-07
1.17314e-06
1.28836e-06
0
0
0
0
0
0
0
0
0
0
0
7.78882e-07
1.01411e-06
1.08754e-06
7.03405e-07
7.12281e-07
7.57176e-07
0
0
0
0
0
0
0
0
0
0
0
0
5.11334e-07
1.12246e-06
6.72142e-07
4.89219e-07
7.18225e-07
0
0
0
0
0
0
0
0
0
0
0
0
0
6.03675e-07
6.76031e-07
5.31386e-07
5.06452e-07
8.14859e-07
0
0
0
0
0
0
0
0
0
0
0
0
0
8.59906e-07
5.9543e-07
3.26799e-07
4.46428e-07
4.38753e-07
0
0
0
0
0
0
0
0
0
0
0
3.57958e-08
0
6.08487e-07
8.59943e-07
0
0
0
0
0
0
0
0
0
0
0
0
0
0
0
0
0
0
0
0
0
0
0
2.87319e-07
2.77328e-07
1.17146e-07
0
0
0
7.67483e-09
3.93972e-08
4.45273e-08
1.95278e-08
0
0
6.3248e-07
3.69462e-07
9.24187e-08
0
0
0
8.36669e-07
7.91908e-07
3.38425e-07
0
0
0
0
0
0
0
0
0
0
6.03558e-07
9.50932e-07
7.37726e-07
2.03646e-07
0
0
0
0
0
9.16309e-08
0
0
0
0
0
0
0
4.72333e-07
1.02909e-06
1.12149e-06
1.07521e-06
0
0
0
0
0
0
0
0
0
0
0
0
2.83112e-09
1.24842e-07
8.02149e-07
6.59422e-07
2.79505e-07
0
0
0
0
0
0
0
0
0
0
0
0
0
0
0
3.25309e-07
3.58603e-07
1.03406e-07
2.11854e-09
0
0
0
0
0
0
0
0
0
0
0
0
0
0
0
3.07393e-08
1.78446e-08
0
0
0
0
0
0
0
0
0
0
0
0
0
0
0
0
0
0
0
0
0
0
0
0
0
0
0
0
0
0
0
3.60446e-08
3.40192e-07
0
0
3.99344e-08
1.28368e-07
6.90177e-08
0
0
0
0
0
0
0
0
0
0
0
0
0
4.2044e-08
0
3.23991e-08
1.25947e-07
1.4563e-07
1.02805e-07
2.68643e-08
0
0
0
0
0
0
0
0
0
3.84514e-08
6.13126e-08
4.69769e-09
4.02654e-08
6.76856e-08
5.59877e-08
1.1899e-08
1.35341e-08
3.27381e-08
1.21561e-08
0
0
0
0
0
0
0
0
4.53967e-08
0
0
0
0
0
0
0
0
0
0
0
0
0
0
0
0
0
7.26189e-09
0
0
0
0
0
0
0
0
0
0
0
0
0
0
0
0
0
7.93159e-09
0
0
0
0
0
0
0
0
0
0
0
0
0
0
0
0
0
6.0438e-08
0
0
0
0
0
0
0
0
0
0
0
0
0
0
0
0
0
0
2.2019e-06
4.87127e-06
2.98365e-06
0
0
0
0
0
0
0
3.61486e-07
7.53527e-07
6.37252e-07
3.17162e-07
1.87716e-08
0
0
0
0
0
0
0
0
0
0
2.66047e-08
6.99779e-08
9.89445e-08
1.11178e-07
9.89124e-08
5.65857e-08
0
0
1.0252e-07
1.54129e-07
0
0
0
1.03311e-06
3.48372e-06
5.05985e-06
1.57319e-06
0
0
0
0
9.66399e-07
1.65756e-06
1.20876e-06
4.54119e-07
9.98633e-07
6.63609e-06
1.71249e-05
2.47681e-05
3.38959e-05
4.61755e-05
4.83068e-05
3.01675e-05
7.85039e-06
1.49029e-06
2.7385e-07
1.73677e-08
0
3.98091e-09
3.08774e-08
4.82606e-08
5.55378e-08
5.5283e-08
5.06406e-08
4.47998e-08
3.7018e-08
2.98017e-08
2.3795e-08
1.66709e-08
1.14767e-08
6.83487e-09
2.67087e-09
0
0
0
0
0
0
0
0
0
0
0
0
0
0
0
0
0
0
0
0
0
0
0
0
0
0
0
0
0
0
0
0
0
0
0
0
0
0
0
0
0
0
0
0
0
0
0
0
0
0
0
0
0
0
0
0
0
0
0
0
0
0
0
0
0
0
0
0
0
0
0
0
0
0
0
0
0
0
0
0
0
0
0
0
0
0
0
0
0
0
0
0
0
0
0
0
0
0
0
2.06541e-11
9.31149e-10
9.08864e-11
0
0
2.66754e-06
0
0
0
0
0
0
0
0
5.64041e-07
8.90026e-07
8.94325e-07
6.56987e-07
3.29889e-07
4.50311e-08
0
0
0
0
0
0
0
0
0
5.01758e-08
9.42456e-08
1.24226e-07
1.37327e-07
1.23356e-07
7.33479e-08
0
0
2.53099e-07
2.45613e-07
0
0
0
3.57731e-07
6.65325e-07
6.96169e-07
3.17322e-07
0
0
0
0
1.67827e-07
6.60327e-07
8.07506e-07
1.51128e-06
1.99241e-06
6.0013e-07
6.40968e-07
1.32318e-06
3.21808e-06
3.44409e-06
3.43582e-06
3.06777e-06
1.72405e-06
7.90042e-07
3.13059e-07
9.9956e-08
3.62527e-08
3.30423e-08
4.13815e-08
4.62129e-08
4.62379e-08
4.40012e-08
4.04687e-08
3.69728e-08
3.3233e-08
2.94781e-08
2.54716e-08
2.10537e-08
1.6265e-08
1.09716e-08
5.00764e-09
0
0
0
0
0
0
0
0
0
0
0
0
0
0
0
0
0
0
0
0
0
0
0
0
0
0
0
0
0
0
0
0
0
0
0
0
0
0
0
0
0
0
0
0
0
0
0
0
0
0
0
0
0
0
0
0
0
0
0
0
0
0
0
0
0
0
0
0
0
0
0
0
0
0
0
0
0
0
0
0
0
0
0
0
0
0
0
0
0
0
0
0
0
0
0
0
0
0
3.3956e-13
4.00159e-12
4.10983e-10
0
2.56343e-07
1.00259e-06
1.4843e-06
0
0
0
0
0
0
3.54688e-08
2.32082e-07
2.9691e-07
2.18802e-07
1.37947e-08
0
0
0
0
0
0
0
0
0
0
0
1.9979e-07
4.42685e-07
6.23282e-07
7.28463e-07
7.38948e-07
6.46329e-07
4.63893e-07
2.49056e-07
1.37741e-07
4.63786e-07
5.63327e-07
0
0
4.46732e-07
6.79883e-07
6.74674e-07
8.38168e-07
1.01371e-06
8.14111e-07
8.5452e-08
0
0
0
1.33422e-06
8.26921e-07
0
0
0
0
0
3.75451e-07
4.5624e-07
3.77929e-07
4.98789e-07
4.73246e-07
3.3381e-07
2.1916e-07
1.68693e-07
1.6129e-07
1.71813e-07
1.8009e-07
1.78935e-07
1.69635e-07
1.55794e-07
1.40361e-07
1.2539e-07
1.11014e-07
9.73971e-08
8.37105e-08
6.9464e-08
5.43986e-08
3.81297e-08
2.07018e-08
1.59239e-09
0
0
0
0
0
0
0
0
0
0
0
0
0
0
0
0
0
0
0
0
0
0
0
0
0
0
0
0
0
0
0
0
0
0
0
0
0
0
0
0
4.94581e-09
6.05953e-09
5.191e-09
3.79303e-09
2.54962e-09
1.71525e-09
1.28902e-09
1.10763e-09
1.03069e-09
9.90804e-10
8.66742e-10
6.222e-10
2.93355e-10
0
0
0
0
0
0
0
0
0
0
0
0
0
0
0
0
0
0
0
0
0
0
0
0
0
0
0
0
0
0
0
0
0
0
0
0
0
0
0
0
0
0
0
0
5.67403e-13
0
1.26992e-10
0
1.44001e-06
2.48575e-06
1.40569e-06
1.34433e-06
1.41988e-06
1.3615e-06
1.20524e-06
9.16621e-07
4.67779e-07
0
0
0
0
0
0
0
0
0
0
0
0
0
0
0
0
0
8.85241e-07
1.81176e-06
2.3862e-06
2.80576e-06
3.20171e-06
3.4801e-06
3.41984e-06
2.85343e-06
2.38367e-06
2.16128e-06
1.30789e-06
1.22759e-06
1.58798e-06
1.5748e-06
1.58408e-06
1.99081e-06
2.37105e-06
2.54005e-06
2.13511e-06
0
0
0
0
0
0
0
0
0
0
8.29782e-08
6.35021e-08
6.06526e-09
9.00886e-08
1.66931e-07
1.98913e-07
2.67845e-07
3.68893e-07
4.36512e-07
4.3497e-07
3.85683e-07
3.24898e-07
2.70952e-07
2.24376e-07
1.90692e-07
1.67783e-07
1.55959e-07
1.52307e-07
1.57669e-07
1.69081e-07
1.80802e-07
1.76373e-07
1.27382e-07
7.34413e-09
0
0
0
0
0
0
0
0
0
0
0
0
0
0
0
0
0
0
0
0
0
0
0
0
0
0
0
0
0
0
0
0
0
0
0
0
0
0
0
0
0
0
0
0
0
0
0
0
0
0
1.89216e-09
9.70271e-09
1.25982e-08
1.18949e-08
9.33432e-09
6.32451e-09
3.63257e-09
1.52757e-09
3.91418e-11
0
0
0
0
0
0
0
0
0
0
0
0
0
0
0
0
0
0
0
0
0
0
0
0
0
0
0
0
0
0
0
0
0
0
0
0
0
0
0
0
1.52923e-10
0
9.53311e-07
6.2574e-07
1.04119e-06
1.14235e-06
1.15839e-06
1.00827e-06
5.46426e-07
0
0
0
0
0
0
0
0
0
0
0
0
0
0
0
0
0
0
0
0
6.47229e-08
4.01113e-07
5.36832e-07
6.01378e-07
6.60532e-07
7.61134e-07
9.21807e-07
1.07919e-06
1.10786e-06
9.99754e-07
9.95353e-07
1.07263e-06
9.97527e-07
7.09459e-07
4.76115e-07
1.82315e-07
0
0
0
0
0
0
0
0
7.2362e-08
0
0
0
0
0
0
1.59504e-07
3.65557e-07
4.39154e-07
3.75718e-07
2.73827e-07
1.90308e-07
1.3639e-07
1.06099e-07
8.84797e-08
7.96143e-08
7.67313e-08
7.83579e-08
8.33583e-08
9.1141e-08
1.0261e-07
1.18923e-07
1.40023e-07
1.63489e-07
1.76927e-07
1.43739e-07
8.48399e-09
0
0
0
0
0
0
0
0
0
0
0
0
0
0
1.63729e-09
6.71162e-10
0
0
0
0
0
0
0
0
0
0
0
0
0
0
0
0
0
0
0
0
0
0
0
0
0
0
0
0
0
0
0
0
0
0
0
0
0
0
0
0
0
9.04659e-09
1.99461e-08
2.51064e-08
2.30681e-08
1.54726e-08
6.25277e-09
0
0
0
0
0
5.70386e-10
3.10026e-09
4.34974e-09
4.38259e-09
3.7621e-09
3.04398e-09
2.49011e-09
2.11463e-09
1.83591e-09
1.5774e-09
1.29546e-09
9.77851e-10
6.55433e-10
3.7067e-10
1.21782e-10
0
0
0
0
0
0
0
0
0
0
0
0
0
0
0
0
2.3411e-10
0
4.24415e-07
2.47322e-07
3.2481e-07
3.45609e-07
2.23434e-07
0
0
0
0
0
0
5.24444e-08
1.38117e-07
1.59747e-09
0
0
0
0
0
0
0
0
0
0
0
0
0
0
0
0
0
0
0
0
0
1.39524e-07
2.71514e-07
2.26462e-07
1.4611e-07
1.51009e-08
0
0
0
0
0
0
0
0
0
2.33633e-07
4.13011e-07
5.70157e-07
2.62414e-07
7.85293e-08
0
0
1.67032e-07
4.1186e-07
5.00327e-07
4.37855e-07
3.48364e-07
2.74037e-07
2.19698e-07
1.84925e-07
1.63503e-07
1.44453e-07
1.28727e-07
1.14945e-07
1.05436e-07
1.01017e-07
1.01503e-07
1.07354e-07
1.19599e-07
1.40787e-07
1.74044e-07
2.22469e-07
2.81703e-07
3.08547e-07
1.29644e-07
0
0
0
0
0
0
0
0
0
0
0
0
0
0
0
0
0
0
0
0
0
0
0
0
0
0
0
0
0
0
0
0
0
0
0
0
0
0
0
0
0
0
0
0
0
0
0
0
0
0
0
0
0
0
0
0
0
0
0
0
0
3.28352e-09
1.21619e-08
4.60904e-09
0
0
0
0
0
0
0
0
0
0
0
0
2.74585e-09
9.31306e-09
0
0
0
0
0
0
0
0
0
0
0
0
0
0
0
0
0
0
0
0
0
0
0
4.59943e-07
1.69618e-07
0
0
0
0
0
0
0
0
0
0
0
0
0
0
0
0
0
0
0
0
0
0
0
0
0
0
0
0
0
0
0
0
0
0
0
1.25814e-07
6.91903e-08
0
0
0
0
0
0
0
0
0
2.62962e-08
3.36038e-07
3.88067e-07
3.618e-07
2.6247e-07
2.79557e-07
4.65887e-07
6.48232e-07
6.03669e-07
4.78633e-07
3.756e-07
3.02382e-07
2.5114e-07
2.16577e-07
1.94332e-07
1.76122e-07
1.56301e-07
1.36083e-07
1.16817e-07
1.01484e-07
9.28728e-08
9.17701e-08
9.59616e-08
1.0354e-07
1.13616e-07
1.28069e-07
1.498e-07
1.84499e-07
2.40125e-07
3.23746e-07
3.33009e-07
0
0
0
9.76285e-08
1.45271e-07
1.31983e-07
8.47945e-08
2.64438e-08
0
0
0
0
0
0
0
0
0
0
0
0
0
0
0
0
0
0
0
0
0
0
0
0
0
0
0
0
0
0
0
0
0
0
0
0
0
0
0
0
0
0
0
0
0
0
0
0
0
0
0
0
0
0
0
0
7.68612e-09
0
0
0
0
0
0
0
0
0
0
0
0
0
0
0
0
0
0
0
0
0
0
0
0
0
0
0
0
0
0
0
0
0
0
0
0
1.91289e-08
0
0
0
0
0
0
0
0
0
0
0
0
0
0
0
0
0
0
0
0
0
0
0
0
0
0
0
0
0
0
0
0
0
0
0
0
0
0
0
0
0
0
0
0
0
0
0
0
0
0
1.7647e-07
5.01521e-07
6.47295e-07
5.11581e-07
3.57419e-07
2.63435e-07
2.14682e-07
1.87463e-07
1.6856e-07
1.54141e-07
1.43124e-07
1.33372e-07
1.23879e-07
1.13371e-07
1.01596e-07
8.95427e-08
8.10685e-08
7.84456e-08
7.97873e-08
7.70054e-08
6.26323e-08
3.4531e-08
0
0
0
0
7.16968e-08
3.41023e-07
0
0
2.99266e-07
4.8488e-07
5.35636e-07
5.10553e-07
4.29766e-07
3.23715e-07
2.10158e-07
9.38079e-08
0
0
0
0
0
0
0
0
0
0
0
0
0
0
0
0
0
0
0
0
0
0
0
0
0
0
0
0
0
0
0
0
0
0
0
0
0
0
0
0
0
0
0
0
0
0
0
0
0
0
0
0
0
0
0
0
1.31885e-09
0
0
0
0
0
0
0
0
0
0
0
0
0
0
0
0
0
0
0
0
0
0
0
0
0
0
0
0
0
0
0
0
0
0
0
0
0
0
0
0
0
0
0
0
0
0
0
0
0
1.46873e-09
4.61492e-08
4.5674e-08
0
0
0
0
0
0
0
0
0
0
0
0
0
0
0
0
0
0
0
0
0
0
0
0
0
0
0
0
0
0
0
0
0
3.01908e-07
3.55308e-07
2.33206e-07
1.31897e-07
7.75105e-08
5.83023e-08
5.64596e-08
5.80014e-08
5.79304e-08
5.70937e-08
5.67498e-08
5.95238e-08
6.42056e-08
6.8239e-08
6.87926e-08
6.50572e-08
5.97243e-08
5.45593e-08
4.56588e-08
2.41012e-08
0
0
0
0
3.59695e-08
3.76214e-07
1.0899e-06
1.32439e-06
0
0
0
1.22982e-07
4.06276e-07
4.92986e-07
4.72167e-07
4.07911e-07
3.45095e-07
2.78812e-07
2.03129e-07
1.12074e-07
7.94011e-09
0
0
0
0
0
0
0
0
0
0
0
0
0
0
0
0
0
0
0
0
0
0
0
0
0
0
0
0
0
0
0
0
0
0
0
0
0
0
0
0
0
0
0
0
0
0
0
0
0
0
0
0
0
0
0
0
0
0
0
0
0
0
0
0
0
0
0
0
0
0
0
0
0
0
0
0
0
0
0
0
0
0
0
0
0
0
0
0
0
0
0
0
0
0
0
0
0
0
0
0
0
0
0
0
0
0
0
0
0
0
0
0
0
0
0
0
0
0
0
0
0
0
0
0
0
0
0
0
0
0
0
0
0
0
0
0
0
0
1.87365e-07
1.99512e-07
9.08117e-08
8.92521e-09
0
0
0
0
0
0
0
0
0
1.75296e-08
3.51781e-08
4.46585e-08
4.34782e-08
3.38682e-08
1.95909e-08
4.30088e-09
0
0
0
0
1.39829e-07
6.20132e-07
1.59649e-06
3.28813e-06
0
0
0
0
0
3.71718e-08
2.12852e-07
2.03591e-07
1.54214e-07
1.10035e-07
8.29429e-08
7.40044e-08
7.59195e-08
7.45427e-08
5.91907e-08
2.38947e-08
0
0
0
0
0
0
0
0
0
0
0
0
0
0
0
0
0
0
0
0
0
0
0
0
0
0
0
0
0
0
0
0
0
0
0
0
0
0
0
0
0
0
0
0
0
0
0
0
0
0
0
0
0
0
0
1.03131e-09
0
0
0
0
0
0
0
0
0
0
0
0
0
0
0
0
0
0
0
0
0
0
0
0
0
0
0
0
0
0
0
0
0
0
0
0
0
0
0
0
0
0
0
0
0
0
0
0
0
0
0
0
0
0
0
0
0
0
0
0
0
0
0
0
0
0
0
0
0
0
0
0
0
0
0
0
0
0
0
1.88468e-07
1.3465e-07
1.17367e-08
0
0
0
0
0
0
0
0
0
0
0
0
1.67543e-08
2.87941e-08
2.41693e-08
6.32208e-09
0
0
0
0
0
1.16661e-07
4.88915e-07
1.31679e-06
2.67506e-06
3.66827e-06
0
0
0
0
0
1.57528e-07
3.47652e-07
2.68734e-07
1.45219e-07
3.76296e-08
0
0
0
0
0
0
0
0
0
0
0
0
0
0
0
0
0
0
0
0
0
0
0
0
0
0
0
0
0
0
0
0
0
0
0
0
0
0
7.47585e-09
8.82865e-09
7.00286e-09
7.8072e-09
9.51327e-09
8.25803e-09
1.83771e-09
0
0
0
0
2.69918e-09
3.78254e-09
0
0
0
0
0
0
0
0
0
0
0
1.15236e-08
4.58837e-09
0
0
0
0
0
0
0
0
0
0
0
0
0
0
0
0
0
0
0
0
0
0
0
0
0
0
0
0
0
0
0
0
0
0
0
0
0
0
0
0
0
0
0
0
0
0
0
4.26062e-08
1.8464e-07
2.89445e-07
3.58339e-07
3.98675e-07
4.13826e-07
3.99335e-07
3.4503e-07
2.47068e-07
1.0895e-07
0
0
0
0
0
0
0
4.04232e-08
3.5592e-07
7.64742e-07
1.56197e-06
1.50429e-06
3.0265e-07
5.81377e-08
0
0
0
0
3.72713e-08
2.52698e-07
9.0989e-08
0
0
0
0
0
0
0
0
0
0
0
0
0
0
7.37803e-09
1.77676e-08
8.03388e-09
0
0
0
9.42064e-10
2.33692e-08
6.40829e-08
2.32077e-07
7.20476e-07
1.60416e-06
2.46274e-06
1.29602e-06
0
0
0
0
0
4.97401e-07
6.83226e-07
4.94192e-07
2.60071e-07
1.05109e-07
2.48083e-08
0
0
0
0
0
0
0
0
0
0
0
0
0
0
0
0
0
0
0
0
0
0
0
0
0
0
0
0
0
0
0
0
0
0
0
0
0
1.44123e-08
2.58066e-08
2.84564e-08
3.06086e-08
3.5381e-08
3.96932e-08
3.92483e-08
3.07034e-08
1.60071e-08
4.32806e-09
1.21253e-09
7.86394e-09
1.6258e-08
1.37866e-08
3.26219e-09
0
0
0
0
0
0
0
0
0
2.1274e-09
1.56837e-08
1.36881e-08
0
0
0
0
0
0
0
0
0
0
0
0
0
0
0
0
0
0
0
0
0
0
0
0
0
0
0
0
0
0
0
0
0
0
0
0
0
0
0
0
0
0
0
0
0
2.21076e-07
5.13566e-07
7.76885e-07
1.00069e-06
1.17538e-06
1.30837e-06
1.40451e-06
1.46888e-06
1.49724e-06
1.48005e-06
1.41123e-06
1.30233e-06
1.16411e-06
1.02254e-06
9.13401e-07
8.50135e-07
8.35878e-07
8.75229e-07
9.88722e-07
1.20005e-06
1.69615e-06
2.53294e-06
9.54087e-07
4.35867e-07
1.81386e-07
0
0
0
2.6294e-07
3.5086e-07
6.23845e-08
0
0
0
0
0
0
0
0
0
0
0
0
0
0
0
4.11655e-09
1.18676e-08
2.08487e-11
0
0
0
1.21026e-08
4.32632e-08
7.76016e-08
2.12916e-07
5.58159e-07
1.03751e-06
1.03174e-06
0
0
0
0
0
0
5.78398e-08
5.91892e-07
4.27506e-07
1.92228e-07
7.16226e-08
3.24922e-08
1.05995e-08
0
0
0
0
0
0
0
0
0
0
0
0
0
0
0
0
0
0
0
0
0
0
0
0
0
0
0
0
0
0
0
0
0
0
0
0
2.23319e-08
4.99619e-08
6.04513e-08
6.10132e-08
6.12955e-08
6.38577e-08
6.51803e-08
6.06618e-08
4.7482e-08
2.95793e-08
1.63927e-08
1.27225e-08
1.93039e-08
2.63335e-08
1.85837e-08
1.90639e-09
0
0
0
0
0
0
0
0
0
6.83448e-09
1.52689e-08
1.1861e-08
0
0
0
0
0
0
0
0
0
0
0
0
0
0
0
0
0
0
0
0
0
0
0
0
0
0
0
0
0
0
0
0
0
0
0
0
0
0
0
0
0
3.37472e-08
2.06936e-07
2.62918e-07
2.35273e-07
2.32416e-07
3.56066e-07
6.28008e-07
9.67398e-07
1.28703e-06
1.52822e-06
1.66029e-06
1.70482e-06
1.69881e-06
1.66278e-06
1.61912e-06
1.55596e-06
1.47344e-06
1.38767e-06
1.29677e-06
1.22353e-06
1.20267e-06
1.28781e-06
1.64641e-06
2.53802e-06
1.68752e-06
8.72188e-07
5.08516e-07
2.74514e-07
1.50628e-07
1.97023e-07
5.54998e-07
4.91573e-07
1.00252e-07
0
0
0
0
0
0
0
0
0
0
0
0
0
0
0
0
3.71909e-09
9.15491e-09
0
0
0
0
2.28839e-08
4.15212e-08
1.26702e-08
0
0
0
0
0
0
0
0
0
0
0
1.55044e-07
2.6568e-07
5.61278e-08
0
0
0
0
0
0
0
0
0
0
0
0
0
0
0
0
0
0
0
0
0
0
3.66416e-08
7.22328e-09
0
0
1.23374e-08
0
0
0
0
0
0
0
0
0
0
0
0
3.25343e-08
9.08033e-08
1.24301e-07
1.23114e-07
1.0632e-07
9.2634e-08
8.71653e-08
8.42585e-08
7.661e-08
6.16442e-08
4.2893e-08
2.92667e-08
2.5155e-08
3.06712e-08
3.35723e-08
1.69856e-08
0
0
0
0
0
0
0
2.91757e-09
4.23831e-09
5.40003e-09
8.15757e-09
9.7004e-09
1.2679e-09
0
0
0
0
0
0
0
0
0
0
0
0
0
0
0
0
0
0
0
0
0
0
0
0
0
0
0
0
0
0
0
0
0
0
0
0
2.1038e-07
7.04811e-07
1.15894e-06
1.55681e-06
1.76049e-06
1.39295e-06
0
0
0
0
0
0
0
0
5.37935e-07
9.51472e-07
1.11159e-06
1.0836e-06
1.01193e-06
9.0571e-07
7.67222e-07
5.93406e-07
3.94277e-07
1.87951e-07
0
0
5.63891e-07
1.80821e-06
1.46326e-06
9.1346e-07
5.54034e-07
4.03791e-07
5.10288e-07
8.46734e-07
6.68148e-07
2.2496e-07
2.75e-08
0
0
0
0
0
0
0
0
0
0
0
0
0
0
0
0
2.36371e-09
1.04394e-08
1.45694e-09
0
0
3.27568e-08
8.60893e-08
8.95701e-08
0
0
0
0
0
0
0
0
0
0
0
0
0
2.50703e-07
0
0
0
0
0
5.09492e-09
1.50815e-09
0
0
0
0
0
0
0
0
0
0
0
0
0
0
0
0
0
4.68303e-08
4.85572e-08
3.12035e-08
4.31453e-08
6.415e-08
5.41741e-08
2.38881e-08
4.87369e-09
1.01744e-09
3.81582e-09
1.80184e-09
0
0
0
0
0
2.06297e-08
9.29109e-08
1.59955e-07
1.91478e-07
1.72416e-07
1.22344e-07
8.9844e-08
8.59401e-08
9.3065e-08
9.17826e-08
7.90313e-08
6.1167e-08
4.64958e-08
3.83715e-08
3.8699e-08
3.29434e-08
5.07493e-09
0
0
0
0
0
0
5.28854e-09
9.06694e-09
7.87784e-09
5.8285e-09
3.42809e-09
0
0
0
0
0
0
0
0
0
0
0
0
0
0
0
0
0
0
0
0
0
0
0
0
0
0
0
0
0
0
0
0
0
0
0
1.62434e-07
8.64964e-07
1.59827e-06
2.3897e-06
3.18393e-06
4.23693e-06
5.56323e-06
3.58341e-06
0
0
0
0
0
0
0
0
0
0
4.37334e-07
5.52917e-07
4.0351e-07
1.89651e-07
1.29861e-08
0
0
0
0
0
0
6.81569e-07
9.89665e-07
7.79537e-07
6.30584e-07
7.5201e-07
9.62082e-07
7.62538e-07
3.7878e-07
1.59543e-07
4.4606e-08
0
0
0
0
0
0
0
0
0
0
0
0
0
0
0
0
0
1.0427e-08
7.95503e-09
6.16232e-09
2.61318e-08
8.73264e-08
1.66107e-07
1.69019e-07
0
0
0
0
0
0
0
0
0
0
0
0
0
4.86031e-07
1.20498e-07
0
0
0
0
7.61312e-08
5.19645e-08
2.22275e-08
1.44502e-10
0
0
0
0
0
0
0
0
0
3.85672e-09
0
0
0
0
0
8.6294e-09
5.02704e-08
5.21025e-08
5.06051e-08
6.56769e-08
8.97479e-08
8.93684e-08
6.48843e-08
4.74507e-08
4.28262e-08
4.47818e-08
4.59518e-08
4.25649e-08
3.52206e-08
2.88905e-08
3.23343e-08
5.35115e-08
9.46022e-08
1.45029e-07
1.8256e-07
1.86015e-07
1.15817e-07
0
0
4.00325e-08
8.781e-08
1.06109e-07
9.99159e-08
8.03588e-08
5.74267e-08
3.79087e-08
3.15165e-08
1.87273e-08
0
0
0
0
0
0
3.44853e-10
1.08918e-08
1.02688e-08
5.42314e-09
0
0
0
0
0
0
0
0
0
0
0
0
0
0
0
0
0
0
0
0
0
0
0
0
0
0
0
0
0
0
0
0
0
0
0
8.28831e-08
7.07237e-07
1.38259e-06
2.02959e-06
2.7137e-06
3.4686e-06
4.61469e-06
6.3299e-06
3.13195e-06
0
0
0
0
0
0
0
0
0
0
7.44278e-08
4.18581e-07
3.68842e-07
1.51559e-07
0
0
0
0
0
0
0
1.53343e-07
4.60257e-07
5.85019e-07
7.2241e-07
8.17115e-07
6.99053e-07
4.62984e-07
2.70918e-07
1.48469e-07
7.26465e-08
1.8879e-08
0
0
0
0
0
0
0
0
0
0
0
0
0
0
0
2.69348e-09
1.34599e-08
1.50342e-08
2.09791e-08
5.23972e-08
1.26537e-07
2.16553e-07
2.43375e-07
1.16427e-07
0
0
0
0
0
0
0
0
0
0
0
0
7.15259e-07
3.32732e-07
0
0
0
0
2.24396e-07
9.87711e-08
2.37517e-08
0
0
0
0
0
0
0
0
0
0
0
0
0
0
0
0
1.44947e-08
5.48112e-08
7.08806e-08
7.40278e-08
8.72436e-08
1.02136e-07
1.16665e-07
1.15675e-07
9.80421e-08
8.66545e-08
8.47838e-08
8.98063e-08
9.79155e-08
1.05265e-07
1.10173e-07
1.12787e-07
1.19913e-07
1.36397e-07
1.58629e-07
1.76557e-07
1.78302e-07
1.4241e-07
2.47745e-08
0
0
3.78107e-09
7.18205e-08
9.74048e-08
8.88373e-08
6.15992e-08
2.94543e-08
7.7211e-09
6.24213e-09
2.19855e-09
0
0
0
0
0
0
6.54356e-09
9.56626e-09
3.49379e-09
0
0
0
0
0
0
0
0
0
0
0
0
0
0
0
0
0
0
0
0
0
0
0
0
0
0
0
0
0
0
0
0
0
0
0
1.59659e-07
5.78611e-07
9.71297e-07
1.29423e-06
1.53595e-06
1.65836e-06
1.615e-06
1.26839e-06
0
0
0
0
0
1.0458e-07
3.03487e-07
0
0
0
0
0
1.37229e-07
2.59965e-07
1.68591e-07
5.61407e-08
0
0
0
0
0
1.00169e-08
2.32079e-07
4.23103e-07
5.7295e-07
6.55691e-07
6.20116e-07
4.8073e-07
3.26292e-07
2.07129e-07
1.29045e-07
7.96645e-08
4.29964e-08
1.19456e-08
0
0
0
0
0
0
0
0
0
0
0
0
0
0
2.50871e-08
2.98967e-08
2.48284e-08
2.8229e-08
6.26025e-08
1.40639e-07
2.34151e-07
2.90473e-07
2.69803e-07
1.18751e-07
0
0
0
0
0
0
0
0
0
0
0
8.27848e-07
5.48126e-07
0
0
0
0
4.64216e-07
1.95622e-07
1.84044e-10
0
0
0
0
0
0
0
0
0
0
0
0
0
6.63303e-10
6.68982e-09
1.65497e-08
3.66914e-08
6.10574e-08
8.10681e-08
9.63733e-08
1.2142e-07
1.49343e-07
1.58798e-07
1.6076e-07
1.49742e-07
1.35184e-07
1.29423e-07
1.31835e-07
1.40475e-07
1.5137e-07
1.60643e-07
1.66494e-07
1.68351e-07
1.7e-07
1.69651e-07
1.62517e-07
1.46473e-07
1.20031e-07
7.26494e-08
1.86825e-09
0
0
3.89815e-08
6.62104e-08
6.2636e-08
3.54082e-08
7.12752e-09
0
3.05902e-10
0
3.5712e-10
5.25454e-09
0
0
0
0
0
3.96129e-09
0
0
0
0
0
0
0
0
0
0
0
0
0
0
0
0
0
0
0
0
0
0
0
0
0
0
0
0
0
0
0
0
0
0
0
0
0
0
0
0
0
0
0
0
0
0
0
0
0
0
0
1.34705e-07
0
0
0
0
0
1.13581e-07
1.1036e-07
5.26636e-08
1.76796e-08
1.96956e-09
0
0
3.96535e-08
1.25496e-07
2.5264e-07
3.76625e-07
4.56318e-07
4.68621e-07
4.11644e-07
3.08396e-07
2.07992e-07
1.35889e-07
9.05147e-08
6.24409e-08
4.12463e-08
2.316e-08
8.6721e-09
0
0
0
0
0
0
0
0
0
0
0
0
0
2.28001e-08
3.90729e-08
3.22617e-08
1.95725e-08
2.9034e-08
8.33994e-08
1.65194e-07
2.35274e-07
2.75314e-07
2.87387e-07
2.9078e-07
3.33981e-07
3.8798e-07
9.35469e-08
0
0
0
0
0
0
0
8.57163e-07
7.48752e-07
0
0
0
0
0
5.24147e-07
4.66058e-08
0
0
0
0
0
0
0
0
0
0
0
0
0
0
3.35746e-09
4.59044e-08
6.68376e-08
7.32533e-08
8.55127e-08
1.08581e-07
1.52999e-07
2.07571e-07
2.3148e-07
2.31887e-07
2.17423e-07
1.90733e-07
1.80128e-07
1.80503e-07
1.85817e-07
1.91667e-07
1.96893e-07
2.00224e-07
1.98447e-07
1.91271e-07
1.77103e-07
1.53605e-07
1.24366e-07
9.79541e-08
7.63274e-08
5.30858e-08
3.22498e-08
3.25028e-08
4.80141e-08
5.37932e-08
3.88702e-08
6.53263e-09
0
0
0
1.5803e-09
0
2.50906e-09
1.50735e-08
0
0
0
0
0
0
0
0
0
0
0
0
0
0
0
0
0
0
0
0
0
0
0
0
0
0
0
0
0
0
0
0
0
0
0
0
1.14576e-07
1.54964e-07
1.22423e-07
0
0
0
0
0
0
0
0
0
0
0
0
0
0
0
0
0
1.84377e-07
2.34203e-07
0
0
0
0
7.16701e-08
7.56647e-08
4.35591e-08
2.16616e-08
1.67663e-08
2.60072e-08
4.78921e-08
7.02235e-08
1.17701e-07
2.00847e-07
2.77611e-07
3.11394e-07
2.94401e-07
2.3941e-07
1.68975e-07
1.09314e-07
6.85836e-08
4.54993e-08
3.32612e-08
2.43647e-08
1.6826e-08
1.17712e-08
8.9889e-09
7.52764e-09
6.76639e-09
5.53371e-09
2.45938e-09
0
0
0
0
0
0
0
0
0
1.72572e-08
2.34446e-08
5.33825e-09
0
0
2.57087e-08
8.43044e-08
1.46557e-07
2.23497e-07
3.75538e-07
7.88816e-07
1.67613e-06
3.4366e-06
6.07862e-06
0
0
0
0
0
0
7.37122e-07
8.70514e-07
6.17482e-08
0
0
0
0
8.13667e-07
1.72515e-07
0
0
0
0
0
0
0
0
0
0
0
0
0
0
0
3.61754e-08
8.61064e-08
9.73164e-08
9.82358e-08
1.18945e-07
1.69451e-07
2.54313e-07
3.013e-07
3.12094e-07
3.0195e-07
2.62307e-07
2.33613e-07
2.28942e-07
2.33403e-07
2.35711e-07
2.33523e-07
2.30035e-07
2.24047e-07
2.11072e-07
1.88245e-07
1.54587e-07
1.16229e-07
8.64142e-08
7.23479e-08
6.83657e-08
6.45431e-08
6.16815e-08
6.34324e-08
5.87013e-08
3.37842e-08
0
0
0
0
6.13475e-09
0
0
3.67918e-09
1.08508e-08
0
0
0
0
0
0
0
0
0
0
0
0
0
0
0
0
0
0
0
0
0
0
0
0
0
0
0
0
0
0
0
0
0
0
5.00381e-08
1.96688e-07
2.66148e-07
3.00896e-07
1.87429e-07
0
0
0
0
0
0
0
0
0
0
0
1.62361e-07
1.79935e-07
1.22313e-07
7.54356e-08
1.29318e-07
2.95942e-07
3.43725e-07
2.73191e-08
0
0
7.74614e-08
9.6161e-08
6.41038e-08
3.34322e-08
1.87693e-08
1.41803e-08
1.5221e-08
2.53569e-08
4.50672e-08
7.07843e-08
1.19618e-07
1.63841e-07
1.77242e-07
1.51825e-07
1.08615e-07
6.57571e-08
3.26935e-08
1.32617e-08
5.84442e-09
4.8198e-09
4.78236e-09
4.80186e-09
6.2618e-09
9.5186e-09
1.44026e-08
2.06703e-08
2.735e-08
3.27373e-08
3.53101e-08
3.40875e-08
2.7687e-08
1.55928e-08
0
0
0
0
0
0
0
0
0
0
0
0
0
5.35937e-08
2.39425e-07
6.64939e-07
1.5415e-06
3.28161e-06
6.89568e-06
6.97387e-06
0
0
0
0
0
4.23677e-07
8.55067e-07
9.56042e-08
0
0
0
0
0
2.91249e-07
0
0
0
0
0
0
0
0
0
0
0
0
0
0
0
3.07971e-08
8.32335e-08
1.08994e-07
1.10505e-07
1.24072e-07
1.74275e-07
2.79921e-07
3.58624e-07
3.83443e-07
3.81527e-07
3.45619e-07
2.94962e-07
2.74721e-07
2.75307e-07
2.77352e-07
2.70765e-07
2.60582e-07
2.50384e-07
2.34145e-07
2.06077e-07
1.65149e-07
1.19322e-07
8.44162e-08
6.99281e-08
7.20337e-08
7.76837e-08
7.74015e-08
7.32388e-08
6.36366e-08
3.69923e-08
0
0
0
0
2.13967e-09
6.13973e-09
0
0
2.00035e-09
3.2217e-09
0
0
0
0
0
0
0
0
0
0
0
0
0
0
0
0
0
0
0
0
0
0
0
0
0
0
0
0
0
0
0
1.03858e-08
0
5.04411e-08
1.59154e-07
2.14855e-07
2.7347e-07
2.55313e-07
1.22676e-07
0
0
0
0
0
0
0
0
0
0
1.52805e-07
1.97874e-07
1.94373e-07
2.27231e-07
3.14585e-07
4.42703e-07
5.91823e-07
7.19112e-07
3.65867e-07
1.95097e-07
1.66737e-07
1.33998e-07
7.73826e-08
3.51817e-08
2.10184e-08
1.71466e-08
1.58377e-08
1.65929e-08
2.44492e-08
3.80869e-08
5.00951e-08
6.03351e-08
5.62155e-08
3.51317e-08
6.87191e-09
0
0
0
0
0
0
0
7.80889e-11
7.21076e-09
1.5794e-08
2.61243e-08
3.78474e-08
4.97747e-08
6.00698e-08
6.74604e-08
6.97098e-08
6.46971e-08
5.21088e-08
3.30687e-08
1.02648e-08
0
0
0
0
0
0
0
0
0
0
0
4.35849e-08
4.04173e-07
1.09905e-06
2.23473e-06
4.31188e-06
5.75644e-06
0
0
0
0
0
0
7.06135e-07
8.52783e-08
0
0
0
0
0
2.01168e-07
0
0
0
0
0
0
0
0
0
0
0
0
0
0
1.7957e-08
4.70389e-08
8.64784e-08
1.17566e-07
1.27098e-07
1.32148e-07
1.69905e-07
2.74483e-07
3.9292e-07
4.39894e-07
4.46211e-07
4.22549e-07
3.60128e-07
3.22731e-07
3.12145e-07
3.12392e-07
3.05941e-07
2.91547e-07
2.76518e-07
2.58414e-07
2.27869e-07
1.81424e-07
1.28941e-07
8.90877e-08
7.16578e-08
7.30988e-08
8.22741e-08
8.54594e-08
7.90293e-08
6.59683e-08
3.98836e-08
0
0
0
0
0
8.69769e-09
3.03198e-09
0
0
0
0
0
0
0
0
0
0
0
0
0
0
0
0
5.37322e-09
0
0
0
0
0
0
0
0
0
0
0
0
0
0
0
0
0
1.41867e-08
0
1.91648e-09
6.36243e-08
9.04777e-08
1.26446e-07
1.32924e-07
7.61014e-08
0
0
0
0
0
0
0
0
0
0
1.60914e-07
2.49052e-07
3.33696e-07
4.06287e-07
4.54556e-07
5.61752e-07
9.53915e-07
1.03838e-06
5.81607e-07
3.0843e-07
2.20727e-07
1.63039e-07
9.64395e-08
4.82498e-08
2.92541e-08
2.49273e-08
2.25683e-08
2.04946e-08
2.03016e-08
2.60191e-08
1.91784e-08
0
0
0
0
0
0
0
0
0
0
0
0
5.42189e-09
1.62584e-08
2.83728e-08
4.20288e-08
5.69485e-08
7.16602e-08
8.51465e-08
9.47387e-08
9.81812e-08
9.32347e-08
8.00986e-08
6.06251e-08
3.57466e-08
1.1359e-08
0
0
0
0
0
0
0
0
0
0
1.6469e-07
7.01483e-07
1.47908e-06
2.60963e-06
3.38654e-06
0
0
0
0
0
0
3.78448e-07
1.75147e-08
0
0
0
0
0
0
0
0
0
0
0
0
0
0
0
0
0
0
0
9.35075e-09
2.85543e-08
5.43067e-08
8.98168e-08
1.29274e-07
1.51947e-07
1.58844e-07
1.74246e-07
2.48476e-07
3.91838e-07
4.71454e-07
4.92134e-07
4.82064e-07
4.2186e-07
3.69839e-07
3.46811e-07
3.41113e-07
3.3527e-07
3.20953e-07
3.02851e-07
2.81762e-07
2.49204e-07
1.99655e-07
1.42058e-07
9.76705e-08
7.67887e-08
7.47563e-08
8.27198e-08
8.88453e-08
8.3333e-08
6.815e-08
4.24784e-08
0
0
0
0
0
4.84204e-09
8.47642e-09
0
0
0
0
0
0
0
0
0
0
0
0
0
0
0
0
0
3.35616e-08
0
0
0
0
0
0
0
0
0
0
0
0
0
0
0
0
0
1.80899e-08
0
0
0
0
0
0
0
0
0
0
0
0
0
0
0
0
1.91205e-07
3.61665e-07
4.85554e-07
5.36784e-07
5.83598e-07
8.33862e-07
1.07725e-06
6.99932e-07
4.97404e-07
3.21255e-07
2.41023e-07
1.78621e-07
1.11618e-07
6.02187e-08
4.01349e-08
3.36964e-08
2.99391e-08
2.56611e-08
2.17162e-08
1.96125e-08
1.23379e-08
0
0
0
0
0
0
0
0
0
0
0
0
4.09355e-09
1.69445e-08
2.99347e-08
4.37254e-08
5.88431e-08
7.4592e-08
9.05993e-08
1.0441e-07
1.13948e-07
1.1607e-07
1.10888e-07
9.81062e-08
7.85705e-08
5.34771e-08
2.75754e-08
3.11645e-09
0
0
0
0
0
0
0
0
0
3.89345e-07
9.10073e-07
1.57079e-06
1.92158e-06
3.51429e-07
0
0
0
0
0
0
0
0
0
0
0
0
0
0
0
0
0
0
0
0
0
0
0
0
0
0
9.78468e-09
3.02125e-08
5.543e-08
8.76789e-08
1.34333e-07
1.75917e-07
1.96988e-07
2.04595e-07
2.40941e-07
3.65104e-07
4.7297e-07
5.15514e-07
5.20094e-07
4.75258e-07
4.13137e-07
3.78887e-07
3.65042e-07
3.57294e-07
3.44328e-07
3.25627e-07
3.0063e-07
2.64075e-07
2.13479e-07
1.54518e-07
1.06912e-07
8.24442e-08
7.61263e-08
8.03035e-08
8.68103e-08
8.48581e-08
7.08249e-08
4.63995e-08
4.5672e-09
0
0
0
0
0
1.13569e-08
4.29051e-09
0
0
0
0
0
0
0
0
0
0
0
0
0
0
0
0
1.02661e-08
2.32827e-08
0
0
0
0
0
0
0
0
0
0
0
0
0
0
0
0
0
0
0
0
0
0
0
0
0
0
0
0
0
0
0
0
2.00097e-07
4.15876e-07
5.8132e-07
6.85397e-07
7.44654e-07
8.881e-07
9.26511e-07
6.06209e-07
4.33699e-07
4.15033e-07
2.9749e-07
2.43466e-07
1.80309e-07
1.0859e-07
6.48912e-08
5.10887e-08
4.50841e-08
3.78143e-08
2.94442e-08
2.16475e-08
1.59353e-08
7.91692e-09
0
0
0
0
0
0
0
0
0
0
0
0
2.32372e-09
1.78622e-08
3.21068e-08
4.57853e-08
5.99546e-08
7.46652e-08
9.03451e-08
1.05115e-07
1.17603e-07
1.24246e-07
1.24962e-07
1.18645e-07
1.0632e-07
8.74601e-08
6.36422e-08
3.80678e-08
1.02197e-08
0
0
0
0
0
0
0
0
1.76937e-07
4.92551e-07
8.68979e-07
1.04009e-06
3.93755e-07
0
0
0
0
0
0
0
0
0
0
0
0
0
0
1.40324e-08
0
0
0
0
0
0
0
0
0
0
0
6.6526e-09
2.77168e-08
5.38393e-08
8.31791e-08
1.30226e-07
1.89294e-07
2.30957e-07
2.47772e-07
2.65295e-07
3.49922e-07
4.58871e-07
5.19041e-07
5.37578e-07
5.12863e-07
4.48969e-07
4.069e-07
3.85409e-07
3.73553e-07
3.60303e-07
3.41287e-07
3.12264e-07
2.6841e-07
2.1376e-07
1.56952e-07
1.11849e-07
8.6052e-08
7.54739e-08
7.49841e-08
7.94809e-08
8.11351e-08
7.27749e-08
5.28622e-08
1.29944e-08
0
0
0
0
0
9.24383e-09
9.43545e-09
0
0
0
0
0
0
0
0
0
0
0
0
0
0
0
0
0
2.38494e-08
1.83584e-09
0
0
0
0
0
0
0
0
0
0
0
0
0
0
0
0
0
0
0
0
0
0
0
0
0
0
0
0
0
0
3.75765e-08
2.75507e-07
4.87654e-07
6.60747e-07
8.12976e-07
9.79311e-07
7.77222e-07
4.96798e-07
3.60252e-07
3.54215e-07
3.49233e-07
2.76383e-07
2.23094e-07
1.64717e-07
1.00959e-07
7.0456e-08
6.08244e-08
5.53801e-08
4.64823e-08
3.36974e-08
2.08374e-08
1.11633e-08
2.53081e-09
0
0
0
0
0
0
0
0
0
0
0
0
0
1.85492e-08
3.49713e-08
4.92279e-08
6.26971e-08
7.5957e-08
9.00575e-08
1.03854e-07
1.17089e-07
1.26055e-07
1.30156e-07
1.27764e-07
1.20529e-07
1.08096e-07
8.99739e-08
6.90971e-08
4.47422e-08
1.62244e-08
0
0
0
0
0
0
0
6.81893e-08
2.45486e-07
4.62035e-07
5.70262e-07
2.5682e-07
0
0
0
0
0
0
0
0
0
0
0
0
0
0
9.84307e-08
8.30257e-08
3.30819e-08
0
0
0
0
0
0
0
0
0
3.62413e-09
2.44757e-08
5.1205e-08
7.92899e-08
1.18228e-07
1.88331e-07
2.51614e-07
2.81972e-07
2.99986e-07
3.56866e-07
4.44666e-07
5.07838e-07
5.35825e-07
5.28101e-07
4.70888e-07
4.24626e-07
3.97601e-07
3.81325e-07
3.66337e-07
3.46266e-07
3.12819e-07
2.59037e-07
1.95285e-07
1.37849e-07
1.01921e-07
8.26632e-08
6.99858e-08
6.5615e-08
6.83044e-08
7.23658e-08
7.02346e-08
5.85051e-08
2.60434e-08
0
0
0
0
0
1.90887e-09
1.19129e-08
2.70989e-09
0
0
0
0
0
0
0
0
0
0
0
0
0
0
0
0
0
1.33057e-08
0
0
0
0
0
0
0
0
0
0
0
0
0
0
0
0
0
0
0
0
0
0
0
0
0
0
0
0
0
0
0
1.86879e-07
4.80709e-07
8.51272e-07
9.20424e-07
5.52785e-07
3.69881e-07
2.79512e-07
2.55273e-07
3.34442e-07
2.77958e-07
2.28081e-07
1.87236e-07
1.29206e-07
9.16519e-08
7.61634e-08
6.98525e-08
6.34536e-08
5.34687e-08
3.83589e-08
2.07582e-08
6.23835e-09
0
0
0
0
0
0
0
0
0
0
0
0
0
0
1.80791e-08
3.76068e-08
5.30938e-08
6.57521e-08
7.72205e-08
8.83167e-08
1.00093e-07
1.12057e-07
1.21905e-07
1.28488e-07
1.29491e-07
1.25968e-07
1.179e-07
1.05323e-07
9.0884e-08
7.28004e-08
5.13821e-08
2.77281e-08
0
0
0
0
0
0
5.18113e-08
1.50499e-07
2.97986e-07
3.64258e-07
1.65434e-07
0
0
0
0
0
0
0
0
0
0
0
0
0
0
1.79617e-07
1.60888e-07
8.63462e-08
3.0305e-08
0
0
0
0
0
0
0
0
0
2.08973e-08
4.7486e-08
7.51348e-08
1.07171e-07
1.68555e-07
2.50888e-07
2.96611e-07
3.21326e-07
3.65282e-07
4.24919e-07
4.76466e-07
5.06953e-07
5.09863e-07
4.66568e-07
4.20364e-07
3.90593e-07