/*--------------------------------*- C++ -*----------------------------------*\
  =========                 |
  \\      /  F ield         | OpenFOAM: The Open Source CFD Toolbox
   \\    /   O peration     | Website:  https://openfoam.org
    \\  /    A nd           | Version:  7
     \\/     M anipulation  |
\*---------------------------------------------------------------------------*/
FoamFile
{
    version     2.0;
    format      ascii;
    class       volScalarField;
    location    "0.072";
    object      pMean;
}
// * * * * * * * * * * * * * * * * * * * * * * * * * * * * * * * * * * * * * //

dimensions      [0 2 -2 0 0 0 0];

internalField   nonuniform List<scalar> 
12225
(
-2.34151
-1.18942
-0.755892
-0.642929
-0.585711
-0.54494
-0.5224
-0.521212
-0.537813
-0.565102
-0.596168
-0.626824
-0.654657
-0.682511
-0.712396
-0.764336
-0.842609
-1.07658
-2.01406
-1.17812
-0.759608
-0.63909
-0.586393
-0.548321
-0.525801
-0.523433
-0.538729
-0.564741
-0.594933
-0.624399
-0.652385
-0.677951
-0.710552
-0.749271
-0.830919
-0.918524
-1.84343
-1.19755
-0.783204
-0.641059
-0.588573
-0.552441
-0.528656
-0.523376
-0.535249
-0.558167
-0.585581
-0.613731
-0.64033
-0.667645
-0.697119
-0.738877
-0.794741
-0.877467
-1.64621
-1.16185
-0.782386
-0.62973
-0.5792
-0.548206
-0.526147
-0.519413
-0.528913
-0.549402
-0.575187
-0.601912
-0.628753
-0.655301
-0.686182
-0.723076
-0.773961
-0.837733
-1.47792
-1.12557
-0.787735
-0.627019
-0.57301
-0.545126
-0.524798
-0.516787
-0.523587
-0.541576
-0.56522
-0.590743
-0.616511
-0.643254
-0.672756
-0.70799
-0.751409
-0.802055
-1.32072
-1.0712
-0.779912
-0.618295
-0.559685
-0.534655
-0.517633
-0.509832
-0.514855
-0.530701
-0.552747
-0.577193
-0.602464
-0.628732
-0.657319
-0.69016
-0.727973
-0.770841
-1.17964
-1.0075
-0.763977
-0.608482
-0.545391
-0.521945
-0.50838
-0.501767
-0.505567
-0.519449
-0.539771
-0.563097
-0.587641
-0.613325
-0.640855
-0.671348
-0.705096
-0.741906
-1.04682
-0.934283
-0.737129
-0.593608
-0.527984
-0.504999
-0.4946
-0.489881
-0.493282
-0.505703
-0.524699
-0.547113
-0.570981
-0.595965
-0.622372
-0.650925
-0.681584
-0.714197
-0.925121
-0.856343
-0.700584
-0.572879
-0.507657
-0.484552
-0.476799
-0.474604
-0.478604
-0.490127
-0.507889
-0.529419
-0.552745
-0.577156
-0.602624
-0.629565
-0.657856
-0.687436
-0.811973
-0.77509
-0.654639
-0.545082
-0.483533
-0.460613
-0.454903
-0.455258
-0.46047
-0.471832
-0.48886
-0.509652
-0.532402
-0.556235
-0.580899
-0.606584
-0.633157
-0.660604
-0.70285
-0.690962
-0.600318
-0.509618
-0.454489
-0.432805
-0.428893
-0.431876
-0.438964
-0.450819
-0.467525
-0.487903
-0.510327
-0.533804
-0.557888
-0.582654
-0.607939
-0.633803
-0.608072
-0.611891
-0.543488
-0.469767
-0.422486
-0.403322
-0.401179
-0.406445
-0.415574
-0.428502
-0.445449
-0.465652
-0.48786
-0.511127
-0.534883
-0.559079
-0.583538
-0.60834
-0.517309
-0.533122
-0.482831
-0.424615
-0.385962
-0.370412
-0.370378
-0.377923
-0.389152
-0.403511
-0.421122
-0.441589
-0.463892
-0.487148
-0.510749
-0.534601
-0.558474
-0.582467
-0.407052
-0.438558
-0.406833
-0.364698
-0.33665
-0.326789
-0.330078
-0.340534
-0.354605
-0.371169
-0.390111
-0.411217
-0.43384
-0.457302
-0.481013
-0.504779
-0.528327
-0.551739
-0.292108
-0.332274
-0.314454
-0.287704
-0.271936
-0.269975
-0.278201
-0.292389
-0.309717
-0.329075
-0.350174
-0.372793
-0.396424
-0.420538
-0.444635
-0.468562
-0.492071
-0.515261
-0.162557
-0.205607
-0.199829
-0.188312
-0.186276
-0.19442
-0.209637
-0.229131
-0.250995
-0.27424
-0.29845
-0.323404
-0.348783
-0.374253
-0.399416
-0.424097
-0.448053
-0.471292
-0.0110392
-0.0563127
-0.0595929
-0.062454
-0.0751505
-0.0956529
-0.120387
-0.147265
-0.175234
-0.203764
-0.232507
-0.261197
-0.289546
-0.317332
-0.34434
-0.370517
-0.39574
-0.420107
0.18813
0.131372
0.112581
0.0937431
0.0653036
0.0302976
-0.00676003
-0.043629
-0.079669
-0.114841
-0.149141
-0.182494
-0.214725
-0.245741
-0.275435
-0.303836
-0.330812
-0.356433
0.457992
0.380925
0.339982
0.299317
0.250014
0.195571
0.141162
0.0892839
0.0403449
-0.00598792
-0.0499393
-0.0915116
-0.130611
-0.167267
-0.201599
-0.233879
-0.264252
-0.293005
0.710591
0.626659
0.568148
0.50285
0.428688
0.353743
0.284049
0.220817
0.162762
0.108424
0.0571156
0.00876605
-0.0364912
-0.078678
-0.117905
-0.154432
-0.188438
-0.220189
0.951573
0.85562
0.77268
0.676737
0.573556
0.474642
0.385722
0.306592
0.235186
0.1699
0.110136
0.0556814
0.00616948
-0.0390396
-0.0805818
-0.119041
-0.154734
-0.188046
1.19655
1.07926
0.961979
0.831812
0.70459
0.592476
0.496231
0.410616
0.331414
0.257506
0.189453
0.127685
0.0719037
0.0213491
-0.0247727
-0.0671939
-0.106355
-0.14266
1.47234
1.30817
1.13175
0.949915
0.7873
0.653295
0.542631
0.446295
0.35921
0.280293
0.209678
0.146907
0.0908314
0.0400616
-0.00637788
-0.0490789
-0.0883127
-0.124477
1.75514
1.54101
1.30231
1.07971
0.901176
0.761924
0.64373
0.534624
0.433303
0.342474
0.263329
0.194458
0.133507
0.0785932
0.02864
-0.0170442
-0.0589232
-0.0975432
2.03098
1.73081
1.39034
1.11206
0.918028
0.777366
0.656414
0.54372
0.440806
0.35059
0.2727
0.204603
0.143819
0.0887695
0.0386957
-0.00691368
-0.0484467
-0.0864607
2.40235
1.9791
1.53547
1.21737
1.01608
0.865305
0.725738
0.594781
0.479914
0.383369
0.30178
0.230707
0.167232
0.109946
0.0581432
0.0111701
-0.0316056
-0.0708876
2.71856
2.06603
1.51754
1.20266
1.02389
0.876572
0.732545
0.598959
0.484595
0.389287
0.308239
0.237068
0.173332
0.115886
0.0640424
0.0171195
-0.0255184
-0.0645391
3.23527
2.29165
1.59642
1.26584
1.0841
0.919208
0.759748
0.619017
0.502022
0.405011
0.322227
0.24952
0.184639
0.126413
0.074026
0.0267266
-0.016258
-0.055636
3.46283
2.25436
1.5596
1.27579
1.09698
0.924773
0.761856
0.621406
0.505307
0.408632
0.325775
0.25293
0.18796
0.129728
0.0773515
0.0301678
-0.0126793
-0.0516824
4.27166
2.29987
1.56032
1.30949
1.11862
0.935553
0.769469
0.628473
0.51188
0.414564
0.331143
0.25788
0.192614
0.134173
0.0816429
0.0343759
-0.00848864
-0.0473047
-0.841175
-0.852646
-0.870404
-0.885277
-0.892947
-0.895438
-0.898581
-0.909808
-0.935988
-0.982167
-1.05041
-1.14048
-1.24881
-1.37025
-1.49818
-1.625
-1.743
-1.845
-1.92522
-1.98
-2.00782
-2.00967
-1.98924
-1.95245
-1.90637
-1.85802
-1.81348
-1.77766
-1.75222
-1.73865
-1.73696
-1.74891
-1.77568
-1.81376
-1.86123
-1.91778
-1.98175
-2.05215
-2.12928
-2.21689
-2.31621
-2.42536
-2.54038
-2.65984
-2.7797
-2.89663
-3.00995
-3.11797
-3.21515
-3.29497
-3.35378
-3.38861
-3.39859
-3.38745
-3.36103
-3.32111
-3.26706
-3.19917
-3.1195
-3.03138
-2.93682
-2.83544
-2.72647
-2.60924
-2.48345
-2.34905
-2.2062
-2.05509
-1.89583
-1.7284
-1.5527
-1.36855
-1.17572
-0.973956
-0.763003
-0.542606
-0.31258
-0.0728782
0.176261
0.43422
0.699935
0.971917
1.24841
1.52756
1.80755
2.08674
2.36362
2.6368
2.90492
3.16664
3.42052
3.66505
3.89869
4.11984
4.32704
4.51897
4.69462
4.8533
4.99477
5.11917
5.22695
5.31879
5.39554
5.45818
5.50776
5.54539
5.57222
5.5894
5.59811
5.59952
5.59478
5.58502
5.57127
5.55447
5.53542
5.51482
5.49325
5.47116
5.44892
5.42679
5.40498
5.38364
5.36286
5.34271
5.32323
5.30444
5.28635
5.26896
5.25225
5.23621
5.22081
5.20605
5.1919
5.17835
5.16538
5.15295
5.14105
5.12965
5.11872
5.10825
5.09819
5.08852
5.07922
5.07024
5.06156
5.05315
5.04499
5.03705
5.0293
5.02173
5.01432
5.00704
4.99989
4.99284
4.98589
4.97903
4.97226
4.96556
4.95894
4.95241
4.94596
4.93961
4.93339
4.92732
4.92144
4.91581
4.91049
4.9056
4.90123
4.89763
4.89489
4.8935
4.8936
4.89617
4.90134
4.91119
4.92601
4.95007
4.98606
5.03605
-0.91307
-0.928439
-0.953368
-0.973739
-0.98533
-0.989239
-0.993535
-1.00558
-1.03341
-1.08169
-1.15274
-1.24585
-1.35761
-1.48279
-1.61474
-1.74589
-1.86857
-1.97558
-2.0608
-2.11953
-2.14914
-2.14994
-2.12535
-2.08161
-2.02658
-1.96877
-1.91551
-1.8726
-1.84377
-1.83145
-1.83704
-1.85865
-1.89585
-1.94835
-2.01033
-2.07575
-2.14659
-2.22878
-2.32046
-2.4178
-2.52733
-2.645
-2.76145
-2.87959
-3.00224
-3.12059
-3.23135
-3.33506
-3.42588
-3.49823
-3.54861
-3.57551
-3.57921
-3.56124
-3.52588
-3.47834
-3.41909
-3.34582
-3.25969
-3.16373
-3.05993
-2.94871
-2.82984
-2.70307
-2.56838
-2.42594
-2.27601
-2.11878
-1.95434
-1.78261
-1.60339
-1.41642
-1.22136
-1.01782
-0.805402
-0.583697
-0.352363
-0.111219
0.139533
0.399208
0.666673
0.940411
1.21864
1.49944
1.78095
2.06149
2.33957
2.61383
2.88299
3.14573
3.40068
3.64635
3.8812
4.10361
4.31207
4.50522
4.68201
4.84174
4.98415
5.10939
5.21793
5.31049
5.38792
5.45121
5.50143
5.53967
5.56706
5.58475
5.59391
5.59572
5.59134
5.58189
5.56841
5.55184
5.53301
5.51261
5.49121
5.46929
5.4472
5.42521
5.40353
5.3823
5.36162
5.34156
5.32216
5.30344
5.28542
5.26809
5.25144
5.23546
5.22014
5.20545
5.19137
5.17789
5.16497
5.1526
5.14075
5.12939
5.1185
5.10806
5.09803
5.08839
5.0791
5.07014
5.06147
5.05307
5.04492
5.03698
5.02924
5.02167
5.01426
5.00698
4.99982
4.99277
4.98582
4.97896
4.97218
4.96548
4.95886
4.95231
4.94585
4.9395
4.93325
4.92716
4.92125
4.91559
4.91022
4.90527
4.90083
4.89712
4.89426
4.89266
4.89256
4.89465
4.89949
4.90813
4.92219
4.94215
4.97336
5.00179
-0.955795
-0.968908
-0.992498
-1.01552
-1.03547
-1.05356
-1.07511
-1.10632
-1.15305
-1.21933
-1.3067
-1.41425
-1.53888
-1.67555
-1.81771
-1.95781
-2.0879
-2.20038
-2.28884
-2.34853
-2.37666
-2.37377
-2.34369
-2.29268
-2.2282
-2.15797
-2.08987
-2.03131
-1.98878
-1.96752
-1.97063
-1.99772
-2.04364
-2.10364
-2.17716
-2.26525
-2.3653
-2.4764
-2.59894
-2.72857
-2.85921
-2.98952
-3.11969
-3.24771
-3.37329
-3.49506
-3.60936
-3.71167
-3.79674
-3.86035
-3.89969
-3.91366
-3.90526
-3.87937
-3.83649
-3.77601
-3.70055
-3.61135
-3.50939
-3.39645
-3.27418
-3.14378
-3.00602
-2.86154
-2.71088
-2.55449
-2.39272
-2.22575
-2.05351
-1.87568
-1.69176
-1.50116
-1.30328
-1.09756
-0.883457
-0.660445
-0.427969
-0.185576
0.0668365
0.32875
0.599011
0.875936
1.15751
1.44158
1.72613
2.00938
2.28986
2.56629
2.83748
3.10225
3.35931
3.60725
3.8445
4.06941
4.28038
4.47599
4.65507
4.81688
4.96117
5.0881
5.1982
5.29221
5.37104
5.43569
5.48722
5.5267
5.55527
5.57404
5.58419
5.58688
5.58328
5.57453
5.56167
5.54566
5.52733
5.50739
5.48643
5.46491
5.4432
5.42157
5.40022
5.37931
5.35892
5.33913
5.31998
5.3015
5.28369
5.26655
5.25008
5.23426
5.21909
5.20454
5.19059
5.17723
5.16443
5.15216
5.14041
5.12914
5.11833
5.10795
5.09797
5.08837
5.07911
5.07017
5.06152
5.05313
5.04497
5.03704
5.02929
5.02171
5.01429
5.007
4.99983
4.99277
4.98581
4.97893
4.97214
4.96542
4.95878
4.95221
4.94572
4.93933
4.93305
4.9269
4.92093
4.91518
4.90972
4.90463
4.90003
4.89607
4.89294
4.89088
4.8903
4.89148
4.89533
4.90191
4.91341
4.92777
4.95065
4.9657
-0.960582
-0.966832
-0.982402
-1.00935
-1.04582
-1.08926
-1.14078
-1.20358
-1.28102
-1.37559
-1.48837
-1.61865
-1.76368
-1.9186
-2.07689
-2.2308
-2.37204
-2.49248
-2.58532
-2.64522
-2.66964
-2.6598
-2.62064
-2.55966
-2.48532
-2.40635
-2.33096
-2.26692
-2.22041
-2.19848
-2.20186
-2.2282
-2.27523
-2.341
-2.42432
-2.52544
-2.64399
-2.7776
-2.92274
-3.07574
-3.23253
-3.38879
-3.54187
-3.69025
-3.83254
-3.96671
-4.08924
-4.19489
-4.27817
-4.33394
-4.36196
-4.36513
-4.34391
-4.30002
-4.23669
-4.15531
-4.05719
-3.94405
-3.81804
-3.68128
-3.53562
-3.38262
-3.22359
-3.05957
-2.89138
-2.71966
-2.54487
-2.36719
-2.18642
-2.00197
-1.81298
-1.6185
-1.41764
-1.20963
-0.993799
-0.769469
-0.535849
-0.292127
-0.0377716
0.227015
0.501132
0.78265
1.06916
1.35814
1.64725
1.93454
2.21854
2.49807
2.77213
3.03971
3.29971
3.55077
3.79137
4.0198
4.23433
4.43339
4.61569
4.78044
4.92735
5.05663
5.1689
5.26497
5.34579
5.41239
5.46583
5.50717
5.53751
5.55794
5.5696
5.57366
5.57128
5.56361
5.55173
5.53659
5.51905
5.49984
5.47954
5.45862
5.43747
5.41637
5.39551
5.37504
5.35507
5.33566
5.31685
5.29867
5.28114
5.26425
5.248
5.23239
5.21741
5.20303
5.18925
5.17604
5.16337
5.15123
5.1396
5.12843
5.11771
5.10741
5.0975
5.08796
5.07875
5.06985
5.06124
5.05288
5.04475
5.03683
5.0291
5.02153
5.01411
5.00683
4.99967
4.99261
4.98564
4.97876
4.97196
4.96523
4.95858
4.95199
4.94548
4.93905
4.93273
4.92653
4.92049
4.91464
4.90906
4.90382
4.89902
4.89478
4.89131
4.88875
4.88754
4.88775
4.8903
4.8948
4.90319
4.91269
4.92715
4.93138
-0.97406
-0.976837
-0.995616
-1.03258
-1.08559
-1.15244
-1.23165
-1.32356
-1.42994
-1.5526
-1.69237
-1.84836
-2.01759
-2.19491
-2.37332
-2.54449
-2.69943
-2.82935
-2.92702
-2.98651
-3.0061
-2.98859
-2.94078
-2.87155
-2.79052
-2.70691
-2.6291
-2.56449
-2.51907
-2.49758
-2.50209
-2.53187
-2.5851
-2.66065
-2.75781
-2.87593
-3.01335
-3.16712
-3.3337
-3.50881
-3.68747
-3.86512
-4.03825
-4.20437
-4.36123
-4.50632
-4.63583
-4.7437
-4.825
-4.87655
-4.89485
-4.88246
-4.84287
-4.77755
-4.68902
-4.57993
-4.45296
-4.31111
-4.15728
-3.99393
-3.82319
-3.64687
-3.46639
-3.28291
-3.09734
-2.91046
-2.72279
-2.53454
-2.34546
-2.15476
-1.96123
-1.76347
-1.56016
-1.35028
-1.13305
-0.90775
-0.673452
-0.428898
-0.172816
0.0952803
0.374343
0.662012
0.955279
1.25101
1.54639
1.83915
2.1278
2.41129
2.68887
2.95982
3.22328
3.47808
3.72274
3.9555
4.17448
4.37788
4.56425
4.73267
4.88284
5.01506
5.13001
5.22861
5.31191
5.38098
5.43688
5.48065
5.51333
5.53597
5.54968
5.55559
5.55488
5.54871
5.53816
5.52423
5.50778
5.48956
5.47017
5.45009
5.4297
5.40928
5.38906
5.36919
5.34977
5.33087
5.31252
5.29477
5.27762
5.26109
5.24516
5.22984
5.21512
5.20098
5.18742
5.17441
5.16193
5.14997
5.13848
5.12746
5.11686
5.10667
5.09686
5.0874
5.07827
5.06943
5.06087
5.05255
5.04446
5.03657
5.02886
5.02131
5.01391
5.00663
4.99947
4.99241
4.98545
4.97856
4.97176
4.96502
4.95835
4.95174
4.9452
4.93873
4.93236
4.92609
4.91997
4.91402
4.9083
4.90287
4.89784
4.89329
4.88941
4.88631
4.88434
4.88352
4.88456
4.88698
4.89202
4.89707
4.90374
4.90056
-1.0124
-1.01824
-1.04554
-1.09555
-1.16509
-1.24978
-1.34829
-1.46184
-1.59238
-1.74108
-1.90754
-2.08933
-2.28214
-2.48011
-2.67602
-2.8615
-3.02751
-3.16509
-3.26633
-3.32617
-3.34368
-3.32302
-3.27212
-3.20114
-3.12079
-3.04062
-2.96874
-2.91221
-2.87643
-2.86493
-2.87942
-2.91975
-2.98525
-3.07536
-3.18899
-3.32459
-3.47962
-3.65072
-3.83367
-4.0237
-4.21601
-4.40621
-4.59097
-4.76761
-4.93335
-5.08458
-5.21675
-5.32464
-5.4015
-5.44384
-5.45093
-5.42333
-5.36314
-5.27352
-5.15764
-5.0192
-4.86225
-4.69064
-4.508
-4.31757
-4.12197
-3.92306
-3.72217
-3.52027
-3.31815
-3.11654
-2.9161
-2.71724
-2.51991
-2.32334
-2.12603
-1.92592
-1.72092
-1.5095
-1.2909
-1.06469
-0.830074
-0.585461
-0.328537
-0.0575862
0.22683
0.521772
0.823259
1.1273
1.43037
1.72978
2.02387
2.31178
2.59307
2.86738
3.13425
3.3928
3.64169
3.87913
4.10304
4.31138
4.50244
4.67514
4.82913
4.96474
5.08279
5.1843
5.27044
5.34236
5.40114
5.44779
5.4833
5.50863
5.52484
5.53307
5.53446
5.53019
5.52135
5.50896
5.49391
5.47695
5.4587
5.43966
5.42022
5.40068
5.38125
5.36209
5.34333
5.32503
5.30725
5.29002
5.27334
5.25723
5.24169
5.22672
5.21231
5.19846
5.18516
5.17239
5.16013
5.14835
5.13703
5.12617
5.11571
5.10565
5.09595
5.08659
5.07755
5.06878
5.06028
5.05202
5.04398
5.03612
5.02845
5.02092
5.01354
5.00629
4.99914
4.99209
4.98513
4.97825
4.97145
4.9647
4.95802
4.95139
4.94483
4.93833
4.9319
4.92557
4.91935
4.91328
4.90741
4.90179
4.8965
4.89161
4.88729
4.88359
4.88081
4.87891
4.87837
4.8787
4.88049
4.88151
4.88175
4.87306
-1.05386
-1.07272
-1.11566
-1.17944
-1.26019
-1.35648
-1.46944
-1.6008
-1.75164
-1.92146
-2.10796
-2.30738
-2.51495
-2.72505
-2.93122
-3.12594
-3.30025
-3.44508
-3.55238
-3.61747
-3.64015
-3.62499
-3.5805
-3.51774
-3.44776
-3.38056
-3.32444
-3.28592
-3.26963
-3.27834
-3.31303
-3.37325
-3.45815
-3.56647
-3.69661
-3.84672
-4.01432
-4.19632
-4.38909
-4.58852
-4.79034
-4.99079
-5.18674
-5.37486
-5.55149
-5.7121
-5.85087
-5.96132
-6.03771
-6.07593
-6.07431
-6.03228
-5.95116
-5.834
-5.68542
-5.51116
-5.31711
-5.1089
-4.89153
-4.669
-4.44426
-4.2194
-3.99575
-3.77407
-3.55472
-3.33792
-3.12396
-2.91339
-2.70671
-2.50355
-2.30226
-2.10006
-1.89375
-1.68077
-1.46016
-1.2322
-0.99666
-0.751902
-0.494921
-0.222358
0.0667992
0.369383
0.680038
0.993468
1.30524
1.61215
1.91234
2.20502
2.49004
2.7675
3.03738
3.29922
3.55194
3.79382
4.0226
4.23599
4.432
4.60932
4.76746
4.9068
5.02819
5.13288
5.22214
5.29723
5.35923
5.40912
5.44781
5.4762
5.4953
5.50623
5.51011
5.50811
5.50134
5.49083
5.47746
5.46202
5.44515
5.42735
5.40903
5.3905
5.372
5.35368
5.33568
5.31809
5.30095
5.28431
5.26818
5.25257
5.23748
5.22292
5.20889
5.19537
5.18238
5.16988
5.15786
5.14633
5.13523
5.12456
5.11428
5.10437
5.09481
5.08557
5.07663
5.06797
5.05955
5.05136
5.04337
5.03557
5.02794
5.02045
5.0131
5.00587
4.99874
4.99171
4.98476
4.97789
4.97108
4.96434
4.95764
4.951
4.94441
4.93786
4.93139
4.92498
4.91867
4.91247
4.90644
4.9006
4.89503
4.88979
4.88498
4.88067
4.87703
4.87402
4.87187
4.87016
4.86891
4.8663
4.86133
4.84825
-1.10095
-1.13292
-1.19372
-1.26701
-1.35409
-1.45758
-1.57971
-1.72189
-1.88397
-2.06382
-2.25822
-2.46325
-2.67478
-2.88863
-3.09975
-3.30139
-3.48468
-3.63961
-3.75832
-3.83589
-3.87211
-3.87167
-3.84335
-3.79853
-3.74899
-3.70514
-3.67521
-3.66502
-3.6781
-3.71584
-3.77777
-3.86246
-3.96837
-4.09405
-4.2384
-4.40035
-4.57861
-4.77136
-4.97622
-5.19009
-5.40936
-5.63043
-5.84929
-6.06149
-6.26173
-6.44361
-6.59973
-6.72179
-6.80237
-6.83612
-6.8199
-6.75361
-6.63975
-6.4831
-6.29034
-6.06929
-5.82819
-5.57472
-5.31528
-5.05467
-4.79621
-4.54188
-4.29265
-4.0487
-3.80979
-3.57561
-3.34623
-3.1222
-2.90412
-2.69193
-2.48443
-2.27914
-2.07202
-1.8586
-1.63657
-1.40642
-1.16861
-0.922247
-0.664685
-0.391464
-0.0987783
0.210945
0.531158
0.854735
1.17602
1.49116
1.79803
2.09584
2.38472
2.66521
2.93772
3.20226
3.45812
3.70376
3.93689
4.15498
4.35569
4.53744
4.69959
4.84253
4.96727
5.07523
5.16782
5.24634
5.31187
5.36532
5.40749
5.43926
5.46159
5.47555
5.48225
5.48286
5.47848
5.47013
5.45873
5.44506
5.42977
5.41339
5.39636
5.37898
5.36152
5.34415
5.32701
5.3102
5.29378
5.2778
5.26228
5.24723
5.23266
5.21856
5.20495
5.19182
5.17918
5.167
5.15529
5.14401
5.13314
5.12268
5.11259
5.10285
5.09345
5.08435
5.07553
5.06698
5.05865
5.05055
5.04263
5.03489
5.02731
5.01987
5.01255
5.00535
4.99824
4.99123
4.9843
4.97744
4.97064
4.96389
4.95719
4.95053
4.94391
4.93733
4.9308
4.92432
4.91791
4.91158
4.90537
4.89931
4.89345
4.88783
4.88252
4.87756
4.87305
4.86891
4.86521
4.8615
4.8575
4.85165
4.84248
4.82586
-1.18806
-1.22255
-1.28162
-1.35167
-1.4366
-1.53969
-1.66291
-1.80648
-1.96896
-2.14754
-2.33908
-2.54043
-2.74888
-2.96183
-3.17601
-3.38507
-3.57912
-3.74749
-3.88132
-3.97581
-4.03094
-4.05171
-4.04737
-4.02976
-4.01092
-4.00087
-4.00693
-4.03369
-4.08293
-4.15411
-4.24526
-4.35417
-4.47948
-4.62114
-4.77998
-4.95683
-5.15209
-5.36546
-5.59552
-5.8395
-6.09355
-6.35283
-6.61142
-6.86266
-7.09876
-7.31077
-7.48836
-7.62121
-7.70076
-7.72143
-7.68101
-7.58028
-7.42328
-7.21678
-6.96944
-6.69155
-6.39392
-6.08658
-5.77774
-5.47327
-5.17663
-4.88934
-4.61164
-4.3431
-4.08289
-3.82998
-3.58359
-3.34389
-3.11185
-2.88827
-2.67256
-2.4625
-2.254
-2.04099
-1.81917
-1.58819
-1.34883
-1.10036
-0.840553
-0.564821
-0.26783
0.0492572
0.37944
0.713824
1.04541
1.3695
1.68354
1.98685
2.27984
2.56339
2.83835
3.1052
3.3636
3.61231
3.84913
4.07127
4.276
4.46147
4.62699
4.77304
4.90085
5.01203
5.10808
5.19028
5.25963
5.31692
5.36289
5.39833
5.42417
5.44145
5.45126
5.45475
5.45302
5.4471
5.43789
5.42619
5.41266
5.39787
5.38225
5.36616
5.34986
5.33353
5.31734
5.30139
5.28576
5.2705
5.25564
5.24121
5.2272
5.21362
5.20048
5.18778
5.17552
5.1637
5.1523
5.14131
5.13072
5.1205
5.11063
5.10109
5.09186
5.08292
5.07424
5.06581
5.0576
5.04959
5.04176
5.03409
5.02657
5.01918
5.01191
5.00474
4.99767
4.99068
4.98377
4.97692
4.97013
4.96339
4.95668
4.95001
4.94337
4.93675
4.93016
4.9236
4.91709
4.91062
4.90424
4.89794
4.89178
4.88577
4.87995
4.87433
4.86894
4.86369
4.85848
4.8529
4.84642
4.8377
4.82514
4.80563
-1.27309
-1.30189
-1.34841
-1.40991
-1.48908
-1.58728
-1.70557
-1.8436
-1.99948
-2.17005
-2.35224
-2.54363
-2.74306
-2.94993
-3.1622
-3.37392
-3.57508
-3.75449
-3.90364
-4.01851
-4.09947
-4.15136
-4.18306
-4.20532
-4.22879
-4.26231
-4.31183
-4.38005
-4.46678
-4.57005
-4.68777
-4.81891
-4.96399
-5.12507
-5.30529
-5.50794
-5.735
-5.98671
-6.2611
-6.55413
-6.86015
-7.17203
-7.48161
-7.77971
-8.0563
-8.30032
-8.49964
-8.64288
-8.72104
-8.72831
-8.66199
-8.52311
-8.31686
-8.05186
-7.7397
-7.39383
-7.02815
-6.65551
-6.28639
-5.92819
-5.585
-5.25825
-4.94757
-4.65165
-4.36863
-4.09639
-3.83312
-3.57814
-3.33237
-3.09707
-2.87248
-2.65689
-2.44655
-2.23426
-2.01361
-1.78277
-1.54222
-1.29111
-1.02697
-0.745668
-0.441475
-0.114781
0.226649
0.57285
0.915457
1.24886
1.57033
1.87933
2.17661
2.46339
2.74086
3.00993
3.27067
3.52202
3.76178
3.987
4.19471
4.38296
4.55109
4.69976
4.83042
4.9448
5.0444
5.13042
5.20371
5.26498
5.31487
5.35414
5.38369
5.4045
5.41765
5.42425
5.42538
5.42205
5.41519
5.40561
5.39399
5.3809
5.36682
5.35211
5.33705
5.32187
5.30671
5.2917
5.27693
5.26245
5.24832
5.23456
5.22117
5.20815
5.19553
5.1833
5.17146
5.16003
5.14899
5.13833
5.12803
5.11807
5.10844
5.09912
5.09008
5.08132
5.07279
5.0645
5.05641
5.04851
5.04077
5.03319
5.02574
5.01841
5.01119
5.00406
4.99702
4.99006
4.98317
4.97634
4.96956
4.96283
4.95612
4.94944
4.94277
4.93611
4.92947
4.92283
4.91621
4.90961
4.90304
4.89651
4.89004
4.88363
4.8773
4.87102
4.86478
4.85843
4.8518
4.84445
4.83576
4.82454
4.80919
4.7873
-1.31498
-1.33765
-1.37642
-1.43071
-1.50331
-1.59496
-1.70656
-1.8372
-1.98431
-2.14472
-2.31574
-2.4955
-2.68359
-2.88043
-3.08504
-3.29238
-3.4939
-3.67977
-3.8428
-3.97994
-4.09194
-4.18286
-4.25965
-4.33066
-4.40396
-4.48603
-4.58092
-4.68984
-4.81178
-4.94513
-5.08928
-5.24565
-5.41747
-5.60934
-5.82613
-6.0717
-6.3478
-6.65347
-6.98469
-7.33503
-7.69702
-8.0626
-8.42297
-8.76844
-9.08791
-9.36791
-9.59372
-9.75159
-9.83073
-9.82417
-9.72931
-9.54845
-9.28855
-8.96069
-8.57914
-8.16009
-7.72033
-7.27565
-6.83911
-6.41994
-6.02343
-5.65149
-5.30366
-4.97789
-4.67107
-4.37963
-4.10018
-3.83089
-3.57224
-3.32616
-3.09351
-2.87293
-2.66024
-2.44756
-2.22686
-1.99541
-1.75278
-1.49728
-1.22602
-0.935155
-0.619471
-0.280019
0.0747812
0.433931
0.787953
1.13076
1.45961
1.77426
2.07588
2.36609
2.64636
2.91788
3.18092
3.43455
3.67646
3.90363
4.11316
4.30325
4.47342
4.62453
4.75809
4.8758
4.97904
5.06886
5.146
5.21107
5.26472
5.3077
5.34091
5.3653
5.3819
5.39174
5.39586
5.39525
5.39084
5.38346
5.37383
5.36254
5.35008
5.33683
5.32311
5.30914
5.2951
5.28111
5.26727
5.25366
5.24031
5.22727
5.21454
5.20215
5.19008
5.17837
5.167
5.156
5.14534
5.13503
5.12505
5.11539
5.10602
5.09694
5.08811
5.07954
5.07118
5.06304
5.05509
5.0473
5.03967
5.03218
5.02481
5.01755
5.01039
5.00331
4.99631
4.98939
4.98252
4.97571
4.96894
4.96221
4.9555
4.94881
4.94212
4.93543
4.92873
4.92202
4.91529
4.90855
4.90179
4.89502
4.88824
4.88144
4.8746
4.86768
4.8606
4.8532
4.84524
4.83626
4.82561
4.81219
4.79455
4.77069
-1.31326
-1.33213
-1.36599
-1.4153
-1.48303
-1.56957
-1.6755
-1.79991
-1.94047
-2.09421
-2.2583
-2.43089
-2.61163
-2.80115
-2.99909
-3.20182
-3.40286
-3.59479
-3.77178
-3.93117
-4.0734
-4.2013
-4.31977
-4.43503
-4.55308
-4.67865
-4.8144
-4.96107
-5.11828
-5.28572
-5.46466
-5.6581
-5.87039
-6.10647
-6.37066
-6.66557
-6.99119
-7.34505
-7.72219
-8.1163
-8.52073
-8.92825
-9.3305
-9.71707
-10.074
-10.3844
-10.6307
-10.7976
-10.8738
-10.8527
-10.7325
-10.5161
-10.2117
-9.83183
-9.39244
-8.91189
-8.40916
-7.9023
-7.40616
-6.93155
-6.48509
-6.06964
-5.68521
-5.32948
-4.99848
-4.68727
-4.39112
-4.10736
-3.83627
-3.57997
-3.33991
-3.11456
-2.89872
-2.68353
-2.46063
-2.22624
-1.97881
-1.71576
-1.43377
-1.12908
-0.797634
-0.442305
-0.0725218
0.300026
0.665341
1.01709
1.35287
1.67296
1.97896
2.27274
2.55611
2.83029
3.09553
3.3509
3.59409
3.82217
4.03258
4.22386
4.39578
4.54928
4.68585
4.80696
4.91381
5.00725
5.08793
5.15646
5.21353
5.25994
5.29662
5.32449
5.3445
5.35761
5.36477
5.36694
5.36505
5.35993
5.35232
5.34287
5.33208
5.32036
5.30805
5.29537
5.28252
5.26962
5.25679
5.2441
5.23161
5.21935
5.20735
5.19561
5.18417
5.17301
5.16216
5.15162
5.14139
5.13146
5.12183
5.11248
5.1034
5.09457
5.08598
5.07761
5.06944
5.06146
5.05365
5.046
5.03848
5.03109
5.02381
5.01662
5.00952
5.0025
4.99555
4.98866
4.98182
4.97503
4.96828
4.96155
4.95485
4.94814
4.94143
4.93471
4.92795
4.92116
4.91433
4.90745
4.90051
4.89351
4.88642
4.87923
4.87189
4.86434
4.85645
4.84806
4.83886
4.8284
4.81601
4.80068
4.78112
4.75563
-1.27865
-1.29524
-1.32751
-1.37506
-1.44074
-1.52537
-1.62961
-1.75267
-1.8926
-2.04677
-2.21267
-2.38836
-2.57298
-2.7662
-2.96718
-3.17299
-3.37867
-3.5784
-3.76754
-3.94383
-4.10737
-4.26045
-4.40747
-4.55396
-4.70533
-4.866
-5.03842
-5.22313
-5.41966
-5.62755
-5.84767
-6.08191
-6.33328
-6.60547
-6.90186
-7.22513
-7.57585
-7.95226
-8.35045
-8.76499
-9.18973
-9.61783
-10.0408
-10.4471
-10.8212
-11.1451
-11.401
-11.5732
-11.6505
-11.6263
-11.4977
-11.2668
-10.9413
-10.5341
-10.0628
-9.54717
-9.00784
-8.46328
-7.92931
-7.41776
-6.93637
-6.48923
-6.07661
-5.69646
-5.34432
-5.01452
-4.70187
-4.40391
-4.12127
-3.85616
-3.60961
-3.37917
-3.15811
-2.93714
-2.7082
-2.46707
-2.21105
-1.93671
-1.64005
-1.31742
-0.967199
-0.594612
-0.209961
0.175068
0.550544
0.910249
1.2522
1.57723
1.88736
2.18472
2.47115
2.74782
3.01494
3.27149
3.51522
3.74349
3.95418
4.1462
4.31962
4.4754
4.61486
4.73922
4.8494
4.94612
5.02996
5.10159
5.16178
5.21139
5.25133
5.28252
5.30584
5.32215
5.33234
5.33731
5.33794
5.3351
5.32957
5.32199
5.31291
5.30278
5.29192
5.2806
5.269
5.25727
5.24551
5.23381
5.22223
5.21081
5.19959
5.18857
5.17779
5.16724
5.15694
5.14691
5.13714
5.12762
5.11837
5.10936
5.10058
5.09203
5.08368
5.07553
5.06756
5.05976
5.05211
5.04459
5.0372
5.02992
5.02273
5.01563
5.0086
5.00164
4.99473
4.98788
4.98108
4.97431
4.96758
4.96086
4.95415
4.94744
4.94071
4.93395
4.92714
4.92028
4.91334
4.90633
4.89921
4.89197
4.88459
4.87702
4.8692
4.86104
4.8524
4.84306
4.83273
4.82092
4.80698
4.79001
4.76881
4.74197
-1.22801
-1.24384
-1.27653
-1.32535
-1.39305
-1.48081
-1.58972
-1.71962
-1.8694
-2.03705
-2.22025
-2.41629
-2.6224
-2.83571
-3.05326
-3.27148
-3.48605
-3.69259
-3.88778
-4.07046
-4.24181
-4.40532
-4.56618
-4.73043
-4.90361
-5.08953
-5.28948
-5.50255
-5.72657
-5.9594
-6.20038
-6.45042
-6.71217
-6.98958
-7.2869
-7.60787
-7.95395
-8.32373
-8.71365
-9.11917
-9.53451
-9.95385
-10.3698
-10.7714
-11.1442
-11.4705
-11.7322
-11.9131
-12.0011
-11.9889
-11.8731
-11.6549
-11.3407
-10.943
-10.4785
-9.96722
-9.42912
-8.88234
-8.34247
-7.82169
-7.3286
-6.86824
-6.44202
-6.04817
-5.68228
-5.33872
-5.01306
-4.70389
-4.41247
-4.14065
-3.88821
-3.65101
-3.42136
-3.19053
-2.95147
-2.69982
-2.43184
-2.14301
-1.8286
-1.48592
-1.11668
-0.728149
-0.33081
0.0645911
0.447915
0.813605
1.16019
1.489
1.80238
2.10267
2.39171
2.67059
2.93929
3.19658
3.44032
3.66825
3.87878
4.07125
4.24596
4.40382
4.5459
4.67311
4.78616
4.88564
4.97221
5.04661
5.10969
5.16234
5.20543
5.23979
5.26624
5.28561
5.29872
5.30643
5.3096
5.30908
5.30565
5.29999
5.29269
5.2842
5.27486
5.26496
5.25467
5.24416
5.23353
5.22288
5.21226
5.20173
5.19133
5.18108
5.17099
5.16109
5.15139
5.14189
5.13261
5.12354
5.11468
5.10603
5.09758
5.08932
5.08124
5.07332
5.06557
5.05795
5.05047
5.0431
5.03584
5.02868
5.02159
5.01458
5.00763
5.00073
4.99388
4.98707
4.9803
4.97357
4.96685
4.96014
4.95344
4.94672
4.93997
4.93317
4.92631
4.91938
4.91234
4.90519
4.8979
4.89044
4.88277
4.87483
4.86655
4.85781
4.84846
4.83826
4.82688
4.81386
4.79856
4.78015
4.75757
4.72959
-1.18089
-1.19699
-1.23233
-1.28586
-1.3608
-1.45873
-1.58208
-1.73216
-1.90915
-2.11099
-2.3339
-2.57243
-2.82026
-3.07088
-3.3186
-3.55818
-3.78454
-3.99372
-4.18425
-4.35768
-4.51826
-4.67179
-4.82463
-4.98268
-5.15051
-5.3308
-5.5241
-5.72897
-5.94279
-6.16303
-6.38887
-6.62135
-6.86293
-7.11742
-7.38868
-7.68037
-7.99402
-8.3307
-8.6874
-9.06061
-9.44594
-9.83872
-10.2322
-10.6163
-10.9778
-11.3002
-11.5663
-11.7602
-11.8695
-11.8861
-11.8055
-11.6278
-11.358
-11.0058
-10.586
-10.1171
-9.61768
-9.10433
-8.59152
-8.0911
-7.61212
-7.16036
-6.73817
-6.34428
-5.97484
-5.62533
-5.29304
-4.97802
-4.68184
-4.40531
-4.14644
-3.89997
-3.65875
-3.41567
-3.16486
-2.90136
-2.61977
-2.31431
-1.98067
-1.61884
-1.23346
-0.833237
-0.427526
-0.026199
0.361551
0.730272
1.07901
1.40948
1.72456
2.02682
2.31806
2.59894
2.86892
3.1265
3.36973
3.59692
3.80702
3.9998
4.17566
4.33532
4.47953
4.60897
4.72422
4.82592
4.9148
4.99168
5.05746
5.11301
5.15911
5.1965
5.22591
5.24815
5.26403
5.27439
5.28008
5.2819
5.28065
5.27699
5.27154
5.26476
5.25702
5.2486
5.23969
5.23044
5.22099
5.21142
5.20181
5.19221
5.18267
5.1732
5.16385
5.15462
5.14554
5.13661
5.12784
5.11923
5.1108
5.10253
5.09442
5.08647
5.07867
5.071
5.06347
5.05605
5.04874
5.04154
5.03442
5.02737
5.0204
5.01348
5.00661
4.99978
4.99299
4.98624
4.9795
4.9728
4.9661
4.95941
4.9527
4.94597
4.9392
4.93238
4.92547
4.91846
4.91133
4.90405
4.8966
4.88892
4.88098
4.87269
4.86397
4.8547
4.84468
4.83368
4.82135
4.80724
4.79075
4.77109
4.74732
4.71839
-1.15135
-1.16953
-1.21021
-1.27349
-1.36435
-1.48602
-1.64301
-1.83744
-2.06883
-2.33235
-2.6204
-2.92331
-3.23038
-3.5302
-3.81238
-4.06897
-4.29452
-4.48689
-4.64732
-4.78061
-4.89378
-4.99457
-5.09048
-5.18835
-5.29444
-5.41353
-5.54851
-5.70063
-5.8677
-6.04791
-6.23831
-6.43788
-6.64703
-6.86763
-7.10247
-7.35455
-7.62622
-7.91911
-8.23268
-8.56478
-8.91206
-9.27006
-9.6326
-9.99101
-10.334
-10.6479
-10.9178
-11.1292
-11.2698
-11.3304
-11.3052
-11.1921
-10.9935
-10.7166
-10.3736
-9.98009
-9.55183
-9.10326
-8.64698
-8.19384
-7.75276
-7.32998
-6.92859
-6.54816
-6.18632
-5.84069
-5.51053
-5.1968
-4.90051
-4.62106
-4.35548
-4.09892
-3.84608
-3.5915
-3.32952
-3.05337
-2.75625
-2.43295
-2.08191
-1.70588
-1.31086
-0.904936
-0.496644
-0.0947389
0.292628
0.660377
1.00794
1.33764
1.65299
1.95661
2.24973
2.53219
2.80283
3.06005
3.30229
3.52846
3.73804
3.93103
4.10774
4.26865
4.41426
4.54517
4.66202
4.76553
4.8565
4.93577
5.00421
5.0626
5.11162
5.15191
5.18416
5.20916
5.22774
5.24074
5.24897
5.25323
5.25426
5.25275
5.24927
5.24433
5.23829
5.23144
5.22398
5.21607
5.20785
5.19942
5.19085
5.18222
5.17357
5.16493
5.15633
5.14781
5.13937
5.13103
5.1228
5.11468
5.10669
5.09883
5.09108
5.08346
5.07595
5.06855
5.06125
5.05405
5.04693
5.03989
5.03292
5.026
5.01914
5.01233
5.00555
4.9988
4.99207
4.98537
4.97868
4.972
4.96533
4.95865
4.95195
4.94522
4.93843
4.93157
4.92461
4.91754
4.91032
4.90292
4.8953
4.88742
4.87922
4.87061
4.86148
4.8517
4.84108
4.82934
4.81616
4.80109