/*--------------------------------*- C++ -*----------------------------------*\
  =========                 |
  \\      /  F ield         | OpenFOAM: The Open Source CFD Toolbox
   \\    /   O peration     | Website:  https://openfoam.org
    \\  /    A nd           | Version:  7
     \\/     M anipulation  |
\*---------------------------------------------------------------------------*/
FoamFile
{
    version     2.0;
    format      ascii;
    class       volScalarField;
    location    "0.072";
    object      s;
}
// * * * * * * * * * * * * * * * * * * * * * * * * * * * * * * * * * * * * * //

dimensions      [0 0 0 0 0 0 0];

internalField   nonuniform List<scalar> 
12225
(
1
1
1
1
1
1
1
1
1
1
1
1
1
1
1
1
1
1
1
1
1
1
1
1
1
1
1
1
1
1
1
1
1
1
1
1
1
1
1
1
1
1
1
1
1
1
1
1
1
1
1
1
1
1
1
1
1
1
1
1
1
1
1
1
1
1
1
1
1
1
1
1
1
1
1
1
1
1
1
1
1
1
1
1
1
1
1
1
1
1
1
1
1
1
1
1
1
1
1
1
1
1
1
1
1
1
1
1
1
1
1
1
1
1
1
1
1
1
1
1
1
1
1
1
1
1
1
1
1
1
1
1
1
1
1
1
1
1
1
1
1
1
1
1
1
1
1
1
1
1
1
1
1
1
1
1
1
1
1
1
1
1
1
1
1
1
1
1
1
1
1
1
1
1
1
1
1
1
1
1
1
1
1
1
1
1
1
1
1
1
1
1
1
1
1
1
1
1
1
1
1
1
1
1
1
1
1
1
1
1
1
1
1
1
1
1
1
1
1
1
1
1
1
1
1
1
1
1
1
1
1
1
1
1
1
1
1
1
1
1
1
1
1
1
1
1
1
1
1
1
1
1
1
1
1
1
1
1
1
1
1
1
1
1
1
1
1
1
1
1
1
1
1
1
1
1
1
1
1
1
1
1
1
1
1
1
1
1
1
1
1
1
1
1
1
1
1
1
1
1
1
1
1
1
1
1
1
1
1
1
1
1
1
1
1
1
1
1
1
1
1
1
1
1
1
1
1
1
1
1
1
1
1
1
1
1
1
1
1
1
1
1
1
1
1
1
1
1
1
1
1
1
1
1
1
1
1
1
1
1
1
1
1
1
1
1
1
1
1
1
1
1
1
1
1
1
1
1
1
1
1
1
1
1
1
1
1
1
1
1
1
1
1
1
1
1
1
1
1
1
1
1
1
1
1
1
1
1
1
1
1
1
1
1
1
1
1
1
1
1
1
1
1
1
1
1
1
1
1
1
1
1
1
1
1
1
1
1
1
1
1
1
1
1
1
1
1
1
1
1
1
1
1
1
1
1
1
1
1
1
1
1
1
1
1
1
1
1
1
1
1
1
1
1
1
1
1
1
1
1
1
1
1
1
1
1
1
1
1
1
1
1
1
1
1
1
1
1
1
1
1
1
1
1
1
1
1
1
1
1
1
1
1
1
1
1
1
1
1
1
1
1
1
1
1
1
1
1
1
1
1
1
1
1
1
1
1
1
1
1
0.0537735
0.136963
0.166954
0.173797
0.174399
0.172552
0.184539
0.208867
0.240858
0.275845
0.316274
0.353726
0.3814
0.405306
0.428901
0.458794
0.486566
0.511231
0.528312
0.539455
0.549373
0.559099
0.566851
0.570012
0.570097
0.569512
0.56764
0.564719
0.556668
0.547906
0.535549
0.508262
0.484918
0.443866
0.333852
0.201072
0.0664235
0.012553
0.0113718
0.0144443
0.0159392
0.0183527
0.0217984
0.0251201
0.0292267
0.0339875
0.0391785
0.0436759
0.0453024
0.0445324
0.0443186
0.0532966
0.0755654
0.0947256
0.121286
0.155186
0.229005
0.518574
0.762574
0.823322
0.83317
0.83788
0.840787
0.843174
0.84522
0.846327
0.847434
0.848749
0.849694
0.850394
0.851244
0.851838
0.852541
0.853158
0.853775
0.854309
0.85498
0.855668
0.85603
0.856409
0.857095
0.857585
0.857983
0.858651
0.859201
0.859535
0.859905
0.860369
0.860587
0.860882
0.861056
0.861119
0.861097
0.860672
0.860036
0.859459
0.85878
0.858149
0.857634
0.857269
0.857013
0.85665
0.856099
0.855731
0.855149
0.854379
0.853303
0.85163
0.849339
0.846452
0.842797
0.838082
0.832053
0.824424
0.814824
0.80289
0.788433
0.770923
0.750127
0.725942
0.697053
0.662309
0.621749
0.572952
0.512907
0.444714
0.370006
0.284465
0.197232
0.127652
0.0784272
0.0457668
0.0253306
0.0132618
0.0065498
0.00304529
0.00133296
0.00055106
0.000214173
7.42676e-05
2.20953e-05
1.07469e-05
5.34647e-06
2.61966e-06
1.24883e-06
5.79333e-07
2.62207e-07
1.16078e-07
5.03842e-08
2.14956e-08
9.03696e-09
3.75367e-09
1.5446e-09
6.31347e-10
2.57002e-10
1.04435e-10
4.24481e-11
1.7282e-11
7.05345e-12
2.8864e-12
1.1839e-12
4.86377e-13
1.99937e-13
8.21222e-14
3.36361e-14
1.37006e-14
5.53096e-15
2.20475e-15
8.64549e-16
3.32345e-16
1.24863e-16
4.57284e-17
1.62862e-17
5.62762e-18
1.88194e-18
6.06889e-19
1.88222e-19
5.50798e-20
1.50717e-20
-1.55377e-20
0.0350939
0.103871
0.119897
0.102961
0.0581316
0.0432915
0.0578446
0.0917732
0.151976
0.215968
0.29284
0.367514
0.429887
0.485193
0.529443
0.55832
0.575592
0.586819
0.597045
0.603067
0.612525
0.619353
0.625557
0.634579
0.644388
0.651136
0.659672
0.667181
0.668527
0.667585
0.663806
0.654184
0.630454
0.598037
0.541248
0.416687
0.245281
0.125743
0.0622735
0.0341993
0.0224329
0.0169185
0.016285
0.0193354
0.0272351
0.0420196
0.064758
0.094455
0.115613
0.117797
0.115047
0.113535
0.115567
0.120582
0.180785
0.543385
0.745743
0.796072
0.826673
0.837825
0.842431
0.845951
0.848725
0.850888
0.852351
0.853732
0.854927
0.856146
0.857121
0.857897
0.858577
0.859193
0.859754
0.860065
0.860406
0.860709
0.860872
0.860912
0.860913
0.860869
0.860929
0.861431
0.862253
0.863453
0.864811
0.865893
0.867044
0.868549
0.870103
0.871856
0.873493
0.875514
0.877482
0.879416
0.881109
0.882308
0.88372
0.884804
0.885314
0.885684
0.885876
0.885917
0.885813
0.885562
0.88527
0.885103
0.885227
0.885927
0.887453
0.889847
0.893362
0.898167
0.904372
0.912061
0.921295
0.931954
0.943083
0.95342
0.96164
0.967677
0.972458
0.97615
0.978856
0.980686
0.981724
0.982041
0.981093
0.976429
0.968618
0.95132
0.912744
0.851782
0.768439
0.663508
0.543814
0.423159
0.316524
0.229977
0.162402
0.111559
0.0745982
0.0485761
0.0308061
0.0190291
0.0114519
0.0067179
0.00384437
0.00214836
0.0011739
0.000628083
0.000329553
0.00016983
8.60829e-05
4.29725e-05
2.11494e-05
1.02703e-05
4.92331e-06
2.33029e-06
1.08902e-06
5.02439e-07
2.28849e-07
1.02927e-07
4.57279e-08
2.00744e-08
8.70591e-09
3.72629e-09
1.57106e-09
6.50951e-10
2.64283e-10
1.04897e-10
4.05845e-11
1.52898e-11
5.59062e-12
1.9857e-12
6.81084e-13
2.2652e-13
7.23335e-14
2.16531e-14
5.78441e-15
-2.80622e-14
0.0158459
0.0347872
0.049307
0.0437558
0.0420886
0.0645806
0.125347
0.244881
0.372678
0.471969
0.532733
0.566067
0.580742
0.588617
0.591631
0.591455
0.590093
0.58754
0.583856
0.580872
0.58074
0.581652
0.584332
0.58899
0.597275
0.608696
0.619803
0.633166
0.648753
0.658294
0.666802
0.674665
0.675136
0.672754
0.663197
0.636936
0.58279
0.464985
0.279285
0.153767
0.0905043
0.0565085
0.0447372
0.0453597
0.0510798
0.0655475
0.0881387
0.141432
0.214479
0.22894
0.223068
0.199827
0.207776
0.453398
0.704673
0.794057
0.823919
0.836101
0.842306
0.845341
0.847662
0.849425
0.850555
0.851524
0.852229
0.852806
0.853072
0.853172
0.853053
0.852674
0.852117
0.851238
0.850004
0.848008
0.845489
0.842548
0.839474
0.836383
0.833583
0.832103
0.831693
0.832122
0.835143
0.840127
0.844696
0.848637
0.853003
0.857526
0.86185
0.866033
0.869822
0.874092
0.877829
0.881331
0.884564
0.888082
0.892207
0.896097
0.899605
0.901948
0.903899
0.904621
0.904529
0.903019
0.900371
0.896583
0.891715
0.886232
0.881451
0.877496
0.873974
0.871355
0.869894
0.869504
0.870017
0.871752
0.875995
0.884149
0.897051
0.913993
0.93194
0.947855
0.960136
0.969947
0.97777
0.983916
0.988712
0.992305
0.994753
0.996252
0.997042
0.997095
0.996432
0.994112
0.98867
0.97791
0.954533
0.894599
0.773601
0.634497
0.49549
0.372087
0.271469
0.192434
0.13255
0.0888143
0.0579762
0.0369335
0.0230033
0.0140348
0.00840517
0.00495117
0.00287464
0.00164837
0.000935423
0.000526524
0.000294716
0.0001645
9.17593e-05
5.117e-05
2.84405e-05
1.56464e-05
8.47234e-06
4.49902e-06
2.33606e-06
1.18409e-06
5.84601e-07
2.80841e-07
1.31275e-07
5.98737e-08
2.66235e-08
1.15584e-08
4.88642e-09
2.01787e-09
8.08356e-10
3.16556e-10
1.19224e-10
4.38877e-11
1.56147e-11
4.34762e-12
0.00368226
0.00996392
0.012378
0.0380199
0.131518
0.308388
0.480155
0.558667
0.593943
0.601932
0.602759
0.59846
0.587582
0.573778
0.546601
0.518449
0.48381
0.455936
0.42894
0.413125
0.396925
0.392563
0.395049
0.402289
0.418437
0.437757
0.46527
0.494859
0.527687
0.56582
0.603812
0.634879
0.657133
0.669234
0.672492
0.670746
0.661729
0.634199
0.57379
0.432482
0.299258
0.199165
0.137088
0.127728
0.132402
0.148084
0.183712
0.273067
0.361342
0.361306
0.330544
0.413615
0.623651
0.758055
0.811752
0.831228
0.838874
0.842575
0.844688
0.846334
0.847751
0.848892
0.849364
0.84953
0.849318
0.848605
0.847829
0.846762
0.845324
0.842963
0.83974
0.835198
0.828993
0.820822
0.810188
0.798348
0.792283
0.790198
0.789649
0.79011
0.794229
0.802545
0.812616
0.823313
0.833773
0.842603
0.849441
0.855222
0.86086
0.865737
0.869968
0.874407
0.878516
0.882556
0.886031
0.89007
0.894993
0.900246
0.905846
0.911432
0.917869
0.924149
0.930173
0.935566
0.940179
0.943137
0.944532
0.943027
0.937533
0.927899
0.915408
0.901274
0.888869
0.879922
0.873741
0.869761
0.867248
0.866132
0.866182
0.867848
0.874165
0.889273
0.909725
0.929661
0.945527
0.95823
0.968645
0.977399
0.98466
0.990369
0.994365
0.996872
0.998404
0.999187
0.999374
0.999319
0.998925
0.997565
0.994006
0.988006
0.976289
0.948936
0.868703
0.697938
0.530824
0.38884
0.276629
0.191273
0.128695
0.0844692
0.054249
0.0342023
0.0212372
0.0130277
0.00791829
0.00478073
0.00287265
0.00171928
0.00102389
0.00060419
0.000351797
0.000201515
0.000113277
6.23764e-05
3.35957e-05
1.76844e-05
9.08788e-06
4.5593e-06
2.22943e-06
1.06327e-06
4.92747e-07
2.22938e-07
9.83132e-08
4.23706e-08
1.77432e-08
7.26356e-09
2.87049e-09
1.10797e-09
4.12758e-10
1.35491e-10
0.000330921
0.00354629
0.0813276
0.293643
0.516477
0.593471
0.611568
0.615132
0.60931
0.59351
0.558647
0.504049
0.451037
0.395192
0.349256
0.314845
0.286165
0.263958
0.24454
0.228981
0.21764
0.208294
0.206912
0.209027
0.216205
0.228845
0.256498
0.300291
0.32601
0.374907
0.426423
0.476225
0.554225
0.617077
0.652158
0.666117
0.666908
0.663354
0.648023
0.60431
0.499043
0.371435
0.285147
0.268231
0.273422
0.298062
0.342441
0.405397
0.511424
0.552608
0.599676
0.708734
0.78449
0.819229
0.832743
0.838271
0.840926
0.84301
0.844455
0.845482
0.845962
0.846041
0.845325
0.843992
0.841394
0.838026
0.834973
0.832477
0.828517
0.822247
0.814216
0.803248
0.788644
0.772664
0.765328
0.762638
0.761859
0.761971
0.764912
0.772441
0.781779
0.790573
0.800913
0.813983
0.827621
0.839731
0.849661
0.858055
0.865981
0.872246
0.877544
0.882321
0.886862
0.891247
0.894641
0.897595
0.900234
0.903387
0.907482
0.912768
0.918948
0.925912
0.933088
0.940232
0.946926
0.953061
0.958414
0.962579
0.965593
0.966894
0.966018
0.96098
0.948611
0.929933
0.911296
0.897281
0.886135
0.877073
0.870258
0.866346
0.865241
0.866013
0.870973
0.887823
0.914861
0.938621
0.954873
0.965999
0.974194
0.98087
0.986593
0.991326
0.994852
0.997166
0.998544
0.999307
0.999676
0.999779
0.999769
0.999675
0.999337
0.998314
0.995405
0.988076
0.9698
0.916507
0.760267
0.569655
0.412177
0.290201
0.199597
0.134465
0.0890166
0.0581014
0.037499
0.0239823
0.0152143
0.00957228
0.00595922
0.00366035
0.00221217
0.00131219
0.000762345
0.000433154
0.000240428
0.000130303
6.8913e-05
3.55678e-05
1.79038e-05
8.79305e-06
4.20772e-06
1.96265e-06
8.89317e-07
3.93439e-07
1.69286e-07
7.10709e-08
2.88939e-08
1.14307e-08
4.38601e-09
1.52069e-09
0.00611858
0.0919293
0.375482
0.575457
0.617266
0.621053
0.606287
0.571069
0.516263
0.456473
0.407483
0.366014
0.330779
0.301568
0.276727
0.254523
0.234141
0.215458
0.198032
0.181725
0.16936
0.158076
0.147465
0.144582
0.145878
0.150905
0.162293
0.189969
0.235714
0.279127
0.328709
0.373551
0.410438
0.485041
0.578959
0.637878
0.659981
0.662259
0.659327
0.644268
0.592544
0.464702
0.385429
0.375055
0.38656
0.410888
0.457889
0.605267
0.662191
0.697627
0.753411
0.800085
0.822395
0.832063
0.836145
0.838631
0.840792
0.842078
0.842549
0.842504
0.84204
0.840445
0.837367
0.832857
0.828862
0.826065
0.823656
0.820058
0.814674
0.806075
0.793753
0.777791
0.759235
0.749219
0.745801
0.744662
0.744477
0.745756
0.750676
0.756946
0.760697
0.764421
0.77182
0.782125
0.793745
0.805649
0.817132
0.828131
0.839849
0.850821
0.860696
0.869653
0.878294
0.88682
0.894364
0.900824
0.905833
0.909703
0.913105
0.916948
0.921441
0.927153
0.93383
0.940963
0.948269
0.955299
0.961871
0.967656
0.972388
0.975791
0.978122
0.979321
0.979062
0.976047
0.966398
0.948113
0.929044
0.914686
0.901737
0.888466
0.87707
0.870239
0.868339
0.869377
0.876629
0.899829
0.930522
0.953354
0.967539
0.976374
0.982393
0.987056
0.990958
0.994156
0.996519
0.99808
0.999011
0.99952
0.999781
0.999895
0.99992
0.999911
0.999842
0.999578
0.998705
0.99593
0.987608
0.963122
0.883631
0.694022
0.513817
0.370003
0.260937
0.181028
0.123887
0.0837381
0.0559287
0.0368887
0.0239845
0.0153372
0.00962227
0.0059099
0.00354729
0.0020784
0.00118782
0.000661992
0.000359715
0.000190615
9.8486e-05
4.96308e-05
2.43781e-05
1.16749e-05
5.44264e-06
2.46753e-06
1.08859e-06
4.67823e-07
1.95057e-07
7.89415e-08
3.10793e-08
1.11905e-08
0.0786513
0.345051
0.601159
0.630924
0.615863
0.57267
0.512743
0.475088
0.436752
0.399211
0.364248
0.333243
0.307133
0.284292
0.262963
0.242456
0.222712
0.203633
0.185498
0.16912
0.155293
0.142162
0.129591
0.120717
0.117767
0.118393
0.122907
0.135484
0.166256
0.21549
0.276138
0.321598
0.350241
0.405078
0.490402
0.578121
0.634702
0.655796
0.656577
0.647444
0.602061
0.494069
0.454915
0.45599
0.452956
0.473597
0.632435
0.716282
0.744007
0.778336
0.807887
0.823392
0.830439
0.833602
0.835977
0.837917
0.838981
0.839243
0.838724
0.837562
0.834822
0.830211
0.824507
0.817848
0.811828
0.808367
0.805778
0.801666
0.794789
0.78523
0.770798
0.751355
0.733516
0.726098
0.722643
0.720792
0.719324
0.716369
0.711007
0.700908
0.690097
0.683618
0.680188
0.678703
0.677957
0.677905
0.682987
0.693943
0.710916
0.728924
0.748777
0.768619
0.788736
0.809743
0.831553
0.851433
0.868742
0.882329
0.892542
0.900467
0.907546
0.914742
0.922749
0.931724
0.941548
0.951523
0.960818
0.968633
0.974775
0.979441
0.982741
0.984978
0.986401
0.986849
0.98636
0.983421
0.972853
0.955247
0.94247
0.931601
0.917822
0.901918
0.888583
0.881524
0.880245
0.883297
0.899166
0.929005
0.954171
0.970314
0.97979
0.985519
0.989394
0.992363
0.994784
0.996682
0.998041
0.998926
0.999451
0.999736
0.99988
0.999945
0.999963
0.999961
0.999934
0.999806
0.999329
0.997685
0.99227
0.975356
0.920839
0.761338
0.576926
0.426918
0.309956
0.221389
0.155685
0.107708
0.0731974
0.0487634
0.0317768
0.0202181
0.0125425
0.00758025
0.00446135
0.00255707
0.00142749
0.000776464
0.000411584
0.000212684
0.00010712
5.25927e-05
2.51497e-05
1.17124e-05
5.29806e-06
2.33229e-06
9.9715e-07
4.1333e-07
1.66908e-07
6.21814e-08
0.430989
0.628104
0.648435
0.6076
0.535146
0.507639
0.48378
0.452196
0.417612
0.385067
0.354174
0.328235
0.307545
0.290627
0.273467
0.254353
0.233791
0.213387
0.195536
0.17957
0.163119
0.146536
0.133014
0.123931
0.117875
0.115658
0.118092
0.137268
0.183092
0.236687
0.288055
0.318834
0.339997
0.381339
0.466137
0.555198
0.617203
0.646171
0.650568
0.641535
0.583747
0.523361
0.515253
0.487091
0.4836
0.616688
0.733993
0.768235
0.790354
0.811144
0.822457
0.827887
0.830751
0.832762
0.833873
0.834285
0.833783
0.83299
0.83118
0.827538
0.821803
0.814795
0.806348
0.798237
0.790381
0.78362
0.778544
0.772485
0.762472
0.744255
0.721799
0.702491
0.693331
0.689185
0.686939
0.680963
0.664001
0.636498
0.602866
0.57221
0.548679
0.530111
0.523017
0.522614
0.529652
0.542808
0.557437
0.572844
0.584851
0.5951
0.605054
0.615884
0.628351
0.643472
0.664067
0.692479
0.724724
0.755487
0.780743
0.800264
0.816237
0.831173
0.847106
0.865212
0.885301
0.908179
0.932014
0.953184
0.969
0.979096
0.984818
0.988108
0.989986
0.991005
0.991582
0.991568
0.990822
0.987504
0.975482
0.960035
0.952099
0.94533
0.932652
0.917998
0.907162
0.902882
0.903187
0.911196
0.935447
0.958877
0.97486
0.983996
0.989058
0.992115
0.994273
0.995979
0.997336
0.99835
0.999046
0.999484
0.99974
0.999877
0.999945
0.999974
0.999981
0.999979
0.999956
0.999854
0.999465
0.998108
0.993604
0.979375
0.934044
0.794856
0.616657
0.467265
0.346682
0.251895
0.179067
0.124345
0.0841988
0.0555164
0.0356072
0.0222047
0.0134623
0.00793748
0.0045533
0.00254265
0.00138277
0.000732651
0.000378256
0.000190312
9.32795e-05
4.45266e-05
2.06759e-05
9.32868e-06
4.09021e-06
1.73825e-06
7.20141e-07
2.772e-07
0.586664
0.684653
0.607547
0.533802
0.515385
0.500812
0.477272
0.446306
0.416261
0.392128
0.380871
0.378828
0.377829
0.37053
0.354711
0.335669
0.316416
0.300033
0.286126
0.270163
0.251284
0.230554
0.214915
0.208213
0.206619
0.217105
0.219261
0.233764
0.262771
0.2944
0.31618
0.332046
0.353757
0.402746
0.488341
0.569026
0.61959
0.637017
0.637393
0.619007
0.574805
0.561478
0.529407
0.493375
0.574142
0.728664
0.777262
0.796135
0.811051
0.820224
0.824702
0.827644
0.8291
0.829362
0.828245
0.827499
0.826161
0.82376
0.819234
0.813639
0.807094
0.799564
0.791249
0.783453
0.775672
0.76776
0.759193
0.745035
0.721899
0.698007
0.679029
0.667972
0.662376
0.656495
0.638909
0.603207
0.550757
0.493845
0.444488
0.417631
0.406989
0.404955
0.417862
0.444429
0.471782
0.500991
0.527262
0.548461
0.561742
0.570195
0.57525
0.579087
0.582555
0.586126
0.590305
0.596088
0.604899
0.617017
0.63073
0.643789
0.655383
0.66654
0.679473
0.697393
0.724532
0.763243
0.814891
0.87384
0.922189
0.957154
0.977485
0.987452
0.991726
0.993597
0.994413
0.994763
0.994814
0.994612
0.993635
0.989944
0.978629
0.968071
0.963501
0.958789
0.949867
0.939989
0.933131
0.931213
0.933189
0.946166
0.965843
0.979832
0.988103
0.992461
0.994783
0.996216
0.997288
0.998145
0.998808
0.999283
0.999597
0.999787
0.999895
0.999952
0.999979
0.999988
0.999989
0.999985
0.999959
0.999852
0.999464
0.998157
0.993935
0.980783
0.939269
0.810445
0.63746
0.487894
0.363504
0.263431
0.185513
0.126839
0.0841545
0.0541759
0.0338505
0.0205399
0.0121119
0.00694578
0.00387619
0.00210617
0.00111465
0.000574668
0.000288614
0.000141155
6.72051e-05
3.10985e-05
1.39844e-05
6.09642e-06
2.59187e-06
1.02981e-06
0.628995
0.68146
0.548071
0.527059
0.517353
0.505691
0.485703
0.479021
0.480883
0.483258
0.484278
0.482236
0.471798
0.456509
0.445749
0.437157
0.429422
0.422496
0.412243
0.401276
0.392324
0.379345
0.362817
0.350307
0.338868
0.333009
0.331182
0.338268
0.343905
0.349888
0.354654
0.370985
0.40614
0.477443
0.548229
0.599903
0.624541
0.628797
0.624293
0.607093
0.592369
0.569756
0.51515
0.529122
0.700215
0.77499
0.798738
0.809331
0.817093
0.821051
0.823677
0.824709
0.823387
0.821049
0.819464
0.817383
0.814287
0.810888
0.806653
0.800989
0.794348
0.787896
0.781668
0.775093
0.768104
0.758675
0.740692
0.714645
0.688872
0.664689
0.650085
0.639265
0.630762
0.608469
0.559449
0.484184
0.41129
0.357759
0.333005
0.322939
0.32123
0.337846
0.372586
0.402927
0.441717
0.485718
0.520886
0.545328
0.560661
0.569882
0.574783
0.57751
0.57916
0.580412
0.581495
0.582691
0.584505
0.587664
0.592643
0.598876
0.605297
0.611342
0.617163
0.62347
0.631592
0.644076
0.665983
0.708694
0.785877
0.874865
0.936263
0.97073
0.987117
0.993606
0.995906
0.996786
0.997025
0.997
0.996923
0.996613
0.995529
0.991673
0.982919
0.976751
0.974226
0.972179
0.967884
0.962166
0.958352
0.957743
0.960856
0.973089
0.984498
0.991407
0.995061
0.996861
0.997798
0.998407
0.998881
0.999257
0.999538
0.999731
0.999853
0.999925
0.999964
0.999984
0.999992
0.999994
0.999993
0.999986
0.999952
0.999827
0.999401
0.998029
0.993703
0.980171
0.93651
0.802714
0.628432
0.476285
0.349339
0.247943
0.170308
0.113257
0.0729693
0.0455874
0.0276437
0.0162855
0.00932866
0.00519923
0.00282086
0.00149029
0.000766796
0.000384179
0.000187391
8.89159e-05
4.10055e-05
1.83396e-05
8.0013e-06
3.27834e-06
0.640941
0.622611
0.5446
0.53994
0.549173
0.553996
0.564353
0.568133
0.5588
0.541339
0.538776
0.541619
0.548091
0.550334
0.54888
0.537806
0.528466
0.51524
0.503757
0.49725
0.488243
0.478441
0.467806
0.459957
0.452658
0.447647
0.441472
0.436918
0.434719
0.43493
0.445027
0.472105
0.520654
0.558267
0.594792
0.616454
0.626394
0.627583
0.622916
0.612748
0.596011
0.545262
0.518896
0.646914
0.761448
0.796343
0.808303
0.813894
0.817313
0.81946
0.819286
0.81539
0.811954
0.809901
0.807942
0.805838
0.802925
0.798934
0.794053
0.790162
0.786148
0.781673
0.776617
0.770293
0.760138
0.740509
0.718415
0.691552
0.663673
0.642439
0.627136
0.615029
0.591712
0.539944
0.452765
0.365597
0.302417
0.27277
0.259387
0.255381
0.262208
0.291984
0.319329
0.370629
0.429493
0.482344
0.52383
0.555519
0.575641
0.586976
0.592368
0.593371
0.591458
0.588737
0.586312
0.584806
0.584542
0.58567
0.588506
0.592987
0.598397
0.603968
0.609368
0.614584
0.620022
0.626606
0.635844
0.650007
0.67625
0.732652
0.83198
0.916995
0.963597
0.985656
0.994342
0.997209
0.998155
0.998463
0.998475
0.998419
0.998293
0.99796
0.996853
0.993147
0.987854
0.984888
0.983905
0.983158
0.981411
0.977988
0.976253
0.976473
0.980336
0.988548
0.99389
0.996786
0.99818
0.998824
0.999162
0.999399
0.99959
0.999739
0.999844
0.999913
0.999954
0.999978
0.99999
0.999995
0.999997
0.999997
0.999994
0.999981
0.999934
0.999771
0.999242
0.997547
0.992102
0.974252
0.9136
0.75058
0.574502
0.424074
0.301967
0.20764
0.138042
0.0888417
0.0554221
0.033552
0.0197319
0.011282
0.00627552
0.00339735
0.00179061
0.000918793
0.000458995
0.000223087
0.00010549
4.8388e-05
2.16564e-05
9.14059e-06
0.643444
0.605393
0.55707
0.577752
0.607619
0.610909
0.609289
0.612428
0.631475
0.657841
0.667737
0.67349
0.679897
0.686868
0.691809
0.693536
0.691518
0.682902
0.675956
0.664778
0.652424
0.640318
0.626068
0.612622
0.598443
0.590126
0.585073
0.583296
0.584444
0.587147
0.591497
0.59607
0.606023
0.61707
0.626619
0.631019
0.632216
0.631073
0.624872
0.611648
0.570609
0.530485
0.57551
0.733561
0.789458
0.805985
0.811714
0.814081
0.815732
0.814228
0.807453
0.803396
0.801174
0.799328
0.797297
0.795276
0.792825
0.790144
0.787696
0.785162
0.782325
0.777855
0.771809
0.7623
0.745511
0.728095
0.702726
0.671243
0.641264
0.618499
0.601385
0.583728
0.544308
0.461694
0.360701
0.282422
0.239497
0.21884
0.20946
0.206986
0.218536
0.241823
0.286216
0.350745
0.426331
0.498125
0.562586
0.612178
0.63729
0.6458
0.647888
0.644451
0.635659
0.624837
0.614165
0.605464
0.599379
0.59602
0.595315
0.597226
0.601889
0.60761
0.613979
0.620756
0.627369
0.633253
0.639292
0.648082
0.662588
0.688458
0.737468
0.819411
0.907182
0.960394
0.985055
0.994744
0.99796
0.998917
0.999242
0.999309
0.999293
0.999238
0.999116
0.998769
0.997539
0.994816
0.992714
0.991755
0.99139
0.990851
0.989243
0.987538
0.987217
0.988042
0.991926
0.995767
0.997875
0.998926
0.999411
0.99963
0.999744
0.999822
0.999882
0.999928
0.999958
0.999978
0.999989
0.999995
0.999997
0.999998
0.999998
0.999997
0.999991
0.999969
0.999892
0.999632
0.998775
0.995919
0.986233
0.952635
0.837984
0.647234
0.478708
0.34083
0.234025
0.15525
0.0996735
0.0620228
0.0374532
0.0219694
0.0125281
0.00694897
0.00375085
0.00197047
0.0010077
0.000501424
0.000242819
0.000114164
5.23827e-05
2.27486e-05
0.644627
0.601252
0.567644
0.595355
0.646746
0.682825
0.722444
0.753464
0.766851
0.784198
0.7987
0.805251
0.810702
0.81343
0.814631
0.814133
0.813796
0.806304
0.794648
0.781073
0.760834
0.736094
0.710105
0.68759
0.66613
0.647372
0.633399
0.625321
0.621746
0.62167
0.626126
0.630249
0.634662
0.636603
0.637225
0.637208
0.634738
0.629947
0.616821
0.580932
0.544482
0.547677
0.687088
0.775229
0.80218
0.809769
0.812038
0.813163
0.81183
0.802475
0.796556
0.793827
0.792129
0.790661
0.789182
0.787862
0.786215
0.784246
0.782059
0.778713
0.774672
0.769164
0.760555
0.748718
0.73455
0.711953
0.67714
0.646165
0.620652
0.602758
0.589433
0.565905
0.501036
0.398222
0.300775
0.235195
0.202309
0.183396
0.174154
0.171143
0.178437
0.198079
0.242419
0.320243
0.425849
0.549346
0.654948
0.733252
0.769512
0.772767
0.765343
0.750856
0.730027
0.70751
0.683768
0.661737
0.643966
0.631489
0.624337
0.622146
0.623905
0.630361
0.639554
0.650826
0.663514
0.67478
0.681973
0.685136
0.68825
0.696722
0.723328
0.7732
0.839962
0.912918
0.962854
0.986184
0.995365
0.998438
0.999348
0.999627
0.999707
0.999711
0.999694
0.999647
0.999518
0.999067
0.997953
0.997033
0.996508
0.996242
0.995889
0.99493
0.993835
0.9935
0.993677
0.995083
0.997345
0.998676
0.999361
0.999687
0.999835
0.999902
0.999938
0.999959
0.999974
0.999985
0.999991
0.999996
0.999998
0.999999
0.999999
0.999999
0.999998
0.999995
0.999982
0.999935
0.999773
0.999216
0.997281
0.990496
0.966457
0.881839
0.690205
0.51018
0.362277
0.247914
0.163876
0.104837
0.0650074
0.0391182
0.0228652
0.012991
0.00717874
0.00385934
0.0020193
0.001028
0.000509373
0.000245174
0.000115223
5.14143e-05
0.647394
0.600666
0.579872
0.640325
0.701908
0.722784
0.755066
0.809465
0.834603
0.849188
0.867436
0.876668
0.883067
0.889537
0.892371
0.894574
0.895541
0.89596
0.896059
0.895575
0.892215
0.884516
0.870238
0.841998
0.802087
0.752217
0.701179
0.664419
0.637145
0.622232
0.615509
0.612949
0.613709
0.618335
0.622268
0.623578
0.617478
0.602812
0.577366
0.556238
0.550326
0.629575
0.750511
0.79484
0.807546
0.810701
0.811611
0.810766
0.802909
0.793082
0.788508
0.785827
0.784269
0.782929
0.781578
0.780331
0.778976
0.777461
0.775428
0.772964
0.767328
0.757889
0.743169
0.727603
0.708148
0.681073
0.657558
0.633689
0.612265
0.596147
0.581113
0.54271
0.470161
0.365014
0.27062
0.211284
0.181732
0.165541
0.158067
0.156061
0.160998
0.173892
0.203064
0.272942
0.403089
0.559925
0.716528
0.820618
0.871994
0.892709
0.90092
0.900031
0.886732
0.860464
0.824893
0.782962
0.74227
0.711397
0.689528
0.677775
0.675199
0.678987
0.689492
0.701951
0.718586
0.738919
0.758186
0.770088
0.772958
0.770633
0.767213
0.777242
0.821859
0.877659
0.930884
0.969787
0.988806
0.996292
0.99883
0.999595
0.999815
0.999879
0.999889
0.999884
0.999866
0.999806
0.999596
0.999184
0.99886
0.998671
0.998547
0.998322
0.997746
0.997192
0.996997
0.997036
0.997503
0.998589
0.99929
0.999662
0.999842
0.999924
0.99996
0.999977
0.999986
0.999992
0.999995
0.999997
0.999998
0.999999
1
1
1
0.999999
0.999997
0.999987
0.999953
0.999829
0.999384
0.997782
0.991984
0.971068
0.896535
0.707529
0.520373
0.367774
0.250462
0.164779
0.104931
0.0647702
0.0387983
0.0225724
0.0127641
0.00701862
0.00375481
0.00195419
0.000989934
0.000487237
0.000234185
0.000107193
0.650701
0.606434
0.589022
0.647307
0.737292
0.795852
0.842343
0.873711
0.886622
0.894215
0.900309
0.903073
0.905459
0.90651
0.906695
0.906171
0.905754
0.906183
0.908377
0.912496
0.917765
0.923224
0.929166
0.93341
0.936431
0.927239
0.89935
0.839574
0.768512
0.697524
0.656423
0.626392
0.606991
0.593796
0.586105
0.582136
0.579041
0.573463
0.566178
0.563128
0.603632
0.721678
0.782215
0.803478
0.809373
0.810578
0.810268
0.80427
0.791437
0.783786
0.780753
0.778811
0.777179
0.775735
0.774193
0.772372
0.770328
0.767682
0.764025
0.758446
0.748075
0.732436
0.71794
0.702977
0.685998
0.663919
0.636461
0.615137
0.602375
0.591793
0.575352
0.536455
0.462041
0.36053
0.266985
0.206679
0.175295
0.158166
0.151736
0.151982
0.15547
0.165356
0.188974
0.236827
0.340236
0.538071
0.723903
0.836761
0.891755
0.919332
0.936793
0.949293
0.956945
0.959223
0.954919
0.94047
0.912318
0.869996
0.825343
0.788182
0.767909
0.764196
0.769101
0.777774
0.78569
0.800092
0.822453
0.847909
0.868262
0.877272
0.875699
0.86134
0.854231
0.872993
0.916816
0.952889
0.978829
0.992069
0.997361
0.999187
0.999747
0.999905
0.999948
0.999957
0.999956
0.999947
0.999915
0.999809
0.99968
0.999591
0.999539
0.999483
0.999352
0.999071
0.998856
0.998777
0.998786
0.998943
0.999377
0.999683
0.999848
0.99993
0.999968
0.999985
0.999992
0.999996
0.999998
0.999999
0.999999
1
1
1
1
1
0.999999
0.999997
0.999989
0.999959
0.999848
0.999431
0.997879
0.992118
0.971016
0.895035
0.702442
0.513497
0.360716
0.24422
0.159766
0.101172
0.0621014
0.0369873
0.0213949
0.0120266
0.00657438
0.0034954
0.00180863
0.000909377
0.00044648
0.000209201
0.652193
0.610417
0.595154
0.670496
0.797639
0.856701
0.882234
0.893406
0.897301
0.898656
0.899094
0.898423
0.894149
0.886915
0.882342
0.879758
0.877366
0.876196
0.875058
0.874232
0.874536
0.881942
0.898034
0.923018
0.947309
0.959568
0.965267
0.967073
0.947261
0.902369
0.823485
0.752943
0.70392
0.662365
0.630557
0.607801
0.59505
0.590285
0.594856
0.629529
0.711295
0.770054
0.797406
0.807102
0.80958
0.809695
0.80591
0.796939
0.786013
0.778591
0.774797
0.773081
0.771855
0.770512
0.769008
0.767029
0.764552
0.761254
0.757201
0.750019
0.734925
0.713218
0.690744
0.673799
0.657589
0.63712
0.623294
0.606903
0.59348
0.583741
0.569643
0.540072
0.473783
0.376122
0.281958
0.21775
0.182623
0.162809
0.153875
0.153014
0.155112
0.163489
0.185755
0.227906
0.297454
0.486672
0.70761
0.832875
0.890791
0.918904
0.937649
0.953299
0.965635
0.974725
0.980971
0.983748
0.983133
0.97752
0.965381
0.946206
0.921928
0.903177
0.898038
0.901985
0.902801
0.900038
0.896223
0.898512
0.915838
0.936011
0.947685
0.950239
0.944147
0.927674
0.926484
0.946916
0.971381
0.98697
0.99504
0.998335
0.999488
0.999848
0.99995
0.999977
0.999982
0.999982
0.999977
0.999957
0.999917
0.999885
0.999867
0.999854
0.999829
0.999763
0.999673
0.999616
0.9996
0.999607
0.999665
0.999802
0.999896
0.999949
0.999976
0.999989
0.999995
0.999998
0.999999
0.999999
1
1
1
1
1
1
1
0.999999
0.999997
0.99999
0.999961
0.999847
0.999408
0.997727
0.991365
0.967794
0.882317
0.681902
0.495221
0.345479
0.232355
0.151009
0.0949948
0.057915
0.0342575
0.0196768
0.0109842
0.00596129
0.00314786
0.00161513
0.000809077
0.000387384
0.655315
0.61922
0.606044
0.694724
0.827337
0.87801
0.893184
0.897829
0.898628
0.897348
0.892924
0.88318
0.878399
0.87548
0.873929
0.872505
0.87152
0.871111
0.87006
0.866611
0.859115
0.847542
0.838071
0.830591
0.858399
0.914779
0.962101
0.98063
0.98552
0.982728
0.960326
0.903831
0.837492
0.788862
0.748217
0.713567
0.691405
0.680278
0.692574
0.726567
0.766121
0.791869
0.804309
0.808813
0.809844
0.809017
0.804486
0.795669
0.785796
0.778202
0.773381
0.770555
0.769108
0.767921
0.766656
0.765012
0.762674
0.759686
0.756278
0.749822
0.735333
0.713088
0.687114
0.664901
0.645306
0.62601
0.605936
0.593729
0.587597
0.58033
0.569331
0.547942
0.498554
0.413877
0.321004
0.247936
0.204616
0.17776
0.163803
0.162812
0.165643
0.175403
0.204431
0.235132
0.288502
0.424616
0.666601
0.81351
0.874186
0.895537
0.912051
0.934723
0.955853
0.971581
0.981849
0.988197
0.992037
0.994112
0.994525
0.993424
0.989835
0.985127
0.982015
0.981476
0.981762
0.981567
0.980372
0.975861
0.968866
0.967825
0.974929
0.981655
0.982523
0.980956
0.972374
0.965747
0.970475
0.98438
0.993032
0.99732
0.999091
0.99972
0.999918
0.999975
0.999989
0.999992
0.999992
0.999989
0.999978
0.999967
0.99996
0.999957
0.999952
0.999941
0.999919
0.999901
0.999894
0.999893
0.999901
0.999931
0.999961
0.999979
0.999989
0.999995
0.999997
0.999999
0.999999
1
1
1
1
1
1
1
1
1
0.999999
0.999997
0.999989
0.999957
0.999826
0.999313
0.99731
0.989655
0.961166
0.857665
0.651088
0.469109
0.324794
0.216837
0.139878
0.0873221
0.0528253
0.0310005
0.0176677
0.00978388
0.00526964
0.00275724
0.0014081
0.000688107
0.660701
0.632271
0.603149
0.684399
0.8215
0.87999
0.895735
0.898908
0.89864
0.894295
0.885623
0.880181
0.877136
0.875296
0.873641
0.870783
0.869081
0.870019
0.874348
0.877629
0.878475
0.872511
0.849421
0.816102