/*--------------------------------*- C++ -*----------------------------------*\
  =========                 |
  \\      /  F ield         | OpenFOAM: The Open Source CFD Toolbox
   \\    /   O peration     | Website:  https://openfoam.org
    \\  /    A nd           | Version:  7
     \\/     M anipulation  |
\*---------------------------------------------------------------------------*/
FoamFile
{
    version     2.0;
    format      ascii;
    class       volSymmTensorField;
    location    "0.072";
    object      UPrime2Mean;
}
// * * * * * * * * * * * * * * * * * * * * * * * * * * * * * * * * * * * * * //

dimensions      [0 2 -2 0 0 0 0];

internalField   nonuniform List<symmTensor> 
12225
(
(0.00451121 -0.000140455 0 0.000499873 0 0)
(0.0286174 -0.00125474 0 0.000231373 0 0)
(0.0414577 -0.00184075 0 0.000206822 0 0)
(0.05528 -0.00225948 0 0.000193867 0 0)
(0.0791375 -0.00282293 0 0.000188048 0 0)
(0.1146 -0.0035516 0 0.000187174 0 0)
(0.1619 -0.00442551 0 0.000197773 0 0)
(0.22122 -0.00509118 0 0.000182553 0 0)
(0.292521 -0.00614313 0 0.000196419 0 0)
(0.375087 -0.00590935 0 0.000150359 0 0)
(0.470564 -0.00791468 0 0.000180946 0 0)
(0.572026 -0.00513055 0 0.00010271 0 0)
(0.695132 -0.0120153 0 0.000265028 0 0)
(0.81397 -0.00122524 0 0.000185926 0 0)
(0.991732 -0.0281861 0 0.00127087 0 0)
(1.16471 0.0130489 0 0.00151655 0 0)
(1.50515 -0.107207 0 0.014488 0 0)
(2.04161 0.040183 0 0.0070872 0 0)
(0.00430854 3.99461e-05 0 0.000673997 0 0)
(0.0193973 -0.000592653 0 0.000236224 0 0)
(0.0211426 -0.000981736 0 0.000279485 0 0)
(0.0216913 -0.00122502 0 0.000372346 0 0)
(0.0255609 -0.00172702 0 0.000489124 0 0)
(0.0325421 -0.00265177 0 0.000641748 0 0)
(0.0432349 -0.00395382 0 0.000799516 0 0)
(0.0593637 -0.00579001 0 0.00101937 0 0)
(0.0813249 -0.00774293 0 0.00114779 0 0)
(0.113126 -0.0106982 0 0.0014219 0 0)
(0.15239 -0.0128472 0 0.00142249 0 0)
(0.208528 -0.0177897 0 0.00184151 0 0)
(0.270994 -0.0192679 0 0.00166472 0 0)
(0.366028 -0.029906 0 0.00272999 0 0)
(0.461827 -0.0302383 0 0.00244053 0 0)
(0.6388 -0.0614698 0 0.00688943 0 0)
(0.800193 -0.0741412 0 0.00767306 0 0)
(1.16449 -0.210544 0 0.0495754 0 0)
(0.00416581 0.000127997 0 0.00085687 0 0)
(0.0190377 -0.000901716 0 0.000430455 0 0)
(0.0200143 -0.00140864 0 0.000500528 0 0)
(0.0193743 -0.00154728 0 0.000637748 0 0)
(0.0208974 -0.00181133 0 0.000812842 0 0)
(0.0234179 -0.00234037 0 0.00103686 0 0)
(0.0267807 -0.00315205 0 0.00136163 0 0)
(0.0311978 -0.00416982 0 0.00166795 0 0)
(0.0372263 -0.00561895 0 0.00213894 0 0)
(0.0453101 -0.00714279 0 0.00244136 0 0)
(0.0569038 -0.00978618 0 0.00308557 0 0)
(0.072382 -0.0119655 0 0.00327783 0 0)
(0.0950298 -0.0174104 0 0.00448158 0 0)
(0.125101 -0.0207594 0 0.00459128 0 0)
(0.170155 -0.0350376 0 0.00831644 0 0)
(0.231023 -0.0442712 0 0.00937137 0 0)
(0.318503 -0.0909925 0 0.0275823 0 0)
(0.430992 -0.152343 0 0.0573191 0 0)
(0.00397352 -0.000237755 0 0.000971848 0 0)
(0.0188255 -0.00117576 0 0.00050795 0 0)
(0.0196869 -0.00159396 0 0.000569015 0 0)
(0.0189346 -0.00174369 0 0.000755201 0 0)
(0.020191 -0.00201161 0 0.000973696 0 0)
(0.0222558 -0.002541 0 0.00125486 0 0)
(0.0248548 -0.00329324 0 0.00159689 0 0)
(0.0280943 -0.00426116 0 0.00205557 0 0)
(0.0320786 -0.0053836 0 0.00252638 0 0)
(0.0373354 -0.00691311 0 0.00316867 0 0)
(0.0441773 -0.00872203 0 0.00376795 0 0)
(0.053793 -0.0115936 0 0.00474644 0 0)
(0.0667213 -0.0151383 0 0.00573615 0 0)
(0.0855209 -0.0215956 0 0.00784234 0 0)
(0.111223 -0.0306764 0 0.0107771 0 0)
(0.147536 -0.0482857 0 0.0180587 0 0)
(0.19459 -0.0790199 0 0.0339263 0 0)
(0.242367 -0.127667 0 0.0693145 0 0)
(0.00447786 -0.000222516 0 0.00114622 0 0)
(0.018546 -0.00135783 0 0.000658646 0 0)
(0.0191329 -0.00178087 0 0.000713916 0 0)
(0.0184228 -0.00193755 0 0.000940987 0 0)
(0.0197278 -0.00222453 0 0.00121402 0 0)
(0.021722 -0.00278723 0 0.00154088 0 0)
(0.0241441 -0.00361194 0 0.00198132 0 0)
(0.0270967 -0.00464517 0 0.00249437 0 0)
(0.0307568 -0.00595578 0 0.00317307 0 0)
(0.0354373 -0.00752808 0 0.00389986 0 0)
(0.0415855 -0.00976854 0 0.00490931 0 0)
(0.0497879 -0.0126413 0 0.00605037 0 0)
(0.0608673 -0.017182 0 0.00793986 0 0)
(0.0759378 -0.023516 0 0.0105061 0 0)
(0.0961476 -0.0342498 0 0.0155471 0 0)
(0.122096 -0.0509354 0 0.0245847 0 0)
(0.152193 -0.0778674 0 0.0428849 0 0)
(0.176958 -0.118416 0 0.0834586 0 0)
(0.00404033 -0.00028233 0 0.00118824 0 0)
(0.0182926 -0.00156265 0 0.000783206 0 0)
(0.0186745 -0.00190861 0 0.000882471 0 0)
(0.0178633 -0.00202066 0 0.00118997 0 0)
(0.01904 -0.00231264 0 0.0015486 0 0)
(0.0208406 -0.00290008 0 0.00196576 0 0)
(0.0230324 -0.00375476 0 0.00247843 0 0)
(0.0257244 -0.00485983 0 0.00312732 0 0)
(0.0290647 -0.00624841 0 0.00391614 0 0)
(0.0333109 -0.00804293 0 0.00490009 0 0)
(0.0388514 -0.0104488 0 0.00613452 0 0)
(0.0461096 -0.0138052 0 0.00780817 0 0)
(0.0557494 -0.0186275 0 0.0102008 0 0)
(0.0682556 -0.0257172 0 0.0139124 0 0)
(0.0843553 -0.0365127 0 0.0201788 0 0)
(0.103054 -0.0525072 0 0.0311543 0 0)
(0.122817 -0.0760891 0 0.0514429 0 0)
(0.136367 -0.106047 0 0.0869641 0 0)
(0.00370741 -0.000330711 0 0.00143873 0 0)
(0.0178655 -0.00177308 0 0.00107571 0 0)
(0.0181265 -0.00212356 0 0.00112573 0 0)
(0.017274 -0.00226189 0 0.00144518 0 0)
(0.0184138 -0.00259408 0 0.00186234 0 0)
(0.0201323 -0.00323502 0 0.00234981 0 0)
(0.0221875 -0.00416298 0 0.00295766 0 0)
(0.0246764 -0.00535531 0 0.00372043 0 0)
(0.0277334 -0.0068637 0 0.0046894 0 0)
(0.0315751 -0.00880148 0 0.0059067 0 0)
(0.0365138 -0.0114131 0 0.00748052 0 0)
(0.0428504 -0.0150176 0 0.00962094 0 0)
(0.0509945 -0.0201094 0 0.0126847 0 0)
(0.0610993 -0.0273971 0 0.0173963 0 0)
(0.073323 -0.0378044 0 0.0248385 0 0)
(0.0863681 -0.0524327 0 0.037338 0 0)
(0.0987518 -0.0716693 0 0.0574624 0 0)
(0.105331 -0.0940606 0 0.0898068 0 0)
(0.00372195 -0.000313743 0 0.00133177 0 0)
(0.0175911 -0.00192765 0 0.0010928 0 0)
(0.0178128 -0.00221619 0 0.00128401 0 0)
(0.0169072 -0.00229679 0 0.00168477 0 0)
(0.0179516 -0.00264618 0 0.00218804 0 0)
(0.0195227 -0.00332478 0 0.00277763 0 0)
(0.0213568 -0.00428022 0 0.00350069 0 0)
(0.0235421 -0.00550939 0 0.00441662 0 0)
(0.0262078 -0.00708196 0 0.00558072 0 0)
(0.0295382 -0.0091296 0 0.00706955 0 0)
(0.0337653 -0.0118744 0 0.00901227 0 0)
(0.0390618 -0.0156079 0 0.0116601 0 0)
(0.0456266 -0.0207481 0 0.0154099 0 0)
(0.0533915 -0.0278205 0 0.0209915 0 0)
(0.0621879 -0.0374355 0 0.0294461 0 0)
(0.0707872 -0.0500292 0 0.0426053 0 0)
(0.0779337 -0.0653566 0 0.0622815 0 0)
(0.0804151 -0.0817795 0 0.0912257 0 0)
(0.00447686 -0.00053555 0 0.00144427 0 0)
(0.0178106 -0.00235828 0 0.00130905 0 0)
(0.0175895 -0.00260056 0 0.00154034 0 0)
(0.0166748 -0.00262082 0 0.00198939 0 0)
(0.0177611 -0.0029741 0 0.00258192 0 0)
(0.0192222 -0.00369339 0 0.00328774 0 0)
(0.0208191 -0.00469913 0 0.00414601 0 0)
(0.0227031 -0.00597974 0 0.00522547 0 0)
(0.0250021 -0.00760549 0 0.0066005 0 0)
(0.0278386 -0.00970485 0 0.00837315 0 0)
(0.0313502 -0.012478 0 0.0106893 0 0)
(0.0356162 -0.016185 0 0.0138354 0 0)
(0.0406905 -0.0211454 0 0.0182076 0 0)
(0.0463708 -0.0277147 0 0.0245188 0 0)
(0.0523453 -0.0361906 0 0.0336365 0 0)
(0.0575648 -0.0466078 0 0.0469927 0 0)
(0.0611756 -0.058419 0 0.0656965 0 0)
(0.0611944 -0.0701034 0 0.0912636 0 0)
(0.00396927 -0.000453225 0 0.00165161 0 0)
(0.0176009 -0.00238458 0 0.00143874 0 0)
(0.0174785 -0.00262274 0 0.00170264 0 0)
(0.0165236 -0.00259417 0 0.00220307 0 0)
(0.0174542 -0.00291281 0 0.00285858 0 0)
(0.0187175 -0.00362147 0 0.00365277 0 0)
(0.0200945 -0.0046278 0 0.00462805 0 0)
(0.0216975 -0.00590974 0 0.00586044 0 0)
(0.0236091 -0.00753207 0 0.00743956 0 0)
(0.025918 -0.00961437 0 0.00948643 0 0)
(0.0287138 -0.0123249 0 0.0121622 0 0)
(0.031998 -0.0158617 0 0.0157566 0 0)
(0.0357162 -0.0204456 0 0.0206531 0 0)
(0.0395963 -0.0262656 0 0.0274876 0 0)
(0.0433047 -0.0334031 0 0.0369459 0 0)
(0.0460246 -0.0416537 0 0.0500828 0 0)
(0.0472801 -0.0504029 0 0.067484 0 0)
(0.0458476 -0.0584005 0 0.090029 0 0)
(0.00406086 -0.000551033 0 0.00189864 0 0)
(0.0175245 -0.00274549 0 0.00174898 0 0)
(0.0169918 -0.00301308 0 0.00202956 0 0)
(0.0157623 -0.00289711 0 0.0025918 0 0)
(0.0165331 -0.00316276 0 0.00334089 0 0)
(0.0176737 -0.00385321 0 0.00426141 0 0)
(0.0189028 -0.00483861 0 0.00538768 0 0)
(0.0202917 -0.0060747 0 0.00679749 0 0)
(0.0218942 -0.00761575 0 0.00858597 0 0)
(0.0237553 -0.00957174 0 0.0108935 0 0)
(0.0259082 -0.0120844 0 0.0138939 0 0)
(0.0283081 -0.0152937 0 0.0178675 0 0)
(0.0308621 -0.0193296 0 0.0231575 0 0)
(0.0333036 -0.0242469 0 0.0302986 0 0)
(0.035359 -0.0299909 0 0.0397967 0 0)
(0.0364323 -0.0362407 0 0.0523928 0 0)
(0.0363339 -0.0424443 0 0.0683232 0 0)
(0.0342873 -0.0476181 0 0.0880973 0 0)
(0.00390651 -0.000536652 0 0.00192178 0 0)
(0.0173349 -0.00281172 0 0.00184108 0 0)
(0.016831 -0.00313706 0 0.0021604 0 0)
(0.0155469 -0.00300207 0 0.00277091 0 0)
(0.0162004 -0.00324399 0 0.00359115 0 0)
(0.0171738 -0.0039222 0 0.0046168 0 0)
(0.0181947 -0.00488594 0 0.00587519 0 0)
(0.0193309 -0.00607373 0 0.00743634 0 0)
(0.0206132 -0.00753118 0 0.00940785 0 0)
(0.0220527 -0.00935303 0 0.0119362 0 0)
(0.0236439 -0.0116507 0 0.0151945 0 0)
(0.0253114 -0.014509 0 0.0194457 0 0)
(0.0269455 -0.0179826 0 0.024982 0 0)
(0.0283233 -0.0220331 0 0.0322414 0 0)
(0.0292478 -0.0265292 0 0.0415724 0 0)
(0.0293258 -0.0311219 0 0.0534967 0 0)
(0.0285346 -0.0353564 0 0.0680337 0 0)
(0.0263646 -0.0384732 0 0.0855222 0 0)
(0.00382077 -0.00065732 0 0.00220366 0 0)
(0.0173125 -0.00293494 0 0.0021823 0 0)
(0.0166406 -0.00317532 0 0.00246519 0 0)
(0.0152301 -0.00294692 0 0.0031024 0 0)
(0.0157599 -0.00312875 0 0.00397971 0 0)
(0.0165723 -0.00376067 0 0.0050927 0 0)
(0.0173835 -0.00466906 0 0.00646924 0 0)
(0.018261 -0.0057739 0 0.0081747 0 0)
(0.0192237 -0.00710181 0 0.0103112 0 0)
(0.0202654 -0.00872634 0 0.01302 0 0)
(0.0213577 -0.0107276 0 0.0164678 0 0)
(0.0224187 -0.0131493 0 0.0208896 0 0)
(0.0233347 -0.0159907 0 0.0265243 0 0)
(0.0239274 -0.019165 0 0.0337204 0 0)
(0.0240553 -0.0225043 0 0.0427018 0 0)
(0.0234785 -0.0256878 0 0.0538395 0 0)
(0.0222566 -0.0283345 0 0.0670238 0 0)
(0.0200783 -0.0298974 0 0.0825039 0 0)
(0.00385941 -0.000712117 0 0.00265883 0 0)
(0.0171063 -0.00308079 0 0.00265014 0 0)
(0.0163142 -0.00324205 0 0.00294313 0 0)
(0.0148382 -0.00290307 0 0.00361791 0 0)
(0.015228 -0.00297108 0 0.00456069 0 0)
(0.015838 -0.00348965 0 0.00575918 0 0)
(0.0163907 -0.00426663 0 0.00724115 0 0)
(0.0169317 -0.00519207 0 0.00907064 0 0)
(0.0174679 -0.00626834 0 0.0113437 0 0)
(0.0180039 -0.00755172 0 0.0141989 0 0)
(0.0185338 -0.00910281 0 0.0177853 0 0)
(0.0189947 -0.0109285 0 0.0223013 0 0)
(0.0192882 -0.0129848 0 0.0279237 0 0)
(0.0192742 -0.0151401 0 0.0349083 0 0)
(0.018863 -0.0172235 0 0.0433658 0 0)
(0.017927 -0.0189455 0 0.0535435 0 0)
(0.016593 -0.0200471 0 0.0652388 0 0)
(0.0146545 -0.0201178 0 0.0786569 0 0)
(0.00408628 -0.000491807 0 0.00267251 0 0)
(0.0171651 -0.00333816 0 0.00292739 0 0)
(0.016231 -0.0035623 0 0.0033104 0 0)
(0.014621 -0.00319746 0 0.00406522 0 0)
(0.0149026 -0.00321782 0 0.0050867 0 0)
(0.0153713 -0.00365559 0 0.00637071 0 0)
(0.0157254 -0.00430696 0 0.00795559 0 0)
(0.016008 -0.00506308 0 0.00989895 0 0)
(0.0162347 -0.0059216 0 0.0122827 0 0)
(0.0164169 -0.00691275 0 0.0152261 0 0)
(0.0165428 -0.00805282 0 0.0188511 0 0)
(0.016555 -0.0093026 0 0.0233104 0 0)
(0.0163774 -0.0105871 0 0.0287169 0 0)
(0.0159324 -0.0117639 0 0.0352438 0 0)
(0.0152005 -0.0126936 0 0.0429104 0 0)
(0.0141454 -0.0131444 0 0.051883 0 0)
(0.0129271 -0.0129716 0 0.0619122 0 0)
(0.0114022 -0.0118707 0 0.073192 0 0)
(0.00427793 -0.000488486 0 0.00291716 0 0)
(0.017124 -0.00338785 0 0.00285484 0 0)
(0.0158998 -0.00360861 0 0.00320663 0 0)
(0.0140744 -0.0031548 0 0.00403038 0 0)
(0.0141202 -0.00307309 0 0.00512992 0 0)
(0.0143175 -0.00340804 0 0.00649067 0 0)
(0.014435 -0.00392029 0 0.00814481 0 0)
(0.0145342 -0.00445995 0 0.0101495 0 0)
(0.01458 -0.00500021 0 0.0125738 0 0)
(0.0145246 -0.00555869 0 0.0155093 0 0)
(0.0143447 -0.00614235 0 0.0190436 0 0)
(0.0140233 -0.00670274 0 0.0232852 0 0)
(0.0135528 -0.00716553 0 0.0282924 0 0)
(0.0129344 -0.00739893 0 0.0341718 0 0)
(0.0121986 -0.00730393 0 0.0408825 0 0)
(0.0113667 -0.00670015 0 0.0485331 0 0)
(0.0105774 -0.00553869 0 0.0568723 0 0)
(0.00972335 -0.00358618 0 0.0660939 0 0)
(0.00413584 -0.000466547 0 0.00299178 0 0)
(0.0173409 -0.00351481 0 0.0029946 0 0)
(0.0159654 -0.00384132 0 0.003433 0 0)
(0.0139591 -0.00335414 0 0.00430578 0 0)
(0.0138649 -0.00318422 0 0.00542211 0 0)
(0.0139081 -0.00340235 0 0.00679669 0 0)
(0.0138302 -0.00374877 0 0.00845055 0 0)
(0.0137041 -0.00404616 0 0.0104136 0 0)
(0.0135216 -0.00425338 0 0.012736 0 0)
(0.0132613 -0.00438754 0 0.0154879 0 0)
(0.0129161 -0.00445827 0 0.0187248 0 0)
(0.0124866 -0.00442118 0 0.0225144 0 0)
(0.0119804 -0.00420947 0 0.0268717 0 0)
(0.0114267 -0.00371097 0 0.0318552 0 0)
(0.0108666 -0.00285584 0 0.0373885 0 0)
(0.0103543 -0.00151613 0 0.0435514 0 0)
(0.00999801 0.000304467 0 0.0501039 0 0)
(0.00974451 0.00277419 0 0.0572492 0 0)
(0.00411991 -0.000461958 0 0.00303355 0 0)
(0.0172592 -0.00359462 0 0.00324423 0 0)
(0.0158458 -0.00389693 0 0.00349039 0 0)
(0.0137074 -0.0034315 0 0.00419266 0 0)
(0.0133776 -0.00324284 0 0.0051933 0 0)
(0.0131164 -0.00332475 0 0.00643984 0 0)
(0.0127486 -0.00343279 0 0.00792891 0 0)
(0.0124025 -0.00343068 0 0.00967962 0 0)
(0.0120861 -0.00328985 0 0.0117197 0 0)
(0.0117749 -0.00301654 0 0.0140897 0 0)
(0.0114565 -0.00260643 0 0.016818 0 0)
(0.0111341 -0.00201971 0 0.01994 0 0)
(0.0108213 -0.00120428 0 0.0234469 0 0)
(0.0105641 -8.83261e-05 0 0.0273685 0 0)
(0.0104085 0.00136552 0 0.031629 0 0)
(0.0104227 0.00322595 0 0.0362932 0 0)
(0.0106837 0.0054727 0 0.0411663 0 0)
(0.0111699 0.00820077 0 0.0464205 0 0)
(0.00406357 -0.000263653 0 0.00303496 0 0)
(0.017376 -0.00323829 0 0.00306222 0 0)
(0.0155425 -0.00343698 0 0.00315832 0 0)
(0.0131201 -0.002761 0 0.00375917 0 0)
(0.0126637 -0.00228149 0 0.00461568 0 0)
(0.0122965 -0.00207 0 0.00565543 0 0)
(0.0118582 -0.00190524 0 0.00687901 0 0)
(0.011509 -0.00162909 0 0.00829999 0 0)
(0.0112642 -0.00117882 0 0.00992624 0 0)
(0.0111013 -0.000542086 0 0.011767 0 0)
(0.0110142 0.000279981 0 0.0138226 0 0)
(0.0110165 0.0013016 0 0.0161061 0 0)
(0.0111338 0.00254197 0 0.0186032 0 0)
(0.0114183 0.00403831 0 0.0213321 0 0)
(0.0119114 0.00579958 0 0.0242331 0 0)
(0.0126731 0.00786646 0 0.0273555 0 0)
(0.0137496 0.0102037 0 0.0305582 0 0)
(0.0151324 0.0128788 0 0.0339707 0 0)
(0.00417531 -0.00054406 0 0.00344016 0 0)
(0.0167301 -0.0030458 0 0.00322674 0 0)
(0.0147184 -0.00297987 0 0.00316479 0 0)
(0.0123345 -0.00226757 0 0.00358298 0 0)
(0.0118065 -0.00174974 0 0.00419841 0 0)
(0.01139 -0.00144563 0 0.00495746 0 0)
(0.0109613 -0.00116905 0 0.00585812 0 0)
(0.0106553 -0.000779484 0 0.00689751 0 0)
(0.0104827 -0.000210982 0 0.00807101 0 0)
(0.0104368 0.000551663 0 0.00938072 0 0)
(0.0105314 0.00150317 0 0.0108262 0 0)
(0.0107952 0.00264319 0 0.0124142 0 0)
(0.0112582 0.00397257 0 0.0141309 0 0)
(0.0119642 0.00550644 0 0.0159851 0 0)
(0.0129447 0.00724087 0 0.0179312 0 0)
(0.0142378 0.0091975 0 0.0200036 0 0)
(0.0158705 0.0113445 0 0.0221098 0 0)
(0.0178316 0.0137261 0 0.0243326 0 0)
(0.00426028 -0.000407297 0 0.00303228 0 0)
(0.0168475 -0.00268865 0 0.00275724 0 0)
(0.0148111 -0.0024948 0 0.00260074 0 0)
(0.0124572 -0.00171234 0 0.00286237 0 0)
(0.0119469 -0.00114584 0 0.00330327 0 0)
(0.0115265 -0.000786959 0 0.00385897 0 0)
(0.0111244 -0.000446604 0 0.00450091 0 0)
(0.0109048 3.93679e-06 0 0.00521312 0 0)
(0.0108737 0.000616367 0 0.00599304 0 0)
(0.0110125 0.00139659 0 0.00684982 0 0)
(0.0113357 0.00233363 0 0.00778906 0 0)
(0.0118788 0.00342273 0 0.008818 0 0)
(0.0126765 0.00466182 0 0.00992605 0 0)
(0.013766 0.00606098 0 0.0111186 0 0)
(0.0151679 0.00761502 0 0.0123644 0 0)
(0.0169074 0.00934011 0 0.0136875 0 0)
(0.019 0.0112082 0 0.015028 0 0)
(0.0214355 0.0132561 0 0.0164427 0 0)
(0.00390862 -0.000325729 0 0.00294078 0 0)
(0.0166984 -0.00241482 0 0.00226529 0 0)
(0.0146494 -0.00233972 0 0.00203332 0 0)
(0.0122327 -0.00164331 0 0.00220321 0 0)
(0.01167 -0.00107921 0 0.00253961 0 0)
(0.0112232 -0.000703096 0 0.00297335 0 0)
(0.0108167 -0.000366412 0 0.00346628 0 0)
(0.0106083 5.6991e-05 0 0.00401237 0 0)
(0.0106148 0.000630738 0 0.00461469 0 0)
(0.0108356 0.00136721 0 0.005276 0 0)
(0.0112917 0.00225171 0 0.00599193 0 0)
(0.0120145 0.00326912 0 0.00676016 0 0)
(0.0130294 0.00440932 0 0.00757054 0 0)
(0.0143682 0.00567434 0 0.00842682 0 0)
(0.0160497 0.00705851 0 0.00930751 0 0)
(0.0180968 0.0085729 0 0.0102317 0 0)
(0.0205203 0.0101924 0 0.0111561 0 0)
(0.0233071 0.0119432 0 0.0121186 0 0)
(0.00416988 -0.000342703 0 0.00248239 0 0)
(0.016309 -0.00211093 0 0.00201384 0 0)
(0.0141449 -0.001877 0 0.00175632 0 0)
(0.0117291 -0.0011698 0 0.00176852 0 0)
(0.0111681 -0.000634361 0 0.00191765 0 0)
(0.0107244 -0.000279685 0 0.0021414 0 0)
(0.0103513 3.23749e-05 0 0.00239833 0 0)
(0.0102387 0.000410538 0 0.00267619 0 0)
(0.0104085 0.000906343 0 0.00298595 0 0)
(0.0108413 0.00152672 0 0.00334126 0 0)
(0.0115443 0.00225839 0 0.00374289 0 0)
(0.0125414 0.00308773 0 0.00418581 0 0)
(0.0138574 0.00400777 0 0.00465943 0 0)
(0.0155159 0.00502092 0 0.0051645 0 0)
(0.0175347 0.0061232 0 0.00568727 0 0)
(0.0199232 0.00732063 0 0.0062419 0 0)
(0.0226974 0.00859821 0 0.00680193 0 0)
(0.0258228 0.00996874 0 0.00738914 0 0)
(0.00443771 -0.000598105 0 0.00211496 0 0)
(0.0162623 -0.00196793 0 0.00163078 0 0)
(0.0137044 -0.0014902 0 0.00144703 0 0)
(0.0112967 -0.000718688 0 0.0015078 0 0)
(0.0109676 -0.000168604 0 0.00165294 0 0)
(0.0107579 0.000188883 0 0.00183725 0 0)
(0.0105881 0.000506962 0 0.0020391 0 0)
(0.0106894 0.000894821 0 0.00225625 0 0)
(0.0111238 0.00139734 0 0.00249306 0 0)
(0.0118852 0.00201147 0 0.00275199 0 0)
(0.0129701 0.00271773 0 0.00303006 0 0)
(0.0143894 0.00350063 0 0.00332634 0 0)
(0.0161603 0.00435212 0 0.00363851 0 0)
(0.0183032 0.00527479 0 0.00397034 0 0)
(0.0208261 0.00626306 0 0.00431266 0 0)
(0.0237316 0.00732222 0 0.00467741 0 0)
(0.0270246 0.00843578 0 0.00504551 0 0)
(0.0306752 0.00962203 0 0.00542657 0 0)
(0.00476393 -0.000425167 0 0.0019808 0 0)
(0.0163531 -0.00167173 0 0.0013276 0 0)
(0.0136105 -0.00128752 0 0.000998509 0 0)
(0.0111413 -0.000702807 0 0.000962126 0 0)
(0.0107535 -0.000293456 0 0.00100743 0 0)
(0.0104669 -4.41875e-05 0 0.00105651 0 0)
(0.0102497 0.000157697 0 0.00111094 0 0)
(0.0103667 0.00040153 0 0.00119345 0 0)
(0.0108657 0.000728894 0 0.00130871 0 0)
(0.0117092 0.00114231 0 0.00144649 0 0)
(0.0128835 0.00162548 0 0.00159568 0 0)
(0.0144056 0.00216537 0 0.00175382 0 0)
(0.0163034 0.00275552 0 0.00192178 0 0)
(0.0185964 0.00339615 0 0.00210298 0 0)
(0.02129 0.00408388 0 0.00229225 0 0)
(0.024374 0.00482076 0 0.00249506 0 0)
(0.0278512 0.00559525 0 0.00270033 0 0)
(0.031674 0.00642167 0 0.0029148 0 0)
(0.00442031 -0.000428667 0 0.00197456 0 0)
(0.0158619 -0.00132333 0 0.00113915 0 0)
(0.0128959 -0.00108054 0 0.00078974 0 0)
(0.0105343 -0.000559178 0 0.000796645 0 0)
(0.0103218 -0.000113053 0 0.000846625 0 0)
(0.010226 0.000181638 0 0.000879941 0 0)
(0.0102874 0.000409544 0 0.000903587 0 0)
(0.0107673 0.00065422 0 0.000936267 0 0)
(0.0116691 0.000956934 0 0.00098512 0 0)
(0.012924 0.00132261 0 0.00104723 0 0)
(0.0145163 0.00173975 0 0.00111883 0 0)
(0.0164769 0.00219978 0 0.00119912 0 0)
(0.0188422 0.00269821 0 0.00128839 0 0)
(0.0216315 0.00323461 0 0.00138907 0 0)
(0.0248473 0.00380484 0 0.00149818 0 0)
(0.0284726 0.0044116 0 0.00161978 0 0)
(0.0325117 0.00504469 0 0.00174684 0 0)
(0.0369133 0.00571637 0 0.00188263 0 0)
(0.00368027 -0.00046798 0 0.00152692 0 0)
(0.015063 -0.000719757 0 0.000686497 0 0)
(0.0122111 -0.000457428 0 0.00038563 0 0)
(0.0101106 -0.000179976 0 0.000353737 0 0)
(0.0100859 4.25476e-05 0 0.000346297 0 0)
(0.0101615 0.000164277 0 0.000344902 0 0)
(0.0104037 0.000246997 0 0.000359721 0 0)
(0.0110682 0.000349803 0 0.00038479 0 0)
(0.0121668 0.000495099 0 0.000413431 0 0)
(0.0136487 0.00068085 0 0.000443519 0 0)
(0.0155176 0.000898955 0 0.000476107 0 0)
(0.0178107 0.00114272 0 0.000513125 0 0)
(0.0205544 0.0014088 0 0.000555497 0 0)
(0.0237456 0.00169738 0 0.000604755 0 0)
(0.0273673 0.00200668 0 0.000660013 0 0)
(0.0313888 0.00233942 0 0.000723633 0 0)
(0.035813 0.00268818 0 0.000792528 0 0)
(0.0405851 0.00306301 0 0.000867728 0 0)
(0.0044981 -0.000423575 0 0.00114721 0 0)
(0.0149151 -0.00087103 0 0.000494741 0 0)
(0.0116678 -0.000649283 0 0.000367819 0 0)
(0.00984783 -0.000278776 0 0.000344689 0 0)
(0.0100608 -2.20106e-05 0 0.000301326 0 0)
(0.0103278 0.000119929 0 0.000259358 0 0)
(0.01088 0.000228289 0 0.000237826 0 0)
(0.0119895 0.000339183 0 0.000230772 0 0)
(0.0136088 0.000453569 0 0.000230977 0 0)
(0.0156395 0.000572025 0 0.000235687 0 0)
(0.018061 0.000701645 0 0.000244868 0 0)
(0.0209039 0.000849371 0 0.000259412 0 0)
(0.024192 0.00101857 0 0.000280196 0 0)
(0.0279282 0.00120902 0 0.000307731 0 0)
(0.0320917 0.00141704 0 0.000341548 0 0)
(0.036664 0.00163915 0 0.000383005 0 0)
(0.0416398 0.00186913 0 0.000430711 0 0)
(0.0469808 0.00211018 0 0.000483758 0 0)
(0.00360853 -0.000145563 0 0.000871172 0 0)
(0.0138554 6.9855e-05 0 0.000221648 0 0)
(0.0106979 -2.38848e-05 0 0.000143293 0 0)
(0.00912974 1.34182e-05 0 0.000132499 0 0)
(0.00958448 2.57878e-06 0 0.00013374 0 0)
(0.0100916 -4.89104e-05 0 0.000137738 0 0)
(0.010851 -0.000109246 0 0.000142484 0 0)
(0.0120936 -0.000165594 0 0.000148343 0 0)
(0.0137404 -0.00021524 0 0.000156343 0 0)
(0.015676 -0.000255316 0 0.000166306 0 0)
(0.0178613 -0.000281169 0 0.0001776 0 0)
(0.0203256 -0.000289726 0 0.000190085 0 0)
(0.0230846 -0.000278517 0 0.000203931 0 0)
(0.0261714 -0.000245879 0 0.000219748 0 0)
(0.0295564 -0.000190844 0 0.000237555 0 0)
(0.0332833 -0.000114333 0 0.000258764 0 0)
(0.0372958 -1.73176e-05 0 0.000283419 0 0)
(0.0416849 0.000102031 0 0.000310475 0 0)
(0.00397299 -0.000282662 0 0.000723759 0 0)
(0.0148538 -3.21047e-05 0 0.000219642 0 0)
(0.01296 2.57335e-05 0 0.000132531 0 0)
(0.0122876 9.78329e-05 0 9.65156e-05 0 0)
(0.0133469 0.000117021 0 7.66478e-05 0 0)
(0.0143509 0.000130059 0 6.42246e-05 0 0)
(0.015351 0.000149658 0 5.58706e-05 0 0)
(0.0165887 0.000171526 0 5.07358e-05 0 0)
(0.0181534 0.000191895 0 4.78841e-05 0 0)
(0.0200705 0.000211616 0 4.66511e-05 0 0)
(0.0223506 0.000235114 0 4.70275e-05 0 0)
(0.0250083 0.000268001 0 4.89824e-05 0 0)
(0.0280808 0.000314308 0 5.19941e-05 0 0)
(0.0316212 0.000374621 0 5.55757e-05 0 0)
(0.0357018 0.000446996 0 5.97418e-05 0 0)
(0.0403441 0.00052905 0 6.48628e-05 0 0)
(0.0456277 0.000618873 0 7.04201e-05 0 0)
(0.0514842 0.000718744 0 7.56663e-05 0 0)
(0.00231261 -0.00593451 1.32316e-22 0.0153837 -2.81046e-22 1.30327e-37)
(0.0258714 -0.0215217 -3.70928e-22 0.0182438 2.35734e-22 1.28504e-37)
(0.0694094 -0.0300292 0 0.0139241 0 0)
(0.116453 -0.0298041 0 0.00951717 0 0)
(0.155134 -0.0237067 0 0.00684303 0 0)
(0.182772 -0.0173243 8.63908e-22 0.00669199 -5.89924e-23 1.2104e-37)
(0.206553 -0.0146733 0 0.00820955 0 0)
(0.233568 -0.0167702 0 0.0103067 0 0)
(0.272572 -0.0235295 0 0.0120583 0 0)
(0.330497 -0.0332109 0 0.0131299 0 0)
(0.411091 -0.0443064 -1.00077e-21 0.0132529 2.43319e-23 1.12116e-37)
(0.515457 -0.0548208 0 0.0127027 0 0)
(0.641568 -0.0634067 0 0.01162 0 0)
(0.784844 -0.0691698 0 0.0102014 0 0)
(0.939267 -0.0715336 0 0.00863289 0 0)
(1.09782 -0.0702404 -1.19734e-21 0.00707642 8.09183e-23 1.03629e-37)
(1.25298 -0.0653415 0 0.0056738 0 0)
(1.39772 -0.0571557 0 0.00455134 0 0)
(1.52579 -0.0462331 0 0.00382023 0 0)
(1.6308 -0.0334343 0 0.00357022 0 0)
(1.70968 -0.0198811 0 0.003838 0 0)
(1.76111 -0.00680584 0 0.00457835 0 0)
(1.78655 0.00468268 0 0.00565732 0 0)
(1.78949 0.0137685 -2.45283e-21 0.00687444 2.42897e-22 9.09475e-38)
(1.7747 0.0200538 2.70878e-21 0.00803257 -2.53751e-22 8.94397e-38)
(1.74666 0.0234291 -2.97681e-21 0.00904202 2.58967e-22 8.79491e-38)
(1.71047 0.0240817 -3.25127e-21 0.0101277 2.59354e-22 8.64755e-38)
(1.6704 0.0219423 0 0.0118372 0 0)
(1.63043 0.0163399 0 0.0157127 0 0)
(1.59618 0.00531042 4.05176e-21 0.0225797 -2.16092e-22 8.21575e-38)
(1.57688 -0.0140277 4.28848e-21 0.0331019 -1.80754e-22 8.07522e-38)
(1.58443 -0.0408898 0 0.0444209 0 0)
(1.62135 -0.0698298 0 0.051845 0 0)
(1.68475 -0.0946991 4.91193e-21 0.0533555 -1.23631e-22 7.66383e-38)
(1.77549 -0.113401 0 0.0505991 0 0)
(1.90398 -0.136149 0 0.0480486 0 0)
(2.07858 -0.161526 -5.50284e-21 0.0493271 1.21871e-22 7.26769e-38)
(2.28421 -0.175602 0 0.0523267 0 0)
(2.51542 -0.171173 -5.87062e-21 0.0514617 1.31024e-22 7.01201e-38)
(2.76343 -0.167005 -1.21104e-20 0.0543513 2.97063e-22 2.75468e-37)
(3.02575 -0.174217 0 0.0511501 0 0)
(3.30009 -0.170269 0 0.0459461 0 0)
(3.57505 -0.158657 0 0.0438841 0 0)
(3.84825 -0.158151 0 0.0421291 0 0)
(4.1203 -0.161836 0 0.0386045 0 0)
(4.39071 -0.151231 -1.41786e-20 0.0377371 2.78843e-22 2.46785e-37)
(4.64857 -0.143511 -1.44568e-20 0.037995 2.64652e-22 2.42234e-37)
(4.89815 -0.141428 -1.47017e-20 0.0334652 2.36485e-22 2.37748e-37)
(5.12688 -0.129762 0 0.0301661 0 0)
(5.31525 -0.113474 1.50941e-20 0.0280077 -2.05099e-22 2.28967e-37)
(5.46095 -0.0998678 0 0.0264228 0 0)
(5.56996 -0.0913102 -1.53805e-20 0.025579 1.71719e-22 2.2044e-37)
(5.6543 -0.0848573 -1.54785e-20 0.0258162 1.55476e-22 2.16271e-37)
(5.71469 -0.0783542 0 0.0267813 0 0)
(5.74971 -0.0696789 0 0.0269182 0 0)
(5.76268 -0.0546193 0 0.0250446 0 0)
(5.76029 -0.0344137 -1.55755e-20 0.0211221 1.01654e-22 2.00206e-37)
(5.75129 -0.018396 0 0.0179828 0 0)
(5.74866 -0.0138637 0 0.0171447 0 0)
(5.7678 -0.0194301 0 0.0165001 0 0)
(5.81498 -0.0280523 0 0.0150636 0 0)
(5.88756 -0.0358512 0 0.0132773 0 0)
(5.98015 -0.0416952 0 0.0114618 0 0)
(6.08689 -0.0454382 0 0.00978582 0 0)
(6.20218 -0.0472795 0 0.00831037 0 0)
(6.32142 -0.047535 1.49257e-20 0.00704471 -4.33503e-23 1.6751e-37)
(6.4406 -0.0464816 0 0.00597084 0 0)
(6.55635 -0.0443617 0 0.00506401 0 0)
(6.66567 -0.0413665 -1.45277e-20 0.00429941 2.17353e-23 1.57617e-37)
(6.766 -0.037641 -1.43735e-20 0.00365505 1.52034e-23 1.54426e-37)
(6.85512 -0.0332964 0 0.00311233 0 0)
(6.93092 -0.0284047 1.40285e-20 0.00265485 -2.73255e-24 1.482e-37)
(6.99147 -0.0230109 -1.3836e-20 0.00226827 -3.34823e-24 1.45164e-37)
(7.03482 -0.0171492 0 0.00194098 0 0)
(7.05903 -0.0108478 1.34064e-20 0.00166388 1.55241e-23 1.39242e-37)
(7.06222 -0.00414647 0 0.00143145 0 0)
(7.04256 0.00286805 0 0.00124222 0 0)
(6.99849 0.0100659 -1.26386e-20 0.00109625 -3.38516e-23 1.30726e-37)
(6.92898 0.0172683 0 0.0009935 0 0)
(6.83409 0.0243023 1.20408e-20 0.000930458 4.49729e-23 1.25287e-37)
(6.71423 0.0310378 0 0.000900739 0 0)
(6.57009 0.0373714 -1.13832e-20 0.000896413 -5.39735e-23 1.20031e-37)
(6.40276 0.0432343 -1.10369e-20 0.000909226 -5.75014e-23 1.17471e-37)
(6.21368 0.0485755 -1.06821e-20 0.000932747 -6.03355e-23 1.14955e-37)
(6.00446 0.0533845 -2.06429e-20 0.000963127 -1.24988e-22 4.49932e-37)
(5.77669 0.0576668 1.99149e-20 0.000999282 1.28007e-22 4.40215e-37)
(5.53198 0.0614302 0 0.00104196 0 0)
(5.27199 0.064668 0 0.0010922 0 0)
(4.99852 0.067353 0 0.0011506 0 0)
(4.71363 0.0694336 1.70309e-20 0.00121654 1.28973e-22 4.03022e-37)
(4.41966 0.0708417 1.63388e-20 0.00128735 1.26727e-22 3.9413e-37)
(4.11937 0.0715037 -1.56666e-20 0.00135916 -1.23545e-22 3.85396e-37)
(3.81583 0.0713581 0 0.00142703 0 0)
(3.51243 0.0703686 1.43973e-20 0.00148507 1.14516e-22 3.68393e-37)
(3.21266 0.0685451 1.38068e-20 0.00152813 1.08834e-22 3.6012e-37)
(2.91996 0.0659416 1.32489e-20 0.0015516 1.0255e-22 3.51995e-37)
(2.63756 0.0626603 0 0.00155265 0 0)
(2.36821 0.058845 0 0.00153103 0 0)
(2.11404 0.0546405 0 0.00148711 0 0)
(1.87649 0.0502154 1.13597e-20 0.00142478 7.4933e-23 3.20943e-37)
(1.65646 0.0456913 0 0.00134654 0 0)
(1.45439 0.0411976 0 0.00125757 0 0)
(1.27033 0.0368033 -1.02748e-20 0.00116057 -5.55986e-23 2.99112e-37)
(1.10406 0.0325781 0 0.0010594 0 0)
(0.955112 0.028552 0 0.000955774 0 0)
(0.822861 0.0247586 -9.4169e-21 0.000851912 -3.90548e-23 2.78468e-37)
(0.706551 0.0212127 0 0.000748704 0 0)
(0.605254 0.0179443 0 0.000648272 0 0)
(0.517957 0.014977 8.73485e-21 0.000552614 2.51698e-23 2.58956e-37)
(0.443511 0.0123172 8.53895e-21 0.000462944 2.11269e-23 2.52695e-37)
(0.380692 0.00997666 0 0.000381333 0 0)
(0.32819 0.0079346 -8.18585e-21 0.00030771 -1.39349e-23 2.40525e-37)
(0.284694 0.00618972 0 0.00024383 0 0)
(0.248997 0.00472178 7.87604e-21 0.000189947 7.91963e-24 2.28814e-37)
(0.219954 0.00350311 0 0.000145683 0 0)
(0.196529 0.00250229 7.60126e-21 0.00011019 3.06749e-24 2.17546e-37)
(0.177812 0.00168726 7.47486e-21 8.23504e-05 1.04716e-24 2.12074e-37)
(0.163018 0.00102745 0 6.09583e-05 0 0)
(0.151487 0.000495434 0 4.48691e-05 0 0)
(0.142667 6.76869e-05 0 3.31045e-05 0 0)
(0.136102 -0.000275821 0 2.48504e-05 0 0)
(0.131414 -0.000550793 0 1.94322e-05 0 0)
(0.128288 -0.000769257 0 1.63447e-05 0 0)
(0.12646 -0.000941416 0 1.5171e-05 0 0)
(0.125708 -0.00107598 6.64782e-21 1.55197e-05 -7.86414e-24 1.71967e-37)
(0.125849 -0.00117951 -6.56099e-21 1.70488e-05 8.30535e-24 1.67388e-37)
(0.126725 -0.00125769 0 1.93864e-05 0 0)
(0.12821 -0.0013164 0 2.21365e-05 0 0)
(0.130204 -0.0013586 0 2.49433e-05 0 0)
(0.13262 -0.00138464 0 2.73623e-05 0 0)
(0.13538 -0.00139516 -1.2318e-20 2.89092e-05 1.74203e-23 5.83339e-37)
(0.138422 -0.00139178 0 2.93639e-05 0 0)
(0.141689 -0.00137565 1.20153e-20 2.87569e-05 -1.61333e-23 5.51251e-37)
(0.145127 -0.00134754 -1.18659e-20 2.7246e-05 1.52632e-23 5.35699e-37)
(0.148684 -0.0013081 0 2.5045e-05 0 0)
(0.152308 -0.00125802 0 2.23759e-05 0 0)
(0.155945 -0.00119834 0 1.9459e-05 0 0)
(0.159547 -0.00113071 1.12719e-20 1.65085e-05 -1.12065e-23 4.76646e-37)
(0.163064 -0.00105734 1.11233e-20 1.37094e-05 -1.01947e-23 4.62646e-37)
(0.166457 -0.000980567 0 1.1188e-05 0 0)
(0.16969 -0.000902614 1.08249e-20 9.00453e-06 -8.32859e-24 4.35529e-37)
(0.172738 -0.000825343 1.06751e-20 7.16753e-06 -7.49744e-24 4.22401e-37)
(0.175582 -0.000750245 -1.0525e-20 5.65448e-06 6.7394e-24 4.09555e-37)
(0.17821 -0.000678482 0 4.42882e-06 0 0)
(0.180615 -0.000610953 0 3.45049e-06 0 0)
(0.182798 -0.000548313 -1.00732e-20 2.68019e-06 4.89443e-24 3.72661e-37)
(0.184764 -0.000490964 0 2.08089e-06 0 0)
(0.186521 -0.000439016 0 1.61861e-06 0 0)