/*--------------------------------*- C++ -*----------------------------------*\
  =========                 |
  \\      /  F ield         | OpenFOAM: The Open Source CFD Toolbox
   \\    /   O peration     | Website:  https://openfoam.org
    \\  /    A nd           | Version:  7
     \\/     M anipulation  |
\*---------------------------------------------------------------------------*/
FoamFile
{
    version     2.0;
    format      ascii;
    class       volScalarField;
    location    "0.19";
    object      epsilon;
}
// * * * * * * * * * * * * * * * * * * * * * * * * * * * * * * * * * * * * * //

dimensions      [0 2 -3 0 0 0 0];

internalField   nonuniform List<scalar> 
12225
(
261.514
229.335
202.526
181.49
166.165
155.706
148.932
144.733
142.228
140.783
139.966
139.498
139.209
139.001
138.82
138.633
138.473
139.398
74.4043
97.5826
104.476
109.106
114.646
121.071
127.657
133.849
139.37
144.125
148.12
151.418
154.109
156.284
158.041
159.419
160.687
161.371
31.9471
44.3629
51.5593
56.298
60.1529
63.8147
67.4427
70.9974
74.4051
77.6029
80.5474
83.2164
85.6075
87.7319
89.6109
91.2634
92.743
94.0005
20.8063
26.6661
31.0978
34.3341
36.8357
38.9646
40.9056
42.7339
44.4771
46.1407
47.7202
49.2082
50.5989
51.89
53.0823
54.1787
55.1849
56.0907
17.0807
19.8447
22.2845
24.253
25.8329
27.1482
28.2888
29.3101
30.2469
31.12
31.9402
32.7129
33.4404
34.1241
34.765
35.3641
35.9214
36.4285
15.6187
16.8449
18.1011
19.2184
20.1684
20.9743
21.666
22.2693
22.8054
23.2898
23.7334
24.1432
24.524
24.8789
25.21
25.519
25.8061
26.0652
15.0057
15.4483
16.0092
16.5713
17.0865
17.5425
17.9406
18.2873
18.5911
18.8599
19.1003
19.3172
19.5143
19.6946
19.8601
20.0122
20.1517
20.2744
14.7446
14.7907
14.9477
15.1532
15.3698
15.5778
15.7678
15.9367
16.0851
16.2152
16.3294
16.43
16.519
16.598
16.6685
16.7313
16.787
16.8331
14.6329
14.4844
14.4154
14.4003
14.4174
14.4511
14.4907
14.5299
14.5655
14.5965
14.6225
14.6437
14.6605
14.6733
14.6827
14.6891
14.6925
14.6915
14.5847
14.3444
14.156
14.012
13.9027
13.8188
13.7521
13.6969
13.6491
13.6062
13.5665
13.529
13.493
13.4581
13.4241
13.3908
13.358
13.3249
14.5634
14.2814
14.0337
13.8195
13.6355
13.4771
13.3395
13.2185
13.1106
13.0134
12.9246
12.8429
12.767
12.6959
12.6291
12.566
12.5062
12.4493
14.5542
14.2552
13.9821
13.7352
13.5137
13.3154
13.1375
12.9773
12.8323
12.7002
12.5792
12.4678
12.3647
12.2687
12.1791
12.0952
12.0163
11.9425
14.5491
14.2419
13.9563
13.6925
13.4503
13.2287
13.0261
12.8407
12.6708
12.5147
12.3708
12.2378
12.1145
11.9998
11.8928
11.7928
11.6992
11.6122
14.546
14.2346
13.943
13.6708
13.4177
13.183
12.9656
12.7643
12.578
12.4054
12.2452
12.0964
11.9578
11.8286
11.7078
11.5948
11.4891
11.3912
14.544
14.2306
13.9366
13.6611
13.4033
13.1627
12.9382
12.7289
12.5339
12.352
12.1823
12.0238
11.8757
11.737
11.6071
11.4852
11.3709
11.2653
14.5428
14.2284
13.9337
13.6573
13.3982
13.1557
12.9287
12.7165
12.5179
12.3322
12.1582
11.9953
11.8425
11.6991
11.5644
11.4378
11.3188
11.2087
14.5422
14.2274
13.9327
13.6565
13.3975
13.155
12.9279
12.7152
12.516
12.3293
12.1543
11.9901
11.8359
11.691
11.5547
11.4264
11.3057
11.1939
14.5423
14.2277
13.9335
13.6579
13.3998
13.1581
12.9318
12.7199
12.5214
12.3353
12.1609
11.9971
11.8432
11.6986
11.5625
11.4343
11.3137
11.2019
14.5433
14.2297
13.9367
13.6624
13.4058
13.1657
12.9411
12.731
12.5342
12.3499
12.1771
12.015
11.8628
11.7196
11.585
11.4582
11.339
11.2284
14.5456
14.2344
13.9436
13.6717
13.4176
13.1802
12.9585
12.7514
12.5578
12.3767
12.2072
12.0483
11.8993
11.7594
11.6279
11.5043
11.3881
11.2805
14.5493
14.2418
13.9546
13.6865
13.4365
13.2037
12.9871
12.7854
12.5975
12.4223
12.2588
12.106
11.9631
11.8293
11.7038
11.5861
11.4756
11.3737
14.5555
14.2546
13.9745
13.7145
13.4739
13.2518
13.0472
12.8583
12.6838
12.5223
12.3725
12.2334
12.104
11.9832
11.8706
11.7653
11.6668
11.576
14.567
14.2806
14.0189
13.7811
13.5664
13.3733
13.1995
13.0423
12.8992
12.7684
12.6482
12.5375
12.435
12.3396
12.2504
12.1665
12.0876
12.0145
14.5931
14.349
14.1441
13.9723
13.8284
13.7082
13.606
13.5164
13.436
13.3631
13.2957
13.232
13.1708
13.1116
13.054
12.9979
12.9432
12.8913
14.6719
14.5671
14.5334
14.5366
14.5581
14.5881
14.618
14.6433
14.6615
14.6705
14.6701
14.6615
14.6457
14.6241
14.598
14.5685
14.5366
14.5044
14.9618
15.3045
15.7117
16.0878
16.4098
16.6789
16.8974
17.0641
17.186
17.2721
17.3301
17.3666
17.3871
17.3961
17.3971
17.393
17.3859
17.3781
16.0826
17.7386
19.068
20.0268
20.7393
21.2728
21.6497
21.9107
22.0918
22.2196
22.3132
22.3863
22.4487
22.5072
22.5663
22.6287
22.6961
22.7695
20.4114
25.6123
28.3433
29.7403
30.5941
31.1249
31.4556
31.6809
31.8655
32.047
32.2457
32.4724
32.7315
33.0234
33.3459
33.6959
34.0696
34.4612
38.6012
49.0462
52.2934
53.1779
53.4522
53.5618
53.7102
54.0137
54.5022
55.1614
55.966
56.8902
57.9093
59.0005
60.1436
61.322
62.5247
63.7379
159.121
148.102
138.017
128.818
120.586
113.348
107.09
101.756
97.2562
93.4904
90.359
87.7703
85.642
83.9022
82.4888
81.3485
80.4364
79.7144
0.187566
0.227841
0.376964
0.523351
0.685044
0.862104
1.05807
1.25349
1.44746
1.64005
1.83059
2.01866
2.20417
2.38731
2.56839
2.74782
2.92603
3.10341
3.28035
3.45719
3.63423
3.81177
3.99004
4.16926
4.34963
4.53131
4.71444
4.8991
5.08534
5.27319
5.46259
5.65346
5.84565
6.039
6.23327
6.42819
6.62346
6.81875
7.01366
7.20778
7.40066
7.59181
7.78068
7.9667
8.14924
8.32763
8.5012
8.66928
8.83128
8.98668
9.13495
9.27539
9.40677
9.52706
9.63328
9.72168
9.78807
9.82753
9.83429
9.80809
9.78312
9.89582
10.007
9.99278
10.0818
43.0165
43.3608
43.3198
10.0861
10.1716
10.2588
10.3086
10.1847
10.2734
10.3346
10.3613
44.2975
45.577
46.8938
48.2407
49.6036
50.9781
52.3593
53.7441
55.1299
56.5142
57.8951
59.2707
60.6398
62.002
63.3586
64.7139
66.0649
67.3947
68.7026
69.9873
71.247
72.4795
73.6822
74.853
75.9894
77.0891
78.1498
79.1693
80.1455
81.0764
81.9601
82.7946
83.5784
84.3098
84.9874
85.6099
86.1762
86.6851
87.1358
87.5277
87.8601
88.1327
88.3452
88.4975
88.5898
88.6222
88.5953
88.5095
88.3656
88.1644
87.9069
87.5942
87.2277
86.8086
86.3384
85.8187
85.2513
84.6378
83.9801
83.2801
82.5398
81.7611
80.9461
80.0968
79.2154
78.3039
77.3643
76.3988
75.4093
74.398
73.3668
72.3171
71.2523
70.1727
69.0824
67.9831
66.8761
65.7806
64.7589
64.2576
65.8929
65.7814
66.6517
66.4537
15.5155
74.2932
70.5852
15.745
72.997
74.3171
73.8787
16.4302
73.7779
16.6393
73.6279
16.6314
16.551
76.1459
74.3085
76.5251
76.5273
77.6669
76.5823
17.9328
0.703414
0.435297
0.461441
0.539939
0.643064
0.763882
0.896931
1.03593
1.17675
1.31691
1.45498
1.59034
1.72284
1.85268
1.98018
2.10577
2.22992
2.35308
2.47568
2.59813
2.72082
2.84407
2.96818
3.09343
3.22005
3.34822
3.47812
3.60986
3.74352
3.87916
4.0168
4.1564
4.29793
4.4413
4.58643
4.73319
4.88146
5.03112
5.18204
5.33411
5.48722
5.6413
5.79631
5.95224
6.10916
6.26723
6.42671
6.58807
6.75203
6.91972
7.09277
7.27348
7.46506
7.67194
7.90038
8.15927
8.46061
8.81772
9.238
9.70396
10.1456
10.4745
10.8755
11.519
12.4299
14.3348
14.8807
15.2301
14.8588
15.2798
15.7337
16.2571
16.8384
17.3767
17.9826
18.8172
20.396
21.0138
21.581
22.138
22.6951
23.2524
23.8101
24.3676
24.9248
25.4809
26.0357
26.5887
27.14
27.6898
28.2394
28.7914
29.3481
29.8991
30.4424
30.9774
31.5031
32.0187
32.5233
33.016
33.496
33.9622
34.4139
34.8503
35.2704
35.6736
36.059
36.4259
36.7737
37.1018
37.4094
37.6961
37.9614
38.2048
38.4259
38.6244
38.7999
38.9523
39.0814
39.187
39.2692
39.3278
39.3631
39.375
39.3638
39.3297
39.2729
39.1939
39.093
38.9706
38.8273
38.6635
38.4798
38.2767
38.055
37.8153
37.5583
37.2846
36.995
36.6903
36.3711
36.0384
35.6927
35.3349
34.9658
34.5862
34.1967
33.798
33.3913
32.9767
32.5559
32.13
31.6962
31.2727
30.882
30.6469
30.9139
30.8066
30.7599
30.4536
27.0469
30.115
30.0157
26.5423
29.2987
29.0357
28.697
25.7428
28.5543
25.6463
28.2534
25.2484
24.8051
27.3601
27.6046
27.3214
27.1936
27.1088
26.8606
22.576
1.39257
0.718837
0.660589
0.695474
0.766112
0.857612
0.962556
1.07543
1.19199
1.30926
1.42536
1.53934
1.65086
1.75999
1.86706
1.9725
2.0768
2.18044
2.28388
2.38755
2.49185
2.59711
2.70364
2.81172
2.92156
3.03338
3.14734
3.26357
3.38218
3.50326
3.62687
3.75305
3.88182
4.0132
4.14722
4.28387
4.42319
4.5652
4.70997
4.8576
5.00819
5.16194
5.31907
5.47989
5.64478
5.81422
5.98882
6.16932
6.35671
6.55226
6.75757
6.97472
7.20624
7.45517
7.72498
8.01947
8.34214
8.69439
9.07229
9.46326
9.84681
10.2129
10.6009
11.035
11.4981
12.0064
12.4404
12.8631
13.2639
13.6909
14.1295
14.5864
15.0561
15.5164
15.9857
16.4777
16.999
17.4579
17.9049
18.3486
18.7926
19.2375
19.6832
20.1297
20.5766
21.0238
21.471
21.9182
22.3653
22.8125
23.2601
23.7084
24.1546
24.5963
25.0323
25.462
25.8845
26.2991
26.7052
27.1019
27.4886
27.8645
28.229
28.5814
28.9209
29.2471
29.5591
29.8566
30.1388
30.4054
30.6557
30.8893
31.1059
31.305
31.4863
31.6495
31.7943
31.9207
32.0283
32.1172
32.1872
32.2383
32.2706
32.2842
32.2792
32.2556
32.2139
32.1542
32.0768
31.982
31.8703
31.7421
31.5977
31.4377
31.2624
31.0726
30.8687
30.6512
30.4208
30.1781
29.9235
29.6578
29.3816
29.0955
28.8
28.4958
28.1837
27.8636
27.5372
27.204
26.8654
26.5248
26.1816
25.8432
25.5232
25.2662
25.1564
24.9581
24.745
24.4679
23.7888
23.8426
23.6519
23.0277
23.0429
22.7355
22.4556
21.9725
22.0476
21.5649
21.6134
21.0995
20.8097
20.7638
20.6577
20.3701
20.1644
19.9938
19.8768
19.4425
2.06134
0.988857
0.845249
0.843248
0.888822
0.958803
1.0437
1.13784
1.23716
1.33874
1.44059
1.54157
1.64114
1.73921
1.83595
1.93171
2.02692
2.12201
2.21742
2.31355
2.41078
2.50944
2.60982
2.71219
2.81677
2.92376
3.03333
3.14564
3.26081
3.37896
3.50018
3.62457
3.75222
3.8832
4.0176
4.15553
4.29711
4.44246
4.59176
4.74521
4.90304
5.06556
5.23309
5.40604
5.58487
5.77011
5.96238
6.16235
6.37083
6.58874
6.81715
7.05728
7.31043
7.57793
7.86098
8.16046
8.47661
8.80846
9.15308
9.50592
9.86235
10.2212
10.5886
10.9679
11.3556
11.7516
12.1482
12.5493
12.9543
13.3646
13.7811
14.2042
14.632
15.0604
15.4913
15.9262
16.3639
16.7962
17.2265
17.6567
18.088
18.5207
18.955
19.3907
19.8275
20.2652
20.7035
21.1424
21.5815
22.0207
22.4595
22.8967
23.3307
23.7601
24.1842
24.6022
25.0132
25.4166
25.8117
26.1976
26.5737
26.9392
27.2935
27.6358
27.9655
28.2819
28.5845
28.8726
29.1456
29.4031
29.6445
29.8694
30.0775
30.2682
30.4413
30.5965
30.7335
30.8523
30.9525
31.0341
31.0972
31.1416
31.1674
31.1747
31.1637
31.1345
31.0874
31.0226
30.9404
30.8413
30.7254
30.5934
30.4457
30.2826
30.1047
29.9126
29.7068
29.4878
29.2562
29.0128
28.758
28.4923
28.2165
27.9314
27.6371
27.3346
27.0248
26.7066
26.3836
26.0556
25.7233
25.3883
25.0518
24.7177
24.3938
24.0978
23.8521
23.5866
23.3113
23.0201
22.6562
22.3947
22.1226
21.7849
21.5261
21.2265
20.9379
20.6304
20.3991
20.1023
19.8771
19.578
19.3051
19.0543
18.8275
18.5701
18.3388
18.1566
18.0342
17.9516
2.62136
1.21212
0.999385
0.967226
0.99261
1.0456
1.11481
1.19425
1.28
1.36929
1.46024
1.55164
1.64283
1.73357
1.82389
1.91403
2.00431
2.09509
2.18675
2.27966
2.37415
2.47055
2.56913
2.67013
2.77379
2.8803
2.98985
3.10259
3.21867
3.33823
3.4614
3.5883
3.71906
3.85381
3.99269
4.13586
4.28348
4.43576
4.59291
4.75518
4.92287
5.0963
5.27582
5.46185
5.65482
5.85521
6.06352
6.2803
6.50612
6.74158
6.9873
7.2439
7.51199
7.79202
8.08431
8.38886
8.70533
9.0329
9.37025
9.71583
10.0684
10.4277
10.7943
11.1687
11.5503
11.9391
12.3344
12.7362
13.1443
13.5585
13.9785
14.4041
14.8345
15.2686
15.7065
16.1481
16.593
17.0398
17.4882
17.9384
18.3909
18.8456
19.3026
19.7615
20.2222
20.6842
21.1472
21.6108
22.0748
22.5386
23.001
23.4607
23.9165
24.3676
24.813
25.2518
25.6834
26.1069
26.5214
26.9262
27.3205
27.7034
28.0743
28.4324
28.7768
29.1071
29.4224
29.7221
30.0056
30.2724
30.5219
30.7537
30.9673
31.1624
31.3385
31.4955
31.633
31.7508
31.8489
31.9272
31.9855
32.024
32.0427
32.0417
32.0213
31.9815
31.9228
31.8454
31.7496
31.6358
31.5046
31.3563
31.1914
31.0106
30.8142
30.6031
30.3777
30.1386
29.8864
29.6219
29.3459
29.0586
28.7609
28.4539
28.1374
27.8123
27.4809
27.1426
26.7988
26.4502
26.0976
25.742
25.3849
25.0289
24.6784
24.3406
24.0223
23.702
23.3791
23.0535
22.7129
22.3864
22.0647
21.7353
21.4165
21.0939
20.7765
20.4592
20.1571
19.8512
19.5604
19.2625
18.9717
18.6855
18.4156
18.1507
17.9048
17.7005
17.549
17.4666
3.05156
1.38947
1.12167
1.06497
1.074
1.11341
1.17018
1.23793
1.3128
1.39221
1.47439
1.55816
1.64282
1.72805
1.81377
1.9001
1.98728
2.07559
2.16535
2.25687
2.35047
2.44642
2.545
2.64645
2.75097
2.85878
2.97006
3.08498
3.20369
3.32636
3.45313
3.58416
3.7196
3.85961
4.00437
4.15408
4.30892
4.46913
4.63496
4.80668
4.98459
5.16903
5.36033
5.55889
5.76509
5.97935
6.20209
6.43371
6.67464
6.92529
7.18603
7.4572
7.73909
8.03188
8.33561
8.65019
8.97534
9.31062
9.65551
10.0095
10.3721
10.7432
11.1227
11.5106
11.9068
12.3112
12.7237
13.144
13.5719
14.0073
14.4497
14.8989
15.3543
15.8155
16.2822
16.7542
17.2312
17.7124
18.1973
18.6857
19.1776
19.6726
20.1706
20.6712
21.1741
21.6787
22.1846
22.6914
23.1983
23.7048
24.2088
24.7093
25.2055
25.6963
26.1808
26.6581
27.1273
27.5874
28.0376
28.4769
28.9044
29.3194
29.7208
30.1079
30.4799
30.8359
31.1752
31.4971
31.8009
32.0861
32.352
32.5982
32.8241
33.0294
33.2137
33.3767
33.5182
33.6379
33.7358
33.8118
33.8658
33.898
33.9084
33.8972
33.8647
33.811
33.7367
33.6419
33.5271
33.3928
33.2395
33.0678
32.8783
32.6714
32.4478
32.2084
31.9538
31.6846
31.4012
31.1049
30.7966
30.4762
30.1444
29.8038
29.4541
29.096
28.7308
28.3588
27.9812
27.5987
27.2121
26.8224
26.4311
26.0398
25.6514
25.2692
24.8956
24.5241
24.1537
23.7843
23.4128
23.0434
22.6776
22.3138
21.9531
21.5944
21.24
20.8892
20.5449
20.2054
19.8737
19.5466
19.2266
18.9134
18.613
18.3263
18.0596
17.8283
17.6425
17.5165
3.37431
1.52601
1.21452
1.13781
1.13353
1.162
1.20884
1.26727
1.33343
1.40484
1.47987
1.55739
1.63672
1.7175
1.79959
1.88302
1.96795
2.05461
2.14326
2.23417
2.32761
2.42385
2.52314
2.6257
2.73176
2.8415
2.95513
3.07282
3.19474
3.32106
3.45195
3.58758
3.72813
3.87378
4.02474
4.18122
4.34344
4.51165
4.68613
4.86714
5.05502
5.25007
5.45264
5.6631
5.8818
6.10912
6.34542
6.59107
6.84639
7.11172
7.38733
7.67349
7.97039
8.27815
8.59683
8.9264
9.26675
9.61773
9.97915
10.3509
10.7327
11.1247
11.5266
11.9385
12.3603
12.7918
13.233
13.6837
14.1436
14.6126
15.0903
15.5765
16.0707
16.5726
17.0817
17.5979
18.1206
18.6494
19.1835
19.7227
20.2665
20.8145
21.3663
21.9214
22.4793
23.0395
23.6012
24.164
24.727
25.2882
25.8464
26.4004
26.9493
27.492
28.0275
28.5547
29.0727
29.5803
30.0765
30.5604
31.0308
31.4868
31.9274
32.3517
32.7587
33.1476
33.5175
33.8676
34.1973
34.5057
34.7924
35.0567
35.2983
35.5165
35.7111
35.8818
36.0283
36.1505
36.2481
36.3213
36.37
36.3943
36.3944
36.3706
36.323
36.2522
36.1584
36.0421
35.9038
35.744
35.5634
35.3627
35.1426
34.9036
34.6462
34.3717
34.081
33.7746
33.4524
33.1167
32.7685
32.4081
32.0362
31.6544
31.2631
30.8633
30.4558
30.0416
29.6214
29.1962
28.7669
28.3344
27.9001
27.4652
27.0317
26.6015
26.1757
25.7528
25.3322
24.9141
24.4973
24.0823
23.6704
23.2622
22.8575
22.4565
22.0604
21.6693
21.2843
20.9057
20.5347
20.1715
19.817
19.4722
19.1405
18.8252
18.5314
18.2695
18.0471
17.8737
3.6009
1.62588
1.28104
1.18829
1.17317
1.19279
1.23165
1.2826
1.34174
1.40667
1.47582
1.54817
1.62304
1.70008
1.77911
1.86012
1.94322
2.02858
2.11642
2.20698
2.3005
2.39722
2.49739
2.60122
2.70893
2.82072
2.93678
3.05731
3.18248
3.31248
3.44749
3.58771
3.73333
3.88455
4.04161
4.20474
4.37417
4.5502
4.73309
4.92315
5.12071
5.32609
5.53965
5.76174
5.99272
6.23296
6.48281
6.74262
7.01273
7.29344
7.58504
7.88778
8.20189
8.52753
8.86484
9.2139
9.57475
9.94742
10.3319
10.7282
11.1364
11.5565
11.9883
12.432
12.8875
13.3546
13.8333
14.3234
14.8247
15.3369
15.8598
16.3931
16.9363
17.4891
18.051
18.6217
19.2006
19.7872
20.3807
20.9807
21.5866
22.1978
22.8137
23.4336
24.057
24.683
25.3108
25.9397
26.5685
27.1944
27.8163
28.4333
29.0441
29.6476
30.2427
30.8282
31.4028
31.9654
32.5148
33.0498
33.5694
34.0723
34.5574
35.0238
35.4705
35.8963
36.3004
36.6819
37.0399
37.3739
37.6831
37.9669
38.2248
38.4565
38.6614
38.8394
38.9901
39.1135
39.2093
39.2778
39.3188
39.3327
39.3196
39.2799
39.2138
39.1219
39.0047
38.8626
38.6963
38.5063
38.2934
38.0587
37.8027
37.5262
37.2293
36.914
36.5815
36.2323
35.8669
35.4868
35.0931
34.6866
34.2681
33.8389
33.3998
32.9517
32.4958
32.0328
31.5637
31.0895
30.6111
30.1295
29.6458
29.1614
28.6776
28.1957
27.7166
27.2404
26.7669
26.2966
25.8291
25.3643
24.9033
24.4467
23.9946
23.5475
23.1062
22.6712
22.243
21.8225
21.4104
21.0077
20.6155
20.2351
19.8692
19.5212
19.1955
18.8999
18.6392
18.4195
3.74249
1.69334
1.32456
1.21933
1.19549
1.2079
1.24027
1.28516
1.33858
1.39819
1.46248
1.53048
1.60156
1.67537
1.75172
1.8306
1.91205
1.99624
2.08335
2.17358
2.26716
2.36433
2.46531
2.57033
2.67959
2.7933
2.91167
3.03489
3.16317
3.29669
3.43567
3.58032
3.73085
3.8875
4.05052
4.22016
4.3967
4.58043
4.77168
4.97076
5.17803
5.39383
5.61855
5.85255
6.09623
6.34997
6.61415
6.88915
7.17532
7.47303
7.7826
8.10433
8.43852
8.78541
9.14524
9.51819
9.90443
10.3041
10.7174
11.1443
11.5851
12.0398
12.5083
12.9908
13.4872
13.9974
14.5214
15.0589
15.6097
16.1736
16.7503
17.3393
17.9404
18.5529
19.1766
19.8107
20.4547
21.1081
21.77
22.4397
23.1165
23.7998
24.4886
25.1823
25.8799
26.5805
27.2833
27.9873
28.6891
29.3871
30.0803
30.7673
31.4469
32.1178
32.7786
33.4279
34.0645
34.6869
35.2939
35.8841
36.4563
37.0092
37.5417
38.0524
38.5404
39.0046
39.4439
39.8573
40.244
40.6032
40.9343
41.2366
41.5097
41.753
41.9663
42.1493
42.3017
42.4235
42.5144
42.5748
42.6047
42.6044
42.5742
42.5144
42.4255
42.3081
42.1629
41.9905
41.7915
41.5663
41.316
41.0422
40.7455
40.4267
40.0865
39.7263
39.3473
38.9504
38.5366
38.107
37.6628
37.2051
36.7349
36.2533
35.7613
35.2601
34.7507
34.2341
33.7112
33.1831
32.6509
32.1154
31.5779
31.0395
30.5014
29.9647
29.4302
28.8985
28.37
27.845
27.3238
26.8064
26.2936
25.786
25.284
24.7882
24.2992
23.8176
23.3441
22.8793
22.4242
21.9798
21.5476
21.1288
20.726
20.3423
19.9815
19.6495
19.3491
19.0845
3.80996
1.73257
1.34837
1.2339
1.20316
1.20972
1.23676
1.27664
1.32534
1.38052
1.44072
1.50501
1.57281
1.64378
1.71774
1.79465
1.87458
1.95763
2.04399
2.13384
2.22741
2.32492
2.42659
2.53265
2.64331
2.7588
2.87932
3.0051
3.13636
3.2733
3.41616
3.56518
3.7206
3.8827
4.05173
4.22801
4.41184
4.60355
4.8035
5.01205
5.22958
5.4565
5.69321
5.94015
6.19773
6.4664
6.74657
7.03869
7.34318
7.66044
7.99088
8.33488
8.69281
9.06502
9.45182
9.85351
10.2704
10.7027
11.1506
11.6143
12.0941
12.59
13.1021
13.6305
14.1752
14.736
15.3129
15.9057
16.5142
17.1379
17.7766
18.4298
19.0971
19.7779
20.4716
21.1776
21.8952
22.6236
23.362
24.1096
24.8655
25.6288
26.3984
27.1735
27.9531
28.7359
29.521
30.3058
31.0867
31.8627
32.6324
33.3945
34.1475
34.8897
35.6197
36.336
37.0371
37.7215
38.3877
39.0343
39.6599
40.2631
40.8426
41.3971
41.9256
42.4268
42.8996
43.3429
43.7557
44.1374
44.4873
44.8048
45.0893
45.3405
45.5581
45.7419
45.8916
46.0071
46.0885
46.136
46.1498
46.1303
46.0779
45.9929
45.8759
45.7278
45.5495
45.3416
45.1049
44.8401
44.5485
44.2311
43.8891
43.5234
43.1351
42.7253
42.2954
41.8465
41.3797
40.8962
40.3974
39.8843
39.3582
38.8201
38.2714
37.7131
37.1464
36.5724
35.9921
35.4066
34.8169
34.2242
33.6296
33.0341
32.4389
31.845
31.2533
30.6645
30.0793
29.4981
28.9215
28.3496
27.7832
27.223
26.6695
26.1232
25.5848
25.0551
24.5346
24.024
23.5244
23.037
22.563
22.104
21.6624
21.2408
20.8427
20.4724
20.1314
19.8228
3.81378
1.74755
1.3556
1.23482
1.19879
1.20063
1.22328
1.25898
1.30371
1.35513
1.41183
1.47293
1.53787
1.60632
1.67812
1.75324
1.83173
1.91371
1.99933
2.08879
2.18231
2.28011
2.38242
2.48947
2.6015
2.71875
2.84144
2.96982
3.10413
3.24463
3.39157
3.54523
3.70588
3.87384
4.04943
4.23298
4.42485
4.62543
4.83512
5.05434
5.28353
5.52314
5.77365
6.03555
6.30932
6.59546
6.89448
7.20687
7.53314
7.87377
8.22925
8.60005
8.98662
9.38939
9.80879
10.2452
10.6989
11.1704
11.6598
12.1675
12.6937
13.2384
13.8019
14.3842
14.9852
15.605
16.2433
16.8999
17.5745
18.2667
18.9761
19.7021
20.4441
21.2015
21.9737
22.7597
23.5589
24.3703
25.193
26.026
26.8682
27.7185
28.5759
29.4391
30.3069
31.178
32.0509
32.9197
33.7834
34.6405
35.4896
36.329
37.1569
37.9716
38.7713
39.5546
40.3196
41.0648
41.7887
42.4895
43.1659
43.8163
44.4395
45.034
45.5987
46.1324
46.634
47.102
47.5356
47.9342
48.297
48.6236
48.9135
49.1663
49.3819
49.56
49.7006
49.8034
49.8687
49.8967
49.888
49.843
49.7622
49.6462
49.4956
49.3114
49.0946
48.8459
48.5663
48.2569
47.9187
47.553
47.1611
46.744
46.303
45.8394
45.3545
44.8496
44.326
43.785
43.2279
42.6561
42.0707
41.4732
40.8647
40.2465
39.6197
38.9856
38.3454
37.7
37.0508
36.3986
35.7448
35.0903
34.4363
33.7839
33.1339
32.4872
31.8444
31.2063
30.5735
29.9464
29.3257
28.7122
28.1063
27.5088
26.9203
26.3416
25.7733
25.2163
24.6715
24.1401
23.6235
23.1233
22.6417
22.181
21.7442
21.3346
20.9525
20.6008
3.76395
1.74202
1.3491
1.22469
1.18484
1.18295
1.20197
1.23417
1.27552
1.32375
1.37746
1.4358
1.49825
1.56451
1.63443
1.70799
1.78523
1.86628
1.95132
2.04052
2.13413
2.23237
2.33549
2.44374
2.55739
2.67669
2.80191
2.93333
3.07123
3.21591
3.36766
3.52681
3.69369
3.86867
4.05212
4.24444
4.44605
4.6574
4.87897
5.11123
5.35472
5.60995
5.87748
6.15787
6.4517
6.75955
7.08199
7.4196
7.77298
8.14268
8.52928
8.93335
9.3554
9.79595
10.2555
10.7345
11.2334
11.7525
12.2922
12.8528
13.4344
14.0374
14.6617
15.3075
15.9746
16.6629
17.3723
18.1024
18.8529
19.6231
20.4125
21.2204
22.0461
22.8888
23.7478
24.6219
25.5104
26.4121
27.326
28.2509
29.1856
30.1288
31.0793
32.0357
32.9966
33.9605
34.9204
35.8744
36.8213
37.7595
38.6873
39.6028
40.5036
41.3879
42.254
43.1
43.9244
44.7253
45.501
46.2499
46.9704
47.6611
48.3204
48.9471
49.5399
50.0979
50.6203
51.1043
51.5498
51.9562
52.323
52.6497
52.936
53.1814
53.386
53.5496
53.6723
53.7541
53.7952
53.7962
53.7574
53.6796
53.5633
53.4093
53.2185
52.9918
52.7303
52.4349
52.1069
51.7473
51.3574
50.9386
50.4921
50.0193
49.5215
49.0002
48.4567
47.8924
47.3088
46.7073
46.0893
45.4562
44.8094
44.1501
43.4799
42.7999
42.1115
41.4159
40.7144
40.008
39.298
38.5855
37.8717
37.1576
36.4444
35.7331
35.0247
34.3201
33.62
32.9253
32.2366
31.5545
30.8798
30.2132
29.5553
28.9067
28.2684
27.6409
27.025
26.4215
25.8316
25.2563
24.697
24.1554
23.6334
23.1332
22.6571
22.2078
21.7849
21.3913
3.66997
1.71943
1.33145
1.20583
1.16353
1.15883
1.17494
1.20425
1.2428
1.28835
1.33956
1.39562
1.45603
1.52052
1.58896
1.66133
1.73772
1.81825
1.90311
1.9925
2.08667
2.18589
2.29042
2.40055
2.51658
2.63881
2.76757
2.90317
3.04595
3.19627
3.35449
3.52101
3.69622
3.88057
4.0745
4.27849
4.49306
4.71872
4.95605
5.20562
5.46803
5.74393
6.03394
6.33874
6.65899
6.99535
7.34849
7.71907
8.10773
8.51514
8.94195
9.38878
9.85623
10.3449
10.8552
11.3878
11.943
12.5213
13.1229
13.7482
14.3974
15.0705
15.7676
16.4888
17.2337
18.0023
18.7942
19.6091
20.4464
21.3054
22.185
23.0845
24.003
24.9396
25.8933
26.863
27.8475
28.8457
29.8563
30.8781
31.9096
32.9494
33.9961
35.0481
36.1041
37.1557
38.2003
39.2364
40.2625
41.2767
42.2777
43.2634
44.2297
45.1756
46.0992
46.9988
47.8725
48.7186
49.5353
50.321
51.074
51.7928
52.4761
53.1225
53.7308
54.2999
54.8288
55.3161
55.7611
56.1632
56.522
56.8369
57.1079
57.3346
57.5171
57.6555
57.7498
57.8003
57.8074
57.7717
57.6938
57.5744
57.4143
57.2145
56.9758
56.6994
56.3865
56.0382
55.6557
55.2404
54.7937
54.3169
53.8115
53.279
52.7207
52.1383
51.5332
50.907
50.2611
49.597
48.9163
48.2204
47.5108
46.7888
46.0561
45.3138
44.5633
43.806
43.043
42.2757
41.5053
40.7328
39.9595
39.1865
38.4149
37.6458
36.8801
36.1187
35.3626
34.6126
33.8695
33.1338
32.4065
31.6881
30.9795
30.2813
29.5942
28.9192
28.2568
27.6081
26.974
26.3557
25.7545
25.1721
24.6103
24.0709
23.556
23.0676
22.6048
22.1706
3.54092
1.68289
1.30493
1.18033
1.13689
1.13032
1.14429
1.17138
1.20775
1.25125
1.30059
1.355
1.41402
1.47741
1.54506
1.617
1.69331
1.77415
1.85974
1.95032
2.04616
2.14757
2.25487
2.36839
2.4885
2.61556
2.74996
2.8921
3.0424
3.2013
3.36925
3.54675
3.73428
3.93239
4.14163
4.36259
4.59588
4.84215
5.10205
5.3763
5.6656
5.97068
6.29232
6.63127
6.98832
7.36424
7.75975
8.1755
8.61222
9.07063
9.55144
10.0553
10.5828
11.1346
11.7111
12.3128
12.9402
13.5935
14.273
14.9788
15.7112
16.47
17.2551
18.0664
18.9036
19.7663
20.654
21.5662
22.5026
23.462
24.4423
25.4427
26.4625
27.5005
28.5555
29.6262
30.7114
31.8097
32.9197
34.04
35.1691
36.3055
37.4476
38.5933
39.7326
40.8635
41.9841
43.0925
44.1867
45.2649
46.3251
47.3651
48.3823
49.3747
50.3404
51.2775
52.1842
53.0588
53.8994
54.7046
55.4726
56.2022
56.8919
57.5405
58.1468
58.7099
59.2288
59.7026
60.1305
60.5121
60.847
61.1349
61.3756
61.5692
61.7156
61.8153
61.8684
61.8753
61.8367
61.7532
61.6255
61.4546
61.2413
60.9867
60.6919
60.3582
59.9868
59.579
59.1362
58.6598
58.1513
57.6122
57.044
56.4483
55.8267
55.1807
54.5119
53.822
53.1125
52.3849
51.6409
50.8819
50.1095
49.3252
48.5304
47.7265
46.915
46.0971
45.2742
44.4476
43.6183
42.7877
41.9569
41.1271
40.2993
39.4746
38.6541
37.8386
37.0291
36.2265
35.4315
34.6449
33.8675
33.0999
32.3431
31.5976
30.8643
30.144
29.4374
28.7454
28.0692
27.4098
26.7685
26.1469
25.5467
24.9695
24.417
23.8909
23.3899
22.9172
3.38516
1.63513
1.27153
1.15005
1.10685
1.09947
1.11223
1.13801
1.17311
1.21549
1.26394
1.31773
1.37646
1.43993
1.50808
1.58096
1.65871
1.74152
1.82966
1.92344
2.02318
2.12927
2.24207
2.36203
2.48957
2.62519
2.76937
2.92263
3.08551
3.25857
3.44241
3.63762
3.84488
4.06483
4.29818
4.54566
4.80803
5.08605
5.38054
5.6923
6.02219
6.37105
6.73974
7.12915
7.54017
7.97376
8.43073
8.91122
9.41616
9.94631
10.5023
11.0849
11.6944
12.3314
12.9963
13.6895
14.411
15.1611
15.9399
16.7472
17.5829
18.4469
19.3387
20.2578
21.2037
22.1758
23.1732
24.1952
25.2407
26.3085
27.397
28.5051
29.6314
30.7745
31.9332
33.1059
34.2912
35.4877
36.6939
37.9084
39.1294
40.3564
41.583
42.8004
44.0068
45.2002
46.3786
47.5399
48.682
49.803
50.9007
51.973
53.0178
54.0329
55.0165
55.9668
56.8819
57.7602
58.6001
59.4
60.1587
60.8746
61.5468
62.174
62.7552
63.2897
63.7765
64.2152
64.605
64.9457
65.2371
65.4789
65.6712
65.8142
65.9081
65.9533
65.9503
65.8995
65.8018
65.658
65.4689
65.2355
64.959
64.6404
64.2811
63.8823
63.4455
62.972
62.4633
61.9209
61.3464
60.7414
60.1075
59.4463
58.7594
58.0485
57.3152
56.5612
55.7882
54.9976
54.1911
53.3703
52.5367
51.6918
50.8371
49.9741
49.1041
48.2286
47.3487
46.4658
45.5811
44.6958
43.8111
42.9281
42.0479
41.1716
40.3001
39.4344
38.5756
37.7243
36.8815
36.0479
35.2243
34.4115
33.6102
32.8212
32.0452
31.2831
30.5356
29.8037
29.0884
28.3908
27.7122
27.054
26.4178
25.8051
25.2173
24.6557
24.1189
23.6103
3.20447
1.57673
1.23177
1.11573
1.07443
1.06771
1.08066
1.10655
1.14189
1.18476
1.23406
1.28914
1.34967
1.41551
1.48667
1.56327
1.64552
1.7337
1.82816
1.92932
2.03763
2.15362
2.2777
2.41045
2.55249
2.70447
2.86706
3.04096
3.22689
3.42562
3.63794
3.86467
4.10665
4.36474
4.63984
4.93287
5.24473
5.57638
5.92875
6.30277
6.69939
7.11953
7.56408
8.03393
8.5299
9.0528
9.60327
10.1818
10.7891
11.4255
12.0916
12.7876
13.5139
14.2706
15.0577
15.8753
16.7231
17.601
18.5086
19.4455
20.4112
21.4049
22.426
23.4736
24.5467
25.6443
26.7654
27.9086
29.0727
30.2562
31.4575
32.6753
33.9079
35.1539
36.4117
37.6799
38.9569
40.2415
41.5318
42.8276
44.1248
45.4131
46.6885
47.949
49.1926
50.4172
51.6209
52.8015
53.9572
55.0859
56.1857
57.2546
58.2907
59.2922
60.2573
61.1843
62.0717
62.918
63.7218
64.4817
65.1966
65.8655
66.4872
67.0609
67.5859
68.0614
68.487
68.8622
69.1867
69.4603
69.683
69.8547
69.9758
70.0465
70.0672
70.0385
69.9609
69.8353
69.6625
69.4433
69.1789
68.8704
68.5188
68.1256
67.692
67.2194
66.7092
66.1631
65.5824
64.9689
64.324
63.6494
62.9468
62.2178
61.4641
60.6874
59.8893
59.0714
58.2354
57.3829
56.5155
55.6349
54.7424
53.8396
52.9281
52.0092
51.0843
50.1547
49.2218
48.2868
47.351
46.4154
45.4813
44.5497
43.6218
42.6986
41.781
40.8701
39.9666
39.0716
38.1859
37.3101
36.4451
35.5917
34.7506
33.9225
33.1082
32.3086
31.5244
30.7565
30.006
29.2738
28.5614
27.8699
27.2008
26.5556
25.9353
25.3412
24.7716
24.2303
3.04254
1.52155
1.19342
1.08368
1.046
1.04201
1.0575
1.0861
1.12455
1.17108
1.22469
1.28486
1.35136
1.42416
1.50341
1.58933
1.6823
1.78275
1.89118
2.00821
2.13447
2.27067
2.41755
2.57594
2.74671
2.93077
3.12909
3.34265
3.5725
3.81969
4.08529
4.37041
4.67615
5.00361
5.35391
5.72812
6.1273
6.55247
7.00463
7.48468
7.9935
8.53187
9.10051
9.70003
10.3309
10.9937
11.6885
12.4155
13.1749
13.9665
14.7902
15.6459
16.533
17.4513
18.4001
19.3789
20.3867
21.423
22.4866
23.5767
24.6923
25.8321
26.995
28.1798
29.3851
30.6096
31.8518
33.1104
34.3839
35.6706
36.969
38.2777
39.5951
40.9197
42.2501
43.5853
44.9232
46.2646
47.6045
48.9326
50.244
51.5378
52.8118
54.0642
55.2931
56.4967
57.6731
58.8206
59.9374
61.0217
62.072
63.0866
64.0638
65.0022
65.9003
66.7566
67.57
68.3392
69.063
69.7405
70.3707
70.9528
71.4861
71.9698
72.4036
72.7869
73.1195
73.4012
73.6318
73.8113
73.94
74.0179
74.0456
74.0234
73.9519
73.8317
73.6637
73.4486
73.1874
72.8812
72.531
72.138
71.7035
71.2288
70.7153
70.1644
69.5776
68.9564
68.3023
67.617
66.902
66.1589
65.3895
64.5953
63.778
62.9392
62.0805
61.2036
60.3101
59.4015
58.4794
57.5454
56.6009
55.6473
54.6862
53.719
52.7468
51.7712
50.7932
49.8142
48.8353
47.8576
46.8823
45.9104
44.943
43.981
43.0255
42.0773
41.1373
40.2064
39.2854
38.3751
37.4762
36.5895
35.7157
34.8556
34.0098
33.1792
32.3646
31.5669
30.787
30.026
29.2851
28.5655
27.8684
27.1953
26.5471
25.9248
25.3269
24.7573
2.89734
1.46697
1.15779
1.05714
1.02618
1.02843
1.05041
1.08606
1.13236
1.18774
1.2514
1.323
1.40251
1.49013
1.58622
1.69128
1.80594
1.93093
2.0671
2.21537
2.37677
2.55239
2.74343
2.95111
3.17676
3.42173
3.68743
3.97527
4.28668
4.62309
4.98589
5.37644
5.79604
6.2459
6.72716
7.24081
7.78776
8.36875
8.98439
9.63512
10.3213
11.0429
11.8001
12.5925
13.42
14.2819
15.1777
16.1065
17.0675
18.0597
19.082
20.1334
21.2125
22.3183
23.4493
24.6042
25.7817
26.9804
28.1988
29.4357
30.6895
31.959
33.2426
34.539
35.8467
37.1645
38.4909
39.8245
41.164
42.5082
43.8555
45.2046
46.5555
47.9055
49.2535
50.603
51.9441
53.2675
54.5702
55.8518
57.1104
58.3445
59.5527
60.7334
61.885
63.0062
64.0953
65.151
66.1719
67.1566
68.1039
69.0123
69.8807
70.7079
71.4928
72.2342
72.9312
73.583
74.1885
74.7472
75.2583
75.7212
76.1355
76.5008
76.8166
77.0829
77.2995
77.4664
77.5837