/*--------------------------------*- C++ -*----------------------------------*\
  =========                 |
  \\      /  F ield         | OpenFOAM: The Open Source CFD Toolbox
   \\    /   O peration     | Website:  https://openfoam.org
    \\  /    A nd           | Version:  7
     \\/     M anipulation  |
\*---------------------------------------------------------------------------*/
FoamFile
{
    version     2.0;
    format      ascii;
    class       surfaceScalarField;
    location    "20";
    object      phi;
}
// * * * * * * * * * * * * * * * * * * * * * * * * * * * * * * * * * * * * * //

dimensions      [0 3 -1 0 0 0 0];

internalField   nonuniform List<scalar> 
1300
(
3.75095
5.62643
-2.64266
3.75095
-2.74452
5.62643
-2.05971
2.05971
-0.465826
0.465826
1.90728
1.84367
-1.23989
1.23989
-1.66068
1.66068
-0.981662
0.981662
-3.87943
3.87943
-3.16236
3.16236
2.06338
-2.06338
-1.83169
1.83169
-0.556262
0.556262
-1.62005
1.62005
1.95005
-1.95005
-1.91172
1.91172
-0.746482
0.746482
-1.50156
5.25251
2.2494
2.2494
-0.847846
0.847846
-3.57141
3.57141
4.63404
-4.63404
5.42853
-5.42853
-2.78587
-3.35086
1.07695
-7.58203
-1.66757
-1.66757
-8.391
8.391
-2.76457
2.86186
1.12764
-1.12764
-0.375042
0.375042
-1.9054
-0.154312
-1.9054
2.12551
-0.0657993
2.12551
-0.507291
0.0414652
-0.507291
1.57168
-1.57168
0.443377
0.0224493
0.443377
1.25331
-1.25331
-1.90757
3.81485
1.84338
-1.75651
7.00902
-1.99444
3.83811
-2.28975
2.28975
-1.24956
0.00966466
-1.24956
1.2446
-0.00471411
1.2446
-2.1214
2.1214
-1.48812
-0.17256
-1.48812
1.75693
-0.0962509
1.75693
1.18649
-1.18649
-0.990536
0.00887401
-0.990536
0.943365
0.0382969
0.943365
1.36027
4.26616
-6.98669
9.84855
-4.26616
0.386739
3.48672
0.392711
3.48672
-3.14852
-0.0138329
-3.14852
3.25824
-0.0958879
3.25824
1.83733
0.226046
1.83733
-2.37442
0.311044
-2.37442
-4.50445
-4.59771
-1.88065
0.048959
-1.88065
-0.556033
-0.000229371
-0.556033
0.567608
-0.0113463
0.567608
-1.53568
1.53568
-1.81896
0.198909
-1.81896
1.51798
0.432075
1.51798
1.6494
2.10156
5.40035
-5.40035
3.4503
-1.78739
-0.124329
-1.78739
-2.02064
-3.40789
2.02064
-0.108923
-0.504173
-0.242309
-0.504173
1.77718
0.472218
1.77718
0.911907
0.0314582
-0.911907
0.0640604
1.47945
-1.47945
0.518253
0.329593
0.518253
-3.51896
3.51896
3.37977
-0.121522
-3.37977
-0.191647
4.42924
0.204796
4.42924
-4.7844
0.15036
-4.7844
4.02515
-7.37601
-4.1982
1.73926
0.0924295
-1.73926
0.0716928
1.15672
-0.0290776
1.15672
-1.08204
1.08204
-1.16731
0.0396746
-1.16731
-0.323214
-0.0518287
-0.323214
0.438941
-0.063899
0.438941
-1.81215
-0.0932521
-1.81215
-2.05072
0.231754
2.05072
0.0747971
0.630687
-0.630687
-0.540933
0.0336421
-0.540933
-1.67189
-0.140259
1.67189
-0.100207
-1.55552
-0.016165
-1.55552
-1.1952
0.0278821
1.1952
0.0581156
1.45047
0.326706
-1.45047
0.197159
-1.77254
3.8741
-1.97841
3.82179
-2.10777
-0.181986
-2.10777
2.37259
-0.0828349
2.37259
1.42509
0.194961
-1.42509
0.175537
1.33386
-0.0892522
1.33386
-2.15719
0.0357894
-2.15719
2.00509
0.11631
2.00509
1.40501
-0.0711582
-1.40501
-0.0831044
1.76966
-0.0127312
1.76966
1.19191
-0.0054175
1.19191
-1.15015
-0.0363406
-1.15015
1.05584
-1.05584
1.03392
0.0219227
-1.03392
0.0433829
-14.4245
14.5749
-0.189908
-14.2346
3.29681
3.29681
1.09337
0.74396
1.09337
-2.67858
0.304154
-2.67858
4.42528
-8.62348
4.5691
-9.07355
3.87749
-11.4595
4.28697
-8.88468
1.99408
-1.99408
1.974
0.0200743
-1.974
0.0933523
-0.542219
-0.0138132
-0.542219
-1.37415
-0.161534
-1.37415
1.7599
-0.224218
1.7599
-1.20415
1.20415
-1.31368
0.109532
1.31368
0.204296
1.78628
-0.0166182
-1.78628
-0.00110838
0.43416
0.00921717
-0.43416
-0.070013
1.55187
-0.0724253
1.55187
-1.31864
-0.160804
-1.31864
-0.536468
-0.00575118
0.536468
-0.0182154
-3.84975
0.330798
-3.84975
-14.1269
-0.107672
-13.7342
-4.89207
-4.89207
3.49893
13.3475
-1.16209
0.011941
1.16209
-0.00537617
1.14425
0.0598989
-1.14425
0.0622152
-1.07392
0.0180759
1.07392
0.0081191
-0.377568
0.0543542
-0.377568
-0.508274
0.508274
-0.457478
-0.0507962
0.457478
-0.0185363
0.685307
-0.0546207
0.685307
0.559486
0.00812193
-0.559486
0.0185527
-1.59792
0.0423961
-1.59792
2.33618
0.0364055
2.33618
-1.27357
-0.0450785
1.27357
-0.0816553
-0.100887
14.6758
-3.19592
0.0473966
3.19592
-14.8806
14.928
-0.54553
0.167962
0.54553
0.547841
3.11799
0.400966
-3.11799
0.439414
1.99828
0.00681716
-1.99828
0.00420115
-1.13773
-0.236414
-1.13773
-1.91938
-0.188384
1.91938
-0.159487
-15.0746
-0.323087
15.3977
-15.1705
4.17284
0.256402
-4.17284
15.1844
-0.58902
-0.0416663
0.58902
-0.0807465
0.869976
-0.184668
0.869976
1.62402
-0.0721511
-1.62402
0.0261092
-2.28583
0.128635
2.28583
0.0503544
-0.981054
-0.156677
0.981054
-0.111078
-4.37026
4.84248
2.63876
-3.53255
-3.84346
-6.94045
1.4252
2.4489
4.8755
-6.27998
-5.17954
-6.20829
8.83982
-8.4004
-9.20421
9.43026
7.64178
-7.65794
-6.10098
6.30527
6.8511
-6.79298
1.90602
1.90884
8.12524
-8.11558
-12.2843
12.1023
8.67188
-8.84444
11.874
-11.8382
-13.5082
13.515
-5.43144
5.44032
-6.6658
6.62946
-6.90197
6.82031
-4.43418
-4.63937
8.69198
-8.64303
11.5051
-11.6295
-9.35734
9.55624
3.33424
1.50824
3.66095
-2.1132
4.01922
-1.72491
4.36367
4.40174
-8.83592
4.22173
-8.06519
5.31456
6.19058
-5.20563
-1.73481
-5.91129
5.88221
-5.70337
5.71149
9.15944
-9.31375
-2.08991
3.99874
-1.73188
4.18078
-3.77058
-2.3304
3.3385
1.53699
4.7795
3.91248
-4.87193
-1.33636
-8.06893
7.99678
-8.39106
8.23026
0.0591907
7.35672
-7.41591
3.6306
-2.51613
9.87285
6.32368
6.62784
7.40237
-7.0014
0.998037
-8.41395
-8.60559
-1.97481
2.00845
1.94671
-1.92426
5.51872
2.12306
5.41851
-5.39435
-2.26359
-5.35195
3.72996
2.57531
3.83949
3.95182
2.89928
3.9797
3.50941
-3.49993
-0.00948462
-3.8862
7.39561
0.498817
-6.2166
-4.6796
4.60963
3.51561
4.60492
-5.1055
-3.01008
-4.92996
-6.61479
-5.66948
-6.80317
7.22496
4.87733
7.14212
-8.57183
8.62219
5.40822
3.26366
5.31197
-4.9663
-3.87814
-5.0494
14.3774
-3.10223
-11.2752
-7.01217
-6.49599
6.89586
4.97811
7.50086
6.01412
7.50506
4.48494
9.89247
-9.46304
2.96705
-3.3211
-2.11034
-3.27772
3.15976
2.28056
3.19806
-3.85037
-2.81543
-3.83843
-3.91874
-2.98323
3.92416
2.7053
-4.09289
-4.29817
4.13797
2.68234
4.0367
-9.21624
4.84798
-9.48735
-5.75732
-2.88571
-5.66396
5.62854
3.57776
-9.2063
-3.20738
13.0074
-6.8168
11.2726
-6.35864
-5.27083
-6.35975
-6.99728
-2.36006
-6.76552
-5.10631
4.86989
-5.47684
5.25262
15.4262
-8.37176
-7.05442
-4.05498
-2.738
3.85782
-0.196876
-4.35075
4.34126
-0.331526
4.03214
5.54038
5.34351
-3.55681
-2.14656
-3.49459
3.39356
2.31793
3.41164
6.85658
2.30286
6.79078
-6.04844
-3.26531
-6.14169
4.79196
-4.84379
2.04974
-2.05549
5.07225
3.15801
-4.99982
-3.06911
7.72604
-3.60725
-4.1188
-13.9765
11.3189
2.65755
-4.10364
-0.473035
0.273447
-5.73329
-3.47092
5.42225
1.20559
12.5245
9.05362
-7.13937
7.47016
8.25835
8.13683
-0.468763
3.22184
-3.05387
5.78759
-3.10711
-2.68048
4.71904
-4.8593
-1.42266
-6.33409
4.91143
0.559214
1.24145
-1.48376
-1.45476
-0.520042
-1.43621
1.20439
0.742319
1.2136
0.744021
1.26443
-2.91262
0.618364
2.29426
-2.1686
-1.30589
-4.35682
-1.90175
6.25857
5.41129
2.58549
-5.4374
0.0854421
1.93498
-1.94633
-0.494039
-3.86278
2.89963
-3.39367
-5.02018
-2.13137
7.15155
-3.12615
-0.368444
3.06625
0.773239
-3.54691
-2.36438
3.50724
0.472466
-4.04155
8.09423
-4.05268
-6.18811
2.87913
4.51648
5.45444
-6.06694
3.16173
2.90521
-1.55046
3.94729
0.65763
3.85803
-9.72031
6.71022
5.7115
3.84475
-5.90646
0.976498
-8.74381
13.2301
-11.3718
-1.85831
6.90444
6.32567
7.7543
7.67188
-5.08258
12.8369
-1.43249
-9.9393
10.1763
-6.33155
7.48422
-13.8158
-15.1561
5.21679
-10.2003
11.9622
-1.7619
-2.73419
-5.83764
12.9345
-1.34089
-11.5936
5.80123
-7.68289
-6.12511
13.808
-10.7851
10.0033
-3.6713
-6.33196
-6.95033
-4.88785
6.82169
1.80049
-13.3668
16.3339
-3.47436
4.61175
0.70022
4.59902
5.93145
-8.33177
2.40032
4.85368
-8.52497
4.02729
-12.3591
-6.23519
12.5497
-6.31452
-9.1209
-8.14539
-0.97551
2.46887
13.865
-8.48299
6.28422
2.19877
2.81655
0.595087
-2.83847
-0.439249
0.370112
5.43703
-5.80714
3.56817
3.59963
4.03658
1.40045
3.52755
2.35466
-3.52218
-0.316251
-4.89554
1.91231
-2.19024
-4.81775
6.73006
-5.43009
0.612338
-3.41343
-4.73593
8.14937
-5.52377
3.87364
4.22059
6.19157
-6.5908
1.85487
-3.30689
-3.2839
3.57522
-5.76546
2.47081
4.25925
5.15315
0.854982
6.56457
5.98514
-10.1423
0.65497
9.89763
-8.56127
2.01117
5.49389
-8.29538
0.149998
-5.51397
1.46173
-8.27853
-7.74457
7.13197
-9.49202
-6.68381
6.16619
0.62459
-6.24099
-0.524534
-3.07943
-2.02688
-3.2361
-2.03278
-3.44406
-7.11535
-1.2643
-5.85106
3.6056
-4.07792
-2.72525
4.23741
1.01521
-3.29606
3.25439
-3.63029
3.44562
-0.076639
4.4179
5.26687
2.52887
-2.86744
5.39631
-6.54997
8.85283
-10.8811
4.33109
4.78257
-8.04789
-6.09849
2.2255
2.56646
2.1616
9.48458
-12.404
2.91939
-10.4363
11.7237
-1.28741
-15.0977
4.66136
-5.61309
1.87971
0.17003
1.8659
0.534295
2.3489
-2.8832
-1.5212
-1.53941
-2.98757
-4.5447
7.53227
1.61536
-4.34309
2.72773
-4.13824
5.7536
0.0822937
-4.42538
5.83721
-3.48831
6.00724
-4.05594
1.9513
4.23774
7.41295
-3.17522
5.33692
-2.17891
2.27689
-5.4521
-2.26781
-3.82765
6.10821
-4.32172
4.93406
-0.301064
5.23512
-4.68085
1.0736
-0.644273
2.95536
3.01942
5.58124
-4.18079
3.98966
-6.16857
-1.46245
-5.31358
-1.05433
-2.46765
-6.04334
8.51099
7.48436
-9.95202
-5.15136
9.25077
-4.09941
6.71896
-5.14723
-1.57173
-1.92102
-2.92277
1.86667
1.35517
8.07413
-0.224385
-4.92284
-3.27826
-2.73042
3.71333
2.07425
-2.21703
4.87458
1.94359
-0.702142
0.226923
0.986681
1.73661
-1.50969
0.567088
1.16952
-0.916668
1.40977
0.525214
-1.41789
-0.0183228
-1.07916
3.97879
1.2151
-1.95742
0.447729
1.13434
-4.24145
6.09833
-3.29981
-2.79852
7.23267
1.2743
-4.57411
5.05979
-4.50058
2.70802
-4.60978
-1.86609
-6.36666
-4.2436
-3.54261
6.27034
-3.98966
6.57515
1.25016
-6.66059
7.91075
-4.32344
2.19207
-3.3008
3.82601
-1.43016
-1.87064
3.72758
3.42397
-3.64502
-0.217754
0.082556
2.8913
-2.80875
-0.502367
-2.67097
-5.48867
5.96113
-2.80691
5.96864
2.58939
-2.57634
8.54498
2.23218
-4.80852
-3.95593
-4.32438
-1.9033
3.55114
-1.1453
-3.9041
-7.47726
3.97526
-0.117227
-9.6538
11.4345
-1.78073
-6.13819
-0.572031
7.47647
-9.74181
1.21684
-5.71452
5.72002
6.37765
6.26042
-11.713
0.119351
-6.83564
1.98021
-8.81585
8.30587
-4.18349
9.40029
-9.6686
6.94335
-8.65339
7.54198
-1.27387
7.69721
-5.29689
3.57796
-8.46582
-6.66532
7.99172
-4.72806
8.69194
-5.60559
14.2975
-9.07995
8.12471
6.17282
-1.55171
-4.80804
-7.89906
6.34735
0.225644
4.82466
5.92786
-3.5732
5.61161
2.96928
-6.27618
-2.79618
-8.73645
2.46027
-4.51586
-2.45148
4.91176
3.74009
4.33517
1.62785
-3.89592
9.2404
-10.2159
-2.92588
-4.81869
8.15037
-1.80301
5.39899
-10.2177
-2.87954
7.8883
-1.12064
-6.76765
0.483463
-7.16727
2.97169
-10.139
6.52033
-7.04487
1.13425
-6.74735
-2.16181
-2.24255
-1.49066
-2.13962
-5.72151
4.23084
-1.06015
2.19424
-8.57466
7.45402
-3.14906
7.3799
-2.527
-0.709104
2.63808
0.80754
8.18744
-0.288817
-5.80967
-1.99989
6.07517
-4.07529
1.71345
-6.33216
-0.256984
2.99925
4.23342
-7.91069
-0.137197
-5.94687
-3.30064
5.86711
5.95012
13.4345
1.03052
6.38873
-0.521625
7.41925
1.63998
1.62144
-5.31673
8.23612
3.19426
7.52535
-0.654
2.6053
1.2119
1.21167
0.734659
1.9854
1.03401
3.059
0.175805
-1.36361
4.81596
-7.54638
-0.106882
-6.80242
2.62784
6.72798
-4.10014
4.73792
-2.66367
0.662636
-0.105562
-1.32646
1.43202
-2.78604
-2.0286
-0.859074
-1.986
2.43373
1.99279
-1.57466
-1.21138
0.696851
-4.94045
3.91292
-4.13068
-0.706704
7.20404
-3.27436
0.465616
-1.08229
-2.20535
-2.72539
2.74372
8.20225
0.342733
4.14957
6.30387
3.93949
0.366291
6.88405
-8.64595
-5.47501
-8.5266
-0.220723
7.25575
3.0457
10.8193
9.21853
7.41551
-2.80217
-13.0181
10.7931
-2.55702
9.50573
-2.73808
-7.40088
6.13315
2.71967
-6.75774
-0.287124
-7.688
-10.245
-0.616841
8.07086
-7.5706
6.8615
4.83462
1.01644
-1.69056
-0.551994
1.74135
-0.119913
7.29934
-2.17046
-8.59641
10.7669
-4.55752
4.45063
2.43609
2.43849
3.86811
1.20444
-7.39197
-11.4921
-2.66157
-1.57988
-5.46009
0.798476
-2.79126
6.64117
-2.19054
5.06944
8.57633
9.23897
-3.41057
-6.54145
7.50997
-2.44054
6.79843
)
;

boundaryField
{
    wall-4
    {
        type            calculated;
        value           uniform 0;
    }
    velocity-inlet-5
    {
        type            calculated;
        value           uniform -3.75095;
    }
    velocity-inlet-6
    {
        type            calculated;
        value           uniform -5.62643;
    }
    pressure-outlet-7
    {
        type            calculated;
        value           nonuniform List<scalar> 8(2.64266 2.74452 6.13673 6.50508 9.10216 8.22335 8.99438 8.16446);
    }
    wall-8
    {
        type            calculated;
        value           uniform 0;
    }
    frontAndBackPlanes
    {
        type            empty;
        value           nonuniform 0();
    }
}


// ************************************************************************* //
