/*--------------------------------*- C++ -*----------------------------------*\
  =========                 |
  \\      /  F ield         | OpenFOAM: The Open Source CFD Toolbox
   \\    /   O peration     | Website:  https://openfoam.org
    \\  /    A nd           | Version:  7
     \\/     M anipulation  |
\*---------------------------------------------------------------------------*/
FoamFile
{
    version     2.0;
    format      ascii;
    class       volVectorField;
    location    "20";
    object      U;
}
// * * * * * * * * * * * * * * * * * * * * * * * * * * * * * * * * * * * * * //

dimensions      [0 1 -1 0 0 0 0];

internalField   nonuniform List<vector> 
918
(
(0.813494 -0.0529581 0)
(0.134464 2.47694 0)
(0.0544635 0.656992 0)
(0.756262 0.0535041 0)
(-0.0117026 0.687307 -1.88292e-19)
(-0.136691 2.25728 -2.71605e-17)
(0.250161 0.426737 -9.01977e-19)
(0.109222 0.0589697 -5.17299e-20)
(1.00266 -0.00704487 0)
(-0.00420047 0.248976 0)
(-0.0129464 0.344671 0)
(0.207468 0.00118589 0)
(0.117394 1.74038 0)
(0.00852348 1.30132 0)
(-0.00568947 1.04086 -1.29618e-18)
(-0.000877821 0.413116 -1.66506e-19)
(0.120447 0.0287849 3.80773e-18)
(0.0462483 0.370866 -4.39546e-19)
(0.476468 0.0500293 0)
(-0.0138157 0.401244 0)
(0.238806 0.12446 -1.74086e-18)
(1.02784 -0.139895 0)
(0.959582 -0.177516 0)
(0.589244 -0.066616 0)
(0.183193 0.0116583 0)
(-0.0149292 1.47444 0)
(-0.0469624 1.72797 8.37027e-18)
(-0.0161072 0.846731 0)
(0.0383147 1.64712 0)
(0.0563302 1.02358 0)
(-0.0114801 1.6913 0)
(0.0162348 0.911849 1.47312e-19)
(0.0141246 0.367274 0)
(-0.320951 2.70296 -1.01707e-21)
(-0.310509 3.10884 2.3468e-17)
(-0.0130235 3.04129 0)
(0.241046 -0.000660275 0)
(0.0664626 0.0840491 5.45236e-19)
(0.435232 0.704831 1.97796e-18)
(0.278673 0.358978 -1.60813e-18)
(0.381575 0.795177 1.86964e-19)
(0.214455 0.46819 -9.23477e-19)
(0.215093 0.11506 5.21166e-20)
(0.114432 0.057675 0)
(0.318805 0.197369 0)
(0.214334 0.11731 2.32847e-19)
(0.110436 0.0637948 -2.31341e-19)
(0.275239 -0.0145682 0)
(1.01042 -0.000283481 0)
(1.00278 0.0066653 0)
(1.0749 -0.154084 0)
(1.01612 -0.028019 0)
(1.01126 -0.0177315 0)
(0.00713457 0.528525 -2.38267e-18)
(-0.015209 0.51621 0)
(0.00417774 0.252922 0)
(-0.0137413 0.511873 0)
(-0.00859794 0.250655 0)
(-0.00280565 0.463554 0)
(-0.0349721 0.647926 0)
(-0.0101547 0.304233 0)
(-0.0178325 0.694331 0)
(-0.00559306 0.374176 0)
(0.255344 0.00300339 0)
(0.399371 -0.00126029 0)
(0.209852 0.00286818 0)
(0.389096 0.00475831 0)
(0.199077 0.00210799 0)
(0.345186 2.93893 1.07003e-17)
(0.284413 3.23577 0)
(0.225159 3.03561 0)
(0.211121 2.70618 1.15396e-22)
(0.138778 2.12556 -1.50396e-17)
(0.177551 2.49081 0)
(0.0775995 1.54064 0)
(0.0169612 2.2585 1.58864e-23)
(0.0180403 1.30086 0)
(-0.0620881 2.29134 0)
(-0.0450798 1.32063 0)
(0.0255579 1.76487 0)
(-0.0101511 1.17208 0)
(0.0122542 1.89921 1.31111e-18)
(0.00340764 1.09371 0)
(-0.0201119 2.42859 0)
(0.00622626 0.777579 1.68504e-19)
(-0.00408807 0.416399 -2.1545e-19)
(0.241495 0.0560145 -1.34756e-18)
(0.122513 0.0240248 -1.28799e-18)
(0.244256 0.0652384 -4.05313e-18)
(0.121852 0.0367849 -2.56139e-18)
(0.0491485 0.371816 0)
(0.111683 0.714549 4.23931e-19)
(0.108171 0.422924 -6.67703e-19)
(0.656919 0.0840164 0)
(0.346383 0.0354197 0)
(1.00992 0.041746 0)
(1.02762 0.158985 0)
(0.935623 0.139934 -1.67778e-17)
(0.850087 0.134914 1.25771e-17)
(-0.0294331 0.750592 0)
(-0.00192789 0.376165 0)
(-0.00641124 1.15404 0)
(-0.0296435 0.798408 0)
(-0.0301024 0.394235 0)
(0.401485 0.138625 5.99353e-19)
(0.173663 0.0895827 0)
(0.742561 -0.0932456 0)
(0.411901 -0.0416732 0)
(0.376303 0.00306549 0)
(0.35999 0.00745255 0)
(0.190488 0.00216117 0)
(0.325956 0.0172344 0)
(0.295501 0.0221319 0)
(0.126027 0.00959822 5.90394e-18)
(-0.0213935 1.34845 4.33458e-18)
(-0.0513835 2.42583 0)
(-0.0728397 2.51282 0)
(-0.0189681 1.35868 0)
(-0.0666375 2.63614 7.68646e-18)
(-0.0345591 1.62917 0)
(-0.103451 2.69816 -2.52356e-17)
(-0.0733535 1.81722 8.45398e-18)
(0.0271189 1.99787 0)
(0.0208186 2.19315 0)
(-0.0063079 0.75636 -3.57233e-21)
(-0.00456626 0.732901 0)
(-0.00405988 0.400511 0)
(0.458569 0.0108703 0)
(0.246307 0.00474717 0)
(0.231363 0.00317679 0)
(0.458293 -0.00866671 0)
(0.250143 -0.00253905 0)
(0.216464 0.246524 -7.34109e-19)
(0.0555375 0.0710503 0)
(0.200146 0.277073 9.71113e-20)
(0.0724098 0.117346 0)
(0.493418 0.596911 5.26362e-19)
(0.297838 0.308446 -1.1866e-18)
(0.230993 0.776473 0)
(0.312279 0.821746 0)
(0.168408 0.470437 0)
(0.0648931 0.167517 -7.71563e-19)
(0.229705 0.105525 0)
(0.118471 0.0508921 6.99022e-19)
(0.516103 0.513317 0)
(0.538983 0.419351 0)
(0.306042 0.250703 1.32599e-18)
(0.56974 0.322293 0)
(0.344493 0.148463 2.80612e-20)
(0.476835 0.00300887 0)
(0.48366 -0.0064731 0)
(0.256466 -0.000234845 0)
(0.619207 -0.0613402 0)
(0.526724 -0.0412763 0)
(0.329114 -0.0267644 0)
(1.0256 0.0654321 0)
(1.01256 0.0270742 0)
(1.00465 0.021506 0)
(0.012459 0.953635 1.29223e-18)
(0.00689636 0.494827 0)
(0.00198341 0.990968 2.27787e-18)
(-0.00236344 0.546871 -2.00347e-18)
(0.042555 0.62872 3.76389e-19)
(0.0237398 0.536984 0)
(0.0208584 0.306086 0)
(-0.0196732 0.534132 0)
(-0.00766444 0.271494 0)
(5.21258e-05 0.866732 -8.42551e-21)
(-0.0129175 0.476476 0)
(-0.0254794 0.835368 -4.15963e-19)
(-0.00944025 0.433235 7.89794e-19)
(-0.00899304 0.56196 0)
(-0.00621885 0.589624 0)
(-0.00471693 0.290328 0)
(0.000878445 0.709591 0)
(0.000248947 0.378403 0)
(0.475934 -0.000328247 0)
(0.256021 0.00302426 0)
(0.467927 0.00906989 0)
(0.247157 0.000410799 0)
(0.224439 0.000564566 0)
(0.421785 0.00363902 0)
(0.405982 0.0126796 0)
(0.221069 0.00411099 0)
(-0.00647743 4.03788 -6.93018e-20)
(0.0602211 3.91025 0)
(0.0867601 2.35695 0)
(0.037411 1.3979 0)
(0.242488 1.66289 0)
(0.258293 0.707136 2.21656e-19)
(0.0264602 1.98809 0)
(-0.0218047 1.1471 0)
(0.00254062 2.31864 0)
(-0.0156336 2.42789 0)
(-0.00604183 2.39939 0)
(-0.0102019 1.78921 2.2307e-20)
(-0.0135448 2.39087 0)
(-0.00533455 2.18138 0)
(0.00517795 0.425906 1.78606e-20)
(0.0114272 0.817824 3.05128e-19)
(-0.0133333 0.793534 2.24905e-19)
(-0.000563763 0.433236 0)
(0.24798 0.0393885 2.07777e-18)
(0.122315 0.0160169 -1.99712e-18)
(0.0916745 0.688818 0)
(0.0636846 0.336056 -5.78319e-19)
(0.0784731 0.759385 -1.92416e-18)
(0.0322726 0.422783 1.88229e-18)
(0.259028 0.00600878 0)
(0.501075 0.012339 0)
(0.545955 0.0364885 0)
(0.28959 0.0120709 0)
(0.00537352 0.715414 0)
(0.0141618 0.71671 0)
(0.00320955 0.382287 0)
(0.216236 0.123285 2.0903e-18)
(0.251833 0.127362 -2.35927e-18)
(0.12119 0.0687558 0)
(0.618474 0.0475185 2.34392e-19)
(0.362026 0.0305628 0)
(0.55398 0.0344788 0)
(0.285477 0.00744756 0)
(0.249204 0.0298508 0)
(0.253992 0.0174827 -9.66295e-18)
(0.126266 0.0114028 3.51788e-18)
(-0.0281328 2.40728 4.8515e-18)
(-0.0222058 1.43718 4.51009e-19)
(0.0206273 3.94123 -1.60089e-19)
(0.126146 3.8064 7.01593e-18)
(-0.141173 2.77488 3.09696e-19)
(-0.0946642 1.99797 -1.26371e-21)
(-0.258627 3.0954 -6.57675e-18)
(0.0494092 3.53287 4.92732e-18)
(0.0129022 3.73836 -7.37614e-18)
(0.461796 -0.00428079 0)
(0.468322 0.00570894 0)
(0.249455 -0.000185501 0)
(0.470594 0.00636389 0)
(0.444208 0.0124821 0)
(0.246478 0.00564069 0)
(0.430007 -0.00164073 0)
(0.433426 -0.00261284 0)
(0.228147 -0.000970011 0)
(0.163903 0.277397 -3.75373e-19)
(0.0529092 0.119192 0)
(0.0680983 0.133589 2.05937e-19)
(0.15645 0.308154 1.61123e-18)
(0.163841 0.30064 -8.88159e-19)
(0.0655941 0.124914 1.66762e-18)
(0.130865 0.367625 3.95619e-18)
(0.0711165 0.16698 7.52866e-19)
(0.241131 0.0811699 2.75149e-18)
(0.236177 0.0956305 7.14787e-19)
(0.121372 0.0444656 1.3191e-18)
(0.617267 0.237559 -1.52438e-18)
(0.370103 0.109981 -1.65987e-18)
(-0.0226096 0.974927 9.68743e-19)
(-0.00966891 0.530766 0)
(0.517414 0.00779927 0)
(0.492894 0.0187407 0)
(0.274835 0.00751666 0)
(0.0159664 4.013 0)
(0.0437363 2.26221 9.88293e-18)
(0.0580537 2.29557 0)
(0.0235567 1.33435 -9.17284e-18)
(-0.017118 4.07976 1.95144e-18)
(-0.0298687 4.10506 0)
(0.2366 0.377235 -3.54139e-20)
(0.313531 0.687646 2.72537e-19)
(0.0732291 0.211833 -4.01721e-19)
(-0.0478743 2.27189 -4.20712e-18)
(-0.0481018 2.10302 0)
(-0.0311354 1.26762 0)
(0.0129716 0.809381 -2.55463e-20)
(0.0188057 0.823755 -6.68424e-19)
(0.00917975 0.425432 -2.58698e-20)
(0.14253 0.619835 1.91978e-18)
(0.0712051 0.274912 -1.24262e-18)
(0.00697244 0.892596 1.58245e-18)
(0.0262177 0.822024 -1.76677e-18)
(0.0128492 0.45891 8.54227e-20)
(-0.0253801 4.05485 -1.1252e-17)
(-0.0368747 4.13954 1.09599e-17)
(-0.0386779 2.55598 6.21227e-18)
(-0.0740706 2.45551 -5.33493e-18)
(-0.0193356 1.55236 -5.99168e-18)
(-0.0420291 4.13041 -1.4474e-17)
(-0.0441328 4.12787 1.27198e-17)
(0.156482 0.359975 0)
(0.16721 0.331689 -3.67846e-18)
(0.0733024 0.152712 1.56642e-18)
(0.176335 0.420905 2.36948e-18)
(0.0767717 0.215855 -3.54928e-18)
(0.655354 0.100241 8.91036e-19)
(0.653852 0.175115 0)
(0.384096 0.0712324 -8.83692e-19)
(-0.0390832 0.895229 -9.49314e-21)
(-0.0188693 0.94691 0)
(-0.0125495 0.516682 0)
(0.134769 0.535329 -6.7423e-19)
(0.140064 0.485034 -1.45678e-18)
(0.069862 0.246715 2.65406e-18)
(1.05421 -0.151179 0)
(1.12546 -0.152739 2.99086e-18)
(0.0309348 1.93952 0)
(0.0180989 1.64439 0)
(1.05545 0.0994407 2.23568e-20)
(1.03985 0.17401 6.21884e-18)
(0.0169458 1.81538 -2.91746e-20)
(0.00488719 1.42194 0)
(-0.0717206 3.76686 2.85327e-18)
(0.0352717 3.44345 0)
(1.12075 0.54402 -7.92252e-19)
(1.04724 0.0883357 -3.58832e-20)
(1.03412 -0.0368714 0)
(1.03873 -0.000500278 -5.8542e-23)
(0.0376406 1.33743 0)
(0.0695698 1.9629 0)
(-0.0619022 1.44495 0)
(-0.0500089 1.88708 6.1854e-19)
(-0.0326081 1.87929 3.82602e-19)
(0.886909 0.0105443 -1.87692e-20)
(0.998532 0.00904464 0)
(1.03202 0.0264974 0)
(-0.0158972 2.41304 0)
(-0.0162714 1.63353 0)
(-0.0330637 1.70588 0)
(0.314351 1.51361 5.65492e-19)
(1.11637 -0.144135 0)
(0.9915 -0.111671 0)
(1.06512 -0.020628 3.8193e-18)
(1.10705 -0.121487 -4.52305e-18)
(1.04037 -0.0479529 0)
(-0.0220431 2.38568 0)
(0.00403521 2.15936 0)
(0.00127007 2.28522 0)
(-0.0158052 1.77393 0)
(-0.0148021 1.65245 0)
(-0.0232393 1.44451 0)
(0.974606 -0.000917141 0)
(0.938186 0.0122907 -2.43644e-20)
(0.797033 1.24984 -9.56125e-19)
(1.06052 0.0181692 -3.82038e-18)
(1.07213 0.107002 4.61823e-18)
(1.03328 0.0454446 0)
(1.13201 0.111489 3.53641e-18)
(1.11814 0.166452 -4.50603e-18)
(1.00808 0.135587 0)
(-0.0201898 1.76221 0)
(0.00461129 1.73994 1.46709e-19)
(-0.0123863 1.36939 -1.03622e-19)
(1.20537 0.177617 4.69737e-18)
(1.13308 0.0647555 0)
(-0.236994 3.94852 -3.7275e-18)
(-0.154575 2.49714 -2.42333e-19)
(-0.237703 4.01177 4.37687e-18)
(-0.0583589 3.90845 -1.73776e-18)
(-0.0170958 3.54932 0)
(-0.0222298 3.82511 1.41253e-18)
(-0.164003 4.15481 3.84236e-18)
(-0.0803918 4.04417 -2.62786e-18)
(-0.102456 4.05453 0)
(0.478965 0.217522 0)
(0.455304 0.249012 0)
(1.14228 0.692484 2.40273e-18)
(0.994127 0.668846 -3.0551e-18)
(1.23943 0.567196 0)
(1.08741 0.382243 0)
(1.11057 0.0912152 -6.77902e-18)
(0.944087 0.0535735 8.36637e-18)
(1.10848 -0.0483642 0)
(0.92935 -0.0234825 0)
(1.16642 0.0154303 0)
(1.21747 0.051479 0)
(1.11044 0.0425706 0)
(1.19579 0.105327 0)
(1.15031 0.107149 0)
(1.12468 0.081574 0)
(0.0417206 1.43098 0)
(0.0152883 1.08892 0)
(0.0751924 1.5505 0)
(0.0654067 1.14502 0)
(0.0772635 2.12732 0)
(0.0819915 1.59824 -1.19806e-18)
(0.00332074 2.10439 0)
(-0.00398334 1.79963 8.52622e-19)
(-0.0405607 1.8131 -1.0362e-18)
(-0.0555189 1.58259 0)
(-0.0313245 1.29502 0)
(-0.0781764 1.62703 0)
(-0.0487053 1.14058 0)
(-0.140969 2.51497 -4.71375e-19)
(-0.0684273 2.07026 5.10917e-19)
(-0.0663994 2.02537 5.98255e-19)
(-0.0366861 1.60693 0)
(-0.0574618 1.98165 -8.91295e-19)
(-0.0184758 1.68896 -5.49277e-19)
(-0.118855 2.5282 3.63786e-19)
(-0.0878496 2.34651 -6.51595e-19)
(-0.0905992 2.28029 -7.2852e-19)
(1.01923 0.0190436 6.0973e-18)
(0.767487 0.00642623 -7.65942e-18)
(0.977843 0.0335165 -6.09063e-18)
(0.754738 0.0193587 7.58127e-18)
(1.1106 0.00883979 0)
(0.858943 4.87602e-05 0)
(1.13593 0.0292008 0)
(1.09183 0.00719072 0)
(0.88053 0.00466099 0)
(1.20853 0.0746765 0)
(1.1287 0.031048 0)
(0.929918 0.0199892 0)
(-0.000764893 2.27188 -2.08095e-20)
(-0.0140511 2.42069 0)
(-0.0150556 2.36158 0)
(-0.0268177 1.8391 1.58729e-19)
(-0.0117165 1.46609 -6.44157e-21)
(-0.0254214 2.44719 2.14854e-19)
(-0.0337654 2.36478 -2.22563e-19)
(-0.0298925 2.16293 0)
(-0.0214334 2.14468 0)
(-0.0153759 2.17319 0)
(-0.0281406 1.86449 0)
(-0.0205216 1.35779 0)
(0.412122 1.72589 -1.28331e-18)
(0.437604 1.39034 -4.16813e-19)
(0.297783 1.29642 -4.96315e-19)
(0.156941 1.42383 1.52963e-18)
(0.467715 2.46934 5.42859e-19)
(1.13908 -0.0547016 0)
(1.10046 -0.0859392 0)
(0.935056 -0.0570528 0)
(1.17717 -0.023421 0)
(1.12959 -0.0542462 0)
(1.16233 -0.0957596 0)
(1.18502 -0.101026 0)
(1.20162 -0.0973433 0)
(1.0661 0.0244249 6.42375e-18)
(0.830898 0.0179728 -8.08543e-18)
(1.02592 0.0285396 -6.38189e-18)
(0.824807 0.0148464 7.9234e-18)
(0.771603 1.39456 0)
(0.690759 1.30723 -1.1658e-18)
(0.833964 1.30121 -1.11193e-18)
(0.837093 1.00507 1.48947e-18)
(0.660629 1.26055 2.86868e-18)
(0.524205 0.071703 2.41683e-18)
(1.22072 0.096028 0)
(1.27239 0.18317 -3.79529e-18)
(1.06981 0.0785254 -1.6754e-19)
(1.25454 0.135829 0)
(-0.21316 3.32192 2.95621e-18)
(-0.258311 3.42193 -3.91271e-18)
(-0.050953 1.66732 2.26281e-18)
(0.254818 0.512761 -1.20919e-18)
(0.0465073 3.60154 8.07661e-19)
(-0.00503493 3.65099 0)
(0.0271951 3.32772 -1.14861e-18)
(-0.143713 3.56148 -7.59432e-18)
(-0.0333865 3.62937 0)
(-0.0299772 3.96241 2.93849e-19)
(-0.040031 4.24152 -3.26888e-18)
(-0.0497869 4.02843 4.71525e-18)
(-0.0949462 4.18149 0)
(-0.0367835 4.11292 0)
(0.658985 1.46235 0)
(0.659674 0.833903 -2.21239e-18)
(0.892774 0.803111 1.06619e-18)
(0.889547 1.06604 0)
(0.973836 1.11541 -9.36248e-19)
(1.01219 0.853358 4.50972e-20)
(0.487871 0.159443 -3.10825e-18)
(0.572822 0.248816 -1.88276e-20)
(0.456351 0.169702 1.55595e-18)
(0.505063 0.297275 1.04827e-19)
(0.39621 0.231945 -4.12813e-18)
(0.545042 0.25871 0)
(0.72394 0.381262 2.63578e-18)
(0.733417 0.355946 0)
(0.537728 0.283885 0)
(0.407224 0.204528 0)
(1.07723 0.713526 2.06977e-18)
(1.28829 0.246127 -3.92571e-18)
(1.24677 0.395886 0)
(1.14113 0.248685 0)
(0.510632 0.134083 2.39821e-18)
(1.07686 0.603803 -1.58581e-18)
(0.965342 0.550796 2.93367e-18)
(1.24279 0.455434 -3.60498e-18)
(1.01615 0.034473 4.33655e-18)
(1.04071 0.0553069 -4.47985e-18)
(0.86518 0.0270582 0)
(1.09055 -0.0115346 0)
(1.04963 -0.0268514 -4.19646e-18)
(0.850244 -0.00930913 4.14429e-18)
(1.33873 0.0262553 0)
(1.25777 0.0421916 0)
(1.25126 0.0526707 0)
(1.20578 0.0671541 0)
(1.302 0.0189931 0)
(1.26555 0.0160937 0)
(-0.0288342 1.31634 0)
(-0.0301013 1.06749 0)
(0.156211 1.93869 -7.40885e-19)
(0.303416 1.63346 -3.18971e-19)
(0.147333 1.53782 -6.90905e-19)
(0.181242 1.29856 1.11439e-18)
(0.174751 1.95689 0)
(0.171091 2.44562 -1.0109e-18)
(0.142645 2.46672 0)
(0.387127 2.50276 -7.47419e-19)
(0.337969 2.34971 1.94358e-18)
(0.232543 2.3996 8.73416e-19)
(0.292774 1.94846 -3.87269e-19)
(0.225678 2.05766 3.10616e-19)
(0.341415 2.22542 -1.32404e-18)
(0.282324 2.45614 0)
(0.338554 2.4187 9.7334e-19)
(-0.0803007 2.47931 -3.67874e-19)
(-0.0513553 2.05433 0)
(-0.0184957 2.38449 1.10243e-18)
(-0.0612981 2.42403 0)
(-0.0356919 1.99996 -9.47205e-19)
(-0.028219 1.67913 0)
(-0.13537 2.30169 -5.7769e-19)
(-0.148696 2.47901 0)
(-0.101373 2.03229 0)
(-0.0968641 2.02813 6.39688e-19)
(-0.0753106 2.0975 2.0655e-20)
(-0.0652609 2.05242 1.25833e-18)
(-0.0412493 1.61658 8.05408e-21)
(-0.107746 2.47967 3.46043e-19)
(-0.113961 2.50589 1.9301e-19)
(-0.028221 1.52693 0)
(-0.00917891 1.26322 0)
(-0.117201 2.54868 9.26976e-19)
(-0.116774 2.27365 8.15402e-19)
(-0.138773 2.43154 -1.05919e-18)
(-0.0840414 2.52604 0)
(-0.0218022 2.34937 -5.90403e-19)
(-0.041276 2.1614 2.45611e-19)
(-0.0308943 2.19768 -7.70255e-20)
(-0.0805845 2.48134 -4.35968e-19)
(-0.0453075 2.21302 -1.3032e-19)
(-0.0593509 2.18979 6.0264e-19)
(0.951144 0.0139172 -4.22124e-18)
(0.950708 0.00960687 4.1047e-18)
(0.777869 0.00740263 0)
(1.1844 0.054021 5.61741e-18)
(0.923564 0.0354676 -6.06092e-18)
(0.770508 0.017889 6.61762e-18)
(1.24496 0.0950887 -7.50575e-19)
(1.05785 -0.0145608 0)
(1.04182 -0.00426143 4.04296e-18)
(0.877425 -0.00444331 -3.97699e-18)
(1.282 0.037016 -2.33212e-19)
(1.24896 0.0322395 2.00396e-18)
(1.38302 0.0518628 0)
(1.4084 0.0526557 -6.83402e-19)
(1.3496 0.0368828 0)
(1.23964 0.038237 0)
(1.36235 0.0249792 0)
(1.24375 0.0219584 0)
(1.40335 0.029841 1.42e-18)
(1.39303 0.017767 -3.15109e-18)
(1.37951 0.0325415 -1.58243e-18)
(1.39893 0.0332632 -1.68156e-18)
(1.39813 0.069301 3.32229e-18)
(1.2742 0.0599899 0)
(1.33826 0.0916911 0)
(-0.0182705 2.37545 -2.45769e-19)
(-0.0015502 2.41474 -2.18552e-20)
(-0.0178754 2.42621 0)
(-0.0169595 2.18477 2.49767e-19)
(-0.0154589 2.20377 3.99097e-20)
(-0.0180611 2.14336 -3.80388e-20)
(-0.0365307 1.84298 4.87216e-19)
(-0.0600533 2.07428 -2.72969e-20)
(-0.0455202 2.14858 1.38407e-19)
(-0.0260365 1.77919 -2.46023e-19)
(-0.00980463 1.53767 2.95236e-19)
(-0.0281889 2.37522 1.16274e-20)
(-0.0320514 2.44169 3.25518e-19)
(0.452607 1.94104 7.30036e-19)
(0.420005 2.17568 1.40196e-18)
(0.660634 1.49137 1.13009e-18)
(0.534487 1.59724 4.01846e-19)
(0.568859 1.36729 0)
(0.36586 1.48625 5.79498e-19)
(0.29185 1.05162 6.87504e-19)
(0.202911 1.60854 4.81536e-20)
(0.288829 2.03911 -2.33699e-18)
(0.375242 2.03609 1.82881e-18)
(0.282816 1.51689 0)
(0.190126 1.20831 -1.20571e-18)
(0.128606 1.86452 2.9809e-18)
(0.144064 1.66861 -8.54124e-20)
(0.0802894 1.36967 -3.77076e-18)
(0.35108 0.930908 2.54658e-18)
(0.378326 1.02035 0)
(1.21505 -0.0265865 1.48697e-19)
(1.21945 -0.0861383 -1.24637e-19)
(1.25155 -0.0752459 -2.18633e-18)
(1.2722 -0.0446052 2.20491e-18)
(1.24866 -0.0185292 0)
(0.738782 1.55239 0)
(0.745742 1.55212 0)
(0.882311 1.36066 0)
(0.765145 1.46334 0)
(0.665469 1.32786 -4.82747e-21)
(0.473353 0.859592 0)
(0.944432 2.69805 2.46434e-20)
(0.76011 2.42762 0)
(0.862515 2.35507 -2.03522e-18)
(0.865242 2.37133 1.31926e-18)
(0.644846 0.106061 0)
(0.518072 0.0913982 6.34505e-19)
(0.849324 0.114455 3.97779e-18)
(0.639725 0.0889947 -1.4159e-18)
(0.509253 0.0393008 -4.4265e-18)
(1.4018 0.248943 -4.96359e-18)
(1.27943 0.324052 -3.76961e-20)
(1.12792 0.281558 3.78384e-18)
(1.2937 0.23802 3.38155e-18)
(1.07387 0.150785 -5.60323e-18)
(1.00263 0.152758 6.86464e-19)
(1.10152 0.227155 -1.535e-18)
(1.02645 0.218112 0)
(1.26937 0.176411 2.86772e-18)
(1.36029 0.199056 0)
(1.36061 0.241404 0)
(1.3308 0.130953 1.59191e-18)
(1.41046 0.200893 -3.35179e-20)
(1.38733 0.224606 -8.65878e-19)
(1.36721 0.202688 0)
(1.21655 0.0330437 3.14883e-18)
(1.39943 0.0503134 3.93272e-18)
(1.37222 0.0388074 -3.08976e-18)
(1.38318 0.0681548 -2.66715e-18)
(1.26233 0.0637779 -3.98709e-18)
(1.12655 0.119156 0)
(1.15431 0.0896262 0)
(0.888487 0.056539 -2.34233e-18)
(0.7361 0.0351342 8.73354e-19)
(1.35164 0.105505 3.64449e-18)
(1.41376 0.131767 -4.48567e-18)
(1.41527 0.150637 3.97549e-18)
(1.38123 0.14821 0)
(1.40715 0.101817 0)
(1.41222 0.0964715 -1.83181e-18)
(1.40071 0.0928812 -3.00101e-18)
(0.714924 2.17447 1.09612e-18)
(0.816494 2.77945 -1.11999e-18)
(0.948924 2.80302 -1.24851e-18)
(0.921573 3.07922 2.53759e-19)
(0.738862 1.61314 -2.61834e-18)
(0.72707 1.51149 4.24484e-19)
(0.510166 0.863922 -4.48204e-20)
(0.899929 2.55796 -8.88968e-19)
(0.914373 2.51971 1.62126e-18)
(0.793075 2.87493 2.19327e-19)
(0.7423 2.06001 -2.24218e-19)
(0.680271 1.92993 0)
(0.600696 0.922246 -2.4129e-19)
(0.0113482 1.51914 1.73774e-18)
(0.508741 0.227183 2.01696e-18)
(0.364096 0.349185 2.15763e-18)
(0.469437 0.258463 2.30919e-18)
(0.591349 0.332009 -3.98008e-18)
(0.595023 0.298678 3.24837e-18)
(0.510277 0.22822 -1.14428e-18)
(0.404853 0.202443 2.5396e-18)
(0.590232 0.178303 -1.39985e-18)
(0.568335 0.19119 0)
(0.460194 0.151177 5.27012e-21)
(0.866667 0.503896 1.45473e-18)
(0.755763 0.429221 -5.10218e-18)
(0.652523 0.381655 -4.13584e-21)
(0.633031 0.370684 0)
(0.816311 0.860063 1.7569e-18)
(1.04416 0.931066 2.23776e-18)
(0.953645 1.01141 -2.58951e-18)
(1.08753 0.944703 -9.12613e-19)
(1.09138 0.912145 -3.21759e-19)
(1.08924 0.981002 3.2864e-19)
(1.16632 0.752952 -3.34998e-18)
(1.16858 0.833388 8.54789e-19)
(1.19785 0.823048 0)
(1.20849 0.742908 -1.24748e-18)
(1.337 0.349927 1.1517e-18)
(1.39952 0.319463 2.07793e-18)
(1.41139 0.3076 1.98181e-18)
(1.32868 0.429438 -2.25085e-18)
(1.33505 0.437936 0)
(1.34865 0.40175 0)
(1.13308 0.411981 -2.01443e-20)
(0.846557 0.233861 0)
(0.945601 0.251643 1.69826e-18)
(1.10628 0.297418 -2.81415e-20)
(1.24362 0.507872 9.93021e-18)
(1.16996 0.579678 2.52359e-18)
(1.15462 0.511471 -2.48231e-18)
(1.03703 0.46191 2.65423e-18)
(0.954511 0.463677 1.48632e-18)
(0.824624 0.39896 -1.43887e-18)
(1.22277 -0.0269035 3.53001e-18)
(1.32181 -0.0110293 0)
(1.30591 -0.0245576 2.36347e-18)
(1.25793 -0.0186394 -5.28625e-18)
(1.35148 0.00978636 2.589e-18)
(1.32273 0.0338731 -5.42133e-18)
(1.25683 0.0388132 0)
(1.18182 0.0515405 -1.10245e-18)
(1.29236 0.0399793 2.81864e-18)
(1.24323 0.061945 -1.44694e-18)
(1.20122 0.0526801 1.0388e-18)
(-0.0746641 1.43282 0)
(-0.0819719 1.83834 0)
(-0.0508299 1.32428 0)
(-0.0337817 1.0673 0)
(-0.0121537 2.02517 1.20112e-18)
(0.0516262 1.86442 -3.13869e-19)
(0.0938387 2.40465 -4.37645e-19)
(0.0715972 2.23737 4.35936e-19)
(-0.0958811 2.25393 -9.43253e-19)
(-0.0767999 2.26125 7.08118e-19)
(-0.00312654 1.99434 3.73186e-20)
(-0.0271992 1.86329 -8.20522e-19)
(-0.0459373 1.73769 -1.1275e-19)
(-0.0812528 1.93544 -1.06926e-19)
(0.00739516 2.47197 -1.17281e-18)
(0.0305518 2.40681 0)
(0.061967 2.53188 5.7435e-19)
(0.0683038 2.51604 5.06121e-19)
(0.218055 2.45242 -4.63429e-19)
(0.211533 2.29159 0)
(0.219721 2.22176 -2.31567e-18)
(0.279679 2.39942 1.65891e-18)
(0.174939 2.49066 -1.20845e-18)
(0.11409 2.48215 6.60823e-19)
(0.104636 2.46 0)
(-0.111672 2.54286 -1.04401e-18)
(-0.110571 2.44104 -1.24899e-18)
(-0.125878 2.52238 0)
(-0.0901779 2.37329 -1.53994e-20)
(-0.0904778 2.51124 5.40611e-19)
(-0.106833 2.12755 9.56509e-20)
(-0.0571025 1.95001 -1.38407e-18)
(-0.074557 2.15654 3.78776e-19)
(-0.134655 2.41634 4.7924e-19)
(-0.121287 2.3174 0)
(-0.0586695 2.15053 0)
(-0.0383849 1.68309 4.23868e-19)
(-0.0293238 2.05894 -1.28775e-19)
(-0.0420608 2.04854 0)
(-0.0373547 1.57289 3.40561e-19)
(-0.017584 1.28905 -6.5357e-19)
(1.25225 0.00978901 0)
(1.24071 0.00234938 -3.64177e-19)
(1.40582 0.0168759 -2.58379e-18)
(1.3694 0.0119193 0)
(1.2879 0.00313843 0)
(1.40125 0.00626134 -1.3434e-20)
(1.38472 0.00625191 4.30645e-18)
(1.35006 0.0191627 5.09649e-18)
(1.26235 0.0309059 0)
(1.18809 0.0275267 0)
(1.35138 0.0202807 2.5794e-18)
(1.24471 0.0284643 0)
(1.16011 0.0323239 0)
(-0.0380637 2.44868 0)
(-0.0383491 2.44325 2.07367e-20)
(-0.0267858 2.46197 1.20532e-19)
(-0.0250537 2.13423 0)
(-0.0463006 2.40414 2.25142e-19)
(-0.028687 2.2974 -1.29441e-19)
(-0.0239374 2.202 0)
(0.624263 2.50947 0)
(0.44423 2.34924 -2.48982e-18)
(0.480076 2.48208 0)
(0.578294 2.16628 2.90086e-18)
(0.560731 1.74087 0)
(0.540502 1.96527 -1.21604e-18)
(0.688754 1.83833 -5.41229e-20)
(0.436663 1.17049 -3.02362e-18)
(0.386442 0.796463 3.36534e-18)
(0.463613 1.22803 7.32568e-19)
(0.680231 1.83411 0)
(0.707617 1.87795 0)
(0.434817 1.11808 0)
(0.303262 0.784462 -2.53199e-18)
(0.631929 2.48337 -1.91501e-18)
(0.702902 2.20654 -4.50853e-19)
(0.748699 2.41441 3.52819e-19)
(0.380901 1.30046 0)
(0.400691 1.23517 0)
(0.288168 0.952281 -7.91146e-19)
(0.620326 1.93029 0)
(0.712968 1.44764 0)
(0.543759 1.42636 -2.86333e-18)
(0.63379 1.1325 -1.76083e-19)
(0.658489 1.71594 0)
(0.629887 1.85152 4.34214e-18)
(0.962227 1.07536 -8.63826e-19)
(0.933964 1.21491 0)
(0.932492 1.14118 1.46814e-18)
(0.740804 1.26253 0)
(0.737856 1.18677 0)
(0.920231 2.26288 -1.05589e-18)
(0.991934 2.75602 -9.53447e-19)
(0.94873 2.76325 1.90567e-18)
(0.950802 2.70064 -5.60694e-19)
(0.787841 1.82277 0)
(0.834678 2.04468 7.60904e-19)
(0.514389 1.04241 -9.04384e-19)
(0.380694 0.744399 -2.12052e-20)
(0.835251 2.53465 0)
(0.714329 2.15466 -9.73325e-19)
(0.731016 1.99274 0)
(0.80097 0.177211 0)
(0.586944 0.120855 0)
(0.450509 0.100529 0)
(0.7836 0.190943 -2.62715e-18)
(0.595117 0.144748 1.45381e-18)
(0.750289 0.0404546 -1.752e-18)
(0.91376 0.0933454 0)
(0.85678 0.0942484 7.32408e-19)
(0.625101 0.0451325 2.88286e-18)
(0.541674 0.0269157 -1.82759e-18)
(0.633571 3.06575 2.8693e-19)
(0.72776 3.24546 0)
(0.456999 3.08389 6.85158e-19)
(0.331757 3.54973 -5.68457e-19)
(0.404692 3.4697 -1.31481e-18)
(0.451588 1.23677 2.70387e-18)
(0.440458 1.62686 0)
(0.367467 0.549426 -5.38655e-19)
(0.517335 0.621683 3.55946e-18)
(0.547684 0.292788 -7.52293e-19)
(0.629323 0.35119 8.37289e-19)
(0.754304 0.471931 1.83893e-18)
(0.840445 0.539667 0)
(0.74247 0.530729 0)
(0.723115 0.458428 0)
(1.2661 0.693467 8.96793e-19)
(1.22546 0.619515 -2.44663e-18)
(1.22854 0.673556 2.12051e-18)
(1.27241 0.584276 -1.97965e-18)
(1.34951 0.55242 0)
(1.32944 0.612724 -6.3638e-19)
(0.988493 0.396215 -3.46502e-18)
(1.0261 0.389627 -4.48201e-18)
(0.831602 0.363313 2.64517e-18)
(0.763991 0.32566 -2.55016e-18)
(0.872336 0.293022 -2.13298e-18)
(0.776145 0.274864 2.60417e-18)
(1.3593 0.00831076 -2.73332e-18)
(1.37374 0.00999823 5.3957e-18)
(1.26236 -0.0215344 3.30576e-18)
(1.26833 -0.0239374 -3.90517e-18)
(1.32598 0.00132439 0)
(1.3685 0.00461041 -6.60355e-18)
(-0.0385013 2.53927 2.09884e-19)
(-0.0499794 2.50402 0)
(0.0235528 2.52653 1.83953e-18)
(0.0327504 2.52528 -1.66412e-18)
(0.0494705 2.4585 8.19682e-19)
(-0.00614201 2.44078 0)
(-0.0750185 2.49869 0)
(-0.0697076 2.35426 -1.26307e-19)
(-0.0586046 2.33729 1.13111e-19)
(-0.0539408 2.38431 1.55798e-20)
(-0.0534509 2.46219 -1.97893e-19)
(-0.0566445 2.4591 1.00786e-19)
(0.753285 2.41154 -2.97224e-18)
(0.731688 2.42818 3.17258e-18)
(0.59676 2.16422 -1.64501e-18)
(0.686159 2.4574 1.40945e-19)
(0.687184 1.65663 0)
(0.624303 1.78411 -1.40127e-18)
(0.656392 1.63046 1.37629e-18)
(0.609579 1.9289 1.63831e-18)
(0.693282 2.0553 0)
(0.706872 1.91037 0)
(0.602233 2.40374 2.86627e-18)
(0.527723 1.92449 4.14803e-18)
(0.582248 2.05377 -2.91063e-18)
(0.495614 1.99151 -4.84476e-19)
(0.497637 2.42485 9.61979e-19)
(0.430327 2.21991 -2.36887e-18)
(0.519268 1.06566 -1.89593e-18)
(0.514451 0.973252 0)
(0.386513 0.735465 -1.8941e-18)
(0.794389 1.8258 0)
(0.781947 1.83653 0)
(0.408677 3.02852 -1.50882e-18)
(0.663218 3.37537 -8.89052e-19)
(0.495596 3.45248 1.40404e-18)
(0.147727 1.53505 0)
(0.205627 1.13196 -1.24722e-18)
(0.365901 1.52959 -1.70185e-18)
(0.313226 2.78824 0)
(0.203273 3.32917 9.42233e-19)
(0.0473661 3.18886 0)
(0.888801 0.733895 -3.67834e-18)
(1.02188 0.813698 5.24576e-18)
(1.03659 0.71463 -5.20759e-18)
(0.835722 0.637493 -4.42185e-19)
(0.896615 0.623476 -1.85667e-18)
(0.710244 3.29952 7.31875e-19)
(0.850056 3.20049 -1.46731e-18)
(0.57524 3.02532 3.20172e-18)
(0.550122 2.68884 -2.24196e-18)
(0.835102 2.82632 -2.26879e-18)
(0.858957 3.09832 -3.22531e-19)
(0.92015 3.00168 1.72104e-18)
(0.691793 2.83614 1.44725e-19)
(0.678484 2.64161 9.7358e-19)
)
;

boundaryField
{
    wall-4
    {
        type            noSlip;
    }
    velocity-inlet-5
    {
        type            fixedValue;
        value           uniform (1 0 0);
    }
    velocity-inlet-6
    {
        type            fixedValue;
        value           uniform (0 3 0);
    }
    pressure-outlet-7
    {
        type            zeroGradient;
    }
    wall-8
    {
        type            noSlip;
    }
    frontAndBackPlanes
    {
        type            empty;
    }
}


// ************************************************************************* //
